/*--------------------------------*- C++ -*----------------------------------*\
| =========                 |                                                 |
| \\      /  F ield         | OpenFOAM: The Open Source CFD Toolbox           |
|  \\    /   O peration     | Version:  2112                                  |
|   \\  /    A nd           | Website:  www.openfoam.com                      |
|    \\/     M anipulation  |                                                 |
\*---------------------------------------------------------------------------*/
FoamFile
{
    version     2.0;
    format      ascii;
    arch        "LSB;label=32;scalar=64";
    class       volVectorField;
    location    "0.17";
    object      U_0;
}
// * * * * * * * * * * * * * * * * * * * * * * * * * * * * * * * * * * * * * //

dimensions      [0 1 -1 0 0 0 0];

internalField   nonuniform List<vector> 
12885
(
(1.24557 0.0309962 0)
(0.481605 0.00084597 0)
(0.353873 0.000174655 0)
(0.306723 8.46146e-05 0)
(0.284197 5.29997e-05 0)
(0.269072 4.35835e-05 0)
(0.25687 4.24969e-05 0)
(0.245407 4.11531e-05 0)
(0.236349 4.68484e-05 0)
(0.224542 3.69986e-05 0)
(0.222133 1.97248e-05 0)
(0.215014 9.27876e-05 0)
(0.188059 0.000111081 0)
(0.186811 4.15553e-05 0)
(0.181483 4.30315e-05 0)
(0.178196 3.47543e-05 0)
(0.174453 4.64399e-05 0)
(0.169839 5.44402e-05 0)
(0.165843 4.83452e-05 0)
(0.162611 4.87439e-05 0)
(0.15948 5.55905e-05 0)
(0.156136 5.64213e-05 0)
(0.153632 4.04299e-05 0)
(0.152305 1.39649e-05 0)
(0.152222 3.07792e-05 0)
(0.149388 4.90533e-05 0)
(0.149188 -2.75191e-05 0)
(0.148518 -6.25104e-05 0)
(0.14932 0.000112376 0)
(0.141082 0.000423129 0)
(0.134597 0.000958204 0)
(0.077051 -0.00012548 0)
(0.0710282 0.000192041 0)
(0.0648798 9.03546e-05 0)
(0.061956 5.89037e-05 0)
(0.0599896 4.74437e-05 0)
(0.0583652 4.28121e-05 0)
(0.0569944 3.13834e-05 0)
(0.0568936 -0.000144805 0)
(0.054866 -0.00577806 0)
(3.4635 0.0956922 0)
(1.58216 0.00754408 0)
(1.16164 0.00171121 0)
(0.988845 0.000780954 0)
(0.904048 0.000473201 0)
(0.847348 0.000377964 0)
(0.802126 0.0003599 0)
(0.760153 0.000340921 0)
(0.72713 0.000378963 0)
(0.684683 0.000287275 0)
(0.675222 0.000195073 0)
(0.645051 0.000851396 0)
(0.545765 0.000749722 0)
(0.543778 0.000197425 0)
(0.527719 0.000288045 0)
(0.516459 0.00024009 0)
(0.502977 0.000317347 0)
(0.487284 0.000349525 0)
(0.473686 0.000310876 0)
(0.4624 0.000310785 0)
(0.451511 0.000347323 0)
(0.439839 0.000343365 0)
(0.43096 0.000241948 0)
(0.42567 0.000102782 0)
(0.424369 0.000211749 0)
(0.414029 0.00029951 0)
(0.411842 7.7571e-05 0)
(0.403202 5.07965e-05 0)
(0.396097 0.000941058 0)
(0.370137 0.00190734 0)
(0.353874 0.00573674 0)
(0.290689 0.006078 0)
(0.274143 0.00236118 0)
(0.2559 0.0013695 0)
(0.245722 0.000895549 0)
(0.238667 0.000733861 0)
(0.232792 0.000674925 0)
(0.227779 0.000489939 0)
(0.224869 -0.000153106 0)
(0.217533 -0.0151593 0)
(5.99283 0.192074 0)
(3.42842 0.030697 0)
(2.56103 0.00847055 0)
(2.17297 0.00411485 0)
(1.97473 0.00252521 0)
(1.84258 0.00200853 0)
(1.73855 0.00190902 0)
(1.64339 0.00181043 0)
(1.56902 0.001989 0)
(1.47476 0.00152706 0)
(1.45172 0.00127538 0)
(1.3676 0.00516979 0)
(1.14224 0.00355044 0)
(1.14442 0.000494932 0)
(1.11805 0.00141143 0)
(1.09463 0.00120541 0)
(1.06409 0.00168387 0)
(1.03175 0.00179427 0)
(1.00371 0.0015936 0)
(0.979408 0.00161227 0)
(0.956044 0.00177928 0)
(0.930774 0.00174727 0)
(0.911316 0.00124264 0)
(0.89807 0.000652407 0)
(0.892498 0.00128581 0)
(0.868583 0.0018758 0)
(0.860354 0.0022799 0)
(0.822722 0.00352778 0)
(0.789113 0.00607671 0)
(0.735537 0.00700507 0)
(0.714446 0.011747 0)
(0.680837 0.0129381 0)
(0.654434 0.010149 0)
(0.626307 0.00641718 0)
(0.606527 0.0045311 0)
(0.591758 0.003815 0)
(0.579175 0.00357693 0)
(0.568031 0.00307264 0)
(0.558178 0.00214904 0)
(0.543623 -0.0142022 0)
(8.34427 0.298105 0)
(6.22573 0.0905774 0)
(4.9366 0.0325494 0)
(4.23071 0.0166633 0)
(3.83804 0.0103455 0)
(3.57303 0.00817338 0)
(3.3676 0.00774368 0)
(3.18376 0.00731481 0)
(3.04175 0.00796699 0)
(2.86633 0.00611605 0)
(2.81872 0.00777409 0)
(2.59874 0.0181762 0)
(2.28193 0.0141644 0)
(2.21088 0.0017746 0)
(2.17989 0.00159037 0)
(2.13866 0.00371154 0)
(2.07862 0.00671419 0)
(2.02759 0.00791997 0)
(1.98271 0.00685789 0)
(1.94022 0.00665875 0)
(1.89921 0.00709442 0)
(1.85407 0.00699758 0)
(1.81944 0.00532232 0)
(1.7901 0.00252384 0)
(1.77028 0.0064607 0)
(1.72022 0.0104448 0)
(1.6952 0.0120281 0)
(1.611 0.0140011 0)
(1.55552 0.0185724 0)
(1.46895 0.0307499 0)
(1.4167 0.0282395 0)
(1.41949 0.0154837 0)
(1.39733 0.0197878 0)
(1.36957 0.0184203 0)
(1.34383 0.0160283 0)
(1.32047 0.0145469 0)
(1.29886 0.014012 0)
(1.27845 0.0133115 0)
(1.25892 0.0133804 0)
(1.23696 0.00853583 0)
(9.72138 0.358022 0)
(9.06616 0.17853 0)
(8.19154 0.0963165 0)
(7.41284 0.0620717 0)
(6.83302 0.0430443 0)
(6.39 0.0332206 0)
(6.0418 0.0289761 0)
(5.73572 0.0255939 0)
(5.50182 0.0273859 0)
(5.22974 0.021827 0)
(5.13294 0.0248487 0)
(4.77337 0.0504184 0)
(4.57708 0.0505052 0)
(4.34197 0.0234022 0)
(4.16355 0.0185053 0)
(4.02935 0.0165029 0)
(3.9184 0.0138342 0)
(3.87185 0.0109058 0)
(3.81485 0.0120784 0)
(3.75291 0.0160782 0)
(3.69091 0.0204675 0)
(3.62216 0.0221687 0)
(3.57123 0.0216489 0)
(3.50331 0.0216257 0)
(3.43247 0.0234549 0)
(3.37753 0.0341929 0)
(3.30183 0.0364475 0)
(3.23509 0.0463495 0)
(3.17787 0.0661204 0)
(3.14821 0.0651489 0)
(3.06967 0.0564993 0)
(3.0323 0.0498131 0)
(2.98891 0.0474689 0)
(2.94447 0.0464048 0)
(2.90431 0.0456545 0)
(2.86738 0.0453275 0)
(2.83417 0.0454508 0)
(2.80128 0.0458375 0)
(2.77315 0.0466791 0)
(2.74119 0.0475348 0)
(10.0377 0.341067 0)
(10.2203 0.196792 0)
(10.0772 0.130594 0)
(9.80628 0.106742 0)
(9.57993 0.0948867 0)
(9.29629 0.0874293 0)
(9.03268 0.0832655 0)
(8.77536 0.0762453 0)
(8.56026 0.0751596 0)
(8.35254 0.0711356 0)
(8.13898 0.0753244 0)
(7.96844 0.095738 0)
(7.80295 0.0963512 0)
(7.67695 0.0836435 0)
(7.5263 0.071509 0)
(7.38408 0.0662677 0)
(7.23985 0.0679814 0)
(7.11874 0.0649981 0)
(6.9902 0.0578269 0)
(6.90488 0.0582358 0)
(6.80951 0.059774 0)
(6.73882 0.0651299 0)
(6.64015 0.0683075 0)
(6.56494 0.0646812 0)
(6.47629 0.0790231 0)
(6.41658 0.0921948 0)
(6.34165 0.0944856 0)
(6.28884 0.106596 0)
(6.22953 0.114673 0)
(6.17826 0.119179 0)
(6.13005 0.120392 0)
(6.08556 0.119764 0)
(6.04171 0.119651 0)
(5.99807 0.120493 0)
(5.95753 0.121909 0)
(5.91879 0.123602 0)
(5.88448 0.125571 0)
(5.84988 0.127718 0)
(5.82161 0.130222 0)
(5.78911 0.132785 0)
(10.0742 0.29979 0)
(10.2995 0.196816 0)
(10.2927 0.132782 0)
(10.2623 0.118952 0)
(10.1943 0.108083 0)
(10.1624 0.10158 0)
(10.1185 0.101836 0)
(10.0811 0.103991 0)
(10.0178 0.106699 0)
(9.96772 0.106158 0)
(9.90964 0.115525 0)
(9.86531 0.131176 0)
(9.82344 0.134198 0)
(9.78371 0.126143 0)
(9.74094 0.120073 0)
(9.69361 0.116022 0)
(9.64781 0.116396 0)
(9.59366 0.111988 0)
(9.54948 0.117617 0)
(9.49633 0.125754 0)
(9.44679 0.133242 0)
(9.39534 0.134144 0)
(9.35464 0.134641 0)
(9.31662 0.141104 0)
(9.28728 0.156575 0)
(9.24612 0.169702 0)
(9.21926 0.171581 0)
(9.18924 0.178724 0)
(9.16601 0.186055 0)
(9.14041 0.192029 0)
(9.11674 0.196636 0)
(9.09435 0.200303 0)
(9.07306 0.203767 0)
(9.05208 0.207392 0)
(9.03252 0.211307 0)
(9.01348 0.215281 0)
(8.99685 0.219276 0)
(8.98 0.223249 0)
(8.96667 0.227275 0)
(8.95112 0.23113 0)
(10.0429 0.235605 0)
(10.2865 0.190834 0)
(10.3006 0.133866 0)
(10.2777 0.120499 0)
(10.2717 0.113163 0)
(10.2717 0.11113 0)
(10.2693 0.110198 0)
(10.2665 0.10993 0)
(10.2604 0.111528 0)
(10.2552 0.115912 0)
(10.25 0.122571 0)
(10.245 0.129424 0)
(10.2415 0.132258 0)
(10.2372 0.130383 0)
(10.2299 0.128034 0)
(10.2181 0.12775 0)
(10.205 0.129839 0)
(10.1906 0.133905 0)
(10.1776 0.138677 0)
(10.1628 0.144457 0)
(10.1499 0.151009 0)
(10.1372 0.159363 0)
(10.1268 0.167377 0)
(10.1157 0.176787 0)
(10.1049 0.183594 0)
(10.0947 0.193496 0)
(10.0858 0.197775 0)
(10.0795 0.20888 0)
(10.07 0.218974 0)
(10.0648 0.220613 0)
(10.0582 0.226402 0)
(10.0522 0.232214 0)
(10.0469 0.237765 0)
(10.042 0.243111 0)
(10.0375 0.248315 0)
(10.0331 0.253345 0)
(10.0293 0.25819 0)
(10.0255 0.262793 0)
(10.0224 0.267175 0)
(10.019 0.271293 0)
(10.0177 0.143131 0)
(10.1761 0.159764 0)
(10.2623 0.126178 0)
(10.2741 0.117731 0)
(10.2746 0.115986 0)
(10.2754 0.11311 0)
(10.2762 0.111136 0)
(10.2765 0.11136 0)
(10.276 0.114072 0)
(10.2749 0.118278 0)
(10.2732 0.122993 0)
(10.2712 0.127965 0)
(10.2694 0.132347 0)
(10.2673 0.13556 0)
(10.2641 0.138553 0)
(10.259 0.142327 0)
(10.2527 0.147525 0)
(10.2456 0.153836 0)
(10.2389 0.160968 0)
(10.2321 0.168913 0)
(10.2265 0.177225 0)
(10.2199 0.18581 0)
(10.2146 0.193961 0)
(10.2072 0.20242 0)
(10.203 0.210224 0)
(10.1952 0.218927 0)
(10.1944 0.225875 0)
(10.1861 0.234635 0)
(10.1842 0.245786 0)
(10.1827 0.251583 0)
(10.1818 0.253452 0)
(10.1798 0.25869 0)
(10.1782 0.263945 0)
(10.177 0.26891 0)
(10.1761 0.273569 0)
(10.1752 0.277935 0)
(10.1744 0.282019 0)
(10.1737 0.285829 0)
(10.173 0.289375 0)
(10.1725 0.292691 0)
(10.0036 0.0628641 0)
(10.0653 0.108003 0)
(10.128 0.101661 0)
(10.1562 0.096244 0)
(10.1637 0.09624 0)
(10.1666 0.0985454 0)
(10.1698 0.101817 0)
(10.173 0.105926 0)
(10.1755 0.110838 0)
(10.1766 0.116326 0)
(10.1768 0.122243 0)
(10.1764 0.128494 0)
(10.1758 0.134903 0)
(10.1748 0.141336 0)
(10.1736 0.14777 0)
(10.1717 0.154521 0)
(10.1694 0.161591 0)
(10.1669 0.169216 0)
(10.1645 0.176934 0)
(10.1622 0.185145 0)
(10.1603 0.19292 0)
(10.1587 0.20138 0)
(10.1577 0.208691 0)
(10.157 0.217552 0)
(10.1567 0.223834 0)
(10.1567 0.233592 0)
(10.1566 0.237686 0)
(10.1567 0.240041 0)
(10.1567 0.242345 0)
(10.157 0.244737 0)
(10.1575 0.247615 0)
(10.1582 0.252517 0)
(10.1585 0.257302 0)
(10.1586 0.261775 0)
(10.1587 0.265921 0)
(10.159 0.269761 0)
(10.1594 0.273309 0)
(10.1598 0.276594 0)
(10.1602 0.279619 0)
(10.1605 0.282438 0)
(9.99894 0.020415 0)
(10.0213 0.0530593 0)
(10.047 0.0661606 0)
(10.0669 0.0721196 0)
(10.0792 0.07779 0)
(10.0863 0.084833 0)
(10.0912 0.0918753 0)
(10.0954 0.0994094 0)
(10.0991 0.10594 0)
(10.1023 0.11286 0)
(10.1052 0.119926 0)
(10.1078 0.127216 0)
(10.1101 0.134491 0)
(10.1124 0.141886 0)
(10.1144 0.149023 0)
(10.1166 0.156367 0)
(10.1184 0.163228 0)
(10.1206 0.170579 0)
(10.1224 0.176945 0)
(10.1248 0.184349 0)
(10.1263 0.189763 0)
(10.1292 0.197443 0)
(10.13 0.201182 0)
(10.1337 0.209843 0)
(10.133 0.210618 0)
(10.1378 0.221932 0)
(10.1391 0.225751 0)
(10.1386 0.228429 0)
(10.1423 0.234965 0)
(10.1437 0.238852 0)
(10.1442 0.241468 0)
(10.1456 0.244878 0)
(10.147 0.248123 0)
(10.1482 0.251128 0)
(10.1493 0.253895 0)
(10.1504 0.256441 0)
(10.1514 0.258776 0)
(10.1523 0.260925 0)
(10.1531 0.262891 0)
(10.154 0.264726 0)
(9.99961 0.00599014 0)
(10.0064 0.023088 0)
(10.0162 0.0355532 0)
(10.0279 0.044983 0)
(10.0377 0.0524095 0)
(10.0477 0.060166 0)
(10.0542 0.0666305 0)
(10.0629 0.0746406 0)
(10.0704 0.0811529 0)
(10.075 0.0861207 0)
(10.0816 0.0922162 0)
(10.0881 0.0983853 0)
(10.0941 0.104454 0)
(10.0995 0.110267 0)
(10.1047 0.115844 0)
(10.1096 0.121071 0)
(10.1143 0.126097 0)
(10.1188 0.130711 0)
(10.1231 0.135224 0)
(10.127 0.13919 0)
(10.131 0.143261 0)
(10.1343 0.146509 0)
(10.1382 0.150295 0)
(10.1408 0.152677 0)
(10.1447 0.156492 0)
(10.1464 0.157661 0)
(10.1508 0.161879 0)
(10.1504 0.161813 0)
(10.1562 0.167175 0)
(10.1577 0.168525 0)
(10.1581 0.168855 0)
(10.1614 0.170279 0)
(10.1637 0.171682 0)
(10.1652 0.172984 0)
(10.1665 0.17418 0)
(10.1678 0.175276 0)
(10.1691 0.17628 0)
(10.1704 0.1772 0)
(10.1716 0.178042 0)
(10.1727 0.178833 0)
(9.99972 -9.76551e-05 0)
(10.0056 0.00113673 0)
(10.0152 0.00394355 0)
(10.0279 0.00875315 0)
(10.0395 0.0136669 0)
(10.0518 0.0195587 0)
(10.0603 0.0239353 0)
(10.0709 0.0298238 0)
(10.0818 0.0374195 0)
(10.0885 0.0410382 0)
(10.0942 0.0432572 0)
(10.103 0.0471205 0)
(10.1109 0.0509344 0)
(10.1176 0.0544171 0)
(10.1237 0.0577442 0)
(10.1292 0.06067 0)
(10.1349 0.0635723 0)
(10.1398 0.0659407 0)
(10.1451 0.0685353 0)
(10.1492 0.0703015 0)
(10.1542 0.0727786 0)
(10.1571 0.0737929 0)
(10.1622 0.0763817 0)
(10.1633 0.0764324 0)
(10.169 0.0798091 0)
(10.1718 0.0812183 0)
(10.1731 0.0814417 0)
(10.1759 0.0821151 0)
(10.179 0.0828782 0)
(10.1813 0.0838899 0)
(10.1832 0.0846822 0)
(10.185 0.0853655 0)
(10.1866 0.0859739 0)
(10.1882 0.0865248 0)
(10.1897 0.0870278 0)
(10.191 0.0874855 0)
(10.1922 0.0879028 0)
(10.1934 0.0882799 0)
(10.1944 0.0886247 0)
(10.1954 0.0889466 0)
(9.99922 -0.00731854 0)
(10.0142 -0.0236289 0)
(10.0348 -0.0283639 0)
(10.0554 -0.0253683 0)
(10.0721 -0.0199201 0)
(10.0852 -0.0152818 0)
(10.0956 -0.0113164 0)
(10.1055 -0.00820922 0)
(10.1156 -0.00324222 0)
(10.1244 0.00122466 0)
(10.1329 0.00380782 0)
(10.1414 0.00659701 0)
(10.149 0.00914069 0)
(10.1558 0.0113509 0)
(10.1621 0.0134808 0)
(10.1679 0.0152686 0)
(10.1735 0.017112 0)
(10.1784 0.0184599 0)
(10.1835 0.02011 0)
(10.1874 0.020963 0)
(10.192 0.0226116 0)
(10.1959 0.0239665 0)
(10.1987 0.0242334 0)
(10.2021 0.0250686 0)
(10.2053 0.0256661 0)
(10.208 0.0265103 0)
(10.2106 0.0271943 0)
(10.2129 0.0277279 0)
(10.2151 0.0281765 0)
(10.217 0.0285681 0)
(10.2189 0.0289187 0)
(10.2205 0.0292337 0)
(10.222 0.0295183 0)
(10.2234 0.029772 0)
(10.2247 0.0300017 0)
(10.2259 0.0302043 0)
(10.227 0.0303909 0)
(10.228 0.0305515 0)
(10.2289 0.0307068 0)
(10.2298 0.0308396 0)
(9.99998 -0.0283133 0)
(10.0371 -0.0646724 0)
(10.0807 -0.0670096 0)
(10.1134 -0.0560063 0)
(10.1322 -0.0467302 0)
(10.1431 -0.0415018 0)
(10.1524 -0.0378569 0)
(10.1624 -0.0347282 0)
(10.1728 -0.0310245 0)
(10.1825 -0.0271449 0)
(10.1916 -0.0243073 0)
(10.1998 -0.0217881 0)
(10.2072 -0.0196156 0)
(10.2139 -0.0176809 0)
(10.2202 -0.0159506 0)
(10.2261 -0.0143749 0)
(10.2315 -0.0129893 0)
(10.2365 -0.0117178 0)
(10.2411 -0.0106412 0)
(10.2453 -0.0096052 0)
(10.2493 -0.00879434 0)
(10.2529 -0.00790026 0)
(10.2563 -0.00717579 0)
(10.2594 -0.00655086 0)
(10.2622 -0.00600701 0)
(10.2648 -0.00552936 0)
(10.2672 -0.00510772 0)
(10.2694 -0.00473455 0)
(10.2714 -0.00440292 0)
(10.2732 -0.00410799 0)
(10.2749 -0.00384461 0)
(10.2764 -0.00361032 0)
(10.2779 -0.00340028 0)
(10.2792 -0.00321413 0)
(10.2803 -0.00304571 0)
(10.2814 -0.002898 0)
(10.2824 -0.00276128 0)
(10.2834 -0.00264526 0)
(10.2842 -0.00253132 0)
(10.285 -0.00243738 0)
(10.0033 -0.0693785 0)
(10.0835 -0.116803 0)
(10.1575 -0.0973275 0)
(10.1955 -0.0736619 0)
(10.2082 -0.0632444 0)
(10.215 -0.0594195 0)
(10.2239 -0.0560038 0)
(10.2351 -0.0518726 0)
(10.2464 -0.0477994 0)
(10.2563 -0.0441986 0)
(10.2651 -0.0413174 0)
(10.2729 -0.0389586 0)
(10.2802 -0.0369371 0)
(10.2869 -0.0351629 0)
(10.2932 -0.0335898 0)
(10.2989 -0.032197 0)
(10.3043 -0.0309664 0)
(10.3092 -0.0298829 0)
(10.3138 -0.028929 0)
(10.318 -0.0280891 0)
(10.3218 -0.0273485 0)
(10.3254 -0.0266953 0)
(10.3286 -0.0261232 0)
(10.3316 -0.0256223 0)
(10.3344 -0.0251819 0)
(10.3369 -0.0247933 0)
(10.3392 -0.0244492 0)
(10.3413 -0.0241444 0)
(10.3433 -0.0238741 0)
(10.3451 -0.0236349 0)
(10.3467 -0.0234222 0)
(10.3482 -0.023234 0)
(10.3496 -0.0230656 0)
(10.3508 -0.0229165 0)
(10.352 -0.0227818 0)
(10.353 -0.0226635 0)
(10.354 -0.0225542 0)
(10.3549 -0.022461 0)
(10.3556 -0.0223699 0)
(10.3564 -0.0222949 0)
(10.0107 -0.130632 0)
(10.156 -0.164326 0)
(10.2532 -0.111053 0)
(10.2834 -0.0831055 0)
(10.2878 -0.0762056 0)
(10.2932 -0.0727799 0)
(10.3037 -0.06788 0)
(10.3159 -0.0626278 0)
(10.3271 -0.0582187 0)
(10.3368 -0.0548013 0)
(10.3453 -0.0521193 0)
(10.3531 -0.0498967 0)
(10.3603 -0.0479864 0)
(10.367 -0.0463238 0)
(10.3733 -0.0448724 0)
(10.3791 -0.043604 0)
(10.3844 -0.0424961 0)
(10.3893 -0.0415291 0)
(10.3939 -0.0406839 0)
(10.398 -0.0399424 0)
(10.4019 -0.0392896 0)
(10.4054 -0.0387137 0)
(10.4086 -0.0382059 0)
(10.4116 -0.0377572 0)
(10.4143 -0.0373621 0)
(10.4168 -0.0370122 0)
(10.4191 -0.0367062 0)
(10.4212 -0.0364336 0)
(10.4231 -0.0361996 0)
(10.4249 -0.0359922 0)
(10.4265 -0.0358061 0)
(10.428 -0.0356394 0)
(10.4293 -0.035498 0)
(10.4306 -0.0353698 0)
(10.4317 -0.0352556 0)
(10.4328 -0.0351554 0)
(10.4337 -0.0350655 0)
(10.4346 -0.034988 0)
(10.4354 -0.0349163 0)
(10.4361 -0.0348532 0)
(10.0209 -0.199159 0)
(10.236 -0.189971 0)
(10.3415 -0.115762 0)
(10.3592 -0.0933893 0)
(10.3598 -0.0882544 0)
(10.3665 -0.0821671 0)
(10.3782 -0.0750604 0)
(10.3905 -0.0692072 0)
(10.4014 -0.0649985 0)
(10.4107 -0.0618783 0)
(10.4191 -0.0593677 0)
(10.4267 -0.0572318 0)
(10.4338 -0.0553762 0)
(10.4404 -0.0537743 0)
(10.4465 -0.0523832 0)
(10.4521 -0.0511706 0)
(10.4573 -0.0501177 0)
(10.462 -0.0492101 0)
(10.4663 -0.0484206 0)
(10.4702 -0.0477284 0)
(10.4739 -0.0471114 0)
(10.4772 -0.0465689 0)
(10.4802 -0.0460833 0)
(10.483 -0.0456634 0)
(10.4856 -0.0452801 0)
(10.4879 -0.0449604 0)
(10.49 -0.0446497 0)
(10.492 -0.0444152 0)
(10.4937 -0.0441956 0)
(10.4953 -0.0439777 0)
(10.4968 -0.043803 0)
(10.4981 -0.0436277 0)
(10.4993 -0.043487 0)
(10.5005 -0.0433635 0)
(10.5015 -0.0432539 0)
(10.5024 -0.0431574 0)
(10.5033 -0.0430864 0)
(10.504 -0.0430113 0)
(10.5047 -0.0429333 0)
(10.5054 -0.0428773 0)
(10.0323 -0.261636 0)
(10.3062 -0.19523 0)
(10.4097 -0.121382 0)
(10.4182 -0.104365 0)
(10.4156 -0.0963765 0)
(10.419 -0.0866625 0)
(10.4253 -0.0783012 0)
(10.4306 -0.0726412 0)
(10.434 -0.0688662 0)
(10.4357 -0.0660189 0)
(10.4363 -0.0636097 0)
(10.4361 -0.0614907 0)
(10.4355 -0.0596515 0)
(10.4346 -0.0580662 0)
(10.4334 -0.0566701 0)
(10.432 -0.0554325 0)
(10.4305 -0.0543602 0)
(10.4289 -0.0534441 0)
(10.4272 -0.0526515 0)
(10.4256 -0.0519442 0)
(10.4241 -0.0513094 0)
(10.4225 -0.0507436 0)
(10.421 -0.0502403 0)
(10.4196 -0.0497985 0)
(10.4183 -0.049406 0)
(10.4169 -0.0490645 0)
(10.4158 -0.048757 0)
(10.4146 -0.0484933 0)
(10.4135 -0.0482513 0)
(10.4125 -0.0480376 0)
(10.4116 -0.0478474 0)
(10.4107 -0.047677 0)
(10.4099 -0.0475287 0)
(10.4091 -0.0473907 0)
(10.4085 -0.0472698 0)
(10.4077 -0.0471514 0)
(10.4072 -0.0470498 0)
(10.4065 -0.0469469 0)
(10.4062 -0.0468653 0)
(10.4054 -0.0467819 0)
(10.0498 -0.312202 0)
(10.3563 -0.196364 0)
(10.4254 -0.130839 0)
(10.3812 -0.114324 0)
(10.3174 -0.100798 0)
(10.2549 -0.0877661 0)
(10.1943 -0.0784476 0)
(10.134 -0.0723429 0)
(10.0744 -0.0680947 0)
(10.0164 -0.0647073 0)
(9.96123 -0.0617671 0)
(9.90928 -0.0591613 0)
(9.86094 -0.0569161 0)
(9.81611 -0.0549852 0)
(9.7747 -0.0532364 0)
(9.73655 -0.051664 0)
(9.70144 -0.0502918 0)
(9.66917 -0.049131 0)
(9.63959 -0.0480988 0)
(9.6125 -0.0471766 0)
(9.58771 -0.0463137 0)
(9.565 -0.0455732 0)
(9.5442 -0.0448951 0)
(9.52517 -0.0442765 0)
(9.50777 -0.0437415 0)
(9.49183 -0.0432359 0)
(9.47731 -0.0428089 0)
(9.46399 -0.0424306 0)
(9.45187 -0.0421041 0)
(9.44073 -0.0418099 0)
(9.43062 -0.041545 0)
(9.42129 -0.0412985 0)
(9.41289 -0.0410743 0)
(9.40503 -0.04086 0)
(9.39812 -0.0406682 0)
(9.39141 -0.0404742 0)
(9.38586 -0.0403041 0)
(9.37993 -0.0401206 0)
(9.37573 -0.0399699 0)
(9.37005 -0.0397917 0)
(10.0557 -0.348521 0)
(10.211 -0.195064 0)
(10.0186 -0.13188 0)
(9.68724 -0.107863 0)
(9.35984 -0.0864951 0)
(9.07207 -0.0696196 0)
(8.8224 -0.058431 0)
(8.60346 -0.0509324 0)
(8.41069 -0.0455312 0)
(8.24136 -0.0412875 0)
(8.09257 -0.0378229 0)
(7.96212 -0.0349234 0)
(7.84734 -0.0326068 0)
(7.74636 -0.0307477 0)
(7.65727 -0.0290728 0)
(7.57844 -0.027607 0)
(7.50852 -0.0263961 0)
(7.44622 -0.0254353 0)
(7.3907 -0.0246102 0)
(7.34107 -0.0238362 0)
(7.29677 -0.0231751 0)
(7.25686 -0.0225762 0)
(7.22119 -0.0220498 0)
(7.18893 -0.0215876 0)
(7.15998 -0.0212044 0)
(7.13384 -0.0208239 0)
(7.11015 -0.0204658 0)
(7.08881 -0.0201785 0)
(7.06941 -0.0199492 0)
(7.05182 -0.0197663 0)
(7.03598 -0.0195938 0)
(7.0215 -0.0194605 0)
(7.00854 -0.0193233 0)
(6.9965 -0.0191819 0)
(6.98594 -0.0190369 0)
(6.97581 -0.0188915 0)
(6.96741 -0.0187535 0)
(6.95855 -0.018609 0)
(6.95232 -0.0184811 0)
(6.94386 -0.0183187 0)
(9.8204 -0.358363 0)
(9.26052 -0.167548 0)
(8.41398 -0.0976954 0)
(7.61959 -0.06622 0)
(7.01959 -0.0444293 0)
(6.58959 -0.0315938 0)
(6.27129 -0.0248686 0)
(6.0257 -0.0211012 0)
(5.82864 -0.0186064 0)
(5.66702 -0.0166868 0)
(5.53239 -0.0151535 0)
(5.41914 -0.0138655 0)
(5.32277 -0.0129167 0)
(5.24009 -0.0122413 0)
(5.16871 -0.0115199 0)
(5.10665 -0.0108694 0)
(5.05237 -0.0103591 0)
(5.00422 -0.0100298 0)
(4.9617 -0.00975479 0)
(4.92427 -0.00943226 0)
(4.89074 -0.00915437 0)
(4.86109 -0.00891415 0)
(4.83439 -0.00872539 0)
(4.81059 -0.00853595 0)
(4.7892 -0.00833564 0)
(4.76998 -0.00823815 0)
(4.75263 -0.00807026 0)
(4.73683 -0.00795265 0)
(4.72256 -0.00787114 0)
(4.70958 -0.00772635 0)
(4.69785 -0.0076692 0)
(4.68711 -0.00770662 0)
(4.67769 -0.00775894 0)
(4.66895 -0.00776311 0)
(4.6613 -0.00769729 0)
(4.65392 -0.00763488 0)
(4.64788 -0.00755689 0)
(4.64138 -0.00750258 0)
(4.63704 -0.00743831 0)
(4.63062 -0.00736852 0)
(8.96178 -0.322117 0)
(7.25271 -0.109183 0)
(5.95864 -0.0496857 0)
(5.123 -0.0285869 0)
(4.62486 -0.0174457 0)
(4.31135 -0.0121983 0)
(4.08946 -0.00980088 0)
(3.92073 -0.00852303 0)
(3.78528 -0.00761457 0)
(3.67434 -0.00685166 0)
(3.58256 -0.00622194 0)
(3.50567 -0.00568681 0)
(3.44189 -0.00528891 0)
(3.3853 -0.00505212 0)
(3.33773 -0.00477257 0)
(3.29684 -0.00441205 0)
(3.26051 -0.00416167 0)
(3.22905 -0.00405732 0)
(3.20092 -0.00397821 0)
(3.17673 -0.00384243 0)
(3.15475 -0.00371636 0)
(3.13569 -0.00360763 0)
(3.11824 -0.00352615 0)
(3.10297 -0.00345609 0)
(3.08917 -0.00337947 0)
(3.07667 -0.00329784 0)
(3.06549 -0.00323375 0)
(3.05537 -0.0031648 0)
(3.04646 -0.00308209 0)
(3.03824 -0.00304245 0)
(3.03069 -0.00302197 0)
(3.02383 -0.00297799 0)
(3.0176 -0.00305936 0)
(3.01204 -0.00319929 0)
(3.00717 -0.00317879 0)
(3.00245 -0.0031432 0)
(2.99853 -0.00309176 0)
(2.99435 -0.00307116 0)
(2.99155 -0.00304102 0)
(2.98732 -0.00301214 0)
(7.49829 -0.256219 0)
(5.0362 -0.0584674 0)
(3.86787 -0.0216389 0)
(3.25726 -0.0115592 0)
(2.92851 -0.00682859 0)
(2.73057 -0.00475204 0)
(2.59275 -0.00383793 0)
(2.48583 -0.0033689 0)
(2.39971 -0.00302929 0)
(2.32881 -0.00271556 0)
(2.2703 -0.00246111 0)
(2.22144 -0.00224542 0)
(2.18072 -0.00209267 0)
(2.14497 -0.00200419 0)
(2.11385 -0.00188965 0)
(2.08766 -0.00173868 0)
(2.06545 -0.00160211 0)
(2.04581 -0.00156678 0)
(2.02793 -0.00157244 0)
(2.01234 -0.00151262 0)
(1.99862 -0.00146645 0)
(1.98647 -0.0014251 0)
(1.97564 -0.0014006 0)
(1.96599 -0.00137045 0)
(1.95741 -0.00131797 0)
(1.94953 -0.00128619 0)
(1.94266 -0.00124305 0)
(1.93658 -0.00119653 0)
(1.93113 -0.00115776 0)
(1.92626 -0.00113119 0)
(1.92177 -0.00111627 0)
(1.91775 -0.00112211 0)
(1.91365 -0.00121758 0)
(1.91001 -0.00131881 0)
(1.90693 -0.00131386 0)
(1.90391 -0.00127762 0)
(1.90136 -0.00124089 0)
(1.8987 -0.00122028 0)
(1.89688 -0.00121414 0)
(1.8942 -0.00118758 0)
(5.78979 -0.186131 0)
(3.25898 -0.0277034 0)
(2.41977 -0.00873504 0)
(2.02184 -0.00450073 0)
(1.81765 -0.00260818 0)
(1.69737 -0.00180115 0)
(1.6136 -0.00145741 0)
(1.54803 -0.0012896 0)
(1.49398 -0.00116108 0)
(1.44989 -0.00103893 0)
(1.41358 -0.000940279 0)
(1.3833 -0.000860358 0)
(1.35789 -0.00079468 0)
(1.33617 -0.000764923 0)
(1.31639 -0.000729136 0)
(1.30004 -0.000655582 0)
(1.28668 -0.000600246 0)
(1.27504 -0.000595057 0)
(1.26405 -0.000604956 0)
(1.25416 -0.000577405 0)
(1.2457 -0.000560654 0)
(1.23797 -0.000546538 0)
(1.23139 -0.000539814 0)
(1.22515 -0.000531897 0)
(1.21986 -0.000500434 0)
(1.21506 -0.000483015 0)
(1.21093 -0.000472557 0)
(1.2071 -0.000453603 0)
(1.20388 -0.000430305 0)
(1.20096 -0.000417042 0)
(1.19833 -0.000398444 0)
(1.19607 -0.000393611 0)
(1.19379 -0.000458222 0)
(1.19121 -0.00053274 0)
(1.18925 -0.000535437 0)
(1.1873 -0.000505143 0)
(1.18566 -0.00048272 0)
(1.184 -0.00046601 0)
(1.18285 -0.000473367 0)
(1.18118 -0.000449334 0)
(4.1401 -0.125574 0)
(2.0149 -0.0118202 0)
(1.47338 -0.00329205 0)
(1.22651 -0.00166333 0)
(1.10344 -0.00095007 0)
(1.03169 -0.000653729 0)
(0.981383 -0.000528915 0)
(0.941987 -0.000470813 0)
(0.908932 -0.00042567 0)
(0.882167 -0.00037913 0)
(0.860163 -0.000342919 0)
(0.841822 -0.000313441 0)
(0.82646 -0.000288693 0)
(0.813379 -0.000277257 0)
(0.801531 -0.000265224 0)
(0.791607 -0.000239551 0)
(0.783491 -0.00021589 0)
(0.776678 -0.00021303 0)
(0.770072 -0.000219978 0)
(0.764073 -0.000209897 0)
(0.759006 -0.000205131 0)
(0.754252 -0.000200916 0)
(0.750259 -0.000200223 0)
(0.746343 -0.000197397 0)
(0.743127 -0.000181545 0)
(0.740271 -0.000175756 0)
(0.737747 -0.000174481 0)
(0.735415 -0.000165274 0)
(0.733508 -0.000154855 0)
(0.731775 -0.00014949 0)
(0.730244 -0.000138932 0)
(0.728965 -0.000129659 0)
(0.727777 -0.000161016 0)
(0.726197 -0.00020467 0)
(0.724846 -0.000207004 0)
(0.723594 -0.000189619 0)
(0.722576 -0.000178984 0)
(0.721562 -0.000169301 0)
(0.720861 -0.000176806 0)
(0.719839 -0.000161359 0)
(2.72837 -0.0788483 0)
(1.19057 -0.00446429 0)
(0.86399 -0.0011321 0)
(0.717666 -0.000564975 0)
(0.646108 -0.000319583 0)
(0.604547 -0.000219667 0)
(0.575332 -0.000178086 0)
(0.552338 -0.00015873 0)
(0.532998 -0.000143706 0)
(0.517333 -0.000128004 0)
(0.504466 -0.000115724 0)
(0.49375 -0.000105622 0)
(0.484786 -9.72382e-05 0)
(0.477165 -9.29363e-05 0)
(0.470297 -8.88184e-05 0)
(0.464508 -8.09187e-05 0)
(0.459759 -7.31067e-05 0)
(0.455778 -7.17492e-05 0)
(0.451939 -7.37783e-05 0)
(0.448447 -7.00353e-05 0)
(0.445554 -6.8828e-05 0)
(0.442755 -6.81002e-05 0)
(0.440414 -6.81002e-05 0)
(0.438088 -6.72614e-05 0)
(0.436197 -6.13521e-05 0)
(0.434541 -5.95289e-05 0)
(0.43305 -5.94137e-05 0)
(0.431686 -5.5894e-05 0)
(0.430578 -5.22198e-05 0)
(0.429573 -5.0109e-05 0)
(0.428701 -4.5755e-05 0)
(0.427987 -4.07373e-05 0)
(0.427367 -4.99242e-05 0)
(0.426509 -7.07421e-05 0)
(0.425605 -7.49756e-05 0)
(0.424837 -6.5391e-05 0)
(0.424232 -6.11389e-05 0)
(0.423634 -5.68265e-05 0)
(0.423226 -6.07719e-05 0)
(0.422621 -5.35287e-05 0)
(1.62165 -0.045159 0)
(0.655075 -0.00140705 0)
(0.473143 -0.000332606 0)
(0.392472 -0.000164585 0)
(0.353522 -9.24853e-05 0)
(0.330938 -6.35567e-05 0)
(0.315041 -5.16411e-05 0)
(0.302487 -4.60725e-05 0)
(0.291911 -4.17169e-05 0)
(0.283344 -3.71897e-05 0)
(0.27631 -3.36106e-05 0)
(0.270456 -3.06479e-05 0)
(0.265563 -2.82175e-05 0)
(0.261407 -2.69529e-05 0)
(0.257658 -2.5709e-05 0)
(0.254507 -2.34835e-05 0)
(0.251914 -2.13055e-05 0)
(0.249744 -2.08536e-05 0)
(0.247653 -2.13234e-05 0)
(0.245755 -2.0156e-05 0)
(0.244191 -1.98696e-05 0)
(0.242656 -1.97982e-05 0)
(0.241375 -1.97988e-05 0)
(0.240098 -1.95822e-05 0)
(0.239054 -1.78615e-05 0)
(0.238154 -1.73418e-05 0)
(0.237333 -1.73082e-05 0)
(0.236587 -1.627e-05 0)
(0.235981 -1.52161e-05 0)
(0.235434 -1.45256e-05 0)
(0.234964 -1.31517e-05 0)
(0.234586 -1.13942e-05 0)
(0.234273 -1.35924e-05 0)
(0.233827 -2.05697e-05 0)
(0.233298 -2.2646e-05 0)
(0.232864 -1.92843e-05 0)
(0.232531 -1.79008e-05 0)
(0.232202 -1.64375e-05 0)
(0.23198 -1.78501e-05 0)
(0.231646 -1.53365e-05 0)
(0.80813 -0.021847 0)
(0.309518 -0.000318761 0)
(0.222796 -7.08856e-05 0)
(0.184644 -3.4808e-05 0)
(0.166376 -1.94603e-05 0)
(0.155797 -1.33787e-05 0)
(0.148342 -1.08883e-05 0)
(0.142443 -9.7248e-06 0)
(0.137467 -8.80431e-06 0)
(0.133437 -7.85451e-06 0)
(0.130129 -7.09645e-06 0)
(0.127376 -6.46744e-06 0)
(0.125077 -5.95431e-06 0)
(0.123126 -5.69272e-06 0)
(0.121364 -5.41877e-06 0)
(0.119885 -4.94139e-06 0)
(0.118667 -4.49748e-06 0)
(0.117649 -4.4043e-06 0)
(0.116668 -4.48506e-06 0)
(0.115778 -4.2382e-06 0)
(0.115043 -4.18725e-06 0)
(0.114321 -4.17707e-06 0)
(0.113718 -4.1676e-06 0)
(0.113118 -4.14362e-06 0)
(0.112624 -3.78842e-06 0)
(0.112202 -3.66086e-06 0)
(0.111816 -3.65538e-06 0)
(0.111465 -3.44197e-06 0)
(0.111179 -3.22528e-06 0)
(0.110921 -3.06118e-06 0)
(0.110702 -2.75472e-06 0)
(0.110527 -2.3444e-06 0)
(0.110386 -2.72863e-06 0)
(0.110183 -4.31788e-06 0)
(0.109928 -4.88844e-06 0)
(0.109721 -4.109e-06 0)
(0.109563 -3.79302e-06 0)
(0.109407 -3.45439e-06 0)
(0.109304 -3.78271e-06 0)
(0.109145 -3.16097e-06 0)
(0.236958 -0.00615624 0)
(0.0871412 -2.23552e-05 0)
(0.0625452 -4.33972e-06 0)
(0.0518005 -2.08957e-06 0)
(0.046686 -1.1554e-06 0)
(0.0437292 -7.96642e-07 0)
(0.0416429 -6.51493e-07 0)
(0.0399892 -5.8326e-07 0)
(0.0385934 -5.27651e-07 0)
(0.0374627 -4.71671e-07 0)
(0.0365349 -4.25757e-07 0)
(0.035763 -3.87484e-07 0)
(0.0351186 -3.56635e-07 0)
(0.0345719 -3.4151e-07 0)
(0.0340782 -3.23345e-07 0)
(0.0336633 -2.94098e-07 0)
(0.0333218 -2.70267e-07 0)
(0.0330366 -2.64396e-07 0)
(0.032762 -2.65961e-07 0)
(0.0325126 -2.50737e-07 0)
(0.0323067 -2.4922e-07 0)
(0.0321043 -2.50287e-07 0)
(0.0319353 -2.48261e-07 0)
(0.0317669 -2.50151e-07 0)
(0.0316285 -2.29972e-07 0)
(0.0315103 -2.20011e-07 0)
(0.031402 -2.19499e-07 0)
(0.0313036 -2.07717e-07 0)
(0.0312231 -1.9619e-07 0)
(0.0311509 -1.82133e-07 0)
(0.0310894 -1.62535e-07 0)
(0.0310406 -1.3129e-07 0)
(0.0310023 -1.36444e-07 0)
(0.0309463 -2.56717e-07 0)
(0.0308748 -3.14934e-07 0)
(0.030816 -2.54911e-07 0)
(0.0307716 -2.26722e-07 0)
(0.0307279 -2.10345e-07 0)
(0.030699 -2.20554e-07 0)
(0.0306543 -9.36181e-08 0)
(-3.49696e-05 1.48805e-05 0)
(-6.38174e-05 1.4149e-05 0)
(-0.000122039 1.92915e-05 5.03895e-26)
(-0.000180196 2.47302e-05 0)
(-0.000250243 2.48724e-05 -1.23806e-25)
(-0.000322831 2.3643e-05 1.262e-25)
(-0.00039787 2.20747e-05 0)
(-0.000473703 2.01282e-05 -2.41791e-25)
(-0.000548409 1.77845e-05 0)
(-0.000619194 1.49725e-05 2.18253e-25)
(-0.000682248 1.16235e-05 0)
(-0.000732495 7.66559e-06 0)
(-0.000763291 3.01409e-06 0)
(-0.000765933 -2.43095e-06 0)
(-0.000729259 -8.84157e-06 5.78276e-25)
(-0.000637994 -1.63842e-05 -5.15931e-25)
(-0.000473116 -2.52649e-05 4.42131e-25)
(-0.000211737 -2.7936e-05 0)
(0.000135507 -4.2699e-05 -4.18472e-25)
(0.000697883 -6.06621e-05 7.15388e-25)
(0.00148054 -7.38576e-05 0)
(0.00250817 -8.59035e-05 0)
(0.00379552 -9.5626e-05 0)
(0.00533115 -0.000118335 0)
(0.00760706 -0.0001784 0)
(0.011593 -0.000278297 -2.17969e-24)
(0.0183066 -0.000397501 0)
(0.0282868 -0.00049082 0)
(0.0400561 -0.000486257 3.13283e-23)
(0.0532703 -0.000339393 -5.84363e-23)
(0.0701761 -0.000263789 -1.40935e-22)
(0.0907994 -0.000222299 0)
(0.113691 -0.000184331 1.48473e-22)
(0.136778 -0.000146713 0)
(0.158317 -0.000112137 0)
(0.177102 -8.24227e-05 0)
(0.192461 -5.70131e-05 3.17457e-22)
(0.203679 -3.50631e-05 0)
(0.210237 -1.36918e-05 0)
(0.210534 6.71201e-06 6.6617e-22)
(0.203471 3.25741e-05 0)
(0.185529 6.26863e-05 6.32169e-22)
(0.156048 0.000102076 -1.16854e-21)
(0.111401 0.000145993 -1.00951e-21)
(0.0646536 0.000169944 7.47031e-22)