/*--------------------------------*- C++ -*----------------------------------*\
| =========                 |                                                 |
| \\      /  F ield         | OpenFOAM: The Open Source CFD Toolbox           |
|  \\    /   O peration     | Version:  2112                                  |
|   \\  /    A nd           | Website:  www.openfoam.com                      |
|    \\/     M anipulation  |                                                 |
\*---------------------------------------------------------------------------*/
FoamFile
{
    version     2.0;
    format      ascii;
    arch        "LSB;label=32;scalar=64";
    class       volVectorField;
    location    "0.17";
    object      U_0;
}
// * * * * * * * * * * * * * * * * * * * * * * * * * * * * * * * * * * * * * //

dimensions      [0 1 -1 0 0 0 0];

internalField   nonuniform List<vector> 
12225
(
(9.84752 0.0346927 0)
(9.58727 0.0550923 0)
(9.32336 0.0583254 0)
(9.06166 0.057988 0)
(8.81514 0.0563647 0)
(8.58647 0.0537229 0)
(8.37439 0.0504526 0)
(8.17689 0.0472551 0)
(7.99449 0.0437879 0)
(7.82463 0.0409353 0)
(7.67017 0.0374551 0)
(7.52451 0.0355926 0)
(7.39669 0.0312148 0)
(7.27067 0.0318241 0)
(7.17002 0.0235333 0)
(7.05856 0.0316883 0)
(6.9869 0.0093379 0)
(6.88864 0.0406602 0)
(10.0151 0.0444818 0)
(10.06 0.0637862 0)
(10.0738 0.0617099 0)
(10.0629 0.0602378 0)
(10.0409 0.0604021 0)
(10.0121 0.0604625 0)
(9.97798 0.0601528 0)
(9.9386 0.0593997 0)
(9.89646 0.0588116 0)
(9.85132 0.0576841 0)
(9.80602 0.0570811 0)
(9.75864 0.0552586 0)
(9.7132 0.0547964 0)
(9.66567 0.0519177 0)
(9.62233 0.0518045 0)
(9.57635 0.0474096 0)
(9.53687 0.0467065 0)
(9.49343 0.0399172 0)
(10.0115 0.036232 0)
(10.0432 0.0546566 0)
(10.0646 0.0563786 0)
(10.0742 0.0583476 0)
(10.0798 0.0610322 0)
(10.084 0.0628601 0)
(10.0864 0.0636436 0)
(10.0866 0.0638148 0)
(10.0852 0.0636743 0)
(10.0822 0.0632576 0)
(10.0784 0.0625774 0)
(10.0733 0.0616664 0)
(10.0678 0.0603875 0)
(10.0611 0.0591162 0)
(10.0547 0.056973 0)
(10.0468 0.0552613 0)
(10.0406 0.0514912 0)
(10.0303 0.0480834 0)
(10.0091 0.0306149 0)
(10.0327 0.0490555 0)
(10.0512 0.0532956 0)
(10.0617 0.0562125 0)
(10.0696 0.0590507 0)
(10.0771 0.0609193 0)
(10.0837 0.0618018 0)
(10.0893 0.0621029 0)
(10.094 0.062124 0)
(10.0982 0.0618553 0)
(10.1019 0.0613879 0)
(10.1053 0.0606142 0)
(10.1082 0.0596142 0)
(10.1109 0.0583794 0)
(10.1134 0.0565903 0)
(10.1155 0.0547879 0)
(10.1178 0.0516132 0)
(10.119 0.0490977 0)
(10.0065 0.0259809 0)
(10.0265 0.0442053 0)
(10.0422 0.0499851 0)
(10.0524 0.0535529 0)
(10.0606 0.0565411 0)
(10.0684 0.0585254 0)
(10.0756 0.059564 0)
(10.0821 0.0600114 0)
(10.0881 0.060128 0)
(10.0936 0.0599414 0)
(10.0989 0.0595123 0)
(10.1039 0.058786 0)
(10.1087 0.0578012 0)
(10.1134 0.0565336 0)
(10.1178 0.0548331 0)
(10.1221 0.0528623 0)
(10.1262 0.0501774 0)
(10.1298 0.047223 0)
(10.0049 0.0216211 0)
(10.022 0.0396042 0)
(10.0356 0.0465655 0)
(10.0454 0.050738 0)
(10.0536 0.0539026 0)
(10.0614 0.0559922 0)
(10.0687 0.0571511 0)
(10.0754 0.0576971 0)
(10.0816 0.0578645 0)
(10.0875 0.0577061 0)
(10.0932 0.0572735 0)
(10.0986 0.0565456 0)
(10.1039 0.0555371 0)
(10.109 0.0542387 0)
(10.1139 0.0525496 0)
(10.1186 0.0505459 0)
(10.123 0.047997 0)
(10.1271 0.0450144 0)
(10.004 0.0177977 0)
(10.0183 0.0353153 0)
(10.0303 0.0431251 0)
(10.0397 0.0477922 0)
(10.0479 0.0511173 0)
(10.0556 0.0532949 0)
(10.0629 0.0545476 0)
(10.0696 0.0551681 0)
(10.0759 0.0553707 0)
(10.0819 0.0552247 0)
(10.0876 0.0547829 0)
(10.0932 0.0540423 0)
(10.0985 0.0530145 0)
(10.1037 0.0516923 0)
(10.1087 0.050018 0)
(10.1134 0.0480192 0)
(10.1178 0.04559 0)
(10.1219 0.0428088 0)
(10.0032 0.0145269 0)
(10.015 0.0312966 0)
(10.0259 0.0396609 0)
(10.035 0.0447023 0)
(10.0431 0.0481668 0)
(10.0507 0.050425 0)
(10.0579 0.0517582 0)
(10.0645 0.052442 0)
(10.0709 0.0526754 0)
(10.0769 0.0525398 0)
(10.0826 0.0520918 0)
(10.0882 0.0513417 0)
(10.0935 0.0503038 0)
(10.0987 0.0489741 0)
(10.1036 0.0473262 0)
(10.1082 0.0453698 0)
(10.1125 0.0430755 0)
(10.1165 0.0405008 0)
(10.0023 0.0117927 0)
(10.0119 0.0275127 0)
(10.022 0.0361522 0)
(10.0308 0.0414593 0)
(10.0388 0.0450426 0)
(10.0463 0.0473764 0)
(10.0534 0.0487809 0)
(10.0601 0.0495209 0)
(10.0664 0.0497841 0)
(10.0724 0.0496613 0)
(10.0781 0.0492134 0)
(10.0837 0.0484618 0)
(10.089 0.0474256 0)
(10.094 0.0461069 0)
(10.0988 0.0445005 0)
(10.1034 0.0426146 0)
(10.1075 0.0404581 0)
(10.1113 0.0380787 0)
(10.0013 0.00957871 0)
(10.0093 0.0239648 0)
(10.0185 0.0325962 0)
(10.027 0.0380642 0)
(10.0349 0.04174 0)
(10.0423 0.0441406 0)
(10.0494 0.0456076 0)
(10.056 0.0463978 0)
(10.0623 0.0466907 0)
(10.0683 0.0465846 0)
(10.074 0.0461446 0)
(10.0795 0.0454019 0)
(10.0847 0.0443805 0)
(10.0897 0.0430908 0)
(10.0944 0.041541 0)
(10.0988 0.0397451 0)
(10.1029 0.0377294 0)
(10.1066 0.0355389 0)
(10.0007 0.00782669 0)
(10.0072 0.0206528 0)
(10.0155 0.0290238 0)
(10.0236 0.0345339 0)
(10.0313 0.0382607 0)
(10.0386 0.040711 0)
(10.0456 0.0422289 0)
(10.0522 0.0430628 0)
(10.0585 0.0433857 0)
(10.0645 0.0433008 0)
(10.0702 0.0428773 0)
(10.0756 0.0421545 0)
(10.0808 0.0411617 0)
(10.0857 0.0399172 0)
(10.0903 0.0384386 0)
(10.0946 0.0367465 0)
(10.0986 0.0348744 0)
(10.1022 0.0328665 0)
(10.0004 0.00649161 0)
(10.0057 0.017849 0)
(10.0132 0.025779 0)
(10.0208 0.0311999 0)
(10.0283 0.0349157 0)
(10.0355 0.0373835 0)
(10.0424 0.0389314 0)
(10.0489 0.0397966 0)
(10.0552 0.0401453 0)
(10.0611 0.0400832 0)
(10.0668 0.039682 0)
(10.0722 0.0389871 0)
(10.0774 0.0380325 0)
(10.0822 0.0368426 0)
(10.0868 0.0354411 0)
(10.091 0.0338535 0)
(10.0949 0.0321151 0)
(10.0985 0.03027 0)
(10.0003 0.00539335 0)
(10.0046 0.0152927 0)
(10.0112 0.0226293 0)
(10.0183 0.027843 0)
(10.0255 0.0314847 0)
(10.0326 0.0339358 0)
(10.0393 0.0354938 0)
(10.0458 0.0363796 0)
(10.0521 0.0367506 0)
(10.058 0.0367124 0)
(10.0636 0.0363385 0)
(10.069 0.0356789 0)
(10.0741 0.0347711 0)
(10.0789 0.0336449 0)
(10.0834 0.0323278 0)
(10.0876 0.0308491 0)
(10.0915 0.0292439 0)
(10.095 0.0275553 0)
(10.0002 0.00436451 0)
(10.0036 0.0126662 0)
(10.0093 0.0191759 0)
(10.0158 0.0239985 0)
(10.0226 0.0274559 0)
(10.0294 0.0298285 0)
(10.0361 0.0313624 0)
(10.0425 0.0322513 0)
(10.0486 0.0326391 0)
(10.0545 0.0326273 0)
(10.0602 0.0322894 0)
(10.0655 0.0316779 0)
(10.0705 0.0308337 0)
(10.0753 0.0297901 0)
(10.0798 0.0285779 0)
(10.0839 0.0272282 0)
(10.0878 0.0257747 0)
(10.0913 0.0242577 0)
(10.0001 0.00339985 0)
(10.0028 0.0100222 0)
(10.0076 0.0154776 0)
(10.0134 0.0196868 0)
(10.0197 0.0227981 0)
(10.0262 0.0249867 0)
(10.0326 0.026431 0)
(10.0389 0.0272854 0)
(10.045 0.0276719 0)
(10.0508 0.0276824 0)
(10.0564 0.027386 0)
(10.0617 0.0268353 0)
(10.0667 0.0260722 0)
(10.0714 0.0251317 0)
(10.0759 0.0240458 0)
(10.08 0.0228457 0)
(10.0838 0.0215627 0)
(10.0873 0.0202324 0)
(10.0001 0.00248591 0)
(10.0023 0.00739348 0)
(10.0062 0.0115962 0)
(10.0113 0.0149565 0)
(10.017 0.0175172 0)
(10.0231 0.0193664 0)
(10.0292 0.0206125 0)
(10.0353 0.021362 0)
(10.0412 0.0217064 0)
(10.047 0.0217198 0)
(10.0525 0.0214614 0)
(10.0577 0.0209788 0)
(10.0627 0.0203112 0)
(10.0674 0.0194923 0)
(10.0718 0.0185527 0)
(10.0759 0.017521 0)
(10.0797 0.0164254 0)
(10.0832 0.0152956 0)
(10.0001 0.0015962 0)
(10.0019 0.00476747 0)
(10.0052 0.00755722 0)
(10.0096 0.00984838 0)
(10.0148 0.011637 0)
(10.0203 0.0129539 0)
(10.0261 0.0138503 0)
(10.0319 0.0143845 0)
(10.0376 0.0146127 0)
(10.0432 0.014584 0)
(10.0486 0.0143409 0)
(10.0538 0.0139195 0)
(10.0587 0.0133512 0)
(10.0633 0.0126641 0)
(10.0677 0.0118837 0)
(10.0718 0.0110337 0)
(10.0756 0.0101372 0)
(10.0792 0.00921814 0)
(10.0001 0.000685778 0)
(10.0016 0.00205817 0)
(10.0045 0.00328837 0)
(10.0085 0.00431533 0)
(10.0132 0.00512218 0)
(10.0184 0.00570817 0)
(10.0238 0.0060836 0)
(10.0293 0.00626614 0)
(10.0348 0.00627604 0)
(10.0401 0.00613382 0)
(10.0454 0.00585942 0)
(10.0504 0.00547189 0)
(10.0552 0.00498943 0)
(10.0597 0.00442945 0)
(10.064 0.00380865 0)
(10.0681 0.00314331 0)
(10.0719 0.00244943 0)
(10.0755 0.00174406 0)
(10.0001 -0.000318009 0)
(10.0016 -0.000926594 0)
(10.0044 -0.0014478 0)
(10.0082 -0.00187618 0)
(10.0127 -0.00223387 0)
(10.0177 -0.0025466 0)
(10.0229 -0.00283786 0)
(10.0281 -0.00312784 0)
(10.0334 -0.00343226 0)
(10.0386 -0.00376179 0)
(10.0436 -0.00412248 0)
(10.0484 -0.00451643 0)
(10.0531 -0.00494257 0)
(10.0575 -0.00539747 0)
(10.0616 -0.00587595 0)
(10.0656 -0.00637141 0)
(10.0693 -0.00687616 0)
(10.0729 -0.00738085 0)
(10.0001 -0.00134172 0)
(10.0018 -0.00392584 0)
(10.005 -0.00612427 0)
(10.0091 -0.0078831 0)
(10.0138 -0.0092583 0)
(10.0189 -0.0103242 0)
(10.0241 -0.0111528 0)
(10.0293 -0.01181 0)
(10.0344 -0.0123503 0)
(10.0395 -0.0128155 0)
(10.0443 -0.0132351 0)
(10.049 -0.0136295 0)
(10.0534 -0.0140115 0)
(10.0577 -0.0143884 0)
(10.0617 -0.0147636 0)
(10.0655 -0.0151375 0)
(10.0691 -0.0155084 0)
(10.0726 -0.0158717 0)
(10.0001 -0.00235591 0)
(10.0023 -0.00675788 0)
(10.0061 -0.0103368 0)
(10.0107 -0.0130721 0)
(10.0158 -0.0151235 0)
(10.021 -0.0166464 0)
(10.0263 -0.0177729 0)
(10.0315 -0.0186157 0)
(10.0366 -0.0192631 0)
(10.0414 -0.0197799 0)
(10.0461 -0.0202109 0)
(10.0507 -0.0205869 0)
(10.055 -0.0209279 0)
(10.0591 -0.0212468 0)
(10.063 -0.0215514 0)
(10.0667 -0.0218456 0)
(10.0702 -0.0221302 0)
(10.0735 -0.0224034 0)
(10.0002 -0.00354974 0)
(10.0032 -0.00984855 0)
(10.0078 -0.0146151 0)
(10.0131 -0.0180466 0)
(10.0185 -0.0205175 0)
(10.0239 -0.0222915 0)
(10.0292 -0.0235605 0)
(10.0344 -0.024478 0)
(10.0394 -0.0251588 0)
(10.0442 -0.0256821 0)
(10.0487 -0.0261007 0)
(10.0531 -0.0264499 0)
(10.0573 -0.0267529 0)
(10.0613 -0.0270252 0)
(10.0651 -0.0272763 0)
(10.0687 -0.0275119 0)
(10.0721 -0.0277345 0)
(10.0753 -0.0279434 0)
(10.0004 -0.00504737 0)
(10.0045 -0.0133165 0)
(10.0102 -0.018972 0)
(10.016 -0.0227766 0)
(10.0218 -0.0254326 0)
(10.0273 -0.0272989 0)
(10.0327 -0.0286016 0)
(10.0379 -0.0295214 0)
(10.0428 -0.0301899 0)
(10.0474 -0.0306938 0)
(10.0519 -0.0310874 0)
(10.0562 -0.0314064 0)
(10.0602 -0.0316742 0)
(10.0641 -0.0319074 0)
(10.0678 -0.0321157 0)
(10.0713 -0.0323062 0)
(10.0746 -0.0324817 0)
(10.0778 -0.0326418 0)
(10.0007 -0.0069717 0)
(10.0064 -0.0171922 0)
(10.0132 -0.0233364 0)
(10.0197 -0.0271914 0)
(10.0257 -0.0298535 0)
(10.0313 -0.0317108 0)
(10.0367 -0.0329807 0)
(10.0418 -0.0338583 0)
(10.0467 -0.0344877 0)
(10.0513 -0.0349581 0)
(10.0556 -0.0353202 0)
(10.0598 -0.0356076 0)
(10.0638 -0.0358421 0)
(10.0675 -0.0360404 0)
(10.0711 -0.0362119 0)
(10.0745 -0.0363649 0)
(10.0777 -0.0365021 0)
(10.0808 -0.0366228 0)
(10.0013 -0.00943314 0)
(10.0091 -0.0214284 0)
(10.0172 -0.0276119 0)
(10.0242 -0.0312407 0)
(10.0303 -0.0337914 0)
(10.036 -0.0355816 0)
(10.0415 -0.0367772 0)
(10.0465 -0.0375826 0)
(10.0513 -0.0381551 0)
(10.0558 -0.0385831 0)
(10.06 -0.0389097 0)
(10.0641 -0.0391643 0)
(10.0679 -0.0393655 0)
(10.0715 -0.0395305 0)
(10.075 -0.0396678 0)
(10.0783 -0.0397866 0)
(10.0814 -0.0398895 0)
(10.0843 -0.0399752 0)
(10.0028 -0.0127643 0)
(10.0126 -0.0259701 0)
(10.0224 -0.0317091 0)
(10.0299 -0.0349069 0)
(10.036 -0.0372866 0)
(10.0418 -0.0389773 0)
(10.0472 -0.0400657 0)
(10.0523 -0.0407702 0)
(10.0569 -0.0412673 0)
(10.0612 -0.0416408 0)
(10.0653 -0.0419242 0)
(10.0691 -0.0421393 0)
(10.0727 -0.0423022 0)
(10.0762 -0.0424304 0)
(10.0794 -0.0425312 0)
(10.0824 -0.0426158 0)
(10.0853 -0.042685 0)
(10.088 -0.0427357 0)
(10.0049 -0.0167253 0)
(10.0176 -0.0307196 0)
(10.0297 -0.03551 0)
(10.0376 -0.0381587 0)
(10.0437 -0.0403873 0)
(10.0493 -0.0419826 0)
(10.0546 -0.0429434 0)
(10.0594 -0.043517 0)
(10.0636 -0.0439107 0)
(10.0675 -0.0442013 0)
(10.0711 -0.0444122 0)
(10.0744 -0.0445571 0)
(10.0775 -0.0446506 0)
(10.0804 -0.0447123 0)
(10.083 -0.0447459 0)
(10.0854 -0.0447742 0)
(10.0876 -0.0447851 0)
(10.0896 -0.0448043 0)
(10.0069 -0.021673 0)
(10.0258 -0.0361928 0)
(10.0408 -0.0389418 0)
(10.0488 -0.0406988 0)
(10.0541 -0.0427939 0)
(10.0589 -0.0443979 0)
(10.0631 -0.0453435 0)
(10.0664 -0.0458841 0)
(10.0689 -0.0462532 0)
(10.0708 -0.0465187 0)
(10.0723 -0.0466954 0)
(10.0733 -0.0467892 0)
(10.0739 -0.0468124 0)
(10.0741 -0.0467941 0)
(10.074 -0.0467262 0)
(10.0736 -0.046658 0)
(10.0729 -0.0465549 0)
(10.0721 -0.0464943 0)
(10.0092 -0.0286338 0)
(10.0403 -0.0450668 0)
(10.0559 -0.0448241 0)
(10.0577 -0.0439446 0)
(10.054 -0.0441622 0)
(10.0479 -0.0444207 0)
(10.0398 -0.0443712 0)
(10.0294 -0.0441726 0)
(10.0171 -0.043968 0)
(10.0035 -0.0438006 0)
(9.98882 -0.0436376 0)
(9.97346 -0.0434716 0)
(9.95744 -0.0432724 0)
(9.94111 -0.0430858 0)
(9.92434 -0.0428469 0)
(9.90763 -0.0426598 0)
(9.89053 -0.0424046 0)
(9.87393 -0.0422819 0)
(9.91548 -0.0239365 0)
(9.77756 -0.0399547 0)
(9.63297 -0.043563 0)
(9.48409 -0.0447128 0)
(9.34035 -0.04515 0)
(9.2051 -0.0448561 0)
(9.07763 -0.0439577 0)
(8.95721 -0.0427078 0)
(8.84332 -0.0413154 0)
(8.736 -0.039873 0)
(8.63474 -0.0384232 0)
(8.53953 -0.0370459 0)
(8.44957 -0.0356841 0)
(8.36516 -0.034399 0)
(8.28508 -0.0331421 0)
(8.21036 -0.0320031 0)
(8.1388 -0.0308634 0)
(8.07291 -0.0299326 0)
(-0.0288721 0.0843532 -1.19807e-20)
(-0.109041 0.0803173 1.19014e-20)
(-0.180887 0.0671544 0)
(-0.234787 0.0470796 0)
(-0.27009 0.0236685 0)
(-0.283061 -0.00144493 -1.15512e-20)
(-0.271931 -0.0274703 0)
(-0.237909 -0.0505442 0)
(-0.181809 -0.0686665 0)
(-0.110953 -0.0784482 0)
(-0.0320234 -0.0805593 1.10637e-20)
(0.0470801 -0.0756408 0)
(0.120372 -0.0653979 0)
(0.182748 -0.0512446 0)
(0.230893 -0.0345613 0)
(0.262285 -0.01569 1.05374e-20)
(0.27548 0.0047551 0)
(0.269485 0.026989 0)
(0.244253 0.0496629 0)
(0.199982 0.070839 0)
(0.1376 0.088003 0)
(0.0599891 0.0944539 0)
(-0.0278659 0.0592236 0)
(-0.0937777 -0.00134143 9.97681e-21)
(-0.140731 -0.002674 -9.89757e-21)
(-0.186062 0.0176616 9.82662e-21)
(-0.209237 0.00100014 9.76234e-21)
(-0.197266 -0.0332093 0)
(-0.150802 -0.0673326 0)
(-0.0670091 -0.0968847 -9.53996e-21)
(0.029523 -0.0965972 -9.47113e-21)
(0.11072 -0.0683989 0)
(0.159306 -0.0264589 0)
(0.174822 0.0100051 -9.28442e-21)
(0.169906 0.0286186 0)
(0.143215 -0.00309396 0)
(0.0924029 -0.0734179 9.07636e-21)
(0.0339439 -0.0548628 0)
(-0.0712882 0.0884081 8.91901e-21)
(-0.249987 0.147659 1.75938e-20)
(-0.409854 0.142901 0)
(-0.564802 0.135846 0)
(-0.706835 0.123726 0)
(-0.836422 0.111284 0)
(-0.953415 0.0991209 0)
(-1.05855 0.0878234 1.71836e-20)
(-1.15301 0.0774604 1.71861e-20)
(-1.2379 0.0684254 1.71889e-20)
(-1.3146 0.0608123 0)
(-1.38426 0.0543801 -1.71832e-20)
(-1.44798 0.0490193 0)
(-1.5067 0.0445428 1.71565e-20)
(-1.56124 0.0408232 1.71349e-20)
(-1.61228 0.0377367 0)
(-1.6604 0.0351996 0)
(-1.70602 0.0331307 0)
(-1.74969 0.0314115 1.70002e-20)
(-1.79167 0.0299721 0)
(-1.83227 0.0287513 0)
(-1.87168 0.0276919 0)
(-1.91007 0.0267687 0)
(-1.94756 0.02594 0)
(-1.98424 0.0251904 0)
(-2.02019 0.0244936 0)
(-2.05546 0.0238383 0)
(-2.09007 0.0232088 -1.64877e-20)
(-2.12404 0.0225966 0)
(-2.15738 0.021993 0)
(-2.19008 0.021392 1.62619e-20)
(-2.22212 0.0207894 1.61798e-20)
(-2.2535 0.0201817 0)
(-2.28419 0.0195671 -1.60046e-20)
(-2.31416 0.0189444 1.59111e-20)
(-2.34339 0.0183134 0)
(-2.37186 0.017674 -1.57114e-20)
(-2.39954 0.017027 0)
(-2.4264 0.0163732 0)
(-2.45242 0.0157136 1.53778e-20)
(-2.47758 0.0150494 0)
(-2.50186 0.0143816 -1.51311e-20)
(-2.52524 0.013711 0)
(-2.5477 0.0130387 1.48639e-20)
(-2.56923 0.0123652 1.47224e-20)
(-2.5898 0.0116912 1.45755e-20)
(-2.6094 0.0110172 2.88464e-20)
(-2.62802 0.0103435 -2.85309e-20)
(-2.64565 0.00967071 0)
(-2.66226 0.00899906 0)
(-2.67784 0.00832886 0)
(-2.69238 0.0076604 -2.71576e-20)
(-2.70586 0.00699399 -2.67864e-20)
(-2.71828 0.00633 2.64041e-20)
(-2.72961 0.00566894 0)
(-2.73984 0.00501144 -2.56062e-20)
(-2.74896 0.00435821 -2.51908e-20)
(-2.75695 0.00370978 -2.47646e-20)
(-2.7638 0.00306805 0)
(-2.76949 0.00243846 0)
(-2.77398 0.00181598 0)
(-2.77722 0.00115384 -2.29546e-20)
(-2.77925 0.000464899 0)
(-2.78025 -0.000138519 0)
(-2.78008 -0.000743505 2.14897e-20)
(-2.77881 -0.00131656 0)
(-2.77639 -0.00188582 0)
(-2.77284 -0.00243991 1.99394e-20)
(-2.76815 -0.00298597 0)
(-2.76234 -0.00352077 0)
(-2.75539 -0.00404552 -1.83112e-20)
(-2.74731 -0.00455935 -1.77527e-20)
(-2.7381 -0.00506202 0)
(-2.72778 -0.00555315 1.66143e-20)
(-2.71634 -0.00603228 0)
(-2.7038 -0.00649907 -1.54502e-20)
(-2.69017 -0.00695311 0)
(-2.67546 -0.00739413 -1.42637e-20)
(-2.65967 -0.00782184 -1.36633e-20)
(-2.64283 -0.00823605 0)
(-2.62495 -0.00863661 0)
(-2.60604 -0.00902342 0)
(-2.58613 -0.00939643 0)
(-2.56523 -0.00975562 0)
(-2.54335 -0.0101009 0)
(-2.52052 -0.0104318 0)
(-2.49676 -0.0107473 -8.74925e-21)
(-2.47209 -0.0110445 8.12841e-21)
(-2.44653 -0.0113173 0)
(-2.42011 -0.011553 0)
(-2.39284 -0.0117272 0)
(-2.36479 -0.0117906 0)
(-2.33602 -0.0116576 1.00682e-20)
(-2.30655 -0.011535 0)
(-2.27627 -0.0117074 -7.61802e-21)
(-2.24517 -0.0119419 6.40033e-21)
(-2.2133 -0.0121173 0)
(-2.18067 -0.0123095 0)
(-2.1473 -0.0124832 0)
(-2.11319 -0.0126578 -1.58941e-21)
(-2.07834 -0.0128271 -4.03643e-22)
(-2.04275 -0.0129972 0)
(-2.00641 -0.0131682 1.94584e-21)
(-1.9693 -0.013342 3.10937e-21)
(-1.93142 -0.01352 -4.26542e-21)
(-1.89273 -0.0137038 0)
(-1.85321 -0.0138953 0)
(-1.81283 -0.0140957 -7.68987e-21)
(-1.77154 -0.0143057 0)
(-1.72932 -0.0145265 0)
(-1.68611 -0.0147617 0)
(-1.64185 -0.0150137 0)
(-1.5965 -0.0152814 1.32666e-20)
(-1.54997 -0.0155646 1.43655e-20)
(-1.50222 -0.0158655 0)
(-1.45316 -0.0161849 1.65498e-20)
(-1.40273 -0.0165227 0)
(-1.35085 -0.016879 0)
(-1.29743 -0.0172542 1.97982e-20)
(-1.2424 -0.017648 0)
(-1.18567 -0.0180596 2.19476e-20)
(-1.12717 -0.0184882 0)
(-1.06682 -0.0189325 0)
(-1.00453 -0.0193907 2.51476e-20)
(-0.940237 -0.0198602 0)
(-0.873877 -0.020338 2.72611e-20)
(-0.805394 -0.0208207 0)
(-0.734742 -0.0213044 0)
(-0.661888 -0.0217845 0)
(-0.586816 -0.0222553 -3.14116e-20)
(-0.50953 -0.0227107 0)
(-0.430058 -0.0231428 3.34272e-20)
(-0.348442 -0.0235408 0)
(-0.264833 -0.0238966 0)
(-0.179143 -0.0241545 0)
(-0.0922971 -0.0243825 0)
(-0.00268436 -0.0242107 0)
(0.0841782 -0.0243156 0)
(0.179454 -0.0229969 0)
(0.253792 -0.0226719 -8.1033e-20)
(0.363834 -0.019359 0)
(0.387806 -0.00579029 0)
(0.00909201 0.192843 3.6013e-20)
(-0.0162495 0.227122 -3.58252e-20)
(-0.0412346 0.183522 0)
(-0.0541675 0.125695 2.35975e-20)
(-0.057323 0.0666186 0)
(-0.0457075 0.00326502 1.16403e-20)
(-0.0164033 -0.069588 -2.3096e-20)
(0.0385964 -0.139669 -2.2815e-20)
(0.106688 -0.194548 0)
(0.182296 -0.227455 -2.2159e-20)
(0.258009 -0.236727 -1.08745e-20)
(0.327845 -0.225167 0)
(0.387901 -0.197596 0)
(0.435616 -0.158742 0)
(0.469681 -0.113128 0)
(0.489708 -0.0645656 -1.02691e-20)
(0.496716 -0.0149322 0)
(0.491347 0.0345544 2.03675e-20)
(0.473422 0.0824511 0)
(0.444309 0.127538 0)
(0.404448 0.167776 -2.00564e-20)
(0.355431 0.199689 0)
(0.294278 0.213807 1.99032e-20)
(0.217401 0.200198 -9.90263e-21)
(0.123814 0.159998 9.87728e-21)
(0.0446967 0.097145 -9.84979e-21)
(0.00198197 0.0168495 -9.81012e-21)
(-0.0241406 -0.0729936 0)
(-0.0143325 -0.164767 0)
(0.0291192 -0.228052 9.47038e-21)
(0.0698513 -0.220113 -9.38623e-21)
(0.0945074 -0.157608 0)
(0.0907914 -0.0841071 0)
(0.0474245 -0.032619 9.27025e-21)
(-0.0406427 0.0237607 0)
(-0.153179 0.144668 0)
(-0.345393 0.252325 -8.96338e-21)
(-0.535029 0.318012 0)
(-0.669663 0.354706 8.80641e-21)
(-0.791455 0.355967 -1.71544e-20)
(-0.894433 0.335953 0)
(-0.992902 0.310851 0)
(-1.08044 0.281423 -3.38728e-20)
(-1.16091 0.252748 -3.37253e-20)
(-1.23342 0.22566 -3.35987e-20)
(-1.29972 0.201365 1.68428e-20)
(-1.36037 0.18002 -1.66051e-20)
(-1.41641 0.161617 -4.98385e-20)
(-1.46844 0.145921 3.31637e-20)
(-1.5171 0.132645 1.64908e-20)
(-1.56289 0.121463 0)
(-1.60625 0.112064 -1.63999e-20)
(-1.64756 0.104158 1.6371e-20)
(-1.68713 0.0974983 0)
(-1.72522 0.0918933 0)
(-1.76204 0.0871742 0)
(-1.79776 0.0831745 -1.61192e-20)
(-1.83251 0.0797474 0)
(-1.86641 0.0767762 3.1952e-20)
(-1.89956 0.0741611 0)
(-1.93203 0.0718265 3.16668e-20)
(-1.96388 0.0697059 0)
(-1.99514 0.0677484 -3.13665e-20)
(-2.02585 0.0659102 0)
(-2.05602 0.064157 3.10499e-20)
(-2.08566 0.0624603 -1.54234e-20)
(-2.11476 0.0607977 0)
(-2.14332 0.0591517 -3.05411e-20)
(-2.17131 0.0575087 -1.51999e-20)
(-2.19872 0.0558589 -1.51071e-20)
(-2.22553 0.0541955 0)
(-2.25171 0.0525143 -1.48753e-20)
(-2.27724 0.0508131 -1.48101e-20)
(-2.30208 0.0490916 0)
(-2.32622 0.0473505 1.45952e-20)
(-2.34963 0.0455917 -2.89311e-20)
(-2.37229 0.0438176 0)
(-2.39417 0.042031 -1.42448e-20)
(-2.41524 0.0402349 0)
(-2.4355 0.0384321 4.19453e-20)
(-2.45492 0.0366251 0)
(-2.47348 0.0348163 -4.11369e-20)
(-2.49118 0.0330075 -1.3579e-20)
(-2.50798 0.0312005 1.34108e-20)
(-2.52387 0.0293963 2.65238e-20)
(-2.53885 0.027596 -2.62172e-20)
(-2.55289 0.0258006 0)
(-2.56599 0.0240107 0)
(-2.57812 0.0222271 0)
(-2.58927 0.0204506 7.47463e-20)
(-2.59945 0.0186817 2.45669e-20)
(-2.60862 0.0169212 -2.4202e-20)
(-2.61678 0.0151698 0)
(-2.62393 0.0134281 -2.344e-20)
(-2.63006 0.0116966 2.30533e-20)
(-2.63515 0.00997529 2.26527e-20)
(-2.63922 0.00826349 0)
(-2.64226 0.00656627 0)
(-2.64432 0.00490942 0)
(-2.64539 0.00332237 2.0967e-20)
(-2.64544 0.00171517 0)
(-2.64432 0.000138669 -4.01788e-20)
(-2.64211 -0.00142318 -5.88807e-20)
(-2.63879 -0.00295508 3.83355e-20)
(-2.63434 -0.00446552 0)
(-2.62877 -0.00594942 1.82383e-20)
(-2.62207 -0.00740818 0)
(-2.61425 -0.00883935 3.44627e-20)
(-2.60529 -0.0102422 -1.67594e-20)
(-2.59521 -0.011615 -1.62527e-20)
(-2.584 -0.0129566 0)
(-2.57168 -0.0142654 -4.5518e-20)
(-2.55825 -0.0155403 2.93162e-20)
(-2.54372 -0.0167798 1.40867e-20)
(-2.52809 -0.0179829 0)
(-2.51139 -0.0191485 1.30053e-20)
(-2.49361 -0.0202757 3.74643e-20)
(-2.47478 -0.0213637 0)
(-2.45491 -0.0224119 2.28029e-20)
(-2.43401 -0.0234198 2.16922e-20)
(-2.41211 -0.024387 2.05765e-20)
(-2.38922 -0.0253132 0)
(-2.36536 -0.0261984 0)
(-2.34054 -0.0270428 0)
(-2.3148 -0.0278467 -8.09474e-21)
(-2.28815 -0.028611 -7.41993e-21)
(-2.26061 -0.029337 0)
(-2.23221 -0.0300275 -1.26941e-20)
(-2.20295 -0.0306897 -1.15668e-20)
(-2.17285 -0.0313393 0)
(-2.14189 -0.0319892 -9.20042e-21)
(-2.11007 -0.0326273 -1.63954e-20)
(-2.07745 -0.0332204 6.96362e-21)
(-2.04408 -0.0337523 6.09005e-21)
(-2.00996 -0.034246 0)
(-1.97508 -0.0347181 0)
(-1.93945 -0.0351709 0)
(-1.90308 -0.0356106 1.45398e-21)
(-1.86596 -0.0360406 -6.17838e-22)
(-1.82809 -0.0364655 1.16764e-21)
(-1.78946 -0.0368894 -1.78093e-21)
(-1.75007 -0.0373167 2.592e-21)
(-1.70988 -0.0377517 3.90525e-21)
(-1.6689 -0.0381987 0)
(-1.62707 -0.0386623 0)
(-1.58439 -0.0391465 -6.7807e-21)
(-1.5408 -0.0396558 0)
(-1.49626 -0.0401939 0)
(-1.45074 -0.0407644 1.99881e-20)
(-1.40417 -0.0413715 0)
(-1.35649 -0.0420183 1.18831e-20)
(-1.30766 -0.0427066 -1.31706e-20)
(-1.25759 -0.0434388 0)
(-1.20623 -0.0442175 1.48872e-20)
(-1.15348 -0.0450431 0)
(-1.09929 -0.045916 0)
(-1.04357 -0.0468368 -1.81627e-20)
(-0.986231 -0.0478047 3.79955e-20)
(-0.927203 -0.048818 -2.01391e-20)
(-0.866399 -0.0498743 0)
(-0.803742 -0.0509701 0)
(-0.739156 -0.0521004 2.27528e-20)
(-0.672567 -0.0532593 0)
(-0.603912 -0.0544398 2.46878e-20)
(-0.533133 -0.0556331 0)
(-0.460182 -0.056829 0)
(-0.385026 -0.0580156 0)
(-0.307647 -0.0591792 2.88567e-20)
(-0.228045 -0.0603037 0)
(-0.146242 -0.0613702 -3.07204e-20)
(-0.0622798 -0.0623536 0)
(0.0237177 -0.0632346 0)
(0.111749 -0.0639334 6.63278e-20)
(0.201261 -0.0645171 -6.79539e-20)
(0.29288 -0.064565 0)
(0.383948 -0.0646139 0)
(0.479061 -0.0627541 0)
(0.565017 -0.0614076 2.2257e-19)
(0.666343 -0.0549465 0)
(0.725172 -0.0346656 -1.54318e-19)
(0.0193267 0.117296 -4.47796e-24)
(0.0504124 0.201865 4.7739e-20)
(0.0692944 0.170233 0)
(0.0833664 0.100743 -4.71182e-20)
(0.108567 0.0241933 0)
(0.159575 -0.0711963 0)
(0.233131 -0.18013 1.2325e-23)
(0.314765 -0.277943 2.25295e-20)
(0.39336 -0.344244 2.22366e-20)
(0.462058 -0.372598 2.18098e-20)
(0.517097 -0.365899 0)
(0.558052 -0.33177 0)
(0.586005 -0.278913 -2.10769e-20)
(0.602746 -0.21497 -4.16769e-20)
(0.610019 -0.145481 4.12516e-20)
(0.609252 -0.0743523 0)
(0.601125 -0.00400666 4.05553e-20)
(0.586102 0.0637096 -1.99221e-20)
(0.565197 0.127891 0)
(0.539102 0.187038 3.96841e-20)
(0.508183 0.238886 1.96133e-20)
(0.472784 0.28019 -3.93765e-20)
(0.432426 0.305668 -1.95504e-20)
(0.385516 0.309335 0)
(0.330261 0.286746 3.89921e-20)
(0.269374 0.229877 3.88441e-20)
(0.211918 0.134319 0)
(0.157197 0.0107533 3.84459e-20)
(0.125253 -0.137266 0)
(0.0947098 -0.224241 3.75484e-20)
(0.0413966 -0.202046 1.87162e-20)
(-0.0443178 -0.0949159 0)
(-0.162729 0.0723762 0)
(-0.313474 0.237548 0)
(-0.483489 0.359252 0)
(-0.619073 0.441539 0)
(-0.739909 0.482964 0)
(-0.836394 0.497089 3.47718e-20)
(-0.911362 0.498363 -5.13765e-20)
(-0.973861 0.48075 0)
(-1.02729 0.450556 0)
(-1.07747 0.415203 0)
(-1.12439 0.377691 -3.23904e-22)
(-1.17024 0.341607 3.21639e-20)
(-1.21471 0.308088 6.40572e-20)
(-1.25822 0.27804 -6.35578e-20)
(-1.30062 0.251592 -3.16342e-20)
(-1.3419 0.228676 3.12785e-20)
(-1.38201 0.208992 9.88485e-23)
(-1.42095 0.192198 3.09959e-20)
(-1.45874 0.177917 0)
(-1.49542 0.165785 3.06214e-20)
(-1.53108 0.155467 1.91155e-23)
(-1.56579 0.146686 0)
(-1.59964 0.139197 0)
(-1.6327 0.132779 -2.9923e-20)
(-1.66505 0.127239 0)
(-1.69674 0.122415 0)
(-1.72785 0.118167 2.93834e-20)
(-1.7584 0.114376 5.84811e-20)
(-1.78846 0.110945 -2.91028e-20)
(-1.81803 0.10779 0)
(-1.84716 0.104843 2.87561e-20)
(-1.87583 0.102046 0)
(-1.90406 0.0993523 2.83175e-20)
(-1.93184 0.0967235 2.82154e-20)
(-1.95916 0.094129 -5.59752e-20)
(-1.986 0.0915451 -2.77564e-20)
(-2.01233 0.0889534 0)
(-2.03815 0.0863411 5.48114e-20)
(-2.06341 0.0836993 0)
(-2.08808 0.081023 8.10297e-20)
(-2.11215 0.0783102 5.35713e-20)
(-2.13558 0.0755612 5.31384e-20)
(-2.15835 0.0727784 -5.26949e-20)
(-2.18041 0.0699654 7.83947e-20)
(-2.20176 0.0671265 0)
(-2.22237 0.0642668 0)
(-2.24221 0.0613911 -5.08063e-20)
(-2.26126 0.0585043 -7.54839e-20)
(-2.27951 0.0556106 0)
(-2.29693 0.052714 2.4655e-20)
(-2.31351 0.0498174 0)
(-2.32924 0.0469236 -7.22648e-20)
(-2.34408 0.0440347 -4.01726e-23)
(-2.35804 0.0411524 3.64468e-23)
(-2.37109 0.0382782 4.64124e-20)
(-2.38323 0.0354134 0)
(-2.39443 0.0325594 -4.51758e-20)
(-2.40468 0.0297178 -2.0494e-23)
(-2.41397 0.0268902 0)
(-2.42228 0.0240784 0)
(-2.42961 0.0212844 0)
(-2.43594 0.0185101 4.18396e-20)
(-2.44127 0.0157576 0)
(-2.44558 0.0130289 0)
(-2.44887 0.0103247 0)
(-2.45113 0.00764357 0)
(-2.45232 0.0049881 0)
(-2.45248 0.0023863 3.73716e-20)
(-2.45159 -0.000172387 0)
(-2.44961 -0.00271355 3.574e-20)
(-2.44653 -0.00523044 3.49155e-20)
(-2.44236 -0.00771615 -3.40777e-20)
(-2.43709 -0.0101681 0)
(-2.43071 -0.0125817 -3.23642e-20)
(-2.42323 -0.014955 0)
(-2.41464 -0.0172849 -3.06024e-20)
(-2.40494 -0.0195693 2.97045e-20)
(-2.39414 -0.0218055 8.65201e-20)
(-2.38224 -0.0239914 0)
(-2.36923 -0.0261245 8.09928e-20)
(-2.35514 -0.0282027 2.61657e-20)
(-2.33995 -0.0302239 0)
(-2.3237 -0.0321861 4.83889e-20)
(-2.30637 -0.0340876 4.64721e-20)
(-2.28799 -0.0359268 -6.67213e-20)
(-2.26857 -0.0377026 0)
(-2.24811 -0.0394139 -2.02253e-20)
(-2.22665 -0.0410597 -1.92405e-20)
(-2.20418 -0.0426394 -5.49593e-20)
(-2.18074 -0.0441524 0)
(-2.15634 -0.0455984 0)
(-2.13099 -0.0469773 0)
(-2.10471 -0.0482891 -1.44906e-20)
(-2.07754 -0.049534 0)
(-2.04948 -0.0507121 0)
(-2.02055 -0.0518241 1.12681e-20)
(-1.99078 -0.0528713 1.02692e-20)
(-1.96017 -0.0538571 0)
(-1.92873 -0.0547894 0)
(-1.89648 -0.0556894 1.45643e-20)
(-1.86345 -0.0565665 0)
(-1.82968 -0.0573991 -1.06119e-20)
(-1.79515 -0.0581863 -8.90167e-21)
(-1.75988 -0.0589403 0)
(-1.72387 -0.0596647 0)
(-1.68713 -0.0603677 3.06671e-21)
(-1.64965 -0.0610547 -2.62888e-22)
(-1.61143 -0.0617329 -2.64909e-22)
(-1.57247 -0.0624088 0)
(-1.53276 -0.0630895 -9.41439e-21)
(-1.49227 -0.0637823 0)
(-1.451 -0.0644946 0)
(-1.40891 -0.0652337 0)
(-1.36598 -0.0660059 1.23202e-20)
(-1.32216 -0.0668181 0)
(-1.27743 -0.067677 -3.14308e-20)
(-1.23172 -0.0685883 -1.78257e-20)
(-1.18501 -0.0695585 0)
(-1.13722 -0.0705925 -2.14534e-20)
(-1.0883 -0.0716946 0)
(-1.03818 -0.072868 0)
(-0.986799 -0.074116 -7.99158e-20)
(-0.934079 -0.075441 5.66338e-20)
(-0.879947 -0.0768436 0)
(-0.824323 -0.078324 6.3725e-20)
(-0.767129 -0.079881 -3.39535e-20)
(-0.708284 -0.0815122 0)
(-0.647708 -0.0832133 0)
(-0.585322 -0.0849786 0)
(-0.521052 -0.0868003 -1.22297e-19)
(-0.454825 -0.088669 0)
(-0.386577 -0.0905732 -4.44888e-20)
(-0.316248 -0.0924989 0)
(-0.243791 -0.0944297 0)
(-0.169171 -0.0963463 0)
(-0.0923659 -0.0982269 0)
(-0.0133727 -0.100046 0)
(0.0677902 -0.101774 0)
(0.151088 -0.103373 -1.11759e-19)
(0.236421 -0.104802 0)
(0.323752 -0.105975 -5.93463e-20)
(0.412715 -0.106884 1.8176e-19)
(0.503606 -0.107179 0)
(0.59483 -0.107089 0)
(0.68876 -0.105118 -1.29664e-19)
(0.778003 -0.102512 -1.33146e-19)
(0.876139 -0.0947609 1.35439e-19)
(0.951093 -0.073107 1.39182e-19)
(0.00150612 0.0406058 -7.21434e-20)
(0.0251985 0.116238 -7.16831e-20)
(0.0474722 0.114364 -4.73895e-20)
(0.0965479 0.0408453 -2.34557e-20)
(0.184782 -0.0962852 0)
(0.295637 -0.252229 4.58475e-20)
(0.404236 -0.383249 -2.2636e-20)
(0.493351 -0.465833 0)
(0.555961 -0.49554 -2.18657e-20)
(0.593001 -0.479682 0)
(0.609868 -0.431239 4.26729e-20)
(0.613258 -0.363468 0)
(0.608624 -0.286349 2.05215e-20)
(0.599477 -0.206034 4.05274e-20)
(0.587622 -0.12579 -4.01063e-20)
(0.5738 -0.0471165 0)
(0.557898 0.0291624 -3.9483e-20)
(0.540021 0.102409 0)
(0.519939 0.171682 0)
(0.497277 0.235617 -3.88099e-20)
(0.471779 0.292317 0)
(0.443129 0.338947 -2.32405e-22)
(0.410683 0.371156 0)
(0.373324 0.383259 0)
(0.329627 0.368666 3.36632e-24)
(0.278723 0.31794 -3.84745e-20)
(0.219775 0.224215 -3.82119e-20)
(0.160635 0.087268 -3.82047e-20)
(0.0954029 -0.0566115 0)
(-0.00508272 -0.0822289 -7.46071e-20)
(-0.148012 0.0246106 0)
(-0.321775 0.198201 -3.66626e-20)
(-0.483059 0.361684 0)
(-0.618735 0.477123 0)
(-0.72874 0.547403 3.54385e-20)
(-0.809644 0.586001 0)
(-0.872995 0.597122 -3.44072e-20)
(-0.920605 0.5888 2.37372e-22)
(-0.958702 0.569628 6.64586e-20)
(-0.990891 0.54032 -6.56453e-20)
(-1.02083 0.505278 0)
(-1.0505 0.467938 0)
(-1.08067 0.430404 -3.15844e-20)
(-1.1119 0.394573 0)
(-1.14401 0.361295 -3.03103e-20)
(-1.17683 0.33113 2.99904e-20)
(-1.21005 0.304196 2.97006e-20)
(-1.2434 0.280434 0)
(-1.27663 0.259654 -2.91891e-20)
(-1.30959 0.241594 -2.89579e-20)