/*--------------------------------*- C++ -*----------------------------------*\
| =========                 |                                                 |
| \\      /  F ield         | OpenFOAM: The Open Source CFD Toolbox           |
|  \\    /   O peration     | Version:  2112                                  |
|   \\  /    A nd           | Website:  www.openfoam.com                      |
|    \\/     M anipulation  |                                                 |
\*---------------------------------------------------------------------------*/
FoamFile
{
    version     2.0;
    format      ascii;
    arch        "LSB;label=32;scalar=64";
    class       volVectorField;
    location    "0.05";
    object      ddt0(U);
}
// * * * * * * * * * * * * * * * * * * * * * * * * * * * * * * * * * * * * * //

dimensions      [0 1 -2 0 0 0 0];

internalField   nonuniform List<vector> 
12225
(
(-0.257077 0.126042 0)
(-1.93919 0.347652 0)
(-5.28392 0.574272 0)
(-10.3106 0.791386 0)
(-16.8375 0.979867 0)
(-24.895 1.18698 0)
(-34.768 1.48522 0)
(-46.8221 1.89701 0)
(-61.3568 2.3885 0)
(-78.5652 2.92099 0)
(-98.5202 3.46675 0)
(-121.14 3.99142 0)
(-146.056 4.40606 0)
(-172.434 4.50476 0)
(-198.363 3.87833 0)
(-220.948 1.86365 0)
(-234.522 -2.52482 0)
(-232.179 -12.0971 0)
(0.14444 0.2006 0)
(0.251935 0.624392 0)
(-0.323905 1.12895 0)
(-2.01562 1.70757 0)
(-5.05787 2.36716 0)
(-9.65811 3.15158 0)
(-16.0223 4.11248 0)
(-24.4227 5.27927 0)
(-35.1986 6.66449 0)
(-48.7321 8.26555 0)
(-65.4036 10.0546 0)
(-85.5492 11.9591 0)
(-109.352 13.8091 0)
(-136.706 15.2419 0)
(-166.819 15.5797 0)
(-197.886 13.6357 0)
(-226.15 7.65948 0)
(-244.025 -4.95285 0)
(-0.0436884 0.184103 0)
(-0.443052 0.659157 0)
(-1.26146 1.28214 0)
(-2.44255 2.05282 0)
(-3.96681 2.95602 0)
(-5.81704 4.03089 0)
(-7.99692 5.35321 0)
(-10.5058 6.9854 0)
(-13.4102 8.96055 0)
(-16.7498 11.3 0)
(-20.732 14.0007 0)
(-25.5474 16.9972 0)
(-31.3657 20.0943 0)
(-38.3533 22.8481 0)
(-46.5891 24.4027 0)
(-56.1835 23.2253 0)
(-66.7511 16.9482 0)
(-77.924 1.29833 0)
(-0.0449069 0.243836 0)
(-0.566862 0.861873 0)
(-1.73624 1.61733 0)
(-3.54508 2.49712 0)
(-5.88891 3.48914 0)
(-8.64317 4.62251 0)
(-11.6544 5.95661 0)
(-14.7395 7.55055 0)
(-17.706 9.45693 0)
(-20.4395 11.6917 0)
(-22.7347 14.247 0)
(-24.4013 17.0637 0)
(-25.2302 19.9417 0)
(-25.0558 22.4379 0)
(-23.7707 23.7334 0)
(-21.7316 22.3491 0)
(-19.4841 16.1592 0)
(-19.5881 0.705204 0)
(-0.0416779 0.315194 0)
(-0.544756 1.11606 0)
(-1.7005 2.07241 0)
(-3.53835 3.15878 0)
(-5.98765 4.35854 0)
(-8.97201 5.68518 0)
(-12.4008 7.17737 0)
(-16.1606 8.88049 0)
(-20.1236 10.8299 0)
(-24.1901 13.0407 0)
(-28.2279 15.4926 0)
(-32.0867 18.0869 0)
(-35.5808 20.5959 0)
(-38.5387 22.5751 0)
(-40.842 23.2695 0)
(-42.7129 21.4166 0)
(-44.7837 15.3239 0)
(-48.9777 1.58318 0)
(-0.0397185 0.387367 0)
(-0.524555 1.36185 0)
(-1.64078 2.50858 0)
(-3.41493 3.79916 0)
(-5.77904 5.20488 0)
(-8.66256 6.72386 0)
(-11.9906 8.39064 0)
(-15.675 10.2541 0)
(-19.6306 12.3568 0)
(-23.7905 14.7121 0)
(-28.1035 17.2838 0)
(-32.5266 19.9644 0)
(-37.0286 22.5268 0)
(-41.6501 24.5574 0)
(-46.5526 25.3884 0)
(-52.3084 24.0106 0)
(-59.8343 19.1221 0)
(-71.6713 8.50914 0)
(-0.0379405 0.460241 0)
(-0.504078 1.61544 0)
(-1.57922 2.96808 0)
(-3.28715 4.47846 0)
(-5.55645 6.10763 0)
(-8.31267 7.84426 0)
(-11.4839 9.71414 0)
(-14.9913 11.7614 0)
(-18.763 14.0277 0)
(-22.7489 16.5304 0)
(-26.9263 19.2435 0)
(-31.3041 22.074 0)
(-35.9391 24.8254 0)
(-41.0046 27.1559 0)
(-46.8414 28.5485 0)
(-54.2684 28.2933 0)
(-64.3676 25.5836 0)
(-80.1653 19.2547 0)
(-0.0362279 0.53485 0)
(-0.482041 1.87718 0)
(-1.51091 3.44111 0)
(-3.14465 5.17347 0)
(-5.3114 7.02381 0)
(-7.93591 8.96937 0)
(-10.9487 11.0286 0)
(-14.2776 13.2471 0)
(-17.8599 15.6743 0)
(-21.6599 18.3393 0)
(-25.678 21.2307 0)
(-29.9614 24.279 0)
(-34.6257 27.336 0)
(-39.9221 30.1582 0)
(-46.2843 32.4127 0)
(-54.6017 33.7107 0)
(-65.9493 33.7565 0)
(-83.1934 32.3014 0)
(-0.0345561 0.610947 0)
(-0.458167 2.14469 0)
(-1.43479 3.92411 0)
(-2.98381 5.88148 0)
(-5.03412 7.95424 0)
(-7.51085 10.1104 0)
(-10.3475 12.3644 0)
(-13.4793 14.7644 0)
(-16.8548 17.3669 0)
(-20.4524 20.2139 0)
(-24.2922 23.3153 0)
(-28.4492 26.6376 0)
(-33.0769 30.0972 0)
(-38.463 33.564 0)
(-45.0664 36.8943 0)
(-53.7235 40.0018 0)
(-65.3586 43.0161 0)
(-82.3376 46.4012 0)
(-0.0328542 0.688078 0)
(-0.432105 2.41565 0)
(-1.35004 4.41272 0)
(-2.80265 6.59649 0)
(-4.72016 8.89224 0)
(-7.0295 11.2591 0)
(-9.66797 13.7072 0)
(-12.5782 16.2875 0)
(-15.7181 19.0668 0)
(-19.0772 22.1051 0)
(-22.6889 25.4402 0)
(-26.6436 29.0819 0)
(-31.1086 33.0163 0)
(-36.3675 37.2253 0)
(-42.8417 41.7353 0)
(-51.2227 46.7043 0)
(-62.1885 52.555 0)
(-77.4579 60.1926 0)
(-0.0310626 0.765691 0)
(-0.403372 2.68697 0)
(-1.25543 4.90051 0)
(-2.59898 7.30825 0)
(-4.36637 9.82275 0)
(-6.48739 12.3944 0)
(-8.9031 15.0307 0)
(-11.5622 17.7875 0)
(-14.4297 20.7443 0)
(-17.5022 23.981 0)
(-20.8184 27.5652 0)
(-24.469 31.5508 0)
(-28.6102 35.9903 0)
(-33.4854 40.9616 0)
(-39.4294 46.6204 0)
(-46.9328 53.285 0)
(-56.3897 61.521 0)
(-68.8523 72.4001 0)
(-0.0293717 0.837157 0)
(-0.374598 2.93474 0)
(-1.15938 5.34361 0)
(-2.39079 7.95168 0)
(-4.00365 10.6598 0)
(-5.93098 13.4113 0)
(-8.11729 16.2124 0)
(-10.5157 19.124 0)
(-13.0956 22.2375 0)
(-15.8552 25.6515 0)
(-18.8297 29.4602 0)
(-22.0975 33.755 0)
(-25.7858 38.6391 0)
(-30.0778 44.2561 0)
(-35.204 50.837 0)
(-41.459 58.7705 0)
(-48.9976 68.639 0)
(-58.3529 81.4821 0)
(-0.0276533 0.906283 0)
(-0.343773 3.17286 0)
(-1.05535 5.76789 0)
(-2.16438 8.5656 0)
(-3.60857 11.4556 0)
(-5.32474 14.3745 0)
(-7.26074 17.3274 0)
(-9.37312 20.3808 0)
(-11.6333 23.6373 0)
(-14.037 27.2124 0)
(-16.6104 31.2234 0)
(-19.4103 35.7908 0)
(-22.5248 41.0524 0)
(-26.0666 47.1894 0)
(-30.1579 54.4616 0)
(-34.9128 63.2599 0)
(-40.291 74.0995 0)
(-46.417 87.875 0)
(-0.0254068 0.982178 0)
(-0.304571 3.43219 0)
(-0.923777 6.22678 0)
(-1.87872 9.22512 0)
(-3.11083 12.3046 0)
(-4.56157 15.3948 0)
(-6.18241 18.5002 0)
(-7.93241 21.6927 0)
(-9.78248 25.086 0)
(-11.7216 28.8114 0)
(-13.7587 33.0053 0)
(-15.9193 37.8087 0)
(-18.2393 43.3785 0)
(-20.7502 49.9053 0)
(-23.4611 57.6349 0)
(-26.3206 66.8992 0)
(-29.14 78.0744 0)
(-31.7257 91.8191 0)
(-0.0223602 1.06201 0)
(-0.2544 3.70044 0)
(-0.757272 6.69542 0)
(-1.51909 9.89055 0)
(-2.48602 13.1509 0)
(-3.60536 16.3988 0)
(-4.83252 19.6378 0)
(-6.12819 22.944 0)
(-7.46033 26.4394 0)
(-8.80675 30.2657 0)
(-10.1537 34.5689 0)
(-11.4892 39.4953 0)
(-12.7937 45.1963 0)
(-14.0223 51.8368 0)
(-15.0918 59.6028 0)
(-15.836 68.7129 0)
(-16.0009 79.3595 0)
(-15.2223 91.9233 0)
(-0.0180708 1.13936 0)
(-0.189854 3.95345 0)
(-0.547147 7.12819 0)
(-1.0697 10.4923 0)
(-1.70995 13.8991 0)
(-2.42275 17.264 0)
(-3.16841 20.588 0)
(-3.90939 23.948 0)
(-4.60991 27.4685 0)
(-5.23546 31.2917 0)
(-5.74943 35.559 0)
(-6.10597 40.4016 0)
(-6.24195 45.9393 0)
(-6.06238 52.2809 0)
(-5.43673 59.5222 0)
(-4.16094 67.7479 0)
(-2.00612 76.9759 0)
(1.41273 87.3411 0)
(-0.01171 1.20227 0)
(-0.106193 4.14886 0)
(-0.283445 7.44524 0)
(-0.515699 10.9083 0)
(-0.76438 14.3832 0)
(-0.994639 17.7793 0)
(-1.17421 21.0933 0)
(-1.26982 24.3977 0)
(-1.24519 27.8099 0)
(-1.05889 31.4605 0)
(-0.66091 35.4708 0)
(0.0119655 39.9407 0)
(1.03997 44.9427 0)
(2.52763 50.519 0)
(4.59872 56.6776 0)
(7.42263 63.3928 0)
(11.1418 70.5683 0)
(16.0555 78.1808 0)
(-0.00185061 1.22845 0)
(-0.000138078 4.22589 0)
(0.035392 7.54059 0)
(0.139502 10.9815 0)
(0.337932 14.3937 0)
(0.649633 17.6844 0)
(1.09346 20.8437 0)
(1.69148 23.9338 0)
(2.47174 27.0567 0)
(3.47122 30.3212 0)
(4.73761 33.8193 0)
(6.32942 37.6135 0)
(8.31435 41.7305 0)
(10.7697 46.1608 0)
(13.7732 50.8584 0)
(17.4208 55.7435 0)
(21.7594 60.6841 0)
(26.9686 65.5955 0)
(0.0240746 1.15146 0)
(0.15536 4.02781 0)
(0.422806 7.17626 0)
(0.885393 10.3973 0)
(1.55436 13.5446 0)
(2.42204 16.5321 0)
(3.48414 19.3473 0)
(4.7427 22.0398 0)
(6.20713 24.6902 0)
(7.89642 27.3796 0)
(9.83875 30.1712 0)
(12.069 33.0998 0)
(14.6251 36.168 0)
(17.5461 39.3451 0)
(20.8608 42.5749 0)
(24.5932 45.8006 0)
(28.7241 48.901 0)
(33.3356 51.7929 0)
(0.076395 1.25595 0)
(0.351758 3.82512 0)
(0.792844 6.56327 0)
(1.51445 9.37371 0)
(2.52198 12.1134 0)
(3.78308 14.6899 0)
(5.26983 17.0853 0)
(6.96419 19.3367 0)
(8.8552 21.5068 0)
(10.9408 23.659 0)
(13.2264 25.8403 0)
(15.7206 28.074 0)
(18.4321 30.3566 0)
(21.3796 32.6455 0)
(24.6303 34.8194 0)
(28.1604 37.0641 0)
(31.8718 39.0976 0)
(35.8105 40.9062 0)
(-0.0388415 1.13308 0)
(0.163045 3.40629 0)
(0.809297 5.79726 0)
(1.80469 8.23606 0)
(3.08546 10.6023 0)
(4.6193 12.8149 0)
(6.37911 14.8565 0)
(8.337 16.7567 0)
(10.4723 18.5676 0)
(12.7732 20.3415 0)
(15.2348 22.1166 0)
(17.8539 23.9105 0)
(20.6048 25.7221 0)
(23.3631 27.5518 0)
(26.5921 29.4627 0)
(30.047 31.0094 0)
(33.306 32.4528 0)
(36.7465 33.7029 0)
(0.00193408 0.79415 0)
(0.283823 2.79621 0)
(0.999527 4.92243 0)
(2.10927 7.0416 0)
(3.5431 9.07065 0)
(5.25093 10.9575 0)
(7.19074 12.6904 0)
(9.32172 14.2946 0)
(11.6101 15.8135 0)
(14.0339 17.2898 0)
(16.581 18.755 0)
(19.2474 20.2246 0)
(22.0549 21.6999 0)
(25.1356 23.1856 0)
(27.9555 24.7209 0)
(30.7551 25.9539 0)
(33.9275 27.0905 0)
(37.0847 28.0713 0)
(0.0223077 0.702517 0)
(0.354716 2.38103 0)
(1.12748 4.15666 0)
(2.32742 5.9264 0)
(3.87821 7.62148 0)
(5.71322 9.20152 0)
(7.77911 10.6598 0)
(10.0289 12.0155 0)
(12.4237 13.3007 0)
(14.9363 14.5482 0)
(17.5496 15.7834 0)
(20.2556 17.0184 0)
(23.053 18.2492 0)
(25.9284 19.4379 0)
(28.7639 20.447 0)
(31.5901 21.6212 0)
(34.4774 22.6286 0)
(37.3915 23.5158 0)
(0.0308838 0.589192 0)
(0.397464 1.96111 0)
(1.22003 3.41804 0)
(2.48823 4.88143 0)
(4.12451 6.28972 0)
(6.05668 7.6038 0)
(8.2221 8.81707 0)
(10.5632 9.94919 0)
(13.0341 11.0304 0)
(15.6042 12.0885 0)
(18.2546 13.141 0)
(20.9719 14.1931 0)
(23.7427 15.2363 0)
(26.544 16.2477 0)
(29.342 17.2052 0)
(32.137 18.1656 0)
(34.9252 19.0618 0)
(37.7019 19.8752 0)
(0.0354779 0.478467 0)
(0.427433 1.5783 0)
(1.2949 2.73895 0)
(2.62271 3.90296 0)
(4.32248 5.03345 0)
(6.31557 6.11099 0)
(8.54225 7.12978 0)
(10.9488 8.09479 0)
(13.4868 9.02052 0)
(16.1178 9.92605 0)
(18.8152 10.8271 0)
(21.5615 11.7295 0)
(24.3421 12.6286 0)
(27.1399 13.514 0)
(29.9358 14.3794 0)
(32.7188 15.2252 0)
(35.4683 16.0254 0)
(38.1822 16.7642 0)
(0.0384187 0.373027 0)
(0.444067 1.23755 0)
(1.33653 2.16154 0)
(2.71021 3.092 0)
(4.47999 3.99121 0)
(6.5557 4.84563 0)
(8.86003 5.65882 0)
(11.3298 6.44408 0)
(13.9178 7.21892 0)
(16.5882 7.999 0)
(19.3147 8.79008 0)
(22.0756 9.59117 0)
(24.8528 10.397 0)
(27.6285 11.201 0)
(30.3833 11.997 0)
(33.0996 12.7769 0)
(35.7499 13.5258 0)
(38.3322 14.2317 0)
(0.0431815 0.270687 0)
(0.476005 0.894509 0)
(1.40442 1.56864 0)
(2.80462 2.2581 0)
(4.57593 2.94037 0)
(6.62304 3.61378 0)
(8.8806 4.27947 0)
(11.2829 4.93869 0)
(13.7671 5.59494 0)
(16.2695 6.25875 0)
(18.7527 6.93905 0)
(21.1884 7.63635 0)
(23.5563 8.34935 0)
(25.8379 9.07531 0)
(28.0129 9.81046 0)
(30.0638 10.5506 0)
(31.9621 11.281 0)
(33.7234 12.012 0)
(0.0433185 0.18649 0)
(0.430167 0.614064 0)
(1.23004 1.09342 0)
(2.38759 1.61789 0)
(3.80089 2.17261 0)
(5.3976 2.75052 0)
(7.14709 3.33936 0)
(8.98264 3.94369 0)
(10.849 4.58414 0)
(12.7148 5.26881 0)
(14.5585 5.99412 0)
(16.3867 6.75208 0)
(18.2171 7.53688 0)
(20.068 8.34574 0)
(21.9548 9.17658 0)
(23.8904 10.0244 0)
(25.882 10.8806 0)
(27.9305 11.7361 0)
(-0.0773393 0.182734 0)
(-0.079392 0.537408 0)
(0.345795 0.906381 0)
(1.34054 1.29011 0)
(2.92802 1.67976 0)
(5.08757 2.07301 0)
(7.74722 2.48752 0)
(10.8929 2.94136 0)
(14.5197 3.44451 0)
(18.6457 3.98995 0)
(23.298 4.56258 0)
(28.4966 5.14719 0)
(34.2487 5.73394 0)
(40.5501 6.31753 0)
(47.3857 6.89487 0)
(54.7359 7.46198 0)
(62.5597 8.01478 0)
(70.8626 8.54613 0)
(0.180279 0.108868 0)
(1.2961 0.29112 0)
(3.3599 0.445764 0)
(6.26332 0.581539 0)
(9.86574 0.726326 0)
(14.1375 0.904004 0)
(19.0905 1.10122 0)
(24.7191 1.29481 0)
(31.0083 1.47743 0)
(37.9347 1.64921 0)
(45.4523 1.80555 0)
(53.4905 1.93781 0)
(61.9658 2.04282 0)
(70.7969 2.12409 0)
(79.9109 2.1874 0)
(89.249 2.23709 0)
(98.7425 2.27233 0)
(108.358 2.2934 0)
(24.8662 -52.8334 -7.14119e-19)
(98.4072 -93.422 6.5153e-19)
(207.344 -111.596 0)
(317.308 -120.697 0)
(420.998 -105.132 0)
(500.429 -60.287 -5.64204e-19)
(543.772 -7.02039 0)
(548.463 38.2348 0)
(515.609 75.4572 0)
(447.436 109.562 0)
(345.887 143.609 7.67503e-19)
(211.428 176.634 0)
(46.05 201.423 0)
(-138.467 204.628 0)
(-318.467 173.736 0)
(-457.355 106.574 3.34688e-19)
(-534.585 11.0608 0)
(-513.93 -84.4991 0)
(-411.792 -136.469 0)
(-277.689 -117.399 0)
(-167.262 -40.6755 0)
(-114.028 40.2864 0)
(-127.957 62.2203 0)
(-212.573 36.5833 1.15008e-19)
(-273.263 39.5644 -1.31534e-19)
(-190.9 61.3911 1.60709e-19)
(26.6414 5.24005 -6.13037e-19)
(272.578 -189.637 0)
(563.39 -391.956 0)
(880.154 -447.753 7.64901e-19)
(1137.58 -406.528 7.57035e-19)
(1329.83 -345.313 0)
(1456.34 -264.598 0)
(1510.34 -173.254 1.10682e-18)
(1501.17 -84.0126 0)
(1438.82 -3.40261 0)
(1334.37 63.5961 -1.60385e-18)
(1199.35 111.456 0)
(1044.07 141.809 -1.61274e-18)
(877.329 164.114 -3.05039e-18)
(703.61 179.898 0)
(526.576 186.295 0)
(352.67 180.819 0)
(188.047 160.051 0)
(32.6033 128.462 0)
(-109.285 102.612 -7.81557e-19)
(-244.549 90.5597 -3.10248e-19)
(-338.672 77.061 1.47968e-19)
(-428.281 67.8331 0)
(-510.312 61.1546 -9.9073e-19)
(-584.845 55.3848 0)
(-653.326 50.3447 1.6921e-18)
(-715.616 46.0841 1.98835e-18)
(-772.124 41.7697 0)
(-822.654 37.4058 0)
(-867.009 32.8884 0)
(-904.775 28.1278 2.76623e-18)
(-935.443 23.1059 0)
(-958.476 17.7879 0)
(-973.34 12.1958 0)
(-979.636 6.42547 0)
(-977.271 0.647445 0)
(-966.582 -4.97404 0)
(-948.331 -10.3276 0)
(-923.612 -15.3857 0)
(-893.97 -20.1528 -2.20267e-18)
(-860.768 -24.6174 0)
(-824.387 -28.9638 0)
(-789.811 -31.4229 1.77851e-18)
(-758.796 -32.5361 1.58135e-18)
(-725.319 -38.2894 0)
(-691.259 -45.262 -6.69619e-19)
(-656.959 -52.8245 5.96841e-19)
(-621.144 -58.7363 0)
(-582.955 -64.8517 -4.92508e-19)
(-540.966 -70.9684 0)
(-493.933 -75.7651 0)
(-440.633 -76.7548 4.2598e-19)
(-379.614 -69.0717 0)
(-310.193 -46.6658 -4.17437e-19)
(-234.07 -4.56716 0)
(-155.545 55.5499 4.38073e-19)
(-76.4552 113.075 4.52254e-19)
(7.15421 129.761 4.4577e-19)
(56.7863 65.5697 8.69669e-19)
(66.6654 -27.4081 -4.21325e-19)
(52.0186 -75.0646 0)
(34.3768 -52.0021 0)
(37.1482 -3.71487 0)
(75.8577 11.7323 2.57386e-19)
(158.351 -21.9369 5.5759e-19)
(282.947 -79.5627 -1.41629e-18)
(418.532 -120.276 0)
(485.6 -109.232 3.84698e-18)
(376.926 -28.5394 2.47108e-18)
(57.1056 93.4504 6.78727e-18)
(-466.801 111.953 0)
(-994.263 95.4795 0)
(-1236.05 63.0987 0)
(-1082.52 85.9542 1.6199e-18)
(-688.992 126.925 0)
(-359.508 76.8838 0)
(-209.961 -62.1296 -2.69437e-18)
(-61.4496 -122.171 0)
(206.004 -37.5824 0)
(613.837 -22.6185 -1.95233e-18)
(1248.18 -213.082 0)
(2053.22 -438.281 0)
(2805.91 -495.232 8.75395e-18)
(3428.31 -370.636 1.32933e-17)
(3685.16 -256.622 0)
(3602.81 -75.3398 -1.31588e-17)
(3399.53 62.4922 0)
(3026.47 161.809 1.20871e-17)
(2533.16 234.883 0)
(1960.93 284.629 7.55766e-18)
(1343.61 306.592 3.98486e-18)
(714.454 305.629 0)
(89.4647 291.999 0)
(-517.964 243.232 0)
(-925.941 174.352 0)
(-1318.34 148.583 0)
(-1651.49 127.433 0)
(-1942.96 108.792 0)
(-2194.36 89.9676 -1.63807e-17)
(-2406.6 72.5072 1.72093e-17)
(-2576.52 52.027 0)
(-2696.12 26.7219 0)
(-2748.81 0.436223 0)
(-2741.58 -27.9298 0)
(-2659.48 -51.2303 1.77466e-17)
(-2491.93 -91.2045 0)
(-2236.93 -128.444 -7.56703e-18)
(-1897.72 -155.876 3.68957e-18)
(-1492.99 -175.452 0)
(-1036.87 -186.135 0)
(-547.142 -188.419 0)
(-54.608 -211.086 9.55579e-19)
(539.384 -229.057 -6.1922e-20)
(1118.67 -138.631 0)
(1434.97 5.35517 -1.55716e-18)
(1517.85 115.929 -2.03115e-18)
(1426.84 156.181 2.74416e-18)
(1240.23 140.489 0)
(1028.79 100.297 0)
(836.099 60.3808 4.74538e-18)
(678.231 32.3934 0)
(553.719 17.1662 0)
(453.947 10.2469 0)
(370.785 7.02237 0)
(299.487 5.05108 -5.02857e-18)
(237.97 3.71538 -4.89154e-18)
(185.237 3.04557 0)
(140.448 2.90429 -4.5451e-18)
(102.759 2.92245 0)
(71.485 2.7583 0)
(46.1754 2.28236 -3.96439e-18)
(26.5459 1.58622 0)
(12.1815 0.853916 -3.5738e-18)
(2.4289 0.237367 0)
(-3.59193 -0.203474 0)
(-6.85121 -0.464789 -3.02843e-18)
(-8.2664 -0.577577 0)
(-8.59425 -0.59406 -2.72694e-18)
(-8.34519 -0.567154 0)
(-7.80193 -0.510366 0)
(-7.15037 -0.427402 0)
(-6.53408 -0.345245 2.2877e-18)
(-6.03137 -0.278602 0)
(-5.66099 -0.227963 -2.13383e-18)
(-5.40383 -0.192679 0)
(-5.21688 -0.172464 0)
(-5.04989 -0.16751 0)
(-4.84279 -0.179192 0)
(-4.56019 -0.212031 0)
(-4.10585 -0.248941 0)
(-3.53564 -0.330934 0)
(-2.51475 -0.32633 3.57119e-18)
(-1.77754 -0.508552 0)
(0.62363 -0.293772 0)
(4.42446 -181.349 2.30163e-18)
(59.0973 -311.982 -2.07135e-18)
(169.09 -327.495 0)
(288.852 -305.713 1.18133e-18)
(400.389 -254.808 0)
(492.106 -172.198 5.34405e-19)
(556.515 -66.862 -1.29656e-18)
(586.856 46.9943 -1.40453e-18)
(579.668 156.942 0)
(536.776 256.462 -1.57048e-18)
(461.242 348.16 -7.46876e-19)
(354.849 434.884 0)
(225.409 503.658 0)
(91.2966 522.834 0)
(-21.8812 460.707 0)
(-96.0236 311.811 -2.50147e-19)
(-114.712 104.87 0)
(-101.296 -109.133 -8.84222e-19)
(-51.1954 -273.676 0)
(47.3898 -335.443 0)
(171.219 -280.359 4.72524e-19)
(261.181 -150.739 0)
(279.731 53.6922 1.94614e-19)
(363.603 244.422 2.66715e-20)
(659.205 -18.1944 -3.26745e-20)
(1044.73 -701.395 1.17983e-19)
(1450.18 -935.622 5.74622e-19)
(1690.06 -807.667 0)
(1791.21 -695.864 0)
(1811.68 -546.641 -1.18114e-19)
(1751.44 -369.791 9.10609e-19)
(1626.82 -187.299 0)
(1454.34 -16.842 0)
(1250.83 130.015 -1.01156e-18)
(1033.17 245.453 0)
(815.98 326.842 0)
(610.879 375.322 1.58656e-18)
(425.183 395.847 0)
(262.069 397.067 -1.5749e-18)
(123.095 387.662 3.18393e-18)
(8.65607 372.058 0)
(-84.2048 350.672 0)
(-161.472 325.401 4.31672e-18)
(-224.142 297.048 3.18911e-18)
(-274.884 264.169 2.14433e-18)
(-330.185 234.455 -1.7687e-20)
(-383.102 214.319 2.9312e-19)
(-463.87 193.523 -7.20578e-19)
(-538.756 175.831 1.31454e-18)
(-610.556 160.463 9.85826e-19)
(-678.625 146.359 0)
(-742.152 133.017 -1.6566e-18)
(-800.226 119.507 1.94598e-18)
(-851.634 106.316 0)
(-896.917 93.1373 0)
(-935.535 79.5857 0)
(-967.135 65.3574 -2.70762e-18)
(-991.336 50.3307 0)
(-1007.77 34.493 5.72649e-18)
(-1015.9 17.9914 0)
(-1015.23 1.26187 5.66033e-18)
(-1005.62 -14.9307 0)
(-987.467 -29.7158 -5.27669e-18)
(-961.611 -42.2547 0)
(-929.322 -51.8745 4.68834e-18)
(-892.311 -58.1219 -2.18813e-18)
(-852.454 -60.7097 0)
(-811.428 -59.335 -3.65988e-18)
(-770.175 -54.5318 -1.70963e-18)
(-730.367 -50.9924 -1.58199e-18)
(-692.723 -47.4854 0)
(-659.152 -42.6777 -6.62489e-19)
(-634.424 -38.0631 -6.0077e-19)
(-617.839 -35.414 0)
(-608.37 -35.5499 4.82545e-19)
(-608.69 -37.8606 -8.76837e-19)
(-619.094 -42.3609 0)
(-639.555 -52.218 -3.53067e-19)
(-669.648 -70.4116 0)
(-706.398 -100.855 8.3698e-19)
(-739.136 -148.902 0)
(-744.815 -215.337 -7.07369e-19)
(-690.817 -277.753 -3.19566e-19)
(-555.703 -274.274 2.0751e-19)
(-306.96 -165.33 3.00208e-19)
(-4.26052 5.79213 5.88552e-20)
(241.963 110.473 0)
(375.089 83.9182 0)
(410.438 -26.9462 0)
(440.822 -135.179 -6.61897e-20)
(559.974 -193.858 -4.17443e-19)
(775.479 -193.165 1.25764e-18)
(988.444 -108.704 0)
(1048.82 99.8019 8.90117e-19)
(830.007 411.884 -2.13998e-18)
(267.866 713.03 -6.49516e-18)
(-438.28 877.575 0)
(-1187.53 686.665 0)
(-1919.47 116.451 0)
(-2221.76 -555.487 -1.86945e-18)
(-1755.48 -844.282 0)
(-749.492 -569.723 6.15865e-18)
(139.516 -198.228 7.37864e-18)
(677.599 -224.944 -3.65099e-18)
(1390.17 -582.494 0)
(2606.6 -965.68 -1.88464e-18)
(3851.77 -1183.2 0)
(4625.99 -1072.47 -9.73586e-18)
(4769.59 -669.866 1.07959e-17)
(4479.04 -215.124 1.3241e-17)
(3884.33 87.3105 0)
(3140.24 378.943 3.88007e-17)
(2400.68 557.839 -2.5561e-17)
(1709.07 653.258 -1.16413e-17)
(1093.45 695.001 0)
(563.438 703.087 -7.62262e-18)
(114.678 686.828 -1.39162e-17)
(-262.181 656.382 0)
(-562.797 614.719 2.31506e-18)
(-814.637 539.997 8.37953e-18)
(-1189.03 457.027 1.5947e-17)
(-1510.14 399.699 0)
(-1810.12 347.314 0)
(-2074.57 299.178 0)
(-2307.87 252.778 -1.62161e-17)
(-2509.8 207.708 -1.69334e-17)
(-2674.09 157.94 0)
(-2796.84 99.7384 -3.33847e-17)
(-2866.55 32.8627 -3.24129e-17)
(-2873.05 -40.7698 0)
(-2797.21 -127.596 -1.73706e-17)
(-2644.24 -210.814 -2.54744e-17)
(-2415.25 -292.512 7.47363e-18)
(-2122.49 -362.229 4.62073e-18)
(-1780.38 -416.139 0)
(-1406.11 -453.184 0)
(-1014.81 -473.648 0)
(-600.68 -494.208 -1.08402e-18)
(-276.303 -510.912 2.36882e-18)
(17.2562 -450.1 4.42205e-19)
(479.181 -309.347 7.89678e-19)
(963.927 -138.515 -2.12972e-18)
(1360.08 12.5794 -2.47564e-18)
(1604.33 115.482 0)
(1680.14 164.266 0)
(1611.98 170.576 4.99615e-18)
(1448.55 153.179 0)
(1242.99 128.472 0)
(1036.59 105.946 -1.03605e-17)
(851.798 88.5104 0)
(694.796 75.2315 -5.00725e-18)
(562.652 64.1668 4.81287e-18)
(450.074 54.0662 0)
(353.05 44.6848 -4.46804e-18)
(269.607 36.2284 0)
(199.113 28.8123 0)
(141.351 22.3375 3.8745e-18)
(95.7838 16.6808 -7.34671e-18)
(61.3541 11.8276 3.48437e-18)
(36.4782 7.8425 0)
(19.2485 4.78729 0)
(7.72081 2.63101 -2.93184e-18)
(0.179245 1.23885 0)
(-4.72564 0.438255 -2.63727e-18)
(-7.93726 0.0293537 0)
(-10.2067 -0.189409 0)
(-11.8219 -0.292912 0)
(-13.0562 -0.290264 -2.21929e-18)
(-14.1089 -0.224006 0)
(-15.0846 -0.142207 2.06924e-18)
(-16.0219 -0.0769705 0)
(-16.9205 -0.0431913 0)
(-17.7685 -0.0442968 -3.79901e-18)
(-18.5515 -0.0786705 3.71142e-18)
(-19.2605 -0.151689 0)
(-19.8694 -0.247732 0)
(-20.3362 -0.416665 0)
(-20.6288 -0.512915 -1.0362e-17)
(-20.5741 -0.849039 0)
(-20.0604 -0.488614 6.73749e-18)
(-51.5621 -160.503 4.96974e-19)
(-43.4432 -440.452 3.32918e-18)
(67.1444 -585.808 0)
(229.567 -605.566 -2.72312e-18)
(386.913 -531.418 0)
(509.913 -392.538 0)
(594.011 -215.16 -6.02386e-19)
(642.503 -22.8971 1.33398e-18)
(659.133 163.458 2.03025e-18)
(646.259 333.723 1.51011e-18)
(601.713 490.947 0)
(528.998 630.314 0)
(449.109 715.087 -1.35416e-18)
(398.014 694.269 -1.51261e-18)
(401.036 547.419 8.76637e-20)
(456.51 300.438 0)
(548.909 17.5085 -2.78519e-18)
(659.5 -242.819 1.29945e-18)
(733.724 -434.387 0)
(753.418 -498.675 -5.37269e-18)
(756.51 -356.386 -8.16647e-19)
(806.401 -90.1688 4.98211e-19)
(1011.93 -78.4869 1.73538e-19)
(1511.94 -685.673 0)
(1922.95 -1136.95 2.90076e-19)
(2018.62 -1145.74 -4.51155e-19)
(1980.48 -959.508 0)
(1841.2 -719.297 -2.36399e-18)
(1637.67 -472.081 0)
(1389.43 -223.999 -3.82839e-18)
(1124.69 10.8707 -1.39973e-18)
(869.004 214.947 0)
(641.709 375.893 0)
(454.81 489.62 0)
(312.27 557.871 0)
(211.133 586.899 0)
(143.258 585.582 0)
(97.6237 563.716 -6.39687e-18)
(63.4387 530.243 9.46723e-18)
(32.0345 492.371 0)
(-3.04575 455.29 0)
(-44.5922 422.146 0)
(-95.0945 395.325 1.91206e-19)
(-160.329 375.945 -3.23163e-18)
(-236.426 360.809 -4.30444e-18)
(-312.13 342.55 1.6648e-18)
(-388.302 321.191 1.232e-19)
(-465.68 301.89 6.49562e-19)
(-540.743 281.622 5.15496e-20)
(-613.989 260.927 2.13723e-18)
(-684.784 239.96 0)
(-752.11 218.329 3.34296e-18)
(-816.269 195.833 -2.184e-20)
(-875.997 173.004 0)
(-929.263 149.682 0)
(-975.175 125.659 -5.13305e-18)
(-1012.37 100.443 0)
(-1039.84 74.9815 0)
(-1056.96 48.3946 5.88589e-18)
(-1063.23 20.5955 1.16273e-17)
(-1058.39 -7.92924 -5.59759e-18)
(-1042.82 -35.8252 0)
(-1017.49 -61.5405 5.22711e-18)
(-983.957 -84.0169 0)
(-944.015 -102.011 4.88979e-18)
(-899.421 -114.657 4.31522e-18)
(-852.314 -121.769 -8.0879e-18)
(-804.651 -123.878 -3.49583e-18)
(-757.263 -121.977 0)
(-711.626 -116.992 6.08325e-18)
(-667.524 -109.163 0)
(-625.322 -99.662 4.03444e-18)
(-585.719 -87.5594 2.38331e-18)
(-548.351 -75.291 2.13469e-18)
(-515.941 -61.835 -1.96556e-18)
(-491.501 -48.1393 2.78732e-18)
(-474.697 -35.143 0)
(-465.222 -22.4374 0)
(-464.702 -8.17749 -1.4447e-18)
(-474.47 3.48557 -1.98498e-18)
(-500.939 2.88394 0)
(-555.398 -27.6491 4.74739e-19)
(-647.691 -111.11 0)
(-769.768 -261.9 -7.96679e-19)
(-875.689 -440.575 -4.65602e-19)
(-858.203 -546.796 -4.83853e-19)
(-620.484 -477.033 8.04097e-19)
(-237.337 -273.12 0)
(147.226 -100.333 -4.32467e-19)
(416.172 -115.386 3.85568e-19)
(555.553 -289.189 0)
(652.121 -418.624 0)
(758.164 -318.126 0)
(824.046 54.6973 -4.60581e-18)
(780.356 619.475 0)
(620.777 1211.53 0)
(261.516 1628.78 0)
(-190.301 1549.91 0)
(-810.875 907.33 0)
(-1509.44 -254.845 -4.47981e-19)
(-1732.4 -1332.21 0)
(-1054.82 -1622.54 -5.06327e-18)
(261.08 -1306.07 -5.64621e-18)
(1691.01 -1309.24 3.57943e-18)
(3124.46 -1803.03 0)
(4413.67 -2079.23 3.5947e-18)
(4954.2 -1717.57 0)
(4618.17 -946.742 1.62339e-17)
(3907.33 -196.201 -2.17428e-17)
(3096.54 388.773 -7.75327e-17)
(2353.88 746.674 0)
(1760.37 953.837 -7.74937e-17)
(1329.93 1038.03 -2.41481e-17)
(1013.1 1049.95 0)
(750.31 1025.79 -3.87409e-17)
(490.532 987.192 -3.06298e-17)
(202.929 942.788 3.13508e-17)
(-124.644 892.837 0)
(-485.709 834.086 -2.02083e-18)
(-847.538 773.334 -8.67304e-18)
(-1188.31 713.966 -4.73109e-17)
(-1493.11 633.698 0)
(-1764.38 554.64 0)
(-2004.17 481.034 0)
(-2219.8 413.205 -3.21954e-17)
(-2413.21 343.413 0)
(-2579.9 266.817 0)
(-2713.66 177.735 3.31326e-17)
(-2802.26 70.6148 3.17574e-17)
(-2822.74 -73.9928 0)
(-2753.74 -217.483 0)
(-2599.82 -358.527 2.5424e-17)
(-2360.33 -485.003 0)
(-2051.09 -585.946 -8.85786e-18)
(-1696.25 -656.95 -4.5787e-18)
(-1323 -699.792 0)
(-955.408 -720.437 0)
(-612.236 -714.549 -1.33094e-18)
(-293.852 -674.608 -1.00156e-18)
(-17.2614 -617.658 1.50948e-20)
(211.009 -533.59 0)
(489.946 -406.487 5.77411e-18)
(821.887 -243.232 0)
(1154.84 -74.0129 0)
(1418.23 72.6903 0)
(1561.02 177.698 -9.48589e-18)
(1569.36 234.605 0)
(1465.89 248.815 2.14364e-17)
(1294.65 233.441 1.02923e-17)
(1101.52 203.623 0)
(919.693 171.506 9.87262e-18)
(764.669 143.77 0)
(637.344 121.93 0)
(531.102 104.409 2.65386e-17)
(438.632 88.9232 -1.68959e-17)
(355.799 73.9954 0)
(282.057 59.3435 -1.52769e-17)
(218.709 45.4953 7.26595e-18)
(166.875 33.2091 0)
(126.386 23.0661 0)
(95.8031 15.2917 0)
(73.0717 9.75656 1.73307e-17)
(56.1878 6.07947 0)
(43.5351 3.76909 5.2057e-18)
(34.0389 2.34856 0)
(26.7643 1.52473 0)
(20.7971 1.11087 0)
(15.6561 0.921593 0)
(11.0246 0.849439 0)
(6.74496 0.82333 0)
(2.77557 0.797006 7.85993e-18)
(-0.867985 0.749798 0)
(-4.16873 0.677863 3.73084e-18)
(-7.13746 0.585554 -1.09185e-17)
(-9.82637 0.466007 0)
(-12.3049 0.320746 0)
(-14.6314 0.0939172 6.86127e-18)
(-16.9201 -0.103855 6.77025e-18)
(-18.8835 -0.585434 -6.65638e-18)
(-21.3248 -0.330818 -6.59652e-18)
(-52.4497 -3.51758 -7.71982e-18)
(46.4875 -582.645 -6.83317e-18)
(227.599 -946.046 -4.73524e-18)
(392.135 -1003.48 -3.29604e-18)
(506.947 -860.629 0)
(579.519 -624.62 5.31301e-18)
(627.053 -360.913 -3.90784e-18)
(664.518 -103.863 0)
(698.929 133.2 -1.97643e-18)
(724.594 358.994 0)
(733.082 575.836 5.77653e-18)
(739.416 739.878 0)
(780.497 773.022 1.11956e-18)
(879.952 630.863 7.62015e-19)
(1032.72 358.425 9.53323e-19)
(1207.69 14.6773 0)
(1341.51 -299.462 3.94773e-18)
(1393.63 -437.036 0)
(1393.69 -435.279 0)
(1397 -390.995 6.68549e-18)
(1445.03 -378.504 0)
(1719.59 -637.569 1.45717e-18)
(2071.77 -1035.67 0)
(2228.57 -1242 0)
(2130.05 -1113.61 -1.77405e-18)
(1876.94 -830.539 6.97958e-19)
(1570.14 -526.73 3.40607e-18)
(1249.15 -232.086 2.75258e-18)
(944.244 34.7862 0)
(675.992 257.838 9.61218e-18)
(462.324 427.967 0)
(310.461 542.033 6.07433e-18)
(217.528 605.197 0)
(172.23 628.769 0)
(158.54 626.272 -6.58582e-18)
(159.666 610.17 0)
(161.468 589.688 6.53255e-18)
(154.277 570.232 -2.1303e-20)
(133.357 554.007 -1.21735e-17)
(98.3415 540.974 1.13973e-17)
(50.8339 529.831 0)
(-6.99122 518.879 0)
(-70.9273 505.364 3.58004e-18)
(-136.855 488.196 0)
(-203.963 470.144 2.22638e-18)
(-266.877 451.066 -9.25638e-19)
(-328.46 429.828 2.4187e-20)
(-389.973 408.468 0)
(-451.561 386.628 -1.59092e-18)
(-513.765 364.01 -2.27949e-18)
(-577.476 340.295 5.60462e-18)
(-643.618 315.247 -3.46831e-18)
(-712.698 288.456 -3.97002e-18)
(-784.611 258.541 0)
(-857.723 225.401 0)
(-928.759 188.902 5.11497e-18)
(-995.017 149.565 0)
(-1051.8 107.833 0)
(-1093.59 64.3112 -1.13939e-17)
(-1117.92 19.7176 -1.14808e-17)
(-1122.95 -24.7287 0)
(-1108.9 -66.9113 0)
(-1077.43 -104.93 0)
(-1032.5 -135.766 0)
(-979.156 -159.442 -9.50824e-18)
(-921.756 -174.948 9.15527e-18)
(-863.532 -181.73 8.08042e-18)
(-807.337 -181.436 1.44176e-17)
(-754.903 -176.27 0)
(-705.874 -167.93 -2.68412e-19)
(-661.239 -157.47 0)
(-621.134 -146.328 -2.71399e-18)
(-583.203 -134.421 4.16136e-20)
(-547.312 -121.228 -2.09816e-18)
(-512.898 -105.481 1.89328e-18)
(-479.034 -87.8516 -2.34268e-20)
(-446.379 -70.3677 0)
(-419.502 -55.3724 1.56886e-18)
(-397.726 -45.3321 1.52738e-18)
(-377.305 -36.8122 2.86861e-18)
(-358.134 -29.3536 0)
(-346.411 -26.0424 -1.161e-18)
(-357.666 -33.4562 0)
(-414.389 -64.5142 1.30669e-18)
(-537.14 -143.834 -1.07689e-19)
(-726.774 -299.25 4.33854e-19)
(-939.557 -511.323 -6.19645e-19)
(-1021.69 -666.216 -7.41283e-19)
(-867.222 -662.537 -7.27884e-19)
(-557.325 -553.117 8.57505e-19)
(-240.712 -458.406 0)
(-36.4725 -416.768 -3.4938e-18)
(53.7148 -304.678 0)
(93.4962 23.9225 -7.02423e-18)
(135.803 572.362 4.58146e-19)
(313.972 1177.7 -1.85911e-17)
(597.173 1603.09 1.56009e-17)
(810.046 1828.2 9.32175e-18)
(734.573 1549.8 0)
(154.7 378.94 7.94086e-19)
(-495.056 -1370.99 0)
(-249.515 -2494.3 0)
(1118.57 -2654.06 -2.25339e-17)
(2898.61 -2771.03 0)
(4311.09 -2943.34 0)
(4807.09 -2471.34 -2.04827e-17)
(4231.9 -1349.25 0)
(3330.57 -276.789 0)
(2489.07 512.606 0)
(1883.6 974.943 1.01444e-16)
(1529.29 1171.38 0)
(1342.37 1224.07 1.02084e-16)
(1218.91 1219.38 4.92899e-17)
(1074.43 1209.35 4.45723e-17)
(865.274 1210.45 3.44136e-19)
(583.429 1216.79 3.07333e-17)
(246.66 1213.64 -4.37324e-17)
(-114.432 1185.9 -1.05601e-17)
(-472.157 1127.97 0)
(-802.265 1045.46 1.88513e-17)
(-1094.8 945.125 6.3516e-17)
(-1353.01 836.619 0)
(-1581.95 731.898 0)
(-1789.29 637.564 0)
(-1983.65 553.712 -1.68299e-19)
(-2170.97 470.42 0)
(-2352.58 378.391 0)
(-2517.6 264.782 0)
(-2657.98 125.635 0)
(-2729.98 -91.3026 -1.04825e-16)
(-2704.44 -291.401 0)
(-2589.99 -497.749 5.95513e-17)
(-2369.27 -683.748 0)
(-2051.48 -827.93 2.6023e-17)
(-1659.9 -919.364 5.2208e-18)
(-1230.64 -958.873 -6.03663e-18)
(-807.865 -956.141 1.52506e-18)
(-431.642 -922.395 7.94578e-19)
(-118.925 -864.271 -1.00299e-18)