/*--------------------------------*- C++ -*----------------------------------*\
| =========                 |                                                 |
| \\      /  F ield         | OpenFOAM: The Open Source CFD Toolbox           |
|  \\    /   O peration     | Version:  2112                                  |
|   \\  /    A nd           | Website:  www.openfoam.com                      |
|    \\/     M anipulation  |                                                 |
\*---------------------------------------------------------------------------*/
FoamFile
{
    version     2.0;
    format      ascii;
    arch        "LSB;label=32;scalar=64";
    class       volScalarField;
    location    "0.29";
    object      nut;
}
// * * * * * * * * * * * * * * * * * * * * * * * * * * * * * * * * * * * * * //

dimensions      [0 2 -1 0 0 0 0];

internalField   nonuniform List<scalar> 
122250
(
0.000218269
0.000145446
1.11728e-05
0
0
0.000183278
0
0
4.45548e-05
4.43827e-05
2.85516e-05
2.07382e-05
1.32522e-05
1.47647e-05
2.05029e-05
2.59335e-05
1.15559e-05
3.19975e-05
0.000557762
0.000401965
1.68894e-05
0
0
0
0
0
0
3.64897e-05
2.74761e-05
1.96314e-05
6.78637e-06
0
0
1.14793e-06
1.06885e-05
3.94979e-05
0.0026926
0
0
0
0
0
0
0
0
4.92459e-05
9.00073e-05
5.28285e-05
0
0
0
3.20746e-05
5.11147e-05
6.85119e-05
0.00391433
0
0
0
0
0
0
0
0
0
4.5356e-05
0
0
0
0
4.99271e-05
9.08913e-05
7.60665e-05
0.00471126
0
0
0
0
0
0
0
0
0
0
0
0
0
4.21206e-05
0.000101738
0.000145869
8.35645e-05
0.00574798
0
0
0
0
0
0
0
0
1.55531e-05
0
0
0
0
3.30997e-05
6.40715e-05
9.57643e-05
5.11197e-05
0.00672886
0
0
0
0
0
0
0
3.80696e-05
7.33866e-05
0
0
0
0
1.10759e-05
4.33776e-05
5.4419e-05
2.35199e-05
0.00742436
0
2.09244e-05
0
0
0
0
0
0.00011723
0.000115189
4.70553e-07
0
9.9584e-06
0
0
4.56971e-05
6.7388e-05
2.80868e-05
0.00775615
0
0
0
0
0
5.02601e-05
0.000141151
0.000174435
0.000132307
3.86961e-05
2.97052e-06
2.69163e-05
4.89103e-05
0
3.74397e-05
3.81803e-05
4.29787e-05
0.00797154
0
0
0
0
0
0.000413722
0.000263739
0.000192279
0.000114555
4.84018e-05
7.06596e-05
8.27067e-05
9.14369e-05
4.12932e-05
0
6.51603e-05
9.98187e-05
0.00876235
0
0
0.00016033
6.69357e-05
0.000639641
0.000631456
0.000338587
0.000169662
9.942e-05
3.5905e-05
8.2662e-05
0.000110997
0.000112143
7.14604e-05
3.6786e-05
0.000148538
0.000152583
0.0102477
0
0
0.000346186
0.000502373
0.000853957
0.000692552
0.000327105
0.000158923
0.000101811
0
0
7.91751e-05
9.38044e-05
9.97793e-05
0.000181012
0.000172081
0.000166867
0.0121566
0
0
0.000351636
0.00069357
0.000914633
0.000729779
0.000331276
0.000148207
0
0
0
5.84096e-05
0.000121238
0.000183738
0.000277469
0.000198815
0.000163745
0.011375
0
0
0
0.000834458
0.000788367
0.00061182
0.000303794
0.000102319
0
0
0
0.000113437
0.000139033
0.000165677
0.000216787
0.000141003
5.28204e-05
0.00974824
0
0
0
0.00101778
0.000631862
0.000532035
0.000205046
7.77946e-05
0
7.22592e-05
9.75128e-05
0.00019577
0.000176411
0.000101654
0.000117104
3.14405e-05
0
0.00938622
0
0
0
0.000642928
0.00040302
0.000367901
0.000132167
8.64613e-06
0
0.000148137
0.000118292
0.000112905
0
0
0
0
0
0.0119291
0
0
0
1.45175e-06
0
0.000118484
6.09152e-05
8.94357e-05
0.00025149
0.000220808
0.000153414
0.000164409
0
0
0
0
3.62284e-05
0.0138827
0
0.00114854
0.000675784
0.000153678
0
7.95113e-05
0.000106869
0.000117591
0.000317005
0.000245304
0.000139066
0.000122373
9.69729e-05
1.78729e-05
3.24898e-05
3.66456e-05
3.57388e-05
0.0103087
0
0
0
0.000241159
0.00032116
0.000342774
0.000104556
0.000208448
0.000261226
0.000250726
0.000186062
0.000148677
0.000111624
6.90432e-05
4.82327e-06
0
0
0.0124283
0
0
0
0.000518898
0.000716144
0.000648844
0.00026971
0.000120609
0
3.29772e-05
0.000165846
0.000229363
0.000198131
0.000149523
9.9613e-05
6.15833e-05
2.09358e-05
0.0139853
0
0
0
0.000595312
0.00133175
0.00128359
0.000673708
0.000348878
6.97424e-05
0
0
9.73545e-05
0.000103747
7.75515e-05
5.97887e-05
5.10278e-05
3.78674e-05
0.0115067
0
0
0
0.000285433
0.00039724
0.00104651
0.000996745
0.000589182
0.000280429
4.01566e-05
0
9.53117e-05
8.73176e-05
6.57722e-05
5.93809e-05
7.43623e-05
0.000101118
0.00947392
0
0
0.000177879
0
0
0
0.000507069
0.000441049
0.000178312
0
3.64913e-05
0.000144253
0.000135259
0.000119783
0.000104539
8.80415e-05
7.32078e-05
0.00851567
0
0
0.000284978
0.000479752
0
0
0
0.000272408
9.93262e-05
0
4.4672e-05
0.000135082
0.000113979
0.00010488
0.000107506
0.000114149
0.000120024
0.00749498
0
0.000339518
0.000105883
0.000589381
0
0
0
9.85799e-05
6.22202e-05
6.83971e-05
0.000101142
0.000143496
0.000102192
5.65259e-05
6.00224e-05
8.84583e-05
0.000113462
0.00626619
0
0.000578825
0
0.000432105
0
0
0
8.18778e-06
5.12835e-05
0.000122585
7.91935e-05
0.000107197
0.000115622
6.761e-05
5.95492e-05
7.80216e-05
8.37696e-05
0.00537537
0.000941722
0.000960304
0
0
0
0
0
4.77326e-05
8.47977e-05
0.000133936
4.3601e-05
6.60312e-05
8.61482e-05
7.94449e-05
5.80205e-05
6.03697e-05
7.74717e-05
0.00451277
0.00192758
0.000736748
0
0
0
0
0
5.31967e-05
6.26667e-05
8.62971e-06
0
0
0
5.19326e-05
5.09284e-05
1.87909e-06
0
0.00130776
0.00146911
0.000108701
0
0
0
0
0
0
0
0
0
0
0
8.55786e-06
0
0
0
0.000441255
0.000353153
6.06437e-05
0
0
0
0
0
0
0
0
0
0
0
0
0
0
0
0.000246727
0.0001879
8.74898e-06
0
0.000141292
0.000768648
0.000567274
0
7.44547e-05
4.94794e-05
2.05124e-05
1.84598e-05
1.92892e-05
1.42223e-05
2.42341e-05
4.61178e-05
3.71178e-05
1.59264e-05
0.00076468
0.000791882
4.41704e-06
0
0
0
0
0
4.54195e-05
4.60215e-05
1.10986e-05
1.06831e-05
1.11592e-05
0
5.79256e-06
3.9146e-05
5.40387e-05
3.07177e-05
0.00302575
0.00104091
0
0
0
0
0
0
0
7.88224e-05
3.43388e-05
4.17559e-05
4.24532e-05
0
0
6.2177e-05
6.04547e-05
3.89075e-05
0.00389787
0.000168709
0
0
0
0
0
0
0
0.000116503
0.000147497
9.88416e-05
8.49169e-05
1.83918e-05
7.92102e-05
0.000133586
9.017e-05
4.18526e-05
0.00429818
0
0
0
0
0
0
0
0
0.000187488
0.00011804
5.11072e-05
1.76792e-05
0
9.35686e-05
0.00012658
0.000100888
5.79509e-05
0.0050043
0
0
0
0.000208528
0
0
0
0
0.000270087
0.000122322
5.22233e-05
2.81883e-05
0
6.88955e-05
7.59477e-05
5.07449e-05
7.68525e-05
0.00594302
0
0
0
0.000262444
0
0
0
0.000130171
0.000319928
0.000155918
2.87038e-05
7.38811e-05
0
3.55089e-05
4.08215e-05
1.21432e-05
6.19967e-05
0.00703927
0
0
0
4.75828e-05
0
0
0
0.000247231
0.000324786
0.000166949
0
3.45297e-05
1.48533e-05
0
4.11648e-05
5.76035e-05
2.49681e-05
0.00792567
0
0
0
0
0
0
0.000120884
0.000289429
0.000287559
0.000154112
0
0
1.08723e-05
0
3.19352e-05
3.10396e-05
4.01547e-05
0.00836781
0
0
0
0
0
0.00035991
0.000345485
0.000287207
0.000218638
0.000118455
4.74979e-05
4.94506e-05
5.79825e-05
0
0
2.05595e-05
0.000102221
0.00903576
0
0
0
0
0.000420582
0.000584195
0.00042452
0.000263398
0.000150052
8.92478e-05
7.99373e-05
0.000112756
9.99405e-05
5.49606e-05
0
0.000110725
0.000148342
0.01045
0
0
0
0.000311021
0.000726065
0.000637425
0.000432732
0.000218708
0.000112365
1.58951e-05
2.00392e-05
9.87417e-05
0.00010974
7.80115e-05
4.10854e-05
0.000132105
0.000150215
0.012566
0
0
4.68783e-05
0.000752571
0.00083064
0.0007432
0.000404878
0.000190774
4.30592e-05
0
0
3.21915e-05
8.8166e-05
0.00010844
0.000127646
0.000132217
0.000110996
0.0127865
0
0
0
0.000631003
0.000681041
0.000622464
0.000295152
5.23227e-05
0
0
0
0
4.67137e-05
7.68311e-05
0.000101407
5.30248e-05
4.00427e-05
0.0116077
0
0
0
0.000375822
0.000162394
0.000383389
0.000241602
9.64122e-05
0
0
0
0
0
0
0
2.27684e-06
3.41579e-05
0.0108608
0
0
0
0
0
0.000131294
0.00014755
2.65927e-05
0
5.99803e-05
0
0
0
0
0
0
0
0.0120111
0
0
0
0
0
0.000175076
0.000298823
0.00018444
0.000159624
0.00011557
5.95645e-05
0
0
0
0
1.7559e-05
6.62236e-05
0.0135701
0
0
0.000606086
0.000116817
0
0.000150974
0.000232438
0.000327954
0.000234589
0.000115277
8.53051e-05
6.05186e-05
0
0
5.08056e-07
1.9778e-05
1.33414e-05
0.0117693
0
0
0
0.000362123
0.000306802
0.000443765
0.000371694
0.000653937
0.000396945
0.000191488
0.000101177
8.11373e-05
4.3746e-05
0
0
0
0
0.0135457
0
0
0.00030327
0.000405753
0.000764132
0.000667831
0.000471171
0.000366144
0.000124284
0.000118571
0.000156577
0.000147251
0.000117643
9.03084e-05
6.50174e-05
4.92846e-05
3.96258e-05
0.014003
0
0
0.000315493
0.000718376
0.00116115
0.00105362
0.000571208
0.000278777
9.65751e-05
0
3.86937e-05
7.95268e-05
6.50368e-05
5.29122e-05
3.93243e-05
1.06505e-05
5.84879e-06
0.0115195
0
0
0
3.1016e-06
0.000718832
0.00108515
0.000943376
0.000551593
0.000256237
0
0
8.69616e-05
7.08798e-05
7.03666e-05
7.58993e-05
8.25444e-05
0.000102525
0.00957685
0
0
0
0.000284522
0
0.000294021
0.00059422
0.000368858
0.0001419
0
0.000104178
0.000186706
0.000156641
0.000148256
0.000140111
0.000130473
0.000117886
0.00864472
0
0
0
0.000712013
0.000270939
0
0.000117871
0.000173021
5.78663e-05
0
7.79593e-05
0.000175598
0.000183569
0.000164809
0.000152117
0.000158833
0.000171898
0.00746241
0
0.00012718
0
0.000429713
0
0
0
4.55109e-05
7.5324e-05
0.000104993
0.000100134
0.000110445
0.000118224
9.23484e-05
8.32241e-05
0.000110613
0.000152777
0.00621663
0.00324768
0
0
0
0
0
0
8.07695e-05
0.000101342
0.000131372
8.23578e-05
3.42334e-05
5.72832e-05
8.20516e-05
8.18789e-05
8.39479e-05
0.000107809
0.00554938
0.005438
0
0
0
0
0
0
0.000100438
0.00014757
0.000164794
4.75635e-05
3.56396e-06
4.23483e-05
7.81236e-05
9.26196e-05
8.98152e-05
0.000101854
0.00490555
0.00439511
0
0
0
0
0
0
3.31605e-05
5.88637e-05
1.85974e-05
0
0
0
3.88185e-05
5.62016e-05
4.09952e-05
4.2175e-05
0.00138776
0.0020106
9.63963e-05
0
0
0
0
0
0
0
0
0
0
7.41994e-06
2.24202e-05
4.33062e-06
0
0
0.000483684
0.000415243
6.87395e-05
0
0
0
0
0
0
0
0
0
0
0
2.21504e-05
0
0
0
0.00027199
0.000214498
1.74621e-05
0
0
0
0.000231848
0
2.68855e-05
3.14358e-05
1.77657e-05
2.73458e-05
3.66734e-05
7.16322e-06
2.3908e-07
2.51447e-05
4.92319e-05
3.99634e-05
0.000805047
0.00101005
0
0
0
0
0
0
0
6.52217e-06
9.68768e-07
1.05167e-05
1.63362e-05
0
0
1.67114e-05
6.93118e-05
8.69063e-05
0.00301947
0.00273968
0
0
0
0
0
0
0
0
0
2.31979e-06
1.73861e-05
0
0
3.6064e-05
0.000126012
0.000120478
0.0038908
0.00242177
0
0
0
0
0
0
0
7.59658e-05
3.33375e-05
0
0.000106767
7.23556e-05
9.87503e-05
8.16168e-05
0.000118114
0.000121043
0.00418711
0.00187444
0
0
0
0
0
0
8.29735e-05
0.000201775
0.000150743
0.000159394
0.000118977
2.66438e-05
5.0584e-05
3.95394e-05
8.79043e-05
0.000127507
0.00473677
0.000540678
0
0
0
0
0
0
0.000155987
0.000302408
0.000212992
0.000214034
0.000143134
1.71213e-05
5.45269e-06
7.47276e-07
7.435e-05
0.000143976
0.00556088
0
0
0
0
0
0
0
0.000279758
0.000374585
0.000223944
0.000165479
0.000132042
4.54362e-05
0
3.09252e-06
3.35607e-05
1.32355e-05
0.00666598
0
0
0
0
0
0
0
0.0003948
0.000399783
0.000227988
0.000104126
8.32407e-05
5.55699e-05
0
7.1301e-05
0
0
0.0078647
0
0
0
0
0
0
0.00016789
0.000411084
0.000379901
0.000225993
7.16795e-05
1.71585e-05
3.8121e-05
0
8.4058e-05
2.2009e-05
0
0.00878099
0
0
0
0
0
2.57828e-05
0.000323493
0.000328145
0.000299643
0.000175736
4.04297e-05
1.00487e-05
3.58148e-05
0
4.32472e-05
1.01276e-05
2.56737e-05
0.00965184
0
0
0
0
0.000123392
0.000447033
0.000338107
0.000278515
0.000176462
0.000101357
6.15793e-05
9.38037e-05
8.25204e-05
3.31809e-05
0
2.87601e-05
8.89615e-05
0.0109714
0
0
0
0.00029002
0.000610762
0.000507854
0.000369977
0.000200147
0.000102187
3.89876e-05
2.66342e-05
7.84546e-05
9.78583e-05
6.57362e-05
1.35929e-05
6.3942e-05
9.0584e-05
0.0127083
0
0
0.000285035
0.000591385
0.000698883
0.000608668
0.000327762
0.000136388
4.42954e-05
2.8322e-05
1.87054e-05
3.9532e-05
8.24528e-05
9.26654e-05
6.63333e-05
7.45715e-05
8.48838e-05
0.012851
0
0
0
0.000358355
0.000598248
0.000512041
0.000210783
5.00595e-05
0
0
4.35551e-05
1.66628e-05
2.83458e-05
5.34489e-05
6.55272e-05
7.11688e-05
9.15107e-05
0.0117224
0
0
0
0
0.000246838
0.000527008
0.000340103
0.000159992
1.29397e-05
0
7.636e-05
9.06215e-06
0
0
4.33549e-06
5.57318e-05
9.36455e-05
0.0104292
0
0
0
0
0
0.000532492
0.000412396
0.000149004
3.12808e-05
2.65259e-05
0
0
0
0
0
0
5.34934e-05
0.0105717
0
0
0
0
0
0.000855636
0.000570091
0.000244684
0.000133729
5.18357e-05
0
0
0
0
0
1.35012e-05
6.80423e-05
0.0112648
0
0
0
0.000892657
0.000867701
0.000994541
0.000748702
0.000413094
0.000193317
8.78138e-05
0
0
0
0
0
0
0
0.0112085
0
0
0.000215829
0.00136196
0.00139149
0.0013031
0.00151459
0.00126939
0.000584973
0.000199785
6.29644e-05
0
0
0
0
0
0
0.0128684
0
0
0.0012386
0.00127517
0.00139392
0.00106798
0.00102586
0.000645636
0.000270062
0.000112782
8.9302e-05
6.90679e-05
4.04761e-05
1.47886e-05
5.89047e-06
2.16848e-05
1.61299e-05
0.0137056
0
0
0.00150457
0.000753741
0.000769588
0.00065134
0.000309968
0.000169318
0.00012154
8.78914e-05
8.40069e-05
5.25249e-05
3.33212e-05
2.43579e-05
6.25924e-06
0
9.38672e-06
0.011465
0
0
0
0.000440938
0.000673074
0.00079735
0.000751585
0.000389154
0.000199846
6.78405e-05
5.97474e-05
3.89592e-05
4.17808e-05
5.78561e-05
6.22953e-05
5.45861e-05
3.87399e-05
0.00939945
0
0
0
0.000238715
0.000631312
0.00081261
0.000599352
0.000262596
8.99409e-05
0
0.000180159
0.000176292
0.000121724
9.90496e-05
8.22269e-05
7.17817e-05
5.86889e-05
0.00859827
0
0
0
0.000390534
0.000672668
0.00062646
0.000375774
0.000108036
5.37391e-05
5.3681e-05
7.97984e-05
0.000142976
0.000192144
0.000177873
0.000147133
0.000136197
0.00013613
0.00771981
0
0.000217112
0
0
0.000459764
0.000384394
0.000142433
0.000106116
0.000119536
0.000126166
0.000108024
0.000100558
0.000118065
0.000115555
8.879e-05
6.94144e-05
6.81649e-05
0.00674543
0.00214949
0.000222906
0
0
5.404e-05
0.00014119
5.81568e-05
0.000159662
0.000147387
0.000146165
0.000121101
8.3606e-05
4.2043e-05
3.50929e-05
5.12114e-05
5.83357e-05
5.21121e-05
0.00612476
0.00372615
0.00168512
0
0
0
0
0
0.000154691
0.000160897
0.000159533
9.58499e-05
4.54225e-05
2.7323e-05
5.01369e-05
7.4069e-05
7.47031e-05
6.88859e-05
0.00534713
0.00354806
0.00146043
0
0
0
0
0
7.52568e-06
0.000136995
0.000131033
4.85355e-05
2.24132e-05
3.14003e-05
5.65657e-05
6.68979e-05
4.36144e-05
2.37783e-05
0.00148109
0.00203987
0.000163079
0
0
0
0
0
0
2.95665e-05
6.77833e-05
1.60227e-05
2.42584e-05
3.32656e-05
2.85181e-05
6.33267e-06
0
0
0.000482485
0.000457366
9.63925e-05
0
0
0
0
0
0
3.87649e-05
3.53319e-05
0
1.8751e-07
3.51842e-05
4.36158e-05
1.01291e-05
0
0
0.000257731
0.000192283
3.23831e-05
0
0
0
0
0
0
0
1.401e-05
2.07487e-05
6.36901e-06
0
1.42269e-05
4.95144e-05
5.76422e-05
3.75518e-05
0.000771659
0.0007371
3.52991e-05
0
0
0
0
0
0
0
2.62596e-07
4.61075e-06
0
0
1.36501e-06
4.65215e-05
0.000108781
7.68574e-05
0.00300284
0.00060461
0
0
0
0
0
0
0
0
0
0
0
0
0
9.16947e-05
0.000185342
0.000120501
0.00396474
0
0
0
0
0
0
0
0.000170402
0.000115791
2.87737e-05
0
6.59043e-05
0
4.53957e-06
0.000143541
0.000192832
0.000131816
0.00448006
0
0
0
0
0
0
0
0.000222127
0.000188956
0.000101214
5.82678e-05
0.00010424
1.44121e-05
0
0.000103057
0.000164844
0.000125336
0.00525896
0
0
0
0
0
7.10112e-05
0
0.000240927
0.000233883
0.000137226
0.000108471
0.000109534
4.35209e-05
9.90643e-06
8.75952e-05
0.000121205
0.000106642
0.00618522
0
0
0
1.35852e-05
0
6.06807e-05
9.67131e-05
0.000316715
0.000290185
0.000158702
9.63323e-05
9.0734e-05
5.72419e-05
4.09299e-05
9.58989e-05
4.10275e-05
0
0.00719463
0
0
0
0
0
7.67514e-05
0.000227457
0.000376968
0.00032741
0.000176773
7.4229e-05
3.66579e-05
2.78387e-05
0
7.27163e-05
3.02803e-06
0
0.00800045
0
0
0
0
0
0.000182433
0.000285758
0.000360299
0.000307812
0.000171156
6.82811e-05
0
0
0
6.40727e-05
4.03339e-05
0
0.00850419
0
0
0
0
0.000226183
0.000415402
0.000262543
0.000282628
0.000221479
0.000110159
2.09582e-05
4.0018e-06
0
0
5.83217e-05
6.4038e-05
7.85658e-06
0.0093284
0
0
0
0.000155974
0.000578146
0.000432912
0.000286452
0.000207365
0.000116797
5.47503e-05
4.16119e-05
8.45377e-05
2.34152e-05
0
2.29762e-05
6.12562e-05
3.8033e-05
0.0108012
0
0
0.000305334
0.000572041
0.000558682
0.000502186
0.000288631
0.000129134
6.30857e-05
3.97209e-05
2.8052e-05
7.93312e-05
0.000104376
3.68925e-05
0
4.58613e-05
5.71614e-05
0.0127273
0
0
0.000509464
0.000578356
0.000649894
0.000559988
0.000252019
6.1885e-05
1.03027e-05
4.0941e-05
4.59345e-05
5.11795e-05
6.52158e-05
8.49585e-05
4.85891e-05
4.56128e-05
7.1551e-05
0.0130139
0
0
0.000960509
0.00067252
0.000751528
0.00057348
0.000228265
5.62224e-05
0
9.82319e-06
7.38339e-05
6.14442e-05
2.66346e-05
4.26901e-05
8.06382e-05
7.24305e-05
7.30808e-05
0.0116852
0
0
0.000445362
0.000763226
0.000873373
0.000786725
0.000483995
0.000211851
8.94586e-05
7.85422e-06
6.28478e-05
5.77159e-05
2.60252e-05
3.87867e-05
5.11136e-05
8.34765e-05
6.57848e-05
0.0101757
0
0
0
0.00029816
0.000714814
0.00099441
0.000632271
0.00026633
0.000155786
6.44632e-05
3.85983e-05
0
0
0
4.92456e-05
7.15758e-05
7.49772e-05
0.0100582
0
0
0
0
0.000724774
0.00108817
0.000665044
0.0002564
0.000142087
0
0
0
0
0
0
0
1.00299e-05
0.00953647
0
0
0
0
0.00087551
0.000897126
0.000652149
0.000346032
0.000174447
8.46387e-05
0
0
0
0
0
0
0
0.0110282
0
0
0
0.000503201
0.000394436
0.00110579
0.00152298
0.00115264
0.000488276
0.000170031
2.69738e-05
0
1.27975e-05
0
0
0
0
0.0123141
0
0
0.000718
0.00144038
0.00119788
0.0009767
0.000958377
0.000518492
0.000194279
5.13517e-05
0
0
1.39215e-06
1.09083e-05
2.58757e-05
3.26068e-05
0
0.0137731
0
0
0.00168789
0.000810917
0.000548116
0.000278127
0.000143333
0.000121528
0.00010249
8.47374e-05
2.62829e-05
0
0
0
0
0
1.44606e-05
0.0115078
0
0
0.000902466
0.000814131
0.000615453
0.000415673
0.000300439
0.000140009
9.78624e-05
6.56243e-05
1.58364e-05
0
3.17454e-05
6.71409e-05
6.44955e-05
3.0933e-05
0
0.0091532
0
0
0
0.000542617
0.000757483
0.000602936
0.000290163
8.65617e-05
2.42624e-05
3.18644e-05
9.55834e-05
0.000113797
7.94782e-05
5.64681e-05
5.21515e-05
5.09783e-05
2.90893e-05
0.00833645
0
0
0
0.000191566
0.000711728
0.000644538
0.000248996
7.57453e-05
6.63583e-05
5.62412e-05
5.87329e-05
0.000105275
0.000153596
0.000155926
0.000123223
0.000103085
9.17853e-05
0.00797263
0
0.000321475
0
0.000105584
0.000570598
0.000518029
0.000145953
0.000149177
0.000126899
9.74992e-05
7.33205e-05
5.84343e-05
7.86392e-05
9.44901e-05
8.78875e-05
8.2652e-05
8.3995e-05
0.00712979
0
0.000807918
0
4.92557e-05
0.000368081
0.000228648
8.94427e-05
0.000165065
0.000114913
0.000104468
8.8918e-05
7.44974e-05
5.09321e-05
3.43145e-05
3.34225e-05
4.15744e-05
5.50825e-05
0.00620349
9.39774e-05
0.00168199
0
4.29543e-05
0
0
5.86732e-06
0.000106809
8.71428e-05
0.000102784
8.16389e-05
6.44556e-05
5.11846e-05
4.71004e-05
4.65823e-05
5.1414e-05
6.11212e-05
0.00504468
0.00104877
0.00164935
0
0
0
0
0
5.22541e-05
0.000110708
0.00014556
8.89038e-05
7.00852e-05
7.20457e-05
7.09937e-05
5.1208e-05
3.09503e-05
2.05384e-05
0.00137943
0.00124154
0.00014574
0
0
0
0
0
0
0.000192804
0.000234284
9.10472e-05
4.343e-05
3.64811e-05
2.1732e-05
0
0
0
0.0004411
0.000367512
7.31448e-05
0
0
0
0
0
4.97946e-05
0.000172758
0.000124847
1.17514e-06
1.28443e-05
4.25536e-05
3.35347e-05
1.66599e-06
0
1.08061e-06
0.000236817
0.00019436
4.79975e-05
0
0
0
0
0
1.36417e-05
3.19968e-05
2.41889e-05
0
0
0
2.57018e-05
5.18063e-05
2.64382e-05
1.10856e-05
0.000554963
0.000401049
5.10447e-05
0
0
0
0
0
3.07278e-05
2.20226e-05
1.44856e-05
0
0
0
1.48981e-05
8.46689e-05
9.01537e-05
4.2994e-05
0.00286405
0
2.45564e-05
0
0
0
0
0
2.47888e-05
3.02277e-05
2.55564e-05
0
0
0
0
0.000145028
0.000182341
0.000112988
0.00442836
0
0
0
0
0
0
0
3.68521e-05
2.45452e-05
9.44249e-06
0
0
0
0
0.000188171
0.000200718
0.000154743
0.00535758
0
0
0
0
0
0.000109298
2.41731e-05
7.07188e-05
4.45769e-05
3.20491e-05
2.35301e-05
2.99813e-05
0
0
0.000149519
0.000140519
0.000128713
0.00643768
0
9.36161e-06
0
0
0
0.00015899
9.81615e-05
0.000103657
5.05017e-05
2.27053e-05
3.31083e-05
5.09027e-05
0
6.72105e-05
0.000120592
3.83998e-05
6.0176e-05
0.00732337
0
2.26226e-05
0
0
0
8.5157e-05
0.000167233
0.000168244
7.90284e-05
2.72191e-05
0
3.31289e-05
6.09435e-06
7.70343e-05
0.000113224
0
0
0.0078464
0
0
0
0
0
6.00419e-05
0.000216832
0.000229365
0.00012127
3.85609e-05
0
0
0
2.61063e-05
9.35999e-05
4.00429e-05
0
0.00809949
0
0
0
0
0
0.00026985
0.000216165
0.000234009
0.000129809
7.58408e-06
1.13759e-05
5.98074e-06
0
0
5.60475e-05
7.51548e-05
2.18797e-05
0.0084021
0
0
0
5.14874e-05
0.000554114
0.000434813
0.000188472
0.000171882
8.95876e-05
2.21201e-07
5.31696e-05
9.19079e-05
0
0
3.10972e-05
6.43572e-05
5.74867e-05
0.0093142
0
0
0.000807708
0.000662481
0.000662523
0.000469124
0.000191032
9.55185e-05
1.55845e-05
2.48123e-05
4.11504e-05
0.000120125
0
0
0
6.18408e-05
5.92085e-05
0.0109074
0
0
0.00069841
0.000681424
0.000649909
0.000428375
0.000155578
3.98783e-05
0
1.63361e-05
4.58257e-05
0.00012693
7.21714e-05
0
0
4.63498e-05
4.7984e-05
0.0131392
0
0
0.000671497
0.000698724
0.000612974
0.000376473
0.000142408
0
0
4.77992e-05
7.66993e-05
0.000103446
8.38965e-05
6.19548e-05
4.07999e-05
0
9.10666e-07
0.0135943
0
0
0.000775456
0.000567094
0.000484475
0.000312733
0.000135453
5.40041e-05
0
0
4.67423e-05
8.08974e-05
6.98118e-05
7.94102e-05
0.000103444
9.15086e-05
2.54719e-05
0.0117309
0
0
1.33156e-05
0.000323129
0.000348668
0.000464464
0.000272891
0.000144734
0
0
0
5.31071e-05
7.19851e-05
0.000107947
0.000109823
0.000124057
8.58257e-05
0.00946155
0
0
0
1.61458e-05
0.000253441
0.000706507
0.000426394
0.00023431
8.82025e-05
7.0025e-05
6.62847e-05
4.20758e-05
0
7.32427e-05
0.000131953
0.000130437
9.03154e-05
0.00886681
0
0
0
0
0.000224659
0.000751584
0.000394883
0.000202566
6.3806e-05
0
0
0
0
0
0
2.74006e-05
4.12733e-05
0.00916459
0
0
0
0
0.000177276
0.000420129
0.000375827
0.000215825
0.000114869
0
0
0
0
0
0
0
3.98831e-05
0.0104676
0
0
0
0
0
0.000148688
0.000964076
0.000789238
0.000299172
0.000128659
1.29856e-05
2.54384e-05
0
0
0
4.98952e-05
0.000174599
0.0118603
0
0
0
0.00142845
0.000966537
0.000621091
0.00066296
0.000331127
9.84183e-05
0
0
5.28127e-05
6.93634e-05
7.63937e-05
9.05986e-05
8.43637e-05
3.7793e-05
0.0140416
0
0
0.00108468
0.000915598
0.000455305
0.000173888
0.000147524
0.000108628
2.24637e-05
3.1126e-05
2.75851e-05
4.90335e-05
4.22181e-05
3.27982e-05
3.57192e-05
3.18736e-05
1.95902e-06
0.0117323
0
0
0.000891223
0.000795961
0.000457979
0.000234881
0.000135527
9.46816e-05
0
1.73425e-05
0
0
0
0
0
0
0
0.00936137
0
0
0.000515299
0.000739683
0.000616433
0.000407742
0.000149275
3.48976e-05
2.01154e-05
3.92262e-05
3.51331e-05
3.61661e-05
1.86172e-05
0
1.83443e-05
3.3306e-05
0
0.00819702
0
0
0
0.000320211
0.000526398
0.000450464
0.00015975
0.000135703
0.000132814
0.000103654
7.04697e-05
7.47917e-05
8.56387e-05
9.20158e-05
6.46272e-05
3.79575e-05
2.49417e-05
0.00787265
0
0.000105751
0
8.01407e-05
0.000370874
0.000380484
0.00012355
0.00017497
0.000139518
0.000106359
7.11224e-05
5.33072e-05
6.44068e-05
9.94605e-05
0.000111458
9.11988e-05
7.40443e-05
0.0070268
0
0.00051924
0
0.000199631
0.000285809
0.000196895
0.000135357
0.000150299
7.6431e-05
4.96324e-05
2.75509e-05
1.27638e-05
6.19103e-06
1.80148e-05
3.91158e-05
3.89877e-05
3.39352e-05
0.00579914
0
0.000570048
0
0.000103649
8.18184e-05
0.000142813
0.000147928
8.92518e-05
1.27946e-06
1.83523e-05
0
0
0
1.47589e-05
1.28985e-05
2.38414e-06
2.57828e-06
0.0045124
6.18308e-05
0.000552214
0
0
0
1.21939e-05
1.0137e-05
3.51604e-05
1.56157e-05
1.9416e-05
0
0
3.01335e-05
4.77065e-05
3.454e-05
1.64176e-05
1.18254e-05
0.00127422
0.000860299
7.08116e-05
0
0
0
1.45783e-05
1.65297e-05
0.00010095
9.15383e-05
9.65926e-05
0
0
0
0
0
8.44306e-06
1.4529e-05
0.000424269
0.000294415
3.3943e-05
0
0
0.000350437
9.47214e-05
4.69567e-05
0.000110918
8.41768e-05
0.000100656
0
0
0
9.78435e-06
2.35808e-05
3.09635e-05
3.47956e-05
0.000234478
0.000209206
5.64841e-05
0
0
0
0
0
2.25973e-05
1.21529e-05
1.01129e-05
0
0
0
1.68228e-05
4.63906e-06
0
0
0.000531304
0.000225926
6.28815e-05
0
0
0
0
0
5.40494e-05
7.50332e-06
5.34196e-06
0
0
0
7.64845e-06
3.59046e-05
2.09769e-06
0
0.00302396
0
7.63565e-05
0
0
0
0
0
4.19704e-05
8.06199e-07
0
0
0
0
0
9.96826e-05
6.94182e-05
4.27151e-05
0.0053092
0
7.73448e-05
6.01173e-05
1.77541e-05
0
0
0
0
0
0
5.13479e-05
0
0
6.0113e-05
0.000105389
9.95128e-05
9.75151e-05
0.00700227
0
0.00046174
0.000250071
5.74773e-05
0
0
0
0
0
0
9.21227e-05
1.85554e-05
0
7.31737e-05
0.000116996
3.66382e-05
6.91495e-05
0.00858916
0
0.000934565
0.000352131
9.06756e-06
0
4.11083e-06
0
0
0
0
8.55936e-05
1.42061e-05
0
7.11734e-05
0.000126267
1.18115e-06
0
0.0094862
0
0.00116227
0.00039374
0
0
0
0
0
0
0
1.36671e-05
0
0
5.59653e-05
0.000104633
9.83443e-06
0
0.00984377
0
0.0010853
0.000376174
0
0
2.25231e-05
0
0
0
0
3.02528e-05
0
0
2.64696e-05
8.08059e-05
4.71057e-05
0
0.00992869
0
0.000657623
0.000437025
0
0.000154258
0.000150201
3.64815e-05
0
0
0
7.61197e-05
4.25056e-05
0
0
6.72699e-05
7.17092e-05
2.75987e-05
0.0100528
0
0
0.000645007
0.000255633
0.000346737
0.000270273
6.32288e-05
0
0
7.7007e-05
9.56442e-05
9.46158e-05
6.31575e-05
0
4.05033e-05
8.31171e-05
7.54675e-05
0.0107422
0
0
0.000778743
0.000569194
0.000433714
0.000282041
5.8421e-05
0
0
8.47742e-05
6.1671e-05
7.44058e-05
6.21832e-05
0
1.10719e-05
8.01674e-05
8.0934e-05
0.0119163
0
0
0.000724483
0.000640627
0.000402009
0.000198722
4.39036e-05
0
5.29555e-05
5.4918e-05
1.17021e-05
9.32448e-05
6.28213e-05
6.22045e-06
0
1.80217e-05
3.04636e-05
0.0135882
0
0
0.000747895
0.000621642
0.000348099
0.000152738
6.97251e-05
1.7365e-05
0
0
7.44662e-07
8.88072e-05
8.97704e-05
4.25069e-05
2.31324e-06
0
0
0.0130234
0
0
0.000809286
0.000537384
0.000281954
7.39617e-05
4.21102e-05
3.61893e-05
0
0
0
5.19835e-05
9.31663e-05
9.29245e-05
6.09469e-05
2.44959e-05
0
0.0100915
0
0
0.000194033
0.000521018
0.000250956
0.000132131
9.60481e-06
0
0
0
0.000104033
9.86004e-05
8.78658e-05
0.000108139
8.12201e-05
7.78141e-05
3.91803e-05
0.0077772
0
0
0
0.000341326
0.000248941
0.000247223
7.97791e-05
2.8118e-06
9.56055e-05
0.000212252
0.000221481
0.00021056
0.000103499
5.27179e-05
8.15908e-05
7.9924e-05
6.49774e-05
0.00820704
0.000967182
0
0
0
6.58086e-06
0.000346024
0.00015835
0.000220086
0.000127559
4.72973e-05
1.09772e-05
0
0
0
0
4.61034e-05
7.51664e-05
0.00985671
0.0047862
0
0
0
0
0.000209419
0.000192089
0.000200996
6.65632e-05
1.05989e-05
0
0
0
0
0
0
5.32052e-05
0.00954983
0.00136017
0
0
0
0
0
0.000767951
0.000478746
0.000178177
0.000107531
7.9496e-05
4.97494e-05
0
0
0
7.01677e-05
9.69336e-05
0.00991537
0
0
0
0.000771757
0.000360657
0.000324152
0.000459469
0.000176221
0
0
5.12831e-05
0.000101639
0.000100426
9.86958e-05
8.65513e-05
5.90384e-05
2.68509e-05
0.0133202
0
0.000157688
0.000787392
0.000828956
0.000265392
8.92486e-05
0
0
0
1.31304e-05
4.88591e-05
0.000109739
9.80344e-05
7.20977e-05
8.5494e-05
8.4629e-05
4.43231e-05
0.012201
0
0
0.00111721
0.00076665
0.000334335
0.000143026
7.1555e-05
0
0
2.93677e-05
5.14404e-05
6.7636e-05
0
0
0
0
0
0.0104265
0
0
0.00106734
0.000720968
0.000418455
0.000244565
0.000100695
3.72611e-05
1.24243e-05
3.99364e-05
3.04235e-05
2.63278e-05
1.14208e-05
0
0
0
0
0.00914443
0
0
0.000755293
0.000518156
0.000321242
0.000244831
0.000125374
0.000247493
0.00017126
0.000112164
8.47522e-05
7.17739e-05
6.29436e-05
5.97201e-05
2.64756e-05
0
0
0.00839223
0
0.000405318
0.000660338
0.000286963
0.000223711
0.000188668
0.000135156
0.000297853
0.000204252
9.11064e-05
6.5438e-05
7.54541e-05
8.20173e-05
9.74023e-05
9.99413e-05
7.97929e-05
3.98493e-05
0.0071286
0
0.000420686
0.000403051
0.000126517
0.00013277
0.000173047
0.000166968
0.000195293
0.00013797
4.66914e-05
1.29367e-05
1.97055e-05
2.85568e-05
3.52896e-05
4.65295e-05
6.18665e-05
7.55243e-05
0.00553771
0
0.000100073
0
0
3.31578e-05
0.00020004
0.000110395
0.000189951
0.000133721
3.26464e-05
0
0
1.36864e-05
1.47531e-05
0
0
0
0.00412101
0
0.000168277
0
0
0
0
0
0.000178499
0.000120016
3.73429e-05
0
0
0
4.18115e-06
0
0
0
0.00117
0.000732694
8.15395e-05
0
0
0
1.02056e-05
0.000156382
0.000238921
0.000144115
0.000132377
2.83066e-05
0
0
0
1.42058e-05
2.0856e-05
2.33108e-05
0.000407665
0.000259316
4.7672e-05
0
0
0.000134708
0.000286487
0.000203898
0.000185156
0.000106025
0.000142277
8.08305e-05
0
0
2.96555e-05
4.77583e-05
5.07029e-05
4.73367e-05
0.000236326
0.000213358
6.87578e-05
0
0
0
0
0
0
0
0
0
0
0
0
0
0
0
0.000509176
0.000191462
7.1296e-05
0
0
0
0
3.06784e-05
4.70635e-05
1.79443e-06
0
0
0
0
0
0
0
0
0.00295428
0
9.79759e-05
0
0
0
0
6.28682e-05
0.000105205
2.7908e-05
0
0
0
0
0
1.19478e-05
3.55287e-05
0
0.00561639
0
0.000284927
0.000122702
0
0
0
0
2.52683e-05
0
0
0
3.92283e-05
3.94519e-05
6.91548e-05
8.78859e-05
0.00011318
7.64433e-05
0.00805204
0
0.0011239
0.000477291
3.7248e-05
0
0
0
2.39434e-05
0
0
0.000120677
0.000105747
3.23105e-05
6.14734e-05
9.80657e-05
8.82486e-05
6.16859e-05
0.0102611
0
0.00185612
0.000710525
2.36789e-05
0
0
0
0
0
0
0.00016493
0.000163329
2.2463e-05
4.5598e-05
9.9989e-05
8.3062e-05
4.88377e-06
0.011312
0
0.00210206
0.000870533
1.26908e-06
0
0
0
0
0
0
0.000124977
0.000154766
7.68288e-05
5.62211e-05
9.14178e-05
7.79729e-05
0
0.0116135
0
0.00213327
0.00103158
4.22771e-05
4.3618e-05
0
0
0
0
0
3.10486e-05
6.38323e-05
8.4403e-05
7.46251e-05
0.000108583
0.000104629
2.37865e-05
0.0116315
0
0.00203863
0.00120994
0.00016559
0.0001632
2.97895e-05
0
0
0
0
5.44159e-05
7.56557e-05
0.000101415
5.14948e-05
0.000118194
0.000129266
8.79973e-05
0.0116988
0
0.00184663
0.0012321
0.000370331
0.000231423
0.000104312
0
0
0
5.81696e-05
9.49779e-05
9.94714e-05
0.000126419
3.7459e-05
7.62889e-05
0.00011658
0.000101052
0.0121947
0
0.00162863
0.00108098
0.000535407
0.000212237
0.000105369
6.23585e-05
0.000129263
0.000122766
8.79213e-05
8.61264e-05
6.00099e-05
9.42801e-05
3.14292e-05
9.98002e-06
6.27629e-05
7.69841e-05
0.0124945
0
0.00141722
0.000800737
0.000468975
0.000137545
6.97361e-05
9.49225e-05
0.000143282
0.000128339
6.93665e-05
0
0
0
3.07773e-05
0
4.30717e-06
2.93518e-05
0.0124193
0
0.00107598
0.000711127
0.000369206
9.51334e-05
5.0522e-05
6.9214e-05
9.2026e-05
2.99965e-05
0
0
0
0
2.70766e-05
5.56011e-06
0
0
0.010127
0
0.000293944
0.000549164
0.000299954
0
0
0
0
0
0
0
3.42369e-05
6.46098e-05
2.87277e-05
6.63149e-06
0
2.03758e-05
0.00748181
0
0
0
0.000169115
0
0
0
0
0
0
0.000198544
0.0002117
0.000133126
3.93044e-05
4.64919e-06
2.28676e-05
4.22945e-05
0.00630306
0
0
0
0
0
0
0
0
0
0.000374448
0.000409968
0.000309361
0.000187283
0.00011241
8.1261e-05
9.77156e-05
0.000129576
0.00775579
0.00426488
0
0
0
0
0
0
6.29495e-06
0.000310368
0.000204128
0.000103323
0.000100744
0.000112637
8.48169e-05
6.84496e-05
8.08985e-05
8.82197e-05
0.0105072
0.00645624
0.00127405
0
0
0
0
0
0.000148529
9.79661e-05
2.2798e-05
0
1.19835e-06
1.75027e-05
6.89922e-06
0