/*--------------------------------*- C++ -*----------------------------------*\
| =========                 |                                                 |
| \\      /  F ield         | OpenFOAM: The Open Source CFD Toolbox           |
|  \\    /   O peration     | Version:  2112                                  |
|   \\  /    A nd           | Website:  www.openfoam.com                      |
|    \\/     M anipulation  |                                                 |
\*---------------------------------------------------------------------------*/
FoamFile
{
    version     2.0;
    format      ascii;
    arch        "LSB;label=32;scalar=64";
    class       volScalarField;
    location    "0.05";
    object      omega;
}
// * * * * * * * * * * * * * * * * * * * * * * * * * * * * * * * * * * * * * //

dimensions      [0 0 -1 0 0 0 0];

internalField   nonuniform List<scalar> 
12225
(
22162.4
31376.5
34390.2
34890.1
34435
33633.9
32731.1
31836.7
31004.9
30260.7
29611.5
29052.7
28572.7
28157
27788.9
27462.5
27128.7
26672.7
1458.99
3271.12
4894.98
6230.79
7269.6
8053.25
8634.36
9058.4
9361.57
9572.87
9716.32
9812.37
9878.56
9930.07
9980.04
10044.4
10165.9
10436.1
111.792
287.557
544.257
855.712
1191.9
1524.45
1832.79
2105.96
2340.46
2538.04
2704.21
2846.31
2972.07
3088.84
3203.07
3323.23
3457.52
3616.39
45.3937
62.0687
89.6624
129.613
181.968
245.19
316.124
390.184
463.161
532.327
596.191
654.43
707.898
757.626
805.016
852.219
901.528
956.404
40.1896
42.1431
45.6163
51.0364
58.6298
68.4911
80.4946
94.1407
108.761
123.784
138.755
153.364
167.229
180.404
193.057
205.513
218.154
231.403
39.6577
39.8831
40.3643
41.1791
42.3692
43.9597
45.9503
48.3012
50.941
53.7872
56.7613
59.795
62.7739
65.6651
68.4553
71.1538
73.7837
76.3829
39.5998
39.6118
39.6681
39.7829
39.9669
40.2266
40.5639
40.9745
41.4489
41.9739
42.535
43.1182
43.7093
44.2968
44.8725
45.4337
45.9843
46.5349
39.5899
39.5742
39.5712
39.5834
39.6141
39.6654
39.737
39.8278
39.9358
40.0589
40.1947
40.3416
40.4992
40.6683
40.8521
41.0567
41.2943
41.5819
39.5856
39.5636
39.5503
39.546
39.5519
39.5693
39.598
39.6373
39.6865
39.7454
39.8138
39.8928
39.9842
40.0914
40.2198
40.3781
40.5782
40.8327
39.5827
39.5574
39.5398
39.5305
39.5295
39.5379
39.5558
39.5828
39.6188
39.6638
39.7186
39.7843
39.8632
39.9591
40.0774
40.2249
40.4115
40.6469
39.5807
39.5528
39.5322
39.5193
39.5144
39.5175
39.5292
39.5495
39.5786
39.6166
39.6644
39.7233
39.7959
39.8853
39.9962
40.1345
40.308
40.5244
39.5793
39.5497
39.5267
39.511
39.5029
39.5022
39.5093
39.5246
39.5484
39.5809
39.6231
39.6763
39.7429
39.8257
39.9288
40.0569
40.2165
40.4135
39.5783
39.5473
39.5223
39.5042
39.4932
39.4892
39.4924
39.5032
39.522
39.5494
39.5862
39.6338
39.6942
39.7698
39.8641
39.9811
40.1258
40.3029
39.5775
39.5452
39.5185
39.4979
39.4839
39.4767
39.4759
39.482
39.4956
39.5174
39.5481
39.5889
39.6416
39.7083
39.7916
39.8948
40.0217
40.1757
39.577
39.5438
39.5154
39.4926
39.4757
39.4649
39.4602
39.4616
39.4697
39.4852
39.5089
39.5417
39.5852
39.6409
39.7109
39.7976
39.9037
40.0316
39.5767
39.5429
39.5133
39.4885
39.4689
39.4546
39.4458
39.4425
39.4448
39.4536
39.4694
39.4931
39.5257
39.5686
39.6232
39.6912
39.7744
39.8743
39.5767
39.5426
39.5122
39.4859
39.4639
39.4464
39.4334
39.4252
39.4218
39.4234
39.4308
39.4446
39.4654
39.4942
39.532
39.58
39.6395
39.7112
39.5771
39.543
39.5122
39.4847
39.4608
39.4404
39.4236
39.4104
39.401
39.3955
39.3941
39.3975
39.4062
39.4209
39.4421
39.4707
39.5074
39.5528
39.5777
39.5441
39.5132
39.485
39.4596
39.4367
39.4164
39.3985
39.3832
39.3706
39.3609
39.3545
39.3517
39.353
39.359
39.3703
39.3877
39.4112
39.5785
39.5455
39.5148
39.4863
39.4598
39.4352
39.4123
39.3911
39.3714
39.3534
39.3373
39.3235
39.3124
39.3044
39.3001
39.2998
39.3041
39.3134
39.5793
39.5469
39.5164
39.4878
39.4607
39.4349
39.4104
39.3868
39.3643
39.3429
39.3228
39.3044
39.2881
39.2745
39.2641
39.2575
39.2549
39.2566
39.5802
39.5485
39.5183
39.4895
39.4619
39.4354
39.4096
39.3845
39.36
39.3363
39.3137
39.2924
39.2731
39.2563
39.2427
39.233
39.2276
39.2268
39.5814
39.5505
39.5206
39.4918
39.464
39.4373
39.4114
39.3865
39.3627
39.3404
39.3202
39.3027
39.2887
39.2793
39.2754
39.2779
39.2877
39.3054
39.5831
39.5533
39.5245
39.4978
39.4743
39.4556
39.443
39.4386
39.4445
39.4632
39.4969
39.548
39.6187
39.711
39.8266
39.9671
40.1338
40.3272
39.5868
39.5648
39.5558
39.5718
39.6265
39.7338
39.9077
40.1619
40.5087
40.9577
41.5159
42.1871
42.9725
43.8717
44.8829
46.0036
47.2306
48.5592
39.6271
39.7496
40.0876
40.7479
41.8046
43.3193
45.3654
48.0019
51.2665
55.172
59.7092
64.8307
70.4915
76.6504
83.2564
90.2531
97.5887
105.215
40.4901
42.9902
48.2142
56.7531
68.8056
84.2312
103.246
125.872
151.914
180.983
212.558
245.949
280.608
316.099
351.988
387.896
423.518
458.676
59.6292
103.46
178.566
281.706
409.3
553.212
708.261
869.289
1031.4
1190.32
1342.68
1486.26
1619.66
1742.25
1854.21
1956.39
2049.94
2136.45
628.188
1499.36
2401.21
3249.18
3999.2
4643.22
5187.33
5643.55
6024.34
6340.9
6602.79
6818.08
6993.53
7134.91
7247.26
7335.23
7403.12
7454.96
14595.2
22071.1
25338.8
26530.7
26764.6
26561.4
26155.2
25653.9
25110.4
24553.2
23999.2
23459.7
22942.4
22452.6
21993.2
21565.5
21168.1
20801
482.217
604.267
791.028
936.856
1046.21
1133.85
1209.18
1279.91
1352.77
1430.81
1514.57
1604.86
1702.56
1808.22
1922.06
2043.98
2173.67
2310.61
2454.17
2603.58
2757.94
2916.93
3080.84
3250.45
3427.46
3611.7
3778.12
3921.14
4036.94
4119.27
4159.66
4148.32
4070.69
3908.4
3641.63
3255.18
2753.73
2187.85
1658.4
1247.35
965.928
796.935
720.542
709.934
737.366
791.602
870.645
970.794
1085.58
1209.43
1340.07
1476.76
1613.4
1726.88
1770.79
1735.51
1648.42
1538.59
1453.87
1478.82
1698
2152.4
2847.34
3773.58
4692.75
5523.89
6299.73
6993.94
7591.68
8087.72
8484.22
8788.4
9006.11
9143.97
9208.81
9207.65
9146.17
9028.75
8858.97
8639.46
8376.62
8101.93
7815.4
7518.45
7213.34
6902.46
6588.02
6272.15
5956.85
5643.92
5334.88
5030.94
4732.94
4441.12
4155.09
3874.27
3598.8
3329.01
3065.05
2807.32
2556.56
2313.9
2080.92
1859.68
1652.71
1462.96
1293.69
1148.42
1031.2
947.481
901.212
893.746
938.623
1020.9
1133.49
1278.96
1455.81
1660.25
1888.86
2138.85
2407.12
2688.89
2981.66
3282.41
3586.28
3888.61
4185
4470.88
4741.39
4991.29
5215.07
5407.23
5560.78
5655.99
5692.48
5679.03
5623.72
5533.33
5414.3
5273.41
5117.52
4953.17
4786.11
4621.05
4461.56
4310.21
4168.66
4037.78
3917.88
3808.74
3709.8
3620.27
3539.17
3465.52
3398.36
3336.84
3280.29
3228.23
3180.39
3136.7
3097.25
3062.16
3031.58
3005.54
2983.98
2966.69
2953.35
2943.49
2936.53
2931.81
2928.67
2926.45
2924.52
2922.13
2918.82
2912.99
2905.4
2889.5
2875.45
2827.27
1000.94
1116.39
1201.13
1245.32
1258.05
1249.48
1228.03
1199.23
1166.9
1133.92
1102.2
1072.72
1045.91
1021.88
1000.62
981.982
965.783
951.802
939.838
930.478
926.351
928.352
935.412
946.781
962.617
986.33
1048.89
1151.51
1289.7
1456.77
1640.32
1825.98
2006.56
2166.66
2286.59
2349.6
2346.91
2280.96
2160.78
1985.2
1744.39
1455.37
1167.98
932.011
789.007
736.309
733.459
752.122
773.617
784.996
778.956
756.541
728.375
714.417
751.519
849.934
1013.74
1271.12
1654
2179.06
2818.29
3422.57
3833.38
4138.96
4324.96
4402.65
4385.38
4286.44
4122.12
3910.35
3666.44
3390.32
3097.31
2804.31
2525.62
2272.47
2053.29
1874.18
1738.56
1647.93
1598.21
1552.93
1510.81
1470.96
1432.61
1395.08
1357.75
1320.09
1281.64
1242.07
1201.26
1159.55
1118.16
1079.69
1047.9
1024.89
1007.84
992.908
978.544
964.438
950.617
937.162
924.15
911.658
899.786
888.668
878.478
869.434
861.851
855.989
851.132
847.231
846.119
846.456
847.349
848.288
849.584
851.905
855.787
862.717
878.588
919.546
980.84
1048.15
1118.55
1193.54
1275.32
1365.91
1467.01
1579.88
1705.23
1842.42
1989.75
2150.7
2301.44
2426.69
2521.98
2585.48
2616.79
2616.93
2588.54
2536.18
2466
2384.84
2299.04
2213.56
2131.68
2055.25
1985.1
1921.37
1863.81
1811.96
1765.28
1723.23
1685.36
1651.35
1620.94
1594.01
1570.46
1550.21
1533.19
1519.22
1508.09
1499.5
1493.13
1488.62
1485.63
1483.82
1482.87
1482.48
1482.33
1482.1
1481.48
1480.06
1477.44
1472.88
1466.14
1455.09
1442.65
1421.47
1688.76
1595.22
1521.32
1433.92
1339.66
1246.95
1161.69
1086.47
1021.67
966.667
920.569
882.38
851.075
825.652
805.189
788.843
775.846
765.498
757.141
750.165
744.058
738.351
732.674
726.834
720.846
714.97
710.228
713.985
733.961
776.818
848.882
952.134
1082.35
1229.57
1380.94
1521.99
1639.52
1725.47
1775.68
1784.65
1743.33
1646.01
1498.08
1318.75
1132.61
979.486
890.05
850.71
839.362
838.845
836.451
825.11
811.915
828.777
933.207
1147.16
1478.73
1925.97
2455.06
2932
3227.13
3386.22
3419.79
3355.46
3209.77
3003.41
2755.92
2486.52
2213.78
1954.05
1720.12
1520.66
1361.35
1243.17
1162.79
1114.27
1090.57
1084.79
1090.92
1102.65
1113.25
1122.27
1129.56
1134.96
1138.39
1139.78
1139.09
1136.38
1131.7
1125.18
1117
1107.39
1096.63
1085.03
1072.88
1060.42
1047.79
1035.1
1022.43
1009.88
997.551
985.509
973.78
962.386
951.401
940.883
930.809
921.228
912.213
902.419
891.063
880.398
870.463
860.715
850.684
840.082
829.03
817.707
806.122
794.245
782.213
770.447
758.844
747.016
734.937
722.802
710.939
699.756
689.759
681.66
676.749
679.176
698.48
739.866
816.023
917.007
1031.12
1146.78
1254.76
1348.2
1421.92
1473.05
1501.13
1507.9
1496.74
1472.03
1438.26
1399.34
1358.16
1316.73
1276.31
1237.73
1201.45
1167.71
1136.62
1108.17
1082.31
1058.98
1038.07
1019.53
1003.32
989.43
977.868
968.621
961.618
956.708
953.659
952.18
951.943
952.595
953.812
955.318
956.886
958.331
959.511
960.284
960.663
960.675
962.528
966.254
2282.89
1887.88
1630.12
1419.71
1247.46
1109.6
1001.46
917.811
853.567
804.478
767.324
739.609
719.406
705.169
695.675
689.944
687.067
686.185
686.431
686.905
686.822
685.591
682.8
678.217
671.804
663.781
654.656
645.369
639.221
640.142
652.988
683.831
737.846
816.847
917.695
1032.22
1149.52
1259.5
1354.58
1428.39
1473.54
1481.99
1448.29
1374.56
1273.82
1160.12
1055.82
982.367
943.603
936.451
951.358
977.116
1023.14
1139.62
1342.04
1649.09
2053.38
2477.67
2762.85
2914.09
2939.15
2863.41
2712.06
2509.24
2275.71
2031.49
1794.99
1582.37
1405.53
1270.27
1176.45
1119.23
1091.03
1083.45
1088.89
1101.34
1116.55
1131.83
1145.67
1158.23
1169.6
1179.74
1188.5
1195.73
1201.21
1204.72
1206.18
1205.53
1202.73
1197.8
1190.81
1181.9
1171.26
1159.09
1145.65
1131.24
1116.13
1100.55
1084.67
1068.74
1052.92
1037.31
1021.83
1006.6
991.846
977.56
963.053
949.199
935.981
922.761
909.231
895.797
882.652
869.58
856.246
842.537
828.597
814.518
800.204
785.474
770.161
754.187
737.585
720.46
702.919
685.063
667.04
649.004
631.101
613.499
596.427
580.288
565.853
554.215
548.804
556.722
580.558
622.058
678.644
743.876
811.346
874.958
930.142
973.994
1005.19
1023.94
1031.66
1030.42
1022.49
1009.99
994.638
977.781
960.376
943.06
926.213
910.021
894.53
879.706
865.484
851.82
838.701
826.147
814.213
802.966
792.475
782.791
773.937
765.907
758.665
752.185
746.502
741.714
737.955
735.398
734.236
734.734
737.182
742.288
751.012
764.964
2783.5
1999.13
1556.67
1263.48
1066.59
933.762
843.261
780.903
737.674
707.872
687.823
675.154
668.219
665.732
666.797
670.683
676.399
682.788
688.816
693.622
696.553
697.149
695.109
690.303
682.79
672.777
660.586
646.715
632.178
619.373
611.651
612.735
627.057
659.045
711.352
783.108
869.44
962.797
1055.26
1140
1210.91
1261.62
1285.78
1279.49
1245.04
1191.61
1127.65
1068.8
1034.92
1042.9
1094.05
1177.83
1309.3
1499.63
1756.33
2086.6
2381.77
2564.32
2630.26
2593.11
2475.21
2301.85
2096.35
1878.69
1666.55
1475.65
1318.08
1200.32
1122.28
1078.46
1060.52
1059.76
1068.73
1082.01
1096.19
1109.47
1121.11
1131.02
1140.19
1149.32
1158.38
1167.19
1175.51
1183.06
1189.52
1194.54
1197.89
1199.41
1198.96
1196.4
1191.68
1184.83
1175.94
1165.12
1152.53
1138.63
1123.68
1107.87
1091.21
1074.32
1057.43
1040.56
1023.09
1006.2
989.952
974.197
958.891
943.978
929.357
914.85
900.337
885.895
871.575
857.297
842.919
828.364
813.641
798.749
783.624
768.167
752.302
736.01
719.333
702.336
685.087
667.651
650.083
632.447
614.846
597.362
580.05
562.967
546.175
529.821
514.346
501.255
492.984
492.109
500.457
518.3
544.572
577.384
613.306
648.57
680.218
706.237
725.813
739.029
746.593
749.568
749.119
746.32
742.058
736.977
731.489
725.784
719.865
713.617
706.837
699.32
690.905
681.486
671.027
659.56
647.17
633.989
620.201
606.046
591.825
577.909
564.699
552.597
541.978
533.207
526.665
522.823
522.284
525.98
535.184
551.429
3126.45
1942.68
1367.8
1062.9
898.38
805.527
750.023
715.479
694.004
681.469
675.513
674.673
677.976
684.584
693.828
704.649
715.92
726.618
735.799
742.657
746.583
747.212
744.356
737.965
728.126
715.063
699.143
680.937
661.308
641.574
623.554
610.256
605.531
612.343
633.875
672.373
727.514
795.759
871.312
947.824
1019.61
1081.69
1129.27
1158.1
1166.41
1156.89
1135.26
1108.2
1099.98
1143.28
1248.54
1406.12
1600.25
1812.71
2063.77
2270.25
2384.89
2404.61
2339.14
2209
2037.38
1845.03
1649.84
1467.18
1310.02
1187.23
1101.77
1050.56
1026.28
1020.19
1024.36
1032.88
1042.1
1050.24
1056.89
1062.37
1067.3
1072.16
1078.2
1085.15
1092.81
1100.88
1109.03
1116.87
1124.04
1130.24
1135.13
1138.51
1140.26
1140.22
1138.3
1134.46
1128.72
1120.99
1111.07
1099.71
1087.06
1073.12
1057.31
1041.57
1025.58
1009.42
993.206
977.066
961.103
945.386
929.953
914.809
899.922
885.213
870.597
856.038
841.51
826.957
812.302
797.489
782.505
767.353
752.025
736.512
720.813
704.957
688.996
672.988
656.99
641.057
625.225
609.5
593.876
578.377
562.993
547.683
532.404
517.139
501.943
487.05
473.075
461.055
452.337
448.184
449.41
456.184
467.657
482.226
498.104
513.744
527.672
538.978
547.353
552.941
556.131
557.479
557.546
556.788
555.501
553.815
551.706
549.03
545.561
541.033
535.191
527.84
518.861
508.232
496.028
482.426
467.689
452.158
436.22
420.261
404.629
389.637
375.588
362.805
351.67
342.664
336.45
333.91
336.416
345.117
3263.49
1761.15
1153.86
909.632
807.355
757.858
730.549
715.28
708.154
707.213
711.391
719.715
731.15
744.653
759.502
774.883
789.884
803.145
813.545
820.429
823.519
822.768
818.216
809.946
798.092
782.845
764.444
743.191
719.707
695.501
671.419
648.968
630.646
620.969
623.622
640.014
670.875
715.547
771.244
833.39
896.884
957.317
1011.11
1055.15
1087.08
1106.15
1113.57
1116.72
1143.79
1237.36
1408.88
1623.46
1825.88
2023.22
2173
2243.46
2235.78
2157.95
2027.57
1864.77
1687.83
1512.04
1350.73
1214.89
1111.49
1041.83
1001.78
983.783
979.541
982.014
986.389
990.085
992.27
993.215
993.707
994.634
996.766
1000.59
1005.86
1012.16
1019.24
1026.74
1034.29
1041.45
1047.84
1053.16
1057.13
1059.64
1060.76
1060.61
1059.23
1056.67
1052.99
1048.04
1040.9
1032.69
1023.32
1012.66
1000.86
988.088
974.552
960.445
945.95
931.232
916.428
901.643
886.946
872.37
857.912
843.529
829.161
814.754
800.264
785.645
770.852
755.861
740.681
725.347
709.911
694.436
678.997
663.681
648.577
633.767
619.315
605.265
591.628
578.383
565.455
552.761
540.227
527.735
515.15
502.348
489.244
475.812
462.174
448.732
436.102
425.066
416.421
410.768
408.295
408.698
411.292
415.226
419.549
423.471
426.488
428.389
429.267
429.288
428.676
427.652
426.377
424.918
423.232
421.151
418.457
414.913
410.282
404.373
397.058
388.298
378.141
366.728
354.274
341.045
327.318
313.355
299.386
285.625
272.28
259.572
247.75
237.124
228.097
221.186
217.247
216.897
3167.72
1523.04
999.847
849.026
798.196
774.468
762.812
759.454
762.393
770.441
783.042
798.983
816.572
834.547
852.462
870.241
886.83
900.511
910.373
916.296
918.474
917.055
912.112
903.682
891.803
876.552
858.051
836.484
812.13
785.4
756.886
727.46
698.631
674.631
659.159
655.981
667.21
692.067
729.028
775.324
826.866
879.763
931.128
978.805
1020.8
1054.73
1079.12
1106.04
1174.9
1327.26
1551.78
1781.18
1971.77
2099.36
2142.31
2117.85
2034.29
1906.88
1753.39
1589.49
1428.23
1280.95
1157.32
1063.44
1000.27
963.705
946.592
941.199
941.128
942.193
942.387
941.337
939.615
938.129
937.711
938.883
941.803
946.399
951.655
957.416
963.551
969.85
975.981
981.485
985.855
988.603
989.341
988.083
985.154
981.034
976.267
971.304
966.294
961.492
956.443
950.929
944.698
937.561
929.411
920.226
910.056
899.009
887.225
874.858
862.052
848.93
835.588
822.085
808.445
794.661
780.703
766.535
752.126
737.453
722.51
707.317
691.929
676.435
660.948
645.599
630.527
615.869
601.748
588.266
575.488
563.448
552.139
541.509
531.452
521.822
512.471
503.217
493.847
484.146
473.919
462.981
451.323
439.113
426.639
414.35
402.796
392.529
383.965
377.279
372.363
368.881
366.36
364.311
362.334
360.167
357.728
355.019
352.105
349.079
346.017
342.952
339.857
336.669
333.251
329.421
324.999
319.83
313.808
306.888
299.086
290.478
281.197
271.398
261.241
250.868
240.399
229.938
219.58
209.42
199.571
190.168
181.385
173.458
166.725
161.58
2824.58
1326.95
959.766
870.086
841.232
830.231
829.235
835.317
846.718
862.32
881.395
902.738
924.555
945.488
965.089
983.519
1000.75
1016.14
1028.59
1037.58
1043.24
1045.61
1044.47
1039.56
1030.62
1017.42
999.826
977.809
951.49
921.19
887.465
851.172
813.566
776.479
742.534
716.027
703.532
707.424
727.144
758.01
795.967
838.019
881.89
925.983
968.553
1006.47
1039.21
1087.41
1199.07
1401.21
1655.89
1886.2
2034.82
2077.43
2044.1
1957.65
1832.88
1686.19
1531.63
1380.19
1241.35
1123.63
1032.93
970.655
933.418
914.753
907.456
905.496
904.959
904.078
902.664
901.347
900.897
901.789
904.059
907.393
911.335
915.55
919.407
923.256
927.308
931.558
935.762
939.444
941.925
942.324
939.821
934.279
925.962
915.496
903.964
892.753
882.861
874.236
866.958
860.843
855.492
850.46
845.307
839.652
833.229
825.894
817.608
808.407
798.372
787.604
776.201
764.245
751.794
738.882
725.522
711.722
697.494
682.862
667.876
652.616
637.199
621.774
606.513
591.601
577.221
563.544
550.713
538.832
527.963
518.119
509.272
501.345
494.209
487.685
481.575
475.65
469.643
463.27
456.239
448.195
439.139
429.07
418.122
406.573
394.823
383.334
372.547
362.791
354.223
346.818
340.406
334.737
329.553
324.645
319.876
315.182
310.548
305.988
301.52
297.149
292.853
288.591
284.288
279.846
275.16
270.144
264.733
258.898
252.647
246.017
239.069
231.876
224.504
217.009
209.434
201.808
194.153
186.495
178.866
171.31
163.89
156.701
149.851
143.538
2367.84
1223
982.184
925.34
911.072
911.968
921.564
936.143
953.918
975.016
999.764
1025.99
1051.49
1075.44
1098.13
1120.2
1141.9
1163.12
1183.54
1201.32
1215.65
1225.95
1231.75
1232.56
1227.92
1217.4
1200.7
1177.63
1148.16
1112.48
1071.16
1025.12
975.669
924.579
874.253
828.035
790.601
767.421
762.198
773.102
795.571
824.347
857.111
892.436
928.567
963.043
1001.24
1074.32
1227.16
1465.43
1732.38
1941.91
2032.14
2007.2
1921.08
1797.75
1654.41
1504.94
1359.05
1224.39
1108.2
1016.32
951.066
910.235
888.299
878.557
875.129
874.096
873.689
873.761
874.921
877.691
881.981
887.023
891.735
895.242
897.247
898.135
898.383
898.983
900.326
902.35
904.695
906.826
908.064
907.432
903.644
895.82
883.666
867.473
848.54
829.608
811.436
795.028
781.147
770.073
761.594
755.287
750.568
746.703
743.023
738.993
734.244
728.553
721.816
714.012
705.179
695.378
684.68
673.155
660.868
647.885
634.282
620.152
605.613
590.813
575.929
561.165
546.74
532.872
519.767
507.608
496.541
486.666
478.032
470.636
464.428
459.315
455.147
451.73
448.84
446.215
443.552
440.519
436.696
431.706
425.522
418.007
409.167
399.17
388.325
377.042
365.758
354.871
344.67
335.308
326.803
319.076
311.995
305.421
299.235
293.353
287.722
282.312
277.103
272.074
267.195
262.426
257.714
252.999
248.221
243.327
238.28
233.062
227.674
222.135
216.476
210.729
204.924
199.081
193.207
187.304
181.367
175.389
169.365
163.297
157.19
151.069
144.952
138.919
1931.62
1189.59
1036.25
1001.85
1002.36
1014.99
1034.56
1061.01
1091.51
1123.91
1155.16
1184.87
1213.73
1242.31
1270.84
1299.27
1327.38
1354.52
1379.71
1404.11
1425.17
1441.49
1452.78
1458.66
1458.61
1451.95
1437.92
1415.83
1385.21
1346.04
1298.97
1245.28
1186.66
1124.81
1061.31
998.044
938.035
885.855
846.9
826.537
824.665
835.996
854.092
876.058
900.516
928.553
974.904
1075.82
1262.41
1519.84
1781.04
1957.68
1993.64
1918.91
1797.71
1654.52
1505.6
1361.02
1227.01
1109.15
1012.92
941.59
894.507
867.384
854.116
848.845
847.401
847.793
849.838
854.203
861.282
870.389
879.676
886.866
890.334
889.848
886.54
882.324
878.623
876.719
876.568
877.546
878.876
879.876
880.045
878.85
875.199
867.403
854.145
834.874
810.917
784.868
757.822
731.73
708.232
688.395
672.558
660.594
652.302
646.808
643.118
640.332
637.709
634.685
630.868
626.017
620.01
612.811
604.447
594.98
584.501
573.121
560.972
548.207
535.006
521.571
508.127
494.913
482.172
470.139
459.025
449.01
440.238
432.809
426.758
422.064
418.667
416.463
415.296
414.962
415.226
415.812
416.4
416.613
415.832
413.987
410.781
405.992
399.531
391.47
382.044
371.619
360.634
349.53
338.683
328.362
318.716
309.791
301.555
293.938
286.858
280.236
274.01
268.127
262.543
257.22
252.117
247.189
242.388
237.666
232.975
228.275
223.534
218.736
213.876
208.96
204.005
199.029
194.051
189.082
184.128
179.186
174.245
169.29
164.303
159.262
154.148
148.948
143.644
138.255
1601.86
1195.4
1110.06
1096.5
1115.45
1148.06
1183.59
1215.7
1246.03
1276.79
1308.81
1342.23
1376.94
1412.49
1448.14
1482.83
1515.28
1544.59
1570.22
1591.67
1611.54
1628.51
1642.35
1652.82
1659.23
1660.5
1655.12
1641.29
1617.2
1581.53
1534.21
1476.89
1412.79
1345.33
1276.35
1205.89
1133.72
1061.25
992.525
934.595
898.318
879.468
874.307
877.942
887.851
911.024
969.35
1094.6
1301.02
1560.91
1804.46
1946.37
1942.47
1832.42
1686.63
1533.81
1385.74
1248.78
1126.68
1023.7
943.663
887.616
852.895
834.268
825.92
823.206
823.608
826.739
833.485
844.579
859.196
874.443
886.316
891.661
889.746
882.423
873.014
864.82
859.747
857.982
858.507
859.91
861.021
861.135
859.968
857.478
853.352
846.181
833.718
814.264
788.765
758.128
723.983
688.777
654.964
624.535
598.738
578.038
562.531
551.646
544.356
539.583
536.334
533.765
531.208
528.168
524.313
519.449
513.488
506.424
498.309
489.248
479.385
468.892
457.972
446.846
435.752
424.939
414.653
405.131
396.592
389.226
383.179
378.545
375.353
373.559
373.092
373.846
375.666
378.346
381.646
385.298
388.974
392.129
394.4
395.604
395.349
393.324
389.348
383.405
375.656
366.424
356.141
345.278
334.279
323.503
313.201
303.518
294.509
286.166
278.448
271.297
264.652
258.452
252.642
247.17
241.983
237.031
232.264
227.633
223.094
218.606
214.14
209.672
205.195
200.705
196.211
191.725
187.258
182.823
178.426
174.066
169.738
165.427
161.114
156.772
152.373
147.887
143.279
138.535
1442.46
1230.93
1205.52
1209.46
1237.01
1271.42
1305.47
1337.75
1369.63
1402.99
1438.28
1474.92
1511.8
1547.59
1580.69
1609.77
1634.73
1656.19
1674.9
1691.35
1705.59
1720.16
1735.08
1749.9
1764.1
1776.8
1786.46
1790.53
1785.22
1766.05
1729.31
1674.43
1605.99
1532.46
1460.48
1391.66
1323.51
1252.35
1174.7
1092.39
1022.33
968.103
928.101
903.976
898.265
919.163
987.967
1126.66
1337.14
1586.64
1807.2
1919.13
1887.65
1758.15
1597.8
1438.25
1291.84
1162.35
1050.7
959.823
892.109
846.88
820.279
806.822
801.315
800.309
802.729
809.531
822.366
841.483
863.989
884.097
895.88
896.535
887.644
873.88
860.543
851.496
848.193
848.851
851.161
853.186
853.711
852.332
849.125
844.426
838.388
830.574
818.887
801.348
776.813
744.919
706.951
665.286
622.825
582.357
546.055
515.214
490.275
471.229
457.344
447.561
440.796
436.053
432.478
429.38
426.238
422.683
418.485
413.523
407.769
401.263
394.095
386.406
378.368
370.181
362.065
354.253
346.98
340.473
334.94
330.563
327.481
325.789
325.532
326.689
329.153
332.812
337.513
343.056
349.2
355.68
362.163
368.013
373.193
377.278
379.834
380.484
378.966
375.179
369.212
361.335
351.963
341.586
330.697
319.731
309.024
298.808
289.213
280.293
272.05
264.451
257.443
250.97
244.968
239.376
234.134
229.184
224.472
219.946
215.558
211.267
207.039
202.85
198.684
194.533
190.398
186.286
182.204
178.162
174.168
170.223
166.325
162.466
158.63
154.793
150.928
147.001
142.97
138.806
1603.92
1270.84
1264.29
1276.99
1311.29
1351.82
1390.22
1425.48
1459.54
1494.13
1528.94
1562.51
1593.02
1618.39
1637.38
1651.06
1661.73
1671.63
1682.36
1694.68
1708.59
1723.65
1739.15
1754.78
1770.9
1788.21
1807.31
1827.73
1846.47
1856.79
1848.66
1812.4
1746.67
1664.03
1581.05
1507.63
1444.54
1386.55
1322.72
1247.41
1171.06
1093.99
1023.43
969.025
941.867
956.655
1027.01
1164.98
1366.03
1597.06
1794.19
1883.95
1836.63
1696.16
1527.01
1364.99
1222.1
1099.04
995.736
914.038
854.896
816.47
794.437
783.561
779.392
779.449
783.657
793.896
812.483
839.587
870.628
895.518
906.434
902.179
887.411
869.657
855.548
848.613
848.759
852.266
855.883
857.663
856.57
852.629
846.321
838.487
829.604
819.58
807.747
791.724
769.068
738.331
699.743
655.07
607.129
559.117
513.912
473.6
439.301
411.314
389.449
372.896
360.64
351.669
345.061
340.031
335.937
332.285
328.715
324.989
320.968
316.595
311.878
306.882
301.714
296.523
291.486
286.802
282.685
279.342
276.964
275.709
275.702
277.027
279.702
283.698
288.925
295.272
302.59
310.692
319.352
328.302
337.042
345.423
353.192
359.873
364.988
368.106
368.893
367.173
362.963
356.476
348.097
338.321
327.678
316.661
305.682
295.048
284.959
275.528
266.8
258.77
251.403
244.645
238.433
232.702
227.383
222.414
217.734
213.286
209.019
204.89
200.862
196.906
193.002
189.137
185.307
181.511
177.755
174.045
170.385
166.78
163.229
159.728
156.267
152.828
149.387
145.915
142.37
138.718
2036.18
1294.85
1278.41
1300.26
1343.93
1393.14
1438.43
1478.16
1514.26
1548.39
1579.88
1606.94
1627.21
1639.08
1644.15
1646.54
1650.29
1658.09
1670.68
1686.91
1704.31
1719.97
1732.88
1743.75
1753.36
1762.72
1773.99
1790.37
1814.14
1843.7
1869.2
1870.21
1827.01
1744.62
1647.43
1558.53
1489.39
1438.33
1390.53
1343.15
1287.25
1219.48
1144.01
1073.06
1025.24
1022.15
1080.49
1204.4
1386.08
1594.11
1769.76
1845.54
1792.79
1649.14
1476.27
1313.39
1172.95
1054.65
957.504
882.094
828.221
793.427
773.4
763.384
759.626
760.357
766.125
779.299
802.431
835.326
872.076
901.829
915.37
910.321
892.618
872.731
859.522
855.934
859.095
863.9
867.416
868.183
865.299
858.902
849.465
838.046
825.788
813.204
799.68
783.481
762.106
733.195
695.762
650.684
600.305
547.816
496.483
448.969
406.998
371.315
342.003
318.625
300.379
286.358
275.68
267.558
261.317
256.404
252.38
248.908
245.744
242.733
239.793
236.904
234.106
231.486
229.175
227.334
226.143
225.782
226.415
228.172
231.134
235.352
240.797
247.409
255.105
263.768
273.255
283.407
294.036
304.891
315.536
325.961
335.782
344.559
351.795
357.007
359.798
359.919
357.311
352.126
344.711
335.55
325.195
314.185
302.994
291.994
281.451
271.532
262.324
253.853
246.103
239.03
232.572
226.661
221.226
216.196
211.507
207.096
202.911
198.903
195.032
191.266
187.58
183.958
180.39
176.871
173.402
169.985
166.622
163.317
160.07
156.878
153.736
150.632
147.548
144.46
141.334
138.135
2685.8
1303.58
1253.78
1282.39
1335.83
1396.02
1451.57
1498.52
1538.52
1573.73
1603.82
1626.84
1640.1
1643.59
1641.75
1640.66
1645.09
1656.93
1674.57
1693.23
1706.65
1714.96
1722.47
1731.91
1742.49
1750.93
1756.27
1761.01
1768.82
1785.68
1816.13
1845.05
1834.47
1768.4
1666.91
1561.83
1480.61
1428.46
1394.57
1367.71
1338.05
1298.88
1247.52
1188.25
1135.81
1113.75
1147.89
1245.78
1399.31
1580.08
1735.57
1804.04
1754.97
1616.08
1444.13
1280.86
1141.2
1025.56
932.194
860.399
809.054
775.434
755.508
745.078
740.978
741.886
748.596
763.524
789.094
824.93
865.222
899.502
917.852
916.949
902.404
884.926
873.354
870.137
872.188
875.184
876.79
876.06
872.405
865.366
854.851
841.386
826.126
810.295
794.224
776.703
755.357
727.605
691.621
647.309
596.381
541.755
486.823
434.617
387.31
346.042
311.107
282.243
258.863
240.225
225.556
214.127
205.295
198.51
193.309
189.312
186.215
183.788
181.878
180.399
179.335
178.726
178.667
179.279
180.711
183.105
186.572
191.205
197
203.933
211.937
220.907
230.712
241.215
252.284
263.792
275.609
287.506
299.469
311.259
322.454
332.636
341.346
348.087
352.411
353.999
352.712
348.632
342.051
333.43
323.327
312.312
300.908
289.545
278.544
268.125
258.416
249.475
241.306
233.875
227.125
220.989
215.391
210.256
205.515
201.102
196.958
193.031
189.279
185.665
182.16
178.745
175.405
172.131
168.919
165.767
162.675
159.643
156.672
153.76
150.904
148.097
145.327
142.575
139.815
137.016
3360.44
1307.1
1207.39
1237.02
1297.01
1367.15
1433.95
1490.83
1538.14
1577.99
1611.11
1636.13
1649.72
1651.71
1646.96
1642.24
1643.02
1651.4
1664.58
1673.56
1667.53
1658.34
1654.87
1664.68
1688.39
1717.65
1742.43
1759.97
1767.2
1762.45
1763.48
1780.93
1779.99
1728.11
1631
1520.55
1427.74
1367.82
1339.53
1331.27
1328.91
1321.75
1304.15
1274.95
1239.35
1213.04
1222.55
1288.98
1410.05
1562.35
1699.75
1765.59
1726.29
1598.51
1431.78
1268.91
1128.52
1013.07
920.695
849.766
798.497
764.077
742.813
730.99
725.832
726.196
732.796
747.762
773.229
808.934
850.009
887.297
911.331
917.9
910.712
898.478
888.892
884.539
883.209
882.183
880.347
877.371
872.972
866.456
856.956
844.002
827.936
809.852
790.912
771.151
748.795
721.142
686.03
642.613
591.917
536.467
479.581
424.595
373.953
329.038
290.323
257.668
230.589
208.459
190.604
176.379
165.197
156.545
149.979
145.12
141.645
139.3
137.9
137.332
137.552
138.583
140.501
143.385
147.36
152.519
158.881
166.447
175.157
184.881
195.443
206.642
218.283
230.2
242.262
254.383
266.512
278.75
291.17
303.461
315.222
326.01
335.389
342.892
348.056
350.508
350.044
346.67
340.623
332.326
322.329
311.219
299.55
287.797
276.327
265.4
255.181
245.755
237.145
229.328
222.255
215.856
210.055
204.774
199.938
195.477
191.329
187.437
183.756
180.246
176.875
173.619
170.46
167.385
164.386
161.458
158.597
155.802
153.072
150.405
147.799
145.25
142.75
140.287
137.842
135.389
3955.18
1326.56
1158.17
1181.61
1243.06
1320.15
1398.37
1468.3
1526.41
1573.66
1611.92
1642.12
1661.72
1668.87
1666.6
1660.56
1655.75
1654.28
1654.38
1647.79
1632.54
1612.99
1597.81
1597.41
1619.8
1663.58
1716.46
1764.72
1794.21
1789.95
1762.74
1739.64
1714.18
1656.21
1557.13
1439.26
1333.72
1262.37
1232.25
1236.87
1261.02
1287.9
1305.92
1310.92
1304.38
1293.37
1294.64
1335.34
1424.46
1547.65
1666.8
1730.75
1703.32
1590.32
1432.3
1271.27
1129.6
1012.67
919.283
847.321
794.542
758.102
734.604
720.711
713.905
713.061
718.647
732.365
755.994
789.478
829.114
867.485
896.246
910.592
911.902
906.082
899.116
893.635
888.62
883.108
877.34
871.76
866.462
860.742