/*--------------------------------*- C++ -*----------------------------------*\
| =========                 |                                                 |
| \\      /  F ield         | OpenFOAM: The Open Source CFD Toolbox           |
|  \\    /   O peration     | Version:  2112                                  |
|   \\  /    A nd           | Website:  www.openfoam.com                      |
|    \\/     M anipulation  |                                                 |
\*---------------------------------------------------------------------------*/
FoamFile
{
    version     2.0;
    format      ascii;
    arch        "LSB;label=32;scalar=64";
    class       volVectorField;
    location    "0.05";
    object      U_0;
}
// * * * * * * * * * * * * * * * * * * * * * * * * * * * * * * * * * * * * * //

dimensions      [0 1 -1 0 0 0 0];

internalField   nonuniform List<vector> 
12225
(
(9.76544 0.0703558 0)
(9.27952 0.110747 0)
(8.74651 0.119213 0)
(8.20733 0.119917 0)
(7.69769 0.114844 0)
(7.23405 0.105094 0)
(6.82728 0.0922878 0)
(6.4855 0.0778327 0)
(6.21172 0.0629758 0)
(6.00339 0.0488093 0)
(5.8537 0.0361499 0)
(5.75309 0.0254852 0)
(5.69062 0.0170708 0)
(5.65542 0.011093 0)
(5.63584 0.00821867 0)
(5.62564 0.0104099 0)
(5.59422 0.0306282 0)
(5.54645 0.0396317 0)
(10.0959 0.07502 0)
(10.2831 0.106676 0)
(10.3994 0.113642 0)
(10.4531 0.120978 0)
(10.4543 0.124562 0)
(10.4075 0.122706 0)
(10.3195 0.115861 0)
(10.1997 0.104774 0)
(10.0572 0.0905389 0)
(9.89983 0.0745987 0)
(9.73346 0.0584539 0)
(9.56263 0.0434012 0)
(9.39055 0.0303754 0)
(9.21963 0.0201417 0)
(9.05112 0.0130332 0)
(8.88752 0.0126967 0)
(8.72705 0.0192226 0)
(8.61417 0.0645691 0)
(10.0195 0.0404121 0)
(10.0745 0.0660938 0)
(10.1311 0.0818303 0)
(10.1875 0.0984414 0)
(10.2474 0.111182 0)
(10.3063 0.118942 0)
(10.3582 0.122343 0)
(10.4001 0.122033 0)
(10.4307 0.118949 0)
(10.4496 0.114326 0)
(10.4576 0.109423 0)
(10.4563 0.105324 0)
(10.4476 0.102779 0)
(10.4332 0.102271 0)
(10.4143 0.104075 0)
(10.3919 0.109415 0)
(10.3694 0.118207 0)
(10.3426 0.134116 0)
(10.0107 0.0332145 0)
(10.0445 0.0638564 0)
(10.0758 0.0791856 0)
(10.1043 0.0911538 0)
(10.136 0.0992789 0)
(10.1706 0.103089 0)
(10.2064 0.103328 0)
(10.2417 0.100631 0)
(10.2753 0.0955952 0)
(10.3065 0.0891098 0)
(10.3351 0.0821474 0)
(10.3615 0.0755042 0)
(10.3867 0.0698939 0)
(10.4114 0.0659357 0)
(10.4365 0.0642332 0)
(10.4635 0.0659462 0)
(10.4935 0.0718396 0)
(10.5323 0.0806562 0)
(10.0064 0.0277064 0)
(10.033 0.0571719 0)
(10.0593 0.0716134 0)
(10.0834 0.082663 0)
(10.1093 0.0904002 0)
(10.1372 0.094123 0)
(10.1657 0.0944271 0)
(10.1942 0.0920073 0)
(10.2222 0.0875615 0)
(10.2495 0.0819294 0)
(10.2761 0.0759522 0)
(10.3024 0.0703938 0)
(10.3287 0.0658015 0)
(10.3558 0.0626097 0)
(10.3846 0.0612275 0)
(10.4162 0.0622929 0)
(10.452 0.0656549 0)
(10.496 0.0718631 0)
(10.0041 0.0224686 0)
(10.0255 0.0500225 0)
(10.0493 0.0647618 0)
(10.0719 0.07546 0)
(10.096 0.0825725 0)
(10.1217 0.085669 0)
(10.148 0.0854071 0)
(10.1742 0.0825579 0)
(10.2001 0.0777666 0)
(10.2258 0.0717268 0)
(10.2512 0.0651678 0)
(10.2768 0.0587375 0)
(10.3029 0.0528526 0)
(10.3301 0.047928 0)
(10.3593 0.0442494 0)
(10.3915 0.0421455 0)
(10.4277 0.0414072 0)
(10.4705 0.0417318 0)
(10.0028 0.0184087 0)
(10.0199 0.0434881 0)
(10.0415 0.0578467 0)
(10.0628 0.0677175 0)
(10.0856 0.0739915 0)
(10.1099 0.0764641 0)
(10.1349 0.075754 0)
(10.1599 0.0725551 0)
(10.1848 0.0674468 0)
(10.2096 0.0610503 0)
(10.2343 0.0540056 0)
(10.2594 0.0468915 0)
(10.2852 0.0401318 0)
(10.3125 0.0339884 0)
(10.3418 0.0286029 0)
(10.374 0.0240562 0)
(10.4101 0.0199419 0)
(10.4519 0.0157596 0)
(10.002 0.0151534 0)
(10.0157 0.0374704 0)
(10.035 0.0509871 0)
(10.0552 0.0599669 0)
(10.0766 0.0653011 0)
(10.0995 0.0670506 0)
(10.1233 0.0657839 0)
(10.1473 0.0621335 0)
(10.1713 0.0566275 0)
(10.1954 0.0498082 0)
(10.2196 0.0422158 0)
(10.2443 0.0343197 0)
(10.2699 0.0264376 0)
(10.2969 0.0187475 0)
(10.3259 0.0112923 0)
(10.3579 0.00398418 0)
(10.3934 -0.00367296 0)
(10.434 -0.0122055 0)
(10.0014 0.0124526 0)
(10.0126 0.0319283 0)
(10.0297 0.0442199 0)
(10.0487 0.0522726 0)
(10.0688 0.0566498 0)
(10.0904 0.0576293 0)
(10.1129 0.0557188 0)
(10.1358 0.0515147 0)
(10.1589 0.045501 0)
(10.1822 0.0381395 0)
(10.2059 0.0298739 0)
(10.2301 0.0210714 0)
(10.2552 0.0119639 0)
(10.2819 0.00265008 0)
(10.3105 -0.00692247 0)
(10.3418 -0.0169652 0)
(10.3764 -0.0280066 0)
(10.4153 -0.0406208 0)
(10.0011 0.0101645 0)
(10.0103 0.0267878 0)
(10.0254 0.0376175 0)
(10.043 0.0444937 0)
(10.062 0.0479668 0)
(10.0822 0.0481198 0)
(10.1035 0.0454935 0)
(10.1252 0.0406545 0)
(10.1474 0.0340396 0)
(10.1698 0.0260324 0)
(10.1927 0.0169864 0)
(10.2163 0.00717912 0)
(10.2409 -0.00323545 0)
(10.2669 -0.0142378 0)
(10.2947 -0.0259604 0)
(10.325 -0.0386915 0)
(10.3581 -0.052979 0)
(10.3947 -0.0693683 0)
(10.0009 0.00819468 0)
(10.0085 0.0220148 0)
(10.0218 0.0311911 0)
(10.038 0.036744 0)
(10.0559 0.03923 0)
(10.0749 0.0384983 0)
(10.0948 0.0351133 0)
(10.1154 0.0295734 0)
(10.1365 0.0222742 0)
(10.158 0.0135325 0)
(10.1801 0.00361954 0)
(10.2028 -0.0072686 0)
(10.2265 -0.0190496 0)
(10.2516 -0.0317685 0)
(10.2783 -0.0456109 0)
(10.3071 -0.0608986 0)
(10.3381 -0.0781561 0)
(10.372 -0.0978762 0)
(10.0007 0.00658906 0)
(10.0073 0.0179203 0)
(10.0191 0.0254601 0)
(10.034 0.0297012 0)
(10.0508 0.0311223 0)
(10.0688 0.0296268 0)
(10.0876 0.0255025 0)
(10.1071 0.0192556 0)
(10.1271 0.0112593 0)
(10.1476 0.00177663 0)
(10.1687 -0.00899042 0)
(10.1905 -0.020912 0)
(10.2132 -0.0339607 0)
(10.2371 -0.0482249 0)
(10.2625 -0.0639165 0)
(10.2895 -0.0813595 0)
(10.3182 -0.101036 0)
(10.3492 -0.123368 0)
(10.0006 0.00515563 0)
(10.0063 0.0140914 0)
(10.0169 0.0199309 0)
(10.0305 0.0228103 0)
(10.0461 0.023102 0)
(10.063 0.0208095 0)
(10.0808 0.0159184 0)
(10.0991 0.00894548 0)
(10.1181 0.000218487 0)
(10.1376 -0.0100369 0)
(10.1576 -0.0216748 0)
(10.1783 -0.0346206 0)
(10.1998 -0.0488899 0)
(10.2223 -0.0645991 0)
(10.2459 -0.0819687 0)
(10.2709 -0.101305 0)
(10.2971 -0.123032 0)
(10.3248 -0.147498 0)
(10.0005 0.00368281 0)
(10.0054 0.00999291 0)
(10.0147 0.0138478 0)
(10.027 0.0151237 0)
(10.0412 0.0140521 0)
(10.0569 0.0106851 0)
(10.0735 0.00498467 0)
(10.0905 -0.00282894 0)
(10.1082 -0.0124269 0)
(10.1263 -0.0235932 0)
(10.145 -0.0362265 0)
(10.1642 -0.0503044 0)
(10.184 -0.0658783 0)
(10.2046 -0.0830785 0)
(10.226 -0.102115 0)
(10.2482 -0.123255 0)
(10.2711 -0.146845 0)
(10.295 -0.17315 0)
(10.0004 0.00216628 0)
(10.0046 0.005659 0)
(10.0127 0.00725606 0)
(10.0236 0.00668502 0)
(10.0364 0.00403223 0)
(10.0505 -0.000649273 0)
(10.0656 -0.00733637 0)
(10.0813 -0.0160724 0)
(10.0973 -0.026625 0)
(10.1138 -0.0387967 0)
(10.1306 -0.0524956 0)
(10.1479 -0.0677312 0)
(10.1655 -0.0845814 0)
(10.1836 -0.103174 0)
(10.2021 -0.123684 0)
(10.2209 -0.146319 0)
(10.2398 -0.171329 0)
(10.2591 -0.198893 0)
(10.0004 0.000600881 0)
(10.0039 0.00113118 0)
(10.0108 0.000235345 0)
(10.0203 -0.00241058 0)
(10.0315 -0.0068314 0)
(10.044 -0.0130142 0)
(10.0574 -0.0209513 0)
(10.0713 -0.030654 0)
(10.0855 -0.0421292 0)
(10.0999 -0.0552843 0)
(10.1145 -0.0700201 0)
(10.1293 -0.0863151 0)
(10.1442 -0.104239 0)
(10.1591 -0.123905 0)
(10.1739 -0.145444 0)
(10.1886 -0.168991 0)
(10.203 -0.194692 0)
(10.2169 -0.222644 0)
(10.0003 -0.000995926 0)
(10.0032 -0.00352847 0)
(10.0091 -0.00709003 0)
(10.0172 -0.0119842 0)
(10.0268 -0.0183036 0)
(10.0374 -0.0260879 0)
(10.0488 -0.0353567 0)
(10.0607 -0.0461281 0)
(10.0728 -0.0584539 0)
(10.0848 -0.0723355 0)
(10.0967 -0.0877996 0)
(10.1085 -0.104815 0)
(10.12 -0.12338 0)
(10.1312 -0.143536 0)
(10.1418 -0.165353 0)
(10.1519 -0.188902 0)
(10.1611 -0.214244 0)
(10.1695 -0.241412 0)
(10.0003 -0.00261824 0)
(10.0027 -0.00828185 0)
(10.0076 -0.0146129 0)
(10.0144 -0.0218485 0)
(10.0223 -0.0301119 0)
(10.0311 -0.0394806 0)
(10.0405 -0.0500136 0)
(10.05 -0.0617509 0)
(10.0596 -0.0747281 0)
(10.0689 -0.0890626 0)
(10.0778 -0.104714 0)
(10.0862 -0.121653 0)
(10.0939 -0.139997 0)
(10.1009 -0.159733 0)
(10.1071 -0.180827 0)
(10.1123 -0.20325 0)
(10.1164 -0.226982 0)
(10.1192 -0.252019 0)
(10.0002 -0.0042742 0)
(10.0023 -0.0130864 0)
(10.0064 -0.0221594 0)
(10.012 -0.0316507 0)
(10.0186 -0.0416961 0)
(10.0256 -0.0524017 0)
(10.0329 -0.0638495 0)
(10.0401 -0.0761072 0)
(10.047 -0.0892314 0)
(10.0535 -0.103269 0)
(10.0592 -0.118274 0)
(10.0641 -0.13436 0)
(10.068 -0.151455 0)
(10.0709 -0.169432 0)
(10.0727 -0.188318 0)
(10.0734 -0.208132 0)
(10.0727 -0.228823 0)
(10.0707 -0.250338 0)
(10.0002 -0.00570517 0)
(10.0022 -0.0171763 0)
(10.0061 -0.0284476 0)
(10.0113 -0.0396135 0)
(10.0171 -0.0508434 0)
(10.0232 -0.0622734 0)
(10.0292 -0.0740022 0)
(10.0349 -0.0861172 0)
(10.0401 -0.0986959 0)
(10.0445 -0.111804 0)
(10.048 -0.125489 0)
(10.0504 -0.139795 0)
(10.0517 -0.154766 0)
(10.0518 -0.170439 0)
(10.0505 -0.186767 0)
(10.048 -0.203546 0)
(10.0442 -0.220709 0)
(10.0391 -0.238367 0)
(10.0002 -0.00687961 0)
(10.0024 -0.020469 0)
(10.0066 -0.0333462 0)
(10.0118 -0.0456101 0)
(10.0175 -0.0575201 0)
(10.0233 -0.0692452 0)
(10.0288 -0.0808936 0)
(10.0338 -0.0925706 0)
(10.0381 -0.104373 0)
(10.0414 -0.116381 0)
(10.0436 -0.128659 0)
(10.0447 -0.141267 0)
(10.0444 -0.154245 0)
(10.0428 -0.167622 0)
(10.0399 -0.181424 0)
(10.0355 -0.195657 0)
(10.0297 -0.210157 0)
(10.0228 -0.22477 0)
(10.0003 -0.00807752 0)
(10.003 -0.0237058 0)
(10.0078 -0.037922 0)
(10.0135 -0.0509827 0)
(10.0194 -0.0633231 0)
(10.0253 -0.0751353 0)
(10.0307 -0.0865273 0)
(10.0356 -0.097625 0)
(10.0395 -0.108542 0)
(10.0424 -0.119366 0)
(10.0441 -0.130179 0)
(10.0444 -0.141055 0)
(10.0433 -0.152065 0)
(10.0407 -0.163263 0)
(10.0367 -0.174693 0)
(10.0312 -0.186374 0)
(10.0242 -0.198326 0)
(10.016 -0.210438 0)
(10.0004 -0.00943986 0)
(10.004 -0.0271616 0)
(10.0099 -0.0424761 0)
(10.0164 -0.0560893 0)
(10.0229 -0.0686944 0)
(10.0292 -0.0804716 0)
(10.035 -0.0915266 0)
(10.0401 -0.102009 0)
(10.0442 -0.112039 0)
(10.0471 -0.121703 0)
(10.0487 -0.131091 0)
(10.0488 -0.140298 0)
(10.0474 -0.14942 0)
(10.0444 -0.158543 0)
(10.0397 -0.167747 0)
(10.0336 -0.177091 0)
(10.0259 -0.186615 0)
(10.0169 -0.196346 0)
(10.0006 -0.0111222 0)
(10.0057 -0.0310215 0)
(10.0132 -0.0471411 0)
(10.0208 -0.0611205 0)
(10.0281 -0.07391 0)
(10.0351 -0.085591 0)
(10.0416 -0.0962757 0)
(10.0473 -0.106153 0)
(10.0519 -0.115339 0)
(10.0552 -0.123905 0)
(10.0571 -0.131947 0)
(10.0574 -0.13958 0)
(10.0561 -0.146924 0)
(10.053 -0.154102 0)
(10.0482 -0.161238 0)
(10.0417 -0.16844 0)
(10.0338 -0.1758 0)
(10.0243 -0.183398 0)
(10.0011 -0.013361 0)
(10.0085 -0.0355052 0)
(10.0182 -0.0519987 0)
(10.0272 -0.0661731 0)
(10.0355 -0.0791659 0)
(10.0436 -0.0908085 0)
(10.0511 -0.101179 0)
(10.0575 -0.110498 0)
(10.0628 -0.118872 0)
(10.0668 -0.126361 0)
(10.0692 -0.133077 0)
(10.07 -0.139168 0)
(10.0691 -0.144783 0)
(10.0663 -0.150077 0)
(10.0616 -0.155216 0)
(10.0553 -0.160353 0)
(10.0472 -0.165609 0)
(10.0376 -0.171053 0)
(10.002 -0.0166118 0)
(10.0132 -0.0413258 0)
(10.0259 -0.0576711 0)
(10.0363 -0.0715085 0)
(10.0459 -0.0841732 0)
(10.0553 -0.0954245 0)
(10.0639 -0.105404 0)
(10.0714 -0.11431 0)
(10.0779 -0.122183 0)
(10.0832 -0.129032 0)
(10.087 -0.134933 0)
(10.0891 -0.140019 0)
(10.0895 -0.144466 0)
(10.088 -0.148476 0)
(10.0846 -0.152256 0)
(10.0794 -0.155996 0)
(10.0725 -0.159867 0)
(10.064 -0.163937 0)
(10.0042 -0.020837 0)
(10.0212 -0.0475079 0)
(10.0378 -0.0640261 0)
(10.051 -0.0780801 0)
(10.0635 -0.0905815 0)
(10.0758 -0.101219 0)
(10.0877 -0.110371 0)
(10.0989 -0.118283 0)
(10.1096 -0.124952 0)
(10.1195 -0.130367 0)
(10.1284 -0.134656 0)
(10.1359 -0.137952 0)
(10.1415 -0.140375 0)
(10.1452 -0.142156 0)
(10.1467 -0.143573 0)
(10.1459 -0.144901 0)
(10.1432 -0.146311 0)
(10.138 -0.147944 0)
(10.0096 -0.0256507 0)
(10.0387 -0.0478165 0)
(10.0678 -0.0625874 0)
(10.0948 -0.0786385 0)
(10.1243 -0.0937332 0)
(10.1556 -0.106927 0)
(10.1873 -0.118655 0)
(10.2184 -0.129169 0)
(10.2477 -0.138301 0)
(10.2739 -0.145884 0)
(10.2958 -0.15185 0)
(10.3122 -0.156292 0)
(10.3227 -0.159432 0)
(10.3266 -0.161585 0)
(10.3238 -0.163105 0)
(10.3144 -0.164404 0)
(10.2989 -0.165736 0)
(10.278 -0.167601 0)
(10.0517 -0.053407 0)
(10.1741 -0.0843856 0)
(10.2738 -0.0948562 0)
(10.3476 -0.106239 0)
(10.3974 -0.116675 0)
(10.4227 -0.125101 0)
(10.4225 -0.131805 0)
(10.3979 -0.136752 0)
(10.3509 -0.139669 0)
(10.2839 -0.14038 0)
(10.1995 -0.138903 0)
(10.1003 -0.135414 0)
(9.98898 -0.130185 0)
(9.86802 -0.12359 0)
(9.73959 -0.116058 0)
(9.60559 -0.108153 0)
(9.4675 -0.100208 0)
(9.32694 -0.0934009 0)
(9.87249 -0.0532883 0)
(9.57763 -0.0926097 0)
(9.22703 -0.107286 0)
(8.84836 -0.115975 0)
(8.46467 -0.120495 0)
(8.08479 -0.121506 0)
(7.714 -0.119889 0)
(7.35789 -0.116093 0)
(7.02136 -0.110384 0)
(6.70825 -0.103054 0)
(6.42144 -0.0944567 0)
(6.16282 -0.0849726 0)
(5.93327 -0.0749759 0)
(5.73265 -0.0648445 0)
(5.55979 -0.0549312 0)
(5.41298 -0.0455988 0)
(5.28872 -0.0371992 0)
(5.18679 -0.0294357 0)
(-0.0167049 0.0658608 7.50018e-23)
(-0.0190014 0.0281147 -7.99067e-23)
(0.00221968 -0.0149359 0)
(0.0597176 -0.0603663 0)
(0.153313 -0.103299 0)
(0.280741 -0.140556 1.31009e-22)
(0.437597 -0.172067 0)
(0.616668 -0.203514 0)
(0.813732 -0.232883 0)
(1.02649 -0.252771 0)
(1.24762 -0.261549 -1.17827e-22)
(1.47067 -0.261749 0)
(1.69144 -0.255806 0)
(1.9065 -0.245569 0)
(2.11327 -0.232385 0)
(2.30994 -0.217214 6.9481e-23)
(2.49528 -0.200704 0)
(2.66834 -0.183218 0)
(2.82829 -0.164893 0)
(2.97432 -0.145667 0)
(3.10545 -0.125211 0)
(3.22038 -0.102942 0)
(3.31729 -0.0779531 0)
(3.3937 -0.0488662 1.42534e-22)
(3.44532 -0.013623 -9.71106e-23)
(3.47108 0.031931 3.48792e-23)
(3.45616 0.0884829 -4.48433e-23)
(3.39584 0.153395 0)
(3.28566 0.22255 0)
(3.12118 0.290548 3.80946e-22)
(2.90155 0.347405 5.16026e-22)
(2.62976 0.384442 0)
(2.3128 0.396915 0)
(1.96374 0.37819 9.05771e-22)
(1.60214 0.324344 0)
(1.25331 0.23905 0)
(0.944077 0.137026 -1.15525e-21)
(0.695821 0.0402147 0)
(0.51839 -0.0299633 -1.27212e-21)
(0.40442 -0.0557467 -2.65582e-21)
(0.333321 -0.0364553 0)
(0.288149 -0.00794312 0)
(0.261856 -0.00264763 0)
(0.254858 -0.0162006 0)
(0.272237 -0.0420594 0)
(0.325549 -0.0835547 -3.09937e-21)
(0.431804 -0.142423 -3.18025e-21)
(0.607592 -0.204977 -3.26829e-21)
(0.857879 -0.253233 0)
(1.16042 -0.272956 3.35551e-21)
(1.47755 -0.257362 0)
(1.76308 -0.204323 -3.17205e-21)
(1.97516 -0.12124 -3.00422e-21)
(2.09055 -0.0259813 0)
(2.09852 0.0492426 0)
(2.03281 0.0807627 0)
(1.93568 0.0829937 -2.39377e-21)
(1.81909 0.0890337 0)
(1.67344 0.101508 0)
(1.49548 0.0942734 0)
(1.27956 0.0792681 0)
(0.996781 0.0902048 0)
(0.622766 0.130638 0)
(0.142873 0.201416 0)
(-0.446741 0.294683 0)
(-1.13585 0.394379 -1.36343e-21)
(-1.90029 0.484535 0)
(-2.70839 0.553078 0)
(-3.52631 0.593695 4.56027e-21)
(-4.32311 0.60562 5.68691e-21)
(-5.07362 0.591559 0)
(-5.75917 0.555743 -7.75748e-21)
(-6.36707 0.502778 8.62546e-21)
(-6.88985 0.43595 0)
(-7.32387 0.362072 -9.90691e-21)
(-7.66873 0.287866 0)
(-7.92721 0.215985 0)
(-8.10347 0.14926 1.05556e-20)
(-8.20288 0.0903199 0)
(-8.23111 0.0412564 -1.01689e-20)
(-8.19762 0.00247191 0)
(-8.11844 -0.0284322 9.18845e-21)
(-7.99685 -0.054815 8.51406e-21)
(-7.83855 -0.0776578 7.74031e-21)
(-7.64815 -0.0973316 1.37757e-20)
(-7.43011 -0.11405 -1.19559e-20)
(-7.18863 -0.128051 0)
(-6.92763 -0.13956 0)
(-6.65085 -0.14876 0)
(-6.3619 -0.155802 -4.29526e-21)
(-6.06422 -0.160857 -2.44787e-21)
(-5.761 -0.164105 6.81621e-22)
(-5.45508 -0.165706 0)
(-5.1489 -0.165791 2.53481e-21)
(-4.84449 -0.164512 3.96087e-21)
(-4.54346 -0.162167 5.25717e-21)
(-4.24695 -0.159243 0)
(-3.95562 -0.156226 0)
(-3.66967 -0.153405 0)
(-3.38902 -0.150944 9.17327e-21)
(-3.11325 -0.148994 0)
(-2.84173 -0.147718 0)
(-2.57359 -0.147261 -1.09634e-20)
(-2.30783 -0.147746 0)
(-2.04333 -0.149276 0)
(-1.77895 -0.151826 -1.20412e-20)
(-1.51384 -0.154895 0)
(-1.24778 -0.156708 0)
(-0.982595 -0.153273 1.26154e-20)
(-0.726033 -0.141968 1.27252e-20)
(-0.475474 -0.134086 0)
(-0.216479 -0.138074 -1.29018e-20)
(0.0482083 -0.13924 0)
(0.31498 -0.136529 1.28832e-20)
(0.580351 -0.13828 0)
(0.847179 -0.144623 1.27292e-20)
(1.1214 -0.147903 1.264e-20)
(1.40087 -0.145676 0)
(1.68114 -0.140308 0)
(1.95937 -0.133087 0)
(2.23302 -0.12404 0)
(2.49956 -0.112972 0)
(2.75694 -0.100571 0)
(3.00335 -0.0874945 0)
(3.23696 -0.073816 1.13557e-20)
(3.45558 -0.0594224 -1.11463e-20)
(3.65655 -0.0442431 0)
(3.83701 -0.0282461 0)
(3.99426 -0.0116699 0)
(4.12565 0.00487714 0)
(4.22871 0.0202274 -2.02779e-20)
(4.30191 0.0329143 0)
(4.34211 0.0421209 1.96305e-20)
(4.34496 0.0516816 -1.93456e-20)
(4.31669 0.0610207 0)
(4.26457 0.0654058 0)
(4.19405 0.0668706 0)
(4.10913 0.0673754 1.85747e-20)
(4.01273 0.0672801 1.84627e-20)
(3.90777 0.0663303 0)
(3.79729 0.0642817 1.82987e-20)
(3.68424 0.0611631 1.82377e-20)
(3.57124 0.0572274 -1.81861e-20)
(3.46046 0.0527967 0)
(3.35357 0.0481523 0)
(3.25183 0.0434984 -1.80678e-20)
(3.15609 0.0389724 0)
(3.06694 0.034667 0)
(2.98465 0.0306486 0)
(2.90926 0.026967 0)
(2.84056 0.0236597 1.79447e-20)
(2.77816 0.0207522 1.79243e-20)
(2.72148 0.0182578 0)
(2.66988 0.0161699 1.78778e-20)
(2.62265 0.0144588 0)
(2.57915 0.0130879 0)
(2.53879 0.0120059 1.77764e-20)
(2.50112 0.0111354 0)
(2.46588 0.0103912 1.76797e-20)
(2.43296 0.0096917 0)
(2.40244 0.00896967 0)
(2.37447 0.00818557 1.74949e-20)
(2.34926 0.0073309 0)
(2.32698 0.00642206 1.73541e-20)
(2.30771 0.00549006 0)
(2.29143 0.00457551 0)
(2.27801 0.00372562 0)
(2.26719 0.00299058 -1.70528e-20)
(2.25855 0.00242125 0)
(2.25153 0.00204218 1.68959e-20)
(2.24555 0.00185104 0)
(2.24003 0.00184647 0)
(2.23446 0.00202901 0)
(2.22805 0.00241318 0)
(2.22064 0.00303918 0)
(2.20995 0.00401321 0)
(2.19842 0.00565024 0)
(2.17319 0.00877245 -3.25826e-20)
(2.15667 0.0184214 0)
(2.04209 0.0255878 0)
(0.0351228 0.00452461 -1.41784e-22)
(0.0862552 -0.0628792 1.73555e-22)
(0.177565 -0.153303 0)
(0.289442 -0.256419 -1.00774e-22)
(0.428081 -0.358818 0)
(0.591301 -0.449092 -1.28179e-22)
(0.774156 -0.520449 1.10731e-22)
(0.970133 -0.571549 9.09071e-23)
(1.17245 -0.606142 0)
(1.37556 -0.626028 3.0779e-24)
(1.57628 -0.631585 1.14486e-22)
(1.77281 -0.624482 0)
(1.96374 -0.607391 0)
(2.14803 -0.583019 0)
(2.32496 -0.553609 0)
(2.49409 -0.520862 -6.76437e-23)
(2.65512 -0.485939 0)
(2.80781 -0.449424 5.4813e-22)
(2.9519 -0.411532 0)
(3.08709 -0.372198 0)
(3.21304 -0.330991 -6.11176e-22)
(3.32934 -0.287134 0)
(3.43543 -0.239518 5.57751e-22)
(3.5307 -0.186668 -1.40159e-22)
(3.61544 -0.126738 9.56014e-23)
(3.68653 -0.0565713 -3.43665e-23)
(3.75221 0.0260943 4.41977e-23)
(3.80924 0.121548 0)
(3.85245 0.229202 0)
(3.87535 0.347491 -3.72138e-22)
(3.86888 0.472583 2.15121e-22)
(3.82236 0.597336 0)
(3.72487 0.710643 0)
(3.56759 0.798074 -8.64168e-22)
(3.34545 0.843986 0)
(3.0592 0.835544 0)
(2.71767 0.767906 1.0953e-21)
(2.33949 0.648204 0)
(1.95243 0.496858 -1.24648e-21)
(1.58899 0.343638 2.55459e-21)
(1.28224 0.214307 0)
(1.05163 0.118177 0)
(0.895465 0.0500641 5.74892e-21)
(0.800296 -0.00541378 5.87502e-21)
(0.758212 -0.0694601 5.9891e-21)
(0.769323 -0.160435 -3.03291e-21)
(0.837464 -0.285502 3.13752e-21)
(0.969843 -0.432961 9.55002e-21)
(1.16346 -0.564808 -6.43973e-21)
(1.4032 -0.635451 -3.29234e-21)
(1.65537 -0.615493 0)
(1.8781 -0.507626 3.12049e-21)
(2.0421 -0.338787 -2.84669e-21)
(2.13106 -0.147932 0)
(2.15093 0.0218417 0)
(2.09506 0.139769 0)
(1.95717 0.212504 2.36318e-21)
(1.73816 0.273618 0)
(1.4285 0.349198 -4.18459e-21)
(1.0022 0.453861 0)
(0.427677 0.608125 -3.29326e-21)
(-0.302108 0.809332 0)
(-1.16955 1.03105 1.40015e-21)
(-2.13396 1.24048 0)
(-3.14407 1.41047 1.66759e-21)
(-4.14542 1.52005 -2.32103e-21)
(-5.09033 1.55976 0)
(-5.94267 1.53154 -7.91423e-21)
(-6.67981 1.44581 -4.25307e-21)
(-7.29201 1.31761 -5.33708e-21)
(-7.78008 1.16287 0)
(-8.15252 0.995837 -8.99231e-21)
(-8.42271 0.827741 -8.27389e-21)
(-8.60625 0.666208 0)
(-8.7185 0.515238 9.62132e-21)
(-8.77363 0.376596 -2.1192e-20)
(-8.78337 0.25065 0)
(-8.75704 0.137279 -1.03754e-20)
(-8.70133 0.0364332 0)
(-8.62082 -0.0517819 3.07194e-20)
(-8.51454 -0.127648 0)
(-8.37293 -0.193068 -2.7647e-20)
(-8.1992 -0.250171 -8.36142e-21)
(-7.9949 -0.299515 8.0578e-21)
(-7.76328 -0.341187 1.43445e-20)
(-7.50795 -0.375536 -1.24709e-20)
(-7.23242 -0.403302 0)
(-6.93995 -0.425124 0)
(-6.63399 -0.441155 0)
(-6.31792 -0.45164 1.30702e-20)
(-5.99509 -0.456989 2.39788e-21)
(-5.6686 -0.457771 -6.6762e-22)
(-5.3413 -0.454689 0)
(-5.01555 -0.448542 2.2337e-21)
(-4.69319 -0.440123 -3.87932e-21)
(-4.37541 -0.430103 -5.15033e-21)
(-4.06288 -0.419012 0)
(-3.75611 -0.407339 0)
(-3.45549 -0.395571 0)
(-3.16112 -0.384141 -9.00441e-21)
(-2.87279 -0.373406 0)
(-2.59003 -0.363637 2.03357e-20)
(-2.31225 -0.354981 3.21069e-20)
(-2.03879 -0.347481 -2.21688e-20)
(-1.76901 -0.341098 0)
(-1.50232 -0.335638 -1.16031e-20)
(-1.23823 -0.330462 0)
(-0.976259 -0.324271 -2.43447e-20)
(-0.714959 -0.316201 1.22052e-20)
(-0.451874 -0.309678 1.23371e-20)
(-0.18219 -0.312411 0)
(0.0893291 -0.31732 3.79313e-20)
(0.361445 -0.319176 -2.5146e-20)
(0.637417 -0.317452 -1.26403e-20)
(0.917437 -0.313891 0)
(1.20122 -0.31369 -1.24837e-20)
(1.4873 -0.316631 -3.6885e-20)
(1.77519 -0.318731 0)
(2.06464 -0.317881 -2.4038e-20)
(2.35412 -0.314108 -2.37709e-20)
(2.64172 -0.308196 -2.34822e-20)
(2.92653 -0.300497 0)
(3.20766 -0.290848 0)
(3.4829 -0.279126 0)
(3.74901 -0.264883 1.09851e-20)
(4.00274 -0.247829 1.098e-20)
(4.24147 -0.228408 0)
(4.4625 -0.206823 2.106e-20)
(4.66302 -0.183002 2.07046e-20)
(4.8401 -0.156906 0)
(4.99078 -0.128449 2.00884e-20)
(5.11111 -0.0970454 3.95035e-20)
(5.19853 -0.062327 -1.94871e-20)
(5.25823 -0.0241309 -1.92089e-20)
(5.28149 0.00887346 0)
(5.26145 0.0337938 0)
(5.20156 0.0536628 0)
(5.10711 0.0689292 -1.84253e-20)
(4.98487 0.0801355 1.83977e-20)
(4.84242 0.0878883 3.6522e-20)
(4.68698 0.0926309 -1.81448e-20)
(4.52502 0.094752 1.81478e-20)
(4.36198 0.0946369 1.80297e-20)
(4.20219 0.0926702 0)
(4.04886 0.0892276 0)
(3.9042 0.0846643 -1.79178e-20)
(3.76957 0.0793082 0)
(3.64566 0.0734602 0)
(3.53266 0.0673951 3.56229e-20)
(3.43033 0.0613599 0)
(3.33814 0.0555674 1.77563e-20)
(3.2553 0.0501881 -1.77471e-20)
(3.18088 0.0453426 0)
(3.11383 0.0410892 1.76837e-20)
(3.05312 0.0374175 0)
(2.99777 0.0342804 0)
(2.94691 0.0315904 -1.75902e-20)
(2.89986 0.029213 3.50784e-20)
(2.85614 0.0270115 -1.74939e-20)
(2.81549 0.0248594 0)
(2.77787 0.0226596 0)
(2.74336 0.0203649 1.7306e-20)
(2.71213 0.0179801 0)
(2.68431 0.0155507 1.71749e-20)
(2.65999 0.0131431 0)
(2.63912 0.0108334 0)
(2.62157 0.00869754 0)
(2.60707 0.00682092 1.69021e-20)
(2.59521 0.00532459 0)
(2.58544 0.00427085 -1.67508e-20)
(2.57712 0.00363554 0)
(2.56958 0.00340115 0)
(2.56225 0.00356262 3.30207e-20)
(2.55422 0.00414704 -3.28592e-20)
(2.5454 0.00521314 0)
(2.5332 0.00695137 0)
(2.52093 0.00983245 0)
(2.49483 0.0147737 9.6751e-20)
(2.48443 0.0288625 0)
(2.40731 0.0452549 -6.3699e-20)
(0.0597 -0.177177 1.41532e-22)
(0.14803 -0.289005 -5.92695e-23)
(0.286819 -0.424974 0)
(0.436535 -0.574138 4.29186e-23)
(0.59975 -0.716487 0)
(0.77212 -0.836619 0)
(0.947907 -0.927038 -2.42223e-22)
(1.12296 -0.986869 -8.96767e-23)
(1.29411 -1.0189 2.47287e-22)
(1.45901 -1.02722 -3.04606e-24)
(1.61669 -1.01648 0)
(1.76729 -0.991394 0)
(1.91142 -0.956178 -5.65509e-22)
(2.04986 -0.914204 -1.28962e-21)
(2.18319 -0.867891 1.4367e-21)
(2.31196 -0.81896 0)
(2.43658 -0.76857 1.67065e-21)
(2.55757 -0.716916 -5.49373e-22)
(2.6753 -0.663832 0)
(2.78992 -0.609126 1.82165e-21)
(2.90135 -0.552186 6.13884e-22)
(3.00909 -0.491984 -1.75831e-21)
(3.11226 -0.427305 -5.60199e-22)
(3.2098 -0.356987 0)
(3.30068 -0.280037 1.35812e-21)
(3.38369 -0.196198 1.12869e-21)
(3.45841 -0.103422 0)
(3.52636 0.00174971 5.11239e-22)
(3.58971 0.122466 0)
(3.65039 0.260728 -3.14834e-22)
(3.70922 0.416464 -7.17417e-22)
(3.76414 0.586665 0)
(3.80876 0.764155 0)
(3.83183 0.936384 0)
(3.81781 1.08604 0)
(3.74932 1.1937 0)
(3.61117 1.24184 0)
(3.39589 1.21924 -4.33922e-21)
(3.10828 1.12512 7.12591e-21)
(2.76784 0.970943 0)
(2.40739 0.778106 0)
(2.06475 0.571522 0)
(1.77117 0.371747 2.26781e-22)
(1.54571 0.186688 -5.74446e-21)
(1.39439 0.00642845 -1.19916e-20)
(1.31613 -0.189161 1.22227e-20)
(1.30598 -0.413589 6.30747e-21)
(1.35997 -0.652203 -6.25881e-21)
(1.47266 -0.855016 -1.14748e-22)
(1.62512 -0.957442 -6.47214e-21)
(1.78254 -0.915653 0)
(1.90683 -0.736088 -6.0931e-21)
(1.96872 -0.466106 7.13886e-24)
(1.95364 -0.168445 0)
(1.85785 0.106443 0)
(1.67488 0.340201 4.90466e-21)
(1.38524 0.549681 0)
(0.963215 0.774064 0)
(0.387102 1.0468 -3.7882e-21)
(-0.356193 1.3762 -6.8155e-21)
(-1.24782 1.74083 3.16538e-21)
(-2.2353 2.09428 0)
(-3.25013 2.38991 -1.31934e-21)
(-4.22638 2.59126 0)
(-5.11079 2.67908 6.24753e-21)
(-5.86721 2.65264 3.4262e-21)
(-6.48207 2.52585 -1.67192e-20)
(-6.96006 2.3224 -1.35673e-20)
(-7.31871 2.06965 0)
(-7.5816 1.79337 2.97851e-20)
(-7.77253 1.51417 0)
(-7.91159 1.24619 5.30581e-20)
(-8.01334 0.99761 3.95823e-20)
(-8.08677 0.771977 4.17934e-20)
(-8.13618 0.569949 -4.34369e-20)
(-8.16234 0.390263 6.54799e-20)
(-8.1636 0.230326 0)
(-8.13724 0.0869984 0)
(-8.08064 -0.0428566 -4.41068e-20)
(-7.99154 -0.161929 -6.31256e-20)
(-7.86875 -0.271789 0)
(-7.71378 -0.372097 1.83708e-20)
(-7.5284 -0.461757 0)
(-7.31479 -0.540411 -4.7676e-20)
(-7.07616 -0.607694 1.15789e-21)
(-6.81518 -0.664048 -1.0172e-21)
(-6.53493 -0.709579 2.10898e-20)
(-6.23879 -0.744779 0)
(-5.93061 -0.770313 -1.31992e-20)
(-5.61386 -0.786591 4.83985e-22)
(-5.29186 -0.794312 0)
(-4.9676 -0.794412 0)
(-4.64365 -0.788025 0)
(-4.32212 -0.776456 -4.71643e-21)
(-4.00469 -0.761116 0)
(-3.69261 -0.743351 0)
(-3.38675 -0.724193 0)
(-3.08766 -0.704372 0)
(-2.79552 -0.684536 0)
(-2.51022 -0.665362 -1.77587e-20)
(-2.23137 -0.647469 0)
(-1.9584 -0.631327 -2.03754e-20)
(-1.69063 -0.617179 -2.13713e-20)
(-1.42734 -0.605117 2.2213e-20)
(-1.16775 -0.59515 0)
(-0.911085 -0.587163 2.35098e-20)
(-0.656528 -0.580701 0)
(-0.402805 -0.574887 2.44086e-20)
(-0.147693 -0.568868 -2.47467e-20)
(0.110994 -0.563591 -7.43271e-20)
(0.37281 -0.562048 0)
(0.634385 -0.563735 -7.42523e-20)
(0.896456 -0.56535 -2.434e-20)
(1.1618 -0.565932 0)
(1.43176 -0.567034 -4.87044e-20)
(1.70527 -0.569588 -4.83605e-20)
(1.98013 -0.571516 7.22028e-20)
(2.25578 -0.570386 0)
(2.53264 -0.56532 2.37833e-20)
(2.81053 -0.556406 2.35194e-20)
(3.08858 -0.544278 6.91757e-20)
(3.36537 -0.529549 0)
(3.63863 -0.511686 0)
(3.90571 -0.489751 0)
(4.16391 -0.463356 2.13463e-20)
(4.41142 -0.432368 0)
(4.64638 -0.396494 0)
(4.86706 -0.35591 -2.07714e-20)
(5.07238 -0.31105 -2.04284e-20)
(5.26124 -0.261815 0)
(5.43241 -0.207951 0)
(5.58442 -0.150018 -3.90587e-20)
(5.71565 -0.089646 0)
(5.82216 -0.0295126 3.81143e-20)
(5.90031 0.026562 3.74116e-20)
(5.94841 0.0819154 0)
(5.96056 0.132441 0)
(5.93063 0.174796 -3.65727e-20)
(5.85794 0.207168 -1.97195e-22)
(5.74569 0.228865 -1.67917e-22)
(5.60027 0.240278 0)
(5.4303 0.24271 -7.2286e-20)
(5.24525 0.237972 0)
(5.05408 0.227973 0)
(4.86438 0.214445 0)
(4.68185 0.198804 3.59328e-20)
(4.5103 0.18214 0)
(4.35186 0.16527 -7.15897e-20)
(4.20739 0.148801 -3.58076e-20)
(4.0768 0.133189 0)
(3.9594 0.118769 -3.57391e-20)
(3.85413 0.105772 0)
(3.75972 0.0943304 0)
(3.67485 0.0844599 -1.06812e-19)
(3.59829 0.0760517 7.10899e-20)
(3.52889 0.0689608 0)
(3.46571 0.0629823 7.07941e-20)
(3.40805 0.0578204 -3.53107e-20)
(3.35544 0.053171 0)
(3.30759 0.0487496 0)
(3.26438 0.0443348 0)
(3.22575 0.0398082 -1.04542e-19)
(3.19169 0.0351601 0)
(3.16209 0.0304658 -3.45968e-20)
(3.13676 0.0258488 0)
(3.11537 0.0214608 0)
(3.09745 0.017473 0)
(3.08243 0.0140434 0)
(3.06958 0.0112712 0)
(3.05848 0.00921976 0)
(3.04851 0.00794043 -6.72127e-20)
(3.03891 0.00744613 0)
(3.02904 0.00774196 -3.33029e-20)
(3.0179 0.00884079 9.94202e-20)
(3.0053 0.0109241 0)
(2.98844 0.0141107 0)
(2.97051 0.0196013 -6.53782e-20)
(2.93772 0.0272412 -6.50884e-20)
(2.91817 0.0466442 6.48861e-20)
(2.83916 0.0686337 6.43039e-20)
(0.0736252 -0.422775 -6.53624e-22)
(0.180654 -0.582957 -5.23492e-22)
(0.338356 -0.749311 -5.38227e-22)
(0.495735 -0.916934 -5.34588e-22)
(0.652225 -1.06296 0)
(0.803448 -1.17411 7.7369e-22)
(0.945338 -1.24728 -7.77511e-22)
(1.07661 -1.28568 0)
(1.19749 -1.29539 -2.46547e-22)
(1.3089 -1.28298 0)
(1.41231 -1.25445 1.6097e-21)
(1.50947 -1.21489 0)
(1.60205 -1.1683 5.68943e-22)
(1.69158 -1.11756 1.29967e-21)
(1.77893 -1.06442 -1.45009e-21)
(1.86557 -1.01002 0)
(1.95244 -0.955269 -1.69126e-21)
(2.0409 -0.900387 0)
(2.13236 -0.845761 0)
(2.22718 -0.790584 -1.85421e-21)
(2.3249 -0.732728 0)
(2.42484 -0.670035 -6.27617e-22)
(2.52599 -0.600644 0)
(2.62711 -0.523008 0)
(2.72684 -0.435703 5.77197e-22)
(2.82339 -0.337234 -1.14636e-21)
(2.91547 -0.22732 -1.40133e-21)
(3.0025 -0.107468 -5.18457e-22)
(3.0846 0.0211043 0)
(3.16331 0.158469 1.62814e-22)
(3.24109 0.30566 0)
(3.3208 0.464333 8.92738e-22)
(3.40457 0.635779 0)
(3.49189 0.818627 0)
(3.57699 1.00602 -2.58889e-21)
(3.64769 1.18511 0)
(3.68554 1.33734 3.69248e-21)
(3.66944 1.44068 8.26951e-23)
(3.58188 1.47468 -9.37722e-21)
(3.4157 1.42614 1.03019e-20)
(3.1788 1.29375 0)
(2.89439 1.08974 0)
(2.59574 0.836547 6.60067e-21)
(2.31746 0.557918 0)
(2.08703 0.268049 5.98217e-21)
(1.91616 -0.0342802 -6.12279e-21)
(1.80818 -0.355123 -6.23225e-21)
(1.7616 -0.68304 0)
(1.76875 -0.958809 6.41737e-21)
(1.80729 -1.09222 6.42032e-21)
(1.8412 -1.02632 -1.3187e-20)
(1.83459 -0.774551 6.08027e-21)
(1.76199 -0.403331 5.79724e-21)
(1.60792 0.00700013 0)
(1.3619 0.404068 0)
(1.00569 0.784226 -4.91642e-21)
(0.510218 1.17969 0)
(-0.146869 1.62398 0)
(-0.958499 2.11459 7.73527e-21)
(-1.8821 2.61042 6.48491e-21)
(-2.84645 3.05281 0)
(-3.77621 3.38587 0)
(-4.60831 3.57285 0)
(-5.30239 3.60457 0)
(-5.84505 3.49363 -7.63428e-21)
(-6.24655 3.27017 1.8067e-20)
(-6.53338 2.97172 1.65219e-20)
(-6.7379 2.63454 4.79459e-20)
(-6.88988 2.28777 0)
(-7.01116 1.95098 4.90098e-21)
(-7.11436 1.63486 0)
(-7.20437 1.3435 -3.66431e-20)
(-7.28092 1.07692 3.66493e-21)
(-7.34102 0.833026 -4.16431e-20)
(-7.38063 0.609045 4.33347e-20)
(-7.39577 0.402284 2.86751e-21)
(-7.38312 0.210501 0)
(-7.34024 0.0319912 4.7441e-20)
(-7.26556 -0.134312 4.41107e-20)
(-7.15847 -0.288819 8.75965e-20)
(-7.01937 -0.431833 0)
(-6.84895 -0.562927 -4.02387e-20)
(-6.64846 -0.681287 0)
(-6.42002 -0.786182 6.60524e-20)