/*--------------------------------*- C++ -*----------------------------------*\
| =========                 |                                                 |
| \\      /  F ield         | OpenFOAM: The Open Source CFD Toolbox           |
|  \\    /   O peration     | Version:  2112                                  |
|   \\  /    A nd           | Website:  www.openfoam.com                      |
|    \\/     M anipulation  |                                                 |
\*---------------------------------------------------------------------------*/
FoamFile
{
    version     2.0;
    format      ascii;
    arch        "LSB;label=32;scalar=64";
    class       volVectorField;
    location    "0.35";
    object      ddt0(U);
}
// * * * * * * * * * * * * * * * * * * * * * * * * * * * * * * * * * * * * * //

dimensions      [0 1 -2 0 0 0 0];

internalField   nonuniform List<vector> 
12225
(
(2.38813e-07 2.41591e-07 0)
(-3.69901e-07 6.26827e-07 0)
(-2.75997e-06 9.97778e-07 0)
(-7.82941e-06 1.4316e-06 0)
(-1.55261e-05 1.92044e-06 0)
(-2.56073e-05 2.42299e-06 0)
(-3.77626e-05 2.8988e-06 0)
(-5.14286e-05 3.29259e-06 0)
(-6.59036e-05 3.61901e-06 0)
(-8.05686e-05 3.98162e-06 0)
(-9.50471e-05 4.43244e-06 0)
(-0.000108245 5.51577e-06 0)
(-0.000122993 3.79957e-06 0)
(-0.000134338 2.65791e-06 0)
(-0.000145111 4.22291e-06 0)
(-0.000166215 6.99143e-06 0)
(-0.000185915 1.12053e-05 0)
(-0.000189901 -2.48056e-06 0)
(8.64042e-07 4.983e-07 0)
(2.89621e-06 1.26165e-06 0)
(4.81577e-06 2.0566e-06 0)
(5.52613e-06 2.95961e-06 0)
(4.72191e-06 3.97251e-06 0)
(2.19583e-06 5.01879e-06 0)
(-2.29809e-06 6.02027e-06 0)
(-9.03773e-06 6.90006e-06 0)
(-1.82261e-05 7.63251e-06 0)
(-3.00055e-05 8.23334e-06 0)
(-4.4448e-05 8.69653e-06 0)
(-6.2146e-05 9.27563e-06 0)
(-8.23259e-05 8.52855e-06 0)
(-0.000107852 8.30907e-06 0)
(-0.000137896 9.69796e-06 0)
(-0.000164035 1.14278e-05 0)
(-0.000188208 1.10731e-05 0)
(-0.000216267 -9.29543e-07 0)
(6.03633e-07 6.52444e-07 0)
(1.88543e-06 1.54576e-06 0)
(3.23299e-06 2.49834e-06 0)
(4.1325e-06 3.54989e-06 0)
(4.67102e-06 4.73817e-06 0)
(4.85866e-06 6.01239e-06 0)
(4.50872e-06 7.3426e-06 0)
(3.34424e-06 8.71042e-06 0)
(1.01602e-06 1.0111e-05 0)
(-2.87791e-06 1.15406e-05 0)
(-8.78342e-06 1.30494e-05 0)
(-1.71577e-05 1.46354e-05 0)
(-2.81547e-05 1.72236e-05 0)
(-4.23681e-05 2.0316e-05 0)
(-6.05057e-05 2.34902e-05 0)
(-8.24442e-05 2.57523e-05 0)
(-0.000108063 2.49987e-05 0)
(-0.000140694 1.45703e-05 0)
(6.19995e-07 9.14436e-07 0)
(1.73905e-06 2.05216e-06 0)
(2.59504e-06 3.21811e-06 0)
(2.624e-06 4.43298e-06 0)
(1.93805e-06 5.76665e-06 0)
(6.64343e-07 7.21235e-06 0)
(-1.18512e-06 8.7791e-06 0)
(-3.6357e-06 1.04851e-05 0)
(-6.74226e-06 1.2366e-05 0)
(-1.05939e-05 1.44895e-05 0)
(-1.52916e-05 1.69621e-05 0)
(-2.09571e-05 1.99722e-05 0)
(-2.76378e-05 2.36432e-05 0)
(-3.54223e-05 2.76628e-05 0)
(-4.43144e-05 3.2154e-05 0)
(-5.45798e-05 3.65572e-05 0)
(-6.70096e-05 3.91102e-05 0)
(-8.96913e-05 3.57033e-05 0)
(6.5012e-07 1.19693e-06 0)
(1.80994e-06 2.61598e-06 0)
(2.66251e-06 4.0657e-06 0)
(2.6355e-06 5.55372e-06 0)
(1.78581e-06 7.1542e-06 0)
(1.86849e-07 8.86888e-06 0)
(-2.1845e-06 1.07045e-05 0)
(-5.38163e-06 1.26605e-05 0)
(-9.46942e-06 1.47567e-05 0)
(-1.45253e-05 1.70275e-05 0)
(-2.06289e-05 1.95418e-05 0)
(-2.7858e-05 2.23767e-05 0)
(-3.62144e-05 2.56676e-05 0)
(-4.56591e-05 2.9459e-05 0)
(-5.62024e-05 3.38032e-05 0)
(-6.80387e-05 3.82378e-05 0)
(-8.2483e-05 4.18699e-05 0)
(-0.000103009 4.38455e-05 0)
(6.80212e-07 1.4678e-06 0)
(1.87986e-06 3.1465e-06 0)
(2.75382e-06 4.8544e-06 0)
(2.77267e-06 6.59987e-06 0)
(1.98474e-06 8.46524e-06 0)
(4.45974e-07 1.04666e-05 0)
(-1.87742e-06 1.26237e-05 0)
(-5.04661e-06 1.49564e-05 0)
(-9.13234e-06 1.75121e-05 0)
(-1.42149e-05 2.03587e-05 0)
(-2.03758e-05 2.36005e-05 0)
(-2.76912e-05 2.73623e-05 0)
(-3.62088e-05 3.18019e-05 0)
(-4.6003e-05 3.69461e-05 0)
(-5.72661e-05 4.27239e-05 0)
(-7.04362e-05 4.89287e-05 0)
(-8.65589e-05 5.52946e-05 0)
(-0.000107932 6.31276e-05 0)
(7.09634e-07 1.71822e-06 0)
(1.94984e-06 3.66082e-06 0)
(2.84799e-06 5.64969e-06 0)
(2.91752e-06 7.68746e-06 0)
(2.20334e-06 9.85675e-06 0)
(7.54115e-07 1.21839e-05 0)
(-1.46285e-06 1.46976e-05 0)
(-4.50315e-06 1.74311e-05 0)
(-8.43059e-06 2.04391e-05 0)
(-1.3316e-05 2.37942e-05 0)
(-1.9234e-05 2.75945e-05 0)
(-2.62593e-05 3.19476e-05 0)
(-3.44689e-05 3.69638e-05 0)
(-4.39817e-05 4.26868e-05 0)
(-5.50183e-05 4.91507e-05 0)
(-6.79977e-05 5.64399e-05 0)
(-8.36158e-05 6.48396e-05 0)
(-0.000103294 7.57527e-05 0)
(7.38345e-07 1.94436e-06 0)
(2.02109e-06 4.15893e-06 0)
(2.94824e-06 6.43643e-06 0)
(3.07499e-06 8.76763e-06 0)
(2.44381e-06 1.12372e-05 0)
(1.09599e-06 1.38851e-05 0)
(-9.96383e-07 1.67518e-05 0)
(-3.8817e-06 1.98843e-05 0)
(-7.61286e-06 2.33474e-05 0)
(-1.2248e-05 2.72239e-05 0)
(-1.78484e-05 3.16191e-05 0)
(-2.44798e-05 3.66494e-05 0)
(-3.22203e-05 4.24383e-05 0)
(-4.11872e-05 4.90968e-05 0)
(-5.15723e-05 5.67652e-05 0)
(-6.36853e-05 6.56911e-05 0)
(-7.79119e-05 7.63531e-05 0)
(-9.48771e-05 9.00537e-05 0)
(7.65401e-07 2.13747e-06 0)
(2.09181e-06 4.6285e-06 0)
(3.05487e-06 7.20094e-06 0)
(3.24978e-06 9.83217e-06 0)
(2.7185e-06 1.26125e-05 0)
(1.49628e-06 1.55952e-05 0)
(-4.40288e-07 1.8831e-05 0)
(-3.13181e-06 2.23776e-05 0)
(-6.62049e-06 2.63085e-05 0)
(-1.0951e-05 3.0715e-05 0)
(-1.61699e-05 3.57076e-05 0)
(-2.23297e-05 4.14103e-05 0)
(-2.94986e-05 4.79585e-05 0)
(-3.77737e-05 5.54983e-05 0)
(-4.72925e-05 6.4224e-05 0)
(-5.82285e-05 7.44564e-05 0)
(-7.07003e-05 8.67121e-05 0)
(-8.48796e-05 0.000102057 0)
(7.89603e-07 2.28969e-06 0)
(2.16052e-06 5.05356e-06 0)
(3.16775e-06 7.92633e-06 0)
(3.44413e-06 1.08642e-05 0)
(3.0326e-06 1.39631e-05 0)
(1.96324e-06 1.72875e-05 0)
(2.17581e-07 2.08969e-05 0)
(-2.23653e-06 2.48582e-05 0)
(-5.4294e-06 2.92531e-05 0)
(-9.39159e-06 3.41797e-05 0)
(-1.41537e-05 3.97541e-05 0)
(-1.97515e-05 4.61073e-05 0)
(-2.62332e-05 5.33852e-05 0)
(-3.36606e-05 6.17585e-05 0)
(-4.20998e-05 7.14538e-05 0)
(-5.1593e-05 8.28142e-05 0)
(-6.20679e-05 9.63055e-05 0)
(-7.34478e-05 0.000112725 0)
(8.08511e-07 2.41471e-06 0)
(2.22505e-06 5.45987e-06 0)
(3.28857e-06 8.63766e-06 0)
(3.66191e-06 1.18843e-05 0)
(3.39188e-06 1.53039e-05 0)
(2.50487e-06 1.89712e-05 0)
(9.88289e-07 2.29535e-05 0)
(-1.18054e-06 2.73255e-05 0)
(-4.0195e-06 3.2176e-05 0)
(-7.54362e-06 3.76085e-05 0)
(-1.17665e-05 4.37428e-05 0)
(-1.67038e-05 5.07134e-05 0)
(-2.23773e-05 5.86704e-05 0)
(-2.8807e-05 6.77918e-05 0)
(-3.59876e-05 7.83075e-05 0)
(-4.3859e-05 9.053e-05 0)
(-5.22402e-05 0.000104822 0)
(-6.09412e-05 0.000121733 0)
(8.2629e-07 2.55769e-06 0)
(2.28641e-06 5.89675e-06 0)
(3.4084e-06 9.3615e-06 0)
(3.88498e-06 1.289e-05 0)
(3.76625e-06 1.66022e-05 0)
(3.07586e-06 2.05806e-05 0)
(1.80615e-06 2.48989e-05 0)
(-5.56674e-08 2.96375e-05 0)
(-2.51546e-06 3.48914e-05 0)
(-5.57379e-06 4.07668e-05 0)
(-9.22802e-06 4.73845e-05 0)
(-1.34737e-05 5.4876e-05 0)
(-1.83077e-05 6.33856e-05 0)
(-2.37105e-05 7.30846e-05 0)
(-2.96225e-05 8.41857e-05 0)
(-3.59212e-05 9.69519e-05 0)
(-4.23808e-05 0.000111646 0)
(-4.87909e-05 0.000128633 0)
(8.51479e-07 2.6637e-06 0)
(2.3578e-06 6.28468e-06 0)
(3.53404e-06 1.00305e-05 0)
(4.12477e-06 1.3832e-05 0)
(4.17622e-06 1.78265e-05 0)
(3.70807e-06 2.21034e-05 0)
(2.71784e-06 2.67402e-05 0)
(1.20373e-06 3.18222e-05 0)
(-8.28692e-07 3.74489e-05 0)
(-3.36623e-06 4.37288e-05 0)
(-6.39046e-06 5.07794e-05 0)
(-9.88074e-06 5.87215e-05 0)
(-1.38075e-05 6.76865e-05 0)
(-1.81151e-05 7.78267e-05 0)
(-2.27019e-05 8.93226e-05 0)
(-2.74058e-05 0.000102377 0)
(-3.19956e-05 0.000117176 0)
(-3.62992e-05 0.000133973 0)
(8.80944e-07 2.6234e-06 0)
(2.44365e-06 6.50709e-06 0)
(3.69087e-06 1.05535e-05 0)
(4.42849e-06 1.46498e-05 0)
(4.70082e-06 1.89499e-05 0)
(4.52047e-06 2.35512e-05 0)
(3.89158e-06 2.85334e-05 0)
(2.82567e-06 3.39838e-05 0)
(1.34301e-06 4.0002e-05 0)
(-5.3016e-07 4.66937e-05 0)
(-2.76293e-06 5.41651e-05 0)
(-5.31639e-06 6.25209e-05 0)
(-8.13698e-06 7.18736e-05 0)
(-1.11362e-05 8.23436e-05 0)
(-1.4182e-05 9.40718e-05 0)
(-1.70831e-05 0.000107173 0)
(-1.96132e-05 0.000121745 0)
(-2.16576e-05 0.000137923 0)
(9.0573e-07 2.41208e-06 0)
(2.5335e-06 6.54364e-06 0)
(3.87904e-06 1.08952e-05 0)
(4.8099e-06 1.52849e-05 0)
(5.37135e-06 1.98843e-05 0)
(5.56677e-06 2.47925e-05 0)
(5.40524e-06 3.00955e-05 0)
(4.9134e-06 3.58874e-05 0)
(4.12533e-06 4.22645e-05 0)
(3.07781e-06 4.93184e-05 0)
(1.81205e-06 5.71345e-05 0)
(3.83057e-07 6.57924e-05 0)
(-1.1359e-06 7.53709e-05 0)
(-2.62778e-06 8.59508e-05 0)
(-3.96589e-06 9.76532e-05 0)
(-4.9755e-06 0.000110596 0)
(-5.46208e-06 0.000125034 0)
(-5.37595e-06 0.000140691 0)
(9.18452e-07 1.98751e-06 0)
(2.61675e-06 6.34015e-06 0)
(4.09429e-06 1.09882e-05 0)
(5.27024e-06 1.56676e-05 0)
(6.18975e-06 2.05996e-05 0)
(6.85113e-06 2.58219e-05 0)
(7.27931e-06 3.14087e-05 0)
(7.51375e-06 3.74731e-05 0)
(7.58945e-06 4.41153e-05 0)
(7.54314e-06 5.14115e-05 0)
(7.41861e-06 5.94247e-05 0)
(7.27674e-06 6.81935e-05 0)
(7.20303e-06 7.77428e-05 0)
(7.37262e-06 8.79789e-05 0)
(8.00186e-06 9.89339e-05 0)
(9.56359e-06 0.00010995 0)
(1.16417e-05 0.000123285 0)
(1.35362e-05 0.00013807 0)
(9.1807e-07 1.29146e-06 0)
(2.70661e-06 5.74885e-06 0)
(4.37994e-06 1.05524e-05 0)
(5.92762e-06 1.52764e-05 0)
(7.32574e-06 2.04016e-05 0)
(8.51805e-06 2.58493e-05 0)
(9.61915e-06 3.16373e-05 0)
(1.07096e-05 3.78662e-05 0)
(1.18058e-05 4.46292e-05 0)
(1.29251e-05 5.19986e-05 0)
(1.40857e-05 6.00372e-05 0)
(1.53216e-05 6.88102e-05 0)
(1.65225e-05 7.83702e-05 0)
(1.78404e-05 8.88007e-05 0)
(1.83795e-05 0.000100034 0)
(2.21264e-05 0.000112287 0)
(2.88878e-05 0.000124058 0)
(3.36264e-05 0.000136 0)
(8.81554e-07 4.2079e-07 0)
(2.69321e-06 5.05833e-06 0)
(4.4467e-06 1.00705e-05 0)
(6.45941e-06 1.50317e-05 0)
(8.62614e-06 2.00167e-05 0)
(1.05364e-05 2.52592e-05 0)
(1.24482e-05 3.08977e-05 0)
(1.45188e-05 3.69701e-05 0)
(1.67767e-05 4.35038e-05 0)
(1.92478e-05 5.05384e-05 0)
(2.2008e-05 5.81101e-05 0)
(2.5146e-05 6.62558e-05 0)
(2.88763e-05 7.49966e-05 0)
(3.31763e-05 8.44356e-05 0)
(3.88712e-05 9.45067e-05 0)
(4.2641e-05 0.000105781 0)
(4.46782e-05 0.000115986 0)
(4.95601e-05 0.000126023 0)
(8.05432e-07 -8.28116e-07 0)
(2.59388e-06 3.56501e-06 0)
(4.70902e-06 8.38227e-06 0)
(6.81584e-06 1.31082e-05 0)
(9.02707e-06 1.77908e-05 0)
(1.17051e-05 2.26761e-05 0)
(1.46751e-05 2.78932e-05 0)
(1.78497e-05 3.34575e-05 0)
(2.12653e-05 3.93726e-05 0)
(2.49724e-05 4.56488e-05 0)
(2.90023e-05 5.22882e-05 0)
(3.33733e-05 5.92677e-05 0)
(3.80976e-05 6.65495e-05 0)
(4.31684e-05 7.40267e-05 0)
(4.85835e-05 8.16782e-05 0)
(5.43226e-05 8.91038e-05 0)
(6.07264e-05 9.75703e-05 0)
(6.81757e-05 0.000106647 0)
(7.20782e-07 -1.94726e-06 0)
(2.45745e-06 1.83529e-06 0)
(4.62797e-06 6.08173e-06 0)
(7.1568e-06 1.01112e-05 0)
(1.00529e-05 1.44073e-05 0)
(1.33461e-05 1.88937e-05 0)
(1.6967e-05 2.35554e-05 0)
(2.08878e-05 2.84368e-05 0)
(2.51378e-05 3.35714e-05 0)
(2.97503e-05 3.89712e-05 0)
(3.47449e-05 4.46347e-05 0)
(4.01376e-05 5.05539e-05 0)
(4.59465e-05 5.67151e-05 0)
(5.21878e-05 6.31014e-05 0)
(5.88772e-05 6.9698e-05 0)
(6.60047e-05 7.6486e-05 0)
(7.34764e-05 8.34436e-05 0)
(8.13954e-05 9.04648e-05 0)
(6.56714e-07 -2.43272e-06 0)
(2.3725e-06 9.08954e-07 0)
(4.66883e-06 4.70413e-06 0)
(7.4732e-06 8.3264e-06 0)
(1.06965e-05 1.2073e-05 0)
(1.43179e-05 1.59399e-05 0)
(1.83291e-05 1.99459e-05 0)
(2.27228e-05 2.41296e-05 0)
(2.75028e-05 2.85115e-05 0)
(3.26779e-05 3.30937e-05 0)
(3.82547e-05 3.7868e-05 0)
(4.42377e-05 4.28209e-05 0)
(5.06279e-05 4.7932e-05 0)
(5.74218e-05 5.31737e-05 0)
(6.46102e-05 5.85147e-05 0)
(7.218e-05 6.39214e-05 0)
(8.00861e-05 6.9361e-05 0)
(8.84799e-05 7.48839e-05 0)
(5.88756e-07 -2.65304e-06 0)
(2.2526e-06 1.89191e-07 0)
(4.61741e-06 3.44017e-06 0)
(7.58671e-06 6.51511e-06 0)
(1.1034e-05 9.67648e-06 0)
(1.49254e-05 1.29564e-05 0)
(1.9248e-05 1.63734e-05 0)
(2.39865e-05 1.99402e-05 0)
(2.91334e-05 2.36583e-05 0)
(3.46893e-05 2.75244e-05 0)
(4.06561e-05 3.15307e-05 0)
(4.70327e-05 3.56647e-05 0)
(5.38133e-05 3.99089e-05 0)
(6.09901e-05 4.42416e-05 0)
(6.85533e-05 4.86395e-05 0)
(7.64944e-05 5.30824e-05 0)
(8.47679e-05 5.75448e-05 0)
(9.35332e-05 6.20543e-05 0)
(5.24726e-07 -2.6576e-06 0)
(2.13433e-06 -2.95853e-07 0)
(4.55405e-06 2.43408e-06 0)
(7.65623e-06 5.01248e-06 0)
(1.12816e-05 7.6728e-06 0)
(1.53797e-05 1.04354e-05 0)
(1.99272e-05 1.3306e-05 0)
(2.49042e-05 1.62899e-05 0)
(3.0299e-05 1.93821e-05 0)
(3.61119e-05 2.25803e-05 0)
(4.23412e-05 2.58793e-05 0)
(4.89792e-05 2.92701e-05 0)
(5.60124e-05 3.27354e-05 0)
(6.34258e-05 3.62547e-05 0)
(7.1203e-05 3.9804e-05 0)
(7.93316e-05 4.33628e-05 0)
(8.77657e-05 4.69076e-05 0)
(9.66795e-05 5.04696e-05 0)
(4.66167e-07 -2.49372e-06 0)
(2.02701e-06 -5.79249e-07 0)
(4.49198e-06 1.66092e-06 0)
(7.6952e-06 3.78249e-06 0)
(1.14471e-05 5.99055e-06 0)
(1.56848e-05 8.29289e-06 0)
(2.03826e-05 1.06818e-05 0)
(2.55164e-05 1.316e-05 0)
(3.10732e-05 1.5717e-05 0)
(3.70549e-05 1.83484e-05 0)
(4.34574e-05 2.10493e-05 0)
(5.02676e-05 2.38133e-05 0)
(5.74647e-05 2.66227e-05 0)
(6.5028e-05 2.9454e-05 0)
(7.29392e-05 3.22837e-05 0)
(8.11895e-05 3.50887e-05 0)
(8.97466e-05 3.78465e-05 0)
(9.88302e-05 4.05815e-05 0)
(4.14567e-07 -2.20914e-06 0)
(1.9342e-06 -6.95277e-07 0)
(4.44141e-06 1.09194e-06 0)
(7.73381e-06 2.78111e-06 0)
(1.15959e-05 4.5559e-06 0)
(1.59461e-05 6.42707e-06 0)
(2.07568e-05 8.37353e-06 0)
(2.60048e-05 1.03953e-05 0)
(3.16745e-05 1.24755e-05 0)
(3.77718e-05 1.46084e-05 0)
(4.42937e-05 1.67885e-05 0)
(5.12223e-05 1.90143e-05 0)
(5.85259e-05 2.12695e-05 0)
(6.61789e-05 2.35313e-05 0)
(7.41585e-05 2.5782e-05 0)
(8.24495e-05 2.80051e-05 0)
(9.10248e-05 3.01864e-05 0)
(0.000100122 3.2357e-05 0)
(3.71667e-07 -1.85505e-06 0)
(1.85707e-06 -6.77492e-07 0)
(4.39114e-06 7.46946e-07 0)
(7.74676e-06 2.10318e-06 0)
(1.16998e-05 3.52972e-06 0)
(1.61486e-05 5.04354e-06 0)
(2.10603e-05 6.61671e-06 0)
(2.64095e-05 8.24921e-06 0)
(3.21785e-05 9.92172e-06 0)
(3.83745e-05 1.16279e-05 0)
(4.49947e-05 1.33557e-05 0)
(5.20144e-05 1.51e-05 0)
(5.93908e-05 1.68409e-05 0)
(6.70937e-05 1.85452e-05 0)
(7.50986e-05 2.01901e-05 0)
(8.33945e-05 2.17544e-05 0)
(9.19618e-05 2.32248e-05 0)
(0.000101062 2.4616e-05 0)
(3.44829e-07 -1.47219e-06 0)
(1.8319e-06 -6.14448e-07 0)
(4.41222e-06 4.44777e-07 0)
(7.8166e-06 1.48588e-06 0)
(1.18108e-05 2.59983e-06 0)
(1.62648e-05 3.79811e-06 0)
(2.11266e-05 5.04462e-06 0)
(2.63577e-05 6.3417e-06 0)
(3.19226e-05 7.67824e-06 0)
(3.7816e-05 9.05353e-06 0)
(4.40223e-05 1.04517e-05 0)
(5.05062e-05 1.18651e-05 0)
(5.72094e-05 1.32807e-05 0)
(6.40992e-05 1.46687e-05 0)
(7.11561e-05 1.60145e-05 0)
(7.83809e-05 1.7311e-05 0)
(8.57602e-05 1.8547e-05 0)
(9.37097e-05 1.97343e-05 0)
(3.29142e-07 -9.42367e-07 0)
(1.7228e-06 -3.27052e-07 0)
(4.10646e-06 4.16418e-07 0)
(7.13222e-06 1.19489e-06 0)
(1.05148e-05 2.08186e-06 0)
(1.40842e-05 3.07322e-06 0)
(1.78075e-05 4.13596e-06 0)
(2.16813e-05 5.25248e-06 0)
(2.57111e-05 6.42706e-06 0)
(2.99421e-05 7.65291e-06 0)
(3.44276e-05 8.90625e-06 0)
(3.92195e-05 1.01586e-05 0)
(4.43481e-05 1.13728e-05 0)
(4.98753e-05 1.25138e-05 0)
(5.58784e-05 1.35581e-05 0)
(6.2427e-05 1.45044e-05 0)
(6.95843e-05 1.53593e-05 0)
(7.76248e-05 1.61751e-05 0)
(1.27099e-07 -1.43905e-07 0)
(7.93444e-07 5.25691e-07 0)
(2.25794e-06 1.20856e-06 0)
(4.40891e-06 1.92825e-06 0)
(7.16995e-06 2.73153e-06 0)
(1.06045e-05 3.60529e-06 0)
(1.47968e-05 4.54595e-06 0)
(1.98666e-05 5.5078e-06 0)
(2.5928e-05 6.48276e-06 0)
(3.31143e-05 7.43282e-06 0)
(4.15175e-05 8.3304e-06 0)
(5.11616e-05 9.12609e-06 0)
(6.19951e-05 9.76979e-06 0)
(7.39522e-05 1.02352e-05 0)
(8.6953e-05 1.04996e-05 0)
(0.000100907 1.05672e-05 0)
(0.000115733 1.04567e-05 0)
(0.000131716 1.02417e-05 0)
(5.82356e-07 1.63094e-07 0)
(3.25019e-06 5.79175e-07 0)
(8.0375e-06 9.6199e-07 0)
(1.48189e-05 1.36393e-06 0)
(2.33841e-05 1.791e-06 0)
(3.36154e-05 2.24544e-06 0)
(4.54565e-05 2.73455e-06 0)
(5.88314e-05 3.22425e-06 0)
(7.35928e-05 3.69458e-06 0)
(8.9527e-05 4.10533e-06 0)
(0.000106344 4.43473e-06 0)
(0.000123681 4.65077e-06 0)
(0.000141116 4.73308e-06 0)
(0.000158241 4.68223e-06 0)
(0.000174688 4.5033e-06 0)
(0.000190154 4.22142e-06 0)
(0.000204485 3.8603e-06 0)
(0.000217654 3.44002e-06 0)
(-0.000114836 0.000219686 1.79474e-21)
(-0.000221706 0.000301934 -1.68542e-21)
(-0.000478543 0.000354963 0)
(-0.000757384 0.000390162 0)
(-0.00105286 0.000410644 0)
(-0.0013621 0.000419843 1.64487e-21)
(-0.00168022 0.000421378 0)
(-0.00200323 0.000418147 0)
(-0.00232854 0.000411793 0)
(-0.00265424 0.000402765 0)
(-0.00297841 0.000390607 -1.58495e-21)
(-0.00329885 0.000374276 0)
(-0.00361286 0.000352517 0)
(-0.0039172 0.000324401 0)
(-0.00420831 0.00029029 0)
(-0.00448302 0.000253647 -1.53336e-21)
(-0.0047398 0.000224419 0)
(-0.0049807 0.000224948 0)
(-0.00521749 0.000299979 0)
(-0.00549434 0.00053575 0)
(-0.00591422 0.00109628 0)
(-0.00649782 0.00218621 0)
(-0.00731129 0.00194431 0)
(-0.00801785 0.000550351 -1.46891e-21)
(-0.00828256 -2.46378e-06 1.4652e-21)
(-0.00844978 -2.36016e-05 -1.46124e-21)
(-0.00863592 4.16085e-05 -1.45702e-21)
(-0.00882841 5.63603e-05 0)
(-0.00900372 3.18743e-05 0)
(-0.00915203 -5.4874e-06 1.44489e-21)
(-0.00927046 -4.49696e-05 1.44118e-21)
(-0.00935772 -8.45772e-05 0)
(-0.00941288 -0.000123906 0)
(-0.00943551 -0.00016223 1.43091e-21)
(-0.00942576 -0.000198694 0)
(-0.00938439 -0.000232655 0)
(-0.00931257 -0.000263755 -1.4216e-21)
(-0.00921177 -0.000291828 0)
(-0.00908367 -0.000316789 -1.41582e-21)
(-0.00893013 -0.000338607 -2.8261e-21)
(-0.00875312 -0.000357293 0)
(-0.00855473 -0.000372886 0)
(-0.00833712 -0.000385449 0)
(-0.00810253 -0.000395054 0)
(-0.00785321 -0.000401783 0)
(-0.00759148 -0.000405734 -2.79648e-21)
(-0.00731964 -0.000407026 -2.79212e-21)
(-0.00703996 -0.000405804 -2.78791e-21)
(-0.0067547 -0.00040223 0)
(-0.00646602 -0.000396475 2.77997e-21)
(-0.00617602 -0.000388735 0)
(-0.00588665 -0.000379224 -2.77267e-21)
(-0.00559976 -0.000368169 -2.76926e-21)
(-0.00531702 -0.000355782 0)
(-0.00503998 -0.000342254 0)
(-0.00477002 -0.000327744 0)
(-0.00450839 -0.000312389 -2.75727e-21)
(-0.0042562 -0.000296329 0)
(-0.00401431 -0.000279777 0)
(-0.00378347 -0.000263056 0)
(-0.00356417 -0.00024645 0)
(-0.00335666 -0.000230075 0)
(-0.0031611 -0.000214009 0)
(-0.00297754 -0.000198353 0)
(-0.00280593 -0.0001832 0)
(-0.0026461 -0.000168617 2.73716e-21)
(-0.00249782 -0.000154655 0)
(-0.0023608 -0.000141353 0)
(-0.00223468 -0.000128742 -2.73117e-21)
(-0.00211907 -0.000116844 -2.72905e-21)
(-0.00201351 -0.000105675 0)
(-0.00191754 -9.52386e-05 2.72454e-21)
(-0.00183067 -8.55241e-05 -2.72213e-21)
(-0.00175239 -7.65045e-05 0)
(-0.00168225 -6.81336e-05 2.717e-21)
(-0.00161978 -6.03469e-05 0)
(-0.0015646 -5.30639e-05 0)
(-0.00151638 -4.61955e-05 -2.7087e-21)
(-0.00147489 -3.96497e-05 0)
(-0.00143995 -3.33366e-05 2.70295e-21)
(-0.0014115 -2.71675e-05 0)
(-0.00138954 -2.10569e-05 -2.69721e-21)
(-0.00137416 -1.49182e-05 -2.69436e-21)
(-0.00136554 -8.65972e-06 -2.69151e-21)
(-0.00136393 -2.17264e-06 -5.37712e-21)
(-0.00136969 4.67614e-06 5.3707e-21)
(-0.00138331 1.20578e-05 0)
(-0.00140541 2.01805e-05 0)
(-0.00143687 2.929e-05 0)
(-0.00147883 3.96482e-05 5.32251e-21)
(-0.0015327 5.15e-05 5.29947e-21)
(-0.00160023 6.49965e-05 -5.27137e-21)
(-0.00168342 8.00644e-05 0)
(-0.00178334 9.60268e-05 5.20497e-21)
(-0.00189852 0.000110411 5.17009e-21)
(-0.00202964 0.00011759 5.13613e-21)
(-0.00218458 0.000114996 0)
(-0.00232336 0.000118556 0)
(-0.00246848 0.00012372 0)
(-0.00261992 0.000126317 5.02709e-21)
(-0.0027792 0.000128959 0)
(-0.00294498 0.000131261 0)
(-0.00311642 0.000132691 -4.98742e-21)
(-0.00329225 0.000132847 0)
(-0.0034708 0.0001313 0)
(-0.00364978 0.000127565 -4.98883e-21)
(-0.00382625 0.000121107 0)
(-0.00399641 0.000111352 0)
(-0.00415559 9.77003e-05 5.02242e-21)
(-0.00429812 7.95467e-05 5.03779e-21)
(-0.00441732 5.63062e-05 0)
(-0.00450546 2.74392e-05 -5.07094e-21)
(-0.00455377 -7.52055e-06 0)
(-0.00455259 -4.89369e-05 5.10414e-21)
(-0.00449139 -9.70407e-05 0)
(-0.00435903 -0.000151898 5.13484e-21)
(-0.00414395 -0.00021338 5.14891e-21)
(-0.00383446 -0.000281139 0)
(-0.00341906 -0.000354614 0)
(-0.0028868 -0.000433062 0)
(-0.00222773 -0.000515563 0)
(-0.00143333 -0.000600932 0)
(-0.000496956 -0.000687642 0)
(0.000585823 -0.000773824 0)
(0.00181642 -0.000857417 5.28619e-21)
(0.00319282 -0.000936186 -5.31632e-21)
(0.00470908 -0.00100774 0)
(0.00635497 -0.0010696 0)
(0.00811567 -0.00111923 0)
(0.00997163 -0.00115415 0)
(0.0118985 -0.00117199 -1.10172e-20)
(0.013867 -0.00117051 0)
(0.0158437 -0.00114771 1.11812e-20)
(0.0177903 -0.0011018 -1.12575e-20)
(0.0196652 -0.00103128 0)
(0.0214227 -0.000934932 0)
(0.0230146 -0.000811843 0)
(0.0243897 -0.000661436 1.1456e-20)
(0.0254952 -0.000483463 1.14626e-20)
(0.0262768 -0.000278045 0)
(0.0266793 -4.57312e-05 1.1408e-20)
(0.0266481 0.000212476 1.13471e-20)
(0.0261294 0.000495074 -1.12661e-20)
(0.0250717 0.000799939 0)
(0.023427 0.00112415 0)
(0.0211526 0.00146378 -1.09339e-20)
(0.0182132 0.00181376 0)
(0.0145835 0.00216766 0)
(0.0102513 0.00251765 0)
(0.00522119 0.0028544 0)
(-0.000482233 0.00316723 1.02144e-20)
(-0.00681037 0.0034442 1.00532e-20)
(-0.0136877 0.00367243 0)
(-0.0210092 0.00383856 9.71492e-21)
(-0.0286389 0.00392924 0)
(-0.0364099 0.0039318 0)
(-0.0441261 0.00383496 9.17566e-21)
(-0.0515652 0.00362976 0)
(-0.0584849 0.0033103 8.80626e-21)
(-0.0646303 0.00287427 0)
(-0.0697431 0.00232351 0)
(-0.0735718 0.00166415 8.26397e-21)
(-0.0758831 0.000906683 0)
(-0.0764729 6.55397e-05 7.92456e-21)
(-0.0751764 -0.000841525 0)
(-0.0718767 -0.00179447 0)
(-0.0665108 -0.00277197 0)
(-0.0590751 -0.00375105 -7.31368e-21)
(-0.0496358 -0.00470165 0)
(-0.0383723 -0.00556474 7.02615e-21)
(-0.0256422 -0.00618418 0)
(-0.0122046 -0.00611635 0)
(-0.000625246 -0.00469286 0)
(0.00969403 -0.00405672 0)
(0.0209364 -0.0043849 0)
(0.0319085 -0.00380799 0)
(0.0410648 -0.00269188 0)
(0.0480605 -0.00729516 -1.205e-20)
(0.057446 -0.00634697 0)
(0.0660772 -0.000334798 0)
(-0.000269772 0.000464145 -5.33299e-21)
(-0.000302945 0.0006436 5.00655e-21)
(-0.000624492 0.0007659 0)
(-0.000931365 0.000839763 -3.30422e-21)
(-0.00124378 0.000885342 0)
(-0.00157056 0.00091286 -1.62868e-21)
(-0.00191012 0.000928116 3.24059e-21)
(-0.00225933 0.000934856 3.21701e-21)
(-0.00261609 0.000935324 0)
(-0.00297894 0.000930608 3.16968e-21)
(-0.00334691 0.000921026 1.57053e-21)
(-0.00371963 0.000906468 0)
(-0.00409755 0.00088672 0)
(-0.00448208 0.000861839 0)
(-0.00487596 0.000832663 0)
(-0.0052833 0.000801545 1.51926e-21)
(-0.0057093 0.000773394 0)
(-0.00615893 0.000756776 -3.00824e-21)
(-0.00663449 0.000764244 0)
(-0.00712744 0.000811428 0)
(-0.00758316 0.00091657 2.96045e-21)
(-0.0078577 0.00108491 0)
(-0.00803388 0.00118957 -2.93069e-21)
(-0.00833365 0.00104064 1.45601e-21)
(-0.00877238 0.000855639 -1.44951e-21)
(-0.00918456 0.000733723 1.44313e-21)
(-0.00951053 0.000657301 1.43692e-21)
(-0.00976362 0.000592461 0)
(-0.00996433 0.000524126 0)
(-0.0101219 0.000450465 -1.41927e-21)
(-0.0102386 0.000373306 1.41736e-21)
(-0.0103152 0.000294444 0)
(-0.0103526 0.000215277 0)
(-0.0103516 0.000137027 -1.39812e-21)
(-0.0103137 6.08073e-05 0)
(-0.0102401 -1.24438e-05 0)
(-0.0101326 -8.19959e-05 1.38409e-21)
(-0.00999304 -0.000147305 0)
(-0.00982363 -0.000207965 -1.37828e-21)
(-0.00962668 -0.000263677 2.74326e-21)
(-0.00940469 -0.000314225 0)
(-0.00916028 -0.000359459 0)
(-0.00889616 -0.000399286 5.44712e-21)
(-0.0086151 -0.000433665 5.43355e-21)
(-0.00831993 -0.000462604 5.42059e-21)
(-0.00801343 -0.000486162 -2.70611e-21)
(-0.00769838 -0.000504454 2.69632e-21)
(-0.00737746 -0.000517648 8.07606e-21)
(-0.00705328 -0.000525962 -5.37463e-21)
(-0.00672831 -0.000529661 -2.68058e-21)
(-0.00640486 -0.00052905 0)
(-0.00608509 -0.000524473 2.67145e-21)
(-0.00577096 -0.000516296 -2.67031e-21)
(-0.00546425 -0.000504898 0)
(-0.00516653 -0.000490657 0)
(-0.00487913 -0.000473959 0)
(-0.00460316 -0.000455193 2.65319e-21)
(-0.00433948 -0.000434762 0)
(-0.00408871 -0.000413076 -5.29755e-21)
(-0.00385126 -0.000390559 0)
(-0.00362739 -0.000367595 -5.28767e-21)
(-0.00341721 -0.000344476 0)
(-0.00322069 -0.000321438 5.27898e-21)
(-0.00303768 -0.000298691 0)
(-0.00286793 -0.000276411 -5.27106e-21)
(-0.0027111 -0.000254746 2.63461e-21)
(-0.00256681 -0.000233813 0)
(-0.00243462 -0.000213706 5.2597e-21)
(-0.00231403 -0.0001945 2.62701e-21)
(-0.00220455 -0.000176252 2.62504e-21)
(-0.00210563 -0.000159001 0)
(-0.00201675 -0.000142767 2.62264e-21)
(-0.00193736 -0.000127545 2.61869e-21)
(-0.00186696 -0.000113302 0)
(-0.00180508 -9.99766e-05 -2.61401e-21)
(-0.00175129 -8.74827e-05 5.22479e-21)
(-0.00170525 -7.57111e-05 0)
(-0.00166668 -6.4538e-05 2.60646e-21)
(-0.0016354 -5.38316e-05 0)
(-0.00161131 -4.34572e-05 -7.80533e-21)
(-0.00159438 -3.32803e-05 0)
(-0.0015847 -2.31679e-05 7.78968e-21)
(-0.00158242 -1.29868e-05 2.59348e-21)
(-0.00158775 -2.59994e-06 -2.59244e-21)
(-0.001601 8.13903e-06 -5.17961e-21)
(-0.0016225 1.93892e-05 5.17386e-21)
(-0.00165263 3.13223e-05 0)
(-0.00169181 4.41052e-05 0)
(-0.0017405 5.78739e-05 0)
(-0.00179916 7.26893e-05 -1.53799e-20)
(-0.00186814 8.84987e-05 -5.10401e-21)
(-0.00194748 0.000105089 5.07742e-21)
(-0.00203682 0.000122046 0)
(-0.0021347 0.000138779 5.01702e-21)
(-0.00223819 0.000155007 -4.98132e-21)
(-0.00234377 0.000170491 -4.94895e-21)
(-0.00244618 0.000173804 0)
(-0.00257785 0.00017871 0)
(-0.00272103 0.000186068 0)
(-0.00287182 0.000192878 -4.84472e-21)
(-0.00302836 0.000199332 0)
(-0.00319044 0.000204957 9.63663e-21)
(-0.00335701 0.000209368 1.4428e-20)
(-0.00352667 0.000212113 -9.61435e-21)
(-0.00369756 0.000212625 0)
(-0.00386726 0.000210205 -4.81739e-21)
(-0.00403262 0.000204028 0)
(-0.00418972 0.000193163 -9.66563e-21)
(-0.00433369 0.000176602 4.85081e-21)
(-0.00445869 0.000153304 4.86572e-21)
(-0.00455785 0.000122229 0)
(-0.00462326 8.23837e-05 1.46748e-20)
(-0.004646 3.28659e-05 -9.81847e-21)
(-0.00461623 -2.70898e-05 -4.92064e-21)
(-0.00452329 -9.8064e-05 0)
(-0.00435591 -0.000180404 -4.95017e-21)
(-0.00410247 -0.000274173 -1.48988e-20)
(-0.00375122 -0.000379099 0)
(-0.00329069 -0.000494526 -9.98492e-21)
(-0.00271 -0.000619375 -1.00099e-20)
(-0.00199929 -0.000752123 -1.00369e-20)
(-0.00115008 -0.000890801 0)
(-0.000155842 -0.00103302 0)
(0.000987378 -0.0011759 0)
(0.00228047 -0.00131609 5.1029e-21)
(0.00372073 -0.00144992 5.12346e-21)
(0.00530141 -0.00157338 0)
(0.00701134 -0.00168232 1.03903e-20)
(0.0088346 -0.00177246 1.04652e-20)
(0.0107504 -0.00183956 0)
(0.012733 -0.0018795 1.06136e-20)
(0.0147518 -0.00188842 2.14027e-20)
(0.0167717 -0.00186284 -1.07693e-20)
(0.0187532 -0.00179973 -1.08582e-20)
(0.0206529 -0.00169661 0)
(0.0224239 -0.00155155 0)
(0.0240168 -0.00136323 0)
(0.0253796 -0.00113094 -1.10249e-20)
(0.0264587 -0.00085462 1.10395e-20)
(0.0271996 -0.000534804 2.20308e-20)
(0.0275476 -0.000172687 -1.09704e-20)
(0.0274485 0.000229862 1.09152e-20)
(0.0268498 0.000670218 1.08266e-20)
(0.0257016 0.00114485 0)
(0.0239581 0.00164907 0)
(0.0215795 0.00217673 -1.05006e-20)
(0.0185336 0.00271988 0)
(0.0147988 0.00326845 0)
(0.010367 0.00381 2.01636e-20)
(0.00524659 0.00432962 0)
(-0.000533491 0.00480991 9.77749e-21)
(-0.00692076 0.00523134 -9.60527e-21)
(-0.0138359 0.00557271 0)
(-0.0211704 0.00581198 9.26784e-21)
(-0.0287853 0.00592728 0)
(-0.0365112 0.00589806 0)
(-0.0441504 0.00570653 -8.71039e-21)
(-0.0514809 0.00533914 1.70362e-20)
(-0.0582621 0.00478798 -8.32951e-21)
(-0.0642427 0.00405192 0)
(-0.0691706 0.00313757 0)
(-0.0728031 0.00205966 7.73904e-21)
(-0.0749181 0.000841113 0)
(-0.0753261 -0.00048755 7.36743e-21)
(-0.0738803 -0.00188921 0)
(-0.0704865 -0.00332151 0)
(-0.0651131 -0.00473758 0)
(-0.0578002 -0.00608377 6.75183e-21)
(-0.0486775 -0.00728948 0)
(-0.0380046 -0.00823675 -6.45947e-21)
(-0.0262383 -0.0086863 0)
(-0.0139584 -0.00829381 0)
(-0.00212536 -0.00732779 1.19987e-20)
(0.00970948 -0.00723575 -1.17393e-20)
(0.0217704 -0.0074784 0)
(0.0332824 -0.00671175 0)
(0.0443041 -0.00504053 0)
(0.053369 -0.00446936 3.32193e-20)
(0.0641587 -0.00607131 0)
(0.0708117 -0.00341502 -2.22837e-20)
(-0.000311941 0.00109895 -1.1928e-23)
(-0.000435295 0.00131582 -6.75466e-21)
(-0.000753894 0.00145486 0)
(-0.00109085 0.00155708 6.62901e-21)
(-0.00141987 0.00163081 0)
(-0.00176122 0.00168256 0)
(-0.00211779 0.00171721 1.05859e-23)
(-0.00248744 0.00173874 -3.22553e-21)
(-0.00286848 0.00175026 -3.21314e-21)
(-0.0032598 0.00175406 -3.18028e-21)
(-0.0036606 0.00175184 0)
(-0.00407051 0.00174512 0)
(-0.00448957 0.0017356 3.12569e-21)
(-0.00491821 0.00172566 6.21097e-21)
(-0.00535709 0.00171882 -6.17197e-21)
(-0.00580672 0.00172006 0)
(-0.00626663 0.00173589 -6.09792e-21)
(-0.00673409 0.00177352 3.02265e-21)
(-0.00720255 0.00183853 0)
(-0.00765838 0.00193017 -5.99553e-21)
(-0.00807166 0.00203167 -2.97389e-21)
(-0.00839668 0.00208637 5.93226e-21)
(-0.00864495 0.00197803 2.94367e-21)
(-0.00890197 0.00170968 0)
(-0.00920177 0.00142719 -5.84279e-21)
(-0.0094983 0.00119356 -5.81434e-21)
(-0.00975768 0.00100099 0)
(-0.00997142 0.000828334 -5.75943e-21)
(-0.0101408 0.000663418 0)
(-0.0102677 0.000502061 -5.70712e-21)
(-0.0103536 0.000343558 -2.83462e-21)
(-0.0103993 0.000188404 0)
(-0.0104061 3.75918e-05 0)
(-0.0103752 -0.00010765 0)
(-0.0103082 -0.000246055 0)
(-0.0102068 -0.000376482 0)
(-0.0100729 -0.000497987 0)
(-0.00990861 -0.00060984 -5.52695e-21)
(-0.00971634 -0.000711499 8.25679e-21)
(-0.00949857 -0.000802585 0)
(-0.00925795 -0.000882859 0)
(-0.00899724 -0.00095221 0)
(-0.00871924 -0.00101064 8.79063e-24)
(-0.00842681 -0.00105825 -5.41481e-21)
(-0.0081228 -0.00109526 -1.08087e-20)
(-0.00780999 -0.00112197 1.07805e-20)
(-0.00749113 -0.0011388 5.38058e-21)
(-0.00716883 -0.00114625 -5.36023e-21)
(-0.00684557 -0.00114488 -7.08399e-24)
(-0.0065237 -0.00113537 -5.34337e-21)
(-0.00620538 -0.0011184 0)
(-0.00589257 -0.00109474 -5.32147e-21)
(-0.00558704 -0.00106516 -6.08414e-24)
(-0.00529034 -0.00103044 0)
(-0.00500382 -0.000991395 0)
(-0.00472856 -0.000948799 5.28431e-21)
(-0.00446543 -0.000903438 0)
(-0.00421506 -0.000856084 0)
(-0.00397791 -0.000807477 -5.26653e-21)
(-0.00375423 -0.000758302 -1.05102e-20)
(-0.00354418 -0.000709144 5.2444e-21)
(-0.00334775 -0.000660478 0)
(-0.00316481 -0.000612697 -5.23304e-21)