/*--------------------------------*- C++ -*----------------------------------*\
| =========                 |                                                 |
| \\      /  F ield         | OpenFOAM: The Open Source CFD Toolbox           |
|  \\    /   O peration     | Version:  2112                                  |
|   \\  /    A nd           | Website:  www.openfoam.com                      |
|    \\/     M anipulation  |                                                 |
\*---------------------------------------------------------------------------*/
FoamFile
{
    version     2.0;
    format      ascii;
    arch        "LSB;label=32;scalar=64";
    class       volScalarField;
    location    "0.35";
    object      ddt0(kU);
}
// * * * * * * * * * * * * * * * * * * * * * * * * * * * * * * * * * * * * * //

dimensions      [0 2 -3 0 0 0 0];

internalField   nonuniform List<scalar> 
12225
(
-5.88077e-37
-9.77605e-36
-5.65333e-35
-2.13778e-34
-6.37415e-34
-1.63093e-33
-3.67598e-33
-7.48148e-33
-1.39289e-32
-2.39057e-32
-3.79904e-32
-5.61883e-32
-7.73564e-32
-1.01537e-31
-1.2754e-31
-1.41932e-31
-1.42444e-31
-1.86338e-31
1.97563e-36
1.11194e-35
3.37942e-35
7.74041e-35
1.50709e-34
2.52347e-34
3.57218e-34
4.04933e-34
2.68066e-34
-2.84729e-34
-1.63911e-33
-4.36173e-33
-9.08232e-33
-1.62285e-32
-2.63145e-32
-5.4896e-32
-9.72117e-32
-3.57059e-31
6.17719e-38
1.46626e-36
5.92764e-36
1.67094e-35
3.64416e-35
6.85959e-35
1.15704e-34
1.78871e-34
2.52684e-34
3.1781e-34
3.28623e-34
1.89739e-34
-2.6915e-34
-1.43708e-33
-3.85253e-33
-1.09243e-32
-2.37594e-32
-8.63919e-32
-1.32803e-38
-2.28961e-38
4.57986e-37
2.16568e-36
6.1375e-36
1.33371e-35
2.46667e-35
4.08624e-35
6.26183e-35
8.9571e-35
1.18622e-34
1.41562e-34
1.39165e-34
5.31317e-35
-2.23629e-34
-1.1812e-33
-3.28121e-33
-1.11157e-32
5.3848e-39
-1.80403e-37
-4.70531e-37
-7.15371e-37
-6.99241e-37
-1.3741e-37
1.28593e-36
3.81922e-36
7.80532e-36
1.35612e-35
2.15208e-35
3.09625e-35
4.03406e-35
4.39049e-35
3.04084e-35
-4.70859e-35
-2.51208e-34
-9.09041e-34
2.12571e-38
-1.30988e-37
-4.08745e-37
-7.46934e-37
-1.12498e-36
-1.50653e-36
-1.83228e-36
-2.04751e-36
-2.08487e-36
-1.85245e-36
-1.18961e-36
-8.22176e-38
1.37158e-36
2.42153e-36
1.47916e-36
-7.1402e-36
-3.18416e-35
-9.99896e-35
3.42197e-38
-7.61902e-38
-3.15237e-37
-6.40404e-37
-1.04988e-36
-1.53973e-36
-2.09112e-36
-2.69048e-36
-3.32628e-36
-3.97617e-36
-4.61364e-36
-5.24814e-36
-5.96245e-36
-7.07027e-36
-9.23491e-36
-1.40939e-35
-2.39448e-35
-4.3205e-35
4.28434e-38
-3.44472e-38
-2.38337e-37
-5.33846e-37
-9.13367e-37
-1.37673e-36
-1.9142e-36
-2.5197e-36
-3.19401e-36
-3.9385e-36
-4.76202e-36
-5.71318e-36
-6.91988e-36
-8.68632e-36
-1.15686e-35
-1.65978e-35
-2.50204e-35
-3.80851e-35
4.80157e-38
-1.84584e-39
-1.69953e-37
-4.30644e-37
-7.74881e-37
-1.20626e-36
-1.72259e-36
-2.322e-36
-3.01035e-36
-3.80019e-36
-4.71638e-36
-5.82016e-36
-7.23988e-36
-9.22348e-36
-1.21645e-35
-1.66466e-35
-2.3255e-35
-3.22227e-35
5.05471e-38
2.30192e-38
-1.11261e-37
-3.37595e-37
-6.47771e-37
-1.04674e-36
-1.53702e-36
-2.12003e-36
-2.80444e-36
-3.60842e-36
-4.56433e-36
-5.73399e-36
-7.2285e-36
-9.2322e-36
-1.20034e-35
-1.58553e-35
-2.10319e-35
-2.74634e-35
5.10096e-38
4.04943e-38
-6.38076e-38
-2.56985e-37
-5.32793e-37
-8.96496e-37
-1.35397e-36
-1.91024e-36
-2.57619e-36
-3.37286e-36
-4.33462e-36
-5.51741e-36
-7.00988e-36
-8.94043e-36
-1.14667e-35
-1.47427e-35
-1.88401e-35
-2.36184e-35
4.99959e-38
5.13348e-38
-2.85155e-38
-1.92016e-37
-4.35735e-37
-7.6491e-37
-1.18745e-36
-1.71087e-36
-2.3471e-36
-3.11697e-36
-4.05239e-36
-5.20038e-36
-6.62749e-36
-8.41986e-36
-1.06705e-35
-1.34516e-35
-1.67685e-35
-2.0498e-35
4.8054e-38
5.81034e-38
-6.50025e-40
-1.35918e-37
-3.47518e-37
-6.41088e-37
-1.02562e-36
-1.51027e-36
-2.10712e-36
-2.83509e-36
-3.7218e-36
-4.8041e-36
-6.12932e-36
-7.75198e-36
-9.72426e-36
-1.20767e-35
-1.4795e-35
-1.7796e-35
4.45114e-38
6.06109e-38
2.12061e-38
-8.45927e-38
-2.59952e-37
-5.11021e-37
-8.46976e-37
-1.27771e-36
-1.81499e-36
-2.47518e-36
-3.2798e-36
-4.2554e-36
-5.4323e-36
-6.84148e-36
-8.50827e-36
-1.04428e-35
-1.26361e-35
-1.50428e-35
3.91703e-38
5.8442e-38
3.54909e-38
-4.17312e-38
-1.79619e-37
-3.8437e-37
-6.6409e-37
-1.02818e-36
-1.48711e-36
-2.05377e-36
-2.74332e-36
-3.57244e-36
-4.55731e-36
-5.71064e-36
-7.04207e-36
-8.54481e-36
-1.02404e-35
-1.21079e-35
3.15555e-38
5.08688e-38
4.17481e-38
-5.97706e-39
-1.01224e-37
-2.50643e-37
-4.60733e-37
-7.39359e-37
-1.09499e-36
-1.53724e-36
-2.07629e-36
-2.72246e-36
-3.4818e-36
-4.35656e-36
-5.32376e-36
-6.42325e-36
-7.708e-36
-9.14657e-36
2.09057e-38
3.44735e-38
3.05194e-38
1.76988e-39
-5.77648e-38
-1.53397e-37
-2.89227e-37
-4.7069e-37
-7.04066e-37
-9.96252e-37
-1.35501e-36
-1.79276e-36
-2.3215e-36
-2.97463e-36
-3.69856e-36
-4.40788e-36
-5.14394e-36
-6.02534e-36
7.98874e-39
1.24873e-38
1.05104e-38
3.75327e-40
-2.05969e-38
-5.8555e-38
-1.12853e-37
-1.84515e-37
-2.75388e-37
-3.86354e-37
-5.17008e-37
-6.63618e-37
-8.25553e-37
-9.86767e-37
-1.21193e-36
-1.54109e-36
-1.88365e-36
-2.18559e-36
-8.22357e-39
-1.31315e-38
-1.22097e-38
-4.80548e-39
1.03395e-38
3.66368e-38
7.19226e-38
1.16296e-37
1.70736e-37
2.36163e-37
3.13202e-37
4.02433e-37
5.04246e-37
6.19485e-37
7.51319e-37
9.00614e-37
1.05494e-36
1.21807e-36
-2.13825e-38
-3.5192e-38
-3.18201e-38
-5.7344e-39
4.54674e-38
1.24457e-37
2.33353e-37
3.74368e-37
5.49885e-37
7.61765e-37
1.0115e-36
1.30015e-36
1.62761e-36
1.99246e-36
2.39218e-36
2.81949e-36
3.27782e-36
3.76903e-36
-3.04887e-38
-4.76835e-38
-3.66951e-38
9.25952e-39
9.37663e-38
2.19787e-37
3.90599e-37
6.08661e-37
8.7586e-37
1.19384e-36
1.5644e-36
1.98853e-36
2.46604e-36
2.99507e-36
3.57288e-36
4.1959e-36
4.86021e-36
5.56178e-36
-3.61075e-38
-4.9462e-38
-2.05311e-38
5.57628e-38
1.79489e-37
3.53837e-37
5.83486e-37
8.71571e-37
1.21995e-36
1.63121e-36
2.10776e-36
2.65085e-36
3.25919e-36
3.92928e-36
4.65567e-36
5.43164e-36
6.24943e-36
7.1009e-36
-3.88013e-38
-4.18114e-38
1.28053e-38
1.23802e-37
2.86912e-37
5.04774e-37
7.81242e-37
1.11754e-36
1.51543e-36
1.97886e-36
2.51228e-36
3.11775e-36
3.79422e-36
4.53758e-36
5.34179e-36
6.19938e-36
7.10149e-36
8.04158e-36
-3.82329e-38
-2.34135e-38
6.32698e-38
2.13365e-37
4.24665e-37
7.03998e-37
1.0537e-36
1.47175e-36
1.95848e-36
2.5186e-36
3.15647e-36
3.87182e-36
4.65908e-36
5.50844e-36
6.40705e-36
7.33939e-36
8.28946e-36
9.23727e-36
-3.33012e-38
1.01003e-38
1.30703e-37
2.99582e-37
5.1332e-37
7.82879e-37
1.11067e-36
1.49353e-36
1.93402e-36
2.44075e-36
3.02007e-36
3.67091e-36
4.38547e-36
5.15073e-36
5.95056e-36
6.76682e-36
7.57801e-36
8.36664e-36
-2.4481e-38
6.58171e-38
2.67603e-37
5.37872e-37
8.5598e-37
1.2036e-36
1.54427e-36
1.83168e-36
2.02036e-36
2.05117e-36
1.82013e-36
1.26607e-36
3.26904e-37
-1.10156e-36
-3.12772e-36
-5.85976e-36
-9.39862e-36
-1.38365e-35
-1.35838e-38
3.86696e-38
5.68762e-38
-6.30729e-38
-4.55009e-37
-1.38431e-36
-3.10908e-36
-5.94737e-36
-1.02489e-35
-1.64987e-35
-2.53905e-35
-3.71463e-35
-5.20669e-35
-7.06441e-35
-9.33055e-35
-1.20419e-34
-1.52283e-34
-1.89125e-34
4.64072e-38
-3.01183e-37
-1.61136e-36
-4.59147e-36
-1.01816e-35
-2.06049e-35
-3.62136e-35
-5.86178e-35
-8.97202e-35
-1.31794e-34
-1.87048e-34
-2.58028e-34
-3.46556e-34
-4.5322e-34
-5.77379e-34
-7.16947e-34
-8.68075e-34
-1.02616e-33
-1.13563e-36
-6.33929e-36
-1.88533e-35
-4.25053e-35
-8.20242e-35
-1.42594e-34
-2.30775e-34
-3.49867e-34
-4.99451e-34
-6.77547e-34
-8.75437e-34
-1.07622e-33
-1.25272e-33
-1.36576e-33
-1.36251e-33
-1.17387e-33
-7.07095e-34
1.30474e-34
3.36242e-38
2.91262e-36
1.69214e-35
5.88156e-35
1.57923e-34
3.62904e-34
7.49621e-34
1.43161e-33
2.55959e-33
4.3179e-33
6.98036e-33
1.08412e-32
1.62357e-32
2.35206e-32
3.30478e-32
4.5138e-32
6.00389e-32
7.78256e-32
-9.41031e-30
-8.27206e-30
-6.378e-30
-4.13351e-30
-1.93926e-30
-7.72206e-32
1.31259e-30
2.19923e-30
2.61969e-30
2.64772e-30
2.37367e-30
1.89199e-30
1.29333e-30
6.596e-31
6.12646e-32
-4.44815e-31
-8.18396e-31
-1.03916e-30
-1.10688e-30
-1.03433e-30
-8.33395e-31
-5.04073e-31
-8.42226e-32
4.81708e-31
1.0901e-30
1.76012e-30
2.47805e-30
3.21718e-30
3.9556e-30
4.67536e-30
5.35995e-30
5.99485e-30
6.56858e-30
7.07328e-30
7.50454e-30
7.86037e-30
8.14051e-30
8.3463e-30
8.48049e-30
8.547e-30
8.55067e-30
8.497e-30
8.39195e-30
8.24166e-30
8.05231e-30
7.82986e-30
7.57991e-30
7.30755e-30
7.01746e-30
6.71392e-30
6.40079e-30
6.0814e-30
5.75844e-30
5.43411e-30
5.11027e-30
4.78849e-30
4.47012e-30
4.1563e-30
3.84759e-30
3.54293e-30
3.24148e-30
2.9439e-30
2.6507e-30
2.36224e-30
2.0788e-30
1.80058e-30
1.52776e-30
1.26044e-30
9.98708e-31
7.42625e-31
4.92246e-31
2.47638e-31
8.88827e-33
-2.23875e-31
-4.50482e-31
-6.70712e-31
-8.84295e-31
-1.09092e-30
-1.29024e-30
-1.4818e-30
-1.66499e-30
-1.8391e-30
-2.00331e-30
-2.15669e-30
-2.29824e-30
-2.42696e-30
-2.54184e-30
-2.642e-30
-2.72671e-30
-2.79547e-30
-2.84809e-30
-2.88483e-30
-2.90499e-30
-2.90775e-30
-2.89374e-30
-2.86441e-30
-2.82177e-30
-2.75502e-30
-2.67738e-30
-2.59052e-30
-2.49541e-30
-2.39338e-30
-2.28554e-30
-2.17285e-30
-2.05614e-30
-1.93607e-30
-1.81323e-30
-1.68803e-30
-1.5607e-30
-1.43131e-30
-1.2997e-30
-1.16559e-30
-1.02863e-30
-8.88456e-31
-7.44799e-31
-5.97603e-31
-4.47101e-31
-2.93873e-31
-1.38854e-31
1.67984e-32
1.72053e-31
3.26865e-31
4.82524e-31
6.3835e-31
7.93669e-31
9.47899e-31
1.10053e-30
1.25108e-30
1.39906e-30
1.54409e-30
1.68591e-30
1.82435e-30
1.95941e-30
2.09131e-30
2.22051e-30
2.34771e-30
2.47388e-30
2.60024e-30
2.7283e-30
2.85987e-30
2.99702e-30
3.14211e-30
3.29772e-30
3.46646e-30
3.65077e-30
3.85272e-30
4.07388e-30
4.31513e-30
4.57656e-30
4.85747e-30
5.15648e-30
5.47167e-30
5.80056e-30
6.1402e-30
6.48732e-30
6.8382e-30
7.18848e-30
7.53302e-30
7.86611e-30
8.18151e-30
8.47266e-30
8.73274e-30
8.95479e-30
9.13189e-30
9.25753e-30
9.32598e-30
9.33284e-30
9.27507e-30
9.15149e-30
8.96368e-30
8.71661e-30
8.43395e-30
8.20649e-30
7.58951e-30
7.39959e-30
7.23197e-30
6.88638e-30
6.24076e-30
5.23805e-30
4.41619e-30
-9.40395e-30
-8.18848e-30
-6.20867e-30
-3.88467e-30
-1.6372e-30
2.34153e-31
1.58387e-30
2.38774e-30
2.69671e-30
2.59983e-30
2.19984e-30
1.59866e-30
8.89299e-31
1.51984e-31
-5.47196e-31
-1.15632e-30
-1.63761e-30
-1.96823e-30
-2.14152e-30
-2.16672e-30
-2.06488e-30
-1.86178e-30
-1.58672e-30
-1.2052e-30
-7.56819e-31
-2.6503e-31
2.56283e-31
7.94521e-31
1.33693e-30
1.87083e-30
2.38411e-30
2.8662e-30
3.30861e-30
3.70501e-30
4.05105e-30
4.34437e-30
4.58426e-30
4.7713e-30
4.90717e-30
4.99441e-30
5.03629e-30
5.03657e-30
4.99931e-30
4.92876e-30
4.82913e-30
4.70455e-30
4.55901e-30
4.39633e-30
4.22008e-30
4.03348e-30
3.83932e-30
3.63996e-30
3.43739e-30
3.23323e-30
3.02882e-30
2.82516e-30
2.6229e-30
2.42235e-30
2.22338e-30
2.02667e-30
1.83347e-30
1.64422e-30
1.459e-30
1.27783e-30
1.10065e-30
9.27383e-31
7.57954e-31
5.92284e-31
4.30324e-31
2.72066e-31
1.17562e-31
-3.30754e-32
-1.79668e-31
-3.21981e-31
-4.59732e-31
-5.92592e-31
-7.20201e-31
-8.42165e-31
-9.58049e-31
-1.06736e-30
-1.16956e-30
-1.26406e-30
-1.35026e-30
-1.42756e-30
-1.4954e-30
-1.55322e-30
-1.60051e-30
-1.6368e-30
-1.66172e-30
-1.67497e-30
-1.67638e-30
-1.66596e-30
-1.64362e-30
-1.60961e-30
-1.56477e-30
-1.51005e-30
-1.43724e-30
-1.36332e-30
-1.28342e-30
-1.19734e-30
-1.10531e-30
-1.00767e-30
-9.04689e-31
-7.96571e-31
-6.83471e-31
-5.65487e-31
-4.42668e-31
-3.15004e-31
-1.82438e-31
-4.48765e-32
9.77851e-32
2.45642e-31
3.98749e-31
5.5709e-31
7.20531e-31
8.88803e-31
1.06149e-30
1.23807e-30
1.41807e-30
1.60123e-30
1.78754e-30
1.97663e-30
2.16662e-30
2.35689e-30
2.54691e-30
2.73616e-30
2.92414e-30
3.11037e-30
3.2945e-30
3.47637e-30
3.65592e-30
3.83318e-30
4.0083e-30
4.18159e-30
4.35355e-30
4.52481e-30
4.69622e-30
4.86872e-30
5.04338e-30
5.22131e-30
5.4037e-30
5.59174e-30
5.78652e-30
5.98894e-30
6.19976e-30
6.41961e-30
6.64897e-30
6.88801e-30
7.13663e-30
7.39439e-30
7.66042e-30
7.93316e-30
8.21037e-30
8.4892e-30
8.76608e-30
9.03678e-30
9.29655e-30
9.54053e-30
9.76369e-30
9.96081e-30
1.01266e-29
1.02559e-29
1.03436e-29
1.03853e-29
1.03772e-29
1.03162e-29
1.02006e-29
1.00293e-29
9.80233e-30
9.52073e-30
9.18888e-30
8.81903e-30
8.4383e-30
7.84096e-30
7.4767e-30
7.1095e-30
6.58487e-30
5.84878e-30
4.87707e-30
3.95262e-30
-9.67822e-30
-8.26458e-30
-6.23394e-30
-3.84252e-30
-1.53383e-30
3.74515e-31
1.73125e-30
2.51656e-30
2.7912e-30
2.65492e-30
2.21892e-30
1.5898e-30
8.61493e-31
1.11758e-31
-5.98468e-31
-1.22431e-30
-1.73552e-30
-2.11512e-30
-2.35838e-30
-2.47186e-30
-2.47098e-30
-2.37514e-30
-2.20213e-30
-1.96289e-30
-1.67334e-30
-1.34759e-30
-9.97613e-31
-6.3402e-31
-2.66277e-31
9.73e-32
4.49441e-31
7.83892e-31
1.0956e-30
1.38068e-30
1.63636e-30
1.86103e-30
2.05401e-30
2.21546e-30
2.34617e-30
2.44745e-30
2.52103e-30
2.56893e-30
2.59337e-30
2.59673e-30
2.5814e-30
2.54979e-30
2.50426e-30
2.44702e-30
2.38005e-30
2.30508e-30
2.22353e-30
2.13671e-30
2.04582e-30
1.95191e-30
1.85585e-30
1.75833e-30
1.65987e-30
1.56094e-30
1.46192e-30
1.36323e-30
1.26524e-30
1.16807e-30
1.07174e-30
9.76262e-31
8.81601e-31
7.87744e-31
6.94704e-31
6.02525e-31
5.11301e-31
4.21178e-31
3.32347e-31
2.4504e-31
1.59513e-31
7.60429e-32
-5.08283e-33
-8.35625e-32
-1.59064e-31
-2.312e-31
-2.9953e-31
-3.636e-31
-4.2295e-31
-4.77121e-31
-5.25679e-31
-5.68246e-31
-6.04517e-31
-6.34269e-31
-6.57343e-31
-6.73593e-31
-6.82841e-31
-6.84835e-31
-6.79238e-31
-6.65646e-31
-6.44481e-31
-6.16709e-31
-5.82991e-31
-5.37625e-31
-4.9408e-31
-4.47709e-31
-3.97025e-31
-3.41712e-31
-2.81708e-31
-2.17056e-31
-1.4783e-31
-7.41136e-32
3.99746e-33
8.64002e-32
1.73022e-31
2.63817e-31
3.58748e-31
4.57769e-31
5.60816e-31
6.67802e-31
7.78621e-31
8.93145e-31
1.01123e-30
1.13269e-30
1.25728e-30
1.38474e-30
1.51478e-30
1.64706e-30
1.7812e-30
1.91668e-30
2.05316e-30
2.19045e-30
2.32844e-30
2.46709e-30
2.60645e-30
2.74668e-30
2.88806e-30
3.03093e-30
3.17571e-30
3.3229e-30
3.47301e-30
3.62659e-30
3.78422e-30
3.94652e-30
4.11413e-30
4.28775e-30
4.46815e-30
4.65612e-30
4.85231e-30
5.0572e-30
5.27097e-30
5.49358e-30
5.72476e-30
5.96411e-30
6.2111e-30
6.46506e-30
6.72522e-30
6.99069e-30
7.26039e-30
7.53282e-30
7.80597e-30
8.07721e-30
8.3432e-30
8.59998e-30
8.84313e-30
9.06806e-30
9.27007e-30
9.44442e-30
9.58643e-30
9.69185e-30
9.75682e-30
9.77808e-30
9.75294e-30
9.6794e-30
9.55696e-30
9.38618e-30
9.16893e-30
8.90942e-30
8.6175e-30
8.30131e-30
7.95204e-30
7.45937e-30
7.05218e-30
6.60965e-30
6.03304e-30
5.34101e-30
4.52235e-30
3.72138e-30
-1.00421e-29
-8.44446e-30
-6.34849e-30
-3.88599e-30
-1.51782e-30
4.25532e-31
1.7911e-30
2.56675e-30
2.82506e-30
2.67707e-30
2.24185e-30
1.62955e-30
9.33597e-31
2.28073e-31
-4.3199e-31
-1.00895e-30
-1.48025e-30
-1.83595e-30
-2.07628e-30
-2.20937e-30
-2.24853e-30
-2.20917e-30
-2.10618e-30
-1.95317e-30
-1.76338e-30
-1.54871e-30
-1.31939e-30
-1.08397e-30
-8.49243e-31
-6.20438e-31
-4.01439e-31
-1.95044e-31
-3.1558e-33
1.73031e-31
3.3293e-31
4.76484e-31
6.04068e-31
7.16387e-31
8.14381e-31
8.99144e-31
9.7185e-31
1.0337e-30
1.08588e-30
1.12954e-30
1.16574e-30
1.19544e-30
1.21951e-30
1.23863e-30
1.25335e-30
1.2641e-30
1.27119e-30
1.27486e-30
1.2753e-30
1.27263e-30
1.26694e-30
1.25827e-30
1.24666e-30
1.23217e-30
1.21483e-30
1.1947e-30
1.17181e-30
1.14616e-30
1.1178e-30
1.08679e-30
1.05321e-30
1.0172e-30
9.78933e-31
9.38618e-31
8.96498e-31
8.52833e-31
8.07899e-31
7.61975e-31
7.15335e-31
6.68247e-31
6.20976e-31
5.73788e-31
5.26972e-31
4.80845e-31
4.35766e-31
3.92126e-31
3.5034e-31
3.10794e-31
2.73794e-31
2.39493e-31
2.0785e-31
1.78619e-31
1.51418e-31
1.25833e-31
1.01567e-31
7.85403e-32
5.69248e-32
3.70816e-32
1.8852e-32
2.07367e-33
-1.27072e-32
-3.11423e-32
-4.91104e-32
-6.48659e-32
-7.76738e-32
-8.71024e-32
-9.28552e-32
-9.47355e-32
-9.26209e-32
-8.64474e-32
-7.62033e-32
-6.19181e-32
-4.36577e-32
-2.15216e-32
4.35791e-33
3.38184e-32
6.66807e-32
1.02764e-31
1.419e-31
1.83933e-31
2.28712e-31
2.76092e-31
3.25936e-31
3.78114e-31
4.32493e-31
4.88944e-31
5.47372e-31
6.07762e-31
6.70202e-31
7.34801e-31
8.01645e-31
8.70834e-31
9.42525e-31
1.01694e-30
1.09435e-30
1.17507e-30
1.25949e-30
1.34816e-30
1.44171e-30
1.54077e-30
1.64597e-30
1.75793e-30
1.87728e-30
2.00466e-30
2.14066e-30
2.2858e-30
2.44049e-30
2.60509e-30
2.78002e-30
2.96574e-30
3.16256e-30
3.37059e-30
3.58957e-30
3.81901e-30
4.05817e-30
4.30608e-30
4.56154e-30
4.82319e-30
5.08956e-30
5.35897e-30
5.62939e-30
5.89835e-30
6.16272e-30
6.41857e-30
6.6613e-30
6.88569e-30
7.08607e-30
7.25727e-30
7.39441e-30
7.49316e-30
7.5496e-30
7.56013e-30
7.52391e-30
7.44205e-30
7.31848e-30
7.16081e-30
6.98544e-30
6.80142e-30
6.57423e-30
6.26875e-30
5.99005e-30
5.66157e-30
5.22824e-30
4.74443e-30
4.2202e-30
3.69242e-30
-1.04917e-29
-8.72587e-30
-6.5459e-30
-4.00283e-30
-1.57423e-30
4.0258e-31
1.77749e-30
2.54818e-30
2.79947e-30
2.65298e-30
2.23429e-30
1.65565e-30
1.00876e-30
3.63371e-31
-2.31325e-31
-7.4398e-31
-1.15797e-30
-1.46825e-30
-1.67836e-30
-1.7977e-30
-1.83901e-30
-1.81613e-30
-1.74243e-30
-1.63035e-30
-1.49139e-30
-1.33574e-30
-1.1719e-30
-1.00659e-30
-8.44791e-31
-6.89851e-31
-5.43816e-31
-4.07672e-31
-2.81625e-31
-1.6535e-31
-5.81405e-32
4.09766e-32
1.3314e-31
2.19561e-31
3.01435e-31
3.79878e-31
4.55864e-31
5.30189e-31
6.03447e-31
6.76015e-31
7.48054e-31
8.19513e-31
8.90145e-31
9.59539e-31
1.02715e-30
1.09235e-30
1.15445e-30
1.21277e-30
1.26665e-30
1.31551e-30
1.35883e-30
1.39624e-30
1.42746e-30
1.45232e-30
1.47078e-30
1.48285e-30
1.48865e-30
1.48834e-30
1.48217e-30
1.47042e-30
1.45342e-30
1.43155e-30
1.40522e-30
1.37484e-30
1.34086e-30
1.3037e-30
1.26377e-30
1.22148e-30
1.17717e-30
1.13116e-30
1.08375e-30
1.03518e-30
9.85707e-31
9.35575e-31
8.85062e-31
8.34475e-31
7.84124e-31
7.34274e-31
6.85052e-31
6.3636e-31
5.87801e-31
5.38682e-31
4.88108e-31
4.35163e-31
3.79124e-31
3.19646e-31
2.56842e-31
1.91223e-31
1.23376e-31
5.42057e-32
-2.03368e-32
-9.58622e-32
-1.70497e-31
-2.43238e-31
-3.13303e-31
-3.80058e-31
-4.42991e-31
-5.01703e-31
-5.55902e-31
-6.054e-31
-6.50108e-31
-6.90035e-31
-7.25279e-31
-7.56019e-31
-7.82509e-31
-8.05058e-31
-8.24008e-31
-8.39709e-31
-8.52501e-31
-8.62692e-31
-8.7055e-31
-8.76294e-31
-8.80087e-31
-8.82045e-31
-8.82228e-31
-8.8064e-31
-8.77225e-31
-8.7189e-31
-8.64548e-31
-8.55141e-31
-8.43618e-31
-8.29902e-31
-8.13892e-31
-7.95449e-31
-7.74392e-31
-7.50517e-31
-7.23584e-31
-6.93259e-31
-6.59077e-31
-6.2046e-31
-5.76739e-31
-5.27184e-31
-4.71028e-31
-4.07567e-31
-3.36229e-31
-2.5655e-31
-1.68158e-31
-7.07322e-32
3.60637e-32
1.52601e-31
2.79266e-31
4.16474e-31
5.64683e-31
7.24325e-31
8.95726e-31
1.07891e-30
1.27362e-30
1.47943e-30
1.69578e-30
1.9219e-30
2.15677e-30
2.3994e-30
2.64844e-30
2.9018e-30
3.15664e-30
3.40899e-30
3.65356e-30
3.88555e-30
4.09991e-30
4.29152e-30
4.4546e-30
4.5821e-30
4.67137e-30
4.7222e-30
4.73825e-30
4.72674e-30
4.70547e-30
4.68841e-30
4.63554e-30
4.55155e-30
4.50157e-30
4.42245e-30
4.27108e-30
4.1029e-30
3.93927e-30
3.75931e-30
-1.10022e-29
-9.07197e-30
-6.78533e-30
-4.15152e-30
-1.66472e-30
3.39361e-31
1.71944e-30
2.48485e-30
2.73219e-30
2.59215e-30
2.19515e-30
1.65399e-30
1.05769e-30
4.71327e-31
-6.13179e-32
-5.14153e-31
-8.74957e-31
-1.14183e-30
-1.32004e-30
-1.41937e-30
-1.45191e-30
-1.43027e-30
-1.36656e-30
-1.27186e-30
-1.15602e-30
-1.02743e-30
-8.92879e-31
-7.57524e-31
-6.24977e-31
-4.97494e-31
-3.76181e-31
-2.61225e-31
-1.52204e-31
-4.83028e-32
5.15483e-32
1.48551e-31
2.43934e-31
3.38852e-31
4.34308e-31
5.31083e-31
6.29684e-31
7.30319e-31
8.32885e-31
9.36978e-31
1.04192e-30
1.14681e-30
1.25055e-30
1.35195e-30
1.44975e-30
1.54271e-30
1.62964e-30
1.70946e-30
1.78122e-30
1.84419e-30
1.89781e-30
1.94172e-30
1.9758e-30
2.00008e-30
2.01478e-30
2.02024e-30
2.01692e-30
2.00536e-30
1.98616e-30
1.95996e-30
1.92741e-30
1.88919e-30
1.84597e-30
1.79839e-30
1.74707e-30
1.69258e-30
1.63544e-30
1.57609e-30
1.51493e-30
1.45228e-30
1.3884e-30
1.32349e-30
1.25771e-30
1.19121e-30
1.12415e-30
1.05667e-30
9.88948e-31
9.21044e-31
8.52882e-31
7.84123e-31
7.14103e-31
6.41846e-31
5.66181e-31
4.85962e-31
4.00317e-31
3.08868e-31
2.11813e-31
1.0975e-31
3.44521e-33
-1.06539e-31
-2.20248e-31
-3.34537e-31
-4.4795e-31
-5.59446e-31
-6.68098e-31
-7.73084e-31
-8.73699e-31
-9.69363e-31
-1.05964e-30
-1.14424e-30
-1.22305e-30
-1.29606e-30
-1.36345e-30
-1.42551e-30
-1.48265e-30
-1.53535e-30
-1.58417e-30
-1.62968e-30
-1.67243e-30
-1.71294e-30
-1.75165e-30
-1.7889e-30
-1.82494e-30
-1.85994e-30
-1.89395e-30
-1.92698e-30
-1.959e-30
-1.98994e-30
-2.01977e-30
-2.04851e-30
-2.07617e-30
-2.1028e-30
-2.12843e-30
-2.15309e-30
-2.17675e-30
-2.1993e-30
-2.22053e-30
-2.24009e-30
-2.25752e-30
-2.27219e-30
-2.28341e-30
-2.29041e-30
-2.29239e-30
-2.28864e-30
-2.27852e-30
-2.26146e-30
-2.23694e-30
-2.2045e-30
-2.16383e-30
-2.11462e-30
-2.05656e-30
-1.98925e-30
-1.91213e-30
-1.82457e-30
-1.72581e-30
-1.61505e-30
-1.4915e-30
-1.35433e-30
-1.20287e-30
-1.03684e-30
-8.56382e-31
-6.61494e-31
-4.5242e-31
-2.29884e-31
5.06492e-33
2.50028e-31
5.0047e-31
7.53498e-31
1.00587e-30
1.25424e-30
1.4931e-30
1.71267e-30
1.90976e-30
2.08291e-30
2.23379e-30
2.36563e-30
2.49519e-30
2.62828e-30
2.73585e-30
2.84564e-30
3.01329e-30
3.18738e-30
3.32381e-30
3.45902e-30
3.61378e-30
3.74778e-30
-1.15569e-29
-9.45657e-30
-7.04372e-30
-4.31199e-30
-1.77195e-30
2.51395e-31
1.63211e-30
2.39234e-30
2.6389e-30
2.50935e-30
2.13697e-30
1.63377e-30
1.08542e-30
5.52426e-31
7.38009e-32
-3.2848e-31
-6.45261e-31
-8.76504e-31
-1.02821e-30
-1.10995e-30
-1.13289e-30
-1.10846e-30
-1.04743e-30
-9.59431e-31
-8.52767e-31
-7.34255e-31
-6.0922e-31
-4.81569e-31
-3.53939e-31
-2.27882e-31
-1.04016e-31
1.77307e-32
1.3785e-31
2.57091e-31
3.76336e-31
4.96478e-31
6.18325e-31
7.42504e-31
8.69391e-31
9.9906e-31
1.13125e-30
1.26537e-30
1.40049e-30
1.53545e-30
1.66882e-30
1.79909e-30
1.92462e-30
2.04382e-30
2.15516e-30
2.25724e-30
2.34882e-30
2.42892e-30
2.49677e-30
2.55188e-30
2.59403e-30
2.62326e-30
2.63986e-30
2.64433e-30
2.63733e-30
2.61969e-30
2.59229e-30
2.55608e-30
2.51201e-30
2.46105e-30
2.4041e-30
2.34206e-30
2.27573e-30
2.20588e-30
2.13318e-30
2.05821e-30
1.98144e-30
1.90329e-30
1.82409e-30
1.74406e-30
1.66337e-30
1.58212e-30
1.50036e-30
1.41812e-30
1.33544e-30
1.25232e-30
1.16876e-30
1.08464e-30
9.99665e-31
9.13258e-31
8.24536e-31
7.32353e-31
6.35453e-31
5.32698e-31
4.23334e-31
3.07226e-31
1.84995e-31
5.79329e-32
-7.1823e-32
-2.15762e-31
-3.5731e-31
-4.98839e-31
-6.39495e-31
-7.78149e-31
-9.13714e-31
-1.04518e-30
-1.17165e-30
-1.29235e-30
-1.40669e-30
-1.51427e-30
-1.61488e-30
-1.70855e-30
-1.79551e-30
-1.87617e-30
-1.95112e-30
-2.02107e-30
-2.08683e-30
-2.14921e-30
-2.20903e-30
-2.26703e-30
-2.32384e-30
-2.37995e-30
-2.4357e-30
-2.4913e-30
-2.54681e-30
-2.60221e-30
-2.65746e-30
-2.71248e-30
-2.76725e-30
-2.82181e-30
-2.87626e-30
-2.93079e-30
-2.9856e-30
-3.0409e-30
-3.09685e-30
-3.1535e-30
-3.21076e-30
-3.26833e-30
-3.32576e-30
-3.38239e-30
-3.43741e-30
-3.48992e-30
-3.53895e-30
-3.58367e-30
-3.62333e-30
-3.65727e-30
-3.68495e-30
-3.7059e-30
-3.71976e-30
-3.72623e-30
-3.72492e-30
-3.71533e-30
-3.69674e-30
-3.66847e-30
-3.62953e-30
-3.57869e-30
-3.51456e-30
-3.43557e-30
-3.34004e-30
-3.22684e-30
-3.09542e-30
-2.94496e-30
-2.77485e-30
-2.58482e-30
-2.37433e-30
-2.14505e-30
-1.90161e-30
-1.64533e-30
-1.37787e-30
-1.09956e-30
-8.15125e-31
-5.36159e-31
-2.63996e-31
-1.08674e-33
2.52758e-31
4.99539e-31
7.48026e-31
9.97848e-31
1.22881e-30
1.47592e-30
1.79371e-30
2.1479e-30
2.49514e-30
2.85006e-30
3.22629e-30
3.58234e-30
-1.21387e-29
-9.85922e-30
-7.30625e-30
-4.47508e-30
-1.88936e-30
1.44932e-31
1.52259e-30
2.27892e-30
2.52869e-30
2.41386e-30
2.06867e-30
1.60322e-30
1.09957e-30
6.13999e-31
1.81589e-31
-1.788e-31
-4.60023e-31
-6.62998e-31
-7.93804e-31
-8.61407e-31
-8.75963e-31
-8.47639e-31
-7.85883e-31
-6.98999e-31
-5.93935e-31
-4.76245e-31
-3.50145e-31
-2.18654e-31
-8.37693e-32
5.33846e-32
1.92374e-31
3.33228e-31
4.76249e-31
6.21857e-31
7.70481e-31
9.22451e-31
1.07791e-30
1.23676e-30
1.39857e-30
1.56261e-30
1.7278e-30
1.89279e-30
2.05597e-30
2.21555e-30
2.36968e-30
2.51648e-30
2.65414e-30
2.78099e-30
2.89555e-30
2.99658e-30
3.08309e-30
3.15442e-30
3.21017e-30
3.2503e-30
3.27504e-30
3.2849e-30
3.28064e-30
3.26323e-30
3.23376e-30
3.19344e-30
3.14353e-30
3.08526e-30
3.01982e-30
2.94834e-30
2.87185e-30
2.79131e-30
2.70756e-30
2.62135e-30
2.53328e-30
2.44384e-30
2.35339e-30
2.26222e-30
2.17052e-30
2.07844e-30
1.98599e-30
1.89318e-30
1.79996e-30
1.70627e-30
1.61208e-30
1.51732e-30
1.42189e-30
1.32552e-30
1.22769e-30
1.12756e-30
1.02397e-30
9.15573e-31
8.01071e-31
6.79466e-31
5.50246e-31
4.13516e-31
2.69972e-31
1.20568e-31
-3.34434e-32
-1.93692e-31
-3.55767e-31
-5.18379e-31
-6.80136e-31
-8.39704e-31
-9.95855e-31
-1.14742e-30
-1.29328e-30
-1.43247e-30
-1.56418e-30
-1.68785e-30
-1.80316e-30
-1.91011e-30
-2.00897e-30
-2.10031e-30
-2.18491e-30
-2.26376e-30
-2.33794e-30
-2.40863e-30
-2.47693e-30
-2.54386e-30
-2.61029e-30
-2.67687e-30
-2.74403e-30
-2.81197e-30
-2.88074e-30
-2.95024e-30
-3.0203e-30
-3.09079e-30
-3.16159e-30
-3.23273e-30
-3.30435e-30
-3.37675e-30
-3.45035e-30
-3.52559e-30
-3.60288e-30
-3.68251e-30
-3.76459e-30
-3.849e-30
-3.93536e-30
-4.02306e-30
-4.11123e-30
-4.19883e-30
-4.28463e-30
-4.36764e-30
-4.44701e-30
-4.52202e-30
-4.5921e-30
-4.65682e-30
-4.71584e-30
-4.7689e-30
-4.81565e-30
-4.85555e-30
-4.88729e-30
-4.91025e-30
-4.92313e-30
-4.92426e-30
-4.91168e-30
-4.88317e-30
-4.83611e-30
-4.76895e-30
-4.68054e-30
-4.56954e-30
-4.43466e-30
-4.27488e-30
-4.08753e-30
-3.87479e-30
-3.64147e-30
-3.38766e-30
-3.11445e-30
-2.82308e-30
-2.51617e-30
-2.20001e-30
-1.87774e-30
-1.5522e-30
-1.22457e-30
-8.94779e-31
-5.60374e-31
-2.25751e-31
9.47142e-32
4.33025e-31
8.4038e-31
1.30116e-30
1.77918e-30
2.27319e-30
2.78811e-30
3.2855e-30
-1.27294e-29
-1.02633e-29
-7.56419e-30
-4.63838e-30
-2.01668e-30
2.10847e-32
1.39347e-30
2.14831e-30
2.40595e-30
2.31023e-30
1.99473e-30
1.56693e-30
1.10525e-30
6.62216e-31
2.69755e-31
-5.55288e-32
-3.07753e-31
-4.88176e-31
-6.02514e-31
-6.5889e-31
-6.66352e-31
-6.33852e-31
-5.69619e-31
-4.80774e-31
-3.73181e-31
-2.5145e-31
-1.19036e-31
2.16045e-32
1.6885e-31
3.21746e-31
4.79821e-31
6.4291e-31
8.10989e-31
9.84038e-31
1.16195e-30
1.34443e-30
1.53096e-30
1.72072e-30
1.91258e-30
2.10511e-30
2.29663e-30
2.48522e-30
2.66885e-30
2.84543e-30
3.0129e-30
3.16932e-30
3.31292e-30
3.44219e-30
3.55586e-30
3.65298e-30
3.73291e-30
3.79532e-30
3.84022e-30
3.86795e-30
3.87911e-30
3.87459e-30
3.85551e-30
3.82316e-30
3.77893e-30
3.72428e-30
3.66065e-30
3.58944e-30
3.51193e-30
3.42928e-30
3.34253e-30
3.25259e-30
3.16025e-30
3.0662e-30
2.97092e-30
2.87475e-30
2.77786e-30
2.68041e-30
2.58252e-30
2.4842e-30
2.38538e-30
2.28597e-30
2.18584e-30
2.08492e-30
1.98315e-30
1.88052e-30
1.77692e-30
1.67204e-30
1.56517e-30
1.45516e-30
1.34041e-30
1.21922e-30
1.09024e-30
9.52721e-31
8.06661e-31
6.52726e-31
4.91948e-31
3.24903e-31
1.5143e-31
-2.62041e-32
-2.05897e-31
-3.86167e-31
-5.65287e-31
-7.41776e-31
-9.14383e-31
-1.08184e-30
-1.24283e-30
-1.39615e-30
-1.54074e-30
-1.67578e-30
-1.80079e-30
-1.91567e-30
-2.02072e-30
-2.11666e-30
-2.20451e-30
-2.28559e-30
-2.36137e-30
-2.43343e-30
-2.50329e-30
-2.57233e-30
-2.6417e-30
-2.71226e-30
-2.78453e-30
-2.85873e-30
-2.9348e-30
-3.01248e-30
-3.09143e-30
-3.1713e-30
-3.25184e-30
-3.33297e-30
-3.41473e-30
-3.49751e-30
-3.58194e-30
-3.66872e-30
-3.75858e-30
-3.85212e-30
-3.94973e-30
-4.05154e-30
-4.15735e-30
-4.26669e-30
-4.37878e-30
-4.49256e-30
-4.6064e-30
-4.71928e-30
-4.83031e-30
-4.93878e-30
-5.04414e-30
-5.14604e-30
-5.24426e-30
-5.33862e-30
-5.42896e-30
-5.5151e-30
-5.59422e-30
-5.66624e-30
-5.72954e-30
-5.78192e-30
-5.82085e-30
-5.84343e-30
-5.84585e-30
-5.82661e-30
-5.78335e-30
-5.71452e-30
-5.61842e-30
-5.49372e-30
-5.33903e-30
-5.15421e-30
-4.94142e-30
-4.70142e-30
-4.43511e-30
-4.14378e-30
-3.82928e-30
-3.49522e-30
-3.14468e-30
-2.78059e-30
-2.40513e-30
-2.02e-30
-1.62691e-30
-1.23239e-30
-8.47257e-31
-4.46724e-31
1.35309e-32
5.3328e-31
1.0881e-30
1.66898e-30
2.27389e-30
2.86594e-30
-1.33094e-29
-1.06548e-29
-7.81286e-30
-4.80264e-30
-2.1557e-30
-1.20644e-31
1.24576e-30
2.0023e-30
2.27254e-30
2.20018e-30
1.91684e-30
1.52691e-30
1.10528e-30
7.01248e-31
3.44206e-31
4.91425e-32
-1.78786e-31
-3.40793e-31
-4.41968e-31
-4.89457e-31
-4.91162e-31
-4.54876e-31
-3.87713e-31
-2.958e-31
-1.84159e-31
-5.67284e-32
8.3531e-32
2.34486e-31
3.94668e-31
5.63108e-31
7.39176e-31
9.22434e-31
1.11248e-30
1.30886e-30
1.51095e-30
1.71795e-30
1.92877e-30
2.14207e-30
2.35622e-30
2.56935e-30
2.77941e-30
2.98423e-30
3.18158e-30
3.3693e-30
3.54532e-30
3.7078e-30
3.85514e-30
3.98605e-30
4.09955e-30
4.19498e-30
4.27197e-30
4.3305e-30
4.37085e-30
4.39356e-30
4.3995e-30
4.38974e-30
4.3656e-30
4.32853e-30
4.28006e-30
4.22174e-30
4.15508e-30
4.08148e-30
4.00223e-30
3.91842e-30
3.83098e-30
3.74073e-30
3.64837e-30
3.5545e-30
3.45952e-30
3.36352e-30
3.26645e-30
3.16837e-30
3.06939e-30
2.9695e-30
2.86855e-30
2.76638e-30
2.66284e-30
2.55785e-30
2.45146e-30
2.34374e-30
2.23471e-30
2.12417e-30
2.01133e-30
1.89472e-30
1.77219e-30
1.64149e-30
1.50113e-30
1.35079e-30
1.19132e-30
1.02448e-30
8.52413e-31
6.76856e-31
4.75918e-31
2.81453e-31
8.61152e-32
-1.09531e-31
-3.03312e-31
-4.93641e-31
-6.79514e-31
-8.59697e-31
-1.03269e-30
-1.19701e-30
-1.35125e-30
-1.49427e-30
-1.6253e-30
-1.74405e-30
-1.85084e-30
-1.94652e-30
-2.03241e-30
-2.11021e-30
-2.18188e-30
-2.24952e-30
-2.31517e-30
-2.38069e-30
-2.44762e-30
-2.5171e-30
-2.5898e-30
-2.66591e-30
-2.74524e-30
-2.82731e-30
-2.91148e-30
-2.9971e-30
-3.08368e-30
-3.17107e-30
-3.25885e-30
-3.34747e-30
-3.4377e-30
-3.53052e-30
-3.62693e-30
-3.72786e-30
-3.83403e-30
-3.94581e-30
-4.06324e-30
-4.18599e-30
-4.31353e-30
-4.44515e-30
-4.57841e-30
-4.71252e-30
-4.84674e-30
-4.9805e-30
-5.11344e-30
-5.24544e-30
-5.37652e-30
-5.50673e-30
-5.63615e-30
-5.76614e-30
-5.89034e-30
-6.01038e-30
-6.12406e-30
-6.22865e-30
-6.32098e-30
-6.39756e-30
-6.45457e-30
-6.48886e-30
-6.4978e-30
-6.47912e-30
-6.43082e-30
-6.35135e-30
-6.23953e-30
-6.09462e-30
-5.91706e-30
-5.70719e-30
-5.46545e-30
-5.19266e-30
-4.89001e-30
-4.55958e-30
-4.20379e-30
-3.82536e-30
-3.42707e-30
-3.01197e-30
-2.58427e-30
-2.15155e-30
-1.72264e-30
-1.2806e-30
-7.90082e-31
-2.41531e-31
3.53207e-31
9.84445e-31
1.64712e-30
2.30424e-30
-1.38584e-29
-1.10226e-29
-8.05011e-30
-4.96929e-30
-2.30748e-30
-2.80031e-31
1.08055e-30
1.84212e-30
2.12931e-30
2.08409e-30
1.83518e-30
1.48364e-30
1.10101e-30
7.33726e-31