/*--------------------------------*- C++ -*----------------------------------*\
| =========                 |                                                 |
| \\      /  F ield         | OpenFOAM: The Open Source CFD Toolbox           |
|  \\    /   O peration     | Version:  2112                                  |
|   \\  /    A nd           | Website:  www.openfoam.com                      |
|    \\/     M anipulation  |                                                 |
\*---------------------------------------------------------------------------*/
FoamFile
{
    version     2.0;
    format      ascii;
    arch        "LSB;label=32;scalar=64";
    class       volScalarField;
    location    "0.22";
    object      kU;
}
// * * * * * * * * * * * * * * * * * * * * * * * * * * * * * * * * * * * * * //

dimensions      [0 2 -2 0 0 0 0];

internalField   nonuniform List<scalar> 
12225
(
0.535035
0.804695
0.988842
1.09682
1.15179
1.17079
1.16762
1.15734
1.13746
1.11298
1.08951
1.06334
1.042
1.01667
0.999746
0.975764
0.964001
0.939114
0.378381
0.385987
0.391196
0.394533
0.396554
0.398201
0.39941
0.401667
0.404008
0.409071
0.412994
0.421088
0.427403
0.438235
0.445751
0.460319
0.468823
0.483245
0.375171
0.374423
0.372407
0.368457
0.363683
0.358106
0.35244
0.346654
0.341106
0.336134
0.331387
0.327658
0.324168
0.321708
0.319541
0.31854
0.317646
0.31764
0.375055
0.374581
0.373491
0.371419
0.368905
0.365796
0.362565
0.358912
0.355376
0.351571
0.348107
0.3444
0.341271
0.337792
0.335135
0.33206
0.329892
0.327172
0.375065
0.374811
0.374215
0.373084
0.3717
0.369991
0.36818
0.366107
0.364054
0.361786
0.359671
0.357331
0.355289
0.35295
0.351084
0.348813
0.347184
0.344971
0.37507
0.374926
0.374562
0.37387
0.373014
0.371974
0.370851
0.369581
0.368288
0.366879
0.365513
0.364036
0.362672
0.361172
0.359874
0.358378
0.357203
0.355696
0.375059
0.374974
0.374736
0.374276
0.373701
0.373014
0.372261
0.371421
0.370549
0.369614
0.36868
0.367696
0.366746
0.365743
0.364815
0.363811
0.362947
0.361919
0.375038
0.374985
0.374821
0.3745
0.374094
0.373612
0.37308
0.372492
0.371874
0.371218
0.370552
0.36986
0.369175
0.368471
0.367791
0.367086
0.366438
0.365712
0.375014
0.374975
0.374855
0.374624
0.374328
0.373978
0.373588
0.37316
0.372706
0.372228
0.371737
0.371231
0.370723
0.370207
0.369698
0.369182
0.368687
0.368153
0.374992
0.37495
0.374857
0.374687
0.374468
0.374208
0.373916
0.373596
0.373255
0.372896
0.372526
0.372145
0.37176
0.37137
0.370981
0.370589
0.370204
0.369799
0.37497
0.374916
0.374837
0.374709
0.374544
0.374349
0.374128
0.373885
0.373625
0.373352
0.373068
0.372776
0.372479
0.372177
0.371874
0.371569
0.371265
0.370948
0.374953
0.374881
0.374805
0.374702
0.374574
0.374422
0.374249
0.374059
0.373855
0.373639
0.373414
0.373182
0.372944
0.372703
0.372458
0.37221
0.371961
0.371704
0.374938
0.374846
0.374767
0.374679
0.374577
0.374458
0.374323
0.374175
0.374015
0.373845
0.373666
0.373481
0.37329
0.373094
0.372895
0.372692
0.372486
0.372274
0.374924
0.374809
0.37472
0.374639
0.374554
0.374463
0.374361
0.374249
0.374128
0.373998
0.373861
0.373717
0.373567
0.373412
0.373253
0.37309
0.372922
0.37275
0.374913
0.374773
0.374668
0.374583
0.374508
0.374435
0.374358
0.374276
0.374187
0.374092
0.37399
0.373881
0.373767
0.373647
0.373523
0.373393
0.373259
0.373121
0.374905
0.374743
0.374618
0.374521
0.374445
0.374379
0.374317
0.374256
0.374191
0.374122
0.374048
0.373968
0.373883
0.373792
0.373695
0.373594
0.373488
0.373378
0.374899
0.374721
0.374577
0.374464
0.374378
0.374309
0.374251
0.374198
0.374147
0.374094
0.374038
0.373977
0.373912
0.373841
0.373766
0.373685
0.373601
0.373511
0.374896
0.374708
0.37455
0.374424
0.374325
0.374246
0.374182
0.374126
0.374076
0.374026
0.373975
0.373921
0.373863
0.373802
0.373736
0.373665
0.373592
0.373514
0.374896
0.374705
0.374544
0.374411
0.374303
0.374214
0.374138
0.37407
0.374006
0.373944
0.373881
0.373816
0.373748
0.373677
0.373603
0.373526
0.373447
0.373365
0.374898
0.374715
0.374561
0.374432
0.37432
0.374221
0.374128
0.374038
0.373948
0.373856
0.373763
0.373667
0.373568
0.373466
0.373362
0.373256
0.373148
0.37304
0.374904
0.374735
0.37459
0.374462
0.374342
0.374224
0.374105
0.373983
0.373857
0.373726
0.373592
0.373454
0.373312
0.373169
0.373023
0.372877
0.372729
0.372582
0.374914
0.374763
0.374625
0.374487
0.374344
0.374191
0.37403
0.373859
0.37368
0.373493
0.373301
0.373104
0.372904
0.372701
0.372497
0.372292
0.372087
0.371885
0.374929
0.374796
0.374652
0.374486
0.374298
0.374088
0.373861
0.373618
0.373361
0.373094
0.372818
0.372537
0.372251
0.371962
0.371672
0.371381
0.371092
0.370808
0.37495
0.374827
0.374656
0.374435
0.374169
0.373869
0.373538
0.373183
0.372807
0.372415
0.372011
0.371598
0.371178
0.370756
0.370332
0.369909
0.369487
0.369076
0.374972
0.374844
0.374616
0.374298
0.373898
0.373445
0.372938
0.372394
0.371814
0.371212
0.370589
0.369955
0.36931
0.368663
0.368012
0.367369
0.366722
0.366102
0.374988
0.374833
0.3745
0.373994
0.373337
0.372596
0.37175
0.370854
0.369885
0.368891
0.367852
0.366809
0.365739
0.364685
0.363613
0.362578
0.361519
0.36053
0.37501
0.374774
0.374223
0.373313
0.372084
0.370729
0.369135
0.367494
0.365679
0.363879
0.361961
0.360103
0.358168
0.356329
0.354433
0.352671
0.350842
0.349202
0.375129
0.374769
0.373789
0.371935
0.3694
0.3667
0.363451
0.360272
0.356713
0.353393
0.34984
0.346607
0.343268
0.34026
0.337267
0.334531
0.331951
0.32951
0.376924
0.37984
0.381432
0.381364
0.380883
0.379896
0.378235
0.376657
0.374964
0.373632
0.372527
0.371795
0.371615
0.37186
0.37221
0.373347
0.37483
0.375974
0.459539
0.609323
0.730002
0.821265
0.887079
0.932656
0.962747
0.981436
0.991686
0.996074
0.995445
0.993293
0.988571
0.982414
0.975395
0.967877
0.96013
0.952307
0.000105216
0.000680339
0.00113097
0.00144177
0.00164352
0.00177226
0.00187546
0.00200992
0.0022128
0.00243344
0.00266242
0.00282848
0.00292396
0.00297585
0.00294659
0.00275792
0.00223323
0.00184345
0.00150383
0.00105811
0.000596373
0.000435643
0.000494857
0.000650762
0.000778662
0.000863381
0.000979744
0.00126893
0.00186517
0.00267252
0.00304066
0.00289634
0.00242608
0.0020127
0.0015661
0.00118912
0.00123132
0.00155174
0.00368217
0.0139941
0.0256969
0.0358129
0.0449
0.053129
0.0607739
0.0679311
0.074734
0.08124
0.0875383
0.0936607
0.0996897
0.105647
0.111597
0.117562
0.123593
0.129718
0.135994
0.142452
0.14916
0.156103
0.162987
0.170027
0.177073
0.18423
0.191422
0.198698
0.206017
0.213399
0.220821
0.22829
0.23579
0.243319
0.250867
0.258429
0.265996
0.273561
0.281116
0.288655
0.29617
0.303653
0.311098
0.318497
0.325844
0.333129
0.340348
0.34749
0.35455
0.361519
0.368389
0.375152
0.381798
0.38832
0.394708
0.400954
0.407049
0.412987
0.418761
0.42437
0.429818
0.435118
0.440299
0.445383
0.450295
0.455029
0.459598
0.463974
0.468174
0.472176
0.475988
0.479596
0.483004
0.486202
0.489191
0.491966
0.494524
0.496864
0.498983
0.50088
0.502555
0.504005
0.505232
0.506235
0.507017
0.507578
0.507922
0.508051
0.508008
0.507743
0.50722
0.506531
0.505576
0.504315
0.502848
0.501135
0.499245
0.49717
0.494902
0.492389
0.489723
0.486853
0.483818
0.480605
0.47723
0.473695
0.470007
0.466173
0.462199
0.458093
0.453863
0.449511
0.445043
0.440466
0.435788
0.43102
0.426173
0.421258
0.416286
0.411267
0.40621
0.401123
0.396012
0.390882
0.385737
0.380579
0.375415
0.370251
0.365098
0.359961
0.354849
0.349764
0.344704
0.339664
0.334626
0.329579
0.324422
0.319312
0.31336
0.308892
0.303652
0.289181
0.00034916
0.000404309
0.000738009
0.000875017
0.000974057
0.00116237
0.00154461
0.00234102
0.0036896
0.00551011
0.00759599
0.00973756
0.0117616
0.0135512
0.0149163
0.0158644
0.0160033
0.0155081
0.014114
0.0113062
0.00782525
0.00475579
0.00277257
0.00163612
0.00109483
0.000940803
0.00131488
0.00278274
0.00619675
0.010761
0.0127981
0.0121941
0.0102558
0.00888951
0.00459766
0.0040479
0.00823608
0.0141796
0.0219966
0.034545
0.0472407
0.0595184
0.0720185
0.0847483
0.0978993
0.111323
0.125075
0.139094
0.153226
0.167054
0.180833
0.194451
0.208029
0.221548
0.235074
0.248607
0.262229
0.27592
0.289742
0.303681
0.317777
0.332042
0.346488
0.361125
0.375954
0.390979
0.406195
0.4216
0.437183
0.452938
0.468853
0.484915
0.501111
0.517426
0.533847
0.550358
0.566942
0.583586
0.600274
0.616991
0.633722
0.650452
0.667166
0.683851
0.700491
0.717071
0.733577
0.749994
0.766305
0.782495
0.798547
0.814443
0.830166
0.845696
0.861014
0.876098
0.890926
0.905475
0.91972
0.933635
0.947201
0.96038
0.973399
0.986104
0.998556
1.0107
1.02255
1.03408
1.04528
1.05615
1.06666
1.07681
1.08659
1.09599
1.105
1.11361
1.12181
1.1296
1.13697
1.14391
1.15042
1.1565
1.16214
1.16734
1.17211
1.17644
1.18034
1.18383
1.18691
1.18963
1.19202
1.19414
1.19575
1.19685
1.19748
1.19779
1.19781
1.19723
1.19628
1.19491
1.19314
1.19099
1.18845
1.18555
1.18228
1.17866
1.17471
1.17042
1.16582
1.16092
1.15571
1.15021
1.14444
1.13842
1.13215
1.12568
1.11901
1.11218
1.1052
1.09809
1.09087
1.08355
1.07614
1.06865
1.06109
1.05347
1.04582
1.03815
1.03049
1.02284
1.01522
1.00761
0.999995
0.992344
0.984504
0.976667
0.967588
0.959783
0.945765
0.919557
0.000182594
0.000143392
0.000271759
0.000385176
0.000426362
0.000563995
0.001033
0.0021045
0.00398319
0.00639173
0.00907252
0.0118387
0.0144563
0.0167777
0.0187328
0.0201693
0.0211474
0.0213202
0.0210374
0.0201707
0.0183551
0.0156082
0.0121398
0.00866321
0.00587092
0.00414058
0.00423183
0.0058023
0.0106672
0.0172474
0.0203787
0.0193538
0.0142148
0.0131671
0.0135654
0.0195836
0.0307334
0.04509
0.0610676
0.0794662
0.0993437
0.120824
0.143157
0.165758
0.188245
0.210279
0.231723
0.252418
0.272463
0.292218
0.311667
0.330882
0.349928
0.368849
0.387724
0.406596
0.425516
0.444519
0.463642
0.482911
0.502353
0.521987
0.541828
0.561885
0.582164
0.602665
0.623387
0.644324
0.665468
0.686809
0.708333
0.730027
0.751873
0.773856
0.795955
0.818154
0.840432
0.86277
0.885148
0.907549
0.929951
0.952338
0.974689
0.996988
1.01922
1.04135
1.06339
1.08529
1.10705
1.12865
1.15007
1.17129
1.1923
1.21307
1.23358
1.25383
1.2738
1.29346
1.31282
1.33185
1.35057
1.36895
1.38698
1.40464
1.42192
1.4388
1.45526
1.47128
1.48685
1.50196
1.51658
1.53071
1.54433
1.55743
1.56999
1.58201
1.59347
1.60437
1.6147
1.62444
1.6336
1.64217
1.65014
1.65751
1.66427
1.67044
1.67602
1.68099
1.68537
1.68917
1.69238
1.695
1.697
1.69832
1.699
1.69926
1.69896
1.69797
1.69643
1.69431
1.69165
1.68844
1.68471
1.68046
1.67571
1.67047
1.66477
1.6586
1.652
1.64497
1.63752
1.62968
1.62146
1.61287
1.60396
1.59474
1.58525
1.57552
1.56557
1.55542
1.54511
1.53466
1.52407
1.51335
1.50254
1.49164
1.48068
1.46969
1.45869
1.44771
1.43677
1.42586
1.41498
1.40411
1.39314
1.38221
1.37051
1.35941
1.34383
1.3188
1.70614e-05
3.24397e-05
8.66491e-05
0.00018687
0.000542418
0.00153029
0.00366241
0.00689264
0.0106159
0.0144121
0.0180472
0.0213299
0.0241199
0.0263073
0.0277893
0.0286179
0.0286144
0.0282894
0.0274672
0.0261372
0.0244036
0.0222125
0.0195529
0.0165726
0.0138553
0.0120267
0.0131646
0.018656
0.0294688
0.0351013
0.0309692
0.0244744
0.0228408
0.0274235
0.0391094
0.0560232
0.0746083
0.0952146
0.117926
0.142465
0.167863
0.193626
0.219326
0.244778
0.269863
0.29451
0.31871
0.34249
0.365924
0.389093
0.412031
0.434787
0.457426
0.480003
0.502572
0.52518
0.547872
0.570684
0.593651
0.616801
0.64016
0.663747
0.687578
0.711664
0.736013
0.760626
0.785504
0.810641
0.836029
0.861659
0.887516
0.913584
0.939846
0.96628
0.992866
1.01958
1.0464
1.0733
1.10026
1.12725
1.15424
1.18123
1.20817
1.23506
1.26186
1.28856
1.31514
1.34157
1.36783
1.39391
1.41977
1.44541
1.4708
1.49592
1.52075
1.54528
1.56949
1.59336
1.61688
1.64003
1.6628
1.68515
1.70707
1.72854
1.74954
1.77004
1.79002
1.80946
1.82835
1.84667
1.86439
1.88151
1.898
1.91385
1.92904
1.94357
1.95741
1.97056
1.98301
1.99474
2.00576
2.01605
2.02561
2.03443
2.04251
2.04985
2.05645
2.0623
2.06741
2.07178
2.0754
2.07828
2.08041
2.0817
2.08226
2.0823
2.08156
2.08007
2.07788
2.075
2.07144
2.06723
2.06237
2.05689
2.0508
2.04411
2.03685
2.02903
2.02067
2.0118
2.00242
1.99257
1.98225
1.97149
1.96033
1.94879
1.93691
1.92473
1.91228
1.89958
1.88667
1.87357
1.86031
1.84689
1.83335
1.81969
1.80596
1.79218
1.77838
1.76461
1.75088
1.73721
1.7236
1.71006
1.69654
1.68312
1.66932
1.65589
1.63949
1.61604
2.24327e-05
3.95674e-05
0.00022912
0.000935397
0.00269854
0.00639347
0.0114247
0.0167312
0.0218793
0.0266663
0.0308567
0.0342602
0.0367549
0.0383015
0.0389177
0.0387712
0.0381328
0.0368205
0.0351045
0.0330987
0.0309037
0.0285476
0.0261332
0.0235951
0.0210563
0.0211463
0.0269047
0.0408336
0.0476032
0.0429536
0.0365794
0.0354408
0.0443668
0.0605238
0.0795305
0.100351
0.123439
0.148241
0.174224
0.200869
0.227661
0.254469
0.281194
0.307786
0.334203
0.360428
0.386463
0.412324
0.438031
0.463605
0.489081
0.514495
0.539887
0.565299
0.590772
0.616345
0.642056
0.667939
0.694025
0.720343
0.746918
0.77377
0.800916
0.82837
0.85614
0.884231
0.912645
0.941379
0.970425
0.999774
1.02941
1.05932
1.08948
1.11987
1.15046
1.18122
1.21213
1.24316
1.27427
1.30544
1.33664
1.36784
1.399
1.43011
1.46113
1.49205
1.52283
1.55345
1.58389
1.61412
1.64411
1.67386
1.70332
1.73248
1.76131
1.78981
1.81793
1.84567
1.873
1.8999
1.92634
1.9523
1.97775
2.00267
2.02703
2.05081
2.07399
2.09653
2.11842
2.13964
2.16016
2.17997
2.19904
2.21736
2.23492
2.25169
2.26766
2.28282
2.29715
2.31065
2.3233
2.33511
2.34605
2.35613
2.36534
2.37367
2.38114
2.38772
2.39343
2.39826
2.40221
2.4053
2.40752
2.40875
2.40919
2.40894
2.4078
2.4058
2.40298
2.39937
2.39497
2.38981
2.3839
2.37726
2.36992
2.36188
2.35317
2.34382
2.33385
2.32327
2.31212
2.30041
2.28816
2.27541
2.26219
2.24852
2.23446
2.22004
2.20529
2.19026
2.17497
2.15946
2.14375
2.12785
2.1118
2.09562
2.07935
2.06301
2.04665
2.03032
2.01403
1.99784
1.98174
1.96576
1.94989
1.93422
1.91846
1.90303
1.88564
1.86277
8.32473e-05
0.000152282
0.000875404
0.00304755
0.00808445
0.0155911
0.0233598
0.0305406
0.0366023
0.0412492
0.0445113
0.0466009
0.047737
0.0480527
0.0477918
0.0469729
0.0455407
0.0436628
0.0414451
0.0390131
0.0365133
0.0339227
0.0311701
0.0284958
0.0281326
0.0348628
0.0476818
0.0546972
0.0534329
0.0490502
0.0488376
0.0610813
0.078471
0.0982684
0.120385
0.144205
0.169543
0.195785
0.222458
0.249299
0.276217
0.303226
0.330315
0.357473
0.384691
0.411958
0.439261
0.46659
0.493945
0.521335
0.548772
0.576274
0.603866
0.631573
0.659426
0.687456
0.715694
0.74417
0.772915
0.801954
0.831313
0.861013
0.891074
0.92151
0.952333
0.98355
1.01517
1.04718
1.07958
1.11237
1.14552
1.17903
1.21285
1.24698
1.28138
1.31602
1.35086
1.38586
1.42099
1.45621
1.49148
1.52678
1.56206
1.59729
1.63244
1.66748
1.70238
1.73712
1.77165
1.80596
1.84002
1.87379
1.90726
1.94038
1.97314
2.00552
2.03748
2.06899
2.10004
2.1306
2.16063
2.19011
2.21901
2.24729
2.27494
2.30192
2.32821
2.35377
2.37859
2.40264
2.42589
2.44832
2.46991
2.49064
2.51048
2.52943
2.54746
2.56457
2.58072
2.59592
2.61015
2.62341
2.63568
2.64696
2.65724
2.66652
2.6748
2.68208
2.68835
2.69361
2.69787
2.70114
2.70342
2.70459
2.70491
2.70435
2.7028
2.70029
2.69686
2.69252
2.68729
2.68119
2.67425
2.66648
2.6579
2.64855
2.63844
2.62759
2.61604
2.60381
2.59093
2.57742
2.56331
2.54863
2.53341
2.51769
2.50152
2.48494
2.46798
2.45069
2.43311
2.41526
2.39719
2.3789
2.36044
2.34182
2.32309
2.30429
2.28546
2.26665
2.2479
2.22925
2.21074
2.1924
2.17425
2.15638
2.13862
2.12125
2.10258
2.07942
8.89447e-05
0.000501204
0.00272061
0.00877796
0.020101
0.0310667
0.0396058
0.045444
0.0492801
0.0518335
0.0535297
0.0545564
0.054965
0.0548127
0.0541436
0.0528321
0.0509965
0.0487165
0.0461016
0.0432842
0.0403678
0.037425
0.0349155
0.0346387
0.0393935
0.0499455
0.0586352
0.0606503
0.0594546
0.0619813
0.0738
0.0915674
0.111866
0.134125
0.157992
0.183027
0.208866
0.235089
0.26148
0.288008
0.314718
0.341652
0.368835
0.396277
0.423976
0.451912
0.48007
0.508437
0.537004
0.565762
0.594713
0.623859
0.653214
0.682792
0.712614
0.742705
0.773091
0.803799
0.834855
0.866288
0.89812
0.930377
0.963078
0.996242
1.02988
1.06401
1.09863
1.13374
1.16934
1.20542
1.24197
1.27897
1.31638
1.35418
1.39233
1.4308
1.46954
1.50851
1.54765
1.58693
1.6263
1.66571
1.70513
1.74451
1.78382
1.82302
1.86208
1.90096
1.93963
1.97806
2.01621
2.05406
2.09156
2.12868
2.1654
2.20169
2.23751
2.27283
2.30763
2.34187
2.37552
2.40854
2.44091
2.47259
2.50355
2.53375
2.56318
2.59178
2.61955
2.64644
2.67243
2.69749
2.7216
2.74474
2.76688
2.78801
2.8081
2.82714
2.84511
2.862
2.87779
2.89249
2.90607
2.91853
2.92986
2.94007
2.94914
2.95708
2.96389
2.96957
2.97413
2.97757
2.97988
2.98098
2.98115
2.98025
2.97827
2.97524
2.97116
2.96607
2.96
2.95295
2.94495
2.93604
2.92623
2.91555
2.90403
2.89169
2.87856
2.86467
2.85007
2.83476
2.81879
2.80217
2.78497
2.7672
2.74894
2.73021
2.71106
2.69154
2.67168
2.65152
2.6311
2.61045
2.58959
2.56855
2.54739
2.52614
2.50486
2.48359
2.46239
2.44132
2.4204
2.3997
2.37925
2.35915
2.33931
2.31991
2.29967
2.27558
0.000224098
0.00172925
0.00801738
0.0227502
0.0365133
0.0451226
0.0504729
0.0541162
0.0567529
0.0586476
0.0598949
0.0605227
0.0605318
0.0600131
0.0588483
0.0570973
0.0548226
0.0521014
0.0490424
0.0457883
0.0425597
0.0400032
0.0392394
0.0419998
0.0500887
0.060182
0.0650213
0.0667962
0.0714406
0.0827998
0.100034
0.120328
0.142338
0.165703
0.190091
0.215172
0.240655
0.266341
0.29219
0.318258
0.34462
0.371335
0.398442
0.425957
0.453874
0.482188
0.510885
0.53995
0.569368
0.599126
0.629215
0.659632
0.690381
0.721471
0.752916
0.784735
0.816951
0.84959
0.882678
0.91624
0.950305
0.984897
1.02004
1.05575
1.09205
1.12895
1.16645
1.20457
1.24329
1.28262
1.32252
1.36299
1.40399
1.44548
1.48742
1.52976
1.57246
1.61546
1.65869
1.70211
1.74565
1.78927
1.83292
1.87655
1.92011
1.96357
2.00688
2.05
2.0929
2.13553
2.17787
2.21987
2.26149
2.3027
2.34345
2.38372
2.42348
2.46268
2.50129
2.53928
2.57661
2.61325
2.64914
2.68427
2.71859
2.75207
2.78467
2.81636
2.8471
2.87687
2.90562
2.93333
2.95999
2.98555
3.00999
3.0333
3.05545
3.07642
3.09619
3.11476
3.1321
3.14821
3.16307
3.17669
3.18905
3.20015
3.20998
3.21856
3.22587
3.23193
3.23674
3.24031
3.24262
3.24362
3.24358
3.24232
3.23988
3.23627
3.23151
3.22564
3.21867
3.21064
3.20156
3.19147
3.18039
3.16836
3.15539
3.14153
3.1268
3.11124
3.09488
3.07776
3.0599
3.04134
3.02213
3.00232
2.98195
2.96107
2.93972
2.91796
2.89582
2.87336
2.85059
2.82757
2.80431
2.78085
2.75725
2.73355
2.70981
2.68609
2.66244
2.63892
2.61558
2.59248
2.56968
2.54729
2.52526
2.50374
2.48165
2.45616
0.00224758
0.00546103
0.0199845
0.0371613
0.0469796
0.0531524
0.0574386
0.060523
0.0627194
0.0641786
0.0649777
0.0651444
0.064709
0.0636447
0.0619738
0.0597339
0.056937
0.0536604
0.0501402
0.0466642
0.0437625
0.0426078
0.0440888
0.0501406
0.0592704
0.066745
0.0710281
0.0771649
0.0884633
0.104863
0.124536
0.14599
0.168596
0.192079
0.216199
0.240735
0.265523
0.290504
0.315714
0.341233
0.367146
0.39352
0.420395
0.447786
0.475705
0.504152
0.533118
0.56259
0.592553
0.622992
0.653898
0.685263
0.717087
0.749377
0.782143
0.815403
0.849178
0.883493
0.918376
0.953855
0.989959
1.02672
1.06415
1.10229
1.14114
1.18074
1.22108
1.26217
1.30401
1.34659
1.38988
1.43387
1.47852
1.52378
1.5696
1.61592
1.66268
1.70983
1.75727
1.80495
1.8528
1.90075
1.94876
1.99676
2.0447
2.09253
2.14021
2.18769
2.23492
2.28187
2.32849
2.37474
2.42058
2.46595
2.51082
2.55516
2.59892
2.64207
2.68456
2.72637
2.76743
2.80773
2.8472
2.88581
2.92352
2.9603
2.9961
3.03088
3.06461
3.09725
3.12876
3.15912
3.18829
3.21625
3.24298
3.26844
3.29261
3.31547
3.33701
3.3572
3.37603
3.3935
3.4096
3.42431
3.43764
3.44957
3.4601
3.46925
3.477
3.48336
3.48836
3.492
3.49423
3.4951
3.49475
3.49308
3.4901
3.48586
3.48036
3.47364
3.46573
3.45665
3.44644
3.43512
3.42273
3.4093
3.39486
3.37944
3.36308
3.34581
3.32768
3.30871
3.28894
3.26842
3.24719
3.2253
3.20281
3.17978
3.15624
3.13224
3.10782
3.08304
3.05793
3.03252
3.00686
2.98098
2.95494
2.92879
2.90259
2.8764
2.85028
2.8243
2.79852
2.77299
2.7478
2.72305
2.69874
2.67499
2.65086
2.6236
0.00558605
0.0118058
0.032181
0.0459996
0.0541566
0.0594545
0.0631071
0.0656558
0.0673709
0.0683347
0.0686093
0.0682102
0.0672111
0.0656055
0.0633194
0.0603892
0.0569926
0.0534483
0.0499568
0.0469039
0.045452
0.0459942
0.050403
0.0580641
0.0660419
0.072679
0.0801326
0.0914591
0.107054
0.125745
0.146284
0.167926
0.190331
0.213313
0.23672
0.260428
0.284371
0.308556
0.333045
0.357926
0.383286
0.409186
0.435666
0.462759
0.490483
0.518845
0.547843
0.577469
0.607711
0.638559
0.670003
0.702039
0.734666
0.76789
0.801723
0.836182
0.871289
0.907072
0.943562
0.980791
1.01879
1.0576
1.09723
1.13773
1.17911
1.22139
1.26457
1.30867
1.35368
1.39959
1.44637
1.494
1.54242
1.59158
1.64142
1.69186
1.74285
1.79429
1.84609
1.89818
1.95048
2.00291
2.0554
2.1079
2.16035
2.21269
2.26485
2.31679
2.36846
2.41981
2.47081
2.52139
2.57152
2.62112
2.67017
2.71862
2.76644
2.81357
2.85997
2.90561
2.95043
2.99439
3.03744
3.07953
3.12062
3.16067
3.19964
3.23748
3.27415
3.30961
3.34383
3.37676
3.40839
3.43868
3.4676
3.49513
3.52123
3.5459
3.5691
3.59083
3.61106
3.62979
3.64701
3.66271
3.67689
3.68955
3.70068
3.71028
3.71836
3.72494
3.73001
3.73361
3.73569
3.73632
3.73557
3.73338
3.72979
3.72482
3.7185
3.71085
3.70192
3.69173
3.68031
3.6677
3.65394
3.63906
3.62309
3.60607
3.58804
3.56903
3.54908
3.52823
3.50653
3.48402
3.46075
3.43678
3.41217
3.38697
3.36123
3.33499
3.3083
3.28121
3.25375
3.22597
3.1979
3.1696
3.14112
3.11253
3.08387
3.05522
3.02664
2.99819
2.96995
2.94197
2.91435
2.8872
2.86054
2.83449
2.8082
2.7792
0.00790455
0.0183724
0.0401754
0.0524963
0.059655
0.0642594
0.0673579
0.0693516
0.0704139
0.0707195
0.0704034
0.0694908
0.0678924
0.0656138
0.0627924
0.0595294
0.056023
0.0524829
0.0493164
0.0477516
0.047775
0.050852
0.0570312
0.0646506
0.0724433
0.0811937
0.0926386
0.107501
0.125092
0.144463
0.164923
0.186094
0.207787
0.229894
0.252334
0.275055
0.298046
0.321344
0.345019
0.36916
0.393842
0.419127
0.445064
0.471692
0.499039
0.527122
0.555945
0.585508
0.615807
0.646836
0.678593
0.711075
0.744288
0.778239
0.812943
0.848419
0.884691
0.921793
0.95976
0.998633
1.03845
1.07925
1.12107
1.16394
1.20788
1.25291
1.29903
1.34626
1.39458
1.44397
1.4944
1.54584
1.59822
1.65147
1.70551
1.76026
1.81563
1.87154
1.92786
1.98452
2.0414
2.09843
2.15555
2.21267
2.26974
2.32668
2.38343
2.43992
2.4961
2.55192
2.60734
2.66229
2.71673
2.77059
2.82382
2.87638
2.92822
2.97931
3.02959
3.07902
3.12754
3.1751
3.22165
3.26713
3.3115
3.35473
3.39675
3.43753
3.47702
3.51518
3.55196
3.58733
3.62126
3.65372
3.68469
3.71412
3.742
3.7683
3.793
3.81608
3.83754
3.85736
3.87554
3.89207
3.90694
3.92015
3.93171
3.94161
3.94987
3.95649
3.96149
3.9649
3.96669
3.96695
3.96567
3.96284
3.95851
3.9527
3.94544
3.93678
3.92673
3.91533
3.90263
3.88865
3.87345
3.85706
3.83951
3.82085
3.8011
3.78032
3.75853
3.73579
3.71213
3.68761
3.6623
3.63625
3.60952
3.58218
3.55426
3.52581
3.49686
3.46748
3.4377
3.40756
3.37712
3.34642
3.31554
3.28452
3.25344
3.22235
3.19133
3.16043
3.12973
3.0993
3.06924
3.03966
3.01061
2.9822
2.95368
2.92281
0.00908187
0.0243363
0.0459494
0.057342
0.0637634
0.0676986
0.0700826
0.0712795
0.0716962
0.0714725
0.0705309
0.0688885
0.0666591
0.063923
0.0607277
0.0573494
0.0540413
0.0511335
0.0495846
0.049326
0.0514424
0.0563705
0.0633453
0.0715402
0.0810878
0.0927619
0.107001
0.123499
0.141589
0.160707
0.180497
0.20077
0.221431
0.242429
0.263737
0.285349
0.307284
0.329591
0.352344
0.375621
0.399496
0.424034
0.449285
0.47529
0.5021
0.52974
0.558224
0.587558
0.617748
0.648795
0.680705
0.713484
0.747141
0.781692
0.817158
0.853562
0.89092
0.929278
0.96868
1.00918
1.05083
1.09367
1.13776
1.18311
1.22975
1.2777
1.32697
1.37753
1.42938
1.48249
1.53682
1.59232
1.64892
1.70651
1.76499
1.82426
1.88422
1.94477
2.00578
2.06714
2.12874
2.19048
2.25231
2.31414
2.3759
2.43751
2.49889
2.55996
2.62067
2.68095
2.74076
2.80003
2.85872
2.91676
2.97408
3.03065
3.08642
3.14134
3.19536
3.24843
3.30049
3.35148
3.40134
3.45002
3.49748
3.54366
3.58852
3.63201
3.67408
3.71468
3.75378
3.79133
3.82731
3.86168
3.89442
3.92549
3.95488
3.98255
4.00848
4.03267
4.05509
4.07574
4.09462
4.11172
4.12703
4.14057
4.15232
4.1623
4.17051
4.17697
4.1817
4.18472
4.18604
4.18572
4.18376
4.18013
4.17491
4.16812
4.1598
4.14998
4.13871
4.12601
4.11192
4.0965
4.07978
4.06181
4.04264
4.02229
4.00081
3.97823
3.9546
3.92994
3.90432
3.87781
3.85047
3.82237
3.79356
3.76411
3.73405
3.70343
3.6723
3.64068
3.60863
3.57619
3.54342
3.51038
3.47715
3.44378
3.41034
3.37687
3.34345
3.31015
3.27703
3.24418
3.21171
3.17971
3.14827
3.11749
3.08671
3.05389
0.00951524
0.0285874
0.0504257
0.0611261
0.0667602
0.0698501
0.0712908
0.0717912
0.0714395
0.0702658
0.0684579
0.0661725
0.0635014
0.0605635
0.0575666
0.0546721
0.0521586
0.0508275
0.0505114
0.0520653
0.0561769
0.0625742
0.0708082
0.0807199
0.0924928
0.106227
0.121707
0.138507
0.156208
0.174518
0.193264
0.212364
0.231784
0.251515
0.271565
0.291956
0.312726
0.333931
0.355642
0.377911
0.400856
0.424559
0.4491
0.474529
0.500832
0.528029
0.556143
0.585193
0.615196
0.646167
0.678121
0.711078
0.745059
0.780091
0.816209
0.853466
0.891949
0.931647
0.97257
1.01481
1.05843
1.10349
1.15005
1.19813
1.24776
1.29895
1.35169
1.40596
1.46173
1.51894
1.57755
1.63749
1.69864
1.76089
1.82409
1.88813
1.95287
2.01822
2.08403
2.15018
2.21654
2.28303
2.34958
2.41611
2.48255
2.5488
2.61476
2.68036
2.74549
2.81012
2.87417
2.9376
3.00035
3.06236
3.12356
3.18391
3.24335
3.30184
3.35932
3.41574
3.47103
3.52513
3.57797
3.62951
3.67969
3.72846
3.77578
3.8216
3.86586
3.90853
3.94954
3.98888
4.02651
4.06239
4.09651
4.12883
4.15933
4.18799
4.21477
4.23968
4.2627
4.28382
4.30305
4.32037
4.3358
4.34933
4.36097
4.37071
4.37859
4.38461
4.3888
4.39118
4.39179
4.39071
4.38782
4.38319
4.3769
4.36896
4.35942
4.34832
4.33568
4.32156
4.306
4.28904
4.27073
4.25113
4.23027
4.2082
4.18497
4.1606
4.13512
4.10856
4.08101
4.05254
4.02323
3.99313
3.96231
3.93082
3.89871
3.86601
3.83276
3.79901
3.76477
3.73012
3.69512
3.65985
3.62438
3.58876
3.55305
3.51731
3.4816
3.44597
3.41051
3.37532
3.3405
3.30615
3.27236
3.23925
3.20621
3.17149
0.0096168
0.0321354
0.0541935
0.0641376
0.0688246
0.0708402
0.0713419
0.0706704
0.0691142
0.0670631
0.0647315
0.0622231
0.0596174
0.0570372
0.0546194
0.0526294
0.0516791
0.0514848
0.0528142
0.0565751
0.0626763
0.0708498
0.080844
0.0925292
0.105764
0.120311
0.135869
0.152151
0.168937
0.186093
0.203554
0.2213
0.239338
0.257689
0.276386
0.295468
0.314981
0.334988
0.355634
0.377074
0.399261
0.422228
0.44601
0.470642
0.496221
0.522798
0.550416
0.579108
0.608907
0.639843
0.671943
0.705235
0.739753
0.775534
0.812611
0.851023
0.890797
0.932002
0.974683
1.01894
1.06489
1.11257
1.16204
1.21335
1.26651
1.3215
1.37831
1.43689
1.49716
1.55906
1.62247
1.68732
1.75344
1.82069
1.88888
1.95787
2.02752
2.0977
2.16829
2.23917
2.31021
2.38133
2.45247
2.52356
2.59451
2.66522
2.73557
2.80545
2.87478
2.94347
3.01142
3.07864
3.14509
3.21069
3.27537
3.33908
3.40176
3.46336
3.52383
3.5831
3.64111
3.6978
3.75309
3.80694
3.85928
3.91009
3.9593
4.00688
4.05276
4.09691
4.13927
4.17982
4.21853
4.25537
4.29031
4.32332
4.3544
4.3835
4.41062
4.43575
4.45886
4.47997
4.49908
4.51619
4.53129
4.54439
4.55551
4.56464
4.57181
4.57704
4.58036
4.5818
4.58144
4.57929
4.5752
4.56935
4.56177
4.55249
4.54156
4.529
4.51487
4.49921
4.48206
4.46348
4.44351
4.42221
4.39963
4.37582
4.35082
4.32468
4.2974
4.26899
4.23956
4.20922
4.17802
4.14603
4.1133
4.07988
4.04582
4.01117
3.97595
3.94019
3.9039
3.86718
3.83011
3.79276
3.7552
3.71748
3.67967
3.6418
3.60393
3.56611
3.52845
3.49105
3.454
3.41741
3.38137
3.34603
3.31081
3.27428
0.00934664
0.0356786
0.0575531
0.0665812
0.0701477
0.0709674
0.0700413
0.0679983
0.0655996
0.0631568
0.0607523
0.0584335
0.056281
0.0544039
0.0530835
0.0525384
0.0525176
0.0540153
0.0577483
0.0639842
0.0721361
0.0820482
0.0934653
0.106129
0.11978
0.134166
0.149071
0.16433
0.179866
0.195651
0.211675
0.227959
0.244541
0.261466
0.278785
0.296553
0.314868
0.33391
0.353599
0.373941
0.395079
0.417096
0.440069
0.46407
0.489146
0.515349
0.542733
0.571346
0.601236
0.632445
0.665016
0.698996
0.734449
0.771414
0.809923
0.850013
0.891686
0.935035
0.980243
1.02734
1.07639
1.12748
1.18069
1.2361
1.29368
1.35338
1.41514
1.47887
1.54446
1.61175
1.68059
1.75081
1.82222
1.89467
1.96795
2.0419
2.11637
2.19115
2.26625
2.34153
2.41691
2.49231
2.56769
2.64297
2.71803
2.79274
2.86699
2.94066
3.01363
3.08582
3.15714
3.22763
3.29722
3.36584
3.43341
3.49985
3.56511
3.62915
3.6919
3.75331
3.81332
3.87184
3.92883
3.98421
4.03795
4.09001
4.14033
4.18887
4.23559
4.28044
4.32338
4.36438
4.4034
4.44043
4.47546
4.50845
4.53938
4.56825
4.59502
4.6197
4.64228
4.66276
4.68115
4.69745
4.71167
4.72382
4.73391
4.74194
4.74795
4.75195
4.754
4.75412
4.75248
4.74881
4.74326
4.7359
4.72677
4.71591
4.70336
4.68916
4.67335
4.65599
4.63712
4.6168
4.59507
4.572
4.54764
4.52203
4.49524
4.46731
4.43826
4.40809
4.37693
4.34485
4.3119
4.27816
4.24366
4.20846
4.17261
4.13616
4.09915
4.06158
4.02343
3.98485
3.94591
3.90669
3.86725
3.82765
3.78793
3.74815
3.70831
3.66851
3.62883
3.5894
3.55032
3.51166
3.47354
3.43611
3.39883
3.36069
0.00879465
0.0390672
0.0606242
0.0685996
0.0708768
0.0703325
0.0678248
0.0648847
0.0621425
0.0597211
0.0576359
0.0559185
0.054625
0.0538726
0.0536249
0.0541714
0.0562533
0.0605448
0.0672261
0.0754693
0.0852039
0.0961943
0.108162
0.120851
0.134045
0.147577
0.161336
0.17526
0.189339
0.203588
0.218067
0.232842
0.247974
0.263533
0.279593
0.296239
0.313482
0.331369
0.35004
0.369569
0.390031
0.411511
0.434093
0.457866
0.482878
0.509193
0.536889
0.566037
0.596704
0.628948
0.66282
0.69835
0.735515
0.774396
0.815125
0.857812
0.902627
0.94969
0.99894
1.05037
1.10408
1.16013
1.21856
1.27938
1.34258
1.40809
1.4758
1.5456
1.61731
1.69071
1.76553
1.84144
1.91819
1.99577
2.07402
2.15274
2.23171
2.31075
2.38991
2.46907
2.54817
2.62722
2.70622
2.78507
2.86355
2.94151
3.01883
3.0954
3.17112
3.24594
3.31986
3.39281
3.4647
3.53543
3.60493
3.6731
3.73991
3.80532
3.86928
3.93174
3.99262
4.05187
4.10941
4.16519
4.21917
4.27132
4.32161
4.37
4.41643
4.46087
4.50329
4.54364
4.58192
4.61811
4.6522
4.68417
4.71401
4.74169
4.76722
4.79057
4.81176
4.8308
4.84769
4.86245
4.87509
4.88561
4.89403
4.90036
4.90462
4.90687
4.90714
4.90565
4.90209
4.89657
4.8892
4.88002
4.86905
4.85636
4.84197
4.82593
4.80829
4.7891
4.7684
4.74625
4.72271
4.69783
4.67167