/*--------------------------------*- C++ -*----------------------------------*\
| =========                 |                                                 |
| \\      /  F ield         | OpenFOAM: The Open Source CFD Toolbox           |
|  \\    /   O peration     | Version:  2112                                  |
|   \\  /    A nd           | Website:  www.openfoam.com                      |
|    \\/     M anipulation  |                                                 |
\*---------------------------------------------------------------------------*/
FoamFile
{
    version     2.0;
    format      ascii;
    arch        "LSB;label=32;scalar=64";
    class       surfaceScalarField;
    location    "0.18";
    object      phi;
}
// * * * * * * * * * * * * * * * * * * * * * * * * * * * * * * * * * * * * * //

dimensions      [0 3 -1 0 0 0 0];

oriented        oriented;

internalField   nonuniform List<scalar> 
24170
(
3.05928e-06
1.29124e-07
2.90932e-06
1.49957e-07
2.77429e-06
1.35033e-07
2.65142e-06
1.2287e-07
2.54187e-06
1.09551e-07
2.44826e-06
9.36145e-08
2.37176e-06
7.64984e-08
2.31283e-06
5.89318e-08
2.27212e-06
4.07087e-08
2.24979e-06
2.23313e-08
2.2457e-06
4.08263e-09
2.25927e-06
-1.35714e-08
2.2915e-06
-3.22255e-08
2.34573e-06
-5.42304e-08
2.42768e-06
-8.19515e-08
2.54926e-06
-1.2158e-07
2.73997e-06
-1.90704e-07
-3.44971e-07
3.08494e-06
3.49022e-06
5.61543e-08
3.5417e-06
9.8477e-08
3.57974e-06
9.69926e-08
3.6056e-06
9.70095e-08
3.62183e-06
9.33234e-08
3.63181e-06
8.3628e-08
3.63856e-06
6.97564e-08
3.64449e-06
5.3003e-08
3.65213e-06
3.30672e-08
3.6625e-06
1.19583e-08
3.67756e-06
-1.09734e-08
3.69967e-06
-3.56887e-08
3.73115e-06
-6.37e-08
3.77467e-06
-9.77505e-08
3.83454e-06
-1.41821e-07
3.91783e-06
-2.04871e-07
4.03443e-06
-3.07303e-07
-4.90528e-07
4.17998e-06
3.67572e-06
4.29483e-08
3.6946e-06
7.95986e-08
3.71504e-06
7.65506e-08
3.73894e-06
7.31101e-08
3.76462e-06
6.76424e-08
3.79099e-06
5.72617e-08
3.81773e-06
4.30196e-08
3.84454e-06
2.6193e-08
3.87215e-06
5.45592e-09
3.90065e-06
-1.65449e-08
3.93197e-06
-4.22879e-08
3.96784e-06
-7.15656e-08
4.00996e-06
-1.05819e-07
4.06026e-06
-1.48047e-07
4.12153e-06
-2.03092e-07
4.19672e-06
-2.8006e-07
4.28466e-06
-3.95241e-07
-5.76877e-07
4.371e-06
3.93464e-06
3.36937e-08
3.94889e-06
6.53539e-08
3.96166e-06
6.37814e-08
3.97677e-06
5.79984e-08
3.99424e-06
5.01732e-08
4.01381e-06
3.76936e-08
4.03581e-06
2.10118e-08
4.06004e-06
1.96197e-09
4.08711e-06
-2.1605e-08
4.1176e-06
-4.70424e-08
4.15197e-06
-7.66502e-08
4.19124e-06
-1.10836e-07
4.23668e-06
-1.51262e-07
4.28972e-06
-2.01088e-07
4.35189e-06
-2.65261e-07
4.42371e-06
-3.51886e-07
4.5012e-06
-4.72726e-07
-6.45326e-07
4.56965e-06
4.21528e-06
2.55411e-08
4.2286e-06
5.20292e-08
4.24123e-06
5.11508e-08
4.25598e-06
4.32561e-08
4.27318e-06
3.29666e-08
4.29252e-06
1.83563e-08
4.31446e-06
-9.22981e-10
4.33913e-06
-2.27145e-08
4.36654e-06
-4.90175e-08
4.39769e-06
-7.81856e-08
4.43285e-06
-1.11808e-07
4.4729e-06
-1.5089e-07
4.51882e-06
-1.9718e-07
4.57146e-06
-2.53734e-07
4.63126e-06
-3.25054e-07
4.69704e-06
-4.17667e-07
4.76336e-06
-5.39051e-07
-6.98451e-07
4.81649e-06
4.51594e-06
1.86893e-08
4.5286e-06
3.93673e-08
4.54196e-06
3.77963e-08
4.55737e-06
2.78389e-08
4.57534e-06
1.49941e-08
4.59561e-06
-1.90688e-09
4.61808e-06
-2.33954e-08
4.64351e-06
-4.81392e-08
4.67166e-06
-7.71694e-08
4.70342e-06
-1.09952e-07
4.73915e-06
-1.47531e-07
4.77943e-06
-1.91175e-07
4.82489e-06
-2.42637e-07
4.87581e-06
-3.04651e-07
4.93168e-06
-3.80931e-07
4.99021e-06
-4.76199e-07
5.04566e-06
-5.94501e-07
-7.39679e-07
5.08689e-06
4.83854e-06
1.28659e-08
4.85065e-06
2.72623e-08
4.86444e-06
2.40046e-08
4.88025e-06
1.20246e-08
4.89865e-06
-3.39831e-09
4.91947e-06
-2.27306e-08
4.94264e-06
-4.65635e-08
4.96869e-06
-7.41945e-08
4.99758e-06
-1.06055e-07
5.02986e-06
-1.42229e-07
5.06585e-06
-1.83524e-07
5.10589e-06
-2.31213e-07
5.15018e-06
-2.86934e-07
5.19849e-06
-3.52958e-07
5.24962e-06
-4.32057e-07
5.30067e-06
-5.27249e-07
5.34628e-06
-6.40112e-07
-7.71229e-07
5.37783e-06
5.18464e-06
7.81055e-09
5.19613e-06
1.57731e-08
5.21007e-06
1.00632e-08
5.22616e-06
-4.06905e-09
5.2449e-06
-2.2141e-08
5.26621e-06
-4.40364e-08
5.28997e-06
-7.03202e-08
5.31646e-06
-1.00691e-07
5.34575e-06
-1.35344e-07
5.37814e-06
-1.74614e-07
5.41382e-06
-2.19212e-07
5.45289e-06
-2.70275e-07
5.49516e-06
-3.29209e-07
5.53994e-06
-3.97739e-07
5.58558e-06
-4.77699e-07
5.62902e-06
-5.70682e-07
5.66554e-06
-6.76638e-07
-7.94448e-07
5.68876e-06
5.5558e-06
3.34809e-09
5.56664e-06
4.93196e-09
5.58055e-06
-3.84884e-09
5.59683e-06
-2.0345e-08
5.61577e-06
-4.10856e-08
5.63733e-06
-6.55907e-08
5.66134e-06
-9.4332e-08
5.68793e-06
-1.27278e-07
5.71715e-06
-1.64565e-07
5.74911e-06
-2.06575e-07
5.78384e-06
-2.53946e-07
5.82117e-06
-3.07603e-07
5.8606e-06
-3.68635e-07
5.90107e-06
-4.38209e-07
5.94069e-06
-5.17325e-07
5.9765e-06
-6.0649e-07
6.00455e-06
-7.04682e-07
-8.10046e-07
6.02014e-06
5.95377e-06
-6.48146e-10
5.96397e-06
-5.26755e-09
5.97769e-06
-1.75692e-08
5.99398e-06
-3.66372e-08
6.01292e-06
-6.00258e-08
6.03445e-06
-8.71143e-08
6.05837e-06
-1.18257e-07
6.08468e-06
-1.53585e-07
6.11335e-06
-1.93234e-07
6.14432e-06
-2.37545e-07
6.17742e-06
-2.87046e-07
6.21224e-06
-3.42425e-07
6.24802e-06
-4.04414e-07
6.28347e-06
-4.73661e-07
6.31664e-06
-5.50492e-07
6.34481e-06
-6.34661e-07
6.36477e-06
-7.24646e-07
-8.18441e-07
6.37317e-06
6.38044e-06
-4.27132e-09
6.39e-06
-1.48321e-08
6.40336e-06
-3.09326e-08
6.41947e-06
-5.2741e-08
6.43817e-06
-7.87285e-08
6.45936e-06
-1.08306e-07
6.48282e-06
-1.41717e-07
6.5084e-06
-1.79167e-07
6.53597e-06
-2.20798e-07
6.5653e-06
-2.66876e-07
6.59603e-06
-3.17783e-07
6.62757e-06
-3.7396e-07
6.65895e-06
-4.35794e-07
6.68878e-06
-5.03489e-07
6.71515e-06
-5.76863e-07
6.73569e-06
-6.55206e-07
6.74785e-06
-7.36806e-07
-8.19802e-07
6.74921e-06
5.74366e-06
-7.09723e-09
5.75125e-06
-2.24171e-08
5.76213e-06
-4.18206e-08
5.77542e-06
-6.60266e-08
5.79083e-06
-9.41421e-08
5.80822e-06
-1.25692e-07
5.82735e-06
-1.60851e-07
5.84802e-06
-1.99836e-07
5.87001e-06
-2.42785e-07
5.89302e-06
-2.89885e-07
5.91662e-06
-3.41383e-07
5.94017e-06
-3.97515e-07
5.96279e-06
-4.58407e-07
5.98325e-06
-5.23956e-07
6.00007e-06
-5.93679e-07
6.01151e-06
-6.66642e-07
6.01583e-06
-7.41129e-07
-8.15506e-07
6.01153e-06
7.00114e-06
-1.00851e-08
7.00926e-06
-3.05369e-08
7.02114e-06
-5.36952e-08
7.03577e-06
-8.06589e-08
7.05273e-06
-1.11099e-07
7.07174e-06
-1.44706e-07
7.0925e-06
-1.81607e-07
7.11466e-06
-2.21998e-07
7.13787e-06
-2.65993e-07
7.16166e-06
-3.13682e-07
7.18544e-06
-3.65155e-07
7.20836e-06
-4.20435e-07
7.22934e-06
-4.79396e-07
7.24706e-06
-5.41673e-07
7.25995e-06
-6.06568e-07
7.26634e-06
-6.73036e-07
7.26469e-06
-7.39471e-07
-8.04546e-07
7.25373e-06
8.53393e-06
-1.31701e-08
8.54237e-06
-3.89779e-08
8.5549e-06
-6.62214e-08
8.57045e-06
-9.62101e-08
8.58842e-06
-1.29064e-07
8.60838e-06
-1.64667e-07
8.62989e-06
-2.03119e-07
8.65246e-06
-2.44573e-07
8.67556e-06
-2.89089e-07
8.69853e-06
-3.36655e-07
8.72057e-06
-3.87195e-07
8.74067e-06
-4.40536e-07
8.75762e-06
-4.96338e-07
8.77e-06
-5.54054e-07
8.7763e-06
-6.12869e-07
8.77501e-06
-6.7175e-07
8.76483e-06
-7.29286e-07
-7.84498e-07
8.74478e-06
1.04023e-05
-1.62388e-08
1.04107e-05
-4.73877e-08
1.04233e-05
-7.88108e-08
1.0439e-05
-1.11884e-07
1.04569e-05
-1.47039e-07
1.04766e-05
-1.84338e-07
1.04974e-05
-2.23877e-07
1.05185e-05
-2.65751e-07
1.05394e-05
-3.09953e-07
1.05591e-05
-3.56363e-07
1.05767e-05
-4.04767e-07
1.0591e-05
-4.54832e-07
1.06007e-05
-5.06081e-07
1.06045e-05
-5.57874e-07
1.06011e-05
-6.09395e-07
1.0589e-05
-6.59719e-07
1.05674e-05
-7.07686e-07
-7.52665e-07
1.05356e-05
1.26797e-05
-1.91084e-08
1.26875e-05
-5.52155e-08
1.26992e-05
-9.05339e-08
1.27137e-05
-1.26396e-07
1.27301e-05
-1.63401e-07
1.27475e-05
-2.01751e-07
1.27652e-05
-2.4155e-07
1.27823e-05
-2.82838e-07
1.27978e-05
-3.25539e-07
1.28109e-05
-3.69454e-07
1.28204e-05
-4.14272e-07
1.28252e-05
-4.59574e-07
1.28239e-05
-5.04834e-07
1.28155e-05
-5.49421e-07
1.27987e-05
-5.9261e-07
1.27726e-05
-6.33657e-07
1.27366e-05
-6.71675e-07
-7.06348e-07
1.26903e-05
1.54556e-05
-2.15053e-08
1.5462e-05
-6.16585e-08
1.54715e-05
-1.00051e-07
1.5483e-05
-1.37883e-07
1.54954e-05
-1.75806e-07
1.55078e-05
-2.14108e-07
1.55191e-05
-2.52911e-07
1.55285e-05
-2.92222e-07
1.55349e-05
-3.31923e-07
1.55372e-05
-3.71778e-07
1.55344e-05
-4.1145e-07
1.55254e-05
-4.5052e-07
1.5509e-05
-4.88501e-07
1.54845e-05
-5.24858e-07
1.54509e-05
-5.59026e-07
1.54077e-05
-5.90475e-07
1.53546e-05
-6.18593e-07
-6.43315e-07
1.52916e-05
1.88392e-05
-2.30451e-08
1.88432e-05
-6.56823e-08
1.88488e-05
-1.05668e-07
1.88549e-05
-1.43994e-07
1.88604e-05
-1.81301e-07
1.88642e-05
-2.17935e-07
1.88654e-05
-2.54051e-07
1.88628e-05
-2.89661e-07
1.88556e-05
-3.24657e-07
1.88426e-05
-3.58826e-07
1.8823e-05
-3.9188e-07
1.8796e-05
-4.23477e-07
1.87607e-05
-4.53243e-07
1.87167e-05
-4.80796e-07
1.86634e-05
-5.0576e-07
1.86008e-05
-5.27818e-07
1.85288e-05
-5.46605e-07
-5.62229e-07
1.84477e-05
2.29635e-05
-2.31595e-08
2.29639e-05
-6.60844e-08
2.29637e-05
-1.05492e-07
2.29618e-05
-1.4216e-07
2.29573e-05
-1.76717e-07
2.29489e-05
-2.09592e-07
2.29359e-05
-2.41013e-07
2.29173e-05
-2.71046e-07
2.28923e-05
-2.99648e-07
2.28601e-05
-3.26698e-07
2.28203e-05
-3.52018e-07
2.27722e-05
-3.75393e-07
2.27155e-05
-3.96597e-07
2.26502e-05
-4.15416e-07
2.25761e-05
-4.31655e-07
2.24934e-05
-4.45181e-07
2.24026e-05
-4.55832e-07
-4.63805e-07
2.23042e-05
1.68101e-05
-2.25715e-08
1.68085e-05
-6.4486e-08
1.68053e-05
-1.02263e-07
1.67997e-05
-1.36546e-07
1.6791e-05
-1.68059e-07
1.67788e-05
-1.97364e-07
1.67625e-05
-2.24755e-07
1.67418e-05
-2.5034e-07
1.67163e-05
-2.74141e-07
1.66857e-05
-2.9612e-07
1.66499e-05
-3.16186e-07
1.66087e-05
-3.34213e-07
1.65622e-05
-3.50071e-07
1.65104e-05
-3.63642e-07
1.64536e-05
-3.7483e-07
1.6392e-05
-3.83587e-07
1.6326e-05
-3.89848e-07
-3.93826e-07
1.6256e-05
1.46339e-05
-2.19148e-08
1.46319e-05
-6.25131e-08
1.4628e-05
-9.82826e-08
1.46212e-05
-1.29806e-07
1.46112e-05
-1.58064e-07
1.45977e-05
-1.83814e-07
1.45803e-05
-2.07392e-07
1.45589e-05
-2.28945e-07
1.45333e-05
-2.48567e-07
1.45035e-05
-2.66297e-07
1.44694e-05
-2.82106e-07
1.44312e-05
-2.95936e-07
1.43888e-05
-3.07722e-07
1.43426e-05
-3.17414e-07
1.42927e-05
-3.24977e-07
1.42396e-05
-3.30416e-07
1.41834e-05
-3.33726e-07
-3.35118e-07
1.41247e-05
1.27397e-05
-2.14732e-08
1.27381e-05
-6.09617e-08
1.27345e-05
-9.46181e-08
1.27279e-05
-1.23207e-07
1.27181e-05
-1.48244e-07
1.27049e-05
-1.70651e-07
1.26882e-05
-1.90726e-07
1.26679e-05
-2.08657e-07
1.2644e-05
-2.24637e-07
1.26165e-05
-2.38779e-07
1.25855e-05
-2.511e-07
1.25511e-05
-2.61584e-07
1.25136e-05
-2.70213e-07
1.24732e-05
-2.76975e-07
1.24301e-05
-2.81872e-07
1.23846e-05
-2.84932e-07
1.2337e-05
-2.8617e-07
-2.85769e-07
1.22877e-05
1.10909e-05
-2.14607e-08
1.10903e-05
-6.03774e-08
1.10876e-05
-9.18456e-08
1.10817e-05
-1.17308e-07
1.10726e-05
-1.3923e-07
1.10606e-05
-1.58599e-07
1.10454e-05
-1.75542e-07
1.1027e-05
-1.90288e-07
1.10055e-05
-2.03134e-07
1.0981e-05
-2.14245e-07
1.09536e-05
-2.23671e-07
1.09234e-05
-2.31434e-07
1.08908e-05
-2.3755e-07
1.08558e-05
-2.42037e-07
1.08189e-05
-2.44914e-07
1.07802e-05
-2.46225e-07
1.074e-05
-2.46011e-07
-2.44455e-07
1.06987e-05
9.65581e-06
-2.20575e-08
9.65649e-06
-6.1054e-08
9.65487e-06
-9.02251e-08
9.65e-06
-1.12444e-07
9.64217e-06
-1.31393e-07
9.63147e-06
-1.47899e-07
9.61786e-06
-1.61933e-07
9.60141e-06
-1.73839e-07
9.58227e-06
-1.83993e-07
9.56058e-06
-1.9256e-07
9.53651e-06
-1.99595e-07
9.51022e-06
-2.05146e-07
9.48192e-06
-2.09253e-07
9.45184e-06
-2.11954e-07
9.4202e-06
-2.13275e-07
9.38723e-06
-2.13256e-07
9.35314e-06
-2.11917e-07
-2.09368e-07
9.31805e-06
8.4069e-06
-2.36022e-08
8.40888e-06
-6.30328e-08
8.40804e-06
-8.93868e-08
8.40419e-06
-1.08593e-07
8.39787e-06
-1.25074e-07
8.38895e-06
-1.38978e-07
8.37728e-06
-1.50266e-07
8.36298e-06
-1.5954e-07
8.34624e-06
-1.67249e-07
8.32722e-06
-1.73542e-07
8.30611e-06
-1.78483e-07
8.2831e-06
-1.82136e-07
8.25841e-06
-1.84561e-07
8.23225e-06
-1.85804e-07
8.20488e-06
-1.85896e-07
8.17648e-06
-1.8486e-07
8.1473e-06
-1.82741e-07
-1.79659e-07
8.1176e-06
7.32027e-06
-2.65863e-08
7.32418e-06
-6.69394e-08
7.32347e-06
-8.86846e-08
7.31973e-06
-1.04848e-07
7.31397e-06
-1.19319e-07
7.30596e-06
-1.30961e-07
7.29558e-06
-1.39887e-07
7.28298e-06
-1.46945e-07
7.26833e-06
-1.52592e-07
7.25176e-06
-1.56975e-07
7.23346e-06
-1.60185e-07
7.21364e-06
-1.62316e-07
7.19252e-06
-1.63443e-07
7.17034e-06
-1.63623e-07
7.14733e-06
-1.62885e-07
7.12369e-06
-1.6122e-07
7.09956e-06
-1.5861e-07
-1.54986e-07
7.07489e-06
6.37367e-06
-3.01908e-08
6.38058e-06
-7.38469e-08
6.38122e-06
-8.93256e-08
6.37887e-06
-1.02503e-07
6.37458e-06
-1.15026e-07
6.36821e-06
-1.24593e-07
6.36011e-06
-1.3178e-07
6.35066e-06
-1.37499e-07
6.34012e-06
-1.42051e-07
6.32865e-06
-1.45508e-07
6.31641e-06
-1.47944e-07
6.30353e-06
-1.49434e-07
6.29013e-06
-1.5004e-07
6.27632e-06
-1.49821e-07
6.26222e-06
-1.48785e-07
6.2479e-06
-1.469e-07
6.2334e-06
-1.44109e-07
-1.40511e-07
6.21893e-06
5.54937e-06
-3.40977e-08
5.55891e-06
-8.33849e-08
5.56603e-06
-9.64484e-08
5.57432e-06
-1.10793e-07
5.5833e-06
-1.24001e-07
5.59201e-06
-1.33309e-07
5.60016e-06
-1.39925e-07
5.60749e-06
-1.44828e-07
5.61368e-06
-1.48247e-07
5.61844e-06
-1.50264e-07
5.6215e-06
-1.51003e-07
5.62267e-06
-1.50605e-07
5.62185e-06
-1.49217e-07
5.61904e-06
-1.47011e-07
5.61429e-06
-1.44042e-07
5.60769e-06
-1.40301e-07
5.5993e-06
-1.35718e-07
-1.30746e-07
5.58954e-06
4.88705e-06
-9.35436e-08
4.93518e-06
-1.31508e-07
4.97658e-06
-1.3785e-07
5.00875e-06
-1.42969e-07
5.0301e-06
-1.45349e-07
5.04058e-06
-1.43786e-07
5.04077e-06
-1.40117e-07
5.03151e-06
-1.35572e-07
5.01381e-06
-1.30542e-07
4.98873e-06
-1.25179e-07
4.95732e-06
-1.19597e-07
4.9206e-06
-1.1389e-07
4.87956e-06
-1.0817e-07
4.83516e-06
-1.02617e-07
4.78832e-06
-9.7197e-08
4.73977e-06
-9.175e-08
4.69024e-06
-8.61937e-08
-8.08225e-08
4.64032e-06
4.10913e-06
3.97762e-06
3.83977e-06
3.69681e-06
3.55146e-06
3.40767e-06
3.26755e-06
3.13198e-06
3.00144e-06
2.87626e-06
2.75666e-06
2.64277e-06
2.5346e-06
2.43199e-06
2.33479e-06
2.24304e-06
2.15685e-06
2.07602e-06
-5.4327e-07
5.4327e-07
-1.08798e-06
5.44706e-07
-1.58095e-06
4.92971e-07
-1.97937e-06
3.98422e-07
-2.23693e-06
2.57561e-07
-2.27021e-06
3.32842e-08
-2.06253e-06
-2.07682e-07
-1.60645e-06
-4.56079e-07
-9.48528e-07
-6.57926e-07
-1.63761e-07
-7.84766e-07
6.8568e-07
-8.49441e-07
1.56715e-06
-8.81466e-07
2.44923e-06
-8.82081e-07
3.31506e-06
-8.6583e-07
4.15677e-06
-8.41715e-07
4.97093e-06
-8.14156e-07
5.75581e-06
-7.84882e-07
6.50979e-06
-7.53983e-07
7.23031e-06
-7.20514e-07
7.91321e-06
-6.829e-07
8.55235e-06
-6.39144e-07
9.13936e-06
-5.87011e-07
9.66323e-06
-5.23865e-07
1.01092e-05
-4.45925e-07
1.04586e-05
-3.49489e-07
1.06867e-05
-2.28093e-07
1.07605e-05
-7.37593e-08
1.06226e-05
1.37944e-07
1.02563e-05
3.66263e-07
9.65168e-06
6.04611e-07
8.81028e-06
8.414e-07
7.75174e-06
1.05854e-06
6.52049e-06
1.23125e-06
5.18804e-06
1.33245e-06
3.85534e-06
1.3327e-06
2.66571e-06
1.18963e-06
1.76656e-06
8.99151e-07
1.18666e-06
5.79896e-07
8.24526e-07
3.62135e-07
5.53191e-07
2.71335e-07
2.2053e-07
3.32661e-07
-2.63276e-07
4.83806e-07
-8.31424e-07
5.68148e-07
-1.32964e-06
4.98219e-07
-1.58627e-06
2.56629e-07
-1.5265e-06
-5.97712e-08
-1.14737e-06
-3.79132e-07
-3.80205e-07
-7.67164e-07
7.10995e-07
-1.0912e-06
1.89102e-06
-1.18003e-06
2.85798e-06
-9.66952e-07
3.39421e-06
-5.36235e-07
3.44841e-06
-5.41952e-08
3.18367e-06
2.64741e-07
2.87774e-06
3.05926e-07
2.74897e-06
1.2877e-07
2.82709e-06
-7.81167e-08
2.90649e-06
-7.94035e-08
2.77034e-06
1.36154e-07
2.26605e-06
5.04287e-07
1.33629e-06
9.29759e-07
4.36165e-08
1.29267e-06
-1.46917e-06
1.51279e-06
-3.06369e-06
1.59452e-06
-4.63599e-06
1.57229e-06
-6.11384e-06
1.47785e-06
-7.45205e-06
1.33821e-06
-8.62722e-06
1.17517e-06
-9.63161e-06
1.00439e-06
-1.04676e-05
8.36034e-07
-1.11435e-05
6.7588e-07
-1.167e-05
5.26502e-07
-1.20585e-05
3.88505e-07
-1.23204e-05
2.6186e-07
-1.2467e-05
1.46617e-07
-1.25099e-05
4.28705e-08
-1.24693e-05
-4.05862e-08
-1.23587e-05
-1.106e-07
-1.2186e-05
-1.72741e-07
-1.19557e-05
-2.30241e-07
-1.16709e-05
-2.84814e-07
-1.13335e-05
-3.37353e-07
-1.09451e-05
-3.88456e-07
-1.05065e-05
-4.38563e-07
-1.00186e-05
-4.8795e-07
-9.48191e-06
-5.36667e-07
-8.89746e-06
-5.84455e-07
-8.26679e-06
-6.30671e-07
-7.59254e-06
-6.74248e-07
-6.8788e-06
-7.13735e-07
-6.13139e-06
-7.47417e-07
-5.35786e-06
-7.73525e-07
-4.56738e-06
-7.90487e-07
-3.77019e-06
-7.97181e-07
-2.97708e-06
-7.9311e-07
-2.19863e-06
-7.78459e-07
-1.44462e-06
-7.54008e-07
-7.24025e-07
-7.20594e-07
-4.35829e-08
-6.80442e-07
5.9258e-07
-6.36163e-07
1.18035e-06
-5.87768e-07
1.71823e-06
-5.37876e-07
2.20597e-06
-4.87745e-07
2.64429e-06
-4.38323e-07
3.03469e-06
-3.90401e-07
3.37921e-06
-3.44512e-07
3.68019e-06
-3.00986e-07
3.94021e-06
-2.60015e-07
4.16189e-06
-2.21685e-07
4.34789e-06
-1.86002e-07
4.50081e-06
-1.52913e-07
4.62313e-06
-1.22326e-07
4.71724e-06
-9.41085e-08
4.78509e-06
-6.78506e-08
4.82844e-06
-4.33511e-08
4.8467e-06
-1.82548e-08
4.8359e-06
1.07989e-08
4.79314e-06
4.27587e-08
4.72089e-06
7.22543e-08
4.6211e-06
9.97838e-08
4.49558e-06
1.25524e-07
4.3458e-06
1.49781e-07
4.17331e-06
1.72488e-07
3.98042e-06
1.92894e-07
3.77099e-06
2.09431e-07
3.55117e-06
2.19815e-07
3.32962e-06
2.21553e-07
3.11686e-06
2.12756e-07
2.92364e-06
1.93217e-07
2.75857e-06
1.65071e-07
2.62603e-06
1.32543e-07
2.52533e-06
1.00698e-07
2.4514e-06
7.39324e-08
2.39631e-06
5.50888e-08
2.35128e-06
4.50307e-08
2.30862e-06
4.26647e-08
2.26304e-06
4.55715e-08
2.21208e-06
5.09607e-08
2.15561e-06
5.64717e-08
2.09504e-06
6.05722e-08
2.03249e-06
6.25544e-08
1.97023e-06
6.22541e-08
1.91055e-06
5.96781e-08
1.85587e-06
5.46799e-08
1.80909e-06
4.67786e-08
1.77379e-06
3.5304e-08
1.75333e-06
2.04647e-08
1.74968e-06
3.64956e-09
1.76311e-06
-1.34291e-08
1.79563e-06
-3.25221e-08
1.84938e-06
-5.37535e-08
1.9261e-06
-7.67181e-08
2.02947e-06
-1.03372e-07
2.16894e-06
-1.39474e-07
2.3462e-06
-1.77259e-07
2.52219e-06
-1.75988e-07
2.6229e-06
-1.00705e-07
2.6144e-06
8.49849e-09
2.48746e-06
1.26941e-07
2.09584e-06
3.91621e-07
1.20388e-06
8.91954e-07
-1.49854e-07
1.35374e-06
-1.68055e-06
1.5307e-06
-3.08356e-06
1.40301e-06
-4.20576e-06
1.1222e-06
-4.99853e-06
7.92764e-07
-5.46035e-06
4.61822e-07
-5.60669e-06
1.46347e-07
-5.48874e-06
-1.17953e-07
-5.14613e-06
-3.42609e-07
-4.59719e-06
-5.48941e-07
-3.86149e-06
-7.35697e-07
-2.96979e-06
-8.91706e-07
-1.96816e-06
-1.00163e-06
-9.1605e-07
-1.05211e-06
1.19839e-07
-1.03589e-06
1.0736e-06
-9.53763e-07
1.89878e-06
-8.25182e-07
2.54631e-06
-6.47527e-07
-4.07626e-07
2.95394e-06
-1.88623e-07
7.31893e-07
-4.29664e-07
7.85747e-07
-5.83908e-07
6.47215e-07
-6.04973e-07
4.19488e-07
-4.9729e-07
1.49877e-07
-2.40862e-07
-2.23143e-07
2.02812e-07
-6.51356e-07
7.4715e-07
-1.00042e-06
1.3388e-06
-1.24957e-06
1.94838e-06
-1.39435e-06
2.55903e-06
-1.4601e-06
3.15563e-06
-1.47806e-06
3.74405e-06
-1.4705e-06
4.33017e-06
-1.45195e-06
4.91867e-06
-1.43021e-06
5.51238e-06
-1.40787e-06
6.11179e-06
-1.38429e-06
6.71502e-06
-1.35721e-06
7.31814e-06
-1.32364e-06
7.91549e-06
-1.28024e-06
8.49996e-06
-1.22362e-06
9.06337e-06
-1.15042e-06
9.59706e-06
-1.05755e-06
1.00934e-05
-9.42297e-07
1.05459e-05
-8.01968e-07
1.09534e-05
-6.35542e-07
1.13224e-05
-4.42843e-07
1.16702e-05
-2.09814e-07
1.19625e-05
7.39925e-08
1.21535e-05
4.13536e-07
1.2194e-05
8.00912e-07
1.20331e-05
1.21947e-06
1.16262e-05
1.63816e-06
1.09466e-05
2.01201e-06
9.99366e-06
2.28567e-06
8.78071e-06
2.40258e-06
7.33748e-06
2.34239e-06
5.7812e-06
2.13617e-06
4.32083e-06
1.82251e-06
3.12095e-06
1.47122e-06
2.22839e-06
1.22522e-06
1.56744e-06
1.14475e-06
1.04329e-06
1.0923e-06
6.3868e-07
9.02833e-07
3.62001e-07
5.33308e-07
2.77458e-07
2.4772e-08
4.86155e-07
-5.87829e-07
9.96481e-07
-1.27749e-06
1.75576e-06
-1.85048e-06
2.58018e-06
-2.00446e-06
3.2587e-06
-1.64547e-06
3.68173e-06
-9.59272e-07
3.84981e-06
-2.22268e-07
3.83071e-06
2.83841e-07
3.73037e-06
4.06265e-07
3.49443e-06
3.64712e-07
2.83637e-06
5.79936e-07
1.58866e-06
1.16831e-06
-1.91512e-07
1.91632e-06
-2.2103e-06
2.52308e-06
-4.20129e-06
2.92075e-06
-6.02154e-06
3.11292e-06
-7.61311e-06
3.10436e-06
-8.95326e-06
2.93466e-06
-1.00389e-05
2.65798e-06
-1.08864e-05
2.32531e-06
-1.15255e-05
1.97734e-06
-1.19922e-05
1.64184e-06
-1.23221e-05
1.33434e-06
-1.25471e-05
1.06098e-06
-1.26928e-05
8.21635e-07
-1.2779e-05
6.12688e-07
-1.28198e-05
4.29273e-07
-1.28244e-05
2.66478e-07
-1.27979e-05
1.20072e-07
-1.27409e-05
-1.41332e-08
-1.26414e-05
-1.40078e-07
-1.24909e-05
-2.61053e-07
-1.22875e-05
-3.76149e-07
-1.20318e-05
-4.85921e-07
-1.17253e-05
-5.91306e-07
-1.13694e-05
-6.93317e-07
-1.09649e-05
-7.92899e-07
-1.05126e-05
-8.90869e-07
-1.00128e-05
-9.87792e-07
-9.46563e-06
-1.08381e-06
-8.87163e-06
-1.17845e-06
-8.23188e-06
-1.27043e-06
-7.54857e-06
-1.35755e-06
-6.82551e-06
-1.4368e-06
-6.06836e-06
-1.50457e-06
-5.28477e-06
-1.55712e-06
-4.48413e-06
-1.59113e-06
-3.67705e-06
-1.60426e-06
-2.87466e-06
-1.5955e-06
-2.0878e-06
-1.56532e-06
-1.32621e-06
-1.5156e-06
-5.97546e-07
-1.44926e-06
9.05443e-08
-1.36853e-06
7.3275e-07
-1.27837e-06
1.32651e-06
-1.18152e-06
1.87072e-06
-1.08209e-06
2.36551e-06
-9.82533e-07
2.81194e-06
-8.84761e-07
3.21178e-06
-7.90237e-07
3.56723e-06
-6.99959e-07
3.88079e-06
-6.14545e-07
4.15511e-06
-5.34338e-07
4.3929e-06
-4.59474e-07
4.59684e-06
-3.89943e-07
4.76956e-06
-3.25629e-07
4.91357e-06
-2.66338e-07
5.03126e-06
-2.11805e-07
5.12511e-06
-1.61698e-07
5.19737e-06
-1.1561e-07
5.25282e-06
-7.3703e-08
5.29912e-06
-3.55005e-08
5.34007e-06
1.80241e-09
5.37654e-06
3.57893e-08
5.40657e-06
6.9752e-08
5.42923e-06
1.02869e-07
5.44329e-06
1.35721e-07
5.44725e-06
1.68525e-07
5.43924e-06
2.00905e-07
5.41713e-06
2.31537e-07
5.37905e-06
2.57899e-07
5.32406e-06
2.76536e-07
5.25286e-06
2.83963e-07
5.16788e-06
2.78195e-07
5.07288e-06
2.60068e-07
4.97205e-06
2.3338e-07
4.86905e-06
2.03692e-07
4.7665e-06
1.76488e-07
4.66584e-06
1.55745e-07
4.56762e-06
1.43254e-07
4.47162e-06
1.38662e-07
4.37708e-06
1.40109e-07
4.28293e-06
1.45111e-07
4.18811e-06
1.51294e-07
4.09189e-06
1.56788e-07
3.9941e-06
1.60344e-07
3.89515e-06
1.61203e-07
3.79596e-06
1.5887e-07
3.69776e-06
1.52879e-07
3.60186e-06
1.42686e-07
3.5093e-06
1.27861e-07
3.42108e-06
1.08684e-07
3.33884e-06
8.58888e-08
3.26566e-06
5.97543e-08
3.20369e-06
2.94417e-08
3.15412e-06
-4.17571e-09
3.11682e-06
-3.9426e-08
3.09521e-06
-8.17572e-08
3.10765e-06
-1.51916e-07
3.18205e-06
-2.5166e-07
3.31617e-06
-3.10102e-07
3.43398e-06
-2.18516e-07
3.36185e-06
8.06259e-08
2.82102e-06
6.67772e-07
1.54266e-06
1.66998e-06
-2.96892e-07
2.7315e-06
-2.10954e-06
3.16639e-06
-3.51158e-06
2.93274e-06
-4.46916e-06
2.36059e-06
-5.06914e-06
1.72218e-06
-5.41061e-06
1.13424e-06
-5.56388e-06
6.15087e-07
-5.56433e-06
1.46794e-07
-5.39245e-06
-2.89829e-07
-5.01985e-06
-7.15211e-07
-4.44893e-06
-1.11986e-06
-3.6956e-06
-1.48902e-06
-2.7896e-06
-1.79771e-06
-1.77693e-06
-2.01429e-06
-7.16215e-07
-2.11283e-06
3.26012e-07
-2.07812e-06
1.28941e-06
-1.91717e-06
2.1301e-06
-1.66587e-06
2.82392e-06
-1.34135e-06
-9.38724e-07
3.35502e-06
2.09853e-07
5.22041e-07
2.50011e-07
7.45589e-07
2.8221e-07
6.15016e-07
3.8415e-07
3.17548e-07
6.58994e-07
-1.24967e-07
1.05364e-06
-6.17793e-07
1.45036e-06
-1.04807e-06
1.79899e-06
-1.34905e-06
2.07941e-06
-1.52999e-06
2.31424e-06
-1.62918e-06
2.53944e-06
-1.68529e-06
2.7859e-06
-1.72452e-06
3.07477e-06
-1.75938e-06
3.41602e-06
-1.7932e-06
3.81081e-06
-1.825e-06
4.25511e-06
-1.85217e-06
4.74232e-06
-1.8715e-06
5.26457e-06
-1.87946e-06
5.81321e-06
-1.87229e-06
6.37907e-06
-1.84611e-06
6.95253e-06
-1.79707e-06
7.52365e-06
-1.72155e-06
8.0825e-06
-1.6164e-06
8.61935e-06
-1.47914e-06
9.12512e-06
-1.30774e-06
9.59035e-06
-1.10078e-06
1.00064e-05
-8.58871e-07
1.03807e-05
-5.84172e-07
1.07295e-05
-2.74769e-07
1.10672e-05
7.5877e-08
1.1395e-05
4.73061e-07
1.16949e-05
9.19583e-07
1.19226e-05
1.41048e-06
1.20082e-05
1.92638e-06
1.18655e-05
2.42836e-06
1.14086e-05
2.85949e-06
1.05905e-05
3.16047e-06
9.4419e-06
3.28479e-06
8.05894e-06
3.20547e-06
6.59317e-06
2.93699e-06
5.26047e-06
2.55792e-06
4.23139e-06
2.17383e-06
3.5126e-06
1.81109e-06
3.01926e-06
1.39617e-06
2.68369e-06
8.68875e-07
2.47812e-06
2.30345e-07
2.42948e-06
-5.39191e-07
2.58941e-06
-1.43742e-06
2.94738e-06
-2.20845e-06
3.34988e-06
-2.40695e-06
3.59991e-06
-1.89549e-06
3.62434e-06
-9.83704e-07
3.49853e-06
-9.64544e-08
3.24518e-06
5.37192e-07
2.61616e-06
1.03528e-06
1.28359e-06
1.69728e-06
-7.05832e-07
2.56936e-06
-2.90914e-06
3.37162e-06
-4.94011e-06
3.9473e-06
-6.667e-06
4.24996e-06
-8.04387e-06
4.29762e-06
-9.07202e-06
4.14107e-06
-9.80496e-06
3.8373e-06
-1.03171e-05
3.44679e-06
-1.06823e-05
3.02318e-06
-1.09622e-05
2.60522e-06
-1.11998e-05
2.21499e-06
-1.14189e-05
1.86091e-06
-1.16273e-05
1.54271e-06
-1.18223e-05
1.256e-06
-1.19959e-05
9.95264e-07
-1.21387e-05
7.55401e-07
-1.22417e-05
5.32337e-07
-1.22983e-05
3.23064e-07
-1.23035e-05
1.25317e-07
-1.22556e-05
-6.20916e-08
-1.21546e-05
-2.41079e-07
-1.20034e-05
-4.1228e-07
-1.18033e-05
-5.76191e-07
-1.15556e-05
-7.33642e-07
-1.12613e-05
-8.85641e-07
-1.09212e-05
-1.0334e-06
-1.05358e-05
-1.17825e-06
-1.01052e-05
-1.32147e-06
-9.62894e-06
-1.46407e-06
-9.1063e-06
-1.60646e-06
-8.53668e-06
-1.74807e-06
-7.92006e-06
-1.88704e-06
-7.25763e-06
-2.01998e-06
-6.55239e-06
-2.14204e-06
-5.80964e-06
-2.24731e-06
-5.03717e-06
-2.32959e-06
-4.24497e-06
-2.38333e-06
-3.44461e-06
-2.40462e-06
-2.64826e-06
-2.39185e-06
-1.86768e-06
-2.3459e-06
-1.11333e-06
-2.26994e-06
-3.94141e-07
-2.16845e-06
2.84326e-07
-2.047e-06
9.15361e-07
-1.9094e-06
1.49728e-06
-1.76344e-06
2.02936e-06
-1.61417e-06
2.51204e-06
-1.46522e-06
2.94674e-06
-1.31945e-06
3.33547e-06
-1.17897e-06
3.68065e-06
-1.04514e-06
3.98493e-06
-9.1882e-07
4.25103e-06
-8.00435e-07
4.48169e-06
-6.90135e-07
4.67961e-06
-5.87865e-07
4.84741e-06
-4.93432e-07
4.98762e-06
-4.06546e-07
5.10266e-06
-3.2685e-07
5.19492e-06
-2.53957e-07
5.26669e-06
-1.87372e-07
5.31965e-06
-1.2667e-07
5.35564e-06
-7.14921e-08
5.37875e-06
-2.13049e-08
5.39043e-06
2.41069e-08
5.39432e-06
6.58661e-08
5.39285e-06
1.04341e-07
5.38861e-06
1.39961e-07
5.38405e-06
1.73083e-07
5.38116e-06
2.03795e-07
5.38096e-06
2.31734e-07
5.38294e-06
2.55926e-07
5.38473e-06
2.74743e-07
5.38249e-06
2.86203e-07
5.37193e-06
2.88752e-07
5.34976e-06
2.82237e-07
5.3147e-06
2.68447e-07
5.26763e-06
2.50762e-07
5.21102e-06
2.33093e-07
5.14802e-06
2.1875e-07
5.08157e-06
2.09703e-07
5.01385e-06
2.06375e-07
4.94602e-06
2.07939e-07
4.87826e-06
2.12875e-07
4.81005e-06
2.19508e-07
4.74049e-06
2.26341e-07
4.66865e-06
2.32189e-07
4.59371e-06
2.36145e-07
4.51511e-06
2.37464e-07
4.43254e-06
2.35456e-07
4.34579e-06
2.29431e-07
4.25483e-06
2.18826e-07
4.15992e-06
2.03585e-07
4.06181e-06
1.84002e-07
3.96194e-06
1.59629e-07
3.86269e-06
1.28692e-07
3.76639e-06
9.21202e-08
3.67245e-06
5.45089e-08
3.58452e-06
6.17445e-09
3.52621e-06
-9.36001e-08
3.53212e-06
-2.5757e-07
3.58609e-06
-3.64073e-07
3.55167e-06
-1.84096e-07
3.14724e-06
4.85056e-07
2.05084e-06
1.76417e-06
2.9842e-07
3.42241e-06
-1.44489e-06
4.47481e-06
-2.71478e-06
4.43628e-06
-3.56093e-06
3.77889e-06
-4.16896e-06
2.96862e-06
-4.64635e-06
2.19957e-06
-5.00411e-06
1.49199e-06
-5.21069e-06
8.21667e-07
-5.23319e-06
1.69298e-07
-5.05897e-06
-4.64051e-07
-4.68702e-06
-1.08716e-06
-4.12264e-06
-1.68424e-06
-3.37956e-06
-2.2321e-06
-2.48548e-06
-2.69179e-06
-1.4861e-06
-3.01367e-06
-4.41873e-07
-3.15706e-06
5.79784e-07
-3.09977e-06
1.52168e-06
-2.85906e-06
2.34402e-06
-2.48821e-06
3.0299e-06
-2.02723e-06
-1.48501e-06
3.57618e-06
5.13119e-08
4.70729e-07
8.94155e-08
7.07485e-07
2.17044e-07
4.87388e-07
5.25637e-07
8.95453e-09
9.002e-07
-4.9953e-07
1.18385e-06
-9.0144e-07
1.30254e-06
-1.16676e-06
1.29299e-06
-1.3395e-06
1.23481e-06
-1.47182e-06
1.20131e-06
-1.59567e-06
1.23714e-06
-1.72113e-06
1.35912e-06
-1.8465e-06
1.56644e-06
-1.9667e-06
1.85061e-06
-2.07737e-06
2.20118e-06
-2.17557e-06
2.60843e-06
-2.25942e-06
3.06403e-06
-2.3271e-06
3.56056e-06
-2.37599e-06
4.09068e-06
-2.40241e-06
4.64661e-06
-2.40203e-06
5.21979e-06
-2.37026e-06
5.80099e-06
-2.30274e-06
6.38073e-06
-2.19614e-06
6.94981e-06
-2.04822e-06
7.50001e-06
-1.85794e-06
8.02461e-06
-1.62537e-06
8.51707e-06
-1.35133e-06
8.9703e-06
-1.0374e-06
9.38101e-06
-6.85483e-07
9.75382e-06
-2.96928e-07
1.00996e-05
1.27235e-07
1.04342e-05
5.8505e-07
1.07679e-05
1.07673e-06
1.10904e-05
1.60389e-06
1.13566e-05
2.16223e-06
1.14857e-05
2.73033e-06
1.13829e-05
3.26332e-06
1.09709e-05
3.69671e-06
1.02196e-05
3.95676e-06
9.17613e-06
3.9805e-06
7.98173e-06
3.75232e-06
6.82976e-06
3.3258e-06
5.86382e-06
2.77704e-06
5.12036e-06
2.13964e-06
4.57178e-06
1.41745e-06
4.17969e-06
6.22437e-07
3.93434e-06
-2.93843e-07
3.8501e-06
-1.35318e-06
3.87995e-06
-2.2383e-06
3.86207e-06
-2.38908e-06
3.64541e-06
-1.67883e-06
3.19136e-06
-5.29654e-07
2.45078e-06
6.44125e-07
1.26019e-06
1.72778e-06
-5.01452e-07
2.79692e-06
-2.61109e-06
3.80691e-06
-4.63531e-06
4.59359e-06
-6.32621e-06
5.06252e-06
-7.60303e-06
5.22412e-06
-8.48952e-06
5.13645e-06
-9.06109e-06
4.86919e-06
-9.41223e-06
4.49222e-06
-9.63866e-06
4.06373e-06
-9.81795e-06
3.62608e-06
-9.99866e-06
3.20389e-06
-1.02005e-05
2.80708e-06
-1.04221e-05
2.43657e-06
-1.06508e-05
2.08959e-06
-1.08709e-05
1.76279e-06
-1.10683e-05
1.45342e-06
-1.12325e-05
1.15948e-06
-1.13566e-05
8.79473e-07
-1.14365e-05
6.12283e-07
-1.14704e-05
3.5695e-07
-1.14575e-05
1.12439e-07
-1.13983e-05
-1.21302e-07
-1.12939e-05
-3.45474e-07
-1.11457e-05
-5.60449e-07
-1.09551e-05
-7.66809e-07
-1.07233e-05
-9.65424e-07
-1.04515e-05
-1.15751e-06
-1.01402e-05
-1.34468e-06
-9.78957e-06
-1.52887e-06
-9.39891e-06
-1.71213e-06
-8.96672e-06
-1.89627e-06
-8.4908e-06
-2.08237e-06
-7.96871e-06
-2.27016e-06
-7.39838e-06
-2.45738e-06
-6.77897e-06
-2.6394e-06
-6.11182e-06
-2.80919e-06
-5.40122e-06
-2.9579e-06
-4.65479e-06
-3.07602e-06
-3.88323e-06
-3.15489e-06
-3.09946e-06
-3.18839e-06
-2.31725e-06
-3.17406e-06
-1.54993e-06
-3.11322e-06
-8.09219e-07
-3.01066e-06
-1.04532e-07
-2.87314e-06
5.56536e-07
-2.70807e-06
1.16994e-06
-2.52281e-06
1.73376e-06
-2.32726e-06
2.24758e-06
-2.12798e-06
2.71229e-06
-1.92993e-06
3.12968e-06
-1.73684e-06
3.50204e-06
-1.55133e-06
3.83199e-06
-1.37509e-06
4.12226e-06
-1.2091e-06