/*--------------------------------*- C++ -*----------------------------------*\
| =========                 |                                                 |
| \\      /  F ield         | OpenFOAM: The Open Source CFD Toolbox           |
|  \\    /   O peration     | Version:  2112                                  |
|   \\  /    A nd           | Website:  www.openfoam.com                      |
|    \\/     M anipulation  |                                                 |
\*---------------------------------------------------------------------------*/
FoamFile
{
    version     2.0;
    format      ascii;
    arch        "LSB;label=32;scalar=64";
    class       surfaceScalarField;
    location    "0.01";
    object      phi;
}
// * * * * * * * * * * * * * * * * * * * * * * * * * * * * * * * * * * * * * //

dimensions      [0 3 -1 0 0 0 0];

oriented        oriented;

internalField   nonuniform List<scalar> 
24170
(
3.11842e-06
6.999e-08
3.00966e-06
1.08759e-07
2.91119e-06
9.84652e-08
2.81937e-06
9.18191e-08
2.73231e-06
8.70653e-08
2.65423e-06
7.80778e-08
2.58615e-06
6.80768e-08
2.52731e-06
5.88399e-08
2.47644e-06
5.08761e-08
2.43228e-06
4.41569e-08
2.39374e-06
3.85405e-08
2.35985e-06
3.38859e-08
2.32979e-06
3.00611e-08
2.30282e-06
2.6973e-08
2.27833e-06
2.44939e-08
2.25546e-06
2.28657e-08
2.2335e-06
2.19621e-08
2.52213e-08
2.20828e-06
3.47347e-06
1.37656e-08
3.49131e-06
9.09201e-08
3.49844e-06
9.13397e-08
3.49629e-06
9.39664e-08
3.48801e-06
9.53417e-08
3.47395e-06
9.21413e-08
3.4554e-06
8.66229e-08
3.43364e-06
8.06082e-08
3.40974e-06
7.47742e-08
3.38464e-06
6.92528e-08
3.35905e-06
6.41295e-08
3.33346e-06
5.94814e-08
3.30817e-06
5.53476e-08
3.28337e-06
5.17749e-08
3.25913e-06
4.87281e-08
3.23544e-06
4.65597e-08
3.21266e-06
4.47405e-08
4.46449e-08
3.19324e-06
3.66141e-06
1.48699e-08
3.67726e-06
7.50692e-08
3.68931e-06
7.92954e-08
3.70108e-06
8.21923e-08
3.71133e-06
8.509e-08
3.7189e-06
8.45772e-08
3.72389e-06
8.16333e-08
3.7267e-06
7.77923e-08
3.72769e-06
7.37886e-08
3.72711e-06
6.98282e-08
3.72521e-06
6.60332e-08
3.72217e-06
6.25189e-08
3.71815e-06
5.93684e-08
3.71327e-06
5.66608e-08
3.70756e-06
5.44302e-08
3.70125e-06
5.28735e-08
3.69425e-06
5.17353e-08
5.12675e-08
3.68763e-06
3.92338e-06
1.68734e-08
3.9357e-06
6.27548e-08
3.94283e-06
7.21686e-08
3.94958e-06
7.5435e-08
3.95615e-06
7.85268e-08
3.96186e-06
7.88639e-08
3.96676e-06
7.67339e-08
3.97099e-06
7.35592e-08
3.97462e-06
7.0163e-08
3.97765e-06
6.67988e-08
3.9801e-06
6.35814e-08
3.982e-06
6.06218e-08
3.98335e-06
5.80122e-08
3.98418e-06
5.58359e-08
3.98446e-06
5.41477e-08
3.98427e-06
5.30682e-08
3.98347e-06
5.25299e-08
5.27482e-08
3.98199e-06
4.20767e-06
1.63335e-08
4.21647e-06
5.39489e-08
4.22201e-06
6.66321e-08
4.22704e-06
7.04077e-08
4.23226e-06
7.33069e-08
4.23715e-06
7.3974e-08
4.24154e-06
7.23423e-08
4.24547e-06
6.96291e-08
4.24898e-06
6.66474e-08
4.25211e-06
6.36757e-08
4.25485e-06
6.08344e-08
4.25724e-06
5.8239e-08
4.25926e-06
5.59921e-08
4.26091e-06
5.41827e-08
4.26218e-06
5.28795e-08
4.26306e-06
5.2184e-08
4.26347e-06
5.21245e-08
5.29085e-08
4.26331e-06
4.51042e-06
1.50028e-08
4.51723e-06
4.71361e-08
4.52274e-06
6.11186e-08
4.5276e-06
6.55553e-08
4.53252e-06
6.8386e-08
4.53718e-06
6.93126e-08
4.54138e-06
6.81379e-08
4.54516e-06
6.58559e-08
4.54856e-06
6.32412e-08
4.55164e-06
6.05991e-08
4.55441e-06
5.80679e-08
4.55687e-06
5.57715e-08
4.55904e-06
5.38208e-08
4.56092e-06
5.23103e-08
4.56248e-06
5.13193e-08
4.56372e-06
5.09454e-08
4.56458e-06
5.12578e-08
5.24562e-08
4.56503e-06
4.83408e-06
1.36456e-08
4.8399e-06
4.13105e-08
4.84556e-06
5.54625e-08
4.85049e-06
6.06235e-08
4.85534e-06
6.35406e-08
4.85995e-06
6.46962e-08
4.86416e-06
6.39317e-08
4.86796e-06
6.20511e-08
4.87143e-06
5.97784e-08
4.87459e-06
5.74399e-08
4.87746e-06
5.5192e-08
4.88007e-06
5.31653e-08
4.88241e-06
5.14762e-08
4.8845e-06
5.02228e-08
4.88633e-06
4.94909e-08
4.8879e-06
4.93759e-08
4.88919e-06
4.99637e-08
5.14502e-08
4.8902e-06
5.18089e-06
1.23383e-08
5.18604e-06
3.61622e-08
5.19162e-06
4.98777e-08
5.19661e-06
5.56306e-08
5.20148e-06
5.86748e-08
5.20617e-06
6.00078e-08
5.2105e-06
5.96005e-08
5.21446e-06
5.80951e-08
5.21808e-06
5.61499e-08
5.22142e-06
5.41018e-08
5.22449e-06
5.21213e-08
5.22731e-06
5.03435e-08
5.2299e-06
4.88875e-08
5.23227e-06
4.78532e-08
5.23444e-06
4.73278e-08
5.23641e-06
4.74021e-08
5.23821e-06
4.81614e-08
4.97785e-08
5.23988e-06
5.55263e-06
1.10488e-08
5.55719e-06
3.16021e-08
5.56255e-06
4.45161e-08
5.56757e-06
5.06122e-08
5.57249e-06
5.37564e-08
5.57728e-06
5.52105e-08
5.58178e-06
5.5101e-08
5.58594e-06
5.39372e-08
5.58979e-06
5.22991e-08
5.59337e-06
5.05236e-08
5.5967e-06
4.87911e-08
5.5998e-06
4.72385e-08
5.60271e-06
4.59839e-08
5.60544e-06
4.51256e-08
5.60802e-06
4.4748e-08
5.61049e-06
4.49321e-08
5.6129e-06
4.57505e-08
4.7343e-08
5.61533e-06
5.95104e-06
9.78789e-09
5.95509e-06
2.75465e-08
5.96018e-06
3.94289e-08
5.96519e-06
4.56039e-08
5.97015e-06
4.8796e-08
5.97504e-06
5.03173e-08
5.97971e-06
5.04366e-08
5.98408e-06
4.95651e-08
5.98818e-06
4.82003e-08
5.99203e-06
4.66689e-08
5.99567e-06
4.51559e-08
5.99911e-06
4.3796e-08
6.00239e-06
4.2703e-08
6.00555e-06
4.19697e-08
6.00862e-06
4.16728e-08
6.01167e-06
4.18801e-08
6.01478e-06
4.26435e-08
4.40694e-08
6.01805e-06
6.37802e-06
8.57929e-09
6.38166e-06
2.39076e-08
6.38647e-06
3.46232e-08
6.39143e-06
4.06385e-08
6.39642e-06
4.38108e-08
6.40138e-06
4.53483e-08
6.4062e-06
4.56223e-08
6.41078e-06
4.49819e-08
6.41514e-06
4.38457e-08
6.41929e-06
4.25194e-08
6.42326e-06
4.1187e-08
6.42707e-06
3.99777e-08
6.43078e-06
3.89971e-08
6.43442e-06
3.83294e-08
6.43805e-06
3.80399e-08
6.44175e-06
3.81804e-08
6.44562e-06
3.87806e-08
3.99171e-08
6.44977e-06
5.74181e-06
7.60139e-09
5.74462e-06
2.11046e-08
5.74846e-06
3.07747e-08
5.75261e-06
3.6491e-08
5.75684e-06
3.95842e-08
5.76109e-06
4.1099e-08
5.76526e-06
4.14475e-08
5.76929e-06
4.09498e-08
5.77317e-06
3.99669e-08
5.77691e-06
3.8779e-08
5.78054e-06
3.75631e-08
5.78407e-06
3.64425e-08
5.78756e-06
3.55137e-08
5.79103e-06
3.48516e-08
5.79456e-06
3.45102e-08
5.79822e-06
3.45277e-08
5.80208e-06
3.49163e-08
3.57328e-08
5.80626e-06
6.99921e-06
6.54593e-09
7.00219e-06
1.81241e-08
7.00637e-06
2.6593e-08
7.01103e-06
3.18338e-08
7.01587e-06
3.4744e-08
7.02079e-06
3.61761e-08
7.02569e-06
3.65505e-08
7.03048e-06
3.61581e-08
7.03515e-06
3.53009e-08
7.0397e-06
3.42264e-08
7.04416e-06
3.30995e-08
7.04857e-06
3.20331e-08
7.05298e-06
3.11119e-08
7.05743e-06
3.03984e-08
7.06201e-06
2.99335e-08
7.06679e-06
2.97405e-08
7.07189e-06
2.98148e-08
3.01954e-08
7.07743e-06
8.53197e-06
5.42123e-09
8.53511e-06
1.49881e-08
8.5396e-06
2.20984e-08
8.54477e-06
2.66622e-08
8.55027e-06
2.92507e-08
8.55593e-06
3.05132e-08
8.56164e-06
3.08404e-08
8.56731e-06
3.04913e-08
8.5729e-06
2.97101e-08
8.57842e-06
2.87039e-08
8.5839e-06
2.76184e-08
8.58938e-06
2.6552e-08
8.59492e-06
2.55744e-08
8.60059e-06
2.47333e-08
8.60646e-06
2.40558e-08
8.61265e-06
2.35511e-08
8.61927e-06
2.32016e-08
2.30332e-08
8.62643e-06
1.04004e-05
4.23676e-09
1.04037e-05
1.17077e-08
1.04085e-05
1.72988e-08
1.04142e-05
2.09677e-08
1.04204e-05
2.30613e-08
1.04268e-05
2.40355e-08
1.04335e-05
2.42156e-08
1.04401e-05
2.3821e-08
1.04468e-05
2.30406e-08
1.04535e-05
2.20357e-08
1.04602e-05
2.09247e-08
1.04669e-05
1.97869e-08
1.04738e-05
1.86747e-08
1.04809e-05
1.76203e-08
1.04884e-05
1.66378e-08
1.04962e-05
1.57257e-08
1.05045e-05
1.486e-08
1.40594e-08
1.05135e-05
1.2678e-05
2.99621e-09
1.26815e-05
8.26542e-09
1.26866e-05
1.21716e-08
1.26928e-05
1.47212e-08
1.26998e-05
1.6118e-08
1.27072e-05
1.66522e-08
1.27148e-05
1.65602e-08
1.27226e-05
1.60092e-08
1.27305e-05
1.51338e-08
1.27385e-05
1.4047e-08
1.27466e-05
1.28333e-08
1.27549e-05
1.15488e-08
1.27633e-05
1.02275e-08
1.2772e-05
8.88739e-09
1.27812e-05
7.53224e-09
1.27907e-05
6.15521e-09
1.28008e-05
4.73267e-09
3.28284e-09
1.28116e-05
1.54545e-05
1.68598e-09
1.54582e-05
4.60024e-09
1.54637e-05
6.63569e-09
1.54706e-05
7.83747e-09
1.54784e-05
8.32056e-09
1.54868e-05
8.24224e-09
1.54956e-05
7.7402e-09
1.55047e-05
6.91608e-09
1.5514e-05
5.84913e-09
1.55234e-05
4.60348e-09
1.5533e-05
3.22627e-09
1.55428e-05
1.74744e-09
1.55529e-05
1.83062e-10
1.55632e-05
-1.46093e-09
1.55739e-05
-3.18668e-09
1.55851e-05
-5.00152e-09
1.55968e-05
-6.92197e-09
-8.92996e-09
1.5609e-05
1.88391e-05
2.62252e-10
1.88431e-05
5.74998e-10
1.88492e-05
5.01528e-10
1.88569e-05
1.12278e-10
1.88658e-05
-5.31869e-10
1.88754e-05
-1.38619e-09
1.88856e-05
-2.4165e-09
1.88961e-05
-3.59749e-09
1.89069e-05
-4.9085e-09
1.89178e-05
-6.33475e-09
1.89289e-05
-7.86826e-09
1.89401e-05
-9.50662e-09
1.89516e-05
-1.12513e-08
1.89632e-05
-1.31063e-08
1.89751e-05
-1.50773e-08
1.89873e-05
-1.71694e-08
1.89997e-05
-1.93904e-08
-2.17221e-08
1.90125e-05
2.2965e-05
-1.38153e-09
2.29697e-05
-4.0981e-09
2.29768e-05
-6.64275e-09
2.29858e-05
-8.89781e-09
2.29961e-05
-1.08526e-08
2.30073e-05
-1.25837e-08
2.30191e-05
-1.41805e-08
2.30312e-05
-1.57009e-08
2.30435e-05
-1.71852e-08
2.30558e-05
-1.86733e-08
2.30681e-05
-2.02017e-08
2.30804e-05
-2.17982e-08
2.30927e-05
-2.3483e-08
2.31048e-05
-2.52701e-08
2.31169e-05
-2.71693e-08
2.31289e-05
-2.91854e-08
2.31409e-05
-3.13194e-08
-3.3558e-08
2.31527e-05
1.6812e-05
-2.64758e-09
1.68155e-05
-7.67008e-09
1.6821e-05
-1.20925e-08
1.68278e-05
-1.56986e-08
1.68354e-05
-1.85084e-08
1.68436e-05
-2.07537e-08
1.68521e-05
-2.26386e-08
1.68606e-05
-2.42678e-08
1.68692e-05
-2.57191e-08
1.68776e-05
-2.70755e-08
1.68858e-05
-2.8408e-08
1.68938e-05
-2.97665e-08
1.69015e-05
-3.11844e-08
1.69089e-05
-3.2685e-08
1.6916e-05
-3.42827e-08
1.69228e-05
-3.59839e-08
1.69293e-05
-3.77881e-08
-3.96857e-08
1.69354e-05
1.46358e-05
-3.84192e-09
1.46392e-05
-1.10681e-08
1.46444e-05
-1.72958e-08
1.46507e-05
-2.20727e-08
1.46577e-05
-2.55085e-08
1.46651e-05
-2.80858e-08
1.46725e-05
-3.0106e-08
1.468e-05
-3.16924e-08
1.46872e-05
-3.2967e-08
1.46942e-05
-3.40622e-08
1.47009e-05
-3.50779e-08
1.47072e-05
-3.60787e-08
1.47131e-05
-3.71095e-08
1.47186e-05
-3.82027e-08
1.47237e-05
-3.93787e-08
1.47284e-05
-4.06472e-08
1.47326e-05
-4.20089e-08
-4.34577e-08
1.47364e-05
1.27412e-05
-4.93904e-09
1.27446e-05
-1.44365e-08
1.27498e-05
-2.2521e-08
1.2756e-05
-2.82032e-08
1.27625e-05
-3.20094e-08
1.27692e-05
-3.48053e-08
1.27759e-05
-3.6863e-08
1.27825e-05
-3.82802e-08
1.27888e-05
-3.92569e-08
1.27947e-05
-3.9991e-08
1.28003e-05
-4.06053e-08
1.28054e-05
-4.11731e-08
1.281e-05
-4.17488e-08
1.28142e-05
-4.2373e-08
1.28179e-05
-4.30713e-08
1.28211e-05
-4.38554e-08
1.28238e-05
-4.47266e-08
-4.56792e-08
1.2826e-05
1.10918e-05
-5.79205e-09
1.10952e-05
-1.78563e-08
1.11007e-05
-2.8038e-08
1.11067e-05
-3.42066e-08
1.11128e-05
-3.80747e-08
1.1119e-05
-4.10024e-08
1.11251e-05
-4.30229e-08
1.11311e-05
-4.41883e-08
1.11366e-05
-4.48038e-08
1.11417e-05
-4.51267e-08
1.11464e-05
-4.52941e-08
1.11506e-05
-4.53896e-08
1.11544e-05
-4.54797e-08
1.11576e-05
-4.56134e-08
1.11604e-05
-4.58204e-08
1.11626e-05
-4.61151e-08
1.11644e-05
-4.65021e-08
-4.69805e-08
1.11657e-05
9.65568e-06
-6.25784e-09
9.6592e-06
-2.13762e-08
9.66501e-06
-3.38522e-08
9.6709e-06
-4.00901e-08
9.6767e-06
-4.38753e-08
9.68252e-06
-4.68266e-08
9.68814e-06
-4.86449e-08
9.69342e-06
-4.94609e-08
9.6983e-06
-4.96915e-08
9.70278e-06
-4.96053e-08
9.70682e-06
-4.93313e-08
9.71039e-06
-4.89615e-08
9.71349e-06
-4.85759e-08
9.71611e-06
-4.82325e-08
9.71825e-06
-4.79657e-08
9.71993e-06
-4.77912e-08
9.72114e-06
-4.77096e-08
-4.77055e-08
9.72186e-06
8.40528e-06
-6.18457e-09
8.40954e-06
-2.56404e-08
8.41507e-06
-3.93792e-08
8.42031e-06
-4.53329e-08
8.4259e-06
-4.94623e-08
8.4316e-06
-5.25265e-08
8.43696e-06
-5.40016e-08
8.44186e-06
-5.43631e-08
8.44633e-06
-5.41615e-08
8.45038e-06
-5.36514e-08
8.45399e-06
-5.29413e-08
8.45715e-06
-5.21238e-08
8.45986e-06
-5.12861e-08
8.46212e-06
-5.04922e-08
8.46393e-06
-4.9781e-08
8.46531e-06
-4.91716e-08
8.46628e-06
-4.86771e-08
-4.83001e-08
8.46688e-06
7.31512e-06
-4.02407e-09
7.32222e-06
-3.27394e-08
7.32739e-06
-4.45489e-08
7.33146e-06
-4.93956e-08
7.33655e-06
-5.45578e-08
7.34205e-06
-5.80208e-08
7.34734e-06
-5.9293e-08
7.35227e-06
-5.92964e-08
7.35679e-06
-5.86826e-08
7.36087e-06
-5.77264e-08
7.36448e-06
-5.65526e-08
7.36762e-06
-5.52691e-08
7.37031e-06
-5.39712e-08
7.37254e-06
-5.27265e-08
7.37434e-06
-5.15774e-08
7.37571e-06
-5.05457e-08
7.37667e-06
-4.96308e-08
-4.87724e-08
7.37714e-06
6.36127e-06
4.76746e-09
6.37308e-06
-4.45475e-08
6.38082e-06
-5.22845e-08
6.38603e-06
-5.46085e-08
6.3921e-06
-6.06236e-08
6.39784e-06
-6.37659e-08
6.40326e-06
-6.47099e-08
6.4084e-06
-6.44399e-08
6.41323e-06
-6.35066e-08
6.41764e-06
-6.2143e-08
6.42159e-06
-6.04964e-08
6.42503e-06
-5.87135e-08
6.42797e-06
-5.69124e-08
6.43042e-06
-5.5172e-08
6.43238e-06
-5.35436e-08
6.4339e-06
-5.20637e-08
6.43502e-06
-5.07488e-08
-4.96142e-08
6.43586e-06
5.52963e-06
2.05972e-08
5.54206e-06
-5.69742e-08
5.55307e-06
-6.32961e-08
5.56536e-06
-6.69e-08
5.57846e-06
-7.37185e-08
5.58935e-06
-7.46569e-08
5.59854e-06
-7.38978e-08
5.60613e-06
-7.20302e-08
5.61241e-06
-6.97896e-08
5.61754e-06
-6.7272e-08
5.6216e-06
-6.45535e-08
5.62465e-06
-6.17682e-08
5.62677e-06
-5.9032e-08
5.62802e-06
-5.64242e-08
5.62848e-06
-5.39962e-08
5.62822e-06
-5.18101e-08
5.62735e-06
-4.98734e-08
-4.82797e-08
5.62601e-06
4.86812e-06
-1.99177e-08
4.8804e-06
-6.92506e-08
4.89188e-06
-7.47794e-08
4.90167e-06
-7.66871e-08
4.90999e-06
-8.20418e-08
4.91597e-06
-8.063e-08
4.91788e-06
-7.58147e-08
4.91583e-06
-6.99801e-08
4.91014e-06
-6.40933e-08
4.90137e-06
-5.85018e-08
4.89014e-06
-5.33277e-08
4.87701e-06
-4.86391e-08
4.86244e-06
-4.44604e-08
4.8468e-06
-4.07835e-08
4.83039e-06
-3.75856e-08
4.81345e-06
-3.48758e-08
4.79624e-06
-3.26617e-08
-3.14292e-08
4.77939e-06
4.18276e-06
4.11351e-06
4.03873e-06
3.96204e-06
3.88e-06
3.79937e-06
3.72355e-06
3.65357e-06
3.58948e-06
3.53098e-06
3.47765e-06
3.42901e-06
3.38455e-06
3.34377e-06
3.30618e-06
3.27131e-06
3.23865e-06
3.20722e-06
9.00866e-08
-9.00866e-08
1.18561e-07
-2.84745e-08
1.02601e-07
1.59604e-08
6.09727e-08
4.16281e-08
4.32101e-09
5.66517e-08
-6.32872e-08
6.76082e-08
-1.41251e-07
7.79634e-08
-2.30521e-07
8.92701e-08
-3.32699e-07
1.02179e-07
-4.49519e-07
1.16819e-07
-5.82576e-07
1.33057e-07
-7.33202e-07
1.50627e-07
-9.02396e-07
1.69194e-07
-1.09077e-06
1.8837e-07
-1.29848e-06
2.07713e-07
-1.52521e-06
2.26735e-07
-1.77012e-06
2.44909e-07
-2.03182e-06
2.61693e-07
-2.30838e-06
2.76559e-07
-2.59739e-06
2.89016e-07
-2.89603e-06
2.98636e-07
-3.2011e-06
3.05073e-07
-3.50917e-06
3.08069e-07
-3.81663e-06
3.07458e-07
-4.11978e-06
3.03157e-07
-4.41494e-06
2.95159e-07
-4.69846e-06
2.83511e-07
-4.96678e-06
2.68327e-07
-5.21655e-06
2.49764e-07
-5.44456e-06
2.28011e-07
-5.64785e-06
2.03289e-07
-5.82368e-06
1.75837e-07
-5.96961e-06
1.45926e-07
-6.08347e-06
1.13865e-07
-6.16354e-06
8.00659e-08
-6.20874e-06
4.52023e-08
-6.21849e-06
9.74247e-09
-6.19739e-06
-2.10947e-08
-6.14617e-06
-5.12181e-08
-6.06611e-06
-8.00666e-08
-5.95817e-06
-1.07937e-07
-5.82332e-06
-1.34849e-07
-5.66264e-06
-1.60676e-07
-5.47742e-06
-1.85225e-07
-5.26914e-06
-2.08282e-07
-5.0395e-06
-2.29635e-07
-4.79041e-06
-2.49095e-07
-4.52391e-06
-2.66498e-07
-4.24219e-06
-2.81721e-07
-3.94751e-06
-2.94677e-07
-3.64219e-06
-3.05325e-07
-3.32852e-06
-3.13665e-07
-3.00878e-06
-3.19739e-07
-2.68516e-06
-3.23624e-07
-2.35973e-06
-3.25427e-07
-2.03445e-06
-3.25278e-07
-1.71114e-06
-3.23319e-07
-1.39145e-06
-3.19689e-07
-1.07693e-06
-3.14513e-07
-7.69031e-07
-3.07903e-07
-4.6901e-07
-3.00021e-07
-1.77664e-07
-2.91346e-07
1.0533e-07
-2.82994e-07
3.7977e-07
-2.7444e-07
6.44812e-07
-2.65043e-07
8.99956e-07
-2.55143e-07
1.14487e-06
-2.44914e-07
1.37935e-06
-2.34478e-07
1.60327e-06
-2.23928e-07
1.81661e-06
-2.13339e-07
2.01939e-06
-2.02775e-07
2.21168e-06
-1.92288e-07
2.3936e-06
-1.81926e-07
2.56533e-06
-1.71727e-07
2.72706e-06
-1.61726e-07
2.87901e-06
-1.51954e-07
3.02145e-06
-1.42436e-07
3.15464e-06
-1.33194e-07
3.27889e-06
-1.24248e-07
3.3945e-06
-1.15614e-07
3.50181e-06
-1.07306e-07
3.60114e-06
-9.9335e-08
3.69285e-06
-9.17117e-08
3.7773e-06
-8.4443e-08
3.85483e-06
-7.75339e-08
3.92582e-06
-7.09872e-08
3.99062e-06
-6.48035e-08
4.0496e-06
-5.89808e-08
4.10312e-06
-5.35149e-08
4.15152e-06
-4.83997e-08
4.19514e-06
-4.36267e-08
4.23433e-06
-3.91861e-08
4.2694e-06
-3.50665e-08
4.30065e-06
-3.12553e-08
4.32839e-06
-2.77388e-08
4.35289e-06
-2.45025e-08
4.37443e-06
-2.15313e-08
4.39323e-06
-1.88096e-08
4.40956e-06
-1.6322e-08
4.42361e-06
-1.40529e-08
4.4356e-06
-1.19872e-08
4.44571e-06
-1.01099e-08
4.45411e-06
-8.40664e-09
4.46098e-06
-6.86329e-09
4.46644e-06
-5.46634e-09
4.47065e-06
-4.20225e-09
4.4737e-06
-3.05703e-09
4.47571e-06
-2.00955e-09
4.47674e-06
-1.03048e-09
4.47677e-06
-2.59108e-11
4.47568e-06
1.08829e-09
4.47352e-06
2.16037e-09
4.47038e-06
3.14301e-09
4.46636e-06
4.01445e-09
4.46159e-06
4.76771e-09
4.45619e-06
5.40365e-09
4.45027e-06
5.92069e-09
4.44395e-06
6.31761e-09
4.43735e-06
6.6065e-09
4.43054e-06
6.80665e-09
4.4236e-06
6.9377e-09
4.41658e-06
7.01951e-09
4.40951e-06
7.06901e-09
4.40241e-06
7.09959e-09
4.39529e-06
7.12046e-09
4.38816e-06
7.13746e-09
4.381e-06
7.15403e-09
4.37383e-06
7.17151e-09
4.36664e-06
7.1905e-09
4.35943e-06
7.21107e-09
4.3522e-06
7.23297e-09
4.34494e-06
7.25622e-09
4.33766e-06
7.28056e-09
4.33035e-06
7.30612e-09
4.32302e-06
7.33287e-09
4.31566e-06
7.36089e-09
4.30827e-06
7.39011e-09
4.30085e-06
7.42081e-09
4.29339e-06
7.45285e-09
4.28591e-06
7.48631e-09
4.27839e-06
7.52131e-09
4.27083e-06
7.55786e-09
4.26323e-06
7.59615e-09
4.2556e-06
7.63618e-09
4.24792e-06
7.67812e-09
4.2402e-06
7.72212e-09
4.23243e-06
7.76844e-09
4.22461e-06
7.81737e-09
4.21674e-06
7.86932e-09
4.20882e-06
7.92466e-09
4.20083e-06
7.98393e-09
4.19279e-06
8.04792e-09
4.18467e-06
8.11755e-09
4.17647e-06
8.19384e-09
4.1682e-06
8.27833e-09
4.15982e-06
8.37281e-09
4.15134e-06
8.47968e-09
4.14274e-06
8.60181e-09
4.134e-06
8.74304e-09
4.12509e-06
8.9082e-09
4.11599e-06
9.10371e-09
4.10665e-06
9.33767e-09
4.09703e-06
9.6209e-09
4.08706e-06
9.96742e-09
4.07666e-06
1.03961e-08
4.06573e-06
1.09321e-08
4.05412e-06
1.16094e-08
4.04165e-06
1.24755e-08
4.02805e-06
1.35965e-08
4.01298e-06
1.50677e-08
3.99595e-06
1.70294e-08
3.97626e-06
1.96952e-08
3.95286e-06
2.3402e-08
3.92415e-06
2.87025e-08
3.88759e-06
3.65658e-08
3.83894e-06
4.86502e-08
3.77023e-06
6.87086e-08
3.66938e-06
1.00845e-07
3.49895e-06
1.70438e-07
2.48235e-07
3.25071e-06
-7.18525e-08
-1.82341e-08
-1.65477e-07
6.51499e-08
-2.77455e-07
1.27938e-07
-4.06811e-07
1.70984e-07
-5.52228e-07
2.02069e-07
-7.12181e-07
2.27561e-07
-8.85727e-07
2.5151e-07
-1.07249e-06
2.76035e-07
-1.27233e-06
3.02018e-07
-1.48509e-06
3.29582e-07
-1.71044e-06
3.58404e-07
-1.94771e-06
3.87899e-07
-2.19585e-06
4.17335e-07
-2.45338e-06
4.459e-07
-2.71842e-06
4.72746e-07
-2.98871e-06
4.97029e-07
-3.26176e-06
5.17955e-07
-3.53488e-06
5.34815e-07
-3.80534e-06
5.47022e-07
-4.07046e-06
5.54131e-07
-4.32768e-06
5.55858e-07
-4.57468e-06
5.52073e-07
-4.8094e-06
5.4279e-07
-5.03009e-06
5.28144e-07
-5.23529e-06
5.08364e-07
-5.42387e-06
4.83742e-07
-5.59497e-06
4.54611e-07
-5.74797e-06
4.21324e-07
-5.88245e-06
3.84238e-07
-5.99814e-06
3.43711e-07
-6.09496e-06
3.001e-07
-6.17289e-06
2.53773e-07
-6.23209e-06
2.05124e-07
-6.2728e-06
1.54573e-07
-6.29532e-06
1.02587e-07
-6.29982e-06
4.97082e-08
-6.28584e-06
-4.24271e-09
-6.24832e-06
-5.86107e-08
-6.18588e-06
-1.13664e-07
-6.09733e-06
-1.68617e-07
-5.98246e-06
-2.22801e-07
-5.84168e-06
-2.75632e-07
-5.6758e-06
-3.26553e-07
-5.48599e-06
-3.75033e-07
-5.2737e-06
-4.20575e-07
-5.04061e-06
-4.62725e-07
-4.78861e-06
-5.0109e-07
-4.51977e-06
-5.35345e-07
-4.23625e-06
-5.65241e-07
-3.94031e-06
-5.90619e-07
-3.63422e-06
-6.11405e-07
-3.32027e-06
-6.27616e-07
-3.00066e-06
-6.39354e-07
-2.67749e-06
-6.46795e-07
-2.35273e-06
-6.50182e-07
-2.02821e-06
-6.49804e-07
-1.70554e-06
-6.45985e-07
-1.38617e-06
-6.39063e-07
-1.0713e-06
-6.29374e-07
-7.6195e-07
-6.17257e-07
-4.58884e-07
-6.03086e-07
-1.62875e-07
-5.87355e-07
1.24682e-07
-5.70551e-07
4.02985e-07
-5.52742e-07
6.71931e-07
-5.33989e-07
9.31295e-07
-5.14507e-07
1.18089e-06
-4.9451e-07
1.42059e-06
-4.74173e-07
1.65031e-06
-4.53652e-07
1.87005e-06
-4.3308e-07
2.07985e-06
-4.12572e-07
2.27979e-06
-3.92232e-07
2.47001e-06
-3.72147e-07
2.65068e-06
-3.52394e-07
2.82199e-06
-3.33038e-07
2.98417e-06
-3.14135e-07
3.13747e-06
-2.95734e-07
3.28215e-06
-2.77871e-07
3.41848e-06
-2.60581e-07
3.54675e-06
-2.43887e-07
3.66726e-06
-2.2781e-07
3.78029e-06
-2.12365e-07
3.88614e-06
-1.97562e-07
3.9851e-06
-1.83407e-07
4.07747e-06
-1.69904e-07
4.16354e-06
-1.57052e-07
4.24358e-06
-1.44849e-07
4.31789e-06
-1.33288e-07
4.38674e-06
-1.22361e-07
4.4504e-06
-1.12058e-07
4.50913e-06
-1.02365e-07
4.56321e-06
-9.32672e-08
4.6129e-06
-8.47484e-08
4.65843e-06
-7.67899e-08
4.70006e-06
-6.93713e-08
4.73803e-06
-6.24711e-08
4.77257e-06
-5.60663e-08
4.80389e-06
-5.01334e-08
4.83222e-06
-4.46479e-08
4.85775e-06
-3.95853e-08
4.88068e-06
-3.49208e-08
4.9012e-06
-3.06298e-08
4.91948e-06
-2.6688e-08
4.93569e-06
-2.30713e-08
4.94998e-06
-1.97562e-08
4.9625e-06
-1.67192e-08
4.97338e-06
-1.39366e-08
4.98275e-06
-1.13836e-08
4.99076e-06
-9.03732e-09
4.99764e-06
-6.90332e-09
5.00367e-06
-4.94589e-09
5.00896e-06
-3.12652e-09
5.01353e-06
-1.42839e-09
5.01739e-06
1.52489e-10
5.02055e-06
1.60439e-09
5.02302e-06
2.93627e-09
5.02478e-06
4.16224e-09
5.02584e-06
5.26084e-09
5.0262e-06
6.24584e-09
5.02588e-06
7.12464e-09
5.02491e-06
7.90571e-09
5.02333e-06
8.5997e-09
5.02118e-06
9.21759e-09
5.01851e-06
9.77008e-09
5.01537e-06
1.02669e-08
5.01179e-06
1.07164e-08
5.00782e-06
1.11257e-08
5.00349e-06
1.15005e-08
4.99883e-06
1.18456e-08
4.99388e-06
1.21648e-08
4.98865e-06
1.24613e-08
4.98317e-06
1.27378e-08
4.97745e-06
1.29964e-08
4.97152e-06
1.32394e-08
4.96538e-06
1.34685e-08
4.95906e-06
1.3685e-08
4.95256e-06
1.38907e-08
4.94589e-06
1.40865e-08
4.93907e-06
1.42739e-08
4.9321e-06
1.44538e-08
4.925e-06
1.46273e-08
4.91776e-06
1.47951e-08
4.9104e-06
1.49583e-08
4.90292e-06
1.51175e-08
4.89532e-06
1.52737e-08
4.88762e-06
1.54274e-08
4.87981e-06
1.55796e-08
4.87189e-06
1.57309e-08
4.86388e-06
1.58822e-08
4.85577e-06
1.60345e-08
4.84756e-06
1.61886e-08
4.83927e-06
1.63461e-08
4.83088e-06
1.65082e-08
4.82239e-06
1.66769e-08
4.81382e-06
1.68544e-08
4.80515e-06
1.70437e-08
4.79638e-06
1.72482e-08
4.78751e-06
1.74724e-08
4.77853e-06
1.77219e-08
4.76943e-06
1.80039e-08
4.76021e-06
1.83276e-08
4.75084e-06
1.87048e-08
4.74131e-06
1.91506e-08
4.73159e-06
1.96851e-08
4.72166e-06
2.03344e-08
4.71145e-06
2.11335e-08
4.70093e-06
2.21294e-08
4.69002e-06
2.33863e-08
4.67863e-06
2.49935e-08
4.66662e-06
2.70777e-08
4.65382e-06
2.98227e-08
4.64002e-06
3.35017e-08
4.62488e-06
3.85407e-08
4.60797e-06
4.56075e-08
4.58865e-06
5.58894e-08
4.56609e-06
7.1207e-08
4.53867e-06
9.61352e-08
4.50442e-06
1.35092e-07
4.45871e-06
2.16142e-07
3.36122e-07
4.37083e-06
-1.61187e-07
1.42953e-07
-3.32442e-07
2.36404e-07
-5.03658e-07
2.99154e-07
-6.80069e-07
3.47395e-07
-8.64591e-07
3.86591e-07
-1.05792e-06
4.20886e-07
-1.25969e-06
4.53286e-07
-1.46917e-06
4.85513e-07
-1.68542e-06
5.18271e-07
-1.9074e-06
5.51562e-07
-2.13394e-06
5.84939e-07
-2.36374e-06
6.17702e-07
-2.59543e-06
6.49021e-07
-2.82755e-06
6.78023e-07
-3.05867e-06
7.03865e-07
-3.28742e-06
7.25778e-07
-3.51257e-06
7.43105e-07
-3.73309e-06
7.55331e-07
-3.94815e-06
7.6209e-07
-4.15718e-06
7.63161e-07
-4.35978e-06
7.58453e-07
-4.55568e-06
7.47979e-07
-4.74471e-06
7.31821e-07
-4.92667e-06
7.10103e-07
-5.10127e-06
6.82963e-07
-5.26806e-06
6.50531e-07
-5.42637e-06
6.12924e-07
-5.57529e-06
5.70242e-07
-5.71364e-06
5.2258e-07
-5.83997e-06
4.70044e-07
-5.95264e-06
4.12768e-07
-6.0498e-06
3.50936e-07
-6.12948e-06
2.84801e-07
-6.18961e-06
2.14706e-07
-6.2281e-06
1.41081e-07
-6.24282e-06
6.44276e-08
-6.23236e-06
-1.47052e-08
-6.19531e-06
-9.56635e-08
-6.13138e-06
-1.77589e-07
-6.04048e-06
-2.59524e-07
-5.92279e-06
-3.40487e-07
-5.77889e-06
-4.19529e-07
-5.60971e-06
-4.9574e-07
-5.41648e-06
-5.68262e-07
-5.20075e-06
-6.36307e-07
-4.9643e-06
-6.99169e-07
-4.70915e-06
-7.56245e-07
-4.43745e-06
-8.0704e-07
-4.1515e-06
-8.51191e-07
-3.85366e-06
-8.88466e-07
-3.54628e-06
-9.18778e-07
-3.23172e-06
-9.42181e-07
-2.91221e-06
-9.58861e-07
-2.58988e-06
-9.69126e-07
-2.26668e-06
-9.73382e-07
-1.94437e-06
-9.72109e-07
-1.62452e-06
-9.65837e-07
-1.30847e-06
-9.55117e-07
-9.97341e-07
-9.40502e-07
-6.92059e-07
-9.22539e-07
-3.93368e-07
-9.01777e-07
-1.02015e-07
-8.78708e-07
1.81132e-07
-8.53698e-07
4.55493e-07
-8.27104e-07
7.20779e-07
-7.99274e-07
9.76765e-07
-7.70494e-07
1.22329e-06
-7.41034e-07
1.46025e-06
-7.11132e-07
1.68759e-06
-6.80996e-07
1.90532e-06
-6.5081e-07
2.11349e-06
-6.20735e-07
2.31217e-06
-5.90913e-07
2.50149e-06
-5.61471e-07
2.68161e-06
-5.32516e-07
2.85272e-06
-5.04144e-07
3.01502e-06
-4.76435e-07
3.16874e-06
-4.49457e-07
3.31414e-06
-4.23268e-07
3.45147e-06
-3.97912e-07
3.58101e-06
-3.73425e-07
3.70303e-06
-3.49834e-07
3.81782e-06
-3.27159e-07
3.92567e-06
-3.0541e-07
4.02686e-06
-2.84594e-07
4.12167e-06
-2.64711e-07
4.21037e-06
-2.45757e-07
4.29324e-06
-2.27724e-07
4.37056e-06
-2.10601e-07
4.44257e-06
-1.94373e-07
4.50954e-06
-1.79025e-07
4.57171e-06
-1.64536e-07
4.62933e-06
-1.50885e-07
4.68263e-06
-1.3805e-07
4.73184e-06
-1.26006e-07
4.7772e-06
-1.14726e-07
4.81891e-06
-1.04181e-07
4.85718e-06
-9.43429e-08
4.89223e-06
-8.51801e-08
4.92424e-06
-7.66611e-08
4.95341e-06
-6.87537e-08
4.97992e-06
-6.14253e-08
5.00393e-06
-5.46432e-08
5.02562e-06
-4.8375e-08
5.04513e-06
-4.25884e-08
5.06263e-06
-3.72517e-08
5.07824e-06
-3.23335e-08
5.09211e-06
-2.78033e-08
5.10436e-06
-2.36315e-08
5.11511e-06
-1.97899e-08
5.12447e-06
-1.62587e-08
5.13254e-06
-1.30143e-08
5.13944e-06
-1.00273e-08
5.14528e-06
-7.27567e-09
5.15018e-06
-4.74573e-09
5.15421e-06
-2.42272e-09
5.15746e-06
-3.1446e-10
5.15995e-06
1.67652e-09
5.16174e-06
3.46925e-09
5.16287e-06
5.11324e-09
5.16338e-06
6.61552e-09
5.1633e-06
7.98826e-09
5.16265e-06
9.24352e-09
5.16148e-06
1.03927e-08
5.1598e-06
1.1447e-08
5.15765e-06
1.24163e-08
5.15506e-06
1.33101e-08
5.15205e-06
1.41365e-08
5.14864e-06
1.49025e-08
5.14488e-06
1.56143e-08
5.14076e-06
1.62774e-08
5.13633e-06
1.6896e-08
5.13159e-06
1.74745e-08
5.12657e-06
1.80163e-08
5.12129e-06
1.85247e-08
5.11575e-06
1.90025e-08
5.10998e-06
1.94526e-08
5.104e-06
1.98774e-08
5.09781e-06
2.02793e-08
5.09142e-06
2.06604e-08
5.08485e-06
2.10227e-08
5.07811e-06
2.13683e-08
5.07121e-06
2.16988e-08
5.06415e-06
2.2016e-08
5.05694e-06
2.23215e-08
5.0496e-06
2.26169e-08
5.04212e-06
2.29035e-08
5.03452e-06
2.31829e-08
5.0268e-06
2.34565e-08
5.01895e-06
2.37257e-08
5.01099e-06
2.39921e-08
5.00293e-06
2.42574e-08
4.99475e-06
2.45235e-08
4.98646e-06
2.47927e-08
4.97807e-06
2.50677e-08
4.96958e-06
2.53517e-08
4.96097e-06
2.56489e-08
4.95225e-06
2.59642e-08
4.94342e-06
2.63038e-08
4.93447e-06
2.66755e-08
4.92538e-06
2.70892e-08
4.91615e-06
2.75574e-08
4.90676e-06
2.8096e-08
4.89719e-06
2.87257e-08
4.8874e-06
2.94733e-08
4.87736e-06
3.0374e-08
4.86702e-06
3.14741e-08
4.85631e-06
3.2836e-08
4.84515e-06
3.45443e-08
4.83343e-06
3.67154e-08
4.821e-06
3.95131e-08
4.80765e-06
4.31722e-08
4.79311e-06
4.8037e-08
4.77702e-06
5.46321e-08
4.75886e-06
6.37648e-08
4.73795e-06
7.68026e-08
4.7133e-06
9.58557e-08
4.68399e-06
1.25444e-07
4.64791e-06
1.71181e-07
4.61116e-06
2.52885e-07
3.78596e-07
4.56869e-06
-2.01283e-07
3.44236e-07
-3.97041e-07
4.32162e-07
-5.8754e-07
4.89654e-07
-7.76813e-07
5.36669e-07
-9.67759e-07
5.77536e-07
-1.16161e-06
6.14739e-07
-1.35852e-06
6.5019e-07
-1.55809e-06
6.85084e-07
-1.75973e-06
7.1991e-07
-1.96276e-06
7.54601e-07
-2.16654e-06
7.88709e-07
-2.37041e-06
8.21573e-07
-2.57382e-06
8.52432e-07
-2.77631e-06
8.80518e-07
-2.97756e-06
9.05113e-07
-3.17737e-06
9.2559e-07
-3.37569e-06
9.41427e-07
-3.57258e-06
9.52216e-07
-3.76814e-06
9.57651e-07
-3.96248e-06
9.57507e-07
-4.15564e-06
9.51612e-07
-4.34749e-06
9.39821e-07
-4.53766e-06
9.21991e-07
-4.72551e-06
8.97961e-07
-4.9101e-06
8.67547e-07
-5.09011e-06
8.30541e-07
-5.26392e-06
7.86731e-07
-5.42959e-06
7.35917e-07
-5.58495e-06
6.77943e-07
-5.72764e-06
6.12732e-07
-5.85519e-06
5.40314e-07
-5.96512e-06
4.60862e-07
-6.05502e-06
3.74709e-07
-6.12268e-06
2.82365e-07
-6.16611e-06
1.84504e-07
-6.18364e-06
8.19671e-08
-6.17409e-06
-2.42585e-08
-6.13667e-06
-1.33085e-07
-6.07098e-06
-2.43275e-07
-5.97701e-06
-3.535e-07
-5.85508e-06
-4.62411e-07
-5.70594e-06
-5.68677e-07
-5.53065e-06
-6.71021e-07
-5.33067e-06
-7.68243e-07
-5.10773e-06
-8.59247e-07
-4.86384e-06
-9.43058e-07
-4.60124e-06
-1.01885e-06
-4.32232e-06
-1.08596e-06
-4.02962e-06
-1.14389e-06
-3.72571e-06
-1.19237e-06
-3.41317e-06
-1.23131e-06
-3.09452e-06
-1.26084e-06
-2.77212e-06
-1.28126e-06
-2.44818e-06
-1.29306e-06
-2.12468e-06
-1.29688e-06
-1.80336e-06
-1.29343e-06
-1.4857e-06
-1.2835e-06
-1.17295e-06
-1.26787e-06
-8.66127e-07
-1.24733e-06
-5.66032e-07
-1.22263e-06
-2.73315e-07
-1.19449e-06
1.14427e-08
-1.16347e-06
2.87763e-07
-1.13002e-06
5.55305e-07
-1.09465e-06
8.13822e-07
-1.05779e-06
1.06316e-06
-1.01984e-06
1.30324e-06
-9.81114e-07
1.53403e-06
-9.41914e-07
1.75552e-06
-9.02487e-07
1.96776e-06
-8.63051e-07
2.17082e-06
-8.23802e-07
2.36482e-06
-7.84909e-07
2.54987e-06
-7.46523e-07
2.72613e-06
-7.08779e-07
2.89378e-06
-6.7179e-07
3.053e-06
-6.35658e-07
3.20402e-06
-6.00469e-07
3.34704e-06
-5.66294e-07
3.48232e-06
-5.33192e-07
3.61011e-06
-5.01208e-07
3.73065e-06
-4.70378e-07
3.84422e-06
-4.40726e-07
3.95107e-06
-4.12267e-07
4.05149e-06
-3.85008e-07
4.14573e-06
-3.58948e-07
4.23405e-06
-3.3408e-07
4.31672e-06
-3.10393e-07
4.39399e-06
-2.8787e-07
4.46611e-06
-2.66491e-07
4.53332e-06
-2.46235e-07
4.59585e-06
-2.27074e-07
4.65395e-06
-2.08983e-07
4.70783e-06
-1.91931e-07
4.75771e-06
-1.75887e-07
4.80381e-06
-1.60819e-07
4.84632e-06
-1.46691e-07
4.88544e-06
-1.3347e-07
4.92138e-06
-1.21116e-07
4.95431e-06
-1.09593e-07
4.98442e-06
-9.88614e-08
5.01188e-06
-8.88814e-08
5.03685e-06
-7.96134e-08
5.05949e-06
-7.10177e-08
5.07996e-06
-6.30548e-08
5.09839e-06
-5.56855e-08
5.11493e-06
-4.88714e-08
5.1297e-06
-4.2575e-08
5.14283e-06
-3.67601e-08
5.15443e-06
-3.1392e-08
5.16461e-06
-2.64405e-08
5.17347e-06
-2.1877e-08
5.18112e-06
-1.76707e-08
5.18763e-06
-1.37932e-08
5.19311e-06
-1.02218e-08
5.19763e-06
-6.93711e-09
5.20123e-06
-3.92145e-09
5.20404e-06
-1.13319e-09