/*--------------------------------*- C++ -*----------------------------------*\
| =========                 |                                                 |
| \\      /  F ield         | OpenFOAM: The Open Source CFD Toolbox           |
|  \\    /   O peration     | Version:  2112                                  |
|   \\  /    A nd           | Website:  www.openfoam.com                      |
|    \\/     M anipulation  |                                                 |
\*---------------------------------------------------------------------------*/
FoamFile
{
    version     2.0;
    format      ascii;
    arch        "LSB;label=32;scalar=64";
    class       volVectorField;
    location    "0.14";
    object      ddtCorrDdt0(U);
}
// * * * * * * * * * * * * * * * * * * * * * * * * * * * * * * * * * * * * * //

dimensions      [0 1 -2 0 0 0 0];

internalField   nonuniform List<vector> 
12225
(
(0.159035 -0.0314544 0)
(-0.0899428 -0.289093 0)
(-0.279766 -0.0190644 0)
(-0.214735 0.0130488 0)
(-0.298968 0.0104429 0)
(-0.336123 0.0068509 0)
(-0.371857 0.0087975 0)
(-0.403926 0.0164583 0)
(-0.464053 0.0068481 0)
(-0.483284 0.020103 0)
(-0.588152 0.0374121 0)
(-0.751149 0.0516414 0)
(-1.21464 0.064765 0)
(-1.29516 0.16466 0)
(-2.99929 0.333612 0)
(-3.07547 -0.00359166 0)
(-6.04656 1.12199 0)
(-5.82762 -0.0875001 0)
(-0.103317 -0.12174 0)
(0.544198 0.899246 0)
(-0.186938 -0.0391299 0)
(-0.228637 -0.0680167 0)
(-0.359908 -0.00200178 0)
(-0.404928 0.03245 0)
(-0.49457 0.0166678 0)
(-0.552452 0.0204631 0)
(-0.68668 0.0264873 0)
(-0.832554 0.0142275 0)
(-0.826058 0.0404556 0)
(-1.0265 0.164736 0)
(-1.56824 0.128915 0)
(-1.66824 0.252674 0)
(-2.6401 0.498822 0)
(-2.97099 0.980913 0)
(-5.73552 1.0737 0)
(-7.36317 1.67698 0)
(-0.43085 -0.0628003 0)
(-0.518775 -0.332267 0)
(0.249599 -0.0717149 0)
(-0.0586611 0.333575 0)
(-0.249604 0.067664 0)
(-0.391228 0.0139982 0)
(-0.426898 0.0643019 0)
(-0.525042 0.0812342 0)
(-0.662136 0.0667781 0)
(-0.737579 0.0902569 0)
(-1.09995 0.139899 0)
(-1.26728 0.195298 0)
(-1.2095 0.344372 0)
(-2.20904 0.638018 0)
(-3.24066 0.743706 0)
(-2.5549 1.07222 0)
(-3.61839 2.12004 0)
(-6.90412 3.67216 0)
(-0.14715 0.0166656 0)
(-0.144789 -0.676454 0)
(-0.0987594 0.0977868 0)
(-0.260479 0.0424134 0)
(-0.122135 0.0407104 0)
(-0.268535 0.120745 0)
(-0.41581 0.033975 0)
(-0.427623 0.0796342 0)
(-0.474498 0.0910482 0)
(-0.537084 0.124936 0)
(-0.628062 0.20842 0)
(-0.785734 0.284473 0)
(-0.974757 0.462895 0)
(-1.28003 0.787578 0)
(-1.34999 1.13206 0)
(-2.45778 1.6887 0)
(-3.49606 2.46862 0)
(-2.47887 3.68882 0)
(-0.0218971 0.0647489 0)
(-0.0616199 0.192558 0)
(-0.157651 0.119494 0)
(-0.278951 -0.0123103 0)
(-0.24113 0.0873934 0)
(-0.280862 0.0829515 0)
(-0.320779 0.0741934 0)
(-0.36323 0.0999053 0)
(-0.353843 0.0753904 0)
(-0.368879 0.120955 0)
(-0.343686 0.208033 0)
(-0.354332 0.294971 0)
(-0.429009 0.502724 0)
(-0.505643 0.872082 0)
(-0.404573 1.27893 0)
(-0.961965 1.82353 0)
(-1.381 2.68979 0)
(-0.960008 3.82662 0)
(0.00819601 0.0657639 0)
(-0.0413547 0.0703192 0)
(-0.153265 0.131793 0)
(-0.218234 0.133848 0)
(-0.245454 0.115608 0)
(-0.32519 0.051581 0)
(-0.337258 0.108902 0)
(-0.329812 0.0896373 0)
(-0.291253 0.0838961 0)
(-0.277639 0.125971 0)
(-0.167949 0.196357 0)
(-0.0849125 0.267793 0)
(-0.0516209 0.481553 0)
(0.00704462 0.835369 0)
(0.190213 1.27405 0)
(0.128176 1.86748 0)
(0.086314 2.72477 0)
(0.251448 3.71733 0)
(0.00591812 0.057421 0)
(-0.0444681 0.0573228 0)
(-0.125585 0.152563 0)
(-0.185968 0.138884 0)
(-0.262177 0.128875 0)
(-0.318406 0.135862 0)
(-0.372691 0.100072 0)
(-0.381479 0.0757194 0)
(-0.330598 0.0837686 0)
(-0.292297 0.0983719 0)
(-0.132264 0.139864 0)
(0.0295797 0.24493 0)
(0.14867 0.462084 0)
(0.341647 0.753214 0)
(0.603532 1.17479 0)
(0.767401 1.82562 0)
(0.941024 2.62983 0)
(1.21786 3.48041 0)
(0.000950546 0.057901 0)
(-0.0422124 0.0901867 0)
(-0.106754 0.161368 0)
(-0.168377 0.15257 0)
(-0.254569 0.155556 0)
(-0.335118 0.138138 0)
(-0.403869 0.119958 0)
(-0.460555 0.0768917 0)
(-0.464814 0.0485921 0)
(-0.438825 0.0369931 0)
(-0.314483 0.0534907 0)
(-0.0941241 0.180116 0)
(0.145625 0.360823 0)
(0.467762 0.620684 0)
(0.819186 1.06278 0)
(1.17337 1.70263 0)
(1.52455 2.3928 0)
(1.9651 3.15846 0)
(-0.00262931 0.0615229 0)
(-0.0355202 0.11343 0)
(-0.0925093 0.176672 0)
(-0.15573 0.183289 0)
(-0.240388 0.187618 0)
(-0.324602 0.175595 0)
(-0.402742 0.155614 0)
(-0.487467 0.106569 0)
(-0.55945 0.0617882 0)
(-0.607168 0.0190126 0)
(-0.604746 -0.0237375 0)
(-0.469467 0.0150874 0)
(-0.212829 0.147041 0)
(0.197753 0.401541 0)
(0.718607 0.843199 0)
(1.32922 1.42155 0)
(1.91384 2.07914 0)
(2.5626 2.78808 0)
(-0.00378866 0.0662655 0)
(-0.0280651 0.135542 0)
(-0.0785622 0.197145 0)
(-0.143275 0.215298 0)
(-0.22371 0.222822 0)
(-0.308935 0.21378 0)
(-0.38931 0.192385 0)
(-0.472179 0.151925 0)
(-0.560537 0.11002 0)
(-0.646454 0.06013 0)
(-0.738438 -0.0125389 0)
(-0.780818 -0.0519088 0)
(-0.698647 -0.0321928 0)
(-0.441773 0.0773165 0)
(0.0660796 0.391122 0)
(0.82968 0.917783 0)
(1.76508 1.61282 0)
(2.76816 2.20593 0)
(-0.00073463 0.070268 0)
(-0.0193773 0.153945 0)
(-0.0637752 0.219011 0)
(-0.127817 0.247483 0)
(-0.204211 0.259658 0)
(-0.2874 0.253044 0)
(-0.369492 0.232009 0)
(-0.449562 0.195715 0)
(-0.529018 0.157599 0)
(-0.602678 0.115174 0)
(-0.687732 0.0548398 0)
(-0.784035 -0.00313797 0)
(-0.852451 -0.05544 0)
(-0.850297 -0.0820944 0)
(-0.667443 0.00567509 0)
(-0.178598 0.268068 0)
(0.689238 0.714493 0)
(1.85682 1.1927 0)
(0.00750348 0.0698477 0)
(-0.0133907 0.166653 0)
(-0.0512835 0.23828 0)
(-0.111442 0.275157 0)
(-0.182824 0.291936 0)
(-0.261489 0.288777 0)
(-0.342981 0.267765 0)
(-0.423597 0.230634 0)
(-0.499257 0.188908 0)
(-0.560681 0.145323 0)
(-0.61465 0.0941617 0)
(-0.672292 0.0426968 0)
(-0.72815 -0.0142212 0)
(-0.779483 -0.076177 0)
(-0.778741 -0.107947 0)
(-0.629442 -0.0794611 0)
(-0.224944 0.0452892 0)
(0.535724 0.215971 0)
(0.00732224 0.069623 0)
(-0.0136764 0.177817 0)
(-0.0439146 0.259666 0)
(-0.0983951 0.305354 0)
(-0.164446 0.328046 0)
(-0.23811 0.329976 0)
(-0.317227 0.311819 0)
(-0.398432 0.275524 0)
(-0.476122 0.229312 0)
(-0.538952 0.178121 0)
(-0.582714 0.123301 0)
(-0.610858 0.070775 0)
(-0.623487 0.0173461 0)
(-0.629541 -0.042098 0)
(-0.624285 -0.103296 0)
(-0.569809 -0.166164 0)
(-0.421508 -0.223293 0)
(-0.0959418 -0.306599 0)
(-0.00134854 0.0759306 0)
(-0.0162801 0.190054 0)
(-0.0400739 0.280813 0)
(-0.0853056 0.337193 0)
(-0.142675 0.367401 0)
(-0.208186 0.375554 0)
(-0.280439 0.362332 0)
(-0.356769 0.328944 0)
(-0.432714 0.279645 0)
(-0.499404 0.218011 0)
(-0.548347 0.148366 0)
(-0.574029 0.0774377 0)
(-0.570863 0.00703408 0)
(-0.539315 -0.0640561 0)
(-0.48044 -0.140821 0)
(-0.38449 -0.235777 0)
(-0.249221 -0.359925 0)
(-0.0606052 -0.551337 0)
(-0.00308295 0.0806492 0)
(-0.0171748 0.201959 0)
(-0.036774 0.301798 0)
(-0.0700811 0.367432 0)
(-0.115387 0.406514 0)
(-0.169023 0.422275 0)
(-0.229566 0.415254 0)
(-0.294502 0.386266 0)
(-0.36036 0.336967 0)
(-0.421949 0.268757 0)
(-0.47293 0.18468 0)
(-0.506118 0.0895671 0)
(-0.513037 -0.0133336 0)
(-0.485863 -0.122657 0)
(-0.417536 -0.243314 0)
(-0.301428 -0.385589 0)
(-0.146321 -0.556308 0)
(0.0399426 -0.798024 0)
(-0.0022758 0.087088 0)
(-0.0157741 0.214772 0)
(-0.0307035 0.318926 0)
(-0.0501409 0.393519 0)
(-0.0823928 0.442613 0)
(-0.12083 0.467103 0)
(-0.164995 0.4669 0)
(-0.212747 0.442559 0)
(-0.261143 0.394739 0)
(-0.30713 0.323886 0)
(-0.347311 0.231039 0)
(-0.37714 0.117647 0)
(-0.390438 -0.0159898 0)
(-0.379359 -0.171317 0)
(-0.334791 -0.352699 0)
(-0.249699 -0.562473 0)
(-0.129661 -0.80043 0)
(0.0285535 -1.11426 0)
(-0.00088383 0.0926582 0)
(-0.00881713 0.226392 0)
(-0.017552 0.331061 0)
(-0.0280715 0.41258 0)
(-0.0453242 0.469826 0)
(-0.0656013 0.501989 0)
(-0.089062 0.50773 0)
(-0.114471 0.487036 0)
(-0.139633 0.440096 0)
(-0.162458 0.367026 0)
(-0.180761 0.2678 0)
(-0.191994 0.141568 0)
(-0.193092 -0.0140682 0)
(-0.18053 -0.202914 0)
(-0.150745 -0.428277 0)
(-0.101302 -0.689542 0)
(-0.0329902 -0.992371 0)
(0.0696901 -1.39619 0)
(0.000710643 0.0942169 0)
(0.00128385 0.231462 0)
(0.00125855 0.338953 0)
(0.000525668 0.422677 0)
(-0.00129214 0.482286 0)
(-0.00224484 0.517093 0)
(-0.00248518 0.52482 0)
(-0.00179993 0.504555 0)
(0.000936299 0.455689 0)
(0.00698803 0.377758 0)
(0.0176868 0.270304 0)
(0.0343529 0.132339 0)
(0.0578863 -0.0377989 0)
(0.0886777 -0.242229 0)
(0.127408 -0.483717 0)
(0.176615 -0.769659 0)
(0.242744 -1.12842 0)
(0.348824 -1.64108 0)
(0.00286819 0.0885651 0)
(0.0137793 0.222913 0)
(0.0244623 0.33108 0)
(0.035581 0.414528 0)
(0.0513654 0.470962 0)
(0.0715006 0.501146 0)
(0.0963503 0.503747 0)
(0.125775 0.47757 0)
(0.159693 0.421319 0)
(0.198269 0.333829 0)
(0.242254 0.214423 0)
(0.292649 0.062556 0)
(0.350738 -0.123529 0)
(0.419236 -0.348151 0)
(0.503081 -0.621484 0)
(0.608751 -0.965954 0)
(0.745673 -1.4238 0)
(0.923043 -2.06891 0)
(0.00572502 0.0743731 0)
(0.0260001 0.199497 0)
(0.0452017 0.309292 0)
(0.0652766 0.38606 0)
(0.0978047 0.430699 0)
(0.137666 0.447769 0)
(0.185032 0.437064 0)
(0.239802 0.397615 0)
(0.30102 0.328021 0)
(0.368101 0.225893 0)
(0.441613 0.0892272 0)
(0.523832 -0.0839799 0)
(0.618815 -0.300343 0)
(0.732251 -0.571558 0)
(0.871769 -0.913118 0)
(1.0391 -1.34561 0)
(1.22941 -1.88725 0)
(1.4313 -2.55856 0)
(0.00719091 0.0586078 0)
(0.0331441 0.173816 0)
(0.0577787 0.283519 0)
(0.0881836 0.350343 0)
(0.134056 0.380947 0)
(0.190194 0.383688 0)
(0.254941 0.359024 0)
(0.327391 0.306548 0)
(0.408196 0.224709 0)
(0.497501 0.108729 0)
(0.594918 -0.0466504 0)
(0.706484 -0.2476 0)
(0.838424 -0.505681 0)
(0.989678 -0.837187 0)
(1.16071 -1.24825 0)
(1.321 -1.72928 0)
(1.42728 -2.2668 0)
(1.4625 -2.82156 0)
(-0.0020863 0.0422773 0)
(0.0341644 0.135436 0)
(0.0691334 0.250416 0)
(0.106651 0.308176 0)
(0.164604 0.323002 0)
(0.235566 0.311262 0)
(0.31249 0.275072 0)
(0.396023 0.20971 0)
(0.492892 0.112581 0)
(0.601166 -0.0216866 0)
(0.716526 -0.204674 0)
(0.849789 -0.446564 0)
(0.985345 -0.740976 0)
(1.08416 -1.09197 0)
(1.12615 -1.46639 0)
(1.02768 -1.77841 0)
(0.751291 -2.058 0)
(0.301968 -2.23954 0)
(-0.00518305 0.0358792 0)
(0.0418093 0.0967595 0)
(0.088998 0.231677 0)
(0.129237 0.266245 0)
(0.192832 0.26325 0)
(0.271267 0.237347 0)
(0.354277 0.192431 0)
(0.44752 0.110647 0)
(0.553709 -0.00750227 0)
(0.654101 -0.155727 0)
(0.740447 -0.353925 0)
(0.807667 -0.594074 0)
(0.78527 -0.804006 0)
(0.630294 -1.00355 0)
(0.312866 -1.15842 0)
(-0.118991 -1.11071 0)
(-0.577499 -1.1462 0)
(-1.1747 -1.40133 0)
(-0.00613801 0.0359909 0)
(0.0618224 0.00698097 0)
(0.14308 0.234353 0)
(0.155023 0.244083 0)
(0.217062 0.210077 0)
(0.289885 0.172825 0)
(0.37292 0.113916 0)
(0.465854 0.0180019 0)
(0.53026 -0.0952816 0)
(0.554278 -0.214913 0)
(0.531522 -0.358746 0)
(0.398595 -0.49256 0)
(0.164533 -0.500856 0)
(-0.0961056 -0.517999 0)
(-0.531652 -0.625713 0)
(-0.855185 -0.70511 0)
(-1.05081 -0.677589 0)
(-1.30606 -0.814301 0)
(-0.020583 0.0875475 0)
(0.0433903 -0.0175381 0)
(0.231138 0.208854 0)
(0.182413 0.227637 0)
(0.224314 0.142672 0)
(0.292323 0.107596 0)
(0.357099 0.0579275 0)
(0.39912 -0.0180409 0)
(0.376733 -0.0669649 0)
(0.348554 -0.139725 0)
(0.269717 -0.199823 0)
(0.0363782 -0.27521 0)
(-0.172053 -0.330318 0)
(-0.311611 -0.298107 0)
(-0.523413 -0.316558 0)
(-0.695481 -0.48089 0)
(-0.871538 -0.559899 0)
(-1.03489 -0.656559 0)
(0.0141108 0.167524 0)
(0.0296875 0.385868 0)
(0.194768 0.308951 0)
(0.208523 0.183253 0)
(0.185234 0.205381 0)
(0.288242 0.0732159 0)
(0.323884 0.0339174 0)
(0.314256 -0.00155801 0)
(0.293504 -0.0639793 0)
(0.269965 -0.110738 0)
(0.206936 -0.122358 0)
(0.069841 -0.121131 0)
(-0.0465962 -0.226157 0)
(-0.156271 -0.252459 0)
(-0.247401 -0.274043 0)
(-0.349928 -0.35852 0)
(-0.488949 -0.409834 0)
(-0.59558 -0.465999 0)
(0.407828 0.119554 0)
(-0.370811 -2.01558 0)
(-0.314556 0.341974 0)
(0.199987 0.144725 0)
(0.178679 0.0708986 0)
(0.349492 0.077721 0)
(0.306154 0.0190873 0)
(0.322304 0.0140697 0)
(0.353024 -0.06755 0)
(0.3225 -0.111716 0)
(0.27864 -0.125711 0)
(0.237362 -0.114497 0)
(0.199827 -0.151552 0)
(0.142272 -0.175097 0)
(0.110269 -0.188155 0)
(0.0807007 -0.250054 0)
(0.00804347 -0.306218 0)
(-0.0435466 -0.358109 0)
(1.78047 -0.315174 0)
(0.638812 -0.458051 0)
(-2.02975 -0.156661 0)
(0.453672 0.154917 0)
(0.28154 -0.0945782 0)
(0.232022 0.0753003 0)
(0.320433 0.00898829 0)
(0.396474 -0.0497487 0)
(0.407834 -0.0650219 0)
(0.426309 -0.0764382 0)
(0.389277 -0.075426 0)
(0.39689 -0.0635428 0)
(0.446657 -0.102161 0)
(0.458667 -0.141151 0)
(0.442704 -0.166102 0)
(0.443826 -0.204584 0)
(0.390448 -0.253401 0)
(0.387233 -0.297678 0)
(0.167523 -0.3795 0)
(-0.207397 3.05363 0)
(0.591797 -0.710972 0)
(0.235618 -0.0596715 0)
(0.15962 0.0882358 0)
(0.294735 0.032932 0)
(0.345605 -0.0267767 0)
(0.322984 -0.0217813 0)
(0.318996 -0.0306846 0)
(0.267147 -0.0406185 0)
(0.307729 -0.0686286 0)
(0.163017 -0.0846456 0)
(0.12006 -0.104329 0)
(0.0137579 -0.133696 0)
(-0.109093 -0.151653 0)
(-0.250094 -0.184797 0)
(-0.416639 -0.232613 0)
(-0.593235 -0.287584 0)
(-0.45416 -0.204842 0)
(0.0299451 -0.95048 0)
(1.02225 0.0966499 0)
(0.0940306 0.0263057 0)
(0.0992307 -0.00312129 0)
(0.186729 0.0084202 0)
(0.178508 0.00186537 0)
(0.109478 -0.00639963 0)
(0.0143787 -0.0188984 0)
(-0.0968869 -0.0323826 0)
(-0.306129 -0.0206765 0)
(-0.381453 -0.0213269 0)
(-0.617572 -0.0410807 0)
(-0.805562 -0.046333 0)
(-1.04954 -0.0620169 0)
(-1.29549 -0.0644492 0)
(-1.60849 -0.0619417 0)
(-1.9465 -0.0727565 0)
(0.0630299 -0.561146 1.87716e-18)
(0.203597 0.923786 -1.86525e-18)
(-0.272049 1.24315 0)
(-0.8202 1.39085 0)
(-2.2427 2.14085 0)
(-5.04003 3.56082 1.81419e-18)
(-9.458 4.97427 0)
(-15.2981 6.20164 0)
(-21.9231 6.94388 0)
(-29.1755 7.38125 0)
(-36.6667 7.7153 -1.72569e-18)
(-44.2441 7.74596 0)
(-51.3177 7.16413 0)
(-57.9079 6.38604 0)
(-63.8608 5.64738 0)
(-69.1011 4.87118 -1.70149e-18)
(-73.5975 4.00698 0)
(-77.2151 3.07968 0)
(-79.9334 2.13484 0)
(-81.7564 1.2405 0)
(-82.727 0.377474 0)
(-82.8774 -0.481947 0)
(-82.1999 -1.32589 0)
(-80.7323 -2.07476 -1.69637e-18)
(-78.4845 -2.78154 1.69288e-18)
(-75.4889 -3.39787 -1.68813e-18)
(-71.8454 -3.91795 -1.68264e-18)
(-67.6472 -4.12058 0)
(-63.2359 -4.12465 0)
(-58.5091 -4.2594 1.66542e-18)
(-53.7041 -4.29497 1.66058e-18)
(-49.4419 -4.34302 0)
(-45.2029 -3.52042 0)
(-41.9309 -1.91517 1.64176e-18)
(-40.1793 0.0646928 0)
(-40.4235 2.50395 0)
(-42.9757 5.07776 -1.6334e-18)
(-47.7367 7.42796 0)
(-54.4139 8.85666 -1.63212e-18)
(-62.2522 8.0768 -3.25215e-18)
(-69.0161 3.73704 0)
(-72.5936 -6.42969 0)
(-61.7291 -26.7676 0)
(-37.2862 -74.7858 0)
(24.4464 -76.1865 0)
(79.025 -18.7606 -3.49766e-18)
(109.005 -8.66636 -3.74349e-18)
(137.748 -10.4847 -3.82743e-18)
(130.694 19.5599 0)
(111.87 13.9512 3.01817e-18)
(103.932 2.67812 0)
(119.218 34.9371 -3.09889e-18)
(121.814 19.3064 -3.018e-18)
(191.307 -77.4799 0)
(257.428 -33.3488 0)
(237.326 6.87114 0)
(233.981 -0.804503 -3.11619e-18)
(217.112 15.5289 0)
(193.037 16.1252 0)
(174.962 13.8079 0)
(151.527 17.8158 0)
(128.379 17.9695 0)
(107.115 16.3604 0)
(90.0067 13.0337 0)
(80.1622 6.98201 0)
(78.5142 -0.940202 2.53639e-18)
(84.1183 -9.36866 0)
(95.5842 -15.1915 0)
(109.809 -17.2235 -1.93668e-18)
(125.557 -15.9996 -1.60517e-18)
(142.173 -12.3734 0)
(153.882 -3.34963 1.00631e-18)
(151.444 8.40275 -7.22452e-19)
(130.263 18.898 0)
(93.9248 27.8898 4.83685e-19)
(43.9291 32.2756 0)
(-5.14009 35.7103 0)
(-63.2769 34.8771 -1.03255e-18)
(-113.773 25.7151 0)
(-144.362 11.8824 1.36547e-18)
(-149.218 -3.96604 0)
(-127.148 -20.9695 -1.16618e-18)
(-74.7685 -42.0371 -1.02808e-18)
(12.8381 -69.519 -9.16935e-19)
(124.765 -74.3368 -1.44504e-18)
(237.293 -52.7316 4.97007e-19)
(318.679 -14.3899 0)
(327.845 13.1233 0)
(339.827 12.7238 0)
(375.165 5.81595 2.39898e-18)
(410.481 -15.4938 2.72764e-18)
(406.081 -24.8279 -3.9557e-18)
(379.928 -24.8674 0)
(294.795 56.1191 8.02246e-18)
(94.1845 130.911 8.08368e-18)
(-57.1494 69.5301 7.49045e-18)
(-101.921 40.2605 0)
(-171.997 24.2081 0)
(-199.174 9.56567 0)
(-226.286 8.62267 2.45459e-18)
(-248.563 2.65613 0)
(-263.901 2.09101 0)
(-280.296 -0.727667 7.19086e-19)
(-290.986 -4.2672 0)
(-298.545 -5.02987 0)
(-305.376 -1.0878 2.9086e-18)
(-313.326 3.74829 0)
(-320.925 4.95396 0)
(-325.213 1.1099 -3.72108e-18)
(-322.03 -3.36253 -3.60083e-18)
(-311.216 -6.25913 0)
(-295.125 -9.02666 2.91021e-18)
(-272.289 -11.9946 0)
(-243.883 -14.5395 -1.62664e-18)
(-210.429 -16.2078 0)
(-173.326 -17.0205 3.75038e-21)
(-133.689 -17.8699 8.77158e-19)
(-92.4008 -18.1554 0)
(-50.935 -17.7888 0)
(-10.3541 -17.0467 0)
(28.5966 -15.947 0)
(65.0698 -14.5564 0)
(98.5825 -12.9767 0)
(128.738 -11.2896 0)
(155.151 -9.47555 6.2337e-18)
(177.506 -7.57137 -6.51105e-18)
(195.6 -5.63803 0)
(209.455 -3.74762 0)
(219.252 -1.9887 0)
(225.235 -0.372156 0)
(227.661 1.12712 -1.31812e-17)
(226.762 2.51775 0)
(222.861 3.74213 1.23257e-17)
(216.311 4.81628 -1.17705e-17)
(207.348 5.81769 0)
(196.239 6.70114 0)
(183.232 7.46934 0)
(168.53 8.16047 9.04388e-18)
(152.276 8.79438 8.29194e-18)
(134.596 9.37413 0)
(115.617 9.89455 6.77331e-18)
(95.4322 10.3628 6.02037e-18)
(74.123 10.7822 -5.27824e-18)
(51.7517 11.1298 0)
(28.4127 11.3373 0)
(4.33061 11.3467 -3.18832e-18)
(-20.4476 11.3685 0)
(-45.9537 11.4267 0)
(-72.3105 11.4626 0)
(-99.4322 11.402 0)
(-127.049 11.1852 3.96689e-19)
(-154.833 10.7937 -4.34609e-20)
(-182.44 10.1211 0)
(-209.193 8.99058 -8.11216e-19)
(-234.026 7.24278 0)
(-255.405 4.64357 0)
(-271.081 0.892911 -1.6851e-18)
(-278.159 -4.26664 0)
(-273.055 -11.4797 -2.09609e-18)
(-251.454 -22.4961 0)
(-206.505 -36.4495 0)
(-134.902 -38.5777 -2.29195e-18)
(-73.1276 -15.3571 0)
(-39.4584 9.67313 -6.82093e-19)
(-26.4612 21.3519 0)
(-24.9694 20.9807 0)
(-27.6363 14.4969 0)
(-30.2059 8.02097 1.54023e-19)
(-31.226 3.6809 0)
(-29.0963 0.75538 4.52771e-19)
(-22.3576 -1.34676 0)
(-12.581 -2.57194 0)
(-1.19183 -3.4114 0)
(9.90386 -3.89157 0)
(16.6007 -4.14918 0)
(20.9894 -3.34579 0)
(16.125 -2.32731 0)
(9.25991 -0.45215 -3.66604e-18)
(-11.2776 1.75894 0)
(-31.9205 -1.94094 0)
(-0.967871 0.554437 -5.63038e-18)
(-2.06905 0.192862 5.59806e-18)
(-2.49952 1.35165 0)
(-3.26971 2.59455 -3.6681e-18)
(-6.79143 6.61523 0)
(-12.4658 11.644 -1.78122e-18)
(-19.4386 15.9579 3.50364e-18)
(-26.9771 19.335 3.44189e-18)
(-35.0024 21.7371 0)
(-43.3845 22.7738 3.33842e-18)
(-51.7955 22.5379 1.63537e-18)
(-59.8461 21.5654 0)
(-67.4946 20.1574 0)
(-74.726 18.3358 0)
(-81.4718 16.2723 0)
(-87.4646 14.247 1.59903e-18)
(-92.805 11.948 0)
(-97.2098 9.49797 -3.2259e-18)
(-100.714 7.13578 0)
(-103.333 4.91718 0)
(-105.151 2.8154 3.22616e-18)
(-106.18 0.813924 0)
(-106.463 -1.20801 -3.22799e-18)
(-105.864 -3.34084 1.61999e-18)
(-104.3 -5.63621 -1.62116e-18)
(-101.978 -7.96795 1.61992e-18)
(-98.7139 -9.65781 1.61514e-18)
(-94.9644 -10.9146 0)
(-90.6016 -11.861 0)
(-85.7075 -12.343 -1.60522e-18)
(-80.4576 -12.2389 1.59161e-18)
(-74.8604 -11.5223 0)
(-69.6 -9.61603 0)
(-64.5227 -6.86556 -1.58669e-18)
(-59.5945 -3.4188 0)
(-54.9283 0.670304 0)
(-50.8984 5.07465 1.58561e-18)
(-48.1197 9.22795 0)
(-46.4285 12.0077 -1.58787e-18)
(-46.3073 12.4895 3.16519e-18)
(-46.6874 7.90265 0)
(-46.9065 -4.41535 0)
(-43.3207 -24.3967 6.21964e-18)
(-36.3587 -62.6766 6.17103e-18)
(-18.9072 -95.6965 6.19555e-18)
(1.31126 -113.228 -2.58154e-18)
(71.5278 -113.928 3.7805e-18)
(125.891 -34.8499 1.02151e-17)
(125.731 54.2861 -5.81847e-18)
(102.316 49.5664 -2.8903e-18)
(123.002 -19.0776 0)
(203.303 -82.8395 2.92024e-18)
(258.951 -104.901 -3.12478e-18)
(281.829 -84.514 0)
(274.928 -15.5533 0)
(253.25 12.3158 0)
(233.464 30.4666 3.10167e-18)
(202.468 43.3597 0)
(179.872 41.9526 -6.36007e-18)
(156.896 43.0148 0)
(136.182 44.5684 -6.18469e-18)
(117.696 42.0873 0)
(102.068 35.1095 5.82001e-18)
(91.644 23.3583 0)
(86.0794 8.94649 -5.35968e-18)
(83.5464 -4.69667 2.55572e-18)
(82.9818 -13.7191 0)
(83.3596 -17.9865 4.20089e-18)
(93.5838 -21.8612 1.7722e-18)
(119.384 -26.2839 1.49337e-18)
(147.19 -22.2351 0)
(163.569 -6.33785 7.69917e-19)
(161.953 25.931 6.45495e-19)
(136.389 55.4071 0)
(99.5317 77.2779 -4.14534e-19)
(58.5879 89.4969 9.08827e-19)
(7.67525 92.857 0)
(-27.2809 82.9855 1.01679e-18)
(-61.2337 58.5831 0)
(-83.1275 23.8698 -4.63253e-18)
(-82.4741 -15.5801 0)
(-54.2402 -60.3742 3.88778e-18)
(3.43655 -107.672 1.01113e-18)
(96.003 -145.504 -1.62434e-18)
(198.844 -160.48 -2.80785e-18)
(296.832 -130.566 2.49783e-18)
(345.902 -83.8218 0)
(378.368 -32.039 0)
(415.846 -56.8677 0)
(470.054 -91.2661 -6.37724e-18)
(422.984 -51.1993 -2.10993e-18)
(335 80.1583 3.24781e-18)
(268.548 139.613 0)
(165.865 175.649 5.59964e-18)
(91.7248 160.473 -7.65599e-18)
(24.3495 106.893 -7.05896e-18)
(6.4462 79.1514 0)
(-31.9467 53.1017 0)
(-50.061 37.129 0)
(-75.5217 32.6008 -2.50279e-18)
(-101.189 26.9866 0)
(-127.243 26.6006 9.75345e-19)
(-157.75 24.9854 -1.26951e-18)
(-188.338 22.766 2.5324e-18)
(-220.923 19.5153 0)
(-245.942 15.1403 2.74433e-18)
(-263.024 10.9561 0)
(-271.05 6.14485 6.56153e-18)
(-272.436 -1.10707 -3.42192e-18)
(-268.711 -9.9789 -3.45101e-18)
(-258.747 -18.3927 0)
(-241.59 -26.3434 -7.68941e-18)
(-218.891 -33.6654 4.20092e-18)
(-190.525 -40.0253 1.31702e-18)
(-157.698 -45.2337 0)
(-121.33 -48.7417 -1.3137e-19)
(-82.3543 -50.7655 -2.46342e-18)
(-42.3492 -51.4004 0)
(-2.08594 -50.5111 -4.67045e-18)
(37.4923 -48.4682 -6.1295e-18)
(75.3423 -45.5852 -7.47437e-18)
(110.765 -41.9435 0)
(143.512 -37.9173 0)
(172.903 -33.5098 0)
(198.208 -28.642 5.63157e-18)
(219.265 -23.5314 5.88565e-18)
(236.16 -18.5162 0)
(248.96 -13.7131 1.22784e-17)
(257.812 -9.24206 1.22958e-17)
(262.82 -5.08927 0)
(264.274 -1.29147 1.18816e-17)
(262.468 2.10924 2.32011e-17)
(257.704 5.13404 -1.11078e-17)
(250.265 7.75981 -1.07424e-17)
(240.42 10.0688 0)
(228.516 12.0807 0)
(214.722 13.829 0)
(199.226 15.3812 -8.16278e-18)
(182.182 16.7633 7.63976e-18)
(163.737 17.9958 1.37766e-17)
(143.996 19.114 -6.13357e-18)
(123.036 20.134 5.62287e-18)
(100.925 21.0748 4.81639e-18)
(77.7219 21.9501 0)
(53.4688 22.7391 0)
(28.1414 23.4104 -3.09869e-18)
(1.77471 24.0469 0)
(-25.5302 24.7173 0)
(-53.7675 25.3659 2.90068e-18)
(-82.9551 25.8574 0)
(-112.899 25.9875 6.71463e-19)
(-143.315 25.883 -8.38924e-20)
(-173.927 25.4376 0)
(-204.195 24.2791 -4.08123e-19)
(-233.238 22.0266 0)
(-259.983 18.2299 0)
(-283.126 12.4337 1.43102e-18)
(-300.779 4.40304 -3.21907e-18)
(-310.774 -5.91579 1.90226e-18)
(-311.53 -18.4897 0)
(-304.983 -30.2609 0)
(-302.03 -37.9451 -1.8832e-18)
(-290.467 -39.0002 0)
(-247.481 -37.9822 -2.39431e-18)
(-178.994 -30.0956 0)
(-102.171 -20.8412 0)
(-33.6764 -10.5525 0)
(18.6254 -4.00277 -3.38888e-19)
(55.0603 -2.60452 0)
(80.9282 -4.05978 -4.48621e-19)
(99.6692 -6.05329 0)
(112.131 -7.89832 0)
(120.954 -8.37485 3.18226e-18)
(126.126 -6.44479 -3.76683e-18)
(124.572 -2.98856 0)
(115.462 1.59802 0)
(99.1252 6.39081 0)
(75.4095 11.8113 1.27224e-17)
(45.8492 16.9869 0)
(9.02848 14.4703 -6.45926e-18)
(-1.16824 5.24045 4.26623e-21)
(-1.44862 3.30211 -7.45705e-18)
(-1.77308 3.27051 0)
(-6.86899 10.0167 7.2434e-18)
(-14.707 19.4619 0)
(-23.9813 27.9737 0)
(-33.8075 33.8187 1.36592e-20)
(-43.8944 37.4428 -3.31853e-18)
(-53.9437 39.5557 -3.27913e-18)
(-63.7338 40.3744 -3.20682e-18)
(-73.4036 39.9315 0)
(-82.8324 38.4036 0)
(-91.8358 36.1237 3.21858e-18)
(-100.098 33.2762 6.44573e-18)
(-107.875 30.728 -6.45562e-18)
(-114.436 27.7879 0)
(-119.862 23.7287 -6.48147e-18)
(-124.21 19.2425 3.26643e-18)
(-127.118 14.4616 0)
(-128.722 9.68005 -6.58893e-18)
(-129.17 5.06939 -3.31455e-18)
(-128.434 0.333639 6.61085e-18)
(-126.445 -4.26218 3.33772e-18)
(-123.607 -8.40656 0)
(-120.09 -12.0017 -6.66661e-18)
(-116.709 -14.1566 -6.62005e-18)
(-113.054 -15.9544 0)
(-108.649 -18.1411 -6.4765e-18)
(-104.211 -19.7997 0)
(-99.7138 -20.7585 -6.42659e-18)
(-95.193 -21.0667 -3.2002e-18)
(-90.4608 -20.5048 0)
(-85.8191 -19.4435 0)
(-81.1003 -17.3037 0)
(-75.4722 -14.0487 0)
(-69.3166 -9.72701 0)
(-62.7556 -4.41585 0)
(-56.0592 1.11217 -6.14374e-18)
(-49.5079 5.69138 9.22734e-18)
(-43.5621 7.37735 0)
(-37.9829 3.45273 0)
(-34.9349 -8.45914 0)
(-33.4354 -31.7579 2.31043e-19)
(-35.1955 -70.2148 -6.03027e-18)
(-34.9105 -117.534 -1.23122e-17)
(-24.6845 -162.464 1.21055e-17)
(17.4718 -175.807 6.00818e-18)
(31.1919 -55.4207 -6.43911e-18)
(65.241 50.3421 2.0724e-19)
(105.344 -29.9737 -5.6398e-18)
(179.592 -123.169 0)
(264.261 -164.904 -6.03426e-18)
(278.424 -140.905 -2.92376e-19)
(278.426 -69.9256 0)
(271.576 -0.267644 0)
(253.973 46.1709 6.66912e-18)
(220.041 73.3737 0)
(184.224 78.9147 0)
(153.518 73.6218 -6.81594e-18)
(127.673 69.6639 -1.31066e-17)
(108.279 66.6897 6.19143e-18)
(92.2402 60.8869 0)
(79.3645 49.0008 -5.82795e-18)
(69.3873 32.242 0)
(61.3559 16.0869 -5.5015e-18)
(54.1275 4.69445 -4.907e-18)
(48.6226 -5.32804 8.94356e-18)
(51.7694 -18.3041 3.92826e-18)
(74.257 -43.6657 0)
(115.613 -79.452 -4.96272e-18)
(149.49 -80.1293 0)
(154.691 -31.6807 -4.83226e-18)
(139.281 43.3395 -2.26352e-18)
(106.221 91.0515 -9.93663e-19)
(74.5526 120.378 4.7222e-19)
(40.9132 138.521 -2.13467e-18)
(6.09711 139.168 0)
(-20.5056 117.529 0)
(-45.6456 80.6489 7.28663e-18)
(-51.6452 26.1143 1.20143e-17)
(-36.0214 -44.4038 0)
(5.317 -117.388 -2.72751e-18)
(63.8742 -183.566 0)
(142.557 -241.211 9.81711e-18)
(235.095 -248.681 -2.88818e-18)
(330.3 -231.197 1.37916e-18)
(287.212 -83.0045 -1.07632e-17)
(346.379 -53.5846 0)
(358.518 -88.3052 7.31724e-18)
(290.041 9.01759 -2.76422e-18)
(202.052 84.5695 0)
(149.587 171.718 0)
(112.427 221.12 0)
(89.999 220.043 -1.26376e-17)
(95.399 191.818 0)
(82.0972 141.33 0)
(69.4187 108.262 0)
(43.2255 83.117 0)
(9.89555 69.4255 0)
(-24.7891 62.6392 -5.36911e-18)
(-62.2127 58.6233 0)
(-99.1398 56.9091 -1.83018e-18)
(-134.884 54.6394 1.19083e-19)
(-167.348 50.5411 -1.66624e-18)
(-196.164 43.8349 0)
(-220.271 34.6224 -4.19352e-18)
(-237.414 24.0559 0)
(-248.362 12.3566 -5.41169e-18)
(-252.161 -0.630606 5.42027e-18)
(-249.572 -14.5666 1.7238e-17)
(-240.214 -28.2546 0)
(-223.793 -41.3764 1.39417e-17)
(-201.401 -53.1024 4.34034e-18)
(-173.389 -63.1142 0)
(-141.07 -71.3817 2.87449e-18)
(-105.01 -77.0022 1.37736e-19)
(-66.301 -80.0095 4.42101e-18)
(-26.3777 -81.0907 0)
(13.9729 -79.9838 4.41745e-18)
(53.9155 -76.8306 5.72577e-18)
(92.0411 -72.3307 2.06996e-17)
(127.99 -66.7634 0)
(161.188 -60.0765 0)
(190.503 -52.4932 0)
(215.433 -44.4622 1.05153e-17)
(236.404 -36.4503 0)
(253.332 -28.5107 0)
(266.151 -20.7955 -1.12952e-17)
(275.03 -13.5751 -1.1314e-17)
(280.032 -6.90386 0)
(281.578 -0.83796 0)
(279.904 4.59265 -2.13684e-17)
(275.329 9.4023 0)
(268.143 13.5983 1.96741e-17)
(258.653 17.2176 1.88083e-17)
(247.137 20.3519 0)
(233.777 23.0746 0)
(218.765 25.4673 -1.52925e-17)
(202.269 27.5764 1.21466e-19)
(184.43 29.4367 1.14165e-19)
(165.332 31.1112 0)
(145.047 32.6334 -2.04116e-17)
(123.618 34.0277 0)
(101.091 35.3148 0)
(77.5001 36.497 0)
(52.7764 37.5766 5.37924e-18)
(26.8893 38.6147 0)
(-0.0612049 39.6612 -6.98621e-18)
(-28.0399 40.7219 -2.53897e-18)
(-57.1596 41.7004 0)
(-87.4477 42.161 -9.82527e-19)
(-118.82 42.0916 0)
(-151.101 41.4739 0)
(-183.814 39.7596 2.47869e-18)
(-216.098 36.7541 -2.62355e-18)
(-246.947 32.0006 0)
(-275.163 24.7485 -4.53461e-18)
(-298.948 13.7742 2.72221e-18)
(-316.064 -1.32973 0)
(-325.366 -18.2786 0)
(-328.011 -31.9208 0)
(-325.959 -39.2082 9.37862e-18)
(-310.492 -46.298 0)
(-275.498 -53.9925 3.20821e-18)
(-227.616 -57.2421 0)
(-167.991 -56.0751 0)
(-97.5648 -50.1313 0)
(-23.887 -40.3737 0)
(42.9659 -30.3928 0)
(95.8654 -22.7862 0)
(133.596 -18.174 -3.26444e-18)
(158.44 -14.7803 0)
(170.326 -10.4053 -3.8356e-18)
(171.494 -4.48633 1.33226e-17)
(164.508 2.38488 0)
(149.606 10.1246 0)
(127.576 17.9733 -9.68161e-18)
(98.634 25.7598 -8.76506e-18)
(64.2969 32.4062 8.01153e-18)
(24.591 31.7287 6.61585e-18)
(1.0514 6.14629 1.12519e-17)
(1.94638 1.50874 1.1122e-17)
(-6.01495 14.0277 7.26625e-18)
(-17.4885 30.1226 3.55012e-18)
(-30.5931 43.1632 0)
(-43.3794 51.8592 -6.71531e-18)
(-55.6423 57.2846 3.30864e-18)
(-67.6821 60.5655 0)
(-79.1663 62.1855 3.24619e-18)
(-90.0608 62.412 0)
(-100.056 61.479 -6.55706e-18)
(-108.816 59.2296 0)
(-116.016 55.4875 -3.28149e-18)
(-121.307 49.8471 -6.62229e-18)
(-124.344 43.0512 6.71403e-18)
(-125.47 35.328 0)
(-124.34 26.2933 6.86507e-18)
(-121.593 17.707 0)
(-118.039 10.722 0)
(-114.333 4.89624 6.91711e-18)
(-110.124 -0.148711 0)
(-105.953 -4.80197 -1.45129e-20)
(-101.589 -9.19729 0)
(-97.0661 -13.1809 0)
(-92.7313 -16.4223 8.57411e-21)
(-88.4715 -19.3221 6.28114e-18)
(-85.0923 -22.4829 6.22728e-18)
(-82.2725 -24.6923 6.21276e-18)
(-80.2274 -26.1299 0)
(-78.6924 -26.7126 1.23931e-17)
(-77.8413 -26.4437 0)
(-77.5262 -25.7298 6.20003e-18)
(-77.1067 -24.7188 0)
(-76.4594 -22.9977 0)
(-75.2476 -20.7375 -6.2587e-18)
(-72.8881 -17.7807 0)
(-69.0376 -13.8936 6.24098e-18)
(-63.8385 -9.38492 -8.7659e-20)
(-57.6279 -5.29811 -1.22685e-17)
(-51.2006 -3.19763 1.23666e-17)
(-45.3457 -5.52944 0)
(-41.1174 -14.4179 0)
(-38.5419 -34.2437 6.64373e-18)
(-40.2247 -67.9366 0)
(-44.1459 -117.463 6.12914e-18)
(-48.8891 -181.748 -6.03881e-18)
(-31.2325 -220.331 -5.87783e-18)
(-3.48263 -107.143 0)
(42.765 -12.646 5.58482e-18)
(91.7556 -134.435 5.57713e-18)
(177.66 -236.742 -1.22103e-17)
(251.315 -209.839 6.03498e-18)
(256.037 -140.789 6.31984e-18)
(267.964 -66.1253 0)
(273.991 10.4819 0)
(258.76 83.5607 -6.70451e-18)
(226.186 124.741 0)
(184.452 129.064 0)
(144.027 116.476 1.29507e-17)
(111.412 101.676 1.29483e-17)
(87.7759 90.4308 0)
(70.3255 79.0979 0)
(55.9147 63.1832 0)
(43.436 45.7667 0)
(31.2706 30.3119 1.03058e-17)
(20.8897 13.5428 -9.50921e-18)
(15.7034 -8.04113 -8.33199e-18)
(25.7639 -45.0759 -1.43795e-17)
(56.6623 -108.211 0)
(82.4212 -141.749 3.95181e-19)
(81.78 -85.838 0)
(87.6897 13.3666 2.90042e-18)
(74.6335 84.3748 7.75162e-19)
(42.7242 128.143 7.34488e-19)
(28.1583 154.503 -2.40553e-19)
(13.0308 170.647 1.35816e-19)
(-5.45236 168.394 0)
(-14.8589 139.759 -7.03383e-18)
(-20.7641 89.2766 -7.47229e-18)
(-16.2717 16.3213 -1.93804e-17)
(4.34703 -75.2634 0)
(54.4096 -169.969 6.8935e-18)
(110.825 -258.502 0)
(181.25 -337.161 -1.45967e-17)
(260.392 -372.497 6.31756e-18)
(181.21 -175.774 -3.35735e-18)
(189.777 -82.8732 1.00399e-17)
(227.078 -77.3362 1.75146e-17)
(157.992 -1.16582 -7.39669e-18)
(124.52 61.7039 6.64726e-18)
(72.9146 126.491 0)