/*--------------------------------*- C++ -*----------------------------------*\
| =========                 |                                                 |
| \\      /  F ield         | OpenFOAM: The Open Source CFD Toolbox           |
|  \\    /   O peration     | Version:  2112                                  |
|   \\  /    A nd           | Website:  www.openfoam.com                      |
|    \\/     M anipulation  |                                                 |
\*---------------------------------------------------------------------------*/
FoamFile
{
    version     2.0;
    format      ascii;
    arch        "LSB;label=32;scalar=64";
    class       volScalarField;
    location    "0.14";
    object      nut;
}
// * * * * * * * * * * * * * * * * * * * * * * * * * * * * * * * * * * * * * //

dimensions      [0 2 -1 0 0 0 0];

internalField   nonuniform List<scalar> 
12225
(
6.55175e-06
1.93071e-05
3.10882e-05
3.40532e-05
3.38028e-05
3.2931e-05
3.13999e-05
2.98526e-05
2.84105e-05
2.70887e-05
2.5936e-05
2.48818e-05
2.40224e-05
2.31858e-05
2.25815e-05
2.19341e-05
2.1467e-05
2.11423e-05
0.000300074
7.27672e-05
4.40033e-05
3.66788e-05
3.29725e-05
3.06756e-05
2.87625e-05
2.75168e-05
2.65505e-05
2.57317e-05
2.52781e-05
2.49078e-05
2.47506e-05
2.46651e-05
2.47584e-05
2.48728e-05
2.50739e-05
2.51987e-05
0.00246519
0.00116533
0.000460291
0.000243465
0.000165616
0.000121979
9.93876e-05
8.36361e-05
7.41651e-05
6.62769e-05
6.13489e-05
5.69177e-05
5.40396e-05
5.13355e-05
4.97136e-05
4.78097e-05
4.70591e-05
4.59002e-05
0.00261883
0.00287094
0.00319009
0.00185518
0.00129624
0.00088295
0.000713783
0.000549883
0.000474602
0.000395744
0.000356577
0.000312149
0.000289615
0.00026244
0.000248692
0.000228003
0.000222197
0.000208369
0.00280438
0.00287639
0.00290923
0.00317605
0.00365588
0.00359963
0.00300367
0.00237807
0.00211376
0.00177912
0.00161881
0.00141664
0.00131747
0.00118988
0.00112179
0.00102407
0.000997674
0.00092074
0.00326019
0.0031269
0.00282171
0.00289984
0.00316658
0.00364441
0.00430852
0.00519576
0.00516531
0.00452142
0.0041989
0.00379851
0.00358038
0.00329891
0.0031346
0.00291133
0.00283577
0.00264801
0.00379252
0.00364045
0.00315054
0.00290698
0.00288344
0.00307771
0.00346711
0.00407562
0.00483801
0.00568443
0.00662811
0.00657962
0.00628515
0.00593863
0.0057217
0.00543497
0.00533122
0.00503556
0.00439328
0.00417085
0.00356874
0.00319959
0.00301466
0.00296499
0.00304615
0.00327691
0.00369956
0.00427408
0.00500169
0.00583126
0.00670925
0.00770242
0.00783732
0.00758247
0.00747065
0.00721291
0.00510867
0.00475003
0.00401421
0.00357099
0.00330899
0.00314884
0.0030779
0.003091
0.00320394
0.00342179
0.00375623
0.0042422
0.004847
0.0056201
0.00651611
0.00757228
0.0087562
0.00859575
0.00597243
0.00544938
0.00454056
0.00398278
0.00365627
0.00344937
0.00332175
0.00324337
0.00320861
0.00323265
0.00331554
0.00347406
0.00371488
0.00406202
0.00455821
0.00522864
0.00610578
0.00716425
0.00705684
0.00628393
0.00515969
0.00444847
0.00404116
0.00379212
0.00363778
0.00353598
0.00346196
0.00341419
0.00338515
0.0033819
0.00341844
0.00350159
0.00365227
0.00390103
0.00427363
0.00484246
0.00834415
0.00716635
0.0058055
0.00492421
0.00442839
0.00413267
0.00395164
0.00383953
0.00376422
0.0037106
0.0036645
0.00362089
0.00358403
0.00355595
0.00354676
0.00358191
0.00366989
0.00386492
0.00946678
0.0082132
0.00652899
0.0054425
0.00484271
0.00449294
0.0042783
0.00414693
0.00406623
0.00401768
0.00398503
0.00395703
0.00392778
0.00389321
0.00385275
0.00381928
0.00379396
0.00381341
0.00946615
0.00946676
0.00747417
0.0061122
0.00536174
0.00493666
0.00467717
0.00451645
0.00441947
0.00436584
0.00433968
0.00433013
0.0043285
0.00432727
0.00431924
0.00430511
0.00427712
0.00424899
0.00946579
0.00946575
0.00863881
0.00697322
0.00600964
0.00547797
0.00515831
0.00495914
0.00483842
0.00477132
0.0047405
0.00473576
0.0047495
0.00477568
0.00480838
0.00484462
0.0048705
0.00488644
0.00946592
0.00946438
0.00946514
0.00792936
0.00676668
0.00610921
0.00571482
0.00546757
0.00531747
0.00523446
0.00519733
0.00519331
0.0052142
0.00525514
0.00531293
0.00538554
0.0054596
0.00553835
0.00946578
0.00946392
0.00946403
0.00877893
0.00751712
0.00675172
0.00628777
0.00599315
0.00581353
0.00571642
0.00567738
0.0056803
0.00571477
0.00577442
0.00585514
0.0059543
0.00606226
0.00618846
0.00946559
0.00946386
0.00946333
0.0093741
0.008063
0.00723838
0.00673912
0.00642042
0.00622657
0.00612601
0.00609375
0.00611216
0.00616959
0.00625783
0.00637068
0.00650434
0.00665502
0.00683581
0.0094656
0.00946401
0.00946344
0.00941661
0.00812755
0.00731614
0.00683394
0.00653349
0.00635809
0.00627768
0.00626875
0.00631483
0.00640598
0.00653602
0.00670168
0.00690335
0.0071453
0.00743739
0.00946591
0.00946434
0.0094646
0.00874904
0.0075691
0.00686192
0.00645438
0.00621533
0.00609238
0.00605728
0.00608849
0.00617108
0.0062973
0.00646241
0.00666391
0.00690436
0.00718904
0.00751135
0.00946598
0.00946544
0.00944041
0.00779105
0.00676814
0.00621561
0.00591019
0.00574344
0.00567187
0.00567186
0.00572425
0.00581232
0.00593333
0.00609046
0.00628673
0.00654034
0.00686768
0.00726205
0.00946626
0.00946691
0.00797612
0.00670922
0.00596386
0.00556014
0.00534023
0.00521893
0.00516338
0.00516781
0.00522388
0.00532057
0.005479
0.00571827
0.00605262
0.0065262
0.00713477
0.00781461
0.00861775
0.00783666
0.00666992
0.00577328
0.00522584
0.00491585
0.00474803
0.00466217
0.00465252
0.00473392
0.00490664
0.00518106
0.00561411
0.00620059
0.00693808
0.00777573
0.00875822
0.00937217
0.00673455
0.00642405
0.0055985
0.00492894
0.00452719
0.00433149
0.00427588
0.00434091
0.00456883
0.00493618
0.00545966
0.00616047
0.00697845
0.00797772
0.00904473
0.00896367
0.00885946
0.00878
0.00535654
0.00524984
0.00464611
0.00422938
0.0041091
0.00418086
0.00441759
0.00483107
0.00538672
0.00605139
0.00693635
0.00799923
0.00766616
0.00742555
0.00713665
0.0069316
0.00668071
0.0065073
0.00429654
0.00435113
0.00423984
0.00421836
0.00430629
0.00455159
0.0050327
0.00581198
0.00555531
0.00510788
0.00454353
0.00423988
0.00385259
0.00362847
0.00334374
0.0031775
0.00296366
0.00283893
0.003617
0.00414882
0.00431382
0.00454491
0.00364782
0.00288008
0.0021456
0.00182351
0.00147688
0.00130859
0.00111269
0.00101264
0.000891867
0.000827874
0.000748012
0.000704845
0.000649201
0.000618678
0.00302824
0.00274357
0.00137382
0.000765908
0.000481499
0.00035415
0.000269383
0.000222969
0.00018694
0.000165315
0.000146258
0.000134266
0.000122785
0.000115382
0.000107827
0.000102937
9.7666e-05
9.42746e-05
0.000547959
0.000163528
8.74624e-05
6.45275e-05
5.46405e-05
4.93268e-05
4.5904e-05
4.33941e-05
4.14672e-05
3.98177e-05
3.85913e-05
3.75414e-05
3.67072e-05
3.60141e-05
3.54894e-05
3.50578e-05
3.4769e-05
3.45526e-05
7.34159e-06
1.71905e-05
2.99268e-05
3.94327e-05
4.48829e-05
4.52965e-05
4.49861e-05
4.41997e-05
4.30109e-05
4.17593e-05
4.05218e-05
3.93418e-05
3.82323e-05
3.72079e-05
3.62571e-05
3.53927e-05
3.45616e-05
3.36407e-05
7.08297e-08
1.03298e-06
1.39134e-06
1.69301e-06
1.94814e-06
2.53065e-06
3.61417e-06
5.07697e-06
6.46809e-06
7.76793e-06
8.98944e-06
9.97917e-06
1.08776e-05
1.18177e-05
1.27564e-05
1.36764e-05
1.45751e-05
1.54472e-05
1.63358e-05
1.72065e-05
1.81133e-05
1.90124e-05
1.99336e-05
2.08669e-05
2.17962e-05
2.27463e-05
2.36709e-05
2.46039e-05
2.5495e-05
2.63808e-05
2.71943e-05
2.80266e-05
2.87116e-05
2.94213e-05
2.98583e-05
3.02423e-05
3.01876e-05
2.99119e-05
2.92394e-05
2.78361e-05
2.55838e-05
2.21432e-05
1.70967e-05
1.07685e-05
8.42449e-06
8.37589e-06
8.34816e-06
8.16775e-06
7.84808e-06
7.30979e-06
6.33404e-06
7.74982e-06
1.73866e-05
1.95601e-05
1.9496e-05
1.86226e-05
1.81673e-05
1.7791e-05
1.72461e-05
1.67088e-05
1.63665e-05
1.60118e-05
1.55216e-05
1.52517e-05
1.52722e-05
1.5661e-05
1.70433e-05
1.97422e-05
2.28308e-05
2.52188e-05
2.70429e-05
2.82653e-05
2.92492e-05
3.01962e-05
3.10788e-05
3.07914e-05
3.18984e-05
3.35486e-05
3.581e-05
3.58833e-05
3.5278e-05
3.33551e-05
2.8778e-05
2.0547e-05
1.21216e-05
1.06928e-05
1.08452e-05
1.09542e-05
1.09764e-05
1.04137e-05
9.4238e-06
9.14205e-06
8.93668e-06
1.15139e-05
2.92576e-05
4.58902e-05
5.51069e-05
6.13654e-05
6.61618e-05
6.9343e-05
7.18511e-05
7.34543e-05
7.45076e-05
7.40986e-05
7.34869e-05
7.29605e-05
7.25063e-05
7.15133e-05
7.05995e-05
6.99891e-05
6.92639e-05
6.86432e-05
6.80553e-05
6.74883e-05
6.6954e-05
6.64008e-05
6.5133e-05
6.37532e-05
6.23372e-05
6.08778e-05
5.9401e-05
5.79035e-05
5.63866e-05
5.48743e-05
5.33488e-05
5.18314e-05
5.03165e-05
4.88144e-05
4.73289e-05
4.58635e-05
4.4423e-05
4.30135e-05
4.16388e-05
4.03097e-05
3.90398e-05
3.78205e-05
3.66285e-05
3.5469e-05
3.4343e-05
3.3251e-05
3.21933e-05
3.11741e-05
3.01972e-05
2.92672e-05
2.84244e-05
2.78051e-05
2.81385e-05
2.90937e-05
3.01211e-05
3.11785e-05
3.22476e-05
3.33206e-05
3.43828e-05
3.54123e-05
3.63731e-05
3.72216e-05
3.79279e-05
3.84497e-05
3.876e-05
3.88263e-05
3.87333e-05
3.84004e-05
3.75425e-05
3.65419e-05
3.54183e-05
3.42555e-05
3.31237e-05
3.20566e-05
3.108e-05
3.01923e-05
2.94016e-05
2.86752e-05
2.80574e-05
2.74739e-05
2.70648e-05
2.66394e-05
2.64777e-05
2.62359e-05
2.63276e-05
2.57626e-05
8.95854e-08
2.98821e-07
7.62699e-07
1.49772e-06
3.32841e-06
7.23202e-06
1.45893e-05
2.52144e-05
3.7713e-05
5.1912e-05
6.537e-05
7.7867e-05
8.92699e-05
9.87438e-05
0.000106408
0.000113021
0.000118363
0.000123551
0.00012861
0.000133289
0.000138104
0.000142439
0.00014701
0.000150699
0.000154916
0.000157393
0.000160148
0.000160744
0.000160327
0.000158964
0.00015588
0.000152536
0.000142284
0.00012779
0.000108752
8.91331e-05
7.20202e-05
5.86066e-05
4.78826e-05
3.92135e-05
3.30247e-05
2.69881e-05
2.31079e-05
1.85598e-05
1.52598e-05
1.40191e-05
1.58161e-05
1.80081e-05
1.69498e-05
1.7433e-05
1.88437e-05
1.96049e-05
2.19721e-05
3.5247e-05
4.48255e-05
5.43911e-05
6.74188e-05
7.96162e-05
8.44012e-05
9.34885e-05
0.000104206
0.000111842
0.000119424
0.000129694
0.000142885
0.000158866
0.000174361
0.000180788
0.000161652
0.00013556
0.000114175
9.80931e-05
9.27867e-05
9.73249e-05
9.26551e-05
8.79998e-05
8.68272e-05
8.30683e-05
7.63375e-05
6.63148e-05
5.53805e-05
4.27962e-05
3.47885e-05
2.55987e-05
1.8144e-05
1.41607e-05
2.24208e-05
2.94127e-05
3.33848e-05
3.90753e-05
4.20686e-05
4.05102e-05
3.86662e-05
4.05093e-05
4.6854e-05
5.59323e-05
6.6077e-05
8.23164e-05
9.82387e-05
0.000124523
0.000150498
0.000191722
0.000232578
0.000283251
0.000329916
0.000372712
0.00040897
0.000434424
0.000451872
0.00046895
0.000485124
0.000501033
0.000516369
0.000531203
0.000545773
0.000559665
0.000573642
0.000586938
0.00059871
0.000610408
0.000620659
0.000630416
0.000639487
0.000648477
0.000656874
0.00066452
0.000671638
0.000678102
0.000684392
0.000690264
0.000695782
0.000700627
0.000705115
0.000709292
0.000712709
0.000715914
0.000719099
0.000722321
0.000725559
0.000728717
0.000731919
0.000735126
0.000738359
0.000741479
0.000744292
0.000746058
0.000745488
0.000744116
0.000743252
0.000742335
0.000741071
0.000739306
0.000737212
0.000734606
0.000730907
0.000724109
0.00071291
0.000696024
0.000673199
0.000642592
0.000597878
0.000526691
0.000404475
0.000272667
0.000192839
0.000146289
0.000119548
0.000104655
9.58722e-05
9.1466e-05
9.1679e-05
9.56559e-05
0.0001017
0.000116747
0.000131841
0.00015935
0.000180217
0.000211927
0.000233979
0.000202691
1.19928e-08
1.39325e-07
9.71831e-07
3.56443e-06
9.97356e-06
2.16499e-05
4.0225e-05
6.19739e-05
8.48527e-05
0.000103841
0.000118622
0.000130143
0.000139415
0.000147692
0.000156261
0.000156322
0.000154232
0.000155676
0.000160272
0.00016735
0.000176171
0.000186775
0.000200599
0.000216575
0.000235081
0.000252698
0.000260426
0.000262431
0.000262382
0.00025997
0.000255763
0.000246772
0.000237711
0.000224579
0.00020921
0.000191435
0.000166843
0.000144028
0.000121408
9.70642e-05
7.3799e-05
5.40369e-05
3.94597e-05
2.7169e-05
2.18659e-05
1.90029e-05
2.13715e-05
2.51142e-05
2.12961e-05
2.03064e-05
2.17717e-05
3.04968e-05
4.36679e-05
5.42862e-05
6.58393e-05
8.37048e-05
9.40741e-05
0.000100577
0.000111505
0.000123552
0.000136392
0.000150712
0.000165096
0.000180275
0.000194641
0.000205366
0.000199158
0.000184096
0.000133955
8.07368e-05
5.4257e-05
4.67495e-05
4.61383e-05
4.76221e-05
4.58993e-05
4.52584e-05
4.554e-05
4.71296e-05
4.94762e-05
5.38779e-05
5.89836e-05
5.72811e-05
4.43954e-05
3.45764e-05
2.09296e-05
2.27786e-05
4.99676e-05
4.97284e-05
4.67422e-05
4.30361e-05
4.38712e-05
4.40848e-05
4.89362e-05
6.0559e-05
8.71208e-05
0.000134877
0.000180663
0.000271709
0.000348752
0.000476989
0.000583762
0.000683797
0.00076455
0.000826477
0.000881478
0.000920709
0.000949424
0.000979344
0.00100674
0.00102982
0.00105062
0.00107057
0.00108818
0.00110409
0.00112019
0.00113047
0.00114184
0.00115127
0.00115812
0.00116339
0.00116655
0.00116737
0.00116847
0.00117065
0.00117165
0.00117042
0.00116812
0.00116461
0.00116088
0.00115729
0.00115235
0.0011481
0.00114242
0.00113748
0.0011317
0.0011258
0.00111996
0.00111402
0.00110808
0.00110198
0.00109603
0.00109017
0.0010845
0.00107915
0.00107432
0.00106964
0.00106588
0.00106249
0.00106115
0.001062
0.00106564
0.00107198
0.00108023
0.00109052
0.00110269
0.00111642
0.00112822
0.00113432
0.00113264
0.00113146
0.00113417
0.00112826
0.00108478
0.00100221
0.000884025
0.000737264
0.000585187
0.000468027
0.000390679
0.000351118
0.000338629
0.000339533
0.000354865
0.000402835
0.000458184
0.000517178
0.000580902
0.000635116
0.000701044
0.000681005
3.65458e-08
6.61502e-07
3.74146e-06
1.3685e-05
3.58568e-05
7.24459e-05
0.000106377
0.000129793
0.000145269
0.000153883
0.000160092
0.000165381
0.000171739
0.000180505
0.000191437
0.000202401
0.00021774
0.000238641
0.000261756
0.000284024
0.000303888
0.000319674
0.00033041
0.000339341
0.000347955
0.000346433
0.00034312
0.000338533
0.000331616
0.000323643
0.000314134
0.000303481
0.00029307
0.000277331
0.000265173
0.000247741
0.000235495
0.000213092
0.000187101
0.000157118
0.000129757
0.000101297
7.28105e-05
4.80012e-05
3.12308e-05
2.38829e-05
2.53141e-05
2.86421e-05
2.34021e-05
2.31267e-05
3.27841e-05
4.16257e-05
4.9479e-05
6.45587e-05
8.80112e-05
0.000110989
0.000128892
0.000139916
0.000146227
0.000157161
0.000173653
0.000192938
0.000214148
0.000235231
0.000237683
0.000223686
0.000199637
0.000153361
9.32169e-05
6.65672e-05
5.3297e-05
4.61348e-05
4.3031e-05
4.17309e-05
4.23758e-05
4.39686e-05
4.64397e-05
4.79351e-05
5.05902e-05
5.53234e-05
6.23529e-05
6.41097e-05
4.72709e-05
3.30219e-05
3.07384e-05
5.51585e-05
5.36721e-05
4.76678e-05
4.56741e-05
4.87408e-05
5.62503e-05
7.11843e-05
9.99529e-05
0.000161461
0.000234735
0.000352789
0.00046906
0.000624161
0.000731758
0.000838103
0.00091212
0.000975397
0.00102799
0.00107155
0.00110333
0.00113164
0.00116413
0.00118509
0.001205
0.00122562
0.00123996
0.00125498
0.0012671
0.00127696
0.00128776
0.00129456
0.001301
0.00130662
0.00131076
0.00131298
0.00131386
0.00131437
0.00131624
0.00131664
0.00131406
0.00131165
0.0013092
0.00130499
0.00130005
0.00129563
0.00128902
0.00128362
0.00127619
0.0012692
0.00126127
0.00125267
0.00124395
0.00123461
0.00122488
0.0012146
0.0012038
0.00119252
0.00118087
0.00116877
0.00115644
0.00114356
0.00113044
0.00111745
0.00110598
0.00109575
0.00108754
0.00108231
0.00108011
0.00108115
0.00108492
0.00109199
0.00110468
0.00112339
0.00115059
0.00117617
0.00119449
0.00120632
0.00121451
0.00122473
0.00121792
0.0011522
0.00104766
0.000935651
0.000827699
0.00074336
0.000693388
0.000676941
0.000684539
0.000721559
0.000776033
0.000829806
0.000882873
0.000924396
0.000967237
0.000965727
5.93748e-07
2.81974e-06
1.48266e-05
6.09671e-05
0.000112628
0.000142026
0.000155814
0.000163506
0.000169259
0.000178131
0.000193263
0.000214847
0.000241712
0.000272565
0.000305364
0.000338038
0.000365583
0.000384638
0.000395783
0.000398862
0.000386951
0.000374773
0.000365012
0.000357853
0.000355928
0.000361177
0.00036352
0.000356161
0.000347365
0.000336714
0.000325334
0.000313397
0.000301585
0.00029032
0.000278549
0.000266219
0.000251564
0.000239061
0.000229755
0.000212945
0.000184098
0.000153864
0.000118731
8.28401e-05
5.09222e-05
3.03275e-05
2.79163e-05
3.08297e-05
2.56076e-05
2.7738e-05
3.67417e-05
4.15338e-05
5.1476e-05
7.04105e-05
9.48607e-05
0.000123139
0.000155153
0.000175853
0.000185088
0.000196327
0.000216751
0.00024496
0.000270682
0.000271046
0.000260395
0.000241159
0.000203686
0.000146983
9.03937e-05
6.34879e-05
4.98491e-05
4.3308e-05
4.08686e-05
4.03656e-05
4.34686e-05
5.15571e-05
5.95033e-05
6.27263e-05
6.28686e-05
6.66498e-05
6.88348e-05
5.91878e-05
4.1713e-05
3.68365e-05
5.28118e-05
5.5902e-05
5.21196e-05
5.44465e-05
6.21027e-05
8.44373e-05
0.00011747
0.000176773
0.000267712
0.000384233
0.00051031
0.000643459
0.000764325
0.000874331
0.000962313
0.00103808
0.00109156
0.00112737
0.00116822
0.00119671
0.0012263
0.00125006
0.00126992
0.00128519
0.00129643
0.00130637
0.00131329
0.00131879
0.00132366
0.00132635
0.00133082
0.00133357
0.00131373
0.0012982
0.00128495
0.00127351
0.00126608
0.00126358
0.00126326
0.00126021
0.00125894
0.00126085
0.00126161
0.00126394
0.00126597
0.00126826
0.0012702
0.00127147
0.0012721
0.0012719
0.00127105
0.0012696
0.00126769
0.00126524
0.00126222
0.00125927
0.00125624
0.00125318
0.00125018
0.00124725
0.00124411
0.0012354
0.00122018
0.00120219
0.00118212
0.00116066
0.00113884
0.00111906
0.00110121
0.00108769
0.00107953
0.00107758
0.00108125
0.00108954
0.00110195
0.00111904
0.00113682
0.00116344
0.00119435
0.00121705
0.00122667
0.00123716
0.0012435
0.00118629
0.00110567
0.00102703
0.000967272
0.000936163
0.00093281
0.000951566
0.000980768
0.00100849
0.00103263
0.00105283
0.00106564
0.00106448
2.63814e-06
1.37388e-05
8.37941e-05
0.000139463
0.000161127
0.000171087
0.000187776
0.000212642
0.000241286
0.000272059
0.000303359
0.000332372
0.000359048
0.00038368
0.000405781
0.000425558
0.000441109
0.000451245
0.000455363
0.000431753
0.000400525
0.000369647
0.000339028
0.000311726
0.000293209
0.000284489
0.000287048
0.000304706
0.000321153
0.000312026
0.00030275
0.000293708
0.000284754
0.000275686
0.000268473
0.000259612
0.000248468
0.000236099
0.000223645
0.000220938
0.000212693
0.000191944
0.000161935
0.000122027
7.93832e-05
4.18647e-05
2.98508e-05
3.12051e-05
2.75518e-05
2.96636e-05
3.47383e-05
3.85791e-05
4.83102e-05
6.45075e-05
8.86039e-05
0.000122441
0.000165864
0.000208945
0.000230745
0.000243813
0.000268148
0.000305854
0.000331166
0.000330494
0.000320559
0.000299651
0.000253356
0.000184157
0.000117416
7.35331e-05
5.15125e-05
4.29252e-05
4.01731e-05
3.94958e-05
4.34022e-05
5.32252e-05
6.0301e-05
6.23016e-05
6.27903e-05
6.28929e-05
5.60264e-05
4.51207e-05
4.055e-05
4.80262e-05
5.77428e-05
6.23281e-05
7.17961e-05
8.92658e-05
0.000128466
0.000194805
0.00027005
0.00038262
0.000499456
0.000619076
0.000734946
0.000847396
0.000946293
0.0010299
0.00108682
0.00111779
0.00116419
0.00119656
0.00122407
0.00124748
0.00126487
0.00127603
0.00128223
0.00128525
0.00128397
0.00128028
0.00127592
0.00127103
0.00126775
0.00124976
0.00122302
0.00120316
0.00118829
0.00117758
0.0011707
0.00116585
0.00116464
0.00116779
0.0011727
0.00117457
0.00117858
0.00118295
0.00118676
0.00119104
0.00119425
0.00119667
0.00119802
0.0011981
0.00119697
0.00119462
0.00119114
0.00118694
0.00118249
0.00117826
0.00117443
0.00117113
0.00116873
0.00116765
0.00116774
0.00116909
0.00117161
0.00117507
0.00117946
0.00118525
0.00119221
0.00120044
0.00120747
0.00119336
0.00116609
0.00113716
0.00111042
0.00109095
0.00107891
0.00107557
0.00108102
0.00109435
0.00111318
0.00113543
0.00115183
0.00116743
0.00120947
0.0012435
0.00125588
0.00126078
0.00126543
0.00121351
0.00115722
0.00111932
0.00110361
0.00110377
0.00111453
0.00112457
0.00112524
0.00111821
0.0011146
0.00111026
3.32408e-06
6.61065e-05
0.000150733
0.000171556
0.000198797
0.000233502
0.000258949
0.000282914
0.000310962
0.000342588
0.000376826
0.000412484
0.000446515
0.000473841
0.000494075
0.000504817
0.000506628
0.000505075
0.000499551
0.000469254
0.000417839
0.000368465
0.000321717
0.000281812
0.000251662
0.000232992
0.000228403
0.0002368
0.000256939
0.000265378
0.0002579
0.000252919
0.00024985
0.000246856
0.000243665
0.000241097
0.000237779
0.000229588
0.000219488
0.000214015
0.000211819
0.000208022
0.000189083
0.000154519
0.000108954
5.92094e-05
3.26909e-05
3.13036e-05
2.81858e-05
2.96413e-05
3.34731e-05
3.48539e-05
4.01124e-05
5.238e-05
7.36572e-05
0.000108053
0.000160734
0.00022411
0.000274239
0.000296674
0.000320689
0.000364354
0.000409319
0.000418996
0.000418484
0.000406258
0.000373391
0.000301789
0.00020626
0.000117707
6.98485e-05
4.94748e-05
4.13498e-05
3.84095e-05
3.81553e-05
4.1934e-05
4.67014e-05
4.97828e-05
4.90163e-05
4.59789e-05
4.18617e-05
4.05881e-05
4.57639e-05
6.02528e-05
7.68487e-05
9.50808e-05
0.000125166
0.000192835
0.000272448
0.000364501
0.000463029
0.00057327
0.000678024
0.000784165
0.000883882
0.000977487
0.00103898
0.00107054
0.00111004
0.00114914
0.00117867
0.00120217
0.00122119
0.00123461
0.00124403
0.00125046
0.00125558
0.0012603
0.00126417
0.00126711
0.00126962
0.00126339
0.00122505
0.00119595
0.00117404
0.00115893
0.00115014
0.00114578
0.00114628
0.00114899
0.00115438
0.0011635
0.00117452
0.00118401
0.00119373
0.00120203
0.00120993
0.00121636
0.00122188
0.00122554
0.00122682
0.00122556
0.00122173
0.00121551
0.00120703
0.0011961
0.00118371
0.00117019
0.0011567
0.00114338
0.00113077
0.00111959
0.00110998
0.00110241
0.00109723
0.00109466
0.00109532
0.00109929
0.0011059
0.00111478
0.00112592
0.00114044
0.00115801
0.00117559
0.00116059
0.00113009
0.00110271
0.00108461
0.00107575
0.00107641
0.00108825
0.0011097
0.00113628
0.00115729
0.00116796
0.0011997
0.0012478
0.00127957
0.0012875
0.00129112
0.00128806
0.00125725
0.00123605
0.00122283
0.00121336
0.00119684
0.00117699
0.00114963
0.00113592
0.00112769
3.44111e-06
9.38084e-05
0.000182948
0.000221186
0.000249344
0.000269089
0.00030117
0.000343426
0.000389952
0.000431541
0.000467944
0.000499255
0.000522719
0.000538868
0.00054858
0.000551052
0.000548095
0.000542774
0.000528106
0.000502525
0.000474641
0.000428887
0.000365554
0.000314401
0.000274474
0.000247471
0.000238358
0.000241687
0.000253827
0.000251086
0.000241738
0.000233109
0.000225536
0.000219899
0.000218588
0.000217558
0.00021578
0.000213689
0.000210473
0.000208098
0.00020967
0.000211558
0.000202715
0.000177835
0.000135381
8.10139e-05
3.84329e-05
3.05846e-05
2.8724e-05
2.90195e-05
3.18231e-05
3.1957e-05
3.25355e-05
3.93785e-05
5.50291e-05
8.39585e-05
0.000136855
0.000215528
0.000298075
0.000350436
0.000381167
0.000432221
0.000503609
0.000540476
0.000548743
0.000541746
0.000520683
0.000454999
0.000344238
0.000222397
0.000121712
7.44763e-05
5.30871e-05
4.32376e-05
3.90954e-05
3.75054e-05
3.86528e-05
3.93821e-05
3.99109e-05
4.06992e-05
4.25319e-05
4.76173e-05
6.54468e-05
9.43546e-05
0.000121444
0.000166983
0.000248879
0.000333969
0.000427554
0.000523893
0.000614371
0.000705576
0.000804781
0.000893837
0.00097361
0.00101923
0.00104016
0.00108159
0.00111236
0.00113947
0.00116213
0.00117839
0.00119534
0.00121047
0.00122695
0.00124585
0.00126276
0.00127813
0.00129077
0.00130027
0.00130723
0.00127226
0.00124149
0.00121751
0.0011985
0.00118499
0.00117595
0.00117134
0.00117107
0.001175
0.00118278
0.00119438
0.0012091
0.00122583
0.00124354
0.00126052
0.00127591
0.00128912
0.00130021
0.00130916
0.00131545
0.00131912
0.00131963
0.00131639
0.00130927
0.00129732
0.00128148
0.00126171
0.00123969
0.00121624
0.00119221
0.00116874
0.00114596
0.00112435
0.00110423
0.001086
0.00107093
0.00105972
0.00105293
0.00105101
0.0010534
0.00106207
0.00107628
0.00109409
0.00111589
0.00113914
0.001127
0.00109772
0.00107734
0.00106984
0.00107203
0.00108586
0.00111166
0.00114234
0.00116548
0.00117621
0.00120522
0.00126003
0.001297
0.00131636
0.00131887
0.00132195
0.00130854
0.00128414
0.00125907
0.00123232
0.00120367
0.00117832
0.0011581
0.00114499
3.50439e-06
0.000119001
0.000216589
0.000252089
0.000289108
0.000330505
0.000377545
0.000418957
0.000462427
0.000508265
0.00055152
0.000587686
0.000621774
0.000649595
0.000666727
0.000668611
0.000660978
0.0006505
0.000627373
0.00058989
0.000544377
0.000490043
0.000432938
0.000377091
0.000334487
0.000303398
0.000282411
0.000266996
0.000259169
0.000253212
0.000244796
0.000234459
0.000224282
0.000213868
0.000204559
0.000199239
0.000195289
0.000193173
0.000192916
0.000196195
0.000203819
0.000210952
0.000211141
0.000193146
0.000157188
0.00010449
4.91236e-05
3.09943e-05
2.85162e-05
2.7613e-05
3.03196e-05
3.02487e-05
2.9683e-05
3.14155e-05
3.86889e-05
5.61986e-05
9.74129e-05
0.000175759
0.000284525
0.000383274
0.000436145
0.000492537
0.000583977
0.000663907
0.000681486
0.000683412
0.000673654
0.000638978
0.000547564
0.000414478
0.000267607
0.000147824
9.34367e-05
6.62565e-05
5.22824e-05
4.58797e-05
4.30668e-05
4.22342e-05
4.52842e-05
4.8812e-05
5.8963e-05
7.98122e-05
0.000117608
0.000164447
0.000216339
0.000303939
0.000392939
0.000474317
0.000559998
0.000648028
0.000719884
0.000807798
0.000890783
0.000946247
0.000972668
0.000986587
0.00101229
0.00103711
0.00106235
0.00108355
0.00110866
0.00113207
0.00115792
0.00118369
0.00120968
0.00123345
0.00125712
0.00128038
0.00130091
0.00131915
0.00133362
0.00134022
0.00131214
0.00129007
0.0012721
0.00125776
0.00124681
0.00123901
0.00123513
0.0012356
0.00124059
0.00124971
0.00126288
0.00127947
0.00129785
0.00131647
0.00133355
0.00134859
0.00136124
0.00137158
0.00137971
0.00138573
0.00138987
0.00139192
0.00139177
0.00138869
0.00138218
0.00137094
0.0013547
0.00133359
0.00130803
0.00127965
0.00125023
0.0012209
0.0011914
0.00116143
0.00113136
0.00110165
0.00107406
0.0010522
0.00103612
0.00102571
0.00102349
0.00103056
0.00104381
0.00106218
0.00108456
0.00110551
0.00107804
0.00105998
0.00105709
0.00106525
0.00108604
0.0011194
0.00115512
0.00117727
0.00118815
0.00122106
0.00127893
0.00131638
0.00133835
0.00134307
0.00134245
0.00132776
0.00129707
0.00126485
0.00123283
0.00120447
0.00118578
0.0011695
3.6269e-06
0.000130346
0.000228935
0.000270469
0.000331423
0.00037643
0.000431573
0.00049035
0.000556021
0.000622084
0.000677125
0.000725058
0.000762722
0.00079123
0.000813739
0.000826444
0.000821979
0.000805819
0.000771915
0.000726651
0.000671188
0.000606737
0.000532209
0.000452631
0.000376048
0.000318204
0.000283671
0.000266415
0.000258814
0.00025529
0.000251207
0.000245293
0.000236274
0.00022462
0.000211263
0.00020021
0.000194781
0.000191295
0.000190816
0.000194753
0.00020231
0.000212322
0.000216796
0.000204986
0.000175828
0.000128671
6.66576e-05
3.39526e-05
2.8919e-05
2.5109e-05
2.79914e-05
2.95895e-05
2.92986e-05
2.87766e-05
2.92119e-05
3.4164e-05
5.61293e-05
0.000113472
0.00022575
0.000373866
0.000482525
0.000541323
0.000626717
0.000727736
0.000782616
0.000795547
0.000796615
0.000786282
0.000743688
0.000653531
0.000521337
0.000368372
0.000232046
0.000153457
0.000112852
8.79316e-05
7.71002e-05
7.35136e-05
7.58931e-05
9.24536e-05
0.000116668
0.000163619
0.000228766
0.000285906
0.000352297
0.000442189
0.000519097
0.000577974
0.000653316
0.000723931
0.000783836
0.000852883
0.000895488
0.000899867
0.000919425
0.000935243
0.000958008
0.000978173
0.0010003
0.0010268
0.00105765
0.00109002
0.00112911
0.00117317
0.00121453
0.00125271
0.00128686
0.00131534
0.00133892
0.00135808
0.0013739
0.00138701
0.0013999
0.00137323
0.00135087
0.00133386
0.00132108
0.0013094
0.00130201
0.00129869
0.00129935
0.00130434
0.0013136
0.0013264
0.00134191
0.0013597
0.00137723
0.00139205
0.00140439
0.00141389
0.00142087
0.00142592
0.00142965
0.00143214
0.00143341
0.00143309
0.00143078
0.00142544
0.0014164
0.00140261
0.00138338
0.00135944
0.00133216
0.0013029
0.00127359
0.00124569
0.00121849
0.00119009
0.00115909
0.00112362
0.00108574
0.00104874
0.00101682
0.000994859
0.000987382
0.000991222
0.00100647
0.00102832
0.00105029
0.00104694
0.00103333
0.00103914
0.00105718
0.00108942
0.00113229
0.00117064
0.00119088
0.00120357
0.0012411
0.0013002
0.00133475
0.00135439
0.00135837
0.00135544
0.00133777
0.00130391
0.00126844
0.00123743
0.00121759
0.00119938
4.28026e-06
0.000131771
0.000246239
0.000300093
0.000367043
0.0004201
0.000496105
0.000575971
0.000650282
0.00070703
0.000750096
0.000787338
0.000817182
0.000845289
0.000868686
0.000887752
0.000901036
0.000900226
0.000883076
0.000852038
0.000788382
0.000719167
0.000635183
0.000558565
0.000473909
0.000393012
0.00032034
0.0002803
0.000262533
0.000256703
0.000253898
0.000252077
0.000250408
0.000247381
0.000240991
0.000228036
0.000214069
0.000206342
0.000202972
0.000204643
0.000209101
0.000216754
0.000222007
0.000217027
0.000194167
0.000153064
9.20412e-05
4.15581e-05
2.98817e-05
2.48964e-05
2.63757e-05
2.71464e-05
2.8864e-05
2.79216e-05
2.54215e-05
2.50013e-05
3.24888e-05
6.39544e-05
0.000146397
0.000303967
0.000484442
0.000589858
0.000659037
0.000755329
0.000832145
0.00087115
0.000903531
0.000914224
0.000905686
0.000873921
0.000792965
0.000674384
0.000529599
0.000387022
0.000294482
0.000243264
0.000209944
0.00019703
0.000200627
0.000225461
0.000270479
0.000328841
0.000373554
0.000401398
0.000444405
0.000491064
0.00053391
0.000574095
0.000637041
0.000696974
0.000764891
0.000842168
0.000849091
0.000859011
0.000880368
0.000897808
0.000921735
0.000952546
0.000988633
0.00103405
0.0010893
0.00115511
0.00122132
0.00127373
0.00131641
0.00135211
0.00138468
0.00141287
0.00144028
0.00146266
0.00148016
0.00149141
0.00149375
0.00148749
0.00144662
0.00141146
0.00138029
0.00135678
0.00133987
0.00132896
0.00132307
0.00132175
0.00132554
0.00133331
0.00134406
0.00135758
0.00137335
0.00139009
0.00140612
0.00141956
0.00143054
0.001439
0.0014457
0.00145127
0.00145605
0.00145993
0.00146269
0.0014629
0.00145903
0.00145016
0.00143546
0.00141543
0.00139113
0.00136389
0.00133613
0.00131006
0.00128556
0.00126103
0.00123462
0.00120308
0.00116671
0.00112504
0.00107741
0.0010271
0.000981108
0.000949297
0.00093796
0.000944641
0.000961392
0.000983987
0.00100595
0.00100513
0.00102468
0.001056
0.0010981
0.00114862
0.00118738
0.00120614
0.00122262
0.00126556
0.00132127
0.00134944
0.00136319
0.00136483
0.00136114
0.00134225
0.00130677
0.00127494
0.00125186
0.00123118
5.02058e-06
0.000130112
0.000261417
0.000325823
0.000387613
0.000459962
0.000545625
0.000622078
0.000684753
0.000729325
0.000768852
0.000803942
0.000836041
0.000866981
0.00089294
0.000915268
0.000930903
0.000939185
0.000939631
0.000924752