/*--------------------------------*- C++ -*----------------------------------*\
| =========                 |                                                 |
| \\      /  F ield         | OpenFOAM: The Open Source CFD Toolbox           |
|  \\    /   O peration     | Version:  2112                                  |
|   \\  /    A nd           | Website:  www.openfoam.com                      |
|    \\/     M anipulation  |                                                 |
\*---------------------------------------------------------------------------*/
FoamFile
{
    version     2.0;
    format      ascii;
    arch        "LSB;label=32;scalar=64";
    class       volScalarField;
    location    "0.03";
    object      k;
}
// * * * * * * * * * * * * * * * * * * * * * * * * * * * * * * * * * * * * * //

dimensions      [0 2 -2 0 0 0 0];

internalField   nonuniform List<scalar> 
12225
(
1.73052
1.95928
1.86285
1.71289
1.59636
1.48691
1.37988
1.2738
1.1679
1.06154
0.954136
0.845284
0.734996
0.623784
0.513048
0.40411
0.301277
0.199647
0.262175
0.157025
0.101378
0.0753297
0.0631417
0.0566571
0.0526038
0.0496951
0.0473813
0.0453889
0.0435428
0.0416928
0.0396895
0.0373876
0.0346704
0.0314809
0.0278541
0.0237967
0.325689
0.269167
0.220934
0.182104
0.151041
0.125952
0.105412
0.0883885
0.0741526
0.0621852
0.0521118
0.0436558
0.0366057
0.0307883
0.0260482
0.0222374
0.0192092
0.0168347
0.344703
0.310464
0.278225
0.249361
0.224027
0.201932
0.182632
0.165662
0.150601
0.137084
0.124807
0.113524
0.103059
0.093299
0.0841984
0.0757692
0.0680473
0.061138
0.350975
0.32528
0.300618
0.277707
0.256791
0.237869
0.220804
0.205399
0.191441
0.178726
0.167067
0.156298
0.146283
0.136912
0.128102
0.119798
0.111958
0.104601
0.353316
0.331456
0.310753
0.2914
0.273486
0.25701
0.241904
0.228064
0.215365
0.20368
0.192884
0.182864
0.173517
0.164755
0.156504
0.148709
0.141329
0.134378
0.354168
0.33403
0.315409
0.298169
0.282226
0.267508
0.253932
0.24141
0.229846
0.219145
0.209217
0.199976
0.191344
0.18325
0.175635
0.168446
0.161641
0.155237
0.354456
0.335029
0.317418
0.301342
0.286605
0.273057
0.260579
0.249065
0.23842
0.228555
0.219392
0.210857
0.202883
0.195412
0.188392
0.181775
0.175525
0.169662
0.354545
0.33538
0.318203
0.302697
0.288616
0.275766
0.263994
0.253173
0.243196
0.23397
0.225415
0.21746
0.210042
0.203105
0.1966
0.190485
0.184724
0.179339
0.35457
0.33549
0.318476
0.303212
0.289441
0.276954
0.26558
0.255177
0.245629
0.236834
0.228709
0.22118
0.214182
0.207661
0.201567
0.195858
0.190499
0.185508
0.354576
0.335521
0.31856
0.303384
0.28974
0.277415
0.266234
0.25605
0.246741
0.238201
0.230341
0.223087
0.216371
0.210137
0.204336
0.198922
0.193862
0.189169
0.354577
0.335527
0.31858
0.303431
0.289828
0.277561
0.266455
0.256363
0.247159
0.238739
0.231011
0.223899
0.217335
0.211261
0.205627
0.200388
0.195509
0.191
0.354577
0.335529
0.318584
0.303443
0.289855
0.277611
0.266537
0.256485
0.247333
0.238972
0.231314
0.224279
0.217802
0.211822
0.20629
0.201161
0.196399
0.19201
0.354577
0.335528
0.318584
0.303445
0.289861
0.277625
0.266564
0.25653
0.2474
0.239068
0.231444
0.224449
0.218017
0.212089
0.206615
0.201549
0.196855
0.192539
0.354576
0.335528
0.318583
0.303444
0.289862
0.277629
0.266573
0.256547
0.247428
0.239109
0.2315
0.224524
0.218114
0.212211
0.206764
0.201729
0.197069
0.19279
0.354576
0.335527
0.318583
0.303444
0.289863
0.277633
0.266581
0.256561
0.247448
0.239137
0.231538
0.224573
0.218175
0.212285
0.206853
0.201834
0.197191
0.192929
0.354576
0.335527
0.318582
0.303445
0.289866
0.27764
0.266593
0.256578
0.247473
0.23917
0.23158
0.224625
0.218237
0.212358
0.206936
0.201928
0.197297
0.193045
0.354575
0.335526
0.318583
0.303447
0.289872
0.277651
0.26661
0.256603
0.247506
0.239212
0.231632
0.224687
0.218309
0.212441
0.207029
0.202031
0.19741
0.193167
0.354575
0.335526
0.318584
0.303452
0.289882
0.277667
0.266634
0.256636
0.247549
0.239266
0.231697
0.224763
0.218396
0.212538
0.207137
0.202148
0.197535
0.193301
0.354574
0.335526
0.318587
0.303459
0.289894
0.277686
0.266661
0.256672
0.247594
0.23932
0.23176
0.224835
0.218477
0.212626
0.207233
0.202251
0.197643
0.193414
0.354574
0.335527
0.31859
0.303466
0.289907
0.277705
0.266686
0.256703
0.247631
0.239363
0.231808
0.224887
0.218533
0.212686
0.207294
0.202314
0.197707
0.193477
0.354574
0.335527
0.318592
0.303471
0.289913
0.277711
0.266691
0.256704
0.247626
0.23935
0.231785
0.224852
0.218485
0.212623
0.207216
0.202219
0.197595
0.193347
0.354573
0.335521
0.318576
0.303435
0.289847
0.277604
0.266531
0.256484
0.247338
0.238988
0.231346
0.224334
0.217887
0.211946
0.20646
0.201387
0.196689
0.19237
0.354558
0.335457
0.318415
0.303126
0.289343
0.276866
0.265535
0.255214
0.245791
0.237169
0.229263
0.221997
0.21531
0.209144
0.203449
0.198182
0.193305
0.18882
0.354452
0.335044
0.317498
0.301551
0.287015
0.273745
0.261622
0.250542
0.240408
0.231133
0.22264
0.214857
0.207717
0.201159
0.195122
0.189556
0.18442
0.179707
0.353855
0.333071
0.313682
0.295711
0.279172
0.264043
0.250266
0.237753
0.226405
0.216116
0.206786
0.198318
0.190622
0.183618
0.177239
0.171417
0.166095
0.161246
0.351187
0.325594
0.300953
0.278121
0.257448
0.238986
0.222619
0.208154
0.195377
0.184082
0.174077
0.165194
0.157284
0.150219
0.143887
0.138193
0.133056
0.128422
0.340519
0.298643
0.259499
0.225772
0.197632
0.174408
0.155242
0.139348
0.126076
0.114916
0.105466
0.097411
0.0905009
0.0845364
0.0793564
0.0748293
0.0708472
0.0673215
0.300261
0.202283
0.132805
0.0922629
0.0698616
0.0571207
0.049307
0.0440529
0.0401978
0.0371658
0.0346639
0.0325366
0.0306962
0.0290911
0.0276888
0.0264761
0.0254784
0.0247228
1.46366
1.8011
1.82004
1.74567
1.65075
1.55734
1.47134
1.39381
1.32459
1.26311
1.20868
1.16055
1.11803
1.08044
1.04714
1.01759
0.995263
0.979231
0.0561323
0.0558883
0.0595586
0.0512832
0.0387755
0.0340776
0.0410658
0.0547294
0.0744065
0.0988072
0.126792
0.163431
0.209953
0.264282
0.32216
0.367845
0.39455
0.397611
0.37453
0.32583
0.256011
0.174096
0.097429
0.036837
0.0252054
0.0369984
0.0424357
0.0412156
0.035034
0.0306125
0.0346836
0.0448963
0.0602309
0.0755568
0.0834219
0.0840483
0.0815003
0.0762687
0.0629799
0.0660685
0.157223
0.2858
0.431136
0.581926
0.728963
0.865263
0.986073
1.08864
1.17184
1.2358
1.28155
1.31066
1.32509
1.32691
1.31819
1.30094
1.277
1.25029
1.22137
1.19052
1.15782
1.12321
1.08642
1.04707
1.00468
0.958733
0.908777
0.854505
0.795867
0.733163
0.667102
0.598818
0.529818
0.461851
0.396729
0.336124
0.281398
0.233508
0.193009
0.160097
0.134393
0.109988
0.0871835
0.0664082
0.0482704
0.033856
0.0263134
0.032495
0.0438713
0.0564233
0.0692624
0.0819472
0.09421
0.105887
0.116885
0.127156
0.136688
0.145492
0.153681
0.162813
0.172758
0.182628
0.192019
0.200753
0.208757
0.216019
0.22255
0.228379
0.233542
0.23808
0.242033
0.245443
0.248351
0.250795
0.252809
0.254432
0.255597
0.256256
0.256427
0.256115
0.255326
0.254074
0.252392
0.250326
0.247943
0.245317
0.242531
0.239668
0.236798
0.233982
0.231265
0.22868
0.226246
0.223972
0.221859
0.219902
0.218094
0.216427
0.21489
0.213476
0.212177
0.210985
0.209893
0.208894
0.20798
0.207143
0.206375
0.205668
0.205013
0.204404
0.203835
0.203297
0.202788
0.202301
0.201833
0.201378
0.200934
0.200494
0.200054
0.199607
0.199147
0.198665
0.198149
0.197589
0.196967
0.196264
0.195455
0.194507
0.193379
0.192015
0.190607
0.189257
0.187704
0.185738
0.183156
0.179663
0.175044
0.168291
0.160874
0.143131
0.153353
0.0204161
0.0133027
0.00380136
0.00312846
0.00269892
0.00241155
0.00223658
0.00214957
0.00213294
0.00217715
0.00229744
0.00251927
0.00287145
0.00386828
0.0131512
0.0285985
0.0466263
0.0631223
0.0741801
0.0769118
0.0703375
0.0564672
0.0393243
0.0258994
0.0176088
0.0108784
0.00513693
0.00360842
0.00366831
0.00403196
0.00422959
0.00421513
0.00475712
0.0103511
0.0219018
0.0374637
0.0488521
0.0607779
0.0766458
0.0985043
0.118448
0.132934
0.140548
0.141179
0.135663
0.125413
0.112071
0.097253
0.0823865
0.0686171
0.0567783
0.0473893
0.0406852
0.0367093
0.0354697
0.0368748
0.0384775
0.0401913
0.0420547
0.0441016
0.0463578
0.0488386
0.0515463
0.0544688
0.057579
0.0608369
0.0641917
0.0675868
0.070963
0.0742614
0.0774212
0.0803751
0.0830391
0.0853042
0.0870335
0.0880742
0.0882853
0.0875756
0.08593
0.0833998
0.0800203
0.0759214
0.0712365
0.0660839
0.0605569
0.0548503
0.0502696
0.0462422
0.042498
0.0389959
0.0357111
0.0326257
0.0297277
0.0270095
0.0244673
0.0220993
0.0199046
0.0178788
0.0160268
0.0143489
0.0128421
0.0115054
0.0103372
0.00933249
0.00848191
0.00777224
0.00718748
0.00671038
0.00632385
0.00601192
0.00576043
0.00555724
0.00539223
0.00525711
0.00514541
0.0051102
0.00516196
0.005265
0.00539757
0.00554341
0.00568809
0.00581822
0.00592244
0.0059927
0.00602476
0.0060177
0.00597562
0.00590405
0.00580973
0.00569983
0.00558102
0.00545897
0.00533806
0.00522132
0.00511061
0.00500678
0.00491003
0.00482013
0.0047367
0.00465932
0.00458771
0.00452165
0.00446104
0.00440583
0.00435594
0.00431122
0.00427146
0.00423633
0.00420543
0.00417832
0.00415454
0.00413366
0.00411536
0.00409938
0.00408555
0.0040738
0.00406415
0.00405665
0.00405144
0.00404876
0.00404888
0.00405223
0.00405936
0.00407102
0.00408822
0.00411229
0.00414505
0.00418895
0.00424738
0.00432681
0.00443742
0.00458805
0.00479074
0.00506323
0.00542489
0.00591844
0.00651782
0.0074664
0.00797333
0.166998
0.0171504
0.00854214
0.00624899
0.00462154
0.00354099
0.00287622
0.00247579
0.00222515
0.00205226
0.00191755
0.00180187
0.0016968
0.00159837
0.0015057
0.00171421
0.0031727
0.00672909
0.0124943
0.0195067
0.0259183
0.0297096
0.0297021
0.0261545
0.0210182
0.0158077
0.0110169
0.00738074
0.00527381
0.0048733
0.00570619
0.00629015
0.0103053
0.0169066
0.0226008
0.0285038
0.0338045
0.0383627
0.042844
0.0471973
0.0506087
0.0518055
0.0509524
0.048865
0.0465531
0.0448657
0.0442635
0.0447684
0.0460836
0.0478058
0.0496064
0.0512981
0.0528099
0.0541346
0.0552919
0.0562571
0.0571251
0.0579263
0.0586941
0.0594662
0.0602826
0.0611822
0.0622
0.0633661
0.0647054
0.0662388
0.0679851
0.0699624
0.0721881
0.0746754
0.0774273
0.0804249
0.0836128
0.0868826
0.0900595
0.0929012
0.0951181
0.0964188
0.096573
0.0954699
0.0931446
0.0897642
0.0855794
0.0808586
0.0758338
0.070641
0.0655801
0.0613653
0.0574963
0.0539184
0.0506132
0.0475586
0.0447324
0.0421128
0.0396799
0.0374159
0.0353046
0.0333322
0.0314862
0.0297556
0.0281308
0.0266033
0.0251663
0.0238141
0.0225418
0.021345
0.0202199
0.0191628
0.0181703
0.0172389
0.0163655
0.015547
0.0147804
0.0140627
0.0133911
0.0127628
0.0121751
0.011625
0.0111089
0.0106234
0.0101651
0.00973119
0.00931924
0.00892739
0.00855429
0.00819826
0.00785845
0.00753451
0.00722632
0.00693368
0.00665618
0.00639314
0.0061436
0.0059064
0.00568025
0.00546389
0.00525611
0.0050559
0.00486246
0.0046752
0.00449376
0.00431797
0.00414781
0.0039834
0.00382495
0.00367276
0.00352725
0.00338896
0.00325862
0.00313714
0.00302429
0.0029194
0.00282192
0.00273135
0.00264721
0.00256904
0.00249641
0.00242889
0.00236603
0.0023074
0.00225257
0.00220109
0.0021525
0.00210633
0.00206207
0.00201921
0.00197719
0.00193538
0.00189313
0.00184966
0.00180412
0.00175556
0.00170289
0.00164502
0.00158111
0.0015112
0.00143842
0.00136852
0.00133213
0.00130749
0.124512
0.0244257
0.0140455
0.00856626
0.00553332
0.00395462
0.0031667
0.00276427
0.00252642
0.00234941
0.00219422
0.00205185
0.00192384
0.0018129
0.00171886
0.00163824
0.00167312
0.00214928
0.00353419
0.00610806
0.0096017
0.0131069
0.0154664
0.015937
0.0147183
0.0124483
0.00975345
0.00727802
0.0059378
0.00666613
0.0108003
0.0153588
0.016956
0.0196499
0.0223984
0.0250094
0.0273355
0.0294468
0.0314513
0.0333315
0.0350751
0.0368523
0.0390574
0.0419293
0.0454162
0.0492287
0.0530016
0.0564481
0.0594278
0.0619259
0.0639894
0.065672
0.0670089
0.0680161
0.0686979
0.0690583
0.0691338
0.0689199
0.068429
0.0676959
0.0667801
0.0657624
0.064739
0.063811
0.0630757
0.0626188
0.0625124
0.062818
0.0635903
0.0648805
0.0667334
0.0691777
0.072208
0.0757592
0.0796775
0.0836992
0.0874534
0.0905045
0.0924365
0.0929563
0.0919711
0.089607
0.0861566
0.0819709
0.0773666
0.0725271
0.068133
0.0642284
0.0606061
0.0572532
0.0541558
0.0512943
0.0486473
0.0461937
0.0439139
0.0417901
0.0398062
0.0379483
0.036204
0.0345626
0.0330145
0.0315517
0.0301671
0.0288547
0.0276094
0.0264272
0.0253043
0.0242378
0.0232251
0.0222641
0.0213529
0.0204898
0.0196733
0.0189019
0.0181742
0.0174888
0.0168441
0.0162386
0.0156705
0.0151378
0.0146386
0.0141707
0.013732
0.0133203
0.0129336
0.0125699
0.0122274
0.0119044
0.0115992
0.0113105
0.0110368
0.0107768
0.0105293
0.0102933
0.0100677
0.00985171
0.00964439
0.00944505
0.00925307
0.00906793
0.00888919
0.00871647
0.00854948
0.00838793
0.00823156
0.00808007
0.0079331
0.0077902
0.00765075
0.00751401
0.00738039
0.00725088
0.00712651
0.0070082
0.00689579
0.00678908
0.00668785
0.00659189
0.00650093
0.0064147
0.00633291
0.00625521
0.00618123
0.00611057
0.00604276
0.00597728
0.00591353
0.0058508
0.00578826
0.00572489
0.0056594
0.00559015
0.00551495
0.00543089
0.00533387
0.00521848
0.00507609
0.00489856
0.0046638
0.00437798
0.0811459
0.0388303
0.018281
0.00912589
0.00535675
0.00391039
0.00334944
0.00306025
0.00282149
0.0025786
0.00233643
0.00211351
0.00192554
0.00178136
0.00168299
0.00160967
0.00155067
0.0015674
0.00185656
0.00271841
0.00433566
0.00651374
0.00863581
0.00998026
0.0102193
0.00944854
0.00803824
0.0069065
0.00841661
0.0142327
0.0156635
0.0162497
0.0173958
0.0190264
0.0208327
0.02276
0.0248347
0.0271657
0.0298664
0.0330129
0.0366364
0.0406926
0.0450154
0.0493189
0.0533123
0.0568136
0.0597906
0.0623272
0.0645551
0.0665951
0.0685252
0.0703734
0.0721231
0.0737212
0.0751437
0.0763946
0.0773896
0.078023
0.0781812
0.077757
0.0766726
0.0749066
0.0725179
0.0696532
0.0665335
0.0634192
0.0605681
0.0582024
0.056496
0.0555804
0.0555585
0.0565127
0.0584987
0.0615221
0.0654971
0.0702009
0.0752413
0.0800687
0.0840548
0.0866389
0.0874832
0.0865624
0.0841628
0.0807028
0.0765941
0.072252
0.0683694
0.0647218
0.0613132
0.0581493
0.0552209
0.0525117
0.0500023
0.0476736
0.0455071
0.0434862
0.041596
0.0398231
0.0381559
0.0365841
0.0350984
0.0336911
0.0323552
0.0310846
0.0298745
0.0287205
0.027619
0.0265672
0.0255625
0.0246032
0.0236876
0.0228145
0.0219829
0.0211919
0.0204409
0.0197291
0.0190559
0.0184204
0.0178217
0.0172588
0.0167305
0.0162353
0.0157718
0.0153383
0.014933
0.0145541
0.0141996
0.0138677
0.0135566
0.0132645
0.0129897
0.0127307
0.0124859
0.0122541
0.012034
0.0118246
0.0116249
0.011434
0.0112512
0.0110757
0.0109072
0.010745
0.0105887
0.0104381
0.0102927
0.0101523
0.0100167
0.00988544
0.00975841
0.00963533
0.00951596
0.00940008
0.00928737
0.00917769
0.00907199
0.00897075
0.00887385
0.00878119
0.00869264
0.00860803
0.00852719
0.00844993
0.00837601
0.00830516
0.0082371
0.00817148
0.00810789
0.00804589
0.00798491
0.00792429
0.0078632
0.00780058
0.00773505
0.00766476
0.00758715
0.00749873
0.00739396
0.00726609
0.00710023
0.00688713
0.299532
0.0690599
0.0207436
0.00807483
0.00486573
0.00406133
0.00371588
0.00337434
0.00298002
0.00256794
0.00218361
0.00185888
0.00160808
0.00143323
0.00133004
0.00128341
0.00127524
0.00128883
0.00137309
0.0017076
0.00252358
0.00388312
0.00550721
0.00686542
0.00752974
0.00740107
0.00699711
0.00844973
0.0141544
0.0156962
0.0156465
0.0162231
0.0174234
0.0191093
0.0211982
0.0237099
0.0267013
0.0302221
0.0342515
0.0386645
0.0432348
0.0476733
0.0516962
0.0551022
0.0578218
0.0599101
0.0615002
0.0627482
0.0637938
0.064743
0.0656695
0.066621
0.0676255
0.068699
0.0698051
0.0709191
0.0720309
0.0731215
0.0741522
0.0750508
0.0756945
0.075898
0.0754212
0.0740194
0.0715411
0.0680377
0.0638078
0.0593308
0.055126
0.0516339
0.0491719
0.0479506
0.0481081
0.0497233
0.052798
0.0572093
0.0626518
0.0685929
0.0742766
0.0788667
0.0816916
0.0824319
0.0812917
0.0787074
0.0751969
0.0715937
0.068075
0.0646882
0.0614884
0.0584957
0.0557095
0.0531192
0.0507102
0.0484665
0.0463728
0.0444147
0.0425791
0.0408543
0.0392299
0.0376964
0.0362453
0.0348693
0.0335615
0.0323161
0.0311281
0.0299929
0.028907
0.0278671
0.0268708
0.0259159
0.025001
0.0241248
0.0232864
0.0224852
0.0217207
0.0209925
0.0203005
0.0196442
0.0190234
0.0184377
0.0178863
0.0173687
0.0168837
0.0164304
0.0160073
0.0156129
0.0152456
0.0149037
0.0145854
0.0142889
0.0140124
0.0137543
0.0135128
0.0132865
0.0130739
0.0128737
0.0126847
0.0125058
0.0123362
0.0121749
0.0120212
0.0118745
0.0117341
0.0115997
0.0114708
0.0113469
0.0112278
0.0111131
0.0110025
0.0108958
0.0107928
0.0106931
0.0105965
0.0105028
0.0104116
0.0103234
0.0102384
0.0101566
0.0100778
0.0100021
0.00992926
0.00985921
0.00979179
0.00972683
0.00966415
0.0096035
0.00954461
0.00948718
0.00943081
0.00937503
0.00931928
0.00926282
0.00920471
0.00914373
0.00907821
0.00900592
0.00892353
0.00882679
0.00870785
0.0085596
0.545471
0.0776333
0.0152955
0.00614899
0.00493902
0.00453684
0.00404579
0.00346062
0.00284773
0.00227625
0.00179884
0.00143435
0.00117626
0.00100989
0.000920372
0.000922361
0.000995145
0.00107295
0.00113877
0.00131711
0.00183713
0.00283205
0.00414989
0.00536567
0.00610757
0.00655809
0.00810614
0.01239
0.0151363
0.0152838
0.0156151
0.0167254
0.0185081
0.0209023
0.0238934
0.027487
0.0316571
0.0363009
0.0412168
0.0461241
0.0507182
0.0547355
0.0580079
0.0604927
0.0622654
0.0634785
0.0643065
0.0649029
0.0653791
0.0658032
0.0662065
0.0665938
0.0669558
0.0672938
0.0675948
0.0678541
0.0680698
0.0682328
0.068316
0.068269
0.0680235
0.0675119
0.0666939
0.0655728
0.0641673
0.062424
0.0601537
0.0571519
0.0534725
0.0495434
0.0459771
0.0433219
0.0419563
0.042099
0.0438519
0.0472101
0.0520532
0.0580783
0.0646228
0.0706861
0.075276
0.0776507
0.0778411
0.0762196
0.0736376
0.0706786
0.0675823
0.0645135
0.0615589
0.058757
0.0561197
0.0536455
0.0513263
0.0491515
0.0471104
0.045192
0.0433863
0.041684
0.0400763
0.0385555
0.0371141
0.0357456
0.0344437
0.0332031
0.0320186
0.030886
0.0298014
0.0287615
0.0277635
0.0268052
0.0258849
0.0250011
0.0241528
0.0233396
0.0225608
0.0218162
0.0211058
0.0204296
0.0197874
0.0191793
0.0186051
0.0180644
0.0175569
0.0170819
0.0166385
0.0162257
0.0158421
0.0154863
0.0151567
0.0148517
0.0145695
0.0143083
0.0140663
0.013842
0.0136337
0.0134399
0.0132593
0.0130905
0.0129324
0.012784
0.0126444
0.0125126
0.012388
0.01227
0.0121578
0.012051
0.0119492
0.0118519
0.0117587
0.0116694
0.0115835
0.0115009
0.0114211
0.0113439
0.0112691
0.0111964
0.0111259
0.0110578
0.0109918
0.010928
0.0108663
0.0108066
0.0107487
0.0106927
0.0106383
0.0105855
0.0105339
0.0104835
0.0104339
0.0103849
0.0103359
0.0102865
0.0102361
0.0101837
0.0101284
0.0100685
0.0100019
0.0099261
0.00983661
0.00972947
0.745696
0.0624583
0.0092468
0.0060585
0.00557724
0.00488006
0.00410177
0.00332171
0.00258371
0.00195455
0.00147505
0.00113729
0.000913725
0.000784024
0.000746952
0.000817379
0.000917833
0.000982963
0.00102084
0.00119179
0.0017209
0.00263765
0.00376597
0.00484733
0.00588862
0.00750171
0.010666
0.0137909
0.0147722
0.0152157
0.01635
0.0182894
0.020972
0.0243641
0.0284297
0.033093
0.0382013
0.0435083
0.0486925
0.0534112
0.0573752
0.0604184
0.0625332
0.0638529
0.0645902
0.0649658
0.0651591
0.0652902
0.0654237
0.0655825
0.0657613
0.0659396
0.0660146
0.0659124
0.065633
0.0652144
0.064727
0.0642542
0.063863
0.0635705
0.0633144
0.0629365
0.0621896
0.0607837
0.058485
0.0552651
0.0514527
0.0477191
0.0446773
0.0423684
0.0404448
0.0388384
0.0378577
0.0378289
0.0389388
0.0412634
0.0449112
0.0500542
0.0564535
0.0631378
0.0689224
0.0726147
0.0739956
0.0734611
0.0717988
0.0695007
0.0669049
0.0642194
0.0615601
0.0589856
0.0565224
0.0541796
0.0519577
0.0498535
0.0478616
0.0459762
0.0441909
0.0424995
0.0408959
0.0393739
0.037928
0.0365524
0.0352421
0.0339921
0.0327979
0.0316552
0.0305604
0.0295099
0.0285011
0.0275313
0.0265986
0.0257015
0.0248388
0.0240096
0.0232135
0.0224503
0.0217198
0.0210221
0.0203573
0.0197257
0.0191273
0.0185622
0.0180302
0.0175311
0.0170644
0.0166295
0.0162254
0.015851
0.0155051
0.0151861
0.0148924
0.0146224
0.0143742
0.0141463
0.0139367
0.0137441
0.0135667
0.0134032
0.0132521
0.0131124
0.0129828
0.0128624
0.0127502
0.0126454
0.0125472
0.0124551
0.0123683
0.0122864
0.0122088
0.0121351
0.012065
0.011998
0.0119338
0.0118721
0.0118125
0.0117548
0.0116987
0.0116443
0.0115915
0.0115402
0.0114904
0.0114418
0.0113946
0.0113485
0.0113036
0.0112596
0.0112165
0.0111742
0.0111324
0.0110909
0.0110495
0.0110078
0.0109653
0.0109215
0.0108756
0.0108265
0.0107731
0.0107135
0.0106453
0.0105662
0.856674
0.0370007
0.00725482
0.00685578
0.00596393
0.00498876
0.00408494
0.00323262
0.00245963
0.00183541
0.00138514
0.00107997
0.000886289
0.000791821
0.000800786
0.000859489
0.000930396
0.00100382
0.00113235
0.00143994
0.0020341
0.0029057
0.00397408
0.0052292
0.00691739
0.00943853
0.0122289
0.0139061
0.014784
0.0160331
0.0180939
0.020974
0.0246264
0.0289949
0.0339819
0.03941
0.0449968
0.0503687
0.0551327
0.0589819
0.0617847
0.0636087
0.0646698
0.0652437
0.0655842
0.0658767
0.066227
0.0666699
0.0671849
0.0677127
0.0681716
0.0684541
0.0683989
0.0679412
0.0670444
0.0657433
0.0641505
0.0624411
0.0608136
0.0594407
0.05842
0.0577362
0.0572392
0.0566423
0.055552
0.0535414
0.0502796
0.045731
0.0404425
0.0357769
0.0331607
0.0326448
0.0334556
0.0350692
0.0370622
0.0391701
0.0416278
0.0453006
0.0507303
0.0571584
0.0633666
0.0678507
0.0701027
0.0705657
0.069744
0.0681215
0.0660617
0.0637998
0.0614738
0.0591591
0.0568954
0.054703
0.0525919
0.0505667
0.0486288
0.0467778
0.0450119
0.0433286
0.0417245
0.040196
0.038739
0.0373495
0.0360233
0.0347564
0.0335447
0.0323846
0.0312724
0.0302049
0.0291791
0.0281925
0.027243
0.0263287
0.0254483
0.0246007
0.0237854
0.023002
0.0222503
0.0215304
0.0208426
0.020187
0.019564
0.0189738
0.0184165
0.0178921
0.0174006
0.0169415
0.0165144
0.0161184
0.0157524
0.0154154
0.0151059
0.0148222
0.0145629
0.0143261
0.0141101
0.0139132
0.0137339
0.0135704
0.0134213
0.0132852
0.0131608
0.013047
0.0129426
0.0128467
0.0127584
0.0126769
0.0126014
0.0125313
0.012466
0.0124049
0.0123475
0.0122934
0.0122422
0.0121934
0.0121468
0.0121019
0.0120585
0.0120164
0.0119756
0.0119358
0.0118969
0.011859
0.0118219
0.0117855
0.0117497
0.0117146
0.0116799
0.0116456
0.0116116
0.0115778
0.0115439
0.0115097
0.0114749
0.0114392
0.0114021
0.0113628
0.0113206
0.0112745
0.0112229
0.0111647
0.859948
0.0165193
0.00783754
0.00736063
0.00621688
0.00516581
0.00421656
0.00334229
0.00257711
0.00197621
0.00154696
0.00125639
0.00107268
0.000980694
0.000985725
0.00103336
0.00112484
0.00127374
0.00152958
0.00196736
0.00264706
0.00359313
0.00483748
0.00648177
0.00862668
0.0109699
0.0128536
0.0142085
0.0156738
0.0178074
0.0207563
0.0244947
0.0289648
0.0340753
0.0396518
0.0453917
0.0508753
0.0556606
0.0594242
0.0620624
0.0636974
0.0645992
0.0650817
0.0654202
0.0658126
0.0663729
0.0671424
0.0681029
0.0691859
0.07028
0.071242
0.0719091
0.0721804
0.0718755
0.0708572
0.069086
0.0666565
0.0637982
0.0608292
0.0580795
0.0558097
0.0541522
0.0530772
0.0523842
0.0517224
0.0506496
0.0487367
0.0456938
0.0414883
0.0365526
0.0321899
0.0300221
0.0305136
0.0334931
0.0372564
0.040001
0.0416078
0.0436789
0.0477293
0.0532835
0.0590503
0.0637199
0.0666427
0.0678485
0.0677202
0.066702
0.0651517
0.0633105
0.0613253
0.0592817
0.0572293
0.0551977
0.0532059
0.0512664
0.0493874
0.0475742
0.0458298
0.0441553
0.0425506
0.0410143
0.0395446
0.0381387
0.0367938
0.0355066
0.0342741
0.0330928
0.0319596
0.0308715
0.0298256
0.0288194
0.0278505
0.026917
0.0260174
0.0251505
0.0243154
0.0235116
0.0227388
0.0219971
0.0212867
0.0206079
0.0199609
0.0193462
0.0187641
0.0182148
0.0176985
0.0172149
0.0167639
0.016345
0.0159574
0.0156001
0.015272
0.0149718
0.0146978
0.0144485
0.0142221
0.014017
0.0138315
0.0136638
0.0135123
0.0133756
0.0132521
0.0131407
0.0130399
0.0129489
0.0128664
0.0127915
0.0127235
0.0126615
0.0126048
0.0125528
0.0125048
0.0124604
0.0124191
0.0123803
0.0123438
0.0123091
0.0122759
0.0122439
0.0122129
0.0121828
0.0121534
0.0121245
0.0120962
0.0120683
0.0120407
0.0120134
0.0119864
0.0119594
0.0119326
0.0119057
0.0118786
0.0118513
0.0118236
0.0117952
0.0117657
0.0117349
0.0117023
0.0116672
0.0116288
0.0115866
0.78036
0.0133391
0.0084102
0.0078008
0.00662536
0.00553553
0.00455983
0.00368569
0.00293383
0.00233977
0.00191076
0.00162289
0.0014494
0.00137517
0.00138388
0.00145057
0.0015942
0.00183634
0.00221946
0.00280103
0.00363951
0.00478851
0.00629353
0.00813229
0.0101039
0.0119215
0.0135405
0.0152482
0.0174358
0.0203385
0.0239934
0.028365
0.0333909
0.0389318
0.0447005
0.0502553
0.0551067
0.0588869
0.0614712
0.0629828
0.0637041
0.0639637
0.0640546
0.0641981
0.0645405
0.0651633
0.0660944
0.0673152
0.0687607
0.0703157
0.0718103
0.0731938
0.074258
0.0747179
0.0742915
0.0727791
0.0701572
0.0666307
0.0626033
0.058571
0.054986
0.052157
0.050197
0.0490072
0.0482926
0.0476067
0.0464509
0.0444331
0.0414605
0.0377889
0.0344072
0.0321191
0.0320593
0.034884
0.0393292
0.0425532
0.0435526
0.0442947
0.0467478
0.0511134
0.0562609
0.0608297
0.0640018
0.0656329
0.0659884
0.0654457
0.0643286
0.062863
0.0611917
0.0594024
0.0575507
0.0556734
0.0537972
0.0519413
0.0501204
0.048345
0.0466223
0.0449573
0.0433525
0.0418089
0.0403266
0.0389043
0.0375402
0.0362323
0.034978
0.0337746
0.0326193
0.0315094
0.0304422
0.0294152
0.0284261
0.0274729
0.0265539
0.0256676
0.0248131
0.0239896
0.0231968
0.0224345
0.0217029
0.0210022
0.0203329
0.0196952
0.0190898
0.0185168
0.0179768
0.0174696
0.0169953
0.0165537
0.0161442
0.0157662
0.0154186
0.0151004
0.0148101
0.0145463
0.0143072
0.0140914
0.0138969
0.0137221
0.0135653
0.0134249
0.0132993
0.013187
0.0130867
0.0129973
0.0129174
0.012846
0.0127823
0.0127252
0.0126741
0.0126281
0.0125866
0.0125489
0.0125146
0.0124831
0.012454
0.0124268
0.0124012
0.0123769
0.0123535
0.0123309
0.012309
0.0122874
0.0122662
0.0122452
0.0122244
0.0122036
0.0121828
0.0121621
0.0121412
0.0121202
0.012099
0.0120776
0.0120558
0.0120335
0.0120105
0.0119868
0.0119619
0.0119356
0.0119075
0.0118775
0.680866
0.0124139
0.00899875
0.00837459
0.00720297
0.00609341
0.00510272
0.00423235
0.0034936
0.00290631
0.00247841
0.00219718
0.0020439
0.00200898
0.00203182
0.00214663
0.00236865
0.00272532
0.00325799
0.00401675
0.00504604
0.00636006
0.0079097
0.00957654
0.0112514
0.0129446
0.0148009
0.0170294
0.0198198
0.0232677
0.0273835
0.0321487
0.037486
0.0431682
0.048776
0.0537856
0.057754
0.0604759
0.0620167
0.0626322
0.0626512
0.0623857
0.0620886
0.0619441
0.0620699
0.0625223
0.0633112
0.0644227
0.0658295
0.0674832
0.069324
0.0713056
0.0731934
0.0746647
0.0753167
0.0747481
0.0727125
0.0692631
0.0647886
0.0599107
0.0552705
0.0513628
0.0484556
0.0465602
0.0454559
0.0447373
0.0438911
0.0424625
0.0404122
0.038021
0.0357784
0.0344778
0.0351987
0.0385783
0.0431447
0.0458388
0.045927
0.0456263
0.0470291
0.0504745
0.0549619
0.0591892
0.0623091
0.0640979
0.0647343
0.0645234
0.0637386
0.0625762
0.0611649
0.0595892
0.0579068
0.0561601
0.0543816
0.0525966
0.0508246
0.0490808
0.0473759
0.0457179
0.0441119
0.0425608
0.041066
0.0396278
0.0382454
0.0369175
0.0356421
0.0344171
0.0332403
0.032109
0.0310209
0.0299736
0.0289648
0.0279924
0.0270547
0.0261501
0.0252773
0.0244356
0.0236244
0.0228433
0.0220924
0.021372
0.0206822
0.0200237
0.0193969
0.0188023
0.0182403
0.0177112
0.017215
0.0167519
0.0163214
0.0159231
0.0155562
0.0152198
0.0149127
0.0146336
0.0143808
0.0141528
0.013948
0.0137644
0.0136004
0.0134543
0.0133245
0.0132094
0.0131075
0.0130174
0.012938
0.0128679
0.0128062
0.0127519
0.012704
0.0126618
0.0126244
0.0125913
0.0125617
0.0125352
0.0125113
0.0124895
0.0124693
0.0124506
0.0124328
0.0124159
0.0123994
0.0123834
0.0123676
0.0123519
0.0123363
0.0123205
0.0123047
0.0122888
0.0122727
0.0122564
0.0122399
0.0122231
0.012206
0.0121886
0.0121708
0.0121525
0.0121336
0.0121141
0.0120938
0.0120727
0.590418
0.0116698
0.00955614
0.00903409
0.00793614
0.00684919
0.00586192
0.00499547
0.00426502
0.00368466
0.00326202
0.00299217
0.00286257
0.00286599
0.00294712
0.00314149
0.00346898
0.00395662
0.0046348
0.00552679
0.00663307
0.00792187
0.0093439
0.0108738
0.012544
0.0144366
0.0166544
0.0193054
0.0224852
0.0262529
0.0306405
0.035643
0.0411294
0.0467593
0.0520163
0.0563767
0.0595047
0.0613454
0.0620829
0.0620267
0.0615083
0.0608235
0.0602086
0.0598252
0.0597463
0.0599635
0.0604377
0.0611592
0.062164
0.0635096
0.0653109
0.0674224
0.0696952
0.0718554
0.0734788
0.0740228
0.073004
0.0702334
0.0659525
0.0608205
0.055626
0.0510142
0.0474021
0.044905
0.0433613
0.0424257
0.0415858
0.0404756
0.0390114
0.0374331
0.0362688
0.0363195
0.038513
0.0428828
0.0471981
0.0487571
0.047832
0.0469086
0.0478385
0.050789
0.0547765
0.0586047
0.0615078
0.0632723
0.0640305
0.0640231
0.0634681
0.0625257
0.0613066
0.0598893
0.0583322
0.0566814
0.0549737
0.053239
0.0515008
0.0497773
0.0480824
0.0464262
0.0448155
0.043255
0.0417472
0.0402932
0.0388932
0.0375463
0.0362513
0.0350064
0.0338095
0.0326585
0.0315511
0.030485
0.029458
0.028468
0.0275132
0.026592
0.0257029
0.0248449
0.0240173
0.0232197
0.022452
0.0217142
0.0210066
0.0203297
0.019684
0.01907
0.0184883
0.0179393
0.0174232
0.0169401
0.0164901
0.0160727
0.0156874
0.0153335
0.0150099
0.0147155
0.0144488
0.0142082
0.0139922
0.0137991
0.0136269
0.0134741
0.0133389
0.0132197
0.0131148
0.0130229
0.0129425
0.0128724
0.0128113
0.0127582
0.0127121
0.0126722
0.0126375
0.0126073
0.0125811
0.012558
0.0125378
0.0125197
0.0125035
0.0124887
0.012475
0.0124621
0.0124497
0.0124377
0.0124258
0.012414
0.0124022
0.0123902
0.0123781
0.0123658
0.0123532
0.0123405
0.0123274
0.0123141
0.0123006
0.0122869
0.0122729
0.0122587
0.0122442
0.0122296
0.0122149
0.0122001
0.496356
0.0108471
0.00997361
0.00969258
0.00877788
0.00779405
0.00685992
0.00601781
0.00529751
0.00472143
0.00430499
0.0040539
0.00396454
0.0039929
0.00413923
0.00441563
0.0048353
0.00541297
0.00615949
0.00707679
0.00815772
0.00939537
0.0107985
0.0123993
0.0142447
0.0163829
0.0188657
0.0217606
0.0251451
0.0290958
0.0336731
0.0388546
0.0444296
0.0499598
0.0548827
0.058714
0.0612153
0.0624295
0.0625988
0.0620508
0.0611179
0.0600987
0.0592359
0.0586831
0.0584702
0.0585118
0.0586983
0.0589743
0.0594481
0.0603413
0.0617325
0.0635499
0.0656815
0.0679356
0.069963
0.0712025
0.0710378
0.0690788
0.0653447
0.0604185
0.055194
0.0503553
0.0464158
0.0435752
0.0417324
0.0405635
0.0396502
0.0386699
0.0375762
0.0366735
0.0365878
0.0381562
0.041922
0.0468613
0.0502157