/*--------------------------------*- C++ -*----------------------------------*\
| =========                 |                                                 |
| \\      /  F ield         | OpenFOAM: The Open Source CFD Toolbox           |
|  \\    /   O peration     | Version:  2112                                  |
|   \\  /    A nd           | Website:  www.openfoam.com                      |
|    \\/     M anipulation  |                                                 |
\*---------------------------------------------------------------------------*/
FoamFile
{
    version     2.0;
    format      ascii;
    arch        "LSB;label=32;scalar=64";
    class       volScalarField;
    location    "0.08";
    object      nut;
}
// * * * * * * * * * * * * * * * * * * * * * * * * * * * * * * * * * * * * * //

dimensions      [0 2 -1 0 0 0 0];

internalField   nonuniform List<scalar> 
12225
(
8.17723e-06
1.03263e-05
1.11263e-05
1.13259e-05
1.12523e-05
1.1056e-05
1.08059e-05
1.05326e-05
1.02492e-05
9.96e-06
9.66485e-06
9.36086e-06
9.04353e-06
8.70703e-06
8.34457e-06
7.94721e-06
7.50728e-06
6.99972e-06
2.39458e-06
2.07138e-06
2.19904e-06
2.36927e-06
2.52716e-06
2.66786e-06
2.79871e-06
2.92939e-06
3.06917e-06
3.22678e-06
3.41089e-06
3.63074e-06
3.89678e-06
4.22119e-06
4.61839e-06
5.10521e-06
5.7001e-06
6.42318e-06
6.96902e-06
4.58399e-06
3.15926e-06
2.36005e-06
1.89331e-06
1.60776e-06
1.42664e-06
1.31086e-06
1.23999e-06
1.20321e-06
1.19527e-06
1.21453e-06
1.26216e-06
1.3418e-06
1.45978e-06
1.62564e-06
1.85392e-06
2.16689e-06
8.31187e-06
7.85474e-06
7.21221e-06
6.46517e-06
5.70542e-06
5.00043e-06
4.37647e-06
3.83408e-06
3.36419e-06
2.95582e-06
2.59925e-06
2.28727e-06
2.0155e-06
1.78243e-06
1.58894e-06
1.43811e-06
1.33462e-06
1.28569e-06
8.37653e-06
8.20143e-06
8.01541e-06
7.80792e-06
7.57259e-06
7.30916e-06
7.02069e-06
6.71076e-06
6.38238e-06
6.03755e-06
5.67702e-06
5.30053e-06
4.90728e-06
4.49671e-06
4.06939e-06
3.62867e-06
3.18122e-06
2.74127e-06
8.37881e-06
8.22007e-06
8.07417e-06
7.93763e-06
7.80708e-06
7.67946e-06
7.55205e-06
7.42236e-06
7.28792e-06
7.14614e-06
6.99413e-06
6.8284e-06
6.64473e-06
6.43791e-06
6.20149e-06
5.92776e-06
5.60789e-06
5.23295e-06
8.37886e-06
8.22081e-06
8.07729e-06
7.94627e-06
7.82594e-06
7.71471e-06
7.61109e-06
7.51369e-06
7.42113e-06
7.33204e-06
7.2449e-06
7.15804e-06
7.06943e-06
6.97659e-06
6.8764e-06
6.76479e-06
6.63657e-06
6.48533e-06
8.37884e-06
8.22077e-06
8.0773e-06
7.94655e-06
7.82692e-06
7.71707e-06
7.61584e-06
7.5222e-06
7.43526e-06
7.35418e-06
7.27818e-06
7.20649e-06
7.13828e-06
7.07267e-06
7.00859e-06
6.94476e-06
6.87955e-06
6.81107e-06
8.37883e-06
8.22072e-06
8.0772e-06
7.9464e-06
7.82677e-06
7.71697e-06
7.61589e-06
7.52258e-06
7.4362e-06
7.35604e-06
7.28147e-06
7.21194e-06
7.14692e-06
7.08594e-06
7.02851e-06
6.97414e-06
6.92228e-06
6.87239e-06
8.37882e-06
8.22068e-06
8.07712e-06
7.94628e-06
7.8266e-06
7.71677e-06
7.61567e-06
7.52237e-06
7.43603e-06
7.35596e-06
7.28155e-06
7.21228e-06
7.14768e-06
7.08734e-06
7.0309e-06
6.97799e-06
6.92831e-06
6.8816e-06
8.37882e-06
8.22066e-06
8.07706e-06
7.94618e-06
7.82647e-06
7.71661e-06
7.6155e-06
7.52218e-06
7.43585e-06
7.35579e-06
7.28142e-06
7.21219e-06
7.14766e-06
7.08742e-06
7.03111e-06
6.9784e-06
6.929e-06
6.88269e-06
8.37881e-06
8.22064e-06
8.07702e-06
7.94612e-06
7.82638e-06
7.7165e-06
7.61538e-06
7.52206e-06
7.43573e-06
7.35569e-06
7.28134e-06
7.21215e-06
7.14765e-06
7.08744e-06
7.03116e-06
6.97848e-06
6.9291e-06
6.88283e-06
8.37881e-06
8.22063e-06
8.07699e-06
7.94607e-06
7.82631e-06
7.71642e-06
7.6153e-06
7.52198e-06
7.43566e-06
7.35564e-06
7.28131e-06
7.21215e-06
7.14768e-06
7.0875e-06
7.03125e-06
6.9786e-06
6.92924e-06
6.88297e-06
8.37881e-06
8.22062e-06
8.07697e-06
7.94603e-06
7.82626e-06
7.71636e-06
7.61523e-06
7.52193e-06
7.43562e-06
7.35563e-06
7.28134e-06
7.21221e-06
7.14778e-06
7.08765e-06
7.03143e-06
6.97881e-06
6.92948e-06
6.88324e-06
8.3788e-06
8.22061e-06
8.07695e-06
7.94599e-06
7.82622e-06
7.71632e-06
7.6152e-06
7.52191e-06
7.43563e-06
7.35568e-06
7.28142e-06
7.21234e-06
7.14797e-06
7.08788e-06
7.03172e-06
6.97915e-06
6.92987e-06
6.88369e-06
8.3788e-06
8.2206e-06
8.07693e-06
7.94597e-06
7.8262e-06
7.71631e-06
7.6152e-06
7.52194e-06
7.4357e-06
7.35579e-06
7.28159e-06
7.21257e-06
7.14826e-06
7.08824e-06
7.03215e-06
6.97965e-06
6.93045e-06
6.88436e-06
8.3788e-06
8.2206e-06
8.07692e-06
7.94596e-06
7.82619e-06
7.71632e-06
7.61524e-06
7.52202e-06
7.43583e-06
7.35597e-06
7.28184e-06
7.2129e-06
7.14867e-06
7.08874e-06
7.03275e-06
6.98035e-06
6.93126e-06
6.88528e-06
8.37879e-06
8.22059e-06
8.07692e-06
7.94597e-06
7.82622e-06
7.71637e-06
7.61533e-06
7.52216e-06
7.43603e-06
7.35626e-06
7.28221e-06
7.21336e-06
7.14924e-06
7.08943e-06
7.03355e-06
6.98129e-06
6.93234e-06
6.88652e-06
8.37879e-06
8.22059e-06
8.07692e-06
7.94599e-06
7.82627e-06
7.71647e-06
7.61549e-06
7.52239e-06
7.43635e-06
7.35667e-06
7.28274e-06
7.21401e-06
7.15002e-06
7.09035e-06
7.03462e-06
6.98252e-06
6.93374e-06
6.88811e-06
8.37879e-06
8.22059e-06
8.07694e-06
7.94603e-06
7.82635e-06
7.71661e-06
7.6157e-06
7.52267e-06
7.43673e-06
7.35715e-06
7.28332e-06
7.21471e-06
7.15084e-06
7.0913e-06
7.03571e-06
6.98375e-06
6.93512e-06
6.88963e-06
8.37879e-06
8.22059e-06
8.07696e-06
7.94609e-06
7.82645e-06
7.71676e-06
7.61591e-06
7.52296e-06
7.4371e-06
7.35761e-06
7.28387e-06
7.21536e-06
7.15159e-06
7.09215e-06
7.03667e-06
6.98481e-06
6.93629e-06
6.89092e-06
8.37879e-06
8.2206e-06
8.07699e-06
7.94616e-06
7.82658e-06
7.71695e-06
7.61617e-06
7.5233e-06
7.43751e-06
7.3581e-06
7.28446e-06
7.21603e-06
7.15236e-06
7.09301e-06
7.03762e-06
6.98586e-06
6.93744e-06
6.89215e-06
8.37879e-06
8.22062e-06
8.07705e-06
7.94627e-06
7.82675e-06
7.71718e-06
7.61648e-06
7.52369e-06
7.43798e-06
7.35865e-06
7.28508e-06
7.21674e-06
7.15314e-06
7.09387e-06
7.03856e-06
6.98687e-06
6.93852e-06
6.8933e-06
8.37879e-06
8.22065e-06
8.07713e-06
7.94641e-06
7.82696e-06
7.71747e-06
7.61685e-06
7.52414e-06
7.43852e-06
7.35928e-06
7.2858e-06
7.21754e-06
7.15403e-06
7.09484e-06
7.0396e-06
6.98799e-06
6.9397e-06
6.89455e-06
8.3788e-06
8.22069e-06
8.07723e-06
7.94656e-06
7.82711e-06
7.71758e-06
7.61684e-06
7.52396e-06
7.4381e-06
7.35857e-06
7.28478e-06
7.2162e-06
7.15239e-06
7.09293e-06
7.03742e-06
6.98553e-06
6.93697e-06
6.89154e-06
8.37879e-06
8.22045e-06
8.07618e-06
7.94368e-06
7.82096e-06
7.70643e-06
7.59898e-06
7.49786e-06
7.4026e-06
7.31295e-06
7.22875e-06
7.14992e-06
7.07637e-06
7.00797e-06
6.94462e-06
6.88614e-06
6.83219e-06
6.78175e-06
8.3763e-06
8.20148e-06
8.01885e-06
7.82051e-06
7.60294e-06
7.36986e-06
7.12915e-06
6.8893e-06
6.65766e-06
6.43973e-06
6.23903e-06
6.05724e-06
5.89473e-06
5.75098e-06
5.62485e-06
5.51494e-06
5.41984e-06
5.33881e-06
8.21832e-06
7.46252e-06
6.48374e-06
5.49132e-06
4.6267e-06
3.93904e-06
3.41179e-06
3.00953e-06
2.69994e-06
2.45832e-06
2.26674e-06
2.1124e-06
1.98618e-06
1.8815e-06
1.79359e-06
1.71889e-06
1.65476e-06
1.59897e-06
4.76023e-06
3.11317e-06
2.69957e-06
2.6096e-06
2.63343e-06
2.69604e-06
2.76667e-06
2.83319e-06
2.89148e-06
2.94089e-06
2.98221e-06
3.0167e-06
3.04567e-06
3.07031e-06
3.09163e-06
3.11045e-06
3.12748e-06
3.14337e-06
8.12407e-06
1.07286e-05
1.21882e-05
1.3118e-05
1.36549e-05
1.39179e-05
1.3998e-05
1.39605e-05
1.38516e-05
1.37025e-05
1.35344e-05
1.3361e-05
1.3191e-05
1.30299e-05
1.28807e-05
1.2745e-05
1.26231e-05
1.25153e-05
4.94856e-06
1.20793e-05
1.28507e-05
1.33179e-05
1.35697e-05
1.36702e-05
1.37089e-05
1.3698e-05
1.3608e-05
1.35323e-05
1.35786e-05
1.36785e-05
1.38269e-05
1.40256e-05
1.42791e-05
1.45942e-05
1.49783e-05
1.54435e-05
1.60147e-05
1.6562e-05
1.70642e-05
1.74943e-05
1.78129e-05
1.79607e-05
1.78467e-05
1.73103e-05
1.60291e-05
1.34419e-05
9.43525e-06
8.67627e-06
9.40817e-06
1.00331e-05
1.0563e-05
1.11012e-05
1.18812e-05
1.30209e-05
1.34013e-05
1.33071e-05
1.2941e-05
1.25075e-05
1.21726e-05
1.20395e-05
1.20764e-05
1.2051e-05
1.19955e-05
1.28203e-05
1.75228e-05
2.12062e-05
2.35715e-05
2.51878e-05
2.62444e-05
2.68722e-05
2.71663e-05
2.71972e-05
2.70182e-05
2.6671e-05
2.61883e-05
2.55968e-05
2.49181e-05
2.41705e-05
2.33693e-05
2.25271e-05
2.16255e-05
2.07371e-05
1.98729e-05
1.90315e-05
1.82129e-05
1.74175e-05
1.66461e-05
1.58995e-05
1.51783e-05
1.44836e-05
1.38163e-05
1.31779e-05
1.257e-05
1.19931e-05
1.14476e-05
1.08957e-05
1.03378e-05
9.77504e-06
9.2088e-06
8.64115e-06
8.07494e-06
7.51426e-06
6.96513e-06
6.43656e-06
5.94265e-06
5.50674e-06
5.17398e-06
5.31966e-06
5.75404e-06
6.22546e-06
6.70395e-06
7.1793e-06
7.64572e-06
8.09918e-06
8.53671e-06
8.95609e-06
9.35565e-06
9.7342e-06
1.00909e-05
1.04253e-05
1.07374e-05
1.10275e-05
1.12953e-05
1.15383e-05
1.17953e-05
1.20942e-05
1.23396e-05
1.24806e-05
1.25026e-05
1.23981e-05
1.2173e-05
1.1884e-05
1.15732e-05
1.12667e-05
1.09915e-05
1.07682e-05
1.06065e-05
1.05058e-05
1.0458e-05
1.04439e-05
1.04645e-05
1.05205e-05
1.0618e-05
1.07713e-05
1.10016e-05
1.13715e-05
1.18671e-05
1.24189e-05
1.29638e-05
1.33417e-05
1.33203e-05
1.56556e-05
1.96515e-05
2.21295e-05
2.37172e-05
2.46727e-05
2.51833e-05
2.53799e-05
2.5355e-05
2.51752e-05
2.49135e-05
2.45752e-05
2.41773e-05
2.37307e-05
2.32415e-05
2.27108e-05
2.21337e-05
2.14971e-05
2.07711e-05
1.98531e-05
1.8604e-05
1.87197e-05
1.89225e-05
1.91475e-05
1.94284e-05
1.97929e-05
2.02518e-05
2.07994e-05
2.14207e-05
2.20947e-05
2.27851e-05
2.35155e-05
2.44691e-05
2.53139e-05
2.57015e-05
2.53522e-05
2.3939e-05
2.1331e-05
1.83706e-05
1.65821e-05
1.62511e-05
1.59346e-05
1.44428e-05
1.26969e-05
1.1523e-05
1.41837e-05
1.57653e-05
1.63184e-05
5.79811e-06
1.03087e-05
1.10369e-05
1.07465e-05
1.03205e-05
9.97235e-06
1.03109e-05
1.03705e-05
1.0308e-05
1.02167e-05
1.01125e-05
9.99544e-06
9.87183e-06
9.74992e-06
9.63655e-06
9.53724e-06
9.457e-06
9.40505e-06
9.45585e-06
9.69912e-06
1.01334e-05
1.07646e-05
1.16074e-05
1.26726e-05
1.39501e-05
1.53687e-05
1.67252e-05
1.7605e-05
1.74095e-05
1.60477e-05
1.4208e-05
1.32494e-05
1.4222e-05
1.62937e-05
1.83565e-05
1.97417e-05
2.00479e-05
1.94991e-05
1.88391e-05
1.94029e-05
2.10233e-05
2.30299e-05
2.28225e-05
2.11354e-05
1.98107e-05
1.8921e-05
1.82411e-05
1.72386e-05
1.60308e-05
1.476e-05
1.35123e-05
1.23474e-05
1.13101e-05
1.04388e-05
9.77088e-06
9.34736e-06
9.21625e-06
9.43161e-06
1.00358e-05
1.1001e-05
1.21284e-05
1.30353e-05
1.34032e-05
1.36802e-05
1.39154e-05
1.41059e-05
1.42496e-05
1.4345e-05
1.43907e-05
1.43854e-05
1.43278e-05
1.42168e-05
1.40517e-05
1.38328e-05
1.35621e-05
1.32434e-05
1.28832e-05
1.24893e-05
1.20712e-05
1.16393e-05
1.12035e-05
1.0772e-05
1.03513e-05
9.94581e-06
9.55834e-06
9.19e-06
8.83994e-06
8.5036e-06
8.17513e-06
7.88707e-06
7.62583e-06
7.36636e-06
7.10649e-06
6.84568e-06
6.58527e-06
6.32858e-06
6.08026e-06
5.84559e-06
5.62967e-06
5.43677e-06
5.26999e-06
5.13116e-06
5.02095e-06
4.939e-06
4.88381e-06
4.85251e-06
4.84181e-06
4.82522e-06
4.77327e-06
4.86604e-06
5.09027e-06
5.37911e-06
5.6911e-06
6.0201e-06
6.3879e-06
6.83482e-06
7.41168e-06
8.1683e-06
9.13639e-06
1.03079e-05
1.16145e-05
1.29356e-05
1.41811e-05
1.53153e-05
1.63923e-05
1.75514e-05
1.89388e-05
2.05645e-05
2.24148e-05
2.49572e-05
2.86991e-05
3.23265e-05
3.39377e-05
3.6323e-05
4.12118e-05
4.85252e-05
5.83064e-05
7.00065e-05
8.26181e-05
9.48487e-05
0.000105332
0.00011281
0.00011848
0.000123807
0.0001289
0.000133774
0.000138351
0.000142426
0.000145636
0.000147432
0.000147044
0.00014331
0.000135555
0.000126546
0.000116559
0.00010619
9.59707e-05
8.62864e-05
7.73712e-05
6.93329e-05
6.21884e-05
5.58803e-05
5.02774e-05
4.51794e-05
3.96851e-05
3.20146e-05
2.74704e-05
2.67545e-05
2.92807e-05
3.47033e-05
4.26048e-05
5.06366e-05
5.36049e-05
4.99768e-05
4.35964e-05
3.93256e-05
3.95399e-05
4.46732e-05
4.97363e-05
5.17416e-05
6.10479e-06
6.76313e-06
8.4624e-06
8.63703e-06
9.72138e-06
1.04153e-05
1.00999e-05
9.51138e-06
9.02374e-06
8.72169e-06
8.58154e-06
8.55661e-06
8.60321e-06
8.68575e-06
8.77602e-06
8.85187e-06
8.89619e-06
8.89695e-06
8.85268e-06
8.82262e-06
8.83922e-06
8.9452e-06
9.20313e-06
9.68704e-06
1.04586e-05
1.15435e-05
1.29043e-05
1.43828e-05
1.56191e-05
1.6157e-05
1.58225e-05
1.51116e-05
1.50992e-05
1.68515e-05
1.92871e-05
2.13911e-05
2.25256e-05
2.40943e-05
2.50029e-05
2.3928e-05
2.25278e-05
2.07602e-05
1.85046e-05
1.64065e-05
1.47333e-05
1.33329e-05
1.20682e-05
1.08778e-05
9.84046e-06
9.03396e-06
8.52468e-06
8.37264e-06
8.63046e-06
9.32839e-06
1.0434e-05
1.17993e-05
1.31604e-05
1.42541e-05
1.49655e-05
1.53482e-05
1.55274e-05
1.56094e-05
1.5654e-05
1.5679e-05
1.56834e-05
1.56658e-05
1.5625e-05
1.5559e-05
1.54648e-05
1.53387e-05
1.51756e-05
1.49696e-05
1.47147e-05
1.44059e-05
1.404e-05
1.36179e-05
1.31445e-05
1.26298e-05
1.20877e-05
1.15341e-05
1.09846e-05
1.04523e-05
9.94666e-06
9.47313e-06
9.03394e-06
8.62892e-06
8.25627e-06
7.91217e-06
7.59524e-06
7.33703e-06
7.11097e-06
6.90764e-06
6.72653e-06
6.56737e-06
6.43022e-06
6.31561e-06
6.22451e-06
6.15828e-06
6.11869e-06
6.10784e-06
6.1281e-06
6.18202e-06
6.27216e-06
6.40087e-06
6.56966e-06
6.77754e-06
7.0167e-06
7.26138e-06
7.46391e-06
7.54695e-06
7.34661e-06
7.04413e-06
6.83898e-06
6.79095e-06
6.89428e-06
7.13035e-06
7.4845e-06
7.94775e-06
8.51797e-06
9.20474e-06
1.00337e-05
1.10472e-05
1.22999e-05
1.38349e-05
1.56428e-05
1.77013e-05
2.02336e-05
2.3684e-05
2.8753e-05
3.59113e-05
4.32565e-05
4.71669e-05
5.13687e-05
6.27155e-05
8.2365e-05
0.000108125
0.000135036
0.000158428
0.000176245
0.000188582
0.000196412
0.000200744
0.000203337
0.000204966
0.000205923
0.000206408
0.000206501
0.000206115
0.000204944
0.000202463
0.000197957
0.000190589
0.000181207
0.000170541
0.000158961
0.000147166
0.000135784
0.000125249
0.000115786
0.000107452
0.000100185
9.38582e-05
8.83001e-05
8.32462e-05
7.80095e-05
7.08029e-05
5.80693e-05
4.50966e-05
3.72991e-05
3.46265e-05
3.63396e-05
4.20439e-05
5.03756e-05
5.79285e-05
6.07449e-05
6.05691e-05
6.37285e-05
7.07219e-05
7.65987e-05
7.48529e-05
5.27892e-06
6.02949e-06
8.17362e-06
1.05963e-05
1.07565e-05
9.91043e-06
9.02951e-06
8.45393e-06
8.22238e-06
8.27388e-06
8.52823e-06
8.90935e-06
9.35042e-06
9.79544e-06
1.01996e-05
1.05286e-05
1.07578e-05
1.0871e-05
1.0858e-05
1.07147e-05
1.04618e-05
1.01385e-05
9.81418e-06
9.59797e-06
9.62143e-06
9.98949e-06
1.07425e-05
1.18433e-05
1.3144e-05
1.43659e-05
1.52676e-05
1.60966e-05
1.77332e-05
2.04679e-05
2.34756e-05
2.65497e-05
2.8637e-05
2.55578e-05
2.24821e-05
1.99727e-05
1.75437e-05
1.53209e-05
1.33786e-05
1.18209e-05
1.05992e-05
9.63219e-06
8.90956e-06
8.48308e-06
8.44186e-06
8.86642e-06
9.7975e-06
1.11781e-05
1.27975e-05
1.43341e-05
1.55237e-05
1.6293e-05
1.67265e-05
1.69528e-05
1.70722e-05
1.71414e-05
1.71859e-05
1.72139e-05
1.71976e-05
1.71378e-05
1.70395e-05
1.69087e-05
1.67516e-05
1.65733e-05
1.63775e-05
1.61645e-05
1.59315e-05
1.56718e-05
1.53756e-05
1.50315e-05
1.46286e-05
1.41597e-05
1.36242e-05
1.30293e-05
1.23908e-05
1.17302e-05
1.10709e-05
1.04342e-05
9.83528e-06
9.28324e-06
8.78104e-06
8.32752e-06
7.91871e-06
7.5481e-06
7.22083e-06
6.95361e-06
6.7132e-06
6.49523e-06
6.29766e-06
6.11892e-06
5.95797e-06
5.81439e-06
5.68838e-06
5.58086e-06
5.4935e-06
5.42882e-06
5.39031e-06
5.38247e-06
5.41094e-06
5.48254e-06
5.60524e-06
5.78787e-06
6.03907e-06
6.36579e-06
6.77094e-06
7.24912e-06
7.78214e-06
8.32943e-06
8.83687e-06
9.29733e-06
9.74346e-06
1.02082e-05
1.07058e-05
1.12282e-05
1.17519e-05
1.22573e-05
1.27523e-05
1.32845e-05
1.39374e-05
1.48327e-05
1.61962e-05
1.84728e-05
2.22995e-05
2.83903e-05
3.7139e-05
4.71916e-05
5.4399e-05
5.93335e-05
7.23436e-05
9.86533e-05
0.000134937
0.000172571
0.000203969
0.000226573
0.00024124
0.000249742
0.00025362
0.000253995
0.000252184
0.000248882
0.000244572
0.000239672
0.0002345
0.000229198
0.000223619
0.000217318
0.00020959
0.000200046
0.00018948
0.000177684
0.000165183
0.000152698
0.000140898
0.000130254
0.000121002
0.000113171
0.000106649
0.000101256
9.67995e-05
9.30785e-05
8.98187e-05
8.64523e-05
8.14161e-05
7.15222e-05
5.86577e-05
4.77132e-05
4.12038e-05
3.99406e-05
4.43011e-05
5.35826e-05
6.41128e-05
7.17344e-05
7.83852e-05
8.5828e-05
9.11508e-05
9.05001e-05
4.98563e-06
8.26425e-06
1.09887e-05
1.0364e-05
9.20093e-06
8.37555e-06
8.04964e-06
8.17502e-06
8.6537e-06
9.37575e-06
1.02293e-05
1.11137e-05
1.19516e-05
1.26929e-05
1.33077e-05
1.37782e-05
1.40943e-05
1.42508e-05
1.42437e-05
1.39958e-05
1.35049e-05
1.28148e-05
1.19943e-05
1.11531e-05
1.04547e-05
1.00802e-05
1.01554e-05
1.07266e-05
1.17811e-05
1.32361e-05
1.5035e-05
1.75046e-05
2.12658e-05
2.5887e-05
2.97292e-05
2.95669e-05
2.4378e-05
2.04771e-05
1.7482e-05
1.50607e-05
1.30639e-05
1.14629e-05
1.0234e-05
9.37205e-06
8.85488e-06
8.70408e-06
8.99682e-06
9.82721e-06
1.12365e-05
1.31169e-05
1.51672e-05
1.70102e-05
1.84091e-05
1.93516e-05
1.99534e-05
2.03401e-05
2.05966e-05
2.07666e-05
2.0869e-05
2.09102e-05
2.08928e-05
2.08186e-05
2.06377e-05
2.03607e-05
2.00015e-05
1.95778e-05
1.91102e-05
1.86197e-05
1.81254e-05
1.76421e-05
1.71779e-05
1.67322e-05
1.62956e-05
1.58509e-05
1.53765e-05
1.48514e-05
1.42606e-05
1.36003e-05
1.288e-05
1.2122e-05
1.1356e-05
1.06122e-05
9.91408e-06
9.27644e-06
8.70459e-06
8.19736e-06
7.74946e-06
7.3522e-06
7.02539e-06
6.74806e-06
6.5004e-06
6.27803e-06
6.07746e-06
5.89581e-06
5.73078e-06
5.58065e-06
5.44426e-06
5.32108e-06
5.21116e-06
5.11531e-06
5.03515e-06
4.97324e-06
4.93331e-06
4.92038e-06
4.94095e-06
5.00306e-06
5.11627e-06
5.29139e-06
5.53976e-06
5.87178e-06
6.29505e-06
6.81293e-06
7.42582e-06
8.12341e-06
8.87665e-06
9.66719e-06
1.04759e-05
1.12767e-05
1.2031e-05
1.26899e-05
1.3215e-05
1.36325e-05
1.41092e-05
1.50071e-05
1.68735e-05
2.03621e-05
2.61206e-05
3.46581e-05
4.56605e-05
5.59959e-05
6.22645e-05
7.20904e-05
9.69977e-05
0.000137284
0.000183101
0.000223416
0.000253449
0.000273623
0.000285881
0.000291957
0.000293093
0.000290207
0.000284476
0.000276668
0.000267428
0.000257381
0.000247089
0.00023699
0.0002272
0.00021736
0.00020691
0.000196182
0.000184551
0.000171966
0.00015886
0.000145895
0.000133735
0.000122877
0.000113577
0.000105865
9.96053e-05
9.45831e-05
9.05789e-05
8.74266e-05
8.50307e-05
8.32825e-05
8.17678e-05
7.92115e-05
7.31418e-05
6.3379e-05
5.28003e-05
4.50123e-05
4.28471e-05
4.7768e-05
5.8697e-05
7.1034e-05
8.15011e-05
8.98457e-05
9.46106e-05
9.37383e-05
5.50302e-06
1.06782e-05
9.89094e-06
8.58902e-06
7.93932e-06
8.00522e-06
8.65586e-06
9.72092e-06
1.09989e-05
1.22916e-05
1.34594e-05
1.44435e-05
1.52469e-05
1.58963e-05
1.64136e-05
1.68042e-05
1.70633e-05
1.71867e-05
1.71747e-05
1.68962e-05
1.63339e-05
1.54923e-05
1.44064e-05
1.31623e-05
1.19231e-05
1.09253e-05
1.03985e-05
1.0495e-05
1.13234e-05
1.29981e-05
1.57164e-05
1.98395e-05
2.50457e-05
2.93316e-05
2.88136e-05
2.36126e-05
1.90174e-05
1.57986e-05
1.34629e-05
1.17096e-05
1.04188e-05
9.54323e-06
9.0768e-06
9.05117e-06
9.52292e-06
1.05801e-05
1.22834e-05
1.45522e-05
1.70899e-05
1.94867e-05
2.14543e-05
2.29405e-05
2.40461e-05
2.48963e-05
2.55788e-05
2.61382e-05
2.65905e-05
2.69367e-05
2.71711e-05
2.72858e-05
2.72729e-05
2.71081e-05
2.67295e-05
2.6152e-05
2.53975e-05
2.44987e-05
2.34976e-05
2.24413e-05
2.13775e-05
2.03493e-05
1.93896e-05
1.85173e-05
1.7734e-05
1.70236e-05
1.63562e-05
1.56949e-05
1.50045e-05
1.42604e-05
1.34557e-05
1.26036e-05
1.17338e-05
1.0883e-05
1.00833e-05
9.35617e-06
8.71054e-06
8.14582e-06
7.65583e-06
7.239e-06
6.90516e-06
6.61477e-06
6.35952e-06
6.13375e-06
5.93274e-06
5.75257e-06
5.59006e-06
5.44265e-06
5.30838e-06
5.18581e-06
5.07406e-06
4.97276e-06
4.8822e-06
4.80337e-06
4.73812e-06
4.68935e-06
4.6612e-06
4.65922e-06
4.69058e-06
4.76401e-06
4.88972e-06
5.07884e-06
5.34275e-06
5.69205e-06
6.13572e-06
6.68274e-06
7.33403e-06
8.07457e-06
8.88362e-06
9.72717e-06
1.05547e-05
1.13061e-05
1.1948e-05
1.25536e-05
1.33894e-05
1.4931e-05
1.77989e-05
2.26685e-05
3.0172e-05
4.06225e-05
5.26897e-05
6.19342e-05
6.8617e-05
8.57605e-05
0.000122066
0.000171566
0.00022052
0.000259876
0.000288094
0.000306841
0.000317962
0.000322744
0.000322078
0.000316705
0.000307855
0.000296363
0.000283016
0.000268602
0.000253853
0.000239449
0.00022599
0.000213001
0.000201073
0.000189178
0.000176809
0.000163817
0.000150456
0.000137264
0.000124859
0.000113746
0.000104207
9.62891e-05
8.98613e-05
8.46999e-05
8.05816e-05
7.73514e-05
7.49512e-05
7.33944e-05
7.26546e-05
7.24324e-05
7.17413e-05
6.84906e-05
6.13746e-05
5.19989e-05
4.49052e-05
4.42672e-05
5.11252e-05
6.27146e-05
7.44355e-05
8.33111e-05
8.74744e-05
8.59788e-05
7.5882e-06
9.9898e-06
8.42408e-06
7.77553e-06
8.24978e-06
9.56379e-06
1.13254e-05
1.30912e-05
1.45449e-05
1.5598e-05
1.63249e-05
1.68533e-05
1.72939e-05
1.77103e-05
1.81111e-05
1.84604e-05
1.87082e-05
1.88275e-05
1.8825e-05
1.86149e-05
1.81443e-05
1.73561e-05
1.62272e-05
1.4806e-05
1.32461e-05
1.1823e-05
1.08678e-05
1.06631e-05
1.14711e-05
1.36301e-05
1.75494e-05
2.29995e-05
2.75335e-05
2.78408e-05
2.32014e-05
1.82816e-05
1.48583e-05
1.25637e-05
1.09998e-05
9.96913e-06
9.41259e-06
9.33909e-06
9.80706e-06
1.09056e-05
1.27094e-05
1.51997e-05
1.81608e-05
2.11957e-05
2.39289e-05
2.61971e-05
2.80408e-05
2.95788e-05
3.09136e-05
3.21047e-05
3.31761e-05
3.41305e-05
3.49596e-05
3.56489e-05
3.61801e-05
3.65329e-05
3.66862e-05
3.65082e-05
3.59605e-05
3.50498e-05
3.38031e-05
3.22684e-05
3.0514e-05
2.8624e-05
2.66898e-05
2.48e-05
2.30292e-05
2.14299e-05
2.00265e-05
1.88132e-05
1.77574e-05
1.6809e-05
1.59127e-05
1.50191e-05
1.40958e-05
1.31355e-05
1.2157e-05
1.11978e-05
1.02954e-05
9.47755e-06
8.75673e-06
8.13351e-06
7.6023e-06
7.17928e-06
6.82486e-06
6.52051e-06
6.25751e-06
6.02859e-06
5.82772e-06
5.64997e-06
5.49134e-06
5.34865e-06
5.21939e-06
5.10159e-06
4.99382e-06
4.89512e-06
4.80501e-06
4.72357e-06
4.65152e-06
4.59037e-06
4.54258e-06
4.51182e-06
4.50312e-06
4.52311e-06
4.58014e-06
4.68419e-06
4.84661e-06
5.07958e-06
5.39522e-06
5.80484e-06
6.31942e-06
6.9379e-06
7.64923e-06
8.4276e-06
9.23097e-06
1.00143e-05
1.07769e-05
1.1645e-05
1.29403e-05
1.51747e-05
1.89921e-05
2.50857e-05
3.40567e-05
4.58441e-05
5.79864e-05
6.60394e-05
7.42456e-05
9.83837e-05
0.000143797
0.000197785
0.000246704
0.000284589
0.000311724
0.000329938
0.000340726
0.00034494
0.000343142
0.000335947
0.000324748
0.00031041
0.000293864
0.000276081
0.000257872
0.000239824
0.00022357
0.000208836
0.00019532
0.000182439
0.000169632
0.000156564
0.000143266
0.00013011
0.000117636
0.000106343
9.65437e-05
8.83178e-05
8.1557e-05
7.60541e-05
7.15982e-05
6.80413e-05
6.53244e-05
6.34628e-05
6.24939e-05
6.23986e-05
6.29552e-05
6.34215e-05
6.17262e-05
5.61169e-05
4.81565e-05
4.34041e-05
4.53751e-05
5.2971e-05
6.24192e-05
6.99467e-05
7.30403e-05
7.10432e-05
1.14065e-05
9.21301e-06
7.7624e-06
8.50925e-06
1.06995e-05
1.32559e-05
1.52474e-05
1.64169e-05
1.69769e-05
1.72249e-05
1.73869e-05
1.75995e-05
1.79318e-05
1.83983e-05
1.89513e-05
1.94787e-05
1.98495e-05
2.00051e-05
2.00043e-05
1.97994e-05
1.93331e-05
1.85305e-05
1.73354e-05
1.57712e-05
1.40019e-05
1.23551e-05
1.12433e-05
1.10565e-05
1.2229e-05
1.53153e-05
2.03912e-05
2.51362e-05
2.63203e-05
2.29377e-05
1.80463e-05
1.44314e-05
1.21356e-05
1.06998e-05
9.88299e-06
9.60697e-06
9.8996e-06
1.08451e-05
1.25481e-05
1.50608e-05
1.82778e-05
2.18846e-05
2.54609e-05
2.87013e-05
3.15278e-05
3.4017e-05
3.62779e-05
3.83861e-05
4.03743e-05
4.22463e-05
4.39898e-05
4.55835e-05
4.69992e-05
4.8202e-05
4.91511e-05
4.98038e-05
5.01244e-05
4.98772e-05
4.90979e-05
4.77748e-05
4.59181e-05
4.35702e-05
4.08123e-05
3.77651e-05
3.4581e-05
3.14248e-05
2.84473e-05
2.57597e-05
2.34202e-05
2.14337e-05
1.97599e-05
1.83324e-05
1.70774e-05
1.59235e-05
1.48116e-05
1.37061e-05
1.26017e-05
1.15267e-05
1.05212e-05
9.61227e-06
8.81688e-06
8.13636e-06
7.58857e-06
7.14149e-06
6.7655e-06
6.44812e-06
6.17864e-06
5.94801e-06
5.74879e-06
5.57493e-06
5.42162e-06
5.28506e-06
5.16225e-06
5.05085e-06
4.94907e-06
4.85561e-06
4.76959e-06
4.69059e-06
4.61866e-06
4.55446e-06
4.4994e-06
4.45581e-06
4.42722e-06
4.41861e-06
4.43666e-06
4.48995e-06
4.58896e-06
4.74596e-06
4.97442e-06
5.28812e-06
5.70058e-06
6.22031e-06
6.8448e-06
7.55876e-06
8.33391e-06
9.14612e-06
1.00258e-05
1.11364e-05
1.28303e-05
1.56449e-05
2.02533e-05
2.73701e-05
3.75158e-05
5.01288e-05
6.18899e-05
6.93747e-05
8.00223e-05
0.000109383
0.000158677
0.000213575
0.000261712
0.000298931
0.000326046
0.000344324
0.000355254
0.000359385
0.000356982
0.000348558
0.000335736
0.000319342
0.000300374
0.000280173
0.000259635
0.000239765
0.000221444
0.000204926
0.000190085
0.000176472
0.000163475
0.000150572
0.000137556
0.000124612
0.000112192
0.000100789
9.07551e-05
8.22183e-05
7.51095e-05
6.92502e-05
6.44475e-05
6.05563e-05
5.7501e-05
5.52658e-05
5.38706e-05
5.33434e-05
5.36946e-05
5.4822e-05
5.5989e-05
5.49831e-05
5.01335e-05
4.41125e-05
4.22539e-05
4.55484e-05
5.12845e-05
5.61648e-05
5.78939e-05
5.59425e-05
1.33892e-05
8.349e-06
8.36404e-06
1.17008e-05
1.52965e-05
1.71564e-05
1.76656e-05
1.7622e-05
1.74489e-05
1.73427e-05
1.74009e-05
1.76662e-05
1.81638e-05
1.88975e-05
1.97948e-05
2.06711e-05
2.12792e-05
2.14922e-05
2.13337e-05
2.08383e-05
2.00793e-05
1.90285e-05
1.76265e-05
1.59071e-05
1.40752e-05
1.24967e-05
1.1613e-05
1.19375e-05
1.39165e-05
1.77367e-05
2.21196e-05
2.42313e-05
2.23938e-05
1.81029e-05
1.43509e-05
1.19897e-05
1.06365e-05
9.98426e-06
9.94495e-06
1.05561e-05
1.1928e-05
1.41764e-05
1.7327e-05
2.12082e-05
2.54438e-05
2.96191e-05
3.34841e-05
3.70021e-05
4.02501e-05
4.33119e-05
4.62345e-05
4.90316e-05
5.16996e-05
5.42273e-05
5.65983e-05
5.87881e-05
6.07609e-05
6.2467e-05
6.38431e-05
6.48132e-05
6.52909e-05
6.50993e-05
6.42839e-05
6.27957e-05
6.05989e-05
5.76848e-05
5.40876e-05
4.99038e-05
4.53083e-05
4.05537e-05
3.5933e-05
3.17087e-05
2.80445e-05
2.49796e-05
2.24504e-05
2.03473e-05
1.85666e-05
1.70177e-05
1.56198e-05
1.43116e-05
1.30525e-05
1.18471e-05
1.0738e-05
9.73733e-06
8.87066e-06
8.16294e-06
7.5869e-06
7.10914e-06
6.71364e-06
6.38567e-06
6.11223e-06
5.8824e-06
5.68722e-06
5.51949e-06
5.37354e-06
5.24493e-06
5.13018e-06
5.02665e-06
4.93229e-06
4.84557e-06
4.76539e-06
4.69104e-06
4.62223e-06
4.5591e-06
4.50238e-06
4.45353e-06
4.41496e-06
4.39034e-06
4.38495e-06
4.40594e-06
4.46268e-06
4.56685e-06
4.73228e-06
4.97434e-06
5.30901e-06
5.75044e-06
6.304e-06
6.96436e-06
7.71674e-06
8.55584e-06
9.53611e-06
1.08449e-05
1.28551e-05
1.61277e-05
2.13691e-05
2.93133e-05
4.03649e-05
5.34619e-05
6.4837e-05
7.24246e-05
8.53472e-05
0.000117279
0.000167068
0.00022086
0.000267718
0.000304288
0.000331257
0.000349933
0.000361314
0.000365704
0.000363185
0.000354213
0.00034052
0.000323174
0.000303235
0.000281781
0.000259853
0.000238517
0.000218663
0.000200802
0.000185016
0.000170974
0.000158028
0.000145476
0.000132878
0.000120234
0.00010791
9.64095e-05
8.6138e-05
7.72869e-05
6.98373e-05
6.36437e-05
5.85295e-05
5.43497e-05
5.10104e-05
4.84641e-05
4.66959e-05
4.57177e-05
4.55774e-05
4.63638e-05
4.81009e-05
4.9609e-05
4.87268e-05
4.46101e-05
4.09386e-05
4.096e-05
4.35313e-05
4.6069e-05
4.68239e-05
4.54427e-05
1.41722e-05
7.994e-06
1.14738e-05
1.70479e-05
1.88176e-05
1.85415e-05
1.79545e-05
1.74805e-05
1.71831e-05
1.71026e-05
1.72629e-05
1.76658e-05
1.83351e-05
1.93056e-05
2.05237e-05
2.17778e-05
2.26927e-05
2.28601e-05
2.20842e-05
2.10252e-05
1.98775e-05
1.85564e-05
1.69624e-05
1.51855e-05
1.35772e-05
1.24946e-05
1.22863e-05
1.33383e-05
1.58682e-05
1.93055e-05
2.17909e-05
2.13426e-05
1.8149e-05
1.4529e-05
1.20338e-05
1.0691e-05
1.01558e-05
1.02953e-05
1.11536e-05
1.28581e-05
1.55379e-05
1.92038e-05
2.36443e-05
2.84515e-05
3.32141e-05
3.77018e-05
4.18777e-05
4.57935e-05
4.95019e-05
5.303e-05
5.63884e-05
5.95836e-05
6.26211e-05
6.55025e-05
6.82189e-05
7.07467e-05
7.30457e-05
7.50594e-05
7.67172e-05
7.79376e-05
7.85496e-05
7.85369e-05
7.78827e-05
7.65229e-05
7.43973e-05
7.14538e-05
6.76548e-05
6.29964e-05
5.75494e-05
5.15144e-05
4.52543e-05
3.92363e-05
3.38828e-05
2.9414e-05
2.5794e-05
2.28382e-05
2.03823e-05
1.83091e-05
1.65209e-05
1.49414e-05
1.34943e-05
1.2139e-05
1.09257e-05
9.83198e-06
8.93584e-06
8.19011e-06
7.57392e-06
7.06963e-06
6.65887e-06
6.32429e-06
6.05061e-06
5.82499e-06
5.63694e-06
5.4781e-06
5.34193e-06
5.22337e-06
5.11851e-06
5.0244e-06
4.9388e-06
4.86004e-06
4.78689e-06
4.71852e-06
4.65444e-06
4.59451e-06
4.53905e-06
4.48892e-06
4.44576e-06
4.41224e-06
4.3924e-06
4.39209e-06
4.41938e-06
4.4849e-06
4.60202e-06
4.78666e-06
5.05659e-06
5.42994e-06
5.91896e-06
6.52749e-06
7.25306e-06
8.1062e-06
9.15908e-06
1.06145e-05
1.28584e-05
1.64712e-05
2.21906e-05
3.07683e-05
4.24934e-05
5.59106e-05
6.71381e-05
7.52417e-05
8.95819e-05
0.000121556
0.000169373
0.00022082
0.000266134
0.000302084
0.000329011
0.000347988
0.000359743
0.000364498
0.000362293
0.000353548
0.000339876
0.000322414
0.000302191
0.000280231
0.000257597
0.000235395
0.00021462
0.000195966
0.000179704
0.000165603
0.000152975
0.000140943
0.000128851
0.000116534
0.000104295
9.26658e-05
8.21283e-05
7.29507e-05
6.51708e-05
5.86776e-05
5.33112e-05
4.89276e-05
4.54179e-05
4.27026e-05
4.07234e-05
3.9446e-05
3.88814e-05
3.91269e-05
4.0389e-05
4.25263e-05
4.40538e-05
4.30628e-05
4.00651e-05
3.83032e-05
3.87224e-05
3.97977e-05
4.01832e-05
3.95368e-05
1.41692e-05
8.83303e-06
1.71794e-05
2.04893e-05
1.96076e-05
1.84444e-05
1.76412e-05
1.71379e-05
1.68802e-05
1.6874e-05
1.71061e-05
1.75431e-05
1.81936e-05
1.91239e-05
2.02976e-05
2.14804e-05
2.21255e-05
2.17335e-05
2.08102e-05
1.96922e-05
1.84402e-05
1.70408e-05
1.5553e-05
1.41864e-05
1.31977e-05
1.28158e-05
1.33121e-05
1.48887e-05
1.72946e-05
1.94908e-05
1.98909e-05
1.78919e-05
1.48107e-05
1.22547e-05
1.082e-05
1.03305e-05
1.05867e-05
1.16028e-05
1.35156e-05
1.64676e-05
2.04768e-05
2.53259e-05
3.05978e-05
3.58728e-05
4.09045e-05
4.5625e-05
5.00506e-05
5.42095e-05
5.81249e-05
6.18203e-05
6.5324e-05
6.86647e-05
7.18635e-05
7.49272e-05
7.78436e-05
8.05807e-05
8.30868e-05
8.52934e-05
8.7119e-05
8.84754e-05
8.91545e-05
8.92406e-05
8.86786e-05
8.74115e-05
8.53898e-05
8.25687e-05
7.88981e-05
7.43146e-05
6.87598e-05
6.22559e-05
5.50293e-05
4.75712e-05
4.05351e-05
3.4488e-05
2.96104e-05
2.56758e-05
2.24394e-05
1.9748e-05
1.74843e-05
1.55674e-05
1.39029e-05
1.23831e-05
1.1063e-05
9.93634e-06
8.98031e-06
8.18574e-06
7.53668e-06
7.01289e-06
6.59316e-06
6.25751e-06
5.98841e-06
5.77117e-06
5.59385e-06
5.44698e-06
5.32321e-06
5.21687e-06
5.1237e-06
5.04048e-06
4.96484e-06
4.89503e-06
4.82979e-06
4.76823e-06
4.7098e-06
4.65425e-06
4.60165e-06
4.55251e-06
4.50791e-06
4.46976e-06