/*--------------------------------*- C++ -*----------------------------------*\
| =========                 |                                                 |
| \\      /  F ield         | OpenFOAM: The Open Source CFD Toolbox           |
|  \\    /   O peration     | Version:  2112                                  |
|   \\  /    A nd           | Website:  www.openfoam.com                      |
|    \\/     M anipulation  |                                                 |
\*---------------------------------------------------------------------------*/
FoamFile
{
    version     2.0;
    format      ascii;
    arch        "LSB;label=32;scalar=64";
    class       volVectorField;
    location    "0.09";
    object      U_0;
}
// * * * * * * * * * * * * * * * * * * * * * * * * * * * * * * * * * * * * * //

dimensions      [0 1 -1 0 0 0 0];

internalField   nonuniform List<vector> 
12225
(
(9.77658 -0.113235 0)
(9.31812 -0.0822573 0)
(8.82672 -0.0382859 0)
(8.31735 -0.00423476 0)
(7.80986 0.0197634 0)
(7.30633 0.0366723 0)
(6.79933 0.0499288 0)
(6.28012 0.0618343 0)
(5.74011 0.0735527 0)
(5.17142 0.0852828 0)
(4.56904 0.0961005 0)
(3.93435 0.103701 0)
(3.27847 0.104565 0)
(2.62336 0.0951623 0)
(1.99793 0.0737664 0)
(1.4448 0.0420118 0)
(0.964685 0.0105456 0)
(0.706121 -0.0338553 0)
(10.0958 0.128736 0)
(10.2946 0.203616 0)
(10.4246 0.204843 0)
(10.491 0.199927 0)
(10.5087 0.19786 0)
(10.4817 0.198899 0)
(10.4093 0.204431 0)
(10.2897 0.215533 0)
(10.1189 0.232752 0)
(9.88997 0.256191 0)
(9.59349 0.284943 0)
(9.21938 0.316384 0)
(8.76066 0.345858 0)
(8.21765 0.367382 0)
(7.59994 0.374999 0)
(6.93352 0.36593 0)
(6.22497 0.341151 0)
(5.54044 0.319967 0)
(10.0064 0.0292831 0)
(10.0444 0.0306528 0)
(10.0873 0.0292654 0)
(10.127 0.0450334 0)
(10.1685 0.0682571 0)
(10.2126 0.0935759 0)
(10.2566 0.121666 0)
(10.2985 0.154314 0)
(10.3373 0.193115 0)
(10.3708 0.239388 0)
(10.3946 0.293525 0)
(10.4005 0.354117 0)
(10.3761 0.417325 0)
(10.3055 0.477096 0)
(10.1724 0.526043 0)
(9.9654 0.559847 0)
(9.68136 0.577788 0)
(9.32925 0.591701 0)
(10.0044 0.0270756 0)
(10.025 0.0637346 0)
(10.042 0.087308 0)
(10.0466 0.107519 0)
(10.0455 0.125213 0)
(10.0435 0.141458 0)
(10.0416 0.159223 0)
(10.0409 0.181139 0)
(10.0441 0.209059 0)
(10.0551 0.244379 0)
(10.0783 0.287935 0)
(10.1175 0.339505 0)
(10.1746 0.397303 0)
(10.2465 0.457829 0)
(10.3242 0.516287 0)
(10.3933 0.568784 0)
(10.4421 0.614304 0)
(10.4609 0.645511 0)
(10.0033 0.0254375 0)
(10.0194 0.0606264 0)
(10.0327 0.0775286 0)
(10.035 0.0907375 0)
(10.0306 0.105979 0)
(10.023 0.123498 0)
(10.0122 0.144101 0)
(9.99827 0.16905 0)
(9.98259 0.199255 0)
(9.96761 0.235218 0)
(9.9565 0.276942 0)
(9.9531 0.323644 0)
(9.96162 0.373623 0)
(9.98566 0.42444 0)
(10.027 0.473506 0)
(10.0848 0.518607 0)
(10.1556 0.559008 0)
(10.2392 0.585106 0)
(10.0022 0.022367 0)
(10.0142 0.0551521 0)
(10.0253 0.0741095 0)
(10.0283 0.0910149 0)
(10.0253 0.110277 0)
(10.019 0.131215 0)
(10.0097 0.15415 0)
(9.99722 0.180407 0)
(9.98252 0.211046 0)
(9.96712 0.246564 0)
(9.95274 0.286843 0)
(9.94108 0.33097 0)
(9.93377 0.377171 0)
(9.93202 0.42304 0)
(9.93649 0.46607 0)
(9.94754 0.504126 0)
(9.96426 0.535703 0)
(9.98992 0.555846 0)
(10.0015 0.0198106 0)
(10.0104 0.0516517 0)
(10.0195 0.0732688 0)
(10.0227 0.0922346 0)
(10.0204 0.112433 0)
(10.015 0.133997 0)
(10.0071 0.157532 0)
(9.9968 0.184343 0)
(9.98485 0.215381 0)
(9.97261 0.250967 0)
(9.96143 0.290841 0)
(9.95245 0.334087 0)
(9.9464 0.379119 0)
(9.94329 0.423859 0)
(9.94227 0.466093 0)
(9.9418 0.503898 0)
(9.93982 0.535642 0)
(9.9344 0.558554 0)
(10.0011 0.0179425 0)
(10.0076 0.0488698 0)
(10.015 0.0719978 0)
(10.018 0.0921868 0)
(10.0164 0.113196 0)
(10.0119 0.135809 0)
(10.0053 0.160556 0)
(9.99684 0.188397 0)
(9.98717 0.220049 0)
(9.97742 0.255694 0)
(9.96875 0.295016 0)
(9.96209 0.337192 0)
(9.95795 0.380914 0)
(9.95616 0.424554 0)
(9.95576 0.466446 0)
(9.95482 0.505184 0)
(9.95101 0.539786 0)
(9.94012 0.568778 0)
(10.0007 0.0165462 0)
(10.0056 0.0464709 0)
(10.0114 0.0705905 0)
(10.0143 0.092047 0)
(10.0133 0.11413 0)
(10.0099 0.137864 0)
(10.0047 0.163679 0)
(9.99799 0.192288 0)
(9.99042 0.224273 0)
(9.98288 0.259769 0)
(9.97631 0.298461 0)
(9.97142 0.339629 0)
(9.9685 0.382212 0)
(9.96731 0.424968 0)
(9.96699 0.466718 0)
(9.96584 0.506594 0)
(9.96187 0.544328 0)
(9.9514 0.579747 0)
(10.0005 0.0154805 0)
(10.0041 0.0444512 0)
(10.0088 0.0692495 0)
(10.0115 0.0918448 0)
(10.0113 0.11489 0)
(10.0089 0.139499 0)
(10.0051 0.166115 0)
(10.0002 0.195296 0)
(9.99469 0.227508 0)
(9.98932 0.262838 0)
(9.9848 0.300986 0)
(9.98163 0.341339 0)
(9.97995 0.383063 0)
(9.97945 0.425252 0)
(9.97935 0.467139 0)
(9.97826 0.508319 0)
(9.97467 0.549026 0)
(9.96597 0.589963 0)
(10.0004 0.0146543 0)
(10.0031 0.0427639 0)
(10.0069 0.0679599 0)
(10.0096 0.0914475 0)
(10.01 0.115289 0)
(10.0088 0.140601 0)
(10.0064 0.167855 0)
(10.0033 0.197487 0)
(9.99989 0.229842 0)
(9.99667 0.264971 0)
(9.9942 0.302609 0)
(9.99284 0.342261 0)
(9.99262 0.383304 0)
(9.99321 0.425117 0)
(9.99398 0.467261 0)
(9.99387 0.509663 0)
(9.99188 0.552811 0)
(9.98632 0.597756 0)
(10.0003 0.0140354 0)
(10.0025 0.0414213 0)
(10.0058 0.0667821 0)
(10.0084 0.0908817 0)
(10.0096 0.11532 0)
(10.0094 0.141145 0)
(10.0084 0.168835 0)
(10.0069 0.198738 0)
(10.0054 0.231113 0)
(10.0041 0.26599 0)
(10.0036 0.303153 0)
(10.0039 0.342214 0)
(10.0053 0.382717 0)
(10.0073 0.424254 0)
(10.0094 0.466603 0)
(10.011 0.509873 0)
(10.0114 0.55461 0)
(10.0096 0.601865 0)
(10.0002 0.0135265 0)
(10.0021 0.040225 0)
(10.005 0.0655549 0)
(10.0078 0.0900431 0)
(10.0096 0.114918 0)
(10.0105 0.141103 0)
(10.0109 0.169063 0)
(10.0111 0.199089 0)
(10.0114 0.231373 0)
(10.0121 0.265935 0)
(10.0134 0.302602 0)
(10.0157 0.341081 0)
(10.0187 0.381047 0)
(10.0224 0.422245 0)
(10.0264 0.46459 0)
(10.0301 0.508268 0)
(10.0334 0.55377 0)
(10.0358 0.601985 0)
(10.0002 0.0130118 0)
(10.0018 0.0389385 0)
(10.0046 0.0640492 0)
(10.0076 0.0887298 0)
(10.0103 0.113887 0)
(10.0125 0.140284 0)
(10.0145 0.16835 0)
(10.0166 0.198331 0)
(10.019 0.230367 0)
(10.0218 0.264466 0)
(10.0254 0.300502 0)
(10.0299 0.338266 0)
(10.0351 0.377547 0)
(10.0411 0.418201 0)
(10.0475 0.46022 0)
(10.0542 0.503787 0)
(10.0612 0.549248 0)
(10.0683 0.597237 0)
(10.0002 0.0124536 0)
(10.0017 0.0374643 0)
(10.0045 0.0620972 0)
(10.0081 0.0866625 0)
(10.0117 0.111816 0)
(10.0154 0.138155 0)
(10.0193 0.16605 0)
(10.0235 0.195705 0)
(10.0282 0.22722 0)
(10.0336 0.260597 0)
(10.0398 0.295746 0)
(10.0469 0.332528 0)
(10.0548 0.370808 0)
(10.0636 0.410502 0)
(10.0732 0.451614 0)
(10.0835 0.494251 0)
(10.0946 0.538572 0)
(10.1067 0.584932 0)
(10.0002 0.0117881 0)
(10.0018 0.0356163 0)
(10.0049 0.0593959 0)
(10.0092 0.0834031 0)
(10.0141 0.108117 0)
(10.0195 0.133981 0)
(10.0254 0.16129 0)
(10.032 0.190207 0)
(10.0394 0.220798 0)
(10.0476 0.253056 0)
(10.0567 0.286915 0)
(10.0669 0.322275 0)
(10.078 0.359034 0)
(10.0902 0.397122 0)
(10.1033 0.436502 0)
(10.1176 0.477183 0)
(10.1331 0.519151 0)
(10.1499 0.562549 0)
(10.0002 0.0109108 0)
(10.0021 0.0330886 0)
(10.0058 0.0554571 0)
(10.011 0.0782769 0)
(10.0174 0.101907 0)
(10.0248 0.126665 0)
(10.0331 0.152764 0)
(10.0423 0.180319 0)
(10.0526 0.209369 0)
(10.0639 0.23989 0)
(10.0763 0.271818 0)
(10.0899 0.30506 0)
(10.1046 0.339519 0)
(10.1204 0.3751 0)
(10.1375 0.411715 0)
(10.1558 0.449287 0)
(10.1755 0.487691 0)
(10.1966 0.526948 0)
(10.0003 0.009657 0)
(10.0025 0.0294106 0)
(10.007 0.049553 0)
(10.0136 0.0703297 0)
(10.0218 0.0920121 0)
(10.0314 0.11481 0)
(10.0423 0.138858 0)
(10.0544 0.164219 0)
(10.0678 0.190893 0)
(10.0825 0.218834 0)
(10.0984 0.247964 0)
(10.1155 0.278181 0)
(10.1339 0.309374 0)
(10.1535 0.341425 0)
(10.1744 0.37421 0)
(10.1966 0.407607 0)
(10.2201 0.44145 0)
(10.2448 0.475716 0)
(10.0003 0.00776677 0)
(10.0032 0.0238033 0)
(10.0089 0.0404295 0)
(10.0172 0.0578882 0)
(10.0275 0.076372 0)
(10.0396 0.0959896 0)
(10.0533 0.116794 0)
(10.0686 0.138792 0)
(10.0852 0.16194 0)
(10.1033 0.186155 0)
(10.1228 0.211328 0)
(10.1435 0.237339 0)
(10.1655 0.264059 0)
(10.1888 0.291356 0)
(10.2133 0.319093 0)
(10.2389 0.34714 0)
(10.2657 0.375335 0)
(10.2935 0.403647 0)
(10.0004 0.00558824 0)
(10.0039 0.0173119 0)
(10.0108 0.0298452 0)
(10.0209 0.0434574 0)
(10.0332 0.0582607 0)
(10.0475 0.0742554 0)
(10.0636 0.091418 0)
(10.0814 0.109712 0)
(10.1007 0.129065 0)
(10.1214 0.149368 0)
(10.1434 0.170495 0)
(10.1667 0.192317 0)
(10.1913 0.214699 0)
(10.217 0.237504 0)
(10.2437 0.260594 0)
(10.2715 0.283844 0)
(10.3003 0.307111 0)
(10.3298 0.330374 0)
(10.0005 0.00348632 0)
(10.0046 0.011104 0)
(10.0127 0.01986 0)
(10.0242 0.0300383 0)
(10.0382 0.0416275 0)
(10.0542 0.054514 0)
(10.0721 0.0686079 0)
(10.0917 0.0838169 0)
(10.1129 0.100007 0)
(10.1354 0.117025 0)
(10.1593 0.13473 0)
(10.1845 0.152996 0)
(10.2108 0.171701 0)
(10.2381 0.19072 0)
(10.2664 0.209927 0)
(10.2957 0.229211 0)
(10.3258 0.248444 0)
(10.3565 0.267599 0)
(10.0006 0.0013221 0)
(10.0054 0.0047939 0)
(10.0149 0.00994208 0)
(10.0279 0.0169828 0)
(10.0435 0.025623 0)
(10.061 0.0356194 0)
(10.0804 0.0469351 0)
(10.1014 0.0595455 0)
(10.1239 0.0732242 0)
(10.1478 0.0877437 0)
(10.1729 0.102944 0)
(10.1991 0.118679 0)
(10.2265 0.134796 0)
(10.2548 0.151152 0)
(10.284 0.167615 0)
(10.314 0.184073 0)
(10.3447 0.200418 0)
(10.3759 0.216625 0)
(10.0007 -0.000955461 0)
(10.0065 -0.0016969 0)
(10.0175 7.34003e-05 0)
(10.0321 0.00443523 0)
(10.049 0.0106128 0)
(10.0679 0.0180318 0)
(10.0888 0.0264934 0)
(10.1114 0.0361642 0)
(10.1353 0.0468344 0)
(10.1604 0.0582141 0)
(10.1867 0.0702093 0)
(10.2141 0.0827815 0)
(10.2424 0.0957909 0)
(10.2716 0.109069 0)
(10.3015 0.122484 0)
(10.3321 0.135938 0)
(10.3634 0.149321 0)
(10.3953 0.162599 0)
(10.0009 -0.0034154 0)
(10.008 -0.00835689 0)
(10.0209 -0.00972547 0)
(10.0373 -0.00791382 0)
(10.0554 -0.00381082 0)
(10.075 0.00229292 0)
(10.0966 0.0102326 0)
(10.12 0.0192097 0)
(10.1447 0.0291369 0)
(10.1704 0.0396549 0)
(10.1974 0.0504968 0)
(10.2255 0.0616696 0)
(10.2545 0.0731601 0)
(10.2843 0.0847734 0)
(10.3147 0.0963431 0)
(10.3458 0.1078 0)
(10.3774 0.119101 0)
(10.4092 0.130218 0)
(10.0012 -0.00625876 0)
(10.01 -0.0151517 0)
(10.025 -0.0183898 0)
(10.0432 -0.0190635 0)
(10.063 -0.0189801 0)
(10.0847 -0.0175126 0)
(10.1078 -0.0140815 0)
(10.1322 -0.00925454 0)
(10.1577 -0.00339305 0)
(10.184 0.00383143 0)
(10.2114 0.0122072 0)
(10.2399 0.0210699 0)
(10.2693 0.030398 0)
(10.2993 0.040075 0)
(10.3298 0.0498619 0)
(10.361 0.059557 0)
(10.3927 0.0691068 0)
(10.4249 0.0785605 0)
(10.0018 -0.00969973 0)
(10.0135 -0.0239281 0)
(10.0307 -0.0265054 0)
(10.0489 -0.0232728 0)
(10.0682 -0.0193038 0)
(10.0899 -0.0151728 0)
(10.1137 -0.01052 0)
(10.1389 -0.00504557 0)
(10.1653 0.000926178 0)
(10.193 0.00764314 0)
(10.2215 0.015078 0)
(10.2507 0.0228764 0)
(10.2809 0.0304316 0)
(10.3115 0.0378692 0)
(10.3425 0.0454652 0)
(10.3739 0.0529834 0)
(10.4059 0.0602761 0)
(10.4378 0.067394 0)
(10.0024 -0.0116851 0)
(10.0186 -0.0358215 0)
(10.0415 -0.0524554 0)
(10.0625 -0.0622727 0)
(10.0826 -0.0667401 0)
(10.1049 -0.0668421 0)
(10.1293 -0.0639424 0)
(10.1553 -0.0591049 0)
(10.1825 -0.0529405 0)
(10.211 -0.0461697 0)
(10.2405 -0.0390678 0)
(10.2704 -0.0315865 0)
(10.3009 -0.0242066 0)
(10.3323 -0.0169563 0)
(10.3641 -0.00982262 0)
(10.3961 -0.00252588 0)
(10.4286 0.00477221 0)
(10.4615 0.0119495 0)
(10.0015 -0.0107079 0)
(10.0197 -0.00226449 0)
(10.0498 0.00707562 0)
(10.083 0.00510264 0)
(10.1187 -0.000946617 0)
(10.1574 -0.00580045 0)
(10.1976 -0.00884146 0)
(10.2381 -0.0103943 0)
(10.2782 -0.010612 0)
(10.3178 -0.0097298 0)
(10.3564 -0.0078748 0)
(10.3939 -0.00521693 0)
(10.4302 -0.00168629 0)
(10.4654 0.00238836 0)
(10.4997 0.00660221 0)
(10.5331 0.0110263 0)
(10.5658 0.0155366 0)
(10.5971 0.0196473 0)
(10.0466 -0.0917084 0)
(10.1687 -0.152742 0)
(10.2726 -0.154875 0)
(10.3571 -0.148997 0)
(10.4281 -0.14241 0)
(10.4861 -0.134286 0)
(10.531 -0.125366 0)
(10.5646 -0.116332 0)
(10.5896 -0.10733 0)
(10.6084 -0.0984288 0)
(10.6229 -0.0896658 0)
(10.6346 -0.0810375 0)
(10.6448 -0.0724994 0)
(10.6544 -0.06424 0)
(10.6642 -0.0563024 0)
(10.6746 -0.0489979 0)
(10.6857 -0.0422983 0)
(10.6981 -0.0366981 0)
(9.8869 0.0905036 0)
(9.64952 0.0657553 0)
(9.37567 0.0308342 0)
(9.08527 0.00474069 0)
(8.80336 -0.012167 0)
(8.54091 -0.0215243 0)
(8.30099 -0.0258317 0)
(8.08491 -0.0269961 0)
(7.89324 -0.0261639 0)
(7.72547 -0.0240866 0)
(7.58027 -0.0212603 0)
(7.45601 -0.0179944 0)
(7.35118 -0.0144876 0)
(7.26415 -0.0109425 0)
(7.19314 -0.00750122 0)
(7.13618 -0.00438711 0)
(7.09092 -0.00157731 0)
(7.05687 0.000545605 0)
(-0.375039 0.742577 -5.00082e-20)
(-1.03963 0.59041 4.56133e-20)
(-1.68307 0.291225 0)
(-2.22443 -0.0612295 0)
(-2.3537 -0.466509 0)
(-1.8727 -0.921329 -4.01856e-20)
(-1.03605 -1.37027 0)
(0.0889215 -1.65317 0)
(1.3545 -1.73723 0)
(2.66054 -1.66354 0)
(3.91352 -1.49498 2.32471e-20)
(5.03057 -1.27765 0)
(5.96797 -1.03875 0)
(6.71226 -0.792068 0)
(7.26108 -0.542105 0)
(7.60889 -0.286929 2.97545e-20)
(7.77633 -0.0115118 0)
(7.69367 0.284816 0)
(7.36821 0.588057 0)
(6.81195 0.871746 0)
(6.03707 1.10241 0)
(5.06862 1.24109 0)
(3.95922 1.24541 0)
(2.78024 1.07869 3.79232e-20)
(1.65287 0.679216 -4.32967e-20)
(0.812365 0.137504 4.9632e-20)
(0.246313 0.0665371 5.45476e-20)
(-0.236388 0.246021 0)
(-0.687641 0.23225 0)
(-1.10828 0.0657312 -5.206e-20)
(-1.40893 -0.1872 -5.19929e-20)
(-1.41203 -0.478639 0)
(-1.05911 -0.819101 0)
(-0.357525 -1.13687 -4.95486e-20)
(0.560942 -1.18292 0)
(1.45125 -0.906833 0)
(2.10161 -0.482516 3.98904e-20)
(2.30667 -0.0846273 0)
(2.09837 0.226588 4.00928e-20)
(1.84105 0.400078 8.12078e-20)
(1.74591 0.207578 0)
(1.73833 -0.334637 0)
(1.6912 -0.726564 0)
(1.47618 -0.537433 0)
(0.874267 0.0544068 0)
(-0.11836 0.545599 8.63906e-20)
(-1.28773 0.83669 7.66604e-20)
(-2.53976 1.00717 7.02777e-20)
(-3.8085 1.08086 0)
(-5.03921 1.07925 -6.64974e-20)
(-6.19162 1.02316 0)
(-7.23872 0.930998 6.87271e-20)
(-8.16504 0.817867 7.05819e-20)
(-8.96401 0.695359 0)
(-9.63539 0.571856 0)
(-10.183 0.453021 0)
(-10.6133 0.342541 7.68144e-20)
(-10.9345 0.243216 0)
(-11.1553 0.157507 0)
(-11.2852 0.0869649 0)
(-11.3338 0.0314523 0)
(-11.3122 -0.0103464 0)
(-11.2448 -0.0418073 0)
(-11.1341 -0.0677452 0)
(-10.9866 -0.0899496 0)
(-10.8064 -0.109369 -6.9304e-20)
(-10.597 -0.126632 0)
(-10.3608 -0.142234 0)
(-10.0997 -0.156623 6.06635e-20)
(-9.81501 -0.170223 5.72798e-20)
(-9.50724 -0.183425 0)
(-9.1764 -0.196567 -4.97838e-20)
(-8.82197 -0.209905 4.56654e-20)
(-8.44307 -0.223579 0)
(-8.03867 -0.237581 -3.66615e-20)
(-7.6079 -0.251731 0)
(-7.15037 -0.265665 0)
(-6.66649 -0.278855 2.12692e-20)
(-6.15781 -0.290651 0)
(-5.6272 -0.300352 -1.00177e-20)
(-5.07886 -0.307298 0)
(-4.51821 -0.310959 -1.50896e-21)
(-3.95158 -0.311005 -7.17605e-21)
(-3.38578 -0.307344 -1.26643e-20)
(-2.8276 -0.300122 -3.57862e-20)
(-2.28345 -0.289705 4.55829e-20)
(-1.75899 -0.276605 0)
(-1.25868 -0.261359 0)
(-0.785827 -0.244322 0)
(-0.342685 -0.2257 7.63653e-20)
(0.0699038 -0.206545 7.90276e-20)
(0.452008 -0.187022 -7.781e-20)
(0.803932 -0.168414 0)
(1.12551 -0.150945 7.36862e-20)
(1.41818 -0.134677 7.13885e-20)
(1.68363 -0.119637 6.9048e-20)
(1.92356 -0.105807 0)
(2.13972 -0.0931341 0)
(2.33382 -0.0815458 0)
(2.50749 -0.0709565 6.01571e-20)
(2.66224 -0.0612744 0)
(2.79945 -0.0523849 0)
(2.92034 -0.0441696 -5.4541e-20)
(3.02592 -0.0365955 0)
(3.11711 -0.029446 0)
(3.19441 -0.022092 -4.99895e-20)
(3.25685 -0.0150267 0)
(3.30515 -0.00762548 0)
(3.33866 0.008177 4.65815e-20)
(3.33573 0.0363297 4.56734e-20)
(3.28759 0.0730587 0)
(3.19093 0.110763 -4.43475e-20)
(3.04468 0.143994 0)
(2.85172 0.166754 4.34998e-20)
(2.62106 0.172918 0)
(2.36852 0.157735 4.26886e-20)
(2.1169 0.121567 4.21635e-20)
(1.89029 0.0725805 0)
(1.70633 0.0232847 0)
(1.57245 -0.0163921 0)
(1.48716 -0.0428512 0)
(1.44382 -0.0573675 0)
(1.43342 -0.0624188 0)
(1.44625 -0.0605567 0)
(1.47514 -0.05524 3.7562e-20)
(1.51715 -0.0497447 -3.69765e-20)
(1.57168 -0.0458278 0)
(1.6384 -0.0437138 0)
(1.71551 -0.0427384 0)
(1.79939 -0.0423334 0)
(1.88597 -0.0423264 -6.86404e-20)
(1.97229 -0.042613 0)
(2.05753 -0.0431246 6.64309e-20)
(2.14332 -0.0438879 -6.52658e-20)
(2.23192 -0.0447533 0)
(2.32219 -0.0451712 0)
(2.40781 -0.0451175 0)
(2.48463 -0.0466621 6.04854e-20)
(2.56376 -0.0528874 5.91718e-20)
(2.67347 -0.0604502 0)
(2.83413 -0.0507541 5.73685e-20)
(3.01168 -0.00332071 5.71401e-20)
(3.10863 0.0612174 -5.70057e-20)
(3.08093 0.0872796 0)
(3.00108 0.0583722 0)
(2.94388 0.00946211 -5.55744e-20)
(2.94112 -0.0241108 0)
(2.96694 -0.0369587 0)
(2.94529 -0.0354212 0)
(2.76345 -0.00172837 0)
(2.302 0.095221 4.36783e-20)
(1.50279 0.231659 3.1165e-20)
(0.436755 0.3326 0)
(-0.727523 0.365777 -1.21045e-20)
(-1.86338 0.354342 0)
(-2.9051 0.318517 0)
(-3.81373 0.269193 -7.586e-20)
(-4.56646 0.212727 0)
(-5.14876 0.153508 -1.01273e-19)
(-5.55189 0.0955862 0)
(-5.77404 0.0426612 0)
(-5.81721 -0.0022695 -1.04785e-19)
(-5.71995 -0.0384548 0)
(-5.49688 -0.0700251 -8.35368e-20)
(-5.1612 -0.0973599 0)
(-4.72832 -0.120017 0)
(-4.2155 -0.13767 0)
(-3.64097 -0.150287 9.10212e-21)
(-3.02279 -0.158122 0)
(-2.378 -0.161622 3.07803e-20)
(-1.72199 -0.161342 0)
(-1.06799 -0.157855 0)
(-0.426319 -0.151704 0)
(0.193261 -0.143442 0)
(0.782102 -0.134111 0)
(1.33163 -0.126091 0)
(1.84697 -0.119842 0)
(2.31059 -0.122335 -1.99352e-19)
(2.78695 -0.109835 0)
(3.12187 -0.0417437 0)
(-0.0654958 1.84046 1.52833e-19)
(-0.16484 1.60391 -1.54266e-19)
(-0.260829 1.31443 0)
(-0.304045 0.978504 1.18204e-19)
(0.505049 -0.203621 0)
(1.44224 -1.80945 3.75659e-20)
(2.5333 -3.08003 -6.40474e-20)
(3.64069 -3.78112 -5.39461e-20)
(4.68879 -3.96575 0)
(5.63323 -3.78453 -4.82123e-20)
(6.45449 -3.39071 -1.72604e-20)
(7.14856 -2.89514 0)
(7.71937 -2.36311 0)
(8.174 -1.82722 0)
(8.52128 -1.29933 0)
(8.77182 -0.779101 -2.69589e-20)
(8.9159 -0.25581 0)
(9.00968 0.283967 6.75432e-20)
(9.03259 0.84147 0)
(8.95142 1.40731 0)
(8.72925 1.95962 -6.06012e-20)
(8.32541 2.45731 0)
(7.70634 2.83579 5.66933e-20)
(6.85184 3.01687 -2.43383e-20)
(5.77328 2.90924 2.6539e-20)
(4.5505 2.48591 -3.0185e-20)
(3.23859 1.90694 -3.48804e-20)
(2.05682 1.36484 0)
(1.24188 0.99769 0)
(0.720273 0.804652 5.19642e-20)
(0.460948 0.563295 -5.88299e-20)
(0.370548 -0.125575 0)
(0.618861 -1.16925 0)
(1.1165 -2.12311 4.10785e-20)
(1.62557 -2.32338 0)
(2.00613 -1.75015 0)
(2.15831 -0.819154 -3.89728e-20)
(2.14147 0.046164 0)
(1.99615 0.412435 4.11309e-20)
(1.75283 0.133482 -8.08022e-20)
(1.30718 -0.0562931 0)
(0.17375 0.56047 0)
(-1.36755 1.32432 -1.45734e-19)
(-2.92411 1.95481 -1.25128e-19)
(-4.44645 2.43586 -1.11287e-19)
(-5.87146 2.7113 5.63314e-20)
(-7.14649 2.79604 -4.36009e-20)
(-8.25594 2.73277 -1.41867e-19)
(-9.18688 2.56203 1.01839e-19)
(-9.94023 2.32221 4.64069e-20)
(-10.5286 2.04604 0)
(-10.972 1.7587 -5.37213e-20)
(-11.2937 1.47759 6.9297e-20)
(-11.5171 1.21326 0)
(-11.6636 0.970998 0)
(-11.7515 0.752474 0)
(-11.7953 0.557151 -7.15287e-20)
(-11.8058 0.383633 0)
(-11.7914 0.230707 1.55337e-19)
(-11.7574 0.0978186 0)
(-11.7048 -0.0156923 1.55025e-19)
(-11.6317 -0.111799 0)
(-11.5218 -0.193038 -1.49498e-19)
(-11.3796 -0.263169 0)
(-11.2059 -0.324349 1.415e-19)
(-11.0032 -0.37817 -6.93939e-20)
(-10.7738 -0.425984 0)
(-10.5198 -0.469048 -1.25519e-19)
(-10.2428 -0.508594 -5.86876e-20)
(-9.94388 -0.545827 -5.53409e-20)
(-9.62329 -0.581881 0)
(-9.28084 -0.617753 -4.99299e-20)
(-8.91573 -0.654203 -4.39022e-20)
(-8.52678 -0.691654 0)
(-8.11262 -0.730087 3.50959e-20)
(-7.67201 -0.768967 -6.29669e-20)
(-7.20423 -0.807206 0)
(-6.70941 -0.843218 -2.02086e-20)
(-6.18895 -0.875038 0)
(-5.6457 -0.900555 3.05811e-20)
(-5.08401 -0.917783 0)
(-4.50962 -0.925148 2.37033e-21)
(-3.92928 -0.921719 6.74783e-21)
(-3.3502 -0.907346 -1.03263e-20)
(-2.77956 -0.882667 -3.07628e-20)
(-2.22399 -0.84898 4.02356e-20)
(-1.68923 -0.807953 0)
(-1.17967 -0.76131 0)
(-0.698401 -0.710994 0)
(-0.247262 -0.65939 -2.13503e-19)
(0.172507 -0.606592 -7.39009e-20)
(0.561391 -0.554154 7.2885e-20)
(0.919666 -0.503907 0)
(1.24805 -0.456386 6.86251e-20)
(1.5482 -0.411887 -6.78345e-20)
(1.82188 -0.370564 -6.58481e-20)
(2.0709 -0.332423 0)
(2.29705 -0.297372 0)
(2.50207 -0.26525 0)
(2.68762 -0.235856 -5.79506e-20)
(2.85521 -0.208962 0)
(3.00622 -0.184314 1.08362e-19)
(3.14193 -0.161638 1.57889e-19)
(3.26346 -0.140658 -1.02094e-19)
(3.37169 -0.121001 0)
(3.46743 -0.102034 -4.81596e-20)
(3.55231 -0.0833466 0)
(3.62598 -0.063815 -9.19101e-20)
(3.68889 -0.0390545 4.47472e-20)
(3.75965 -0.00753167 4.36337e-20)
(3.84122 0.0298904 0)
(3.92843 0.0740161 1.25131e-19)
(4.01308 0.122766 -8.10129e-20)
(4.08228 0.172171 -3.96499e-20)
(4.12411 0.216283 0)
(4.1306 0.247034 -3.75076e-20)
(4.10002 0.257535 -1.09448e-19)
(4.03657 0.245936 0)
(3.94796 0.216242 -7.00384e-20)
(3.84289 0.175879 -6.9057e-20)
(3.72956 0.132449 -6.83489e-20)
(3.61481 0.0917229 0)
(3.50337 0.0564334 0)
(3.4 0.0264905 0)
(3.31022 0.000255845 3.32927e-20)
(3.23881 -0.0242419 3.29285e-20)
(3.18895 -0.0470703 0)
(3.16028 -0.0662474 6.47558e-20)
(3.14976 -0.0795146 6.41715e-20)
(3.1532 -0.085794 0)
(3.16621 -0.0862142 6.2959e-20)
(3.18483 -0.0833938 1.24527e-19)
(3.20629 -0.0805884 -6.1527e-20)
(3.23095 -0.0802424 -6.06488e-20)
(3.26231 -0.0813466 0)
(3.30095 -0.0787028 0)
(3.33702 -0.069115 0)
(3.35642 -0.0606864 -5.72369e-20)
(3.36314 -0.0721624 5.59284e-20)
(3.39175 -0.114125 1.10028e-19)
(3.48664 -0.16433 -5.45799e-20)
(3.66826 -0.172623 5.36759e-20)
(3.9206 -0.112455 5.37556e-20)
(4.16722 -0.0208919 0)
(4.30429 0.0377327 0)
(4.32494 0.0386909 -5.14865e-20)
(4.27423 0.0146835 0)
(4.13567 0.0345554 0)
(3.75347 0.166416 1.03272e-19)
(2.90323 0.434157 0)
(1.55024 0.758492 4.10787e-20)
(8.47129e-05 0.980832 -2.9728e-20)
(-1.4042 1.03641 0)
(-2.57197 0.98341 -1.87555e-20)
(-3.50322 0.875558 0)
(-4.2285 0.746583 0)
(-4.7817 0.611535 7.0816e-20)
(-5.19113 0.475742 -1.798e-19)
(-5.47834 0.341196 9.842e-20)
(-5.65866 0.209883 0)
(-5.74112 0.0847336 0)
(-5.73157 -0.0302375 -1.08634e-19)
(-5.60094 -0.132842 0)
(-5.34905 -0.224353 -8.57467e-20)
(-4.98625 -0.303578 0)
(-4.5272 -0.368945 0)
(-3.98905 -0.41957 0)
(-3.38999 -0.455537 -8.8745e-21)
(-2.74798 -0.477788 0)
(-2.07986 -0.487788 -2.99593e-20)
(-1.4007 -0.48726 0)
(-0.723166 -0.477898 0)
(-0.057131 -0.460798 1.52561e-19)
(0.586126 -0.436383 -1.68524e-19)
(1.19872 -0.406387 0)
(1.77274 -0.374114 0)
(2.30648 -0.340097 0)
(2.78739 -0.309741 5.6793e-19)
(3.21171 -0.271959 0)
(3.54776 -0.191256 -3.85743e-19)
(0.137849 1.62742 -1.24428e-21)
(0.327288 1.72706 2.00326e-19)
(0.509962 1.21213 0)
(1.34906 -0.491037 -1.73225e-19)
(2.67295 -2.75062 0)
(3.9466 -4.5475 0)
(4.9664 -5.53232 -7.24574e-21)
(5.72497 -5.7835 4.24342e-20)
(6.2817 -5.53069 5.44811e-20)
(6.70104 -4.99435 4.2726e-20)
(7.03248 -4.32958 0)
(7.30708 -3.62694 0)
(7.54041 -2.93094 -6.97591e-20)
(7.73821 -2.25853 -1.47993e-19)
(7.90067 -1.61202 1.55838e-19)
(8.02713 -0.986611 0)
(8.113 -0.378014 1.68761e-19)
(8.16126 0.226122 -7.18647e-20)
(8.18228 0.845362 0)
(8.18785 1.4982 1.575e-19)
(8.18165 2.1919 6.17459e-20)
(8.14565 2.90955 -1.40996e-19)
(8.03405 3.59776 -5.34364e-20)
(7.77861 4.16405 0)
(7.30386 4.48928 1.19181e-19)
(6.56358 4.46728 1.17287e-19)
(5.5727 4.06173 0)
(4.47649 3.36342 1.28137e-19)
(3.47873 2.53694 0)
(2.70735 1.69781 1.55878e-19)
(2.23634 0.799436 8.98326e-20)
(2.02489 -0.18993 0)
(2.0878 -1.46023 0)
(2.27081 -2.62892 0)
(2.25238 -2.71433 0)
(1.96182 -1.75367 0)
(1.54038 -0.5806 0)
(1.01782 0.330817 1.88766e-19)
(0.210691 0.976472 -2.64892e-19)
(-1.08841 1.7028 0)
(-2.66556 2.53224 0)
(-4.30731 3.30472 0)
(-5.82827 3.85603 -9.7097e-21)
(-7.13247 4.17962 8.50477e-20)
(-8.18786 4.30511 1.77555e-19)
(-8.99281 4.2428 -1.78562e-19)
(-9.57988 4.0189 -1.00828e-19)
(-9.99566 3.67997 8.7509e-20)
(-10.2881 3.27427 1.85141e-20)
(-10.5017 2.84361 1.19365e-19)
(-10.6718 2.41932 0)
(-10.8221 2.0214 1.33657e-19)
(-10.9646 1.65996 1.29642e-20)
(-11.1021 1.33781 0)
(-11.2311 1.05325 0)
(-11.3449 0.802331 -1.55434e-19)
(-11.4363 0.580399 0)
(-11.4986 0.382723 0)
(-11.5265 0.204873 1.68411e-19)
(-11.5167 0.0433858 3.24597e-19)
(-11.4692 -0.10379 -1.54838e-19)
(-11.3858 -0.238073 0)
(-11.269 -0.35951 1.48963e-19)
(-11.1222 -0.467661 0)
(-10.9476 -0.56353 1.47711e-19)
(-10.7476 -0.648552 1.35653e-19)
(-10.5241 -0.72439 -2.66493e-19)
(-10.279 -0.792874 -1.30122e-19)
(-10.0133 -0.855941 0)
(-9.72768 -0.915567 2.27792e-19)
(-9.4221 -0.973668 0)
(-9.09582 -1.03196 2.94422e-19)
(-8.74743 -1.09177 1.82372e-19)
(-8.37507 -1.15387 1.65604e-19)
(-7.97658 -1.21827 -1.47948e-19)
(-7.54987 -1.28406 1.9058e-19)
(-7.09343 -1.34932 0)
(-6.60674 -1.41123 0)
(-6.09078 -1.46623 -6.86132e-20)
(-5.54837 -1.51051 -6.74185e-20)
(-4.98427 -1.54043 0)
(-4.40493 -1.55315 -9.0953e-22)
(-3.8181 -1.547 0)
(-3.23211 -1.52175 5.92505e-20)
(-2.6551 -1.4786 4.01434e-21)
(-2.09449 -1.4199 -3.59196e-21)
(-1.55648 -1.34874 -9.2689e-20)
(-1.04582 -1.26847 0)
(-0.565772 -1.18261 1.21847e-19)
(-0.11725 -1.09484 2.51103e-21)
(0.298502 -1.00646 0)
(0.68218 -0.920013 0)
(1.03449 -0.837298 0)
(1.35677 -0.759153 -1.32113e-19)
(1.65085 -0.686093 0)
(1.91871 -0.618352 0)
(2.16228 -0.55592 0)
(2.3835 -0.498618 0)
(2.5842 -0.446159 0)
(2.76608 -0.398193 -1.11317e-19)
(2.93068 -0.35433 0)
(3.07941 -0.314166 -1.05696e-19)
(3.21351 -0.277289 -1.02703e-19)
(3.33409 -0.243252 9.98727e-20)
(3.44213 -0.211571 0)
(3.53854 -0.181795 9.47259e-20)
(3.62427 -0.153092 0)
(3.70011 -0.124613 9.02792e-20)
(3.76622 -0.0973696 -8.83024e-20)
(3.82351 -0.0709727 -2.58774e-19)
(3.87672 -0.0426947 0)
(3.93223 -0.00810232 -2.48063e-19)
(3.99544 0.0326276 -7.99412e-20)
(4.07198 0.0784914 0)
(4.1629 0.125819 -1.5169e-19)
(4.26211 0.167516 -1.47058e-19)
(4.35808 0.195594 2.14012e-19)
(4.43824 0.2052 0)
(4.49381 0.19721 6.72614e-20)
(4.5221 0.177258 6.57554e-20)
(4.52532 0.15226 1.9465e-19)
(4.50827 0.127337 0)
(4.47642 0.104632 0)
(4.4351 0.083495 0)
(4.38895 0.0617286 6.24332e-20)
(4.3409 0.037703 0)
(4.2915 0.0117818 0)
(4.2404 -0.0130779 -6.07595e-20)
(4.18759 -0.0337388 -6.03786e-20)
(4.13451 -0.049142 0)
(4.08266 -0.0594889 0)
(4.03261 -0.0657807 -1.18497e-19)
(3.98337 -0.0706477 0)
(3.93526 -0.0783617 1.1643e-19)
(3.89362 -0.0894877 1.15195e-19)
(3.8648 -0.094448 0)
(3.84457 -0.0819832 0)
(3.81832 -0.0618611 -1.11055e-19)
(3.78701 -0.0711662 -2.81136e-22)
(3.78966 -0.138975 -5.03371e-22)
(3.87808 -0.238601 0)
(4.06336 -0.295364 -2.07216e-19)
(4.29893 -0.257547 0)
(4.5149 -0.147203 0)
(4.65712 -0.0363554 0)
(4.68693 0.0288871 1.00698e-19)
(4.54503 0.098913 0)
(4.09793 0.302556 -2.04554e-19)
(3.16409 0.722693 -1.01743e-19)
(1.73175 1.25613 0)
(0.166992 1.64094 -7.96535e-20)
(-1.09782 1.73769 0)
(-2.04047 1.64381 0)
(-2.76386 1.46176 1.09411e-19)
(-3.36425 1.25439 -1.63201e-19)
(-3.90016 1.04968 0)
(-4.38857 0.853641 -3.14735e-19)
(-4.81916 0.66384 1.78958e-19)
(-5.16945 0.477165 0)
(-5.4158 0.292328 0)
(-5.53994 0.11021 0)
(-5.5331 -0.0661994 6.5049e-19)
(-5.39562 -0.233285 0)
(-5.13474 -0.384707 1.66067e-19)
(-4.76188 -0.516073 0)
(-4.29229 -0.624221 0)
(-3.74367 -0.707593 0)
(-3.13463 -0.766348 0)
(-2.48333 -0.802172 0)
(-1.80659 -0.817662 0)
(-1.1194 -0.815884 -1.78732e-19)
(-0.434008 -0.799749 0)
(0.238 -0.770982 -1.45959e-19)
(0.885389 -0.731241 4.76404e-19)
(1.49982 -0.683604 0)
(2.07376 -0.631782 0)
(2.60474 -0.577527 -3.55815e-19)
(3.08592 -0.521276 -3.63203e-19)
(3.53045 -0.454599 3.63027e-19)
(3.91103 -0.347322 3.71252e-19)
(0.0050125 0.980716 -3.16547e-19)
(0.167037 1.06223 -3.04043e-19)
(1.26511 -1.15762 -1.6097e-19)
(2.81215 -3.85938 -6.35753e-20)
(4.19531 -5.81889 0)
(5.14394 -6.75636 1.10857e-19)
(5.67898 -6.88151 -6.60824e-20)
(5.94969 -6.51671 0)
(6.09546 -5.9146 -5.41857e-20)
(6.19971 -5.22175 0)
(6.30013 -4.50734 1.53854e-19)
(6.40841 -3.79912 0)
(6.5232 -3.10567 7.43416e-20)
(6.63714 -2.42705 1.58993e-19)
(6.74067 -1.76009 -1.68585e-19)
(6.82573 -1.10102 0)
(6.88548 -0.447327 -1.84776e-19)
(6.92043 0.202942 0)
(6.93368 0.85279 0)
(6.93079 1.50978 -1.72238e-19)
(6.92668 2.18805 0)
(6.9382 2.90466 -2.24871e-20)
(6.96752 3.66283 0)
(6.98449 4.42306 0)
(6.91906 5.08345 1.88847e-20)
(6.67968 5.49079 -1.11097e-19)
(6.1999 5.48806 -1.19231e-19)
(5.49603 5.003 -1.11215e-19)
(4.67369 4.10405 0)
(3.89886 2.93995 -2.55115e-19)
(3.30127 1.66265 0)
(2.85855 0.316302 -1.42047e-19)
(2.71477 -1.3497 0)
(2.49388 -2.43176 0)
(1.76927 -1.97753 1.56313e-19)
(0.733527 -0.407346 0)
(-0.515308 1.12983 -1.71665e-19)
(-1.89096 2.3599 3.84213e-22)
(-3.38657 3.43761 2.32298e-19)
(-4.90619 4.34357 -2.10538e-19)
(-6.28554 4.99586 0)
(-7.41795 5.37048 0)
(-8.28186 5.49121 -1.09925e-19)
(-8.89663 5.40433 0)
(-9.30258 5.16117 -8.76313e-20)
(-9.55461 4.8045 9.26175e-20)
(-9.71263 4.37769 9.8685e-20)
(-9.82958 3.92214 0)
(-9.94281 3.46856 -1.12853e-19)
(-10.0715 3.03504 -1.20302e-19)
(-10.2193 2.6289 2.85196e-19)
(-10.3792 2.25058 -1.34634e-19)
(-10.5397 1.89747 -1.41199e-19)
(-10.6888 1.56655 0)
(-10.8164 1.25566 0)
(-10.9155 0.963779 1.57246e-19)
(-10.9818 0.690853 0)
(-11.0133 0.437427 0)
(-11.0102 0.204172 -3.32049e-19)
(-10.9736 -0.00887325 -3.31586e-19)
(-10.9057 -0.202456 0)
(-10.8088 -0.377071 0)
(-10.6854 -0.533888 0)
(-10.538 -0.673888 0)
(-10.3689 -0.798403 -2.93122e-19)
(-10.1803 -0.90916 2.90378e-19)
(-9.97386 -1.00826 2.70117e-19)
(-9.75094 -1.09812 5.22154e-19)
(-9.51216 -1.18138 0)
(-9.25747 -1.26083 7.30408e-21)
(-8.98605 -1.33922 0)
(-8.69625 -1.41907 -1.9873e-19)
(-8.38565 -1.50242 8.09959e-21)
(-8.05116 -1.5905 -1.64913e-19)
(-7.68927 -1.68341 1.46815e-19)
(-7.29644 -1.77985 9.23672e-21)
(-6.86971 -1.87693 0)
(-6.40731 -1.97027 9.73923e-20)
(-5.90942 -2.0543 6.71366e-20)
(-5.37859 -2.1229 1.00736e-19)
(-4.82001 -2.17027 0)
(-4.24122 -2.19183 -1.11346e-20)
(-3.65149 -2.18497 0)
(-3.06083 -2.14941 -6.77212e-20)
(-2.47894 -2.08716 5.57844e-20)
(-1.91442 -2.00198 -7.35488e-20)
(-1.37427 -1.89877 8.99958e-20)
(-0.863687 -1.7828 2.02277e-19)
(-0.385917 -1.65929 -1.18546e-19)
(0.057958 -1.53284 1.26745e-19)
(0.467208 -1.40666 0)
(0.843111 -1.28421 -2.52018e-19)
(1.18673 -1.16756 0)
(1.49998 -1.05784 -2.4719e-19)
(1.78501 -0.955694 2.42957e-19)
(2.04402 -0.861336 2.37998e-19)
(2.27913 -0.774674 -2.32577e-19)
(2.49238 -0.695395 -2.26896e-19)
(2.68568 -0.623041 0)
(2.86078 -0.557073 -1.06621e-19)