/*--------------------------------*- C++ -*----------------------------------*\
| =========                 |                                                 |
| \\      /  F ield         | OpenFOAM: The Open Source CFD Toolbox           |
|  \\    /   O peration     | Version:  2112                                  |
|   \\  /    A nd           | Website:  www.openfoam.com                      |
|    \\/     M anipulation  |                                                 |
\*---------------------------------------------------------------------------*/
FoamFile
{
    version     2.0;
    format      ascii;
    arch        "LSB;label=32;scalar=64";
    class       volScalarField;
    location    "0.38";
    object      p_0;
}
// * * * * * * * * * * * * * * * * * * * * * * * * * * * * * * * * * * * * * //

dimensions      [0 2 -2 0 0 0 0];

internalField   nonuniform List<scalar> 
122250
(
1467.97
-321.615
-130.963
-363.582
-190.398
-137.386
-74.3303
-50.2701
-7.59537
9.95464
23.5016
27.8813
28.0515
23.2308
18.6432
16.9124
20.2428
24.8787
1408.77
-333.464
-149.576
-362.093
-194.847
-140.929
-75.7615
-56.9638
-13.9343
4.47448
19.2159
25.1904
26.1622
21.9163
17.8144
16.1617
19.3159
24.9068
1395.34
-376.64
-169.457
-367.237
-197.922
-147.16
-81.7018
-63.1782
-23.1382
-6.17593
9.55755
17.5832
20.8735
18.9813
16.4415
14.8454
17.2854
22.5723
1396.02
-444.497
-170.253
-360.71
-204.962
-157.365
-82.1014
-59.8286
-32.4329
-15.9226
-1.64355
6.28413
12.0618
13.7769
13.4821
12.5738
15.1867
20.6611
1397.93
-531.678
-175.872
-354.75
-211.262
-166.28
-78.8286
-53.9366
-35.9394
-20.7457
-9.94377
-4.63076
2.41803
7.52835
9.54576
9.56936
12.7205
18.8015
1403.18
-640.507
-215.962
-360.189
-219.2
-157.044
-82.6125
-45.6088
-27.7801
-18.6564
-12.7742
-10.9048
-4.14231
2.15547
5.20565
6.27019
10.0784
16.4164
1410.96
-770.779
-279.169
-378.795
-231.902
-156.682
-88.175
-36.3291
-16.9219
-13.9707
-9.75576
-10.0294
-5.72937
-0.984243
1.88751
3.48372
7.87066
14.1367
1408.12
-914.961
-324.893
-388.767
-245.917
-164.084
-90.166
-29.9586
-4.0553
-4.69485
-2.49413
-4.06358
-3.42356
-2.00185
-0.610963
1.33359
6.38732
12.4606
1361.07
-998.254
-300.145
-383.823
-254.012
-170.342
-91.0998
-27.9291
6.74194
7.68001
7.88544
4.02325
2.47392
0.469532
-1.71272
0.716633
6.43206
11.8677
1295.89
-977.544
-219.822
-353.691
-264.185
-175.594
-90.1749
-27.7257
11.0439
19.1825
18.7186
13.8184
10.5759
4.351
1.42333
3.2582
7.38975
12.242
1238.98
-905.871
-147.302
-363.218
-292.382
-176.488
-86.5534
-25.1856
15.013
26.883
26.3398
21.4677
15.4078
9.49828
6.18841
6.31004
8.84546
13.1727
1218.54
-883.714
-143.024
-308.608
-256.856
-156.287
-84.8772
-27.1239
18.1652
30.3044
29.7447
24.301
19.0754
13.8064
10.9649
9.94702
11.538
14.6734
1325.7
-915.284
-113.991
-244.149
-168.782
-129.229
-94.2102
-39.9607
15.3864
30.2866
30.721
26.9733
21.8365
16.6112
14.9055
13.8596
14.6731
16.2643
1418.84
-718.746
-126.113
-243.497
-92.4326
-103.761
-111.641
-70.3255
0.997637
24.8656
29.6403
27.8024
23.2714
18.7864
17.9703
17.71
17.8921
18.4955
1219.18
-704.842
65.0027
-66.1553
-64.6082
-86.6081
-97.6483
-91.3493
-21.9936
14.4582
27.1845
26.3469
23.1209
19.2888
16.9808
16.8243
17.7586
18.5736
1213.14
-849.072
-57.5191
-71.5513
-44.1965
-65.5195
-58.8586
-41.6007
-6.06556
10.89
19.2214
22.1573
21.9476
19.2051
16.7933
16.3815
16.8836
16.9701
1320.65
-623.683
-219.418
-212.803
-54.2833
-61.9096
-39.1586
-24.2921
-5.18121
8.30022
17.3833
19.6865
21.6978
21.4493
19.841
20.6769
22.2339
21.4338
1346.29
-199.083
-48.1996
-240.747
-35.6879
-57.1096
-45.1718
-26.719
0.337455
6.39583
7.16513
12.0619
18.1044
19.2503
18.7424
18.5906
17.9981
18.1646
1189.79
-436.614
-131.548
-124.782
-35.6089
-91.7081
-37.6695
-17.0529
-16.8012
-9.36755
-2.39565
4.47874
9.35389
11.6122
14.0749
16.003
17.2679
19.2208
1176.33
-684.435
-16.6937
-120.915
-40.9368
-29.4304
-14.7528
-19.697
-12.7662
-8.90339
-5.09585
-1.58748
1.18313
2.9836
5.58187
9.15319
13.1467
16.556
1127.48
-650.468
137.989
-73.9549
-18.6939
-33.0942
-18.3811
-14.0103
-2.00951
-0.692852
0.689061
2.00667
3.86042
4.96715
6.036
8.01164
11.5021
14.3945
1133.51
-613.904
171.435
-80.3111
-29.1496
-30.1929
-29.9354
-11.5342
7.32948
7.94146
3.78155
2.10315
3.4392
7.79784
11.7349
12.8158
12.5789
12.9671
1115.44
-666.999
124.164
-43.269
-35.6617
-30.1048
-32.1358
-16.808
7.49679
12.9386
6.54322
3.98919
3.21116
3.95825
6.56578
7.99722
8.84941
9.92766
1087.4
-784.503
-11.2662
-75.6214
-34.3674
-24.8379
-29.0603
-15.5862
7.39652
11.5945
5.84558
4.59553
5.91947
6.32147
7.04046
7.21672
7.56672
8.77322
1107.81
-925.943
-190.416
-109.304
-27.8246
-28.8417
-26.6841
-16.6736
4.87295
7.05722
4.58143
4.12088
6.62066
7.29111
7.31374
5.21843
3.77105
5.30999
1163.39
-875.702
-300.915
-136.084
-36.4279
-36.4915
-18.4278
-18.098
4.0562
4.47612
5.1093
4.24906
5.96471
6.76717
6.25565
4.24998
2.98071
5.86826
1207.39
-660.867
-287.934
-154.701
-39.5232
-37.919
-13.5073
-13.5581
3.90751
3.49558
6.77563
6.08779
6.49638
6.04991
6.36929
5.74535
6.37446
8.86058
1217.14
-431.115
-202.457
-168.871
-30.7654
-48.0399
-18.9221
-7.6416
5.45854
4.63915
7.62691
8.62056
8.33922
7.44733
8.31241
7.89687
7.70194
9.9106
1201.62
-289.985
-110.812
-172.438
-32.5287
-56.8964
-13.2688
-5.86263
4.76836
3.38531
6.46516
7.74949
8.29015
8.21575
9.5569
7.96913
5.51827
7.9666
1176.58
-238.435
-69.9896
-172.028
-29.6454
-59.4076
-7.29234
-3.00583
5.12253
3.39298
6.0465
6.705
7.84662
9.0525
11.0413
9.21813
5.7646
7.04919
1345.92
-312.107
-151.162
-370.454
-175.042
-85.0932
-58.3292
-37.8212
-2.92122
11.0245
21.0632
22.379
23.3882
22.0048
19.9573
19.3065
21.3821
24.5593
1360.82
-343.117
-185.346
-371.65
-178.922
-92.9727
-61.941
-40.7076
-4.08261
9.58013
20.2559
20.9856
22.2772
21.1801
19.2798
18.747
20.5714
24.0512
1370.84
-397.222
-200.623
-360.559
-190.048
-111.499
-64.8286
-44.8609
-8.0241
5.14452
16.961
17.5516
19.103
18.4113
17.447
17.1495
18.869
22.3184
1385.32
-469.711
-195.107
-340.579
-193.516
-129.355
-66.3584
-45.734
-15.567
0.580405
13.6291
13.9381
16.0215
15.5772
15.0838
15.1894
17.2377
20.4797
1391.86
-555.568
-196.665
-335.788
-198.426
-138.767
-68.7942
-40.4764
-17.6413
-1.20156
12.0141
12.3129
14.4932
13.4134
12.526
12.7795
15.415
19.1388
1393.25
-655.521
-228.004
-346.364
-209.929
-138.369
-71.0786
-31.9879
-11.3008
0.219885
11.5493
12.1124
13.6694
11.0506
9.52716
9.90658
12.6971
16.8532
1395.62
-780.823
-279.82
-366.769
-227.676
-142.043
-73.8109
-22.7248
-1.06064
3.32774
11.9184
11.989
12.1711
8.09032
6.43231
7.18332
9.93964
13.9162
1385.28
-913.131
-307.108
-378.215
-244.402
-151.826
-76.4273
-17.9459
9.2991
7.37335
13.7392
12.3142
10.2351
6.25157
4.6259
5.29743
7.64024
11.5088
1341.45
-980.778
-277.142
-382.305
-255.333
-157.972
-76.9974
-20.0075
15.4422
14.8175
18.0355
14.1282
10.8753
6.80887
4.70368
4.53558
6.40386
10.1279
1287.73
-952.877
-205.484
-363.826
-269.884
-159.664
-75.9434
-21.8875
16.9289
22.2072
23.4759
18.2653
14.4041
9.29008
5.86828
5.15083
6.76042
10.5813
1237.68
-872.205
-145.851
-403.876
-289.926
-151.562
-69.1014
-17.7104
17.8112
28.2619
28.051
22.645
18.2873
12.6843
8.93852
8.11337
9.49922
13.0079
1223.84
-857.287
-155.568
-305.64
-237.168
-127.056
-60.4042
-13.6603
21.2655
32.5566
31.0855
25.5549
20.8003
16.2541
13.5822
12.2305
13.2347
15.8259
1330.12
-853.917
-96.7786
-217.405
-137.605
-98.1861
-60.8055
-16.4229
22.8703
35.1427
33.2662
27.5614
22.2331
17.9757
15.8136
15.0572
15.9487
17.3851
1348.91
-613.498
-82.6914
-289.253
-67.1272
-81.4869
-72.9094
-35.564
11.8664
32.2534
33.9636
27.8622
22.5025
20.3182
19.4903
18.2328
18.3728
18.6983
1185.41
-668.806
-12.494
-173.397
-88.47
-80.4465
-79.7971
-59.8295
-10.5527
19.4766
30.5204
28.526
25.3595
22.0588
18.3806
17.6538
18.683
19.4686
1233.77
-841.087
-50.3385
-91.8907
-74.9204
-71.8039
-69.1305
-59.6975
-14.4868
10.1
22.8633
24.046
23.9612
21.8951
19.2656
17.6794
17.5715
18.1209
1390.45
-556.715
-187.895
-173.597
-56.7793
-84.2964
-39.4753
-23.1738
-6.56554
6.89664
19.4628
23.4467
23.6201
22.8376
21.0078
21.3105
23.1136
22.9431
1337.06
-187.535
-18.6044
-194.204
-35.0917
-109.413
-51.2473
-33.172
-5.00239
6.2708
8.46142
12.7817
19.0498
20.6925
19.9919
19.6892
19.3336
18.9059
1206.92
-429.533
-151.952
-168.225
-39.3687
-51.8846
-28.0864
-37.2559
-12.3931
-5.39426
1.06256
6.7333
10.8576
13.7458
16.4951
18.3611
18.685
19.0307
1129.26
-714.119
8.52326
-105.006
-37.6935
-38.9892
-16.5541
-20.4414
-11.3059
-8.43169
-5.39489
-1.98338
1.04734
3.39542
6.79879
11.3523
15.0555
17.4727
1128.48
-634.437
148.633
-75.3259
-16.7634
-30.475
-19.6154
-15.8191
-4.16704
-2.86674
-0.485896
1.2249
3.12074
4.92303
6.39781
9.08849
12.0753
14.7012
1130.55
-621.913
166.054
-54.577
-21.1146
-28.8458
-30.2534
-15.7928
2.77996
4.20032
3.11267
3.27373
5.62089
8.90898
11.3835
12.4677
12.8575
13.3332
1109.51
-657.359
116.773
-52.2154
-26.7924
-27.7765
-36.5848
-22.9676
1.26792
6.69557
4.98284
3.95957
4.40778
5.7641
6.90918
8.70034
10.286
11.3428
1080.44
-754.763
-11.1723
-82.7113
-28.9179
-24.4626
-32.478
-24.8714
2.13449
6.17812
5.4576
5.00349
6.74271
8.04488
8.25772
8.41278
8.9848
10.0377
1087.58
-885.096
-173.064
-124.17
-28.6519
-21.1223
-25.7449
-21.6951
1.91185
4.69893
5.39867
5.52504
7.18816
8.45371
8.71346
7.1337
5.62527
6.82563
1141.96
-884.853
-291.183
-134.251
-36.3385
-30.695
-20.5336
-15.488
3.50542
4.58998
6.94509
6.98511
7.32767
7.30507
7.64439
6.56654
5.30105
7.22644
1197.14
-698.303
-293.831
-133.124
-41.1603
-40.0564
-13.8931
-10.4849
4.81032
5.33975
9.27023
8.73981
7.01992
6.51142
7.4173
7.22868
7.22408
9.71112
1212.42
-473.086
-200.436
-137.806
-44.766
-48.3992
-16.1635
-6.50713
7.39205
6.10856
10.6817
10.8122
9.02718
8.25637
9.20396
8.37446
6.90224
9.38216
1201.66
-331.168
-119.426
-140.605
-42.78
-56.1759
-16.0267
-5.30611
6.99649
5.10994
11.013
12.0874
11.1645
9.15729
8.39231
8.61129
6.12177
6.53794
1178.23
-271.766
-69.9301
-140.348
-38.7198
-59.0973
-4.1003
1.42779
8.48775
6.78831
12.4229
12.9165
12.974
10.6824
11.7693
11.4074
9.39378
8.65884
1310.43
-445.974
-204.603
-314.581
-187.169
-112.165
-56.934
-36.82
1.147
11.6501
21.54
19.1612
18.033
16.8556
17.303
17.5279
18.393
21.2247
1312.82
-465.665
-214.718
-306.962
-190.58
-114.417
-58.8899
-39.2154
1.4104
11.1053
20.7663
17.9049
16.3249
15.365
16.0841
16.7227
17.8697
20.4892
1335.09
-502.976
-217.282
-308.965
-190.224
-122.449
-65.5518
-42.2578
-1.52185
8.88984
18.4623
15.5627
14.6073
13.5198
14.0037
14.8856
16.7329
19.5146
1369.77
-567.501
-229.028
-308.978
-189.387
-128.663
-65.8896
-38.2775
-6.67522
5.22788
15.3339
12.7888
12.8887
12.5768
12.8565
13.4541
15.3642
18.2224
1392.63
-663.221
-264.213
-309.281
-194.81
-131.153
-65.5565
-32.9509
-7.78149
3.06715
12.2149
10.6069
11.355
11.2071
11.5682
12.3191
14.4343
17.4166
1404.76
-791.439
-307.103
-319.889
-210.355
-130.082
-66.4409
-23.4983
-1.99833
4.37109
10.84
9.20109
9.92148
9.06219
9.387
10.5534
13.2264
16.835
1391.01
-919.512
-337.189
-345.109
-235.447
-132.37
-66.8807
-15.1266
7.20161
7.70152
12.2908
9.09391
8.86178
7.13638
6.93517
8.10443
11.306
15.6492
1359.6
-1005.81
-308.931
-369.126
-262.039
-139.926
-65.2872
-10.6953
13.4964
12.5358
16.4196
11.4889
10.2236
7.19266
5.40341
5.97624
9.32338
14.2263
1315.24
-1001.09
-251.924
-380.115
-280.847
-150.236
-62.2093
-9.22428
16.9558
18.0052
21.653
15.9025
13.2827
8.89723
5.78666
5.6493
8.62257
13.3869
1269.39
-952.682
-189.941
-363.605
-297.241
-155.964
-58.024
-7.90731
18.72
23.9309
26.8064
21.2285
17.7269
11.7969
7.99499
6.93526
9.21891
13.3624
1230.41
-890.804
-135.158
-374.001
-305.858
-155.147
-54.6546
-4.3175
20.7464
29.3293
31.2932
25.7886
21.5518
15.6809
11.6593
10.2872
11.62
15.0457
1218.15
-876.634
-141.845
-288.462
-242.613
-133.829
-56.6698
-3.95247
23.6516
34.0349
34.7956
28.4679
23.6953
19.2145
15.6456
13.9012
14.3562
16.8475
1289.5
-909.66
-121.548
-228.01
-147.193
-100.674
-59.9244
-11.9612
23.8096
37.8131
37.387
30.0035
24.1482
19.562
17.2636
16.3902
16.8489
18.2715
1328.93
-746.311
-111.18
-249.632
-70.0283
-70.9437
-59.852
-28.3128
11.2391
36.5572
38.9899
29.9371
23.7546
21.0125
19.0682
17.9076
18.4325
18.8877
1180.79
-697.185
39.1463
-159.306
-107.901
-63.471
-60.1137
-45.129
-2.29364
27.4072
36.2129
31.9619
27.2232
22.7721
18.9222
18.0856
19.1672
19.8004
1196.25
-832.544
-61.9753
-113.526
-92.1376
-42.696
-51.9462
-67.6601
-22.191
12.6199
29.8299
32.128
27.4591
24.0442
21.2115
19.1958
19.0513
19.8374
1366.88
-658.291
-282.627
-256.267
-58.2829
-61.0106
-44.0371
-30.8352
-10.8224
6.2806
22.9018
30.6257
28.5912
26.316
24.7462
23.7069
23.4691
23.2243
1367.1
-205.116
-79.9553
-281.88
-9.57318
-67.1953
-62.4038
-40.6771
-9.93468
5.66246
10.5449
17.6048
21.8283
22.4009
20.8096
19.9149
19.6435
19.4195
1220.54
-509.309
-173.175
-197.39
-40.6024
-71.5836
-24.7419
-29.6095
-16.7285
-3.53533
4.09134
8.37201
11.8825
15.2419
18.3538
20.2793
19.7411
18.7686
1097.17
-722.477
-4.74019
-98.6396
-34.7421
-30.392
-24.2089
-23.8686
-13.2269
-8.98101
-4.78632
-1.56346
1.18892
4.13365
9.33096
14.8409
17.245
17.597
1133.76
-621.007
158.372
-67.9614
-8.54734
-17.0963
-17.0077
-15.6326
-6.23968
-5.22423
-2.51864
-0.375451
1.23112
2.75209
6.83481
11.2174
14.0369
14.9016
1130.81
-607.787
170.955
-47.1681
-14.147
-16.0864
-18.6164
-10.7955
1.72937
2.209
2.03645
2.95075
4.96296
7.295
9.76035
11.6478
12.6884
13.4902
1106.41
-641.689
123.901
-45.092
-19.2864
-18.3762
-22.2033
-14.8279
2.12077
4.29521
3.66775
3.14891
3.93622
5.03151
7.65128
10.1731
11.6708
12.4769
1075.71
-731.349
-1.2334
-77.4341
-25.7302
-19.0194
-18.6512
-13.8974
1.57543
4.22914
4.51141
4.54117
5.84365
7.39436
8.94803
9.84249
10.3377
11.3334
1071.67
-841.003
-162.246
-120.861
-29.5424
-21.8828
-14.3235
-12.2734
1.86532
3.63407
5.15042
5.69316
6.98094
8.92102
10.2727
9.01608
8.07886
10.1341
1119.73
-879.085
-283.952
-134.842
-36.0878
-28.6699
-13.45
-9.6726
3.44874
3.95172
6.39994
6.88671
7.24355
8.32501
9.9094
8.96648
8.10159
9.83912
1180.18
-757.319
-314.327
-137.239
-43.2473
-43.0081
-15.8343
-4.45088
4.91012
4.79854
8.24062
8.67726
7.20356
8.773
10.5222
9.00507
8.05511
10.0341
1209.31
-546.355
-260.127
-132.014
-46.9077
-46.3128
-15.7704
-4.17374
7.78301
6.28999
10.5268
10.9928
9.5151
10.4854
10.9421
9.44036
8.38071
10.0227
1201.02
-379.294
-178.595
-133.642
-44.536
-59.9559
-23.4113
-5.21687
8.13187
5.92127
10.6524
12.196
11.8916
13.2815
10.4064
7.34926
7.84424
10.8776
1175.24
-304.101
-110.128
-124.13
-40.2576
-66.3509
-13.2899
0.936519
7.86071
6.63933
11.5626
12.8904
13.6517
14.9299
12.1262
10.2459
10.245
12.2304
1291.02
-530.398
-248.959
-298.305
-195.677
-120.26
-68.0165
-54.1489
-8.25426
3.38961
17.0632
18.2282
18.5581
16.0653
14.8258
14.5815
16.0084
19.3879
1289.97
-589.833
-243.781
-288.592
-201.443
-125.997
-73.7107
-58.5706
-9.40825
3.42032
17.5218
18.8693
18.4984
14.8726
13.4237
13.5547
15.3406
18.3067
1292.94
-636.512
-223.887
-285.653
-200.661
-127.74
-74.5062
-60.3197
-13.613
2.32915
15.9464
18.2864
18.7823
14.2077
12.0323
12.0286
14.1084
17.2617
1297.22
-685.92
-206.765
-270.539
-191.858
-135.164
-76.1839
-51.7933
-20.2663
0.582226
12.9392
15.6186
16.2163
13.8051
12.3989
11.9876
13.5709
16.4381
1288.62
-753.896
-207.202
-263.049
-189.129
-131.862
-77.3049
-40.2246
-21.4025
-0.597867
9.59932
11.9659
12.1587
11.0826
11.35
11.8476
13.8821
16.7642
1274.34
-836.19
-219.417
-275.343
-208.017
-131.752
-75.8549
-25.5995
-10.5698
1.50918
9.14267
9.73155
10.0395
8.33799
8.97689
10.712
14.0028
17.8323
1261.84
-907.197
-224.432
-301.648
-240.282
-140.685
-77.2523
-15.7815
8.31416
6.69041
12.357
9.95588
10.3011
7.7398
7.24479
8.77648
13.2903
18.2843
1251.33
-945.964
-206.981
-317.803
-265.097
-158.036
-79.4545
-13.7936
19.0138
13.2122
18.272
13.2868
11.9844
8.46425
6.76649
7.33466
11.8687
17.5868
1243.83
-944.311
-167.385
-312.247
-278.032
-170.161
-79.7095
-17.0964
19.6685
19.5947
25.055
19.1806
15.4776
10.4987
7.54287
7.11736
10.3095
15.807
1236.71
-920.377
-123.878
-287.509
-283.788
-177.209
-83.4937
-23.2982
14.5894
25.8831
30.9857
25.4362
21.1854
14.2529
9.65949
7.81068
9.37107
14.6734
1218.57
-882.933
-88.5715
-278.009
-305.54
-183.014
-88.6788
-29.8762
9.60178
28.9287
34.8596
29.8842
25.5846
18.6983
12.6137
9.82817
10.5132
14.9547
1223.49
-864.672
-55.7007
-232.387
-269.643
-165.894
-89.1058
-35.4392
6.59033
30.3198
36.3116
31.88
27.7282
22.9223
17.4092
14.0636
13.6753
16.3764
1260.89
-915.403
-76.3926
-207.31
-182.815
-131.725
-86.9483
-44.6793
1.70154
31.1473
37.1888
32.378
27.0267
23.0907
19.3701
16.6968
16.5013
17.9527
1276.08
-882.375
-101.072
-203.656
-105.55
-90.1356
-76.4042
-57.0204
-10.7514
27.9297
36.9344
31.4482
26.3636
23.2105
20.3859
18.2588
18.7568
19.4019
1183.66
-726.417
46.785
-146.885
-107.541
-57.5046
-52.3267
-60.7771
-15.1835
24.1123
35.9263
33.9947
29.0039
23.2544
19.9007
19.3346
20.027
20.687
1177.71
-811.569
-49.4003
-85.2323
-78.2319
-21.9048
-24.0042
-53.652
-24.8616
13.2928
32.7343
34.9013
30.2714
26.0281
22.9832
21.0588
20.7108
21.4086
1284.76
-783.413
-298.774
-274.225
-81.488
-65.0715
-44.5422
-29.9588
-10.1701
8.20152
25.7045
34.3972
32.2728
29.5506
27.8412
26.196
24.1102
22.6619
1401.43
-381.498
-174.124
-243.027
-4.24253
-102.481
-68.7624
-35.5155
-6.30011
6.81256
11.1969
18.3557
23.0815
23.3858
21.5492
20.2075
19.9678
19.9511
1211.93
-637.316
-256.095
-203.943
-30.2321
-68.9527
-41.5264
-40.4326
-25.7846
-6.58915
3.03516
7.63571
12.3981
16.2417
18.596
19.7512
19.718
18.565
1083.02
-713.607
-22.5396
-86.0338
-15.5122
-26.4009
-23.9034
-29.1569
-20.4682
-13.3273
-6.29739
-1.99428
2.9806
9.3727
14.0963
16.0228
16.4506
16.5915
1138.75
-602.669
165.504
-68.3528
-4.92743
-14.7927
-17.8777
-18.0113
-10.3072
-8.55579
-5.12011
-3.23489
0.69864
6.34605
9.89923
11.7094
13.171
14.0742
1132.87
-596.955
175.705
-40.8836
-6.45405
-10.6863
-12.7358
-8.60558
-1.64197
-0.876258
-0.0974312
1.47894
4.19582
7.22389
9.5322
11.0508
12.402
13.537
1107.04
-622.49
136.366
-38.0783
-15.371
-12.4219
-15.3799
-9.47752
1.00862
1.74783
1.19306
1.69263
4.24541
6.82513
9.26363
11.0321
12.2654
13.0463
1074.03
-699.417
19.5041
-69.7214
-23.3264
-15.4538
-13.749
-8.53236
0.478072
1.33141
2.56132
3.32918
5.9358
8.0201
9.33386
9.89503
10.7834
12.1526
1064.32
-796.19
-140.185
-112.213
-28.1659
-20.7922
-12.3167
-8.04758
1.17361
1.72078
3.42004
5.03873
7.3805
8.7705
8.27727
7.50987
9.07289
11.7174
1106.36
-850.02
-272.247
-141.355
-33.2814
-33.8794
-20.7218
-4.1751
3.76225
2.89963
4.26172
6.07673
8.42171
10.1351
8.29654
6.77911
8.05364
9.95477
1168.23
-783.526
-322.043
-140.955
-39.8788
-54.8385
-28.3365
-2.10973
3.87033
3.65981
6.65601
8.21936
9.18378
10.5177
9.34136
8.60358
10.4362
12.3791
1203.27
-597.837
-287.556
-138.483
-45.8621
-54.6237
-20.7864
-7.42953
5.0435
5.34482
9.42456
10.7504
10.0633
9.70951
9.43386
9.11931
10.0017
11.2263
1198.36
-421.691
-202.338
-149.932
-54.8422
-57.116
-17.5814
-8.24801
5.76514
6.79084
10.4043
11.595
10.8042
9.69963
8.12093
8.54261
10.3618
11.7904
1176.09
-313.268
-129.411
-158.183
-34.2296
-51.2591
-13.661
-1.69146
6.40196
7.01552
10.0462
10.0722
11.0483
10.4898
9.53674
10.1158
12.2595
13.6394
1275.08
-446.268
-208.692
-299.226
-186.233
-110.533
-42.0925
-45.277
-20.7416
-9.53975
6.7693
13.5124
18.8814
18.9521
17.0543
15.4476
16.1978
19.9821
1298.54
-503.762
-240.822
-299.368
-192.874
-119.465
-50.2838
-52.4643
-28.9081
-14.7141
3.00962
12.5447
18.627
18.594
16.2934
14.5748
15.3332
18.8955
1324.16
-601.144
-269.408
-303.407
-198.986
-125.691
-58.1031
-55.3465
-38.6271
-21.2665
-4.54824
7.24513
16.8627
18.886
15.8543
13.7241
14.2334
17.8
1343.57
-698.187
-282.211
-304.004
-203.815
-133.661
-65.6835
-57.3687
-44.4208
-24.8048
-10.6335
-1.30956
10.4464
16.1957
16.498
13.7229
13.4013
16.963
1335.18
-790.18
-276.584
-301.078
-208.913
-138.191
-73.2305
-53.0883
-40.6088
-23.9826
-10.8814
-7.85265
-0.119329
8.26697
12.7691
12.179
12.4546
16.5455
1311.86
-862.581
-260.087
-303.334
-221.179
-140.296
-82.3198
-43.8356
-28.2384
-15.2577
-6.82968
-7.46488
-6.72133
-1.94964
5.86318
8.52983
10.406
15.8547
1287.71
-910.082
-235.395
-312.982
-243.685
-150.813
-91.531
-38.8658
-14.3953
-4.54176
0.843431
-1.84214
-5.12226
-5.94876
-0.301939
2.67183
6.1958
14.2205
1264.55
-933.904
-204.723
-322.735
-267.348
-168.589
-95.1988
-39.8837
-7.52527
2.1753
11.528
6.08601
1.81014
-2.91549
-3.10868
-3.58261
0.789812
11.7935
1246.58
-932.244
-162.803
-312.356
-282.183
-179.066
-97.8717
-46.6987
-6.33094
6.89933
19.5571
16.2844
11.2023
4.41322
-1.11464
-6.46359
-3.46809
8.86242
1235.65
-907.146
-107.968
-271.141
-284.446
-186.129
-106.736
-55.0143
-8.1279
12.3777
23.9855
25.2875
22.4259
14.3942
4.54642
-5.18467
-4.18438
7.77144
1226.39
-868.991
-50.9155
-227.997
-283.641
-188.64
-114.175
-62.8568
-12.5445
16.884
28.0826
30.2273
29.3284
23.3093
11.6508
-0.330388
-0.328418
9.94838
1231.15
-840.459
0.00503214
-174.331
-252.478
-175.816
-114.132
-69.5472
-17.3314
19.3138
31.4463
32.3059
30.6805
27.6996
16.7892
9.42865
8.23152
13.8466
1239.07
-838.296
15.9014
-123.848
-196.085
-150.88
-107.014
-75.193
-23.0299
19.8565
33.2887
33.0457
29.5033
27.3424
19.9411
15.3669
14.9034
17.1579
1230.16
-851.827
-13.468
-122.28
-157.073
-118.35
-86.5401
-72.1763
-28.8817
17.2022
31.8934
31.9215
28.9665
25.1168
21.4162
18.9759
18.8773
19.3175
1193.11
-778.523
14.9762
-104.2
-126.965
-73.6977
-49.2016
-51.5508
-19.663
19.9647
32.9296
34.6948
30.5009
24.9648
22.3378
22.0476
21.6668
20.5341
1177.39
-791.749
-25.8221
-64.203
-77.054
-30.3726
-16.0929
-34.5645
-13.7616
18.089
35.1742
36.2249
32.4927
28.4305
25.2092
24.159
24.3644
22.9039
1202.21
-782.275
-293.838
-235.346
-97.41
-68.391
-54.1001
-39.8436
-16.5567
7.57891
29.1659
35.0342
34.2479
31.5387
28.7776
25.9678
24.121
22.9082
1331.66
-579.598
-328.842
-363.973
-39.0877
-106.202
-78.9013
-42.7132
-9.61325
4.06305
11.1121
19.2529
23.6509
22.4647
21.095
20.5338
20.554
20.4765
1141.12
-720.804
-279.092
-278.487
-72.0268
-66.8584
-57.8958
-53.2775
-36.4341
-16.3437
-1.45863
7.15648
12.8387
15.6056
17.125
18.3739
19.3042
18.7733
1081.24
-686.925
-6.54069
-93.2248
-24.2669
-26.997
-28.8484
-32.7322
-27.6919
-19.118
-7.62836
0.125853
5.73568
9.94714
13.5236
15.4596
16.2833
16.4393
1139.84
-599.837
168.254
-62.5656
-4.31012
-12.5501
-19.3701
-22.7011
-15.3675
-11.319
-4.66013
-1.10196
2.17147
5.43925
8.86591
10.9728
12.6132
13.5758
1136.24
-591.933
180.58
-36.2389
-7.36967
-8.20677
-12.7326
-10.684
-4.32517
-2.15953
-0.243034
1.56645
3.9945
6.40453
8.79979
10.6085
12.1828
13.2785
1112.16
-616.233
145.14
-33.5593
-16.9519
-12.7737
-16.6381
-9.32721
-0.776096
1.06094
2.28245
3.25396
5.29776
7.68573
9.89512
11.1742
12.3242
13.0788
1077.16
-684.967
28.1237
-68.3171
-28.3528
-18.4721
-17.6542
-11.368
-0.697519
0.837822
3.23502
4.43444
6.34821
8.04867
9.23269
9.89554
11.1257
12.4189
1063.16
-773.497
-127.015
-113.679
-35.6635
-26.9576
-19.4139
-11.9468
-1.73498
-0.00456632
3.55789
5.29889
6.75155
7.74455
8.53288
9.06133
10.586
12.0218
1098.41
-834.572
-258.326
-146.742
-39.5607
-37.5958
-26.8594
-11.1464
0.137696
1.22816
4.24224
6.05647
6.80976
7.33901
8.18737
9.30266
10.274
11.5877
1158.29
-791.507
-320.418
-144.882
-45.581
-47.7037
-26.1814
-11.1281
1.49308
3.0249
5.34684
6.9892
7.44493
8.06011
9.61197
11.5845
11.9412
11.2497
1192.05
-625.2
-294.104
-137.004
-42.6596
-41.9459
-11.6545
-9.64605
4.99911
5.56002
7.72706
9.13427
8.90198
8.89563
10.0638
11.7688
12.0883
10.5001
1189.62
-455.391
-209.103
-134.671
-29.3881
-40.2902
-22.019
-5.29434
8.63732
7.8936
9.70977
10.638
10.0709
8.87157
8.84697
11.2534
12.3671
10.6239
1163.61
-351.983
-135.8
-142.344
-22.9705
-35.0303
-11.6768
2.04974
10.1669
9.77316
11.477
11.8204
10.8367
9.09423
9.31923
12.147
14.0543
12.7878
1285.08
-353.979
-138.894
-301.056
-151.065
-102.887
-35.2788
-7.18129
13.908
15.05
20.1099
21.5642
23.9051
22.8854
19.4622
15.5302
14.7217
18.3647
1297.08
-405.413
-168.858
-302.898
-161.374
-112.046
-38.7847
-16.5572
6.51387
9.20562
15.2351
19.8949
22.6057
22.1534
18.9205
14.8233
13.7643
17.418
1315.08
-483.418
-206.943
-309.593
-171.106
-118.613
-46.8942
-28.0027
-6.61077
-2.08356
4.6545
10.3207
17.9887
21.0261
17.964
13.4146
12.0271
15.8678
1343.62
-587.4
-249.649
-318.436
-185.32
-126.747
-56.2845
-36.9207
-19.6649
-13.5951
-5.43524
0.0902552
8.81653
15.0836
15.7073
11.2969
9.29404
13.501
1363.21
-718.704
-287.443
-327.599
-206.217
-135.475
-66.2955
-42.3611
-26.4253
-22.3578
-13.0983
-7.43895
-4.63853
3.87299
9.20203
8.02591
6.93718
11.8017
1369.04
-856.885
-312.264
-341.932
-231.351
-144.068
-77.8822
-43.5515
-24.9451
-21.9625
-15.7325
-11.6553
-10.4373
-9.30178
-2.47581
2.71718
5.18413
11.1654
1358.08
-975.226
-308.828
-359.043
-258.833
-154.604
-87.7672
-44.1287
-21.1402
-14.1544
-9.78122
-9.67328
-11.7334
-16.4463
-15.419
-5.30116
2.77529
11.5324
1329.35
-1027.88
-263.937
-372.531
-282.85
-166.994
-95.7545
-48.7299
-18.7945
-8.15657
0.280291
-1.45865
-6.8447
-16.1828
-19.922
-13.0853
-1.05422
11.3227
1291.46
-996.96
-205.199
-359.793
-297.081
-177.555
-103.934
-57.3675
-17.7481
-2.45239
8.36576
9.7553
3.13053
-9.86962
-18.3052
-16.8208
-4.90519
9.23955
1256.02
-935.057
-135.536
-305.141
-297.866
-182.333
-113.176
-67.1633
-19.7665
3.56275
15.6439
20.504
15.8198
0.355046
-12.1452
-15.6513
-7.467
7.34741
1236.27
-873.533
-57.0561
-246.504
-288.168
-181.306
-118.845
-76.2838
-24.4224
8.13464
23.2418
29.3421
26.391
11.9729
-4.33819
-12.2431
-6.76858
7.39486
1237.84
-828.184
5.74567
-190.26
-246.758
-168.134
-117.859
-83.619
-28.8685
11.0962
28.7727
34.0792
30.5267
20.9956
5.4785
-2.55967
0.0271602
10.4151
1237.6
-801.154
41.9119
-148.317
-206.137
-148.931
-110.333
-86.3894
-32.2492
12.515
31.064
35.0771
30.7989
25.6492
16.2445
10.9975
11.7481
15.6725
1229.76
-772.839
64.2071
-105.126
-169.669
-119.635
-91.4399
-79.5506
-31.7626
12.7726
29.5882
32.9049
30.368
26.0826
21.9195
18.5566
18.0277
18.7209
1223.11
-757.649
105.807
-68.3914
-129.679
-84.1502
-65.7472
-62.0501
-20.2878
17.1556
31.5932
35.754
33.5787
28.3839
24.5095
21.9077
19.8033
18.9106
1196.61
-755.266
32.084
-29.173
-73.3929
-57.9532
-48.1864
-48.5073
-18.0841
13.7872
32.3674
38.5063
36.8469
31.006
26.9773
24.666
22.8945
21.7627
1145.35
-675.96
-129.578
-69.6831
-49.1776
-66.9371
-80.7891
-76.8974
-41.887
-4.44205
28.6447
41.9667
36.4562
31.4313
28.3356
25.8536
23.8236
22.4367
1238.22
-548.621
-226.637
-184.068
-28.8749
-74.4324
-82.3566
-68.0371
-23.7217
-4.48589
7.26071
18.4955
20.948
21.3171
20.6672
19.9417
19.8692
19.9771
1091.12
-656.146
-181.075
-142.542
-74.9086
-68.4196
-60.7302
-57.8259
-41.2035
-21.5408
-3.60996
6.85294
12.1891
13.9017
14.5783
16.4647
18.143
18.3409
1091.82
-644.556
38.0306
-61.5025
-24.7163
-20.3117
-25.7211
-30.0505
-26.4726
-16.8682
-4.78799
1.76961
6.44143
9.5053
12.2212
14.1427
15.3453
15.8205
1139.95
-590.101
175.631
-49.6126
-2.34018
-10.132
-18.4803
-20.7009
-13.2125
-7.85559
-3.04792
-0.125948
2.84634
5.5627
8.2452
10.3738
12.156
13.4003
1140.11
-581.456
184.962
-32.7747
-9.00179
-9.61801
-13.8295
-9.80551
-2.98805
-0.412686
0.766488
1.95561
3.94611
6.20545
8.49662
10.2344
11.742
12.895
1119.62
-611.868
148.556
-33.6785
-20.489
-15.8947
-19.358
-12.2866
0.0991312
3.10035
4.12933
4.45572
5.98257
8.02221
9.70846
10.762
11.8783
12.7267
1083.45
-680
32.0426
-71.3857
-33.5795
-22.8032
-22.3704
-15.1067
-1.38055
2.17843
4.61404
5.46589
6.81084
8.11974
9.11566
9.80833
10.8997
12.1079
1066.44
-767.429
-121.788
-120.014
-41.4312
-29.5932
-19.3733
-15.4312
-1.84936
-0.810095
4.57532
6.01457
6.65864
7.45389
8.60302
9.26337
10.2344
11.5005
1096.82
-835.973
-254.966
-149.928
-42.7316
-36.3407
-19.5081
-13.5713
-1.60039
-1.59628
3.92036
6.48084
5.96117
6.30744
8.56394
10.3856
10.4982
11.0902
1156.77
-799.46
-322.852
-149.426
-44.8706
-37.1283
-15.3106
-10.3805
0.868337
0.655255
5.13031
7.7079
6.86008
6.4843
9.77649
12.078
10.2135
8.93487
1196.63
-646.785
-299.464
-141.404
-37.9115
-32.8648
-11.6282
-6.9887
4.71223
3.53683
6.90589
9.23389
8.40665
7.3099
9.51335
11.684
10.047
7.96719
1188.11
-476.986
-213.265
-140.734
-32.677
-31.0273
-11.0912
-4.09046
7.22081
5.50219
8.17191
10.2547
9.07818
7.04401
7.98206
10.7681
10.6478
8.49731
1162.75
-359.905
-141.629
-149.854
-32.266
-27.7386
-7.44325
-2.54295
7.5529
6.63906
9.52281
10.998
9.49507
7.13935
8.42302
12.0168
12.4844
10.585
1284.55
-286.256
-98.5183
-315.88
-130.572
-103.659
-41.6018
-0.886617
26.816
33.7793
43.3595
44.8892
40.3702
32.0412
22.941
15.3592
12.8047
16.7934
1292.45
-328.31
-117.566
-311.19
-141.344
-111.241
-41.8241
-4.17247
24.362
30.1149
38.1918
41.5867
39.8297
31.9487
22.5131
14.261
11.0528
15.6778
1309.35
-380.272
-143.356
-313.002
-155.247
-119.456
-46.9756
-11.1994
18.7969
23.5567
29.0604
31.4895
33.5408
30.3171
21.4573
12.5378
8.29295
13.1111
1339.32
-458.766
-175.05
-331.782
-175.843
-124.626
-50.2518
-17.6719
12.6767
16.9947
20.8092
19.4779
20.2339
22.6337
18.1845
9.98997
4.34047
9.69954
1364.65
-574.807
-214.791
-347.691
-199.458
-130.806
-55.7142
-24.64
4.12558
9.66867
13.8216
12.7305
8.8011
9.1723
10.7398
6.3084
2.53498
7.96446
1382.61
-724.833
-264.301
-367.582
-226.181
-138.681
-65.9405
-30.0511
-3.44955
3.59662
8.17371
8.51054
3.70862
-2.15466
-0.273431
0.916806
1.00647
7.82593
1389.01
-891.114
-302.696
-385.368
-251.85
-146.42
-78.304
-34.9254
-8.63614
0.883513
6.66694
6.77197
2.42186
-5.78007
-8.29449
-6.05655
-1.33131
8.57823
1363.83
-1009.38
-288.63
-394.085
-271.715
-155.321
-91.1219
-42.3049
-11.5199
0.637383
8.38111
8.72969
3.53136
-4.88781
-10.9475
-10.0666
-3.79695
8.57507
1315.6
-1006.61
-227.552
-381.978
-281.913
-165.617
-101.221
-52.796
-14.2094
2.17157
11.8596
13.837
8.15511
-1.28302
-8.57335
-10.8577
-6.27364
6.90235
1268.32
-940.054
-153.576
-326.758
-283.953
-166.917
-106.994
-64.1235
-18.8993
3.97326
17.2368
21.8248
15.0713
4.25007
-4.48442
-10.0336
-7.97977
5.76418
1238
-870.75
-72.2996
-266.277
-270.655
-162.568
-106.905
-73.3377
-24.3183
5.9766
24.2084
30.8247
22.2728
10.1337
-0.984268
-9.7546
-10.8792
3.73478
1233.76
-820.251
-3.38294
-199.209
-238.322
-147.75
-101.387
-79.9311
-28.3921
8.61739
29.6252
35.3896
27.3766
17.3026
3.61536
-6.54496
-8.196
5.63107
1235.76
-783.334
48.7182
-148.616
-203.825
-128.117
-93.8455
-82.532
-30.9567
10.8081
31.4895
35.2713
29.7481
24.0933
14.4707
6.44316
6.2591
13.276
1235.37
-751.213
84.3094
-109.09