/*--------------------------------*- C++ -*----------------------------------*\
| =========                 |                                                 |
| \\      /  F ield         | OpenFOAM: The Open Source CFD Toolbox           |
|  \\    /   O peration     | Version:  2112                                  |
|   \\  /    A nd           | Website:  www.openfoam.com                      |
|    \\/     M anipulation  |                                                 |
\*---------------------------------------------------------------------------*/
FoamFile
{
    version     2.0;
    format      ascii;
    arch        "LSB;label=32;scalar=64";
    class       volScalarField;
    location    "0.016";
    object      k;
}
// * * * * * * * * * * * * * * * * * * * * * * * * * * * * * * * * * * * * * //

dimensions      [0 2 -2 0 0 0 0];

internalField   nonuniform List<scalar> 
12225
(
6.20034e-05
9.36616e-05
0.000103641
0.000133457
0.000153614
0.000149823
0.000114739
7.30562e-05
5.19075e-05
4.05021e-05
3.33351e-05
2.87685e-05
2.63735e-05
2.55732e-05
2.55407e-05
2.61628e-05
2.65536e-05
3.03582e-05
2.09101e-05
2.31465e-05
2.80654e-05
4.27556e-05
5.1134e-05
5.16229e-05
4.80752e-05
3.86542e-05
3.27769e-05
2.97538e-05
2.79592e-05
2.65559e-05
2.55194e-05
2.49352e-05
2.47567e-05
2.47727e-05
2.48783e-05
2.52938e-05
2.00232e-05
1.79856e-05
1.77063e-05
1.83143e-05
1.93395e-05
1.94845e-05
1.91351e-05
1.79178e-05
1.70123e-05
1.64208e-05
1.60926e-05
1.60149e-05
1.6e-05
1.60104e-05
1.60867e-05
1.62667e-05
1.67123e-05
1.72135e-05
2.00272e-05
2.00111e-05
1.99595e-05
1.98372e-05
1.97982e-05
1.97452e-05
1.95087e-05
1.88448e-05
1.86977e-05
1.86596e-05
1.84043e-05
1.75722e-05
1.65694e-05
1.51486e-05
1.35178e-05
1.20438e-05
1.10779e-05
1.0746e-05
2.00264e-05
2.07534e-05
2.16901e-05
2.19573e-05
2.20857e-05
2.27363e-05
2.45757e-05
2.51617e-05
2.59261e-05
2.68724e-05
2.71408e-05
2.70258e-05
2.6298e-05
2.38357e-05
2.11934e-05
1.90751e-05
1.77253e-05
1.59971e-05
2.00144e-05
2.01548e-05
2.02854e-05
2.04924e-05
2.13646e-05
2.80395e-05
4.00823e-05
4.11375e-05
3.8157e-05
3.26641e-05
3.01438e-05
2.92281e-05
2.8148e-05
2.63115e-05
2.44884e-05
2.30031e-05
2.20398e-05
2.12217e-05
2.0299e-05
2.01904e-05
2.01388e-05
2.03359e-05
2.17999e-05
2.86175e-05
3.228e-05
3.24068e-05
3.15592e-05
2.90695e-05
2.67566e-05
2.52241e-05
2.44956e-05
2.38397e-05
2.3107e-05
2.23492e-05
2.18183e-05
2.139e-05
2.22703e-05
2.15098e-05
2.11059e-05
2.26398e-05
3.23151e-05
4.46924e-05
4.59364e-05
4.24802e-05
3.38605e-05
2.91005e-05
2.70806e-05
2.63889e-05
2.6176e-05
2.61665e-05
2.6708e-05
2.87607e-05
2.93007e-05
2.89802e-05
2.23751e-05
2.15168e-05
2.2345e-05
2.95811e-05
7.3494e-05
0.000138435
0.000143944
0.000119593
6.7728e-05
4.28076e-05
3.28555e-05
2.93012e-05
2.81717e-05
2.77044e-05
2.75651e-05
2.75986e-05
2.77289e-05
2.81277e-05
2.17564e-05
2.35887e-05
2.74287e-05
3.60119e-05
4.70423e-05
4.85528e-05
4.71763e-05
3.94569e-05
3.01409e-05
2.56822e-05
2.39076e-05
2.33377e-05
2.32185e-05
2.32286e-05
2.33117e-05
2.35723e-05
2.37577e-05
2.41895e-05
2.14899e-05
2.23678e-05
2.38391e-05
2.73071e-05
5.37772e-05
0.000159251
0.000184542
0.000163132
9.24465e-05
5.1521e-05
3.41304e-05
2.68402e-05
2.38659e-05
2.27298e-05
2.23917e-05
2.247e-05
2.25332e-05
2.28328e-05
2.03972e-05
2.45296e-05
4.49777e-05
4.8053e-05
4.67913e-05
4.96947e-05
5.92219e-05
7.34581e-05
7.48118e-05
6.5338e-05
4.621e-05
3.53182e-05
2.96637e-05
2.6895e-05
2.56185e-05
2.50871e-05
2.49057e-05
2.48166e-05
2.04851e-05
2.58819e-05
3.79345e-05
3.73134e-05
3.13693e-05
2.82465e-05
2.82271e-05
3.03439e-05
3.57716e-05
3.72253e-05
3.70724e-05
3.56555e-05
3.14575e-05
2.82864e-05
2.62815e-05
2.53219e-05
2.46408e-05
2.42352e-05
2.31727e-05
2.30254e-05
2.32302e-05
2.32655e-05
2.39704e-05
2.43477e-05
2.4516e-05
2.48002e-05
2.55495e-05
2.80408e-05
3.14185e-05
3.34991e-05
3.4177e-05
3.37299e-05
3.07309e-05
2.75276e-05
2.53421e-05
2.39766e-05
2.10984e-05
2.23604e-05
2.17509e-05
2.09903e-05
2.07823e-05
2.07777e-05
2.08598e-05
2.11858e-05
2.24629e-05
2.57418e-05
2.79743e-05
2.8581e-05
2.8289e-05
2.63245e-05
2.39936e-05
2.25657e-05
2.16743e-05
2.11477e-05
2.05744e-05
2.07915e-05
2.09948e-05
2.12869e-05
2.14291e-05
2.15197e-05
2.16978e-05
2.23233e-05
2.51145e-05
2.77335e-05
2.85084e-05
2.80966e-05
2.5527e-05
2.30326e-05
2.17012e-05
2.10417e-05
2.07596e-05
2.06733e-05
2.09052e-05
2.13293e-05
2.15302e-05
2.14599e-05
2.13405e-05
2.10995e-05
2.10481e-05
2.1109e-05
2.15457e-05
2.27702e-05
2.34026e-05
2.32767e-05
2.24211e-05
2.16156e-05
2.11716e-05
2.09469e-05
2.08585e-05
2.08434e-05
2.0621e-05
2.18004e-05
2.18882e-05
2.14402e-05
2.10534e-05
2.10416e-05
2.125e-05
2.16438e-05
2.19441e-05
2.21448e-05
2.21835e-05
2.21169e-05
2.17701e-05
2.12887e-05
2.09642e-05
2.07693e-05
2.0675e-05
2.06437e-05
2.05862e-05
2.09033e-05
2.10383e-05
2.10021e-05
2.08995e-05
2.08581e-05
2.08619e-05
2.09032e-05
2.1039e-05
2.14597e-05
2.20926e-05
2.2434e-05
2.24515e-05
2.22049e-05
2.15357e-05
2.10823e-05
2.08294e-05
2.07064e-05
2.01168e-05
2.10639e-05
2.1854e-05
2.20093e-05
2.18867e-05
2.1269e-05
2.08498e-05
2.08087e-05
2.10251e-05
2.20414e-05
2.25914e-05
2.26091e-05
2.25164e-05
2.24318e-05
2.22981e-05
2.20253e-05
2.17136e-05
2.14216e-05
2.01209e-05
2.19414e-05
2.33186e-05
2.32099e-05
2.2459e-05
2.21378e-05
2.18036e-05
2.1801e-05
2.19308e-05
2.20315e-05
2.20408e-05
2.20049e-05
2.18457e-05
2.1493e-05
2.12163e-05
2.10339e-05
2.09332e-05
2.08949e-05
2.0109e-05
2.13169e-05
2.31494e-05
2.35417e-05
2.33164e-05
2.23146e-05
2.15974e-05
2.15804e-05
2.22079e-05
2.30989e-05
2.29886e-05
2.22977e-05
2.19076e-05
2.177e-05
2.1739e-05
2.17436e-05
2.17718e-05
2.17761e-05
2.04818e-05
2.13274e-05
2.14441e-05
2.18045e-05
2.30745e-05
2.51285e-05
2.5199e-05
2.42127e-05
2.38813e-05
2.37837e-05
2.2941e-05
2.21768e-05
2.18904e-05
2.18302e-05
2.18575e-05
2.20722e-05
2.23106e-05
2.24045e-05
2.14752e-05
2.20693e-05
2.16645e-05
2.19084e-05
2.56057e-05
2.82608e-05
2.78415e-05
2.78095e-05
2.85597e-05
2.85724e-05
2.7084e-05
2.44029e-05
2.28651e-05
2.19998e-05
2.16066e-05
2.14997e-05
2.13586e-05
2.13438e-05
2.1072e-05
2.11371e-05
2.08231e-05
2.08802e-05
2.17053e-05
2.25318e-05
2.29811e-05
2.36969e-05
2.46482e-05
2.54908e-05
2.59977e-05
2.61298e-05
2.60821e-05
2.57177e-05
2.43947e-05
2.31694e-05
2.25064e-05
2.22647e-05
2.00133e-05
2.01149e-05
2.06992e-05
2.37889e-05
3.75498e-05
4.42714e-05
4.01856e-05
2.96613e-05
2.50037e-05
2.39959e-05
2.43227e-05
2.70306e-05
2.96553e-05
2.98569e-05
2.90458e-05
2.66394e-05
2.49519e-05
2.42595e-05
2.01298e-05
2.0031e-05
2.01897e-05
2.11151e-05
2.17053e-05
2.16657e-05
2.12773e-05
2.02165e-05
1.95627e-05
1.94519e-05
1.9485e-05
1.95221e-05
1.95078e-05
1.94016e-05
1.90727e-05
1.80731e-05
1.65821e-05
1.55383e-05
2.00099e-05
1.88886e-05
1.81632e-05
1.70257e-05
1.56788e-05
1.48439e-05
1.41562e-05
1.35355e-05
1.31687e-05
1.3058e-05
1.30538e-05
1.30932e-05
1.33051e-05
1.39252e-05
1.44105e-05
1.46695e-05
1.4778e-05
1.47952e-05
2.03485e-05
2.25533e-05
2.27267e-05
2.26883e-05
2.27823e-05
2.35332e-05
2.63402e-05
2.93697e-05
3.19164e-05
3.41416e-05
3.53363e-05
3.55077e-05
3.53328e-05
3.48021e-05
3.35525e-05
3.20393e-05
3.08641e-05
3.01369e-05
2.76887e-05
7.11378e-05
8.08968e-05
7.26192e-05
5.49545e-05
5.20356e-05
5.73212e-05
7.96098e-05
9.42652e-05
9.81201e-05
9.78353e-05
9.33449e-05
7.98072e-05
6.67221e-05
5.68529e-05
5.06235e-05
4.76774e-05
4.69415e-05
2.07166e-05
4.51508e-05
0.000100727
0.000165734
0.000271861
0.000427705
0.000609747
0.000800986
0.00100794
0.00121925
0.00142606
0.00168374
0.00208602
0.0024701
0.00297133
0.00400872
0.00669603
0.00972777
0.0111508
0.0133658
0.0211669
0.0449888
0.0600245
0.0532495
0.0274442
0.0159916
0.0132727
0.0130514
0.0130658
0.0126607
0.0116201
0.0103977
0.00869647
0.00724017
0.00558893
0.00463533
0.0033991
0.00273486
0.00190381
0.00151813
0.00106134
0.00084658
0.000638019
0.000551329
0.000517524
0.000510568
0.000494095
0.000478745
0.000473049
0.000464051
0.000443994
0.000418539
0.000399722
0.000384311
0.000365977
0.000349469
0.000340506
0.000330912
0.000312889
0.000293981
0.000281878
0.000269817
0.000251143
0.000238045
0.000229941
0.00021119
0.000193075
0.000184182
0.000168955
0.000151155
0.000137927
0.000122934
0.000107677
9.29063e-05
7.91166e-05
6.61979e-05
5.60142e-05
4.79433e-05
4.13166e-05
3.56965e-05
3.08409e-05
2.6646e-05
2.30267e-05
1.98885e-05
1.71535e-05
1.47627e-05
1.26632e-05
1.08122e-05
9.17848e-06
7.73773e-06
6.46756e-06
5.36858e-06
4.40446e-06
3.56755e-06
2.8593e-06
2.26948e-06
1.78317e-06
1.38741e-06
1.06936e-06
8.16723e-07
6.18194e-07
4.63729e-07
3.44672e-07
2.53747e-07
1.84945e-07
1.33385e-07
9.51327e-08
6.70735e-08
4.67184e-08
3.21563e-08
2.18468e-08
1.46714e-08
9.76618e-09
6.44588e-09
4.21921e-09
2.73909e-09
1.76365e-09
1.12625e-09
7.1324e-10
4.47941e-10
2.78999e-10
1.72354e-10
1.0562e-10
6.42194e-11
3.87523e-11
2.32146e-11
1.38098e-11
8.16028e-12
4.7912e-12
2.79596e-12
1.62214e-12
9.35937e-13
5.37201e-13
3.06833e-13
1.74471e-13
9.88276e-14
5.5829e-14
3.15204e-14
1.7856e-14
1.02214e-14
5.98377e-15
3.64914e-15
2.37451e-15
1.68699e-15
1.32303e-15
1.13659e-15
1.04722e-15
1.01052e-15
1.0005e-15
1e-15
1e-15
1e-15
1e-15
1e-15
1e-15
1e-15
1e-15
1e-15
1e-15
1e-15
1e-15
1e-15
1e-15
1e-15
1e-15
1e-15
1e-15
1e-15
1e-15
1e-15
1e-15
1e-15
1e-15
1e-15
1e-15
1e-15
1.26194e-15
2.74099e-13
2.75211e-10
2.72704e-07
6.38449e-05
0.000220318
0.000518444
0.000907953
0.00140948
0.00204485
0.00276401
0.00353317
0.00439049
0.00533773
0.00639184
0.0075888
0.009439
0.0134352
0.01989
0.0276744
0.0341001
0.0372594
0.0376286
0.036704
0.0358326
0.035996
0.0299789
0.021633
0.0154464
0.0125459
0.0110478
0.00985141
0.00789633
0.00668845
0.00513076
0.00409905
0.00338097
0.00294997
0.0027139
0.00259293
0.00250924
0.0024667
0.0024296
0.0024122
0.00234264
0.00221398
0.0020457
0.00190751
0.00182027
0.00175375
0.00168326
0.00162255
0.00158247
0.00154765
0.00148356
0.00139923
0.00133029
0.00126749
0.00119236
0.0011251
0.00108368
0.00104852
0.000997028
0.000944444
0.000906937
0.000864307
0.00079984
0.000761057
0.000736678
0.000686282
0.000640919
0.000609352
0.000569647
0.000530318
0.000492794
0.00045525
0.000415764
0.000377865
0.000340832
0.000285697
0.000233028
0.000197553
0.00016962
0.000146848
0.000126421
0.000108122
9.25392e-05
7.98381e-05
6.90891e-05
6.00202e-05
5.23677e-05
4.5825e-05
4.01702e-05
3.52342e-05
3.08697e-05
2.69338e-05
2.3357e-05
2.00644e-05
1.70257e-05
1.42705e-05
1.18306e-05
9.71435e-06
7.90887e-06
6.38829e-06
5.12187e-06
4.07754e-06
3.22408e-06
2.53242e-06
1.97619e-06
1.53192e-06
1.1792e-06
9.00372e-07
6.81091e-07
5.09978e-07
3.77762e-07
2.76675e-07
2.00253e-07
1.4319e-07
1.01128e-07
7.05296e-08
4.85699e-08
3.30225e-08
2.21645e-08
1.46945e-08
9.62485e-09
6.23018e-09
3.98699e-09
2.52363e-09
1.58077e-09
9.80416e-10
6.02408e-10
3.66892e-10
2.21596e-10
1.32787e-10
7.89734e-11
4.66329e-11
2.73475e-11
1.59316e-11
9.22147e-12
5.30383e-12
3.03157e-12
1.72216e-12
9.72463e-13
5.45996e-13
3.04971e-13
1.69629e-13
9.41085e-14
5.22178e-14
2.91043e-14
1.64056e-14
9.44847e-15
5.64085e-15
3.55631e-15
2.41437e-15
1.78734e-15
1.44169e-15
1.25013e-15
1.14326e-15
1.08317e-15
1.04905e-15
1.02944e-15
1.01801e-15
1.01124e-15
1.00716e-15
1.00466e-15
1.00308e-15
1.00206e-15
1.00138e-15
1.00092e-15
1.0006e-15
1.00038e-15
1.00024e-15
1.00014e-15
1.00008e-15
1.00004e-15
1.00002e-15
1.00001e-15
1e-15
1e-15
1.00002e-15
1.01887e-15
2.14883e-14
2.24898e-11
2.07681e-08
0.00010418
0.000400902
0.000822259
0.00135502
0.00211056
0.00307213
0.00416202
0.00540553
0.00687792
0.00854512
0.0104564
0.0126692
0.0151647
0.0178984
0.0208759
0.0231917
0.0239983
0.0236709
0.0218493
0.0193739
0.0160309
0.0124119
0.0109776
0.00884896
0.00766935
0.00644393
0.00539056
0.00435638
0.00370202
0.00328085
0.00308663
0.0030233
0.00301489
0.00307898
0.00312058
0.0031937
0.00321678
0.00322405
0.00321942
0.00313587
0.00306641
0.00300195
0.00295302
0.00292866
0.00291908
0.00289352
0.00283362
0.00277256
0.00267853
0.00260714
0.00247803
0.00239018
0.00234514
0.00224572
0.00208176
0.00194855
0.00188191
0.00182741
0.00171894
0.00160789
0.00154865
0.00147001
0.00133582
0.00125214
0.00118987
0.00107646
0.00100721
0.000919872
0.000858438
0.000790906
0.000732354
0.000666759
0.000601551
0.000536922
0.000475346
0.000416637
0.000362576
0.000315253
0.000276952
0.000249191
0.000225078
0.00020161
0.000177206
0.000151644
0.000126464
0.000103882
8.58163e-05
7.17051e-05
6.02827e-05
5.10045e-05
4.34246e-05
3.71936e-05
3.20357e-05
2.77519e-05
2.41529e-05
2.10194e-05
1.82599e-05
1.58028e-05
1.36013e-05
1.16311e-05
9.87511e-06
8.31918e-06
6.95022e-06
5.75564e-06
4.72385e-06
3.84271e-06
3.09767e-06
2.47422e-06
1.9579e-06
1.53443e-06
1.19045e-06
9.13878e-07
6.93896e-07
5.20905e-07
3.86471e-07
2.83285e-07
2.05085e-07
1.46599e-07
1.03453e-07
7.20673e-08
4.95677e-08
3.36769e-08
2.26149e-08
1.50227e-08
9.88039e-09
6.43928e-09
4.16134e-09
2.66793e-09
1.69741e-09
1.0718e-09
6.71656e-10
4.17662e-10
2.57675e-10
1.57689e-10
9.57027e-11
5.75927e-11
3.4362e-11
2.03254e-11
1.19204e-11
6.93312e-12
4.0008e-12
2.29207e-12
1.30487e-12
7.39043e-13
4.17017e-13
2.34827e-13
1.32223e-13
7.46234e-14
4.23457e-14
2.42669e-14
1.41347e-14
8.44754e-15
5.2478e-15
3.44176e-15
2.41789e-15
1.83386e-15
1.49789e-15
1.30248e-15
1.1873e-15
1.11836e-15
1.07636e-15
1.0502e-15
1.03348e-15
1.02247e-15
1.01504e-15
1.00997e-15
1.00649e-15
1.00415e-15
1.00262e-15
1.00162e-15
1.00103e-15
1.00066e-15
1.00046e-15
1.00046e-15
1.00074e-15
1.00258e-15
1.06736e-15
2.11929e-15
9.3646e-13
7.75659e-10
0.000125214
0.000465965
0.000897802
0.00137705
0.00201828
0.00276168
0.00364213
0.00481914
0.00618376
0.00753125
0.00886023
0.0100672
0.0109738
0.0115891
0.011832
0.0111626
0.0106939
0.00959271
0.00854015
0.00752281
0.0065189
0.00556112
0.00511941
0.004359
0.00379776
0.00339446
0.00306249
0.00292062
0.00288645
0.00300309
0.00316312
0.00336245
0.00381073
0.00425054
0.00443732
0.00457574
0.00463822
0.00468044
0.00470396
0.00470606
0.00467111
0.00456457
0.00450058
0.00446837
0.00437123
0.00416271
0.00398737
0.00391036
0.0038238
0.0036314
0.00342104
0.0033066
0.00324124
0.00314213
0.00299081
0.00288289
0.00278931
0.0027279
0.00258609
0.00245875
0.00233047
0.00225165
0.00207608
0.00196583
0.00183676
0.00168599
0.00157179
0.00142031
0.00126591
0.00111172
0.000966314
0.000830032
0.000710787
0.000609236
0.000524142
0.000453064
0.000394493
0.000346274
0.000307192
0.00027665
0.000252338
0.000232507
0.000214551
0.000197656
0.000180763
0.000160964
0.000136863
0.000110695
8.70184e-05
6.86504e-05
5.46549e-05
4.42125e-05
3.64655e-05
3.06396e-05
2.61628e-05
2.26874e-05
1.99106e-05
1.75567e-05
1.53978e-05
1.34042e-05
1.15757e-05
9.91381e-06
8.42233e-06
7.09984e-06
5.93828e-06
4.92624e-06
4.05363e-06
3.30917e-06
2.68037e-06
2.15408e-06
1.71734e-06
1.358e-06
1.06488e-06
8.27742e-07
6.37548e-07
4.86477e-07
3.676e-07
2.74963e-07
2.03524e-07
1.49051e-07
1.08012e-07
7.74777e-08
5.50442e-08
3.87577e-08
2.70602e-08
1.87419e-08
1.28784e-08
8.77848e-09
5.93413e-09
3.97656e-09
2.6405e-09
1.73666e-09
1.13092e-09
7.28988e-10
4.65057e-10
2.93607e-10
1.83455e-10
1.13466e-10
6.94871e-11
4.21509e-11
2.53393e-11
1.51056e-11
8.93641e-12
5.25164e-12
3.06898e-12
1.78528e-12
1.03477e-12
5.98153e-13
3.45168e-13
1.9907e-13
1.14931e-13
6.6582e-14
3.88452e-14
2.29441e-14
1.38193e-14
8.56492e-15
5.52059e-15
3.74289e-15
2.69414e-15
2.0673e-15
1.68645e-15
1.45011e-15
1.2995e-15
1.2013e-15
1.13488e-15
1.09087e-15
1.05998e-15
1.03921e-15
1.02644e-15
1.01716e-15
1.01294e-15
1.01306e-15
1.01817e-15
1.03826e-15
1.17366e-15
1.79894e-15
3.40535e-14
5.96057e-14
2.59803e-13
3.27333e-11
0.000125553
0.000441546
0.000790416
0.00119681
0.00170966
0.00225068
0.00283144
0.00347763
0.00414264
0.00478064
0.00536699
0.00582053
0.00603298
0.00609724
0.0058677
0.00548246
0.00505919
0.00445672
0.00403593
0.00366024
0.0033468
0.00297965
0.00281951
0.00260817
0.00249294
0.00245309
0.00246916
0.00268966
0.00290396
0.00318556
0.00365891
0.00437122
0.00493326
0.00520008
0.00558004
0.00574633
0.00600367
0.00627852
0.0064622
0.00667256
0.00683212
0.00700749
0.00720405
0.0073134
0.00733176
0.00711689
0.00659871
0.00625513
0.0059464
0.00547165
0.00498537
0.00456296
0.00424931
0.00403923
0.00375835
0.00363576
0.00345917
0.003377
0.00312798
0.00297099
0.00273244
0.00262138
0.00240266
0.00227068
0.00210434
0.00198607
0.00185377
0.00173315
0.00160821
0.00146321
0.00129826
0.00111747
0.000937894
0.000772255
0.000629454
0.000516886
0.000429746
0.000363501
0.000313103
0.000274604
0.000244589
0.000221006
0.000204364
0.000193182
0.000184596
0.000175072
0.000164456
0.000151803
0.00013361
0.000109273
8.31858e-05
6.14812e-05
4.58075e-05
3.4705e-05
2.70489e-05
2.17744e-05
1.80417e-05
1.53501e-05
1.34523e-05
1.2018e-05
1.07582e-05
9.49431e-06
8.25044e-06
7.07334e-06
5.99162e-06
5.02174e-06
4.16859e-06
3.42972e-06
2.79822e-06
2.26472e-06
1.81861e-06
1.44908e-06
1.14569e-06
8.98713e-07
6.99327e-07
5.39693e-07
4.12961e-07
3.13223e-07
2.35432e-07
1.75319e-07
1.29309e-07
9.44421e-08
6.82865e-08
4.88692e-08
3.4609e-08
2.42473e-08
1.68017e-08
1.15116e-08
7.79641e-09
5.21883e-09
3.45062e-09
2.25346e-09
1.45407e-09
9.26642e-10
5.82987e-10
3.61973e-10
2.21739e-10
1.33988e-10
7.98582e-11
4.69523e-11
2.72431e-11
1.56126e-11
8.84815e-12
4.96579e-12
2.76512e-12
1.53187e-12
8.47111e-13
4.69433e-13
2.61907e-13
1.47912e-13
8.50304e-14
4.99958e-14
3.01876e-14
1.88107e-14
1.2161e-14
8.20091e-15
5.78878e-15
4.27113e-15
3.28426e-15
2.62452e-15
2.16978e-15
1.85063e-15
1.62269e-15
1.45399e-15
1.33384e-15
1.25072e-15
1.18094e-15
1.15894e-15
1.16816e-15
1.23301e-15
1.46655e-15
2.09462e-15
4.43352e-15
1.03564e-14
6.66215e-14
2.4733e-13
9.08803e-12
9.5006e-12
7.31784e-11
7.36339e-11
0.000107638
0.000372772
0.000657601
0.00097681
0.00137024
0.00176562
0.00216215
0.00257126
0.00296274
0.00330332
0.00351676
0.00361491
0.00364047
0.00353881
0.00327499
0.00307618
0.00283502
0.00254903
0.00239112
0.00224511
0.00214328
0.00204066
0.00200984
0.00199697
0.00202983
0.0021823
0.00240971
0.00273397
0.00311747
0.00382043
0.00475837
0.00542336
0.00595067
0.00661878
0.00735076
0.00808378
0.00892025
0.00995978
0.0110542
0.0123018
0.0135349
0.0147317
0.0155847
0.0159617
0.016048
0.0154305
0.0143581
0.012845
0.0118259
0.0101456
0.00889241
0.00768919
0.00654073
0.00597771
0.00522545
0.00492008
0.00454452
0.00436144
0.00419222
0.00403432
0.00374394
0.00347138
0.00308079
0.00280067
0.00246547
0.00223765
0.00202947
0.00188168
0.0017633
0.00164365
0.00150929
0.00134865
0.00117263
0.000994955
0.000822432
0.000659922
0.000525907
0.000424705
0.000350768
0.000295075
0.000252983
0.000220422
0.000194784
0.000174866
0.000161091
0.000155618
0.00015507
0.000154607
0.000150184
0.000141303
0.000128513
0.000107472
8.0861e-05
5.69242e-05
3.96819e-05
2.78178e-05
2.00099e-05
1.4992e-05
1.17317e-05
9.56195e-06
8.13225e-06
7.24277e-06
6.59765e-06
5.96447e-06
5.27872e-06
4.58077e-06
3.90624e-06
3.27989e-06
2.71644e-06
2.22234e-06
1.79804e-06
1.43997e-06
1.14223e-06
8.97824e-07
6.99475e-07
5.40195e-07
4.13549e-07
3.13805e-07
2.35985e-07
1.75838e-07
1.29791e-07
9.48805e-08
6.86746e-08
4.92027e-08
3.4885e-08
2.44696e-08
1.69759e-08
1.16447e-08
7.89546e-09
5.28988e-09
3.50097e-09
2.28797e-09
1.47593e-09
9.39404e-10
5.89673e-10
3.64864e-10
2.22435e-10
1.33537e-10
7.88951e-11
4.58433e-11
2.61819e-11
1.46874e-11
8.08819e-12
4.37162e-12
2.31909e-12
1.20756e-12
6.17565e-13
3.10637e-13
1.54071e-13
7.56895e-14
3.71537e-14
1.85468e-14
9.71343e-15
5.52901e-15
3.52571e-15
2.52287e-15
1.97531e-15
1.67492e-15
1.47309e-15
1.34315e-15
1.27349e-15
1.18267e-15
1.14814e-15
1.1777e-15
1.33176e-15
1.81962e-15
3.15492e-15
6.67011e-15
1.59988e-14
4.08536e-14
1.08375e-13
2.88474e-13
7.76906e-13
1.99601e-12
5.35094e-12
1.1341e-11
4.27399e-11
4.52833e-11
6.94537e-11
7.37272e-11
8.55927e-05
0.000299975
0.000522787
0.000764819
0.00106249
0.001357
0.00163779
0.00191514
0.00217102
0.00239513
0.00253736
0.00258382
0.00259045
0.0025395
0.00240966
0.00230428
0.00216714
0.00198642
0.00186084
0.00175105
0.00171004
0.00169631
0.00170571
0.00176045
0.00188845
0.00212729
0.00246777
0.00296312
0.00368221
0.00456324
0.00531699
0.00619683
0.00731996
0.00876078
0.0104843
0.0124571
0.0149082
0.0179766
0.0216207
0.0255159
0.0289794
0.0314073
0.0324561
0.0327219
0.031524
0.0288915
0.0270228
0.0232474
0.021141
0.0168904
0.0150591
0.0121635
0.00983587
0.00866241
0.00664565
0.00576878
0.00502789
0.00464097
0.00445727
0.00438362
0.00432624
0.00426962
0.00407508
0.0037519
0.00331169
0.00283772
0.00245401
0.00217965
0.00196792
0.00179125
0.00162416
0.00144495
0.00125596
0.00106885
0.000898014
0.000750002
0.000617954
0.000501143
0.00040403
0.000332511
0.000279618
0.000239501
0.000207124
0.000179049
0.000156142
0.00013934
0.000128243
0.000124832
0.000127928
0.000133425
0.000134006
0.000130832
0.000119539
9.95073e-05
7.35444e-05
4.99721e-05
3.31601e-05
2.18607e-05
1.46471e-05
1.02054e-05
7.50585e-06
5.83109e-06
4.78309e-06
4.17369e-06
3.8146e-06
3.5036e-06
3.15114e-06
2.76732e-06
2.37741e-06
2.00247e-06
1.65731e-06
1.35042e-06
1.08512e-06
8.61028e-07
6.75352e-07
5.24022e-07
4.02444e-07
3.06015e-07
2.3043e-07
1.71836e-07
1.26898e-07
9.27917e-08
6.71756e-08
4.81366e-08
3.41354e-08
2.39493e-08
1.66197e-08
1.14046e-08
7.73634e-09
5.18625e-09
3.4347e-09
2.24637e-09
1.45032e-09
9.23952e-10
5.80548e-10
3.59586e-10
2.19427e-10
1.31835e-10
7.79422e-11
4.53132e-11
2.58869e-11
1.45221e-11
7.99401e-12
4.3152e-12
2.28283e-12
1.18295e-12
6.00268e-13
2.98273e-13
1.45232e-13
6.94345e-14
3.27585e-14
1.54261e-14
7.42831e-15
3.82104e-15
2.23069e-15
1.54038e-15
1.24643e-15
1.119e-15
1.06486e-15
1.0402e-15
1.02372e-15
1.03328e-15
1.08164e-15
1.20795e-15
1.49178e-15
2.10576e-15
3.48145e-15
6.67911e-15
1.46262e-14
3.46432e-14
8.74901e-14
2.21979e-13
5.76937e-13
1.40881e-12
3.92552e-12
7.42696e-12
2.34861e-11
2.50784e-11
2.7527e-11
3.45088e-11
6.46653e-05
0.000232436
0.000401142
0.000582615
0.000808361
0.00103725
0.00125005
0.00145476
0.00164136
0.00180638
0.0019433
0.00204812
0.00211188
0.00213255
0.00211821
0.00208866
0.00202463
0.00190389
0.00175164
0.00162332
0.00158434
0.00157948
0.00159713
0.00166735
0.00182378
0.00209653
0.00249868
0.00308293
0.00393256
0.0049662
0.00618058
0.00808058
0.0110173
0.0147672
0.0184379
0.0223193
0.0275101
0.0341224
0.0424206
0.0509113
0.0586325
0.062342
0.0637973
0.0636679
0.0575877
0.0512843
0.0440543
0.0344384
0.0297521
0.023258
0.0204608
0.015776
0.0126468
0.0108742
0.00891327
0.00675351
0.00572199
0.00477708
0.00438191
0.00423855
0.00425324
0.00436588
0.00438488
0.00433535
0.00422911
0.00403353
0.00370476
0.00327787
0.00282775
0.00239511
0.002023
0.0016811
0.00136923
0.00111188
0.000908166
0.000753891
0.00063612
0.000530788
0.000438518
0.00035748
0.000292746
0.000247221
0.000214692
0.000190049
0.000167794
0.000145312
0.00012617
0.00011284
0.000105262
0.000104427
0.000110279
0.000117849
0.000119693
0.000117894
0.000108752
8.70804e-05
6.13724e-05
4.0282e-05
2.5647e-05
1.61103e-05
1.02099e-05
6.69809e-06
4.65328e-06
3.45283e-06
2.73992e-06
2.3454e-06
2.14334e-06
1.99367e-06
1.81944e-06
1.61477e-06
1.39593e-06
1.17832e-06
9.73745e-07
7.89698e-07
6.29829e-07
4.9487e-07
3.83598e-07
2.93662e-07
2.22205e-07
1.66276e-07
1.23093e-07
9.01666e-08
6.53569e-08
4.68769e-08
3.3266e-08
2.33533e-08
1.62148e-08
1.11325e-08
7.55564e-09
5.06787e-09
3.35828e-09
2.19784e-09
1.42003e-09
9.0541e-10
5.69428e-10
3.5307e-10
2.15712e-10
1.29784e-10
7.68465e-11
4.47498e-11
2.56105e-11
1.43943e-11
7.93968e-12
4.29485e-12
2.2769e-12
1.18234e-12
6.01129e-13
2.99212e-13
1.45881e-13
6.97917e-14
3.29139e-14
1.54632e-14
7.40205e-15
3.76781e-15
2.16931e-15
1.48309e-15
1.19578e-15
1.07812e-15
1.03102e-15
1.01294e-15
1.00463e-15
1.00822e-15
1.044e-15
1.14596e-15
1.37964e-15
1.87866e-15
2.97514e-15
5.44003e-15
1.13624e-14
2.57059e-14
6.2296e-14
1.51016e-13
3.73128e-13
8.56165e-13
2.42267e-12
3.95295e-12
8.83991e-12
9.84316e-12
1.05781e-11
1.31329e-11
4.62505e-05
0.000173891
0.000297967
0.000432443
0.000601371
0.000786785
0.000958926
0.00112163
0.0012731
0.00141513
0.00154951
0.00167557
0.00179765
0.0019338
0.00203163
0.0020456
0.00202442
0.00191829
0.00176444
0.00161956
0.00156559
0.00155626
0.00156855
0.00163377
0.00179465
0.00209209
0.0025836
0.00337479
0.00446301
0.00585308
0.00790053
0.0110234
0.0152265
0.0195788
0.0246692
0.0321834
0.0429724
0.0586056
0.0784951
0.0997098
0.115187
0.126746
0.132114
0.133597
0.125123
0.109468
0.0909836
0.0633485
0.0488945
0.0324517
0.0252008
0.0193392
0.0148376
0.0116217
0.0100044
0.00817899
0.00682848
0.00538436
0.00428613
0.00382807
0.00366047
0.00367999
0.00387941
0.00407794
0.00420303
0.00426034
0.00422602
0.00416157
0.00404459
0.00377895
0.00327719
0.00256693
0.00182323
0.00129663
0.000936421
0.000712987
0.000578395
0.00050869
0.000441474
0.000372162
0.000308868
0.000254257
0.00021507
0.000189446
0.000171124
0.000154115
0.00013591
0.000116751
0.000102155
9.30357e-05
9.01687e-05
9.23028e-05
0.000101119
0.000107023
0.000108125
0.000105767
9.47221e-05
7.00948e-05
4.64706e-05
2.93629e-05
1.79785e-05
1.08482e-05
6.58871e-06
4.13196e-06
2.7441e-06
1.95733e-06
1.50611e-06
1.26446e-06
1.15148e-06
1.0809e-06
9.99081e-07
8.95981e-07
7.79706e-07
6.59909e-07
5.4476e-07
4.39868e-07
3.48287e-07
2.71015e-07
2.07616e-07
1.56804e-07
1.16883e-07
8.60565e-08
6.26164e-08
4.50414e-08
3.20353e-08
2.25299e-08
1.56668e-08
1.07705e-08
7.31892e-09
4.91485e-09
3.26067e-09
2.13648e-09
1.38209e-09
8.82362e-10
5.55699e-10
3.45069e-10
2.11161e-10
1.27265e-10
7.54965e-11
4.40529e-11
2.5267e-11
1.4235e-11
7.87197e-12
4.27002e-12
2.27048e-12
1.18279e-12
6.03429e-13
3.01452e-13
1.47529e-13
7.08476e-14
3.35289e-14
1.57952e-14
7.57066e-15
3.84879e-15
2.20568e-15
1.49811e-15
1.20097e-15
1.07924e-15
1.03044e-15
1.01172e-15
1.00389e-15
1.00173e-15
1.02121e-15
1.09264e-15
1.26853e-15
1.64624e-15
2.45912e-15
4.22477e-15
8.31094e-15
1.77949e-14
4.08462e-14
9.37197e-14
2.16446e-13
4.82711e-13
9.4151e-13
2.06043e-12
2.23439e-12
2.6107e-12
2.89428e-12
3.88277e-12
3.09694e-05
0.000124043
0.000211429
0.000313358
0.000436013
0.000585832
0.000735876
0.000883501
0.00101938
0.00114801
0.00127106
0.00141068
0.00156384
0.00173739
0.00195227
0.00206975
0.00207287
0.0019892
0.00183321
0.00166043
0.00157829
0.00156193
0.00156915
0.00162579
0.00178301
0.00210459
0.00261825
0.0033654
0.00443211
0.00594372
0.00834281
0.0120796
0.0171941
0.0243576
0.0343207
0.0486415
0.0721615
0.108378
0.150734
0.18745
0.217236
0.241431
0.254409
0.259535
0.257627
0.230342
0.202924
0.152985
0.106854
0.0653356
0.0401839
0.026787
0.0177681
0.01317
0.0102872
0.00855181
0.00743475
0.00667023
0.00561259
0.00442692
0.00370736
0.00347006
0.0034384
0.00352544
0.00358465
0.00360584
0.00373763
0.00401592
0.00417801
0.00417948
0.00404254
0.00374028
0.00307224
0.00206449
0.00123945
0.000773818
0.000534314
0.000411045
0.000368513
0.000349328
0.000310054
0.000263433
0.000218955
0.000185337
0.000165054
0.000152768
0.000139918
0.000125016
0.000107621
9.29509e-05
8.34045e-05
7.98421e-05
8.06344e-05
8.74532e-05
9.57647e-05
9.89363e-05
9.86525e-05
9.36887e-05
7.55858e-05
5.05302e-05
3.18561e-05
1.92966e-05
1.13758e-05
6.63193e-06
3.90129e-06
2.37234e-06
1.52826e-06
1.0596e-06
7.96695e-07
6.60028e-07
5.9964e-07
5.66525e-07
5.28923e-07
4.78374e-07
4.18441e-07
3.54701e-07
2.92257e-07
2.34804e-07
1.8448e-07
1.42099e-07
1.07536e-07
8.00907e-08
5.87845e-08
4.25633e-08
3.04238e-08
2.14786e-08
1.49809e-08
1.03244e-08
7.03045e-09
4.72992e-09
3.1434e-09
2.06308e-09
1.33682e-09
8.54906e-10
5.39355e-10
3.3554e-10
2.05733e-10
1.24255e-10
7.38763e-11
4.32118e-11
2.48491e-11
1.40389e-11
7.78691e-12
4.23758e-12
2.26108e-12
1.18228e-12
6.05551e-13
3.03781e-13
1.49327e-13
7.20412e-14
3.42529e-14
1.62065e-14
7.7919e-15
3.96222e-15
2.26134e-15
1.52428e-15
1.21265e-15
1.08418e-15
1.03247e-15
1.01229e-15
1.00455e-15
1.00136e-15
1.00536e-15
1.04428e-15
1.15769e-15
1.41135e-15
1.95345e-15
3.09326e-15
5.60576e-15
1.11267e-14
2.3667e-14
5.02746e-14
1.21671e-13
2.11741e-13
4.62887e-13
5.36168e-13
5.83541e-13
6.86735e-13
7.66383e-13
1.05483e-12
1.90736e-05
8.43054e-05
0.000143283
0.000221819
0.000305272
0.00042223
0.000549029
0.000680967
0.000807703
0.000932998
0.00105813
0.00119044
0.00134602
0.0015311
0.00176573
0.00206061
0.00225426
0.00227453
0.00208206
0.00181186
0.00164773
0.00160194
0.00159822
0.00164275
0.00178757
0.00208173
0.00255907
0.00324303
0.00421851
0.00566101
0.00796399
0.0118079
0.0189027
0.0312496
0.0498828
0.0771461
0.117576
0.170133
0.222002
0.265881
0.303587
0.335913
0.353928
0.361909
0.363308
0.346399
0.321573
0.27925
0.221586
0.148263
0.0864601
0.04814
0.0266915
0.0159664
0.0106887
0.00799715
0.00675691
0.00649237
0.00622508
0.00552888
0.00493403
0.00417456
0.00374732
0.00364159
0.00358966
0.0034321
0.00316681
0.00299999
0.00324386
0.00375463
0.00395473
0.00387985
0.00353451
0.00288524
0.00200851
0.00117279
0.000645054
0.00040427
0.000299787
0.000259599
0.00026012
0.000255837
0.000224855
0.000189171
0.00016066
0.000144756
0.000136157
0.000126393
0.000113431
9.75317e-05
8.3698e-05
7.4563e-05
7.11889e-05
7.15995e-05
7.7192e-05
8.68733e-05
9.14421e-05
9.19852e-05
8.93784e-05
7.67618e-05
5.19962e-05
3.26949e-05
1.96479e-05
1.14149e-05
6.49553e-06
3.67921e-06
2.11587e-06
1.26339e-06
8.00189e-07
5.44859e-07
4.02757e-07
3.30126e-07
2.98742e-07
2.83358e-07
2.66906e-07
2.43471e-07
2.14137e-07
1.81881e-07
1.49649e-07
1.19683e-07
9.33402e-08
7.1192e-08
5.32326e-08
3.91004e-08
2.82578e-08
2.01182e-08
1.4123e-08
9.78212e-09
6.68778e-09
4.51406e-09
3.00827e-09
1.97925e-09
1.28544e-09
8.23862e-10
5.20922e-10
3.24812e-10
1.99633e-10
1.20878e-10
7.20651e-11
4.22767e-11
2.43888e-11
1.38261e-11
7.6974e-12
4.20567e-12
2.25378e-12
1.18399e-12
6.09507e-13
3.07435e-13
1.52004e-13
7.37833e-14
3.53006e-14
1.68e-14
8.11183e-15
4.12732e-15
2.34323e-15
1.56345e-15
1.23079e-15
1.09231e-15
1.03605e-15
1.01371e-15
1.00518e-15
1.00176e-15
1.00068e-15
1.00733e-15
1.05567e-15
1.18719e-15
1.48131e-15
2.08697e-15
3.34616e-15
5.89695e-15
1.10983e-14
2.35216e-14
3.86752e-14
7.01813e-14
7.87802e-14
9.77133e-14
1.10639e-13
1.39145e-13
1.6097e-13
2.39064e-13
1.0661e-05
5.39166e-05
9.23477e-05
0.000149224
0.000208894
0.000295378
0.000397984
0.000511763
0.000634497
0.000760324
0.000875135
0.00100431
0.00115428
0.00135427