/*--------------------------------*- C++ -*----------------------------------*\
| =========                 |                                                 |
| \\      /  F ield         | OpenFOAM: The Open Source CFD Toolbox           |
|  \\    /   O peration     | Version:  2112                                  |
|   \\  /    A nd           | Website:  www.openfoam.com                      |
|    \\/     M anipulation  |                                                 |
\*---------------------------------------------------------------------------*/
FoamFile
{
    version     2.0;
    format      ascii;
    arch        "LSB;label=32;scalar=64";
    class       surfaceScalarField;
    location    "0.016";
    object      phi_0;
}
// * * * * * * * * * * * * * * * * * * * * * * * * * * * * * * * * * * * * * //

dimensions      [0 3 -1 0 0 0 0];

oriented        oriented;

internalField   nonuniform List<scalar> 
24170
(
3.09757e-06
1.04905e-07
3.01643e-06
8.11368e-08
2.92313e-06
9.33054e-08
2.81186e-06
1.11271e-07
2.70568e-06
1.06178e-07
2.61474e-06
9.09422e-08
2.53563e-06
7.91107e-08
2.46167e-06
7.39535e-08
2.38783e-06
7.3848e-08
2.31036e-06
7.74629e-08
2.22862e-06
8.17433e-08
2.14315e-06
8.54708e-08
2.05889e-06
8.42598e-08
1.97618e-06
8.27079e-08
1.89334e-06
8.28383e-08
1.81192e-06
8.14193e-08
1.71899e-06
9.29335e-08
1.05252e-07
1.61374e-06
3.4531e-06
-3.56809e-08
3.48847e-06
4.57615e-08
3.50453e-06
7.72459e-08
3.51439e-06
1.01414e-07
3.50888e-06
1.1169e-07
3.49069e-06
1.09133e-07
3.4646e-06
1.05201e-07
3.43482e-06
1.0373e-07
3.40602e-06
1.02644e-07
3.38164e-06
1.01847e-07
3.36295e-06
1.00429e-07
3.34807e-06
1.00351e-07
3.33348e-06
9.8852e-08
3.3159e-06
1.00285e-07
3.29119e-06
1.07555e-07
3.25644e-06
1.16168e-07
3.21249e-06
1.36882e-07
1.58525e-07
3.15922e-06
3.64178e-06
6.39899e-09
3.64031e-06
4.72385e-08
3.65654e-06
6.101e-08
3.67632e-06
8.16411e-08
3.6849e-06
1.03108e-07
3.6828e-06
1.11229e-07
3.67735e-06
1.10652e-07
3.67429e-06
1.06791e-07
3.67605e-06
1.00888e-07
3.68245e-06
9.54422e-08
3.69109e-06
9.17913e-08
3.69955e-06
9.1886e-08
3.70433e-06
9.40762e-08
3.70465e-06
9.99658e-08
3.69951e-06
1.12698e-07
3.68795e-06
1.27724e-07
3.67471e-06
1.5012e-07
1.72476e-07
3.66076e-06
3.98875e-06
-3.03926e-08
4.01774e-06
1.82505e-08
3.991e-06
8.7749e-08
3.94263e-06
1.30016e-07
3.91689e-06
1.2884e-07
3.9226e-06
1.05519e-07
3.94766e-06
8.55966e-08
3.97669e-06
7.77599e-08
3.99871e-06
7.88661e-08
4.00854e-06
8.56095e-08
4.00576e-06
9.4572e-08
3.99397e-06
1.03681e-07
3.97713e-06
1.1091e-07
3.95976e-06
1.17343e-07
3.94528e-06
1.27174e-07
3.93353e-06
1.39473e-07
3.92715e-06
1.56504e-07
1.76184e-07
3.92344e-06
4.15839e-06
-9.66459e-08
4.24355e-06
-6.69062e-08
4.2518e-06
7.9494e-08
4.25057e-06
1.31245e-07
4.26534e-06
1.14075e-07
4.28242e-06
8.84379e-08
4.28718e-06
8.08367e-08
4.27793e-06
8.70089e-08
4.26182e-06
9.49807e-08
4.24642e-06
1.01007e-07
4.2348e-06
1.06191e-07
4.22616e-06
1.12326e-07
4.21785e-06
1.19214e-07
4.20864e-06
1.26555e-07
4.19955e-06
1.36266e-07
4.19124e-06
1.47787e-07
4.18629e-06
1.61449e-07
1.77242e-07
4.18523e-06
4.45248e-06
-1.40972e-07
4.51053e-06
-1.24959e-07
4.57303e-06
1.6997e-08
4.62491e-06
7.93642e-08
4.64684e-06
9.21443e-08
4.64279e-06
9.24843e-08
4.6265e-06
9.71213e-08
4.60889e-06
1.04626e-07
4.59336e-06
1.1051e-07
4.5783e-06
1.16066e-07
4.56169e-06
1.22798e-07
4.54424e-06
1.29776e-07
4.52814e-06
1.35317e-07
4.51554e-06
1.39157e-07
4.50784e-06
1.43963e-07
4.50432e-06
1.51308e-07
4.50417e-06
1.61597e-07
1.75493e-07
4.50592e-06
4.749e-06
-2.23224e-07
4.78317e-06
-1.59131e-07
4.81871e-06
-1.85447e-08
4.84531e-06
5.27627e-08
4.85423e-06
8.32277e-08
4.84954e-06
9.71798e-08
4.84063e-06
1.0603e-07
4.83496e-06
1.10289e-07
4.83474e-06
1.10736e-07
4.83829e-06
1.12512e-07
4.8421e-06
1.18995e-07
4.84304e-06
1.28831e-07
4.83955e-06
1.38806e-07
4.83229e-06
1.46418e-07
4.82437e-06
1.51882e-07
4.81864e-06
1.57039e-07
4.81789e-06
1.62347e-07
1.70316e-07
4.82307e-06
5.20825e-06
-2.58562e-07
5.18499e-06
-1.35875e-07
5.22703e-06
-6.05848e-08
5.27847e-06
1.32983e-09
5.29966e-06
6.20322e-08
5.28725e-06
1.09593e-07
5.25762e-06
1.35658e-07
5.22608e-06
1.41826e-07
5.19929e-06
1.3753e-07
5.1791e-06
1.32703e-07
5.16628e-06
1.31814e-07
5.16081e-06
1.34297e-07
5.1617e-06
1.37914e-07
5.16691e-06
1.41209e-07
5.17434e-06
1.44452e-07
5.18255e-06
1.48827e-07
5.18968e-06
1.55221e-07
1.63362e-07
5.19663e-06
5.51035e-06
-9.61746e-08
5.50983e-06
-1.3536e-07
5.54986e-06
-1.00611e-07
5.60979e-06
-5.85993e-08
5.64786e-06
2.39556e-08
5.64179e-06
1.15671e-07
5.61187e-06
1.65573e-07
5.58819e-06
1.65509e-07
5.58397e-06
1.41752e-07
5.5956e-06
1.21072e-07
5.61374e-06
1.13667e-07
5.63101e-06
1.17033e-07
5.64411e-06
1.24811e-07
5.65237e-06
1.32949e-07
5.65642e-06
1.40405e-07
5.65684e-06
1.48407e-07
5.65431e-06
1.57748e-07
1.6879e-07
5.64889e-06
5.93311e-06
-1.23543e-07
5.91181e-06
-1.14063e-07
5.90627e-06
-9.50743e-08
5.88589e-06
-3.8214e-08
5.85784e-06
5.20028e-08
5.83123e-06
1.42278e-07
5.81628e-06
1.80531e-07
5.81726e-06
1.64522e-07
5.83186e-06
1.27155e-07
5.85432e-06
9.86058e-08
5.87868e-06
8.93151e-08
5.89989e-06
9.58231e-08
5.91443e-06
1.10266e-07
5.92125e-06
1.26127e-07
5.9221e-06
1.39557e-07
5.92022e-06
1.50292e-07
5.91956e-06
1.58401e-07
1.65874e-07
5.92248e-06
6.51957e-06
-1.7728e-07
6.50631e-06
-1.00799e-07
6.52719e-06
-1.15952e-07
6.53634e-06
-4.73665e-08
6.50951e-06
7.8833e-08
6.47209e-06
1.79694e-07
6.43999e-06
2.12632e-07
6.4224e-06
1.82114e-07
6.42132e-06
1.28235e-07
6.43221e-06
8.7715e-08
6.44649e-06
7.50413e-08
6.45628e-06
8.60298e-08
6.45809e-06
1.08458e-07
6.45351e-06
1.307e-07
6.44702e-06
1.46052e-07
6.44319e-06
1.54121e-07
6.44476e-06
1.56829e-07
1.58707e-07
6.45193e-06
5.70323e-06
-1.27256e-07
5.70128e-06
-9.8854e-08
5.67427e-06
-8.89385e-08
5.68609e-06
-5.91889e-08
5.7382e-06
2.67309e-08
5.77658e-06
1.41314e-07
5.77154e-06
2.17666e-07
5.73081e-06
2.22847e-07
5.68404e-06
1.75008e-07
5.65664e-06
1.15112e-07
5.65658e-06
7.50997e-08
5.67648e-06
6.61352e-08
5.70359e-06
8.13405e-08
5.7269e-06
1.07397e-07
5.74158e-06
1.31365e-07
5.74781e-06
1.47891e-07
5.74884e-06
1.55806e-07
1.57999e-07
5.74954e-06
7.043e-06
-9.09853e-08
7.04415e-06
-1.00009e-07
6.96145e-06
-6.23339e-09
6.87926e-06
2.29991e-08
6.86515e-06
4.08384e-08
6.92129e-06
8.51698e-08
6.99997e-06
1.3899e-07
7.05883e-06
1.63985e-07
7.08223e-06
1.51612e-07
7.0761e-06
1.21239e-07
7.05647e-06
9.47343e-08
7.03909e-06
8.35095e-08
7.03218e-06
8.82497e-08
7.03522e-06
1.04357e-07
7.04268e-06
1.23904e-07
7.0491e-06
1.41472e-07
7.05127e-06
1.53635e-07
1.60042e-07
7.04923e-06
8.36352e-06
6.59899e-09
8.38643e-06
-1.22924e-07
8.45782e-06
-7.76189e-08
8.48398e-06
-3.1655e-09
8.47015e-06
5.4674e-08
8.44083e-06
1.14484e-07
8.43508e-06
1.44743e-07
8.46703e-06
1.32041e-07
8.52279e-06
9.58514e-08
8.57615e-06
6.78805e-08
8.60597e-06
6.49112e-08
8.60624e-06
8.32356e-08
8.58481e-06
1.09682e-07
8.55549e-06
1.33681e-07
8.53022e-06
1.49167e-07
8.51513e-06
1.56568e-07
8.51249e-06
1.56271e-07
1.52111e-07
8.52042e-06
1.04249e-05
-9.42294e-09
1.03623e-05
-6.03096e-08
1.03404e-05
-5.5654e-08
1.03866e-05
-4.94099e-08
1.04273e-05
1.3959e-08
1.04407e-05
1.01095e-07
1.04327e-05
1.52769e-07
1.04094e-05
1.5533e-07
1.03779e-05
1.27363e-07
1.03478e-05
9.79764e-08
1.03273e-05
8.54212e-08
1.03184e-05
9.20658e-08
1.03186e-05
1.09484e-07
1.03236e-05
1.28733e-07
1.03313e-05
1.4144e-07
1.03415e-05
1.46389e-07
1.03561e-05
1.41617e-07
1.31528e-07
1.03767e-05
1.28042e-05
1.22475e-07
1.27465e-05
-2.56579e-09
1.27495e-05
-5.86936e-08
1.27285e-05
-2.84154e-08
1.27273e-05
1.52181e-08
1.27666e-05
6.17777e-08
1.28004e-05
1.18966e-07
1.27913e-05
1.64478e-07
1.27318e-05
1.8684e-07
1.26463e-05
1.83492e-07
1.25679e-05
1.63783e-07
1.25182e-05
1.41752e-07
1.25012e-05
1.26512e-07
1.25091e-05
1.20794e-07
1.25308e-05
1.19786e-07
1.25587e-05
1.1848e-07
1.2588e-05
1.12277e-07
9.98617e-08
1.26197e-05
1.55587e-05
1.49261e-07
1.55077e-05
4.84512e-08
1.54998e-05
-5.07743e-08
1.54704e-05
9.46896e-10
1.53793e-05
1.06298e-07
1.52987e-05
1.42413e-07
1.52735e-05
1.44156e-07
1.53003e-05
1.37679e-07
1.53564e-05
1.30733e-07
1.54175e-05
1.2244e-07
1.54704e-05
1.10812e-07
1.55153e-05
9.69303e-08
1.55577e-05
8.40966e-08
1.56037e-05
7.47669e-08
1.56534e-05
7.01288e-08
1.57033e-05
6.85118e-08
1.57462e-05
6.94225e-08
7.07348e-08
1.57753e-05
1.8582e-05
-2.50955e-08
1.86558e-05
-2.5363e-08
1.87098e-05
-1.04797e-07
1.88213e-05
-1.10584e-07
1.89575e-05
-2.9894e-08
1.90562e-05
4.37357e-08
1.91077e-05
9.26902e-08
1.91291e-05
1.16221e-07
1.91396e-05
1.203e-07
1.91436e-05
1.18439e-07
1.91414e-05
1.13003e-07
1.91359e-05
1.02352e-07
1.91333e-05
8.67745e-08
1.9139e-05
6.907e-08
1.91556e-05
5.34522e-08
1.91807e-05
4.34289e-08
1.92094e-05
4.07057e-08
4.63277e-08
1.92339e-05
2.30433e-05
3.85432e-08
2.29849e-05
3.30961e-08
2.29312e-05
-5.10799e-08
2.29141e-05
-9.35302e-08
2.29631e-05
-7.88685e-08
2.30394e-05
-3.25403e-08
2.31021e-05
2.99349e-08
2.31403e-05
7.80317e-08
2.3158e-05
1.02637e-07
2.31754e-05
1.00991e-07
2.32069e-05
8.15567e-08
2.32508e-05
5.84482e-08
2.32944e-05
4.30976e-08
2.33232e-05
4.03621e-08
2.3329e-05
4.76289e-08
2.33133e-05
5.91435e-08
2.32847e-05
6.92933e-08
7.3733e-08
2.32573e-05
1.6835e-05
9.43645e-08
1.67843e-05
8.3818e-08
1.67769e-05
-4.3664e-08
1.68062e-05
-1.22809e-07
1.68343e-05
-1.07052e-07
1.68474e-05
-4.55695e-08
1.68641e-05
1.3205e-08
1.68905e-05
5.15893e-08
1.6932e-05
6.11856e-08
1.69839e-05
4.90362e-08
1.70391e-05
2.63642e-08
1.70915e-05
6.06124e-09
1.71367e-05
-2.07787e-09
1.7172e-05
5.08978e-09
1.71971e-05
2.25425e-08
1.72126e-05
4.35613e-08
1.722e-05
6.19192e-08
7.15989e-08
1.72221e-05
1.46425e-05
1.93974e-08
1.46028e-05
1.23485e-07
1.45221e-05
3.70605e-08
1.44704e-05
-7.11925e-08
1.45026e-05
-1.39225e-07
1.45918e-05
-1.34769e-07
1.4685e-05
-8.00208e-08
1.4751e-05
-1.43637e-08
1.47792e-05
3.29777e-08
1.47743e-05
5.38976e-08
1.47498e-05
5.09476e-08
1.4723e-05
3.28213e-08
1.47103e-05
1.06039e-08
1.47234e-05
-7.97748e-09
1.47603e-05
-1.44004e-08
1.48136e-05
-9.68261e-09
1.48723e-05
3.23648e-09
1.91323e-08
1.49247e-05
1.25673e-05
1.55273e-07
1.2684e-05
6.77738e-09
1.27317e-05
-1.06854e-08
1.26857e-05
-2.5201e-08
1.26133e-05
-6.68451e-08
1.25722e-05
-9.36521e-08
1.25849e-05
-9.26464e-08
1.26426e-05
-7.20902e-08
1.27197e-05
-4.41527e-08
1.27948e-05
-2.1213e-08
1.28566e-05
-1.08086e-08
1.2903e-05
-1.36315e-08
1.29385e-05
-2.48457e-08
1.2967e-05
-3.64741e-08
1.29924e-05
-3.97788e-08
1.30148e-05
-3.21244e-08
1.30323e-05
-1.42854e-08
1.03702e-08
1.30411e-05
1.10083e-05
-9.11687e-08
1.10929e-05
-7.78483e-08
1.10547e-05
2.7587e-08
1.09825e-05
4.69619e-08
1.09339e-05
-1.82575e-08
1.09387e-05
-9.84395e-08
1.09881e-05
-1.41996e-07
1.10547e-05
-1.3869e-07
1.11236e-05
-1.13112e-07
1.11889e-05
-8.64462e-08
1.12441e-05
-6.60051e-08
1.12813e-05
-5.08932e-08
1.12943e-05
-3.78588e-08
1.12829e-05
-2.50975e-08
1.12548e-05
-1.1624e-08
1.12203e-05
2.3524e-09
1.11906e-05
1.5418e-08
2.71242e-08
1.11739e-05
9.74803e-06
-4.0056e-07
9.75293e-06
-8.2742e-08
9.68161e-06
9.89043e-08
9.66583e-06
6.27449e-08
9.71647e-06
-6.89e-08
9.78179e-06
-1.63758e-07
9.8151e-06
-1.75309e-07
9.8011e-06
-1.24691e-07
9.75214e-06
-6.41533e-08
9.69274e-06
-2.70446e-08
9.64527e-06
-1.85393e-08
9.62295e-06
-2.85671e-08
9.62862e-06
-4.35272e-08
9.65734e-06
-5.3818e-08
9.69964e-06
-5.3926e-08
9.74629e-06
-4.43005e-08
9.78927e-06
-2.75632e-08
-7.01325e-09
9.82341e-06
8.53252e-06
-3.29968e-07
8.49704e-06
-4.72698e-08
8.48181e-06
1.1414e-07
8.47367e-06
7.08838e-08
8.45588e-06
-5.11113e-08
8.44447e-06
-1.52352e-07
8.44663e-06
-1.77463e-07
8.45782e-06
-1.35885e-07
8.46486e-06
-7.1191e-08
8.45835e-06
-2.05332e-08
8.4396e-06
2.10283e-10
8.41761e-06
-6.57531e-09
8.40269e-06
-2.86128e-08
8.40037e-06
-5.14901e-08
8.41021e-06
-6.37705e-08
8.42791e-06
-6.19989e-08
8.44796e-06
-4.76163e-08
-2.51633e-08
8.46611e-06
7.28392e-06
-3.59127e-07
7.34951e-06
-1.1286e-07
7.42586e-06
3.77889e-08
7.46136e-06
3.53799e-08
7.45645e-06
-4.62008e-08
7.43051e-06
-1.2641e-07
7.40365e-06
-1.50606e-07
7.38627e-06
-1.18502e-07
7.37999e-06
-6.49095e-08
7.38229e-06
-2.28328e-08
7.38915e-06
-6.64776e-09
7.39651e-06
-1.39394e-08
7.40128e-06
-3.33783e-08
7.40286e-06
-5.30749e-08
7.40322e-06
-6.41315e-08
7.40512e-06
-6.39016e-08
7.41103e-06
-5.35216e-08
-3.61971e-08
7.42206e-06
6.42785e-06
-2.18336e-07
6.48659e-06
-1.71601e-07
6.58074e-06
-5.63655e-08
6.65276e-06
-3.66384e-08
6.65758e-06
-5.10182e-08
6.59316e-06
-6.19909e-08
6.50693e-06
-6.43761e-08
6.45121e-06
-6.27799e-08
6.44703e-06
-6.07329e-08
6.48115e-06
-5.69511e-08
6.52397e-06
-4.94723e-08
6.54974e-06
-3.97016e-08
6.5478e-06
-3.14366e-08
6.52355e-06
-2.88309e-08
6.49163e-06
-3.22093e-08
6.4659e-06
-3.81701e-08
6.45513e-06
-4.27543e-08
-4.17943e-08
6.46073e-06
5.51321e-06
-8.85905e-08
5.47671e-06
-1.35098e-07
5.51396e-06
-9.36173e-08
5.55919e-06
-8.18676e-08
5.59731e-06
-8.91447e-08
5.62266e-06
-8.73342e-08
5.63497e-06
-7.6685e-08
5.63758e-06
-6.53965e-08
5.63472e-06
-5.78677e-08
5.63136e-06
-5.35897e-08
5.6315e-06
-4.96105e-08
5.63555e-06
-4.37578e-08
5.64144e-06
-3.73209e-08
5.6465e-06
-3.38959e-08
5.64927e-06
-3.49793e-08
5.6502e-06
-3.9097e-08
5.65122e-06
-4.37798e-08
-4.57707e-08
5.6552e-06
4.92862e-06
-7.29578e-08
4.90599e-06
-1.12472e-07
4.8728e-06
-6.04216e-08
4.85411e-06
-6.31862e-08
4.8577e-06
-9.27299e-08
4.86586e-06
-9.54965e-08
4.86402e-06
-7.48418e-08
4.85264e-06
-5.40179e-08
4.8409e-06
-4.61257e-08
4.83646e-06
-4.9149e-08
4.84123e-06
-5.43841e-08
4.85257e-06
-5.5101e-08
4.86589e-06
-5.06369e-08
4.87687e-06
-4.48775e-08
4.88326e-06
-4.1372e-08
4.88501e-06
-4.08446e-08
4.88336e-06
-4.21271e-08
-4.27473e-08
4.88034e-06
4.22705e-06
4.11458e-06
4.05416e-06
3.99097e-06
3.89824e-06
3.80274e-06
3.7279e-06
3.67388e-06
3.62776e-06
3.57861e-06
3.52423e-06
3.46912e-06
3.41849e-06
3.37361e-06
3.33224e-06
3.29139e-06
3.24927e-06
3.20652e-06
1.63951e-07
-1.63951e-07
3.62072e-07
-1.98122e-07
5.58696e-07
-1.96624e-07
7.50982e-07
-1.92286e-07
9.39852e-07
-1.88871e-07
1.12611e-06
-1.86257e-07
1.30988e-06
-1.8377e-07
1.49024e-06
-1.80357e-07
1.66506e-06
-1.74828e-07
1.83113e-06
-1.66067e-07
1.98426e-06
-1.53128e-07
2.11975e-06
-1.35486e-07
2.23292e-06
-1.13173e-07
2.31852e-06
-8.55994e-08
2.37145e-06
-5.29341e-08
2.38712e-06
-1.56725e-08
2.35464e-06
3.24794e-08
2.26801e-06
8.6633e-08
2.13124e-06
1.3677e-07
1.94763e-06
1.83615e-07
1.71606e-06
2.31571e-07
1.41755e-06
2.98511e-07
1.00441e-06
4.13134e-07
4.5234e-07
5.52071e-07
-1.8922e-07
6.4156e-07
-8.93015e-07
7.03795e-07
-1.67301e-06
7.79993e-07
-2.5257e-06
8.52689e-07
-3.42926e-06
9.03561e-07
-4.35033e-06
9.21068e-07
-5.25286e-06
9.02536e-07
-6.10688e-06
8.54017e-07
-6.89225e-06
7.85368e-07
-7.59882e-06
7.06573e-07
-8.22458e-06
6.25756e-07
-8.77268e-06
5.48105e-07
-9.24852e-06
4.75838e-07
-9.65764e-06
4.09116e-07
-1.00047e-05
3.47061e-07
-1.02931e-05
2.88357e-07
-1.05247e-05
2.31652e-07
-1.07005e-05
1.75815e-07
-1.08207e-05
1.20146e-07
-1.08853e-05
6.46249e-08
-1.08951e-05
9.83283e-09
-1.08526e-05
-4.2525e-08
-1.07599e-05
-9.26808e-08
-1.06201e-05
-1.39805e-07
-1.04367e-05
-1.83368e-07
-1.02135e-05
-2.23227e-07
-9.95451e-06
-2.59012e-07
-9.66386e-06
-2.90645e-07
-9.34572e-06
-3.18142e-07
-9.00399e-06
-3.41729e-07
-8.64225e-06
-3.61745e-07
-8.26366e-06
-3.78589e-07
-7.87092e-06
-3.92736e-07
-7.46631e-06
-4.04615e-07
-7.05168e-06
-4.14625e-07
-6.6286e-06
-4.23076e-07
-6.19841e-06
-4.30196e-07
-5.76226e-06
-4.3615e-07
-5.32121e-06
-4.4105e-07
-4.87621e-06
-4.44994e-07
-4.42815e-06
-4.4806e-07
-3.97793e-06
-4.50221e-07
-3.5267e-06
-4.51236e-07
-3.07597e-06
-4.50732e-07
-2.62761e-06
-4.48353e-07
-2.18388e-06
-4.4373e-07
-1.74744e-06
-4.36444e-07
-1.32115e-06
-4.26292e-07
-9.07654e-07
-4.13493e-07
-5.09916e-07
-3.97738e-07
-1.30003e-07
-3.79913e-07
2.30348e-07
-3.60351e-07
5.70106e-07
-3.39758e-07
8.88637e-07
-3.18531e-07
1.18584e-06
-2.97206e-07
1.46209e-06
-2.76248e-07
1.71809e-06
-2.55994e-07
1.95475e-06
-2.36664e-07
2.17313e-06
-2.18382e-07
2.37432e-06
-2.01192e-07
2.5594e-06
-1.85082e-07
2.72941e-06
-1.70005e-07
2.88531e-06
-1.55899e-07
3.028e-06
-1.42696e-07
3.15834e-06
-1.30336e-07
3.27711e-06
-1.18765e-07
3.38505e-06
-1.07941e-07
3.48287e-06
-9.78273e-08
3.57127e-06
-8.83951e-08
3.65089e-06
-7.9617e-08
3.72235e-06
-7.14662e-08
3.78627e-06
-6.39148e-08
3.8432e-06
-5.69328e-08
3.89369e-06
-5.04882e-08
3.93824e-06
-4.45474e-08
3.97731e-06
-3.90755e-08
4.01135e-06
-3.40375e-08
4.04075e-06
-2.93996e-08
4.06588e-06
-2.51287e-08
4.08707e-06
-2.11959e-08
4.10465e-06
-1.75728e-08
4.11888e-06
-1.42386e-08
4.13005e-06
-1.11695e-08
4.13841e-06
-8.35181e-09
4.14417e-06
-5.76983e-09
4.14757e-06
-3.39689e-09
4.1488e-06
-1.22859e-09
4.14803e-06
7.74508e-10
4.14537e-06
2.65609e-09
4.14103e-06
4.34301e-09
4.13522e-06
5.80776e-09
4.12816e-06
7.0615e-09
4.12004e-06
8.1224e-09
4.11103e-06
9.00835e-09
4.10129e-06
9.73238e-09
4.09099e-06
1.02999e-08
4.08024e-06
1.07533e-08
4.06913e-06
1.11065e-08
4.05777e-06
1.13647e-08
4.04622e-06
1.15458e-08
4.03456e-06
1.16645e-08
4.02283e-06
1.17308e-08
4.01107e-06
1.17551e-08
3.99933e-06
1.17465e-08
3.98761e-06
1.17141e-08
3.97595e-06
1.16679e-08
3.96433e-06
1.16134e-08
3.95278e-06
1.1552e-08
3.9413e-06
1.14842e-08
3.92988e-06
1.14161e-08
3.91852e-06
1.13585e-08
3.9072e-06
1.1321e-08
3.8959e-06
1.13022e-08
3.88461e-06
1.12878e-08
3.87335e-06
1.12555e-08
3.86217e-06
1.1187e-08
3.85109e-06
1.10759e-08
3.84016e-06
1.093e-08
3.8294e-06
1.07662e-08
3.81879e-06
1.0603e-08
3.80834e-06
1.04546e-08
3.79801e-06
1.03287e-08
3.78778e-06
1.02272e-08
3.77763e-06
1.01484e-08
3.76754e-06
1.00892e-08
3.7575e-06
1.00469e-08
3.74748e-06
1.00191e-08
3.73747e-06
1.0005e-08
3.72747e-06
1.00041e-08
3.71745e-06
1.00167e-08
3.70741e-06
1.00433e-08
3.69732e-06
1.00854e-08
3.68718e-06
1.0144e-08
3.67696e-06
1.02221e-08
3.66664e-06
1.03217e-08
3.65619e-06
1.04474e-08
3.64558e-06
1.06046e-08
3.63479e-06
1.07982e-08
3.62374e-06
1.10436e-08
3.6124e-06
1.13376e-08
3.60068e-06
1.17291e-08
3.5885e-06
1.21731e-08
3.57567e-06
1.28276e-08
3.56219e-06
1.34876e-08
3.54753e-06
1.46614e-08
3.53193e-06
1.55968e-08
3.51403e-06
1.78972e-08
3.49497e-06
1.90569e-08
3.47092e-06
2.40551e-08
3.44598e-06
2.49397e-08
3.40894e-06
3.70382e-08
3.37317e-06
3.57674e-08
3.30451e-06
6.86682e-08
3.24297e-06
6.15314e-08
3.07058e-06
1.72396e-07
1.77224e-07
2.89336e-06
1.03373e-07
-2.67324e-07
1.96427e-07
-2.91175e-07
2.86689e-07
-2.86886e-07
3.77001e-07
-2.82597e-07
4.68564e-07
-2.80434e-07
5.60788e-07
-2.78481e-07
6.52489e-07
-2.75472e-07
7.41418e-07
-2.69285e-07
8.24283e-07
-2.57693e-07
8.96563e-07
-2.38347e-07
9.5236e-07
-2.08924e-07
9.83808e-07
-1.66934e-07
9.80876e-07
-1.10242e-07
9.3015e-07
-3.48729e-08
8.19753e-07
5.74629e-08
6.38614e-07
1.65466e-07
3.83023e-07
2.8807e-07
4.32494e-08
4.26407e-07
-3.93985e-07
5.74004e-07
-9.20725e-07
7.10354e-07
-1.51809e-06
8.28936e-07
-2.1582e-06
9.38625e-07
-2.80362e-06
1.05855e-06
-3.43253e-06
1.18098e-06
-4.07964e-06
1.28868e-06
-4.75889e-06
1.38304e-06
-5.44008e-06
1.46118e-06
-6.10063e-06
1.51324e-06
-6.72702e-06
1.52995e-06
-7.31154e-06
1.50559e-06
-7.85003e-06
1.44103e-06
-8.34057e-06
1.34455e-06
-8.78383e-06
1.22863e-06
-9.1829e-06
1.10564e-06
-9.54169e-06
9.84545e-07
-9.865e-06
8.71414e-07
-1.01561e-05
7.66908e-07
-1.04162e-05
6.69205e-07
-1.06448e-05
5.75677e-07
-1.084e-05
4.83538e-07
-1.09989e-05
3.90553e-07
-1.11184e-05
2.95383e-07
-1.11959e-05
1.97666e-07
-1.12292e-05
9.7883e-08
-1.12173e-05
-2.02168e-09
-1.1155e-05
-1.04902e-07
-1.10447e-05
-2.02974e-07
-1.08881e-05
-2.96421e-07
-1.06876e-05
-3.83852e-07
-1.0447e-05
-4.63775e-07
-1.01707e-05
-5.35341e-07
-9.86314e-06
-5.98203e-07
-9.52878e-06
-6.52501e-07
-9.17176e-06
-6.98749e-07
-8.7958e-06
-7.37714e-07
-8.40405e-06
-7.70329e-07
-7.99921e-06
-7.97584e-07
-7.58337e-06
-8.20451e-07
-7.15822e-06
-8.39778e-07
-6.72509e-06
-8.56206e-07
-6.28511e-06
-8.70176e-07
-5.8393e-06
-8.81957e-07
-5.38858e-06
-8.91766e-07
-4.93379e-06
-8.99791e-07
-4.47566e-06
-9.06184e-07
-4.01499e-06
-9.1089e-07
-3.55284e-06
-9.13388e-07
-3.09068e-06
-9.12898e-07
-2.63036e-06
-9.08669e-07
-2.17426e-06
-8.99826e-07
-1.72523e-06
-8.85484e-07
-1.2864e-06
-8.65121e-07
-8.60939e-07
-8.38949e-07
-4.51481e-07
-8.07196e-07
-6.0362e-08
-7.71032e-07
3.1093e-07
-7.31644e-07
6.61214e-07
-6.90042e-07
9.90056e-07
-6.47373e-07
1.29761e-06
-6.04764e-07
1.58447e-06
-5.63101e-07
1.85149e-06
-5.23017e-07
2.09974e-06
-4.84915e-07
2.33036e-06
-4.49003e-07
2.54451e-06
-4.1534e-07
2.7433e-06
-3.83873e-07
2.92778e-06
-3.54489e-07
3.09893e-06
-3.27046e-07
3.25764e-06
-3.01403e-07
3.40473e-06
-2.77428e-07
3.54098e-06
-2.55014e-07
3.66711e-06
-2.34072e-07
3.78381e-06
-2.14528e-07
3.89174e-06
-1.96321e-07
3.99151e-06
-1.79392e-07
4.08373e-06
-1.63685e-07
4.16896e-06
-1.49141e-07
4.24772e-06
-1.35695e-07
4.32051e-06
-1.2328e-07
4.38779e-06
-1.11827e-07
4.44998e-06
-1.01262e-07
4.50745e-06
-9.15136e-08
4.56056e-06
-8.25103e-08
4.60962e-06
-7.41843e-08
4.6549e-06
-6.64724e-08
4.69664e-06
-5.93176e-08
4.73507e-06
-5.2669e-08
4.77038e-06
-4.64833e-08
4.80276e-06
-4.0723e-08
4.83234e-06
-3.53585e-08
4.85931e-06
-3.03614e-08
4.8838e-06
-2.57185e-08
4.906e-06
-2.14298e-08
4.92613e-06
-1.74703e-08
4.94428e-06
-1.38078e-08
4.96053e-06
-1.04402e-08
4.97496e-06
-7.36984e-09
4.98766e-06
-4.5804e-09
4.99872e-06
-2.04892e-09
5.00821e-06
2.42471e-10
5.01626e-06
2.2487e-09
5.02293e-06
4.07871e-09
5.02834e-06
5.70534e-09
5.03256e-06
7.14268e-09
5.03569e-06
8.41694e-09
5.03781e-06
9.53956e-09
5.03902e-06
1.05264e-08
5.03938e-06
1.13941e-08
5.03897e-06
1.21571e-08
5.03785e-06
1.28294e-08
5.03609e-06
1.34245e-08
5.03376e-06
1.39517e-08
5.03089e-06
1.44177e-08
5.02755e-06
1.48295e-08
5.02376e-06
1.5198e-08
5.01959e-06
1.5535e-08
5.01506e-06
1.58486e-08
5.01022e-06
1.6139e-08
5.00511e-06
1.63977e-08
4.99976e-06
1.66124e-08
4.99417e-06
1.67731e-08
4.98837e-06
1.68763e-08
4.98237e-06
1.69264e-08
4.9762e-06
1.69346e-08
4.96989e-06
1.69161e-08
4.96346e-06
1.68883e-08
4.95692e-06
1.68676e-08
4.95028e-06
1.68671e-08
4.94353e-06
1.68957e-08
4.93666e-06
1.69569e-08
4.92966e-06
1.70499e-08
4.92251e-06
1.71713e-08
4.9152e-06
1.73166e-08
4.90772e-06
1.74817e-08
4.90007e-06
1.76638e-08
4.89225e-06
1.78621e-08
4.88426e-06
1.80767e-08
4.8761e-06
1.83108e-08
4.86775e-06
1.85664e-08
4.85922e-06
1.8852e-08
4.8505e-06
1.91692e-08
4.84157e-06
1.95375e-08
4.83241e-06
1.99515e-08
4.823e-06
2.04579e-08
4.81331e-06
2.10242e-08
4.80327e-06
2.17701e-08
4.79287e-06
2.25727e-08
4.78195e-06
2.37542e-08
4.77052e-06
2.49126e-08
4.75824e-06
2.69375e-08
4.74524e-06
2.85982e-08
4.73077e-06
3.23742e-08
4.71518e-06
3.4646e-08
4.69688e-06
4.2353e-08
4.67667e-06
4.51451e-08
4.6512e-06
6.25085e-08
4.62142e-06
6.55518e-08
4.58036e-06
1.09725e-07
4.52544e-06
1.16449e-07
4.45234e-06
2.45495e-07
2.84987e-07
4.34458e-06
-1.47903e-08
-2.52533e-07
-4.98627e-08
-2.56103e-07
-8.38165e-08
-2.52933e-07
-1.17552e-07
-2.48861e-07
-1.52359e-07
-2.45626e-07
-1.91264e-07
-2.39576e-07
-2.37821e-07
-2.28916e-07
-2.96104e-07
-2.11002e-07
-3.70749e-07
-1.83048e-07
-4.67026e-07
-1.4207e-07
-5.91603e-07
-8.43473e-08
-7.54484e-07
-4.05283e-09
-9.55809e-07
9.10836e-08
-1.20263e-06
2.11946e-07
-1.49978e-06
3.54612e-07
-1.84641e-06
5.121e-07
-2.23421e-06
6.75874e-07
-2.64585e-06
8.38044e-07
-3.06493e-06
9.93083e-07
-3.4916e-06
1.13702e-06
-3.93363e-06
1.27096e-06
-4.39276e-06
1.39776e-06
-4.85211e-06
1.51789e-06
-5.30077e-06
1.62964e-06
-5.74364e-06
1.73155e-06
-6.1816e-06
1.821e-06
-6.61065e-06
1.89023e-06
-7.02757e-06
1.93017e-06
-7.42986e-06
1.93224e-06
-7.81652e-06
1.89225e-06
-8.188e-06
1.81251e-06
-8.54592e-06
1.70247e-06
-8.89202e-06
1.57472e-06
-9.22737e-06
1.441e-06
-9.55226e-06
1.30944e-06
-9.86475e-06
1.1839e-06
-1.01621e-05
1.06422e-06
-1.04403e-05
9.47407e-07
-1.06939e-05
8.29358e-07
-1.09167e-05
7.06275e-07
-1.11018e-05
5.75632e-07
-1.12429e-05
4.36494e-07
-1.13346e-05
2.89367e-07
-1.13724e-05
1.35699e-07
-1.13526e-05
-2.18152e-08
-1.12819e-05
-1.75599e-07
-1.11584e-05
-3.26482e-07
-1.09849e-05
-4.69868e-07
-1.07662e-05
-6.02555e-07
-1.05075e-05
-7.22478e-07
-1.02143e-05
-8.28552e-07
-9.89193e-06
-9.20601e-07
-9.54528e-06
-9.9915e-07
-9.17878e-06
-1.06524e-06
-8.7962e-06
-1.1203e-06
-8.4006e-06
-1.16592e-06
-7.99438e-06
-1.20381e-06
-7.57926e-06
-1.23557e-06
-7.15643e-06
-1.26261e-06
-6.72664e-06
-1.28599e-06
-6.29047e-06
-1.30634e-06
-5.84841e-06
-1.32402e-06
-5.40087e-06
-1.33931e-06
-4.94823e-06
-1.35243e-06
-4.49086e-06
-1.36355e-06
-4.02918e-06
-1.37257e-06
-3.56394e-06
-1.37863e-06
-3.09645e-06
-1.38039e-06
-2.62868e-06
-1.37644e-06
-2.16341e-06
-1.3651e-06
-1.70428e-06
-1.34461e-06
-1.25538e-06
-1.31402e-06
-8.20977e-07
-1.27336e-06
-4.0471e-07
-1.22346e-06
-9.89572e-09
-1.16585e-06
3.63502e-07
-1.10504e-06
7.12874e-07
-1.03941e-06
1.03856e-06
-9.73062e-07
1.34136e-06
-9.07564e-07
1.62243e-06
-8.44171e-07
1.88315e-06
-7.83736e-07
2.12498e-06
-7.26737e-07
2.34933e-06
-6.73355e-07
2.55754e-06
-6.23553e-07
2.75083e-06
-5.77162e-07
2.93028e-06
-5.33939e-07
3.09686e-06
-4.93625e-07
3.25143e-06
-4.55977e-07
3.3948e-06
-4.2079e-07
3.52768e-06
-3.87899e-07
3.65079e-06
-3.57179e-07
3.76479e-06
-3.28529e-07
3.87033e-06
-3.01863e-07
3.96804e-06
-2.77102e-07
4.05852e-06
-2.54163e-07
4.14233e-06
-2.32956e-07
4.22003e-06
-2.13387e-07
4.2921e-06
-1.95351e-07
4.35901e-06
-1.78739e-07
4.42119e-06
-1.6344e-07
4.47901e-06
-1.49341e-07
4.53284e-06
-1.36332e-07
4.58296e-06
-1.24305e-07
4.62965e-06
-1.13163e-07
4.67314e-06
-1.02814e-07
4.71365e-06
-9.31789e-08
4.75136e-06
-8.41878e-08
4.78642e-06
-7.57823e-08
4.81897e-06
-6.79138e-08
4.84916e-06
-6.05454e-08
4.87708e-06
-5.36428e-08
4.90284e-06
-4.71866e-08
4.92653e-06
-4.1158e-08
4.94825e-06
-3.55309e-08
4.9681e-06
-3.02908e-08
4.98616e-06
-2.54285e-08
5.00251e-06
-2.09287e-08
5.01724e-06
-1.67794e-08
5.03045e-06
-1.29697e-08
5.04219e-06
-9.49347e-09
5.05257e-06
-6.30019e-09
5.06166e-06
-3.38104e-09
5.06953e-06
-7.27023e-10
5.07623e-06
1.70857e-09
5.08186e-06
3.91104e-09
5.08647e-06
5.91585e-09
5.09013e-06
7.73748e-09
5.0929e-06
9.39069e-09
5.09483e-06
1.08928e-08
5.096e-06
1.22598e-08
5.09645e-06
1.3504e-08
5.09623e-06
1.46356e-08
5.09539e-06
1.56657e-08
5.09398e-06
1.66068e-08
5.09205e-06
1.74713e-08
5.08963e-06
1.8268e-08
5.08677e-06
1.9e-08
5.0835e-06
1.9665e-08
5.07985e-06
2.02587e-08
5.07585e-06
2.07784e-08
5.0715e-06
2.12248e-08
5.06682e-06
2.16025e-08
5.06184e-06
2.19197e-08
5.05657e-06
2.21883e-08
5.05103e-06
2.24234e-08
5.04526e-06
2.26416e-08
5.03926e-06
2.2859e-08
5.03307e-06
2.30885e-08
5.02669e-06
2.33379e-08
5.02013e-06
2.36104e-08
5.0134e-06
2.39052e-08
5.00649e-06
2.42192e-08
4.99943e-06
2.455e-08
4.99219e-06
2.48948e-08
4.9848e-06
2.52542e-08
4.97725e-06
2.56286e-08
4.96954e-06
2.60237e-08
4.96166e-06
2.64412e-08
4.95362e-06
2.68953e-08
4.9454e-06
2.73852e-08
4.937e-06
2.79415e-08
4.9284e-06
2.8552e-08
4.91957e-06
2.92858e-08
4.9105e-06
3.00932e-08
4.90113e-06
3.11378e-08
4.89145e-06
3.22611e-08
4.88134e-06
3.38643e-08
4.87076e-06
3.54877e-08
4.85956e-06
3.81385e-08
4.84762e-06
4.05417e-08
4.83473e-06
4.52614e-08
4.8205e-06
4.88758e-08
4.8049e-06
5.79525e-08
4.78646e-06
6.35861e-08
4.76633e-06
8.26341e-08
4.73917e-06
9.27196e-08
4.71193e-06
1.36958e-07
4.66676e-06
1.61625e-07
4.63741e-06
2.7484e-07
3.51248e-07
4.57115e-06
-1.02508e-07
-1.50025e-07
-2.22352e-07
-1.36259e-07
-3.44828e-07
-1.30457e-07
-4.73324e-07
-1.20366e-07
-6.10058e-07
-1.08892e-07
-7.58191e-07
-9.14434e-08
-9.20734e-07
-6.63723e-08
-1.10074e-06
-3.09911e-08
-1.29994e-06
1.61504e-08
-1.51889e-06
7.6878e-08
-1.76015e-06
1.56912e-07
-2.02203e-06
2.57826e-07
-2.31006e-06
3.79116e-07
-2.61644e-06
5.18321e-07
-2.93265e-06
6.70822e-07
-3.25128e-06
8.30729e-07
-3.56706e-06
9.91659e-07
-3.87692e-06
1.14791e-06
-4.17965e-06
1.29581e-06
-4.47761e-06
1.43498e-06
-4.77473e-06
1.56808e-06
-5.07407e-06
1.6971e-06
-5.37759e-06
1.82141e-06
-5.68804e-06
1.94009e-06
-6.00909e-06
2.05259e-06
-6.3437e-06
2.15562e-06
-6.69358e-06
2.24011e-06
-7.0561e-06
2.29269e-06
-7.42365e-06
2.29978e-06
-7.78627e-06
2.25487e-06
-8.13585e-06
2.16209e-06
-8.46852e-06
2.03515e-06
-8.78565e-06
1.89185e-06
-9.09226e-06
1.74761e-06
-9.39407e-06
1.61125e-06
-9.69415e-06
1.48398e-06
-9.99109e-06
1.36115e-06
-1.02789e-05
1.23526e-06
-1.05483e-05
1.09874e-06
-1.07881e-05
9.46071e-07
-1.09872e-05
7.74691e-07
-1.1136e-05
5.85263e-07
-1.12277e-05
3.81093e-07
-1.12582e-05
1.66236e-07
-1.12264e-05
-5.36197e-08
-1.11326e-05
-2.6938e-07
-1.09802e-05
-4.7892e-07
-1.07754e-05
-6.74703e-07
-1.05258e-05
-8.52073e-07
-1.02395e-05
-1.00881e-06
-9.92386e-06
-1.1442e-06
-9.58561e-06
-1.25885e-06
-9.23045e-06
-1.35431e-06
-8.86291e-06
-1.43278e-06
-8.48642e-06
-1.4968e-06
-8.10324e-06
-1.5491e-06
-7.71478e-06
-1.59227e-06
-7.3217e-06
-1.62865e-06
-6.92405e-06
-1.66026e-06
-6.52151e-06
-1.68854e-06
-6.11367e-06
-1.71417e-06
-5.70029e-06
-1.7374e-06
-5.28108e-06
-1.75852e-06
-4.85559e-06
-1.77792e-06
-4.42319e-06
-1.79595e-06
-3.98295e-06
-1.81281e-06
-3.53409e-06
-1.82748e-06
-3.07663e-06
-1.83786e-06
-2.61186e-06
-1.84121e-06
-2.14273e-06
-1.83423e-06
-1.67392e-06
-1.81342e-06
-1.21125e-06
-1.77669e-06
-7.61099e-07
-1.72351e-06
-3.29021e-07
-1.65554e-06
8.04734e-08
-1.57534e-06
4.62873e-07
-1.48744e-06
8.17982e-07
-1.39452e-06
1.14556e-06
-1.30064e-06
1.44677e-06
-1.20877e-06
1.72359e-06
-1.12099e-06
1.97834e-06
-1.03848e-06
2.21333e-06
-9.6173e-07
2.43066e-06
-8.90687e-07
2.63211e-06
-8.25003e-07
2.81914e-06
-7.64188e-07
2.99293e-06
-7.07726e-07
3.15445e-06
-6.55149e-07
3.30454e-06
-6.06063e-07
3.44391e-06
-5.60161e-07
3.57323e-06
-5.17216e-07
3.69311e-06
-4.77065e-07
3.80417e-06
-4.3959e-07
3.90701e-06
-4.04698e-07
4.0022e-06
-3.72298e-07
4.09033e-06
-3.42294e-07
4.17195e-06
-3.14574e-07
4.24758e-06
-2.89015e-07
4.31771e-06
-2.6548e-07
4.38279e-06
-2.43825e-07
4.44325e-06
-2.23899e-07
4.49946e-06
-2.05549e-07
4.55175e-06
-1.88625e-07
4.60043e-06
-1.72983e-07
4.64576e-06
-1.58489e-07
4.68796e-06
-1.45018e-07
4.72725e-06
-1.32463e-07
4.76379e-06
-1.20729e-07
4.79774e-06
-1.09738e-07
4.82925e-06
-9.94233e-08
4.85844e-06
-8.97339e-08
4.88542e-06
-8.0627e-08
4.91031e-06
-7.20717e-08
4.9332e-06
-6.40442e-08
4.95418e-06
-5.65183e-08
4.97336e-06
-4.94724e-08
4.99083e-06
-4.28908e-08
5.00666e-06
-3.67588e-08
5.02094e-06
-3.10616e-08