/*--------------------------------*- C++ -*----------------------------------*\
| =========                 |                                                 |
| \\      /  F ield         | OpenFOAM: The Open Source CFD Toolbox           |
|  \\    /   O peration     | Version:  2112                                  |
|   \\  /    A nd           | Website:  www.openfoam.com                      |
|    \\/     M anipulation  |                                                 |
\*---------------------------------------------------------------------------*/
FoamFile
{
    version     2.0;
    format      ascii;
    arch        "LSB;label=32;scalar=64";
    class       volVectorField;
    location    "0.016";
    object      U_0;
}
// * * * * * * * * * * * * * * * * * * * * * * * * * * * * * * * * * * * * * //

dimensions      [0 1 -1 0 0 0 0];

internalField   nonuniform List<vector> 
12225
(
(9.83142 0.100691 0)
(9.58266 0.0526853 0)
(9.35105 0.0346996 0)
(9.00684 0.0355418 0)
(8.64748 0.0418172 0)
(8.33555 0.0489952 0)
(8.07131 0.053265 0)
(7.83689 0.0535564 0)
(7.60771 0.0523298 0)
(7.37442 0.0523971 0)
(7.1209 0.0549143 0)
(6.86214 0.0570184 0)
(6.58172 0.056236 0)
(6.34068 0.0550132 0)
(6.05147 0.0583542 0)
(5.83583 0.0546235 0)
(5.53061 0.0698546 0)
(5.2817 0.0733149 0)
(10.0715 -0.00424631 0)
(10.1599 0.0431143 0)
(10.2285 0.0924213 0)
(10.2867 0.122119 0)
(10.2917 0.117036 0)
(10.2503 0.0929823 0)
(10.1804 0.0734616 0)
(10.0964 0.0679205 0)
(10.0071 0.0732177 0)
(9.92812 0.0851045 0)
(9.8633 0.0972372 0)
(9.81819 0.109699 0)
(9.77466 0.11606 0)
(9.73629 0.120821 0)
(9.66902 0.127544 0)
(9.59502 0.133811 0)
(9.47764 0.15489 0)
(9.34074 0.178763 0)
(10.0151 -0.0377966 0)
(9.90473 0.0242536 0)
(9.94264 0.0154092 0)
(10.0215 0.0221004 0)
(10.0644 0.0487026 0)
(10.064 0.0774633 0)
(10.0464 0.0994298 0)
(10.0327 0.110799 0)
(10.0306 0.110794 0)
(10.0424 0.103331 0)
(10.0646 0.0937079 0)
(10.0898 0.0877609 0)
(10.1099 0.085711 0)
(10.1181 0.0916447 0)
(10.1121 0.108922 0)
(10.0908 0.131186 0)
(10.0582 0.167031 0)
(10.0156 0.20936 0)
(10.1307 0.0239163 0)
(10.2202 0.0404696 0)
(10.2245 0.0679336 0)
(10.1053 0.0949396 0)
(9.99555 0.103972 0)
(9.96867 0.0928465 0)
(10.0155 0.076002 0)
(10.094 0.0646894 0)
(10.1649 0.0619015 0)
(10.2071 0.06806 0)
(10.2152 0.0800859 0)
(10.1939 0.0946759 0)
(10.1549 0.108808 0)
(10.1095 0.123181 0)
(10.0675 0.141988 0)
(10.0351 0.165151 0)
(10.0124 0.196849 0)
(10.0002 0.232954 0)
(9.76902 -0.0372392 0)
(10.0381 -0.0206171 0)
(10.1058 0.05376 0)
(10.0964 0.0921825 0)
(10.1188 0.0875299 0)
(10.1641 0.0698542 0)
(10.1928 0.0617091 0)
(10.1858 0.0661233 0)
(10.1506 0.0763253 0)
(10.1094 0.0878146 0)
(10.0769 0.0987246 0)
(10.0545 0.109297 0)
(10.0357 0.119114 0)
(10.0157 0.128803 0)
(9.99319 0.142458 0)
(9.97216 0.160525 0)
(9.95572 0.184318 0)
(9.94886 0.214158 0)
(9.88048 -0.0978479 0)
(9.91982 -0.0675476 0)
(10.0562 0.0522773 0)
(10.215 0.0938596 0)
(10.3041 0.0831707 0)
(10.3129 0.0691401 0)
(10.2802 0.0711862 0)
(10.2397 0.0830056 0)
(10.2032 0.0932688 0)
(10.1704 0.099851 0)
(10.1362 0.106092 0)
(10.0976 0.115214 0)
(10.0589 0.127591 0)
(10.0262 0.142761 0)
(10.004 0.161718 0)
(9.99179 0.183574 0)
(9.98925 0.208439 0)
(9.99181 0.235727 0)
(9.81977 -0.111182 0)
(9.85818 -0.105066 0)
(9.92655 -0.033056 0)
(10.0063 0.0192057 0)
(10.0492 0.0524185 0)
(10.0453 0.0714653 0)
(10.0241 0.0821726 0)
(10.0077 0.0889308 0)
(10.0016 0.0959668 0)
(10.0059 0.10772 0)
(10.016 0.12393 0)
(10.0226 0.139679 0)
(10.0204 0.150807 0)
(10.0083 0.156573 0)
(9.99116 0.161023 0)
(9.97572 0.169511 0)
(9.96786 0.183926 0)
(9.97289 0.207235 0)
(10.1281 -0.15534 0)
(9.99756 -0.0934093 0)
(10.0216 0.0104431 0)
(10.1484 0.0573365 0)
(10.2354 0.073926 0)
(10.2337 0.0835588 0)
(10.1821 0.09418 0)
(10.1195 0.101876 0)
(10.0615 0.103243 0)
(10.0148 0.102145 0)
(9.98295 0.105337 0)
(9.96602 0.116567 0)
(9.96197 0.135023 0)
(9.96911 0.156751 0)
(9.98245 0.177487 0)
(9.99822 0.195377 0)
(10.0145 0.209405 0)
(10.0263 0.221755 0)
(9.94789 -0.0700211 0)
(9.92405 -0.0870134 0)
(9.92608 -0.0965967 0)
(10.0449 -0.0590132 0)
(10.1648 0.0125652 0)
(10.188 0.0807623 0)
(10.1383 0.119966 0)
(10.0802 0.131981 0)
(10.0535 0.133142 0)
(10.0633 0.136093 0)
(10.0947 0.142497 0)
(10.1295 0.147926 0)
(10.1574 0.148991 0)
(10.1768 0.146641 0)
(10.1877 0.145883 0)
(10.192 0.151655 0)
(10.1892 0.167573 0)
(10.183 0.192669 0)
(9.98814 -0.0922882 0)
(9.95269 -0.0922113 0)
(9.93263 -0.0465476 0)
(9.91044 -0.0286076 0)
(9.87369 0.025846 0)
(9.82173 0.103929 0)
(9.78133 0.154088 0)
(9.76975 0.152826 0)
(9.78463 0.119978 0)
(9.81794 0.087479 0)
(9.85993 0.0742156 0)
(9.9004 0.08288 0)
(9.93161 0.10651 0)
(9.94961 0.136742 0)
(9.95513 0.166039 0)
(9.95296 0.191884 0)
(9.94868 0.213046 0)
(9.95124 0.231285 0)
(10.2449 -0.0536244 0)
(10.1985 -0.05248 0)
(10.2206 -0.0756672 0)
(10.2502 -0.0215918 0)
(10.2384 0.0573181 0)
(10.1824 0.115071 0)
(10.1202 0.130964 0)
(10.0785 0.115809 0)
(10.0645 0.0959195 0)
(10.075 0.0880718 0)
(10.0984 0.0936836 0)
(10.1199 0.10699 0)
(10.1294 0.122294 0)
(10.126 0.136271 0)
(10.1156 0.148725 0)
(10.1059 0.161121 0)
(10.1032 0.174283 0)
(10.1106 0.191119 0)
(9.91047 -0.117247 0)
(9.98084 -0.077239 0)
(9.89702 -0.0960579 0)
(9.85703 -0.0503137 0)
(9.94149 0.0521957 0)
(10.0483 0.16022 0)
(10.0799 0.213268 0)
(10.0276 0.193944 0)
(9.93792 0.133078 0)
(9.86578 0.0760132 0)
(9.84202 0.0518143 0)
(9.86423 0.0644147 0)
(9.91067 0.100155 0)
(9.95905 0.141006 0)
(9.99252 0.172946 0)
(10.0108 0.192296 0)
(10.0139 0.200585 0)
(10.0153 0.204646 0)
(10.0788 -0.0751288 0)
(10.1095 -0.0494554 0)
(10.0125 -0.000516838 0)
(9.86299 -0.020279 0)
(9.78939 -0.0123566 0)
(9.83463 0.0476574 0)
(9.94704 0.123854 0)
(10.0551 0.16997 0)
(10.1163 0.169219 0)
(10.1248 0.135365 0)
(10.0995 0.0942225 0)
(10.0679 0.0681654 0)
(10.0492 0.0664415 0)
(10.0484 0.0868747 0)
(10.0582 0.118402 0)
(10.0698 0.151319 0)
(10.0763 0.178865 0)
(10.0762 0.198083 0)
(9.87831 -0.0494988 0)
(9.79085 -0.0968957 0)
(9.86109 -0.014399 0)
(9.9379 0.0486156 0)
(9.9493 0.0732653 0)
(9.91061 0.0872895 0)
(9.87987 0.101849 0)
(9.89539 0.106127 0)
(9.95384 0.0967801 0)
(10.026 0.0863277 0)
(10.0793 0.0865066 0)
(10.0965 0.0990176 0)
(10.0807 0.118452 0)
(10.047 0.139872 0)
(10.0123 0.159985 0)
(9.98759 0.177836 0)
(9.97626 0.192058 0)
(9.98174 0.203485 0)
(10.0593 0.0689737 0)
(9.9812 -0.0284207 0)
(9.93428 -0.0735164 0)
(9.96557 -0.0587277 0)
(10.0134 0.0162545 0)
(10.0374 0.0975597 0)
(10.0403 0.133561 0)
(10.0257 0.111299 0)
(9.99665 0.0617376 0)
(9.96358 0.0264909 0)
(9.93788 0.027547 0)
(9.92407 0.0605182 0)
(9.92102 0.106702 0)
(9.92451 0.149328 0)
(9.9306 0.177234 0)
(9.93928 0.190527 0)
(9.94985 0.189464 0)
(9.96757 0.18204 0)
(10.0172 -0.0590585 0)
(10.059 -0.0421627 0)
(10.0893 -0.0176556 0)
(10.056 -0.0296081 0)
(10.0278 -0.0105743 0)
(10.0465 0.046925 0)
(10.0901 0.111953 0)
(10.1073 0.15969 0)
(10.0763 0.179265 0)
(10.0113 0.17275 0)
(9.94096 0.152068 0)
(9.88853 0.132112 0)
(9.86259 0.121975 0)
(9.86103 0.124658 0)
(9.87458 0.13381 0)
(9.89505 0.144274 0)
(9.91864 0.148214 0)
(9.94137 0.144216 0)
(10.0488 0.186035 0)
(10.0278 0.0586285 0)
(10.0516 -0.0334962 0)
(10.0272 0.0137 0)
(9.97991 0.0520337 0)
(9.92159 0.0614917 0)
(9.88566 0.0756216 0)
(9.88703 0.105072 0)
(9.91575 0.134756 0)
(9.95673 0.150943 0)
(9.99567 0.151537 0)
(10.0271 0.144021 0)
(10.0537 0.136847 0)
(10.0813 0.1339 0)
(10.113 0.133581 0)
(10.1456 0.13057 0)
(10.178 0.122306 0)
(10.2008 0.105306 0)
(9.90565 -0.0383925 0)
(9.91677 -0.0186712 0)
(9.90431 -0.0734962 0)
(9.94655 -0.0277321 0)
(10.0211 0.0675526 0)
(10.0962 0.138875 0)
(10.1385 0.156223 0)
(10.1512 0.131488 0)
(10.1557 0.0967888 0)
(10.1611 0.0715518 0)
(10.1634 0.056084 0)
(10.1606 0.0434569 0)
(10.1569 0.030331 0)
(10.1568 0.0182109 0)
(10.163 0.0133211 0)
(10.1747 0.0195009 0)
(10.1895 0.0392716 0)
(10.2051 0.0721018 0)
(10.0509 -0.0132225 0)
(9.99555 -0.00465054 0)
(10.0072 -0.0306395 0)
(9.98218 -0.0960899 0)
(9.9757 -0.113239 0)
(10.0129 -0.0731248 0)
(10.0535 -0.00770013 0)
(10.074 0.057752 0)
(10.0812 0.11037 0)
(10.0869 0.145064 0)
(10.0979 0.162276 0)
(10.1151 0.164947 0)
(10.1354 0.156024 0)
(10.1526 0.138518 0)
(10.1607 0.114129 0)
(10.1582 0.0874136 0)
(10.1469 0.0612539 0)
(10.1334 0.0412772 0)
(10.0144 0.0631491 0)
(10.0078 0.0387189 0)
(9.97527 -0.0529524 0)
(9.98774 -0.0711434 0)
(10.0078 -0.0409822 0)
(10.0183 -0.00201801 0)
(10.0259 0.0381127 0)
(10.0372 0.0698378 0)
(10.0566 0.0781604 0)
(10.0855 0.0583239 0)
(10.1193 0.0203317 0)
(10.1523 -0.0162936 0)
(10.1815 -0.0336736 0)
(10.2056 -0.0233263 0)
(10.2239 0.0109319 0)
(10.2358 0.0568219 0)
(10.2424 0.101891 0)
(10.2445 0.13249 0)
(10.0186 0.0430177 0)
(10.001 0.0888659 0)
(9.95053 0.0111239 0)
(9.89641 -0.0678803 0)
(9.87931 -0.0859111 0)
(9.93268 -0.0520521 0)
(10.0088 -0.00752048 0)
(10.0642 0.0195573 0)
(10.0939 0.028795 0)
(10.1017 0.0289543 0)
(10.09 0.0262801 0)
(10.0688 0.0242499 0)
(10.0523 0.0246506 0)
(10.0514 0.0289035 0)
(10.0695 0.0365702 0)
(10.1017 0.0454595 0)
(10.1422 0.0522834 0)
(10.1817 0.0542088 0)
(9.90729 0.00495089 0)
(9.91253 0.0449111 0)
(9.98292 0.0254069 0)
(9.98895 -0.0599027 0)
(9.9233 -0.145535 0)
(9.87193 -0.16606 0)
(9.86472 -0.119243 0)
(9.89506 -0.039513 0)
(9.95057 0.0326148 0)
(10.0139 0.0718722 0)
(10.0699 0.0723594 0)
(10.1125 0.0428408 0)
(10.1434 -6.27511e-05 0)
(10.1673 -0.0394201 0)
(10.1882 -0.0610916 0)
(10.2073 -0.0605523 0)
(10.2237 -0.0382133 0)
(10.2348 -0.00152771 0)
(9.93456 0.128511 0)
(9.97036 -0.0324996 0)
(10.0028 -0.0285769 0)
(9.94471 0.0281779 0)
(9.86289 0.0483636 0)
(9.84477 0.0185486 0)
(9.88118 -0.0351886 0)
(9.93688 -0.0816568 0)
(9.99698 -0.103948 0)
(10.0587 -0.101435 0)
(10.1161 -0.0843996 0)
(10.1601 -0.0651011 0)
(10.1834 -0.0499452 0)
(10.1833 -0.0394973 0)
(10.1632 -0.0297472 0)
(10.1328 -0.0168903 0)
(10.1011 0.00116685 0)
(10.0795 0.0247539 0)
(10.0924 -0.189741 0)
(10.1181 -0.073788 0)
(10.0651 0.0496147 0)
(10.0091 0.0280142 0)
(10.0212 -0.0749001 0)
(10.0968 -0.163129 0)
(10.1621 -0.181491 0)
(10.1718 -0.141967 0)
(10.1316 -0.0891996 0)
(10.0689 -0.0541566 0)
(10.0095 -0.0400426 0)
(9.97127 -0.0353436 0)
(9.96247 -0.0289755 0)
(9.98192 -0.0164081 0)
(10.0215 0.00122422 0)
(10.0696 0.0194649 0)
(10.118 0.0346245 0)
(10.1586 0.0443879 0)
(10.2087 -0.233783 0)
(10.1029 -0.0328276 0)
(10.0912 0.0989539 0)
(10.0972 0.0668113 0)
(10.0728 -0.0228913 0)
(10.0475 -0.0939467 0)
(10.0441 -0.108994 0)
(10.0561 -0.0762417 0)
(10.0693 -0.0307627 0)
(10.071 -0.00135324 0)
(10.0552 0.000885307 0)
(10.0275 -0.0215018 0)
(10.0024 -0.0571329 0)
(9.99133 -0.0917688 0)
(9.99677 -0.112025 0)
(10.0145 -0.112224 0)
(10.0386 -0.0919784 0)
(10.062 -0.0554284 0)
(9.93666 -0.200058 0)
(9.95984 -0.0296687 0)
(10.0935 0.0625976 0)
(10.199 0.0335634 0)
(10.2106 -0.0553291 0)
(10.1736 -0.138695 0)
(10.1339 -0.17056 0)
(10.1037 -0.144618 0)
(10.0864 -0.0877373 0)
(10.0841 -0.0327783 0)
(10.0927 -0.000187044 0)
(10.104 0.00560673 0)
(10.1128 -0.0073047 0)
(10.1167 -0.0256129 0)
(10.1172 -0.0375787 0)
(10.1177 -0.0384348 0)
(10.1221 -0.0284111 0)
(10.1337 -0.0112654 0)
(10.1267 -0.247471 0)
(10.0806 -0.124774 0)
(10.2292 -0.00430945 0)
(10.4188 0.0191447 0)
(10.4897 -0.0155293 0)
(10.4203 -0.0598548 0)
(10.279 -0.0758 0)
(10.1534 -0.0584651 0)
(10.1039 -0.0292007 0)
(10.1364 -0.0103915 0)
(10.2101 -0.0117434 0)
(10.2723 -0.03027 0)
(10.2919 -0.0569322 0)
(10.2667 -0.0828597 0)
(10.2163 -0.100065 0)
(10.1665 -0.104749 0)
(10.1348 -0.0963212 0)
(10.1321 -0.0756398 0)
(9.94746 -0.0315887 0)
(9.84318 -0.0841034 0)
(9.89583 -0.0661783 0)
(9.99679 -0.063443 0)
(10.0715 -0.0550061 0)
(10.1195 -0.0384441 0)
(10.154 -0.0345202 0)
(10.169 -0.051681 0)
(10.1654 -0.0762321 0)
(10.1564 -0.0875849 0)
(10.1529 -0.0753323 0)
(10.1574 -0.0444715 0)
(10.1675 -0.00953755 0)
(10.1786 0.0140478 0)
(10.1858 0.0182591 0)
(10.1887 0.00588619 0)
(10.1887 -0.0151859 0)
(10.1921 -0.034285 0)
(10.083 -0.0392987 0)
(10.1912 -0.102214 0)
(10.1406 -0.0675979 0)
(10.0716 -0.0553008 0)
(10.0561 -0.0763107 0)
(10.072 -0.0916045 0)
(10.0835 -0.0815441 0)
(10.0683 -0.0530756 0)
(10.0377 -0.025912 0)
(10.0172 -0.0164068 0)
(10.0185 -0.0262728 0)
(10.0377 -0.0467381 0)
(10.0656 -0.0670775 0)
(10.0929 -0.0810531 0)
(10.1114 -0.0872386 0)
(10.1194 -0.0868755 0)
(10.1178 -0.0822759 0)
(10.1125 -0.0754235 0)
(10.1175 -0.0690798 0)
(9.86756 -0.0465409 0)
(9.72128 -0.0174767 0)
(9.608 -0.0331705 0)
(9.40481 -0.0604491 0)
(9.15335 -0.0607791 0)
(8.94521 -0.0463151 0)
(8.79986 -0.0426091 0)
(8.68803 -0.0537447 0)
(8.57802 -0.0671416 0)
(8.45378 -0.0691979 0)
(8.32005 -0.0562217 0)
(8.1918 -0.0355609 0)
(8.07917 -0.0185303 0)
(7.9779 -0.0119489 0)
(7.88201 -0.0161585 0)
(7.78237 -0.0273538 0)
(7.68177 -0.0384986 0)
(0.0692695 -0.17755 3.32039e-20)
(0.228996 -0.240146 -3.29451e-20)
(0.407873 -0.244528 0)
(0.581101 -0.239311 0)
(0.750341 -0.233476 0)
(0.917075 -0.228317 3.18177e-20)
(1.08162 -0.223328 0)
(1.24361 -0.217476 0)
(1.40181 -0.209458 0)
(1.55397 -0.198189 0)
(1.69695 -0.182654 -3.02886e-20)
(1.82659 -0.162485 0)
(1.93865 -0.137798 0)
(2.02978 -0.109023 0)
(2.0939 -0.0793935 0)
(2.12849 -0.0479923 -2.87823e-20)
(2.12518 -0.0192527 0)
(2.07448 -0.0104787 0)
(1.9767 -0.0435171 0)
(1.83757 -0.105952 0)
(1.65316 -0.163019 0)
(1.42342 -0.144549 0)
(1.12663 0.038928 0)
(0.696383 0.316189 -2.69401e-20)
(0.130254 0.446581 2.67545e-20)
(-0.474995 0.482577 -2.65e-20)
(-1.13131 0.565036 -2.61834e-20)
(-1.86508 0.671966 0)
(-2.66187 0.764911 0)
(-3.49595 0.816389 2.4996e-20)
(-4.33119 0.816769 2.45049e-20)
(-5.13425 0.77504 0)
(-5.88102 0.706675 0)
(-6.5579 0.626007 2.28245e-20)
(-7.16062 0.544064 0)
(-7.69114 0.467432 0)
(-8.15428 0.398392 -2.11134e-20)
(-8.55531 0.33679 0)
(-8.89903 0.281593 -2.00926e-20)
(-9.18914 0.231515 -3.92769e-20)
(-9.42803 0.185253 0)
(-9.61666 0.141696 0)
(-9.7552 0.10014 0)
(-9.84355 0.0604579 0)
(-9.88142 0.0229844 0)
(-9.86832 -0.0119936 -3.59436e-20)
(-9.81194 -0.0442737 -3.57672e-20)
(-9.71042 -0.0743858 -3.56897e-20)
(-9.56851 -0.101942 0)
(-9.38854 -0.12698 3.57885e-20)
(-9.17425 -0.149174 0)
(-8.92935 -0.168474 -3.61409e-20)
(-8.65743 -0.184878 -3.63792e-20)
(-8.36219 -0.198572 0)
(-8.04685 -0.209794 0)
(-7.71442 -0.218814 0)
(-7.36749 -0.226002 -3.74846e-20)
(-7.00819 -0.231626 0)
(-6.63842 -0.235972 0)
(-6.2597 -0.239255 0)
(-5.87335 -0.241633 0)
(-5.4805 -0.243241 0)
(-5.08215 -0.244158 0)
(-4.67922 -0.244459 0)
(-4.27255 -0.244207 0)
(-3.86294 -0.243402 3.92531e-20)
(-3.4513 -0.241935 0)
(-3.0388 -0.239621 0)
(-2.62703 -0.236286 -3.93625e-20)
(-2.21791 -0.231751 -3.9332e-20)
(-1.81356 -0.225832 0)
(-1.41618 -0.218506 3.91645e-20)
(-1.0285 -0.209899 -3.90271e-20)
(-0.653112 -0.199698 0)
(-0.29205 -0.188738 3.8648e-20)
(0.0497241 -0.17704 0)
(0.372349 -0.164894 0)
(0.677773 -0.152577 -3.77619e-20)
(0.964228 -0.140364 0)
(1.23166 -0.128491 3.70566e-20)
(1.48043 -0.11713 0)
(1.7112 -0.106387 -3.63067e-20)
(1.9248 -0.0963167 -3.59214e-20)
(2.1222 -0.0869301 -3.5532e-20)
(2.30437 -0.0782113 -7.028e-20)
(2.47227 -0.0701269 6.94938e-20)
(2.6268 -0.0626363 0)
(2.76881 -0.0556983 0)
(2.89911 -0.0492752 0)
(3.01842 -0.0433346 6.63652e-20)
(3.12745 -0.0378494 6.55938e-20)
(3.22685 -0.0327969 -6.48286e-20)
(3.31726 -0.028157 0)
(3.39929 -0.0239107 6.33185e-20)
(3.47352 -0.0200396 6.25743e-20)
(3.5405 -0.0165242 6.18376e-20)
(3.60079 -0.0133443 0)
(3.65487 -0.010479 0)
(3.70324 -0.00790627 0)
(3.74633 -0.00560442 5.89671e-20)
(3.78456 -0.00355167 0)
(3.81832 -0.00172762 0)
(3.84795 -0.000112359 -5.68926e-20)
(3.87378 0.00131063 0)
(3.8961 0.00255896 0)
(3.91519 0.00364375 -5.48811e-20)
(3.93131 0.00458084 0)
(3.94468 0.00537772 0)
(3.95555 0.00604458 5.29285e-20)
(3.96409 0.00660104 5.229e-20)
(3.97056 0.00703936 0)
(3.97508 0.00741397 -5.10305e-20)
(3.97771 0.0077548 0)
(3.97869 0.00802116 4.97934e-20)
(3.97821 0.00818556 0)
(3.97645 0.00825408 4.85778e-20)
(3.97362 0.00823979 4.79779e-20)
(3.96987 0.00815315 0)
(3.96538 0.00800954 0)
(3.96029 0.00780423 0)
(3.95473 0.00755595 0)
(3.94882 0.00727871 0)
(3.94264 0.00698138 0)
(3.93626 0.00667576 0)
(3.92977 0.00636951 4.33517e-20)
(3.92321 0.00606547 -4.27937e-20)
(3.91662 0.00576646 0)
(3.91006 0.00547659 0)
(3.90354 0.00520095 0)
(3.89708 0.00494409 0)
(3.89069 0.00470673 -8.01308e-20)
(3.88439 0.00448565 0)
(3.87817 0.00427809 7.80034e-20)
(3.87204 0.00408703 -7.69509e-20)
(3.866 0.00392058 0)
(3.86003 0.00378504 0)
(3.85411 0.0036769 0)
(3.84823 0.00358169 7.28142e-20)
(3.8424 0.00348038 7.17976e-20)
(3.83663 0.00335912 0)
(3.83098 0.00321515 6.97851e-20)
(3.82549 0.00305625 6.8789e-20)
(3.82018 0.00289507 -6.77995e-20)
(3.81507 0.00274289 0)
(3.81014 0.00260592 0)
(3.80539 0.00248518 -6.48698e-20)
(3.80077 0.00237837 0)
(3.79627 0.00228229 0)
(3.79188 0.00219426 0)
(3.78756 0.0021129 0)
(3.78332 0.00203778 6.0111e-20)
(3.77912 0.00196925 5.91772e-20)
(3.77497 0.00190763 0)
(3.77084 0.00185358 5.73267e-20)
(3.76673 0.00180714 0)
(3.76262 0.00176904 0)
(3.75849 0.00173901 5.45935e-20)
(3.75433 0.00171831 0)
(3.7501 0.00170648 5.27989e-20)
(3.74581 0.00170591 0)
(3.74137 0.00171624 0)
(3.73685 0.0017412 5.01475e-20)
(3.73205 0.00178193 0)
(3.72713 0.00184173 4.84066e-20)
(3.72171 0.00192952 0)
(3.71617 0.00203837 0)
(3.70968 0.00220832 0)
(3.70313 0.00238395 -4.49899e-20)
(3.69482 0.00271667 0)
(3.68661 0.00296824 4.33159e-20)
(3.67515 0.00366465 0)
(3.66393 0.00393899 0)
(3.64713 0.0055419 0)
(3.62951 0.00554789 0)
(3.60416 0.00965466 0)
(3.57004 0.00830046 0)
(3.53283 0.0201015 0)
(3.44799 0.0140389 -7.39484e-20)
(3.40039 0.0548055 0)
(3.13315 0.0447985 0)
(0.0532496 -0.463431 -9.96221e-20)
(0.132018 -0.527663 9.88634e-20)
(0.214564 -0.512302 0)
(0.294167 -0.495892 -6.48543e-20)
(0.375354 -0.483897 0)
(0.457105 -0.474652 -3.18524e-20)
(0.538743 -0.466276 6.31656e-20)
(0.619025 -0.456044 6.25775e-20)
(0.695432 -0.441025 0)
(0.764969 -0.418366 6.13691e-20)
(0.822805 -0.385706 3.03601e-20)
(0.862801 -0.341506 0)
(0.877347 -0.285775 0)
(0.857691 -0.215274 0)
(0.790154 -0.126567 0)
(0.660278 -0.0201338 2.88953e-20)
(0.472941 0.107937 0)
(0.208325 0.2719 -5.68004e-20)
(-0.129494 0.477531 0)
(-0.56309 0.699466 0)
(-1.09194 0.902626 5.51996e-20)
(-1.65188 1.07991 0)
(-2.20377 1.24646 -5.40019e-20)
(-2.76273 1.40777 2.67779e-20)
(-3.35502 1.55388 -2.65143e-20)
(-3.96333 1.69168 2.62287e-20)
(-4.57774 1.81353 2.5917e-20)
(-5.18329 1.89702 0)
(-5.76627 1.92781 0)
(-6.31821 1.89953 -2.47838e-20)
(-6.83185 1.81588 2.3694e-20)
(-7.30215 1.68928 0)
(-7.72738 1.53629 0)
(-8.10982 1.37316 -2.2714e-20)
(-8.45383 1.21218 0)
(-8.76424 1.06037 0)
(-9.04489 0.920306 2.10536e-20)
(-9.29797 0.791405 0)
(-9.52372 0.671437 -1.96256e-20)
(-9.72064 0.557628 3.92121e-20)
(-9.88612 0.447458 0)
(-10.0172 0.339021 0)
(-10.1112 0.231291 7.33931e-20)
(-10.1657 0.124388 7.2424e-20)
(-10.1799 0.0196469 7.16867e-20)
(-10.1529 -0.0810368 -3.52349e-20)
(-10.0783 -0.177523 3.57416e-20)
(-9.96215 -0.268259 1.0639e-19)
(-9.80429 -0.35191 -7.07978e-20)
(-9.60872 -0.427423 -3.5758e-20)
(-9.37874 -0.494075 0)
(-9.11832 -0.551687 3.61083e-20)
(-8.83153 -0.600432 -3.5999e-20)
(-8.52205 -0.640892 0)
(-8.19345 -0.67387 0)
(-7.84871 -0.70032 0)
(-7.49038 -0.721242 3.74501e-20)
(-7.12058 -0.737583 0)
(-6.74092 -0.750178 -7.57664e-20)
(-6.35282 -0.759707 0)
(-5.9574 -0.766703 -7.67237e-20)
(-5.55566 -0.771552 0)
(-5.14848 -0.774519 7.75067e-20)
(-4.73663 -0.775801 0)
(-4.32084 -0.775566 -7.80874e-20)
(-3.90175 -0.773806 3.90732e-20)
(-3.48019 -0.770161 0)
(-3.05736 -0.764087 7.85285e-20)
(-2.63479 -0.755082 3.93337e-20)
(-2.21442 -0.742603 3.93045e-20)
(-1.79847 -0.726 0)
(-1.38948 -0.704922 3.90599e-20)
(-0.990256 -0.679737 3.90047e-20)
(-0.60374 -0.650199 0)
(-0.232336 -0.617631 -3.86297e-20)
(0.119442 -0.582842 7.66857e-20)
(0.451928 -0.546649 0)
(0.767122 -0.509944 3.77385e-20)
(1.06326 -0.473622 0)
(1.34051 -0.438388 -1.11077e-19)
(1.59941 -0.404731 0)
(1.84077 -0.372953 1.08837e-19)
(2.06556 -0.343197 3.59025e-20)
(2.27481 -0.315489 -3.54924e-20)
(2.46953 -0.289767 -7.02049e-20)
(2.65072 -0.265921 6.94223e-20)
(2.81928 -0.243817 0)
(2.97609 -0.223321 0)
(3.1219 -0.204308 0)
(3.25746 -0.186671 -1.98967e-19)
(3.38344 -0.170317 -6.55598e-20)
(3.50048 -0.155168 6.47944e-20)
(3.60919 -0.141155 0)
(3.71016 -0.128216 6.32647e-20)
(3.80395 -0.11629 -6.2539e-20)
(3.89108 -0.105318 -6.18018e-20)
(3.97206 -0.0952395 0)
(4.04735 -0.0859931 0)
(4.1174 -0.0775173 0)
(4.1826 -0.0697513 -5.89286e-20)
(4.24332 -0.0626354 0)
(4.29989 -0.0561129 1.15064e-19)
(4.35263 -0.0501299 1.70547e-19)
(4.40179 -0.0446383 -1.1234e-19)
(4.44761 -0.0395932 0)
(4.49031 -0.0349577 -5.48315e-20)
(4.53007 -0.0306971 0)
(4.56707 -0.0267842 -1.07052e-19)
(4.60145 -0.023196 5.28784e-20)
(4.63337 -0.0199024 5.22397e-20)
(4.66293 -0.0168932 0)
(4.6903 -0.014131 1.52948e-19)
(4.71573 -0.0115904 -1.00721e-19)
(4.7393 -0.00929644 -4.9746e-20)
(4.7611 -0.00726852 0)
(4.7812 -0.00549692 -4.85298e-20)
(4.79969 -0.00395978 -1.43786e-19)
(4.81663 -0.00263434 0)
(4.83211 -0.00150576 -9.34867e-20)
(4.8462 -0.000536164 -9.23164e-20)
(4.85901 0.000286067 -9.11557e-20)
(4.87061 0.000970602 0)
(4.8811 0.00152603 0)
(4.89056 0.00197449 0)
(4.89906 0.00233285 4.33022e-20)
(4.9067 0.00261276 4.27455e-20)
(4.91354 0.0028251 0)
(4.91966 0.00298022 8.32846e-20)
(4.92513 0.00308887 8.21944e-20)
(4.93 0.00316136 0)
(4.93433 0.00320475 8.00385e-20)
(4.93818 0.00322362 1.57943e-19)
(4.9416 0.00322191 -7.79131e-20)
(4.94463 0.00320536 -7.6861e-20)
(4.94731 0.00318108 0)
(4.94968 0.00315541 0)
(4.95178 0.00312952 0)
(4.95365 0.00309804 -7.27299e-20)
(4.95533 0.00305059 7.17142e-20)
(4.95683 0.00297739 1.41412e-19)
(4.95818 0.00287379 -6.97048e-20)
(4.95937 0.00274288 6.87097e-20)
(4.96044 0.00259408 6.77218e-20)
(4.9614 0.00243983 0)
(4.9623 0.00229181 0)
(4.96314 0.0021584 -6.47959e-20)
(4.96394 0.00204392 0)
(4.9647 0.00194917 0)
(4.96541 0.0018726 1.23853e-19)
(4.96605 0.00181166 0)
(4.96661 0.00176373 6.00439e-20)
(4.96707 0.00172678 -5.91114e-20)
(4.96743 0.0016994 0)
(4.96768 0.00168105 5.72635e-20)
(4.96782 0.00167163 0)
(4.96785 0.00167179 0)
(4.96776 0.00168248 -5.45342e-20)
(4.96755 0.00170516 1.07271e-19)
(4.96723 0.00174227 -5.27421e-20)
(4.96677 0.0017956 0)
(4.96617 0.00187114 0)
(4.96542 0.00196875 5.0094e-20)
(4.96448 0.00210446 0)
(4.96333 0.00226762 4.83553e-20)
(4.96192 0.00250416 0)
(4.9602 0.00276368 0)
(4.95811 0.00318155 0)
(4.9555 0.00357609 4.49436e-20)
(4.95234 0.00434742 0)
(4.94824 0.0049074 -4.32716e-20)
(4.94339 0.00643208 0)
(4.93659 0.00712136 0)
(4.92904 0.0103958 8.16223e-20)
(4.91685 0.010927 -8.00146e-20)
(4.90506 0.018629 0)
(4.8809 0.0180712 0)
(4.8628 0.0382673 0)
(4.80936 0.0354863 2.21528e-19)
(4.7856 0.0977084 0)
(4.66338 0.104157 -1.41887e-19)
(0.00494789 -0.538075 -9.812e-23)
(-0.0311679 -0.554599 -1.3197e-19)
(-0.0586573 -0.546001 0)
(-0.0897168 -0.538678 1.29885e-19)
(-0.119065 -0.535011 0)
(-0.151365 -0.529394 0)
(-0.189001 -0.518996 1.21074e-22)
(-0.235566 -0.498968 -6.26461e-20)
(-0.294519 -0.464784 -6.21869e-20)
(-0.370298 -0.411816 -6.14406e-20)
(-0.468304 -0.335122 0)
(-0.596209 -0.228816 0)
(-0.75826 -0.0848493 5.97303e-20)
(-0.956186 0.10217 1.18194e-19)
(-1.19783 0.332051 -1.16922e-19)
(-1.48718 0.592736 0)
(-1.81707 0.866055 -1.1441e-19)
(-2.17084 1.13273 5.6452e-20)
(-2.53641 1.3809 0)
(-2.91715 1.59568 -1.10844e-19)
(-3.31582 1.78527 -5.48177e-20)
(-3.72413 1.96241 1.08443e-19)
(-4.13269 2.13627 5.36745e-20)
(-4.53983 2.30209 0)
(-4.94445 2.44633 -1.04523e-19)
(-5.34485 2.56462 -1.03088e-19)
(-5.73905 2.64933 0)
(-6.12328 2.68993 -9.99243e-20)
(-6.49609 2.67508 0)
(-6.85578 2.59913 -9.63424e-20)
(-7.20201 2.46554 -4.79208e-20)
(-7.53533 2.28844 0)
(-7.85716 2.08754 0)
(-8.16886 1.88148 0)
(-8.47093 1.6828 0)
(-8.76287 1.4971 0)
(-9.04328 1.32466 0)
(-9.30936 1.16232 -8.0001e-20)
(-9.55644 1.00547 1.17756e-19)
(-9.77848 0.849445 0)
(-9.96911 0.690749 0)
(-10.1224 0.527475 0)
(-10.2329 0.35944 -1.25279e-21)
(-10.2959 0.187901 -7.23983e-20)
(-10.3086 0.0153046 -1.42117e-19)
(-10.2722 -0.154973 1.41085e-19)
(-10.188 -0.319227 6.97037e-20)
(-10.0571 -0.473399 -7.06908e-20)
(-9.88336 -0.614608 9.29023e-22)
(-9.67109 -0.740751 -7.01456e-20)
(-9.42521 -0.850931 0)
(-9.15049 -0.945029 -7.11234e-20)
(-8.85147 -1.02371 5.75964e-22)
(-8.5323 -1.08817 0)
(-8.19655 -1.14 0)
(-7.84724 -1.18102 7.3624e-20)
(-7.48673 -1.21305 0)
(-7.11676 -1.23781 0)
(-6.73857 -1.25679 -7.50373e-20)
(-6.35305 -1.27117 -1.51767e-19)
(-5.96089 -1.28179 7.66629e-20)
(-5.56263 -1.28918 0)
(-5.15865 -1.29369 -7.74435e-20)
(-4.74932 -1.29555 0)
(-4.33489 -1.29497 -7.74898e-20)
(-3.91561 -1.29197 -7.82298e-20)
(-3.49202 -1.28598 1.56276e-19)
(-3.0652 -1.27608 7.8017e-20)
(-2.6366 -1.26135 0)
(-2.20832 -1.24066 -1.56516e-19)
(-1.78326 -1.2128 0)
(-1.36485 -1.1771 -2.34152e-19)
(-0.956853 -1.13373 -1.55537e-19)
(-0.562947 -1.08344 -1.54924e-19)
(-0.186411 -1.0274 1.54176e-19)
(0.168005 -0.968689 -2.29763e-19)
(0.500768 -0.90688 0)
(0.814028 -0.844705 0)
(1.10643 -0.783576 1.49321e-19)
(1.37871 -0.724608 2.21913e-19)
(1.63193 -0.668576 0)
(1.86731 -0.615925 -7.25187e-20)
(2.08615 -0.566835 0)
(2.28968 -0.521286 2.12872e-19)
(2.47905 -0.479128 6.68575e-23)
(2.65531 -0.44014 -6.19624e-23)
(2.81939 -0.404075 -1.3722e-19)
(2.97212 -0.370697 0)
(3.11426 -0.339795 1.34111e-19)
(3.24649 -0.311188 4.49609e-23)
(3.36946 -0.284727 0)
(3.4838 -0.260282 0)
(3.59011 -0.23774 0)
(3.68897 -0.216997 -1.26535e-19)
(3.78095 -0.197949 0)
(3.86657 -0.180492 0)
(3.94635 -0.164522 0)
(4.02077 -0.149929 0)
(4.09028 -0.136606 0)
(4.15527 -0.124444 -1.17822e-19)
(4.21613 -0.113339 0)
(4.27318 -0.10319 -1.1506e-19)
(4.32673 -0.0939013 -1.13692e-19)
(4.37705 -0.0853857 1.12337e-19)
(4.42435 -0.0775652 0)
(4.46885 -0.070369 1.09667e-19)
(4.51073 -0.0637378 0)
(4.55013 -0.0576192 1.0705e-19)
(4.5872 -0.0519685 -1.0576e-19)
(4.62206 -0.0467522 -3.1343e-19)
(4.65482 -0.0419335 0)
(4.68557 -0.0375014 -3.05872e-19)
(4.7144 -0.0334424 -1.00707e-19)
(4.7414 -0.0297326 0)
(4.76665 -0.0263556 -1.96521e-19)
(4.79023 -0.0232929 -1.941e-19)
(4.81224 -0.0205235 2.87555e-19)
(4.83272 -0.0180225 0)
(4.85177 -0.0157705 9.34842e-20)
(4.86948 -0.0137269 9.23137e-20)
(4.88592 -0.0118838 2.73453e-19)
(4.90113 -0.0102417 0)
(4.91521 -0.00878318 0)
(4.92823 -0.00749432 0)
(4.94023 -0.00636121 8.6598e-20)
(4.95128 -0.0053637 0)
(4.96145 -0.00448482 0)
(4.9708 -0.00371302 -8.32797e-20)
(4.97937 -0.0030373 -8.21892e-20)
(4.98724 -0.00244523 0)
(4.99444 -0.00192719 0)
(5.00104 -0.00147663 -1.57931e-19)
(5.00707 -0.00108623 0)
(5.01259 -0.000746203 1.53711e-19)
(5.01763 -0.000446693 1.51622e-19)
(5.02224 -0.000181332 0)
(5.02645 5.04712e-05 0)
(5.03032 0.000244994 -1.45446e-19)
(5.03386 0.000397427 -8.19556e-25)
(5.03711 0.000505137 -7.09118e-25)
(5.04007 0.000568562 0)
(5.04276 0.000591004 -2.74813e-19)
(5.04519 0.000578178 0)
(5.04739 0.000538357 0)
(5.04938 0.000482355 0)
(5.05118 0.000422509 1.29579e-19)
(5.05282 0.000370699 0)
(5.05431 0.000336009 -2.51483e-19)
(5.05567 0.000323379 -1.23841e-19)
(5.05691 0.000333418 0)
(5.05804 0.000363729 -1.20076e-19)
(5.05906 0.000410236 0)
(5.05997 0.000469127 0)
(5.06079 0.000537106 -3.43547e-19)
(5.0615 0.000612979 2.2537e-19)
(5.06212 0.000695832 0)
(5.06264 0.000787938 2.18115e-19)
(5.06306 0.000889602 -1.0726e-19)
(5.06339 0.00100732 0)
(5.0636 0.0011403 0)
(5.0637 0.00130291 0)
(5.06366 0.00148836 -3.00535e-19)
(5.06348 0.00172956 0)
(5.06311 0.002 -9.67017e-20)
(5.06257 0.00237948 0)
(5.06171 0.00278349 0)
(5.06063 0.0034126 0)
(5.05901 0.00401984 0)
(5.05711 0.00512095 0)
(5.05423 0.00602391 0)
(5.05102 0.00807478 -1.6975e-19)
(5.04594 0.00938845 0)
(5.04058 0.0134812 -8.16135e-20)
(5.0315 0.015351 2.39998e-19)
(5.02242 0.0241945 0)
(5.00589 0.0271272 0)
(4.99032 0.0483193 -1.50575e-19)
(4.96104 0.0561838 -1.47635e-19)
(4.93701 0.113479 1.44546e-19)
(4.89907 0.145418 1.41853e-19)
(-0.033607 -0.403321 1.99876e-19)
(-0.146883 -0.391699 1.98373e-19)
(-0.24979 -0.380257 1.31293e-19)
(-0.361971 -0.364565 6.52673e-20)
(-0.478544 -0.348535 0)
(-0.604874 -0.324523 -1.28021e-19)
(-0.742889 -0.289244 6.36267e-20)
(-0.895804 -0.238594 0)
(-1.06507 -0.167641 6.20664e-20)
(-1.25145 -0.0705563 0)
(-1.45653 0.0580344 -1.22106e-19)
(-1.6816 0.222811 0)
(-1.92882 0.42592 -5.95131e-20)
(-2.19554 0.66241 -1.17715e-19)
(-2.47399 0.922857 1.16422e-19)
(-2.75805 1.19473 0)
(-3.04255 1.46531 1.13933e-19)
(-3.3227 1.72365 0)
(-3.59633 1.96188 0)
(-3.86537 2.17629 1.10476e-19)
(-4.13294 2.37095 0)
(-4.4014 2.55247 -2.53849e-23)
(-4.67309 2.72336 0)
(-4.9502 2.88079 0)
(-5.23489 3.02035 4.84335e-22)
(-5.53121 3.13821 1.02951e-19)
(-5.84223 3.22556 1.00605e-19)
(-6.16799 3.26855 9.98258e-20)
(-6.50364 3.25129 0)
(-6.8397 3.16476 1.91225e-19)
(-7.16661 3.01292 0)
(-7.47818 2.81331 9.08824e-20)
(-7.77368 2.58936 0)
(-8.05697 2.36174 0)
(-8.33416 2.14324 -8.4643e-20)
(-8.61017 1.93813 0)
(-8.886 1.74409 8.04878e-20)
(-9.15782 1.55485 1.52047e-21)
(-9.41777 1.36279 -1.54598e-19)
(-9.65581 1.16138 1.49377e-19)
(-9.86149 0.946552 0)
(-10.0253 0.71744 0)
(-10.1396 0.476221 6.86281e-20)
(-10.1994 0.227079 0)
(-10.2022 -0.0246795 7.04627e-20)
(-10.1476 -0.272656 -6.99649e-20)
(-10.0384 -0.50847 -6.97066e-20)
(-9.87936 -0.727181 0)
(-9.67678 -0.924564 6.98259e-20)
(-9.4376 -1.09842 7.01422e-20)
(-9.16874 -1.24783 -1.39184e-19)
(-8.87656 -1.37333 7.1118e-20)
(-8.56659 -1.47645 7.17127e-20)
(-8.24329 -1.55943 0)
(-7.91012 -1.62493 0)
(-7.56952 -1.67584 -7.36113e-20)
(-7.22305 -1.71502 0)
(-6.87148 -1.74511 0)
(-6.51495 -1.76842 1.50698e-19)
(-6.15328 -1.7867 1.51711e-19)
(-5.78632 -1.80106 0)
(-5.414 -1.81208 0)
(-5.03616 -1.82007 0)
(-4.65243 -1.82507 0)
(-4.26216 -1.82708 1.55412e-19)
(-3.86434 -1.82595 -1.55134e-19)
(-3.45817 -1.82079 -1.56161e-19)
(-3.0434 -1.81014 -3.12083e-19)
(-2.6206 -1.79247 0)
(-2.19162 -1.7657 5.43712e-22)
(-1.75994 -1.72752 0)
(-1.33036 -1.67672 1.55897e-19)
(-0.908459 -1.61345 3.64717e-22)
(-0.499647 -1.53914 1.54832e-19)
(-0.110482 -1.45615 -1.54072e-19)
(0.254923 -1.36905 2.00627e-22)
(0.596331 -1.27823 0)
(0.913231 -1.18774 -1.504e-19)
(1.20574 -1.09975 -1.49224e-19)
(1.47521 -1.01578 -2.95503e-19)