/*--------------------------------*- C++ -*----------------------------------*\
| =========                 |                                                 |
| \\      /  F ield         | OpenFOAM: The Open Source CFD Toolbox           |
|  \\    /   O peration     | Version:  2112                                  |
|   \\  /    A nd           | Website:  www.openfoam.com                      |
|    \\/     M anipulation  |                                                 |
\*---------------------------------------------------------------------------*/
FoamFile
{
    version     2.0;
    format      ascii;
    arch        "LSB;label=32;scalar=64";
    class       volVectorField;
    location    "0.15";
    object      U;
}
// * * * * * * * * * * * * * * * * * * * * * * * * * * * * * * * * * * * * * //

dimensions      [0 1 -1 0 0 0 0];

internalField   nonuniform List<vector> 
12225
(
(9.83436 -0.970544 0)
(9.57813 -0.889889 0)
(9.29461 -0.588853 0)
(8.98882 -0.36219 0)
(8.69732 -0.220219 0)
(8.43767 -0.135944 0)
(8.2108 -0.0853939 0)
(8.01348 -0.0542111 0)
(7.8425 -0.0344998 0)
(7.69458 -0.0218406 0)
(7.5663 -0.0136325 0)
(7.45454 -0.00828306 0)
(7.35668 -0.0047929 0)
(7.2707 -0.00253238 0)
(7.19438 -0.00100425 0)
(7.12786 -0.000332436 0)
(7.06186 0.0030252 0)
(7.01746 -0.00685177 0)
(10.0843 0.314244 0)
(10.2072 0.498088 0)
(10.2521 0.438495 0)
(10.2493 0.341468 0)
(10.2275 0.263135 0)
(10.1928 0.205707 0)
(10.1449 0.164197 0)
(10.0853 0.134222 0)
(10.0177 0.112291 0)
(9.94578 0.0958714 0)
(9.87191 0.083286 0)
(9.7978 0.0734434 0)
(9.72463 0.0655982 0)
(9.65331 0.0592806 0)
(9.58428 0.0540024 0)
(9.51834 0.0501985 0)
(9.45522 0.0461454 0)
(9.40111 0.0494573 0)
(9.99639 0.0430771 0)
(10.0185 0.00549115 0)
(10.0564 -0.0365892 0)
(10.0915 -0.0372254 0)
(10.1213 -0.0167401 0)
(10.1459 0.0046119 0)
(10.1639 0.0205163 0)
(10.1752 0.0315548 0)
(10.1808 0.0391046 0)
(10.1819 0.0441466 0)
(10.1795 0.047395 0)
(10.174 0.0493843 0)
(10.166 0.0504893 0)
(10.156 0.0509874 0)
(10.1445 0.0510494 0)
(10.132 0.0509982 0)
(10.1192 0.0508653 0)
(10.1066 0.0510359 0)
(9.99626 0.00533504 0)
(10.0055 0.0257168 0)
(10.0328 0.0475084 0)
(10.0553 0.0661486 0)
(10.0719 0.0763322 0)
(10.087 0.0787093 0)
(10.1011 0.0771189 0)
(10.1133 0.0744036 0)
(10.1238 0.0716476 0)
(10.1328 0.0690588 0)
(10.1407 0.0666477 0)
(10.1475 0.064418 0)
(10.1532 0.0623643 0)
(10.1581 0.0604838 0)
(10.1623 0.0587472 0)
(10.166 0.0572089 0)
(10.1694 0.0556844 0)
(10.1731 0.0535461 0)
(9.99919 0.00731227 0)
(10.008 0.0375636 0)
(10.0279 0.0519201 0)
(10.0433 0.0562594 0)
(10.0547 0.058049 0)
(10.0662 0.0586676 0)
(10.0777 0.0585185 0)
(10.0882 0.0580604 0)
(10.0975 0.0574981 0)
(10.106 0.0568315 0)
(10.1137 0.0560512 0)
(10.1209 0.0551871 0)
(10.1276 0.0542715 0)
(10.1339 0.0533267 0)
(10.1398 0.0523427 0)
(10.1455 0.0513182 0)
(10.1512 0.0500644 0)
(10.1571 0.0483078 0)
(10.0002 0.00953322 0)
(10.0081 0.0344767 0)
(10.0236 0.0446809 0)
(10.0369 0.0480246 0)
(10.0473 0.0513467 0)
(10.0576 0.0540926 0)
(10.0679 0.0554596 0)
(10.0772 0.0558169 0)
(10.0856 0.055651 0)
(10.0932 0.0551753 0)
(10.1004 0.0544766 0)
(10.1072 0.0536245 0)
(10.1135 0.052671 0)
(10.1196 0.0516436 0)
(10.1255 0.050533 0)
(10.1312 0.0493087 0)
(10.1369 0.0478369 0)
(10.1427 0.0459296 0)
(10.0003 0.00915737 0)
(10.007 0.0291604 0)
(10.0201 0.0393706 0)
(10.0325 0.0442146 0)
(10.0425 0.0483182 0)
(10.0521 0.0512959 0)
(10.0615 0.0526665 0)
(10.0702 0.0529673 0)
(10.078 0.0527527 0)
(10.0852 0.0522493 0)
(10.092 0.0515342 0)
(10.0985 0.0506652 0)
(10.1046 0.0496861 0)
(10.1104 0.0486159 0)
(10.1161 0.0474397 0)
(10.1216 0.0461164 0)
(10.127 0.0445405 0)
(10.1324 0.0425681 0)
(10.0003 0.00817672 0)
(10.006 0.0250969 0)
(10.0172 0.0355146 0)
(10.0286 0.0410165 0)
(10.0382 0.0449993 0)
(10.0473 0.0477715 0)
(10.0562 0.0491436 0)
(10.0645 0.0495492 0)
(10.072 0.0494472 0)
(10.079 0.049039 0)
(10.0856 0.048399 0)
(10.0919 0.0475824 0)
(10.0978 0.0466309 0)
(10.1035 0.0455612 0)
(10.1089 0.0443592 0)
(10.1143 0.0429865 0)
(10.1194 0.0413641 0)
(10.1245 0.0394014 0)
(10.0004 0.00727719 0)
(10.0052 0.0219044 0)
(10.0147 0.0318766 0)
(10.025 0.0374788 0)
(10.0342 0.0412873 0)
(10.0428 0.0439724 0)
(10.0513 0.0454567 0)
(10.0593 0.0460254 0)
(10.0667 0.0460532 0)
(10.0735 0.0457393 0)
(10.08 0.0451688 0)
(10.0861 0.0443986 0)
(10.0919 0.0434703 0)
(10.0975 0.0424011 0)
(10.1028 0.0411817 0)
(10.1079 0.0397829 0)
(10.1128 0.0381518 0)
(10.1176 0.0362432 0)
(10.0004 0.00645735 0)
(10.0045 0.0191013 0)
(10.0125 0.0282903 0)
(10.0218 0.0338248 0)
(10.0305 0.0375339 0)
(10.0387 0.0401607 0)
(10.0467 0.0417156 0)
(10.0544 0.0423977 0)
(10.0616 0.0425203 0)
(10.0683 0.0422799 0)
(10.0747 0.041768 0)
(10.0807 0.0410412 0)
(10.0864 0.0401393 0)
(10.0918 0.0390814 0)
(10.097 0.0378647 0)
(10.102 0.0364712 0)
(10.1067 0.0348699 0)
(10.1112 0.0330484 0)
(10.0004 0.00567376 0)
(10.0039 0.0165717 0)
(10.0107 0.0248775 0)
(10.019 0.0302244 0)
(10.027 0.033813 0)
(10.0348 0.0363346 0)
(10.0424 0.0378891 0)
(10.0498 0.0386336 0)
(10.0568 0.038824 0)
(10.0633 0.0386429 0)
(10.0695 0.0381829 0)
(10.0754 0.0374988 0)
(10.081 0.0366293 0)
(10.0864 0.0355957 0)
(10.0914 0.0344018 0)
(10.0963 0.0330408 0)
(10.1008 0.0314988 0)
(10.1051 0.0297854 0)
(10.0003 0.00497134 0)
(10.0034 0.0144477 0)
(10.0094 0.0219223 0)
(10.0167 0.0269849 0)
(10.0243 0.0304099 0)
(10.0316 0.0327982 0)
(10.0388 0.0343076 0)
(10.0459 0.0350736 0)
(10.0526 0.0353039 0)
(10.059 0.0351625 0)
(10.065 0.0347406 0)
(10.0708 0.0340919 0)
(10.0763 0.0332543 0)
(10.0815 0.0322513 0)
(10.0865 0.0310923 0)
(10.0911 0.0297797 0)
(10.0956 0.0283103 0)
(10.0997 0.0267082 0)
(10.0003 0.00431319 0)
(10.003 0.012513 0)
(10.0082 0.0191425 0)
(10.0148 0.0238224 0)
(10.0218 0.0270375 0)
(10.0287 0.0292715 0)
(10.0355 0.0307054 0)
(10.0423 0.0314631 0)
(10.0488 0.0317127 0)
(10.0549 0.0315977 0)
(10.0608 0.0312053 0)
(10.0664 0.0305886 0)
(10.0718 0.0297845 0)
(10.0769 0.0288183 0)
(10.0817 0.0277042 0)
(10.0862 0.0264512 0)
(10.0905 0.0250641 0)
(10.0945 0.0235764 0)
(10.0003 0.00362321 0)
(10.0026 0.0104944 0)
(10.0071 0.0161634 0)
(10.0129 0.020317 0)
(10.0193 0.0232256 0)
(10.0257 0.0252435 0)
(10.0322 0.0265495 0)
(10.0386 0.0272577 0)
(10.0448 0.0275 0)
(10.0507 0.0273958 0)
(10.0564 0.0270254 0)
(10.0618 0.0264397 0)
(10.067 0.0256746 0)
(10.0719 0.0247562 0)
(10.0766 0.0237027 0)
(10.081 0.0225285 0)
(10.0851 0.0212439 0)
(10.089 0.0198877 0)
(10.0002 0.00290032 0)
(10.0022 0.00839096 0)
(10.0061 0.0129975 0)
(10.0112 0.0164793 0)
(10.0169 0.0189632 0)
(10.0229 0.020684 0)
(10.0289 0.021796 0)
(10.0349 0.0224002 0)
(10.0408 0.0225971 0)
(10.0464 0.0224805 0)
(10.0519 0.0221198 0)
(10.0571 0.0215618 0)
(10.0621 0.0208402 0)
(10.0668 0.019981 0)
(10.0713 0.0190043 0)
(10.0755 0.0179278 0)
(10.0795 0.0167647 0)
(10.0832 0.0155549 0)
(10.0002 0.00214599 0)
(10.0019 0.00620589 0)
(10.0052 0.00965313 0)
(10.0097 0.0123159 0)
(10.0148 0.014239 0)
(10.0203 0.0155615 0)
(10.0258 0.0163982 0)
(10.0314 0.01683 0)
(10.037 0.0169304 0)
(10.0424 0.0167682 0)
(10.0476 0.0163981 0)
(10.0526 0.0158601 0)
(10.0573 0.0151838 0)
(10.0619 0.014393 0)
(10.0662 0.0135074 0)
(10.0702 0.012545 0)
(10.074 0.0115189 0)
(10.0776 0.010467 0)
(10.0002 0.00135862 0)
(10.0016 0.00392542 0)
(10.0045 0.00611194 0)
(10.0084 0.00780876 0)
(10.0131 0.00902397 0)
(10.018 0.00982858 0)
(10.0232 0.0102931 0)
(10.0284 0.0104723 0)
(10.0336 0.0104142 0)
(10.0387 0.0101634 0)
(10.0437 0.00975787 0)
(10.0485 0.00922686 0)
(10.053 0.00859327 0)
(10.0574 0.00787602 0)
(10.0615 0.00709141 0)
(10.0654 0.0062546 0)
(10.069 0.00537634 0)
(10.0725 0.00448937 0)
(10.0002 0.000521257 0)
(10.0015 0.00149454 0)
(10.004 0.00229503 0)
(10.0076 0.00287071 0)
(10.0118 0.00322049 0)
(10.0164 0.00337076 0)
(10.0213 0.0033504 0)
(10.0262 0.00318408 0)
(10.0312 0.00289461 0)
(10.036 0.00250331 0)
(10.0408 0.00202858 0)
(10.0453 0.00148541 0)
(10.0497 0.000886369 0)
(10.0539 0.00024251 0)
(10.0579 -0.000436177 0)
(10.0616 -0.0011399 0)
(10.0652 -0.00186233 0)
(10.0685 -0.00257766 0)
(10.0001 -0.000412331 0)
(10.0014 -0.00121931 0)
(10.0038 -0.00198998 0)
(10.0072 -0.00271635 0)
(10.0113 -0.00339452 0)
(10.0158 -0.00403463 0)
(10.0205 -0.00465134 0)
(10.0253 -0.00525318 0)
(10.0301 -0.00584354 0)
(10.0348 -0.00642535 0)
(10.0394 -0.0070021 0)
(10.0439 -0.00757651 0)
(10.0482 -0.00814997 0)
(10.0523 -0.00872268 0)
(10.0561 -0.009294 0)
(10.0598 -0.00986207 0)
(10.0633 -0.0104268 0)
(10.0665 -0.0109714 0)
(10.0002 -0.00130045 0)
(10.0015 -0.0038096 0)
(10.004 -0.00609188 0)
(10.0076 -0.00806413 0)
(10.0119 -0.00971279 0)
(10.0166 -0.0110928 0)
(10.0214 -0.0122643 0)
(10.0263 -0.0132648 0)
(10.0312 -0.0141234 0)
(10.036 -0.0148698 0)
(10.0406 -0.0155304 0)
(10.0451 -0.0161249 0)
(10.0494 -0.0166674 0)
(10.0535 -0.0171689 0)
(10.0574 -0.0176378 0)
(10.061 -0.01808 0)
(10.0645 -0.018501 0)
(10.0677 -0.0188916 0)
(10.0002 -0.00205849 0)
(10.0016 -0.00605052 0)
(10.0044 -0.00965044 0)
(10.0084 -0.0126424 0)
(10.0131 -0.0150325 0)
(10.0181 -0.0169741 0)
(10.0231 -0.0185707 0)
(10.0283 -0.0198632 0)
(10.0333 -0.0208964 0)
(10.0383 -0.0217305 0)
(10.0431 -0.0224179 0)
(10.0477 -0.0229947 0)
(10.052 -0.0234859 0)
(10.0562 -0.0239112 0)
(10.0601 -0.0242862 0)
(10.0638 -0.0246218 0)
(10.0673 -0.0249275 0)
(10.0705 -0.0251997 0)
(10.0002 -0.00276668 0)
(10.0018 -0.00824618 0)
(10.005 -0.0131974 0)
(10.0097 -0.0171067 0)
(10.0149 -0.0200599 0)
(10.0202 -0.0224153 0)
(10.0256 -0.0243381 0)
(10.0311 -0.0258569 0)
(10.0364 -0.0270222 0)
(10.0416 -0.0279146 0)
(10.0465 -0.0286028 0)
(10.0512 -0.0291355 0)
(10.0557 -0.0295502 0)
(10.0599 -0.0298771 0)
(10.0639 -0.0301395 0)
(10.0676 -0.0303539 0)
(10.0711 -0.0305325 0)
(10.0744 -0.0306745 0)
(10.0002 -0.00339819 0)
(10.0018 -0.0104119 0)
(10.0057 -0.0167634 0)
(10.0112 -0.0215357 0)
(10.0171 -0.0250071 0)
(10.0228 -0.0276994 0)
(10.0286 -0.0297893 0)
(10.0344 -0.0313582 0)
(10.0401 -0.0325345 0)
(10.0455 -0.0334286 0)
(10.0506 -0.0341031 0)
(10.0554 -0.0345999 0)
(10.06 -0.0349593 0)
(10.0643 -0.0352177 0)
(10.0684 -0.0354032 0)
(10.0722 -0.0355352 0)
(10.0757 -0.0356284 0)
(10.0791 -0.035688 0)
(10.0001 -0.00393619 0)
(10.0017 -0.0128297 0)
(10.0064 -0.02024 0)
(10.0129 -0.0253791 0)
(10.0195 -0.0294555 0)
(10.0258 -0.0328269 0)
(10.032 -0.0352479 0)
(10.0381 -0.0368067 0)
(10.044 -0.0378243 0)
(10.0496 -0.0385254 0)
(10.0549 -0.0390027 0)
(10.0599 -0.0393049 0)
(10.0646 -0.0394785 0)
(10.069 -0.0395644 0)
(10.0731 -0.0395924 0)
(10.077 -0.0395818 0)
(10.0806 -0.0395452 0)
(10.084 -0.039478 0)
(9.9999 -0.00400184 0)
(10.0016 -0.0166508 0)
(10.0074 -0.0249645 0)
(10.0147 -0.028768 0)
(10.0215 -0.0323146 0)
(10.0283 -0.0362308 0)
(10.0352 -0.0394603 0)
(10.042 -0.0416759 0)
(10.0484 -0.0431324 0)
(10.0543 -0.0440855 0)
(10.0598 -0.0446739 0)
(10.0651 -0.0449915 0)
(10.07 -0.0451197 0)
(10.0746 -0.0451226 0)
(10.0789 -0.0450452 0)
(10.0829 -0.0449162 0)
(10.0867 -0.0447565 0)
(10.0903 -0.0445728 0)
(9.99888 -0.00145506 0)
(9.99967 -0.0205313 0)
(10.0085 -0.0334456 0)
(10.0173 -0.0365329 0)
(10.0239 -0.0370967 0)
(10.0306 -0.0380058 0)
(10.0383 -0.039234 0)
(10.0461 -0.0405053 0)
(10.0534 -0.0416803 0)
(10.0601 -0.0426609 0)
(10.0665 -0.0434039 0)
(10.0724 -0.0439301 0)
(10.0779 -0.04429 0)
(10.083 -0.0445322 0)
(10.0878 -0.0446953 0)
(10.0922 -0.044805 0)
(10.0963 -0.0448781 0)
(10.1001 -0.0448836 0)
(9.9949 0.00498204 0)
(9.99129 -0.0127692 0)
(10.0056 -0.0369571 0)
(10.0211 -0.0566909 0)
(10.0315 -0.0683857 0)
(10.0403 -0.0723485 0)
(10.0494 -0.0721081 0)
(10.0584 -0.0704429 0)
(10.067 -0.0685128 0)
(10.0751 -0.0665919 0)
(10.0826 -0.0647235 0)
(10.0897 -0.0629374 0)
(10.0961 -0.0612629 0)
(10.102 -0.0597183 0)
(10.1074 -0.0583153 0)
(10.1123 -0.0570614 0)
(10.1169 -0.0559552 0)
(10.121 -0.0549409 0)
(9.99009 -0.0140797 0)
(9.98366 0.0224906 0)
(9.99995 0.0600594 0)
(10.024 0.0630491 0)
(10.0477 0.0460024 0)
(10.0696 0.0253698 0)
(10.0886 0.00798956 0)
(10.1044 -0.0055692 0)
(10.1175 -0.0160573 0)
(10.1284 -0.0240995 0)
(10.1376 -0.0302082 0)
(10.145 -0.0348334 0)
(10.1509 -0.0383368 0)
(10.1553 -0.0409929 0)
(10.1585 -0.0430123 0)
(10.1605 -0.0445777 0)
(10.1617 -0.0458308 0)
(10.1619 -0.0469167 0)
(10.0351 -0.240741 0)
(10.1042 -0.41038 0)
(10.1387 -0.380214 0)
(10.1533 -0.309894 0)
(10.1675 -0.250458 0)
(10.1813 -0.20577 0)
(10.1894 -0.172235 0)
(10.189 -0.146907 0)
(10.1805 -0.127556 0)
(10.1653 -0.112464 0)
(10.1448 -0.100438 0)
(10.1204 -0.0906959 0)
(10.0928 -0.0827061 0)
(10.0632 -0.0760899 0)
(10.0321 -0.0705708 0)
(10.0002 -0.0659887 0)
(9.968 -0.0622039 0)
(9.93611 -0.0595072 0)
(9.93321 0.751584 0)
(9.84757 0.709186 0)
(9.71073 0.489619 0)
(9.52796 0.318245 0)
(9.32898 0.202885 0)
(9.13443 0.12924 0)
(8.95118 0.0819714 0)
(8.7811 0.0509136 0)
(8.62516 0.030124 0)
(8.48352 0.0161079 0)
(8.35549 0.00668174 0)
(8.23998 0.000402744 0)
(8.13579 -0.00370779 0)
(8.04177 -0.00632371 0)
(7.95681 -0.00791468 0)
(7.87987 -0.008843 0)
(7.80965 -0.00934958 0)
(7.74573 -0.0100308 0)
(0.00351335 -0.00643865 -3.78833e-20)
(0.0148315 -0.0153826 3.72542e-20)
(0.028948 -0.0197603 0)
(0.0426708 -0.0200056 0)
(0.0539633 -0.0173586 0)
(0.0620399 -0.013122 -3.50521e-20)
(0.0666557 -0.00823017 0)
(0.0678309 -0.00329631 0)
(0.0655195 0.00114698 0)
(0.0604805 0.00466996 0)
(0.0533037 0.00714396 3.38816e-20)
(0.0444721 0.00872675 0)
(0.0343721 0.00969628 0)
(0.0232476 0.0103379 0)
(0.0111901 0.0108725 0)
(-0.00180741 0.0114389 3.3252e-20)
(-0.0158109 0.0121356 0)
(-0.0309277 0.0130247 0)
(-0.0472715 0.0141098 0)
(-0.0649363 0.0153557 0)
(-0.0839892 0.0167142 0)
(-0.104467 0.0181389 0)
(-0.126378 0.0195891 0)
(-0.149705 0.0210304 2.96875e-20)
(-0.174411 0.0224336 -2.92323e-20)
(-0.200439 0.0237746 2.8781e-20)
(-0.227722 0.0250344 2.83351e-20)
(-0.25618 0.0261988 0)
(-0.285727 0.0272583 0)
(-0.316273 0.0282073 -2.70412e-20)
(-0.347727 0.0290441 -2.66279e-20)
(-0.38 0.0297696 0)
(-0.413006 0.0303875 0)
(-0.446662 0.0309027 -2.54508e-20)
(-0.480891 0.0313214 0)
(-0.515623 0.0316507 0)
(-0.550792 0.0318976 2.43737e-20)
(-0.58634 0.0320691 0)
(-0.622215 0.0321718 2.37115e-20)
(-0.658369 0.0322121 4.6793e-20)
(-0.694759 0.0321963 0)
(-0.731348 0.0321313 0)
(-0.768108 0.0320272 0)
(-0.805021 0.0318995 0)
(-0.842062 0.0317705 0)
(-0.879197 0.0316611 4.34253e-20)
(-0.916481 0.0315793 4.29224e-20)
(-0.953929 0.0315134 4.24343e-20)
(-0.991538 0.0314539 0)
(-1.02931 0.0313957 -4.14992e-20)
(-1.06724 0.0313349 0)
(-1.10533 0.0312685 4.06142e-20)
(-1.14355 0.0311937 4.01889e-20)
(-1.18191 0.0311084 0)
(-1.22039 0.0310104 0)
(-1.25896 0.0308979 0)
(-1.29761 0.0307691 3.85888e-20)
(-1.33631 0.0306224 0)
(-1.37505 0.0304563 0)
(-1.4138 0.0302694 0)
(-1.45252 0.0300605 0)
(-1.49119 0.0298286 0)
(-1.52978 0.0295726 0)
(-1.56824 0.0292918 0)
(-1.60656 0.0289855 0)
(-1.64469 0.0286532 -3.5432e-20)
(-1.68259 0.0282944 0)
(-1.72023 0.0279089 0)
(-1.75756 0.0274966 3.44652e-20)
(-1.79455 0.0270575 3.41477e-20)
(-1.83115 0.0265916 0)
(-1.86733 0.0260993 -3.35167e-20)
(-1.90303 0.0255809 3.32021e-20)
(-1.93823 0.0250369 0)
(-1.97286 0.0244677 -3.25719e-20)
(-2.0069 0.0238741 0)
(-2.0403 0.0232567 0)
(-2.07302 0.0226164 3.16157e-20)
(-2.10501 0.0219539 0)
(-2.13624 0.0212701 -3.09648e-20)
(-2.16665 0.020566 0)
(-2.19622 0.0198425 3.02981e-20)
(-2.2249 0.0191005 2.99575e-20)
(-2.25265 0.0183408 2.96115e-20)
(-2.27943 0.0175643 5.8519e-20)
(-2.30521 0.0167716 -5.78021e-20)
(-2.32994 0.0159635 0)
(-2.35359 0.0151402 0)
(-2.37613 0.0143019 0)
(-2.39751 0.0134482 -5.47872e-20)
(-2.4177 0.0125785 -5.39923e-20)
(-2.43666 0.0116912 5.31794e-20)
(-2.45436 0.0107842 0)
(-2.47074 0.0098541 -5.14964e-20)
(-2.48578 0.0088966 -5.06251e-20)
(-2.49942 0.00790669 -4.9733e-20)
(-2.51161 0.00687847 0)
(-2.52229 0.00580482 0)
(-2.53138 0.00468136 0)
(-2.53881 0.00351618 -4.595e-20)
(-2.54447 0.00234065 0)
(-2.54821 0.00120264 0)
(-2.54993 0.00015685 4.28732e-20)
(-2.55024 -0.00072123 0)
(-2.54902 -0.00155488 0)
(-2.54631 -0.00237069 3.95518e-20)
(-2.5421 -0.00317985 0)
(-2.53637 -0.00398449 0)
(-2.52912 -0.00478495 -3.59877e-20)
(-2.52033 -0.00558066 -3.4745e-20)
(-2.50999 -0.00637079 0)
(-2.4981 -0.00715442 3.21776e-20)
(-2.48464 -0.00793061 0)
(-2.46962 -0.00869842 -2.95016e-20)
(-2.45304 -0.0094569 0)
(-2.43488 -0.0102052 -2.67188e-20)
(-2.41517 -0.0109423 -2.52883e-20)
(-2.39389 -0.0116674 0)
(-2.37105 -0.0123797 0)
(-2.34667 -0.0130782 0)
(-2.32076 -0.0137623 0)
(-2.29333 -0.0144309 0)
(-2.26439 -0.0150835 0)
(-2.23396 -0.0157192 0)
(-2.20207 -0.0163374 -1.29747e-20)
(-2.16872 -0.0169374 1.13377e-20)
(-2.13395 -0.0175186 0)
(-2.09779 -0.0180805 0)
(-2.06025 -0.0186224 0)
(-2.02137 -0.0191438 0)
(-1.98118 -0.0196442 5.78592e-21)
(-1.93971 -0.0201232 0)
(-1.897 -0.0205803 1.16981e-21)
(-1.85308 -0.0210152 -4.68055e-21)
(-1.80799 -0.0214277 0)
(-1.76176 -0.0218175 0)
(-1.71445 -0.0221844 0)
(-1.66609 -0.0225282 1.88795e-20)
(-1.61672 -0.0228488 2.24542e-20)
(-1.56638 -0.0231462 0)
(-1.51513 -0.0234205 2.96132e-20)
(-1.463 -0.0236718 3.31917e-20)
(-1.41004 -0.0239003 -3.67655e-20)
(-1.35629 -0.0241061 0)
(-1.30181 -0.0242894 0)
(-1.24663 -0.0244508 -4.74296e-20)
(-1.19081 -0.0245906 0)
(-1.13438 -0.0247094 0)
(-1.0774 -0.0248077 0)
(-1.01991 -0.024886 0)
(-0.961944 -0.0249452 6.48389e-20)
(-0.903551 -0.024986 6.82412e-20)
(-0.84477 -0.0250093 0)
(-0.785641 -0.0250158 7.49453e-20)
(-0.726201 -0.0250066 0)
(-0.666486 -0.0249826 0)
(-0.606529 -0.0249447 8.47145e-20)
(-0.546363 -0.024894 0)
(-0.486016 -0.0248313 9.10104e-20)
(-0.425518 -0.0247574 0)
(-0.364894 -0.0246724 0)
(-0.304174 -0.0245765 1.00089e-19)
(-0.243382 -0.0244675 0)
(-0.182549 -0.0243391 1.05878e-19)
(-0.121705 -0.0241861 0)
(-0.0608766 -0.0240024 0)
(-9.5178e-05 -0.0237432 0)
(0.0604899 -0.023374 -1.15194e-19)
(0.120976 -0.0229857 0)
(0.181358 -0.0226195 1.17057e-19)
(0.241639 -0.0222683 0)
(0.301811 -0.0219187 0)
(0.361837 -0.0215547 0)
(0.421619 -0.0211523 0)
(0.480988 -0.0206664 0)
(0.539459 -0.0200065 0)
(0.596626 -0.0189333 0)
(0.648533 -0.0168278 -2.43631e-19)
(0.699087 -0.012194 0)
(0.704905 0.00560828 0)
(0.00669624 -0.0319459 1.12358e-19)
(0.0188252 -0.0443953 -1.07749e-19)
(0.0269544 -0.0415022 0)
(0.0313852 -0.0336195 6.55076e-20)
(0.0327166 -0.0238416 0)
(0.0313268 -0.0135413 3.11129e-20)
(0.0275714 -0.00349956 -6.12436e-20)
(0.0217697 0.00580202 -6.04787e-20)
(0.0141534 0.0139832 0)
(0.00462093 0.0208133 -5.94671e-20)
(-0.00680228 0.0263209 -2.94384e-20)
(-0.0200847 0.0307378 0)
(-0.0351803 0.0343931 0)
(-0.0520259 0.0376202 0)
(-0.0705642 0.040687 0)
(-0.0907482 0.0437645 -2.73012e-20)
(-0.112533 0.0469401 0)
(-0.13587 0.050243 5.28464e-20)
(-0.160697 0.0536538 0)
(-0.186948 0.0571176 0)
(-0.214542 0.060564 -5.02977e-20)
(-0.243389 0.0639225 0)
(-0.273386 0.0671311 4.86167e-20)
(-0.304423 0.0701392 -2.39256e-20)
(-0.336384 0.0729087 2.35178e-20)
(-0.369153 0.0754132 -2.31172e-20)
(-0.402614 0.0776374 -2.27249e-20)
(-0.436659 0.0795757 0)
(-0.471184 0.0812307 0)
(-0.506097 0.0826118 2.16065e-20)
(-0.541314 0.0837337 -2.11946e-20)
(-0.576761 0.0846149 0)
(-0.612378 0.0852761 0)
(-0.648111 0.0857394 2.02678e-20)
(-0.683919 0.0860272 0)
(-0.719768 0.0861613 0)
(-0.755632 0.0861625 -1.93797e-20)
(-0.791494 0.0860499 0)
(-0.827342 0.0858411 1.87776e-20)
(-0.863169 0.085552 -3.71676e-20)
(-0.898973 0.0851968 0)
(-0.934756 0.0847886 0)
(-0.970525 0.08434 -7.13531e-20)
(-1.00629 0.0838655 -7.04671e-20)
(-1.04205 0.0833844 -6.96112e-20)
(-1.07782 0.0829161 3.4323e-20)
(-1.11358 0.082466 -3.40606e-20)
(-1.14933 0.0820261 -1.00876e-19)
(-1.18505 0.0815875 6.64487e-20)
(-1.22073 0.0811427 3.29302e-20)
(-1.25637 0.0806853 0)
(-1.29196 0.0802097 -3.2228e-20)
(-1.32748 0.0797113 3.17414e-20)
(-1.36293 0.0791855 0)
(-1.39828 0.0786285 0)
(-1.43352 0.0780365 0)
(-1.46863 0.0774064 -3.0621e-20)
(-1.50359 0.0767351 0)
(-1.53838 0.0760199 5.99018e-20)
(-1.57298 0.0752584 0)
(-1.60735 0.0744485 5.87596e-20)
(-1.64149 0.0735883 0)
(-1.67535 0.0726765 -5.7656e-20)
(-1.70892 0.0717116 0)
(-1.74216 0.0706928 5.65839e-20)
(-1.77504 0.0696195 -2.79544e-20)
(-1.80754 0.0684911 0)
(-1.83962 0.0673077 -5.50193e-20)
(-1.87125 0.0660693 -2.73248e-20)
(-1.90241 0.0647764 -2.70683e-20)
(-1.93305 0.0634295 0)
(-1.96315 0.0620296 -2.64201e-20)
(-1.99267 0.0605776 -2.63015e-20)
(-2.02158 0.0590748 0)
(-2.04986 0.0575226 2.57881e-20)
(-2.07746 0.0559227 -5.09339e-20)
(-2.10435 0.0542768 0)
(-2.13051 0.0525867 -2.50061e-20)
(-2.15589 0.0508544 0)
(-2.18047 0.0490819 7.33066e-20)
(-2.20422 0.0472715 0)
(-2.2271 0.0454251 -7.16713e-20)
(-2.24909 0.0435449 -2.36437e-20)
(-2.27015 0.0416332 2.3268e-20)
(-2.29026 0.0396919 4.59667e-20)
(-2.30938 0.037723 -4.53869e-20)
(-2.32749 0.0357283 0)
(-2.34455 0.0337097 0)
(-2.36054 0.0316684 0)
(-2.37543 0.0296057 1.29079e-19)
(-2.3892 0.0275223 4.24098e-20)
(-2.40181 0.0254187 -4.17412e-20)
(-2.41324 0.0232947 0)
(-2.42346 0.0211494 -4.02992e-20)
(-2.43245 0.0189811 3.96434e-20)
(-2.4402 0.0167879 3.8912e-20)
(-2.44667 0.0145671 0)
(-2.45187 0.0123149 0)
(-2.45579 0.010026 0)
(-2.45849 0.00770289 3.58155e-20)
(-2.46002 0.00537326 0)
(-2.46049 0.0030944 -6.8367e-20)
(-2.46003 0.000907332 -9.99368e-20)
(-2.45817 -0.00116293 6.48951e-20)
(-2.45492 -0.00318746 0)
(-2.45022 -0.00518516 3.06982e-20)
(-2.44404 -0.0071659 0)
(-2.43638 -0.00913103 5.752e-20)
(-2.42721 -0.0110796 -2.78733e-20)
(-2.41651 -0.0130095 -2.68945e-20)
(-2.40429 -0.0149183 0)
(-2.39053 -0.0168035 -7.42205e-20)
(-2.37523 -0.0186625 4.74676e-20)
(-2.35838 -0.0204929 2.25521e-20)
(-2.33998 -0.0222924 0)
(-2.32003 -0.0240586 2.03652e-20)
(-2.29854 -0.0257894 5.80305e-20)
(-2.2755 -0.0274825 0)
(-2.25093 -0.029136 3.4243e-20)
(-2.22483 -0.0307478 3.1926e-20)
(-2.19722 -0.032316 2.95794e-20)
(-2.1681 -0.0338387 0)
(-2.1375 -0.0353143 0)
(-2.10543 -0.0367411 0)
(-2.0719 -0.0381176 -1.01629e-20)
(-2.03695 -0.0394424 -8.51571e-21)
(-2.00059 -0.0407144 0)
(-1.96285 -0.0419323 -1.24349e-20)
(-1.92376 -0.0430952 -9.9008e-21)
(-1.88334 -0.0442021 0)
(-1.84163 -0.045252 -4.31471e-21)
(-1.79865 -0.0462443 -4.41539e-21)
(-1.75445 -0.0471782 -8.69921e-22)
(-1.70906 -0.0480535 -2.48117e-21)
(-1.66251 -0.0488699 0)
(-1.61485 -0.0496272 0)
(-1.56611 -0.0503255 0)
(-1.51634 -0.0509649 -1.39454e-20)
(-1.46557 -0.0515455 1.55035e-20)
(-1.41385 -0.0520677 3.72893e-20)
(-1.36123 -0.0525321 -2.17903e-20)
(-1.30774 -0.0529396 2.33068e-20)
(-1.25344 -0.0532911 2.69873e-20)
(-1.19836 -0.0535875 0)
(-1.14256 -0.0538299 0)
(-1.08608 -0.0540197 -3.35896e-20)
(-1.02896 -0.0541585 0)
(-0.971247 -0.0542478 0)
(-0.91299 -0.0542893 8.33946e-20)
(-0.854229 -0.0542851 0)
(-0.795007 -0.0542371 4.60776e-20)
(-0.735366 -0.0541476 -4.96092e-20)
(-0.675346 -0.0540188 0)
(-0.614985 -0.0538531 5.32915e-20)
(-0.55432 -0.053653 0)
(-0.493387 -0.053421 0)
(-0.432218 -0.0531597 -6.13171e-20)
(-0.370845 -0.0528715 1.2606e-19)
(-0.309297 -0.0525586 -6.5773e-20)
(-0.247602 -0.0522228 0)
(-0.185784 -0.0518653 0)
(-0.123869 -0.0514854 7.11532e-20)
(-0.0618798 -0.0510812 0)
(0.00015908 -0.0506496 7.50548e-20)
(0.0622226 -0.0501869 0)
(0.124291 -0.0496978 0)
(0.186348 -0.0491854 0)
(0.248372 -0.0486349 8.0705e-20)
(0.31039 -0.048068 0)
(0.372385 -0.0475102 -8.27016e-20)
(0.434341 -0.0469579 0)
(0.496231 -0.0463919 0)
(0.558002 -0.0457814 1.69748e-19)
(0.619549 -0.0450749 -1.71289e-19)
(0.68069 -0.0441746 0)
(0.741004 -0.0428908 0)
(0.800055 -0.0407393 0)
(0.855363 -0.0367921 5.31466e-19)
(0.909531 -0.0279651 0)
(0.941903 -0.00634612 -3.62273e-19)
(0.00530041 -0.0558735 -3.53087e-23)
(0.0103516 -0.0589505 1.40174e-19)
(0.010328 -0.0456813 0)
(0.00755416 -0.0306098 -1.22938e-19)
(0.00258006 -0.0156947 0)
(-0.00425464 -0.00142312 0)
(-0.0126959 0.0119542 1.55124e-23)
(-0.0226321 0.0242748 5.38504e-20)
(-0.0340474 0.0354417 5.2814e-20)
(-0.046984 0.0453992 5.19658e-20)
(-0.0615074 0.0541724 0)
(-0.0776801 0.0618987 0)
(-0.0955333 0.0688032 -4.95849e-20)
(-0.115053 0.0751372 -9.75953e-20)
(-0.136186 0.0811221 9.6008e-20)
(-0.158846 0.0869123 0)
(-0.182926 0.0925854 9.28203e-20)
(-0.208301 0.0981526 -4.56446e-20)
(-0.234836 0.103579 0)
(-0.262392 0.108803 8.80639e-20)
(-0.290834 0.113754 4.32786e-20)
(-0.320029 0.118365 -8.49532e-20)
(-0.349853 0.122581 -4.17406e-20)
(-0.380192 0.126362 0)
(-0.410942 0.129686 8.04595e-20)
(-0.442009 0.132544 7.9022e-20)
(-0.473313 0.134943 0)
(-0.504786 0.136898 7.62537e-20)
(-0.536372 0.138436 0)
(-0.568027 0.139587 7.36384e-20)
(-0.599716 0.140388 3.6214e-20)
(-0.631415 0.140877 0)
(-0.663105 0.141091 0)
(-0.694777 0.141068 0)
(-0.726426 0.140843 0)
(-0.75805 0.14045 0)
(-0.789652 0.139918 0)
(-0.821239 0.139274 6.47346e-20)
(-0.852817 0.138541 -9.57027e-20)
(-0.884395 0.137739 0)
(-0.915981 0.136887 0)
(-0.947585 0.136 0)
(-0.979215 0.13509 6.29114e-23)
(-1.01088 0.134169 5.95621e-20)
(-1.04257 0.133247 1.17509e-19)
(-1.0743 0.13233 -1.16008e-19)
(-1.10604 0.131417 -5.72377e-20)
(-1.13779 0.130504 5.66072e-20)
(-1.16955 0.129583 -8.11705e-23)
(-1.2013 0.128647 5.51689e-20)
(-1.23304 0.127689 0)
(-1.26476 0.126703 5.38799e-20)
(-1.29644 0.125681 -8.99882e-23)
(-1.32807 0.12462 0)
(-1.35965 0.123511 0)
(-1.39115 0.122352 -5.14845e-20)
(-1.42256 0.121136 0)
(-1.45386 0.11986 0)
(-1.48504 0.11852 4.97236e-20)
(-1.51607 0.117113 9.85768e-20)
(-1.54693 0.115635 -4.88638e-20)
(-1.57761 0.114084 0)
(-1.60807 0.112457 4.78423e-20)
(-1.63829 0.110754 0)
(-1.66824 0.108973 4.66501e-20)
(-1.69791 0.107113 4.63609e-20)
(-1.72725 0.105174 -9.15588e-20)
(-1.75625 0.103155 -4.52037e-20)
(-1.78487 0.101057 0)
(-1.81308 0.0988805 8.87108e-20)
(-1.84086 0.0966267 0)
(-1.86817 0.0942966 1.30349e-19)
(-1.89498 0.0918921 8.59038e-20)
(-1.92126 0.0894149 8.49709e-20)
(-1.94697 0.0868672 -8.40371e-20)
(-1.97209 0.0842514 1.24737e-19)
(-1.99659 0.08157 0)
(-2.02042 0.0788259 0)
(-2.04356 0.076022 -8.0267e-20)
(-2.06598 0.0731612 -1.19038e-19)
(-2.08765 0.0702467 0)
(-2.10853 0.0672817 3.87514e-20)
(-2.12859 0.0642693 0)
(-2.1478 0.0612128 -1.13133e-19)
(-2.16613 0.0581152 -1.13939e-22)
(-2.18356 0.0549797 1.06066e-22)
(-2.20004 0.0518091 7.23012e-20)
(-2.21556 0.0486061 0)
(-2.23009 0.0453733 -7.0168e-20)
(-2.24359 0.0421129 -7.15986e-23)
(-2.25604 0.038827 0)
(-2.26742 0.0355173 0)
(-2.2777 0.0321856 0)
(-2.28685 0.0288335 6.45346e-20)
(-2.29487 0.0254628 0)
(-2.30173 0.0220762 0)
(-2.30741 0.0186779 0)
(-2.31192 0.0152748 0)
(-2.31524 0.0118774 0)
(-2.31737 0.00850175 5.6971e-20)
(-2.31832 0.00516916 0)
(-2.31806 0.00190026 5.41836e-20)
(-2.31654 -0.00131833 5.27573e-20)
(-2.31365 -0.00453182 -5.13082e-20)
(-2.30938 -0.00773335 0)
(-2.3037 -0.0109186 -4.83344e-20)
(-2.2966 -0.014084 0)
(-2.28804 -0.0172256 -4.52574e-20)
(-2.27803 -0.0203394 4.36804e-20)
(-2.26654 -0.0234212 1.26534e-19)
(-2.25356 -0.0264667 0)
(-2.23909 -0.0294717 1.16742e-19)
(-2.22312 -0.0324321 3.74927e-20)
(-2.20565 -0.0353438 0)
(-2.18667 -0.0382031 6.78132e-20)
(-2.16619 -0.0410064 6.43439e-20)
(-2.14421 -0.04375 -9.10144e-20)
(-2.12072 -0.0464305 0)
(-2.09574 -0.0490448 -2.65856e-20)
(-2.06928 -0.0515896 -2.47569e-20)
(-2.04135 -0.054062 -6.92779e-20)
(-2.01195 -0.0564589 0)
(-1.98111 -0.0587777 0)
(-1.94884 -0.0610158 0)
(-1.91515 -0.0631708 -1.59835e-20)
(-1.88008 -0.0652408 0)
(-1.84364 -0.0672237 0)
(-1.80585 -0.0691179 9.55205e-21)
(-1.76675 -0.0709218 7.59672e-21)
(-1.72635 -0.0726339 0)
(-1.6847 -0.0742531 0)
(-1.64182 -0.0757781 3.37641e-21)
(-1.59774 -0.0772081 0)
(-1.55251 -0.0785425 4.54528e-21)
(-1.50615 -0.0797812 7.73757e-21)
(-1.4587 -0.0809241 0)
(-1.4102 -0.0819714 0)
(-1.3607 -0.0829233 -1.9591e-20)
(-1.31023 -0.0837803 -8.09739e-22)
(-1.25884 -0.0845431 -8.16726e-22)
(-1.20656 -0.085213 0)
(-1.15344 -0.0857913 -7.13652e-20)
(-1.09953 -0.0862797 0)
(-1.04486 -0.0866798 0)
(-0.989487 -0.0869936 0)
(-0.93345 -0.0872233 5.14815e-20)
(-0.876793 -0.0873717 0)
(-0.81956 -0.0874415 -1.1632e-19)
(-0.761794 -0.0874356 -6.27119e-20)
(-0.703537 -0.0873571 0)
(-0.64483 -0.0872095 -7.00167e-20)
(-0.585715 -0.0869965 0)
(-0.526229 -0.0867217 0)
(-0.466411 -0.0863891 -2.40312e-19)
(-0.406295 -0.0860027 1.66572e-19)
(-0.345917 -0.0855667 0)
(-0.285309 -0.0850852 1.80114e-19)
(-0.224499 -0.0845621 -9.41762e-20)
(-0.163517 -0.0840011 0)
(-0.102389 -0.083405 0)
(-0.0411371 -0.0827766 0)
(0.0202147 -0.0821178 -3.17912e-19)
(0.0816456 -0.0814284 0)
(0.143137 -0.0807072 -1.1084e-19)
(0.204671 -0.0799537 0)
(0.266238 -0.079173 0)
(0.327836 -0.0783775 0)
(0.389486 -0.0775782 0)
(0.451184 -0.0767793 0)
(0.512906 -0.0759838 0)
(0.574624 -0.0751812 -2.45874e-19)
(0.636301 -0.0743453 0)
(0.697879 -0.0734303 -1.26654e-19)
(0.759252 -0.0723576 3.82944e-19)
(0.820251 -0.0709824 0)
(0.880521 -0.0690294 0)
(0.939731 -0.0659022 -2.62892e-19)
(0.996208 -0.0604632 -2.66727e-19)
(1.05262 -0.0498955 2.68926e-19)
(1.09684 -0.0280939 2.73909e-19)
(0.00136525 -0.0637574 -2.20964e-19)
(-0.00155457 -0.0547358 -2.05579e-19)
(-0.00808631 -0.0356432 -1.2504e-19)
(-0.0159422 -0.0167231 -5.78952e-20)
(-0.0251825 0.00125012 0)
(-0.0356379 0.0182042 1.04367e-19)
(-0.0472301 0.0341208 -5.03637e-20)
(-0.0599601 0.0489623 0)
(-0.0738672 0.0626857 -4.79861e-20)
(-0.0890106 0.075272 0)
(-0.105455 0.0867543 9.25216e-20)
(-0.123249 0.0972297 0)
(-0.14241 0.106845 4.4759e-20)
(-0.162909 0.115764 8.80136e-20)
(-0.184675 0.124129 -8.65026e-20)
(-0.207603 0.132037 0)
(-0.231563 0.139533 -8.34686e-20)
(-0.256415 0.146616 0)
(-0.282019 0.153254 0)
(-0.308238 0.159402 -7.89624e-20)
(-0.334946 0.165013 0)
(-0.362031 0.170048 8.40693e-24)
(-0.389397 0.174481 0)
(-0.416963 0.178304 0)
(-0.444661 0.181525 9.47563e-25)
(-0.472441 0.184163 -7.05371e-20)
(-0.500262 0.18625 -6.9249e-20)
(-0.528098 0.187827 -6.79869e-20)
(-0.55593 0.18894 0)
(-0.583749 0.189637 -1.31178e-19)
(-0.61155 0.189968 0)
(-0.639336 0.189983 -6.33396e-20)
(-0.667112 0.189728 0)
(-0.694886 0.189247 0)
(-0.722667 0.18858 6.02297e-20)
(-0.750466 0.187762 0)
(-0.778293 0.186824 -5.83261e-20)
(-0.80616 0.185795 -4.87397e-24)
(-0.834077 0.184696 1.13103e-19)
(-0.862052 0.183547 -1.11405e-19)
(-0.890093 0.182362 0)
(-0.918207 0.181154 0)
(-0.946397 0.179933 -5.33082e-20)
(-0.974665 0.178705 0)
(-1.00301 0.177475 -5.18887e-20)
(-1.03143 0.176242 5.11924e-20)