/*--------------------------------*- C++ -*----------------------------------*\
| =========                 |                                                 |
| \\      /  F ield         | OpenFOAM: The Open Source CFD Toolbox           |
|  \\    /   O peration     | Version:  2112                                  |
|   \\  /    A nd           | Website:  www.openfoam.com                      |
|    \\/     M anipulation  |                                                 |
\*---------------------------------------------------------------------------*/
FoamFile
{
    version     2.0;
    format      ascii;
    arch        "LSB;label=32;scalar=64";
    class       volScalarField;
    location    "0.045";
    object      k_0;
}
// * * * * * * * * * * * * * * * * * * * * * * * * * * * * * * * * * * * * * //

dimensions      [0 2 -2 0 0 0 0];

internalField   nonuniform List<scalar> 
12225
(
5.36279e-05
4.27871e-05
4.42358e-05
4.40987e-05
3.6375e-05
2.50611e-05
2.03678e-05
1.88993e-05
1.86425e-05
1.87605e-05
1.95523e-05
2.39185e-05
3.01523e-05
4.45675e-05
5.66061e-05
0.00014331
0.000224223
0.00150077
2.0342e-05
2.12787e-05
2.26713e-05
2.29785e-05
2.26514e-05
2.13338e-05
2.04306e-05
2.01247e-05
2.00551e-05
2.00566e-05
2.01155e-05
2.03957e-05
2.10545e-05
2.31642e-05
2.50828e-05
3.11681e-05
3.44695e-05
4.88162e-05
2.00277e-05
1.89219e-05
1.85548e-05
1.74692e-05
1.67835e-05
1.66404e-05
1.67045e-05
1.70621e-05
1.73923e-05
1.74864e-05
1.74739e-05
1.73126e-05
1.71286e-05
1.71067e-05
1.71219e-05
1.72184e-05
1.75438e-05
1.81621e-05
2.16216e-05
2.12324e-05
2.04029e-05
2.01398e-05
1.98541e-05
1.88419e-05
1.77495e-05
1.77306e-05
1.81639e-05
1.89176e-05
1.9292e-05
1.9426e-05
1.94312e-05
1.9355e-05
1.88143e-05
1.81991e-05
1.7948e-05
1.80545e-05
2.39054e-05
2.37853e-05
2.27923e-05
2.33518e-05
2.47931e-05
2.51304e-05
2.49156e-05
2.38882e-05
2.33393e-05
2.33156e-05
2.35944e-05
2.4064e-05
2.42448e-05
2.42622e-05
2.41498e-05
2.35062e-05
2.25554e-05
2.18632e-05
2.13169e-05
2.08624e-05
2.11415e-05
2.27162e-05
2.53386e-05
2.71819e-05
2.77429e-05
2.75025e-05
2.59661e-05
2.51538e-05
2.50971e-05
2.53053e-05
2.54379e-05
2.54221e-05
2.52437e-05
2.4429e-05
2.33164e-05
2.2485e-05
2.16398e-05
2.10763e-05
2.10307e-05
2.3069e-05
3.4548e-05
4.37913e-05
4.38514e-05
3.76275e-05
2.91111e-05
2.53982e-05
2.41205e-05
2.38205e-05
2.37841e-05
2.37764e-05
2.37389e-05
2.34999e-05
2.30096e-05
2.2763e-05
2.1537e-05
2.17479e-05
2.17341e-05
2.1928e-05
2.27235e-05
2.31348e-05
2.31305e-05
2.2772e-05
2.2414e-05
2.23854e-05
2.2619e-05
2.32856e-05
2.37441e-05
2.39998e-05
2.41655e-05
2.43232e-05
2.4486e-05
2.4513e-05
2.39669e-05
2.39026e-05
2.36347e-05
2.30291e-05
2.19248e-05
2.12228e-05
2.08894e-05
2.08442e-05
2.09012e-05
2.11999e-05
2.23438e-05
2.39584e-05
2.50599e-05
2.56879e-05
2.59702e-05
2.60489e-05
2.60422e-05
2.59333e-05
2.14146e-05
2.1503e-05
2.28662e-05
2.34976e-05
2.30189e-05
2.19421e-05
2.14391e-05
2.13304e-05
2.13479e-05
2.14941e-05
2.20619e-05
2.34514e-05
2.46128e-05
2.53891e-05
2.58191e-05
2.59858e-05
2.59919e-05
2.57911e-05
2.2901e-05
2.28515e-05
2.29214e-05
2.24747e-05
2.23355e-05
2.23391e-05
2.23629e-05
2.23937e-05
2.24617e-05
2.26735e-05
2.34192e-05
2.59333e-05
2.86805e-05
3.05274e-05
3.14147e-05
3.15975e-05
3.13353e-05
2.95845e-05
2.44312e-05
2.61418e-05
2.41434e-05
2.237e-05
2.20088e-05
2.19051e-05
2.18539e-05
2.18687e-05
2.19748e-05
2.24193e-05
2.40929e-05
3.03882e-05
3.71731e-05
4.0527e-05
4.15037e-05
4.14256e-05
3.99237e-05
3.50304e-05
2.57807e-05
2.33044e-05
2.26144e-05
2.31971e-05
2.3819e-05
2.39705e-05
2.3986e-05
2.40034e-05
2.41848e-05
2.45102e-05
2.49535e-05
2.62129e-05
2.93582e-05
3.21419e-05
3.38169e-05
3.43124e-05
3.42245e-05
3.32922e-05
2.05675e-05
2.05477e-05
2.06231e-05
2.13861e-05
2.19769e-05
2.21473e-05
2.22127e-05
2.23464e-05
2.28496e-05
2.38574e-05
2.40392e-05
2.40066e-05
2.39132e-05
2.38365e-05
2.38417e-05
2.40975e-05
2.52557e-05
2.61573e-05
2.15791e-05
2.0736e-05
2.0538e-05
2.12105e-05
2.27849e-05
2.3419e-05
2.42393e-05
2.57613e-05
2.66008e-05
2.66173e-05
2.60496e-05
2.43216e-05
2.31635e-05
2.27083e-05
2.26783e-05
2.29551e-05
2.46838e-05
2.73288e-05
2.01704e-05
2.05621e-05
2.08848e-05
2.06309e-05
2.06867e-05
2.15409e-05
2.57366e-05
3.64329e-05
4.19191e-05
4.21812e-05
3.88458e-05
3.06073e-05
2.64406e-05
2.5443e-05
2.56306e-05
2.71014e-05
3.08972e-05
3.31849e-05
2.03756e-05
2.11453e-05
2.13884e-05
2.12259e-05
2.15252e-05
2.4526e-05
2.91803e-05
3.00907e-05
2.9394e-05
2.6321e-05
2.44078e-05
2.41463e-05
2.4518e-05
2.65132e-05
2.91953e-05
3.05134e-05
3.07825e-05
3.07637e-05
2.03797e-05
2.20242e-05
2.18207e-05
2.11262e-05
2.10802e-05
2.12352e-05
2.18286e-05
2.23766e-05
2.24765e-05
2.24127e-05
2.24251e-05
2.27053e-05
2.3823e-05
2.45792e-05
2.47219e-05
2.46008e-05
2.39626e-05
2.31824e-05
2.14259e-05
2.22626e-05
2.21688e-05
2.18123e-05
2.1337e-05
2.1225e-05
2.12987e-05
2.16857e-05
2.18484e-05
2.18773e-05
2.19622e-05
2.21744e-05
2.22443e-05
2.22189e-05
2.19859e-05
2.14616e-05
2.11228e-05
2.09618e-05
2.10082e-05
2.08913e-05
2.06737e-05
2.05001e-05
2.04456e-05
2.0452e-05
2.05207e-05
2.07332e-05
2.1331e-05
2.21742e-05
2.28227e-05
2.31791e-05
2.32696e-05
2.32323e-05
2.29008e-05
2.2192e-05
2.17248e-05
2.14322e-05
2.23024e-05
2.32122e-05
2.29972e-05
2.21362e-05
2.15326e-05
2.13967e-05
2.14571e-05
2.19647e-05
2.31014e-05
2.36593e-05
2.38115e-05
2.38552e-05
2.39828e-05
2.47405e-05
2.59514e-05
2.63376e-05
2.62687e-05
2.54862e-05
2.06598e-05
2.23743e-05
2.33717e-05
2.34616e-05
2.29798e-05
2.25752e-05
2.27903e-05
2.47805e-05
2.63572e-05
2.62622e-05
2.50967e-05
2.46014e-05
2.4896e-05
2.67458e-05
3.08358e-05
3.35282e-05
3.42559e-05
3.38065e-05
2.31441e-05
2.33001e-05
2.19463e-05
2.1466e-05
2.14883e-05
2.18554e-05
2.36686e-05
2.5431e-05
2.56865e-05
2.56499e-05
2.57186e-05
2.61237e-05
2.67623e-05
2.69711e-05
2.69388e-05
2.64302e-05
2.47565e-05
2.36861e-05
2.18807e-05
2.36407e-05
2.30015e-05
2.1629e-05
2.13953e-05
2.16747e-05
2.28622e-05
2.3751e-05
2.53881e-05
2.89167e-05
3.16852e-05
3.24511e-05
3.22337e-05
3.1073e-05
3.03522e-05
3.02358e-05
3.0409e-05
3.14998e-05
2.11884e-05
2.19679e-05
2.22975e-05
2.35116e-05
2.47048e-05
2.46885e-05
2.40294e-05
2.34554e-05
2.35246e-05
2.44431e-05
2.52493e-05
2.50843e-05
2.40284e-05
2.36221e-05
2.37346e-05
2.47905e-05
2.92107e-05
4.70819e-05
2.08012e-05
2.04273e-05
2.19554e-05
2.35306e-05
2.36113e-05
2.30054e-05
2.2805e-05
2.33157e-05
2.72359e-05
3.62177e-05
3.92532e-05
3.89497e-05
3.56493e-05
3.29567e-05
3.33402e-05
3.96009e-05
6.17865e-05
7.48125e-05
2.00058e-05
1.9992e-05
2.01476e-05
2.10786e-05
2.18425e-05
2.18838e-05
2.14959e-05
2.10641e-05
2.09147e-05
2.07991e-05
2.06177e-05
2.01674e-05
1.94885e-05
1.89949e-05
1.88919e-05
1.93094e-05
2.03005e-05
2.07721e-05
2.00055e-05
1.78414e-05
1.71295e-05
1.69708e-05
1.61289e-05
1.46834e-05
1.37102e-05
1.32891e-05
1.32096e-05
1.32308e-05
1.33643e-05
1.39044e-05
1.4904e-05
1.54924e-05
1.57108e-05
1.57469e-05
1.57224e-05
1.54925e-05
2.03138e-05
2.07828e-05
2.07593e-05
2.06746e-05
2.07392e-05
2.0834e-05
2.07998e-05
2.05892e-05
2.05212e-05
2.06193e-05
2.12466e-05
2.40527e-05
2.86775e-05
3.10457e-05
3.17308e-05
3.17234e-05
3.15122e-05
3.15409e-05
3.53376e-05
4.07366e-05
3.56558e-05
2.96885e-05
2.78371e-05
2.71473e-05
2.57064e-05
2.34378e-05
2.28782e-05
2.34531e-05
2.79683e-05
4.13344e-05
5.01154e-05
5.33769e-05
5.39117e-05
5.39005e-05
5.35366e-05
5.4022e-05
0.130114
0.15486
0.133146
0.114965
0.111198
0.111562
0.108608
0.105595
0.106541
0.122918
0.125938
0.122876
0.114443
0.106145
0.100196
0.0957725
0.0920988
0.0896448
0.0876062
0.0857229
0.0847299
0.0838237
0.0830155
0.0829039
0.0830372
0.0832795
0.0837246
0.0841449
0.0848759
0.0867905
0.0878251
0.0895456
0.0942912
0.102531
0.176541
0.244498
0.222024
0.206555
0.20209
0.204298
0.184706
0.167711
0.164127
0.155106
0.15061
0.142742
0.14272
0.145027
0.162667
0.220995
0.2354
0.249993
0.332803
0.382473
0.259493
0.0908987
0.0462807
0.0348719
0.0340314
0.0365514
0.0364925
0.0280002
0.0165184
0.0120241
0.00780243
0.00574505
0.00498822
0.00482058
0.00484394
0.00482154
0.00470119
0.00452263
0.00432549
0.00412372
0.00396696
0.00387093
0.00376473
0.00363158
0.00353035
0.00343326
0.0033192
0.0031999
0.00310964
0.00304212
0.00296985
0.00293058
0.00290823
0.00286813
0.00284083
0.00283171
0.00282634
0.00282243
0.00281918
0.00279937
0.00277475
0.00276598
0.00274599
0.00272392
0.00271342
0.00269907
0.00269425
0.00268711
0.00268352
0.00268276
0.0026832
0.00268473
0.00268689
0.00268925
0.00269057
0.00268805
0.00268309
0.00267452
0.00266584
0.002655
0.00264254
0.00262755
0.00260975
0.00258999
0.00256749
0.00253959
0.00250255
0.00245321
0.00239278
0.00232028
0.00223546
0.00214106
0.00204395
0.00195989
0.00189832
0.00185362
0.00182202
0.00179925
0.00177746
0.00174918
0.00171559
0.00168323
0.00165411
0.00162158
0.00157103
0.00149076
0.00138472
0.00127643
0.0011926
0.00114353
0.00111713
0.00108953
0.00103708
0.00094451
0.000813103
0.000661553
0.000514456
0.000390652
0.000298898
0.00023767
0.000196703
0.00016481
0.00013572
0.00010748
8.10771e-05
5.83982e-05
4.07941e-05
2.83839e-05
2.02778e-05
1.52275e-05
1.2074e-05
1.00029e-05
8.48266e-06
7.263e-06
6.1817e-06
5.22547e-06
4.33451e-06
3.55984e-06
2.84938e-06
2.26268e-06
1.74067e-06
1.32934e-06
9.68105e-07
7.17401e-07
4.26672e-07
8.2129e-07
0.105336
0.117459
0.114623
0.115045
0.121675
0.121698
0.11874
0.11126
0.10053
0.084143
0.0727406
0.0651327
0.0599686
0.0566471
0.0543918
0.0527356
0.0514246
0.0506824
0.0498555
0.0489766
0.0485953
0.0478841
0.0471779
0.04685
0.0460143
0.0457874
0.0459602
0.0466475
0.0480151
0.050801
0.055484
0.059622
0.0699041
0.0787288
0.0979794
0.148206
0.184312
0.220845
0.297708
0.297624
0.230972
0.21702
0.216962
0.189829
0.151855
0.139539
0.136054
0.137395
0.150467
0.196217
0.222309
0.25744
0.249224
0.165711
0.0899968
0.0502699
0.0355697
0.0294246
0.0265543
0.0229311
0.0168496
0.0120323
0.0101006
0.00947286
0.00930279
0.00945951
0.00975622
0.00980768
0.00977081
0.00946842
0.009128
0.00872456
0.00799273
0.00734369
0.00702321
0.00673647
0.00643739
0.00617056
0.00591521
0.00567128
0.00549745
0.00533988
0.00515709
0.0050366
0.00487958
0.00467541
0.00451034
0.00436765
0.00420655
0.0040656
0.00394704
0.00385609
0.00376619
0.00368778
0.00363028
0.00360083
0.00356269
0.00353175
0.00349179
0.00346898
0.0034351
0.00341002
0.00337479
0.00334253
0.0033164
0.003292
0.003269
0.00325134
0.00324302
0.003232
0.00322877
0.00322545
0.00322433
0.00322393
0.00322238
0.00321688
0.00320301
0.00317849
0.00314552
0.00311068
0.00308123
0.0030633
0.00305986
0.0030694
0.00308377
0.00307776
0.00304062
0.00293214
0.00276141
0.0025685
0.00238658
0.00223516
0.00210394
0.00199068
0.00188989
0.00178981
0.00169347
0.00162289
0.00159348
0.00159192
0.00160555
0.00163398
0.00164222
0.00164098
0.00162302
0.00154026
0.00141272
0.00131949
0.00125735
0.00121714
0.0011921
0.00117943
0.00117564
0.00117396
0.00116846
0.00115141
0.00109424
0.000944563
0.000783512
0.00063925
0.000516154
0.000414837
0.000333684
0.000270331
0.000221522
0.00018478
0.000156953
0.000136042
0.000119112
0.000104939
9.15897e-05
7.90414e-05
6.68513e-05
5.51497e-05
4.50892e-05
3.49917e-05
2.81358e-05
1.96996e-05
1.65286e-05
9.9004e-06
0.103086
0.103509
0.106154
0.117738
0.116052
0.110705
0.0973585
0.0801625
0.0637481
0.0549472
0.0505667
0.0484704
0.0474518
0.0469118
0.0465606
0.0462322
0.0459864
0.0458633
0.0456154
0.0452626
0.0450614
0.0446744
0.0441599
0.0438202
0.0430744
0.0422051
0.0415167
0.0404111
0.0396991
0.0397342
0.0401978
0.0413822
0.0440443
0.0502668
0.0569535
0.0701056
0.0975318
0.129129
0.202136
0.260135
0.267351
0.284938
0.282995
0.249826
0.17362
0.142197
0.143548
0.155019
0.178694
0.189499
0.185743
0.13886
0.074011
0.0477732
0.0327373
0.0253161
0.021499
0.0186453
0.0165238
0.0140658
0.012682
0.0121791
0.0121082
0.0135114
0.0145618
0.0150552
0.0153363
0.0154722
0.0155128
0.0154226
0.0149376
0.0142586
0.0134906
0.0124444
0.0112208
0.00993132
0.00872251
0.00785899
0.00722227
0.00659201
0.00630657
0.00610034
0.00593904
0.00585773
0.00574196
0.00562538
0.00551043
0.0053418
0.0051023
0.00485155
0.00457744
0.00433948
0.00409147
0.00385449
0.00370476
0.00359722
0.00348334
0.00340665
0.00331955
0.00326568
0.00322145
0.00318626
0.00315839
0.00315249
0.00315641
0.00317396
0.00320505
0.0032446
0.00329298
0.00335048
0.00340706
0.00345748
0.0034977
0.00352768
0.00354583
0.0035506
0.00353712
0.00349044
0.00339872
0.00327228
0.00313784
0.00300636
0.00289734
0.00282758
0.00280538
0.00286639
0.00304554
0.003187
0.00322976
0.00321571
0.00309456
0.00274177
0.00233022
0.0019379
0.00162173
0.00139503
0.0012037
0.0010091
0.000849483
0.000776642
0.000769601
0.000784995
0.000853564
0.000965402
0.0010241
0.00103568
0.00102947
0.000990781
0.000879138
0.000776511
0.000707898
0.000675245
0.000668592
0.000672792
0.000701377
0.000726232
0.000728667
0.000721537
0.000692546
0.000610297
0.000514108
0.000428719
0.00035817
0.000302724
0.000258461
0.000222167
0.000192618
0.000167781
0.000147995
0.000131323
0.000118871
0.000107437
9.88372e-05
8.84307e-05
8.03358e-05
6.84564e-05
6.04837e-05
4.78074e-05
4.19362e-05
3.00931e-05
0.0708956
0.106059
0.110041
0.103515
0.0884864
0.0655091
0.0531902
0.0474873
0.0450826
0.0443301
0.0442313
0.0443121
0.0444641
0.0446719
0.0446626
0.044542
0.0444274
0.0443345
0.0441657
0.0439131
0.0435565
0.0431663
0.0426808
0.042087
0.0414143
0.0406203
0.03994
0.0395412
0.0389686
0.0377203
0.0367958
0.0367653
0.0371041
0.0384202
0.0412415
0.0454707
0.0558783
0.0698756
0.0890956
0.127865
0.189024
0.240866
0.249481
0.239401
0.183097
0.143104
0.148203
0.154545
0.147313
0.122203
0.0844536
0.0466227
0.028641
0.0219858
0.0190283
0.017581
0.0165981
0.0155017
0.0144788
0.0140415
0.0139119
0.0152225
0.0162728
0.0166464
0.0168379
0.0170116
0.0173354
0.0176479
0.0180372
0.0187672
0.0193367
0.019514
0.0195465
0.0194269
0.0189556
0.0180786
0.0168137
0.0150647
0.0129201
0.0109532
0.00921338
0.00803321
0.00747225
0.00695417
0.00655849
0.00635809
0.00620442
0.00607934
0.00592749
0.0057848
0.00563113
0.00544809
0.00525621
0.00497958
0.00465804
0.00436485
0.00414208
0.00387185
0.00374334
0.0036033
0.00354882
0.00353487
0.00353923
0.00359322
0.00370606
0.00383386
0.00398307
0.00412746
0.00426756
0.00439138
0.00450407
0.00461013
0.00470491
0.00478457
0.00484343
0.00487713
0.00488409
0.00486402
0.00479473
0.00464292
0.00436896
0.00397204
0.00351644
0.00310795
0.00273178
0.002442
0.00230545
0.00230505
0.00256874
0.00307644
0.00336805
0.00347137
0.00347667
0.00341284
0.00318123
0.00288469
0.00258578
0.00229908
0.00204131
0.00184033
0.00170512
0.0016208
0.00156828
0.00149345
0.00138707
0.00131565
0.00129553
0.00125234
0.00111534
0.0009822
0.000859784
0.000688722
0.000504029
0.00039037
0.000360837
0.000366162
0.00041924
0.000550305
0.000614387
0.000622223
0.000609467
0.000549035
0.000429428
0.000329405
0.000253392
0.000197372
0.000156958
0.000126813
0.000104979
8.86577e-05
7.79491e-05
6.99854e-05
6.50191e-05
6.00202e-05
5.56197e-05
4.98069e-05
4.38239e-05
3.75528e-05
3.11883e-05
2.66886e-05
0.0505109
0.050457
0.0470142
0.0448276
0.0429134
0.0420881
0.0414485
0.041022
0.041414
0.0419878
0.0423199
0.0425995
0.0426389
0.0426469
0.0425385
0.0427915
0.0430598
0.0431284
0.0429486
0.0424198
0.04169
0.0408535
0.039937
0.0389181
0.0378991
0.0367572
0.0354307
0.0347037
0.0343913
0.0336753
0.0327162
0.0323594
0.0324074
0.0327224
0.0336124
0.0352613
0.0388896
0.0456644
0.0537189
0.0673857
0.0867166
0.134484
0.166875
0.165908
0.140069
0.128087
0.135195
0.113669
0.0846609
0.060247
0.0335242
0.0200579
0.0149125
0.0133793
0.0130229
0.0132672
0.0136929
0.0140377
0.0145144
0.0152348
0.0164606
0.0169081
0.0170187
0.017005
0.0169928
0.0170232
0.0170919
0.0173291
0.0180286
0.0191113
0.0200944
0.0205922
0.0207191
0.0207348
0.0207165
0.0206357
0.0204453
0.0200827
0.0194692
0.0185372
0.017198
0.0153945
0.0131506
0.0112616
0.00997119
0.00844355
0.00767629
0.00722597
0.00666419
0.00638215
0.00611178
0.00590819
0.00575607
0.00556136
0.00542211
0.00527441
0.00510436
0.00494374
0.00482297
0.00472845
0.00462743
0.00457328
0.00453069
0.00451451
0.00453009
0.0045482
0.00457097
0.00460209
0.00465339
0.00471775
0.0047946
0.00488734
0.00498849
0.00508397
0.00515962
0.00520634
0.00522429
0.00522438
0.00521413
0.00518418
0.00511884
0.00498295
0.00469098
0.00426368
0.0038547
0.00329806
0.00259964
0.00202869
0.00175291
0.00170089
0.0018303
0.00245532
0.00302511
0.00326317
0.0033077
0.00327589
0.0030788
0.00271306
0.00237302
0.00206905
0.00182192
0.00164492
0.00154129
0.00149904
0.0014964
0.00153288
0.00163965
0.00169747
0.00170039
0.00167872
0.0015754
0.00124681
0.000938875
0.000730378
0.00058062
0.000498637
0.000493873
0.000544394
0.000749895
0.000942045
0.00100448
0.00100138
0.000932824
0.000691314
0.000480131
0.000351795
0.00026241
0.000192403
0.00013622
9.52789e-05
6.80485e-05
5.26557e-05
4.48558e-05
4.19454e-05
4.06064e-05
3.92902e-05
3.64851e-05
3.17812e-05
2.67143e-05
2.06704e-05
0.0374431
0.0397164
0.0398499
0.040021
0.0394964
0.0393142
0.0386374
0.038158
0.0376007
0.0374339
0.0377305
0.0383522
0.0393646
0.0406875
0.0418759
0.0429419
0.0441216
0.0455245
0.046487
0.046812
0.0465629
0.0457708
0.0448731
0.0435492
0.0416955
0.0393854
0.0368607
0.0342725
0.0321153
0.0306601
0.0294636
0.0288062
0.0287599
0.0288608
0.0291817
0.0298863
0.0312576
0.03402
0.0390941
0.0456562
0.0536834
0.0700396
0.106006
0.120298
0.116275
0.119853
0.114814
0.0734211
0.049311
0.0289417
0.0161266
0.0111187
0.00960089
0.00932191
0.00960407
0.0106063
0.0118621
0.0132213
0.0143431
0.0156452
0.0167188
0.0169558
0.0169795
0.0169342
0.0167406
0.0164492
0.0163987
0.0168613
0.0185088
0.0203486
0.0208494
0.0208716
0.0208132
0.0207663
0.0207037
0.0206207
0.0205242
0.0204023
0.0201993
0.0199043
0.0194857
0.0189397
0.0182638
0.0175051
0.0165594
0.0153837
0.0140383
0.0126251
0.0111623
0.00982789
0.00861237
0.00763649
0.006996
0.00644091
0.00604062
0.00575857
0.00550438
0.00533756
0.00522292
0.00512364
0.00502
0.00492832
0.00482856
0.00474212
0.00466929
0.00461448
0.00457734
0.00454786
0.00452666
0.00452203
0.00453792
0.00459431
0.00471255
0.00487758
0.00504124
0.0051481
0.00519962
0.00521073
0.00520704
0.00519065
0.00515276
0.00508059
0.00493763
0.00460771
0.00415514
0.00386693
0.00358285
0.00302557
0.00222203
0.00155892
0.00122374
0.00114085
0.00118655
0.00155463
0.00232685
0.00276809
0.00291668
0.00291989
0.00281347
0.00242797
0.00203667
0.00175319
0.00156674
0.00146848
0.00143826
0.0014444
0.00151132
0.00168144
0.00184091
0.00192459
0.00193317
0.00190364
0.00174999
0.00132232
0.000951907
0.000724791
0.000633084
0.000628813
0.000681776
0.000908425
0.00113881
0.00122868
0.00123466
0.00119171
0.000973013
0.000657459
0.000466118
0.000365371
0.0003076
0.000263512
0.00022495
0.000191493
0.000164482
0.000143527
0.00012921
0.000115922
0.000104144
8.49795e-05
7.05952e-05
4.64184e-05
0.0385933
0.0395112
0.0386347
0.0371604
0.0339607
0.0313736
0.0305446
0.0304661
0.0311178
0.0325571
0.0338389
0.0356386
0.0375878
0.0395849
0.0415011
0.0435589
0.0458971
0.0490613
0.0529425
0.0576037
0.0624271
0.0669314
0.0699887
0.0709515
0.0698541
0.0648381
0.0578447
0.0503077
0.0421334
0.0347465
0.0306029
0.0285915
0.027565
0.0271774
0.027163
0.0272916
0.0277054
0.0286894
0.0309549
0.0348935
0.0392326
0.0471622
0.0710747
0.0919097
0.0962419
0.113938
0.0974951
0.0495539
0.0289474
0.0156326
0.00960269
0.00762371
0.00717089
0.00714527
0.00763896
0.00855754
0.00989948
0.0116289
0.0135435
0.0152263
0.0163123
0.0165281
0.0164079
0.0157575
0.0145973
0.014234
0.0145632
0.0171764
0.0210324
0.0217672
0.0215299
0.0208499
0.0201226
0.0194531
0.0188496
0.0183468
0.0179766
0.0177853
0.0176655
0.017629
0.0176594
0.017728
0.0177334
0.0176164
0.0174251
0.0171282
0.0166938
0.0161517
0.0155147
0.0147939
0.0139541
0.0129591
0.0117977
0.0104485
0.00915394
0.00801145
0.0070421
0.0063599
0.00594171
0.00564428
0.00542567
0.00524505
0.00508782
0.00492953
0.00478462
0.00465753
0.00455306
0.00447141
0.00441211
0.00437826
0.00436634
0.00436793
0.0043858
0.0044432
0.00458216
0.00477348
0.00492269
0.00498802
0.00500014
0.00499847
0.00498622
0.00496489
0.00491394
0.00474956
0.00428698
0.00379486
0.00359158
0.00343104
0.00311355
0.00246951
0.00167395
0.00107278
0.000767698
0.000692244
0.00071065
0.000884642
0.00158464
0.00223787
0.00248731
0.00251015
0.00240252
0.00199225
0.00164823
0.0014588
0.00137566
0.00135869
0.00137874
0.00151832
0.00173158
0.00188756
0.00198545
0.00200855
0.00198965
0.00185848
0.00141099
0.000965959
0.000716946
0.000637944
0.000640346
0.000716671
0.000986082
0.00120282
0.0012957
0.0013083
0.00128248
0.00113708
0.000798651
0.000533713
0.000358327
0.000257912
0.000210155
0.000185887
0.000171894
0.000158689
0.000151205
0.000143433
0.000138814
0.000128412
0.000119421
9.74646e-05
0.0384798
0.0374202
0.0316341
0.0277889
0.0263859
0.025217
0.0239174
0.0230661
0.0226663
0.0225128
0.0230041
0.0247295
0.0269962
0.0302083
0.0336504
0.0378078
0.0420908
0.0469775
0.0527596
0.0594012
0.0670277
0.0757566
0.0860063
0.0974758
0.108369
0.115344
0.114863
0.106157
0.0903741
0.0695398
0.0484337
0.0361418
0.0303993
0.0279971
0.0271689
0.0269468
0.0269825
0.0272749
0.0283588
0.0316981
0.0347131
0.0395576
0.0571867
0.0724581
0.0889073
0.109398
0.0822858
0.0347859
0.0180705
0.00997405
0.00696567
0.00614831
0.00601714
0.00616178
0.00656872
0.00719687
0.00814782
0.0093936
0.0109111
0.0127205
0.0139403
0.0142255
0.0141651
0.0142798
0.0148461
0.0161369
0.0202238
0.0234852
0.0237717
0.0227806
0.0207469
0.0186112
0.016356
0.0142845
0.0124975
0.0111864
0.0101693
0.00964435
0.00922041
0.00904904
0.00901853
0.00951027
0.00999645
0.0108232
0.0117025
0.0126785
0.0135689
0.0142489
0.0145779
0.0146962
0.0145891
0.0143345
0.0139061
0.0132954
0.0125881
0.0117933
0.0108205
0.00969163
0.008516
0.00750854
0.00672427
0.00616482
0.00577358
0.00548376
0.00523139
0.00500005
0.00479656
0.00463624
0.00452282
0.00445156
0.00441205
0.00439278
0.00438682
0.00439192
0.00442492
0.00451571
0.00460284
0.00465063
0.00466526
0.00465728
0.00462591
0.00461502
0.00462474
0.00461448
0.00444448
0.00378246
0.0031852
0.00302234
0.00298276
0.00288618
0.00255185
0.00180231
0.00110553
0.000658884
0.000466187
0.000434378
0.00047075
0.000723757
0.00152906
0.00206173
0.00219717
0.00216401
0.00189257
0.00154523
0.00137195
0.00130491
0.0012951
0.00132536
0.00150101
0.00175352
0.00191795
0.00199466
0.00200184
0.00195231
0.00166958
0.00112229
0.000759203
0.000594777
0.000561383
0.000573016
0.000676179
0.000992033
0.00120868
0.0012999
0.00131861
0.00130562
0.00121573
0.000906197
0.000578593
0.000355315
0.000227986
0.00017985
0.000162946
0.000150619
0.000144499
0.000139124
0.000136409
0.000130944
0.000126481
0.000116032
0.0370777
0.0318549
0.0257943
0.022958
0.0180319
0.0142343
0.0126796
0.0116249
0.0111277
0.0108858
0.0108214
0.0111627
0.0116659
0.0126318
0.0141618
0.0166314
0.020686
0.0260137
0.0338916
0.044099
0.0567431
0.0701264
0.0848265
0.10041
0.116133
0.131033
0.141449
0.145987
0.145497
0.139493
0.118062
0.0782401
0.0505916
0.0366248
0.0306085
0.0283184
0.0276596
0.0277191
0.0286323
0.0319678
0.0345844
0.0386143
0.0519534
0.0629295
0.0882119
0.104505
0.0698251
0.0254669
0.0124364
0.00740295
0.00583933
0.00551318
0.00553307
0.0057547
0.00608577
0.006543
0.00721588
0.00810213
0.0091598
0.0104388
0.0117482
0.0129079
0.0140585
0.0153632
0.0182309
0.0244349
0.0271262
0.027297
0.0251222
0.0199622
0.015058
0.0111868
0.00741447
0.00517044
0.00381547
0.00314291
0.00257062
0.00228404
0.00204159
0.00191843
0.00186611
0.00187772
0.00196432
0.0021564
0.00245407
0.00291704
0.00357783
0.00451765
0.00582617
0.00728859
0.00880318
0.0102244
0.0113929
0.0120671
0.0122312
0.0120782
0.0116556
0.0110354
0.0102924
0.00949021
0.00866018
0.00783033
0.00707974
0.00645562
0.00597549
0.00561554
0.00533801
0.00511371
0.00493159
0.00479124
0.0046951
0.00463786
0.00460507
0.00457974
0.00455449
0.00454475
0.00456205
0.00457144
0.00456217
0.00452489
0.00443186
0.00435194
0.00430275
0.00427357
0.0042156
0.00389974
0.00296043
0.00240414
0.00229421
0.00232851
0.00237033
0.00230747
0.00188158
0.00112594
0.000626597
0.000383997
0.000323326
0.000342728
0.000530111
0.00127517
0.00187411
0.00202917
0.00199932
0.00174226
0.00142487
0.00127791
0.00123105
0.0012302
0.0012827
0.00153644
0.00183505
0.00197982
0.00201382
0.00199216
0.00182102
0.0012867
0.000830902
0.000588059
0.000503947
0.000493879
0.000512797
0.000633886
0.000960427
0.00117599
0.00126268
0.00127776
0.00126568
0.00118514
0.00089767
0.00057026
0.000350509
0.000231716
0.000184499
0.000158016
0.000141687
0.000131987
0.000128731
0.000125361
0.000122577
0.000116596
0.0351759
0.0276189
0.0198387
0.0145377
0.012027
0.0107934
0.00955444
0.0089189
0.0086176
0.00828663
0.00805745
0.00793972
0.00773785
0.00731898
0.00703171
0.00689686
0.00670551
0.00693666
0.00846288
0.0116651
0.0182314
0.0312189
0.0508561
0.0769957
0.103145
0.126674
0.142126
0.150887
0.15538
0.15689
0.156152
0.14916
0.119838
0.0775706
0.0514773
0.0387454
0.033108
0.031312
0.0316414
0.0336421
0.0355191
0.0391564
0.0488504
0.0595093
0.0907395
0.100696
0.0595835
0.0195717
0.00935604
0.00616814
0.00534423
0.00523824
0.00534785
0.00559145
0.0059183
0.00636187
0.0070137
0.00790599
0.00900839
0.0104004
0.0121026
0.0142645
0.0175318
0.0229995
0.0266368
0.0275501
0.0260231
0.0231284
0.0161292
0.00884018
0.00558338
0.00315374
0.00221647
0.00159173
0.00117561
0.000932815
0.000763597
0.000662687
0.000606775
0.000565538
0.000544397
0.000532135
0.000523948
0.000516869
0.000513832
0.000527375
0.000564984
0.00064337
0.000787126
0.00102773
0.00141007
0.00199356
0.00288318
0.00419878
0.00581637
0.00737326
0.00867845
0.00947706
0.00962773
0.00939743
0.0088646
0.0082177
0.00754418
0.00692165
0.00639286
0.00596613
0.00564005
0.00539742
0.00521427
0.00506687
0.00494746
0.00485381
0.00478393
0.00472794
0.00467755
0.00463582
0.00460623
0.00458123
0.0045479
0.00447592
0.00435276
0.00424502
0.00415239
0.00402345
0.00386631
0.00358812
0.00284657
0.00205553
0.00169754
0.00165134
0.00172871
0.00185058
0.00184651
0.00164714
0.00101602
0.000548908
0.00033429
0.000286096
0.00031656
0.0005765
0.00138516
0.00186175
0.00195305
0.0018894
0.00156486
0.00129148
0.0011892
0.00117326
0.0011979
0.00136947
0.00172996
0.00192911
0.00197905
0.00196046
0.00179899
0.00128873
0.000841353
0.00057743
0.000455739
0.000420618
0.000420975
0.000453922
0.000629401
0.000921292
0.00108242
0.00114077
0.00114618
0.00112399
0.00101343
0.000728083
0.00047534
0.00030437
0.000214108
0.000170438
0.000147036
0.000131467
0.000123527
0.000117091
0.000113795
0.000110879
0.0338863
0.023462
0.0152932
0.012122
0.0107118
0.00975934
0.00903727
0.00876049
0.00859675
0.00857091
0.00869455
0.00875093
0.00862437
0.00785081
0.00699005
0.00651098
0.00524341
0.00434111
0.00377767
0.00349596
0.00431146
0.00665364
0.0121649
0.023962
0.0498162
0.0867134
0.118207
0.137106
0.148427
0.155036
0.158027
0.158052
0.153063
0.134928
0.106808
0.0812016
0.0630541
0.0524245
0.0450255
0.0413776
0.0409281
0.0422253
0.0479014
0.0593491
0.0947646
0.0975768
0.0505717
0.0156534
0.00765734
0.00555169
0.00513537
0.0051328
0.0052768
0.0055405
0.00590292
0.00640581
0.0071978
0.00839178
0.0100964
0.0127401
0.0171329
0.0240994
0.0276894
0.0284428
0.027008
0.0249787
0.0178857
0.010384
0.00511342
0.00302612
0.00198126
0.0012718
0.000955184
0.000707756
0.000598291
0.000515657
0.00047997
0.000460252
0.000458672
0.000468104
0.000486682
0.000498674
0.000500653
0.000477125
0.000431274
0.000376499
0.000319983
0.000271957
0.000238532
0.000217822
0.000221941
0.000263992
0.000355834
0.00051302
0.000772024
0.00118329
0.0018329
0.00284394
0.00420371
0.00546754
0.00639916
0.00685554
0.00684905
0.00656287
0.00621933
0.00589033
0.0056092
0.00539115
0.00522679
0.00509513
0.00498285
0.00488434
0.00480102
0.00472838
0.00466264
0.00460526
0.00456632
0.0045339
0.00448676
0.00439128
0.00420951
0.00404106
0.00391562
0.00368768
0.0033367
0.00295073
0.0024438
0.00181279
0.00132358
0.00112881
0.00111882
0.00122285
0.00138127
0.00139584
0.00128329
0.000820068
0.000438887
0.000293248
0.000279113
0.000355318
0.000839238
0.00158555
0.00187391
0.00188957
0.00173901
0.00135537
0.00116599
0.00112523
0.00114562
0.00130984
0.0016234
0.00178962
0.00182665
0.00180408
0.00164296
0.00118196
0.000789056
0.00054032
0.000408803
0.000353942
0.000341529
0.00034584
0.000390872
0.000549526
0.000693939
0.000770948
0.000801707
0.000805742
0.000791152
0.000713338
0.000518945
0.000348016
0.000236519
0.000176979
0.000147694
0.000131132
0.000121529
0.000113419
0.000105774
0.000102287
0.0321953
0.0195209
0.0137869
0.0118836
0.0110461
0.0107569
0.010832
0.0118812
0.0130173
0.0141873
0.015234
0.015627
0.0153345
0.0135195
0.0119219
0.0105304
0.00734015
0.00562253
0.00370073
0.00260069
0.00214415
0.00197752
0.00284365
0.00553397
0.0121075
0.0273563
0.0624569
0.0986987
0.119663
0.133798
0.143008
0.148266
0.149478
0.144591
0.129792
0.111447
0.0929284
0.0767215
0.0641367
0.0555409
0.0486823
0.0456439
0.0488741
0.0613636
0.0975353
0.0943581
0.0423313
0.0129392
0.00666911
0.00525786
0.00505937
0.00510092
0.00526278
0.00555587
0.00603277
0.0068649
0.00842522
0.0112064
0.0159512
0.0246853
0.0328458
0.0321056
0.030165
0.0270593
0.0217099
0.0138873
0.00687716
0.00389277
0.00214972
0.00144097
0.001007
0.000760144
0.000645672
0.00055343
0.000515134
0.000506985
0.000527276
0.000615294
0.000777453
0.00097788
0.00117684
0.00131357
0.00137369
0.00131786
0.0011522
0.000933303
0.000697798
0.000487175
0.000324077
0.000215347
0.000151808
0.000119129
0.000104352
0.000101011
0.000116642
0.000157243
0.000231058
0.000354316
0.000555666
0.000868702
0.00133754
0.00200395
0.00282414
0.00354845
0.00408885
0.00444583
0.00461614
0.0046808
0.00471689
0.00472779
0.00471476
0.00467932
0.00462946
0.00455812
0.00445954
0.00436713
0.00431735
0.00426634
0.00418813
0.00408799
0.0038594
0.00352419
0.00318415
0.00278383
0.00238109
0.00207649
0.00181975
0.00148604
0.00110757
0.000837863
0.000742316
0.000743871
0.000836638
0.000977722
0.00099482
0.000916262
0.000590984
0.000341517
0.000276211
0.000296869
0.000513421
0.0012495
0.00173427
0.00184356
0.00179435
0.00148096
0.00116798
0.0010677
0.00106905
0.0011717
0.00148019
0.00164075
0.00166562
0.0016419
0.00150308
0.00113597