/*--------------------------------*- C++ -*----------------------------------*\
| =========                 |                                                 |
| \\      /  F ield         | OpenFOAM: The Open Source CFD Toolbox           |
|  \\    /   O peration     | Version:  2112                                  |
|   \\  /    A nd           | Website:  www.openfoam.com                      |
|    \\/     M anipulation  |                                                 |
\*---------------------------------------------------------------------------*/
FoamFile
{
    version     2.0;
    format      ascii;
    arch        "LSB;label=32;scalar=64";
    class       volScalarField;
    location    "0.33";
    object      ddt0(omegaU);
}
// * * * * * * * * * * * * * * * * * * * * * * * * * * * * * * * * * * * * * //

dimensions      [0 0 -2 0 0 0 0];

internalField   nonuniform List<scalar> 
12225
(
-63.6062
-146.902
83.8179
1096.46
3029.97
5641.26
8634.55
11751.5
14677.3
17022.3
18350
18111.6
15619.6
9951.88
-227.104
-16456.9
-42814.4
-74040.4
-144.133
-804.827
-2117.11
-3782.54
-5435.21
-6944.17
-8327.75
-9552.9
-10435.2
-10712.7
-10137.9
-8461.06
-5443.39
-785.87
5980.15
15650
30823.2
59791.9
-12.4567
-168.4
-670.001
-1622.9
-2920.4
-4421.79
-6025.68
-7681.88
-9310.38
-10790
-11982.8
-12676.4
-12580.7
-11318.7
-8324.31
-2588.14
7437.48
23233.9
-0.557978
-22.5522
-119.743
-362.717
-791.235
-1394.18
-2161.93
-3074.66
-4115.99
-5223.29
-6288.09
-7160.22
-7648.77
-7503.18
-6305.35
-3377.13
2286.06
12536.7
-0.109552
-2.83544
-17.6894
-61.7572
-154.053
-304.915
-522.529
-807.934
-1150.86
-1550.59
-1986.69
-2423.71
-2729.94
-2869.2
-2686.89
-1947.73
-306.626
2696.03
-0.045434
-0.629773
-2.75423
-9.40434
-25.1878
-54.865
-102.645
-171.431
-259.508
-365.457
-481.666
-593.765
-733.629
-838.03
-871.025
-775.617
-471.494
139.236
-0.00105468
-0.325774
-0.811711
-1.67041
-3.59627
-7.61514
-14.9721
-27.0163
-44.6446
-68.0601
-95.8671
-124.185
-161.959
-193.814
-212.786
-209.412
-170.41
-79.0698
0.0274701
-0.223847
-0.528062
-0.704905
-0.682255
-0.472146
-0.207121
-0.195629
-0.825169
-2.46936
-5.37722
-9.47504
-14.7557
-20.0617
-24.1056
-25.3284
-21.6151
-9.67874
0.0459086
-0.155228
-0.432551
-0.585601
-0.439589
0.165445
1.33606
3.07074
5.27785
7.82224
10.538
13.2944
15.9075
18.2593
20.4445
22.8332
26.0853
31.497
0.0566442
-0.0999369
-0.359168
-0.54516
-0.47925
0.0160916
1.08774
2.81297
5.19869
8.20584
11.7702
15.8414
20.3394
25.1681
30.3402
36.0317
42.6461
50.9292
0.0615288
-0.0578546
-0.293644
-0.499284
-0.509235
-0.151819
0.72971
2.24784
4.46648
7.41447
11.1037
15.5566
20.8023
26.8892
33.939
42.1731
51.9897
63.9547
0.0625164
-0.0308344
-0.239115
-0.442894
-0.497089
-0.243418
0.475392
1.79228
3.81017
6.61052
10.2659
14.859
20.492
27.2985
35.4689
45.2527
57.0237
71.3034
0.052946
-0.0130205
-0.180946
-0.361322
-0.43337
-0.256284
0.321186
1.44318
3.24022
5.83384
9.34446
13.9026
19.6578
26.7877
35.5093
46.0665
58.7955
73.9241
0.0360763
5.50952e-05
-0.116202
-0.257567
-0.330135
-0.215406
0.223943
1.13332
2.66084
4.9586
8.18566
12.5116
18.1192
25.2074
33.9915
44.6669
57.4777
72.6718
0.0289776
0.0106842
-0.0620238
-0.1597
-0.220386
-0.154794
0.150659
0.828267
2.02635
3.9097
6.65901
10.4677
15.5367
22.0479
30.2025
40.1895
52.1956
66.3591
0.021891
0.0147112
-0.0179182
-0.061715
-0.0861383
-0.0346332
0.172838
0.637304
1.48149
2.85216
4.91987
7.86279
11.8798
17.1784
23.927
32.2639
42.3161
54.1594
0.0113643
0.0123197
0.01111
0.0166907
0.0422216
0.115074
0.276612
0.581708
1.10175
1.92896
3.17999
5.00453
7.55963
11.0092
15.5018
21.1526
28.0592
36.2717
-0.000209545
0.00895622
0.0309605
0.0764013
0.153655
0.267278
0.426217
0.641879
0.929757
1.31358
1.83074
2.53861
3.51814
4.86905
6.69487
9.08078
12.0775
15.6917
-0.0105976
0.00769281
0.0582492
0.149698
0.284057
0.448712
0.629275
0.806494
0.956644
1.05315
1.06966
0.987294
0.807117
0.567092
0.364096
0.338781
0.554948
0.950701
-0.0161136
0.0132173
0.104578
0.25497
0.446399
0.652839
0.8422
0.976937
1.01741
0.925032
0.664167
0.202538
-0.491166
-1.44599
-2.65429
-4.02387
-5.44848
-6.92334
-0.0174911
0.0313759
0.165424
0.364787
0.589752
0.796466
0.935391
0.953807
0.802368
0.440146
-0.162976
-1.02978
-2.18901
-3.69153
-5.6579
-8.30555
-11.3255
-14.3288
-0.0188084
0.0594527
0.231441
0.45211
0.664651
0.808998
0.816945
0.617319
0.142782
-0.667119
-1.86429
-3.49201
-5.57803
-8.0913
-11.0111
-14.6759
-18.832
-22.7217
-0.0135494
0.0935409
0.282076
0.481608
0.622904
0.628146
0.400264
-0.16163
-1.14814
-2.62774
-4.62134
-7.07803
-9.85706
-12.6628
-15.0352
-16.7454
-17.584
-15.4996
-0.000685463
0.132276
0.318084
0.473585
0.54725
0.50291
0.329633
0.0993728
-0.00893323
0.310405
1.54208
4.38022
9.70366
18.5637
32.0613
50.7923
75.8592
113.548
0.019003
0.189166
0.453028
0.98525
2.3407
5.48094
11.7522
22.847
40.5331
66.7284
103.284
151.83
213.605
289.433
379.916
479.965
593.992
727.383
0.0509961
0.487925
2.63145
9.88232
28.439
66.6462
133.139
235.473
374.877
556.857
782.853
1052.39
1363.63
1714.51
2104.83
2509.45
2956.36
3439.96
0.20816
5.05233
29.7055
98.9556
255.015
541.665
985.262
1588.69
2322.35
3194.37
4190.49
5296.13
6499.75
7795.46
9195.78
10748.4
12423.9
14261.7
4.81162
60.8257
255.487
714.813
1621.79
3049.95
4909.39
7048.67
9378.17
11776.6
14198.2
16618.9
19032.1
21452.1
23926.1
26509.2
29251.7
32244.1
91.2564
483.897
1345.73
2875.48
5135.3
7944.06
10880.1
13616.7
16069.9
18229.7
20122.7
21763.8
23161.3
24335.2
25343.6
26242.6
27086.5
27979.1
27.4985
-3.01473
-256.689
-908.027
-2298.83
-4839.09
-8669.24
-13585.7
-19293.6
-25542
-32120
-38867.2
-45688.6
-52539.5
-59451.6
-66538.8
-73928.4
-81812.5
24930.8
26478.4
31871.4
39346.3
49221.2
60097.3
70634.7
80865.7
91057.7
101544
112614
124481
137193
150536
164306
178733
194203
210850
228481
246716
265166
283533
301602
319182
336047
351964
367427
393196
430672
475776
527696
581800
632541
674652
703014
712813
701068
667964
615875
547203
463439
365390
253263
127570
-6653.52
-136470
-242490
-300761
-286549
-189798
-53902.3
30594.2
29313.4
46144.5
221401
244392
-197431
-1.33343e+06
-2.75145e+06
-3.59309e+06
-2.70037e+06
-2.49901e+06
-2.19711e+06
-1.82689e+06
-1.42362e+06
-1.01987e+06
-641613
-307170
-19164.6
222383
416794
564103
671465
748698
804779
844457
803748
770228
747969
733424
725022
721589
722056
726067
732684
740952
749214
756102
760173
757158
744523
720906
684383
633400
566888
484426
386261
272559
143430
2662.94
-145350
-305756
-397590
-503146
-600077
-683362
-751114
-808791
-858667
-898690
-927564
-952031
-970545
-981792
-986039
-977201
-924238
-718019
-486527
-292075
-106497
79382.4
264797
428251
529223
525721
405243
216108
54956.3
-54492.9
160074
711603
1.14386e+06
918470
-390893
-2.33118e+06
-3.49258e+06
-3.01986e+06
-2.55559e+06
-1.87238e+06
-1.10269e+06
-310255
434192
1.07659e+06
1.64656e+06
1.8065e+06
1.84896e+06
1.74773e+06
1.49549e+06
1.0928e+06
541895
-138868
-989427
-1.48059e+06
-2.00652e+06
-2.43415e+06
-2.74169e+06
-2.91714e+06
-2.96483e+06
-2.89679e+06
-2.73092e+06
-2.47944e+06
-2.14523e+06
-1.75397e+06
-1.18879e+06
-506743
79522.8
610736
1.09568e+06
1.52406e+06
1.86861e+06
2.1019e+06
2.21138e+06
2.199e+06
2.09151e+06
1.95269e+06
1.85519e+06
1.82291e+06
1.78674e+06
1.62173e+06
93807.2
83816.1
85162
88316.3
90250.4
90407.8
89354.4
87296.3
84399.6
81016.5
77446
73880.7
70504.1
67330.1
64223.4
61181.5
58302.6
55691.7
53438.5
51571.6
50046.7
48793.9
47658.2
46481
45071.8
43077.2
39475.4
24720.5
2754.02
-16103
-25911.6
-20684.8
2788.46
44250.7
100537
166085
233553
294970
343294
374184
386293
380352
357533
316983
254015
162564
43134.9
-88866.1
-200882
-257510
-257139
-263342
-385808
-795161
-1.52315e+06
-2.01046e+06
-1.95546e+06
-1.36005e+06
-1.06217e+06
-655126
-197411
171506
504894
786023
1.00037e+06
1.13814e+06
1.19869e+06
1.20744e+06
1.15066e+06
1.03856e+06
883195
702452
516392
341332
189406
57063.4
47960.5
41308.3
35740.2
30497.1
25120.1
19439.5
13414.9
7021.41
300.803
-6742.11
-14452.4
-23686.1
-34591.1
-39442.3
-40433.6
-40216.5
-38788
-36192
-32550.6
-28056.1
-22939.7
-17434.6
-11505.6
-4478.04
3134.98
5016.99
6107.11
8780.97
9184.73
8068.19
5929.01
2576.61
-3523.19
-19313.6
-51883.7
-73634.9
-90622.2
-113371
-149193
-207511
-307979
-504542
-663287
-680999
-626622
-530580
-390239
-197564
40690.2
286438
459913
447728
185345
-142124
-572084
-1.11502e+06
-1.51447e+06
-1.78341e+06
-1.68991e+06
-912634
65010.4
634833
985444
1.1289e+06
1.16813e+06
1.00163e+06
694500
339674
-41919.4
-83699.6
-145331
-158916
-157875
-152470
-142706
-122934
-97348.2
-84606.4
-105439
-180663
-226610
-280271
-346831
-423529
-509686
-606250
-711748
-825184
-1.0075e+06
-1.0937e+06
-1.0039e+06
-794309
-481861
-76923.6
386013
791850
1.02522e+06
1.11522e+06
1.12401e+06
1.06719e+06
967866
867238
781941
679559
188074
159083
145577
134374
122800
110909
99407.2
88674.9
78814.9
69883.3
61926.1
54950
48920.2
43807.9
39636.8
36373
33917
32151.3
30954.5
30206.1
29793.2
29616.2
29590.1
29642.1
29710.6
29737.3
29630.8
29193.2
28121.5
25502.1
21214.4
15684.2
10252.6
6736.99
6773.83
11113.7
19159
28976.9
37830.1
42896.7
41982.1
34041.1
19215.2
-1859.84
-29376.7
-65552
-115060
-184107
-276033
-387857
-536477
-838199
-1.45275e+06
-1.92221e+06
-1.27423e+06
-842201
-513232
-121890
226540
538495
787385
959008
1.05838e+06
1.08271e+06
1.03477e+06
931520
785682
619076
450449
298156
177075
93135.5
42763
19247.6
14374.6
22339.5
28687.2
32176.5
32770.9
30656.9
26014.8
19197.9
10799.1
1380.37
-8694.93
-18866.1
-28713.7
-37906.6
-46036.1
-52681.2
-57469
-60053.5
-60144.3
-57548.4
-52201.8
-44197
-33855
-21659
-8105.58
5559.52
14774.8
14222.5
19414.3
24115.9
27811.4
30100
30878.6
29853.8
27823.7
26105.9
24510.9
22848.5
20363
16049.4
8898.89
-2272.5
-19259.9
-46170.5
-94533.8
-202408
-314974
-399249
-442176
-426906
-343128
-192252
-21173.1
61160.2
-64923.4
-416938
-926837
-1.51701e+06
-1.97488e+06
-1.87017e+06
-744755
767255
1.18348e+06
1.23704e+06
1.04817e+06
743850
423872
155881
-19351.6
-104025
-133402
-141884
-146508
-146221
-139810
-126761
-105713
-72937.1
-44420.4
-21941.7
-2191.75
9297.82
15030.3
15938.9
11802.9
2222.87
-13980.2
-39110.9
-77779.6
-146091
-293591
-570255
-797822
-931228
-933156
-780448
-504304
-151178
216431
530451
743307
830194
804250
713094
605160
499262
276128
222519
182120
147112
117210
91968
70728.7
52924.3
38171.1
26084.3
16367.9
8743.73
2966.06
-1119.92
-3667.41
-4899.59
-5079
-4469.67
-3307.85
-1786.17
-48.8254
1801.43
3691.03
5566.21
7384.39
9106.13
10684.1
12042.5
13050.6
13496.5
13102.5
11535.4
8417.68
3599.96
-2927.89
-11192.2
-21497.1
-34602.6
-51587.7
-73351.2
-100001
-130572
-163408
-197093
-231271
-266947
-307978
-363194
-450041
-605170
-965130
-1.66083e+06
-1.80321e+06
-770064
-329367
-22100.9
271903
532448
734350
869557
932586
925943
858012
741993
597636
447935
312202
204554
131061
90693.5
77328.2
82201.4
96788.6
114147
129040
138447
142554
142038
137943
131289
122777
112452
100381
87454.1
73879.8
59543.4
44542.7
29024.5
13242
-2362.66
-17163.4
-30365.9
-40997
-47945
-50006.9
-45986.8
-35434
-18986
1506.81
22746.7
26184.7
33708.1
37084.1
36953.4
34327.3
30525.7
26902.7
23496.5
19889.5
16910.6
15509.5
15337
15699.6
15780.9
14685.8
11626.9
5976.79
-2963.97
-16606
-37846.4
-75829.4
-140052
-207565
-264467
-291192
-277032
-240859
-249819
-399111
-739636
-1.22818e+06
-1.7366e+06
-1.96321e+06
-1.33555e+06
372898
1.43106e+06
1.31002e+06
1.01066e+06
631937
312415
101340
-10534
-59196.9
-77496.6
-94076.3
-102724
-107893
-108277
-104516
-95736.1
-78825.2
-53312.3
-28290
-6709.59
10263.7
21046.4
27102.2
29062.6
27140.2
22320.8
14691.7
4195.76
-8854.01
-27525.3
-63332.6
-170101
-320291
-506143
-676183
-771926
-749208
-579471
-287222
59791.9
379446
603665
699400
680612
592817
480634
337390
246064
173551
117444
74907.8
42316.1
16914.9
-2959.33
-18229.7
-29507.9
-37387.7
-42388.1
-44972.5
-45579.8
-44634.7
-42524.8
-39590.7
-36120.2
-32345.6
-28442
-24539.4
-20722
-17046.5
-13549.9
-10263.3
-7224.96
-4498.02
-2194.85
-507.639
266.768
-285.941
-2733.07
-7784.24
-15623.5
-27884
-45848
-70703.9
-103025
-142196
-186204
-232136
-277295
-320493
-362658
-406057
-453282
-506408
-570008
-674394
-976251
-1.71976e+06
-1.53986e+06
-633800
-90153.5
221627
442172
619926
743825
808262
811744
758606
660930
536952
407939
293325
206191
151621
127755
127929
143274
164839
185008
198303
201682
197584
188418
177906
167060
156440
146619
138536
132184
127000
122518
118283
113730
108231
101115
91747.8
79629.1
64510.1
46460.7
26205
5312.47
-13538.1
-26222.4
-29292.4
-19836.8
3507.61
32338.8
55834.7
78755.1
91791.2
93192.7
84194.3
68452
50640.1
34216.8
20268.4
8842.18
893.396
-3074.7
-3853.89
-2493.04
-226.816
1610.69
1716.92
-1031.94
-7412.44
-17881.1
-33291.3
-57237.5
-95374.6
-140589
-187737
-231916
-285151
-388390
-604519
-975348
-1.4513e+06
-1.84489e+06
-1.76974e+06
-694057
1.09994e+06
1.57113e+06
1.12011e+06
698994
354402
144203
39267.6
-8310.71
-32989.3
-46871.2
-64468.4
-74030.4
-79266.8
-81773.5
-81232.3
-75895.7
-63081.6
-39872.7
-18898.6
1334.34
17886.8
28462.8
33104.1
32622.1
28479.3
22504.5
15530.6
7638.66
-563.743
-9545
-22194.5
-50127
-117629
-230187
-383423
-545624
-664440
-680665
-550434
-290282
32014.3
331168
538279
623040
597574
503684
352688
219225
122479
59018.6
15737.5
-15581.9
-38802.5
-55633.6
-66981.1
-73628
-76432.1
-76268.5
-73912.5
-69983
-64985.9
-59322.2
-53305.1
-47170.7
-41107.1
-35242.8
-29669.1
-24438.1
-19576.2
-15095
-11011.9
-7354.18
-4202.67
-1831.24
-640.065
-1090.17
-3967.96
-10642.6
-23240.7
-45296.9
-78675.1
-117887
-167096
-222108
-278124
-331229
-379740
-425018
-470937
-521553
-577544
-635040
-689710
-759380
-986089
-1.706e+06
-1.38715e+06
-571214
5790.71
332416
517508
633037
703010
724806
698282
628209
527232
413845
307099
221554
164417
135585
129583
137979
151633
162521
164984
156396
137240
110682
85173.9
63965.3
47779.4
36692.2
29864.9
26548.2
26307.1
28643
33229
39559.3
47501.6
56925.6
67592.5
78969.4
90216.3
100058
106796
107996
101430
85780.4
62122.1
35963.1
11929.9
-2307.72
1004.94
17885.6
52778.1
95836.5
135485
161376
167569
154278
126945
93135
59254.2
29052.4
4656.24
-12317.4
-21851.2
-25320.8
-24409.9
-21064.1
-17360.6
-15304.3
-16521.5
-21920.8
-31659
-45839.4
-66419
-95686.1
-135211
-190700
-279297
-436074
-706458
-1.11397e+06
-1.58466e+06
-1.86391e+06
-1.50714e+06
-148912
1.42278e+06
1.54464e+06
886982
479111
226876
102926
46108
14809.6
-8650.61
-30033.4
-44404.6
-53677.1
-59639.4
-63550.3
-63728.3
-60575.7
-44847.1
-29005.8
-10333.6
8123.25
22976.9
31821.2
34386.2
31679.1
25437.7
17772.8
9994.6
2482.3
-4172.32
-9936.08
-15901.8
-25566
-54334.6
-105773
-199099
-333579
-482903
-596651
-613114
-491123
-243302
59622.3
332156
511246
570321
524017
312754
155652
53132.3
-1672.19
-36748.9
-61977.8
-79508.7
-89986.4
-94309
-93770.9
-89790.7
-83603.2
-76141.2
-68040.5
-59686.4
-51340.4
-43182.9
-35331.1
-27900.9
-20918.4
-14274.7
-8034.33
-2280.34
2999.1
7781.13
11999
15526.1
18083.6
19210.6
17688.2
10583
-6417.46
-37370.7
-84091.5
-144981
-221101
-291184
-349367
-399129
-444151
-488817
-538471
-596030
-659273
-720568
-772486
-831734
-1.01209e+06
-1.63998e+06
-1.31536e+06
-594712
27144
381173
550428
628756
659680
654369
612039
536787
439897
337784
246340
176197
130999
108168
100940
100676
99007.3
89666.9
69843.7
40794.7
7443.4
-23203.9
-43427.5
-56951.3
-64472.1
-67341.7
-66275.3
-63102.4
-58679.9
-53485
-47843.8
-41900.9
-35623.1
-28695.1
-20707.7
-10845.4
1649.7
17531.6
37219.9
60552.1
84924.6
106006
117682
116372
104182
80357.8
53757
30677.8
24692.6
39862.1
77018.2
129418
183555
223818
239003
226512
191853
144621
94192.8
47395.3
8710.92
-19227.6
-36455
-44583.1
-45888
-43112.8
-39173.2
-36787.4
-38011.8
-43880.9
-54477.6
-69815.5
-91930.9
-124273
-177228
-272522
-448093
-746729
-1.17941e+06
-1.64272e+06
-1.81954e+06
-1.24376e+06
229546
1.50543e+06
1.38122e+06
789574
353090
180695
103993
63742.1
33661.3
7055.75
-18234.6
-31797.7
-40949.7
-46852.9
-49795.2
-50659.9
-42783.2
-33241.6
-19279.1
-2375.86
14240.5
27040.8
33594.7
33548.5
28154.2
19496.6
9866.61
758.88
-7046.8
-12789.3
-16342.1
-18418.2
-20825.9
-29774.7
-54208.3
-103868
-191483
-316130
-452101
-549079
-549140
-416501
-170165
116893
359473
499438
518711
222741
82510.1
-7397.22
-44649.4
-70635.3
-89508.4
-99676.5
-101530
-97083.2
-88716.7
-78441.8
-67511.7
-56666.5
-46290.3
-36532.1
-27383.8
-18853.6
-10898.9
-3247.5
4104.08
11069
17682.6
23979.8
30133.5
36459.9
43608.6
52707.1
63095.3
71881.5
71822.3
55243.8
18229.2
-37462.8
-104829
-174797
-240374
-306746
-363445
-419098
-476529
-540992
-611862
-683972
-750473
-807581
-872320
-1.03515e+06
-1.51349e+06
-1.29943e+06
-663443
-17830
388715
567534
624610
629534
604565
552714
475968
383504
289075
205755
141742
99097.2
74667.8
61944.4
53193.9
41544.6
22784.8
-3485.35
-33788.6
-62082.4
-82273.1
-91036.1
-91631.1
-88766.7
-84086.9
-77964.9
-70195.8
-61748.7
-53324.6
-45110.4
-37398.1
-30401.8
-24577.7
-20139.1
-17427
-15766.2
-14036
-10875.3
-4073.24
9124.72
30110.9
57643.2
84277.1
108803
123786
121805
106261
83933.8
64144.1
56596.3
69410.5
106147
162570
225279
275624
298080
287101
247665
190644
127505
67335.3
16466.7
-21631.9
-46695.8
-60287.7
-65086.6
-64509.7
-62225.6
-61563.8
-64921.9
-73428.1
-87236
-107025
-136089
-184522
-275404
-449819
-753790
-1.1928e+06
-1.63985e+06
-1.73384e+06
-1.0202e+06
441038
1.45844e+06
1.248e+06
683540
324620
186077
114706
77264.9
43819.6
13366
-12872.9
-25262.1
-33560.2
-39147.2
-38912.6
-37290
-32650.1
-23697.2
-10515.5
5293.71
20440.3
31252.6
35298.8
32323.5
23894.4
12462.5
471.175
-10365.9
-18817.4
-24071.5
-26123.9
-25591.5
-23692.5
-23358.1
-32088.8
-55952.6
-106937
-194688
-314092
-435687
-509186
-482522
-329382
-78434.2
190834
393480
480565
98194.8
7761.13
-44633.6
-66381.7
-87837.7
-100358
-101204
-93242.1
-80531.7
-66356.4
-52606.6
-39602.9
-27876.3
-17482.7
-8265.05
5.80465
7477.24
14377.3
21198.4
28268.5
35698.8
43859.4
53640.1
66723.5
85469.1
110991
143368
168369
175403
153643
106364
42127.4
-26783.3
-92633.9
-153433
-210628
-267005
-338348
-412479
-498345
-584548
-664777
-737203
-804445
-886097
-1.05275e+06
-1.37798e+06
-1.24095e+06
-726759
-100061
353158
568010
625009
613706
574882
516023
438636
349256
259253
179614
117227
73827
46784
30636.5
18897.1
5927
-11429.3
-32927.9
-55210.9
-73471.1
-84097.3
-87117.9
-86172.3
-84354.5
-82189.4
-79035
-73882.2
-65752.8
-53768.5
-39123.6
-23268
-7828.54
7106.32
20164.7
30756.2
37767.8
40036.9
39571.3
36211.7
32171.7
28571.1
31059.3
41799.4
61158.9
85814.7
109453
125088
128365
119622
104125
90053.7
86243.3
100798
138453
196999
263820
318574
343299
331134
287114
222921
151090
81834.6
22459.1
-23253.6
-54728.6
-73409.8
-82244.9
-85173.4
-86427.5
-89733.6
-97624.1
-111227
-131048
-159336
-204661
-288458
-451845
-744013
-1.1703e+06
-1.5911e+06
-1.62567e+06
-853701
517101
1.34786e+06
1.14062e+06
636097
323600
192690
131973
89584
49418.3
14524.9
-11296.2
-21988.1
-28011.1
-31029.4
-31892.7
-30172.8
-25188.4
-16203.4
-3200.36
12121.8
26332
35547.3
37270.6
31381.5
19806.3
5363.61
-9225.02
-21967.9
-31228.7
-36393
-37607.9
-35378.1
-30578
-24955.1
-23719.6
-31923.9
-58092.1
-113756
-204765
-319677
-423978
-468084
-407053
-227702
26354.3
266020
412832
-46615.3
-50118.5
-53816.6
-75151.5
-94937.1
-98750.1
-89231.6
-72977.7
-55102.6
-39359.1
-24420.3
-10671.8
538.127
9813.77
17735.5
24844.6
31650.8
38836.7
47448.6
58746.6
73824.2
94827.1
124648
163712
207549
245850
275627
266878
223146
160723
100219
40857.4
-16383.8
-74846.2
-136631
-202949
-275043
-358785
-457739
-545809
-627187
-705992
-787163
-889376
-1.06997e+06
-1.20441e+06
-1.12518e+06
-742000
-189001
281858
540398
619883
607330
560460
497068
419280
331823
244029
165550
102646
57259.2
27659.9
9625.13
-2200.98
-12800.6
-25355.8
-40382.8
-55929.2
-69015.6
-77854.3
-83685.9
-90737.3
-98528.1
-106092
-110462
-109305
-101401
-86265.9
-63933.5
-36153.7
-5586.47
22137.8
48264.6
70999.9
89677.1
105249
110683
113698
112046
106503
98341.3
90004.2
85272.3
87583.6
98246
114483
130271
139728
139928
131938
120217
111031
111632
129222
169021
229834
298418
352692
374265
357359
308105
238655
161670
87477.2
23384.4
-26959.1
-62815
-85648.7
-98679
-106231
-112842
-122308
-137049
-158257
-187792
-232327
-309904
-458292
-727209
-1.12491e+06
-1.51112e+06
-1.50929e+06
-744406
497520
1.2082e+06
1.05364e+06
625767
339912
208066
143327
94266.4
50936.5
16230.6
-8940.48
-19298.8
-24298.2
-26619.2
-26972.5
-25003.4
-19767
-10513.4
2664.05
17960.6
31733.5
39831
39565.8
30915.9
16203.7
-1323.23
-18585.7
-33141.3
-43346.4
-48873.6
-49892.6
-46780.8
-40167.2
-31165.3
-22469.4
-20604.4
-30234.7
-61596.1
-124684
-219829
-327935
-409781
-417620
-316442
-111512
132302
322560
-210622
-39613
-45323
-81582.3
-95649.4
-88864.1
-71075.3
-50256.3
-30557.8
-13515.1
695.916
12521
22565.2
31518.9
40293.4
50023.9
62112
78354.7
100771
130967
169146
212979
256550
290826
306908
300013
272530
231952
186933
145923
108143
51664.7
-7867.26
-72912.7
-143276
-219586
-303719
-404000
-489909
-576207
-666354
-763636
-886274
-965101
-1.03506e+06
-958296
-688461
-249756
189013
477972
593484
597689
553495
489716
413009
327283
240587
161879
97322.5
49217.8
16666.1
-3444.23
-15491
-24075.1
-32877.6
-43751.6
-56541.3
-69933.4
-83089.8
-96903.4
-112989
-129296
-145972
-157761
-159696
-149248
-126627
-92086.9
-49213.6
-2379.45
46591.3
89429
123525
152208
173533
187883
195930
198324
195793
189157
179250
167253
155230
146413
144029
148927
157869
164970
165574
158816
147371
135654
128268
130960
150950
194004
257949
326424
375838
389795
365608
311048
238290
159301
83721.9
18159.8
-34094
-72454.5
-98616.2
-116101
-129456
-143214
-160949
-184838
-217268
-263241
-336814
-469944
-709409
-1.06727e+06
-1.41307e+06
-1.39411e+06
-682576
418068
1.05531e+06
977456
632278
367469
227846
152345
97493
53339.6
18990.8
-6145.37
-16417.8
-20868.5
-22842.1
-23099.9
-21021
-15619.7
-6095.15
7427.61
23068
36900.9
44368
42451.8
31181.1
13257.3
-7378.93
-27227.2
-43562.2
-54997.9
-61226.6
-62401
-58966.1
-51501.8
-40678.4
-27659.1
-17876.8
-15620.8
-28964.5
-68324.1
-140369
-237950
-333962
-385807
-350203
-207486
10123.8
220150
-302286
-12435.4
-53130.2
-85372.1
-90993.6
-77888.8
-57003.6
-35146.6
-15050
2437.52
17468.6
30825.3
43658.8
57364.5
73545.4
93981.8
120168
152639
190205
229392
264747
290317
301827
298548
283565
262089
238417
213659
185946
152059
109641
57628
-3450.28
-72433.4
-147997
-228913
-313682
-401392
-488384
-579211
-668178
-751957
-819134
-839066
-778699
-581536
-261824
98612.3
383451
533204
568992
541843
486140
414367
332008
246628
167202
100376
49025.1
12884.9
-10355.3
-24255.3
-32981.7
-40559.2
-50049.9
-62973.8
-79343.9
-98374.8
-119224
-140681
-160897
-179475
-195970
-201565
-189631
-157282
-107210
-46495.5
22486.1
90935
153180
205367
245761
274343
292079
300545
301465
296426
286766
273608
257941
240751
223288
207536
196106
191129
192204
195383
195131
188030
174721
158957
145035
136648
139740
162970
211734
279417
344969
385421
388919
356722
297928
224101
145892
71762.8
7270.29
-44876.4
-84520
-113763
-136402
-156990
-179775
-207653
-244509
-293676
-365788
-485768
-694170
-1.00597e+06
-1.30806e+06
-1.28556e+06
-654792
306297
896579
901472
640784
400558
252160
163814
102628
57057.2
23140.4
-1342.56
-11962.7
-16656.4
-18885.5
-19394.7
-17455.5
-12085.7
-2373.93
11629.2
27952.8
42383.4
49661.9
46306.5
32398.6
11168.4
-12720
-35233.7
-53593.2
-66343.5
-73071.1
-74160.4
-70483.3
-62908.5
-51878.5
-37378.8
-22217.6
-11074.7
-10669.4
-30594.1
-80264.6
-160758
-255960
-331595
-344310
-260837
-86725.5
118840
-311015
-21054.8
-61051.6
-88936.4
-89750.8
-73492.3
-51003.3
-27930.9
-6241.73
13718.2
32419.1
50847.2
70416.4
92590.4
118427
148059
180187
211972
239604
259547
269984
271636
267343
260575
253708
247017
238715
225745
204837
173408
130160
75404.1
10937
-60532.9
-136052
-212983
-289630
-367183
-443785
-518122
-582935
-628528
-638162
-588492
-456542
-238280
27536.4
272052
436776
508582
512041
476079
416670
341812
259818
180258
110936
55841.9
15440.3
-12053.8
-29662.5
-41075.7
-50241.1
-60849
-75693.3
-96079.2
-121562
-150168
-177762
-188298
-185897
-202077
-214794
-207246
-176076
-119425
-40857
51026.3
145394
232030
303708
357142
392275
411101
416536
411676
399338
381833
360913
337869
313685
289201
265343
243398
225209
212799
207056
206242
205902
201077
189384
172284
153855
137996
128575
134312
165210
222800
292840
351422
379771
372049
332928
271924
199363
124271
53612.6
-8140.49
-59074.8
-99688.5
-132548
-161592
-191100
-225006
-266770
-320370
-393424
-503722
-683197
-947519
-1.2049e+06
-1.1865e+06
-648170
181657
736519
818051
640608
432874
281111
181340
113152
65220.6
31199.6
6297.86
-5954.65
-11924
-14834
-15654.9
-14053.6
-8904.78
971.004
15726.2
33293
48916.4
56402.5
51587.6
34676.1
9748.64
-17823.3
-43369.9
-63717.5
-77164.3
-83451.1
-83556
-79165.3
-71824
-62098.2
-49060.1
-31890.3
-15128.8
-4470.25
-8591.95
-37876.3
-98686.7
-184063
-268599
-313194
-279115
-153241
29961.9
-279713
-30014.1
-68770.2
-94795.1
-94448.3
-77820.6
-54191.8
-28659.2
-3454.78
20980.7
44992.9
69237.4
94414.4
120835
147950
174145
197137
214802
226110
231710
233738
234895
237298
241709
247395
252395
253870
248461
232816
204318
161814
106050
39592.1
-33715.4
-109491
-183631
-253308
-317809
-375455
-423810
-456322
-463127
-431271
-348223
-209413
-28739.7
159802
315761
414006
453798
448532
411139
350794
276691
199339
128110
68818.2
23302.4
-9518.62
-32287.4
-48343.3
-61305.9
-74802.1
-92246.2
-116966
-148360
-179684
-203300
-203332
-172173
-181279
-194017
-198863
-183151
-137746
-59984.1
44483.4
161759
274181
367100
433068
471660
486786
483955
468537
445005
416771
386271
355139
324400
294670
266356
239878
215923
195693
180850
172750
171087
172967
173590
168666
156928
140447
122863
107612
101468
116922
161629
228422
296522
344018
359077
341444
297743
236925
167683
97345.8
31383
-26902.5
-76545
-118772
-156522
-193492
-233885
-281675
-340700
-416628
-521165
-676582
-896337
-1.11018e+06
-1.09844e+06
-652612
56949.9
579061
724194
624862
457759
312170
205701
131104
79795.1
44177.1
17034.7
2097.42
-5841.94
-9989.17
-11618.6
-10608
-5765.96
4371.15
20288.2
39807.1
57202.2
65046.9
58356.7
37650.6
8127.16
-23665.3
-52207.1
-73796
-86648.7
-90971.1
-88704
-82689.2
-75449.1
-68030.5
-59043.4
-43925.3
-25881.5
-9022.01
-964.827
-12317.4
-52811.3
-122900
-205807
-268379
-271653
-191166
-40223.6
-216372
-35056.5
-76488.4
-103710
-104820
-89153.8
-64719.6
-36834.5
-8236.49
20101.6
47823.5
74666.8
100380
124426
145822
163446
176586
185426
191198
195857
201430
209395
220340
233910
248855
263054
273540
276709
268803
246667
208565
154773
87713.4
11596.7
-68143.4
-145628
-215881
-276295
-318974
-346773
-355218
-338098
-288652
-202910
-84276.2
53099.9
186964
295264
365047
394205
386800
349155
289889
219727
149246
86382.6
35092.8
-4208.27
-33620.4
-55954.2
-74332.6
-92356.2
-112779
-137562
-166937
-194049
-211373
-208428
-178228
-152331
-154824
-171866
-185326
-176848
-131914
-44369.5
77807.4
210701
325133
401899
437181
437967
415198
379141
337480
295156
254967
218285
185611
156951
132076
110700
92625.4
77909.5
67050.2
61057
61065.3
67326.3
78087.7
89437.4
96782.9
97255.3
90902.2
79644.7
66273.3
56351.8
62374.1
96335.5
157039
228404
288823
322835
325732
300913
255393
196894
132443
67733.9
6791.77
-48289.7
-97534.7
-142800
-186715
-233929
-288028
-352769
-432753
-535148
-672950
-854588
-1.0283e+06
-1.02238e+06
-661490
-60148
427861
620967
590711
469316
340181
234117
155497
100309
61541.6
30888.8
12731.1
2297.49
-3608.71
-6509.31
-6434.85
-2085.92
8466.97
26093.3
48263.9
67868.1
75751.4
66175.8
40474.8
5460.85
-30796.6
-61783.3
-83321.1
-93776
-94232.8
-88013
-79338
-71747.4
-66886.4
-63487.5
-54281.3
-39919
-21950.9
-6219.06
-2897.25
-23827.3
-75417.5
-149181
-218697
-247475
-205462
-89940.8
-128963
-37815
-80492
-111234
-117387
-105383
-82672.1
-54804.2
-25045.7
4805.53
33531.1
60236.3
84186.6
104751
121520
134514
144322
152094
159327
167538
177955
191352
207992
227592
249225
271164
290761
304509
308388
298523
272021
227737
166692
92110.8
9177.45
-75461.5
-154564
-222027
-267259
-291723
-293338
-269859
-219519
-142995
-45613.9
61757.8
164649
249015
304982
327988
318513
281532
226306
165268
96462.7
42713.1
-1427.05
-36602.8
-64858.1
-88740
-110538
-132402
-155276
-178461
-198394
-207457
-199328
-170876
-129580
-116330
-137825
-182730
-230006
-254120
-230606
-144360
-8459.77
131427
228443
263329
243145
186667
113268
37846.3
-30383.6
-87073.2
-131158
-163368
-185196
-198313
-204263
-204319
-199421
-190158
-176749
-159059
-136814
-110207
-80702.5
-51374.3
-26093.5
-7882.45
2162.92
4302.25
-165.648
-6370.74
-2314.29
25900.9
81426.6
152878
221069
269481
290305
283851
254982
210059
155383
96436.4
37400.2
-19086.4
-72105.9
-122508
-172066
-225306
-284957
-355049
-439528
-542527
-669302
-821287
-960093
-957865
-671749
-168266
282454
509071
537642
463554
359495
261783
183208
125023
82977
49308.2
27017.2
13101.9
4691.93
-70.2827
-1411.19
2295.17
13656.5
33868.7
59556.1
81544.5
88597.8
74583.5
42375.2
1021.75
-39641.2
-72053
-91697
-97526.2
-92126.8
-80634.3
-68635.7
-60339.6
-57706.4
-59901.1
-59120.6
-52686
-39162.2
-21361.6
-7909.14
-11551.2
-43320.6
-102612
-170461
-214285
-202135
-120466
-27554.8
-39530.5
-79469.5
-113633
-128320
-125121
-109523
-86129.1
-58770.9
-30092.1
-1853.55
24903.5
49169.9
70271
88012.8
102678
114982
125937
136720
148436
162008
178126
197223
219414
244365
271099
297795
321686
339189
346310
339328
315575
274039
215557
142714
59940.7
-25908.1
-104401
-172469
-214631
-230350
-218939
-181224
-120195
-41916.6
44263.5
126914
194770
239379
256765
255159
207397
152240
100371
43401.7
-2444.23
-40725.8
-72538
-99374.9
-122766
-143847
-163081
-179614
-190925
-192550
-179430
-149914
-109821
-80004.2
-101437
-171799
-278910
-394383
-479919
-489792
-392196
-221762
-66994.4
9220.9
-1433.17
-76880.5
-188360
-310545
-424844
-520122
-591743
-639618
-666119
-674537
-668184
-649985
-622338
-587127
-545803
-499495
-449144
-395697
-340409
-285196
-232735
-185955
-147238
-117965
-98983.1
-90365
-87856
-79589.3
-51815.7
1034.15
71612
144123
202960
238791
249407
237421
207630
165309
115415
62051.7
7988.39
-45409.4
-98154.6
-151992
-209512
-273905