/*--------------------------------*- C++ -*----------------------------------*\
| =========                 |                                                 |
| \\      /  F ield         | OpenFOAM: The Open Source CFD Toolbox           |
|  \\    /   O peration     | Version:  2112                                  |
|   \\  /    A nd           | Website:  www.openfoam.com                      |
|    \\/     M anipulation  |                                                 |
\*---------------------------------------------------------------------------*/
FoamFile
{
    version     2.0;
    format      ascii;
    arch        "LSB;label=32;scalar=64";
    class       surfaceScalarField;
    location    "0.33";
    object      phi;
}
// * * * * * * * * * * * * * * * * * * * * * * * * * * * * * * * * * * * * * //

dimensions      [0 3 -1 0 0 0 0];

oriented        oriented;

internalField   nonuniform List<scalar> 
24170
(
2.94934e-06
2.39062e-07
2.66949e-06
2.79858e-07
2.41074e-06
2.58741e-07
2.18134e-06
2.29401e-07
1.99044e-06
1.90904e-07
1.84101e-06
1.4943e-07
1.73022e-06
1.10785e-07
1.65185e-06
7.83721e-08
1.59837e-06
5.3481e-08
1.56261e-06
3.57663e-08
1.53873e-06
2.38772e-08
1.52242e-06
1.63042e-08
1.51072e-06
1.1703e-08
1.50172e-06
9.00526e-09
1.49434e-06
7.37735e-09
1.48702e-06
7.32058e-09
1.47311e-06
1.391e-08
2.58625e-08
1.44725e-06
3.51052e-06
1.45792e-07
3.55539e-06
2.34989e-07
3.55737e-06
2.56762e-07
3.52294e-06
2.63831e-07
3.46097e-06
2.52869e-07
3.38218e-06
2.28218e-07
3.2953e-06
1.9767e-07
3.20615e-06
1.67519e-07
3.11821e-06
1.41419e-07
3.03339e-06
1.20594e-07
2.95271e-06
1.04553e-07
2.8767e-06
9.23102e-08
2.80559e-06
8.28175e-08
2.73923e-06
7.53665e-08
2.6774e-06
6.92e-08
2.62028e-06
6.44416e-08
2.57375e-06
6.04389e-08
5.04023e-08
2.54921e-06
3.69812e-06
1.10188e-07
3.73449e-06
1.98618e-07
3.76618e-06
2.25077e-07
3.79327e-06
2.36735e-07
3.81183e-06
2.34318e-07
3.8206e-06
2.19444e-07
3.81983e-06
1.98437e-07
3.81078e-06
1.76575e-07
3.79517e-06
1.57027e-07
3.77478e-06
1.40984e-07
3.75114e-06
1.28192e-07
3.72536e-06
1.18089e-07
3.6982e-06
1.09981e-07
3.67042e-06
1.03148e-07
3.64268e-06
9.69387e-08
3.61621e-06
9.09094e-08
3.59231e-06
8.43362e-08
7.30787e-08
3.56964e-06
3.94666e-06
8.89123e-08
3.97167e-06
1.73608e-07
3.99366e-06
2.03086e-07
4.01501e-06
2.15388e-07
4.03401e-06
2.1532e-07
4.04902e-06
2.04435e-07
4.05976e-06
1.87692e-07
4.0667e-06
1.69637e-07
4.07098e-06
1.52746e-07
4.0737e-06
1.38266e-07
4.07537e-06
1.26523e-07
4.07636e-06
1.17102e-07
4.07696e-06
1.09378e-07
4.07739e-06
1.02722e-07
4.07793e-06
9.63939e-08
4.07903e-06
8.98148e-08
4.08085e-06
8.25134e-08
7.17911e-08
4.08214e-06
4.22304e-06
7.30005e-08
4.24442e-06
1.52224e-07
4.26387e-06
1.83638e-07
4.28239e-06
1.96867e-07
4.29939e-06
1.9832e-07
4.31381e-06
1.9002e-07
4.32538e-06
1.76114e-07
4.33441e-06
1.60613e-07
4.34126e-06
1.45895e-07
4.34663e-06
1.32893e-07
4.3513e-06
1.2185e-07
4.35587e-06
1.12536e-07
4.3608e-06
1.04448e-07
4.36634e-06
9.7179e-08
4.37254e-06
9.0201e-08
4.37938e-06
8.29702e-08
4.38697e-06
7.49233e-08
6.45775e-08
4.39418e-06
4.52172e-06
6.03653e-08
4.54102e-06
1.32922e-07
4.55965e-06
1.65015e-07
4.57736e-06
1.79157e-07
4.59381e-06
1.81864e-07
4.60832e-06
1.75512e-07
4.62063e-06
1.63803e-07
4.63094e-06
1.50308e-07
4.63951e-06
1.37318e-07
4.64683e-06
1.25577e-07
4.65349e-06
1.15189e-07
4.65994e-06
1.06091e-07
4.66641e-06
9.79747e-08
4.67325e-06
9.03359e-08
4.68065e-06
8.28068e-08
4.68862e-06
7.50015e-08
4.6971e-06
6.64393e-08
5.62805e-08
4.7054e-06
4.84298e-06
5.01068e-08
4.86049e-06
1.1541e-07
4.87842e-06
1.4709e-07
4.89582e-06
1.61754e-07
4.91217e-06
1.65513e-07
4.92686e-06
1.60825e-07
4.93967e-06
1.50988e-07
4.95084e-06
1.39145e-07
4.96077e-06
1.2738e-07
4.96983e-06
1.16523e-07
4.9783e-06
1.06717e-07
4.98646e-06
9.79259e-08
4.99448e-06
8.99603e-08
5.00256e-06
8.22578e-08
5.01092e-06
7.44389e-08
5.0197e-06
6.62262e-08
5.02884e-06
5.72979e-08
4.72054e-08
5.03792e-06
5.18803e-06
4.16527e-08
5.20388e-06
9.956e-08
5.221e-06
1.29972e-07
5.23804e-06
1.44719e-07
5.25429e-06
1.49257e-07
5.26913e-06
1.45989e-07
5.28232e-06
1.37798e-07
5.29404e-06
1.27423e-07
5.30471e-06
1.16711e-07
5.3147e-06
1.06536e-07
5.32427e-06
9.71446e-08
5.33366e-06
8.85392e-08
5.34304e-06
8.0574e-08
5.35247e-06
7.28304e-08
5.36199e-06
6.49195e-08
5.37166e-06
5.65563e-08
5.38146e-06
4.74971e-08
3.75438e-08
5.39112e-06
5.55838e-06
3.46081e-08
5.57271e-06
8.52361e-08
5.58895e-06
1.13727e-07
5.6055e-06
1.28165e-07
5.62157e-06
1.33194e-07
5.63647e-06
1.31083e-07
5.64995e-06
1.2432e-07
5.6621e-06
1.15274e-07
5.67324e-06
1.05571e-07
5.68373e-06
9.60478e-08
5.69386e-06
8.70186e-08
5.70386e-06
7.85389e-08
5.71393e-06
7.05046e-08
5.72412e-06
6.26348e-08
5.73442e-06
5.46157e-08
5.74478e-06
4.61973e-08
5.7551e-06
3.71821e-08
2.74961e-08
5.76515e-06
5.95571e-06
2.86756e-08
5.96863e-06
7.23155e-08
5.98396e-06
9.83959e-08
5.99996e-06
1.12165e-07
6.01575e-06
1.17407e-07
6.03064e-06
1.16185e-07
6.04434e-06
1.10623e-07
6.05687e-06
1.0275e-07
6.06844e-06
9.3992e-08
6.07937e-06
8.51268e-08
6.08989e-06
7.64919e-08
6.10025e-06
6.81841e-08
6.11061e-06
6.01431e-08
6.12106e-06
5.21783e-08
6.13161e-06
4.40661e-08
6.14218e-06
3.56281e-08
6.15264e-06
2.67274e-08
1.73597e-08
6.16277e-06
6.38187e-06
2.36154e-08
6.39347e-06
6.07159e-08
6.40786e-06
8.40091e-08
6.42326e-06
9.67659e-08
6.43871e-06
1.01951e-07
6.45354e-06
1.01355e-07
6.4674e-06
9.67656e-08
6.48025e-06
8.99005e-08
6.49224e-06
8.20009e-08
6.50359e-06
7.37782e-08
6.51451e-06
6.55733e-08
6.52518e-06
5.75086e-08
6.53577e-06
4.95625e-08
6.54633e-06
4.16131e-08
6.55688e-06
3.35117e-08
6.56737e-06
2.51448e-08
6.57766e-06
1.64344e-08
7.42016e-09
6.5876e-06
5.7446e-06
1.98537e-08
5.75339e-06
5.19229e-08
5.76482e-06
7.25783e-08
5.77736e-06
8.42248e-08
5.79014e-06
8.9169e-08
5.80259e-06
8.89076e-08
5.81439e-06
8.49697e-08
5.82545e-06
7.88349e-08
5.83586e-06
7.15914e-08
5.84575e-06
6.38893e-08
5.85526e-06
5.6063e-08
5.86452e-06
4.82499e-08
5.87362e-06
4.04581e-08
5.88262e-06
3.26133e-08
5.89152e-06
2.46184e-08
5.90026e-06
1.64053e-08
5.90876e-06
7.93312e-09
-7.27248e-10
5.9169e-06
7.00186e-06
1.61465e-08
7.01099e-06
4.27932e-08
7.02324e-06
6.03276e-08
7.03702e-06
7.04472e-08
7.05132e-06
7.48701e-08
7.06545e-06
7.47782e-08
7.07901e-06
7.14062e-08
7.09187e-06
6.59741e-08
7.10406e-06
5.94043e-08
7.11568e-06
5.22716e-08
7.12685e-06
4.48924e-08
7.13768e-06
3.74143e-08
7.14827e-06
2.98746e-08
7.15864e-06
2.22445e-08
7.16878e-06
1.44758e-08
7.17864e-06
6.54173e-09
7.18814e-06
-1.5639e-09
-9.75552e-09
7.19717e-06
8.53441e-06
1.25877e-08
8.54366e-06
3.35436e-08
8.55656e-06
4.74207e-08
8.57147e-06
5.55386e-08
8.58726e-06
5.90839e-08
8.60311e-06
5.89247e-08
8.61854e-06
5.59763e-08
8.63333e-06
5.11812e-08
8.64745e-06
4.52831e-08
8.66096e-06
3.87666e-08
8.67394e-06
3.19159e-08
8.68647e-06
2.48803e-08
8.69862e-06
1.77211e-08
8.71042e-06
1.04492e-08
8.72183e-06
3.06002e-09
8.73281e-06
-4.43728e-09
8.74327e-06
-1.20198e-08
-1.95974e-08
8.75311e-06
1.04027e-05
9.09299e-09
1.04119e-05
2.43299e-08
1.04253e-05
3.4048e-08
1.04412e-05
3.96326e-08
1.04584e-05
4.18959e-08
1.0476e-05
4.1361e-08
1.04933e-05
3.86267e-08
1.05101e-05
3.43565e-08
1.05263e-05
2.91045e-08
1.05418e-05
2.325e-08
1.05567e-05
1.70278e-08
1.0571e-05
1.05752e-08
1.05848e-05
3.96627e-09
1.0598e-05
-2.75945e-09
1.06106e-05
-9.57366e-09
1.06226e-05
-1.64391e-08
1.06339e-05
-2.33113e-08
-3.01016e-08
1.06444e-05
1.26803e-05
5.53513e-09
1.26898e-05
1.48324e-08
1.27037e-05
2.01913e-08
1.27205e-05
2.28801e-08
1.27389e-05
2.34374e-08
1.27581e-05
2.21391e-08
1.27774e-05
1.93314e-08
1.27964e-05
1.54198e-08
1.28147e-05
1.07624e-08
1.28323e-05
5.61553e-09
1.28492e-05
1.45167e-10
1.28653e-05
-5.54388e-09
1.28807e-05
-1.13836e-08
1.28953e-05
-1.7324e-08
1.2909e-05
-2.33187e-08
1.29219e-05
-2.93147e-08
1.29338e-05
-3.52546e-08
-4.10564e-08
1.29448e-05
1.5457e-05
1.745e-09
1.54672e-05
4.57911e-09
1.54819e-05
5.51692e-09
1.54997e-05
5.06466e-09
1.55196e-05
3.53265e-09
1.55407e-05
1.09264e-09
1.55621e-05
-2.0907e-09
1.55833e-05
-5.82743e-09
1.5604e-05
-9.94634e-09
1.5624e-05
-1.43255e-08
1.5643e-05
-1.88886e-08
1.56611e-05
-2.35871e-08
1.56781e-05
-2.83849e-08
1.5694e-05
-3.32466e-08
1.57088e-05
-3.81299e-08
1.57225e-05
-4.29811e-08
1.57349e-05
-4.77395e-08
-5.23322e-08
1.57462e-05
1.88418e-05
-2.41463e-09
1.88532e-05
-6.83138e-09
1.88696e-05
-1.08424e-08
1.88894e-05
-1.47552e-08
1.89116e-05
-1.86954e-08
1.89353e-05
-2.25866e-08
1.89596e-05
-2.63775e-08
1.89838e-05
-3.00544e-08
1.90075e-05
-3.36255e-08
1.90303e-05
-3.71143e-08
1.90519e-05
-4.05523e-08
1.90723e-05
-4.39703e-08
1.90913e-05
-4.73903e-08
1.91089e-05
-5.08202e-08
1.9125e-05
-5.42501e-08
1.91397e-05
-5.76517e-08
1.91529e-05
-6.09808e-08
-6.41785e-08
1.91648e-05
2.29682e-05
-7.2692e-09
2.29816e-05
-2.02763e-08
2.30011e-05
-3.03554e-08
2.3025e-05
-3.85611e-08
2.30517e-05
-4.54354e-08
2.30802e-05
-5.10455e-08
2.31093e-05
-5.55061e-08
2.31382e-05
-5.90212e-08
2.31664e-05
-6.1818e-08
2.31934e-05
-6.40999e-08
2.32189e-05
-6.60351e-08
2.32427e-05
-6.77572e-08
2.32647e-05
-6.9369e-08
2.32848e-05
-7.09466e-08
2.33031e-05
-7.25453e-08
2.33196e-05
-7.4199e-08
2.33346e-05
-7.58885e-08
-7.74782e-08
2.33479e-05
1.68146e-05
-1.1153e-08
1.68253e-05
-3.09485e-08
1.6841e-05
-4.60678e-08
1.68602e-05
-5.77674e-08
1.68815e-05
-6.6804e-08
1.6904e-05
-7.34893e-08
1.69266e-05
-7.81528e-08
1.69488e-05
-8.12241e-08
1.69702e-05
-8.31345e-08
1.69903e-05
-8.42435e-08
1.70091e-05
-8.48319e-08
1.70265e-05
-8.51143e-08
1.70423e-05
-8.52477e-08
1.70567e-05
-8.53382e-08
1.70696e-05
-8.54534e-08
1.70811e-05
-8.56418e-08
1.70911e-05
-8.59098e-08
-8.6126e-08
1.70997e-05
1.46388e-05
-1.53423e-08
1.46498e-05
-4.19899e-08
1.46659e-05
-6.2131e-08
1.46851e-05
-7.70052e-08
1.47061e-05
-8.77559e-08
1.47276e-05
-9.50623e-08
1.4749e-05
-9.95136e-08
1.47696e-05
-1.01795e-07
1.4789e-05
-1.02554e-07
1.4807e-05
-1.02299e-07
1.48236e-05
-1.01418e-07
1.48387e-05
-1.00201e-07
1.48523e-05
-9.88526e-08
1.48645e-05
-9.74951e-08
1.48752e-05
-9.61734e-08
1.48844e-05
-9.48865e-08
1.48922e-05
-9.37044e-08
-9.27143e-08
1.48988e-05
1.27451e-05
-2.02639e-08
1.27575e-05
-5.44561e-08
1.27746e-05
-7.92151e-08
1.27942e-05
-9.6587e-08
1.2815e-05
-1.08534e-07
1.28359e-05
-1.1601e-07
1.28562e-05
-1.19838e-07
1.28754e-05
-1.20982e-07
1.28932e-05
-1.20308e-07
1.29094e-05
-1.18473e-07
1.29239e-05
-1.1596e-07
1.29368e-05
-1.13131e-07
1.29482e-05
-1.10238e-07
1.29581e-05
-1.07432e-07
1.29667e-05
-1.04773e-07
1.29741e-05
-1.0223e-07
1.29802e-05
-9.98135e-08
-9.77321e-08
1.29852e-05
1.10969e-05
-2.62469e-08
1.11113e-05
-6.87977e-08
1.11295e-05
-9.74856e-08
1.11496e-05
-1.16614e-07
1.11703e-05
-1.29244e-07
1.11907e-05
-1.3644e-07
1.12101e-05
-1.39223e-07
1.1228e-05
-1.38858e-07
1.12441e-05
-1.3645e-07
1.12584e-05
-1.32803e-07
1.1271e-05
-1.28492e-07
1.12818e-05
-1.2395e-07
1.1291e-05
-1.19479e-07
1.12988e-05
-1.15255e-07
1.13054e-05
-1.11376e-07
1.1311e-05
-1.07808e-07
1.13157e-05
-1.04455e-07
-1.0142e-07
1.13193e-05
9.66269e-06
-3.37227e-08
9.67918e-06
-8.52875e-08
9.69859e-06
-1.16899e-07
9.71897e-06
-1.36989e-07
9.73951e-06
-1.49783e-07
9.7593e-06
-1.56231e-07
9.77763e-06
-1.57554e-07
9.79412e-06
-1.55352e-07
9.80866e-06
-1.50983e-07
9.82121e-06
-1.45361e-07
9.83186e-06
-1.39133e-07
9.84072e-06
-1.32812e-07
9.84799e-06
-1.26749e-07
9.85387e-06
-1.2114e-07
9.85863e-06
-1.16135e-07
9.86249e-06
-1.11671e-07
9.8656e-06
-1.07566e-07
-1.038e-07
9.86798e-06
8.41508e-06
-4.3453e-08
8.43391e-06
-1.04114e-07
8.45416e-06
-1.37155e-07
8.47456e-06
-1.57387e-07
8.49465e-06
-1.69874e-07
8.51362e-06
-1.75194e-07
8.53086e-06
-1.74795e-07
8.54611e-06
-1.70606e-07
8.55935e-06
-1.64215e-07
8.57052e-06
-1.56535e-07
8.57965e-06
-1.48268e-07
8.58691e-06
-1.40071e-07
8.59252e-06
-1.3236e-07
8.59669e-06
-1.25309e-07
8.59969e-06
-1.19134e-07
8.60182e-06
-1.13794e-07
8.60329e-06
-1.09043e-07
-1.04808e-07
8.6043e-06
7.33042e-06
-5.65882e-08
7.35169e-06
-1.25381e-07
7.37231e-06
-1.57777e-07
7.39257e-06
-1.77651e-07
7.41245e-06
-1.89753e-07
7.43113e-06
-1.93869e-07
7.44808e-06
-1.91748e-07
7.463e-06
-1.85525e-07
7.47566e-06
-1.76873e-07
7.48594e-06
-1.66817e-07
7.4939e-06
-1.56232e-07
7.4998e-06
-1.45967e-07
7.50393e-06
-1.36493e-07
7.50662e-06
-1.27994e-07
7.50808e-06
-1.20602e-07
7.50861e-06
-1.14323e-07
7.50857e-06
-1.08996e-07
-1.04576e-07
7.50833e-06
6.38816e-06
-7.46776e-08
6.41299e-06
-1.50214e-07
6.4351e-06
-1.79892e-07
6.4571e-06
-1.99652e-07
6.47885e-06
-2.11495e-07
6.49932e-06
-2.14343e-07
6.51797e-06
-2.10399e-07
6.53424e-06
-2.01796e-07
6.54748e-06
-1.90115e-07
6.55753e-06
-1.76864e-07
6.56463e-06
-1.63331e-07
6.56911e-06
-1.50451e-07
6.57137e-06
-1.38753e-07
6.57187e-06
-1.28493e-07
6.57117e-06
-1.19901e-07
6.56979e-06
-1.12941e-07
6.56798e-06
-1.07187e-07
-1.02525e-07
6.56593e-06
5.57484e-06
-1.04054e-07
5.6097e-06
-1.8507e-07
5.64196e-06
-2.12152e-07
5.67422e-06
-2.31911e-07
5.70408e-06
-2.4136e-07
5.72962e-06
-2.39879e-07
5.7496e-06
-2.30378e-07
5.76334e-06
-2.15542e-07
5.77101e-06
-1.97784e-07
5.77316e-06
-1.79016e-07
5.7703e-06
-1.60473e-07
5.76305e-06
-1.43192e-07
5.75209e-06
-1.27801e-07
5.73818e-06
-1.14577e-07
5.72186e-06
-1.03587e-07
5.70363e-06
-9.47119e-08
5.68405e-06
-8.76016e-08
-8.21865e-08
5.66371e-06
4.91699e-06
-1.93438e-07
4.9804e-06
-2.48481e-07
5.01574e-06
-2.47496e-07
5.02513e-06
-2.41296e-07
5.01e-06
-2.26229e-07
4.97429e-06
-2.04171e-07
4.9228e-06
-1.78886e-07
4.86012e-06
-1.52864e-07
4.79013e-06
-1.27794e-07
4.71589e-06
-1.04777e-07
4.63979e-06
-8.43724e-08
4.56349e-06
-6.68914e-08
4.48809e-06
-5.23999e-08
4.41427e-06
-4.0757e-08
4.34238e-06
-3.16984e-08
4.27257e-06
-2.48966e-08
4.20497e-06
-2.00049e-08
-1.65369e-08
4.13932e-06
4.00924e-06
3.76076e-06
3.51326e-06
3.27197e-06
3.04574e-06
2.84157e-06
2.66268e-06
2.50982e-06
2.38202e-06
2.27724e-06
2.19287e-06
2.12598e-06
2.07358e-06
2.03282e-06
2.00113e-06
1.97623e-06
1.95622e-06
1.93969e-06
4.49799e-08
-4.49799e-08
1.05999e-07
-6.1019e-08
1.82387e-07
-7.63883e-08
2.76024e-07
-9.36365e-08
3.88031e-07
-1.12008e-07
5.17271e-07
-1.2924e-07
6.60512e-07
-1.43241e-07
8.1381e-07
-1.53298e-07
9.73515e-07
-1.59705e-07
1.13639e-06
-1.62879e-07
1.29957e-06
-1.63171e-07
1.46049e-06
-1.6092e-07
1.61695e-06
-1.56466e-07
1.76708e-06
-1.50125e-07
1.9092e-06
-1.42119e-07
2.0417e-06
-1.32509e-07
2.16333e-06
-1.2162e-07
2.27328e-06
-1.09956e-07
2.3712e-06
-9.79216e-08
2.45704e-06
-8.58369e-08
2.531e-06
-7.39567e-08
2.59346e-06
-6.24621e-08
2.64491e-06
-5.14517e-08
2.68585e-06
-4.09412e-08
2.71671e-06
-3.08557e-08
2.73772e-06
-2.10131e-08
2.74882e-06
-1.10948e-08
2.74948e-06
-6.63479e-10
2.73875e-06
1.07307e-08
2.71662e-06
2.21302e-08
2.68355e-06
3.30634e-08
2.64044e-06
4.31113e-08
2.58848e-06
5.19594e-08
2.52912e-06
5.93625e-08
2.46386e-06
6.52562e-08
2.39409e-06
6.97762e-08
2.3208e-06
7.32921e-08
2.24439e-06
7.64076e-08
2.16456e-06
7.98328e-08
2.08036e-06
8.42012e-08
1.99054e-06
8.98168e-08
1.894e-06
9.65432e-08
1.79014e-06
1.03852e-07
1.67923e-06
1.10912e-07
1.56252e-06
1.16713e-07
1.44141e-06
1.21112e-07
1.31681e-06
1.24598e-07
1.19024e-06
1.26565e-07
1.06706e-06
1.23188e-07
9.62586e-07
1.04469e-07
9.07532e-07
5.50544e-08
9.37451e-07
-2.99188e-08
1.05773e-06
-1.20278e-07
1.22064e-06
-1.6291e-07
1.33265e-06
-1.12015e-07
1.30856e-06
2.40916e-08
1.1343e-06
1.74259e-07
8.42726e-07
2.91578e-07
4.50599e-07
3.92127e-07
-4.32656e-08
4.93864e-07
-6.3722e-07
5.93954e-07
-1.31743e-06
6.80205e-07
-2.06127e-06
7.43848e-07
-2.8427e-06
7.81426e-07
-3.63543e-06
7.92727e-07
-4.41499e-06
7.79565e-07
-5.15988e-06
7.44886e-07
-5.85208e-06
6.92204e-07
-6.47735e-06
6.25265e-07
-7.02466e-06
5.47315e-07
-7.48467e-06
4.60012e-07
-7.85139e-06
3.66713e-07
-8.12268e-06
2.71298e-07
-8.2986e-06
1.75914e-07
-8.38233e-06
8.37339e-08
-8.37822e-06
-4.11548e-09
-8.30658e-06
-7.164e-08
-8.17676e-06
-1.29818e-07
-7.99716e-06
-1.79602e-07
-7.77477e-06
-2.22383e-07
-7.5157e-06
-2.59073e-07
-7.22563e-06
-2.90066e-07
-6.90981e-06
-3.15829e-07
-6.57312e-06
-3.36681e-07
-6.21974e-06
-3.53384e-07
-5.85356e-06
-3.66184e-07
-5.47831e-06
-3.75245e-07
-5.09734e-06
-3.80974e-07
-4.71321e-06
-3.84127e-07
-4.32806e-06
-3.85149e-07
-3.94359e-06
-3.84477e-07
-3.561e-06
-3.82581e-07
-3.18112e-06
-3.79889e-07
-2.80439e-06
-3.7673e-07
-2.43111e-06
-3.73273e-07
-2.06168e-06
-3.69431e-07
-1.69693e-06
-3.64756e-07
-1.33856e-06
-3.58368e-07
-9.89202e-07
-3.49356e-07
-6.51062e-07
-3.3814e-07
-3.21281e-07
-3.29781e-07
3.78462e-09
-3.25066e-07
3.21123e-07
-3.17339e-07
6.27796e-07
-3.06672e-07
9.24464e-07
-2.96668e-07
1.20986e-06
-2.85396e-07
1.48042e-06
-2.70564e-07
1.7343e-06
-2.53873e-07
1.97058e-06
-2.36287e-07
2.18811e-06
-2.17524e-07
2.3858e-06
-1.97691e-07
2.56279e-06
-1.76995e-07
2.7182e-06
-1.55402e-07
2.8507e-06
-1.32504e-07
2.9585e-06
-1.07799e-07
3.03834e-06
-7.98362e-08
3.08542e-06
-4.70835e-08
3.09342e-06
-7.99723e-09
3.06799e-06
2.54301e-08
3.01663e-06
5.13537e-08
2.94639e-06
7.024e-08
2.86311e-06
8.32846e-08
2.77017e-06
9.29388e-08
2.67151e-06
9.86557e-08
2.57353e-06
9.79875e-08
2.48525e-06
8.82804e-08
2.41761e-06
6.76354e-08
2.38168e-06
3.59353e-08
2.38564e-06
-3.96038e-09
2.41816e-06
-3.25196e-08
2.44224e-06
-2.40831e-08
2.3993e-06
4.29414e-08
2.24479e-06
1.54502e-07
1.93804e-06
3.06759e-07
1.43913e-06
4.98907e-07
7.38274e-07
7.00855e-07
-1.07857e-07
8.46131e-07
-1.01006e-06
9.02203e-07
-1.88452e-06
8.74461e-07
-2.6651e-06
7.80575e-07
-3.3105e-06
6.45406e-07
-3.79572e-06
4.8522e-07
-4.10659e-06
3.10869e-07
-4.24121e-06
1.34624e-07
-4.21284e-06
-2.83706e-08
-4.04316e-06
-1.69683e-07
-3.74515e-06
-2.9801e-07
-3.32921e-06
-4.15939e-07
-2.8075e-06
-5.21712e-07
-2.19542e-06
-6.12075e-07
-1.51498e-06
-6.80448e-07
-7.92357e-07
-7.22619e-07
-4.1489e-08
-7.50868e-07
7.18227e-07
-7.59716e-07
1.46524e-06
-7.47015e-07
2.18079e-06
-7.15551e-07
2.84167e-06
-6.60877e-07
3.42965e-06
-5.8798e-07
3.93701e-06
-5.07358e-07
4.36185e-06
-4.24846e-07
4.70553e-06
-3.43678e-07
4.96935e-06
-2.63818e-07
5.15367e-06
-1.84325e-07
5.26019e-06
-1.06519e-07
5.28345e-06
-2.32542e-08
5.2356e-06
4.78528e-08
5.12016e-06
1.15434e-07
4.94594e-06
1.74218e-07
4.72041e-06
2.25538e-07
4.4526e-06
2.6781e-07
4.15423e-06
2.98363e-07
3.83896e-06
3.15274e-07
3.5195e-06
3.19458e-07
3.20825e-06
3.11255e-07
2.91428e-06
2.93962e-07
2.64107e-06
2.73217e-07
2.38511e-06
2.55954e-07
2.13623e-06
2.4888e-07
1.88045e-06
2.55779e-07
2.62597e-07
1.61786e-06
6.56212e-08
-1.10601e-07
1.52148e-07
-1.47546e-07
2.58864e-07
-1.83104e-07
3.84333e-07
-2.19106e-07
5.25633e-07
-2.53308e-07
6.79465e-07
-2.83072e-07
8.4288e-07
-3.06656e-07
1.01298e-06
-3.23394e-07
1.18673e-06
-3.33462e-07
1.36122e-06
-3.37368e-07
1.53374e-06
-3.35689e-07
1.70183e-06
-3.29013e-07
1.86318e-06
-3.17815e-07
2.01569e-06
-3.0263e-07
2.15782e-06
-2.84251e-07
2.28904e-06
-2.63725e-07
2.4092e-06
-2.41781e-07
2.51827e-06
-2.1903e-07
2.61637e-06
-1.96024e-07
2.70378e-06
-1.73241e-07
2.78089e-06
-1.51068e-07
2.84822e-06
-1.29796e-07
2.9064e-06
-1.09626e-07
2.95611e-06
-9.06548e-08
2.99813e-06
-7.28782e-08
3.03332e-06
-5.61988e-08
3.06267e-06
-4.04491e-08
3.08745e-06
-2.54435e-08
3.10889e-06
-1.07089e-08
3.12675e-06
4.27214e-09
3.13992e-06
1.98894e-08
3.14698e-06
3.60573e-08
3.14615e-06
5.27877e-08
3.13557e-06
6.99399e-08
3.11354e-06
8.72847e-08
3.07875e-06
1.04569e-07
3.03045e-06
1.21593e-07
2.96859e-06
1.38268e-07
2.8938e-06
1.54619e-07
2.80738e-06
1.70623e-07
2.71112e-06
1.86083e-07
2.60711e-06
2.00551e-07
2.49766e-06
2.13303e-07
2.38514e-06
2.23428e-07
2.2717e-06
2.30156e-07
2.15927e-06
2.33542e-07
2.04933e-06
2.34534e-07
1.94222e-06
2.33679e-07
1.8366e-06
2.28802e-07
1.73053e-06
2.10547e-07
1.62482e-06
1.6076e-07
1.5195e-06
7.54066e-08
1.39256e-06
6.66131e-09
1.19112e-06
3.85277e-08
8.60071e-07
2.19032e-07
3.90027e-07
4.94136e-07
-2.21061e-07
7.85347e-07
-9.72693e-07
1.04321e-06
-1.84167e-06
1.26111e-06
-2.78378e-06
1.43597e-06
-3.74972e-06
1.55989e-06
-4.69645e-06
1.62694e-06
-5.58993e-06
1.63732e-06
-6.40497e-06
1.59647e-06
-7.12499e-06
1.51274e-06
-7.74101e-06
1.39558e-06
-8.25042e-06
1.2543e-06
-8.65557e-06
1.09735e-06
-8.96226e-06
9.31957e-07
-9.17871e-06
7.63758e-07
-9.31547e-06
5.96775e-07
-9.38325e-06
4.3449e-07
-9.39208e-06
2.80131e-07
-9.35154e-06
1.35375e-07
-9.27256e-06
4.75853e-09
-9.1565e-06
-1.20178e-07
-8.99761e-06
-2.30537e-07
-8.79531e-06
-3.32117e-07
-8.55197e-06
-4.22934e-07
-8.27154e-06
-5.02821e-07
-7.9587e-06
-5.71907e-07
-7.61843e-06
-6.30343e-07
-7.25529e-06
-6.78961e-07
-6.87377e-06
-7.18206e-07
-6.47808e-06
-7.49075e-07
-6.07186e-06
-7.72403e-07
-5.65828e-06
-7.88826e-07
-5.24026e-06
-7.98992e-07
-4.82097e-06
-8.0341e-07
-4.40301e-06
-8.03117e-07
-3.98828e-06
-7.99202e-07
-3.57822e-06
-7.92641e-07
-3.17379e-06
-7.84317e-07
-2.77558e-06
-7.74945e-07
-2.38387e-06
-7.64985e-07
-1.99875e-06
-7.54542e-07
-1.6202e-06
-7.43314e-07
-1.24788e-06
-7.30683e-07
-8.80983e-07
-7.16254e-07
-5.18109e-07
-7.01013e-07
-1.60184e-07
-6.87707e-07
1.88593e-07
-6.73843e-07
5.26244e-07
-6.5499e-07
8.51695e-07
-6.32123e-07
1.16247e-06
-6.07442e-07
1.45823e-06
-5.81157e-07
1.7389e-06
-5.51232e-07
2.00379e-06
-5.18762e-07
2.2528e-06
-4.85305e-07
2.48615e-06
-4.50871e-07
2.70412e-06
-4.15659e-07
2.9069e-06
-3.79772e-07
3.09416e-06
-3.42667e-07
3.26523e-06
-3.03575e-07
3.41905e-06
-2.6162e-07
3.555e-06
-2.15781e-07
3.67362e-06
-1.6571e-07
3.77803e-06
-1.12404e-07
3.86151e-06
-5.80459e-08
3.91929e-06
-6.42597e-09
3.93805e-06
5.14789e-08
3.91722e-06
1.04113e-07
3.85513e-06
1.55029e-07
3.75267e-06
2.0112e-07
3.61479e-06
2.35862e-07
3.45386e-06
2.49214e-07
3.29245e-06
2.29039e-07
3.16274e-06
1.65653e-07
3.09206e-06
6.67137e-08
3.08181e-06
-2.22705e-08
3.07829e-06
-2.05578e-08
2.99477e-06
1.26461e-07
2.70757e-06
4.41705e-07
2.12779e-06
8.86534e-07
1.24143e-06
1.38526e-06
1.40102e-07
1.80219e-06
-9.9823e-07
1.98446e-06
-2.03632e-06
1.94029e-06
-2.8914e-06
1.72954e-06
-3.53869e-06
1.42787e-06
-3.98627e-06
1.09298e-06
-4.25869e-06
7.57634e-07
-4.38476e-06
4.36946e-07
-4.38834e-06
1.38198e-07
-4.27961e-06
-1.371e-07
-4.05365e-06
-3.95642e-07
-3.7124e-06
-6.39264e-07
-3.26331e-06
-8.65026e-07
-2.71545e-06
-1.06957e-06
-2.08009e-06
-1.24744e-06
-1.36883e-06
-1.39171e-06
-5.95094e-07
-1.49636e-06
2.18566e-07
-1.56453e-06
1.04244e-06
-1.58359e-06
1.85346e-06
-1.55804e-06
2.63039e-06
-1.49248e-06
3.35602e-06
-1.38651e-06
4.0208e-06
-1.25276e-06
4.61716e-06
-1.10371e-06
5.13848e-06
-9.4617e-07
5.58003e-06
-7.8523e-07
5.93671e-06
-6.20492e-07
6.20164e-06
-4.49258e-07
6.36975e-06
-2.74631e-07
6.45112e-06
-1.04621e-07
6.43561e-06
6.33649e-08
6.3297e-06
2.21338e-07
6.13624e-06
3.67681e-07
5.86421e-06
4.97572e-07
5.52773e-06
6.04286e-07
5.14448e-06
6.81609e-07
4.73585e-06
7.2391e-07
4.32389e-06
7.31415e-07
3.92655e-06
7.08593e-07
3.55726e-06
6.6325e-07
3.22214e-06
6.08343e-07
2.91777e-06
5.60321e-07
2.6314e-06
5.35248e-07
2.34484e-06
5.4234e-07
5.61357e-07
2.04608e-06
7.80749e-08
-1.88676e-07
1.8416e-07
-2.53631e-07
3.14102e-07
-3.13046e-07
4.6425e-07
-3.69254e-07
6.29042e-07
-4.181e-07
8.03023e-07
-4.57053e-07
9.81981e-07
-4.85614e-07
1.16277e-06
-5.04186e-07
1.34266e-06
-5.13348e-07
1.51914e-06
-5.13848e-07
1.68994e-06
-5.06491e-07
1.85297e-06
-4.92046e-07
2.00652e-06
-4.71361e-07
2.14954e-06
-4.45652e-07
2.28163e-06
-4.16339e-07
2.40252e-06
-3.84617e-07
2.51214e-06
-3.514e-07
2.61062e-06
-3.1751e-07
2.69829e-06
-2.8369e-07
2.77563e-06
-2.50589e-07
2.84332e-06
-2.18751e-07
2.90212e-06
-1.88597e-07
2.95291e-06
-1.60421e-07
2.99663e-06
-1.34369e-07
3.03418e-06
-1.10435e-07
3.06645e-06
-8.84659e-08
3.09418e-06
-6.81777e-08
3.11794e-06
-4.92083e-08
3.13833e-06
-3.10967e-08
3.15585e-06
-1.32434e-08
3.17071e-06
5.03126e-09
3.1824e-06
2.43652e-08
3.1899e-06
4.52813e-08
3.1917e-06
6.81481e-08
3.18584e-06
9.31408e-08
3.17021e-06
1.20196e-07
3.14279e-06
1.49017e-07
3.10195e-06
1.79102e-07
3.0468e-06
2.09773e-07
2.97723e-06
2.40191e-07
2.89394e-06
2.69375e-07
2.79828e-06
2.9621e-07
2.69208e-06
3.19502e-07
2.57733e-06
3.38178e-07
2.45569e-06
3.51793e-07
2.32842e-06
3.6082e-07
2.1962e-06
3.6675e-07
2.05829e-06
3.71595e-07
1.9099e-06
3.77183e-07
1.73893e-06
3.8152e-07
1.52798e-06
3.71713e-07
1.251e-06
3.52383e-07
8.55019e-07
4.02642e-07
2.78418e-07
6.15129e-07
-4.68896e-07
9.66345e-07
-1.33115e-06
1.35639e-06
-2.26095e-06
1.71515e-06
-3.22365e-06
2.00591e-06
-4.17602e-06
2.21348e-06
-5.07382e-06
2.33377e-06
-5.88416e-06
2.37022e-06
-6.58977e-06
2.33256e-06
-7.18721e-06
2.23476e-06
-7.6828e-06
2.09206e-06
-8.08853e-06
1.91846e-06
-8.41838e-06
1.72544e-06
-8.68557e-06
1.52149e-06
-8.90064e-06
1.31243e-06
-9.07064e-06
1.10195e-06
-9.19922e-06
8.92344e-07
-9.28768e-06
6.85231e-07
-9.33533e-06
4.82137e-07
-9.33988e-06
2.84686e-07
-9.2991e-06
9.45954e-08
-9.20885e-06
-8.5492e-08
-9.07329e-06
-2.55735e-07
-8.89064e-06
-4.13191e-07
-8.66621e-06
-5.56551e-07
-8.40429e-06
-6.84852e-07
-8.10908e-06
-7.98033e-07
-7.78468e-06
-8.96298e-07
-7.43541e-06
-9.79616e-07
-7.06519e-06
-1.04918e-06
-6.6774e-06
-1.10601e-06
-6.27635e-06
-1.15012e-06
-5.86613e-06
-1.18262e-06
-5.45014e-06
-1.20481e-06
-5.03135e-06
-1.21778e-06
-4.61222e-06
-1.22254e-06
-4.19476e-06
-1.22058e-06
-3.78059e-06
-1.21337e-06
-3.37092e-06
-1.20232e-06
-2.96647e-06
-1.18877e-06
-2.56754e-06
-1.17387e-06
-2.17406e-06
-1.15846e-06
-1.7857e-06
-1.14291e-06
-1.40201e-06
-1.12701e-06
-1.02253e-06
-1.11016e-06
-6.47121e-07
-1.09167e-06
-2.76721e-07
-1.07141e-06
8.51392e-08
-1.04957e-06
4.35607e-07
-1.02431e-06
7.74308e-07
-9.93691e-07
1.09988e-06
-9.57691e-07
1.40974e-06
-9.17304e-07
1.70158e-06
-8.72998e-07
1.97459e-06
-8.24237e-07
2.22872e-06
-7.72894e-07
2.46566e-06
-7.22248e-07
2.6882e-06
-6.73414e-07
2.89757e-06
-6.25021e-07
3.09394e-06
-5.7615e-07
3.27747e-06
-5.26197e-07
3.44831e-06
-4.74418e-07
3.60666e-06
-4.19965e-07
3.75291e-06
-3.62035e-07
3.88771e-06
-3.00506e-07
4.01156e-06
-2.36256e-07
4.12418e-06
-1.70659e-07
4.22225e-06
-1.045e-07
4.30791e-06
-3.4178e-08
4.37314e-06
3.88843e-08
4.40886e-06
1.19301e-07
4.40293e-06
2.07055e-07
4.3432e-06
2.95589e-07
4.22471e-06
3.67709e-07
4.05763e-06
3.96115e-07
3.86976e-06
3.53525e-07
3.69629e-06
2.40183e-07
3.55316e-06
1.20856e-07
3.40413e-06
1.28471e-07
3.13887e-06
3.91721e-07
2.6325e-06
9.4808e-07
1.81452e-06
1.70452e-06
7.45573e-07
2.45421e-06
-3.89419e-07
2.93718e-06
-1.41837e-06
3.01341e-06
-2.25927e-06
2.7812e-06
-2.90683e-06
2.3771e-06
-3.38766e-06
1.9087e-06
-3.72914e-06
1.43447e-06
-3.94856e-06
9.77046e-07
-4.05378e-06
5.4217e-07
-4.04164e-06
1.26064e-07
-3.91716e-06
-2.61586e-07
-3.67897e-06
-6.33827e-07
-3.33274e-06
-9.85498e-07
-2.88294e-06
-1.31483e-06
-2.33377e-06
-1.61874e-06
-1.69408e-06
-1.88713e-06
-9.76916e-07
-2.10887e-06
-1.98017e-07
-2.27526e-06
6.13335e-07
-2.37588e-06
1.43749e-06
-2.40774e-06
2.25039e-06
-2.37095e-06
3.03089e-06
-2.27297e-06
3.76693e-06
-2.12255e-06
4.45042e-06
-1.93625e-06
5.0747e-06
-1.72799e-06
5.63527e-06
-1.50674e-06
6.12955e-06
-1.27952e-06
6.55603e-06
-1.04697e-06
6.91249e-06
-8.05716e-07
7.19372e-06
-5.55865e-07
7.38539e-06
-2.9629e-07
7.47197e-06
-2.32118e-08
7.44688e-06
2.46427e-07
7.30119e-06
5.1337e-07
7.0387e-06
7.60063e-07
6.67143e-06
9.71553e-07
6.22124e-06
1.1318e-06
5.71699e-06
1.22816e-06
5.1915e-06
1.25691e-06
4.67632e-06
1.22377e-06
4.19626e-06
1.14331e-06
3.76479e-06
1.03982e-06
3.38236e-06
9.42742e-07
3.03634e-06
8.81268e-07
2.7088e-06
8.69881e-07
8.83621e-07
2.38654e-06
9.38233e-08
-2.82499e-07
2.21747e-07
-3.81555e-07
3.75058e-07
-4.66358e-07
5.4599e-07
-5.40186e-07
7.2682e-07
-5.98929e-07
9.11503e-07
-6.41736e-07
1.09601e-06
-6.70125e-07
1.27761e-06
-6.85783e-07
1.45407e-06
-6.89803e-07
1.62341e-06
-6.83196e-07
1.78392e-06
-6.66999e-07
1.93429e-06
-6.42412e-07
2.07395e-06
-6.11023e-07
2.20265e-06
-5.74356e-07
2.32013e-06
-5.3382e-07
2.42618e-06
-4.90663e-07
2.52083e-06
-4.46044e-07
2.60434e-06
-4.01029e-07
2.67725e-06
-3.56593e-07
2.74026e-06
-3.13602e-07
2.7943e-06
-2.7279e-07
2.84044e-06
-2.34733e-07
2.87984e-06
-1.99825e-07
2.91373e-06
-1.68254e-07
2.94328e-06
-1.3999e-07
2.96961e-06
-1.14793e-07
2.99367e-06
-9.22349e-08
3.01617e-06
-7.17123e-08
3.03753e-06
-5.24521e-08
3.05785e-06
-3.35637e-08
3.07702e-06
-1.41439e-08
3.09464e-06
6.74713e-09
3.10968e-06
3.02384e-08
3.12097e-06
5.68595e-08
3.12686e-06
8.72508e-08
3.1254e-06
1.21653e-07
3.11444e-06
1.59982e-07
3.09175e-06
2.01793e-07
3.05526e-06
2.46259e-07
3.00328e-06
2.92172e-07
2.93466e-06
3.37999e-07
2.8488e-06
3.82062e-07
2.7455e-06
4.22806e-07
2.62441e-06
4.59272e-07
2.48443e-06
4.91766e-07
2.3242e-06
5.21055e-07
2.14231e-06
5.48642e-07
1.93501e-06
5.78892e-07
1.69159e-06
6.20605e-07
1.39308e-06
6.80029e-07
1.01527e-06
7.4952e-07
5.09869e-07
8.57786e-07
-1.9004e-07
1.10255e-06
-1.07169e-06
1.49678e-06
-2.04662e-06
1.94128e-06
-3.03411e-06
2.34387e-06
-3.97693e-06
2.65797e-06
-4.83568e-06
2.86467e-06
-5.58507e-06
2.96287e-06
-6.21567e-06
2.96437e-06
-6.73364e-06
2.88819e-06
-7.15634e-06
2.75526e-06
-7.5059e-06
2.58432e-06
-7.80343e-06
2.3896e-06
-8.06514e-06
2.18017e-06
-8.30056e-06
1.96086e-06
-8.51269e-06
1.73363e-06
-8.69941e-06
1.49914e-06
-8.85539e-06
1.25793e-06
-8.97418e-06
1.01114e-06
-9.04982e-06
7.60867e-07
-9.07787e-06
5.10187e-07
-9.05605e-06
2.62869e-07
-8.98357e-06
2.21157e-08
-8.86234e-06
-2.0672e-07
-8.69574e-06
-4.22342e-07
-8.48761e-06
-6.21314e-07
-8.24265e-06
-8.01516e-07
-7.96533e-06
-9.62171e-07
-7.66006e-06
-1.10331e-06
-7.33048e-06
-1.22588e-06
-6.97982e-06
-1.33027e-06
-6.61276e-06
-1.41624e-06
-6.23383e-06
-1.48494e-06
-5.84655e-06
-1.5374e-06
-5.45383e-06
-1.57535e-06
-5.05816e-06
-1.60048e-06
-4.66157e-06
-1.61438e-06
-4.26547e-06
-1.61864e-06
-3.87106e-06
-1.615e-06
-3.47918e-06
-1.60525e-06
-3.09032e-06
-1.59117e-06
-2.70456e-06
-1.57453e-06
-2.3215e-06
-1.55694e-06
-1.94028e-06
-1.53968e-06
-1.55978e-06
-1.5234e-06
-1.179e-06
-1.50779e-06
-7.97568e-07
-1.49159e-06
-4.16337e-07
-1.4729e-06
-3.78392e-08
-1.44991e-06
3.33688e-07
-1.42109e-06
6.94411e-07
-1.38503e-06
1.04133e-06
-1.3406e-06
1.37139e-06
-1.28775e-06
1.68156e-06
-1.22748e-06
1.96958e-06
-1.16102e-06
2.23493e-06
-1.08959e-06
2.47791e-06
-1.01588e-06
2.69976e-06
-9.44097e-07
2.90366e-06
-8.77308e-07
3.09307e-06
-8.14432e-07
3.26985e-06
-7.52935e-07
3.43499e-06
-6.9133e-07
3.58923e-06
-6.28664e-07
3.73326e-06
-5.63993e-07
3.86777e-06
-4.96549e-07