/*--------------------------------*- C++ -*----------------------------------*\
| =========                 |                                                 |
| \\      /  F ield         | OpenFOAM: The Open Source CFD Toolbox           |
|  \\    /   O peration     | Version:  2112                                  |
|   \\  /    A nd           | Website:  www.openfoam.com                      |
|    \\/     M anipulation  |                                                 |
\*---------------------------------------------------------------------------*/
FoamFile
{
    version     2.0;
    format      ascii;
    arch        "LSB;label=32;scalar=64";
    class       volVectorField;
    location    "0.33";
    object      U;
}
// * * * * * * * * * * * * * * * * * * * * * * * * * * * * * * * * * * * * * //

dimensions      [0 1 -1 0 0 0 0];

internalField   nonuniform List<vector> 
12225
(
(9.62255 0.110372 0)
(8.81164 0.172956 0)
(7.96983 0.172443 0)
(7.18145 0.153885 0)
(6.51233 0.126935 0)
(5.97986 0.0971592 0)
(5.5761 0.0696232 0)
(5.28435 0.0470667 0)
(5.08264 0.0302258 0)
(4.94728 0.0187459 0)
(4.85729 0.0116026 0)
(4.79672 0.00773522 0)
(4.75433 0.00626228 0)
(4.72293 0.00630374 0)
(4.69736 0.00721458 0)
(4.67755 0.00896844 0)
(4.64304 0.0260196 0)
(4.60561 -0.00581355 0)
(10.1386 0.121981 0)
(10.3669 0.185046 0)
(10.4435 0.192797 0)
(10.3857 0.191584 0)
(10.2345 0.180589 0)
(10.0229 0.160261 0)
(9.77652 0.135046 0)
(9.51584 0.109265 0)
(9.25476 0.08601 0)
(9.0009 0.0667853 0)
(8.75807 0.0517133 0)
(8.52834 0.0403129 0)
(8.31269 0.031828 0)
(8.1118 0.0257035 0)
(7.92426 0.0210335 0)
(7.75032 0.0193102 0)
(7.59546 0.0193788 0)
(7.47627 0.0450099 0)
(10.0378 0.0790408 0)
(10.1432 0.134854 0)
(10.2437 0.158863 0)
(10.3255 0.176469 0)
(10.387 0.183367 0)
(10.4256 0.179652 0)
(10.4371 0.169576 0)
(10.4229 0.157322 0)
(10.388 0.145863 0)
(10.3378 0.136697 0)
(10.2769 0.129964 0)
(10.2088 0.125204 0)
(10.1361 0.121817 0)
(10.0605 0.119115 0)
(9.98457 0.116724 0)
(9.9095 0.114462 0)
(9.8408 0.112372 0)
(9.77023 0.102719 0)
(10.0197 0.0618263 0)
(10.0834 0.119454 0)
(10.1471 0.144777 0)
(10.2021 0.159764 0)
(10.2536 0.165934 0)
(10.2978 0.163489 0)
(10.3311 0.155456 0)
(10.3535 0.145387 0)
(10.3666 0.135558 0)
(10.3753 0.127414 0)
(10.3807 0.121251 0)
(10.3838 0.116832 0)
(10.3856 0.113742 0)
(10.3868 0.11146 0)
(10.3879 0.109368 0)
(10.3896 0.106745 0)
(10.3935 0.102815 0)
(10.397 0.0910275 0)
(10.0121 0.0508966 0)
(10.0607 0.106726 0)
(10.1124 0.132111 0)
(10.1575 0.146581 0)
(10.1997 0.153064 0)
(10.2375 0.151832 0)
(10.2687 0.145807 0)
(10.2931 0.138003 0)
(10.3118 0.130388 0)
(10.3258 0.123635 0)
(10.3373 0.117945 0)
(10.348 0.113436 0)
(10.359 0.109776 0)
(10.3714 0.10683 0)
(10.3854 0.103901 0)
(10.4008 0.100239 0)
(10.4179 0.0949729 0)
(10.4361 0.0858028 0)
(10.0083 0.0417563 0)
(10.0464 0.0936149 0)
(10.0916 0.119449 0)
(10.1323 0.134147 0)
(10.17 0.14117 0)
(10.2047 0.14142 0)
(10.2347 0.137121 0)
(10.2597 0.130768 0)
(10.2806 0.124065 0)
(10.2978 0.117787 0)
(10.313 0.112446 0)
(10.3273 0.108007 0)
(10.3415 0.104215 0)
(10.3561 0.100531 0)
(10.3718 0.0964466 0)
(10.3888 0.0915551 0)
(10.4071 0.0851667 0)
(10.4262 0.0757908 0)
(10.006 0.034554 0)
(10.0362 0.0812113 0)
(10.0755 0.106669 0)
(10.1129 0.121548 0)
(10.1477 0.129082 0)
(10.1801 0.130259 0)
(10.2087 0.127067 0)
(10.2335 0.121767 0)
(10.2551 0.11606 0)
(10.2746 0.110723 0)
(10.2925 0.105892 0)
(10.3097 0.101565 0)
(10.3264 0.097549 0)
(10.3428 0.093264 0)
(10.3597 0.0884797 0)
(10.3774 0.0827752 0)
(10.396 0.0755586 0)
(10.4151 0.0658581 0)
(10.0045 0.0287357 0)
(10.0285 0.0702538 0)
(10.0625 0.0945633 0)
(10.0965 0.109118 0)
(10.1287 0.116833 0)
(10.1589 0.118686 0)
(10.1862 0.116415 0)
(10.2101 0.111979 0)
(10.2315 0.106864 0)
(10.2513 0.1018 0)
(10.2701 0.0969771 0)
(10.2883 0.0924355 0)
(10.3064 0.0880908 0)
(10.3245 0.0835415 0)
(10.3427 0.078278 0)
(10.3612 0.0718714 0)
(10.38 0.063884 0)
(10.3991 0.0538115 0)
(10.0035 0.0238992 0)
(10.0227 0.0604063 0)
(10.052 0.083155 0)
(10.0826 0.0971019 0)
(10.1121 0.104758 0)
(10.1402 0.107097 0)
(10.1659 0.105588 0)
(10.189 0.101878 0)
(10.2098 0.097215 0)
(10.2291 0.0922821 0)
(10.2476 0.0873582 0)
(10.2656 0.0825236 0)
(10.2836 0.0777036 0)
(10.3018 0.0725695 0)
(10.3203 0.0666894 0)
(10.3389 0.0596824 0)
(10.3576 0.051179 0)
(10.3762 0.0408833 0)
(10.0027 0.0198423 0)
(10.0182 0.0514863 0)
(10.0433 0.0723487 0)
(10.0706 0.0854859 0)
(10.0976 0.0929129 0)
(10.1235 0.0955472 0)
(10.1477 0.0946153 0)
(10.1697 0.0914973 0)
(10.1899 0.0872569 0)
(10.2087 0.0825117 0)
(10.2266 0.0775493 0)
(10.2441 0.072457 0)
(10.2614 0.0671653 0)
(10.2789 0.0614289 0)
(10.2965 0.0549366 0)
(10.3143 0.0473864 0)
(10.332 0.038479 0)
(10.3496 0.0280422 0)
(10.0022 0.0163988 0)
(10.0147 0.0434607 0)
(10.036 0.0621763 0)
(10.0604 0.0742813 0)
(10.0848 0.0812981 0)
(10.1087 0.0840311 0)
(10.1314 0.0834906 0)
(10.1523 0.0808234 0)
(10.1717 0.0769331 0)
(10.19 0.0723649 0)
(10.2074 0.067385 0)
(10.2242 0.0620815 0)
(10.2408 0.0564042 0)
(10.2574 0.0501758 0)
(10.2739 0.0431629 0)
(10.2905 0.0351392 0)
(10.3068 0.0258916 0)
(10.3229 0.0153407 0)
(10.0018 0.013638 0)
(10.0121 0.0368569 0)
(10.0305 0.0534352 0)
(10.0522 0.0643952 0)
(10.0746 0.0708738 0)
(10.0967 0.0735283 0)
(10.1179 0.0731867 0)
(10.1379 0.0708039 0)
(10.1566 0.0671478 0)
(10.1742 0.0626972 0)
(10.191 0.0576986 0)
(10.2073 0.0522413 0)
(10.2233 0.0462935 0)
(10.239 0.0397237 0)
(10.2546 0.0323548 0)
(10.27 0.0240217 0)
(10.285 0.0145769 0)
(10.2998 0.00400221 0)
(10.0014 0.0112352 0)
(10.01 0.0308821 0)
(10.0258 0.0452541 0)
(10.0451 0.054935 0)
(10.0655 0.060743 0)
(10.086 0.0631801 0)
(10.1059 0.0629074 0)
(10.1248 0.0607059 0)
(10.1427 0.0572166 0)
(10.1597 0.0528522 0)
(10.1759 0.0478369 0)
(10.1916 0.0422596 0)
(10.2069 0.0361055 0)
(10.2218 0.0292825 0)
(10.2365 0.0216642 0)
(10.2508 0.0131377 0)
(10.2647 0.00360644 0)
(10.2781 -0.00690633 0)
(10.0009 0.0089668 0)
(10.0081 0.0247542 0)
(10.0213 0.0365506 0)
(10.0382 0.0446211 0)
(10.0566 0.0494854 0)
(10.0753 0.0514978 0)
(10.0937 0.0511447 0)
(10.1115 0.0490241 0)
(10.1284 0.0456439 0)
(10.1446 0.0413428 0)
(10.1601 0.0363136 0)
(10.1751 0.0306409 0)
(10.1895 0.0243272 0)
(10.2035 0.0173189 0)
(10.2172 0.00953932 0)
(10.2303 0.000924279 0)
(10.2429 -0.00857505 0)
(10.2549 -0.0189098 0)
(10.0006 0.00681261 0)
(10.0066 0.0188112 0)
(10.0175 0.0275268 0)
(10.032 0.0335506 0)
(10.0483 0.0371401 0)
(10.0651 0.0384703 0)
(10.082 0.0378406 0)
(10.0985 0.0356632 0)
(10.1144 0.0323107 0)
(10.1297 0.028042 0)
(10.1443 0.0230106 0)
(10.1583 0.0172909 0)
(10.1718 0.0108991 0)
(10.1848 0.00381468 0)
(10.1972 -0.00399554 0)
(10.2091 -0.0125528 0)
(10.2203 -0.0218645 0)
(10.2309 -0.031866 0)
(10.0005 0.0045523 0)
(10.0056 0.0127571 0)
(10.0148 0.0182625 0)
(10.0271 0.0218781 0)
(10.0413 0.0238301 0)
(10.0563 0.0241534 0)
(10.0716 0.0229837 0)
(10.0868 0.0205621 0)
(10.1015 0.0171275 0)
(10.1158 0.0128537 0)
(10.1294 0.00784678 0)
(10.1424 0.00216175 0)
(10.1548 -0.0041808 0)
(10.1666 -0.0111787 0)
(10.1778 -0.0188327 0)
(10.1883 -0.027131 0)
(10.1981 -0.0360489 0)
(10.2072 -0.0455133 0)
(10.0004 0.00224082 0)
(10.0049 0.00622873 0)
(10.013 0.00855148 0)
(10.0236 0.00961126 0)
(10.0361 0.0096124 0)
(10.0495 0.0085745 0)
(10.0634 0.00655064 0)
(10.0773 0.00365285 0)
(10.0909 3.71206e-07 0)
(10.1041 -0.00431976 0)
(10.1167 -0.00925745 0)
(10.1287 -0.014789 0)
(10.1401 -0.0209049 0)
(10.1507 -0.0275982 0)
(10.1607 -0.0348545 0)
(10.1699 -0.0426442 0)
(10.1784 -0.0509225 0)
(10.1861 -0.0596132 0)
(10.0004 -0.000248276 0)
(10.0045 -0.00086477 0)
(10.0119 -0.00198545 0)
(10.0215 -0.00366555 0)
(10.0329 -0.00588167 0)
(10.0453 -0.00859221 0)
(10.0581 -0.0117629 0)
(10.0711 -0.0153607 0)
(10.0838 -0.0193599 0)
(10.0962 -0.0237529 0)
(10.108 -0.0285495 0)
(10.1192 -0.033769 0)
(10.1297 -0.0394305 0)
(10.1394 -0.0455436 0)
(10.1484 -0.0521001 0)
(10.1566 -0.0590682 0)
(10.164 -0.0663962 0)
(10.1706 -0.0740155 0)
(10.0004 -0.00303805 0)
(10.0043 -0.00888938 0)
(10.0115 -0.0140392 0)
(10.021 -0.0188536 0)
(10.0322 -0.0236183 0)
(10.0444 -0.0282895 0)
(10.057 -0.0328351 0)
(10.0698 -0.0372816 0)
(10.0823 -0.0416876 0)
(10.0943 -0.0461235 0)
(10.1058 -0.0506631 0)
(10.1166 -0.0553775 0)
(10.1265 -0.0603308 0)
(10.1357 -0.0655764 0)
(10.1441 -0.0711539 0)
(10.1517 -0.0770863 0)
(10.1585 -0.08337 0)
(10.1647 -0.0899404 0)
(10.0004 -0.00578239 0)
(10.0046 -0.0167409 0)
(10.0125 -0.0259023 0)
(10.023 -0.0339683 0)
(10.0354 -0.0412787 0)
(10.0486 -0.047799 0)
(10.0621 -0.0535419 0)
(10.0755 -0.0586258 0)
(10.0885 -0.0632165 0)
(10.1009 -0.0674786 0)
(10.1125 -0.0715609 0)
(10.1233 -0.0755947 0)
(10.1332 -0.0796934 0)
(10.1422 -0.0839547 0)
(10.1503 -0.0884678 0)
(10.1576 -0.0933103 0)
(10.164 -0.0984739 0)
(10.1695 -0.103742 0)
(10.0006 -0.00830446 0)
(10.0057 -0.0236397 0)
(10.0149 -0.0365287 0)
(10.0273 -0.0475525 0)
(10.0413 -0.0569538 0)
(10.056 -0.0648199 0)
(10.0708 -0.0712831 0)
(10.0852 -0.0765947 0)
(10.0989 -0.0810466 0)
(10.1118 -0.0849017 0)
(10.1236 -0.088383 0)
(10.1345 -0.0916776 0)
(10.1443 -0.0949349 0)
(10.1531 -0.0982597 0)
(10.1609 -0.101711 0)
(10.1678 -0.105334 0)
(10.1736 -0.109193 0)
(10.1784 -0.113233 0)
(10.0011 -0.011063 0)
(10.0076 -0.0311463 0)
(10.0192 -0.0478072 0)
(10.0341 -0.0613877 0)
(10.0503 -0.0724585 0)
(10.0668 -0.0812746 0)
(10.0831 -0.0880892 0)
(10.0987 -0.0932996 0)
(10.1133 -0.0973283 0)
(10.1267 -0.100534 0)
(10.1387 -0.10321 0)
(10.1495 -0.105598 0)
(10.1591 -0.107886 0)
(10.1674 -0.110197 0)
(10.1747 -0.112577 0)
(10.1809 -0.115004 0)
(10.1862 -0.117583 0)
(10.1905 -0.120569 0)
(10.0016 -0.0144873 0)
(10.0103 -0.0399603 0)
(10.0253 -0.0599005 0)
(10.0433 -0.0755032 0)
(10.062 -0.0878566 0)
(10.0806 -0.097285 0)
(10.0987 -0.104125 0)
(10.1157 -0.108924 0)
(10.1311 -0.112238 0)
(10.1448 -0.114518 0)
(10.1569 -0.116135 0)
(10.1675 -0.117403 0)
(10.1765 -0.11856 0)
(10.1842 -0.119772 0)
(10.1906 -0.121136 0)
(10.1961 -0.122618 0)
(10.2007 -0.124176 0)
(10.2044 -0.126103 0)
(10.0023 -0.0186756 0)
(10.0144 -0.049931 0)
(10.0337 -0.0727408 0)
(10.0551 -0.089995 0)
(10.0766 -0.103347 0)
(10.0975 -0.113043 0)
(10.1175 -0.11951 0)
(10.1356 -0.123503 0)
(10.1517 -0.125767 0)
(10.1658 -0.126853 0)
(10.1778 -0.127184 0)
(10.1879 -0.127147 0)
(10.1962 -0.127043 0)
(10.203 -0.127082 0)
(10.2084 -0.127427 0)
(10.2129 -0.128082 0)
(10.2165 -0.128899 0)
(10.2193 -0.129911 0)
(10.0034 -0.0239889 0)
(10.0206 -0.0616403 0)
(10.0451 -0.0866373 0)
(10.0702 -0.104869 0)
(10.0943 -0.118732 0)
(10.1176 -0.128253 0)
(10.1393 -0.133942 0)
(10.1588 -0.136794 0)
(10.1758 -0.137768 0)
(10.1903 -0.137523 0)
(10.2024 -0.136494 0)
(10.2121 -0.135102 0)
(10.2197 -0.133698 0)
(10.2255 -0.132513 0)
(10.2298 -0.131722 0)
(10.2327 -0.13138 0)
(10.2348 -0.13143 0)
(10.2362 -0.131828 0)
(10.0054 -0.0312251 0)
(10.0303 -0.0753928 0)
(10.0607 -0.10101 0)
(10.0893 -0.119139 0)
(10.1164 -0.132959 0)
(10.1428 -0.142142 0)
(10.1675 -0.147152 0)
(10.1894 -0.149024 0)
(10.2085 -0.148663 0)
(10.2241 -0.146741 0)
(10.2366 -0.144024 0)
(10.246 -0.14111 0)
(10.2528 -0.138381 0)
(10.2573 -0.136024 0)
(10.2602 -0.134477 0)
(10.2614 -0.133718 0)
(10.2616 -0.133368 0)
(10.2613 -0.133473 0)
(10.0099 -0.040602 0)
(10.0456 -0.0880351 0)
(10.0846 -0.114333 0)
(10.1199 -0.133515 0)
(10.1535 -0.147484 0)
(10.1867 -0.156007 0)
(10.2179 -0.159939 0)
(10.2457 -0.160457 0)
(10.2692 -0.158721 0)
(10.2874 -0.155231 0)
(10.3008 -0.150482 0)
(10.3099 -0.145403 0)
(10.315 -0.140606 0)
(10.3171 -0.136428 0)
(10.3166 -0.133087 0)
(10.3148 -0.130716 0)
(10.3124 -0.129239 0)
(10.309 -0.128704 0)
(10.0208 -0.0546455 0)
(10.0802 -0.100611 0)
(10.1451 -0.12501 0)
(10.2045 -0.14769 0)
(10.2597 -0.165452 0)
(10.3103 -0.176008 0)
(10.3524 -0.180681 0)
(10.3832 -0.180781 0)
(10.4021 -0.177343 0)
(10.411 -0.171758 0)
(10.4103 -0.165131 0)
(10.4009 -0.158377 0)
(10.3842 -0.152132 0)
(10.3616 -0.146792 0)
(10.3341 -0.142714 0)
(10.3028 -0.140127 0)
(10.2685 -0.138815 0)
(10.2325 -0.138814 0)
(10.0832 -0.0939233 0)
(10.2603 -0.154323 0)
(10.3711 -0.169201 0)
(10.4139 -0.180015 0)
(10.4046 -0.18678 0)
(10.3505 -0.186864 0)
(10.2585 -0.181225 0)
(10.1382 -0.171302 0)
(9.99908 -0.158447 0)
(9.84846 -0.143915 0)
(9.69189 -0.128716 0)
(9.53338 -0.113776 0)
(9.37579 -0.0998699 0)
(9.22096 -0.0874897 0)
(9.06987 -0.0769212 0)
(8.92307 -0.0682723 0)
(8.78048 -0.0613751 0)
(8.64315 -0.0564682 0)
(9.7705 -0.0890056 0)
(9.25277 -0.153014 0)
(8.67038 -0.167103 0)
(8.07343 -0.167076 0)
(7.50818 -0.159076 0)
(6.99388 -0.144778 0)
(6.53733 -0.126649 0)
(6.14205 -0.107115 0)
(5.80835 -0.0880309 0)
(5.53264 -0.0704514 0)
(5.30895 -0.054899 0)
(5.13045 -0.0415317 0)
(4.98995 -0.0303324 0)
(4.88046 -0.021282 0)
(4.79543 -0.0142458 0)
(4.72926 -0.00899893 0)
(4.67635 -0.0054801 0)
(4.63495 -0.00269318 0)
(0.0235608 -0.0392535 -1.81831e-21)
(0.0608772 -0.0525226 1.76958e-21)
(0.125297 -0.0658211 0)
(0.200607 -0.0840749 0)
(0.290898 -0.104762 0)
(0.398986 -0.123932 -1.7242e-21)
(0.521039 -0.138794 0)
(0.653698 -0.148691 0)
(0.793765 -0.154336 0)
(0.938175 -0.156528 0)
(1.08421 -0.155857 1.89581e-21)
(1.22946 -0.152806 0)
(1.37182 -0.14785 0)
(1.50948 -0.141487 0)
(1.64089 -0.133868 0)
(1.76444 -0.124365 2.30663e-21)
(1.87894 -0.113178 0)
(1.98344 -0.100848 0)
(2.07736 -0.0879291 0)
(2.16053 -0.0748834 0)
(2.23303 -0.0620559 0)
(2.29511 -0.049666 0)
(2.34716 -0.0377995 0)
(2.38963 -0.0264267 2.98568e-21)
(2.42295 -0.0154029 -3.05131e-21)
(2.44741 -0.00445664 3.11235e-21)
(2.46306 0.00683492 3.16904e-21)
(2.47038 0.0192057 0)
(2.46689 0.0327911 0)
(2.45316 0.0467101 -3.31424e-21)
(2.42953 0.0595185 -3.35513e-21)
(2.39636 0.0698055 0)
(2.35456 0.0765294 0)
(2.30539 0.0791802 -3.44925e-21)
(2.25023 0.0777694 0)
(2.1904 0.0727668 0)
(2.12702 0.0651668 3.4796e-21)
(2.06076 0.056577 0)
(1.99164 0.0489941 3.45064e-21)
(1.91902 0.044249 6.83978e-21)
(1.84183 0.0435219 0)
(1.75889 0.0471145 0)
(1.66934 0.0544691 0)
(1.573 0.0641388 0)
(1.47074 0.0737732 0)
(1.36378 0.0829545 6.12312e-21)
(1.2531 0.0925683 5.98473e-21)
(1.13933 0.100295 5.8586e-21)
(1.02416 0.0987019 0)
(0.914855 0.0735312 -5.68203e-21)
(0.833149 0.00938772 0)
(0.818636 -0.0899607 5.61519e-21)
(0.896059 -0.187521 5.5954e-21)
(1.03774 -0.242976 0)
(1.18156 -0.221786 0)
(1.2436 -0.12917 0)
(1.15249 -0.0263002 6.04648e-21)
(0.931213 0.0391041 0)
(0.615396 0.085698 0)
(0.210031 0.151741 0)
(-0.290268 0.23954 0)
(-0.880379 0.331565 0)
(-1.54107 0.414409 0)
(-2.24913 0.479995 0)
(-2.98 0.524441 0)
(-3.71009 0.546761 -1.13621e-20)
(-4.41817 0.547809 0)
(-5.08619 0.529746 0)
(-5.6994 0.495681 1.38653e-20)
(-6.24582 0.448485 1.44632e-20)
(-6.71612 0.386921 0)
(-7.10325 0.315815 -1.51258e-20)
(-7.40293 0.242454 1.5152e-20)
(-7.61499 0.169668 0)
(-7.74068 0.10145 -1.45886e-20)
(-7.78192 0.0415848 0)
(-7.74532 -0.00690579 0)
(-7.65697 -0.044712 1.22901e-20)
(-7.51772 -0.0766285 0)
(-7.33577 -0.103933 -1.00215e-20)
(-7.11665 -0.127421 0)
(-6.86584 -0.147477 7.41958e-21)
(-6.58837 -0.164426 6.05919e-21)
(-6.28888 -0.17846 4.68999e-21)
(-5.97146 -0.189742 6.66189e-21)
(-5.63983 -0.198406 -3.99679e-21)
(-5.29756 -0.204627 0)
(-4.94789 -0.208926 0)
(-4.59362 -0.212244 0)
(-4.2369 -0.214693 5.66324e-21)
(-3.87948 -0.216502 7.76191e-21)
(-3.52274 -0.217934 -9.72358e-21)
(-3.16757 -0.219208 0)
(-2.81454 -0.220468 1.32442e-20)
(-2.46395 -0.221705 1.48117e-20)
(-2.11614 -0.222644 1.62565e-20)
(-1.77167 -0.222592 0)
(-1.43131 -0.220351 0)
(-1.09672 -0.214305 0)
(-0.773047 -0.203029 2.08121e-20)
(-0.459789 -0.191736 0)
(-0.149071 -0.186307 0)
(0.157093 -0.181585 -2.29705e-20)
(0.453979 -0.176379 0)
(0.740897 -0.17414 0)
(1.01847 -0.168098 -2.35858e-20)
(1.2855 -0.155563 0)
(1.53743 -0.1409 0)
(1.77324 -0.126293 2.34588e-20)
(1.99233 -0.111476 2.32803e-20)
(2.19339 -0.0958012 0)
(2.37546 -0.0792722 -2.2798e-20)
(2.53776 -0.0619641 0)
(2.67919 -0.0435092 2.22192e-20)
(2.79826 -0.0233763 0)
(2.89255 -0.00173331 2.16119e-20)
(2.95862 0.0209382 2.13155e-20)
(2.98967 0.0429825 0)
(2.98176 0.0611142 0)
(2.94597 0.0677302 0)
(2.88954 0.0648815 0)
(2.81777 0.0561321 0)
(2.73483 0.0452767 0)
(2.6438 0.0343033 0)
(2.54935 0.0235377 1.94243e-20)
(2.45898 0.0123213 -1.92659e-20)
(2.38286 0.000213297 0)
(2.33393 -0.0118436 0)
(2.32209 -0.0226575 0)
(2.34939 -0.0289045 0)
(2.39498 -0.018473 -3.73682e-20)
(2.40186 0.00756587 0)
(2.32063 0.0469108 3.63076e-20)
(2.11007 0.0915379 -3.51961e-20)
(1.71929 0.151165 0)
(1.1146 0.231097 0)
(0.324151 0.302989 0)
(-0.567018 0.345464 1.8932e-20)
(-1.46519 0.353791 1.20026e-20)
(-2.2972 0.331689 0)
(-3.01224 0.288305 -1.26669e-22)
(-3.57929 0.222332 -4.38954e-21)
(-3.98081 0.142803 7.12953e-21)
(-4.20684 0.0644049 0)
(-4.25775 -0.00665238 0)
(-4.15822 -0.0693728 5.87682e-21)
(-3.92652 -0.125901 0)
(-3.57055 -0.178408 0)
(-3.10063 -0.226065 0)
(-2.52971 -0.264853 0)
(-1.87514 -0.288226 1.85663e-20)
(-1.16765 -0.291071 2.41985e-20)
(-0.423887 -0.281318 0)
(0.347308 -0.279177 3.33191e-20)
(1.11424 -0.279247 0)
(1.86121 -0.266671 0)
(2.57064 -0.233323 3.82166e-20)
(3.21483 -0.185843 0)
(3.78056 -0.133918 3.7166e-20)
(4.26417 -0.0844272 0)
(4.6652 -0.0402253 0)
(4.98497 -0.00173737 3.24027e-20)
(5.22394 0.0300186 0)
(5.38266 0.0511651 2.86797e-20)
(5.46058 0.0605676 0)
(5.4549 0.0804047 0)
(5.37794 0.100774 0)
(5.23645 0.113459 -2.27806e-20)
(5.0364 0.119817 0)
(4.78616 0.119805 2.13068e-20)
(4.49647 0.112319 0)
(4.18079 0.0968877 0)
(3.85299 0.0747881 0)
(3.52634 0.051267 0)
(3.21282 0.0308668 0)
(2.91985 0.0171948 0)
(2.64882 0.0132504 0)
(2.38803 0.0205518 -3.86058e-20)
(2.13781 0.0390277 0)
(1.8294 0.0592053 0)
(0.0333635 -0.135721 5.44997e-21)
(0.0890746 -0.181315 -5.2856e-21)
(0.178375 -0.224695 0)
(0.282293 -0.269655 3.45986e-21)
(0.401422 -0.315069 0)
(0.533171 -0.35651 1.6764e-21)
(0.674574 -0.389711 -3.45319e-21)
(0.823732 -0.412943 -3.50673e-21)
(0.977695 -0.426629 0)
(1.13358 -0.431742 -3.68303e-21)
(1.28899 -0.429276 -1.82742e-21)
(1.44169 -0.420218 0)
(1.5896 -0.405441 0)
(1.73078 -0.385607 0)
(1.86303 -0.361621 0)
(1.98578 -0.33464 -2.21598e-21)
(2.09908 -0.305538 0)
(2.20251 -0.275393 4.95979e-21)
(2.29611 -0.24509 0)
(2.3801 -0.215314 0)
(2.45477 -0.186583 -5.4621e-21)
(2.52052 -0.159267 0)
(2.57785 -0.133581 5.7564e-21)
(2.62733 -0.109587 -2.90134e-21)
(2.66962 -0.0871899 2.96958e-21)
(2.70543 -0.0661475 -3.03337e-21)
(2.73562 -0.0460701 -3.09283e-21)
(2.76057 -0.0262995 0)
(2.78292 -0.00629751 0)
(2.80235 0.0139352 3.24404e-21)
(2.81806 0.0341893 -3.35192e-21)
(2.82902 0.0542291 0)
(2.83375 0.0737536 0)
(2.83057 0.0924331 3.37145e-21)
(2.81779 0.110013 0)
(2.79399 0.126396 0)
(2.7582 0.1417 -3.39454e-21)
(2.71004 0.156258 0)
(2.64975 0.17048 3.47219e-21)
(2.57818 0.184595 -6.66514e-21)
(2.49676 0.198425 0)
(2.40726 0.211354 0)
(2.31166 0.222463 -1.29092e-20)
(2.21208 0.230764 -1.26193e-20)
(2.1106 0.235596 -1.23042e-20)
(2.00926 0.237117 6.0128e-21)
(1.90962 0.236164 -5.82433e-21)
(1.81252 0.233158 -1.70188e-20)
(1.7174 0.224763 1.10292e-20)
(1.62179 0.198271 5.52853e-21)
(1.52563 0.129182 0)
(1.43318 0.00568197 -5.49272e-21)
(1.33824 -0.130065 5.06793e-21)
(1.2009 -0.181279 0)
(0.95818 -0.0732933 0)
(0.599051 0.177705 0)
(0.119342 0.464379 -6.03536e-21)
(-0.510158 0.710574 0)
(-1.26472 0.92744 1.26563e-20)
(-2.10677 1.12006 0)
(-2.99342 1.27651 1.4303e-20)
(-3.88183 1.38371 0)
(-4.73606 1.43643 -1.71374e-20)
(-5.52878 1.4366 0)
(-6.24078 1.39054 2.07891e-20)
(-6.86049 1.30665 -1.2379e-20)
(-7.38283 1.19396 0)
(-7.8078 1.06121 -2.6363e-20)
(-8.13918 0.91627 -1.29392e-20)
(-8.38369 0.76581 -1.3609e-20)
(-8.55033 0.614945 0)
(-8.64836 0.467137 -1.60973e-20)
(-8.68749 0.325016 -1.45351e-20)
(-8.67704 0.190684 0)
(-8.62622 0.0668886 1.4097e-20)
(-8.54114 -0.0431798 -2.81369e-20)
(-8.42477 -0.139139 0)
(-8.26255 -0.221146 -1.18609e-20)
(-8.06147 -0.291834 0)
(-7.82353 -0.352199 2.96345e-20)
(-7.55299 -0.402974 0)
(-7.25429 -0.444596 -2.19847e-20)
(-6.93178 -0.477657 -5.83329e-21)
(-6.58965 -0.502878 4.98758e-21)
(-6.23179 -0.521927 7.29779e-21)
(-5.86199 -0.535287 -4.68016e-21)
(-5.48344 -0.543335 0)
(-5.09865 -0.546598 0)
(-4.71046 -0.545748 0)
(-4.32193 -0.54159 -1.56839e-20)
(-3.93495 -0.534902 -7.49531e-21)
(-3.5511 -0.526391 9.3929e-21)
(-3.17148 -0.516671 0)
(-2.7968 -0.506215 1.21086e-20)
(-2.42745 -0.495287 -1.43209e-20)
(-2.06363 -0.483881 -1.57249e-20)
(-1.70539 -0.471687 0)
(-1.35251 -0.458163 0)
(-1.00439 -0.443207 0)
(-0.660228 -0.428765 -2.02822e-20)
(-0.319172 -0.419266 0)
(0.0162479 -0.411224 4.32607e-20)
(0.34221 -0.398015 6.6429e-20)
(0.657962 -0.381237 -4.47e-20)
(0.961098 -0.363861 0)
(1.25096 -0.347439 -2.24149e-20)
(1.52722 -0.329884 0)
(1.78913 -0.31076 -4.51434e-20)
(2.03636 -0.290145 2.22939e-20)
(2.26889 -0.268201 2.21621e-20)
(2.48722 -0.245884 0)
(2.69154 -0.223326 6.60012e-20)
(2.8817 -0.200332 -4.34846e-20)
(3.05715 -0.17646 -2.16216e-20)
(3.21699 -0.151025 0)
(3.36033 -0.123366 -2.11238e-20)
(3.48634 -0.0925116 -6.24988e-20)
(3.59691 -0.0580822 0)
(3.69438 -0.0207783 -4.06341e-20)
(3.76945 0.0151756 -4.01385e-20)
(3.81212 0.0457721 -3.96359e-20)
(3.81618 0.0726182 0)
(3.78052 0.0953663 0)
(3.70463 0.11154 0)
(3.59027 0.117694 1.9017e-20)
(3.4448 0.110704 1.89255e-20)
(3.28477 0.0889742 0)
(3.13815 0.0532862 3.74442e-20)
(3.04133 0.00795382 3.73216e-20)
(3.0134 -0.0297521 0)
(3.02687 -0.0266774 3.69586e-20)
(3.01747 0.0385344 7.32061e-20)
(2.87207 0.164426 -3.57336e-20)
(2.46909 0.346004 -3.49698e-20)
(1.73711 0.570653 0)
(0.710432 0.786098 0)
(-0.44932 0.91028 0)
(-1.55673 0.92484 -1.82266e-20)
(-2.50465 0.849748 9.35092e-21)
(-3.24966 0.718626 8.12705e-21)
(-3.78923 0.562071 1.23323e-22)
(-4.14352 0.401447 -6.59395e-21)
(-4.33834 0.245908 -6.99752e-21)
(-4.40187 0.0998004 0)
(-4.35554 -0.0319479 0)
(-4.19472 -0.151629 7.58939e-21)
(-3.91395 -0.260022 0)
(-3.52019 -0.357555 0)
(-3.02146 -0.442042 1.18752e-20)
(-2.42684 -0.512745 0)
(-1.74822 -0.567025 1.66189e-20)
(-0.998518 -0.602832 -2.37579e-20)
(-0.191998 -0.631067 0)
(0.641072 -0.634124 3.16912e-20)
(1.47431 -0.616009 0)
(2.28858 -0.587487 0)
(3.06013 -0.546712 -3.73331e-20)
(3.77544 -0.495319 7.3688e-20)
(4.42769 -0.437567 -3.63512e-20)
(5.00875 -0.377967 0)
(5.51216 -0.31908 0)
(5.93294 -0.260698 3.17491e-20)
(6.26515 -0.201303 0)
(6.49997 -0.140203 2.84298e-20)
(6.63622 -0.0778633 0)
(6.68378 -0.0131776 0)
(6.63426 0.0429707 0)
(6.48894 0.0933586 2.24344e-20)
(6.25579 0.138199 0)
(5.94648 0.176302 -2.08861e-20)
(5.57688 0.206059 0)
(5.16757 0.225413 0)
(4.74209 0.233827 3.94804e-20)
(4.32212 0.233564 -3.89963e-20)
(3.9248 0.226356 0)
(3.5609 0.214522 0)
(3.23377 0.201585 0)
(2.9302 0.1918 1.12154e-19)
(2.64492 0.188923 0)
(2.3186 0.187371 -7.07688e-20)
(0.0387743 -0.27784 8.16301e-23)
(0.107068 -0.368771 7.06655e-21)
(0.21656 -0.453262 0)
(0.342483 -0.535568 -6.90056e-21)
(0.483335 -0.609165 0)
(0.63476 -0.669125 0)
(0.79219 -0.713557 -1.1843e-22)
(0.95305 -0.742314 3.44337e-21)
(1.11453 -0.756217 3.67725e-21)
(1.274 -0.756593 3.61691e-21)
(1.42953 -0.744924 0)
(1.57927 -0.722624 0)
(1.7214 -0.690813 -4.23252e-21)
(1.85438 -0.651259 -8.80437e-21)
(1.97785 -0.606061 9.162e-21)
(2.09181 -0.557524 0)
(2.19576 -0.507315 9.88466e-21)
(2.28971 -0.456661 -4.91151e-21)
(2.37391 -0.406568 0)
(2.44873 -0.357893 1.08815e-20)
(2.51467 -0.311322 5.42327e-21)
(2.57235 -0.267361 -1.14575e-20)
(2.62252 -0.226333 -5.72284e-21)
(2.66599 -0.188368 0)
(2.70357 -0.153405 1.21964e-20)
(2.73608 -0.121214 1.24177e-20)
(2.76426 -0.0914524 0)
(2.78868 -0.0638235 1.2836e-20)
(2.80986 -0.0377631 0)
(2.82826 -0.0123166 1.32278e-20)
(2.84432 0.0134658 6.60985e-21)
(2.85794 0.0403223 0)
(2.86842 0.0687041 0)
(2.87458 0.0986816 0)
(2.87482 0.129993 0)
(2.86725 0.162131 0)
(2.84992 0.194458 0)
(2.8211 0.226308 1.40121e-20)
(2.77957 0.257058 -2.07247e-20)
(2.72484 0.286145 0)
(2.65717 0.312993 0)
(2.5775 0.336868 0)
(2.4873 0.356751 -3.02213e-22)
(2.38836 0.371409 1.24855e-20)
(2.28244 0.379902 2.45331e-20)
(2.17086 0.382601 -2.38025e-20)
(2.05446 0.381508 -1.15446e-20)
(1.93344 0.378331 1.12052e-20)
(1.80635 0.372253 -1.85975e-22)
(1.66675 0.353389 1.03915e-20)
(1.50199 0.299782 0)
(1.28797 0.206254 9.97184e-21)
(0.991441 0.154431 -4.80076e-22)
(0.556081 0.295815 0)
(-0.0582144 0.650817 0)
(-0.801201 1.08632 -1.11682e-20)
(-1.62469 1.506 0)
(-2.50224 1.86268 0)
(-3.39284 2.13868 1.44832e-20)
(-4.2523 2.32539 2.85326e-20)
(-5.04389 2.41985 -1.32898e-20)
(-5.74462 2.42637 0)
(-6.34576 2.35629 1.62039e-20)
(-6.84945 2.22507 0)
(-7.26491 2.04907 2.68651e-20)
(-7.60472 1.84341 2.2052e-20)
(-7.88183 1.62083 -5.45542e-20)
(-8.10732 1.39125 -3.19823e-20)
(-8.28918 1.16189 0)
(-8.43218 0.93762 6.27307e-20)
(-8.53847 0.721717 0)
(-8.60808 0.516617 9.49725e-20)
(-8.63931 0.323915 6.45765e-20)
(-8.62925 0.144318 6.35606e-20)
(-8.57513 -0.0218597 -6.16072e-20)
(-8.47719 -0.174604 8.65647e-20)
(-8.3354 -0.314875 0)
(-8.15216 -0.441636 0)
(-7.93203 -0.553011 -4.6345e-20)
(-7.67864 -0.649016 -6.12e-20)
(-7.3958 -0.729933 0)
(-7.08758 -0.796453 1.47227e-20)
(-6.75778 -0.850594 0)
(-6.40939 -0.892849 -2.94124e-20)
(-6.04572 -0.923769 9.53658e-22)
(-5.67139 -0.94481 -8.57799e-22)
(-5.28959 -0.957204 4.28342e-21)
(-4.9032 -0.961911 0)
(-4.51482 -0.959541 5.18255e-21)
(-4.12648 -0.951548 6.56102e-22)
(-3.73988 -0.939304 0)
(-3.35634 -0.924044 0)
(-2.97678 -0.906882 0)
(-2.60164 -0.88874 -2.48349e-20)
(-2.23103 -0.870265 0)
(-1.86472 -0.851767 0)
(-1.50233 -0.833185 0)
(-1.14339 -0.814183 0)
(-0.787467 -0.794477 0)
(-0.43481 -0.774375 -3.95995e-20)
(-0.0877896 -0.754318 0)
(0.249979 -0.732451 -4.30334e-20)
(0.577428 -0.706936 -4.3805e-20)
(0.893935 -0.677904 4.43507e-20)
(1.19734 -0.646512 0)
(1.48533 -0.613231 4.479e-20)
(1.75619 -0.577191 0)
(2.00933 -0.539725 4.45506e-20)
(2.24534 -0.50269 -4.42554e-20)
(2.46679 -0.465792 -1.31372e-19)
(2.676 -0.428879 0)
(2.8733 -0.392131 -1.2897e-19)
(3.05864 -0.354884 -4.2246e-20)
(3.23213 -0.316388 0)
(3.39392 -0.275875 -8.301e-20)
(3.54422 -0.232579 -8.20622e-20)
(3.68344 -0.186489 1.21926e-19)
(3.81233 -0.138696 0)
(3.93115 -0.0907992 3.99039e-20)
(4.03782 -0.0418107 3.95076e-20)
(4.13237 0.00651748 1.16987e-19)
(4.21213 0.0566803 0)
(4.26895 0.109055 0)
(4.29184 0.161048 0)
(4.26755 0.205911 3.73905e-20)
(4.18543 0.232117 0)
(4.04621 0.225088 0)
(3.86963 0.172403 -3.69626e-20)
(3.69146 0.0799258 -3.69144e-20)
(3.54381 -0.00597081 0)
(3.4229 -0.009528 0)
(3.25733 0.13599 -7.272e-20)
(2.9173 0.434358 0)
(2.27703 0.841749 6.88752e-20)
(1.31054 1.26613 6.40493e-20)
(0.155931 1.57373 0)
(-0.952055 1.66145 0)
(-1.88356 1.56558 -2.97356e-20)
(-2.61407 1.35402 -4.53674e-21)
(-3.16575 1.09188 -4.33477e-21)
(-3.57009 0.820383 0)
(-3.84954 0.55906 2.53111e-20)
(-4.01443 0.315305 0)
(-4.06509 0.0905318 0)
(-4.00161 -0.118307 0)
(-3.82394 -0.31246 -1.33461e-20)
(-3.53446 -0.492591 0)
(-3.13877 -0.657543 1.14589e-21)
(-2.63913 -0.806406 -1.18428e-20)
(-2.04112 -0.934615 0)
(-1.35626 -1.03894 -3.47748e-20)
(-0.599703 -1.1165 0)
(0.207522 -1.16034 0)
(1.0408 -1.16935 -1.88472e-19)
(1.87667 -1.14488 1.35619e-19)
(2.69263 -1.08922 0)
(3.47075 -1.00693 1.44792e-19)
(4.2019 -0.909008 -7.30407e-20)
(4.87847 -0.80331 0)
(5.49392 -0.693116 0)
(6.04469 -0.580603 0)
(6.52824 -0.464772 -1.86822e-19)
(6.9425 -0.343614 0)
(7.28518 -0.218118 -5.62353e-20)
(7.547 -0.0902263 0)
(7.7086 0.0263138 0)
(7.75582 0.134766 0)
(7.68171 0.235641 0)
(7.4825 0.324996 0)
(7.16355 0.397113 0)
(6.74385 0.447493 -8.09371e-20)
(6.24941 0.473851 0)
(5.71266 0.476301 -3.96247e-20)
(5.16992 0.457449 1.16813e-19)
(4.65179 0.422982 0)
(4.17881 0.382112 0)
(3.7602 0.345902 -7.52119e-20)
(3.38533 0.324928 -7.41883e-20)
(3.04661 0.323873 7.23881e-20)
(2.68951 0.331475 7.03332e-20)
(0.0479575 -0.437648 -1.12624e-20)
(0.128462 -0.58528 -1.08174e-20)
(0.260391 -0.715531 -7.21191e-21)
(0.406847 -0.832843 -3.70433e-21)
(0.564108 -0.928749 0)
(0.727357 -0.999649 7.1745e-21)
(0.892008 -1.04652 -3.83978e-21)
(1.05567 -1.07182 0)
(1.21591 -1.0776 -3.62666e-21)
(1.37063 -1.06589 0)
(1.51845 -1.03865 8.30262e-21)
(1.65771 -0.99786 0)
(1.7876 -0.946087 4.19289e-21)
(1.90809 -0.886023 8.74218e-21)
(2.01889 -0.820504 -9.11262e-21)
(2.11962 -0.751688 0)
(2.2102 -0.681317 -9.85446e-21)
(2.29076 -0.610945 0)
(2.36166 -0.541985 0)
(2.42342 -0.475664 -1.08791e-20)
(2.47678 -0.41298 0)
(2.52261 -0.354681 -3.6768e-22)
(2.56193 -0.301234 0)
(2.59579 -0.252814 0)
(2.62529 -0.2093 2.44697e-22)
(2.65146 -0.170295 -1.24502e-20)
(2.67524 -0.135158 -1.28572e-20)
(2.69738 -0.103049 -1.28703e-20)
(2.71841 -0.0729334 0)
(2.73856 -0.0436849 -2.67085e-20)
(2.75781 -0.0141844 0)
(2.77595 0.0166251 -1.38395e-20)
(2.79238 0.0497399 0)
(2.8061 0.0860353 0)
(2.81579 0.12606 1.43147e-20)
(2.81984 0.169945 0)
(2.81637 0.217357 -1.44732e-20)
(2.80334 0.267483 4.88451e-22)
(2.77874 0.319055 2.83149e-20)
(2.74081 0.370398 -2.85748e-20)
(2.68818 0.419522 0)
(2.62008 0.464292 0)
(2.53616 0.502691 -1.39463e-20)
(2.43628 0.533317 0)
(2.31993 0.55618 -1.2278e-20)
(2.18558 0.572296 1.18807e-20)
(2.03212 0.583729 1.14775e-20)
(1.85807 0.594404 0)
(1.65799 0.610427 -1.07186e-20)
(1.42156 0.63795 -1.03834e-20)
(1.12123 0.662312 1.9818e-20)
(0.730204 0.696757 -9.9451e-21)
(0.194491 0.871612 -9.98168e-21)
(-0.543445 1.27307 0)
(-1.41344 1.79515 0)
(-2.32467 2.30567 1.04249e-20)
(-3.21811 2.73191 0)
(-4.05189 3.03962 0)
(-4.79493 3.21738 -2.47289e-20)
(-5.43027 3.27119 -2.72334e-20)
(-5.95693 3.21849 0)
(-6.38707 3.08266 0)
(-6.74026 2.88815 0)
(-7.03743 2.6565 0)
(-7.29627 2.40425 -4.63136e-20)
(-7.52865 2.14244 5.74828e-20)
(-7.74002 1.87754 5.41447e-20)
(-7.93026 1.61276 1.21615e-19)
(-8.09536 1.34954 0)
(-8.22939 1.08865 6.00035e-21)
(-8.32632 0.831083 0)
(-8.38114 0.578657 -6.48374e-20)
(-8.39041 0.333908 4.93345e-21)
(-8.35267 0.0997004 -6.38935e-20)
(-8.26863 -0.121179 6.17928e-20)
(-8.14075 -0.326234 3.6966e-21)
(-7.97235 -0.51233 0)
(-7.76741 -0.678407 5.39916e-20)
(-7.53021 -0.824096 4.64696e-20)
(-7.26476 -0.950448 8.53043e-20)
(-6.97489 -1.05862 0)
(-6.66336 -1.14837 -3.27435e-20)
(-6.33348 -1.22037 0)
(-5.99023 -1.27661 4.15416e-20)
(-5.63727 -1.31742 -1.467e-20)
(-5.2774 -1.34436 9.39269e-21)
(-4.91315 -1.35921 -4.2972e-21)
(-4.54659 -1.36355 -8.08181e-22)