/*--------------------------------*- C++ -*----------------------------------*\
| =========                 |                                                 |
| \\      /  F ield         | OpenFOAM: The Open Source CFD Toolbox           |
|  \\    /   O peration     | Version:  2112                                  |
|   \\  /    A nd           | Website:  www.openfoam.com                      |
|    \\/     M anipulation  |                                                 |
\*---------------------------------------------------------------------------*/
FoamFile
{
    version     2.0;
    format      ascii;
    arch        "LSB;label=32;scalar=64";
    class       surfaceScalarField;
    location    "0.22";
    object      phi_0;
}
// * * * * * * * * * * * * * * * * * * * * * * * * * * * * * * * * * * * * * //

dimensions      [0 3 -1 0 0 0 0];

oriented        oriented;

internalField   nonuniform List<scalar> 
3067
(
5.07993e-05
7.30219e-10
5.07964e-05
2.84109e-09
5.07903e-05
6.09935e-09
5.07781e-05
1.22024e-08
5.076e-05
1.81031e-08
5.07262e-05
3.38702e-08
5.06993e-05
2.68424e-08
8.21275e-08
5.06172e-05
2.03204e-05
2.95107e-10
2.03219e-05
1.39038e-09
2.03244e-05
3.58225e-09
2.03291e-05
7.49959e-09
2.03343e-05
1.28604e-08
2.03457e-05
2.24997e-08
2.03464e-05
2.61233e-08
5.82257e-08
2.03703e-05
2.03201e-05
1.5282e-10
2.03208e-05
7.22445e-10
2.03225e-05
1.93239e-09
2.03258e-05
4.17255e-09
2.03311e-05
7.57905e-09
2.03405e-05
1.30316e-08
2.03497e-05
1.69721e-08
3.98859e-08
2.0368e-05
2.03201e-05
4.99857e-11
2.03206e-05
2.3632e-10
2.03219e-05
6.32646e-10
2.03247e-05
1.35723e-09
2.03299e-05
2.39902e-09
2.03389e-05
4.00335e-09
2.03513e-05
4.59292e-09
1.92608e-08
2.03719e-05
2.03201e-05
-4.37499e-11
2.03205e-05
-2.08914e-10
2.03218e-05
-5.79805e-10
2.03245e-05
-1.35554e-09
2.03297e-05
-2.86797e-09
2.0339e-05
-5.24406e-09
2.03529e-05
-9.31489e-09
-3.27374e-09
2.03754e-05
2.03201e-05
-1.42511e-10
2.03206e-05
-6.78363e-10
2.03218e-05
-1.85994e-09
2.03247e-05
-4.22229e-09
2.03303e-05
-8.44797e-09
2.034e-05
-1.49433e-08
2.03549e-05
-2.42313e-08
-2.72689e-08
2.03789e-05
2.54002e-05
-2.92558e-10
2.54009e-05
-1.39302e-09
2.54028e-05
-3.79081e-09
2.5407e-05
-8.40796e-09
2.54147e-05
-1.62155e-08
2.54277e-05
-2.78895e-08
2.54474e-05
-4.38882e-08
-5.86775e-08
2.54788e-05
2.54002e-05
-5.2204e-10
2.54014e-05
-2.55155e-09
2.54044e-05
-6.77412e-09
2.54101e-05
-1.41205e-08
2.54193e-05
-2.54721e-08
2.54334e-05
-4.19335e-08
2.54537e-05
-6.42338e-08
-9.02755e-08
2.54853e-05
2.54013e-05
-1.83253e-09
2.5405e-05
-6.21752e-09
2.54111e-05
-1.28641e-08
2.54196e-05
-2.26637e-08
2.54307e-05
-3.66055e-08
2.5445e-05
-5.61497e-08
2.54632e-05
-8.24588e-08
-1.12931e-07
2.54858e-05
2.53982e-05
2.53919e-05
2.53791e-05
2.53564e-05
2.53198e-05
2.52637e-05
2.51812e-05
2.50683e-05
-6.10215e-07
6.10215e-07
-1.88365e-06
1.27343e-06
-3.66136e-06
1.77771e-06
-5.65473e-06
1.99337e-06
-7.58985e-06
1.93512e-06
-9.31218e-06
1.72233e-06
-1.07856e-05
1.47341e-06
-1.20227e-05
1.23711e-06
-1.30503e-05
1.02762e-06
-1.38966e-05
8.46219e-07
-1.45874e-05
6.90802e-07
-1.51464e-05
5.59053e-07
-1.55956e-05
4.49186e-07
-1.60523e-05
4.56696e-07
-1.6407e-05
3.54699e-07
-1.6662e-05
2.55033e-07
-1.68184e-05
1.56429e-07
-1.68746e-05
5.61833e-08
-1.68378e-05
-3.6808e-08
-1.67209e-05
-1.16885e-07
-1.65242e-05
-1.96736e-07
-1.62496e-05
-2.7462e-07
-1.59008e-05
-3.48735e-07
-1.54823e-05
-4.18573e-07
-1.49985e-05
-4.83817e-07
-1.44544e-05
-5.44016e-07
-1.3856e-05
-5.98462e-07
-1.32092e-05
-6.46751e-07
-1.25201e-05
-6.89131e-07
-1.17946e-05
-7.25472e-07
-1.10392e-05
-7.55429e-07
-1.02599e-05
-7.79257e-07
-9.46244e-06
-7.97504e-07
-8.65161e-06
-8.1082e-07
-7.83187e-06
-8.1974e-07
-7.00734e-06
-8.24532e-07
-6.18156e-06
-8.25779e-07
-5.3572e-06
-8.24361e-07
-4.53616e-06
-8.21045e-07
-3.71953e-06
-8.16631e-07
-2.90769e-06
-8.11837e-07
-2.10066e-06
-8.07026e-07
-1.29787e-06
-8.02794e-07
-4.97948e-07
-7.99921e-07
3.01193e-07
-7.99142e-07
1.10108e-06
-7.99882e-07
1.90357e-06
-8.02495e-07
2.70558e-06
-8.02008e-07
3.51255e-06
-8.0697e-07
-7.22672e-07
4.23522e-06
-6.75325e-07
1.28554e-06
-1.54317e-06
2.14128e-06
-2.52091e-06
2.75545e-06
-3.44298e-06
2.91544e-06
-4.2066e-06
2.69875e-06
-4.80148e-06
2.31721e-06
-5.26631e-06
1.93824e-06
-5.64077e-06
1.61157e-06
-5.94632e-06
1.33318e-06
-6.19427e-06
1.09416e-06
-6.39171e-06
8.88248e-07
-6.54537e-06
7.1271e-07
-6.661e-06
5.64819e-07
-6.76287e-06
5.58566e-07
-6.82445e-06
4.16274e-07
-6.84537e-06
2.75954e-07
-6.82605e-06
1.37113e-07
-6.77527e-06
5.40321e-09
-6.68016e-06
-1.31917e-07
-6.53816e-06
-2.58891e-07
-6.35191e-06
-3.82984e-07
-6.12282e-06
-5.0371e-07
-5.85279e-06
-6.18762e-07
-5.54422e-06
-7.27144e-07
-5.19985e-06
-8.28187e-07
-4.8226e-06
-9.21273e-07
-4.41538e-06
-1.00568e-06
-3.98153e-06
-1.08059e-06
-3.52475e-06
-1.14591e-06
-3.04867e-06
-1.20156e-06
-2.55691e-06
-1.24719e-06
-2.05295e-06
-1.28321e-06
-1.54003e-06
-1.31042e-06
-1.02106e-06
-1.3298e-06
-4.98464e-07
-1.34233e-06
2.5545e-08
-1.34854e-06
5.4906e-07
-1.34929e-06
1.07069e-06
-1.34599e-06
1.58951e-06
-1.33987e-06
2.10498e-06
-1.3321e-06
2.61696e-06
-1.32382e-06
3.12563e-06
-1.3157e-06
3.6317e-06
-1.30886e-06
4.13641e-06
-1.30463e-06
4.64164e-06
-1.30437e-06
5.14933e-06
-1.30757e-06
5.66311e-06
-1.31627e-06
6.18533e-06
-1.32423e-06
6.71848e-06
-1.34012e-06
-1.28926e-06
7.28507e-06
-3.73032e-07
1.65857e-06
-7.61843e-07
2.53009e-06
-1.14158e-06
3.13519e-06
-1.45119e-06
3.22505e-06
-1.67063e-06
2.91819e-06
-1.83484e-06
2.48141e-06
-1.9775e-06
2.08091e-06
-2.10891e-06
1.74298e-06
-2.22494e-06
1.44921e-06
-2.32079e-06
1.19002e-06
-2.39368e-06
9.6113e-07
-2.4442e-06
7.63236e-07
-2.47541e-06
5.96031e-07
-2.49275e-06
5.75904e-07
-2.48611e-06
4.09635e-07
-2.45509e-06
2.44928e-07
-2.39903e-06
8.10509e-08
-2.31322e-06
-8.04022e-08
-2.20435e-06
-2.40785e-07
-2.0676e-06
-3.95647e-07
-1.90515e-06
-5.4543e-07
-1.71898e-06
-6.89884e-07
-1.51086e-06
-8.26882e-07
-1.2824e-06
-9.55599e-07
-1.03537e-06
-1.07521e-06
-7.71583e-07
-1.18506e-06
-4.92789e-07
-1.28448e-06
-2.00863e-07
-1.37252e-06
1.01922e-07
-1.4487e-06
4.13255e-07
-1.51289e-06
7.31273e-07
-1.56521e-06
1.05421e-06
-1.60615e-06
1.38031e-06
-1.63652e-06
1.70797e-06
-1.65746e-06
2.03584e-06
-1.6702e-06
2.36286e-06
-1.67556e-06
2.68836e-06
-1.6748e-06
3.01186e-06
-1.66949e-06
3.33296e-06
-1.66097e-06
3.65142e-06
-1.65057e-06
3.96723e-06
-1.63963e-06
4.28067e-06
-1.62913e-06
4.59253e-06
-1.62073e-06
4.904e-06
-1.6161e-06
5.21664e-06
-1.61701e-06
5.53238e-06
-1.62331e-06
5.85438e-06
-1.63827e-06
6.1854e-06
-1.65524e-06
6.52924e-06
-1.68395e-06
-1.66712e-06
6.90709e-06
-1.66352e-07
1.82492e-06
-3.10651e-07
2.67439e-06
-4.32507e-07
3.25704e-06
-5.06011e-07
3.29855e-06
-5.40698e-07
2.95288e-06
-5.67851e-07
2.50856e-06
-6.02093e-07
2.11515e-06
-6.40123e-07
1.78101e-06
-6.71579e-07
1.48067e-06
-6.91138e-07
1.20958e-06
-6.97287e-07
9.6728e-07
-6.91212e-07
7.57161e-07
-6.75662e-07
5.80481e-07
-6.43658e-07
5.439e-07
-5.97313e-07
3.6329e-07
-5.36315e-07
1.83929e-07
-4.59889e-07
4.62484e-09
-3.67319e-07
-1.72972e-07
-2.59751e-07
-3.48353e-07
-1.3753e-07
-5.17868e-07
-2.03868e-09
-6.80921e-07
1.45132e-07
-8.37055e-07
3.03368e-07
-9.85117e-07
4.71624e-07
-1.12385e-06
6.48698e-07
-1.25229e-06
8.3343e-07
-1.3698e-06
1.02482e-06
-1.47586e-06
1.22174e-06
-1.56944e-06
1.4227e-06
-1.64966e-06
1.62647e-06
-1.71666e-06
1.8322e-06
-1.77094e-06
2.03903e-06
-1.81297e-06
2.24609e-06
-1.84358e-06
2.4526e-06
-1.86397e-06
2.65761e-06
-1.87521e-06
2.86085e-06
-1.87881e-06
3.06247e-06
-1.87642e-06
3.26233e-06
-1.86934e-06
3.46026e-06
-1.8589e-06
3.65615e-06
-1.84646e-06
3.84997e-06
-1.83345e-06
4.04214e-06
-1.8213e-06
4.2335e-06
-1.81208e-06
4.42493e-06
-1.80754e-06
4.61753e-06
-1.80961e-06
4.8133e-06
-1.81908e-06
5.01388e-06
-1.83885e-06
5.22308e-06
-1.86444e-06
5.44082e-06
-1.9017e-06
-1.91209e-06
5.68579e-06
-6.29269e-08
1.88785e-06
-1.02356e-07
2.71382e-06
-1.24299e-07
3.27899e-06
-1.15062e-07
3.28932e-06
-9.02915e-08
2.92811e-06
-7.19521e-08
2.49022e-06
-6.41108e-08
2.10731e-06
-5.94403e-08
1.77634e-06
-4.97002e-08
1.47093e-06
-3.21994e-08
1.19208e-06
-7.2776e-09
9.42358e-07
2.32919e-08
7.26592e-07
5.74532e-08
5.46319e-07
1.06678e-07
4.94675e-07
1.6433e-07
3.05638e-07
2.30218e-07
1.18042e-07
3.0475e-07
-6.99075e-08
3.88408e-07
-2.5663e-07
4.80375e-07
-4.4032e-07
5.80066e-07
-6.17559e-07
6.86767e-07
-7.87621e-07
7.99698e-07
-9.49986e-07
9.17839e-07
-1.10326e-06
1.04024e-06
-1.24626e-06
1.16604e-06
-1.37808e-06
1.29451e-06
-1.49827e-06
1.42512e-06
-1.60648e-06
1.55708e-06
-1.7014e-06
1.68951e-06
-1.78209e-06
1.82194e-06
-1.84909e-06
1.95402e-06
-1.90301e-06
2.08533e-06
-1.94428e-06
2.21556e-06
-1.97381e-06
2.34451e-06
-1.99292e-06
2.47227e-06
-2.00296e-06
2.59895e-06
-2.00549e-06
2.72438e-06
-2.00185e-06
2.84841e-06
-1.99337e-06
2.97101e-06
-1.9815e-06
3.0921e-06
-1.96756e-06
3.21158e-06
-1.95292e-06
3.32998e-06
-1.9397e-06
3.44806e-06
-1.93017e-06
3.56637e-06
-1.92585e-06
3.68569e-06
-1.92893e-06
3.80784e-06
-1.94124e-06
3.9334e-06
-1.96441e-06
4.06619e-06
-1.99723e-06
4.20413e-06
-2.03963e-06
-2.07065e-06
4.36269e-06
-1.7366e-08
1.90522e-06
-1.68501e-08
2.7133e-06
-4.56896e-09
3.26671e-06
2.84901e-08
3.25626e-06
6.71304e-08
2.88946e-06
9.76343e-08
2.45972e-06
1.20644e-07
2.0843e-06
1.42941e-07
1.75404e-06
1.69403e-07
1.44447e-06
2.00573e-07
1.16091e-06
2.3503e-07
9.079e-07
2.70922e-07
6.907e-07
3.07106e-07
5.10135e-07
3.55296e-07
4.46485e-07
4.08595e-07
2.52339e-07
4.67628e-07
5.9008e-08
5.32414e-07
-1.34693e-07
6.02269e-07
-3.26485e-07
6.76356e-07
-5.14407e-07
7.54121e-07
-6.95325e-07
8.35205e-07
-8.68705e-07
9.19071e-07
-1.03385e-06
1.0049e-06
-1.18909e-06
1.092e-06
-1.33336e-06
1.17983e-06
-1.46591e-06
1.268e-06
-1.58644e-06
1.3562e-06
-1.69467e-06
1.44385e-06
-1.78906e-06
1.53058e-06
-1.86882e-06
1.61629e-06
-1.93479e-06
1.70078e-06
-1.98751e-06
1.78393e-06
-2.02743e-06
1.86565e-06
-2.05553e-06
1.946e-06
-2.07327e-06
2.02533e-06
-2.08229e-06
2.10379e-06
-2.08395e-06
2.18118e-06
-2.07925e-06
2.25749e-06
-2.06968e-06
2.33277e-06
-2.05677e-06
2.40717e-06
-2.04197e-06
2.48111e-06
-2.02685e-06
2.55495e-06
-2.01354e-06
2.62874e-06
-2.00396e-06
2.70274e-06
-1.99985e-06
2.77755e-06
-2.00374e-06
2.85468e-06
-2.01837e-06
2.93414e-06
-2.04387e-06
3.01914e-06
-2.08223e-06
3.10737e-06
-2.12786e-06
-2.17364e-06
3.21036e-06
8.00292e-10
1.90442e-06
1.33934e-08
2.70071e-06
3.48845e-08
3.24522e-06
6.91858e-08
3.22196e-06
1.05674e-07
2.85298e-06
1.35902e-07
2.42949e-06
1.6184e-07
2.05836e-06
1.88671e-07
1.72721e-06
2.18664e-07
1.41447e-06
2.51011e-07
1.12856e-06
2.83996e-07
8.74915e-07
3.16133e-07
6.58564e-07
3.47511e-07
4.78757e-07
3.88941e-07
4.05055e-07
4.33984e-07
2.07296e-07
4.8279e-07
1.02028e-08
5.35107e-07
-1.8701e-07
5.89995e-07
-3.81373e-07
6.46777e-07
-5.71189e-07
7.05012e-07
-7.5356e-07
7.644e-07
-9.28093e-07
8.24564e-07
-1.09402e-06
8.8508e-07
-1.2496e-06
9.45585e-07
-1.39387e-06
1.00578e-06
-1.5261e-06
1.06548e-06
-1.64614e-06
1.12447e-06
-1.75367e-06
1.18241e-06
-1.84699e-06
1.23917e-06
-1.92559e-06
1.29476e-06
-1.99038e-06
1.34909e-06
-2.04184e-06
1.40212e-06
-2.08046e-06
1.45387e-06
-2.10728e-06
1.50443e-06
-2.12384e-06
1.55401e-06
-2.13187e-06
1.60272e-06
-2.13266e-06
1.65056e-06
-2.12708e-06
1.69757e-06
-2.11669e-06
1.74385e-06
-2.10306e-06
1.78962e-06
-2.08774e-06
1.83533e-06
-2.07256e-06
1.88122e-06
-2.05943e-06
1.9273e-06
-2.05004e-06
1.97396e-06
-2.0465e-06
2.02152e-06
-2.0513e-06
2.07085e-06
-2.0677e-06
2.1218e-06
-2.09482e-06
2.17669e-06
-2.13713e-06
2.23384e-06
-2.18501e-06
-2.24081e-06
2.30102e-06
6.38756e-09
1.89803e-06
2.27535e-08
2.68434e-06
4.65586e-08
3.22141e-06
8.11074e-08
3.18741e-06
1.184e-07
2.81568e-06
1.52333e-07
2.39556e-06
1.85107e-07
2.02559e-06
2.20913e-07
1.6914e-06
2.60441e-07
1.37494e-06
3.01901e-07
1.0871e-06
3.43441e-07
8.33374e-07
3.8419e-07
6.17816e-07
4.24765e-07
4.38182e-07
4.78957e-07
3.50862e-07
5.38064e-07
1.4819e-07
6.01773e-07
-5.35061e-08
6.69831e-07
-2.55068e-07
7.41465e-07
-4.53007e-07
8.16085e-07
-6.45809e-07
8.93321e-07
-8.30796e-07
9.72891e-07
-1.00766e-06
1.05446e-06
-1.17559e-06
1.13775e-06
-1.33288e-06
1.22245e-06
-1.47857e-06
1.30832e-06
-1.61197e-06
1.39521e-06
-1.73303e-06
1.4828e-06
-1.84127e-06
1.57076e-06
-1.93495e-06
1.65904e-06
-2.01387e-06
1.74758e-06
-2.07892e-06
1.83628e-06
-2.13053e-06
1.92507e-06
-2.16925e-06
2.01399e-06
-2.1962e-06
2.10316e-06
-2.213e-06
2.19271e-06
-2.22142e-06
2.28274e-06
-2.2227e-06
2.37336e-06
-2.21769e-06
2.46466e-06
-2.20799e-06
2.55683e-06
-2.19522e-06
2.65017e-06
-2.18108e-06
2.74524e-06
-2.16763e-06
2.84249e-06
-2.15668e-06
2.94231e-06
-2.14986e-06
3.04566e-06
-2.14986e-06
3.15307e-06
-2.15871e-06
3.26552e-06
-2.18014e-06
3.38316e-06
-2.21246e-06
3.50932e-06
-2.26329e-06
3.64263e-06
-2.31832e-06
-2.39052e-06
3.79234e-06
7.62102e-09
1.89041e-06
2.32187e-08
2.66874e-06
4.54032e-08
3.19923e-06
7.64874e-08
3.15632e-06
1.1071e-07
2.78146e-06
1.44023e-07
2.36225e-06
1.78628e-07
1.99098e-06
2.17522e-07
1.65251e-06
2.60074e-07
1.33239e-06
3.0423e-07
1.04294e-06
3.48663e-07
7.88941e-07
3.9287e-07
5.73609e-07
4.37225e-07
3.93827e-07
4.95991e-07
2.92096e-07
5.59368e-07
8.48134e-08
6.26942e-07
-1.21081e-07
6.98449e-07
-3.26576e-07
7.73315e-07
-5.27873e-07
8.51058e-07
-7.23552e-07
9.31388e-07
-9.11125e-07
1.01405e-06
-1.09033e-06
1.09877e-06
-1.26031e-06
1.18534e-06
-1.41945e-06
1.27351e-06
-1.56674e-06
1.36308e-06
-1.70154e-06
1.45389e-06
-1.82384e-06
1.5456e-06
-1.93298e-06
1.63796e-06
-2.02731e-06
1.73095e-06
-2.10687e-06
1.82448e-06
-2.17244e-06
1.91842e-06
-2.22447e-06
2.01275e-06
-2.26358e-06
2.10749e-06
-2.29094e-06
2.20277e-06
-2.30828e-06
2.29866e-06
-2.31731e-06
2.39524e-06
-2.31928e-06
2.49263e-06
-2.31507e-06
2.59095e-06
-2.30632e-06
2.6904e-06
-2.29468e-06
2.79126e-06
-2.28194e-06
2.89393e-06
-2.2703e-06
2.99888e-06
-2.26163e-06
3.10668e-06
-2.25765e-06
3.21828e-06
-2.26146e-06
3.33442e-06
-2.27485e-06
3.45622e-06
-2.30194e-06
3.58443e-06
-2.34068e-06
3.7222e-06
-2.40106e-06
3.869e-06
-2.46512e-06
-2.55267e-06
4.03114e-06
7.94378e-08
1.81097e-06
1.97077e-07
2.5511e-06
3.38047e-07
3.05826e-06
5.01741e-07
2.99263e-06
6.63676e-07
2.61953e-06
8.19285e-07
2.20664e-06
9.84554e-07
1.82571e-06
1.1639e-06
1.47317e-06
1.3447e-06
1.15158e-06
1.51716e-06
8.70488e-07
1.68035e-06
6.25746e-07
1.83313e-06
4.20829e-07
1.97583e-06
2.51135e-07
2.14995e-06
1.17972e-07
2.32063e-06
-8.5866e-08
2.48634e-06
-2.86786e-07
2.6463e-06
-4.86538e-07
2.79945e-06
-6.81027e-07
2.94498e-06
-8.69077e-07
3.08281e-06
-1.04896e-06
3.21272e-06
-1.22023e-06
3.33451e-06
-1.38211e-06
3.4482e-06
-1.53313e-06
3.55374e-06
-1.67229e-06
3.65118e-06
-1.79898e-06
3.74045e-06
-1.91311e-06
3.82134e-06
-2.01387e-06
3.89408e-06
-2.10005e-06
3.95903e-06
-2.17182e-06
4.01635e-06
-2.22976e-06
4.06636e-06
-2.27448e-06
4.10941e-06
-2.30664e-06
4.14598e-06
-2.32751e-06
4.17669e-06
-2.33898e-06
4.20194e-06
-2.34257e-06
4.22207e-06
-2.33941e-06
4.2375e-06
-2.3305e-06
4.24863e-06
-2.31744e-06
4.25589e-06
-2.30194e-06
4.25978e-06
-2.28583e-06
4.26078e-06
-2.2713e-06
4.2595e-06
-2.26035e-06
4.25669e-06
-2.25484e-06
4.25327e-06
-2.25805e-06
4.2501e-06
-2.27168e-06
4.2484e-06
-2.30024e-06
4.24903e-06
-2.3413e-06
4.25438e-06
-2.40641e-06
4.2647e-06
-2.47544e-06
-2.57172e-06
4.28375e-06
1.3243e-07
1.67854e-06
3.05696e-07
2.37784e-06
4.94332e-07
2.86962e-06
7.13975e-07
2.77299e-06
9.58292e-07
2.37521e-06
1.22993e-06
1.935e-06
1.52776e-06
1.52788e-06
1.83321e-06
1.16772e-06
2.1217e-06
8.63092e-07
2.38162e-06
6.10574e-07
2.60746e-06
3.99905e-07
2.80204e-06
2.26248e-07
2.97287e-06
8.03066e-08
3.16769e-06
-7.68571e-08
3.34642e-06
-2.64586e-07
3.51082e-06
-4.5119e-07
3.66218e-06
-6.37899e-07
3.80079e-06
-8.19632e-07
3.92721e-06
-9.95503e-07
4.04245e-06
-1.1642e-06
4.14706e-06
-1.32485e-06
4.24144e-06
-1.47648e-06
4.32604e-06
-1.61773e-06
4.40126e-06
-1.74751e-06
4.46741e-06
-1.86512e-06
4.52477e-06
-1.97047e-06
4.57373e-06
-2.06283e-06
4.61475e-06
-2.14106e-06
4.64822e-06
-2.20529e-06
4.67455e-06
-2.25609e-06
4.69429e-06
-2.29422e-06
4.70797e-06
-2.32032e-06
4.71621e-06
-2.33576e-06
4.71976e-06
-2.34253e-06
4.71907e-06
-2.34188e-06
4.71446e-06
-2.3348e-06
4.70632e-06
-2.32236e-06
4.69503e-06
-2.30615e-06
4.68103e-06
-2.28795e-06
4.66482e-06
-2.26961e-06
4.64682e-06
-2.25331e-06
4.6276e-06
-2.24113e-06
4.60788e-06
-2.23511e-06
4.58844e-06
-2.23862e-06
4.57022e-06
-2.25346e-06
4.55456e-06
-2.28457e-06
4.54262e-06
-2.32937e-06
4.53652e-06
-2.4003e-06
4.5376e-06
-2.47652e-06
-2.58346e-06
4.54935e-06
1.73962e-07
1.50458e-06
3.86848e-07
2.16495e-06
6.21183e-07
2.63528e-06
9.61348e-07
2.43282e-06
1.39853e-06
1.93802e-06
1.8682e-06
1.46534e-06
2.31629e-06
1.07979e-06
2.71538e-06
7.6863e-07
3.06146e-06
5.17013e-07
3.35983e-06
3.12206e-07
3.61304e-06
1.46692e-07
3.82886e-06
1.04327e-08
4.0111e-06
-1.01942e-07
4.20776e-06
-2.73512e-07
4.38036e-06
-4.37186e-07
4.53283e-06
-6.03659e-07
4.66647e-06
-7.7154e-07
4.7829e-06
-9.3606e-07
4.88419e-06
-1.09679e-06
4.9721e-06
-1.25211e-06
5.04779e-06
-1.40054e-06
5.11219e-06
-1.54089e-06
5.16607e-06
-1.67161e-06
5.20997e-06
-1.79141e-06
5.24449e-06
-1.89964e-06
5.27034e-06
-1.99633e-06
5.28815e-06
-2.08064e-06
5.2984e-06
-2.15131e-06
5.3017e-06
-2.20859e-06
5.29874e-06
-2.25313e-06
5.29024e-06
-2.28572e-06
5.27685e-06
-2.30693e-06
5.25928e-06
-2.31819e-06
5.23829e-06
-2.32155e-06
5.2143e-06
-2.31788e-06
5.18756e-06
-2.30806e-06
5.15842e-06
-2.29322e-06
5.12724e-06
-2.27497e-06
5.09446e-06
-2.25516e-06
5.06054e-06
-2.2357e-06
5.02591e-06
-2.21868e-06
4.99108e-06
-2.20629e-06
4.95668e-06
-2.20071e-06
4.92346e-06
-2.2054e-06
4.89233e-06
-2.22233e-06
4.86462e-06
-2.25686e-06
4.8417e-06
-2.30645e-06
4.82554e-06
-2.38414e-06
4.81813e-06
-2.46912e-06
-2.58791e-06
4.82258e-06
2.07391e-07
1.29719e-06
4.62804e-07
1.90954e-06
9.15641e-07
2.18245e-06
1.6014e-06
1.74706e-06
2.30675e-06
1.23268e-06
2.91475e-06
8.57339e-07
3.41263e-06
5.81905e-07
3.81652e-06
3.64739e-07
4.14567e-06
1.8787e-07
4.4182e-06
3.96749e-08
4.64878e-06
-8.38915e-08
4.84608e-06
-1.86867e-07
5.01271e-06
-2.68568e-07
5.19426e-06
-4.55068e-07
5.35317e-06
-5.96093e-07
5.48835e-06
-7.38838e-07
5.60013e-06
-8.83319e-07
5.6922e-06
-1.02814e-06
5.76771e-06
-1.1723e-06
5.82863e-06
-1.31304e-06
5.87632e-06
-1.44823e-06
5.91192e-06
-1.57649e-06
5.93646e-06
-1.69615e-06
5.95086e-06
-1.80581e-06
5.95609e-06
-1.90487e-06
5.95297e-06
-1.99321e-06
5.94213e-06
-2.0698e-06
5.92437e-06
-2.13355e-06
5.90065e-06
-2.18486e-06
5.87184e-06
-2.22432e-06
5.83879e-06
-2.25267e-06
5.80216e-06
-2.2703e-06
5.76264e-06
-2.27867e-06
5.72087e-06
-2.27978e-06
5.67714e-06
-2.27415e-06
5.63168e-06
-2.2626e-06
5.5848e-06
-2.24634e-06
5.53687e-06
-2.22704e-06
5.4883e-06
-2.2066e-06
5.43953e-06
-2.18693e-06
5.39095e-06
-2.1701e-06
5.343e-06
-2.15834e-06
5.2963e-06
-2.15401e-06
5.25154e-06
-2.16063e-06
5.20963e-06
-2.18042e-06
5.17185e-06
-2.21908e-06
5.13969e-06
-2.27429e-06
5.11507e-06
-2.35952e-06
5.10042e-06
-2.45446e-06
-2.58566e-06
5.09817e-06
1.21809e-07
1.17538e-06
9.72064e-07
1.05928e-06
1.9774e-06
1.17711e-06
2.92673e-06
7.97731e-07
3.68698e-06
4.72426e-07
4.26468e-06
2.79641e-07
4.70805e-06
1.38536e-07
5.05579e-06
1.69976e-08
5.33121e-06
-8.75545e-08
5.55244e-06
-1.81551e-07
5.73214e-06
-2.63598e-07
5.88013e-06
-3.34854e-07
6.00472e-06
-3.93154e-07
6.14259e-06
-5.92941e-07
6.26258e-06
-7.16083e-07
6.36263e-06
-8.38891e-07
6.44389e-06
-9.64573e-07
6.50789e-06
-1.09214e-06
6.55588e-06
-1.22028e-06
6.58909e-06
-1.34625e-06
6.6089e-06
-1.46804e-06
6.61664e-06
-1.58423e-06
6.61356e-06
-1.69306e-06
6.60101e-06
-1.79326e-06
6.58006e-06
-1.88391e-06
6.55132e-06
-1.96447e-06
6.51563e-06
-2.03412e-06
6.47424e-06
-2.09216e-06
6.42829e-06
-2.13891e-06
6.37871e-06
-2.17474e-06
6.32628e-06
-2.20024e-06
6.27158e-06
-2.2156e-06
6.21509e-06
-2.22218e-06
6.15718e-06
-2.22186e-06
6.09807e-06
-2.21505e-06
6.03805e-06
-2.20257e-06
5.97742e-06
-2.18572e-06
5.91654e-06
-2.16616e-06
5.85578e-06
-2.14583e-06
5.7955e-06
-2.12665e-06
5.73604e-06
-2.11064e-06
5.67781e-06
-2.10011e-06
5.62138e-06
-2.09758e-06
5.56743e-06
-2.10668e-06
5.5169e-06
-2.1299e-06
5.471e-06
-2.17317e-06
5.43137e-06
-2.23466e-06
5.39983e-06
-2.32798e-06
5.3792e-06
-2.43384e-06
-2.57759e-06
5.37113e-06
1.42961e-06
-2.54237e-07
2.6657e-06
-1.76799e-07
3.83126e-06
1.15445e-08
4.71821e-06
-8.92208e-08
5.35358e-06
-1.62942e-07
5.80984e-06
-1.76617e-07
6.1476e-06
-1.99226e-07
6.40281e-06
-2.38215e-07
6.60045e-06
-2.85191e-07
6.75291e-06
-3.34009e-07
6.87061e-06
-3.81297e-07
6.96181e-06
-4.2606e-07
7.03284e-06
-4.64179e-07
7.10512e-06
-6.65225e-07
7.1631e-06
-7.74054e-07
7.20791e-06
-8.83709e-07
7.24172e-06
-9.98382e-07
7.26336e-06
-1.11377e-06
7.27221e-06
-1.22914e-06
7.26887e-06
-1.34291e-06
7.25448e-06
-1.45364e-06
7.23034e-06
-1.56009e-06
7.19771e-06
-1.66043e-06
7.15782e-06
-1.75337e-06
7.11171e-06
-1.8378e-06
7.06005e-06
-1.91282e-06
7.00361e-06
-1.97768e-06
6.94343e-06
-2.03198e-06
6.88045e-06
-2.07593e-06
6.8154e-06
-2.10969e-06
6.74885e-06
-2.13369e-06
6.68122e-06
-2.14797e-06
6.61261e-06
-2.15357e-06
6.54312e-06
-2.15238e-06
6.47306e-06
-2.14499e-06
6.40275e-06
-2.13227e-06
6.33252e-06
-2.11548e-06
6.26263e-06
-2.09627e-06
6.19336e-06
-2.07657e-06
6.12497e-06
-2.05826e-06
6.05775e-06
-2.04342e-06
5.99208e-06
-2.03444e-06
5.92853e-06
-2.03402e-06
5.86774e-06
-2.04589e-06
5.8107e-06
-2.07286e-06
5.75852e-06
-2.12099e-06
5.71307e-06
-2.18922e-06
5.67592e-06
-2.29084e-06
5.65042e-06
-2.40833e-06
-2.56441e-06
5.63724e-06
4.9585e-05
7.77913e-07
4.85553e-05
8.52945e-07
4.75732e-05
9.93673e-07
4.64601e-05
1.02384e-06
4.5337e-05
9.60183e-07
4.43025e-05
8.57895e-07
4.33553e-05
7.47929e-07
4.24792e-05
6.37882e-07
4.16642e-05
5.29771e-07
4.09048e-05
4.25433e-07
4.01964e-05
3.27067e-07
3.9534e-05
2.3637e-07
3.89167e-05
1.53119e-07
3.81627e-05
8.88025e-08
3.74203e-05
-3.16837e-08
3.66745e-05
-1.37855e-07
3.59346e-05
-2.58532e-07
3.52022e-05
-3.81371e-07
3.44778e-05
-5.04694e-07
3.3762e-05
-6.2714e-07
3.3055e-05
-7.46667e-07
3.23565e-05
-8.61595e-07
3.16664e-05
-9.70303e-07
3.09845e-05
-1.07147e-06
3.03109e-05
-1.16419e-06
2.9646e-05
-1.24794e-06
2.89902e-05
-1.32185e-06
2.83433e-05
-1.38511e-06
2.77051e-05
-1.43772e-06
2.70752e-05
-1.47979e-06
2.64533e-05
-1.51184e-06
2.58394e-05
-1.53401e-06
2.52331e-05
-1.54733e-06
2.46338e-05
-1.55302e-06
2.40408e-05
-1.55198e-06
2.34543e-05
-1.54574e-06
2.28745e-05
-1.53571e-06
2.23015e-05
-1.52323e-06
2.17351e-05
-1.51023e-06
2.11755e-05
-1.49864e-06
2.06232e-05
-1.49112e-06
2.0079e-05
-1.49024e-06
1.95444e-05
-1.49947e-06
1.90206e-05
-1.52206e-06
1.85104e-05
-1.56267e-06
1.80156e-05
-1.62619e-06
1.75424e-05
-1.716e-06
1.70914e-05
-1.83983e-06
1.66756e-05
-1.99252e-06
-2.18064e-06
1.62918e-05
2.05346e-05
6.13607e-07
2.07225e-05
6.65098e-07
2.09446e-05
7.71576e-07
2.11417e-05
8.26704e-07
2.12991e-05
8.02827e-07
2.14247e-05
7.32292e-07
2.15261e-05
6.46507e-07
2.16062e-05
5.57767e-07
2.1667e-05
4.68969e-07
2.17108e-05
3.81642e-07
2.17404e-05
2.9752e-07
2.17583e-05
2.18462e-07
2.17653e-05
1.46054e-07
2.17588e-05
9.53091e-08
2.17213e-05
5.86211e-09
2.16903e-05
-1.06874e-07
2.16407e-05
-2.08975e-07
2.15769e-05
-3.17481e-07
2.15006e-05
-4.28406e-07
2.14119e-05
-5.38514e-07
2.13116e-05
-6.46317e-07
2.12005e-05
-7.5047e-07
2.10797e-05
-8.49527e-07
2.09505e-05
-9.42277e-07
2.0814e-05
-1.02773e-06
2.06713e-05
-1.10519e-06
2.05234e-05
-1.17399e-06
2.03718e-05
-1.23347e-06
2.02176e-05
-1.28349e-06
2.00618e-05
-1.32403e-06
1.99055e-05
-1.35551e-06
1.97497e-05
-1.37823e-06
1.95957e-05
-1.39334e-06
1.94448e-05
-1.40214e-06
1.92978e-05
-1.40498e-06
1.91549e-05
-1.40283e-06
1.90163e-05
-1.39705e-06
1.8882e-05
-1.38902e-06
1.87527e-05
-1.38086e-06
1.86283e-05
-1.37423e-06
1.85091e-05
-1.37191e-06
1.83951e-05
-1.37624e-06
1.82873e-05
-1.3917e-06
1.8186e-05
-1.42082e-06
1.80943e-05
-1.47095e-06
1.80131e-05
-1.54501e-06
1.79503e-05
-1.65321e-06
1.79079e-05
-1.79741e-06
1.79034e-05
-1.98797e-06
-2.21425e-06
1.7937e-05
2.05207e-05
4.60908e-07
2.06848e-05
5.01014e-07
2.08752e-05
5.81225e-07
2.10716e-05
6.30304e-07
2.1254e-05
6.20405e-07
2.14169e-05
5.69417e-07
2.15615e-05
5.01842e-07
2.16894e-05
4.29846e-07
2.18013e-05
3.57138e-07
2.18976e-05
2.85292e-07
2.19791e-05
2.16025e-07
2.20462e-05
1.51364e-07
2.21002e-05
9.20733e-08
2.21552e-05
4.03542e-08
2.22049e-05
-4.38438e-08
2.22313e-05
-1.33279e-07
2.22484e-05
-2.2613e-07
2.22514e-05
-3.20411e-07
2.22397e-05
-4.1678e-07
2.22144e-05
-5.13209e-07
2.2176e-05
-6.07903e-07
2.2125e-05
-6.99515e-07
2.20623e-05
-7.86802e-07
2.19887e-05
-8.6868e-07
2.19052e-05
-9.44216e-07
2.18127e-05
-1.01268e-06
2.17122e-05
-1.07351e-06
2.16049e-05
-1.12619e-06
2.14919e-05
-1.17048e-06
2.13743e-05
-1.20634e-06
2.12528e-05
-1.23408e-06
2.11287e-05
-1.25411e-06
2.10026e-05
-1.26721e-06
2.08749e-05
-1.27443e-06
2.07464e-05
-1.27657e-06
2.06181e-05
-1.27444e-06
2.04903e-05
-1.26932e-06
2.03638e-05
-1.26252e-06
2.02392e-05
-1.25627e-06
2.0117e-05
-1.25196e-06
1.99975e-05
-1.25247e-06
1.98806e-05
-1.25932e-06
1.97671e-05
-1.27825e-06
1.96566e-05
-1.31031e-06
1.95521e-05
-1.36638e-06
1.94527e-05
-1.44566e-06
1.93679e-05
-1.56838e-06
1.9297e-05
-1.72653e-06
1.92632e-05
-1.95415e-06
-2.21282e-06
1.92618e-05
2.0526e-05
3.06871e-07
2.06854e-05
3.41521e-07
2.0862e-05
4.04705e-07
2.10459e-05
4.46397e-07
2.12222e-05
4.44041e-07
2.13835e-05
4.08166e-07
2.15288e-05
3.56577e-07
2.16589e-05
2.99684e-07
2.17746e-05
2.41449e-07
2.18762e-05
1.83663e-07
2.19643e-05
1.27972e-07
2.20399e-05
7.57401e-08
2.2104e-05
2.80268e-08
2.21718e-05
-2.7527e-08
2.22286e-05
-1.00592e-07
2.22728e-05
-1.77509e-07
2.23048e-05
-2.58117e-07
2.23247e-05
-3.40295e-07
2.23317e-05
-4.23778e-07
2.23259e-05
-5.07469e-07
2.23079e-05
-5.89862e-07
2.22781e-05
-6.69678e-07
2.22371e-05
-7.45839e-07
2.21858e-05
-8.1741e-07
2.21252e-05
-8.83571e-07
2.20562e-05
-9.43658e-07
2.19798e-05
-9.97151e-07
2.18972e-05
-1.04363e-06
2.18096e-05
-1.08285e-06
2.17181e-05
-1.11479e-06
2.16236e-05
-1.13963e-06
2.15273e-05
-1.15778e-06
2.14299e-05
-1.16979e-06
2.13319e-05
-1.17649e-06
2.12341e-05
-1.17871e-06
2.11368e-05
-1.17718e-06
2.10405e-05
-1.17307e-06
2.09455e-05
-1.16749e-06
2.08517e-05
-1.16249e-06
2.0759e-05
-1.15919e-06
2.06674e-05
-1.16093e-06
2.05764e-05
-1.16828e-06
2.04864e-05
-1.18822e-06
2.03958e-05
-1.2197e-06
2.03071e-05
-1.27777e-06
2.02178e-05
-1.35627e-06
2.01372e-05
-1.48785e-06
2.00615e-05
-1.65085e-06
2.00166e-05
-1.90924e-06
-2.194e-06
1.99978e-05
2.05324e-05
1.49927e-07
2.06916e-05
1.82261e-07
2.08619e-05
2.34448e-07
2.10372e-05
2.71052e-07
2.12067e-05
2.74612e-07
2.13634e-05
2.51423e-07
2.15057e-05
2.14293e-07
2.16337e-05
1.71617e-07
2.17481e-05
1.27123e-07
2.18491e-05
8.26773e-08
2.19373e-05
3.97823e-08
2.20133e-05
-3.21091e-10
2.20782e-05
-3.68645e-08
2.21484e-05
-9.7744e-08
2.22078e-05
-1.60016e-07
2.22562e-05
-2.25872e-07
2.22928e-05
-2.94682e-07
2.23176e-05
-3.65081e-07
2.23302e-05
-4.36406e-07
2.23306e-05
-5.07893e-07
2.23191e-05
-5.78391e-07
2.22962e-05
-6.46768e-07
2.22625e-05
-7.12102e-07
2.22187e-05
-7.73593e-07
2.21657e-05
-8.30557e-07
2.21044e-05
-8.82402e-07
2.20359e-05
-9.28687e-07
2.19614e-05
-9.69048e-07
2.18818e-05
-1.00329e-06
2.17984e-05
-1.03137e-06
2.17122e-05
-1.05345e-06
2.16242e-05
-1.06982e-06
2.15354e-05
-1.08097e-06
2.14464e-05
-1.0875e-06
2.13579e-05
-1.09021e-06
2.12704e-05
-1.08967e-06
2.11844e-05
-1.08703e-06
2.10999e-05
-1.08304e-06
2.10172e-05
-1.07976e-06
2.09358e-05
-1.07775e-06
2.08556e-05
-1.08079e-06
2.07757e-05
-1.0883e-06
2.06961e-05
-1.10863e-06
2.06143e-05
-1.13794e-06
2.05325e-05
-1.19599e-06
2.04459e-05
-1.26963e-06
2.03642e-05
-1.40618e-06
2.028e-05
-1.56662e-06
2.02247e-05
-1.85398e-06
-2.15801e-06
2.01887e-05
2.05382e-05
-9.38632e-09
2.06977e-05
2.28039e-08
2.08638e-05
6.83237e-08
2.10329e-05
1.01972e-07
2.11968e-05
1.10727e-07
2.13497e-05
9.85328e-08
2.14893e-05
7.46141e-08
2.16155e-05
4.5477e-08
2.17284e-05
1.42447e-08
2.18283e-05
-1.7285e-08
2.19158e-05
-4.77407e-08
2.19917e-05
-7.61644e-08
2.20566e-05
-1.01797e-07
2.21274e-05
-1.6854e-07
2.21881e-05
-2.20668e-07
2.2238e-05
-2.75781e-07
2.22765e-05
-3.33184e-07
2.23033e-05
-3.91941e-07
2.23183e-05
-4.51409e-07
2.23215e-05
-5.11006e-07
2.23129e-05
-5.6983e-07
2.2293e-05
-6.26923e-07
2.22625e-05
-6.81528e-07
2.22219e-05
-7.32981e-07
2.2172e-05
-7.80738e-07
2.21139e-05
-8.24284e-07
2.20485e-05
-8.63272e-07
2.19768e-05
-8.97381e-07
2.19e-05
-9.26489e-07
2.18192e-05
-9.50508e-07
2.17353e-05
-9.69614e-07
2.16495e-05
-9.83974e-07
2.15626e-05
-9.94055e-07
2.14753e-05
-1.00023e-06
2.13884e-05
-1.00327e-06
2.13022e-05
-1.00355e-06
2.12174e-05
-1.00219e-06
2.11339e-05
-9.99569e-07
2.1052e-05
-9.97805e-07
2.0971e-05
-9.9678e-07
2.0891e-05
-1.00076e-06
2.08104e-05
-1.0077e-06
2.07293e-05
-1.0276e-06
2.06443e-05
-1.05293e-06
2.05574e-05
-1.10908e-06
2.04611e-05
-1.17334e-06
2.03665e-05
-1.31154e-06
2.02598e-05
-1.45997e-06
2.01839e-05
-1.77809e-06
-2.08647e-06
2.01124e-05
2.55106e-05
-4.12392e-08
2.55493e-05
-1.59281e-08
2.56004e-05
1.73091e-08
2.56603e-05
4.20158e-08
2.57214e-05
4.963e-08
2.57775e-05
4.24015e-08
2.58256e-05
2.65605e-08
2.58643e-05
6.80059e-09
2.58936e-05
-1.50671e-08
2.59135e-05
-3.71925e-08
2.59244e-05
-5.86416e-08
2.59269e-05
-7.86982e-08
2.59218e-05
-9.66457e-08
2.59046e-05
-1.5141e-07
2.58752e-05
-1.91242e-07
2.58326e-05
-2.3318e-07
2.57763e-05
-2.76847e-07
2.57059e-05
-3.21523e-07
2.56214e-05
-3.66929e-07
2.5523e-05
-4.12644e-07
2.54111e-05
-4.57904e-07
2.52861e-05
-5.01973e-07
2.51489e-05
-5.44293e-07
2.50003e-05
-5.84351e-07
2.48413e-05
-6.21728e-07
2.4673e-05
-6.56005e-07
2.44966e-05
-6.86908e-07
2.43134e-05
-7.14162e-07
2.41246e-05
-7.37678e-07
2.39314e-05
-7.57338e-07
2.37351e-05
-7.73276e-07
2.35367e-05
-7.85544e-07
2.33371e-05
-7.94532e-07
2.31373e-05
-8.00416e-07
2.29379e-05
-8.0387e-07
2.27394e-05
-8.05035e-07
2.25422e-05
-8.0501e-07
2.23464e-05
-8.03742e-07
2.2152e-05
-8.0342e-07
2.19584e-05
-8.0314e-07
2.17653e-05
-8.07698e-07
2.15709e-05
-8.13287e-07
2.13752e-05
-8.31856e-07
2.11734e-05
-8.51186e-07
2.09677e-05
-9.03348e-07
2.07469e-05
-9.52588e-07
2.05234e-05
-1.088e-06
2.02735e-05
-1.21004e-06
2.00571e-05
-1.56173e-06
-1.8466e-06
1.98172e-05
2.53e-05
1.44098e-07
2.51308e-05
1.53241e-07
2.49814e-05
1.66735e-07
2.4849e-05
1.74406e-07
2.47275e-05