/*--------------------------------*- C++ -*----------------------------------*\
| =========                 |                                                 |
| \\      /  F ield         | OpenFOAM: The Open Source CFD Toolbox           |
|  \\    /   O peration     | Version:  2112                                  |
|   \\  /    A nd           | Website:  www.openfoam.com                      |
|    \\/     M anipulation  |                                                 |
\*---------------------------------------------------------------------------*/
FoamFile
{
    version     2.0;
    format      ascii;
    arch        "LSB;label=32;scalar=64";
    class       volScalarField;
    location    "0.15";
    object      omega_0;
}
// * * * * * * * * * * * * * * * * * * * * * * * * * * * * * * * * * * * * * //

dimensions      [0 0 -1 0 0 0 0];

internalField   nonuniform List<scalar> 
12225
(
37527.3
40233
41980.6
42972.2
43468.4
43638.4
43609.9
43517.6
43338.6
43117.7
42903.8
42665.2
42468
42234.7
42075.9
41851.9
41739.9
41502.2
2589.99
6031.6
8562.91
10432.5
11778
12739.8
13397.7
13865.6
14198.3
14422.8
14589.6
14698.9
14777.2
14841.6
14860.2
14923.1
14925.9
15035.4
353.326
924.616
1440.03
1916.5
2328.25
2711.04
3023.62
3317.47
3546.95
3772.36
3938.06
4114.11
4230.14
4372.5
4447.93
4571.56
4631.01
4722.67
119.875
272.516
419.914
565.024
695.269
826.294
937.272
1052.27
1143.51
1243.48
1316.76
1403.97
1461.23
1537.9
1582.04
1650.56
1680.34
1750.29
66.3068
127.415
186.979
246.766
301.443
357.097
405.646
456.467
498.467
544.483
580.045
621.791
651.082
689.239
712.861
748.178
763.154
803.581
48.3255
78.7212
108.532
138.64
166.669
194.911
220.318
246.362
268.973
292.827
312.608
334.514
351.393
371.753
385.693
405
414.865
436.092
42.577
57.9527
74.9443
92.1062
108.367
124.561
139.517
154.495
168.037
181.794
193.896
206.546
217.154
228.93
237.918
249.216
256.021
268.034
40.7425
48.2878
58.4243
68.8845
79.0233
89.075
98.5572
107.908
116.604
125.212
133.095
141.006
148.054
155.383
161.521
168.503
173.413
180.739
40.0943
43.6684
49.6562
56.2035
62.7607
69.3019
75.5904
81.7543
87.5982
93.3058
98.6631
103.917
108.774
113.621
117.947
122.51
126.123
130.865
39.8298
41.481
44.8372
48.9297
53.2131
57.5639
61.8324
66.0286
70.0667
73.9955
77.7406
81.3765
84.8104
88.1648
91.2725
94.4023
97.0846
100.302
39.709
40.4595
42.198
44.6876
47.4501
50.3443
53.256
56.1509
58.9778
61.7376
64.3989
66.9787
69.4467
71.8376
74.0997
76.3225
78.325
80.5839
39.6566
40.0164
40.9228
42.4419
44.2499
46.2207
48.2611
50.3248
52.3712
54.3858
56.3483
58.2577
60.1001
61.8843
63.5914
65.253
66.7924
68.4668
39.63
39.7905
40.2282
41.0866
42.2143
43.5096
44.901
46.3433
47.8019
49.2569
50.6915
52.0978
53.4668
54.7975
56.0818
57.3287
58.5069
59.7571
39.6161
39.6728
39.8525
40.2497
40.8652
41.6251
42.4851
43.4105
44.3738
45.3556
46.3409
47.3197
48.284
49.2293
50.1505
51.0479
51.9096
52.8084
39.6078
39.6201
39.6765
39.8189
40.0932
40.4708
40.9316
41.4554
42.0244
42.6237
43.2415
43.8686
44.4977
45.1235
45.7416
46.3496
46.9425
47.5554
39.6043
39.5974
39.6065
39.6427
39.7276
39.8759
40.0768
40.3238
40.6092
40.925
41.2639
41.6196
41.9867
42.3607
42.738
43.1156
43.491
43.8787
39.604
39.5884
39.5796
39.5821
39.5969
39.6328
39.698
39.7887
39.9037
40.041
40.1976
40.3707
40.5573
40.7549
40.9609
41.1731
41.3899
41.6158
39.604
39.5867
39.5723
39.5626
39.5617
39.5667
39.5815
39.6114
39.6565
39.7159
39.7894
39.876
39.9747
40.084
40.2026
40.3291
40.4622
40.6023
39.6039
39.5872
39.5744
39.5707
39.5756
39.5917
39.6248
39.6762
39.7447
39.8294
39.9294
40.043
40.1686
40.3046
40.4494
40.6013
40.7588
40.9177
39.604
39.5966
39.6053
39.6393
39.7166
39.848
40.0242
40.2404
40.4904
40.7678
41.0667
41.3817
41.7081
42.0421
42.3805
42.7205
43.0599
43.389
39.6102
39.6339
39.7209
39.921
40.2584
40.6979
41.2183
41.7986
42.4211
43.0709
43.7365
44.409
45.0814
45.7485
46.4066
47.0524
47.6851
48.2847
39.6302
39.7856
40.1867
40.9424
41.9216
43.0515
44.2763
45.5534
46.854
48.1566
49.4475
50.7163
51.957
53.1643
54.3366
55.4698
56.5712
57.5954
39.7085
40.3657
41.806
43.8387
46.1484
48.59
51.083
53.5682
56.0189
58.4095
60.7339
62.9795
65.149
67.2336
69.2437
71.1626
73.0323
74.7339
40.0218
42.3549
46.3992
51.0061
55.8291
60.6498
65.407
70.0171
74.4904
78.7787
82.9152
86.8596
90.6591
94.2646
97.7508
101.02
104.256
107.11
41.2492
48.5877
58.1061
67.9268
77.722
87.1705
96.3617
105.085
113.528
121.479
129.179
136.384
143.394
149.887
156.291
162.081
168.025
173.014
46.1929
66.6996
88.9414
110.644
131.823
151.749
171.132
189.095
206.657
222.713
238.569
252.838
267.164
279.755
292.777
303.756
315.762
325.103
65.9198
125.8
185.605
241.65
295.696
345.343
393.764
437.136
480.149
517.585
555.71
587.748
621.61
648.812
679.078
701.963
729.277
748.298
166.889
402.775
620.397
816.814
1000.9
1164.66
1319.78
1452.9
1581.88
1688.16
1795.51
1879.41
1969.46
2035.28
2111.68
2162.92
2228.61
2268.22
1158.1
2665.29
3852.25
4824.95
5631.59
6285.46
6819.52
7243.21
7589.71
7861.03
8087.85
8259.43
8414.5
8522.01
8632.46
8695.75
8781.05
8811.03
23121.7
24533.2
25613.8
26401.8
26955.7
27332.8
27578.9
27730.7
27813.6
27849.1
27844.2
27826.4
27789.1
27739.1
27682.4
27621.4
27558.5
27494.8
11470.6
2548.15
2563.7
2574.88
2583.59
2591.81
2603.98
2619.49
2638.97
2661
2685.62
2710.41
2731.89
2749.79
2763.26
2769.23
2769.42
2766.44
2762.18
2754.84
2742.25
2721.94
2690.62
2644.67
2599.76
2596.51
2608.28
2620.24
2627.28
2639.68
2665.59
2692.66
2696.83
2690.52
2671.5
2653.94
2640.64
2639.55
2714.29
2950.42
3152.47
3292.19
3415.67
3518.91
3612.79
3696.74
3774.57
3846.95
3915.77
3981.84
4046.14
4109.38
4170.61
4230.5
4288.57
4345.9
4402.13
4457.82
4512.92
4567.64
4622.03
4676.2
4730.15
4783.96
4837.62
4891.17
4944.58
4997.86
5050.99
5103.97
5156.75
5209.33
5261.67
5313.75
5365.54
5417.01
5468.14
5518.91
5569.27
5619.22
5668.73
5717.77
5766.31
5814.34
5861.83
5908.75
5955.09
6000.81
6045.89
6090.31
6134.05
6177.06
6219.34
6260.85
6301.59
6341.52
6380.65
6418.99
6456.57
6493.45
6529.79
6565.79
6601.18
6635.91
6670.02
6703.5
6736.34
6768.57
6800.19
6831.2
6861.61
6891.44
6920.69
6949.38
6977.5
7005.09
7032.14
7058.68
7084.72
7110.26
7135.33
7159.93
7184.07
7207.76
7231.02
7253.86
7276.29
7298.32
7319.95
7341.18
7362
7382.33
7401.97
7420.51
7438.26
7455.2
7471.34
7486.63
7501.02
7514.48
7526.74
7538.19
7547.77
7556.23
7563.49
7569.21
7573.29
7575.69
7576.24
7574.75
7571.25
7565.93
7558.2
7548.19
7535.74
7520.77
7503.19
7482.9
7459.83
7433.92
7405.09
7373.32
7338.53
7300.71
7260.14
7223
7212.14
7223.23
7234.01
7242.8
7249.01
7252.73
7252.55
7251.15
7243.44
7232.79
7218.94
7181.15
7153.92
6941.93
11479.9
2313.15
1456.54
1205.52
983.638
948.959
1064.39
1154.54
1149.17
1120.1
1065.25
1009.98
959.483
915.864
882.234
857.503
848.842
867.867
926.183
1046.54
1211.66
1407.65
1608.14
1773.4
1857.39
1833.35
1702.91
1338.56
838.214
744.682
772.995
829.739
846.4
858.762
1041.55
1622.41
2069.22
2218.23
2271.58
2296.28
2284.8
2221.64
2156.46
2075.75
2008.23
1946.17
1898.4
1858.72
1829.24
1806.66
1790.91
1780.39
1774.72
1771.96
1770.96
1772.61
1776.65
1781.69
1788.15
1795.29
1803.25
1811.63
1820.45
1829.51
1838.76
1848.11
1857.51
1866.92
1876.3
1885.64
1894.9
1904.09
1913.19
1922.2
1931.13
1939.96
1948.71
1957.37
1965.95
1974.44
1982.86
1991.19
1999.44
2007.61
2015.7
2023.71
2031.63
2039.48
2047.24
2054.92
2062.53
2070.07
2077.56
2085
2092.42
2099.86
2107.35
2114.97
2122.83
2131.08
2139.9
2150.07
2159.79
2169.51
2179.11
2188.59
2197.98
2207.26
2216.44
2225.52
2234.49
2243.36
2252.13
2260.8
2269.36
2277.82
2286.17
2294.42
2302.57
2310.6
2318.53
2326.34
2334.04
2341.62
2349.07
2356.39
2363.58
2370.63
2377.51
2384.21
2390.67
2396.81
2402.43
2407.14
2411.49
2415.57
2419.32
2422.73
2425.8
2428.49
2430.79
2432.71
2434.15
2435.21
2435.82
2435.91
2435.6
2434.8
2433.52
2431.72
2429.45
2426.67
2423.24
2419.26
2414.73
2409.62
2403.94
2397.72
2390.94
2383.59
2375.66
2367.18
2358.16
2348.69
2339.16
2331.12
2327.39
2325.83
2324.15
2322.15
2319.74
2317.04
2313.85
2310.75
2307.03
2304.09
2301.21
2300.18
2304.41
2344.95
11471.3
3055.85
1460.23
1054.62
1093.7
1268.61
1270.18
1216.35
1102.54
976.286
866.949
778.306
707.115
649.229
604.53
575.32
555.022
554.192
562.021
585.565
636.003
721.832
844.185
983.889
1117.74
1224.99
1249.47
1193.77
1036.25
896.887
873.647
974.4
1082.36
1261.05
1441.61
1598.06
1659.77
1657.71
1616.57
1572.96
1499.16
1420.39
1351.61
1293.82
1250.89
1216.86
1192.44
1174.1
1161.42
1152.66
1147.42
1144.82
1143.84
1143.73
1145.43
1148.05
1151.45
1155.37
1159.77
1164.48
1169.45
1174.59
1179.86
1185.21
1190.61
1196.03
1201.46
1206.89
1212.29
1217.66
1223.01
1228.33
1233.62
1238.88
1244.11
1249.31
1254.49
1259.64
1264.77
1269.87
1274.95
1280.01
1285.04
1290.05
1295.03
1299.99
1304.93
1309.86
1314.76
1319.65
1324.53
1329.4
1334.28
1339.18
1344.1
1349.07
1354.11
1359.23
1364.48
1369.87
1375.42
1381.06
1386.59
1392.09
1397.54
1402.94
1408.29
1413.59
1418.84
1424.03
1429.17
1434.26
1439.28
1444.25
1449.15
1453.99
1458.76
1463.45
1468.08
1472.62
1477.09
1481.47
1485.75
1489.95
1494.03
1498.01
1501.87
1505.61
1509.2
1512.62
1515.86
1518.88
1521.63
1524.09
1526.38
1528.48
1530.38
1532.07
1533.54
1534.8
1535.83
1536.63
1537.19
1537.52
1537.6
1537.46
1537.01
1536.35
1535.43
1534.25
1532.83
1531.14
1529.17
1526.95
1524.45
1521.69
1518.65
1515.35
1511.79
1507.95
1503.85
1499.49
1494.89
1490.1
1485.33
1481.07
1477.79
1474.85
1471.81
1468.57
1465.1
1461.49
1457.63
1453.85
1449.8
1446.45
1443.02
1442.45
1445.39
1473.33
11465.5
2520.99
1406.39
1627.43
1667.32
1572.89
1368.7
1139.48
923.961
753.358
633.227
548.062
487.973
449.565
425.339
410.892
403.948
405.231
411.145
424.639
449.738
490.184
555.154
646.136
751.743
859.084
947.797
994.062
994.008
985.582
1091.28
1233.27
1289.94
1307.26
1353.23
1359.89
1296.21
1270.65
1215.34
1160.75
1097.35
1047.28
1007.16
976.494
953.899
937.085
925.274
917.031
911.712
908.842
907.606
907.317
908.081
909.793
912.19
915.068
918.323
921.862
925.621
929.538
933.574
937.69
941.864
946.072
950.3
954.538
958.778
963.016
967.248
971.474
975.694
979.908
984.117
988.322
992.524
996.724
1000.92
1005.12
1009.31
1013.5
1017.69
1021.88
1026.06
1030.24
1034.41
1038.57
1042.73
1046.89
1051.05
1055.2
1059.36
1063.52
1067.69
1071.88
1076.08
1080.31
1084.57
1088.87
1093.2
1097.57
1101.95
1106.32
1110.65
1114.95
1119.21
1123.43
1127.62
1131.77
1135.88
1139.94
1143.97
1147.95
1151.88
1155.76
1159.58
1163.36
1167.08
1170.73
1174.33
1177.86
1181.32
1184.71
1188.03
1191.26
1194.41
1197.47
1200.42
1203.28
1206.02
1208.63
1211.1
1213.43
1215.59
1217.6
1219.48
1221.22
1222.82
1224.28
1225.59
1226.75
1227.75
1228.61
1229.3
1229.84
1230.22
1230.45
1230.48
1230.35
1230.07
1229.62
1229
1228.21
1227.24
1226.09
1224.76
1223.24
1221.53
1219.63
1217.52
1215.23
1212.72
1210.01
1207.1
1204.02
1200.87
1197.82
1194.96
1192.08
1189.02
1185.76
1182.26
1178.58
1174.66
1170.7
1166.52
1162.72
1158.91
1156.65
1157.6
1171.52
11467
2369.65
2388.67
2210.68
1839.53
1434.8
1053.49
769.559
597.551
499.547
439.117
400.154
374.256
356.819
345.294
338.269
335.836
337.195
341.853
351.823
368.666
394.638
435.222
497.353
579.36
673.781
774.071
867.282
947.814
1059.2
1193.76
1239.6
1238
1191.92
1134.77
1098.22
1056.57
1019.54
969.91
924.975
884.914
855.071
831.876
814.7
802.261
793.473
787.622
784.124
782.488
781.993
782.332
783.666
785.648
788.154
791.044
794.22
797.612
801.165
804.838
808.596
812.415
816.274
820.162
824.068
827.986
831.912
835.845
839.783
843.728
847.681
851.642
855.614
859.596
863.591
867.597
871.616
875.646
879.687
883.737
887.795
891.858
895.926
899.997
904.069
908.141
912.212
916.283
920.351
924.418
928.484
932.549
936.614
940.681
944.751
948.823
952.9
956.98
961.062
965.141
969.213
973.266
977.29
981.279
985.234
989.154
993.038
996.884
1000.69
1004.46
1008.19
1011.87
1015.51
1019.1
1022.65
1026.15
1029.6
1033
1036.34
1039.62
1042.85
1046.02
1049.12
1052.16
1055.13
1058.02
1060.84
1063.58
1066.24
1068.8
1071.27
1073.64
1075.9
1078.05
1080.1
1082.05
1083.9
1085.65
1087.3
1088.83
1090.27
1091.59
1092.8
1093.91
1094.9
1095.77
1096.52
1097.15
1097.66
1098.04
1098.31
1098.44
1098.43
1098.28
1097.99
1097.55
1096.94
1096.16
1095.21
1094.08
1092.75
1091.23
1089.5
1087.55
1085.39
1083.08
1080.67
1078.17
1075.5
1072.6
1069.43
1065.99
1062.3
1058.33
1054.21
1049.85
1045.61
1041.35
1037.85
1036.46
1042.23
11468.7
4118.48
3044.4
2214.94
1470.13
950.349
672.81
526.762
444.664
395.322
363.832
342.738
328.097
317.799
310.722
306.357
304.933
305.965
309.553
317.291
330.412
350.775
382.397
431.463
499.782
585.905
689.259
805.561
948.446
1090.22
1168.76
1175.22
1089.26
1005.39
964.555
929.366
893.005
855.814
817.461
785.885
760.611
741.738
727.54
717.305
710.211
705.598
703.203
702.29
702.223
703.21
704.958
707.318
710.122
713.264
716.655
720.229
723.936
727.739
731.61
735.527
739.476
743.446
747.431
751.428
755.437
759.456
763.489
767.537
771.602
775.687
779.793
783.923
788.075
792.251
796.449
800.67
804.91
809.168
813.441
817.727
822.021
826.323
830.627
834.933
839.239
843.541
847.84
852.132
856.418
860.696
864.966
869.225
873.475
877.714
881.942
886.155
890.352
894.528
898.678
902.801
906.892
910.946
914.961
918.936
922.871
926.763
930.613
934.42
938.181
941.898
945.568
949.191
952.765
956.291
959.766
963.189
966.56
969.876
973.137
976.343
979.492
982.584
985.618
988.592
991.503
994.351
997.132
999.845
1002.49
1005.06
1007.55
1009.96
1012.3
1014.57
1016.76
1018.88
1020.93
1022.9
1024.8
1026.62
1028.36
1030.02
1031.6
1033.09
1034.5
1035.81
1037.03
1038.15
1039.17
1040.08
1040.87
1041.55
1042.11
1042.52
1042.79
1042.9
1042.84
1042.6
1042.17
1041.54
1040.71
1039.63
1038.3
1036.72
1034.92
1032.9
1030.66
1028.17
1025.37
1022.26
1018.83
1015.08
1011.01
1006.68
1002.07
997.406
992.635
988.285
984.684
985.732
11472.3
5329.5
3066.54
1662.12
953.551
644.935
500.381
424.239
379.614
351.144
331.762
317.934
307.796
300.345
295.066
291.766
290.632
291.485
294.612
301.369
312.866
330.948
359.302
402.885
464.05
544.068
651.699
798.171
960.156
1068.31
1094.67
1033.45
933.054
875.949
842.764
810.428
778.29
746.851
718.794
696.71
679.74
667.158
658.027
651.741
647.817
645.929
645.353
645.719
647.091
649.23
651.954
655.125
658.629
662.38
666.309
670.365
674.51
678.716
682.962
687.235
691.525
695.828
700.143
704.47
708.811
713.17
717.551
721.957
726.391
730.857
735.357
739.889
744.456
749.055
753.684
758.342
763.025
767.73
772.452
777.188
781.932
786.68
791.429
796.175
800.915
805.645
810.365
815.07
819.76
824.431
829.083
833.712
838.318
842.899
847.453
851.978
856.47
860.925
865.343
869.719
874.05
878.334
882.568
886.752
890.885
894.966
898.995
902.97
906.892
910.76
914.574
918.333
922.037
925.686
929.279
932.815
936.294
939.717
943.083
946.392
949.646
952.844
955.988
959.077
962.112
965.09
968.012
970.878
973.688
976.441
979.138
981.779
984.364
986.896
989.376
991.804
994.179
996.5
998.765
1000.98
1003.13
1005.22
1007.26
1009.22
1011.12
1012.94
1014.68
1016.33
1017.89
1019.36
1020.7
1021.91
1022.98
1023.91
1024.69
1025.29
1025.71
1025.94
1025.97
1025.79
1025.37
1024.69
1023.71
1022.46
1020.92
1019.11
1017.01
1014.58
1011.82
1008.7
1005.21
1001.36
997.138
992.607
987.739
982.712
977.502
972.487
967.714
965.167
11554.5
5306.6
2206.67
1065.49
671.266
507.607
426.933
381.143
352.138
332.229
317.783
306.927
298.656
292.428
287.978
285.221
284.337
285.3
288.68
295.796
307.879
326.928
355.684
397.412
456.289
539.492
656.356
810.949
953.116
1004.4
978.174
894.443
819.991
780.525
751.555
723.339
696.189
671.308
650.597
634.618
622.622
613.922
607.904
604.19
602.456
601.999
602.585
604.183
606.589
609.625
613.145
617.036
621.202
625.571
630.085
634.7
639.384
644.114
648.873
653.652
658.446
663.253
668.074
672.913
677.773
682.661
687.58
692.536
697.532
702.572
707.656
712.783
717.952
723.16
728.404
733.679
738.981
744.306
749.648
755
760.356
765.711
771.058
776.394
781.714
787.015
792.293
797.547
802.771
807.964
813.122
818.242
823.322
828.361
833.356
838.306
843.209
848.067
852.871
857.615
862.295
866.91
871.459
875.942
880.358
884.707
888.989
893.203
897.351
901.432
905.446
909.395
913.278
917.096
920.849
924.538
928.163
931.725
935.224
938.664
942.045
945.369
948.638
951.855
955.019
958.131
961.193
964.205
967.17
970.089
972.964
975.794
978.583
981.331
984.039
986.708
989.337
991.924
994.469
996.97
999.425
1001.83
1004.19
1006.49
1008.72
1010.88
1012.97
1014.98
1016.9
1018.71
1020.41
1021.99
1023.44
1024.74
1025.87
1026.82
1027.57
1028.11
1028.43
1028.51
1028.36
1027.92
1027.12
1026.01
1024.59
1022.84
1020.74
1018.28
1015.42
1012.18
1008.52
1004.46
999.989
995.166
989.958
984.52
978.841
973.161
967.682
962.812
11684.2
4107.36
1475.79
786.927
553.021
450.832
396.73
363.61
341.095
324.679
312.205
302.538
295.041
289.4
285.448
283.22
282.894
284.646
289.052
296.935
309.813
329.562
358.729
400.805
461.091
549.064
677.507
840.329
914.391
915.41
859.931
786.944
736.822
706.758
681.735
657.888
635.664
616.208
600.512
588.56
579.787
573.653
569.768
567.91
567.404
567.984
569.638
572.17
575.409
579.21
583.45
588.028
592.863
597.887
603.049
608.308
613.635
619.009
624.415
629.845
635.297
640.77
646.266
651.79
657.347
662.941
668.578
674.264
680.003
685.796
691.641
697.538
703.482
709.468
715.49
721.542
727.617
733.71
739.818
745.928
752.033
758.126
764.199
770.247
776.265
782.249
788.195
794.1
799.959
805.769
811.526
817.225
822.864
828.441
833.951
839.397
844.78
850.093
855.329
860.484
865.555
870.542
875.443
880.26
884.992
889.639
894.202
898.68
903.075
907.388
911.619
915.77
919.842
923.837
927.755
931.598
935.367
939.063
942.69
946.25
949.744
953.178
956.554
959.875
963.144
966.362
969.531
972.655
975.738
978.78
981.786
984.757
987.695
990.601
993.477
996.323
999.138
1001.92
1004.67
1007.39
1010.07
1012.71
1015.3
1017.84
1020.33
1022.74
1025.08
1027.34
1029.51
1031.57
1033.52
1035.34
1037.01
1038.52
1039.85
1040.97
1041.88
1042.57
1043
1043.17
1043.09
1042.69
1041.89
1040.76
1039.28
1037.43
1035.2
1032.56
1029.49
1025.99
1022.04
1017.67
1012.85
1007.65
1002.02
996.127
989.937
983.608
977.553
970.902
11761
3189.14
1137.55
666.951
503.601
428.129
385.442
357.584
337.647
322.49
310.65
301.404
294.243
288.924
285.411
283.769
283.935
286.371
291.694
300.826
315.122
336.212
366.57
410.383
475.899
575.845
721.766
822.191
844.571
818.912
760.501
707.509
672.864
648.596
627.365
607.552
589.563
574.218
562.02
552.85
546.3
541.967
539.721
538.993
539.372
540.904
543.407
546.718
550.693
555.208
560.154
565.44
570.99
576.742
582.646
588.663
594.763
600.926
607.136
613.386
619.671
625.994
632.357
638.762
645.212
651.71
658.263
664.872
671.542
678.28
685.073
691.919
698.812
705.743
712.705
719.686
726.679
733.669
740.632
747.584
754.523
761.441
768.327
775.175
781.978
788.731
795.431
802.072
808.651
815.162
821.599
827.959
834.236
840.427
846.528
852.534
858.439
864.243
869.943
875.537
881.023
886.4
891.67
896.832
901.887
906.836
911.679
916.418
921.052
925.585
930.017
934.352
938.591
942.736
946.789
950.753
954.63
958.423
962.134
965.768
969.328
972.82
976.247
979.614
982.926
986.184
989.393
992.556
995.68
998.767
1001.82
1004.84
1007.84
1010.8
1013.75
1016.66
1019.56
1022.42
1025.26
1028.07
1030.85
1033.59
1036.29
1038.93
1041.52
1044.03
1046.47
1048.82
1051.07
1053.21
1055.23
1057.1
1058.82
1060.36
1061.69
1062.8
1063.68
1064.31
1064.65
1064.71
1064.49
1063.9
1062.91
1061.57
1059.84
1057.72
1055.18
1052.21
1048.77
1044.87
1040.49
1035.68
1030.38
1024.71
1018.56
1012.17
1005.43
998.511
991.883
984.109
11799.2
2523.68
971.747
614.473
483.912
420.639
382.548
356.487
337.373
322.623
310.872
301.616
294.595
289.613
286.738
285.789
286.833
290.592
297.599
308.585
324.479
347.386
380.518
430.206
507.586
621.981
732.642
775.349
770.785
731.266
684.442
647.848
622.32
602.309
584.472
568.103
553.516
541.242
531.563
524.385
519.427
516.533
515.401
515.413
516.655
518.974
522.219
526.251
530.947
536.197
541.903
547.98
554.354
560.964
567.76
574.703
581.764
588.916
596.142
603.43
610.774
618.176
625.65
633.18
640.767
648.412
656.116
663.873
671.667
679.462
687.307
695.207
703.154
711.139
719.147
727.166
735.188
743.207
751.224
759.218
767.181
775.095
782.947
790.727
798.43
806.051
813.586
821.032
828.382
835.632
842.776
849.807
856.721
863.516
870.188
876.735
883.153
889.441
895.596
901.614
907.495
913.239
918.849
924.325
929.669
934.882
939.965
944.918
949.744
954.444
959.021
963.48
967.823
972.053
976.173
980.186
984.096
987.906
991.621
995.246
998.785
1002.24
1005.63
1008.95
1012.2
1015.4
1018.54
1021.64
1024.69
1027.71
1030.69
1033.64
1036.56
1039.46
1042.33
1045.18
1048.01
1050.81
1053.58
1056.33
1059.04
1061.72
1064.35
1066.93
1069.44
1071.88
1074.22
1076.47
1078.61
1080.63
1082.5
1084.22
1085.77
1087.12
1088.25
1089.15
1089.77
1090.13
1090.17
1089.91
1089.27
1088.28
1086.89
1085.11
1082.92
1080.32
1077.29
1073.79
1069.79
1065.33
1060.35
1054.95
1049.02
1042.77
1035.97
1029.06
1021.69
1014.29
1007.03
998.683
11813.7
2188.38
899.499
593.984
478.144
419.772
384.834
359.917
340.196
324.425
312.142
302.877
296.183
291.933
290.082
289.934
292.391
297.8
306.597
319.441
337.629
364.042
404.103
466.278
556.859
662.232
711.876
718.04
697.519
661.382
627.751
601.859
582.031
565.379
550.422
536.865
524.935
514.971
507.163
501.471
497.739
495.92
495.506
496.321
498.33
501.394
505.386
510.186
515.689
521.797
528.42
535.474
542.881
550.577
558.509
566.636
574.945
583.387
591.934
600.571
609.282
618.041
626.785
635.577
644.444
653.391
662.413
671.511
680.682
689.932
699.225
708.546
717.887
727.234
736.561
745.854
755.106
764.311
773.463
782.546
791.543
800.448
809.253
817.951
826.535
835
843.343
851.562
859.652
867.606
875.417
883.08
890.59
897.944
905.14
912.176
919.049
925.756
932.296
938.666
944.866
950.899
956.768
962.474
968.021
973.409
978.638
983.711
988.629
993.396
998.016
1002.49
1006.83
1011.03
1015.11
1019.05
1022.88
1026.58
1030.18
1033.67
1037.06
1040.36
1043.57
1046.71
1049.77
1052.77
1055.71
1058.59
1061.43
1064.22
1066.98
1069.7
1072.39
1075.05
1077.68
1080.29
1082.86
1085.41
1087.94
1090.43
1092.88
1095.3
1097.68
1099.98
1102.22
1104.36
1106.41
1108.35
1110.15
1111.81
1113.31
1114.63
1115.76
1116.68
1117.38
1117.83
1117.98
1117.84
1117.34
1116.45
1115.18
1113.56
1111.51
1109.02
1106.09
1102.71
1098.89
1094.61
1089.77
1084.49
1078.67
1072.48
1065.74
1058.77
1051.16
1043.58
1035.33
1027.48
1019.18
1010.76
11817.2
2056.04
871.564
588.177
479.278
426.24
391.14
363.742
342.425
326.387
314.512
305.853
299.865
296.757
295.767
296.897
301.082
308.343
319.078
334.283
356.37
389.854
440.833
512.903
599.448
652.831
668.108
660.28
636.367
609.07
585.293
566.05
550.09
536.121
523.525
512.211
502.346
494.162
487.804
483.288
480.629
479.646
479.981
481.636
484.489
488.423
493.328
499.104
505.654
512.897
520.775
529.17
537.992
547.17
556.636
566.316
576.084
585.976
596.017
606.203
616.523
626.972
637.571
648.281
659.086
669.965
680.904
691.899
702.934
713.976
724.988
735.94
746.801
757.553
768.201
778.742
789.178
799.508
809.727
819.832
829.812
839.66
849.364
858.916
868.307
877.534
886.595
895.489
904.213
912.759
921.12
929.29
937.266
945.044
952.626
960.009
967.192
974.169
980.941
987.508
993.873
1000.04
1006.01
1011.79
1017.38
1022.78
1028
1033.03
1037.88
1042.55
1047.05
1051.38
1055.54
1059.55
1063.41
1067.12
1070.69
1074.12
1077.42
1080.6
1083.67
1086.63
1089.5
1092.28
1094.97
1097.59
1100.15
1102.64
1105.08
1107.47
1109.81
1112.11
1114.37
1116.59
1118.78
1120.94
1123.06
1125.14
1127.19
1129.2
1131.17
1133.09
1134.96
1136.79
1138.53
1140.17
1141.69
1143.07
1144.3
1145.35
1146.23
1146.88
1147.31
1147.5
1147.43
1147.07
1146.34
1145.28
1143.81
1141.92
1139.61
1136.94
1133.81
1130.2
1126.11
1121.55
1116.43
1110.76
1104.56
1097.97
1090.86
1083.48
1075.52
1067.52
1058.85
1050.69
1041.63
1033.44
1024.12
1015.81
11810.1
2006.23
859.364
589.447
487.502
434.284
396.425
367.656
346.32
330.583
318.998
310.79
306.024
304.103
303.965
307.089
313.272
322.742
336.411
356.466
386.458
430.114
488.459
555.529
604.583
624.284
624.017
610.143
590.561
570.934
553.526
538.499
525.319
513.51
502.868
493.416
485.29
478.659
473.647
470.329
468.782
468.721
470.149
472.963
477.021
482.221
488.474
495.691
503.782
512.629
522.022
531.965
542.432
553.365
564.705
576.401
588.441
600.752
613.286
626.017
638.928
651.991
665.186
678.482
691.865
705.257
718.606
731.856
744.971
757.935
770.714
783.275
795.597
807.67
819.505
831.124
842.552
853.797
864.86
875.757
886.488
897.045
907.412
917.576
927.528
937.265
946.786
956.093
965.182
974.047
982.682
991.081
999.241
1007.16
1014.85
1022.3
1029.52
1036.49
1043.21
1049.71
1055.97
1062
1067.82
1073.41
1078.79
1083.96
1088.91
1093.65
1098.18
1102.51
1106.64
1110.58
1114.33
1117.91
1121.31
1124.55
1127.63
1130.55
1133.33
1135.97
1138.48
1140.88
1143.17
1145.36
1147.48
1149.53
1151.49
1153.39
1155.23
1157
1158.71
1160.37
1161.98
1163.55
1165.06
1166.53
1167.96
1169.34
1170.66
1171.93
1173.15
1174.3
1175.39
1176.4
1177.31
1178.09
1178.7
1179.14
1179.4
1179.44
1179.26
1178.8
1178.05
1177.01
1175.62
1173.85
1171.7
1169.21
1166.24
1162.82
1158.95
1154.53
1149.58
1144.15
1138.28
1131.98
1125.18
1118.05
1110.66
1102.98
1094.8
1086.43
1077.45
1068.61
1058.85
1049.81
1039.37
1030.59
1019.54
1011.29
11795.3
1962.53
855.364
597.346
497.194
443.208
404.151
375.1
353.515
337.583
326.214
318.99
315.596
314.65
316.575
322.232
331.413
345.084
365.028
393.445
431.78
479.282
530.613
571.215
589.826
591.62
585.291
572.533
557.854
543.461
530.204
518.221
507.414
497.703
489.126
481.866
475.866
471.229
468.065
466.509
466.474
467.929
470.715
474.763
480.129
486.772
494.629
503.637
513.749
524.923
537.085
550.063
563.728
577.988
592.775
608.026
623.672
639.624
655.809
672.187
688.755
705.395
722.028
738.579
754.954
771.13
787.055
802.666
817.907
832.724
847.067
860.897
874.22
887.056
899.448
911.476
923.258
934.79
946.059
957.147
968.057
978.768
989.255
999.496
1009.48
1019.2
1028.66
1037.85
1046.79
1055.46
1063.86
1071.98
1079.83
1087.4
1094.71
1101.76
1108.55
1115.09
1121.38
1127.42
1133.22
1138.76
1144.05
1149.11
1153.93
1158.52
1162.87
1166.98
1170.87
1174.53
1177.97
1181.2
1184.23
1187.07
1189.72
1192.18
1194.47
1196.59
1198.56
1200.37
1202.04
1203.57
1204.99
1206.31
1207.55
1208.71
1209.77
1210.75
1211.65
1212.48
1213.23
1213.91
1214.52
1215.07
1215.56
1215.98
1216.34
1216.63
1216.85
1216.99
1217.04
1216.99
1216.84
1216.54
1216.09
1215.46
1214.62
1213.56
1212.28
1210.73
1208.88
1206.7
1204.24
1201.44
1198.21
1194.59
1190.5
1185.9
1180.79
1175.28
1169.36
1162.97
1156.26
1149.37
1142.12
1134.48
1126.42
1117.99
1109.03
1099.79
1090
1080.12
1069.55
1059.33
1047.93
1037.71
1025.56
1015.96
1002.86
994.41
11778.4
1931.75
857.688
605.976
508.7
455.783
416.371
387.13
365.535
350.056
339.809
334.75
332.988
333.861
339.604
349.095
363.224
382.912
408.952
441.281
478.18
515.256
544.875
558.928
562.122
561.346
555.266
546.662
537.343
527.873
518.727
510.146
502.285
495.241
489.047
483.559
479.272
476.417
475.135
475.518
477.556
481.292
486.7
493.746
502.35
512.459
524.022
537.013
551.477
567.622
584.987
603.284
622.298
641.897
662.048
682.659
703.54
724.548
745.564
766.468
787.126
807.506
827.544
847.169
866.31
884.91
902.907
920.232
936.808
952.547
967.369
981.222
994.238
1006.46
1017.96
1028.93
1039.81
1050.52
1061.09
1071.6
1081.97
1092.14
1102.05
1111.67
1120.97
1129.97
1138.66
1147.05
1155.15
1162.94
1170.43
1177.62
1184.49
1191.06
1197.35
1203.36
1209.1
1214.6
1219.85
1224.84
1229.56
1234.01
1238.19
1242.13
1245.82
1249.26
1252.45
1255.39
1258.09
1260.55
1262.78
1264.8
1266.6
1268.2
1269.61
1270.82
1271.85
1272.7
1273.39
1273.91
1274.28
1274.5
1274.59
1274.56
1274.44
1274.19
1273.84
1273.39
1272.84
1272.19
1271.46
1270.63
1269.73
1268.74
1267.67
1266.51
1265.26
1263.92
1262.49
1260.94
1259.26
1257.44
1255.47
1253.33
1251
1248.47
1245.69
1242.63
1239.36
1235.81
1231.89
1227.63
1222.91
1217.78
1212.22
1206.31
1200.02
1193.31
1186.5
1179.42
1171.99
1164.17
1155.95
1147.3
1138.24
1128.81
1118.97
1108.8
1098.11
1087.21
1075.7
1064.19
1051.88
1040.13
1026.89
1015.23
1001.16
990.406
975.002
965.881
11757.8
1910.23
864.757
620.979
525.81
472.346
432.685
403.785
383.075
369.033
361.595
358.594
358.268
363.285
372.365
385.661
403.515
425.992
452.266
480.642
508.252
531.818
547.647
554.367
556.319
556.043
552.526
546.997
540.018
532.921
526.15
520.019
514.735
510.469
507.396
505.808
505.745
507.336
510.768
516.093
523.334
532.514
543.614
556.578
571.31
587.726
605.75
625.346
646.645
669.64
693.671
718.523
743.864
769.457
795.057
820.51
845.74
870.625
895.045
918.886
942.047
964.456
986.053
1006.8
1026.66
1045.62
1063.66
1080.74
1096.82
1111.77
1125.63
1138.6
1150.72
1161.94
1172.32
1181.98
1191.09
1199.76
1208.39
1217.28
1226.08
1234.63
1242.87
1250.76
1258.3
1265.5
1272.38
1278.95
1285.21
1291.16
1296.79
1302.11
1307.11
1311.82
1316.24
1320.4
1324.29
1327.92
1331.29
1334.39
1337.22
1339.79
1342.11
1344.19
1346.04
1347.64
1349.01
1350.14
1351.03
1351.7
1352.15
1352.39
1352.42
1352.29
1351.96
1351.43
1350.72
1349.84
1348.8
1347.59
1346.23
1344.72
1343.07
1341.29
1339.39
1337.37
1335.24
1332.99
1330.63
1328.16
1325.59
1322.91
1320.14
1317.26
1314.28
1311.2
1308.01
1304.71
1301.3
1297.75
1294.05
1290.19
1286.16
1281.93
1277.53
1272.93
1268.04
1262.88
1257.34
1251.47
1245.24
1238.7
1231.81
1224.59
1217.3
1209.79
1201.96
1193.8
1185.26
1176.36
1167.11
1157.5
1147.5
1137.13
1126.36
1115.22
1103.66
1091.79
1079.37
1066.79
1053.54
1040.31
1026.18
1012.75
997.526
984.171
968.004
955.731
937.842
927.465
11735.1
1901.97
871.192
637.456
545.974
491.444
451.007
422.099
402.015
389.956
384.371
382.745
385.257
393.364
405.585
421.686
442.045
465.629
490.69
515.244
536.897
553.568
563.607
569.686
573.288
574.779
574.585
573.058
571.2
569.497
568.348
568.054
568.878
571.054
574.816
580.41
587.9
597.399
608.998
622.727
638.578
656.498
676.384
698.104
721.522
746.542
772.989
800.666
829.474
858.495
887.715
916.957
946.1
974.921
1003.18
1030.68
1057.26
1082.81
1107.24
1130.45
1152.41
1173.11
1192.56
1210.78
1227.81
1243.69
1258.46
1272.17
1284.89
1296.73
1307.89
1318.51
1328.44
1337.47
1345.68
1353.22
1359.87
1366.01
1372.19
1378.28
1383.99
1389.33
1394.32
1398.98
1403.32
1407.38
1411.16
1414.68
1417.93