/*--------------------------------*- C++ -*----------------------------------*\
| =========                 |                                                 |
| \\      /  F ield         | OpenFOAM: The Open Source CFD Toolbox           |
|  \\    /   O peration     | Version:  2112                                  |
|   \\  /    A nd           | Website:  www.openfoam.com                      |
|    \\/     M anipulation  |                                                 |
\*---------------------------------------------------------------------------*/
FoamFile
{
    version     2.0;
    format      ascii;
    arch        "LSB;label=32;scalar=64";
    class       surfaceScalarField;
    location    "0.15";
    object      phi_0;
}
// * * * * * * * * * * * * * * * * * * * * * * * * * * * * * * * * * * * * * //

dimensions      [0 3 -1 0 0 0 0];

oriented        oriented;

internalField   nonuniform List<scalar> 
25468
(
2.87862e-06
4.51356e-08
2.81536e-06
6.32639e-08
2.75595e-06
5.94129e-08
2.69885e-06
5.70949e-08
2.64317e-06
5.56827e-08
2.59222e-06
5.0946e-08
2.5448e-06
4.7426e-08
2.49232e-06
5.24756e-08
2.43207e-06
6.02462e-08
2.37192e-06
6.01525e-08
2.31925e-06
5.26682e-08
2.27642e-06
4.28304e-08
2.24278e-06
3.36405e-08
2.21422e-06
2.8565e-08
2.18428e-06
2.9943e-08
2.15058e-06
3.36936e-08
2.11763e-06
3.29523e-08
2.08972e-06
2.79057e-08
2.06727e-06
2.24552e-08
2.04952e-06
1.77501e-08
2.036e-06
1.35157e-08
2.02589e-06
1.01117e-08
2.01703e-06
8.86041e-09
2.00732e-06
9.71416e-09
1.9967e-06
1.0617e-08
1.98635e-06
1.03448e-08
1.97713e-06
9.22781e-09
1.96921e-06
7.91919e-09
1.96235e-06
6.85469e-09
1.95624e-06
6.11734e-09
1.95055e-06
5.68353e-09
1.945e-06
5.55584e-09
1.93923e-06
5.76683e-09
1.93279e-06
6.44174e-09
1.92518e-06
7.60896e-09
1.91544e-06
9.73671e-09
1.90181e-06
1.36318e-08
1.88063e-06
2.11803e-08
1.83601e-06
4.46214e-08
6.85479e-08
1.76746e-06
3.12609e-06
3.29683e-08
3.13485e-06
5.4507e-08
3.13775e-06
5.65066e-08
3.1388e-06
5.60484e-08
3.13715e-06
5.73305e-08
3.13104e-06
5.70545e-08
3.1216e-06
5.68708e-08
3.11194e-06
6.21313e-08
3.10164e-06
7.05449e-08
3.08744e-06
7.4354e-08
3.0691e-06
7.1008e-08
3.04824e-06
6.36911e-08
3.02524e-06
5.66445e-08
3.0002e-06
5.36017e-08
2.97436e-06
5.5785e-08
2.94748e-06
6.05699e-08
2.91695e-06
6.34815e-08
2.8822e-06
6.2665e-08
2.8455e-06
5.91487e-08
2.80928e-06
5.39699e-08
2.77477e-06
4.80297e-08
2.74217e-06
4.27082e-08
2.71173e-06
3.93041e-08
2.68376e-06
3.76855e-08
2.65764e-06
3.67326e-08
2.63246e-06
3.55301e-08
2.60777e-06
3.39102e-08
2.58364e-06
3.20505e-08
2.56033e-06
3.01673e-08
2.53818e-06
2.82634e-08
2.51741e-06
2.64578e-08
2.49804e-06
2.49206e-08
2.4799e-06
2.39136e-08
2.4627e-06
2.36397e-08
2.44612e-06
2.41919e-08
2.42995e-06
2.5899e-08
2.41462e-06
2.89678e-08
2.40226e-06
3.35395e-08
2.40924e-06
3.76354e-08
4.42442e-08
2.43355e-06
3.32311e-06
2.63127e-08
3.33061e-06
4.70047e-08
3.33529e-06
5.18282e-08
3.33836e-06
5.29845e-08
3.34074e-06
5.49508e-08
3.3414e-06
5.63939e-08
3.34089e-06
5.73783e-08
3.34187e-06
6.11549e-08
3.34514e-06
6.72742e-08
3.34886e-06
7.06339e-08
3.35084e-06
6.90203e-08
3.34983e-06
6.4709e-08
3.34593e-06
6.05403e-08
3.34127e-06
5.82668e-08
3.33805e-06
5.90034e-08
3.33615e-06
6.24655e-08
3.3337e-06
6.59356e-08
3.3292e-06
6.71588e-08
3.32245e-06
6.59036e-08
3.31368e-06
6.27423e-08
3.30318e-06
5.85285e-08
3.29168e-06
5.42001e-08
3.28016e-06
5.083e-08
3.26888e-06
4.89609e-08
3.25724e-06
4.83785e-08
3.24435e-06
4.84183e-08
3.22959e-06
4.86697e-08
3.21279e-06
4.88474e-08
3.19406e-06
4.89037e-08
3.17362e-06
4.86956e-08
3.15189e-06
4.81964e-08
3.12944e-06
4.73629e-08
3.10682e-06
4.65378e-08
3.0845e-06
4.59623e-08
3.06282e-06
4.58703e-08
3.04234e-06
4.63819e-08
3.0239e-06
4.74004e-08
3.00884e-06
4.86031e-08
2.99633e-06
5.01484e-08
5.49494e-08
2.98562e-06
3.53708e-06
2.13962e-08
3.54301e-06
4.10722e-08
3.54734e-06
4.74959e-08
3.55022e-06
5.01045e-08
3.55262e-06
5.25502e-08
3.55438e-06
5.4636e-08
3.55532e-06
5.64394e-08
3.55676e-06
5.97105e-08
3.55998e-06
6.406e-08
3.5642e-06
6.64135e-08
3.56774e-06
6.5477e-08
3.56972e-06
6.27308e-08
3.57019e-06
6.00687e-08
3.56963e-06
5.88314e-08
3.56891e-06
5.97253e-08
3.56935e-06
6.20233e-08
3.57143e-06
6.38529e-08
3.57449e-06
6.40956e-08
3.57762e-06
6.27802e-08
3.58e-06
6.03593e-08
3.58118e-06
5.73533e-08
3.58094e-06
5.4432e-08
3.57944e-06
5.23359e-08
3.5771e-06
5.12997e-08
3.57453e-06
5.095e-08
3.57208e-06
5.08666e-08
3.56986e-06
5.0886e-08
3.56777e-06
5.09424e-08
3.56566e-06
5.10145e-08
3.56331e-06
5.10379e-08
3.56054e-06
5.09758e-08
3.55709e-06
5.08124e-08
3.55295e-06
5.06749e-08
3.54826e-06
5.06533e-08
3.54331e-06
5.08224e-08
3.53853e-06
5.11545e-08
3.5343e-06
5.16367e-08
3.53061e-06
5.22905e-08
3.52761e-06
5.31426e-08
5.36406e-08
3.52892e-06
3.7659e-06
1.73908e-08
3.77089e-06
3.60899e-08
3.77487e-06
4.3513e-08
3.77782e-06
4.71573e-08
3.78029e-06
5.00784e-08
3.78235e-06
5.25764e-08
3.78393e-06
5.48609e-08
3.78584e-06
5.77948e-08
3.78894e-06
6.09615e-08
3.79272e-06
6.2633e-08
3.79603e-06
6.21668e-08
3.79824e-06
6.05189e-08
3.79933e-06
5.89849e-08
3.79974e-06
5.84173e-08
3.80047e-06
5.89922e-08
3.80236e-06
6.01389e-08
3.80531e-06
6.08963e-08
3.80873e-06
6.06823e-08
3.812e-06
5.9508e-08
3.81469e-06
5.76706e-08
3.81649e-06
5.55556e-08
3.81733e-06
5.3591e-08
3.81755e-06
5.21123e-08
3.81767e-06
5.11843e-08
3.81798e-06
5.06401e-08
3.81851e-06
5.03296e-08
3.81924e-06
5.01559e-08
3.82013e-06
5.00585e-08
3.82116e-06
4.99844e-08
3.82231e-06
4.98876e-08
3.82354e-06
4.97467e-08
3.82477e-06
4.95759e-08
3.82604e-06
4.9412e-08
3.8274e-06
4.9286e-08
3.82902e-06
4.92017e-08
3.83103e-06
4.91494e-08
3.83358e-06
4.90846e-08
3.83694e-06
4.89337e-08
3.84162e-06
4.84588e-08
4.7472e-08
3.84779e-06
4.00987e-06
1.40967e-08
4.01437e-06
3.15928e-08
4.0181e-06
3.97799e-08
4.02107e-06
4.41883e-08
4.02363e-06
4.7514e-08
4.02591e-06
5.02985e-08
4.02796e-06
5.28069e-08
4.03029e-06
5.5473e-08
4.0333e-06
5.79494e-08
4.03666e-06
5.92675e-08
4.03968e-06
5.91496e-08
4.04196e-06
5.82423e-08
4.04356e-06
5.73805e-08
4.04492e-06
5.70629e-08
4.04658e-06
5.73291e-08
4.04889e-06
5.7834e-08
4.05172e-06
5.80618e-08
4.05473e-06
5.76727e-08
4.05758e-06
5.66615e-08
4.06002e-06
5.52296e-08
4.06193e-06
5.36453e-08
4.06336e-06
5.2163e-08
4.0645e-06
5.09627e-08
4.06559e-06
5.00971e-08
4.06673e-06
4.95036e-08
4.06797e-06
4.90892e-08
4.06935e-06
4.87762e-08
4.0709e-06
4.85102e-08
4.07262e-06
4.82567e-08
4.07452e-06
4.79887e-08
4.07658e-06
4.76923e-08
4.07879e-06
4.73669e-08
4.08118e-06
4.70217e-08
4.0838e-06
4.66621e-08
4.08672e-06
4.62805e-08
4.09002e-06
4.58519e-08
4.09378e-06
4.53277e-08
4.09806e-06
4.46484e-08
4.10278e-06
4.37453e-08
4.26183e-08
4.10763e-06
4.26983e-06
1.14348e-08
4.27401e-06
2.74135e-08
4.27758e-06
3.62134e-08
4.28057e-06
4.11972e-08
4.28324e-06
4.48387e-08
4.28572e-06
4.78152e-08
4.28811e-06
5.04174e-08
4.2907e-06
5.28899e-08
4.29367e-06
5.49727e-08
4.29682e-06
5.61197e-08
4.29973e-06
5.62447e-08
4.30217e-06
5.58002e-08
4.30423e-06
5.53217e-08
4.30617e-06
5.51174e-08
4.3083e-06
5.52036e-08
4.31077e-06
5.53665e-08
4.31352e-06
5.5309e-08
4.31635e-06
5.48388e-08
4.31906e-06
5.39583e-08
4.32148e-06
5.28009e-08
4.32359e-06
5.15447e-08
4.3254e-06
5.03516e-08
4.32703e-06
4.93325e-08
4.3286e-06
4.85216e-08
4.33022e-06
4.78862e-08
4.33194e-06
4.73685e-08
4.3338e-06
4.69198e-08
4.3358e-06
4.65035e-08
4.33796e-06
4.60958e-08
4.34028e-06
4.56757e-08
4.34274e-06
4.52286e-08
4.34536e-06
4.47456e-08
4.34816e-06
4.4224e-08
4.35116e-06
4.36602e-08
4.3544e-06
4.30423e-08
4.35791e-06
4.23467e-08
4.36169e-06
4.15445e-08
4.36573e-06
4.06035e-08
4.36998e-06
3.95005e-08
3.82233e-08
4.37437e-06
4.54682e-06
9.31871e-09
4.55061e-06
2.36252e-08
4.55414e-06
3.26829e-08
4.55718e-06
3.81621e-08
4.55996e-06
4.2057e-08
4.56263e-06
4.51496e-08
4.56526e-06
4.77797e-08
4.56804e-06
5.01145e-08
4.57104e-06
5.19691e-08
4.57413e-06
5.30354e-08
4.57705e-06
5.33241e-08
4.57968e-06
5.31678e-08
4.58208e-06
5.29202e-08
4.58442e-06
5.27834e-08
4.58685e-06
5.27689e-08
4.58947e-06
5.27444e-08
4.59224e-06
5.25375e-08
4.59504e-06
5.20426e-08
4.59773e-06
5.12668e-08
4.60023e-06
5.02981e-08
4.60252e-06
4.92542e-08
4.60463e-06
4.82416e-08
4.60664e-06
4.73307e-08
4.60861e-06
4.65438e-08
4.61064e-06
4.58651e-08
4.61274e-06
4.52619e-08
4.61496e-06
4.47044e-08
4.61729e-06
4.41689e-08
4.61975e-06
4.36371e-08
4.62234e-06
4.30902e-08
4.62505e-06
4.25118e-08
4.62791e-06
4.18894e-08
4.63092e-06
4.12161e-08
4.63408e-06
4.04942e-08
4.63741e-06
3.97133e-08
4.6409e-06
3.88562e-08
4.64454e-06
3.79053e-08
4.6483e-06
3.68474e-08
4.65212e-06
3.56822e-08
3.44102e-08
4.65593e-06
4.84198e-06
7.63814e-09
4.8453e-06
2.03058e-08
4.84878e-06
2.92007e-08
4.85188e-06
3.50677e-08
4.85478e-06
3.91592e-08
4.85761e-06
4.23153e-08
4.86045e-06
4.49368e-08
4.8634e-06
4.7169e-08
4.86648e-06
4.8888e-08
4.8696e-06
4.99187e-08
4.8726e-06
5.03171e-08
4.87543e-06
5.03447e-08
4.8781e-06
5.02422e-08
4.88074e-06
5.01507e-08
4.88342e-06
5.00844e-08
4.8862e-06
4.99649e-08
4.88905e-06
4.96909e-08
4.89189e-06
4.92025e-08
4.89465e-06
4.85078e-08
4.89728e-06
4.76661e-08
4.89978e-06
4.67579e-08
4.90216e-06
4.58558e-08
4.90448e-06
4.50077e-08
4.9068e-06
4.42311e-08
4.90914e-06
4.35191e-08
4.91155e-06
4.28523e-08
4.91405e-06
4.22107e-08
4.91663e-06
4.15823e-08
4.91931e-06
4.09553e-08
4.92209e-06
4.03105e-08
4.92497e-06
3.96309e-08
4.92796e-06
3.89029e-08
4.93105e-06
3.81226e-08
4.93425e-06
3.72978e-08
4.93754e-06
3.64211e-08
4.94092e-06
3.54816e-08
4.94435e-06
3.44722e-08
4.94781e-06
3.33889e-08
4.95126e-06
3.22285e-08
3.09941e-08
4.95468e-06
5.15646e-06
6.29471e-09
5.1593e-06
1.74693e-08
5.16261e-06
2.58942e-08
5.16577e-06
3.19001e-08
5.1688e-06
3.61364e-08
5.17178e-06
3.93285e-08
5.17481e-06
4.19142e-08
5.17792e-06
4.4053e-08
5.18113e-06
4.56796e-08
5.18435e-06
4.67006e-08
5.18748e-06
4.71843e-08
5.19049e-06
4.73337e-08
5.19341e-06
4.73256e-08
5.19629e-06
4.72682e-08
5.19919e-06
4.71817e-08
5.20214e-06
4.7021e-08
5.2051e-06
4.67244e-08
5.20805e-06
4.62556e-08
5.21094e-06
4.56223e-08
5.21374e-06
4.48672e-08
5.21645e-06
4.4048e-08
5.21908e-06
4.32176e-08
5.22168e-06
4.24115e-08
5.22427e-06
4.16448e-08
5.22687e-06
4.09147e-08
5.22951e-06
4.02084e-08
5.23221e-06
3.95124e-08
5.23497e-06
3.8821e-08
5.2378e-06
3.81265e-08
5.2407e-06
3.74127e-08
5.24366e-06
3.66681e-08
5.24668e-06
3.58864e-08
5.24974e-06
3.50604e-08
5.25286e-06
3.41779e-08
5.25605e-06
3.32377e-08
5.25928e-06
3.22436e-08
5.26256e-06
3.11986e-08
5.26584e-06
3.01056e-08
5.2691e-06
2.89655e-08
2.77843e-08
5.27231e-06
5.49146e-06
5.24429e-09
5.49387e-06
1.50605e-08
5.49691e-06
2.28593e-08
5.50008e-06
2.87274e-08
5.50321e-06
3.30044e-08
5.50633e-06
3.62067e-08
5.50952e-06
3.87338e-08
5.51281e-06
4.0756e-08
5.5162e-06
4.22887e-08
5.51959e-06
4.33181e-08
5.52287e-06
4.38959e-08
5.52607e-06
4.41409e-08
5.52919e-06
4.42013e-08
5.53229e-06
4.41722e-08
5.53539e-06
4.40782e-08
5.53851e-06
4.3897e-08
5.54165e-06
4.3593e-08
5.54476e-06
4.31458e-08
5.54781e-06
4.25633e-08
5.5508e-06
4.18771e-08
5.55372e-06
4.11295e-08
5.55658e-06
4.03593e-08
5.5594e-06
3.95934e-08
5.5622e-06
3.88451e-08
5.565e-06
3.81161e-08
5.56781e-06
3.74014e-08
5.57063e-06
3.66908e-08
5.57348e-06
3.59681e-08
5.57639e-06
3.522e-08
5.57935e-06
3.44443e-08
5.58238e-06
3.36404e-08
5.58546e-06
3.28064e-08
5.58858e-06
3.19386e-08
5.59174e-06
3.10266e-08
5.5949e-06
3.00693e-08
5.59808e-06
2.907e-08
5.60124e-06
2.80336e-08
5.60438e-06
2.69657e-08
5.60748e-06
2.58721e-08
2.47609e-08
5.6105e-06
5.84832e-06
4.44261e-09
5.85037e-06
1.30071e-08
5.85312e-06
2.01151e-08
5.85618e-06
2.56611e-08
5.85935e-06
2.98367e-08
5.86258e-06
3.29756e-08
5.86591e-06
3.54011e-08
5.86938e-06
3.72923e-08
5.87294e-06
3.8729e-08
5.8765e-06
3.97522e-08
5.87999e-06
4.04052e-08
5.88338e-06
4.07509e-08
5.8867e-06
4.08905e-08
5.88997e-06
4.08933e-08
5.89326e-06
4.07884e-08
5.89658e-06
4.05784e-08
5.89992e-06
4.02572e-08
5.90324e-06
3.98243e-08
5.90651e-06
3.92908e-08
5.90971e-06
3.86782e-08
5.91283e-06
3.80117e-08
5.91587e-06
3.73139e-08
5.91887e-06
3.6601e-08
5.92183e-06
3.58822e-08
5.92478e-06
3.51613e-08
5.92775e-06
3.44379e-08
5.93073e-06
3.37068e-08
5.93374e-06
3.29556e-08
5.93679e-06
3.21749e-08
5.93987e-06
3.13651e-08
5.94298e-06
3.0528e-08
5.94612e-06
2.96644e-08
5.94929e-06
2.8774e-08
5.95246e-06
2.78553e-08
5.95562e-06
2.69092e-08
5.95875e-06
2.59379e-08
5.96184e-06
2.49452e-08
5.96487e-06
2.39361e-08
5.96783e-06
2.2916e-08
2.18923e-08
5.97069e-06
7.5888e-06
3.7137e-09
7.59089e-06
1.09134e-08
7.59389e-06
1.71143e-08
7.59741e-06
2.21406e-08
7.60119e-06
2.60593e-08
7.60516e-06
2.90103e-08
7.60932e-06
3.12373e-08
7.61366e-06
3.29478e-08
7.61813e-06
3.42627e-08
7.62264e-06
3.52473e-08
7.6271e-06
3.59407e-08
7.63147e-06
3.63769e-08
7.63577e-06
3.65983e-08
7.64002e-06
3.66406e-08
7.64428e-06
3.65325e-08
7.64855e-06
3.6299e-08
7.65285e-06
3.59632e-08
7.65713e-06
3.55456e-08
7.66135e-06
3.50635e-08
7.6655e-06
3.45302e-08
7.66956e-06
3.3955e-08
7.67353e-06
3.33439e-08
7.67743e-06
3.27009e-08
7.68128e-06
3.2029e-08
7.68511e-06
3.13308e-08
7.68894e-06
3.06084e-08
7.69279e-06
2.98625e-08
7.69665e-06
2.90927e-08
7.70053e-06
2.8299e-08
7.70441e-06
2.7483e-08
7.70829e-06
2.66467e-08
7.71216e-06
2.57918e-08
7.71602e-06
2.49198e-08
7.71984e-06
2.40327e-08
7.72361e-06
2.31328e-08
7.72733e-06
2.2223e-08
7.73097e-06
2.13068e-08
7.73452e-06
2.03882e-08
7.73796e-06
1.94713e-08
1.85614e-08
7.74129e-06
1.00132e-05
2.99678e-09
1.00154e-05
8.76745e-09
1.00186e-05
1.38548e-08
1.00227e-05
1.81233e-08
1.00271e-05
2.15715e-08
1.00319e-05
2.422e-08
1.0037e-05
2.61669e-08
1.00423e-05
2.76146e-08
1.00479e-05
2.87369e-08
1.00535e-05
2.96129e-08
1.00592e-05
3.02686e-08
1.00648e-05
3.07165e-08
1.00705e-05
3.09669e-08
1.00761e-05
3.10352e-08
1.00817e-05
3.09449e-08
1.00872e-05
3.07269e-08
1.00928e-05
3.04136e-08
1.00983e-05
3.00326e-08
1.01038e-05
2.96032e-08
1.01091e-05
2.91356e-08
1.01145e-05
2.8633e-08
1.01197e-05
2.80948e-08
1.01249e-05
2.75198e-08
1.013e-05
2.69073e-08
1.01351e-05
2.62586e-08
1.01401e-05
2.55763e-08
1.01451e-05
2.48644e-08
1.01501e-05
2.41274e-08
1.0155e-05
2.33701e-08
1.01599e-05
2.25965e-08
1.01647e-05
2.18102e-08
1.01695e-05
2.10141e-08
1.01742e-05
2.02112e-08
1.01789e-05
1.94041e-08
1.01834e-05
1.85956e-08
1.01878e-05
1.77888e-08
1.01921e-05
1.69867e-08
1.01963e-05
1.61926e-08
1.02004e-05
1.54093e-08
1.46402e-08
1.02043e-05
1.32124e-05
2.24155e-09
1.32146e-05
6.51847e-09
1.32181e-05
1.03285e-08
1.32227e-05
1.36005e-08
1.32279e-05
1.63181e-08
1.32336e-05
1.8486e-08
1.32397e-05
2.01055e-08
1.32461e-05
2.12542e-08
1.32527e-05
2.20918e-08
1.32596e-05
2.27435e-08
1.32666e-05
2.32409e-08
1.32737e-05
2.35843e-08
1.32809e-05
2.3777e-08
1.32881e-05
2.38288e-08
1.32953e-05
2.3756e-08
1.33025e-05
2.35795e-08
1.33096e-05
2.33216e-08
1.33166e-05
2.30014e-08
1.33236e-05
2.26333e-08
1.33305e-05
2.2226e-08
1.33373e-05
2.17837e-08
1.33441e-05
2.13083e-08
1.33508e-05
2.08004e-08
1.33575e-05
2.0261e-08
1.3364e-05
1.96918e-08
1.33705e-05
1.90957e-08
1.33769e-05
1.84763e-08
1.33832e-05
1.78379e-08
1.33894e-05
1.7185e-08
1.33955e-05
1.65219e-08
1.34014e-05
1.58523e-08
1.34072e-05
1.51798e-08
1.3413e-05
1.45076e-08
1.34185e-05
1.38386e-08
1.34239e-05
1.31756e-08
1.34292e-05
1.25211e-08
1.34343e-05
1.18776e-08
1.34393e-05
1.12475e-08
1.3444e-05
1.06323e-08
1.00342e-08
1.34486e-05
1.74336e-05
1.40007e-09
1.74361e-05
4.05512e-09
1.744e-05
6.42865e-09
1.74451e-05
8.49169e-09
1.74512e-05
1.0236e-08
1.7458e-05
1.16625e-08
1.74654e-05
1.27724e-08
1.74731e-05
1.35598e-08
1.74811e-05
1.40729e-08
1.74894e-05
1.44218e-08
1.7498e-05
1.46707e-08
1.75067e-05
1.48271e-08
1.75156e-05
1.48929e-08
1.75246e-05
1.48749e-08
1.75335e-05
1.47825e-08
1.75425e-05
1.46251e-08
1.75514e-05
1.44121e-08
1.75602e-05
1.41519e-08
1.7569e-05
1.38517e-08
1.75777e-05
1.35175e-08
1.75864e-05
1.31539e-08
1.75949e-05
1.27649e-08
1.76034e-05
1.23537e-08
1.76117e-05
1.19234e-08
1.76199e-05
1.14767e-08
1.7628e-05
1.10166e-08
1.76359e-05
1.05459e-08
1.76437e-05
1.00673e-08
1.76513e-05
9.58385e-09
1.76587e-05
9.09813e-09
1.7666e-05
8.6128e-09
1.7673e-05
8.13031e-09
1.76799e-05
7.65298e-09
1.76865e-05
7.18295e-09
1.7693e-05
6.72217e-09
1.76992e-05
6.2724e-09
1.77053e-05
5.83526e-09
1.77111e-05
5.41216e-09
1.77167e-05
5.00399e-09
4.61171e-09
1.77221e-05
2.30037e-05
4.09474e-10
2.30066e-05
1.19793e-09
2.30111e-05
1.90741e-09
2.30171e-05
2.52664e-09
2.30242e-05
3.05226e-09
2.30324e-05
3.48141e-09
2.30414e-05
3.81035e-09
2.30509e-05
4.03279e-09
2.30608e-05
4.13771e-09
2.30711e-05
4.15225e-09
2.30817e-05
4.12413e-09
2.30924e-05
4.06516e-09
2.31033e-05
3.97593e-09
2.31144e-05
3.85862e-09
2.31254e-05
3.71643e-09
2.31365e-05
3.55205e-09
2.31475e-05
3.36774e-09
2.31585e-05
3.16571e-09
2.31694e-05
2.94834e-09
2.31802e-05
2.71811e-09
2.31909e-05
2.47752e-09
2.32014e-05
2.22901e-09
2.32118e-05
1.97481e-09
2.3222e-05
1.71698e-09
2.32321e-05
1.45733e-09
2.32419e-05
1.19751e-09
2.32515e-05
9.38997e-10
2.32609e-05
6.83149e-10
2.327e-05
4.31237e-10
2.32789e-05
1.84472e-10
2.32876e-05
-5.59939e-11
2.3296e-05
-2.89409e-10
2.33042e-05
-5.14414e-10
2.33121e-05
-7.30251e-10
2.33198e-05
-9.36145e-10
2.33272e-05
-1.13143e-09
2.33343e-05
-1.31552e-09
2.33412e-05
-1.48798e-09
2.33479e-05
-1.64862e-09
-1.79724e-09
2.33543e-05
3.03535e-05
-8.03687e-10
3.0357e-05
-2.34687e-09
3.03627e-05
-3.72611e-09
3.03701e-05
-4.9218e-09
3.03791e-05
-5.93711e-09
3.03894e-05
-6.78558e-09
3.04007e-05
-7.48639e-09
3.04128e-05
-8.06074e-09
3.04254e-05
-8.52713e-09
3.04385e-05
-8.90603e-09
3.04518e-05
-9.23234e-09
3.04654e-05
-9.51997e-09
3.04792e-05
-9.77129e-09
3.0493e-05
-9.98884e-09
3.05069e-05
-1.01755e-08
3.05208e-05
-1.03336e-08
3.05346e-05
-1.04651e-08
3.05484e-05
-1.05722e-08
3.0562e-05
-1.06571e-08
3.05754e-05
-1.07222e-08
3.05887e-05
-1.07696e-08
3.06017e-05
-1.08015e-08
3.06145e-05
-1.08194e-08
3.0627e-05
-1.08242e-08
3.06393e-05
-1.08166e-08
3.06513e-05
-1.07968e-08
3.0663e-05
-1.07651e-08
3.06744e-05
-1.07217e-08
3.06855e-05
-1.06671e-08
3.06963e-05
-1.06018e-08
3.07068e-05
-1.05264e-08
3.07169e-05
-1.04415e-08
3.07268e-05
-1.03479e-08
3.07363e-05
-1.0246e-08
3.07455e-05
-1.01365e-08
3.07544e-05
-1.00199e-08
3.07629e-05
-9.89656e-09
3.07712e-05
-9.76701e-09
3.07792e-05
-9.63161e-09
-9.49077e-09
3.07869e-05
1.54321e-05
-1.4938e-09
1.5434e-05
-4.3271e-09
1.54371e-05
-6.83379e-09
1.54412e-05
-8.97928e-09
1.5446e-05
-1.07704e-08
1.54515e-05
-1.22355e-08
1.54574e-05
-1.34127e-08
1.54637e-05
-1.43437e-08
1.54702e-05
-1.50683e-08
1.5477e-05
-1.56334e-08
1.54838e-05
-1.61014e-08
1.54908e-05
-1.6492e-08
1.54978e-05
-1.68101e-08
1.55049e-05
-1.70622e-08
1.5512e-05
-1.72539e-08
1.55191e-05
-1.73894e-08
1.55261e-05
-1.74723e-08
1.5533e-05
-1.75076e-08
1.55398e-05
-1.7501e-08
1.55466e-05
-1.7459e-08
1.55532e-05
-1.73874e-08
1.55597e-05
-1.72906e-08
1.5566e-05
-1.71721e-08
1.55722e-05
-1.7034e-08
1.55783e-05
-1.68777e-08
1.55842e-05
-1.67046e-08
1.559e-05
-1.65156e-08
1.55956e-05
-1.6312e-08
1.5601e-05
-1.60953e-08
1.56062e-05
-1.58667e-08
1.56113e-05
-1.5628e-08
1.56163e-05
-1.53805e-08
1.56211e-05
-1.51257e-08
1.56257e-05
-1.48648e-08
1.56301e-05
-1.45987e-08
1.56345e-05
-1.43286e-08
1.56386e-05
-1.4055e-08
1.56426e-05
-1.37788e-08
1.56465e-05
-1.35005e-08
-1.32207e-08
1.56502e-05
1.36048e-05
-2.17587e-09
1.36068e-05
-6.29832e-09
1.36099e-05
-9.89703e-09
1.36138e-05
-1.29153e-08
1.36184e-05
-1.53804e-08
1.36235e-05
-1.735e-08
1.3629e-05
-1.8891e-08
1.36347e-05
-2.00754e-08
1.36407e-05
-2.0981e-08
1.36467e-05
-2.17005e-08
1.36529e-05
-2.22948e-08
1.36592e-05
-2.27716e-08
1.36655e-05
-2.31346e-08
1.36719e-05
-2.33972e-08
1.36782e-05
-2.3571e-08
1.36845e-05
-2.36645e-08
1.36907e-05
-2.3685e-08
1.36968e-05
-2.3641e-08
1.37028e-05
-2.35419e-08
1.37088e-05
-2.33971e-08
1.37146e-05
-2.32137e-08
1.37203e-05
-2.29947e-08
1.37259e-05
-2.27439e-08
1.37313e-05
-2.2465e-08
1.37366e-05
-2.21622e-08
1.37417e-05
-2.18394e-08
1.37467e-05
-2.14999e-08
1.37515e-05
-2.11467e-08
1.37562e-05
-2.07822e-08
1.37608e-05
-2.04083e-08
1.37652e-05
-2.00266e-08
1.37694e-05
-1.96384e-08
1.37736e-05
-1.92448e-08
1.37775e-05
-1.8847e-08
1.37814e-05
-1.8446e-08
1.37851e-05
-1.80428e-08
1.37887e-05
-1.76384e-08
1.37921e-05
-1.72336e-08
1.37955e-05
-1.68295e-08
-1.6427e-08
1.37987e-05
1.1994e-05
-2.90404e-09
1.19961e-05
-8.37968e-09
1.19993e-05
-1.30449e-08
1.20032e-05
-1.68422e-08
1.20077e-05
-1.98651e-08
1.20126e-05
-2.22256e-08
1.20177e-05
-2.40302e-08
1.2023e-05
-2.5387e-08
1.20284e-05
-2.64143e-08
1.2034e-05
-2.72431e-08
1.20396e-05
-2.79288e-08
1.20453e-05
-2.84632e-08
1.2051e-05
-2.88421e-08
1.20567e-05
-2.90809e-08
1.20623e-05
-2.92006e-08
1.20679e-05
-2.92219e-08
1.20734e-05
-2.9163e-08
1.20788e-05
-2.90375e-08
1.20841e-05
-2.88545e-08
1.20893e-05
-2.86191e-08
1.20944e-05
-2.83332e-08
1.20994e-05
-2.7997e-08
1.21043e-05
-2.76152e-08
1.2109e-05
-2.71956e-08
1.21136e-05
-2.67469e-08
1.2118e-05
-2.62775e-08
1.21223e-05
-2.57946e-08
1.21265e-05
-2.53031e-08
1.21305e-05
-2.48062e-08
1.21344e-05
-2.43055e-08
1.21382e-05
-2.38016e-08
1.21418e-05
-2.32947e-08
1.21454e-05
-2.27846e-08
1.21488e-05
-2.22718e-08
1.21521e-05
-2.17568e-08
1.21553e-05
-2.12404e-08
1.21584e-05
-2.07238e-08
1.21614e-05
-2.02081e-08
1.21642e-05
-1.96947e-08
-1.91849e-08
1.2167e-05
1.0574e-05
-3.74249e-09
1.05764e-05
-1.06971e-08
1.05797e-05
-1.63639e-08
1.05836e-05
-2.07918e-08
1.0588e-05
-2.42277e-08
1.05926e-05
-2.68631e-08
1.05974e-05
-2.88436e-08
1.06024e-05
-3.03155e-08
1.06074e-05
-3.14278e-08
1.06124e-05
-3.23127e-08
1.06175e-05
-3.3031e-08
1.06227e-05
-3.3586e-08
1.06278e-05
-3.39623e-08
1.06329e-05
-3.4155e-08
1.06379e-05
-3.419e-08
1.06427e-05
-3.41107e-08
1.06475e-05
-3.39562e-08
1.06522e-05
-3.37487e-08
1.06569e-05
-3.34919e-08
1.06614e-05
-3.31777e-08
1.06659e-05
-3.2798e-08
1.06703e-05
-3.23535e-08
1.06745e-05
-3.18502e-08
1.06786e-05
-3.12989e-08
1.06826e-05
-3.07134e-08
1.06864e-05
-3.01077e-08
1.06901e-05
-2.94934e-08
1.06937e-05
-2.88781e-08
1.06971e-05
-2.82661e-08
1.07005e-05
-2.76581e-08
1.07037e-05
-2.70527e-08
1.07069e-05
-2.64479e-08
1.07099e-05
-2.58418e-08
1.07129e-05
-2.5233e-08
1.07158e-05
-2.46213e-08
1.07185e-05
-2.40074e-08
1.07212e-05
-2.33925e-08
1.07238e-05
-2.27784e-08
1.07263e-05
-2.21672e-08
-2.15599e-08
1.07286e-05
9.32229e-06
-4.79922e-09
9.32499e-06
-1.33934e-08
9.32851e-06
-1.98882e-08
9.33245e-06
-2.47253e-08
9.33663e-06
-2.84116e-08
9.34098e-06
-3.12136e-08
9.34542e-06
-3.32783e-08
9.34988e-06
-3.47786e-08
9.35436e-06
-3.59102e-08
9.35888e-06
-3.68268e-08
9.36344e-06
-3.75906e-08
9.36803e-06
-3.8184e-08
9.37263e-06
-3.85576e-08
9.37716e-06
-3.86902e-08
9.38159e-06
-3.86198e-08
9.3859e-06
-3.84189e-08
9.3901e-06
-3.81549e-08
9.39422e-06
-3.78653e-08
9.39828e-06
-3.75522e-08
9.40229e-06
-3.71932e-08
9.40625e-06
-3.67594e-08
9.41014e-06
-3.62341e-08
9.4139e-06
-3.56183e-08
9.41753e-06
-3.49289e-08
9.42101e-06
-3.41917e-08
9.42434e-06
-3.34336e-08
9.42752e-06
-3.26766e-08
9.43058e-06
-3.19356e-08
9.43353e-06
-3.1217e-08
9.43639e-06
-3.05196e-08
9.43918e-06
-2.98374e-08
9.44189e-06
-2.91627e-08
9.44454e-06
-2.84884e-08
9.44711e-06
-2.78098e-08
9.44962e-06
-2.7125e-08
9.45204e-06
-2.64343e-08
9.45439e-06
-2.57394e-08
9.45666e-06
-2.50433e-08
9.45884e-06
-2.43489e-08
-2.36605e-08
9.46094e-06
8.21905e-06
-6.32731e-09
8.22221e-06
-1.65506e-08
8.2259e-06
-2.35824e-08
8.22973e-06
-2.85598e-08
8.23368e-06
-3.23527e-08
8.23772e-06
-3.52614e-08
8.24178e-06
-3.73388e-08
8.24577e-06
-3.87613e-08
8.24967e-06
-3.98165e-08
8.25358e-06
-4.07355e-08
8.25758e-06
-4.15931e-08
8.26171e-06
-4.23114e-08
8.2659e-06
-4.27462e-08
8.27003e-06
-4.28219e-08
8.27401e-06
-4.25942e-08
8.27779e-06
-4.22007e-08
8.28141e-06
-4.17769e-08
8.28495e-06
-4.14002e-08
8.28847e-06
-4.10728e-08
8.29201e-06
-4.07418e-08
8.29559e-06
-4.03332e-08
8.29914e-06
-3.97871e-08
8.30261e-06
-3.90836e-08
8.30592e-06
-3.82447e-08
8.30905e-06
-3.73176e-08
8.31197e-06
-3.63568e-08
8.31471e-06
-3.54111e-08
8.31729e-06
-3.45164e-08
8.31976e-06
-3.36898e-08
8.32217e-06
-3.29294e-08
8.32455e-06
-3.22186e-08
8.32692e-06
-3.15332e-08
8.32928e-06
-3.08499e-08
8.33162e-06
-3.01515e-08
8.33393e-06
-2.94297e-08
8.33618e-06
-2.86834e-08
8.33835e-06
-2.79162e-08
8.34045e-06
-2.71341e-08
8.34244e-06
-2.63442e-08
-2.55508e-08
8.34433e-06
7.24671e-06
-8.53915e-09
7.25039e-06
-2.0232e-08
7.25424e-06
-2.74328e-08
7.25789e-06
-3.2214e-08
7.26154e-06
-3.59983e-08
7.26532e-06
-3.90477e-08
7.26909e-06
-4.11064e-08
7.27263e-06
-4.22997e-08
7.27592e-06
-4.31045e-08
7.27913e-06
-4.39466e-08
7.28252e-06
-4.49845e-08
7.28625e-06
-4.60442e-08
7.29023e-06
-4.67268e-08
7.29418e-06
-4.67712e-08
7.29785e-06
-4.6259e-08
7.30113e-06
-4.54803e-08
7.30409e-06
-4.47375e-08
7.30692e-06
-4.42301e-08
7.30983e-06
-4.39834e-08
7.31294e-06
-4.38579e-08
7.31625e-06
-4.36417e-08
7.31964e-06
-4.31753e-08
7.32297e-06
-4.24091e-08
7.32611e-06
-4.13869e-08
7.32899e-06
-4.01944e-08
7.33156e-06
-3.89292e-08
7.33384e-06
-3.76889e-08
7.33588e-06
-3.65574e-08
7.33777e-06
-3.55805e-08
7.3396e-06
-3.47567e-08
7.34143e-06
-3.4049e-08
7.3433e-06
-3.34057e-08
7.34523e-06
-3.27772e-08
7.3472e-06
-3.21271e-08
7.34921e-06
-3.1435e-08
7.35122e-06
-3.06932e-08
7.3532e-06
-2.99028e-08
7.35514e-06
-2.90701e-08
7.357e-06
-2.82043e-08
-2.73105e-08
7.35876e-06
6.38953e-06
-1.13901e-08
6.39396e-06
-2.46594e-08
6.39808e-06
-3.15492e-08
6.40148e-06
-3.56209e-08
6.40478e-06
-3.92902e-08
6.4084e-06
-4.26749e-08
6.41205e-06
-4.47479e-08
6.41523e-06
-4.5483e-08
6.41785e-06
-4.57286e-08
6.42017e-06
-4.62603e-08
6.4227e-06
-4.75217e-08
6.42601e-06
-4.93543e-08
6.43008e-06
-5.07931e-08
6.4343e-06
-5.09905e-08
6.43804e-06
-4.99991e-08
6.44098e-06
-4.842e-08
6.44312e-06
-4.68832e-08
6.44479e-06
-4.58925e-08
6.44654e-06
-4.57316e-08
6.44892e-06
-4.62449e-08
6.45211e-06
-4.68316e-08
6.45582e-06
-4.68876e-08
6.45962e-06
-4.62087e-08
6.46316e-06
-4.49238e-08
6.4662e-06
-4.32357e-08
6.46861e-06
-4.13379e-08
6.47036e-06
-3.94373e-08
6.47157e-06
-3.77648e-08
6.4725e-06
-3.65088e-08
6.47346e-06
-3.572e-08
6.47469e-06
-3.52821e-08
6.47627e-06
-3.4989e-08
6.47816e-06
-3.46601e-08
6.48023e-06
-3.42003e-08
6.48238e-06
-3.35858e-08
6.48452e-06
-3.28311e-08
6.48658e-06
-3.1965e-08
6.48853e-06
-3.10193e-08
6.49036e-06
-3.00289e-08
-2.90843e-08
6.49213e-06
5.63402e-06
-1.49639e-08
5.63957e-06
-3.0207e-08
5.64401e-06
-3.59911e-08
5.64705e-06
-3.8665e-08
5.65002e-06
-4.22585e-08
5.65376e-06
-4.64113e-08
5.65748e-06
-4.84751e-08
5.6603e-06
-4.83014e-08
5.66214e-06
-4.75708e-08
5.66346e-06
-4.75749e-08
5.66501e-06
-4.90737e-08
5.66776e-06
-5.21058e-08
5.67195e-06
-5.49863e-08
5.67671e-06
-5.57436e-08
5.68087e-06
-5.41598e-08
5.68378e-06
-5.13295e-08
5.68538e-06
-4.84881e-08
5.68594e-06
-4.64539e-08
5.68592e-06
-4.57102e-08
5.68622e-06
-4.65383e-08
5.68776e-06
-4.83754e-08
5.69075e-06
-4.98759e-08
5.69471e-06
-5.0167e-08
5.699e-06
-4.92123e-08
5.70302e-06
-4.72648e-08
5.70631e-06
-4.46265e-08
5.70855e-06
-4.16784e-08
5.70961e-06
-3.88202e-08
5.7095e-06
-3.64012e-08
5.70852e-06
-3.47352e-08
5.7072e-06
-3.39627e-08
5.70611e-06
-3.3905e-08
5.70564e-06
-3.41817e-08
5.7059e-06
-3.44606e-08
5.70685e-06
-3.45396e-08
5.70835e-06
-3.43362e-08
5.71023e-06
-3.38409e-08
5.7123e-06
-3.30906e-08
5.7144e-06
-3.21279e-08
-3.08454e-08
5.71616e-06
4.96895e-06
-2.01617e-08
4.97622e-06
-3.7479e-08
4.98048e-06
-4.02502e-08
4.98277e-06
-4.09609e-08
4.98602e-06
-4.5503e-08
4.99082e-06
-5.12167e-08
4.9952e-06
-5.28543e-08
4.99738e-06
-5.04824e-08
4.99712e-06
-4.73014e-08
4.99609e-06
-4.65516e-08
4.9969e-06
-4.98854e-08
5.00073e-06
-5.59308e-08
5.0064e-06
-6.06538e-08
5.01172e-06
-6.10647e-08
5.01504e-06
-5.74853e-08
5.01549e-06
-5.17744e-08
5.01315e-06
-4.61465e-08
5.00967e-06
-4.29751e-08
5.00753e-06
-4.35702e-08
5.00811e-06
-4.71199e-08
5.01079e-06
-5.10586e-08
5.01384e-06
-5.29208e-08
5.01588e-06
-5.22072e-08
5.0165e-06
-4.98323e-08
5.01572e-06
-4.64841e-08
5.01347e-06
-4.23771e-08
5.00964e-06
-3.7854e-08
5.00457e-06
-3.37506e-08
4.99916e-06
-3.09894e-08
4.99436e-06
-2.9934e-08
4.9906e-06
-3.02046e-08
4.98773e-06
-3.10321e-08
4.98525e-06
-3.17007e-08
4.98264e-06
-3.1848e-08
4.9795e-06
-3.1404e-08
4.97563e-06
-3.04704e-08
4.97099e-06
-2.92005e-08
4.96567e-06
-2.77699e-08
4.95982e-06
-2.62756e-08
-2.4898e-08
4.95387e-06
4.38684e-06
-3.10028e-08
4.39684e-06
-4.74796e-08
4.39937e-06
-4.27776e-08
4.39974e-06
-4.13344e-08
4.40261e-06
-4.8368e-08
4.40709e-06
-5.57017e-08
4.40957e-06
-5.53369e-08
4.40797e-06
-4.88756e-08
4.4017e-06
-4.10388e-08
4.39203e-06
-3.68756e-08
4.38247e-06
-4.03274e-08
4.37629e-06
-4.97458e-08
4.37212e-06
-5.64922e-08
4.36638e-06
-5.5321e-08
4.35757e-06
-4.86746e-08
4.34572e-06
-3.99263e-08
4.33066e-06
-3.10843e-08
4.31181e-06
-2.41301e-08
4.29018e-06
-2.19313e-08
4.26918e-06
-2.61235e-08
4.25108e-06
-3.29601e-08
4.23454e-06
-3.63761e-08
4.21727e-06
-3.49442e-08
4.19822e-06
-3.07835e-08
4.1776e-06
-2.58604e-08
4.1562e-06
-2.09782e-08
4.13427e-06
-1.59194e-08
4.11113e-06
-1.06096e-08
4.08641e-06
-6.2687e-09
4.06124e-06
-4.76925e-09
4.03738e-06
-6.34277e-09
4.01569e-06
-9.33915e-09
3.99594e-06
-1.19569e-08
3.97741e-06
-1.33117e-08
3.95935e-06
-1.33491e-08
3.94136e-06
-1.24849e-08
3.92333e-06
-1.11678e-08
3.9053e-06
-9.73495e-09
3.88734e-06
-8.32007e-09
-6.9434e-09
3.86939e-06
3.82684e-06
3.77936e-06
3.73658e-06
3.69525e-06
3.64688e-06
3.59118e-06
3.53584e-06
3.48697e-06
3.44593e-06
3.40905e-06
3.36872e-06
3.31898e-06
3.26249e-06
3.20716e-06
3.15849e-06
3.11856e-06
3.08748e-06
3.06335e-06
3.04142e-06
3.01529e-06
2.98233e-06
2.94596e-06
2.91101e-06
2.88023e-06
2.85437e-06
2.83339e-06
2.81747e-06
2.80686e-06
2.80059e-06
2.79583e-06
2.78948e-06
2.78014e-06
2.76819e-06
2.75487e-06
2.74153e-06
2.72904e-06
2.71787e-06
2.70814e-06
2.69982e-06
2.69287e-06
1.13652e-10
-1.13652e-10
2.50109e-10
-1.36457e-10
4.04406e-10
-1.54297e-10
5.76929e-10
-1.72523e-10
7.6711e-10
-1.90181e-10
9.73783e-10
-2.06673e-10
1.19545e-09
-2.21667e-10
1.43022e-09
-2.34773e-10
1.67564e-09
-2.45419e-10
1.92842e-09
-2.52781e-10
2.18412e-09
-2.55698e-10
2.43812e-09
-2.54002e-10
2.69788e-09
-2.59752e-10
2.97304e-09
-2.75165e-10
3.25098e-09
-2.77944e-10
3.5153e-09
-2.64312e-10
3.76151e-09
-2.46218e-10
3.98567e-09
-2.24159e-10
4.18254e-09
-1.96868e-10
4.34658e-09
-1.64042e-10
4.47229e-09
-1.25708e-10
4.55421e-09