/*--------------------------------*- C++ -*----------------------------------*\
| =========                 |                                                 |
| \\      /  F ield         | OpenFOAM: The Open Source CFD Toolbox           |
|  \\    /   O peration     | Version:  2112                                  |
|   \\  /    A nd           | Website:  www.openfoam.com                      |
|    \\/     M anipulation  |                                                 |
\*---------------------------------------------------------------------------*/
FoamFile
{
    version     2.0;
    format      ascii;
    arch        "LSB;label=32;scalar=64";
    class       volScalarField;
    location    "0.17";
    object      kU;
}
// * * * * * * * * * * * * * * * * * * * * * * * * * * * * * * * * * * * * * //

dimensions      [0 2 -2 0 0 0 0];

internalField   nonuniform List<scalar> 
12225
(
0.140632
0.231242
0.312607
0.395235
0.486937
0.593062
0.717589
0.864006
1.03511
1.23374
1.46276
1.72483
2.0222
2.35655
2.72862
3.13873
3.58292
4.04625
0.0416599
0.0492328
0.0583988
0.069195
0.0819451
0.0969997
0.114754
0.135824
0.161055
0.190957
0.225679
0.265095
0.308847
0.356439
0.407334
0.461529
0.521036
0.591479
0.0375999
0.038375
0.0395343
0.040963
0.0424228
0.0438723
0.0454038
0.0471542
0.049291
0.0519462
0.055194
0.0590625
0.0635511
0.0686565
0.0743961
0.0808878
0.0883742
0.0970877
0.0373217
0.0371952
0.037165
0.037254
0.0374685
0.0377554
0.0380929
0.0384689
0.038882
0.039335
0.039818
0.0403081
0.040804
0.0413071
0.0418232
0.0423672
0.042968
0.0436372
0.0373044
0.0371188
0.0369501
0.0368012
0.0366763
0.0365756
0.0364979
0.0364417
0.0364068
0.0363936
0.0364011
0.036426
0.0364647
0.0365139
0.0365706
0.0366338
0.0367041
0.0367844
0.0372996
0.0371101
0.0369314
0.0367618
0.0366017
0.0364516
0.0363112
0.0361799
0.0360578
0.0359448
0.0358409
0.0357455
0.0356578
0.0355772
0.035503
0.0354349
0.0353732
0.0353188
0.0372968
0.0371046
0.0369226
0.0367496
0.0365855
0.0364304
0.0362836
0.0361443
0.0360122
0.0358869
0.0357683
0.0356558
0.0355491
0.0354477
0.0353513
0.0352599
0.0351735
0.0350922
0.0372949
0.0371007
0.0369169
0.0367424
0.0365768
0.03642
0.0362714
0.0361301
0.0359958
0.0358683
0.0357471
0.0356319
0.0355222
0.0354177
0.0353182
0.0352234
0.0351334
0.035048
0.0372936
0.0370981
0.036913
0.0367373
0.0365706
0.0364125
0.0362625
0.03612
0.0359845
0.0358558
0.0357334
0.0356169
0.0355061
0.0354005
0.0352999
0.0352041
0.0351129
0.0350262
0.0372926
0.0370962
0.0369101
0.0367335
0.0365659
0.0364069
0.0362559
0.0361125
0.0359761
0.0358465
0.0357231
0.0356058
0.035494
0.0353875
0.035286
0.0351894
0.0350973
0.0350097
0.037292
0.0370948
0.0369079
0.0367306
0.0365624
0.0364026
0.0362509
0.0361068
0.0359697
0.0358393
0.0357152
0.0355971
0.0354846
0.0353774
0.0352753
0.0351779
0.0350852
0.0349968
0.0372915
0.0370938
0.0369064
0.0367286
0.0365598
0.0363995
0.0362472
0.0361025
0.0359649
0.0358339
0.0357093
0.0355906
0.0354776
0.0353699
0.0352672
0.0351694
0.035076
0.0349871
0.0372912
0.037093
0.0369052
0.0367269
0.0365577
0.0363969
0.0362442
0.036099
0.0359609
0.0358295
0.0357044
0.0355853
0.0354718
0.0353636
0.0352605
0.0351621
0.0350684
0.034979
0.0372909
0.0370924
0.0369041
0.0367254
0.0365558
0.0363946
0.0362414
0.0360958
0.0359572
0.0358253
0.0356998
0.0355802
0.0354663
0.0353576
0.0352541
0.0351553
0.0350611
0.0349712
0.0372906
0.0370919
0.0369032
0.0367242
0.0365541
0.0363925
0.0362389
0.0360928
0.0359538
0.0358216
0.0356956
0.0355755
0.0354612
0.0353521
0.0352481
0.0351489
0.0350542
0.034964
0.0372905
0.0370915
0.0369025
0.0367231
0.0365527
0.0363907
0.0362367
0.0360903
0.0359509
0.0358182
0.0356918
0.0355714
0.0354566
0.0353471
0.0352427
0.0351431
0.035048
0.0349573
0.0372903
0.0370912
0.036902
0.0367223
0.0365516
0.0363893
0.036235
0.0360882
0.0359485
0.0358154
0.0356886
0.0355678
0.0354526
0.0353428
0.035238
0.0351379
0.0350425
0.0349514
0.0372903
0.037091
0.0369017
0.0367219
0.0365509
0.0363884
0.0362338
0.0360867
0.0359467
0.0358133
0.0356862
0.035565
0.0354495
0.0353393
0.0352341
0.0351337
0.0350379
0.0349464
0.0372903
0.037091
0.0369017
0.0367217
0.0365507
0.036388
0.0362332
0.0360859
0.0359457
0.0358121
0.0356847
0.0355633
0.0354475
0.035337
0.0352316
0.0351309
0.0350347
0.0349429
0.0372903
0.0370912
0.0369019
0.036722
0.036551
0.0363883
0.0362335
0.0360861
0.0359458
0.0358121
0.0356846
0.0355631
0.0354472
0.0353366
0.035231
0.0351302
0.0350338
0.0349418
0.0372905
0.0370915
0.0369023
0.0367226
0.0365516
0.036389
0.0362343
0.0360869
0.0359466
0.0358129
0.0356855
0.0355639
0.035448
0.0353374
0.0352318
0.0351309
0.0350346
0.0349426
0.0372907
0.0370919
0.036903
0.0367235
0.0365527
0.0363902
0.0362355
0.0360883
0.035948
0.0358144
0.035687
0.0355656
0.0354498
0.0353393
0.0352338
0.035133
0.0350368
0.0349449
0.037291
0.0370926
0.036904
0.0367247
0.0365542
0.0363919
0.0362374
0.0360903
0.0359502
0.0358167
0.0356894
0.0355681
0.0354524
0.035342
0.0352367
0.0351361
0.0350401
0.0349484
0.0372915
0.0370936
0.0369054
0.0367265
0.0365562
0.0363942
0.0362401
0.0360933
0.0359535
0.0358203
0.0356934
0.0355725
0.0354572
0.0353472
0.0352423
0.0351422
0.0350465
0.0349552
0.0372923
0.0370952
0.0369079
0.0367296
0.0365598
0.0363981
0.0362442
0.0360976
0.0359581
0.0358252
0.0356988
0.0355785
0.0354641
0.0353553
0.0352517
0.0351532
0.0350595
0.0349704
0.0372937
0.0370976
0.0369118
0.0367358
0.0365694
0.0364123
0.036264
0.0361243
0.0359931
0.0358701
0.0357555
0.035649
0.0355506
0.03546
0.035377
0.0353015
0.0352331
0.0351714
0.0372971
0.0371086
0.0369401
0.0367945
0.0366755
0.0365865
0.0365279
0.0364971
0.0364918
0.0365111
0.0365539
0.0366188
0.0367043
0.0368088
0.0369306
0.0370677
0.0372186
0.037382
0.0373456
0.0374848
0.0377735
0.0381593
0.0386178
0.0391287
0.0396771
0.0401961
0.0406915
0.041198
0.0417507
0.0423819
0.0431198
0.0439879
0.0450039
0.0461805
0.0475253
0.0490519
0.0388421
0.0414904
0.0447612
0.0485554
0.0528784
0.0577522
0.0632477
0.0695091
0.076735
0.0850949
0.0946987
0.105618
0.117898
0.131562
0.146608
0.163011
0.18073
0.199747
0.103695
0.162654
0.213593
0.26148
0.310121
0.361841
0.417998
0.479437
0.546679
0.620085
0.69995
0.786523
0.880018
0.980617
1.08847
1.2033
1.3251
1.45415
0.41594
0.408489
0.413633
0.425369
0.442842
0.46451
0.487043
0.511116
0.536343
0.562618
0.589978
0.618484
0.648203
0.679192
0.711491
0.745124
0.780099
0.816408
0.854026
0.892917
0.933026
0.974284
1.01662
1.05993
1.10416
1.1493
1.19541
1.24254
1.29063
1.33779
1.38284
1.42547
1.46532
1.50202
1.53519
1.56449
1.58957
1.61013
1.62588
1.63641
1.64124
1.63809
1.62815
1.6122
1.59105
1.56551
1.53637
1.50441
1.47029
1.43461
1.39791
1.36064
1.32326
1.28621
1.24994
1.21493
1.18166
1.15071
1.12267
1.09825
1.07821
1.06316
1.05303
1.04786
1.04688
1.04656
1.04349
1.03339
1.01313
0.983949
0.96486
0.99696
1.14488
1.47558
2.03086
2.67956
3.44243
4.31674
5.2864
6.32728
7.4092
8.4983
9.56
10.5618
11.4757
12.2795
12.9575
13.5004
13.9051
14.1749
14.3231
14.3988
14.4119
14.3709
14.2819
14.1506
13.9822
13.7811
13.5515
13.2968
13.0199
12.7236
12.4099
12.0807
11.7376
11.3818
11.0138
10.6423
10.2727
9.90427
9.53704
9.17125
8.80702
8.44444
8.08351
7.72421
7.36652
7.01041
6.65592
6.30314
5.95232
5.60388
5.25837
4.91605
4.57635
4.23908
3.90627
3.58028
3.26382
2.96015
2.67318
2.40756
2.16911
1.96664
1.81765
1.75173
1.90338
2.15687
2.46349
2.83208
3.26377
3.76267
4.33252
4.97498
5.69413
6.49249
7.36938
8.32105
9.34015
10.4149
11.5286
12.6468
13.6895
14.6162
15.4107
16.0602
16.5556
16.8921
17.069
17.0892
16.9584
16.6835
16.2722
15.7325
15.0741
14.3098
13.457
12.5387
11.583
10.6214
9.68508
8.80019
7.98321
7.23795
6.55666
5.92467
5.32809
4.75796
4.22223
3.71205
0.571469
0.512796
0.482136
0.464127
0.45365
0.447572
0.443951
0.441982
0.44119
0.441211
0.441763
0.442642
0.443712
0.444892
0.446144
0.447456
0.448839
0.45032
0.451936
0.45373
0.455749
0.458041
0.460645
0.463579
0.466802
0.470196
0.473626
0.477015
0.480482
0.485738
0.493331
0.502966
0.514463
0.527608
0.542163
0.557865
0.574438
0.591602
0.609076
0.626548
0.643486
0.659102
0.673108
0.685243
0.695314
0.703179
0.708746
0.711975
0.712861
0.711436
0.707763
0.701946
0.69413
0.684499
0.673271
0.660676
0.646947
0.632328
0.617134
0.601843
0.587238
0.57455
0.565798
0.562644
0.56664
0.580516
0.605327
0.640549
0.686104
0.746258
0.837077
0.991633
1.25783
1.68389
2.15271
2.63734
3.12684
3.59978
4.03304
4.40529
4.69954
4.905
5.01796
5.04168
4.98533
4.86243
4.68911
4.48253
4.25849
4.02841
3.80012
3.58182
3.37585
3.18249
3.00225
2.83555
2.68253
2.54319
2.41749
2.30541
2.20709
2.12278
2.05288
1.99804
1.95938
1.93745
1.93172
1.93492
1.94037
1.94777
1.95687
1.96744
1.97921
1.99187
2.00509
2.01845
2.03145
2.04347
2.05376
2.06138
2.0652
2.06393
2.05635
2.04199
2.02229
2.00038
1.97767
1.95408
1.92967
1.90459
1.87892
1.85331
1.82853
1.80683
1.79026
1.78438
1.79007
1.79668
1.80146
1.80912
1.82289
1.8443
1.87051
1.89481
1.91783
1.9456
1.98574
2.04517
2.13023
2.247
2.40126
2.60052
2.87613
3.21412
3.59141
3.98826
4.38939
4.78236
5.15546
5.49568
5.78764
6.01419
6.15857
6.20843
6.15881
6.01198
5.7762
5.46457
5.094
4.68412
4.25609
3.8313
3.42987
3.06854
2.75777
2.49959
2.28877
2.11758
1.98161
1.88101
0.781102
0.628872
0.551291
0.505821
0.477659
0.459567
0.447432
0.439032
0.433138
0.428981
0.426026
0.423887
0.42229
0.421044
0.420018
0.419125
0.418306
0.417521
0.416738
0.415927
0.415058
0.414096
0.413005
0.411746
0.410276
0.408547
0.406512
0.404136
0.401413
0.398432
0.395616
0.393401
0.391835
0.39097
0.39085
0.39151
0.39297
0.395235
0.398285
0.402075
0.406503
0.411406
0.416603
0.421899
0.427093
0.431985
0.436382
0.440102
0.442973
0.444837
0.445556
0.445018
0.443141
0.439873
0.435182
0.429047
0.421454
0.412421
0.402067
0.390743
0.379238
0.369034
0.362567
0.363307
0.375561
0.403833
0.451793
0.521889
0.616553
0.741566
0.912123
1.15817
1.51873
1.90069
2.27208
2.61135
2.89835
3.11579
3.25279
3.30655
3.28254
3.1931
3.05495
2.88638
2.70476
2.52477
2.35741
2.2096
2.08444
1.98202
1.90121
1.84036
1.7972
1.76938
1.75451
1.75023
1.75454
1.76574
1.78243
1.80345
1.82788
1.85498
1.88421
1.91519
1.94589
1.97551
2.0038
2.03037
2.05502
2.07772
2.09844
2.11719
2.13395
2.14868
2.16129
2.17169
2.1798
2.18553
2.18879
2.18966
2.18798
2.18351
2.17605
2.16549
2.15176
2.13488
2.11475
2.09059
2.06274
2.03267
2.00015
1.9664
1.93015
1.89384
1.85277
1.81232
1.77148
1.72983
1.6886
1.64938
1.61293
1.57964
1.54937
1.52154
1.49523
1.46808
1.44142
1.41765
1.39866
1.38562
1.37928
1.38094
1.40125
1.4482
1.52458
1.63098
1.76594
1.92681
2.10986
2.30962
2.51803
2.72356
2.91084
3.06224
3.16194
3.19959
3.17135
3.07957
2.93199
2.74078
2.52161
2.29252
2.07212
1.87683
1.71772
1.59863
1.51695
1.46603
1.43883
1.42858
0.956796
0.700012
0.57886
0.512043
0.47278
0.449018
0.434397
0.42538
0.419923
0.416793
0.415221
0.41473
0.415018
0.415897
0.417245
0.418973
0.421009
0.423282
0.425713
0.42821
0.430667
0.432961
0.434959
0.436523
0.437526
0.437864
0.437464
0.436285
0.434309
0.431526
0.427937
0.423821
0.419304
0.414444
0.409315
0.403998
0.398581
0.393153
0.387801
0.38261
0.377649
0.372971
0.368608
0.364573
0.360854
0.357421
0.354224
0.351204
0.348286
0.34538
0.342384
0.339193
0.33571
0.331833
0.327456
0.322457
0.316712
0.31012
0.302681
0.294654
0.286806
0.280774
0.279508
0.287589
0.311032
0.356235
0.428533
0.531629
0.668779
0.846694
1.08206
1.40085
1.72643
2.03356
2.29707
2.49707
2.62142
2.66739
2.64198
2.56007
2.44123
2.30588
2.1722
2.05411
1.96044
1.89526
1.85856
1.84748
1.85755
1.88383
1.92163
1.9669
2.01635
2.06752
2.11864
2.16859
2.21665
2.2624
2.30562
2.34625
2.3843
2.41984
2.45293
2.48185
2.50708
2.52927
2.54855
2.56494
2.57842
2.58896
2.59653
2.60125
2.60317
2.6022
2.59818
2.59095
2.58027
2.56585
2.5472
2.52543
2.50063
2.47273
2.44167
2.40742
2.36988
2.32914
2.28548
2.23851
2.18812
2.13588
2.0793
2.02229
1.96082
1.89907
1.83915
1.77818
1.7172
1.65756
1.60054
1.54688
1.4969
1.45073
1.40839
1.36971
1.33457
1.30266
1.27378
1.24755
1.22254
1.19935
1.17852
1.16049
1.14701
1.14059
1.14353
1.1588
1.1891
1.23641
1.30171
1.38468
1.48325
1.59315
1.70767
1.81753
1.91133
1.97783
2.00836
1.9983
1.94781
1.86186
1.74995
1.62515
1.50235
1.39557
1.31495
1.26482
1.24369
1.24564
1.26308
1.28632
1.07064
0.725122
0.577286
0.501451
0.4601
0.437084
0.424357
0.417633
0.41455
0.413793
0.414639
0.416692
0.419738
0.42365
0.428335
0.433704
0.439662
0.446093
0.452856
0.459784
0.46668
0.473321
0.479465
0.48487
0.489313
0.492623
0.494693
0.495475
0.494941
0.493065
0.489807
0.485013
0.479069
0.472085
0.464204
0.455587
0.446395
0.436773
0.42685
0.416733
0.406519
0.396289
0.386118
0.376067
0.366191
0.356529
0.347118
0.337994
0.329189
0.320718
0.312572
0.304741
0.297218
0.28999
0.283024
0.276265
0.26964
0.263092
0.256662
0.250686
0.246122
0.245046
0.251222
0.270396
0.309779
0.376579
0.476288
0.612387
0.788391
1.0136
1.30371
1.59101
1.85551
2.07561
2.23227
2.31618
2.3295
2.28475
2.20141
2.10147
2.00524
1.92841
1.88068
1.86585
1.8827
1.92656
1.9909
2.06887
2.15431
2.24232
2.32933
2.41302
2.49197
2.56547
2.63323
2.69523
2.75163
2.80261
2.84841
2.88924
2.92531
2.95678
2.98316
3.00373
3.01994
3.03194
3.03993
3.04391
3.04376
3.03929
3.03023
3.01691
2.99999
2.97951
2.9555
2.92796
2.8969
2.86235
2.82437
2.78294
2.7381
2.68979
2.63815
2.58342
2.52517
2.46317
2.39884
2.33103
2.25755
2.18486
2.10536
2.02521
1.94794
1.87046
1.79296
1.71605
1.64079
1.56832
1.49972
1.43576
1.37685
1.32316
1.27466
1.23129
1.19291
1.15929
1.13016
1.10519
1.08381
1.06502
1.04767
1.03195
1.01802
1.00604
0.996613
0.991182
0.991608
0.999895
1.01796
1.0474
1.08901
1.14221
1.20457
1.27161
1.33684
1.39248
1.43097
1.44649
1.43616
1.40088
1.34557
1.2789
1.21201
1.15632
1.12091
1.11028
1.12364
1.15547
1.19796
1.24035
1.12473
0.721107
0.564601
0.490573
0.453446
0.434582
0.425338
0.421423
0.420685
0.422069
0.425078
0.429482
0.435162
0.442027
0.449972
0.458871
0.468568
0.47888
0.489591
0.500452
0.511173
0.521433
0.530889
0.5392
0.546066
0.55127
0.554701
0.556316
0.556103
0.554063
0.550217
0.544373
0.536754
0.52765
0.517346
0.506107
0.494169
0.481726
0.468932
0.455903
0.442728
0.429478
0.416214
0.402989
0.389848
0.376828
0.363959
0.351271
0.338791
0.326572
0.314652
0.303078
0.291919
0.281254
0.271162
0.261724
0.253034
0.245228
0.238572
0.23371
0.232118
0.236722
0.252448
0.286265
0.345737
0.436962
0.564439
0.732191
0.945023
1.21359
1.47441
1.70981
1.90317
2.03827
2.10697
2.11324
2.07179
2.00376
1.93156
1.87444
1.8458
1.85229
1.89435
1.96759
2.06478
2.17777
2.29902
2.42241
2.54347
2.65926
2.768
2.86872
2.96098
3.04467
3.11988
3.18681
3.24575
3.29697
3.34075
3.37734
3.40714
3.43055
3.4456
3.4547
3.45803
3.4555
3.44816
3.43615
3.41958
3.39854
3.37314
3.34348
3.30966
3.27181
3.23007
3.18458
3.13543
3.08271
3.02654
2.96719
2.90482
2.83902
2.76975
2.69832
2.62366
2.54354
2.46196
2.37848
2.28444
2.19389
2.10247
2.00968
1.91613
1.82256
1.72988
1.63912
1.55147
1.4681
1.39002
1.31796
1.25229
1.19311
1.14033
1.09373
1.05305
1.01797
0.988207
0.963426
0.943222
0.927028
0.91376
0.902655
0.893584
0.885973
0.879559
0.874475
0.871171
0.87048
0.8736
0.881967
0.897005
0.919723
0.950194
0.987108
1.02751
1.06693
1.10008
1.12189
1.12876
1.1196
1.09656
1.06509
1.03333
1.01048
1.00455
1.02004
1.05662
1.10901
1.16931
1.22648
1.12298
0.703655
0.555944
0.490859
0.460375
0.4459
0.439395
0.437207
0.437715
0.440249
0.44455
0.450504
0.458026
0.467
0.477267
0.488622
0.500832
0.513644
0.526774
0.539901
0.552669
0.564689
0.575555
0.58487
0.592287
0.597552
0.600528
0.601172
0.59951
0.595658
0.589916
0.58242
0.572955
0.562056
0.55003
0.537169
0.523722
0.509881
0.495796
0.481577
0.467304
0.453045
0.438852
0.42476
0.410789
0.396934
0.383164
0.369412
0.355462
0.341502
0.327618
0.313901
0.300444
0.287356
0.274808
0.263035
0.252359
0.243221
0.236295
0.232795
0.235046
0.247121
0.275198
0.326153
0.406372
0.521766
0.67667
0.874499
1.12281
1.36479
1.5805
1.75713
1.882
1.94785
1.9583
1.92785
1.87753
1.82937
1.80179
1.80691
1.84982
1.92933
2.03963
2.17239
2.31889
2.47143
2.62399
2.77229
2.91354
3.04597
3.16854
3.28066
3.38203
3.47255
3.55227
3.62138
3.68014
3.72885
3.76779
3.79735
3.81812
3.82897
3.83198
3.82866
3.81933
3.80421
3.78344
3.75725
3.72582
3.68935
3.64805
3.60213
3.5518
3.49728
3.43885
3.37682
3.3115
3.24283
3.17079
3.09575
3.01886
2.93879
2.85397
2.76784
2.68023
2.58469
2.48641
2.38891
2.28802
2.18454
2.0786
1.97087
1.86237
1.75436
1.64826
1.54553
1.44758
1.35565
1.27066
1.1932
1.12348
1.06142
1.00674
0.959039
0.917864
0.882746
0.853238
0.828924
0.809404
0.79423
0.782624
0.773813
0.767661
0.763712
0.761648
0.761047
0.761551
0.762998
0.765528
0.769635
0.776127
0.785964
0.799954
0.818356
0.840505
0.864601
0.887837
0.906927
0.918954
0.922351
0.917762
0.908508
0.900399
0.900692
0.916245
0.951277
1.00567
1.07432
1.14927
1.21961
1.07409
0.68624
0.559973
0.506242
0.481424
0.469481
0.463847
0.461769
0.462169
0.464665
0.469124
0.475457
0.483545
0.493214
0.504226
0.516293
0.529123
0.542401
0.55579
0.568932
0.581444
0.592932
0.603001
0.611285
0.617471
0.621324
0.622719
0.621498
0.618022
0.612621
0.605569
0.597055
0.587127
0.575904
0.563794
0.551058
0.537886
0.524409
0.510717
0.496868
0.482896
0.46883
0.454798
0.440839
0.426896
0.412966
0.399045
0.385123
0.371174
0.357193
0.343173
0.32912
0.315051
0.30089
0.286898
0.27362
0.261689
0.251978
0.245776
0.245086
0.253227
0.275245
0.317146
0.385179
0.485982
0.624324
0.80345
1.0303
1.25569
1.45801
1.62461
1.74562
1.81475
1.83434
1.81695
1.78224
1.75149
1.74273
1.76785
1.83176
1.93309
2.06583
2.22147
2.39113
2.567
2.743
2.91476
3.07932
3.23469
3.37952
3.51287
3.63407
3.74268
3.83845
3.92131
3.99132
4.04868
4.09364
4.12646
4.14752
4.15897
4.15988
4.15306
4.13909
4.11833
4.09103
4.05751
4.01804
3.97291
3.92241
3.86684
3.80651
3.74155
3.67207
3.59829
3.52073
3.4405
3.3573
3.27047
3.17952
3.08864
2.99598
2.8969
2.79535
2.69522
2.59193
2.48553
2.37581
2.26246
2.1457
2.02609
1.90469
1.78293
1.66258
1.54553
1.43359
1.32832
1.23093
1.14219
1.06243
0.991615
0.929426
0.875351
0.828781
0.789072
0.755595
0.727766
0.70506
0.686999
0.673089
0.662559
0.65497
0.650217
0.648091
0.648497
0.651026
0.655174
0.660411
0.666285
0.672523
0.679126
0.686381
0.694785
0.704838
0.716769
0.730271
0.744381
0.757617
0.768407
0.775763
0.780026
0.783443
0.790302
0.806347
0.837366
0.88714
0.955579
1.03767
1.12538
1.208
0.997333
0.677091
0.576784
0.533274
0.51187
0.500404
0.493978
0.490637
0.489691
0.490922
0.494239
0.499534
0.506645
0.515347
0.525353
0.536337
0.547948
0.559844
0.571697
0.583157
0.593876
0.603526
0.611808
0.618468
0.6233
0.626155
0.626942
0.625614
0.622132
0.616973
0.610376
0.60254
0.593611
0.583717
0.573138
0.562139
0.55082
0.539231
0.527382
0.515253
0.502832
0.490125
0.47716
0.463957
0.450534
0.436908
0.423096
0.409097
0.394896
0.380468
0.365791
0.350942
0.336305
0.321902
0.307951
0.294901
0.283391
0.274388
0.27025
0.274038
0.289771
0.322431
0.377728
0.462101
0.581144
0.739072
0.93913
1.14524
1.33636
1.4973
1.6185
1.69426
1.72542
1.72164
1.70009
1.68082
1.68177
1.71541
1.78756
1.89775
2.04075
2.20853
2.39231
2.58416
2.77775
2.96849
3.15313
3.32937
3.49553
3.65028
3.79253
3.9214
4.03621
4.1365
4.22201
4.29267
4.34856
4.38995
4.41698
4.43145
4.43403
4.42644
4.41064
4.3872
4.35652
4.31888
4.27452
4.22363
4.16641
4.1031
4.03407
3.95994
3.88107
3.7973
3.70856
3.6149
3.51928
3.42208
3.32188
3.21501
3.10975
3.00507
2.89844
2.79003
2.67952
2.56602
2.44899
2.32797
2.20284
2.07393
1.94214
1.80894
1.67629
1.54647
1.42175
1.30414
1.19521
1.09599
1.00696
0.928148
0.859203
0.799524
0.748365
0.704919
0.668383
0.637999
0.613082
0.59303
0.577298
0.56531
0.556281
0.550012
0.546355
0.545319
0.546945
0.550975
0.55705
0.5647
0.573379
0.582528
0.591675
0.600524
0.60901
0.617276
0.625558
0.634018
0.642599
0.650993
0.658808
0.665938
0.673082
0.682249
0.697
0.722172
0.762824
0.822425
0.900951
0.993546
1.09208
1.18591
0.913245
0.675208
0.601118
0.566214
0.546505
0.534118
0.525731
0.520039
0.516633
0.515403
0.516282
0.519161
0.523867
0.530166
0.537772
0.546371
0.555635
0.565243
0.574886
0.584287
0.593192
0.601367
0.608618
0.614794
0.619793
0.623548
0.626022
0.627195
0.627075
0.625705
0.623153
0.619436
0.614619
0.608892
0.602228
0.594787
0.586705
0.57804
0.568822
0.559065
0.548811
0.538049
0.526768
0.514955
0.502603
0.489711
0.47628
0.462312
0.447794
0.43275
0.417193
0.401103
0.384695
0.368311
0.352474
0.338006
0.3262
0.31867
0.316839
0.325386
0.3484
0.39075
0.45762
0.555316
0.692922
0.855728
1.03695
1.21406
1.3702
1.49383
1.57831
1.62265
1.63322
1.62377
1.61232
1.61656
1.64998
1.72007
1.82819
1.97067
2.14052
2.32945
2.52947
2.73394
2.93788
3.13772
3.33088
3.51541
3.68967
3.85223
4.00178
4.1372
4.25752
4.36202
4.45022
4.52188
4.57697
4.61574
4.63833
4.6468
4.64179
4.62698
4.60352
4.5719
4.53248
4.48554
4.43122
4.3696
4.30077
4.22478
4.14178
4.05285
3.95971
3.86183
3.75908
3.6498
3.53809
3.4276
3.31583
3.2027
3.08922
2.97516
2.85999
2.74314
2.62387
2.5013
2.37471
2.24359
2.10795
1.96844
1.82642
1.68394
1.54352
1.40786
1.27945
1.16029
1.05176
0.954546
0.868748
0.794009
0.729645
0.674786
0.628475
0.589748
0.557686
0.531451
0.510302
0.493595
0.480757
0.471127
0.464089
0.459468
0.457092
0.457064
0.459472
0.464179
0.470991
0.479618
0.489654
0.500586
0.511841
0.522867
0.533218
0.542626
0.551017
0.558467
0.565129
0.571189
0.57692
0.582868
0.590186
0.600997
0.618653
0.647597
0.692572
0.757041
0.841282
0.940833
1.04761
1.15096
0.830312
0.677338
0.628032
0.600416
0.581375
0.567224
0.556108
0.547295
0.540613
0.536038
0.533539
0.53303
0.534368
0.537358
0.541766
0.547338
0.55381
0.560929
0.568451
0.576156
0.583849
0.591373
0.598597
0.605415
0.611753
0.617564
0.622824
0.627522
0.631653
0.635241
0.638323
0.640936
0.643092
0.64476
0.645856
0.64622
0.645782
0.644486
0.642224
0.638827
0.634579
0.629439
0.623293
0.616001
0.607419
0.597405
0.585843
0.57267
0.557848
0.541385
0.523425
0.50432
0.484399
0.46413
0.444184
0.425496
0.40932
0.397721
0.394203
0.405461
0.43433
0.484448
0.558885
0.660668
0.790914
0.939622
1.09585
1.24328
1.36844
1.46224
1.52093
1.54717
1.55057
1.5461
1.55044
1.578
1.63837
1.73538
1.86765
2.02995
2.21491
2.41474
2.62251
2.83277
3.04152
3.24591
3.44377
3.63333
3.81294
3.98104
4.13613
4.27684
4.40194
4.51042
4.60157
4.6749
4.73019
4.76746
4.78679
4.7895
4.77885
4.75781
4.72729
4.68763
4.63925
4.58263
4.51781
4.44491
4.36407
4.27536
4.17845
4.0732
3.96557
3.85396
3.73874
3.62056
3.50097
3.38084
3.26049
3.14016
3.01992
2.8994
2.77794
2.65464
2.52843
2.39827
2.26336
2.12337
1.97867
1.83045
1.68072
1.53216
1.38782
1.25061
1.12302
1.00678
0.902816
0.811357
0.732042
0.664116
0.60659
0.558367
0.518341
0.485448
0.458711
0.437261
0.420343
0.407316
0.39761
0.390553
0.385703
0.382867
0.381847
0.382865
0.385948
0.391025
0.398014
0.406776
0.41708
0.428576
0.440796
0.45319
0.465191
0.476299
0.486158
0.494597
0.501647
0.507542
0.512753
0.518106
0.524996
0.535657
0.553382
0.582476
0.627644
0.692609
0.778244
0.880826
0.992622
1.10308
0.75637
0.679747
0.6529
0.631714
0.612919
0.596629
0.582475
0.570299
0.560126
0.551981
0.545851
0.541673
0.539349
0.538742
0.539691
0.542015
0.54553
0.550052
0.555405
0.561423
0.567954
0.574863
0.582039
0.589387
0.596829
0.604299
0.611745
0.61913
0.626423
0.633605
0.640666
0.647591
0.654356
0.66093
0.667269
0.673314
0.678988
0.684201
0.688855
0.692824
0.695935
0.697981
0.698766
0.698053
0.695596
0.691145
0.684417
0.67538
0.664245
0.650989
0.635654
0.618387
0.599498
0.579495
0.559154
0.539553
0.521878
0.508885
0.504541
0.512525
0.539876
0.587798
0.657613
0.75044
0.864565
0.992367
1.12338
1.24479
1.34544
1.41816
1.46131
1.47966
1.48397
1.48864
1.50819
1.55415
1.63322
1.74699
1.8927
2.06457
2.25554
2.45866
2.66776
2.87834
3.08714
3.29181
3.49049
3.68154
3.86334
4.03418
4.19241
4.33652
4.4651
4.57688
4.67091
4.74639
4.80273
4.83946
4.85599
4.85407
4.83866
4.81182
4.77433
4.72619
4.66756
4.60016
4.52368
4.43842
4.34481
4.24338
4.13482
4.02035
3.90157
3.7794
3.65488
3.52905
3.40294
3.27726
3.15238
3.02833
2.90476
2.7809
2.65568
2.52784
2.3961
2.25939
2.11712
1.9694
1.81728
1.66271
1.50848
1.35787
1.2142
1.08032
0.95835
0.849477
0.754033
0.671662
0.601539
0.542559
0.493504
0.453137
0.420277
0.393836
0.372837
0.356427
0.343877
0.334574
0.32798
0.323483
0.32075
0.319594
0.319821
0.32179
0.325433
0.330717
0.33762
0.346098
0.35605
0.367286
0.379497
0.392256
0.405049
0.417329
0.428604
0.43851
0.446881
0.453803
0.459674
0.465306
0.472085
0.482189
0.49879
0.526063
0.568732
0.630882
0.714171
0.815936
0.929204
1.04377
0.703486
0.679211
0.670584
0.65478
0.636321
0.618371
0.601908
0.587255
0.574539
0.563773
0.554912
0.54789
0.542627
0.539027
0.536978
0.53636
0.537045
0.53891
0.541834
0.545699
0.550394
0.555813
0.56186
0.568448
0.575504
0.582962
0.590764
0.59886
0.607207
0.615769
0.624513
0.633408
0.642421
0.651517
0.660654
0.669781
0.678841
0.687759
0.696441
0.704774
0.712633
0.719871
0.726323
0.731795
0.736066
0.738892
0.74001
0.739152
0.736047
0.73046
0.722215
0.711259
0.697749
0.682129
0.665211
0.648253
0.633033
0.621878
0.617661
0.623774
0.64344
0.683232
0.742581
0.821234
0.916987
1.02387
1.133
1.23382
1.31687
1.37629
1.41153
1.42802
1.43626
1.44933
1.47982
1.53713
1.62612
1.74726
1.89726
2.07042
2.26065
2.46279
2.66811
2.87408
3.07827
3.27874
3.47391
3.66227
3.84226
4.0121
4.17005
4.31449
4.44395
4.55711
4.65279
4.72984
4.78717
4.82303
4.83673
4.83194
4.81238
4.77983
4.7352
4.67903
4.61184
4.53428
4.44687
4.3503
4.2454
4.13314
4.0147
3.89148
3.76493
3.63637
3.50704
3.37801
3.25008
3.12365
2.99871
2.87482
2.75108
2.62625
2.49884
2.36736
2.23055
2.08761
1.93856
1.78434
1.62696
1.46929
1.31479
1.16709
1.02936
0.904019
0.792435
0.695017
0.611397
0.540671
0.481631
0.432946
0.393282
0.361368
0.336036
0.316235
0.301037
0.289642
0.281366
0.27564
0.271969
0.269835
0.268967
0.26921
0.270467
0.273096
0.27705
0.282318
0.288908
0.296831
0.306069
0.316547
0.328095
0.340431
0.353161
0.365808
0.37787
0.388899
0.398586
0.406842
0.413891
0.420373
0.427493
0.437215
0.452456
0.477147
0.515924
0.573153
0.651282
0.748886
0.860128
0.975512
0.720295
0.68674
0.676491
0.661236
0.643871
0.627104
0.611763
0.598102
0.586196
0.576013
0.567479
0.560517
0.555052
0.551005
0.548285
0.546794
0.546437
0.547128
0.548787
0.55134
0.554714
0.558843
0.563665
0.569121
0.575159
0.581728
0.588791
0.596321
0.604293
0.612687
0.621487
0.630679
0.640253
0.650199
0.660506
0.671164
0.682157
0.693466
0.705005
0.716606
0.728143
0.739474
0.750439
0.76085
0.770487
0.779101
0.786412
0.79212
0.795917
0.797502
0.796606
0.793035
0.786725
0.777824
0.766787
0.754465
0.742209
0.732
0.726476
0.728813
0.742414
0.770271
0.818197
0.88279
0.961805
1.05067
1.14216
1.22747
1.29843
1.34982
1.38128
1.39788
1.4092
1.42701
1.46333
1.52707
1.61937
1.74066
1.88755
2.05477
2.23673
2.42861
2.62457
2.8214
3.01682
3.20908
3.39672
3.57835
3.75248
3.91746
4.07155
4.21316
4.34082
4.45306
4.54841
4.62463
4.68101
4.71587
4.72788
4.7212
4.69821
4.66042
4.60901
4.54487
4.46884
4.38176
4.28465
4.17867
4.06508
3.94527
3.82079
3.69324
3.56412
3.4348
3.30639
3.17968
3.05503
2.93234
2.81097
2.68984
2.5675
2.44227
2.31249
2.17674
2.03421
1.88491
1.72986
1.57123
1.41205
1.25595
1.10672
0.967788
0.841685
0.729896
0.632827
0.550038
0.480517
0.422957
0.375945
0.338081
0.308047
0.284639
0.266775
0.253488
0.243929
0.23736
0.23315
0.230769
0.229764
0.229694
0.230339
0.231588
0.233477
0.236374
0.240267
0.245176
0.251143
0.258217
0.266434
0.275793
0.286228
0.297578
0.309575
0.32185
0.333965
0.345475
0.356005
0.365341
0.373534
0.381011
0.388721
0.398322
0.412368
0.434418
0.468857
0.52013
0.591316
0.682211
0.788345
0.901305
0.782741
0.693014
0.66556
0.646728
0.631522
0.61974
0.610767
0.604181
0.599728
0.597169
0.59626
0.596769
0.59849
0.601234
0.604835
0.609152
0.61407
0.619499
0.625371
0.631634
0.638246
0.645179
0.652407
0.659914
0.667657
0.675616
0.683801
0.692213
0.700859
0.709749
0.718899
0.728328
0.738058
0.748116
0.758531
0.769335
0.780561
0.792245
0.804475
0.817383
0.830584
0.843719
0.856619
0.869111
0.881006
0.892087
0.902106
0.910787
0.917826
0.922906
0.925707
0.925929
0.923334
0.917802
0.909414
0.898557
0.886063
0.873377
0.862687
0.856947
0.859698
0.87468
0.905223
0.956707
1.02123
1.09477
1.1716
1.24442
1.30597
1.35128
1.37957
1.39532
1.40744
1.42641
1.46303
1.52431
1.61157
1.72469
1.86074
2.0152
2.18319
2.36033
2.54231
2.72597
2.90902
3.08969
3.26653
3.43823
3.60345
3.76063
3.90803
4.04353
4.16547
4.27272
4.36394
4.43743
4.4915
4.52358
4.5327
4.5229
4.49569
4.45246
4.39457
4.3233
4.2399
4.14568
4.04212
3.93083
3.81349
3.69177
3.56737
3.44187
3.31663
3.19272
3.07083
2.95119
2.83354
2.71703
2.60039
2.48194
2.35986
2.23239
2.09814
1.95639
1.80733
1.65226
1.49358
1.33461
1.17921
1.03113
0.893809
0.769822
0.660599
0.566452
0.486802
0.420451
0.366009
0.322023
0.287073
0.259844
0.239129
0.223874
0.213135
0.206061
0.20188
0.199905
0.199541
0.20028
0.201689
0.20338
0.20517
0.206994
0.209058
0.211736
0.215073
0.219142
0.224032
0.229839
0.236645
0.244506
0.253426
0.263335
0.27407
0.285365
0.296871
0.308189
0.318939
0.328842
0.337816
0.346099
0.354382
0.36399
0.37707
0.396727
0.426943
0.472028
0.535426
0.61797
0.7166
0.82425
0.869313
0.695701
0.644623
0.620027
0.606692
0.600462
0.599166
0.601737
0.607634
0.616463
0.627849
0.641417
0.656792
0.673608
0.691525
0.710252
0.729539
0.749174
0.768974
0.788786
0.808482
0.827962
0.84714
0.865934
0.884275
0.902142
0.919489
0.93628
0.952493
0.968117
0.983132
0.997556
1.01142
1.02475
1.03757
1.04994
1.06188
1.07343
1.08464
1.09558
1.10679
1.11873
1.13061
1.1419
1.15243
1.16206
1.1706
1.17786
1.1836
1.18753
1.18936
1.18875
1.18535
1.17882
1.16893
1.15554
1.13887
1.11953
1.09887
1.07909
1.0634
1.05586
1.06093
1.08299
1.1301
1.18752
1.24895
1.30824
1.35903
1.39648
1.41929
1.42983
1.43756
1.45155
1.48075
1.53122
1.60487
1.70166
1.8194
1.9545
2.10287
2.26065
2.42429
2.59089
2.75817
2.92425
3.08757
3.24635
3.39898
3.54427
3.6807
3.80652
3.92005
4.01984
4.10441
4.17204
4.22059
4.24626
4.25128
4.23737
4.20588
4.15822
4.09592
4.02065
3.93409
3.83796
3.73406
3.62423
3.51029
3.39397
3.27682
3.16006
3.04449
2.93063
2.81854
2.70779
2.59739
2.48587
2.37146
2.25229
2.12669
1.99348
1.85225
1.70359
1.54917
1.39176
1.23493
1.0827
0.938832
0.806109
0.687202
0.58346
0.494987
0.420951
0.359977
0.31049
0.270963
0.240006
0.21639
0.19903