/*--------------------------------*- C++ -*----------------------------------*\
| =========                 |                                                 |
| \\      /  F ield         | OpenFOAM: The Open Source CFD Toolbox           |
|  \\    /   O peration     | Version:  2112                                  |
|   \\  /    A nd           | Website:  www.openfoam.com                      |
|    \\/     M anipulation  |                                                 |
\*---------------------------------------------------------------------------*/
FoamFile
{
    version     2.0;
    format      ascii;
    arch        "LSB;label=32;scalar=64";
    class       volScalarField;
    location    "0.17";
    object      nut;
}
// * * * * * * * * * * * * * * * * * * * * * * * * * * * * * * * * * * * * * //

dimensions      [0 2 -1 0 0 0 0];

internalField   nonuniform List<scalar> 
12225
(
1.39865e-06
2.3368e-06
3.22111e-06
4.16413e-06
5.25073e-06
6.54534e-06
8.10292e-06
9.97367e-06
1.22109e-05
1.48653e-05
1.79868e-05
2.1622e-05
2.58101e-05
3.058e-05
3.59497e-05
4.19192e-05
4.85108e-05
5.5641e-05
1.17924e-05
6.501e-06
5.26324e-06
4.96806e-06
5.07808e-06
5.43764e-06
5.99119e-06
6.72296e-06
7.63918e-06
8.74438e-06
1.00366e-05
1.15074e-05
1.31426e-05
1.4924e-05
1.68318e-05
1.88624e-05
2.10708e-05
2.36328e-05
7.39043e-05
2.92831e-05
2.18466e-05
2.01691e-05
1.70705e-05
1.41168e-05
1.2271e-05
1.10927e-05
1.03534e-05
9.93216e-06
9.75507e-06
9.77014e-06
9.9388e-06
1.02321e-05
1.06297e-05
1.11239e-05
1.17211e-05
1.24321e-05
9.36525e-05
8.97324e-05
8.28959e-05
7.40107e-05
6.46224e-05
5.0874e-05
4.25499e-05
3.75276e-05
3.43135e-05
3.22477e-05
3.03498e-05
2.78383e-05
2.58223e-05
2.41937e-05
2.28663e-05
2.17732e-05
2.08668e-05
2.01273e-05
9.44932e-05
9.41723e-05
9.35663e-05
9.25296e-05
9.09539e-05
8.88155e-05
8.61535e-05
8.30915e-05
7.97578e-05
7.62859e-05
7.2812e-05
6.94531e-05
6.62806e-05
6.33302e-05
6.06054e-05
5.80816e-05
5.57294e-05
5.35466e-05
9.45131e-05
9.43632e-05
9.42053e-05
9.40226e-05
9.37966e-05
9.35102e-05
9.31487e-05
9.27021e-05
9.21645e-05
9.15355e-05
9.08215e-05
9.00344e-05
8.91885e-05
8.82979e-05
8.73739e-05
8.64215e-05
8.54439e-05
8.44522e-05
9.45105e-05
9.4364e-05
9.42244e-05
9.40896e-05
9.39584e-05
9.38292e-05
9.36997e-05
9.35672e-05
9.34298e-05
9.32859e-05
9.31345e-05
9.29751e-05
9.28076e-05
9.26323e-05
9.24498e-05
9.22608e-05
9.20663e-05
9.18679e-05
9.45083e-05
9.43598e-05
9.4219e-05
9.40848e-05
9.39572e-05
9.3836e-05
9.37205e-05
9.361e-05
9.35039e-05
9.3402e-05
9.3304e-05
9.32093e-05
9.31175e-05
9.30284e-05
9.29418e-05
9.28576e-05
9.27758e-05
9.26968e-05
9.45069e-05
9.43568e-05
9.42146e-05
9.40792e-05
9.39505e-05
9.38282e-05
9.37121e-05
9.36015e-05
9.34962e-05
9.33959e-05
9.33004e-05
9.32094e-05
9.31225e-05
9.30395e-05
9.29602e-05
9.28845e-05
9.28124e-05
9.27436e-05
9.45058e-05
9.43546e-05
9.42112e-05
9.40748e-05
9.3945e-05
9.38217e-05
9.37045e-05
9.35929e-05
9.34866e-05
9.33854e-05
9.3289e-05
9.31971e-05
9.31095e-05
9.3026e-05
9.29462e-05
9.28702e-05
9.27977e-05
9.27287e-05
9.45046e-05
9.43522e-05
9.42076e-05
9.40701e-05
9.39393e-05
9.38149e-05
9.36965e-05
9.35839e-05
9.34766e-05
9.33743e-05
9.32769e-05
9.31841e-05
9.30955e-05
9.3011e-05
9.29303e-05
9.28534e-05
9.278e-05
9.27101e-05
9.4503e-05
9.4349e-05
9.42028e-05
9.40639e-05
9.39317e-05
9.38059e-05
9.36863e-05
9.35724e-05
9.34639e-05
9.33606e-05
9.3262e-05
9.31681e-05
9.30785e-05
9.29929e-05
9.29113e-05
9.28334e-05
9.27591e-05
9.26882e-05
9.45012e-05
9.43454e-05
9.41974e-05
9.40567e-05
9.3923e-05
9.37957e-05
9.36746e-05
9.35593e-05
9.34495e-05
9.33448e-05
9.3245e-05
9.31498e-05
9.3059e-05
9.29723e-05
9.28896e-05
9.28107e-05
9.27353e-05
9.26634e-05
9.44994e-05
9.43418e-05
9.4192e-05
9.40496e-05
9.39142e-05
9.37853e-05
9.36627e-05
9.35459e-05
9.34347e-05
9.33286e-05
9.32275e-05
9.3131e-05
9.3039e-05
9.29511e-05
9.28672e-05
9.27871e-05
9.27107e-05
9.26376e-05
9.44979e-05
9.43389e-05
9.41876e-05
9.40438e-05
9.3907e-05
9.37768e-05
9.36528e-05
9.35347e-05
9.34222e-05
9.33149e-05
9.32126e-05
9.31149e-05
9.30218e-05
9.29328e-05
9.28478e-05
9.27667e-05
9.26892e-05
9.26151e-05
9.44969e-05
9.43368e-05
9.41845e-05
9.40396e-05
9.39017e-05
9.37704e-05
9.36454e-05
9.35263e-05
9.34127e-05
9.33045e-05
9.32012e-05
9.31026e-05
9.30084e-05
9.29185e-05
9.28326e-05
9.27506e-05
9.26722e-05
9.25972e-05
9.44963e-05
9.43355e-05
9.41825e-05
9.40368e-05
9.38981e-05
9.37661e-05
9.36403e-05
9.35204e-05
9.3406e-05
9.3297e-05
9.31929e-05
9.30935e-05
9.29986e-05
9.2908e-05
9.28213e-05
9.27385e-05
9.26593e-05
9.25836e-05
9.44959e-05
9.43348e-05
9.41813e-05
9.40351e-05
9.38959e-05
9.37633e-05
9.3637e-05
9.35165e-05
9.34016e-05
9.32919e-05
9.31872e-05
9.30873e-05
9.29917e-05
9.29005e-05
9.28132e-05
9.27297e-05
9.26499e-05
9.25736e-05
9.4496e-05
9.43349e-05
9.41815e-05
9.40353e-05
9.3896e-05
9.37633e-05
9.36367e-05
9.3516e-05
9.34009e-05
9.32909e-05
9.3186e-05
9.30857e-05
9.29898e-05
9.28982e-05
9.28106e-05
9.27268e-05
9.26466e-05
9.25698e-05
9.44966e-05
9.43361e-05
9.41831e-05
9.40374e-05
9.38986e-05
9.37662e-05
9.36399e-05
9.35195e-05
9.34045e-05
9.32948e-05
9.31899e-05
9.30898e-05
9.2994e-05
9.29025e-05
9.28149e-05
9.27311e-05
9.26509e-05
9.25741e-05
9.44977e-05
9.43383e-05
9.41864e-05
9.40416e-05
9.39037e-05
9.37721e-05
9.36466e-05
9.35268e-05
9.34125e-05
9.33033e-05
9.31991e-05
9.30995e-05
9.30042e-05
9.29132e-05
9.28261e-05
9.27427e-05
9.2663e-05
9.25866e-05
9.44998e-05
9.43424e-05
9.41925e-05
9.40496e-05
9.39133e-05
9.37833e-05
9.36593e-05
9.35409e-05
9.34279e-05
9.33201e-05
9.3217e-05
9.31186e-05
9.30245e-05
9.29346e-05
9.28486e-05
9.27663e-05
9.26876e-05
9.26122e-05
9.45028e-05
9.43483e-05
9.42011e-05
9.40607e-05
9.39267e-05
9.37989e-05
9.36769e-05
9.35604e-05
9.34492e-05
9.3343e-05
9.32415e-05
9.31445e-05
9.30519e-05
9.29633e-05
9.28786e-05
9.27976e-05
9.272e-05
9.26458e-05
9.45045e-05
9.43517e-05
9.4206e-05
9.40669e-05
9.39341e-05
9.38074e-05
9.36864e-05
9.35709e-05
9.34605e-05
9.33549e-05
9.3254e-05
9.31574e-05
9.30648e-05
9.29761e-05
9.28908e-05
9.28089e-05
9.273e-05
9.26541e-05
9.45055e-05
9.43535e-05
9.42085e-05
9.40697e-05
9.39361e-05
9.38074e-05
9.36828e-05
9.35613e-05
9.34423e-05
9.33246e-05
9.32076e-05
9.30902e-05
9.29715e-05
9.28509e-05
9.27275e-05
9.26009e-05
9.24706e-05
9.23368e-05
9.45064e-05
9.43507e-05
9.41925e-05
9.40237e-05
9.38346e-05
9.36155e-05
9.33578e-05
9.30535e-05
9.26954e-05
9.22768e-05
9.17927e-05
9.12405e-05
9.06192e-05
8.99274e-05
8.91661e-05
8.83423e-05
8.74662e-05
8.65497e-05
9.44486e-05
9.39886e-05
9.31656e-05
9.18488e-05
8.99826e-05
8.75902e-05
8.475e-05
8.15746e-05
7.81603e-05
7.45983e-05
7.09816e-05
6.73974e-05
6.39146e-05
6.05703e-05
5.73965e-05
5.44309e-05
5.16992e-05
4.92133e-05
9.00817e-05
6.85312e-05
4.65477e-05
3.83802e-05
3.40678e-05
3.17722e-05
3.08837e-05
2.76678e-05
2.44595e-05
2.19321e-05
1.99263e-05
1.83314e-05
1.70668e-05
1.60722e-05
1.53005e-05
1.47132e-05
1.42794e-05
1.3974e-05
2.47447e-05
1.25014e-05
8.83575e-06
7.29595e-06
6.5743e-06
6.25943e-06
6.18399e-06
6.27038e-06
6.48238e-06
6.80207e-06
7.21878e-06
7.72525e-06
8.31609e-06
8.98685e-06
9.73332e-06
1.05511e-05
1.14359e-05
1.23846e-05
1.35535e-06
2.14605e-06
2.85537e-06
3.54616e-06
4.2623e-06
5.03528e-06
5.88731e-06
6.83376e-06
7.88699e-06
9.05734e-06
1.03538e-05
1.17848e-05
1.33582e-05
1.5081e-05
1.69593e-05
1.89842e-05
2.1166e-05
2.35146e-05
0.000364108
0.000367768
0.000377015
0.000389601
0.00040422
0.00040787
0.000368228
0.000336537
0.000313841
0.000296915
0.000283979
0.000274049
0.000266488
0.000260868
0.000256891
0.00025434
0.00025305
0.000252894
0.00025377
0.000255602
0.000258327
0.0002619
0.000266282
0.000271445
0.000277374
0.000284095
0.000291657
0.000300125
0.000309572
0.000319686
0.000330336
0.000341563
0.000353367
0.000365739
0.000378672
0.000392155
0.000406164
0.000420652
0.000435602
0.000451317
0.000466272
0.000474195
0.000481647
0.000488706
0.000495453
0.000501969
0.000508328
0.000514592
0.000520802
0.000526979
0.000533123
0.000539219
0.00054526
0.000551254
0.000557248
0.000563314
0.000569537
0.000575972
0.000582612
0.000589387
0.000596186
0.000602902
0.000609494
0.000616078
0.000622957
0.000627835
0.000632287
0.000647684
0.000658909
0.000659945
0.000652467
0.000642278
0.000643542
0.000668329
0.000718503
0.000777053
0.000834943
0.000889948
0.000940422
0.000985077
0.00102296
0.00105343
0.00107618
0.0010912
0.00109869
0.00109911
0.00109301
0.00108108
0.00106395
0.0010422
0.00100322
0.000967014
0.000933575
0.000902209
0.000872639
0.000844625
0.000817966
0.000792494
0.000768069
0.000744576
0.00072192
0.000700019
0.000678815
0.000658264
0.000638284
0.000618779
0.000599642
0.000581189
0.000563648
0.000546924
0.000530952
0.000515678
0.000501053
0.000487035
0.00047359
0.000460685
0.000448298
0.000436412
0.000425013
0.000414106
0.000403723
0.000393935
0.00038484
0.000376543
0.000369132
0.000362792
0.00035799
0.00035536
0.000355856
0.000360993
0.000373309
0.000397327
0.000441888
0.000526086
0.000684084
0.000776788
0.000773524
0.000731588
0.000593175
0.000521497
0.000487699
0.000475963
0.000479046
0.000493189
0.000516427
0.000547749
0.000586496
0.00063224
0.000684718
0.000743709
0.000808821
0.000878287
0.0009476
0.0010151
0.00108006
0.00114129
0.00119763
0.00124799
0.00129132
0.00132674
0.00135354
0.00137118
0.00137916
0.00137697
0.00136413
0.00134033
0.00130561
0.00126055
0.00120635
0.00114471
0.00107764
0.00100714
0.000934993
0.000862861
0.000792504
0.00072603
0.000665608
0.000613971
0.000571485
0.000546553
0.00037523
0.000375929
0.000383582
0.000394822
0.000407784
0.000421089
0.000433769
0.000445407
0.000455805
0.00046488
0.000472621
0.000479073
0.000484312
0.000488435
0.000491545
0.000493744
0.000495133
0.000495807
0.000495853
0.000495354
0.000494385
0.000492997
0.000491083
0.000487722
0.000480988
0.000469878
0.000455103
0.000438059
0.00042007
0.000402387
0.000386507
0.000373275
0.000362946
0.000355543
0.000350963
0.00034904
0.000349546
0.000352186
0.000356581
0.000362291
0.000368845
0.000375774
0.000382897
0.000390122
0.000397394
0.00040467
0.000411918
0.000419111
0.000426224
0.000433233
0.000440109
0.000446826
0.000453369
0.000459737
0.000465958
0.000472085
0.000478198
0.000484388
0.000490761
0.000497457
0.000504691
0.000512796
0.000522258
0.000533436
0.00054657
0.000561866
0.000578871
0.000596175
0.000611177
0.000620347
0.000622955
0.000624263
0.000634717
0.000664016
0.000704693
0.000742722
0.000775067
0.000800621
0.000818592
0.000828428
0.000829837
0.000822803
0.000807592
0.00078475
0.000755086
0.000719638
0.000679622
0.000636398
0.000592552
0.000552366
0.000517462
0.000487507
0.000461513
0.000438719
0.000418642
0.000400949
0.000385467
0.000372102
0.000360815
0.000351615
0.000344564
0.000339772
0.000337397
0.000337651
0.000340827
0.000346847
0.000355467
0.000365866
0.000377407
0.000390182
0.000404307
0.000419926
0.000437208
0.00045636
0.000477623
0.00050129
0.0005277
0.000557241
0.000590324
0.000627311
0.000668286
0.000712558
0.000757516
0.000796474
0.000818222
0.000823292
0.00082563
0.000826661
0.000826235
0.000824211
0.000820434
0.000814984
0.000808034
0.000800375
0.000792693
0.000786986
0.00078544
0.000784541
0.000782617
0.000780653
0.000779354
0.000778173
0.000769056
0.000722096
0.000654469
0.000593027
0.000544028
0.000507409
0.000482106
0.000467465
0.000463236
0.000469356
0.000490522
0.00052526
0.000570965
0.000626673
0.000692701
0.000769725
0.000857472
0.000953396
0.00105218
0.00114653
0.00122886
0.00129291
0.00133497
0.0013541
0.00135135
0.0013289
0.00128954
0.00123645
0.00117299
0.00110257
0.00102886
0.000956381
0.000890444
0.000835421
0.000793557
0.000767557
0.000762812
0.000786377
0.000397492
0.000396391
0.0004061
0.000420798
0.000437022
0.000452706
0.000466747
0.000478789
0.000488894
0.00049729
0.000504245
0.00051001
0.000514804
0.000518811
0.000522177
0.000525017
0.000527419
0.000529446
0.00053114
0.000532527
0.000533615
0.000534398
0.000534847
0.000534857
0.000534216
0.000532684
0.00053008
0.000526304
0.000521324
0.000515164
0.000507262
0.000497581
0.000486317
0.000473846
0.000460683
0.000447403
0.000434572
0.000422671
0.000412058
0.000402948
0.000395428
0.00038947
0.000384987
0.000381861
0.000379956
0.000379123
0.000379214
0.000380082
0.000381584
0.000383584
0.000385952
0.000388573
0.000391344
0.000394181
0.000397022
0.000399821
0.000402554
0.000405219
0.00040787
0.000410693
0.000414141
0.00041913
0.000427238
0.000440634
0.000461455
0.000490417
0.000525238
0.000560607
0.000590068
0.000608786
0.00061709
0.000622503
0.000638816
0.000666784
0.000693917
0.000714849
0.000728233
0.000733717
0.000731388
0.000721732
0.000705635
0.000684345
0.0006594
0.000632534
0.000605549
0.000580193
0.000558209
0.000541462
0.000531375
0.000528619
0.000532827
0.000543006
0.000557874
0.00057617
0.000597358
0.000621348
0.000647513
0.000675105
0.000703364
0.000731543
0.000758917
0.000784804
0.000808594
0.000829795
0.000846749
0.000861243
0.000874937
0.000887825
0.000899896
0.000911162
0.000921636
0.000931333
0.000940254
0.000948382
0.000955682
0.000962103
0.000967571
0.000971989
0.000975226
0.000977177
0.000977555
0.000975976
0.000971998
0.000965225
0.000955573
0.000943726
0.000930398
0.000912694
0.000876312
0.000840413
0.000804806
0.000769458
0.000733591
0.000698702
0.00066554
0.000643747
0.000629924
0.000622953
0.000621868
0.00062494
0.000632813
0.000645729
0.000662821
0.000683642
0.000707672
0.000717717
0.000705321
0.000691498
0.000676589
0.000657523
0.000628809
0.000594592
0.00056023
0.000532982
0.000517154
0.000514342
0.000525023
0.000549166
0.000586788
0.000638202
0.000703339
0.000779866
0.00086137
0.000939093
0.00100558
0.00105582
0.00108704
0.00109852
0.00109131
0.00106787
0.00103172
0.00098714
0.000938916
0.000891991
0.000850914
0.000819398
0.000800614
0.000798076
0.00081595
0.000857586
0.00038985
0.000411991
0.000428717
0.000449531
0.000469438
0.000486127
0.000499099
0.000508841
0.000516162
0.000521823
0.000526421
0.000530382
0.000533996
0.000537451
0.000540865
0.000544296
0.000547765
0.00055126
0.000554745
0.000558165
0.000561447
0.000564507
0.000567253
0.000569584
0.000571401
0.000572614
0.000573153
0.000572966
0.00057202
0.000570286
0.000567656
0.000563936
0.000559021
0.000552745
0.000544986
0.000535693
0.000524921
0.000512844
0.000499751
0.000486011
0.000472038
0.000458239
0.000444977
0.000432549
0.000421169
0.000410969
0.00040201
0.000394288
0.000387753
0.000382317
0.00037787
0.000374287
0.000371446
0.000369224
0.000367508
0.000366189
0.000365171
0.000364386
0.000363843
0.000363742
0.000364692
0.000368054
0.00037633
0.00039318
0.00042215
0.000463628
0.000512054
0.000557465
0.000591203
0.000610121
0.000617243
0.000626166
0.000645542
0.000666404
0.000682583
0.000691812
0.000693855
0.00068935
0.000679546
0.000666224
0.000651583
0.000638077
0.000628219
0.000624346
0.000628386
0.000641653
0.000664717
0.000697343
0.000738309
0.000785474
0.000836116
0.000887478
0.000937204
0.000983593
0.00102579
0.00106349
0.00109651
0.0011249
0.00114891
0.00116889
0.00118523
0.00119836
0.00120865
0.00121559
0.0012203
0.00122349
0.00122527
0.00122571
0.00122482
0.00122263
0.00121918
0.00121454
0.00120879
0.0012019
0.00119384
0.00118456
0.00117398
0.00116199
0.00113706
0.00110336
0.00106993
0.00103672
0.001004
0.000971808
0.000940067
0.000908521
0.000876779
0.000844548
0.000811817
0.00077878
0.00074439
0.00071035
0.000675627
0.000643497
0.000617265
0.00059753
0.000582977
0.000572382
0.00056493
0.000561001
0.000561515
0.000566762
0.000576788
0.000591949
0.00061147
0.000634177
0.00065958
0.000686435
0.000695579
0.000692636
0.000688016
0.00068148
0.000672165
0.000657946
0.000640316
0.00062192
0.000605082
0.000593126
0.000589784
0.00059746
0.000617269
0.000648914
0.000690089
0.000736498
0.000783186
0.00082551
0.000859428
0.000881987
0.000891736
0.000888926
0.000875502
0.000854915
0.000831716
0.000810836
0.000796661
0.000792349
0.000800019
0.000821565
0.000859197
0.000913413
0.000348539
0.000425382
0.000454041
0.000481579
0.000502406
0.000515909
0.000524
0.000528935
0.000532385
0.000535368
0.00053844
0.000541887
0.000545846
0.00055036
0.000555412
0.000560939
0.000566845
0.000573013
0.000579315
0.000585606
0.000591733
0.000597533
0.000602838
0.000607484
0.000611325
0.000614247
0.000616186
0.000617129
0.000617092
0.000616101
0.000614157
0.000611122
0.000607135
0.000602168
0.000596182
0.000589123
0.000580925
0.000571535
0.000560926
0.00054913
0.000536244
0.000522444
0.000507973
0.000493121
0.000478195
0.000463491
0.000449269
0.000435747
0.000423086
0.000411396
0.00040073
0.000391104
0.000382506
0.000374909
0.000368271
0.000362541
0.000357672
0.00035365
0.000350563
0.000348769
0.000349195
0.000353768
0.000365743
0.000389127
0.000426076
0.000473277
0.000521568
0.000561429
0.000590538
0.000610066
0.000621508
0.000634865
0.000651812
0.000666051
0.000674612
0.000677057
0.000674475
0.000668895
0.000663031
0.000660049
0.000663276
0.00067581
0.000700071
0.000737313
0.000787265
0.000848026
0.000916342
0.000988181
0.00105946
0.00112673
0.00118768
0.00124114
0.00128694
0.00132551
0.0013576
0.00138403
0.00140556
0.00142291
0.00143668
0.00144738
0.00145542
0.00146111
0.00146435
0.00146489
0.00146349
0.00146026
0.00145535
0.00144876
0.00144049
0.00143051
0.00141873
0.00138597
0.00135198
0.00131751
0.00128265
0.00124763
0.00121267
0.00117798
0.00114378
0.00111023
0.00107719
0.00104456
0.00101232
0.000980237
0.000947755
0.000914616
0.000881241
0.000847045
0.000810935
0.000775104
0.000736743
0.00069882
0.000663391
0.000630591
0.000601961
0.000578228
0.000559296
0.000544773
0.000534208
0.000527595
0.000525287
0.00052747
0.000534081
0.000544711
0.000558652
0.000575903
0.000596115
0.00061858
0.000642956
0.000668026
0.000669782
0.0006688
0.000667491
0.00066511
0.000660987
0.000654759
0.000646338
0.000636573
0.00062748
0.000621588
0.00062123
0.000627912
0.000641837
0.000661723
0.000685236
0.00070952
0.000731621
0.000748935
0.00075966
0.000763185
0.000760356
0.000753564
0.000746536
0.000743698
0.000749148
0.000765628
0.000794259
0.000835169
0.000888426
0.000952284
0.000319127
0.000444391
0.000485215
0.000515284
0.000531303
0.000537653
0.000539605
0.000540458
0.000541728
0.000543977
0.00054736
0.000551885
0.000557494
0.00056409
0.00057153
0.000579636
0.000588204
0.000597032
0.000605917
0.000614656
0.000623036
0.000630832
0.00063781
0.000643742
0.000648421
0.000651694
0.000653503
0.000653896
0.000653015
0.000651035
0.000648102
0.0006442
0.000639328
0.000633612
0.000627149
0.000619999
0.000612181
0.00060368
0.000594453
0.000584432
0.000573557
0.0005618
0.00054919
0.000535819
0.000521833
0.000507415
0.000492761
0.000478053
0.000463453
0.000449158
0.000435336
0.000422127
0.000409652
0.000398021
0.000387341
0.000377723
0.000369306
0.000362288
0.000357022
0.000354222
0.000355323
0.000362818
0.000379961
0.000408767
0.000446898
0.00048906
0.00053197
0.000569464
0.000598623
0.000618561
0.000630927
0.00064492
0.000657882
0.00066667
0.000670653
0.000671143
0.000670785
0.000673097
0.000682079
0.000701715
0.000735333
0.000784864
0.00085016
0.000928711
0.00101602
0.00110661
0.00119524
0.00127784
0.00135192
0.00141655
0.00147185
0.00151862
0.00155788
0.00159064
0.00161782
0.00164018
0.00165832
0.00167272
0.00168377
0.00169176
0.00169697
0.00169964
0.00169858
0.00169492
0.00168876
0.00166806
0.00163849
0.00160739
0.00157474
0.00154094
0.00150635
0.0014712
0.00143556
0.00139951
0.00136321
0.00132688
0.00129061
0.00125439
0.00121852
0.00118276
0.00114699
0.0011108
0.00107406
0.00103711
0.000999167
0.000959151
0.0009189
0.000877746
0.00083219
0.000788339
0.000744817
0.000702006
0.000661017
0.000622943
0.000589215
0.000560856
0.000538047
0.000520516
0.000507843
0.000499772
0.000496272
0.000497294
0.000502631
0.000511866
0.000524488
0.000539921
0.000557467
0.000576605
0.000597557
0.000619945
0.000642178
0.000641878
0.000641759
0.000641672
0.000641372
0.000640546
0.000638839
0.00063602
0.000632236
0.000628178
0.000625033
0.000624198
0.000626812
0.000633284
0.000643094
0.00065494
0.00066706
0.000677644
0.000685278
0.000689338
0.000690328
0.000690064
0.000691641
0.00069898
0.00071592
0.000745073
0.000787165
0.000841237
0.000905701
0.000977143
0.000299068
0.000471113
0.000519918
0.000545732
0.000553179
0.000552663
0.000550759
0.000550005
0.00055101
0.000553763
0.000558131
0.000563974
0.000571147
0.000579477
0.000588729
0.000598629
0.000608884
0.000619234
0.000629442
0.00063927
0.000648464
0.000656746
0.000663818
0.000669375
0.000673131
0.000674868
0.00067452
0.000672237
0.000668351
0.00065874
0.00064753
0.000637126
0.00062619
0.000615034
0.00060385
0.000592823
0.000582104
0.000571803
0.000562017
0.000552839
0.000544353
0.000536624
0.000529699
0.000523605
0.000518394
0.000514326
0.00051193
0.000508511
0.000495533
0.000482041
0.000468304
0.000454515
0.000440827
0.000427389
0.000414438
0.000402294
0.000391357
0.000382166
0.000375489
0.000372511
0.000375082
0.000385545
0.000405367
0.000433396
0.000469629
0.000510712
0.000550946
0.000585745
0.000612763
0.000628876
0.000641277
0.000652924
0.000661847
0.000667335
0.000670663
0.000674769
0.000683715
0.000702113
0.000734418
0.000784042
0.000852356
0.000937946
0.00103656
0.00114201
0.00124778
0.00134845
0.00144055
0.0015225
0.00159419
0.00165632
0.00170994
0.00175608
0.00179566
0.00182939
0.00185783
0.00188141
0.00190047
0.00191529
0.00192609
0.00193305
0.00193646
0.00192433
0.00189923
0.00187268
0.0018445
0.00181491
0.001784
0.00175171
0.00171807
0.00168319
0.0016473
0.00161046
0.00157247
0.00153334
0.00149318
0.00145226
0.00141061
0.00136802
0.0013244
0.00128018
0.00123588
0.00119074
0.00114396
0.00109733
0.00105043
0.00100038
0.00094981
0.000899978
0.00084925
0.000798387
0.000747996
0.000698923
0.00065248
0.000610077
0.000572974
0.000541922
0.000517009
0.000497902
0.000484123
0.000475277
0.000471118
0.00047144
0.000475976
0.000484364
0.000496171
0.000510869
0.000527845
0.000546602
0.00056661
0.000587522
0.000608798
0.000610675
0.000610646
0.000611145
0.000612074
0.00061323
0.000614342
0.000615109
0.000615292
0.00061483
0.000613953
0.000613203
0.000613317
0.000614964
0.000618451
0.000623559
0.000629575
0.00063552
0.000640502
0.000644108
0.000646764
0.000649994
0.000656472
0.000669719
0.000693325
0.000729831
0.000779874
0.000842039
0.000913819
0.000990866
0.000287269
0.000504109
0.000552282
0.000569409
0.000569674
0.000565567
0.000562347
0.000561284
0.000562374
0.000565395
0.000570153
0.000576477
0.000584188
0.000593072
0.000602853
0.000613166
0.000623632
0.000633979
0.000643947
0.000653289
0.000661724
0.000668946
0.000674628
0.000678453
0.000680145
0.000679533
0.000676616
0.000666141
0.000646937
0.000629451
0.000613022
0.000596929
0.00058111
0.000565678
0.000551097
0.000537572
0.000525211
0.000513948
0.000503681
0.000494349
0.000485953
0.000478509
0.000472089
0.000466693
0.000462276
0.000458877
0.00045641
0.000454558
0.000453142
0.000452543
0.000453088
0.000455063
0.000458169
0.000457841
0.000444551
0.000431435
0.000419192
0.000408723
0.000401248
0.000398218
0.000401221
0.000411538
0.000429836
0.000458266
0.000494354
0.000533537
0.000570933
0.000603271
0.000624203
0.000637695
0.000648477
0.000657247
0.000663718
0.000669021
0.000676047
0.00068907
0.000713084
0.000752933
0.000812233
0.0008922
0.000990829
0.00110297
0.00122157
0.00133955
0.00145148
0.00155418
0.00164651
0.00172867
0.00180152
0.00186604
0.00192313
0.00197345
0.00201749
0.00205557
0.00208791
0.00211468
0.00213601
0.002152
0.00216275
0.00215503
0.00213272
0.00210885
0.00208373
0.0020571
0.00202882
0.00199908
0.00196731
0.00193338
0.00189698
0.00185792
0.00181621
0.00177199
0.00172547
0.00167681
0.00162628
0.00157443
0.00152186
0.00146842
0.00141376
0.00135794
0.00130332
0.00124871
0.0011918
0.00113487
0.00107934
0.00102313
0.000966366
0.00090916
0.000851737
0.000794533
0.000738603
0.000685202
0.000635715
0.000591367
0.00055306
0.000521225
0.000495787
0.000476336
0.00046234
0.000453314
0.000448891
0.00044877
0.000452656
0.000460218
0.000471093
0.00048488
0.000501129
0.000519392
0.000539271
0.000560275
0.000576669
0.000575452
0.000575172
0.0005758
0.000577321
0.000579576
0.000582328
0.000585278
0.000588107
0.000590537
0.000592405
0.000593738
0.000594768
0.000595875
0.000597437
0.000599665
0.000602507
0.000605679
0.000608856
0.000611968
0.000615534
0.000620957
0.00063064
0.00064778
0.000675694
0.000716769
0.000771562
0.000838494
0.000914687
0.000995502
0.000287063
0.000540056
0.000580395
0.000589139
0.000585026
0.000579167
0.00057513
0.000573431
0.00057387
0.000576214
0.000580276
0.00058588
0.000592826
0.00060088
0.000609755
0.000619112
0.000628571
0.000637736
0.000646345
0.000654209
0.000661096
0.000666764
0.000670983
0.00067356
0.000674358
0.000673308
0.000670416
0.000665749
0.00064759
0.000626505
0.0006066
0.000586875
0.000567297
0.000548101
0.000529648
0.000512233
0.000496001
0.000481035
0.000467304
0.000454937
0.000443882
0.000434191
0.000425772
0.000418566
0.00041253
0.000407589
0.000403578
0.0004003
0.000397899
0.000396516
0.000396299
0.000397178
0.000399312
0.000402893
0.00040934
0.000420959
0.000438334
0.000437369
0.000428084
0.00042313
0.000424172
0.000433431
0.000453146
0.000482096
0.000517229
0.000554431
0.000589438
0.000614817
0.000631275
0.00064275
0.000651521
0.000658507
0.000664864
0.000673219
0.000687721
0.000713483
0.000755674
0.00081834
0.000903098
0.00100816
0.00112834
0.00125625
0.00138443
0.00150711
0.00162098
0.00172491
0.00181913
0.00190446
0.0019818
0.00205187
0.00211512
0.00217177
0.00222191
0.00226553
0.00230256
0.00233297
0.00235671
0.00237377
0.00237634
0.00235515
0.00233329
0.00231042
0.00228551
0.00225815
0.00222769
0.00219364
0.00215578
0.00211401
0.00206818
0.00201836
0.00196488
0.0019084
0.00184941
0.00178816
0.00172492
0.00166008
0.00159557
0.00153162
0.0014673
0.00140102
0.00133714
0.00127472
0.00121234
0.00115003
0.00108766
0.001025
0.000961997
0.000898993
0.000836517
0.000775418
0.000716876
0.000662144
0.000612396
0.000568528
0.000531062
0.000500124
0.000475474
0.000456636
0.00044305
0.000434196
0.000429654
0.00042908
0.000432172
0.000438632
0.000448166
0.00046048
0.000475259
0.000492169
0.000511018
0.000531305
0.00053784
0.000536264
0.00053581
0.00053652
0.000538436
0.000541444
0.000545352
0.000549892
0.000554738
0.000559535
0.00056396
0.000567775
0.000570888
0.000573365
0.000575398
0.000577221
0.000579033
0.000580961
0.000583131
0.000585846
0.000589845
0.000596575
0.000608333
0.000628117
0.000659014
0.000703195
0.00076104
0.000830814
0.000909489
0.000992522
0.00030619
0.000578149
0.000605874
0.00060724
0.000600016
0.000592628
0.000587311
0.000584205
0.000583083
0.000583744
0.000586026
0.000589766
0.000594775
0.000600828
0.000607663
0.000614983
0.000622476
0.000629839
0.000636801
0.000643117
0.000648696
0.000653438
0.000657225
0.000659966
0.000661606
0.000662126
0.000661537
0.00065987
0.000657179
0.000653537
0.000649016
0.000643655
0.000624268
0.000604198
0.000583801
0.000562963
0.000542166
0.0005219
0.000502465
0.000484046
0.000466903
0.000451143
0.000436809
0.000423915
0.000412447
0.000402345
0.000393567
0.000386095
0.000379958
0.000375299
0.00037211
0.000370267
0.000369908
0.000371659
0.000376646
0.00038674
0.000406378
0.000438618
0.000447005
0.000441146
0.000443149
0.00045457
0.000475368
0.000504117
0.000538836
0.000572145
0.000600073
0.00062015
0.00063394
0.000643741
0.000651307
0.00065819
0.000666746
0.000680731
0.000705082
0.000745141
0.000805502
0.000888647
0.000993764
0.00111642
0.00124951
0.00138528
0.00151733
0.00164175
0.001757
0.00186313
0.00196087
0.00205107
0.00213436
0.00221105
0.00228118
0.00234462
0.00240111
0.00245033
0.00249198
0.0025258
0.00255156
0.00256911
0.00256877
0.00254879
0.00252649
0.00250162
0.00247268
0.00243922
0.00240084
0.0023573
0.00230852
0.00225458
0.0021957
0.00213222
0.00206466
0.0019943
0.00192255
0.00184964
0.00177573
0.00170022
0.00162574
0.00155385
0.00148292
0.00141278
0.00134374
0.00127539
0.00120739
0.00113945
0.00107162
0.00100397
0.000936792
0.00087067
0.000806294
0.000744581
0.000686637
0.000633515
0.000586044
0.000544716
0.000509694
0.000480847
0.00045781
0.000440076
0.000427099
0.000418371
0.000413468
0.000412051
0.000413835
0.000418573
0.000426056
0.0004361
0.000448517
0.000463129
0.000479898
0.000498138
0.000495794
0.000494288
0.000493973
0.000494945
0.000497269
0.000500868
0.000505609
0.000511288
0.000517626
0.000524278
0.000530869
0.000537039
0.000542504
0.000547099
0.000550798
0.000553705
0.000556016
0.000558001
0.000560027
0.000562666
0.000566883
0.000574253
0.000587104
0.000608391
0.000641115
0.000687326
0.000747219
0.000818827
0.000898912
0.000983072
0.000360126
0.00061446
0.000627627
0.000623091
0.000613493
0.000604458
0.000597354
0.000592197
0.000588803
0.000587024
0.000586732
0.000587793
0.000590056
0.000593336
0.00059742
0.000602073
0.000607065
0.000612189
0.000617264
0.000622137
0.000626692
0.00063082
0.000634528
0.000637768
0.000640497
0.000642697
0.000644361
0.000645496
0.000646115
0.000646246
0.000645925
0.000645189
0.000644063
0.000642547
0.000640614
0.000638197
0.000635258
0.000631767
0.000627679
0.000609272
0.000586664
0.00056526
0.000544603
0.00052492
0.000506417
0.000489164
0.000473116
0.000458325
0.000444914
0.000432972
0.000422636
0.000414172
0.000407933
0.000404758
0.000406228
0.000414443
0.00043245
0.000463883
0.000464655
0.000461007
0.000465377
0.000478391
0.000499084
0.000525328
0.000554314
0.000581539
0.000603985
0.000620829
0.000632956
0.000641927
0.000649497
0.000657877
0.000670311
0.000691269
0.000725987
0.000779504
0.00085536
0.000954267
0.00107333
0.00120644
0.00134596
0.0014848
0.00161802
0.00174321
0.00185992
0.0019687
0.00207038
0.00216561
0.0022547
0.00233763
0.00241414
0.00248379
0.00254606
0.00260036
0.00264614
0.00268285
0.00271001
0.00272723
0.00272965
0.00270726
0.00268075
0.00264978
0.00261264
0.00256895
0.0025189
0.00246278
0.00240081
0.00233344
0.00226136
0.00218526
0.00210557
0.00202309
0.00194157
0.0018604
0.00177982
0.00170018
0.00162209
0.00154556
0.00147019
0.00139581
0.00132218
0.00124926
0.0011769
0.00110514
0.00103427
0.000964563
0.000896455
0.000830548
0.000767547
0.0007083
0.000653719
0.000604533
0.00056116
0.0005237
0.000492011
0.00046577
0.000444538
0.000427819
0.000415114
0.000405968
0.000400002