/*--------------------------------*- C++ -*----------------------------------*\
| =========                 |                                                 |
| \\      /  F ield         | OpenFOAM: The Open Source CFD Toolbox           |
|  \\    /   O peration     | Version:  2112                                  |
|   \\  /    A nd           | Website:  www.openfoam.com                      |
|    \\/     M anipulation  |                                                 |
\*---------------------------------------------------------------------------*/
FoamFile
{
    version     2.0;
    format      ascii;
    arch        "LSB;label=32;scalar=64";
    class       volScalarField;
    location    "0.35";
    object      k;
}
// * * * * * * * * * * * * * * * * * * * * * * * * * * * * * * * * * * * * * //

dimensions      [0 2 -2 0 0 0 0];

internalField   nonuniform List<scalar> 
12225
(
6.44664
9.71009
11.8512
13.4178
14.7803
16.1208
17.5384
19.1127
20.8315
22.6853
24.6538
26.7134
28.8413
31.0192
33.2301
35.4763
37.6968
39.7376
2.14364
2.59316
3.05716
3.51369
3.95544
4.38216
4.79306
5.18574
5.55677
5.90583
6.23576
6.55174
6.85984
7.16461
7.46983
7.78397
8.18448
8.70036
1.89712
1.95565
2.00781
2.04693
2.07936
2.11028
2.14392
2.18425
2.23508
2.30015
2.38238
2.48381
2.60553
2.74768
2.8985
3.05763
3.22491
3.38576
1.88059
1.89208
1.90757
1.92322
1.93569
1.93859
1.93197
1.91831
1.90058
1.8816
1.86388
1.84948
1.8401
1.83699
1.84046
1.85044
1.86575
1.88404
1.87879
1.88402
1.89066
1.89818
1.90599
1.91272
1.91726
1.91899
1.91732
1.91197
1.9041
1.89459
1.88405
1.873
1.86188
1.85103
1.84066
1.83073
1.87799
1.88195
1.88649
1.8914
1.89665
1.90191
1.90673
1.91074
1.91365
1.91525
1.91557
1.91469
1.91269
1.90995
1.90678
1.90337
1.8999
1.89643
1.87729
1.88048
1.88414
1.88806
1.89218
1.89638
1.90045
1.90422
1.90754
1.91032
1.91252
1.91415
1.91526
1.91597
1.91641
1.91668
1.91687
1.91694
1.87672
1.87927
1.88228
1.88555
1.88901
1.89253
1.89598
1.89925
1.90231
1.90514
1.90773
1.91006
1.91214
1.91399
1.91567
1.91722
1.91868
1.92
1.87626
1.8783
1.88078
1.88353
1.88645
1.88944
1.89239
1.89521
1.8979
1.90046
1.90289
1.90524
1.9075
1.90969
1.9118
1.91384
1.91581
1.91766
1.87589
1.8775
1.87954
1.88185
1.88433
1.88688
1.88941
1.89186
1.8942
1.89644
1.89859
1.90069
1.90277
1.90485
1.90691
1.90897
1.911
1.91294
1.87559
1.87683
1.87849
1.88042
1.88252
1.88471
1.8869
1.88903
1.89108
1.89305
1.89495
1.8968
1.89864
1.90047
1.90231
1.90415
1.90597
1.90775
1.87537
1.8763
1.87765
1.87928
1.88109
1.883
1.88492
1.8868
1.88863
1.89039
1.8921
1.89377
1.89541
1.89704
1.89867
1.90028
1.90188
1.90344
1.87518
1.87584
1.87691
1.87828
1.87984
1.88149
1.88318
1.88485
1.88648
1.88806
1.8896
1.8911
1.89258
1.89405
1.8955
1.89693
1.89834
1.89969
1.87501
1.8754
1.87619
1.8773
1.8786
1.88001
1.88147
1.88292
1.88435
1.88575
1.88712
1.88846
1.88978
1.89108
1.89236
1.89362
1.89485
1.89603
1.87481
1.87494
1.87547
1.87632
1.87737
1.87855
1.87978
1.88103
1.88227
1.88348
1.88468
1.88585
1.887
1.88814
1.88925
1.89034
1.8914
1.89242
1.87466
1.87446
1.87477
1.87538
1.8762
1.87715
1.87817
1.87923
1.88028
1.88132
1.88235
1.88335
1.88434
1.8853
1.88624
1.88716
1.88806
1.88892
1.87455
1.87411
1.87425
1.87467
1.87529
1.87605
1.87689
1.87777
1.87866
1.87954
1.8804
1.88125
1.88207
1.88286
1.88363
1.88438
1.88511
1.88581
1.8745
1.87394
1.87396
1.87427
1.87477
1.8754
1.87611
1.87686
1.87763
1.87838
1.87912
1.87983
1.88051
1.88116
1.88178
1.88237
1.88294
1.88348
1.87454
1.87403
1.87406
1.87437
1.87486
1.87547
1.87615
1.87687
1.87759
1.8783
1.87897
1.87961
1.8802
1.88075
1.88126
1.88174
1.88218
1.88259
1.87468
1.8744
1.87458
1.87502
1.87563
1.87636
1.87714
1.87794
1.87873
1.87949
1.8802
1.88086
1.88145
1.882
1.88249
1.88292
1.88331
1.88366
1.87487
1.87496
1.87535
1.87599
1.87679
1.87769
1.87864
1.87959
1.88051
1.88138
1.88219
1.88292
1.88358
1.88417
1.8847
1.88516
1.88556
1.88592
1.87511
1.8755
1.87618
1.87708
1.87813
1.87928
1.88045
1.88161
1.88273
1.88378
1.88474
1.88562
1.8864
1.88709
1.8877
1.88823
1.8887
1.88911
1.87536
1.87613
1.87715
1.87838
1.87975
1.88121
1.88269
1.88414
1.88552
1.88681
1.888
1.88907
1.89003
1.89087
1.8916
1.89224
1.89279
1.89324
1.87571
1.87691
1.87835
1.87999
1.88176
1.88362
1.88549
1.88731
1.88906
1.8907
1.89222
1.8936
1.89482
1.89589
1.89679
1.89754
1.89814
1.89859
1.87619
1.87793
1.87989
1.88201
1.88428
1.8867
1.88919
1.89168
1.89412
1.89642
1.89854
1.90043
1.90205
1.90338
1.90442
1.90514
1.90556
1.90568
1.87681
1.87912
1.88185
1.88499
1.88855
1.89246
1.89654
1.90058
1.90438
1.90766
1.91025
1.91207
1.91307
1.91327
1.91267
1.91105
1.90865
1.90566
1.87769
1.88168
1.88786
1.89579
1.90445
1.91286
1.9201
1.92546
1.92813
1.92666
1.92181
1.91436
1.90501
1.89442
1.8832
1.87179
1.86061
1.85
1.88307
1.90717
1.93879
1.96696
1.98587
1.99783
2.00518
2.01009
2.01436
2.01942
2.02623
2.0356
2.04818
2.06453
2.0852
2.1107
2.14142
2.17762
1.99474
2.2209
2.47624
2.73966
2.99833
3.2483
3.49045
3.7255
3.95418
4.17685
4.39289
4.60138
4.80109
4.99145
5.17269
5.34581
5.51261
5.67438
5.02666
7.50811
9.22342
10.4403
11.3965
12.2362
13.0184
13.7664
14.5337
15.3515
16.2366
17.1967
18.2075
19.26
20.3476
21.4628
22.5966
23.7424
0.804369
0.87999
1.03095
1.24689
1.51879
1.83415
2.13139
2.40393
2.65274
2.88141
3.09498
3.29846
3.49578
3.69031
3.88474
4.08117
4.28113
4.48565
4.69529
4.91033
5.12968
5.32796
5.50293
5.65145
5.77086
5.85899
5.91459
5.90863
5.84548
5.73623
5.59462
5.43529
5.27257
5.11927
4.98568
4.87893
4.8025
4.75571
4.73309
4.7239
4.712
4.677
4.59044
4.43943
4.22244
3.95055
3.64356
3.32491
3.01745
2.74089
2.51664
2.35143
2.24136
2.1784
2.15348
2.15798
2.18402
2.22389
2.269
2.3092
2.33313
2.33034
2.29477
2.2277
2.13122
2.01003
1.87278
1.73023
1.59206
1.46442
1.34993
1.25011
1.16916
1.11603
1.10244
1.15354
1.37272
2.03009
3.56491
6.5551
11.5173
17.4526
24.1557
31.2114
38.0666
44.243
49.4013
53.3519
56.0353
57.4813
57.7738
57.1861
56.1018
54.6139
52.7962
50.7034
48.3711
46.1526
44.0333
41.9931
40.0222
38.1145
36.265
34.4691
32.7214
31.0162
29.3478
27.7109
26.101
24.5144
22.9485
21.4025
19.8761
18.3726
16.8986
15.4625
14.0747
12.7477
11.4953
10.3322
9.27474
8.3466
7.56437
7.22068
7.969
9.24888
10.6199
12.1252
13.8098
15.6799
17.7323
19.9544
22.3319
24.8568
27.515
30.2916
33.1722
36.1393
39.17
42.2263
45.1114
47.6751
49.9134
51.8208
53.3837
54.5739
55.3451
55.6306
55.3451
54.3982
52.7199
50.2933
47.1783
43.5184
39.5292
35.4641
31.5673
28.0318
24.9746
22.4317
20.4016
18.9563
18.0721
17.6176
17.501
17.5004
17.2751
16.4678
14.9915
13.2226
11.9426
12.7061
16.1966
20.4096
23.8204
25.2379
24.6504
23.0487
20.7988
18.7367
1.35537
1.41569
1.62752
1.9
2.17693
2.42112
2.61597
2.75933
2.85138
2.9028
2.92386
2.92137
2.89677
2.85547
2.80188
2.73981
2.6725
2.60264
2.53246
2.46372
2.39813
2.35694
2.33778
2.3383
2.35469
2.38199
2.41445
2.4453
2.46863
2.48025
2.47793
2.46134
2.43187
2.39229
2.34629
2.29791
2.25107
2.20908
2.17399
2.1461
2.12358
2.10285
2.08333
2.0571
2.01953
1.96623
1.89389
1.80134
1.6905
1.56664
1.43728
1.31045
1.19319
1.0906
1.00555
0.938854
0.889788
0.856702
0.837634
0.830699
0.834101
0.845498
0.860062
0.868735
0.866653
0.852242
0.826547
0.793007
0.756888
0.724796
0.706179
0.719691
0.811171
1.07981
1.65384
2.63889
4.18777
6.60648
9.82324
13.0057
16.0815
18.6839
20.5912
21.6696
21.8948
21.337
20.132
18.4507
16.4737
14.3728
12.3105
10.4368
8.87218
7.69863
6.96925
6.70249
6.8496
7.01257
7.16348
7.29957
7.41995
7.52502
7.61592
7.69418
7.76192
7.82118
7.87342
7.91952
7.95977
7.99381
8.02066
8.0391
8.04908
8.05164
8.0478
8.03701
8.01794
7.98949
7.95198
7.90705
7.85701
7.81145
7.76895
7.73755
7.70661
7.67027
7.62105
7.56561
7.51205
7.46104
7.41232
7.36107
7.30436
7.24495
7.18958
7.14392
7.11225
7.09821
7.10557
7.14753
7.34641
7.77115
8.3508
9.02614
9.75331
10.492
11.201
11.8351
12.3447
12.6797
12.7975
12.6727
12.3014
11.712
10.9558
10.0918
9.17016
8.22157
7.25934
6.29751
5.37842
4.58152
4.00964
3.75783
3.75978
3.98193
4.45314
5.24231
6.25366
7.39632
8.70721
10.0417
10.6604
10.1697
8.97976
7.54573
6.37395
5.76642
5.83936
6.06261
2.11025
2.15331
2.43321
2.69493
2.88607
3.00356
3.05877
3.0666
3.04042
2.99113
2.92697
2.85378
2.7756
2.69538
2.61525
2.53678
2.46106
2.38892
2.32089
2.25728
2.19815
2.14157
2.08803
2.03864
1.99412
1.95469
1.91982
1.88822
1.85793
1.82671
1.79245
1.75355
1.70916
1.65937
1.60511
1.54803
1.49031
1.43432
1.38238
1.3364
1.29768
1.26643
1.2435
1.22943
1.22202
1.21899
1.21778
1.21541
1.20852
1.1938
1.16878
1.13258
1.08633
1.03308
0.977062
0.922663
0.873324
0.83093
0.795846
0.767608
0.7459
0.731177
0.724409
0.725006
0.730202
0.737501
0.74609
0.75886
0.784913
0.844839
0.982808
1.27359
1.80753
2.67936
3.97763
5.8136
8.1295
10.3425
12.3502
13.8869
14.813
15.0724
14.7199
13.8832
12.7316
11.4449
10.1883
9.09613
8.26127
7.73142
7.5084
7.55327
7.79987
8.17255
8.60268
8.98657
9.32205
9.60368
9.83244
10.0114
10.144
10.2337
10.284
10.2969
10.2825
10.2475
10.1961
10.1313
10.0557
9.97118
9.8792
9.78065
9.67597
9.56579
9.45101
9.3322
9.20915
9.08197
8.9535
8.82478
8.69037
8.56309
8.41279
8.26969
8.1276
7.98573
7.83963
7.69302
7.54921
7.40098
7.25033
7.09776
6.94313
6.78774
6.63449
6.48677
6.34802
6.22191
6.11224
6.02273
5.95661
5.93033
5.95353
6.03228
6.1689
6.36068
6.59794
6.86257
7.12774
7.35961
7.52172
7.58162
7.51824
7.32798
7.02409
6.63076
6.17474
5.67858
5.15941
4.63374
4.1235
3.65671
3.26514
2.988
2.86642
2.95108
3.31055
4.03202
5.15549
6.58655
7.97391
8.58304
7.88402
6.6903
5.63638
5.00774
4.81811
4.90492
5.08584
5.22917
3.4549
3.25424
3.36151
3.39668
3.35583
3.26778
3.15548
3.03327
2.909
2.78707
2.67014
2.55982
2.45703
2.3622
2.27547
2.19678
2.12592
2.06263
2.00669
1.95786
1.91592
1.87945
1.84811
1.82121
1.79784
1.77682
1.75681
1.73627
1.71363
1.68745
1.65652
1.62005
1.57776
1.52994
1.4774
1.42141
1.36351
1.30542
1.24883
1.19524
1.14585
1.10298
1.06726
1.03755
1.01301
0.992951
0.976759
0.963755
0.953051
0.943484
0.933693
0.922324
0.908319
0.891247
0.871535
0.850444
0.829654
0.810632
0.794151
0.780383
0.769711
0.76379
0.765011
0.774302
0.792924
0.822828
0.869397
0.946868
1.08522
1.33489
1.76622
2.45715
3.47008
4.86667
6.67236
8.42989
9.95725
11.1444
11.891
12.1317
11.8846
11.2712
10.4498
9.58155
8.81044
8.24572
7.95056
7.93931
8.18298
8.62304
9.18872
9.81268
10.4401
11.0312
11.5173
11.924
12.2495
12.494
12.6593
12.7673
12.8224
12.8296
12.7938
12.72
12.613
12.4778
12.3187
12.1398
11.9451
11.7378
11.5204
11.2946
11.0616
10.8236
10.5824
10.3396
10.0933
9.84608
9.60523
9.36371
9.12188
8.90335
8.68813
8.47688
8.27193
8.07242
7.87899
7.69447
7.52026
7.35595
7.20035
7.04933
6.893
6.73274
6.56971
6.4058
6.2428
6.08229
5.92578
5.77493
5.63299
5.50543
5.3992
5.31945
5.27262
5.26471
5.29963
5.37729
5.49142
5.62803
5.76542
5.87678
5.93517
5.91941
5.81855
5.63351
5.37528
5.06086
4.70905
4.33794
3.96361
3.60043
3.26447
2.98342
2.81127
2.82939
3.13364
3.82109
4.93439
6.33316
7.48423
7.55963
6.49725
5.47992
4.91217
4.73186
4.7657
4.8682
4.96783
5.01036
5.83944
4.58416
4.12758
3.77768
3.48107
3.22951
3.01435
2.82715
2.66107
2.51161
2.37624
2.25376
2.14364
2.04558
1.95925
1.88425
1.82006
1.76607
1.72161
1.68602
1.65869
1.6395
1.62834
1.62447
1.62674
1.6335
1.64271
1.65192
1.65842
1.65886
1.65066
1.63362
1.608
1.57452
1.53434
1.48885
1.43964
1.38825
1.33612
1.28455
1.23684
1.193
1.1531
1.11704
1.08446
1.0547
1.02691
1.00029
0.974755
0.950144
0.92641
0.903752
0.882699
0.863975
0.848341
0.836563
0.829388
0.827402
0.83084
0.839668
0.854276
0.87599
0.90303
0.937264
0.984353
1.05458
1.16677
1.35477
1.67085
2.1806
2.95123
4.0203
5.39905
7.00855
8.36171
9.3993
10.087
10.3914
10.3275
9.96276
9.40865
8.80358
8.27565
7.92661
7.82029
7.97664
8.37468
8.96427
9.68202
10.4655
11.2611
12.0261
12.727
13.3188
13.8003
14.1908
14.4852
14.7063
14.8628
14.9576
14.9937
14.9745
14.9034
14.7843
14.6216
14.4194
14.1814
13.9124
13.6186
13.3046
12.974
12.6275
12.2696
11.9062
11.5411
11.1737
10.7955
10.4309
10.0828
9.74942
9.42918
9.12242
8.82904
8.55003
8.28659
8.03871
7.80654
7.5907
7.39121
7.20711
7.03726
6.88032
6.73402
6.5883
6.44066
6.29262
6.14516
5.99889
5.85412
5.71106
5.56995
5.431
5.29577
5.1679
5.05191
4.95326
4.87808
4.83232
4.82008
4.84143
4.8904
4.95401
5.01322
5.04608
5.03221
4.95753
4.81742
4.61704
4.36909
4.09002
3.79654
3.50418
3.22964
2.99767
2.85213
2.86725
3.14788
3.80328
4.87566
6.17834
7.10067
6.90772
5.88135
5.12499
4.85327
4.80981
4.8414
4.87349
4.89648
4.86524
9.13825
5.71111
4.46304
3.77188
3.33441
3.03021
2.79739
2.60383
2.43326
2.27849
2.13703
2.00853
1.89338
1.79212
1.70514
1.6326
1.57431
1.5297
1.49784
1.47753
1.46744
1.4681
1.47947
1.50056
1.53006
1.56612
1.60499
1.63978
1.6688
1.69006
1.70181
1.70307
1.69354
1.67358
1.6441
1.60652
1.56251
1.51381
1.4624
1.41256
1.37226
1.33963
1.31502
1.29703
1.28322
1.27081
1.25732
1.24084
1.22025
1.19511
1.16541
1.13133
1.09481
1.05967
1.029
1.0054
0.99119
0.988399
0.998562
1.02266
1.06157
1.10992
1.16273
1.225
1.30983
1.43972
1.65009
1.99204
2.5274
3.30613
4.35146
5.64831
7.05189
8.12012
8.83587
9.21449
9.28114
9.09168
8.72865
8.29232
7.88799
7.61168
7.53316
7.68898
8.07965
8.67439
9.42246
10.2661
11.1497
12.0245
12.8489
13.588
14.2148
14.7165
15.1408
15.4886
15.7571
15.9641
16.1172
16.2177
16.266
16.2618
16.2047
16.0954
15.936
15.727
15.4666
15.1606
14.8184
14.4441
14.0404
13.599
13.1453
12.6847
12.2203
11.7557
11.2949
10.8416
10.3995
9.97254
9.56389
9.1763
8.81162
8.47127
8.15621
7.8666
7.60203
7.36183
7.14476
6.94911
6.77294
6.61431
6.47109
6.33912
6.20842
6.07987
5.95389
5.83053
5.70941
5.58972
5.47048
5.35075
5.22911
5.10599
4.98292
4.86254
4.74881
4.64706
4.56339
4.50334
4.46989
4.46136
4.46997
4.4819
4.4793
4.44414
4.36285
4.23003
4.04968
3.83357
3.59797
3.36083
3.14142
2.9638
2.86529
2.90905
3.19163
3.82288
4.84163
6.03737
6.79723
6.52233
5.65039
5.10927
4.96034
4.94231
4.93412
4.89784
4.83571
4.75378
12.6488
6.26514
4.3564
3.54312
3.1208
2.85136
2.64291
2.46009
2.28964
2.1289
1.97871
1.84085
1.71714
1.60926
1.51868
1.44649
1.39316
1.35833
1.34078
1.33848
1.34915
1.37545
1.41567
1.46766
1.52921
1.59717
1.66164
1.72041
1.77166
1.8132
1.84315
1.86021
1.86361
1.85315
1.82973
1.79507
1.75148
1.70207
1.65477
1.63746
1.65801
1.7035
1.7612
1.81861
1.86642
1.89882
1.91294
1.90832
1.88635
1.84942
1.80006
1.74025
1.67177
1.59835
1.528
1.46673
1.41989
1.39195
1.38601
1.40326
1.44154
1.48974
1.54863
1.62986
1.75558
1.95917
2.28642
2.79219
3.52586
4.50495
5.69102
6.9268
7.80613
8.31603
8.51083
8.4486
8.20772
7.87563
7.53902
7.27823
7.16106
7.23541
7.5221
8.01375
8.67858
9.46916
10.3319
11.2138
12.0668
12.8495
13.5288
14.0817
14.5186
14.905
15.2478
15.5491
15.8055
16.0074
16.1622
16.2775
16.3555
16.3939
16.3876
16.3337
16.2318
16.0786
15.8555
15.5805
15.2601
14.8937
14.4851
14.0397
13.5635
13.0633
12.546
12.0188
11.4889
10.9632
10.4485
9.95093
9.47596
9.02803
8.6104
8.22532
7.87399
7.55657
7.27228
7.01965
6.79657
6.60041
6.42827
6.27725
6.14449
6.02608
5.91293
5.80402
5.69927
5.59842
5.50095
5.40598
5.31229
5.21821
5.1211
5.02005
4.91442
4.80431
4.69095
4.57715
4.46743
4.36762
4.28364
4.21964
4.17586
4.14714
4.1227
4.08777
4.02715
3.92971
3.79201
3.61958
3.42551
3.22768
3.04698
2.90862
2.84824
2.92201
3.21516
3.82729
4.78903
5.88532
6.54852
6.30842
5.617
5.20395
5.09284
5.06392
5.01719
4.93855
4.82116
4.69113
15.4818
6.16682
4.02618
3.32574
3.00292
2.78519
2.59645
2.41617
2.23891
2.068
1.90673
1.75789
1.62416
1.50828
1.413
1.34068
1.29257
1.26846
1.26701
1.28477
1.31954
1.37692
1.44928
1.53287
1.62559
1.72451
1.82364
1.91723
1.99209
2.05279
2.09875
2.12767
2.13982
2.1353
2.11565
2.08471
2.05144
2.04713
2.13061
2.33699
2.58307
2.81314
3.001
3.13435
3.21037
3.2328
3.20944
3.14827
3.05835
2.94792
2.82392
2.69087
2.54963
2.40924
2.27725
2.15949
2.06105
1.98589
1.93612
1.91189
1.91098
1.93238
1.98427
2.08335
2.25668
2.54289
2.99019
3.64551
4.52774
5.5907
6.68651
7.45434
7.84075
7.93068
7.80157
7.54228
7.24072
6.97335
6.80221
6.77494
6.92287
7.25741
7.76779
8.4235
9.18023
9.98685
10.7914
11.5457
12.2098
12.7566
13.1787
13.4909
13.7788
14.0515
14.3151
14.5695
14.8082
15.02
15.182
15.2953
15.3842
15.4481
15.4827
15.4815
15.4433
15.3624
15.2333
15.0518
14.8151
14.5225
14.1749
13.7756
13.3299
12.8449
12.329
11.7916
11.2425
10.6914
10.1479
9.62045
9.11672
8.64286
8.2035
7.80169
7.43899
7.11562
6.8306
6.58206
6.36736
6.18327
6.02627
5.89272
5.77892
5.67977
5.58776
5.50136
5.41932
5.3408
5.26521
5.19196
5.12029
5.0486
4.97509
4.89824
4.8162
4.72744
4.63113
4.52757
4.41876
4.30866
4.20286
4.10732
4.0265
3.96137
3.90795
3.85731
3.79718
3.71548
3.60437
3.46352
3.30098
3.13182
2.97647
2.86096
2.82126
2.91082
3.20666
3.79629
4.70037
5.71119
6.32813
6.19012
5.67035
5.33331
5.22421
5.18368
5.12106
5.01084
4.8455
4.66014
16.9859
5.63219
3.74144
3.25943
3.02369
2.83235
2.64735
2.4627
2.27677
2.0975
1.92791
1.77047
1.62833
1.50539
1.40588
1.33353
1.2903
1.27602
1.29117
1.33109
1.4017
1.48301
1.5724
1.67297
1.78487
1.90554
2.03005
2.15239
2.26529
2.36534
2.44613
2.50032
2.53796
2.57834
2.65091
2.79765
3.05674
3.43409
3.88575
4.33231
4.6744
4.89754
5.01167
5.0309
4.97017
4.84415
4.66628
4.44776
4.20256
3.95159
3.69915
3.46208
3.24533
3.04959
2.87511
2.72218
2.59152
2.48409
2.40069
2.34265
2.31428
2.32591
2.38963
2.52462
2.76053
3.13721
3.69674
4.4609
5.3924
6.36054
7.06616
7.3921
7.43177
7.27488
7.01468
6.73786
6.51401
6.3934
6.40985
6.5831
6.91789
7.40222
8.00771
8.69342
9.41114
10.111
10.7469
11.2823
11.6965
11.9899
12.1852
12.3659
12.5388
12.7165
12.9052
13.1043
13.3064
13.499
13.6626
13.7535
13.8249
13.8784
13.9162
13.9368
13.9351
13.9049
13.8394
13.7319
13.5765
13.3686
13.1056
12.7867
12.414
11.9927
11.5308
11.0375
10.5237
10.0006
9.47945
8.97064
8.48342
8.02533
7.60197
7.21704
6.87241
6.56841
6.30408
6.07748
5.88589
5.72596
5.59397
5.48595
5.39768
5.32272
5.25657
5.19628
5.13957
5.08486
5.03121
4.97809
4.92516
4.87147
4.81675
4.75964
4.69829
4.63068
4.55486
4.46943
4.3741
4.27037
4.1619
4.05409
3.95279
3.8624
3.78396
3.71412
3.6453
3.56762
3.47214
3.35454
3.21761
3.07184
2.93475
2.83136
2.79747
2.88566
3.16876
3.72559
4.56987
5.5087
6.11139
6.09219
5.73508
5.4618
5.34619
5.29283
5.21832
5.08067
4.87134
4.63277
17.0129
5.00529
3.6529
3.34727
3.14801
2.96119
2.77452
2.58793
2.39945
2.21949
2.04857
1.88824
1.74204
1.61493
1.51255
1.43995
1.40003
1.39266
1.41572
1.46902
1.54392
1.63009
1.73147
1.8491
1.98308
2.132
2.29337
2.46492
2.64631
2.84193
3.06221
3.32573
3.65617
4.07304
4.5889
5.1727
5.76101
6.27482
6.64904
6.85343
6.92384
6.89189
6.77681
6.59137
6.34409
6.04102
5.69529
5.31722
4.92004
4.5207
4.13766
3.7971
3.51757
3.28802
3.10209
2.95031
2.8268
2.72853
2.65527
2.60961
2.59909
2.63799
2.74121
2.93125
3.2395
3.70131
4.3395
5.13147
5.97312
6.6361
6.94664
6.97864
6.82349
6.5757
6.32037
6.12321
6.02794
6.06009
6.23171
6.54322
6.98253
7.52452
8.1331
8.76541
9.37699
9.92688
10.3822
10.7229
10.9475
11.0785
11.1521
11.2172
11.2842
11.3706
11.482
11.6157
11.7629
11.9099
12.0431
12.0978
12.1295
12.1499
12.162
12.1656
12.1578
12.1337
12.0874
12.012
11.9011
11.749
11.5511
11.3044
11.0076
10.664
10.2796
9.86199
9.42076
8.96641
8.50992
8.06188
7.63177
7.22741
6.85466
6.51735
6.21747
5.95546
5.73056
5.5411
5.3847
5.25834
5.15849
5.08096
5.02108
4.97429
4.93636
4.9038
4.87379
4.84415
4.81339
4.78064
4.74559
4.7078
4.66799
4.62568
4.57977
4.52863
4.47022
4.40244
4.3236
4.23312
4.13232
4.02477
3.91579
3.81104
3.71466
3.62757
3.54682
3.46613
3.37794
3.27634
3.16014
3.03482
2.91342
2.8177
2.7814
2.85553
3.11055
3.62096
4.39985
5.27544
5.87948
5.97329
5.75298
5.53805
5.42543
5.36633
5.28231
5.1183
4.86679
4.58115
16.2665
4.59235
3.76049
3.52946
3.33422
3.14712
2.96338
2.78365
2.60921
2.44075
2.2788
2.12472
1.98137
1.85325
1.74602
1.66546
1.6165
1.60314
1.63058
1.70548
1.78922
1.89475
2.02591
2.18688
2.38245
2.6182
2.90116
3.24024
3.64563
4.12622
4.6847
5.31147
5.97906
6.6419
7.24329
7.72983
8.06827
8.25447
8.31112
8.27372
8.18711
8.05653
7.88137
7.65743
7.37855
7.03882
6.63525
6.17089
5.658
5.12029
4.59163
4.10899
3.70111
3.38241
3.16195
3.00945
2.90471
2.83399
2.79255
2.78191
2.80985
2.89247
3.04653
3.29596
3.66881
4.18608
4.83798
5.55145
6.16325
6.4857
6.54287
6.41558
6.19418
5.96197
5.78306
5.69875
5.73074
5.88694
6.16539
6.55488
7.03441
7.57429
8.13962
8.69488
9.20754
9.6486
9.99103
10.2129
10.3085
10.299
10.2304
10.1667
10.1376
10.1532
10.2085
10.2914
10.3887
10.4853
10.5676
10.5844
10.5732
10.5491
10.5179
10.4824
10.4425
10.3953
10.336
10.2587
10.1569
10.025
9.85815
9.65288
9.40634
9.12061
8.80408
8.4631
8.10456
7.73634
7.36695
7.00489
6.65795
6.33264
6.0339
5.765
5.5277
5.3225
5.149
5.00607
4.89201
4.80445
4.74029
4.6957
4.6665
4.64852
4.63815
4.63228
4.62813
4.62323
4.61562
4.60391
4.58735
4.56551
4.53937
4.50919
4.4748
4.43543
4.38967
4.33564
4.2712
4.19461
4.10525
4.00455
3.89619
3.78553
3.67804
3.5775
3.48467
3.39703
3.30965
3.21711
3.11614
3.00817
2.90132
2.81258
2.7715
2.82545
3.04184
3.49335
4.19858
5.01313
5.62203
5.81222
5.70642
5.54673
5.43693
5.35852
5.25375
5.07306
4.79639
4.47836
14.8877
4.56709
3.98902
3.76197
3.56523
3.38353
3.2121
3.05003
2.8966
2.75056
2.61101
2.47816
2.35389
2.24208
2.14868
2.08179
2.05131
2.06814
2.14235
2.2247
2.3392
2.49218
2.68998
2.94022
3.25136
3.6318
4.08836
4.62362
5.23211
5.89634
6.58497
7.25546
7.86158
8.36437
8.74247
8.99729
9.14978
9.23045
9.26744
9.2778
9.26976
9.22986
9.15176
9.02433
8.83206
8.55653
8.17953
7.68803
7.0814
6.37949
5.6273
4.88914
4.23262
3.70926
3.33711
3.10006
2.97284
2.91155
2.89503
2.91727
2.98269
3.10745
3.30763
3.60378
4.01325
4.5341
5.12104
5.66404
6.00252
6.10597
6.02903
5.84982
5.64731
5.48514
5.40515
5.42889
5.56321
5.80555
6.14626
6.56874
7.05032
7.56518
8.08845
8.59776
9.06756
9.45816
9.71491
9.79337
9.69735
9.49218
9.28129
9.14438
9.08672
9.09218
9.13835
9.20352
9.27193
9.32697
9.36126
9.35487
9.30477
9.23355
9.15099
9.06412
8.97639
8.88792
8.7961
8.69624
8.58246
8.44859
8.28889
8.09868
7.87996
7.64076
7.38509
7.11635
6.83852
6.5565
6.2758
6.00214
5.74091
5.49677
5.27338
5.07328
4.89798
4.74816
4.6239
4.52481
4.44999
4.39785
4.36578
4.35028
4.34753
4.3541
4.36719
4.38435
4.40314
4.42103
4.43574
4.44527
4.44813
4.44339
4.43168
4.41344
4.38914
4.35887
4.32216
4.27785
4.22419
4.15911
4.08095
3.98931
3.88598
3.77501
3.66187
3.55182
3.44827
3.3519
3.26068
3.17092
3.0791
2.98415
2.89001
2.80851
2.76355
2.79668
2.97016
3.35472
3.97789
4.72761
5.33659
5.60342
5.59072
5.48149
5.37687
5.27798
5.14166
4.92634
4.62648
4.3017
13.2853
4.72069
4.25027
4.01945
3.82449
3.65535
3.50491
3.37028
3.24909
3.13907
3.03884
2.94857
2.87039
2.80847
2.76903
2.75981
2.789
2.86376
2.9514
3.06952
3.2347
3.45309
3.73132
4.076
4.49227
4.98162
5.53931
6.15166
6.79464
7.43521
8.03666
8.56678
9.00574
9.35037
9.61294
9.81502
9.97861
10.1188
10.2411
10.3431
10.4197
10.4912
10.5553
10.5999
10.6028
10.5307
10.341
9.98731
9.43006
8.65503
7.69317
6.62417
5.56117
4.62589
3.90759
3.43059
3.15931
3.03429
3.00655
3.04281
3.13413
3.28888
3.51846
3.83476
4.23962
4.70763
5.16979
5.50899
5.66422
5.65269
5.53079
5.36797
5.22621
5.14941
5.16169
5.27154
5.4775
5.77192
6.14234
6.57248
7.04494
7.54487
8.05992
8.56887
9.01982
9.32295
9.3907
9.21028
8.87642
8.53928
8.31991
8.22761
8.22317
8.26989
8.33806
8.40567
8.45563
8.48151
8.47845
8.44443
8.37136
8.26178
8.13129
7.9914
7.84972
7.71021
7.57356
7.43776
7.29873
7.1513
6.99001
6.81011
6.61561
6.41309
6.20536
5.99434
5.7821
5.57113
5.36437
5.16501
4.97618
4.80072
4.64098
4.49874
4.37521
4.27123
4.18729
4.12364
4.08006
4.05544
4.04754
4.05324
4.06929
4.09282
4.1226
4.15738
4.19535
4.23321
4.26847
4.29863
4.32149
4.33521
4.33961
4.33485
4.32146
4.30006
4.27098
4.23399
4.1881
4.13164
4.06267
3.97976
3.88302
3.77486
3.65988
3.54371
3.43136
3.3259
3.22794
3.13595
3.04733
2.96012
2.87545
2.80057
2.75338
2.76819
2.89988
3.21525
3.75058
4.42811
5.02688
5.35134
5.41252
5.34574
5.24583
5.12757
4.96194
4.71898
4.40171
4.07191
11.6579
4.89244
4.51949
4.28567
4.09839
3.94907
3.8272
3.72799
3.64788
3.58402
3.53482
3.50038
3.48254
3.48452
3.51035
3.56436
3.65069
3.76087
3.88812
4.06039
4.28385
4.5635
4.9033
5.30501
5.7664
6.27942
6.82872
7.39172
7.94097
8.44908
8.89493
9.26862
9.57252
9.81825
10.021
10.1937
10.3436
10.4714
10.5755
10.6564
10.7368
10.8807
11.0917
11.3633
11.6756
11.9903
12.245
12.3517
12.2048
11.7071
10.8181
9.57922
8.11178
6.61137
5.29454
4.3098
3.68418
3.34911
3.21082
3.20655
3.29214
3.45311
3.68517
3.9875
4.34715
4.72343
5.04099
5.23546
5.29124
5.2359
5.12244
5.00743
4.93614
4.93676
5.02152
5.19165
5.44199
5.76354
6.14514
6.57585
7.04855
7.5596
8.09469
8.59813
8.9541
9.03257
8.79485
8.35618
7.91949
7.63853
7.54438
7.5587
7.62853
7.7213
7.80858
7.87651
7.91643
7.92215
7.89131
7.82489
7.72675
7.59863
7.4351
7.25293
7.06355
6.87468
6.6907
6.51301
6.34046
6.17002
5.99771
5.81944
5.63819
5.45945
5.28503
5.11561
4.95159
4.79356
4.64239
4.49925
4.3655
4.2425
4.13155
4.03375
3.95009
3.88143
3.82859
3.79222
3.77236
3.76804
3.77716
3.79665
3.82392
3.85838
3.89925
3.94559
3.99617
4.04949
4.10359
4.15491
4.19866
4.23221
4.25479
4.26592
4.26579
4.25504
4.23443
4.20446
4.16503
4.11523
4.05345
3.97792
3.88769
3.78368
3.66921
3.54949
3.43024
3.31618
3.21001
3.11228
3.02183
2.937
2.85746
2.78714
2.73852
2.73841
2.83281
3.08202
3.52822
4.12579
4.70063
5.06541
5.18569
5.15359
5.05571
4.91795
4.72504
4.46136
4.14439
3.8336
10.0509
5.0549
4.77579
4.54322
4.37045
4.24699
4.15892
4.09969
4.06469
4.05024
4.05375
4.07403
4.11139
4.16768
4.24621
4.35151
4.48832
4.62941
4.80693
5.02646
5.29168
5.60454
5.96446
6.36722
6.80379
7.25966
7.71529
8.14824
8.53685
8.86446
9.12255
9.31109
9.43618
9.50661
9.53131
9.519
9.47939
9.42458
9.3697
9.33501
9.39008
9.56831
9.8781
10.33
10.931
11.6728
12.5134
13.3578
14.0472
14.3718
14.1599
13.3286
11.8865
9.99683
7.98442
6.21016
4.90883
4.10959
3.69694
3.53623
3.53835
3.65854
3.85458
4.10634
4.39045
4.66148
4.86681
4.97322
4.98079
4.92014
4.83682
4.77423
4.76404
4.82357
4.95806
5.16762
5.44777
5.7836
6.17028
6.60546
7.09031
7.61836
8.14627
8.56296
8.70781
8.4817
7.97777
7.45543
7.11736
7.00677
7.04791
7.14414
7.25646
7.36668
7.46079
7.52896
7.56341
7.55906
7.51384
7.42904
7.30871
7.15821
6.98255
6.77567
6.55281
6.32537
6.10126
5.88528
5.67924
5.48258
5.29318
5.10814
4.92853
4.75908
4.60123
4.45505
4.32
4.19543
4.08075
3.97566
3.8801
3.79428
3.71853
3.65338
3.59945
3.55756
3.52858
3.51314
3.5111
3.52137
3.54131
3.5689
3.60392
3.64605
3.69481
3.74951
3.80922
3.87276
3.93868
4.00506
4.06902
4.1251
4.16843
4.19823
4.21438
4.21722
4.20754
4.18621
4.1538
4.11025
4.05459
3.9853
3.90096
3.8014
3.68869
3.56719
3.4427
3.32089
3.20605
3.10045
3.00449
2.91735
2.83836
2.76943
2.71883
2.70654
2.76935
2.95912
3.31969
3.83198
4.36783
4.75623
4.9257
4.92544
4.82985
4.67461
4.45988
4.18749
3.88984
3.61858
8.52033
5.1897
4.99396
4.76896
4.61757
4.52444
4.47279
4.4546
4.46465
4.49907
4.55508
4.63088
4.72555
4.83873
4.9701
5.11891
5.2735
5.45216
5.6618
5.90439
6.18023
6.48722
6.82003
7.16938
7.52171
7.85967
8.16364
8.41435
8.59592
8.69832
8.71833
8.65886
8.52763
8.33609
8.09937
7.8371
7.57449
7.34329
7.17892
7.11249
7.18134
7.34546
7.61787
8.03354
8.64504
9.50953
10.6642
12.0861
13.6462
15.0605
16.037
16.3609
15.8272
14.3468
12.118
9.59766
7.33483
5.69455
4.71409
4.22188
4.03132
4.02809
4.12708
4.28425
4.46737
4.63601
4.75263
4.79833
4.78044
4.72725
4.67503
4.65783
4.69721
4.80066
4.96921
5.20015
5.49074
5.83286
6.22524
6.6703
7.16496
7.67813
8.12075
8.34376
8.21366
7.75397
7.19072
6.78262
6.62254
6.6433
6.74634
6.86999
6.99367
7.10649
7.20014
7.26784
7.30278
7.29922
7.25384
7.16643
7.03981
6.87878
6.68883
6.47431
6.23188
5.97805
5.72452
5.47916
5.24634
5.02739
4.82161
4.6271
4.44304
4.27299
4.11866
3.98031
3.85734
3.74872
3.65325
3.56978
3.49734
3.4352
3.38294
3.34043
3.30791
3.28589
3.27494
3.27519
3.28614
3.30555
3.33213
3.36588
3.40677
3.45465
3.50924
3.57004
3.63637
3.70735
3.78186
3.85842
3.93459
4.00763
4.07346
4.12546
4.16095
4.18059
4.185
4.17508
4.15175
4.11554
4.06625
4.00287
3.92401
3.82892
3.7186
3.59649
3.468
3.33931
3.21579
3.10117
2.99721
2.90412
2.82155
2.75043
2.69615
2.67306
2.70944
2.84775
3.12961
3.55501
4.03765
4.43234
4.64367
4.67894
4.594
4.43103
4.20703
3.94208
3.6794
3.4595
7.05835
5.25941
5.14612
4.93977
4.82031
4.76472
4.75401
4.77833
4.83123
4.90784
5.00433
5.11779
5.24616
5.3884
5.5449
5.71758
5.89915
6.10201
6.32708
6.5739
6.84004
7.12031
7.40617
7.68531
7.94193
8.15774
8.31394
8.39377
8.38505
8.28211
8.0867
7.80816
7.46288
7.07341
6.66729
6.27646
5.93693
5.68757
5.56868
5.62555
5.73054
5.83217
5.93856
6.09536
6.38701
6.92645
7.84059
9.23376
11.1236
13.2452
15.2602
16.9408
17.9873
18.0182
16.8378
14.5183
11.5752
8.7904
6.74334
5.52808
4.91864
4.66569
4.58912
4.60529
4.66732
4.73309
4.7705
4.76566
4.72663
4.67709
4.64482
4.65441
4.72069
4.84586
5.02921
5.26799
5.56055
5.90477
6.30151
6.74981
7.23091
7.68382
7.99086
8.01172
7.68832
7.1511
6.65815
6.38618
6.33099
6.40158
6.52275
6.64992
6.76918
6.87533
6.96494
7.03346
7.07431
7.08024
7.04557
6.96776
6.84752
6.68811
6.49456
6.27264
6.01832
5.74584
5.47096
5.20445
4.95262
4.71811
4.50099
4.29978
4.11243
3.93953
3.7833
3.64463
3.52354
3.41938
3.33106
3.25727
3.19663
3.14788
3.11002
3.08239
3.06474
3.05707
3.05924
3.07075
3.08937
3.11465
3.14672
3.1857
3.23165
3.28451
3.34409
3.40996
3.48152
3.55801
3.63848
3.72186
3.80655
3.89135
3.97262
4.04556
4.10424
4.14327
4.16414
4.16787
4.15554
4.12808
4.08586
4.02849
3.9549
3.8641
3.75643
3.63445
3.50308
3.36857
3.23708
3.11338
3.00038
2.89924
2.81017
2.73381
2.67381
2.64051
2.65511
2.75111
2.96508
3.30811
3.72766
4.11012
4.35301
4.42879
4.36929
4.2169
4.00308
3.76262
3.54321
3.37479
5.88011
5.19827
5.15647
4.97955
4.89938
4.88618
4.92022
4.99026
5.0892
5.21154
5.35268
5.50895
5.67788
5.85793
6.04791
6.248
6.45861
6.68284
6.91998
7.16782
7.42201
7.67531
7.91715
8.13352
8.30745
8.42039
8.45437
8.39474
8.23298
7.96888
7.61224
7.18382
6.71428
6.24143
5.80744
5.45719
5.2358
5.17907
5.29017
5.4918
5.66218
5.753
5.74237
5.65812
5.59271
5.6801
6.08022
6.96604
8.51127
10.5377
12.7418
14.9479
16.964
18.5148
19.1806
18.522
16.4098
13.3215
10.2006
7.83737
6.41757
5.69006
5.31452
5.12157
5.02718
4.97427
4.92588
4.86614
4.79912
4.7416
4.71338
4.73118
4.8053
4.93609
5.12195
5.36076
5.65184
5.99548
6.3911
6.82862
7.27062
7.63471