/*--------------------------------*- C++ -*----------------------------------*\
| =========                 |                                                 |
| \\      /  F ield         | OpenFOAM: The Open Source CFD Toolbox           |
|  \\    /   O peration     | Version:  2112                                  |
|   \\  /    A nd           | Website:  www.openfoam.com                      |
|    \\/     M anipulation  |                                                 |
\*---------------------------------------------------------------------------*/
FoamFile
{
    version     2.0;
    format      ascii;
    arch        "LSB;label=32;scalar=64";
    class       volScalarField;
    location    "0.35";
    object      omega;
}
// * * * * * * * * * * * * * * * * * * * * * * * * * * * * * * * * * * * * * //

dimensions      [0 0 -1 0 0 0 0];

internalField   nonuniform List<scalar> 
12225
(
11261.5
15966.5
17327.8
17279.6
16722.8
16036.4
15370.6
14780
14276.2
13851.1
13489.8
13177.5
12902.2
12655.4
12430.5
12228.6
12029.4
11798.2
899.376
2116.01
3155.27
3948.19
4509.54
4887.08
5129.81
5277.02
5357.91
5393.67
5399.3
5385.33
5358.99
5324.81
5285.94
5245.76
5222.27
5217.8
60.386
216.561
438.763
692.348
941.691
1163.77
1350.16
1502.78
1628.49
1735.04
1829
1915.34
1997.32
2076.76
2154.48
2231.06
2306.05
2370.75
10.9228
25.1602
53.6925
97.2454
152.467
212.835
273.033
329.915
382.509
431.586
477.921
522.144
564.79
606.214
646.53
685.694
723.187
756.557
8.13125
9.34182
12.3845
18.0398
26.6135
37.6073
50.2685
63.9148
77.9721
91.9181
105.682
119.221
132.736
146.258
159.694
172.88
185.557
196.994
7.96863
8.10229
8.43663
9.11356
10.2557
11.9054
14.0375
16.6026
19.5326
22.7144
26.1273
29.7602
33.4508
37.1409
40.8222
44.4623
47.9964
51.2683
7.94881
7.98988
8.05736
8.16624
8.33728
8.58569
8.91833
9.33864
9.85003
10.4562
11.1646
11.9844
12.8749
13.8088
14.77
15.7396
16.6965
17.613
7.93974
7.96496
7.99977
8.04348
8.09744
8.16255
8.2384
8.32522
8.42453
8.53856
8.66985
8.82147
8.99401
9.18593
9.39368
9.6123
9.83614
10.0598
7.93375
7.95138
7.97588
8.00562
8.03966
8.07674
8.11503
8.1534
8.19183
8.23087
8.27119
8.31363
8.35891
8.40729
8.45862
8.51244
8.56801
8.62364
7.92961
7.94195
7.95995
7.98226
8.00776
8.03529
8.06327
8.09056
8.11678
8.14209
8.16683
8.19156
8.21688
8.24314
8.27042
8.29857
8.32723
8.35534
7.92675
7.93511
7.94823
7.96516
7.98483
8.00626
8.02821
8.04979
8.07057
8.09057
8.10997
8.1291
8.1484
8.1682
8.1887
8.20985
8.23141
8.25265
7.9249
7.93046
7.94012
7.95323
7.96883
7.98604
8.00389
8.02163
8.03891
8.05566
8.07197
8.08804
8.10411
8.12041
8.13707
8.15404
8.17118
8.18799
7.92354
7.92698
7.93391
7.94399
7.95636
7.97024
7.98483
7.99951
8.01396
8.0281
8.04195
8.05563
8.06929
8.08304
8.09692
8.11088
8.12478
8.1383
7.92257
7.92419
7.92873
7.93612
7.94562
7.95652
7.96819
7.98011
7.99198
8.0037
8.01526
8.02671
8.03814
8.04958
8.06104
8.07245
8.08372
8.0946
7.92195
7.92217
7.92475
7.92982
7.9368
7.94509
7.95417
7.96362
7.97316
7.98265
7.99207
8.00141
8.0107
8.01997
8.0292
8.03833
8.04732
8.056
7.92149
7.9208
7.92196
7.92514
7.93001
7.9361
7.94298
7.95031
7.95781
7.96534
7.97282
7.98023
7.98756
7.99481
8.00198
8.00904
8.01596
8.02267
7.92118
7.9199
7.92015
7.92202
7.92535
7.92978
7.93497
7.94062
7.94647
7.95237
7.95822
7.96397
7.96958
7.97507
7.98042
7.98564
7.99073
7.99569
7.92104
7.91948
7.91928
7.92048
7.92294
7.92637
7.93049
7.93503
7.93976
7.9445
7.94914
7.95362
7.95792
7.96201
7.96592
7.96964
7.97321
7.97666
7.92116
7.91971
7.91955
7.92074
7.92313
7.92643
7.93035
7.93461
7.93898
7.94327
7.94737
7.95121
7.95477
7.95804
7.96102
7.96375
7.96626
7.96859
7.92155
7.92067
7.92114
7.92312
7.92639
7.93058
7.93532
7.9403
7.94525
7.94999
7.95441
7.95843
7.96204
7.96524
7.96805
7.97053
7.97269
7.97461
7.92214
7.92217
7.92383
7.92724
7.93204
7.93776
7.94399
7.95035
7.95654
7.96236
7.96768
7.97244
7.97663
7.98028
7.98343
7.98614
7.98849
7.99053
7.92307
7.92475
7.92837
7.93392
7.94093
7.94894
7.95746
7.96602
7.97425
7.98193
7.98889
7.9951
8.00054
8.00529
8.00945
8.01312
8.01639
8.01936
7.92484
7.92906
7.93554
7.94419
7.95455
7.96617
7.97846
7.99083
8.0029
8.01447
8.02543
8.03579
8.04565
8.05519
8.06465
8.07432
8.08448
8.09544
7.92783
7.93589
7.94693
7.96099
7.9783
7.99916
8.02365
8.05184
8.08406
8.12071
8.16208
8.2085
8.26045
8.3186
8.38396
8.45762
8.5408
8.63499
7.93298
7.94938
7.97595
8.0202
8.09312
8.20571
8.36641
8.5806
8.85054
9.17509
9.5514
9.97638
10.4477
10.9643
11.5273
12.124
12.7537
13.4171
7.94757
8.04641
8.30676
8.84099
9.76166
11.1456
13.0195
15.3633
18.117
21.1739
24.4522
27.8839
31.4182
35.0203
38.6719
42.282
45.8483
49.3733
8.22697
10.2143
14.8029
22.8507
34.6741
50.0447
68.2685
88.4307
109.557
130.691
151.285
171.005
189.697
207.333
223.991
239.925
255.255
270.108
18.1192
59.4757
128.43
220.976
328.412
441.663
553.125
657.569
752.173
836.17
909.711
973.75
1029.65
1078.91
1122.98
1163.19
1200.58
1236.08
371.637
971.247
1577.16
2122.67
2579.01
2942.73
3224.82
3439.72
3601.05
3720.47
3807.2
3868.55
3910.3
3937.08
3952.58
3959.81
3961.21
3958.47
7396.91
11251.3
12890.4
13386
13348.4
13078.5
12718.5
12336.7
11966.9
11624.6
11315.8
11041.3
10799.2
10586.2
10398.1
10230.7
10079.9
9943.02
219.063
237.408
266.11
300.333
337.006
374.49
413.079
452.693
492.951
534.103
576.644
621.099
667.89
717.231
769.121
823.384
879.686
937.57
996.499
1055.93
1115.03
1166.81
1210.63
1245.7
1271.46
1287.51
1293.78
1290.77
1279.47
1261.03
1236.74
1208
1176.33
1143.21
1109.9
1077.34
1046.13
1016.44
988.115
960.781
934.044
907.697
880.755
854.319
829.625
807.682
788.908
773.144
760.011
749.296
741.18
736.196
734.896
737.602
744.373
754.965
768.699
784.26
799.498
811.452
816.781
812.816
798.968
777.66
751.344
722.326
692.846
664.785
639.257
616.204
594.228
570.938
544.187
513.451
480.323
450.412
444.202
510.734
700.844
1017.43
1425.07
1822.9
2221.85
2614.14
2984.99
3322.11
3616.27
3861.73
4056.79
4201.66
4298.21
4349.34
4358.91
4331.16
4269.42
4175.9
4051.35
3922.29
3789.36
3652.68
3512.83
3370.43
3225.97
3079.77
2931.95
2782.44
2631.09
2477.73
2322.24
2164.61
2005.02
1843.81
1681.41
1518.89
1358.06
1201.06
1050.49
909.331
780.834
668.333
575.213
505.336
463.036
451.878
483.09
537.139
614.984
713.409
828.054
955.236
1091.3
1232.19
1373.94
1513.6
1647.83
1773.6
1888.43
1990.24
2077.39
2148.98
2200.1
2228.49
2237.48
2229.96
2208.2
2173.93
2128.66
2073.88
2011.23
1942.5
1869.64
1794.68
1719.44
1645.23
1572.81
1502.56
1434.68
1369.7
1309.29
1256.67
1215.8
1189.56
1178.21
1179.1
1192.94
1214.13
1225.91
1198.69
1116.19
999.599
914.733
936.183
1066.63
1209.75
1314.44
1354.01
1316.72
1209.25
1050.51
888.335
351.987
371.916
409.528
445.86
473.686
491.228
499.813
501.673
498.998
493.328
485.629
476.609
466.85
456.761
446.628
436.666
427.034
417.854
409.22
401.197
393.948
393.308
398.769
409.765
425.209
443.658
463.453
482.915
500.662
515.685
527.319
535.217
539.372
540.093
537.943
533.648
527.989
521.696
515.339
509.248
503.47
497.827
492.434
486.338
479.247
470.754
460.407
447.826
432.875
415.802
397.224
377.981
358.962
340.971
324.639
310.407
298.56
289.294
282.794
279.164
278.343
279.901
282.44
283.21
281.155
276.293
269.275
261.209
253.55
248.065
247.089
254.209
275.934
324.372
412.404
542.133
715.072
948.54
1214.81
1438.9
1626.84
1766.35
1855.96
1895.35
1887.13
1836.3
1749.84
1635.64
1497.8
1345.62
1189.68
1040.14
906.22
795.532
713.756
664.753
650.341
639.638
630.212
621.544
613.303
605.275
597.326
589.37
581.352
573.233
564.986
556.586
548.028
539.375
530.917
523.551
518.935
516.562
514.226
511.589
508.601
505.219
501.433
497.257
492.709
488.056
482.926
476.845
471.359
465.7
459.728
453.588
447.54
441.765
436.715
435.289
441.424
451.955
465.49
481.929
501.454
524.249
550.427
580.246
617.507
660.99
705.465
747.762
785.749
817.763
842.465
858.81
866.057
863.922
852.768
833.685
808.227
778.342
745.993
712.9
680.342
648.963
618.665
588.902
559.397
531.102
507.41
493.464
489.131
494.795
511.88
547.436
600.503
654.8
704.514
738.776
731.064
682.557
612.206
535.555
465.952
423.034
415.225
421.137
542.524
560.664
591.227
602.001
595.649
578.668
556.716
533.224
510.193
488.626
468.947
451.242
435.419
421.319
408.762
397.572
387.584
378.654
370.657
363.477
357.001
350.979
345.596
341.182
338.055
336.418
336.282
337.426
339.423
341.716
343.703
344.833
344.682
343.022
339.837
335.32
329.837
323.864
317.923
312.505
308.01
304.574
302.409
301.904
302.78
304.721
307.343
310.147
312.524
313.801
313.355
310.738
305.782
298.65
289.8
279.867
269.511
259.285
249.595
240.748
233.052
226.849
222.412
219.652
217.859
216.421
215.134
214.571
216.585
225.078
247.055
292.504
371.199
489.294
645.673
831.778
1027.78
1189.56
1315.59
1392.91
1420.4
1400.87
1341.54
1251.63
1141.52
1021.76
901.556
789.15
691.8
615.636
563.488
533.299
521.593
523.549
534.144
547.179
558.563
568.089
575.796
581.773
586.152
589.083
590.74
591.302
590.924
589.75
587.924
585.577
582.821
579.747
576.424
572.892
569.151
565.186
560.998
556.583
551.912
546.977
541.853
536.517
530.721
524.806
516.764
508.525
499.915
490.863
481.058
470.786
460.283
449.677
439.019
428.373
417.849
407.499
397.396
387.64
378.359
369.719
361.936
355.272
350.284
350.198
356.123
367.93
385.048
406.487
430.802
456.111
480.332
501.456
517.778
528.143
532.167
530.318
523.711
513.745
501.64
488.048
472.865
455.446
435.223
412.607
389.999
372.325
364.093
370.415
395.854
443.701
510.932
582.917
633.407
629.528
565.958
493.752
434.712
398.95
386.855
390.12
398.035
404.618
852.178
801.529
761.963
705.228
644.249
587.26
537.598
495.912
461.573
433.412
410.328
391.375
375.766
362.863
352.155
343.233
335.772
329.524
324.299
319.958
316.394
313.459
311.084
309.169
307.634
306.41
305.428
304.589
303.752
302.729
301.294
299.216
296.295
292.403
287.516
281.723
275.221
268.294
261.281
254.532
248.377
243.105
239.308
236.857
235.67
235.676
236.78
238.835
241.601
244.744
247.845
250.438
252.066
252.355
251.087
248.249
244.016
238.681
232.576
226.052
219.539
213.625
209.032
206.201
205.273
206.409
210.282
218.834
236.06
268.489
324.918
413.686
538.241
694.422
866.764
1006.94
1110.18
1175
1197.51
1178.43
1123.96
1043.37
947.569
847.53
753.196
672.532
610.687
569.9
549.451
546.094
554.937
570.778
589.308
607.438
622.392
635.017
645.441
653.777
660.103
664.476
667.028
667.899
667.227
665.161
661.849
657.445
652.099
645.959
639.17
631.856
624.118
616.035
607.676
599.125
590.457
581.701
572.767
563.746
554.84
545.685
536.228
527.275
517.889
508.106
498.102
487.819
477.332
466.892
456.632
446.546
436.577
426.68
416.842
407.037
397.227
387.388
377.494
367.525
357.491
347.438
337.525
328.143
320.108
314.212
311.255
311.89
316.467
324.892
336.552
350.341
364.775
378.23
389.263
396.91
400.84
401.311
398.911
394.18
387.298
378.058
366.21
352.101
337.359
325.423
321.434
330.514
358.313
408.917
478.287
548.954
586.628
558.732
483.461
423.72
390.667
378.948
379.275
383.653
388.355
391.002
1281.92
1022.88
853.266
715.515
608.865
528.989
469.793
425.804
392.795
367.719
348.407
333.373
321.575
312.273
304.926
299.125
294.563
291.006
288.29
286.305
284.986
284.477
284.746
285.661
287.066
288.775
290.582
292.261
293.563
294.249
294.126
293.037
290.873
287.599
283.258
277.969
271.917
265.329
258.458
251.56
245.12
239.481
234.602
230.519
227.304
225.009
223.637
223.124
223.343
224.118
225.228
226.43
227.483
228.164
228.293
227.746
226.479
224.521
221.955
218.931
215.753
212.97
211.093
210.779
212.972
219.026
231.187
253.256
290.959
351.303
440.765
561.645
707.393
856.277
961.926
1028.08
1058.41
1053.49
1016.53
954.442
876.45
792.622
712.567
644.276
593.209
561.683
548.868
551.494
564.927
584.348
605.661
625.951
643.472
657.283
668.453
677.767
685.377
691.328
695.687
698.49
699.758
699.521
697.818
694.699
690.233
684.499
677.579
669.593
660.715
651.079
640.806
629.952
618.671
607.159
595.526
583.734
571.457
559.485
547.833
536.411
525.128
513.917
502.682
491.444
480.281
469.225
458.355
447.81
437.688
428.009
418.766
409.926
401.434
393.261
385.346
377.598
369.91
362.166
354.255
346.082
337.589
328.76
319.665
310.673
302.307
295.188
289.964
287.206
287.265
290.145
295.42
302.255
309.542
316.126
321.058
323.782
324.171
322.385
318.651
313.122
305.968
297.732
289.793
284.761
286.723
301.197
333.946
387.93
458.28
525.257
552.62
515.172
445.677
398.432
380.084
375.101
375.174
376.586
378.7
379.011
1744.05
1151.01
837.438
642.872
521.33
444.309
393.961
359.706
335.444
317.68
304.341
294.147
286.281
280.244
275.682
272.325
269.959
268.416
267.57
267.336
267.675
268.929
271.131
274.183
277.938
282.186
286.665
291.106
295.176
298.516
300.824
301.883
301.561
299.816
296.699
292.354
286.979
280.804
274.104
267.33
261.127
255.28
250.073
245.711
242.282
239.748
237.978
236.792
235.999
235.413
234.871
234.227
233.38
232.299
231.015
229.612
228.216
226.964
225.971
225.332
225.237
225.673
226.815
229.756
236.35
249.256
272.179
310.149
369.067
454.066
566.487
698.969
827.883
912.046
956.871
968.168
950
907.347
847.013
777.246
706.602
642.913
592.342
558.543
542.222
541.339
551.982
569.548
589.782
609.427
626.423
639.78
649.253
656.672
662.977
668.42
673.133
677.125
680.346
682.707
684.082
684.371
683.477
681.349
677.95
673.232
667.111
659.678
651.142
641.596
631.1
619.432
607.285
594.801
582.036
569.067
555.975
542.83
529.702
516.662
503.756
491.018
478.457
466.109
454.042
442.323
431.035
420.277
410.134
400.658
391.874
383.782
376.345
369.505
363.213
357.377
351.871
346.544
341.225
335.733
329.892
323.552
316.515
308.835
300.72
292.508
284.655
277.696
272.166
268.496
266.886
267.217
269.022
271.556
273.948
275.404
275.378
273.653
270.311
265.651
260.181
254.741
250.764
250.571
257.671
276.881
313.475
370.082
440.895
504.807
526.822
489.4
429.304
391.825
377.697
373.105
371.207
370.111
369.206
367.761
2145.53
1163.17
740.352
535.362
431.585
375.154
341.333
318.908
302.796
290.686
281.353
274.083
268.471
264.274
261.322
259.475
258.591
258.534
259.189
260.456
262.301
265.306
269.398
274.468
280.344
286.803
293.646
300.555
307.056
312.662
316.99
319.778
320.865
320.173
317.791
313.93
308.857
302.895
296.463
290.863
286.582
283.939
282.733
282.502
282.85
283.303
283.47
283.088
282.009
280.17
277.58
274.318
270.504
266.281
261.872
257.624
253.927
251.137
249.507
249.186
250.188
251.959
254.99
260.904
272.373
293.066
327.608
381.264
458.414
559.74
678.182
792.509
864.128
896.994
898.72
874.926
831.743
775.855
714.36
654.305
601.972
562.152
537.448
527.874
531.087
543.207
559.905
577.345
592.74
604.517
612.204
616.195
619.135
621.841
624.557
627.388
630.338
633.346
636.233
638.771
640.792
642.14
642.638
642.183
640.68
638.002
633.693
628.079
621.289
613.277
604.108
593.891
582.751
570.824
558.251
545.171
531.719
518.021
504.195
490.352
476.592
463.001
449.654
436.63
424.016
411.904
400.382
389.542
379.461
370.196
361.782
354.231
347.53
341.63
336.486
332.024
328.134
324.68
321.493
318.377
315.116
311.465
307.095
301.906
295.875
289.099
281.803
274.343
267.17
260.771
255.572
251.831
249.547
248.428
247.928
247.364
246.089
243.657
239.935
235.153
229.905
225.194
222.548
224.234
233.547
254.978
293.496
351.471
422.452
484.826
506.104
474.174
423.652
391.454
377.951
371.798
367.596
364.346
360.735
357.6
2430.88
1083.32
614.006
442.509
372.737
338.318
317.254
302.067
290.108
280.552
272.871
266.734
262.014
258.675
256.676
255.925
256.289
257.62
259.798
262.622
266.266
271.233
277.207
284.046
291.621
299.698
308.001
316.276
324.183
331.065
336.427
339.949
341.629
341.456
339.559
336.22
331.847
327.565
326.156
330.495
338.103
346.495
354.279
360.575
364.834
366.828
366.646
364.463
360.559
355.196
348.621
341.121
332.948
324.343
315.68
307.428
300.069
294.033
289.636
287.09
286.425
287.538
291.403
300.107
316.855
345.828
391.747
458.683
547.357
651.455
753.741
819.226
846.199
843.96
818.911
777.601
726.579
672.079
619.875
575.021
541.356
520.93
513.604
517.163
528.001
542.076
555.794
566.6
573.244
575.804
575.526
574.279
574.338
575.077
576.413
578.183
580.209
582.369
584.565
586.589
588.263
589.527
590.284
590.433
589.908
588.574
586.281
582.907
578.352
572.546
565.464
557.136
547.632
537.059
525.552
513.26
500.342
486.955
473.253
459.387
445.501
431.728
418.195
405.019
392.317
380.195
368.754
358.086
348.268
339.356
331.386
324.377
318.315
313.171
308.898
305.43
302.681
300.54
298.871
297.508
296.246
294.797
292.848
290.195
286.66
282.153
276.701
270.463
263.729
256.901
250.426
244.716
240.036
236.428
233.677
231.346
228.885
225.784
221.748
216.826
211.496
206.717
204.01
205.624
214.8
235.941
273.989
331.447
401.91
464.052
488.009
464.446
422.871
393.57
378.907
370.778
364.522
359.24
354.061
349.336
2580.93
956.785
504.867
388.687
348.541
327.191
311.954
299.569
289.003
280.266
273.052
267.216
262.82
259.967
258.686
258.909
260.473
263.194
267.128
271.807
278.001
283.864
290.33
297.686
305.795
314.362
323.057
331.581
339.552
346.511
352.214
356.496
359.257
361.018
363.044
367.07
375.393
388.995
406.642
425.226
440.572
451.881
459.28
463.07
463.59
461.171
456.1
448.754
439.609
429.452
418.419
406.838
394.962
383.044
371.374
360.264
350.056
341.104
333.749
328.361
325.492
325.946
331.096
343.317
366.013
403.251
458.719
533.581
623.065
713.537
776.166
801.549
798.942
775.306
737.207
690.962
642.212
595.814
555.882
525.593
506.736
499.298
501.433
509.941
521.088
531.458
538.625
541.558
540.715
537.723
534.588
534.116
534.654
535.838
537.313
538.756
539.921
540.681
541.1
541.31
541.134
540.556
539.749
538.739
537.497
535.947
533.965
531.396
528.074
523.838
518.552
512.122
504.511
495.742
485.883
475.044
463.365
451.005
438.138
424.941
411.594
398.268
385.126
372.315
359.973
348.222
337.172
326.921
317.55
309.121
301.676
295.235
289.795
285.332
281.797
279.132
277.264
276.105
275.546
275.455
275.662
275.872
275.853
275.343
274.094
271.905
268.654
264.328
259.046
253.062
246.742
240.51
234.753
229.726
225.478
221.83
218.417
214.802
210.622
205.765
200.502
195.599
192.423
193.109
200.817
219.918
255.467
310.432
379.245
441.76
470.466
456.669
423.639
396.538
380.198
369.8
361.666
354.983
348.882
342.889
2597.43
800.986
435.48
370.658
346.022
329.451
316.136
304.757
294.691
286.24
279.102
273.27
268.944
266.315
265.466
266.35
268.793
272.521
277.185
282.441
287.774
293.626
300.309
307.796
315.942
324.528
333.354
342.297
351.326
360.569
370.431
381.6
395.049
411.747
432.018
455.178
479.362
501.855
520.088
532.466
539.622
542.531
541.954
538.432
532.38
524.142
514.049
502.452
489.684
476.051
461.802
447.569
434.143
421.311
409.208
397.84
387.324
377.879
369.877
363.914
361.057
362.837
370.878
387.707
416.566
460.638
521.389
595.862
673.789
733.767
760.201
759.811
739.427
705.497
664.022
620.212
578.322
541.798
513.332
494.603
485.87
485.789
491.693
500.239
508.221
513.298
514.525
512.54
509.25
506.969
507.241
509.248
511.556
513.701
515.279
515.985
515.643
514.164
511.737
508.784
505.469
501.808
498.014
494.255
490.625
487.147
483.77
480.384
476.827
472.91
468.426
463.193
457.068
449.95
441.798
432.633
422.535
411.63
400.078
388.059
375.767
363.39
351.109
339.087
327.474
316.403
305.99
296.342
287.548
279.682
272.795
266.919
262.062
258.205
255.31
253.33
252.203
251.854
252.193
253.108
254.457
255.965
257.448
258.659
259.334
259.218
258.096
255.832
252.398
247.896
242.566
236.757
230.871
225.27
220.186
215.658
211.527
207.494
203.234
198.544
193.511
188.656
185.091
184.717
190.495
206.669
238.366
289.15
354.912
417.609
451.873
448.296
423.89
399.504
381.965
369.482
359.747
352.065
345.188
337.944
2486.06
664.484
410.131
373.245
353.129
337.962
325.54
314.864
305.524
297.33
290.177
284.141
279.434
276.268
274.768
274.924
276.578
279.479
283.462
288.677
294.342
300.785
308.161
316.584
326.151
336.991
349.33
363.512
379.965
399.116
421.252
446.33
473.744
502.133
529.464
553.498
572.358
585.291
592.566
595.131
594.778
592.035
587.055
579.897
570.611
559.31
546.213
531.659
516.095
500.042
484.048
468.611
454.075
440.659
429.208
419.2
410.439
402.848
396.724
392.765
392.235
397.151
409.208
430.829
464.59
512.03
571.647
636.451
691.58
720.054
723.598
707.927
679.019
642.536
603.334
565.283
531.389
504
484.739
474.177
471.551
474.832
481.201
487.764
492.297
493.852
492.996
491.484
491.263
493.275
497.181
501.18
504.544
506.819
507.619
506.702
504.015
499.581
493.729
487.127
479.98
472.512
464.996
457.69
450.783
444.385
438.525
433.157
428.17
423.399
418.634
413.648
408.225
402.165
395.325
387.633
379.091
369.758
359.75
349.216
338.327
327.262
316.194
305.287
294.69
284.538
274.956
266.056
257.943
250.702
244.401
239.084
234.774
231.469
229.151
227.784
227.32
227.692
228.82
230.607
232.928
235.522
238.246
240.88
243.169
244.843
245.642
245.352
243.838
241.076
237.173
232.369
227.009
221.476
216.103
211.092
206.468
202.093
197.736
193.192
188.429
183.755
180.005
178.765
182.68
195.714
222.902
268.323
329.624
391.628
431.208
437.582
422.028
401.536
384.129
370.595
359.967
351.396
343.227
334.214
2256.69
585.26
415.584
383.96
364.815
350.462
338.875
329.031
320.422
312.765
305.905
299.863
294.803
290.931
288.443
287.521
288.38
291.338
296.81
302.908
310.006
318.387
328.356
340.233
354.35
371.046
390.625
413.256
438.837
466.847
496.268
525.637
553.206
577.269
596.617
610.829
620.361
626.294
629.859
631.992
633.216
632.345
628.958
622.727
613.453
601.109
585.88
568.198
548.729
528.321
507.911
488.45
470.82
455.661
443.199
433.268
426.124
421.02
417.843
417.09
419.86
428.367
444.203
469.289
505.038
550.93
602.673
650.509
680.129
688.299
678.421
655.378
624.313
589.774
555.37
523.845
497.311
477.35
464.817
459.528
460.17
464.571
470.284
475.278
478.53
480.272
481.713
484.191
488.259
493.495
499.15
504.033
507.506
509.042
508.266
505.046
499.385
491.815
482.647
472.231
461.122
449.714
438.333
427.292
416.844
407.161
398.335
390.38
383.243
376.81
370.907
365.32
359.79
354.072
347.972
341.348
334.118
326.262
317.822
308.882
299.565
290.007
280.356
270.757
261.349
252.269
243.644
235.599
228.252
221.703
216.036
211.31
207.567
204.826
203.084
202.316
202.482
203.527
205.38
207.957
211.142
214.693
218.501
222.368
226.053
229.29
231.799
233.325
233.663
232.693
230.41
226.938
222.532
217.538
212.321
207.183
202.293
197.664
193.186
188.706
184.153
179.688
175.902
174.057
176.405
186.498
209.082
248.526
304.188
364.195
408.034
423.51
416.81
401.387
385.679
372.343
361.499
352.079
342.096
330.89
1966.35
542.921
426.172
397.503
379.12
365.686
355.204
346.611
339.316
332.954
327.312
322.369
318.282
315.332
313.88
314.33
317.055
322.303
328.359
335.598
344.644
355.747
369.194
385.269
404.187
426.018
450.593
477.405
505.562
533.84
560.863
585.384
606.558
624.126
638.453
650.353
660.77
670.43
679.606
688.045
694.798
698.343
698.3
694.331
686.148
673.562
656.585
635.541
611.147
584.452
556.671
529.145
503.402
480.982
463.028
449.899
441.303
436.63
435.48
437.628
443.53
454.838
473.008
499.101
533.166
572.833
612.09
640.761
653.106
649.474
632.987
607.881
578.307
547.684
518.606
493.044
472.541
458.161
450.234
448.161
450.498
455.37
461.035
466.392
471.19
475.853
481.007
486.958
493.585
500.565
507.227
512.322
515.126
515.168
512.213
506.236
497.835
487.207
474.723
460.819
446.075
431.01
416.049
401.526
387.726
374.86
363.059
352.383
342.829
334.333
326.769
319.981
313.743
307.809
301.949
295.962
289.694
283.048
275.981
268.505
260.674
252.575
244.318
236.021
227.812
219.82
212.18
205.025
198.485
192.675
187.69
183.61
180.493
178.372
177.25
177.107
177.903
179.591
182.107
185.382
189.316
193.702
198.462
203.411
208.324
212.938
216.973
220.15
222.221
222.996
222.382
220.401
217.21
213.083
208.368
203.412
198.482
193.714
189.121
184.631
180.187
175.876
172.107
169.854
170.969
178.511
196.772
230.135
279.369
335.95
382.435
405.696
407.47
397.863
385.064
372.836
362.022
351.574
339.734
326.609
1652.37
514.283
439.574
412.96
395.438
383.152
374.113
367.248
361.923
357.731
354.423
351.946
350.434
350.12
351.265
354.095
358.772
364.764
371.575
380.451
391.568
405.093
421.174
439.876
461.119
484.603
509.765
535.793
561.727
586.635
609.836
631.061
650.483
668.6
686.004
703.111
719.951
736.114
750.886
763.417
772.465
778.282
780.68
779.351
773.849
763.612
748.101
727.078
700.903
670.543
637.109
601.655
565.686
531.563
502.133
479.478
464.131
455.468
452.586
455.274
462.679
475.207
493.606
517.993
547.262
577.945
603.653
618.665
620.838
611.128
592.416
568.192
541.644
515.283
491.009
470.329
454.428
444.027
439.16
439.118
442.675
448.492
455.492
462.992
470.62
478.238
485.929
493.946
502.434
510.895
517.882
522.219
523.482
521.379
516.068
507.758
496.683
483.19
467.724
450.799
432.965
414.77
396.717
379.202
362.516
346.885
332.455
319.314
307.488
296.955
287.643
279.446
272.189
265.646
259.582
253.77
248.009
242.143
236.06
229.705
223.069
216.188
209.128
201.982
194.86
187.888
181.197
174.928
169.214
164.178
159.929
156.56
154.137
152.691
152.229
152.733
154.165
156.471
159.59
163.46
167.994
173.053
178.593
184.445
190.396
196.196
201.569
206.222
209.877
212.297
213.316
212.874
211.032
207.984
204.027
199.509
194.749
189.98
185.316
180.776
176.35
172.103
168.33
165.778
165.933
171.35
185.766
213.332
255.801
307.669
354.902
384.266
393.76
390.208
380.993
370.374
359.688
348.247
334.985
320.657
1334.01
509.495
454.937
429.754
413.313
402.37
394.981
390.084
387.024
385.339
384.688
384.896
385.959
387.986
391.181
395.818
402.204
408.816
417.309
427.877
440.646
455.693
473.022
492.517
513.906
536.743
560.435
584.327
607.831
630.569
652.449
673.648
694.469
715.158
735.728
755.878
775.024
792.43
807.392
819.445
828.286
834.815
838.947
840.588
839.437
834.783
825.467
810.25
788.642
761.531
730.181
694.832
655.217
612.318
569.805
532.642
504.468
486.2
476.873
475.21
480.227
491.331
507.49
527.814
550.491
571.819
587.331
593.795
590.243
577.899
559.254
537.055
513.709
491.1
470.7
453.651
441.097
433.662
431.038
432.612
437.545
444.994
454.139
464.098
474.024
483.523
492.994
502.958
513.184
522.1
528.047
530.695
529.981
525.942
518.597
508.092
494.677
478.721
460.703
441.184
420.758
399.99
379.381
359.383
340.33
322.443
305.875
290.718
277.017
264.765
253.917
244.381
236.025
228.662
222.072
216.032
210.328
204.773
199.219
193.564
187.755
181.783
175.68
169.507
163.356
157.335
151.568
146.19
141.332
137.125
133.682
131.096
129.43
128.717
128.957
130.123
132.167
135.036
138.678
143.034
148.01
153.554
159.645
166.147
172.881
179.619
186.092
192.002
197.051
200.962
203.514
204.575
204.124
202.268
199.239
195.353
190.949
186.317
181.656
177.068
172.601
168.333
164.5
161.684
161.068
164.739
175.852
198.149
233.926
280.137
326.194
359.718
375.866
378.234
372.893
364.16
353.796
341.77
327.912
313.333
1036.2
510.65
470.885
447.352
432.28
422.795
417.051
414.025
413.06
413.672
415.48
418.272
421.99
426.659
432.326
439.002
446.001
454.306
464.317
476.17
489.943
505.642
523.181
542.357
562.851
584.242
606.067
627.897
649.431
670.536
691.241
711.647
731.817
751.693
771.064
789.606
806.928
822.67
836.568
848.554
857.445
863.378
866.661
867.963
867.985
866.905
863.784
856.445
842.685
822.892
799.713
774.351
744.758
707.32
661.749
612.984
568.955
535.649
514.587
504.391
503.05
508.891
519.781
533.934
549.171
562.384
570.391
571.12
564.227
550.908
533.093
512.696
492.104
472.69
455.578
441.738
431.948
426.687
425.812
428.96
435.618
445.083
456.331
468.083
479.384
490.187
501.225
512.672
523.169
530.995
535.433
536.577
534.31
528.581
519.432
507.028
491.624
473.59
453.421
431.705
409.074
386.14
363.437
341.418
320.45
300.77
282.525
265.809
250.665
237.09
225.036
214.413
205.093
196.915
189.687
183.202
177.259
171.673
166.286
160.979
155.673
150.334
144.963
139.6
134.311
129.186
124.335
119.876
115.94
112.644
110.09
108.362
107.523
107.606
108.607
110.464
113.1
116.457
120.486
125.145
130.352
136.157
142.509
149.315
156.46
163.769
171
177.863
184.045
189.237
193.171
195.646
196.565
195.951
193.959
190.853
186.96
182.6
178.033
173.43
168.902
164.556
160.605
157.517
156.241
158.459
166.766
184.403
213.844
253.85
297.012
332.631
354.122
362.072
360.798
354.292
344.711
332.829
319.323
305.358
776.946
513.465
487.565
466.518
453.429
445.71
441.725
440.508
441.388
443.815
447.342
451.709
456.813
462.652
469.321
477.014
485.179
494.675
505.648
518.198
532.366
548.12
565.335
583.788
603.167
623.099
643.206
663.174
682.801
702.026
720.919
739.645
758.424
777.479
796.937
816.71
836.406
855.265
872.101
885.397
893.167
895.958
894.24
889.119
882.434
876.169
871.291
866.33
857.131
841.705
823.543
807.668
795.046
779.861
753.549
711.914
660.299
610.392
571.767
547.266
535.091
532.236
535.494
542.387
550.458
556.925
559.253
555.889
546.73
532.839
515.818
497.138
478.582
461.428
446.609
434.936
427.03
423.296
423.791
428.348
436.544
447.547
460.058
472.667
484.677
496.436
508.518
520.36
530.357
537.301
540.755
540.7
537.006
529.673
518.825
504.663
487.45
467.548
445.449
421.766
397.171
372.32
347.797
324.081
301.542
280.426
260.876
242.974
226.756
212.209
199.275
187.853
177.806
168.975
161.185
154.253
147.997
142.251
136.868
131.732
126.759
121.9
117.141
112.501
108.026
103.788
99.8774
96.4058
93.4815
91.2075
89.6774
88.9675
89.1242
90.1521
92.0125
94.614
97.8605
101.669
105.975
110.741
115.965
121.825
128.253
135.162
142.455
150.013
157.656
165.12
172.094
178.252
183.289
186.951
189.072
189.6
188.613
186.315
182.999
178.99
174.582
170.004
165.416
160.961
156.847
153.475
151.618
152.634
158.633
172.335
196.122
229.911
268.89
304.505
329.631
342.451
345.305
341.494
333.42
322.541
310.122
297.221
608.51
515.278
500.697
483.032
472.609
467.084
465.14
465.923
468.774
473.073
478.318
484.237
490.746
497.844
505.532
513.899
523.066
533.382
544.956
557.866
572.134
587.71
604.458
622.153
640.493
659.132
677.726
696
713.803
731.154
748.283
765.678
784.044
804.124
826.347
850.395
874.928
897.688
916.268
926.792
932.898
934.239
929.97
919.729
904.903
888.315
873.045
860.598
847.655
829.967
808.815
790.663
782.359
784.327
787.579
777.829
746.061
696.886
645.116
603.751
576.957
562.612
556.467
555.318
556.296
556.673
554.178
547.474
536.484
522.07
505.506
488.004
470.869
455.254
441.997
431.8
425.218
422.649
424.26
429.956
439.253
451.141
464.19
477.096
489.471
501.794
514.252
525.894
535.346
541.721
544.483
543.429