/*--------------------------------*- C++ -*----------------------------------*\
| =========                 |                                                 |
| \\      /  F ield         | OpenFOAM: The Open Source CFD Toolbox           |
|  \\    /   O peration     | Version:  2112                                  |
|   \\  /    A nd           | Website:  www.openfoam.com                      |
|    \\/     M anipulation  |                                                 |
\*---------------------------------------------------------------------------*/
FoamFile
{
    version     2.0;
    format      ascii;
    arch        "LSB;label=32;scalar=64";
    class       volScalarField;
    location    "0.04";
    object      pPrime2Mean;
}
// * * * * * * * * * * * * * * * * * * * * * * * * * * * * * * * * * * * * * //

dimensions      [0 4 -4 0 0 0 0];

internalField   nonuniform List<scalar> 
122250
(
38383.6
20882.5
30118.1
21023.5
22505.4
16518.6
18435.9
16411.8
16702.3
16015.1
15808.7
15530
15246.2
14967.3
14682
14384.8
14049.3
13614.2
37706.6
21179
29785.7
20451.6
22187.9
16500
18449.5
16439.7
16735.8
16041.8
15830
15550.3
15265.3
14985.1
14697
14401.6
14077.3
13739.5
40157.6
18991.5
29930.2
20872
22248.7
16642.5
18514
16522.4
16823
16105.9
15873.7
15582.6
15291.8
15009.6
14721.1
14429.1
14122.8
13800.8
44463.2
17437.1
31322.8
22012
22519.2
17019.8
18599.1
16593.4
16916.4
16186.9
15937.2
15637.3
15339
15050.9
14762.2
14475.4
14181.1
13888
47826.3
16702.3
34141.6
23276
22805.9
17401.8
18686.1
16654.7
16978.4
16249.4
15995.5
15695
15389.3
15096.1
14807.8
14524.7
14244.3
13973.2
50070.4
17146.3
38195.8
25234.3
23368.9
17805.9
18773.9
16717.3
17008.6
16279.7
16027.6
15737.3
15436.2
15146.9
14859.8
14582.4
14316.3
14063
50640.9
18907
41443.8
26972.3
23609.8
18172.5
18877.6
16765.4
17019
16296
16044.5
15752.3
15462
15189
14914.4
14648.7
14394.2
14153.3
50694.2
19583
41810.5
27197
23179.8
18289.4
18942.8
16777.7
17009.9
16308.6
16068.5
15772.7
15486
15220.5
14956.9
14701.4
14457.8
14229.6
49783.4
19209.3
38105.9
27086.3
22906.8
18178.8
18893.3
16773.9
17007.7
16328.6
16099.6
15808.5
15526.6
15262.2
15000.9
14750.4
14515.3
14298
50136
17449.3
31428.9
24983.8
22698.7
17998.3
18810.2
16810.3
17038.1
16372.4
16139.2
15855.4
15576.7
15312.2
15052.7
14807.7
14579.7
14369.5
50261.8
16067.1
25232
21866.2
22303.2
17591.2
18686.3
16853.7
17069
16426.6
16185
15903.6
15623.1
15359.8
15105.3
14866.7
14645.3
14440.5
50335.8
15678.6
21864.3
17925.6
21391
17539.4
18479
16905.6
17097
16482.1
16226.3
15945.9
15665.9
15403.3
15153.5
14921.1
14706.9
14508.8
49791.6
17753.2
20823.5
15766
20291.1
17173.5
18360.3
16961.9
17134.4
16546.4
16275.3
15992.3
15711.3
15448.9
15202.5
14975.9
14768.8
14578
53492.9
22126.4
20891.5
16139.6
20234.8
16996.8
18354.9
17060.4
17185.9
16647.1
16346.7
16057.5
15772.2
15508.9
15264
15042.6
14841.7
14657.4
62338.7
30309.7
21828.9
18214.6
20476.6
17541.8
18482.6
17338.2
17249.8
16777.3
16434.3
16132.5
15842.2
15573.7
15327.5
15104.7
14903.6
14721.6
68847
37794.7
24271.2
22184.4
20297.8
18721.4
18672.3
17796.7
17383.2
16928.3
16542.6
16208.8
15905
15629.9
15382.1
15158.9
14957.2
14776
84211.3
46241.4
28381.3
25481.5
21264.7
19890.5
18973.6
18169.6
17517.9
16996.8
16567
16211.6
15906.4
15638.9
15401.3
15188.7
14998.6
14828.1
88117
46963.5
32013.5
25503.7
21269.2
20090.6
19053.8
18242.1
17540.4
16996.3
16554.8
16207.3
15916.4
15668.6
15450
15251.9
15073.4
14913.3
76668
35778.2
29341
21248.2
19157.1
18381.5
18060.3
17379.2
16983.4
16615
16294.5
16042.2
15810.3
15611.8
15430.1
15262.8
15106.9
14963.2
70040.9
21411.1
22873
16143.2
17337
16001.3
17070.9
16250.2
16495.8
16105.2
15988.3
15799.8
15630.8
15478.8
15332.1
15193.4
15061.4
14937.2
79125
17282.9
17177.4
13072.8
16700
15024.4
16781.1
15764.1
16294.8
15801
15830.2
15647.3
15518.9
15393.3
15267.7
15146.1
15029
14920.5
83663.1
13844.5
15281.9
12113.5
17318.5
14849.2
16929.2
15569.3
16271.7
15654.4
15761.2
15557.7
15464.5
15353.5
15236.4
15124.3
15018.2
14922.7
86841.6
10005
16079.7
13008.1
18261
14947.4
17292.2
15439.4
16352.9
15610.7
15786.1
15540
15462.7
15340.8
15214.4
15098.5
14995.2
14902.5
79928.4
9669.2
18719.9
15390.2
18924.3
14947.4
17456.1
15343.4
16350.4
15483.7
15749.1
15444.6
15364.4
15241
15127.2
15022.2
14926.7
14840.6
68978.9
11304.2
24830.8
16950.3
18897.6
15189.8
17501.9
15220.8
16298
15391
15683.8
15350.1
15293.8
15179.3
15082
14990
14899.2
14813.1
67834.5
11728.9
26535.8
15633.8
18397.4
15017
17361.7
15116.8
16275.3
15329.9
15623.3
15292.7
15267.1
15157
15059.3
14968
14880.3
14796.6
62001.5
12648.8
24122.9
13542.7
18070.6
14825.5
17335.2
15063.8
16210.5
15225.9
15539.2
15213.5
15207.3
15103.7
15011.6
14926.6
14848.1
14772.7
52628.5
17755.8
21360.6
12413
18041.7
14776.5
17395.5
15030.7
16126
15120.9
15448.6
15126.6
15126.9
15024.1
14941
14865.9
14797
14729.6
45823.4
23842.2
21214.4
12812.9
18281.7
14885.7
17503.2
15011
16049.5
15039.2
15382.6
15071.6
15079.6
14979.5
14897.6
14823.5
14760.4
14699.2
46705
24122.4
21094.7
13150.8
18554.4
14921.1
17436.5
14884
15947.8
14961.9
15321.1
15018.7
15036.3
14942.9
14871.7
14805.8
14744.6
14682.3
39194.8
19817.6
29431.9
20533.6
22360
16651.8
18676.4
16582.6
16827.2
16106.6
15880.5
15579.3
15275.5
14987.1
14698.8
14400.7
14060.8
13617.5
38642.9
20547.2
29269.8
19968
21985.5
16585
18724.1
16640.6
16884.2
16156.7
15921.1
15620
15312.6
15020
14728.9
14430.4
14099
13751.3
41163
18766.3
29105.9
20689.2
21941.1
16570.7
18733.6
16690.4
16951.7
16214.6
15956.9
15645.9
15335.5
15046.2
14758.1
14463.8
14150.4
13820.4
45849.9
17868.7
30893.1
22163.5
22327.4
16987.1
18773.5
16712.1
16994.8
16263.7
15998.3
15685.3
15376.3
15089.2
14802.4
14513.2
14213.6
13913.5
49666
17718
34037.7
23352.8
22681.2
17407.8
18818.6
16739.1
17005.1
16282.5
16020.9
15716.2
15412.3
15127.7
14845
14562
14277.2
13999
52277.4
18006
37866.8
25239.1
23245.5
17770.6
18847.5
16765.3
17004.3
16276.4
16018.7
15723.5
15436.7
15169.4
14896.5
14620.6
14347
14084.1
52206.6
19207.3
41309.7
27109.5
23547.9
18142.1
18872.2
16785.2
16994.8
16271.1
16020.8
15728.6
15453.6
15197.5
14933.9
14669.1
14408.2
14159.6
51720.4
19094.6
41822.9
27812.9
23302.6
18358.3
18878.2
16771
16978.7
16272.6
16040
15755.6
15484.2
15228.1
14969.6
14713.2
14463.4
14228
49777.1
19193.8
37693.3
28145.2
23244.5
18415
18889.2
16756.8
16980.4
16291.3
16071.8
15797.1
15526.6
15268
15011.9
14762.3
14523.1
14299.1
50739.4
18187.4
31652.1
26093.9
23115.4
18250.5
18838
16793.1
17014
16342.6
16119.1
15845.6
15572.5
15312.3
15058
14815
14585.1
14371.2
51592.1
16758.4
25454.5
22781.5
22683
17788.8
18695.5
16839.6
17058
16414.5
16175.3
15896.6
15619.3
15359.7
15108.6
14871.3
14648.8
14442
51443.3
16778.3
22527.7
17939.6
21760.9
17698.1
18508.3
16904.5
17099.4
16484.4
16226.7
15943.5
15663.1
15404.3
15159.1
14928.8
14713.6
14513.1
51012.2
19259.8
21605.2
15471.9
20423.1
17160.1
18391.2
16965.6
17147.3
16556.6
16281.3
15992.4
15708.8
15449.1
15207.2
14984.3
14777.6
14586.1
53370.4
22879.9
21036.3
16023.3
20293.9
16980
18370.6
17071.7
17200.1
16658.9
16354.6
16060.2
15771.3
15507.9
15265.4
15046.3
14846.2
14662.5
62046.3
30524.7
21747
18133.4
20498.2
17519.1
18504.2
17353.7
17267.1
16791.4
16441.9
16133.8
15839.1
15570.3
15325.4
15103.2
14901.2
14717.3
67968.3
37884.2
24000
22153.4
20316.4
18749.5
18691.7
17816
17402.8
16945.3
16552.4
16213.3
15903.3
15624.7
15375.7
15152.7
14952.4
14771.3
82665.1
47584.1
28090.7
25370.3
21293
19945.3
18998.1
18188
17530.8
17004.2
16568.5
16209.9
15902.4
15634.6
15397.5
15187.2
15000.1
14832.1
84100
48427.5
29974.7
25532.6
21310.7
20149
19060.9
18237.9
17534.4
16994.1
16553.7
16208.9
15920.3
15675.6
15456.8
15258
15079.1
14918.2
72812.5
38109.5
30089.8
21325.8
19043.1
18334.1
18056.1
17371
16983.9
16610.5
16287.9
16036
15809
15614.9
15432.1
15262.9
15105.1
14960
69016.8
25259.6
22629.9
15883.7
17263.8
15967.5
17050.5
16230.5
16499.7
16106.8
15993.7
15801.6
15631.4
15477.7
15328.9
15189
15056.4
14932.4
78427.9
20302.5
17751.4
12950.1
16669
15016.4
16844.1
15787.9
16320.6
15823.6
15857.4
15670.6
15538.4
15407.3
15274.3
15148.6
15030.1
14921.3
83954
16841.8
16761.7
11808.6
17431.3
14877.2
16863.1
15530.8
16267.5
15646.6
15785.7
15582.1
15489.3
15373.1
15249
15130.1
15021.3
14924.8
88097.6
13798.1
18858.7
12667.6
18172
14795.7
17140.3
15345.2
16335.3
15609.1
15820.2
15575
15490.9
15369.9
15244.9
15125.6
15014.6
14915.8
83583.2
12057.9
20421.9
14776.2
19147.2
15049.4
17340.5
15271.1
16349.1
15513.9
15786.5
15496.9
15413.7
15283.8
15168.9
15064.1
14963
14868.8
72822.7
12409.4
24839.6
16979.7
19191.4
15190.3
17398.8
15178.1
16289.5
15378.6
15699.1
15392.6
15340
15223.4
15122.2
15026.1
14931.1
14837.8
69325.5
13100
26514.8
15699.8
18799.5
15033.3
17317.4
15101.9
16250.3
15297.8
15622.4
15307
15285.3
15178
15079.2
14980.8
14887.6
14800.4
60045.9
14355.3
24344.6
13566.1
18215.7
14926.1
17319
15034
16150.5
15186
15531.1
15223
15228.4
15132.7
15040
14946.7
14865.4
14791.4
50543.2
19177.8
21339.3
12580
18170.5
14823.1
17358.2
14963.9
16060.3
15081
15442.1
15146.5
15164.7
15066.4
14978.9
14895
14820.3
14747.9
43678.8
24630.6
21777.4
13099.6
18321
14856.6
17452.5
14947.8
16010.2
15019.4
15383.5
15091.5
15109.9
15011.5
14931.6
14858.7
14790.5
14720.5
44129.5
24788.2
22243.7
13426.1
18702.9
14948.4
17425.4
14853.4
15911
14935.3
15309.8
15022
15051.4
14963.1
14894
14830.2
14767.6
14698.7
41111.5
18088.2
29051.7
20127.7
22331.4
16830.8
18848.7
16643.9
16843.7
16103.8
15862.2
15552.8
15260.6
14982.5
14694.7
14391.8
14052.1
13614.1
41002.9
19072.5
28438.7
19476.7
21989.7
16967.6
18993.7
16759.9
16923.6
16154.7
15901.3
15590.7
15298.9
15020.3
14730.2
14425.1
14090.9
13745.3
43414
17997.9
27842.5
20103.8
21859.5
16889.6
18993.7
16803.3
16964.8
16190.4
15923.3
15613.4
15326.1
15051
14762.7
14461.3
14140.9
13810.2
47026.5
17901
29845.2
21862
22267.1
17206.9
18971.1
16814.2
16992.7
16242.3
15968.3
15658.4
15368.7
15092.1
14804.1
14506.2
14200.4
13900.6
50195.2
18393.2
33211.7
23105.3
22586.6
17619.4
18964.2
16818.3
16995.6
16264
15997.6
15692.7
15401.2
15126.8
14844.5
14557
14268.2
13989.4
52775.6
18228.7
36857.3
24785
23060.3
17901.9
18949.8
16819.8
16985.6
16261.3
16006.7
15708
15423.5
15160.5
14890.3
14615.2
14339.7
14075.8
52547.9
18590.6
39684.1
26636.5
23429.4
18201.2
18914.1
16796.1
16970.2
16255.3
16015.4
15724.7
15450
15194.4
14931.9
14667.1
14404.8
14154.8
52047.7
18384.7
40510.8
27669.1
23356.2
18360.8
18903.2
16769.2
16967
16258.9
16035.9
15760.7
15491.1
15235.7
14974.5
14715.7
14464.6
14228.7
50320.3
18243.1
37404.3
28174.7
23342.8
18362.1
18868.8
16771.6
16987
16289.4
16075
15807.8
15535.2
15275.2
15013.6
14760.3
14520
14296.9
51705.2
17677.2
31999.1
26253.7
23186.4
18213.2
18785.6
16790.8
17020.7
16344.2
16122.2
15852
15576.5
15313.7
15054.4
14808.5
14578.4
14365.7
52585.5
16875.1
26318.5
23056.6
22883.4
17764.6
18638.3
16821.5
17057.7
16417.5
16180.6
15903.3
15622.6
15356.9
15100.4
14860.6
14638.9
14434.1
51849.3
17439.9
23575.8
17969.6
21918.1
17681.3
18462.2
16889.3
17102.7
16489.2
16235
15951.1
15665.7
15399.2
15147.5
14915.2
14701.6
14503.8
50562.5
19902.9
22169.5
15238.8
20423.5
17124.7
18373.4
16953.2
17149.2
16560.1
16286.8
15999.2
15712.9
15448.1
15200.8
14975.2
14769.3
14578.9
52149.1
23133.4
20972.5
15823.8
20262.3
16956.4
18355.3
17069.9
17202.1
16658.7
16355.9
16064.1
15774.9
15511.5
15267.1
15046.9
14845.5
14659.8
61042.2
30795.1
21439.9
18057.6
20487.6
17515.2
18512.5
17362.4
17276.6
16798.1
16443.3
16136.1
15838.3
15569.4
15323.4
15101.7
14899.5
14712.9
69317
38563.6
23639.2
21970.5
20299.2
18745.2
18687.8
17818.2
17410.2
16959.4
16559.9
16217.4
15902.9
15623.7
15375
15152.2
14950.7
14768.3
83427.9
48156.8
27619.6
25230.6
21295.7
19918.5
19014.7
18202.1
17534.8
17004
16562.2
16200
15893
15628.1
15394.5
15186.7
15000.7
14833.2
82699.3
48151.8
29233.5
25694.1
21220.8
20066.6
19048.4
18234.8
17525.2
16986.3
16547.6
16204.7
15916.8
15672.1
15452.6
15254.3
15076.6
14916.8
67875.5
39446.6
29407.2
21124.2
18956.8
18302.5
18063
17374.5
16982.9
16607.8
16282.1
16036.9
15813.4
15622.3
15436.6
15263.9
15104.5
14959.7
66751.3
26118.2
21743.5
15565.5
17208.5
15855.3
17065.8
16225.4
16516.4
16124.7
16008.2
15816.2
15642.6
15485.5
15333.4
15192.2
15058.7
14934.9
65965.8
20048.5
17249.3
12569.2
16576.2
15078.3
16842.1
15785.4
16328.1
15852.2
15884.3
15698.7
15563.2
15426.8
15288.6
15161.3
15042.4
14934
70837.9
15079.6
15313.3
11830.6
17323.1
14816.4
16769.6
15431.1
16216.6
15622.3
15791.3
15593.2
15501.1
15384.1
15258.3
15141.4
15032.4
14934.5
80107.3
14141.1
15638.8
12357.2
17984
14786.1
16993.4
15198.9
16257.2
15552.8
15803.3
15567.5
15487.1
15368.6
15247.6
15134.3
15024.4
14923.3
72687.2
14501
19709.2
14690.8
18849.6
14987.7
17204.3
15141.7
16311.5
15510.1
15768.5
15492.3
15418.9
15284.8
15171.3
15072.9
14971.3
14871.3
60273.5
17056.9
25404.8
16307.5
18890.3
15133.9
17255.3
15130.8
16278.8
15377.6
15677.5
15384.5
15343.6
15223.7
15121.3
15029.2
14936.7
14845.9
58943.3
17686.2
26730.1
15059.7
18611.4
15018.8
17265.8
15055.6
16224
15294.9
15626.9
15318.5
15292.8
15177.4
15076.5
14980.8
14889.7
14805.8
54113
19039
23360.2
12896.7
18247.8
14876.9
17316.6
14987.9
16136.7
15187.6
15540.5
15242.1
15241.5
15138.4
15041.3
14947.9
14866.5
14796.5
46844.1
23652.8
21147.6
11976.4
18222.5
14735
17340.8
14915
16049.8
15081.1
15462.2
15182.9
15198.4
15090.1
14989.1
14904.2
14840.8
14779.2
40662
28454.5
22316.7
12502.9
18350.9
14751.5
17330.3
14857.7
15966
15002.5
15402.5
15128.1
15150.5
15046.3
14951.6
14875.2
14824.6
14766.3
41279.6
27142
23356.2
12816.5
18727.6
14768.9
17274.6
14780
15881.1
14931.6
15329.3
15050.8
15080.6
14993.2
14919.7
14853.6
14795.5
14730.5
42267.2
14942.8
29626
21193.2
22221.1
16658
18751.9
16545.5
16774.5
16056.9
15815.4
15498.1
15212.2
14939.5
14657.2
14360.3
14027.9
13600.8
42414.1
16069.2
28502.5
20761.5
21955
16850.7
18884.1
16642.3
16834.4
16096.5
15845.2
15522.2
15236
14964.1
14682.9
14387.7
14063.3
13728
44673.4
16578.1
27410.1
21308.7
21864.1
16833.6
18854.2
16676.6
16860.8
16121
15873
15554.6
15266.7
14995.1
14715.6
14424.7
14115.1
13794.3
47652.4
18228.2
29321.8
22792.4
22295.3
17182.8
18830.8
16705.3
16894.7
16162.7
15916.6
15604.8
15317.8
15048.1
14770.7
14482.9
14183.4
13888.5
50196.4
19270.9
32213.7
23928.4
22717.5
17654.4
18828.1
16740.9
16916.3
16189.4
15943.7
15643.8
15361.2
15096.3
14823.6
14543.5
14257.8
13980.7
52349.7
18524.5
35397.2
25546.8
23315.5
18013.4
18842.2
16782.8
16933.3
16209.5
15966
15676.1
15401.8
15143.9
14877.1
14604.5
14331
14070
52042.1
17763.4
38511.4
27404.6
23872
18333.3
18848.9
16800.1
16945
16228
15995.4
15714.5
15444.3
15191.1
14930.7
14666.8
14404
14155.3
52040.6
17086.4
39776.8
28313.7
23787.2
18421
18835.6
16790
16962.3
16254.1
16033.5
15763
15492.6
15235.5
14976.4
14720.9
14471
14234.6
50896
17328.2
37101
28543.1
23591.4
18305.5
18784.3
16772.6
16982.9
16292.3
16080.4
15811.8
15537.7
15276.9
15017.4
14766.7
14528.2
14305.6
52503
17289.4
32299
26198.5
23285.1
18139.8
18712
16776.2
17014.1
16345.4
16128.2
15854.1
15576.9
15315.4
15059.5
14814.9
14584.5
14371.1
53347.6
16797.3
25959.5
22730.4
22880.6
17702.4
18571.8
16798.9
17050.2
16414.2
16182.6
15900.6
15619
15357.1
15105.5
14867.8
14644.8
14437.2
52315.2
17672.1
23086.7
17836.6
21933.3
17634.8
18415.8
16870.9
17096.1
16484.8
16232.6
15946.7
15663
15400.5
15152.1
14920.6
14705.2
14504.6
50485.9
20118.3
22137.5
15241.7
20471.4
17077.1
18347.1
16940.1
17141.2
16552.1
16279.9
15992.3
15707.8
15445.5
15200.6
14976.1
14768.5
14574.8
51432
23240.8
20912.2
15909.1
20306.7
16923.9
18328.1
17046.9
17188.1
16641.9
16341.3
16052.7
15768.2
15507.5
15265.5
15046.6
14843.7
14657.5
60200.4
30833.2
21494
18125.1
20495.5
17486.2
18486.7
17337.2
17255
16779.8
16425.1
16124.8
15830.6
15567.7
15324.4
15104.4
14900.5
14712.5
71608
38851.3
23475.3
21788.8
20231.9
18679.4
18662.3
17799.1
17391.1
16950.1
16549.1
16211.9
15899.8
15625.5
15379.4
15157.4
14954.9
14771.6
86776.6
48004.4
27433.5
25132.7
21255.5
19895.6
19025.2
18207.3
17533.6
17001.4
16559.1
16199.5
15896
15634
15401.6
15193.2
15005.8
14836.8
85204.4
47223.4
28767.6
25771.2
21294.5
20075.1
19085.2
18256.7
17536.2
16990
16548.9
16206.3
15918.3
15671.7
15450.4
15252.4
15076
14918.1
66119.4
36546.8
29327.7
21090.2
18994.2
18293.1
18106
17416.2
16998
16617.3
16287.7
16048.8
15828.9
15641.6
15453.5
15275.5
15111.7
14963.9
65178.5
23461.5
21363
15410
17086
15781.6
17088.8
16223
16510.9
16128.9
16015.6
15828.6
15653.3
15497.6
15345.4
15202.5
15067.8
14944.1
59103.2
17898.5
17688.1
12691.8
16723.9
15201.6
16792
15743.1
16289.1
15853
15885.3
15698.6
15560.3
15425
15292.1
15168.8
15052.8
14946.4
58522.8
12107.4
16239.8
13103.3
17583.8
15067.3
16813.8
15403.7
16148.2
15594.2
15760.1
15572
15481.3
15370.2
15254.5
15144.8
15040
14942.5
64139.7
10466.9
15504.6
13006.9
18255.3
14988.9
17053.1
15178.6
16211.2
15519.6
15774.3
15538.9
15467.3
15347.8
15227.5
15120.3
15016.7
14918.7
55706.4
12135.5
19913.3
15033.1
19428.7
15219.1
17232.9
15130.6
16325.7
15539.2
15768.3
15490.4
15423.4
15286.1
15162.2
15054.3
14954.7
14862.3
51009.3
14489.1
25130.4
15733.8
19357.6
15266.9
17296.3
15177.1
16337.1
15436.1
15686.9
15381.7
15348.7
15228.2
15114.4
15013.7
14922.8
14838.4
52292.4
15722.2
25886.2
14494.2
18763.7
15070.4
17256.2
15085.3
16231.2
15304.2
15621.4
15318.4
15298.2
15183
15080.1
14989
14905.3
14826.9
50144.7
16975.9
23464.7
12329.3
18647.7
14821.2
17269.5
14946.4
16113.2
15189.5
15545.7
15245
15233.2
15133.3
15047.9
14970.3
14895.2
14822.4
44866.1
21274.2
22173.5
11517.1
18300.3
14519
17281
14836.1
16022.4
15094.5
15478.9
15192.4
15198.9
15108.1
15027.7
14949.4
14874.3
14801
39577.5
25418.4
23245.1
11904.7
18415.4
14617.3
17211.4
14772.6
15951.4
15018.9
15429.5
15156.3
15172
15080
15007
14945.3
14883.5
14812.9
39936.3
24454.4
23732.1
12559.7
18661.5
14557.6
17107.4
14688.2
15869.4
14947.1
15364.3
15090.5
15117.4
15027.7
14960.9
14904.9
14843.8
14770.6
42986.5
12004.2
31107.4
20784.1
22165.1
16616.7
18717.2
16582.9
16829.4
16103.7
15860.7
15538.5
15240.2
14952.5
14661.8
14362.4
14029.4
13601.8
43405.2
12947.3
29716.5
20668.4
21704.7
16666.7
18817.3
16656.3
16873.9
16134.2
15887.7
15561.1
15258.7
14971.5
14683.1
14387.8
14064.7
13731.1
45827
13774.8
28405.7
21474
21599.7
16558.3
18765.6
16677.9
16901.4
16151.3
15903.8
15580.1
15278.7
14997.6
14714.9
14425.8
14118.4
13799.5
48963
16035.1
29764.8
23015
22133.1
16897.3
18734.2
16683.7
16925.6
16181.4
15932.8
15611.9
15313.5
15040.3
14764.5
14481.6
14186.6
13894.2
51593.9
17929.5
32021.6
24250.5
22570
17365
18717.7
16702.9
16941.1
16207.8
15955.8
15642.6
15353.9
15092
14823.3
14547.6
14265.1
13989.7
53501
17676.4
34434.6
25891.6
23148.8
17725
18719.2
16745.5
16964.2
16244.7
15987.5
15679.4
15398.5
15143.3
14881.8
14615.5
14345.4
14085.5
52913.6
16967.5
37201.2
27628.5
23820.3
18091.3
18735.8
16786.3
16978.2
16274.1
16021.1
15723.4
15447.8
15193.6
14936.1
14677.2
14420.4
14174.7
52796.3
16790.5
38508.7
27996.7
23803.4
18295.3
18772.3
16804.1
16995.5
16296.6
16057.4
15776.3
15503.6
15246.2
14986.9
14731.2
14484.1
14251.8
51954.1
17496.3
35936.6
27844.9
23581.6
18309.1
18775.9
16808.6
17016.2
16317
16096
15826.2
15552.3
15291.6
15032.2
14782.6
14543.9
14320.4
53482.4
17078
31212.5
25524.4
23259.3
18187.6
18744.4
16818.9
17036.9
16356.6
16141.3
15869.4
15591.9
15330.4
15073.7
14829.7
14598.1
14382.2
53815.7
16506.3
25304.8
22141.7
22792.9
17743.2
18616.8
16829.6
17059.9
16417.3
16189
15909.1
15627.8
15365.5
15112.9
14875
14650.8
14441.9
52363.5
17693.8
22610.4
17434.5
21844.6
17660.8
18459.2
16892.2
17096
16480.9
16231
15946
15663.1
15402
15154.1
14922.5
14705.9
14502.5
50327.6
20139.1
21886.9
15125.1
20417.5
17083.8
18376.8
16952.3
17138.7
16546.9
16274
15985
15702
15443.3
15200.1
14974.6
14764.4
14567.4
51140.9
23445.6
20877
15988.5
20311.7
16917.8
18333.4
17049
17183
16630.6
16331.2
16041.5
15757.2
15498.9
15258.8
15039.1
14835.2
14646.8
60674.5
30866.9
21498.7
18209.8
20468
17457.7
18463.8
17313.9
17235.2
16753.9
16406.5
16106.2
15815.5
15556.7
15315.1
15097.2
14894.9
14708.9
74199.8
39218
23215.8
21603.1
20169.2
18629.6
18646.7
17785.6
17372.1
16929.8
16530.7
16202.4
15894.5
15625.6
15380
15158.9
14958.3
14777
87738.9
49130.3
27524.9
25031.9
21277.9
19939.1
19058.6
18221.3
17544.2
17012.7
16571.6
16212.6
15908.3
15644.2
15409.2
15198
15007.5
14835.3
88017.9
47310
28622.2
25112.8
21152.1
20055.9
19109
18289.2
17564.5
17008.4
16561.3
16210.7
15919.5
15669.5
15446.9
15248.9
15073.2
14916.2
62748.8
35808.1
30142.5
20815.8
19033.1
18300.5
18096.6
17431.4
17004.9
16620.1
16282.8
16043.3
15830.3
15641.2
15447.9
15265.2
15101.1
14954.8
64683
22686
21290
14657.4
17010.2
15822.9
17107.1
16232.5
16498.2
16114.9
16000.4
15832.4
15659.7
15501.6
15344.9
15201.1
15066.9
14944.1
60882.3
15754.7
17610.5
12492.8
17182.7
15497.6
16818.6
15800.9
16254.1
15819.4
15848.1
15678
15544.8
15412.9
15281.7
15162.4
15050
14945.2
51843.1
10540.1
18313.7
14708.9
17838
15553.8
16956
15479.4
16101.9
15586.1
15723.1
15544.7
15449.6
15341.3
15226.2
15118
15017.8
14924.4
53507.7
9494.87
18389.5
14725.3
18763.3
15314.6
17229.3
15240.3
16173.6
15520.2
15739.8
15513.1
15448.6
15331.3
15206.3
15094.1
14990
14895.8
51738.7
10609.9
21088
15855.4
19914.1
15234.9
17308.4
15173.5
16319.6
15564.6
15756.9
15479.5
15425.5
15297.2
15167.6
15054.2
14954.9
14865.5
51272.9
12922.2
24433.1
15690.9
19501
15144.2
17342.9
15171.1
16344.4
15466.6
15682.2
15373.5
15346.4
15237.5
15130.3
15029.9
14939
14857.5
50698.6
14641.8
25614.9
14523.8
19085.3
15049.8
17266.1
15105.2
16226.5
15312.9
15606
15307
15299.6
15201.8
15110.2
15021
14934.7
14856.2
49397.5
16554.1
25250.2
12510.4
18994.2
14950
17253.7
14954.4
16101.4
15180.5
15527.5
15233.2
15235.2
15147.4
15071.1
14995.5
14919.6
14846.1
44856.4
21265.9
24286.2
11834.5
18233.9
14475.3
17200.3
14790
16017.5
15105.7
15500.9
15210.4
15217.9
15134.6
15059.2
14983.3
14905.8
14826.6
39859.7
27255.9
25051.7
12607.2
18488.6
14491.5
17099.4
14699.2
15949.2
15034.6
15464.1
15197.4
15220
15143.8
15083.8
15009.7
14916.3
14822.5
40315.8
27971.1
25335.5
13738.8
18621.7
14368.5
16953.5
14570.5
15833.4
14935.5
15382.4
15127.3
15155.4
15068.2
15003.9
14936.3
14855.2
14772
43357.7
11152.9
32332
20471.2
22043.2
16467.9
18626.5
16533.2
16820.3
16092.8
15859.4
15529.7
15219.4
14932.4
14647.8
14354.5
14022.5
13596.9
43617.2
11703.7
30298.9
19792.7
21466.1
16481.5
18727.4
16613.3
16874.7
16133.1
15892.6
15558.4
15245
14960.5
14679.3
14389.5
14066.8
13732.3
46037.2
11842.3
28649.5
20822
21364.6
16371.7
18672.9
16640.9
16908.7
16163
15914.1
15584.4
15276.4
14996.7
14719.2
14432.1
14123.7
13803.4
49212
13953.5
29843.8
22463.9
21968
16746
18634.4
16648.8
16931.2
16201.5
15948.9
15626.3
15319.9
15043.3
14770.1
14489.6
14194.6
13900.6
51958.5
16318.7
32150.3
23824
22545.6
17271.1
18644.3
16684.9
16953.9
16238.2
15985.1
15667.4
15363.9
15091
14824.3
14553.3
14273.6
13997.9
54188.4
16891.1
34526.3
25625.2
23122.6
17660.9
18682.7
16752.4
16991.5
16288.5
16031.7
15712.2
15412.8
15143.7
14881.1
14617.8
14351.1
14091.2
53743
17105.5
37281.7
27460.9
23838.5
18098.1
18729.8
16829.1
17035.9
16336.7
16073.7
15755.7
15462.1
15197.6
14937.9
14677.3
14420.2
14173.6
53646.4
17410
38501.6
27916
23907.4
18388.9
18806.4
16869.5
17065.6
16360.4
16104.5
15798.1
15508.8
15246.2
14988.6
14731.9
14482.1
14245.2
52627.4
18050.3
35496.3
27716.8
23636.7
18402.2
18857.3
16874.7
17072.2
16365.8
16130.9
15843.9
15557.9
15293.2
15035.1
14784.5
14544
14316.7
53843.5
16902.8
30330.2
25320.6
23229.6
18263.3
18822.1
16868.9
17073.6
16385.2
16165
15889
15606
15341.1
15082.3
14836.5
14604.2
14386.9
54007.1
15838.4
24428.7
22005.7
22724.7
17810.3
18676.2
16860.7
17080.5
16431.9
16209.1
15935
15653.3
15388.8
15132.6
14890.9
14663.6
14451.4
52500.9
17279.6
22167.3
17428.5
21767.1
17691.1
18497.1
16903.2
17104.7
16491.5
16250.9
15970.3
15687.6
15424.8
15174.5
14939.8
14719.4
14512.1
50424.4
20189.1
21760.7
15162.4
20332.5
17077.3
18391
16947.9
17142.4
16557.8
16292.7
16003.8
15718.6
15458
15213.1
14985.2
14771.9
14571.8
51381.4
23583.3
20934.5
16006.8
20258.6
16899.9
18329.6
17038.1
17184.4
16642.2
16344.1
16049.7
15764.2
15505.6
15264.1
15042.9
14836.9
14645.9
60517.1
30933.7
21497.3
18184.6
20424.9
17453.1
18461.6
17308.8
17232.8
16756.4
16412.6
16108.9
15819.4
15559.3
15318.4
15099.7
14897.4
14711.9
72701.4
39142
23334.6
21712.4
20136.7
18639
18651.6
17785.8
17363.2
16916.1
16522.3
16192.6
15888.9
15619.5
15374
15154
14955.6
14776.9
88314.1
49021.1
26939.3
25024.4
21179.2
19914.5
19035.9
18208.7
17543.2
17014.3
16574.8
16215.3
15909.3
15643.2
15407.6
15196.1
15005.1
14832.6
91326.5
47452.4
30409.1
25666.8
21391.3
20134.1
19171.7
18353.7
17616.9
17033.6
16572.5
16212.5
15916.2
15662.8
15439.9
15241.7
15065.2
14907.4
63599.7
36349.7
31525.6
20873.2
19095.7
18284.8
18102
17460.3
17016.7
16629.9
16285.9
16034.3
15811.4
15612
15421.5
15243.7
15085.5
14944.3
64549.9
22568.7
22631
14514.6
17306.7
15953.9
17179.1
16269.7
16496.6
16116
15988.7
15820.8
15642.9
15485
15330.4
15190
15059.9
14940.1
60240.5
13367.9
18138.8
13150.4
17170.7
15631.5
16926.8
15913.2
16256.5
15816.9
15826
15660.8
15522.2
15393
15265.3
15147.6
15033.9
14927.5
49915.5
10451.5
19897.6
15811.5
17754
15651.6
17021.8
15643
16123.9
15591
15697.4
15529.1
15426.7
15312.3
15197.6
15093.9
14998.3
14908
50311.3
10095.9
20407.1
15214
18923.7
15349.5
17286.8
15402.3
16194.7
15534.4
15703.9
15487.4
15408.5
15294.1
15177.3
15072.3
14974.4
14884.6
52280.1
10775
21986.6
15881.7
19944.1
15221.3
17416.2
15264.3
16305.2
15555.6
15728.4
15447.7
15387.4
15276.2
15167.6
15064.4
14962.8
14868
49564.9
12926.6
24617.5
16169.2
19774.9
15118.1
17349.7
15177.8
16335.5
15466.8
15668.5
15360
15332.4
15233.7
15134
15036
14943.4
14858.4
48173
14067.4
25441.1
14738.8
19139
14936.9
17197.9
15128.3
16261.4
15333.3
15605.9
15307.2
15302.6
15212.8
15122.9
15032.1
14943.2
14859.7
48559.7
16039.7
24658.3
13314.4
18843.3
14905.3
17229.5
15005.6
16136.7
15199.9
15534.9
15241.3
15232.9
15131.8
15047.8
14971.9
14903.3
14837.6
44882.2
21593.5
23634.9
13061.9
18212.6
14553.9
17262.7
14818.8
16050.3
15120.1
15485.7
15186.1
15181.7
15082.1
15003
14936
14868.2
14796.6
40022.6
28960.1
24686.3
13435.5
18341.8
14508.7
17111.7
14703.5
15973.4
15036.5
15427.4
15154.3
15160.5
15049.1
14974.3
14922.8
14861.1
14784.2
40575.2
31576.9
25081.4
14053.5
18428.9
14340.1
16932.7
14575.6
15876.8
14946.1
15338.5
15069.9
15090.4
14988.5
14918.2
14867.5
14814.7
14744.6
43147.7
11782
32574.5
21536.5
22341
16549.1
18598.1
16506.5
16798.9
16090.5
15868.3
15552.5
15248.2
14967.9
14682
14381.3
14042.2
13607.9
43389.2
12078.7
30729.1
21346.1
21913.1
16618
18676.6
16585.9
16853.4
16137.1
15907.1
15589.5
15285.6
15004.6
14717
14415.7
14084.4
13743.2
45651.1
11966.6
29090.5
22050.3
21902.5
16514.9
18605.2
16604
16886.1
16169.1
15935.5
15621.1
15320.4
15039.9
14754.7
14458.1
14143.3
13817.3
48991.3
13645.8
30320.8
23705.7
22487.2
16851.9
18581.9
16628.1
16933.5
16217.8
15979.6
15670.1
15372.5
15092.9
14809.5
14517.8
14215.3
13915.9
51884.5
16057.5
32603.6
24730.3
22913.3
17353.2
18624.9
16685.5
16993.2
16287.3
16046.6
15732
15427.1
15142.1
14859.1
14574.6
14288.4
14009.2
54130.7
17107.1
35260.2
26197.3
23377.6
17750.2
18705.1
16756.7
17053.1
16367.9
16123
15792.1
15474
15184.1
14904.8
14630.8
14361.7
14103.2
53449.4
17463.6
37935.8
27720.1
23970.7
18168.2
18799.2
16830.1
17108.3
16442.3
16184.7
15844.3
15520.4
15229.3
14954.7
14689.3
14431.6
14186.6
53093.1
17222.2
38590.6
28019.3
23922.8
18390
18900.9
16878.7
17132.6
16454.4
16196.4
15868.3
15554.7
15273.1
15004.8
14744.2
14493
14256
51988.8
17163.4
35090.2
28006.2
23688.2
18482.9
18958.3
16886
17111.7
16424.2
16183.8
15877.9
15578.5
15310.3
15050.4
14797.5
14555.6
14329
53786.1
16210.5
29886.3
25778.3
23277
18354.7
18891.1
16862.6
17081.7
16408.3
16184.3
15898
15612.9
15352
15095.8
14850.2
14618.3
14401.3
54254.9
15381.2
23960.7
22431.2
22745
17827.3
18687.6
16848.9
17078.6
16437.2
16211.6
15936.4
15659.4
15399.6
15146.5
14906.8
14681.4
14470.6
52912
17013.5
22020.1
17762.2
21770.7
17692.8
18486.8
16893.9
17103.5
16495.3
16255.2
15977.3
15697.6
15436.3
15187.5
14954.6
14736.6
14531.5
50832.7
20461.3
21799.9
15406.3
20330
17074
18377.1
16941.5
17142.2
16565.1
16302.9
16017.4
15732.5
15471.2
15226.6
15000.2
14789
14590.7
52108.7
23725.3
20863.6
16094.2
20226.6
16905.3
18331.5
17036.9
17185.7
16651.4
16356.2
16064.4
15779.5
15520
15277.2
15054.9
14849.3
14658.7
61218.8
30979.4
21454.1
18134.5
20399.1
17468.5
18478.7
17315.8
17237.1
16765.4
16428.1
16128.2
15837
15574.7
15331.4
15109.5
14905.3
14718.4
69806.3
38858.2
23485.1
21692
20108.5
18661
18661
17791.4
17371.7
16927.5
16533.6
16203.7
15896.7
15624.2
15376.5
15154.5
14955.1
14776.1
87037.9
49332.2
27089.3
25122.4
21182.2
19941.5
19032.4
18205
17531.7
17004.6
16571.4
16216
15910.5
15644.7
15409.7
15198.6
15007.9
14835.6
94191
49648.4
31785.3
25555.9
21494.3
20259.2
19179.8
18339.6
17600.8
17025.3
16574.6
16216.7
15918.2
15663.5
15440.7
15242
15064.1
14904.6
67145.4
35435.2
32004.4
20927.3
19198
18374.6
18111.5
17445.8
17012.5
16637.2
16299.3
16035.3
15798.3
15592.4
15407.9
15237.9
15083.9
14944.8
66802.8
20718.7
22287.8
15005
17460.6
16046.7
17172.2
16296.7
16494.2
16116.3
15978.4
15803.8
15629.1
15473.5
15322.7
15185.5
15059.1
14942.4
56981.8
12504.7
18321.1
13682
16745.4
15644.5
16969.8
16036.4
16292.1
15815.9
15793.5
15639.1
15510.7
15385.7
15256.9
15137.5
15024.4
14919
48394.2
10620.4
19739.6
14749.1
17473.7
15566.9
17053.2
15794.9
16169.7
15623
15693.5
15521.7
15419.6
15306.1
15190.5
15086.1
14990.1
14901.1
49434.3
10648.5
20434.8
14689.6
18942.5
15390.7
17352.6
15548.8
16214
15564.4
15702.8
15468.4
15369.3
15256.6
15151.5
15063.8
14982.5
14900.4
52372
11531.5
22890.7
15480.8
20079.4
15387.7
17552.8
15351.7
16291.6
15559.3
15718.4
15421.2
15338.2
15234.6
15146
15057.2
14965.5
14877.7
48363.5
12984.4
25388.8
16069.9
19955.9
15328.1
17472
15231.3
16343
15474
15663.1
15334.8
15286.2
15193.6
15115.3
15038.7
14958
14876.9
46432.4
14058.6
26008.8
14610
19236.5
15098.2
17317.5
15168
16296.8
15346.6
15602.2
15288.7
15274.7
15194.8
15123.7
15047.6
14966.3
14886
46870.7
16116.2
25216.3
13122.4
18953.9
15006.3
17318.7
15127.7
16181.7
15212.9
15520.4
15216.9
15216.6
15133.4
15062.2
14988.5
14909.1