/*--------------------------------*- C++ -*----------------------------------*\
| =========                 |                                                 |
| \\      /  F ield         | OpenFOAM: The Open Source CFD Toolbox           |
|  \\    /   O peration     | Version:  2112                                  |
|   \\  /    A nd           | Website:  www.openfoam.com                      |
|    \\/     M anipulation  |                                                 |
\*---------------------------------------------------------------------------*/
FoamFile
{
    version     2.0;
    format      ascii;
    arch        "LSB;label=32;scalar=64";
    class       volScalarField;
    location    "0.47";
    object      kU_0;
}
// * * * * * * * * * * * * * * * * * * * * * * * * * * * * * * * * * * * * * //

dimensions      [0 2 -2 0 0 0 0];

internalField   nonuniform List<scalar> 
12225
(
0.399888
0.622128
0.790769
0.936365
1.0784
1.22703
1.38762
1.56354
1.75742
1.97136
2.20684
2.46451
2.74402
3.04397
3.36186
3.69479
4.03746
4.36337
0.124074
0.143967
0.166674
0.192046
0.220361
0.252192
0.288176
0.328663
0.373614
0.422659
0.475188
0.530527
0.588145
0.647879
0.71018
0.77675
0.854451
0.965636
0.11324
0.115524
0.118701
0.122059
0.124886
0.127493
0.130252
0.13349
0.137432
0.142206
0.147885
0.154557
0.162381
0.171627
0.182721
0.196384
0.213823
0.236623
0.112487
0.112635
0.113052
0.1137
0.114519
0.115442
0.116404
0.117347
0.118166
0.118714
0.119014
0.119118
0.119104
0.119074
0.119162
0.119548
0.120484
0.122235
0.112423
0.112356
0.112342
0.112381
0.112487
0.112659
0.112878
0.113135
0.113413
0.113689
0.11394
0.114152
0.114299
0.114354
0.114321
0.114216
0.114073
0.113939
0.112392
0.112287
0.112194
0.112116
0.112068
0.112052
0.112061
0.112089
0.11213
0.112177
0.112221
0.112254
0.11227
0.11226
0.112223
0.112159
0.112076
0.111989
0.112365
0.112234
0.112113
0.112008
0.111924
0.111863
0.111816
0.111778
0.111745
0.111711
0.111672
0.111626
0.11157
0.111504
0.11143
0.111349
0.111269
0.111192
0.112346
0.112198
0.112061
0.111939
0.111835
0.11175
0.111678
0.111615
0.111554
0.111492
0.111425
0.111352
0.111271
0.111184
0.111094
0.111005
0.110921
0.110846
0.112332
0.112173
0.112026
0.111892
0.111774
0.111672
0.111582
0.111499
0.111421
0.111342
0.111261
0.111175
0.111085
0.110991
0.110898
0.110809
0.110726
0.110654
0.112322
0.112155
0.112
0.111858
0.11173
0.111616
0.111513
0.111416
0.111324
0.111233
0.111142
0.111049
0.110954
0.110859
0.110767
0.11068
0.110602
0.110535
0.112315
0.11214
0.111979
0.111831
0.111697
0.111574
0.111461
0.111355
0.111253
0.111154
0.111056
0.110959
0.110863
0.110769
0.110679
0.110597
0.110524
0.110462
0.112309
0.11213
0.111964
0.111812
0.111672
0.111543
0.111424
0.111312
0.111205
0.111101
0.111
0.110901
0.110805
0.110713
0.110627
0.110549
0.110481
0.110425
0.112305
0.112121
0.111952
0.111795
0.111651
0.111518
0.111394
0.111278
0.111167
0.111061
0.110958
0.110859
0.110764
0.110675
0.110592
0.110519
0.110456
0.110405
0.112301
0.112114
0.11194
0.111779
0.111631
0.111494
0.111367
0.111247
0.111134
0.111026
0.110923
0.110825
0.110733
0.110647
0.110569
0.1105
0.110442
0.110396
0.112298
0.112107
0.111929
0.111765
0.111614
0.111473
0.111343
0.11122
0.111106
0.110997
0.110895
0.110798
0.110709
0.110627
0.110553
0.110489
0.110435
0.110394
0.112295
0.112101
0.11192
0.111753
0.111598
0.111455
0.111322
0.111198
0.111083
0.110974
0.110873
0.110779
0.110692
0.110613
0.110543
0.110482
0.110431
0.110391
0.112293
0.112096
0.111913
0.111743
0.111586
0.111441
0.111307
0.111182
0.111066
0.110958
0.110858
0.110766
0.110681
0.110604
0.110536
0.110476
0.110426
0.110384
0.112291
0.112093
0.111908
0.111737
0.111578
0.111432
0.111297
0.111172
0.111057
0.110949
0.11085
0.110759
0.110675
0.110599
0.11053
0.110468
0.110414
0.110368
0.112291
0.112092
0.111907
0.111735
0.111577
0.111431
0.111297
0.111173
0.111059
0.110953
0.110855
0.110764
0.11068
0.110602
0.11053
0.110464
0.110403
0.110347
0.112291
0.112094
0.11191
0.111741
0.111585
0.111441
0.111309
0.111188
0.111076
0.110972
0.110876
0.110786
0.110702
0.110622
0.110547
0.110476
0.110409
0.110344
0.112293
0.112098
0.111917
0.111751
0.111598
0.111458
0.111329
0.111212
0.111103
0.111002
0.110909
0.110821
0.110737
0.110658
0.110582
0.110508
0.110436
0.110366
0.112297
0.112105
0.111928
0.111765
0.111616
0.11148
0.111356
0.111243
0.111139
0.111043
0.110953
0.110869
0.110789
0.110712
0.110637
0.110563
0.11049
0.110418
0.112301
0.112115
0.111942
0.111784
0.11164
0.111509
0.111391
0.111284
0.111186
0.111096
0.111013
0.110935
0.110861
0.11079
0.11072
0.11065
0.11058
0.11051
0.112308
0.112128
0.111962
0.111809
0.111671
0.111547
0.111437
0.11134
0.111252
0.111174
0.111103
0.111038
0.110975
0.110915
0.110855
0.110795
0.110734
0.110671
0.112319
0.112149
0.111993
0.111849
0.11172
0.111607
0.11151
0.111427
0.111357
0.111299
0.111251
0.111212
0.111179
0.111151
0.111124
0.111098
0.111072
0.111045
0.112335
0.112179
0.112043
0.111928
0.111837
0.111775
0.111738
0.111726
0.111738
0.111773
0.111828
0.1119
0.111979
0.112065
0.112155
0.112245
0.112333
0.112415
0.112358
0.112231
0.11219
0.112267
0.112456
0.112731
0.113067
0.113446
0.113852
0.114269
0.114685
0.115091
0.115479
0.11584
0.11617
0.116448
0.11664
0.116756
0.112639
0.113379
0.114551
0.116015
0.117672
0.119362
0.120693
0.121761
0.122685
0.123574
0.124519
0.12559
0.126831
0.128265
0.1299
0.13174
0.133784
0.136049
0.116901
0.125437
0.135904
0.147859
0.16101
0.175299
0.190877
0.207897
0.22645
0.246533
0.268119
0.291135
0.315461
0.340928
0.367338
0.39449
0.422209
0.450339
0.305557
0.464781
0.588444
0.692352
0.787687
0.8806
0.974291
1.07045
1.16942
1.27079
1.37615
1.48648
1.60235
1.7241
1.85189
1.98579
2.12561
2.27122
0.3785
0.380146
0.402359
0.435042
0.477803
0.523921
0.568235
0.61096
0.652269
0.692711
0.732898
0.773398
0.814693
0.857168
0.901121
0.946764
0.99423
1.04358
1.09477
1.14769
1.20224
1.25826
1.31557
1.37395
1.43082
1.48374
1.53221
1.57587
1.61433
1.64702
1.66952
1.67884
1.67566
1.66064
1.63457
1.59842
1.55337
1.50083
1.44264
1.38116
1.31926
1.26016
1.20703
1.16224
1.12672
1.09971
1.07916
1.0586
1.03756
1.01674
0.997613
0.981078
0.966654
0.945028
0.922208
0.904153
0.895218
0.898385
0.914939
0.943866
0.980052
1.00968
1.01186
0.991154
0.961083
0.936554
0.949049
1.07582
1.39716
1.99112
2.87307
3.72201
4.51953
5.24483
5.86785
6.37447
6.76196
7.03526
7.20278
7.27462
7.26179
7.17182
7.04762
6.89442
6.71534
6.51255
6.28762
6.04163
5.77578
5.49618
5.21453
4.93089
4.64601
4.36107
4.07746
3.79678
3.52075
3.25119
2.98993
2.73888
2.49967
2.27406
2.06412
1.87174
1.69908
1.54912
1.42678
1.34124
1.31046
1.36861
1.50438
1.68831
1.91359
2.17338
2.46251
2.77712
3.11532
3.47601
3.85878
4.26398
4.69294
5.14803
5.63204
6.14651
6.68714
7.21715
7.71764
8.17907
8.58791
8.92526
9.16656
9.28439
9.25371
9.05862
8.6988
8.19349
7.58251
6.92197
6.2739
5.69186
5.20607
4.81255
4.4794
4.15647
3.78724
3.35876
2.90925
2.51784
2.2699
2.28013
2.64982
3.28328
3.95312
4.55497
4.96051
5.06794
4.98604
4.76451
4.43819
4.04759
3.67913
3.35949
3.11656
2.99312
3.06952
3.67819
4.82994
6.35643
8.18951
10.4118
13.0203
15.989
19.2839
22.8758
26.7326
30.8005
34.9384
38.634
41.8063
43.9872
0.754139
0.645859
0.605881
0.588028
0.580227
0.575727
0.571179
0.565458
0.558451
0.55046
0.541817
0.53282
0.523701
0.514616
0.505668
0.49694
0.488501
0.480416
0.472758
0.46559
0.458947
0.452864
0.447385
0.442563
0.440773
0.443548
0.450804
0.462165
0.477226
0.495493
0.516189
0.538411
0.561392
0.584315
0.606372
0.62682
0.644978
0.66019
0.671853
0.679516
0.682951
0.682161
0.677303
0.668529
0.655791
0.638736
0.616883
0.592895
0.565776
0.534004
0.499038
0.462573
0.426319
0.391986
0.36208
0.3392
0.324781
0.318328
0.318243
0.324396
0.341879
0.393931
0.515607
0.712073
0.994587
1.37536
1.84818
2.36278
2.72662
2.97896
3.14347
3.20573
3.18037
3.08109
2.92469
2.72951
2.51272
2.28875
2.06858
1.86055
1.67071
1.50297
1.35982
1.24142
1.14732
1.07702
1.03001
1.00593
1.00365
1.01586
1.02911
1.04313
1.05763
1.07233
1.08687
1.1008
1.11357
1.1245
1.13283
1.1375
1.13849
1.13784
1.13512
1.13002
1.12233
1.11198
1.09901
1.08346
1.06498
1.04412
1.02539
1.00835
0.993934
0.981853
0.969765
0.95347
0.935679
0.918467
0.903431
0.891668
0.884058
0.881482
0.885015
0.896357
0.920559
0.981392
1.08364
1.21532
1.36619
1.527
1.68739
1.83582
1.96002
2.04811
2.08883
2.07277
1.99402
1.85215
1.65744
1.43635
1.23256
1.09681
1.05884
1.10776
1.21078
1.32915
1.45028
1.58269
1.74089
1.9248
2.09376
2.17298
2.15286
2.0468
1.87922
1.68972
1.52402
1.41325
1.37597
1.41524
1.46872
1.52807
1.58774
1.64503
1.69558
1.75256
1.80676
1.85696
1.90247
1.97203
2.08181
2.24514
2.47497
2.78741
3.2024
3.74371
4.47842
5.65097
7.30423
9.35263
1.27132
0.912797
0.76287
0.678308
0.622624
0.581037
0.547058
0.517752
0.492104
0.470244
0.451971
0.436909
0.42458
0.414264
0.405335
0.397453
0.390332
0.383767
0.37764
0.371909
0.366587
0.361727
0.357406
0.3537
0.350688
0.348729
0.347859
0.348143
0.349635
0.35236
0.356295
0.361369
0.367471
0.374453
0.382131
0.390298
0.398706
0.407058
0.414984
0.422077
0.42794
0.432232
0.434709
0.435216
0.43363
0.429789
0.423471
0.414483
0.402888
0.38943
0.372953
0.353762
0.333153
0.313771
0.299872
0.296624
0.308048
0.335386
0.378826
0.444486
0.566931
0.76952
1.04859
1.41234
1.84868
2.26343
2.49764
2.60223
2.58807
2.49586
2.35015
2.16822
1.96798
1.76488
1.57244
1.40087
1.25625
1.14055
1.05268
0.989537
0.947085
0.921164
0.907895
0.903999
0.906855
0.914423
0.925137
0.937847
0.95127
0.964699
0.977913
0.990756
1.0031
1.01481
1.02572
1.03551
1.04375
1.04971
1.05462
1.0585
1.06114
1.06232
1.06172
1.05902
1.05392
1.04609
1.03508
1.02008
0.999291
0.975274
0.95033
0.924313
0.898187
0.872482
0.84743
0.822986
0.798461
0.772451
0.746618
0.72187
0.698684
0.677364
0.658163
0.641367
0.627393
0.617128
0.614779
0.623607
0.645025
0.679615
0.726405
0.782691
0.844077
0.904767
0.957672
0.994629
1.00698
0.987575
0.934649
0.856437
0.773664
0.715473
0.708403
0.765807
0.89009
1.06937
1.27967
1.48586
1.64762
1.72936
1.70904
1.61336
1.48236
1.34586
1.23189
1.1593
1.13402
1.15008
1.19469
1.25306
1.31288
1.36768
1.40887
1.43489
1.44908
1.45007
1.44015
1.42111
1.3953
1.36699
1.34042
1.31971
1.30906
1.31191
1.33308
1.38325
1.48342
1.72965
2.20992
3.01573
1.86003
1.11991
0.827115
0.671389
0.574878
0.509014
0.46143
0.425931
0.399973
0.381558
0.369035
0.360968
0.356037
0.352918
0.350744
0.348816
0.346655
0.343989
0.340733
0.336954
0.332832
0.328613
0.324577
0.321003
0.318154
0.316565
0.31624
0.317127
0.319111
0.322032
0.325683
0.329818
0.33412
0.338322
0.342364
0.34617
0.349503
0.352132
0.354054
0.355226
0.355595
0.355101
0.353694
0.351351
0.348073
0.343867
0.338731
0.332657
0.325641
0.317944
0.309946
0.301705
0.294277
0.291062
0.298949
0.327381
0.384768
0.476291
0.609707
0.818094
1.07975
1.37338
1.71456
2.05499
2.26458
2.34845
2.31079
2.1926
2.02653
1.841
1.65303
1.4747
1.31579
1.18318
1.08021
1.00616
0.957239
0.928052
0.913194
0.908125
0.909449
0.914811
0.922637
0.931899
0.941914
0.952205
0.962394
0.971998
0.980753
0.988469
0.994976
1.00014
1.00381
1.00638
1.00824
1.00946
1.01009
1.0102
1.00985
1.00899
1.00755
1.00533
1.00209
0.997552
0.991401
0.983392
0.973058
0.959681
0.942341
0.923891
0.903071
0.880088
0.855291
0.829083
0.801971
0.774512
0.747101
0.718797
0.691033
0.665032
0.641206
0.619514
0.599719
0.581555
0.564817
0.549473
0.535782
0.524887
0.517664
0.515504
0.519797
0.531465
0.550573
0.576
0.605268
0.63438
0.657981
0.670351
0.667443
0.650214
0.627908
0.618044
0.641737
0.717085
0.853473
1.04576
1.26475
1.45514
1.55895
1.5506
1.45106
1.32716
1.21349
1.12567
1.07348
1.05779
1.0722
1.10746
1.15473
1.20605
1.25524
1.29778
1.32756
1.35084
1.36496
1.36685
1.35698
1.33601
1.30588
1.26963
1.23046
1.19127
1.15417
1.11919
1.08898
1.0686
1.06498
1.10352
1.22606
1.49872
2.43373
1.22554
0.799436
0.598222
0.488208
0.423
0.383226
0.359705
0.347584
0.343498
0.344821
0.349442
0.35554
0.361626
0.366586
0.369701
0.370627
0.369334
0.36603
0.361087
0.354975
0.348203
0.341281
0.334691
0.329162
0.325049
0.322521
0.321654
0.322431
0.324705
0.327595
0.330843
0.334183
0.337374
0.340214
0.342543
0.344241
0.345253
0.34559
0.345297
0.344431
0.343017
0.341015
0.338271
0.334444
0.328985
0.322452
0.315475
0.30853
0.302155
0.297013
0.294139
0.296386
0.310735
0.349766
0.429273
0.562892
0.763224
1.04019
1.32179
1.59225
1.86247
2.05232
2.14692
2.13544
2.03878
1.88806
1.71506
1.54126
1.38011
1.23933
1.12408
1.03702
0.977493
0.941651
0.923797
0.91813
0.91993
0.925937
0.934176
0.943571
0.953581
0.963929
0.974422
0.984856
0.994987
1.00457
1.01262
1.01879
1.02268
1.02397
1.02361
1.02167
1.01827
1.01358
1.00783
1.00131
0.994317
0.98712
0.979889
0.972657
0.965358
0.957782
0.949645
0.940607
0.930439
0.918711
0.905094
0.891087
0.875955
0.859247
0.840723
0.820067
0.797044
0.771719
0.744513
0.716058
0.686121
0.655683
0.626874
0.600963
0.578424
0.559076
0.542323
0.527435
0.513755
0.50079
0.488377
0.476835
0.466564
0.458389
0.453322
0.452342
0.456073
0.464498
0.476686
0.490691
0.503877
0.513949
0.521047
0.530541
0.554479
0.609275
0.70987
0.863319
1.06151
1.26945
1.42484
1.47352
1.41313
1.29235
1.18002
1.10126
1.05347
1.03355
1.03814
1.06226
1.09873
1.14004
1.17918
1.21277
1.23746
1.26094
1.28278
1.29902
1.30565
1.30123
1.28474
1.25735
1.22176
1.18127
1.13893
1.09669
1.05394
1.01373
0.97918
0.952178
0.938161
0.954904
1.03552
2.85099
1.20687
0.706951
0.504548
0.411129
0.3664
0.347333
0.343828
0.350443
0.363379
0.379492
0.396099
0.411071
0.422904
0.430752
0.434359
0.43393
0.42998
0.423199
0.414344
0.404163
0.393353
0.382539
0.37247
0.363894
0.356792
0.351496
0.348222
0.347049
0.347089
0.347935
0.349355
0.351079
0.352813
0.35426
0.355162
0.355332
0.354676
0.353191
0.350941
0.348033
0.344568
0.340642
0.336334
0.331707
0.326835
0.321778
0.316535
0.311097
0.305732
0.302397
0.304918
0.320701
0.363797
0.455343
0.618504
0.872668
1.19086
1.47609
1.71195
1.8861
1.98375
2.0014
1.94157
1.82206
1.67031
1.51097
1.36057
1.22816
1.11867
1.03474
0.976804
0.942475
0.926897
0.924245
0.929279
0.938213
0.948819
0.960079
0.971734
0.983878
0.996673
1.01018
1.02429
1.03866
1.05268
1.0656
1.07571
1.08242
1.08506
1.08306
1.07722
1.06844
1.05715
1.04378
1.02885
1.01297
0.996746
0.980753
0.965451
0.950982
0.937435
0.924725
0.912268
0.899766
0.886441
0.871779
0.857169
0.842312
0.827224
0.812022
0.796494
0.780056
0.761919
0.741394
0.718126
0.692174
0.66336
0.632106
0.600796
0.57145
0.545554
0.523863
0.506339
0.492305
0.480742
0.470597
0.461017
0.451495
0.441786
0.43209
0.422949
0.415134
0.409473
0.406651
0.407024
0.410522
0.416802
0.425884
0.439531
0.463235
0.507423
0.585547
0.708579
0.8781
1.07885
1.27018
1.39124
1.40089
1.31569
1.19986
1.10802
1.05424
1.02992
1.02707
1.04005
1.06618
1.09853
1.128
1.14706
1.16225
1.1773
1.19483
1.2145
1.23176
1.24341
1.2452
1.23457
1.21157
1.17852
1.1389
1.09621
1.05286
1.00888
0.967983
0.93247
0.903008
0.880609
0.869545
0.882569
2.9819
1.08328
0.597192
0.433519
0.373911
0.356542
0.360563
0.377339
0.40165
0.429134
0.45594
0.479014
0.496351
0.507058
0.511191
0.509469
0.502972
0.492896
0.480392
0.466479
0.452011
0.437682
0.424093
0.412353
0.40205
0.393693
0.387566
0.383829
0.381902
0.380593
0.379879
0.379572
0.379439
0.37921
0.378604
0.377354
0.375253
0.372209
0.368237
0.363433
0.357972
0.352053
0.345868
0.33973
0.333712
0.327861
0.322269
0.317117
0.31283
0.310531
0.313009
0.327644
0.369768
0.462823
0.63628
0.914022
1.24989
1.54425
1.75158
1.85801
1.89518
1.8692
1.78536
1.6609
1.51826
1.37668
1.24836
1.13936
1.05269
0.989769
0.950167
0.931017
0.927449
0.933998
0.945978
0.960213
0.975079
0.990143
1.00567
1.02217
1.04007
1.05951
1.08024
1.10171
1.12311
1.14349
1.16035
1.17274
1.17977
1.18071
1.17502
1.16228
1.14405
1.12186
1.09659
1.06922
1.04088
1.01257
0.985364
0.960262
0.937349
0.91666
0.898658
0.881959
0.86656
0.850454
0.834685
0.818089
0.800864
0.783655
0.767113
0.751559
0.736774
0.721999
0.706156
0.688165
0.667223
0.642512
0.613775
0.582973
0.552133
0.523224
0.497876
0.477085
0.461049
0.449193
0.440402
0.433364
0.426872
0.420074
0.412555
0.404342
0.395838
0.387688
0.380639
0.375409
0.372656
0.373159
0.37836
0.391476
0.419048
0.471875
0.563074
0.701767
0.88415
1.08625
1.26216
1.35681
1.34359
1.25143
1.14746
1.07371
1.03513
1.02333
1.0297
1.04767
1.07028
1.08984
1.10241
1.10963
1.11439
1.12125
1.1324
1.14834
1.1666
1.18222
1.18961
1.18468
1.16631
1.13628
1.09819
1.05603
1.01265
0.969228
0.929929
0.896264
0.868281
0.845882
0.829741
0.823871
2.89303
0.923429
0.514107
0.404747
0.379787
0.387456
0.412093
0.446465
0.484717
0.521321
0.551757
0.573197
0.584693
0.586878
0.581354
0.570098
0.555037
0.537833
0.519798
0.501902
0.484829
0.46906
0.455481
0.443981
0.434828
0.428279
0.424539
0.42359
0.424111
0.42407
0.423569
0.422397
0.420342
0.417393
0.413509
0.408668
0.402896
0.39627
0.388898
0.380985
0.37277
0.365257
0.358939
0.352768
0.346624
0.340442
0.33457
0.329776
0.32743
0.33031
0.34386
0.38212
0.468739
0.634309
0.905329
1.23913
1.54133
1.73616
1.80671
1.80875
1.7591
1.66635
1.54505
1.41377
1.2881
1.17729
1.08554
1.01466
0.965504
0.937535
0.928089
0.932714
0.946378
0.964723
0.984783
1.00511
1.02551
1.04653
1.06895
1.0934
1.12004
1.14853
1.17804
1.20733
1.23493
1.25951
1.27818
1.29066
1.29603
1.29358
1.28278
1.26339
1.23524
1.20117
1.16253
1.12088
1.07814
1.0358
0.995399
0.959082
0.927026
0.898477
0.875079
0.854574
0.836633
0.820327
0.803653
0.785832
0.766854
0.747386
0.728418
0.710836
0.695066
0.680885
0.667447
0.653491
0.63764
0.618325
0.59441
0.567059
0.537787
0.508418
0.480862
0.4568
0.437363
0.422907
0.412968
0.406435
0.401833
0.397809
0.393303
0.387745
0.381069
0.373625
0.366035
0.359077
0.353654
0.350982
0.35312
0.363998
0.390854
0.445186
0.540937
0.687371
0.877568
1.08028
1.24505
1.32324
1.30058
1.21203
1.11974
1.05783
1.02797
1.02155
1.03025
1.04666
1.06288
1.07425
1.0782
1.07654
1.07323
1.0723
1.07732
1.08974
1.10759
1.12579
1.13767
1.13766
1.12338
1.09603
1.05931
1.01771
0.974329
0.932548
0.895856
0.865091
0.839899
0.819708
0.804074
0.794134
2.65475
0.784486
0.476885
0.416371
0.419437
0.448165
0.490429
0.538507
0.584903
0.6229
0.648185
0.659484
0.658139
0.647009
0.629326
0.607962
0.585166
0.562566
0.541254
0.521884
0.504768
0.490323
0.479265
0.471079
0.465978
0.464167
0.465846
0.471271
0.479181
0.483939
0.484955
0.482924
0.478224
0.47139
0.462976
0.453451
0.443194
0.432655
0.422652
0.415255
0.416953
0.423518
0.428537
0.429388
0.424685
0.414961
0.402698
0.392404
0.388618
0.396368
0.425831
0.499048
0.642659
0.882147
1.19123
1.48759
1.68086
1.74044
1.7278
1.6692
1.57683
1.46317
1.3433
1.23041
1.13241
1.05252
0.991942
0.951297
0.930311
0.926927
0.93736
0.957048
0.981757
1.00833
1.03504
1.06146
1.08817
1.11614
1.14623
1.17876
1.21339
1.24916
1.28469
1.31835
1.34826
1.37257
1.38978
1.39969
1.4016
1.39489
1.37909
1.3539
1.31915
1.27597
1.22638
1.17199
1.11581
1.06009
1.00633
0.958074
0.916982
0.88066
0.851514
0.828269
0.808897
0.791734
0.774961
0.757116
0.737622
0.716867
0.695901
0.675958
0.658016
0.642483
0.629071
0.616838
0.604369
0.589743
0.571101
0.548718
0.523313
0.496142
0.46888
0.443369
0.42127
0.403733
0.391157
0.383124
0.378492
0.375824
0.373652
0.37085
0.366804
0.361438
0.355119
0.348535
0.34264
0.338799
0.339266
0.348157
0.372846
0.425067
0.519512
0.666585
0.858857
1.061
1.21942
1.29049
1.26848
1.18988
1.10767
1.05261
1.02654
1.02139
1.02882
1.04144
1.05259
1.05787
1.05631
1.04937
1.04001
1.03267
1.03186
1.04021
1.05669
1.07634
1.09167
1.09567
1.08468
1.0593
1.02339
0.981953
0.938809
0.899182
0.865491
0.837996
0.816002
0.798638
0.785109
0.775361
2.31603
0.692167
0.482414
0.45803
0.483406
0.530132
0.586224
0.642311
0.68933
0.720231
0.73268
0.72841
0.711653
0.687209
0.659086
0.630106
0.602168
0.57659
0.554233
0.535484
0.520375
0.509873
0.502938
0.499586
0.501174
0.507311
0.518242
0.533586
0.551014
0.565543
0.570543
0.568756
0.562317
0.552889
0.542303
0.532835
0.527852
0.532737
0.555934
0.608455
0.669611
0.714157
0.736757
0.735172
0.711079
0.669593
0.619285
0.572179
0.540575
0.539158
0.584156
0.691774
0.880088
1.14053
1.4112
1.59222
1.6595
1.64941
1.59329
1.50808
1.40532
1.29706
1.19466
1.10567
1.03334
0.978719
0.942418
0.924571
0.923957
0.937725
0.961991
0.992685
1.02625
1.06019
1.09332
1.12579
1.15858
1.19284
1.22924
1.26763
1.30711
1.34617
1.38304
1.41595
1.44328
1.46286
1.47499
1.47939
1.47568
1.46354
1.4427
1.41293
1.37412
1.32681
1.27143
1.20909
1.14296
1.07759
1.01356
0.95399
0.904648
0.862606
0.828907
0.802035
0.780684
0.763004
0.746736
0.729721
0.710725
0.689723
0.667646
0.645878
0.625753
0.608179
0.593427
0.581062
0.569989
0.558393
0.544066
0.526599
0.505962
0.482675
0.457854
0.433071
0.41008
0.390456
0.375271
0.364853
0.358747
0.355858
0.354714
0.353875
0.352259
0.349317
0.345048
0.339925
0.334825
0.331118
0.331071
0.338706
0.361144
0.409802
0.499502
0.641802
0.830673
1.03032
1.18607
1.25735
1.24279
1.17752
1.10561
1.05441
1.0287
1.02195
1.02623
1.03467
1.0415
1.04318
1.03853
1.02772
1.01342
1.00052
0.994441
0.998926
1.01389
1.03458
1.05276
1.05998
1.05142
1.02712
0.991175
0.948902
0.906848
0.869792
0.839333
0.81527
0.796608
0.782243
0.771187
0.762816
1.92471
0.664431
0.518043
0.51914
0.563733
0.625799
0.691164
0.748171
0.787685
0.805324
0.801988
0.782479
0.75304
0.719031
0.683896
0.649592
0.61758
0.589333
0.566117
0.548634
0.537712
0.532529
0.531602
0.535694
0.546092
0.563569
0.588289
0.618679
0.650626
0.678518
0.69754
0.706843
0.716404
0.733948
0.768015
0.826907
0.916631
1.0372
1.17831
1.31917
1.3998
1.43174
1.41879
1.3659
1.27864
1.16414
1.03373
0.906589
0.811129
0.773401
0.811334
0.92942
1.12179
1.33169
1.4841
1.56375
1.57001
1.52632
1.45339
1.36408
1.2683
1.17551
1.09312
1.02515
0.973109
0.937733
0.91955
0.918196
0.931954
0.958008
0.992929
1.03307
1.075
1.11619
1.15553
1.19347
1.23133
1.27034
1.31092
1.35244
1.39342
1.43191
1.46596
1.49386
1.51436
1.52604
1.52998
1.52606
1.51433
1.49504
1.46823
1.43377
1.39126
1.34117
1.28476
1.22059
1.14891
1.0787
1.01019
0.946295
0.889603
0.841736
0.803625
0.774024
0.751188
0.73343
0.718151
0.70252
0.684662
0.664139
0.641717
0.618824
0.597
0.577486
0.560976
0.547508
0.536425
0.526299
0.514928
0.50144
0.485308
0.46642
0.44525
0.422871
0.400781
0.380616
0.363806
0.351248
0.343168
0.33903
0.33768
0.337701
0.337772
0.336959
0.334869
0.331669
0.328051
0.32529
0.325556
0.33266
0.353257
0.398057
0.481358
0.615352
0.796318
0.99099
1.14599
1.2223
1.21937
1.16842
1.10757
1.06078
1.03382
1.02366
1.02369
1.02778
1.03112
1.03026
1.0228
1.0085
0.990021
0.972584
0.962336
0.963953
0.978139
1.00026
1.02125
1.03115
1.02414
0.99978
0.962439
0.919896
0.879605
0.845394
0.818312
0.797755
0.782443
0.771064
0.762491
0.755818
1.57227
0.656407
0.565198
0.589356
0.651073
0.724959
0.794756
0.848181
0.877535
0.881492
0.864448
0.833776
0.796466
0.756929
0.717036
0.677733
0.640599
0.608146
0.582962
0.566916
0.56082
0.561586
0.569656
0.586102
0.612354
0.649557
0.697893
0.756068
0.822036
0.895419
0.979805
1.08247
1.21143
1.36971
1.55266
1.74589
1.92707
2.07102
2.15691
2.1749
2.15823
2.11684
2.054
1.96888
1.85838
1.71956
1.55398
1.37393
1.20772
1.09668
1.07614
1.14667
1.26332
1.38251
1.46459
1.49198
1.46842
1.41145
1.3365
1.25356
1.17031
1.09346
1.0278
0.975806
0.938671
0.917232
0.911747
0.921481
0.944853
0.979738
1.02341
1.07239
1.12277
1.17133
1.21665
1.25934
1.30108
1.34331
1.38627
1.42889
1.4691
1.50459
1.53326
1.55361
1.56483
1.56687
1.56074
1.54666
1.52492
1.49662
1.46265
1.42309
1.37759
1.32465
1.26826
1.20657
1.14
1.07043
1.00071
0.934056
0.873266
0.820357
0.776706
0.743126
0.719646
0.702534
0.688761
0.674917
0.658534
0.638867
0.616582
0.593137
0.57019
0.549179
0.531072
0.516254
0.504467
0.494752
0.485223
0.474635
0.462206
0.447412
0.430198
0.411101
0.391201
0.371926
0.354764
0.340922
0.331138
0.325424
0.323109
0.323045
0.323926
0.32462
0.324419
0.323174
0.321321
0.319957
0.321085
0.328233
0.347498
0.388681
0.465093
0.588915
0.758825
0.945978
1.10046
1.1842
1.19496
1.15892
1.10851
1.06561
1.03797
1.0243
1.01996
1.02039
1.021
1.01718
1.00631
0.988473
0.966447
0.945695
0.932879
0.933361
0.948344
0.972982
0.997182
1.00928
1.00277
0.976677
0.938237
0.896538
0.858326
0.827028
0.803286
0.786147
0.774068
0.765545
0.759321
0.754375
1.27012
0.660396
0.615566
0.659728
0.735718
0.818139
0.889975
0.939745
0.96172
0.957145
0.932686
0.896849
0.856291
0.814095
0.770715
0.726415
0.683232
0.645363
0.61844
0.608899
0.61209
0.625631
0.651151
0.691057
0.748092
0.824732
0.922563
1.04205
1.1831
1.34589
1.53013
1.73182
1.94019
2.13783
2.30495
2.42489
2.48922
2.50058
2.47103
2.41792
2.3751
2.34255
2.31611
2.28819
2.24788
2.18143
2.07472
1.91937
1.72307
1.52041
1.36948
1.31509
1.34344
1.40181
1.43759
1.43272
1.39159
1.32841
1.25537
1.18
1.10775
1.04306
0.989251
0.948315
0.921443
0.909301
0.911668
0.92765
0.956304
0.996693
1.04709
1.10413
1.16304
1.21931
1.27063
1.31755
1.36223
1.40661
1.45108
1.49416
1.53315
1.56508
1.58763
1.59942
1.60028
1.5918
1.57496
1.55035
1.51799
1.4791
1.43687
1.39112
1.3425
1.29099
1.23607
1.17713
1.11401
1.04765
0.980167
0.914354
0.852877
0.797869
0.751014
0.713755
0.686972
0.670012
0.658383
0.646616
0.631794
0.613049
0.591095
0.567468
0.543908
0.521947
0.502695
0.486745
0.474125
0.464281
0.455878
0.44735
0.437799
0.426466
0.412946
0.397336
0.380279
0.362878
0.346476
0.332351
0.321528
0.314457
0.310939
0.310209
0.311167
0.312675
0.313859
0.31431
0.314205
0.314411
0.316706
0.324292
0.342677
0.380672
0.450366
0.56342
0.720523
0.898014
1.05104
1.14259
1.16748
1.14642
1.10659
1.0679
1.0393
1.02158
1.01194
1.00715
1.00415
0.998396
0.98517
0.9643
0.939795
0.917439
0.904242
0.905988
0.923992
0.952716
0.980655
0.994137
0.986521
0.959548
0.921005
0.880108
0.843702
0.814998
0.794297
0.780322
0.771272
0.765427
0.761366
0.757975
1.02516
0.668406
0.657505
0.718899
0.806216
0.89572
0.971265
1.02253
1.04472
1.03998
1.01576
0.981025
0.942592
0.903378
0.863467
0.822872
0.784166
0.75346
0.739153
0.741703
0.755359
0.785148
0.833821
0.904211
0.998862
1.11914
1.26428
1.43073
1.61205
1.79886
1.97843
2.13494
2.25231
2.31959
2.33544
2.30871
2.25549
2.19415
2.14012
2.10515
2.10152
2.12648
2.17664
2.24686
2.32799
2.40442
2.45223
2.44051
2.33948
2.13888
1.87411
1.63569
1.50714
1.47738
1.46476
1.42567
1.3633
1.2895
1.21385
1.14137
1.07501
1.01649
0.970333
0.937143
0.917329
0.910966
0.917291
0.935471
0.965356
1.00719
1.06036
1.12209
1.18737
1.25064
1.30829
1.3599
1.40749
1.45348
1.4988
1.54212
1.58021
1.6092
1.62617
1.62995
1.62117
1.60263
1.57578
1.54147
1.50066
1.45459
1.40483
1.3529
1.29996
1.24641
1.19179
1.13515
1.07571
1.01357
0.95001
0.887157
0.827293
0.772463
0.724578
0.685557
0.65682
0.638194
0.627172
0.617611
0.604151
0.586115
0.564444
0.540827
0.517063
0.494701
0.47488
0.458272
0.445071
0.434989
0.427225
0.420288
0.412999
0.404512
0.394217
0.381902
0.367849
0.352822
0.337926
0.324354
0.313237
0.305299
0.300717
0.29911
0.299672
0.30141
0.303425
0.305161
0.30658
0.308311
0.311875
0.320117
0.337949
0.373199
0.436662
0.539177
0.68292
0.849325
0.999421
1.0978
1.13598
1.12937
1.10038
1.06678
1.03806
1.01675
1.00178
0.990982
0.981569
0.969804
0.95355
0.932063
0.907761
0.88647
0.875735
0.881694
0.905342
0.939808
0.971692
0.987228
0.979534
0.95124
0.9115
0.870431
0.83508
0.808422
0.790385
0.779338
0.773169
0.769874
0.767798
0.7657
0.842408
0.670306
0.682168
0.753402
0.850216
0.947582
1.03204
1.09375
1.12695
1.13256
1.11726
1.09039
1.06029
1.03193
1.00689
0.985121
0.967163
0.955287
0.953126
0.957194
0.977973
1.01867
1.08121
1.16669
1.27462
1.40189
1.54188
1.68428
1.81591
1.92242
1.99085
2.0129
1.98811
1.92492
1.8385
1.74637
1.66437
1.60445
1.57402
1.57999
1.61039
1.66801
1.75803
1.88628
2.05625
2.26437
2.49357
2.70746
2.85008
2.85549
2.67327
2.32697
1.95306
1.70942
1.60286
1.50438
1.40073
1.29856
1.20987
1.13309
1.06698
1.0118
0.969612
0.94033
0.923894
0.919661
0.926462
0.943548
0.971278
1.01072
1.06224
1.12406
1.19175
1.25953
1.32266
1.37924
1.43021
1.47765
1.52279
1.56478
1.60076
1.6272
1.64124
1.64136
1.62716
1.60186
1.56769
1.52588
1.47764
1.42441
1.368
1.31033
1.25305
1.19699
1.14193
1.08684
1.03053
0.972473
0.913202
0.854138
0.797059
0.74382
0.6965
0.657369
0.628127
0.608751
0.596861
0.588117
0.575502
0.557718
0.53612
0.512591
0.488959
0.466719
0.446941
0.430272
0.416956
0.406848
0.399432
0.393765
0.388375
0.382278
0.374758
0.365409
0.354244
0.341734
0.328732
0.316266
0.305471
0.297197
0.291876
0.289442
0.289392
0.290953
0.293316
0.295885
0.298482
0.301536
0.306305
0.315269
0.332747
0.365622
0.423434
0.516081
0.646761
0.801456
0.94719
1.05072
1.10055
1.10722
1.08901
1.06148
1.03402
1.01042
0.99105
0.97476
0.959514
0.942704
0.922914
0.899621
0.87556
0.856951
0.851666
0.86565
0.898554
0.941081
0.97755
0.993477
0.983043
0.950932
0.908123
0.865656
0.830637
0.805643
0.790118
0.781987
0.778721
0.777927
0.777647
0.77649
0.752476
0.663453
0.682802
0.754445
0.854762
0.960786
1.06067
1.14346
1.20052
1.22913
1.23264
1.21898
1.19779
1.17719
1.16186
1.15308
1.15023
1.15269
1.15745
1.16966
1.1954
1.23694
1.29501
1.36836
1.45321
1.54269
1.62702
1.6947
1.73483
1.73994
1.70843
1.64542
1.56157
1.46998
1.38291
1.30976
1.2566
1.22664
1.2211
1.22841
1.23911
1.2626
1.31188
1.40276
1.55321
1.78023
2.09122
2.47078
2.87147
3.21342
3.37954
3.25907
2.83288
2.29381
1.92071
1.69786
1.5236
1.37645
1.2578
1.1628
1.08717
1.02821
0.984791
0.955472
0.939031
0.933951
0.938637
0.952226
0.975159
1.00882
1.05431
1.111
1.17573
1.24347
1.30912
1.36939
1.4235
1.47235
1.51684
1.55663
1.5899
1.61414
1.62705
1.62657
1.61094
1.5828
1.54474
1.49848
1.44549
1.38745
1.32638
1.26454
1.20397
1.1459
1.09037
1.03642
0.982654
0.928135
0.872829
0.817547
0.763588
0.712638
0.66691
0.628876
0.600255
0.580855
0.568221
0.558379
0.545776
0.527647
0.505862
0.482482
0.459306
0.437697
0.418576
0.402477
0.389601
0.379854
0.372865
0.367987
0.364238
0.36023
0.355133
0.348424
0.33993
0.329889
0.318908
0.307838
0.297763
0.289566
0.283826
0.280713
0.27999
0.281121
0.283455
0.28644
0.28984
0.293932
0.299737
0.309368
0.326564
0.357299
0.409914
0.493357
0.611548
0.754411
0.894701
1.00174
1.06147
1.07999
1.07211
1.05137
1.02669
1.00251
0.9803
0.9599
0.940107
0.919206
0.896368
0.871818
0.849182
0.83552
0.838976
0.864452
0.908843
0.959371
0.998113
1.01086
0.994107
0.955411
0.907831
0.863159
0.828238