/*--------------------------------*- C++ -*----------------------------------*\
| =========                 |                                                 |
| \\      /  F ield         | OpenFOAM: The Open Source CFD Toolbox           |
|  \\    /   O peration     | Version:  2112                                  |
|   \\  /    A nd           | Website:  www.openfoam.com                      |
|    \\/     M anipulation  |                                                 |
\*---------------------------------------------------------------------------*/
FoamFile
{
    version     2.0;
    format      ascii;
    arch        "LSB;label=32;scalar=64";
    class       volVectorField;
    location    "0.54";
    object      U;
}
// * * * * * * * * * * * * * * * * * * * * * * * * * * * * * * * * * * * * * //

dimensions      [0 1 -1 0 0 0 0];

internalField   nonuniform List<vector> 
12225
(
(9.764 0.0614774 0)
(9.26496 0.112617 0)
(8.73088 0.130614 0)
(8.20292 0.137409 0)
(7.72644 0.137239 0)
(7.32696 0.131447 0)
(7.01415 0.12198 0)
(6.78616 0.110853 0)
(6.63059 0.0995433 0)
(6.52981 0.0911916 0)
(6.46425 0.0858859 0)
(6.41686 0.0825715 0)
(6.37555 0.0802895 0)
(6.33418 0.0783578 0)
(6.28789 0.0761671 0)
(6.24497 0.0741905 0)
(6.14565 0.0974296 0)
(6.14723 -0.0421327 0)
(10.092 0.0650417 0)
(10.269 0.105438 0)
(10.3698 0.111933 0)
(10.3901 0.1129 0)
(10.3391 0.108114 0)
(10.2234 0.09584 0)
(10.051 0.0778047 0)
(9.83367 0.0572892 0)
(9.5846 0.037546 0)
(9.31709 0.0222426 0)
(9.04373 0.0120941 0)
(8.77621 0.00634021 0)
(8.52395 0.00380398 0)
(8.29385 0.00347197 0)
(8.08758 0.00398021 0)
(7.91062 0.00905669 0)
(7.755 0.0162016 0)
(7.68562 0.0874742 0)
(10.0204 0.0456716 0)
(10.0761 0.0769278 0)
(10.1309 0.0909298 0)
(10.1821 0.105551 0)
(10.2312 0.11788 0)
(10.2724 0.125611 0)
(10.2982 0.129988 0)
(10.3046 0.133172 0)
(10.2906 0.136729 0)
(10.2568 0.14074 0)
(10.2043 0.144577 0)
(10.1343 0.147353 0)
(10.0482 0.148243 0)
(9.94763 0.147022 0)
(9.83441 0.143576 0)
(9.71174 0.140675 0)
(9.58543 0.137926 0)
(9.46069 0.142255 0)
(10.0113 0.0353851 0)
(10.043 0.0681596 0)
(10.0735 0.0851015 0)
(10.0998 0.0983531 0)
(10.1263 0.107903 0)
(10.1531 0.113082 0)
(10.1779 0.115195 0)
(10.1994 0.116152 0)
(10.2177 0.117394 0)
(10.2332 0.119497 0)
(10.2465 0.122759 0)
(10.2577 0.126989 0)
(10.2665 0.13165 0)
(10.2723 0.136346 0)
(10.2741 0.140761 0)
(10.272 0.145716 0)
(10.2682 0.150312 0)
(10.261 0.148656 0)
(10.0072 0.0296693 0)
(10.0323 0.0621985 0)
(10.057 0.0791169 0)
(10.0779 0.0913732 0)
(10.0982 0.100292 0)
(10.1181 0.105541 0)
(10.1364 0.108116 0)
(10.1526 0.10967 0)
(10.1673 0.111512 0)
(10.1813 0.114236 0)
(10.1955 0.117992 0)
(10.2106 0.122465 0)
(10.2267 0.127103 0)
(10.244 0.131479 0)
(10.2623 0.135301 0)
(10.2821 0.138617 0)
(10.3041 0.140278 0)
(10.3293 0.13678 0)
(10.0049 0.0246457 0)
(10.0256 0.0559893 0)
(10.0478 0.0733277 0)
(10.0671 0.0854516 0)
(10.0854 0.094242 0)
(10.1032 0.0997793 0)
(10.1196 0.102851 0)
(10.1342 0.104834 0)
(10.1477 0.106847 0)
(10.1607 0.109399 0)
(10.174 0.11258 0)
(10.1882 0.116144 0)
(10.2034 0.119681 0)
(10.2199 0.122829 0)
(10.2376 0.125259 0)
(10.2569 0.126704 0)
(10.2781 0.126191 0)
(10.3014 0.121723 0)
(10.0036 0.0205147 0)
(10.0203 0.0495872 0)
(10.0405 0.0672721 0)
(10.0591 0.0795384 0)
(10.0767 0.0884163 0)
(10.0937 0.0941115 0)
(10.1094 0.0973883 0)
(10.1236 0.0994895 0)
(10.1368 0.101491 0)
(10.1497 0.103787 0)
(10.1629 0.106452 0)
(10.1768 0.109309 0)
(10.1916 0.11203 0)
(10.2075 0.11427 0)
(10.2244 0.115654 0)
(10.2425 0.115926 0)
(10.2619 0.114267 0)
(10.2824 0.109293 0)
(10.0027 0.0171652 0)
(10.0161 0.0436189 0)
(10.034 0.0608742 0)
(10.0516 0.0731743 0)
(10.0689 0.0821274 0)
(10.0857 0.0879797 0)
(10.1014 0.0915606 0)
(10.1157 0.0939357 0)
(10.129 0.0959123 0)
(10.142 0.0979199 0)
(10.1552 0.100107 0)
(10.169 0.102356 0)
(10.1835 0.10439 0)
(10.199 0.105888 0)
(10.2152 0.106512 0)
(10.2323 0.105864 0)
(10.2501 0.103278 0)
(10.2685 0.0978923 0)
(10.0018 0.0144522 0)
(10.0127 0.0383195 0)
(10.0283 0.0547387 0)
(10.0446 0.0665343 0)
(10.0611 0.0751782 0)
(10.0776 0.0811318 0)
(10.0933 0.0850668 0)
(10.108 0.0877675 0)
(10.1217 0.0897983 0)
(10.135 0.0916328 0)
(10.1483 0.0934262 0)
(10.1619 0.0950992 0)
(10.1762 0.0964338 0)
(10.1911 0.0971647 0)
(10.2067 0.0969921 0)
(10.2229 0.0954454 0)
(10.2395 0.092055 0)
(10.2562 0.0863527 0)
(10.0011 0.0122372 0)
(10.01 0.0335896 0)
(10.0237 0.0488912 0)
(10.0386 0.0600512 0)
(10.054 0.0682451 0)
(10.0696 0.0739844 0)
(10.085 0.0778954 0)
(10.0997 0.0806799 0)
(10.1138 0.0828195 0)
(10.1274 0.0845722 0)
(10.1409 0.0860379 0)
(10.1545 0.0871668 0)
(10.1685 0.0878009 0)
(10.183 0.0877337 0)
(10.1979 0.086733 0)
(10.2131 0.084499 0)
(10.2285 0.0806719 0)
(10.2437 0.0749877 0)
(10.0007 0.0103469 0)
(10.008 0.0292053 0)
(10.02 0.0433476 0)
(10.0335 0.0537124 0)
(10.0477 0.0613663 0)
(10.0624 0.0667834 0)
(10.0771 0.0705315 0)
(10.0914 0.0732084 0)
(10.1054 0.0752207 0)
(10.1191 0.0767744 0)
(10.1327 0.0779324 0)
(10.1464 0.0786406 0)
(10.1602 0.0787671 0)
(10.1743 0.0781434 0)
(10.1885 0.0765825 0)
(10.2029 0.0738651 0)
(10.2172 0.06976 0)
(10.2311 0.0641573 0)
(10.0005 0.00886994 0)
(10.0067 0.0254359 0)
(10.0174 0.0384175 0)
(10.0298 0.0480159 0)
(10.043 0.0550764 0)
(10.0567 0.0601177 0)
(10.0707 0.0636392 0)
(10.0845 0.0661343 0)
(10.0981 0.0679432 0)
(10.1116 0.0692479 0)
(10.125 0.0700971 0)
(10.1385 0.0704363 0)
(10.1521 0.0701499 0)
(10.1658 0.0690975 0)
(10.1796 0.0671291 0)
(10.1932 0.0640901 0)
(10.2066 0.0598442 0)
(10.2195 0.0543806 0)
(10.0005 0.00757015 0)
(10.0057 0.0219649 0)
(10.0151 0.033592 0)
(10.0266 0.0424436 0)
(10.0389 0.0488724 0)
(10.0518 0.0534678 0)
(10.065 0.0566821 0)
(10.0782 0.0589292 0)
(10.0914 0.0604874 0)
(10.1045 0.0615025 0)
(10.1177 0.062013 0)
(10.1309 0.0619749 0)
(10.1441 0.0612958 0)
(10.1573 0.0598652 0)
(10.1705 0.0575714 0)
(10.1835 0.0543158 0)
(10.196 0.0500278 0)
(10.2081 0.0447561 0)
(10.0004 0.0062641 0)
(10.0048 0.0183052 0)
(10.0131 0.0282988 0)
(10.0236 0.0361204 0)
(10.0351 0.0418805 0)
(10.0471 0.0458792 0)
(10.0594 0.0486341 0)
(10.072 0.0505031 0)
(10.0846 0.0517064 0)
(10.0973 0.0523488 0)
(10.1099 0.0524552 0)
(10.1226 0.0519947 0)
(10.1353 0.0509025 0)
(10.1479 0.0491029 0)
(10.1604 0.0465246 0)
(10.1726 0.0431172 0)
(10.1843 0.0388604 0)
(10.1955 0.0338359 0)
(10.0003 0.00493582 0)
(10.0041 0.0144689 0)
(10.0112 0.0225567 0)
(10.0207 0.0290058 0)
(10.0314 0.0339147 0)
(10.0426 0.0372639 0)
(10.0542 0.0394175 0)
(10.066 0.0407577 0)
(10.078 0.0414792 0)
(10.0901 0.041657 0)
(10.1022 0.0413016 0)
(10.1142 0.0403903 0)
(10.1263 0.0388833 0)
(10.1381 0.0367381 0)
(10.1498 0.0339208 0)
(10.1611 0.0304197 0)
(10.1719 0.0262505 0)
(10.1822 0.021506 0)
(10.0003 0.00356303 0)
(10.0035 0.0104528 0)
(10.0097 0.0163828 0)
(10.0181 0.0211549 0)
(10.0279 0.0248112 0)
(10.0384 0.0273702 0)
(10.0494 0.0288522 0)
(10.0605 0.0295464 0)
(10.0719 0.0296662 0)
(10.0833 0.029288 0)
(10.0947 0.0284183 0)
(10.1061 0.02704 0)
(10.1174 0.0251325 0)
(10.1285 0.0226798 0)
(10.1393 0.019677 0)
(10.1497 0.0161383 0)
(10.1597 0.0120998 0)
(10.1691 0.00765014 0)
(10.0003 0.00211875 0)
(10.0031 0.00621126 0)
(10.0085 0.0097376 0)
(10.016 0.0125404 0)
(10.0249 0.0146245 0)
(10.0347 0.0160081 0)
(10.0451 0.0166675 0)
(10.0557 0.016627 0)
(10.0664 0.0160587 0)
(10.0772 0.0150566 0)
(10.088 0.0136384 0)
(10.0986 0.0117939 0)
(10.1092 0.00951433 0)
(10.1194 0.00680052 0)
(10.1294 0.00366476 0)
(10.139 0.000134118 0)
(10.1482 -0.00374914 0)
(10.1569 -0.0079097 0)
(10.0003 0.000558607 0)
(10.0028 0.00162543 0)
(10.0077 0.00246878 0)
(10.0146 0.00299831 0)
(10.0228 0.00319375 0)
(10.032 0.00305325 0)
(10.0418 0.00256331 0)
(10.0519 0.00165923 0)
(10.0621 0.000338442 0)
(10.0723 -0.00132258 0)
(10.0825 -0.00329738 0)
(10.0925 -0.00558832 0)
(10.1023 -0.00819938 0)
(10.1119 -0.0111241 0)
(10.1211 -0.0143447 0)
(10.13 -0.0178325 0)
(10.1385 -0.0215482 0)
(10.1465 -0.025433 0)
(10.0002 -0.00119376 0)
(10.0027 -0.00352601 0)
(10.0074 -0.00572916 0)
(10.014 -0.00781446 0)
(10.0219 -0.0098205 0)
(10.0307 -0.0117857 0)
(10.0402 -0.0137448 0)
(10.05 -0.0157488 0)
(10.0599 -0.0178948 0)
(10.0697 -0.0202145 0)
(10.0794 -0.022713 0)
(10.089 -0.0254032 0)
(10.0982 -0.028295 0)
(10.1072 -0.0313871 0)
(10.1158 -0.0346659 0)
(10.1241 -0.0381083 0)
(10.132 -0.0416827 0)
(10.1395 -0.0453476 0)
(10.0003 -0.00289306 0)
(10.0029 -0.00850843 0)
(10.0079 -0.013614 0)
(10.0149 -0.0181504 0)
(10.0231 -0.0221903 0)
(10.0321 -0.0258152 0)
(10.0417 -0.0290946 0)
(10.0516 -0.0321072 0)
(10.0615 -0.0349498 0)
(10.0713 -0.0377408 0)
(10.0809 -0.0405756 0)
(10.0902 -0.0435054 0)
(10.0992 -0.0465416 0)
(10.1078 -0.0496804 0)
(10.116 -0.0529211 0)
(10.1238 -0.0562563 0)
(10.1313 -0.0596689 0)
(10.1384 -0.0631317 0)
(10.0003 -0.0044095 0)
(10.0033 -0.0129014 0)
(10.009 -0.0204363 0)
(10.0167 -0.0269383 0)
(10.0256 -0.032561 0)
(10.0352 -0.0374328 0)
(10.0452 -0.0416508 0)
(10.0554 -0.0453189 0)
(10.0655 -0.0485821 0)
(10.0754 -0.051643 0)
(10.085 -0.0546283 0)
(10.0942 -0.0575819 0)
(10.1029 -0.0605524 0)
(10.1111 -0.0635805 0)
(10.119 -0.0666888 0)
(10.1264 -0.0698814 0)
(10.1335 -0.0731465 0)
(10.1402 -0.0764572 0)
(10.0004 -0.00598266 0)
(10.004 -0.0173738 0)
(10.0108 -0.0271751 0)
(10.0196 -0.0354017 0)
(10.0294 -0.0423618 0)
(10.0398 -0.048227 0)
(10.0505 -0.0531062 0)
(10.0611 -0.0571857 0)
(10.0715 -0.0607068 0)
(10.0815 -0.0638508 0)
(10.091 -0.0667529 0)
(10.0999 -0.0695321 0)
(10.1083 -0.0722974 0)
(10.1162 -0.0751344 0)
(10.1236 -0.0780818 0)
(10.1307 -0.0811459 0)
(10.1374 -0.0843122 0)
(10.1438 -0.0875484 0)
(10.0005 -0.00774095 0)
(10.0053 -0.0221766 0)
(10.0137 -0.0340591 0)
(10.0237 -0.0437292 0)
(10.0345 -0.0517557 0)
(10.0457 -0.0583483 0)
(10.057 -0.0636671 0)
(10.0681 -0.0679568 0)
(10.0787 -0.0714784 0)
(10.0887 -0.07445 0)
(10.0981 -0.0770785 0)
(10.1068 -0.0795729 0)
(10.1148 -0.0820813 0)
(10.1223 -0.0847017 0)
(10.1294 -0.0874843 0)
(10.1361 -0.0904385 0)
(10.1424 -0.093544 0)
(10.1485 -0.0967548 0)
(10.0008 -0.00986778 0)
(10.0073 -0.0275553 0)
(10.0177 -0.0411787 0)
(10.0291 -0.0518836 0)
(10.0408 -0.0606578 0)
(10.0527 -0.0677173 0)
(10.0646 -0.0732489 0)
(10.076 -0.0775433 0)
(10.0868 -0.080868 0)
(10.0968 -0.0835344 0)
(10.1061 -0.0858194 0)
(10.1146 -0.0879635 0)
(10.1224 -0.0901587 0)
(10.1296 -0.0925346 0)
(10.1363 -0.0951564 0)
(10.1426 -0.098034 0)
(10.1487 -0.101142 0)
(10.1545 -0.104427 0)
(10.0014 -0.0126186 0)
(10.0106 -0.0336315 0)
(10.0231 -0.0483795 0)
(10.0357 -0.0595957 0)
(10.0482 -0.0688064 0)
(10.0607 -0.0761465 0)
(10.0732 -0.081744 0)
(10.0851 -0.0859335 0)
(10.0963 -0.0890522 0)
(10.1066 -0.0914153 0)
(10.116 -0.0933348 0)
(10.1245 -0.0951046 0)
(10.1322 -0.0969639 0)
(10.1392 -0.0990717 0)
(10.1457 -0.101503 0)
(10.1517 -0.104256 0)
(10.1576 -0.107279 0)
(10.1631 -0.110454 0)
(10.0028 -0.0163661 0)
(10.0154 -0.0401034 0)
(10.0304 -0.0552278 0)
(10.0443 -0.0666652 0)
(10.0576 -0.076185 0)
(10.0712 -0.0837094 0)
(10.0848 -0.0893176 0)
(10.0978 -0.0933766 0)
(10.11 -0.0962556 0)
(10.1213 -0.0983068 0)
(10.1315 -0.0999012 0)
(10.1406 -0.101405 0)
(10.1487 -0.103126 0)
(10.156 -0.105276 0)
(10.1626 -0.107959 0)
(10.1689 -0.111173 0)
(10.175 -0.114869 0)
(10.1811 -0.118897 0)
(10.0055 -0.0210888 0)
(10.0229 -0.0462602 0)
(10.0419 -0.0613396 0)
(10.0585 -0.0734921 0)
(10.0746 -0.0837853 0)
(10.0913 -0.0916799 0)
(10.1083 -0.0972685 0)
(10.125 -0.100959 0)
(10.1408 -0.10311 0)
(10.1555 -0.104074 0)
(10.1688 -0.104272 0)
(10.1805 -0.104146 0)
(10.1907 -0.10409 0)
(10.1995 -0.104395 0)
(10.2072 -0.105211 0)
(10.2141 -0.106625 0)
(10.2204 -0.108659 0)
(10.2255 -0.111188 0)
(10.0107 -0.029448 0)
(10.0424 -0.0541063 0)
(10.0742 -0.0664149 0)
(10.1039 -0.0788992 0)
(10.1345 -0.0912699 0)
(10.167 -0.101737 0)
(10.1992 -0.110124 0)
(10.229 -0.116771 0)
(10.255 -0.121946 0)
(10.2756 -0.125959 0)
(10.2902 -0.129254 0)
(10.298 -0.13233 0)
(10.2992 -0.135613 0)
(10.2941 -0.139383 0)
(10.2831 -0.14368 0)
(10.2667 -0.148284 0)
(10.2452 -0.153099 0)
(10.2205 -0.157845 0)
(10.0513 -0.0461528 0)
(10.1685 -0.0820684 0)
(10.2625 -0.0923072 0)
(10.3276 -0.0992048 0)
(10.3662 -0.104599 0)
(10.3778 -0.106741 0)
(10.3611 -0.105302 0)
(10.3172 -0.100574 0)
(10.2486 -0.0929314 0)
(10.1585 -0.0829149 0)
(10.0501 -0.0712941 0)
(9.92654 -0.0589619 0)
(9.79105 -0.0467974 0)
(9.6467 -0.0355676 0)
(9.4965 -0.0259112 0)
(9.34298 -0.0184603 0)
(9.18879 -0.0130643 0)
(9.03457 -0.010221 0)
(9.8688 -0.0442593 0)
(9.56973 -0.0872919 0)
(9.22715 -0.10662 0)
(8.86165 -0.118003 0)
(8.49793 -0.124931 0)
(8.15038 -0.127819 0)
(7.82725 -0.127257 0)
(7.53515 -0.123937 0)
(7.27923 -0.118463 0)
(7.06214 -0.111429 0)
(6.88386 -0.103442 0)
(6.74207 -0.0950821 0)
(6.63274 -0.0868511 0)
(6.55069 -0.0791696 0)
(6.49016 -0.0725459 0)
(6.44639 -0.0677471 0)
(6.41354 -0.0649322 0)
(6.39021 -0.0609674 0)
(-0.00641923 0.0108875 -1.05731e-20)
(-0.0101947 0.0123203 7.56804e-21)
(-0.0190092 0.013452 0)
(-0.0287421 0.0144988 0)
(-0.0389643 0.015429 0)
(-0.0497453 0.0162058 -7.73037e-21)
(-0.0610726 0.0168237 0)
(-0.0728658 0.0173051 0)
(-0.0850543 0.0177001 0)
(-0.0976044 0.0180982 0)
(-0.110536 0.0186547 7.89719e-21)
(-0.123867 0.019617 0)
(-0.13771 0.0206271 0)
(-0.152118 0.0211313 0)
(-0.166914 0.0212489 0)
(-0.181997 0.0212776 8.22336e-21)
(-0.19737 0.0213332 0)
(-0.213045 0.0214233 0)
(-0.229031 0.0215348 0)
(-0.245333 0.0216598 0)
(-0.261957 0.0217959 0)
(-0.278908 0.0219424 0)
(-0.296193 0.0220987 0)
(-0.31382 0.0222641 8.25343e-21)
(-0.331793 0.022438 -8.23442e-21)
(-0.35012 0.0226196 8.21269e-21)
(-0.368806 0.0228081 8.18868e-21)
(-0.387857 0.0230025 0)
(-0.407277 0.0232018 0)
(-0.427071 0.0234049 -8.10664e-21)
(-0.447242 0.0236104 -8.07694e-21)
(-0.467791 0.0238171 0)
(-0.488721 0.0240235 0)
(-0.51003 0.0242284 -7.98395e-21)
(-0.531719 0.0244303 0)
(-0.553785 0.0246277 0)
(-0.576224 0.0248192 7.88835e-21)
(-0.599031 0.0250035 0)
(-0.622201 0.0251791 7.82462e-21)
(-0.645725 0.0253446 1.55859e-20)
(-0.669595 0.0254987 0)
(-0.693801 0.0256401 0)
(-0.71833 0.0257676 0)
(-0.74317 0.0258799 0)
(-0.768308 0.0259761 0)
(-0.793726 0.026055 1.52154e-20)
(-0.819409 0.0261159 1.51553e-20)
(-0.845339 0.0261578 1.50956e-20)
(-0.871497 0.0261802 0)
(-0.897864 0.0261823 -1.49768e-20)
(-0.924418 0.0261639 0)
(-0.951138 0.0261246 1.48584e-20)
(-0.978002 0.0260643 1.4799e-20)
(-1.00499 0.0259829 0)
(-1.03207 0.0258804 0)
(-1.05923 0.0257571 0)
(-1.08644 0.025613 1.45568e-20)
(-1.11367 0.0254486 0)
(-1.14091 0.0252641 0)
(-1.16812 0.0250599 0)
(-1.19529 0.0248364 0)
(-1.22238 0.024594 0)
(-1.24938 0.0243329 0)
(-1.27626 0.0240535 0)
(-1.30299 0.023756 0)
(-1.32955 0.0234407 -1.39352e-20)
(-1.35591 0.0231076 0)
(-1.38205 0.0227567 0)
(-1.40794 0.0223881 1.36843e-20)
(-1.43355 0.0220016 1.35938e-20)
(-1.45887 0.0215972 0)
(-1.48385 0.0211747 -1.34012e-20)
(-1.50847 0.0207342 1.32985e-20)
(-1.53271 0.0202755 0)
(-1.55653 0.0197989 -1.30792e-20)
(-1.57991 0.0193046 0)
(-1.60282 0.018793 0)
(-1.62523 0.0182648 1.27117e-20)
(-1.64711 0.0177205 0)
(-1.66844 0.0171612 -1.24381e-20)
(-1.68919 0.0165878 0)
(-1.70933 0.0160013 1.21396e-20)
(-1.72884 0.0154029 1.19805e-20)
(-1.74769 0.0147937 1.18145e-20)
(-1.76586 0.0141749 2.32827e-20)
(-1.78333 0.0135473 -2.2922e-20)
(-1.80009 0.0129121 0)
(-1.8161 0.0122699 0)
(-1.83135 0.0116213 0)
(-1.84582 0.0109666 -2.13267e-20)
(-1.85949 0.0103058 -2.08882e-20)
(-1.87234 0.00963863 2.04332e-20)
(-1.88435 0.00896477 0)
(-1.89551 0.00828353 -1.94726e-20)
(-1.90579 0.007594 -1.89665e-20)
(-1.91516 0.00689482 -1.84429e-20)
(-1.92361 0.00618386 0)
(-1.9311 0.00545761 0)
(-1.93761 0.00471014 0)
(-1.94309 0.0039324 -1.6169e-20)
(-1.94751 0.00311643 0)
(-1.9508 0.00227072 0)
(-1.9529 0.00142698 1.4272e-20)
(-1.95378 0.000603159 0)
(-1.95355 -0.000201681 0)
(-1.95219 -0.000998973 1.22025e-20)
(-1.94968 -0.00179943 0)
(-1.94602 -0.00260699 0)
(-1.94117 -0.00342282 -9.96173e-21)
(-1.93512 -0.00424726 -9.17711e-21)
(-1.92785 -0.00508037 0)
(-1.91933 -0.00592205 7.55236e-21)
(-1.90955 -0.00677208 0)
(-1.89848 -0.00763015 -5.8554e-21)
(-1.88611 -0.00849584 0)
(-1.87242 -0.0093686 -4.08925e-21)
(-1.85739 -0.0102478 -3.18146e-21)
(-1.84101 -0.0111328 0)
(-1.82325 -0.0120229 0)
(-1.80412 -0.0129175 0)
(-1.7836 -0.0138161 0)
(-1.76168 -0.0147185 0)
(-1.73835 -0.0156247 0)
(-1.71359 -0.0165347 0)
(-1.68741 -0.0174488 4.57581e-21)
(-1.65979 -0.0183672 -5.59214e-21)
(-1.63072 -0.0192904 0)
(-1.6002 -0.0202185 0)
(-1.56822 -0.0211516 0)
(-1.53478 -0.0220897 0)
(-1.49986 -0.0230324 -2.14602e-20)
(-1.46347 -0.0239792 0)
(-1.42561 -0.0249294 2.55491e-20)
(-1.38627 -0.0258818 -2.75696e-20)
(-1.34546 -0.0268353 0)
(-1.30318 -0.0277885 0)
(-1.25946 -0.0287395 0)
(-1.2143 -0.0296864 3.53465e-20)
(-1.16773 -0.0306272 3.71775e-20)
(-1.11977 -0.0315593 0)
(-1.07045 -0.03248 4.06426e-20)
(-1.0198 -0.0333861 4.22566e-20)
(-0.967883 -0.0342744 -4.3777e-20)
(-0.914729 -0.0351421 0)
(-0.860396 -0.035987 0)
(-0.804937 -0.0368082 -4.76516e-20)
(-0.748408 -0.0376061 0)
(-0.690861 -0.0383846 0)
(-0.632338 -0.0391518 0)
(-0.572866 -0.0399198 0)
(-0.512454 -0.0407002 5.08455e-20)
(-0.451101 -0.041497 5.07498e-20)
(-0.38883 -0.0422896 0)
(-0.325667 -0.04297 4.92485e-20)
(-0.261842 -0.042774 0)
(-0.200442 -0.0385005 0)
(-0.144876 -0.0311035 4.30976e-20)
(-0.0924669 -0.0269485 0)
(-0.0394589 -0.0267619 4.44939e-20)
(0.0136836 -0.026372 0)
(0.0660726 -0.0256022 0)
(0.116968 -0.028025 4.72429e-20)
(0.168324 -0.0332466 0)
(0.223326 -0.0359608 5.5734e-20)
(0.280302 -0.0353777 0)
(0.336737 -0.0342339 0)
(0.392503 -0.0330485 0)
(0.447565 -0.0318898 -6.9548e-20)
(0.501901 -0.0307822 0)
(0.555529 -0.0297303 7.45867e-20)
(0.608473 -0.0287295 0)
(0.660753 -0.0277714 0)
(0.712372 -0.0268437 0)
(0.763305 -0.0259274 0)
(0.813501 -0.0249862 0)
(0.862718 -0.0239434 0)
(0.910836 -0.0225531 0)
(0.955125 -0.020121 -1.78235e-19)
(0.998201 -0.0132491 0)
(0.992948 0.00345007 0)
(-0.00905425 0.0215102 2.94175e-20)
(-0.0121385 0.0244266 -2.14066e-20)
(-0.0220007 0.0269116 0)
(-0.0325587 0.0289078 1.43638e-20)
(-0.043439 0.0305777 0)
(-0.054851 0.0319932 7.26719e-21)
(-0.0668575 0.0331871 -1.45854e-20)
(-0.079427 0.034194 -1.4656e-20)
(-0.0925282 0.0350581 0)
(-0.106139 0.0358341 -1.47572e-20)
(-0.120227 0.0365896 -7.40905e-21)
(-0.134715 0.0374023 0)
(-0.149541 0.0383025 0)
(-0.164725 0.0391778 0)
(-0.180321 0.039952 0)
(-0.196347 0.0406375 -7.38292e-21)
(-0.212785 0.0412715 0)
(-0.229612 0.0418799 1.4621e-20)
(-0.246815 0.0424751 0)
(-0.264389 0.0430631 0)
(-0.282332 0.0436471 -1.44227e-20)
(-0.300646 0.0442292 0)
(-0.319335 0.0448107 1.42747e-20)
(-0.338403 0.045392 -7.12181e-21)
(-0.357854 0.0459731 7.08327e-21)
(-0.377694 0.0465535 -7.0444e-21)
(-0.397926 0.0471323 -7.00537e-21)
(-0.418554 0.0477081 0)
(-0.439582 0.0482792 0)
(-0.461012 0.0488438 6.88847e-21)
(-0.482845 0.0493998 -6.80115e-21)
(-0.505083 0.0499449 0)
(-0.527724 0.0504768 0)
(-0.550766 0.0509928 6.73628e-21)
(-0.574206 0.0514906 0)
(-0.598039 0.0519676 0)
(-0.62226 0.052421 -6.62678e-21)
(-0.64686 0.0528485 0)
(-0.671831 0.0532475 6.50436e-21)
(-0.697162 0.0536154 -1.30442e-20)
(-0.72284 0.05395 0)
(-0.748853 0.054249 0)
(-0.775185 0.0545102 -2.55828e-20)
(-0.80182 0.0547315 -2.54535e-20)
(-0.82874 0.0549113 -2.53262e-20)
(-0.855925 0.0550478 1.25468e-20)
(-0.883356 0.0551395 -1.25923e-20)
(-0.91101 0.0551852 -3.74864e-20)
(-0.938865 0.0551839 2.48344e-20)
(-0.966898 0.0551348 1.24112e-20)
(-0.995085 0.0550374 0)
(-1.0234 0.0548914 -1.22928e-20)
(-1.05182 0.0546968 1.21275e-20)
(-1.08031 0.0544538 0)
(-1.10885 0.0541626 0)
(-1.13742 0.0538239 0)
(-1.16598 0.0534383 -1.19979e-20)
(-1.19451 0.0530067 0)
(-1.22298 0.0525299 2.36517e-20)
(-1.25136 0.0520089 0)
(-1.27963 0.0514446 2.34048e-20)
(-1.30777 0.050838 0)
(-1.33573 0.0501902 -2.3148e-20)
(-1.3635 0.0495019 0)
(-1.39104 0.0487742 2.28783e-20)
(-1.41834 0.0480076 -1.13215e-20)
(-1.44536 0.047203 0)
(-1.47207 0.0463609 -2.24424e-20)
(-1.49846 0.0454818 -1.11885e-20)
(-1.52448 0.0445661 -1.11072e-20)
(-1.55011 0.0436145 0)
(-1.57532 0.0426272 -1.08507e-20)
(-1.60008 0.041605 -1.08441e-20)
(-1.62437 0.0405486 0)
(-1.64815 0.0394588 1.06506e-20)
(-1.67139 0.0383368 -2.10196e-20)
(-1.69407 0.0371839 0)
(-1.71616 0.0360018 -1.03292e-20)
(-1.73763 0.0347923 0)
(-1.75844 0.0335574 3.02092e-20)
(-1.77859 0.0322994 0)
(-1.79804 0.0310203 -2.94421e-20)
(-1.81676 0.0297227 -9.69751e-21)
(-1.83473 0.0284087 9.50023e-21)
(-1.85194 0.0270806 1.87104e-20)
(-1.86836 0.0257405 -1.84088e-20)
(-1.88396 0.0243902 0)
(-1.89874 0.0230313 0)
(-1.91267 0.0216649 0)
(-1.92572 0.020292 5.13894e-20)
(-1.9379 0.0189128 1.67839e-20)
(-1.94917 0.0175274 -1.64009e-20)
(-1.95951 0.0161353 0)
(-1.96891 0.014736 -1.55508e-20)
(-1.97734 0.0133283 1.51713e-20)
(-1.98479 0.0119109 1.47342e-20)
(-1.99124 0.0104818 0)
(-1.99665 0.00903859 0)
(-2.00101 0.00757786 0)
(-2.00431 0.006095 1.28463e-20)
(-2.00654 0.0045857 0)
(-2.00769 0.00305549 -2.36576e-20)
(-2.00782 0.00153113 -3.38734e-20)
(-2.00691 4.07249e-05 2.14987e-20)
(-2.00485 -0.00142173 0)
(-2.00161 -0.00287374 9.64473e-21)
(-1.99717 -0.00432317 0)
(-1.9915 -0.00577283 1.6861e-20)
(-1.98459 -0.00722318 -7.86229e-21)
(-1.97641 -0.00867387 -7.24322e-21)
(-1.96696 -0.0101242 0)
(-1.9562 -0.0115732 -1.76696e-20)
(-1.94412 -0.0130199 1.05019e-20)
(-1.93072 -0.0144631 4.51028e-21)
(-1.91596 -0.0159014 0)
(-1.89984 -0.0173335 3.1309e-21)
(-1.88235 -0.0187576 7.46124e-21)
(-1.86347 -0.0201722 0)
(-1.8432 -0.0215756 2.20117e-21)
(-1.82153 -0.0229663 7.66949e-22)
(-1.79845 -0.024343 -6.76591e-22)
(-1.77395 -0.0257048 0)
(-1.74804 -0.0270509 0)
(-1.72071 -0.0283811 0)
(-1.69196 -0.0296948 3.11031e-21)
(-1.66178 -0.0309921 4.11618e-21)
(-1.63019 -0.0322727 0)
(-1.59716 -0.0335361 1.08227e-20)
(-1.56272 -0.0347817 1.22408e-20)
(-1.52685 -0.0360086 0)
(-1.48957 -0.0372154 1.53653e-20)
(-1.45087 -0.0384003 3.27304e-20)
(-1.41077 -0.0395611 -1.80561e-20)
(-1.36928 -0.0406951 -1.85755e-20)
(-1.32641 -0.0417995 0)
(-1.28218 -0.0428708 0)
(-1.23661 -0.0439053 0)
(-1.18973 -0.0448989 -2.40452e-20)
(-1.14156 -0.0458474 2.41822e-20)
(-1.09215 -0.046746 5.11577e-20)
(-1.04153 -0.0475895 -2.6925e-20)
(-0.989749 -0.0483727 2.67798e-20)
(-0.936861 -0.0490899 2.84681e-20)
(-0.882921 -0.049736 0)
(-0.827991 -0.0503069 0)
(-0.772134 -0.0507992 -2.91355e-20)
(-0.715417 -0.0512107 0)
(-0.657908 -0.0515416 0)
(-0.599674 -0.0517939 6.12051e-20)
(-0.540779 -0.0519694 0)
(-0.481295 -0.0520609 3.03748e-20)
(-0.421317 -0.052038 -3.15241e-20)
(-0.361012 -0.0518077 0)
(-0.300705 -0.0510978 3.0487e-20)
(-0.240917 -0.0492784 0)
(-0.182619 -0.0457803 0)
(-0.126062 -0.0424446 -3.08994e-20)
(-0.0700686 -0.0415872 6.23608e-20)
(-0.0145416 -0.0416359 -3.20069e-20)
(0.0404817 -0.0410496 0)
(0.0954267 -0.0397135 0)
(0.150241 -0.0388115 3.29442e-20)
(0.206019 -0.0399787 0)
(0.263428 -0.0416398 3.56542e-20)
(0.321663 -0.0422253 0)
(0.379984 -0.0420394 0)
(0.438087 -0.0415121 0)
(0.495808 -0.0408434 4.28225e-20)
(0.553098 -0.0401128 0)
(0.609948 -0.0393543 -4.624e-20)
(0.666361 -0.0385814 0)
(0.722332 -0.0377961 0)
(0.777841 -0.0369908 1.0235e-19)
(0.832829 -0.0361438 -1.05912e-19)
(0.887196 -0.0352071 0)
(0.940628 -0.0340595 0)
(0.992876 -0.0323777 0)
(1.04148 -0.0291178 3.58924e-19)
(1.08947 -0.0207277 0)
(1.11304 -0.000758736 -2.51389e-19)
(-0.0109214 0.0424773 -1.10825e-23)
(-0.0135751 0.0470387 2.96996e-20)
(-0.0241635 0.0508786 0)
(-0.0356402 0.0541529 -2.8879e-20)
(-0.0471838 0.0570296 0)
(-0.0591745 0.0595906 0)
(-0.0717547 0.0618682 -1.42261e-23)
(-0.0849066 0.0638953 1.46478e-20)
(-0.098599 0.0657172 1.47116e-20)
(-0.112806 0.0673881 1.47331e-20)
(-0.127495 0.0689628 0)
(-0.142615 0.0704791 0)
(-0.158114 0.0719278 -1.47515e-20)
(-0.173973 0.0732659 -2.94419e-20)
(-0.190205 0.0744773 2.93548e-20)
(-0.206826 0.0755824 0)
(-0.223839 0.0766133 2.91183e-20)
(-0.241238 0.0775966 -1.44747e-20)
(-0.25902 0.0785512 0)
(-0.277182 0.0794896 2.86644e-20)
(-0.295722 0.0804204 1.42364e-20)
(-0.314643 0.0813487 -2.83273e-20)
(-0.333945 0.0822778 -1.40648e-20)
(-0.353631 0.0832089 0)
(-0.373704 0.0841421 2.78007e-20)
(-0.394166 0.0850761 2.76232e-20)
(-0.41502 0.0860091 0)
(-0.436268 0.0869384 2.72687e-20)
(-0.45791 0.0878606 0)
(-0.479948 0.088772 2.69175e-20)
(-0.502379 0.0896685 1.33618e-20)
(-0.525204 0.0905458 0)
(-0.548418 0.0913993 0)
(-0.572017 0.0922242 0)
(-0.595996 0.0930156 0)
(-0.620348 0.0937689 0)
(-0.645063 0.094479 0)
(-0.670133 0.0951413 2.55816e-20)
(-0.695545 0.0957511 -3.81271e-20)
(-0.721286 0.0963038 0)
(-0.747342 0.0967951 0)
(-0.773696 0.097221 0)
(-0.800332 0.0975775 -1.78406e-23)
(-0.82723 0.0978612 2.46525e-20)
(-0.85437 0.0980688 4.90333e-20)
(-0.881731 0.0981975 -4.87475e-20)
(-0.90929 0.0982449 -2.42409e-20)
(-0.937024 0.0982088 2.40842e-20)
(-0.964909 0.0980878 1.64896e-23)
(-0.992917 0.0978806 2.38244e-20)
(-1.02103 0.0975868 0)
(-1.04921 0.097206 2.3551e-20)
(-1.07743 0.0967385 1.51369e-23)
(-1.10567 0.0961849 0)
(-1.13391 0.0955463 0)
(-1.1621 0.0948239 -2.30054e-20)
(-1.19023 0.0940192 0)
(-1.21827 0.093134 0)
(-1.24619 0.0921701 2.26003e-20)
(-1.27396 0.0911295 4.48914e-20)
(-1.30156 0.0900142 -2.229e-20)
(-1.32896 0.0888261 0)
(-1.35613 0.0875673 2.19942e-20)
(-1.38305 0.0862394 0)
(-1.40968 0.0848442 2.17034e-20)
(-1.43601 0.0833831 2.15255e-20)
(-1.46201 0.0818577 -4.27381e-20)
(-1.48765 0.0802689 -2.12069e-20)
(-1.5129 0.0786178 0)
(-1.53775 0.0769054 4.1691e-20)
(-1.56215 0.0751325 0)
(-1.58609 0.0733003 6.1401e-20)
(-1.60954 0.0714097 4.05424e-20)
(-1.63247 0.0694623 4.01338e-20)
(-1.65486 0.0674597 -3.97112e-20)
(-1.67668 0.0654041 5.89068e-20)
(-1.69789 0.0632978 0)
(-1.71848 0.0611439 0)
(-1.73843 0.0589457 -3.78688e-20)
(-1.75769 0.0567067 -5.60469e-20)
(-1.77626 0.0544309 0)
(-1.7941 0.0521221 1.81514e-20)
(-1.8112 0.0497844 0)
(-1.82753 0.0474217 -5.27663e-20)
(-1.84308 0.0450378 9.71195e-24)
(-1.85781 0.0426365 -1.05051e-23)
(-1.87172 0.0402207 3.33387e-20)
(-1.88479 0.0377934 0)
(-1.897 0.0353564 -3.20089e-20)
(-1.90833 0.0329113 1.5344e-23)
(-1.91876 0.0304587 0)
(-1.92829 0.0279989 0)
(-1.93689 0.0255312 0)
(-1.94454 0.0230548 2.82899e-20)
(-1.95123 0.0205685 0)
(-1.95694 0.0180712 0)
(-1.96166 0.0155616 0)
(-1.96537 0.013039 0)
(-1.96804 0.0105037 0)
(-1.96968 0.00795855 2.31582e-20)
(-1.97027 0.0054103 0)
(-1.96981 0.00286659 2.12121e-20)
(-1.96829 0.000330173 2.02228e-20)
(-1.96566 -0.0022011 -1.92132e-20)
(-1.96191 -0.00473029 0)
(-1.957 -0.00725736 -1.7133e-20)
(-1.95091 -0.00978267 0)
(-1.94362 -0.0123057 -1.49732e-20)
(-1.93513 -0.0148253 1.38646e-20)
(-1.9254 -0.01734 3.83711e-20)
(-1.91442 -0.0198479 0)
(-1.90219 -0.0223472 3.14721e-20)
(-1.88868 -0.0248357 9.43857e-21)
(-1.87389 -0.0273112 0)
(-1.85779 -0.0297709 1.39171e-20)
(-1.84039 -0.0322121 1.14894e-20)
(-1.82167 -0.0346316 -1.34502e-20)
(-1.80162 -0.0370264 0)
(-1.78024 -0.0393931 -1.9243e-21)
(-1.75752 -0.041729 -6.69669e-22)
(-1.73346 -0.0440313 1.52301e-21)
(-1.70806 -0.0462981 0)
(-1.68131 -0.0485278 0)
(-1.65322 -0.0507191 0)
(-1.62379 -0.0528714 5.36699e-21)
(-1.59301 -0.0549838 0)
(-1.5609 -0.0570554 0)
(-1.52745 -0.0590854 -9.38004e-21)
(-1.49267 -0.0610722 -1.06032e-20)
(-1.45657 -0.0630138 0)
(-1.41914 -0.0649077 0)
(-1.38039 -0.0667506 -2.83249e-20)
(-1.34035 -0.0685387 0)
(-1.29901 -0.0702676 3.28225e-20)
(-1.2564 -0.0719324 3.46665e-20)
(-1.21253 -0.073528 0)
(-1.16742 -0.0750486 0)
(-1.12111 -0.0764884 -4.06669e-20)
(-1.07362 -0.0778413 -3.03174e-22)
(-1.02498 -0.0791012 -2.99034e-22)
(-0.975229 -0.0802619 0)
(-0.924414 -0.0813171 -9.49823e-20)
(-0.872575 -0.0822613 0)
(-0.819764 -0.0830903 0)
(-0.766032 -0.0838021 0)
(-0.711436 -0.0843976 5.25124e-20)
(-0.656031 -0.0848803 0)
(-0.599878 -0.0852577 -1.0815e-19)
(-0.54304 -0.085542 -5.50692e-20)
(-0.485584 -0.0857454 0)
(-0.427596 -0.0858685 -5.6433e-20)
(-0.369195 -0.0858811 0)
(-0.310577 -0.0856779 0)
(-0.252064 -0.0849627 -1.75235e-19)
(-0.193976 -0.083116 1.18517e-19)
(-0.136224 -0.0796761 0)
(-0.0782941 -0.0760779 1.23087e-19)
(-0.0202542 -0.0742731 -6.28409e-20)
(0.0371077 -0.0735669 0)
(0.0938894 -0.0725213 0)
(0.150852 -0.0710208 0)
(0.20819 -0.0703138 -2.00035e-19)
(0.265704 -0.0712202 0)
(0.323362 -0.0722214 -6.89665e-20)
(0.381498 -0.0721166 0)
(0.440203 -0.0712708 0)
(0.499209 -0.070142 0)
(0.55828 -0.0689385 0)
(0.617291 -0.0677362 0)
(0.676173 -0.0665578 0)
(0.734876 -0.0654019 -1.67443e-19)
(0.793355 -0.0642535 0)
(0.851551 -0.0630842 -8.93952e-20)
(0.909373 -0.061844 2.75722e-19)
(0.966685 -0.0604372 0)
(1.02315 -0.0586528 0)
(1.07854 -0.0559957 -1.99757e-19)
(1.13078 -0.0511578 -2.05663e-19)
(1.18352 -0.0406825 2.10755e-19)
(1.22166 -0.0193527 2.16382e-19)
(-0.0129303 0.064038 -6.92728e-20)
(-0.0156474 0.0691587 -4.6679e-20)
(-0.0266997 0.0734761 -2.92746e-20)
(-0.038963 0.0775335 -1.45894e-20)
(-0.0511056 0.0813118 0)
(-0.0636156 0.0848014 2.91686e-20)
(-0.0766948 0.0879929 -1.46241e-20)
(-0.0903328 0.0908936 0)
(-0.104495 0.0935304 -1.46847e-20)
(-0.119153 0.0959421 0)
(-0.134276 0.0981711 2.94457e-20)
(-0.149825 0.100253 0)
(-0.165768 0.102206 1.46844e-20)
(-0.182083 0.104034 2.92897e-20)
(-0.198764 0.105742 -2.91848e-20)
(-0.215813 0.107347 0)
(-0.233231 0.108871 -2.8914e-20)
(-0.251017 0.110333 0)
(-0.269168 0.111752 0)
(-0.287683 0.113141 -2.84116e-20)
(-0.306562 0.114511 0)
(-0.325805 0.115869 -1.49692e-23)
(-0.345411 0.11722 0)
(-0.365382 0.118565 0)
(-0.385718 0.119904 1.5609e-23)
(-0.406421 0.121237 -2.728e-20)
(-0.42749 0.12256 -2.7104e-20)
(-0.448925 0.123871 -2.68964e-20)
(-0.470725 0.125164 0)
(-0.492887 0.126435 -5.30487e-20)
(-0.51541 0.127677 0)
(-0.538287 0.128886 -2.61581e-20)
(-0.561514 0.130053 0)
(-0.585084 0.131174 0)
(-0.608989 0.132241 2.56089e-20)
(-0.633219 0.133247 0)
(-0.657763 0.134185 -2.52522e-20)
(-0.682608 0.13505 1.87717e-23)
(-0.70774 0.135834 4.9788e-20)
(-0.733144 0.136532 -4.94641e-20)
(-0.758802 0.137137 0)
(-0.784697 0.137644 0)
(-0.81081 0.138048 -2.42486e-20)
(-0.837119 0.138343 0)
(-0.863602 0.138527 -2.38814e-20)
(-0.890237 0.138595 2.37198e-20)
(-0.917 0.138544 2.35593e-20)
(-0.943866 0.138372 0)
(-0.97081 0.138076 -2.32414e-20)
(-0.997806 0.137657 -2.30835e-20)
(-1.02483 0.137113 4.5892e-20)