/*--------------------------------*- C++ -*----------------------------------*\
| =========                 |                                                 |
| \\      /  F ield         | OpenFOAM: The Open Source CFD Toolbox           |
|  \\    /   O peration     | Version:  2112                                  |
|   \\  /    A nd           | Website:  www.openfoam.com                      |
|    \\/     M anipulation  |                                                 |
\*---------------------------------------------------------------------------*/
FoamFile
{
    version     2.0;
    format      ascii;
    arch        "LSB;label=32;scalar=64";
    class       volScalarField;
    location    "0.57";
    object      ddt0(kU);
}
// * * * * * * * * * * * * * * * * * * * * * * * * * * * * * * * * * * * * * //

dimensions      [0 2 -3 0 0 0 0];

internalField   nonuniform List<scalar> 
12225
(
-0.000229214
-0.00855561
-0.0447192
-0.132179
-0.455782
-0.976307
-1.74552
-2.82466
-4.28662
-6.21482
-8.69487
-11.8041
-15.5944
-20.0726
-25.1445
-30.6121
-35.9638
-40.7012
0.00723091
0.033068
0.081854
0.159258
0.264479
0.406287
0.598344
0.858217
1.20679
1.66091
2.24647
2.97385
3.83606
4.79841
5.7864
6.67738
7.28333
7.40651
-0.000643002
0.00262153
0.0105462
0.0232794
0.0246993
0.0363827
0.0697429
0.140711
0.269896
0.482768
0.810389
1.28815
1.95395
2.84351
3.9804
5.35858
6.90843
8.47418
1.29197e-05
-0.000418231
9.06693e-05
0.00246587
0.00735927
0.0132661
0.0189745
0.0230867
0.000663239
-0.0274682
-0.0544876
-0.0660418
-0.0374353
0.0678182
0.29639
0.697691
1.30645
2.11329
0.000204576
-0.000759719
-0.0023932
-0.004039
-0.00531498
-0.00595227
-0.00571528
-0.00455904
-0.00386573
-0.00461594
-0.00840894
-0.0169065
-0.0305023
-0.0465019
-0.0561823
-0.0435168
0.0178947
0.150224
0.00035096
-0.000229399
-0.00132236
-0.00243881
-0.00349234
-0.00436045
-0.00468996
-0.00406767
-0.00221485
0.000907045
0.00483222
0.00827521
0.00891894
0.00363416
-0.0105345
-0.0340189
-0.0627528
-0.0843435
0.000476655
0.00023764
-0.000521196
-0.00143951
-0.0024321
-0.00337418
-0.00389017
-0.00343945
-0.00139369
0.00295559
0.0103092
0.0211177
0.0351603
0.0509905
0.0652183
0.0722201
0.0648107
0.0458785
0.000572235
0.000602638
0.000143486
-0.000491507
-0.00115535
-0.00172001
-0.00187555
-0.00115505
0.00101299
0.0053225
0.0125881
0.0236654
0.0392984
0.0599239
0.0853828
0.114632
0.127927
0.138261
0.000645143
0.000902808
0.000742772
0.000417084
9.64445e-05
-8.73781e-05
0.000136945
0.00119114
0.00359556
0.00796744
0.0150247
0.0255472
0.0403202
0.0600937
0.0855837
0.117553
0.136322
0.156411
0.000701456
0.0011457
0.00125622
0.00121522
0.00119722
0.00134689
0.00191414
0.00328397
0.00593293
0.0104137
0.0173563
0.027448
0.0414092
0.0600058
0.0841124
0.114821
0.133878
0.155418
0.00074439
0.00133464
0.00167666
0.001893
0.00214938
0.0025998
0.00347469
0.00511879
0.0079618
0.012498
0.0192842
0.0289331
0.042104
0.0595439
0.0821215
0.110982
0.13006
0.152645
0.000774107
0.0014688
0.0019899
0.00241688
0.00289903
0.00359205
0.00471003
0.00656256
0.00953693
0.0140769
0.0206783
0.0298896
0.0423136
0.0586536
0.0797423
0.106699
0.133218
0.157607
0.000794214
0.00156541
0.00223034
0.00283911
0.00352107
0.00442804
0.00576021
0.00779588
0.0108814
0.0154118
0.0218255
0.030607
0.0422965
0.0575211
0.0770431
0.10183
0.132925
0.151707
0.000805548
0.00163476
0.00242332
0.00320153
0.00407603
0.00518898
0.00672538
0.00893145
0.0121095
0.0166029
0.0227903
0.0310894
0.0419699
0.0559729
0.0737613
0.0961055
0.124029
0.144678
0.000802126
0.00166426
0.00254565
0.00346819
0.00451857
0.00582511
0.00755551
0.00992432
0.0131891
0.0176396
0.0235926
0.031395
0.0414339
0.0541511
0.0700692
0.089762
0.11399
0.142757
0.000774242
0.00163422
0.0025659
0.00359435
0.00479323
0.00627622
0.00819264
0.0107269
0.0140932
0.0185278
0.024284
0.0316344
0.0408771
0.0523422
0.0664025
0.083448
0.103983
0.128085
0.000708431
0.00151885
0.00244706
0.00353124
0.00484067
0.0064766
0.00856968
0.0112752
0.0147665
0.0192277
0.0248501
0.0318316
0.04038
0.0507149
0.0630718
0.0776712
0.0947959
0.114387
0.000589516
0.00129284
0.00216155
0.00325578
0.00464851
0.00643282
0.00872249
0.0116454
0.0153345
0.019921
0.0255307
0.0322849
0.0403032
0.0497049
0.0606136
0.0731351
0.087424
0.103386
0.000403978
0.00093282
0.0016817
0.00274015
0.00419216
0.00612832
0.00864676
0.0118437
0.0158052
0.0206051
0.0263045
0.0329521
0.0405874
0.049244
0.0589551
0.0697377
0.0816421
0.0945628
0.000213316
0.000565882
0.00120068
0.00223613
0.00376057
0.00585885
0.00861307
0.0120898
0.0163324
0.0213631
0.02719
0.0338112
0.0412153
0.0493789
0.0582727
0.0678573
0.0781277
0.0889916
7.28851e-05
0.000307808
0.000892503
0.00196451
0.00360782
0.00588964
0.00886649
0.0125785
0.0170478
0.0222772
0.028244
0.0348976
0.042173
0.0500052
0.0583401
0.067124
0.0763283
0.0858666
-3.47057e-05
0.000143679
0.000752733
0.00191919
0.00371783
0.00621589
0.00946837
0.0134971
0.018291
0.0238115
0.029996
0.0367661
0.0440355
0.0517146
0.05972
0.0679788
0.0764511
0.0850713
-0.00010508
6.63231e-05
0.000757061
0.00206696
0.00404547
0.00675001
0.0102163
0.0144386
0.0193828
0.0249972
0.0312099
0.0379278
0.0450447
0.0524561
0.0600717
0.0678151
0.0756379
0.0834784
-0.000146738
6.55384e-05
0.000888329
0.002405
0.00467528
0.00776762
0.0116994
0.0164281
0.0218786
0.0279571
0.0345531
0.0415463
0.0488166
0.0562511
0.0637517
0.071239
0.0786628
0.085979
-0.000147583
0.000173062
0.00111427
0.00266163
0.00487763
0.00785206
0.011606
0.0161049
0.0212919
0.0270851
0.033374
0.0400268
0.0469055
0.0538787
0.0608356
0.0676884
0.074385
0.0808811
-0.000115565
0.000464847
0.0019001
0.00411127
0.00709696
0.0108488
0.0152576
0.0201413
0.0253066
0.0305482
0.0357026
0.040622
0.0451744
0.0492416
0.0527241
0.0555404
0.0576332
0.0592381
-8.76e-05
0.000274412
0.000918986
0.00168393
0.00234305
0.0024971
0.00210204
0.00107791
-0.000427874
-0.00375671
-0.0069674
-0.00957817
-0.0111513
-0.0113595
-0.0100231
-0.00711189
-0.00236547
0.020678
0.000402788
-0.000177465
-0.00262105
-0.00716844
-0.0134342
-0.0204307
-0.0133356
-0.00520406
0.00192105
0.00560385
0.00321467
-0.00786868
-0.0301434
-0.0658576
-0.116883
-0.184574
-0.269888
-0.373053
-0.00336898
-0.0159515
-0.0398065
-0.0749697
-0.119283
-0.171168
-0.231113
-0.300924
-0.382712
-0.478158
-0.588675
-0.71559
-0.860149
-1.02322
-1.20482
-1.40358
-1.61893
-1.84771
-5.63097e-05
0.0029632
0.0191012
0.0627338
0.185068
0.367921
0.617329
0.940821
1.34557
1.83712
2.41945
3.09566
3.86854
4.7404
5.7121
6.78195
7.94452
9.19177
12.0906
-39.7904
-36.5469
-8.01152
3.62375
7.08947
8.00381
7.45236
6.60846
11.9018
19.5596
31.8112
52.7986
77.7165
87.9288
61.2327
15.6533
-15.1015
-20.0699
13.6697
65.3528
24.9086
-43.1226
-193.556
-381.346
-279.902
-241.445
-188.28
-129.384
-71.943
-20.3486
22.8246
55.8773
78.4871
74.1701
66.1977
56.1649
45.2548
34.5224
24.9363
17.2561
9.76285
6.11864
5.65714
7.50497
10.8934
15.1904
19.8638
24.4837
28.7233
32.3497
35.2296
37.3057
38.5878
39.1279
38.9913
38.246
36.9484
35.1247
32.7533
29.7409
25.893
20.8824
14.1892
4.9986
-7.92825
-32.4998
-65.6807
-84.4293
-98.2741
-102.158
-98.3047
-99.7973
-101.275
-101.962
-101.779
-100.86
-99.3947
-97.5973
-95.7052
-93.9676
-92.583
-91.5436
-90.8786
-88.3435
-76.7574
-46.4992
-1.49606
59.349
121.84
157.11
140.792
79.8808
11.816
-30.0985
-39.2326
-27.671
-11.9227
-3.25657
-3.74587
-13.292
-29.6312
-48.9753
-66.8213
-79.81
-83.1589
-66.9926
-36.2807
5.28447
41.8053
-102.293
-505.681
-927.535
-684.179
-547.839
-374.175
-200.065
-44.3865
25.9282
80.2863
120.285
119.544
116.519
110.391
100.961
87.8458
69.5701
42.6545
-0.0777449
-116.491
-243.07
-314.111
-343.978
-350.307
-380.196
-413.435
-450.469
-494.856
-551.207
-625.269
-724.036
-855.438
-1040.67
-1306.06
-1455.34
-1327.03
-1145.73
-803
-542.72
124.704
1698.75
2493.95
2102.41
1333
713.014
335.248
134.733
13.6857
-59.9374
-81.8628
-85.0603
-85.3181
-88.3969
-93.713
-103.499
-113.31
-119.305
-116.085
-109.496
-98.532
-84.4461
-68.8769
-53.7095
-40.6252
-30.686
-24.4994
-22.2714
-25.3783
-33.3522
-48.2066
-82.1989
-38.2799
2.56957
13.4041
15.9669
16.6836
16.5694
15.8009
14.9562
10.2732
7.27508
8.62464
16.6372
30.6496
45.7851
54.4623
35.479
-18.5644
-108.691
-272.945
-144.289
-41.4613
-4.48375
7.7052
16.8304
49.8764
78.898
104.414
123.42
134.109
135.923
129.322
115.558
96.4117
74.0366
51.4302
29.9874
11.0554
-4.22674
-15.3705
-22.8173
-24.7977
-26.8647
-28.9663
-30.9866
-32.8238
-34.3766
-35.5693
-36.3718
-36.869
-37.1949
-37.6303
-37.9623
-38.241
-38.526
-38.7291
-38.8139
-38.7634
-38.5377
-38.0885
-37.371
-36.36
-35.047
-33.4208
-31.5443
-29.6071
-28.032
-26.7773
-26.2577
-26.0519
-25.8544
-25.2231
-25.8667
-26.6828
-27.5586
-28.4391
-29.2901
-30.0739
-30.7595
-31.3347
-31.8126
-32.2307
-32.6379
-33.115
-34.1612
-39.5284
-61.4694
-78.5217
-78.154
-60.4717
-35.6095
-17.2098
-11.2629
-13.7269
-16.5711
-12.329
5.19923
40.0042
91.3401
146.919
182.467
178.395
138.785
88.7263
42.7127
8.52063
-20.5865
-74.5849
-234.344
-496.034
-601.343
-318.727
-90.4421
44.9152
115.329
146.082
135.527
92.2166
33.6689
-22.3946
-72.5332
-78.7078
-81.8561
-82.0467
-79.2553
-73.6127
-64.7632
-60.8776
-57.2744
-55.5169
-59.1363
-61.3619
-61.7913
-63.8254
-66.738
-69.7538
-72.5615
-74.9848
-76.9371
-78.586
-80.7309
-84.8428
-96.5466
-145.784
-427.73
-978.736
-1226.24
-1342.85
-1413.97
-1287.37
-845.044
-171.114
772.795
1342.22
1246.86
803.269
382.164
120.021
3.11875
-35.9544
-44.8921
-42.5557
-35.1298
-27.3433
-19.5047
-12.5496
-7.41814
-3.7693
-0.795733
1.73393
3.88291
5.66042
7.22996
9.01593
11.6203
15.7208
21.4041
26.4214
30.1317
31.9981
-179.197
3.41313
29.9354
25.9777
20.0555
16.0626
13.2635
10.1603
10.4838
6.49043
2.03182
-1.11828
0.541259
9.50721
8.11654
-52.0412
-169.099
-204.38
-13.4309
23.5297
38.4022
64.591
79.7635
88.6081
96.843
106.344
111.986
112.679
107.568
96.8748
81.8676
64.5399
47.094
31.3841
18.5184
8.74359
1.59762
-3.70844
-7.9978
-11.9685
-15.7431
-19.4314
-22.8573
-25.8692
-28.3734
-30.3243
-31.725
-32.6189
-33.0792
-33.1942
-33.0489
-32.709
-32.2314
-31.7907
-31.8244
-32.1798
-32.6007
-33.0485
-33.4849
-33.873
-34.1768
-34.3537
-34.312
-33.9455
-32.9908
-31.4052
-29.4645
-27.3227
-26.2542
-25.5614
-25.2718
-25.4256
-25.9785
-26.3417
-27.4696
-28.9778
-30.7247
-32.6202
-34.6138
-36.675
-38.7802
-40.9028
-43.0107
-45.0494
-47.017
-48.9603
-50.6655
-51.8478
-53.203
-50.41
-41.4246
-28.5362
-16.0796
-7.71686
-5.33404
-8.66768
-14.3326
-15.9868
-8.1353
10.2665
40.5725
87.8381
137.059
135.424
70.8889
-0.592776
-65.6744
-207.643
-464.766
-530.133
-167.092
69.0859
133.354
146.512
121.139
76.1323
29.1267
-7.2281
-29.6317
-41.0178
-48.2916
-53.5064
-56.7466
-57.5419
-55.0729
-46.9592
-41.334
-33.1519
-24.1248
-17.0884
-19.3429
-24.2728
-29.0156
-34.5527
-40.0584
-46.0189
-51.0974
-54.6301
-56.174
-55.4809
-52.5872
-48.0175
-42.8496
-39.517
-45.3888
-102.309
-348.128
-589.306
-791.82
-963.745
-1116.09
-1150.13
-819.008
-80.6212
653.239
909.473
706.705
387.999
168.113
60.3969
14.0621
-6.83546
-12.7542
-4.69395
3.47011
9.80864
12.1382
9.22383
6.10079
4.43449
4.55426
6.13868
8.76569
12.2015
16.4572
21.444
26.7221
31.5943
35.2706
37.3184
-48.6559
51.4583
35.4429
21.9851
14.1574
9.93191
9.75583
4.70682
-0.094991
-4.22182
-6.79525
-10.26
-24.2849
-79.2738
-141.574
-188.318
-98.7078
32.4149
79.493
85.4919
87.5492
90.6852
91.1416
90.5305
89.511
86.9963
81.2564
72.1232
60.4137
47.6941
35.627
25.3817
17.3616
11.2765
6.42928
2.05443
-2.42709
-7.2925
-12.3407
-16.9479
-20.9281
-24.0695
-26.2518
-27.4465
-27.7087
-27.16
-25.9691
-24.3331
-22.4614
-20.5633
-18.8352
-17.4484
-16.5356
-16.1726
-16.3579
-16.9963
-17.9041
-18.8357
-19.5445
-19.8668
-19.7888
-19.4635
-19.0771
-19.0954
-19.5528
-20.2836
-20.7926
-21.0688
-21.7419
-22.3508
-22.7985
-23.1977
-23.6854
-24.3671
-25.3033
-26.558
-28.3442
-30.5159
-33.0306
-35.8672
-39.0004
-42.38
-45.9172
-49.4934
-52.9591
-56.121
-58.7766
-60.629
-61.227
-60.0247
-56.5168
-50.3254
-42.1524
-33.1188
-24.2324
-16.2818
-9.76476
-4.73965
-0.840063
2.12349
5.86733
17.7997
46.1273
77.2306
64.0907
-26.0401
-155.912
-393.962
-484.846
-156.071
114.496
157.885
147.994
115.027
72.6235
37.5132
13.5084
-2.12349
-12.9858
-21.6858
-28.7728
-35.1885
-40.6472
-44.8656
-47.0213
-45.7531
-39.4241
-26.8686
-9.64218
6.59455
12.542
9.44012
4.4696
-3.17844
-12.0964
-21.0815
-29.1398
-35.4266
-39.268
-40.2748
-38.4795
-34.5175
-29.6089
-24.8641
-21.7312
-23.9843
-52.4471
-177.518
-341.981
-516.247
-707.407
-920.232
-1035.97
-843.422
-286.317
339.473
632.053
549.536
346.031
193.307
109.647
63.0367
29.5211
37.3948
47.5436
52.6457
53.3472
46.3061
36.7793
28.1944
22.2221
19.0987
18.2803
19.0555
20.8468
23.2217
25.7639
27.9956
29.3747
29.4891
98.8177
63.5481
22.9497
12.7136
3.09736
0.0886222
12.5007
-15.6864
-18.2688
-23.3456
-37.6345
-64.9397
-108.74
-157.55
-155.924
-65.5977
45.28
92.8751
96.1402
89.1102
82.7701
77.653
72.6496
67.3343
60.9055
52.7361
43.0334
32.8722
23.4483
15.5418
9.27149
4.18872
-0.432826
-5.2826
-10.7888
-17.0286
-23.7491
-30.4398
-35.4566
-39.2044
-41.5215
-42.3334
-41.6657
-39.6418
-36.4714
-32.4234
-27.7923
-22.8669
-17.9143
-13.1805
-8.90017
-5.30097
-2.60125
-1.00403
-0.675876
-1.70088
-4.01512
-7.31943
-11.0126
-14.2086
-15.9051
-15.3547
-12.4588
-7.76516
-3.03745
0.249006
1.4575
-0.655713
-4.19075
-8.26155
-12.0706
-15.3152
-17.949
-20.0705
-21.8679
-23.5636
-25.5376
-27.7761
-30.3747
-33.4022
-36.8819
-40.7783
-44.9804
-49.2993
-53.4848
-57.2724
-60.4315
-62.7482
-64.0148
-64.119
-63.1588
-61.4711
-59.4244
-57.0163
-53.342
-46.7412
-36.4259
-22.8585
-8.1391
3.86708
9.98175
12.1395
18.4341
27.7074
7.82703
-93.0029
-310.33
-444.645
-233.423
142.942
178.769
152.696
118.871
81.2123
52.552
32.469
17.5149
5.88287
-3.89464
-12.8081
-19.4447
-25.4733
-31.4373
-37.4206
-42.8335
-46.1565
-44.9309
-36.2296
-18.211
6.87472
24.3159
25.6798
22.618
15.1399
5.28291
-5.23087
-15.0084
-22.8884
-27.9559
-29.7048
-28.2199
-24.2038
-18.7791
-13.1322
-8.03551
-3.41964
-1.27328
-21.181
-101.892
-234.734
-397.415
-577.021
-756.971
-837.798
-657.289
-197.887
282.304
497.923
448.396
315.143
215.984
168.896
146.718
125.042
123.268
117.65
107.147
93.4479
78.3519
62.7963
49.7716
40.1992
33.8138
29.8104
27.3526
25.7998
24.6921
23.6383
22.2526
20.0988
146.69
40.4965
10.2869
8.18374
-5.55541
-8.68532
-12.0639
-21.4832
-37.3624
-59.0662
-88.0616
-120.31
-139.739
-117.434
-42.3363
39.9524
82.9182
88.2693
79.5027
69.8347
61.8112
54.5062
46.7937
38.2226
28.9462
19.6388
11.1362
3.98279
-1.8406
-6.85074
-11.7996
-17.3567
-23.8636
-31.2231
-38.9275
-46.2032
-52.2398
-55.8042
-58.4735
-59.7821
-59.6304
-57.9753
-54.851
-50.4053
-44.9042
-38.697
-32.1477
-25.5638
-19.1577
-13.0652
-7.40164
-2.30045
2.08652
5.5614
7.84387
8.55862
7.27324
3.62631
-2.43452
-10.3616
-18.7179
-25.4452
-28.1605
-24.8188
-15.2948
-1.17425
11.564
17.0575
17.383
13.823
8.14628
1.81987
-4.23383
-9.56544
-14.0529
-17.7907
-21.017
-24.0333
-27.1288
-30.5195
-34.3245
-38.5565
-43.1194
-47.816
-52.3667
-56.4503
-59.769
-62.1225
-63.4925
-64.1136
-64.4691
-65.1825
-66.7998
-69.5279
-72.9582
-75.4399
-73.0097
-62.3632
-43.7154
-20.3915
0.545574
12.14
12.1175
-2.62878
-54.652
-194.006
-394.072
-359.359
101.663
232.004
171.914
127.49
91.0054
64.8881
46.2203
30.2357
17.0486
6.39489
-2.5351
-10.3544
-15.9236
-20.644
-25.887
-32.2458
-39.6896
-47.0851
-51.8078
-49.6748
-35.8779
-8.74882
18.5105
27.51
27.964
21.72
11.572
-0.0313909
-11.1347
-20.1689
-25.974
-28.009
-26.5451
-22.5994
-17.5376
-12.5106
-8.16168
-4.42468
-0.137113
3.29611
-12.9415
-70.3174
-183.321
-333.581
-486.98
-608.051
-613.641
-400.559
-9.71274
339.734
475.426
431.829
342.014
288.261
283.216
261.62
234.302
203.824
172.88
144.245
118.616
95.9346
76.4624
60.5504
48.1446
38.733
31.6176
26.1619
21.8547
18.2649
14.9226
11.4295
172.703
14.8731
10.7956
0.394509
-10.8202
-20.0233
-35.9389
-44.8166
-67.8561
-92.4649
-110.869
-110.508
-80.257
-24.7764
31.4012
64.6512
72.4585
66.3751
56.985
48.1008
39.5379
30.5778
21.258
12.252
4.32032
-2.08788
-7.02195
-10.9977
-14.7813
-19.0816
-24.2782
-30.2827
-36.5682
-42.3494
-46.8575
-49.5563
-50.1696
-50.5351
-50.2283
-49.2272
-47.4325
-44.7151
-40.9992
-36.3613
-31.0971
-25.6893
-20.6579
-16.3483
-12.7819
-9.69163
-6.74077
-3.7074
-0.436912
3.14226
6.93561
10.5647
13.2377
13.6706
10.3868
2.3399
-9.60635
-23.5381
-36.9688
-47.0389
-48.6696
-36.4487
-16.5505
2.99332
17.2173
23.9115
24.0539
19.9096
13.6051
6.62023
-0.186157
-6.40084
-11.912
-16.813
-21.3374
-25.776
-30.371
-35.2363
-40.3373
-45.5098
-50.484
-54.916
-58.4532
-60.8439
-62.0771
-62.4981
-62.8151
-63.9469
-66.775
-71.9505
-79.7755
-89.8049
-99.4286
-100.978
-89.1724
-65.1029
-32.9457
-3.64585
7.65285
-15.7983
-92.837
-270.081
-458.49
-195.22
334.993
241.697
148.37
102.593
74.9326
57.6855
40.743
25.3328
12.982
3.26046
-4.54572
-10.8624
-14.9808
-17.8687
-21.4921
-26.9215
-34.7701
-44.6415
-54.5527
-60.2117
-54.5821
-30.9386
3.03156
20.9474
26.7506
23.2945
13.9827
2.12593
-9.57048
-18.9968
-24.7025
-26.1516
-23.8837
-19.271
-13.9333
-9.15613
-5.56971
-3.33457
-2.32446
-1.38467
-2.97601
-17.9188
-68.0057
-166.126
-294.279
-405.861
-456.223
-382.784
-142.42
184.16
429.344
505.74
466.321
408.386
381.668
379.331
344.579
293.066
239.345
192.242
153.758
122.342
96.3231
74.8712
57.5621
43.9175
33.3299
25.1756
18.8849
13.9242
9.71779
5.70156
187.913
-5.0428
10.9187
-2.80396
-19.3688
-35.8626
-43.9208
-62.7498
-80.4122
-88.5296
-79.893
-52.5653
-13.7063
23.1623
47.0859
55.6841
53.4548
46.3261
37.8929
29.0734
20.0187
11.3186
3.82782
-1.86707
-5.71074
-8.14142
-9.89771
-11.7471
-14.2019
-17.3192
-20.6762
-23.5409
-25.1814
-25.1743
-23.53
-20.636
-18.3715
-15.9684
-13.6002
-11.2418
-8.75164
-5.87844
-2.33618
2.01969
6.94276
11.6201
14.8098
15.3823
13.0232
8.55721
3.43059
-1.17956
-4.4106
-5.65758
-4.53235
-0.882728
5.05761
12.1337
17.9771
18.2368
10.0946
-4.98511
-23.1852
-44.0714
-61.1182
-68.528
-61.2645
-40.748
-15.3743
5.8903
18.7846
23.6764
22.9083
18.8111
13.0388
6.61289
0.11738
-6.16595
-12.1818
-18.0293
-23.8657
-29.806
-35.8539
-41.8767
-47.6063
-52.6606
-56.6053
-59.0821
-59.9917
-59.662
-58.8855
-58.7597
-60.4055
-64.7898
-72.804
-85.3576
-102.604
-121.08
-126.403
-115.499
-86.9145
-45.5699
-11.7547
-24.1597
-115.872
-325.074
-465.192
-7.43799
466.602
221.122
124.055
84.9357
67.8542
51.9998
34.2514
19.3664
7.9429
-0.78774
-7.42883
-12.298
-14.7837
-15.8491
-17.5338
-21.2953
-28.256
-38.6691
-51.5255
-63.5888
-67.4061
-51.8564
-16.0827
9.45975
21.7467
22.4636
15.1052
3.80821
-7.85927
-17.1368
-22.2302
-22.6157
-19.1306
-13.5055
-7.53633
-2.48365
1.05263
3.04217
3.36069
1.73592
-1.49744
-7.18213
-27.3464
-76.3865
-162.495
-260.583
-319.6
-300.099
-166.681
75.3304
332.518
491.012
521.753
481.654
436.389
408.293
387.597
342.368
283.865
226.891
179.106
140.791
109.716
84.1886
63.3962
46.8388
33.9799
24.2024
16.8523
11.2592
6.69645
2.46565
179.445
-0.367768
13.8589
-4.07428
-21.3668
-35.9158
-50.2133
-62.5191
-66.2467
-57.3056
-36.5001
-9.75573
15.0979
32.5598
41.1498
42.1569
37.9733
30.969
22.7936
14.5513
7.26433
1.76547
-1.61231
-3.09459
-3.30671
-3.03328
-2.9578
-3.42434
-4.30921
-5.08859
-5.09372
-3.83865
-1.25047
2.36131
6.49418
10.4295
13.0286
15.2973
17.2134
18.7868
20.1224
21.4982
23.4506
26.77
32.1958
39.7
47.6788
52.916
52.1026
44.3882
32.1642
18.6336
6.30916
-3.33521
-9.4609
-11.426
-8.66902
-1.39706
9.44926
20.7988
25.2991
20.1501
4.37167
-18.2906
-43.3386
-66.487
-80.8088
-78.6778
-59.6761
-32.6962
-8.28233
8.24384
16.8047
19.4751
18.3209
14.7869
9.807
3.99354
-2.27278
-8.80431
-15.5499
-22.5055
-29.6195
-36.722
-43.4953
-49.4816
-54.1391
-56.9672
-57.7028
-56.5339
-54.2105
-51.9267
-50.9859
-52.5026
-57.5221
-67.6263
-85.2176
-111.733
-139.971
-150.4
-141.822
-106.781
-54.8982
-41.2022
-130.204
-354.159
-425.215
156.286
501.413
224.314
103.396
76.2404
64.5509
46.6021
28.6993
14.9601
4.67785
-3.07703
-8.71742
-12.3819
-13.7815
-13.6499
-13.6607
-15.6894
-21.3208
-31.1426
-44.8172
-60.5645
-72.5046
-66.9571
-34.2668
-4.5541
14.1759
19.8199
15.1431
4.89743
-6.43458
-15.3394
-19.6195
-18.7693
-13.9547
-7.27009
-0.666027
4.70899
8.40189
10.3341
10.6189
8.79237
4.37495
-2.59622
-12.6412
-37.8146
-86.6169
-158.898
-220.087
-225.011
-150.142
12.3281
225.911
405.481
486.799
477.229
428.424
382.929
350.701
326.342
285.988
236.891
189.924
149.948
116.795
89.2065
66.4688
48.225
34.0612
23.3957
15.4709
9.59792
4.96426
0.683164
164.486
7.23709
22.2508
-2.98931
-23.756
-34.7978
-46.6271
-50.8493
-45.2287
-30.7302
-11.7603
6.43439
20.4075
29.049
32.4366
31.0771
26.1089
19.2454
12.2295
6.42916
2.63002
0.976757
1.09644
2.30998
3.85585
5.11609
5.82039
6.14501
6.6137
7.81205
10.0629
13.2339
16.7617
19.8294
21.7789
22.6306
23.2311
23.4431
23.2385
22.5206
21.1828
19.1825
16.6693
14.4063
14.1211
18.3823
29.2722
45.9694
62.5728
70.4237
65.4725
51.3602
34.1574
17.7949
4.00849
-5.91314
-10.1288
-7.3217
1.95847
14.6103
26.9024
34.6072
31.8236
15.9476
-9.5512
-38.7607
-66.0646
-84.0072
-84.7619
-67.9797
-42.611
-18.8492
-1.67063
8.70775
13.8273
15.1621
13.7313
10.256
5.29454
-0.736418
-7.56105
-14.9987
-22.8757
-30.9336
-38.7697
-45.8252
-51.4291
-54.9096
-55.7874
-54.0278
-50.248
-45.6961
-41.8745
-40.0123
-41.0158
-46.3601
-59.2897
-84.4505
-123.939
-158.141
-176.673
-165.527
-114.325
-74.2154
-143.866
-360.143
-358.87
274.479
506.126
214.164
100.227
74.3212
62.8327
43.1644
26.5149
14.4799
5.375
-1.7247
-6.97965
-10.1197
-11.667
-11.131
-9.89341
-10.3051
-14.5958
-23.5753
-36.9799
-53.9268
-71.2858
-74.5644
-48.9474
-19.0003
5.10779
15.7824
14.1343
5.17128
-5.72468
-14.1988
-17.5896
-15.4143
-9.20292
-1.41967
5.84873
11.5391
15.3742
17.2511
17.1598
15.046
10.2471
1.47203
-5.85655
-20.9976
-49.3025
-95.3191
-148.067
-168.809
-128.414
-21.6329
137.344
298.547
399.387
416.886
378.246
327.023
289.688
269.419
251.59
222
185.815
150.309
118.552
90.9933
67.6812
48.6919
33.8535
22.6583
14.5658
8.66257
3.99485
-0.393467
142.959
18.1169
34.9865
14.0056
-11.7169
-30.2258
-40.2219
-40.5993
-32.2139
-18.449
-3.68962
8.91455
18.0561
23.3323
24.4945
21.8382
16.6818
10.9302
6.22656
3.45633
2.7396
3.67603
5.59818
7.77263
9.59111
10.7548
11.3775
11.9062
12.8514
14.4766
16.6398
18.8687
20.6372
21.7446
22.3968
20.0906
18.9802
17.6182
15.8708
13.5865
10.6464
6.84556
1.66751
-5.22812
-13.6055
-21.2638
-24.0926
-16.3818
5.91015
37.6887
61.9078
68.8889
61.3468
47.0218
30.8147
14.646
0.863945
-5.44644
-1.21697
11.5188
27.196
40.8084
48.1674
44.4417
27.0703
-0.935857
-33.0768
-62.157
-80.1842
-81.0091
-66.1815
-44.274
-23.5665
-7.77906
2.8326
9.12142
11.8802
11.7002
9.10058
4.56678
-1.48907
-8.74111
-16.8943
-25.5901
-34.3247
-42.4192
-49.0557
-53.3849
-54.7118
-52.7616
-47.9646
-41.5633
-35.2502
-30.3987
-27.741
-28.3893
-35.5426
-54.9118
-92.5005
-141.045
-183.167
-201.566
-170.238
-118.288
-161.696
-350.859
-286.932
345.753
496.183
212.21
96.889
84.2161
63.0003
43.4056
28.8554
18.3479
9.82702
2.61718
-3.22078
-7.09395
-9.49788
-9.03263
-6.85899
-5.6787
-8.50275
-16.6199
-29.5306
-46.5317
-66.2116
-74.2771
-60.4692
-32.2133
-4.44034
10.8671
12.3153
4.70528
-5.7661
-13.8379
-16.3221
-12.7535
-5.05421
3.92806
11.9866
18.1216
22.1195
23.8714
23.177
20.1196
14.5465
5.70304
-2.42569
-13.663
-32.2548
-60.9743
-99.3724
-126.335
-110.014
-40.6323
73.3017
204.02
303.977
339.217
316.287
269.6
231.309
212.22
205.437
194.139
172.194
144.73
116.769
90.7138
67.7426
48.5427
33.353
22.0622
13.9092
7.98881
3.31113
-1.15697
116.034
31.7804
51.2209
30.5203
-2.40273
-24.9754
-36.4594
-36.7838
-28.6491
-16.415
-4.05715
6.17825
13.3748
17.018
16.923
13.8002
9.27391
5.13626
2.58876
2.0006
3.10381
5.28625
7.81475
10.0233
11.5
12.226
12.5677
13.0609
14.0843
15.6406
17.3296
18.5645
18.8516
18.0109
16.1702
14.7967
13.3764
11.6755
9.5399
6.87568
3.71996
0.132096
-4.37486
-10.1519
-19.3478
-31.4024
-45.0347
-57.0676
-59.6207
-42.2451
-9.69514
26.1582
49.9018
56.0306
50.0151
37.9737
21.8424
4.82777
-4.55772
1.23412
19.87
41.3067
57.0224
62.695
55.6626
35.2884
5.05651
-28.1208
-56.0132
-71.1746
-70.5004
-57.6436
-39.9071
-23.0429
-9.50433
0.297029
6.55877
9.54131
9.55055
6.97258
2.22321
-4.31239
-12.2708
-21.2292
-30.6057
-39.6062
-47.2584
-52.5358
-54.5559
-52.8403
-47.6183
-40.0323
-31.8646
-24.6109
-18.8856
-15.5881
-17.8943
-31.4694
-62.9715
-116.377
-169.191
-210.056
-205.96
-160.537
-182.862
-334.66
-224.903
376.68
481.269
218.905
102.154
87.5623
74.0894
47.8172
34.9562
24.9407
15.8921
7.69611
0.537408
-4.89658
-8.31474
-7.98995
-5.05247
-2.38843
-3.57127
-10.6638
-22.9116
-40.3143
-57.754
-71.3422
-67.3379
-43.1532
-13.6409
5.57388
9.99479
3.71577
-6.40293
-14.1567
-15.7644
-10.7553
-1.45635
8.88027
17.9142
24.6885
28.9543
30.4937
29.0138
24.6039
17.6425
7.8447
-1.5817
-11.733
-25.6614
-44.9223
-70.5391
-95.0709
-94.1009
-51.3023
29.5531
131.968
223.016
268.275
260.526
223.06
187.164
169.922
167.512
166.526
156.137
136.763
113.283
89.3027
66.9087
47.7299
32.6125
21.3259
13.2126
7.36759
2.75017
-1.74698
82.1369
44.3759
68.3197
45.0599
9.39095
-19.9355
-36.0544
-38.757
-31.8002
-20.4353
-8.88022
0.636389
7.16211
10.2244
9.87129
7.0112
3.22674
0.103136
-1.36852
-0.958511
0.971506
3.71949
6.48578
8.61059
9.78314
10.1451
10.2007
10.5414
11.5353
13.2694
15.3514
17.2221
18.0738
16.6719
12.0974
11.3307
10.521
9.29405
7.53147
5.22215
2.57234
-0.062812
-3.06815
-4.8558
-10.7351
-20.2077
-32.9136
-48.2728
-64.7217
-77.1001
-76.2428
-54.4755
-16.4246
18.809
35.7483
36.8242
30.1945
16.8456
-1.18887
-11.5904
-1.9969
24.1853
51.9044
69.5131
72.9997
62.1427
38.7599
7.57612
-23.9183
-47.6925
-58.5392
-56.4695
-45.8796
-32.1119
-18.8161
-7.70138
0.586483
5.81552
7.97473
7.24389
3.92944
-1.62193
-9.05322
-17.9387
-27.6739
-37.3924
-45.9848
-52.248
-55.1281
-53.9931
-48.9036
-40.8286
-31.486
-22.4076
-14.1316
-7.56367
-6.30833
-15.8932
-41.6724
-89.3214
-146.57
-198.385
-216.502
-188.965
-202.268
-317.246
-180.912
375.869
464.857
231.678
114.145
93.6595
80.3392
62.5326
43.061
31.9764
21.554
11.8222
2.96106
-4.32959
-8.57401
-8.17508
-4.4198
-0.46017
-0.110108
-6.11463
-17.4434
-32.646
-50.79
-67.5294
-70.4716
-51.5514
-21.9694
0.293658
7.44799
2.43236
-7.43061
-14.9878
-15.794
-9.32615
1.68684
13.557
23.7657
31.352
35.968
37.2097
34.7641
28.8414
20.2095
9.0766
-2.21186
-12.9694
-24.92
-39.2856
-56.1901
-74.3837
-80.2587
-56.1407
0.462454
80.0737
160.512
210.771
215.352
187.809
156.201
140.494
141.187
145.184
141.742
128.539
108.814
86.575
65.0988
46.4251
31.4826
20.3363
12.397
6.73288
2.2524
-2.21265
-86.1263
53.8497
78.8398
63.7561
25.123
-12.8231
-36.6728
-44.1527
-39.3466
-28.6444
-17.1105
-7.34067
-0.335264
3.471
3.99099
1.81858
-1.72146
-5.03337
-6.85104
-6.64567
-4.63126
-1.55311
1.64089
4.14076
5.53697
5.95949
5.93766
6.14071
7.09436
8.61213
9.25076
9.4473
9.10891
4.86573
6.54693
8.16307
8.59901
8.16694
7.00592
5.23002
3.21091
1.67477
1.40976
1.96807
1.50205
-2.07344
-10.3742
-23.6149
-40.8082
-60.3366
-78.6673
-88.104
-77.5486
-44.1952
-6.56978
12.9563
14.8907
10.081
-1.46025
-18.7701
-25.8413
-8.40904
25.9236
57.946
75.5629
76.3871
62.426
37.5863
7.91227
-19.1052
-37.2496
-44.1867
-41.6312
-33.3232
-22.8245
-12.5538
-3.91121
2.32933
5.79363
6.41056
4.31808
-0.243452
-6.98983
-15.5577
-25.3905
-35.6202
-45.0483
-52.3014
-56.139
-55.7932
-51.2177
-43.2227
-33.3537
-23.069
-12.8324
-3.65713
0.0197447
-7.61661
-29.6874
-69.3902
-123.462
-176.459
-206.347
-198.154
-214.075
-300.718
-156.329
351.197
446.419
247.232
130.678
102.359
89.2338
73.2539
55.3558
39.0871
25.7957
14.2508
3.43525
-5.68804
-10.2814
-9.54413
-4.70803
0.613617
1.95257
-2.23557
-12.5396
-27.2806
-44.9517
-63.1199
-71.2209
-57.6642
-29.1897
-4.71552
4.87461
1.04094
-8.66103
-16.1629
-16.2839
-8.37464
4.45501
18.0323
29.5833
38.0779
43.0266
43.841
40.264
32.7983
22.5553
10.1022
-3.16235
-15.4346
-27.1862
-39.3092
-51.047
-62.7257
-69.3259
-56.9492
-18.2584
43.2482
113.2
165.054
178.836
160.423
134.082
120.566
123.189
130.55
130.902
121.135
104.049
83.5021
62.8346
44.5291
29.8883
19.065
11.4518
6.07395
1.80288
-2.56676
-233.416
36.3411
85.992
84.1172
46.4506
0.57707
-33.844
-49.5595
-49.2363
-40.0208
-28.4251
-17.827
-9.26395
-3.2571
-0.422728
-1.01033
-4.30105
-8.62513
-11.6692
-13.249
-12.6239
-9.90869
-6.40815
-3.1509
-0.812453
0.494619
1.0865
1.51975
2.01315
2.23418
2.30136
2.65571
2.81497
2.80533
4.5595
6.04642
6.93119
7.021
6.29588
4.85202
3.11568
2.11894
2.99834
5.83812
9.66772
12.9088
12.4507
4.68691
-10.8092
-30.7533
-51.8096
-71.8204
-85.3368
-80.5776
-52.2657
-19.5189
-5.98673
-8.72928
-15.605
-28.1042
-43.0684
-41.1256
-12.5782
27.8022
60.0541
75.0936
72.9889
57.3989
33.586
8.02528
-13.0884
-26.0071
-30.2915
-27.8714
-21.4819
-13.5804
-5.9821
0.107238
3.97662
5.30597
4.0495
0.311164
-5.73612
-13.8377
-23.5467
-34.0728
-44.2052
-52.4316
-57.2934
-57.8428
-53.9581
-46.3881
-36.5331
-25.7237
-14.3358
-3.43821
1.6171
-5.74577
-26.3238
-59.0846
-104.988
-151.465
-182.798
-189.022
-214.687
-284.671
-147.956
309.232
423.881
262.19
149.656
113.288
99.3918
83.9014
64.9684
44.8539
28.9807
14.3394
1.43553
-8.88056
-13.498
-11.7799
-5.54566
0.585615
3.59451
0.845721
-8.57662
-23.0281
-40.3821
-59.0969
-70.7691
-62.0147
-35.2826
-9.30711
2.4028
-0.327061
-9.94148
-17.5336
-17.1242
-7.8329
6.89321
22.3273
35.3245
44.7173
49.8719
50.0918
45.2663
36.2931
24.6598
11.1834
-3.77182
-17.773
-30.4375
-42.0551
-51.1475
-57.679
-61.8394
-55.6009
-29.7924
17.2226
77.2019
128.232
148.523
138.176
117.59
107.015
111.174
120.191
122.689
115.018
99.4591
79.832
59.7505
41.9566
27.8475
17.5521
10.4094
5.40856
1.40622
-2.81436
-283.921
4.17294
77.882
97.4394
74.4413
27.2874
-18.9742
-48.1827
-57.0223
-51.5199
-40.5034
-32.5118
-22.3511
-13.2165
-6.31103
-3.01715
-3.86074
-7.7315
-12.4525
-16.8667
-18.9638
-18.6084
-16.4634
-13.4818
-10.5166
-8.05168
-6.20716
-4.84002
-3.8523
-3.10038
-2.2768
-1.20289
0.0911777
1.77239
3.45494
4.83067
5.64723
5.72866
4.95904
3.34541
1.33477
0.187805
1.34229
5.077
11.1217
19.3904
26.8074
26.5586
14.9419
-3.87774
-23.3748
-42.2507
-61.6262
-76.074
-72.6601
-48.8387
-26.3743
-23.4644
-31.9417
-42.5571
-56.8555
-64.8365
-48.6924
-10.4563
30.2247
57.9668
68.5511
64.0614
48.8793
28.4378
8.32626
-7.14796
-16.0131
-18.5398
-16.3495
-11.4756
-5.77323
-0.670529
2.88138
4.35645
3.5417
0.404607
-5.00391