/*--------------------------------*- C++ -*----------------------------------*\
| =========                 |                                                 |
| \\      /  F ield         | OpenFOAM: The Open Source CFD Toolbox           |
|  \\    /   O peration     | Version:  2112                                  |
|   \\  /    A nd           | Website:  www.openfoam.com                      |
|    \\/     M anipulation  |                                                 |
\*---------------------------------------------------------------------------*/
FoamFile
{
    version     2.0;
    format      ascii;
    arch        "LSB;label=32;scalar=64";
    class       volVectorField;
    location    "0.57";
    object      U;
}
// * * * * * * * * * * * * * * * * * * * * * * * * * * * * * * * * * * * * * //

dimensions      [0 1 -1 0 0 0 0];

internalField   nonuniform List<vector> 
12225
(
(9.75468 0.0644048 0)
(9.24997 0.10227 0)
(8.69404 0.109916 0)
(8.11184 0.112304 0)
(7.53231 0.111269 0)
(6.9665 0.107439 0)
(6.41767 0.102054 0)
(5.8883 0.0959056 0)
(5.37994 0.0895492 0)
(4.89206 0.0835537 0)
(4.42208 0.0784821 0)
(3.96572 0.0748421 0)
(3.51743 0.0730115 0)
(3.07054 0.0731144 0)
(2.61898 0.0748118 0)
(2.15575 0.0772142 0)
(1.68321 0.079198 0)
(1.18253 0.0727167 0)
(10.1063 0.0784842 0)
(10.3197 0.118327 0)
(10.4633 0.130126 0)
(10.5381 0.144153 0)
(10.5555 0.157529 0)
(10.5194 0.16867 0)
(10.4328 0.178314 0)
(10.3005 0.186942 0)
(10.1274 0.194899 0)
(9.91744 0.202756 0)
(9.67288 0.211326 0)
(9.39416 0.221593 0)
(9.07974 0.234633 0)
(8.72559 0.251471 0)
(8.32602 0.272828 0)
(7.87159 0.298963 0)
(7.35766 0.329096 0)
(6.75832 0.362483 0)
(10.0109 0.036799 0)
(10.0587 0.0610696 0)
(10.1093 0.0761131 0)
(10.1604 0.0968673 0)
(10.2174 0.117769 0)
(10.2786 0.136764 0)
(10.338 0.154882 0)
(10.3908 0.172858 0)
(10.4331 0.191121 0)
(10.4619 0.210355 0)
(10.4742 0.231618 0)
(10.4672 0.256278 0)
(10.4381 0.285975 0)
(10.3837 0.322464 0)
(10.3001 0.367569 0)
(10.1797 0.422376 0)
(10.0191 0.4886 0)
(9.79143 0.562846 0)
(10.0059 0.0332968 0)
(10.0305 0.0698351 0)
(10.0499 0.0892521 0)
(10.0605 0.106747 0)
(10.07 0.122836 0)
(10.0811 0.137087 0)
(10.0934 0.150762 0)
(10.1065 0.164963 0)
(10.1206 0.180431 0)
(10.1352 0.197974 0)
(10.1499 0.21868 0)
(10.1642 0.243956 0)
(10.1781 0.275514 0)
(10.1915 0.31526 0)
(10.2049 0.365478 0)
(10.2179 0.427818 0)
(10.231 0.505551 0)
(10.2401 0.595886 0)
(10.0041 0.0289078 0)
(10.023 0.0641306 0)
(10.0391 0.0827143 0)
(10.0466 0.0994843 0)
(10.0504 0.116362 0)
(10.0528 0.132169 0)
(10.0531 0.147457 0)
(10.0505 0.163151 0)
(10.0454 0.179921 0)
(10.0377 0.198512 0)
(10.0276 0.21994 0)
(10.0154 0.245467 0)
(10.0018 0.27658 0)
(9.98801 0.31491 0)
(9.97602 0.362317 0)
(9.96882 0.420382 0)
(9.96891 0.491214 0)
(9.98495 0.575513 0)
(10.0028 0.0249021 0)
(10.0173 0.0592215 0)
(10.0314 0.0799523 0)
(10.0392 0.0982792 0)
(10.0432 0.116449 0)
(10.0456 0.133459 0)
(10.0457 0.149784 0)
(10.0428 0.166481 0)
(10.0366 0.184372 0)
(10.0271 0.204252 0)
(10.0144 0.227094 0)
(9.99838 0.254058 0)
(9.97947 0.286442 0)
(9.95841 0.325596 0)
(9.93635 0.372881 0)
(9.91526 0.429501 0)
(9.89692 0.496203 0)
(9.88675 0.574725 0)
(10.0019 0.0218406 0)
(10.013 0.0552844 0)
(10.0251 0.0775834 0)
(10.0327 0.0966006 0)
(10.0368 0.115089 0)
(10.0393 0.13269 0)
(10.0399 0.149855 0)
(10.0379 0.167604 0)
(10.033 0.18678 0)
(10.0254 0.208154 0)
(10.0149 0.232632 0)
(10.0017 0.261274 0)
(9.98609 0.295233 0)
(9.96879 0.335676 0)
(9.95074 0.383701 0)
(9.93339 0.440261 0)
(9.91811 0.505698 0)
(9.90739 0.581248 0)
(10.0014 0.0195167 0)
(10.0098 0.051723 0)
(10.02 0.0749423 0)
(10.0272 0.0945719 0)
(10.0314 0.113517 0)
(10.0341 0.131893 0)
(10.0351 0.150055 0)
(10.0339 0.168904 0)
(10.0303 0.189282 0)
(10.0245 0.211954 0)
(10.0164 0.237772 0)
(10.0063 0.267696 0)
(9.9946 0.302734 0)
(9.98211 0.343872 0)
(9.96977 0.391996 0)
(9.95892 0.447787 0)
(9.95089 0.511452 0)
(9.94758 0.583759 0)
(10.001 0.0177209 0)
(10.0074 0.0485394 0)
(10.016 0.0723125 0)
(10.0227 0.0925796 0)
(10.0271 0.112008 0)
(10.03 0.131049 0)
(10.0316 0.150046 0)
(10.0313 0.169808 0)
(10.0291 0.19117 0)
(10.025 0.214884 0)
(10.0193 0.241736 0)
(10.0123 0.272572 0)
(10.0045 0.308249 0)
(9.9966 0.349565 0)
(9.98963 0.397195 0)
(9.98482 0.451602 0)
(9.98346 0.51281 0)
(9.98733 0.581307 0)
(10.0007 0.0163145 0)
(10.0057 0.045739 0)
(10.0129 0.0697321 0)
(10.0193 0.0905075 0)
(10.0238 0.11033 0)
(10.0271 0.129892 0)
(10.0293 0.149586 0)
(10.0301 0.170133 0)
(10.0294 0.192321 0)
(10.0274 0.216864 0)
(10.0242 0.244465 0)
(10.0204 0.27585 0)
(10.0164 0.311721 0)
(10.013 0.352699 0)
(10.0111 0.39926 0)
(10.0119 0.45168 0)
(10.0166 0.509798 0)
(10.0266 0.573962 0)
(10.0005 0.0151887 0)
(10.0044 0.0432726 0)
(10.0106 0.0671939 0)
(10.0166 0.0882975 0)
(10.0214 0.108418 0)
(10.0253 0.128376 0)
(10.0282 0.148617 0)
(10.0302 0.169778 0)
(10.0312 0.192573 0)
(10.0313 0.217662 0)
(10.0309 0.24566 0)
(10.0303 0.277172 0)
(10.0301 0.312752 0)
(10.0311 0.352855 0)
(10.0341 0.397782 0)
(10.0402 0.447655 0)
(10.0503 0.502176 0)
(10.0659 0.561564 0)
(10.0004 0.0143176 0)
(10.0037 0.0412181 0)
(10.0091 0.0648686 0)
(10.0149 0.086108 0)
(10.02 0.106399 0)
(10.0244 0.126592 0)
(10.0282 0.14717 0)
(10.0315 0.168703 0)
(10.0341 0.19183 0)
(10.0362 0.217145 0)
(10.0383 0.245183 0)
(10.0407 0.276434 0)
(10.044 0.311323 0)
(10.0489 0.350167 0)
(10.0562 0.393124 0)
(10.0667 0.440205 0)
(10.0813 0.491016 0)
(10.1013 0.545668 0)
(10.0004 0.0135764 0)
(10.0032 0.0393378 0)
(10.0081 0.0625312 0)
(10.0138 0.0837222 0)
(10.0192 0.104056 0)
(10.0242 0.12434 0)
(10.029 0.145074 0)
(10.0336 0.166774 0)
(10.0379 0.19 0)
(10.0422 0.21527 0)
(10.0467 0.243033 0)
(10.0521 0.273676 0)
(10.0587 0.307504 0)
(10.0672 0.344711 0)
(10.0784 0.385337 0)
(10.093 0.429294 0)
(10.1116 0.476144 0)
(10.1354 0.525896 0)
(10.0003 0.0128081 0)
(10.0028 0.0372873 0)
(10.0074 0.0597782 0)
(10.013 0.0806899 0)
(10.0189 0.100882 0)
(10.0249 0.121069 0)
(10.0309 0.141743 0)
(10.037 0.163362 0)
(10.0433 0.186392 0)
(10.05 0.21126 0)
(10.0574 0.238315 0)
(10.066 0.267833 0)
(10.0762 0.299996 0)
(10.0886 0.33488 0)
(10.1038 0.372417 0)
(10.1225 0.41243 0)
(10.145 0.454453 0)
(10.1724 0.498436 0)
(10.0003 0.0119738 0)
(10.0026 0.0349749 0)
(10.007 0.0564522 0)
(10.0129 0.076742 0)
(10.0195 0.0964777 0)
(10.0265 0.116251 0)
(10.034 0.13651 0)
(10.042 0.157642 0)
(10.0506 0.180015 0)
(10.06 0.203946 0)
(10.0705 0.229678 0)
(10.0826 0.257372 0)
(10.0965 0.287096 0)
(10.1128 0.318819 0)
(10.1319 0.352384 0)
(10.1543 0.387551 0)
(10.1803 0.423831 0)
(10.2107 0.461205 0)
(10.0003 0.0110058 0)
(10.0026 0.0322143 0)
(10.0072 0.0522562 0)
(10.0135 0.0714464 0)
(10.021 0.0902523 0)
(10.0293 0.109131 0)
(10.0385 0.128452 0)
(10.0487 0.148518 0)
(10.0598 0.16959 0)
(10.0721 0.191873 0)
(10.0859 0.215502 0)
(10.1014 0.240528 0)
(10.1189 0.266923 0)
(10.1388 0.294569 0)
(10.1614 0.323254 0)
(10.187 0.352703 0)
(10.2158 0.382448 0)
(10.2483 0.412464 0)
(10.0003 0.00979547 0)
(10.0028 0.0286977 0)
(10.0078 0.0467091 0)
(10.0148 0.0641391 0)
(10.0235 0.0813348 0)
(10.0334 0.098622 0)
(10.0446 0.116268 0)
(10.0571 0.134479 0)
(10.0708 0.153412 0)
(10.0861 0.173163 0)
(10.1029 0.193766 0)
(10.1216 0.215186 0)
(10.1422 0.237321 0)
(10.1651 0.260003 0)
(10.1905 0.282998 0)
(10.2183 0.306038 0)
(10.2488 0.32871 0)
(10.2822 0.351005 0)
(10.0003 0.00817824 0)
(10.0031 0.0239662 0)
(10.0088 0.0391107 0)
(10.0169 0.0539056 0)
(10.027 0.0685986 0)
(10.0387 0.0833907 0)
(10.052 0.0984369 0)
(10.0668 0.113844 0)
(10.0831 0.129667 0)
(10.101 0.145912 0)
(10.1205 0.162533 0)
(10.1418 0.179432 0)
(10.1649 0.196469 0)
(10.1899 0.213461 0)
(10.2168 0.230186 0)
(10.2458 0.246416 0)
(10.2766 0.261822 0)
(10.3095 0.276415 0)
(10.0004 0.00590073 0)
(10.0037 0.017289 0)
(10.0103 0.0283259 0)
(10.0197 0.0392798 0)
(10.0314 0.0502977 0)
(10.045 0.0614547 0)
(10.0603 0.0727949 0)
(10.0773 0.0843308 0)
(10.0958 0.0960354 0)
(10.1159 0.107843 0)
(10.1374 0.119658 0)
(10.1604 0.131355 0)
(10.1849 0.142786 0)
(10.2108 0.153788 0)
(10.238 0.164179 0)
(10.2666 0.173786 0)
(10.2964 0.182382 0)
(10.3274 0.18998 0)
(10.0005 0.00340218 0)
(10.0043 0.00997308 0)
(10.0119 0.016553 0)
(10.0227 0.0233948 0)
(10.0358 0.0305299 0)
(10.0508 0.0379093 0)
(10.0677 0.0454909 0)
(10.0861 0.0532253 0)
(10.1059 0.0610328 0)
(10.1271 0.0688077 0)
(10.1496 0.0764294 0)
(10.1732 0.0837684 0)
(10.1979 0.0906887 0)
(10.2237 0.0970515 0)
(10.2503 0.102718 0)
(10.2778 0.107563 0)
(10.3059 0.111434 0)
(10.3347 0.114348 0)
(10.0005 0.00112988 0)
(10.0049 0.0033366 0)
(10.0135 0.00601472 0)
(10.0254 0.00940361 0)
(10.0397 0.0133677 0)
(10.0558 0.0177262 0)
(10.0736 0.0223708 0)
(10.093 0.0272033 0)
(10.1137 0.0320996 0)
(10.1355 0.0369264 0)
(10.1584 0.0415551 0)
(10.1822 0.0458612 0)
(10.2068 0.0497226 0)
(10.2321 0.0530223 0)
(10.2581 0.0556498 0)
(10.2845 0.0575111 0)
(10.3113 0.0584988 0)
(10.3384 0.0586246 0)
(10.0006 -0.00118866 0)
(10.0057 -0.00326302 0)
(10.0154 -0.00415877 0)
(10.0285 -0.00379022 0)
(10.0439 -0.00257695 0)
(10.0609 -0.000811658 0)
(10.0796 0.00138546 0)
(10.0996 0.00388256 0)
(10.1207 0.00650416 0)
(10.1429 0.00908262 0)
(10.1659 0.0114763 0)
(10.1896 0.0135589 0)
(10.2139 0.0152134 0)
(10.2388 0.0163344 0)
(10.264 0.0168301 0)
(10.2895 0.0166283 0)
(10.315 0.0156543 0)
(10.3407 0.0139231 0)
(10.0008 -0.00363294 0)
(10.0068 -0.00995299 0)
(10.018 -0.0140059 0)
(10.0324 -0.0161408 0)
(10.0487 -0.0172601 0)
(10.0665 -0.0177668 0)
(10.0859 -0.0177568 0)
(10.1066 -0.0173747 0)
(10.1282 -0.0168173 0)
(10.1505 -0.0162519 0)
(10.1736 -0.0158112 0)
(10.1972 -0.0156159 0)
(10.2213 -0.0157776 0)
(10.2456 -0.0163926 0)
(10.2702 -0.0175399 0)
(10.2948 -0.0192773 0)
(10.3194 -0.0216577 0)
(10.344 -0.0246724 0)
(10.001 -0.00626413 0)
(10.0085 -0.0168048 0)
(10.0215 -0.0235762 0)
(10.0372 -0.0277103 0)
(10.0543 -0.0305827 0)
(10.0727 -0.0326042 0)
(10.0926 -0.0339176 0)
(10.1137 -0.0347987 0)
(10.1355 -0.0355184 0)
(10.158 -0.0362498 0)
(10.1811 -0.0371139 0)
(10.2046 -0.0382214 0)
(10.2284 -0.0396744 0)
(10.2524 -0.0415572 0)
(10.2764 -0.0439354 0)
(10.3004 -0.0468535 0)
(10.3243 -0.0503466 0)
(10.3479 -0.054401 0)
(10.0014 -0.009301 0)
(10.0109 -0.0237838 0)
(10.0262 -0.0326415 0)
(10.0433 -0.0388625 0)
(10.0613 -0.044117 0)
(10.0805 -0.0483204 0)
(10.101 -0.0514721 0)
(10.1224 -0.0539481 0)
(10.1444 -0.0560844 0)
(10.1669 -0.0580785 0)
(10.1898 -0.0600731 0)
(10.2131 -0.0621984 0)
(10.2364 -0.0645685 0)
(10.2599 -0.0672744 0)
(10.2833 -0.0703861 0)
(10.3065 -0.0739475 0)
(10.3296 -0.0779884 0)
(10.3524 -0.0824901 0)
(10.002 -0.013208 0)
(10.0147 -0.031215 0)
(10.0321 -0.0398173 0)
(10.0499 -0.0454894 0)
(10.0681 -0.050853 0)
(10.0879 -0.0555375 0)
(10.1089 -0.0594471 0)
(10.1306 -0.0629306 0)
(10.1527 -0.0662264 0)
(10.1753 -0.0694361 0)
(10.1982 -0.0726614 0)
(10.2213 -0.0760188 0)
(10.2446 -0.0796078 0)
(10.2678 -0.0835037 0)
(10.2911 -0.0877649 0)
(10.3142 -0.0924138 0)
(10.3372 -0.0974749 0)
(10.36 -0.102815 0)
(10.0033 -0.0179118 0)
(10.021 -0.0425196 0)
(10.0418 -0.0553942 0)
(10.0604 -0.064342 0)
(10.0792 -0.0715465 0)
(10.1001 -0.076898 0)
(10.1229 -0.0809438 0)
(10.1469 -0.0843421 0)
(10.1721 -0.0874389 0)
(10.1983 -0.0904076 0)
(10.2255 -0.0933779 0)
(10.2534 -0.0964834 0)
(10.2822 -0.0998497 0)
(10.3116 -0.10358 0)
(10.3415 -0.107756 0)
(10.372 -0.112433 0)
(10.4032 -0.117639 0)
(10.4344 -0.123284 0)
(10.0049 -0.0191093 0)
(10.0324 -0.0344651 0)
(10.0662 -0.0419409 0)
(10.101 -0.051773 0)
(10.1399 -0.0619678 0)
(10.184 -0.0708223 0)
(10.2315 -0.0787224 0)
(10.2809 -0.0861025 0)
(10.3314 -0.0930783 0)
(10.3826 -0.0997557 0)
(10.4338 -0.106269 0)
(10.4845 -0.112751 0)
(10.5341 -0.119319 0)
(10.5822 -0.126081 0)
(10.6286 -0.133123 0)
(10.6729 -0.14057 0)
(10.7151 -0.148407 0)
(10.7548 -0.157009 0)
(10.0572 -0.0538767 0)
(10.1972 -0.0871882 0)
(10.3191 -0.0961176 0)
(10.4176 -0.105109 0)
(10.496 -0.11362 0)
(10.5547 -0.120278 0)
(10.5936 -0.125693 0)
(10.6143 -0.13047 0)
(10.6189 -0.134832 0)
(10.6094 -0.138909 0)
(10.5873 -0.142805 0)
(10.554 -0.146607 0)
(10.5108 -0.150388 0)
(10.4586 -0.154219 0)
(10.3983 -0.158156 0)
(10.3306 -0.162305 0)
(10.2558 -0.16664 0)
(10.1752 -0.171688 0)
(9.86926 -0.0477977 0)
(9.57386 -0.0833142 0)
(9.23534 -0.0946598 0)
(8.87481 -0.100784 0)
(8.51324 -0.103675 0)
(8.15952 -0.10372 0)
(7.81623 -0.102041 0)
(7.48485 -0.0994309 0)
(7.16644 -0.0963087 0)
(6.86129 -0.0929278 0)
(6.5691 -0.0894631 0)
(6.2893 -0.0860316 0)
(6.02121 -0.0827138 0)
(5.76409 -0.079568 0)
(5.51711 -0.0766298 0)
(5.27961 -0.0739454 0)
(5.05021 -0.0714997 0)
(4.8302 -0.0695192 0)
(-0.272021 0.456299 -5.28025e-21)
(-0.402594 0.0973218 5.24554e-21)
(0.000246764 -0.432238 0)
(0.690604 -0.781739 0)
(1.48521 -0.881093 0)
(2.23513 -0.784465 -4.93706e-21)
(2.84254 -0.569878 0)
(3.24386 -0.297008 0)
(3.43592 0.00384789 0)
(3.38174 0.30213 0)
(3.09256 0.557456 5.44148e-21)
(2.61509 0.720171 0)
(2.01665 0.744243 0)
(1.38922 0.611316 0)
(0.846071 0.351134 0)
(0.494841 0.0284453 4.66937e-21)
(0.334814 -0.267238 0)
(0.400443 -0.434616 0)
(0.641561 -0.573364 0)
(0.909103 -0.591295 0)
(1.09664 -0.552644 0)
(1.10289 -0.528732 0)
(0.938409 -0.444007 0)
(0.617211 -0.191689 4.51524e-21)
(0.0918929 0.167148 -4.51066e-21)
(-0.607825 0.426037 4.46046e-21)
(-1.41096 0.616687 4.45371e-21)
(-2.28396 0.761254 0)
(-3.19352 0.858925 0)
(-4.10777 0.91023 -5.0846e-21)
(-4.99857 0.918906 -5.46258e-21)
(-5.84215 0.890867 0)
(-6.61918 0.833045 0)
(-7.31447 0.752339 -6.64452e-21)
(-7.91751 0.654846 0)
(-8.42183 0.547642 0)
(-8.82462 0.4372 7.28676e-21)
(-9.1266 0.328111 0)
(-9.33105 0.225069 7.20999e-21)
(-9.44268 0.133083 1.40275e-20)
(-9.46675 0.0567789 0)
(-9.41695 -0.00281182 0)
(-9.31459 -0.0492045 0)
(-9.16147 -0.0875084 0)
(-8.96587 -0.119828 0)
(-8.73273 -0.147696 8.0091e-21)
(-8.46648 -0.171993 6.59544e-21)
(-8.1706 -0.193361 5.11707e-21)
(-7.84804 -0.212258 0)
(-7.50131 -0.229001 -2.0292e-21)
(-7.13268 -0.243815 0)
(-6.74425 -0.256937 -1.13861e-21)
(-6.33814 -0.268352 -2.71854e-21)
(-5.91658 -0.277984 0)
(-5.48206 -0.285718 0)
(-5.03728 -0.29143 0)
(-4.58518 -0.295011 -8.68237e-21)
(-4.12891 -0.296384 0)
(-3.67173 -0.295518 0)
(-3.21699 -0.292423 0)
(-2.76802 -0.287121 0)
(-2.32813 -0.279613 0)
(-1.90053 -0.26986 0)
(-1.4881 -0.257827 0)
(-1.09335 -0.243656 0)
(-0.719285 -0.227927 1.71101e-20)
(-0.365628 -0.212263 0)
(-0.0311104 -0.198252 0)
(0.282502 -0.184501 -1.79409e-20)
(0.575296 -0.171718 -1.79304e-20)
(0.84782 -0.160632 0)
(1.10134 -0.148859 1.77983e-20)
(1.33675 -0.134676 -1.76955e-20)
(1.55404 -0.11972 0)
(1.75375 -0.105766 1.74361e-20)
(1.93706 -0.0931836 0)
(2.10508 -0.0818318 0)
(2.25884 -0.071492 -1.69859e-20)
(2.3992 -0.0619524 0)
(2.52682 -0.0529933 1.66904e-20)
(2.64212 -0.0443249 0)
(2.74515 -0.035472 -1.64251e-20)
(2.8354 -0.0255148 -1.63099e-20)
(2.91114 -0.0134424 -1.62098e-20)
(2.96908 8.9541e-05 -3.22557e-20)
(3.00861 0.0215615 3.2139e-20)
(3.01323 0.0623562 0)
(2.96313 0.123489 0)
(2.84455 0.192825 0)
(2.65104 0.248051 3.20248e-20)
(2.39303 0.263749 3.20212e-20)
(2.10191 0.2268 -3.19915e-20)
(1.82217 0.146288 0)
(1.59381 0.0462512 3.19783e-20)
(1.43662 -0.0477538 3.21044e-20)
(1.34682 -0.11729 3.23451e-20)
(1.30539 -0.154966 0)
(1.28875 -0.164546 0)
(1.28252 -0.152458 0)
(1.29489 -0.123761 3.35021e-20)
(1.3418 -0.0959462 0)
(1.43376 -0.0779676 0)
(1.56452 -0.0697914 -3.4088e-20)
(1.71841 -0.070156 0)
(1.89024 -0.0786783 0)
(2.08986 -0.0964054 -3.4389e-20)
(2.31842 -0.119195 0)
(2.56026 -0.13986 0)
(2.79469 -0.146026 3.37907e-20)
(2.93187 -0.137886 3.346e-20)
(2.77448 -0.0855501 0)
(2.08943 0.147829 -3.17962e-20)
(0.785412 0.518456 0)
(-0.81611 0.718546 2.52393e-20)
(-2.37984 0.723591 0)
(-3.74196 0.623879 1.39825e-20)
(-4.8264 0.483625 8.95657e-21)
(-5.61681 0.337016 0)
(-6.12605 0.201858 0)
(-6.37721 0.0861593 0)
(-6.39094 -0.00615162 0)
(-6.22941 -0.0753592 0)
(-5.91043 -0.133964 0)
(-5.45148 -0.184838 0)
(-4.8679 -0.228493 5.99432e-21)
(-4.17658 -0.264188 -9.21893e-21)
(-3.39703 -0.290683 0)
(-2.55194 -0.306753 0)
(-1.66743 -0.31172 0)
(-0.766949 -0.306821 0)
(0.12858 -0.296587 -4.99339e-20)
(0.998496 -0.280963 0)
(1.8297 -0.262299 5.54504e-20)
(2.61561 -0.241034 -5.68847e-20)
(3.35617 -0.219528 0)
(4.05656 -0.201138 0)
(4.72683 -0.187554 0)
(5.37906 -0.178449 5.73248e-20)
(6.02398 -0.172266 5.64401e-20)
(6.66818 -0.166605 0)
(7.31144 -0.157269 5.3449e-20)
(7.94251 -0.138092 5.13054e-20)
(8.53242 -0.108653 -4.87732e-20)
(9.05103 -0.0561069 0)
(9.43313 0.0889694 0)
(9.39273 0.330675 -4.05662e-20)
(8.79907 0.570111 0)
(7.67264 0.686657 0)
(6.18991 0.598178 0)
(4.70021 0.327531 0)
(3.53251 0.00873247 2.27494e-20)
(2.79267 -0.176851 2.10972e-20)
(2.3842 -0.153768 0)
(2.11783 -0.0236604 1.90243e-20)
(1.82796 0.071459 0)
(1.45084 0.107112 0)
(0.995892 0.123154 1.11819e-20)
(0.496757 0.131405 0)
(0.00337777 0.122682 5.10236e-21)
(-0.42358 0.100541 0)
(-0.73859 0.0678483 0)
(-0.919979 0.0311242 2.15539e-21)
(-0.959749 -0.00472988 0)
(-0.874843 -0.0339657 5.85553e-21)
(-0.690673 -0.054513 0)
(-0.437719 -0.0664171 0)
(-0.150853 -0.0696798 0)
(0.138133 -0.0669536 -1.80961e-20)
(0.405397 -0.0602507 0)
(0.638869 -0.052027 2.21637e-20)
(0.834869 -0.0438605 0)
(0.996316 -0.0367163 0)
(1.12994 -0.0311163 0)
(1.24379 -0.0272424 0)
(1.34639 -0.0247967 0)
(1.44256 -0.0233386 0)
(1.54117 -0.0214592 0)
(1.62721 -0.0198368 -5.23324e-20)
(1.74244 -0.0107066 0)
(1.73134 -0.0013132 0)
(-0.0873098 0.768282 1.63556e-20)
(0.552209 -0.497119 -1.58969e-20)
(1.38587 -1.8443 0)
(2.18059 -2.49273 1.0989e-20)
(2.8284 -2.50113 0)
(3.31025 -2.11908 4.69744e-21)
(3.63729 -1.55449 -1.31843e-20)
(3.83037 -0.929124 -1.3752e-20)
(3.89543 -0.303585 0)
(3.86313 0.305599 -1.37324e-20)
(3.72472 0.871703 -5.29797e-21)
(3.46093 1.33754 0)
(3.0701 1.62135 0)
(2.5802 1.64416 0)
(2.05886 1.38053 0)
(1.58801 0.926673 -4.47189e-21)
(1.27749 0.448907 0)
(1.13734 -0.0872912 8.239e-21)
(0.882513 -0.513204 0)
(0.373828 -0.36203 0)
(-0.304662 0.28688 -8.67137e-21)
(-1.21629 0.855131 0)
(-2.25338 1.34375 8.63523e-21)
(-3.32898 1.76032 -4.075e-21)
(-4.39982 2.08153 3.93309e-21)
(-5.44471 2.28784 -3.83423e-21)
(-6.43003 2.3911 -3.83024e-21)
(-7.33278 2.4021 0)
(-8.13299 2.33292 0)
(-8.81897 2.19836 4.47506e-21)
(-9.38619 2.01428 -7.35554e-21)
(-9.83623 1.79618 0)
(-10.1756 1.55812 0)
(-10.4145 1.31198 6.15801e-21)
(-10.5649 1.06711 0)
(-10.6396 0.830224 0)
(-10.6516 0.605896 -6.98576e-21)
(-10.6133 0.397225 0)
(-10.5352 0.206692 8.41571e-21)
(-10.4255 0.036477 -1.37247e-20)
(-10.2923 -0.112107 0)
(-10.1336 -0.239259 0)
(-9.9379 -0.34766 -2.44385e-20)
(-9.71144 -0.440882 -2.21013e-20)
(-9.45449 -0.521305 -1.956e-20)
(-9.16959 -0.591022 8.96324e-21)
(-8.85896 -0.6517 -6.49382e-21)
(-8.5247 -0.704735 -1.60708e-20)
(-8.16859 -0.751242 7.98501e-21)
(-7.79219 -0.79204 1.99864e-21)
(-7.3967 -0.827635 0)
(-6.98343 -0.858226 1.12184e-21)
(-6.55404 -0.883762 -1.88301e-21)
(-6.11029 -0.90397 0)
(-5.65439 -0.918473 0)
(-5.18889 -0.927032 0)
(-4.71668 -0.92932 8.56309e-21)
(-4.24081 -0.925123 0)
(-3.76441 -0.914389 -2.16835e-20)
(-3.29053 -0.897208 0)
(-2.82206 -0.873785 -2.61455e-20)
(-2.36171 -0.844434 0)
(-1.91208 -0.80969 2.97953e-20)
(-1.47554 -0.770486 0)
(-1.05415 -0.728244 -3.26233e-20)
(-0.649773 -0.684926 1.67404e-20)
(-0.264237 -0.642597 0)
(0.100194 -0.600404 3.52063e-20)
(0.442933 -0.557269 1.77569e-20)
(0.764501 -0.514785 1.77374e-20)
(1.06447 -0.474526 0)
(1.34394 -0.437709 1.74397e-20)
(1.6053 -0.403952 1.74726e-20)
(1.85044 -0.372235 0)
(2.08058 -0.342194 -1.71994e-20)
(2.29676 -0.314056 3.39739e-20)
(2.49973 -0.287869 0)
(2.69024 -0.263465 1.67346e-20)
(2.86894 -0.240576 0)
(3.03642 -0.218877 -4.91863e-20)
(3.19317 -0.197959 0)
(3.33962 -0.177265 4.83661e-20)
(3.47622 -0.155894 1.60351e-20)
(3.60368 -0.132496 -1.58248e-20)
(3.72327 -0.105423 -3.14544e-20)
(3.83369 -0.0711815 3.12834e-20)
(3.94356 -0.0251237 0)
(4.06321 0.0353899 0)
(4.19207 0.110875 0)
(4.32018 0.19525 -9.27807e-20)
(4.43293 0.272573 -3.08366e-20)
(4.51681 0.322491 3.06192e-20)
(4.56416 0.332686 0)
(4.57182 0.307497 3.03561e-20)
(4.53698 0.265112 -3.04259e-20)
(4.45601 0.225677 -3.06637e-20)
(4.32476 0.199458 0)
(4.13729 0.180428 0)
(3.89563 0.148075 0)
(3.61652 0.0817536 -3.21948e-20)
(3.3329 -0.0221386 0)
(3.09297 -0.134065 6.61015e-20)
(2.93799 -0.206991 1.00158e-19)
(2.88474 -0.235551 -6.7266e-20)
(2.94185 -0.257393 0)
(3.12021 -0.290845 -3.38207e-20)
(3.39663 -0.305221 0)
(3.66428 -0.27323 -6.70625e-20)
(3.73481 -0.16583 3.33401e-20)
(3.36844 0.157155 3.30078e-20)
(2.21088 0.837837 0)
(0.217983 1.63539 9.31758e-20)
(-1.88611 2.03694 -5.41553e-20)
(-3.63134 1.99494 -2.37715e-20)
(-4.89433 1.70236 0)
(-5.73515 1.32792 -1.34496e-20)
(-6.26306 0.961133 -2.25269e-20)
(-6.57426 0.632856 0)
(-6.72934 0.346832 -9.49295e-22)
(-6.76205 0.0979999 2.32323e-21)
(-6.68703 -0.114472 3.4138e-21)
(-6.46744 -0.297621 0)
(-6.10739 -0.459542 0)
(-5.61315 -0.602292 0)
(-4.99626 -0.725492 4.2753e-21)
(-4.27118 -0.82716 9.10778e-21)
(-3.45565 -0.904672 0)
(-2.57081 -0.955875 3.06683e-20)
(-1.64084 -0.97992 3.74221e-20)
(-0.690651 -0.97959 0)
(0.257048 -0.955874 4.93212e-20)
(1.18341 -0.914177 1.03405e-19)
(2.07506 -0.863334 -5.4686e-20)
(2.92596 -0.811362 -5.47471e-20)
(3.73675 -0.763746 0)
(4.51333 -0.724471 0)
(5.26545 -0.696386 0)
(6.00488 -0.679868 -5.64535e-20)
(6.74337 -0.672519 5.45788e-20)
(7.49036 -0.669298 1.0756e-19)
(8.25006 -0.662541 -5.25024e-20)
(9.02 -0.641522 4.94448e-20)
(9.79424 -0.594117 4.78049e-20)
(10.5431 -0.501776 0)
(11.2357 -0.317693 0)
(11.998 -0.00303418 -3.65012e-20)
(12.7148 0.424982 0)
(13.1041 0.882231 0)
(12.9178 1.22619 5.34051e-20)
(12.0542 1.33788 0)
(10.5777 1.20378 1.98068e-20)
(8.66405 0.905358 -1.96338e-20)
(6.64764 0.576174 0)
(4.96777 0.36813 1.82896e-20)
(3.80105 0.328023 0)
(2.96846 0.378405 0)
(2.25407 0.428553 -1.09376e-20)
(1.58716 0.432954 1.49921e-20)
(1.00053 0.381837 -5.02531e-21)
(0.541845 0.29628 0)
(0.232518 0.191682 0)
(0.0694402 0.0814341 1.3644e-21)
(0.0433087 -0.0239378 0)
(0.149409 -0.113091 5.40415e-21)
(0.365033 -0.178646 0)
(0.655987 -0.216329 0)
(0.982751 -0.2262 0)
(1.30906 -0.214819 1.7814e-20)
(1.60665 -0.189697 0)
(1.85941 -0.159156 -2.18386e-20)
(2.06275 -0.129643 0)
(2.22117 -0.105096 0)
(2.34461 -0.0871691 4.95609e-20)
(2.44469 -0.0758731 -5.04057e-20)
(2.53235 -0.0699819 0)
(2.61464 -0.0682386 0)
(2.69996 -0.0675658 0)
(2.7805 -0.067952 1.55185e-19)
(2.88336 -0.0547133 0)
(2.91431 -0.0403209 -1.03856e-19)
(0.285246 -0.454023 8.20452e-22)
(1.19596 -2.71079 2.15882e-20)
(2.02072 -3.86217 0)
(2.53602 -3.88579 -2.3756e-20)
(2.76644 -3.29241 0)
(2.8327 -2.47859 0)
(2.82507 -1.63946 -2.66438e-21)
(2.78683 -0.835612 1.41736e-20)
(2.71215 -0.0626892 1.69865e-20)
(2.60484 0.663021 1.42081e-20)
(2.468 1.32701 0)
(2.2835 1.89813 0)
(2.02841 2.30003 -1.28179e-20)
(1.69298 2.4382 -2.24558e-20)
(1.30732 2.25098 1.97132e-20)
(0.945023 1.66333 0)
(0.604961 0.70763 1.68818e-20)
(0.0586136 0.388156 -8.29628e-21)
(-0.978846 1.01788 0)
(-2.20336 1.76838 1.62154e-20)
(-3.41466 2.45095 7.74212e-21)
(-4.58941 2.99759 -1.71092e-20)
(-5.68375 3.40212 -7.68865e-21)
(-6.66441 3.66584 0)
(-7.50924 3.79206 2.05418e-20)
(-8.21437 3.78808 2.20715e-20)
(-8.78494 3.66843 0)
(-9.23317 3.45496 2.5516e-20)
(-9.57536 3.17158 0)
(-9.8301 2.84156 2.9156e-20)
(-10.0154 2.48556 1.19793e-20)
(-10.1468 2.1206 0)
(-10.2362 1.75969 0)
(-10.2918 1.41229 0)
(-10.3181 1.08475 0)
(-10.3166 0.780903 0)
(-10.2867 0.502541 0)
(-10.2268 0.249939 3.53507e-20)
(-10.1356 0.0223004 -5.00121e-20)
(-10.0132 -0.182272 0)
(-9.85938 -0.366857 0)
(-9.67513 -0.533352 0)
(-9.46449 -0.68208 -2.10261e-21)
(-9.23091 -0.813154 2.22394e-20)
(-8.97682 -0.928246 4.10829e-20)
(-8.70398 -1.02929 -3.54747e-20)
(-8.4135 -1.11836 -1.55681e-20)
(-8.1059 -1.19741 1.10678e-20)
(-7.78123 -1.26804 1.39169e-21)
(-7.43918 -1.33142 6.23661e-21)
(-7.07926 -1.38817 0)
(-6.70112 -1.4382 -1.33175e-22)
(-6.30471 -1.48107 1.24327e-21)
(-5.89062 -1.51597 0)
(-5.46008 -1.5419 0)
(-5.01529 -1.55793 1.25088e-20)
(-4.5595 -1.5635 0)
(-4.09647 -1.55841 0)
(-3.63038 -1.54293 -1.97994e-20)
(-3.16537 -1.51764 -4.61189e-20)
(-2.70519 -1.48322 2.59849e-20)
(-2.25284 -1.44024 0)
(-1.81054 -1.38913 -2.96175e-20)
(-1.37999 -1.33068 0)
(-0.962715 -1.26609 -3.14758e-20)
(-0.560277 -1.19667 -3.35786e-20)
(-0.175331 -1.12401 6.82279e-20)
(0.190108 -1.05046 3.43036e-20)
(0.535603 -0.976911 0)
(0.860358 -0.905264 -6.96356e-20)
(1.16426 -0.837033 0)
(1.44795 -0.773401 -1.04022e-19)
(1.71239 -0.714539 -6.87871e-20)
(1.9591 -0.660143 -6.82941e-20)
(2.19036 -0.610013 6.77545e-20)
(2.40803 -0.563541 -1.00952e-19)
(2.61327 -0.520374 0)
(2.80698 -0.480171 0)
(2.98991 -0.442533 6.53829e-20)
(3.16265 -0.407028 9.73572e-20)
(3.32575 -0.373182 0)
(3.47981 -0.340422 -3.20097e-20)
(3.62554 -0.308024 0)
(3.76389 -0.275106 9.43217e-20)
(3.89606 -0.240429 3.1821e-22)
(4.02317 -0.203067 -3.25738e-22)
(4.14765 -0.161769 -6.17431e-20)
(4.27389 -0.113602 0)
(4.40971 -0.0558234 6.12391e-20)
(4.56269 0.00925777 3.81537e-22)
(4.73336 0.0719163 0)
(4.91119 0.117978 0)
(5.07801 0.137192 0)
(5.21652 0.132585 -5.99296e-20)
(5.31724 0.121278 0)
(5.37906 0.125973 0)
(5.40395 0.163255 0)
(5.3896 0.233233 0)
(5.32309 0.315946 0)
(5.1801 0.374097 -6.26358e-20)
(4.93453 0.371216 0)
(4.57847 0.28959 -6.4398e-20)
(4.14758 0.138277 -6.54442e-20)
(3.73111 -0.0556053 6.63583e-20)
(3.45175 -0.277908 0)
(3.40357 -0.50169 6.70819e-20)
(3.56816 -0.603108 0)
(3.73071 -0.429869 6.70315e-20)
(3.46681 0.140449 -6.67746e-20)
(2.29235 1.23411 -1.97342e-19)
(0.188885 2.57079 0)
(-1.93918 3.35479 -1.695e-19)
(-3.4942 3.37482 -4.00017e-20)
(-4.4828 2.92062 0)
(-5.12715 2.31258 -5.3042e-20)
(-5.62108 1.73278 -3.46776e-20)
(-6.04352 1.23444 3.19782e-20)
(-6.39137 0.809333 0)
(-6.63274 0.435515 9.49189e-22)
(-6.73834 0.0965126 -2.32505e-21)
(-6.6969 -0.216257 -1.68462e-20)
(-6.50785 -0.507936 0)
(-6.17588 -0.773706 0)
(-5.70893 -1.01175 0)
(-5.11672 -1.21949 4.72872e-21)
(-4.41188 -1.39309 0)
(-3.61088 -1.52765 0)
(-2.7353 -1.61828 -3.02533e-20)
(-1.8112 -1.66206 -3.6901e-20)
(-0.866457 -1.66067 0)
(0.0729201 -1.62051 0)
(0.986632 -1.55144 -1.02541e-19)
(1.86119 -1.46644 0)
(2.68979 -1.37825 1.10116e-19)
(3.47369 -1.29716 1.09843e-19)
(4.22107 -1.23124 0)
(4.94444 -1.18517 0)
(5.65809 -1.1596 -1.09727e-19)
(6.37628 -1.15105 -1.59809e-21)
(7.11077 -1.15191 -1.5304e-21)
(7.86856 -1.15065 0)
(8.64989 -1.133 -1.97204e-19)
(9.44735 -1.08015 0)
(10.2499 -0.968718 0)
(11.0402 -0.784902 0)
(11.7996 -0.504747 7.57687e-20)
(12.5939 -0.089968 0)
(13.4647 0.464492 -1.12824e-19)
(14.2617 1.07724 -5.26447e-20)
(14.6808 1.61147 0)
(14.413 1.95684 -3.88294e-20)
(13.2907 2.05988 0)
(11.3997 1.91382 0)
(9.10327 1.58063 -9.9148e-20)
(6.88897 1.2121 6.00397e-20)
(5.12094 0.966169 0)
(3.86282 0.862227 3.94158e-20)
(2.95917 0.797155 -1.4641e-20)
(2.25953 0.685102 0)
(1.70884 0.520455 0)
(1.30676 0.330588 0)
(1.06185 0.138268 -8.21046e-21)
(0.977923 -0.0427028 0)
(1.04749 -0.198318 -1.11404e-20)
(1.2463 -0.315752 0)
(1.53786 -0.384517 0)
(1.87821 -0.403915 0)
(2.22491 -0.383268 0)
(2.54513 -0.337087 0)
(2.81871 -0.280043 0)
(3.03844 -0.223859 -9.22722e-20)
(3.20696 -0.176231 0)
(3.33264 -0.140812 -4.9034e-20)
(3.42587 -0.118034 1.49859e-19)
(3.49714 -0.105929 0)
(3.55446 -0.101637 0)
(3.60654 -0.100441 -1.02207e-19)
(3.65137 -0.100575 -1.02564e-19)
(3.70916 -0.0867342 1.02836e-19)
(3.72489 -0.0699351 1.0308e-19)
(0.489559 -2.32777 -3.68205e-20)
(1.21514 -4.63524 -3.61994e-20)
(1.61923 -4.77424 -2.72653e-20)
(1.69332 -3.98757 -1.6525e-20)
(1.58844 -3.01494 0)
(1.44422 -2.11242 3.4183e-20)
(1.31061 -1.31271 -1.88177e-20)
(1.19229 -0.566392 0)
(1.06812 0.155497 -1.78652e-20)
(0.933011 0.90145 0)
(0.756925 1.6621 3.45735e-20)
(0.542422 2.37085 0)
(0.308331 2.89747 1.33853e-20)
(0.075291 3.03909 2.33121e-20)
(-0.125991 2.65099 -2.01646e-20)
(-0.441354 2.07337 0)
(-1.22313 2.0622 -1.61011e-20)
(-2.39373 2.69914 0)
(-3.66788 3.46722 0)
(-4.86382 4.08746 -1.46458e-20)
(-5.9209 4.53688 0)
(-6.81872 4.81759 -4.69098e-21)
(-7.55207 4.93389 0)
(-8.12905 4.90595 0)
(-8.56722 4.75765 6.40281e-21)
(-8.89179 4.51336 -2.15367e-20)
(-9.13067 4.19849 -3.03886e-20)
(-9.30979 3.83751 -2.53392e-20)
(-9.44977 3.4503 0)
(-9.564 3.05125 -6.54325e-20)
(-9.65855 2.64973 0)
(-9.73369 2.25135 -3.92091e-20)
(-9.78598 1.85965 0)
(-9.81057 1.47748 0)
(-9.80315 1.10796 4.15154e-20)
(-9.76125 0.754723 0)
(-9.68444 0.421694 -4.11152e-20)
(-9.57393 0.112594 4.31417e-21)
(-9.43245 -0.169476 7.3666e-20)
(-9.2647 -0.423287 -7.37575e-20)
(-9.07465 -0.648558 0)
(-8.86695 -0.846905 0)
(-8.64511 -1.02072 -3.20554e-20)
(-8.41219 -1.17268 0)
(-8.17047 -1.30585 -2.16779e-20)
(-7.9214 -1.42348 1.87606e-20)
(-7.66537 -1.52879 1.5736e-20)
(-7.40178 -1.62471 0)
(-7.12913 -1.71361 -9.47288e-21)
(-6.84521 -1.79708 -6.27929e-21)
(-6.54744 -1.87574 9.35608e-21)
(-6.2332 -1.94919 1.33649e-22)
(-5.90023 -2.01607 3.31343e-21)
(-5.54697 -2.07424 0)
(-5.17275 -2.12116 0)
(-4.77788 -2.15409 -1.2472e-20)
(-4.36374 -2.17089 0)
(-3.93281 -2.17022 0)
(-3.48873 -2.15189 4.11091e-20)
(-3.03632 -2.11692 4.58277e-20)
(-2.58134 -2.06744 0)
(-2.12986 -2.00608 0)
(-1.68709 -1.93522 0)
(-1.25676 -1.85644 0)
(-0.841497 -1.77078 6.35691e-20)
(-0.442694 -1.67912 -6.46809e-20)
(-0.0617801 -1.58274 -6.77426e-20)
(0.300306 -1.48273 -1.36353e-19)
(0.643341 -1.38132 0)
(0.966255 -1.28111 7.98822e-22)
(1.26872 -1.18492 0)
(1.55087 -1.09469 6.87822e-20)
(1.81359 -1.01122 6.15387e-22)
(2.05855 -0.93481 6.79419e-20)
(2.28742 -0.86543 -6.74148e-20)
(2.50203 -0.802245 5.19346e-22)
(2.70431 -0.744108 0)
(2.89557 -0.690162 -6.52073e-20)
(3.07673 -0.63972 -6.50969e-20)
(3.24852 -0.592213 -1.28596e-19)
(3.41151 -0.547164 0)
(3.5663 -0.504135 6.30165e-20)
(3.71367 -0.462628 0)
(3.85463 -0.421995 -1.246e-19)
(3.9906 -0.381303 6.21109e-20)
(4.12336 -0.339308 -6.17579e-20)
(4.25499 -0.294285 6.14509e-20)
(4.3878 -0.244685 1.21454e-19)
(4.52421 -0.190997 -6.09342e-20)
(4.66655 -0.135585 6.06928e-20)
(4.81577 -0.0826089 0)
(4.9696 -0.0367475 -1.19583e-19)
(5.12075 -0.000282779 0)
(5.25884 0.0289673 -1.19107e-19)
(5.37538 0.0579406 1.19262e-19)
(5.46909 0.0963068 1.19712e-19)