/*--------------------------------*- C++ -*----------------------------------*\
| =========                 |                                                 |
| \\      /  F ield         | OpenFOAM: The Open Source CFD Toolbox           |
|  \\    /   O peration     | Version:  2112                                  |
|   \\  /    A nd           | Website:  www.openfoam.com                      |
|    \\/     M anipulation  |                                                 |
\*---------------------------------------------------------------------------*/
FoamFile
{
    version     2.0;
    format      ascii;
    arch        "LSB;label=32;scalar=64";
    class       volScalarField;
    location    "0.09";
    object      omegaU;
}
// * * * * * * * * * * * * * * * * * * * * * * * * * * * * * * * * * * * * * //

dimensions      [0 0 -1 0 0 0 0];

internalField   nonuniform List<scalar> 
12225
(
55358.2
78383.5
85911.4
87112.6
85881.7
83754.4
81344.9
78927.4
76641.9
74558.8
72701.5
71061.9
69613.3
68323.2
67153.3
66099.8
64998.1
63805.1
3654.6
8247.69
12357.2
15730.6
18374.3
20387
21892.2
23000.4
23799.6
24360.1
24740.1
24989.1
25149.3
25253
25325.3
25394.2
25538.2
25755.5
285.199
735.954
1394.98
2196.69
3072.81
3951.04
4776.06
5519.34
6168.85
6727.91
7210.15
7634.24
8019.46
8382.48
8736.51
9096.11
9473.02
9860.94
113.545
156.175
228.237
333.243
473.432
647.242
847.074
1059.62
1274.69
1484.73
1686.42
1878.67
2062.56
2240.21
2414.28
2588.02
2763.94
2937.56
100.429
105.526
115.119
130.259
151.717
180.16
215.608
256.712
302.084
350.302
399.566
449.442
499.788
550.638
602.172
654.646
708.203
761.777
99.1406
99.7376
101.135
103.613
107.341
112.427
118.957
126.917
136.197
146.645
157.946
169.766
182.008
194.639
207.647
221.041
234.91
249.023
99.0014
99.031
99.1876
99.5423
100.159
101.063
102.291
103.868
105.806
108.106
110.762
113.699
116.83
120.134
123.6
127.221
130.906
134.594
98.9779
98.935
98.917
98.9365
99.0096
99.1448
99.3486
99.6293
99.9946
100.452
101.01
101.67
102.41
103.224
104.104
105.037
105.983
106.923
98.9677
98.9099
98.864
98.8321
98.8172
98.8202
98.8401
98.8765
98.9301
99.0024
99.0955
99.2116
99.3504
99.5122
99.6958
99.8976
100.113
100.338
98.9607
98.8955
98.8406
98.7962
98.7629
98.7402
98.7255
98.7165
98.7118
98.7108
98.7134
98.7202
98.7319
98.7498
98.7746
98.807
98.8476
98.8955
98.9555
98.8851
98.8243
98.7732
98.7315
98.6986
98.6724
98.6508
98.6319
98.6147
98.5986
98.5839
98.5709
98.5604
98.5532
98.5498
98.5511
98.5565
98.952
98.8776
98.8127
98.7569
98.7096
98.6702
98.6371
98.6083
98.5825
98.5586
98.536
98.5147
98.495
98.4773
98.462
98.4494
98.4397
98.4323
98.9491
98.8717
98.8032
98.7434
98.6917
98.6472
98.6086
98.5743
98.5431
98.5141
98.4868
98.461
98.4368
98.4145
98.3942
98.376
98.36
98.3452
98.9467
98.8663
98.7945
98.731
98.6751
98.626
98.5824
98.5431
98.507
98.4734
98.4417
98.4117
98.3833
98.3565
98.3314
98.3078
98.2856
98.2641
98.9447
98.8618
98.787
98.7201
98.6605
98.6072
98.5592
98.5155
98.4751
98.4373
98.4015
98.3675
98.3351
98.304
98.2742
98.2454
98.2174
98.1897
98.9431
98.8582
98.7809
98.7111
98.6482
98.5913
98.5396
98.4921
98.448
98.4065
98.3671
98.3296
98.2935
98.2586
98.2247
98.1915
98.1587
98.1261
98.942
98.8557
98.7764
98.7043
98.6388
98.579
98.5243
98.4737
98.4266
98.3821
98.3398
98.2994
98.2603
98.2225
98.1855
98.1492
98.1134
98.0779
98.9415
98.8544
98.7739
98.7002
98.6329
98.5711
98.5143
98.4615
98.4122
98.3656
98.3213
98.2789
98.2381
98.1985
98.16
98.1224
98.0855
98.0494
98.9416
98.8546
98.7739
98.6998
98.6317
98.5692
98.5115
98.4579
98.4077
98.3605
98.3157
98.2729
98.2319
98.1924
98.1543
98.1174
98.0818
98.0475
98.9426
98.8565
98.7768
98.7035
98.6363
98.5746
98.5177
98.4651
98.416
98.37
98.3265
98.2852
98.2458
98.2082
98.1722
98.1377
98.1047
98.0734
98.9441
98.8596
98.7816
98.71
98.6444
98.5844
98.5295
98.479
98.4322
98.3886
98.3476
98.309
98.2725
98.2377
98.2047
98.1732
98.1434
98.1154
98.9463
98.8641
98.7884
98.7191
98.6559
98.5986
98.5467
98.4995
98.4563
98.4166
98.3799
98.3458
98.3138
98.2837
98.2553
98.2285
98.2033
98.1799
98.9495
98.8704
98.7978
98.7316
98.672
98.6192
98.5728
98.5324
98.4973
98.4673
98.4418
98.4203
98.4025
98.388
98.3766
98.368
98.3621
98.3592
98.9542
98.88
98.8133
98.7556
98.7097
98.6785
98.664
98.6679
98.6918
98.7367
98.8027
98.8895
98.9963
99.1219
99.2649
99.4239
99.5972
99.7836
98.9644
98.9127
98.8978
98.9432
99.0741
99.3151
99.6868
100.205
100.879
101.711
102.689
103.803
105.039
106.383
107.82
109.337
110.911
112.528
99.0736
99.3856
100.211
101.769
104.162
107.491
111.847
117.274
123.759
131.234
139.542
148.553
158.103
168.034
178.241
188.644
199.115
209.586
101.415
107.625
120.282
140.47
168.23
202.998
244.763
293.101
347.176
405.83
467.781
531.639
595.881
659.258
721.12
781.133
839.202
895.206
151.587
259.54
442.648
689.879
993.527
1331.27
1689.06
2054.26
2415.81
2764.57
3093.71
3398.77
3677.83
3930.76
4158.43
4362.87
4546.93
4714.79
1571.35
3748.76
5981.91
8053.76
9874.54
11429.8
12734.1
13818.5
14716
15456
16063.4
16559.2
16961.1
17284.2
17541.5
17744.6
17904.4
18029.6
36455.4
55152.8
63352
66367.7
66995.9
66549.4
65618.6
64473
63244
62001.3
60785.3
59621.1
58524.6
57504.9
56566.4
55709.5
54928.8
54221.6
1727.22
1709.61
1747.08
1801.01
1870.7
1959.47
2065.49
2184.75
2316.05
2459.16
2613.98
2780.19
2957.19
3143.91
3338.87
3540.19
3745.74
3953.34
4161
4366.04
4548.37
4694.4
4802.16
4869.92
4896.45
4881.29
4825.19
4730.53
4601.74
4445.8
4272.17
4091.84
3915.97
3754.41
3614.36
3499.11
3407.18
3332.4
3264.54
3190.57
3097.02
2975.42
2830.71
2687
2582.62
2554.52
2628.13
2821.82
3151.46
3631.78
4270.44
5058.46
5948.56
6800.76
7628.03
8416.13
9148.35
9814.85
10411.4
10937.7
11396.3
11792.2
12131.9
12420.6
12662.5
12861.9
13023.2
13151
13248.8
13319.9
13367.2
13393.3
13400.9
13392.4
13370
13336
13292.7
13242
13185.6
13126.3
13063.9
13004.3
12948.3
12896.2
12847.4
12801.5
12757.6
12715.2
12673.9
12634
12595.9
12560.5
12528.3
12499.8
12475
12453
12432.4
12411.1
12386.4
12355.8
12316.3
12264.5
12197
12110.2
12001
11867
11707.8
11524.9
11319.9
11092.9
10842.7
10568.3
10269.2
9945.31
9596.91
9224.71
8829.49
8411.65
7970.52
7504.22
7012.84
6500.32
5971
5430.64
4886.94
4349.69
3830.66
3343.24
2902.33
2523.7
2224.09
2024.08
1938.34
1979.37
2164.08
2436.48
2806.53
3263.43
3790.48
4374.86
5005.54
5671.08
6357.09
7057.93
7765.56
8470.28
9164.82
9844.65
10507.2
11151.4
11776.3
12381.5
12966.6
13530.7
14072
14587.4
15072.6
15521.8
15927.5
16281.9
16576.6
16801.8
16932.8
16959.5
16887.2
16718.2
16453.8
16096.7
15652
15125.6
14524.1
13854.7
13128.7
12362.8
11575.5
10785.6
10011.9
9266.89
8569.96
7868.78
2818.01
2537.93
2418.93
2340.3
2273.86
2210.57
2147.23
2083.45
2019.9
1957.36
1896.58
1838.18
1782.68
1730.52
1682.05
1637.59
1597.44
1561.88
1531.26
1508.28
1515.14
1556.78
1623.64
1705.3
1791.33
1871.78
1938.23
1985.07
2009.91
2012.12
1991.41
1948.25
1884.81
1805.32
1716.43
1627.5
1550.48
1499.16
1486.42
1520.43
1602.43
1728.28
1895.4
2110.98
2392.74
2759.48
3217.35
3755.4
4333.96
4844.13
5247.52
5567.37
5795.44
5929.5
5977.49
5947.86
5851.41
5701.05
5510.84
5294.96
5066.85
4835.23
4602.04
4373.8
4158.42
3961.94
3788.01
3638.44
3513.99
3414.8
3340.68
3291.23
3265.9
3263.91
3284.12
3325.3
3385.76
3463.41
3555.55
3658.49
3771.04
3886.55
4002.38
4116.35
4226.5
4331.26
4429.4
4520.04
4602.58
4676.49
4741.24
4796.13
4840.27
4872.61
4892.08
4897.71
4888.73
4864.73
4825.5
4771.1
4701.92
4618.97
4523.86
4418.77
4306.38
4189.48
4070.29
3949.67
3827.04
3701.31
3571.47
3436.68
3296.31
3150.04
2998.29
2842.91
2688.43
2543.9
2424.01
2343.6
2297.54
2261.6
2226.17
2190.78
2155.76
2121.48
2088.43
2057.23
2028.47
2002.9
1982.11
1967.17
1959.54
1958.49
1964.78
1973.91
1985.03
1999.17
2018.18
2043.44
2079.53
2153.11
2323.83
2560.31
2816.2
3075.33
3334.99
3596.34
3861.25
4131.35
4406.55
4686.7
4975.56
5276.66
5591.88
5922.01
6267.08
6626.07
6996.29
7372.48
7744.56
8094.82
8397.8
8628.28
8767.45
8796.77
8699.03
8466.36
8113.56
7683.3
7230.27
6802.41
6421.88
6071.98
5727.47
5374.72
5012.87
4650.7
4307.82
4005.54
4175.73
3407.49
3039.86
2782.34
2572.89
2393.18
2236.05
2098.1
1977.08
1870.93
1777.72
1695.7
1623.32
1559.31
1502.57
1452.21
1407.51
1367.83
1332.64
1301.51
1274.51
1253.08
1239.34
1235.04
1240.84
1255.88
1277.73
1302.81
1326.99
1346.14
1356.6
1355.74
1342.78
1319.61
1291.43
1267.25
1259.58
1283.24
1352.94
1480.28
1671.7
1930.13
2257.9
2656.29
3119.11
3621.56
4077.4
4405.29
4632.79
4751.74
4771.88
4707.55
4571.99
4380.08
4147.74
3890.83
3624.71
3363.22
3117.62
2895.93
2702.75
2539.4
2404.95
2297.77
2215.27
2154.27
2111.48
2083.85
2068.76
2064
2067.76
2078.53
2095.05
2116.2
2140.99
2168.49
2197.83
2228.18
2258.77
2288.91
2318.34
2345.63
2370.35
2392.19
2410.97
2426.63
2439.21
2448.81
2455.5
2459.33
2460.27
2458.2
2452.94
2444.35
2432.39
2417.2
2399.23
2379.19
2358.15
2337.5
2318.76
2303.35
2292.35
2286.25
2284.81
2287.04
2291.61
2296.98
2301.86
2305.36
2306.97
2306.48
2303.86
2299.2
2292.71
2284.76
2275.9
2266.85
2258.29
2250.41
2242.45
2233.2
2222.21
2209.59
2195.45
2179.89
2163.29
2146.32
2128.78
2110.07
2092.46
2070.61
2044.57
2018.15
1991.1
1962.05
1930.55
1898.24
1866.44
1835.81
1807.09
1782.2
1764.15
1752.36
1744.68
1739.88
1737.55
1737.71
1740.59
1747.2
1763.88
1799.48
1852.45
1918.58
1996.31
2086.41
2191.22
2314.09
2459.01
2629.59
2829.65
3067.65
3362.23
3694.79
4043.27
4379.84
4672.76
4889.42
4999.5
4984.65
4872.15
4722.4
4551.29
4359.23
4144.89
3907.88
3651.5
3384
3120.94
2879.64
5632.84
4168.89
3455.52
2965.69
2592.7
2301.15
2070.89
1887.77
1741.14
1622.71
1526.21
1446.82
1380.95
1325.88
1279.57
1240.5
1207.5
1179.65
1156.26
1136.69
1120.21
1106.6
1095.82
1088.15
1084.14
1084.35
1089.05
1097.92
1109.89
1123.24
1136.01
1146.74
1155.55
1165.49
1183.51
1220.51
1289.7
1403.18
1570.11
1797.06
2090.07
2453.72
2879.82
3335.13
3711.05
3981.12
4143.65
4199.59
4164.04
4051.29
3878.93
3664.45
3424.66
3175.54
2931.49
2704.35
2502.61
2330.98
2190.67
2080.08
1995.84
1933.77
1889.65
1859.66
1840.55
1829.67
1825
1825.04
1828.68
1835.12
1843.8
1854.31
1866.36
1879.75
1894.31
1909.93
1926.47
1943.94
1962.17
1981.31
2000.78
2020.49
2040.33
2060.18
2079.91
2099.37
2118.36
2136.67
2154.07
2170.38
2185.4
2199.03
2211.26
2222.21
2232.15
2241.51
2250.81
2260.61
2271.5
2283.94
2298.22
2314.38
2332.2
2351.16
2370.58
2389.72
2407.84
2424.35
2438.79
2450.89
2460.47
2467.39
2471.58
2473.01
2471.68
2467.57
2460.63
2450.82
2438.13
2422.59
2404.2
2383.19
2359.87
2334.51
2307.17
2277.56
2246.51
2215.55
2183.84
2147.87
2114.35
2078.02
2038.56
1997.69
1955.77
1912.44
1868.32
1824.57
1781.69
1739.79
1698.87
1658.91
1620.04
1582.48
1546.49
1512.28
1480.02
1449.85
1421.89
1396.33
1373.74
1354.89
1339.83
1328.38
1320.53
1316.46
1316.62
1321.68
1332.84
1353.71
1389.97
1447.29
1540.74
1689.78
1893.19
2147.96
2443.25
2756.99
3056.85
3305.75
3480.76
3588
3627.12
3598.17
3506.74
3360.92
3171.64
2952.21
2719.37
2489.88
7129.29
4759.79
3627.89
2892.77
2382.63
2023.78
1768.29
1583.55
1447.5
1345.33
1267.05
1205.94
1157.48
1118.58
1087.08
1061.48
1040.73
1024.06
1010.92
1000.89
993.788
990.005
988.883
989.926
992.868
997.71
1004.66
1014.02
1026
1040.75
1058.6
1080.84
1110.88
1155.39
1224.42
1329.15
1478.01
1675.05
1923.51
2229.32
2594.97
2999.55
3347.27
3606.21
3763.51
3820.62
3787.55
3680.11
3516.69
3315.23
3092.99
2865.59
2646.48
2446.29
2272.19
2127.63
2012.68
1924.94
1860.5
1815
1784.29
1764.8
1753.69
1748.82
1748.62
1751.98
1758.11
1766.5
1776.77
1788.72
1802.18
1817.1
1833.45
1851.22
1870.44
1891.16
1913.34
1936.76
1961.17
1986.45
2012.44
2038.94
2065.73
2092.55
2119.14
2145.27
2170.72
2195.38
2219.18
2242.14
2264.35
2285.98
2307.23
2328.37
2349.7
2371.49
2393.99
2417.35
2441.62
2466.64
2491.95
2517.07
2541.39
2564.24
2584.98
2603.05
2618.04
2629.66
2637.78
2642.37
2643.48
2641.13
2635.33
2626.11
2613.54
2597.7
2578.71
2556.7
2531.81
2504.07
2473.57
2440.68
2405.79
2369.12
2330.6
2288.11
2244.92
2202.18
2158.84
2114.68
2069.47
2022.66
1974.31
1925.09
1875.3
1825.04
1774.76
1725.14
1676.53
1629.05
1582.71
1537.55
1493.73
1451.46
1410.9
1372.21
1335.54
1301
1268.68
1238.66
1211.03
1185.85
1163.16
1143.01
1125.41
1110.44
1098.2
1088.88
1082.75
1080.39
1082.73
1090.92
1107.89
1144.04
1211.25
1321.17
1480.41
1689.52
1940.65
2213.9
2481.62
2720.8
2911.03
3032.49
3075.8
3042.19
2939.65
2781.49
2585.82
2371.07
8543.26
5126.88
3551.08
2610.3
2033.58
1677.05
1451.53
1304.09
1203.95
1133.19
1081.28
1042
1011.49
987.39
968.202
952.923
940.886
931.639
924.874
920.428
918.758
920.561
925.174
932.001
940.595
950.76
962.636
976.761
994.153
1016.5
1046.62
1089.17
1151.35
1242.18
1369.7
1538.78
1751.42
2008.96
2314.33
2664.87
2997.29
3261.14
3440.64
3528.39
3527.72
3451.42
3316.21
3140.24
2940.9
2733.89
2532.69
2348.02
2187.23
2054.18
1949.4
1870.88
1815.08
1777.83
1755.15
1743.55
1740.26
1743.18
1750.73
1761.8
1775.55
1791.38
1808.84
1827.59
1847.37
1868.01
1889.36
1911.35
1933.91
1957.02
1980.7
2004.89
2029.19
2053.67
2078.47
2103.54
2128.82
2154.21
2179.62
2204.94
2230.07
2254.95
2279.56
2303.94
2328.17
2352.4
2376.81
2401.58
2426.89
2452.87
2479.5
2506.61
2534.06
2561.6
2588.86
2615.34
2640.46
2663.58
2684.06
2701.27
2714.71
2724.09
2729.3
2730.35
2727.35
2720.5
2710.04
2696.15
2679.06
2658.96
2636.03
2610.44
2582.37
2551.99
2519.46
2484.1
2446.35
2407.06
2366.21
2323.76
2279.68
2233.97
2186.78
2138.41
2089.05
2038.8
1987.77
1935.92
1883.27
1830.11
1776.7
1723.26
1670.12
1617.68
1566.27
1516.07
1467.18
1419.74
1373.89
1329.82
1287.69
1247.67
1209.89
1174.46
1141.45
1110.87
1082.74
1057.08
1033.89
1013.18
994.971
979.314
966.27
955.92
948.345
943.647
941.987
943.666
949.38
961.399
985.488
1027.58
1097.25
1206.03
1360.92
1561.71
1799.26
2054.96
2305.52
2521.28
2673.96
2749.33
2745.13
2667.54
2530.12
2349.54
9754.2
5270.66
3281.35
2221.69
1670.74
1380.25
1219.06
1123.13
1061.47
1018.78
987.305
962.993
943.682
928.131
915.537
905.458
897.639
891.925
888.215
886.53
887.431
891.529
898.371
907.609
919.067
932.879
949.657
970.72
998.362
1036.21
1089.56
1165.31
1270.47
1410.36
1588.04
1804.17
2058.68
2352.35
2662.02
2926.9
3132.72
3261.9
3309.6
3281.01
3188.34
3047.87
2876.57
2690.49
2503.73
2327.89
2171.59
2040.1
1935.45
1856.84
1801.55
1765.87
1745.88
1738.02
1739.29
1747.37
1760.49
1777.35
1796.99
1818.69
1841.92
1866.26
1891.37
1917
1942.93
1969.01
1995.09
2021.08
2046.89
2072.47
2097.74
2122.29
2146.45
2170.29
2193.84
2217.06
2239.96
2262.51
2284.68
2306.47
2327.88
2348.93
2369.67
2390.21
2410.67
2431.22
2452.02
2473.22
2494.96
2517.24
2540.11
2563.48
2587.08
2610.54
2633.36
2654.9
2674.52
2691.55
2705.36
2715.39
2721.07
2722.32
2719.23
2712.06
2701.12
2686.73
2669.18
2648.46
2625.29
2600.02
2572.8
2543.66
2512.65
2479.78
2445.07
2408.55
2370.22
2330.07
2288.08
2244.25
2198.58
2151.16
2102.1
2051.62
1999.94
1947.26
1893.78
1839.63
1784.95
1729.97
1674.98
1620.22
1566
1512.61
1460.33
1409.35
1359.83
1311.9
1265.71
1221.45
1179.28
1139.37
1101.82
1066.7
1034.01
1003.75
975.935
950.584
927.738
907.453
889.803
874.863
862.704
853.365
846.846
843.113
842.13
843.9
848.573
856.775
870.801
892.818
927.792
983.764
1070.54
1197.59
1368.89
1581.07
1820.73
2065.67
2283.96
2443.79
2528.83
2535.64
2470.32
2343.25
10630.3
5248.87
2913.73
1840.41
1392.79
1196.62
1099.36
1043.52
1006.69
979.564
958.016
940.153
925.067
912.268
901.475
892.518
885.401
880.287
877.342
876.764
878.995
884.719
893.659
905.802
921.542
941.763
968.034
1002.84
1049.82
1113.74
1199.95
1313.11
1456.81
1633
1842.06
2083.95
2351.99
2603.11
2822.42
2987.14
3085.74
3113.81
3075.75
2982.55
2848.69
2689.66
2520.06
2352.64
2197.67
2062.52
1951.38
1865.44
1803.5
1762.71
1739.5
1730.2
1731.55
1740.84
1755.96
1775.33
1797.78
1822.45
1848.71
1876.04
1904.08
1932.5
1961.06
1989.55
2017.81
2045.7
2073.14
2100.04
2126.35
2152.02
2176.7
2200.58
2223.78
2246.32
2268.24
2289.54
2310.24
2330.32
2349.76
2368.53
2386.59
2403.88
2420.38
2436.09
2451.03
2465.26
2478.86
2491.88
2504.4
2516.56
2528.76
2541.24
2554.01
2566.94
2579.83
2592.23
2603.62
2613.36
2620.9
2625.81
2627
2624.58
2618.58
2609.15
2596.55
2581.01
2562.82
2542.21
2519.44
2494.69
2468.07
2439.63
2409.34
2377.2
2343.18
2307.3
2269.53
2229.88
2188.33
2144.87
2099.53
2052.34
2003.41
1952.91
1901.01
1847.96
1793.99
1739.35
1684.28
1629.06
1573.99
1519.35
1465.41
1412.43
1360.64
1310.23
1261.33
1214.12
1168.76
1125.39
1084.16
1045.16
1008.42
973.971
941.825
912.03
884.662
859.824
837.634
818.237
801.778
788.381
778.122
770.994
766.894
765.628
766.95
770.622
776.5
784.697
796.214
812.484
835.41
869.053
920.126
997.822
1111.41
1266.69
1462.73
1688.82
1923.55
2133.42
2287.51
2369.28
2376.39
2312.67
11047.1
5148.62
2509.56
1545.4
1238.11
1122.39
1065.08
1029.08
1002.59
981.217
963.123
947.472
933.805
921.775
911.144
901.833
894.022
888.118
884.662
884.307
888.194
898.197
914.048
934.995
961.805
995.984
1039.72
1095.92
1168.06
1259.57
1373.63
1512.92
1679.03
1873.3
2091.44
2309.33
2518.84
2699.09
2835.68
2916.83
2938.19
2902.42
2818.14
2697.6
2554.44
2401.86
2251.57
2113.03
1993
1895.33
1821.1
1769.14
1736.8
1720.75
1717.58
1724.21
1738.15
1757.42
1780.61
1806.65
1834.79
1864.47
1895.23
1926.68
1958.46
1990.25
2021.74
2052.64
2082.71
2111.74
2139.59
2166.15
2191.4
2215.12
2237.13
2257.73
2277.06
2295.27
2312.53
2329.01
2344.87
2360.23
2375.18
2389.76
2403.95
2417.67
2430.77
2443.1
2454.47
2464.72
2473.67
2481.09
2486.67
2490.39
2492.61
2493.67
2494.04
2494.09
2494.07
2494.04
2493.86
2493.33
2492.17
2490.02
2486.5
2481.24
2473.96
2464.5
2452.76
2438.73
2422.46
2404.03
2383.53
2361.05
2336.64
2310.35
2282.17
2252.12
2220.18
2186.37
2150.67
2113.08
2073.58
2032.14
1988.76
1943.45
1896.27
1847.33
1796.82
1744.96
1692.05
1638.37
1584.25
1530.02
1476.01
1422.53
1369.82
1318.15
1267.7
1218.67
1171.21
1125.45
1081.5
1039.47
999.411
961.349
925.342
891.463
859.813
830.531
803.789
779.784
758.731
740.874
726.436
715.576
708.342
704.629
704.168
706.551
711.296
717.928
726.074
735.574
746.771
760.856
778.736
802.555
836.145
885.688
959.815
1067.42
1214.59
1400.95
1616.28
1838.69
2034.44
2175.32
2247.01
2245.87
10970
4751.22
2087.3
1374.33
1189.57
1117.22
1075.21
1045.46
1022.36
1003.68
988.352
975.748
965.338
956.615
949.201
942.923
937.917
934.816
934.666
938.727
948.839
967.499
995.62
1029.94
1071.25
1121.18
1181.83
1255.5
1344.85
1452.42
1581.16
1728.85
1892.23
2068.38
2248.07
2418.66
2568.45
2684.13
2755.86
2778.28
2751.86
2682.33
2579.25
2454.11
2318.67
2183.71
2058.26
1948.96
1859.79
1792.16
1745.32
1717.01
1704.21
1703.75
1712.72
1728.71
1749.89
1774.92
1802.88
1833.14
1865.26
1898.9
1933.73
1969.42
2005.6
2041.84
2077.68
2112.65
2146.25
2178.05
2207.64
2234.69
2258.98
2280.13
2298.57
2314.34
2327.62
2338.68
2347.9
2355.72
2362.63
2369.11
2375.59
2382.41
2389.81
2397.88
2406.51
2415.41
2424.26
2432.65
2440.25
2446.53
2450.6
2451.93
2450.39
2445.95
2439.11
2430.62
2420.64
2409.67
2398.12
2386.34
2374.57
2362.93
2351.33
2339.63
2327.6
2314.99
2301.54
2287.01
2271.21
2253.98
2235.22
2214.85
2192.82
2169.09
2143.65
2116.45
2087.48
2056.71
2024.09
1989.6
1953.17
1914.75
1874.28
1831.75
1787.19
1740.68
1692.4
1642.59
1591.55
1539.64
1487.21
1434.66
1382.34
1330.56
1279.61
1229.71
1181.05
1133.78
1088.01
1043.83
1001.29
960.429
921.316
884.031
848.689
815.441
784.476
756.028
730.368
707.794
688.632
673.233
661.881
654.732
651.744
652.63
656.872
663.778
672.583
682.562
693.139
703.989
715.21
727.73
742.421
760.682
784.87
818.877
868.716
942.561
1048.8
1192.84
1373.53
1579.71
1787.92
1966.31
2090.39
2146.07
10386.4
4125.68
1789.04
1329.65
1203.71
1142.97
1104.05
1076.26
1055.85
1041.15
1031.16
1025.15
1022.39
1022.31
1024.57
1029.13
1036.17
1046.06
1059.2
1076.03
1096.97
1122.57
1154.7
1195.11
1242.82
1299.12
1365.57
1443.77
1535.19
1640.7
1760.19
1891.59
2031.58
2174.85
2313.27
2437.21
2536.88
2603.34
2630.72
2617.31
2565.86
2482.92
2377.51
2259.7
2139.32
2025.05
1923.66
1839.59
1774.92
1729.58
1701.92
1689.33
1688.89
1697.81
1713.7
1734.71
1759.5
1787.17
1817.17
1849.12
1882.8
1918
1954.52
1992.09
2030.4
2069.05
2107.57
2145.39
2181.9
2216.44
2248.34
2276.97
2301.9
2323.28
2340.86
2354.38
2363.75
2369.13
2370.93
2369.78
2366.49
2362.01
2357.31
2353.29
2350.74
2350.2
2351.94
2355.68
2360.97
2367.2
2373.85
2380.1
2384.97
2387.49
2386.96
2383.2
2376.35
2366.59
2354.25
2339.71
2323.42
2305.85
2287.46
2268.66
2249.78
2231.05
2212.57
2194.34
2176.27
2158.19
2139.88
2121.12
2101.7
2081.41
2060.09
2037.59
2013.77
1988.54
1961.79
1933.41
1903.3
1871.38
1837.51
1801.62
1763.62
1723.47
1681.17
1636.83
1590.6
1542.75
1493.61
1443.56
1393
1342.33
1291.91
1242.08
1193.07
1145.11
1098.34
1052.85
1008.71
965.969
924.699
884.969
846.879
810.562
776.19
743.98
714.203
687.187
663.311
642.994
626.693
614.85
607.776
605.557
607.969
614.45
624.148
636.035
649.055
662.257
674.915
686.614
697.392
708.073
719.907
734.017
752.051
776.578
811.64
863.251
939.219
1047.14
1191.06
1368.05
1565.18
1757.45
1916.71
2019.89
9324.83
3489.32
1682.02
1349.57
1239.43
1179.37
1140.72
1115.03
1098.81
1090.29
1088.2
1091.51
1099.28
1110.72
1125.26
1142.52
1162.2
1184.06
1207.95
1233.84
1261.84
1292.23
1325.51
1365.25
1411.49
1465.27
1527.66
1599.68
1681.95
1774.49
1876.39
1985.45
2098.08
2209.04
2311.53
2397.94
2460.85
2494.26
2494.87
2462.75
2401.44
2317.2
2218.06
2112.62
2009.06
1914.28
1833.33
1769.17
1722.65
1692.96
1678.11
1675.5
1682.49
1696.66
1716.03
1739.14
1764.96
1792.82
1822.33
1853.22
1885.33
1918.5
1952.61
1987.5
2022.98
2058.86
2094.88
2130.67
2165.78
2199.65
2231.62
2261.06
2288.14
2311.92
2331.68
2346.72
2356.5
2360.75
2359.66
2353.71
2343.76
2330.96
2316.7
2302.45
2289.61
2279.41
2272.93
2270.05
2270.46
2273.4
2278.21
2283.55
2288.26
2291.25
2291.66
2289.32
2284.16
2276.28
2265.96
2253.48
2239.09
2223.04
2205.57
2186.9
2167.28
2146.93
2126.08
2104.93
2083.62
2062.22
2040.76
2019.16
1997.34
1975.14
1952.4
1928.95
1904.61
1879.22
1852.6
1824.6
1795.04
1763.79
1730.71
1695.67
1658.58
1619.41
1578.17
1534.97
1490
1443.52
1395.89
1347.49
1298.73
1249.98
1201.6
1153.85
1106.96
1061.06
1016.26
972.647
930.276
889.21
849.526
811.319
774.72
739.898
707.075
676.535
648.635
623.813
602.577
585.486
573.135
566.022
564.426
568.274
577.054
589.844
605.431
622.495
639.778
656.212
671.007
683.719
694.299
703.321
712.385
722.571
735.242
752.368
776.892
813.197
867.424
946.968
1058.26
1203.32
1376.79
1563.23
1738.28
1875.24
8037.99
2894.89
1648.7
1389.68
1282.71
1220.37
1181.57
1158.6
1147.32
1145.27
1150.69
1162.07
1178.07
1197.58
1219.78
1244.03
1269.84
1296.91
1325.08
1354.34
1384.88
1417.07
1451.43
1489.29
1532.54
1581.81
1637.87
1701.31
1772.35
1850.61
1934.94
2023.12
2111.82
2196.47
2271.56
2331.17
2369.82
2383.38
2369.98
2330.44
2268.27
2189.1
2099.86
2007.86
1919.88
1841.48
1776.52
1726.98
1693.1
1673.77
1666.97
1670.32
1681.43
1698.21
1718.98
1742.49
1767.89
1794.61
1822.29
1850.68
1879.6
1908.9
1938.47
1968.23
1998.13
2028.21
2058.51
2089
2119.59
2149.99
2179.67
2208.98
2236.42
2261.22
2282.51
2299.4
2310.81
2315.84
2314.54
2307.17
2294.38
2277.28
2257.31
2236.18
2215.56
2197.29
2183.4
2173.99
2169.04
2167.86
2169.26
2171.75
2173.92
2174.57
2172.93
2168.83
2162.28
2153.62
2143.4
2132.08
2119.99
2107.26
2093.89
2079.73
2064.62
2048.4
2031
2012.41
1992.73
1972.08
1950.59
1928.35
1905.43
1881.86
1857.6
1832.59
1806.72
1779.87
1751.89
1722.65
1691.99
1659.79
1625.91
1590.26
1552.78
1513.47
1472.38
1429.64
1385.47
1340.14
1293.99
1247.39
1200.69
1154.21
1108.25
1063
1018.62
975.226
932.881
891.649
851.584
812.755
775.246
739.173
704.692
672.014
641.423
613.276
588.025
566.24
548.58
535.762
528.494
527.283
532.296
543.191
559.098
578.732
600.612
623.262
645.351
665.77
683.66
698.426
709.764
717.854
724.212
730.194
737.116
746.815
761.808
785.6
823.03
880.338
964.234
1079.47
1225.51
1393.96
1567.71
1722.29
6648.16
2392.79
1650.18
1441.32
1330.98
1264.27
1224.36
1203.34
1195.69
1197.82
1207.47
1222.78
1242.17
1264.48
1288.86
1314.74
1341.77
1369.76
1398.65
1428.54
1459.63
1492.23
1526.8
1563.96
1605.1
1650.74
1701.41
1757.43
1818.79
1884.97
1954.8
2026.28
2096.55
2161.87
2217.84
2259.91
2283.93
2286.97
2267.87
2227.64
2169.43
2098.1
2019.56
1939.98
1865.04
1799.33
1745.92
1706.3
1680.48
1667.33
1665.03
1671.43
1684.42
1702.15
1723.14
1746.29
1770.83
1796.24
1822.2
1848.46
1874.85
1901.23
1927.48
1953.52
1979.32
2004.91
2030.41
2056.03
2081.92
2108.06
2134.29
2159.82
2183.77
2205.69
2224.99
2241
2252.62
2257.75
2256.55
2248.9
2235.14
2216.17
2193.35
2168.42
2143.31
2119.92
2099.93
2084.44
2073.88
2067.77
2064.89
2063.52
2061.82
2058.23
2051.71
2041.9
2029.19
2014.41
1998.57
1982.68
1967.49
1953.44
1940.61
1928.78
1917.52
1906.3
1894.58
1881.87
1867.83
1852.24
1834.99
1816.09
1795.58
1773.54
1750.04
1725.15
1698.89
1671.28
1642.3
1611.9
1580.06
1546.73
1511.87
1475.47
1437.55
1398.16
1357.42
1315.5
1272.61
1229.03
1185.06
1141
1097.13
1053.69
1010.89
968.864
927.708
887.488
848.255
810.054
772.942
736.991
702.302
669.014
637.313
607.456
579.784
554.749
532.932
515.056
501.944
494.469
493.404
499.21
511.84
530.614
554.313
581.407
610.294
639.446
667.461
693.082
715.226
733.005
745.833
753.616
757.459
759.063
759.785
761.512
766.717
778.59
801.261
839.986
900.857
989.466
1108.34
1253.86
1415.02
1572.5
5273.72
2146.78
1688.91
1501.31
1382.81
1310.65
1268.15
1246.66
1239.74
1242.67
1252.82
1268.28
1287.49
1309.35
1333.13
1358.39
1384.88
1412.49
1441.19
1471.08
1502.3
1535.07
1569.69
1606.46
1646.27
1689.38
1736.06
1786.45
1840.39
1897.33
1956.22
2015.36
2072.4
2124.35
2167.75
2199.06
2215.09
2213.6
2193.8
2156.57
2104.57
2041.85
1973.37
1904.34
1839.56
1782.95
1737.17
1703.49
1681.97
1671.68
1671.06
1678.27
1691.45
1708.97
1729.45
1751.88
1775.55
1799.94
1824.8
1849.88
1875.08
1900.3
1925.35
1950.24
1974.84
1998.93
2022.32
2044.98
2066.79
2087.37
2107.11
2125.67
2142.82
2158.3
2171.76
2182.81
2190.94
2195.27
2194.65
2188.17
2175.5
2156.94
2133.5
2106.79
2078.88
2051.94
2027.97
2008.46
1994.07
1984.42
1978.12
1973.12
1967.14
1958.22
1945.08
1927.32
1905.44
1880.58
1854.23
1827.95
1803.13
1780.78
1761.46
1745.35
1732.21
1721.43
1712.21
1703.67
1694.94
1685.29
1674.14
1661.1
1645.9
1628.46
1608.76
1586.85
1562.83
1536.8
1508.89
1479.19
1447.81
1414.86
1380.43
1344.63
1307.58
1269.44
1230.36
1190.54
1150.22
1109.63
1069.02
1028.6
988.585
949.129
910.354
872.341
835.142
798.794
763.333
728.805
695.272
662.821
631.574
601.694
573.403
547.004
522.911
501.68
484.076
470.983
463.392
462.307
468.512
482.347
503.472
530.88
563.116
598.538
635.479
672.269
707.272
738.921
765.823
786.866
801.345
809.023
810.623
808.037
802.59
796.203
791.404
791.358
799.944
821.857
862.557
927.583
1020.87
1142.13
1284.89
1434.91
4020.34
2077.9
1749.69
1565.17
1438.64
1361.51
1314.94
1290.14
1280.63
1281.36
1289.36
1302.75
1320.05
1340.23
1362.63
1386.84
1412.63
1439.89
1468.56
1498.65
1530.22
1563.36
1598.19
1634.89
1673.75
1715.12
1758.92
1805.12
1853.47
1903.45
1954.15
2004.2
2051.74
2094.44
2129.63
2154.56
2166.77
2164.47
2146.96
2114.89
2070.29
2016.45
1957.36
1897.3
1839.94
1789.25
1748.77
1718.66
1699.03
1689.25
1688.14
1694.2
1705.91
1721.82
1740.71
1761.63
1783.88
1806.94
1830.51
1854.37
1878.37
1902.41
1926.36
1950.13
1973.52
1996.22
2017.79
2037.75
2055.42
2070.24
2083.14
2094.49
2104.4
2112.89
2119.97
2125.5
2129.28
2130.75
2128.96
2122.86
2111.65
2095.01
2073.31
2047.74
2020.17
1992.86
1968.04
1947.41
1931.74
1920.6
1912.38
1904.64
1894.73
1880.37
1860.14
1833.69
1801.61
1765.29
1726.51
1687.23
1649.29
1614.21
1583.11
1556.71
1535.14
1518.08
1504.87
1494.59
1486.23
1478.72
1471.12
1462.59
1452.47
1440.3
1425.79
1408.8
1389.3
1367.37
1343.14
1316.78
1288.5
1258.5
1227
1194.21
1160.35
1125.62
1090.25
1054.45
1018.44
982.424
946.585
911.083
876.046
841.568
807.71
774.51
741.994
710.188
679.132
648.881
619.515
591.144
563.915
538.022
513.731
491.405
471.533
454.82
442.214
434.771
433.647
439.937
454.393
477.146
507.558
544.386
586.055
630.823
676.812
722.02
764.399
802.029
833.32
857.161
872.935
880.486
880.166
873.825
862.691
848.624
834.144
822.436
817.343
823.355
845.552
889.233
958.867
1056.11
1177.81
1314.03
2983.11
2037.48
1818.22
1637.97
1507.49
1425.78
1374.28
1344.63
1330.62
1327.34
1331.54
1341.39
1355.54
1372.96
1393.05
1415.41
1439.83
1466.16
1494.31
1524.23
1555.88
1589.24
1624.28
1660.97
1699.29
1739.5
1781.56
1825.09
1869.77
1915.11
1960.33
2004.35
2045.7
2082.57
2112.89
2134.49
2145.38
2144.09
2129.93
2103.21
2063.98
2016.95
1965.67
1913.12
1862.37
1817.02
1779.62
1750.85
1730.98
1719.7
1716.19
1719.36
1727.96
1740.82
1756.84
1775.12
1794.95
1815.81
1837.32
1859.18
1881.2
1903.2
1924.99
1946.37
1967.08
1986.78
2005
2021.19
2034.57
2044.82
2052.52
2058
2061.6
2063.66
2064.44
2064.15
2062.81
2060.22
2055.87
2048.99
2038.77
2024.59
2006.34
1984.67
1960.99
1937.28
1915.62
1897.63
1883.91
1873.73
1865.06
1855.11
1841
1820.46
1792.27
1756.31
1713.5
1665.43
1614.15
1561.8
1510.42
1461.78
1417.31
1378.01
1344.38
1316.46
1293.92
1276.12
1262.18
1251.11
1241.86
1233.44
1224.94
1215.61
1204.86
1192.29
1177.64
1160.81
1141.84
1120.82
1097.92
1073.37
1047.4
1020.24
992.156
963.369
934.103
904.562
874.927
845.354
815.973
786.881
758.148
729.818
701.918
674.467
647.485
621.011
595.101
569.837
545.325
521.701
499.145
477.889
458.248
440.647
425.685
414.292
407.55
406.703
413.064
427.776
451.501
484.118
524.746
572.009
624.183
679.277
734.956
788.671
837.907
880.514
914.951
940.343
956.393
963.182
960.741
950.763
934.414
913.439
890.23
867.878
850.161
841.483
846.748
871.065
919.066
993.472
1093.35
1212.12
2379.72
2017.71
1877.15
1708.81
1582.82
1502.69
1451.94
1422.45
1407.82
1403.05
1404.98
1411.86
1422.49
1436
1451.95
1470.12
1490.44
1512.92
1537.58
1564.45
1593.55
1624.85
1658.3
1693.78
1731.08
1769.88
1810.2
1852.01
1894.24
1936.36
1977.7
2017.37
2054.26
2086.97
2113.9
2133.38
2143.78
2143.56
2131.4
2108.62
2075.46
2035.42
1991.17
1945.24
1900.22
1859.07
1823.88
1795.61
1774.71
1761.13
1754.4
1753.75
1758.27
1767
1779.01
1793.49
1809.76
1827.27
1845.56
1864.29
1883.17
1901.94
1920.33
1938.08
1954.88
1970.39
1984.2
1995.82
2004.44
2010.31
2013.61
2014.59
2013.59
2010.96
2007.1
2002.38
1997.1
1991.37
1985.04
1977.68
1968.64
1957.34
1943.48
1927.35
1909.92
1892.73
1877.39
1865.06
1855.73
1848.04
1839.43
1826.83
1807.47
1779.52