/*--------------------------------*- C++ -*----------------------------------*\
| =========                 |                                                 |
| \\      /  F ield         | OpenFOAM: The Open Source CFD Toolbox           |
|  \\    /   O peration     | Version:  2112                                  |
|   \\  /    A nd           | Website:  www.openfoam.com                      |
|    \\/     M anipulation  |                                                 |
\*---------------------------------------------------------------------------*/
FoamFile
{
    version     2.0;
    format      ascii;
    arch        "LSB;label=32;scalar=64";
    class       volVectorField;
    location    "0.38";
    object      U;
}
// * * * * * * * * * * * * * * * * * * * * * * * * * * * * * * * * * * * * * //

dimensions      [0 1 -1 0 0 0 0];

internalField   nonuniform List<vector> 
12225
(
(9.75746 0.0416076 0)
(9.40584 0.0748769 0)
(9.09529 0.0559204 0)
(8.93341 0.0508071 0)
(8.74215 0.055864 0)
(8.46123 0.0500551 0)
(8.17486 0.0367701 0)
(7.93162 0.0342133 0)
(7.70228 0.0500114 0)
(7.44072 0.071828 0)
(7.14692 0.0810787 0)
(6.85797 0.0726424 0)
(6.60251 0.0546103 0)
(6.40604 0.0372285 0)
(6.22398 0.0337549 0)
(6.0668 0.0366756 0)
(5.84818 0.072669 0)
(5.54271 0.102777 0)
(10.045 -0.0293196 0)
(10.0476 0.0837605 0)
(9.98416 0.0488787 0)
(9.94419 0.0254622 0)
(9.94116 0.0505629 0)
(9.94938 0.084472 0)
(9.95373 0.0983267 0)
(9.94934 0.0930918 0)
(9.94314 0.0858329 0)
(9.94226 0.0872644 0)
(9.94287 0.0925304 0)
(9.93775 0.094846 0)
(9.91641 0.0901777 0)
(9.88529 0.0854216 0)
(9.83505 0.0859856 0)
(9.77747 0.0963484 0)
(9.68953 0.139089 0)
(9.57643 0.222597 0)
(9.93136 0.000456163 0)
(10.0028 0.0706619 0)
(10.0582 0.070234 0)
(10.0706 0.0679324 0)
(10.0875 0.0644013 0)
(10.1197 0.0528992 0)
(10.1618 0.0402687 0)
(10.1956 0.0365797 0)
(10.2113 0.0481413 0)
(10.2158 0.0703269 0)
(10.2176 0.0880879 0)
(10.2173 0.0922063 0)
(10.2115 0.0851399 0)
(10.1984 0.0764274 0)
(10.18 0.0778535 0)
(10.1588 0.0974904 0)
(10.1363 0.152734 0)
(10.1247 0.255999 0)
(10.0458 0.0555216 0)
(9.98732 0.0645364 0)
(9.97945 0.0425084 0)
(10.0176 0.0190451 0)
(10.0581 0.0288036 0)
(10.0744 0.0533872 0)
(10.0726 0.0697876 0)
(10.0631 0.0755027 0)
(10.0586 0.0793177 0)
(10.0686 0.0850744 0)
(10.0914 0.0887183 0)
(10.1145 0.0882759 0)
(10.1235 0.0856205 0)
(10.1122 0.0859634 0)
(10.0843 0.0958522 0)
(10.0524 0.12228 0)
(10.0264 0.173825 0)
(10.0325 0.266976 0)
(9.8993 -0.00248026 0)
(9.89876 0.040902 0)
(9.90488 0.054029 0)
(9.95249 0.0545969 0)
(10.0068 0.0531904 0)
(10.0418 0.0524175 0)
(10.0433 0.0515207 0)
(10.0115 0.0497768 0)
(9.97794 0.0519136 0)
(9.97751 0.0614654 0)
(10.016 0.0744444 0)
(10.0753 0.0859775 0)
(10.1314 0.0948067 0)
(10.1697 0.103278 0)
(10.1848 0.114684 0)
(10.1842 0.137036 0)
(10.1775 0.175491 0)
(10.1839 0.244861 0)
(10.0112 0.0677804 0)
(9.8663 0.0701661 0)
(9.84955 0.0303906 0)
(9.97899 -0.0066577 0)
(10.1063 -0.00187118 0)
(10.1603 0.0348786 0)
(10.1532 0.0732981 0)
(10.1136 0.090301 0)
(10.0659 0.0833977 0)
(10.0365 0.0640139 0)
(10.0394 0.045156 0)
(10.0732 0.0354292 0)
(10.1237 0.0385753 0)
(10.1786 0.0554637 0)
(10.2236 0.0839195 0)
(10.256 0.12425 0)
(10.2747 0.174856 0)
(10.2914 0.240962 0)
(9.81025 0.0017578 0)
(9.93026 0.0547426 0)
(10.0309 0.0113942 0)
(10.0799 -0.0225312 0)
(10.0728 -0.00664323 0)
(10.0595 0.035754 0)
(10.0643 0.0738228 0)
(10.0731 0.0912644 0)
(10.0721 0.0894769 0)
(10.0594 0.077503 0)
(10.0459 0.0630983 0)
(10.0449 0.0528796 0)
(10.0637 0.0509292 0)
(10.1015 0.0600917 0)
(10.1499 0.0806556 0)
(10.2024 0.114297 0)
(10.2512 0.159596 0)
(10.3006 0.218117 0)
(9.9113 0.0649847 0)
(10.053 0.012881 0)
(10.1294 -0.0224136 0)
(10.0942 -0.0105243 0)
(10.0422 0.0107447 0)
(10.02 0.0381814 0)
(10.0335 0.0637281 0)
(10.0588 0.0786899 0)
(10.0746 0.0809843 0)
(10.0742 0.0710389 0)
(10.062 0.0507583 0)
(10.0479 0.026836 0)
(10.0433 0.00996423 0)
(10.0507 0.0109597 0)
(10.0654 0.0317077 0)
(10.0872 0.0716891 0)
(10.1135 0.123602 0)
(10.1581 0.185978 0)
(9.79684 0.00858582 0)
(9.88932 -0.0380591 0)
(10.0119 -0.0134533 0)
(10.0933 0.0103993 0)
(10.1129 0.0165427 0)
(10.1171 0.0335631 0)
(10.1312 0.0594843 0)
(10.155 0.0806041 0)
(10.1785 0.0906251 0)
(10.1909 0.088639 0)
(10.1849 0.0771619 0)
(10.1573 0.0624155 0)
(10.1074 0.0515077 0)
(10.0497 0.0511732 0)
(10.0055 0.0624117 0)
(9.98935 0.086139 0)
(10.0071 0.11492 0)
(10.057 0.149399 0)
(10.0074 0.0798564 0)
(9.9703 -0.0600362 0)
(10.0044 -0.104097 0)
(10.0556 -0.0474137 0)
(10.0443 0.0106263 0)
(9.9937 0.036926 0)
(9.95531 0.0453676 0)
(9.94445 0.0491155 0)
(9.95423 0.0546983 0)
(9.9743 0.0625036 0)
(9.99763 0.0693954 0)
(10.0264 0.0741024 0)
(10.0645 0.0761812 0)
(10.113 0.0750458 0)
(10.1659 0.0728711 0)
(10.2197 0.0742124 0)
(10.2721 0.0813186 0)
(10.3213 0.0962823 0)
(9.79914 0.0786951 0)
(9.8228 -0.0567506 0)
(9.79836 -0.061016 0)
(9.79266 -0.00896822 0)
(9.85208 0.0356135 0)
(9.94404 0.0663979 0)
(10.0129 0.0817535 0)
(10.0392 0.0866579 0)
(10.0391 0.0838108 0)
(10.0377 0.0703039 0)
(10.052 0.0454224 0)
(10.0847 0.0156155 0)
(10.127 -0.00947344 0)
(10.1696 -0.0206275 0)
(10.202 -0.015008 0)
(10.228 0.00557935 0)
(10.2434 0.034547 0)
(10.2667 0.0648962 0)
(10.0576 0.0237449 0)
(9.94591 -0.0829391 0)
(9.90778 -0.0862547 0)
(9.90475 -0.0582117 0)
(9.91554 -0.0438373 0)
(9.93171 -0.0263493 0)
(9.95155 0.00239912 0)
(9.98052 0.0332736 0)
(10.0147 0.0516539 0)
(10.0411 0.0526381 0)
(10.0495 0.0423515 0)
(10.0395 0.0312724 0)
(10.0189 0.0254345 0)
(9.99726 0.0275422 0)
(9.98332 0.0347692 0)
(9.98244 0.0469895 0)
(9.99518 0.0582184 0)
(10.0241 0.0683932 0)
(9.9985 0.0690786 0)
(9.89322 -0.0159445 0)
(9.93156 -0.0496626 0)
(9.96505 -0.0209531 0)
(9.95181 0.0219697 0)
(9.91655 0.046131 0)
(9.89634 0.0545788 0)
(9.90494 0.0573101 0)
(9.93332 0.0582623 0)
(9.96602 0.0554766 0)
(9.99356 0.0468294 0)
(10.0146 0.032457 0)
(10.0304 0.014855 0)
(10.0433 -0.00017889 0)
(10.0571 -0.00877661 0)
(10.0736 -0.00857562 0)
(10.0978 -0.00350554 0)
(10.1277 0.00340164 0)
(9.99168 0.0286673 0)
(10.0249 -0.112199 0)
(10.0135 -0.136507 0)
(9.93415 -0.0704873 0)
(9.88616 -0.0165297 0)
(9.9032 0.00298024 0)
(9.95813 0.00295849 0)
(10.012 0.0022644 0)
(10.0386 0.00398993 0)
(10.0346 0.00475846 0)
(10.0131 0.00455771 0)
(9.99236 0.00511048 0)
(9.98406 0.00790404 0)
(9.99223 0.0131878 0)
(10.0142 0.0192335 0)
(10.0466 0.0232328 0)
(10.0852 0.02171 0)
(10.1301 0.0139754 0)
(10.0745 -0.0410043 0)
(10.0264 -0.0400484 0)
(9.94202 0.0280335 0)
(9.89796 0.0682058 0)
(9.91776 0.0451607 0)
(9.95496 -0.00318269 0)
(9.97445 -0.0221068 0)
(9.9683 0.00602477 0)
(9.94344 0.0569946 0)
(9.92005 0.0940832 0)
(9.91291 0.0967759 0)
(9.92295 0.0658665 0)
(9.9431 0.0155036 0)
(9.96774 -0.0359376 0)
(9.99282 -0.0751999 0)
(10.0185 -0.0973387 0)
(10.044 -0.107586 0)
(10.0737 -0.110789 0)
(10.0535 -0.0405818 0)
(9.97635 -0.00651235 0)
(9.96852 -0.0722443 0)
(9.98472 -0.0762635 0)
(9.99877 -0.0635796 0)
(9.96838 -0.039891 0)
(9.91001 -0.00204627 0)
(9.86829 0.0301462 0)
(9.87965 0.0349096 0)
(9.94688 0.0120101 0)
(10.0441 -0.0207965 0)
(10.1345 -0.043362 0)
(10.1916 -0.0464784 0)
(10.2076 -0.0346013 0)
(10.1922 -0.0199631 0)
(10.1614 -0.0133724 0)
(10.1303 -0.0213391 0)
(10.1092 -0.0451249 0)
(9.9873 -0.0346928 0)
(10.0071 0.0346153 0)
(10.0661 0.00815278 0)
(10.1155 0.0334227 0)
(10.1162 0.0848011 0)
(10.1014 0.109595 0)
(10.0891 0.0911665 0)
(10.0906 0.0365786 0)
(10.1004 -0.0345951 0)
(10.1066 -0.0941653 0)
(10.1028 -0.120748 0)
(10.0914 -0.110338 0)
(10.0786 -0.0758198 0)
(10.0697 -0.0383699 0)
(10.0671 -0.0170954 0)
(10.0712 -0.0188367 0)
(10.0806 -0.0427881 0)
(10.0942 -0.0780135 0)
(9.69836 -0.0418407 0)
(9.7469 -0.137762 0)
(9.78226 -0.154698 0)
(9.84434 -0.127569 0)
(9.90346 -0.0842076 0)
(9.94279 -0.0484345 0)
(9.97676 -0.0204627 0)
(10.0015 0.00408947 0)
(10.0008 0.0221335 0)
(9.96951 0.0268639 0)
(9.921 0.0193605 0)
(9.8759 0.00683718 0)
(9.84953 -0.00485461 0)
(9.84782 -0.0136559 0)
(9.86549 -0.0235581 0)
(9.89347 -0.0379485 0)
(9.92276 -0.0610767 0)
(9.94649 -0.0935097 0)
(10.0586 -0.0387565 0)
(9.97979 -0.155883 0)
(9.98245 -0.176264 0)
(10.0059 -0.114146 0)
(9.99997 -0.0322033 0)
(9.98282 0.0147592 0)
(9.96449 0.0227078 0)
(9.94826 0.0195722 0)
(9.93631 0.0269293 0)
(9.93245 0.0395985 0)
(9.93974 0.0394534 0)
(9.95715 0.0153585 0)
(9.98079 -0.0283247 0)
(10.0065 -0.0790965 0)
(10.032 -0.124111 0)
(10.0531 -0.158223 0)
(10.0694 -0.178998 0)
(10.0757 -0.190951 0)
(10.1335 0.0847597 0)
(10.1132 -0.074548 0)
(10.0766 -0.114822 0)
(10.0756 -0.0889685 0)
(10.1476 -0.0450232 0)
(10.2364 -0.00224231 0)
(10.2838 0.0303655 0)
(10.2827 0.0453211 0)
(10.2561 0.0370873 0)
(10.2259 0.00779692 0)
(10.206 -0.0337749 0)
(10.1989 -0.0756007 0)
(10.1972 -0.107942 0)
(10.1909 -0.126323 0)
(10.1778 -0.131542 0)
(10.1597 -0.127248 0)
(10.1398 -0.117698 0)
(10.1236 -0.105595 0)
(10.0163 0.146207 0)
(10.0932 -0.0779973 0)
(10.099 -0.173782 0)
(10.0296 -0.223273 0)
(9.94481 -0.218877 0)
(9.89781 -0.140172 0)
(9.89228 -0.0198246 0)
(9.92087 0.0823039 0)
(9.96962 0.12772 0)
(10.0207 0.11625 0)
(10.0577 0.0694645 0)
(10.0723 0.0146246 0)
(10.0671 -0.0297195 0)
(10.0518 -0.0574796 0)
(10.0336 -0.0735196 0)
(10.0185 -0.0856669 0)
(10.0093 -0.101619 0)
(10.0078 -0.124131 0)
(9.97118 -0.0924683 0)
(10.0348 -0.0689923 0)
(10.0226 -0.0145104 0)
(9.93282 0.0194713 0)
(9.84032 0.0364227 0)
(9.7914 0.0245149 0)
(9.79873 -0.0129543 0)
(9.86427 -0.0559534 0)
(9.97028 -0.085724 0)
(10.0791 -0.0967441 0)
(10.1572 -0.0931998 0)
(10.1935 -0.0828638 0)
(10.1941 -0.0725302 0)
(10.1741 -0.0676103 0)
(10.1483 -0.0703524 0)
(10.1251 -0.0796673 0)
(10.106 -0.093086 0)
(10.0878 -0.106013 0)
(10.005 -0.069635 0)
(9.91621 -0.069508 0)
(9.88896 -0.0667445 0)
(9.90403 -0.0555976 0)
(9.98309 -0.0450454 0)
(10.0645 -0.0533246 0)
(10.0859 -0.0793859 0)
(10.0469 -0.106023 0)
(9.98287 -0.115536 0)
(9.9277 -0.102162 0)
(9.89954 -0.0705704 0)
(9.90057 -0.0346054 0)
(9.92189 -0.00907764 0)
(9.95133 -0.0014566 0)
(9.9773 -0.0106558 0)
(9.99232 -0.0301865 0)
(9.99359 -0.051927 0)
(9.98242 -0.0701384 0)
(10.0777 0.0497282 0)
(10.0703 0.0666112 0)
(9.99573 -0.0158129 0)
(9.97331 -0.0981759 0)
(10.0288 -0.100564 0)
(10.0812 -0.0574626 0)
(10.0701 -0.0116623 0)
(10.0063 0.0132342 0)
(9.93223 0.00569218 0)
(9.88022 -0.0280072 0)
(9.86101 -0.0701607 0)
(9.87122 -0.103749 0)
(9.90038 -0.120247 0)
(9.93684 -0.119709 0)
(9.97048 -0.106771 0)
(9.99424 -0.0884473 0)
(10.0057 -0.0703244 0)
(10.0061 -0.0578162 0)
(10.063 -0.11696 0)
(9.95748 0.0359265 0)
(9.97053 0.0342296 0)
(9.98867 -0.0880892 0)
(9.97188 -0.129867 0)
(9.96233 -0.0802731 0)
(9.97304 -0.0132802 0)
(9.99354 0.0157478 0)
(10.0128 0.0016783 0)
(10.0207 -0.0308669 0)
(10.011 -0.0602634 0)
(9.98746 -0.0788281 0)
(9.9613 -0.0873501 0)
(9.94363 -0.0887164 0)
(9.93991 -0.0850686 0)
(9.94811 -0.078671 0)
(9.96347 -0.0715141 0)
(9.97645 -0.067043 0)
(10.1053 0.0483054 0)
(10.0228 0.0825404 0)
(10.0512 -0.0315398 0)
(10.0197 -0.0975728 0)
(9.95648 -0.088387 0)
(9.95282 -0.0538009 0)
(10.0261 -0.0248007 0)
(10.1201 -0.0124908 0)
(10.1847 -0.0154417 0)
(10.2033 -0.0264834 0)
(10.1844 -0.0410444 0)
(10.1451 -0.0580525 0)
(10.1023 -0.0763525 0)
(10.0683 -0.0930875 0)
(10.0474 -0.102936 0)
(10.0374 -0.103344 0)
(10.0336 -0.0924944 0)
(10.0303 -0.0732286 0)
(9.84817 -0.0268915 0)
(10.0929 0.0707529 0)
(10.2374 0.0472793 0)
(10.243 -0.0356659 0)
(10.2058 -0.10368 0)
(10.1825 -0.123555 0)
(10.169 -0.106916 0)
(10.1507 -0.0781603 0)
(10.1313 -0.0516267 0)
(10.1182 -0.0318991 0)
(10.1103 -0.0220018 0)
(10.1016 -0.0239915 0)
(10.0868 -0.0367339 0)
(10.0635 -0.05445 0)
(10.033 -0.0690804 0)
(10.0002 -0.076082 0)
(9.96882 -0.0736254 0)
(9.9438 -0.0653657 0)
(9.77269 -0.0341988 0)
(9.78005 -0.0688863 0)
(9.94347 -0.080851 0)
(10.0635 -0.0803015 0)
(10.0561 -0.0660235 0)
(10.0018 -0.0396087 0)
(9.98202 -0.0140971 0)
(10.0021 -0.00184216 0)
(10.04 -0.00391289 0)
(10.0788 -0.0146603 0)
(10.1093 -0.0277168 0)
(10.1263 -0.0384936 0)
(10.1286 -0.0461321 0)
(10.1182 -0.051258 0)
(10.1006 -0.0531345 0)
(10.0823 -0.0509261 0)
(10.0679 -0.043103 0)
(10.0611 -0.0346316 0)
(10.0992 0.0424254 0)
(10.1668 -0.000144152 0)
(10.1909 -0.0524178 0)
(10.1245 -0.0734953 0)
(10.0277 -0.079517 0)
(9.98855 -0.0867984 0)
(10.0218 -0.0941197 0)
(10.0849 -0.092745 0)
(10.1343 -0.0799636 0)
(10.1429 -0.0615299 0)
(10.1064 -0.0447845 0)
(10.0471 -0.0340249 0)
(9.99606 -0.0315064 0)
(9.97234 -0.0369621 0)
(9.97813 -0.0468455 0)
(10.0046 -0.0565184 0)
(10.0408 -0.0625134 0)
(10.0771 -0.0670395 0)
(9.92147 -0.0207068 0)
(9.79548 -0.0815604 0)
(9.60674 -0.0648992 0)
(9.42948 -0.0355591 0)
(9.26326 -0.0270322 0)
(9.0847 -0.0411946 0)
(8.87329 -0.0585213 0)
(8.64604 -0.0593037 0)
(8.45626 -0.0395971 0)
(8.33791 -0.0115728 0)
(8.28216 0.0077645 0)
(8.25709 0.00779016 0)
(8.22486 -0.0115689 0)
(8.15758 -0.0406587 0)
(8.04768 -0.0661415 0)
(7.90845 -0.0789457 0)
(7.76106 -0.0762869 0)
(7.62647 -0.0654105 0)
(-0.294379 0.560941 6.53557e-20)
(-0.747194 0.336861 -6.47586e-20)
(-1.04657 0.160374 0)
(-1.12119 -0.0626624 0)
(-0.916595 -0.36577 0)
(-0.540068 -0.533663 6.29886e-20)
(-0.0331177 -0.60826 0)
(0.521395 -0.629105 0)
(1.06642 -0.602442 0)
(1.58634 -0.54849 0)
(2.05927 -0.481795 -6.03362e-20)
(2.47686 -0.414053 0)
(2.83975 -0.350129 0)
(3.15083 -0.291948 0)
(3.4144 -0.2398 0)
(3.63337 -0.19051 -5.72732e-20)
(3.80989 -0.14595 0)
(3.94727 -0.102634 0)
(4.04441 -0.0602 0)
(4.10536 -0.0224824 0)
(4.1298 0.0215923 0)
(4.11648 0.0545956 0)
(4.0699 0.0966181 0)
(3.97561 0.135103 -5.3492e-20)
(3.86577 0.160935 5.31189e-20)
(3.69877 0.228703 -5.2761e-20)
(3.50736 0.231272 -5.24151e-20)
(3.29827 0.322201 0)
(2.96318 0.404268 0)
(2.69344 0.358362 5.14123e-20)
(2.27293 0.747638 5.10736e-20)
(1.55373 0.822787 0)
(1.04546 0.105083 0)
(0.745418 -0.326399 4.99098e-20)
(0.498986 -0.239981 0)
(0.38414 -0.118298 0)
(0.442896 -0.107078 -4.86295e-20)
(0.613968 -0.122397 0)
(0.83814 -0.149559 -4.77657e-20)
(1.09888 -0.191375 -9.47122e-20)
(1.37155 -0.210449 0)
(1.62782 -0.21635 0)
(1.81229 -0.178317 0)
(1.70413 0.15283 0)
(1.2485 0.567598 0)
(1.02897 0.425262 -8.99283e-20)
(1.24577 -0.246888 -8.91708e-20)
(1.52519 -0.989647 -8.8406e-20)
(1.70053 -1.07909 0)
(1.48893 -0.177362 8.66294e-20)
(0.578859 0.690555 0)
(-0.534696 0.853365 -8.51985e-20)
(-1.58007 0.828487 -8.39288e-20)
(-2.56149 0.771849 0)
(-3.45829 0.698797 0)
(-4.26082 0.617175 0)
(-4.96929 0.534824 -7.78064e-20)
(-5.58649 0.456762 0)
(-6.12044 0.387021 0)
(-6.58072 0.32728 0)
(-6.97836 0.277913 0)
(-7.32414 0.238396 0)
(-7.62826 0.207564 0)
(-7.89938 0.183842 0)
(-8.14453 0.165654 0)
(-8.36909 0.15162 6.54349e-20)
(-8.57707 0.140554 0)
(-8.77119 0.131354 0)
(-8.95302 0.123033 -6.22364e-20)
(-9.12316 0.11483 -6.1275e-20)
(-9.28132 0.106118 0)
(-9.42621 0.0961848 5.95191e-20)
(-9.55544 0.0843264 -5.87291e-20)
(-9.66561 0.0700852 0)
(-9.75242 0.0533568 5.73386e-20)
(-9.81086 0.0344909 0)
(-9.83624 0.0143402 0)
(-9.82378 -0.00601699 -5.57592e-20)
(-9.77341 -0.0262836 0)
(-9.68228 -0.0460576 5.50569e-20)
(-9.55016 -0.0646987 0)
(-9.37775 -0.0818778 -5.46298e-20)
(-9.16698 -0.0975864 -5.4509e-20)
(-8.92043 -0.112224 -5.44415e-20)
(-8.64095 -0.126595 -1.08839e-19)
(-8.33128 -0.141789 1.08868e-19)
(-7.99378 -0.158811 0)
(-7.62984 -0.178043 0)
(-7.2394 -0.198831 0)
(-6.82171 -0.219559 1.09332e-19)
(-6.37754 -0.238019 1.09445e-19)
(-5.91082 -0.251867 -1.09519e-19)
(-5.42783 -0.259454 0)
(-4.93553 -0.260821 1.0948e-19)
(-4.44193 -0.257647 1.09339e-19)
(-3.95716 -0.251865 1.09104e-19)
(-3.48972 -0.245169 0)
(-3.03927 -0.239867 0)
(-2.59504 -0.238041 0)
(-2.14211 -0.240592 1.0719e-19)
(-1.67727 -0.246368 0)
(-1.20587 -0.249202 0)
(-0.714085 -0.258333 -1.04927e-19)
(-0.192845 -0.27802 0)
(0.414688 -0.325224 0)
(1.15363 -0.37547 -1.01946e-19)
(2.0059 -0.398147 0)
(2.83403 -0.4645 0)
(3.68028 -0.464155 9.75994e-20)
(4.4072 -0.000450988 9.60525e-20)
(4.0713 0.561319 0)
(2.96811 0.476241 -9.36646e-20)
(2.27999 0.0354775 0)
(2.21727 -0.209962 9.14196e-20)
(2.45763 -0.204641 0)
(2.60743 -0.088877 8.90538e-20)
(2.4444 0.0314856 8.78069e-20)
(2.02695 0.132744 0)
(1.47263 0.208276 0)
(0.848166 0.254567 0)
(0.175025 0.281652 0)
(-0.537616 0.2957 0)
(-1.28043 0.306546 0)
(-2.05184 0.317457 0)
(-2.8501 0.325952 7.47299e-20)
(-3.66858 0.329421 -7.2525e-20)
(-4.49494 0.325993 0)
(-5.31157 0.314262 0)
(-6.09642 0.293574 0)
(-6.82498 0.26414 0)
(-7.47249 0.226739 -1.21817e-19)
(-8.01569 0.182434 0)
(-8.43405 0.132722 1.14532e-19)
(-8.71075 0.0799051 -1.1194e-19)
(-8.83466 0.0260407 0)
(-8.79509 -0.0277538 0)
(-8.60102 -0.0790804 0)
(-8.24889 -0.129092 1.10057e-19)
(-7.74307 -0.176355 1.11529e-19)
(-7.09172 -0.219351 0)
(-6.30805 -0.256533 1.15816e-19)
(-5.41084 -0.286213 1.18192e-19)
(-4.42465 -0.306652 -1.20409e-19)
(-3.37907 -0.316335 0)
(-2.30686 -0.314197 0)
(-1.24232 -0.300039 -1.24176e-19)
(-0.231294 -0.275271 0)
(0.688947 -0.244646 0)
(1.50263 -0.208072 0)
(2.19773 -0.170951 0)
(2.77398 -0.136614 1.17407e-19)
(3.24187 -0.107288 1.15029e-19)
(3.6184 -0.084123 0)
(3.92377 -0.0673229 1.10166e-19)
(4.17847 -0.0560597 0)
(4.40089 -0.0490562 0)
(4.60659 -0.0465701 1.03185e-19)
(4.81118 -0.04885 0)
(5.02732 -0.0520857 9.8833e-20)
(5.25799 -0.053782 0)
(5.50351 -0.0571562 0)
(5.76688 -0.0621804 9.25652e-20)
(6.04445 -0.0635847 0)
(6.32326 -0.0591237 8.83834e-20)
(6.58673 -0.0546723 0)
(6.83192 -0.0506233 0)
(7.05053 -0.0347952 0)
(7.21187 -0.024187 -7.98675e-20)
(7.34421 -0.0177899 0)
(7.4172 0.0257256 7.58908e-20)
(7.36336 0.0444285 0)
(7.31037 0.0329659 0)
(7.19417 0.0740222 0)
(6.94664 0.0488132 0)
(6.88926 0.057809 0)
(6.56605 0.184977 0)
(6.0099 0.0509688 0)
(6.14207 0.151746 -1.27649e-19)
(5.07846 0.675341 0)
(2.28229 0.453562 0)
(0.0135507 1.44385 -1.96006e-19)
(-0.0139755 1.09964 1.94549e-19)
(-0.165367 0.637322 0)
(-0.120728 -0.141761 -1.27727e-19)
(0.128603 -0.904776 0)
(0.553884 -1.43124 -6.29017e-20)
(1.0069 -1.68461 1.24541e-19)
(1.44993 -1.72822 1.23445e-19)
(1.86802 -1.64295 0)
(2.25249 -1.49322 1.21179e-19)
(2.59741 -1.32063 6.01735e-20)
(2.90439 -1.14807 0)
(3.17652 -0.985948 0)
(3.41703 -0.836903 0)
(3.62708 -0.700646 0)
(3.80727 -0.574111 5.72195e-20)
(3.95675 -0.456287 0)
(4.07509 -0.345167 -1.12083e-19)
(4.1614 -0.238499 0)
(4.21605 -0.139039 0)
(4.23781 -0.0406284 1.09266e-19)
(4.22853 0.0495067 0)
(4.19693 0.136913 -1.07572e-19)
(4.13936 0.222785 5.34588e-20)
(4.06352 0.292111 -5.30766e-20)
(3.97092 0.382485 5.27058e-20)
(3.86225 0.446826 5.23458e-20)
(3.75852 0.532438 0)
(3.62132 0.662673 0)
(3.52811 0.72016 -5.12711e-20)
(3.394 0.931315 5.07691e-20)
(3.2467 1.14076 0)
(3.24745 1.16512 0)
(2.9139 1.14978 -4.96202e-20)
(2.31003 0.886127 0)
(1.9125 0.266082 0)
(1.64794 -0.306031 4.84845e-20)
(1.44785 -0.565955 0)
(1.44981 -0.649643 -4.76283e-20)
(1.68653 -0.656273 9.45098e-20)
(2.04151 -0.578257 0)
(2.31336 -0.384435 0)
(2.45124 0.0642636 1.83884e-19)
(2.51996 0.639073 1.82275e-19)
(2.58753 0.644843 1.80862e-19)
(2.72179 -0.301877 -8.99421e-20)
(2.41377 -0.695813 8.91013e-20)
(1.13625 0.358648 2.65708e-19)
(-0.550879 1.39231 -1.75313e-19)
(-1.80998 1.88896 -8.65566e-20)
(-2.84275 2.10497 0)
(-3.69565 2.06799 8.45065e-20)
(-4.43966 1.93913 -8.21903e-20)
(-5.08996 1.76306 0)
(-5.66407 1.57107 0)
(-6.16372 1.37854 0)
(-6.602 1.19629 7.74717e-20)
(-6.98509 1.03083 0)
(-7.32307 0.885424 -1.48312e-19)
(-7.6232 0.761244 0)
(-7.89313 0.657888 -1.42783e-19)
(-8.1385 0.573816 0)
(-8.36388 0.506486 1.37577e-19)
(-8.57232 0.452881 0)
(-8.76588 0.409997 -1.32716e-19)
(-8.94555 0.375118 6.50734e-20)
(-9.11165 0.345871 0)
(-9.26406 0.320238 1.26108e-19)
(-9.40245 0.296541 6.2173e-20)
(-9.52626 0.273302 6.12197e-20)
(-9.63467 0.249049 0)
(-9.72665 0.222183 5.92342e-20)
(-9.80083 0.191078 5.86984e-20)
(-9.85546 0.154269 0)
(-9.88856 0.110643 -5.73242e-20)
(-9.89809 0.0598252 1.13221e-19)
(-9.88203 0.00278473 0)
(-9.83816 -0.0595838 5.57557e-20)
(-9.75969 -0.125598 0)
(-9.64442 -0.193407 -1.64909e-19)
(-9.48957 -0.260749 0)
(-9.2937 -0.325389 1.63628e-19)
(-9.05623 -0.38531 5.44995e-20)
(-8.77762 -0.43899 -5.42131e-20)
(-8.4594 -0.485683 -1.08405e-19)
(-8.10432 -0.525622 1.08461e-19)
(-7.71626 -0.559898 0)
(-7.29975 -0.589994 0)
(-6.85916 -0.617303 0)
(-6.39827 -0.64285 -3.2771e-19)
(-5.92061 -0.666782 -1.09447e-19)
(-5.43008 -0.687361 1.09523e-19)
(-4.9308 -0.700627 0)
(-4.42588 -0.702241 1.09306e-19)
(-3.91804 -0.690613 -1.09349e-19)
(-3.41379 -0.668057 -1.09118e-19)
(-2.92461 -0.639982 0)
(-2.45871 -0.616159 0)
(-2.01379 -0.607701 0)
(-1.58204 -0.616496 -1.07214e-19)
(-1.16165 -0.638019 0)
(-0.749611 -0.661047 2.11361e-19)
(-0.342545 -0.688364 3.1456e-19)
(0.0683616 -0.749519 -2.07703e-19)
(0.543561 -0.893202 0)
(1.14943 -1.08668 -1.014e-19)
(1.93752 -1.16136 0)
(2.79851 -1.06068 -1.97837e-19)
(3.43161 -0.832122 9.70971e-20)
(3.96602 -0.285387 9.55917e-20)
(4.31145 0.515514 0)
(4.02312 0.952929 2.80108e-19)
(3.46352 0.665647 -1.84685e-19)
(3.06595 0.0628753 -9.13123e-20)
(2.79504 -0.132721 0)
(2.38818 0.115808 -8.9025e-20)
(1.70886 0.451069 -2.6339e-19)
(0.888282 0.668017 0)
(0.0770408 0.763978 -1.70361e-19)
(-0.683116 0.802161 -1.67328e-19)
(-1.38955 0.816829 -1.64066e-19)
(-2.05336 0.821977 0)
(-2.69776 0.829108 0)
(-3.34164 0.840298 0)
(-3.99513 0.851144 7.4344e-20)
(-4.65996 0.855094 7.23791e-20)
(-5.33077 0.845572 0)
(-5.99558 0.817456 1.35109e-19)
(-6.637 0.767414 1.303e-19)
(-7.23466 0.694133 0)
(-7.76712 0.598114 1.21709e-19)
(-8.21358 0.481237 2.34447e-19)
(-8.55578 0.346761 -1.14483e-19)
(-8.77878 0.199123 -1.10698e-19)
(-8.87059 0.0433124 0)
(-8.82293 -0.114507 0)
(-8.6145 -0.271244 0)
(-8.24727 -0.424302 -1.10012e-19)
(-7.723 -0.569476 1.10426e-19)
(-7.04937 -0.702228 2.25913e-19)
(-6.23917 -0.817795 -1.15726e-19)
(-5.3108 -0.911075 1.17314e-19)
(-4.28869 -0.976815 1.20303e-19)
(-3.20278 -1.01035 0)
(-2.08658 -1.008 0)
(-0.974587 -0.969206 -1.23788e-19)
(0.0839886 -0.895915 0)
(1.05261 -0.800666 0)
(1.91485 -0.687993 2.42825e-19)
(2.65419 -0.572558 0)
(3.26989 -0.46524 1.172e-19)
(3.77199 -0.373193 -1.14929e-19)
(4.17714 -0.299816 0)
(4.50511 -0.245583 1.0998e-19)
(4.77612 -0.209074 0)
(5.00955 -0.187953 0)
(5.22414 -0.179795 -1.03113e-19)
(5.43524 -0.182147 2.01754e-19)
(5.65319 -0.191432 -9.87622e-20)
(5.88865 -0.203419 0)
(6.14838 -0.215611 0)
(6.42944 -0.225577 9.24596e-20)
(6.72377 -0.229199 0)
(7.02201 -0.223291 8.82864e-20)
(7.3181 -0.207327 0)
(7.58763 -0.184943 0)
(7.81533 -0.155385 0)
(8.01957 -0.117929 7.98085e-20)
(8.14806 -0.0823628 0)
(8.22595 -0.0372159 -7.58395e-20)
(8.31132 0.00967534 0)
(8.29085 0.0378524 0)
(8.27367 0.088658 1.41168e-19)
(8.17126 0.110177 -1.38043e-19)
(7.99897 0.0957286 0)
(7.98822 0.192944 0)
(7.78302 0.225856 0)
(7.62435 0.255444 3.8141e-19)
(7.6473 0.847 0)
(6.63487 1.10703 -2.4133e-19)
(0.196861 0.78089 -2.18891e-22)
(0.329866 0.8877 -2.59309e-19)
(0.486403 0.519495 0)
(0.906706 -0.512115 2.54791e-19)
(1.36712 -1.51235 0)
(1.74021 -2.14074 0)
(2.03084 -2.38163 -1.84607e-22)
(2.26608 -2.35078 -1.23023e-19)
(2.47992 -2.17745 -1.21645e-19)
(2.6881 -1.95152 -1.20912e-19)
(2.89522 -1.72114 0)
(3.10242 -1.50499 0)
(3.30782 -1.306 1.1713e-19)
(3.50608 -1.1207 2.31984e-19)
(3.69016 -0.945178 -2.29745e-19)
(3.85327 -0.775337 0)
(3.99034 -0.609436 -2.25453e-19)
(4.09732 -0.447213 1.12045e-19)
(4.17105 -0.287654 0)
(4.21061 -0.134349 -2.19711e-19)
(4.21425 0.0148687 -1.0927e-19)
(4.18384 0.155699 2.16303e-19)
(4.12148 0.286126 1.07571e-19)
(4.02935 0.408522 0)
(3.91538 0.504458 -2.11756e-19)
(3.78161 0.60183 -2.10365e-19)
(3.64382 0.670095 0)
(3.51044 0.735042 -2.07639e-19)
(3.39006 0.829277 0)
(3.32299 0.86867 -2.04818e-19)
(3.26668 0.997787 -1.01664e-19)
(3.27128 1.12182 0)
(3.34434 1.14192 0)
(3.33563 1.19355 0)
(3.2862 1.1522 0)
(3.24416 0.965193 0)
(3.06937 0.66865 0)
(2.74747 0.207267 -1.92073e-19)
(2.5923 -0.511275 2.85318e-19)
(2.68228 -1.22153 0)
(2.89762 -1.30551 0)
(3.11104 -0.913457 0)
(3.07716 -0.539529 -6.64678e-22)
(2.8414 -0.207995 -1.82147e-19)
(2.4432 0.191354 -3.61314e-19)
(1.224 1.09949 3.59513e-19)
(-0.539642 2.17562 1.77984e-19)
(-1.99033 2.82086 -1.76402e-19)
(-3.06323 3.05837 8.86058e-22)
(-3.82017 3.13088 -1.7085e-19)
(-4.41815 3.07407 0)
(-4.88389 2.90726 -1.66079e-19)
(-5.29422 2.67502 1.40683e-21)
(-5.66224 2.41576 0)
(-6.01319 2.15253 0)
(-6.3474 1.90022 1.55658e-19)
(-6.66818 1.66648 0)
(-6.97235 1.45626 0)
(-7.25912 1.27195 -1.46614e-19)
(-7.52783 1.11429 -2.89487e-19)
(-7.77972 0.982316 1.42745e-19)
(-8.01663 0.873439 0)
(-8.24056 0.78399 -1.37553e-19)
(-8.45289 0.709824 0)
(-8.65418 0.646928 -1.31828e-19)
(-8.84436 0.591761 -1.30402e-19)
(-9.02288 0.54144 2.55602e-19)
(-9.18891 0.493786 1.25313e-19)
(-9.34157 0.447132 0)
(-9.47983 0.400026 -2.43591e-19)
(-9.6023 0.351029 0)
(-9.70718 0.298709 -3.55324e-19)
(-9.79226 0.241661 -2.33486e-19)
(-9.8551 0.178504 -2.30598e-19)
(-9.89299 0.108256 2.27973e-19)
(-9.90265 0.0303293 -3.38846e-19)
(-9.88228 -0.0565282 0)
(-9.82983 -0.149779 0)
(-9.74229 -0.248507 2.2011e-19)
(-9.61765 -0.35098 3.28678e-19)
(-9.45384 -0.455311 0)
(-9.24944 -0.559357 -1.08974e-19)
(-9.00388 -0.660882 0)
(-8.71773 -0.757737 3.25044e-19)
(-8.3928 -0.848136 7.23818e-22)
(-8.03207 -0.930914 -6.86678e-22)
(-7.6393 -1.0055 -2.16748e-19)
(-7.21856 -1.07156 0)
(-6.77389 -1.12861 2.17398e-19)
(-6.30918 -1.17608 5.07809e-22)
(-5.82818 -1.21346 0)
(-5.33435 -1.24016 0)
(-4.8305 -1.25462 0)
(-4.31815 -1.25392 -2.18656e-19)
(-3.79697 -1.23523 0)
(-3.26517 -1.19822 0)
(-2.72366 -1.14527 0)
(-2.18012 -1.08374 0)
(-1.64524 -1.02873 0)
(-1.12655 -0.993833 -2.14177e-19)
(-0.633321 -0.978421 0)
(-0.16089 -0.977805 -2.11386e-19)
(0.271824 -0.981452 -2.09543e-19)
(0.636358 -1.04774 2.07466e-19)
(0.978907 -1.27141 0)
(1.40686 -1.63497 2.02999e-19)
(1.99143 -1.88819 0)
(2.71889 -1.78614 1.97643e-19)
(3.37882 -1.36169 -1.94534e-19)
(3.7567 -0.597992 -5.73746e-19)
(3.89876 0.514039 0)
(3.65551 1.22724 -5.59159e-19)
(3.27588 0.914995 -1.84373e-19)
(2.9518 0.321046 0)
(2.40338 0.339404 -3.61058e-19)
(1.58526 0.791002 -3.56243e-19)
(0.699326 1.17377 5.26931e-19)
(-0.0637072 1.32747 0)
(-0.684891 1.3387 1.70264e-19)
(-1.20871 1.30195 1.67174e-19)
(-1.68238 1.26433 4.91167e-19)
(-2.14666 1.24787 0)
(-2.63223 1.25467 0)
(-3.15934 1.27804 0)
(-3.73895 1.3071 1.48234e-19)
(-4.37178 1.32847 0)
(-5.04748 1.32893 0)
(-5.74643 1.29813 -1.35034e-19)
(-6.44302 1.22959 -1.30225e-19)
(-7.10821 1.12081 0)
(-7.71216 0.972465 0)
(-8.22664 0.787722 -2.34322e-19)
(-8.62716 0.571946 0)
(-8.89392 0.331753 2.2254e-19)
(-9.01185 0.0752352 2.17082e-19)
(-8.97216 -0.185667 0)
(-8.76976 -0.449607 0)
(-8.40297 -0.708054 -2.16892e-19)
(-7.8742 -0.953858 -1.79583e-21)
(-7.19041 -1.17923 -1.678e-21)
(-6.36349 -1.37619 0)
(-5.41105 -1.53619 -4.68906e-19)
(-4.35747 -1.65039 0)
(-3.23379 -1.71095 0)
(-2.0762 -1.71102 0)
(-0.922132 -1.65049 2.47602e-19)
(0.174287 -1.53164 0)
(1.17661 -1.36898 -4.90708e-19)
(2.07019 -1.17809 -2.4259e-19)
(2.83828 -0.981133 0)
(3.48159 -0.796795 -2.34318e-19)
(4.01042 -0.637328 0)
(4.44079 -0.508466 0)
(4.79071 -0.4113 -6.59451e-19)
(5.07816 -0.343921 4.30044e-19)
(5.32081 -0.303016 0)
(5.53506 -0.285685 4.11834e-19)
(5.73618 -0.288307 -2.01659e-19)
(5.93985 -0.30414 0)
(6.16031 -0.326155 0)
(6.40567 -0.350801 0)
(6.67725 -0.372362 -5.54481e-19)
(6.9736 -0.380623 0)
(7.28532 -0.373147 -1.76511e-19)
(7.59474 -0.350066 0)
(7.88613 -0.308123 0)
(8.1346 -0.25514 0)
(8.32738 -0.191281 0)
(8.46943 -0.122113 0)
(8.54645 -0.056718 0)
(8.59222 0.0179775 -2.95461e-19)
(8.5561 0.058769 0)
(8.47669 0.121442 -1.41133e-19)
(8.35995 0.190444 4.13788e-19)
(8.20239 0.155239 0)
(8.05956 0.235509 0)
(8.048 0.322534 -2.58551e-19)
(7.84232 0.273263 -2.53892e-19)
(7.90539 0.876158 2.47806e-19)
(7.85548 1.21897 2.41068e-19)
(0.00144035 0.310756 3.93067e-19)
(0.180242 0.360506 3.89929e-19)
(0.786341 -0.666973 2.57588e-19)
(1.42443 -1.81134 1.27462e-19)
(1.90353 -2.56228 0)
(2.19946 -2.85168 -2.49206e-19)
(2.37352 -2.82333 1.2324e-19)
(2.51304 -2.64875 0)
(2.67257 -2.44091 1.21495e-19)
(2.86733 -2.24564 0)
(3.09036 -2.06693 -2.37591e-19)
(3.32789 -1.89396 0)
(3.56596 -1.71625 -1.16927e-19)
(3.79228 -1.52766 -2.31564e-19)
(3.99743 -1.32645 2.29325e-19)
(4.17449 -1.11345 0)
(4.3191 -0.89113 2.2508e-19)
(4.42833 -0.663469 0)
(4.50036 -0.433483 0)
(4.53522 -0.206654 2.19457e-19)
(4.53171 0.0148532 0)
(4.49115 0.225157 -8.05476e-22)
(4.40961 0.419633 0)
(4.28639 0.597438 0)
(4.1293 0.743242 4.99001e-22)
(3.93827 0.866088 2.1021e-19)
(3.73555 0.946841 2.08623e-19)
(3.51988 0.995282 2.07569e-19)
(3.31901 1.0267 0)
(3.14751 1.01723 4.09796e-19)
(3.01336 1.01658 0)
(2.95643 1.05938 2.02149e-19)
(2.96004 1.05083 0)
(3.00696 1.03438 0)
(3.04737 1.10986 -1.97439e-19)
(3.12059 0.915607 0)
(3.04482 0.554306 1.94387e-19)
(2.9539 0.208741 -7.14245e-22)
(3.20831 -0.430505 -3.80582e-19)
(3.38386 -1.19498 3.76532e-19)
(3.11807 -1.45747 0)
(2.50485 -0.659631 0)
(1.58853 0.611046 1.82605e-19)
(0.443122 1.76519 0)
(-0.801713 2.765 1.8049e-19)
(-2.03339 3.51908 -1.78673e-19)
(-3.03156 3.91056 -1.76683e-19)
(-3.7176 4.01993 0)
(-4.21023 3.95869 1.72559e-19)
(-4.58442 3.82171 1.70392e-19)
(-4.89665 3.62104 -3.33777e-19)
(-5.18221 3.38212 1.6586e-19)
(-5.46787 3.12222 1.63437e-19)
(-5.7601 2.85493 0)
(-6.05835 2.58659 0)
(-6.35439 2.32281 -1.55561e-19)
(-6.63884 2.069 0)
(-6.90549 1.83223 0)
(-7.15238 1.61941 2.94768e-19)
(-7.38191 1.43513 2.89427e-19)
(-7.59814 1.28068 0)
(-7.80519 1.15412 0)
(-8.0058 1.05113 0)
(-8.20104 0.966115 0)
(-8.39067 0.893333 2.64559e-19)
(-8.57384 0.827957 -2.58942e-19)
(-8.74943 0.766507 -2.55648e-19)
(-8.91632 0.706543 -5.01868e-19)
(-9.07344 0.646098 0)
(-9.21966 0.583305 1.03709e-21)
(-9.35344 0.516113 0)
(-9.47255 0.442186 2.3667e-19)
(-9.57409 0.359261 1.0721e-21)
(-9.65451 0.265688 2.30646e-19)
(-9.70996 0.160527 -2.28028e-19)
(-9.7381 0.0440571 1.11729e-21)
(-9.73334 -0.0819979 0)
(-9.69182 -0.218426 -2.2055e-19)
(-9.61282 -0.362887 -2.20118e-19)
(-9.49313 -0.512588 -4.36516e-19)
(-9.33076 -0.664022 0)
(-9.12471 -0.813306 2.15974e-19)
(-8.87518 -0.956467 0)
(-8.58369 -1.08987 -4.31687e-19)
(-8.25307 -1.21075 2.16326e-19)
(-7.8872 -1.3177 -2.16431e-19)
(-7.49041 -1.41078 2.16654e-19)