/*--------------------------------*- C++ -*----------------------------------*\
| =========                 |                                                 |
| \\      /  F ield         | OpenFOAM: The Open Source CFD Toolbox           |
|  \\    /   O peration     | Version:  2112                                  |
|   \\  /    A nd           | Website:  www.openfoam.com                      |
|    \\/     M anipulation  |                                                 |
\*---------------------------------------------------------------------------*/
FoamFile
{
    version     2.0;
    format      ascii;
    arch        "LSB;label=32;scalar=64";
    class       volScalarField;
    location    "0.28";
    object      k;
}
// * * * * * * * * * * * * * * * * * * * * * * * * * * * * * * * * * * * * * //

dimensions      [0 2 -2 0 0 0 0];

internalField   nonuniform List<scalar> 
12225
(
1.45181
2.48676
3.50591
4.61226
5.88631
7.37873
9.1123
11.0825
13.2584
15.5872
18.0009
20.4291
22.8087
25.0912
27.2399
29.2572
30.9801
32.2564
0.421168
0.504488
0.614029
0.752323
0.921046
1.12031
1.35054
1.61496
1.92208
2.2839
2.71658
3.23247
3.83534
4.51913
5.26937
6.08551
7.03246
8.02737
0.379182
0.386366
0.394348
0.403906
0.416597
0.433701
0.456378
0.486169
0.525317
0.57672
0.64413
0.731436
0.841988
0.978242
1.14126
1.33501
1.56804
1.84237
0.376051
0.376993
0.37782
0.378528
0.379203
0.379852
0.380457
0.381131
0.382242
0.384401
0.388438
0.395331
0.406111
0.421792
0.443265
0.471849
0.508836
0.554887
0.375463
0.375771
0.375908
0.375902
0.375779
0.375526
0.375096
0.374465
0.373658
0.372746
0.371838
0.371075
0.37062
0.370657
0.371417
0.373075
0.375829
0.379727
0.375265
0.375469
0.37557
0.375553
0.37546
0.375282
0.374998
0.374596
0.374083
0.37348
0.372816
0.372125
0.371441
0.3708
0.370232
0.369777
0.369483
0.369369
0.375161
0.375311
0.375422
0.37547
0.37547
0.375404
0.375265
0.375054
0.374776
0.37445
0.374092
0.373722
0.373352
0.372999
0.372675
0.372388
0.372161
0.372005
0.375086
0.375188
0.375293
0.37538
0.375443
0.375468
0.375442
0.375361
0.375231
0.375073
0.374904
0.374734
0.374574
0.374432
0.374315
0.374225
0.374173
0.374158
0.375025
0.37508
0.375162
0.375256
0.375352
0.375434
0.375484
0.375494
0.375471
0.375427
0.375377
0.37533
0.375295
0.375278
0.375281
0.375315
0.375379
0.375469
0.374965
0.374978
0.375031
0.37511
0.375208
0.375313
0.375407
0.375482
0.375534
0.375571
0.375602
0.375638
0.375688
0.375754
0.375842
0.375952
0.376083
0.376229
0.374912
0.374878
0.374903
0.374959
0.375042
0.375143
0.375249
0.375352
0.375449
0.375539
0.375628
0.375721
0.375823
0.375939
0.376071
0.376219
0.376383
0.376553
0.37487
0.374793
0.374786
0.374822
0.374886
0.374973
0.375072
0.375178
0.375287
0.375399
0.375514
0.375636
0.375766
0.375906
0.376058
0.376222
0.376395
0.37657
0.374836
0.374718
0.374676
0.374689
0.374735
0.374804
0.374891
0.374989
0.375096
0.375212
0.375335
0.375466
0.375607
0.375757
0.375915
0.376081
0.376253
0.376423
0.374805
0.374647
0.374565
0.374547
0.374573
0.374622
0.374691
0.374775
0.374872
0.374979
0.375096
0.375223
0.375359
0.375503
0.375654
0.375811
0.37597
0.376125
0.374779
0.374585
0.374462
0.374407
0.374405
0.374436
0.374486
0.374553
0.374633
0.374725
0.374827
0.374939
0.375059
0.375186
0.375319
0.375455
0.375592
0.375725
0.374758
0.374535
0.374376
0.374283
0.374248
0.374255
0.374288
0.374337
0.374399
0.374473
0.374556
0.374648
0.374747
0.374851
0.37496
0.375069
0.375179
0.375285
0.374743
0.374499
0.374313
0.374187
0.374119
0.374097
0.37411
0.374143
0.374189
0.374245
0.374309
0.37438
0.374456
0.374536
0.374619
0.374701
0.374783
0.374862
0.374736
0.374479
0.374275
0.374128
0.374034
0.373986
0.373977
0.373994
0.374025
0.374065
0.374112
0.374163
0.374218
0.374276
0.374334
0.374392
0.374449
0.374503
0.374737
0.37448
0.374272
0.374118
0.374013
0.373952
0.373927
0.37393
0.373951
0.373979
0.374012
0.374048
0.374085
0.374124
0.374162
0.374199
0.374235
0.374268
0.374748
0.374504
0.374311
0.374169
0.374075
0.374022
0.374002
0.374006
0.374024
0.374049
0.374076
0.374103
0.374129
0.374153
0.374174
0.374193
0.374209
0.374222
0.374766
0.374545
0.374375
0.374258
0.374187
0.374154
0.374149
0.374161
0.374182
0.374204
0.374223
0.374237
0.374244
0.374245
0.37424
0.37423
0.374217
0.374201
0.374793
0.374605
0.37447
0.374386
0.374343
0.374333
0.374342
0.374358
0.374372
0.37438
0.374376
0.374359
0.374329
0.374289
0.374242
0.374189
0.374133
0.374076
0.374832
0.374689
0.374595
0.374542
0.37452
0.374518
0.374522
0.374521
0.374509
0.374478
0.374427
0.374357
0.37427
0.37417
0.374061
0.373946
0.373828
0.373711
0.374888
0.374797
0.374738
0.374696
0.374666
0.374641
0.37461
0.374561
0.374489
0.374392
0.374269
0.374122
0.373953
0.373768
0.37357
0.373364
0.373153
0.372942
0.374962
0.37492
0.374873
0.374813
0.374741
0.374657
0.374551
0.374417
0.37425
0.374049
0.373815
0.373547
0.373251
0.372929
0.372586
0.372228
0.37186
0.37149
0.375062
0.375071
0.37504
0.374958
0.374831
0.374659
0.374439
0.374167
0.373839
0.373456
0.373015
0.372519
0.371971
0.371376
0.370741
0.370077
0.369397
0.368716
0.375266
0.375529
0.375723
0.375779
0.375712
0.375545
0.375281
0.374922
0.374468
0.373924
0.373299
0.372618
0.371921
0.37127
0.370731
0.370374
0.370285
0.370563
0.376319
0.378957
0.381584
0.383806
0.385816
0.387913
0.390452
0.393803
0.398281
0.404134
0.411568
0.420794
0.432075
0.445745
0.462204
0.481898
0.505406
0.533334
0.392972
0.422348
0.460752
0.509387
0.569069
0.640085
0.722566
0.816346
0.920864
1.03535
1.15916
1.29222
1.4353
1.59021
1.75936
1.94518
2.15148
2.37907
1.04512
1.68001
2.2623
2.83491
3.43764
4.09739
4.83103
5.64891
6.55696
7.55733
8.64838
9.82461
11.0769
12.3929
13.7582
15.1571
16.5717
17.9796
0.292992
0.295607
0.301525
0.31062
0.322945
0.338514
0.357259
0.379049
0.403698
0.430992
0.460701
0.492615
0.526768
0.563304
0.601962
0.64252
0.684919
0.729164
0.775267
0.823245
0.873115
0.924901
0.978626
1.03432
1.092
1.15169
1.21342
1.27719
1.34304
1.41096
1.48097
1.55307
1.62724
1.7035
1.78181
1.86217
1.94455
2.02891
2.11523
2.20345
2.29352
2.3854
2.47901
2.5743
2.67118
2.76958
2.8694
2.97057
3.07298
3.17654
3.28113
3.38665
3.493
3.60004
3.70767
3.81576
3.92419
4.03283
4.14156
4.25024
4.35875
4.46696
4.57472
4.68191
4.78839
4.89404
4.9987
5.10225
5.20456
5.30549
5.4049
5.50267
5.59866
5.69275
5.78482
5.87475
5.96242
6.04771
6.13053
6.21077
6.28834
6.36315
6.43512
6.50416
6.57021
6.63319
6.69305
6.74973
6.80317
6.85331
6.90012
6.94354
6.98353
7.02004
7.05303
7.08246
7.10827
7.13042
7.14884
7.16345
7.17417
7.18086
7.18332
7.18184
7.17704
7.16894
7.15755
7.14289
7.12499
7.10388
7.0796
7.0522
7.02173
6.98824
6.95178
6.91241
6.87019
6.82518
6.77743
6.72702
6.674
6.61842
6.56035
6.49982
6.43689
6.37159
6.30396
6.23403
6.16182
6.08735
6.01063
5.93168
5.85051
5.76712
5.68153
5.59375
5.50379
5.41168
5.31744
5.22112
5.12278
5.02247
4.92028
4.81633
4.71071
4.60355
4.49499
4.38516
4.27419
4.16221
4.04938
3.9359
3.82215
3.7087
3.59696
3.49143
3.39283
3.3106
3.26173
3.25487
3.29032
3.35925
3.44323
3.53299
3.62776
3.72371
3.81955
3.91465
4.00864
4.10135
4.19265
4.28248
4.37079
4.45752
4.54267
4.6262
4.70853
4.78985
4.87754
4.9535
0.295479
0.296593
0.300923
0.308139
0.318207
0.33106
0.346562
0.36453
0.384752
0.406998
0.431043
0.456684
0.48377
0.512245
0.542014
0.572964
0.605014
0.638118
0.672254
0.707408
0.743574
0.780748
0.818928
0.858109
0.898288
0.939457
0.981609
1.02473
1.06881
1.11383
1.15977
1.20661
1.25433
1.30288
1.35225
1.40239
1.45328
1.50486
1.5571
1.60995
1.66336
1.71729
1.77168
1.82648
1.88164
1.93709
1.99279
2.04867
2.10468
2.16077
2.21686
2.27291
2.32886
2.38465
2.44023
2.49553
2.55051
2.60512
2.65929
2.71298
2.76613
2.8187
2.87064
2.92189
2.97242
3.02218
3.07112
3.1192
3.16639
3.21263
3.25791
3.30218
3.34542
3.38759
3.42867
3.46864
3.50749
3.54519
3.58174
3.61713
3.65134
3.68439
3.71627
3.74697
3.77651
3.8049
3.83213
3.85821
3.88317
3.90699
3.92971
3.95132
3.97184
3.99129
4.00967
4.027
4.04329
4.05856
4.07283
4.08611
4.09843
4.10986
4.12072
4.1313
4.14124
4.15052
4.15914
4.16713
4.17451
4.18132
4.18757
4.1933
4.19853
4.20328
4.20757
4.21144
4.2149
4.21796
4.22064
4.22297
4.22493
4.22654
4.22779
4.22868
4.2292
4.22932
4.22902
4.22825
4.22696
4.22511
4.22261
4.21938
4.21533
4.21033
4.20427
4.19699
4.18833
4.17811
4.16614
4.1522
4.13606
4.11749
4.09622
4.07199
4.04453
4.01357
3.97885
3.94011
3.89713
3.8497
3.7977
3.74107
3.67989
3.61453
3.54593
3.47644
3.40842
3.35073
3.31471
3.30729
3.32862
3.37224
3.42629
3.48166
3.53607
3.58742
3.63468
3.67737
3.71525
3.74825
3.77643
3.7999
3.81888
3.83364
3.84455
3.85211
3.85721
3.86193
3.87113
3.89981
0.301247
0.299783
0.302104
0.307394
0.315466
0.326161
0.339269
0.354555
0.371778
0.390702
0.411102
0.432784
0.455594
0.479419
0.50416
0.529731
0.556062
0.583106
0.610831
0.639216
0.668246
0.697909
0.728195
0.759092
0.790589
0.822674
0.85533
0.888541
0.922289
0.956553
0.991309
1.02653
1.0622
1.09829
1.13476
1.17158
1.20873
1.24618
1.28388
1.32181
1.35992
1.3982
1.43659
1.47508
1.51362
1.55218
1.59072
1.62923
1.66767
1.706
1.7442
1.78225
1.82011
1.85777
1.89521
1.93239
1.9693
2.00592
2.04224
2.07822
2.11387
2.14916
2.18408
2.21861
2.25274
2.28646
2.31976
2.35262
2.38504
2.41701
2.44852
2.47957
2.51015
2.54026
2.5699
2.59908
2.62779
2.65603
2.68383
2.71117
2.73807
2.76455
2.7906
2.81625
2.84149
2.86635
2.89083
2.91495
2.93871
2.96213
2.98522
3.00799
3.03046
3.05263
3.07452
3.09615
3.11755
3.13873
3.15973
3.1806
3.20138
3.22221
3.24325
3.26425
3.28512
3.30583
3.32639
3.34679
3.36705
3.38717
3.40714
3.42697
3.44667
3.46623
3.48566
3.50495
3.52411
3.54313
3.562
3.58073
3.5993
3.61771
3.63595
3.654
3.67184
3.68945
3.70681
3.72388
3.74061
3.75696
3.77286
3.78825
3.80304
3.81712
3.83039
3.8427
3.85392
3.86387
3.87236
3.87919
3.88411
3.88687
3.88718
3.88476
3.87928
3.87041
3.85782
3.84119
3.82021
3.79462
3.76422
3.72895
3.68889
3.64446
3.59659
3.54697
3.49793
3.45542
3.42724
3.41846
3.42889
3.45427
3.48741
3.52226
3.55601
3.5866
3.61285
3.6342
3.65041
3.6614
3.66726
3.66818
3.66444
3.65641
3.64457
3.62958
3.61246
3.59553
3.58256
3.58513
0.308304
0.303525
0.303808
0.30728
0.3136
0.322518
0.333753
0.347023
0.362061
0.378619
0.396471
0.415426
0.435326
0.456047
0.47749
0.499574
0.522238
0.545434
0.56913
0.593303
0.617935
0.643012
0.668521
0.694451
0.720789
0.747521
0.774633
0.802109
0.829933
0.858087
0.886551
0.915306
0.944332
0.973608
1.00311
1.03282
1.06272
1.09279
1.123
1.15333
1.18377
1.21429
1.24488
1.27553
1.30621
1.33692
1.36764
1.39836
1.42907
1.45977
1.49045
1.52109
1.55171
1.58229
1.61284
1.64334
1.67381
1.70424
1.73463
1.76498
1.79529
1.82556
1.85579
1.88598
1.91612
1.94622
1.97628
2.00629
2.03625
2.06615
2.096
2.12579
2.15553
2.1852
2.21481
2.24436
2.27384
2.30326
2.33261
2.3619
2.39112
2.42028
2.44938
2.4784
2.50737
2.53627
2.56511
2.59389
2.6226
2.65126
2.67985
2.70838
2.73685
2.76527
2.79365
2.82199
2.85031
2.87863
2.90697
2.93537
2.96388
2.99252
3.02115
3.0497
3.07812
3.10638
3.13449
3.16241
3.19015
3.21769
3.24502
3.27212
3.29899
3.32562
3.35198
3.37808
3.40389
3.42941
3.45461
3.4795
3.50405
3.52825
3.55209
3.57556
3.59863
3.62131
3.64355
3.66535
3.68667
3.70748
3.72775
3.74741
3.76641
3.78468
3.80213
3.81869
3.83422
3.84862
3.86174
3.87342
3.88349
3.89173
3.89793
3.90183
3.90318
3.90168
3.89705
3.88899
3.87723
3.86151
3.84169
3.81769
3.78964
3.75794
3.72329
3.68668
3.6497
3.61655
3.59278
3.58169
3.58317
3.59452
3.61168
3.63098
3.6498
3.66611
3.67869
3.68696
3.69065
3.68973
3.68426
3.67447
3.66062
3.64311
3.62241
3.59924
3.57467
3.55095
3.53088
3.52187
0.317096
0.307974
0.306101
0.307865
0.312668
0.320128
0.32988
0.341595
0.354982
0.369783
0.385771
0.402754
0.420572
0.4391
0.45824
0.477916
0.498068
0.518654
0.539644
0.561013
0.582746
0.604828
0.627249
0.649998
0.673064
0.696437
0.720105
0.744057
0.768281
0.792765
0.817497
0.842464
0.867653
0.893054
0.918654
0.944443
0.970412
0.996551
1.02285
1.04931
1.07592
1.10268
1.12958
1.15663
1.18382
1.21116
1.23865
1.2663
1.2941
1.32208
1.35024
1.37858
1.40711
1.43585
1.4648
1.49397
1.52338
1.55302
1.5829
1.61303
1.64342
1.67407
1.70497
1.73613
1.76756
1.79923
1.83116
1.86332
1.89573
1.92837
1.96122
1.99429
2.02756
2.06101
2.09465
2.12844
2.16239
2.19648
2.23069
2.26501
2.29944
2.33395
2.36853
2.40318
2.43787
2.47261
2.50738
2.54217
2.57697
2.61178
2.64658
2.68137
2.71615
2.75091
2.78566
2.82039
2.85511
2.88984
2.92458
2.95937
2.99413
3.02877
3.06325
3.09752
3.13156
3.16534
3.19883
3.23202
3.26489
3.2974
3.32955
3.3613
3.39265
3.42357
3.45404
3.48403
3.51354
3.54253
3.57099
3.5989
3.62623
3.65298
3.67913
3.70466
3.72956
3.75382
3.77742
3.80034
3.82257
3.84409
3.86486
3.88486
3.90405
3.92237
3.93976
3.95618
3.97153
3.98574
3.99871
4.01034
4.02048
4.02902
4.03577
4.04056
4.0432
4.04347
4.04115
4.03601
4.02784
4.01647
4.0018
3.98382
3.96263
3.93864
3.91218
3.88367
3.85421
3.82652
3.80445
3.79036
3.78422
3.78442
3.78889
3.79562
3.80256
3.80782
3.81022
3.80914
3.80428
3.79559
3.78313
3.76707
3.74767
3.72527
3.70036
3.67363
3.64614
3.61991
3.59696
3.58168
0.327125
0.312739
0.308561
0.3087
0.312182
0.318435
0.326991
0.337468
0.349553
0.362982
0.377527
0.392997
0.409237
0.426123
0.443558
0.461469
0.479801
0.498515
0.517582
0.536983
0.556701
0.576728
0.597053
0.617669
0.63857
0.65975
0.681202
0.70292
0.7249
0.747135
0.769621
0.792354
0.815331
0.838549
0.862007
0.885706
0.909646
0.933831
0.958265
0.982954
1.0079
1.03312
1.05863
1.08442
1.11052
1.13693
1.16368
1.19078
1.21824
1.24607
1.27431
1.30295
1.33203
1.36154
1.3915
1.42194
1.45284
1.48423
1.51611
1.54849
1.58136
1.61473
1.6486
1.68296
1.7178
1.75312
1.7889
1.82514
1.86181
1.8989
1.93639
1.97427
2.0125
2.05108
2.08997
2.12916
2.16861
2.20831
2.24822
2.28833
2.3286
2.36901
2.40954
2.45017
2.49087
2.53164
2.57245
2.61328
2.65413
2.69497
2.73581
2.77661
2.81739
2.85813
2.89882
2.93946
2.98005
3.0206
3.06112
3.10152
3.14166
3.18152
3.2211
3.26036
3.29926
3.33777
3.37587
3.41352
3.4507
3.48738
3.52353
3.55913
3.59413
3.62853
3.66229
3.69538
3.72778
3.75945
3.79038
3.82053
3.84989
3.87842
3.90612
3.93296
3.95892
3.98401
4.0082
4.03148
4.05385
4.07528
4.09577
4.11528
4.13379
4.15127
4.16767
4.18296
4.19707
4.20996
4.22156
4.23181
4.24062
4.24789
4.25352
4.25739
4.25936
4.25928
4.257
4.25236
4.24521
4.23544
4.22304
4.20805
4.1905
4.1708
4.14908
4.12532
4.09997
4.07486
4.05269
4.03517
4.0224
4.01353
4.00767
4.00387
4.0007
3.99662
3.99048
3.98167
3.96986
3.95495
3.93698
3.91608
3.89247
3.86648
3.83853
3.80932
3.77981
3.75175
3.7265
3.70656
0.338174
0.317553
0.310878
0.309447
0.311772
0.317022
0.324601
0.334069
0.345091
0.357397
0.370766
0.385012
0.399985
0.415565
0.431661
0.448203
0.46514
0.482437
0.500068
0.518016
0.53627
0.554823
0.57367
0.592807
0.612233
0.631947
0.651948
0.672237
0.692815
0.713684
0.734847
0.756309
0.778074
0.80015
0.822545
0.845268
0.868331
0.891746
0.915528
0.939692
0.964255
0.989234
1.01465
1.04052
1.06687
1.09371
1.12107
1.14897
1.17743
1.20647
1.23611
1.26637
1.29726
1.3288
1.361
1.39387
1.42743
1.46167
1.4966
1.53223
1.56854
1.60555
1.64324
1.68159
1.72061
1.76027
1.80056
1.84146
1.88295
1.92499
1.96758
2.01067
2.05425
2.09827
2.14272
2.18755
2.23273
2.27822
2.324
2.37001
2.41623
2.46262
2.50914
2.55576
2.60246
2.64922
2.696
2.7428
2.78959
2.83636
2.8831
2.92978
2.9764
3.02295
3.06941
3.11579
3.16207
3.20825
3.25431
3.29995
3.34522
3.39012
3.4346
3.47865
3.52223
3.5653
3.60782
3.64977
3.69109
3.73177
3.77175
3.81103
3.84955
3.88728
3.9242
3.96026
3.99544
4.0297
4.063
4.09531
4.12661
4.15687
4.18606
4.21417
4.24118
4.26708
4.29185
4.31549
4.33799
4.35934
4.37953
4.39856
4.4164
4.43302
4.44839
4.46248
4.47526
4.4867
4.49676
4.5054
4.51256
4.51819
4.52221
4.52456
4.52514
4.52385
4.52059
4.51527
4.5078
4.49806
4.4862
4.47225
4.4563
4.43856
4.419
4.39736
4.37372
4.34924
4.3258
4.3047
4.28611
4.2697
4.25525
4.24247
4.23047
4.21807
4.20429
4.1885
4.17039
4.14981
4.12675
4.10133
4.07374
4.04425
4.01329
3.98148
3.94971
3.9194
3.89141
3.8671
0.350096
0.322206
0.312817
0.309852
0.311151
0.315559
0.322328
0.330952
0.341074
0.352426
0.36479
0.377994
0.391895
0.406382
0.421369
0.436792
0.452604
0.468774
0.485281
0.502112
0.519259
0.536718
0.55449
0.572576
0.590978
0.609701
0.62875
0.648133
0.667857
0.68793
0.708363
0.729168
0.750357
0.771946
0.79395
0.816387
0.839276
0.862636
0.886491
0.910862
0.935774
0.96125
0.987316
1.014
1.04132
1.0693
1.09797
1.12736
1.15748
1.18836
1.22002
1.25247
1.28574
1.31983
1.35476
1.39054
1.42716
1.46465
1.50299
1.54219
1.58224
1.62314
1.66487
1.70743
1.7508
1.79495
1.83988
1.88555
1.93195
1.97903
2.02678
2.07515
2.12412
2.17365
2.22369
2.27421
2.32516
2.37651
2.42819
2.48017
2.53238
2.58479
2.63735
2.69001
2.74275
2.79553
2.84833
2.90112
2.95387
3.00659
3.05924
3.11181
3.16429
3.21667
3.26894
3.32108
3.37308
3.42493
3.47631
3.52719
3.57761
3.62754
3.67696
3.72582
3.77409
3.82172
3.86868
3.91491
3.96039
4.00506
4.04889
4.09184
4.13388
4.17496
4.21505
4.2541
4.29207
4.32892
4.36462
4.39913
4.43241
4.46443
4.49516
4.52459
4.55271
4.57949
4.60492
4.62899
4.6517
4.67306
4.69306
4.7117
4.72895
4.74481
4.75924
4.77222
4.78373
4.79376
4.80228
4.80928
4.81472
4.81856
4.82077
4.82132
4.82015
4.81716
4.81234
4.80562
4.79697
4.78635
4.77387
4.7596
4.74365
4.72609
4.70678
4.68538
4.66176
4.63661
4.61121
4.58652
4.56282
4.54007
4.51841
4.4979
4.47812
4.45823
4.43744
4.41518
4.39113
4.36512
4.33712
4.30721
4.27555
4.24242
4.20819
4.17342
4.1389
4.10578
4.0745
4.04578
0.362764
0.326548
0.31422
0.309748
0.310127
0.313815
0.319895
0.327791
0.337126
0.347631
0.359104
0.371381
0.384334
0.397862
0.411888
0.426353
0.441218
0.456454
0.472046
0.487983
0.504263
0.520886
0.537855
0.555176
0.572858
0.590909
0.60934
0.628163
0.647392
0.667041
0.687127
0.707668
0.728682
0.750191
0.772217
0.794783
0.817914
0.841636
0.865977
0.890964
0.916625
0.94299
0.970086
0.997943
1.02659
1.05605
1.08635
1.11751
1.14957
1.18254
1.21644
1.2513
1.28712
1.32393
1.36172
1.40052
1.44031
1.48111
1.52291
1.56571
1.60951
1.6543
1.70006
1.7468
1.79449
1.84311
1.89264
1.94305
1.99432
2.04641
2.09929
2.15293
2.20729
2.26232
2.31798
2.37422
2.43099
2.48824
2.54591
2.60394
2.66225
2.7208
2.7795
2.83833
2.89721
2.95613
3.01505
3.07393
3.13275
3.1915
3.25015
3.30871
3.36714
3.42544
3.48361
3.54161
3.59943
3.65679
3.71352
3.76969
3.82529
3.8803
3.93467
3.98836
4.04132
4.09351
4.14488
4.19537
4.24496
4.29358
4.3412
4.38777
4.43326
4.47762
4.52081
4.56278
4.60347
4.64284
4.68085
4.71747
4.75264
4.78634
4.81854
4.84922
4.87837
4.90598
4.93201
4.95646
4.97933
5.00065
5.02041
5.0386
5.05524
5.07031
5.08376
5.09558
5.10576
5.1143
5.1212
5.12645
5.13004
5.13192
5.13211
5.13059
5.12734
5.12232
5.1155
5.10686
5.0964
5.08413
5.07013
5.0545
5.03733
5.01862
4.9982
4.9757
4.95091
4.9242
4.89641
4.86826
4.84004
4.8119
4.78414
4.75702
4.73042
4.7038
4.6766
4.64834
4.61869
4.58749
4.55469
4.52035
4.48462
4.44774
4.41005
4.37207
4.33446
4.29813
4.26322
4.23007
0.376062
0.330482
0.315006
0.309051
0.308591
0.311649
0.317122
0.324365
0.332983
0.342712
0.35336
0.364784
0.376868
0.389525
0.402686
0.416303
0.430339
0.444774
0.459595
0.474795
0.490375
0.506338
0.522693
0.539449
0.556617
0.574211
0.592246
0.610738
0.629706
0.64917
0.66915
0.68967
0.710752
0.732424
0.754711
0.777642
0.801245
0.825552
0.850593
0.876399
0.903003
0.930437
0.958731
0.987916
1.01802
1.04908
1.08111
1.11414
1.14821
1.18333
1.21952
1.25681
1.2952
1.33472
1.37537
1.41716
1.46009
1.50415
1.54936
1.59571
1.64318
1.69179
1.74153
1.79237
1.84431
1.89733
1.9514
2.0065
2.0626
2.11966
2.17766
2.23656
2.29631
2.35687
2.41818
2.4802
2.54287
2.60611
2.66987
2.73406
2.79862
2.86343
2.92845
2.99358
3.05877
3.12397
3.18913
3.25423
3.31924
3.38413
3.44889
3.51351
3.57798
3.64229
3.70643
3.77038
3.83385
3.89659
3.95866
4.02008
4.08083
4.14084
4.20008
4.25849
4.31601
4.37261
4.42823
4.48281
4.53632
4.58868
4.63987
4.68984
4.73854
4.78594
4.83199
4.87662
4.91976
4.96138
5.00142
5.03986
5.07665
5.11174
5.14512
5.17676
5.20668
5.23486
5.26123
5.2858
5.30858
5.3296
5.34887
5.36639
5.38217
5.39623
5.40848
5.4189
5.42752
5.43435
5.43938
5.44263
5.44409
5.44377
5.44168
5.43781
5.43217
5.42473
5.4155
5.40447
5.39166
5.3771
5.36087
5.34307
5.32376
5.30293
5.28041
5.25588
5.22909
5.20021
5.16978
5.13829
5.10606
5.0733
5.04035
5.00759
4.97505
4.94248
4.9095
4.87572
4.84087
4.8048
4.76744
4.72885
4.68916
4.64857
4.60742
4.56616
4.52533
4.48565
4.44705
4.40964
0.389894
0.333969
0.315158
0.307742
0.306505
0.308991
0.313905
0.320538
0.328477
0.337466
0.347331
0.357945
0.369211
0.381055
0.39342
0.406264
0.41956
0.433289
0.447443
0.462019
0.477019
0.492451
0.508325
0.524653
0.541449
0.558731
0.576517
0.594827
0.613683
0.633109
0.653129
0.67377
0.695061
0.717029
0.739707
0.763124
0.787314
0.812311
0.838148
0.864861
0.892485
0.921053
0.950599
0.981158
1.01276
1.04543
1.07921
1.11412
1.15019
1.18745
1.22591
1.26561
1.30655
1.34875
1.39223
1.43698
1.483
1.5303
1.57887
1.62871
1.67983
1.73222
1.78588
1.8408
1.89697
1.95436
2.01296
2.07273
2.13365
2.19569
2.25883
2.32301
2.3882
2.45435
2.52139
2.58926
2.6579
2.72724
2.79719
2.86768
2.93859
3.00982
3.08128
3.15286
3.2245
3.29611
3.36765
3.43908
3.51035
3.58145
3.65236
3.72309
3.79362
3.86397
3.93412
4.00371
4.07248
4.14048
4.20773
4.27421
4.33988
4.40465
4.46848
4.53129
4.59305
4.6537
4.71319
4.77147
4.82847
4.88416
4.93847
4.99137
5.04281
5.09277
5.14121
5.18803
5.23313
5.27648
5.31805
5.35779
5.39567
5.43164
5.46568
5.49779
5.52797
5.55629
5.58254
5.60674
5.62897
5.64924
5.66758
5.68399
5.69849
5.71106
5.72168
5.73034
5.73705
5.74182
5.74466
5.74558
5.7446
5.74174
5.73701
5.73045
5.72204
5.71181
5.69975
5.68589
5.67025
5.65288
5.63385
5.61325
5.59114
5.56751
5.54222
5.515
5.48563
5.45416
5.42091
5.38622
5.35037
5.31358
5.27622
5.23863
5.20098
5.16321
5.12507
5.08632
5.04672
5.00616
4.96458
4.92202
4.87861
4.83453
4.79008
4.74565
4.70169
4.65877
4.61663
4.5753
0.404198
0.337025
0.314721
0.305862
0.303888
0.305829
0.310204
0.316238
0.323509
0.331773
0.340875
0.350707
0.36119
0.372265
0.383886
0.39602
0.408644
0.421744
0.435313
0.449352
0.463865
0.478861
0.494351
0.510349
0.526873
0.543942
0.561576
0.5798
0.598637
0.618115
0.638262
0.659109
0.680685
0.703025
0.72616
0.750128
0.774962
0.800701
0.827381
0.85504
0.883716
0.913448
0.944272
0.976224
1.00934
1.04365
1.07919
1.11599
1.15408
1.19349
1.23425
1.27637
1.31988
1.3648
1.41114
1.45888
1.50804
1.55862
1.61061
1.664
1.71882
1.77504
1.83268
1.89174
1.9522
2.01404
2.07723
2.14174
2.20755
2.27465
2.34299
2.41255
2.48327
2.55509
2.62796
2.70178
2.77649
2.852
2.92823
3.00507
3.08241
3.16014
3.23813
3.31627
3.39443
3.47253
3.5505
3.62829
3.70584
3.78314
3.86018
3.93697
4.01348
4.08982
4.16538
4.24005
4.31383
4.38674
4.45875
4.52986
4.60001
4.66905
4.73691
4.80356
4.86895
4.93302
4.99573
5.05702
5.11684
5.17514
5.23186
5.28696
5.3404
5.39216
5.44232
5.4906
5.5369
5.58122
5.62355
5.66384
5.70205
5.73815
5.77213
5.80397
5.83368
5.86128
5.88669
5.90992
5.931
5.94995
5.96681
5.98157
5.99425
6.00485
6.01336
6.01977
6.0241
6.02635
6.02656
6.02472
6.02088
6.01507
6.00732
5.99766
5.98611
5.97269
5.95742
5.94033
5.92146
5.90085
5.87858
5.85473
5.82935
5.80246
5.77393
5.74359
5.71126
5.67692
5.64074
5.60296
5.56379
5.52346
5.48228
5.44057
5.39856
5.35628
5.31363
5.27046
5.22661
5.182
5.1366
5.09044
5.04365
4.99639
4.94892
4.90158
4.85475
4.80886
4.76354
4.71875
0.418976
0.339722
0.313796
0.303507
0.300809
0.302206
0.306029
0.311451
0.318046
0.325584
0.33393
0.343
0.352731
0.363078
0.374005
0.385485
0.397501
0.410041
0.423099
0.436678
0.450781
0.465418
0.480603
0.49635
0.512678
0.529607
0.547162
0.565368
0.584253
0.603848
0.624185
0.645297
0.667219
0.689987
0.71364
0.738215
0.763752
0.790292
0.817875
0.846544
0.876339
0.907302
0.939476
0.9729
1.00761
1.04365
1.08106
1.11987
1.1601
1.20181
1.245
1.28971
1.33596
1.38377
1.43314
1.48408
1.53658
1.59064
1.64626
1.70343
1.76216
1.82245
1.8843
1.94773
2.0127
2.0792
2.14718
2.21662
2.28751
2.35982
2.43354
2.50861
2.585
2.66264
2.74145
2.82133
2.90219
2.98393
3.06644
3.1496
3.23332
3.31748
3.40197
3.48664
3.57129
3.65583
3.74016
3.82422
3.90796
3.99134
4.07435
4.15708
4.23931
4.3205
4.40072
4.47994
4.55812
4.63524
4.71127
4.78621
4.86014
4.93261
5.00362
5.07317
5.14123
5.20777
5.27272
5.33603
5.39766
5.45756
5.51566
5.57194
5.62634
5.67884
5.72943
5.778
5.82448
5.86881
5.91094
5.95082
5.98844
6.02376
6.05678
6.08749
6.11591
6.14203
6.16583
6.18732
6.2065
6.22342
6.23809
6.25054
6.26077
6.26878
6.27457
6.27815
6.27954
6.27875
6.27581
6.27074
6.26358
6.25438
6.24319
6.23004
6.21496
6.19798
6.17914
6.15847
6.13602
6.11185
6.08601
6.0586
6.02966
5.9992
5.96718
5.93346
5.89793
5.86055
5.82139
5.78062
5.73839
5.6949
5.65039
5.60517
5.55945
5.51332
5.46678
5.41976
5.37218
5.324
5.27523
5.22591
5.17616
5.12611
5.076
5.02612
4.97677
4.92831
4.88027
4.83258
0.43433
0.342191
0.312535
0.300818
0.297388
0.29821
0.301442
0.306216
0.312109
0.31891
0.326508
0.334837
0.343853
0.353519
0.36381
0.374703
0.386181
0.398235
0.410859
0.424054
0.437824
0.452181
0.467137
0.482709
0.498918
0.515785
0.533334
0.551597
0.570606
0.590396
0.611004
0.632468
0.654827
0.678123
0.7024
0.727702
0.754072
0.781558
0.810202
0.840052
0.871153
0.903552
0.937297
0.972432
1.009
1.04706
1.08664
1.12778
1.17053
1.21492
1.26095
1.30865
1.35806
1.40919
1.46204
1.51661
1.57289
1.6309
1.69063
1.75207
1.81523
1.8801
1.94666
2.01494
2.0849
2.15649
2.22967
2.3044
2.3807
2.45854
2.53789
2.61872
2.70097
2.78456
2.86942
2.95543
3.04248
3.13042
3.21911
3.30836
3.39816
3.48844
3.57918
3.6702
3.76105
3.8517
3.94208
4.03212
4.12171
4.21086
4.29946
4.38701
4.47337
4.55856
4.64255
4.72532
4.80681
4.88698
4.9658
5.04323
5.11924
5.19369
5.2665
5.33763
5.40705
5.47472
5.54058
5.6046
5.66671
5.72689
5.78508
5.84124
5.89532
5.94729
5.99713
6.0448
6.09022
6.13333
6.17409
6.21241
6.2483
6.28175
6.31276
6.34133
6.36747
6.39118
6.41246
6.43132
6.44776
6.46182
6.47353
6.4829
6.48994
6.49467
6.49708
6.49719
6.49503
6.49062
6.48399
6.47518
6.46424
6.45122
6.43617
6.41915
6.40019
6.37933
6.35661
6.33207
6.30578
6.2778
6.24819
6.21702
6.18433
6.15017
6.11453
6.07735
6.03853
5.99805
5.95594
5.91229
5.86722
5.82088
5.77347
5.72525
5.67639
5.62703
5.57721
5.52692
5.47617
5.42496
5.37334
5.32136
5.26911
5.21674
5.16444
5.11246
5.06105
5.0105
4.96027
4.9103
0.45051
0.344628
0.311146
0.297995
0.293796
0.293981
0.296557
0.300627
0.305783
0.311837
0.318701
0.326326
0.33468
0.343736
0.353469
0.363859
0.37489
0.386551
0.398835
0.411742
0.425278
0.439453
0.454281
0.469785
0.485985
0.50291
0.520586
0.539042
0.558318
0.578459
0.599509
0.621512
0.644515
0.668568
0.693722
0.72003
0.747547
0.776323
0.80641
0.837857
0.870717
0.905048
0.940909
0.978348
1.0174
1.05813
1.10059
1.14483
1.1909
1.23883
1.28858
1.34016
1.39359
1.44889
1.50605
1.56508
1.62598
1.68877
1.75347
1.82004
1.88846
1.95872
2.0308
2.10467
2.18036
2.25773
2.33664
2.41717
2.49933
2.58309
2.66842
2.75525
2.84352
2.93316
3.02406
3.11611
3.20916
3.30303
3.3975
3.49233
3.58763
3.6833
3.77925
3.87532
3.9713
4.06706
4.16256
4.2578
4.35235
4.4457
4.53762
4.62815
4.71725
4.80491
4.8911
4.97577
5.05888
5.14037
5.22023
5.29842
5.3749
5.4496
5.52246
5.59345
5.66252
5.72964
5.79476
5.85784
5.91884
5.97773
6.03445
6.08897
6.14124
6.19124
6.23895
6.28431
6.3273
6.36786
6.40592
6.44139
6.47431
6.50468
6.53252
6.55783
6.58062
6.6009
6.61867
6.63394
6.64673
6.65707
6.66498
6.67049
6.67359
6.67431
6.67265
6.66865
6.66234
6.65374
6.64291
6.62989
6.61474
6.5975
6.57825
6.55704
6.53391
6.5089
6.48207
6.45347
6.42316
6.39122
6.35772
6.32273
6.28628
6.24844
6.20923
6.16862
6.12658
6.08306
6.03808
5.9917
5.94401
5.89511
5.84519
5.79442
5.74298
5.69097
5.63847
5.58553
5.53223
5.47862
5.42473
5.37065
5.31646
5.2623
5.20833
5.15476
5.10181
5.04972
4.9979
4.94631
0.468714
0.347422
0.309877
0.295221
0.290158
0.289587
0.291389
0.294662
0.299023
0.304313
0.310461
0.317432
0.325197
0.333732
0.343011
0.353011
0.363716
0.375112
0.387193
0.399958
0.413415
0.427576
0.442461
0.458097
0.474514
0.491748
0.509837
0.528823
0.548743
0.569638
0.591573
0.614607
0.638779
0.664162
0.690822
0.718828
0.748247
0.779148
0.811596
0.845629
0.881306
0.918737
0.958014
0.999077
1.04189
1.08657
1.13321
1.18189
1.2327
1.28578
1.34081
1.39777
1.4567
1.51755
1.5803
1.64502
1.71174
1.78049
1.85127
1.92405
1.9988
2.07548
2.15397
2.23415
2.3159
2.3994
2.48455
2.57131
2.65966
2.74953
2.84088
2.93362
3.02768
3.12294
3.21932
3.31666
3.41484
3.51369
3.61307
3.71288
3.81296
3.91319
4.01338
4.11338
4.21332
4.31312
4.41212
4.50959
4.60544
4.6997
4.79232
4.88328
4.97256
5.06012
5.14594
5.22994
5.31212
5.39243
5.47085
5.54738
5.62197
5.6946
5.76523
5.83383
5.90035
5.96477
6.02704
6.08713
6.14502
6.20065
6.254
6.30503
6.3537
6.39998
6.44384
6.48526
6.52419
6.5606
6.59445
6.62572
6.6544
6.68049
6.70401
6.72496
6.74337
6.75924
6.77258
6.78341
6.79174
6.79758
6.80098
6.80193
6.80046
6.79658
6.79032
6.78172
6.77083
6.75769
6.74235
6.72487
6.70531
6.68371
6.66016
6.6347
6.60738
6.57824
6.54735
6.51478
6.48058
6.44485
6.40766
6.36908
6.32905
6.28771
6.24511
6.20126
6.15614
6.10974
6.06205
6.01313
5.96305
5.91189
5.85979
5.80691
5.75339
5.69934
5.64482
5.58995
5.53481
5.47947
5.424
5.36846
5.31296
5.25761
5.20256
5.148
5.09411
5.0411
4.98838
4.9359
0.487882
0.350726
0.309351
0.29324
0.287232
0.285788
0.286726
0.289168
0.292764
0.297374
0.302937
0.309415
0.31678
0.324998
0.334041
0.343882
0.354501
0.365889
0.378044
0.390972
0.404689
0.419215
0.434583
0.450829
0.467991
0.48612
0.50528
0.525537
0.546954
0.569611
0.593628
0.618901
0.645365
0.67325
0.702657
0.733682
0.766417
0.800971
0.837509
0.875898
0.91614
0.958358
1.00262
1.04892
1.0973
1.14784
1.20061
1.25566
1.31305
1.37279
1.43476
1.49887
1.56497
1.63284
1.70248
1.77415
1.84784
1.92355
2.00125
2.08092
2.16249
2.2459
2.33106
2.41791
2.50648
2.59665
2.68831
2.78136
2.87571
2.97128
3.06798
3.16573
3.26442
3.36397
3.46424
3.5651
3.6664
3.76804
3.86984
3.97164
4.07328
4.17489
4.27617
4.37703
4.47685
4.57526
4.67201
4.76703
4.86034
4.95193
5.04179
5.12986
5.21609
5.3004
5.38277
5.46317
5.54157
5.61797
5.69237
5.76473
5.83505
5.90331
5.96947
6.0335
6.09537
6.15505
6.2125
6.26771
6.32063
6.37123
6.4195
6.4654
6.50889
6.54993
6.5885
6.62457
6.6581
6.68906
6.71746
6.74328
6.76654
6.78724
6.8054