/*--------------------------------*- C++ -*----------------------------------*\
| =========                 |                                                 |
| \\      /  F ield         | OpenFOAM: The Open Source CFD Toolbox           |
|  \\    /   O peration     | Version:  2112                                  |
|   \\  /    A nd           | Website:  www.openfoam.com                      |
|    \\/     M anipulation  |                                                 |
\*---------------------------------------------------------------------------*/
FoamFile
{
    version     2.0;
    format      ascii;
    arch        "LSB;label=32;scalar=64";
    class       volScalarField;
    location    "0.28";
    object      kU;
}
// * * * * * * * * * * * * * * * * * * * * * * * * * * * * * * * * * * * * * //

dimensions      [0 2 -2 0 0 0 0];

internalField   nonuniform List<scalar> 
12225
(
0.173117
0.19659
0.188062
0.173686
0.163681
0.155108
0.147548
0.140963
0.135378
0.130815
0.127276
0.124735
0.12315
0.122457
0.12241
0.123009
0.124002
0.125923
0.0262464
0.0156962
0.0100537
0.00734794
0.00602349
0.00526132
0.0047324
0.00430871
0.00393816
0.00359885
0.00328171
0.0029836
0.00270514
0.00246817
0.00237512
0.00235768
0.00236656
0.00242642
0.0325856
0.0269885
0.0222657
0.0185276
0.0156078
0.013323
0.0115261
0.0101078
0.00898768
0.00810608
0.00741733
0.00688627
0.00648732
0.00621072
0.00601515
0.00587753
0.0057817
0.00571955
0.0344767
0.0310785
0.0279062
0.0251009
0.0226801
0.0206164
0.0188668
0.0173872
0.0161374
0.0150827
0.0141937
0.0134465
0.0128273
0.0122978
0.0118454
0.0114602
0.0111357
0.0108737
0.0351003
0.0325444
0.0301073
0.0278639
0.0258415
0.0240413
0.0224514
0.0210534
0.0198277
0.0187549
0.0178179
0.0170046
0.0162918
0.0156656
0.0151161
0.0146354
0.0142185
0.0138668
0.0353329
0.0331544
0.0311018
0.0291968
0.0274504
0.0258645
0.0244335
0.0231481
0.021997
0.0209687
0.020054
0.0192374
0.0185077
0.0178559
0.0172744
0.0167574
0.0163008
0.0159057
0.0354173
0.0334077
0.0315564
0.0298519
0.0282877
0.0268579
0.0255557
0.024373
0.0233013
0.0223328
0.0214572
0.0206651
0.0199488
0.0193016
0.0187177
0.0181922
0.0177219
0.0173075
0.0354456
0.0335053
0.0317508
0.0301558
0.0287018
0.0273755
0.0261657
0.0250627
0.024058
0.0231429
0.0223087
0.0215485
0.0208558
0.020225
0.019651
0.0191298
0.0186583
0.018237
0.0354543
0.0335392
0.0318257
0.0302832
0.028888
0.0276218
0.0264702
0.0254211
0.0244641
0.0235899
0.0227906
0.0220594
0.0213903
0.0207778
0.0202175
0.0197054
0.0192382
0.0188166
0.0354567
0.0335496
0.031851
0.0303301
0.0289617
0.0277256
0.0266052
0.0255868
0.0246588
0.0238114
0.0230363
0.0223264
0.0216754
0.0210781
0.0205297
0.0200263
0.0195646
0.019145
0.0354573
0.0335524
0.0318583
0.0303448
0.0289866
0.0277629
0.0266565
0.0256528
0.0247396
0.0239067
0.0231453
0.022448
0.0218083
0.0212206
0.0206802
0.020183
0.0197254
0.0193076
0.0354574
0.0335529
0.0318598
0.0303481
0.0289927
0.0277728
0.0266709
0.0256724
0.0247648
0.0239377
0.023182
0.0224901
0.0218553
0.0212721
0.0207353
0.0202408
0.0197849
0.0193678
0.0354574
0.0335529
0.0318598
0.0303484
0.0289935
0.0277746
0.026674
0.0256771
0.0247713
0.0239461
0.0231925
0.0225025
0.0218695
0.0212878
0.0207521
0.0202582
0.0198023
0.0193846
0.0354574
0.0335528
0.0318595
0.0303477
0.0289925
0.0277733
0.0266725
0.0256755
0.0247697
0.0239445
0.0231908
0.0225007
0.0218675
0.0212854
0.0207491
0.0202542
0.0197971
0.0193777
0.0354574
0.0335527
0.0318591
0.0303468
0.028991
0.027771
0.0266694
0.0256715
0.0247647
0.0239385
0.0231837
0.0224924
0.0218578
0.0212741
0.0207361
0.0202393
0.01978
0.0193583
0.0354574
0.0335526
0.0318587
0.0303459
0.0289894
0.0277685
0.0266659
0.0256668
0.0247587
0.023931
0.0231745
0.0224815
0.0218451
0.0212593
0.0207191
0.0202199
0.019758
0.0193337
0.0354575
0.0335525
0.0318583
0.030345
0.0289878
0.027766
0.0266623
0.0256619
0.0247523
0.023923
0.0231647
0.0224697
0.0218311
0.0212431
0.0207005
0.0201987
0.0197342
0.0193071
0.0354575
0.0335525
0.031858
0.0303443
0.0289864
0.0277637
0.0266588
0.025657
0.0247459
0.0239149
0.0231548
0.0224577
0.021817
0.0212267
0.0206816
0.0201774
0.0197102
0.0192806
0.0354575
0.0335525
0.0318578
0.0303436
0.0289851
0.0277615
0.0266555
0.0256525
0.0247399
0.0239072
0.0231453
0.0224463
0.0218035
0.021211
0.0206637
0.0201571
0.0196876
0.0192556
0.0354575
0.0335525
0.0318577
0.0303433
0.0289844
0.0277603
0.0266536
0.0256497
0.024736
0.0239021
0.0231389
0.0224384
0.0217941
0.0211999
0.0206509
0.0201425
0.019671
0.0192371
0.0354576
0.0335525
0.0318578
0.0303433
0.0289842
0.0277598
0.0266526
0.0256479
0.0247334
0.0238984
0.0231338
0.0224318
0.0217858
0.0211898
0.0206386
0.020128
0.0196541
0.0192176
0.0354576
0.0335525
0.0318577
0.030343
0.0289833
0.0277579
0.0266491
0.0256424
0.0247253
0.0238871
0.0231187
0.0224124
0.0217614
0.0211599
0.0206029
0.0200858
0.0196051
0.0191614
0.0354574
0.0335518
0.0318555
0.0303381
0.0289741
0.0277425
0.0266258
0.0256094
0.024681
0.0238299
0.0230475
0.0223259
0.0216587
0.0210401
0.0204653
0.0199299
0.0194305
0.0189679
0.0354559
0.0335449
0.031838
0.0303037
0.0289169
0.0276573
0.0265084
0.0254565
0.0244903
0.0236
0.0227775
0.0220155
0.0213078
0.0206492
0.0200348
0.0194607
0.0189234
0.018424
0.0354451
0.0335023
0.0317421
0.0301372
0.0286678
0.027319
0.0260786
0.024936
0.0238818
0.0229074
0.0220052
0.021168
0.0203897
0.0196647
0.0189878
0.018355
0.0177624
0.017211
0.0353848
0.0333013
0.0313506
0.029533
0.0278493
0.0262969
0.0248703
0.0235609
0.0223592
0.0212551
0.0202389
0.0193012
0.0184338
0.0176292
0.016881
0.0161836
0.0155326
0.0149275
0.035116
0.0325445
0.0300547
0.0277308
0.0256077
0.0236913
0.021971
0.0204286
0.0190433
0.017795
0.0166652
0.0156375
0.0146975
0.0138334
0.0130355
0.0122958
0.0116083
0.0109702
0.0340434
0.0298229
0.0258486
0.0223908
0.0194709
0.0170257
0.0149723
0.0132343
0.0117493
0.0104681
0.00935289
0.00837374
0.0075075
0.0067368
0.00604896
0.00543464
0.00488675
0.00439967
0.0300037
0.0201995
0.0132875
0.00929642
0.00712451
0.00591437
0.00519158
0.00472045
0.00438616
0.00413181
0.00393031
0.00379306
0.00370094
0.00363015
0.00356533
0.00349713
0.00341921
0.00332918
0.146332
0.179776
0.181011
0.172553
0.161701
0.150671
0.140049
0.129947
0.120351
0.111209
0.102475
0.0959074
0.0903521
0.0849953
0.0796508
0.0742917
0.0689329
0.0636306
0.00106905
0.00145507
0.00179905
0.00212359
0.00239468
0.00268451
0.00325814
0.00472829
0.00707747
0.0102304
0.0142679
0.0192994
0.0248323
0.0305664
0.0361971
0.0414345
0.0460238
0.0497603
0.0524985
0.0541566
0.0547168
0.0542204
0.0527606
0.0504696
0.047501
0.0441469
0.0406447
0.037096
0.0335871
0.0301902
0.0269631
0.0239498
0.0211835
0.0186884
0.0164825
0.0145723
0.0128259
0.0112099
0.00978566
0.00864817
0.00796534
0.00814306
0.00962952
0.0119653
0.0151073
0.0190193
0.0237061
0.0291559
0.0352982
0.0419132
0.0483552
0.0530603
0.053749
0.0500561
0.043146
0.0348161
0.0268885
0.0205287
0.0160866
0.0130578
0.0107122
0.00881913
0.00747064
0.00682859
0.00692899
0.0076448
0.00900231
0.0109606
0.0133365
0.0158548
0.0178281
0.0190341
0.0197663
0.0202669
0.0200102
0.0182604
0.0157853
0.016147
0.0276535
0.0494933
0.0733555
0.0965161
0.117229
0.134507
0.147888
0.157259
0.162721
0.164505
0.16291
0.158282
0.150952
0.141843
0.131398
0.119876
0.107573
0.0948239
0.0819944
0.0694692
0.0576251
0.046799
0.0372546
0.0291582
0.0225718
0.0174619
0.0136688
0.0102756
0.00743599
0.00566969
0.00683546
0.00952965
0.0126637
0.0166172
0.0218303
0.0278692
0.0344396
0.0412692
0.0480992
0.0546925
0.060843
0.0663772
0.0711428
0.0750755
0.0779957
0.0790576
0.0781147
0.075335
0.0709497
0.065272
0.058687
0.0516192
0.044494
0.0376976
0.0315399
0.0262317
0.0218787
0.0185225
0.0164129
0.0151061
0.0142371
0.013639
0.0132029
0.0128473
0.0125177
0.012188
0.0118573
0.0115418
0.011266
0.0110564
0.0109395
0.0109225
0.0110009
0.0111855
0.0114663
0.0118239
0.0122361
0.0126814
0.0131419
0.0136036
0.0140539
0.0144756
0.0148361
0.0150838
0.0151541
0.0151423
0.0152082
0.0156962
0.0169767
0.0180989
0.0154628
0.0130435
0.0347416
0.0588734
0.0732092
0.0753896
0.0670978
0.0533537
0.0384898
0.0255316
0.0168821
0.00973762
0.0024345
0.000697045
0.000898259
0.00126355
0.00177954
0.00239972
0.00311764
0.00396407
0.00494348
0.00603261
0.00719375
0.00837143
0.00948679
0.01049
0.0113504
0.0120565
0.0126138
0.0130401
0.0133592
0.0135969
0.0137801
0.0139397
0.0141152
0.0143586
0.0147382
0.0151718
0.015559
0.0158936
0.0161691
0.0163787
0.0165154
0.0165731
0.0165477
0.0164373
0.0162424
0.0159653
0.0156097
0.015182
0.0146908
0.0141453
0.0135547
0.0129263
0.0122671
0.0116476
0.0110081
0.0103386
0.00963967
0.00892243
0.00821557
0.0075705
0.00707613
0.00694693
0.00769164
0.00861706
0.00885215
0.00824803
0.00705923
0.00563202
0.00426136
0.00312715
0.00227326
0.0016339
0.0011181
0.000692232
0.000389297
0.000281453
0.000287732
0.000338109
0.000412284
0.000509249
0.000647731
0.000882515
0.00134577
0.00234099
0.00428191
0.00676161
0.00860087
0.0104281
0.013115
0.0155811
0.0168478
0.0168787
0.0159277
0.0143511
0.0124975
0.0106573
0.00904896
0.00781714
0.00703721
0.00674089
0.00704511
0.00754017
0.0080304
0.00851312
0.00898538
0.00944412
0.00988605
0.0103072
0.0107018
0.0110615
0.0113744
0.0116256
0.0117975
0.0118714
0.0118247
0.0116191
0.0112264
0.0106308
0.0100548
0.00947293
0.0088567
0.00821763
0.00756994
0.00691878
0.00626908
0.0056266
0.00499879
0.00439511
0.0038266
0.00330478
0.00284027
0.00244805
0.0021937
0.0024157
0.00293304
0.00350118
0.003976
0.00428267
0.00439252
0.00430996
0.00406328
0.00369542
0.00325483
0.0027873
0.00233034
0.0019116
0.00155331
0.0012563
0.00101755
0.000835807
0.000707901
0.000625666
0.000576132
0.000544552
0.00051804
0.00048783
0.000449494
0.000401686
0.00034585
0.000296541
0.00026914
0.000254085
0.00024649
0.000243672
0.000244006
0.000246502
0.0002506
0.000255938
0.000262143
0.000268687
0.000275084
0.000281233
0.000302646
0.000307437
0.000325244
0.000411958
0.000712349
0.0017958
0.00411951
0.00582144
0.00807008
0.00747906
0.00479004
0.00215232
0.0011166
0.00104278
0.00100226
0.000996412
0.00101023
0.000985017
0.00798453
0.00107404
0.00177354
0.00241896
0.00302948
0.0036393
0.00428032
0.00497702
0.00573893
0.00656326
0.00743995
0.00835476
0.00929194
0.0102377
0.0111769
0.0120918
0.0129638
0.0137759
0.0145172
0.0151859
0.0157895
0.0163417
0.0168565
0.0173429
0.0177941
0.0182183
0.0186098
0.0189594
0.0192554
0.0194848
0.0196346
0.0196931
0.0196513
0.019504
0.0192501
0.0188932
0.0184409
0.0179045
0.0172977
0.0166351
0.0159323
0.0151986
0.0144519
0.0137699
0.0130969
0.0124186
0.0117256
0.0110095
0.0102661
0.00950282
0.00874158
0.00800364
0.00728482
0.00655604
0.00585923
0.00519215
0.00451967
0.0038238
0.00311577
0.00242179
0.00177597
0.00121468
0.000768196
0.000455422
0.000276562
0.00020681
0.000211568
0.000259006
0.000334021
0.000438802
0.00061302
0.000988713
0.00180223
0.00304394
0.00428151
0.00500816
0.00546789
0.00582732
0.00606224
0.00599532
0.00570566
0.005426
0.00532694
0.0054608
0.00577491
0.00616726
0.00654932
0.00687702
0.00714533
0.00736933
0.0075759
0.00780033
0.00804409
0.00830826
0.00859392
0.00890153
0.00923014
0.00957645
0.00993383
0.0102915
0.0106346
0.0109441
0.0111988
0.0113768
0.0114579
0.0114246
0.0112559
0.0109693
0.0106428
0.0102649
0.00984881
0.00940709
0.00894905
0.00848172
0.00801055
0.00753979
0.00707277
0.00661217
0.00616016
0.00571856
0.0052886
0.0048711
0.00446554
0.00406535
0.00364647
0.00320425
0.00274719
0.00229871
0.00188861
0.00153878
0.00125509
0.00102969
0.000848818
0.000699629
0.000573275
0.000465036
0.000373086
0.000296463
0.000234362
0.000185722
0.000148968
0.000122052
0.000102702
8.86788e-05
7.80069e-05
6.91394e-05
6.10438e-05
5.31903e-05
4.553e-05
3.84938e-05
3.24392e-05
2.73823e-05
2.32884e-05
2.0146e-05
1.79464e-05
1.65954e-05
1.59096e-05
1.57156e-05
1.60494e-05
1.70992e-05
1.90535e-05
2.22322e-05
2.76658e-05
3.82032e-05
6.55836e-05
0.000144685
0.000401151
0.00123791
0.00245072
0.00266225
0.00225079
0.0012616
0.000680669
0.000601568
0.000643364
0.000699937
0.000772621
0.0008531
0.000924619
0.0009594
0.0160265
0.00173068
0.00298939
0.00387768
0.00462544
0.00534419
0.00609646
0.00691994
0.00782921
0.00882177
0.0098822
0.0109846
0.012095
0.0131753
0.0141877
0.0151011
0.0158974
0.0165744
0.0171444
0.0176291
0.0180526
0.0184341
0.0187854
0.0191101
0.0194143
0.0197205
0.0200253
0.0203183
0.0205852
0.020808
0.0209671
0.0210427
0.0210167
0.0208747
0.0206079
0.020214
0.0196977
0.0190704
0.0183479
0.0175493
0.0166952
0.0158037
0.0149149
0.0141082
0.0133262
0.012562
0.0118115
0.011072
0.0103414
0.00961724
0.00889625
0.00818067
0.00748605
0.00683275
0.00620958
0.00554139
0.00479364
0.00403221
0.00331191
0.00264382
0.00202391
0.00146375
0.000994303
0.000645571
0.000424521
0.000312594
0.000285937
0.000329365
0.000431453
0.000608775
0.0009536
0.00160526
0.00241335
0.00302987
0.00336118
0.00352239
0.00358793
0.00362206
0.00366382
0.00376744
0.00400632
0.00438641
0.00483335
0.00524935
0.00556901
0.00577959
0.00590678
0.00598786
0.00605258
0.00611866
0.00620606
0.00631992
0.00646023
0.00662804
0.00682543
0.00705492
0.00731841
0.00761589
0.00794408
0.00829518
0.00865612
0.00900867
0.00933075
0.00959878
0.00979041
0.00988623
0.0098698
0.00976986
0.00960864
0.00939602
0.00914427
0.00886355
0.00856155
0.00824393
0.00791493
0.00757778
0.00723498
0.00688863
0.00654051
0.00619219
0.0058451
0.00550053
0.00515971
0.00482281
0.00448383
0.00413361
0.00376765
0.00338485
0.00299056
0.00259632
0.00221681
0.00186582
0.00155316
0.00128349
0.00105688
0.000870258
0.000718872
0.000597431
0.000500781
0.000424267
0.000363877
0.00031627
0.000278737
0.000249111
0.000225677
0.000207085
0.000192286
0.00018048
0.000171065
0.000163576
0.00015763
0.000152897
0.000149097
0.000145995
0.0001434
0.000141139
0.000139011
0.000136713
0.000133779
0.000129625
0.000123764
0.000116258
0.000108585
0.000105291
0.000117627
0.000182199
0.000426015
0.00106687
0.00151912
0.00124906
0.000747135
0.000439387
0.000429429
0.000472336
0.000494983
0.000538708
0.000605359
0.000690179
0.000779822
0.000845068
0.0256361
0.00240636
0.00424143
0.0053823
0.00631946
0.00723493
0.00820515
0.00926234
0.0104032
0.0116005
0.012811
0.0139825
0.0150626
0.0160077
0.0167905
0.0174047
0.0178631
0.018192
0.0184234
0.0185878
0.0187098
0.0188072
0.0188906
0.0189654
0.0190705
0.0192409
0.0194723
0.0197514
0.0200588
0.0203697
0.0206551
0.0208832
0.0210219
0.0210418
0.0209196
0.0206411
0.0202035
0.0196153
0.0188941
0.0180628
0.0171464
0.0161664
0.0152101
0.0143124
0.0134407
0.0125931
0.0117669
0.0109591
0.0101699
0.00940413
0.00866691
0.00795621
0.00726473
0.00660032
0.00599459
0.0054619
0.0049375
0.00432323
0.00364538
0.00297753
0.00235643
0.00179449
0.00130907
0.000924057
0.000653938
0.000494958
0.000431488
0.00046412
0.000607279
0.000912063
0.00143322
0.00198063
0.00233664
0.00251419
0.00260771
0.00266112
0.00273143
0.00287559
0.00312663
0.00348052
0.00388349
0.00424849
0.00450542
0.00463463
0.00466225
0.00463411
0.00459164
0.00456145
0.00455641
0.00458061
0.00463872
0.00472172
0.00482845
0.00495994
0.00511921
0.00531063
0.00553891
0.00580748
0.0061168
0.00646253
0.00683432
0.00721516
0.0075829
0.00791282
0.00817946
0.0083598
0.00844173
0.00845093
0.00840135
0.00830432
0.00817036
0.00800804
0.00782368
0.00762164
0.0074049
0.00717557
0.00693524
0.00668526
0.00642682
0.00616107
0.00588909
0.00561186
0.00533027
0.00504515
0.00475596
0.00446098
0.00415991
0.00385206
0.00353736
0.00321767
0.00289742
0.00258328
0.00228293
0.00200346
0.00175016
0.0015259
0.00133119
0.00116468
0.00102379
0.000905364
0.000806195
0.00072331
0.000654127
0.00059645
0.000548418
0.000508424
0.00047507
0.000447123
0.000423492
0.000403201
0.000385389
0.000369322
0.000354406
0.00034019
0.000326363
0.000312721
0.000299085
0.000285181
0.000270536
0.000254491
0.000236346
0.000215777
0.000193983
0.000175672
0.000172623
0.000224252
0.000444429
0.000879777
0.000948134
0.0006208
0.000349949
0.000309316
0.000347413
0.000352003
0.000363056
0.000398461
0.000459204
0.00054472
0.000646475
0.000736743
0.0358782
0.00300084
0.00539116
0.00679513
0.00795793
0.00911632
0.0103384
0.0116277
0.0129438
0.0142233
0.0153954
0.0163951
0.0171763
0.0177187
0.0180288
0.0181354
0.0180805
0.0179104
0.0176694
0.0173958
0.0171211
0.0168701
0.016661
0.0165061
0.0164706
0.0165765
0.0168131
0.0171639
0.0176069
0.0181139
0.0186501
0.0191733
0.0196362
0.0199898
0.0201891
0.0201996
0.0200028
0.0196003
0.0190111
0.0182633
0.0173875
0.0164173
0.0154668
0.0145328
0.0136099
0.012703
0.0118131
0.0109373
0.0100736
0.0092252
0.00840315
0.00762139
0.00688675
0.0061996
0.00557273
0.00503709
0.0046002
0.00419203
0.00369589
0.00312985
0.00255932
0.00202765
0.00155671
0.00116564
0.000872248
0.000686104
0.000607361
0.000645769
0.000866246
0.00127891
0.00168254
0.00192059
0.00202345
0.00209274
0.00215918
0.0022601
0.0024385
0.00271221
0.00305364
0.0033947
0.00365635
0.00378922
0.00379455
0.00371242
0.00359441
0.00348188
0.0033986
0.00335382
0.00334848
0.0033806
0.0034419
0.00352169
0.00361863
0.0037339
0.00387114
0.0040361
0.0042356
0.00447596
0.00476099
0.00508985
0.00545535
0.0058422
0.00622956
0.00659217
0.00690161
0.00712362
0.00726793
0.00734906
0.00737628
0.00735996
0.00730959
0.00723259
0.0071341
0.00701731
0.00688417
0.00673592
0.00657355
0.00639796
0.00621007
0.00601075
0.00580077
0.00558076
0.00535132
0.00511308
0.00486614
0.00461048
0.00434729
0.00407789
0.00380377
0.00352679
0.00324939
0.00297485
0.00270717
0.0024507
0.00220958
0.00198713
0.00178543
0.00160525
0.00144617
0.00130695
0.00118584
0.00108094
0.000990386
0.000912399
0.00084533
0.000787643
0.000737897
0.000694751
0.000656964
0.000623403
0.000593056
0.000565059
0.000538705
0.000513444
0.000488868
0.000464672
0.000440576
0.000416209
0.000390991
0.000364102
0.000334593
0.000301855
0.000267042
0.00023471
0.000216949
0.000255358
0.000438744
0.000698244
0.000603573
0.000343495
0.000236294
0.000260223
0.000270048
0.00025622
0.000261427
0.000290055
0.000344269
0.000427105
0.000535163
0.000644582
0.0460369
0.0034695
0.00637417
0.00804276
0.00944039
0.0108383
0.0122757
0.0137111
0.0150594
0.0162246
0.0171235
0.0177023
0.0179452
0.0178735
0.0175364
0.0169988
0.01633
0.0155947
0.0148497
0.0141423
0.0135114
0.0129882
0.0125961
0.0123495
0.0122993
0.0124317
0.012733
0.0131905
0.0137893
0.01451
0.015324
0.0161907
0.0170546
0.017848
0.0184992
0.0189421
0.0191289
0.0190428
0.018701
0.0181368
0.0173904
0.0165251
0.0156424
0.0147306
0.0138039
0.0128729
0.0119425
0.0110125
0.0100812
0.00915121
0.00823517
0.00735554
0.00653588
0.00578994
0.00512503
0.00455822
0.00411188
0.00376917
0.00343585
0.00302681
0.00256396
0.00210222
0.00167791
0.00131238
0.00102573
0.000838364
0.000771072
0.000859857
0.00113171
0.00146721
0.00165588
0.00171343
0.00175908
0.00182585
0.00193419
0.00211216
0.00237029
0.00267861
0.00297099
0.00317531
0.00324983
0.00320062
0.00307017
0.00291116
0.00276474
0.00265317
0.00258355
0.0025547
0.00256215
0.00260142
0.00266156
0.00273431
0.00281876
0.0029164
0.00303134
0.00317011
0.00334081
0.00355152
0.00380829
0.00411278
0.00446073
0.00483828
0.00522772
0.00560253
0.00591779
0.00616604
0.00635407
0.00648539
0.00656797
0.00661126
0.00662373
0.00661151
0.00657838
0.00652623
0.00645592
0.00636794
0.00626289
0.0061416
0.00600517
0.00585473
0.0056913
0.0055156
0.00532804
0.00512885
0.0049178
0.00469489
0.00446112
0.00421819
0.00396838
0.00371444
0.00345941
0.00320648
0.00295892
0.00271993
0.00249245
0.00227895
0.00208126
0.00190044
0.00173678
0.00158993
0.00145907
0.0013431
0.00124075
0.0011507
0.00107163
0.00100219
0.000941064
0.000886995
0.000838778
0.000795299
0.000755553
0.000718664
0.000683895
0.000650642
0.00061841
0.000586775
0.000555316
0.000523499
0.000490541
0.000455348
0.000416667
0.000373776
0.000327998
0.000283696
0.000253285
0.000276618
0.000414887
0.000545867
0.000395212
0.000219451
0.000194081
0.000218775
0.000204078
0.000184032
0.0001858
0.000208999
0.000256665
0.000334759
0.000444771
0.000567626
0.0556755
0.00377968
0.00714746
0.00906544
0.0106747
0.0122641
0.0138322
0.0152866
0.0165004
0.0173591
0.0177888
0.0177713
0.0173424
0.0165781
0.0155747
0.0144311
0.0132365
0.0120649
0.010975
0.010013
0.00921411
0.00860464
0.00820181
0.0080141
0.00802982
0.00821304
0.00855538
0.00905482
0.00971267
0.0105297
0.0115002
0.0126039
0.0137959
0.0150018
0.0161266
0.0170667
0.0177273
0.0180505
0.0180422
0.0177346
0.0171835
0.0164966
0.0157223
0.014882
0.0139966
0.0130804
0.0121408
0.0111787
0.0101924
0.00918471
0.00817075
0.00718105
0.00625398
0.00542066
0.00469655
0.00409101
0.00361729
0.00327761
0.00301892
0.00273724
0.00239716
0.00202856
0.00167215
0.00135393
0.00109585
0.000923993
0.000871812
0.00098793
0.00125624
0.00146946
0.0015141
0.00152608
0.00157724
0.00167634
0.00183893
0.00207272
0.00235358
0.00262296
0.0028128
0.00287986
0.0028251
0.00268691
0.0025172
0.00235841
0.00223359
0.00214939
0.00210346
0.00209018
0.00210343
0.0021409
0.00219094
0.00224921
0.00231515
0.0023907
0.00248062
0.00259231
0.00273488
0.00291742
0.00314705
0.00342667
0.0037533
0.00411508
0.00449823
0.00485297
0.00516879
0.00543829
0.00565601
0.005824
0.00594927
0.00604024
0.006104
0.00614512
0.00616561
0.0061658
0.00614524
0.00610357
0.00604094
0.00595823
0.00585698
0.00573908
0.00560638
0.00546038
0.005302
0.00513154
0.0049487
0.00475276
0.00454382
0.00432294
0.00409215
0.00385432
0.00361287
0.00337147
0.00313378
0.00290312
0.00268237
0.00247381
0.00227906
0.00209913
0.00193439
0.00178475
0.00164968
0.00152843
0.00142004
0.00132345
0.00123752
0.00116107
0.00109292
0.00103191
0.000976914
0.000926887
0.000880872
0.000838021
0.000797602
0.000758991
0.000721639
0.000685029
0.000648612
0.000611696
0.00057327
0.000531905
0.000486016
0.000434878
0.000380075
0.000325868
0.000284238
0.000289689
0.000381498
0.000427061
0.000268154
0.000160747
0.000170538
0.000181172
0.000153124
0.00013171
0.000131582
0.000150361
0.000191757
0.000264038
0.000372953
0.000503935
0.0657657
0.00389332
0.00767135
0.00980832
0.011583
0.0132967
0.0149046
0.0162653
0.0172194
0.0176515
0.0175214
0.0168695
0.0157988
0.0144434
0.0129387
0.0114017
0.00992364
0.00857163
0.00739307
0.00641971
0.00567001
0.0051509
0.00486015
0.00479072
0.00487249
0.0050729
0.00539028
0.0058317
0.00641239
0.00715428
0.00808139
0.00920983
0.0105301
0.0119849
0.0134737
0.0148648
0.0160102
0.0167794
0.0171531
0.0171463
0.0168492
0.0163582
0.0157263
0.0149917
0.0141813
0.0133124
0.0123938
0.011426
0.0104049
0.00933059
0.00821905
0.00710962
0.00605767
0.00511468
0.00431105
0.00365715
0.00315672
0.00280535
0.00257299
0.00236994
0.00213277
0.00185706
0.00157389
0.00131121
0.0010926
0.000947506
0.000918969
0.0010533
0.00127604
0.00137828
0.00136596
0.0013845
0.00146146
0.00160029
0.00180669
0.00206516
0.00232776
0.00252966
0.00262086
0.00259026
0.00246668
0.00229959
0.00213466
0.00199915
0.00190214
0.00184204
0.00181327
0.00180949
0.00182464
0.00185747
0.00189762
0.00194234
0.00199097
0.00204576
0.00211231
0.00219933
0.00231737
0.00247656
0.00268406
0.0029444
0.00325053
0.00359954
0.00394719
0.00428975
0.00460895
0.00489099
0.00512964
0.00532626
0.00548698
0.00561901
0.0057278
0.00581597
0.00588361
0.00592929
0.00595118
0.00594783
0.00591872
0.00586448
0.00578688
0.00568857
0.00557264
0.00544203
0.00529901
0.005145
0.00498028
0.00480339
0.00461346
0.00441049
0.00419562
0.00397111
0.00374015
0.00350652
0.00327418
0.00304688
0.00282791
0.00261987
0.00242463
0.00224334
0.00207652
0.00192418
0.00178591
0.00166107
0.00154878
0.00144806
0.00135785
0.00127703
0.00120449
0.0011391
0.0010798
0.00102558
0.000975542
0.000928855
0.000884807
0.000842771
0.000802171
0.000762436
0.000722926
0.000682812
0.000640868
0.000595321
0.000544242
0.000486908
0.000425118
0.00036308
0.000311193
0.000296662
0.000344839
0.000335752
0.000192473
0.000130171
0.00015332
0.000149918
0.000116364
9.57843e-05
9.47435e-05
0.000109768
0.000145329
0.000211626
0.000317576
0.000448997
0.0778906
0.00379843
0.00791864
0.0102392
0.0121294
0.0139108
0.0154997
0.0167104
0.0173607
0.0173507
0.0166933
0.0155015
0.0139458
0.0122056
0.0104341
0.00874624
0.00722108
0.00590961
0.00484069
0.00402412
0.00345305
0.0031078
0.00296209
0.00299156
0.00311335
0.00330674
0.00357018
0.00391021
0.00434478
0.00490592
0.00563951
0.00659931
0.00782843
0.0093115
0.0109671
0.0126626
0.0142162
0.0153998
0.0161573
0.0164721
0.0164456
0.0161633
0.0156918
0.0150811
0.0143654
0.013566
0.0126924
0.0117436
0.0107107
0.00958685
0.00838399
0.00714786
0.00595352
0.00487867
0.00397505
0.00326081
0.00273254
0.00237526
0.00215675
0.00200108
0.00183907
0.00164193
0.00142548
0.00121615
0.00103928
0.000926644
0.00092588
0.00106469
0.00122804
0.00126125
0.00124176
0.00128265
0.00139007
0.00156459
0.00179897
0.00205848
0.00228398
0.00241751
0.00243107
0.00233795
0.00218161
0.00201139
0.00186196
0.00174798
0.00167059
0.00162525
0.00160614
0.00160757
0.00162438
0.00165437
0.00168921
0.00172554
0.0017623
0.00180176
0.00185025
0.00191802
0.00201734
0.00216057
0.0023522
0.00260277
0.00288918
0.00320553
0.00353981
0.00387506
0.0041942
0.00448419
0.00473897
0.00495959
0.00515138
0.00532012
0.00546937
0.0055997
0.00570939
0.00579562
0.00585548
0.00588662
0.00588755
0.00585802
0.00579917
0.00571365
0.00560536
0.00547888
0.00533861
0.00518863
0.00503013
0.00486203
0.00468296
0.00449193
0.00428891
0.00407506
0.00385277
0.00362539
0.00339679
0.00317096
0.00295156
0.00274167
0.00254361
0.0023589
0.00218835
0.00203215
0.00189005
0.00176144
0.00164549
0.00154123
0.00144759
0.00136345
0.00128769
0.00121919
0.0011569
0.00109984
0.00104709
0.000997859
0.000951434
0.000907186
0.000864529
0.00082286
0.000781484
0.000739476
0.00069544
0.00064732
0.00059288
0.000531327
0.000464527
0.000396578
0.000335242
0.00029986
0.000309325
0.000266779
0.00014799
0.000113512
0.000138553
0.000126134
9.14825e-05
7.2941e-05
7.17865e-05
8.34841e-05
0.000113677
0.000174832
0.000273385
0.000403085
0.0888993
0.00348046
0.00788152
0.010364
0.0123326
0.0141545
0.0157165
0.0167928
0.0171818
0.016806
0.0157378
0.0141616
0.0123033
0.0103671
0.00850618
0.00682236
0.0053782
0.00420718
0.00331814
0.0026978
0.00231528
0.00212963
0.00209924
0.00219152
0.00234775
0.00255164
0.00279183
0.00306391
0.00337759
0.00376221
0.00426989
0.00497657
0.00597752
0.00731552
0.00894293
0.0107537
0.0125737
0.0140812
0.0151532
0.0157878
0.016032
0.0159623
0.0156553
0.0151732
0.0145599
0.0138419
0.0130301
0.0121212
0.0111
0.00994875
0.00866866
0.00730532
0.00595297
0.00472229
0.00369549
0.00290551
0.00234503
0.00198481
0.00177971
0.00165979
0.00155369
0.00141924
0.00125885
0.00109645
0.000959303
0.000880694
0.000906253
0.00103748
0.00114813
0.00114937
0.00114316
0.00120924
0.00134529
0.00154776
0.00179664
0.00204392
0.00222757
0.00230099
0.00225558
0.00212203
0.00195063
0.00178531
0.00164983
0.00155042
0.00148458
0.00144732
0.00143358
0.00143861
0.00145817
0.00148817
0.00152133
0.00155367
0.00158356
0.00161319
0.00164937
0.00170415
0.00179071
0.00192629
0.00210923
0.00233923
0.00261211
0.00291766
0.00324276
0.00357228
0.00389109
0.00418746
0.00445598
0.00469759
0.00491671
0.00511734
0.00530087
0.00546594
0.00560973
0.00572916
0.00582149
0.00588431
0.00591541
0.00591295
0.00587605
0.00580553
0.00570445
0.00557805
0.00543301
0.00527726
0.00511364
0.00494298
0.00476467
0.00457741
0.0043802
0.00417294
0.0039568
0.00373418
0.00350844
0.00328338
0.00306284
0.00285025
0.00264837
0.00245916
0.00228382
0.00212283
0.00197612
0.00184319
0.00172326
0.00161535
0.00151838
0.00143118
0.0013526
0.00128152
0.00121685
0.0011576
0.00110284
0.00105178
0.00100369
0.000957936
0.000913912
0.000870999
0.000828467
0.000785331
0.000740081
0.000690463
0.000634007
0.000569787
0.000499593
0.000427323
0.000357398
0.000301585
0.000278059
0.000216988
0.000122168
0.000102612
0.000123183
0.00010839
7.88747e-05
6.29183e-05
6.03059e-05
6.85987e-05
9.36328e-05
0.000146812
0.000238692
0.000367342
0.0952866
0.00371337
0.0075019
0.0102094
0.0122492
0.0141135
0.0156876
0.0167092
0.0169486
0.0163407
0.0150082
0.0131961
0.0111717
0.00915222
0.00728269
0.00564953
0.00429985
0.00325196
0.00249845
0.00200967
0.00174097
0.00164316
0.00167513
0.00181573
0.0020322
0.00229513
0.00257405
0.00284716
0.00311166
0.00339013
0.00373184
0.00421543
0.00496708
0.00609039
0.00757161
0.00934383
0.0112066
0.0129114
0.0142639
0.0151784
0.0156663
0.0157938
0.0156421
0.0152834
0.0147712
0.0141383
0.0133983
0.0125459
0.011559
0.0104066
0.00907239
0.00759155
0.00607164
0.00466113
0.00348438
0.00259904
0.00199756
0.00163374
0.00144394
0.00135505
0.00129267
0.00120749
0.00109287
0.000970857
0.000870136
0.000824251
0.000870883
0.000987696
0.00105987
0.0010525
0.00106519
0.00115297
0.00131385
0.00153677
0.00179109
0.00202034
0.00216356
0.00218577
0.00209515
0.00193515
0.00175773
0.00159916
0.00147439
0.00138461
0.00132591
0.00129364
0.00128347
0.0012911
0.00131267
0.0013439
0.00137734
0.00140846
0.00143484
0.00145864
0.00148708
0.00153447
0.00161464
0.00173806
0.00191277
0.00213806
0.00240664
0.00270759
0.0030283
0.00335532
0.0036754
0.00397825
0.00425914
0.00451881
0.00476022
0.00498494
0.00519179
0.005378
0.00554107
0.00567975
0.00579368
0.0058823
0.00594376
0.00597464
0.00597061
0.00592809
0.00584617
0.00572798
0.00558132
0.00541713
0.00524097
0.00505782
0.00486975
0.00467665
0.00447738
0.00427087
0.00405694
0.00383672
0.00361257
0.00338771
0.00316579
0.00295034
0.00274444
0.00255045
0.00236993
0.00220371
0.00205195
0.00191431
0.00179007
0.00167829
0.00157785
0.00148758
0.00140628
0.00133278
0.00126597
0.00120482
0.00114839
0.00109586
0.00104649
0.000999611
0.00095461
0.000910847
0.000867567
0.000823745
0.000777801
0.000727357
0.000669778
0.000603972
0.000531569
0.000456182
0.000378665
0.000303961
0.000253051
0.000182728
0.000107007
9.38953e-05
0.000108205
9.54094e-05
7.2801e-05
5.92374e-05
5.47561e-05
5.95218e-05
7.97826e-05
0.000127112
0.000213546
0.000340491
0.0914303
0.00591609
0.00652604
0.00966648
0.0118971
0.0138265
0.0154507
0.0165157
0.0167685
0.0161239
0.0147114
0.0128056
0.0107059
0.00864603
0.00677095
0.0051579
0.00384331
0.00283644
0.0021212
0.00166105
0.00140154
0.00129222
0.0013382
0.00155878
0.00187269
0.00223471
0.0025977
0.00292365
0.00319774
0.00343797
0.00369333
0.00404187