/*--------------------------------*- C++ -*----------------------------------*\
| =========                 |                                                 |
| \\      /  F ield         | OpenFOAM: The Open Source CFD Toolbox           |
|  \\    /   O peration     | Version:  2112                                  |
|   \\  /    A nd           | Website:  www.openfoam.com                      |
|    \\/     M anipulation  |                                                 |
\*---------------------------------------------------------------------------*/
FoamFile
{
    version     2.0;
    format      ascii;
    arch        "LSB;label=32;scalar=64";
    class       volVectorField;
    location    "0.28";
    object      U;
}
// * * * * * * * * * * * * * * * * * * * * * * * * * * * * * * * * * * * * * //

dimensions      [0 1 -1 0 0 0 0];

internalField   nonuniform List<vector> 
12225
(
(9.75282 0.0356647 0)
(9.24942 0.0694031 0)
(8.7448 0.0776715 0)
(8.26236 0.0782636 0)
(7.81624 0.0752465 0)
(7.41376 0.0694408 0)
(7.05652 0.0617272 0)
(6.7459 0.052774 0)
(6.48371 0.0429758 0)
(6.27108 0.0326294 0)
(6.1079 0.0219986 0)
(5.99283 0.0113413 0)
(5.92377 0.000887821 0)
(5.89761 -0.00886235 0)
(5.90665 -0.0172239 0)
(5.94729 -0.0230841 0)
(6.00156 -0.0281448 0)
(6.10179 -0.00461831 0)
(10.1125 0.0734336 0)
(10.3394 0.118642 0)
(10.4967 0.12323 0)
(10.59 0.12337 0)
(10.6401 0.12251 0)
(10.6596 0.119125 0)
(10.6565 0.113172 0)
(10.6384 0.10488 0)
(10.6128 0.0943275 0)
(10.5862 0.081646 0)
(10.5638 0.0671385 0)
(10.5492 0.0512233 0)
(10.5454 0.0341845 0)
(10.5525 0.0172878 0)
(10.5695 0.00186562 0)
(10.5974 -0.0113133 0)
(10.6364 -0.0201895 0)
(10.7026 -0.0118769 0)
(10.0094 0.0400683 0)
(10.0605 0.0579696 0)
(10.1196 0.0564887 0)
(10.1788 0.0596863 0)
(10.2422 0.0645769 0)
(10.3096 0.0669268 0)
(10.377 0.0660616 0)
(10.4412 0.0621158 0)
(10.5007 0.0550709 0)
(10.5548 0.045 0)
(10.6033 0.032191 0)
(10.6467 0.0172181 0)
(10.6854 0.000713114 0)
(10.7214 -0.016505 0)
(10.759 -0.0330933 0)
(10.8019 -0.048017 0)
(10.8541 -0.0600512 0)
(10.933 -0.0643036 0)
(10.006 0.0292303 0)
(10.0357 0.0550728 0)
(10.0678 0.0632784 0)
(10.0941 0.0692894 0)
(10.1201 0.0729866 0)
(10.1499 0.0725951 0)
(10.1833 0.0686515 0)
(10.219 0.0619809 0)
(10.2563 0.0529002 0)
(10.2948 0.0415788 0)
(10.3341 0.0281989 0)
(10.3739 0.0131458 0)
(10.4143 -0.00286235 0)
(10.4568 -0.0201551 0)
(10.5024 -0.0385473 0)
(10.5539 -0.0573496 0)
(10.6149 -0.076991 0)
(10.6954 -0.100988 0)
(10.0045 0.023525 0)
(10.0294 0.0499121 0)
(10.0589 0.0573738 0)
(10.0841 0.0594378 0)
(10.1079 0.0596514 0)
(10.134 0.0571244 0)
(10.1626 0.0518029 0)
(10.1928 0.0440962 0)
(10.2245 0.0341302 0)
(10.2577 0.0219232 0)
(10.2926 0.00756854 0)
(10.3294 -0.00896541 0)
(10.3681 -0.0273091 0)
(10.4094 -0.0472959 0)
(10.4545 -0.0691214 0)
(10.5053 -0.0928748 0)
(10.5646 -0.120358 0)
(10.6368 -0.157221 0)
(10.0033 0.0188311 0)
(10.0234 0.0423133 0)
(10.0499 0.0493879 0)
(10.0746 0.0509418 0)
(10.0984 0.0511495 0)
(10.1242 0.0489757 0)
(10.1523 0.0437744 0)
(10.182 0.0357899 0)
(10.2129 0.0252472 0)
(10.2452 0.0122115 0)
(10.2789 -0.00312753 0)
(10.3143 -0.020784 0)
(10.3516 -0.0406613 0)
(10.3915 -0.0625973 0)
(10.4349 -0.0870224 0)
(10.4831 -0.114778 0)
(10.5378 -0.148172 0)
(10.6004 -0.192288 0)
(10.0025 0.0149041 0)
(10.0188 0.035189 0)
(10.0423 0.0423677 0)
(10.0659 0.0436982 0)
(10.089 0.0429829 0)
(10.1138 0.0396312 0)
(10.1407 0.0330696 0)
(10.1693 0.0235912 0)
(10.1991 0.0115242 0)
(10.2301 -0.00304536 0)
(10.2626 -0.0200417 0)
(10.2967 -0.0393519 0)
(10.3326 -0.0610955 0)
(10.3708 -0.0854073 0)
(10.412 -0.112878 0)
(10.4569 -0.144623 0)
(10.5061 -0.182791 0)
(10.5594 -0.231342 0)
(10.0019 0.0116744 0)
(10.0153 0.0286549 0)
(10.036 0.0353038 0)
(10.0582 0.0359425 0)
(10.0804 0.0339623 0)
(10.1041 0.0294122 0)
(10.1298 0.0218568 0)
(10.1571 0.0114675 0)
(10.1857 -0.00149701 0)
(10.2155 -0.0169571 0)
(10.2466 -0.0349608 0)
(10.2792 -0.0555047 0)
(10.3134 -0.0787619 0)
(10.3495 -0.105006 0)
(10.388 -0.134871 0)
(10.429 -0.169465 0)
(10.4725 -0.210576 0)
(10.5174 -0.260912 0)
(10.0015 0.00897823 0)
(10.0125 0.0226022 0)
(10.0307 0.0281686 0)
(10.0513 0.0280012 0)
(10.0726 0.0248916 0)
(10.0951 0.0192537 0)
(10.1196 0.0107246 0)
(10.1456 -0.000674323 0)
(10.1728 -0.0147592 0)
(10.2011 -0.031463 0)
(10.2306 -0.0508307 0)
(10.2614 -0.0729203 0)
(10.2936 -0.0979161 0)
(10.3272 -0.126157 0)
(10.3625 -0.15825 0)
(10.3993 -0.195153 0)
(10.4371 -0.238198 0)
(10.4745 -0.288984 0)
(10.0012 0.00667757 0)
(10.0104 0.0170133 0)
(10.0263 0.0211171 0)
(10.0453 0.0200082 0)
(10.0654 0.0157629 0)
(10.0868 0.00894486 0)
(10.1099 -0.000689878 0)
(10.1344 -0.0131868 0)
(10.1601 -0.0284082 0)
(10.1869 -0.0462874 0)
(10.2146 -0.066872 0)
(10.2434 -0.0902687 0)
(10.2733 -0.116683 0)
(10.3042 -0.146459 0)
(10.336 -0.180128 0)
(10.3685 -0.218424 0)
(10.4009 -0.262237 0)
(10.4318 -0.312321 0)
(10.001 0.00467187 0)
(10.0087 0.0118691 0)
(10.0227 0.0142513 0)
(10.04 0.0120238 0)
(10.0589 0.00659823 0)
(10.0789 -0.00143767 0)
(10.1006 -0.0122032 0)
(10.1236 -0.0257747 0)
(10.1477 -0.0420757 0)
(10.1726 -0.0610645 0)
(10.1984 -0.0827996 0)
(10.225 -0.107408 0)
(10.2523 -0.135091 0)
(10.2802 -0.166145 0)
(10.3085 -0.200982 0)
(10.3366 -0.240089 0)
(10.364 -0.283991 0)
(10.3892 -0.332862 0)
(10.0009 0.00301391 0)
(10.0075 0.00745876 0)
(10.0199 0.0081092 0)
(10.0357 0.00471658 0)
(10.0533 -0.00182374 0)
(10.0721 -0.0109833 0)
(10.0924 -0.0227958 0)
(10.1139 -0.03735 0)
(10.1363 -0.0546213 0)
(10.1595 -0.074589 0)
(10.1834 -0.0973089 0)
(10.2078 -0.1229 0)
(10.2326 -0.151536 0)
(10.2576 -0.183449 0)
(10.2826 -0.218926 0)
(10.3069 -0.258258 0)
(10.33 -0.30171 0)
(10.3508 -0.349111 0)
(10.0007 0.0015469 0)
(10.0065 0.00341806 0)
(10.0174 0.00225255 0)
(10.0319 -0.00241486 0)
(10.0481 -0.0100845 0)
(10.0656 -0.020346 0)
(10.0844 -0.0331884 0)
(10.1044 -0.0486954 0)
(10.1251 -0.0668765 0)
(10.1465 -0.087728 0)
(10.1683 -0.111299 0)
(10.1904 -0.137689 0)
(10.2127 -0.167034 0)
(10.2348 -0.199499 0)
(10.2564 -0.235259 0)
(10.2771 -0.274447 0)
(10.2963 -0.317149 0)
(10.3131 -0.363001 0)
(10.0006 2.53181e-05 0)
(10.0056 -0.000864655 0)
(10.0151 -0.00413862 0)
(10.0279 -0.0103594 0)
(10.0426 -0.0193493 0)
(10.0586 -0.0308499 0)
(10.0757 -0.0448377 0)
(10.0937 -0.0613845 0)
(10.1124 -0.0805224 0)
(10.1315 -0.102262 0)
(10.1509 -0.126642 0)
(10.1703 -0.153731 0)
(10.1895 -0.183616 0)
(10.2083 -0.21638 0)
(10.2263 -0.252091 0)
(10.243 -0.290746 0)
(10.2581 -0.332298 0)
(10.2709 -0.376285 0)
(10.0005 -0.00153283 0)
(10.0047 -0.00531185 0)
(10.0128 -0.0109288 0)
(10.0239 -0.0189614 0)
(10.0368 -0.0294589 0)
(10.0509 -0.0423135 0)
(10.066 -0.0575191 0)
(10.0818 -0.0751376 0)
(10.0981 -0.0952112 0)
(10.1146 -0.117757 0)
(10.1311 -0.142796 0)
(10.1473 -0.170358 0)
(10.1631 -0.20047 0)
(10.1781 -0.233141 0)
(10.1921 -0.268344 0)
(10.2047 -0.30598 0)
(10.2155 -0.345927 0)
(10.2243 -0.387711 0)
(10.0004 -0.00310228 0)
(10.0039 -0.00983853 0)
(10.0106 -0.0179586 0)
(10.0199 -0.0279993 0)
(10.0308 -0.0401459 0)
(10.0428 -0.0544171 0)
(10.0556 -0.0708435 0)
(10.0688 -0.0894837 0)
(10.0823 -0.110379 0)
(10.0957 -0.133543 0)
(10.1089 -0.158972 0)
(10.1216 -0.186657 0)
(10.1335 -0.216569 0)
(10.1445 -0.248653 0)
(10.1543 -0.282817 0)
(10.1626 -0.318911 0)
(10.1692 -0.35678 0)
(10.1739 -0.396006 0)
(10.0003 -0.00464562 0)
(10.0031 -0.0143147 0)
(10.0084 -0.024976 0)
(10.0159 -0.0370936 0)
(10.0247 -0.0509143 0)
(10.0344 -0.0665448 0)
(10.0445 -0.084057 0)
(10.0548 -0.103513 0)
(10.0651 -0.124949 0)
(10.0751 -0.148367 0)
(10.0847 -0.173743 0)
(10.0935 -0.20103 0)
(10.1014 -0.230157 0)
(10.1081 -0.261027 0)
(10.1136 -0.293513 0)
(10.1176 -0.32745 0)
(10.1199 -0.362677 0)
(10.1205 -0.398856 0)
(10.0003 -0.00610651 0)
(10.0023 -0.0185695 0)
(10.0064 -0.031672 0)
(10.0121 -0.0457814 0)
(10.0187 -0.061153 0)
(10.0259 -0.0779469 0)
(10.0331 -0.09627 0)
(10.0403 -0.116191 0)
(10.0473 -0.137741 0)
(10.0536 -0.160909 0)
(10.0593 -0.185654 0)
(10.0641 -0.211904 0)
(10.0679 -0.239562 0)
(10.0704 -0.268507 0)
(10.0716 -0.298598 0)
(10.0714 -0.329674 0)
(10.0697 -0.361584 0)
(10.0663 -0.39407 0)
(10.0002 -0.00743325 0)
(10.0017 -0.0223903 0)
(10.0046 -0.0375777 0)
(10.0086 -0.0532606 0)
(10.0132 -0.0696992 0)
(10.0178 -0.0871056 0)
(10.0222 -0.105625 0)
(10.0262 -0.12534 0)
(10.0296 -0.14628 0)
(10.0323 -0.168434 0)
(10.0342 -0.191752 0)
(10.035 -0.216151 0)
(10.0348 -0.241519 0)
(10.0334 -0.267726 0)
(10.0308 -0.29463 0)
(10.0268 -0.322076 0)
(10.0214 -0.349922 0)
(10.0147 -0.377976 0)
(10.0002 -0.00845188 0)
(10.0014 -0.0252499 0)
(10.0039 -0.0418051 0)
(10.007 -0.0582936 0)
(10.0101 -0.0750253 0)
(10.013 -0.0923004 0)
(10.0152 -0.110319 0)
(10.0169 -0.129187 0)
(10.0177 -0.148956 0)
(10.0177 -0.169629 0)
(10.0167 -0.19116 0)
(10.0147 -0.213462 0)
(10.0117 -0.236415 0)
(10.0076 -0.259882 0)
(10.0024 -0.28371 0)
(9.99599 -0.307745 0)
(9.98842 -0.331842 0)
(9.97965 -0.35583 0)
(10.0002 -0.00922021 0)
(10.0015 -0.0273351 0)
(10.004 -0.0446637 0)
(10.0069 -0.0613302 0)
(10.0094 -0.0777955 0)
(10.0112 -0.0944981 0)
(10.0121 -0.111687 0)
(10.0122 -0.129491 0)
(10.0113 -0.147996 0)
(10.0094 -0.167241 0)
(10.0066 -0.187199 0)
(10.0027 -0.207786 0)
(9.9979 -0.228875 0)
(9.99214 -0.250312 0)
(9.98542 -0.271929 0)
(9.97774 -0.29355 0)
(9.9691 -0.315013 0)
(9.95948 -0.33614 0)
(10.0002 -0.0100331 0)
(10.002 -0.0294447 0)
(10.005 -0.047287 0)
(10.0082 -0.0637338 0)
(10.0105 -0.0795776 0)
(10.0116 -0.0954543 0)
(10.0116 -0.111643 0)
(10.0105 -0.128283 0)
(10.0083 -0.145496 0)
(10.005 -0.163353 0)
(10.0006 -0.181847 0)
(9.99526 -0.200899 0)
(9.98907 -0.22038 0)
(9.98209 -0.240126 0)
(9.97435 -0.25995 0)
(9.96589 -0.279652 0)
(9.95671 -0.299046 0)
(9.94679 -0.317925 0)
(10.0003 -0.0110546 0)
(10.003 -0.031936 0)
(10.0072 -0.0500604 0)
(10.011 -0.0659223 0)
(10.0133 -0.080849 0)
(10.014 -0.0956433 0)
(10.0133 -0.110594 0)
(10.0113 -0.125916 0)
(10.0081 -0.141821 0)
(10.0035 -0.158425 0)
(9.99795 -0.175722 0)
(9.99145 -0.193628 0)
(9.98419 -0.211996 0)
(9.9763 -0.230636 0)
(9.96787 -0.249321 0)
(9.95898 -0.267815 0)
(9.94963 -0.285888 0)
(9.93987 -0.303304 0)
(10.0006 -0.012469 0)
(10.0046 -0.0350819 0)
(10.0106 -0.0531033 0)
(10.0155 -0.0680716 0)
(10.018 -0.0820826 0)
(10.0184 -0.0958318 0)
(10.0172 -0.109435 0)
(10.0145 -0.12319 0)
(10.0102 -0.137466 0)
(10.0045 -0.152482 0)
(9.99776 -0.168298 0)
(9.99011 -0.184868 0)
(9.98182 -0.202064 0)
(9.97309 -0.219677 0)
(9.96405 -0.237445 0)
(9.95482 -0.255081 0)
(9.94541 -0.272303 0)
(9.93585 -0.288815 0)
(10.001 -0.0145141 0)
(10.0073 -0.0392102 0)
(10.0157 -0.0563837 0)
(10.0217 -0.0697436 0)
(10.0242 -0.0826201 0)
(10.0246 -0.095565 0)
(10.0233 -0.108438 0)
(10.0202 -0.121479 0)
(10.0151 -0.135038 0)
(10.0084 -0.149314 0)
(10.0004 -0.164386 0)
(9.99144 -0.180247 0)
(9.98178 -0.196789 0)
(9.97172 -0.213796 0)
(9.96147 -0.230982 0)
(9.95119 -0.248023 0)
(9.94091 -0.264594 0)
(9.93079 -0.280333 0)
(10.0016 -0.0173578 0)
(10.0116 -0.0446146 0)
(10.0232 -0.0609408 0)
(10.03 -0.0723175 0)
(10.032 -0.0826913 0)
(10.0316 -0.0927515 0)
(10.0294 -0.102803 0)
(10.0251 -0.113408 0)
(10.0185 -0.124966 0)
(10.01 -0.13764 0)
(10.0002 -0.151496 0)
(9.98936 -0.166524 0)
(9.97803 -0.182576 0)
(9.96666 -0.199369 0)
(9.9557 -0.216556 0)
(9.94549 -0.233739 0)
(9.93632 -0.250535 0)
(9.9284 -0.266382 0)
(10.0026 -0.0211496 0)
(10.0168 -0.0489542 0)
(10.0317 -0.0653545 0)
(10.0393 -0.0791513 0)
(10.0415 -0.0917361 0)
(10.0414 -0.102432 0)
(10.0399 -0.111891 0)
(10.0368 -0.121184 0)
(10.0326 -0.130987 0)
(10.028 -0.141686 0)
(10.0237 -0.153598 0)
(10.0204 -0.166931 0)
(10.019 -0.181655 0)
(10.0203 -0.197571 0)
(10.0249 -0.214408 0)
(10.033 -0.231843 0)
(10.0452 -0.249477 0)
(10.0607 -0.26675 0)
(10.0045 -0.0290893 0)
(10.0297 -0.0483759 0)
(10.0576 -0.0519123 0)
(10.0824 -0.0589379 0)
(10.108 -0.0692642 0)
(10.1362 -0.0800186 0)
(10.1659 -0.0909995 0)
(10.1959 -0.102808 0)
(10.2258 -0.115783 0)
(10.2555 -0.130148 0)
(10.2849 -0.146257 0)
(10.3141 -0.164378 0)
(10.343 -0.184388 0)
(10.3713 -0.205914 0)
(10.3982 -0.228501 0)
(10.4229 -0.251663 0)
(10.4443 -0.274756 0)
(10.4614 -0.29732 0)
(10.0702 -0.0598495 0)
(10.2333 -0.106312 0)
(10.3636 -0.117735 0)
(10.4558 -0.12453 0)
(10.5191 -0.131203 0)
(10.5578 -0.137129 0)
(10.5732 -0.142925 0)
(10.5667 -0.149373 0)
(10.5402 -0.156845 0)
(10.4952 -0.165529 0)
(10.4325 -0.175775 0)
(10.3525 -0.187848 0)
(10.2555 -0.201476 0)
(10.1415 -0.216092 0)
(10.0102 -0.231095 0)
(9.86216 -0.245936 0)
(9.69783 -0.259988 0)
(9.51871 -0.273021 0)
(9.84155 -0.031474 0)
(9.49958 -0.0672106 0)
(9.12791 -0.0813784 0)
(8.74382 -0.0883513 0)
(8.36655 -0.0919069 0)
(8.00197 -0.0930146 0)
(7.6486 -0.092801 0)
(7.30411 -0.0921749 0)
(6.96671 -0.0916458 0)
(6.63433 -0.0914744 0)
(6.30516 -0.0920049 0)
(5.9747 -0.0934111 0)
(5.64094 -0.0954106 0)
(5.30368 -0.0974865 0)
(4.96352 -0.0991421 0)
(4.62197 -0.0999934 0)
(4.28081 -0.0996797 0)
(3.94443 -0.0982367 0)
(0.0315648 -0.146222 -9.29972e-21)
(0.0495417 -0.126539 9.53021e-21)
(0.0937849 -0.164187 0)
(0.14023 -0.202403 0)
(0.153764 -0.198891 0)
(0.116088 -0.153189 -1.27951e-20)
(0.00954692 -0.0691817 0)
(-0.183357 0.0467026 0)
(-0.46833 0.178814 0)
(-0.840133 0.309807 0)
(-1.28581 0.427401 1.33376e-20)
(-1.78903 0.524487 0)
(-2.3327 0.597034 0)
(-2.89891 0.642553 0)
(-3.47016 0.660509 0)
(-4.02989 0.652116 1.47492e-20)
(-4.56306 0.619953 0)
(-5.05648 0.567578 0)
(-5.49892 0.499142 0)
(-5.88119 0.419065 0)
(-6.19616 0.331939 0)
(-6.43847 0.242482 0)
(-6.60508 0.155279 0)
(-6.69356 0.0749443 1.51255e-20)
(-6.70129 0.00487183 -1.39468e-20)
(-6.64502 -0.0554372 1.23747e-20)
(-6.52712 -0.109169 1.04245e-20)
(-6.35207 -0.157796 0)
(-6.12381 -0.202017 0)
(-5.84642 -0.242059 -2.2402e-21)
(-5.52407 -0.277986 1.27092e-21)
(-5.16106 -0.309854 0)
(-4.76175 -0.337791 0)
(-4.33043 -0.362015 1.42298e-20)
(-3.87116 -0.38283 0)
(-3.38766 -0.400606 0)
(-2.88334 -0.415807 -3.14326e-20)
(-2.36128 -0.428905 0)
(-1.82414 -0.440218 -4.63223e-20)
(-1.27374 -0.449812 -1.10684e-19)
(-0.710439 -0.457566 0)
(-0.132083 -0.463505 0)
(0.464692 -0.46791 0)
(1.07471 -0.470732 0)
(1.69562 -0.471552 0)
(2.32432 -0.470905 -1.03383e-19)
(2.95624 -0.470487 -9.58707e-20)
(3.58526 -0.469677 -8.8857e-20)
(4.20329 -0.450662 0)
(4.79141 -0.358624 7.728e-20)
(5.2976 -0.123012 0)
(5.57835 0.234894 -7.19616e-20)
(5.52926 0.563327 -7.05377e-20)
(5.19912 0.720928 0)
(4.66983 0.668732 0)
(4.06485 0.467564 0)
(3.49626 0.227271 -7.41653e-20)
(3.027 0.0473145 0)
(2.66447 -0.0284916 0)
(2.37712 -0.0183667 0)
(2.11582 0.0274569 0)
(1.84184 0.0653733 0)
(1.55955 0.0718422 0)
(1.31857 0.0371495 0)
(1.18892 -0.0374187 0)
(1.22924 -0.136766 6.68344e-20)
(1.46896 -0.215421 0)
(1.87212 -0.225615 0)
(2.3223 -0.155015 -6.0337e-20)
(2.68181 -0.0486173 -5.91975e-20)
(2.88154 0.026376 0)
(2.96396 0.0369115 5.71205e-20)
(3.03047 -0.0109406 -5.59946e-20)
(3.12392 -0.11363 0)
(3.16894 -0.257221 5.4784e-20)
(3.00182 -0.277486 0)
(2.41594 0.0182421 0)
(1.28357 0.520648 -5.43626e-20)
(-0.283096 0.901124 0)
(-1.97702 1.05014 2.12354e-20)
(-3.62846 1.05327 0)
(-5.15377 0.97004 9.78996e-21)
(-6.49788 0.842827 2.16061e-20)
(-7.63885 0.699796 3.12596e-20)
(-8.57546 0.557788 7.79408e-20)
(-9.31759 0.42575 -8.98928e-20)
(-9.88003 0.307788 0)
(-10.2788 0.205609 0)
(-10.5284 0.120065 0)
(-10.6449 0.0507074 -1.09295e-19)
(-10.6413 -0.00413309 -1.07375e-19)
(-10.5526 -0.0482606 1.03173e-19)
(-10.3823 -0.0878211 0)
(-10.1355 -0.12489 -8.82797e-20)
(-9.81501 -0.160388 -7.76988e-20)
(-9.42218 -0.194729 -6.50562e-20)
(-8.95793 -0.228015 0)
(-8.42328 -0.260074 0)
(-7.81992 -0.290475 0)
(-7.15086 -0.318551 6.46606e-21)
(-6.42084 -0.343472 0)
(-5.63665 -0.36433 0)
(-4.80714 -0.380262 -8.21727e-20)
(-3.94323 -0.390612 0)
(-3.05757 -0.395076 0)
(-2.16475 -0.394176 -1.75243e-19)
(-1.27815 -0.388565 0)
(-0.407635 -0.37719 0)
(0.440756 -0.359766 2.4092e-19)
(1.25804 -0.337889 2.23683e-19)
(2.03266 -0.313943 0)
(2.75587 -0.28783 -1.91621e-19)
(3.42324 -0.260156 0)
(4.03247 -0.231918 1.63339e-19)
(4.58195 -0.203705 0)
(5.07096 -0.175838 1.39209e-19)
(5.49951 -0.148528 1.28726e-19)
(5.86804 -0.122015 0)
(6.1775 -0.0963757 0)
(6.42907 -0.0711647 0)
(6.62219 -0.0474171 0)
(6.76048 -0.0241581 0)
(6.84315 0.0108924 0)
(6.82852 0.0606706 0)
(6.71521 0.116237 8.08652e-20)
(6.51019 0.167678 -7.89802e-20)
(6.22255 0.208759 0)
(5.8649 0.236005 0)
(5.45342 0.247521 0)
(5.0067 0.243101 0)
(4.54476 0.224297 -1.56219e-19)
(4.08785 0.19412 0)
(3.65472 0.156468 1.58913e-19)
(3.26111 0.115411 -1.60365e-19)
(2.91866 0.0747832 0)
(2.63419 0.0381562 0)
(2.40864 0.00842454 0)
(2.23884 -0.0126104 1.66371e-19)
(2.11695 -0.0242746 1.67798e-19)
(2.03144 -0.0272141 0)
(1.96948 -0.0235849 1.70099e-19)
(1.91931 -0.0165785 1.70864e-19)
(1.87236 -0.00941736 -1.71375e-19)
(1.82444 -0.00449872 0)
(1.77537 -0.00290134 0)
(1.72776 -0.00448958 -1.71859e-19)
(1.68546 -0.00853999 0)
(1.65253 -0.0142934 0)
(1.63323 -0.0211135 0)
(1.63061 -0.0288501 0)
(1.64534 -0.0362835 1.70455e-19)
(1.67567 -0.041461 1.69765e-19)
(1.71919 -0.0443478 0)
(1.77262 -0.0454704 1.68256e-19)
(1.83238 -0.0452665 0)
(1.89532 -0.0441683 0)
(1.9589 -0.0423929 1.6602e-19)
(2.02117 -0.0401099 0)
(2.08036 -0.0368587 1.64919e-19)
(2.13371 -0.0310237 0)
(2.17566 -0.0206718 0)
(2.19829 -0.00669546 1.64806e-19)
(2.19587 0.00407952 0)
(2.18242 0.00237164 1.65686e-19)
(2.18905 -0.0141414 0)
(2.27444 -0.0408095 0)
(2.49687 -0.0728136 0)
(2.73048 -0.0846672 -1.6617e-19)
(2.42482 0.0674256 0)
(0.648849 0.484938 1.35003e-19)
(-2.03773 0.683758 0)
(-4.29067 0.540901 0)
(-5.78342 0.31215 0)
(-6.51878 0.117233 0)
(-6.61452 -0.01705 0)
(-6.27889 -0.10621 0)
(-5.60562 -0.175021 0)
(-4.66385 -0.225829 -3.82621e-20)
(-3.53396 -0.256705 0)
(-2.3019 -0.278228 0)
(-0.0816363 0.0233312 2.33616e-20)
(-0.251468 0.011442 -2.28804e-20)
(-0.419953 0.00857399 0)
(-0.660557 0.117946 1.47329e-20)
(-0.974763 0.304603 0)
(-1.3617 0.531033 8.61626e-21)
(-1.81031 0.772406 -1.63837e-20)
(-2.30443 1.00657 -1.70052e-20)
(-2.82857 1.21478 0)
(-3.36678 1.38312 -1.85129e-20)
(-3.90294 1.50326 -8.40599e-21)
(-4.42176 1.57209 0)
(-4.91 1.59045 0)
(-5.35717 1.5621 0)
(-5.75596 1.49288 0)
(-6.10218 1.38973 -1.13537e-20)
(-6.39433 1.25981 0)
(-6.63301 1.10987 3.18519e-20)
(-6.82035 0.94579 0)
(-6.95931 0.772422 0)
(-7.05327 0.593762 -3.56383e-20)
(-7.10572 0.413376 0)
(-7.11911 0.234754 3.53576e-20)
(-7.09625 0.06167 -1.45392e-20)
(-7.03975 -0.102466 1.34172e-20)
(-6.93451 -0.256415 -1.18928e-20)
(-6.77945 -0.400466 -9.99722e-21)
(-6.57397 -0.534251 0)
(-6.31969 -0.657178 0)
(-6.01952 -0.7686 2.12827e-21)
(-5.6773 -0.868045 -2.16404e-21)
(-5.29742 -0.955355 0)
(-4.88456 -1.03076 0)
(-4.44336 -1.09488 -1.32818e-20)
(-3.97826 -1.14873 0)
(-3.49329 -1.19367 0)
(-2.99192 -1.23126 2.87246e-20)
(-2.47709 -1.26315 0)
(-1.95118 -1.29082 -3.72654e-20)
(-1.41606 -1.31542 9.74296e-20)
(-0.872796 -1.33762 0)
(-0.320065 -1.35772 0)
(0.245406 -1.37586 2.34228e-19)
(0.822896 -1.39064 2.19443e-19)
(1.4118 -1.39967 2.05456e-19)
(2.01139 -1.39934 -9.23059e-20)
(2.6181 -1.38535 9.31671e-20)
(3.22494 -1.35365 2.5451e-19)
(3.82132 -1.2984 -1.56584e-19)
(4.40453 -1.19952 -7.56577e-20)
(4.99461 -1.00779 0)
(5.66542 -0.658561 6.60761e-20)
(6.40795 -0.147609 -5.54771e-20)
(7.05126 0.410302 0)
(7.45649 0.867626 0)
(7.54653 1.13962 0)
(7.29645 1.21369 4.90241e-20)
(6.75602 1.12914 0)
(6.03236 0.961968 -1.01688e-19)
(5.24519 0.806722 0)
(4.48096 0.723123 -1.10604e-19)
(3.77594 0.689997 0)
(3.14499 0.626037 1.13784e-19)
(2.6166 0.449409 0)
(2.24208 0.131303 -1.17103e-19)
(2.08262 -0.27216 5.40515e-20)
(2.15033 -0.646764 0)
(2.43039 -0.859171 1.07197e-19)
(2.84987 -0.827978 5.39388e-20)
(3.28726 -0.600975 5.31715e-20)
(3.6436 -0.334563 0)
(3.87817 -0.183673 5.04484e-20)
(3.9504 -0.177732 5.12171e-20)
(3.66755 -0.083088 0)
(2.68229 0.469341 -5.71528e-20)
(0.880491 1.43021 1.07172e-19)
(-1.28491 2.25086 0)
(-3.37076 2.71245 3.1842e-20)
(-5.20885 2.83232 0)
(-6.71304 2.69884 -2.16444e-20)
(-7.88961 2.4162 0)
(-8.77215 2.06824 -3.81186e-20)
(-9.41059 1.71025 -1.72487e-20)
(-9.85848 1.37315 3.93854e-20)
(-10.1638 1.07021 9.17094e-20)
(-10.3646 0.803941 -1.02538e-19)
(-10.4885 0.571492 0)
(-10.5541 0.368425 0)
(-10.573 0.191034 0)
(-10.5486 0.0362768 3.40322e-19)
(-10.4807 -0.0991477 1.07969e-19)
(-10.3412 -0.219472 -1.03561e-19)
(-10.133 -0.330626 0)
(-9.8555 -0.435685 -9.56061e-20)
(-9.50948 -0.536457 7.74017e-20)
(-9.09539 -0.633923 6.4602e-20)
(-8.61354 -0.728341 0)
(-8.06437 -0.819214 0)
(-7.44909 -0.905281 0)
(-6.77024 -0.984595 -6.31758e-21)
(-6.03227 -1.05472 0)
(-5.24175 -1.11302 9.85161e-20)
(-4.40748 -1.15703 2.2974e-19)
(-3.54039 -1.18486 -2.05934e-19)
(-2.65336 -1.19573 0)
(-1.7604 -1.19039 -1.58975e-19)
(-0.873934 -1.17057 0)
(-0.00396163 -1.13536 -4.2564e-19)
(0.839623 -1.0824 2.04458e-19)
(1.64917 -1.01917 1.93548e-19)
(2.41394 -0.949643 0)
(3.12829 -0.87529 5.20746e-19)
(3.78934 -0.798033 -3.23028e-19)
(4.39514 -0.719673 -1.52031e-19)
(4.94445 -0.641435 0)
(5.43684 -0.564172 -1.31423e-19)
(5.87256 -0.488539 -3.64524e-19)
(6.25239 -0.41507 0)
(6.57739 -0.34413 -2.10629e-19)
(6.84908 -0.275678 -1.97218e-19)
(7.07103 -0.209952 -1.85441e-19)
(7.24296 -0.145646 0)
(7.37057 -0.0758454 0)
(7.49706 -0.000282883 0)
(7.62259 0.0786484 7.40891e-20)
(7.73604 0.156643 7.23517e-20)
(7.82278 0.230545 0)
(7.86811 0.297762 1.32321e-19)
(7.86044 0.354946 1.28498e-19)
(7.79308 0.398202 0)
(7.66506 0.424265 1.24394e-19)
(7.48127 0.431368 2.438e-19)
(7.25164 0.419686 -1.21506e-19)
(6.98963 0.391308 -1.20753e-19)
(6.71021 0.349897 0)
(6.42764 0.300271 0)
(6.15358 0.247703 0)
(5.89597 0.197156 -1.2504e-19)
(5.65871 0.152818 1.27924e-19)
(5.44265 0.117606 2.59241e-19)
(5.24681 0.0926317 -1.31367e-19)
(5.06941 0.0770717 1.33494e-19)
(4.90828 0.0685955 1.34714e-19)
(4.76114 0.0641263 0)
(4.62599 0.0607095 0)
(4.5014 0.0562109 -1.37992e-19)
(4.38666 0.0495394 0)
(4.28156 0.0403817 0)
(4.18618 0.0291692 2.8078e-19)
(4.09919 0.016839 0)
(4.01944 0.00429242 1.42095e-19)
(3.94657 -0.00715926 -1.42665e-19)
(3.87981 -0.0167474 0)
(3.81807 -0.0239722 1.44372e-19)
(3.76009 -0.0285901 0)
(3.70504 -0.0306701 0)
(3.65232 -0.03102 -1.46682e-19)
(3.60086 -0.0298751 2.94907e-19)
(3.54918 -0.0268883 -1.48388e-19)
(3.49554 -0.0217508 0)
(3.43909 -0.0143387 0)
(3.382 -0.00501897 1.51049e-19)
(3.32967 0.00321848 0)
(3.28172 0.00190017 1.53133e-19)
(3.25526 -0.0261206 0)
(3.31172 -0.0968514 0)
(3.47046 -0.133117 0)
(3.27779 0.172149 1.57195e-19)
(1.30735 1.06735 0)
(-2.14114 1.80094 -1.06173e-19)
(-4.63832 1.69845 0)
(-5.88531 1.17244 0)
(-6.38151 0.638275 -8.32872e-20)
(-6.51572 0.212081 1.27904e-19)
(-6.43883 -0.110313 0)
(-6.05998 -0.361793 0)
(-5.36542 -0.565931 0)
(-4.40542 -0.720946 9.23568e-20)
(-3.25759 -0.815827 0)
(-2.0128 -0.861086 -4.01044e-19)
(-0.167224 0.599145 -1.19045e-21)
(-0.504995 0.624189 2.40061e-20)
(-0.880919 0.737112 0)
(-1.32844 0.974651 -2.35096e-20)
(-1.81708 1.25831 0)
(-2.33303 1.55144 0)
(-2.85655 1.8262 -1.57222e-21)
(-3.36862 2.05974 1.37723e-20)
(-3.85414 2.23687 1.80219e-20)
(-4.30313 2.34935 1.57359e-20)
(-4.7108 2.3953 0)
(-5.07689 2.37817 0)
(-5.40457 2.30518 -2.68168e-20)
(-5.69922 2.18568 -5.85316e-20)
(-5.96688 2.02965 6.34366e-20)
(-6.21282 1.84637 0)
(-6.44035 1.64363 7.26823e-20)
(-6.65011 1.42731 -3.11354e-20)
(-6.83991 1.20149 0)
(-7.00504 0.96883 8.26597e-20)
(-7.13883 0.731027 3.49959e-20)
(-7.23355 0.489261 -8.47666e-20)
(-7.2816 0.244788 -3.47959e-20)
(-7.27672 -0.000964234 0)
(-7.21521 -0.246172 7.50734e-20)
(-7.09625 -0.486834 6.79518e-20)
(-6.92086 -0.717905 0)
(-6.69108 -0.935372 4.96776e-20)
(-6.41007 -1.13601 0)
(-6.08195 -1.31741 2.62634e-20)
(-5.71172 -1.47801 9.21636e-22)
(-5.30489 -1.6171 0)
(-4.86726 -1.73481 0)
(-4.40462 -1.83213 0)
(-3.92244 -1.9108 0)
(-3.42566 -1.9732 0)
(-2.91851 -2.02218 0)
(-2.40441 -2.06086 -1.1209e-19)
(-1.88603 -2.09242 2.07713e-19)
(-1.3652 -2.11985 0)
(-0.842999 -2.1456 0)
(-0.318574 -2.1712 0)
(0.210568 -2.19694 -1.42202e-20)
(0.74474 -2.22052 -2.05416e-19)
(1.28526 -2.23922 -3.76885e-19)
(1.8339 -2.24846 3.56208e-19)
(2.39155 -2.24059 1.62857e-19)
(2.95729 -2.2048 -1.62552e-19)
(3.52677 -2.12912 8.31361e-21)
(4.09044 -2.00494 -1.35863e-19)
(4.63713 -1.82871 0)
(5.17237 -1.5853 -1.20697e-19)
(5.73769 -1.2329 6.72041e-21)
(6.39756 -0.716711 0)
(7.12928 -0.0432247 0)
(7.76917 0.667235 8.38272e-20)
(8.14565 1.26891 0)
(8.16124 1.6702 0)
(7.81676 1.85583 -6.98218e-20)
(7.1947 1.87507 -1.57299e-19)
(6.4218 1.80217 8.68973e-20)
(5.62357 1.68019 0)
(4.89027 1.48919 -8.95508e-20)
(4.26882 1.16695 0)
(3.77742 0.66095 -9.08564e-20)
(3.43866 -0.00830678 -9.69235e-20)
(3.29515 -0.694994 1.85879e-19)
(3.36338 -1.17927 9.22848e-20)
(3.59494 -1.29313 0)
(3.86766 -1.07084 -1.9263e-19)
(4.04521 -0.709422 0)
(3.9668 -0.323555 -3.04615e-19)
(3.24142 0.354927 -2.11255e-19)
(1.56724 1.59118 -2.10965e-19)
(-0.701329 2.98479 1.6415e-19)
(-2.89329 3.97398 -1.79202e-19)
(-4.70872 4.44623 0)
(-6.06639 4.47647 0)
(-7.01528 4.18896 1.99074e-21)
(-7.65386 3.70703 -2.43999e-20)
(-8.09573 3.14662 0)
(-8.43329 2.59075 3.08263e-20)
(-8.72478 2.08518 0)
(-8.9954 1.64595 -2.34493e-19)
(-9.24705 1.27092 2.51726e-20)
(-9.46959 0.94984 -2.16488e-20)
(-9.64935 0.670705 2.33846e-19)
(-9.77397 0.42268 0)
(-9.83493 0.19721 -2.54706e-19)
(-9.82798 -0.0116254 1.45152e-20)
(-9.75256 -0.208061 0)
(-9.61068 -0.394099 0)
(-9.40407 -0.57038 0)
(-9.13325 -0.738977 1.88042e-19)
(-8.79832 -0.901808 0)
(-8.39886 -1.06016 0)
(-7.93415 -1.21436 0)
(-7.40356 -1.36354 0)
(-6.8072 -1.50548 0)
(-6.14669 -1.63677 7.33157e-21)
(-5.42573 -1.75308 0)
(-4.65059 -1.8497 -9.67855e-20)
(-3.83018 -1.92225 -1.47233e-19)
(-2.97598 -1.96753 2.00426e-19)
(-2.10183 -1.98432 0)
(-1.22273 -1.9735 3.14473e-19)
(-0.350651 -1.93593 0)
(0.502982 -1.87135 3.7823e-19)
(1.32713 -1.78193 -3.66035e-19)
(2.11291 -1.67703 -1.03783e-18)
(2.85247 -1.56132 0)
(3.54119 -1.43822 -9.39511e-19)
(4.17634 -1.31092 -2.88658e-19)
(4.7563 -1.18201 0)
(5.28016 -1.05345 -5.19899e-19)
(5.74768 -0.926675 -4.87484e-19)
(6.15917 -0.80282 6.88582e-19)
(6.51546 -0.682766 0)
(6.81784 -0.567217 2.03826e-19)
(7.06814 -0.456836 1.9183e-19)
(7.26887 -0.351491 5.39024e-19)
(7.42335 -0.250998 0)
(7.53322 -0.158942 0)
(7.60214 -0.0764536 0)
(7.64079 0.00123749 1.4708e-19)
(7.6612 0.0776853 0)
(7.6752 0.15417 0)
(7.69124 0.230148 -1.33666e-19)
(7.71187 0.303082 -1.29276e-19)
(7.73373 0.368814 0)
(7.74918 0.422607 0)
(7.74869 0.460186 -2.37845e-19)
(7.72347 0.478656 0)
(7.66755 0.477144 2.2953e-19)
(7.57875 0.457069 2.2743e-19)
(7.4587 0.42207 0)
(7.31211 0.377499 0)
(7.14556 0.329516 -2.30275e-19)
(6.96636 0.283988 8.36342e-22)
(6.78158 0.245276 6.35765e-22)
(6.59736 0.215347 0)
(6.41837 0.193707 -4.84118e-19)
(6.24751 0.178123 0)
(6.08608 0.165734 0)
(5.93414 0.154006 0)
(5.79096 0.141249 2.51232e-19)
(5.65545 0.126691 0)
(5.52637 0.110277 -5.10677e-19)
(5.40241 0.0925313 -2.5703e-19)
(5.28231 0.0746346 0)
(5.16517 0.0581039 -2.61596e-19)
(5.05028 0.0439126 0)
(4.93681 0.0326329 0)
(4.82406 0.024425 -8.07695e-19)
(4.71161 0.0191722 5.4348e-19)
(4.59861 0.0166931 0)
(4.48391 0.0161576 5.53496e-19)
(4.36692 0.0172093 -2.79654e-19)
(4.24724 0.0204425 0)
(4.12458 0.0267279 0)
(3.99915 0.03607 0)
(3.87281 0.0466539 -8.72349e-19)
(3.74865 0.0536956 0)
(3.63532 0.0424821 -2.97965e-19)
(3.57217 -0.0224513 0)
(3.61354 -0.131896 0)
(3.56833 0.00987506 0)
(2.42177 1.00592 0)
(-0.770658 2.51549 0)
(-3.51537 2.97334 0)
(-4.72755 2.36749 -8.37454e-20)
(-5.32021 1.50385 0)
(-5.78042 0.797764 8.4497e-20)
(-6.05541 0.252419 -4.35818e-19)
(-6.03365 -0.20094 0)
(-5.68793 -0.598261 0)
(-5.0351 -0.934766 1.21412e-19)
(-4.11395 -1.19565 -5.34742e-20)
(-2.99262 -1.3581 1.91027e-19)
(-1.76691 -1.41854 3.77602e-19)
(-0.209455 1.40787 -3.91439e-20)
(-0.636781 1.49705 -3.68421e-20)
(-1.10684 1.70724 -2.60865e-20)
(-1.61807 2.016 -1.66452e-20)
(-2.13491 2.32553 0)
(-2.64279 2.60307 3.17205e-20)
(-3.12473 2.82588 -2.22667e-20)
(-3.57114 2.98248 0)
(-3.97909 3.07084 -1.69189e-20)
(-4.35158 3.09482 0)
(-4.69575 3.06213 5.54177e-20)
(-5.02058 2.98212 0)
(-5.33464 2.86385 2.60936e-20)
(-5.64404 2.71456 5.69816e-20)
(-5.95115 2.53879 -6.16463e-20)
(-6.25421 2.33855 0)
(-6.54773 2.11401 -7.01756e-20)
(-6.82357 1.86466 0)
(-7.07216 1.59037 0)
(-7.28379 1.2922 -7.946e-20)
(-7.4495 0.972845 0)
(-7.56172 0.636476 -2.0619e-20)
(-7.6148 0.288525 0)
(-7.60482 -0.0645468 0)
(-7.53015 -0.416354 2.01278e-20)
(-7.39058 -0.760137 -6.51935e-20)
(-7.18744 -1.08941 -7.55412e-20)
(-6.92376 -1.39822 -4.74477e-20)
(-6.60406 -1.68151 0)
(-6.23403 -1.9354 -6.61219e-20)
(-5.82031 -2.15729 0)
(-5.37008 -2.34604 -1.28055e-20)
(-4.89074 -2.50185 0)
(-4.38958 -2.62628 0)
(-3.87341 -2.72201 -3.6224e-20)
(-3.34836 -2.79268 0)
(-2.81958 -2.84265 7.27463e-20)
(-2.29123 -2.87673 1.41293e-20)
(-1.76644 -2.89988 -2.39327e-19)
(-1.24737 -2.91694 2.66344e-19)
(-0.73513 -2.93232 0)
(-0.228341 -2.94941 0)
(0.274575 -2.96979 1.52913e-19)
(0.774688 -2.99146 0)
(1.27486 -3.01179 1.71636e-19)
(1.77869 -3.02608 -1.63814e-19)
(2.28962 -3.02642 -1.55749e-19)
(2.81085 -3.00093 0)
(3.34521 -2.93271 1.39387e-19)
(3.89393 -2.80034 1.31454e-19)
(4.45297 -2.5844 -2.29287e-19)
(5.00885 -2.28089 1.17094e-19)
(5.54278 -1.90886 1.1068e-19)
(6.05388 -1.48078 0)
(6.58438 -0.94784 0)
(7.19024 -0.22243 -8.94063e-20)
(7.80641 0.661715 0)
(8.25513 1.52723 0)
(8.39496 2.20034 1.39043e-19)
(8.18979 2.59929 1.38005e-19)
(7.70585 2.73433 0)
(7.06426 2.65374 0)
(6.38342 2.38929 0)
(5.74227 1.94023 0)
(5.18039 1.28979 1.55948e-19)
(4.7187 0.4405 -1.74493e-19)
(4.39199 -0.496193 -1.68477e-19)
(4.23785 -1.23604 -3.47793e-19)
(4.21351 -1.48004 0)
(4.16159 -1.15968 -1.19423e-21)
(3.83238 -0.409617 0)
(2.78706 0.839045 2.14697e-19)
(0.830006 2.61444 1.22455e-20)
(-1.46433 4.3047 1.52112e-19)
(-3.43888 5.40496 -1.16546e-19)
(-4.88602 5.85554 3.86284e-20)
(-5.83774 5.78351 0)
(-6.41384 5.36289 1.27533e-20)
(-6.76676 4.7601 -1.97995e-21)
(-7.0276 4.10232 1.10909e-19)
(-7.28027 3.47102 0)
(-7.55627 2.90106 -1.44088e-19)
(-7.85039 2.39636 0)
(-8.14137 1.94728 3.7645e-19)
(-8.40649 1.54202 -2.00913e-19)
(-8.62818 1.17126 2.25274e-19)
(-8.79525 0.828897 -2.45121e-19)