/*--------------------------------*- C++ -*----------------------------------*\
| =========                 |                                                 |
| \\      /  F ield         | OpenFOAM: The Open Source CFD Toolbox           |
|  \\    /   O peration     | Version:  2112                                  |
|   \\  /    A nd           | Website:  www.openfoam.com                      |
|    \\/     M anipulation  |                                                 |
\*---------------------------------------------------------------------------*/
FoamFile
{
    version     2.0;
    format      ascii;
    arch        "LSB;label=32;scalar=64";
    class       volScalarField;
    location    "0.59";
    object      k;
}
// * * * * * * * * * * * * * * * * * * * * * * * * * * * * * * * * * * * * * //

dimensions      [0 2 -2 0 0 0 0];

internalField   nonuniform List<scalar> 
12225
(
1.33289
2.07376
2.63626
3.12234
3.59708
4.09461
4.63309
5.22415
5.877
6.59928
7.39675
8.27274
9.22767
10.259
11.361
12.5281
13.7461
14.9394
0.413517
0.479698
0.55503
0.638965
0.732445
0.837257
0.955323
1.08756
1.23351
1.39149
1.55889
1.73266
1.90992
2.08868
2.26855
2.45243
2.65864
2.94731
0.377457
0.385066
0.395621
0.406766
0.416046
0.424449
0.433147
0.443143
0.455064
0.469192
0.485563
0.504187
0.525184
0.548898
0.575961
0.607575
0.645685
0.691176
0.374976
0.375502
0.37689
0.379044
0.381754
0.384806
0.387965
0.391035
0.393783
0.395571
0.396448
0.396539
0.396022
0.395121
0.3941
0.39326
0.392966
0.393392
0.374745
0.374549
0.374547
0.37473
0.375144
0.375738
0.376493
0.377374
0.378339
0.379299
0.380186
0.380948
0.38155
0.381975
0.382151
0.382084
0.381854
0.381547
0.374637
0.374312
0.374049
0.373851
0.373766
0.373799
0.37393
0.374129
0.374371
0.374639
0.374917
0.375188
0.375441
0.375667
0.37586
0.376027
0.376189
0.37638
0.374544
0.374125
0.373767
0.373474
0.373273
0.373165
0.373126
0.373133
0.37317
0.373221
0.373275
0.373322
0.37336
0.37339
0.373423
0.373477
0.373564
0.373689
0.374478
0.373998
0.373576
0.373219
0.372944
0.372753
0.372632
0.372557
0.372512
0.37248
0.372451
0.372415
0.372373
0.372328
0.372293
0.372284
0.372316
0.372378
0.374432
0.373909
0.373445
0.373042
0.372711
0.372453
0.372257
0.372108
0.371994
0.3719
0.371816
0.371734
0.371652
0.371574
0.371507
0.371464
0.371459
0.371483
0.374397
0.373842
0.373346
0.372909
0.372536
0.372226
0.371972
0.371761
0.371584
0.37143
0.371292
0.371163
0.371042
0.37093
0.370833
0.370759
0.370716
0.370705
0.374372
0.373791
0.373269
0.372805
0.372398
0.372049
0.371749
0.371489
0.37126
0.371056
0.370869
0.370696
0.370536
0.370389
0.370258
0.370148
0.370063
0.370005
0.374354
0.373754
0.373212
0.372726
0.372295
0.371916
0.371583
0.371287
0.371021
0.370778
0.370555
0.370347
0.370154
0.369975
0.369813
0.369669
0.369546
0.369444
0.37434
0.373724
0.373165
0.372661
0.372208
0.371805
0.371444
0.371118
0.370822
0.370549
0.370295
0.370058
0.369836
0.369629
0.369437
0.369261
0.369103
0.368962
0.374327
0.373698
0.373122
0.3726
0.372127
0.371699
0.371313
0.37096
0.370636
0.370334
0.370052
0.369787
0.369538
0.369302
0.369081
0.368874
0.368681
0.3685
0.374317
0.373675
0.373084
0.372545
0.372053
0.371604
0.371194
0.370816
0.370465
0.370138
0.36983
0.369539
0.369263
0.369
0.368751
0.368513
0.368287
0.368071
0.374309
0.373657
0.373054
0.372499
0.37199
0.371522
0.37109
0.37069
0.370317
0.369966
0.369634
0.369319
0.369018
0.368731
0.368454
0.368189
0.367933
0.367686
0.374304
0.373645
0.373032
0.372465
0.371942
0.371458
0.371009
0.37059
0.370197
0.369826
0.369474
0.369138
0.368815
0.368506
0.368207
0.367918
0.367638
0.367366
0.374302
0.373639
0.37302
0.372445
0.371912
0.371416
0.370954
0.370521
0.370113
0.369726
0.369358
0.369006
0.368667
0.368341
0.368025
0.367719
0.367422
0.367134
0.374303
0.373641
0.37302
0.372443
0.371906
0.371405
0.370936
0.370495
0.37008
0.369685
0.369308
0.368947
0.368599
0.368264
0.36794
0.367626
0.367321
0.367027
0.374308
0.373651
0.373036
0.372462
0.371928
0.371429
0.370962
0.370524
0.37011
0.369717
0.369342
0.368982
0.368637
0.368303
0.367981
0.367669
0.367367
0.367076
0.374316
0.373667
0.37306
0.372494
0.371966
0.371475
0.371015
0.370584
0.370178
0.369793
0.369427
0.369076
0.368739
0.368415
0.368102
0.367799
0.367506
0.367223
0.374328
0.37369
0.373094
0.372538
0.37202
0.371538
0.37109
0.370671
0.370278
0.369907
0.369556
0.369221
0.368901
0.368593
0.368297
0.36801
0.367733
0.367466
0.374344
0.373721
0.373138
0.372595
0.37209
0.371622
0.37119
0.370788
0.370415
0.370065
0.369737
0.369428
0.369133
0.368853
0.368583
0.368324
0.368074
0.367832
0.374366
0.373764
0.373198
0.372669
0.37218
0.371733
0.371326
0.370954
0.370615
0.370303
0.370017
0.36975
0.369501
0.369266
0.369042
0.368827
0.36862
0.368421
0.374401
0.373829
0.373292
0.37279
0.37233
0.371918
0.371551
0.37123
0.37095
0.370711
0.370508
0.370337
0.370195
0.370075
0.369973
0.369886
0.369809
0.369742
0.374453
0.373922
0.373444
0.373032
0.372699
0.372456
0.372298
0.372224
0.372232
0.37232
0.372482
0.372711
0.372992
0.373296
0.373615
0.37394
0.374261
0.374567
0.37453
0.374099
0.373951
0.374189
0.374819
0.375737
0.376866
0.378138
0.379499
0.380901
0.382301
0.383662
0.384956
0.38616
0.387255
0.388164
0.388788
0.389161
0.375453
0.377936
0.381874
0.386793
0.392358
0.39801
0.402474
0.406074
0.4092
0.412214
0.415411
0.419002
0.423121
0.427829
0.433135
0.43903
0.445494
0.452569
0.389694
0.418267
0.453325
0.49336
0.537421
0.585308
0.637488
0.694451
0.756469
0.823497
0.895398
0.971882
1.05249
1.1366
1.2235
1.31248
1.40288
1.49412
1.01849
1.54922
1.96135
2.30748
2.6248
2.93381
3.24519
3.56459
3.8933
4.22992
4.57976
4.94607
5.3308
5.73506
6.15943
6.60409
7.0685
7.55224
0.902996
0.904702
0.964705
1.05269
1.16126
1.27557
1.3928
1.50982
1.62516
1.73855
1.85045
1.96163
2.07307
2.1858
2.30079
2.41895
2.54103
2.66765
2.79931
2.93648
3.07955
3.22911
3.38625
3.55199
3.72472
3.89084
4.04548
4.18722
4.31499
4.4276
4.52269
4.59565
4.63906
4.64345
4.60013
4.50534
4.36332
4.18618
3.99058
3.79316
3.60619
3.43532
3.27937
3.13083
2.97614
2.79343
2.56718
2.32828
2.11338
1.92701
1.75367
1.63826
1.75219
2.41667
4.06757
7.05257
10.0829
12.9074
15.5476
17.8908
19.8679
21.4464
22.6198
23.401
23.8133
23.8864
23.7235
23.4212
22.9967
22.4632
21.8308
21.1066
20.2956
19.3999
18.511
17.6271
16.747
15.8715
15.0028
14.1433
13.2954
12.4615
11.6443
10.8467
10.0715
9.32088
8.59773
7.90635
7.25071
6.6351
6.06466
5.54611
5.08919
4.70968
4.43469
4.30915
4.40367
4.70755
5.09347
5.54673
6.05628
6.61366
7.21507
7.86101
8.5585
9.31644
10.1462
11.0647
12.0949
13.2606
14.5709
15.9726
17.2769
18.4039
19.285
19.8246
19.9284
19.545
18.7103
17.5607
16.2929
15.0834
14.0074
13.0187
11.9874
10.8145
9.60035
8.73631
9.2032
11.605
15.0697
18.0798
20.434
21.809
22.0616
21.4619
20.4294
19.0717
17.4647
15.8318
14.2699
12.8077
11.4822
10.3328
9.40922
8.79001
8.6156
9.39304
11.3044
13.7949
16.6214
19.9299
23.7663
28.1511
33.1079
38.6716
44.8936
51.8434
59.5998
68.2146
77.6432
87.5486
96.7748
104.888
111.584
116.481
119.179
119.387
117.048
112.39
105.882
98.1044
89.5699
80.5733
71.1769
61.3283
51.065
40.6761
30.8274
22.1655
1.77239
1.52766
1.48168
1.495
1.53266
1.57549
1.61296
1.64016
1.65456
1.65693
1.64881
1.63074
1.60398
1.57052
1.53211
1.49029
1.44642
1.40166
1.35699
1.31323
1.27109
1.23115
1.1938
1.15966
1.13099
1.11914
1.12425
1.14162
1.16573
1.19057
1.21011
1.21901
1.21354
1.19287
1.15962
1.11898
1.07693
1.03864
1.00784
0.987409
0.980478
0.990726
1.02071
1.069
1.12841
1.1882
1.24653
1.34459
1.6035
2.21277
3.31863
4.95738
6.85747
8.15599
9.21728
10.0559
10.5756
10.7931
10.7399
10.4537
9.98243
9.37758
8.6886
7.95929
7.22655
6.5219
5.87306
5.2988
4.81127
4.41979
4.1315
3.95137
3.88092
3.92435
3.97127
4.01884
4.06541
4.1095
4.14991
4.1856
4.21565
4.23932
4.25583
4.26394
4.26204
4.25527
4.24609
4.23358
4.21684
4.19511
4.16783
4.13471
4.09566
4.05023
3.99677
3.9319
3.85829
3.78913
3.71824
3.64499
3.56575
3.47067
3.36122
3.24254
3.12064
3.00165
2.89091
2.79257
2.71087
2.65295
2.63572
2.70858
2.98707
3.4419
3.97257
4.50018
4.95027
5.23879
5.28082
5.02866
4.52602
3.93945
3.5159
3.46108
3.83354
4.61373
5.83338
7.49689
9.29575
10.4478
10.5465
10.0225
9.12394
8.0671
7.04047
6.20002
5.62746
5.34272
5.34424
5.44153
5.54954
5.66257
5.77511
5.8811
5.9738
6.05286
6.13959
6.23792
6.32843
6.40994
6.48202
6.53434
6.5585
6.59053
6.64726
6.7408
6.883
7.08996
7.38579
7.80646
8.42051
9.45939
11.6132
14.7578
18.4915
22.4589
26.2991
29.6763
32.3107
33.9566
34.4657
33.8648
32.3394
30.1316
27.4281
24.3289
20.8947
17.2417
13.609
10.2931
3.13252
2.32804
2.08116
1.98577
1.94423
1.9184
1.89239
1.86086
1.82218
1.77817
1.72973
1.67751
1.62296
1.56723
1.51126
1.45579
1.40139
1.34848
1.29738
1.24827
1.20126
1.15643
1.11377
1.07328
1.03499
0.999101
0.966406
0.937632
0.912998
0.892232
0.87453
0.858785
0.844076
0.830265
0.818322
0.810086
0.807466
0.811561
0.822264
0.838763
0.860839
0.890412
0.932794
0.998204
1.10571
1.29572
1.66399
2.41578
3.76268
5.62449
7.09869
7.88011
8.34666
8.51231
8.45543
8.19398
7.77811
7.25788
6.67691
6.07715
5.49722
4.96838
4.5123
4.14026
3.85477
3.65126
3.52024
3.44923
3.42457
3.43318
3.46331
3.50511
3.55064
3.59198
3.62718
3.65563
3.67705
3.6918
3.70051
3.70376
3.70206
3.69685
3.69281
3.69084
3.69129
3.69406
3.69829
3.70238
3.70432
3.70197
3.6935
3.67789
3.65527
3.62642
3.59136
3.54779
3.49963
3.45216
3.40143
3.34661
3.28501
3.21325
3.12869
3.02685
2.9131
2.79547
2.67934
2.56865
2.4661
2.37344
2.29191
2.22293
2.16978
2.14638
2.1842
2.28728
2.44466
2.62315
2.76707
2.8132
2.73016
2.57115
2.48759
2.66941
3.28312
4.45934
6.1975
8.05537
9.03261
8.65696
7.71424
6.6797
5.77968
5.12184
4.71974
4.53245
4.49356
4.53952
4.6253
4.72304
4.82308
4.91781
4.99573
5.06241
5.12444
5.17754
5.21548
5.23471
5.23995
5.23454
5.22113
5.20121
5.17476
5.14475
5.11418
5.08527
5.05855
5.02993
5.00673
5.00424
5.04249
5.15464
5.45966
6.14074
7.29736
8.9682
11.0836
13.4583
15.803
17.7638
19.0276
19.4411
19.0499
18.0504
16.6673
15.0449
13.2281
11.2335
9.1484
7.13519
4.96643
3.23046
2.65268
2.37836
2.21439
2.09537
1.9957
1.90552
1.82118
1.74142
1.66592
1.5946
1.5275
1.46466
1.40604
1.35153
1.30092
1.25393
1.21024
1.16949
1.13136
1.09553
1.06175
1.02982
0.999608
0.971049
0.944184
0.919259
0.896577
0.876492
0.859489
0.84627
0.837889
0.83579
0.841502
0.856049
0.879457
0.91094
0.950103
0.998766
1.06245
1.15048
1.27368
1.44583
1.72172
2.24164
3.2695
5.0348
6.79057
7.66151
7.91693
7.79772
7.48854
7.06236
6.5702
6.04259
5.51191
5.00592
4.54871
4.15942
3.8492
3.61957
3.46404
3.371
3.32706
3.31935
3.33666
3.36974
3.41125
3.45544
3.4979
3.53508
3.56114
3.57423
3.57344
3.55914
3.5316
3.49487
3.45336
3.40968
3.36663
3.32704
3.29365
3.26869
3.25369
3.24912
3.25411
3.26629
3.28169
3.29509
3.30071
3.29373
3.27212
3.23763
3.19512
3.15054
3.11224
3.07835
3.04721
3.01689
2.98378
2.94308
2.89017
2.81888
2.73162
2.63596
2.53733
2.44031
2.34872
2.26537
2.19179
2.12796
2.07256
2.02375
1.98112
1.95169
1.94281
1.96059
2.00096
2.04683
2.08256
2.13163
2.29216
2.72441
3.59593
5.00875
6.79416
8.17445
8.13238
7.14001
6.08985
5.24534
4.67424
4.34166
4.1768
4.11442
4.10838
4.13137
4.17179
4.22172
4.27557
4.32521
4.37865
4.43839
4.50051
4.55859
4.60445
4.63104
4.64238
4.64127
4.63023
4.61097
4.58546
4.55646
4.52643
4.49704
4.46872
4.43903
4.40077
4.35847
4.31915
4.29347
4.30646
4.43552
4.77069
5.42293
6.48333
7.97058
9.77971
11.662
13.2589
14.2434
14.4702
14.0154
13.088
11.8947
10.5482
9.07821
7.5262
5.98965
7.16712
4.07261
3.06256
2.58147
2.29559
2.09671
1.94197
1.81315
1.70197
1.60439
1.51821
1.44205
1.37495
1.31606
1.26457
1.21965
1.18042
1.14604
1.11565
1.08846
1.06378
1.04102
1.01977
0.999745
0.980865
0.963208
0.94702
0.932709
0.920856
0.912719
0.909895
0.914524
0.928712
0.953553
0.988478
1.03156
1.08109
1.1381
1.20857
1.30381
1.43902
1.63077
1.8939
2.28683
2.94814
4.12472
5.81091
7.07392
7.63617
7.56637
7.1596
6.62926
6.07907
5.54738
5.05168
4.60289
4.21304
3.89221
3.646
3.47326
3.36614
3.31271
3.30027
3.31759
3.35569
3.40766
3.46811
3.53262
3.59731
3.65859
3.71301
3.75147
3.76977
3.76468
3.73393
3.6854
3.62135
3.54409
3.45674
3.3632
3.26802
3.17615
3.09272
3.02259
2.96981
2.93706
2.9256
2.93448
2.95975
2.99395
3.02626
3.04425
3.03799
3.00389
2.94719
2.88307
2.82714
2.7796
2.74217
2.71386
2.69127
2.66915
2.64105
2.59897
2.53928
2.46788
2.38908
2.30701
2.2257
2.14882
2.07928
2.01879
1.96756
1.92404
1.8852
1.84788
1.81195
1.77959
1.7597
1.76536
1.81655
1.95604
2.27479
2.91491
4.01205
5.55708
7.1583
7.90372
7.204
6.09629
5.20717
4.60251
4.23363
4.02119
3.90279
3.83925
3.80829
3.79757
3.80251
3.81698
3.83606
3.86846
3.91599
3.97703
4.04669
4.11685
4.17475
4.214
4.23688
4.24395
4.23766
4.22133
4.19848
4.17232
4.14538
4.11941
4.09525
4.07219
4.04579
4.01017
3.96958
3.92885
3.89624
3.89534
3.97201
4.19768
4.67326
5.49774
6.71146
8.22484
9.81693
11.1766
11.9839
12.0951
11.6024
10.6996
9.55761
8.27558
6.92353
5.58638
9.39753
4.64874
3.2063
2.56277
2.20262
1.96443
1.78643
1.64331
1.52407
1.42352
1.33883
1.2681
1.20974
1.16225
1.1242
1.09412
1.07057
1.0522
1.03776
1.02614
1.01647
1.00808
1.00058
0.993828
0.987979
0.983528
0.981224
0.982092
0.987814
1.00094
1.02469
1.06113
1.10955
1.16684
1.22912
1.29476
1.36818
1.46063
1.58751
1.7656
2.01346
2.35878
2.85258
3.60185
4.79398
6.08072
7.0197
7.34039
7.11596
6.59061
5.9844
5.4106
4.90454
4.47021
4.10612
3.81263
3.59097
3.43913
3.35017
3.31341
3.31715
3.35109
3.40738
3.48042
3.56617
3.66134
3.76273
3.86686
3.96971
4.06668
4.15206
4.20973
4.23824
4.23299
4.19135
4.12271
4.02875
3.91173
3.775
3.62323
3.46231
3.29915
3.14166
2.9983
2.87696
2.78325
2.72199
2.69605
2.70512
2.744
2.80048
2.85493
2.8855
2.87564
2.82104
2.74231
2.65894
2.58076
2.51598
2.46794
2.43563
2.4145
2.39735
2.37522
2.33951
2.29195
2.23542
2.17259
2.10661
2.04097
1.97908
1.92374
1.87661
1.83779
1.80536
1.77568
1.74498
1.71153
1.68
1.66935
1.71939
1.89939
2.3175
3.11286
4.37626
5.95576
7.26765
7.46866
6.48282
5.43218
4.72829
4.2804
3.99857
3.8164
3.69546
3.61373
3.55864
3.52279
3.50215
3.48959
3.49284
3.51506
3.55756
3.61903
3.69419
3.7734
3.8402
3.8925
3.92665
3.94215
3.94147
3.92862
3.90797
3.88343
3.85791
3.83337
3.81087
3.79055
3.77082
3.74499
3.71287
3.67844
3.6464
3.62483
3.63354
3.70452
3.90271
4.32079
5.05109
6.12833
7.46163
8.84445
9.98806
10.6366
10.658
10.1209
9.20028
8.04742
6.78942
5.53909
11.2821
4.84563
3.10009
2.3965
2.02707
1.78736
1.60777
1.46357
1.34546
1.24929
1.17245
1.11264
1.06765
1.0353
1.01343
0.999964
0.992932
0.99052
0.991203
0.993802
0.997507
1.00186
1.00668
1.01181
1.01739
1.02489
1.03669
1.05713
1.09236
1.14772
1.22056
1.30435
1.39085
1.47252
1.54876
1.63418
1.74373
1.89335
2.09919
2.37928
2.76091
3.29667
4.08569
5.12874
6.10285
6.76117
6.93202
6.64778
6.10459
5.50088
4.94973
4.48745
4.11293
3.81762
3.59575
3.44334
3.35463
3.3206
3.33057
3.3745
3.4446
3.53556
3.64396
3.7674
3.90364
4.04994
4.2026
4.35679
4.50633
4.64379
4.75019
4.82793
4.87143
4.87571
4.83618
4.76045
4.65143
4.50999
4.338
4.13903
3.9185
3.6834
3.44303
3.20963
2.9974
2.81493
2.67171
2.57546
2.5311
2.53966
2.59448
2.67511
2.74963
2.7863
2.76295
2.69231
2.59287
2.48418
2.38311
2.30043
2.24045
2.20185
2.17875
2.16229
2.1421
2.11324
2.07694
2.0341
1.98636
1.93624
1.88676
1.84098
1.80135
1.76913
1.74377
1.72273
1.70213
1.67922
1.65598
1.64865
1.70173
1.90105
2.37578
3.27128
4.6342
6.17553
7.18991
7.01909
5.97783
5.03972
4.45709
4.09158
3.84283
3.66485
3.53507
3.43884
3.36712
3.31438
3.27378
3.24573
3.2354
3.24607
3.28056
3.33859
3.41625
3.49724
3.57438
3.63835
3.68275
3.70581
3.70984
3.69953
3.68012
3.65623
3.63115
3.60691
3.58459
3.56447
3.54584
3.52457
3.49689
3.46657
3.43762
3.41523
3.40986
3.43367
3.51983
3.72884
4.14552
4.84932
5.8597
7.0761
8.29293
9.25298
9.7322
9.63988
9.02129
8.04253
6.87575
5.67711
12.4445
4.67504
2.85159
2.19521
1.85827
1.63035
1.45315
1.31015
1.19589
1.10728
1.04129
0.99474
0.964511
0.947651
0.941389
0.943075
0.950179
0.960495
0.972397
0.984891
0.997556
1.01009
1.02209
1.03516
1.052
1.07761
1.12025
1.18892
1.28633
1.40288
1.5201
1.62821
1.72227
1.8063
1.90177
2.02636
2.1931
2.41524
2.70904
3.10072
3.64054
4.38381
5.18685
5.91781
6.38272
6.46104
6.17923
5.6787
5.12269
4.61794
4.20322
3.87912
3.6355
3.46406
3.35843
3.31115
3.31274
3.35317
3.4239
3.51885
3.63433
3.7683
3.91941
4.08607
4.26567
4.454
4.64494
4.83047
5.00121
5.14797
5.26224
5.34615
5.39511
5.40558
5.37401
5.3076
5.20737
5.07197
4.90041
4.69314
4.45293
4.1838
3.89121
3.58629
3.29114
3.01644
2.77705
2.58806
2.46058
2.40275
2.41876
2.49577
2.59815
2.68455
2.71355
2.67753
2.58683
2.46336
2.33152
2.211
2.11385
2.04443
2.00049
1.97497
1.9581
1.93988
1.91808
1.89208
1.86188
1.82862
1.79445
1.76205
1.73408
1.71242
1.69753
1.68803
1.68081
1.67274
1.66495
1.6704
1.73138
1.9397
2.43963
3.38368
4.78099
6.23786
7.00237
6.62635
5.63402
4.81989
4.31268
3.97286
3.73638
3.55969
3.42562
3.32187
3.24035
3.17574
3.1202
3.07707
3.05141
3.04783
3.07144
3.12195
3.19339
3.27767
3.36282
3.43646
3.48968
3.5191
3.52668
3.51772
3.4984
3.47402
3.44829
3.42334
3.40019
3.37907
3.35941
3.33841
3.31157
3.28211
3.25358
3.23049
3.22059
3.23063
3.2752
3.38818
3.62854
4.07367
4.78733
5.76808
6.89818
7.97419
8.7574
9.0563
8.80651
8.07227
7.03829
5.90031
12.8816
4.28357
2.59883
2.04554
1.74231
1.51836
1.33904
1.19643
1.08692
1.00676
0.951636
0.917184
0.899432
0.894867
0.900233
0.912326
0.928018
0.944758
0.961164
0.976835
0.992454
1.0086
1.02861
1.05829
1.10581
1.18092
1.29193
1.43547
1.57926
1.71433
1.8311
1.9297
2.02103
2.12724
2.27452
2.45668
2.68639
2.9809
3.36603
3.86709
4.44078
5.05358
5.58599
5.91341
5.95148
5.70996
5.28745
4.80806
4.36436
3.99831
3.71575
3.50951
3.37172
3.29559
3.27324
3.29523
3.35204
3.4359
3.54157
3.66621
3.80851
3.96784
4.14318
4.33235
4.53141
4.73442
4.93373
5.12041
5.28481
5.41468
5.51621
5.58586
5.62121
5.62122
5.5918
5.53787
5.45761
5.34805
5.20558
5.02684
4.81157
4.56228
4.27711
3.95741
3.62828
3.30059
2.98801
2.71436
2.49866
2.35457
2.30029
2.33832
2.43688
2.55147
2.63328
2.64963
2.59299
2.47846
2.33269
2.18265
2.04887
1.94314
1.86884
1.82258
1.79648
1.78021
1.76593
1.75157
1.73563
1.71786
1.69929
1.68193
1.66818
1.66018
1.65905
1.66434
1.67393
1.68499
1.69764
1.722
1.79521
2.00753
2.50971
3.45779
4.8335
6.18239
6.76484
6.30953
5.40914
4.69434
4.23306
3.91463
3.67991
3.50179
3.36873
3.26372
3.17665
3.10148
3.03097
2.97049
2.92679
2.90726
2.91545
2.95366
3.01961
3.10462
3.1953
3.27673
3.3372
3.37152
3.38125
3.37234
3.35195
3.32617
3.29913
3.27318
3.24933
3.22775
3.20769
3.18631
3.15981
3.13014
3.09983
3.07285
3.05585
3.05734
3.08374
3.153
3.30113
3.58661
4.07847
4.82174
5.79022
6.84628
7.78401
8.37926
8.47172
8.03557
7.18718
6.14038
12.687
3.84562
2.43673
1.97717
1.68361
1.45184
1.26715
1.12446
1.01889
0.945079
0.897381
0.870485
0.859815
0.861391
0.871482
0.886406
0.902754
0.918331
0.93323
0.94907
0.969507
1.0003
1.05008
1.12894
1.24412
1.38939
1.54678
1.70384
1.84502
1.96452
2.06931
2.17552
2.30209
2.46858
2.65566
2.88407
3.16623
3.49848
3.89039
4.32962
4.77496
5.15854
5.39424
5.42276
5.24398
4.9175
4.53111
4.15949
3.84415
3.59781
3.41889
3.3026
3.24344
3.23418
3.26568
3.3287
3.41567
3.52156
3.64385
3.78174
3.93529
4.10434
4.28765
4.4821
4.68233
4.88081
5.06812
5.2339
5.36863
5.47022
5.53946
5.57555
5.57772
5.55524
5.51699
5.46383
5.39481
5.30669
5.19498
5.05296
4.8758
4.67072
4.43146
4.14997
3.84018
3.52206
3.1931
2.88016
2.60745
2.39769
2.26893
2.23273
2.28794
2.40293
2.5177
2.5843
2.575
2.49025
2.35149
2.18819
2.0274
1.88836
1.78116
1.70757
1.66309
1.63934
1.62602
1.61764
1.61153
1.60618
1.60156
1.59886
1.60008
1.60731
1.62205
1.64461
1.67384
1.7076
1.74519
1.79376
1.8839
2.09877
2.58726
3.50414
4.81541
6.04905
6.51436
6.06102
5.2641
4.62536
4.1947
3.88897
3.66088
3.49111
3.36208
3.25551
3.1607
3.07303
2.98765
2.90951
2.84741
2.80878
2.80028
2.82604
2.88509
2.96926
3.06394
3.1517
3.218
3.25571
3.26603
3.25575
3.23318
3.20525
3.17665
3.1501
3.12674
3.10677
3.08898
3.06968
3.04604
3.0178
2.98591
2.95344
2.92645
2.91532
2.92634
2.97009
3.06773
3.2585
3.59981
4.14978
4.93141
5.89077
6.86723
7.64878
8.02805
7.88871
7.26965
6.34993
11.9057
3.49818
2.39459
1.97788
1.67068
1.42576
1.23475
1.09038
0.985497
0.913327
0.867421
0.841811
0.831305
0.831392
0.838091
0.848174
0.859934
0.874268
0.895103
0.92833
0.980364
1.05697
1.1612
1.29138
1.44087
1.59851
1.75176
1.89194
2.0182
2.13793
2.26205
2.40113
2.56401
2.74458
2.9499
3.18845
3.4619
3.7674
4.09444
4.417
4.69271
4.86989
4.90741
4.79708
4.57035
4.28271
3.98949
3.72826
3.51661
3.35964
3.2573
3.20702
3.20325
3.23773
3.30139
3.38649
3.4877
3.60232
3.72973
3.87054
4.02563
4.19502
4.37698
4.56725
4.75884
4.94217
5.10572
5.23742
5.3304
5.38928
5.41548
5.4127
5.38254
5.33633
5.28086
5.21731
5.14687
5.06628
4.97162
4.85542
4.70587
4.5369
4.342
4.11466
3.86531
3.59501
3.30774
3.01454
2.73496
2.4932
2.31163
2.20781
2.1934
2.26524
2.38444
2.48267
2.51748
2.47212
2.35696
2.19819
2.02529
1.86289
1.72725
1.62582
1.55854
1.52001
1.50153
1.49393
1.4931
1.49644
1.50296
1.51313
1.52846
1.55093
1.58226
1.62332
1.67381
1.7325
1.79843
1.8759
1.98809
2.20691
2.67202
3.53249
4.75015
5.87065
6.26979
5.86412
5.1685
4.59062
4.18303
3.88821
3.66956
3.50791
3.38221
3.27349
3.17023
3.06844
2.96891
2.87372
2.79343
2.73746
2.71376
2.728
2.7806
2.86385
2.96205
3.05534
3.1263
3.1659
3.17514
3.16198
3.1362
3.10558
3.07554
3.04944
3.02862
3.01343
3.0016
2.98928
2.97299
2.94976
2.91864
2.88145
2.84345
2.81555
2.80733
2.82766
2.8905
3.02144
3.26288
3.66888
4.28288
5.102
6.04059
6.91303
7.50201
7.6318
7.25696
6.49561
10.6146
3.38308
2.46078
2.02768
1.69643
1.43678
1.23691
1.08646
0.976654
0.899922
0.849492
0.819065
0.803171
0.797586
0.799607
0.808455
0.825602
0.854588
0.900137
0.966725
1.05704
1.17072
1.30372
1.44892
1.59789
1.74327
1.88079
2.01056
2.13661
2.26505
2.40184
2.55175
2.71699
2.8976
3.09871
3.3202
3.55855
3.80505
4.04353
4.24917
4.39186
4.44491
4.39742
4.26138
4.06771
3.85317
3.64826
3.47236
3.33585
3.24395
3.1981
3.19554
3.22963
3.29178
3.37389
3.46993
3.57644
3.69223
3.81782
3.95457
4.10363
4.26486
4.43589
4.6115
4.78331
4.93973
5.0663
5.14739
5.19015
5.19825
5.17935
5.14129
5.09047
5.03148
4.96566
4.89294
4.81827
4.73848
4.64875
4.54221
4.41641
4.27372
4.11508
3.94087
3.75097
3.54389
3.31829
3.07642
2.82796
2.59083
2.38681
2.23696
2.16019
2.16826
2.251
2.35805
2.42237
2.41377
2.32969
2.18889
2.01894
1.84651
1.69207
1.56793
1.47861
1.42234
1.39314
1.38229
1.38277
1.39111
1.40554
1.42593
1.45343
1.48988
1.53716
1.59658
1.6686
1.75291
1.84889
1.95867
2.098
2.32453
2.76237
3.55107
4.65803
5.67151
6.03897
5.70239
5.10096
4.57542
4.18792
3.90371
3.69398
3.53771
3.41185
3.29638
3.18055
3.06336
2.94926
2.84317
2.74968
2.68027
2.64475
2.6501
2.6982
2.78179
2.88409
2.98274
3.05745
3.09738
3.10375
3.08617
3.05622
3.02259
2.99155
2.96744
2.95163
2.94459
2.9443
2.94533
2.94117
2.9266
2.89913
2.85952
2.81203
2.76638
2.73526
2.72892
2.75949
2.84527
3.01665
3.31761
3.79499
4.47261
5.31632
6.20312
6.92812
7.27715
7.13314
6.55175
9.18934
3.39924
2.56679
2.10571
1.74911
1.47301
1.26108
1.10101
0.982922
0.898574
0.841204
0.804893
0.7847
0.777578
0.782501
0.800293
0.833173
0.883914
0.954737
1.04623
1.15668
1.28216
1.4172
1.55587
1.69318
1.82616
1.95457
2.08063
2.2079
2.34005
2.48008
2.6303
2.79025
2.96221
3.14545
3.33704
3.53093
3.71715
3.88139
4.00621
4.07488
4.07717
4.01462
3.90121
3.75851
3.60858
3.46937
3.35403
3.27192
3.22867
3.22509
3.25704
3.31701
3.39679
3.48953
3.5906
3.69764
3.81017
3.92901
4.05544
4.19028
4.33276
4.47976
4.62586
4.76415
4.88505
4.96328
4.98608
4.97179
4.92878
4.86939
4.80144
4.73089
4.66121
4.59313
4.52481
4.45352
4.37681
4.29223
4.19831
4.09462
3.98157
3.85954
3.72832
3.58697
3.43316
3.26373
3.07618
2.87194
2.65957
2.455
2.27939
2.1566
2.10758
2.13741
2.22086
2.2982
2.31631
2.26226
2.1461
1.99055
1.82106
1.65963
1.52172
1.41556
1.34293
1.30084
1.28311
1.28179
1.29193
1.31113
1.33881
1.37585
1.42407
1.48555
1.56199
1.65446
1.76353
1.88932
2.03294
2.2037
2.44346
2.85554
3.56631
4.55538
5.46875
5.82446
5.56329
5.0474
4.5693
4.20117
3.92685
3.7236
3.56946
3.44061
3.31732
3.18964
3.05776
2.92814
2.80792
2.70464
2.62714
2.5848
2.58505
2.63179
2.71808
2.82586
2.93015
3.00774
3.04632
3.04784
3.02423
2.98932
2.95244
2.92089
2.9004
2.8943
2.90233
2.91955
2.93754
2.94729
2.94212
2.91908
2.87883
2.825
2.76493
2.71134
2.67647
2.67354
2.71857
2.83473
3.05631
3.42561
3.9769
4.70773
5.54473
6.32512
6.83013
6.89157
6.50065
7.83922
3.4393
2.68448
2.19718
1.81822
1.52718
1.30393
1.13501
1.0095
0.918304
0.854904
0.815091
0.794567
0.790938
0.803553
0.832956
0.880133
0.945729
1.02938
1.12935
1.24253
1.36489
1.49208
1.62026
1.74695
1.87158
1.99542
2.12082
2.2502
2.38544
2.52784
2.67677
2.83249
2.99404
3.15917
3.32389
3.48206
3.62523
3.74311
3.82512
3.86302
3.85397
3.8023
3.71879
3.61768
3.51358
3.4198
3.34789
3.30673
3.30084
3.32925
3.38633
3.46423
3.55544
3.65423
3.75691
3.86162
3.96799
4.07707
4.19018
4.30442
4.41979
4.53243
4.63627
4.72401
4.78474
4.79338
4.7666
4.71241
4.63986
4.5582
4.47496
4.39559
4.32274
4.25602
4.19277
4.12913
4.06169
3.98831
3.90843
3.82272
3.73229
3.63768
3.53846
3.43296
3.31815
3.18971
3.04276
2.87394
2.68495
2.48588
2.29638
2.14329
2.05273
2.03724
2.08361
2.15152
2.18529
2.15528
2.06458
1.93008
1.77375
1.61665
1.47534
1.36031
1.27614
1.22259
1.19605
1.19068
1.20007
1.22128
1.25334
1.29701
1.3542
1.42726
1.51833
1.62901
1.76059
1.9141
2.09078
2.29548
2.55471
2.94733
3.58244
4.45446
5.27418
5.62717
5.43911
4.99962
4.56508
4.21607
3.95045
3.75078
3.5958
3.46247
3.33239
3.19637
3.05387
2.91157
2.77855
2.66371
2.57685
2.52846
2.52747
2.57691
2.66918
2.78446
2.89487
2.97432
3.00941
3.00373
2.97234
2.9317
2.89368
2.86621
2.85526
2.86405
2.89055
2.92659
2.96029
2.98045
2.98024
2.95811
2.91635
2.85906
2.79132
2.72147
2.66208
2.62761
2.63445
2.70291
2.86074
3.1438
3.58773
4.20698
4.96335
5.73655
6.3298
6.55522
6.34559
6.60218
3.47155
2.78388
2.28471
1.89974
1.60528
1.37791
1.20388
1.07256
0.975831
0.90718
0.864903
0.84484
0.844331
0.862016
0.897363
0.950018
1.01929
1.10381
1.20141
1.30918
1.42381
1.54212
1.66174
1.78167
1.90251
2.02597
2.1541
2.28853
2.43013
2.57787
2.73076
2.88732
3.04519
3.20118
3.35102
3.48921
3.6092
3.70395
3.76715
3.79482
3.78682
3.74756
3.68543
3.6113
3.53712
3.47483
3.43501
3.42521
3.44811
3.50103
3.57828
3.67014
3.76778
3.86826
3.96861
4.0671
4.16294
4.25614
4.34606
4.43124
4.50985
4.57799
4.63015
4.65981
4.65918
4.61867
4.55272
4.46961
4.3777
4.28483
4.19742
4.11963
4.05263
3.99447
3.94083
3.88667
3.82815
3.76369
3.69398
3.62099
3.54661
3.47146
3.3944
3.31249
3.22129
3.11512
2.98771
2.83391
2.65318
2.45389
2.25566
2.08633
1.97272
1.92835
1.94464
1.99114
2.02661
2.01355
1.94553
1.83451
1.69805
1.55451
1.41962
1.30462
1.21573
1.15484
1.1206
1.1095
1.11642
1.13735
1.17114
1.21849
1.28151
1.36293
1.46541
1.59109
1.74183
1.91941
2.12611
2.3647
2.64895
3.03187
3.60082
4.36333
5.09552
5.44764
5.32607
4.95381
4.55849
4.22769
3.96948
3.77091
3.61276
3.47395
3.33775
3.19553
3.04626
2.89625
2.75535
2.63356
2.54166
2.49097
2.491
2.54465
2.64325
2.76485
2.87894
2.95759
2.98752
2.97456
2.93675
2.8927
2.85554
2.83422
2.83531
2.86114
2.90644
2.95838
3.00114
3.02245
3.01742
2.98815
2.94043
2.88026
2.81156
2.73612
2.66323
2.60625
2.58175
2.60962
2.71458
2.92751
3.28178
3.7993
4.46454
5.19308
5.82027
6.1604
6.10654
5.50482
3.49731
2.88782
2.40293
2.02787
1.73885
1.51199
1.33445
1.19683
1.09246
1.01597
0.967675
0.943437
0.940006
0.955188
0.987632
1.03634
1.10028
1.17812
1.26801
1.36761
1.47432
1.58575
1.70027
1.81743
1.93809
2.06403
2.19722
2.3391
2.4895
2.64716
2.81026
2.97587
3.14035
3.29948
3.44845
3.58198
3.69456
3.78104
3.83741
3.86186
3.85566
3.82352
3.77333
3.71521
3.66058
3.62096
3.60672
3.62331
3.66938
3.74011
3.82807
3.92368
4.02117
4.11717
4.20905
4.29486
4.37323
4.44314
4.50331
4.55224
4.58789
4.60734
4.60706
4.58361
4.53303
4.45665
4.365
4.2654
4.16531
4.07156
3.98948
3.92172
3.86733
3.82183
3.77865
3.7316
3.67724
3.61576
3.55008
3.48378
3.41902
3.35527
3.28939
3.21623
3.12956
3.02287
2.89032
2.72858
2.53978
2.3349
2.13457
1.96473
1.8478
1.79327
1.79258
1.82137
1.84819
1.84426
1.79438
1.70632
1.59318
1.46966
1.34928
1.24257
1.15627
1.09357
1.05484
1.0385
1.04169
1.0606
1.09379
1.142
1.20758
1.29375
1.40379
1.54045
1.70605
1.90297
2.13499
2.40505
2.71823
3.10289
3.61997
4.28444
4.93411
5.28317
5.22123
4.90917
4.54861
4.23387
3.98152
3.78224
3.61925
3.4741
3.33201
3.18515
3.03264
2.87974
2.73594
2.61197
2.51974
2.47163
2.47765
2.54019
2.64872
2.77826
2.89512
2.96985
2.99054
2.96669
2.92023
2.87219
2.8368
2.82357
2.83882
2.88236
2.94373
3.00407
3.04425
3.05321
3.03071
2.98427
2.92404
2.85865
2.79222
2.72138
2.6494
2.58508
2.54238
2.5405
2.60331
2.75919
3.03906
3.46746
4.04264
4.70764
5.33063
5.74083
5.81005
4.55459
3.5089
3.02553
2.58393
2.23874
1.96814
1.74989
1.57245
1.42817
1.3123
1.22128
1.15787
1.11883
1.10101
1.10202
1.12034
1.15495
1.205
1.26953
1.34723
1.43636
1.53485
1.64066
1.75217
1.86866
1.99053
2.11915
2.25641
2.40404
2.56203
2.7297
2.90472
3.08342
3.26104
3.4321
3.59074
3.73104
3.84743
3.93526
3.99151
4.01554
4.00975
3.97976
3.93397
3.88195
3.83841
3.81403
3.81549
3.84511
3.9007
3.9767
4.06511
4.15766
4.24894
4.33531
4.41403
4.48297
4.54038
4.58477
4.61473
4.62891
4.62587
4.60408
4.5622
4.49959
4.41484
4.31551
4.20879
4.10206
4.00253
3.91653
3.84814
3.79755
3.7602
3.72776
3.69106
3.64385
3.58528
3.51938
3.45195
3.38687
3.3239
3.25898
3.18579
3.0976
2.98856
2.85457
2.69407
2.5093
2.30793
2.10405
1.91689
1.76614
1.66557
1.61786
1.61301
1.63136
1.64981
1.64752
1.61131
1.54496
1.45718
1.35846
1.25918
1.16806
1.09135
1.03277
0.993841
0.974543
0.973816
0.989757
1.02057
1.06719
1.13228
1.21962
1.33324
1.47659
1.6523
1.86317
2.11391
2.40881
2.74953
3.14601
3.63236
4.22227
4.80278
5.14639
5.13388
4.87266
4.53989
4.23629
3.98689
3.78545
3.61713
3.46586
3.3187
3.16859
3.01475
2.86188
2.71903
2.59737
2.50977
2.46956
2.48704
2.56348
2.68543
2.82375
2.94118
3.00756
3.014
2.97538
2.91847
2.86675
2.83498
2.83243
2.86374
2.92405
2.99537
3.0524
3.07512
3.05752
3.00654
2.93534
2.85729
2.78273
2.71695
2.6557
2.59627
2.54055
2.49662
2.48038
2.51467
2.62709
2.84726
3.20053
3.69323
4.28825
4.88262
5.32623
5.48439
3.94955
3.50771
3.1593
2.78905
2.49836
2.26795
2.07754