/*--------------------------------*- C++ -*----------------------------------*\
| =========                 |                                                 |
| \\      /  F ield         | OpenFOAM: The Open Source CFD Toolbox           |
|  \\    /   O peration     | Version:  2112                                  |
|   \\  /    A nd           | Website:  www.openfoam.com                      |
|    \\/     M anipulation  |                                                 |
\*---------------------------------------------------------------------------*/
FoamFile
{
    version     2.0;
    format      ascii;
    arch        "LSB;label=32;scalar=64";
    class       volScalarField;
    location    "0.28";
    object      epsilon;
}
// * * * * * * * * * * * * * * * * * * * * * * * * * * * * * * * * * * * * * //

dimensions      [0 2 -3 0 0 0 0];

internalField   nonuniform List<scalar> 
12225
(
1634.5
2807.18
3722.98
4322.18
4658.25
4810.21
4845.34
4811.99
4742.19
4655.9
4564.88
4475.66
4391.6
4314.23
4243.92
4180.85
4123.1
4080.61
151.475
316.72
455.208
565.422
650.429
711.678
754.184
783.896
805.553
822.443
836.691
849.613
861.974
874.195
886.493
899.056
912.96
928.567
35.5725
66.5199
95.159
119.714
140.386
156.966
169.678
179.136
186.075
191.169
194.981
197.952
200.417
202.616
204.716
206.873
209.179
211.689
19.4693
26.9907
34.922
42.4074
49.1831
55.104
60.1226
64.2758
67.6516
70.3568
72.5011
74.1881
75.511
76.5502
77.3727
78.0377
78.5865
79.0382
15.9701
18.202
20.8692
23.6155
26.2699
28.7324
30.9506
32.9078
34.6092
36.0709
37.3148
38.3651
39.2462
39.9817
40.593
41.0998
41.518
41.8542
15.0358
15.6599
16.5728
17.6288
18.7326
19.8221
20.8576
21.8175
22.6921
23.4788
24.1796
24.799
25.343
25.8183
26.2317
26.5899
26.8986
27.1586
14.778
14.8615
15.0969
15.4425
15.8571
16.3069
16.7659
17.2162
17.6466
18.0505
18.4245
18.7671
19.0784
19.3595
19.6119
19.8375
20.0379
20.2118
14.7093
14.6163
14.5916
14.6305
14.7214
14.8507
15.0053
15.1742
15.349
15.5236
15.6938
15.8565
16.01
16.1533
16.2859
16.4076
16.5185
16.6168
14.692
14.546
14.4297
14.3453
14.2918
14.2657
14.2622
14.2765
14.3039
14.3404
14.383
14.4291
14.4766
14.5242
14.5706
14.6152
14.6572
14.6952
14.6879
14.5273
14.3821
14.2537
14.1427
14.0487
13.9705
13.9065
13.8548
13.8134
13.7807
13.755
13.7349
13.7193
13.7071
13.6975
13.6898
13.6831
14.6869
14.5226
14.3693
14.227
14.0959
13.976
13.8669
13.768
13.6788
13.5983
13.5258
13.4605
13.4015
13.3481
13.2996
13.2554
13.2151
13.1781
14.6866
14.5215
14.3661
14.2202
14.0833
13.9554
13.836
13.7247
13.6213
13.5251
13.4359
13.353
13.2761
13.2046
13.1381
13.0762
13.0185
12.965
14.6865
14.5211
14.3651
14.218
14.0793
13.9486
13.8254
13.7095
13.6003
13.4975
13.4008
13.3098
13.2242
13.1437
13.0679
12.9965
12.9293
12.8666
14.6864
14.5208
14.3646
14.2172
14.0779
13.9463
13.8219
13.7042
13.593
13.4877
13.388
13.2937
13.2044
13.1198
13.0397
12.9637
12.8918
12.8243
14.6864
14.5207
14.3643
14.2167
14.0772
13.9453
13.8205
13.7024
13.5905
13.4845
13.3839
13.2885
13.198
13.112
13.0303
12.9528
12.8791
12.8098
14.6863
14.5206
14.3641
14.2164
14.0768
13.9448
13.8198
13.7015
13.5894
13.4831
13.3822
13.2865
13.1956
13.1093
13.0272
12.9491
12.8749
12.805
14.6863
14.5205
14.364
14.2162
14.0765
13.9443
13.8193
13.7009
13.5886
13.4822
13.3812
13.2854
13.1943
13.1078
13.0256
12.9473
12.873
12.8029
14.6863
14.5205
14.3639
14.216
14.0763
13.9441
13.8189
13.7004
13.5881
13.4816
13.3806
13.2846
13.1935
13.1069
13.0245
12.9462
12.8718
12.8016
14.6863
14.5204
14.3639
14.216
14.0762
13.944
13.8188
13.7003
13.5879
13.4814
13.3803
13.2843
13.1931
13.1065
13.0241
12.9457
12.8712
12.8011
14.6863
14.5205
14.364
14.2161
14.0763
13.9441
13.819
13.7005
13.5882
13.4817
13.3806
13.2847
13.1936
13.107
13.0247
12.9464
12.872
12.802
14.6863
14.5206
14.3641
14.2163
14.0766
13.9446
13.8196
13.7013
13.5893
13.4831
13.3825
13.2871
13.1965
13.1106
13.029
12.9515
12.8779
12.8088
14.6864
14.5207
14.3645
14.2171
14.0781
13.947
13.8233
13.7068
13.5969
13.4934
13.3958
13.3038
13.2171
13.1353
13.0582
12.9854
12.9168
12.8528
14.6866
14.5217
14.3673
14.2233
14.0894
13.9656
13.8514
13.7464
13.65
13.5617
13.4807
13.4065
13.3384
13.2759
13.2185
13.1656
13.1168
13.0725
14.6886
14.5309
14.3915
14.2714
14.1708
14.0889
14.024
13.9739
13.9364
13.9096
13.8914
13.8801
13.8744
13.8728
13.8746
13.8787
13.8845
13.8919
14.7066
14.6032
14.5584
14.568
14.6235
14.715
14.8326
14.9675
15.1129
15.2632
15.4144
15.5633
15.7078
15.8464
15.978
16.1022
16.2187
16.3275
14.8437
15.0656
15.4759
16.0093
16.6141
17.2507
17.891
18.517
19.1174
19.6853
20.2165
20.7092
21.1628
21.5782
21.957
22.3011
22.6128
22.8947
15.737
17.5738
19.8191
22.1488
24.448
26.6548
28.7315
30.6567
32.4196
34.0167
35.45
36.7259
37.8539
38.8458
39.7142
40.4721
41.1325
41.7087
21.3827
31.3315
41.1927
50.2779
58.8295
66.751
73.9349
80.3217
85.9068
90.7185
94.8094
98.2499
101.12
103.501
105.472
107.106
108.472
109.635
67.2176
124.27
176.301
223.533
268.023
308.1
342.509
371.296
394.971
414.231
429.803
442.383
452.59
460.946
467.886
473.777
478.942
483.817
814.891
1236.62
1614.41
1922.69
2190.56
2411.07
2583.51
2711.3
2800.23
2856.99
2888.16
2899.61
2896.32
2882.34
2860.87
2834.39
2804.72
2773.32
0.191522
0.192293
0.304668
0.417303
0.521492
0.614901
0.698266
0.773991
0.846248
0.922344
1.00991
1.10632
1.21265
1.33063
1.46065
1.6027
1.75754
1.92737
2.11919
2.35109
2.6511
3.0038
3.4038
3.85172
4.35128
4.90719
5.52453
6.20848
6.96414
7.7964
8.70978
9.7084
10.7959
11.9754
13.2495
14.6204
16.0901
17.6601
19.3321
21.1078
22.9892
24.9789
27.0807
29.2994
31.6422
34.119
36.7437
39.5357
42.5223
45.684
48.9989
52.4695
56.0992
59.8919
63.8512
67.9805
72.2834
76.7632
81.4228
86.2654
91.2935
96.5096
101.916
107.514
113.306
119.292
125.474
131.851
138.423
145.19
152.151
159.303
166.646
174.175
181.889
189.783
197.854
206.096
214.505
223.074
231.798
240.67
249.684
258.83
268.103
277.493
286.991
296.59
306.278
316.046
325.884
335.781
345.726
355.708
365.713
375.731
385.748
395.751
405.731
415.678
425.589
435.475
445.368
455.229
464.957
474.549
483.998
493.29
502.408
511.337
520.059
528.558
536.818
544.823
552.558
560.006
567.155
573.988
580.494
586.659
592.47
597.917
602.989
607.677
611.971
615.863
619.347
622.416
625.066
627.293
629.093
630.465
631.407
631.921
632.008
631.669
630.909
629.733
628.146
626.154
623.765
620.988
617.833
614.309
610.429
606.205
601.648
596.773
591.595
586.126
580.384
574.383
568.14
561.671
554.992
548.121
541.075
533.868
526.523
519.051
511.472
503.806
496.052
488.263
480.41
472.572
464.837
458.384
455.447
452.895
450.354
447.798
445.22
442.599
439.89
436.991
433.674
429.34
422.606
406.398
0.607103
0.36608
0.335567
0.347189
0.374821
0.412013
0.457115
0.51042
0.573438
0.647797
0.734904
0.835433
0.951084
1.08449
1.23603
1.40521
1.59533
1.80966
2.05215
2.32724
2.63823
2.98526
3.3686
3.78897
4.2472
4.74401
5.27984
5.8548
6.46876
7.12138
7.8122
8.54074
9.30656
10.1094
10.9492
11.8261
12.7407
13.6938
14.6866
15.7206
16.7978
17.9204
19.0908
20.3119
21.5868
22.9185
24.3102
25.7643
27.2823
28.8631
30.506
32.212
33.9824
35.8184
37.7211
39.6916
41.731
43.84
46.0196
48.2705
50.5932
52.9882
55.456
57.9967
60.6104
63.2972
66.0569
68.8891
71.7934
74.7692
77.8158
80.9321
84.1172
87.3698
90.6886
94.0719
97.5181
101.025
104.592
108.215
111.893
115.622
119.402
123.228
127.098
131.009
134.957
138.94
142.954
146.995
151.06
155.143
159.243
163.353
167.47
171.59
175.708
179.82
183.924
188.019
192.107
196.197
200.31
204.447
208.546
212.596
216.592
220.527
224.395
228.191
231.907
235.537
239.076
242.517
245.853
249.079
252.19
255.179
258.041
260.771
263.364
265.816
268.121
270.277
272.279
274.124
275.809
277.331
278.688
279.877
280.897
281.747
282.427
282.934
283.271
283.436
283.431
283.258
282.916
282.41
281.741
280.911
279.924
278.785
277.495
276.06
274.484
272.772
270.929
268.96
266.872
264.668
262.357
259.943
257.433
254.833
252.15
249.39
246.561
243.668
240.718
237.719
234.668
231.594
228.463
225.347
222.291
219.53
217.433
215.502
213.607
211.724
209.848
207.975
206.102
204.22
202.303
200.33
198.166
196.572
1.20265
0.602315
0.488921
0.46978
0.484461
0.518444
0.567727
0.632021
0.71094
0.804158
0.912998
1.03906
1.18375
1.34828
1.53358
1.74067
1.97098
2.2261
2.50759
2.81674
3.15424
3.52014
3.91424
4.33626
4.78592
5.26288
5.76684
6.29752
6.85477
7.43859
8.0492
8.68703
9.35277
10.0473
10.7718
11.5276
12.3161
13.1389
13.9976
14.894
15.8298
16.8067
17.8265
18.8906
20.0006
21.1579
22.3634
23.6179
24.9221
26.2762
27.6808
29.1365
30.6441
32.2043
33.8178
35.4851
37.2068
38.9835
40.8155
42.7033
44.6471
46.6471
48.7036
50.8165
52.9859
55.2117
57.4937
59.8316
62.225
64.6734
67.1763
69.733
72.3426
75.0042
77.7169
80.4795
83.2907
86.1492
89.0535
92.002
94.993
98.0248
101.095
104.202
107.344
110.518
113.722
116.954
120.21
123.489
126.787
130.102
133.431
136.771
140.12
143.475
146.834
150.195
153.557
156.921
160.287
163.659
167.034
170.396
173.726
177.017
180.266
183.465
186.61
189.697
192.718
195.671
198.548
201.346
204.059
206.683
209.213
211.644
213.971
216.192
218.301
220.295
222.171
223.925
225.554
227.055
228.426
229.664
230.768
231.737
232.567
233.26
233.814
234.228
234.503
234.639
234.637
234.498
234.222
233.813
233.271
232.598
231.798
230.874
229.828
228.663
227.384
225.994
224.497
222.898
221.201
219.411
217.532
215.57
213.529
211.415
209.233
206.986
204.683
202.327
199.922
197.48
194.983
192.483
189.958
187.436
184.948
182.586
180.459
178.435
176.452
174.492
172.549
170.627
168.729
166.865
165.05
163.34
161.809
161.204
1.81911
0.840893
0.662181
0.627196
0.641084
0.681521
0.742272
0.819281
0.912533
1.02303
1.15187
1.3001
1.4686
1.65804
1.86892
2.1017
2.35682
2.63471
2.9357
3.25995
3.6074
3.97781
4.3709
4.78644
5.22429
5.68449
6.16723
6.67292
7.20219
7.75585
8.33494
8.94065
9.57431
10.2373
10.9312
11.6575
12.4176
13.2132
14.0455
14.916
15.826
16.7766
17.7691
18.8044
19.8835
21.0071
22.176
23.3908
24.652
25.9601
27.3159
28.7199
30.1729
31.6755
33.2283
34.832
36.4871
38.1942
39.9538
41.7664
43.6323
45.552
47.5257
49.5537
51.6361
53.7731
55.9647
58.2107
60.5112
62.8658
65.2741
67.7358
70.2503
72.8169
75.4348
78.1031
80.8208
83.5868
86.3998
89.2583
92.1609
95.1058
98.0914
101.116
104.177
107.272
110.4
113.558
116.744
119.954
123.187
126.44
129.711
132.996
136.294
139.602
142.917
146.239
149.565
152.895
156.226
159.555
162.873
166.168
169.431
172.657
175.839
178.972
182.052
185.072
188.028
190.913
193.724
196.455
199.1
201.656
204.117
206.479
208.737
210.888
212.927
214.85
216.655
218.337
219.894
221.324
222.623
223.789
224.822
225.719
226.479
227.101
227.586
227.932
228.139
228.209
228.142
227.94
227.603
227.133
226.534
225.806
224.953
223.977
222.883
221.674
220.352
218.922
217.389
215.757
214.03
212.212
210.31
208.327
206.268
204.14
201.947
199.69
197.383
195.024
192.618
190.186
187.719
185.237
182.739
180.241
177.764
175.355
173.057
170.829
168.642
166.483
164.353
162.254
160.197
158.198
156.289
154.542
153.06
152.306
2.39714
1.07777
0.84936
0.803846
0.819177
0.866584
0.934964
1.02216
1.12786
1.25247
1.39658
1.56072
1.74528
1.95041
2.17615
2.42242
2.6891
2.97605
3.28314
3.6102
3.95711
4.32377
4.71022
5.11662
5.54333
5.99094
6.4602
6.95209
7.46773
8.0084
8.57549
9.17045
9.79477
10.4499
11.1374
11.8587
12.6151
13.408
14.2386
15.108
16.0175
16.9679
17.9603
18.9955
20.0744
21.1976
22.3661
23.5804
24.8413
26.1495
27.5058
28.911
30.3658
31.8712
33.4279
35.0368
36.6985
38.4139
40.1838
42.0088
43.8896
45.8269
47.8213
49.8732
51.9832
54.1516
56.3787
58.6649
61.0102
63.4146
65.8781
68.4005
70.9814
73.6204
76.3169
79.0701
81.8791
84.7429
87.6603
90.6298
93.6501
96.7194
99.8358
102.997
106.202
109.448
112.732
116.052
119.405
122.789
126.201
129.639
133.098
136.577
140.072
143.581
147.101
150.63
154.164
157.701
161.238
164.764
168.271
171.75
175.194
178.597
181.954
185.258
188.503
191.684
194.795
197.829
200.782
203.648
206.421
209.096
211.668
214.133
216.484
218.719
220.832
222.819
224.678
226.404
227.995
229.447
230.759
231.927
232.951
233.83
234.561
235.144
235.579
235.865
236.005
235.997
235.843
235.545
235.104
234.523
233.804
232.949
231.963
230.848
229.609
228.248
226.77
225.18
223.483
221.683
219.784
217.791
215.713
213.553
211.313
209.004
206.632
204.188
201.702
199.171
196.599
193.996
191.364
188.715
186.052
183.388
180.739
178.13
175.585
173.092
170.639
168.221
165.838
163.499
161.215
159.01
156.918
155.012
153.379
152.282
2.90069
1.31402
1.04266
0.987787
1.00281
1.05238
1.12645
1.22143
1.33615
1.47038
1.6242
1.79769
1.99084
2.20346
2.43527
2.68592
2.95508
3.24247
3.54788
3.87123
4.21259
4.57216
4.95033
5.34768
5.76499
6.2032
6.66345
7.14699
7.65517
8.18943
8.75125
9.34213
9.96356
10.617
11.3038
12.0255
12.7832
13.5783
14.4119
15.2853
16.1994
17.1554
18.1542
19.1968
20.2841
21.4171
22.5966
23.8237
25.0992
26.4241
27.7995
29.2264
30.7058
32.2389
33.8267
35.4703
37.1709
38.9295
40.7472
42.6252
44.5644
46.5658
48.6305
50.7592
52.9529
55.2123
57.538
59.9307
62.3907
64.9185
67.5143
70.178
72.9095
75.7087
78.5751
81.508
84.5066
87.5699
90.6968
93.8857
97.1351
100.443
103.808
107.227
110.699
114.219
117.787
121.399
125.052
128.743
132.469
136.226
140.011
143.821
147.651
151.5
155.362
159.234
163.113
166.994
170.871
174.73
178.563
182.364
186.125
189.84
193.503
197.106
200.642
204.106
207.49
210.789
213.995
217.103
220.106
222.999
225.775
228.43
230.958
233.355
235.614
237.733
239.707
241.533
243.207
244.726
246.088
247.291
248.333
249.213
249.929
250.482
250.87
251.095
251.157
251.057
250.797
250.378
249.803
249.075
248.197
247.171
246.002
244.693
243.25
241.677
239.977
238.156
236.221
234.178
232.029
229.778
227.44
225.016
222.504
219.924
217.282
214.576
211.822
209.022
206.182
203.311
200.413
197.497
194.569
191.64
188.721
185.831
182.983
180.179
177.414
174.69
172.01
169.384
166.826
164.362
162.028
159.887
158.002
156.52
3.30247
1.53178
1.23019
1.1647
1.17617
1.22703
1.30481
1.40469
1.52474
1.66418
1.82267
1.99997
2.19577
2.40973
2.64143
2.89049
3.15657
3.43944
3.73905
4.05551
4.38911
4.74035
5.10988
5.49859
5.90748
6.33772
6.79059
7.26746
7.76976
8.29897
8.85655
9.44401
10.0628
10.7144
11.4001
12.1214
12.8796
13.676
14.5118
15.3883
16.3068
17.2683
18.274
19.3252
20.423
21.5685
22.763
24.0076
25.3037
26.6525
28.0554
29.5137
31.0289
32.6024
34.2357
35.9302
37.6876
39.5093
41.3969
43.3518
45.3756
47.4696
49.6354
51.8742
54.1872
56.5758
59.041
61.5836
64.2046
66.9047
69.6843
72.5437
75.4832
78.5026
81.6016
84.7797
88.0362
91.3699
94.7797
98.2641
101.821
105.449
109.145
112.907
116.732
120.618
124.56
128.556
132.602
136.695
140.831
145.005
149.213
153.452
157.717
162.003
166.306
170.621
174.943
179.268
183.578
187.865
192.121
196.339
200.51
204.628
208.685
212.673
216.585
220.413
224.149
227.786
231.317
234.734
238.032
241.203
244.241
247.139
249.893
252.497
254.944
257.232
259.354
261.308
263.089
264.696
266.125
267.374
268.441
269.326
270.028
270.545
270.879
271.03
270.999
270.788
270.398
269.832
269.094
268.186
267.112
265.877
264.483
262.936
261.243
259.408
257.436
255.331
253.103
250.759
248.303
245.732
243.073
240.325
237.492
234.585
231.611
228.574
225.485
222.35
219.175
215.968
212.735
209.486
206.226
202.964
199.713
196.484
193.289
190.134
187.021
183.953
180.938
177.987
175.116
172.352
169.728
167.298
165.101
163.222
3.61269
1.73328
1.40211
1.32494
1.33244
1.38287
1.46191
1.56372
1.68571
1.82662
1.98577
2.16267
2.3569
2.56803
2.79569
3.03952
3.29932
3.57502
3.86672
4.17474
4.49955
4.84186
5.20252
5.58252
5.98303
6.40529
6.85063
7.32045
7.8162
8.33934
8.89135
9.47371
10.0879
10.7354
11.4176
12.1361
12.8921
13.6872
14.5228
15.4002
16.3208
17.2862
18.2976
19.3566
20.4647
21.6232
22.8337
24.0979
25.4174
26.7938
28.2289
29.7245
31.2825
32.9048
34.5933
36.35
38.1769
40.0761
42.0496
44.0994
46.2275
48.4359
50.7266
53.1014
55.562
58.1102
60.7474
63.4751
66.2946
69.2067
72.2125
75.3125
78.507
81.7963
85.18
88.6579
92.229
95.8924
99.6466
103.49
107.42
111.435
115.532
119.708
123.96
128.284
132.677
137.134
141.651
146.224
150.849
155.519
160.232
164.98
169.76
174.565
179.389
184.227
189.072
193.917
198.737
203.527
208.28
212.986
217.638
222.227
226.744
231.18
235.527
239.775
243.917
247.943
251.847
255.619
259.252
262.74
266.073
269.247
272.255
275.09
277.746
280.22
282.504
284.597
286.494
288.191
289.687
290.98
292.068
292.949
293.624
294.092
294.353
294.41
294.263
293.915
293.368
292.625
291.691
290.569
289.264
287.781
286.123
284.296
282.31
280.17
277.881
275.442
272.874
270.183
267.373
264.448
261.422
258.303
255.095
251.809
248.452
245.032
241.556
238.034
234.471
230.877
227.259
223.624
219.982
216.339
212.707
209.095
205.516
201.976
198.481
195.038
191.656
188.348
185.132
182.032
179.08
176.318
173.769
171.486
4.24838
1.98518
1.57602
1.47293
1.46997
1.51594
1.59304
1.69382
1.81481
1.95421
2.11104
2.28462
2.47447
2.68018
2.90142
3.13797
3.38977
3.65689
3.93959
4.23834
4.55377
4.88667
5.23798
5.6088
6.00031
6.41377
6.85055
7.31202
7.79964
8.31488
8.85922
9.43418
10.0413
10.6821
11.3581
12.0709
12.8221
13.6133
14.4461
15.3221
16.243
17.2105
18.2264
19.2924
20.4103
21.5821
22.8097
24.0951
25.4403
26.8477
28.3194
29.8577
31.465
33.1437
34.8965
36.7258
38.6343
40.6246
42.6993
44.8612
47.1127
49.4565
51.8951
54.4309
57.0664
59.8035
62.6445
65.5912
68.6452
71.8081
75.0809
78.4645
81.9597
85.5666
89.2851
93.1148
97.0549
101.104
105.261
109.523
113.889
118.354
122.917
127.573
132.319
137.15
142.062
147.05
152.108
157.232
162.416
167.655
172.942
178.271
183.636
189.03
194.446
199.877
205.316
210.737
216.128
221.481
226.787
232.038
237.223
242.332
247.357
252.285
257.108
261.815
266.397
270.845
275.149
279.301
283.292
287.114
290.76
294.221
297.492
300.565
303.434
306.093
308.538
310.764
312.767
314.545
316.095
317.416
318.505
319.362
319.988
320.381
320.544
320.478
320.185
319.668
318.93
317.975
316.808
315.435
313.861
312.091
310.127
307.978
305.658
303.172
300.525
297.722
294.777
291.698
288.492
285.167
281.733
278.199
274.573
270.864
267.082
263.234
259.33
255.378
251.386
247.363
243.318
239.258
235.192
231.129
227.079
223.051
219.055
215.101
211.198
207.352
203.577
199.885
196.294
192.829
189.517
186.393
183.464
180.771
5.07859
2.2527
1.73961
1.6025
1.58476
1.62315
1.69566
1.79296
1.91062
2.04631
2.19873
2.36707
2.5508
2.74954
2.96305
3.19123
3.43413
3.69196
3.9651
4.25411
4.55968
4.88268
5.22409
5.58501
5.96664
6.37025
6.79718
7.24883
7.72666
8.23216
8.76686
9.33235
9.93023
10.5622
11.2298
11.935
12.6794
13.4649
14.2934
15.1667
16.087
17.0561
18.0763
19.1497
20.2787
21.4654
22.7125
24.0224
25.3977
26.8412
28.3557
29.9441
31.6095
33.3549
35.1836
37.0987
39.1037
41.2017
43.3962
45.6906
48.088
50.5918
53.2052
55.9312
58.7727
61.7325
64.8131
68.017
71.3462
74.8026
78.3875
82.1023
85.9475
89.9236
94.0305
98.2676
102.634
107.128
111.748
116.491
121.355
126.335
131.428
136.631
141.937
147.341
152.839
158.424
164.09
169.831
175.64
181.511
187.437
193.411
199.424
205.469
211.537
217.621
223.702
229.75
235.758
241.718
247.62
253.453
259.206
264.869
270.429
275.875
281.195
286.38
291.417
296.297
301.011
305.547
309.898
314.054
318.007
321.749
325.272
328.571
331.638
334.467
337.051
339.388
341.474
343.306
344.882
346.2
347.259
348.06
348.601
348.885
348.911
348.685
348.207
347.483
346.515
345.305
343.865
342.2
340.315
338.217
335.912
333.408
330.717
327.845
324.801
321.593
318.232
314.726
311.087
307.321
303.441
299.455
295.373
291.205
286.961
282.65
278.282
273.866
269.411
264.927
260.421
255.904
251.384
246.87
242.372
237.9
233.463
229.073
224.738
220.468
216.277
212.179
208.192
204.338
200.641
197.13
193.802
190.695
5.89305
2.50031
1.88146
1.70868
1.67437
1.7033
1.76934
1.86136
1.97399
2.1044
2.25102
2.41292
2.58952
2.78047
2.98561
3.20492
3.43855
3.68679
3.9501
4.22908
4.52448
4.83719
5.16819
5.5186
5.8896
6.28246
6.69855
7.13927
7.60613
8.10066
8.62448
9.17928
9.76681
10.3889
11.0473
11.7442
12.4814
13.2612
14.0857
14.9571
15.878
16.8506
17.8777
18.9618
20.1058
21.3125
22.585
23.9265
25.3401
26.8293
28.3976
30.0487
31.7862
33.6142
35.5364
37.557
39.6801
41.9097
44.2501
46.7053
49.2795
51.9766
54.8005
57.7549
60.8432
64.0688
67.4348
70.944
74.5988
78.4014
82.3534
86.4562
90.7104
95.1164
99.674
104.382
109.24
114.245
119.395
124.686
130.116
135.679
141.372
147.188
153.122
159.167
165.316
171.563
177.9
184.32
190.815
197.378
204.001
210.675
217.391
224.14
230.912
237.695
244.444
251.151
257.806
264.398
270.917
277.35
283.686
289.912
296.015
301.981
307.798
313.454
318.937
324.238
329.345
334.248
338.937
343.402
347.635
351.628
355.373
358.863
362.093
365.053
367.738
370.145
372.271
374.113
375.67
376.94
377.924
378.621
379.032
379.158
379.001
378.566
377.857
376.878
375.634
374.13
372.375
370.375
368.138
365.672
362.984
360.083
356.98
353.685
350.206
346.554
342.739
338.772
334.664
330.424
326.063
321.593
317.024
312.367
307.632
302.829
297.969
293.061
288.117
283.145
278.155
273.157
268.159
263.172
258.205
253.268
248.372
243.527
238.745
234.036
229.413
224.893
220.492
216.232
212.133
208.218
204.479
200.954
6.66472
2.72048
1.99852
1.7904
1.73886
1.75724
1.81556
1.90103
2.00745
2.13156
2.27153
2.42632
2.5953
2.77814
2.97472
3.18508
3.40942
3.64809
3.90159
4.17056
4.45576
4.75808
5.07853
5.41821
5.77833
6.16018
6.56515
6.99471
7.45043
7.93396
8.44703
8.99147
9.56923
10.1823
10.8329
11.5232
12.2555
13.0324
13.8564
14.7302
15.6567
16.6389
17.6798
18.7828
19.9513
21.1889
22.4992
23.8861
25.3538
26.9062
28.5479
30.2832
32.1168
34.0534
36.0979
38.2552
40.5303
42.9282
45.454
48.1126
50.9088
53.8476
56.9334
60.1705
63.5628
67.1141
70.8277
74.7069
78.7544
82.9723
87.3624
91.9259
96.6633
101.575
106.659
111.915
117.341
122.934
128.69
134.606
140.677
146.897
153.261
159.762
166.394
173.146
180.012
186.982
194.049
201.204
208.439
215.744
223.111
230.531
237.992
245.486
253
260.482
267.915
275.29
282.597
289.822
296.953
303.976
310.88
317.652
324.277
330.737
337.019
343.112
349.004
354.684
360.14
365.361
370.338
375.06
379.52
383.707
387.615
391.238
394.573
397.604
400.327
402.741
404.844
406.634
408.109
409.27
410.116
410.648
410.868
410.779
410.383
409.685
408.691
407.406
405.835
403.986
401.867
399.486
396.851
393.972
390.858
387.519
383.965
380.208
376.258
372.126
367.824
363.363
358.755
354.011
349.143
344.163
339.081
333.911
328.661
323.345
317.973
312.555
307.102
301.625
296.134
290.639
285.149
279.674
274.225
268.812
263.445
258.136
252.897
247.738
242.675
237.723
232.899
228.221
223.709
219.381
215.226
211.284
7.38204
2.91152
2.09112
1.84891
1.78012
1.78741
1.83724
1.91537
2.01488
2.13211
2.26503
2.41247
2.57378
2.74862
2.93686
3.13858
3.35402
3.58355
3.82771
4.08714
4.36264
4.65512
4.96559
5.2952
5.6452
6.01695
6.4119
6.83164
7.27786
7.75237
8.2571
8.7941
9.36557
9.97385
10.6214
11.3108
12.0449
12.8266
13.659
14.5454
15.4891
16.494
17.5636
18.7022
19.914
21.2033
22.5747
24.033
25.5832
27.2302
28.9795
30.8365
32.8068
34.8961
37.1104
39.4554
41.9373
44.5619
47.3352
50.2629
53.3509
56.6046
60.0292
63.6293
67.4089
71.3717
75.5213
79.861
84.3934
89.1204
94.0435
99.1632
104.48
109.992
115.698
121.596
127.683
133.954
140.405
147.031
153.825
160.781
167.892
175.15
182.547
190.071
197.712
205.46
213.305
221.239
229.253
237.336
245.478
253.67
261.901
270.16
278.385
286.552
294.652
302.672
310.6
318.422
326.123
333.691
341.111
348.371
355.464
362.352
369.031
375.488
381.713
387.693
393.418
398.876
404.056
408.95
413.549
417.844
421.827
425.493
428.837
431.849
434.525
436.863
438.861
440.518
441.833
442.806
443.439
443.733
443.691
443.316
442.613
441.588
440.245
438.593
436.637
434.387
431.85
429.036
425.956
422.618
419.034
415.215
411.172
406.917
402.462
397.819
393
388.018
382.886
377.615
372.218
366.707
361.096
355.395
349.618
343.775
337.878
331.94
325.97
319.979
313.98
307.98
301.992
296.025
290.09
284.197
278.357
272.581
266.883
261.274
255.768
250.381
245.13
240.033
235.105
230.363
225.792
221.438
8.0429
3.07444
2.16122
1.88678
1.80123
1.79733
1.83838
1.90886
2.00121
2.11147
2.23743
2.37781
2.5319
2.69933
2.87999
3.07396
3.28149
3.503
3.73905
3.99032
4.25765
4.54201
4.84448
5.16628
5.50877
5.87343
6.26188
6.67589
7.11736
7.58837
8.09115
8.62809
9.20176
9.81494
10.4706
11.1718
11.9221
12.7249
13.584
14.5035
15.4876
16.5408
17.6679
18.8738
20.164
21.5439
23.0192
24.596
26.28
28.0775
29.9947
32.0385
34.2154
36.5324
38.9964
41.6142
44.3929
47.3391
50.4595
53.7607
57.2491
60.9307
64.8114
68.8962
73.1867
77.6865
82.399
87.3269
92.4723
97.8364
103.419
109.221
115.239
121.473
127.917
134.57
141.425
148.478
155.721
163.147
170.749
178.518
186.446
194.524
202.746
211.096
219.553
228.112
236.762
245.496
254.302
263.171
272.091
281.051
290.044
298.99
307.866
316.66
325.359
333.951
342.419
350.751
358.931
366.944
374.776
382.414
389.843
397.043
404.001
410.706
417.144
423.305
429.177
434.749
440.011
444.955
449.572
453.853
457.793
461.385
464.624
467.504
470.022
472.175
473.962
475.382
476.436
477.125
477.451
477.417
477.026
476.283
475.194
473.764
472.002
469.914
467.509
464.796
461.785
458.486
454.91
451.068
446.972
442.633
438.065
433.28
428.291
423.11
417.751
412.227
406.552
400.739
394.8
388.749
382.598
376.361
370.05
363.678
357.255
350.795
344.309
337.807
331.302
324.803
318.321
311.867
305.451
299.084
292.778
286.543
280.393
274.34
268.398
262.584
256.912
251.399
246.061
240.91
235.932
231.175
8.65548
3.21234
2.21183
1.90737
1.80603
1.79138
1.82393
1.88703
1.97265
2.07652
2.1963
2.33062
2.4787
2.64016
2.8149
3.003
3.20477
3.42068
3.65134
3.89754
4.16022
4.44047
4.73952
5.05879
5.39984
5.76439
6.15436
6.57183
7.01911
7.49868
8.01327
8.56582
9.15951
9.79776
10.4843
11.223
12.0183
12.8747
13.797
14.7901
15.8594
17.0106
18.2499
19.5837
21.0186
22.5618
24.2206
26.0026
27.9147
29.9637
32.1572
34.5033
37.0098
39.6847
42.5359
45.5709
48.7971
52.2219
55.852
59.6941
63.7544
68.0392
72.555
77.3111
82.2956
87.5137
92.9688
98.6625
104.595
110.766
117.173
123.814
130.686
137.783
145.101
152.632
160.371
168.308
176.436
184.744
193.223
201.863
210.653
219.581
228.639
237.81
247.081
256.441
265.879
275.385
284.95
294.563
304.218
313.883
323.474
332.981
342.388
351.68
360.843
369.862
378.723
387.41
395.909
404.204
412.282
420.128
427.729
435.068
442.132
448.909
455.386
461.554
467.4
472.916
478.092
482.919
487.391
491.499
495.238
498.603
501.589
504.193
506.411
508.243
509.687
510.745
511.417
511.706
511.614
511.146
510.306
509.101
507.536
505.619
503.358
500.762
497.839
494.601
491.058
487.22
483.101
478.711
474.064
469.172
464.049
458.708
453.162
447.425
441.511
435.435
429.209
422.847
416.364
409.773
403.086
396.317
389.48
382.586
375.648
368.679
361.689
354.69
347.694
340.711
333.752
326.827
319.948
313.125
306.37
299.694
293.109
286.629
280.268
274.041
267.963
262.05
256.315
250.771
245.402
240.26
9.26101
3.33475
2.24806
1.91505
1.79897
1.77447
1.79943
1.85622
1.93638
2.03544
2.1509
2.28134
2.42596
2.58439
2.75656
2.94265
3.14306
3.3584
3.58946
3.83725
4.10293
4.38789
4.6937
5.02213
5.37518
5.75509
6.16432
6.60559
7.08192
7.59658
8.15319
8.75568
9.40831
10.1156
10.8824
11.7143
12.6172
13.5972
14.6611
15.8147
17.065
18.4198
19.8872
21.4755
23.1934
25.0501
27.0553
29.2202
31.5528
34.0555
36.7393
39.6134
42.6867
45.9675
49.4636
53.1824
57.1306
61.3145
65.7396
70.4109
75.3328
80.5087
85.9418
91.6337
97.5816
103.784
110.241
116.949
123.906
131.108
138.549
146.225
154.127
162.25
170.583
179.119
187.847
196.758
205.839
215.08
224.47
233.995
243.645
253.407
263.268
273.217
283.24
293.326
303.465
313.648
323.866
334.113
344.305
354.398
364.377
374.229
383.941
393.497
402.882
412.083
421.085
429.873
438.434
446.753
454.818
462.614
470.129
477.349
484.263
490.858
497.125
503.052
508.63
513.851
518.706
523.188
527.291
531.009
534.337
537.271
539.807
541.944
543.68
545.014
545.947
546.48
546.616
546.358
545.709
544.676
543.264
541.479
539.33
536.823
533.969
530.777
527.256
523.419
519.276
514.839
510.122
505.136
499.895
494.412
488.701
482.777
476.652
470.342
463.861
457.222
450.44
443.53
436.504
429.376
422.161
414.871
407.52
400.12
392.683
385.222
377.748
370.273
362.809
355.364
347.952
340.581
333.263
326.009
318.829
311.736
304.741
297.857
291.099
284.481
278.019
271.725
265.614
259.698
253.959
248.453
9.84761
3.4371
2.27115
1.91436
1.78715
1.75603
1.77668
1.83073
1.90937
2.00799
2.12406
2.25614
2.40351
2.56592
2.74348
2.9366
3.14597
3.37257
3.6176
3.88253
4.1691
4.47932
4.8155
5.18023
5.57645
6.00743
6.47682
6.98869
7.5475
8.15805
8.82575
9.5567
10.3574
11.2339
12.1932
13.2437
14.3941
15.6546
17.0375
18.544
20.1858
21.9737
23.9185
26.031
28.3218
30.8015
33.4808
36.3699
39.4774
42.8105
46.3771
50.1849
54.2408
58.5507
63.1196
67.9517
73.0501
78.4169
84.0532
89.9594
96.1347
102.578
109.285
116.255
123.48
130.955
138.674
146.63
154.815
163.222
171.841
180.664
189.681
198.88
208.253
217.786
227.47
237.292
247.241
257.304
267.47
277.726
288.061
298.464
308.924
319.429
329.972
340.541
351.128
361.736
372.284
382.702
392.993
403.141
413.132
422.951
432.587
442.025
451.252
460.255
469.021
477.537
485.791
493.771
501.465
508.86
515.946
522.711
529.146
535.239
540.982
546.366
551.383
556.025
560.287
564.161
567.643
570.729
573.414
575.696
577.573
579.044
580.108
580.767
581.021
580.873
580.326
579.385
578.055
576.341
574.25
571.79
568.968
565.794
562.277
558.428
554.258
549.777
544.998
539.933
534.595
528.997
523.154
517.077
510.783
504.283
497.594
490.729
483.702
476.528
469.221
461.795
454.264
446.64
438.939
431.172
423.353
415.494
407.608
399.706
391.799
383.9
376.018
368.165
360.351
352.585
344.88
337.244
329.689
322.227
314.869
307.628
300.518
293.552
286.746
280.112
273.663
267.412
261.34
255.509
10.4349
3.52734
2.28844
1.91372
1.78076
1.7485
1.77073
1.82848
1.91275
2.01891
2.1445
2.28831
2.44991
2.62942
2.82744
3.04498
3.28344
3.54462
3.83069
4.14418
4.48811
4.86595
5.28163
5.73956
6.24485
6.80311
7.4204
8.1039
8.86158
9.70054
10.6298
11.6605
12.8064
14.0717
15.4676
17.0075
18.7045
20.5719
22.6228
24.8675
27.3183
29.9873
32.8862
36.0259
39.4163
43.0665
46.9843
51.1761
55.6466
60.399
65.4352
70.7562
76.3616
82.25
88.4186
94.8636
101.58
108.563
115.804
123.298
131.036
139.011
147.212
155.631
164.259
173.084
182.098
191.289
200.647
210.161
219.822
229.619
239.541
249.577
259.718
269.951
280.268
290.658
301.11
311.614
322.162