/*--------------------------------*- C++ -*----------------------------------*\
| =========                 |                                                 |
| \\      /  F ield         | OpenFOAM: The Open Source CFD Toolbox           |
|  \\    /   O peration     | Version:  2112                                  |
|   \\  /    A nd           | Website:  www.openfoam.com                      |
|    \\/     M anipulation  |                                                 |
\*---------------------------------------------------------------------------*/
FoamFile
{
    version     2.0;
    format      ascii;
    arch        "LSB;label=32;scalar=64";
    class       volScalarField;
    location    "0.28";
    object      k;
}
// * * * * * * * * * * * * * * * * * * * * * * * * * * * * * * * * * * * * * //

dimensions      [0 2 -2 0 0 0 0];

internalField   nonuniform List<scalar> 
12225
(
0.750507
1.07633
1.29925
1.43516
1.50862
1.54125
1.54875
1.54163
1.52669
1.50811
1.48839
1.46893
1.45048
1.43339
1.41778
1.4037
1.39074
1.38117
0.431924
0.468091
0.486136
0.498073
0.507812
0.515888
0.522895
0.529556
0.536397
0.543722
0.551666
0.560254
0.569441
0.579141
0.589263
0.599698
0.61077
0.622127
0.389755
0.405703
0.407858
0.40237
0.393946
0.384454
0.374729
0.365276
0.356431
0.348406
0.341316
0.33521
0.330087
0.325911
0.322629
0.320188
0.31853
0.31753
0.377068
0.37958
0.379914
0.377792
0.37386
0.368812
0.363107
0.357046
0.350841
0.344648
0.338579
0.332716
0.327117
0.321817
0.316838
0.312193
0.307883
0.30391
0.374041
0.373451
0.372389
0.370619
0.368159
0.365131
0.36169
0.357972
0.354086
0.350117
0.34613
0.342174
0.338287
0.334497
0.330826
0.327288
0.323895
0.320673
0.373175
0.371577
0.369978
0.368185
0.366142
0.363864
0.361395
0.358781
0.356068
0.353297
0.3505
0.347707
0.344938
0.342213
0.339544
0.336944
0.334423
0.332007
0.372915
0.370943
0.369078
0.367219
0.365317
0.363353
0.361327
0.359247
0.357129
0.354989
0.352843
0.350705
0.348588
0.346501
0.344453
0.342451
0.340502
0.338632
0.372837
0.370723
0.368733
0.366823
0.364961
0.363124
0.361301
0.359484
0.357675
0.355876
0.354094
0.352334
0.3506
0.348897
0.34723
0.345603
0.34402
0.342502
0.372813
0.370647
0.368604
0.366662
0.364804
0.363014
0.361278
0.359588
0.357936
0.356322
0.354743
0.353199
0.351692
0.350223
0.348791
0.347399
0.346048
0.344757
0.372805
0.37062
0.368555
0.366596
0.364733
0.362956
0.361254
0.359619
0.358044
0.356523
0.355052
0.353629
0.352252
0.350919
0.349629
0.348381
0.347176
0.346028
0.372801
0.370609
0.368533
0.366566
0.364698
0.362922
0.36123
0.359616
0.358073
0.356595
0.355177
0.353816
0.352507
0.35125
0.35004
0.348876
0.347757
0.346695
0.372799
0.370603
0.368523
0.366551
0.364679
0.362901
0.361211
0.359602
0.358069
0.356606
0.355208
0.353872
0.352594
0.35137
0.350197
0.349073
0.347997
0.346978
0.372798
0.3706
0.368516
0.366541
0.364666
0.362885
0.361194
0.359586
0.358055
0.356597
0.355207
0.353881
0.352616
0.351408
0.350253
0.34915
0.348095
0.3471
0.372796
0.370596
0.368511
0.366532
0.364655
0.362872
0.361178
0.359568
0.358036
0.356579
0.35519
0.353868
0.352607
0.351404
0.350257
0.349161
0.348117
0.347132
0.372795
0.370594
0.368506
0.366526
0.364646
0.36286
0.361164
0.359552
0.358018
0.356558
0.355169
0.353845
0.352584
0.351382
0.350235
0.349141
0.348099
0.347117
0.372794
0.370592
0.368503
0.36652
0.364638
0.362851
0.361152
0.359538
0.358002
0.35654
0.355149
0.353823
0.35256
0.351356
0.350208
0.349113
0.348069
0.347086
0.372794
0.37059
0.3685
0.366516
0.364633
0.362844
0.361143
0.359527
0.357989
0.356525
0.355132
0.353804
0.352539
0.351333
0.350183
0.349086
0.348041
0.347057
0.372794
0.37059
0.368498
0.366514
0.364629
0.362839
0.361137
0.359519
0.35798
0.356515
0.35512
0.353791
0.352524
0.351317
0.350166
0.349067
0.34802
0.347034
0.372793
0.370589
0.368498
0.366513
0.364628
0.362837
0.361135
0.359517
0.357977
0.356511
0.355115
0.353785
0.352518
0.35131
0.350157
0.349058
0.34801
0.347024
0.372794
0.37059
0.368499
0.366515
0.36463
0.36284
0.361138
0.35952
0.35798
0.356515
0.355119
0.35379
0.352523
0.351315
0.350162
0.349063
0.348016
0.347029
0.372794
0.370591
0.368501
0.366518
0.364634
0.362845
0.361145
0.359528
0.35799
0.356525
0.355131
0.353802
0.352536
0.351328
0.350176
0.349077
0.348029
0.347042
0.372795
0.370594
0.368505
0.366524
0.364644
0.362857
0.36116
0.359546
0.358011
0.356549
0.355156
0.353828
0.352561
0.351352
0.350197
0.349093
0.34804
0.347046
0.372797
0.370599
0.368517
0.366544
0.364673
0.362898
0.361211
0.359606
0.358076
0.356615
0.355218
0.353882
0.352601
0.351373
0.350195
0.349064
0.347978
0.346949
0.372803
0.370624
0.368574
0.36664
0.364809
0.363069
0.361407
0.359813
0.358277
0.356793
0.355357
0.353964
0.352614
0.351304
0.350033
0.3488
0.347606
0.346463
0.372843
0.370771
0.368872
0.367093
0.365386
0.363719
0.362071
0.360432
0.358799
0.357174
0.35556
0.353961
0.352382
0.350826
0.349297
0.347799
0.346335
0.344921
0.373087
0.37154
0.370199
0.368865
0.367401
0.365756
0.36394
0.361991
0.359947
0.357841
0.3557
0.353544
0.35139
0.349253
0.347142
0.345067
0.343034
0.341065
0.374405
0.375124
0.375577
0.374956
0.37331
0.370967
0.36819
0.365138
0.361913
0.358587
0.35521
0.351821
0.348452
0.345126
0.341863
0.338677
0.335581
0.332597
0.38171
0.392356
0.39569
0.393846
0.389809
0.384887
0.379561
0.374032
0.368422
0.362821
0.357302
0.351928
0.346748
0.341799
0.337111
0.3327
0.328578
0.324759
0.407613
0.426299
0.433508
0.437196
0.440675
0.444177
0.447474
0.45054
0.453404
0.456115
0.458731
0.461309
0.463902
0.466548
0.469278
0.472119
0.475104
0.478308
0.567281
0.749126
0.894832
1.0054
1.09674
1.16915
1.22426
1.2643
1.2918
1.3092
1.3187
1.32218
1.32118
1.31693
1.31038
1.30228
1.29318
1.28351
0.00251656
0.00418413
0.00568488
0.00700936
0.00812984
0.00907107
0.00987051
0.0105686
0.0112132
0.0118721
0.0126081
0.0133941
0.0142347
0.0151389
0.0161045
0.0171269
0.0182071
0.0193556
0.0206126
0.0220828
0.0239155
0.0259834
0.0282322
0.0306471
0.0332313
0.0359921
0.038937
0.0420729
0.0454048
0.0489361
0.052668
0.0565998
0.0607288
0.0650509
0.0695606
0.0742516
0.0791175
0.0841515
0.0893478
0.0947013
0.100209
0.105868
0.111682
0.117654
0.123794
0.130119
0.136653
0.14343
0.150502
0.157806
0.165279
0.172919
0.180726
0.188699
0.196839
0.205145
0.213616
0.222252
0.231051
0.240013
0.249134
0.258414
0.26785
0.277438
0.287175
0.297058
0.307083
0.317244
0.327537
0.337956
0.348496
0.35915
0.369911
0.380773
0.391727
0.402767
0.413885
0.425071
0.436318
0.447617
0.458959
0.470334
0.481733
0.493147
0.504567
0.515982
0.527383
0.53876
0.550103
0.561403
0.572648
0.583829
0.594935
0.605956
0.616881
0.627699
0.638401
0.648974
0.659412
0.669709
0.679865
0.689895
0.699835
0.709648
0.719231
0.728589
0.737717
0.746606
0.755245
0.763622
0.771726
0.779546
0.787071
0.79429
0.801193
0.80777
0.814013
0.819911
0.825458
0.830645
0.835465
0.839912
0.843981
0.847665
0.85096
0.853863
0.85637
0.858479
0.860189
0.861496
0.862403
0.862907
0.863012
0.862718
0.862029
0.860947
0.859476
0.857622
0.85539
0.852785
0.849815
0.846487
0.842809
0.83879
0.83444
0.829768
0.824784
0.8195
0.813928
0.808078
0.801963
0.795597
0.788992
0.782161
0.775117
0.767877
0.760451
0.752854
0.745103
0.73721
0.72919
0.721059
0.712818
0.704515
0.696121
0.687712
0.679371
0.672255
0.668562
0.665241
0.661924
0.658589
0.655225
0.651814
0.648312
0.644617
0.640504
0.635381
0.627874
0.610885
0.00543047
0.0083283
0.0113285
0.0138367
0.0159984
0.0179532
0.0198111
0.0216664
0.0236061
0.025652
0.0277954
0.0301053
0.0326298
0.0354045
0.0384099
0.0416032
0.0449997
0.0486084
0.0524421
0.0565163
0.0608399
0.0654037
0.0701998
0.0752248
0.0804784
0.0859613
0.0916747
0.0976201
0.103799
0.110215
0.116869
0.123767
0.130913
0.138312
0.14597
0.153892
0.162087
0.170559
0.179316
0.188362
0.197704
0.207348
0.217296
0.227555
0.238127
0.249016
0.260223
0.271748
0.283592
0.295747
0.308211
0.320987
0.334077
0.347482
0.361206
0.375248
0.38961
0.404294
0.419299
0.434626
0.450274
0.466243
0.482531
0.499136
0.516056
0.533287
0.550826
0.568667
0.586807
0.605237
0.623953
0.642945
0.662207
0.681728
0.701499
0.72151
0.741748
0.762204
0.782863
0.803714
0.824742
0.845933
0.867274
0.888749
0.910343
0.93204
0.953826
0.975682
0.997594
1.01954
1.04152
1.0635
1.08546
1.1074
1.12929
1.15111
1.17285
1.19449
1.21601
1.23738
1.2586
1.27962
1.30035
1.32064
1.34063
1.36032
1.3797
1.39874
1.41744
1.43575
1.45367
1.47115
1.4882
1.50477
1.52086
1.53643
1.55147
1.56596
1.57988
1.59321
1.60594
1.61805
1.62951
1.64033
1.65049
1.65996
1.66875
1.67685
1.68424
1.69091
1.69687
1.7021
1.7066
1.71038
1.71342
1.71574
1.71732
1.71818
1.71833
1.71775
1.71647
1.71449
1.71182
1.70848
1.70447
1.69981
1.69452
1.6886
1.68209
1.67499
1.66732
1.65912
1.65039
1.64115
1.63144
1.62128
1.61069
1.59969
1.58831
1.57658
1.56452
1.55217
1.53951
1.52666
1.51351
1.50026
1.48696
1.47385
1.46129
1.4488
1.43627
1.4237
1.4111
1.39848
1.3858
1.37303
1.36002
1.34661
1.33159
1.31238
0.00856556
0.0128557
0.0171059
0.020547
0.0235237
0.0262746
0.0289596
0.0317044
0.0345373
0.0374727
0.0405788
0.0439136
0.0475106
0.0513838
0.0555296
0.059939
0.0646064
0.0695287
0.0747045
0.0801332
0.0858123
0.0917372
0.0979049
0.104315
0.110971
0.117878
0.125046
0.132484
0.140206
0.148225
0.156559
0.165222
0.174231
0.183601
0.193346
0.203478
0.214007
0.224943
0.236292
0.248057
0.260242
0.272847
0.285872
0.299315
0.313175
0.327447
0.342129
0.357217
0.372707
0.388597
0.404885
0.421573
0.438661
0.456149
0.474039
0.49233
0.511022
0.530116
0.549611
0.569506
0.589798
0.610488
0.631571
0.653044
0.674904
0.697146
0.719763
0.742751
0.766101
0.789806
0.813856
0.838242
0.862953
0.887977
0.913302
0.938915
0.964801
0.990945
1.01733
1.04395
1.07077
1.09778
1.12497
1.15231
1.17979
1.20738
1.23507
1.26284
1.29066
1.31852
1.34639
1.37425
1.40208
1.42986
1.45758
1.48519
1.5127
1.54007
1.56728
1.59432
1.62116
1.64778
1.67402
1.6999
1.72542
1.75058
1.77533
1.79966
1.82354
1.84693
1.8698
1.89213
1.91389
1.93504
1.95556
1.97543
1.99461
2.01308
2.03082
2.04781
2.06401
2.07942
2.09401
2.10776
2.12065
2.13268
2.14382
2.15407
2.16341
2.17184
2.17934
2.18591
2.19154
2.19624
2.2
2.20282
2.20471
2.20567
2.2057
2.20482
2.20302
2.20034
2.19677
2.19233
2.18704
2.18091
2.17397
2.16624
2.15773
2.14848
2.1385
2.12782
2.11647
2.10448
2.09188
2.07869
2.06495
2.05068
2.03594
2.02073
2.0051
1.98911
1.97267
1.95606
1.93917
1.92211
1.90493
1.88778
1.87086
1.85398
1.83706
1.82013
1.80319
1.78627
1.7694
1.75257
1.73578
1.71906
1.70179
1.68352
0.0112867
0.0176442
0.0231843
0.0275157
0.0312387
0.0346898
0.0380787
0.0414472
0.0448886
0.0484876
0.0523064
0.0563878
0.0607559
0.0654196
0.070376
0.0756166
0.081132
0.0869137
0.0929558
0.0992543
0.105808
0.112617
0.119686
0.127024
0.134641
0.142554
0.15078
0.159339
0.168253
0.177543
0.18723
0.197335
0.207875
0.218866
0.23032
0.242249
0.254658
0.267554
0.280937
0.29481
0.309169
0.324014
0.339339
0.355142
0.371419
0.388164
0.405374
0.423046
0.441177
0.459764
0.478808
0.498309
0.518268
0.538685
0.559562
0.580899
0.602697
0.624955
0.647675
0.670855
0.694495
0.718592
0.743145
0.768151
0.793605
0.819503
0.845839
0.872607
0.899799
0.927406
0.955419
0.983827
1.01262
1.04178
1.0713
1.10116
1.13134
1.16183
1.19261
1.22366
1.25496
1.2865
1.31824
1.35016
1.38225
1.41448
1.44683
1.47927
1.51177
1.54432
1.57689
1.60945
1.64199
1.67446
1.70686
1.73915
1.77131
1.80331
1.83514
1.86677
1.89817
1.92926
1.95996
1.99026
2.02015
2.0496
2.07857
2.10705
2.13498
2.16233
2.18907
2.21517
2.24058
2.26527
2.28922
2.31238
2.33474
2.35625
2.37689
2.39664
2.41546
2.43333
2.45023
2.46614
2.48104
2.4949
2.50772
2.51949
2.53017
2.53978
2.54829
2.55571
2.56202
2.56722
2.57132
2.57431
2.57621
2.577
2.57671
2.57534
2.57291
2.56942
2.56489
2.55934
2.5528
2.54527
2.53679
2.52738
2.51706
2.50587
2.49383
2.48097
2.46733
2.45294
2.43782
2.42203
2.4056
2.38853
2.37093
2.35277
2.33412
2.31509
2.29565
2.27591
2.25588
2.23562
2.21521
2.19475
2.17436
2.15399
2.1336
2.11322
2.09287
2.07261
2.0525
2.03261
2.01302
1.99392
1.97505
1.9565
0.0135662
0.0226272
0.0294015
0.0345517
0.0389752
0.0430627
0.0469547
0.0508186
0.0547701
0.058893
0.0632464
0.0678698
0.0727845
0.0779982
0.0835084
0.0893077
0.0953871
0.101739
0.108359
0.115247
0.122407
0.129845
0.137574
0.145611
0.153974
0.162684
0.171767
0.181245
0.191143
0.201484
0.212288
0.223575
0.23536
0.247657
0.260474
0.27382
0.287698
0.302111
0.317059
0.332542
0.348557
0.3651
0.38217
0.399762
0.417873
0.436499
0.455639
0.47529
0.495452
0.516123
0.537305
0.558999
0.581207
0.60393
0.627171
0.650932
0.675215
0.70002
0.725349
0.751204
0.777583
0.804487
0.831914
0.859861
0.888327
0.917307
0.946795
0.976785
1.00727
1.03824
1.06969
1.1016
1.13397
1.16677
1.19999
1.23363
1.26765
1.30203
1.33677
1.37183
1.4072
1.44284
1.47874
1.51486
1.55119
1.58769
1.62433
1.6611
1.69795
1.73487
1.77181
1.80876
1.84568
1.88255
1.91933
1.95599
1.99252
2.02887
2.06502
2.10094
2.1366
2.17186
2.20669
2.24107
2.27499
2.3084
2.34126
2.37355
2.4052
2.43619
2.46648
2.49602
2.52477
2.55269
2.57975
2.60591
2.63114
2.6554
2.67865
2.70088
2.72204
2.74211
2.76106
2.77887
2.79552
2.81099
2.82526
2.83832
2.85014
2.86073
2.87007
2.87815
2.88497
2.89052
2.89482
2.89785
2.89963
2.90016
2.89945
2.89752
2.89437
2.89003
2.8845
2.87783
2.87001
2.86109
2.85109
2.84003
2.82795
2.81488
2.80085
2.78589
2.77006
2.75338
2.73587
2.71761
2.69864
2.67891
2.65863
2.63777
2.61638
2.59453
2.57225
2.5496
2.52662
2.50338
2.47995
2.45642
2.43287
2.40931
2.38575
2.36222
2.33878
2.31549
2.29246
2.26982
2.24772
2.22642
2.20582
2.18605
0.0154051
0.0273666
0.0353851
0.0413749
0.0464334
0.050992
0.0553308
0.0596231
0.0639884
0.0685127
0.073257
0.0782613
0.083549
0.0891299
0.095005
0.101171
0.107622
0.114356
0.121373
0.128678
0.13628
0.144192
0.152432
0.161022
0.169983
0.179341
0.189121
0.199347
0.210043
0.221229
0.232925
0.245147
0.257908
0.271219
0.285088
0.29952
0.31452
0.330089
0.346227
0.362935
0.380212
0.398055
0.416464
0.435437
0.454972
0.475068
0.495726
0.516945
0.538727
0.561073
0.583987
0.60747
0.631526
0.656159
0.681373
0.707172
0.733558
0.760536
0.788108
0.816276
0.845043
0.874409
0.904375
0.934939
0.966101
0.997855
1.0302
1.06313
1.09663
1.1307
1.16534
1.20051
1.23622
1.27245
1.30918
1.34639
1.38406
1.42217
1.4607
1.49962
1.53891
1.57853
1.61847
1.65868
1.69914
1.73981
1.78067
1.82167
1.86279
1.904
1.94525
1.98652
2.02777
2.06896
2.11007
2.15106
2.19188
2.23252
2.27293
2.31307
2.35289
2.39225
2.43113
2.46951
2.50736
2.54463
2.58129
2.61728
2.65256
2.68708
2.7208
2.75367
2.78564
2.81668
2.84674
2.87579
2.90377
2.93065
2.9564
2.98098
3.00436
3.0265
3.04739
3.06698
3.08527
3.10222
3.11782
3.13205
3.14491
3.15636
3.16642
3.17506
3.18228
3.18809
3.19249
3.19547
3.19705
3.19724
3.19604
3.19347
3.18955
3.1843
3.17773
3.16987
3.16076
3.15041
3.13886
3.12614
3.11228
3.09733
3.08132
3.06426
3.04626
3.02732
3.00744
2.98675
2.9653
2.94308
2.92021
2.89671
2.87263
2.84803
2.82296
2.79748
2.77164
2.7455
2.71914
2.69263
2.66605
2.63944
2.61284
2.5863
2.55989
2.53371
2.50789
2.4826
2.45805
2.4345
2.41191
2.39034
0.0167966
0.0317346
0.0409507
0.0476515
0.0532248
0.0582355
0.0629768
0.0676319
0.0723275
0.0771544
0.0821779
0.0874423
0.0929755
0.0987925
0.1049
0.111301
0.117995
0.124986
0.132279
0.139884
0.147814
0.156087
0.164724
0.173747
0.18318
0.193047
0.203374
0.214183
0.225496
0.23733
0.249704
0.262632
0.276125
0.290194
0.304845
0.320085
0.335918
0.352348
0.369375
0.387003
0.405233
0.424065
0.4435
0.463539
0.484185
0.505439
0.527303
0.549781
0.572876
0.596593
0.620936
0.64591
0.671523
0.697778
0.724683
0.752244
0.780466
0.809355
0.838916
0.869153
0.900071
0.931673
0.963959
0.996932
1.03059
1.06493
1.09996
1.13566
1.17202
1.20905
1.24673
1.28505
1.324
1.36355
1.40369
1.4444
1.48565
1.52743
1.5697
1.61244
1.65562
1.6992
1.74315
1.78744
1.83202
1.87687
1.92194
1.9672
2.0126
2.05811
2.10369
2.1493
2.19489
2.24044
2.28589
2.33121
2.37636
2.4213
2.46598
2.51038
2.55432
2.59776
2.64068
2.68304
2.7248
2.76591
2.80632
2.84599
2.88485
2.92286
2.95996
2.99611
3.03126
3.06536
3.09835
3.1302
3.16086
3.1903
3.21847
3.24532
3.27084
3.29498
3.3177
3.33899
3.35882
3.37717
3.39401
3.40933
3.42311
3.43535
3.44603
3.45514
3.46269
3.46867
3.47308
3.47594
3.47724
3.477
3.47524
3.47198
3.46722
3.46099
3.45333
3.44424
3.43378
3.42197
3.40884
3.39441
3.37875
3.36191
3.3439
3.32472
3.30454
3.28335
3.26119
3.23813
3.21424
3.18953
3.1641
3.13798
3.11123
3.08392
3.0561
3.02782
2.99915
2.97016
2.9409
2.91147
2.88193
2.85235
2.82279
2.79331
2.764
2.735
2.70645
2.67854
2.6515
2.62561
2.60078
2.57703
0.0178327
0.0355852
0.0457773
0.0531133
0.0591877
0.0646124
0.0697047
0.0746611
0.0796168
0.0846692
0.0898892
0.0953268
0.101016
0.106979
0.113229
0.119774
0.126623
0.133783
0.141265
0.149082
0.15725
0.165789
0.17472
0.184066
0.19385
0.204095
0.214825
0.226059
0.237818
0.250118
0.262976
0.276404
0.290415
0.305017
0.320221
0.336032
0.352458
0.369502
0.387171
0.405469
0.424399
0.443966
0.464174
0.485027
0.506531
0.528691
0.551511
0.575
0.599162
0.624007
0.649541
0.675773
0.702712
0.730366
0.758745
0.787857
0.817711
0.848316
0.879678
0.911805
0.944704
0.97838
1.01284
1.04808
1.0841
1.12091
1.1585
1.19687
1.23601
1.27592
1.31657
1.35797
1.4001
1.44293
1.48645
1.53064
1.57546
1.6209
1.66692
1.71348
1.76056
1.80812
1.85611
1.9045
1.95325
2.0023
2.05163
2.10117
2.1509
2.20075
2.25069
2.30067
2.35065
2.40058
2.45041
2.50009
2.54959
2.59885
2.64782
2.69644
2.74452
2.79205
2.839
2.88532
2.93097
2.9759
3.02004
3.06334
3.10574
3.14719
3.18763
3.227
3.26525
3.30233
3.33818
3.37277
3.40603
3.43793
3.46842
3.49747
3.52503
3.55106
3.57554
3.59843
3.6197
3.63934
3.65732
3.67363
3.68825
3.70117
3.71238
3.72187
3.72965
3.7357
3.74005
3.74269
3.74364
3.74291
3.74051
3.73648
3.73082
3.72357
3.71474
3.70438
3.69253
3.67921
3.66447
3.6483
3.63082
3.61206
3.59206
3.57085
3.54852
3.52511
3.50066
3.47525
3.44892
3.42174
3.39377
3.36506
3.33568
3.30569
3.27514
3.24411
3.21265
3.18083
3.14873
3.11643
3.08399
3.0515
3.01903
2.98668
2.95454
2.92275
2.89149
2.86097
2.83141
2.80305
2.7758
2.74966
0.0198676
0.0389306
0.0498902
0.0577591
0.0642507
0.0700183
0.0753971
0.0805933
0.0857487
0.090966
0.0963214
0.101871
0.107655
0.113701
0.120031
0.126659
0.133599
0.140863
0.148464
0.156419
0.164746
0.173464
0.182595
0.19216
0.20218
0.212678
0.223674
0.235188
0.247237
0.259837
0.273005
0.286754
0.301095
0.31604
0.331599
0.347782
0.364596
0.38205
0.400152
0.41891
0.43833
0.458422
0.479193
0.50065
0.522803
0.545661
0.569233
0.593529
0.61856
0.644336
0.67087
0.698172
0.726256
0.755133
0.784816
0.815317
0.846648
0.878821
0.911846
0.945733
0.980492
1.01613
1.05265
1.09007
1.12837
1.16757
1.20767
1.24865
1.29052
1.33326
1.37687
1.42133
1.46663
1.51274
1.55964
1.60731
1.65572
1.70483
1.75462
1.80503
1.85605
1.90761
1.95968
2.01221
2.06516
2.11846
2.17207
2.22594
2.28001
2.33423
2.38856
2.44294
2.49731
2.55163
2.60585
2.6599
2.71374
2.76733
2.82059
2.87335
2.92554
2.97711
3.02805
3.07828
3.12776
3.17644
3.22423
3.27109
3.31695
3.36174
3.40541
3.4479
3.48914
3.52909
3.56769
3.60488
3.64063
3.67487
3.70756
3.73867
3.76814
3.79595
3.82204
3.84639
3.86898
3.88978
3.90878
3.92595
3.94128
3.95477
3.9664
3.97617
3.98406
3.9901
3.99428
3.99661
3.99712
3.99581
3.99271
3.98783
3.98122
3.97288
3.96285
3.95115
3.93787
3.92302
3.90665
3.88879
3.86951
3.84886
3.82689
3.80363
3.77918
3.75357
3.72686
3.69912
3.67041
3.64079
3.61032
3.57907
3.5471
3.51447
3.48126
3.44753
3.41334
3.37876
3.34388
3.30876
3.2735
3.23818
3.20288
3.16771
3.1328
3.09829
3.06435
3.03122
2.9991
2.96821
2.93842
2.90975
0.0223782
0.041761
0.0532691
0.0615466
0.0683628
0.0743974
0.0799973
0.0853753
0.0906774
0.0960103
0.101455
0.107071
0.112905
0.118992
0.125358
0.132022
0.139002
0.146316
0.153979
0.162007
0.170421
0.179239
0.18848
0.198166
0.208316
0.218951
0.23009
0.24175
0.253951
0.266706
0.280033
0.293946
0.308457
0.32358
0.339328
0.355712
0.372743
0.390434
0.408795
0.427839
0.447576
0.468019
0.489178
0.511068
0.533701
0.557089
0.581247
0.606188
0.631929
0.658483
0.685867
0.714096
0.743187
0.773156
0.80402
0.835793
0.868493
0.902135
0.936731
0.972296
1.00884
1.04638
1.08491
1.12445
1.16501
1.20657
1.24915
1.29273
1.33732
1.3829
1.42947
1.477
1.52548
1.57489
1.6252
1.67638
1.7284
1.78123
1.83481
1.88912
1.9441
1.9997
2.05588
2.11258
2.16973
2.2273
2.28521
2.3434
2.40182
2.46041
2.51911
2.57786
2.6366
2.69528
2.75383
2.8122
2.87034
2.92818
2.9856
3.04242
3.09861
3.15413
3.20893
3.26295
3.31614
3.36842
3.41973
3.46999
3.51915
3.56712
3.61385
3.65928
3.70334
3.74598
3.78714
3.82676
3.86479
3.90118
3.93589
3.96887
4.00008
4.02947
4.057
4.08265
4.10638
4.12818
4.14802
4.1659
4.18179
4.1957
4.20761
4.21751
4.2254
4.23129
4.23519
4.23713
4.2371
4.23512
4.23122
4.22544
4.2178
4.20834
4.19707
4.18406
4.16934
4.15297
4.13498
4.11542
4.09436
4.07184
4.04792
4.02266
3.99612
3.96837
3.93945
3.90945
3.87841
3.84642
3.81352
3.7798
3.74532
3.71015
3.67436
3.63801
3.60117
3.56393
3.52635
3.48852
3.45053
3.41248
3.37445
3.33657
3.29896
3.26179
3.22524
3.18952
3.15484
3.12139
3.08901
3.05777
0.0247109
0.0439928
0.0558845
0.0644622
0.0715167
0.0777456
0.0835041
0.0890094
0.0944102
0.0998162
0.105311
0.110959
0.11681
0.122904
0.12927
0.135933
0.142913
0.150231
0.157902
0.165946
0.17438
0.183223
0.192494
0.202211
0.212395
0.223063
0.234234
0.245926
0.258157
0.270942
0.284298
0.298242
0.312788
0.327952
0.343749
0.360194
0.377302
0.395088
0.413569
0.432758
0.452672
0.473328
0.494742
0.516931
0.539912
0.563704
0.588326
0.613796
0.640134
0.66736
0.695493
0.724556
0.754568
0.78555
0.817524
0.850508
0.884524
0.919589
0.955722
0.992938
1.03125
1.07068
1.11123
1.1529
1.19572
1.23967
1.28475
1.33097
1.37832
1.42678
1.47635
1.527
1.57872
1.63147
1.68523
1.73997
1.79564
1.85221
1.90963
1.96785
2.02681
2.08647
2.14676
2.20762
2.26899
2.33079
2.39296
2.45544
2.51815
2.58103
2.64402
2.70705
2.77006
2.83298
2.89576
2.95833
3.02062
3.08257
3.14391
3.2046
3.2646
3.32386
3.38231
3.4399
3.49656
3.55222
3.6068
3.66023
3.71242
3.76332
3.81285
3.86095
3.90756
3.95262
3.99606
4.03784
4.07789
4.11617
4.15263
4.18723
4.21994
4.25067
4.2794
4.3061
4.33074
4.35332
4.3738
4.39218
4.40844
4.42259
4.43462
4.44449
4.45222
4.45782
4.46132
4.46273
4.46206
4.45934
4.4546
4.44785
4.43915
4.42853
4.41602
4.40166
4.38552
4.36763
4.34805
4.32682
4.30401
4.27967
4.25387
4.22667
4.19812
4.16829
4.13726
4.10508
4.07182
4.03755
4.00235
3.96627
3.9294
3.8918
3.85355
3.81471
3.77536
3.73558
3.69544
3.65503
3.61445
3.57379
3.53316
3.49268
3.4525
3.41277
3.37368
3.33545
3.29826
3.26227
3.22731
3.19351
0.0268236
0.0456462
0.0577683
0.0665433
0.0737533
0.0801062
0.0859626
0.0915426
0.0969969
0.102437
0.107948
0.113596
0.119436
0.125507
0.131844
0.138474
0.145418
0.152698
0.160331
0.168336
0.176731
0.185532
0.194759
0.20443
0.214562
0.225173
0.236282
0.247907
0.260065
0.272775
0.286055
0.299921
0.314393
0.329489
0.345226
0.361624
0.378701
0.396477
0.414972
0.434206
0.454199
0.474973
0.496549
0.518951
0.542201
0.566322
0.591339
0.617276
0.644158
0.672009
0.700856
0.730723
0.761636
0.793622
0.826705
0.860909
0.896259
0.932777
0.970484
1.0094
1.04954
1.09092
1.13355
1.17745
1.2226
1.26902
1.31671
1.36565
1.41585
1.46728
1.51993
1.57379
1.62881
1.68498
1.74226
1.80061
1.85997
1.92032
1.98159
2.04372
2.10666
2.17034
2.23471
2.29967
2.36518
2.43114
2.49747
2.56411
2.63097
2.69799
2.7651
2.83222
2.8993
2.96626
3.03303
3.09957
3.16578
3.23142
3.29639
3.36066
3.42415
3.48682
3.54859
3.6094
3.66917
3.72785
3.78536
3.84157
3.89643
3.94987
4.00182
4.05222
4.101
4.14811
4.19347
4.23704
4.27875
4.31856
4.35643
4.39231
4.42619
4.45795
4.48756
4.51502
4.54029
4.56337
4.58423
4.60286
4.61926
4.63342
4.64534
4.655
4.66242
4.6676
4.67058
4.67135
4.66995
4.66641
4.66074
4.65299
4.6432
4.63139
4.61762
4.60193
4.58438
4.565
4.54387
4.52103
4.49654
4.47046
4.44287
4.41381
4.38336
4.35158
4.31855
4.28433
4.24899
4.2126
4.17523
4.13696
4.09786
4.058
4.01746
3.9763
3.93461
3.89246
3.84994
3.80713
3.76413
3.72104
3.67798
3.63507
3.59246
3.55031
3.50882
3.46818
3.42856
3.39012
3.35266
3.31636
0.0287153
0.0467743
0.0589866
0.0678627
0.0751491
0.0815578
0.0874528
0.093056
0.0985192
0.103955
0.109449
0.115069
0.12087
0.126893
0.133174
0.13974
0.146615
0.153819
0.161372
0.16929
0.177592
0.186294
0.195415
0.20497
0.214979
0.225459
0.23643
0.247909
0.259916
0.272471
0.285593
0.299304
0.313624
0.328575
0.34418
0.36046
0.37744
0.395144
0.413596
0.432822
0.452848
0.473701
0.495409
0.518
0.541505
0.565951
0.59137
0.617792
0.645246
0.673763
0.703374
0.734109
0.765999
0.799075
0.833365
0.868899
0.905704
0.943805
0.983225
1.02399
1.06611
1.10961
1.1545
1.20078
1.24845
1.29751
1.34796
1.39979
1.45298
1.50753
1.5634
1.62057
1.67901
1.73868
1.79954
1.86154
1.92463
1.98875
2.05385
2.11985
2.1867
2.25432
2.32263
2.39157
2.46105
2.53099
2.60127
2.67183
2.74258
2.81345
2.88437
2.95527
3.02608
3.09672
3.16714
3.23726
3.30682
3.37572
3.44388
3.51125
3.57776
3.64335
3.70794
3.77146
3.83384
3.89503
3.95498
4.01347
4.07047
4.12594
4.1798
4.23199
4.28244
4.3311
4.37789
4.42278
4.46569
4.50658
4.54541
4.58213
4.6167
4.64908
4.6792
4.70707
4.73264
4.75591
4.77686
4.79548
4.81176
4.8257
4.8373
4.84656
4.85348
4.85809
4.8604
4.86042
4.8582
4.85375
4.8471
4.8383
4.82738
4.81439
4.79937
4.78236
4.76344
4.74264
4.72002
4.69565
4.66958
4.64188
4.61261
4.58184
4.54964
4.51607
4.48121
4.44513
4.40789
4.36957
4.33025
4.28999
4.24888
4.20697
4.16436
4.12111
4.0773
4.03302
3.98833
3.94335
3.89815
3.85286
3.80758
3.76244
3.71761
3.67323
3.6295
3.5866
3.5447
3.50393
3.46411
3.42545
0.0304045
0.0474474
0.0596251
0.068514
0.0758026
0.0822017
0.0880774
0.0936531
0.0990814
0.104475
0.109919
0.115482
0.121218
0.127167
0.133366
0.139841
0.146616
0.153711
0.161146
0.168937
0.177102
0.185657
0.19462
0.204009
0.213841
0.224136
0.234914
0.246194
0.257999
0.27035
0.28327
0.296784
0.310916
0.325692
0.341139
0.357284
0.374158
0.391789
0.410208
0.429447
0.449537
0.470513
0.492409
0.515261
0.539106
0.563979
0.58992
0.616963
0.645144
0.674497
0.705058
0.736863
0.769946
0.804343
0.840086
0.877207
0.915735
0.955697
0.997116
1.04002
1.08441
1.13033
1.17777
1.22674
1.27722
1.32919
1.38266
1.43761
1.49402
1.55187
1.61112
1.67175
1.73371
1.79695
1.86143
1.9271
1.99388
2.06172
2.13054
2.20027
2.27085
2.34218
2.41419
2.48681
2.55998
2.63357
2.70742
2.78148
2.85567
2.92994
3.00419
3.07835
3.15237
3.22615
3.29966
3.37259
3.44484
3.51635
3.58705
3.65686
3.72571
3.79353
3.86025
3.92579
3.99009
4.05305
4.11463
4.17469
4.23317
4.29001
4.34513
4.39848
4.44998
4.49958
4.54722
4.59284
4.6364
4.67783
4.7171
4.75417
4.78899
4.82152
4.85173
4.87959
4.90508
4.92818
4.94888
4.96717
4.98305
4.99651
5.00755
5.01619
5.02243
5.02629
5.02778
5.02694
5.02379
5.01835
5.01067
5.00079
4.98874
4.97457
4.95833
4.94007
4.91984
4.8977
4.87371
4.84794
4.82043
4.79126
4.76049
4.72819
4.69444
4.65929
4.62282
4.58511
4.54622
4.50622
4.4652
4.42321
4.38035
4.33668
4.29227
4.24721
4.20157
4.15542
4.10886
4.06198
4.01487
3.96764
3.92041
3.87331
3.82649
3.78012
3.73437
3.68943
3.64544
3.60255
3.56055
3.5197
0.0319293
0.0477462
0.0597796
0.0686015
0.075823
0.0821504
0.0879512
0.0934503
0.098801
0.104115
0.109478
0.114956
0.1206
0.126451
0.132543
0.138902
0.14555
0.152509
0.159796
0.167429
0.175424
0.1838
0.192574
0.201765
0.211392
0.221476
0.23204
0.243105
0.254698
0.266842
0.279566
0.292897
0.306867
0.321505
0.336845
0.352922
0.369771
0.387429
0.405933
0.425321
0.445633
0.466909
0.489193
0.51253
0.536963
0.562539
0.589304
0.617303
0.646573
0.677145
0.709058
0.742353
0.777071
0.813246
0.850914
0.890104
0.930846
0.973161
1.01707
1.0626
1.10975
1.15854
1.20899
1.26114
1.31484
1.37011
1.42693
1.48529
1.54517
1.60653
1.66933
1.73352
1.79905
1.86587
1.93392
2.00314
2.07345
2.14477
2.21705
2.29018
2.3641
2.43871
2.51394
2.58969
2.66588
2.74241
2.81916
2.89604
2.97299
3.04991
3.12675
3.20342
3.27988
3.356
3.43151
3.50634
3.58041
3.65365
3.72598
3.79733
3.86762
3.93678
4.00473
4.07139
4.13671
4.20059
4.26297
4.32375
4.38287
4.44026
4.49584
4.54957
4.60137
4.65118
4.69896
4.74464
4.78817
4.82952
4.86863
4.90547
4.93999
4.97217
5.00196
5.02936
5.05432
5.07685
5.09693
5.11454
5.1297
5.1424
5.15264
5.16043
5.16579
5.16873
5.16928
5.16745
5.16329
5.15682
5.14807
5.1371
5.12394
5.10864
5.09125
5.07182
5.0504
5.02706
5.00185
4.97484
4.94609
4.91565
4.88361
4.85003
4.81497
4.77851
4.74072
4.70167
4.66142
4.62006
4.57765
4.53427
4.48999
4.44488
4.39902
4.35249
4.30535
4.25769
4.2096
4.16116
4.11246
4.06363
4.01477
3.96602
3.91753
3.86945
3.82196
3.77524
3.72942
3.68465
3.64072
3.59792
0.0334012
0.0477583
0.0595425
0.0682203
0.0753065
0.0814996
0.0871692
0.0925418
0.0977712
0.102968
0.108217
0.113579
0.119105
0.124833
0.130793
0.137012
0.143511
0.150311
0.157428
0.164883
0.172692
0.180876
0.189452
0.198444
0.207872
0.217761
0.228138
0.239028
0.250462
0.262472
0.275089
0.288351
0.302293
0.316954
0.332375
0.3486
0.365675
0.38365
0.402571
0.422477
0.443415
0.465437
0.488598
0.51295
0.538549
0.565448
0.593709
0.623399
0.654552
0.687142
0.721233
0.756871
0.794094
0.832936
0.873424
0.915581
0.959426
1.00497
1.05223
1.1012
1.15189
1.20429
1.25839
1.31418
1.3716
1.43062
1.4912
1.55331
1.61691
1.68194
1.74837
1.81613
1.88516
1.95539
2.02677
2.09921
2.17264
2.24698
2.32215
2.39807
2.47465
2.5518
2.62944
2.70748
2.78582
2.86438
2.94306
3.02176
3.10043
3.17897
3.25733
3.33544
3.41308
3.49009
3.5664
3.64194
3.71663
3.79039
3.86315
3.93483
4.00536
4.07467
4.14268
4.20932
4.27452
4.33821
4.40032
4.46077
4.51949
4.57642
4.63149
4.68464
4.73581
4.78495
4.832
4.87692
4.91965
4.96015
4.99838
5.0343
5.06789
5.0991
5.12791
5.15429
5.17823
5.19972
5.21874
5.23529
5.24937
5.26098
5.27013
5.27682
5.28108
5.28292
5.28236
5.27943
5.27417
5.2666
5.25677
5.24471
5.23046
5.21409
5.19563
5.17514
5.15267
5.12828
5.10203
5.07399
5.04421
5.01275
4.9797
4.9451
4.90903
4.87156
4.83276
4.79269
4.75143
4.70905
4.66562
4.6212
4.57587
4.5297
4.48277
4.43514
4.38688
4.33809
4.28884
4.23921
4.18931
4.13924
4.08911
4.03905
3.98921
3.93975
3.89083
3.84263
3.79527
3.74889
3.70331
3.65883
0.034798
0.0475935
0.0590435
0.0675077
0.0743967
0.0804013
0.0858929
0.0911001
0.0961764
0.101231
0.106343
0.111573
0.116968
0.122562
0.128386
0.134464
0.140818
0.147468
0.154436
0.16174
0.169403
0.177446
0.185893