/*--------------------------------*- C++ -*----------------------------------*\
| =========                 |                                                 |
| \\      /  F ield         | OpenFOAM: The Open Source CFD Toolbox           |
|  \\    /   O peration     | Version:  2112                                  |
|   \\  /    A nd           | Website:  www.openfoam.com                      |
|    \\/     M anipulation  |                                                 |
\*---------------------------------------------------------------------------*/
FoamFile
{
    version     2.0;
    format      ascii;
    arch        "LSB;label=32;scalar=64";
    class       volScalarField;
    location    "0.22";
    object      p;
}
// * * * * * * * * * * * * * * * * * * * * * * * * * * * * * * * * * * * * * //

dimensions      [0 2 -2 0 0 0 0];

internalField   nonuniform List<scalar> 
122250
(
1320.02
-597.676
-35.3703
-89.2824
40.7186
22.3725
36.9833
49.3461
45.3622
39.8809
41.2896
39.0364
36.9761
35.9645
34.3692
33.3964
33.738
30.3464
1320.91
-640.448
-52.0212
-81.5927
35.0403
12.3732
31.9708
41.6053
41.4139
36.9404
40.4691
38.1002
35.2072
33.0885
30.5855
28.4512
26.9705
25.0487
1344.43
-684.021
-78.4125
-74.0398
31.5225
4.4945
22.6198
29.1306
35.4792
34.7661
39.6169
35.992
31.8405
28.3818
25.9857
25.4645
24.6737
21.5789
1343.05
-718.579
-103.864
-60.4528
30.6456
-2.3119
14.0388
17.9194
29.2363
31.0979
33.4635
29.0752
24.8538
22.1775
21.5577
23.8934
24.6817
20.5849
1312.56
-748.364
-103.976
-54.9351
30.2378
-7.00211
9.1628
11.8572
21.9659
24.5745
25.0274
20.9433
19.1019
19.8015
20.4646
22.5784
23.9579
20.044
1260.2
-750.626
-66.7323
-55.1803
28.8285
-10.0247
7.5686
10.2947
16.6256
18.1678
18.7207
16.9543
18.0848
22.0562
22.9475
21.0477
20.3559
17.7801
1207.27
-715.386
2.13806
-54.9383
26.7323
-11.0486
6.83343
10.8201
15.7468
16.0844
16.9994
17.4592
20.5449
24.6887
24.1571
19.0927
15.4105
12.2794
1183.07
-680.904
75.5462
-50.7169
25.6433
-11.2974
6.4849
11.7879
17.8218
17.9595
19.8686
19.7337
20.466
21.1509
20.0832
16.2259
11.5848
6.34737
1185.16
-663.344
126.767
-52.2904
26.5096
-13.0126
5.9617
13.9216
20.8386
22.1788
23.1977
20.7052
18.8175
18.8079
17.75
13.9756
8.20183
1.47925
1191.16
-658.891
153.786
-53.3487
28.9888
-16.039
0.606379
14.386
22.7696
24.583
24.3808
20.8242
18.8049
18.701
16.0226
9.93458
2.81055
-4.03546
1189.98
-655.72
167.619
-58.1665
28.5432
-13.2063
2.32
15.2028
24.1826
24.6348
23.7666
19.7164
16.8575
16.1291
12.0409
3.75535
-3.87805
-9.99032
1188.75
-673.735
164.258
-54.3436
30.5147
-10.4286
13.5143
21.794
25.4476
22.6945
20.1906
15.5144
12.2151
11.7787
7.85913
-1.00581
-9.41355
-14.7964
1279.47
-687.013
105.474
-60.3614
27.9078
7.21782
25.1118
14.5852
24.1862
19.8728
14.9336
9.24819
7.12538
8.01117
4.45874
-4.59151
-13.2835
-18.2168
1174.43
-667.481
119.993
-81.8823
26.4006
3.70036
25.4828
15.6652
24.9478
16.0846
8.18439
4.42992
5.5184
7.92342
4.06491
-6.35497
-15.0856
-19.2953
1286.44
-788.101
51.2829
-66.2908
15.7722
8.90585
38.1858
21.3993
26.439
12.9665
7.10646
8.98794
12.4722
12.9954
7.13402
-4.68935
-13.4808
-15.2311
1213.69
-640.647
146.133
-88.3867
37.8933
13.9053
31.6619
19.6389
26.4034
17.5578
16.0356
18.9416
19.2715
16.2572
10.2678
0.772009
-5.48277
-6.46117
1219.51
-692.484
74.2019
-39.8523
15.6249
8.61535
28.615
22.1706
24.2776
16.1945
13.6858
17.8468
19.8957
17.2149
12.0556
6.868
4.28544
4.02547
1253.36
-649.038
-36.2736
-99.4112
14.0855
1.89063
32.8436
24.0107
20.6124
13.1924
13.9994
22.8471
26.7725
23.4782
18.5654
14.5059
11.9658
10.8023
1394.34
-296.121
-121.187
-165.233
11.8109
24.0091
37.1872
25.591
19.0423
17.7453
21.9566
28.574
31.9691
30.0972
26.2744
22.8694
19.4804
16.5704
1314.98
-490.887
-182.019
-138.345
17.9711
5.26276
35.0847
28.2923
24.3571
21.6562
21.558
23.1809
23.9285
24.2606
25.0626
25.1338
23.7478
19.8252
1162.3
-840.101
-183.784
-93.8008
30.7883
28.6294
34.9022
30.6569
21.7795
15.9956
16.4959
21.867
28.3174
30.8655
28.4668
22.6913
16.5493
11.187
1093.16
-727.721
-48.8931
-32.2877
14.5703
23.6617
28.2155
26.7603
17.9228
9.87497
10.3635
16.1966
19.8502
17.5019
12.8732
8.60917
4.73078
1.91402
1095.33
-726.092
-79.2625
-107.583
-36.1185
10.2503
25.3156
27.5332
25.7075
15.4229
7.38911
7.94861
11.211
9.10987
4.20031
-0.202053
-2.3757
-3.27099
1085.03
-778.788
-140.289
-173.298
-80.6799
-17.7878
13.2785
17.2046
18.6261
16.3771
13.5574
11.2857
9.54974
5.70397
0.727218
-3.2515
-4.86219
-5.08164
1077.96
-830.366
-224.986
-223.354
-108.355
-41.9588
2.38552
9.58102
15.4611
14.0567
13.2062
11.5837
9.43048
6.13702
2.30599
-0.560863
-1.75663
-1.94778
1092.79
-806.117
-265.397
-239.265
-120.492
-58.4747
-6.49631
3.49159
13.7209
13.167
12.9937
11.6005
9.96503
6.93449
3.5266
0.873902
-0.872056
-1.43834
1114.87
-700.768
-260.368
-225.695
-113.873
-65.5786
-9.00453
1.1346
12.3919
13.1075
13.4604
12.139
10.6017
7.72514
4.41978
1.85996
0.288943
0.0482605
1120.66
-538.693
-219.985
-216.506
-103.921
-68.4583
-16.7504
-5.32877
11.6235
13.0892
14.1098
12.5642
11.0638
8.93624
5.38993
2.96777
1.54508
0.899142
1110.44
-401.779
-169.018
-217.559
-95.098
-71.52
-27.7698
-16.3238
3.69134
9.79488
11.57
11.5568
11.1057
9.91281
6.40729
3.81016
2.32431
1.48582
1093.72
-347.506
-136.717
-222.742
-89.918
-64.729
-19.0398
-13.0301
5.76061
12.1978
12.9671
11.8033
11.1266
10.4099
7.91826
5.31448
3.73
3.17535
1219.9
-802.277
-63.0762
-58.2117
45.2902
27.0282
54.8214
58.6953
42.2744
40.1574
43.9839
44.1953
42.6352
40.6884
39.2055
41.9814
47.2267
42.0481
1216.55
-815.755
-63.1591
-58.954
42.5891
21.4533
45.1399
46.3497
40.1096
38.5005
43.5031
43.8603
41.8457
39.0242
36.1461
35.2914
37.7534
36.512
1238.21
-807.588
-49.3961
-54.8688
37.4377
12.4025
31.3227
38.1255
39.3739
39.0211
44.6448
43.1379
40.4096
36.0471
31.7455
29.2916
29.5848
30.0872
1250.22
-778.054
-36.3711
-46.0141
26.1458
-0.348678
19.6947
30.7577
40.7441
41.7017
41.9372
38.9399
35.8147
32.2189
28.2512
26.2509
24.7009
24.3537
1232.76
-743.975
-8.59357
-35.9268
26.8643
-7.54688
14.5656
25.4428
38.6235
39.5307
38.0424
34.5637
31.8931
29.7594
27.1897
23.8608
20.6709
20.1853
1204.32
-708.457
31.3445
-38.3418
25.996
-12.1989
12.7565
22.074
33.2331
33.336
33.5755
31.7393
29.7035
28.8484
27.002
22.1578
17.8634
15.0454
1188.81
-679.065
79.3022
-48.8683
22.8413
-15.4645
10.2836
19.0565
28.974
29.0823
30.1625
29.773
28.1696
27.809
25.853
20.469
15.1233
10.0976
1189.32
-663.366
120.53
-51.6882
20.3011
-18.9821
7.63951
17.5063
26.7942
27.7394
28.4683
27.3875
25.3163
24.2206
22.4034
17.4119
11.9637
5.03571
1194.68
-658.382
148.928
-54.206
19.8376
-24.3285
2.90453
16.3605
25.2337
26.8295
27.4766
25.3824
21.824
19.452
17.5121
12.8021
7.32618
-0.0878902
1199.28
-659.769
167.331
-58.4168
20.7411
-26.8619
-0.727722
14.2343
23.1141
25.231
26.0754
22.902
17.5335
14.2593
11.9069
6.50226
0.76395
-5.30408
1201.39
-668.66
175.667
-59.6262
21.1925
-23.5057
3.24196
15.0111
22.5169
24.2134
23.6105
18.4131
11.7118
8.67714
6.76388
0.0940445
-6.39717
-10.6432
1190.15
-674.988
169.857
-60.286
20.2034
-14.8576
10.9095
18.5693
26.5145
24.0886
19.1584
12.1631
5.9812
4.89186
4.09375
-3.97167
-11.2888
-14.7365
1189.67
-703.118
107.786
-67.3564
6.06076
-1.68043
17.9743
22.3461
30.0633
22.93
14.2318
6.76844
2.43887
3.88929
3.60306
-5.12672
-13.4201
-16.5674
1317.82
-689.369
45.7717
-83.903
31.9955
29.5365
31.2465
27.6494
31.1509
19.5192
9.77666
5.23216
4.61405
7.82974
6.10169
-4.76936
-12.641
-14.2554
1516.23
-605.18
28.0139
-70.4425
34.796
29.2555
40.7515
29.0768
29.7111
16.4577
11.7998
13.6167
15.3449
15.9343
10.6689
-4.78283
-12.7437
-11.0627
1247.51
-670.045
120.816
-62.1202
24.5488
10.7563
29.2551
20.7163
29.457
21.4985
19.8341
21.055
20.7972
18.3174
12.1692
0.757533
-6.24458
-5.6847
1212.41
-630.515
82.6178
-27.8592
19.9846
-0.998324
31.1254
22.132
23.7558
15.7251
13.7868
15.6678
17.0262
15.8963
12.1558
6.98163
4.1369
4.11397
1286.73
-605.002
-27.4461
-110.448
0.668563
-8.77077
28.89
18.2673
13.9272
8.86955
13.9152
19.0935
21.3832
20.3689
17.1936
14.1578
12.1244
11.4186
1393.22
-229.02
-108.386
-140.091
27.4842
-9.93089
40.7585
24.3171
22.1017
26.0959
32.667
32.042
29.3566
27.5265
24.6779
21.6635
18.688
16.284
1343.6
-335.838
-124.613
-144.019
13.5024
11.8387
34.2812
29.0744
26.5801
25.1791
27.0439
26.1911
22.0604
22.2524
24.055
23.0533
20.6178
17.6919
1233.61
-727.294
-203.417
-58.237
55.2983
9.76369
35.9808
30.2329
22.2978
13.6366
11.8495
19.8386
26.859
28.5279
26.4524
20.4193
13.7232
9.14179
1106.57
-734.349
-59.0737
-38.7113
15.9988
20.2931
32.0679
32.5906
21.5294
9.49756
7.56903
12.6493
16.5186
15.0719
12.0411
7.87544
3.98539
1.21695
1105.11
-713.779
-51.3233
-84.0376
-23.4222
8.37389
23.8688
24.2898
21.2922
13.6113
9.62798
9.88684
10.9829
8.64846
4.07913
-0.255164
-2.02447
-2.5035
1093.36
-781.965
-129.29
-139.894
-56.7597
-12.6057
13.1079
15.2283
17.6497
15.3095
13.5444
11.8064
9.67586
5.99244
1.09665
-3.09713
-4.58024
-4.61379
1093.8
-856.85
-242.791
-180.963
-80.4342
-30.9513
2.90086
7.47537
14.0497
13.293
13.3844
12.2849
9.87906
6.36828
2.34965
-1.35629
-3.48849
-3.75224
1124.13
-803.98
-309.893
-198.077
-91.0134
-45.2453
-6.02649
1.41873
12.1049
12.0956
12.9981
12.2704
10.6684
7.60647
3.80232
0.318832
-1.88333
-2.39701
1142.49
-631.433
-280.15
-197.305
-84.7476
-55.2779
-8.8547
-2.42092
9.57269
11.3418
12.9305
12.2602
10.9275
8.28334
4.62895
1.4268
-0.812544
-1.34549
1129.49
-450.315
-193.742
-201.733
-73.6127
-63.4402
-16.6355
-9.27463
8.2777
11.2662
13.1117
12.2228
11.2485
9.25192
6.11867
2.99057
1.32158
1.91281
1105.82
-333.077
-121.967
-210.952
-67.7005
-63.6328
-15.2639
-9.546
4.3265
10.3305
13.2786
12.5881
11.5599
9.29627
6.16713
4.42005
3.60416
3.10512
1088.58
-303.141
-82.0143
-202.825
-58.1854
-49.9983
-0.15087
-3.57148
6.26868
12.0858
13.8547
12.1537
10.7563
9.58743
7.39355
5.80915
4.99041
5.042
1194.99
-803.393
44.7244
19.5076
61.512
32.5219
67.9938
43.7562
44.4255
43.3728
46.5913
46.9386
44.1813
41.8883
38.7102
35.8594
35.1472
31.8201
1182.17
-788.593
47.3974
12.6117
59.5051
28.8588
60.1579
36.9062
41.191
41.6803
45.196
46.2385
42.6036
41.1773
39.1982
36.2031
34.5612
32.1148
1192.81
-741.29
51.9135
-17.9413
51.3727
22.5379
45.5452
36.4103
40.8529
42.8343
46.3016
47.1423
44.4755
41.8718
40.3788
36.7083
33.1846
31.1936
1222.29
-717.761
58.9771
-22.8166
43.6077
12.4243
33.4927
37.8357
43.0516
44.6278
43.9693
42.9342
42.8484
41.4702
40.4405
35.681
29.9055
27.1927
1225.19
-694.916
76.8159
-25.4545
37.7449
7.11921
28.7489
35.9469
45.9347
44.3248
40.8753
37.2691
37.3457
37.5037
37.8
34.5323
28.274
22.3896
1214.94
-675.428
100.018
-30.8957
34.1952
3.06902
25.3294
31.9548
45.0019
41.7123
38.8104
34.9089
32.779
32.4344
31.7079
29.1315
23.7812
17.2454
1208.93
-664.219
123.744
-38.0686
32.3381
-1.06238
20.8787
26.7982
38.8717
36.9871
35.4564
32.7716
29.6529
28.1523
26.861
22.5839
17.5188
11.9002
1205.75
-658.668
145.346
-44.3605
31.0857
-4.4928
18.2757
23.6999
33.7085
32.8365
31.9066
29.9102
26.2054
23.5119
22.1792
17.9016
10.8287
5.3325
1202.97
-656.369
164.07
-47.8335
29.5079
-7.06182
17.2774
21.9482
30.5924
30.3343
30.0001
27.7166
22.7461
18.5561
17.0492
13.5528
5.19507
-1.50842
1202.83
-657.231
178.407
-49.7485
27.1113
-8.83413
17.038
21.3803
29.4687
28.8996
28.3246
25.5427
19.1377
13.1836
11.1237
7.68097
0.011664
-6.5281
1206.45
-662.904
184.953
-55.5158
24.0804
-9.53902
18.3902
21.2852
29.2639
28.3987
25.9164
21.6502
14.7412
8.42377
6.11181
1.73495
-6.05275
-11.191
1202.82
-669.156
177.847
-62.2674
21.3945
-7.66177
20.7623
22.0487
30.4512
28.5086
23.079
17.1173
11.0002
6.32265
3.96062
-2.7265
-12.1321
-16.0667
1181.97
-683.129
148.859
-67.2136
21.8258
0.172557
24.4693
23.9863
31.7156
27.3242
19.85
13.9389
9.17075
6.63193
4.3172
-5.41805
-15.7906
-21.2654
1210.79
-709.026
105.488
-69.8104
36.3278
18.2736
31.1341
28.046
32.6243
24.9443
17.3175
13.5733
10.3305
9.57855
6.65547
-7.19467
-18.4535
-21.1516
1315.42
-681.92
79.2671
-68.0443
34.7416
2.22166
36.2475
30.642
32.4768
25.1422
20.2565
18.5213
16.2632
15.013
9.2079
-7.9676
-19.3652
-16.6569
1290.43
-607.297
47.8478
-103.034
27.2254
15.5473
32.6812
27.2202
30.4263
25.7143
23.1775
21.3897
18.5467
16.0976
9.8542
-3.74204
-13.0195
-10.7503
1261.57
-778.947
21.2176
-34.6264
4.75018
-0.116302
30.36
27.3421
27.0639
19.2872
16.9491
16.1316
15.903
15.2089
11.642
5.51873
1.57394
1.81631
1347.37
-486.325
-59.8378
-161.311
14.235
1.15271
28.4482
24.7191
21.2025
13.7664
15.503
18.5029
19.8678
19.1912
16.9386
14.2684
12.3914
11.8361
1404.17
-316.104
-152.691
-159.87
6.22049
-23.0658
40.4432
21.1215
27.1423
27.6436
28.8814
28.8383
28.0599
26.1391
23.5193
20.7474
17.9328
15.8626
1333.66
-611.4
-236.45
-146.376
-6.73871
2.47932
39.0715
29.112
28.5809
25.1767
24.013
25.2397
24.1465
22.7567
22.5236
21.3154
18.9557
16.22
1154.46
-816.914
-136.829
-63.1309
20.1785
10.7997
31.5322
27.6486
20.2062
13.3609
13.2648
19.1584
25.0791
25.9667
23.2335
17.7841
11.5807
7.12424
1099.43
-728.244
-40.7716
-41.5321
0.847897
15.4977
28.273
28.2536
21.0462
12.184
10.9067
12.824
15.6878
14.355
11.4362
7.53329
3.27795
0.218946
1102.94
-722.13
-47.6396
-76.5801
-22.7562
4.35172
21.2237
21.9432
20.8956
15.697
12.9753
12.0955
11.4356
8.3978
4.44748
0.75712
-1.80827
-2.59336
1089.6
-792.018
-135.543
-136.634
-48.8851
-12.3413
12.3113
13.6563
17.2665
15.3216
14.1661
12.7413
9.8891
5.59191
1.54874
-2.19832
-4.02301
-3.16202
1091.62
-867.21
-253.468
-167.159
-68.3696
-28.7379
4.45076
6.26683
13.7448
13.1636
14.1805
12.5936
9.72434
5.42267
1.67208
-1.57518
-4.11671
-5.02132
1121.6
-780.938
-318.383
-188.342
-79.5452
-43.4446
-4.26616
0.704598
10.4828
11.3978
13.4438
12.248
10.0641
5.95348
1.67052
-1.92555
-4.0407
-3.77455
1137.41
-579.443
-266.243
-196.767
-70.4389
-53.244
-8.97719
-2.63458
7.45308
10.1845
12.9808
11.9776
9.92338
6.23077
2.47027
-0.134084
-1.42519
-1.93005
1124.52
-388.429
-168.639
-204.737
-58.6628
-58.7298
-1.63904
-6.11517
5.27688
9.53518
12.9204
12.5502
10.5809
7.37238
4.44033
1.95055
0.122539
-0.400706
1104.71
-259.398
-97.8053
-225.63
-37.975
-56.0549
-5.05184
-6.42671
1.40217
6.62493
11.8413
13.3826
12.1135
9.15249
5.85652
3.09122
2.63587
3.29615
1089.16
-241.598
-51.3153
-211.317
-33.2129
-47.6861
3.56819
0.617455
3.58155
7.85851
12.9441
13.789
12.8129
10.1954
7.58959
5.80642
6.4061
7.76108
1197.53
-759.427
119.956
68.1155
77.9384
46.0398
56.9878
39.7388
47.253
46.0589
55.9579
55.0174
48.3667
39.0876
33.0169
33.8666
35.3
31.2811
1191.7
-752.386
109.972
57.2599
75.3916
40.5183
46.2318
37.1443
44.5839
43.9472
52.0802
50.7258
45.1868
36.0971
29.2343
29.6152
32.1224
31.204
1197.54
-728.125
89.19
11.9603
62.4256
27.7674
31.5218
40.5651
43.8363
41.9075
47.7292
45.822
41.5927
36.3158
29.1403
27.0127
29.3172
29.5544
1225.61
-706.631
82.1574
-8.53822
50.8836
19.033
30.128
47.2081
47.0193
38.8334
43.0563
40.9627
37.8178
35.312
29.7674
25.304
25.9377
26.5855
1229.27
-684.421
96.0829
-13.9442
44.2206
13.1183
35.2909
47.7821
44.9465
35.7473
38.7197
36.8459
33.8704
32.9385
30.991
24.7013
22.1836
22.3597
1221.15
-670.332
113.733
-20.4082
39.6812
8.02477
33.5245
39.4634
38.188
32.3941
34.464
32.311
30.1994
29.6604
30.8991
25.1873
18.985
17.2476
1214.26
-665.008
132.185
-28.3916
36.5079
2.9693
27.9668
27.9292
31.5872
29.6457
30.7706
28.9233
26.4944
25.957
28.7819
25.7931
16.9424
12.3009
1208.33
-660.113
150.101
-37.4573
34.9504
-1.62001
21.4919
20.6926
27.2568
27.9296
28.461
27.0536
23.2713
21.6077
25.0825
24.8251
15.7052
8.30408
1203.28
-655.242
166.339
-45.5837
34.757
-3.86752
17.1939
17.1122
24.4463
25.7718
26.9759
26.1982
21.3197
17.017
18.835
21.3634
13.2978
4.90844
1201.42
-652.499
178.511
-50.75
35.5494
-3.0329
15.2733
15.5809
23.518
23.2571
24.7685
25.0487
20.1167
13.3061
11.9698
14.4016
8.54916
0.541381
1204.98
-654.266
184.11
-53.1872
36.2864
-0.891943
14.9881
14.9665
23.9849
22.8931
22.2501
22.1286
18.1615
10.8969
7.43188
6.26912
2.10843
-4.26884
1210
-656.208
180.992
-53.4353
36.0636
1.4014
15.7159
15.5277
25.2034
23.7058
20.4226
18.289
14.7461
8.90801
5.89957
0.533522
-5.49864
-9.74609
1204.87
-668.412
163.775
-53.2553
36.4307
2.09283
16.0185
17.5827
27.6349
24.0505
18.3112
15.1476
11.0311
6.72905
4.72711
-3.51315
-13.8188
-15.5795
1184.55
-666.065
129.109
-64.2362
40.7332
3.26504
19.0498
21.8427
30.7366
23.8035
17.0836
14.477
9.75855
5.87087
3.52456
-7.8611
-20.8291
-21.3147
1229.58
-695.142
56.7712
-25.377
53.8998
3.41084
30.6905
29.2484
32.6079
23.9746
19.885
17.9421
11.9249
7.5436
3.15171
-11.5735
-24.7542
-22.8828
1366.73
-592.604
-8.52743
-120.656
38.9821
-9.09516
31.6879
24.2237
31.4097
27.0799
24.2384
19.5867
13.26
9.92509
4.53201
-9.12963
-19.9746
-18.3518
1451.44
-611.286
-64.1336
-75.5938
26.526
7.72146
36.8233
35.038
31.3408
23.7996
20.7698
17.2078
15.2882
14.0908
9.90057
2.10929
-3.70899
-3.41187
1345.37
-522.156
-90.1405
-115.2
19.564
-1.89234
40.341
25.8309
24.5292
19.2616
19.9144
20.5499
20.6693
19.6972
16.9606
13.4474
11.2599
11.0542
1370.57
-548.399
-301.594
-229.376
-9.51318
-30.6328
28.5693
24.4668
29.5197
27.3134
28.4531
28.4072
27.6607
25.2805
22.3951
19.4182
16.957
15.3642
1265.3
-789.325
-283.789
-179.747
0.757328
3.35836
38.4456
34.2781
30.8814
27.6073
26.2224
27.1548
25.7935
23.0764
21.4192
19.7228
17.2416
14.5544
1111.56
-781.845
-123.605
-92.0214
8.31221
7.59093
31.6669
30.5438
23.5361
16.403
15.4823
19.4624
23.8751
23.6183
21.3704
16.807
11.1687
6.3913
1103.7
-694.342
-14.6496
-40.4936
0.950696
13.5093
27.6627
29.0211
23.2407
16.6398
14.3995
14.0075
15.1052
13.3963
11.0676
7.44348
3.05474
-0.637878
1103.09
-724.997
-46.7293
-79.0556
-30.11
0.745218
19.8205
22.0835
21.0796
17.4528
14.9518
13.458
11.7672
8.05529
4.51374
1.78352
-0.62484
-3.47251
1088.02
-806.283
-143.108
-141.746
-51.0745
-13.7774
11.8992
14.8657
17.5298
15.832
14.3747
13.2728
10.4871
5.83451
2.1505
-0.639488
-2.6697
-3.15895
1092.37
-872.248
-256.816
-172.237
-62.7279
-28.1464
7.65802
8.47126
14.2809
13.1171
13.1599
11.5773
9.58929
5.34093
1.55535
-1.02602
-2.54703
-3.42305
1123.13
-770.584
-317.681
-195.429
-77.935
-41.6934
1.02539
4.6459
12.7481
12.728
13.213
10.3796
8.7394
5.19804
1.0161
-1.68035
-2.27778
-1.49107
1140.85
-564.654
-253.859
-197.284
-67.2046
-51.2802
-4.30578
2.28553
11.227
10.4878
10.6334
7.87225
6.59603
4.52099
2.07704
0.719626
0.60879
1.26259
1134.06
-376.608
-145.002
-206.681
-85.1286
-56.0971
6.18121
2.99776
10.3007
9.31685
9.63977
7.18658
5.89678
4.86981
4.01731
4.00404
3.6797
3.35226
1117.89
-250.16
-69.1003
-232.762
-64.7586
-63.3423
2.76511
7.58425
10.3747
8.53053
8.18348
6.44535
6.42656
6.80714
7.17822
7.83555
7.30749
5.65627
1093.25
-190.864
2.90772
-229.291
-58.4579
-46.4479
4.45441
9.75425
11.0749
9.87042
9.97034
8.90397
8.17222
8.1918
8.55805
9.8717
9.72482
8.12861
1145.32
-833.059
4.24635
34.1917
91.4032
32.5426
41.574
38.5992
39.9317
50.7777
59.4077
58.4443
55.3479
45.7935
36.6402
31.488
32.8221
32.6287
1138.13
-818.682
6.25125
24.5709
86.7846
28.7899
39.7353
37.8856
37.2044
46.7565
55.6389
54.6767
51.7983
41.4451
31.4404
25.3058
26.9679
30.5132
1152.27
-772.051
3.3911
-10.5825
82.4771
28.1168
36.1125
36.2825
35.4664
42.7077
51.5754
49.5425
47.6514
39.5182
28.1658
21.8726
22.318
26.8761
1185.07
-744.916
13.8847
-25.2563
73.3877
16.0318
32.7481
33.8364
34.1712
38.1502
47.0435
44.4259
41.2363
38.2931
28.2678
20.8663
18.5497
21.8293
1193.75
-713.574
37.0292
-22.2875
62.2847
12.9625
37.099
35.3702
34.6775
34.1124
41.8781
39.1251
34.929
34.0577
30.1962
24.0515
18.7068
17.3777
1186.61
-689.981
72.0538
-22.2963
51.925
6.62556
35.4372
30.6536
31.2582
29.6448
36.5031
33.0399
28.978
28.1729
28.9631
26.5188
20.6925
15.3186
1183.96
-674.027
107.808
-25.3975
42.655
-3.91186
25.8868
21.1237
25.681
25.7468
31.4661
28.5789
25.0709
24.2038
25.6626
25.3597
21.1627
14.2655
1187.79
-663.735
137.425
-29.5305
35.5382
-9.15219
17.5372
15.3801
21.5056
23.2308
26.981
26.4451
22.6914
21.7581
24.1397
22.6732
18.3234
11.4941
1191.59
-656.667
159.71
-35.9812
30.6019
-11.1887
11.6312
12.5356
18.4998
20.803
23.7422
25.4086
21.2148
18.1822
22.1867
20.7643
14.1448
6.70906
1194.48
-651.389
174.488
-43.745
27.7631
-12.2475
9.39543
13.0045
17.8494
17.2
20.8548
23.7228
20.1003
14.6999
16.9079
17.9873
9.26965
1.45073
1199.97
-650.392
181.48
-50.4248
26.717
-10.9977
10.6174
13.6421
17.9429
15.2062
17.7493
20.1331
17.6651
11.9937
11.7872
12.1029
3.84978
-4.1054
1206.43
-654.487
180.287
-50.9186
26.8601
-4.90741
10.4131
13.9617
19.6106
16.6126
15.9644
16.2388
13.1495
8.41638
8.26496
5.674
-3.90745
-10.3565
1204.8
-662.727
166.801
-46.9345
27.8813
-1.26021
10.0072
15.6799
23.7866
19.7536
15.353
14.1538
9.35586
4.3429
4.35669
-0.412353
-11.5786
-17.2713
1185.27
-663.888
146.976
-46.4987
25.207
-4.01328
9.91175
19.6494
28.8464
22.6289
16.3439
14.8464
8.43822
2.14638
0.61444
-6.83212
-19.3229
-23.8113
1260.57
-740.711
58.408
22.6081
24.0228
-23.0484
18.7144
33.6732
35.0396
24.5864
20.4233
17.9993
9.93176
3.58848
-0.955555
-12.6548
-25.6648
-27.3446
1237.12
-678.832
84.8643
-102.808
41.5942
-2.27891
31.0272
28.9037
31.8281
26.1546
24.0103
18.9499
12.4234
7.61892
0.590475
-12.6027
-23.7605
-24.0534
1316.82
-725.506
-49.309
-65.8395
38.9686
10.5575
33.7806
32.4438
28.2804
22.9093
21.2882
18.925
16.9554
13.3975
7.78806
-0.465561
-7.43401
-7.24429
1244.03
-688.595
-108.532
-128.148
20.844
-0.810477
27.0711
21.3516
23.5006
17.8994
20.8122
22.1901
22.1732
19.8623
16.3753
12.5289
10.0946
10.1574
1280.17
-677.405
-303.807
-213.328
-28.8051
-24.296
32.2486
30.519
33.2819
27.747
27.7663
28.9222
28.2597
24.9809
21.739
19.1343
17.045
15.6502
1193.8
-740.076
-205.283
-162.187
-27.7454
11.1588
41.5376
39.3618
33.4357
27.7262
26.3611
27.7903
26.4278
21.6108
19.2449
18.4143
17.1428
14.9376
1112.96
-717.348
-85.8781
-51.6398
2.02466
18.6897
36.3115
35.3489
27.1496
19.7869
17.3631
19.4274
22.2562
20.6523
18.698
15.694
11.8332
7.40459
1120.07
-675.783
17.6848
-30.235
-13.9495
14.334
30.297
30.9315
25.1204
18.83
15.1965
14.2393
14.4517
11.9456
9.3269
6.45404
2.28203
-0.94393
1111.6
-723.183
-41.0841
-72.9452
-35.0374
2.41992
21.105
23.4854
22.0013
18.899
16.2127
14.3089
11.9528
7.53224
4.00804
1.75708
-1.06034
-4.3744
1092.12
-814.333
-144.309
-146.944
-55.1132
-11.8085
14.1049
16.3867
18.2147
16.2024
15.2412
14.8052
12.0797
6.89097
2.97043
0.899776
-0.955392
-3.02048
1093.11
-883.278
-269.659
-192.743
-63.4649
-28.4119
6.97999
9.27109
15.7812
13.2805
12.8725
12.0014
10.466
6.74541
3.52127
1.74175
0.555433
-0.977065
1121.47
-801.785
-321.196
-204.872
-73.8441
-36.6374
5.66212
4.69938
13.6593
13.2926
12.8928
10.8538
8.91731
5.94083
2.95047
1.5626
1.81681
2.82247
1142.63
-607.898
-269.857
-204.367
-62.443
-41.8414
-2.64359
2.62417
10.7297
10.1252
10.022
8.39036
7.14725
4.75617
2.73726
2.40816
3.3476
5.36957
1136.65
-412.309
-163.515
-210.302
-65.3438
-43.8502
2.25082
6.49083
9.57502
8.33432
8.28262
8.03062
7.51989
5.84762
4.59497
4.46442
5.33074
7.48873
1119.49
-284.731
-87.4261
-232.677
-64.0189
-45.6318
2.83738
6.94153
12.7536
10.0464
8.37155
8.00631
8.24371
8.31231
8.11148
7.42834
7.32232
8.81386
1094.81
-238.17
-34.7037
-242.841
-57.3054
-44.1978
10.432
11.702
15.0465
12.5831
10.9577
9.56266
8.54027
7.11817
6.60139
7.68934
9.01641
10.6934
1158.48
-878.432
-107.016
-42.6105
49.3091
17.2996
54.3228
36.8595
47.1294
48.8755
56.2709
60.5819
62.3524
59.5061
50.3574
42.4558
36.3577
32.1555
1170.03
-886.427
-107.654
-52.7668
47.5386
11.3344
51.3831
36.7636
45.4302
45.5849
53.0443
56.9756
58.3828
55.8686
48.0662
38.54
31.9121
29.4666
1206.35
-857.365
-105.86
-63.4927
48.6283
14.8654
45.2872
36.197
44.3601
41.062
47.487
50.4633
52.1519
50.1383
44.1529
34.5668
27.6447
26.8915
1229.85
-827.969
-81.9962
-61.6431
35.9119
10.7699
38.7722
33.8189
41.1631
36.7213
41.4428
44.4276
46.1362
45.1046
40.835
32.3151
24.9476
23.2889
1224.98
-801.878
-41.8865
-53.1562
34.7826
7.21692
35.7404
33.6998
37.6966
31.4465
35.8202
39.4187
39.4285
39.6302
37.8815
32.1314
23.7079
19.8164
1203.24
-768.235
1.72222
-44.1094
37.2298
7.40441
33.1884
29.6712
32.2806
25.3956
32.2777
33.8887
31.8338
31.569
32.2526
30.5288
23.8426
17.2592
1178.64
-732.946
56.8058
-35.4196
40.3386
5.83051
25.436
16.4971
22.9603
19.7148
28.5198
28.1121
25.6441
24.9586
25.8853
26.196
22.4875
15.4093
1171.39
-699.56
107.736
-31.8576
38.5959
0.259464
16.7893
6.18569
14.8135
16.2864
24.0968
24.8339
23.3835
22.2737
22.2382
20.271
17.1769
11.2313
1177.66
-674.04
145.69
-32.0325
34.6758
-1.62014
18.4048
6.92236
12.0248
15.6583
20.4864
23.4439
21.8489
20.0498
20.9572
17.5812
11.7164
4.6285
1186.68
-657.471
168.036
-33.9263
30.5902
-0.0990977
19.4001
15.9252
13.0485
13.6368
18.5132
21.4755
19.6803
16.8817
17.5357
14.9727
7.81884
-0.988518
1195.73
-651.229
176.872
-38.2383
27.5545
1.03949
14.5297
16.0143
14.3983
11.9024
16.3982
18.2345
15.4006
12.3643
12.8324
10.1587
3.04522
-6.16721
1198.67
-650.5
173.704
-40.9577
26.5553
1.18889
12.0096
12.7793
15.7451
12.558
15.3089
16.2614
11.4359
7.88951
8.76638
5.07898
-3.63416
-12.055
1187.79
-649.212
144.468
-44.2473
23.8926
2.7134
11.5813
12.5851
18.6321
16.4119
16.1867
16.116
9.93483
4.9396
5.37006
0.680301
-10.5773
-18.8309
1203.85
-709.971
92.215
-36.2638
18.4898
1.56867
14.5331
18.3239
24.6784
22.9531
18.8731
17.1326
10.4377
4.23444
2.41975
-4.20725
-17.6472
-25.7853
1482.37
-625.413
-9.74943
-46.9035
36.1627
7.48123
27.4025
38.9077
38.7269
29.6869
22.1128
18.5763
11.6359
5.39006
0.0185272
-9.8237
-23.8305
-30.0914
1213.46
-608.775
138.379
-103.085
30.9568
5.32815
34.0425
36.1238
33.1941
28.3017
23.5516
19.2882
14.132
7.68242
-0.750275
-12.2353
-23.3987
-26.2706
1232.88
-746.593
-29.2176
-27.886
28.4365
19.1584
34.2799
31.5447
26.7163
22.1148
22.03
21.0572
18.6569
13.1997
6.38845
-1.11796
-7.95292
-7.95402
1188.05
-683.679
-77.3092
-113.617
6.86985
3.71542
27.1258
20.8499
23.1776
18.1497
21.2368
23.532
23.4251
19.9697
15.6671
12.2363
9.97638
10.2847
1242.33
-597.514
-171.086
-93.4458
-14.0191
-0.782788
30.4527
35.1789
34.2393
27.1497
26.2744
27.9079
27.8935
24.9288
21.3267
18.9812
17.3294
16.3535
1161.59
-613.351
-86.4237
-50.9995
-7.45208
22.9021
46.3529
45.1882
36.489
27.4204
24.1862
28.1147
26.1516
19.7071
16.9283
16.8818
16.7664
15.7132
1123.82
-641.798
14.3537
-5.35029
-0.144914
25.5481
41.3424
40.3147
30.2729
21.4357
16.7866
18.4158
19.9155
17.4737
15.251
14.4494
12.06
9.03517
1127.27
-646.524
50.4098
-16.9167
-13.0821
19.3018
33.4046
33.3333
27.8871
20.1667
16.7029
15.0862
13.92
11.8489
8.45822
5.17765
1.29015
-1.60893
1117.91
-711.939
2.67654
-66.6828
-36.2534
6.21086
23.0256
24.8081
23.0904
19.6969
17.4435
15.1497
11.3173
6.76225
3.38456
0.124767
-3.48313
-5.99374
1097.17
-809.407
-120.008
-143.727
-61.3246
-12.3465
13.8767
17.1667
19.0627
17.1893
15.6649
14.8992
10.8711
5.38292
2.5001
0.444787
-1.47425
-3.38876
1089.15
-872.642
-249.185
-205.37
-74.6174
-30.1487
6.61904
9.22118
15.8135
15.2278
14.2225
12.6417
9.34636
5.07969
2.6575
1.69104
1.0564
-0.0343777
1113.98
-834.372
-310.449
-216.275
-81.8068
-43.3699
3.39039
3.53162
13.524
14.3159
14.0135
11.4417
7.54274
3.30461
0.963001
0.679815
1.92668
3.25894
1143.26
-677.007
-300.533
-210.81
-82.9709
-49.7586
-0.904805
1.36156
10.7802
12.222
13.1454
11.2756
7.24737
2.81226
0.509681
0.446743
2.32951
5.06039
1139.75
-478.999
-221.873
-205.642
-75.7647
-52.4002
-2.49239
1.69126
8.84924
11.1866
14.5932
14.2969
9.2578
4.22844
1.67588
1.99158
4.38097
8.00326
1125.93
-345.795
-142.183
-218.023
-73.1558
-52.9794
-1.17785
3.12359
10.2089
12.0322
14.4902
13.7075
8.87244
4.21442
3.23366
4.23256
6.81008
10.9607
1098.51
-279.854
-99.5599
-232.355
-64.522
-45.9687
5.31664
5.14038
11.7827
12.5049
13.2456
12.3406
8.54635
4.75519
3.40222
4.12687
7.5394
13.1837
1259.24
-580.459
-66.5113
-86.4997
30.4469
19.6537
52.3554
42.9798
45.6551
45.1468
49.525
49.5899
49.1358
47.7598
46.6801
43.0763
36.252
33.0841
1272.17
-621.544
-89.0024
-85.5662
15.339
0.264683
51.965
42.3328
44.1074
43.9446
47.8144
47.6807
46.554
44.4373
42.0391
39.1149
34.3559
30.7028
1307.82
-647.357
-98.6864
-99.7684
15.1625
2.68349
49.4907
41.5668
45.3394
41.88
45.3749
44.4309
42.4549
39.4596
35.7692
33.2487
32.8265
30.9796
1326.83
-683.43
-110.714
-94.3503
9.84319
1.85688
43.8232
41.913
43.6946
39.2863
41.7669
41.4371
39.2722
34.6276
29.5023
26.9248
28.4993
29.3626
1324.51
-736.894
-117.587
-64.402
13.2361
-5.14903
37.7881
41.2321
40.5029
35.2854
35.6242
37.8625
34.6791
29.4766
25.5218
21.8255
22.784
25.3872
1288.95
-768.704
-94.3786
-55.1077
12.7038
-9.1779
34.6897
32.2344
34.5229
27.9101
30.5844
31.3898
27.5128
24.8973
24.7318
23.3025
20.9597
19.9291
1235.93
-762.498
-35.8994
-54.7181
17.3114
-7.8847
29.2565
16.0919
24.5687
20.4621
26.2786
23.1683
25.8636
26.4181
24.3209
23.1237
20.6708
16.4719
1190.73
-715.22
46.5374
-48.4894
24.6593
-5.66508
20.6284
7.49562
14.4564
15.9337
21.1003
22.6551
27.6749
27.8531
22.3606
17.269
15.1723
11.472
1174.25
-674.725
114.793
-42.0261
27.9466
-4.07232
17.9446
3.27938
9.37006
13.3037
19.2537
24.0423
25.2428
24.3569
20.4718
14.3676
8.9922
3.78101
1179.59
-654.433
157.307
-37.0775
30.1553
-1.19372
18.0265
-1.9249
7.30364
12.8385
22.35
22.7456
21.0101
19.4514
16.923
11.714
5.86558
-2.03376
1191.44
-649.884
174.498
-34.5078
30.348
1.16244
16.2233
2.14169
12.9895
17.1901
22.8573
21.2173
17.2962
15.2326
12.893
7.40242
1.34987
-7.50558
1196.61
-651.829
179.493
-29.9349
29.3111
6.84202
15.0205
4.15599
19.4179
19.2251
20.9356
19.5735
14.7362
12.1881
10.0565
3.42942
-4.96887
-14.1593
1185.81
-650.788
149.954
-30.3859
24.713
9.6814
12.1763
4.83184
24.1818
19.8089
19.3184
18.2555
13.333
9.80985
7.49283
0.245731
-11.3479
-21.5219
1162.58
-700.587
111.741
-32.6326
28.4814
4.90064
11.0614
10.1473
24.56
22.5597
19.5336
17.5123
12.4151
8.12946
4.63777
-3.39497
-17.4063
-28.5214
1444.3
-631.297
32.3491
-49.839
38.0634
16.5202
32.4334
34.2342
35.7052
27.6187
21.4481
17.5952
12.4291
6.96456
0.964177
-8.18257
-22.058
-31.3745
1214.66
-603.73
160.775
-87.1398
20.3257
15.427
33.0633
33.8892
30.1893
23.417
22.0146
18.814
14.3705
7.55829
-1.4506
-11.0331
-20.867
-24.7103
1208.41
-608.294
71.5614
-17.1213
18.9355
18.0768
31.0593
28.1232
22.4876
16.635
20.2474
21.2703
19.586
13.4616
5.95008
-0.137384
-5.82263
-6.46854
1193.35
-638.83
-5.48257
-17.6458
22.7681
12.4829
23.8533
21.0401
20.0482
12.6749
17.2845
23.1396
24.4298
21.3509
16.2742
12.8741
10.8634
10.9247
1241.35
-611.222
-155.53