/*--------------------------------*- C++ -*----------------------------------*\
| =========                 |                                                 |
| \\      /  F ield         | OpenFOAM: The Open Source CFD Toolbox           |
|  \\    /   O peration     | Version:  2112                                  |
|   \\  /    A nd           | Website:  www.openfoam.com                      |
|    \\/     M anipulation  |                                                 |
\*---------------------------------------------------------------------------*/
FoamFile
{
    version     2.0;
    format      ascii;
    arch        "LSB;label=32;scalar=64";
    class       surfaceScalarField;
    location    "0.23";
    object      phi;
}
// * * * * * * * * * * * * * * * * * * * * * * * * * * * * * * * * * * * * * //

dimensions      [0 3 -1 0 0 0 0];

oriented        oriented;

internalField   nonuniform List<scalar> 
24170
(
3.04065e-06
1.47755e-07
2.86548e-06
1.75176e-07
2.69173e-06
1.73746e-07
2.51948e-06
1.72247e-07
2.35409e-06
1.65397e-07
2.20051e-06
1.53576e-07
2.06216e-06
1.38345e-07
1.94133e-06
1.20835e-07
1.83921e-06
1.0212e-07
1.75589e-06
8.33151e-08
1.69047e-06
6.54289e-08
1.64118e-06
4.92901e-08
1.60574e-06
3.54348e-08
1.58159e-06
2.41476e-08
1.56609e-06
1.54996e-08
1.55625e-06
9.84113e-09
1.54589e-06
1.03636e-08
2.41889e-08
1.5217e-06
3.48904e-06
7.59623e-08
3.53943e-06
1.24788e-07
3.571e-06
1.42177e-07
3.58379e-06
1.59455e-07
3.57854e-06
1.70647e-07
3.55765e-06
1.74463e-07
3.52398e-06
1.72018e-07
3.48049e-06
1.64322e-07
3.43007e-06
1.52545e-07
3.37525e-06
1.3813e-07
3.31811e-06
1.22566e-07
3.26017e-06
1.07233e-07
3.20245e-06
9.31554e-08
3.14561e-06
8.09869e-08
3.09003e-06
7.10807e-08
3.03596e-06
6.3917e-08
2.9865e-06
5.98161e-08
5.39191e-08
2.95677e-06
3.6804e-06
5.80751e-08
3.69891e-06
1.06279e-07
3.71824e-06
1.22853e-07
3.74038e-06
1.37317e-07
3.76313e-06
1.47888e-07
3.78491e-06
1.52685e-07
3.80433e-06
1.526e-07
3.82013e-06
1.48526e-07
3.83158e-06
1.41094e-07
3.83851e-06
1.31201e-07
3.84106e-06
1.20015e-07
3.83967e-06
1.08622e-07
3.83496e-06
9.78639e-08
3.82764e-06
8.83028e-08
3.81841e-06
8.0313e-08
3.80841e-06
7.39169e-08
3.79934e-06
6.88855e-08
6.1921e-08
3.79134e-06
3.93616e-06
4.73016e-08
3.94773e-06
9.47059e-08
3.95733e-06
1.1326e-07
3.9676e-06
1.27041e-07
3.97865e-06
1.36843e-07
3.99033e-06
1.41e-07
4.00253e-06
1.40403e-07
4.01486e-06
1.362e-07
4.0267e-06
1.29248e-07
4.03754e-06
1.20361e-07
4.04711e-06
1.1045e-07
4.05532e-06
1.00406e-07
4.06229e-06
9.08992e-08
4.06825e-06
8.2339e-08
4.07367e-06
7.48954e-08
4.07917e-06
6.84171e-08
4.08549e-06
6.25679e-08
5.53868e-08
4.09202e-06
4.21526e-06
3.91702e-08
4.22548e-06
8.44837e-08
4.23424e-06
1.04499e-07
4.24311e-06
1.18169e-07
4.25229e-06
1.27671e-07
4.26151e-06
1.31777e-07
4.27065e-06
1.3126e-07
4.27957e-06
1.27277e-07
4.28807e-06
1.20747e-07
4.29596e-06
1.12473e-07
4.30315e-06
1.03267e-07
4.30966e-06
9.38961e-08
4.31563e-06
8.49281e-08
4.32129e-06
7.66796e-08
4.32694e-06
6.92421e-08
4.33295e-06
6.24045e-08
4.3399e-06
5.56202e-08
4.75009e-08
4.34779e-06
4.5155e-06
3.27562e-08
4.5249e-06
7.50861e-08
4.53363e-06
9.57704e-08
4.54251e-06
1.09287e-07
4.55168e-06
1.18503e-07
4.56082e-06
1.22636e-07
4.5697e-06
1.22375e-07
4.57817e-06
1.1881e-07
4.5861e-06
1.12818e-07
4.5934e-06
1.05176e-07
4.60003e-06
9.66344e-08
4.60606e-06
8.78627e-08
4.61165e-06
7.93459e-08
4.61699e-06
7.13374e-08
4.62236e-06
6.38746e-08
4.62803e-06
5.67343e-08
4.63425e-06
4.93984e-08
4.09437e-08
4.64081e-06
4.83789e-06
2.75818e-08
4.84652e-06
6.64597e-08
4.8551e-06
8.7193e-08
4.86401e-06
1.00379e-07
4.87333e-06
1.09176e-07
4.88273e-06
1.13245e-07
4.89189e-06
1.13207e-07
4.90063e-06
1.10077e-07
4.90878e-06
1.04668e-07
4.91626e-06
9.76946e-08
4.92306e-06
8.98334e-08
4.92925e-06
8.16714e-08
4.93497e-06
7.36292e-08
4.94039e-06
6.59171e-08
4.94573e-06
5.85352e-08
4.95118e-06
5.12781e-08
4.95684e-06
4.37408e-08
3.53121e-08
4.96247e-06
5.18383e-06
2.33376e-08
5.19174e-06
5.85442e-08
5.20012e-06
7.88126e-08
5.20898e-06
9.15221e-08
5.21835e-06
9.98054e-08
5.22787e-06
1.03721e-07
5.23725e-06
1.03828e-07
5.24627e-06
1.01058e-07
5.25476e-06
9.61816e-08
5.2626e-06
8.98492e-08
5.26978e-06
8.26565e-08
5.27634e-06
7.51102e-08
5.2824e-06
6.75697e-08
5.2881e-06
6.02152e-08
5.29359e-06
5.30478e-08
5.29897e-06
4.58964e-08
5.30427e-06
3.84448e-08
3.0318e-08
5.30926e-06
5.55487e-06
1.98086e-08
5.56213e-06
5.12786e-08
5.57031e-06
7.06379e-08
5.57909e-06
8.2742e-08
5.58844e-06
9.04556e-08
5.59801e-06
9.41529e-08
5.60749e-06
9.43467e-08
5.61667e-06
9.18785e-08
5.62537e-06
8.74737e-08
5.6335e-06
8.17247e-08
5.641e-06
7.5156e-08
5.64791e-06
6.82026e-08
5.65431e-06
6.11694e-08
5.66031e-06
5.42112e-08
5.66601e-06
4.73466e-08
5.67144e-06
4.0471e-08
5.67652e-06
3.33589e-08
2.57824e-08
5.68106e-06
5.95275e-06
1.68305e-08
5.95943e-06
4.4605e-08
5.96738e-06
6.2682e-08
5.97608e-06
7.40474e-08
5.98539e-06
8.11481e-08
5.99496e-06
8.45749e-08
6.0045e-06
8.48133e-08
6.01377e-06
8.26052e-08
6.02262e-06
7.86224e-08
6.03094e-06
7.3406e-08
6.03868e-06
6.74172e-08
6.04585e-06
6.1031e-08
6.05251e-06
5.45087e-08
6.05873e-06
4.79892e-08
6.06458e-06
4.15037e-08
6.07004e-06
3.50046e-08
6.07503e-06
2.83747e-08
2.15069e-08
6.0793e-06
6.37937e-06
1.42726e-08
6.38551e-06
3.84671e-08
6.39323e-06
5.49624e-08
6.40183e-06
6.54484e-08
6.41108e-06
7.18941e-08
6.42065e-06
7.50029e-08
6.43022e-06
7.52437e-08
6.43957e-06
7.32601e-08
6.44853e-06
6.96614e-08
6.457e-06
6.49385e-08
6.46492e-06
5.94969e-08
6.47229e-06
5.3661e-08
6.47914e-06
4.7659e-08
6.4855e-06
4.16206e-08
6.49142e-06
3.55925e-08
6.49685e-06
2.95664e-08
6.50173e-06
2.35013e-08
1.73864e-08
6.50585e-06
5.74276e-06
1.23474e-08
5.74757e-06
3.36609e-08
5.7539e-06
4.86313e-08
5.76108e-06
5.82622e-08
5.76885e-06
6.41237e-08
5.77693e-06
6.69285e-08
5.78504e-06
6.71345e-08
5.79298e-06
6.53123e-08
5.80063e-06
6.20125e-08
5.80789e-06
5.76824e-08
5.8147e-06
5.26849e-08
5.82105e-06
4.73081e-08
5.82696e-06
4.17578e-08
5.83242e-06
3.61587e-08
5.83744e-06
3.05703e-08
5.84199e-06
2.50126e-08
5.84601e-06
1.94864e-08
1.40295e-08
5.84937e-06
7.00014e-06
1.03622e-08
7.00529e-06
2.85105e-08
7.0123e-06
4.16186e-08
7.02041e-06
5.01548e-08
7.02924e-06
5.52917e-08
7.03847e-06
5.77056e-08
7.04777e-06
5.78314e-08
7.05692e-06
5.61597e-08
7.06576e-06
5.31723e-08
7.07418e-06
4.92664e-08
7.0821e-06
4.47607e-08
7.0895e-06
3.99067e-08
7.09637e-06
3.48884e-08
7.10271e-06
2.98264e-08
7.10848e-06
2.47921e-08
7.11367e-06
1.98295e-08
7.11818e-06
1.49696e-08
1.02812e-08
7.12193e-06
8.53289e-06
8.32164e-09
8.53834e-06
2.30548e-08
8.54601e-06
3.39475e-08
8.55505e-06
4.11147e-08
8.56499e-06
4.53588e-08
8.57542e-06
4.72718e-08
8.586e-06
4.72505e-08
8.59646e-06
4.5702e-08
8.6066e-06
4.30298e-08
8.61629e-06
3.95742e-08
8.62545e-06
3.56073e-08
8.63401e-06
3.13441e-08
8.64195e-06
2.69464e-08
8.64925e-06
2.25286e-08
8.65587e-06
1.81693e-08
8.66177e-06
1.39278e-08
8.66689e-06
9.85242e-09
6.02478e-09
8.67115e-06
1.04013e-05
6.22049e-09
1.04071e-05
1.73186e-08
1.04154e-05
2.56469e-08
1.04253e-05
3.11421e-08
1.04364e-05
3.42957e-08
1.04481e-05
3.55736e-08
1.046e-05
3.53144e-08
1.04719e-05
3.38412e-08
1.04834e-05
3.14723e-08
1.04945e-05
2.84839e-08
1.0505e-05
2.50984e-08
1.05149e-05
2.14928e-08
1.0524e-05
1.78038e-08
1.05324e-05
1.41344e-08
1.054e-05
1.05619e-08
1.05468e-05
7.14927e-09
1.05527e-05
3.94766e-09
1.03557e-09
1.05577e-05
1.2679e-05
4.04227e-09
1.2685e-05
1.12863e-08
1.26939e-05
1.67185e-08
1.27049e-05
2.02209e-08
1.27171e-05
2.20545e-08
1.27301e-05
2.2537e-08
1.27435e-05
2.19258e-08
1.27569e-05
2.04572e-08
1.277e-05
1.8362e-08
1.27827e-05
1.58446e-08
1.27947e-05
1.30728e-08
1.2806e-05
1.01813e-08
1.28165e-05
7.27627e-09
1.28262e-05
4.44073e-09
1.2835e-05
1.73932e-09
1.2843e-05
-7.74463e-10
1.285e-05
-3.05763e-09
-5.04528e-09
1.2856e-05
1.54555e-05
1.74909e-09
1.54619e-05
4.87012e-09
1.54715e-05
7.07098e-09
1.54835e-05
8.24651e-09
1.54971e-05
8.50033e-09
1.55116e-05
7.99975e-09
1.55266e-05
6.89925e-09
1.55417e-05
5.34354e-09
1.55566e-05
3.473e-09
1.55711e-05
1.41381e-09
1.55849e-05
-7.28168e-10
1.55979e-05
-2.86704e-09
1.56101e-05
-4.93683e-09
1.56215e-05
-6.88416e-09
1.56319e-05
-8.66795e-09
1.56413e-05
-1.0255e-08
1.56499e-05
-1.16233e-08
-1.27267e-08
1.56576e-05
1.88401e-05
-7.45591e-10
1.88472e-05
-2.16585e-09
1.88578e-05
-3.6043e-09
1.88712e-05
-5.12397e-09
1.88865e-05
-6.74133e-09
1.89029e-05
-8.44083e-09
1.892e-05
-1.01876e-08
1.89373e-05
-1.19374e-08
1.89544e-05
-1.36447e-08
1.89711e-05
-1.52686e-08
1.89871e-05
-1.67749e-08
1.90024e-05
-1.81376e-08
1.90168e-05
-1.9338e-08
1.90303e-05
-2.03639e-08
1.90428e-05
-2.12078e-08
1.90544e-05
-2.18655e-08
1.90651e-05
-2.23398e-08
-2.26086e-08
1.9075e-05
2.29662e-05
-3.63715e-09
2.29744e-05
-1.03826e-08
2.29869e-05
-1.60824e-08
2.30026e-05
-2.0762e-08
2.30204e-05
-2.45909e-08
2.30397e-05
-2.77366e-08
2.30598e-05
-3.03008e-08
2.30802e-05
-3.23504e-08
2.31005e-05
-3.39456e-08
2.31204e-05
-3.51419e-08
2.31396e-05
-3.59871e-08
2.3158e-05
-3.65241e-08
2.31755e-05
-3.67931e-08
2.31919e-05
-3.6832e-08
2.32074e-05
-3.66756e-08
2.32219e-05
-3.63547e-08
2.32354e-05
-3.59002e-08
-3.53166e-08
2.32482e-05
1.6813e-05
-5.93765e-09
1.68194e-05
-1.68196e-08
1.68291e-05
-2.57069e-08
1.6841e-05
-3.26514e-08
1.68544e-05
-3.80424e-08
1.68689e-05
-4.22171e-08
1.6884e-05
-4.53649e-08
1.68992e-05
-4.76259e-08
1.69144e-05
-4.91371e-08
1.69293e-05
-5.00216e-08
1.69437e-05
-5.03827e-08
1.69575e-05
-5.03112e-08
1.69706e-05
-4.98903e-08
1.69829e-05
-4.91951e-08
1.69946e-05
-4.8292e-08
1.70054e-05
-4.72381e-08
1.70156e-05
-4.60844e-08
-4.48551e-08
1.70252e-05
1.46369e-05
-8.24554e-09
1.46432e-05
-2.31761e-08
1.46525e-05
-3.49484e-08
1.46636e-05
-4.37945e-08
1.46761e-05
-5.048e-08
1.46894e-05
-5.55154e-08
1.47031e-05
-5.91397e-08
1.47171e-05
-6.15545e-08
1.47309e-05
-6.29675e-08
1.47444e-05
-6.35554e-08
1.47575e-05
-6.34635e-08
1.477e-05
-6.28218e-08
1.47819e-05
-6.17511e-08
1.4793e-05
-6.036e-08
1.48035e-05
-5.87439e-08
1.48132e-05
-5.6984e-08
1.48223e-05
-5.51511e-08
-5.32869e-08
1.48307e-05
1.27426e-05
-1.07262e-08
1.27492e-05
-2.97833e-08
1.27584e-05
-4.40982e-08
1.2769e-05
-5.4446e-08
1.27807e-05
-6.21808e-08
1.27931e-05
-6.79287e-08
1.28059e-05
-7.19256e-08
1.28188e-05
-7.44363e-08
1.28316e-05
-7.57342e-08
1.2844e-05
-7.6033e-08
1.28561e-05
-7.55061e-08
1.28676e-05
-7.43154e-08
1.28784e-05
-7.26149e-08
1.28886e-05
-7.05441e-08
1.28981e-05
-6.82255e-08
1.29069e-05
-6.57641e-08
1.2915e-05
-6.32502e-08
-6.0743e-08
1.29224e-05
1.10938e-05
-1.35711e-08
1.11009e-05
-3.69161e-08
1.11101e-05
-5.32856e-08
1.11203e-05
-6.46907e-08
1.11314e-05
-7.32617e-08
1.11431e-05
-7.95919e-08
1.1155e-05
-8.38713e-08
1.1167e-05
-8.6439e-08
1.11789e-05
-8.76198e-08
1.11905e-05
-8.76434e-08
1.12017e-05
-8.67002e-08
1.12124e-05
-8.49782e-08
1.12224e-05
-8.26615e-08
1.12318e-05
-7.99172e-08
1.12405e-05
-7.68947e-08
1.12484e-05
-7.37242e-08
1.12557e-05
-7.05158e-08
-6.73418e-08
1.12623e-05
9.65868e-06
-1.7035e-08
9.66655e-06
-4.47878e-08
9.67579e-06
-6.2528e-08
9.68566e-06
-7.45628e-08
9.6962e-06
-8.38005e-08
9.70719e-06
-9.05813e-08
9.71838e-06
-9.50592e-08
9.7296e-06
-9.76622e-08
9.74072e-06
-9.87374e-08
9.75159e-06
-9.85072e-08
9.76206e-06
-9.71699e-08
9.77201e-06
-9.4935e-08
9.78137e-06
-9.202e-08
9.79006e-06
-8.86108e-08
9.79805e-06
-8.48819e-08
9.80532e-06
-8.09946e-08
9.81189e-06
-7.7085e-08
-7.32431e-08
9.81779e-06
8.40982e-06
-2.15019e-08
8.41858e-06
-5.35448e-08
8.42781e-06
-7.17585e-08
8.43735e-06
-8.41033e-08
8.44745e-06
-9.38984e-08
8.45786e-06
-1.00999e-07
8.46839e-06
-1.05585e-07
8.47891e-06
-1.08186e-07
8.48932e-06
-1.09149e-07
8.49949e-06
-1.08673e-07
8.50928e-06
-1.06957e-07
8.51856e-06
-1.04221e-07
8.52725e-06
-1.0071e-07
8.53528e-06
-9.66404e-08
8.54262e-06
-9.22169e-08
8.54926e-06
-8.76369e-08
8.55522e-06
-8.30445e-08
-7.84941e-08
8.56047e-06
7.3233e-06
-2.75189e-08
7.33317e-06
-6.3409e-08
7.34237e-06
-8.09638e-08
7.35163e-06
-9.33623e-08
7.3613e-06
-1.03566e-07
7.37116e-06
-1.10862e-07
7.3811e-06
-1.15522e-07
7.39106e-06
-1.18145e-07
7.40096e-06
-1.19056e-07
7.41071e-06
-1.18419e-07
7.42018e-06
-1.16423e-07
7.42925e-06
-1.13293e-07
7.4378e-06
-1.09268e-07
7.44577e-06
-1.04605e-07
7.4531e-06
-9.95494e-08
7.4598e-06
-9.43328e-08
7.46588e-06
-8.91246e-08
-8.39934e-08
7.47138e-06
6.3783e-06
-3.57555e-08
6.38974e-06
-7.48507e-08
6.39943e-06
-9.06491e-08
6.40932e-06
-1.03251e-07
6.41965e-06
-1.13896e-07
6.43019e-06
-1.21406e-07
6.44099e-06
-1.2632e-07
6.45205e-06
-1.29208e-07
6.46333e-06
-1.30334e-07
6.47471e-06
-1.29796e-07
6.48604e-06
-1.27756e-07
6.49717e-06
-1.24425e-07
6.50796e-06
-1.2005e-07
6.51824e-06
-1.14894e-07
6.52789e-06
-1.09191e-07
6.53678e-06
-1.03223e-07
6.54482e-06
-9.71638e-08
-9.12034e-08
6.55203e-06
5.55913e-06
-4.94184e-08
5.57549e-06
-9.12116e-08
5.59093e-06
-1.0609e-07
5.60849e-06
-1.20815e-07
5.62793e-06
-1.33335e-07
5.64851e-06
-1.41986e-07
5.66966e-06
-1.47471e-07
5.6909e-06
-1.50446e-07
5.71165e-06
-1.51082e-07
5.73133e-06
-1.49472e-07
5.74941e-06
-1.45836e-07
5.76546e-06
-1.4048e-07
5.77918e-06
-1.33769e-07
5.79038e-06
-1.26098e-07
5.79905e-06
-1.17861e-07
5.80533e-06
-1.09503e-07
5.80947e-06
-1.013e-07
-9.39282e-08
5.81219e-06
4.8877e-06
-1.09512e-07
4.94089e-06
-1.44404e-07
4.98535e-06
-1.50544e-07
5.01992e-06
-1.55386e-07
5.04286e-06
-1.56274e-07
5.05447e-06
-1.53599e-07
5.05569e-06
-1.48695e-07
5.04741e-06
-1.42156e-07
5.0306e-06
-1.34272e-07
5.00641e-06
-1.25288e-07
4.97606e-06
-1.15485e-07
4.94073e-06
-1.05153e-07
4.90155e-06
-9.45868e-08
4.85953e-06
-8.40718e-08
4.81553e-06
-7.38625e-08
4.77026e-06
-6.42397e-08
4.72432e-06
-5.53585e-08
-4.75436e-08
4.67794e-06
4.09316e-06
3.94876e-06
3.79822e-06
3.64283e-06
3.48656e-06
3.33296e-06
3.18426e-06
3.04211e-06
2.90783e-06
2.78255e-06
2.66706e-06
2.56191e-06
2.46732e-06
2.38325e-06
2.30939e-06
2.24515e-06
2.18979e-06
2.14224e-06
3.65696e-08
-3.65696e-08
8.46232e-08
-4.80536e-08
1.42436e-07
-5.78128e-08
2.08328e-07
-6.58921e-08
2.79454e-07
-7.11256e-08
3.52081e-07
-7.26268e-08
4.22181e-07
-7.01004e-08
4.86145e-07
-6.39644e-08
5.40917e-07
-5.47716e-08
5.83834e-07
-4.29165e-08
6.12881e-07
-2.90476e-08
6.26945e-07
-1.40637e-08
6.25949e-07
9.95814e-10
6.12223e-07
1.37258e-08
5.87978e-07
2.4245e-08
5.55957e-07
3.20216e-08
5.19263e-07
3.6694e-08
4.80977e-07
3.82852e-08
4.43764e-07
3.72131e-08
4.09777e-07
3.39876e-08
3.80656e-07
2.91205e-08
3.56858e-07
2.37983e-08
3.36575e-07
2.02828e-08
3.15426e-07
2.11489e-08
2.87354e-07
2.8072e-08
2.4605e-07
4.13045e-08
1.85795e-07
6.02547e-08
1.01424e-07
8.43709e-08
-1.21434e-08
1.13568e-07
-1.60158e-07
1.48015e-07
-3.4765e-07
1.87492e-07
-5.78528e-07
2.30878e-07
-8.54687e-07
2.76158e-07
-1.17553e-06
3.20841e-07
-1.53794e-06
3.62416e-07
-1.9365e-06
3.98552e-07
-2.36371e-06
4.27212e-07
-2.81046e-06
4.46756e-07
-3.26653e-06
4.56063e-07
-3.72131e-06
4.5478e-07
-4.16362e-06
4.42311e-07
-4.58276e-06
4.19144e-07
-4.96957e-06
3.86812e-07
-5.31565e-06
3.4608e-07
-5.61374e-06
2.98089e-07
-5.85792e-06
2.44178e-07
-6.0435e-06
1.85582e-07
-6.16748e-06
1.23973e-07
-6.22893e-06
6.14537e-08
-6.22813e-06
-7.94324e-10
-6.17371e-06
-5.4425e-08
-6.06832e-06
-1.05394e-07
-5.91549e-06
-1.52824e-07
-5.71841e-06
-1.97081e-07
-5.48032e-06
-2.38095e-07
-5.20475e-06
-2.75566e-07
-4.89535e-06
-3.09402e-07
-4.55565e-06
-3.39698e-07
-4.18967e-06
-3.65977e-07
-3.80188e-06
-3.87794e-07
-3.39704e-06
-4.04841e-07
-2.98012e-06
-4.16913e-07
-2.55622e-06
-4.23903e-07
-2.13042e-06
-4.25803e-07
-1.70772e-06
-4.22698e-07
-1.29291e-06
-4.14814e-07
-8.90208e-07
-4.02699e-07
-5.02499e-07
-3.87709e-07
-1.30699e-07
-3.718e-07
2.24195e-07
-3.54894e-07
5.59915e-07
-3.35719e-07
8.75034e-07
-3.15119e-07
1.16828e-06
-2.93244e-07
1.43892e-06
-2.70645e-07
1.68783e-06
-2.48903e-07
1.91696e-06
-2.29135e-07
2.12898e-06
-2.12016e-07
2.32698e-06
-1.97999e-07
2.51446e-06
-1.87483e-07
2.69517e-06
-1.8071e-07
2.8725e-06
-1.77333e-07
3.04862e-06
-1.76118e-07
3.22289e-06
-1.74274e-07
3.38835e-06
-1.65454e-07
3.52216e-06
-1.33812e-07
3.57893e-06
-5.67659e-08
3.52421e-06
5.47145e-08
3.37708e-06
1.4713e-07
3.19948e-06
1.77603e-07
3.05113e-06
1.48348e-07
2.95642e-06
9.47076e-08
2.90048e-06
5.59372e-08
2.84699e-06
5.34895e-08
2.76121e-06
8.57867e-08
2.62471e-06
1.36501e-07
2.43179e-06
1.92922e-07
2.17877e-06
2.53016e-07
1.85606e-06
3.22705e-07
1.45267e-06
4.03392e-07
9.67988e-07
4.84684e-07
4.11728e-07
5.56259e-07
-2.02696e-07
6.14424e-07
-8.58097e-07
6.55402e-07
-1.5352e-06
6.77103e-07
-2.2152e-06
6.80003e-07
-2.88114e-06
6.6594e-07
-3.51822e-06
6.37079e-07
-4.11367e-06
5.9545e-07
-4.65691e-06
5.4324e-07
-5.13765e-06
4.80736e-07
-5.54657e-06
4.08916e-07
-5.87624e-06
3.29677e-07
-6.12057e-06
2.44332e-07
-6.27453e-06
1.53957e-07
-6.33517e-06
6.064e-08
-6.30768e-06
-2.74965e-08
-6.20027e-06
-1.07403e-07
-6.01717e-06
-1.83107e-07
-5.76134e-06
-2.55827e-07
-5.43572e-06
-3.25622e-07
-5.04384e-06
-3.91879e-07
-4.58986e-06
-4.53979e-07
-4.0792e-06
-5.10659e-07
-3.51725e-06
-5.61945e-07
-2.91153e-06
-6.0572e-07
-2.27157e-06
-6.39964e-07
-1.60964e-06
-6.61934e-07
-9.39534e-07
-6.70103e-07
-2.66724e-07
-6.7281e-07
4.07587e-07
-6.74311e-07
1.07859e-06
-6.71003e-07
1.7382e-06
-6.59611e-07
2.37149e-06
-6.33286e-07
2.96352e-06
-5.92035e-07
3.50393e-06
-5.40403e-07
3.98486e-06
-4.80938e-07
4.40192e-06
-4.17058e-07
4.7525e-06
-3.50576e-07
5.03415e-06
-2.81657e-07
5.24302e-06
-2.08864e-07
5.37578e-06
-1.32757e-07
5.42655e-06
-5.07787e-08
5.39623e-06
3.03259e-08
5.29957e-06
9.66539e-08
5.15744e-06
1.4213e-07
4.98631e-06
1.7113e-07
4.79686e-06
1.89451e-07
4.59676e-06
2.00107e-07
4.39163e-06
2.05131e-07
4.18574e-06
2.05881e-07
3.98242e-06
2.03328e-07
3.78418e-06
1.98234e-07
3.59297e-06
1.91213e-07
3.4102e-06
1.82771e-07
3.23683e-06
1.73368e-07
3.07342e-06
1.63412e-07
2.92012e-06
1.53296e-07
2.7766e-06
1.43519e-07
2.64193e-06
1.34676e-07
2.51454e-06
1.27387e-07
2.39244e-06
1.22106e-07
2.27365e-06
1.18785e-07
2.1567e-06
1.16952e-07
2.04053e-06
1.1617e-07
1.92457e-06
1.15964e-07
1.80848e-06
1.16082e-07
1.69229e-06
1.16193e-07
1.57572e-06
1.16566e-07
1.45854e-06
1.1718e-07
1.34072e-06
1.1782e-07
1.22301e-06
1.1771e-07
1.10812e-06
1.14897e-07
1.00202e-06
1.06101e-07
9.13477e-07
8.85384e-08
8.50983e-07
6.24942e-08
8.21021e-07
2.9962e-08
8.27975e-07
-6.95384e-09
8.69128e-07
-4.11539e-08
9.28863e-07
-5.97343e-08
-5.55306e-08
9.84393e-07
5.97517e-08
-9.63214e-08
1.33585e-07
-1.21886e-07
2.16568e-07
-1.40796e-07
3.05363e-07
-1.54687e-07
3.96055e-07
-1.61818e-07
4.84318e-07
-1.6089e-07
5.65911e-07
-1.51693e-07
6.36907e-07
-1.3496e-07
6.94165e-07
-1.12029e-07
7.35744e-07
-8.44962e-08
7.6084e-07
-5.41438e-08
7.69577e-07
-2.28003e-08
7.62807e-07
7.76627e-09
7.40542e-07
3.59907e-08
7.03955e-07
6.08315e-08
6.54751e-07
8.12255e-08
5.95058e-07
9.63873e-08
5.2717e-07
1.06174e-07
4.53007e-07
1.11376e-07
3.73575e-07
1.13419e-07
2.88917e-07
1.13778e-07
1.97751e-07
1.14965e-07
9.65814e-08
1.21452e-07
-2.0159e-08
1.37889e-07
-1.59378e-07
1.67292e-07
-3.28613e-07
2.10539e-07
-5.35281e-07
2.66923e-07
-7.85573e-07
3.34662e-07
-1.08302e-06
4.11018e-07
-1.42746e-06
4.92451e-07
-1.81495e-06
5.74979e-07
-2.23845e-06
6.54379e-07
-2.68859e-06
7.26306e-07
-3.15454e-06
7.86783e-07
-3.62476e-06
8.32641e-07
-4.0879e-06
8.61692e-07
-4.53344e-06
8.72747e-07
-4.95227e-06
8.65585e-07
-5.33706e-06
8.40857e-07
-5.68222e-06
7.99938e-07
-5.98447e-06
7.44559e-07
-6.24215e-06
6.76824e-07
-6.45458e-06
5.99248e-07
-6.62264e-06
5.14138e-07
-6.74819e-06
4.23637e-07
-6.83357e-06
3.29562e-07
-6.88136e-06
2.3337e-07
-6.89372e-06
1.36335e-07
-6.87236e-06
4.00959e-08
-6.81638e-06
-5.67803e-08
-6.71922e-06
-1.51584e-07
-6.57952e-06
-2.45093e-07
-6.39664e-06
-3.35702e-07
-6.17159e-06
-4.2213e-07
-5.90638e-06
-5.03304e-07
-5.60347e-06
-5.78476e-07
-5.26532e-06
-6.47555e-07
-4.89552e-06
-7.09495e-07
-4.49849e-06
-7.6301e-07
-4.07879e-06
-8.07493e-07
-3.64105e-06
-8.42588e-07
-3.18988e-06
-8.68078e-07
-2.72984e-06
-8.83943e-07
-2.26526e-06
-8.90385e-07
-1.80013e-06
-8.87831e-07
-1.338e-06
-8.76944e-07
-8.82025e-07
-8.58669e-07
-4.35525e-07
-8.34209e-07
-2.42307e-09
-8.04902e-07
4.13035e-07
-7.70352e-07
8.08259e-07
-7.30944e-07
1.18083e-06
-6.8769e-07
1.52889e-06
-6.41304e-07
1.85113e-06
-5.92881e-07
2.14677e-06
-5.44544e-07
2.4161e-06
-4.98471e-07
2.6606e-06
-4.56508e-07
2.88262e-06
-4.2002e-07
3.08521e-06
-3.9008e-07
3.27189e-06
-3.67383e-07
3.44622e-06
-3.51669e-07
3.61138e-06
-3.41278e-07
3.76919e-06
-3.32078e-07
3.91955e-06
-3.15817e-07
4.06531e-06
-2.7957e-07
4.21695e-06
-2.08405e-07
4.36216e-06
-9.04955e-08
4.44494e-06
6.43458e-08
4.41315e-06
2.09397e-07
4.2659e-06
2.95599e-07
4.0523e-06
3.08305e-07
3.82959e-06
2.78648e-07
3.61742e-06
2.65663e-07
3.38811e-06
3.1509e-07
3.09508e-06
4.29535e-07
2.7031e-06
5.84901e-07
2.19429e-06
7.61828e-07
1.56652e-06
9.50477e-07
8.35303e-07
1.1346e-06
2.96682e-08
1.29032e-06
-8.15154e-07
1.40108e-06
-1.66303e-06
1.4623e-06
-2.48324e-06
1.47561e-06
-3.2526e-06
1.44646e-06
-3.95497e-06
1.38237e-06
-4.58019e-06
1.29116e-06
-5.1229e-06
1.17979e-06
-5.5814e-06
1.05395e-06
-5.9563e-06
9.18144e-07
-6.25071e-06
7.75142e-07
-6.4689e-06
6.27106e-07
-6.61564e-06
4.76414e-07
-6.69611e-06
3.24807e-07
-6.71579e-06
1.73633e-07
-6.6798e-06
2.46576e-08
-6.58337e-06
-1.23927e-07
-6.42017e-06
-2.70602e-07
-6.18826e-06
-4.15026e-07
-5.88873e-06
-5.55355e-07
-5.52392e-06
-6.90432e-07
-5.09715e-06
-8.18643e-07
-4.61263e-06
-9.38506e-07
-4.07507e-06
-1.04821e-06
-3.48987e-06
-1.14715e-06
-2.86176e-06
-1.23383e-06
-2.19807e-06
-1.30365e-06
-1.50654e-06
-1.35346e-06
-7.93068e-07
-1.38358e-06
-6.57747e-08
-1.4001e-06
6.62617e-07
-1.4027e-06
1.37923e-06
-1.38762e-06
2.07597e-06
-1.35635e-06
2.74439e-06
-1.30171e-06
3.3757e-06
-1.22334e-06
3.96349e-06
-1.1282e-06
4.50608e-06
-1.02353e-06
4.99927e-06
-9.10244e-07
5.43705e-06
-7.88353e-07
5.81296e-06
-6.5757e-07
6.12085e-06
-5.16748e-07
6.35539e-06
-3.67301e-07
6.51818e-06
-2.13571e-07
6.61044e-06
-6.193e-08
6.62201e-06
8.50767e-08
6.55086e-06
2.1328e-07
6.4042e-06
3.17798e-07
6.19711e-06
3.96531e-07
5.94665e-06
4.50576e-07
5.66874e-06
4.83032e-07
5.37684e-06
4.97781e-07
5.08141e-06
4.98761e-07
4.79016e-06
4.89484e-07
4.50851e-06
4.7286e-07
4.24004e-06
4.51247e-07
3.98683e-06
4.26581e-07
3.74985e-06
4.00392e-07
3.52926e-06
3.73879e-07
3.3246e-06
3.48184e-07
3.13483e-06
3.24444e-07
2.95841e-06
3.03806e-07
2.79337e-06
2.87146e-07
2.63768e-06
2.74476e-07
2.48956e-06
2.65068e-07
2.34744e-06
2.58294e-07
2.21012e-06
2.53281e-07
2.07689e-06
2.49313e-07
1.94691e-06
2.46176e-07
1.81951e-06
2.43962e-07
1.69411e-06
2.42584e-07
1.57021e-06
2.41715e-07
1.44778e-06
2.40147e-07
1.32809e-06
2.34588e-07
1.21517e-06
2.19016e-07
1.11657e-06
1.87141e-07
1.04275e-06
1.36314e-07
1.00479e-06
6.79235e-08
1.00826e-06
-1.04212e-08
1.05103e-06
-8.39284e-08
1.12047e-06
-1.29174e-07
-1.35705e-07
1.20064e-06
7.76232e-08
-1.73945e-07
1.73596e-07
-2.1786e-07
2.80292e-07
-2.47492e-07
3.92325e-07
-2.66719e-07
5.03825e-07
-2.73318e-07
6.0915e-07
-2.66215e-07
7.0342e-07
-2.45964e-07
7.82694e-07
-2.14234e-07
8.43952e-07
-1.73287e-07
8.85128e-07
-1.25672e-07
9.05028e-07
-7.40435e-08
9.03248e-07
-2.10206e-08
8.80166e-07
3.08482e-08
8.36824e-07
7.93331e-08
7.74947e-07
1.22709e-07
6.96602e-07
1.5957e-07
6.04191e-07
1.88799e-07
5.00154e-07
2.1021e-07
3.85436e-07
2.26094e-07
2.58681e-07
2.40175e-07
1.17609e-07
2.5485e-07
-4.04781e-08
2.73052e-07
-2.19987e-07
3.00961e-07
-4.26367e-07
3.4427e-07
-6.65276e-07
4.062e-07
-9.41689e-07
4.86952e-07
-1.25832e-06
5.83549e-07
-1.61418e-06
6.90532e-07
-2.00416e-06
8.00993e-07
-2.41955e-06
9.07839e-07
-2.84975e-06
1.00518e-06
-3.28391e-06
1.08853e-06
-3.712e-06
1.1544e-06
-4.12558e-06
1.20037e-06
-4.51824e-06
1.2253e-06
-4.88582e-06
1.22927e-06
-5.22629e-06
1.21322e-06
-5.53933e-06
1.17862e-06
-5.82571e-06
1.12724e-06
-6.08662e-06
1.06085e-06
-6.32319e-06
9.81129e-07
-6.53596e-06
8.89591e-07
-6.72432e-06
7.87611e-07
-6.88679e-06
6.76602e-07
-7.02084e-06
5.57691e-07
-7.12322e-06
4.31943e-07
-7.19031e-06
3.00463e-07
-7.2185e-06
1.64518e-07
-7.20389e-06
2.54937e-08
-7.14523e-06
-1.15442e-07
-7.04044e-06
-2.56375e-07
-6.89019e-06
-3.95347e-07
-6.69549e-06
-5.30398e-07
-6.45788e-06
-6.59747e-07
-6.17954e-06
-7.81637e-07
-5.86316e-06
-8.94853e-07
-5.51193e-06
-9.98791e-07
-5.13016e-06
-1.09127e-06
-4.72229e-06
-1.17088e-06
-4.29289e-06
-1.23689e-06
-3.8467e-06
-1.28878e-06
-3.38844e-06
-1.32633e-06
-2.92265e-06
-1.34973e-06
-2.45343e-06
-1.35961e-06
-1.98427e-06
-1.35699e-06
-1.51796e-06
-1.34326e-06
-1.05665e-06
-1.31998e-06
-6.02127e-07
-1.28873e-06
-1.5631e-07
-1.25072e-06
2.79766e-07
-1.20643e-06
7.04871e-07
-1.15605e-06
1.11671e-06
-1.09953e-06
1.51233e-06
-1.03692e-06
1.88827e-06
-9.68824e-07
2.24063e-06
-8.96901e-07
2.5659e-06
-8.23744e-07
2.86203e-06
-7.52632e-07
3.129e-06
-6.86997e-07
3.36824e-06
-6.29316e-07
3.58136e-06
-5.80506e-07
3.77029e-06
-5.40594e-07
3.93751e-06
-5.08505e-07
4.08639e-06
-4.80953e-07
4.21983e-06
-4.49259e-07
4.33965e-06
-3.99385e-07
4.44686e-06
-3.15614e-07
4.54106e-06
-1.84699e-07
4.60836e-06
-2.95663e-09
4.61024e-06
2.07521e-07
4.50944e-06
3.96397e-07
4.30384e-06
5.13906e-07
4.02136e-06
5.61126e-07
3.68437e-06
6.02656e-07
3.28576e-06
7.13701e-07
2.79826e-06
9.1703e-07
2.19998e-06
1.18318e-06
1.49025e-06
1.47156e-06
6.93066e-07
1.74766e-06
-1.4926e-07
1.97693e-06
-9.92575e-07
2.13363e-06
-1.80209e-06
2.21059e-06
-2.55394e-06
2.21416e-06
-3.23518e-06
2.15685e-06
-3.8419e-06
2.05318e-06
-4.37603e-06
1.91651e-06
-4.8424e-06
1.75754e-06
-5.24653e-06
1.58391e-06
-5.59318e-06
1.4006e-06
-5.88549e-06
1.21046e-06
-6.12518e-06
1.01483e-06
-6.31237e-06
8.14298e-07
-6.44532e-06
6.09368e-07
-6.52099e-06
4.00472e-07
-6.53552e-06
1.88165e-07
-6.485e-06
-2.58649e-08
-6.36787e-06
-2.41052e-07
-6.18301e-06
-4.55467e-07
-5.93151e-06
-6.66521e-07
-5.61492e-06
-8.71947e-07
-5.2356e-06
-1.06976e-06
-4.79651e-06
-1.25774e-06
-4.30078e-06
-1.43424e-06
-3.75101e-06
-1.59797e-06
-3.15355e-06
-1.74462e-06
-2.51593e-06
-1.87145e-06
-1.84495e-06
-1.97463e-06
-1.14688e-06
-2.05153e-06
-4.28436e-07
-2.10202e-06
2.99333e-07
-2.12787e-06
1.02469e-06
-2.12806e-06
1.73835e-06
-2.10127e-06
2.42962e-06
-2.04762e-06
3.09246e-06
-1.96455e-06
3.72257e-06
-1.85345e-06
4.31524e-06
-1.72086e-06
4.86575e-06
-1.57404e-06
5.36972e-06
-1.41422e-06
5.82328e-06
-1.24191e-06
6.22373e-06
-1.05803e-06
6.56907e-06
-8.62083e-07
6.85568e-06
-6.53912e-07
7.07822e-06
-4.36114e-07
7.23045e-06
-2.14156e-07
7.31024e-06
5.28803e-09
7.31286e-06
2.10659e-07
7.23761e-06
3.93044e-07
7.09007e-06
5.44073e-07
6.88147e-06
6.59174e-07
6.62665e-06
7.37852e-07
6.34117e-06
7.83265e-07
6.03901e-06
8.00921e-07
5.73126e-06
7.97225e-07
5.42573e-06
7.78398e-07
5.1271e-06
7.49872e-07
4.83763e-06
7.16048e-07
4.55794e-06
6.80088e-07
4.28788e-06
6.43935e-07
4.02735e-06
6.08719e-07
3.77684e-06
5.7495e-07
3.53759e-06
5.43058e-07
3.31113e-06
5.13604e-07
3.09873e-06
4.86873e-07
2.90087e-06
4.62936e-07
2.7168e-06
4.4236e-07
2.54521e-06
4.24867e-07
2.3847e-06
4.09827e-07
2.23377e-06
3.97104e-07
2.0913e-06
3.86434e-07
1.95642e-06
3.77461e-07
1.8285e-06
3.69639e-07
1.70725e-06
3.61399e-07
1.59329e-06
3.48545e-07
1.48894e-06
3.23364e-07
1.39911e-06
2.76975e-07
1.33118e-06
2.04237e-07
1.29228e-06
1.06825e-07
1.28595e-06
-4.0855e-09
1.31187e-06
-1.09853e-07
1.36598e-06
-1.83286e-07
-2.0549e-07
1.43577e-06
9.44685e-08
-2.68413e-07
2.11493e-07
-3.34884e-07
3.39855e-07
-3.75854e-07
4.70993e-07
-3.97857e-07
5.9694e-07
-3.99265e-07
7.11387e-07
-3.80663e-07
8.09807e-07
-3.44384e-07
8.89065e-07
-2.93491e-07
9.46999e-07
-2.31222e-07
9.82134e-07
-1.60807e-07
9.93521e-07
-8.54301e-08
9.80726e-07
-8.22593e-09
9.43829e-07
6.7746e-08
8.83536e-07
1.39626e-07
8.01262e-07
2.04983e-07
6.99131e-07
2.61701e-07
5.80055e-07
3.07875e-07
4.46331e-07
3.43935e-07
2.97567e-07
3.74858e-07
1.30604e-07
4.07138e-07
-5.69764e-08
4.4243e-07
-2.67781e-07
4.83857e-07
-5.05717e-07
5.38897e-07
-7.7469e-07
6.13243e-07
-1.07713e-06
7.08639e-07
-1.41293e-06
8.22748e-07
-1.77827e-06
9.48891e-07
-2.16575e-06
1.07801e-06
-2.56591e-06
1.20115e-06
-2.96907e-06
1.311e-06
-3.36669e-06
1.4028e-06
-3.75226e-06
1.4741e-06
-4.12188e-06
1.52402e-06
-4.47415e-06
1.55264e-06
-4.80959e-06
1.56074e-06
-5.12988e-06
1.54955e-06
-5.43701e-06
1.52035e-06
-5.73249e-06
1.4741e-06
-6.01664e-06
1.4114e-06
-6.28836e-06
1.33256e-06
-6.54502e-06
1.23779e-06
-6.78268e-06
1.12726e-06
-6.99661e-06
1.00153e-06
-7.18177e-06
8.61761e-07
-7.33333e-06
7.09254e-07
-7.44684e-06
5.45456e-07
-7.5186e-06
3.72226e-07
-7.54576e-06
1.91675e-07
-7.52633e-06
6.05951e-09
-7.4594e-06
-1.82369e-07
-7.3448e-06
-3.70975e-07
-7.18286e-06
-5.57287e-07
-6.97443e-06
-7.38832e-07
-6.72093e-06
-9.13241e-07
-6.42448e-06
-1.07809e-06
-6.08797e-06
-1.23136e-06
-5.71607e-06
-1.3707e-06
-5.31342e-06
-1.49392e-06
-4.88488e-06
-1.59941e-06
-4.43581e-06
-1.68597e-06
-3.97189e-06
-1.7527e-06
-3.4989e-06
-1.79932e-06
-3.02242e-06
-1.82622e-06
-2.5475e-06
-1.83453e-06
-2.07839e-06
-1.8261e-06
-1.61834e-06
-1.8033e-06
-1.16949e-06
-1.76883e-06
-7.32864e-07
-1.72536e-06
-3.0832e-07
-1.67526e-06
1.05482e-07
-1.62023e-06
5.10725e-07
-1.56129e-06
9.09397e-07
-1.49821e-06
1.30253e-06
-1.43005e-06
1.68937e-06
-1.35566e-06
2.06695e-06
-1.27448e-06
2.43044e-06
-1.18724e-06
2.77412e-06
-1.09631e-06
3.09268e-06
-1.00555e-06
3.38299e-06
-9.1963e-07
3.64448e-06
-8.41999e-07
3.87666e-06
-7.72767e-07
4.07792e-06
-7.09765e-07
4.24759e-06
-6.50623e-07
4.38617e-06
-5.8784e-07
4.4939e-06
-5.07114e-07
4.56914e-06
-3.90855e-07
4.60855e-06
-2.24112e-07
4.60673e-06
-1.14074e-09
4.54982e-06
2.64433e-07
4.41626e-06
5.29953e-07
4.18776e-06
7.42407e-07
3.85827e-06
8.90619e-07
3.42847e-06
1.03246e-06
2.89754e-06
1.24463e-06
2.26479e-06
1.54978e-06
1.53953e-06
1.90844e-06
7.49327e-07
2.26177e-06
-6.12953e-08
2.55828e-06
-8.46405e-07
2.76204e-06
-1.57621e-06
2.86344e-06
-2.23774e-06
2.87213e-06
-2.83013e-06
2.80655e-06
-3.35987e-06
2.68658e-06
-3.83587e-06
2.52918e-06
-4.26604e-06
2.34668e-06
-4.65544e-06
2.14693e-06
-5.00589e-06
1.93436e-06
-5.31636e-06
1.71107e-06
-5.58379e-06
1.47788e-06
-5.80397e-06
1.23501e-06
-5.97236e-06
9.82687e-07
-6.08446e-06
7.21468e-07
-6.13637e-06
4.52383e-07
-6.12472e-06
1.76517e-07
-6.04802e-06
-1.02567e-07
-5.90551e-06
-3.83564e-07
-5.69756e-06
-6.63417e-07