/*--------------------------------*- C++ -*----------------------------------*\
| =========                 |                                                 |
| \\      /  F ield         | OpenFOAM: The Open Source CFD Toolbox           |
|  \\    /   O peration     | Version:  2112                                  |
|   \\  /    A nd           | Website:  www.openfoam.com                      |
|    \\/     M anipulation  |                                                 |
\*---------------------------------------------------------------------------*/
FoamFile
{
    version     2.0;
    format      ascii;
    arch        "LSB;label=32;scalar=64";
    class       volScalarField;
    location    "0.01";
    object      omega;
}
// * * * * * * * * * * * * * * * * * * * * * * * * * * * * * * * * * * * * * //

dimensions      [0 0 -1 0 0 0 0];

internalField   nonuniform List<scalar> 
12225
(
11262.2
15967.5
17329.7
17283.8
16731.2
16050.6
15392.1
14809.8
14315.3
13900.3
13549.6
13248.5
12985.1
12751
12539.9
12352.5
12169.4
11963
899.151
2113.86
3151.07
3941.85
4500.6
4875.23
5115
5259.28
5337.38
5370.67
5374.27
5358.76
5331.34
5296.58
5257.69
5217.94
5195.87
5186.79
60.3483
216.033
437.284
689.369
936.534
1155.82
1339
1488.08
1609.9
1712.22
1801.58
1882.85
1959.19
2032.43
2103.37
2172.4
2239.02
2293.23
10.918
25.0848
53.4106
96.536
151.003
210.263
268.98
324.019
374.325
420.695
463.936
504.664
543.315
580.182
615.301
648.47
679.063
704.08
8.13086
9.33265
12.3412
17.9117
26.3142
37.0252
49.2657
62.3395
75.6998
88.7688
101.478
113.778
125.692
137.333
148.582
159.233
168.986
177.044
7.96848
8.10128
8.43148
9.09563
10.2079
11.8008
13.8391
16.2633
19.0082
21.9424
25.0344
28.2605
31.5502
34.7573
37.8611
40.8164
43.5467
45.8884
7.94866
7.98962
8.05709
8.16543
8.3339
8.57548
8.89421
9.29
9.76266
10.3106
10.9352
11.6372
12.4026
13.1863
13.9721
14.7422
15.477
16.1535
7.93959
7.96472
7.99982
8.04436
8.09964
8.16627
8.24339
8.33046
8.42808
8.53725
8.65889
8.79382
8.94208
9.10126
9.26786
9.43769
9.60634
9.77046
7.93361
7.95112
7.9758
8.00624
8.04167
8.08091
8.12215
8.16414
8.2067
8.25024
8.29522
8.34204
8.39113
8.4426
8.496
8.55053
8.60504
8.65741
7.9295
7.94168
7.95973
7.9825
8.00907
8.03838
8.06896
8.09968
8.13015
8.1605
8.19108
8.22231
8.2547
8.2886
8.32404
8.36066
8.39783
8.43418
7.92665
7.93483
7.94791
7.96512
7.98554
8.00832
8.03236
8.05679
8.08124
8.10571
8.13041
8.15563
8.18175
8.20905
8.23763
8.26731
8.29765
8.32777
7.92481
7.9302
7.93976
7.95303
7.96915
7.98738
8.00687
8.02695
8.04731
8.06791
8.08888
8.11042
8.13274
8.15604
8.18036
8.20556
8.23134
8.25708
7.92348
7.92677
7.93359
7.94374
7.95646
7.97109
7.98695
8.0035
8.02048
8.03787
8.05575
8.07425
8.09353
8.1137
8.13477
8.15664
8.17909
8.20174
7.92254
7.92404
7.92848
7.93587
7.94557
7.95698
7.96955
7.98286
7.99671
8.01104
8.02593
8.04146
8.05777
8.0749
8.0929
8.11166
8.13108
8.1509
7.92193
7.92206
7.92455
7.92958
7.93664
7.94522
7.95488
7.96526
7.9762
7.98763
7.99961
8.01221
8.02553
8.03962
8.0545
8.07013
8.08651
8.10355
7.92147
7.92073
7.92183
7.92497
7.92986
7.93609
7.94329
7.95116
7.95952
7.9683
7.97753
7.98727
7.9976
8.00859
8.02031
8.03279
8.04607
8.06015
7.92117
7.91987
7.9201
7.92196
7.9253
7.9298
7.93514
7.94104
7.94731
7.95383
7.9606
7.96766
7.97512
7.98307
7.99161
8.0008
8.01073
8.02146
7.92104
7.91949
7.9193
7.92052
7.92302
7.92651
7.93069
7.93531
7.94013
7.94499
7.94982
7.95464
7.9595
7.96452
7.96983
7.97555
7.9818
7.98867
7.92117
7.91976
7.91965
7.9209
7.92336
7.92672
7.93065
7.93485
7.93907
7.9431
7.9468
7.95011
7.95302
7.95563
7.95811
7.96065
7.9634
7.96645
7.92158
7.92076
7.92133
7.92341
7.92675
7.93095
7.9356
7.94037
7.94496
7.94916
7.95283
7.95588
7.95825
7.95994
7.96109
7.96185
7.96232
7.96257
7.92217
7.92231
7.9241
7.92762
7.93245
7.93807
7.94404
7.94994
7.95545
7.96037
7.96458
7.96801
7.97063
7.97237
7.97317
7.97309
7.97234
7.97121
7.92312
7.92494
7.9287
7.9343
7.94123
7.94896
7.95695
7.96471
7.97184
7.97811
7.98337
7.98756
7.99069
7.99279
7.99378
7.99384
7.99342
7.99282
7.92491
7.92928
7.93584
7.94444
7.95454
7.96561
7.97702
7.98814
7.9986
8.00819
8.01686
8.02469
8.03198
8.03921
8.04687
8.05572
8.06682
8.07974
7.92793
7.9361
7.94712
7.96098
7.97787
7.99811
8.02183
8.04934
8.08129
8.11847
8.16172
8.21208
8.2709
8.33984
8.42068
8.51613
8.63106
8.75907
7.9331
7.9496
7.97621
8.02082
8.09516
8.21136
8.37945
8.60678
8.89764
9.25291
9.67162
10.1522
10.6935
11.295
11.9534
12.6599
13.4192
14.2239
7.94771
8.04741
8.31121
8.85601
9.80131
11.2327
13.1863
15.6512
18.5697
21.8416
25.3867
29.1356
33.0352
37.0496
41.1366
45.2272
49.3249
53.4809
8.22765
10.2265
14.8551
23.0028
35.0279
50.7416
69.4824
90.3515
112.351
134.538
156.346
177.418
197.584
216.816
235.231
253.056
270.444
287.591
18.1379
59.5744
128.834
222.057
330.628
445.493
559.015
665.906
763.294
850.254
926.849
993.98
1053
1105.41
1152.72
1196.3
1237.32
1276.77
371.829
971.898
1579.18
2126.98
2585.93
2952.44
3237.44
3455.32
3619.64
3741.94
3831.37
3895.18
3939.15
3967.92
3985.26
3994.19
3997.3
3996.38
7397.47
11251.6
12889.8
13384
13344
13070.7
12706
12318.4
11941.5
11591.4
11274.1
10990.8
10739.7
10517.6
10320.3
10143.6
9983.03
9835.85
117.205
138.974
185.003
242.315
311.208
387.228
468.141
552.467
639.306
728.219
819.047
911.752
1006.28
1102.49
1200.05
1298.48
1397.04
1494.83
1590.73
1683.47
1771.67
1853.89
1928.69
1994.66
2050.49
2095.03
2127.26
2146.37
2151.71
2142.85
2119.59
2081.94
2030.19
1964.76
1886.22
1795.33
1696.92
1595.97
1493.25
1389.71
1286.49
1184.83
1085.95
991.083
901.391
817.977
741.86
673.962
615.089
565.917
526.984
498.67
481.197
474.628
478.881
493.725
518.881
553.364
593.894
640.893
693.711
751.514
813.482
878.778
946.576
1016.13
1086.76
1157.84
1228.81
1299.17
1368.52
1436.48
1502.77
1567.14
1629.39
1689.38
1747
1802.17
1854.84
1904.99
1952.64
1997.79
2040.49
2080.8
2118.78
2154.52
2188.09
2219.58
2249.08
2276.69
2302.49
2326.58
2349.07
2370.09
2389.84
2408.47
2426.07
2442.7
2458.35
2473.01
2486.64
2499.24
2510.57
2520.72
2529.94
2538.41
2546.25
2553.55
2560.37
2566.75
2572.74
2578.35
2583.63
2588.59
2593.27
2597.71
2601.94
2606
2609.94
2613.77
2617.51
2621.16
2624.74
2628.25
2631.68
2635.05
2638.37
2641.63
2644.85
2648.03
2651.18
2654.3
2657.39
2660.47
2663.53
2666.57
2669.61
2672.65
2675.68
2678.71
2681.74
2684.78
2687.82
2690.88
2693.95
2697.03
2700.12
2703.23
2706.36
2709.51
2712.68
2715.86
2719.07
2722.29
2725.53
2728.78
2732.04
2735.32
2738.59
2741.85
2745.1
2748.32
2751.49
2754.59
2757.6
2760.46
2763.13
2765.54
2767.6
2769.19
2770.14
2770.21
2769.08
2766.25
2761.1
2752.35
2738.99
2716.21
2686.41
2616.59
212.818
189.047
219.389
255.632
297.543
341.179
385.097
428.171
469.601
508.832
545.472
579.195
609.666
636.511
659.316
677.636
691.009
698.976
701.118
697.092
686.678
669.825
646.69
617.674
583.445
544.93
503.344
460.149
416.994
375.643
337.888
305.438
279.807
262.192
253.474
253.923
258.448
262.585
266.148
268.988
270.971
271.997
271.997
270.939
268.824
265.689
261.595
256.633
250.91
244.553
237.696
230.476
223.031
215.485
207.957
200.548
193.367
186.849
180.944
175.47
170.461
165.951
161.976
158.581
155.97
154.287
153.366
153.07
153.327
154.097
155.351
157.062
159.203
161.749
164.672
167.945
171.541
175.431
179.591
183.993
188.611
193.421
198.397
203.514
208.749
214.076
219.474
224.919
230.387
235.856
241.301
246.696
252.014
257.233
262.349
267.378
272.341
277.257
282.139
286.981
291.769
296.476
301.391
306.533
311.781
317.078
322.411
327.786
333.211
338.67
344.108
349.524
354.899
360.197
365.361
370.325
375.031
379.44
383.542
387.356
390.918
394.273
397.458
400.499
403.408
406.192
408.851
411.391
413.82
416.144
418.375
420.521
422.589
424.586
426.52
428.395
430.216
431.99
433.721
435.414
437.074
438.704
440.308
441.891
443.456
445.006
446.544
448.073
449.597
451.119
452.641
454.167
455.701
457.247
458.809
460.391
462.001
463.645
465.332
467.074
468.882
470.774
472.77
474.897
477.189
479.69
482.46
485.577
489.149
493.322
498.305
504.397
512.041
521.905
535.05
553.101
579.132
616.178
677.361
749.581
360.915
214.092
225.103
243.048
263.774
284.217
303.825
322.048
338.546
353.056
365.368
375.306
382.715
387.464
389.461
388.666
385.104
378.884
370.216
359.425
346.959
333.384
319.37
305.647
292.96
281.996
273.326
267.348
264.246
263.978
266.286
270.731
276.758
283.763
291.156
298.516
304.939
310.263
314.354
317.092
318.397
318.226
316.567
313.447
308.928
303.103
296.09
288.034
279.091
269.428
259.214
248.614
237.779
226.845
215.932
205.136
194.565
184.859
175.762
167.061
158.775
150.917
143.491
136.495
129.921
123.752
117.969
112.55
107.476
102.725
98.2784
94.1198
90.2333
86.6045
83.2205
80.0694
77.1402
74.4225
71.9067
69.5832
67.4434
65.4786
63.6804
62.0409
60.5522
59.2065
57.9962
56.9137
55.9514
55.1018
54.3571
53.7103
53.1573
52.6988
52.337
52.0702
51.8919
51.7926
51.7613
51.7867
51.858
51.9663
52.1059
52.273
52.4643
52.6764
52.9071
53.1546
53.4183
53.7189
54.1175
54.6063
55.1765
55.8127
56.5027
57.2338
57.9937
58.7705
59.5549
60.3401
61.1218
61.8974
62.6651
63.4231
64.1688
64.8996
65.6124
66.3047
66.9743
67.62
68.2409
68.8371
69.4086
69.9561
70.4805
70.9826
71.4636
71.9246
72.3669
72.7918
73.2004
73.594
73.9739
74.3413
74.6974
75.0432
75.38
75.7088
76.0309
76.3472
76.6591
76.9677
77.2742
77.5799
77.8863
78.1947
78.5071
78.8254
79.1521
79.4904
79.8439
80.2173
80.6164
81.049
81.5245
82.056
82.6604
83.3604
84.1873
85.1846
86.414
87.9655
89.9754
92.6533
96.3513
101.626
109.656
121.879
144.337
176.902
554.632
219.322
213.987
221.46
230.791
239.68
247.758
255.15
261.994
267.851
272.651
276.377
279.057
280.759
281.584
281.666
281.172
280.302
279.291
278.401
277.908
278.09
279.198
281.438
284.948
289.778
295.89
303.156
311.376
320.302
329.663
339.192
348.627
357.726
366.259
374.021
380.291
384.931
387.822
388.879
388.053
385.349
380.809
374.514
366.575
357.142
346.394
334.534
321.783
308.366
294.509
280.428
266.324
252.369
238.698
225.4
212.604
201.016
190.123
179.76
169.929
160.632
151.866
143.627
135.906
128.688
121.955
115.684
109.848
104.42
99.3681
94.6635
90.2784
86.1874
82.3679
78.8005
75.468
72.3555
69.4499
66.7393
64.2131
61.8612
59.6744
57.6438
55.761
54.0179
52.4069
50.9203
49.551
48.2919
47.1358
46.076
45.1059
44.2203
43.4154
42.6878
42.0333
41.4472
40.9238
40.4573
40.0416
39.6711
39.3408
39.0467
38.7852
38.5532
38.3482
38.1677
38.0095
37.8718
37.7528
37.6512
37.5664
37.5026
37.4589
37.4328
37.4224
37.4258
37.4416
37.4681
37.504
37.5481
37.5992
37.6564
37.7185
37.7847
37.8538
37.925
37.9974
38.0702
38.1428
38.2147
38.2854
38.3546
38.4221
38.4876
38.5511
38.6124
38.6717
38.7289
38.784
38.8371
38.8883
38.9377
38.9853
39.0314
39.076
39.1193
39.1614
39.2024
39.2426
39.282
39.3209
39.3595
39.3979
39.4364
39.4752
39.5146
39.555
39.5968
39.6405
39.6869
39.7368
39.7912
39.8517
39.9201
39.999
40.0917
40.2032
40.3401
40.5123
40.7343
41.0287
41.4315
42.005
42.8552
44.2094
46.4391
50.8258
58.7221
792.695
219.173
198.999
201.3
205.588
209.94
214.17
218.255
222.478
227.004
231.817
236.777
241.966
247.454
253.289
259.494
266.067
273.013
280.356
288.148
296.466
305.393
315.002
325.331
336.372
348.06
360.273
372.842
385.561
398.207
410.56
422.391
433.467
443.566
452.466
459.958
465.401
468.699
469.792
468.652
465.274
459.691
451.981
442.256
430.654
417.355
402.591
386.627
369.753
352.252
334.392
316.432
298.625
281.212
264.389
248.27
233.168
219.601
206.823
194.778
183.439
172.776
162.757
153.352
144.532
136.276
128.566
121.385
114.717
108.542
102.836
97.5699
92.7117
88.2274
84.0836
80.2486
76.6941
73.3955
70.3316
67.4842
64.838
62.3797
60.0975
57.9808
56.0198
54.2056
52.5295
50.9833
49.5591
48.2492
47.046
45.942
44.9304
44.0057
43.1637
42.4004
41.7112
41.0908
40.5338
40.0342
39.5866
39.1856
38.8264
38.5048
38.2172
37.9602
37.731
37.5273
37.3466
37.1868
37.0458
36.9218
36.813
36.7178
36.6348
36.563
36.5011
36.4479
36.4026
36.3641
36.3317
36.3046
36.2823
36.2641
36.2495
36.2381
36.2294
36.2231
36.2188
36.2162
36.215
36.2151
36.2161
36.2179
36.2204
36.2233
36.2267
36.2303
36.2342
36.2382
36.2423
36.2465
36.2507
36.2548
36.259
36.263
36.2671
36.271
36.2749
36.2788
36.2825
36.2863
36.29
36.2937
36.2974
36.3011
36.3048
36.3086
36.3126
36.3167
36.321
36.3257
36.3307
36.3363
36.3426
36.3498
36.3583
36.3685
36.3811
36.3968
36.4171
36.4441
36.4809
36.5332
36.6104
36.7301
36.9285
37.2799
37.9957
39.5073
1056.07
222.238
185.199
185.315
188.154
191.688
195.793
200.435
205.829
212.353
220.17
229.24
239.454
250.58
262.431
274.811
287.556
300.579
313.875
327.517
341.617
356.277
371.548
387.402
403.735
420.371
437.078
453.585
469.616
484.894
499.155
512.17
523.735
533.668
541.797
548.004
551.783
553.064
551.823
548.091
541.938
533.444
522.699
509.79
494.802
477.868
459.223
439.204
418.237
396.738
375.045
353.401
332.037
311.231
291.259
272.314
255.304
239.595
224.839
210.992
198.01
185.858
174.499
163.893
153.999
144.77
136.162
128.135
120.657
113.706
107.264
101.316
95.8421
90.8201
86.2203
82.009
78.1504
74.6093
71.3529
68.3521
65.5821
63.0218
60.6537
58.4632
56.4378
54.5664
52.8394
51.2477
49.783
48.4372
47.2027
46.0718
45.0373
44.0935
43.2352
42.4571
41.7539
41.1203
40.5508
40.04
39.5824
39.173
38.8069
38.4798
38.1878
37.9274
37.6957
37.4899
37.3075
37.1464
37.0043
36.8794
36.7697
36.6737
36.5898
36.5166
36.4529
36.3976
36.3496
36.3081
36.2724
36.2415
36.2151
36.1924
36.173
36.1565
36.1425
36.1306
36.1205
36.112
36.1049
36.099
36.094
36.0899
36.0865
36.0837
36.0815
36.0796
36.0781
36.0769
36.076
36.0753
36.0747
36.0743
36.074
36.0738
36.0736
36.0736
36.0736
36.0736
36.0736
36.0737
36.0738
36.0739
36.0741
36.0743
36.0744
36.0746
36.0749
36.0751
36.0754
36.0757
36.0761
36.0766
36.0772
36.0779
36.0788
36.08
36.0816
36.0838
36.0868
36.0911
36.0975
36.1073
36.1228
36.1483
36.1915
36.2708
36.4226
36.7514
1323.45
232.717
174.561
173.917
177.161
181.709
187.437
194.345
202.629
212.753
224.935
238.992
254.526
271.07
288.182
305.515
322.978
340.646
358.661
377.2
396.396
416.28
436.759
457.624
478.576
499.254
519.281
538.295
555.999
572.185
586.706
599.457
610.358
619.324
626.251
631.025
633.072
632.239
628.485
621.909
612.738
601.264
587.726
572.199
554.616
534.858
512.904
489.037
463.851
438.103
412.465
387.281
362.679
338.821
316.003
295.179
276.495
259.115
242.919
227.767
213.532
200.125
187.497
175.627
164.508
154.131
144.479
135.522
127.218
119.521
112.386
105.777
99.6699
94.0453
88.8877
84.1785
79.893
75.9998
72.4634
69.2465
66.3132
63.631
61.1717
58.9117
56.8317
54.9156
53.1504
51.5251
50.0299
48.6564
47.3967
46.2432
45.1887
44.2269
43.3519
42.5581
41.84
41.1924
40.6099
40.0873
39.6194
39.2011
38.8275
38.4944
38.1975
37.9334
37.6988
37.4909
37.3069
37.1445
37.0014
36.8758
36.7656
36.6691
36.5849
36.5115
36.4477
36.3922
36.3442
36.3026
36.2667
36.2358
36.2092
36.1865
36.1669
36.1503
36.1361
36.124
36.1137
36.105
36.0977
36.0914
36.0862
36.0817
36.078
36.0749
36.0723
36.0701
36.0682
36.0667
36.0654
36.0643
36.0634
36.0626
36.0619
36.0614
36.0609
36.0605
36.0602
36.0599
36.0596
36.0594
36.0592
36.059
36.0589
36.0587
36.0586
36.0585
36.0584
36.0583
36.0582
36.0581
36.058
36.058
36.058
36.0581
36.0582
36.0585
36.0589
36.0596
36.0606
36.0624
36.0653
36.07
36.0779
36.0913
36.114
36.1545
36.2242
36.3546
1579.76
248.953
167.24
166.341
170.823
177.182
185.285
195.189
207.115
221.517
238.488
257.542
277.92
298.899
320.037
341.275
362.8
384.82
407.554
431.135
455.519
480.463
505.586
530.436
554.524
577.398
598.708
618.251
635.964
651.884
666.091
678.651
689.561
698.721
705.922
710.781
712.014
709.3
702.552
692.021
678.316
662.308
644.86
626.47
607.031
585.86
562.134
535.557
506.536
476.188
445.886
416.608
388.564
361.66
336.299
313.83
293.216
274.42
257.303
241.604
227.035
213.339
200.338
187.929
176.081
164.807
154.145
144.136
134.806
126.161
118.182
110.832
104.064
97.835
92.1083
86.8588
82.068
77.7179
73.7863
70.2439
67.0555
64.1827
61.5875
59.2348
57.0937
55.1386
53.3485
51.7066
50.1994
48.816
47.5472
46.3848
45.3213
44.35
43.4646
42.6596
41.9296
41.2698
40.6754
40.1415
39.6633
39.2359
38.8547
38.5152
38.2134
37.9453
37.7076
37.4972
37.3114
37.1476
37.0035
36.877
36.7662
36.6692
36.5847
36.511
36.4469
36.3914
36.3432
36.3016
36.2657
36.2348
36.2082
36.1854
36.1659
36.1493
36.1351
36.1231
36.1129
36.1042
36.0968
36.0906
36.0854
36.081
36.0773
36.0742
36.0715
36.0693
36.0675
36.0659
36.0646
36.0635
36.0626
36.0618
36.0611
36.0606
36.0601
36.0597
36.0593
36.059
36.0587
36.0585
36.0582
36.058
36.0579
36.0577
36.0575
36.0574
36.0572
36.0571
36.057
36.0569
36.0568
36.0567
36.0566
36.0566
36.0566
36.0567
36.057
36.0574
36.0582
36.0595
36.0618
36.0656
36.0721
36.083
36.1013
36.133
36.1851
36.2721
1816.8
269.548
162.608
161.437
167.452
175.9
186.66
199.857
215.715
234.559
256.169
279.646
303.931
328.314
352.715
377.595
403.343
430.036
457.714
486.263
515.308
544.303
572.65
599.781
625.251
648.826
670.506
690.487
709.052
726.464
742.876
758.27
772.436
784.963
795.241
801.894
803.416
799.204
788.8
772.211
750.269
724.813
698.347
673.128
649.979
627.748
604.146
577.263
546.262
512.11
476.758
442.626
410.477
380.247
353.12
328.015
305.006
284.346
266.028
249.797
235.249
221.949
209.513
197.652
186.187
175.037
164.2
153.724
143.689
134.177
125.258
116.978
109.348
102.354
95.9566
90.1122
84.7784
79.9227
75.5212
71.5535
67.997
64.8227
61.9952
59.4752
57.2228
55.2008
53.3767
51.7232
50.2181
48.8442
47.5878
46.4379
45.3851
44.4213
43.5396
42.7346
42.0014
41.3361
40.7346
40.1929
39.7069
39.2721
38.8844
38.5392
38.2326
37.9606
37.7198
37.5069
37.3191
37.1537
37.0084
36.8808
36.7692
36.6716
36.5866
36.5125
36.4481
36.3923
36.3439
36.3021
36.2661
36.2351
36.2085
36.1856
36.1661
36.1494
36.1352
36.1231
36.1129
36.1042
36.0969
36.0906
36.0854
36.081
36.0773
36.0741
36.0715
36.0693
36.0674
36.0659
36.0646
36.0635
36.0625
36.0618
36.0611
36.0605
36.06
36.0596
36.0593
36.059
36.0587
36.0584
36.0582
36.058
36.0578
36.0576
36.0575
36.0573
36.0572
36.057
36.0569
36.0568
36.0567
36.0566
36.0565
36.0565
36.0565
36.0565
36.0567
36.0571
36.0578
36.059
36.0611
36.0646
36.0704
36.0802
36.0965
36.1237
36.1676
36.2368
2030.1
294.321
159.996
158.206
165.763
176.327
189.788
206.321
226.086
249.134
274.802
301.789
328.972
356.078
383.755
412.675
442.856
474.154
506.42
539.212
571.844
603.602
633.884
662.309
688.813
713.647
737.263
760.146
782.638
804.83
826.527
847.252
866.283
882.697
895.388
902.938
906.159
903.828
894.04
874.848
845.296
806.771
763.635
722.177
687.384
659.72
635.504
610.296
580.307
544.815
505.369
466.274
429.182
396.67
366.766
338.886
313.248
290.257
270.134
252.78
237.824
224.756
213.042
202.208
191.885
181.819
171.871
161.996
152.222
142.626
133.312
124.39
115.964
108.108
100.866
94.2469
88.2285
82.7719
77.8338
73.3766
69.3708
65.7923
62.6161
59.812
57.344
55.1719
53.2547
51.5539
50.0357
48.6718
47.4394
46.3205
45.2998
44.3656
43.5088
42.7231
42.0039
41.3478
40.7517
40.2124
39.7267
39.291
38.9016
38.5546
38.246
37.9723
37.7298
37.5155
37.3264
37.1599
37.0136
36.8852
36.7729
36.6747
36.5891
36.5146
36.4499
36.3938
36.3452
36.3032
36.267
36.2359
36.2091
36.1862
36.1666
36.1498
36.1356
36.1235
36.1132
36.1044
36.0971
36.0908
36.0856
36.0811
36.0774
36.0743
36.0716
36.0694
36.0675
36.066
36.0647
36.0635
36.0626
36.0618
36.0612
36.0606
36.0601
36.0597
36.0593
36.059
36.0587
36.0585
36.0582
36.058
36.0578
36.0577
36.0575
36.0573
36.0572
36.0571
36.0569
36.0568
36.0567
36.0566
36.0565
36.0565
36.0564
36.0565
36.0567
36.0571
36.0577
36.0589
36.0608
36.0641
36.0695
36.0785
36.0932
36.1172
36.1553
36.2133
2218.14
324.985
159.062
155.994
164.922
177.47
193.498
213.192
236.551
263.251
292.14
321.64
350.947
380.671
411.923
444.909
479.252
514.697
550.837
586.932
622.134
655.75
687.39
717.058
745.11
772.061
798.321
823.987
848.799
872.265
893.832
913.006
929.366
942.5
951.964
958.997
967.275
974.67
977.591
971.161
949.902
910.21
853.724
790.058
732.988
689.984
658.167
632.066
604.579
570.811
530.139
486.685
446.685
410.173
377.018
346.532
318.503
293.242
271.12
252.229
236.33
222.953
211.528
201.484
192.319
183.624
175.106
166.581
157.961
149.241
140.473
131.749
123.185
114.906
107.028
99.6492
92.8367
86.6203
80.9958
75.9334
71.3925
67.3326
63.7198
60.5257
57.7224
55.2779
53.1554
51.3141
49.7126
48.3119
47.0777
45.9803
44.995
44.1027
43.2891
42.5444
41.862
41.2376
40.6679
40.15
39.6813
39.2588
38.8795
38.54
38.2371
37.9675
37.728
37.5157
37.328
37.1624
37.0166
36.8884
36.7761
36.6779
36.5921
36.5174
36.4524
36.396
36.3472
36.305
36.2686
36.2373
36.2104
36.1874
36.1677
36.1508
36.1365
36.1243
36.1139
36.1051
36.0977
36.0914
36.0861
36.0816
36.0779
36.0747
36.072
36.0698
36.0679
36.0663
36.065
36.0639
36.0629
36.0621
36.0614
36.0609
36.0604
36.0599
36.0595
36.0592
36.0589
36.0587
36.0584
36.0582
36.058
36.0578
36.0577
36.0575
36.0573
36.0572
36.0571
36.0569
36.0568
36.0567
36.0566
36.0566
36.0565
36.0566
36.0567
36.0571
36.0577
36.0588
36.0606
36.0637
36.0688
36.0771
36.0905
36.112
36.1455
36.1953
2344.74
405.81
163.66
154.571
164.485
178.74
197.012
219.466
245.865
275.478
306.677
337.793
368.791
401.161
435.852
472.488
510.492
549.46
588.727
627.342
664.4
699.33
732.002
762.669
791.679
819.082
844.34
866.382
884.072
896.827
904.942
909.527
912.232
914.805
918.794
927.649
943.582
964.286
986.202
1004.02
1009.53
993.35
947.637
875.034
795.356
730.563
682.535
647.623
618.49
586.182
548.205
504.744
460.649
419.794
383.206
350.244
320.235
293.173
269.39
249.082
232.126
218.133
206.572
196.869
188.474
180.904
173.759
166.735
159.628
152.328
144.799
137.067
129.2
121.297
113.472
105.851
98.5549
91.6929
85.3466
79.5624
74.3501
69.6898
65.545
61.8755
58.6446
55.8202
53.3715
51.2647
49.462
47.9225
46.6048
45.4694
44.4818
43.6127
42.8391
42.1438
41.5146
40.9428
40.4225
39.9492
39.5194
39.1302
38.7787
38.4622
38.178
37.9234
37.6959
37.4931
37.3127
37.1527
37.011
36.8861
36.776
36.6794
36.5947
36.5207
36.4562
36.4001
36.3513
36.3092
36.2727
36.2413
36.2143
36.1911
36.1713
36.1543
36.1398
36.1275
36.117
36.1082
36.1006
36.0942
36.0888
36.0843
36.0804
36.0772
36.0744
36.0721
36.0702
36.0685
36.0671
36.0659
36.0649
36.064
36.0633
36.0626
36.0621
36.0616
36.0612
36.0608
36.0604
36.0601
36.0599
36.0596
36.0593
36.0591
36.0589
36.0587
36.0585
36.0583
36.0581
36.058
36.0578
36.0576
36.0575
36.0574
36.0573
36.0573
36.0575
36.0577
36.0583
36.0593
36.061
36.0638
36.0686
36.0762
36.0885
36.1078
36.1375
36.1809
2405.31
537.463
188.288
156.581
164.746
180.022
199.907
224.336
252.862
284.494
317.238
349.479
381.809
416.504
454.111
493.81
534.889
576.779
618.599
659.233
697.753
733.707
767.139
798.298
827.085
852.52
872.675
885.35
889.191
884.569
873.595
859.478
846.139
837.904
838.748
851.272
873.179
902.527
936.843
972.648
1002.09
1015.63
999.85
944.57
860.106
780.363
715.085
665.817
628.291
594.92
558.128
515.111
468.82
424.363
384.525
349.246
317.639
289.349
264.526
243.332
225.668
211.189
199.406
189.789
181.812
174.988
168.883
163.132
157.448
151.632
145.566
139.201
132.544
125.642
118.57
111.422
104.306
97.3411
90.6453
84.3292
78.4802
73.1536
68.3686
64.114
60.359
57.0658
54.1972
51.7189
49.5974
47.7972
46.2795
45.004
43.9312
43.0236
42.2484
41.5783
40.992
40.4732
40.01
39.5937
39.218
38.8783
38.5708
38.2928
38.0415
37.8149
37.6109
37.4276
37.2632
37.1163
36.9853
36.8689
36.7656
36.6743
36.5938
36.523
36.4609
36.4066
36.3592
36.318
36.2822
36.2513
36.2245
36.2015
36.1817
36.1648
36.1502
36.1378
36.1272
36.1182
36.1105
36.1039
36.0984
36.0936
36.0896
36.0862
36.0833
36.0808
36.0786
36.0768
36.0752
36.0739
36.0727
36.0716
36.0707
36.0699
36.0692
36.0686
36.068
36.0674
36.0669
36.0665
36.066
36.0656
36.0652
36.0648
36.0645
36.0641
36.0638
36.0634
36.0631
36.0628
36.0625
36.0622
36.0619
36.0616
36.0614
36.0613
36.0612
36.0613
36.0617
36.0624
36.0639
36.0664
36.0706
36.0775
36.0886
36.1059
36.1322
36.1704
2388.08
715.7
251.092
169.398
167.593
182.068
202.829
228.501
258.321
291.033
324.371
356.903
390.102
426.339
465.883
507.744
551.071
595.141
638.951
681.289
721.176
758.18
792.441
824.234
853.12
876.932
892.315
896.464
888.29
869.388
843.232
813.986
786.538
767.987
770.187
786.919
811.915
844.15
882.237
924.924
964.175
993.242
999.61
969.814
904.915
824.49
749.312
687.757
639.33
599.131
559.787
516.293
469.064
422.347
379.993
342.838
310.078
281.142
255.977
234.61
216.866
202.362
190.615
181.135
173.451
167.126
161.749
156.95
152.411
147.878
143.171
138.178
132.853
127.195
121.238
115.04
108.673
102.224
95.7894
89.4763
83.3937
77.6445
72.3141
67.4605
63.1091
59.2563
55.8782
52.9413
50.4103
48.2504
46.4264
44.9024
43.6409
42.6025
41.7475
41.04
40.449
39.949
39.5202
39.1475
38.8197
38.5286
38.2681
38.0339
37.8227
37.6319
37.4596
37.304
37.1636
37.0374
36.924
36.8225
36.7318
36.6511
36.5794
36.5159
36.4598
36.4104
36.367
36.3289
36.2956
36.2666
36.2414
36.2196
36.2007
36.1844
36.1703
36.1582
36.1479
36.1389
36.1313
36.1247
36.1191
36.1143
36.1101
36.1065
36.1034
36.1007
36.0984
36.0963
36.0945
36.0929
36.0915
36.0902
36.0891
36.088
36.087
36.0861
36.0852
36.0844
36.0837
36.0829
36.0822
36.0815
36.0809
36.0802
36.0796
36.0789
36.0783
36.0777
36.077
36.0764
36.0758
36.0752
36.0746
36.0741
36.0735
36.073
36.0726
36.0723
36.0723
36.0726
36.0736
36.0755
36.0789
36.0849
36.0945
36.1097
36.1329
36.1663
2277.63
919.281
371.298
210.164
179.573
186.685
206.086
231.801
261.929
294.844
328.181
360.767
394.363
431.244
471.718
514.834
559.63
605.237
650.592
694.455
735.787
774.076
809.375
841.819
870.715
893.771
907.525
908.707
896.242
872.213
840.817
806.456
772.936
747.105
745.797
762.081
786.218
816.562
852.42
891.486
930.138
962.981
979.702
966.395
917.343
845.067
769.707
702.701
646.538
599.133
554.949
508.923
460.332
412.316
368.55
330.345
297.11
268.208
243.443
222.675
205.576
191.66
180.407
171.341
164.05
158.164
153.341
149.248
145.579
142.065
138.489
134.696
130.595
126.146
121.351
116.24
110.862
105.277
99.5541
93.7688
88.0023
82.3421
76.8802
71.7074
66.9033
62.5254
58.6038
55.1419
52.124
49.5232
47.3078
45.4447
43.899
42.6324
41.6042
40.7734
40.1021
39.5571
39.1107
38.7406
38.4295
38.1643
37.9349
37.7342
37.5569
37.399
37.2576
37.1307
37.0167
36.9141
36.8219
36.7392
36.6652
36.599
36.5401
36.4877
36.4412
36.4
36.3637
36.3317
36.3035
36.2789
36.2573
36.2386
36.2222
36.208
36.1957
36.1851
36.1759
36.1679
36.161
36.1551
36.15
36.1455
36.1416
36.1382
36.1353
36.1326
36.1303
36.1282
36.1264
36.1247
36.1231
36.1217
36.1203
36.1191
36.1179
36.1167
36.1156
36.1145
36.1135
36.1125
36.1115
36.1105
36.1095
36.1085
36.1075
36.1065
36.1055
36.1046
36.1036
36.1026
36.1016
36.1006
36.0996
36.0986
36.0976
36.0966
36.0957
36.0949
36.0942
36.0939
36.0941
36.0952
36.0977
36.1024
36.1104
36.1233
36.1432
36.1722
2038.91
1125.37
566.242
312.362
221.767
202.911
212.921
235.264
263.955
296.103
329.05
361.465
394.817
431.328
471.595
514.886
560.227
606.651
653.075
698.287
741.185
781.083
817.784
851.252
880.899
904.942
920.433
924.368
915.497
895.418
868.027
838.04
810.086
789.434
781.834
786.462
801.12
823.918
852.923
885.494
918.3
946.595
961.672
951.233
908.897
843.708
772.243
704.716
644.622
591.77
542.475
492.824
442.269
393.439
349.394
311.264
278.509
250.517
226.998
207.633
191.903
179.197
168.939
160.655
153.979
148.617
144.306
140.784
137.788
135.066
132.392
129.587
126.527
123.139
119.397
115.31
110.908
106.241
101.367
96.3493
91.2456
86.1131
81.0099
76.0004
71.1572
66.5576
62.2741
58.3633
54.8597
51.7744
49.1006
46.8193
44.9025
43.3157
42.0199
40.9735
40.1356
39.4677
38.9359
38.5113
38.1699
37.8927
37.6647
37.4745
37.3136
37.1755
37.0557
36.9507
36.858
36.7759
36.7029
36.638
36.5802
36.5288
36.4832
36.4428
36.4071
36.3756
36.348
36.3238
36.3026
36.2841
36.268
36.2541
36.242
36.2315
36.2224
36.2146
36.2079
36.202
36.1969
36.1925
36.1887
36.1853
36.1824
36.1798
36.1774
36.1753
36.1734
36.1716
36.17
36.1684
36.1669
36.1655
36.1642
36.1628
36.1615
36.1602
36.1589
36.1576
36.1564
36.1551
36.1538
36.1525
36.1512
36.1498
36.1485
36.1472
36.1458
36.1444
36.143
36.1416
36.1402
36.1387
36.1372
36.1357
36.1342
36.1327
36.1311
36.1297
36.1284
36.1273
36.1267
36.1268
36.1282
36.1314
36.1377
36.1483
36.1651
36.1899
1672.61
1261.07
778.755
468.998
309.186
244.219
230.534
242.119
265.926
295.696
327.618
359.614
392.279
427.607
466.587
508.875
553.623
599.864
646.537
692.483
736.585
777.988
816.223
851.056
882.05
908.042
926.996
936.616
935.6
924.661
906.564
885.291
865.163
850.182
842.733
842.342
849.299
863.047
882.085
904.101
926.211
943.973
949.184
931.46
887.225
825.317
757.828
691.399
629.323
572.354
518.201
464.656
412.218
363.41
320.483
283.887
252.959
227.127
205.982
189.001
175.434
164.578
155.83
148.731
142.963
138.305
134.579
131.609
129.2
127.141
125.221
123.254
121.094
118.643
115.851
112.701
109.208
105.407
101.354
97.1165
92.7559
88.3252
83.8651
79.4075
74.9832
70.6303
66.4003
62.3571
58.5685
55.0937
51.9734
49.2282
46.8592
44.8523
43.1808
41.8106
40.703
39.8183
39.1186
38.569
38.1389
37.8023
37.5378
37.3284
37.1606
37.0245
36.9123
36.8184
36.7389
36.6708
36.6119
36.5607
36.5159
36.4767
36.4424
36.4124
36.3863
36.3637
36.344
36.3271
36.3125
36.3
36.2892
36.28
36.2721
36.2654
36.2596
36.2547
36.2505
36.2468
36.2436
36.2408
36.2383
36.2361
36.2341
36.2322
36.2305
36.2288
36.2273
36.2258
36.2243
36.2228
36.2213
36.2198
36.2183
36.2168
36.2153
36.2138
36.2122
36.2106
36.2089
36.2073
36.2056
36.2039
36.2022
36.2004
36.1986
36.1968
36.195
36.1931
36.1913
36.1893
36.1874
36.1854
36.1834
36.1814
36.1793
36.1772
36.1751
36.173
36.171
36.1692
36.1677
36.1669
36.1672
36.1692
36.1739
36.1825
36.1965
36.2178
1141.58
1287.4
958.422
646.829
436.804
319.829
269.321
259.7
272.59
296.958
326.367
357.266
388.89
422.527
459.411
499.672
542.728
587.731
633.693
679.526
724.135
766.565
806.126
842.37
874.871
902.899
925.22
940.347
947.232
946.004
938.267
926.788
914.915
905.819
900.244
898.334
900.779
907.334
916.977
928.218
938.882
944.407
936.575
907.699
858.615
797.834
732.266
665.83
601.889
541.441
483.254
426.922
374.027
326.853
286.592
252.94
225.145
202.553
184.559
170.448
159.357
150.534
143.418
137.599
132.814
128.9
125.751
123.267
121.32
119.752
118.382
117.032
115.547
113.811
111.755
109.343
106.572
103.461
100.057
96.4278
92.644
88.7732
84.8715
80.9778
77.1128
73.2842
69.4961
65.7626
62.1169