/*--------------------------------*- C++ -*----------------------------------*\
| =========                 |                                                 |
| \\      /  F ield         | OpenFOAM: The Open Source CFD Toolbox           |
|  \\    /   O peration     | Version:  2112                                  |
|   \\  /    A nd           | Website:  www.openfoam.com                      |
|    \\/     M anipulation  |                                                 |
\*---------------------------------------------------------------------------*/
FoamFile
{
    version     2.0;
    format      ascii;
    arch        "LSB;label=32;scalar=64";
    class       volScalarField;
    location    "0.01";
    object      p;
}
// * * * * * * * * * * * * * * * * * * * * * * * * * * * * * * * * * * * * * //

dimensions      [0 2 -2 0 0 0 0];

internalField   nonuniform List<scalar> 
12225
(
1.17477
-0.485639
-1.19615
-1.61904
-2.0989
-2.5538
-2.90079
-3.14571
-3.32262
-3.45986
-3.57835
-3.69537
-3.8227
-3.96533
-4.1258
-4.30193
-4.50655
-4.6194
0.520264
-0.522871
-1.15955
-1.56557
-2.01225
-2.44393
-2.78002
-3.02123
-3.19869
-3.33798
-3.45855
-3.57747
-3.70629
-3.84903
-4.00914
-4.19666
-4.43233
-4.8807
0.159352
-0.529186
-1.16941
-1.60185
-2.03463
-2.44886
-2.77842
-3.02348
-3.21229
-3.36588
-3.49933
-3.6282
-3.76347
-3.91103
-4.07457
-4.26168
-4.49027
-4.80183
-0.151369
-0.653871
-1.2404
-1.65483
-2.04964
-2.42729
-2.73732
-2.97594
-3.16639
-3.3251
-3.46339
-3.59589
-3.73338
-3.8818
-4.04298
-4.22236
-4.42509
-4.66219
-0.421464
-0.803163
-1.32258
-1.71629
-2.08058
-2.42997
-2.72627
-2.96145
-3.15096
-3.31098
-3.45598
-3.59671
-3.7414
-3.89283
-4.05185
-4.22227
-4.40397
-4.60245
-0.655596
-0.937835
-1.39726
-1.77277
-2.11491
-2.44391
-2.72864
-2.95963
-3.14757
-3.3103
-3.46287
-3.61093
-3.75942
-3.9111
-4.06816
-4.23039
-4.39338
-4.55402
-0.868669
-1.06751
-1.46783
-1.82212
-2.14412
-2.45275
-2.72426
-2.95027
-3.14008
-3.30849
-3.46551
-3.61548
-3.76323
-3.91481
-4.07174
-4.22998
-4.38258
-4.52146
-1.06374
-1.19973
-1.54277
-1.87097
-2.17144
-2.45939
-2.71722
-2.93717
-3.12633
-3.29554
-3.45246
-3.60196
-3.74927
-3.89957
-4.05278
-4.2057
-4.35292
-4.4858
-1.2412
-1.33138
-1.62251
-1.92267
-2.20117
-2.4689
-2.7129
-2.92568
-3.11201
-3.28009
-3.43648
-3.58584
-3.73244
-3.8797
-4.02776
-4.17468
-4.3169
-4.4475
-1.40243
-1.45942
-1.70489
-1.97677
-2.2337
-2.48193
-2.71196
-2.91682
-3.09944
-3.26609
-3.42209
-3.57134
-3.71713
-3.86195
-4.00618
-4.14834
-4.28582
-4.4132
-1.54928
-1.58232
-1.78835
-2.03229
-2.2681
-2.49762
-2.71368
-2.91001
-3.08811
-3.25256
-3.40748
-3.55603
-3.70086
-3.84381
-3.98524
-4.12395
-4.25805
-4.38327
-1.67222
-1.68975
-1.86457
-2.08374
-2.30074
-2.51382
-2.71718
-2.9052
-3.0783
-3.23977
-3.39282
-3.54003
-3.68353
-3.82476
-3.96399
-4.10034
-4.23258
-4.35738
-1.78252
-1.79208
-1.93803
-2.13384
-2.33321
-2.53076
-2.72178
-2.90131
-3.06889
-3.22669
-3.37718
-3.5224
-3.66404
-3.80321
-3.94018
-4.07441
-4.20514
-4.33004
-1.89192
-1.90154
-2.01813
-2.18885
-2.36944
-2.55045
-2.72792
-2.89762
-3.05831
-3.21117
-3.35789
-3.50002
-3.63882
-3.77513
-3.90923
-4.04088
-4.16978
-4.29445
-1.9921
-2.00672
-2.09971
-2.24604
-2.40757
-2.57178
-2.73494
-2.89362
-3.04607
-3.19254
-3.33406
-3.47169
-3.60635
-3.73868
-3.86896
-3.99722
-4.12348
-4.24698
-2.0783
-2.09433
-2.17269
-2.2987
-2.443
-2.59145
-2.74049
-2.8876
-3.03078
-3.16953
-3.30428
-3.43573
-3.56455
-3.69127
-3.81621
-3.93958
-4.06161
-4.18199
-2.14515
-2.15816
-2.22533
-2.33677
-2.46754
-2.60282
-2.73946
-2.87575
-3.00961
-3.13992
-3.26661
-3.39008
-3.5109
-3.62966
-3.74683
-3.86276
-3.97777
-4.09173
-2.17586
-2.18668
-2.24546
-2.34693
-2.4684
-2.59487
-2.72295
-2.85123
-2.97758
-3.10035
-3.21891
-3.33332
-3.44409
-3.552
-3.6579
-3.76244
-3.86604
-3.96873
-2.14439
-2.15509
-2.21081
-2.30815
-2.42653
-2.55067
-2.67652
-2.8023
-2.92557
-3.04424
-3.15708
-3.26354
-3.36357
-3.45783
-3.54771
-3.63489
-3.72092
-3.80657
-2.03977
-2.0519
-2.11314
-2.21713
-2.34217
-2.47338
-2.60602
-2.73727
-2.8642
-2.9847
-3.0976
-3.2022
-3.29799
-3.38477
-3.46306
-3.53446
-3.60197
-3.668
-1.90798
-1.91626
-1.98721
-2.10744
-2.2464
-2.3902
-2.53434
-2.67493
-2.80852
-2.93317
-3.04805
-3.1529
-3.24772
-3.33237
-3.40593
-3.46758
-3.52157
-3.57545
-1.74174
-1.74747
-1.8395
-1.98471
-2.14329
-2.30413
-2.46351
-2.61624
-2.75853
-2.88885
-3.00671
-3.11199
-3.20494
-3.2858
-3.35359
-3.40792
-3.45393
-3.49939
-1.54642
-1.56005
-1.68534
-1.86027
-2.04044
-2.22089
-2.39804
-2.56467
-2.71665
-2.85304
-2.97375
-3.07881
-3.16876
-3.24457
-3.30719
-3.35873
-3.40124
-3.43857
-1.32914
-1.36495
-1.53427
-1.74089
-1.94313
-2.14484
-2.34085
-2.52153
-2.68295
-2.82498
-2.9476
-3.05104
-3.13667
-3.20646
-3.263
-3.31104
-3.35396
-3.3899
-1.09203
-1.16981
-1.39417
-1.62903
-1.85096
-2.07455
-2.2896
-2.48354
-2.65337
-2.80085
-2.92625
-3.02925
-3.11174
-3.17621
-3.22513
-3.26586
-3.30752
-3.34676
-0.833519
-0.977409
-1.26368
-1.51621
-1.75271
-1.99962
-2.23666
-2.4468
-2.62665
-2.77991
-2.90931
-3.01444
-3.09741
-3.1621
-3.21249
-3.25352
-3.2917
-3.3277
-0.54055
-0.761525
-1.12591
-1.39991
-1.65375
-1.92593
-2.18609
-2.41545
-2.6127
-2.77861
-2.91385
-3.02011
-3.10145
-3.16346
-3.212
-3.2491
-3.2764
-3.29682
-0.208929
-0.54973
-0.984511
-1.28541
-1.57536
-1.88296
-2.1709
-2.42378
-2.64375
-2.82824
-2.97417
-3.0855
-3.16835
-3.22858
-3.27135
-3.29988
-3.31849
-3.33098
0.153947
-0.517639
-0.95706
-1.21807
-1.51488
-1.83757
-2.13668
-2.39947
-2.62673
-2.81483
-2.96034
-3.06683
-3.14101
-3.18942
-3.21812
-3.23213
-3.23655
-3.234
0.913548
-0.398815
-0.934934
-1.20072
-1.52997
-1.88712
-2.21023
-2.48977
-2.72941
-2.92668
-3.07915
-3.19003
-3.2661
-3.31495
-3.34339
-3.35646
-3.35931
-3.3515
-7.45645
-7.49509
-7.53807
-7.61084
-7.70563
-7.82338
-7.96438
-8.12883
-8.31693
-8.52893
-8.76531
-9.02665
-9.3136
-9.6268
-9.9669
-10.3344
-10.7296
-11.1526
-11.6029
-12.0794
-12.58
-13.1011
-13.6372
-14.181
-14.7232
-15.2517
-15.7513
-16.2042
-16.5904
-16.8882
-17.0746
-17.1274
-17.0278
-16.7633
-16.3207
-15.6801
-14.8188
-13.7298
-12.4339
-10.9524
-9.31005
-7.53479
-5.65713
-3.709
-1.72269
0.270388
2.24072
4.16164
6.01005
7.7669
9.41747
10.9514
12.3626
13.6488
14.8104
15.8491
16.7697
17.5806
18.2906
18.9066
19.4366
19.8886
20.2704
20.5889
20.8511
21.0637
21.233
21.3642
21.4623
21.5316
21.5761
21.5992
21.6039
21.593
21.5689
21.5336
21.4889
21.4365
21.3779
21.3141
21.2464
21.1757
21.1027
21.0282
20.9528
20.8771
20.8015
20.7263
20.652
20.5788
20.507
20.4366
20.368
20.3011
20.2362
20.1732
20.1121
20.0531
19.9959
19.9407
19.8873
19.8358
19.7863
19.7383
19.6919
19.6474
19.6048
19.564
19.5249
19.4874
19.4514
19.4168
19.3836
19.3517
19.321
19.2915
19.2632
19.2362
19.2102
19.1854
19.1616
19.1387
19.1167
19.0953
19.0746
19.0545
19.0349
19.0159
18.9974
18.9793
18.9617
18.9444
18.9275
18.9109
18.8946
18.8786
18.8628
18.8472
18.8318
18.8165
18.8014
18.7864
18.7716
18.7568
18.7422
18.7276
18.7131
18.6986
18.6842
18.6698
18.6555
18.6412
18.627
18.6129
18.5988
18.5848
18.5709
18.5572
18.5437
18.5304
18.5175
18.5049
18.4929
18.4816
18.4712
18.462
18.4542
18.4485
18.4453
18.4454
18.45
18.4605
18.4789
18.5078
18.5518
18.6152
18.7105
18.8362
19.0541
19.2056
-7.30698
-7.36087
-7.39454
-7.45992
-7.54825
-7.66051
-7.79728
-7.95852
-8.14429
-8.355
-8.59135
-8.85415
-9.1444
-9.46334
-9.81233
-10.1928
-10.6062
-11.0537
-11.536
-12.0531
-12.6037
-13.185
-13.7918
-14.4164
-15.0474
-15.6701
-16.2665
-16.8155
-17.2929
-17.6724
-17.9258
-18.0238
-17.9389
-17.6491
-17.1393
-16.4062
-15.4608
-14.32
-12.9869
-11.4734
-9.79836
-7.9885
-6.07453
-4.08915
-2.0655
-0.0358831
1.96946
3.92326
5.80197
7.58627
9.2613
10.8167
12.2463
13.5478
14.7218
15.7712
16.7011
17.5184
18.2322
18.8506
19.3819
19.8344
20.2162
20.5351
20.7985
21.0128
21.1838
21.3169
21.4169
21.4881
21.5345
21.5594
21.566
21.5568
21.5344
21.5008
21.4578
21.407
21.3499
21.2876
21.2214
21.152
21.0803
21.0071
20.9329
20.8583
20.7838
20.7098
20.6365
20.5643
20.4935
20.4241
20.3563
20.2903
20.2261
20.1637
20.1032
20.0446
19.9879
19.9331
19.8801
19.8288
19.7791
19.7313
19.6854
19.6415
19.5994
19.559
19.5204
19.4834
19.4478
19.4137
19.3809
19.3494
19.3191
19.29
19.2621
19.2352
19.2095
19.1848
19.161
19.1381
19.116
19.0947
19.074
19.0539
19.0344
19.0155
18.997
18.979
18.9613
18.9441
18.9272
18.9106
18.8944
18.8783
18.8625
18.8469
18.8315
18.8163
18.8012
18.7862
18.7714
18.7567
18.742
18.7274
18.7129
18.6984
18.684
18.6696
18.6553
18.6411
18.6268
18.6127
18.5986
18.5846
18.5707
18.5569
18.5434
18.5301
18.517
18.5044
18.4923
18.4809
18.4704
18.461
18.453
18.4469
18.4433
18.4429
18.4467
18.4561
18.4728
18.4994
18.5397
18.5973
18.6831
18.7926
18.9827
19.1171
-7.19885
-7.25639
-7.29622
-7.36733
-7.46201
-7.5819
-7.72764
-7.89986
-8.09939
-8.32728
-8.58472
-8.87311
-9.19399
-9.54907
-9.94004
-10.3685
-10.8356
-11.3422
-11.8879
-12.4714
-13.0897
-13.7379
-14.4089
-15.093
-15.778
-16.4487
-17.0873
-17.6731
-18.1832
-18.593
-18.8761
-19.0062
-18.9578
-18.706
-18.2308
-17.5211
-16.579
-15.4113
-14.0336
-12.465
-10.7272
-8.84812
-6.86069
-4.79973
-2.70041
-0.596815
1.47918
3.49895
5.43792
7.27604
8.9981
10.5937
12.0568
13.3854
14.5808
15.6468
16.5898
17.4181
18.1406
18.7658
19.3027
19.7598
20.1456
20.4677
20.7337
20.9502
21.1232
21.2583
21.3602
21.4333
21.4815
21.5081
21.5164
21.5089
21.488
21.4558
21.4142
21.3647
21.3089
21.2479
21.1828
21.1146
21.0441
20.972
20.899
20.8256
20.7523
20.6795
20.6074
20.5364
20.4667
20.3986
20.3321
20.2674
20.2044
20.143
20.0834
20.0257
19.97
19.9162
19.8642
19.814
19.7656
19.7191
19.6744
19.6315
19.5903
19.5507
19.5126
19.4761
19.4411
19.4074
19.375
19.344
19.3141
19.2854
19.2578
19.2314
19.2059
19.1815
19.158
19.1353
19.1135
19.0923
19.0719
19.052
19.0326
19.0138
18.9955
18.9776
18.9601
18.943
18.9262
18.9097
18.8935
18.8776
18.8618
18.8463
18.831
18.8158
18.8008
18.7858
18.771
18.7563
18.7417
18.7271
18.7126
18.6982
18.6838
18.6694
18.6551
18.6409
18.6266
18.6125
18.5984
18.5844
18.5705
18.5567
18.5431
18.5297
18.5166
18.5039
18.4917
18.4802
18.4694
18.4598
18.4515
18.445
18.4408
18.4397
18.4424
18.4503
18.465
18.4884
18.5238
18.5737
18.6463
18.7355
18.8794
18.9762
-7.17797
-7.23715
-7.28388
-7.3617
-7.46565
-7.59656
-7.75487
-7.94123
-8.15656
-8.40221
-8.67987
-8.99144
-9.33898
-9.72472
-10.1509
-10.6197
-11.1329
-11.6919
-12.2969
-12.9471
-13.6399
-14.3707
-15.1328
-15.9165
-16.7089
-17.494
-18.2517
-18.9586
-19.5888
-20.1129
-20.4984
-20.7113
-20.7229
-20.5117
-20.0618
-19.3396
-18.3646
-17.1411
-15.6868
-14.0275
-12.1889
-10.2
-8.097
-5.91804
-3.70096
-1.48246
0.703298
2.82562
4.85824
6.77993
8.57485
10.2325
11.7473
13.1181
14.3474
15.4405
16.4053
17.2512
17.9877
18.6242
19.1704
19.6356
20.0284
20.3571
20.629
20.851
21.0292
21.169
21.2755
21.3529
21.4053
21.436
21.4481
21.4443
21.427
21.3981
21.3597
21.3132
21.2601
21.2018
21.1392
21.0733
21.005
20.9349
20.8639
20.7922
20.7206
20.6493
20.5787
20.509
20.4406
20.3737
20.3084
20.2449
20.183
20.1226
20.064
20.0075
19.9529
19.9002
19.8492
19.8001
19.7526
19.707
19.6631
19.6209
19.5803
19.5414
19.504
19.4682
19.4337
19.4006
19.3688
19.3383
19.3088
19.2807
19.2536
19.2275
19.2024
19.1783
19.1551
19.1327
19.111
19.0901
19.0698
19.0501
19.0309
19.0122
18.994
18.9763
18.9589
18.9419
18.9252
18.9088
18.8927
18.8768
18.8612
18.8457
18.8304
18.8153
18.8003
18.7855
18.7707
18.756
18.7414
18.7269
18.7124
18.698
18.6836
18.6693
18.655
18.6407
18.6265
18.6123
18.5982
18.5841
18.5702
18.5564
18.5427
18.5293
18.5161
18.5033
18.491
18.4792
18.4683
18.4583
18.4496
18.4426
18.4377
18.4357
18.4372
18.4433
18.4554
18.4753
18.5052
18.547
18.606
18.6759
18.7784
18.8364
-7.29746
-7.35638
-7.40843
-7.4902
-7.59961
-7.73667
-7.9019
-8.09623
-8.32112
-8.57835
-8.87001
-9.1987
-9.56744
-9.97941
-10.4379
-10.9466
-11.5087
-12.1272
-12.8039
-13.5392
-14.3315
-15.1767
-16.0681
-16.9954
-17.9442
-18.8961
-19.828
-20.7133
-21.5212
-22.2142
-22.7486
-23.0855
-23.1951
-23.049
-22.621
-21.9072
-20.895
-19.5951
-18.0296
-16.2334
-14.2437
-12.0945
-9.82456
-7.47702
-5.09303
-2.71267
-0.372923
1.89307
4.05686
6.09558
7.99238
9.73655
11.3232
12.7522
14.028
15.1581
16.1522
17.0216
17.7766
18.4283
18.9872
19.4635
19.8664
20.2042
20.4848
20.715
20.9009
21.0481
21.1615
21.2455
21.3041
21.3407
21.3585
21.36
21.3478
21.3239
21.2901
21.2481
21.1992
21.1448
21.0859
21.0235
20.9584
20.8915
20.8232
20.7543
20.6851
20.6161
20.5477
20.4801
20.4136
20.3484
20.2848
20.2229
20.1623
20.103
20.0457
19.9903
19.9368
19.8851
19.8352
19.787
19.7405
19.6957
19.6527
19.6113
19.5715
19.5333
19.4966
19.4613
19.4274
19.3949
19.3636
19.3335
19.3046
19.2767
19.2499
19.2241
19.1994
19.1755
19.1525
19.1303
19.1088
19.088
19.0679
19.0483
19.0293
19.0108
18.9927
18.9751
18.9578
18.9409
18.9243
18.908
18.892
18.8761
18.8606
18.8452
18.8299
18.8148
18.7999
18.7851
18.7703
18.7557
18.7411
18.7266
18.7121
18.6977
18.6834
18.669
18.6547
18.6405
18.6262
18.612
18.5979
18.5838
18.5699
18.556
18.5423
18.5287
18.5154
18.5025
18.49
18.478
18.4667
18.4564
18.4472
18.4395
18.4338
18.4306
18.4305
18.4346
18.4438
18.4596
18.4836
18.5167
18.5621
18.6132
18.6798
18.7038
-7.50927
-7.56588
-7.6201
-7.702
-7.812
-7.94985
-8.11662
-8.31375
-8.54335
-8.80822
-9.11163
-9.45698
-9.84827
-10.2905
-10.7893
-11.3499
-11.9775
-12.677
-13.4519
-14.3034
-15.2304
-16.2292
-17.2932
-18.4119
-19.5704
-20.7484
-21.9198
-23.0515
-24.1028
-25.0261
-25.7722
-26.2971
-26.5573
-26.5123
-26.1335
-25.4043
-24.326
-22.9112
-21.1877
-19.1973
-16.9905
-14.6165
-12.119
-9.54201
-6.93104
-4.33107
-1.78326
0.676254
3.01582
5.21094
7.24373
9.10312
10.7847
12.2903
13.6265
14.804
15.8354
16.7335
17.5109
18.1806
18.7546
19.2439
19.6586
20.0076
20.2988
20.5394
20.7354
20.8925
21.0154
21.1085
21.1758
21.2205
21.2458
21.2544
21.2487
21.231
21.203
21.1665
21.1228
21.0733
21.019
20.9609
20.8999
20.8368
20.7721
20.7065
20.6405
20.5745
20.5089
20.4439
20.3799
20.3171
20.2558
20.1959
20.1371
20.0795
20.0236
19.9696
19.9174
19.8669
19.8182
19.7712
19.7258
19.6821
19.6401
19.5996
19.5607
19.5233
19.4873
19.4528
19.4196
19.3876
19.3569
19.3274
19.299
19.2716
19.2453
19.22
19.1956
19.172
19.1493
19.1274
19.1062
19.0857
19.0657
19.0463
19.0275
19.0091
18.9912
18.9737
18.9565
18.9397
18.9233
18.907
18.8911
18.8754
18.8598
18.8445
18.8293
18.8143
18.7994
18.7846
18.7699
18.7553
18.7408
18.7263
18.7118
18.6974
18.6831
18.6688
18.6545
18.6402
18.6259
18.6117
18.5976
18.5835
18.5694
18.5555
18.5417
18.528
18.5146
18.5015
18.4887
18.4765
18.4648
18.454
18.4442
18.4358
18.4291
18.4245
18.4227
18.4244
18.4304
18.4416
18.4592
18.4833
18.5153
18.5487
18.5854
18.5815
-7.74607
-7.7997
-7.85504
-7.9359
-8.04483
-8.18207
-8.34945
-8.54916
-8.78402
-9.05766
-9.37476
-9.74114
-10.1632
-10.6471
-11.1994
-11.8276
-12.5392
-13.3412
-14.2389
-15.235
-16.3299
-17.5216
-18.8049
-20.1702
-21.6026
-23.0792
-24.5676
-26.0285
-27.4145
-28.6683
-29.7265
-30.5239
-30.9975
-31.0927
-30.7702
-30.0262
-28.8503
-27.2676
-25.3201
-23.0633
-20.5605
-17.8756
-15.0695
-12.1937
-9.29255
-6.40948
-3.58935
-0.87366
1.69863
4.09981
6.31066
8.32058
10.1262
11.7313
13.1459
14.3838
15.4612
16.394
17.1983
17.8891
18.4804
18.9844
19.4121
19.7732
20.076
20.3278
20.5351
20.7034
20.8376
20.9418
21.0198
21.0748
21.1099
21.1277
21.1306
21.1207
21.1001
21.0703
21.033
20.9893
20.9406
20.8877
20.8316
20.773
20.7126
20.6511
20.5888
20.5263
20.4639
20.402
20.3409
20.2808
20.2219
20.1643
20.1075
20.0518
19.9978
19.9455
19.8948
19.8459
19.7986
19.7529
19.7088
19.6664
19.6255
19.5861
19.5482
19.5117
19.4767
19.4429
19.4105
19.3793
19.3493
19.3204
19.2926
19.2658
19.24
19.2151
19.1911
19.1679
19.1456
19.124
19.1031
19.0828
19.0631
19.0439
19.0253
19.0071
18.9894
18.972
18.955
18.9384
18.922
18.9059
18.89
18.8744
18.859
18.8437
18.8286
18.8137
18.7988
18.7841
18.7694
18.7548
18.7403
18.7259
18.7115
18.6971
18.6827
18.6684
18.6541
18.6399
18.6256
18.6114
18.5972
18.583
18.5689
18.5549
18.541
18.5273
18.5137
18.5003
18.4873
18.4748
18.4627
18.4514
18.4409
18.4317
18.4238
18.4178
18.4141
18.4131
18.4157
18.4222
18.4333
18.4486
18.4678
18.4848
18.4971
18.4713
-7.96094
-8.01302
-8.07066
-8.15173
-8.26077
-8.39922
-8.56962
-8.7749
-9.01871
-9.30571
-9.64202
-10.0355
-10.4959
-11.0335
-11.6557
-12.3674
-13.1788
-14.1028
-15.1479
-16.3181
-17.6149
-19.039
-20.5903
-22.2626
-24.0418
-25.9046
-27.8163
-29.7301
-31.5848
-33.3042
-34.8011
-35.9825
-36.7584
-37.0527
-36.8127
-36.0194
-34.6766
-32.8285
-30.5448
-27.9098
-25.011
-21.9288
-18.7308
-15.4731
-12.206
-8.97734
-5.82924
-2.80054
0.0657056
2.73095
5.17013
7.37123
9.33427
11.0663
12.5809
13.8954
15.0295
16.0046
16.841
17.5571
18.1689
18.6903
19.1331
19.5077
19.823
20.0868
20.3057
20.4856
20.6313
20.7473
20.8371
20.9038
20.9504
20.9792
20.9925
20.9924
20.9807
20.9592
20.9294
20.8927
20.8504
20.8035
20.753
20.6997
20.6443
20.5873
20.5293
20.4709
20.4123
20.3539
20.2961
20.2391
20.1831
20.128
20.0736
20.0202
19.9682
19.9179
19.8691
19.8219
19.7762
19.7321
19.6895
19.6484
19.6088
19.5707
19.5339
19.4985
19.4645
19.4317
19.4001
19.3697
19.3405
19.3123
19.2852
19.259
19.2337
19.2094
19.1859
19.1632
19.1413
19.12
19.0994
19.0795
19.0601
19.0412
19.0228
19.0048
18.9873
18.9701
18.9533
18.9368
18.9205
18.9046
18.8888
18.8733
18.858
18.8428
18.8278
18.8129
18.7981
18.7834
18.7689
18.7543
18.7399
18.7254
18.711
18.6967
18.6824
18.6681
18.6538
18.6395
18.6252
18.611
18.5967
18.5825
18.5684
18.5543
18.5403
18.5264
18.5126
18.4991
18.4858
18.4729
18.4604
18.4485
18.4373
18.4271
18.4181
18.4105
18.4047
18.4011
18.4001
18.4018
18.4064
18.4131
18.4206
18.4228
18.4151
18.3721
-8.12287
-8.1728
-8.23516
-8.31973
-8.4312
-8.57398
-8.75103
-8.96593
-9.22325
-9.529
-9.89135
-10.3207
-10.8291
-11.429
-12.1305
-12.9417
-13.8714
-14.9339
-16.1436
-17.5096
-19.0394
-20.7396
-22.6149
-24.6648
-26.8802
-29.2395
-31.7049
-34.2191
-36.7032
-39.055
-41.1524
-42.8594
-44.0391
-44.5733
-44.3869
-43.4518
-41.8089
-39.5357
-36.7477
-33.5783
-30.1566
-26.589
-22.9498
-19.2848
-15.625
-12.005
-8.46865
-5.07395
-1.87379
1.09836
3.81448
6.24993
8.40508
10.2928
11.9304
13.338
14.5405
15.5655
16.4393
17.1845
17.8203
18.3622
18.8233
19.2143
19.5445
19.822
20.0538
20.2458
20.4034
20.531
20.6324
20.711
20.7694
20.81
20.8349
20.846
20.8448
20.8331
20.8124
20.784
20.7492
20.7092
20.6651
20.6177
20.5677
20.516
20.4628
20.4089
20.3546
20.3002
20.2461
20.1925
20.1396
20.0874
20.0357
19.9847
19.9352
19.8871
19.8404
19.7951
19.7513
19.7089
19.668
19.6284
19.5903
19.5535
19.518
19.4838
19.4509
19.4191
19.3886
19.3591
19.3307
19.3033
19.2769
19.2514
19.2268
19.203
19.1801
19.1579
19.1364
19.1155
19.0953
19.0757
19.0566
19.038
19.0199
19.0022
18.9849
18.9679
18.9513
18.935
18.9189
18.9031
18.8875
18.8721
18.8569
18.8418
18.8269
18.8121
18.7974
18.7827
18.7682
18.7537
18.7393
18.7249
18.7106
18.6962
18.6819
18.6676
18.6534
18.6391
18.6248
18.6105
18.5963
18.582
18.5678
18.5536
18.5395
18.5254
18.5115
18.4977
18.4842
18.4708
18.4579
18.4454
18.4335
18.4223
18.412
18.4028
18.3949
18.3885
18.3839
18.3808
18.3792
18.3777
18.3744
18.3636
18.3395
18.2825
-8.20591
-8.2531
-8.32072
-8.41218
-8.5305
-8.6812
-8.86794
-9.09575
-9.37028
-9.69913
-10.0929
-10.5646
-11.1282
-11.7962
-12.5803
-13.4928
-14.5473
-15.76
-17.1469
-18.7244
-20.5099
-22.5204
-24.7706
-27.2688
-30.0124
-32.9827
-36.1397
-39.4162
-42.7129
-45.8949
-48.792
-51.2047
-52.9235
-53.7618
-53.6047
-52.4489
-50.3367
-47.3998
-43.8352
-39.8664
-35.7035
-31.5076
-27.3705
-23.312
-19.3079
-15.3374
-11.4245
-7.63527
-4.04952
-0.733779
2.27633
4.97199
7.35036
9.41995
11.2004
12.7168
13.9992
15.0816
15.997
16.7741
17.4358
18.0004
18.4819
18.892
19.24
19.5341
19.7813
19.9877
20.1586
20.2988
20.4122
20.5023
20.5722
20.6242
20.6606
20.6831
20.6932
20.6924
20.6819
20.663
20.637
20.6051
20.5682
20.5274
20.4835
20.4374
20.3895
20.3405
20.2909
20.2408
20.1908
20.141
20.0917
20.0426
19.9938
19.9456
19.8987
19.8531
19.8087
19.7656
19.7238
19.6834
19.6443
19.6064
19.5699
19.5346
19.5005
19.4677
19.4359
19.4053
19.3758
19.3473
19.3199
19.2933
19.2677
19.243
19.2191
19.196
19.1736
19.1519
19.1309
19.1106
19.0908
19.0716
19.0528
19.0346
19.0167
18.9993
18.9823
18.9655
18.9491
18.933
18.9171
18.9014
18.886
18.8707
18.8556
18.8407
18.8258
18.8111
18.7965
18.782
18.7675
18.7531
18.7387
18.7244
18.71
18.6958
18.6815
18.6672
18.6529
18.6386
18.6243
18.61
18.5957
18.5814
18.5671
18.5529
18.5386
18.5244
18.5103
18.4963
18.4824
18.4687
18.4552
18.4421
18.4294
18.4172
18.4056
18.3947
18.3847
18.3755
18.3673
18.3596
18.3519
18.3427
18.3297
18.3074
18.2698
18.2016
-8.18226
-8.23486
-8.30673
-8.40625
-8.53422
-8.69667
-8.89608
-9.13849
-9.43168
-9.78502
-10.2114
-10.726
-11.3432
-12.0758
-12.9389
-13.9474
-15.1181
-16.4723
-18.0327
-19.8255
-21.8796
-24.2248
-26.8882
-29.8899
-33.2375
-36.9214
-40.9086
-45.1341
-49.4875
-53.8018
-57.8486
-61.3385
-63.9427
-65.3548
-65.3741
-63.9624
-61.1553
-57.1819
-52.3784
-47.1239
-41.7733
-36.5955
-31.7382
-27.2105
-22.9096
-18.6963
-14.4962
-10.3459
-6.36691
-2.67389
0.65057
3.60348
6.20626
8.47047
10.406
12.0418
13.4132
14.5595
15.5206
16.3317
17.0206
17.6086
18.1117
18.5422
18.9098
19.2226
19.4876
19.7107
19.8973
20.0521
20.1792
20.2822
20.3641
20.4276
20.475
20.5083
20.5292
20.539
20.5391
20.5304
20.514
20.4911
20.4625
20.4292
20.3922
20.3523
20.3101
20.2664
20.2216
20.1762
20.1305
20.0849
20.0394
19.9938
19.948
19.903
19.859
19.8161
19.7743
19.7336
19.6941
19.6557
19.6186
19.5826
19.5478
19.5141
19.4816
19.4501
19.4197
19.3903
19.362
19.3346
19.3081
19.2825
19.2578
19.2338
19.2107
19.1882
19.1665
19.1454
19.125
19.1051
19.0858
19.067
19.0487
19.0308
19.0133
18.9961
18.9794
18.9629
18.9467
18.9308
18.9151
18.8996
18.8843
18.8692
18.8543
18.8394
18.8247
18.8101
18.7956
18.7811
18.7667
18.7524
18.738
18.7237
18.7095
18.6952
18.681
18.6667
18.6524
18.6381
18.6238
18.6095
18.5952
18.5808
18.5665
18.5521
18.5377
18.5234
18.509
18.4948
18.4806
18.4665
18.4525
18.4387
18.4252
18.4119
18.399
18.3864
18.3742
18.3624
18.3506
18.3384
18.325
18.3087
18.2869
18.2546
18.2059
18.1284
-8.03565
-8.09773
-8.17797
-8.28885
-8.42374
-8.59936
-8.81293
-9.07084
-9.38177
-9.7572
-10.2122
-10.7633
-11.4239
-12.2102
-13.1382
-14.2242
-15.4924
-16.9699
-18.688
-20.6836
-22.9982
-25.6757
-28.7589
-32.2846
-36.2805
-40.7613
-45.7224
-51.1239
-56.8612
-62.732
-68.4202
-73.4921
-77.4249
-79.717
-80.0505
-78.3472
-74.6389
-69.2741
-62.7713
-55.7121
-48.6417
-41.9968
-36.0378
-30.7976
-26.1238
-21.7328
-17.3912
-13.0119
-8.70362
-4.59856
-0.952218
2.252
5.04932
7.48653
9.57647
11.3325
12.7945
14.0075
15.0169
15.8636
16.5807
17.1927
17.7176
18.1689
18.5568
18.8895
19.1737
19.4152
19.6193
19.7904
19.933
20.0505
20.1461
20.2226
20.2821
20.3266
20.3579
20.3777
20.3874
20.3884
20.3817
20.368
20.3483
20.3234
20.294
20.261
20.2252
20.1872
20.1477
20.1071
20.0659
20.0245
19.983
19.9409
19.8987
19.8571
19.8163
19.7764
19.7373
19.6992
19.6621
19.626
19.591
19.557
19.524
19.4921
19.4612
19.4312
19.4023
19.3742
19.3471
19.3208
19.2954
19.2708
19.247
19.224
19.2016
19.1799
19.1589
19.1384
19.1186
19.0993
19.0804
19.0621
19.0442
19.0266
19.0095
18.9927
18.9762
18.96
18.9441
18.9284
18.9129
18.8977
18.8825
18.8676
18.8528
18.8381
18.8235
18.809
18.7945
18.7802
18.7659
18.7516
18.7373
18.7231
18.7089
18.6946
18.6804
18.6662
18.6519
18.6376
18.6233
18.609
18.5946
18.5802
18.5658
18.5513
18.5368
18.5223
18.5077
18.4932
18.4787
18.4641
18.4497
18.4352
18.4209
18.4065
18.3923
18.3781
18.3638
18.3492
18.334
18.3175
18.2988
18.276
18.2463
18.2053
18.1473
18.0624
-7.75917
-7.82814
-7.92243
-8.04583
-8.19726
-8.38348
-8.60893
-8.87922
-9.20299
-9.59332
-10.0672
-10.6418
-11.3314
-12.1519
-13.1202
-14.2584
-15.596
-17.1659
-19.0075
-21.168
-23.7014
-26.6666
-30.1242
-34.1336
-38.752
-44.0321
-50.0134
-56.6943
-63.9796
-71.6162
-79.1603
-85.9902
-91.3649
-94.593
-95.2592
-93.2007
-88.5269
-81.7056
-73.4421
-64.5024
-55.6057
-47.3321
-40.0668
-33.9134
-28.8188
-24.2256
-19.8273
-15.3588
-10.8266
-6.44451
-2.46255
1.00495
3.97365
6.53755
8.7523
10.6174
12.1615
13.4368
14.4933
15.3762
16.1221
16.7585
17.3054
17.7776
18.1858
18.5386
18.8427
19.1036
19.3262
19.5151
19.6742
19.8073
19.9177
20.0081
20.0811
20.1384
20.1816
20.2122
20.2318
20.2418
20.2436
20.2385
20.2273
20.2107
20.1894
20.1639
20.135
20.1033
20.0695
20.0342
19.9977
19.9607
19.9231
19.8848
19.8463
19.8084
19.7709
19.7341
19.698
19.6627
19.6282
19.5945
19.5617
19.5298
19.4988
19.4687
19.4395
19.4112
19.3837
19.3571
19.3312
19.3062
19.2819
19.2584
19.2356
19.2134
19.1919
19.171
19.1507
19.1309
19.1117
19.093
19.0747
19.0568
19.0393
19.0222
19.0055
18.989
18.9729
18.957
18.9413
18.9259
18.9106
18.8955
18.8806
18.8658
18.8512
18.8366
18.8222
18.8078
18.7935
18.7792
18.765
18.7507
18.7366
18.7224
18.7082
18.694
18.6798
18.6656
18.6513
18.6371
18.6227
18.6084
18.594
18.5795
18.565
18.5504
18.5358
18.5211
18.5064
18.4916
18.4767
18.4618
18.4468
18.4317
18.4165
18.4012
18.3856
18.3697
18.3533
18.3361
18.3177
18.2972
18.2735
18.2447
18.2081
18.1595
18.0937
18.0027
-7.35995
-7.43058
-7.54786
-7.68944
-7.85558
-8.05344
-8.28753
-8.56342
-8.89132
-9.28552
-9.76383
-10.3442
-11.042
-11.8719
-12.8525
-14.0106
-15.3789
-16.9952
-18.9053
-21.1641
-23.8355
-26.9906
-30.7059
-35.0615
-40.1406
-46.0288
-52.804
-60.4912
-68.9934
-78.0032
-86.9553
-95.0667
-101.458
-105.325
-106.202
-103.864
-98.5018
-90.6728
-81.2094
-70.9368
-60.8415
-51.462
-43.2421
-36.3871
-30.8052
-26.0736
-21.6749
-17.2085
-12.5815
-8.00486
-3.78131
-0.0925925
3.03697
5.69081
7.97807
9.92415
11.5332
12.8591
13.9571
14.8743
15.649
16.3104
16.8798
17.3727
17.8012
18.1739
18.4978
18.7784
19.0203
19.2277
19.4045
19.5541
19.68
19.7851
19.8718
19.9425
19.9985
20.0415
20.0725
20.0929
20.1039
20.1069
20.1033
20.0941
20.0801
20.0619
20.0401
20.0151
19.9876
19.9578
19.9265
19.8941
19.8606
19.8263
19.7917
19.7574
19.7235
19.6899
19.6569
19.6244
19.5925
19.5614
19.5309
19.5012
19.4723
19.4441
19.4167
19.39
19.3641
19.3389
19.3145
19.2907
19.2677
19.2453
19.2235
19.2023
19.1817
19.1616
19.1421
19.123
19.1044
19.0863
19.0685
19.0512
19.0342
19.0175
19.0012
18.9851
18.9693
18.9537
18.9383
18.9232
18.9082
18.8933
18.8786
18.864
18.8495
18.8351
18.8208
18.8065
18.7923
18.7781
18.764
18.7499
18.7357
18.7216
18.7075
18.6934
18.6792
18.665
18.6508
18.6365
18.6222
18.6078
18.5933
18.5788
18.5643
18.5496
18.5348
18.52
18.5051
18.49
18.4748
18.4595
18.4439
18.4282
18.4122
18.3958
18.379
18.3615
18.3431
18.3234
18.3019
18.2776
18.2493
18.2151
18.1724
18.1172
18.0449
17.9488
-6.86973
-6.92996
-7.07778
-7.24462
-7.42693
-7.6321
-7.86615
-8.13729
-8.45692
-8.83974
-9.30395
-9.86864
-10.5494
-11.3607
-12.3225
-13.4626
-14.8151
-16.4204
-18.3277
-20.5956
-23.2924
-26.4952
-30.2881
-34.7609
-40.008
-46.1273
-53.207
-61.2784
-70.2359
-79.7448
-89.1905
-97.7298
-104.439
-108.517
-109.473
-107.106
-101.622
-93.5916
-83.8572
-73.3554
-62.9606
-53.3054
-44.826
-37.753
-32.0267
-27.2576
-22.8873
-18.4524
-13.8054
-9.14207
-4.79295
-0.979667
2.25464
4.97675
7.29955
9.27965
10.9261
12.2864
13.4164
14.3635
15.1658
15.8522
16.4441
16.9581
17.4064
17.7987
18.142
18.4421
18.7034
18.9298
19.1248
19.2919
19.4342
19.5546
19.6558
19.7401
19.809
19.8641
19.9069
19.9389
19.9609
19.9739
19.9789
19.977
19.9696
19.9577
19.9421
19.9235
19.9021
19.8783
19.8524
19.825
19.7961
19.766
19.7355
19.7049
19.6745
19.6442
19.6143
19.5847
19.5556
19.527
19.4989
19.4714
19.4446
19.4184
19.3928
19.3679
19.3436
19.32
19.297
19.2746
19.2527
19.2315
19.2108
19.1906
19.1709
19.1517
19.1329
19.1146
19.0968
19.0792
19.0621
19.0453
19.0288
19.0126
18.9967
18.981
18.9655
18.9503
18.9352
18.9203
18.9056
18.8909
18.8764
18.862
18.8477
18.8335
18.8193
18.8052
18.7911
18.777
18.763
18.7489
18.7349
18.7208
18.7068
18.6927
18.6785
18.6644
18.6502
18.6359
18.6216
18.6072
18.5927
18.5781
18.5635
18.5487
18.5339
18.5189
18.5037
18.4884
18.4729
18.4571
18.4411
18.4247
18.4079
18.3905
18.3725
18.3534
18.3331
18.3111
18.2867
18.2589
18.2264
18.1874
18.1392
18.0783
18.0005
17.9002
-6.35451
-6.38563
-6.55232
-6.745
-6.94087
-7.14677
-7.37001
-7.62184
-7.91681
-8.27011
-8.69966
-9.22504
-9.86343
-10.6293
-11.5413
-12.6257
-13.9157
-15.4512
-17.2798
-19.4584
-22.0529
-25.1369
-28.7904
-33.0974
-38.1442
-44.0161
-50.7825
-58.4572
-66.9296
-75.8845
-84.7554
-92.7658
-99.0585
-102.908
-103.871
-101.775
-96.7971
-89.4676
-80.5462
-70.8873
-61.2759
-52.3082
-44.3928
-37.7467
-32.3123
-27.7225
-23.4469
-19.0524
-14.4172
-9.75208
-5.39392
-1.56805
1.682
4.42559
6.74757
8.7098
10.357
11.7302
12.8784
13.8477
14.6735
15.383
15.9971
16.5317
16.9996
17.4108
17.773
18.092
18.3724
18.6178
18.8315
19.0166
19.1761
19.3127
19.4293
19.5283
19.6107
19.6778
19.732
19.7749
19.8081
19.8325
19.8486
19.8568
19.8579
19.853
19.8433
19.83
19.8141
19.796
19.7755
19.7531
19.7288
19.7032
19.677
19.6503
19.6235
19.5966
19.5698
19.5432
19.5168
19.4909
19.4653
19.4402
19.4155
19.3914
19.3677
19.3446
19.322
19.3
19.2785
19.2574
19.2369
19.2169
19.1973
19.1782
19.1595
19.1412
19.1233
19.1058
19.0886
19.0718
19.0553
19.039
19.0231
19.0074
18.9919
18.9766
18.9615
18.9466
18.9319
18.9173
18.9028
18.8884
18.8742
18.86
18.8458
18.8318
18.8177
18.8038
18.7898
18.7758
18.7619
18.7479
18.734
18.72
18.706
18.692
18.6779
18.6637
18.6495
18.6353
18.621
18.6065
18.592
18.5774
18.5627
18.5479
18.5329
18.5177
18.5024
18.4868
18.471
18.4549
18.4383
18.4213
18.4038
18.3854
18.3662
18.3457
18.3236
18.2993
18.2722
18.2412
18.2049
18.1616
18.1086
18.0428
17.9603
17.8565
-5.95294
-5.94622
-6.08824
-6.28426
-6.47943
-6.66987
-6.86471
-7.0783
-7.32714
-7.62933
-8.00299
-8.46704
-9.04062
-9.73792
-10.5751
-11.5754
-12.7669
-14.185
-15.8721
-17.8776
-20.2581
-23.0757
-26.3962
-30.2853
-34.8059
-40.0123
-45.938
-52.5681
-59.7929
-67.3523
-74.8025
-81.5382
-86.8819
-90.2392
-91.2441
-89.7014
-85.7355
-79.7998
-72.5126
-64.5506
-56.5442
-48.9967
-42.2679
-36.5366
-31.7175
-27.4608
-23.3124
-18.9482
-14.3447
-9.75815
-5.51055
-1.79075
1.38309
4.07896
6.3453
8.2479
9.86354
11.2271
12.3791
13.3606
14.2035
14.9318
15.5649
16.1181
16.6037
17.032
17.4112
17.7473
18.0451
18.3083
18.5397
18.7421
18.9182
19.0709
19.2027
19.3162
19.4123
19.4919
19.5575
19.611
19.654
19.6877
19.7135
19.7321
19.7438
19.7486
19.7473
19.7407
19.7299
19.7161
19.7003
19.6828
19.6632
19.6419