/*--------------------------------*- C++ -*----------------------------------*\
| =========                 |                                                 |
| \\      /  F ield         | OpenFOAM: The Open Source CFD Toolbox           |
|  \\    /   O peration     | Version:  2112                                  |
|   \\  /    A nd           | Website:  www.openfoam.com                      |
|    \\/     M anipulation  |                                                 |
\*---------------------------------------------------------------------------*/
FoamFile
{
    version     2.0;
    format      ascii;
    arch        "LSB;label=32;scalar=64";
    class       volVectorField;
    location    "0.01";
    object      U_0;
}
// * * * * * * * * * * * * * * * * * * * * * * * * * * * * * * * * * * * * * //

dimensions      [0 1 -1 0 0 0 0];

internalField   nonuniform List<vector> 
12225
(
(9.62307 0.113282 0)
(8.81344 0.174904 0)
(7.97106 0.173235 0)
(7.1827 0.153901 0)
(6.51442 0.126202 0)
(5.98292 0.0958802 0)
(5.58017 0.0680748 0)
(5.28951 0.0454277 0)
(5.08882 0.0285909 0)
(4.95422 0.0171723 0)
(4.86471 0.010122 0)
(4.80438 0.00635321 0)
(4.76212 0.00493379 0)
(4.73092 0.00491355 0)
(4.70606 0.00557935 0)
(4.68751 0.00682023 0)
(4.65774 0.0239617 0)
(4.61645 -0.0133445 0)
(10.1389 0.123536 0)
(10.3665 0.184681 0)
(10.4423 0.191996 0)
(10.3844 0.190964 0)
(10.2334 0.179916 0)
(10.022 0.159496 0)
(9.77608 0.134289 0)
(9.51609 0.108591 0)
(9.25594 0.0854717 0)
(9.00318 0.0664162 0)
(8.76159 0.0515199 0)
(8.53321 0.0402697 0)
(8.31906 0.0318647 0)
(8.11981 0.0256581 0)
(7.93444 0.0206794 0)
(7.76316 0.0180512 0)
(7.61433 0.0171369 0)
(7.49906 0.0364358 0)
(10.0378 0.0786744 0)
(10.143 0.134199 0)
(10.2429 0.158775 0)
(10.3242 0.176822 0)
(10.3854 0.183716 0)
(10.4233 0.179844 0)
(10.434 0.169656 0)
(10.419 0.157333 0)
(10.3834 0.145829 0)
(10.3327 0.136638 0)
(10.2714 0.12987 0)
(10.203 0.125038 0)
(10.1303 0.121491 0)
(10.0549 0.118431 0)
(9.9798 0.115378 0)
(9.90625 0.111613 0)
(9.84021 0.107236 0)
(9.77402 0.0901604 0)
(10.0198 0.0619291 0)
(10.0834 0.119552 0)
(10.1465 0.144962 0)
(10.201 0.159998 0)
(10.2521 0.166015 0)
(10.2957 0.163372 0)
(10.3282 0.155218 0)
(10.3496 0.145087 0)
(10.3617 0.135219 0)
(10.3693 0.127022 0)
(10.3734 0.120789 0)
(10.3751 0.116277 0)
(10.3754 0.113005 0)
(10.3748 0.110306 0)
(10.3741 0.107366 0)
(10.3736 0.103042 0)
(10.375 0.0961313 0)
(10.375 0.0787259 0)
(10.0121 0.0511257 0)
(10.0606 0.106854 0)
(10.1119 0.132257 0)
(10.1565 0.146851 0)
(10.1982 0.15332 0)
(10.2355 0.152023 0)
(10.266 0.145981 0)
(10.2896 0.138207 0)
(10.3074 0.130646 0)
(10.3204 0.123971 0)
(10.3308 0.118374 0)
(10.3401 0.113943 0)
(10.3494 0.110361 0)
(10.36 0.107301 0)
(10.3714 0.103934 0)
(10.3836 0.0992023 0)
(10.3963 0.0918939 0)
(10.4078 0.0787632 0)
(10.0083 0.0419599 0)
(10.0464 0.0937883 0)
(10.091 0.119697 0)
(10.1314 0.13455 0)
(10.1686 0.141599 0)
(10.2027 0.141812 0)
(10.2321 0.13752 0)
(10.2563 0.131225 0)
(10.2764 0.124619 0)
(10.2927 0.11848 0)
(10.3068 0.113307 0)
(10.3198 0.109071 0)
(10.3324 0.105454 0)
(10.345 0.101852 0)
(10.3581 0.0976919 0)
(10.3714 0.0923384 0)
(10.3845 0.0848433 0)
(10.3957 0.0732425 0)
(10.006 0.0347532 0)
(10.0361 0.0814965 0)
(10.075 0.107066 0)
(10.112 0.122099 0)
(10.1464 0.129682 0)
(10.1782 0.130859 0)
(10.2062 0.127709 0)
(10.2302 0.122507 0)
(10.2511 0.116946 0)
(10.2697 0.111807 0)
(10.2867 0.10723 0)
(10.3026 0.103211 0)
(10.3178 0.0995022 0)
(10.3323 0.0955777 0)
(10.3467 0.0911454 0)
(10.361 0.0856814 0)
(10.3746 0.0784897 0)
(10.3862 0.0684382 0)
(10.0045 0.0289443 0)
(10.0284 0.0706427 0)
(10.0621 0.095094 0)
(10.0957 0.109811 0)
(10.1275 0.117611 0)
(10.1572 0.119513 0)
(10.1838 0.117325 0)
(10.2071 0.113027 0)
(10.2278 0.108106 0)
(10.2468 0.103307 0)
(10.2646 0.0988387 0)
(10.2818 0.0947654 0)
(10.2986 0.0909938 0)
(10.315 0.0871256 0)
(10.3311 0.0826946 0)
(10.3467 0.077318 0)
(10.3615 0.0706557 0)
(10.3746 0.0622707 0)
(10.0035 0.0241207 0)
(10.0226 0.0608823 0)
(10.0516 0.0838077 0)
(10.0818 0.0979356 0)
(10.111 0.105716 0)
(10.1386 0.10815 0)
(10.1637 0.106764 0)
(10.1862 0.10323 0)
(10.2063 0.0988059 0)
(10.2249 0.0941962 0)
(10.2426 0.0897066 0)
(10.2597 0.0854498 0)
(10.2765 0.0813665 0)
(10.2934 0.0771649 0)
(10.31 0.0724895 0)
(10.3263 0.0670693 0)
(10.3418 0.0607434 0)
(10.3563 0.0535058 0)
(10.0027 0.0200795 0)
(10.0181 0.0520405 0)
(10.0429 0.0731193 0)
(10.07 0.0864613 0)
(10.0966 0.0940497 0)
(10.1221 0.0968195 0)
(10.1457 0.096047 0)
(10.1672 0.0931392 0)
(10.1868 0.0891774 0)
(10.205 0.0848055 0)
(10.2222 0.0803441 0)
(10.2389 0.0759202 0)
(10.2553 0.0715022 0)
(10.2716 0.0669059 0)
(10.2878 0.0619109 0)
(10.3037 0.0563424 0)
(10.3191 0.0501137 0)
(10.3337 0.0433567 0)
(10.0022 0.0166541 0)
(10.0146 0.044083 0)
(10.0358 0.0630569 0)
(10.0598 0.0753958 0)
(10.0839 0.0826093 0)
(10.1074 0.0855154 0)
(10.1296 0.0851656 0)
(10.1501 0.0827359 0)
(10.169 0.0791538 0)
(10.1868 0.0749961 0)
(10.2036 0.0705692 0)
(10.2199 0.0660086 0)
(10.2358 0.0613177 0)
(10.2515 0.0563926 0)
(10.2671 0.0511002 0)
(10.2824 0.0453478 0)
(10.2972 0.0391184 0)
(10.3115 0.0325872 0)
(10.0018 0.0139096 0)
(10.0121 0.0375334 0)
(10.0303 0.0544099 0)
(10.0517 0.0656334 0)
(10.0738 0.072339 0)
(10.0956 0.0751961 0)
(10.1164 0.075068 0)
(10.136 0.0729393 0)
(10.1542 0.0696055 0)
(10.1715 0.0655815 0)
(10.1879 0.0611587 0)
(10.2038 0.0564794 0)
(10.2194 0.0515737 0)
(10.2347 0.0463892 0)
(10.2497 0.0408514 0)
(10.2645 0.0349262 0)
(10.2789 0.0286464 0)
(10.2929 0.0222085 0)
(10.0014 0.0115091 0)
(10.01 0.0316072 0)
(10.0256 0.0463188 0)
(10.0447 0.0562916 0)
(10.0649 0.0623537 0)
(10.085 0.0650183 0)
(10.1046 0.0649763 0)
(10.1232 0.0630373 0)
(10.1408 0.0598717 0)
(10.1575 0.0559306 0)
(10.1735 0.051486 0)
(10.189 0.0466832 0)
(10.2041 0.0415731 0)
(10.219 0.0361433 0)
(10.2336 0.0303658 0)
(10.248 0.0242481 0)
(10.262 0.0178521 0)
(10.2757 0.0113772 0)
(10.0009 0.00923564 0)
(10.0081 0.0255138 0)
(10.0212 0.0377018 0)
(10.0379 0.0460974 0)
(10.0561 0.0512438 0)
(10.0745 0.0535071 0)
(10.0927 0.0533971 0)
(10.1103 0.0515373 0)
(10.127 0.0484643 0)
(10.143 0.0445549 0)
(10.1584 0.0400503 0)
(10.1734 0.035092 0)
(10.188 0.029748 0)
(10.2024 0.02404 0)
(10.2165 0.0179784 0)
(10.2303 0.0116004 0)
(10.2439 0.004982 0)
(10.2573 -0.00169789 0)
(10.0006 0.00710396 0)
(10.0066 0.0196044 0)
(10.0174 0.0287469 0)
(10.0318 0.0351309 0)
(10.0479 0.0390316 0)
(10.0646 0.0406333 0)
(10.0814 0.0402518 0)
(10.0977 0.0383196 0)
(10.1135 0.035233 0)
(10.1287 0.0312841 0)
(10.1435 0.0266708 0)
(10.1577 0.0215208 0)
(10.1717 0.0159107 0)
(10.1854 0.0098865 0)
(10.1988 0.00348592 0)
(10.212 -0.0032363 0)
(10.225 -0.0102025 0)
(10.238 -0.0172698 0)
(10.0005 0.00486106 0)
(10.0055 0.0135775 0)
(10.0147 0.0195273 0)
(10.027 0.0235281 0)
(10.0411 0.0258143 0)
(10.0561 0.0264226 0)
(10.0713 0.0254963 0)
(10.0864 0.0232879 0)
(10.1012 0.0200493 0)
(10.1155 0.0159752 0)
(10.1294 0.0112034 0)
(10.1429 0.00583148 0)
(10.156 -6.9554e-05 0)
(10.1688 -0.00644339 0)
(10.1814 -0.0132373 0)
(10.1938 -0.0203894 0)
(10.206 -0.0278299 0)
(10.2182 -0.0354569 0)
(10.0004 0.00256397 0)
(10.0049 0.00708192 0)
(10.013 0.00983908 0)
(10.0236 0.011282 0)
(10.0361 0.0116213 0)
(10.0495 0.0108662 0)
(10.0634 0.00906646 0)
(10.0774 0.00633243 0)
(10.0911 0.00278167 0)
(10.1045 -0.00149811 0)
(10.1175 -0.00644916 0)
(10.13 -0.0120292 0)
(10.1422 -0.0181983 0)
(10.154 -0.0249107 0)
(10.1655 -0.0321123 0)
(10.1768 -0.0397411 0)
(10.1879 -0.0477359 0)
(10.1989 -0.0560285 0)
(10.0004 7.48618e-05 0)
(10.0045 -1.65051e-05 0)
(10.0119 -0.000720601 0)
(10.0216 -0.0020381 0)
(10.0331 -0.00394129 0)
(10.0456 -0.00640189 0)
(10.0585 -0.00939496 0)
(10.0716 -0.0128981 0)
(10.0847 -0.0169007 0)
(10.0973 -0.0214173 0)
(10.1095 -0.026484 0)
(10.1212 -0.0321438 0)
(10.1324 -0.0384275 0)
(10.1431 -0.0453355 0)
(10.1533 -0.0528311 0)
(10.1632 -0.0608529 0)
(10.1728 -0.0693383 0)
(10.1823 -0.0782319 0)
(10.0004 -0.00274088 0)
(10.0044 -0.00810316 0)
(10.0116 -0.012857 0)
(10.0212 -0.0173536 0)
(10.0326 -0.0218704 0)
(10.045 -0.0263684 0)
(10.0578 -0.030823 0)
(10.0708 -0.03527 0)
(10.0837 -0.0397837 0)
(10.0961 -0.0444613 0)
(10.108 -0.049418 0)
(10.1192 -0.0547843 0)
(10.1296 -0.0606931 0)
(10.1393 -0.0672517 0)
(10.1483 -0.074515 0)
(10.1568 -0.0824888 0)
(10.1648 -0.0911321 0)
(10.1724 -0.100358 0)
(10.0004 -0.00552163 0)
(10.0047 -0.0160513 0)
(10.0127 -0.0248613 0)
(10.0233 -0.0326755 0)
(10.0359 -0.0398239 0)
(10.0493 -0.0462689 0)
(10.0632 -0.0520265 0)
(10.077 -0.0572219 0)
(10.0904 -0.0620302 0)
(10.1032 -0.0666277 0)
(10.1154 -0.0711813 0)
(10.1267 -0.0758577 0)
(10.1371 -0.0808499 0)
(10.1466 -0.086405 0)
(10.1551 -0.0927939 0)
(10.1628 -0.100179 0)
(10.1697 -0.108413 0)
(10.1759 -0.117082 0)
(10.0006 -0.0080838 0)
(10.0057 -0.023038 0)
(10.015 -0.0356327 0)
(10.0276 -0.0464788 0)
(10.0419 -0.0558027 0)
(10.0569 -0.0636814 0)
(10.0721 -0.0702496 0)
(10.0869 -0.075766 0)
(10.1011 -0.0805304 0)
(10.1145 -0.0848177 0)
(10.127 -0.0888684 0)
(10.1384 -0.0928885 0)
(10.1489 -0.0970584 0)
(10.1584 -0.101599 0)
(10.1669 -0.106847 0)
(10.1742 -0.113023 0)
(10.1802 -0.119854 0)
(10.1851 -0.127069 0)
(10.0011 -0.0108497 0)
(10.0076 -0.0305949 0)
(10.0194 -0.0470473 0)
(10.0345 -0.0605402 0)
(10.0509 -0.0716201 0)
(10.0678 -0.0805305 0)
(10.0846 -0.0875311 0)
(10.1007 -0.0930299 0)
(10.1158 -0.0974589 0)
(10.1297 -0.101193 0)
(10.1424 -0.104554 0)
(10.1539 -0.107818 0)
(10.1642 -0.111163 0)
(10.1733 -0.114655 0)
(10.1813 -0.118435 0)
(10.1877 -0.122871 0)
(10.1926 -0.12807 0)
(10.1965 -0.133931 0)
(10.0016 -0.0142995 0)
(10.0104 -0.039489 0)
(10.0255 -0.0592847 0)
(10.0437 -0.0748767 0)
(10.0627 -0.0873155 0)
(10.0818 -0.0969124 0)
(10.1003 -0.104019 0)
(10.1177 -0.109197 0)
(10.1337 -0.113009 0)
(10.1481 -0.115915 0)
(10.1609 -0.118302 0)
(10.1721 -0.120501 0)
(10.1818 -0.122735 0)
(10.19 -0.125026 0)
(10.1968 -0.127327 0)
(10.2022 -0.13009 0)
(10.2063 -0.133946 0)
(10.2093 -0.138707 0)
(10.0023 -0.0185249 0)
(10.0145 -0.0495247 0)
(10.0339 -0.0722441 0)
(10.0556 -0.0895697 0)
(10.0773 -0.103083 0)
(10.0987 -0.113017 0)
(10.1191 -0.119825 0)
(10.1378 -0.124277 0)
(10.1545 -0.127108 0)
(10.1691 -0.128857 0)
(10.1817 -0.129947 0)
(10.1922 -0.130758 0)
(10.2008 -0.131595 0)
(10.2077 -0.132602 0)
(10.2133 -0.133725 0)
(10.2177 -0.135126 0)
(10.2209 -0.137727 0)
(10.2231 -0.141572 0)
(10.0034 -0.0238846 0)
(10.0207 -0.0612697 0)
(10.0454 -0.0862191 0)
(10.0707 -0.104623 0)
(10.0951 -0.11873 0)
(10.1188 -0.128545 0)
(10.141 -0.134618 0)
(10.1609 -0.137958 0)
(10.1784 -0.139505 0)
(10.1933 -0.139887 0)
(10.2057 -0.139535 0)
(10.2155 -0.138867 0)
(10.2231 -0.138248 0)
(10.2287 -0.137917 0)
(10.2328 -0.137923 0)
(10.2357 -0.138347 0)
(10.2377 -0.139886 0)
(10.239 -0.142928 0)
(10.0055 -0.0312067 0)
(10.0305 -0.0751468 0)
(10.061 -0.100721 0)
(10.0898 -0.119058 0)
(10.1173 -0.133154 0)
(10.1441 -0.142655 0)
(10.1691 -0.14807 0)
(10.1914 -0.150437 0)
(10.2107 -0.150617 0)
(10.2266 -0.149286 0)
(10.2391 -0.147199 0)
(10.2486 -0.144945 0)
(10.2552 -0.142909 0)
(10.2596 -0.141418 0)
(10.2621 -0.140785 0)
(10.2632 -0.140897 0)
(10.2634 -0.141879 0)
(10.2631 -0.1442 0)
(10.0101 -0.04055 0)
(10.046 -0.0879436 0)
(10.085 -0.114309 0)
(10.1204 -0.133668 0)
(10.1543 -0.147842 0)
(10.1878 -0.156636 0)
(10.2194 -0.16094 0)
(10.2475 -0.161937 0)
(10.2712 -0.160698 0)
(10.2897 -0.157688 0)
(10.3034 -0.153463 0)
(10.3126 -0.148954 0)
(10.318 -0.144786 0)
(10.32 -0.141348 0)
(10.3197 -0.138904 0)
(10.3183 -0.13761 0)
(10.3161 -0.137669 0)
(10.3129 -0.139379 0)
(10.0208 -0.0540644 0)
(10.0804 -0.0998061 0)
(10.1454 -0.124814 0)
(10.2049 -0.148076 0)
(10.2605 -0.166187 0)
(10.3116 -0.177123 0)
(10.3541 -0.182293 0)
(10.3854 -0.18293 0)
(10.405 -0.180056 0)
(10.4144 -0.175019 0)
(10.414 -0.168922 0)
(10.4046 -0.162691 0)
(10.3876 -0.156989 0)
(10.3642 -0.152313 0)
(10.3354 -0.149086 0)
(10.3024 -0.147534 0)
(10.2657 -0.147549 0)
(10.2267 -0.1493 0)
(10.0831 -0.0950614 0)
(10.2598 -0.153866 0)
(10.3703 -0.168494 0)
(10.4136 -0.179844 0)
(10.4049 -0.187043 0)
(10.3508 -0.187543 0)
(10.2583 -0.182406 0)
(10.137 -0.173031 0)
(9.9962 -0.160707 0)
(9.84324 -0.146639 0)
(9.68369 -0.131834 0)
(9.52163 -0.117237 0)
(9.35995 -0.103655 0)
(9.2005 -0.0916455 0)
(9.0442 -0.0815291 0)
(8.89156 -0.0734247 0)
(8.74245 -0.0672302 0)
(8.59773 -0.0632543 0)
(9.77123 -0.0915605 0)
(9.25482 -0.155153 0)
(8.67176 -0.168562 0)
(8.0738 -0.168258 0)
(7.50723 -0.159963 0)
(6.99073 -0.145368 0)
(6.53109 -0.127021 0)
(6.1321 -0.10733 0)
(5.79421 -0.0881006 0)
(5.51397 -0.0703483 0)
(5.28559 -0.0545959 0)
(5.10241 -0.0410395 0)
(4.95733 -0.029692 0)
(4.8433 -0.0205551 0)
(4.75364 -0.0135202 0)
(4.68261 -0.00838399 0)
(4.62442 -0.00510233 0)
(4.57705 -0.00275069 0)
(-0.00625231 -0.0393944 -2.96871e-21)
(-0.00432343 -0.0304855 2.93432e-21)
(-0.0261455 -0.0249337 0)
(-0.0462573 -0.0186487 0)
(-0.0742903 -0.0136143 0)
(-0.109307 -0.00802811 -2.99573e-21)
(-0.152423 -0.000857342 0)
(-0.204931 0.00819042 0)
(-0.26798 0.019074 0)
(-0.342601 0.031633 0)
(-0.429743 0.0457448 3.21578e-21)
(-0.530256 0.0613313 0)
(-0.644897 0.0783413 0)
(-0.774315 0.0967268 0)
(-0.919034 0.116396 0)
(-1.07941 0.137163 3.59337e-21)
(-1.25555 0.158711 0)
(-1.44728 0.18058 0)
(-1.65403 0.202174 0)
(-1.8748 0.222779 0)
(-2.10813 0.24159 0)
(-2.35201 0.257777 0)
(-2.604 0.270294 0)
(-2.86113 0.278316 4.48659e-21)
(-3.11998 0.281363 -4.60535e-21)
(-3.37671 0.278971 4.71736e-21)
(-3.62704 0.270792 4.81844e-21)
(-3.86651 0.256678 0)
(-4.09049 0.236722 0)
(-4.29435 0.211256 -5.00612e-21)
(-4.47355 0.180841 -5.01167e-21)
(-4.62385 0.146436 0)
(-4.74159 0.109467 0)
(-4.82423 0.0715386 -4.78217e-21)
(-4.86928 0.0346296 0)
(-4.87435 0.000803946 0)
(-4.8454 -0.0286564 4.10652e-21)
(-4.78319 -0.05514 0)
(-4.68917 -0.079272 3.39763e-21)
(-4.56496 -0.101593 5.95161e-21)
(-4.41224 -0.122143 0)
(-4.23299 -0.14078 0)
(-4.02948 -0.157341 0)
(-3.80424 -0.171683 0)
(-3.56006 -0.183707 0)
(-3.29987 -0.193362 -2.08215e-22)
(-3.02669 -0.200646 -1.27445e-21)
(-2.74357 -0.205605 -2.31275e-21)
(-2.45351 -0.208319 0)
(-2.15941 -0.2089 4.25954e-21)
(-1.86399 -0.207481 0)
(-1.56977 -0.204211 -5.97608e-21)
(-1.279 -0.199259 -6.73424e-21)
(-0.993663 -0.192831 0)
(-0.715648 -0.185238 0)
(-0.445838 -0.177166 0)
(-0.184623 -0.169048 -9.07518e-21)
(0.0667863 -0.160636 0)
(0.307623 -0.151849 0)
(0.537671 -0.143072 0)
(0.75663 -0.134525 0)
(0.964527 -0.126389 0)
(1.16154 -0.11856 0)
(1.34789 -0.110445 0)
(1.52369 -0.102078 0)
(1.68906 -0.094008 1.03279e-20)
(1.84438 -0.0864086 0)
(1.99006 -0.0792605 0)
(2.1265 -0.0725213 -1.02222e-20)
(2.25409 -0.0661612 -1.01614e-20)
(2.37324 -0.0601585 0)
(2.48433 -0.0544945 1.00145e-20)
(2.58775 -0.0491531 -9.93142e-21)
(2.68386 -0.044121 0)
(2.77302 -0.039388 9.75265e-21)
(2.8556 -0.0349468 0)
(2.93193 -0.0307923 0)
(3.00235 -0.0269206 -9.46668e-21)
(3.0672 -0.0233278 0)
(3.12678 -0.0200096 9.27193e-21)
(3.18143 -0.0169607 0)
(3.23143 -0.0141742 -9.07811e-21)
(3.2771 -0.0116421 -8.98232e-21)
(3.31871 -0.00935472 -8.88757e-21)
(3.35656 -0.00730172 -1.75881e-20)
(3.3909 -0.00547185 1.74038e-20)
(3.422 -0.00385337 0)
(3.45012 -0.00243444 0)
(3.47548 -0.00120411 0)
(3.49832 -0.000154823 1.66978e-20)
(3.51887 0.00071443 1.65295e-20)
(3.53735 0.001399 -1.63647e-20)
(3.554 0.00190199 0)
(3.56907 0.0022641 1.60451e-20)
(3.58277 0.00257604 1.58903e-20)
(3.59521 0.00291687 1.57386e-20)
(3.6064 0.0032982 0)
(3.61632 0.00368228 0)
(3.6249 0.00402098 0)
(3.63213 0.00428054 1.51639e-20)
(3.63801 0.00444592 0)
(3.64267 0.00455284 0)
(3.6461 0.0046505 -1.47638e-20)
(3.64849 0.00472882 0)
(3.65003 0.00477272 0)
(3.65089 0.004799 -1.43873e-20)
(3.65113 0.00482974 0)
(3.65082 0.00487442 0)
(3.65 0.00493007 1.40335e-20)
(3.64869 0.0049847 1.39202e-20)
(3.64693 0.00503456 0)
(3.64475 0.00506834 -1.36996e-20)
(3.6422 0.00507473 0)
(3.63933 0.00503886 1.34868e-20)
(3.63622 0.00494023 0)
(3.63297 0.0047659 1.3281e-20)
(3.62968 0.00451741 1.31806e-20)
(3.62644 0.00421149 0)
(3.6233 0.00387778 0)
(3.6203 0.00355064 0)
(3.61744 0.00325835 0)
(3.61467 0.00301541 0)
(3.61198 0.00282103 0)
(3.60931 0.00266361 0)
(3.60667 0.00252823 1.24293e-20)
(3.60403 0.00240319 -1.2341e-20)
(3.60141 0.00228293 0)
(3.59882 0.00216709 0)
(3.59624 0.00205773 0)
(3.59369 0.00195677 0)
(3.59117 0.00186475 -2.38289e-20)
(3.58866 0.00178106 0)
(3.58617 0.00170457 2.35007e-20)
(3.5837 0.00163429 -2.33391e-20)
(3.58124 0.00156957 0)
(3.57878 0.00151001 0)
(3.57634 0.00145534 0)
(3.57391 0.0014053 2.27089e-20)
(3.57148 0.00135966 2.25551e-20)
(3.56905 0.00131817 0)
(3.56662 0.00128058 2.22518e-20)
(3.56419 0.00124669 2.21023e-20)
(3.56176 0.00121624 -2.1954e-20)
(3.55933 0.001189 0)
(3.55688 0.00116472 0)
(3.55443 0.00114319 -2.15172e-20)
(3.55197 0.00112423 0)
(3.54949 0.00110774 0)
(3.547 0.00109368 0)
(3.54449 0.00108204 0)
(3.54195 0.00107293 2.08139e-20)
(3.53939 0.00106651 2.06769e-20)
(3.53679 0.00106302 0)
(3.53416 0.00106284 2.04064e-20)
(3.53147 0.00106645 0)
(3.52874 0.00107453 0)
(3.52593 0.00108796 2.00098e-20)
(3.52304 0.00110787 0)
(3.52004 0.0011357 1.97516e-20)
(3.51692 0.00117324 0)
(3.51364 0.00122282 0)
(3.51017 0.00128741 1.93748e-20)
(3.50644 0.0013709 0)
(3.5024 0.00147838 1.91316e-20)
(3.49797 0.00161665 0)
(3.49304 0.00179486 0)
(3.48746 0.00202546 0)
(3.48105 0.00232568 -1.86718e-20)
(3.47355 0.00271974 0)
(3.46462 0.00324244 1.84617e-20)
(3.45377 0.00394487 0)
(3.44032 0.00490427 0)
(3.42333 0.00624005 0)
(3.40126 0.00814555 0)
(3.37218 0.0109412 0)
(3.33177 0.0151384 0)
(3.27721 0.021915 0)
(3.18915 0.0314734 -3.6107e-20)
(3.08888 0.0544905 0)
(2.80034 0.0581392 0)
(-0.0629648 0.0625474 8.80129e-21)
(-0.129601 0.0919489 -8.70537e-21)
(-0.249738 0.112502 0)
(-0.361192 0.133367 5.739e-21)
(-0.48242 0.156411 0)
(-0.612367 0.182353 2.93123e-21)
(-0.75123 0.211026 -5.81311e-21)
(-0.899182 0.24196 -5.86847e-21)
(-1.05609 0.274767 0)
(-1.22183 0.309084 -6.02454e-21)
(-1.39628 0.344526 -3.09353e-21)
(-1.57917 0.380724 0)
(-1.77006 0.417256 0)
(-1.96836 0.453638 0)
(-2.17323 0.489298 0)
(-2.38361 0.523555 -3.42399e-21)
(-2.59824 0.555611 0)
(-2.81562 0.584577 7.27531e-21)
(-3.0341 0.609498 0)
(-3.25184 0.629401 0)
(-3.46688 0.643343 -8.02128e-21)
(-3.67716 0.650467 0)
(-3.88058 0.650047 8.58348e-21)
(-4.075 0.64149 -4.29831e-21)
(-4.25837 0.624404 4.42205e-21)
(-4.42876 0.598604 -4.54073e-21)
(-4.58445 0.564089 -4.64987e-21)
(-4.72393 0.521035 0)
(-4.84593 0.469788 0)
(-4.94929 0.41084 4.86567e-21)
(-5.03302 0.344846 -5.38424e-21)
(-5.0963 0.272831 0)
(-5.13856 0.19628 0)
(-5.15923 0.116571 4.67694e-21)
(-5.15896 0.0357652 0)
(-5.13638 -0.0433822 0)
(-5.08446 -0.120097 -4.01745e-21)
(-5.00301 -0.1936 0)
(-4.89108 -0.2634 3.74836e-21)
(-4.74896 -0.329011 -5.83337e-21)
(-4.5781 -0.389506 0)
(-4.38036 -0.44419 0)
(-4.15812 -0.492482 -6.56047e-21)
(-3.91405 -0.533943 -4.4118e-21)
(-3.65107 -0.568296 -2.22801e-21)
(-3.37225 -0.595427 2.46777e-22)
(-3.08071 -0.615388 1.25676e-21)
(-2.7796 -0.628386 6.50178e-21)
(-2.47196 -0.634769 -6.24193e-21)
(-2.16068 -0.635008 -4.20976e-21)
(-1.84847 -0.629681 0)
(-1.53776 -0.619451 5.91608e-21)
(-1.23068 -0.605058 -6.51304e-21)
(-0.929035 -0.587323 0)
(-0.634357 -0.567164 0)
(-0.347886 -0.545501 0)
(-0.0708134 -0.522353 9.00599e-21)
(0.196056 -0.498084 0)
(0.452495 -0.473058 -1.91294e-20)
(0.698253 -0.447834 0)
(0.933229 -0.422777 -1.9838e-20)
(1.15743 -0.398195 0)
(1.37095 -0.374366 2.02159e-20)
(1.57407 -0.35146 0)
(1.76719 -0.329428 -2.03477e-20)
(1.95069 -0.308269 1.01441e-20)
(2.12486 -0.28804 0)
(2.29004 -0.268782 2.02252e-20)
(2.44655 -0.250506 1.00859e-20)
(2.59475 -0.233206 1.00234e-20)
(2.73502 -0.216865 0)
(2.86771 -0.201455 9.83225e-21)
(2.99318 -0.186946 9.78954e-21)
(3.11178 -0.173302 0)
(3.22385 -0.160486 -9.60931e-21)
(3.32971 -0.14846 1.89961e-20)
(3.42967 -0.137189 0)
(3.52404 -0.126634 9.32231e-21)
(3.61308 -0.116763 0)
(3.69706 -0.107541 -2.73535e-20)
(3.77624 -0.0989376 0)
(3.85085 -0.0909216 2.6774e-20)
(3.92112 -0.0834641 8.83728e-21)
(3.98726 -0.0765367 -8.71913e-21)
(4.04948 -0.0701122 -1.72532e-20)
(4.10798 -0.0641642 1.70708e-20)
(4.16295 -0.0586672 0)
(4.21456 -0.0535972 0)
(4.263 -0.0489315 0)
(4.30845 -0.0446483 -4.91825e-20)
(4.35105 -0.0407285 -1.6237e-20)
(4.39095 -0.0371647 1.60721e-20)
(4.42832 -0.0339741 0)
(4.46334 -0.0311709 1.57268e-20)
(4.49623 -0.0286926 -1.55984e-20)
(4.52712 -0.0264114 -1.54474e-20)
(4.55604 -0.0241991 0)
(4.58303 -0.0219596 0)
(4.60811 -0.0196446 0)
(4.63132 -0.017281 -1.4877e-20)
(4.65273 -0.0149733 0)
(4.6724 -0.0128353 2.9206e-20)
(4.69058 -0.010943 4.34319e-20)
(4.70741 -0.00933758 -2.86986e-20)
(4.723 -0.00800197 0)
(4.73742 -0.00687628 -1.41006e-20)
(4.7508 -0.00589824 0)
(4.76322 -0.00502422 -2.77461e-20)
(4.77478 -0.00422761 1.37556e-20)
(4.78554 -0.00348923 1.3645e-20)
(4.79552 -0.00281179 0)
(4.80477 -0.00219329 4.03018e-20)
(4.81333 -0.00164416 -2.66556e-20)
(4.82125 -0.00116851 -1.32273e-20)
(4.82854 -0.000779381 0)
(4.83523 -0.000483474 -1.30258e-20)
(4.84133 -0.000272814 -3.87794e-20)
(4.84684 -0.000133328 0)
(4.85181 -4.495e-05 -2.547e-20)
(4.85626 1.52473e-05 -2.52838e-20)
(4.86025 6.69339e-05 -2.51003e-20)
(4.86384 0.000122208 0)
(4.86707 0.000184698 0)
(4.86999 0.000251553 0)
(4.87262 0.000317018 1.21952e-20)
(4.875 0.000375822 1.21113e-20)
(4.87711 0.00042511 0)
(4.87899 0.000464678 2.38847e-20)
(4.88063 0.000496072 2.37195e-20)
(4.88206 0.000521399 0)
(4.88329 0.000542466 2.33957e-20)
(4.88433 0.000560438 4.64701e-20)
(4.8852 0.000575925 -2.30778e-20)
(4.88592 0.000589216 -2.29199e-20)
(4.88648 0.000600509 0)
(4.88691 0.000610009 0)
(4.88721 0.000617962 0)
(4.88739 0.000624621 -2.23111e-20)
(4.88747 0.000630219 2.21612e-20)
(4.88744 0.000634964 4.40283e-20)
(4.88731 0.000639028 -2.18684e-20)
(4.8871 0.000642563 2.17228e-20)
(4.88681 0.000645701 2.15799e-20)
(4.88645 0.000648566 0)
(4.88601 0.000651294 0)
(4.88551 0.000654053 -2.11561e-20)
(4.88495 0.00065707 0)
(4.88434 0.000660645 0)
(4.88367 0.000665167 4.14879e-20)
(4.88296 0.000671105 0)
(4.88219 0.000679015 2.04746e-20)
(4.88139 0.000689536 -2.03421e-20)
(4.88053 0.000703413 0)
(4.87963 0.000721536 2.00793e-20)
(4.87868 0.000745007 0)
(4.87769 0.00077522 0)
(4.87664 0.000813949 -1.96949e-20)
(4.87553 0.000863453 3.91373e-20)
(4.87436 0.000926586 -1.94443e-20)
(4.87311 0.00100697 0)
(4.87178 0.00110922 0)
(4.87034 0.00123923 1.90772e-20)
(4.86877 0.00140465 0)
(4.86705 0.0016155 1.88404e-20)
(4.86513 0.001885 0)
(4.86296 0.00223083 0)
(4.86048 0.00267681 0)
(4.85759 0.00325555 1.83944e-20)
(4.85419 0.00401238 0)
(4.85011 0.00501143 -1.81896e-20)
(4.84513 0.00634608 0)
(4.83898 0.00815366 0)
(4.83125 0.0106495 3.58372e-20)
(4.82131 0.0141555 -3.56923e-20)
(4.80859 0.0192644 0)
(4.79101 0.0267085 0)
(4.7694 0.0389025 0)
(4.73212 0.0552588 1.06441e-19)
(4.70104 0.0942167 0)
(4.5877 0.115726 -7.12256e-20)
(-0.0881316 0.347123 -4.86616e-23)
(-0.209613 0.402038 1.14863e-20)
(-0.37982 0.432143 0)
(-0.538335 0.460954 -1.13562e-20)
(-0.701891 0.493482 0)
(-0.868222 0.528918 0)
(-1.03725 0.566315 1.21133e-23)
(-1.20863 0.604987 5.77847e-21)
(-1.38202 0.644448 5.84928e-21)
(-1.55708 0.684381 5.92029e-21)
(-1.73349 0.724397 0)
(-1.91092 0.763983 0)
(-2.08905 0.802496 -6.32778e-21)
(-2.26757 0.839211 -1.29924e-20)
(-2.44617 0.873356 1.33707e-20)
(-2.62462 0.904132 0)
(-2.80276 0.930714 1.42552e-20)
(-2.98053 0.952254 -7.17301e-21)
(-3.15793 0.967897 0)
(-3.335 0.976802 1.58942e-20)
(-3.51175 0.978167 7.93391e-21)
(-3.68811 0.971265 -1.71569e-20)
(-3.8638 0.955471 -8.50258e-21)
(-4.03833 0.930277 0)
(-4.21081 0.895278 1.91366e-20)
(-4.37997 0.850159 1.97618e-20)
(-4.54403 0.794726 0)
(-4.70069 0.728942 2.08401e-20)
(-4.8472 0.652955 0)
(-4.98042 0.567129 2.15268e-20)
(-5.09694 0.472009 1.0123e-20)
(-5.19335 0.368135 0)
(-5.26586 0.256918 0)
(-5.31072 0.140285 0)
(-5.32424 0.0195307 0)
(-5.30541 -0.103709 0)
(-5.25337 -0.22796 0)
(-5.16716 -0.350098 1.68969e-20)
(-5.04739 -0.467827 -2.22854e-20)
(-4.89498 -0.578809 0)
(-4.71213 -0.681234 0)
(-4.50115 -0.77365 0)
(-4.26479 -0.855 -1.0425e-21)
(-4.00615 -0.924557 4.34675e-21)
(-3.72848 -0.981896 5.23373e-21)
(-3.4352 -1.02689 -8.25833e-22)
(-3.12975 -1.05969 1.43798e-21)
(-2.81549 -1.08071 -4.1664e-21)
(-2.49567 -1.09059 4.85678e-22)
(-2.1733 -1.09018 -7.65598e-21)
(-1.85113 -1.08048 0)
(-1.5316 -1.06263 -1.1227e-20)
(-1.21678 -1.03783 2.58515e-22)
(-0.908456 -1.00733 0)
(-0.6081 -0.972401 0)
(-0.316886 -0.934173 1.66705e-20)
(-0.035797 -0.893745 0)
(0.234539 -0.851917 0)
(0.493887 -0.80946 -1.87303e-20)
(0.741968 -0.767048 -3.85442e-20)
(0.978737 -0.725222 1.9699e-20)
(1.20429 -0.684387 0)
(1.41884 -0.644799 -2.00872e-20)
(1.62269 -0.606586 0)
(1.81627 -0.56985 -2.00648e-20)
(2.00005 -0.534693 -2.02271e-20)
(2.17454 -0.501174 4.02293e-20)
(2.34018 -0.469303 1.99775e-20)
(2.49742 -0.439063 0)
(2.64667 -0.410423 -3.9667e-20)
(2.78831 -0.38334 0)
(2.92269 -0.357767 -5.86891e-20)
(3.05013 -0.333649 -3.87598e-20)
(3.17094 -0.310929 -3.84109e-20)
(3.28541 -0.289544 3.80468e-20)
(3.39382 -0.269433 -5.65514e-20)
(3.49644 -0.250533 0)
(3.59353 -0.232784 0)
(3.68533 -0.216126 3.65045e-20)
(3.77209 -0.200505 5.42018e-20)
(3.85403 -0.185868 0)
(3.93137 -0.172166 -1.7695e-20)
(4.00433 -0.15935 0)
(4.07311 -0.147379 5.18551e-20)
(4.1379 -0.136208 5.61701e-23)
(4.19889 -0.125798 -5.3366e-23)
(4.25628 -0.116112 -3.34271e-20)
(4.31023 -0.107112 0)
(4.36092 -0.0987666 3.27103e-20)
(4.40851 -0.0910402 4.33717e-23)
(4.45317 -0.0838976 0)
(4.49503 -0.0773236 0)
(4.53426 -0.0713655 0)
(4.57102 -0.0660449 -3.10813e-20)
(4.60544 -0.0611449 0)
(4.63756 -0.0564281 0)
(4.66747 -0.051832 0)
(4.6953 -0.0473694 0)
(4.72125 -0.0430759 0)
(4.74553 -0.0390003 -2.93214e-20)
(4.76833 -0.0351906 0)
(4.78977 -0.031693 -2.88285e-20)
(4.8099 -0.028541 -2.85805e-20)
(4.82871 -0.0257321 2.83384e-20)
(4.84624 -0.0232343 0)
(4.86253 -0.0210024 2.78693e-20)
(4.87765 -0.0189925 0)
(4.89169 -0.0171678 2.74186e-20)
(4.90471 -0.0154991 -2.71997e-20)
(4.91682 -0.0139617 -8.0934e-20)
(4.92811 -0.0125495 0)
(4.93867 -0.0112518 -7.96838e-20)
(4.94856 -0.0100625 -2.63479e-20)
(4.9578 -0.00898977 0)
(4.96644 -0.00802899 -5.1922e-20)
(4.97451 -0.00718048 -5.15372e-20)
(4.98203 -0.00643562 7.67434e-20)
(4.98902 -0.00578467 0)
(4.99551 -0.00521513 2.52141e-20)
(5.00151 -0.00471291 2.5033e-20)
(5.00707 -0.00426423 7.45562e-20)
(5.01221 -0.00385739 0)
(5.01697 -0.0034837 0)
(5.02137 -0.00313739 0)
(5.02544 -0.00281496 2.41591e-20)
(5.0292 -0.0025144 0)
(5.03266 -0.00223459 0)
(5.03584 -0.00197487 -2.36686e-20)
(5.03875 -0.00173474 -2.3507e-20)
(5.04139 -0.00151362 0)
(5.04379 -0.00131067 0)
(5.04596 -0.0011248 -4.6065e-20)
(5.04792 -0.000954789 0)
(5.04968 -0.000799427 4.54481e-20)
(5.05125 -0.000657581 4.51422e-20)
(5.05264 -0.00052822 0)
(5.05388 -0.000410386 0)
(5.05497 -0.000303177 -4.42478e-20)
(5.05592 -0.000205729 -1.26526e-24)
(5.05674 -0.000117227 -1.13213e-24)
(5.05744 -3.69094e-05 0)
(5.05804 3.59354e-05 -8.61852e-20)
(5.05853 0.000101979 0)
(5.05893 0.000161873 0)
(5.05925 0.000216262 0)
(5.05949 0.000265802 4.1976e-20)
(5.05965 0.000311185 0)
(5.05975 0.00035316 -8.28618e-20)
(5.05979 0.000392557 -4.11624e-20)
(5.05977 0.000430304 0)
(5.0597 0.000467438 -4.06312e-20)
(5.05958 0.000505104 0)
(5.0594 0.000544578 0)
(5.05918 0.000587306 -1.19551e-19)
(5.05892 0.00063496 7.91891e-20)
(5.0586 0.000689541 0)
(5.05824 0.000753501 7.81796e-20)
(5.05783 0.0008299 -3.88414e-20)
(5.05735 0.000922577 0)
(5.05681 0.00103638 0)
(5.0562 0.00117744 0)
(5.0555 0.00135361 -1.13611e-19)
(5.05469 0.00157495 0)
(5.05374 0.00185456 -3.74036e-20)
(5.05264 0.0022096 0)
(5.05133 0.00266284 0)
(5.04976 0.00324477 0)
(5.04787 0.00399669 0)
(5.04555 0.00497556 0)
(5.04269 0.00626082 0)
(5.03913 0.00796682 -7.18268e-20)
(5.03466 0.0102581 0)
(5.02901 0.013391 -3.5585e-20)
(5.02175 0.0177302 1.06285e-19)
(5.01262 0.0239678 0)
(5.00045 0.0328579 0)
(4.98628 0.0470522 -7.02808e-20)
(4.96477 0.0663473 -7.04391e-20)
(4.94804 0.106781 7.03101e-20)
(4.91207 0.145567 7.07654e-20)
(-0.0895928 0.673775 -1.73578e-20)
(-0.225936 0.75356 -1.71609e-20)
(-0.401054 0.784006 -1.13822e-20)
(-0.565217 0.811055 -5.72668e-21)
(-0.729342 0.84125 0)
(-0.891716 0.873526 1.14147e-20)
(-1.05225 0.907059 -5.81932e-21)
(-1.21095 0.94139 0)
(-1.36805 0.976279 -5.8178e-21)
(-1.52393 1.01151 0)
(-1.67904 1.04677 1.22559e-20)
(-1.8339 1.08177 0)
(-1.98916 1.11607 6.30974e-21)
(-2.14566 1.14923 1.29633e-20)
(-2.30444 1.18083 -1.33476e-20)
(-2.46669 1.21041 0)
(-2.63363 1.23743 -1.42379e-20)
(-2.80645 1.26119 0)
(-2.98607 1.28078 0)
(-3.17304 1.29505 -1.58589e-20)
(-3.3674 1.3026 0)
(-3.56857 1.30189 -8.8239e-22)
(-3.77531 1.29125 0)
(-3.98568 1.26893 0)
(-4.19709 1.23328 1.27581e-21)
(-4.40635 1.18278 -1.95799e-20)
(-4.60982 1.11621 -2.16969e-20)
(-4.80352 1.03274 -2.05984e-20)
(-4.98333 0.931971 0)
(-5.14504 0.814099 -4.44756e-20)
(-5.28442 0.680084 0)
(-5.39752 0.531513 -2.35303e-20)
(-5.4813 0.370154 0)
(-5.53236 0.198777 0)
(-5.54807 0.0208806 2.24463e-20)
(-5.52706 -0.160634 0)
(-5.46869 -0.341625 -2.02377e-20)
(-5.3729 -0.518726 2.15418e-21)
(-5.24064 -0.688585 3.21535e-20)
(-5.07297 -0.848145 -3.05226e-20)
(-4.87222 -0.994806 0)
(-4.64168 -1.12639 0)
(-4.38461 -1.24146 -1.03768e-20)
(-4.10467 -1.33902 0)
(-3.80567 -1.41855 -2.98757e-21)
(-3.49154 -1.47996 7.72409e-22)
(-3.16624 -1.52361 -1.41629e-21)
(-2.83363 -1.55024 0)
(-2.49741 -1.56095 5.60475e-21)
(-2.16095 -1.55715 7.55861e-21)
(-1.82724 -1.54044 -1.77638e-20)
(-1.49875 -1.51257 1.11022e-20)
(-1.17745 -1.47531 1.26716e-20)
(-0.864838 -1.43047 0)
(-0.561955 -1.37975 0)
(-0.269467 -1.3247 -1.65322e-20)
(0.0121386 -1.26666 0)
(0.282628 -1.20677 0)
(0.542006 -1.14608 3.73868e-20)
(0.790212 -1.08549 3.8235e-20)
(1.02728 -1.02575 0)
(1.25326 -0.967463 0)
(1.46826 -0.911083 0)
(1.67244 -0.856934 0)
(1.86603 -0.805212 4.00632e-20)
(2.04939 -0.756021 -3.98617e-20)
(2.22293 -0.709383 -4.0028e-20)
(2.38713 -0.665252 -7.96152e-20)
(2.54253 -0.623535 0)
(2.68966 -0.584117 1.71576e-22)
(2.82906 -0.546876 0)
(2.9612 -0.511697 3.89445e-20)
(3.08652 -0.478473 1.40635e-22)
(3.2054 -0.447107 3.82824e-20)