/*--------------------------------*- C++ -*----------------------------------*\
| =========                 |                                                 |
| \\      /  F ield         | OpenFOAM: The Open Source CFD Toolbox           |
|  \\    /   O peration     | Version:  2112                                  |
|   \\  /    A nd           | Website:  www.openfoam.com                      |
|    \\/     M anipulation  |                                                 |
\*---------------------------------------------------------------------------*/
FoamFile
{
    version     2.0;
    format      ascii;
    arch        "LSB;label=32;scalar=64";
    class       volScalarField;
    location    "0.16";
    object      pMean;
}
// * * * * * * * * * * * * * * * * * * * * * * * * * * * * * * * * * * * * * //

dimensions      [0 2 -2 0 0 0 0];

internalField   nonuniform List<scalar> 
122250
(
2.72318
1.95973
1.63807
1.38411
1.2546
1.13826
1.03106
0.931961
0.840718
0.75994
0.689348
0.627376
0.574785
0.521712
0.467636
0.360296
0.190633
-0.15554
2.42832
1.82229
1.52981
1.33595
1.23137
1.12478
1.01992
0.920931
0.82952
0.747991
0.676332
0.613107
0.557363
0.502992
0.439809
0.342577
0.160623
-0.0655735
2.48169
1.95225
1.67872
1.36682
1.23743
1.12522
1.01981
0.91981
0.827294
0.743868
0.670159
0.603279
0.54255
0.479333
0.407235
0.301103
0.142888
-0.0659452
2.48682
2.08117
1.86951
1.39178
1.23655
1.11736
1.01428
0.915283
0.82173
0.736476
0.659737
0.589416
0.521991
0.452042
0.369162
0.261602
0.113657
-0.0700906
2.41285
2.11648
1.92808
1.42587
1.23551
1.11086
1.00819
0.909703
0.815367
0.727947
0.648186
0.573644
0.500803
0.423908
0.335179
0.226105
0.0881172
-0.0753504
2.31984
2.0627
1.91834
1.37891
1.21735
1.09729
0.996535
0.899195
0.804331
0.71495
0.632016
0.553495
0.475537
0.393175
0.300316
0.190845
0.0604069
-0.0895881
2.2404
2.02013
1.91458
1.37239
1.20799
1.08453
0.983791
0.887604
0.792515
0.701272
0.615237
0.532756
0.450215
0.363316
0.267308
0.1579
0.0325139
-0.107892
2.16703
1.97669
1.90609
1.3569
1.19976
1.07023
0.969153
0.873735
0.77847
0.685479
0.596416
0.510107
0.423429
0.332682
0.234195
0.124908
0.00316043
-0.130281
2.09932
1.93292
1.8914
1.34358
1.18702
1.05484
0.953537
0.858184
0.762522
0.667883
0.575998
0.486161
0.395791
0.301809
0.201333
0.0921744
-0.0267949
-0.155083
2.04243
1.8848
1.87359
1.32848
1.17184
1.03719
0.936067
0.84052
0.744372
0.648343
0.553983
0.460979
0.367357
0.270642
0.168554
0.0594938
-0.0573174
-0.181601
1.97934
1.81722
1.84344
1.3124
1.14842
1.02038
0.91761
0.820987
0.724246
0.627039
0.530623
0.434981
0.338648
0.23965
0.136258
0.0272794
-0.0878386
-0.208916
1.91462
1.74958
1.80215
1.28711
1.13203
1.00303
0.900339
0.803248
0.705712
0.607327
0.509112
0.411178
0.31252
0.211689
0.107293
-0.00161901
-0.115466
-0.23413
1.87864
1.7319
1.79994
1.26193
1.11227
0.988311
0.883951
0.785115
0.686499
0.587059
0.487371
0.387587
0.287011
0.184618
0.0793735
-0.0294503
-0.142186
-0.258761
1.8593
1.75527
1.82067
1.22994
1.09458
0.966406
0.863826
0.764224
0.664189
0.563273
0.461926
0.360251
0.257819
0.153978
0.0480161
-0.0605824
-0.172062
-0.286379
1.81876
1.7531
1.83217
1.20297
1.06764
0.944907
0.838854
0.737618
0.636758
0.535001
0.432363
0.329132
0.225242
0.120393
0.0141507
-0.0938204
-0.203692
-0.315432
1.77946
1.72866
1.83779
1.17626
1.03554
0.920266
0.811961
0.710274
0.608674
0.505591
0.401472
0.296871
0.191866
0.0863488
-0.0199047
-0.127077
-0.235272
-0.344444
1.74219
1.70234
1.84335
1.13741
0.989068
0.882712
0.780546
0.680907
0.577678
0.472775
0.367311
0.26178
0.156154
0.0503952
-0.0555349
-0.161659
-0.267992
-0.374531
1.71703
1.69292
1.85843
1.10256
0.965434
0.855948
0.74836
0.651335
0.546417
0.43986
0.333585
0.227769
0.12207
0.0165149
-0.0886957
-0.193414
-0.297575
-0.401207
1.71554
1.71297
1.87024
1.26174
0.928896
0.831303
0.722671
0.631365
0.519429
0.40974
0.303016
0.197432
0.0920706
-0.0129345
-0.117099
-0.220093
-0.321794
-0.422287
1.69687
1.69972
1.802
1.23867
0.927324
0.822786
0.71212
0.616091
0.505231
0.395052
0.28708
0.180613
0.0751122
-0.0294398
-0.132776
-0.234594
-0.334674
-0.433033
1.73012
1.69498
1.7957
1.10299
0.938773
0.826016
0.71451
0.609838
0.501361
0.39131
0.281737
0.173591
0.067094
-0.0375579
-0.140002
-0.240099
-0.337986
-0.434011
1.77669
1.72579
1.80273
1.13247
0.947679
0.831792
0.716906
0.613481
0.503831
0.392195
0.280979
0.171376
0.0635038
-0.0425133
-0.146529
-0.247887
-0.345436
-0.439082
1.83403
1.76038
1.80564
1.14563
0.964179
0.842147
0.724084
0.61903
0.507752
0.39434
0.281511
0.170523
0.0619564
-0.0444259
-0.147216
-0.246179
-0.341609
-0.430274
1.8992
1.80389
1.81113
1.17073
0.98154
0.853267
0.73751
0.627633
0.514814
0.400223
0.28595
0.17306
0.0607263
-0.0516452
-0.165781
-0.277182
-0.369844
-0.429308
1.9746
1.84177
1.8049
1.15092
0.987515
0.858723
0.745534
0.633243
0.518108
0.401857
0.286359
0.172055
0.057201
-0.0621323
-0.175683
-0.261272
-0.334616
-0.425012
2.06526
1.89811
1.80274
1.26443
1.00179
0.875274
0.760339
0.644717
0.52687
0.409484
0.292906
0.177069
0.0568806
-0.0737593
-0.175843
-0.252373
-0.324123
-0.40636
2.15555
1.90965
1.7591
1.19426
0.994989
0.875469
0.761722
0.644085
0.525227
0.408224
0.293924
0.181053
0.0690608
-0.0447646
-0.15914
-0.271656
-0.361247
-0.432084
2.1767
1.7873
1.54281
1.16888
1.00089
0.887413
0.770982
0.649544
0.528758
0.411014
0.2966
0.183942
0.0731272
-0.0375711
-0.142151
-0.243179
-0.335678
-0.419629
2.06246
1.59344
1.32354
1.12201
0.991941
0.880708
0.76366
0.643221
0.524253
0.408254
0.295078
0.184108
0.0750679
-0.031581
-0.134877
-0.233238
-0.324329
-0.410627
2.39716
1.74522
1.42776
1.16181
1.01825
0.898238
0.777255
0.656344
0.537747
0.422091
0.309275
0.198768
0.0904517
-0.0154642
-0.117496
-0.214431
-0.306352
-0.39363
2.43522
1.91832
1.50989
1.39801
1.28157
1.16534
1.05644
0.953172
0.855801
0.767522
0.690109
0.623009
0.568656
0.522905
0.490802
0.452123
0.41101
0.239686
2.43398
2.14103
1.75784
1.45983
1.27828
1.15389
1.04571
0.942543
0.845183
0.756878
0.67876
0.611264
0.554002
0.507578
0.466851
0.433518
0.373124
0.284383
2.26675
2.07761
1.72863
1.43945
1.25909
1.14319
1.04052
0.937788
0.83959
0.750116
0.670931
0.600695
0.540632
0.487216
0.441119
0.391409
0.32855
0.227
2.13776
2.12074
1.7586
1.46311
1.25074
1.13134
1.03259
0.930963
0.832259
0.741854
0.66064
0.588192
0.522958
0.464345
0.407939
0.349309
0.276347
0.178853
2.02544
2.05824
1.75681
1.44709
1.2397
1.1216
1.02601
0.925126
0.825933
0.734201
0.650962
0.574997
0.505506
0.440484
0.37683
0.309868
0.232366
0.139855
1.91507
2.04871
1.77855
1.47729
1.22949
1.11932
1.01939
0.916856
0.817027
0.723783
0.637936
0.558827
0.484938
0.414296
0.344137
0.270862
0.190369
0.0991435
1.81666
2.01083
1.77753
1.47669
1.22098
1.11074
1.01024
0.907464
0.807219
0.712516
0.624364
0.542022
0.463895
0.388119
0.312378
0.234126
0.150589
0.0591894
1.72655
1.9729
1.7716
1.48095
1.21357
1.09938
1.00095
0.898285
0.797279
0.700901
0.610134
0.524391
0.442152
0.361673
0.28103
0.198366
0.111713
0.0192733
1.64557
1.93282
1.75726
1.482
1.19992
1.08648
0.988976
0.886468
0.784931
0.687086
0.593896
0.504957
0.418929
0.334257
0.249369
0.162828
0.0732208
-0.0206943
1.57449
1.8933
1.73884
1.49156
1.18563
1.07211
0.974666
0.872307
0.770411
0.671327
0.57603
0.484238
0.394827
0.306455
0.21785
0.127921
0.035598
-0.0599577
1.51002
1.85709
1.70317
1.46672
1.17168
1.05625
0.959
0.856674
0.75441
0.654118
0.556791
0.462365
0.369885
0.278205
0.186309
0.0933961
-0.00135035
-0.0985355
1.45674
1.81533
1.65414
1.44376
1.1543
1.0389
0.942889
0.840637
0.73798
0.636732
0.537734
0.441056
0.346028
0.251665
0.157127
0.0618286
-0.0348417
-0.133344
1.40315
1.78983
1.64059
1.42654
1.13019
1.02125
0.923901
0.821801
0.718724
0.616638
0.516433
0.418081
0.32101
0.22449
0.127853
0.0306507
-0.0675031
-0.166921
1.34396
1.74518
1.6498
1.44138
1.10067
1.00292
0.907605
0.802547
0.697381
0.594313
0.493072
0.393153
0.294107
0.195457
0.0968147
-0.00208857
-0.101487
-0.201545
1.28308
1.70259
1.64238
1.41712
1.08372
0.983741
0.894195
0.784101
0.674287
0.569736
0.467418
0.366001
0.265125
0.164603
0.0642426
-0.036065
-0.136413
-0.236814
1.22898
1.66387
1.62519
1.37981
1.08847
0.967007
0.860175
0.753156
0.646975
0.542286
0.438895
0.336177
0.233846
0.131857
0.0302574
-0.0708847
-0.171574
-0.271778
1.1819
1.62805
1.61352
1.37873
1.0314
0.937426
0.844598
0.729617
0.617342
0.511315
0.407425
0.304006
0.200801
0.0980069
-0.00414396
-0.105466
-0.205895
-0.305346
1.14952
1.60381
1.60203
1.3649
1.02793
0.928092
0.822115
0.69856
0.584178
0.478247
0.374495
0.270772
0.167103
0.0640539
-0.0379393
-0.138655
-0.238034
-0.33607
1.12343
1.58623
1.56899
1.23879
1.01009
0.914714
0.811812
0.679038
0.561687
0.454887
0.350416
0.24605
0.142019
0.0390702
-0.0623213
-0.161982
-0.259892
-0.356056
1.1516
1.57599
1.53245
1.21662
0.99734
0.893512
0.79095
0.662287
0.545117
0.437044
0.331691
0.227129
0.123433
0.021198
-0.0792266
-0.17772
-0.274246
-0.368822
1.18515
1.60637
1.57011
1.32012
1.00889
0.891212
0.780603
0.659057
0.541655
0.431688
0.325257
0.220577
0.117392
0.015968
-0.0835819
-0.181411
-0.277426
-0.371376
1.23589
1.64657
1.59008
1.32042
0.98763
0.884638
0.786539
0.660492
0.541226
0.430567
0.323766
0.219222
0.116701
0.01636
-0.0821444
-0.179107
-0.275511
-0.371261
1.30057
1.69346
1.61101
1.33749
0.991895
0.886357
0.791308
0.66231
0.541829
0.430461
0.32355
0.219667
0.118744
0.0206365
-0.0761026
-0.175813
-0.27483
-0.366961
1.38124
1.74522
1.62898
1.32797
1.00011
0.88883
0.788117
0.665762
0.545248
0.432443
0.324408
0.220563
0.118799
0.0198244
-0.0844262
-0.182425
-0.287069
-0.401133
1.47829
1.79569
1.64542
1.34564
0.999875
0.889025
0.778663
0.660793
0.543896
0.431151
0.323714
0.221086
0.123549
0.0304856
-0.0477856
-0.130372
-0.225415
-0.359006
1.59464
1.84171
1.62151
1.25523
1.00428
0.888458
0.777057
0.660773
0.544322
0.431702
0.324255
0.221922
0.121197
0.0417652
-0.042021
-0.118039
-0.205455
-0.324938
1.71172
1.88155
1.6306
1.27257
1.00117
0.890129
0.778108
0.659064
0.54207
0.429888
0.323298
0.221342
0.122292
0.0237925
-0.0775649
-0.170318
-0.270359
-0.374595
1.87141
1.8263
1.54103
1.20579
1.0018
0.893652
0.782834
0.662962
0.544087
0.430814
0.323324
0.221369
0.12343
0.0302447
-0.0624068
-0.160104
-0.261712
-0.356925
2.05876
1.91085
1.56613
1.21573
1.02403
0.897359
0.783987
0.665421
0.546737
0.433478
0.326362
0.224622
0.126868
0.0328402
-0.0595986
-0.151242
-0.2454
-0.338903
2.01479
1.58835
1.21694
1.1514
1.03159
0.911416
0.797145
0.678339
0.559082
0.445273
0.33763
0.2356
0.137849
0.043926
-0.0480014
-0.138744
-0.231404
-0.324089
2.78358
2.13556
1.74342
1.53927
1.40205
1.28234
1.16865
1.06066
0.960261
0.868807
0.786686
0.712403
0.647022
0.585274
0.529231
0.457652
0.368147
0.143825
2.55757
2.09126
1.72303
1.51933
1.38608
1.27007
1.15799
1.05039
0.949873
0.85834
0.775448
0.700971
0.633016
0.571603
0.508438
0.444866
0.341922
0.209319
2.47436
2.09108
1.7401
1.52142
1.38213
1.26735
1.15651
1.04807
0.946388
0.853265
0.769199
0.692413
0.622563
0.555628
0.489915
0.414422
0.318426
0.182306
2.35398
2.04434
1.72245
1.50412
1.36291
1.25187
1.14457
1.03803
0.936408
0.842825
0.757286
0.678887
0.605418
0.534989
0.462293
0.382178
0.283274
0.158656
2.25858
2.00472
1.71607
1.50026
1.3536
1.2429
1.13833
1.03263
0.930223
0.834989
0.747615
0.666659
0.59006
0.515044
0.437664
0.352973
0.254509
0.139805
2.16499
1.95788
1.70109
1.49123
1.33879
1.22739
1.12459
1.02051
0.918431
0.822362
0.733288
0.649984
0.570258
0.491332
0.4099
0.322104
0.224369
0.114656
2.08329
1.91067
1.68198
1.48075
1.32505
1.21251
1.11125
1.00902
0.907301
0.810095
0.718977
0.633125
0.550297
0.467823
0.382873
0.292678
0.194817
0.0878125
2.00643
1.86006
1.65686
1.46629
1.30971
1.19618
1.09576
0.994811
0.893458
0.79539
0.702463
0.614076
0.52825
0.442554
0.354583
0.262257
0.163809
0.0582275
1.93628
1.81024
1.62859
1.44945
1.2933
1.17919
1.07907
0.979117
0.878216
0.779322
0.684502
0.593627
0.504995
0.416427
0.32583
0.231562
0.132313
0.0273362
1.87079
1.75991
1.59637
1.4304
1.27573
1.16119
1.0609
0.96145
0.860823
0.761292
0.664874
0.571738
0.480513
0.389342
0.296428
0.200435
0.100358
-0.00434804
1.81069
1.71034
1.56182
1.40772
1.25764
1.14279
1.04201
0.942546
0.841934
0.741812
0.643972
0.548757
0.455154
0.361631
0.266693
0.169211
0.0683959
-0.0361561
1.75976
1.66628
1.52929
1.38362
1.2384
1.12464
1.02371
0.923963
0.823161
0.722546
0.62361
0.526736
0.431191
0.335751
0.239197
0.140578
0.0392312
-0.0651405
1.71251
1.62786
1.49859
1.35727
1.2153
1.10472
1.00441
0.90437
0.803259
0.702232
0.602429
0.504166
0.406939
0.309834
0.211896
0.112363
0.0106758
-0.0933908
1.66232
1.58609
1.46715
1.3311
1.18719
1.081
0.981801
0.881227
0.779597
0.678129
0.577539
0.477998
0.379173
0.280481
0.181253
0.0809552
-0.0208631
-0.124372
1.61107
1.54316
1.43286
1.29842
1.15847
1.05472
0.956314
0.854857
0.752492
0.650465
0.549098
0.448406
0.348179
0.248105
0.147804
0.0469572
-0.0547282
-0.157373
1.56077
1.49796
1.39562
1.26009
1.1285
1.02515
0.926036
0.82487
0.722196
0.619553
0.517456
0.415851
0.314567
0.213473
0.112439
0.0113607
-0.0898967
-0.191369
1.51481
1.45558
1.36113
1.22672
1.09108
0.99224
0.895195
0.793327
0.689635
0.586393
0.483817
0.381624
0.279655
0.177956
0.0766024
-0.0243362
-0.124866
-0.22495
1.47981
1.42284
1.3322
1.19827
1.06004
0.960531
0.862733
0.759847
0.655522
0.552109
0.449443
0.347028
0.244788
0.142958
0.0417843
-0.0585601
-0.158003
-0.256476
1.46376
1.40421
1.30611
1.16536
1.04431
0.942373
0.840906
0.734936
0.629217
0.525117
0.421909
0.319053
0.216603
0.114901
0.0142451
-0.0851763
-0.183272
-0.27994
1.47792
1.41301
1.30569
1.16356
1.04002
0.934415
0.830876
0.723935
0.616842
0.511237
0.406856
0.303325
0.200646
0.0990675
-0.00115806
-0.0998538
-0.196923
-0.292249
1.50738
1.43636
1.32974
1.18498
1.04156
0.9325
0.828646
0.721654
0.613369
0.506255
0.400729
0.296567
0.193652
0.0920606
-0.00806663
-0.106512
-0.203021
-0.297455
1.55088
1.47255
1.35268
1.19862
1.0522
0.941464
0.835361
0.726022
0.615906
0.507338
0.400716
0.295861
0.19258
0.0908456
-0.00920575
-0.107421
-0.203586
-0.297498
1.60592
1.51539
1.38117
1.21894
1.06529
0.950238
0.842231
0.73121
0.619507
0.509375
0.401478
0.295761
0.191938
0.0898969
-0.0101708
-0.108095
-0.203751
-0.296995
1.67475
1.568
1.41281
1.23731
1.07777
0.960916
0.852571
0.740529
0.627196
0.515495
0.406559
0.300289
0.196154
0.0939692
-0.00638596
-0.104841
-0.200416
-0.293298
1.75019
1.61794
1.43763
1.2509
1.08555
0.967052
0.857524
0.744529
0.629321
0.515776
0.40589
0.299431
0.195479
0.0936394
-0.00639528
-0.105319
-0.202232
-0.295352
1.84477
1.6794
1.46149
1.25804
1.10297
0.984623
0.87278
0.757136
0.639792
0.524652
0.413696
0.306477
0.201925
0.100144
-0.000178785
-0.0985094
-0.195084
-0.288612
1.93465
1.71983
1.4649
1.25572
1.10256
0.98558
0.871813
0.753495
0.634958
0.52029
0.410121
0.30352
0.199498
0.097466
-0.00270511
-0.100886
-0.195427
-0.287149
2.0751
1.79235
1.49488
1.27591
1.12632
1.00538
0.886185
0.764214
0.643451
0.52721
0.416096
0.309037
0.204861
0.103145
0.0036691
-0.0936738
-0.188819
-0.281208
2.13644
1.78771
1.46836
1.26562
1.12498
1.0022
0.880612
0.758332
0.638563
0.523561
0.413384
0.306924
0.203172
0.101755
0.00251423
-0.0941666
-0.188304
-0.279426
2.39551
1.85271
1.49848
1.29165
1.14516
1.01715
0.892832
0.769552
0.649458
0.534274
0.423919
0.317363
0.213562
0.112196
0.0130752
-0.0834089
-0.177331
-0.267559
2.847
2.17453
1.79448
1.61832
1.50497
1.39928
1.29297
1.19027
1.09505
1.00795
0.928376
0.853891
0.784456
0.715279
0.647901
0.561859
0.457012
0.214446
2.63738
2.14363
1.78974
1.60672
1.49299
1.38967
1.28462
1.1822
1.08675
0.99956
0.91918
0.844558
0.77271
0.704097
0.629829
0.552605
0.434083
0.285063
2.54557
2.14056
1.8028
1.60656
1.48723
1.3845
1.28026
1.17743
1.08126
0.992909
0.911667
0.834932
0.761747
0.688074
0.612406
0.524197
0.413598
0.260229
2.43546
2.10051
1.79263
1.59467
1.4716
1.3705
1.26867
1.16691
1.0704
0.981442
0.898782
0.820755
0.744367
0.667979
0.58618
0.494232
0.381062
0.239051
2.33796
2.05933
1.78623
1.59152
1.46278
1.36046
1.26021
1.15927
1.06234
0.972041
0.887831
0.807501
0.728521
0.648172
0.562486
0.466826
0.35483
0.224013
2.2486
2.01285
1.772
1.58382
1.45051
1.34599
1.24692
1.14734
1.05035
0.95895
0.873044
0.790595
0.708913
0.625218
0.536256
0.438365
0.328145
0.2038
2.16721
1.96323
1.75143
1.57344
1.43806
1.33121
1.23279
1.13458
1.03785
0.945443
0.857776
0.773103
0.688792
0.602175
0.510521
0.41122
0.302112
0.182027
2.09242
1.91184
1.72532
1.55969
1.42468
1.31571
1.21718
1.11997
1.02356
0.930213
0.840722
0.753744
0.666884
0.577657
0.4838
0.383376
0.274899
0.157732
2.02334
1.86018
1.69497
1.54235
1.40984
1.2994
1.20021
1.10355
1.00742
0.913294
0.822081
0.732881
0.643655
0.552166
0.456495
0.35516
0.2471
0.131961
1.9594
1.80916
1.66138
1.52133
1.39293
1.28196
1.18194
1.08538
0.989423
0.894652
0.801893
0.710632
0.619232
0.525765
0.428572
0.326501
0.218766
0.105179
1.90017
1.75934
1.62559
1.49705
1.3737
1.26324
1.16251
1.06571
0.969712
0.874364
0.780256
0.687136
0.593765
0.498561
0.400099
0.297469
0.190084
0.0778383
1.84976
1.71508
1.59146
1.47215
1.35395
1.24486
1.14377
1.04651
0.950249
0.854373
0.759197
0.664584
0.569615
0.473031
0.37363
0.27066
0.16367
0.0526078
1.80265
1.6729
1.55713
1.44576
1.33271
1.22561
1.12448
1.0267
0.929984
0.833554
0.73744
0.641538
0.545181
0.447412
0.347268
0.244116
0.137605
0.0277343
1.75259
1.62738
1.51825
1.41421
1.30667
1.20224
1.10149
1.00316
0.905818
0.808708
0.711651
0.614516
0.516851
0.417982
0.317207
0.214043
0.108221
-0.00021811
1.70123
1.57957
1.47565
1.37817
1.27582
1.17433
1.07433
0.975589
0.877518
0.779608
0.681605
0.583349
0.484546
0.384772
0.283564
0.180617
0.0757597
-0.0309392
1.65047
1.53117
1.43117
1.33856
1.24078
1.14219
1.04326
0.944263
0.845425
0.746639
0.647706
0.548476
0.44877
0.348378
0.247039
0.144604
0.0409991
-0.0636517
1.60377
1.48561
1.38813
1.29848
1.20342
1.10716
1.00916
0.910019
0.81045
0.710783
0.610993
0.510977
0.410648
0.309954
0.208832
0.107252
0.00520306
-0.0971796
1.56676
1.44828
1.35146
1.26257
1.16839
1.07278
0.974739
0.87507
0.774713
0.674198
0.57364
0.473017
0.372334
0.271664
0.171076
0.0706521
-0.0295617
-0.129454
1.54769
1.4269
1.32715
1.23744
1.14406
1.0463
0.945959
0.844588
0.742948
0.641365
0.539937
0.438727
0.337843
0.237435
0.137635
0.0385697
-0.0596677
-0.156951
1.56008
1.43595
1.33164
1.23677
1.13822
1.03633
0.932967
0.829436
0.726067
0.623031
0.520445
0.418462
0.317257
0.217001
0.117822
0.0198202
-0.0769353
-0.172343
1.58849
1.46087
1.35034
1.24677
1.1409
1.03549
0.93008
0.824716
0.719664
0.61511
0.511288
0.408469
0.306867
0.206609
0.107764
0.0104171
-0.0853801
-0.17956
1.62999
1.49738
1.37823
1.2655
1.15144
1.04048
0.932248
0.825411
0.718934
0.61288
0.507803
0.404178
0.30221
0.201939
0.103388
0.00656791
-0.0884746
-0.181671
1.6839
1.54332
1.41163
1.2862
1.16279
1.04716
0.936999
0.828825
0.720735
0.612997
0.506598
0.402173
0.299846
0.199542
0.101179
0.0047081
-0.0898341
-0.182386
1.74886
1.59583
1.44674
1.30635
1.17455
1.05617
0.945267
0.835855
0.725958
0.616577
0.509152
0.404274
0.301846
0.201696
0.103571
0.00744621
-0.0867523
-0.178763
1.82438
1.65172
1.47792
1.31966
1.18163
1.06261
0.951293
0.84005
0.727872
0.616861
0.508652
0.403476
0.300874
0.200473
0.102184
0.00625523
-0.0871635
-0.178145
1.91056
1.71122
1.50758
1.33362
1.19345
1.07594
0.964051
0.850309
0.735789
0.62351
0.514809
0.409371
0.306497
0.205899
0.107716
0.0118613
-0.0817003
-0.172879
2.00544
1.75935
1.51655
1.32967
1.19307
1.0791
0.96649
0.850505
0.734615
0.622074
0.513543
0.408274
0.305503
0.205103
0.107005
0.0112494
-0.0819726
-0.172657
2.1264
1.82212
1.53832
1.34262
1.2089
1.09438
0.978174
0.859234
0.741955
0.628877
0.520006
0.414426
0.311449
0.210873
0.112628
0.0168585
-0.0763185
-0.167256
2.20429
1.82751
1.51961
1.33466
1.20967
1.09555
0.977664
0.858147
0.741156
0.62843
0.519694
0.414124
0.311078
0.210454
0.112357
0.0169929
-0.0758618
-0.16599
2.43373
1.86842
1.522
1.34365
1.22104
1.10415
0.983898
0.863451
0.746178
0.63328
0.524377
0.418679
0.31557
0.214998
0.116907
0.0216638
-0.0709425
-0.16008
2.92869
2.25947
1.89141
1.728
1.62542
1.52895
1.4317
1.33933
1.25674
1.18529
1.12505
1.07482
1.03524
1.00296
0.978568
0.941903
0.88721
0.692001
2.7201
2.22907
1.88739
1.71665
1.61348
1.51929
1.42323
1.33107
1.24812
1.17636
1.11502
1.06411
1.02145
0.988568
0.955863
0.925705
0.854766
0.746904
2.6283
2.22591
1.90005
1.71627
1.60755
1.51385
1.41851
1.32584
1.24198
1.16876
1.10609
1.05229
1.0071
0.967112
0.930254
0.884273
0.815491
0.695995
2.5189
2.18627
1.8904
1.7047
1.59207
1.49976
1.40665
1.3149
1.23052
1.15634
1.09168
1.03561
0.985822
0.94094
0.894889
0.840888
0.764552
0.653033
2.42168
2.14521
1.88401
1.70157
1.58328
1.48951
1.39778
1.30667
1.22161
1.14569
1.07882
1.01943
0.965512
0.914454
0.861501
0.800117
0.721165
0.61922
2.33267
2.09898
1.87007
1.69413
1.57118
1.47495
1.38412
1.29411
1.20871
1.13124
1.06195
0.999325
0.941083
0.884439
0.825376
0.758567
0.678475
0.581378
2.25146
2.04948
1.84961
1.68381
1.55886
1.46004
1.36949
1.28056
1.19508
1.11611
1.04429
0.978253
0.915691
0.853899
0.789471
0.718464
0.636979
0.542347
2.17676
1.99817
1.82358
1.67014
1.54565
1.44443
1.35339
1.26509
1.17954
1.09909
1.02462
0.955057
0.888246
0.821676
0.752527
0.677822
0.594667
0.501155
2.10764
1.94647
1.79319
1.65286
1.53094
1.42795
1.33585
1.24769
1.16198
1.08016
1.00311
0.93009
0.859232
0.788306
0.714964
0.636918
0.552002
0.4588
2.0436
1.89531
1.75952
1.63192
1.51415
1.41033
1.31696
1.22846
1.14244
1.05933
0.979853
0.903544
0.828888
0.753979
0.676864
0.595769
0.509073
0.415728
1.98417
1.8453
1.7236
1.60769
1.49502
1.3914
1.29686
1.20763
1.12104
1.0367
0.95497
0.875593
0.797412
0.718868
0.638358
0.5545
0.466085
0.372324
1.93342
1.80091
1.68933
1.58288
1.47532
1.37274
1.27739
1.18724
1.09989
1.0144
0.930777
0.848833
0.767708
0.686157
0.602872
0.516751
0.426863
0.332622
1.88608
1.75841
1.65484
1.55657
1.45413
1.35312
1.25725
1.16612
1.07781
0.991137
0.905771
0.821508
0.737732
0.653495
0.567748
0.479631
0.38842
0.293705
1.83578
1.71235
1.61576
1.52506
1.42813
1.32928
1.23321
1.141
1.05146
0.963375
0.87615
0.789532
0.703097
0.616184
0.52802
0.437967
0.345494
0.250338
1.78379
1.66369
1.57295
1.48893
1.39704
1.30067
1.20479
1.11156
1.0206
0.930869
0.841698
0.752766
0.663785
0.574353
0.48396
0.392175
0.29864
0.20322
1.7322
1.61441
1.52796
1.44913
1.36147
1.2675
1.17208
1.07798
0.985478
0.893949
0.802777
0.711639
0.620351
0.528707
0.436427
0.343274
0.24903
0.153661
1.68444
1.56774
1.48367
1.40794
1.32329
1.23107
1.13598
1.04104
0.946997
0.853602
0.760448
0.667293
0.574037
0.480623
0.386942
0.292908
0.198422
0.103515
1.64615
1.52902
1.44524
1.37017
1.28642
1.19456
1.09908
1.00301
0.907342
0.812091
0.71705
0.622109
0.527266
0.432571
0.338034
0.243663
0.149441
0.0554308
1.62592
1.50649
1.42008
1.34278
1.25711
1.16358
1.06626
0.968263
0.870652
0.773475
0.676622
0.580093
0.483997
0.388466
0.293579
0.199393
0.105935
0.0132755
1.63625
1.51324
1.42182
1.33887
1.24808
1.15018
1.04954
0.949062
0.849384
0.750354
0.65187
0.554027
0.457003
0.360971
0.26603
0.172235
0.079603
-0.01182
1.66287
1.53593
1.43778
1.34746
1.25023
1.14766
1.04406
0.941449
0.839962
0.739266
0.639332
0.540374
0.442625
0.346227
0.251241
0.157715
0.0656565
-0.0249203
1.70336
1.57142
1.46453
1.36428
1.25843
1.1505
1.04411
0.939897
0.836876
0.734592
0.633273
0.533342
0.435042
0.338438
0.243522
0.150283
0.0587085
-0.0311735
1.75635
1.61661
1.49666
1.3831
1.26787
1.15534
1.04707
0.941547
0.836909
0.732889
0.630178
0.529374
0.430642
0.333899
0.238969
0.145827
0.0545658
-0.0348105
1.82044
1.66846
1.53078
1.40134
1.27768
1.1626
1.05375
0.94711
0.840703
0.735018
0.63122
0.529884
0.430988
0.334312
0.239642
0.146809
0.0557959
-0.0333404
1.89526
1.72372
1.56084
1.41321
1.28311
1.16761
1.05865
0.950295
0.841601
0.734255
0.629655
0.528022
0.428934
0.331986
0.237134
0.144488
0.0540839
-0.0341589
1.98032
1.78206
1.5891
1.42566
1.29288
1.17937
1.07032
0.959649
0.848621
0.739979
0.634856
0.532948
0.433661
0.336608
0.241742
0.149047
0.0585054
-0.0299303
2.07453
1.82947
1.59743
1.42077
1.29144
1.18175
1.07229
0.95947
0.847037
0.738083
0.633101
0.531343
0.432104
0.335196
0.240532
0.148073
0.0578033
-0.0302055
2.1933
1.89014
1.61692
1.43202
1.306
1.19625
1.08347
0.967765
0.853917
0.74438
0.639011
0.536882
0.437336
0.340188
0.245357
0.152909
0.0627009
-0.0255315
2.271
1.8955
1.59898
1.42452
1.30701
1.19759
1.08311
0.966796
0.85321
0.744031
0.638847
0.536803
0.437307
0.340236
0.245493
0.153319
0.0635014
-0.023799
2.49729
1.93453
1.5987
1.43227
1.31787
1.20584
1.08894
0.971626
0.857711
0.748306
0.642884
0.540637
0.440975
0.343817
0.249004
0.15689
0.0672156
-0.0192251
3.00105
2.33803
1.97634
1.81904
1.72263
1.63287
1.54313
1.45927
1.38617
1.32542
1.27701
1.2406
1.21671
1.20457
1.20493
1.20428
1.19461
1.06285
2.7931
2.30763
1.97227
1.80768
1.71065
1.62313
1.53454
1.45085
1.37735
1.31619
1.26668
1.22931
1.20237
1.18874
1.1807
1.18292
1.15473
1.09281
2.70147
2.30445
1.98488
1.80724
1.70465
1.61758
1.52965
1.44538
1.37088
1.30816
1.25714
1.21668
1.1868
1.16537
1.15153
1.13481
1.10143
1.01955
2.5925
2.26488
1.97519
1.79565
1.68912
1.60337
1.51761
1.43416
1.35906
1.29521
1.24203
1.19896
1.16406
1.13672
1.11191
1.08366
1.03727
0.956593
2.49553
2.22387
1.96869
1.79239
1.68021
1.59296
1.50848
1.42556
1.34965
1.28389
1.22828
1.18151
1.14191
1.10734
1.07371
1.03489
0.981342
0.905548
2.40682
2.17772
1.9547
1.78487
1.668
1.57822
1.49453
1.41258
1.33617
1.26866
1.21035
1.15993
1.11535
1.0741
1.03253
0.985557
0.927309
0.85277
2.32589
2.12834
1.93419
1.77442
1.65551
1.56305
1.47954
1.3985
1.32184
1.25258
1.19141
1.1371
1.08749
1.04001
0.991404
0.937859
0.87527
0.80023
2.25145
2.07712
1.90811
1.76061
1.64209
1.54714
1.46299
1.38242
1.30547
1.23446
1.17027
1.11191
1.05732
1.00401
0.949201
0.889941
0.823234
0.746815
2.18257
2.02553
1.87768
1.74316
1.62714
1.53031
1.44495
1.36431
1.28696
1.21426
1.14708
1.08471
1.02531
0.966662
0.90634
0.842033
0.771528
0.69327
2.1187
1.97444
1.84398
1.72203
1.61005
1.51226
1.42547
1.34427
1.26632
1.192
1.12196
1.05571
0.991768
0.928193
0.862936
0.794149
0.720172
0.639935
2.05947
1.92451
1.808
1.69759
1.59056
1.49283
1.40468
1.32252
1.24369
1.16776
1.09501
1.02512
0.956913
0.888813
0.819121
0.746359
0.669262
0.587068
2.00893
1.88017
1.77366
1.67255
1.5705
1.47365
1.38449
1.30118
1.22129
1.14385
1.06877
0.995776
0.923983
0.852112
0.77878
0.702793
0.623155
0.53929
1.96185
1.83773
1.73908
1.646
1.54892
1.45345
1.36357
1.27902
1.19787
1.11887
1.0416
0.965779
0.890722
0.815448
0.738861
0.660018
0.578136
0.492783
1.91182
1.79172
1.69988
1.61416
1.52241
1.42886
1.33853
1.25259
1.16985
1.08901
1.00938
0.930627
0.852247
0.773548
0.693714
0.61205
0.527976
0.441201
1.86004
1.74312
1.65686
1.57754
1.49063
1.39931
1.30887
1.22155
1.13695
1.05397
0.971847
0.890153
0.808534
0.726545
0.643641
0.559355
0.473292
0.385296
1.80841
1.69383
1.61158
1.53715
1.45421
1.36497
1.27463
1.18599
1.09938
1.01407
0.929334
0.844783
0.760148
0.675181
0.589566
0.503045
0.41538
0.326517
1.76056
1.64687
1.56682
1.4951
1.41497
1.3272
1.23674
1.14678
1.05808
0.970313
0.882979
0.795745
0.708437
0.620948
0.533147
0.444931
0.356186
0.266932
1.7219
1.60748
1.52746
1.45637
1.37671
1.28894
1.19768
1.10609
1.01522
0.925017
0.835177
0.745504
0.655931
0.566465
0.47709
0.387802
0.298574
0.209463
1.70086
1.58405
1.50109
1.42738
1.34546
1.25572
1.16232
1.06842
0.975121
0.882428
0.790178
0.698309
0.606865
0.51593
0.425563
0.335814
0.246709
0.158328
1.71021
1.58956
1.50125
1.4219
1.33461
1.24037
1.14349
1.04687
0.951175
0.856258
0.761983
0.668392
0.57562
0.483794
0.392981
0.303224
0.214546
0.126997
1.7357
1.61116
1.51639
1.42981
1.33587
1.23668
1.13652
1.03756
0.939875
0.843087
0.747131
0.652185
0.55845
0.466033
0.374965
0.285263
0.196935
0.110002
1.77503
1.64557
1.54205
1.44554
1.34325
1.2387
1.13572
1.03493
0.935503
0.836967
0.739477
0.643402
0.548951
0.456158
0.365002
0.27544
0.187465
0.101101
1.82713
1.69004
1.57338
1.4633
1.35189
1.24289
1.138
1.03584
0.93468
0.834285
0.735276
0.638204
0.543195
0.450161
0.358923
0.269401
0.181645
0.0956833
1.89029
1.74114
1.60712
1.4815
1.3612
1.24936
1.14387
1.04063
0.937732
0.835649
0.735498
0.637821
0.542563
0.449532
0.358441
0.269154
0.181645
0.0959138
1.96423
1.79568
1.63676
1.49318
1.36637
1.25403
1.14834
1.04337
0.938184
0.834403
0.733394
0.635371
0.539883
0.446519
0.355252
0.266103
0.179141
0.0942724
2.04835
1.85331
1.66443
1.50489
1.37596
1.26567
1.1598
1.05248
0.944926
0.83982
0.738254
0.639917
0.544198
0.450716
0.359365
0.270155
0.183052
0.097979
2.14159
1.90032
1.67277
1.50022
1.37435
1.26787
1.16158
1.0521
0.943124
0.837679
0.736235
0.638027
0.54233
0.448947
0.357823
0.26885
0.182003
0.0973451
2.25928
1.96043
1.69215
1.51134
1.38873
1.28216
1.17262
1.06027
0.949877
0.843843
0.742007
0.643418
0.547408
0.453798
0.362496
0.273516
0.18672
0.101829
2.33637
1.9657
1.67425
1.50382
1.38968
1.28347
1.17224
1.05927
0.949127
0.843442
0.741779
0.643272
0.547301
0.453745
0.362524
0.273831
0.187416
0.103438
2.56104
2.00459
1.67401
1.51154
1.40047
1.29168
1.17804
1.06408
0.953604
0.847692
0.745791
0.647081
0.550944
0.457297
0.366013
0.277381
0.191112
0.107993
3.04775
2.39227
2.02805
1.86603
1.76675
1.67648
1.58744
1.50409
1.43057
1.36804
1.31625
1.27379
1.24055
1.21344
1.1925
1.16083
1.11328
0.935829
2.83999
2.36135
2.0231
1.8544
1.7547
1.66672
1.57883
1.49567
1.4218
1.35895
1.30615
1.26305
1.22712
1.19938
1.17112
1.14464
1.08154
0.983558
2.74871
2.35831
2.03611
1.85415
1.74881
1.66132
1.57411
1.49037
1.41555
1.35126
1.29712
1.25127
1.21303
1.17886
1.1468
1.10559
1.04312
0.933764
2.63986
2.31841
2.02574
1.84217
1.73308
1.64708
1.56209
1.47922
1.40381
1.33849
1.28242
1.23441
1.19186
1.15314
1.1124
1.06344
0.992964
0.889024
2.54302
2.27743
2.01917
1.83876
1.72407
1.63669
1.55308
1.47076
1.39461
1.32749
1.26921
1.21794
1.17143
1.1268
1.0794
1.02307
0.949213
0.85237
2.45461
2.23124
2.00482
1.8309
1.71157
1.62183
1.53914
1.45788
1.38127
1.31252
1.25178
1.19731
1.14658
1.09654
1.04315
0.981281
0.90558
0.812129
2.37401
2.18193
1.98415
1.82023
1.6988
1.60657
1.52424
1.44396
1.36714
1.29675
1.23339
1.17549
1.12049
1.0654
1.00667
0.940419
0.862814
0.771094
2.3
2.13092
1.95797
1.80616
1.68505
1.59052
1.50773
1.42801
1.35096
1.27893
1.21279
1.15131
1.09204
1.0322