/*--------------------------------*- C++ -*----------------------------------*\
| =========                 |                                                 |
| \\      /  F ield         | OpenFOAM: The Open Source CFD Toolbox           |
|  \\    /   O peration     | Version:  2112                                  |
|   \\  /    A nd           | Website:  www.openfoam.com                      |
|    \\/     M anipulation  |                                                 |
\*---------------------------------------------------------------------------*/
FoamFile
{
    version     2.0;
    format      ascii;
    arch        "LSB;label=32;scalar=64";
    class       volScalarField;
    location    "0.16";
    object      s_0;
}
// * * * * * * * * * * * * * * * * * * * * * * * * * * * * * * * * * * * * * //

dimensions      [0 0 0 0 0 0 0];

internalField   nonuniform List<scalar> 
122250
(
1
1
1
1
1
1
1
1
1
1
1
1
1
1
1
1
1
1
1
1
1
1
1
1
1
1
1
1
1
1
1
1
1
1
1
1
1
1
1
1
1
1
1
1
1
1
1
1
1
1
1
1
1
1
1
1
1
1
1
1
1
1
1
1
1
1
1
1
1
1
1
1
1
1
1
1
1
1
1
1
1
1
1
1
1
1
1
1
1
1
1
1
1
1
1
1
1
1
1
1
1
1
1
1
1
1
1
1
1
1
1
1
1
1
1
1
1
1
1
1
1
1
1
1
1
1
1
1
1
1
1
1
1
1
1
1
1
1
1
1
1
1
1
1
1
1
1
1
1
1
1
1
1
1
1
1
1
1
1
1
1
1
1
1
1
1
1
1
1
1
1
1
1
1
1
1
1
1
1
1
1
1
1
1
1
1
1
1
1
1
1
1
1
1
1
1
1
1
1
1
1
1
1
1
1
1
1
1
1
1
1
1
1
1
1
1
1
1
1
1
1
1
1
1
1
1
1
1
1
1
1
1
1
1
1
1
1
1
1
1
1
1
1
1
1
1
1
1
1
1
1
1
1
1
1
1
1
1
1
1
1
1
1
1
1
1
1
1
1
1
1
1
1
1
1
1
1
1
1
1
1
1
1
1
1
1
1
1
1
1
1
1
1
1
1
1
1
1
1
1
1
1
1
1
1
1
1
1
1
1
1
1
1
1
1
1
1
1
1
1
1
1
1
1
1
1
1
1
1
1
1
1
1
1
1
1
1
1
1
1
1
1
1
1
1
1
1
1
1
1
1
1
1
1
1
1
1
1
1
1
1
1
1
1
1
1
1
1
1
1
1
1
1
1
1
1
1
1
1
1
1
1
1
1
1
1
1
1
1
1
1
1
1
1
1
1
1
1
1
1
1
1
1
1
1
1
1
1
1
1
1
1
1
1
1
1
1
1
1
1
1
1
1
1
1
1
1
1
1
1
1
1
1
1
1
1
1
1
1
1
1
1
1
1
1
1
1
1
1
1
1
1
1
1
1
1
1
1
1
1
1
1
1
1
1
1
1
1
1
1
1
1
1
1
1
1
1
1
1
1
1
1
1
1
1
1
1
1
1
1
1
1
1
1
1
1
1
1
1
1
1
1
1
1
1
1
1
1
1
1
1
1
1
1
1
1
1
1
1
1
1
1
1
1
1
1
1
1
1
1
1
1
1
1
1
1
1
1
1
1
1
1
1
1
1
1
1
1
1
1
1
1
1
1
1
1
1
1
1
1
1
1
1
1
1
1
1
1
1
1
1
1
1
1
1
1
1
1
1
1
1
1
1
1
1
1
1
1
1
1
1
1
1
1
1
1
1
1
1
1
1
1
1
1
1
1
1
1
1
1
1
1
1
1
1
1
1
1
1
1
1
1
1
1
1
1
1
1
1
1
1
1
1
1
1
1
1
1
1
1
1
1
1
1
1
1
1
1
1
1
1
1
1
1
1
1
1
1
1
1
1
1
1
1
1
1
1
1
1
1
1
1
1
1
1
1
1
1
1
1
1
1
1
1
1
1
1
1
1
1
1
1
1
1
1
1
1
1
1
1
1
1
1
1
1
1
1
1
1
1
1
1
1
1
1
1
1
1
1
1
1
1
1
1
1
1
1
1
1
1
1
1
1
1
1
1
1
1
1
1
1
1
1
1
1
1
1
1
1
1
1
1
1
1
1
1
1
1
1
1
1
1
1
1
1
1
1
1
1
1
1
1
1
1
1
1
1
1
1
1
1
1
1
1
1
1
1
1
1
1
1
1
1
1
1
1
1
1
1
1
1
1
1
1
1
1
1
1
1
1
1
1
1
1
1
1
1
1
1
1
1
1
1
1
1
1
1
1
1
1
1
1
1
1
1
1
1
1
1
1
1
1
1
1
1
1
1
1
1
1
1
1
1
1
1
1
1
1
1
1
1
1
1
1
1
1
1
1
1
1
1
1
1
1
1
1
1
1
1
1
1
1
1
1
1
1
1
1
1
1
1
1
1
1
1
1
1
1
1
1
1
1
1
1
1
1
1
1
1
1
1
1
1
1
1
1
1
1
1
1
1
1
1
1
1
1
1
1
1
1
1
1
1
1
1
1
1
1
1
1
1
1
1
1
1
1
1
1
1
1
1
1
1
1
1
1
1
1
1
1
1
1
1
1
1
1
1
1
1
1
1
1
1
1
1
1
1
1
1
1
1
1
1
1
1
1
1
1
1
1
1
1
1
1
1
1
1
1
1
1
1
1
1
1
1
1
1
1
1
1
1
1
1
1
1
1
1
1
1
1
1
1
1
1
1
1
1
1
1
1
1
1
1
1
1
1
1
1
1
1
1
1
1
1
1
1
1
1
1
1
1
1
1
1
1
1
1
1
1
1
1
1
1
1
1
1
1
1
1
1
1
1
1
1
1
1
1
1
1
1
1
1
1
1
1
1
1
1
1
1
1
1
1
1
1
1
1
1
1
1
1
1
1
1
1
1
1
1
1
1
1
1
1
1
1
1
1
1
1
1
1
1
1
1
1
1
1
1
1
1
1
1
1
1
1
1
1
1
1
1
1
1
1
1
1
1
1
1
1
1
1
1
1
1
1
1
1
1
1
1
1
1
1
1
1
1
1
1
1
1
1
1
1
1
1
1
1
1
1
1
1
1
1
1
1
1
1
1
1
1
1
1
1
1
1
1
1
1
1
1
1
1
1
1
1
1
1
1
1
1
1
1
1
1
1
1
1
1
1
1
1
1
1
1
1
1
1
1
1
1
1
1
1
1
1
1
1
1
1
1
1
1
1
1
1
1
1
1
1
1
1
1
1
1
1
1
1
1
1
1
1
1
1
1
1
1
1
1
1
1
1
1
1
1
1
1
1
1
1
1
1
1
1
1
1
1
1
1
1
1
1
1
1
1
1
1
1
1
1
1
1
1
1
1
1
1
1
1
1
1
1
1
1
1
1
1
1
1
1
1
1
1
1
1
1
1
1
1
1
1
1
1
1
1
1
1
1
1
1
1
1
1
1
1
1
1
1
1
1
1
1
1
1
1
1
1
1
1
1
1
1
1
1
1
1
1
1
1
1
1
1
1
1
1
1
1
1
1
1
1
1
1
1
1
1
1
1
1
1
1
1
1
1
1
1
1
1
1
1
1
1
1
1
1
1
1
1
1
1
1
1
1
1
1
1
1
1
1
1
1
1
1
1
1
1
1
1
1
1
1
1
1
1
1
1
1
1
1
1
1
1
1
1
1
1
1
1
1
1
1
1
1
1
1
1
1
1
1
1
1
1
1
1
1
1
1
1
1
1
1
1
1
1
1
1
1
1
1
1
1
1
1
1
1
1
1
1
1
1
1
1
1
1
1
1
1
1
1
1
1
1
1
1
1
1
1
1
1
1
1
1
1
1
1
1
1
1
1
1
1
1
1
1
1
1
1
1
1
1
1
1
1
1
1
1
1
1
1
1
1
1
1
1
1
1
1
1
1
1
1
1
1
1
1
1
1
1
1
1
1
1
1
1
1
1
1
1
1
1
1
1
1
1
1
1
1
1
1
1
1
1
1
1
1
1
1
1
1
1
1
1
1
1
1
1
1
1
1
1
1
1
1
1
1
1
1
1
1
1
1
1
1
1
1
1
1
1
1
1
1
1
1
1
1
1
1
1
1
1
1
1
1
1
1
1
1
1
1
1
1
1
1
1
1
1
1
1
1
1
1
1
1
1
1
1
1
1
1
1
1
1
1
1
1
1
1
1
1
1
1
1
1
1
1
1
1
1
1
1
1
1
1
1
1
1
1
1
1
1
1
1
1
1
1
1
1
1
1
1
1
1
1
1
1
1
1
1
1
1
1
1
1
1
1
1
1
1
1
1
1
1
1
1
1
1
1
1
1
1
1
1
1
1
1
1
1
1
1
1
1
1
1
1
1
1
1
1
1
1
1
1
1
1
1
1
1
1
1
1
1
1
1
1
1
1
1
1
1
1
1
1
1
1
1
1
1
1
1
1
1
1
1
1
1
1
1
1
1
1
1
1
1
1
1
1
1
1
1
1
1
1
1
1
1
1
1
1
1
1
1
1
1
1
1
1
1
1
1
1
1
1
1
1
1
1
1
1
1
1
1
1
1
1
1
1
1
1
1
1
1
1
1
1
1
1
1
1
1
1
1
1
1
1
1
1
1
1
1
1
1
1
1
1
1
1
1
1
1
1
1
1
1
1
1
1
1
1
1
1
1
1
1
1
1
1
1
1
1
1
1
1
1
1
1
1
1
1
1
1
1
1
1
1
1
1
1
1
1
1
1
1
1
1
1
1
1
1
1
1
1
1
1
1
1
1
1
1
1
1
1
1
1
1
1
1
1
1
1
1
1
1
1
1
1
1
1
1
1
1
1
1
1
1
1
1
1
1
1
1
1
1
1
1
1
1
1
1
1
1
1
1
1
1
1
1
1
1
1
1
1
1
1
1
1
1
1
1
1
1
1
1
1
1
1
1
1
1
1
1
1
1
1
1
1
1
1
1
1
1
1
1
1
1
1
1
1
1
1
1
1
1
1
1
1
1
1
1
1
1
1
1
1
1
1
1
1
1
1
1
1
1
1
1
1
1
1
1
1
1
1
1
1
1
1
1
1
1
1
1
1
1
1
1
1
1
1
1
1
1
1
1
1
1
1
1
1
1
1
1
1
1
1
1
1
1
1
1
1
1
1
1
1
1
1
1
1
1
1
1
1
1
1
1
1
1
1
1
1
1
1
1
1
1
1
1
1
1
1
1
1
1
1
1
1
1
1
1
1
1
1
1
1
1
1
1
1
1
1
1
1
1
1
1
1
1
1
1
1
1
1
1
1
1
1
1
1
1
1
1
1
1
1
1
1
1
1
1
1
1
1
1
1
1
1
1
1
1
1
1
1
1
1
1
1
1
1
1
1
1
1
1
1
1
1
1
1
1
1
1
1
1
1
1
1
1
1
1
1
1
1
1
1
1
1
1
1
1
1
1
1
1
1
1
1
1
1
1
1
1
1
1
1
1
1
1
1
1
1
1
1
1
1
1
1
1
1
1
1
1
1
1
1
1
1
1
1
1
1
1
1
1
1
1
1
1
1
1
1
1
1
1
1
1
1
1
1
1
1
1
1
1
1
1
1
1
1
1
1
1
1
1
1
1
1
1
1
1
1
1
1
1
1
1
1
1
1
1
1
1
1
1
1
1
1
1
1
1
1
1
1
1
1
1
1
1
1
1
1
1
1
1
1
1
1
1
1
1
1
1
1
1
1
1
1
1
1
1
1
1
1
1
1
1
1
1
1
1
1
1
1
1
1
1
1
1
1
1
1
1
1
1
1
1
1
1
1
1
1
1
1
1
1
1
1
1
1
1
1
1
1
1
1
1
1
1
1
1
1
1
1
1
1
1
1
1
1
1
1
1
1
1
1
1
1
1
1
1
1
1
1
1
1
1
1
1
1
1
1
1
1
1
1
1
1
1
1
1
1
1
1
1
1
1
1
1
1
1
1
1
1
1
1
1
1
1
1
1
1
1
1
1
1
1
1
1
1
1
1
1
1
1
1
1
1
1
1
1
1
1
1
1
1
1
1
1
1
1
1
1
1
1
1
1
1
1
1
1
1
1
1
1
1
1
1
1
1
1
1
1
1
1
1
1
1
1
1
1
1
1
1
1
1
1
1
1
1
1
1
1
1
1
1
1
1
1
1
1
1
1
1
1
1
1
1
1
1
1
1
1
1
1
1
1
1
1
1
1
1
1
1
1
1
1
1
1
1
1
1
1
1
1
1
1
1
1
1
1
1
1
1
1
1
1
1
1
1
1
1
1
1
1
1
1
1
1
1
1
1
1
1
1
1
1
1
1
1
1
1
1
1
1
1
1
1
1
1
1
1
1
1
1
1
1
1
1
1
1
1
1
1
1
1
1
1
1
1
1
1
1
1
1
1
1
1
1
1
1
1
1
1
1
1
1
1
1
1
1
1
1
1
1
1
1
1
1
1
1
1
1
1
1
1
1
1
1
1
1
1
1
1
1
1
1
1
1
1
1
1
1
1
1
1
1
1
1
1
1
1
1
1
1
1
1
1
1
1
1
1
1
1
1
1
1
1
1
1
1
1
1
1
1
1
1
1
1
1
1
1
1
1
1
1
1
1
1
1
1
1
1
1
1
1
1
1
1
1
1
1
1
1
1
1
1
1
1
1
1
1
1
1
1
1
1
1
1
1
1
1
1
1
1
1
1
1
1
1
1
1
1
1
1
1
1
1
1
1
1
1
1
1
1
1
1
1
1
1
1
1
1
1
1
1
1
1
1
1
1
1
1
1
1
1
1
1
1
1
1
1
1
1
1
1
1
1
1
1
1
1
1
1
1
1
1
1
1
1
1
1
1
1
1
1
1
1
1
1
1
1
1
1
1
1
1
1
1
1
1
1
1
1
1
1
1
1
1
1
1
1
1
1
1
1
1
1
1
1
1
1
1
1
1
1
1
1
1
1
1
1
1
1
1
1
1
1
1
1
1
1
1
1
1
1
1
1
1
1
1
1
1
1
1
1
1
1
1
1
1
1
1
1
1
1
1
1
1
1
1
1
1
1
1
1
1
1
1
1
1
1
1
1
1
1
1
1
1
1
1
1
1
1
1
1
1
1
1
1
1
1
1
1
1
1
1
1
1
1
1
1
1
1
1
1
1
1
1
1
1
1
1
1
1
1
1
1
1
1
1
1
1
1
1
1
1
1
1
1
1
1
1
1
1
1
1
1
1
1
1
1
1
1
1
1
1
1
1
1
1
1
1
1
1
1
1
1
1
1
1
1
1
1
1
1
1
1
1
1
1
1
1
1
1
1
1
1
1
1
1
1
1
1
1
1
1
1
1
1
1
1
1
1
1
1
1
1
1
1
1
1
1
1
1
1
1
1
1
1
1
1
1
1
1
1
1
1
1
1
1
1
1
1
1
1
1
1
1
1
1
1
1
1
1
1
1
1
1
1
1
1
1
1
1
1
1
1
1
1
1
1
1
1
1
1
1
1
1
1
1
1
1
1
1
1
1
1
1
1
1
1
1
1
1
1
1
1
1
1
1
1
1
1
1
1
1
1
1
1
1
1
1
1
1
1
1
1
1
1
1
1
1
1
1
1
1
1
1
1
1
1
1
1
1
1
1
1
1
1
1
1
1
1
1
1
1
1
1
1
1
1
1
1
1
1
1
1
1
1
1
1
1
1
1
1
1
1
1
1
1
1
1
1
1
1
1
1
1
1
1
1
1
1
1
1
1
1
1
1
1
1
1
1
1
1
1
1
1
1
1
1
1
1
1
1
1
1
1
1
1
1
1
1
1
1
1
1
1
1
1
1
1
1
1
1
1
1
1
1
1
1
1
1
1
1
1
1
1
1
1
1
1
1
1
1
1
1
1
1
1
1
1
1
1
1
1
1
1
1
1
1
1
1
1
1
1
1
1
1
1
1
1
1
1
1
1
1
1
1
1
1
1
1
1
1
1
1
1
1
1
1
1
1
1
1
1
1
1
1
1
1
1
1
1
1
1
1
1
1
1
1
1
1
1
1
1
1
1
1
1
1
1
1
1
1
1
1
1
1
1
1
1
1
1
1
1
1
1
1
1
1
1
1
1
1
1
1
1
1
1
1
1
1
1
1
1
1
1
1
1
1
1
1
1
1
1
1
1
1
1
1
1
1
1
1
1
1
1
1
1
1
1
1
1
1
1
1
1
1
1
1
1
1
1
1
1
1
1
1
1
1
1
1
1
1
1
1
1
1
1
1
1
1
1
1
1
1
1
1
1
1
1
1
1
1
1
1
1
1
1
1
1
1
1
1
1
1
1
1
1
1
1
1
1
1
1
1
1
1
1
1
1
1
1
1
1
1
1
1
1
1
1
1
1
1
1
1
1
1
1
1
1
1
1
1
1
1
1
1
1
1
1
1
1
1
1
1
1
1
1
1
1
1
1
1
1
1
1
1
1
1
1
1
1
1
1
1
1
1
1
1
1
1
1
1
1
1
1
1
1
1
1
1
1
1
1
1
1
1
1
1
1
1
1
1
1
1
1
1
1
1
1
1
1
1
1
1
1
1
1
1
1
1
1
1
1
1
1
1
1
1
1
1
1
1
1
1
1
1
1
1
1
1
1
1
1
1
1
1
1
1
1
1
1
1
1
1
1
1
1
1
1
1
1
1
1
1
1
1
1
1
1
1
1
1
1
1
1
1
1
1
1
1
1
1
1
1
1
1
1
1
1
1
1
1
1
1
1
1
1
1
1
1
1
1
1
1
1
1
1
1
1
1
1
1
1
1
1
1
1
1
1
1
1
1
1
1
1
1
1
1
1
1
1
1
1
1
1
1
1
1
1
1
1
1
1
1
1
1
1
1
1
1
1
1
1
1
1
1
1
1
1
1
1
1
1
1
1
1
1
1
1
1
1
1
1
1
1
1
1
1
1
1
1
1
1
1
1
1
1
1
1
1
1
1
1
1
1
1
1
1
1
1
1
1
1
1
1
1
1
1
1
1
1
1
1
1
1
1
1
1
1
1
1
1
1
1
1
1
1
1
1
1
1
1
1
1
1
1
1
1
1
1
1
1
1
1
1
1
1
1
1
1
1
1
1
1
1
1
1
1
1
1
1
1
1
1
1
1
1
1
1
1
1
1
1
1
1
1
1
1
1
1
1
1
1
1
1
1
1
1
1
1
1
1
1
1
1
1
1
1
1
1
1
1
1
1
1
1
1
1
1
1
1
1
1
1
1
1
1
1
1
1
1
1
1
1
1
1
1
1
1
1
1
1
1
1
1
1
1
1
1
1
1
1
1
1
1
1
1
1
1
1
1
1
1
1
1
1
1
1
1
1
1
1
1
1
1
1
1
1
1
1
1
1
1
1
1
1
1
1
1
1
1
1
1
1
1
1
1
1
1
1
1
1
1
1
1
1
1
1
1
1
1
1
1
1
1
1
1
1
1
1
1
1
1
1
1
1
1
1
1
1
1
1
1
1
1
1
1
1
1
1
1
1
1
1
1
1
1
1
1
1
1
1
1
1
1
1
1
1
1
1
1
1
1
1
1
1
1
1
1
1
1
1
1
1
1
1
1
1
1
1
1
1
1
1
1
1
1
1
1
1
1
1
1
1
1
1
1
1
1
1
1
1
1
1
1
1
1
1
1
1
1
1
1
1
1
1
1
1
1
1
1
1
1
1
1
1
1
1
1
1
1
1
1
1
1
1
1
1
1
1
1
1
1
1
1
1
1
1
1
1
1
1
1
1
1
1
1
1
1
1
1
1
1
1
1
1
1
1
1
1
1
1
1
1
1
1
1
1
1
1
1
1
1
1
1
1
1
1
1
1
1
1
1
1
1
1
1
1
1
1
1
1
1
1
1
1
1
1
1
1
1
1
1
1
1
1
1
1
1
1
1
1
1
1
1
1
1
1
1
1
1
1
1
1
1
1
1
1
1
1
1
1
1
1
1
1
1
1
1
1
1
1
1
1
1
1
1
1
1
1
1
1
1
1
1
1
1
1
1
1
1
1
1
1
1
1
1
1
1
1
1
1
1
1
1
1
1
1
1
1
1
1
1
1
1
1
1
1
1
1
1
1
1
1
1
1
1
1
1
1
1
1
1
1
1
1
1
1
1
1
1
1
1
1
1
1
1
1
1
1
1
1
1
1
1
1
1
1
1
1
1
1
1
1
1
1
1
1
1
1
1
1
1
1
1
1
1
1
1
1
1
1
1
1
1
1
1
1
1
1
1
1
1
1
1
1
1
1
1
1
1
1
1
1
1
1
1
1
1
1
1
1
1
1
1
1
1
1
1
1
1
1
1
1
1
1
1
1
1
1
1
1
1
1
1
1
1
1
1
1
1
1
1
1
1
1
1
1
1
1
1
1
1
1
1
1
1
1
1
1
1
1
1
1
1
1
1
1
1
1
1
1
1
1
1
1
1
1
1
1
1
1
1
1
1
1
1
1
1
1
1
1
1
1
1
1
1
1
1
1
1
1
1
1
1
1
1
1
1
1
1
1
1
1
1
1
1
1
1
1
1
1
1
1
1
1
1
1
1
1
1
1
1
1
1
1
1
1
1
1
1
1
1
1
1
1
1
1
1
1
1
1
1
1
1
1
1
1
1
1
1
1
1
1
1
1
1
1
1
1
1
1
1
1
1
1
1
1
1
1
1
1
1
1
1
1
1
1
1
1
1
1
1
1
1
1
1
1
1
1
1
1
1
1
1
1
1
1
1
1
1
1
1
1
1
1
1
1
1
1
1
1
1
1
1
1
1
1
1
1
1
1
1
1
1
1
1
1
1
1
1
1
1
1
1
1
1
1
1
1
1
1
1
1
1
1
1
1
1
1
1
1
1
1
1
1
1
1
1
1
1
1
1
1
1
1
1
1
1
1
1
1
1
1
1
1
1
1
1
1
1
1
1
1
1
1
1
1
1
1
1
1
1
1
1
1
1
1
1
1
1
1
1
1
1
1
1
1
1
1
1
1
1
1
1
1
1
1
1
1
1
1
1
1
1
1
1
1
1
1
1
1
1
1
1
1
1
1
1
1
1
1
1
1
1
1
1
1
1
1
1
1
1
1
1
1
1
1
1
1
1
1
1
1
1
1
1
1
1
1
1
1
1
1
1
1
1
1
1
1
1
1
1
1
1
1
1
1
1
1
1
1
1
1
1
1
1
1
1
1
1
1
1
1
1
1
1
1
1
1
1
1
1
1
1
1
1
1
1
1
1
1
1
1
1
1
1
1
1
1
1
1
1
1
1
1
1
1
1
1
1
1
1
1
1
1
1
1
1
1
1
1
1
1
1
1
1
1
1
1
1
1
1
1
1
1
1
1
1
1
1
1
1
1
1
1
1
1
1
1
1
1
1
1
1
1
1
1
1
1
1
1
1
1
1
1
1
1
1
1
1
1
1
1
1
1
1
1
1
1
1
1
1
1
1
1
1
1
1
1
1
1
1
1
1
1
1
1
1
1
1
1
1
1
1
1
1
1
1
1
1
1
1
1
1
1
1
1
1
1
1
1
1
1
1
1
1
1
1
1
1
1
1
1
1
1
1
1
1
1
1
1
1
1
1
1
1
1
1
1
1
1
1
1
1
1
1
1
1
1
1
1
1
1
1
1
1
1
1
1
1
1
1
1
1
1
1
1
1
1
1
1
1
1
1
1
1
1
1
1
1
1
1
1
1
1
1
1
1
1
1
1
1
1
1
1
1
1
1
1
1
1
1
1
1
1
1
1
1
1
1
1
1
1
1
1
1
1
1
1
1
1
1
1
1
1
1
1
1
1
1
1
1
1
1
1
1
1
1
1
1
1
1
1
1
1
1
1
1
1
1
1
1
1
1
1
1
1
1
1
1
1
1
1
1
1
1
1
1
1
1
1
1
1
1
1
1
1
1
1
1
1
1
1
1
1
1
1
1
1
1
1
1
1
1
1
1
1
1
1
1
1
1
1
1
1
1
1
1
1
1
1
1
1
1
1
1
1
1
1
1
1
1
1
1
1
1
1
1
1
1
1
1
1
1
1
1
1
1
1
1
1
1
1
1
1
1
1
1
1
1
1
1
1
1
1
1
1
1
1
1
1
1
1
1
1
1
1
1
1
1
1
1
1
1
1
1
1
1
1
1
1
1
1
1
1
1
1
1
1
1
1
1
1
1
1
1
1
1
1
1
1
1
1
1
1
1
1
1
1
1
1
1
1
1
1
1
1
1
1
1
1
1
1
1
1
1
1
1
1
1
1
1
1
1
1
1
1
1
1
1
1
1
1
1
1
1
1
1
1
1
1
1
1
1
1
1
1
1
1
1
1
1
1
1
1
1
1
1
1
1
1
1
1
1
1
1
1
1
1
1
1
1
1
1
1
1
1
1
1
1
1
1
1
1
1
1
1
1
1
1
1
1
1
1
1
1
1
1
1
1
1
1
1
1
1
1
1
1
1
1
1
1
1
1
1
1
1
1
1
1
1
1
1
1
1
1
1
1
1
1
1
1
1
1
1
1
1
1
1
1
1
1
1
1
1
1
1
1
1
1
1
1
1
1
1
1
1
1
1
1
1
1
1
1
1
1
1
1
1
1
1
1
1
1
1
1
1
1
1
1
1
1
1
1
1
1
1
1
1
0.918926
0.917615
0.914806
0.91203
0.913702
0.925526
0.937012
0.942343
0.944611
0.945748
0.94653
0.946876
0.947095
0.947173
0.947145
0.946664
0.945817
0.944838
0.943415
0.94213
0.940822
0.939372
0.938127
0.937028
0.936527
0.936111
0.93583
0.935329
0.934705
0.934004
0.932924
0.930553
0.926398
0.920706
0.913415
0.904572
0.893018
0.884299
0.88204
0.881593
0.88385
0.890159
0.891692
0.89249
0.897217
0.901718
0.912051
0.919241
0.923886
0.928262
0.930462
0.930901
0.931576
0.9329
0.933474
0.933687
0.935029
0.94158
0.948555
0.950688
0.95206
0.954331
0.955158
0.95484
0.953704
0.95224
0.951045
0.950184
0.949417
0.948712
0.948321
0.948217
0.948204
0.948219
0.94829
0.948431
0.948623
0.948822
0.948953
0.948995
0.948999
0.948951
0.948919
0.948957
0.949055
0.949199
0.949449
0.949915
0.95072
0.951922
0.953337
0.954601
0.955108
0.955184
0.954765
0.954134
0.951872
0.950357
0.947314
0.914088
0.902174
0.904837
0.906931
0.907588
0.907885
0.90984
0.924133
0.932961
0.92742
0.916311
0.912728
0.916438
0.950006
0.972805
0.97357
0.973771
0.973867
0.97396
0.974037
0.97412
0.974169
0.97422
0.974272
0.974321
0.974345
0.974377
0.974413
0.974452
0.974472
0.974503
0.974539
0.974562
0.974587
0.974623
0.974669
0.97471
0.97475
0.974796
0.974852
0.974904
0.974949
0.974996
0.975058
0.975116
0.975175
0.975231
0.97529
0.97535
0.975422
0.975489
0.975553
0.975609
0.975702
0.97578
0.975857
0.975948
0.976027
0.976123
0.97622
0.976324
0.97643
0.976549
0.976677
0.976816
0.976967
0.977136
0.977328
0.977542
0.977776
0.978006
0.978205
0.978332
0.978385
0.978383
0.978281
0.977775
0.976021
0.973785
0.972907
0.971797
0.920152
0.912443
0.909495
0.912581
0.922669
0.931345
0.935569
0.939982
0.943583
0.947224
0.950772
0.954235
0.95678
0.958501
0.959848
0.960699
0.960855
0.96062
0.959628
0.958166
0.956659
0.955064
0.953682
0.952414
0.951311
0.950021
0.948257
0.946649
0.946152
0.946158
0.946291
0.946238
0.945854
0.945349
0.944879
0.944262
0.943102
0.940942
0.936904
0.928305
0.913127
0.898774
0.888257
0.88249
0.882835
0.888901
0.911462
0.932814
0.942556
0.948868
0.951089
0.951059
0.950626
0.951154
0.951889
0.951344
0.949974
0.950495
0.951709
0.953363
0.95469
0.955088
0.955043
0.95407
0.953024
0.952213
0.951807
0.951675
0.951752
0.952408
0.953483
0.955113
0.957158
0.959425
0.961777
0.963514
0.964778
0.965775
0.966255
0.966495
0.966576
0.96656
0.966646
0.966975
0.967442
0.968128
0.969001
0.970061
0.971378
0.972929
0.973854
0.974119
0.973748
0.970831
0.966493
0.96082
0.954638
0.951847
0.947896
0.918557
0.902952
0.905995
0.906755
0.905745
0.904388
0.90961
0.928529
0.960474
0.959248
0.942597
0.921695
0.925089
0.966869
0.972677
0.97207
0.971734
0.971598
0.971564
0.971643
0.971704
0.971838
0.971961
0.972025
0.97214
0.972278
0.972342
0.972415
0.972541
0.972637
0.972717
0.972862
0.973013
0.97313
0.973263
0.973351
0.973466
0.973552
0.973623
0.973706
0.973778
0.973836
0.973877
0.973932
0.973976
0.974017
0.974049
0.97408
0.9741
0.974131
0.974154
0.974186
0.974204
0.97423
0.97426
0.974278
0.974297
0.974314
0.974334
0.974351
0.974359
0.974355
0.974346
0.974327
0.974286
0.974228
0.974155
0.97408
0.974012
0.973968
0.973966
0.974073
0.974386
0.975095
0.97582
0.976373
0.977382
0.979125
0.9813
0.98215
0.982001
0.920956
0.913345
0.90899
0.904351
0.90049
0.899047
0.899671
0.901345
0.903704
0.907384
0.912405
0.91867
0.926004
0.93543
0.944419
0.951808
0.956922
0.959803
0.962018
0.963757
0.965011
0.965652
0.965697
0.965554
0.964972
0.96291
0.961103
0.960617
0.960608
0.959971
0.957321
0.953568
0.950846
0.948913
0.947357
0.946415
0.945511
0.94483
0.944228
0.944015
0.943427
0.941589
0.934349
0.91113
0.886696
0.890435
0.918767
0.94577
0.954487
0.9559
0.955693
0.955016
0.953588
0.95281
0.952518
0.952307
0.952553
0.953546
0.954828
0.955794
0.956135
0.956182
0.955917
0.955716
0.955896
0.956964
0.959103
0.962348
0.965976
0.969968
0.973486
0.976942
0.979455
0.98138
0.982391
0.983295
0.984091
0.984517
0.984824
0.98507
0.98521
0.985318
0.985397
0.985509
0.985641
0.985828
0.986003
0.986113
0.986155
0.986146
0.985886
0.985232
0.983789
0.980473
0.972868
0.962549
0.95509
0.952118
0.94719
0.92143
0.903215
0.903642
0.903819
0.899698
0.898623
0.902629
0.918259
0.961705
0.964208
0.953256
0.932935
0.954251
0.970671
0.971558
0.970875
0.971156
0.971304
0.971582
0.971708
0.971884
0.971999
0.972206
0.972367
0.972615
0.972866
0.973166
0.973563
0.974018
0.974521
0.975012
0.975592
0.976111
0.976642
0.977085
0.977446
0.977743
0.977986
0.978185
0.978313
0.978397
0.978431
0.97843
0.978417
0.978357
0.978274
0.978147
0.977957
0.977744
0.977537
0.977282
0.977036
0.97679
0.97657
0.976353
0.976138
0.975932
0.97574
0.97557
0.975434
0.975336
0.975269
0.975223
0.975181
0.975144
0.975087
0.97495
0.97467
0.974332
0.973954
0.973532
0.973054
0.972551
0.972075
0.971695
0.971485
0.971452
0.971549
0.971857
0.972571
0.974799
0.919854
0.907363
0.889157
0.881756
0.880188
0.880096
0.880542
0.881398
0.88308
0.885528
0.888109
0.890568
0.892986
0.89455
0.897234
0.901681
0.909205
0.918884
0.92844
0.941701
0.951805
0.958469
0.962533
0.964754
0.965842
0.966727
0.967066
0.967182
0.96722
0.966434
0.964685
0.964023
0.963528
0.961791
0.958796
0.95484
0.94992
0.946126
0.94406
0.943334
0.943565
0.943635
0.94208
0.929296
0.899386
0.907783
0.948955
0.958369
0.958176
0.956553
0.955069
0.954634
0.954546
0.954797
0.955197
0.956121
0.957367
0.958485
0.958972
0.959392
0.959806
0.960825
0.962555
0.965512
0.969301
0.973116
0.97661
0.979298
0.981823
0.983381
0.984993
0.985779
0.986462
0.986778
0.987024
0.987159
0.9873
0.987372
0.987446
0.987502
0.987539
0.987566
0.987617
0.987688
0.987788
0.987911
0.988066
0.988136
0.988165
0.988166
0.988089
0.987881
0.987323
0.98587
0.982043
0.971807
0.957242
0.95055
0.94738
0.929202
0.90622
0.903265
0.901542
0.897585
0.897837
0.899933
0.907244
0.94876
0.964064
0.955422
0.953185
0.966729
0.970599
0.970383
0.970958
0.971601
0.972247
0.972523
0.972672
0.972885
0.973125
0.973474
0.973836
0.974447
0.975357
0.976635
0.978262
0.979743
0.98101
0.982038
0.982831
0.983375
0.983811
0.984143
0.984417
0.984684
0.984942
0.985161
0.985351
0.98558
0.985769
0.985913
0.986064
0.986227
0.986358
0.986473
0.986536
0.986539
0.986499
0.986372
0.98616
0.985829
0.985364
0.984772
0.984059
0.983206
0.982217
0.981154
0.980069
0.979057
0.978261
0.977661
0.977191
0.976894
0.976784
0.97681
0.976914
0.976951
0.976926
0.976676
0.975775
0.974568
0.973411
0.972354
0.971504
0.97086
0.970458
0.970325
0.970339
0.970727
0.915178
0.888823
0.879504
0.878371
0.8792
0.880804
0.883032
0.885325
0.888282
0.892616
0.896689
0.899541
0.901678
0.901707
0.901216
0.899788
0.898744
0.898981
0.899985
0.902271
0.907166
0.916898
0.929618
0.940563
0.952169
0.95933
0.963413
0.965572
0.966903
0.967015
0.966846
0.966675
0.966403
0.965651
0.964584
0.962167
0.957962
0.95283
0.946505
0.942712
0.94182
0.942586
0.942255
0.929593
0.905706
0.931456
0.959164
0.960256
0.95771
0.956979
0.957108
0.958221
0.960049
0.962437
0.964159
0.965897
0.967415
0.968014
0.968646
0.969086
0.970819
0.973933
0.976857
0.979407
0.981833
0.983317
0.98476
0.985484
0.98607
0.98633
0.986513
0.986584
0.986613
0.986618
0.986551
0.986428
0.986331
0.986216
0.986173
0.986171
0.986302
0.986592
0.986898
0.987316
0.987707
0.987983
0.988352
0.988605
0.98875
0.988866
0.988948
0.988979
0.988896
0.988499
0.987274
0.98373
0.974028
0.957377
0.949534
0.944605
0.925656
0.910759
0.905291
0.901714
0.903209
0.905478
0.907292
0.928513
0.965833
0.962608
0.9637
0.969184
0.970274
0.970118
0.971664
0.972323
0.972537
0.972653
0.972933
0.973409
0.974104
0.97519
0.976628
0.978697
0.981027
0.982674
0.983492
0.98412
0.984569
0.984784
0.984939
0.985027
0.985054
0.985068
0.985143
0.985249
0.985427
0.98558
0.985739
0.986001
0.986262
0.986499
0.986748
0.987078
0.987369
0.987727
0.988098
0.988448
0.988774
0.989097
0.989399
0.989679
0.989926
0.990136
0.990309
0.990439
0.990497
0.990377
0.989993
0.989239
0.987975
0.986235
0.984155
0.981965
0.980021
0.978788
0.978166
0.978011
0.978208
0.97876
0.979163
0.979251
0.97886
0.976811
0.974164
0.97236
0.971143
0.970327
0.969771
0.969622
0.909517
0.884653
0.88155
0.883343
0.88752
0.893598
0.90083
0.906454
0.910994
0.913889
0.915716
0.916728
0.917481
0.917954
0.917973
0.917678
0.916665
0.91478
0.910936
0.906612
0.905544
0.90578
0.906875
0.909088
0.914077
0.923182
0.936244
0.94638
0.955844
0.960837
0.963123
0.964296
0.964679
0.964313
0.963311
0.961696
0.959214
0.954366
0.947394
0.942054
0.93996
0.94075
0.941319
0.927616
0.913923
0.949844
0.961694
0.960962
0.959904
0.96064
0.964174
0.969209
0.971818
0.972958
0.974324
0.975824
0.976863
0.97749
0.978445
0.97938
0.981338
0.983038
0.984477
0.985395
0.985913
0.986134
0.986205
0.986116
0.98607
0.985857
0.985507
0.98501
0.984478
0.984013
0.9838
0.983727
0.983747
0.984068
0.984454
0.984979
0.985524
0.986192
0.986814
0.987434
0.988148
0.988768
0.989409
0.989942
0.990312
0.990493
0.990566
0.990567
0.990363
0.989986
0.989558
0.988539
0.986044
0.980549
0.969026
0.963354
0.956593
0.944103
0.931137
0.924798
0.926411
0.927902
0.922302
0.923283
0.964665
0.965984
0.967274
0.969116
0.969389
0.970408
0.972134
0.972449
0.972513
0.972595
0.973062
0.974079
0.97581
0.978302
0.981008
0.98272
0.983495
0.983838
0.983943
0.983958
0.98381
0.983182
0.982261
0.981422
0.980862
0.980348
0.980017
0.97983
0.979731
0.979689
0.979709
0.979859
0.980061
0.980358
0.980652
0.981075
0.981529
0.982096
0.98282
0.983677
0.984534
0.98542
0.986226
0.987072
0.987928
0.988753
0.989525
0.990246
0.990916
0.991539
0.992091
0.992547
0.992883
0.993081
0.993117
0.992722
0.991398
0.988868
0.985608
0.982313
0.97997
0.97913
0.97915
0.980132
0.9816
0.982192
0.982071
0.980837
0.976914
0.97358
0.971553
0.970375
0.895402
0.886144
0.887266
0.892139
0.903056
0.913624
0.918252
0.920612
0.921571
0.921961
0.921876
0.921611
0.921056
0.92055
0.92023
0.920196
0.920419
0.920565
0.920355
0.919482
0.91693
0.913798
0.909913
0.908554
0.907471
0.908174
0.910699
0.915161
0.922025
0.931856
0.939964
0.946325
0.950696
0.951309
0.950313
0.947823
0.944175
0.940304
0.938364
0.936661
0.93693
0.939975
0.939837
0.926274
0.924179
0.958766
0.964638
0.964467
0.964747
0.9691
0.976154
0.978893
0.980018
0.980741
0.981994
0.983028
0.983586
0.984326
0.984753
0.985496
0.98631
0.986755
0.986934
0.986771
0.986502
0.986137
0.985751
0.985012
0.984045
0.982908
0.982193
0.981841
0.981741
0.98176
0.982143
0.982462
0.983024
0.98364
0.984329
0.985212
0.986118
0.987282
0.988494
0.989743
0.991083
0.99229
0.993278
0.994048
0.994566
0.994854
0.994975
0.994851
0.994292
0.993248
0.991826
0.990639
0.989678
0.98807
0.986075
0.983632
0.980131
0.974698
0.965016
0.955938
0.956383
0.957475
0.953052
0.934136
0.947269
0.966367
0.967763
0.968709
0.968391
0.970855
0.972651
0.972659
0.972401
0.972444
0.973139
0.975014
0.977958
0.980926
0.982383
0.983001
0.983235
0.983235
0.982515
0.980793
0.978585
0.977405
0.976801
0.976495
0.97635
0.976282
0.976251
0.976212
0.976171
0.976138
0.976108
0.976064
0.975972
0.975842
0.97567
0.975462
0.975234
0.975013
0.974803
0.97468
0.974702
0.974975
0.975612
0.976537
0.97779
0.979324
0.980924
0.982507
0.9842
0.985973
0.987764
0.989506
0.991112
0.992483
0.993549
0.994334
0.99483
0.995046
0.995006
0.994188
0.991358
0.986854
0.982754
0.980653
0.980397
0.98137
0.983921
0.984869
0.984806
0.983986
0.981199
0.975617
0.887448
0.887673
0.893013
0.907355
0.91861
0.92277
0.924533
0.925453
0.925689
0.925667
0.925384
0.924597
0.923464
0.922195
0.920861
0.919382
0.918722
0.918758
0.919126
0.91935
0.919896
0.919783
0.918975
0.916646
0.912226
0.90902
0.907963
0.907705
0.908579
0.911081
0.914995
0.919445
0.922795
0.924832
0.926081
0.927122
0.92826
0.929872
0.93224
0.934117
0.93667
0.939729
0.936433
0.926088
0.934028
0.964647
0.968395
0.968838
0.971036
0.978393
0.983467
0.984963
0.985614
0.98627
0.987188
0.987564
0.987806
0.988021
0.988111
0.988172
0.988096
0.987726
0.987243
0.986665
0.98593
0.984785
0.983064
0.981547
0.980713
0.980332
0.980196
0.9802
0.980611
0.981002
0.981655
0.982299
0.983074
0.984008
0.98519
0.986818
0.988779
0.991066
0.99334
0.995034
0.995924
0.996367
0.996624
0.996812
0.996998
0.997236
0.997474
0.997682
0.997808
0.997659
0.996938
0.994992
0.992391
0.990414
0.989108
0.987905
0.986924
0.985942
0.984176
0.979886
0.978167
0.977002
0.969245
0.94245
0.940126
0.962408
0.967523
0.96734
0.966887
0.970234
0.972937
0.972936
0.972338
0.972102
0.972846
0.974794
0.978252
0.981317
0.982286
0.982561
0.982335
0.980871
0.978161
0.976494
0.975793
0.97546
0.975313
0.97526
0.975253
0.975353
0.975523
0.975585
0.975605
0.975603
0.975581
0.975504
0.97533
0.975055
0.974697
0.974221
0.973652
0.973066
0.972374
0.971615
0.970874
0.970159
0.969508
0.96892
0.968467
0.968326
0.968789
0.969922
0.971449
0.973417
0.975794
0.978517
0.981519
0.984629
0.987684
0.990474
0.992793
0.994501
0.995584
0.996168
0.996353
0.996193
0.99477
0.990068
0.985035
0.982587
0.98236
0.98364
0.986057
0.986643
0.986458
0.984702
0.888068
0.892854
0.909471
0.921579
0.925042
0.926702
0.928084
0.929763
0.931588
0.933014
0.933203
0.932687
0.931336
0.928573
0.924873
0.921316
0.918566
0.916661
0.916338
0.916709
0.917849
0.919438
0.920104
0.92022
0.919205
0.915836
0.910637
0.908033
0.907478
0.908308
0.910811
0.914585
0.9181
0.921527
0.924309
0.927004
0.928788
0.930476
0.933064
0.935407
0.938676
0.939063
0.9308
0.92652
0.945692
0.969397
0.972162
0.973132
0.976556
0.98454
0.987982
0.98903
0.989496
0.989929
0.990135
0.990163
0.990154
0.990015
0.989599
0.989093
0.988474
0.987726
0.986895
0.985538
0.983223
0.981207
0.980118
0.979468
0.979225
0.979166
0.979364
0.979765
0.980286
0.980936
0.981717
0.982655
0.983865
0.985647
0.988027
0.991179
0.994443
0.996149
0.996737
0.996904
0.996914
0.996829
0.996709
0.996643
0.996664
0.996876
0.997238
0.997691
0.998145
0.998483
0.998647
0.998589
0.997845
0.995572
0.992363
0.989723
0.988209
0.987424
0.987017
0.986855
0.986596
0.986067
0.983376
0.959967
0.942002
0.952982
0.965943
0.966399
0.965049
0.967927
0.972393
0.9736
0.972688
0.971859
0.972102
0.974054
0.977701
0.980994
0.981766
0.981644
0.980244
0.977786
0.975951
0.975227
0.974905
0.974739
0.97465
0.974621
0.974642
0.974845
0.975146
0.975328
0.975434
0.975457
0.975441
0.975337
0.975122
0.974748
0.974254
0.97359
0.97276
0.971876
0.970886
0.969807
0.968735
0.967683
0.96667
0.965654
0.964627
0.963596
0.962736
0.962297
0.962313
0.962836
0.964006
0.96573
0.968173
0.971184
0.975025
0.979443
0.984012
0.988203
0.991682
0.994296
0.996001
0.99689
0.997186
0.997096
0.995837
0.990946
0.986258
0.984763
0.984983
0.98706
0.988805
0.988706
0.89237
0.905145
0.923084
0.926731
0.927984
0.930737
0.936185
0.940435
0.942646
0.943942
0.945027
0.945186
0.944615
0.942669
0.937546
0.929243
0.921932
0.917507
0.915341
0.914904
0.915152
0.916521
0.919346
0.920847
0.921434
0.920707
0.917945
0.913373
0.911
0.911421
0.913899
0.917687
0.921519
0.924779
0.927372
0.929723
0.931455
0.933996
0.937062
0.939491
0.93935
0.931952
0.924804
0.928903
0.959067
0.973339
0.975632
0.976953
0.981213
0.988521
0.990927
0.991674
0.99193
0.991987
0.991955
0.991789
0.991493
0.991006
0.990221
0.989391
0.98843
0.987299
0.985367
0.982289
0.98042
0.979275
0.978786
0.978594
0.978565
0.978767
0.979151
0.979666
0.980293
0.981141
0.982282
0.983917
0.986239
0.989602
0.993799
0.996058
0.996824
0.996993
0.996941
0.996524
0.995574
0.994408
0.993314
0.992623
0.992351
0.992554
0.993366
0.994568
0.996008
0.997394
0.998403
0.998905
0.999081
0.998969
0.998165
0.995631
0.991687
0.988762
0.987458
0.987161
0.98719
0.987114
0.986511
0.980512
0.95109
0.947338
0.958648
0.964447
0.963976
0.964375
0.969499
0.97314
0.97364
0.972219
0.971517
0.972467
0.976227
0.979968
0.980527
0.980249
0.978909
0.976339
0.975122
0.974713
0.974509
0.974257
0.973972
0.973876
0.973867
0.974112
0.974661
0.975133
0.975377
0.975421
0.975377
0.975205
0.974864
0.97421
0.973299
0.97213
0.970663
0.96904
0.967309
0.965588
0.963944
0.962429
0.961091
0.95989
0.959005
0.958338
0.957864
0.957564
0.957539
0.957705
0.957943
0.958246
0.958864
0.959689
0.961358
0.964791
0.970178
0.976448
0.982264
0.987369
0.99154
0.994642
0.996613
0.997547
0.997773
0.997532
0.995442
0.990147
0.987515
0.987284
0.98841
0.990363
0.900115
0.919886
0.92769
0.929018
0.933008
0.941637
0.945383
0.946258
0.946784
0.947911
0.949194
0.950228
0.950124
0.949369
0.947062
0.939583
0.92802
0.919904
0.915754
0.914579
0.914656
0.915615
0.918032
0.920715
0.921864
0.9219
0.920829
0.919111
0.918433
0.919061
0.920905
0.923786
0.926731
0.929357
0.932331
0.935619
0.939157
0.941409
0.941539
0.938336
0.926982
0.919085
0.919707
0.93559
0.966461
0.976061
0.978379
0.979567
0.982872
0.989852
0.992462
0.993171
0.993318
0.993288
0.993137
0.992839
0.992354
0.991625
0.990622
0.989494
0.98817
0.985956
0.982399
0.980156
0.979008
0.978426
0.978232
0.978198
0.978314
0.978626
0.979086
0.979697
0.980565
0.981972
0.983953
0.986681
0.990468
0.99467
0.996328
0.996804
0.996825
0.996434
0.99515
0.992691
0.989736
0.987542
0.986341
0.985786
0.985557
0.985541
0.986082
0.987291
0.989323
0.992204
0.995395
0.997571
0.998786
0.999241
0.999329
0.999121
0.997977
0.994356
0.990088
0.9878
0.987098
0.986931
0.986711
0.985249
0.970392
0.949762
0.950258
0.958302
0.961965
0.962208
0.963534
0.969812
0.973258
0.973181
0.971867
0.971482
0.972911
0.977908
0.979648
0.979273
0.97808
0.97632
0.975098
0.974568
0.974218
0.973729
0.973251
0.973133
0.973215
0.973784
0.974436
0.975055
0.97539
0.975451
0.97532
0.974965
0.974324
0.973153
0.971424
0.969279
0.966813
0.964179
0.961357
0.958715
0.956392
0.954356
0.952524
0.950708
0.949655
0.949325
0.949538
0.949989
0.950645
0.951709
0.953051
0.953929
0.954348
0.954736
0.955158
0.955951
0.957738
0.962161
0.96934
0.976699
0.983122
0.988551
0.992846
0.995854
0.997538
0.998141
0.99815
0.997308
0.993385
0.990171
0.989668
0.990087
0.908048
0.925695
0.929688
0.93363
0.944494
0.948103
0.947854
0.94793
0.948495
0.950254
0.952079
0.953098
0.952896
0.952028
0.949241
0.941024
0.928661
0.919138
0.915387
0.914596
0.914871
0.91607
0.918469
0.921049
0.922052
0.922149
0.921594
0.921107
0.921331
0.922946
0.925649
0.929645
0.934817
0.939657
0.942285
0.942963
0.942551
0.938961
0.929928
0.916451
0.912311
0.912466
0.918545
0.937825
0.965936
0.976152
0.979256
0.980592
0.982439
0.988714
0.992442
0.993556
0.993957
0.994013
0.993899
0.993596
0.993041
0.992193
0.991016
0.989579
0.987306
0.983747
0.980657
0.979104
0.978372
0.978074
0.978007
0.978032
0.978221
0.978562
0.979103
0.979943
0.981364
0.983384
0.986032
0.989854
0.994353
0.99618
0.996645