/*--------------------------------*- C++ -*----------------------------------*\
| =========                 |                                                 |
| \\      /  F ield         | OpenFOAM: The Open Source CFD Toolbox           |
|  \\    /   O peration     | Version:  2112                                  |
|   \\  /    A nd           | Website:  www.openfoam.com                      |
|    \\/     M anipulation  |                                                 |
\*---------------------------------------------------------------------------*/
FoamFile
{
    version     2.0;
    format      ascii;
    arch        "LSB;label=32;scalar=64";
    class       volVectorField;
    location    "0.01";
    object      U_0;
}
// * * * * * * * * * * * * * * * * * * * * * * * * * * * * * * * * * * * * * //

dimensions      [0 1 -1 0 0 0 0];

internalField   nonuniform List<vector> 
122250
(
(-19.3348 1.0262 -7.76743)
(-2.32928 0.679743 -4.53054)
(-25.9796 -4.39515 6.59099)
(5.93944 -3.372 6.64002)
(5.50813 -1.77693 3.98875)
(5.33196 0.0997493 2.25846)
(2.85221 -0.41835 0.431347)
(5.58496 -0.582958 0.743032)
(7.12821 -0.29144 0.820678)
(5.05312 0.0605185 0.26155)
(3.62454 -0.274839 -0.00945219)
(5.55369 -0.437254 -0.0499936)
(6.05574 0.046233 -0.137684)
(3.17085 0.222994 -0.0471208)
(1.3912 0.0427161 -0.314218)
(1.17164 -0.0440492 -0.523357)
(1.64476 -0.0632843 -0.114887)
(1.94646 -0.0152496 0.361243)
(-20.6247 3.4186 -8.13342)
(3.61936 4.0267 -6.31079)
(-17.2787 -6.10426 4.18157)
(-1.77494 -3.95416 4.50579)
(-7.51175 -0.321416 1.00955)
(3.09506 -0.244384 1.89359)
(0.849965 -1.09612 -0.134666)
(3.24328 -0.827921 -0.089126)
(4.14413 0.165502 -0.100265)
(3.17601 0.513477 -0.457762)
(3.07267 -0.387796 -0.515708)
(4.39835 -0.87899 0.0186872)
(5.8097 -0.0745133 0.361595)
(4.67936 0.62978 0.36367)
(3.44279 0.538662 -0.111931)
(2.88524 0.111649 -0.925015)
(2.79731 -0.122099 -1.20976)
(3.00932 -0.056679 -0.832473)
(-21.7999 4.9446 -6.20549)
(14.243 7.12014 -7.97281)
(-8.19587 -6.50219 3.11883)
(1.80593 -5.10687 4.22507)
(-2.10313 -2.05129 1.24977)
(2.80686 -1.59911 2.06628)
(2.02548 -0.982113 0.464482)
(2.89122 -1.06629 -0.133437)
(3.36495 0.0377853 -0.218554)
(3.83501 0.364878 -0.144395)
(3.94256 -0.491077 -0.399039)
(3.77508 -0.9053 -0.29022)
(4.50584 -0.153266 0.48941)
(4.29023 0.761957 0.415436)
(3.58992 0.877818 -0.22961)
(3.39795 0.469086 -0.624208)
(3.6221 0.00439629 -0.771105)
(3.86287 -0.123318 -0.818753)
(-23.0436 5.83164 -4.49537)
(22.9503 7.9632 -8.02973)
(-2.60353 -6.47355 2.68442)
(2.1403 -5.26186 3.44077)
(-1.35593 -0.900555 0.969347)
(3.05256 -2.02406 1.60199)
(3.13066 -1.04902 0.467951)
(3.75657 -0.942971 -0.0880655)
(4.14284 -0.186437 -0.0933101)
(4.89541 0.12775 0.393187)
(4.93739 -0.437843 0.298678)
(3.94567 -0.651647 -0.587922)
(3.43261 0.383758 -0.707321)
(3.35487 1.30911 -0.628724)
(3.61224 1.15128 -0.69147)
(4.30517 0.384535 -0.484908)
(4.67042 -0.148825 -0.260656)
(4.64982 -0.170804 -0.183414)
(-24.2744 6.24716 -3.08267)
(28.6638 8.0809 -6.68115)
(2.01868 -5.74359 1.78607)
(4.4378 -5.38708 3.01021)
(2.10237 -2.05083 0.882788)
(4.01825 -2.54439 1.40052)
(3.97996 -1.38104 0.723006)
(4.68974 -1.10638 0.321818)
(5.01022 -0.60981 0.197386)
(5.51287 -0.18774 0.582737)
(5.8307 -0.273524 0.87309)
(5.20689 -0.572518 0.231208)
(4.10801 -0.0985918 -0.717385)
(4.06209 0.536908 -0.883623)
(5.05221 0.256196 -0.477758)
(6.16424 -0.389055 -0.124148)
(6.6106 -0.719073 -0.0126793)
(6.23014 -0.593864 0.0335535)
(-25.2508 5.99303 -2.02565)
(31.5891 7.89872 -5.09237)
(4.35924 -5.23249 1.65227)
(6.31153 -5.09297 2.39591)
(4.12384 -1.98038 0.952221)
(5.03048 -2.43515 1.14918)
(5.01246 -1.51022 0.723001)
(5.48626 -1.05359 0.49151)
(5.74184 -0.633644 0.377509)
(5.9043 -0.40791 0.397995)
(6.1186 -0.401375 0.44208)
(6.08431 -0.234741 0.316672)
(5.71338 0.15537 -0.0112495)
(5.80312 0.290378 -0.117111)
(6.39124 -0.101271 0.0608317)
(6.88668 -0.643115 0.117651)
(7.10614 -0.860056 -0.0141685)
(6.84473 -0.63515 -0.101996)
(-26.1268 5.31145 -1.30167)
(32.4562 7.41437 -3.66628)
(5.76202 -4.64531 1.35122)
(7.82921 -4.59883 1.83336)
(6.10748 -2.37096 0.761803)
(6.02434 -2.47486 0.809234)
(5.83863 -1.73122 0.655132)
(5.99832 -1.20835 0.495705)
(6.22467 -0.786917 0.432469)
(6.35246 -0.475434 0.464449)
(6.39771 -0.387949 0.441374)
(6.34369 -0.361807 0.307036)
(6.34521 -0.158704 0.145082)
(6.64321 -0.076663 0.0538079)
(7.05436 -0.357033 0.00538206)
(7.25042 -0.748903 -0.0301803)
(7.18842 -0.888709 -0.0360029)
(6.87229 -0.67051 -0.0262847)
(-27.0992 4.44741 -0.815919)
(32.4922 6.62556 -2.55101)
(6.57237 -4.19448 1.11246)
(9.11041 -3.99051 1.32931)
(7.56475 -2.47683 0.708235)
(6.76644 -2.21533 0.668141)
(6.42405 -1.57126 0.638293)
(6.31339 -1.01721 0.587838)
(6.34022 -0.657737 0.493325)
(6.43791 -0.459172 0.393336)
(6.51511 -0.39441 0.311419)
(6.52246 -0.314877 0.242469)
(6.5945 -0.192449 0.191229)
(6.8698 -0.269183 0.0989769)
(7.12197 -0.568635 -0.0718634)
(7.10307 -0.820527 -0.188556)
(6.83469 -0.78404 -0.0828366)
(6.44782 -0.457736 0.136436)
(-28.1955 3.50353 -0.493443)
(32.5516 5.44975 -1.70672)
(6.96282 -3.69451 0.802916)
(10.0648 -3.11418 0.875124)
(8.38294 -2.32295 0.553858)
(7.08457 -1.87049 0.501269)
(6.55113 -1.31099 0.542026)
(6.26364 -0.84055 0.58042)
(6.17991 -0.514549 0.524884)
(6.22819 -0.33292 0.391878)
(6.27248 -0.279341 0.278258)
(6.32723 -0.283465 0.214519)
(6.53279 -0.326175 0.127542)
(6.8021 -0.481822 -0.0465337)
(6.76493 -0.709148 -0.233748)
(6.38478 -0.822905 -0.270543)
(5.89422 -0.684862 -0.0539139)
(5.55291 -0.325109 0.296141)
(-29.2218 2.49481 -0.283555)
(32.8005 3.768 -1.04177)
(6.40911 -3.3033 0.567025)
(10.5502 -2.00032 0.524574)
(8.34481 -1.95504 0.440529)
(6.89151 -1.39821 0.443077)
(6.29484 -0.886662 0.547651)
(5.93016 -0.518347 0.661151)
(5.78219 -0.254574 0.610851)
(5.74576 -0.0924362 0.436174)
(5.79174 -0.0899093 0.278389)
(6.01097 -0.225083 0.136522)
(6.25003 -0.384757 -0.0623169)
(6.16455 -0.503614 -0.259312)
(5.63552 -0.605268 -0.308806)
(4.95048 -0.679736 -0.124652)
(4.39237 -0.634289 0.202647)
(4.12938 -0.401829 0.538672)
(-29.7986 1.41217 -0.145175)
(32.8252 1.60084 -0.585468)
(4.24991 -2.72093 0.481233)
(10.4825 -0.675689 0.285557)
(7.39178 -1.48235 0.358214)
(6.14737 -0.783774 0.428952)
(5.55703 -0.364175 0.605871)
(5.20499 -0.0852328 0.769528)
(5.0509 0.13837 0.719506)
(5.06622 0.176323 0.433765)
(5.29392 -0.0320701 0.0553657)
(5.53015 -0.299832 -0.22325)
(5.39431 -0.383224 -0.32944)
(4.80888 -0.357161 -0.294884)
(4.06407 -0.501341 -0.14612)
(3.54207 -0.798745 0.0687959)
(3.23683 -0.940756 0.289715)
(3.12962 -0.811879 0.47117)
(-29.7116 0.404994 -0.0579093)
(32.4052 -0.389869 -0.293345)
(1.78995 -1.72771 0.518508)
(10.1601 0.652075 0.154641)
(5.86225 -1.01343 0.319176)
(5.18618 0.017469 0.49154)
(4.58925 0.155298 0.775702)
(4.26941 0.331883 0.929677)
(4.18609 0.548677 0.747314)
(4.38069 0.491129 0.230375)
(4.6166 0.157205 -0.24384)
(4.55232 -0.0855515 -0.37348)
(4.10802 -0.10966 -0.25511)
(3.51073 -0.22311 -0.13005)
(3.08671 -0.595279 -0.107606)
(2.90797 -0.944773 -0.151736)
(2.83607 -0.9668 -0.200755)
(2.85904 -0.677714 -0.227918)
(-29.1956 -0.562659 -0.0096905)
(30.9923 -1.97664 0.061294)
(-1.50673 -0.428726 0.778829)
(9.6537 1.86076 0.0858405)
(4.19146 -0.531536 0.287916)
(4.53276 0.655219 0.781307)
(3.56139 0.48267 1.11868)
(3.36724 0.784149 1.275)
(3.53378 0.801481 0.859491)
(3.75927 0.494968 -0.0362844)
(3.73542 0.0897159 -0.56302)
(3.48526 -0.123514 -0.45191)
(3.16862 -0.163171 -0.165452)
(2.99406 -0.303395 -0.125759)
(2.88469 -0.573476 -0.293713)
(2.72833 -0.720866 -0.448854)
(2.62732 -0.578088 -0.515628)
(2.67743 -0.21507 -0.578426)
(-28.5571 -1.7697 -0.0463312)
(29.6722 -2.91743 0.813584)
(-4.58722 1.69779 0.908906)
(9.19229 3.05454 -0.00123884)
(2.44522 0.438075 0.211446)
(3.72936 2.24424 0.414685)
(2.14742 1.03718 0.924145)
(2.70335 0.787937 0.713658)
(2.77835 0.949419 0.237076)
(2.683 0.778706 -0.294104)
(2.71026 0.391885 -0.556993)
(2.85222 0.181288 -0.470139)
(3.07181 0.0760832 -0.237242)
(3.33747 -0.0938236 -0.163292)
(3.4392 -0.33106 -0.31252)
(3.2445 -0.486411 -0.508504)
(2.91529 -0.406121 -0.539113)
(2.71358 -0.0831432 -0.430417)
(-28.1723 -3.89095 -0.561107)
(29.5061 -5.21265 3.13348)
(-9.83744 4.64629 2.60343)
(9.84613 4.88292 -3.63917)
(-2.04374 0.757519 0.702054)
(4.94345 2.7184 3.51894)
(3.68169 1.71607 2.80229)
(3.26456 1.58149 1.95591)
(2.56932 1.16016 1.53175)
(2.82541 0.427855 1.20255)
(3.28862 -0.186087 0.623927)
(3.59891 -0.415883 -0.10983)
(3.84187 -0.394523 -0.506436)
(4.09089 -0.324374 -0.405898)
(4.36616 -0.295298 -0.120615)
(4.51873 -0.291908 -0.018077)
(4.28102 -0.206103 -0.108993)
(3.72027 -0.0178535 -0.108447)
(-27.9574 -6.8808 -2.70505)
(21.7084 -12.1232 -4.84103)
(-14.5303 7.14899 9.9013)
(6.12485 6.29475 5.1732)
(-0.0249346 4.16802 -0.654408)
(4.99712 2.11886 0.945335)
(3.84186 2.34971 1.69232)
(5.17475 1.90598 1.40303)
(6.71868 0.964196 1.2032)
(7.84146 -0.187293 1.31799)
(8.15842 -0.642038 1.78456)
(8.32962 -0.300313 1.97204)
(8.5736 0.0282548 1.33226)
(8.43481 0.0557589 0.526055)
(7.93687 -0.036064 0.265403)
(7.39985 -0.107737 0.532279)
(7.15689 -0.0606838 0.987333)
(6.98615 0.119741 1.27485)
(-33.4299 -2.66469 -3.72706)
(-8.5763 -0.00475416 -6.14484)
(-32.578 5.3922 8.53707)
(17.3537 0.885224 0.967753)
(11.4098 -1.01916 -3.07843)
(15.0939 -2.71052 -1.07868)
(15.0084 -3.03473 -2.32619)
(14.8022 -2.35533 -2.66822)
(14.5734 -1.08315 -2.62974)
(14.1737 -1.10028 -2.73503)
(12.6881 -1.80403 -2.10228)
(10.6908 -1.2617 -0.614026)
(8.49214 -0.0169035 0.649432)
(7.11588 0.400032 0.724494)
(6.75372 0.319124 0.182538)
(6.60006 0.184824 -0.195712)
(6.57444 -0.0993653 -0.280346)
(6.92529 -0.334974 -0.182984)
(-28.7306 2.97232 -2.14606)
(4.60455 -4.27569 1.31024)
(-28.069 -8.84119 13.2336)
(12.7854 -1.74831 7.09181)
(1.86186 -4.47635 -0.246219)
(6.08531 -3.95275 0.535489)
(2.33634 -2.19777 -0.101357)
(1.79062 -0.896006 0.956581)
(2.2998 -0.397064 0.638045)
(3.15792 0.515885 -0.379578)
(3.22405 0.792489 -0.870386)
(3.04194 -0.104897 -0.717649)
(3.02025 -1.36002 -0.374366)
(3.25705 -1.91411 -0.226511)
(3.60856 -1.80102 -0.342923)
(3.92674 -1.5996 -0.536731)
(4.28926 -1.53946 -0.636493)
(4.86499 -1.51188 -0.491667)
(-27.169 -1.2254 -0.188282)
(25.4506 3.27602 0.401451)
(-17.745 -0.461341 5.58451)
(12.7184 -0.966181 9.47979)
(1.91517 -1.15219 2.89973)
(6.25947 -3.22046 1.66064)
(5.04739 -1.20145 1.75732)
(5.34824 -0.258284 2.50307)
(3.53125 -0.492306 3.07912)
(2.22679 -0.0310248 3.13545)
(3.89877 -0.283574 1.09287)
(4.64905 -1.58041 -0.4804)
(3.66324 -2.96265 -0.589896)
(2.38257 -3.06925 -0.55091)
(1.67563 -1.97236 -0.758872)
(1.38211 -1.20198 -0.357886)
(1.31259 -0.651253 0.447147)
(1.42375 -0.0922154 1.0552)
(-30.256 -1.86198 -0.499254)
(-10.781 -1.73351 -0.209123)
(-25.0549 -2.39715 7.56017)
(16.3605 -0.939848 6.25285)
(13.3426 -1.31706 1.89296)
(7.86551 0.40195 -0.198908)
(6.30706 -0.0590836 -1.49938)
(7.75331 -0.814319 -1.17147)
(9.54088 -0.200897 0.0463772)
(9.21626 0.561334 0.779354)
(8.16784 0.509361 0.387385)
(7.07003 0.442489 -0.0778083)
(4.86323 -0.301098 0.105535)
(2.80382 -1.53158 -0.117539)
(1.60933 -1.26388 -1.07809)
(0.702696 -0.314824 -1.58282)
(0.105082 0.0719351 -1.68331)
(0.0185225 0.0808519 -1.61323)
(-29.949 -0.782749 -2.24267)
(27.7682 5.74256 0.715757)
(-16.6564 -2.25561 3.71646)
(6.37776 -5.47271 2.0347)
(-8.91376 6.49664 0.204131)
(5.58653 0.982148 -2.39465)
(5.56123 -0.408752 -0.319075)
(6.28834 -0.586365 0.968482)
(5.51517 0.172255 1.16226)
(5.49583 0.140214 0.423055)
(5.91375 -0.0831899 -0.963982)
(5.21443 0.481315 -1.7803)
(3.66881 1.0282 -0.693903)
(1.98648 0.915949 0.679306)
(1.2151 0.615443 -0.0460531)
(0.872873 0.476944 -1.04687)
(0.503221 0.375613 -1.21352)
(0.223474 0.272378 -0.92207)
(-29.8662 -2.06971 -3.38034)
(30.0128 5.03267 -6.96796)
(14.6561 3.12395 0.337197)
(4.39244 1.01073 2.57847)
(-7.76173 3.04568 0.386865)
(3.72874 -0.173729 2.30564)
(0.733526 1.4017 2.96995)
(2.22635 2.5253 2.7331)
(3.16024 0.840301 0.480771)
(2.64354 -0.0195296 -0.612027)
(1.85576 0.473147 -0.463788)
(1.32913 1.2294 0.26109)
(0.377385 1.04014 1.11839)
(0.0202727 0.80095 1.22384)
(0.0713196 1.19067 0.92178)
(0.133914 1.46705 0.556583)
(-0.0351103 1.50104 0.492306)
(-0.386404 1.30273 0.633997)
(-29.8396 -1.974 -2.59407)
(29.1584 1.97762 -7.3368)
(4.44085 1.48795 4.93692)
(5.20881 2.40193 8.49028)
(-1.11224 1.52002 2.75843)
(3.4125 -0.578198 3.58006)
(1.37857 0.32488 3.66928)
(1.20668 0.521844 2.67184)
(2.26986 1.26654 0.245112)
(1.91757 1.29012 -1.18386)
(0.815438 1.21421 -0.196992)
(0.463729 2.04492 0.802498)
(0.367907 1.70149 0.657591)
(0.169882 1.0506 -0.0524797)
(-0.16856 1.15892 -0.283884)
(-0.497562 1.5135 -0.1881)
(-0.821759 1.61748 0.0953016)
(-1.00187 1.38225 0.330218)
(-30.1571 -2.05163 -1.94546)
(30.2763 1.23566 -4.64157)
(11.6635 3.34451 7.95372)
(8.73779 2.9369 7.12249)
(3.55419 2.37042 2.49164)
(5.05918 1.12672 2.35282)
(2.81694 1.36902 3.30454)
(2.26116 0.438673 2.65085)
(1.70838 0.230222 1.11989)
(2.54083 1.40263 -0.891669)
(1.59017 1.71557 -0.67456)
(1.42607 1.87711 0.0219276)
(2.05311 1.88951 0.413439)
(2.44471 1.71655 0.656201)
(3.1183 1.23144 -0.138823)
(3.93094 0.654692 -1.435)
(4.04388 0.350376 -2.07964)
(3.73094 -0.031494 -1.84542)
(-30.4328 -2.96027 -0.523524)
(32.5462 -0.364038 1.3317)
(8.48314 3.05714 5.03805)
(9.43535 3.7165 4.21646)
(5.18827 2.31497 2.40317)
(5.44673 2.43243 3.16838)
(3.23239 2.2866 2.99221)
(2.4528 1.27531 2.38789)
(0.128388 0.753452 2.24604)
(1.24713 1.06005 -0.0340096)
(1.48262 1.49293 -0.575777)
(1.99292 1.20834 -0.0346966)
(2.60887 1.10891 1.04027)
(2.93341 1.26746 1.55588)
(3.88637 0.874268 0.488671)
(5.27553 0.0507416 -1.19922)
(6.20095 -0.437759 -2.29983)
(6.89274 -0.575646 -2.96618)
(-31.1877 -3.91466 -0.210813)
(33.1872 -1.26908 3.57075)
(1.02961 2.21284 5.81789)
(9.52438 2.85551 6.29634)
(3.54183 2.57436 4.16749)
(3.63402 3.2495 3.4921)
(2.03268 2.70489 1.82169)
(0.856691 1.94852 1.34667)
(-1.81273 1.98864 2.22333)
(0.0499371 1.30841 1.23668)
(0.941538 1.13715 0.594421)
(2.14485 0.888093 0.932552)
(2.74717 1.16713 2.09181)
(3.10539 1.86096 2.27142)
(4.77846 1.36085 0.596301)
(6.57201 -0.293087 -1.10428)
(7.38851 -1.6308 -1.9619)
(7.93857 -2.28882 -2.46653)
(-33.4591 -4.20537 -0.472463)
(35.0236 0.139684 1.37707)
(-4.17857 0.798979 6.11973)
(10.7194 2.38308 7.74766)
(6.84665 3.73935 6.70044)
(8.76779 2.57666 3.80289)
(5.38555 1.82522 0.0654143)
(2.16554 1.55486 -0.436765)
(-0.850113 1.50702 1.66342)
(-0.108318 0.523945 2.45175)
(1.65877 0.151978 1.8653)
(2.99744 0.332316 1.35699)
(3.4714 1.30842 1.54016)
(4.34607 1.81167 1.31409)
(6.59152 0.405414 0.487547)
(8.36035 -1.87029 -0.459125)
(8.26393 -3.2669 -1.78846)
(6.79171 -2.86341 -2.95212)
(-37.3493 -4.37248 -1.08423)
(39.3131 0.14168 -6.51583)
(7.62357 0.587693 0.218249)
(8.64828 -1.5237 5.96738)
(5.72201 2.68104 5.6209)
(9.0467 3.44236 4.91029)
(8.0756 3.92444 0.892584)
(7.36792 3.62139 -2.39182)
(5.12624 2.71692 -0.248505)
(2.14621 1.05951 3.21146)
(0.934722 0.232663 4.41278)
(1.99519 0.661382 3.59958)
(3.04359 1.61498 2.89508)
(4.8532 1.76346 2.89573)
(7.24075 0.460497 3.2177)
(8.96458 -0.873984 2.15429)
(9.05458 -0.952404 -0.348498)
(7.84696 -0.902899 -2.12287)
(-42.4941 -3.69452 -2.26353)
(41.9293 -5.55167 -12.4893)
(18.4099 -1.35683 -11.2784)
(8.73345 0.0363267 -4.02589)
(2.02951 -2.94572 0.0943206)
(6.55108 -2.2185 -1.24798)
(8.23354 0.520292 -4.32709)
(8.76984 2.26068 -6.66756)
(9.58806 3.07413 -6.17129)
(11.113 1.46769 -1.67762)
(9.50384 -0.515181 3.33594)
(7.33727 -0.910876 5.18672)
(6.96098 0.0356328 4.89136)
(8.11191 0.509861 5.08955)
(9.41695 -0.342659 5.68353)
(9.55769 -1.054 4.45553)
(9.67479 -0.358179 1.32562)
(10.3651 0.47194 -1.10488)
(-34.4958 -1.4697 -4.9734)
(19.9187 -2.64475 -4.62083)
(-27.4346 2.18825 -3.59007)
(23.0421 2.64393 -3.85707)
(21.935 -0.184298 -0.47244)
(12.4534 -2.64883 -3.00456)
(6.087 -0.374888 -9.98508)
(5.46962 0.829953 -12.1045)
(9.00898 0.44184 -9.55207)
(14.2221 0.179984 -3.60408)
(15.319 -0.0529565 2.18505)
(13.1479 -0.253635 5.00569)
(10.7999 -0.172381 4.8471)
(9.7203 0.069304 3.35536)
(9.51626 0.468337 1.34789)
(9.35985 0.879993 -0.769805)
(9.17865 0.92607 -2.80938)
(9.2548 0.707223 -3.62413)
(-27.1613 1.09519 -4.65618)
(-14.0728 0.916388 -2.01552)
(-35.2696 -4.46925 6.48079)
(8.98176 -2.9223 6.27787)
(-3.36299 0.113457 3.99766)
(2.44555 0.259914 2.67284)
(2.60027 0.276582 1.45859)
(4.59433 0.120811 0.473584)
(4.78737 0.151122 0.609879)
(3.91539 0.0111225 0.989804)
(4.35822 -0.231788 0.842858)
(5.92613 -0.0554252 0.791018)
(5.97934 0.277088 1.1275)
(4.75554 0.266906 1.01352)
(4.28828 0.114216 0.291732)
(3.91637 0.186972 -0.527859)
(3.13529 0.258198 -0.936692)
(2.25321 0.107399 -0.704052)
(-27.2081 3.73923 -5.74448)
(-8.16684 5.15521 -4.08105)
(-26.8392 -6.78314 4.67796)
(-5.43567 -2.50444 1.97761)
(-11.6941 0.185342 -0.604266)
(4.26601 -1.53104 0.313407)
(4.30824 -0.370954 0.733324)
(5.87522 0.488803 0.882515)
(4.75078 0.696606 0.538168)
(3.73587 0.264421 -0.176885)
(4.00503 -0.244487 -0.975293)
(5.48978 -0.0624654 -1.0025)
(7.07532 0.497857 0.119558)
(7.10144 0.735335 1.04187)
(6.31805 0.511917 1.23087)
(5.61689 0.293391 1.09402)
(5.51422 0.345366 0.655103)
(5.59918 0.465965 -0.0581135)
(-24.041 5.52353 -5.67276)
(-0.119009 7.02975 -4.3297)
(-19.2107 -9.80329 5.98911)
(-0.517932 -5.2877 4.08446)
(-7.90549 -2.98079 -1.54057)
(2.18647 -2.67676 0.845514)
(0.12291 -0.929295 -0.610298)
(3.2033 0.0654258 -0.0668485)
(3.5538 0.414239 0.077652)
(4.03864 -0.214912 0.278197)
(4.38901 -0.979982 0.218046)
(4.98351 -0.850707 -0.325571)
(6.53066 0.0881502 -0.253691)
(7.28981 0.869484 0.45189)
(6.73919 0.741108 0.859522)
(5.94436 0.120273 0.910435)
(5.67357 -0.265682 0.887407)
(5.90136 -0.257503 0.603573)
(-22.5869 6.7493 -5.13824)
(9.7124 8.64892 -4.41212)
(-12.7822 -9.53893 4.47228)
(-1.45799 -5.22076 3.33407)
(-2.89392 -1.18447 0.476876)
(2.83875 -2.71118 0.907936)
(1.29362 -0.898119 0.00388982)
(3.08147 -0.706135 0.151342)
(4.27518 -0.322149 0.361271)
(5.43832 -0.468765 0.413351)
(5.84996 -0.982605 0.34616)
(5.31653 -1.16942 0.244816)
(5.30715 -0.366968 0.192695)
(5.76947 0.538002 0.433941)
(5.96661 0.575265 0.498464)
(6.19635 0.107697 0.367122)
(6.31263 -0.320329 0.404108)
(6.33046 -0.464495 0.430855)
(-22.4976 7.51268 -4.2275)
(20.4242 9.97329 -4.39196)
(-5.34193 -8.90808 4.20952)
(2.42429 -6.81988 3.46744)
(-0.793603 -3.12994 0.251285)
(3.2776 -3.32607 0.803006)
(3.27476 -1.37467 0.138004)
(4.52381 -0.983533 0.180083)
(5.22498 -0.708213 0.323006)
(5.89813 -0.624886 0.350362)
(6.58597 -0.722636 0.179131)
(6.5753 -0.89428 0.130462)
(5.91236 -0.60103 0.350017)
(5.72141 -0.0945963 0.430468)
(6.1475 -0.0917436 0.281572)
(6.71226 -0.460712 0.120186)
(7.04779 -0.68711 0.122821)
(7.06403 -0.659167 0.196268)
(-23.5004 7.26425 -3.15986)
(27.4624 9.5231 -3.46067)
(-0.681627 -7.62312 3.17589)
(4.04449 -6.14616 2.78583)
(2.20762 -1.96699 0.584229)
(4.48194 -2.8489 0.869021)
(4.40318 -1.41913 0.373493)
(5.35664 -1.02521 0.297633)
(6.06307 -0.917953 0.28858)
(6.46068 -0.952874 0.238887)
(6.74254 -0.987186 0.126327)
(6.9078 -0.900321 0.00488699)
(6.85915 -0.611342 0.0351092)
(6.89545 -0.34101 0.123935)
(7.21063 -0.388994 0.12603)
(7.52229 -0.646656 0.0796633)
(7.59782 -0.786666 0.0699728)
(7.42618 -0.689942 0.0923623)
(-24.849 6.29806 -2.186)
(30.9604 8.68054 -2.59377)
(3.40212 -6.24083 2.56422)
(6.88324 -5.94129 2.29882)
(4.92526 -2.99412 0.711343)
(5.67457 -3.17704 0.656278)
(5.69725 -1.93378 0.353745)
(6.19317 -1.32833 0.289637)
(6.70143 -1.00251 0.301323)
(7.04352 -0.842465 0.266964)
(7.22215 -0.808504 0.17357)
(7.25959 -0.789659 0.101739)
(7.24766 -0.643897 0.0939298)
(7.37002 -0.488842 0.0775697)
(7.60807 -0.540837 0.0500503)
(7.74799 -0.730695 0.0473895)
(7.64729 -0.802119 0.0805847)
(7.36208 -0.655857 0.122476)
(-26.2711 5.08254 -1.42445)
(32.147 7.61557 -1.89247)
(5.09996 -5.47731 2.02022)
(8.42967 -4.98619 1.54851)
(6.83685 -2.69111 0.544056)
(6.53111 -2.42306 0.432745)
(6.379 -1.58969 0.290204)
(6.58229 -1.04831 0.204292)
(6.87572 -0.835389 0.129107)
(7.10728 -0.784473 0.0334384)
(7.2591 -0.758032 -0.0409116)
(7.33807 -0.703534 -0.0538285)
(7.40475 -0.600869 -0.0141496)
(7.55201 -0.551152 0.00726796)
(7.67922 -0.654137 0.00825568)
(7.6024 -0.800041 0.0503526)
(7.23556 -0.77302 0.155461)
(6.80868 -0.541714 0.270687)
(-27.6862 3.85024 -0.873479)
(32.4762 6.27471 -1.29543)
(6.29628 -4.58232 1.4338)
(9.73662 -3.89445 0.837683)
(8.18993 -2.63063 0.341389)
(7.18682 -2.17965 0.261409)
(6.81156 -1.52291 0.229113)
(6.75298 -0.995461 0.217526)
(6.86824 -0.743696 0.109743)
(6.98366 -0.676058 -0.0573686)
(7.03885 -0.670588 -0.151186)
(7.08286 -0.657012 -0.13352)
(7.16865 -0.619745 -0.0822095)
(7.24894 -0.617178 -0.056471)
(7.1306 -0.698838 -0.00182203)
(6.71852 -0.761651 0.149204)
(6.07153 -0.645624 0.379063)
(5.53737 -0.368418 0.599409)
(-28.9323 2.66508 -0.49866)
(32.7582 4.53453 -0.718999)
(6.21292 -3.77772 0.857011)
(10.4887 -2.60559 0.243823)
(8.57867 -2.18636 0.175625)
(7.23261 -1.56365 0.172987)
(6.72641 -0.999185 0.178718)
(6.55716 -0.598767 0.20022)
(6.57282 -0.377761 0.0794863)
(6.57509 -0.339583 -0.0953455)
(6.55549 -0.424198 -0.163167)
(6.58017 -0.509861 -0.138521)
(6.59292 -0.529498 -0.103608)
(6.40883 -0.544531 -0.0357006)
(5.864 -0.621676 0.151122)
(5.15133 -0.672109 0.45146)
(4.50628 -0.571553 0.73422)
(4.12635 -0.341745 0.915614)
(-29.6614 1.50857 -0.241471)
(32.8226 2.29989 -0.314517)
(4.81171 -2.88693 0.492082)
(10.6694 -1.16788 -0.142827)
(7.98662 -1.69537 0.0855286)
(6.72323 -0.934325 0.135049)
(6.17901 -0.466276 0.189753)
(5.98213 -0.175288 0.191747)
(5.92794 -0.0399426 -0.0165311)
(5.82036 -0.132128 -0.262336)
(5.72686 -0.344998 -0.342883)
(5.68843 -0.487605 -0.273684)
(5.49328 -0.462665 -0.120718)
(4.93716 -0.42736 0.118304)
(4.22187 -0.591463 0.408728)
(3.70929 -0.806466 0.641504)
(3.42796 -0.782736 0.698195)
(3.4158 -0.517637 0.498745)
(-29.6768 0.482305 -0.0554235)
(32.5084 0.559724 -0.137052)
(2.63127 -1.82767 0.351676)
(10.3872 0.192846 -0.37789)
(6.53666 -1.2447 0.0470359)
(5.74467 -0.111363 0.173193)
(5.18538 0.0452873 0.306686)
(5.03889 0.266351 0.310432)
(4.99932 0.50403 0.0367601)
(4.89521 0.404575 -0.272402)
(4.77862 0.0372599 -0.353614)
(4.60089 -0.204841 -0.20658)
(4.22051 -0.224184 0.0422802)
(3.712 -0.366188 0.265759)
(3.26472 -0.734821 0.333391)
(2.97313 -0.900335 0.124942)
(2.7958 -0.592168 -0.278298)
(2.75215 -0.0527969 -0.676915)
(-29.2106 -0.497292 0.1002)
(31.2026 -1.21384 0.237625)
(-0.557432 -1.03011 0.469949)
(9.72768 1.21008 -0.544653)
(4.61956 -0.906462 0.0204317)
(4.76163 0.7285 0.159322)
(3.93144 0.50243 0.482336)
(4.11381 0.715467 0.63865)
(4.29584 0.732277 0.253808)
(4.10721 0.392237 -0.241283)
(3.79869 -0.0806721 -0.375313)
(3.57436 -0.323235 -0.169672)
(3.46332 -0.377554 0.0514278)
(3.38695 -0.492593 0.0635507)
(3.06027 -0.643052 -0.0720309)
(2.56817 -0.603722 -0.283529)
(2.28545 -0.299334 -0.540505)
(2.2871 0.167635 -0.768454)
(-28.6846 -1.79412 0.247988)
(30.2684 -0.450778 1.08656)
(-3.36832 2.11393 0.468338)
(9.07732 2.19603 -0.781499)
(2.15653 0.051895 0.0217963)
(4.1614 1.98706 0.406394)
(2.63331 0.754387 0.493719)
(3.24398 1.1837 0.29807)
(3.32003 1.56399 -0.0547058)
(3.06167 1.33323 -0.334947)
(3.00246 0.688811 -0.418387)
(3.24166 0.157348 -0.311328)
(3.6578 -0.0848926 -0.185583)
(4.01709 -0.196318 -0.20903)
(3.92551 -0.316813 -0.265456)
(3.38667 -0.332636 -0.179841)
(2.835 -0.183097 -0.0379724)
(2.53835 0.0733508 0.0233189)
(-28.0185 -4.26375 0.415639)
(29.9215 -6.18659 3.39559)
(4.58504 0.817606 1.12111)
(4.36886 3.0659 -0.716592)
(-2.99025 -0.797277 0.0579033)
(3.16305 2.32556 0.549906)
(0.977194 0.62311 1.61804)
(2.06827 0.853452 1.65575)
(1.9277 0.93465 1.17844)
(2.4247 0.43442 0.849052)
(3.19071 -0.322631 0.533915)
(3.86382 -0.917996 0.186712)
(4.3578 -1.09162 -0.0785698)
(4.77402 -0.805423 -0.207607)
(5.15222 -0.31659 -0.240617)
(5.37443 0.00551886 -0.116558)
(5.28806 0.0677688 0.223179)
(4.74244 0.086183 0.607764)
(-27.0012 -6.41139 0.725791)
(0.117493 2.03368 3.47772)
(-28.1846 13.1683 7.02611)
(18.4211 4.78616 0.503763)
(-0.843982 1.91303 0.0535547)
(4.46931 6.12111 3.501)
(3.63874 2.97034 2.73938)
(5.61434 2.07682 1.89684)
(6.85774 1.95174 1.17803)
(7.93546 1.6907 1.29758)
(8.54634 1.23791 1.79986)
(8.42112 0.628168 1.79684)
(7.93412 0.0530075 1.33759)
(7.4936 -0.254386 1.01279)
(7.31049 -0.307973 0.897377)
(7.31695 -0.229101 0.898619)
(7.52126 -0.0409666 0.984994)
(7.67869 0.167182 1.12628)
(-34.2901 -2.00863 1.43238)
(-5.52222 -0.649181 -0.968109)
(-37.1995 4.83561 -5.80031)
(15.3113 -1.09204 -3.41823)
(-22.5589 -0.155928 -0.69066)
(13.3173 1.11772 0.299712)
(7.00423 0.81147 0.484982)
(5.41159 0.341211 0.52898)
(4.16239 -0.838657 0.0443171)
(3.95616 -0.984276 -0.0490012)
(4.60087 -0.561605 0.428083)
(4.92191 -0.202096 1.1522)
(5.50296 0.0305546 1.16058)
(6.67929 0.300406 0.272072)
(7.66598 0.631155 -0.543167)
(8.14093 0.851109 -0.82092)
(8.35562 0.917565 -0.711181)
(8.52551 0.889721 -0.404894)
(-29.2786 3.07498 2.14435)
(3.35113 -5.57287 -1.0344)
(-33.2307 -14.0771 -7.64397)
(18.2369 -3.75541 -5.2096)
(-8.03223 -4.08922 -1.89122)
(7.26365 -5.54953 3.867)
(-0.718662 0.836787 1.09415)
(3.0517 1.23371 -0.14003)
(3.16975 -0.135701 -0.639249)
(3.71055 -1.20845 -0.981586)
(3.39955 -1.66543 -0.969994)
(2.83404 -1.56505 -0.448544)
(2.88295 -1.21201 0.0128278)
(3.449 -0.581531 -0.0651717)
(4.1088 0.0133947 -0.482568)
(4.68971 0.39789 -0.913134)
(5.09626 0.480888 -1.22404)
(5.48767 0.277094 -1.2605)
(-27.6326 -0.394813 0.849203)
(27.5494 6.98822 1.01258)
(-16.2353 1.11575 2.42581)
(12.8269 -2.26328 0.0776248)
(-4.28686 -1.11654 0.0412957)
(5.14938 -0.492456 -1.19367)
(1.96229 1.15344 0.261492)
(4.13028 0.775598 3.0383)
(3.19608 0.124529 3.99387)
(4.18925 0.308415 2.88637)
(5.2239 -0.889824 0.527494)
(3.79002 -2.74332 0.0869766)
(2.32973 -3.33323 0.406421)
(1.99878 -2.16057 0.210562)
(1.86249 -0.804368 -0.155745)
(1.66969 -0.0354808 -0.157042)
(1.53932 0.347299 0.182902)
(1.60416 0.520451 0.554085)
(-30.4097 -2.46065 3.4846)
(23.4641 4.64501 4.87802)
(-19.8222 7.97596 -9.69171)
(14.5339 8.66047 -7.3079)
(-0.867273 6.54033 0.155971)
(4.88253 0.665158 2.3922)
(1.52441 0.288268 -0.695268)
(4.04566 -0.88261 -0.62922)
(5.09875 -0.970032 -0.1836)
(5.9382 -0.551185 0.283202)
(5.63897 0.19617 0.73565)
(4.11254 -0.199046 1.11435)
(2.22076 -1.402 0.601577)
(1.49949 -1.2862 -0.36542)
(1.08601 -0.271276 -1.00841)
(0.705731 0.285523 -1.26943)
(0.293404 0.358053 -1.47672)
(0.118326 0.234197 -1.58054)
(-29.6879 -2.21723 -2.65268)
(28.9337 -7.43774 -10.0364)
(-6.31453 1.52034 2.64062)
(2.51439 1.4649 5.39797)
(-0.122891 0.974369 1.24534)
(6.39705 -1.21775 -3.2795)
(5.89371 -1.49921 -1.82132)
(7.32533 -1.61621 0.023331)
(7.87348 -1.07396 0.758954)
(8.38878 -0.73328 0.227631)
(8.22013 -0.27613 -0.707638)
(5.86569 0.694124 -0.488203)
(2.65413 1.26253 0.792008)
(1.43908 0.706159 0.869856)
(1.09555 0.296899 -0.347829)
(0.641682 0.522318 -1.06237)
(0.138171 0.501365 -1.11807)
(-0.250015 0.199772 -0.731088)
(-28.9187 -2.0099 -2.4211)
(8.19508 0.438593 3.25851)
(-25.8515 4.74389 11.9014)
(12.8415 -0.374766 7.9185)
(10.3017 -2.33694 4.21423)
(9.74828 -2.73297 1.54682)
(1.4736 0.496833 2.37929)
(3.65687 0.386263 0.91807)
(4.48122 -0.314783 -0.649023)
(3.28886 0.19043 -0.312486)
(1.54151 1.2385 -0.0445293)
(0.529665 1.71398 0.709145)
(-0.117583 1.1401 1.44357)
(0.0370246 1.08965 1.23312)
(0.143166 1.42973 0.560568)
(0.00942514 1.44076 0.235558)
(-0.384937 1.32095 0.382416)
(-0.662745 0.952436 0.555336)
(-28.4279 -0.843902 -0.34716)
(0.514666 3.66868 2.76559)
(-32.339 -0.723731 2.10372)
(15.3846 -1.90679 4.24457)
(5.32338 -2.24952 1.95887)
(2.52287 0.738289 2.88409)
(1.22642 0.487632 3.53706)
(0.985428 -0.030011 3.25521)
(3.04262 1.48039 -0.605806)
(1.90557 1.38959 -1.02264)
(0.180076 1.18628 0.102858)
(0.0696863 1.48801 0.784627)
(0.351736 1.22725 0.609631)
(0.0058134 1.05621 0.544669)
(-0.413786 1.41941 0.532075)
(-0.56868 1.62118 0.370238)
(-0.594892 1.52939 0.368931)
(-0.346485 0.959492 0.439501)
(-28.2008 0.178842 0.114335)
(-0.706163 6.67432 1.04403)
(-22.3476 -0.745046 1.79296)
(15.4382 1.87714 4.84444)
(8.57766 1.64905 3.44159)
(6.29998 0.777416 2.69584)
(5.19001 0.580294 2.76298)
(2.41632 0.0815423 2.60822)
(1.89698 0.703612 0.99665)
(3.46817 1.99954 -0.554394)
(2.93595 2.20544 -0.578484)
(2.22872 1.48314 -0.166231)
(2.44844 0.734603 0.185521)
(3.09609 0.234665 0.187292)
(3.53119 0.0013505 -0.178515)
(3.37299 -0.0662189 -0.377281)
(2.71167 -0.188905 -0.359568)
(2.43295 -0.589573 -0.378233)
(-28.5925 -0.845316 0.22204)
(22.0472 7.3586 1.15847)
(-15.7142 1.15182 9.07526)
(14.3112 3.56226 11.1563)
(2.92151 3.78191 4.42311)
(5.58526 3.00433 2.86683)
(4.77237 1.5678 3.15722)
(3.09481 1.16656 2.87744)
(0.392408 0.0720959 1.88685)
(2.06152 -0.396033 0.255487)
(3.67003 0.795624 -0.0581398)
(3.64086 1.31324 0.314097)
(3.15821 1.00064 0.740138)
(3.54443 0.55713 0.176028)
(4.47673 0.0809112 -0.784322)
(5.21675 -0.380463 -1.5366)
(5.93264 -0.978076 -2.24917)
(6.59977 -1.70493 -3.00019)
(-29.1341 -2.06226 -0.794947)
(28.4747 11.3245 -0.979689)
(-3.72697 5.26727 10.85)
(1.07053 2.23054 9.2531)
(-6.3938 5.46688 2.89638)
(4.22523 3.21425 3.27144)
(3.0619 2.04904 2.71715)
(1.95668 2.15032 2.31557)
(1.04023 1.21198 1.75639)
(1.74997 -0.910415 0.38706)
(2.34249 -0.442709 0.53595)
(2.96337 1.02879 1.01512)
(2.99046 1.61719 1.46214)
(4.07199 0.795253 1.31655)
(6.2042 -0.883236 0.681669)
(7.79381 -2.08839 0.17789)
(8.64085 -2.7303 -0.433221)
(8.88861 -3.18271 -1.61683)
(-30.9468 -2.01679 -2.05761)
(31.0779 12.5026 -7.00419)
(7.2548 8.7635 5.67444)
(-1.93218 3.07658 5.63422)
(-7.20223 0.0654159 2.18423)
(5.50398 0.51644 2.81975)
(3.83655 1.20771 2.16288)
(2.37535 1.58487 2.16053)
(1.92085 1.59002 2.58673)
(2.71514 0.34685 1.41148)
(2.54002 -0.372893 0.438693)
(2.56207 0.268349 1.00697)
(3.31513 0.419753 1.69038)
(5.89561 -0.861047 0.992816)
(9.19965 -2.53022 -0.210711)
(11.0209 -3.57334 -0.729178)
(10.1307 -3.30351 -1.00626)
(7.24947 -1.54541 -2.02838)
(-34.5224 -1.82058 -3.29603)
(33.5838 9.17944 -6.40364)
(10.7376 9.55817 0.750095)
(6.98215 4.33486 6.63662)
(2.49535 -2.99155 4.20404)