/*--------------------------------*- C++ -*----------------------------------*\
| =========                 |                                                 |
| \\      /  F ield         | OpenFOAM: The Open Source CFD Toolbox           |
|  \\    /   O peration     | Version:  2112                                  |
|   \\  /    A nd           | Website:  www.openfoam.com                      |
|    \\/     M anipulation  |                                                 |
\*---------------------------------------------------------------------------*/
FoamFile
{
    version     2.0;
    format      ascii;
    arch        "LSB;label=32;scalar=64";
    class       volScalarField;
    location    "0.07";
    object      omega;
}
// * * * * * * * * * * * * * * * * * * * * * * * * * * * * * * * * * * * * * //

dimensions      [0 0 -1 0 0 0 0];

internalField   nonuniform List<scalar> 
12225
(
52304.8
72145.8
78122.1
78984
78095.6
76666.2
75132.6
73593.1
72093.4
70664.6
69323.2
68073.6
66910.1
65812.3
64746.6
63749.9
62627.5
61218.6
4126.02
8503.83
12134.1
15019.8
17305.8
19173.8
20812.5
22355.1
23846.8
25294.5
26692.8
28029.1
29278
30415.4
31408.8
32219.4
32824.6
33053.7
226.716
830.955
1644.11
2393.82
3174.48
3944.22
4700.94
5465.85
6247.15
7051.13
7887.56
8769.53
9707.66
10710.8
11778.2
12904.2
14077.2
15277.8
73.8869
139.009
221.441
334.24
497.914
746.699
1028.1
1230.16
1447.67
1681.23
1931.32
2200.88
2498.07
2835.39
3225.08
3681.35
4216
4846.72
47.0992
71.2027
95.0147
119.329
146.421
181.023
221.935
268.883
322.974
386.022
470.118
575.67
702.663
804.946
896.338
1004.13
1133.86
1292.14
36.6513
49.7271
62.1486
74.1769
86.0829
98.5374
111.377
124.528
138.085
152.4
169.973
189.924
211.837
235.848
262.478
295.772
337.096
385.133
31.9288
40.1891
47.7872
55.1186
62.2391
69.3043
76.3034
83.2128
90.0355
96.8311
103.954
111.383
119.026
126.856
134.945
144.441
155.404
166.941
30.2212
35.339
40.5585
45.44
50.1348
54.7322
59.2162
63.5964
67.8725
72.0606
76.2332
80.4148
84.5988
88.7773
92.9625
97.3059
101.871
106.484
30.1053
33.0034
36.5517
40.0818
43.4572
46.6646
49.746
52.7642
55.6996
58.5553
61.3515
64.1022
66.8139
69.4901
72.1379
74.785
77.4442
80.0348
30.7903
32.3354
34.4862
36.954
39.4652
41.8916
44.2106
46.4179
48.5461
50.61
52.6217
54.5892
56.5196
58.421
60.3025
62.1729
64.0273
65.793
31.8909
32.6734
33.8697
35.3851
37.0955
38.8958
40.6951
42.4094
44.0539
45.6396
47.1745
48.665
50.1145
51.5265
52.9038
54.2481
55.5551
56.7816
29.5917
29.9541
30.5485
31.3529
32.3253
33.4212
34.5909
35.7741
36.9372
38.0654
39.1546
40.2051
41.2165
42.1863
43.111
43.9883
44.8167
45.5777
33.6811
33.863
34.192
34.6701
35.2847
36.0178
36.8462
37.7355
38.6503
39.5634
40.4584
41.3267
42.1626
42.9604
43.7148
44.4226
45.0817
45.6792
38.3765
38.4248
38.5645
38.7892
39.1057
39.5105
39.9948
40.5441
41.1391
41.76
42.3899
43.016
43.6287
44.2202
44.7846
45.318
44.7829
44.0141
43.758
43.7115
43.7216
43.777
43.8834
44.0433
44.2552
44.5143
44.8131
45.1424
45.4928
44.9945
44.1384
43.2936
42.4554
41.6209
40.7878
39.9494
49.9151
49.8054
49.7282
49.6792
49.6554
49.6605
48.9516
47.6992
46.503
45.3574
44.2565
43.195
42.1678
41.1706
40.1999
39.2528
38.3268
37.4172
56.9506
56.1664
54.5323
52.9637
51.455
50.0042
48.6091
47.2671
45.9752
44.7306
43.5302
42.3711
41.2508
40.1665
39.1162
38.0976
37.1089
36.1472
57.8668
56.158
54.5122
52.9274
51.4007
49.9289
48.5098
47.141
45.82
44.5448
43.3131
42.1228
40.9719
39.8586
38.781
37.7375
36.7265
35.7463
57.8682
56.1643
54.5275
52.9563
51.4463
49.9929
48.5942
47.2476
45.9509
44.7015
43.4973
42.3359
41.2149
40.1322
39.0857
38.0733
37.093
36.1426
57.8795
56.213
54.6404
53.1564
51.7454
50.4013
49.1227
47.9063
46.7481
45.6435
44.5875
43.5752
42.6016
41.6612
40.75
39.8642
39.0006
38.155
54.9731
54.985
55.0025
53.7553
52.6018
51.5402
50.565
49.6636
48.8229
48.03
47.2732
46.5423
45.8258
45.1082
44.3878
43.6639
42.9354
42.1983
50.2507
50.6044
51.2126
52.002
52.9273
53.9821
54.1396
53.8468
53.5511
53.2346
52.8866
52.5006
52.0707
51.5934
51.0761
50.5221
49.9325
49.3025
46.1894
47.3475
48.9378
50.7925
52.8259
54.9619
57.1294
59.26
61.3331
62.8619
63.0407
63.0975
63.048
62.9191
62.7141
62.4365
62.088
61.6608
43.1285
46.023
49.451
53.1249
56.883
60.6045
64.2114
67.7131
71.0978
74.3654
77.5349
80.622
83.6345
84.5395
85.0075
85.3294
85.5126
85.5468
42.0514
48.3913
55.1619
62.0115
68.7605
75.3277
81.6734
87.7897
93.6826
99.3935
105.062
110.731
116.383
122
127.575
133.101
136.794
138.31
45.491
58.7639
72.4926
86.1314
99.4842
112.53
125.289
137.808
150.162
162.652
176.62
191.812
207.709
224.184
241.243
258.918
277.241
296.186
60.8955
91.9196
126.423
163.458
203.353
246.977
295.117
348.466
407.749
474.935
560.64
645.829
700.399
758.398
819.219
882.5
948.01
1015.49
131.708
272.69
514.502
854.997
1095.79
1353.23
1620.03
1892.74
2171.13
2455.86
2744.88
3037.35
3334.54
3635.54
3939.23
4244.87
4552.37
4862.24
1910.42
3958.29
5884.24
7566.61
9004.21
10225.4
11274.1
12199
13045.9
13844.8
14609.4
15345.2
16054.7
16738.8
17398.2
18033.8
18647.3
19238.2
34898.1
51342.3
58077.3
60446.2
60983.2
60772.4
60260
59631.1
58960.3
58270.4
57572.3
56873.6
56181.1
55501.9
54843
54210.8
53607.5
53038
46.4642
47.4253
49.2284
51.9452
55.643
60.334
65.9588
72.3798
79.4059
86.8326
94.4873
102.229
109.937
117.573
125.225
133.107
141.514
150.854
161.978
176.202
194.527
217.263
244.285
275.303
309.976
348.001
389.206
433.635
481.715
534.213
591.944
655.75
726.442
804.666
890.427
983.926
1085.7
1196.19
1315.87
1445.23
1584.76
1735.02
1896.64
2070.47
2257.52
2457.65
2669.1
2890.33
3120.44
3358.82
3604.81
3857.47
4115.71
4378.37
4644.3
4912.43
5181.9
5452.2
5697.21
5907.2
6111.8
6309.86
6500.84
6684.45
6860.58
7029.3
7190.79
7345.38
7493.48
7635.58
7772.21
7903.92
8031.28
8154.81
8275.06
8392.51
8507.67
8621.09
8733.28
8844.68
8955.6
9066.36
9177.21
9288.37
9400.08
9512.5
9625.77
9740.02
9855.34
9971.88
10089.9
10210
10331.3
10452.6
10573.4
10693.1
10811.2
10926.9
11039.5
11148
11251.6
11349.4
11440.2
11523
11596.8
11660.5
11713
11753.2
11779.7
11791.4
11786.9
11764.9
11723.5
11659.6
11575.6
11468.9
11337.4
11179.2
10992.5
10776.3
10511.9
10122.2
9697.26
9235.55
8734.94
8193.2
7612.28
6998.75
6359.96
5705.18
5046.53
4398.73
3778.81
3205.69
2699.75
2282.34
1974.25
1797.06
1763.77
1897.08
2155.89
2531.63
3007.18
3562.49
4180.61
4844.32
5538.5
6246.53
6958.8
7662.64
8340.66
8979.96
9573.8
10118.5
10614.2
11064
11475
11851.2
12196.7
12514.3
12806.6
13075.8
13323.8
13551.9
13760.3
13949.3
14119
14269.1
14400.8
14512.4
14596.5
14654.2
14684.3
14682.8
14644
14560.7
14427.1
14226.4
13922.9
13453.6
48.6069
49.1437
50.4113
52.4645
55.3743
59.1584
63.7568
69.0321
74.7936
80.8362
86.9716
93.0448
98.9505
104.648
110.183
115.738
121.742
129.011
138.673
151.635
168.198
188.248
211.554
237.853
266.895
298.493
332.488
368.888
407.986
450.401
496.973
548.154
604.248
665.347
731.427
802.48
878.533
959.59
1045.64
1136.63
1232.43
1332.86
1437.64
1546.38
1658.51
1773.34
1890.27
2008.78
2128.52
2248.9
2368.57
2486.01
2600.31
2710.96
2817.46
2919.18
3015.46
3105.71
3189.41
3266.87
3339.47
3407.31
3470.5
3529.58
3585.1
3637.58
3687.42
3734.95
3780.39
3823.63
3864.77
3903.86
3941.04
3976.56
4010.72
4044.14
4077.5
4110.78
4142.98
4173.78
4203.51
4232.35
4260.49
4288.1
4315.02
4341
4365.98
4389.88
4412.97
4435.84
4458.91
4468.53
4464.56
4460.01
4455.17
4450.74
4447.46
4446.13
4447.17
4450.16
4453.91
4457.05
4458.02
4455.02
4446.28
4430.61
4406.64
4372.73
4327.08
4268.02
4194.2
4105.54
4003.85
3890.68
3765.44
3628.54
3480.94
3324.69
3161.98
2994.38
2823.2
2650.26
2480.24
2319.86
2177.52
2059.16
1960.18
1870.26
1786.83
1710.21
1640.67
1578.45
1523.72
1476.52
1436.81
1404.69
1380.57
1365.77
1363.82
1372.03
1383.41
1396.96
1415.46
1440.46
1473.14
1515.73
1584.58
1736.43
1957.89
2209.97
2471.88
2732.76
2991.44
3247.99
3500.94
3748.33
3988.7
4219.41
4437.08
4637.6
4816.39
4968.63
5089.89
5177.03
5229.59
5250.7
5248.59
5237.28
5234.3
5254.77
5311.47
5397.92
5499.77
5604.67
5703.54
5790.02
5860.89
5916.8
5975.02
6050.3
53.1096
52.4656
52.7033
53.7216
55.6072
58.3924
62.0272
66.3823
71.2707
76.4811
81.8163
87.1187
92.2889
97.2968
102.2
107.199
112.744
119.662
129.034
141.648
157.615
176.658
198.461
222.778
249.424
278.171
308.945
341.854
377.175
415.383
457.043
502.257
551.046
603.341
659.011
717.903
779.856
844.663
912.074
981.764
1053.33
1126.29
1200.06
1273.98
1347.32
1419.35
1489.37
1556.64
1620.45
1680.17
1735.28
1785.37
1830.34
1870.32
1905.51
1936.09
1962.19
1984.17
2002.51
2017.91
2030.61
2041.11
2049.88
2057.29
2063.58
2068.95
2073.69
2077.81
2081.46
2084.76
2087.92
2091.07
2094.4
2098.04
2102.07
2106.55
2111.42
2116.55
2121.83
2127.19
2132.43
2137.45
2142.19
2146.57
2150.45
2153.72
2156.18
2157.74
2158.32
2157.82
2156.06
2146.47
2129.8
2112.31
2093.93
2074.62
2054.38
2033.19
2011.04
1987.85
1963.44
1937.69
1910.57
1882.12
1852.39
1821.69
1790.18
1758.05
1725.42
1692.43
1660.32
1629.25
1597.75
1566.1
1534.46
1503
1471.97
1441.71
1412.59
1384.93
1359.03
1335.27
1314.21
1296.45
1282.2
1271.13
1262.32
1254.87
1248.39
1242.64
1237.34
1232.37
1227.76
1223.36
1218.64
1213.19
1206.21
1195.96
1179.94
1160.27
1137.58
1113.08
1088.16
1063.59
1040.18
1018.86
1001.29
990.997
988.464
992.038
1003.55
1034.11
1081.29
1139
1204.99
1279.16
1361.87
1453.14
1553.68
1663.71
1782.55
1908.86
2040.74
2175.9
2311.91
2446.17
2576.25
2698.44
2808.63
2909.39
2999.47
3075.85
3133.39
3167.98
3180.77
3180.76
3183.53
3204.86
3259.79
3354.52
59.3375
56.7415
55.5473
55.2841
56.0253
57.7948
60.5346
64.1074
68.3177
72.9457
77.7857
82.6749
87.5156
92.291
97.0914
102.174
108.058
115.576
125.641
138.712
154.676
173.282
194.279
217.399
242.452
269.367
298.115
328.786
361.621
397.068
435.253
476.165
519.725
565.783
614.147
664.573
716.773
770.389
825
880.106
935.142
989.486
1042.48
1093.48
1141.85
1187.05
1228.58
1266.02
1299.06
1327.48
1351.22
1370.3
1384.89
1395.24
1401.66
1404.53
1404.29
1401.42
1396.43
1389.83
1382.03
1373.46
1364.51
1355.49
1346.66
1338.24
1330.36
1323.12
1316.62
1310.91
1306.05
1302.05
1298.9
1296.56
1294.97
1294.06
1293.74
1293.92
1294.51
1295.39
1296.44
1297.59
1298.73
1299.78
1300.66
1301.25
1301.48
1301.28
1300.63
1299.48
1297.8
1291.86
1282.05
1272.09
1261.97
1251.72
1241.35
1230.91
1220.45
1210.02
1199.7
1189.56
1179.66
1170.12
1161.08
1152.62
1144.86
1137.9
1131.84
1126.78
1122.09
1117.64
1113.41
1109.44
1105.77
1102.43
1099.46
1096.87
1094.66
1092.82
1091.38
1090.44
1089.99
1089.93
1090.12
1090.48
1090.92
1091.37
1091.71
1091.8
1091.33
1089.9
1087.09
1082.61
1076.15
1067.64
1055.93
1040.73
1021.63
999.319
974.662
948.749
922.265
895.523
868.903
842.859
817.82
794.227
772.441
752.54
734.683
719.545
707.029
696.784
688.691
682.909
680.852
684.955
695.353
711.513
733.374
761.264
795.659
837.321
887.485
947.604
1019.16
1104.17
1203.01
1314.45
1435.49
1561.46
1686.06
1802.31
1904.31
1988.74
2055.72
2107.86
2151.7
2196.58
66.94
61.649
58.7173
57.0367
56.5999
57.4029
59.3569
62.295
65.9977
70.2285
74.7718
79.4621
84.2084
89.0166
94.0309
99.6132
106.433
115.417
127.107
140.939
156.552
174.395
194.388
216.378
240.253
265.863
293.058
321.903
352.636
385.606
420.997
458.513
497.98
539.204
581.936
625.862
670.604
715.704
760.648
804.871
847.788
888.817
927.403
963.052
995.338
1023.91
1048.49
1068.89
1085.01
1096.8
1104.39
1107.97
1107.86
1104.45
1098.22
1089.68
1079.39
1067.87
1055.66
1043.22
1030.95
1019.17
1008.14
998.045
989.005
981.088
974.306
968.641
964.056
960.491
957.88
956.169
955.257
955.065
955.506
956.51
958.01
959.938
962.228
964.807
967.624
970.619
973.735
976.923
980.13
983.313
986.443
989.505
992.501
995.446
998.405
998.496
995.875
993.394
991.072
988.93
986.98
985.241
983.736
982.48
981.492
980.77
980.372
980.295
980.535
981.09
981.96
983.164
984.622
986.214
987.881
989.566
991.251
992.894
994.468
995.948
997.319
998.559
999.648
1000.57
1001.32
1001.83
1002.12
1002.17
1001.96
1001.48
1000.69
999.529
997.892
995.652
992.586
988.432
982.822
975.537
965.868
953.982
939.457
921.848
900.997
877.256
851.428
824.538
797.287
770.091
743.29
717.192
692.071
668.204
645.772
624.858
605.478
587.637
571.251
556.262
542.595
530.228
519.293
509.987
502.279
496.093
491.418
488.379
487.509
489.425
494.367
502.506
514.25
530.941
556.065
591.295
638.893
700.75
777.74
869.175
972.514
1083.47
1196.76
1306.55
1409.14
1501.97
75.8322
67.1328
62.177
58.9719
57.3526
57.2538
58.5289
60.9581
64.2821
68.2412
72.6114
77.2321
82.0329
87.0672
92.5853
99.1658
107.864
119.493
132.84
146.822
161.561
177.971
196.7
217.605
240.31
264.601
290.358
317.597
346.494
377.409
410.306
444.791
480.713
517.854
555.916
594.514
633.202
671.478
708.813
744.676
778.553
809.973
838.507
863.8
885.569
903.591
917.712
927.868
934.088
936.484
935.329
930.987
923.929
914.684
903.827
891.943
879.59
867.271
855.423
844.382
834.397
825.634
818.169
812.022
807.164
803.515
800.972
799.421
798.751
798.853
799.647
801.036
802.93
805.265
807.98
811.037
814.401
818.044
821.937
826.053
830.372
834.862
839.5
844.257
849.1
854.007
858.966
863.982
869.058
874.27
879.639
882.583
883.208
883.989
884.939
886.059
887.352
888.806
890.415
892.16
894.05
896.075
898.23
900.501
902.87
905.305
907.867
910.503
913.165
915.819
918.433
920.96
923.366
925.613
927.661
929.436
930.924
932.122
933.032
933.661
934.032
934.181
934.142
933.947
933.608
933.104
932.355
931.227
929.597
927.185
923.567
918.492
911.35
902.066
890.316
875.837
858.439
837.964
814.467
788.354
760.362
731.389
702.225
673.474
645.623
619.014
593.834
570.216
548.204
527.81
508.995
491.713
475.945
461.662
448.801
437.273
426.96
417.743
409.519
402.203
395.729
390.072
385.274
381.388
378.428
376.406
375.394
375.654
378.257
384.045
394.138
410.119
434.103
468.558
515.93
578.058
655.583
747.658
852.015
962.812
86.2708
73.2953
66.0023
61.1446
58.353
57.4228
58.1181
60.1439
63.1892
66.9674
71.2502
75.8933
80.8651
86.294
92.584
100.615
111.367
124.407
138.561
152.959
167.41
182.767
200.109
219.733
241.264
264.303
288.674
314.367
341.61
370.573
401.032
432.762
465.555
499.141
533.168
567.217
600.829
633.522
664.819
694.261
721.424
745.927
767.446
785.715
800.523
811.725
819.261
823.179
823.619
820.858
815.307
807.465
797.904
787.219
775.99
764.762
754.008
744.101
735.318
727.83
721.711
716.967
713.53
711.308
710.175
709.987
710.596
711.886
713.728
716.055
718.774
721.805
725.097
728.615
732.332
736.241
740.34
744.627
749.102
753.761
758.603
763.61
768.769
774.056
779.443
784.911
790.446
796.065
801.787
807.643
813.658
817.412
818.993
820.675
822.455
824.328
826.287
828.318
830.417
832.581
834.802
837.079
839.407
841.784
844.194
846.754
849.378
852.024
854.67
857.28
859.785
862.128
864.279
866.206
867.897
869.358
870.612
871.683
872.617
873.469
874.299
875.164
876.091
877.079
878.152
879.25
880.215
880.642
880.355
878.968
875.67
870.163
862.089
851.085
836.883
819.338
798.476
774.476
747.71
718.789
688.513
657.733
627.224
597.594
569.318
542.699
517.899
494.997
473.98
454.765
437.245
421.343
406.973
394.014
382.359
371.909
362.568
354.241
346.814
340.173
334.222
328.892
324.135
319.923
316.248
313.117
310.552
308.598
307.396
307.262
308.408
311.442
317.273
327.214
343.126
367.467
403.085
452.849
519.32
602.122
98.8118
80.3255
70.3102
63.6346
59.6587
57.9692
58.176
59.8885
62.7366
66.4084
70.6775
75.4283
80.6884
86.6926
94.0176
103.581
115.625
129.262
143.858
158.451
172.8
187.573
203.81
222.101
242.373
264.155
287.17
311.44
337.073
364.056
392.261
421.459
451.399
481.782
512.248
542.382
571.761
599.951
626.54
651.135
673.385
692.981
709.647
723.164
733.374
740.203
743.679
743.953
741.269
736.041
728.773
720.031
710.41
700.491
690.784
681.723
673.649
666.79
661.252
657.062
654.171
652.487
651.874
652.186
653.281
655.019
657.243
659.893
662.876
666.106
669.528
673.102
676.801
680.616
684.538
688.579
692.758
697.079
701.556
706.195
710.999
715.953
721.043
726.246
731.536
736.894
742.319
747.819
753.407
759.116
764.947
768.622
770.224
771.879
773.584
775.327
777.111
778.936
780.804
782.719
784.687
786.709
788.781
790.901
793.227
795.634
798.059
800.461
802.814
805.084
807.242
809.283
811.207
813.03
814.764
816.462
818.171
819.944
821.829
823.911
826.252
828.9
831.858
834.919
838.081
841.253
844.331
846.363
847.047
845.941
842.472
836.082
826.292
812.747
795.28
773.96
749.102
721.221
691.007
659.285
626.948
594.845
563.686
534.002
506.166
480.379
456.721
435.179
415.671
398.077
382.282
368.14
355.467
344.087
333.851
324.638
316.357
308.928
302.274
296.319
290.987
286.202
281.899
278.036
274.585
271.535
268.887
266.655
264.863
263.693
263.154
263.394
264.681
267.508
272.691
281.474
295.71
317.953
351.49
399.021
114.243
88.5879
75.2788
66.5498
61.34
58.9429
58.747
60.2285
62.9547
66.5924
70.9265
75.88
81.55
88.2733
96.7268
107.517
120.205
134.129
148.75
163.25
177.432
191.81
207.219
224.295
243.24
263.772
285.527
308.413
332.427
357.543
383.635
410.461
437.781
465.294
492.652
519.476
545.386
570.005
592.973
613.964
632.671
648.819
662.162
672.521
679.795
683.971
685.15
683.559
679.529
673.534
666.115
657.839
649.275
640.937
633.239
626.495
620.915
616.597
613.538
611.678
610.899
611.074
612.068
613.718
615.895
618.522
621.477
624.676
628.055
631.563
635.164
638.832
642.556
646.337
650.175
654.094
658.112
662.241
666.499
670.895
675.435
680.099
684.873
689.737
694.672
699.67
704.727
709.852
715.06
720.375
725.798
729.167
730.563
731.996
733.465
734.967
736.506
738.089
739.725
741.414
743.165
744.98
746.862
748.943
751.08
753.242
755.41
757.58
759.74
761.888
764.026
766.168
768.346
770.608
772.996
775.56
778.364
781.469
784.839
788.537
792.651
797.224
802.414
807.694
812.826
817.695
821.894
824.872
826.029
824.694
820.194
811.904
799.352
782.273
760.701
734.99
705.79
673.956
640.466
606.316
572.454
539.674
508.58
479.58
452.903
428.625
406.704
387.032
369.464
353.842
339.974
327.644
316.649
306.809
297.971
290.011
282.831
276.349
270.497
265.219
260.463
256.178
252.32
248.844
245.718
242.918
240.433
238.264
236.419
235.009
234.041
233.566
233.671
234.517
236.396
239.827
245.707
255.448
271.147
295.392
133.578
98.5102
81.118
70.0124
63.4838
60.3987
59.8689
61.203
63.8886
67.5744
72.0632
77.3193
83.4965
90.982
100.416
112.039
125.045
138.957
153.295
167.469
181.358
195.333
210.042
226.107
243.843
263.172
283.712
305.212
327.657
350.989
375.06
399.679
424.611
449.576
474.255
498.314
521.42
543.246
563.495
581.871
598.086
611.896
623.092
631.531
637.145
639.961
640.123
637.895
633.642
627.851
621.057
613.796
606.584
599.862
593.969
589.115
585.412
582.874
581.436
581.005
581.443
582.6
584.392
586.68
589.356
592.335
595.547
598.934
602.449
606.051
609.709
613.401
617.116
620.856
624.618
628.431
632.308
636.262
640.312
644.467
648.73
653.09
657.535
662.049
666.62
671.248
675.938
680.701
685.546
690.496
695.558
698.663
699.9
701.189
702.523
703.905
705.336
706.828
708.377
709.971
711.606
713.336
715.268
717.267
719.323
721.429
723.589
725.809
728.11
730.508
733.019
735.664
738.438
741.402
744.618
748.149
752.089
756.611
761.609
766.938
772.795
779.162
785.931
792.88
799.709
805.998
811.18
814.569
815.392
812.848
806.178
794.763
778.227
756.536
730.035
699.448
665.786
630.228
593.954
558.056
523.443
490.781
460.503
432.857
407.914
385.609
365.784
348.263
332.834
319.255
307.274
296.666
287.237
278.818
271.27
264.475
258.336
252.777
247.732
243.15
238.989
235.214
231.792
228.695
225.897
223.376
221.112
219.093
217.319
215.826
214.704
213.943
213.594
213.725
214.453
215.986
218.702
223.254
230.742
242.817
158.144
110.572
88.0272
74.122
66.1642
62.4059
61.5986
62.8626
65.5989
69.4312
74.1741
79.8235
86.5612
94.761
104.938
117.019
130.035
143.647
157.492
171.182
184.647
198.164
212.28
227.523
244.259
262.468
281.746
301.852
322.739
344.327
366.497
389.085
411.881
434.628
457.048
478.849
499.747
519.473
537.764
554.332
568.923
581.32
591.334
598.836
603.772
606.181
606.216
604.123
600.295
595.195
589.328
583.193
577.249
571.873
567.34
563.815
561.35
559.927
559.446
559.808
560.901
562.593
564.77
567.341
570.222
573.351
576.679
580.163
583.769
587.462
591.21
594.988
598.783
602.59
606.405
610.245
614.12
618.039
622.016
626.057
630.165
634.334
638.554
642.817
647.123
651.482
655.906
660.404
664.994
669.702
674.539
677.503
678.69
679.953
681.279
682.668
684.108
685.595
687.139
688.741
690.496
692.462
694.518
696.646
698.864
701.172
703.571
706.072
708.694
711.46
714.406
717.644
721.05
724.679
728.661
733.083
738.043
743.619
749.837
756.729
764.299
772.469
781.044
789.702
797.976
805.252
810.778
813.681
813.039
807.957
797.679
781.699
759.886
732.555
700.482
664.821
626.939
588.26
550.044
513.329
478.893
447.182
418.418
392.687
369.895
349.851
332.319
317.03
303.7
292.046
281.822
272.818
264.848
257.757
251.413
245.708
240.553
235.877
231.621
227.74
224.196
220.959
218.003
215.307
212.851
210.618
208.59
206.752
205.095
203.619
202.412
201.482
200.861
200.594
200.743
201.406
202.744
205.048
208.841
214.993
189.81
125.359
96.1932
78.9514
69.4312
65.0188
64.0072
65.2934
68.1815
72.2643
77.3575
83.4632
90.7496
99.5217
110.12
122.277
135.043
148.132
161.313
174.369
187.324
200.431
214.046
228.6
244.491
261.608
279.585
298.295
317.662
337.616
358.057
378.843
399.787
420.666
441.243
461.266
480.503
498.731
515.712
531.174
544.886
556.64
566.255
573.599
578.61
581.309
581.823
580.376
577.352
573.181
568.334
563.272
558.406
554.07
550.496
547.805
546.046
545.217
545.238
546.007
547.413
549.349
551.715
554.433
557.433
560.664
564.092
567.689
571.431
575.283
579.206
583.167
587.147
591.137
595.129
599.134
603.155
607.195
611.264
615.36
619.482
623.622
627.775
631.942
636.138
640.383
644.681
649.058
653.54
658.153
662.912
665.853
667.086
668.418
669.812
671.253
672.747
674.312
675.963
677.821
679.907
682.14
684.53
686.948
689.457
692.055
694.732
697.499
700.383
703.406
706.61
710.056
713.812
717.976
722.644
727.933
733.972
740.856
748.629
757.289
766.759
776.848
787.22
797.369
806.618
814.132
818.949
820.036
816.371
807.066
791.496
769.437
741.163
707.479
669.646
629.239
587.863
547.058
507.999
471.53
438.211
408.255
381.662
358.283
337.899
320.229
304.973
291.818
280.461
270.63
262.089
254.632
248.079
242.282
237.118
232.485
228.303
224.507
221.045
217.876
214.97
212.3
209.843
207.582
205.499
203.579
201.806
200.165
198.643
197.231
195.976
194.915
194.07
193.472
193.17
193.223
193.72
194.802
196.706
199.873
231.238
143.539
105.809
84.582
73.3536
68.3184
67.1946
68.6148
71.768
76.2033
81.7182
88.2923
96.0395
105.156
115.81
127.677
139.966
152.383
164.81
177.167
189.551
202.209
215.455
229.572
244.66
260.63
277.377
294.781
312.77
331.279
350.223
369.481
388.895
408.274
427.423
446.139
464.231
481.505
497.753
512.735
526.22
537.998
547.878
555.712
561.405
564.938
566.378
565.953
564.008
560.937
557.162
553.106
549.146
545.59
542.657
540.468
539.082
538.498
538.67
539.54
541.019
543.008
545.419
548.182
551.232
554.523
558.024
561.722
565.606
569.642
573.783
577.983
582.216
586.471
590.741
595.025
599.323
603.629
607.944
612.259
616.572
620.871
625.156
629.439
633.741
638.059
642.426
646.878
651.45
656.158
661.008
664.047
665.379
666.787
668.254
669.781
671.387
673.101
675.02
677.148
679.422
681.817
684.309
686.879
689.526
692.239
695.002
697.832
700.776
703.892
707.25
710.951
715.134
719.941
725.501
731.953
739.434
748.029
757.747
768.496
780.062
792.075
803.985
815.05
824.355
830.838
833.361
830.79
822.119
806.623
784.002
754.505
718.968
678.776
635.638
591.447
547.83
506.261
467.693
432.645
401.307
373.661
349.536
328.671
310.763
295.481
282.484
271.448
262.069
254.082
247.25
241.366
236.257
231.779
227.816
224.275
221.083
218.184
215.533
213.098
210.851
208.772
206.843
205.047
203.367
201.789
200.295
198.867
197.49
196.149
194.853
193.662
192.592
191.664
190.916
190.395
190.164
190.312
190.962
192.349
286.038
166.018
117.167
91.1602
78.0515
72.435
71.312
72.9923
76.5242
81.3943
87.3596
94.3489
102.4
111.595
121.962
133.235
144.855
156.52
168.218
179.963
191.891
204.228
217.164
230.77
245.117
260.164
275.853
292.15
308.996
326.331
344.082
362.154
380.42
398.729
416.919
434.825
452.295
469.158
485.229
500.31
514.17
526.586
537.337
546.244
553.135
557.941
560.704
561.638
561.004
559.205
556.623
553.63
550.568
547.72
545.29
543.411
542.165
541.574
541.627
542.296
543.526
545.266
547.458
550.039
552.949
556.137
559.571
563.239
567.141
571.252
575.525
579.912
584.386
588.937
593.551
598.222
602.936
607.677
612.429
617.172
621.895
626.589
631.262
635.912
640.526
645.144
649.795
654.517
659.34
664.278
669.32
672.459
673.829
675.258
676.744
678.302
679.963
681.773
683.745
685.858
688.09
690.409
692.784
695.2
697.665
700.185
702.765
705.444
708.313
711.485
715.079
719.251
724.187
730.072
737.061
745.283
754.825
765.703
777.816
790.911
804.564
818.158
830.88
841.726
849.546
853.098
851.151
842.606
826.662
802.974
771.784
733.998
691.082
644.982
597.685
551.205
507.069
466.273
429.36
396.526
367.727
342.77
321.369
303.195
287.89
275.095
264.454
255.631
248.322
242.256
237.193
232.932
229.305
226.174
223.431
220.991
218.789
216.777
214.923
213.201
211.593
210.085
208.664
207.318
206.036
204.799
203.586
202.376
201.144
199.869
198.534
197.192
195.871
194.587
193.368
192.255
191.301
190.577
190.168
190.221
359.587
194.003
130.687
98.9296
83.7384
77.588
76.5881
78.6547
82.6623
88.0138
94.4109
101.723
109.911
118.972
128.856
139.388
150.277
161.296
172.457
183.862
195.595
207.689
220.265
233.412
247.196
261.621
276.656
292.238
308.327
324.909
341.894
359.228
376.82
394.549
412.295
429.929
447.336
464.376
480.911
496.723
511.559
525.147
537.278
547.886
556.295
562.641
567.039
569.65
570.691
570.469
569.311
567.533
565.43
563.248
561.185
559.393
557.983
557.028
556.566
556.624
557.2
558.283
559.84
561.846
564.26
567.029
570.118
573.511
577.228
581.273
585.581
590.106
594.826
599.729
604.781
609.959
615.232
620.564
625.922
631.268
636.591
641.885
647.109
652.267
657.38
662.477
667.572
672.678
677.796
682.936
688.103
691.246
692.539
693.883
695.287
696.76
698.286
699.875
701.545
703.302
705.141
707.03
708.936
710.854
712.819
714.879
717.09
719.55
722.414
725.863
730.084
735.272
741.629
749.339
758.54
769.286
781.548
795.18
809.878
825.143
840.271
854.369
866.345
874.963
878.901
876.852
867.658
850.487
824.984
791.443
750.832
704.803
655.384
604.909
555.45
508.628
465.536
426.75
392.458
362.582
336.89
315.069
296.767
281.602
269.179
259.106
251.014
244.565
239.45
235.396
232.171
229.578
227.456
225.678
224.142
222.772
221.513
220.332
219.205
218.12
217.07
216.052
215.06
214.089
213.13
212.166
211.173
210.124
208.987
207.731
206.33
204.796
203.183
201.502
199.777
198.045
196.356
194.776
193.376
192.275
463.513
230.534
147.66
108.729
91.1032
84.4325
83.663
86.2166
90.7926
96.689
103.538
111.15
119.434
128.35
137.854
147.856
158.25
168.952
179.943
191.271
202.973
215.072
227.628
240.709
254.372
268.638
283.518
298.977
314.886
331.183
347.878
364.965
382.382
400.043
417.855
435.707
453.509
471.149
488.496
505.31
521.606
536.519
549.876
561.683
571.59
579.57
585.707
590.099
592.902
594.334
594.65
594.092
592.892
591.256
589.363
587.384
585.471
583.755
582.35
581.359
580.858
580.902
581.502
582.643
584.336
586.538
589.2
592.289
595.836
599.851
604.27
609.044
614.176
619.639
625.344
631.231
637.244
643.318
649.411
655.475
661.45
667.306
673.065
678.745
684.36
689.917
695.417
700.86
706.23
711.521
716.728
721.891
727.06
732.285
737.555
742.833
745.093
745.953
746.827
747.732
748.676
749.655
750.672
751.766
753.023
754.564
756.527
759.082
762.441
766.837
772.507
779.654
788.442
798.983
811.292
825.246
840.61
857.009
873.84
890.283
905.331
917.791
926.33
929.541
926.051
914.67
894.564
865.441
827.678
782.437
731.502
677.259
622.167
568.458
517.896
471.649
430.302
394.008
362.642
335.921
313.488
294.943
279.865
267.819
258.365
251.092
245.611
241.571
238.665
236.622
235.209
234.232
233.536
232.998
232.531
232.071
231.58
231.04
230.445
229.799
229.112
228.39
227.641
226.863
226.049
225.183
224.236
223.17
221.946
220.519
218.847
216.921
214.816
212.543
210.124
207.596
205.012
202.437
199.944
197.648
593.917
272.258
166.589
119.716
99.6098
92.6182
92.209
95.3403
100.616
107.256
114.788
122.949
131.726
141.077
150.985
161.365
172.152
183.368
195.114
207.532
220.467
233.709
247.274
261.237
275.66
290.587
306.032
321.93
338.185
354.851
371.951
389.446
407.294
425.414
443.707
462.076
480.452
498.713
516.994
534.326
550.732
565.911
579.7
591.988
602.576
611.442
618.592
624.085
628.023
630.55
631.839
632.053
631.347
629.873
627.785
625.262
622.496
619.673
616.979
614.593
612.671
611.338
610.683
610.761
611.579
613.093
615.259
618.061
621.477
625.458
629.996
635.05
640.609
646.579
652.846
659.328
665.962
672.646
679.284
685.817
692.233
698.524
704.701
710.777
716.754
722.629
728.394
732.103
733.509
734.731
735.761
736.625
737.356
737.934
738.383
738.741
739.039
739.299
739.552
739.842
740.209
740.707
741.412
742.438
743.941
746.11
749.156
753.287
758.719
765.654
774.262
784.637
796.811
810.753
826.268
843
860.452
877.96
894.655
909.49
921.25
928.597
930.14
924.552
910.717
887.906
855.949
815.393
767.497
714.299
658.22
601.76
547.184
496.242
450.04
409.086
373.447
342.929
317.209
295.914
278.637
264.95
254.408
246.558
240.97
237.239
234.992
233.893
233.643
233.983
234.694
235.596
236.55
237.451
238.23
238.848
239.291
239.565
239.686
239.68
239.572
239.389
239.154
238.871
238.532
238.116
237.58
236.87
235.919
234.656
233.014
230.92
228.51
225.794
222.802
219.586
216.212
212.764
209.326
206.026
748.075
318.03
186.947
131.797
109.514
102.608
103.004
107.332
114.165
122.716
132.554
141.288
152.035
163.841
176.616
189.787
203.164
216.979
231.562
247.055
262.985
279.143
295.63
312.502
329.776
347.421
365.311
383.328
401.644
420.267
439.119
458.104
477.124
496.091
514.899
533.453
552.023
569.852
586.928
602.97
617.904
631.576
643.866
654.691
663.983
671.746
677.991
682.77
686.15
688.211
689.045
688.73
687.349
685
681.806
677.942
673.619
669.066
664.512
660.186
656.292
653.01
650.499
648.909
648.239
648.423
649.408
651.193
653.765
657.105
661.204
665.993
671.333
677.117
683.245
689.623
696.145
702.102
705.042
707.922
710.706
713.372
715.909
718.31
720.555
722.629
724.515
726.195
727.65
728.87
729.866
730.615
731.104