/*--------------------------------*- C++ -*----------------------------------*\
| =========                 |                                                 |
| \\      /  F ield         | OpenFOAM: The Open Source CFD Toolbox           |
|  \\    /   O peration     | Version:  2112                                  |
|   \\  /    A nd           | Website:  www.openfoam.com                      |
|    \\/     M anipulation  |                                                 |
\*---------------------------------------------------------------------------*/
FoamFile
{
    version     2.0;
    format      ascii;
    arch        "LSB;label=32;scalar=64";
    class       volScalarField;
    location    "0.35";
    object      k_0;
}
// * * * * * * * * * * * * * * * * * * * * * * * * * * * * * * * * * * * * * //

dimensions      [0 2 -2 0 0 0 0];

internalField   nonuniform List<scalar> 
12885
(
0.528336
0.80143
1.44119
1.98772
2.2508
2.37186
2.51861
2.80881
3.70154
4.94305
5.82187
6.33186
6.61402
6.86999
7.2988
8.39044
10.0751
11.5383
12.6136
13.3007
13.6872
13.9177
14.1876
14.771
15.6766
16.6711
17.6292
18.465
19.1312
19.6227
19.9585
20.1843
20.3436
20.4839
20.632
20.8088
21.011
21.2465
21.5873
21.3624
0.380904
0.386172
0.407165
0.435423
0.442786
0.444199
0.449183
0.467579
0.521529
0.671916
0.824171
0.91342
0.961589
1.01277
1.09557
1.25158
1.58853
2.00027
2.38207
2.67635
2.87885
3.00235
3.10876
3.2969
3.59249
3.99275
4.45511
4.94311
5.4247
5.87217
6.25381
6.57389
6.8314
7.05993
7.26744
7.49088
7.73139
8.02753
8.38054
9.06217
0.376051
0.376038
0.377131
0.377094
0.375511
0.371319
0.366465
0.361433
0.359867
0.361164
0.365944
0.367748
0.368048
0.368881
0.372176
0.380579
0.398945
0.440555
0.493557
0.549593
0.591722
0.626531
0.649034
0.682589
0.717745
0.785655
0.864612
0.983144
1.1088
1.27191
1.42362
1.5959
1.73569
1.8905
2.00611
2.15132
2.25918
2.42436
2.54791
2.76455
0.375393
0.375495
0.375536
0.37526
0.374466
0.37268
0.370326
0.367894
0.365544
0.363636
0.362062
0.359853
0.356966
0.354786
0.352402
0.350608
0.350552
0.351389
0.353665
0.35728
0.360073
0.361817
0.362699
0.363708
0.365104
0.368002
0.372217
0.381613
0.390867
0.409384
0.425121
0.453821
0.474401
0.507366
0.528667
0.562915
0.583996
0.621403
0.644215
0.689242
0.37521
0.375392
0.375361
0.375189
0.374773
0.373895
0.372725
0.371481
0.37023
0.369111
0.368027
0.366697
0.365134
0.363695
0.362184
0.360767
0.359693
0.358779
0.358118
0.357686
0.357232
0.356509
0.355506
0.354403
0.353343
0.352301
0.351247
0.350939
0.350997
0.351458
0.352365
0.354344
0.356114
0.359289
0.361554
0.365171
0.367497
0.37138
0.37379
0.378494
0.375135
0.375321
0.375304
0.375195
0.374942
0.374438
0.373779
0.373066
0.372356
0.371699
0.371035
0.370256
0.369386
0.368524
0.367651
0.366807
0.366051
0.365368
0.364757
0.364136
0.363524
0.362837
0.362047
0.361215
0.360375
0.359516
0.358671
0.357958
0.357358
0.356903
0.3565
0.356342
0.356346
0.356417
0.35653
0.356737
0.356909
0.35713
0.357276
0.357565
0.375093
0.375252
0.375258
0.375188
0.375022
0.374709
0.374307
0.373871
0.373437
0.373016
0.372577
0.372082
0.371547
0.371009
0.370476
0.369957
0.369464
0.368991
0.368533
0.36807
0.367596
0.367095
0.366561
0.366014
0.365464
0.364914
0.364377
0.363881
0.363427
0.363025
0.362673
0.362376
0.362122
0.361924
0.361769
0.36165
0.361554
0.36147
0.361404
0.361321
0.375064
0.375185
0.37521
0.375168
0.375058
0.374857
0.374604
0.374327
0.374047
0.373764
0.373462
0.373131
0.372783
0.372435
0.372093
0.371758
0.371429
0.3711
0.370768
0.370429
0.370081
0.369722
0.369356
0.36899
0.368628
0.368274
0.367932
0.367609
0.367308
0.367032
0.366783
0.366562
0.366369
0.366204
0.366064
0.365947
0.365847
0.365761
0.365688
0.365603
0.375041
0.375126
0.375159
0.375137
0.375069
0.374941
0.37478
0.374602
0.374417
0.374224
0.374015
0.37379
0.373557
0.373327
0.373101
0.372878
0.372654
0.372425
0.372188
0.371943
0.371692
0.371437
0.371184
0.370936
0.370695
0.370464
0.370243
0.370035
0.369838
0.369656
0.369488
0.369337
0.369204
0.369084
0.368976
0.368879
0.368793
0.368717
0.36865
0.368584
0.375023
0.375077
0.375106
0.375099
0.375061
0.374983
0.374883
0.37477
0.374649
0.374518
0.374376
0.374224
0.374069
0.373915
0.373765
0.373616
0.373463
0.373304
0.373137
0.372964
0.372788
0.372611
0.372437
0.372268
0.372107
0.371955
0.37181
0.371672
0.37154
0.371415
0.3713
0.371194
0.371099
0.371014
0.370939
0.370873
0.370815
0.370765
0.370722
0.370685
0.375009
0.375036
0.375056
0.375055
0.375038
0.374996
0.374937
0.374869
0.374792
0.374706
0.374612
0.374512
0.374411
0.374311
0.374213
0.374114
0.374012
0.373904
0.37379
0.373672
0.373551
0.37343
0.373312
0.373198
0.37309
0.372987
0.372892
0.372803
0.372719
0.372642
0.372571
0.372505
0.372446
0.372396
0.372355
0.372324
0.3723
0.372283
0.372272
0.372263
0.374995
0.375
0.375008
0.375009
0.375002
0.374983
0.374953
0.374917
0.374873
0.374822
0.374764
0.374703
0.374642
0.374582
0.374523
0.374464
0.3744
0.374332
0.374258
0.374181
0.374101
0.374022
0.373946
0.373874
0.373807
0.373744
0.373687
0.373637
0.373594
0.373556
0.373524
0.373496
0.373473
0.373455
0.373442
0.373435
0.373432
0.373434
0.373439
0.373447
0.374982
0.374963
0.374957
0.374955
0.374952
0.374946
0.374938
0.374926
0.374911
0.37489
0.374865
0.374838
0.374811
0.374787
0.374764
0.37474
0.374713
0.374681
0.374644
0.374603
0.374561
0.374519
0.374481
0.374446
0.374417
0.374393
0.374374
0.374359
0.374348
0.374341
0.374338
0.374337
0.374339
0.374344
0.374353
0.374364
0.374377
0.374394
0.374412
0.374431
0.374968
0.374924
0.374899
0.374886
0.374882
0.374883
0.374885
0.374889
0.374895
0.3749
0.374904
0.374908
0.374912
0.374918
0.374925
0.374932
0.374937
0.374939
0.374939
0.374937
0.374933
0.374929
0.374927
0.374928
0.374931
0.374938
0.374948
0.374961
0.374977
0.374994
0.375014
0.375035
0.375057
0.375081
0.375106
0.375132
0.37516
0.375188
0.375217
0.375246
0.374957
0.374887
0.374838
0.374808
0.374795
0.374793
0.374798
0.374809
0.374824
0.374844
0.374866
0.374891
0.374917
0.374944
0.374972
0.375001
0.37503
0.375058
0.375086
0.375114
0.375142
0.37517
0.375199
0.375228
0.375258
0.37529
0.375322
0.375355
0.37539
0.375425
0.37546
0.375496
0.375533
0.37557
0.375607
0.375644
0.37568
0.375717
0.375753
0.375788
0.374947
0.374856
0.374784
0.374733
0.374703
0.37469
0.374692
0.374701
0.374719
0.374741
0.374769
0.3748
0.374835
0.374871
0.37491
0.37495
0.374991
0.375033
0.375076
0.37512
0.375165
0.37521
0.375256
0.375301
0.375347
0.375392
0.375438
0.375483
0.375528
0.375573
0.375617
0.375661
0.375704
0.375747
0.375789
0.37583
0.375871
0.37591
0.375949
0.375986
0.374941
0.374834
0.374746
0.374677
0.37463
0.374602
0.374593
0.374598
0.374611
0.374631
0.374657
0.374687
0.37472
0.374756
0.374795
0.374836
0.374878
0.374923
0.374968
0.375014
0.375062
0.375109
0.375157
0.375205
0.375253
0.3753
0.375347
0.375394
0.37544
0.375485
0.375529
0.375572
0.375614
0.375656
0.375696
0.375735
0.375773
0.37581
0.375846
0.37588
0.374939
0.374827
0.374732
0.374657
0.374601
0.374565
0.374548
0.374547
0.374555
0.374572
0.374593
0.374619
0.374647
0.374679
0.374713
0.374749
0.374786
0.374825
0.374865
0.374905
0.374946
0.374986
0.375027
0.375068
0.375108
0.375147
0.375186
0.375225
0.375262
0.375298
0.375334
0.375368
0.375402
0.375434
0.375465
0.375495
0.375523
0.375551
0.375578
0.375603
0.374942
0.374839
0.374752
0.374685
0.374637
0.374606
0.374591
0.37459
0.374596
0.374608
0.374624
0.374643
0.374665
0.374688
0.374713
0.374738
0.374765
0.374792
0.374819
0.374845
0.374872
0.374898
0.374923
0.374947
0.374971
0.374993
0.375015
0.375036
0.375055
0.375074
0.375091
0.375107
0.375122
0.375137
0.37515
0.375162
0.375173
0.375184
0.375193
0.375202
0.374947
0.374855
0.37478
0.374723
0.374682
0.374656
0.374641
0.374636
0.374637
0.374641
0.374648
0.374656
0.374665
0.374676
0.374687
0.374698
0.374708
0.374718
0.374727
0.374735
0.374742
0.374749
0.374754
0.374759
0.374763
0.374766
0.374768
0.374768
0.374767
0.374766
0.374763
0.374759
0.374754
0.374749
0.374744
0.374737
0.374731
0.374724
0.374717
0.374709
0.374955
0.374879
0.374819
0.374772
0.374737
0.374709
0.374689
0.374673
0.374661
0.374648
0.374635
0.374622
0.374609
0.374596
0.374582
0.374567
0.37455
0.374531
0.374511
0.374489
0.374466
0.374443
0.37442
0.374396
0.374371
0.374346
0.37432
0.374293
0.374265
0.374237
0.374208
0.374179
0.37415
0.374121
0.374092
0.374063
0.374035
0.374007
0.37398
0.373953
0.374966
0.374911
0.374867
0.374827
0.374788
0.37475
0.374713
0.374675
0.374636
0.374594
0.374549
0.374501
0.374452
0.374402
0.374351
0.374298
0.374242
0.374184
0.374123
0.374061
0.373998
0.373934
0.373871
0.373809
0.373747
0.373685
0.373623
0.373561
0.373498
0.373435
0.373372
0.373309
0.373247
0.373185
0.373125
0.373066
0.373009
0.372952
0.372898
0.372844
0.374981
0.374953
0.374922
0.374881
0.374828
0.374763
0.37469
0.374612
0.37453
0.374441
0.374344
0.374242
0.374137
0.374031
0.373925
0.373817
0.373707
0.373593
0.373476
0.373355
0.373232
0.373111
0.372991
0.372874
0.37276
0.372647
0.372535
0.372424
0.372313
0.372203
0.372093
0.371984
0.371876
0.37177
0.371666
0.371565
0.371465
0.371368
0.371274
0.371183
0.375002
0.375003
0.374984
0.374935
0.37485
0.374735
0.374599
0.374454
0.374303
0.374141
0.373965
0.373777
0.373581
0.373384
0.373189
0.372995
0.372801
0.372601
0.372395
0.372182
0.371966
0.371748
0.371534
0.371327
0.371126
0.370931
0.370741
0.370557
0.370375
0.370198
0.370023
0.36985
0.36968
0.369511
0.369344
0.369178
0.369015
0.368854
0.368697
0.368543
0.37503
0.375074
0.375057
0.374992
0.374858
0.374652
0.374396
0.374127
0.373861
0.373583
0.373279
0.372944
0.372589
0.372226
0.37187
0.371525
0.371187
0.370847
0.370498
0.370137
0.369759
0.36937
0.368981
0.368603
0.368242
0.367899
0.367579
0.367279
0.366996
0.366729
0.366475
0.366227
0.365981
0.365731
0.365476
0.365216
0.364953
0.364688
0.364422
0.364161
0.375075
0.375183
0.375171
0.375078
0.374861
0.374476
0.37396
0.373423
0.372936
0.372455
0.371912
0.371295
0.370621
0.369921
0.369243
0.368598
0.367979
0.367353
0.366744
0.366118
0.365442
0.364709
0.36396
0.363235
0.362539
0.361885
0.361315
0.360832
0.360412
0.360052
0.359757
0.359503
0.359253
0.358974
0.358653
0.358297
0.357907
0.357482
0.357031
0.356584
0.375187
0.3754
0.375466
0.37531
0.374896
0.374096
0.372891
0.371651
0.37068
0.369819
0.368776
0.367504
0.366093
0.364589
0.363221
0.362016
0.360873
0.359974
0.359182
0.358269
0.357089
0.355678
0.354252
0.352992
0.351807
0.350728
0.350291
0.35032
0.350546
0.351061
0.351995
0.353029
0.353989
0.354604
0.354892
0.354968
0.354976
0.354787
0.354518
0.35434
0.375646
0.37616
0.377064
0.37678
0.375717
0.373625
0.370419
0.367149
0.365444
0.364953
0.364141
0.361871
0.359232
0.356307
0.354531
0.354482
0.355485
0.358511
0.364328
0.368435
0.369607
0.369504
0.369585
0.370362
0.372551
0.37699
0.387178
0.401279
0.418709
0.438217
0.461319
0.483677
0.504312
0.519509
0.531896
0.540127
0.54864
0.556033
0.566943
0.578595
0.379375
0.383914
0.399103
0.407278
0.406922
0.402077
0.401723
0.4059
0.425617
0.477461
0.512883
0.527248
0.534305
0.546205
0.571717
0.617907
0.722825
0.861877
0.993853
1.09442
1.14973
1.17088
1.18956
1.2236
1.27957
1.40445
1.58593
1.78925
1.99609
2.19967
2.39185
2.55294
2.67193
2.74729
2.7954
2.8334
2.88431
2.95533
3.0583
3.18358
0.494182
0.719052
1.1986
1.57609
1.73841
1.80129
1.88607
2.06372
2.63618
3.28008
3.7304
3.99754
4.14781
4.26803
4.44551
4.82836
5.70829
6.59729
7.335
7.87549
8.23385
8.45822
8.61406
8.77955
9.07127
9.7472
10.5821
11.4351
12.2169
12.8888
13.4399
13.8622
14.1592
14.3584
14.5065
14.6546
14.8405
15.0872
15.3951
15.7603
0.0480992
0.0481095
0.0481322
0.0481687
0.0482208
0.0482904
0.048379
0.0484884
0.0486196
0.0487736
0.0489499
0.0491512
0.0493849
0.0496541
0.0499601
0.0503051
0.0506921
0.0511245
0.0516057
0.0521396
0.0527302
0.0533817
0.0540983
0.054884
0.0557419
0.0566719
0.0576647
0.0587216
0.0598796
0.0611769
0.0626425
0.0643146
0.0662377
0.0684606
0.0710316
0.0739874
0.0773243
0.0810221
0.0852003
0.0899065
0.0952303
0.101339
0.10849
0.117049
0.127504
0.141624
0.160856
0.184746
0.214046
0.24941
0.291298
0.33991
0.39524
0.45706
0.524948
0.598328
0.676568
0.75899
0.844913
0.933671
1.02462
1.11717
1.21075
1.30482
1.39891
1.49257
1.58539
1.67698
1.76703
1.85521
1.94127
2.02495
2.10605
2.18437
2.25975
2.33205
2.40114
2.46691
2.52927
2.58813
2.64343
2.69512
2.74314
2.78749
2.82813
2.86505
2.89827
2.92779
2.95363
2.97582
2.9944
3.00942
3.02101
3.02877
3.03264
3.03397
3.03258
3.02733
3.01974
3.00897
2.99588
2.98013
2.96219
2.94203
2.91994
2.896
2.87046
2.84345
2.81519
2.78585
2.75564
2.72475
2.69339
2.66178
2.63013
2.59869
2.5677
2.53742
2.5083
2.4803
2.4535
2.42908
2.40666
2.38702
2.37036
2.3572
2.34826
2.34442
2.34398
2.35003
2.36169
2.37962
2.40373
2.43378
2.46901
2.50817
2.54945
2.59068
2.62961
2.66435
2.6937
2.71715
2.7347
2.74655
2.75272
2.75357
2.7492
2.74043
2.72863
2.71819
2.71603
2.7295
2.74466
2.75685
2.76328
2.76302
2.75545
2.74021
2.71741
2.68713
2.64967
2.60557
2.55557
2.50062
2.44183
2.3804
2.31756
2.25451
2.19232
2.13192
2.07409
2.01933
1.96805
1.92033
1.8761
1.83523
1.79754
1.75667
1.7321
1.6565
0.0481352
0.0481441
0.048165
0.048199
0.048248
0.0483136
0.0483975
0.0485013
0.0486265
0.0487743
0.048946
0.049144
0.0493724
0.0496347
0.0499332
0.0502708
0.0506507
0.0510765
0.0515519
0.0520811
0.0526682
0.0533179
0.0540345
0.0548223
0.0556847
0.0566228
0.0576343
0.0587238
0.0599183
0.0612503
0.0627493
0.0644499
0.066392
0.0686178
0.071168
0.0740717
0.0773295
0.0809306
0.0849407
0.0894008
0.0943817
0.100014
0.106498
0.11412
0.123251
0.135313
0.151302
0.170575
0.193472
0.220213
0.250859
0.285275
0.323231
0.364403
0.408402
0.454788
0.503145
0.553072
0.604194
0.656167
0.708678
0.761441
0.814197
0.866711
0.918771
0.970185
1.02078
1.07041
1.11893
1.16622
1.21218
1.25672
1.29975
1.34122
1.38105
1.41921
1.45564
1.49032
1.52322
1.5543
1.58356
1.61099
1.63657
1.66032
1.68223
1.70232
1.7206
1.7371
1.75183
1.76482
1.7761
1.78571
1.79368
1.7999
1.8044
1.808
1.81021
1.81074
1.81044
1.80867
1.80604
1.80229
1.79775
1.79235
1.78629
1.77961
1.77244
1.76488
1.75705
1.74904
1.74099
1.73301
1.72525
1.71784
1.71093
1.70469
1.69928
1.69488
1.69196
1.69054
1.69039
1.69276
1.69737
1.70489
1.71562
1.73013
1.74912
1.77322
1.80201
1.83767
1.87994
1.92963
1.98692
2.05177
2.12352
2.20082
2.28149
2.36259
2.44071
2.5125
2.57534
2.62763
2.66886
2.69938
2.71991
2.73156
2.73537
2.73283
2.7258
2.7183
2.71709
2.72856
2.7406
2.74894
2.75111
2.74607
2.73306
2.71169
2.68196
2.64393
2.59793
2.54455
2.48461
2.41919
2.34952
2.27694
2.20279
2.12838
2.05487
1.98326
1.91435
1.84875
1.78673
1.72883
1.67413
1.62464
1.57608
1.53234
1.49384
1.43421
0.0482241
0.0482305
0.0482486
0.0482795
0.0483249
0.0483866
0.048466
0.0485649
0.048685
0.0488279
0.0489953
0.0491899
0.0494147
0.0496728
0.0499673
0.0503013
0.0506783
0.0511018
0.0515761
0.0521053
0.0526939
0.0533469
0.0540689
0.0548646
0.0557381
0.0566927
0.0577309
0.0588606
0.060103
0.0614852
0.0630355
0.0647859
0.0667722
0.0690315
0.0715988
0.0744991
0.0777383
0.0813169
0.0852788
0.0896641
0.0945381
0.100017
0.106276
0.113563
0.122191
0.133427
0.148031
0.165235
0.185164
0.207829
0.233123
0.260792
0.290554
0.322107
0.355156
0.389376
0.424499
0.460281
0.496508
0.532989
0.569558
0.606065
0.642375
0.67837
0.713942
0.748995
0.783445
0.817217
0.850246
0.882472
0.913848
0.944331
0.973884
1.00248
1.03008
1.05669
1.08226
1.10681
1.1303
1.15273
1.17411
1.19442
1.21368
1.23188
1.24904
1.26516
1.28027
1.29437
1.30748
1.31962
1.33081
1.34108
1.35044
1.35885
1.36638
1.37343
1.37967
1.38507
1.39004
1.39422
1.39799
1.40118
1.40399
1.40638
1.40847
1.41028
1.4119
1.41337
1.41478
1.41619
1.41769
1.41935
1.42127
1.42355
1.4263
1.42964
1.43371
1.43868
1.44484
1.45222
1.46088
1.47161
1.48433
1.49962
1.51781
1.53946
1.56521
1.59565
1.63094
1.67274
1.72125
1.77734
1.84149
1.9139
1.99423
2.08139
2.17333
2.26706
2.3588
2.44459
2.521
2.58564
2.63751
2.67675
2.7042
2.72122
2.72919
2.72995
2.72566
2.72026
2.7199
2.7296
2.73965
2.74582
2.74572
2.73819
2.72241
2.69798
2.66486
2.62311
2.57309
2.51545
2.45108
2.38114
2.30694
2.22991
2.15146
2.07296
1.9956
1.9204
1.84816
1.77951
1.71463
1.65418
1.59701
1.54561
1.49464
1.45107
1.40882
1.3546
0.0483866
0.048389
0.0484032
0.0484303
0.0484718
0.0485295
0.0486048
0.0486995
0.0488155
0.0489545
0.0491188
0.0493109
0.0495335
0.0497899
0.0500832
0.0504167
0.0507943
0.0512199
0.0516978
0.0522325
0.0528291
0.0534927
0.0542286
0.0550422
0.0559389
0.056924
0.0580034
0.0591873
0.0604939
0.0619468
0.0635729
0.065402
0.067467
0.0698018
0.072438
0.0753997
0.078699
0.0823473
0.0863818
0.0908467
0.0958112
0.10139
0.107754
0.115135
0.123812
0.134991
0.149285
0.165798
0.184491
0.205215
0.227814
0.251983
0.277444
0.30395
0.331317
0.359317
0.387783
0.416578
0.445583
0.474696
0.503825
0.532891
0.561821
0.590549
0.619015
0.647165
0.674951
0.70233
0.729263
0.755717
0.781661
0.807071
0.831923
0.8562
0.879885
0.902966
0.925431
0.947271
0.968474
0.989035
1.00895
1.02822
1.04684
1.06481
1.08213
1.09882
1.11487
1.13029
1.14508
1.15927
1.17285
1.18585
1.19825
1.21008
1.22139
1.23231
1.24267
1.25249
1.26195
1.27088
1.27948
1.28765
1.2955
1.30302
1.31027
1.31726
1.32405
1.33067
1.33717
1.34359
1.35
1.35644
1.36299
1.36973
1.37672
1.38409
1.39193
1.40039
1.40967
1.41984
1.43105
1.44381
1.45818
1.47462
1.49347
1.51525
1.54051
1.56983
1.60366
1.64325
1.68909
1.74209
1.80293
1.87205
1.94947
2.03451
2.12555
2.21997
2.31425
2.40435
2.48637
2.55733
2.61555
2.66065
2.69321
2.71453
2.72608
2.72981
2.72808
2.72468
2.72505
2.73308
2.74116
2.74525
2.74304
2.7333
2.71517
2.6883
2.6526
2.60822
2.55557
2.49536
2.4286
2.35651
2.28048
2.202
2.12252
2.04339
1.96582
1.89079
1.81901
1.7511
1.68717
1.62782
1.57188
1.52171
1.4721
1.4304
1.38852
1.33811
0.0486503
0.0486469
0.0486561
0.0486786
0.048716
0.0487697
0.0488414
0.0489329
0.049046
0.0491829
0.0493458
0.0495373
0.0497603
0.0500181
0.0503139
0.0506516
0.051035
0.0514685
0.0519567
0.0525048
0.0531182
0.0538026
0.0545642
0.0554095
0.0563451
0.0573786
0.0585186
0.059777
0.061171
0.0627227
0.0644575
0.0664046
0.0685951
0.0710617
0.0738357
0.0769432
0.0804048
0.0842438
0.0885021
0.0932348
0.0985228
0.104488
0.111303
0.119185
0.128387
0.140099
0.15479
0.171382
0.189787
0.209851
0.231381
0.254076
0.277691
0.301868
0.326662
0.351943
0.377607
0.403581
0.429798
0.456196
0.482719
0.509312
0.535925
0.562508
0.589016
0.615406
0.641637
0.667673
0.69348
0.719027
0.744285
0.76923
0.793837
0.818089
0.841965
0.865452
0.888535
0.911205
0.933441
0.955234
0.976573
0.997452
1.01786
1.0378
1.05726
1.07623
1.09472
1.11272
1.13024
1.14726
1.1638
1.17985
1.19542
1.21051
1.22516
1.23939
1.25311
1.26637
1.27922
1.29159
1.30358
1.31513
1.32631
1.33711
1.34756
1.35768
1.36751
1.37705
1.38636
1.39546
1.40439
1.4132
1.42193
1.43066
1.43945
1.44838
1.45755
1.46707
1.47709
1.4877
1.49907
1.51155
1.52526
1.54057
1.55782
1.57742
1.59989
1.62574
1.65551
1.69019
1.73037
1.77696
1.83069
1.89218
1.96171
2.03898
2.1229
2.21142
2.30147
2.38932
2.47108
2.54345
2.60421
2.65243
2.68825
2.71268
2.72709
2.7334
2.734
2.73243
2.7334
2.73987
2.74602
2.74814
2.74403
2.7324
2.71242
2.68377
2.64639
2.60049
2.54656
2.4854
2.41809
2.34591
2.27031
2.19275
2.11469
2.03743
1.9621
1.88961
1.82059
1.75558
1.69461
1.63817
1.58521
1.53764
1.49098
1.45174
1.41187
1.36487
0.0490472
0.0490376
0.0490414
0.0490594
0.0490928
0.0491432
0.0492123
0.0493018
0.0494139
0.0495508
0.0497149
0.049909
0.0501363
0.0503999
0.0507037
0.0510516
0.0514479
0.0518975
0.0524055
0.0529776
0.0536199
0.0543391
0.0551423
0.0560374
0.0570327
0.058138
0.0593641
0.0607251
0.0622385
0.0639263
0.0658141
0.0679309
0.0703085
0.0729806
0.0759805
0.0793402
0.0830902
0.087268
0.0919271
0.0971375
0.102995
0.109633
0.117223
0.125969
0.136084
0.148782
0.164412
0.181706
0.200513
0.220628
0.241805
0.263912
0.286828
0.310554
0.334973
0.359967
0.385443
0.411348
0.437625
0.464221
0.491081
0.518153
0.545384
0.572725
0.600126
0.627541
0.654927
0.682243
0.709449
0.736512
0.763397
0.790074
0.816516
0.842698
0.868596
0.894189
0.919462
0.944404
0.968986
0.993193
1.01701
1.04042
1.06342
1.08599
1.10812
1.1298
1.15102
1.17179
1.19208
1.2119
1.23123
1.25007
1.26841
1.28626
1.30362
1.32051
1.33687
1.35273
1.36811
1.38297
1.39737
1.41126
1.4247
1.43767
1.4502
1.46231
1.474
1.4853
1.49625
1.50685
1.51716
1.5272
1.53701
1.54666
1.55619
1.56567
1.57519
1.58484
1.59473
1.60498
1.61573
1.62723
1.63964
1.65325
1.66836
1.68533
1.7046
1.72662
1.75193
1.78131
1.81537
1.85493
1.90073
1.95343
2.01345
2.0808
2.15481
2.23397
2.31586
2.39726
2.47461
2.5446
2.60473
2.65359
2.69087
2.71715
2.73362
2.742
2.74459
2.74462
2.74602
2.75103
2.75534
2.75565
2.74988
2.73671
2.71541
2.68568
2.6475
2.60116
2.54722
2.48656
2.42029
2.34974
2.27631
2.20146
2.12654
2.05278
1.98121
1.91262
1.84756
1.78644
1.72929
1.67644
1.62699
1.58241
1.53905
1.50226
1.46479
1.42112
0.0496178
0.0496038
0.0496037
0.0496181
0.0496485
0.0496968
0.0497648
0.0498545
0.0499681
0.0501082
0.0502774
0.0504787
0.0507155
0.0509915
0.0513105
0.0516771
0.0520961
0.0525729
0.0531133
0.0537237
0.0544113
0.0551838
0.0560498
0.0570186
0.0581007
0.0593079
0.060654
0.0621551
0.0638306
0.0657037
0.0678017
0.0701552
0.0727984
0.0757681
0.0791027
0.0828421
0.087029
0.0917155
0.0969693
0.102875
0.109542
0.117106
0.125729
0.135587
0.14685
0.160763
0.177579
0.195872
0.215499
0.236307
0.258162
0.280998
0.30476
0.329412
0.354824
0.380954
0.407766
0.435192
0.463161
0.491604
0.520448
0.549625
0.579068
0.608713
0.6385
0.668373
0.698277
0.728163
0.757986
0.787703
0.817274
0.846664
0.875838
0.904767
0.933421
0.961776
0.989808
1.01749
1.0448
1.07174
1.09828
1.12441
1.15011
1.17536
1.20016
1.22448
1.24832
1.27167
1.29452
1.31685
1.33865
1.35993
1.38066
1.40086
1.42051
1.43961
1.45813
1.4761
1.49349
1.51031
1.52657
1.54226
1.55739
1.57198
1.58602
1.59954
1.61254
1.62506
1.6371
1.64869
1.65986
1.67064
1.68107
1.69118
1.70103
1.71068
1.72019
1.72966
1.73916
1.74881
1.75874
1.76914
1.78015
1.79203
1.80503
1.81947
1.8357
1.85412
1.87523
1.89965
1.92794
1.96082
1.99898
2.04305
2.09351
2.15054
2.21378
2.2822
2.35397
2.42649
2.49671
2.56156
2.6185
2.66582
2.70282
2.7297
2.74732
2.75717
2.76135
2.76264
2.76427
2.76791
2.77048
2.76915
2.76197
2.74766
2.72558
2.69545
2.65732
2.61153
2.55872
2.49978
2.43585
2.36822
2.29826
2.2273
2.15661
2.08729
2.02025
1.95616
1.89549
1.83856
1.78536
1.73611
1.69009
1.64836
1.60808
1.57348
1.53828
1.49774
0.0504284
0.0504093
0.0504055
0.0504168
0.0504453
0.0504929
0.0505618
0.0506544
0.0507732
0.050921
0.0511006
0.0513156
0.0515695
0.0518664
0.0522108
0.0526077
0.0530625
0.0535814
0.0541711
0.054839
0.0555935
0.0564437
0.0573998
0.0584733
0.0596769
0.0610252
0.0625347
0.0642246
0.0661173
0.0682388
0.0706191
0.0732926
0.0762973
0.0796751
0.0834715
0.0877353
0.0925212
0.0978945
0.103934
0.110735
0.118408
0.127081
0.136894
0.147985
0.160484
0.175704
0.193844
0.213386
0.234254
0.256377
0.279704
0.304203
0.329829
0.356519
0.38417
0.412717
0.442079
0.472164
0.502881
0.53414
0.565856
0.597948
0.630341
0.662963
0.695748
0.728634
0.761562
0.794479
0.827335
0.860083
0.892679
0.925085
0.957264
0.98918
1.0208
1.0521
1.08305
1.11363
1.14381
1.17358
1.20292
1.23181
1.26024
1.28817
1.3156
1.34252
1.3689
1.39473
1.42001
1.44472
1.46885
1.49239
1.51533
1.53766
1.55939
1.58048
1.60094
1.62076
1.63993
1.65845
1.67633
1.69355
1.71012
1.72606
1.74136
1.75604
1.77012
1.7836
1.79651
1.80886
1.82068
1.832
1.84284
1.85325
1.86327
1.87294
1.88233
1.89151
1.90056
1.90957
1.91865
1.92796
1.93764
1.94789
1.95893
1.97102
1.98447
1.99963
2.01691
2.03682
2.05987
2.08665
2.11777
2.15382
2.19526
2.24235
2.29495
2.35239
2.41334
2.4758
2.53727
2.59511
2.6469
2.69088
2.72607
2.7523
2.77014
2.78078
2.78602
2.78818
2.7898
2.79214
2.79308
2.79027
2.78193
2.76686
2.7445
2.71461
2.67729
2.63292
2.58215
2.5259
2.46527
2.40148
2.33579
2.26943
2.20353
2.13905
2.07677
2.01729
1.96097
1.90807
1.85858
1.81263
1.76967
1.73044
1.69281
1.66003
1.62681
1.58902
0.0515743
0.0515424
0.0515313
0.0515379
0.0515643
0.0516126
0.0516852
0.0517845
0.0519135
0.0520751
0.0522727
0.0525101
0.0527915
0.0531213
0.0535048
0.0539474
0.0544556
0.0550364
0.0556976
0.056448
0.0572974
0.0582566
0.0593381
0.0605556
0.0619247
0.0634631
0.0651909
0.0671309
0.0693094
0.0717565
0.0745065
0.0775984
0.0810753
0.0849852
0.0893804
0.094318
0.0998614
0.106083
0.113067
0.120906
0.129702
0.139564
0.150607
0.162942
0.176685
0.19328
0.212925
0.234061
0.256683
0.280775
0.30631
0.333242
0.361494
0.39097
0.421551
0.453134
0.485608
0.51886
0.552781
0.587273
0.622242
0.6576
0.693268
0.729171
0.76524
0.801408
0.837616
0.873805
0.909922
0.945917
0.981744
1.01736
1.05272
1.0878
1.12254
1.15693
1.19094
1.22453
1.25768
1.29038
1.3226
1.35432
1.38552
1.41619
1.44629
1.47581
1.50475
1.53307
1.56078
1.58785
1.61427
1.64004
1.66514
1.68956
1.7133
1.73633
1.75865
1.78026
1.80113
1.82127
1.84067
1.85934
1.87727
1.89447
1.91094
1.9267
1.94176
1.95612
1.96981
1.98284
1.99523
2.00701
2.0182
2.02884
2.03897
2.04862
2.05785
2.06673
2.07531
2.08368
2.09194
2.10021
2.10862
2.11733
2.12653
2.13646
2.14735
2.15951
2.17328
2.18909
2.20737
2.22861
2.25332
2.28203
2.31516
2.353
2.39553
2.44234
2.4925
2.54454
2.59649
2.64618
2.6915
2.73073
2.76277
2.78722
2.80434
2.81503
2.82072
2.82327
2.82459
2.82565
2.82504
2.82091
2.81162
2.79614
2.77393
2.74481
2.7089
2.6666
2.61857
2.56569
2.50897
2.44955
2.38855
2.32708
2.26612
2.2065
2.14889
2.09379
2.04151
1.99227
1.94606
1.90297
1.86259
1.82545
1.78997
1.75864
1.72708
1.6917
0.0531409
0.0530952
0.0530765
0.0530791
0.0531053
0.0531574
0.0532381
0.0533501
0.0534967
0.0536812
0.0539075
0.0541799
0.0545029
0.0548818
0.0553226
0.0558316
0.0564162
0.0570846
0.0578461
0.0587108
0.0596905
0.0607983
0.062049
0.0634592
0.0650479
0.0668362
0.0688485
0.0711118
0.0736571
0.0765193
0.0797375
0.0833554
0.0874213
0.0919878
0.0971115
0.102854
0.109279
0.116461
0.124475
0.133405
0.143338
0.154369
0.166604
0.180164
0.195199
0.213324
0.234794
0.257985
0.282914
0.30956
0.337867
0.367745
0.399076
0.431727
0.465561
0.500447
0.536258
0.57287
0.61017
0.648056
0.68643
0.725206
0.764301
0.80364
0.843151
0.882766
0.922422
0.962055
1.00161
1.04103
1.08027
1.11928
1.15801
1.19642
1.23447
1.27213
1.30936
1.34613
1.38242
1.4182
1.45344
1.48814
1.52225
1.55577
1.58867
1.62093
1.65253
1.68345
1.71367
1.74319
1.77199
1.80006
1.82739
1.85396
1.87976
1.90478
1.92901
1.95243
1.97503
1.99682
2.01778
2.0379
2.0572
2.07567
2.09332
2.11015
2.12618
2.14142
2.15587
2.16957
2.18252
2.19475
2.20628
2.21714
2.22737
2.23699
2.24606
2.25462
2.26274
2.27049
2.27794
2.2852
2.29239
2.29963
2.30709
2.31496
2.32344
2.3328
2.34331
2.35533
2.36921
2.38536
2.40422
2.42622
2.45175
2.48108
2.51428
2.55111
2.59095
2.63274
2.675
2.71601
2.75402
2.78749
2.81532
2.83697
2.85246
2.86241
2.86789
2.87027
2.87095
2.87068
2.86858
2.86319
2.85313
2.83746
2.81572
2.78775
2.75367
2.71389
2.66902
2.61987
2.56736
2.5125
2.45629
2.39968
2.3435
2.28849
2.23521
2.1841
2.13542
2.08936
2.04593
2.00522
1.96693
1.93146
1.89767
1.86743
1.83719
1.80379
0.0552387
0.055181
0.0551566
0.0551586
0.0551895
0.055252
0.0553489
0.0554835
0.0556593
0.0558802
0.0561505
0.056475
0.0568592
0.057309
0.0578312
0.0584334
0.059124
0.0599127
0.0608102
0.0618288
0.0629824
0.0642865
0.0657588
0.0674194
0.0692906
0.0713978
0.0737696
0.0764376
0.0794375
0.0828084
0.0865936
0.0908402
0.0955986
0.100923
0.106868
0.113492
0.120856
0.129021
0.138055
0.148032
0.159039
0.171179
0.184589
0.199446
0.215957
0.235879
0.259604
0.285313
0.312993
0.342579
0.373963
0.407014
0.441584
0.477519
0.514674
0.552908
0.592091
0.6321
0.672823
0.714158
0.756011
0.798294
0.840925
0.883829
0.926931
0.97016
1.01345
1.05672
1.09993
1.143
1.18588
1.22852
1.27086
1.31286
1.35447
1.39565
1.43636
1.47656
1.51623
1.55533
1.59385
1.63175
1.66902
1.70562
1.74153
1.77673
1.8112
1.84491
1.87785
1.91
1.94136
1.97189
2.0016
2.03047
2.05848
2.08562
2.11187
2.13724
2.16169
2.18522
2.20783
2.2295
2.25025
2.27006
2.28895
2.30691
2.32396
2.34011
2.35538
2.36977
2.3833
2.396
2.40788
2.41897
2.4293
2.43889
2.4478
2.45606
2.46372
2.47084
2.4775
2.48377
2.48975
2.49555
2.50131
2.5072
2.51337
2.52005
2.52747
2.53591
2.54569
2.55712
2.57058
2.58643
2.60501
2.62656
2.65121
2.67883
2.70902
2.74105
2.77384
2.8061
2.8364
2.86348
2.88631
2.9043
2.91732
2.92573
2.93027
2.93187
2.93153
2.92978
2.92613
2.91949
2.9087
2.89297
2.87185
2.8452
2.81316
2.77607
2.73451
2.68917
2.64088
2.59049
2.53887
2.48683
2.43509
2.38427
2.33485
2.28722
2.24163
2.19824
2.1571
2.1183
2.08164
2.04742
2.01488
1.98541
1.95615
1.92421
0.0579823
0.057923
0.0579012
0.0579127
0.05796
0.0580461
0.0581741
0.0583477
0.0585709
0.058848
0.0591841
0.0595848
0.0600562
0.0606053
0.0612398
0.0619687
0.0628017
0.06375
0.0648264
0.0660453
0.0674227
0.0689773
0.0707297
0.0727033
0.0749245
0.0774223
0.0802293
0.0833811
0.0869163
0.0908769
0.0953074
0.100254
0.105766
0.111891
0.118678
0.126176
0.134437
0.143518
0.153485
0.164426
0.176452
0.189716
0.204424
0.220791
0.239005
0.26108
0.287429
0.315961
0.346608
0.379254
0.413756
0.449962
0.487713
0.526859
0.567255
0.608767
0.65127
0.694649
0.738797
0.783615
0.829012
0.874902
0.921202
0.967835
1.01472
1.06179
1.10895
1.15615
1.20329
1.25032
1.29717
1.34377
1.39006
1.436
1.48152
1.52658
1.57112
1.61511
1.65851
1.70129
1.74341
1.78486
1.82561
1.86562
1.90486
1.94332
1.98096
2.01776
2.0537
2.08875
2.12292
2.15617
2.18851
2.2199
2.25034
2.27981
2.3083
2.33579
2.36226
2.38771
2.41212
2.43549
2.45781
2.47909
2.49932
2.51851
2.53667
2.55381
2.56994
2.58509
2.59925
2.61245
2.62471
2.63605
2.6465
2.65607
2.66482
2.67277
2.67996
2.68645
2.6923
2.69757
2.70234
2.70672
2.71079
2.71472
2.71863
2.72271
2.72715
2.73219
2.73808
2.74509
2.75353
2.7637
2.7759
2.79036
2.80721
2.82642
2.84774
2.87069
2.89451
2.91823
2.94079
2.96115
2.97845
2.9921
3.00188
3.00798
3.01082
3.01099
3.00914
3.00566
3.00031
2.9923
2.9807
2.96484
2.9443
2.91895
2.88889
2.85444
2.81605
2.77434
2.73
2.68375
2.63632
2.5884
2.54058
2.49341
2.44732
2.40263
2.35959
2.31836
2.27902
2.24167
2.2062
2.17287
2.14117
2.11214
2.08348
2.05245
0.0614617
0.0614378
0.0614491
0.0614981
0.0615882
0.0617234
0.0619078
0.0621459
0.0624427
0.0628035
0.0632343
0.0637417
0.0643327
0.0650155
0.0657991
0.0666935
0.0677102
0.068862
0.0701636
0.0716314