/*--------------------------------*- C++ -*----------------------------------*\
| =========                 |                                                 |
| \\      /  F ield         | OpenFOAM: The Open Source CFD Toolbox           |
|  \\    /   O peration     | Version:  2112                                  |
|   \\  /    A nd           | Website:  www.openfoam.com                      |
|    \\/     M anipulation  |                                                 |
\*---------------------------------------------------------------------------*/
FoamFile
{
    version     2.0;
    format      ascii;
    arch        "LSB;label=32;scalar=64";
    class       volScalarField;
    location    "0.15";
    object      yPlus;
}
// * * * * * * * * * * * * * * * * * * * * * * * * * * * * * * * * * * * * * //

dimensions      [0 0 0 0 0 0 0];

internalField   uniform 0;

boundaryField
{
    inlet
    {
        type            calculated;
        value           uniform 0;
    }
    outlet
    {
        type            calculated;
        value           uniform 0;
    }
    upperWall
    {
        type            calculated;
        value           nonuniform List<scalar> 
223
(
14.4407
14.5716
17.4
19.7395
21.4002
22.5484
23.1734
23.5404
23.559
23.4937
23.335
23.0802
22.7875
22.4795
22.1643
21.8552
21.552
21.2627
21.0172
20.8077
20.5981
20.3887
20.1803
19.9732
19.7678
19.5645
19.3637
19.1656
18.9706
18.7788
18.5905
18.4058
18.2249
18.0477
17.8746
17.7056
17.5407
17.3802
17.2239
17.072
16.9244
16.781
16.6418
16.5067
16.3756
16.2484
16.1251
16.0056
15.8899
15.7778
15.6692
15.5642
15.4626
15.3643
15.2693
15.1774
15.0885
15.0026
14.9194
14.839
14.7611
14.6857
14.6126
14.5417
14.4729
14.4062
14.3414
14.2783
14.2171
14.1574
14.0994
14.0429
13.9878
13.9342
13.8819
13.8309
13.7811
13.7325
13.685
13.6385
13.593
13.5483
13.5045
13.4614
13.4188
13.3768
13.3351
13.2937
13.2524
13.211
13.1693
13.1273
13.0846
13.041
12.9959
12.9494
12.9007
12.85
12.7965
12.7402
12.6806
12.6176
12.5507
12.4797
12.4043
12.3243
12.2385
12.1489
12.0509
11.9513
11.8387
11.7281
11.5995
9.16712
9.11138
9.05084
8.98432
8.91216
8.83259
8.74607
8.65058
8.54582
8.43015
8.30123
8.15864
7.99661
7.81532
7.606
7.36381
7.08147
6.73961
6.31618
5.81217
5.02416
3.79684
2.41681
0.939224
1.21926
1.62023
2.04253
2.35658
2.53873
2.62083
2.64177
2.64639
2.64486
2.64159
2.62489
2.59716
2.56295
2.51514
2.45029
2.37119
2.28424
2.18788
2.08144
1.9663
1.84886
1.73562
1.62741
1.52356
1.42107
1.31731
1.20905
1.09621
0.991803
0.919188
0.90421
0.965796
1.10169
1.29687
1.53817
1.81143
2.10174
2.39477
2.67264
2.90766
3.05095
3.02124
2.78634
2.17199
1.79502
5.12399
6.35864
4.7535
2.08571
2.024
1.74373
1.58023
2.3289
2.4962
2.89009
3.50843
3.92237
3.66242
1.83784
2.67274
3.17843
3.37131
4.17331
4.39401
4.50025
4.52053
4.48373
4.40956
4.30053
4.1601
3.98819
3.78239
3.53964
3.25115
2.90976
2.48313
1.95358
1.04781
1.19364
2.17608
2.70437
3.40402
3.69913
4.36317
4.36658
5.06515
)
;
    }
    lowerWall
    {
        type            calculated;
        value           nonuniform List<scalar> 
250
(
12.5336
13.0422
15.4849
16.9101
17.6679
17.7878
17.6922
17.4483
17.0671
16.6456
16.2344
15.8229
15.4536
15.0943
14.7779
14.4949
14.2048
14.0408
0.843755
0.570737
0.840027
1.39693
2.2934
2.63801
2.55892
2.25248
1.63465
0.950914
2.03181
2.7737
3.32844
3.73085
3.99422
4.13439
4.13623
4.02043
3.77236
3.46842
2.95371
2.70762
1.57701
2.66855
1.33234
4.29711
3.57394
0.577295
1.28534
1.17546
1.13098
1.59477
2.24294
2.83709
3.36504
3.82828
4.23513
4.59551
4.91802
5.20995
5.47692
5.72337
5.9528
6.1679
6.37076
6.56293
6.74551
6.91931
7.0849
7.24259
7.39255
7.53485
7.6694
7.79605
7.91463
8.02464
11.5706
11.6985
11.8162
11.9222
12.0079
12.0784
12.1137
12.1368
12.1301
12.1089
12.0628
11.9751
11.8288
11.6171
7.2516
6.76396
6.13172
5.31524
4.2629
2.97231
2.57334
3.43703
3.54141
3.7672
4.93488
5.95195
6.42717
6.37573
5.77497
4.69633
3.58859
4.17853
5.15439
5.69294
5.77413
5.39288
4.56777
3.34879
1.83073
2.39136
2.5915
3.33196
4.03117
12.8054
15.5758
16.803
17.9984
18.7467
19.3544
19.8727
20.2289
20.6016
20.8486
21.1264
21.3266
21.5445
21.7266
21.9091
22.0857
22.252
22.4279
22.5927
22.7713
22.9434
23.1291
23.3136
23.5108
23.7112
23.9232
24.1425
24.3722
24.6121
24.8617
25.1227
25.393
25.6736
25.9628
26.2595
26.5624
26.8693
27.1781
27.4859
27.7903
28.088
28.3765
28.6524
28.9133
29.1563
29.3793
29.5803
29.7585
29.9137
30.0464
30.1595
30.2552
30.3378
30.3963
30.4368
30.4546
30.4579
30.4406
30.4079
30.3609
30.2963
30.2224
30.1299
30.0291
29.9111
29.782
29.6343
29.4713
29.2881
29.0868
28.8629
28.6161
28.3461
28.0538
27.745
27.4277
27.0598
26.6545
26.218
25.7337
25.1802
24.6925
24.4759
24.7328
25.0344
25.3097
25.5789
25.8392
26.0925
26.3525
26.6142
26.9131
27.2104
27.5726
27.9103
28.3251
28.7151
29.1456
29.5861
30.002
30.473
30.8391
31.3103
31.5941
32.021
32.1307
32.4037
32.1404
31.6876
31.5471
31.642
31.9257
32.1688
32.3128
32.4245
32.382
32.0407
31.5658
30.8555
29.6762
28.4148
26.2263
21.387
16.3779
13.985
13.5788
14.0705
14.0711
14.3746
14.1524
14.6291
14.5542
15.7014
)
;
    }
    frontAndBack
    {
        type            empty;
    }
}


// ************************************************************************* //
