/*--------------------------------*- C++ -*----------------------------------*\
| =========                 |                                                 |
| \\      /  F ield         | OpenFOAM: The Open Source CFD Toolbox           |
|  \\    /   O peration     | Version:  2112                                  |
|   \\  /    A nd           | Website:  www.openfoam.com                      |
|    \\/     M anipulation  |                                                 |
\*---------------------------------------------------------------------------*/
FoamFile
{
    version     2.0;
    format      ascii;
    arch        "LSB;label=32;scalar=64";
    class       surfaceScalarField;
    location    "0.43";
    object      phi_0;
}
// * * * * * * * * * * * * * * * * * * * * * * * * * * * * * * * * * * * * * //

dimensions      [0 3 -1 0 0 0 0];

oriented        oriented;

internalField   nonuniform List<scalar> 
24170
(
3.03643e-06
1.51975e-07
2.85688e-06
1.79549e-07
2.67642e-06
1.80463e-07
2.49331e-06
1.83112e-07
2.31158e-06
1.81726e-07
2.13455e-06
1.77028e-07
1.96372e-06
1.70836e-07
1.79966e-06
1.64053e-07
1.64246e-06
1.57203e-07
1.49163e-06
1.50836e-07
1.34611e-06
1.45516e-07
1.20434e-06
1.41773e-07
1.06431e-06
1.40032e-07
9.23781e-07
1.40524e-07
7.80619e-07
1.43162e-07
6.33061e-07
1.47559e-07
4.80138e-07
1.52922e-07
1.56627e-07
3.23511e-07
3.49521e-06
7.40139e-08
3.551e-06
1.23764e-07
3.58761e-06
1.43852e-07
3.60439e-06
1.66327e-07
3.60148e-06
1.84634e-07
3.58064e-06
1.97875e-07
3.5437e-06
2.07768e-07
3.49237e-06
2.15388e-07
3.4281e-06
2.21474e-07
3.35199e-06
2.26949e-07
3.26458e-06
2.32916e-07
3.16578e-06
2.4058e-07
3.05467e-06
2.51136e-07
2.92959e-06
2.65606e-07
2.78801e-06
2.84739e-07
2.62687e-06
3.08704e-07
2.44228e-06
3.37511e-07
3.70247e-07
2.22866e-06
3.67809e-06
5.84429e-08
3.69401e-06
1.07842e-07
3.7113e-06
1.26561e-07
3.73197e-06
1.45656e-07
3.75405e-06
1.62557e-07
3.77608e-06
1.7584e-07
3.79665e-06
1.87203e-07
3.81424e-06
1.97801e-07
3.8275e-06
2.08206e-07
3.83533e-06
2.19121e-07
3.83673e-06
2.31521e-07
3.83075e-06
2.46558e-07
3.81637e-06
2.65511e-07
3.79233e-06
2.89648e-07
3.75677e-06
3.20303e-07
3.70738e-06
3.58093e-07
3.64021e-06
4.04681e-07
4.55998e-07
3.55446e-06
3.93458e-06
4.92464e-08
3.94208e-06
1.00343e-07
3.94655e-06
1.22096e-07
3.95115e-06
1.41053e-07
3.95579e-06
1.5792e-07
3.96052e-06
1.71108e-07
3.96564e-06
1.82077e-07
3.97122e-06
1.92224e-07
3.97708e-06
2.02346e-07
3.98299e-06
2.1321e-07
3.98876e-06
2.25759e-07
3.99424e-06
2.41079e-07
3.9994e-06
2.60346e-07
4.00432e-06
2.84724e-07
4.00913e-06
3.15495e-07
4.01382e-06
3.53409e-07
4.0185e-06
3.99998e-07
4.53655e-07
4.02084e-06
4.21428e-06
4.20976e-08
4.22115e-06
9.34654e-08
4.22486e-06
1.18385e-07
4.22767e-06
1.38249e-07
4.22959e-06
1.56003e-07
4.23037e-06
1.70327e-07
4.2301e-06
1.82349e-07
4.22882e-06
1.935e-07
4.22651e-06
2.04654e-07
4.22315e-06
2.16568e-07
4.2188e-06
2.30115e-07
4.21362e-06
2.46258e-07
4.20798e-06
2.65981e-07
4.2025e-06
2.90204e-07
4.19821e-06
3.19794e-07
4.19629e-06
3.55327e-07
4.19908e-06
3.97207e-07
4.46146e-07
4.20659e-06
4.51457e-06
3.66144e-08
4.52104e-06
8.69929e-08
4.52494e-06
1.14484e-07
4.5278e-06
1.35389e-07
4.52982e-06
1.53983e-07
4.53066e-06
1.69491e-07
4.53024e-06
1.82769e-07
4.52853e-06
1.95214e-07
4.52542e-06
2.07755e-07
4.52085e-06
2.21141e-07
4.51478e-06
2.36182e-07
4.5073e-06
2.53739e-07
4.49864e-06
2.74647e-07
4.4892e-06
2.99641e-07
4.4797e-06
3.29298e-07
4.47105e-06
3.63973e-07
4.46481e-06
4.03448e-07
4.48271e-07
4.46268e-06
4.83693e-06
3.24044e-08
4.84284e-06
8.10795e-08
4.84679e-06
1.10534e-07
4.84965e-06
1.32532e-07
4.85177e-06
1.51863e-07
4.85284e-06
1.68419e-07
4.85274e-06
1.82874e-07
4.85142e-06
1.96535e-07
4.84881e-06
2.10366e-07
4.84484e-06
2.25106e-07
4.83952e-06
2.41499e-07
4.83296e-06
2.60303e-07
4.82539e-06
2.82216e-07
4.81722e-06
3.07812e-07
4.80904e-06
3.37478e-07
4.80164e-06
3.71368e-07
4.79602e-06
4.09071e-07
4.50642e-07
4.79365e-06
5.18282e-06
2.91604e-08
5.1881e-06
7.58021e-08
5.19204e-06
1.06592e-07
5.19494e-06
1.29639e-07
5.19716e-06
1.49644e-07
5.19845e-06
1.67121e-07
5.19867e-06
1.82662e-07
5.19776e-06
1.97439e-07
5.19571e-06
2.12418e-07
5.1925e-06
2.28318e-07
5.18819e-06
2.45809e-07
5.18295e-06
2.65542e-07
5.17709e-06
2.88081e-07
5.17105e-06
3.13847e-07
5.16547e-06
3.43059e-07
5.16114e-06
3.75702e-07
5.15894e-06
4.11269e-07
4.49628e-07
5.15995e-06
5.55386e-06
2.66403e-08
5.55851e-06
7.11476e-08
5.56242e-06
1.02682e-07
5.56541e-06
1.26646e-07
5.56779e-06
1.47268e-07
5.56938e-06
1.65536e-07
5.57e-06
1.82042e-07
5.56962e-06
1.97814e-07
5.56826e-06
2.13777e-07
5.56596e-06
2.30622e-07
5.56282e-06
2.48941e-07
5.55909e-06
2.69274e-07
5.55512e-06
2.92055e-07
5.5514e-06
3.17563e-07
5.54859e-06
3.45872e-07
5.54746e-06
3.76834e-07
5.54885e-06
4.09877e-07
4.44817e-07
5.55366e-06
5.95177e-06
2.46489e-08
5.95587e-06
6.70478e-08
5.95973e-06
9.88195e-08
5.96288e-06
1.23496e-07
5.9655e-06
1.44652e-07
5.96747e-06
1.63565e-07
5.96863e-06
1.80878e-07
5.96896e-06
1.97483e-07
5.9685e-06
2.14237e-07
5.96734e-06
2.31783e-07
5.96565e-06
2.50636e-07
5.96369e-06
2.71228e-07
5.96188e-06
2.93869e-07
5.96073e-06
3.18715e-07
5.96088e-06
3.45721e-07
5.96305e-06
3.74656e-07
5.96802e-06
4.04907e-07
4.36278e-07
5.97656e-06
6.37843e-06
2.30321e-08
6.38207e-06
6.34031e-08
6.3859e-06
9.49925e-08
6.38927e-06
1.20124e-07
6.39224e-06
1.41689e-07
6.39472e-06
1.61084e-07
6.39659e-06
1.7901e-07
6.39782e-06
1.96249e-07
6.39849e-06
2.13564e-07
6.39873e-06
2.31541e-07
6.39876e-06
2.50613e-07
6.39888e-06
2.71109e-07
6.39951e-06
2.93233e-07
6.40119e-06
3.17035e-07
6.40453e-06
3.42383e-07
6.41019e-06
3.68993e-07
6.41884e-06
3.96255e-07
4.23968e-07
6.43115e-06
5.74201e-06
2.18576e-08
5.74483e-06
6.05868e-08
5.74806e-06
9.17542e-08
5.75114e-06
1.17042e-07
5.75401e-06
1.38823e-07
5.75661e-06
1.58481e-07
5.75887e-06
1.76754e-07
5.76077e-06
1.94347e-07
5.7624e-06
2.11938e-07
5.76389e-06
2.30051e-07
5.76545e-06
2.49054e-07
5.76736e-06
2.69197e-07
5.76999e-06
2.90603e-07
5.77377e-06
3.13251e-07
5.7792e-06
3.36957e-07
5.78678e-06
3.61414e-07
5.797e-06
3.86033e-07
4.10632e-07
5.81034e-06
6.99936e-06
2.06579e-08
7.00238e-06
5.75593e-08
7.00615e-06
8.79874e-08
7.01001e-06
1.13183e-07
7.01381e-06
1.35021e-07
7.0175e-06
1.54793e-07
7.021e-06
1.73248e-07
7.02434e-06
1.91015e-07
7.0276e-06
2.08675e-07
7.03098e-06
2.26672e-07
7.03473e-06
2.45302e-07
7.03919e-06
2.64735e-07
7.04478e-06
2.85019e-07
7.05196e-06
3.06071e-07
7.06124e-06
3.27667e-07
7.07317e-06
3.49492e-07
7.0882e-06
3.71002e-07
3.92053e-07
7.10678e-06
8.53211e-06
1.93967e-08
8.53544e-06
5.42249e-08
8.53991e-06
8.35165e-08
8.54485e-06
1.08249e-07
8.55001e-06
1.29861e-07
8.55531e-06
1.49487e-07
8.56072e-06
1.67844e-07
8.56625e-06
1.85482e-07
8.57205e-06
2.02877e-07
8.57834e-06
2.20383e-07
8.58542e-06
2.38217e-07
8.59368e-06
2.56475e-07
8.60356e-06
2.75137e-07
8.61556e-06
2.94075e-07
8.63018e-06
3.13048e-07
8.64792e-06
3.3175e-07
8.66922e-06
3.49701e-07
3.6683e-07
8.69445e-06
1.04006e-05
1.79965e-08
1.04045e-05
5.03806e-08
1.041e-05
7.80264e-08
1.04164e-05
1.01772e-07
1.04236e-05
1.22711e-07
1.04313e-05
1.41773e-07
1.04395e-05
1.596e-07
1.04484e-05
1.76655e-07
1.04579e-05
1.93306e-07
1.04685e-05
2.09811e-07
1.04804e-05
2.26308e-07
1.04941e-05
2.42828e-07
1.05099e-05
2.59304e-07
1.05284e-05
2.75582e-07
1.055e-05
2.91428e-07
1.05752e-05
3.06572e-07
1.06043e-05
3.20605e-07
3.33541e-07
1.06376e-05
1.26785e-05
1.63242e-08
1.26832e-05
4.56697e-08
1.26902e-05
7.09847e-08
1.2699e-05
9.30312e-08
1.2709e-05
1.12638e-07
1.27203e-05
1.30524e-07
1.27327e-05
1.4721e-07
1.27463e-05
1.63063e-07
1.27612e-05
1.78343e-07
1.27778e-05
1.93215e-07
1.27964e-05
2.07749e-07
1.28173e-05
2.21925e-07
1.28409e-05
2.35652e-07
1.28677e-05
2.48775e-07
1.28981e-05
2.6109e-07
1.29323e-05
2.72382e-07
1.29705e-05
2.82333e-07
2.91013e-07
1.30131e-05
1.54553e-05
1.41709e-08
1.54615e-05
3.9526e-08
1.54709e-05
6.15504e-08
1.5483e-05
8.09418e-08
1.54973e-05
9.83224e-08
1.55136e-05
1.14202e-07
1.55319e-05
1.28957e-07
1.55521e-05
1.42841e-07
1.55744e-05
1.56018e-07
1.55991e-05
1.68571e-07
1.56263e-05
1.80512e-07
1.56565e-05
1.91793e-07
1.56898e-05
2.0232e-07
1.57266e-05
2.11962e-07
1.57671e-05
2.20562e-07
1.58115e-05
2.27975e-07
1.58599e-05
2.33981e-07
2.38697e-07
1.59122e-05
1.88406e-05
1.12311e-08
1.8849e-05
3.11187e-08
1.8862e-05
4.84949e-08
1.8879e-05
6.39749e-08
1.88993e-05
7.79897e-08
1.89227e-05
9.08392e-08
1.89489e-05
1.02736e-07
1.89779e-05
1.13818e-07
1.90098e-05
1.24154e-07
1.90446e-05
1.3376e-07
1.90825e-05
1.42608e-07
1.91237e-05
1.50636e-07
1.91682e-05
1.57765e-07
1.92163e-05
1.639e-07
1.92679e-05
1.6894e-07
1.93231e-05
1.72805e-07
1.93817e-05
1.7537e-07
1.76767e-07
1.94436e-05
2.29676e-05
6.99663e-09
2.29795e-05
1.92012e-08
2.29979e-05
3.00426e-08
2.30219e-05
4.0032e-08
2.30505e-05
4.93559e-08
2.30833e-05
5.80586e-08
2.31199e-05
6.61695e-08
2.316e-05
7.37025e-08
2.32035e-05
8.06347e-08
2.32503e-05
8.69152e-08
2.33005e-05
9.24825e-08
2.33538e-05
9.7272e-08
2.34104e-05
1.01219e-07
2.347e-05
1.04264e-07
2.35326e-05
1.06353e-07
2.3598e-05
1.07456e-07
2.36658e-05
1.07523e-07
1.06672e-07
2.37359e-05
1.68143e-05
3.35697e-09
1.68244e-05
9.12016e-09
1.68398e-05
1.46375e-08
1.68595e-05
2.03177e-08
1.68828e-05
2.60583e-08
1.69092e-05
3.16684e-08
1.69383e-05
3.70543e-08
1.69699e-05
4.21455e-08
1.70037e-05
4.68451e-08
1.70396e-05
5.10501e-08
1.70774e-05
5.46732e-08
1.7117e-05
5.76433e-08
1.71583e-05
5.99016e-08
1.72012e-05
6.14025e-08
1.72454e-05
6.21141e-08
1.72908e-05
6.2027e-08
1.73372e-05
6.11238e-08
5.95033e-08
1.73844e-05
1.46382e-05
-2.75788e-10
1.46482e-05
-8.57495e-10
1.46631e-05
-3.05589e-10
1.46819e-05
1.57664e-09
1.47037e-05
4.22954e-09
1.47282e-05
7.21009e-09
1.47549e-05
1.03425e-08
1.47835e-05
1.34862e-08
1.48139e-05
1.64699e-08
1.48458e-05
1.91435e-08
1.48791e-05
2.13985e-08
1.49136e-05
2.31549e-08
1.49491e-05
2.43516e-08
1.49856e-05
2.49466e-08
1.50228e-05
2.49162e-08
1.50605e-05
2.42589e-08
1.50987e-05
2.29718e-08
2.11361e-08
1.51371e-05
1.27438e-05
-3.9428e-09
1.27538e-05
-1.08664e-08
1.27683e-05
-1.47858e-08
1.27859e-05
-1.60763e-08
1.28062e-05
-1.5986e-08
1.28285e-05
-1.51598e-08
1.28527e-05
-1.38036e-08
1.28783e-05
-1.21422e-08
1.29052e-05
-1.04318e-08
1.29332e-05
-8.86063e-09
1.29622e-05
-7.55034e-09
1.29919e-05
-6.58989e-09
1.30223e-05
-6.04633e-09
1.30532e-05
-5.96269e-09
1.30845e-05
-6.35957e-09
1.3116e-05
-7.23452e-09
1.31475e-05
-8.57972e-09
-1.03274e-08
1.3179e-05
1.10948e-05
-7.86078e-09
1.11051e-05
-2.10826e-08
1.1119e-05
-2.87627e-08
1.11355e-05
-3.25449e-08
1.11541e-05
-3.458e-08
1.11745e-05
-3.5523e-08
1.11962e-05
-3.55432e-08
1.1219e-05
-3.49841e-08
1.12428e-05
-3.41947e-08
1.12673e-05
-3.33911e-08
1.12925e-05
-3.27054e-08
1.13181e-05
-3.22382e-08
1.13442e-05
-3.20652e-08
1.13704e-05
-3.22331e-08
1.13968e-05
-3.27636e-08
1.14233e-05
-3.36551e-08
1.14496e-05
-3.48977e-08
-3.64386e-08
1.14757e-05
9.65964e-06
-1.22815e-08
9.67029e-06
-3.17375e-08
9.68373e-06
-4.22048e-08
9.69893e-06
-4.77442e-08
9.71584e-06
-5.14868e-08
9.73414e-06
-5.3826e-08
9.75348e-06
-5.48852e-08
9.77366e-06
-5.51565e-08
9.79451e-06
-5.5054e-08
9.81592e-06
-5.47974e-08
9.83774e-06
-5.45278e-08
9.85987e-06
-5.43617e-08
9.88219e-06
-5.43858e-08
9.90461e-06
-5.46525e-08
9.92703e-06
-5.51865e-08
9.94936e-06
-5.59873e-08
9.97151e-06
-5.70424e-08
-5.83038e-08
9.99337e-06
8.4106e-06
-1.75251e-08
8.42176e-06
-4.29061e-08
8.43466e-06
-5.50975e-08
8.44881e-06
-6.18982e-08
8.46433e-06
-6.70084e-08
8.48084e-06
-7.03292e-08
8.49802e-06
-7.20685e-08
8.51577e-06
-7.29028e-08
8.53398e-06
-7.32684e-08
8.55255e-06
-7.33675e-08
8.57137e-06
-7.33447e-08
8.59034e-06
-7.33299e-08
8.60937e-06
-7.34201e-08
8.62839e-06
-7.36748e-08
8.64733e-06
-7.41257e-08
8.66612e-06
-7.47721e-08
8.68468e-06
-7.56088e-08
-7.65596e-08
8.70294e-06
7.32395e-06
-2.41921e-08
7.33534e-06
-5.42915e-08
7.3471e-06
-6.68609e-08
7.3599e-06
-7.46968e-08
7.3739e-06
-8.10099e-08
7.38861e-06
-8.5039e-08
7.4038e-06
-8.72577e-08
7.4194e-06
-8.85022e-08
7.43532e-06
-8.91918e-08
7.45148e-06
-8.95273e-08
7.4678e-06
-8.96656e-08
7.48422e-06
-8.97475e-08
7.50068e-06
-8.98777e-08
7.51713e-06
-9.01233e-08
7.53353e-06
-9.05258e-08
7.54984e-06
-9.10879e-08
7.56605e-06
-9.18115e-08
-9.25637e-08
7.58205e-06
6.37904e-06
-3.31639e-08
6.3912e-06
-6.64542e-08
6.40213e-06
-7.77874e-08
6.41393e-06
-8.65031e-08
6.42684e-06
-9.39198e-08
6.44054e-06
-9.87407e-08
6.45506e-06
-1.01768e-07
6.47037e-06
-1.03821e-07
6.4864e-06
-1.05221e-07
6.50304e-06
-1.06163e-07
6.52021e-06
-1.06838e-07
6.53787e-06
-1.07407e-07
6.55597e-06
-1.07976e-07
6.57447e-06
-1.08619e-07
6.59332e-06
-1.09383e-07
6.61255e-06
-1.10313e-07
6.63209e-06
-1.11353e-07
-1.12495e-07
6.65202e-06
5.55745e-06
-4.51444e-08
5.57402e-06
-8.30341e-08
5.59126e-06
-9.50187e-08
5.61194e-06
-1.0719e-07
5.6353e-06
-1.17275e-07
5.66052e-06
-1.23959e-07
5.68713e-06
-1.2838e-07
5.71466e-06
-1.31353e-07
5.74269e-06
-1.33248e-07
5.77085e-06
-1.34323e-07
5.79882e-06
-1.34811e-07
5.82631e-06
-1.34901e-07
5.85308e-06
-1.34742e-07
5.87892e-06
-1.34456e-07
5.90365e-06
-1.34122e-07
5.92719e-06
-1.33852e-07
5.94947e-06
-1.33626e-07
-1.33951e-07
5.97092e-06
4.89314e-06
-1.10679e-07
4.95291e-06
-1.428e-07
5.00495e-06
-1.4706e-07
5.04837e-06
-1.50611e-07
5.08154e-06
-1.50446e-07
5.10467e-06
-1.47086e-07
5.1186e-06
-1.42316e-07
5.12428e-06
-1.37027e-07
5.12258e-06
-1.31551e-07
5.11435e-06
-1.26089e-07
5.10032e-06
-1.20784e-07
5.08114e-06
-1.15724e-07
5.05736e-06
-1.10959e-07
5.02942e-06
-1.06517e-07
4.99771e-06
-1.02405e-07
4.96251e-06
-9.8653e-08
4.92408e-06
-9.52032e-08
-9.22688e-08
4.8824e-06
4.092e-06
3.9492e-06
3.80214e-06
3.65153e-06
3.50108e-06
3.35399e-06
3.21168e-06
3.07465e-06
2.9431e-06
2.81701e-06
2.69623e-06
2.5805e-06
2.46954e-06
2.36303e-06
2.26062e-06
2.16197e-06
2.06677e-06
1.9745e-06
-3.35196e-07
3.35196e-07
-2.26853e-07
-1.08343e-07
3.81424e-07
-6.08277e-07
1.25335e-06
-8.7193e-07
2.14855e-06
-8.95196e-07
2.91068e-06
-7.62132e-07
3.46063e-06
-5.49951e-07
3.76715e-06
-3.06511e-07
3.82698e-06
-5.9833e-08
3.62551e-06
2.01464e-07
3.19396e-06
4.31559e-07
2.59447e-06
5.99486e-07
1.91948e-06
6.74994e-07
1.28104e-06
6.38434e-07
7.90096e-07
4.90946e-07
5.14991e-07
2.75105e-07
4.5908e-07
5.59112e-08
6.03162e-07
-1.44083e-07
9.02222e-07
-2.99059e-07
1.16314e-06
-2.60922e-07
1.2298e-06
-6.66541e-08
1.11526e-06
1.1454e-07
8.19594e-07
2.95663e-07
3.12323e-07
5.07271e-07
-4.11748e-07
7.24071e-07
-1.2827e-06
8.70948e-07
-2.24029e-06
9.57589e-07
-3.23936e-06
9.99076e-07
-4.24149e-06
1.00213e-06
-5.21444e-06
9.72941e-07
-6.13249e-06
9.18052e-07
-6.97617e-06
8.43682e-07
-7.73097e-06
7.54805e-07
-8.38757e-06
6.56594e-07
-8.94081e-06
5.53244e-07
-9.38912e-06
4.48307e-07
-9.73388e-06
3.44757e-07
-9.9788e-06
2.4492e-07
-1.01294e-05
1.50586e-07
-1.01923e-05
6.28999e-08
-1.0178e-05
-1.42349e-08
-1.01023e-05
-7.57526e-08
-9.97264e-06
-1.29659e-07
-9.79621e-06
-1.7643e-07
-9.57855e-06
-2.17652e-07
-9.32392e-06
-2.5463e-07
-9.03569e-06
-2.88238e-07
-8.7166e-06
-3.19091e-07
-8.36897e-06
-3.47624e-07
-7.99487e-06
-3.74097e-07
-7.59624e-06
-3.98631e-07
-7.175e-06
-4.2124e-07
-6.73321e-06
-4.41794e-07
-6.27318e-06
-4.60033e-07
-5.79753e-06
-4.75651e-07
-5.30924e-06
-4.8829e-07
-4.81165e-06
-4.97589e-07
-4.30842e-06
-5.03226e-07
-3.80348e-06
-5.04944e-07
-3.30091e-06
-5.02569e-07
-2.8049e-06
-4.9601e-07
-2.31964e-06
-4.85258e-07
-1.84923e-06
-4.7041e-07
-1.39751e-06
-4.51715e-07
-9.67724e-07
-4.29789e-07
-5.61674e-07
-4.0605e-07
-1.79115e-07
-3.82559e-07
1.79515e-07
-3.5863e-07
5.13909e-07
-3.34394e-07
8.24358e-07
-3.1045e-07
1.11253e-06
-2.88167e-07
1.3796e-06
-2.67073e-07
1.62584e-06
-2.46243e-07
1.8521e-06
-2.26262e-07
2.05969e-06
-2.07587e-07
2.25004e-06
-1.90352e-07
2.42452e-06
-1.74475e-07
2.5843e-06
-1.59782e-07
2.73036e-06
-1.4606e-07
2.86342e-06
-1.33057e-07
2.98385e-06
-1.20433e-07
3.09151e-06
-1.07656e-07
3.1853e-06
-9.37901e-08
3.26266e-06
-7.73639e-08
3.32006e-06
-5.74039e-08
3.34961e-06
-2.95476e-08
3.33396e-06
1.56471e-08
3.24991e-06
8.40575e-08
3.08523e-06
1.64681e-07
2.84202e-06
2.43208e-07
2.54219e-06
2.9983e-07
2.22631e-06
3.15879e-07
1.94097e-06
2.85344e-07
1.72143e-06
2.19541e-07
1.57968e-06
1.41744e-07
1.50384e-06
7.5842e-08
1.47026e-06
3.35835e-08
1.45562e-06
1.46379e-08
1.45192e-06
3.70268e-09
1.47649e-06
-2.45783e-08
1.54686e-06
-7.03651e-08
1.66432e-06
-1.17466e-07
1.81338e-06
-1.49051e-07
1.97987e-06
-1.66492e-07
2.16659e-06
-1.8672e-07
2.37482e-06
-2.08234e-07
2.58835e-06
-2.13528e-07
2.79516e-06
-2.06809e-07
2.94905e-06
-1.53886e-07
2.87382e-06
7.52299e-08
2.2854e-06
5.88419e-07
1.04448e-06
1.24091e-06
-6.45684e-07
1.69017e-06
-2.4215e-06
1.77581e-06
-4.01541e-06
1.59392e-06
-5.28226e-06
1.26685e-06
-6.18258e-06
9.00323e-07
-6.73203e-06
5.49445e-07
-6.9685e-06
2.36468e-07
-6.94717e-06
-2.13309e-08
-6.72385e-06
-2.23313e-07
-6.33035e-06
-3.93506e-07
-5.7905e-06
-5.39843e-07
-5.12494e-06
-6.65567e-07
-4.35538e-06
-7.69554e-07
-3.5059e-06
-8.49478e-07
-2.6026e-06
-9.03309e-07
-1.67221e-06
-9.30381e-07
-7.38999e-07
-9.33216e-07
1.7674e-07
-9.15738e-07
1.05898e-06
-8.82241e-07
1.89761e-06
-8.3863e-07
2.68942e-06
-7.91811e-07
3.43635e-06
-7.46928e-07
4.14476e-06
-7.08416e-07
4.82436e-06
-6.79599e-07
5.48587e-06
-6.61507e-07
6.13835e-06
-6.52484e-07
6.78667e-06
-6.48315e-07
7.42905e-06
-6.42377e-07
8.05316e-06
-6.24116e-07
8.63255e-06
-5.79392e-07
9.13028e-06
-4.97721e-07
9.45764e-06
-3.27361e-07
9.44535e-06
1.22885e-08
8.92601e-06
5.19341e-07
7.90318e-06
1.02283e-06
6.5111e-06
1.39207e-06
5.01199e-06
1.49911e-06
3.71813e-06
1.29385e-06
2.82922e-06
8.88916e-07
2.32562e-06
5.036e-07
2.02457e-06
3.01052e-07
1.74144e-06
2.83121e-07
1.40045e-06
3.40999e-07
1.00521e-06
3.95237e-07
5.72749e-07
4.3246e-07
1.34506e-07
4.38243e-07
-2.55849e-07
3.90354e-07
-5.62496e-07
3.06647e-07
-7.55367e-07
1.92871e-07
-8.20875e-07
6.55083e-08
-7.68429e-07
-5.24459e-08
-6.17935e-07
-1.50494e-07
-3.97508e-07
-2.20428e-07
-1.40334e-07
-2.57174e-07
1.22245e-07
-2.62579e-07
3.68106e-07
-2.45861e-07
5.84089e-07
-2.15984e-07
7.66188e-07
-1.82099e-07
9.16504e-07
-1.50316e-07
1.04066e-06
-1.2416e-07
1.14588e-06
-1.05212e-07
1.23965e-06
-9.37705e-08
1.32831e-06
-8.86662e-08
1.41674e-06
-8.84292e-08
1.50532e-06
-8.85764e-08
1.59539e-06
-9.00676e-08
1.6636e-06
-6.82157e-08
-4.19302e-08
1.70553e-06
2.83334e-07
5.18622e-08
1.07668e-06
-9.01687e-07
2.01107e-06
-1.54267e-06
2.83962e-06
-1.70048e-06
3.47808e-06
-1.53366e-06
3.92464e-06
-1.20869e-06
4.20284e-06
-8.28153e-07
4.3366e-06
-4.40273e-07
4.34536e-06
-6.85942e-08
4.2316e-06
3.1522e-07
3.9961e-06
6.67061e-07
3.63146e-06
9.64133e-07
3.15105e-06
1.1554e-06
2.60377e-06
1.18571e-06
2.06419e-06
1.03052e-06
1.62887e-06
7.1043e-07
1.38931e-06
2.95471e-07
1.16982e-06
7.54088e-08
7.2572e-07
1.45038e-07
3.81831e-08
4.26615e-07
-8.81664e-07
8.53193e-07
-1.98607e-06
1.21894e-06
-3.2022e-06
1.51179e-06
-4.43263e-06
1.73771e-06
-5.60049e-06
1.89192e-06
-6.69158e-06
1.96204e-06
-7.68786e-06
1.95387e-06
-8.57003e-06
1.88125e-06
-9.32686e-06
1.75895e-06
-9.95552e-06
1.60161e-06
-1.04599e-05
1.4224e-06
-1.08485e-05
1.23232e-06
-1.11335e-05
1.0398e-06
-1.1328e-05
8.51045e-07
-1.1445e-05
6.70243e-07
-1.1497e-05
5.00397e-07
-1.14954e-05
3.431e-07
-1.14493e-05
1.98881e-07
-1.13671e-05
6.83681e-08
-1.12533e-05
-5.08951e-08
-1.11092e-05
-1.58383e-07
-1.09293e-05
-2.55626e-07
-1.07138e-05
-3.45157e-07
-1.04636e-05
-4.26601e-07
-1.01808e-05
-5.00533e-07
-9.86759e-06
-5.67802e-07
-9.52647e-06
-6.29357e-07
-9.15948e-06
-6.8608e-07
-8.76841e-06
-7.38702e-07
-8.35476e-06
-7.87742e-07
-7.91995e-06
-8.33443e-07
-7.46547e-06
-8.75715e-07
-6.99305e-06
-9.14214e-07
-6.50467e-06
-9.48416e-07
-6.00262e-06
-9.77704e-07
-5.48951e-06
-1.0014e-06
-4.96826e-06
-1.01884e-06
-4.44206e-06
-1.02943e-06
-3.91427e-06
-1.03273e-06
-3.38838e-06
-1.02846e-06
-2.86795e-06
-1.01644e-06
-2.35661e-06
-9.96595e-07
-1.85795e-06
-9.69067e-07
-1.37534e-06
-9.34328e-07
-9.11679e-07
-8.93452e-07
-4.69682e-07
-8.48048e-07
-5.19618e-08
-8.00279e-07
3.40934e-07
-7.51526e-07
7.07853e-07
-7.01312e-07
1.0496e-06
-6.52197e-07
1.36681e-06
-6.05379e-07
1.66151e-06
-5.61767e-07
1.93667e-06
-5.21412e-07
2.19441e-06
-4.83997e-07
2.43608e-06
-4.49259e-07
2.66281e-06
-4.17082e-07
2.87563e-06
-3.87292e-07
3.07545e-06
-3.59606e-07
3.26309e-06
-3.33698e-07
3.43924e-06
-3.09211e-07
3.60452e-06
-2.85708e-07
3.75946e-06
-2.626e-07
3.90471e-06
-2.3904e-07
4.04123e-06
-2.13884e-07
4.16949e-06
-1.85665e-07
4.29241e-06
-1.52463e-07
4.41875e-06
-1.10694e-07
4.55738e-06
-5.45686e-08
4.70406e-06
1.79975e-08
4.84486e-06
1.02406e-07
4.96213e-06
1.82561e-07
5.04095e-06
2.37062e-07
5.07207e-06
2.54227e-07
5.0511e-06
2.4051e-07
4.97523e-06
2.17613e-07
4.84127e-06
2.09797e-07
4.64357e-06
2.31289e-07
4.38247e-06
2.75732e-07
4.07411e-06
3.12068e-07
3.74798e-06
3.01545e-07
3.45462e-06
2.23002e-07
3.24299e-06
9.41591e-08
3.13928e-06
-4.53432e-08
3.1512e-06
-1.78411e-07
3.28382e-06
-3.19338e-07
3.52132e-06
-4.45735e-07
3.76572e-06
-4.57929e-07
3.8495e-06
-2.90586e-07
3.53016e-06
1.65454e-07
2.45343e-06
1.15196e-06
5.25808e-07
2.51604e-06
-1.75134e-06
3.51806e-06
-3.77231e-06
3.71113e-06
-5.27879e-06
3.2823e-06
-6.25791e-06
2.57304e-06
-6.83133e-06
1.84027e-06
-7.13114e-06
1.20013e-06
-7.25496e-06
6.73265e-07
-7.25217e-06
2.33679e-07
-7.12032e-06
-1.53188e-07
-6.84252e-06
-5.0111e-07
-6.41503e-06
-8.20995e-07
-5.84661e-06
-1.10826e-06
-5.15279e-06
-1.35939e-06
-4.35276e-06
-1.56959e-06
-3.46893e-06
-1.73331e-06
-2.52615e-06
-1.84608e-06
-1.55048e-06
-1.90606e-06
-5.66922e-07
-1.91677e-06
4.03363e-07
-1.88602e-06
1.3441e-06
-1.82298e-06
2.24636e-06
-1.74089e-06
3.10742e-06
-1.65286e-06
3.92962e-06
-1.56913e-06
4.71936e-06
-1.49816e-06
5.4858e-06
-1.44603e-06
6.23942e-06
-1.41512e-06
6.99031e-06
-1.40338e-06
7.74613e-06
-1.40413e-06
8.50959e-06
-1.40584e-06
9.27752e-06
-1.39205e-06
1.00399e-05
-1.3418e-06
1.07693e-05
-1.22707e-06
1.14578e-05
-1.01586e-06
1.2137e-05
-6.66967e-07
1.27563e-05
-9.99222e-08
1.3094e-05
6.85083e-07
1.29267e-05
1.55946e-06
1.21249e-05
2.30084e-06
1.0713e-05
2.70583e-06
8.86857e-06
2.7333e-06
6.90608e-06
2.4661e-06
5.18277e-06
2.02436e-06
3.90072e-06
1.56516e-06
3.00675e-06
1.23497e-06
2.31674e-06
1.08525e-06
1.70698e-06
1.04223e-06
1.16329e-06
9.81927e-07
7.15799e-07
8.37851e-07
3.96034e-07
6.26412e-07
2.10488e-07
3.78417e-07
1.54937e-07
1.21059e-07
2.23196e-07
-1.20704e-07
3.98979e-07
-3.26277e-07
6.52443e-07
-4.73892e-07
9.46363e-07
-5.51094e-07
1.24503e-06
-5.61243e-07
1.52003e-06
-5.20864e-07
1.75489e-06
-4.50845e-07
1.94391e-06
-3.71118e-07
2.09018e-06
-2.96584e-07
2.20237e-06
-2.36348e-07
2.2914e-06
-1.94245e-07
2.36771e-06
-1.70078e-07
2.43951e-06
-1.60473e-07
2.51246e-06
-1.61371e-07
2.58886e-06
-1.6498e-07
2.66844e-06
-1.69649e-07
2.74386e-06
-1.43632e-07
-1.11927e-07
2.81385e-06
7.93605e-07
-7.41742e-07
1.84142e-06
-1.94951e-06
2.58821e-06
-2.28945e-06
2.98408e-06
-2.09634e-06
3.14107e-06
-1.69065e-06
3.17004e-06
-1.23766e-06
3.13844e-06
-7.96552e-07
3.0695e-06
-3.71339e-07
2.95591e-06
4.49998e-08
2.81271e-06
4.58417e-07
2.62107e-06
8.587e-07
2.36381e-06
1.2214e-06
2.0305e-06
1.48872e-06
1.64319e-06
1.57302e-06
1.26378e-06
1.40993e-06
8.96816e-07
1.0774e-06
3.66137e-07
8.2615e-07
-5.30228e-07
9.71773e-07
-1.79638e-06
1.41119e-06
-3.20801e-06
1.83825e-06
-4.55739e-06
2.20257e-06
-5.81147e-06
2.47302e-06
-6.93972e-06
2.64004e-06
-7.91088e-06
2.70887e-06
-8.70948e-06
2.69052e-06
-9.34643e-06
2.599e-06
-9.84306e-06
2.4505e-06
-1.02241e-05
2.26224e-06
-1.05147e-05
2.04957e-06
-1.07377e-05
1.8246e-06
-1.09111e-05
1.59584e-06
-1.10473e-05
1.3685e-06
-1.1153e-05
1.14548e-06
-1.12303e-05
9.28359e-07
-1.12782e-05
7.18155e-07
-1.12936e-05
5.15845e-07
-1.12731e-05
3.22572e-07
-1.12138e-05
1.39552e-07
-1.11131e-05
-3.23318e-08
-1.09729e-05
-1.9108e-07
-1.07936e-05
-3.37657e-07
-1.05781e-05
-4.71189e-07
-1.03312e-05
-5.92048e-07
-1.00566e-05
-7.01127e-07
-9.75744e-06
-7.99734e-07
-9.43589e-06
-8.89352e-07
-9.09373e-06
-9.7152e-07
-8.73213e-06
-1.04768e-06
-8.3518e-06
-1.11903e-06
-7.95316e-06
-1.18639e-06
-7.53649e-06
-1.25011e-06
-7.10219e-06
-1.31001e-06
-6.65093e-06
-1.36547e-06
-6.18393e-06
-1.41542e-06
-5.70315e-06
-1.45848e-06
-5.21127e-06
-1.49329e-06
-4.7115e-06
-1.51861e-06
-4.20735e-06
-1.53357e-06
-3.70233e-06
-1.53775e-06
-3.19963e-06
-1.53117e-06
-2.70194e-06
-1.51413e-06
-2.21149e-06
-1.48704e-06
-1.73031e-06
-1.45024e-06
-1.26063e-06
-1.40401e-06
-8.05061e-07
-1.34902e-06
-3.66747e-07
-1.28636e-06
5.07458e-08
-1.21777e-06
4.44422e-07
-1.1452e-06
8.13795e-07
-1.07068e-06
1.15846e-06
-9.96857e-07
1.4791e-06
-9.26019e-07
1.77709e-06
-8.59761e-07
2.05438e-06
-7.98699e-07
2.31315e-06
-7.42767e-07
2.55577e-06
-6.91887e-07
2.7841e-06
-6.45407e-07
2.99942e-06
-6.02612e-07
3.20273e-06
-5.62911e-07
3.39485e-06
-5.25821e-07
3.57653e-06
-4.90895e-07
3.74852e-06
-4.57696e-07
3.91164e-06
-4.25721e-07
4.06691e-06
-3.94305e-07
4.21555e-06
-3.62532e-07
4.3589e-06
-3.29013e-07
4.49848e-06
-2.92039e-07
4.63752e-06
-2.49735e-07
4.78293e-06
-1.99985e-07
4.94287e-06
-1.41938e-07
5.12258e-06
-7.73026e-08
5.31735e-06
-1.22151e-08
5.5108e-06
4.36188e-08
5.68266e-06
8.23617e-08
5.81762e-06
1.05552e-07
5.90883e-06
1.26408e-07
5.95509e-06
1.63535e-07
5.95313e-06
2.33241e-07
5.89114e-06
3.3773e-07
5.74432e-06
4.58882e-07
5.48464e-06
5.61222e-07
5.10271e-06
6.0494e-07
4.63433e-06
5.62533e-07
4.16393e-06
4.25054e-07
3.80219e-06
1.83332e-07
3.65374e-06
-1.70888e-07
3.74057e-06
-5.32562e-07
3.87535e-06
-5.92706e-07
3.6497e-06
-6.49391e-08
2.58828e-06
1.22687e-06
5.60416e-07
3.17982e-06
-1.76834e-06
4.8448e-06
-3.63272e-06
5.38244e-06
-4.84993e-06
4.92834e-06
-5.5791e-06
4.01147e-06
-6.06299e-06
3.05692e-06
-6.45229e-06
2.22957e-06
-6.77764e-06
1.52548e-06
-7.00541e-06
9.0104e-07
-7.09526e-06
3.23528e-07
-7.03009e-06
-2.18362e-07
-6.80272e-06
-7.28483e-07
-6.42145e-06
-1.20226e-06
-5.89591e-06
-1.6338e-06
-5.23949e-06
-2.0158e-06
-4.46984e-06
-2.33924e-06
-3.6091e-06
-2.59405e-06
-2.68383e-06
-2.77136e-06
-1.7226e-06
-2.86729e-06
-7.53337e-07
-2.88603e-06
1.99839e-07
-2.8392e-06
1.12121e-06
-2.74435e-06
2.00138e-06
-2.62106e-06
2.83738e-06
-2.48887e-06
3.63249e-06
-2.36424e-06
4.3947e-06
-2.26036e-06
5.13503e-06
-2.18636e-06
5.86588e-06
-2.14598e-06
6.59943e-06
-2.13692e-06
7.34566e-06
-2.15037e-06
8.11033e-06
-2.17051e-06
8.89331e-06
-2.17503e-06
9.68802e-06
-2.13651e-06
1.04829e-05
-2.02192e-06
1.12609e-05
-1.79386e-06
1.20118e-05
-1.41791e-06
1.27756e-05
-8.63689e-07
1.35621e-05
-1.01402e-07
1.42593e-05
8.62221e-07
1.46139e-05
1.94626e-06
1.43492e-05
2.97054e-06
1.33191e-05
3.76338e-06
1.15936e-05
4.19161e-06
9.44955e-06
4.1684e-06
7.28651e-06
3.7282e-06
5.45509e-06
3.06639e-06
4.09839e-06
2.44195e-06
3.14347e-06
1.99715e-06
2.44019e-06
1.6852e-06
1.89336e-06
1.38468e-06
1.48241e-06
1.03737e-06
1.21277e-06
6.48055e-07
1.09249e-06
2.41344e-07
1.11829e-06
-1.46508e-07
1.27164e-06
-4.79631e-07
1.5195e-06
-7.21747e-07
1.82006e-06
-8.51658e-07
2.13246e-06
-8.73639e-07
2.4243e-06
-8.12707e-07
2.67579e-06
-7.02328e-07
2.87889e-06
-5.74224e-07
3.03473e-06
-4.52425e-07
3.14998e-06
-3.51592e-07
3.23374e-06
-2.78009e-07
3.29542e-06
-2.31758e-07
3.34344e-06
-2.08496e-07
3.38444e-06
-2.02364e-07
3.42309e-06
-2.03637e-07
3.46101e-06
-2.0756e-07
3.50036e-06
-1.82989e-07
-1.5078e-07
3.53922e-06
9.27741e-07
-1.66948e-06
1.63828e-06
-2.66005e-06
1.8644e-06
-2.51557e-06
1.81792e-06
-2.04986e-06
1.67536e-06
-1.5481e-06
1.52021e-06
-1.08251e-06
1.37877e-06
-6.55106e-07
1.24104e-06
-2.33613e-07
1.0869e-06
1.99136e-07
9.01666e-07
6.43655e-07
6.72885e-07
1.08748e-06
4.17685e-07
1.4766e-06
1.71605e-07
1.7348e-06
-5.20281e-08
1.79665e-06
-3.50625e-07
1.70853e-06
-9.67837e-07
1.69461e-06
-2.09065e-06
1.94896e-06
-3.49906e-06
2.38019e-06
-4.87715e-06
2.78928e-06
-6.12373e-06
3.08483e-06
-7.18286e-06
3.2617e-06
-8.03951e-06
3.32967e-06
-8.70294e-06
3.30348e-06
-9.19821e-06
3.20413e-06
-9.55985e-06
3.05216e-06
-9.82607e-06
2.86522e-06
-1.00326e-05
2.65703e-06
-1.02072e-05
2.4368e-06
-1.03668e-05
2.2092e-06
-1.05178e-05
1.97565e-06
-1.06581e-05
1.73605e-06
-1.07799e-05
1.4903e-06
-1.08736e-05
1.23927e-06
-1.09304e-05
9.85165e-07
-1.09436e-05
7.31339e-07
-1.09097e-05
4.81864e-07
-1.0828e-05
2.40948e-07
-1.07012e-05
1.26938e-08
-1.05332e-05
-2.00307e-07
-1.03292e-05
-3.95107e-07
-1.00955e-05
-5.71307e-07
-9.83774e-06
-7.28969e-07
-9.56082e-06
-8.68968e-07
-9.26898e-06
-9.92964e-07
-8.96548e-06
-1.10324e-06
-8.65239e-06
-1.20243e-06
-8.33061e-06
-1.2933e-06
-7.99985e-06
-1.37844e-06
-7.65884e-06
-1.46003e-06
-7.3056e-06
-1.53963e-06
-6.93774e-06
-1.61796e-06
-6.55291e-06
-1.69485e-06
-6.1492e-06
-1.76918e-06
-5.72563e-06
-1.83899e-06
-5.28241e-06
-1.9017e-06
-4.82124e-06
-1.95445e-06
-4.34539e-06
-1.99446e-06
-3.85955e-06
-2.01941e-06
-3.36945e-06
-2.02786e-06
-2.88115e-06
-2.01947e-06
-2.40015e-06
-1.99512e-06
-1.93049e-06
-1.9567e-06
-1.47427e-06
-1.90647e-06
-1.03202e-06
-1.84626e-06
-6.0388e-07
-1.77716e-06
-1.90286e-07
-1.69996e-06
2.07483e-07
-1.61554e-06
5.87093e-07
-1.52481e-06
9.46562e-07
-1.43015e-06
1.28423e-06
-1.33452e-06
1.59942e-06
-1.24121e-06
1.89267e-06
-1.15301e-06
2.16556e-06
-1.07159e-06
2.42025e-06
-9.97458e-07
2.65884e-06
-9.30481e-07
2.88334e-06
-8.69901e-07
3.09543e-06
-8.14703e-07
3.29633e-06
-7.63807e-07
3.48688e-06
-7.16375e-07
3.6678e-06
-6.71816e-07
3.83982e-06
-6.29714e-07
4.00382e-06
-5.89722e-07
4.16094e-06
-5.51428e-07
4.31261e-06
-5.142e-07
4.46062e-06
-4.77023e-07
4.60708e-06
-4.38494e-07
4.7542e-06
-3.96857e-07
4.90438e-06
-3.50165e-07
5.05992e-06
-2.97482e-07
5.22262e-06
-2.39999e-07
5.39182e-06
-1.81418e-07
5.56247e-06
-1.27028e-07
5.7252e-06
-8.03654e-08
5.86998e-06
-3.92301e-08
5.99044e-06
5.94861e-09
6.09006e-06
6.3914e-08
6.17063e-06
1.52668e-07
6.22792e-06
2.80443e-07
6.23999e-06
4.46815e-07
6.16612e-06
6.35088e-07
5.96219e-06
8.08872e-07
5.60786e-06
9.16863e-07
5.12896e-06
9.03951e-07
4.61034e-06
7.01952e-07
4.19976e-06
2.39696e-07
3.99324e-06
-3.26041e-07
3.76045e-06
-3.59919e-07
2.95382e-06
7.41694e-07
1.16909e-06
3.0116e-06
-1.11739e-06
5.4663e-06
-2.96012e-06
6.68753e-06
-4.07011e-06
6.49243e-06
-4.68976e-06
5.54799e-06
-5.15959e-06
4.48129e-06
-5.64196e-06
3.53929e-06
-6.12116e-06
2.70878e-06
-6.52689e-06
1.93121e-06