/*--------------------------------*- C++ -*----------------------------------*\
| =========                 |                                                 |
| \\      /  F ield         | OpenFOAM: The Open Source CFD Toolbox           |
|  \\    /   O peration     | Version:  2112                                  |
|   \\  /    A nd           | Website:  www.openfoam.com                      |
|    \\/     M anipulation  |                                                 |
\*---------------------------------------------------------------------------*/
FoamFile
{
    version     2.0;
    format      ascii;
    arch        "LSB;label=32;scalar=64";
    class       volScalarField;
    location    "0.19";
    object      s;
}
// * * * * * * * * * * * * * * * * * * * * * * * * * * * * * * * * * * * * * //

dimensions      [0 0 0 0 0 0 0];

internalField   nonuniform List<scalar> 
12225
(
1
1
1
1
1
1
1
1
1
1
1
1
1
1
1
1
1
1
1
1
1
1
1
1
1
1
1
1
1
1
1
1
1
1
1
1
1
1
1
1
1
1
1
1
1
1
1
1
1
1
1
1
1
1
1
1
1
1
1
1
1
1
1
1
1
1
1
1
1
1
1
1
1
1
1
1
1
1
1
1
1
1
1
1
1
1
1
1
1
1
1
1
1
1
1
1
1
1
1
1
1
1
1
1
1
1
1
1
1
1
1
1
1
1
1
1
1
1
1
1
1
1
1
1
1
1
1
1
1
1
1
1
1
1
1
1
1
1
1
1
1
1
1
1
1
1
1
1
1
1
1
1
1
1
1
1
1
1
1
1
1
1
1
1
1
1
1
1
1
1
1
1
1
1
1
1
1
1
1
1
1
1
1
1
1
1
1
1
1
1
1
1
1
1
1
1
1
1
1
1
1
1
1
1
1
1
1
1
1
1
1
1
1
1
1
1
1
1
1
1
1
1
1
1
1
1
1
1
1
1
1
1
1
1
1
1
1
1
1
1
1
1
1
1
1
1
1
1
1
1
1
1
1
1
1
1
1
1
1
1
1
1
1
1
1
1
1
1
1
1
1
1
1
1
1
1
1
1
1
1
1
1
1
1
1
1
1
1
1
1
1
1
1
1
1
1
1
1
1
1
1
1
1
1
1
1
1
1
1
1
1
1
1
1
1
1
1
1
1
1
1
1
1
1
1
1
1
1
1
1
1
1
1
1
1
1
1
1
1
1
1
1
1
1
1
1
1
1
1
1
1
1
1
1
1
1
1
1
1
1
1
1
1
1
1
1
1
1
1
1
1
1
1
1
1
1
1
1
1
1
1
1
1
1
1
1
1
1
1
1
1
1
1
1
1
1
1
1
1
1
1
1
1
1
1
1
1
1
1
1
1
1
1
1
1
1
1
1
1
1
1
1
1
1
1
1
1
1
1
1
1
1
1
1
1
1
1
1
1
1
1
1
1
1
1
1
1
1
1
1
1
1
1
1
1
1
1
1
1
1
1
1
1
1
1
1
1
1
1
1
1
1
1
1
1
1
1
1
1
1
1
1
1
1
1
1
1
1
1
1
1
1
1
1
1
1
1
1
1
1
1
1
1
1
1
1
1
1
1
1
1
1
1
1
1
1
1
1
1
1
1
1
1
1
1
1
1
1
1
1
1
1
1
1
1
1
1
1
1
1
0.988087
0.984829
0.983637
0.98299
0.982212
0.981757
0.98086
0.980224
0.98003
0.979832
0.979576
0.979608
0.979695
0.979784
0.979873
0.97992
0.979904
0.979793
0.979545
0.979194
0.978762
0.978245
0.97766
0.977129
0.976646
0.976223
0.975891
0.975589
0.975339
0.975169
0.975
0.97486
0.974779
0.974699
0.974648
0.974626
0.974576
0.974552
0.974574
0.97463
0.974793
0.975484
0.976486
0.977529
0.98066
0.984672
0.985258
0.984831
0.984253
0.984278
0.985163
0.986135
0.986747
0.987232
0.987973
0.988886
0.99016
0.990775
0.990844
0.990809
0.990689
0.990334
0.988846
0.986916
0.986586
0.987668
0.99388
0.997758
0.998164
0.998182
0.998185
0.998185
0.998183
0.998176
0.998163
0.998146
0.998129
0.998111
0.998091
0.998068
0.998043
0.998017
0.997991
0.997964
0.997935
0.997906
0.997876
0.997845
0.997815
0.997786
0.997758
0.997726
0.9977
0.997686
0.997683
0.997693
0.997714
0.997729
0.997757
0.997801
0.997842
0.997878
0.997921
0.997977
0.998032
0.99808
0.99814
0.998202
0.99825
0.998312
0.99836
0.998406
0.998451
0.998486
0.998512
0.998536
0.998555
0.998567
0.998576
0.998581
0.998584
0.998583
0.998578
0.998569
0.998561
0.998548
0.998536
0.998526
0.998513
0.998488
0.998433
0.998382
0.998327
0.998222
0.997966
0.997581
0.997337
0.997287
0.997262
0.997101
0.996312
0.993479
0.990503
0.989182
0.988412
0.986676
0.983832
0.98225
0.981881
0.981975
0.982455
0.98274
0.98274
0.982719
0.982917
0.983854
0.986366
0.989796
0.992586
0.993451
0.993201
0.992271
0.991916
0.991807
0.991788
0.991792
0.991812
0.991845
0.991879
0.991917
0.991985
0.992071
0.992159
0.992242
0.992357
0.992477
0.992875
0.993508
0.994439
0.99522
0.988588
0.985498
0.984061
0.983289
0.983044
0.98126
0.978451
0.976332
0.975038
0.973622
0.973052
0.972693
0.972395
0.972121
0.971789
0.971342
0.970786
0.970242
0.969837
0.969533
0.969409
0.969387
0.969585
0.969966
0.970437
0.97095
0.971473
0.971984
0.972462
0.972888
0.973248
0.973527
0.973733
0.973802
0.973768
0.973627
0.973283
0.972864
0.972462
0.97167
0.970399
0.969756
0.969741
0.970352
0.972617
0.97902
0.98312
0.984621
0.984699
0.983876
0.982649
0.981549
0.980655
0.980295
0.981152
0.983519
0.987501
0.990531
0.990925
0.990719
0.99043
0.989709
0.987806
0.986813
0.9879
0.994293
0.997411
0.997977
0.997985
0.997859
0.997704
0.997527
0.997334
0.99713
0.996913
0.996684
0.996443
0.996183
0.995899
0.995589
0.995255
0.994943
0.994646
0.994335
0.994065
0.993818
0.993585
0.993382
0.993198
0.993057
0.992961
0.992892
0.992858
0.992842
0.992839
0.992876
0.992935
0.992985
0.993056
0.993168
0.993292
0.99343
0.99358
0.993768
0.993978
0.994206
0.994463
0.994769
0.99509
0.995466
0.995865
0.996268
0.996675
0.99706
0.997393
0.997661
0.997902
0.99812
0.998309
0.998468
0.998602
0.998716
0.998814
0.998897
0.998967
0.999027
0.999078
0.999124
0.999163
0.999195
0.999224
0.999252
0.999279
0.999304
0.999322
0.99933
0.999334
0.999341
0.999353
0.999352
0.999287
0.998836
0.997263
0.995869
0.995126
0.994422
0.992877
0.990014
0.988149
0.98754
0.987543
0.987907
0.98807
0.987816
0.987216
0.987234
0.987454
0.988054
0.990603
0.992866
0.992847
0.991729
0.99099
0.990764
0.990738
0.9908
0.990998
0.991223
0.991514
0.991795
0.991972
0.992073
0.992122
0.992058
0.991802
0.991241
0.99056
0.990263
0.990277
0.99129
0.989582
0.988151
0.987262
0.987417
0.985026
0.980393
0.976047
0.973938
0.97225
0.971117
0.970446
0.969646
0.969338
0.969309
0.969391
0.969693
0.970231
0.970827
0.971548
0.972721
0.974153
0.975766
0.97745
0.97899
0.980389
0.981635
0.982729
0.983664
0.984429
0.985012
0.985418
0.985633
0.985713
0.985508
0.98501
0.984278
0.983233
0.98195
0.980649
0.979041
0.976483
0.97311
0.970114
0.968947
0.969073
0.970312
0.974905
0.981336
0.983913
0.984049
0.983498
0.981666
0.978914
0.977653
0.977905
0.979209
0.98217
0.988362
0.990227
0.98945
0.987539
0.986945
0.986734
0.987902
0.9944
0.997196
0.997613
0.997624
0.997108
0.996452
0.995618
0.994681
0.993836
0.993142
0.9925
0.991932
0.991506
0.99108
0.990804
0.990544
0.990422
0.990291
0.990223
0.99019
0.990179
0.990189
0.990231
0.990264
0.990351
0.99046
0.990555
0.990692
0.990808
0.990916
0.99098
0.991032
0.991067
0.99108
0.991082
0.991074
0.99106
0.991039
0.991015
0.99099
0.990969
0.990952
0.990941
0.990944
0.990962
0.991004
0.991072
0.991206
0.991424
0.991746
0.992197
0.992777
0.993443
0.994183
0.994932
0.995626
0.996214
0.996671
0.997063
0.997393
0.997668
0.997897
0.998095
0.998269
0.998424
0.998562
0.998689
0.998807
0.998917
0.999018
0.999116
0.999208
0.999288
0.999354
0.999411
0.999453
0.99947
0.999464
0.999397
0.999174
0.998955
0.998749
0.998488
0.998027
0.996836
0.994967
0.993919
0.993697
0.993625
0.993397
0.992738
0.991625
0.990983
0.990883
0.99167
0.992787
0.99207
0.990564
0.990384
0.990616
0.990925
0.991694
0.992352
0.992737
0.992912
0.992945
0.992894
0.993003
0.993232
0.993555
0.993894
0.99416
0.993736
0.992111
0.990313
0.989719
0.989729
0.989382
0.988609
0.985141
0.979581
0.974363
0.971695
0.971068
0.971159
0.971232
0.971032
0.97097
0.971468
0.972522
0.973842
0.975677
0.978039
0.980482
0.982946
0.985207
0.987146
0.988808
0.990159
0.99133
0.992257
0.992979
0.993525
0.993903
0.99411
0.994199
0.994208
0.994033
0.993705
0.993247
0.992696
0.991763
0.99058
0.98912
0.987309
0.98514
0.982401
0.978771
0.974294
0.970319
0.968526
0.968471
0.969279
0.972363
0.979398
0.982734
0.983343
0.983016
0.981386
0.978945
0.978364
0.978804
0.980804
0.985036
0.989564
0.989535
0.987391
0.986661
0.987447
0.993373
0.996745
0.997227
0.997081
0.99594
0.994086
0.992472
0.991235
0.990488
0.9899
0.989461
0.989227
0.989083
0.989023
0.989011
0.989104
0.989216
0.989393
0.989571
0.98982
0.990061
0.990309
0.990589
0.990954
0.991407
0.991942
0.992523
0.993114
0.993621
0.994025
0.994338
0.994548
0.994655
0.994696
0.994686
0.9946
0.994445
0.994264
0.994024
0.993759
0.993452
0.993114
0.992744
0.992345
0.991937
0.991545
0.991214
0.99092
0.990653
0.990418
0.990235
0.990116
0.990063
0.990075
0.99015
0.990369
0.990799
0.991468
0.992354
0.993317
0.99422
0.994962
0.99552
0.995977
0.996365
0.996702
0.996998
0.997264
0.997511
0.997749
0.997979
0.998208
0.99844
0.998668
0.998885
0.999096
0.99929
0.99943
0.9995
0.999519
0.999512
0.999458
0.999395
0.999344
0.999246
0.99898
0.998008
0.996922
0.996578
0.9965
0.996349
0.995977
0.994552
0.992356
0.99192
0.992379
0.992474
0.990908
0.990127
0.990395
0.990986
0.991833
0.992189
0.992273
0.992121
0.991257
0.990453
0.990099
0.990028
0.990516
0.99137
0.992619
0.994143
0.995138
0.995425
0.994475
0.991513
0.988558
0.988481
0.986466
0.982757
0.975819
0.973902
0.973969
0.973509
0.973348
0.97349
0.974281
0.975885
0.978406
0.981198
0.984038
0.98695
0.989119
0.991269
0.992959
0.994345
0.995551
0.996407
0.997118
0.997559
0.997909
0.998141
0.998297
0.998381
0.998413
0.9984
0.998323
0.998157
0.997925
0.997551
0.996999
0.996346
0.995464
0.99436
0.992899
0.990902
0.988061
0.984095
0.979245
0.973875
0.969575
0.967654
0.967517
0.968084
0.970184
0.97634
0.980967
0.982435
0.982454
0.982124
0.9817
0.981767
0.982201
0.983611
0.988353
0.989553
0.98803
0.987238
0.991186
0.996034
0.996789
0.996606
0.994648
0.991838
0.990327
0.989326
0.988752
0.988469
0.988344
0.988309
0.988417
0.98856
0.988746
0.988953
0.989206
0.989538
0.989993
0.990544
0.99129
0.992231
0.993459
0.994834
0.995893
0.996929
0.99771
0.998205
0.998576
0.998769
0.998929
0.999021
0.999088
0.999124
0.999145
0.999155
0.999144
0.999115
0.999067
0.998999
0.998907
0.998784
0.998626
0.998418
0.998144
0.997777
0.997278
0.9966
0.995804
0.994927
0.993961
0.992973
0.992005
0.99118
0.990563
0.990082
0.989727
0.989503
0.989415
0.989436
0.989602
0.990063
0.99082
0.991803
0.99281
0.993704
0.994435
0.995033
0.995543
0.995976
0.996351
0.996688
0.997005
0.997309
0.997604
0.997898
0.998224
0.998619
0.999017
0.999306
0.999475
0.99955
0.99957
0.999569
0.999554
0.999512
0.999386
0.998874
0.998197
0.997953
0.997834
0.997589
0.996816
0.994017
0.992018
0.991913
0.992399
0.991845
0.990138
0.990086
0.990676
0.991612
0.991856
0.991825
0.990772
0.988209
0.986355
0.985527
0.98528
0.985658
0.986499
0.987584
0.988656
0.990338
0.993541
0.99558
0.996175
0.995419
0.984074
0.9859
0.982408
0.976393
0.975264
0.974844
0.975664
0.975977
0.977314
0.980166
0.984087
0.987364
0.99
0.992783
0.994558
0.995883
0.997383
0.998083
0.998655
0.999124
0.999351
0.999533
0.999613
0.999668
0.999715
0.999739
0.999756
0.999763
0.999759
0.999742
0.999709
0.999654
0.99957
0.999444
0.999253
0.998962
0.998525
0.997918
0.997187
0.996276
0.995023
0.993029
0.989187
0.982914
0.975538
0.969879
0.966995
0.966449
0.966748
0.968105
0.972352
0.978117
0.980913
0.981665
0.981979
0.982277
0.982565
0.983332
0.987646
0.989549
0.988527
0.98937
0.99476
0.996274
0.996319
0.994091
0.990767
0.989167
0.988386
0.988027
0.987906
0.987927
0.98805
0.988225
0.988456
0.988755
0.989168
0.989722
0.990543
0.991675
0.99329
0.994654
0.996197
0.997368
0.998231
0.998715
0.999199
0.999421
0.999545
0.999602
0.999626
0.999634
0.999635
0.999637
0.999647
0.999655
0.999675
0.999699
0.999721
0.999742
0.999759
0.999776
0.999788
0.999794
0.999799
0.999794
0.999779
0.99975
0.999701
0.99962
0.99949
0.999296
0.999002
0.998586
0.997969
0.997063
0.995862
0.994509
0.993068
0.991682
0.990587
0.989801
0.989321
0.989106
0.989079
0.98919
0.989565
0.990205
0.991087
0.992122
0.993163
0.994106
0.994889
0.995529
0.996072
0.996557
0.99699
0.997349
0.997635
0.997914
0.99828
0.99874
0.999146
0.999421
0.999563
0.999619
0.999631
0.999621
0.999536
0.999181
0.998878
0.998741
0.998528
0.997954
0.995701
0.99216
0.99119
0.991635
0.992196
0.991049
0.989841
0.990156
0.991178
0.991593
0.991506
0.990121
0.986324
0.984342
0.983465
0.983163
0.983225
0.98389
0.984965
0.98634
0.987534
0.988306
0.989587
0.993305
0.996064
0.996562
0.982007
0.982301
0.977344
0.976267
0.976
0.976741
0.978905
0.981818
0.986645
0.990416
0.993071
0.995286
0.996756
0.997965
0.998704
0.999121
0.999503
0.999659
0.999756
0.999813
0.999839
0.999858
0.999866
0.999875
0.999886
0.999902
0.999913
0.999926
0.999936
0.999942
0.999944
0.999938
0.999922
0.999891
0.999837
0.999741
0.99957
0.999272
0.998778
0.998155
0.997465
0.996576
0.995349
0.993217
0.98811
0.979328
0.971617
0.967082
0.965596
0.965613
0.966363
0.968577
0.974472
0.978616
0.980638
0.981658
0.982092
0.983051
0.987886
0.9906
0.990338
0.992994
0.995668
0.996059
0.994453
0.990527
0.988738
0.988015
0.98778
0.987761
0.987849
0.988003
0.988268
0.988648
0.989212
0.990023
0.99127
0.992775
0.994462
0.995982
0.997056
0.998159
0.998833
0.999279
0.999489
0.999586
0.999624
0.999627
0.999584
0.999521
0.999449
0.99934
0.999281
0.999251
0.999242
0.999269
0.999324
0.999401
0.999478
0.999562
0.99963
0.999694
0.999754
0.99979
0.999827
0.999854
0.999878
0.999897
0.999913
0.999924
0.99993
0.999926
0.999904
0.999862
0.999788
0.999661
0.999455
0.999128
0.998596
0.997693
0.996233
0.994387
0.992501
0.990969
0.989917
0.989341
0.989155
0.98917
0.989406
0.989953
0.990595
0.991417
0.992425
0.993483
0.994453
0.995296
0.996057
0.99674
0.997284
0.997653
0.997909
0.998191
0.998608
0.999062
0.999397
0.999581
0.999653
0.999662
0.999627
0.999469
0.999334
0.999184
0.99885
0.997784
0.994155
0.991228
0.990756
0.991507
0.991784
0.990387
0.989757
0.990478
0.991203
0.991365
0.990223
0.986527
0.983913
0.982414
0.981654
0.981381
0.981505
0.982112
0.983329
0.985384
0.98713
0.988132
0.988677
0.989945
0.994119
0.996489
0.980413
0.97875
0.97704
0.97684
0.978148
0.981278
0.985802
0.990778
0.993555
0.996245
0.997508
0.99862
0.999131
0.999492
0.999653
0.999732
0.999772
0.999785
0.999788
0.999784
0.999768
0.999753
0.999746
0.99975
0.999771
0.999808
0.999846
0.999887
0.999928
0.999948
0.999966
0.999975
0.999979
0.999981
0.999975
0.999959
0.999924
0.999849
0.999693
0.999365
0.998772
0.998067
0.997366
0.996434
0.994939
0.991601
0.983164
0.973703
0.967555
0.965027
0.964705
0.965052
0.966532
0.971
0.976637
0.979868
0.980998
0.982954
0.989326
0.992045
0.992718
0.994777
0.995671
0.995203
0.991048
0.988723
0.987907
0.9877
0.987743
0.987921
0.988322
0.988902
0.989673
0.990762
0.992066
0.993475
0.994886
0.99614
0.99732
0.998259
0.99892
0.999337
0.999511
0.99957
0.999574
0.999522
0.999411
0.999162
0.998822
0.998408
0.998
0.997694
0.997552
0.99751
0.997612
0.997722
0.997928
0.998152
0.998363
0.998596
0.998812
0.999007
0.999201
0.999339
0.999472
0.999579
0.999673
0.999758
0.999832
0.999892
0.999932
0.999956
0.999969
0.999975
0.999977
0.999973
0.999958
0.999927
0.999868
0.999754
0.99952
0.999033
0.998058
0.996422
0.994411
0.992508
0.991012
0.990045
0.989649
0.989592
0.989691
0.990187
0.990895
0.991582
0.992327
0.993166
0.994135
0.995219
0.996269
0.997134
0.997687
0.997982
0.998243
0.998641
0.999083
0.999415
0.999603
0.999672
0.999677
0.999659
0.999592
0.999431
0.999009
0.99753
0.993466
0.990961
0.990666
0.9914
0.99138
0.989926
0.98976
0.990666
0.991126
0.99073
0.987672
0.983923
0.981737
0.980728
0.980385
0.980356
0.980754
0.981259
0.982187
0.984051
0.98661
0.988209
0.988684
0.989305
0.991066
0.995219
0.979238
0.977909
0.9774
0.978691
0.983173
0.987574
0.992587
0.995724
0.997345
0.998637
0.999178
0.999479
0.999598
0.999649
0.999664
0.999666
0.9996
0.999514
0.999396
0.999278
0.999167
0.999113
0.999094
0.99912
0.999188
0.999295
0.999423
0.999575
0.999724
0.99983
0.999911
0.999956
0.999978
0.999988
0.999992
0.999993
0.999991
0.999982
0.999959
0.999898
0.999741
0.999329
0.99856
0.997807
0.997046
0.995831
0.993219
0.98543
0.9745
0.967471
0.964542
0.96403
0.964299
0.965744
0.970836
0.976744
0.979048
0.983258
0.990675
0.993223
0.994146
0.995217
0.995429
0.992601
0.989121
0.98793
0.987635
0.987717
0.988065
0.989027
0.990772
0.992295
0.993503
0.994469
0.995357
0.996257
0.997177
0.998015
0.998778
0.999269
0.999501
0.999583
0.999586
0.999514
0.999358
0.998972
0.998283
0.997151
0.996154
0.995567
0.995036
0.994776
0.994597
0.994522
0.994519
0.994787
0.995299
0.995932
0.996311
0.996746
0.997171
0.997582
0.997969
0.9983
0.99859
0.99884
0.999062
0.999268
0.999463
0.999636
0.999775
0.999872
0.999931
0.999964
0.99998
0.999987
0.999991
0.999992
0.999992
0.999988
0.999973
0.999932
0.999822
0.999535
0.998811
0.997393
0.995576
0.993825
0.992318
0.991222
0.99069
0.990601
0.990637
0.990876
0.991447
0.991887
0.99233
0.993054
0.994272
0.995765
0.996995
0.99774
0.998101
0.998382
0.998762
0.999162
0.999468
0.99964
0.9997
0.999708
0.99969
0.999582
0.999145
0.997444
0.993308
0.990943
0.990685
0.991269
0.991007
0.989657
0.989847
0.990678
0.990896
0.989239
0.985474
0.982005
0.980473
0.979903
0.979776
0.980069
0.98046
0.980962
0.981801
0.983589
0.9862
0.988542
0.989213
0.989413
0.990147
0.992984
0.978739
0.978038
0.978524
0.982885
0.988748
0.992451
0.996449
0.998097
0.998928
0.999339
0.999487
0.99954
0.999553
0.999487
0.999324
0.99904
0.998674
0.998414
0.998155
0.998015
0.997912
0.997869
0.997857
0.997906
0.997988
0.998138
0.998358
0.998663
0.999047
0.999387
0.999659
0.999834
0.999925
0.999969
0.999988
0.999995
0.999997
0.999998
0.999996
0.99999
0.999969
0.9999
0.999682
0.999028
0.998139
0.997447
0.996347
0.993746
0.984842
0.973239
0.966537
0.96405
0.963738
0.964219
0.967485
0.974384
0.97767
0.984596
0.991814
0.994069
0.994807
0.995258
0.994519
0.990278
0.98819
0.987554
0.987621
0.988063
0.989569
0.992558
0.994743
0.995883
0.996547
0.997006
0.997439
0.997932
0.998484
0.999016
0.999412
0.999581
0.999628
0.999581
0.999484
0.999151
0.998419
0.99691
0.995515
0.994825
0.994441
0.994248
0.994086
0.994005
0.993799
0.993531
0.993193
0.992813
0.992604
0.99274
0.993528
0.994245
0.99476
0.995464
0.996063
0.996656
0.99717
0.997624
0.998023
0.998396
0.998758
0.999102
0.999401
0.99963
0.999784
0.999879
0.999934
0.999964
0.999981
0.99999
0.999994
0.999996
0.999997
0.999997
0.999994
0.999984
0.999947
0.999824
0.999398
0.997929
0.995744
0.993953
0.992689
0.991918
0.991626
0.991605
0.991656
0.991844
0.992048
0.992267
0.992687
0.993744
0.995567
0.997053
0.997899
0.998285
0.998561
0.998914
0.999281
0.999551
0.999688
0.999728
0.999723
0.999642
0.999232
0.99754
0.993441
0.991046
0.990754
0.99112
0.990669
0.98954
0.989911
0.990641
0.990365
0.98762
0.983455
0.980746
0.979743
0.979473
0.979472
0.979733
0.980262
0.9808
0.981608
0.983389
0.986115
0.988868
0.99018
0.990146
0.990213
0.991388
0.978746
0.978664
0.981114
0.987607
0.992486
0.99609
0.998211
0.999007
0.999323
0.999428
0.999454
0.999396
0.999162
0.998658
0.998263
0.997894
0.997719
0.997544
0.997459
0.997396
0.997367
0.997357
0.997357
0.997387
0.997428
0.99748
0.997557
0.997663
0.997867
0.998302
0.998924
0.999449
0.99975
0.999894
0.999959
0.999986
0.999996
0.999998
0.999999
0.999999
0.999998
0.999991
0.999962
0.999845
0.999395
0.998449
0.997699
0.996503
0.993215
0.982194
0.970892
0.965311
0.963854
0.963963
0.966257
0.972786
0.977029
0.985751
0.992581
0.994594
0.995092
0.995209
0.992921
0.989045
0.987665
0.987467
0.987855
0.989766
0.992988
0.995766
0.997282
0.997986
0.998314
0.998491
0.998652
0.998885
0.999198
0.999491
0.999635
0.999676
0.999619
0.999482
0.99909
0.998042
0.996019
0.995088
0.994709
0.994599
0.99458
0.994751
0.995048
0.99516
0.995041
0.994468
0.993694
0.992817
0.991979
0.991338
0.990998
0.991502
0.992059
0.99286
0.993677
0.994525
0.995308
0.995995
0.996595
0.997152
0.9977
0.998247
0.998762
0.999189
0.999497
0.999699
0.999823
0.999897
0.99994
0.999967
0.999983
0.999992
0.999996
0.999998
0.999999
0.999999
0.999998
0.999995
0.999982
0.999929
0.999695
0.998836
0.996389
0.994218
0.992932
0.992285
0.992058
0.992044
0.99208
0.992186
0.992413
0.99288
0.994054
0.995901
0.997409
0.998184
0.998501
0.998754
0.999094
0.999427
0.999642
0.999727
0.999733
0.999672
0.999297
0.997695
0.993737
0.991301
0.990887
0.990991
0.990396
0.989502
0.989912
0.990527
0.989536
0.986301
0.982031
0.979997
0.97931
0.9791
0.979027
0.979241
0.979962
0.980693
0.98152
0.983308
0.986285
0.989129
0.990968
0.991102
0.990856
0.99115
0.978824
0.979447
0.984126
0.991227
0.995091
0.99782
0.998903
0.99925
0.999349
0.999374
0.999237
0.998802
0.998216
0.997858
0.997621
0.997461
0.997384
0.997314
0.997283
0.997249
0.997232
0.997218
0.997214
0.997238
0.997278
0.997327
0.997399
0.99745
0.997494
0.997567
0.997777
0.998441
0.999274
0.999692
0.999881
0.999959
0.999987
0.999996
0.999999
1
1
0.999999
0.999997
0.999983
0.999915
0.999594
0.998659
0.997798
0.996352
0.991908
0.978684
0.968379
0.964604
0.96423
0.96589
0.971608
0.976803
0.985933
0.992806
0.994903
0.995199
0.994873
0.991446
0.988386
0.987404
0.987449
0.988564
0.991307
0.994946
0.997568
0.998662
0.999072
0.999222
0.999274
0.999311
0.999404
0.999566
0.999685
0.999724
0.999676
0.99955
0.999167
0.998054
0.995959
0.995109
0.994884
0.994855
0.995265
0.996307
0.996874
0.99711
0.997157
0.997111
0.996848
0.996289
0.995041
0.993197
0.991268
0.990176
0.989614
0.989805
0.990275
0.99116
0.992229
0.993356
0.994293
0.99506
0.995739
0.996409
0.99711
0.997831
0.998491
0.999012
0.999377
0.999615
0.999765
0.999858
0.999916
0.999953
0.999975
0.999988
0.999995
0.999998
0.999999
1
1
0.999999
0.999998
0.999987
0.999923
0.999674
0.998905
0.996521
0.994291
0.993116
0.992587
0.99245
0.992459
0.992533
0.992776
0.993546
0.995149
0.996738
0.997931
0.998519
0.998731
0.998963
0.999289
0.999566
0.999706
0.999731
0.999685
0.999354
0.997892
0.99409
0.991598
0.991014
0.990934
0.990188
0.989482
0.9899
0.990312
0.988772
0.985004
0.981086
0.979514
0.97896
0.978689
0.978539
0.978709
0.979541
0.980626
0.981498
0.983286
0.986909
0.989804
0.991531
0.991847
0.991614
0.991474
0.979015
0.981194
0.987424
0.993641
0.996735
0.998554
0.99913
0.99928
0.999313
0.999194
0.998655
0.998042
0.997732
0.99754
0.997431
0.997368
0.997324
0.997283
0.997256
0.997224
0.997195
0.997159
0.997126
0.997099
0.997121
0.997221
0.997334
0.997433
0.997477
0.997468
0.99747
0.997592
0.998165
0.999191
0.999683
0.99989
0.999965
0.99999
0.999997
0.999999
1
1
1
0.999999
0.999991
0.999943
0.999679
0.998763
0.997834
0.996069
0.989614
0.974763
0.966782
0.964922
0.965738
0.97029
0.976276
0.985646
0.992666
0.995018
0.995275
0.994565
0.990891
0.988027
0.987215
0.987391
0.988602
0.991396
0.995197
0.998048
0.999217
0.999559
0.999643
0.999653
0.999649
0.999675
0.999739
0.999772
0.999743
0.99965
0.999373
0.998501
0.996361
0.995309
0.99505
0.995042
0.995704
0.996887
0.997307
0.997421
0.997444
0.997424
0.997412
0.997335
0.997152
0.996672
0.995517
0.993064
0.990207
0.988871
0.988253
0.988188
0.988596
0.989684
0.991381
0.992818
0.993833
0.99458
0.995243
0.995947
0.996746
0.997573
0.998306
0.99887
0.999268
0.999536
0.999712
0.999827
0.9999
0.999945
0.999972
0.999986
0.999994
0.999997
0.999999
1
1
1
1
0.999996
0.999975
0.999878
0.999541
0.998587
0.996097
0.994251
0.993456
0.993285
0.993323
0.99352
0.993996
0.995074
0.996493
0.997713
0.998469
0.998778
0.998936
0.999197
0.999491
0.999678
0.999727
0.999696
0.999428
0.998194
0.99462
0.991961
0.991169
0.99095
0.990062
0.98947
0.989873
0.989986
0.988123
0.983982
0.980497
0.979187
0.978691
0.978413
0.978346
0.978495
0.979218
0.980597
0.981614
0.983374
0.987199
0.99066
0.992267
0.992493
0.992296
0.991942
0.979224
0.982187
0.989493
0.994957
0.997558
0.998851
0.9992
0.999267
0.999228
0.998809
0.998109
0.997755
0.997557
0.997459
0.997414
0.997372
0.997342
0.997328
0.997333
0.997364
0.99738
0.997327
0.997185
0.997004
0.996915
0.996883
0.997058
0.997391
0.997553
0.997557
0.997462
0.997442
0.997563
0.998235
0.999255
0.99973
0.999914
0.999975
0.999993
0.999998
1
1
1
1
0.999999
0.999994
0.999952
0.999698
0.998809
0.997856
0.995636
0.986107
0.972043
0.96654
0.966232
0.968304
0.974733
0.984555
0.992107
0.994933
0.995304
0.994606
0.991039
0.988069
0.987172
0.987297
0.988434
0.991144
0.994988
0.997986
0.99928
0.999714
0.999815
0.999821
0.999811
0.99981
0.999822
0.999808
0.999742
0.999582
0.99897
0.997316
0.995682
0.995186
0.995129
0.995606
0.996824
0.997222
0.99729
0.997264
0.997193
0.997222
0.997312
0.997335
0.997232
0.996932
0.996113
0.994171
0.990972
0.988669
0.987476
0.98703
0.986987
0.987314
0.988693
0.991034
0.992748
0.993805
0.994485
0.995082
0.99578
0.996611
0.99746
0.998201
0.998777
0.999199
0.999494
0.999694
0.999823
0.999902
0.999948
0.999974
0.999988
0.999994
0.999998
0.999999
1
1
1
1
0.999998
0.999989
0.999945
0.99978
0.999296
0.997835
0.996075
0.995312
0.995225
0.995357
0.995861
0.996241
0.996877
0.997742
0.998465
0.998853
0.998996
0.999155
0.999423
0.999642
0.999722
0.999709
0.999516
0.998565
0.995341
0.992427
0.991376
0.991003
0.989984
0.989446
0.989796
0.98969
0.987749
0.983298
0.980133
0.978975
0.9785
0.978295
0.97828
0.978409
0.979069
0.980688
0.981806
0.983669
0.987551
0.991208
0.992971
0.993161
0.992956
0.992412
0.979482
0.983324
0.991162
0.99572
0.99796
0.998952
0.9992
0.999241
0.999015
0.998411
0.997901
0.997612
0.997501
0.997457
0.997442
0.997429
0.997456
0.997528
0.997647
0.997809
0.997898
0.997854
0.997694
0.997292
0.996905
0.996723
0.996739
0.997007
0.997526
0.997666
0.997606
0.997449
0.997471
0.997749
0.998699
0.999463
0.999814
0.999944
0.999985
0.999996
0.999999
1
1
1
1
0.999999
0.999994
0.999951
0.999667
0.998843
0.997809
0.994922
0.983075
0.970889
0.967445
0.967867
0.971361
0.981694
0.990703
0.994581
0.995299
0.994791
0.991592
0.988313
0.987158
0.987124
0.987932
0.990356
0.994257
0.997606
0.999185
0.999711
0.999863
0.999889
0.999885
0.999875
0.999861
0.999821
0.999724
0.999409
0.998491
0.996482
0.995415
0.995197
0.995315
0.996475
0.997088
0.997189
0.997047
0.996836
0.996789
0.996838
0.996972
0.997126
0.997139
0.996959
0.996205
0.99433
0.991108
0.98855
0.987084
0.986526
0.98646
0.986596
0.987074
0.988413
0.990873
0.992798
0.993897
0.994561
0.995129
0.995818
0.996635
0.997461
0.998193
0.998783
0.999224
0.999531
0.99973
0.999852
0.999922
0.99996
0.99998
0.999991
0.999996
0.999998
0.999999
1
1
1
1
0.999999
0.999994
0.99997
0.999878
0.999559
0.998599
0.99793
0.997805
0.997847
0.998059
0.998313
0.998434
0.998499
0.998662
0.998952
0.999093
0.999182
0.999373
0.999606
0.999718
0.99972
0.999597
0.998909
0.996182
0.992981
0.99165
0.991116
0.989941
0.989433
0.989677
0.989465
0.987455
0.982852
0.979972
0.97884
0.978395
0.978257
0.978259
0.978386
0.979028
0.980867
0.982146
0.98423
0.988416
0.991854
0.993459
0.993699
0.993522
0.992875
0.979812
0.983471
0.991566
0.995824
0.997919
0.99891
0.999182
0.9992
0.999007
0.99837
0.997801
0.997564
0.997482
0.997452
0.997453
0.997491
0.997559
0.997616
0.997724
0.997897
0.99796
0.997939
0.99783
0.997469
0.996955
0.996683
0.996653
0.996844
0.997421
0.997672
0.997662
0.9975
0.997471
0.997647
0.99847
0.999335
0.999756
0.999922
0.999978
0.999995
0.999999
1
1
1
1
1
1
0.999994
0.999945
0.999609
0.998885
0.997741
0.994289
0.98159
0.971085
0.968851
0.96975
0.975167
0.987348
0.993494
0.995154
0.995068
0.992956
0.988976
0.987307
0.986955
0.987275
0.988694
0.992006
0.996383
0.998732
0.99961
0.999852
0.999906
0.999912
0.999905
0.999882
0.999831
0.99971
0.99932
0.998036
0.99603
0.995329
0.99524
0.995709
0.996787
0.997085
0.997072
0.996797
0.996711
0.996721
0.996745
0.996811
0.996998
0.997025
0.996799
0.995939
0.993609
0.990175
0.987561
0.98648
0.986246
0.986246
0.986392
0.986765
0.987506
0.988924
0.990867
0.992752
0.993943
0.994633
0.995224
0.995936
0.996757
0.997585
0.998331
0.998928
0.999356
0.999634
0.999801
0.999896
0.999947
0.999974
0.999987
0.999994
0.999997
0.999999
0.999999
1
1
1
1
0.999999
0.999996
0.999979
0.999908
0.999596
0.999292
0.99924
0.999271
0.999348
0.999355
0.999296
0.999229
0.99921
0.999224
0.999269
0.999297
0.999366
0.999558
0.999709
0.999731
0.999661
0.999193
0.99707
0.993629
0.991996
0.991319
0.989952
0.989421
0.989544
0.989307
0.987469
0.982892
0.980018
0.978855
0.978397
0.978266
0.978279
0.978432
0.979179
0.981217
0.982584
0.984567
0.988978
0.992602
0.993998
0.994114
0.993912
0.993245
0.980371
0.983228
0.991062
0.995551
0.997715
0.998771
0.99913
0.999166
0.99904
0.998488
0.997862
0.997574
0.997422
0.997417
0.997426
0.997467
0.997544
0.997587
0.997665
0.997766
0.997762
0.997706
0.997524
0.997036
0.996648
0.996562
0.996598
0.996825
0.997432
0.997695
0.997673
0.997509
0.997484
0.997648
0.998432
0.99931
0.999744
0.999918
0.999977
0.999994
0.999999
1
1
1
1
1
1
1
0.999994
0.999935
0.999551
0.998876
0.997619
0.993697
0.980546
0.971658
0.97044
0.971842
0.979665
0.990584
0.994493
0.995002
0.994245
0.990554
0.987821
0.987
0.987
0.987525
0.989196
0.993067
0.997332
0.999183
0.999766
0.999896
0.999916
0.999914
0.999895
0.999842
0.999702
0.99914
0.997605
0.995922
0.995333
0.995257
0.995822
0.996783
0.997069
0.997006
0.996753
0.996686
0.996718
0.996733
0.996756
0.996915
0.996966
0.996726
0.995496
0.991915
0.988283
0.986774
0.986267
0.986157
0.986174
0.986335
0.98674
0.987419
0.988529
0.989893
0.991434
0.99293
0.993992
0.99467
0.995321
0.99614
0.997027
0.997896
0.998636
0.999182
0.999539
0.999751
0.99987
0.999933
0.999966
0.999983
0.999991
0.999996
0.999998
0.999999
1
1
1
1
1
0.999999
0.999996
0.999979
0.999886
0.999784
0.99977
0.999786
0.999804
0.999791
0.999689
0.999565
0.999504
0.999464
0.999441
0.999435
0.999441
0.999515
0.99969
0.99974
0.999705
0.999402
0.997887
0.994346
0.992451
0.991537
0.99
0.989416
0.989428
0.989222
0.987579
0.983101
0.980177
0.978934
0.978433
0.978307
0.978337
0.978538
0.979434
0.981749
0.983196
0.985253
0.989592
0.993183
0.99449
0.994529
0.994143
0.993403
0.980956
0.982641
0.989591
0.994779
0.997268
0.998501
0.999016
0.999125
0.999085
0.998802
0.998083
0.997649
0.997457
0.997327
0.997306
0.997327
0.997396
0.997459
0.997486
0.997473
0.997406
0.997223
0.996844
0.996603
0.996528
0.996535
0.996659
0.997196
0.9977
0.997743
0.997635
0.997455
0.997495
0.997846
0.998851
0.999548
0.999849
0.999955
0.999988
0.999997
0.999999
1
1
1
1
1
1
1
0.999999
0.99999
0.999904
0.999449
0.998744
0.997272
0.992252
0.978662
0.972223
0.971956
0.974077
0.984056
0.992494
0.994667
0.994623
0.993248
0.989164
0.987314
0.986864
0.986974
0.98766
0.989552
0.993953
0.997935
0.999438
0.999836
0.99991
0.999914
0.9999
0.999849
0.999674
0.999105
0.997603
0.995966
0.995359
0.995296
0.995762
0.99671
0.997024
0.996998
0.996812
0.996778
0.996801
0.996751
0.996743
0.996868
0.996873
0.996522
0.994803
0.990512
0.987637
0.986575
0.986232
0.986148
0.986165
0.986329
0.98694
0.98772
0.988622
0.989796
0.991132
0.992467
0.993624
0.99443
0.994987
0.995632
0.996549
0.997508
0.998363
0.99901
0.999438
0.999693
0.999837
0.999914
0.999955
0.999977
0.999988
0.999994
0.999997
0.999998
0.999999
1
1
1
1
1
0.999999
0.999995
0.999967
0.999936
0.999933
0.99994
0.999943