/*--------------------------------*- C++ -*----------------------------------*\
| =========                 |                                                 |
| \\      /  F ield         | OpenFOAM: The Open Source CFD Toolbox           |
|  \\    /   O peration     | Version:  2112                                  |
|   \\  /    A nd           | Website:  www.openfoam.com                      |
|    \\/     M anipulation  |                                                 |
\*---------------------------------------------------------------------------*/
FoamFile
{
    version     2.0;
    format      ascii;
    arch        "LSB;label=32;scalar=64";
    class       surfaceScalarField;
    location    "0.1";
    object      phi;
}
// * * * * * * * * * * * * * * * * * * * * * * * * * * * * * * * * * * * * * //

dimensions      [0 3 -1 0 0 0 0];

oriented        oriented;

internalField   nonuniform List<scalar> 
24170
(
3.10847e-06
1.52443e-07
3.0061e-06
1.0237e-07
2.89999e-06
1.06112e-07
2.80781e-06
9.21742e-08
2.7302e-06
7.76151e-08
2.6534e-06
7.68016e-08
2.57055e-06
8.28506e-08
2.48678e-06
8.37623e-08
2.41054e-06
7.62387e-08
2.34683e-06
6.37175e-08
2.29424e-06
5.25902e-08
2.24834e-06
4.5896e-08
2.20241e-06
4.59353e-08
2.15283e-06
4.95799e-08
2.10203e-06
5.07919e-08
2.04345e-06
5.85833e-08
1.98737e-06
5.6082e-08
7.04137e-08
1.91696e-06
3.53555e-06
8.64154e-08
3.4748e-06
1.6312e-07
3.43529e-06
1.45626e-07
3.41714e-06
1.10319e-07
3.41279e-06
8.19637e-08
3.42091e-06
6.8685e-08
3.43953e-06
6.42321e-08
3.46202e-06
6.12712e-08
3.47837e-06
5.98854e-08
3.48075e-06
6.13388e-08
3.46762e-06
6.57218e-08
3.44472e-06
6.87959e-08
3.41971e-06
7.09496e-08
3.39912e-06
7.01648e-08
3.38527e-06
6.46436e-08
3.37918e-06
6.46728e-08
3.37547e-06
5.97916e-08
5.66624e-08
3.38922e-06
3.64461e-06
-1.67822e-09
3.67192e-06
1.35805e-07
3.65545e-06
1.62098e-07
3.65649e-06
1.09284e-07
3.68679e-06
5.16557e-08
3.72302e-06
3.24546e-08
3.74338e-06
4.38803e-08
3.74458e-06
6.00698e-08
3.73608e-06
6.83776e-08
3.72765e-06
6.97719e-08
3.72499e-06
6.83847e-08
3.72876e-06
6.5021e-08
3.73901e-06
6.07056e-08
3.75325e-06
5.59271e-08
3.76981e-06
4.80753e-08
3.7898e-06
4.46871e-08
3.81141e-06
3.81776e-08
3.43678e-08
3.83371e-06
3.91382e-06
-6.88646e-09
3.94535e-06
1.04277e-07
3.92654e-06
1.80904e-07
3.91153e-06
1.24299e-07
3.92439e-06
3.87906e-08
3.95296e-06
3.88475e-09
3.97778e-06
1.90586e-08
3.99018e-06
4.76701e-08
3.99508e-06
6.34762e-08
4.00161e-06
6.32409e-08
4.01439e-06
5.56044e-08
4.0312e-06
4.82207e-08
4.04699e-06
4.49146e-08
4.0578e-06
4.51107e-08
4.0626e-06
4.3275e-08
4.06632e-06
4.09673e-08
4.07158e-06
3.29191e-08
2.29142e-08
4.08303e-06
4.23219e-06
-2.1238e-08
4.24316e-06
9.33066e-08
4.25757e-06
1.66493e-07
4.27028e-06
1.11599e-07
4.27004e-06
3.903e-08
4.26071e-06
1.321e-08
4.25674e-06
2.30335e-08
4.26586e-06
3.85464e-08
4.28576e-06
4.35721e-08
4.30847e-06
4.05375e-08
4.32632e-06
3.77561e-08
4.33558e-06
3.89544e-08
4.33783e-06
4.26662e-08
4.33799e-06
4.49544e-08
4.34101e-06
4.02538e-08
4.35183e-06
3.01415e-08
4.37178e-06
1.29708e-08
-5.98767e-09
4.40068e-06
4.51272e-06
-1.36213e-07
4.59346e-06
1.25701e-08
4.64209e-06
1.17863e-07
4.64369e-06
1.10004e-07
4.60257e-06
8.01471e-08
4.55511e-06
6.06728e-08
4.53223e-06
4.59054e-08
4.54097e-06
2.98146e-08
4.56963e-06
1.49068e-08
4.6028e-06
7.37431e-09
4.62992e-06
1.0628e-08
4.64654e-06
2.23359e-08
4.65324e-06
3.59721e-08
4.6537e-06
4.44856e-08
4.65261e-06
4.13525e-08
4.655e-06
2.77434e-08
4.66408e-06
3.88996e-09
-2.44408e-08
4.68254e-06
4.87338e-06
-9.07833e-08
4.867e-06
1.8943e-08
4.87651e-06
1.08357e-07
4.89641e-06
9.00988e-08
4.91059e-06
6.59663e-08
4.91194e-06
5.9323e-08
4.90285e-06
5.50016e-08
4.88961e-06
4.30522e-08
4.87858e-06
2.59363e-08
4.87353e-06
1.24265e-08
4.87524e-06
8.9122e-09
4.88299e-06
1.45881e-08
4.8961e-06
2.28631e-08
4.91423e-06
2.63545e-08
4.93665e-06
1.89328e-08
4.96328e-06
1.11948e-09
4.99294e-06
-2.57739e-08
-5.65567e-08
5.02506e-06
5.32781e-06
-1.6229e-07
5.32057e-06
2.61874e-08
5.32312e-06
1.05809e-07
5.32802e-06
8.5194e-08
5.33606e-06
5.7929e-08
5.34368e-06
5.16957e-08
5.3417e-06
5.69815e-08
5.32715e-06
5.76101e-08
5.30624e-06
4.6842e-08
5.28869e-06
2.99731e-08
5.28194e-06
1.56662e-08
5.28816e-06
8.36755e-09
5.30473e-06
6.2979e-09
5.32678e-06
4.29686e-09
5.34923e-06
-3.51242e-09
5.36954e-06
-1.91875e-08
5.38745e-06
-4.36913e-08
-7.41017e-08
5.405e-06
5.56075e-06
-1.6167e-07
5.56319e-06
2.37462e-08
5.57667e-06
9.23295e-08
5.58292e-06
7.89448e-08
5.59359e-06
4.72617e-08
5.62128e-06
2.39995e-08
5.66623e-06
1.20316e-08
5.71375e-06
1.0091e-08
5.74522e-06
1.53771e-08
5.75187e-06
2.33192e-08
5.73899e-06
2.85493e-08
5.71745e-06
2.99047e-08
5.69664e-06
2.71048e-08
5.6826e-06
1.83409e-08
5.67741e-06
1.67659e-09
5.68166e-06
-2.34373e-08
5.69409e-06
-5.61242e-08
-9.38133e-08
5.7138e-06
5.96573e-06
-8.69444e-08
5.94605e-06
4.34241e-08
5.97351e-06
6.48638e-08
6.00361e-06
4.88496e-08
6.02367e-06
2.72042e-08
6.04441e-06
3.25761e-09
6.07003e-06
-1.35892e-08
6.09605e-06
-1.59312e-08
6.11184e-06
-4.09693e-10
6.11185e-06
2.33071e-08
6.10022e-06
4.01798e-08
6.08563e-06
4.44908e-08
6.07769e-06
3.5046e-08
6.08222e-06
1.38173e-08
6.09928e-06
-1.53893e-08
6.12531e-06
-4.94612e-08
6.15537e-06
-8.61859e-08
-1.23177e-07
6.18473e-06
6.36258e-06
1.42564e-08
6.36935e-06
3.66486e-08
6.39265e-06
4.15664e-08
6.41031e-06
3.11933e-08
6.42191e-06
1.55946e-08
6.44074e-06
-1.55696e-08
6.46947e-06
-4.23196e-08
6.49776e-06
-4.42153e-08
6.51757e-06
-2.0227e-08
6.52922e-06
1.1663e-08
6.5329e-06
3.64947e-08
6.532e-06
4.53966e-08
6.52925e-06
3.77957e-08
6.52563e-06
1.74332e-08
6.52262e-06
-1.23753e-08
6.52085e-06
-4.76932e-08
6.52122e-06
-8.65515e-08
-1.25503e-07
6.52354e-06
5.75435e-06
-1.86817e-07
5.79427e-06
-3.27286e-09
5.79147e-06
4.43673e-08
5.7869e-06
3.57634e-08
5.77848e-06
2.40127e-08
5.76461e-06
-1.69807e-09
5.74917e-06
-2.68845e-08
5.74297e-06
-3.80117e-08
5.75394e-06
-3.11975e-08
5.77984e-06
-1.42384e-08
5.81254e-06
3.797e-09
5.84295e-06
1.49874e-08
5.86466e-06
1.60785e-08
5.87626e-06
5.83401e-09
5.87871e-06
-1.48208e-08
5.8749e-06
-4.38863e-08
5.866e-06
-7.76455e-08
-1.14792e-07
5.85529e-06
7.06848e-06
-9.22072e-08
7.05549e-06
9.71527e-09
7.03523e-06
6.46221e-08
7.00902e-06
6.19736e-08
7.00306e-06
2.99771e-08
7.01371e-06
-1.23509e-08
7.03653e-06
-4.97066e-08
7.0677e-06
-6.91815e-08
7.10531e-06
-6.87993e-08
7.14429e-06
-5.32199e-08
7.1785e-06
-3.04187e-08
7.20437e-06
-1.08803e-08
7.22134e-06
-8.85855e-10
7.23211e-06
-4.93889e-09
7.23752e-06
-2.02336e-08
7.23807e-06
-4.44395e-08
7.23402e-06
-7.35921e-08
-1.04587e-07
7.22382e-06
8.61356e-06
-2.56358e-07
8.63581e-06
-1.25419e-08
8.59564e-06
1.04792e-07
8.57848e-06
7.91371e-08
8.59085e-06
1.76103e-08
8.61198e-06
-3.34885e-08
8.63519e-06
-7.29149e-08
8.65459e-06
-8.85842e-08
8.66116e-06
-7.5363e-08
8.65029e-06
-4.23495e-08
8.6249e-06
-5.03544e-09
8.59365e-06
2.03704e-08
8.57022e-06
2.25473e-08
8.56552e-06
-2.42542e-10
8.58022e-06
-3.49309e-08
8.61076e-06
-7.49822e-08
8.64747e-06
-1.10301e-07
-1.35699e-07
8.67859e-06
1.0451e-05
1.10822e-08
1.0419e-05
1.94228e-08
1.04588e-05
6.50095e-08
1.04698e-05
6.82114e-08
1.04334e-05
5.39868e-08
1.03846e-05
1.52923e-08
1.03555e-05
-4.38091e-08
1.03529e-05
-8.59989e-08
1.0364e-05
-8.64516e-08
1.03736e-05
-5.19953e-08
1.03789e-05
-1.03358e-08
1.03852e-05
1.41358e-08
1.0397e-05
1.07602e-08
1.04148e-05
-1.81169e-08
1.04381e-05
-5.82138e-08
1.04608e-05
-9.76313e-08
1.04774e-05
-1.26965e-07
-1.42649e-07
1.04844e-05
1.29133e-05
-3.8494e-08
1.29937e-05
-6.10263e-08
1.30507e-05
8.09662e-09
1.30403e-05
7.86018e-08
1.3001e-05
9.32284e-08
1.29828e-05
3.3466e-08
1.2987e-05
-4.79213e-08
1.299e-05
-8.90302e-08
1.29825e-05
-7.89993e-08
1.29721e-05
-4.15299e-08
1.29669e-05
-5.11867e-09
1.297e-05
1.09533e-08
1.29757e-05
5.05794e-09
1.29733e-05
-1.5644e-08
1.29571e-05
-4.1996e-08
1.29256e-05
-6.61574e-08
1.28819e-05
-8.32488e-08
-9.17274e-08
1.28309e-05
1.52729e-05
-1.06721e-07
1.5319e-05
-1.07082e-07
1.54036e-05
-7.65859e-08
1.5524e-05
-4.17156e-08
1.56261e-05
-8.92464e-09
1.56739e-05
-1.43505e-08
1.56674e-05
-4.13915e-08
1.56362e-05
-5.77783e-08
1.5603e-05
-4.58361e-08
1.55797e-05
-1.82099e-08
1.55689e-05
5.68251e-09
1.55665e-05
1.3289e-08
1.55678e-05
3.76856e-09
1.5571e-05
-1.88333e-08
1.55746e-05
-4.55462e-08
1.55772e-05
-6.87878e-08
1.55777e-05
-8.37539e-08
-8.80159e-08
1.5574e-05
1.8481e-05
3.53008e-08
1.84419e-05
-6.80237e-08
1.8549e-05
-1.83653e-07
1.86902e-05
-1.82944e-07
1.87955e-05
-1.14254e-07
1.88329e-05
-5.17151e-08
1.8825e-05
-3.34461e-08
1.88074e-05
-4.02236e-08
1.88002e-05
-3.86277e-08
1.88005e-05
-1.8492e-08
1.88012e-05
4.93376e-09
1.88005e-05
1.40182e-08
1.88037e-05
6.06694e-10
1.88144e-05
-2.95264e-08
1.88348e-05
-6.59623e-08
1.88623e-05
-9.6296e-08
1.88925e-05
-1.13924e-07
-1.14611e-07
1.8919e-05
2.2933e-05
-8.8555e-08
2.30242e-05
-1.5916e-07
2.29343e-05
-9.37846e-08
2.28173e-05
-6.59029e-08
2.27983e-05
-9.53042e-08
2.28608e-05
-1.14152e-07
2.29189e-05
-9.15598e-08
2.29261e-05
-4.74841e-08
2.28971e-05
-9.57507e-09
2.28652e-05
1.34221e-08
2.28505e-05
1.9614e-08
2.28463e-05
1.82543e-08
2.28335e-05
1.33936e-08
2.27988e-05
5.14871e-09
2.27419e-05
-9.10584e-09
2.26734e-05
-2.77651e-08
2.2609e-05
-4.95645e-08
-7.05153e-08
2.25649e-05
1.6733e-05
3.54722e-08
1.66223e-05
-4.84192e-08
1.65615e-05
-3.29851e-08
1.6551e-05
-5.54058e-08
1.65848e-05
-1.2911e-07
1.66393e-05
-1.68635e-07
1.66938e-05
-1.46043e-07
1.6742e-05
-9.57475e-08
1.67897e-05
-5.72469e-08
1.6842e-05
-3.89263e-08
1.68909e-05
-2.92043e-08
1.69255e-05
-1.63712e-08
1.69385e-05
4.23207e-10
1.69278e-05
1.58508e-08
1.68961e-05
2.25549e-08
1.68508e-05
1.74977e-08
1.67997e-05
1.53875e-09
-2.03643e-08
1.67496e-05
1.47644e-05
1.85524e-09
1.47417e-05
-2.57702e-08
1.46793e-05
2.94836e-08
1.46267e-05
-2.85464e-09
1.45662e-05
-6.85638e-08
1.45207e-05
-1.23169e-07
1.45087e-05
-1.34042e-07
1.4528e-05
-1.15005e-07
1.45582e-05
-8.74623e-08
1.45813e-05
-6.20052e-08
1.45927e-05
-4.061e-08
1.45994e-05
-2.3079e-08
1.4611e-05
-1.12321e-08
1.4632e-05
-5.14459e-09
1.46587e-05
-4.08723e-09
1.46824e-05
-6.21205e-09
1.46931e-05
-9.18956e-09
-1.28133e-08
1.46855e-05
1.27281e-05
1.24531e-08
1.2703e-05
-6.51152e-10
1.26883e-05
4.41148e-08
1.26497e-05
3.57549e-08
1.26227e-05
-4.15313e-08
1.26121e-05
-1.12577e-07
1.26144e-05
-1.36345e-07
1.26216e-05
-1.22186e-07
1.26313e-05
-9.71511e-08
1.26475e-05
-7.82307e-08
1.26754e-05
-6.85587e-08
1.27162e-05
-6.38542e-08
1.27637e-05
-5.87186e-08
1.28078e-05
-4.9226e-08
1.28385e-05
-3.47808e-08
1.2851e-05
-1.8749e-08
1.28456e-05
-3.81888e-09
5.9458e-09
1.28269e-05
1.10039e-05
-1.8152e-07
1.10503e-05
-4.70913e-08
1.1106e-05
-1.15999e-08
1.11502e-05
-8.43467e-09
1.11065e-05
2.19216e-09
1.10014e-05
-7.47065e-09
1.09089e-05
-4.38436e-08
1.08765e-05
-8.98127e-08
1.09053e-05
-1.25927e-07
1.09705e-05
-1.43408e-07
1.1043e-05
-1.41101e-07
1.11005e-05
-1.21316e-07
1.11311e-05
-8.93997e-08
1.11347e-05
-5.28359e-08
1.11202e-05
-2.02823e-08
1.10989e-05
2.63152e-09
1.10815e-05
1.35172e-08
1.2624e-08
1.10749e-05
9.68532e-06
-1.55924e-07
9.73708e-06
-9.8848e-08
9.79154e-06
-6.60561e-08
9.82189e-06
-3.87835e-08
9.81246e-06
1.16189e-08
9.76527e-06
3.97141e-08
9.70369e-06
1.77384e-08
9.65063e-06
-3.67508e-08
9.61645e-06
-9.17438e-08
9.60078e-06
-1.27744e-07
9.60004e-06
-1.40363e-07
9.61018e-06
-1.31451e-07
9.62754e-06
-1.06759e-07
9.64955e-06
-7.48482e-08
9.67429e-06
-4.50192e-08
9.70028e-06
-2.33568e-08
9.72605e-06
-1.22527e-08
-1.10252e-08
9.7497e-06
8.26895e-06
-9.967e-08
8.22577e-06
-5.56617e-08
8.23046e-06
-7.07529e-08
8.27677e-06
-8.50907e-08
8.34721e-06
-5.88205e-08
8.40564e-06
-1.8721e-08
8.43086e-06
-7.47762e-09
8.42732e-06
-3.3213e-08
8.4063e-06
-7.07241e-08
8.37685e-06
-9.82877e-08
8.34487e-06
-1.08391e-07
8.31627e-06
-1.02847e-07
8.29688e-06
-8.73732e-08
8.29032e-06
-6.82831e-08
8.29663e-06
-5.13328e-08
8.31294e-06
-3.96682e-08
8.33431e-06
-3.36182e-08
-3.28464e-08
8.35613e-06
7.53671e-06
-3.29057e-08
7.43949e-06
4.15614e-08
7.37978e-06
-1.10443e-08
7.37471e-06
-8.00177e-08
7.40605e-06
-9.01668e-08
7.44721e-06
-5.98745e-08
7.47343e-06
-3.37067e-08
7.47819e-06
-3.79643e-08
7.47203e-06
-6.45711e-08
7.46593e-06
-9.21841e-08
7.46341e-06
-1.05869e-07
7.46222e-06
-1.01661e-07
7.45946e-06
-8.46078e-08
7.45438e-06
-6.32072e-08
7.44753e-06
-4.44855e-08
7.43976e-06
-3.18956e-08
7.43097e-06
-2.48262e-08
-2.16584e-08
7.41978e-06
6.36344e-06
-1.00057e-07
6.44263e-06
-3.76315e-08
6.47722e-06
-4.5635e-08
6.45815e-06
-6.0946e-08
6.42645e-06
-5.84626e-08
6.41703e-06
-5.0458e-08
6.43198e-06
-4.86577e-08
6.45265e-06
-5.86326e-08
6.46318e-06
-7.50995e-08
6.45912e-06
-8.81267e-08
6.44512e-06
-9.18668e-08
6.42902e-06
-8.55644e-08
6.41652e-06
-7.21044e-08
6.40967e-06
-5.63562e-08
6.40805e-06
-4.28684e-08
6.41026e-06
-3.41015e-08
6.41551e-06
-3.00756e-08
-2.92019e-08
6.42305e-06
5.58937e-06
-6.874e-08
5.593e-06
-4.1262e-08
5.63759e-06
-9.02301e-08
5.67715e-06
-1.00506e-07
5.69307e-06
-7.43842e-08
5.68474e-06
-4.2122e-08
5.66672e-06
-3.06436e-08
5.65278e-06
-4.46934e-08
5.64732e-06
-6.96384e-08
5.64616e-06
-8.69652e-08
5.64182e-06
-8.75211e-08
5.63028e-06
-7.40321e-08
5.61324e-06
-5.5056e-08
5.596e-06
-3.91249e-08
5.58397e-06
-3.08328e-08
5.58018e-06
-3.03159e-08
5.58527e-06
-3.51643e-08
-4.09719e-08
5.59704e-06
4.84667e-06
-6.89357e-08
4.86632e-06
-6.09176e-08
4.88757e-06
-1.11482e-07
4.90145e-06
-1.14387e-07
4.91029e-06
-8.32174e-08
4.91795e-06
-4.97856e-08
4.92373e-06
-3.64261e-08
4.92277e-06
-4.37308e-08
4.91225e-06
-5.91149e-08
4.89518e-06
-6.98978e-08
4.87907e-06
-7.1407e-08
4.87047e-06
-6.54399e-08
4.87182e-06
-5.63999e-08
4.88116e-06
-4.8467e-08
4.89362e-06
-4.32946e-08
4.90416e-06
-4.08579e-08
4.90906e-06
-4.00624e-08
-3.91516e-08
4.90724e-06
4.17828e-06
4.11736e-06
4.00588e-06
3.89149e-06
3.80827e-06
3.75849e-06
3.72206e-06
3.67833e-06
3.61922e-06
3.54932e-06
3.47791e-06
3.41247e-06
3.35607e-06
3.3076e-06
3.26431e-06
3.22345e-06
3.18339e-06
3.14424e-06
-9.7208e-08
9.7208e-08
-2.18616e-07
1.21408e-07
-3.52429e-07
1.33813e-07
-4.87814e-07
1.35385e-07
-6.09499e-07
1.21685e-07
-7.06592e-07
9.70931e-08
-7.72875e-07
6.62826e-08
-8.04764e-07
3.18892e-08
-8.02099e-07
-2.66514e-09
-7.72249e-07
-2.98502e-08
-7.19215e-07
-5.30338e-08
-6.47158e-07
-7.20569e-08
-5.60923e-07
-8.62352e-08
-4.64755e-07
-9.61678e-08
-3.62803e-07
-1.01953e-07
-2.57958e-07
-1.04845e-07
-1.51436e-07
-1.06521e-07
-4.33176e-08
-1.08118e-07
6.74378e-08
-1.10755e-07
1.82364e-07
-1.14926e-07
3.02827e-07
-1.20463e-07
4.32098e-07
-1.29271e-07
5.69888e-07
-1.3779e-07
7.07313e-07
-1.37425e-07
8.37611e-07
-1.30298e-07
9.42977e-07
-1.05367e-07
1.04829e-06
-1.05317e-07
1.11101e-06
-6.27113e-08
1.16319e-06
-5.21868e-08
1.19358e-06
-3.03926e-08
1.10672e-06
8.68654e-08
9.71894e-07
1.34825e-07
8.07689e-07
1.64205e-07
4.85034e-07
3.22654e-07
1.58534e-07
3.26501e-07
4.03613e-07
-2.45079e-07
8.31417e-07
-4.27804e-07
9.59183e-07
-1.27765e-07
5.55251e-07
4.03931e-07
-5.89633e-07
1.14488e-06
-1.73212e-06
1.14249e-06
-2.79884e-06
1.06672e-06
-3.73978e-06
9.40935e-07
-4.57117e-06
8.31392e-07
-5.28513e-06
7.13958e-07
-5.89956e-06
6.14428e-07
-6.42177e-06
5.22209e-07
-6.8676e-06
4.45831e-07
-7.24736e-06
3.79764e-07
-7.5735e-06
3.26136e-07
-7.8552e-06
2.81704e-07
-8.10133e-06
2.46131e-07
-8.31846e-06
2.17127e-07
-8.51197e-06
1.93506e-07
-8.68553e-06
1.73568e-07
-8.8417e-06
1.5617e-07
-8.98191e-06
1.40205e-07
-9.10682e-06
1.24914e-07
-9.21671e-06
1.09883e-07
-9.31187e-06
9.51684e-08
-9.39305e-06
8.11735e-08
-9.46157e-06
6.85207e-08
-9.51954e-06
5.79688e-08
-9.56961e-06
5.0071e-08
-9.61457e-06
4.49671e-08
-9.65701e-06
4.24371e-08
-9.69846e-06
4.14514e-08
-9.73911e-06
4.06424e-08
-9.77718e-06
3.80791e-08
-9.80874e-06
3.15511e-08
-9.8276e-06
1.8866e-08
-9.82619e-06
-1.41008e-09
-9.79585e-06
-3.03466e-08
-9.72676e-06
-6.90808e-08
-9.60923e-06
-1.17532e-07
-9.43451e-06
-1.74725e-07
-9.19576e-06
-2.38749e-07
-8.88897e-06
-3.06792e-07
-8.51365e-06
-3.75312e-07
-8.07328e-06
-4.40377e-07
-7.57516e-06
-4.98116e-07
-7.02985e-06
-5.45309e-07
-6.44978e-06
-5.80074e-07
-5.84741e-06
-6.02369e-07
-5.23363e-06
-6.13783e-07
-4.61708e-06
-6.1655e-07
-4.00449e-06
-6.12583e-07
-3.40137e-06
-6.03126e-07
-2.81264e-06
-5.88726e-07
-2.2432e-06
-5.69445e-07
-1.69808e-06
-5.45121e-07
-1.18222e-06
-5.15852e-07
-7.00156e-07
-4.82068e-07
-2.55286e-07
-4.44871e-07
1.50931e-07
-4.06217e-07
5.22205e-07
-3.71274e-07
8.5979e-07
-3.37586e-07
1.16642e-06
-3.0663e-07
1.4422e-06
-2.75784e-07
1.68607e-06
-2.43869e-07
1.89698e-06
-2.1091e-07
2.07046e-06
-1.73478e-07
2.19941e-06
-1.28954e-07
2.29501e-06
-9.55947e-08
2.41822e-06
-1.23208e-07
2.62589e-06
-2.07675e-07
2.82494e-06
-1.99048e-07
2.7992e-06
2.57389e-08
2.53372e-06
2.65483e-07
2.26232e-06
2.714e-07
2.16502e-06
9.72986e-08
2.22395e-06
-5.89287e-08
2.33386e-06
-1.09909e-07
2.41545e-06
-8.15901e-08
2.44208e-06
-2.66324e-08
2.42998e-06
1.20987e-08
2.40803e-06
2.1954e-08
2.36657e-06
4.1453e-08
2.26306e-06
1.0351e-07
2.09886e-06
1.64205e-07
2.00317e-06
9.56856e-08
2.144e-06
-1.40828e-07
2.58476e-06
-4.40759e-07
3.18936e-06
-6.04604e-07
3.71606e-06
-5.26698e-07
4.00817e-06
-2.92111e-07
4.04819e-06
-4.0018e-08
3.85313e-06
1.9506e-07
3.40396e-06
4.49167e-07
2.67181e-06
7.32154e-07
1.65995e-06
1.01186e-06
3.91287e-07
1.26866e-06
-1.0577e-06
1.44899e-06
-2.55473e-06
1.49703e-06
-3.97328e-06
1.41855e-06
-5.26429e-06
1.291e-06
-6.42449e-06
1.16021e-06
-7.4632e-06
1.0387e-06
-8.38679e-06
9.23595e-07
-9.19251e-06
8.0572e-07
-9.86647e-06
6.73961e-07
-1.03853e-05
5.18788e-07
-1.0721e-05
3.35749e-07
-1.08531e-05
1.32062e-07
-1.07747e-05
-7.83785e-08
-1.04895e-05
-2.85242e-07
-1.00099e-05
-4.7953e-07
-9.35672e-06
-6.53202e-07
-8.55686e-06
-7.99857e-07
-7.64111e-06
-9.15751e-07
-6.63794e-06
-1.00318e-06
-5.57009e-06
-1.06785e-06
-4.45225e-06
-1.11784e-06
-3.29008e-06
-1.16217e-06
-2.08194e-06
-1.20814e-06
-8.22775e-07
-1.25916e-06
4.88247e-07
-1.31102e-06
1.8377e-06
-1.34945e-06
3.20524e-06
-1.36755e-06
4.54626e-06
-1.34102e-06
5.79854e-06
-1.25228e-06
6.96242e-06
-1.16388e-06
8.03425e-06
-1.07183e-06
8.90438e-06
-8.70134e-07
9.65257e-06
-7.48191e-07
1.03106e-05
-6.58013e-07
1.06573e-05
-3.46732e-07
1.0999e-05
-3.41636e-07
1.11746e-05
-1.75669e-07
1.07628e-05
4.11784e-07
1.05903e-05
1.72541e-07
9.47357e-06
1.11673e-06
6.33795e-06
3.13562e-06
3.6518e-06
2.68615e-06
2.54828e-06
1.10352e-06
1.60205e-06
9.46236e-07
3.7826e-07
1.22379e-06
-5.31062e-07
9.09322e-07
-8.62642e-07
3.3158e-07
-2.35093e-07
-6.27549e-07
-9.71367e-08
1.94345e-07
-2.05895e-07
2.30166e-07
-3.0236e-07
2.30279e-07
-3.7774e-07
2.10765e-07
-4.26388e-07
1.70333e-07
-4.45027e-07
1.15732e-07
-4.33268e-07
5.45239e-08
-3.9487e-07
-6.50859e-09
-3.37159e-07
-6.03764e-08
-2.61034e-07
-1.05975e-07
-1.72191e-07
-1.41878e-07
-7.5831e-08
-1.68416e-07
2.32179e-08
-1.85284e-07
1.20177e-07
-1.93127e-07
2.12342e-07
-1.94117e-07
2.98383e-07
-1.90886e-07
3.78375e-07
-1.86514e-07
4.55226e-07
-1.84969e-07
5.32439e-07
-1.87969e-07
6.1505e-07
-1.97537e-07
7.07321e-07
-2.12734e-07
8.12863e-07
-2.34813e-07
9.33679e-07
-2.58607e-07
1.07561e-06
-2.79353e-07
1.25219e-06
-3.06884e-07
1.44309e-06
-2.96267e-07
1.63736e-06
-2.99584e-07
1.83513e-06
-2.60478e-07
1.90964e-06
-1.26702e-07
1.93583e-06
-5.6583e-08
1.9024e-06
1.20295e-07
1.60651e-06
4.30719e-07
1.21452e-06
5.56196e-07
1.05255e-06
4.84619e-07
1.21685e-06
1.62202e-07
9.6938e-07
2.39167e-09
-1.32242e-07
6.73818e-07
-1.84729e-06
1.58728e-06
-3.17212e-06
1.72877e-06
-3.94896e-06
1.92173e-06
-4.63063e-06
1.82415e-06
-5.26738e-06
1.70348e-06
-5.82586e-06
1.49942e-06
-6.31698e-06
1.32251e-06
-6.74164e-06
1.13862e-06
-7.1123e-06
9.85094e-07
-7.43546e-06
8.45362e-07
-7.71999e-06
7.30369e-07
-7.97198e-06
6.31756e-07
-8.19755e-06
5.51706e-07
-8.40105e-06
4.85195e-07
-8.58583e-06
4.30913e-07
-8.75423e-06
3.85535e-07
-8.908e-06
3.4727e-07
-9.04809e-06
3.13655e-07
-9.17486e-06
2.82945e-07
-9.2882e-06
2.5354e-07
-9.38776e-06
2.2448e-07
-9.47327e-06
1.95388e-07
-9.54475e-06
1.66649e-07
-9.6028e-06
1.39228e-07
-9.64906e-06
1.14782e-07
-9.68599e-06
9.48912e-08
-9.71667e-06
8.07571e-08
-9.74435e-06
7.26401e-08
-9.77197e-06
7.00663e-08
-9.80134e-06
7.08174e-08
-9.83241e-06
7.17107e-08
-9.86317e-06
6.88374e-08
-9.88934e-06
5.77254e-08
-9.90452e-06
3.40474e-08
-9.90184e-06
-4.09004e-09
-9.87058e-06
-6.16088e-08
-9.79974e-06
-1.39919e-07
-9.67896e-06
-2.38315e-07
-9.49838e-06
-3.553e-07
-9.25022e-06
-4.86911e-07
-8.92989e-06
-6.27124e-07
-8.53685e-06
-7.68352e-07
-8.07505e-06
-9.02176e-07
-7.55287e-06
-1.0203e-06
-6.9824e-06
-1.11578e-06
-6.37788e-06
-1.18459e-06
-5.75341e-06
-1.22684e-06
-5.12063e-06
-1.24656e-06
-4.48796e-06
-1.24922e-06
-3.8614e-06
-1.23914e-06
-3.24565e-06
-1.21888e-06
-2.64508e-06
-1.18929e-06
-2.06423e-06
-1.15029e-06
-1.50816e-06
-1.10119e-06
-9.82133e-07
-1.04188e-06
-4.91045e-07
-9.73156e-07
-3.84327e-08
-8.97483e-07
3.78586e-07
-8.23236e-07
7.54563e-07
-7.47251e-07
1.0914e-06
-6.74427e-07
1.39085e-06
-6.06075e-07
1.65784e-06
-5.42771e-07
1.90218e-06
-4.88212e-07
2.1399e-06
-4.48629e-07
2.39428e-06
-4.27864e-07
2.67974e-06
-4.14411e-07
2.9609e-06
-3.76752e-07
3.14676e-06
-3.09065e-07
3.20053e-06
-2.61445e-07
3.21266e-06
-2.11186e-07
3.29368e-06
-5.52762e-08
3.42176e-06
1.37396e-07
3.51122e-06
1.81942e-07
3.54124e-06
6.72769e-08
3.54676e-06
-6.44442e-08
3.54153e-06
-1.04682e-07
3.53636e-06
-7.64139e-08
3.55542e-06
-4.56954e-08
3.58029e-06
-1.27753e-08
3.54675e-06
5.54948e-08
3.41496e-06
1.73249e-07
3.21532e-06
3.03144e-07
3.04438e-06
3.35142e-07
2.99555e-06
1.44524e-07
3.14634e-06
-2.91617e-07
3.50949e-06
-8.03911e-07
3.98132e-06
-1.07644e-06
4.36384e-06
-9.09215e-07
4.46508e-06
-3.93347e-07
4.17399e-06
2.51074e-07
3.4423e-06
9.26747e-07
2.3105e-06
1.58097e-06
9.12241e-07
2.13041e-06
-6.01594e-07
2.5257e-06
-2.10821e-06
2.77528e-06
-3.5046e-06
2.84537e-06
-4.7429e-06
2.73533e-06
-5.84119e-06
2.51684e-06
-6.82475e-06
2.27456e-06
-7.71205e-06
2.04751e-06
-8.51244e-06
1.8391e-06
-9.22756e-06
1.63871e-06
-9.8506e-06
1.42876e-06
-1.03665e-05
1.18985e-06
-1.07549e-05
9.0725e-07
-1.09953e-05
5.76088e-07
-1.10644e-05
2.01175e-07
-1.09448e-05
-1.98003e-07
-1.0628e-05
-6.01982e-07
-1.01189e-05
-9.88713e-07
-9.43726e-06
-1.3348e-06
-8.61249e-06
-1.62463e-06
-7.67582e-06
-1.85242e-06
-6.65631e-06
-2.02269e-06
-5.5767e-06
-2.14745e-06
-4.45157e-06
-2.24297e-06
-3.28522e-06
-2.32852e-06
-2.07435e-06
-2.41901e-06
-8.10863e-07
-2.52265e-06
5.09496e-07
-2.63138e-06
1.87237e-06
-2.71232e-06
3.247e-06
-2.74217e-06
4.60474e-06
-2.69876e-06
5.90674e-06
-2.55429e-06
7.08464e-06
-2.34178e-06
8.14651e-06
-2.1337e-06
9.10135e-06
-1.82498e-06
9.8468e-06
-1.49364e-06
1.04935e-05
-1.30475e-06
1.1029e-05
-8.82233e-07
1.12721e-05
-5.84685e-07
1.15671e-05
-4.70656e-07
1.16552e-05
3.2366e-07
1.12778e-05
5.49988e-07
1.13105e-05
1.08399e-06
1.08718e-05
3.5743e-06
8.36072e-06
5.19724e-06
4.99952e-06
4.46472e-06
2.70569e-06
3.24006e-06
1.45396e-06
2.47551e-06
5.91772e-07
1.77151e-06
2.64276e-07
6.59076e-07
-4.46666e-07
4.7585e-07
1.51637e-08
1.79181e-07
-7.24724e-09
2.52577e-07
-1.78029e-08
2.40834e-07
6.86365e-09
1.86098e-07
7.27181e-08
1.04478e-07
1.7105e-07
1.74002e-08
2.92199e-07
-6.6625e-08
4.28641e-07
-1.42951e-07
5.75521e-07
-2.07256e-07
7.26177e-07
-2.56631e-07
8.73789e-07
-2.8949e-07
1.01093e-06
-3.05555e-07
1.13153e-06
-3.05886e-07
1.23121e-06
-2.92806e-07
1.30701e-06
-2.69917e-07
1.3582e-06
-2.42077e-07
1.38614e-06
-2.14457e-07
1.39186e-06
-1.90691e-07
1.3805e-06
-1.76604e-07
1.36429e-06
-1.81327e-07
1.35962e-06
-2.08067e-07
1.37604e-06
-2.51234e-07
1.42164e-06
-3.04203e-07
1.49983e-06
-3.57539e-07
1.61162e-06
-4.18674e-07
1.77531e-06
-4.59961e-07
1.92084e-06
-4.45111e-07
2.12466e-06
-4.64303e-07
2.32161e-06
-3.23649e-07
2.33854e-06
-7.35136e-08
2.32644e-06
1.32396e-07
2.30802e-06
4.49142e-07
2.15242e-06
7.11791e-07
1.88003e-06
7.57011e-07
1.02991e-06
1.01233e-06
-8.29951e-07
1.86225e-06
-2.62472e-06
2.46859e-06
-3.66539e-06
2.62795e-06
-4.48502e-06
2.54839e-06
-5.02143e-06
2.45814e-06
-5.43836e-06
2.24109e-06
-5.78777e-06
2.05288e-06
-6.11939e-06
1.83104e-06
-6.4366e-06
1.63972e-06
-6.74559e-06
1.44761e-06
-7.04215e-06
1.28165e-06
-7.3253e-06
1.12852e-06
-7.59233e-06
9.97398e-07
-7.8426e-06
8.82024e-07
-8.07531e-06
7.84412e-07
-8.29085e-06
7.00743e-07
-8.49006e-06
6.3012e-07
-8.67403e-06
5.69502e-07
-8.84359e-06
5.16833e-07
-8.99915e-06
4.69211e-07
-9.1404e-06
4.24196e-07
-9.26636e-06
3.79504e-07
-9.37568e-06
3.33801e-07
-9.46712e-06
2.86824e-07
-9.54009e-06
2.39618e-07
-9.59522e-06
1.94359e-07
-9.63426e-06
1.53824e-07
-9.66045e-06
1.21084e-07
-9.678e-06
9.82988e-08
-9.69227e-06
8.6913e-08
-9.70834e-06
8.61382e-08
-9.72981e-06
9.22891e-08
-9.75849e-06
1.00392e-07
-9.79304e-06
1.03381e-07
-9.82897e-06
9.36598e-08
-9.85935e-06
6.44278e-08
-9.87407e-06
1.06242e-08
-9.85911e-06
-7.65687e-08
-9.8038e-06
-1.9523e-07
-9.69377e-06
-3.48338e-07
-9.51635e-06
-5.32717e-07
-9.26223e-06
-7.41039e-07
-8.9268e-06
-9.62546e-07
-8.51087e-06
-1.18429e-06
-8.02054e-06
-1.39251e-06
-7.46688e-06
-1.57395e-06
-6.86504e-06
-1.71763e-06
-6.23235e-06
-1.81727e-06
-5.58542e-06
-1.87378e-06
-4.93659e-06
-1.89539e-06
-4.29276e-06
-1.89305e-06
-3.65783e-06
-1.87408e-06
-3.03484e-06
-1.84186e-06
-2.4274e-06
-1.79674e-06
-1.83991e-06
-1.73777e-06
-1.27881e-06
-1.6623e-06
-7.51711e-07
-1.56898e-06
-2.65358e-07
-1.45951e-06
1.78077e-07
-1.34092e-06
5.78202e-07
-1.22336e-06
9.38126e-07
-1.10717e-06
1.2623e-06
-9.98605e-07
1.55493e-06
-8.98699e-07
1.81915e-06
-8.06994e-07
2.05785e-06
-7.26915e-07
2.27603e-06
-6.66802e-07
2.47919e-06
-6.31027e-07
2.66875e-06
-6.0397e-07
2.8484e-06
-5.56399e-07
3.02413e-06
-4.84798e-07
3.19286e-06
-4.30179e-07
3.36797e-06
-3.86296e-07
3.56773e-06
-2.55028e-07
3.73025e-06
-2.51233e-08
3.7616e-06
1.50589e-07
3.71031e-06
1.18568e-07
3.69029e-06
-4.44224e-08
3.71011e-06
-1.24504e-07
3.69042e-06
-5.6728e-08
3.64499e-06
-2.65291e-10
3.71879e-06
-8.65694e-08
3.99903e-06
-2.24752e-07
4.34424e-06
-1.71962e-07
4.54487e-06
1.0252e-07
4.53856e-06
3.41452e-07
4.42203e-06
2.61052e-07
4.32767e-06
-1.97253e-07
4.28524e-06
-7.61482e-07
4.23827e-06
-1.02947e-06
4.09661e-06
-7.67557e-07
3.71117e-06
-7.90406e-09
2.99139e-06
9.70854e-07
1.90713e-06
2.01101e-06
6.08706e-07
2.87939e-06
-7.21569e-07
3.46069e-06
-1.97424e-06
3.77837e-06
-3.10678e-06
3.90783e-06
-4.11572e-06
3.85431e-06
-5.03478e-06
3.65439e-06
-5.90856e-06
3.39062e-06
-6.75559e-06
3.1216e-06
-7.56864e-06
2.86055e-06
-8.33266e-06
2.60312e-06
-9.03371e-06
2.33977e-06
-9.65667e-06
2.05172e-06
-1.01804e-05
1.71361e-06
-1.05774e-05
1.30419e-06
-1.08165e-05
8.15197e-07
-1.08692e-05
2.53925e-07
-1.07248e-05
-3.42416e-07
-1.03803e-05
-9.46522e-07
-9.84617e-06
-1.52282e-06
-9.1456e-06
-2.03537e-06
-8.30927e-06
-2.46096e-06
-7.37041e-06
-2.79127e-06
-6.35895e-06
-3.03415e-06
-5.29768e-06
-3.20873e-06
-4.20046e-06
-3.34019e-06
-3.07047e-06
-3.45852e-06
-1.90123e-06
-3.58824e-06
-6.80265e-07
-3.74361e-06
6.02647e-07
-3.91429e-06
1.94404e-06
-4.05371e-06
3.31107e-06
-4.10921e-06
4.65193e-06
-4.03962e-06
5.93132e-06
-3.83367e-06
7.11323e-06
-3.52368e-06
8.14874e-06
-3.16921e-06
9.06177e-06
-2.73801e-06
9.83701e-06
-2.26888e-06
1.04276e-05
-1.89537e-06
1.0941e-05
-1.39561e-06
1.12766e-05
-9.20324e-07
1.14276e-05
-6.2157e-07
1.16155e-05
1.35686e-07
1.13987e-05
7.66805e-07
1.11479e-05
1.33476e-06
1.15366e-05
3.18562e-06
1.12328e-05
5.50105e-06
8.97009e-06
6.72744e-06
5.87625e-06
6.3339e-06
3.45999e-06
4.89178e-06
2.05871e-06
3.17279e-06
1.47268e-06
1.24511e-06
-4.84326e-07
1.51034e-06
1.50254e-07
2.89265e-08
2.528e-07
1.50032e-07
3.42617e-07
1.51017e-07
4.54516e-07
7.41983e-08
5.98862e-07
-3.98666e-08
7.87131e-07
-1.70869e-07
1.0129e-06
-2.9239e-07
1.2643e-06
-3.94356e-07
1.52703e-06
-4.69983e-07
1.78607e-06
-5.15672e-07
2.02751e-06
-5.30936e-07
2.23962e-06
-5.17664e-07
2.41327e-06
-4.79537e-07
2.5421e-06
-4.2163e-07
2.6224e-06
-3.50223e-07
2.65316e-06
-2.72835e-07
2.63639e-06
-1.97685e-07
2.57755e-06
-1.31848e-07
2.48904e-06
-8.80977e-08
2.38657e-06
-7.8858e-08
2.28136e-06
-1.02859e-07
2.18405e-06
-1.53919e-07
2.1149e-06
-2.35059e-07
2.0945e-06
-3.37134e-07
2.12852e-06
-4.52693e-07
2.23756e-06
-5.69e-07
2.43223e-06
-6.39782e-07
2.66916e-06
-7.01239e-07
2.98067e-06
-6.35157e-07
3.151e-06
-2.43842e-07
2.99167e-06
2.91724e-07
2.58296e-06
8.57852e-07
1.80882e-06
1.48593e-06
3.73337e-07
2.19249e-06
-1.51217e-06
2.89784e-06
-2.96841e-06
3.31848e-06
-3.85517e-06
3.35535e-06
-4.41623e-06
3.18901e-06
-4.85964e-06
2.9918e-06
-5.18655e-06
2.78504e-06
-5.49005e-06
2.54459e-06
-5.76519e-06
2.32801e-06
-6.04196e-06
2.10782e-06
-6.31285e-06
1.9106e-06
-6.58414e-06
1.7189e-06
-6.84933e-06
1.54684e-06
-7.10915e-06
1.38833e-06
-7.36117e-06
1.24942e-06
-7.60585e-06
1.12671e-06
-7.84245e-06
1.02101e-06
-8.07065e-06
9.2894e-07
-8.28913e-06
8.48601e-07
-8.49615e-06
7.76523e-07
-8.68941e-06
7.10093e-07
-8.86674e-06
6.46547e-07
-9.02649e-06
5.83946e-07
-9.16766e-06
5.20668e-07
-9.28961e-06
4.5575e-07
-9.39182e-06
3.89039e-07
-9.47405e-06
3.21845e-07
-9.53673e-06
2.57037e-07
-9.58173e-06
1.98827e-07
-9.61242e-06
1.51777e-07
-9.63376e-06
1.19634e-07
-9.6513e-06
1.04459e-07
-9.67042e-06
1.05258e-07
-9.69628e-06
1.18151e-07
-9.73101e-06
1.35118e-07
-9.77428e-06
1.46654e-07
-9.82149e-06
1.40869e-07
-9.86423e-06
1.07168e-07
-9.8867e-06
3.30899e-08
-9.87912e-06
-8.41444e-08
-9.81918e-06
-2.55176e-07
-9.68887e-06
-4.78642e-07
-9.47538e-06
-7.46216e-07
-9.17282e-06
-1.04359e-06
-8.78252e-06
-1.35285e-06
-8.31137e-06
-1.65544e-06
-7.7704e-06
-1.93347e-06
-7.17418e-06
-2.17017e-06
-6.54064e-06
-2.35117e-06
-5.88981e-06
-2.4681e-06
-5.23996e-06
-2.52363e-06
-4.60194e-06
-2.53341e-06
-3.97613e-06
-2.51886e-06
-3.3584e-06
-2.4918e-06
-2.74636e-06
-2.4539e-06
-2.14163e-06
-2.40147e-06
-1.54856e-06
-2.33084e-06
-9.75948e-07
-2.23491e-06
-4.35152e-07
-2.10977e-06
6.37899e-08
-1.95845e-06
5.18654e-07
-1.79578e-06
9.21034e-07
-1.62574e-06
1.27417e-06
-1.46031e-06
1.58349e-06
-1.30792e-06
1.85896e-06
-1.17416e-06
2.10889e-06
-1.05693e-06
2.33106e-06
-9.49084e-07
2.51975e-06
-8.5549e-07
2.68381e-06
-7.95095e-07
2.84178e-06
-7.61935e-07
2.99089e-06
-7.05509e-07
3.10893e-06
-6.0284e-07
3.20192e-06
-5.23168e-07
3.33348e-06
-5.17857e-07
3.56253e-06
-4.84077e-07
3.8302e-06
-2.92795e-07
4.00669e-06
-2.5906e-08