/*--------------------------------*- C++ -*----------------------------------*\
| =========                 |                                                 |
| \\      /  F ield         | OpenFOAM: The Open Source CFD Toolbox           |
|  \\    /   O peration     | Version:  2112                                  |
|   \\  /    A nd           | Website:  www.openfoam.com                      |
|    \\/     M anipulation  |                                                 |
\*---------------------------------------------------------------------------*/
FoamFile
{
    version     2.0;
    format      ascii;
    arch        "LSB;label=32;scalar=64";
    class       surfaceScalarField;
    location    "0.1";
    object      phi_0;
}
// * * * * * * * * * * * * * * * * * * * * * * * * * * * * * * * * * * * * * //

dimensions      [0 3 -1 0 0 0 0];

oriented        oriented;

internalField   nonuniform List<scalar> 
24170
(
2.89377e-06
2.99354e-07
2.70063e-06
1.93145e-07
2.54755e-06
1.53075e-07
2.42368e-06
1.23874e-07
2.31371e-06
1.09963e-07
2.21406e-06
9.96538e-08
2.12261e-06
9.14501e-08
2.03676e-06
8.58475e-08
1.95412e-06
8.26408e-08
1.87244e-06
8.16823e-08
1.78976e-06
8.26828e-08
1.70372e-06
8.60356e-08
1.612e-06
9.17253e-08
1.51169e-06
1.00302e-07
1.39873e-06
1.12959e-07
1.27078e-06
1.27956e-07
1.10596e-06
1.64815e-07
2.14212e-07
8.91752e-07
3.44824e-06
2.73263e-07
3.34001e-06
3.0137e-07
3.22838e-06
2.64702e-07
3.10747e-06
2.44786e-07
2.98869e-06
2.28747e-07
2.87913e-06
2.09212e-07
2.77908e-06
1.91503e-07
2.68616e-06
1.78768e-07
2.59764e-06
1.71152e-07
2.5107e-06
1.68624e-07
2.423e-06
1.70386e-07
2.33167e-06
1.77369e-07
2.23427e-06
1.89122e-07
2.12676e-06
2.07815e-07
2.00565e-06
2.34062e-07
1.8631e-06
2.70514e-07
1.69909e-06
3.28822e-07
4.01271e-07
1.51203e-06
3.72632e-06
2.14529e-07
3.73266e-06
2.95025e-07
3.72822e-06
2.69146e-07
3.70999e-06
2.63015e-07
3.67674e-06
2.62002e-07
3.631e-06
2.54946e-07
3.57831e-06
2.44195e-07
3.52036e-06
2.36721e-07
3.45727e-06
2.34238e-07
3.3885e-06
2.37392e-07
3.31299e-06
2.45901e-07
3.22945e-06
2.60908e-07
3.13545e-06
2.83125e-07
3.0286e-06
3.14657e-07
2.90401e-06
3.58655e-07
2.75773e-06
4.16792e-07
2.58628e-06
5.00274e-07
6.06156e-07
2.38139e-06
3.98143e-06
1.63708e-07
4.00763e-06
2.68821e-07
4.01697e-06
2.59805e-07
4.02612e-06
2.53865e-07
4.02945e-06
2.58668e-07
4.0246e-06
2.59803e-07
4.01258e-06
2.56208e-07
3.99507e-06
2.54236e-07
3.97174e-06
2.57565e-07
3.94183e-06
2.67303e-07
3.90401e-06
2.83725e-07
3.85737e-06
3.07538e-07
3.79982e-06
3.40678e-07
3.72985e-06
3.84632e-07
3.64402e-06
4.44479e-07
3.53976e-06
5.21059e-07
3.41487e-06
6.2516e-07
7.54661e-07
3.26637e-06
4.25407e-06
1.22114e-07
4.28036e-06
2.4253e-07
4.28962e-06
2.50547e-07
4.29777e-06
2.45713e-07
4.30401e-06
2.52434e-07
4.30524e-06
2.58566e-07
4.30171e-06
2.59746e-07
4.29489e-06
2.61055e-07
4.28493e-06
2.67525e-07
4.27131e-06
2.80924e-07
4.25299e-06
3.02046e-07
4.22926e-06
3.31264e-07
4.19906e-06
3.70876e-07
4.16137e-06
4.2232e-07
4.11561e-06
4.90241e-07
4.06034e-06
5.76333e-07
3.99843e-06
6.87065e-07
8.2327e-07
3.92982e-06
4.54422e-06
9.24356e-08
4.57136e-06
2.15397e-07
4.58352e-06
2.38381e-07
4.59012e-06
2.39113e-07
4.59507e-06
2.4749e-07
4.59664e-06
2.56995e-07
4.59397e-06
2.62419e-07
4.58786e-06
2.67166e-07
4.57892e-06
2.76464e-07
4.56702e-06
2.92819e-07
4.55183e-06
3.17238e-07
4.53288e-06
3.50214e-07
4.51035e-06
3.93408e-07
4.48403e-06
4.48639e-07
4.45565e-06
5.18616e-07
4.42577e-06
6.06218e-07
4.40029e-06
7.12542e-07
8.41011e-07
4.38255e-06
4.86016e-06
7.05321e-08
4.88731e-06
1.8825e-07
4.90127e-06
2.24412e-07
4.90721e-06
2.33177e-07
4.9111e-06
2.43601e-07
4.91261e-06
2.55489e-07
4.91036e-06
2.64663e-07
4.90446e-06
2.7307e-07
4.89561e-06
2.85309e-07
4.88396e-06
3.04474e-07
4.86954e-06
3.31653e-07
4.85212e-06
3.67638e-07
4.83237e-06
4.13154e-07
4.81072e-06
4.70288e-07
4.78959e-06
5.39749e-07
4.77108e-06
6.24732e-07
4.76088e-06
7.22742e-07
8.37117e-07
4.76477e-06
5.20133e-06
5.43568e-08
5.2262e-06
1.63379e-07
5.24077e-06
2.09841e-07
5.24711e-06
2.26836e-07
5.25056e-06
2.40156e-07
5.25189e-06
2.54153e-07
5.25018e-06
2.66371e-07
5.24507e-06
2.78179e-07
5.23707e-06
2.93316e-07
5.22647e-06
3.15066e-07
5.2136e-06
3.44527e-07
5.19856e-06
3.82684e-07
5.18221e-06
4.29499e-07
5.16558e-06
4.8692e-07
5.15108e-06
5.54246e-07
5.14157e-06
6.34246e-07
5.14168e-06
7.22632e-07
8.2225e-07
5.15655e-06
5.56881e-06
4.24406e-08
5.5903e-06
1.41896e-07
5.60524e-06
1.94893e-07
5.6124e-06
2.1968e-07
5.61589e-06
2.36665e-07
5.61735e-06
2.52697e-07
5.61627e-06
2.67446e-07
5.61221e-06
2.82241e-07
5.60544e-06
3.0009e-07
5.59641e-06
3.24092e-07
5.58568e-06
3.55262e-07
5.57374e-06
3.9462e-07
5.56162e-06
4.41619e-07
5.55075e-06
4.97787e-07
5.54346e-06
5.61536e-07
5.54277e-06
6.34936e-07
5.55231e-06
7.13092e-07
7.98228e-07
5.57634e-06
5.96412e-06
3.35908e-08
5.98211e-06
1.23903e-07
5.99691e-06
1.80092e-07
6.00509e-06
2.11501e-07
6.00906e-06
2.32697e-07
6.01083e-06
2.50926e-07
6.01046e-06
2.67815e-07
6.00763e-06
2.85071e-07
6.00248e-06
3.05236e-07
5.99557e-06
3.31008e-07
5.98761e-06
3.63217e-07
5.97944e-06
4.02793e-07
5.97222e-06
4.48841e-07
5.96759e-06
5.02418e-07
5.96776e-06
5.61358e-07
5.97554e-06
6.27164e-07
5.99386e-06
6.94771e-07
7.66028e-07
6.02606e-06
6.38887e-06
2.68826e-08
6.40379e-06
1.08989e-07
6.41792e-06
1.65962e-07
6.42692e-06
2.02495e-07
6.43165e-06
2.27969e-07
6.434e-06
2.48578e-07
6.43457e-06
2.67244e-07
6.43327e-06
2.86369e-07
6.43023e-06
3.08279e-07
6.42601e-06
3.35227e-07
6.42146e-06
3.67762e-07
6.41763e-06
4.06628e-07
6.41579e-06
4.50682e-07
6.41764e-06
5.00568e-07
6.42522e-06
5.53778e-07
6.44092e-06
6.11458e-07
6.46717e-06
6.68521e-07
7.2679e-07
6.50641e-06
5.74973e-06
2.23377e-08
5.76033e-06
9.83893e-08
5.77146e-06
1.54835e-07
5.77956e-06
1.94396e-07
5.78441e-06
2.23116e-07
5.78719e-06
2.45794e-07
5.78865e-06
2.6579e-07
5.78894e-06
2.86074e-07
5.78828e-06
3.08937e-07
5.78718e-06
3.36333e-07
5.78638e-06
3.68561e-07
5.78684e-06
4.06165e-07
5.78968e-06
4.47839e-07
5.79629e-06
4.93962e-07
5.80819e-06
5.41878e-07
5.8271e-06
5.92549e-07
5.85464e-06
6.40978e-07
6.89115e-07
5.89232e-06
7.00716e-06
1.80441e-08
7.01747e-06
8.80788e-08
7.02925e-06
1.43057e-07
7.03891e-06
1.84738e-07
7.04554e-06
2.16482e-07
7.04996e-06
2.41374e-07
7.05307e-06
2.62682e-07
7.05531e-06
2.83832e-07
7.05706e-06
3.07186e-07
7.05894e-06
3.34455e-07
7.06182e-06
3.65683e-07
7.06681e-06
4.01172e-07
7.07518e-06
4.39474e-07
7.08838e-06
4.80758e-07
7.10791e-06
5.22347e-07
7.1354e-06
5.65065e-07
7.1722e-06
6.04177e-07
6.41718e-07
7.21959e-06
8.53978e-06
1.39922e-08
8.54973e-06
7.81251e-08
8.56208e-06
1.30705e-07
8.5735e-06
1.73322e-07
8.58255e-06
2.07432e-07
8.58953e-06
2.3439e-07
8.59535e-06
2.56861e-07
8.60076e-06
2.78427e-07
8.60637e-06
3.01574e-07
8.61295e-06
3.27872e-07
8.62147e-06
3.57168e-07
8.63313e-06
3.89511e-07
8.64923e-06
4.23369e-07
8.67121e-06
4.58779e-07
8.7004e-06
4.93162e-07
8.7382e-06
5.27258e-07
8.78559e-06
5.56793e-07
5.83826e-07
8.84348e-06
1.04078e-05
1.01044e-08
1.04176e-05
6.83407e-08
1.04307e-05
1.17545e-07
1.04444e-05
1.59696e-07
1.04567e-05
1.95124e-07
1.04674e-05
2.23618e-07
1.04774e-05
2.46857e-07
1.04877e-05
2.68172e-07
1.04991e-05
2.9016e-07
1.05126e-05
3.14386e-07
1.05291e-05
3.40631e-07
1.05499e-05
3.68728e-07
1.05761e-05
3.97175e-07
1.0609e-05
4.2591e-07
1.06496e-05
4.52582e-07
1.06989e-05
4.7789e-07
1.07575e-05
4.982e-07
5.15529e-07
1.08258e-05
1.26846e-05
6.16712e-09
1.26947e-05
5.82303e-08
1.27094e-05
1.02894e-07
1.27261e-05
1.4295e-07
1.2743e-05
1.78254e-07
1.27593e-05
2.07327e-07
1.27755e-05
2.30632e-07
1.27928e-05
2.50856e-07
1.28124e-05
2.70593e-07
1.28353e-05
2.91525e-07
1.28623e-05
3.1356e-07
1.28946e-05
3.36455e-07
1.29329e-05
3.58852e-07
1.29783e-05
3.80566e-07
1.30312e-05
3.99621e-07
1.30924e-05
4.16677e-07
1.31618e-05
4.28835e-07
4.3789e-07
1.32394e-05
1.54597e-05
1.81856e-09
1.54711e-05
4.68044e-08
1.54886e-05
8.53858e-08
1.55101e-05
1.21429e-07
1.55334e-05
1.54922e-07
1.55574e-05
1.83399e-07
1.55821e-05
2.05863e-07
1.5609e-05
2.24009e-07
1.56393e-05
2.40323e-07
1.5674e-05
2.56747e-07
1.5714e-05
2.73616e-07
1.57597e-05
2.90778e-07
1.58115e-05
3.07014e-07
1.587e-05
3.22044e-07
1.59353e-05
3.34314e-07
1.60076e-05
3.4439e-07
1.60862e-05
3.5022e-07
3.53496e-07
1.61706e-05
1.8842e-05
-3.59842e-09
1.88564e-05
3.23861e-08
1.8879e-05
6.2823e-08
1.8908e-05
9.23902e-08
1.89409e-05
1.22021e-07
1.89756e-05
1.48702e-07
1.90118e-05
1.69717e-07
1.90506e-05
1.8515e-07
1.90937e-05
1.97272e-07
1.9142e-05
2.08411e-07
1.91961e-05
2.1955e-07
1.9256e-05
2.30857e-07
1.93216e-05
2.41392e-07
1.93929e-05
2.50766e-07
1.94694e-05
2.57749e-07
1.95512e-05
2.6265e-07
1.96374e-05
2.63994e-07
2.62742e-07
1.97282e-05
2.29644e-05
-1.09848e-08
2.29848e-05
1.20352e-08
2.30163e-05
3.12499e-08
2.30572e-05
5.15565e-08
2.3104e-05
7.52142e-08
2.31536e-05
9.9088e-08
2.32047e-05
1.18644e-07
2.3258e-05
1.31809e-07
2.33154e-05
1.39917e-07
2.3378e-05
1.45798e-07
2.34461e-05
1.51416e-07
2.35194e-05
1.57516e-07
2.35973e-05
1.63555e-07
2.3679e-05
1.69053e-07
2.37637e-05
1.73041e-07
2.38508e-05
1.75591e-07
2.39389e-05
1.75843e-07
1.75053e-07
2.40266e-05
1.68096e-05
-1.76002e-08
1.68276e-05
-5.97963e-09
1.68548e-05
4.06799e-09
1.68898e-05
1.65731e-08
1.69299e-05
3.50418e-08
1.69721e-05
5.6923e-08
1.70143e-05
7.64405e-08
1.70567e-05
8.94037e-08
1.71005e-05
9.6097e-08
1.71469e-05
9.93925e-08
1.71964e-05
1.01914e-07
1.72489e-05
1.05054e-07
1.73037e-05
1.08748e-07
1.73602e-05
1.12572e-07
1.74176e-05
1.15629e-07
1.74755e-05
1.17701e-07
1.75334e-05
1.17971e-07
1.16659e-07
1.75917e-05
1.46337e-05
-2.53661e-08
1.46535e-05
-2.58146e-08
1.46804e-05
-2.27886e-08
1.47125e-05
-1.55471e-08
1.47501e-05
-2.51832e-09
1.47889e-05
1.81122e-08
1.48285e-05
3.67788e-08
1.48686e-05
4.93753e-08
1.49089e-05
5.57305e-08
1.49502e-05
5.8071e-08
1.4993e-05
5.91125e-08
1.50374e-05
6.06727e-08
1.5083e-05
6.31531e-08
1.51293e-05
6.63026e-08
1.51756e-05
6.93009e-08
1.52216e-05
7.17485e-08
1.52666e-05
7.2907e-08
7.32334e-08
1.53101e-05
1.27395e-05
-3.35612e-08
1.2763e-05
-4.93216e-08
1.27956e-05
-5.53837e-08
1.28313e-05
-5.11879e-08
1.2867e-05
-3.82081e-08
1.29042e-05
-1.90957e-08
1.29397e-05
1.24097e-09
1.29761e-05
1.30205e-08
1.30116e-05
2.02295e-08
1.30468e-05
2.28188e-08
1.30827e-05
2.32551e-08
1.31196e-05
2.37232e-08
1.31575e-05
2.52296e-08
1.31959e-05
2.78983e-08
1.32341e-05
3.11025e-08
1.32715e-05
3.43428e-08
1.33077e-05
3.67166e-08
3.81299e-08
1.33428e-05
1.10938e-05
-4.49405e-08
1.11182e-05
-7.37426e-08
1.1147e-05
-8.41538e-08
1.11762e-05
-8.04337e-08
1.12066e-05
-6.85848e-08
1.12401e-05
-5.25683e-08
1.12774e-05
-3.60577e-08
1.13133e-05
-2.28852e-08
1.1348e-05
-1.45257e-08
1.13814e-05
-1.05245e-08
1.14137e-05
-9.08237e-09
1.14456e-05
-8.15315e-09
1.14773e-05
-6.49314e-09
1.1509e-05
-3.78525e-09
1.15407e-05
-6.34346e-10
1.15715e-05
3.60966e-09
1.16011e-05
7.10317e-09
9.60716e-09
1.16296e-05
9.66411e-06
-6.18144e-08
9.69889e-06
-1.08518e-07
9.73327e-06
-1.18536e-07
9.76289e-06
-1.10054e-07
9.79128e-06
-9.69731e-08
9.82148e-06
-8.27716e-08
9.85299e-06
-6.75619e-08
9.88384e-06
-5.37397e-08
9.91307e-06
-4.37567e-08
9.94091e-06
-3.83664e-08
9.96812e-06
-3.629e-08
9.99521e-06
-3.52439e-08
1.00222e-05
-3.34709e-08
1.00487e-05
-3.03024e-08
1.00741e-05
-2.60467e-08
1.00989e-05
-2.11811e-08
1.01226e-05
-1.66203e-08
-1.26823e-08
1.01449e-05
8.41477e-06
-7.85513e-08
8.44998e-06
-1.43727e-07
8.48269e-06
-1.51239e-07
8.50964e-06
-1.3701e-07
8.53591e-06
-1.23242e-07
8.56457e-06
-1.11427e-07
8.59517e-06
-9.81614e-08
8.62577e-06
-8.43419e-08
8.65496e-06
-7.29514e-08
8.68219e-06
-6.55924e-08
8.70754e-06
-6.16409e-08
8.7313e-06
-5.90068e-08
8.75392e-06
-5.60893e-08
8.77568e-06
-5.20605e-08
8.79676e-06
-4.71259e-08
8.81715e-06
-4.15708e-08
8.83668e-06
-3.61541e-08
-3.12509e-08
8.85525e-06
7.3484e-06
-1.16275e-07
7.38643e-06
-1.81762e-07
7.41228e-06
-1.77087e-07
7.43459e-06
-1.59319e-07
7.45846e-06
-1.47116e-07
7.48358e-06
-1.36543e-07
7.50897e-06
-1.23552e-07
7.53426e-06
-1.09632e-07
7.55926e-06
-9.79531e-08
7.58371e-06
-9.00406e-08
7.60719e-06
-8.51163e-08
7.62917e-06
-8.09932e-08
7.6494e-06
-7.63188e-08
7.66825e-06
-7.09102e-08
7.68605e-06
-6.49302e-08
7.70295e-06
-5.84707e-08
7.71915e-06
-5.23445e-08
-4.64187e-08
7.73431e-06
6.40725e-06
-1.59369e-07
6.45412e-06
-2.28635e-07
6.48035e-06
-2.03318e-07
6.50408e-06
-1.83042e-07
6.52967e-06
-1.72706e-07
6.55403e-06
-1.60901e-07
6.57674e-06
-1.4627e-07
6.59962e-06
-1.32508e-07
6.62187e-06
-1.20205e-07
6.64298e-06
-1.11154e-07
6.66224e-06
-1.04374e-07
6.67904e-06
-9.77861e-08
6.69401e-06
-9.12942e-08
6.70675e-06
-8.36502e-08
6.71862e-06
-7.68015e-08
6.72914e-06
-6.89872e-08
6.7401e-06
-6.33065e-08
-5.68063e-08
6.75049e-06
5.59532e-06
-2.14475e-07
5.61676e-06
-2.50072e-07
5.63459e-06
-2.21146e-07
5.65108e-06
-1.99536e-07
5.66104e-06
-1.82662e-07
5.66697e-06
-1.66835e-07
5.66981e-06
-1.49107e-07
5.67052e-06
-1.33214e-07
5.67055e-06
-1.20234e-07
5.66906e-06
-1.09664e-07
5.66534e-06
-1.00656e-07
5.65962e-06
-9.20651e-08
5.65227e-06
-8.39516e-08
5.6443e-06
-7.56782e-08
5.63631e-06
-6.8806e-08
5.62862e-06
-6.13034e-08
5.62164e-06
-5.63248e-08
-4.86405e-08
5.61348e-06
4.90432e-06
-2.95823e-07
4.84801e-06
-1.93761e-07
4.7859e-06
-1.59035e-07
4.70962e-06
-1.23259e-07
4.62693e-06
-9.99662e-08
4.54557e-06
-8.54747e-08
4.47071e-06
-7.42452e-08
4.40306e-06
-6.55695e-08
4.34173e-06
-5.89068e-08
4.28563e-06
-5.35587e-08
4.23396e-06
-4.89916e-08
4.18651e-06
-4.46137e-08
4.14351e-06
-4.0949e-08
4.10416e-06
-3.63296e-08
4.07046e-06
-3.51057e-08
4.038e-06
-2.88454e-08
4.02164e-06
-3.9961e-08
-2.95154e-08
4.00251e-06
3.90278e-06
3.70902e-06
3.54999e-06
3.42673e-06
3.32676e-06
3.24129e-06
3.16704e-06
3.10147e-06
3.04256e-06
2.98901e-06
2.94001e-06
2.8954e-06
2.85445e-06
2.81812e-06
2.78302e-06
2.75417e-06
2.71421e-06
2.68469e-06
-1.79037e-07
1.79037e-07
-2.64769e-07
8.57322e-08
-2.09369e-07
-5.54008e-08
3.5178e-09
-2.12886e-07
3.61535e-07
-3.58018e-07
8.3504e-07
-4.73505e-07
1.38148e-06
-5.46443e-07
1.96222e-06
-5.8074e-07
2.54716e-06
-5.84937e-07
3.11478e-06
-5.67616e-07
3.65101e-06
-5.36231e-07
4.14741e-06
-4.96401e-07
4.59921e-06
-4.51803e-07
5.00369e-06
-4.04476e-07
5.35894e-06
-3.55247e-07
5.6631e-06
-3.04167e-07
5.91397e-06
-2.50869e-07
6.10875e-06
-1.94775e-07
6.24398e-06
-1.35231e-07
6.31538e-06
-7.14057e-08
6.31703e-06
-1.64625e-09
6.24872e-06
6.83113e-08
6.10054e-06
1.48179e-07
5.87097e-06
2.29566e-07
5.55825e-06
3.12719e-07
5.16185e-06
3.96406e-07
4.68299e-06
4.78857e-07
4.12705e-06
5.55942e-07
3.50282e-06
6.24234e-07
2.82631e-06
6.76501e-07
2.10922e-06
7.17095e-07
1.37229e-06
7.36929e-07
6.01611e-07
7.7068e-07
-1.17686e-07
7.19297e-07
-6.56165e-07
5.3848e-07
-1.11212e-06
4.55954e-07
-1.49344e-06
3.81316e-07
-1.76367e-06
2.70237e-07
-1.87933e-06
1.15659e-07
-1.82887e-06
-5.0465e-08
-1.62342e-06
-2.05446e-07
-1.27578e-06
-3.47643e-07
-7.76609e-07
-4.99168e-07
-1.0614e-07
-6.70469e-07
6.29885e-07
-7.36025e-07
1.28583e-06
-6.55947e-07
1.72125e-06
-4.35418e-07
1.84786e-06
-1.26612e-07
1.80578e-06
4.2087e-08
1.8162e-06
-1.04268e-08
1.91888e-06
-1.02674e-07
2.04374e-06
-1.24869e-07
2.00359e-06
4.01581e-08
1.53746e-06
4.6613e-07
6.51838e-07
8.85619e-07
-5.43052e-07
1.19489e-06
-1.95558e-06
1.41253e-06
-3.3562e-06
1.40062e-06
-4.58955e-06
1.23335e-06
-5.64574e-06
1.05619e-06
-6.5522e-06
9.06461e-07
-7.33186e-06
7.79655e-07
-8.00881e-06
6.76954e-07
-8.60286e-06
5.94044e-07
-9.12932e-06
5.26465e-07
-9.59933e-06
4.70013e-07
-1.00201e-05
4.20756e-07
-1.03955e-05
3.75438e-07
-1.0727e-05
3.31453e-07
-1.10138e-05
2.86774e-07
-1.12537e-05
2.3996e-07
-1.14439e-05
1.90142e-07
-1.15807e-05
1.36816e-07
-1.16604e-05
7.97723e-08
-1.1681e-05
2.05244e-08
-1.16423e-05
-3.86191e-08
-1.15442e-05
-9.81889e-08
-1.13871e-05
-1.57075e-07
-1.11724e-05
-2.14651e-07
-1.09022e-05
-2.70212e-07
-1.05794e-05
-3.2284e-07
-1.02076e-05
-3.71776e-07
-9.79114e-06
-4.16467e-07
-9.33453e-06
-4.56607e-07
-8.8424e-06
-4.92135e-07
-8.31919e-06
-5.23203e-07
-7.76905e-06
-5.50147e-07
-7.1956e-06
-5.73449e-07
-6.60192e-06
-5.93676e-07
-5.99051e-06
-6.11414e-07
-5.36329e-06
-6.27216e-07
-4.72178e-06
-6.41507e-07
-4.06745e-06
-6.54333e-07
-3.40236e-06
-6.65094e-07
-2.72978e-06
-6.72577e-07
-2.05449e-06
-6.75288e-07
-1.383e-06
-6.71495e-07
-7.23115e-07
-6.59883e-07
-8.53936e-08
-6.37721e-07
5.20537e-07
-6.05931e-07
1.08488e-06
-5.64341e-07
1.60176e-06
-5.1688e-07
2.06802e-06
-4.66258e-07
2.48246e-06
-4.14448e-07
2.84555e-06
-3.63085e-07
3.15903e-06
-3.13482e-07
3.42565e-06
-2.66621e-07
3.64871e-06
-2.23055e-07
3.83162e-06
-1.82909e-07
3.97784e-06
-1.46221e-07
4.09072e-06
-1.1288e-07
4.1731e-06
-8.23836e-08
4.22782e-06
-5.47186e-08
4.25716e-06
-2.93401e-08
4.26039e-06
-3.23378e-09
4.23774e-06
2.26518e-08
4.1894e-06
4.83445e-08
4.11577e-06
7.36223e-08
4.01468e-06
1.01096e-07
3.88546e-06
1.29221e-07
3.73126e-06
1.54199e-07
3.55734e-06
1.73915e-07
3.37119e-06
1.86157e-07
3.18293e-06
1.88254e-07
2.99628e-06
1.86657e-07
2.80534e-06
1.90931e-07
2.61005e-06
1.95299e-07
2.41833e-06
1.91714e-07
2.2393e-06
1.79029e-07
2.08829e-06
1.51008e-07
1.96956e-06
1.18737e-07
1.86261e-06
1.06947e-07
1.80648e-06
5.61273e-08
1.95351e-06
-1.47025e-07
2.37422e-06
-4.20708e-07
2.85261e-06
-4.78393e-07
3.12042e-06
-2.67808e-07
3.12764e-06
-7.22503e-09
2.88856e-06
2.39078e-07
2.36978e-06
5.18782e-07
1.59907e-06
7.70717e-07
7.08833e-07
8.90232e-07
-1.77459e-07
8.86292e-07
-1.01501e-06
8.37547e-07
-1.79079e-06
7.75783e-07
-2.49548e-06
7.04689e-07
-3.11613e-06
6.20656e-07
-3.6353e-06
5.19165e-07
-4.03224e-06
3.96938e-07
-4.28475e-06
2.52515e-07
-4.37553e-06
9.07818e-08
-4.29305e-06
-8.2484e-08
-4.03162e-06
-2.61432e-07
-3.59415e-06
-4.3747e-07
-2.99323e-06
-6.00918e-07
-2.2533e-06
-7.39924e-07
-1.41067e-06
-8.42632e-07
-5.12244e-07
-8.98428e-07
3.88881e-07
-9.01125e-07
1.24611e-06
-8.57228e-07
2.0287e-06
-7.82596e-07
2.72195e-06
-6.93242e-07
3.32429e-06
-6.02346e-07
3.84444e-06
-5.20149e-07
4.29765e-06
-4.53212e-07
4.701e-06
-4.03351e-07
5.06956e-06
-3.68551e-07
5.41513e-06
-3.45577e-07
5.74474e-06
-3.29612e-07
6.05853e-06
-3.13787e-07
6.35131e-06
-2.92777e-07
6.61153e-06
-2.60218e-07
6.81722e-06
-2.05699e-07
6.94154e-06
-1.2432e-07
6.91494e-06
2.66033e-08
6.58434e-06
3.30605e-07
5.8351e-06
7.49233e-07
4.84673e-06
9.88375e-07
3.89804e-06
9.48693e-07
6.99413e-07
3.19862e-06
1.22769e-07
5.62679e-08
3.06143e-07
-9.76418e-08
6.53305e-07
-4.02563e-07
1.15613e-06
-7.1571e-07
1.75725e-06
-9.5914e-07
2.3946e-06
-1.11085e-06
3.02563e-06
-1.17748e-06
3.61962e-06
-1.17473e-06
4.16816e-06
-1.13348e-06
4.67101e-06
-1.07046e-06
5.12889e-06
-9.94112e-07
5.54394e-06
-9.11449e-07
5.91853e-06
-8.2639e-07
6.25445e-06
-7.40401e-07
6.5526e-06
-6.53392e-07
6.81286e-06
-5.64427e-07
7.03436e-06
-4.72372e-07
7.21575e-06
-3.76162e-07
7.35577e-06
-2.75251e-07
7.45388e-06
-1.69523e-07
7.51237e-06
-6.0135e-08
7.51931e-06
6.13717e-08
7.47295e-06
1.94542e-07
7.37116e-06
3.31353e-07
7.20945e-06
4.74429e-07
6.98265e-06
6.23209e-07
6.68526e-06
7.76249e-07
6.31287e-06
9.28326e-07
5.86256e-06
1.07455e-06
5.33503e-06
1.20403e-06
4.74221e-06
1.30992e-06
4.10219e-06
1.37695e-06
3.47072e-06
1.40214e-06
2.81801e-06
1.37201e-06
2.09419e-06
1.26231e-06
1.42494e-06
1.1252e-06
8.74409e-07
9.31849e-07
4.76078e-07
6.68568e-07
2.28054e-07
3.63683e-07
1.2911e-07
4.84791e-08
2.13781e-07
-2.90117e-07
4.37173e-07
-5.71035e-07
7.52959e-07
-8.14954e-07
1.17855e-06
-1.09606e-06
1.65058e-06
-1.20805e-06
1.93361e-06
-9.38975e-07
2.05356e-06
-5.55368e-07
2.08245e-06
-1.55502e-07
2.01642e-06
1.08117e-07
1.79973e-06
2.06261e-07
1.17923e-06
5.17826e-07
-3.61016e-09
1.05797e-06
-1.46054e-06
1.49709e-06
-2.95433e-06
1.95991e-06
-4.38638e-06
2.31767e-06
-5.65553e-06
2.46403e-06
-6.6651e-06
2.4221e-06
-7.49049e-06
2.22602e-06
-8.21773e-06
1.96059e-06
-8.86272e-06
1.70117e-06
-9.42607e-06
1.46982e-06
-9.92092e-06
1.27451e-06
-1.03589e-05
1.11492e-06
-1.07493e-05
9.84423e-07
-1.10992e-05
8.76427e-07
-1.14131e-05
7.83909e-07
-1.16932e-05
7.00856e-07
-1.194e-05
6.22218e-07
-1.21525e-05
5.43996e-07
-1.23289e-05
4.631e-07
-1.24663e-05
3.77425e-07
-1.2562e-05
2.85783e-07
-1.26125e-05
1.87338e-07
-1.26145e-05
8.17611e-08
-1.2565e-05
-2.89495e-08
-1.24633e-05
-1.40314e-07
-1.23062e-05
-2.55361e-07
-1.20923e-05
-3.70924e-07
-1.18225e-05
-4.84503e-07
-1.14989e-05
-5.93784e-07
-1.11248e-05
-6.96911e-07
-1.07042e-05
-7.92392e-07
-1.02415e-05
-8.79177e-07
-9.74138e-06
-9.56707e-07
-9.20861e-06
-1.02491e-06
-8.64766e-06
-1.08415e-06
-8.06269e-06
-1.13512e-06
-7.45731e-06
-1.17883e-06
-6.83454e-06
-1.21644e-06
-6.1968e-06
-1.24916e-06
-5.54591e-06
-1.27811e-06
-4.88318e-06
-1.30423e-06
-4.20984e-06
-1.32768e-06
-3.52765e-06
-1.34728e-06
-2.83966e-06
-1.36057e-06
-2.15021e-06
-1.36473e-06
-1.46536e-06
-1.35635e-06
-7.92759e-07
-1.33249e-06
-1.39788e-07
-1.29069e-06
4.84968e-07
-1.23069e-06
1.07401e-06
-1.15338e-06
1.62096e-06
-1.06383e-06
2.1212e-06
-9.66504e-07
2.5725e-06
-8.65744e-07
2.97477e-06
-7.65358e-07
3.32963e-06
-6.68338e-07
3.63969e-06
-5.76684e-07
3.90812e-06
-4.91488e-07
4.13834e-06
-4.13124e-07
4.33336e-06
-3.41248e-07
4.49569e-06
-2.75206e-07
4.62804e-06
-2.14729e-07
4.73241e-06
-1.59096e-07
4.80997e-06
-1.06893e-07
4.8656e-06
-5.88696e-08
4.90563e-06
-1.73796e-08
4.93206e-06
2.19188e-08
4.93541e-06
7.02719e-08
4.90393e-06
1.3258e-07
4.84336e-06
1.89784e-07
4.77477e-06
2.22795e-07
4.70188e-06
2.46796e-07
4.6012e-06
2.86845e-07
4.45043e-06
3.39019e-07
4.24767e-06
3.89418e-07
4.01121e-06
4.27394e-07
3.77165e-06
4.34861e-07
3.54875e-06
4.14615e-07
3.34668e-06
3.81095e-07
3.17531e-06
3.22378e-07
3.01547e-06
2.78576e-07
2.82325e-06
2.99165e-07
2.64212e-06
2.37265e-07
2.65179e-06
-1.56702e-07
2.96709e-06
-7.36008e-07
3.41607e-06
-9.27365e-07
3.67255e-06
-5.24292e-07
3.50051e-06
1.64812e-07
2.86093e-06
8.78659e-07
1.90073e-06
1.47899e-06
8.58456e-07
1.81299e-06
-1.10258e-07
1.85895e-06
-9.73115e-07
1.74915e-06
-1.75496e-06
1.61939e-06
-2.46377e-06
1.4846e-06
-3.0979e-06
1.33881e-06
-3.64766e-06
1.17042e-06
-4.09803e-06
9.69534e-07
-4.43126e-06
7.30161e-07
-4.62922e-06
4.50484e-07
-4.67251e-06
1.34064e-07
-4.5515e-06
-2.03489e-07
-4.25436e-06
-5.5857e-07
-3.78225e-06
-9.09586e-07
-3.14901e-06
-1.23416e-06
-2.37964e-06
-1.5093e-06
-1.50952e-06
-1.71275e-06
-5.80542e-07
-1.82741e-06
3.63497e-07
-1.84516e-06
1.28061e-06
-1.77434e-06
2.13753e-06
-1.63951e-06
2.91365e-06
-1.46937e-06
3.60265e-06
-1.29134e-06
4.2091e-06
-1.1266e-06
4.74489e-06
-9.89011e-07
5.22541e-06
-8.83867e-07
5.6654e-06
-8.08541e-07
6.07891e-06
-7.59082e-07
6.4755e-06
-7.26204e-07
6.85142e-06
-6.89707e-07
7.20531e-06
-6.46666e-07
7.55369e-06
-6.086e-07
7.86646e-06
-5.18469e-07
8.06799e-06
-3.25848e-07
8.19567e-06
-1.01084e-07
8.2823e-06
2.4398e-07
8.04662e-06
9.84912e-07
7.18616e-06
1.84884e-06
5.86266e-06
2.27219e-06
1.96107e-06
4.601e-06
1.50182e-07
-9.39143e-08
6.59822e-07
-6.07282e-07
1.39034e-06
-1.13308e-06
2.16717e-06
-1.49254e-06
2.88379e-06
-1.67575e-06
3.49755e-06
-1.72461e-06
4.00464e-06
-1.68458e-06
4.42396e-06
-1.59405e-06
4.77168e-06
-1.4812e-06
5.06457e-06
-1.36335e-06
5.31978e-06
-1.24933e-06
5.55045e-06
-1.14212e-06
5.76513e-06
-1.04107e-06
5.96832e-06
-9.4359e-07
6.16128e-06
-8.46351e-07
6.34288e-06
-7.46028e-07
6.51036e-06
-6.39849e-07
6.65999e-06
-5.25796e-07
6.78748e-06
-4.02741e-07
6.88846e-06
-2.70501e-07
6.95889e-06
-1.30559e-07
7.00594e-06
1.43153e-08
7.02838e-06
1.72109e-07
7.02419e-06
3.35536e-07
6.9915e-06
5.07126e-07
6.92643e-06
6.88274e-07
6.82308e-06
8.79597e-07
6.6734e-06
1.07801e-06
6.47006e-06
1.27789e-06
6.20635e-06
1.46774e-06
5.88222e-06
1.63405e-06
5.49989e-06
1.75928e-06
5.07408e-06
1.82796e-06
4.61767e-06
1.82842e-06
4.13176e-06
1.74822e-06
3.67197e-06
1.58498e-06
3.25032e-06
1.3535e-06
2.87916e-06
1.03972e-06
2.5805e-06
6.62342e-07
2.36596e-06
2.63017e-07
2.27677e-06
-2.0092e-07
2.29614e-06
-5.90405e-07
2.46217e-06
-9.80985e-07
2.67879e-06
-1.31269e-06
2.79702e-06
-1.32628e-06
2.63322e-06
-7.75177e-07
2.11568e-06
-3.78237e-08
1.41562e-06
5.44558e-07
4.10634e-07
1.1131e-06
-9.94088e-07
1.61098e-06
-2.50764e-06
2.03138e-06
-3.94226e-06
2.49259e-06
-5.32598e-06
2.88081e-06
-6.49772e-06
3.13166e-06
-7.3824e-06
3.20235e-06
-8.02148e-06
3.10312e-06
-8.48241e-06
2.88303e-06
-8.85471e-06
2.59832e-06
-9.1988e-06
2.30467e-06
-9.53154e-06
2.03391e-06
-9.85714e-06
1.79542e-06
-1.01758e-05
1.59311e-06
-1.04846e-05
1.42377e-06
-1.07813e-05
1.28114e-06
-1.10634e-05
1.15847e-06
-1.13282e-05
1.04878e-06
-1.15733e-05
9.4591e-07
-1.17954e-05
8.44317e-07
-1.19908e-05
7.3938e-07
-1.21552e-05
6.27573e-07
-1.22843e-05
5.06459e-07
-1.23732e-05
3.74733e-07
-1.24178e-05
2.31905e-07
-1.24129e-05
7.68682e-08
-1.23583e-05
-8.35771e-08
-1.22494e-05
-2.4913e-07
-1.20856e-05
-4.19198e-07
-1.18672e-05
-5.89324e-07
-1.15956e-05
-7.56078e-07
-1.12733e-05
-9.16071e-07
-1.09038e-05
-1.06648e-06
-1.04911e-05
-1.2051e-06
-1.00398e-05
-1.33042e-06
-9.55477e-06
-1.44177e-06
-9.04044e-06
-1.53924e-06
-8.50106e-06
-1.62353e-06
-7.94026e-06
-1.69592e-06
-7.36101e-06
-1.75808e-06
-6.76551e-06
-1.81194e-06
-6.15523e-06
-1.85944e-06
-5.53101e-06
-1.90233e-06
-4.89319e-06
-1.94205e-06
-4.24176e-06
-1.97911e-06
-3.57708e-06
-2.01196e-06
-2.90089e-06
-2.03676e-06
-2.21694e-06
-2.04868e-06
-1.53161e-06
-2.04167e-06
-8.53673e-07
-2.01043e-06
-1.92736e-07
-1.95163e-06
4.41267e-07
-1.86469e-06
1.03983e-06
-1.75194e-06
1.59556e-06
-1.61956e-06
2.10339e-06
-1.47433e-06
2.56067e-06
-1.32302e-06
2.96701e-06
-1.1717e-06
3.32404e-06
-1.02537e-06
3.63491e-06
-8.87557e-07
3.90381e-06
-7.6038e-07
4.1355e-06
-6.4482e-07
4.33479e-06
-5.40541e-07
4.50538e-06
-4.45791e-07
4.6495e-06
-3.58847e-07
4.769e-06
-2.786e-07
4.86508e-06
-2.02972e-07
4.93717e-06
-1.30959e-07
4.98768e-06
-6.78888e-08
5.02942e-06
-1.98198e-08
5.07404e-06
2.56509e-08
5.10582e-06
1.00794e-07
5.09338e-06
2.02227e-07
5.04408e-06
2.72096e-07
5.00529e-06
2.85587e-07
4.98895e-06
3.03179e-07
4.95027e-06
3.77699e-07
4.86173e-06
4.77966e-07
4.74801e-06
5.41113e-07
4.62055e-06
5.62317e-07
4.43445e-06
6.00713e-07
4.17193e-06
6.43615e-07
3.90968e-06
5.84632e-07
3.72286e-06
4.65392e-07
3.57071e-06
4.51313e-07
3.40207e-06
4.05908e-07
3.31274e-06
-6.73671e-08
3.41736e-06
-8.40633e-07
3.58893e-06
-1.09894e-06
3.53059e-06
-4.65952e-07
3.04628e-06
6.49121e-07
2.18609e-06
1.73885e-06
1.1982e-06
2.46688e-06
2.96445e-07
2.71474e-06
-4.85531e-07
2.64092e-06
-1.21932e-06
2.48294e-06
-1.92539e-06
2.32546e-06
-2.59933e-06
2.15853e-06
-3.22404e-06
1.96352e-06
-3.77925e-06
1.72564e-06
-4.24348e-06
1.43377e-06
-4.59361e-06
1.08029e-06
-4.80647e-06
6.63343e-07
-4.86168e-06
1.89274e-07
-4.74454e-06
-3.20633e-07
-4.44924e-06
-8.53863e-07
-3.97722e-06
-1.38161e-06
-3.34098e-06
-1.87039e-06
-2.56491e-06
-2.28537e-06
-1.68448e-06
-2.59318e-06
-7.44259e-07
-2.76763e-06
2.09129e-07
-2.79855e-06
1.13254e-06
-2.69775e-06
1.99207e-06
-2.49905e-06
2.76823e-06
-2.24553e-06
3.4568e-06
-1.9799e-06
4.06482e-06
-1.73462e-06
4.60498e-06
-1.52917e-06
5.09329e-06
-1.37218e-06
5.54446e-06
-1.25971e-06
5.96857e-06
-1.18319e-06
6.37986e-06
-1.13749e-06
6.78859e-06
-1.09844e-06
7.17367e-06
-1.03174e-06
7.52817e-06
-9.63098e-07
7.90091e-06
-8.91207e-07
8.24772e-06
-6.72665e-07
8.44186e-06
-2.95224e-07
8.62448e-06
6.136e-08
8.90371e-06
7.05681e-07
8.83536e-06
1.9172e-06
7.93065e-06
3.17689e-06
3.4033e-06
6.48843e-06
4.45657e-07
-5.39571e-07
1.28815e-06
-1.44977e-06
2.13178e-06
-1.97672e-06
2.8019e-06
-2.16266e-06
3.26552e-06
-2.13938e-06
3.55164e-06
-2.01073e-06
3.71568e-06
-1.84862e-06
3.81526e-06
-1.69362e-06
3.89176e-06
-1.5577e-06
3.97113e-06
-1.44272e-06
4.0685e-06
-1.34669e-06
4.18936e-06
-1.26298e-06
4.33236e-06
-1.18407e-06
4.49179e-06
-1.10302e-06
4.6595e-06
-1.01406e-06
4.82641e-06
-9.12939e-07
4.9836e-06
-7.97038e-07
5.12345e-06
-6.65645e-07
5.24022e-06
-5.19518e-07
5.33091e-06
-3.61189e-07
5.39363e-06
-1.93273e-07
5.42498e-06
-1.70399e-08
5.45083e-06
1.46261e-07
5.47307e-06
3.13295e-07
5.49755e-06
4.82644e-07
5.52766e-06
6.58169e-07
5.56153e-06
8.45725e-07
5.59055e-06
1.04899e-06
5.60231e-06
1.26613e-06
5.58134e-06
1.48871e-06
5.51506e-06
1.70033e-06
5.39365e-06
1.88068e-06
5.21513e-06
2.00647e-06
4.98539e-06
2.05817e-06
4.71191e-06
2.0217e-06
4.41267e-06
1.88422e-06
4.09551e-06
1.67066e-06
3.78835e-06
1.34689e-06
3.48599e-06
9.64702e-07
3.25959e-06
4.89417e-07
3.02675e-06
3.19178e-08
2.8631e-06
-4.26757e-07
2.8848e-06
-1.00268e-06
2.72238e-06
-1.15026e-06
1.99475e-06
-5.98657e-07
9.18883e-07
3.00693e-07
-3.51635e-07
1.23269e-06
-1.68714e-06
1.88006e-06
-2.9672e-06
2.39316e-06
-4.2234e-06
2.86718e-06
-5.46475e-06
3.27273e-06
-6.54972e-06
3.57756e-06
-7.40199e-06
3.73308e-06
-7.9978e-06
3.72747e-06
-8.3775e-06
3.58204e-06
-8.62134e-06
3.34696e-06
-8.80397e-06
3.06567e-06
-8.97509e-06
2.76943e-06
-9.15455e-06
2.48414e-06
-9.34521e-06
2.22458e-06
-9.54733e-06
1.99754e-06
-9.75893e-06
1.80471e-06
-9.97707e-06
1.64192e-06
-1.01986e-05
1.50268e-06
-1.042e-05
1.37987e-06
-1.06376e-05
1.26631e-06
-1.0847e-05
1.15531e-06
-1.10433e-05
1.04066e-06
-1.12211e-05
9.17217e-07
-1.13747e-05
7.81185e-07
-1.14981e-05
6.29837e-07
-1.15848e-05
4.61398e-07
-1.1629e-05
2.76156e-07
-1.16288e-05
7.65859e-08
-1.15773e-05
-1.34997e-07
-1.14697e-05
-3.56788e-07
-1.13066e-05
-5.82264e-07
-1.1089e-05
-8.06956e-07
-1.08189e-05
-1.02619e-06
-1.04996e-05
-1.23537e-06
-1.01356e-05
-1.43042e-06
-9.73258e-06
-1.60815e-06
-9.29642e-06
-1.76658e-06
-8.83316e-06
-1.90504e-06
-8.34838e-06
-2.02401e-06
-7.84692e-06
-2.125e-06
-7.3325e-06
-2.21034e-06
-6.80757e-06
-2.28301e-06
-6.2731e-06
-2.34641e-06
-5.72866e-06
-2.40387e-06
-5.1727e-06
-2.4583e-06
-4.60273e-06
-2.51202e-06
-4.01573e-06
-2.5661e-06
-3.40867e-06
-2.61902e-06
-2.78021e-06
-2.66522e-06
-2.13186e-06
-2.69702e-06
-1.47002e-06
-2.70352e-06
-8.04137e-07
-2.67631e-06
-1.48967e-07
-2.6068e-06
4.84622e-07
-2.49828e-06
1.08222e-06
-2.34954e-06
1.63605e-06
-2.17339e-06
2.14187e-06
-1.98015e-06
2.59827e-06
-1.77942e-06
3.00545e-06
-1.57888e-06
3.36444e-06
-1.38436e-06
3.67695e-06
-1.20006e-06
3.94533e-06
-1.02877e-06
4.17288e-06
-8.72363e-07
4.36461e-06
-7.32269e-07
4.52705e-06
-6.08232e-07
4.66545e-06
-4.97248e-07
4.78211e-06
-3.95266e-07
4.87847e-06
-2.9933e-07
4.95509e-06
-2.07573e-07
5.0091e-06
-1.21906e-07
5.04121e-06
-5.1924e-08
5.06793e-06