/*--------------------------------*- C++ -*----------------------------------*\
| =========                 |                                                 |
| \\      /  F ield         | OpenFOAM: The Open Source CFD Toolbox           |
|  \\    /   O peration     | Version:  2112                                  |
|   \\  /    A nd           | Website:  www.openfoam.com                      |
|    \\/     M anipulation  |                                                 |
\*---------------------------------------------------------------------------*/
FoamFile
{
    version     2.0;
    format      ascii;
    arch        "LSB;label=32;scalar=64";
    class       volScalarField;
    location    "0.1";
    object      pPrime2Mean;
}
// * * * * * * * * * * * * * * * * * * * * * * * * * * * * * * * * * * * * * //

dimensions      [0 4 -4 0 0 0 0];

internalField   nonuniform List<scalar> 
12225
(
4.35224e+06
4.28421e+06
4.21398e+06
4.14587e+06
4.08017e+06
4.01679e+06
3.95562e+06
3.89651e+06
3.8393e+06
3.7838e+06
3.7298e+06
3.67705e+06
3.62525e+06
3.57401e+06
3.52278e+06
3.47072e+06
3.41632e+06
3.35573e+06
4.35233e+06
4.28427e+06
4.21403e+06
4.14592e+06
4.08022e+06
4.01684e+06
3.95568e+06
3.89658e+06
3.83938e+06
3.7839e+06
3.72993e+06
3.67721e+06
3.62547e+06
3.57431e+06
3.52322e+06
3.47144e+06
3.41769e+06
3.35915e+06
4.35249e+06
4.28441e+06
4.21415e+06
4.14603e+06
4.08033e+06
4.01696e+06
3.95581e+06
3.89673e+06
3.83956e+06
3.78412e+06
3.7302e+06
3.67757e+06
3.62594e+06
3.57496e+06
3.52418e+06
3.47297e+06
3.42042e+06
3.36547e+06
4.35278e+06
4.28463e+06
4.21434e+06
4.1462e+06
4.08051e+06
4.01715e+06
3.95602e+06
3.89698e+06
3.83986e+06
3.78449e+06
3.73066e+06
3.67815e+06
3.62671e+06
3.57602e+06
3.52571e+06
3.47533e+06
3.42442e+06
3.37304e+06
4.35327e+06
4.28496e+06
4.21462e+06
4.14647e+06
4.08077e+06
4.01743e+06
3.95634e+06
3.89734e+06
3.84029e+06
3.78502e+06
3.73132e+06
3.679e+06
3.62783e+06
3.57753e+06
3.52785e+06
3.47851e+06
3.42942e+06
3.38121e+06
4.35378e+06
4.2854e+06
4.215e+06
4.14683e+06
4.08113e+06
4.01782e+06
3.95677e+06
3.89784e+06
3.84089e+06
3.78575e+06
3.73223e+06
3.68015e+06
3.62932e+06
3.57954e+06
3.53061e+06
3.48245e+06
3.4352e+06
3.38966e+06
4.35448e+06
4.28598e+06
4.2155e+06
4.1473e+06
4.08161e+06
4.01833e+06
3.95734e+06
3.8985e+06
3.84168e+06
3.7867e+06
3.73341e+06
3.68164e+06
3.63123e+06
3.58205e+06
3.53398e+06
3.48707e+06
3.44158e+06
3.39826e+06
4.35537e+06
4.28671e+06
4.21614e+06
4.14791e+06
4.08223e+06
4.01899e+06
3.95807e+06
3.89935e+06
3.84267e+06
3.7879e+06
3.73489e+06
3.68349e+06
3.63358e+06
3.58507e+06
3.53793e+06
3.49227e+06
3.4484e+06
3.40693e+06
4.35641e+06
4.28761e+06
4.21694e+06
4.14867e+06
4.08299e+06
4.01981e+06
3.95898e+06
3.90039e+06
3.8439e+06
3.78938e+06
3.73669e+06
3.68572e+06
3.63637e+06
3.5886e+06
3.54243e+06
3.49799e+06
3.45557e+06
3.41564e+06
4.35775e+06
4.28871e+06
4.21792e+06
4.14959e+06
4.08393e+06
4.02081e+06
3.96009e+06
3.90167e+06
3.8454e+06
3.79116e+06
3.73884e+06
3.68835e+06
3.63962e+06
3.59262e+06
3.54741e+06
3.50413e+06
3.46301e+06
3.42438e+06
4.35927e+06
4.29001e+06
4.21909e+06
4.15071e+06
4.08506e+06
4.02201e+06
3.96143e+06
3.90319e+06
3.84717e+06
3.79326e+06
3.74136e+06
3.69139e+06
3.6433e+06
3.5971e+06
3.55283e+06
3.51062e+06
3.47065e+06
3.43313e+06
4.36088e+06
4.29142e+06
4.22036e+06
4.15193e+06
4.08629e+06
4.02332e+06
3.96287e+06
3.90483e+06
3.84907e+06
3.7955e+06
3.74401e+06
3.69455e+06
3.64707e+06
3.60159e+06
3.55815e+06
3.51684e+06
3.4778e+06
3.44115e+06
4.36262e+06
4.29301e+06
4.2218e+06
4.1533e+06
4.08768e+06
4.02479e+06
3.9645e+06
3.90667e+06
3.85119e+06
3.79797e+06
3.74692e+06
3.69798e+06
3.65111e+06
3.60633e+06
3.56367e+06
3.5232e+06
3.48498e+06
3.44909e+06
4.36518e+06
4.29512e+06
4.22368e+06
4.15509e+06
4.0895e+06
4.02672e+06
3.96662e+06
3.90906e+06
3.85393e+06
3.80113e+06
3.75059e+06
3.70226e+06
3.65609e+06
3.61208e+06
3.57025e+06
3.53063e+06
3.49325e+06
3.45812e+06
4.3687e+06
4.29787e+06
4.22611e+06
4.15742e+06
4.09186e+06
4.02922e+06
3.96936e+06
3.91213e+06
3.85741e+06
3.80513e+06
3.75518e+06
3.70753e+06
3.66212e+06
3.61893e+06
3.57796e+06
3.5392e+06
3.50264e+06
3.46825e+06
4.37256e+06
4.30123e+06
4.22917e+06
4.16038e+06
4.09487e+06
4.03242e+06
3.97285e+06
3.91601e+06
3.86179e+06
3.81008e+06
3.7608e+06
3.71389e+06
3.66928e+06
3.62694e+06
3.58683e+06
3.54891e+06
3.51314e+06
3.47945e+06
4.37698e+06
4.30521e+06
4.23289e+06
4.16403e+06
4.09862e+06
4.0364e+06
3.97718e+06
3.9208e+06
3.86713e+06
3.81607e+06
3.76751e+06
3.72137e+06
3.67758e+06
3.63608e+06
3.5968e+06
3.55967e+06
3.52463e+06
3.4916e+06
4.38231e+06
4.30981e+06
4.23721e+06
4.16833e+06
4.10308e+06
4.04116e+06
3.98236e+06
3.9265e+06
3.87344e+06
3.82305e+06
3.77523e+06
3.72986e+06
3.68687e+06
3.64616e+06
3.60765e+06
3.57126e+06
3.53688e+06
3.50444e+06
4.38728e+06
4.31434e+06
4.24169e+06
4.17297e+06
4.10801e+06
4.04649e+06
3.98818e+06
3.9329e+06
3.88048e+06
3.83078e+06
3.78367e+06
3.73905e+06
3.6968e+06
3.65681e+06
3.61899e+06
3.58323e+06
3.54944e+06
3.51751e+06
4.38894e+06
4.31685e+06
4.24467e+06
4.17636e+06
4.1118e+06
4.05071e+06
3.99285e+06
3.93804e+06
3.88612e+06
3.83693e+06
3.79035e+06
3.74625e+06
3.7045e+06
3.665e+06
3.62763e+06
3.5923e+06
3.55888e+06
3.52729e+06
4.38943e+06
4.31794e+06
4.24629e+06
4.17839e+06
4.11421e+06
4.05346e+06
3.99594e+06
3.94147e+06
3.88988e+06
3.84103e+06
3.79478e+06
3.751e+06
3.70957e+06
3.67037e+06
3.63328e+06
3.59819e+06
3.565e+06
3.53361e+06
4.38889e+06
4.3183e+06
4.2472e+06
4.17971e+06
4.11586e+06
4.0554e+06
3.99815e+06
3.94394e+06
3.8926e+06
3.84399e+06
3.79798e+06
3.75443e+06
3.71321e+06
3.67421e+06
3.6373e+06
3.60239e+06
3.56935e+06
3.53809e+06
4.38838e+06
4.31834e+06
4.2477e+06
4.18055e+06
4.11698e+06
4.05676e+06
3.99972e+06
3.94569e+06
3.89454e+06
3.84611e+06
3.80026e+06
3.75686e+06
3.71579e+06
3.67693e+06
3.64015e+06
3.60536e+06
3.57242e+06
3.54125e+06
4.38778e+06
4.31821e+06
4.24795e+06
4.18109e+06
4.11773e+06
4.05769e+06
4.0008e+06
3.94692e+06
3.8959e+06
3.84759e+06
3.80186e+06
3.75857e+06
3.7176e+06
3.67884e+06
3.64215e+06
3.60743e+06
3.57456e+06
3.54346e+06
4.38694e+06
4.31799e+06
4.24806e+06
4.18142e+06
4.11823e+06
4.05832e+06
4.00154e+06
3.94776e+06
3.89683e+06
3.84861e+06
3.80295e+06
3.75974e+06
3.71885e+06
3.68015e+06
3.64352e+06
3.60885e+06
3.57603e+06
3.54497e+06
4.38631e+06
4.31777e+06
4.2481e+06
4.18162e+06
4.11855e+06
4.05873e+06
4.00204e+06
3.94833e+06
3.89746e+06
3.84929e+06
3.80369e+06
3.76053e+06
3.71968e+06
3.68102e+06
3.64443e+06
3.6098e+06
3.57702e+06
3.54598e+06
4.38594e+06
4.31762e+06
4.24811e+06
4.18175e+06
4.11875e+06
4.059e+06
4.00236e+06
3.94869e+06
3.89786e+06
3.84973e+06
3.80417e+06
3.76104e+06
3.72022e+06
3.68159e+06
3.64502e+06
3.61041e+06
3.57765e+06
3.54663e+06
4.38569e+06
4.31751e+06
4.24811e+06
4.18182e+06
4.11888e+06
4.05916e+06
4.00255e+06
3.94891e+06
3.8981e+06
3.85e+06
3.80446e+06
3.76135e+06
3.72055e+06
3.68193e+06
3.64538e+06
3.61078e+06
3.57803e+06
3.54702e+06
4.38546e+06
4.31744e+06
4.24811e+06
4.18186e+06
4.11894e+06
4.05925e+06
4.00265e+06
3.94903e+06
3.89823e+06
3.85014e+06
3.80461e+06
3.76151e+06
3.72072e+06
3.68211e+06
3.64557e+06
3.61098e+06
3.57824e+06
3.54723e+06
4.38537e+06
4.31741e+06
4.24811e+06
4.18187e+06
4.11897e+06
4.05928e+06
4.00269e+06
3.94907e+06
3.89829e+06
3.8502e+06
3.80467e+06
3.76158e+06
3.72079e+06
3.68219e+06
3.64565e+06
3.61107e+06
3.57832e+06
3.54732e+06
2.83654e+06
2.83632e+06
2.83586e+06
2.83517e+06
2.83424e+06
2.83307e+06
2.83166e+06
2.82999e+06
2.82808e+06
2.82591e+06
2.82348e+06
2.82079e+06
2.81783e+06
2.81461e+06
2.81111e+06
2.80735e+06
2.80331e+06
2.799e+06
2.79441e+06
2.78955e+06
2.78443e+06
2.77903e+06
2.77337e+06
2.76744e+06
2.76125e+06
2.7548e+06
2.7481e+06
2.74114e+06
2.73392e+06
2.72646e+06
2.71875e+06
2.7108e+06
2.7026e+06
2.69417e+06
2.6855e+06
2.6766e+06
2.66748e+06
2.65813e+06
2.64857e+06
2.6388e+06
2.62882e+06
2.61863e+06
2.60823e+06
2.59763e+06
2.58683e+06
2.57583e+06
2.56464e+06
2.55325e+06
2.54168e+06
2.52993e+06
2.518e+06
2.50589e+06
2.4936e+06
2.48116e+06
2.46854e+06
2.45577e+06
2.44284e+06
2.42976e+06
2.41653e+06
2.40316e+06
2.38966e+06
2.37602e+06
2.36225e+06
2.34835e+06
2.33431e+06
2.32013e+06
2.30582e+06
2.29137e+06
2.2768e+06
2.2621e+06
2.24729e+06
2.23235e+06
2.21729e+06
2.20212e+06
2.18684e+06
2.17145e+06
2.15594e+06
2.14032e+06
2.1246e+06
2.10877e+06
2.09284e+06
2.07681e+06
2.06069e+06
2.04447e+06
2.02817e+06
2.01178e+06
1.9953e+06
1.97875e+06
1.96213e+06
1.94543e+06
1.92866e+06
1.91184e+06
1.89495e+06
1.87799e+06
1.86098e+06
1.8439e+06
1.82675e+06
1.80953e+06
1.79223e+06
1.77485e+06
1.75739e+06
1.73985e+06
1.72224e+06
1.70455e+06
1.6868e+06
1.669e+06
1.65114e+06
1.63324e+06
1.6153e+06
1.59733e+06
1.57932e+06
1.56128e+06
1.54321e+06
1.52511e+06
1.50699e+06
1.48884e+06
1.47067e+06
1.45246e+06
1.43423e+06
1.41597e+06
1.39769e+06
1.37937e+06
1.36104e+06
1.34268e+06
1.32431e+06
1.30592e+06
1.28752e+06
1.26911e+06
1.25069e+06
1.23227e+06
1.21384e+06
1.1954e+06
1.17697e+06
1.15854e+06
1.14011e+06
1.12169e+06
1.10327e+06
1.08486e+06
1.06647e+06
1.04808e+06
1.02971e+06
1.01136e+06
993024
974710
956423
938165
919942
901760
883622
865531
847492
829508
811581
793714
775910
758173
740508
722917
705404
687970
670621
653364
636203
619141
602182
585334
568601
551989
535501
519145
502928
486859
470946
455198
439627
424247
409081
394159
379533
365321
2.83758e+06
2.83735e+06
2.83689e+06
2.8362e+06
2.83527e+06
2.83409e+06
2.83267e+06
2.831e+06
2.82907e+06
2.82689e+06
2.82445e+06
2.82174e+06
2.81877e+06
2.81553e+06
2.81202e+06
2.80823e+06
2.80418e+06
2.79985e+06
2.79524e+06
2.79036e+06
2.78522e+06
2.7798e+06
2.77411e+06
2.76816e+06
2.76195e+06
2.75547e+06
2.74875e+06
2.74176e+06
2.73453e+06
2.72705e+06
2.71932e+06
2.71135e+06
2.70313e+06
2.69468e+06
2.686e+06
2.67708e+06
2.66794e+06
2.65858e+06
2.64901e+06
2.63922e+06
2.62922e+06
2.61902e+06
2.6086e+06
2.59799e+06
2.58717e+06
2.57615e+06
2.56494e+06
2.55354e+06
2.54195e+06
2.53019e+06
2.51824e+06
2.50612e+06
2.49383e+06
2.48137e+06
2.46875e+06
2.45596e+06
2.44302e+06
2.42994e+06
2.4167e+06
2.40333e+06
2.38983e+06
2.37619e+06
2.36241e+06
2.3485e+06
2.33445e+06
2.32026e+06
2.30594e+06
2.2915e+06
2.27692e+06
2.26222e+06
2.2474e+06
2.23246e+06
2.2174e+06
2.20223e+06
2.18694e+06
2.17154e+06
2.15603e+06
2.14041e+06
2.12469e+06
2.10885e+06
2.09292e+06
2.07688e+06
2.06075e+06
2.04453e+06
2.02822e+06
2.01182e+06
1.99535e+06
1.9788e+06
1.96217e+06
1.94548e+06
1.92871e+06
1.91188e+06
1.89499e+06
1.87804e+06
1.86103e+06
1.84395e+06
1.8268e+06
1.80957e+06
1.79227e+06
1.77489e+06
1.75743e+06
1.73989e+06
1.72227e+06
1.70459e+06
1.68683e+06
1.66902e+06
1.65116e+06
1.63326e+06
1.61532e+06
1.59734e+06
1.57933e+06
1.56129e+06
1.54322e+06
1.52513e+06
1.507e+06
1.48886e+06
1.47068e+06
1.45248e+06
1.43424e+06
1.41598e+06
1.3977e+06
1.37938e+06
1.36105e+06
1.34269e+06
1.32431e+06
1.30593e+06
1.28753e+06
1.26911e+06
1.2507e+06
1.23227e+06
1.21384e+06
1.19541e+06
1.17698e+06
1.15854e+06
1.14011e+06
1.12169e+06
1.10327e+06
1.08487e+06
1.06647e+06
1.04809e+06
1.02972e+06
1.01136e+06
993028
974714
956426
938168
919945
901762
883623
865533
847494
829509
811582
793715
775911
758174
740508
722917
705403
687968
670619
653363
636202
619140
602181
585333
568600
551988
535500
519144
502927
486857
470942
455193
439619
424236
409064
394132
379484
365203
2.83963e+06
2.8394e+06
2.83894e+06
2.83824e+06
2.83731e+06
2.83612e+06
2.83469e+06
2.833e+06
2.83106e+06
2.82885e+06
2.82638e+06
2.82365e+06
2.82065e+06
2.81737e+06
2.81383e+06
2.81001e+06
2.80591e+06
2.80154e+06
2.7969e+06
2.79198e+06
2.78678e+06
2.78132e+06
2.77559e+06
2.76959e+06
2.76333e+06
2.75681e+06
2.75004e+06
2.74301e+06
2.73573e+06
2.7282e+06
2.72043e+06
2.71242e+06
2.70416e+06
2.69568e+06
2.68696e+06
2.67801e+06
2.66884e+06
2.65945e+06
2.64985e+06
2.64003e+06
2.63e+06
2.61977e+06
2.60932e+06
2.59867e+06
2.58782e+06
2.57678e+06
2.56553e+06
2.5541e+06
2.54249e+06
2.5307e+06
2.51873e+06
2.50658e+06
2.49427e+06
2.48179e+06
2.46915e+06
2.45635e+06
2.4434e+06
2.4303e+06
2.41705e+06
2.40367e+06
2.39015e+06
2.37649e+06
2.36269e+06
2.34876e+06
2.3347e+06
2.32051e+06
2.30618e+06
2.29172e+06
2.27714e+06
2.26243e+06
2.24761e+06
2.23266e+06
2.21759e+06
2.20241e+06
2.18712e+06
2.17171e+06
2.15619e+06
2.14056e+06
2.12483e+06
2.10899e+06
2.09304e+06
2.077e+06
2.06086e+06
2.04463e+06
2.02831e+06
2.01191e+06
1.99543e+06
1.97888e+06
1.96225e+06
1.94555e+06
1.92879e+06
1.91196e+06
1.89507e+06
1.87812e+06
1.86111e+06
1.84402e+06
1.82687e+06
1.80965e+06
1.79235e+06
1.77497e+06
1.7575e+06
1.73996e+06
1.72234e+06
1.70465e+06
1.68689e+06
1.66907e+06
1.65121e+06
1.6333e+06
1.61536e+06
1.59737e+06
1.57936e+06
1.56132e+06
1.54325e+06
1.52515e+06
1.50703e+06
1.48888e+06
1.4707e+06
1.4525e+06
1.43426e+06
1.416e+06
1.39771e+06
1.3794e+06
1.36106e+06
1.3427e+06
1.32433e+06
1.30594e+06
1.28754e+06
1.26912e+06
1.25071e+06
1.23228e+06
1.21385e+06
1.19542e+06
1.17699e+06
1.15855e+06
1.14012e+06
1.1217e+06
1.10328e+06
1.08488e+06
1.06648e+06
1.0481e+06
1.02973e+06
1.01137e+06
993036
974721
956432
938173
919949
901766
883626
865535
847495
829511
811584
793717
775913
758176
740509
722916
705401
687967
670619
653362
636200
619138
602180
585332
568600
551987
535500
519142
502924
486852
470935
455182
439604
424214
409032
394081
379395
365022
2.84273e+06
2.8425e+06
2.84203e+06
2.84133e+06
2.84038e+06
2.83917e+06
2.83772e+06
2.836e+06
2.83403e+06
2.83179e+06
2.82928e+06
2.8265e+06
2.82345e+06
2.82013e+06
2.81653e+06
2.81265e+06
2.8085e+06
2.80406e+06
2.79936e+06
2.79438e+06
2.78912e+06
2.78359e+06
2.77779e+06
2.77173e+06
2.7654e+06
2.75881e+06
2.75197e+06
2.74487e+06
2.73752e+06
2.72993e+06
2.72209e+06
2.71401e+06
2.7057e+06
2.69715e+06
2.68838e+06
2.67938e+06
2.67016e+06
2.66072e+06
2.65107e+06
2.64121e+06
2.63113e+06
2.62085e+06
2.61037e+06
2.59967e+06
2.58878e+06
2.57769e+06
2.56641e+06
2.55494e+06
2.54328e+06
2.53145e+06
2.51945e+06
2.50727e+06
2.49492e+06
2.48241e+06
2.46974e+06
2.45691e+06
2.44394e+06
2.43082e+06
2.41756e+06
2.40415e+06
2.39061e+06
2.37692e+06
2.3631e+06
2.34915e+06
2.33507e+06
2.32086e+06
2.30652e+06
2.29205e+06
2.27745e+06
2.26274e+06
2.24789e+06
2.23293e+06
2.21786e+06
2.20266e+06
2.18736e+06
2.17194e+06
2.15641e+06
2.14077e+06
2.12502e+06
2.10917e+06
2.09322e+06
2.07716e+06
2.06101e+06
2.04477e+06
2.02845e+06
2.01204e+06
1.99555e+06
1.97899e+06
1.96236e+06
1.94566e+06
1.9289e+06
1.91207e+06
1.89518e+06
1.87823e+06
1.86121e+06
1.84413e+06
1.82699e+06
1.80976e+06
1.79246e+06
1.77508e+06
1.75761e+06
1.74006e+06
1.72244e+06
1.70474e+06
1.68697e+06
1.66915e+06
1.65128e+06
1.63336e+06
1.61541e+06
1.59742e+06
1.57941e+06
1.56136e+06
1.54329e+06
1.52519e+06
1.50706e+06
1.48891e+06
1.47074e+06
1.45253e+06
1.43429e+06
1.41603e+06
1.39774e+06
1.37942e+06
1.36108e+06
1.34272e+06
1.32434e+06
1.30595e+06
1.28755e+06
1.26914e+06
1.25072e+06
1.2323e+06
1.21387e+06
1.19543e+06
1.177e+06
1.15857e+06
1.14014e+06
1.12171e+06
1.1033e+06
1.08489e+06
1.06649e+06
1.04811e+06
1.02974e+06
1.01138e+06
993048
974733
956443
938182
919957
901772
883631
865539
847499
829514
811586
793720
775916
758178
740510
722917
705401
687967
670618
653361
636199
619137
602179
585331
568599
551987
535499
519140
502920
486845
470925
455167
439581
424182
408984
394008
379277
364811
2.84691e+06
2.84667e+06
2.84619e+06
2.84547e+06
2.84449e+06
2.84326e+06
2.84177e+06
2.84002e+06
2.838e+06
2.83571e+06
2.83315e+06
2.83031e+06
2.82719e+06
2.8238e+06
2.82012e+06
2.81617e+06
2.81194e+06
2.80742e+06
2.80263e+06
2.79756e+06
2.79222e+06
2.7866e+06
2.78072e+06
2.77456e+06
2.76814e+06
2.76147e+06
2.75453e+06
2.74734e+06
2.7399e+06
2.73222e+06
2.7243e+06
2.71613e+06
2.70774e+06
2.69911e+06
2.69026e+06
2.68119e+06
2.6719e+06
2.6624e+06
2.65268e+06
2.64276e+06
2.63262e+06
2.62228e+06
2.61173e+06
2.60098e+06
2.59004e+06
2.57889e+06
2.56756e+06
2.55604e+06
2.54433e+06
2.53245e+06
2.52039e+06
2.50817e+06
2.49578e+06
2.48322e+06
2.47051e+06
2.45765e+06
2.44464e+06
2.43149e+06
2.41819e+06
2.40476e+06
2.39118e+06
2.37747e+06
2.36363e+06
2.34965e+06
2.33555e+06
2.32132e+06
2.30696e+06
2.29247e+06
2.27785e+06
2.26312e+06
2.24826e+06
2.23328e+06
2.21818e+06
2.20297e+06
2.18765e+06
2.17221e+06
2.15667e+06
2.14102e+06
2.12527e+06
2.1094e+06
2.09344e+06
2.07737e+06
2.06121e+06
2.04496e+06
2.02862e+06
2.0122e+06
1.99571e+06
1.97914e+06
1.9625e+06
1.9458e+06
1.92903e+06
1.91221e+06
1.89532e+06
1.87837e+06
1.86135e+06
1.84428e+06
1.82713e+06
1.80991e+06
1.79261e+06
1.77523e+06
1.75776e+06
1.74021e+06
1.72257e+06
1.70486e+06
1.68709e+06
1.66926e+06
1.65137e+06
1.63345e+06
1.61549e+06
1.59749e+06
1.57947e+06
1.56142e+06
1.54334e+06
1.52524e+06
1.50711e+06
1.48896e+06
1.47078e+06
1.45257e+06
1.43433e+06
1.41607e+06
1.39777e+06
1.37945e+06
1.36111e+06
1.34275e+06
1.32437e+06
1.30598e+06
1.28757e+06
1.26916e+06
1.25074e+06
1.23232e+06
1.21389e+06
1.19545e+06
1.17702e+06
1.15859e+06
1.14016e+06
1.12173e+06
1.10332e+06
1.08491e+06
1.06651e+06
1.04813e+06
1.02976e+06
1.0114e+06
993064
974748
956457
938195
919968
901781
883639
865545
847504
829518
811591
793724
775919
758181
740513
722919
705402
687967
670618
653360
636198
619135
602177
585329
568597
551985
535497
519137
502914
486836
470911
455147
439553
424140
408924
393919
379140
364591
2.85218e+06
2.85193e+06
2.85143e+06
2.85068e+06
2.84968e+06
2.84841e+06
2.84687e+06
2.84507e+06
2.84299e+06
2.84063e+06
2.838e+06
2.83508e+06
2.83188e+06
2.8284e+06
2.82463e+06
2.82058e+06
2.81624e+06
2.81162e+06
2.80672e+06
2.80154e+06
2.79609e+06
2.79036e+06
2.78436e+06
2.77809e+06
2.77156e+06
2.76477e+06
2.75772e+06
2.75042e+06
2.74287e+06
2.73507e+06
2.72704e+06
2.71878e+06
2.71028e+06
2.70156e+06
2.69261e+06
2.68345e+06
2.67407e+06
2.66448e+06
2.65469e+06
2.64468e+06
2.63447e+06
2.62406e+06
2.61344e+06
2.60262e+06
2.5916e+06
2.58039e+06
2.56898e+06
2.5574e+06
2.54563e+06
2.53368e+06
2.52157e+06
2.50928e+06
2.49683e+06
2.48423e+06
2.47147e+06
2.45856e+06
2.4455e+06
2.4323e+06
2.41897e+06
2.40549e+06
2.39188e+06
2.37814e+06
2.36427e+06
2.35026e+06
2.33613e+06
2.32188e+06
2.30749e+06
2.29298e+06
2.27834e+06
2.26357e+06
2.24869e+06
2.23368e+06
2.21856e+06
2.20333e+06
2.18799e+06
2.17254e+06
2.15698e+06
2.14131e+06
2.12554e+06
2.10967e+06
2.0937e+06
2.07762e+06
2.06145e+06
2.04518e+06
2.02883e+06
2.0124e+06
1.9959e+06
1.97932e+06
1.96267e+06
1.94596e+06
1.92919e+06
1.91236e+06
1.89547e+06
1.87853e+06
1.86152e+06
1.84445e+06
1.82731e+06
1.81009e+06
1.7928e+06
1.77542e+06
1.75795e+06
1.74039e+06
1.72274e+06
1.70502e+06
1.68723e+06
1.66938e+06
1.65149e+06
1.63355e+06
1.61558e+06
1.59758e+06
1.57955e+06
1.56149e+06
1.54341e+06
1.52531e+06
1.50718e+06
1.48902e+06
1.47084e+06
1.45263e+06
1.43439e+06
1.41612e+06
1.39782e+06
1.37949e+06
1.36115e+06
1.34278e+06
1.3244e+06
1.306e+06
1.2876e+06
1.26919e+06
1.25077e+06
1.23234e+06
1.21391e+06
1.19548e+06
1.17705e+06
1.15861e+06
1.14018e+06
1.12176e+06
1.10334e+06
1.08493e+06
1.06653e+06
1.04815e+06
1.02978e+06
1.01142e+06
993085
974768
956475
938211
919982
901793
883649
865554
847512
829525
811598
793730
775926
758187
740517
722922
705405
687969
670620
653362
636199
619135
602176
585328
568594
551982
535492
519132
502907
486825
470895
455123
439519
424092
408854
393818
378991
364368
2.85858e+06
2.85831e+06
2.85779e+06
2.85701e+06
2.85596e+06
2.85464e+06
2.85305e+06
2.85117e+06
2.84902e+06
2.84658e+06
2.84385e+06
2.84084e+06
2.83753e+06
2.83393e+06
2.83005e+06
2.82587e+06
2.82141e+06
2.81666e+06
2.81163e+06
2.80632e+06
2.80073e+06
2.79486e+06
2.78872e+06
2.78232e+06
2.77565e+06
2.76872e+06
2.76153e+06
2.7541e+06
2.74641e+06
2.73849e+06
2.73033e+06
2.72194e+06
2.71332e+06
2.70448e+06
2.69542e+06
2.68615e+06
2.67667e+06
2.66698e+06
2.65708e+06
2.64698e+06
2.63668e+06
2.62618e+06
2.61547e+06
2.60457e+06
2.59347e+06
2.58218e+06
2.57069e+06
2.55902e+06
2.54717e+06
2.53515e+06
2.52296e+06
2.51061e+06
2.49809e+06
2.48542e+06
2.47259e+06
2.45962e+06
2.44651e+06
2.43326e+06
2.41987e+06
2.40635e+06
2.3927e+06
2.37892e+06
2.36502e+06
2.35098e+06
2.33682e+06
2.32253e+06
2.30812e+06
2.29357e+06
2.2789e+06
2.26411e+06
2.24919e+06
2.23416e+06
2.21901e+06
2.20375e+06
2.18838e+06
2.17291e+06
2.15733e+06
2.14165e+06
2.12587e+06
2.10998e+06
2.09399e+06
2.0779e+06
2.06172e+06
2.04544e+06
2.02908e+06
2.01264e+06
1.99612e+06
1.97953e+06
1.96287e+06
1.94615e+06
1.92937e+06
1.91254e+06
1.89565e+06
1.8787e+06
1.8617e+06
1.84464e+06
1.8275e+06
1.81029e+06
1.793e+06
1.77563e+06
1.75816e+06
1.74059e+06
1.72294e+06
1.7052e+06
1.6874e+06
1.66953e+06
1.65162e+06
1.63367e+06
1.61569e+06
1.59768e+06
1.57964e+06
1.56158e+06
1.54349e+06
1.52538e+06
1.50725e+06
1.48909e+06
1.4709e+06
1.45269e+06
1.43445e+06
1.41618e+06
1.39787e+06
1.37955e+06
1.36119e+06
1.34282e+06
1.32444e+06
1.30604e+06
1.28763e+06
1.26922e+06
1.2508e+06
1.23238e+06
1.21395e+06
1.19551e+06
1.17708e+06
1.15864e+06
1.14021e+06
1.12179e+06
1.10337e+06
1.08496e+06
1.06656e+06
1.04817e+06
1.0298e+06
1.01145e+06
993110
974792
956497
938231
920000
901809
883663
865567
847524
829536
811608
793740
775935
758195
740525
722928
705409
687973
670623
653364
636200
619136
602176
585326
568591
551977
535486
519124
502897
486812
470876
455096
439480
424037
408777
393710
378837
364150
2.86614e+06
2.86585e+06
2.8653e+06
2.86448e+06
2.86338e+06
2.86199e+06
2.86032e+06
2.85836e+06
2.85611e+06
2.85357e+06
2.85073e+06
2.84759e+06
2.84416e+06
2.84042e+06
2.8364e+06
2.83208e+06
2.82746e+06
2.82256e+06
2.81737e+06
2.8119e+06
2.80615e+06
2.80012e+06
2.79381e+06
2.78724e+06
2.78041e+06
2.77332e+06
2.76597e+06
2.75838e+06
2.75054e+06
2.74246e+06
2.73415e+06
2.72561e+06
2.71685e+06
2.70788e+06
2.69868e+06
2.68928e+06
2.67968e+06
2.66987e+06
2.65986e+06
2.64966e+06
2.63925e+06
2.62865e+06
2.61784e+06
2.60685e+06
2.59565e+06
2.58426e+06
2.57268e+06
2.56092e+06
2.54897e+06
2.53686e+06
2.52458e+06
2.51214e+06
2.49953e+06
2.48678e+06
2.47388e+06
2.46084e+06
2.44766e+06
2.43435e+06
2.42091e+06
2.40734e+06
2.39364e+06
2.37982e+06
2.36588e+06
2.35181e+06
2.33761e+06
2.32329e+06
2.30884e+06
2.29426e+06
2.27956e+06
2.26473e+06
2.24977e+06
2.2347e+06
2.21952e+06
2.20423e+06
2.18884e+06
2.17334e+06
2.15774e+06
2.14205e+06
2.12625e+06
2.11034e+06
2.09434e+06
2.07823e+06
2.06203e+06
2.04574e+06
2.02936e+06
2.0129e+06
1.99636e+06
1.97976e+06
1.96309e+06
1.94636e+06
1.92957e+06
1.91272e+06
1.89583e+06
1.87889e+06
1.86189e+06
1.84483e+06
1.82771e+06
1.81051e+06
1.79322e+06
1.77585e+06
1.75838e+06
1.74081e+06
1.72315e+06
1.7054e+06
1.68758e+06
1.6697e+06
1.65177e+06
1.63381e+06
1.61581e+06
1.59779e+06
1.57975e+06
1.56168e+06
1.54359e+06
1.52547e+06
1.50733e+06
1.48917e+06
1.47098e+06
1.45277e+06
1.43452e+06
1.41625e+06
1.39794e+06
1.37961e+06
1.36125e+06
1.34287e+06
1.32448e+06
1.30608e+06
1.28767e+06
1.26926e+06
1.25084e+06
1.23241e+06
1.21398e+06
1.19555e+06
1.17711e+06
1.15868e+06
1.14024e+06
1.12182e+06
1.1034e+06
1.08499e+06
1.06659e+06
1.0482e+06
1.02983e+06
1.01148e+06
993140
974821
956524
938257
920023
901830
883683
865584
847540
829552
811623
793754
775948
758207
740535
722937
705417
687979
670628
653369
636204
619139
602178
585326
568589
551971
535478
519115
502885
486796
470855
455066
439438
423979
408696
393597
378681
363939
2.87491e+06
2.8746e+06
2.87401e+06
2.87314e+06
2.87197e+06
2.87051e+06
2.86874e+06
2.86668e+06
2.86431e+06
2.86164e+06
2.85866e+06
2.85538e+06
2.85179e+06
2.8479e+06
2.8437e+06
2.8392e+06
2.83441e+06
2.82933e+06
2.82395e+06
2.81829e+06
2.81235e+06
2.80613e+06
2.79964e+06
2.79287e+06
2.78585e+06
2.77857e+06
2.77103e+06
2.76326e+06
2.75524e+06
2.74698e+06
2.7385e+06
2.72979e+06
2.72087e+06
2.71173e+06
2.70239e+06
2.69284e+06
2.6831e+06
2.67316e+06
2.66302e+06
2.65269e+06
2.64217e+06
2.63146e+06
2.62055e+06
2.60944e+06
2.59813e+06
2.58663e+06
2.57494e+06
2.56307e+06
2.55101e+06
2.53879e+06
2.52641e+06
2.51386e+06
2.50116e+06
2.48832e+06
2.47533e+06
2.46221e+06
2.44896e+06
2.43558e+06
2.42207e+06
2.40845e+06
2.3947e+06
2.38083e+06
2.36685e+06
2.35274e+06
2.3385e+06
2.32414e+06
2.30965e+06
2.29504e+06
2.28029e+06
2.26542e+06
2.25043e+06
2.23532e+06
2.2201e+06
2.20478e+06
2.18935e+06
2.17383e+06
2.15821e+06
2.1425e+06
2.12668e+06
2.11076e+06
2.09474e+06
2.07861e+06
2.06239e+06
2.04607e+06
2.02967e+06
2.01319e+06
1.99664e+06
1.98002e+06
1.96333e+06
1.94658e+06
1.92978e+06
1.91293e+06
1.89603e+06
1.87908e+06
1.86208e+06
1.84503e+06
1.82791e+06
1.81072e+06
1.79344e+06
1.77607e+06
1.7586e+06
1.74104e+06
1.72337e+06
1.70561e+06
1.68777e+06
1.66987e+06
1.65193e+06
1.63395e+06
1.61594e+06
1.59791e+06
1.57986e+06
1.56178e+06
1.54369e+06
1.52557e+06
1.50743e+06
1.48926e+06
1.47107e+06
1.45285e+06
1.4346e+06
1.41633e+06
1.39801e+06
1.37967e+06
1.36131e+06
1.34293e+06
1.32453e+06
1.30613e+06
1.28772e+06
1.26931e+06
1.25088e+06
1.23246e+06
1.21403e+06
1.19559e+06
1.17715e+06
1.15872e+06
1.14028e+06
1.12185e+06
1.10343e+06
1.08502e+06
1.06662e+06
1.04824e+06
1.02987e+06
1.01151e+06
993175
974855
956557
938287
920051
901856
883707
865607
847561
829572
811642
793773
775965
758223
740549
722950
705428
687988
670636
653375
636210
619143
602181
585327
568587
551967
535470
519103
502870
486778
470831
455034
439394
423918
408612
393482
378527
363736
2.88495e+06
2.88462e+06
2.88398e+06
2.88305e+06
2.8818e+06
2.88024e+06
2.87837e+06
2.87618e+06
2.87367e+06
2.87084e+06
2.8677e+06
2.86424e+06
2.86047e+06
2.85638e+06
2.85199e+06
2.84729e+06
2.84228e+06
2.83698e+06
2.83139e+06
2.82551e+06
2.81935e+06
2.81291e+06
2.80619e+06
2.79921e+06
2.79196e+06
2.78446e+06
2.77671e+06
2.76872e+06
2.7605e+06
2.75204e+06
2.74336e+06
2.73446e+06
2.72535e+06
2.71604e+06
2.70653e+06
2.69682e+06
2.68692e+06
2.67683e+06
2.66655e+06
2.65609e+06
2.64544e+06
2.6346e+06
2.62356e+06
2.61233e+06
2.6009e+06
2.58928e+06
2.57746e+06
2.56546e+06
2.55328e+06
2.54093e+06
2.52843e+06
2.51577e+06
2.50296e+06
2.49001e+06
2.47693e+06
2.46372e+06
2.45039e+06
2.43693e+06
2.42336e+06
2.40967e+06
2.39587e+06
2.38195e+06
2.36791e+06
2.35376e+06
2.33948e+06
2.32508e+06
2.31055e+06
2.29589e+06
2.2811e+06
2.26619e+06
2.25115e+06
2.23599e+06
2.22073e+06
2.20537e+06
2.18992e+06
2.17437e+06
2.15874e+06
2.143e+06
2.12717e+06
2.11123e+06
2.09519e+06
2.07904e+06
2.06279e+06
2.04645e+06
2.03002e+06
2.01352e+06
1.99694e+06
1.9803e+06
1.96359e+06
1.94682e+06
1.93001e+06
1.91314e+06
1.89623e+06
1.87928e+06
1.86228e+06
1.84523e+06
1.82811e+06
1.81092e+06
1.79365e+06
1.77628e+06
1.75882e+06
1.74125e+06
1.72358e+06
1.70581e+06
1.68796e+06
1.67004e+06
1.65209e+06
1.63409e+06
1.61607e+06
1.59803e+06
1.57997e+06
1.5619e+06
1.5438e+06
1.52567e+06
1.50753e+06
1.48936e+06
1.47117e+06
1.45295e+06
1.4347e+06
1.41641e+06
1.3981e+06
1.37975e+06
1.36138e+06
1.34299e+06
1.32459e+06
1.30619e+06
1.28777e+06
1.26936e+06
1.25094e+06
1.23251e+06
1.21408e+06
1.19564e+06
1.1772e+06
1.15876e+06
1.14032e+06
1.12189e+06
1.10347e+06
1.08506e+06
1.06666e+06
1.04828e+06
1.02991e+06
1.01155e+06
993216
974894
956594
938322
920084
901887
883736
865635
847587
829597
811666
793796
775987
758243
740569
722967
705443
688002
670648
653386
636218
619150
602186
585331
568588
551965
535464
519092
502854
486757
470805
455000
439349
423856
408528
393369
378378
363544
2.89636e+06
2.89599e+06
2.8953e+06
2.89429e+06
2.89295e+06
2.89127e+06
2.88926e+06
2.88692e+06
2.88424e+06
2.88123e+06
2.87789e+06
2.87422e+06
2.87023e+06
2.86592e+06
2.86129e+06
2.85634e+06
2.8511e+06
2.84555e+06
2.8397e+06
2.83356e+06
2.82714e+06
2.82045e+06
2.81348e+06
2.80624e+06
2.79874e+06
2.791e+06
2.783e+06
2.77477e+06
2.76631e+06
2.75763e+06
2.74873e+06
2.73962e+06
2.7303e+06
2.72079e+06
2.71109e+06
2.7012e+06
2.69112e+06
2.68087e+06
2.67043e+06
2.65982e+06
2.64902e+06
2.63804e+06
2.62686e+06
2.61549e+06
2.60392e+06
2.59216e+06
2.5802e+06
2.56806e+06
2.55574e+06
2.54326e+06
2.53062e+06
2.51784e+06
2.50491e+06
2.49186e+06
2.47867e+06
2.46536e+06
2.45194e+06
2.43841e+06
2.42476e+06
2.411e+06
2.39714e+06
2.38316e+06
2.36908e+06
2.35487e+06
2.34055e+06
2.3261e+06
2.31152e+06
2.29681e+06
2.28197e+06
2.26701e+06
2.25192e+06
2.23672e+06
2.22142e+06
2.20602e+06
2.19054e+06
2.17497e+06
2.15931e+06
2.14356e+06
2.12771e+06
2.11176e+06
2.09569e+06
2.07952e+06
2.06324e+06
2.04687e+06
2.03041e+06
2.01388e+06
1.99727e+06
1.9806e+06
1.96387e+06
1.94708e+06
1.93025e+06
1.91337e+06
1.89645e+06
1.87949e+06
1.86248e+06
1.84543e+06
1.82831e+06
1.81112e+06
1.79384e+06
1.77647e+06
1.75901e+06
1.74144e+06
1.72376e+06
1.70599e+06
1.68813e+06
1.67021e+06
1.65224e+06
1.63423e+06
1.6162e+06
1.59815e+06
1.58009e+06
1.56201e+06
1.54391e+06
1.52578e+06
1.50764e+06
1.48947e+06
1.47127e+06
1.45305e+06
1.43479e+06
1.4165e+06
1.39818e+06
1.37983e+06
1.36146e+06
1.34306e+06
1.32466e+06
1.30625e+06
1.28783e+06
1.26941e+06
1.25099e+06
1.23256e+06
1.21413e+06
1.19569e+06
1.17724e+06
1.1588e+06
1.14036e+06
1.12193e+06
1.10351e+06
1.0851e+06
1.0667e+06
1.04832e+06
1.02995e+06
1.0116e+06
993261
974937
956635
938360
920120
901921
883768
865666
847617
829626
811694
793823
776013
758269
740592
722989
705463
688020
670664
653400
636231
619162
602196
585338
568593
551966
535461
519083
502840
486736
470776
454963
439301
423793
408444
393258
378234
363363
2.90923e+06
2.90882e+06
2.90807e+06
2.90696e+06
2.90551e+06
2.90369e+06
2.90152e+06
2.89899e+06
2.89611e+06
2.89287e+06
2.8893e+06
2.88538e+06
2.88112e+06
2.87654e+06
2.87163e+06
2.86641e+06
2.86087e+06
2.85503e+06
2.84889e+06
2.84247e+06
2.83575e+06
2.82876e+06
2.82151e+06
2.81398e+06
2.8062e+06
2.79818e+06
2.78991e+06
2.78141e+06
2.77269e+06
2.76375e+06
2.7546e+06
2.74525e+06
2.73571e+06
2.72597e+06
2.71606e+06
2.70596e+06
2.69569e+06
2.68524e+06
2.67463e+06
2.66384e+06
2.65287e+06
2.64172e+06
2.63038e+06
2.61885e+06
2.60713e+06
2.59521e+06
2.58311e+06
2.57082e+06
2.55836e+06
2.54574e+06
2.53296e+06
2.52005e+06
2.507e+06
2.49383e+06
2.48054e+06
2.46713e+06
2.45362e+06
2.43999e+06
2.42627e+06
2.41244e+06
2.39851e+06
2.38447e+06
2.37032e+06
2.35606e+06
2.34168e+06
2.32718e+06
2.31255e+06
2.29779e+06
2.2829e+06
2.26788e+06
2.25274e+06
2.2375e+06
2.22215e+06
2.20672e+06
2.1912e+06
2.17561e+06
2.15993e+06
2.14416e+06
2.1283e+06
2.11232e+06
2.09624e+06
2.08003e+06
2.06372e+06
2.04732e+06
2.03083e+06
2.01426e+06
1.99762e+06
1.98092e+06
1.96416e+06
1.94735e+06
1.9305e+06
1.9136e+06
1.89667e+06
1.8797e+06
1.86269e+06
1.84562e+06
1.8285e+06
1.8113e+06
1.79401e+06