/*--------------------------------*- C++ -*----------------------------------*\
| =========                 |                                                 |
| \\      /  F ield         | OpenFOAM: The Open Source CFD Toolbox           |
|  \\    /   O peration     | Version:  2112                                  |
|   \\  /    A nd           | Website:  www.openfoam.com                      |
|    \\/     M anipulation  |                                                 |
\*---------------------------------------------------------------------------*/
FoamFile
{
    version     2.0;
    format      ascii;
    arch        "LSB;label=32;scalar=64";
    class       volVectorField;
    location    "0.51";
    object      U_0;
}
// * * * * * * * * * * * * * * * * * * * * * * * * * * * * * * * * * * * * * //

dimensions      [0 1 -1 0 0 0 0];

internalField   nonuniform List<vector> 
12225
(
(9.85466 0.0312562 0)
(9.53121 0.0525236 0)
(9.30068 0.0600514 0)
(9.00607 0.0672018 0)
(8.63667 0.065523 0)
(8.27183 0.0601574 0)
(7.94792 0.0585388 0)
(7.63959 0.0612091 0)
(7.31915 0.0623212 0)
(6.99781 0.0574485 0)
(6.68985 0.0491252 0)
(6.41434 0.0456368 0)
(6.13375 0.0501161 0)
(5.85853 0.0625393 0)
(5.52131 0.0775555 0)
(5.17478 0.0867914 0)
(4.74396 0.102094 0)
(4.30375 0.123296 0)
(10.3141 0.0119414 0)
(10.1678 0.0663089 0)
(10.1541 0.0536649 0)
(10.2465 0.0763953 0)
(10.3157 0.100711 0)
(10.3144 0.10725 0)
(10.2493 0.103513 0)
(10.1465 0.10472 0)
(10.0287 0.113657 0)
(9.91759 0.123589 0)
(9.81403 0.12776 0)
(9.7181 0.128445 0)
(9.61 0.133002 0)
(9.48982 0.143974 0)
(9.33667 0.16666 0)
(9.17088 0.198661 0)
(8.95356 0.236682 0)
(8.71055 0.273247 0)
(10.0343 0.0282802 0)
(10.084 0.115131 0)
(10.0867 0.0656727 0)
(10.0921 0.0374422 0)
(10.1 0.0500089 0)
(10.0817 0.0787513 0)
(10.0311 0.107086 0)
(9.97398 0.127409 0)
(9.94262 0.134373 0)
(9.94971 0.128075 0)
(9.97953 0.115731 0)
(10.003 0.111526 0)
(9.99736 0.124359 0)
(9.95437 0.154805 0)
(9.88184 0.195358 0)
(9.79182 0.240997 0)
(9.70001 0.290911 0)
(9.60335 0.33857 0)
(9.97698 -0.0157351 0)
(10.1672 0.0176445 0)
(10.1319 0.0476334 0)
(10.0334 0.0676182 0)
(9.96771 0.0957779 0)
(9.93804 0.12383 0)
(9.93961 0.136869 0)
(9.96908 0.132203 0)
(10.0137 0.119569 0)
(10.0551 0.109525 0)
(10.0762 0.109954 0)
(10.0685 0.125591 0)
(10.0349 0.157056 0)
(9.98614 0.198788 0)
(9.93238 0.242205 0)
(9.88093 0.286493 0)
(9.8379 0.329912 0)
(9.80204 0.377711 0)
(9.91126 -0.0348683 0)
(10.0077 0.0903952 0)
(9.99977 0.124583 0)
(9.98099 0.0922229 0)
(9.97316 0.0796669 0)
(9.95976 0.0880034 0)
(9.93498 0.0967041 0)
(9.90643 0.101366 0)
(9.88841 0.102481 0)
(9.888 0.103176 0)
(9.90018 0.108831 0)
(9.91472 0.125054 0)
(9.92192 0.154899 0)
(9.91903 0.195504 0)
(9.90188 0.240066 0)
(9.87437 0.287105 0)
(9.83678 0.332361 0)
(9.79932 0.381435 0)
(9.99069 -0.0669997 0)
(10.0264 -0.0108603 0)
(10.1025 0.0528677 0)
(10.0975 0.0742728 0)
(10.0561 0.0966577 0)
(10.0221 0.134954 0)
(9.98765 0.158697 0)
(9.95798 0.152193 0)
(9.93438 0.129748 0)
(9.91392 0.110383 0)
(9.89438 0.10616 0)
(9.87535 0.122534 0)
(9.85589 0.159086 0)
(9.83954 0.210731 0)
(9.82446 0.267633 0)
(9.81122 0.32425 0)
(9.79542 0.374594 0)
(9.77797 0.421213 0)
(9.92196 0.0922886 0)
(9.82807 0.0587506 0)
(9.87528 0.107056 0)
(9.93298 0.112156 0)
(9.9388 0.101828 0)
(9.92818 0.10519 0)
(9.94756 0.113674 0)
(9.97873 0.11674 0)
(9.99532 0.114677 0)
(9.98944 0.114029 0)
(9.96352 0.121093 0)
(9.92521 0.139694 0)
(9.88409 0.170278 0)
(9.85199 0.210571 0)
(9.83184 0.255182 0)
(9.82185 0.302096 0)
(9.81624 0.348977 0)
(9.80574 0.397558 0)
(9.93416 0.0523086 0)
(10.0314 -0.0116546 0)
(10.0134 0.0173776 0)
(10.0243 0.0564863 0)
(10.0463 0.102291 0)
(10.0501 0.136907 0)
(10.0346 0.146714 0)
(10.0069 0.139975 0)
(9.96957 0.13099 0)
(9.93044 0.129547 0)
(9.90456 0.139475 0)
(9.90088 0.161912 0)
(9.91708 0.195366 0)
(9.9428 0.237956 0)
(9.96839 0.285784 0)
(9.98344 0.3356 0)
(9.98546 0.387404 0)
(9.96578 0.439254 0)
(10.0874 -0.0167742 0)
(10.1241 0.059909 0)
(10.107 0.112541 0)
(10.0293 0.0967626 0)
(9.97491 0.0858409 0)
(9.97226 0.100106 0)
(9.99352 0.123217 0)
(9.9986 0.139089 0)
(9.97281 0.143451 0)
(9.93267 0.139025 0)
(9.90385 0.132233 0)
(9.89982 0.131717 0)
(9.92256 0.146053 0)
(9.96073 0.178734 0)
(9.99874 0.22791 0)
(10.0223 0.288199 0)
(10.0265 0.355034 0)
(10.0174 0.423049 0)
(9.97399 0.0584167 0)
(9.95998 -0.00427385 0)
(10.0292 0.0520245 0)
(10.0563 0.11638 0)
(10.0586 0.138503 0)
(10.0371 0.138281 0)
(9.99297 0.142959 0)
(9.93076 0.157635 0)
(9.86194 0.170537 0)
(9.8019 0.171746 0)
(9.76508 0.162726 0)
(9.75521 0.154637 0)
(9.76387 0.16128 0)
(9.78406 0.192389 0)
(9.80943 0.246862 0)
(9.83561 0.316624 0)
(9.85536 0.390326 0)
(9.87218 0.458592 0)
(10.0318 0.154858 0)
(9.97561 0.0539931 0)
(9.93904 0.0595633 0)
(9.95708 0.0684927 0)
(10.0173 0.07804 0)
(10.0448 0.115972 0)
(10.0151 0.166282 0)
(9.96769 0.199955 0)
(9.94991 0.203169 0)
(9.9751 0.181632 0)
(10.0164 0.152074 0)
(10.037 0.1323 0)
(10.0175 0.132967 0)
(9.96644 0.157627 0)
(9.90749 0.204387 0)
(9.86546 0.267153 0)
(9.8495 0.337793 0)
(9.86107 0.409852 0)
(10.0312 0.0169559 0)
(9.93991 0.0243175 0)
(9.93414 0.0671109 0)
(9.98053 0.100385 0)
(10.0189 0.118987 0)
(10.0208 0.152916 0)
(9.99769 0.188447 0)
(9.97622 0.196068 0)
(9.97395 0.171782 0)
(9.99518 0.140777 0)
(10.0301 0.130701 0)
(10.0611 0.152254 0)
(10.0711 0.197866 0)
(10.0532 0.251642 0)
(10.0116 0.300978 0)
(9.96044 0.342923 0)
(9.91164 0.380044 0)
(9.87882 0.418348 0)
(10.0769 0.0833957 0)
(9.93501 0.100865 0)
(9.88573 0.0400423 0)
(9.88487 0.00553711 0)
(9.90463 0.0285296 0)
(9.93192 0.101067 0)
(9.96488 0.177538 0)
(10.0003 0.211385 0)
(10.0316 0.192833 0)
(10.0535 0.14806 0)
(10.0676 0.112853 0)
(10.0775 0.110057 0)
(10.0863 0.144057 0)
(10.09 0.205362 0)
(10.0862 0.278493 0)
(10.0711 0.350378 0)
(10.0521 0.412542 0)
(10.0291 0.462007 0)
(10.0347 0.00421711 0)
(10.1304 0.0243664 0)
(10.1581 0.10316 0)
(10.0954 0.138799 0)
(10.0323 0.14345 0)
(10.0107 0.155716 0)
(10.028 0.165297 0)
(10.0614 0.155993 0)
(10.0853 0.131683 0)
(10.0878 0.112199 0)
(10.0726 0.11464 0)
(10.0503 0.142787 0)
(10.0316 0.191539 0)
(10.0242 0.251049 0)
(10.0293 0.309676 0)
(10.0437 0.359308 0)
(10.0629 0.396687 0)
(10.0803 0.426033 0)
(9.83754 -0.13037 0)
(9.87807 -0.0157015 0)
(9.94215 0.0621058 0)
(9.99133 0.0482523 0)
(10.0397 0.0313197 0)
(10.0764 0.0588151 0)
(10.1049 0.118469 0)
(10.1306 0.168317 0)
(10.1524 0.182965 0)
(10.1684 0.169822 0)
(10.1727 0.151884 0)
(10.1621 0.148906 0)
(10.1406 0.168431 0)
(10.1175 0.208339 0)
(10.1012 0.262233 0)
(10.095 0.323479 0)
(10.0959 0.387903 0)
(10.1022 0.447124 0)
(9.96218 -0.0779365 0)
(9.94461 -0.0562019 0)
(9.98177 0.0262511 0)
(10.0181 0.075859 0)
(10.0092 0.1166 0)
(9.94707 0.151788 0)
(9.89899 0.154959 0)
(9.90329 0.123037 0)
(9.95097 0.0858279 0)
(10.0139 0.0769453 0)
(10.0618 0.108811 0)
(10.0768 0.169776 0)
(10.061 0.238681 0)
(10.0295 0.297685 0)
(9.99874 0.338174 0)
(9.98213 0.363068 0)
(9.98539 0.376018 0)
(10.0131 0.390506 0)
(10.0019 0.00585444 0)
(9.96034 -0.0347029 0)
(9.94562 -0.043089 0)
(9.94764 0.0210639 0)
(9.98765 0.0962274 0)
(10.046 0.140956 0)
(10.0984 0.136723 0)
(10.1257 0.0953193 0)
(10.1228 0.0541299 0)
(10.1057 0.0474308 0)
(10.0938 0.08578 0)
(10.0949 0.156083 0)
(10.1049 0.233015 0)
(10.1159 0.295165 0)
(10.1185 0.33204 0)
(10.1118 0.347588 0)
(10.0942 0.350193 0)
(10.0733 0.353976 0)
(10.0016 0.0156861 0)
(9.99731 0.0681261 0)
(9.93067 0.0495552 0)
(9.94113 0.0224814 0)
(9.99166 0.0061637 0)
(10.0298 0.0214628 0)
(10.0538 0.0637068 0)
(10.0596 0.108432 0)
(10.0413 0.132269 0)
(10.0089 0.132426 0)
(9.98106 0.128078 0)
(9.97177 0.143483 0)
(9.98433 0.188703 0)
(10.013 0.258233 0)
(10.048 0.334566 0)
(10.0798 0.402272 0)
(10.1051 0.450866 0)
(10.121 0.472734 0)
(9.89759 -0.0114422 0)
(9.88405 0.00648579 0)
(9.92688 -0.0717736 0)
(9.95264 -0.0667068 0)
(9.95985 -0.00305933 0)
(9.95009 0.0583031 0)
(9.94218 0.0924976 0)
(9.95807 0.109407 0)
(9.98532 0.124844 0)
(10.0039 0.142227 0)
(10.0085 0.156258 0)
(10.0063 0.163888 0)
(10.0087 0.168526 0)
(10.0251 0.176105 0)
(10.0605 0.190303 0)
(10.1111 0.210719 0)
(10.1727 0.234325 0)
(10.2345 0.260227 0)
(9.91527 0.0233662 0)
(9.95267 0.101531 0)
(9.97308 0.0159901 0)
(10.0046 -0.0211683 0)
(10.0725 0.0102059 0)
(10.1193 0.0413462 0)
(10.1179 0.0473413 0)
(10.0902 0.0449997 0)
(10.0644 0.0565937 0)
(10.0572 0.0852192 0)
(10.0744 0.116258 0)
(10.1127 0.135548 0)
(10.1629 0.139325 0)
(10.2148 0.132216 0)
(10.2611 0.123738 0)
(10.2988 0.12266 0)
(10.3271 0.134019 0)
(10.3469 0.161188 0)
(9.88157 0.0613469 0)
(9.94555 -0.0157515 0)
(9.94637 -0.155749 0)
(9.93239 -0.189788 0)
(9.95523 -0.114214 0)
(10.0079 0.00824885 0)
(10.0604 0.113476 0)
(10.1089 0.1666 0)
(10.1529 0.162596 0)
(10.1832 0.120195 0)
(10.1935 0.0680701 0)
(10.189 0.0267038 0)
(10.1791 0.00599426 0)
(10.1721 0.010028 0)
(10.1744 0.0367591 0)
(10.1883 0.0787667 0)
(10.2129 0.128074 0)
(10.2449 0.17813 0)
(10.116 -0.0128254 0)
(10.1509 0.102507 0)
(10.1381 0.0193689 0)
(10.0529 -0.0645096 0)
(9.97894 -0.0774645 0)
(9.95932 -0.0695127 0)
(9.98103 -0.0644532 0)
(10.0274 -0.0533023 0)
(10.0878 -0.0189483 0)
(10.1462 0.0379574 0)
(10.1887 0.0963291 0)
(10.2128 0.133077 0)
(10.2255 0.139649 0)
(10.2344 0.118749 0)
(10.2446 0.0823607 0)
(10.2591 0.0502141 0)
(10.2793 0.0355006 0)
(10.3067 0.0479839 0)
(9.98472 0.0606046 0)
(10.0651 0.0158843 0)
(10.1857 -0.0472854 0)
(10.2083 -0.0682904 0)
(10.1539 -0.0368233 0)
(10.0766 0.0054326 0)
(10.0064 0.027917 0)
(9.96475 0.0288784 0)
(9.96809 0.0183364 0)
(10.0164 0.00735805 0)
(10.0918 0.00132296 0)
(10.1689 5.11663e-05 0)
(10.2277 0.000858541 0)
(10.2589 0.00444192 0)
(10.2617 0.0133108 0)
(10.2463 0.028204 0)
(10.2236 0.0471573 0)
(10.2078 0.0709885 0)
(10.0067 0.0165953 0)
(10.0614 -0.0124669 0)
(10.1032 -0.0477038 0)
(10.1 -0.0299206 0)
(10.0687 0.0270812 0)
(10.064 0.0584952 0)
(10.1016 0.0384933 0)
(10.1582 -0.0141652 0)
(10.2057 -0.064861 0)
(10.2285 -0.0853115 0)
(10.2253 -0.0686383 0)
(10.2053 -0.0256854 0)
(10.1812 0.024927 0)
(10.1638 0.0655854 0)
(10.1605 0.0872466 0)
(10.1729 0.0926836 0)
(10.1999 0.0877003 0)
(10.2379 0.0829022 0)
(10.1434 -0.181718 0)
(10.1855 -0.0956223 0)
(10.1672 -0.0700322 0)
(10.1086 -0.0492854 0)
(10.0709 -0.0140939 0)
(10.096 -0.010007 0)
(10.1585 -0.0321779 0)
(10.2058 -0.0490801 0)
(10.2147 -0.043717 0)
(10.1933 -0.0194557 0)
(10.1582 0.0116022 0)
(10.1259 0.0349039 0)
(10.1071 0.0422432 0)
(10.1037 0.0333662 0)
(10.1113 0.0142435 0)
(10.1272 -0.00613224 0)
(10.1482 -0.0217566 0)
(10.1769 -0.0246103 0)
(10.1927 -0.016913 0)
(10.1082 -0.01614 0)
(10.1014 0.0202947 0)
(10.0938 0.0387225 0)
(10.0953 0.0262687 0)
(10.1126 -0.00992922 0)
(10.1377 -0.0453867 0)
(10.152 -0.0622302 0)
(10.1473 -0.0562199 0)
(10.1296 -0.0347738 0)
(10.1135 -0.0062192 0)
(10.1111 0.0226417 0)
(10.1259 0.0452583 0)
(10.1535 0.0573646 0)
(10.183 0.0568272 0)
(10.2076 0.0462743 0)
(10.2226 0.0277551 0)
(10.2285 0.00731074 0)
(9.83164 -0.0190573 0)
(9.92806 -0.0636013 0)
(10.0069 -0.0629681 0)
(10.0578 -0.0347658 0)
(10.0866 -0.0208831 0)
(10.099 -0.0304558 0)
(10.1113 -0.0478609 0)
(10.136 -0.0504124 0)
(10.1747 -0.0305584 0)
(10.2177 -0.00147346 0)
(10.254 0.0183287 0)
(10.281 0.0222506 0)
(10.2999 0.0120689 0)
(10.3125 -0.00502879 0)
(10.3196 -0.0213001 0)
(10.3205 -0.0316644 0)
(10.3156 -0.0347409 0)
(10.3049 -0.0318746 0)
(10.1191 -0.0685636 0)
(10.0818 -0.0639244 0)
(10.0778 -0.0246087 0)
(10.1168 0.00626305 0)
(10.1819 0.000953969 0)
(10.2252 -0.0311889 0)
(10.2151 -0.0697964 0)
(10.1637 -0.0937828 0)
(10.1111 -0.0927039 0)
(10.0888 -0.0701068 0)
(10.1051 -0.0361976 0)
(10.1493 -0.0024627 0)
(10.2042 0.022888 0)
(10.2551 0.0375752 0)
(10.2953 0.0426258 0)
(10.3242 0.0403746 0)
(10.3465 0.033048 0)
(10.3672 0.0227611 0)
(9.96259 -0.0783917 0)
(9.99531 -0.0576977 0)
(10.0569 -0.0789934 0)
(10.1028 -0.0678413 0)
(10.1375 -0.0542397 0)
(10.1504 -0.0396035 0)
(10.1329 -0.0246209 0)
(10.0996 -0.0126573 0)
(10.0745 -0.00822133 0)
(10.0729 -0.0127536 0)
(10.0981 -0.0232872 0)
(10.1463 -0.0355694 0)
(10.2093 -0.0456082 0)
(10.2794 -0.0518654 0)
(10.3477 -0.0548488 0)
(10.4066 -0.0558347 0)
(10.4502 -0.0564443 0)
(10.4736 -0.0575678 0)
(10.0162 -0.0656892 0)
(9.77767 -0.0678213 0)
(9.54418 -0.0528252 0)
(9.35975 -0.0344978 0)
(9.2159 -0.029332 0)
(9.09892 -0.0348677 0)
(8.99062 -0.0464827 0)
(8.88355 -0.058696 0)
(8.77541 -0.0660685 0)
(8.66452 -0.0660209 0)
(8.5516 -0.0599524 0)
(8.43965 -0.0517447 0)
(8.33005 -0.0443427 0)
(8.22561 -0.0377758 0)
(8.12857 -0.03036 0)
(8.0437 -0.0213176 0)
(7.97123 -0.0104037 0)
(7.91513 -0.000869634 0)
(-0.235604 0.216924 6.09939e-20)
(-0.162598 -0.127068 -6.05468e-20)
(0.31061 -0.547839 0)
(0.897389 -0.687702 0)
(1.47795 -0.682953 0)
(2.02712 -0.616095 5.82728e-20)
(2.51639 -0.527704 0)
(2.93507 -0.435595 0)
(3.28358 -0.341368 0)
(3.55923 -0.2403 0)
(3.75848 -0.13761 -5.52616e-20)
(3.87539 -0.0239949 0)
(3.91198 0.0932317 0)
(3.84733 0.227275 0)
(3.66206 0.377486 0)
(3.3498 0.542448 -5.3329e-20)
(2.86635 0.744415 0)
(2.25789 0.910999 0)
(1.37119 1.0165 0)
(0.594936 0.485536 0)
(0.0654413 -0.27813 0)
(-0.211331 -0.353705 0)
(-0.16022 -0.283851 0)
(-0.134698 -0.274171 -5.07209e-20)
(0.198421 -0.536464 5.0253e-20)
(0.722661 -0.664766 -4.97273e-20)
(1.29319 -0.431345 -4.91989e-20)
(1.4549 -0.820337 0)
(1.36454 -1.26694 0)
(1.28427 -0.992898 4.77816e-20)
(0.770427 0.145407 4.74809e-20)
(-0.393023 1.04792 0)
(-1.63042 1.14526 0)
(-2.80299 1.07707 4.60757e-20)
(-3.89596 1.00707 0)
(-4.91488 0.923827 0)
(-5.85167 0.837147 -4.35842e-20)
(-6.70781 0.750628 0)
(-7.48337 0.666428 -4.17656e-20)
(-8.18057 0.586262 -8.17394e-20)
(-8.80124 0.510362 0)
(-9.34761 0.438895 0)
(-9.82152 0.371464 0)
(-10.2247 0.307708 0)
(-10.5586 0.247288 0)
(-10.8249 0.190048 -7.27148e-20)
(-11.0256 0.136182 -7.16134e-20)
(-11.1629 0.0861664 -7.06418e-20)
(-11.2391 0.0406382 0)
(-11.2566 2.49905e-05 6.90762e-20)
(-11.2213 -0.0359586 0)
(-11.1414 -0.0681046 -6.79642e-20)
(-11.0172 -0.0968176 -6.75606e-20)
(-10.8556 -0.122183 0)
(-10.6592 -0.144239 0)
(-10.4336 -0.162989 0)
(-10.1822 -0.178584 -6.66748e-20)
(-9.90961 -0.191191 0)
(-9.61939 -0.201103 0)
(-9.31528 -0.20861 0)
(-9.00014 -0.214082 0)
(-8.67667 -0.217867 0)
(-8.34682 -0.220354 0)
(-8.01211 -0.221882 0)
(-7.67349 -0.222777 0)
(-7.33148 -0.223275 6.60096e-20)
(-6.98628 -0.22353 0)
(-6.63789 -0.223556 0)
(-6.28628 -0.223218 -6.56375e-20)
(-5.93165 -0.222195 -6.54818e-20)
(-5.57475 -0.219995 0)
(-5.21718 -0.21597 6.51182e-20)
(-4.86141 -0.209364 -6.4908e-20)
(-4.51047 -0.199533 0)
(-4.16762 -0.18636 6.44254e-20)
(-3.83591 -0.170478 0)
(-3.5175 -0.153386 0)
(-3.21237 -0.137812 -6.35514e-20)
(-2.91736 -0.127822 0)
(-2.62592 -0.127727 6.28877e-20)
(-2.32862 -0.139799 0)
(-2.0147 -0.163211 -6.21774e-20)
(-1.67379 -0.195747 -6.18073e-20)
(-1.29401 -0.234623 -6.14264e-20)
(-0.862445 -0.276468 -1.22066e-19)
(-0.369343 -0.31031 1.21244e-19)
(0.15174 -0.316794 0)
(0.650396 -0.301315 0)
(1.12558 -0.302999 0)
(1.65622 -0.345816 1.16703e-19)
(2.32116 -0.422594 1.15265e-19)
(3.09652 -0.512749 -1.13588e-19)
(3.95686 -0.499117 0)
(4.77428 -0.139493 1.09868e-19)
(4.97928 0.381831 1.0825e-19)
(4.42324 0.531004 1.06936e-19)
(3.64015 0.303053 0)
(3.11642 -0.0165737 0)
(3.13179 -0.267567 0)
(3.54557 -0.213496 1.02225e-19)
(3.56513 0.0570269 0)
(3.08281 0.174485 0)
(2.78187 0.0331142 -9.89861e-20)
(2.84346 -0.121373 0)
(3.00223 -0.143245 0)
(2.96792 -0.0821533 -9.51988e-20)
(2.62972 0.0472354 0)
(1.9474 0.264061 0)
(1.03004 0.399427 9.10801e-20)
(0.0903881 0.397447 8.93722e-20)
(-0.921198 0.448142 0)
(-2.11337 0.541536 -8.50026e-20)
(-3.49085 0.626678 0)
(-5.00322 0.685191 7.96445e-20)
(-6.56926 0.695855 0)
(-8.08165 0.653368 7.34026e-20)
(-9.43616 0.567758 7.02556e-20)
(-10.5574 0.455153 0)
(-11.4089 0.332509 0)
(-11.985 0.212686 0)
(-12.2958 0.103749 0)
(-12.3574 0.0106263 0)
(-12.1981 -0.0680322 0)
(-11.8646 -0.137742 0)
(-11.3516 -0.199229 6.17092e-20)
(-10.6944 -0.251124 -6.27139e-20)
(-9.90829 -0.292846 0)
(-9.03193 -0.320301 0)
(-8.10107 -0.332982 0)
(-7.15125 -0.333241 0)
(-6.2024 -0.327475 -1.36129e-19)
(-5.26058 -0.321222 0)
(-4.32021 -0.31801 1.38271e-19)
(-3.37366 -0.316952 -1.38849e-19)
(-2.41848 -0.315354 0)
(-1.46136 -0.309752 0)
(-0.513438 -0.298113 0)
(0.399819 -0.286291 1.36933e-19)
(1.27085 -0.268404 1.35163e-19)
(2.10635 -0.251159 0)
(2.90238 -0.235893 1.30757e-19)
(3.66336 -0.222187 1.28253e-19)
(4.39154 -0.208681 -1.25594e-19)
(5.08381 -0.195775 0)
(5.73898 -0.177694 0)
(6.34072 -0.154435 -1.16913e-19)
(6.87111 -0.140897 0)
(7.35207 -0.114035 0)
(7.74054 -0.0774919 0)
(8.03468 -0.0797438 0)
(8.33407 -0.0470924 1.02388e-19)
(8.49365 -0.0263254 9.98494e-20)
(8.65734 -0.0606652 0)
(8.8723 0.0320547 9.53162e-20)
(8.76069 -0.0236233 0)
(9.0317 -0.0439859 0)
(8.94488 0.23074 9.01735e-20)
(8.28582 -0.0409159 0)
(8.81741 0.236325 8.80763e-20)
(7.21833 1.08922 0)
(3.90134 0.305314 0)
(2.83341 -0.32159 8.39202e-20)
(2.52708 0.0516144 0)
(1.90243 0.22874 7.96134e-20)
(0.724817 0.263189 0)
(-0.6646 0.297612 0)
(-1.78823 0.239912 0)
(-2.34237 0.097507 -6.56368e-20)
(-2.34036 -0.0433477 0)
(-1.94033 -0.1215 6.55744e-20)
(-1.33483 -0.15062 0)
(-0.669574 -0.14655 0)
(-0.0570914 -0.126161 0)
(0.454632 -0.0970955 0)
(0.830923 -0.065638 0)
(1.08699 -0.0406693 0)
(1.26731 -0.0113086 0)
(1.34286 0.00632656 -1.22631e-19)
(1.4223 0.0408411 0)
(1.33661 0.0426759 0)
(-0.0131637 0.553096 -1.8283e-19)
(0.623022 -0.960978 1.80939e-19)
(1.22525 -1.72508 0)
(1.72988 -1.90583 -1.18096e-19)
(2.15408 -1.80334 0)
(2.51984 -1.60431 -5.81126e-20)
(2.84381 -1.38995 1.1455e-19)
(3.13287 -1.17926 1.13356e-19)
(3.38546 -0.9669 0)
(3.5917 -0.746373 1.11081e-19)
(3.74035 -0.517676 5.52449e-20)
(3.83739 -0.282983 0)
(3.88055 -0.0321252 0)
(3.87783 0.245821 0)
(3.83117 0.541531 0)
(3.72105 0.890348 5.32198e-20)
(3.54391 1.24113 0)
(3.29582 1.58779 -1.04742e-19)
(2.91528 1.89238 0)
(2.53652 1.75554 0)
(1.88202 1.65463 1.03272e-19)
(1.5625 0.833015 0)
(1.0232 -3.87337e-05 -1.02244e-19)
(0.960414 -0.409699 5.05626e-20)
(1.43937 -0.930465 -5.00892e-20)
(1.10435 -1.71138 4.96905e-20)
(0.61389 -0.775155 4.93118e-20)
(-0.18741 0.695616 0)
(-1.61142 1.53687 0)
(-2.85144 2.08786 -4.75951e-20)
(-3.81475 2.50717 4.66299e-20)
(-4.69467 2.68492 0)
(-5.48824 2.60928 0)
(-6.22617 2.47774 -4.56031e-20)
(-6.91016 2.30106 0)
(-7.54144 2.11067 0)
(-8.12075 1.91812 4.32835e-20)
(-8.64959 1.72992 0)
(-9.13083 1.54934 -4.07651e-20)
(-9.56549 1.37659 8.13879e-20)
(-9.95506 1.21137 0)
(-10.2999 1.05258 0)
(-10.6004 0.899396 1.52027e-19)
(-10.8561 0.751054 1.49248e-19)
(-11.0666 0.607293 1.46678e-19)
(-11.2314 0.468249 -7.17116e-20)
(-11.3504 0.334537 7.15473e-20)
(-11.4238 0.207173 2.10989e-19)
(-11.4531 0.0873514 -1.38798e-19)
(-11.44 -0.0238613 -6.9049e-20)
(-11.3843 -0.125902 0)
(-11.2837 -0.21822 6.79313e-20)
(-11.1448 -0.300575 -6.70154e-20)
(-10.9688 -0.372738 0)
(-10.7616 -0.434765 0)
(-10.5261 -0.486861 0)
(-10.2677 -0.529514 6.66307e-20)
(-9.98977 -0.563382 0)
(-9.69663 -0.589335 -1.32647e-19)
(-9.39137 -0.608354 0)
(-9.07715 -0.621539 -1.32458e-19)
(-8.75623 -0.630016 0)
(-8.43055 -0.63493 1.32257e-19)
(-8.10127 -0.637371 0)
(-7.76908 -0.638318 -1.31974e-19)
(-7.4341 -0.638552 6.5832e-20)
(-7.09605 -0.638587 0)
(-6.75431 -0.638604 1.3133e-19)
(-6.40816 -0.638409 6.55838e-20)
(-6.05696 -0.63741 6.54278e-20)
(-5.70054 -0.634666 0)
(-5.33942 -0.629049 6.49647e-20)
(-4.97499 -0.619482 6.48565e-20)
(-4.60938 -0.605307 0)
(-4.24481 -0.586751 -6.43801e-20)
(-3.88272 -0.565208 1.28151e-19)
(-3.52333 -0.543143 0)
(-3.16581 -0.523826 6.35236e-20)
(-2.80884 -0.510938 0)
(-2.45104 -0.507952 -1.88552e-19)
(-2.09094 -0.517313 0)
(-1.72707 -0.540235 1.86442e-19)
(-1.35776 -0.578746 6.18047e-20)
(-0.979804 -0.638244 -6.13225e-20)
(-0.586937 -0.721584 -1.21815e-19)
(-0.163006 -0.796533 1.20936e-19)
(0.292036 -0.781526 0)
(0.738879 -0.693797 0)
(1.18522 -0.705721 0)
(1.7602 -0.900138 -3.49383e-19)
(2.54363 -1.10862 -1.15088e-19)
(3.37694 -1.18553 1.1342e-19)
(4.00447 -1.12143 0)
(4.48246 -0.751637 1.09024e-19)
(5.01651 -0.0459335 -1.08219e-19)
(5.23806 0.634951 -1.06771e-19)
(4.80772 0.931733 0)
(4.1204 0.579048 0)
(3.73513 -0.12842 0)
(3.69042 -0.233819 -1.02179e-19)
(3.69174 0.32043 0)
(3.53409 0.558994 1.99919e-19)
(3.36998 0.187181 2.96819e-19)
(3.10898 -0.113808 -1.95695e-19)
(2.62876 0.0459611 0)
(1.83544 0.475754 -9.52528e-20)
(0.725268 0.91404 0)
(-0.470354 1.1724 -1.8492e-19)
(-1.62084 1.25129 9.04801e-20)
(-2.76744 1.33048 8.84106e-20)
(-3.95142 1.47679 0)
(-5.16701 1.61952 2.52629e-19)
(-6.40495 1.72613 -1.62816e-19)
(-7.63854 1.76779 -7.92419e-20)
(-8.81981 1.71796 0)
(-9.88343 1.5688 -7.3128e-20)
(-10.7716 1.33506 -2.08477e-19)
(-11.4541 1.0496 0)
(-11.9284 0.747603 -1.28208e-19)
(-12.2052 0.452961 -1.24613e-19)
(-12.2996 0.177478 -1.22175e-19)
(-12.2297 -0.0745214 0)
(-11.9994 -0.30154 0)
(-11.5887 -0.502481 0)
(-11.0362 -0.677324 6.0955e-20)
(-10.3409 -0.823623 6.26879e-20)
(-9.53495 -0.938641 0)
(-8.64423 -1.01361 1.29678e-19)
(-7.71214 -1.04492 1.32053e-19)
(-6.7728 -1.04131 0)
(-5.84575 -1.02234 1.36044e-19)
(-4.93153 -1.00441 2.7384e-19)
(-4.01974 -0.997179 -1.38179e-19)
(-3.0996 -0.997306 -1.3811e-19)
(-2.16785 -0.995338 0)
(-1.23235 -0.980051 0)
(-0.308934 -0.947483 0)
(0.578467 -0.909839 -1.36792e-19)
(1.42429 -0.858769 1.34603e-19)
(2.2334 -0.809373 2.65491e-19)
(3.00772 -0.765134 -1.30645e-19)
(3.75251 -0.726094 1.27776e-19)
(4.4733 -0.687507 1.25499e-19)
(5.16907 -0.646294 0)
(5.8298 -0.599851 0)
(6.45708 -0.538282 -1.16582e-19)
(7.0269 -0.471572 0)
(7.51261 -0.407018 0)
(7.95616 -0.326746 2.15552e-19)
(8.30396 -0.269187 0)
(8.57739 -0.223574 1.02138e-19)
(8.8512 -0.159068 -9.98079e-20)
(8.99057 -0.157777 0)
(9.1971 -0.107579 9.50564e-20)
(9.33808 -0.0429012 0)
(9.33901 -0.0799709 0)
(9.54128 0.13032 -9.0113e-20)
(9.40591 0.25911 1.77091e-19)
(9.33877 0.288828 -8.79673e-20)
(9.15395 1.19567 0)
(9.05107 2.01118 0)
(6.73455 1.23838 8.32333e-20)
(3.56114 0.382575 0)
(2.54775 0.679795 7.94295e-20)
(1.54418 1.0725 0)
(0.199305 0.95612 0)
(-0.766718 0.621008 0)
(-1.18465 0.194394 6.56905e-20)
(-1.10306 -0.179059 0)
(-0.640409 -0.403297 -6.56207e-20)
(-0.0113574 -0.485223 0)
(0.635052 -0.474444 0)
(1.19199 -0.407825 1.33252e-19)
(1.63434 -0.317176 -1.32083e-19)
(1.93162 -0.222892 0)
(2.11124 -0.153047 0)
(2.21297 -0.100289 0)
(2.24928 -0.0735373 3.67626e-19)
(2.29827 -0.0339893 0)
(2.2556 -0.0175485 -2.34077e-19)
(0.36899 -0.948051 2.36896e-22)
(0.980906 -2.62415 -2.40301e-19)
(1.39301 -2.9073 0)
(1.63377 -2.64298 2.35548e-19)
(1.81913 -2.2805 0)
(2.01644 -1.96446 0)
(2.24036 -1.70812 -4.8457e-22)
(2.47734 -1.46625 -1.13493e-19)
(2.70005 -1.19502 -1.11868e-19)
(2.88074 -0.893467 -1.11262e-19)
(3.00406 -0.585091 0)
(3.07855 -0.275405 0)
(3.09754 0.0465042 1.07925e-19)
(3.06585 0.377664 2.13996e-19)
(3.00855 0.740946 -2.12343e-19)
(2.94192 1.15171 0)
(2.87514 1.59589 -2.0964e-19)
(2.7341 2.06727 1.04762e-19)
(2.60195 2.3693 0)
(2.34569 2.57108 -2.07098e-19)
(2.04317 2.04128 -1.03159e-19)
(1.69357 1.24642 2.05901e-19)
(1.15122 0.965819 1.02169e-19)
(1.02588 -0.94832 0)
(0.411193 -0.621739 -2.01859e-19)
(-1.12671 1.21853 -1.99345e-19)
(-2.41363 1.99807 0)
(-3.39054 2.74342 -1.93278e-19)
(-4.37611 3.16272 0)
(-5.14936 3.47111 -1.87865e-19)
(-5.78731 3.6393 -9.31074e-20)
(-6.2908 3.65767 0)
(-6.72511 3.53661 0)
(-7.13167 3.34851 0)
(-7.53013 3.1186 0)
(-7.93067 2.87741 0)
(-8.33431 2.63604 0)
(-8.7355 2.39956 -1.65693e-19)
(-9.12853 2.16967 2.4478e-19)
(-9.5048 1.94504 0)
(-9.85811 1.72452 0)
(-10.1816 1.50659 0)
(-10.4702 1.29082 -1.52893e-21)
(-10.7191 1.07731 -1.49216e-19)
(-10.9247 0.866809 -2.91939e-19)
(-11.0838 0.660416 2.87354e-19)
(-11.1948 0.459432 1.40998e-19)
(-11.2569 0.265205 -1.40425e-19)
(-11.2707 0.0789557 1.13405e-21)
(-11.2377 -0.0975239 -1.36403e-19)
(-11.16 -0.260591 0)
(-11.0404 -0.40896 -1.34428e-19)
(-10.8827 -0.541057 8.16555e-22)
(-10.6913 -0.656525 0)
(-10.4705 -0.755194 0)
(-10.2249 -0.837495 1.32608e-19)
(-9.9591 -0.904151 0)
(-9.67738 -0.956365 0)
(-9.38373 -0.995586 -1.31867e-19)
(-9.08164 -1.02355 -2.64408e-19)
(-8.77397 -1.04213 1.32452e-19)
(-8.46296 -1.05329 0)
(-8.15008 -1.05898 -1.32244e-19)
(-7.83615 -1.06111 0)
(-7.52132 -1.06142 -1.31545e-19)
(-7.2052 -1.06141 -1.31763e-19)
(-6.88697 -1.06215 2.6271e-19)
(-6.56545 -1.0642 1.30922e-19)
(-6.23927 -1.06746 0)
(-5.90707 -1.07113 -2.61034e-19)
(-5.5679 -1.07361 0)
(-5.22162 -1.07278 -3.89581e-19)
(-4.869 -1.06642 -2.58798e-19)
(-4.51166 -1.05294 -2.57913e-19)
(-4.15165 -1.03192 2.56948e-19)
(-3.79062 -1.00491 -3.83989e-19)
(-3.42914 -0.975521 0)
(-3.06664 -0.948927 0)
(-2.70169 -0.93053 2.52294e-19)
(-2.33248 -0.924074 3.76588e-19)
(-1.95686 -0.930546 0)
(-1.5732 -0.94859 -1.24221e-19)
(-1.18185 -0.977674 0)
(-0.786027 -1.0261 3.67799e-19)
(-0.393407 -1.11362 3.23745e-22)
(-4.57408e-05 -1.22658 -3.43223e-22)
(0.411237 -1.24868 -2.39556e-19)
(0.831967 -1.17207 0)
(1.29668 -1.28317 2.34794e-19)
(1.9295 -1.72641 5.39598e-22)
(2.77415 -2.08048 0)
(3.67773 -1.99882 0)
(4.36201 -1.61288 0)
(4.70092 -1.06193 -2.18676e-19)
(4.89576 -0.267059 0)
(4.93764 0.675972 0)
(4.58675 1.27447 0)
(4.17771 0.99835 0)
(3.95346 0.179578 0)
(3.72386 -0.118011 -2.04114e-19)
(3.61466 0.271013 0)
(3.60228 0.491236 -1.99865e-19)
(3.25563 0.405562 -1.97887e-19)
(2.36335 0.55727 1.95811e-19)
(1.19949 1.04522 0)
(-0.00802124 1.58508 1.90707e-19)
(-1.12419 1.96311 0)
(-2.08704 2.11905 1.84422e-19)
(-2.98232 2.16445 -1.80883e-19)
(-3.9104 2.25047 -5.28468e-19)
(-4.86567 2.38697 0)
(-5.83203 2.52346 -5.00189e-19)
(-6.81464 2.62126 -1.59049e-19)
(-7.79951 2.63228 0)
(-8.74716 2.51422 -2.97085e-19)
(-9.59398 2.25218 -2.84439e-19)
(-10.2832 1.87248 4.10839e-19)
(-10.7898 1.43108 0)
(-11.1163 0.981441 1.28281e-19)
(-11.2734 0.552455 1.24731e-19)
(-11.2713 0.150871 3.64084e-19)
(-11.1186 -0.224171 0)
(-10.8169 -0.56854 0)
(-10.3719 -0.877723 0)
(-9.79424 -1.14716 1.20555e-19)
(-9.09261 -1.37486 0)
(-8.28133 -1.5533 0)
(-7.38897 -1.66849 -1.29724e-19)
(-6.46263 -1.7094 -1.32095e-19)
(-5.54755 -1.69039 0)
(-4.66406 -1.64858 0)
(-3.80764 -1.6132 -2.73909e-19)
(-2.95619 -1.6017 0)
(-2.0925 -1.6058 2.76891e-19)
(-1.21151 -1.60597 2.76487e-19)
(-0.325918 -1.58034 0)
(0.539063 -1.52909 0)
(1.3524 -1.45656 -2.71998e-19)
(2.11083 -1.37355 -6.74696e-22)
(2.81789 -1.29658 -6.5886e-22)
(3.48315 -1.23092 0)
(4.11787 -1.17513 -5.10717e-19)
(4.72936 -1.12185 0)
(5.32315 -1.06161 0)
(5.89604 -0.990014 0)
(6.44167 -0.899101 2.33291e-19)
(6.96101 -0.790852 0)
(7.4268 -0.680739 -4.41954e-19)
(7.83363 -0.555624 -2.15496e-19)
(8.19108 -0.450769 0)
(8.46719 -0.376104 -2.04454e-19)
(8.71245 -0.275779 0)
(8.93233 -0.250198 0)
(9.07311 -0.194713 -5.70257e-19)
(9.24317 -0.089357 3.72031e-19)
(9.38799 -0.113501 0)
(9.36126 0.0990201 3.58545e-19)
(9.51777 0.289807 -1.77058e-19)
(9.44799 0.404565 0)
(9.0622 1.07138 0)
(9.73013 1.97514 0)
(9.67211 2.43636 -4.96162e-19)
(7.35969 2.09794 0)
(4.16336 1.40397 -1.584e-19)
(2.37762 1.44701 0)
(1.38975 1.43935 0)
(0.594013 0.989514 0)
(0.156071 0.317774 0)
(0.189007 -0.301378 0)
(0.622177 -0.67911 0)
(1.25124 -0.800987 -2.64795e-19)
(1.90221 -0.759553 0)
(2.44794 -0.63115 -1.33058e-19)
(2.84469 -0.469548 3.95985e-19)
(3.08867 -0.305237 0)
(3.1974 -0.177074 0)
(3.21016 -0.0859856 -2.50349e-19)
(3.14519 -0.0324013 -2.4491e-19)
(3.09985 0.0274952 2.39328e-19)
(2.95924 0.0435319 2.33942e-19)
(0.343131 -2.48092 3.62998e-19)
(0.706155 -3.44284 3.58964e-19)
(0.924784 -3.07933 2.3668e-19)
(1.09438 -2.75895 1.16765e-19)
(1.31224 -2.59897 0)
(1.57508 -2.47515 -2.29807e-19)
(1.84409 -2.31535 1.13235e-19)
(2.10143 -2.06916 0)
(2.32425 -1.71828 1.11928e-19)
(2.48709 -1.29545 0)
(2.58178 -0.849388 -2.18623e-19)
(2.602 -0.392917 0)
(2.54708 0.048949 -1.07906e-19)
(2.42462 0.453725 -2.14096e-19)
(2.27176 0.845983 2.1262e-19)
(2.13785 1.26275 0)
(2.01766 1.74024 2.10036e-19)
(1.87131 2.22006 0)
(1.67453 2.56533 0)
(1.40363 2.7487 2.07517e-19)
(1.0727 2.67532 0)
(0.486938 2.32312 -2.47057e-22)
(0.589191 0.817479 0)
(-0.548507 1.23314 0)
(-2.01196 2.33877 3.25334e-22)
(-3.11013 3.08157 1.97797e-19)
(-4.05428 3.59478 1.94471e-19)
(-4.79869 4.02818 1.92256e-19)
(-5.39816 4.22338 0)
(-5.86068 4.33507 3.73299e-19)
(-6.24451 4.327 0)
(-6.58117 4.25229 1.80713e-19)
(-6.9082 4.10764 0)
(-7.24324 3.92893 0)
(-7.59163 3.72193 -1.72382e-19)
(-7.95393 3.49923 0)
(-8.3219 3.26268 1.66429e-19)
(-8.68678 3.01502 2.19962e-21)
(-9.04055 2.75794 -3.22737e-19)
(-9.37672 2.49295 3.14475e-19)
(-9.69088 2.22204 0)
(-9.97811 1.94706 0)
(-10.2339 1.66993 1.46652e-19)
(-10.4537 1.39203 0)
(-10.6336 1.11471 1.453e-19)
(-10.7706 0.839512 -1.43044e-19)
(-10.8622 0.568626 -1.41026e-19)
(-10.9077 0.305234 0)
(-10.9063 0.0534463 1.37818e-19)
(-10.8554 -0.182991 1.36491e-19)
(-10.758 -0.402514 -2.68162e-19)
(-10.6188 -0.602454 1.34501e-19)
(-10.4413 -0.781161 1.33814e-19)
(-10.23 -0.937118 0)
(-9.98947 -1.06962 0)
(-9.72472 -1.17882 -1.32664e-19)
(-9.44083 -1.26557 0)
(-9.14288 -1.3315 0)
(-8.83584 -1.37889 2.64624e-19)
(-8.5243 -1.41049 2.64521e-19)
(-8.21229 -1.42939 0)
(-7.90295 -1.43875 0)
(-7.59832 -1.44166 0)
(-7.29917 -1.44092 0)
(-7.00493 -1.43895 2.63596e-19)
(-6.71404 -1.43763 -2.6274e-19)
(-6.4243 -1.43833 -2.62782e-19)
(-6.13327 -1.44177 -5.24074e-19)
(-5.83846 -1.44797 0)
(-5.53755 -1.45601 4.6307e-22)
(-5.22898 -1.46384 0)
(-4.91267 -1.46846 2.59593e-19)
(-4.59038 -1.46672 4.2871e-22)
(-4.26548 -1.45648 2.57865e-19)
(-3.942 -1.43748 -2.56884e-19)
(-3.62284 -1.41206 3.77986e-22)
(-3.30826 -1.38484 0)
(-2.99593 -1.3615 -2.53062e-19)
(-2.68175 -1.3478 -2.52154e-19)
(-2.36119 -1.34793 -5.01189e-19)
(-2.0292 -1.36341 0)
(-1.68007 -1.39204 2.47504e-19)
(-1.30774 -1.42886 0)
(-0.909516 -1.47177 -4.8931e-19)
(-0.491513 -1.53292 2.4324e-19)
(-0.063713 -1.62372 -2.4144e-19)
(0.383879 -1.65135 2.39386e-19)
(0.875624 -1.59774 4.73218e-19)
(1.41164 -1.83812 -2.34554e-19)
(2.01094 -2.53187 2.31633e-19)
(2.71875 -3.0253 0)
(3.41415 -2.84847 -4.46608e-19)
(3.94051 -2.17131 0)
(4.22545 -1.24996 -4.32494e-19)
(4.31046 -0.21118 4.27584e-19)
(4.1797 0.862711 4.23559e-19)
(3.88748 1.52978 -4.2031e-19)