/*--------------------------------*- C++ -*----------------------------------*\
| =========                 |                                                 |
| \\      /  F ield         | OpenFOAM: The Open Source CFD Toolbox           |
|  \\    /   O peration     | Version:  2112                                  |
|   \\  /    A nd           | Website:  www.openfoam.com                      |
|    \\/     M anipulation  |                                                 |
\*---------------------------------------------------------------------------*/
FoamFile
{
    version     2.0;
    format      ascii;
    arch        "LSB;label=32;scalar=64";
    class       volVectorField;
    location    "0.06";
    object      U_0;
}
// * * * * * * * * * * * * * * * * * * * * * * * * * * * * * * * * * * * * * //

dimensions      [0 1 -1 0 0 0 0];

internalField   nonuniform List<vector> 
12225
(
(9.88054 0.0470829 0)
(9.47139 0.106047 0)
(8.93962 0.13119 0)
(8.39266 0.125098 0)
(7.88573 0.10905 0)
(7.42778 0.0919191 0)
(7.02484 0.0753622 0)
(6.67388 0.061159 0)
(6.37011 0.0493452 0)
(6.10644 0.0397553 0)
(5.87978 0.0319742 0)
(5.68037 0.0257423 0)
(5.51191 0.02101 0)
(5.35322 0.0170348 0)
(5.23222 0.0146679 0)
(5.08607 0.0127382 0)
(5.01741 0.00980785 0)
(4.83842 0.0157211 0)
(10.0181 0.0538242 0)
(10.0633 0.0976174 0)
(10.0766 0.117575 0)
(10.0457 0.127452 0)
(9.98005 0.130531 0)
(9.88623 0.128758 0)
(9.777 0.124094 0)
(9.65775 0.117866 0)
(9.53643 0.111078 0)
(9.41421 0.104053 0)
(9.29666 0.097603 0)
(9.18038 0.0910157 0)
(9.07254 0.0862314 0)
(8.96278 0.0803748 0)
(8.8667 0.0783677 0)
(8.75862 0.0730582 0)
(8.67626 0.0738154 0)
(8.5611 0.0698952 0)
(10.0131 0.0480877 0)
(10.0509 0.0917293 0)
(10.0815 0.114175 0)
(10.106 0.128319 0)
(10.1234 0.134318 0)
(10.1331 0.135215 0)
(10.1357 0.132303 0)
(10.131 0.127504 0)
(10.1213 0.121763 0)
(10.1063 0.115747 0)
(10.0887 0.110008 0)
(10.0667 0.104498 0)
(10.0442 0.100237 0)
(10.0167 0.0960829 0)
(9.99107 0.0941681 0)
(9.95771 0.0920634 0)
(9.93019 0.0918883 0)
(9.88811 0.0928691 0)
(10.008 0.0421593 0)
(10.0427 0.0851852 0)
(10.0733 0.108752 0)
(10.0984 0.121835 0)
(10.1194 0.127163 0)
(10.1359 0.128333 0)
(10.1484 0.126521 0)
(10.1577 0.123064 0)
(10.164 0.118565 0)
(10.168 0.113809 0)
(10.17 0.109179 0)
(10.1702 0.104958 0)
(10.1689 0.101706 0)
(10.1658 0.0989888 0)
(10.1618 0.0980588 0)
(10.1554 0.0974548 0)
(10.1488 0.0989556 0)
(10.1368 0.100384 0)
(10.0054 0.0354123 0)
(10.035 0.0775159 0)
(10.0657 0.102457 0)
(10.0922 0.11587 0)
(10.1141 0.122384 0)
(10.1314 0.124161 0)
(10.145 0.122749 0)
(10.1556 0.119639 0)
(10.1638 0.115839 0)
(10.1703 0.111687 0)
(10.1752 0.107575 0)
(10.1789 0.103898 0)
(10.1815 0.101008 0)
(10.1831 0.0989134 0)
(10.1838 0.0982526 0)
(10.1833 0.0986021 0)
(10.1818 0.100603 0)
(10.1781 0.103941 0)
(10.0041 0.0301211 0)
(10.0283 0.0687254 0)
(10.057 0.0931956 0)
(10.0843 0.108534 0)
(10.108 0.116735 0)
(10.127 0.11953 0)
(10.1418 0.119062 0)
(10.1531 0.116642 0)
(10.1618 0.113183 0)
(10.1687 0.10932 0)
(10.1743 0.105604 0)
(10.1789 0.10228 0)
(10.1825 0.099669 0)
(10.1854 0.0979292 0)
(10.1876 0.0975426 0)
(10.189 0.09843 0)
(10.1895 0.101011 0)
(10.1887 0.105335 0)
(10.0032 0.0258345 0)
(10.023 0.0610079 0)
(10.0485 0.0842702 0)
(10.0746 0.0995168 0)
(10.0988 0.10852 0)
(10.1197 0.11303 0)
(10.1367 0.114217 0)
(10.1499 0.11295 0)
(10.1596 0.11024 0)
(10.1671 0.106875 0)
(10.1729 0.103396 0)
(10.1778 0.100353 0)
(10.1819 0.0979961 0)
(10.1854 0.0965314 0)
(10.1882 0.096402 0)
(10.1904 0.0976822 0)
(10.1918 0.100686 0)
(10.1925 0.105513 0)
(10.0026 0.0221245 0)
(10.0187 0.0540802 0)
(10.0411 0.0760106 0)
(10.065 0.090704 0)
(10.088 0.0998912 0)
(10.1091 0.105054 0)
(10.1276 0.1073 0)
(10.1431 0.107517 0)
(10.1553 0.106261 0)
(10.1644 0.103823 0)
(10.1711 0.100962 0)
(10.1763 0.0982015 0)
(10.1807 0.0960119 0)
(10.1845 0.0947816 0)
(10.1877 0.0948912 0)
(10.1904 0.0964892 0)
(10.1925 0.0998229 0)
(10.194 0.104993 0)
(10.0021 0.0189061 0)
(10.0153 0.0476502 0)
(10.0348 0.0680703 0)
(10.0564 0.0822093 0)
(10.0777 0.091399 0)
(10.0977 0.0968237 0)
(10.116 0.0995935 0)
(10.1324 0.100602 0)
(10.1466 0.10043 0)
(10.1583 0.0993687 0)
(10.1672 0.0977004 0)
(10.1737 0.0955769 0)
(10.1787 0.0937699 0)
(10.1828 0.0926859 0)
(10.1864 0.0929922 0)
(10.1896 0.094855 0)
(10.1922 0.0984606 0)
(10.1945 0.103848 0)
(10.0018 0.0161201 0)
(10.0125 0.0417353 0)
(10.0295 0.0604879 0)
(10.0488 0.073904 0)
(10.0683 0.0829599 0)
(10.087 0.0885717 0)
(10.1044 0.0916793 0)
(10.1204 0.0930958 0)
(10.1349 0.0934692 0)
(10.1478 0.0932165 0)
(10.159 0.0926422 0)
(10.168 0.0917812 0)
(10.1749 0.0907905 0)
(10.18 0.0902161 0)
(10.1842 0.0906887 0)
(10.1879 0.0927053 0)
(10.1913 0.0965182 0)
(10.1942 0.102001 0)
(10.0015 0.0136785 0)
(10.0104 0.0363463 0)
(10.025 0.0533478 0)
(10.0422 0.0658407 0)
(10.0599 0.0745847 0)
(10.0773 0.0802691 0)
(10.0938 0.0836387 0)
(10.109 0.085384 0)
(10.123 0.0860912 0)
(10.1359 0.0862094 0)
(10.1476 0.0861511 0)
(10.1582 0.0861107 0)
(10.1674 0.0862321 0)
(10.1748 0.0866777 0)
(10.1805 0.0876929 0)
(10.1851 0.0900018 0)
(10.1893 0.0939211 0)
(10.1932 0.0993306 0)
(10.0012 0.0116691 0)
(10.0087 0.0318224 0)
(10.0214 0.0471833 0)
(10.0368 0.0586905 0)
(10.0532 0.0669901 0)
(10.0695 0.0726013 0)
(10.0851 0.0761212 0)
(10.0997 0.0781301 0)
(10.1132 0.0791247 0)
(10.1257 0.079509 0)
(10.1372 0.0796684 0)
(10.1479 0.0798867 0)
(10.1578 0.0804444 0)
(10.1668 0.08162 0)
(10.1745 0.0835919 0)
(10.1808 0.0864949 0)
(10.1862 0.0906111 0)
(10.1915 0.0957416 0)
(10.0008 0.00992468 0)
(10.0073 0.0276456 0)
(10.0184 0.0413645 0)
(10.0322 0.0518013 0)
(10.0472 0.0595412 0)
(10.0624 0.0649644 0)
(10.0772 0.0685347 0)
(10.0913 0.0707361 0)
(10.1044 0.0719912 0)
(10.1166 0.0726487 0)
(10.1279 0.0730313 0)
(10.1384 0.0734156 0)
(10.1483 0.0741078 0)
(10.1576 0.0754967 0)
(10.1664 0.0779153 0)
(10.1744 0.0814288 0)
(10.1817 0.0857929 0)
(10.1888 0.0905972 0)
(10.0004 0.00827093 0)
(10.0061 0.0234125 0)
(10.0155 0.0351109 0)
(10.0277 0.0442064 0)
(10.0414 0.0511664 0)
(10.0555 0.0562326 0)
(10.0694 0.0597274 0)
(10.0828 0.0620318 0)
(10.0955 0.0634983 0)
(10.1075 0.0644237 0)
(10.1186 0.0650704 0)
(10.129 0.0656753 0)
(10.1388 0.0665095 0)
(10.148 0.0679359 0)
(10.157 0.0703078 0)
(10.1658 0.0737099 0)
(10.1746 0.077848 0)
(10.1836 0.0823053 0)
(10.0003 0.00656744 0)
(10.005 0.0189996 0)
(10.0133 0.0285514 0)
(10.0239 0.0359778 0)
(10.0361 0.0418687 0)
(10.049 0.0463503 0)
(10.062 0.0495961 0)
(10.0747 0.0518696 0)
(10.0869 0.0534442 0)
(10.0986 0.0545616 0)
(10.1096 0.0554348 0)
(10.1199 0.056266 0)
(10.1297 0.0572829 0)
(10.139 0.0587481 0)
(10.148 0.0608689 0)
(10.1571 0.0636552 0)
(10.1666 0.0669136 0)
(10.1766 0.0704316 0)
(10.0002 0.00485937 0)
(10.0044 0.0142153 0)
(10.0116 0.0216385 0)
(10.0209 0.0271709 0)
(10.0318 0.0316738 0)
(10.0435 0.0352798 0)
(10.0556 0.038037 0)
(10.0675 0.0400881 0)
(10.0792 0.0416175 0)
(10.0905 0.0428023 0)
(10.1013 0.0438051 0)
(10.1116 0.0447845 0)
(10.1215 0.045902 0)
(10.131 0.0472926 0)
(10.1403 0.0490047 0)
(10.1497 0.0509677 0)
(10.1595 0.0530491 0)
(10.1698 0.0551794 0)
(10.0002 0.0030756 0)
(10.0038 0.00906819 0)
(10.0104 0.0140409 0)
(10.0189 0.0175817 0)
(10.0287 0.0204851 0)
(10.0395 0.0229282 0)
(10.0507 0.0249065 0)
(10.062 0.0264787 0)
(10.0732 0.0277477 0)
(10.0842 0.0288211 0)
(10.0949 0.0297981 0)
(10.1051 0.0307655 0)
(10.1151 0.0317847 0)
(10.1248 0.0328679 0)
(10.1345 0.0339615 0)
(10.1442 0.0349648 0)
(10.1542 0.0357794 0)
(10.1645 0.0363785 0)
(10.0002 0.00114042 0)
(10.0035 0.00339811 0)
(10.0097 0.00531699 0)
(10.0178 0.00670783 0)
(10.0271 0.0078722 0)
(10.0373 0.00890672 0)
(10.048 0.00981564 0)
(10.0589 0.0106216 0)
(10.0699 0.0113637 0)
(10.0807 0.0120797 0)
(10.0913 0.0127948 0)
(10.1017 0.0135112 0)
(10.1119 0.014195 0)
(10.1219 0.0147691 0)
(10.1318 0.0151213 0)
(10.1417 0.015134 0)
(10.1515 0.0147184 0)
(10.1615 0.0138404 0)
(10.0002 -0.00108457 0)
(10.0035 -0.00317292 0)
(10.0097 -0.00491958 0)
(10.0178 -0.00608823 0)
(10.0271 -0.00697983 0)
(10.0374 -0.00766833 0)
(10.0482 -0.00813876 0)
(10.0593 -0.00839573 0)
(10.0705 -0.00846406 0)
(10.0816 -0.00838068 0)
(10.0925 -0.00819429 0)
(10.1033 -0.00796703 0)
(10.1138 -0.00777844 0)
(10.1241 -0.00773067 0)
(10.1341 -0.00794809 0)
(10.1439 -0.00856506 0)
(10.1534 -0.00970969 0)
(10.1626 -0.0115059 0)
(10.0002 -0.00333517 0)
(10.004 -0.00977885 0)
(10.0107 -0.0151084 0)
(10.0193 -0.018861 0)
(10.0295 -0.0218803 0)
(10.0407 -0.0243284 0)
(10.0525 -0.0261858 0)
(10.0644 -0.0275007 0)
(10.0764 -0.0283684 0)
(10.0882 -0.0288956 0)
(10.0998 -0.0291907 0)
(10.1111 -0.0293551 0)
(10.122 -0.0294776 0)
(10.1326 -0.0296448 0)
(10.1428 -0.0299652 0)
(10.1526 -0.0305941 0)
(10.1621 -0.0317599 0)
(10.1711 -0.0337678 0)
(10.0003 -0.00544613 0)
(10.0047 -0.0157835 0)
(10.0122 -0.0238484 0)
(10.022 -0.0300004 0)
(10.0336 -0.0350196 0)
(10.0462 -0.0389663 0)
(10.0592 -0.0418925 0)
(10.0722 -0.0439495 0)
(10.0851 -0.0453164 0)
(10.0977 -0.0461603 0)
(10.11 -0.0466432 0)
(10.1217 -0.0469165 0)
(10.133 -0.0471095 0)
(10.1439 -0.0473378 0)
(10.1544 -0.0477316 0)
(10.1646 -0.0484599 0)
(10.1743 -0.0497502 0)
(10.1836 -0.0518773 0)
(10.0005 -0.00775228 0)
(10.0058 -0.021736 0)
(10.0148 -0.0325771 0)
(10.0265 -0.0412559 0)
(10.04 -0.0481265 0)
(10.0542 -0.0532937 0)
(10.0687 -0.0569734 0)
(10.0829 -0.0594742 0)
(10.0968 -0.0610882 0)
(10.1102 -0.0620394 0)
(10.1231 -0.0625384 0)
(10.1355 -0.0628073 0)
(10.1472 -0.06304 0)
(10.1585 -0.0633561 0)
(10.1692 -0.0638325 0)
(10.1792 -0.064527 0)
(10.1884 -0.0654549 0)
(10.1964 -0.066621 0)
(10.001 -0.0102667 0)
(10.0078 -0.0280572 0)
(10.019 -0.0419688 0)
(10.0331 -0.0528362 0)
(10.0486 -0.0611562 0)
(10.0647 -0.0671819 0)
(10.0806 -0.0712973 0)
(10.0961 -0.0739947 0)
(10.111 -0.0757211 0)
(10.1253 -0.0767221 0)
(10.1387 -0.0771752 0)
(10.1513 -0.077349 0)
(10.163 -0.077453 0)
(10.1737 -0.0774668 0)
(10.1833 -0.0773358 0)
(10.1917 -0.0770216 0)
(10.1987 -0.0764583 0)
(10.2045 -0.0758797 0)
(10.0017 -0.013449 0)
(10.0107 -0.0353599 0)
(10.0248 -0.0518296 0)
(10.0415 -0.0644765 0)
(10.0593 -0.0740018 0)
(10.0773 -0.0807177 0)
(10.0946 -0.0851158 0)
(10.1111 -0.0878645 0)
(10.1265 -0.089539 0)
(10.1407 -0.0903147 0)
(10.1536 -0.0903371 0)
(10.1651 -0.0899268 0)
(10.1751 -0.0892609 0)
(10.1838 -0.0881502 0)
(10.1913 -0.0866491 0)
(10.1978 -0.0850025 0)
(10.2032 -0.0833643 0)
(10.208 -0.081955 0)
(10.0023 -0.0173649 0)
(10.0147 -0.043491 0)
(10.0322 -0.062323 0)
(10.0516 -0.07659 0)
(10.0714 -0.0870732 0)
(10.0906 -0.0941088 0)
(10.1084 -0.0983904 0)
(10.1246 -0.100763 0)
(10.139 -0.101762 0)
(10.1514 -0.101336 0)
(10.1624 -0.100092 0)
(10.1721 -0.0984555 0)
(10.1804 -0.0966142 0)
(10.1876 -0.0947261 0)
(10.1939 -0.09267 0)
(10.1997 -0.0905081 0)
(10.205 -0.0884585 0)
(10.2098 -0.0868231 0)
(10.0032 -0.0223235 0)
(10.0203 -0.0530084 0)
(10.0412 -0.073823 0)
(10.0624 -0.0890655 0)
(10.0826 -0.0993106 0)
(10.1013 -0.10525 0)
(10.118 -0.108194 0)
(10.133 -0.109305 0)
(10.1455 -0.109112 0)
(10.1563 -0.108138 0)
(10.1661 -0.106465 0)
(10.1749 -0.104303 0)
(10.1826 -0.101824 0)
(10.1893 -0.099479 0)
(10.1954 -0.0972685 0)
(10.2008 -0.0950549 0)
(10.2058 -0.0929384 0)
(10.2105 -0.0910878 0)
(10.0054 -0.0290903 0)
(10.0276 -0.0628528 0)
(10.0504 -0.0830665 0)
(10.0716 -0.0976314 0)
(10.0911 -0.107558 0)
(10.1087 -0.113182 0)
(10.1244 -0.115673 0)
(10.1382 -0.115976 0)
(10.15 -0.114729 0)
(10.1601 -0.113228 0)
(10.169 -0.111449 0)
(10.1766 -0.109186 0)
(10.1833 -0.106675 0)
(10.1891 -0.104088 0)
(10.1941 -0.101594 0)
(10.1983 -0.0991423 0)
(10.2019 -0.096843 0)
(10.2052 -0.0948216 0)
(10.0096 -0.0359377 0)
(10.0359 -0.0699988 0)
(10.0588 -0.0904596 0)
(10.0802 -0.105068 0)
(10.0996 -0.11522 0)
(10.1161 -0.121039 0)
(10.1295 -0.124056 0)
(10.1394 -0.124531 0)
(10.1467 -0.12354 0)
(10.1515 -0.121472 0)
(10.1539 -0.118933 0)
(10.1542 -0.115856 0)
(10.1528 -0.112523 0)
(10.1501 -0.109138 0)
(10.146 -0.105822 0)
(10.1412 -0.102734 0)
(10.1352 -0.0997838 0)
(10.1292 -0.0973764 0)
(10.0125 -0.0433355 0)
(10.0466 -0.0768946 0)
(10.0687 -0.0949277 0)
(10.0756 -0.107269 0)
(10.0651 -0.115151 0)
(10.0396 -0.119658 0)
(9.99974 -0.121367 0)
(9.94945 -0.120998 0)
(9.8915 -0.119113 0)
(9.82966 -0.116411 0)
(9.76471 -0.113208 0)
(9.69912 -0.109647 0)
(9.63294 -0.105848 0)
(9.56842 -0.10208 0)
(9.50433 -0.0983456 0)
(9.4433 -0.0948734 0)
(9.38233 -0.0915659 0)
(9.32622 -0.0888381 0)
(9.91242 -0.0359724 0)
(9.67676 -0.0808795 0)
(9.34723 -0.111215 0)
(8.9775 -0.126471 0)
(8.60403 -0.126419 0)
(8.24929 -0.116018 0)
(7.91875 -0.104509 0)
(7.61419 -0.0929743 0)
(7.3375 -0.0819225 0)
(7.08743 -0.0720278 0)
(6.86158 -0.0633427 0)
(6.6581 -0.0557228 0)
(6.47431 -0.0490813 0)
(6.3091 -0.0433137 0)
(6.1593 -0.0383296 0)
(6.02501 -0.0340432 0)
(5.90146 -0.0300987 0)
(5.79196 -0.0266836 0)
(-0.0513889 0.147765 -1.45278e-20)
(-0.181615 0.154088 1.44218e-20)
(-0.292487 0.104891 0)
(-0.313225 0.0106036 0)
(-0.233828 -0.0947517 0)
(-0.0845076 -0.170369 -1.38115e-20)
(0.113757 -0.218359 0)
(0.33334 -0.23944 0)
(0.557909 -0.244264 0)
(0.776798 -0.238755 0)
(0.982861 -0.225873 1.28816e-20)
(1.17166 -0.207421 0)
(1.34063 -0.185171 0)
(1.4882 -0.160607 0)
(1.61298 -0.134646 0)
(1.71408 -0.107974 1.26274e-20)
(1.79067 -0.0807873 0)
(1.84219 -0.053139 0)
(1.868 -0.0252321 0)
(1.86871 0.00299798 0)
(1.84259 0.0303939 0)
(1.79066 0.0566213 0)
(1.71442 0.081097 0)
(1.61603 0.102985 1.0155e-20)
(1.49793 0.121481 -9.624e-21)
(1.36314 0.136136 9.06493e-21)
(1.21494 0.146471 8.4873e-21)
(1.05708 0.15247 0)
(0.893299 0.154112 0)
(0.727607 0.151884 -6.72395e-21)
(0.563697 0.146151 -6.14684e-21)
(0.405161 0.137858 0)
(0.254818 0.127721 0)
(0.115097 0.116572 -4.48827e-21)
(-0.0123296 0.105318 0)
(-0.126566 0.0948834 0)
(-0.227266 0.0863951 2.9188e-21)
(-0.315257 0.0806143 0)
(-0.391806 0.0780142 1.92947e-21)
(-0.458781 0.0789831 2.91933e-21)
(-0.517999 0.0828173 0)
(-0.573131 0.0873133 0)
(-0.625484 0.0804446 0)
(-0.665032 0.0535368 0)
(-0.690902 -0.00622844 0)
(-0.667133 -0.103127 -1.62684e-21)
(-0.599714 -0.17253 -2.23068e-21)
(-0.508593 -0.201188 -2.79207e-21)
(-0.395244 -0.20572 0)
(-0.267651 -0.195296 3.69163e-21)
(-0.128706 -0.180935 0)
(0.0193706 -0.169039 -4.23061e-21)
(0.175697 -0.161351 -4.35222e-21)
(0.341627 -0.158082 0)
(0.519564 -0.158392 0)
(0.71128 -0.160077 0)
(0.911574 -0.158638 -4.18442e-21)
(1.11493 -0.150547 0)
(1.3173 -0.135185 0)
(1.50927 -0.123242 0)
(1.67941 -0.105905 0)
(1.81552 -0.0510366 0)
(1.90856 -0.0286862 0)
(1.94115 -0.0823548 0)
(1.84522 0.0389775 0)
(1.66196 0.319597 3.50936e-21)
(1.59555 0.223654 0)
(1.6929 -0.314484 0)
(1.87242 -0.60834 -4.20797e-21)
(1.66361 -0.111989 -4.15701e-21)
(0.784763 0.504695 0)
(-0.285306 0.671285 2.91239e-21)
(-1.27285 0.637895 -6.40374e-22)
(-2.16033 0.563458 0)
(-2.93766 0.482464 -5.65925e-21)
(-3.60845 0.407298 0)
(-4.18285 0.342386 0)
(-4.6737 0.288515 1.51346e-20)
(-5.0936 0.244466 0)
(-5.45377 0.208543 -2.01132e-20)
(-5.76351 0.178946 0)
(-6.02995 0.153676 2.38723e-20)
(-6.25818 0.131518 2.53117e-20)
(-6.4518 0.111482 2.64656e-20)
(-6.61318 0.0925947 5.46727e-20)
(-6.74345 0.0743816 -5.58431e-20)
(-6.84303 0.0561758 0)
(-6.91156 0.0379064 0)
(-6.94826 0.0195648 0)
(-6.95273 0.000636296 -5.4702e-20)
(-6.92779 -0.0174115 -5.2892e-20)
(-6.87184 -0.0351752 5.04808e-20)
(-6.78541 -0.0523648 0)
(-6.66897 -0.068764 -4.39716e-20)
(-6.52378 -0.0839637 -3.99751e-20)
(-6.35163 -0.0977317 -3.55793e-20)
(-6.15497 -0.109727 0)
(-5.93671 -0.119681 0)
(-5.70024 -0.127395 0)
(-5.44889 -0.133394 -1.59166e-20)
(-5.18606 -0.137925 0)
(-4.91496 -0.140804 0)
(-4.63851 -0.142259 1.64132e-21)
(-4.35951 -0.142365 0)
(-4.08036 -0.141302 0)
(-3.80312 -0.139344 -1.023e-20)
(-3.52937 -0.136743 0)
(-3.26034 -0.133731 0)
(-2.99667 -0.130607 1.89866e-20)
(-2.73863 -0.127566 2.12249e-20)
(-2.48609 -0.124728 0)
(-2.2388 -0.122135 -2.47992e-20)
(-1.996 -0.119932 0)
(-1.75713 -0.118079 2.7347e-20)
(-1.52126 -0.116594 0)
(-1.28796 -0.115324 2.90731e-20)
(-1.05649 -0.114306 2.96806e-20)
(-0.826418 -0.113462 0)
(-0.597256 -0.112709 0)
(-0.368671 -0.111964 0)
(-0.14054 -0.111147 0)
(0.0871496 -0.110165 0)
(0.3142 -0.108725 0)
(0.539774 -0.106654 0)
(0.763137 -0.104165 2.96395e-20)
(0.983455 -0.101437 -2.91038e-20)
(1.20011 -0.0985834 0)
(1.41245 -0.0956289 0)
(1.62006 -0.0926556 0)
(1.82267 -0.0897181 0)
(2.02018 -0.0868238 -5.0968e-20)
(2.2125 -0.0838965 0)
(2.39959 -0.0808167 4.77445e-20)
(2.58124 -0.0776191 -4.62106e-20)
(2.75754 -0.0744032 0)
(2.92849 -0.071014 0)
(3.09374 -0.0672321 0)
(3.25268 -0.062904 4.14441e-20)
(3.40409 -0.0577075 4.07168e-20)
(3.54587 -0.0513877 0)
(3.67572 -0.044032 3.9864e-20)
(3.7911 -0.0353375 3.9712e-20)
(3.8883 -0.025197 -3.97197e-20)
(3.96434 -0.0150333 0)
(4.0192 -0.0046461 0)
(4.04976 0.00873444 -4.04789e-20)
(4.0479 0.0231225 0)
(4.01433 0.0358655 0)
(3.95689 0.0432345 0)
(3.88342 0.0453767 0)
(3.80116 0.0438973 4.29151e-20)
(3.71604 0.0404547 4.34075e-20)
(3.63179 0.0364702 0)
(3.55043 0.0328318 4.43596e-20)
(3.47258 0.0300666 0)
(3.39767 0.0283888 0)
(3.32462 0.0277135 4.56207e-20)
(3.25227 0.0277502 0)
(3.17901 0.0281049 4.62822e-20)
(3.10375 0.0286298 0)
(3.02563 0.0293117 0)
(2.94392 0.0299702 4.69312e-20)
(2.85824 0.0303309 0)
(2.76883 0.0302215 4.71172e-20)
(2.67587 0.0291805 0)
(2.58144 0.0259472 0)
(2.49124 0.0199828 0)
(2.41068 0.0125852 -4.69795e-20)
(2.3436 0.00522191 0)
(2.29113 -0.000898417 4.68944e-20)
(2.2528 -0.00479942 0)
(2.22209 -0.00636235 0)
(2.19857 -0.00615831 0)
(2.16986 -0.00508549 0)
(2.14695 -0.00305238 0)
(2.10164 -0.00208597 0)
(2.07975 0.00179637 0)
(1.99202 0.00220622 -9.46828e-20)
(1.99051 0.0169449 0)
(1.77082 0.0152301 0)
(-0.00203537 0.311005 4.37232e-20)
(-0.050438 0.307926 -4.35155e-20)
(-0.0591088 0.161305 0)
(0.0490791 -0.125546 2.86739e-20)
(0.217655 -0.398274 0)
(0.424729 -0.578088 1.34921e-20)
(0.634452 -0.664023 -2.66051e-20)
(0.836712 -0.688776 -2.59403e-20)
(1.0275 -0.670747 0)
(1.20345 -0.628611 -2.4915e-20)
(1.36374 -0.573991 -1.19255e-20)
(1.50953 -0.513188 0)
(1.64144 -0.448717 0)
(1.75814 -0.38197 0)
(1.85804 -0.31344 0)
(1.9393 -0.243439 -1.16569e-20)
(2.00002 -0.172471 0)
(2.03867 -0.101158 2.35702e-20)
(2.05432 -0.0302012 0)
(2.04597 0.0392728 0)
(2.01562 0.105925 -2.19921e-20)
(1.96454 0.168595 0)
(1.89375 0.226076 2.04983e-20)
(1.80461 0.277316 -9.54384e-21)
(1.69908 0.321297 9.09382e-21)
(1.57957 0.357105 -8.60977e-21)
(1.44865 0.383937 -8.09956e-21)
(1.30921 0.401221 0)
(1.16448 0.408672 0)
(1.01766 0.406441 6.48727e-21)
(0.872246 0.395072 -6.08886e-21)
(0.731606 0.375637 0)
(0.599324 0.349518 0)
(0.478554 0.318113 4.36653e-21)
(0.372259 0.283095 0)
(0.282857 0.2461 0)
(0.211935 0.20898 -2.86696e-21)
(0.161163 0.173169 0)
(0.131248 0.139917 1.80963e-21)
(0.123563 0.110627 -2.89836e-21)
(0.138279 0.0852549 0)
(0.176897 0.0637356 0)
(0.235978 0.0440162 -3.70249e-22)
(0.315761 0.0219302 1.12275e-21)
(0.404416 -0.00468413 2.48624e-21)
(0.497509 -0.0389615 -2.14606e-21)
(0.580512 -0.0757236 2.20985e-21)
(0.656216 -0.113477 8.76368e-21)
(0.733836 -0.153425 -6.89783e-21)
(0.816668 -0.19491 -3.62489e-21)
(0.905897 -0.234878 0)
(1.00204 -0.270433 4.13112e-21)
(1.10554 -0.301338 -4.35102e-21)
(1.21727 -0.332497 0)
(1.33838 -0.366648 0)
(1.47016 -0.394566 0)
(1.61225 -0.405971 4.10714e-21)
(1.76062 -0.405997 0)
(1.91146 -0.397429 -6.96051e-21)
(2.06607 -0.360198 0)
(2.21399 -0.291382 -6.01958e-21)
(2.32468 -0.226318 0)
(2.36112 -0.120056 5.61567e-21)
(2.29405 0.12825 0)
(2.1731 0.325835 -6.21988e-21)
(2.22481 0.0851849 3.48481e-21)
(2.37788 -0.325456 0)
(1.8319 -0.0102062 7.9569e-21)
(0.557254 0.870837 4.21538e-21)
(-0.653268 1.49088 4.11854e-21)
(-1.70006 1.72248 0)
(-2.55071 1.6734 -1.90144e-21)
(-3.25594 1.51344 6.11154e-22)
(-3.84814 1.32057 0)
(-4.34542 1.12933 5.44163e-21)
(-4.76438 0.957391 -2.08566e-20)
(-5.12002 0.809109 0)
(-5.42403 0.68487 -1.45469e-20)
(-5.68567 0.581774 0)
(-5.91212 0.495728 5.91414e-20)
(-6.10814 0.42298 0)
(-6.27741 0.359997 -6.88822e-20)
(-6.422 0.303773 -2.38651e-20)
(-6.54313 0.252217 2.5644e-20)
(-6.64164 0.203561 5.25801e-20)
(-6.71739 0.156362 -5.33862e-20)
(-6.77014 0.109851 0)
(-6.7992 0.0637266 0)
(-6.80395 0.0175394 0)
(-6.78342 -0.0289852 1.51701e-19)
(-6.73345 -0.075108 4.81472e-20)
(-6.65451 -0.120702 -4.5843e-20)
(-6.54609 -0.165014 0)
(-6.40856 -0.207328 -4.19152e-20)
(-6.24293 -0.246775 3.61061e-20)
(-6.05084 -0.282587 3.20957e-20)
(-5.83465 -0.313941 0)
(-5.59719 -0.340263 0)
(-5.34185 -0.361331 0)
(-5.07205 -0.377104 1.43302e-20)
(-4.79119 -0.387742 0)
(-4.50251 -0.393691 -1.25625e-20)
(-4.20894 -0.395508 -5.7331e-21)
(-3.91339 -0.39364 -3.55334e-21)
(-3.61817 -0.388658 0)
(-3.32529 -0.381153 -8.17484e-21)
(-3.03646 -0.371819 0)
(-2.75282 -0.361343 -2.87356e-20)
(-2.47502 -0.350341 1.62501e-20)
(-2.2034 -0.339314 1.83168e-20)
(-1.93793 -0.328756 0)
(-1.67828 -0.319008 6.67118e-20)
(-1.42386 -0.310271 -4.67475e-20)
(-1.17395 -0.302619 -2.49204e-20)
(-0.927697 -0.296022 0)
(-0.684435 -0.290318 -2.65601e-20)
(-0.443461 -0.285392 -8.05364e-20)
(-0.20422 -0.281211 0)
(0.0338173 -0.277564 -5.49311e-20)
(0.270976 -0.27425 -5.52059e-20)
(0.507408 -0.271026 -5.5226e-20)
(0.743036 -0.267586 0)
(0.977409 -0.263648 0)
(1.21004 -0.258989 0)
(1.44034 -0.253483 2.64051e-20)
(1.66748 -0.247128 2.67671e-20)
(1.89048 -0.240025 0)
(2.10839 -0.232402 5.0763e-20)
(2.3205 -0.224492 4.95747e-20)
(2.52625 -0.21646 0)
(2.72549 -0.208556 4.75845e-20)
(2.91815 -0.200882 9.12065e-20)
(3.10445 -0.193418 -4.48304e-20)
(3.2848 -0.186211 -4.2385e-20)
(3.45961 -0.179274 0)
(3.62912 -0.172459 0)
(3.79358 -0.16548 0)
(3.95289 -0.15781 -3.93096e-20)
(4.10629 -0.148871 3.77991e-20)
(4.25277 -0.138289 7.56109e-20)
(4.39079 -0.125547 -3.79182e-20)
(4.51797 -0.110279 3.71732e-20)
(4.63247 -0.0928141 3.78305e-20)
(4.73291 -0.073552 0)
(4.81616 -0.0522587 0)
(4.88109 -0.0289528 -3.83156e-20)
(4.93313 -0.00627386 0)
(4.97376 0.0141345 0)
(5.00066 0.0312596 8.03648e-20)
(5.01308 0.0439372 0)
(5.01176 0.0519981 4.13342e-20)
(4.99844 0.0560388 -4.19898e-20)
(4.9759 0.0570458 0)
(4.9471 0.0561407 4.30336e-20)
(4.91464 0.0543087 0)
(4.88088 0.0523193 0)
(4.84734 0.0507369 -4.43695e-20)
(4.81487 0.0499167 8.95115e-20)
(4.78387 0.0500317 -4.50731e-20)
(4.7544 0.0511069 0)
(4.72558 0.053006 0)
(4.69675 0.0554171 4.5775e-20)
(4.66719 0.058104 0)
(4.63609 0.0609646 4.59938e-20)
(4.60247 0.0633419 0)
(4.56691 0.0639656 0)
(4.5291 0.0619304 0)
(4.48812 0.0570198 4.59238e-20)
(4.44444 0.0499676 0)
(4.39785 0.0421672 -4.58766e-20)
(4.34901 0.0355214 0)
(4.29524 0.0308897 0)
(4.23994 0.0294227 9.19641e-20)
(4.17393 0.0295024 -9.20473e-20)
(4.11092 0.0331531 0)
(4.02246 0.035319 0)
(3.95321 0.0448163 0)
(3.8165 0.0463884 2.78634e-19)
(3.75782 0.0733449 0)
(3.50935 0.0745412 -1.87397e-19)
(0.0295525 0.28263 -1.99687e-23)
(0.0532064 0.292259 5.80513e-20)
(0.207022 -0.0475124 0)
(0.434273 -0.50165 -5.64788e-20)
(0.652553 -0.83786 0)
(0.836582 -1.00599 0)
(0.990131 -1.04417 -5.58138e-22)
(1.12386 -1.01632 2.48655e-20)
(1.24881 -0.959832 2.51586e-20)
(1.3721 -0.889658 2.40899e-20)
(1.49461 -0.812607 0)
(1.61576 -0.731154 0)
(1.73198 -0.645235 -2.50472e-20)
(1.83895 -0.553851 -5.02066e-20)
(1.93274 -0.45645 5.02466e-20)
(2.00955 -0.353145 0)
(2.06617 -0.245137 4.98916e-20)
(2.10004 -0.134313 -2.35195e-20)
(2.1095 -0.022969 0)
(2.09374 0.0863193 4.75546e-20)
(2.05305 0.191281 2.1948e-20)
(1.9882 0.289285 -4.44585e-20)
(1.90107 0.378092 -2.02697e-20)
(1.79422 0.456047 0)
(1.67079 0.521808 3.81924e-20)
(1.53432 0.574471 3.58332e-20)
(1.38851 0.613413 0)
(1.23707 0.63785 3.09667e-20)
(1.08376 0.647816 0)
(0.931968 0.643315 2.61063e-20)
(0.785003 0.624436 1.15607e-20)
(0.646037 0.591844 0)
(0.51811 0.547127 0)
(0.403994 0.492177 0)
(0.306103 0.429653 0)
(0.2269 0.362072 0)
(0.168283 0.292101 0)
(0.132214 0.221471 8.79983e-21)
(0.11969 0.151549 -1.04556e-20)
(0.131697 0.0837458 0)
(0.168122 0.0179641 0)
(0.228919 -0.0458611 0)
(0.313408 -0.109013 5.58812e-22)
(0.418126 -0.172908 -1.08404e-21)
(0.537609 -0.237599 -5.52784e-21)
(0.667933 -0.299164 8.02571e-21)
(0.806642 -0.349589 5.50724e-21)
(0.952611 -0.385754 -5.82605e-21)
(1.10405 -0.408891 -5.71093e-22)
(1.25735 -0.421145 -7.88707e-21)
(1.40901 -0.427461 0)
(1.55572 -0.433296 -8.57716e-21)
(1.69272 -0.441301 -2.51641e-22)
(1.81835 -0.454754 0)
(1.93495 -0.478691 0)
(2.04218 -0.510567 7.92266e-21)
(2.14107 -0.53462 0)
(2.24305 -0.539838 0)
(2.3566 -0.533574 -5.24598e-21)
(2.47408 -0.514259 -1.06103e-20)
(2.57408 -0.441134 5.92463e-21)
(2.61903 -0.250422 0)
(2.57544 0.0322752 -5.53493e-21)
(2.50018 0.18853 0)
(2.48139 0.0765959 -4.08342e-21)
(2.18387 0.134218 -6.88101e-21)
(1.15176 0.844624 1.29905e-20)
(-0.236833 1.76152 3.80304e-21)
(-1.43358 2.3673 0)
(-2.29417 2.59804 -3.35109e-21)
(-2.90626 2.56795 0)
(-3.35353 2.37103 9.82243e-21)
(-3.71672 2.10252 1.93969e-20)
(-4.03066 1.82271 2.8741e-20)
(-4.31585 1.56104 -3.81616e-20)
(-4.57975 1.33092 6.69082e-20)
(-4.82553 1.13478 0)
(-5.05458 0.969419 0)
(-5.26645 0.830778 -7.01626e-20)
(-5.46118 0.71328 -1.12794e-19)
(-5.6383 0.612026 0)
(-5.79719 0.522601 4.19441e-20)
(-5.93737 0.441257 0)
(-6.058 0.365335 -1.39394e-19)
(-6.15797 0.29271 2.22694e-21)
(-6.23612 0.221563 -2.2583e-21)
(-6.29107 0.150674 9.87695e-20)
(-6.32151 0.0792884 0)
(-6.32603 0.00701214 -9.78282e-20)
(-6.30312 -0.06595 2.57355e-21)
(-6.25143 -0.139418 0)
(-6.17036 -0.212414 0)
(-6.05958 -0.283705 0)
(-5.91937 -0.35191 7.50598e-20)
(-5.75069 -0.415562 0)
(-5.55519 -0.473258 0)
(-5.33523 -0.523687 0)
(-5.09377 -0.565713 0)
(-4.83438 -0.598735 0)
(-4.56096 -0.622876 2.93638e-20)
(-4.27664 -0.639213 0)
(-3.98425 -0.648549 1.16498e-20)
(-3.687 -0.651237 3.95115e-21)
(-3.38775 -0.648079 3.3049e-21)
(-3.08896 -0.639982 0)
(-2.79282 -0.627933 1.62323e-20)
(-2.50097 -0.613007 0)
(-2.21459 -0.596289 2.68387e-20)
(-1.93436 -0.578786 -3.12688e-20)
(-1.66053 -0.561242 -1.04461e-19)
(-1.39311 -0.544266 0)
(-1.13169 -0.528498 -1.23079e-19)
(-0.875777 -0.514276 -4.26763e-20)
(-0.624591 -0.501756 0)
(-0.37734 -0.490822 -9.40173e-20)
(-0.133301 -0.481154 -9.68641e-20)
(0.108575 -0.472825 1.49198e-19)
(0.349014 -0.46582 0)
(0.58863 -0.459773 5.14081e-20)
(0.827834 -0.454308 5.16921e-20)
(1.06681 -0.449052 1.53962e-19)
(1.30548 -0.443519 0)
(1.54353 -0.437231 0)
(1.7805 -0.429867 0)
(2.01562 -0.421205 4.92161e-20)
(2.24787 -0.411082 0)
(2.47596 -0.39945 0)
(2.69848 -0.386536 -4.81189e-20)
(2.91408 -0.372766 -4.70837e-20)
(3.12165 -0.358476 0)
(3.32034 -0.344003 0)
(3.5096 -0.329699 -8.72319e-20)
(3.68941 -0.315763 0)
(3.86015 -0.302444 8.25977e-20)
(4.02247 -0.2899 7.92414e-20)
(4.17694 -0.277901 0)
(4.3243 -0.266029 0)
(4.46507 -0.253567 -7.43449e-20)
(4.59936 -0.239536 -9.79991e-22)
(4.72698 -0.223258 -8.90393e-22)
(4.84705 -0.204058 0)
(4.95809 -0.181309 -1.45183e-19)
(5.0587 -0.155435 0)
(5.14745 -0.127039 0)
(5.22253 -0.0962796 0)
(5.28347 -0.0644919 7.44577e-20)
(5.33197 -0.0332589 0)
(5.36974 -0.00538698 -1.51666e-19)
(5.39677 0.0182208 -7.70665e-20)
(5.41297 0.0369185 0)
(5.41872 0.0505587 -7.9225e-20)
(5.41509 0.059486 0)
(5.40359 0.0644478 0)
(5.38613 0.0663714 -2.47749e-19)
(5.36469 0.0662213 1.67304e-19)
(5.34121 0.0648256 0)
(5.31747 0.0629621 1.71052e-19)
(5.29486 0.0612192 -8.62636e-20)
(5.27434 0.0598689 0)
(5.25654 0.0591507 0)
(5.24166 0.0592619 0)
(5.2297 0.0600891 -2.659e-19)
(5.22045 0.0614716 0)
(5.21322 0.0632577 -8.92545e-20)
(5.20754 0.0647304 0)
(5.20278 0.0646249 0)
(5.19737 0.0623 0)
(5.18907 0.0579918 0)
(5.17724 0.0527072 0)
(5.15983 0.0476625 0)
(5.13784 0.0448298 -1.79744e-19)
(5.10791 0.0443938 0)
(5.07515 0.0476851 -9.01193e-20)
(5.03047 0.0520663 2.70745e-19)
(4.98694 0.0613042 0)
(4.91966 0.0680252 0)
(4.86538 0.0852524 -1.81698e-19)
(4.75813 0.0923592 -1.82629e-19)
(4.70267 0.130699 1.83081e-19)
(4.52062 0.143469 1.84604e-19)
(0.00208079 0.144598 -8.7483e-20)
(0.167738 -0.0806873 -8.6512e-20)
(0.4635 -0.611363 -5.66992e-20)
(0.719604 -1.03244 -2.79452e-20)
(0.897013 -1.23209 0)
(1.0145 -1.27656 5.27148e-20)
(1.11368 -1.25745 -2.65308e-20)
(1.21814 -1.21572 0)
(1.33417 -1.16627 -2.47533e-20)
(1.46118 -1.11022 0)
(1.59504 -1.04451 5.21531e-20)
(1.72983 -0.96539 0)
(1.85863 -0.870426 2.51213e-20)
(1.97578 -0.758903 5.05074e-20)
(2.07617 -0.631529 -5.07055e-20)
(2.15541 -0.490228 0)
(2.21024 -0.338025 -5.06476e-20)
(2.23831 -0.178839 0)
(2.23844 -0.0169372 0)
(2.21006 0.143815 -4.85711e-20)
(2.15306 0.298371 0)
(2.06823 0.442516 -3.35094e-21)
(1.95771 0.572459 0)
(1.82449 0.684957 0)
(1.67189 0.777577 2.67167e-21)
(1.50385 0.848427 -3.63245e-20)
(1.32552 0.896407 -3.58825e-20)
(1.1418 0.921324 -3.11661e-20)
(0.957629 0.923946 0)
(0.778525 0.905888 -5.33963e-20)
(0.608884 0.868857 0)
(0.451943 0.814773 -2.20676e-20)
(0.310888 0.74553 0)
(0.188071 0.663039 0)
(0.0858576 0.569533 1.49024e-20)
(0.00610189 0.4674 0)
(-0.049459 0.359578 -1.05552e-20)
(-0.0793497 0.249502 -7.36063e-23)
(-0.0828254 0.139667 1.31503e-20)
(-0.059872 0.0325209 -9.10637e-21)
(-0.0107552 -0.0699056 0)
(0.0632956 -0.166114 0)
(0.159633 -0.256258 1.21251e-21)
(0.275231 -0.340058 0)
(0.405632 -0.415782 2.95853e-21)
(0.546232 -0.482263 -4.14346e-21)
(0.694413 -0.539236 -5.19622e-21)
(0.848444 -0.585989 0)
(1.00618 -0.621607 6.86893e-21)
(1.16683 -0.646777 7.47665e-21)
(1.33009 -0.663779 -1.67688e-20)
(1.49356 -0.671623 8.21015e-21)
(1.65315 -0.669572 8.33013e-21)
(1.80589 -0.666719 0)
(1.94975 -0.671144 0)
(2.08242 -0.676324 -7.7403e-21)
(2.20632 -0.680882 0)
(2.33562 -0.696933 0)
(2.48022 -0.709846 1.18273e-20)
(2.61628 -0.657733 1.03798e-20)
(2.69088 -0.490365 0)
(2.6734 -0.240179 0)
(2.59083 -0.00552319 0)
(2.36448 0.246324 0)
(1.71205 0.763999 1.0232e-20)
(0.555597 1.63602 -7.3398e-21)
(-0.738245 2.53066 -1.27506e-20)
(-1.77477 3.10308 -1.46873e-20)
(-2.46269 3.29967 0)
(-2.89962 3.23581 1.08573e-20)
(-3.18975 3.01753 0)
(-3.41279 2.72259 -1.02616e-20)
(-3.61284 2.40683 1.07943e-20)
(-3.80824 2.10356 -2.70454e-20)
(-4.00634 1.82743 3.5578e-20)
(-4.20749 1.58377 7.07416e-21)
(-4.4078 1.37352 0)
(-4.6043 1.19315 6.3863e-20)
(-4.79332 1.03836 6.54138e-20)
(-4.97162 0.903728 1.46811e-19)
(-5.13714 0.784296 0)
(-5.28757 0.675824 -8.49785e-20)