/*--------------------------------*- C++ -*----------------------------------*\
| =========                 |                                                 |
| \\      /  F ield         | OpenFOAM: The Open Source CFD Toolbox           |
|  \\    /   O peration     | Version:  2112                                  |
|   \\  /    A nd           | Website:  www.openfoam.com                      |
|    \\/     M anipulation  |                                                 |
\*---------------------------------------------------------------------------*/
FoamFile
{
    version     2.0;
    format      ascii;
    arch        "LSB;label=32;scalar=64";
    class       volSymmTensorField;
    location    "0.24";
    object      turbulenceProperties:R;
}
// * * * * * * * * * * * * * * * * * * * * * * * * * * * * * * * * * * * * * //

dimensions      [0 2 -2 0 0 0 0];

internalField   nonuniform List<symmTensor> 
12225
(
(0.358408 -0.165853 -0 0.355174 -0 0.35649)
(0.53933 -0.249438 -0 0.533523 -0 0.536536)
(0.662916 -0.306519 -0 0.655487 -0 0.659281)
(0.735358 -0.339987 -0 0.727033 -0 0.731241)
(0.772186 -0.35703 -0 0.763488 -0 0.767914)
(0.784852 -0.36292 -0 0.77614 -0 0.780598)
(0.782646 -0.361939 -0 0.774122 -0 0.778482)
(0.775658 -0.358751 -0 0.767401 -0 0.771619)
(0.762255 -0.352597 -0 0.754338 -0 0.758372)
(0.745723 -0.345004 -0 0.738202 -0 0.742039)
(0.729921 -0.33774 -0 0.722767 -0 0.726402)
(0.712238 -0.32962 -0 0.705506 -0 0.70895)
(0.697856 -0.323012 -0 0.691489 -0 0.694706)
(0.680761 -0.315171 -0 0.674801 -0 0.677888)
(0.669306 -0.309929 -0 0.663792 -0 0.666523)
(0.653099 -0.302488 -0 0.647839 -0 0.650674)
(0.644916 -0.298853 -0 0.640647 -0 0.64257)
(0.628465 -0.291165 -1.03976e-21 0.623646 -0 0.626437)
(0.247888 -0.041335 -0 0.253976 -0 0.254901)
(0.255703 -0.0446385 -0 0.258117 -0 0.258149)
(0.260673 -0.0512481 -0 0.260972 -0 0.26075)
(0.263634 -0.0579142 -0 0.262689 -0 0.262742)
(0.265371 -0.0643269 -0 0.263629 -0 0.264097)
(0.266769 -0.0706321 -0 0.264401 -0 0.265247)
(0.26785 -0.0769231 -0 0.264919 -0 0.266084)
(0.269523 -0.0832878 -0 0.266123 -0 0.267543)
(0.271473 -0.0895301 -0 0.267626 -0 0.269304)
(0.274717 -0.0961959 -0 0.270516 -0 0.272389)
(0.277747 -0.102409 -0 0.273159 -0 0.275268)
(0.283293 -0.109614 -0 0.278475 -0 0.280681)
(0.287083 -0.115668 -0 0.281843 -0 0.284338)
(0.294997 -0.123634 -0 0.289797 -0 0.292158)
(0.300916 -0.129804 -0 0.294987 -0 0.297957)
(0.309011 -0.13781 -0 0.303942 -0 0.306016)
(0.315681 -0.143434 -0 0.308713 -0 0.312609)
(0.324438 -0.149855 -2.43162e-21 0.320862 -0 0.321336)
(0.211856 -0.0219456 -0 0.289473 -0 0.249013)
(0.234733 0.0125728 -0 0.265276 -0 0.248837)
(0.242631 0.0076008 -0 0.254092 -0 0.24809)
(0.24354 -0.000215832 -0 0.247751 -0 0.24563)
(0.241507 -0.00674858 -0 0.243198 -0 0.242648)
(0.238353 -0.0123413 -0 0.238827 -0 0.239032)
(0.234985 -0.0174618 -0 0.234675 -0 0.235242)
(0.231427 -0.0222201 -0 0.230527 -0 0.23134)
(0.227932 -0.026707 -0 0.226682 -0 0.227586)
(0.22479 -0.0309094 -0 0.22322 -0 0.224266)
(0.221745 -0.0348956 -0 0.220056 -0 0.221062)
(0.219321 -0.0386617 -0 0.217345 -0 0.218525)
(0.216985 -0.0423278 -0 0.215077 -0 0.216072)
(0.215684 -0.0457633 -0 0.213433 -0 0.214723)
(0.214083 -0.0491995 -0 0.212142 -0 0.213016)
(0.213363 -0.0525332 -0 0.21096 -0 0.212314)
(0.212731 -0.0555075 -0 0.210673 -0 0.211462)
(0.212952 -0.0575714 8.66802e-21 0.210395 -0 0.211961)
(0.166945 -0.059338 -0 0.332568 -0 0.250597)
(0.212175 0.0195114 -0 0.286861 -0 0.250127)
(0.232431 0.0234125 -0 0.264518 -0 0.250031)
(0.239145 0.0170804 -0 0.255869 -0 0.247829)
(0.239848 0.0120937 -0 0.252015 -0 0.245934)
(0.238992 0.00830238 -0 0.248763 -0 0.243845)
(0.237792 0.00502917 -0 0.245701 -0 0.241645)
(0.236133 0.00177329 -0 0.242523 -0 0.239167)
(0.234287 -0.00127519 -0 0.239649 -0 0.236787)
(0.232167 -0.00423042 -0 0.236751 -0 0.23429)
(0.230102 -0.00698047 -0 0.234102 -0 0.231957)
(0.227872 -0.00966499 -0 0.231421 -0 0.229518)
(0.225954 -0.0122019 -0 0.229109 -0 0.227448)
(0.223786 -0.014585 -0 0.226769 -0 0.225172)
(0.222129 -0.0168881 -0 0.224761 -0 0.223422)
(0.219991 -0.019203 -0 0.22272 -0 0.221248)
(0.218874 -0.0206577 -0 0.220747 -0 0.219882)
(0.217316 -0.0228303 -4.1569e-20 0.218859 -0 0.21833)
(0.159821 -0.0730915 -0 0.340664 -0 0.249644)
(0.1819 0.0145126 -0 0.316972 -0 0.25075)
(0.215192 0.0309327 -0 0.282639 -0 0.250599)
(0.228836 0.0260359 -0 0.268538 -0 0.248796)
(0.232891 0.0213077 -0 0.262827 -0 0.247675)
(0.234487 0.0181634 -0 0.258863 -0 0.246639)
(0.235319 0.0156894 -0 0.255585 -0 0.245458)
(0.235552 0.0131484 -0 0.252591 -0 0.24407)
(0.2352 0.0108824 -0 0.25021 -0 0.24269)
(0.234467 0.00873283 -0 0.247923 -0 0.241206)
(0.233524 0.00688545 -0 0.246016 -0 0.239775)
(0.232406 0.00512079 -0 0.244031 -0 0.238245)
(0.231295 0.00360356 -0 0.242415 -0 0.236869)
(0.229995 0.00217419 -0 0.240641 -0 0.235308)
(0.228912 0.00105482 -0 0.239177 -0 0.234086)
(0.227514 1.26595e-05 -0 0.237585 -0 0.232467)
(0.227088 -0.000594736 -0 0.235666 -0 0.231549)
(0.22606 -0.0013595 1.52237e-19 0.234099 -0 0.229859)
(0.165885 -0.0793886 -0 0.335725 -0 0.24853)
(0.15461 0.00447402 -0 0.344672 -0 0.250569)
(0.195487 0.0325107 -0 0.303109 -0 0.250529)
(0.214478 0.0309732 -0 0.283915 -0 0.249346)
(0.221762 0.0272609 -0 0.275646 -0 0.248617)
(0.225597 0.0248059 -0 0.270322 -0 0.248034)
(0.228198 0.0228287 -0 0.266197 -0 0.247308)
(0.229951 0.0206467 -0 0.262765 -0 0.246445)
(0.230783 0.0187094 -0 0.260231 -0 0.245563)
(0.231121 0.0169317 -0 0.258015 -0 0.244631)
(0.231042 0.0155205 -0 0.256275 -0 0.243705)
(0.230794 0.0142707 -0 0.254561 -0 0.242729)
(0.230372 0.0133183 -0 0.253171 -0 0.241808)
(0.229875 0.0125509 -0 0.251685 -0 0.240795)
(0.229365 0.0122227 -0 0.250439 -0 0.239947)
(0.22896 0.0119584 -0 0.248896 -0 0.238894)
(0.229166 0.0121002 -0 0.247073 -0 0.238159)
(0.2294 0.0121496 -1.09935e-19 0.245005 -0 0.237024)
(0.169946 -0.0838784 -0 0.330958 -0 0.249215)
(0.138185 -0.00589758 -0 0.361617 -0 0.250146)
(0.177107 0.0291042 -0 0.321963 -0 0.250402)
(0.198351 0.0323778 -0 0.300553 -0 0.249647)
(0.208093 0.0307952 -0 0.290199 -0 0.24911)
(0.213849 0.0294678 -0 0.283448 -0 0.248734)
(0.21802 0.0281288 -0 0.27826 -0 0.248243)
(0.221071 0.0263794 -0 0.274107 -0 0.247665)
(0.222965 0.0247542 -0 0.271072 -0 0.247063)
(0.224215 0.0232944 -0 0.268576 -0 0.246441)
(0.224911 0.0222103 -0 0.266643 -0 0.24581)
(0.225396 0.02135 -0 0.264849 -0 0.245155)
(0.225628 0.0208297 -0 0.263351 -0 0.244519)
(0.225824 0.0205948 -0 0.261835 -0 0.243832)
(0.225983 0.0208132 -0 0.26042 -0 0.243237)
(0.226513 0.0210793 -0 0.258604 -0 0.242514)
(0.227409 0.0217878 -0 0.256499 -0 0.24199)
(0.228927 0.0221648 -0 0.25364 -0 0.241289)
(0.172333 -0.0864772 -0 0.327748 -0 0.249995)
(0.134988 -0.0152848 -0 0.365456 -0 0.249526)
(0.162392 0.0224657 -0 0.336889 -0 0.250361)
(0.182789 0.0307921 -0 0.316436 -0 0.249775)
(0.193709 0.032048 -0 0.305106 -0 0.249372)
(0.200786 0.032267 -0 0.297323 -0 0.249117)
(0.206158 0.0318302 -0 0.291234 -0 0.248769)
(0.210234 0.0307253 -0 0.286386 -0 0.248365)
(0.213047 0.0295572 -0 0.282767 -0 0.247936)
(0.215088 0.0285048 -0 0.27985 -0 0.247501)
(0.216509 0.0277823 -0 0.277548 -0 0.24705)
(0.217664 0.0273172 -0 0.275473 -0 0.24659)
(0.21855 0.0272106 -0 0.273673 -0 0.246133)
(0.219427 0.0274315 -0 0.271874 -0 0.245646)
(0.220338 0.0280556 -0 0.270041 -0 0.245213)
(0.22174 0.0287343 -0 0.267739 -0 0.244703)
(0.22338 0.0297963 -0 0.265161 -0 0.244342)
(0.225973 0.0303477 -0 0.261655 -0 0.243809)
(0.175438 -0.0893471 -0 0.324191 -0 0.250399)
(0.137792 -0.0242952 -0 0.362932 -0 0.249225)
(0.152684 0.0141167 -0 0.346646 -0 0.250382)
(0.169649 0.0268661 -0 0.329762 -0 0.249837)
(0.18029 0.0311976 -0 0.318837 -0 0.249529)
(0.187839 0.0332462 -0 0.310768 -0 0.249351)
(0.193847 0.033966 -0 0.304235 -0 0.249096)
(0.19857 0.0337272 -0 0.29895 -0 0.248803)
(0.202065 0.0331958 -0 0.294862 -0 0.248488)
(0.204748 0.0326743 -0 0.291541 -0 0.24817)
(0.206814 0.0323923 -0 0.288827 -0 0.247837)
(0.208582 0.0323604 -0 0.286386 -0 0.2475)
(0.210117 0.0326628 -0 0.284174 -0 0.247161)
(0.211679 0.0332779 -0 0.281939 -0 0.246804)
(0.213363 0.034218 -0 0.279564 -0 0.246479)
(0.215563 0.0352085 -0 0.276703 -0 0.246106)
(0.217966 0.0363898 -0 0.27357 -0 0.245846)
(0.22144 0.0370066 3.46616e-19 0.269478 -0 0.245401)
(0.186183 -0.0877638 -0 0.313433 -0 0.250368)
(0.146722 -0.032107 -0 0.353836 -0 0.249342)
(0.148591 0.0051685 -0 0.350761 -0 0.250362)
(0.160255 0.021319 -0 0.339252 -0 0.249867)
(0.169169 0.0285934 -0 0.330136 -0 0.249631)
(0.176229 0.032574 -0 0.322686 -0 0.249502)
(0.1822 0.0346166 -0 0.316323 -0 0.24931)
(0.187109 0.0354052 -0 0.310993 -0 0.249092)
(0.190972 0.0356569 -0 0.306685 -0 0.248856)
(0.194091 0.0357708 -0 0.303088 -0 0.248617)
(0.196665 0.036002 -0 0.300025 -0 0.248365)
(0.198962 0.0364293 -0 0.297223 -0 0.248111)
(0.201097 0.0371258 -0 0.294576 -0 0.247853)
(0.203306 0.0380777 -0 0.291857 -0 0.247585)
(0.20571 0.0392544 -0 0.288926 -0 0.247334)
(0.208619 0.040429 -0 0.28552 -0 0.247049)
(0.211712 0.0415743 -0 0.281841 -0 0.246865)
(0.215873 0.0421751 -3.67132e-19 0.277259 -0 0.246479)
(0.202139 -0.0783362 -0 0.297758 -0 0.250044)
(0.158315 -0.0373545 -0 0.342183 -0 0.249334)
(0.149953 -0.00311497 -0 0.349515 -0 0.250206)
(0.155194 0.0150191 -0 0.344358 -0 0.249866)
(0.161196 0.0247412 -0 0.338207 -0 0.249686)
(0.16686 0.0305448 -0 0.332251 -0 0.249587)
(0.172121 0.0339471 -0 0.326695 -0 0.249442)
(0.176729 0.0358328 -0 0.321766 -0 0.249277)
(0.1806 0.0369501 -0 0.317557 -0 0.249098)
(0.183902 0.0377607 -0 0.31389 -0 0.248915)
(0.186797 0.0385466 -0 0.310621 -0 0.248722)
(0.189493 0.0394348 -0 0.307537 -0 0.248527)
(0.192123 0.0404961 -0 0.304514 -0 0.248327)
(0.194881 0.0417223 -0 0.301359 -0 0.248122)
(0.197889 0.0430547 -0 0.297941 -0 0.247926)
(0.201373 0.0443 -0 0.294071 -0 0.247703)
(0.205011 0.0453359 -0 0.289949 -0 0.247579)
(0.209655 0.0458953 -0 0.285021 -0 0.247232)
(0.212649 -0.0698876 -0 0.287227 -0 0.25003)
(0.169992 -0.0393473 -0 0.330441 -0 0.249329)
(0.154944 -0.00929004 -0 0.344626 -0 0.250041)
(0.154331 0.00928111 -0 0.345252 -0 0.249823)
(0.157068 0.0205364 -0 0.342394 -0 0.249685)
(0.160846 0.0277187 -0 0.338388 -0 0.24961)
(0.164954 0.032261 -0 0.334048 -0 0.249499)
(0.168895 0.0351133 -0 0.329854 -0 0.249372)
(0.172458 0.0370204 -0 0.326023 -0 0.249233)
(0.175687 0.0384684 -0 0.322505 -0 0.249091)
(0.178683 0.0397561 -0 0.319211 -0 0.24894)
(0.181591 0.0410382 -0 0.315992 -0 0.248786)
(0.184532 0.0423878 -0 0.312734 -0 0.248628)
(0.187658 0.0438004 -0 0.309287 -0 0.248467)
(0.191064 0.0452053 -0 0.305548 -0 0.248311)
(0.194913 0.0464419 -0 0.301386 -0 0.248129)
(0.198874 0.0473502 -0 0.297009 -0 0.248047)
(0.203776 0.0478742 -0 0.29192 -0 0.24772)
(0.220587 -0.0606435 -0 0.279098 -0 0.250191)
(0.18114 -0.038704 -0 0.319188 -0 0.249364)
(0.161904 -0.0135305 -0 0.337681 -0 0.24995)
(0.1562 0.00431041 -0 0.343337 -0 0.249822)
(0.155561 0.0163337 -0 0.343894 -0 0.249699)
(0.157121 0.0245207 -0 0.342158 -0 0.249637)
(0.159741 0.0300247 -0 0.339356 -0 0.249552)
(0.162721 0.0337441 -0 0.336178 -0 0.249453)
(0.16572 0.0363853 -0 0.332968 -0 0.249345)
(0.168663 0.0384311 -0 0.329797 -0 0.249232)
(0.171575 0.0401862 -0 0.326648 -0 0.249113)
(0.174539 0.0418209 -0 0.323437 -0 0.248989)
(0.177641 0.0434125 -0 0.320082 -0 0.248862)
(0.180984 0.0449614 -0 0.31648 -0 0.24873)
(0.184632 0.0463977 -0 0.312563 -0 0.248601)
(0.188685 0.047595 -0 0.308259 -0 0.248447)
(0.192813 0.0483823 -0 0.30377 -0 0.248396)
(0.197814 0.0488891 -0 0.298662 -0 0.248079)
(0.227068 -0.0504836 -0 0.272508 -0 0.250272)
(0.192331 -0.0358415 -0 0.307884 -0 0.249402)
(0.170923 -0.0161622 -0 0.32864 -0 0.249877)
(0.160871 -0.000174262 -0 0.33858 -0 0.249827)
(0.156719 0.0117676 -0 0.342684 -0 0.249706)
(0.155663 0.0205102 -0 0.343612 -0 0.249651)
(0.156371 0.0267734 -0 0.342764 -0 0.249588)
(0.158014 0.0312723 -0 0.340973 -0 0.249514)
(0.16013 0.0346164 -0 0.338696 -0 0.249432)
(0.162525 0.0372488 -0 0.336128 -0 0.249346)
(0.165135 0.0394624 -0 0.333336 -0 0.249254)
(0.167969 0.0414302 -0 0.330311 -0 0.249157)
(0.17106 0.0432333 -0 0.327022 -0 0.249056)
(0.174455 0.0448794 -0 0.323423 -0 0.248951)
(0.178176 0.046313 -0 0.319489 -0 0.248846)
(0.182262 0.0474409 -0 0.315204 -0 0.248719)
(0.186391 0.0481145 -0 0.310765 -0 0.248694)
(0.19131 0.0486167 -0 0.305806 -0 0.248389)
(0.232095 -0.039968 -0 0.267457 -0 0.250273)
(0.202608 -0.0309089 -0 0.29751 -0 0.249429)
(0.180951 -0.016678 -0 0.318606 -0 0.249778)
(0.16794 -0.00348565 -0 0.33143 -0 0.249797)
(0.160675 0.00737718 -0 0.338655 -0 0.249687)
(0.156946 0.015962 -0 0.342295 -0 0.24963)
(0.155507 0.0225391 -0 0.343629 -0 0.249581)
(0.155524 0.0275456 -0 0.343503 -0 0.249527)
(0.156467 0.0314268 -0 0.342442 -0 0.249467)
(0.158045 0.0345401 -0 0.340738 -0 0.249404)
(0.160104 0.0371374 -0 0.338542 -0 0.249335)
(0.162578 0.0393769 -0 0.335925 -0 0.249263)
(0.165434 0.041338 -0 0.332918 -0 0.249186)
(0.168658 0.0430378 -0 0.329535 -0 0.249105)
(0.172227 0.0444426 -0 0.325801 -0 0.249022)
(0.176124 0.045492 -0 0.321745 -0 0.248921)
(0.180046 0.0460802 -0 0.317561 -0 0.248916)
(0.184674 0.0466063 -0 0.312938 -0 0.248633)
(0.235802 -0.0294191 -0 0.26376 -0 0.250248)
(0.211255 -0.0242365 -0 0.288767 -0 0.249465)
(0.190781 -0.0148459 -0 0.308771 -0 0.249683)
(0.176372 -0.00502659 -0 0.322925 -0 0.249746)
(0.166885 0.00382141 -0 0.33235 -0 0.249655)
(0.160886 0.0113653 -0 0.338281 -0 0.249591)
(0.157398 0.0175572 -0 0.341688 -0 0.249549)
(0.155718 0.0225575 -0 0.343287 -0 0.249507)
(0.155329 0.0266116 -0 0.343592 -0 0.249463)
(0.15589 0.0299504 -0 0.34294 -0 0.249416)
(0.157182 0.0327523 -0 0.341549 -0 0.249366)
(0.159067 0.0351372 -0 0.339558 -0 0.249313)
(0.161451 0.037171 -0 0.337061 -0 0.249256)
(0.164263 0.0388751 -0 0.334127 -0 0.249196)
(0.167436 0.0402366 -0 0.330826 -0 0.249131)
(0.170912 0.0412236 -0 0.327224 -0 0.249054)
(0.174416 0.0417739 -0 0.323504 -0 0.249058)
(0.178531 0.042362 -0 0.319415 -0 0.248811)
(0.238339 -0.0188607 -0 0.261242 -0 0.250218)
(0.217785 -0.0162005 -0 0.282156 -0 0.2495)
(0.199157 -0.0107756 -0 0.300387 -0 0.249609)
(0.184625 -0.00448832 -0 0.314616 -0 0.249687)
(0.174041 0.00166198 -0 0.325099 -0 0.249615)
(0.166549 0.00730776 -0 0.332524 -0 0.249545)
(0.161506 0.0122794 -0 0.337495 -0 0.249501)
(0.158387 0.0165574 -0 0.340546 -0 0.249463)
(0.156762 0.0202142 -0 0.342105 -0 0.249426)
(0.156293 0.0233463 -0 0.342506 -0 0.249389)
(0.156731 0.0260383 -0 0.341994 -0 0.24935)
(0.157894 0.0283512 -0 0.340751 -0 0.24931)
(0.159641 0.03032 -0 0.338916 -0 0.249267)
(0.16186 0.0319573 -0 0.336603 -0 0.249221)
(0.164451 0.0332585 -0 0.33391 -0 0.249171)
(0.167329 0.0342089 -0 0.330928 -0 0.249113)
(0.170263 0.0347749 -0 0.327821 -0 0.249117)
(0.173688 0.0354579 -0 0.324413 -0 0.248921)
(0.239818 -0.00796394 -0 0.25977 -0 0.250205)
(0.221874 -0.00702216 -0 0.277996 -0 0.249545)
(0.204927 -0.00483855 -0 0.294573 -0 0.249601)
(0.190963 -0.00202025 -0 0.308197 -0 0.249688)
(0.180247 0.00103303 -0 0.318776 -0 0.249627)
(0.17222 0.0041248 -0 0.326724 -0 0.249548)
(0.166427 0.00712053 -0 0.332446 -0 0.24949)
(0.162498 0.00994099 -0 0.336312 -0 0.249444)
(0.160084 0.0125539 -0 0.338668 -0 0.249399)
(0.15888 0.0149486 -0 0.339815 -0 0.249356)
(0.15864 0.0171196 -0 0.339995 -0 0.249314)
(0.159165 0.0190606 -0 0.339404 -0 0.249272)
(0.160296 0.0207623 -0 0.3382 -0 0.249229)
(0.161901 0.0222124 -0 0.336516 -0 0.249184)
(0.163868 0.0233968 -0 0.334463 -0 0.249137)
(0.166102 0.0243009 -0 0.332141 -0 0.249086)
(0.168429 0.0249014 -0 0.32968 -0 0.249071)
(0.17109 0.0256698 -0 0.327002 -0 0.248933)
(0.240078 0.00400717 -0 0.259554 -0 0.250159)
(0.222735 0.00329598 -0 0.277197 -0 0.249478)
(0.206491 0.00229464 -0 0.293088 -0 0.249508)
(0.193197 0.0015175 -0 0.30603 -0 0.249595)
(0.183066 0.00120586 -0 0.316 -0 0.24954)
(0.17551 0.00136922 -0 0.323454 -0 0.249463)
(0.170059 0.00194508 -0 0.328806 -0 0.24941)
(0.166347 0.00285003 -0 0.332424 -0 0.249368)
(0.164036 0.00398939 -0 0.334647 -0 0.249327)
(0.162833 0.00526906 -0 0.335767 -0 0.249286)
(0.162495 0.00660507 -0 0.336019 -0 0.249245)
(0.162832 0.00792707 -0 0.335594 -0 0.249204)
(0.163689 0.00917815 -0 0.334644 -0 0.24916)
(0.164941 0.0103136 -0 0.333295 -0 0.249115)
(0.166486 0.0112991 -0 0.331649 -0 0.249068)
(0.168237 0.0121085 -0 0.329794 -0 0.249019)
(0.170088 0.0127159 -0 0.327819 -0 0.248982)
(0.172092 0.0135019 -0 0.325735 -0 0.248897)
(0.238462 0.0160203 -0 0.261138 -0 0.250197)
(0.219155 0.0129922 -0 0.280743 -0 0.249534)
(0.202466 0.0083028 -0 0.297028 -0 0.249628)
(0.19 0.00383513 -0 0.309161 -0 0.249702)
(0.181296 0.000385026 -0 0.317736 -0 0.249608)
(0.175334 -0.00199263 -0 0.3236 -0 0.249507)
(0.171427 -0.00340242 -0 0.327393 -0 0.249434)
(0.169096 -0.00399882 -0 0.329608 -0 0.24937)
(0.16794 -0.0039732 -0 0.330649 -0 0.249305)
(0.167646 -0.00351573 -0 0.330824 -0 0.24924)
(0.167987 -0.00278744 -0 0.330361 -0 0.249176)
(0.168794 -0.00191392 -0 0.329426 -0 0.249111)
(0.169941 -0.000989354 -0 0.328147 -0 0.249045)
(0.171331 -8.23076e-05 -0 0.326621 -0 0.248977)
(0.172887 0.000758276 -0 0.324925 -0 0.248907)
(0.174547 0.00149802 -0 0.323123 -0 0.248837)
(0.176267 0.00210665 -0 0.321262 -0 0.248762)
(0.177968 0.00286165 -0 0.319409 -0 0.248697)
(0.235185 0.027376 -0 0.264469 -0 0.250154)
(0.212356 0.0204906 -0 0.287682 -0 0.249431)
(0.195412 0.0113317 -0 0.304153 -0 0.249615)
(0.184791 0.0034399 -0 0.31445 -0 0.249682)
(0.178586 -0.00229351 -0 0.320538 -0 0.24956)
(0.175059 -0.00617632 -0 0.323928 -0 0.249459)
(0.173344 -0.00856296 -0 0.325475 -0 0.24939)
(0.172868 -0.00977401 -0 0.325777 -0 0.249319)
(0.173201 -0.0101359 -0 0.32527 -0 0.24924)
(0.174054 -0.00993711 -0 0.324239 -0 0.249157)
(0.175247 -0.00939612 -0 0.322863 -0 0.249071)
(0.176663 -0.00866703 -0 0.321258 -0 0.248982)
(0.178224 -0.00785555 -0 0.319507 -0 0.24889)
(0.179869 -0.00703364 -0 0.317668 -0 0.248796)
(0.181555 -0.00624973 -0 0.315787 -0 0.248699)
(0.183244 -0.00553589 -0 0.313901 -0 0.248603)
(0.184935 -0.00492086 -0 0.312022 -0 0.248496)
(0.186502 -0.00420241 -0 0.310236 -0 0.24842)
(0.229482 0.0397399 -0 0.270219 -0 0.250127)
(0.202228 0.0261253 -0 0.297923 -0 0.249375)
(0.186822 0.0111789 -0 0.312719 -0 0.249708)
(0.180205 0.000208314 -0 0.319019 -0 0.24975)
(0.177855 -0.00680231 -0 0.321253 -0 0.249579)
(0.177503 -0.0111765 -0 0.321417 -0 0.249462)
(0.178339 -0.0136865 -0 0.320346 -0 0.249373)
(0.179847 -0.0148363 -0 0.318601 -0 0.249269)
(0.181657 -0.0150748 -0 0.316551 -0 0.24915)
(0.183567 -0.0147639 -0 0.314393 -0 0.249025)
(0.185494 -0.0141468 -0 0.312209 -0 0.248897)
(0.1874 -0.0133759 -0 0.310041 -0 0.248765)
(0.189263 -0.0125443 -0 0.307911 -0 0.248631)
(0.191065 -0.0117121 -0 0.30584 -0 0.248494)
(0.192798 -0.0109168 -0 0.303836 -0 0.248356)
(0.194445 -0.0101826 -0 0.301915 -0 0.248219)
(0.196045 -0.00953257 -0 0.300056 -0 0.248069)
(0.19745 -0.00882747 6.76872e-20 0.298355 -0 0.247959)
(0.220449 0.0533929 -0 0.279372 -0 0.250038)
(0.189334 0.0287517 -0 0.31092 -0 0.249338)
(0.179342 0.00690137 -0 0.320118 -0 0.249845)
(0.179313 -0.00589811 -0 0.319833 -0 0.249827)
(0.181723 -0.012608 -0 0.317289 -0 0.249583)
(0.184577 -0.0163121 -0 0.314164 -0 0.249435)
(0.187671 -0.01816 -0 0.310743 -0 0.249307)
(0.190741 -0.0187133 -0 0.307349 -0 0.249144)
(0.193566 -0.018462 -0 0.304191 -0 0.248963)
(0.196085 -0.0177948 -0 0.301324 -0 0.248777)
(0.198345 -0.0169359 -0 0.298701 -0 0.248589)
(0.200388 -0.0160083 -0 0.296286 -0 0.248397)
(0.202254 -0.015072 -0 0.294041 -0 0.248203)
(0.203958 -0.014167 -0 0.291955 -0 0.248007)
(0.205526 -0.0133123 -0 0.290004 -0 0.24781)
(0.206948 -0.0125242 -0 0.288194 -0 0.247616)
(0.208297 -0.0118149 -0 0.286473 -0 0.24741)
(0.209423 -0.0111014 -1.50477e-22 0.284944 -0 0.247243)
(0.2072 0.067372 -0 0.292786 -0 0.249915)
(0.176238 0.0265403 -0 0.32394 -0 0.249476)
(0.177067 -0.00196186 -0 0.322139 -0 0.250106)
(0.185113 -0.0139894 -0 0.313851 -0 0.249906)
(0.191745 -0.018417 -0 0.307063 -0 0.24953)
(0.196727 -0.0203827 -0 0.301679 -0 0.249332)
(0.201016 -0.0210093 -0 0.296924 -0 0.249135)
(0.204697 -0.0206666 -0 0.292785 -0 0.248884)
(0.20773 -0.0197618 -0 0.289273 -0 0.248609)
(0.210181 -0.0186564 -0 0.286314 -0 0.248333)
(0.212225 -0.0175112 -0 0.283739 -0 0.248055)
(0.213957 -0.0164041 -0 0.281462 -0 0.247773)
(0.215467 -0.0153453 -0 0.279398 -0 0.247488)
(0.216774 -0.0143571 -0 0.277533 -0 0.247202)
(0.217937 -0.0134332 -0 0.275809 -0 0.246914)
(0.218935 -0.0125885 -0 0.274248 -0 0.246632)
(0.219867 -0.0118145 -0 0.272764 -0 0.246339)
(0.220589 -0.0110826 -6.85821e-20 0.271476 -0 0.246083)
(0.188561 0.0777192 -0 0.312323 -0 0.249059)
(0.169376 0.0174351 -0 0.330491 -0 0.24982)
(0.184078 -0.0137874 -0 0.314576 -0 0.250578)
(0.198568 -0.0215551 -0 0.300139 -0 0.249889)
(0.207014 -0.0222 -0 0.291484 -0 0.249298)
(0.212157 -0.0219249 -0 0.285698 -0 0.249034)
(0.21616 -0.0211939 -0 0.280975 -0 0.248739)
(0.219325 -0.0199827 -0 0.277102 -0 0.248361)
(0.221727 -0.0185048 -0 0.273953 -0 0.247948)
(0.223483 -0.0170524 -0 0.271407 -0 0.247534)
(0.224842 -0.0156893 -0 0.269221 -0 0.247113)
(0.225899 -0.0144554 -0 0.267324 -0 0.246685)
(0.226773 -0.0133051 -0 0.265595 -0 0.24625)
(0.227458 -0.0122579 -0 0.264053 -0 0.245813)
(0.228039 -0.0112759 -0 0.26261 -0 0.245373)
(0.228473 -0.0103875 -0 0.261323 -0 0.24494)
(0.228869 -0.00955396 -0 0.260074 -0 0.244498)
(0.229104 -0.00879057 3.07418e-20 0.259 -0 0.244096)
(0.169722 0.0800813 -0 0.330807 -0 0.249448)
(0.177763 0.00150219 -0 0.321655 -0 0.250247)
(0.201451 -0.0234788 -0 0.2964 -0 0.251149)
(0.216871 -0.0247272 -0 0.281424 -0 0.249694)
(0.223778 -0.0218826 -0 0.274106 -0 0.24879)
(0.227205 -0.0198296 -0 0.269628 -0 0.248358)
(0.229698 -0.0180796 -0 0.265948 -0 0.247854)
(0.231517 -0.0162924 -0 0.262939 -0 0.247252)
(0.232728 -0.0144744 -0 0.260447 -0 0.246593)
(0.233421 -0.0128323 -0 0.258423 -0 0.245937)
(0.233834 -0.0113348 -0 0.256613 -0 0.245255)
(0.234026 -0.0100068 -0 0.255019 -0 0.244571)
(0.234108 -0.00876557 -0 0.253503 -0 0.243866)
(0.234058 -0.00763719 -0 0.252142 -0 0.243168)
(0.233951 -0.0065637 -0 0.250814 -0 0.242458)
(0.233747 -0.00558279 -0 0.249638 -0 0.241768)
(0.233525 -0.00465091 -0 0.248449 -0 0.24106)
(0.233221 -0.00379562 -2.3951e-20 0.247441 -0 0.240395)
(0.168767 0.0674967 -0 0.330704 -0 0.25055)
(0.201493 -0.013192 -0 0.298034 -0 0.25002)
(0.223548 -0.0244203 -0 0.273836 -0 0.251062)
(0.233998 -0.0205522 -0 0.263255 -0 0.249372)
(0.237228 -0.0162391 -0 0.258837 -0 0.248102)
(0.238131 -0.0134111 -0 0.25617 -0 0.247157)
(0.238513 -0.0111022 -0 0.253709 -0 0.246047)
(0.23857 -0.00895927 -0 0.251536 -0 0.244882)
(0.238245 -0.00689913 -0 0.249492 -0 0.24362)
(0.237664 -0.00502825 -0 0.247696 -0 0.242398)
(0.2369 -0.00329873 -0 0.245907 -0 0.241113)
(0.236069 -0.00170036 -0 0.244262 -0 0.239875)
(0.235161 -0.000197401 -0 0.242582 -0 0.238589)
(0.234245 0.00123438 -0 0.241043 -0 0.23737)
(0.233281 0.00258668 -0 0.239462 -0 0.236118)
(0.232341 0.00389738 -0 0.238043 -0 0.234952)
(0.231363 0.00513083 -0 0.236572 -0 0.23375)
(0.230448 0.00632309 7.31378e-21 0.235302 -0 0.232653)
(0.202508 0.0325225 -0 0.298289 -0 0.24946)
(0.227889 -0.0141647 -0 0.273053 -0 0.248595)
(0.239475 -0.0134628 -0 0.259197 -0 0.248906)
(0.243496 -0.00754918 -0 0.252576 -0 0.247798)
(0.243624 -0.00267584 -0 0.248813 -0 0.246363)
(0.242601 0.0011034 -0 0.246037 -0 0.244763)
(0.241009 0.00439747 -0 0.243234 -0 0.242658)
(0.23933 0.00748649 -0 0.240681 -0 0.240532)
(0.237277 0.0103333 -0 0.238011 -0 0.238137)
(0.235283 0.0130574 -0 0.2356 -0 0.235903)
(0.233081 0.0155146 -0 0.233087 -0 0.23351)
(0.231063 0.0179403 -0 0.230821 -0 0.231332)
(0.228952 0.0200996 -0 0.228498 -0 0.229078)
(0.227054 0.0223059 -0 0.226416 -0 0.227052)
(0.225156 0.0242342 -0 0.224354 -0 0.225042)
(0.223398 0.0262577 -0 0.222449 -0 0.223178)
(0.221767 0.0280087 -0 0.220687 -0 0.221463)
(0.220203 0.0298738 -5.96746e-21 0.219022 -0 0.219817)
(0.244087 0.0406612 -0 0.255371 -0 0.25439)
(0.250054 0.0402172 -0 0.255225 -0 0.254402)
(0.253232 0.0448923 -0 0.255238 -0 0.254394)
(0.254111 0.0495118 -0 0.254622 -0 0.253995)
(0.254145 0.0534689 -0 0.253972 -0 0.253649)
(0.253692 0.0570531 -0 0.253079 -0 0.253021)
(0.252768 0.0603335 -0 0.251772 -0 0.251931)
(0.251885 0.0635873 -0 0.250544 -0 0.250888)
(0.250898 0.0666774 -0 0.24926 -0 0.249773)
(0.250131 0.0697913 -0 0.248234 -0 0.248901)
(0.249502 0.0727659 -0 0.247374 -0 0.248183)
(0.249113 0.0758048 -0 0.246775 -0 0.247709)
(0.24908 0.0786941 -0 0.246551 -0 0.247601)
(0.249273 0.0817191 -0 0.246558 -0 0.247716)
(0.249809 0.0845381 -0 0.24693 -0 0.248187)
(0.25043 0.0875408 -0 0.24738 -0 0.248731)
(0.251493 0.090291 -0 0.248299 -0 0.24974)
(0.252435 0.0932737 1.0636e-21 0.249081 -0 0.250604)
(0.307392 0.142454 -0 0.30547 -0 0.306217)
(0.407748 0.188884 -0 0.404642 -0 0.406257)
(0.488644 0.226292 -0 0.484664 -0 0.486697)
(0.54981 0.254582 -0 0.545202 -0 0.547518)
(0.593885 0.274983 -0 0.588865 -0 0.591407)
(0.624385 0.289111 -0 0.619118 -0 0.621809)
(0.644509 0.298439 -0 0.639108 -0 0.641875)
(0.656995 0.304232 -0 0.651539 -0 0.654333)
(0.663828 0.30741 -0 0.658375 -0 0.661163)
(0.666732 0.30877 -0 0.661322 -0 0.664085)
(0.666275 0.308574 -0 0.660939 -0 0.663662)
(0.664793 0.307903 -0 0.659536 -0 0.662217)
(0.661617 0.306449 -0 0.656458 -0 0.659087)
(0.657448 0.304533 -0 0.652386 -0 0.654962)
(0.652723 0.302361 -0 0.64777 -0 0.65029)
(0.647657 0.300028 -0 0.6428 -0 0.645268)
(0.642438 0.297627 -0 0.637694 -0 0.640107)
(0.637187 0.295203 -0 0.632519 -0 0.634887)
(3.49946e-05 -2.85374e-07 3.58964e-28 3.41529e-05 -4.06972e-26 3.45673e-05)
(0.000262302 2.01039e-06 -1.48708e-24 0.000224051 1.22751e-24 0.000243051)
(0.000474136 1.32043e-05 2.78325e-24 0.000409338 -0 0.000441274)
(0.000629469 2.72745e-05 -3.19785e-27 0.0005602 -3.50127e-24 0.000594376)
(0.000726176 3.90886e-05 4.15095e-24 0.000669984 -0 0.000697414)
(0.000778278 4.60461e-05 -8.49565e-25 0.00074732 1.68087e-25 0.000762334)
(0.000809014 4.78628e-05 -4.76021e-24 0.000809224 4.65235e-24 0.000808993)
(0.000846294 4.51234e-05 4.49363e-27 0.000880263 4.92002e-24 0.000862894)
(0.000902304 3.74832e-05 -0 0.000971523 -0 0.000936342)
(0.000973879 2.43429e-05 -5.61e-24 0.00107715 5.71973e-24 0.00102501)
(0.00105498 5.60222e-06 1.41807e-26 0.00118495 7.25404e-25 0.00111955)
(0.00111863 -1.69355e-05 6.44736e-24 0.00126085 -0 0.00118958)
(0.00114901 -3.93676e-05 -0 0.00128502 -0 0.00121715)
(0.00115079 -5.79616e-05 -0 0.00126481 -0 0.00120817)
(0.00112905 -7.04642e-05 -5.90628e-24 0.00121061 -0 0.0011704)
(0.00105088 -7.35492e-05 -1.43212e-24 0.00109335 1.84508e-25 0.00107264)
(0.000839837 -6.14945e-05 4.22435e-24 0.000845345 -0 0.000842906)
(0.000709023 -5.10261e-05 -3.31702e-27 0.000689881 -3.63174e-24 0.000699806)
(0.000586335 -3.73927e-05 -0 0.000551923 -0 0.000569351)
(0.000415291 -1.89046e-05 -0 0.000381508 -0 0.000398503)
(0.000256068 -6.59668e-06 1.14698e-27 0.000234758 1.25582e-24 0.000245452)
(0.000208506 -3.5237e-06 -0 0.000193414 -0 0.000200948)
(0.000226096 -2.81281e-06 -9.79991e-25 0.000211724 -1.1071e-24 0.000218863)
(0.000273533 -8.11331e-07 1.14449e-24 0.000259133 -7.36659e-26 0.000266235)
(0.00031511 2.868e-06 3.39242e-27 0.000305621 4.70284e-26 0.000310254)
(0.000344404 6.12403e-06 -2.91284e-24 0.000346787 1.34766e-26 0.000345523)
(0.0003901 7.75074e-06 1.78533e-24 0.000410906 1.06533e-25 0.000400275)
(0.00050066 6.54228e-06 2.21698e-24 0.000552105 -0 0.000525913)
(0.000734094 -3.13735e-06 3.18091e-24 0.000839345 -0 0.000785898)
(0.00107125 -3.08086e-05 5.19369e-24 0.00123657 -7.95502e-25 0.00115265)
(0.00131261 -6.6964e-05 -4.43785e-24 0.00148671 5.73403e-24 0.00139908)
(0.00131074 -9.09266e-05 -5.37293e-24 0.00142915 -0 0.00136931)
(0.0011618 -8.83901e-05 4.474e-24 0.00120622 -0 0.00118351)
(0.000989338 -6.45054e-05 1.05641e-24 0.00101435 -1.14426e-25 0.00100137)
(0.000862008 -2.9597e-05 -3.29282e-24 0.000894889 -0 0.000876473)
(0.000676253 1.28709e-05 -2.43187e-24 0.000669978 -0 0.000675076)
(0.000723781 4.80189e-05 1.92301e-25 0.00067785 -2.33707e-25 0.00070209)
(0.000940651 5.80407e-05 6.08997e-26 0.000846014 -0 0.000894136)
(0.00163106 5.89796e-05 -6.67922e-24 0.00128814 -8.02088e-24 0.00146133)
(0.0075064 0.000675663 6.08639e-23 0.00498777 -2.32709e-23 0.00623991)
(0.0171507 0.00305189 8.80076e-23 0.0110834 -0 0.0140626)
(0.0252794 0.00589328 -0 0.0169493 -0 0.0210902)
(0.0322595 0.00884696 1.79218e-25 0.0224407 1.96221e-22 0.0273177)
(0.038248 0.0119111 2.0876e-25 0.0276886 2.2857e-22 0.0329364)
(0.0435801 0.0150144 -1.92779e-22 0.0327359 2.56777e-22 0.0381188)
(0.048401 0.0181054 4.04093e-22 0.0376051 -3.78131e-22 0.042961)
(0.052871 0.0211707 7.17633e-22 0.0423114 -9.40949e-23 0.047548)
(0.0569602 0.0236406 1.03159e-21 0.0469859 2.28822e-22 0.0519312)
(0.0608432 0.0257125 4.81372e-22 0.0515618 -3.25923e-22 0.0561626)
(0.0646351 0.0277011 -9.19297e-22 0.055979 7.76208e-23 0.0602709)
(0.068393 0.029636 -4.97708e-22 0.060283 -0 0.0643055)
(0.0721346 0.0315313 7.81872e-22 0.0644946 -6.92012e-23 0.068286)
(0.0758984 0.0334092 1.34387e-21 0.0686556 -4.20405e-22 0.072252)
(0.0796977 0.0352808 2.6052e-22 0.072788 -0 0.0762212)
(0.0835613 0.0371631 -0 0.0769277 -0 0.0802261)
(0.0875029 0.0390658 -2.63796e-22 0.0810964 -0 0.0842841)
(0.0915559 0.0410067 1.29629e-21 0.0853327 -5.82004e-23 0.0884311)
(0.095738 0.0429962 2.73718e-22 0.0896607 -0 0.0926881)
(0.100086 0.0450538 -3.62489e-25 0.094123 -3.96884e-22 0.0970966)
(0.104634 0.0471949 -0 0.0987517 -0 0.101688)
(0.109231 0.0493525 -3.77086e-25 0.103409 -4.12863e-22 0.106317)
(0.113886 0.0515334 -0 0.108112 -0 0.110997)
(0.118585 0.0537322 3.9102e-25 0.112851 4.28124e-22 0.115717)
(0.123338 0.0559548 -0 0.117639 -0 0.120489)
(0.128131 0.0581952 2.91866e-22 0.122466 -4.42664e-22 0.1253)
(0.132971 0.0604574 -1.78465e-21 0.127341 5.04904e-22 0.130158)
(0.137846 0.0627361 -3.01752e-22 0.132253 -0 0.135052)
(0.142759 0.0650333 -2.98581e-22 0.137207 4.6304e-22 0.139986)
(0.147698 0.0673442 1.6421e-21 0.142194 -5.49218e-23 0.14495)
(0.152666 0.0696696 2.30241e-21 0.147215 -5.47398e-23 0.149944)