/*--------------------------------*- C++ -*----------------------------------*\
| =========                 |                                                 |
| \\      /  F ield         | OpenFOAM: The Open Source CFD Toolbox           |
|  \\    /   O peration     | Version:  2112                                  |
|   \\  /    A nd           | Website:  www.openfoam.com                      |
|    \\/     M anipulation  |                                                 |
\*---------------------------------------------------------------------------*/
FoamFile
{
    version     2.0;
    format      ascii;
    arch        "LSB;label=32;scalar=64";
    class       volVectorField;
    location    "0.17";
    object      U;
}
// * * * * * * * * * * * * * * * * * * * * * * * * * * * * * * * * * * * * * //

dimensions      [0 1 -1 0 0 0 0];

internalField   nonuniform List<vector> 
12225
(
(9.6912 -0.0197563 0)
(9.29578 0.0100755 0)
(8.95682 0.0347571 0)
(8.6761 0.0342972 0)
(8.49141 0.0244285 0)
(8.33972 0.0324819 0)
(8.1382 0.0482017 0)
(7.89206 0.0526562 0)
(7.64546 0.0498096 0)
(7.40168 0.0557383 0)
(7.13088 0.0708714 0)
(6.82163 0.080323 0)
(6.52095 0.0752684 0)
(6.22313 0.061598 0)
(6.02136 0.0461112 0)
(5.74898 0.0530393 0)
(5.61788 0.0399133 0)
(5.27291 0.0788367 0)
(10.0081 0.168657 0)
(9.88985 0.150398 0)
(9.88409 0.101814 0)
(9.90002 0.0695071 0)
(9.88363 0.0501184 0)
(9.89695 0.049613 0)
(9.95756 0.0637919 0)
(10.0204 0.0777086 0)
(10.0432 0.0856982 0)
(10.019 0.0928261 0)
(9.96853 0.104584 0)
(9.90582 0.112858 0)
(9.84826 0.118372 0)
(9.77736 0.111207 0)
(9.71185 0.110198 0)
(9.60592 0.108806 0)
(9.51546 0.12067 0)
(9.37273 0.138499 0)
(9.98104 -0.0150831 0)
(10.0977 0.0179662 0)
(10.161 0.0376783 0)
(10.1227 0.0453432 0)
(10.0629 0.0315394 0)
(10.0531 0.0184963 0)
(10.0879 0.0198403 0)
(10.1263 0.0315433 0)
(10.142 0.0487455 0)
(10.1395 0.0719337 0)
(10.1428 0.0994043 0)
(10.163 0.119731 0)
(10.1959 0.127064 0)
(10.2244 0.123073 0)
(10.2407 0.120306 0)
(10.2362 0.126728 0)
(10.2192 0.141684 0)
(10.1812 0.166132 0)
(9.7821 0.136382 0)
(9.86655 0.0849993 0)
(9.95209 0.0921807 0)
(10.0138 0.0863796 0)
(10.0344 0.0565183 0)
(10.0722 0.0336773 0)
(10.1381 0.0381895 0)
(10.1891 0.0612011 0)
(10.1853 0.0855378 0)
(10.1298 0.101063 0)
(10.0614 0.106594 0)
(10.0186 0.102065 0)
(10.0148 0.0934739 0)
(10.0414 0.0874236 0)
(10.0832 0.0931609 0)
(10.1252 0.113352 0)
(10.1577 0.14542 0)
(10.1703 0.179782 0)
(9.8374 -0.0423942 0)
(9.90936 -0.0456298 0)
(9.98021 0.0121106 0)
(10.0261 0.0425314 0)
(10.0008 0.0224517 0)
(9.97238 -0.0103048 0)
(9.99054 -0.0134883 0)
(10.0433 0.0185478 0)
(10.0912 0.0679422 0)
(10.108 0.11116 0)
(10.0909 0.133779 0)
(10.0527 0.132117 0)
(10.012 0.114636 0)
(9.98334 0.0945789 0)
(9.97297 0.0856465 0)
(9.98064 0.0941089 0)
(10.0006 0.12039 0)
(10.0268 0.157361 0)
(10.0411 0.0199102 0)
(10.0375 0.0324233 0)
(10.0361 0.0526206 0)
(10.0243 0.0723266 0)
(9.99651 0.0642274 0)
(9.97786 0.0346323 0)
(9.96858 0.0141946 0)
(9.96069 0.024198 0)
(9.95234 0.059759 0)
(9.94593 0.101254 0)
(9.94708 0.131281 0)
(9.9593 0.140287 0)
(9.97794 0.129927 0)
(9.99351 0.111603 0)
(9.99749 0.0997048 0)
(9.99033 0.103721 0)
(9.97508 0.126018 0)
(9.95987 0.160724 0)
(9.73778 0.00976491 0)
(9.71655 -0.0600325 0)
(9.8089 0.0252951 0)
(9.89885 0.0704836 0)
(9.9551 0.0410721 0)
(10.006 -0.0034448 0)
(10.0381 -0.00808565 0)
(10.0278 0.0294825 0)
(9.98454 0.0795068 0)
(9.94263 0.11551 0)
(9.93492 0.12575 0)
(9.96577 0.113746 0)
(10.0174 0.0927554 0)
(10.0657 0.0781055 0)
(10.0945 0.0792826 0)
(10.0989 0.097772 0)
(10.0854 0.130914 0)
(10.0596 0.17093 0)
(9.92064 0.0542275 0)
(9.96296 -0.0212836 0)
(9.98074 -0.00983133 0)
(10.1181 0.0192619 0)
(10.2502 0.0206332 0)
(10.2918 0.00527041 0)
(10.2529 0.00895593 0)
(10.1901 0.0436008 0)
(10.1476 0.0879758 0)
(10.1392 0.116691 0)
(10.1502 0.119868 0)
(10.1609 0.104576 0)
(10.1596 0.0859296 0)
(10.1439 0.0782661 0)
(10.1204 0.0888074 0)
(10.0917 0.116075 0)
(10.0653 0.155147 0)
(10.0423 0.197163 0)
(9.80058 -0.0632524 0)
(9.92756 -0.0807781 0)
(9.99455 -0.0221266 0)
(10.0444 -0.0227029 0)
(10.1058 -0.0285728 0)
(10.1485 -0.0087963 0)
(10.1456 0.0316396 0)
(10.1098 0.0751914 0)
(10.0769 0.106236 0)
(10.0704 0.119229 0)
(10.0852 0.11761 0)
(10.0998 0.108162 0)
(10.1005 0.0984723 0)
(10.0863 0.094684 0)
(10.0707 0.102477 0)
(10.0646 0.12339 0)
(10.0736 0.154814 0)
(10.0955 0.193278 0)
(10.2167 0.0736134 0)
(10.0333 -0.113915 0)
(10.0745 -0.0568066 0)
(10.1985 -0.0205762 0)
(10.2536 -0.0265111 0)
(10.2265 -0.0110794 0)
(10.1618 0.0359675 0)
(10.1027 0.0821492 0)
(10.0728 0.10522 0)
(10.0741 0.10774 0)
(10.0873 0.102327 0)
(10.0904 0.0979171 0)
(10.0723 0.0980735 0)
(10.0368 0.102618 0)
(9.99406 0.110527 0)
(9.96037 0.122834 0)
(9.94499 0.139318 0)
(9.95966 0.164137 0)
(10.1667 0.0648711 0)
(10.1154 -0.0289759 0)
(10.0679 -0.0885303 0)
(10.0302 -0.0870292 0)
(9.9806 -0.039927 0)
(9.96853 0.02885 0)
(10.0147 0.0855648 0)
(10.085 0.113595 0)
(10.1384 0.117403 0)
(10.158 0.111852 0)
(10.1519 0.110107 0)
(10.135 0.116647 0)
(10.117 0.127836 0)
(10.1043 0.138444 0)
(10.0961 0.145385 0)
(10.0907 0.149839 0)
(10.0838 0.15376 0)
(10.0734 0.163274 0)
(10.0426 -0.0515556 0)
(10.1483 -0.063496 0)
(10.1682 -0.0249345 0)
(10.0708 0.00185898 0)
(9.96792 -0.00861054 0)
(9.94132 -0.0246531 0)
(9.99042 -0.0122985 0)
(10.0617 0.0255258 0)
(10.1073 0.0681343 0)
(10.1142 0.099835 0)
(10.096 0.116441 0)
(10.0742 0.121889 0)
(10.0643 0.122221 0)
(10.0692 0.123022 0)
(10.0824 0.127518 0)
(10.0967 0.137673 0)
(10.1061 0.153672 0)
(10.1084 0.175047 0)
(10.1622 -0.0300976 0)
(10.0693 -0.0955205 0)
(10.0374 -0.0416903 0)
(10.0375 0.00771739 0)
(10.0182 0.0225936 0)
(9.97774 0.0202049 0)
(9.93937 0.0288732 0)
(9.93213 0.0567101 0)
(9.96679 0.0922562 0)
(10.0332 0.12092 0)
(10.1076 0.134816 0)
(10.1673 0.134366 0)
(10.2 0.126723 0)
(10.2059 0.120577 0)
(10.1914 0.121087 0)
(10.1662 0.129748 0)
(10.1377 0.145851 0)
(10.1121 0.167147 0)
(10.0448 -0.124852 0)
(9.89681 -0.0396505 0)
(9.90796 -0.00891732 0)
(9.95451 0.01075 0)
(9.9732 0.0148096 0)
(9.9963 0.00992157 0)
(10.0408 0.0045441 0)
(10.0985 -0.00445422 0)
(10.1589 -0.0134964 0)
(10.2141 -0.00989424 0)
(10.2561 0.0129867 0)
(10.2781 0.0523623 0)
(10.2804 0.0974908 0)
(10.2684 0.138094 0)
(10.2492 0.168867 0)
(10.2265 0.190161 0)
(10.2021 0.205309 0)
(10.1786 0.218608 0)
(9.8592 -0.0298123 0)
(9.84165 -0.0735434 0)
(9.90828 -0.0704758 0)
(9.92478 -0.0192873 0)
(9.89814 -0.0046983 0)
(9.90149 -0.0266573 0)
(9.94903 -0.0389684 0)
(9.99958 -0.0189153 0)
(10.0213 0.0246331 0)
(10.0112 0.0709282 0)
(9.98552 0.105138 0)
(9.96395 0.123969 0)
(9.95702 0.132391 0)
(9.96553 0.138626 0)
(9.98335 0.149061 0)
(10.004 0.166414 0)
(10.0236 0.188724 0)
(10.0411 0.211845 0)
(10.0872 -0.111631 0)
(10.1404 -0.168638 0)
(10.2002 -0.0478478 0)
(10.1949 0.032962 0)
(10.1292 0.0267761 0)
(10.0755 -0.0278148 0)
(10.0545 -0.0711947 0)
(10.0525 -0.0721663 0)
(10.0553 -0.0390677 0)
(10.0578 0.00543827 0)
(10.0595 0.0459871 0)
(10.0617 0.0762941 0)
(10.0677 0.0976335 0)
(10.0797 0.114222 0)
(10.0952 0.128994 0)
(10.1123 0.14357 0)
(10.1273 0.157778 0)
(10.1411 0.172328 0)
(10.0588 -0.0744435 0)
(9.9953 -0.14624 0)
(9.97962 -0.0525899 0)
(10.0064 0.0499948 0)
(10.0293 0.0804148 0)
(10.0362 0.0475185 0)
(10.0338 0.00206831 0)
(10.0219 -0.00556368 0)
(9.99964 0.0322076 0)
(9.9737 0.0846945 0)
(9.95386 0.117922 0)
(9.94537 0.123239 0)
(9.94746 0.111698 0)
(9.95568 0.101284 0)
(9.96486 0.103467 0)
(9.97086 0.120385 0)
(9.97213 0.148049 0)
(9.96943 0.177085 0)
(9.9315 -0.0152583 0)
(9.82905 -0.179416 0)
(9.76502 -0.112344 0)
(9.72094 -0.0400419 0)
(9.72861 -0.0361108 0)
(9.78481 -0.0581994 0)
(9.84221 -0.0605348 0)
(9.88411 -0.0308796 0)
(9.91631 0.0139817 0)
(9.94524 0.0509862 0)
(9.97422 0.0686467 0)
(10.0031 0.0711715 0)
(10.032 0.0709207 0)
(10.0598 0.0791449 0)
(10.0884 0.099584 0)
(10.1165 0.129091 0)
(10.1482 0.160179 0)
(10.1791 0.184341 0)
(10.3311 -0.0970164 0)
(10.3021 0.108682 0)
(10.3193 0.192316 0)
(10.2917 0.121371 0)
(10.2432 0.0122233 0)
(10.1907 -0.0914848 0)
(10.1553 -0.146388 0)
(10.155 -0.132201 0)
(10.1852 -0.0739677 0)
(10.2286 -0.0141786 0)
(10.2667 0.0189662 0)
(10.2873 0.0214704 0)
(10.2892 0.00577874 0)
(10.2794 -0.0119968 0)
(10.2669 -0.0211882 0)
(10.2588 -0.019447 0)
(10.2582 -0.00894825 0)
(10.2669 0.00696844 0)
(9.87299 -0.187955 0)
(9.98866 -0.169785 0)
(10.1128 -0.065669 0)
(10.2143 0.0327427 0)
(10.2264 0.0893684 0)
(10.1623 0.0682714 0)
(10.09 -0.00950989 0)
(10.0464 -0.0869033 0)
(10.0311 -0.119286 0)
(10.0346 -0.0991741 0)
(10.047 -0.0443056 0)
(10.0608 0.0214634 0)
(10.0723 0.0786464 0)
(10.0835 0.116294 0)
(10.098 0.132984 0)
(10.1182 0.134279 0)
(10.1438 0.125114 0)
(10.1733 0.108641 0)
(10.1724 -0.167863 0)
(10.0878 -0.197343 0)
(10.053 -0.0679483 0)
(10.046 0.064864 0)
(10.0635 0.117002 0)
(10.0799 0.0948524 0)
(10.0868 0.029005 0)
(10.0726 -0.0370399 0)
(10.0332 -0.0689954 0)
(9.98324 -0.0626204 0)
(9.94757 -0.036693 0)
(9.94111 -0.0144982 0)
(9.96251 -0.00969705 0)
(10.0023 -0.0227982 0)
(10.0501 -0.0449672 0)
(10.0976 -0.0666153 0)
(10.1399 -0.0814613 0)
(10.1728 -0.0844036 0)
(9.95002 0.0875819 0)
(9.91082 -0.0609793 0)
(9.8403 -0.0558662 0)
(9.8964 0.00423513 0)
(10.0192 0.0299395 0)
(10.0817 0.0193449 0)
(10.0766 0.00147507 0)
(10.0493 -0.00277699 0)
(10.0261 0.00323511 0)
(10.0176 0.00965358 0)
(10.0301 0.00889358 0)
(10.0593 -0.00204001 0)
(10.0927 -0.019234 0)
(10.1197 -0.0345658 0)
(10.1368 -0.0417251 0)
(10.1459 -0.0394268 0)
(10.1496 -0.0288729 0)
(10.1505 -0.0140667 0)
(10.0602 -0.158792 0)
(9.99081 -0.043592 0)
(9.96569 -0.0563448 0)
(10.0232 -0.0738374 0)
(10.1065 -0.0294912 0)
(10.1251 0.0276776 0)
(10.0926 0.0471508 0)
(10.0644 0.0194157 0)
(10.0632 -0.0277572 0)
(10.0811 -0.0662778 0)
(10.1031 -0.0849995 0)
(10.1155 -0.0869735 0)
(10.1132 -0.0818365 0)
(10.1017 -0.0774536 0)
(10.0912 -0.0765117 0)
(10.0894 -0.077681 0)
(10.0986 -0.0779821 0)
(10.1173 -0.074965 0)
(10.049 -0.0555166 0)
(9.98029 0.0721382 0)
(10.0107 -0.0877925 0)
(10.0326 -0.129277 0)
(10.0634 -0.0519251 0)
(10.1063 0.0323188 0)
(10.1523 0.0612732 0)
(10.1841 0.0345188 0)
(10.185 -0.00816367 0)
(10.1584 -0.0330291 0)
(10.1186 -0.0326898 0)
(10.0848 -0.0202813 0)
(10.065 -0.0127054 0)
(10.0569 -0.0188486 0)
(10.0558 -0.0362308 0)
(10.0573 -0.0566891 0)
(10.0596 -0.0722955 0)
(10.0619 -0.0763589 0)
(9.81402 0.0634716 0)
(10.0563 0.00288001 0)
(10.0679 -0.0981155 0)
(9.9853 -0.103101 0)
(9.95619 -0.0717979 0)
(10.0112 -0.0395702 0)
(10.0812 -0.0177777 0)
(10.1107 -0.00870334 0)
(10.1 -0.00985663 0)
(10.0804 -0.0148727 0)
(10.0832 -0.0225973 0)
(10.1145 -0.0335394 0)
(10.1607 -0.0458443 0)
(10.2031 -0.0581476 0)
(10.2283 -0.0689462 0)
(10.2337 -0.0769756 0)
(10.2226 -0.0810344 0)
(10.2019 -0.0781526 0)
(10.1532 0.0444125 0)
(10.1175 -0.0715581 0)
(10.1041 -0.0553418 0)
(10.115 -0.0604401 0)
(10.1291 -0.0715167 0)
(10.1496 -0.0521378 0)
(10.1685 -0.00951119 0)
(10.1791 0.0212918 0)
(10.1869 0.018085 0)
(10.1976 -0.0131105 0)
(10.2136 -0.051491 0)
(10.234 -0.0786247 0)
(10.2524 -0.0875514 0)
(10.2607 -0.0816192 0)
(10.2536 -0.0685796 0)
(10.2329 -0.0548823 0)
(10.2018 -0.0434978 0)
(10.1665 -0.0349277 0)
(10.4175 0.056071 0)
(10.2423 -0.0101924 0)
(10.0967 -0.0850674 0)
(9.97216 -0.101809 0)
(9.8877 -0.0863744 0)
(9.87353 -0.0630068 0)
(9.92212 -0.0369373 0)
(10.0077 -0.0193124 0)
(10.0967 -0.0200138 0)
(10.1583 -0.0370306 0)
(10.1794 -0.0577959 0)
(10.1688 -0.0708604 0)
(10.146 -0.0716009 0)
(10.1261 -0.0621556 0)
(10.1156 -0.0478992 0)
(10.1133 -0.0338031 0)
(10.1169 -0.0222991 0)
(10.1235 -0.0145222 0)
(9.80835 0.0173522 0)
(9.97641 0.0778635 0)
(10.1018 0.0667956 0)
(10.135 0.0166713 0)
(10.1374 -0.036221 0)
(10.1524 -0.0671912 0)
(10.173 -0.0732386 0)
(10.1869 -0.0663859 0)
(10.1927 -0.0575493 0)
(10.1912 -0.0520508 0)
(10.1854 -0.0514315 0)
(10.1788 -0.0541759 0)
(10.1731 -0.0573475 0)
(10.1665 -0.058222 0)
(10.1601 -0.0558722 0)
(10.1575 -0.0511735 0)
(10.1624 -0.0457551 0)
(10.1779 -0.040852 0)
(10.0594 -0.122969 0)
(10.1353 -0.125312 0)
(10.2459 -0.102657 0)
(10.2969 -0.089538 0)
(10.2806 -0.0891914 0)
(10.2361 -0.0832174 0)
(10.1955 -0.0632207 0)
(10.1698 -0.042653 0)
(10.158 -0.0359796 0)
(10.1521 -0.0439936 0)
(10.1452 -0.0569174 0)
(10.1363 -0.0646993 0)
(10.1271 -0.0631187 0)
(10.1197 -0.0548565 0)
(10.1145 -0.046025 0)
(10.1123 -0.0412492 0)
(10.1122 -0.0426359 0)
(10.1148 -0.0487585 0)
(10.1053 0.0219923 0)
(9.8287 -0.0127619 0)
(9.67517 0.00218736 0)
(9.5483 -0.00790969 0)
(9.37081 -0.0261382 0)
(9.1749 -0.0385545 0)
(9.00008 -0.043593 0)
(8.86126 -0.0426327 0)
(8.75136 -0.0389981 0)
(8.6469 -0.0375302 0)
(8.52886 -0.0411622 0)
(8.39675 -0.0474709 0)
(8.26196 -0.0515326 0)
(8.1376 -0.0515584 0)
(8.02794 -0.0486193 0)
(7.93341 -0.0447796 0)
(7.84584 -0.0415308 0)
(7.76216 -0.0387057 0)
(-0.183087 0.438266 -1.30646e-19)
(-0.477306 0.309783 1.29625e-19)
(-0.648787 0.160385 0)
(-0.675367 -0.0322523 0)
(-0.569553 -0.175274 0)
(-0.368742 -0.291866 -1.26083e-19)
(-0.0837514 -0.399488 0)
(0.29781 -0.487481 0)
(0.756107 -0.545978 0)
(1.26988 -0.581658 0)
(1.80635 -0.591502 1.21105e-19)
(2.34637 -0.577889 0)
(2.8808 -0.543277 0)
(3.39458 -0.492476 0)
(3.86896 -0.430115 0)
(4.28966 -0.361241 1.16444e-19)
(4.64792 -0.289594 0)
(4.93844 -0.218044 0)
(5.1591 -0.150599 0)
(5.3096 -0.0873052 0)
(5.39183 -0.0306682 0)
(5.41173 0.017186 0)
(5.37413 0.0615146 0)
(5.2923 0.0924895 1.0948e-19)
(5.18116 0.108767 -1.08571e-19)
(5.05115 0.116911 1.07658e-19)
(4.91818 0.102267 1.06746e-19)
(4.79651 0.084368 0)
(4.68889 0.0727492 0)
(4.60777 0.031275 -1.04013e-19)
(4.56156 0.00809117 -1.03106e-19)
(4.53422 0.0240535 0)
(4.52651 -0.0183278 0)
(4.55769 -0.0562758 -1.00421e-19)
(4.5977 0.0354153 0)
(4.60344 0.0831882 0)
(4.61923 -0.0368781 9.78636e-20)
(4.68438 -0.0140893 0)
(4.66719 0.337066 9.62269e-20)
(4.45511 0.629065 1.90989e-19)
(4.1681 0.503234 0)
(3.99075 0.114783 0)
(3.95898 -0.231159 0)
(4.00756 -0.408503 0)
(4.05748 -0.434577 0)
(4.09025 -0.37638 1.82551e-19)
(4.14212 -0.291603 1.8112e-19)
(4.24299 -0.210198 1.79657e-19)
(4.38332 -0.143042 0)
(4.53205 -0.0962454 -1.76702e-19)
(4.6673 -0.0738789 0)
(4.78646 -0.0698502 1.73733e-19)
(4.89567 -0.0676035 1.72208e-19)
(4.99575 -0.0693248 0)
(5.09761 -0.0869372 0)
(5.2056 -0.0766433 0)
(5.27855 -0.0181782 1.65515e-19)
(5.2922 0.00821434 0)
(5.24925 0.0891581 0)
(5.02593 0.289435 0)
(4.60964 0.341907 0)
(4.18058 0.550807 0)
(3.26623 1.07498 0)
(1.81429 0.909745 0)
(0.707135 0.19708 0)
(0.0290602 -0.165385 -1.50414e-19)
(-0.257437 -0.127205 0)
(-0.365592 0.00631087 0)
(-0.487844 -0.0401391 1.45549e-19)
(-0.218861 -0.0160298 1.43978e-19)
(-0.0215439 0.231072 0)
(-0.24236 0.00129787 -1.41333e-19)
(0.135451 -0.35192 1.39824e-19)
(0.684604 -0.00365006 0)
(1.42102 -0.203747 -1.36635e-19)
(1.74773 -1.50119 0)
(1.84842 -2.03689 0)
(1.36502 -0.249654 1.32162e-19)
(-1.34949 1.69429 0)
(-4.22688 1.74581 -1.28142e-19)
(-6.6549 1.52272 0)
(-8.76519 1.28077 1.27008e-19)
(-10.4955 1.0422 1.27e-19)
(-11.9223 0.827787 1.27048e-19)
(-13.0569 0.641141 2.54034e-19)
(-13.9401 0.480538 -2.53648e-19)
(-14.5938 0.343896 0)
(-15.0454 0.227412 0)
(-15.3192 0.129371 0)
(-15.4407 0.0493716 -2.47977e-19)
(-15.4345 -0.0123243 -2.4563e-19)
(-15.3339 -0.0582948 2.43007e-19)
(-15.1611 -0.0958382 0)
(-14.9206 -0.124847 -2.37177e-19)
(-14.6311 -0.148073 -2.34041e-19)
(-14.2959 -0.16767 -2.30791e-19)
(-13.9236 -0.18323 0)
(-13.5192 -0.196729 0)
(-13.0862 -0.20773 0)
(-12.6297 -0.216728 -2.17012e-19)
(-12.1524 -0.224021 0)
(-11.6583 -0.229413 0)
(-11.1506 -0.233274 2.06312e-19)
(-10.6326 -0.235534 0)
(-10.1076 -0.236316 0)
(-9.57848 -0.235745 1.95778e-19)
(-9.04836 -0.233828 0)
(-8.52022 -0.230684 0)
(-7.99692 -0.226385 -1.85789e-19)
(-7.48122 -0.22104 -1.8263e-19)
(-6.97572 -0.214782 0)
(-6.48277 -0.207743 1.76603e-19)
(-6.00435 -0.200126 0)
(-5.54197 -0.192179 -1.70973e-19)
(-5.09664 -0.184141 0)
(-4.66886 -0.176234 -1.6572e-19)
(-4.25856 -0.168666 -1.63222e-19)
(-3.86511 -0.161648 0)
(-3.48744 -0.155365 0)
(-3.12411 -0.149922 0)
(-2.77334 -0.145462 0)
(-2.43314 -0.142075 0)
(-2.10146 -0.139815 0)
(-1.77598 -0.138692 0)
(-1.4542 -0.138802 -1.45393e-19)
(-1.13391 -0.140055 1.43341e-19)
(-0.814018 -0.14188 0)
(-0.494226 -0.1434 0)
(-0.172584 -0.142811 0)
(0.149059 -0.1387 0)
(0.461935 -0.135341 2.66605e-19)
(0.770862 -0.141937 0)
(1.11256 -0.134932 -2.5861e-19)
(1.48138 -0.0815321 2.5468e-19)
(1.75912 -0.0491191 0)
(1.9623 -0.08146 0)
(2.24527 -0.0224819 0)
(2.4406 0.108769 -2.39506e-19)
(2.40704 -0.00728602 -2.35861e-19)
(2.54426 -0.186672 0)
(2.80502 0.0786833 -2.28711e-19)
(2.47347 0.414857 -2.252e-19)
(1.81064 0.218971 2.21942e-19)
(1.4636 -0.179578 0)
(1.52348 -0.389212 0)
(1.97455 -0.411848 2.11569e-19)
(2.66441 -0.285178 0)
(3.15593 -0.0884799 0)
(3.05507 0.0765324 0)
(2.41049 0.206105 0)
(1.48149 0.293168 -1.95939e-19)
(0.49689 0.312081 -1.94096e-19)
(-0.451978 0.279244 0)
(-1.31415 0.246703 -1.91036e-19)
(-2.06038 0.210685 0)
(-2.68404 0.171727 0)
(-3.16918 0.129 -1.8648e-19)
(-3.50189 0.0831148 0)
(-3.67053 0.0357822 -1.81973e-19)
(-3.66696 -0.0099504 0)
(-3.49878 -0.0521519 0)
(-3.17759 -0.0895607 -1.71356e-19)
(-2.72363 -0.120113 0)
(-2.16449 -0.142208 -1.62357e-19)
(-1.5327 -0.155452 0)
(-0.861925 -0.159566 0)
(-0.184162 -0.156523 0)
(0.474142 -0.147836 1.44292e-19)
(1.09527 -0.133637 0)
(1.66525 -0.111599 -1.36265e-19)
(2.16205 -0.0868197 0)
(2.56483 -0.0897893 0)
(2.92531 -0.151278 0)
(3.40732 -0.190864 0)
(4.02963 -0.0319012 0)
(4.21427 0.166236 0)
(3.98651 -0.00775745 0)
(4.23608 -0.27465 2.20966e-19)
(5.0802 0.086745 0)
(3.932 0.466246 0)
(0.0890469 0.815868 3.91772e-19)
(0.184614 0.610901 -3.88907e-19)
(0.367677 0.211305 0)
(0.627906 -0.144172 2.55388e-19)
(0.976391 -0.458037 0)
(1.42557 -0.749296 1.2554e-19)
(1.94112 -1.01139 -2.48993e-19)
(2.48953 -1.23138 -2.46888e-19)
(3.04758 -1.4047 0)
(3.59927 -1.52157 -2.42802e-19)
(4.12435 -1.57451 -1.20108e-19)
(4.61425 -1.56504 0)
(5.06313 -1.49848 0)
(5.46592 -1.38492 0)
(5.81852 -1.23582 0)
(6.11831 -1.06191 -1.15757e-19)
(6.36379 -0.872957 0)
(6.55482 -0.67763 2.29019e-19)
(6.69266 -0.483515 0)
(6.77846 -0.29704 0)
(6.81481 -0.124305 -2.23956e-19)
(6.80526 0.0288793 0)
(6.75369 0.157661 2.20292e-19)
(6.66119 0.256997 -1.09062e-19)
(6.53319 0.321172 1.08156e-19)
(6.38186 0.351163 -1.07252e-19)
(6.2219 0.348101 -1.06354e-19)
(6.05727 0.312547 0)
(5.9042 0.258478 0)
(5.77466 0.19103 1.0369e-19)
(5.65786 0.109639 -1.02735e-19)
(5.57526 0.041081 0)
(5.53796 -0.0128821 0)
(5.50373 -0.0773222 1.00193e-19)
(5.4939 -0.112793 0)
(5.56148 -0.093542 0)
(5.63912 -0.0957829 -9.76283e-20)
(5.66575 -0.120344 0)
(5.7498 -0.0373206 9.59214e-20)
(5.9786 0.134186 -1.9029e-19)
(6.28535 0.218215 0)
(6.52237 0.178579 0)
(6.62068 0.147815 -3.71456e-19)
(6.63124 0.220699 -3.68542e-19)
(6.60761 0.315234 -3.65752e-19)
(6.57232 0.278223 1.81463e-19)
(6.53603 0.0867955 -1.8018e-19)
(6.49814 -0.138342 -5.36365e-19)
(6.46243 -0.282523 3.54866e-19)
(6.4376 -0.322439 1.75973e-19)
(6.42676 -0.300648 0)
(6.42554 -0.266121 -1.73127e-19)
(6.42639 -0.239682 1.72051e-19)
(6.4328 -0.220594 0)
(6.43286 -0.205307 0)
(6.40788 -0.168935 0)
(6.36849 -0.073973 -1.65156e-19)
(6.29033 0.062545 0)
(6.13731 0.242364 3.23564e-19)
(5.9529 0.532255 0)
(5.68562 0.809015 3.15792e-19)
(5.34109 1.06272 0)
(4.91917 1.61737 -3.08011e-19)
(4.45279 2.13811 0)
(3.93236 2.01828 3.0167e-19)
(2.88186 1.40267 -1.49495e-19)
(1.9023 0.646562 0)
(1.24261 0.189817 -2.9338e-19)
(0.917266 -0.0729697 -1.45363e-19)
(1.2451 -0.577101 -1.43695e-19)
(1.00847 -0.297852 0)
(1.26439 -0.141064 -1.40783e-19)
(2.4379 -0.838603 -1.39166e-19)
(2.72658 -1.47994 0)
(2.48033 -1.42932 1.36496e-19)
(0.0148104 1.04509 -2.70064e-19)
(-3.60449 2.75542 0)
(-5.82115 3.64179 -1.30666e-19)
(-7.9512 4.1261 0)
(-9.56349 3.71161 3.83193e-19)
(-10.9012 3.25228 0)
(-11.9817 2.70689 -3.81184e-19)
(-12.8746 2.21727 -1.26258e-19)
(-13.5884 1.77225 1.28696e-19)
(-14.1617 1.38364 2.56862e-19)
(-14.5937 1.04089 -2.56084e-19)
(-14.9056 0.737809 0)
(-15.0991 0.471508 0)
(-15.1906 0.241347 0)
(-15.1904 0.050433 7.45485e-19)
(-15.1158 -0.104984 2.45724e-19)
(-14.9663 -0.229207 -2.43091e-19)
(-14.7491 -0.328558 0)
(-14.4844 -0.407607 -2.37852e-19)
(-14.1725 -0.471333 2.34095e-19)
(-13.8249 -0.523812 2.30835e-19)
(-13.4448 -0.567072 0)
(-13.0358 -0.603366 0)
(-12.6028 -0.633333 0)
(-12.1479 -0.657684 2.17023e-19)
(-11.6751 -0.676806 0)
(-11.1871 -0.690852 -4.20152e-19)
(-10.6872 -0.700147 -6.19276e-19)
(-10.1785 -0.704861 4.05826e-19)
(-9.6638 -0.705242 0)
(-9.14616 -0.701514 1.96013e-19)
(-8.62844 -0.693857 0)
(-8.11351 -0.682463 3.78219e-19)
(-7.6042 -0.667573 -1.8592e-19)
(-7.10316 -0.649512 -1.82733e-19)
(-6.61296 -0.628626 0)
(-6.13589 -0.605339 -5.29822e-19)
(-5.6739 -0.580236 3.47498e-19)
(-5.2284 -0.554037 1.70952e-19)
(-4.80031 -0.527446 0)
(-4.39005 -0.501095 1.657e-19)
(-3.99753 -0.475562 4.89643e-19)
(-3.62211 -0.451421 0)
(-3.26267 -0.429173 3.16894e-19)
(-2.91784 -0.408952 3.12314e-19)
(-2.58583 -0.391002 3.07843e-19)
(-2.2648 -0.375447 0)
(-1.95284 -0.36244 0)
(-1.64799 -0.351835 0)
(-1.34823 -0.343696 -1.4542e-19)
(-1.05223 -0.337937 -1.43311e-19)
(-0.759954 -0.333553 0)
(-0.471939 -0.329828 -2.78607e-19)
(-0.18664 -0.326926 -2.74643e-19)
(0.0963081 -0.31971 0)
(0.3803 -0.31081 -2.66557e-19)
(0.657552 -0.324776 -5.25232e-19)
(0.926513 -0.364525 2.58588e-19)
(1.23451 -0.358002 2.5477e-19)
(1.58402 -0.273305 0)
(1.83423 -0.237351 0)
(2.02313 -0.289554 0)
(2.4382 -0.222599 2.39443e-19)
(2.89943 -0.0595369 -2.3576e-19)
(2.86687 -0.0487788 -4.64382e-19)
(2.74352 -0.0371539 2.28682e-19)
(3.025 0.154196 -2.2514e-19)
(3.51175 0.352608 -2.21587e-19)
(3.7185 0.388643 0)
(3.56304 0.0923528 0)
(3.45274 -0.349928 2.11189e-19)
(3.54318 -0.460047 0)
(3.58507 -0.117149 0)
(3.07683 0.379695 -4.02182e-19)
(2.00714 0.737955 0)
(0.864391 0.867163 -1.96061e-19)
(-0.131409 0.8372 1.93903e-19)
(-0.995767 0.743961 0)
(-1.74431 0.65341 -1.91206e-19)
(-2.39136 0.556763 0)
(-2.93156 0.450475 0)
(-3.3507 0.331755 1.8639e-19)
(-3.63444 0.201674 -3.69314e-19)
(-3.77035 0.064787 1.81957e-19)
(-3.74903 -0.0719027 0)
(-3.56209 -0.200837 0)
(-3.21947 -0.315392 -1.71746e-19)
(-2.74062 -0.408912 0)
(-2.15308 -0.476531 -1.62597e-19)
(-1.4895 -0.516965 0)
(-0.784624 -0.529988 0)
(-0.0704702 -0.519774 0)
(0.624153 -0.492571 -1.44201e-19)
(1.27915 -0.45428 0)
(1.88044 -0.408671 1.36185e-19)
(2.44041 -0.348104 0)
(2.95893 -0.278838 0)
(3.39194 -0.256798 -2.51427e-19)
(3.62494 -0.340895 2.44969e-19)
(3.91954 -0.353099 0)
(4.46781 -0.146111 0)
(5.0468 0.01643 0)
(4.89231 -0.194228 -6.62566e-19)
(5.24944 -0.00564417 0)
(5.31332 0.565737 4.17867e-19)
(0.15977 0.00108442 -1.49808e-22)
(0.440735 -0.147334 5.17621e-19)
(0.95244 -0.623363 0)
(1.57934 -1.16601 -5.0818e-19)
(2.26352 -1.65636 0)
(2.95505 -2.05772 0)
(3.6115 -2.36356 -4.77766e-22)
(4.20365 -2.57267 2.45204e-19)
(4.7187 -2.68574 2.44066e-19)
(5.15386 -2.70717 2.41387e-19)
(5.51405 -2.6445 0)
(5.81064 -2.50997 0)
(6.05227 -2.31769 -2.37528e-19)
(6.24579 -2.08245 -4.72014e-19)
(6.39835 -1.81804 4.68983e-19)
(6.51671 -1.53606 0)
(6.60658 -1.24549 4.62814e-19)
(6.67121 -0.953943 -2.28876e-19)
(6.71227 -0.667503 0)
(6.72966 -0.39327 4.52939e-19)
(6.72169 -0.137118 2.24003e-19)
(6.68825 0.0915474 -4.45546e-19)
(6.62595 0.284329 -2.20259e-19)
(6.53604 0.438439 0)
(6.42256 0.54819 4.33496e-19)
(6.29027 0.612499 4.29529e-19)
(6.14459 0.630875 0)
(5.99139 0.601701 4.21795e-19)
(5.83911 0.539584 0)
(5.69522 0.449735 4.14396e-19)
(5.56568 0.335586 2.05507e-19)
(5.45769 0.226846 0)
(5.37567 0.122249 0)
(5.3207 0.0101771 0)
(5.29357 -0.0667945 0)
(5.30013 -0.10705 0)
(5.34126 -0.171616 0)
(5.40761 -0.233741 3.87042e-19)
(5.51047 -0.207315 -5.758e-19)
(5.67672 -0.142363 0)
(5.89751 -0.173671 0)
(6.12895 -0.300856 0)
(6.34199 -0.395094 2.64611e-22)
(6.55726 -0.38777 3.68478e-19)
(6.81277 -0.326002 7.30825e-19)
(7.09849 -0.26728 -7.24945e-19)
(7.36173 -0.212924 -3.59604e-19)
(7.55985 -0.148042 3.56714e-19)
(7.69249 -0.0867293 1.89579e-22)
(7.78439 -0.0508388 3.51388e-19)
(7.84996 -0.0436869 0)
(7.89219 -0.0518304 3.46006e-19)
(7.91265 -0.0583627 6.2978e-22)
(7.90401 -0.0544943 0)
(7.86153 -0.03465 0)
(7.77841 0.0149755 -3.34419e-19)
(7.63568 0.139358 0)
(7.42856 0.354783 0)
(7.12652 0.613511 3.25124e-19)
(6.73217 0.947846 6.40279e-19)
(6.30591 1.31967 -3.15151e-19)
(5.85358 1.61173 0)
(5.37545 1.99638 3.07499e-19)
(5.07333 2.38985 0)
(4.77768 2.55824 3.0159e-19)
(3.99991 2.49165 2.97806e-19)
(3.3234 1.79969 -5.89808e-19)
(2.45922 1.15255 -2.91556e-19)
(2.08661 0.18762 0)
(1.59997 -0.279685 5.72897e-19)
(1.1095 0.210937 0)
(2.00237 -1.49873 8.42413e-19)
(1.97106 -2.54485 5.57771e-19)
(-0.448311 0.728525 5.52628e-19)
(-3.32931 3.13561 -5.45541e-19)
(-5.60949 4.40496 8.04189e-19)
(-7.75293 5.09189 0)
(-9.0566 5.4432 0)
(-10.0649 5.36199 -5.21339e-19)
(-10.6432 4.80827 -7.74556e-19)
(-11.2358 4.17586 0)
(-11.7355 3.50256 2.54887e-19)
(-12.2858 2.89597 0)
(-12.7844 2.34447 -7.70749e-19)
(-13.2521 1.84623 4.16644e-21)
(-13.624 1.39093 -3.50054e-21)
(-13.8984 0.973147 5.11066e-19)
(-14.0514 0.597535 0)
(-14.0909 0.269161 -5.04359e-19)
(-14.0309 -0.00855372 1.61407e-21)
(-13.8957 -0.241347 0)
(-13.6958 -0.429968 0)
(-13.4466 -0.579604 0)
(-13.1596 -0.699457 4.75802e-19)
(-12.84 -0.796642 0)
(-12.4928 -0.87652 0)
(-12.1203 -0.943779 0)
(-11.7248 -1.0003 0)
(-11.3086 -1.04749 0)
(-10.8738 -1.08616 4.35704e-19)
(-10.423 -1.11648 0)
(-9.95872 -1.1389 4.20581e-19)
(-9.4836 -1.15363 4.13369e-19)
(-9.00023 -1.16102 -4.06197e-19)
(-8.51126 -1.16142 0)
(-8.01924 -1.15514 -3.92097e-19)
(-7.5268 -1.14247 0)
(-7.0367 -1.12365 -3.78505e-19)
(-6.55168 -1.09901 3.71957e-19)
(-6.07437 -1.06908 1.09721e-18)
(-5.60741 -1.03448 0)
(-5.15326 -0.995926 1.06071e-18)
(-4.71411 -0.954411 3.47945e-19)
(-4.29144 -0.911149 0)
(-3.88621 -0.86731 6.73789e-19)
(-3.4989 -0.823957 6.63422e-19)
(-3.1296 -0.782106 -9.80044e-19)
(-2.77777 -0.742754 0)
(-2.44217 -0.706974 -3.1708e-19)
(-2.12169 -0.674979 -3.12493e-19)
(-1.81455 -0.647181 -9.24173e-19)
(-1.51911 -0.623597 0)
(-1.23334 -0.604797 0)
(-0.955364 -0.590029 0)
(-0.682982 -0.578511 -2.91083e-19)
(-0.414848 -0.569572 0)
(-0.150797 -0.560882 0)
(0.106636 -0.552615 2.78622e-19)
(0.360626 -0.544532 2.74488e-19)
(0.605908 -0.53698 0)
(0.848475 -0.527187 0)
(1.09992 -0.518636 5.24811e-19)
(1.34093 -0.530926 0)
(1.54222 -0.539871 -5.09107e-19)
(1.76994 -0.469572 -5.01545e-19)
(2.05463 -0.382747 0)
(2.26725 -0.437438 0)
(2.46415 -0.485945 4.78799e-19)
(2.81753 -0.278662 -1.69492e-23)
(2.96295 -0.0365227 1.96874e-25)
(2.74747 -0.0204993 0)
(2.74208 -0.124201 9.00847e-19)
(3.1869 -0.14397 0)
(3.71476 -0.0786362 0)
(4.03693 -0.173399 0)
(4.08987 -0.4151 -4.22173e-19)
(3.88908 -0.35822 0)
(3.41517 0.221712 8.17198e-19)
(2.5215 0.9655 4.01951e-19)
(1.41979 1.40108 0)
(0.495576 1.44913 3.91725e-19)
(-0.286659 1.32437 0)
(-1.02446 1.18056 0)
(-1.7242 1.04486 1.14647e-18)
(-2.37291 0.900976 -7.59445e-19)
(-2.9377 0.736851 0)
(-3.38779 0.547797 -7.47768e-19)
(-3.69934 0.336381 3.69203e-19)
(-3.8546 0.110887 0)
(-3.84125 -0.117187 0)
(-3.65743 -0.335471 0)
(-3.31337 -0.529823 1.03019e-18)
(-2.82874 -0.688665 0)
(-2.23185 -0.803959 3.24669e-19)
(-1.55631 -0.872658 0)
(-0.837879 -0.895944 0)
(-0.110822 -0.879471 0)
(0.595963 -0.832305 0)
(1.26605 -0.763306 0)
(1.88019 -0.68665 0)
(2.43667 -0.6082 5.29971e-19)
(2.94187 -0.533372 0)
(3.44302 -0.456282 2.51331e-19)
(3.84261 -0.443816 -7.34707e-19)
(4.0938 -0.443614 0)
(4.32525 -0.347728 0)
(4.84069 -0.184139 4.53527e-19)
(5.13076 -0.282808 4.41702e-19)
(5.14392 -0.131973 -4.30165e-19)
(5.32168 0.439551 -4.17912e-19)
(-0.0217389 -0.50586 -7.8319e-19)
(0.59914 -1.28118 -7.75112e-19)
(1.51847 -2.21989 -5.11505e-19)
(2.3873 -2.93121 -2.53904e-19)
(3.13471 -3.38808 0)
(3.73451 -3.6367 4.99075e-19)
(4.18796 -3.72349 -2.48807e-19)
(4.5062 -3.68148 0)
(4.70501 -3.53756 -2.43849e-19)
(4.80788 -3.31472 0)
(4.84106 -3.03535 4.84093e-19)
(4.82976 -2.72154 0)
(4.79656 -2.39315 2.38314e-19)
(4.75758 -2.06452 4.73902e-19)
(4.72409 -1.74379 -4.71107e-19)
(4.70238 -1.43369 0)
(4.69394 -1.13373 -4.65209e-19)
(4.69733 -0.842704 0)
(4.70596 -0.560148 0)
(4.7182 -0.286925 -4.55399e-19)
(4.7207 -0.025101 0)
(4.71309 0.217033 -8.95757e-22)
(4.7032 0.431748 0)
(4.68581 0.609893 0)
(4.6535 0.743446 5.33609e-22)
(4.60707 0.827296 -4.31452e-19)
(4.54911 0.855588 -4.27665e-19)
(4.48333 0.831182 -4.23427e-19)
(4.41585 0.761892 0)
(4.35323 0.650819 -8.31487e-19)
(4.29963 0.513511 0)
(4.26325 0.36755 -4.0833e-19)
(4.25328 0.214773 0)
(4.26586 0.0657316 0)
(4.2952 -0.0598324 3.97838e-19)
(4.35195 -0.167093 0)
(4.43583 -0.274393 -3.90902e-19)
(4.5333 -0.374379 -2.25094e-22)
(4.66089 -0.445997 7.68675e-19)
(4.85494 -0.492074 -7.61963e-19)
(5.10905 -0.530097 0)
(5.37216 -0.560232 0)
(5.61202 -0.56686 -3.71478e-19)
(5.84212 -0.547329 0)
(6.08445 -0.527746 -3.65754e-19)
(6.3386 -0.532953 3.62857e-19)
(6.59521 -0.555249 3.60009e-19)
(6.84976 -0.57246 0)
(7.10188 -0.567108 -3.54385e-19)
(7.35046 -0.522727 -3.51586e-19)
(7.58469 -0.441615 6.98676e-19)
(7.79761 -0.34895 -3.45983e-19)
(7.98994 -0.253754 -3.43143e-19)
(8.14508 -0.151453 0)
(8.23713 -0.038372 0)
(8.25401 0.122081 3.34036e-19)
(8.17598 0.375274 0)
(7.97262 0.710066 0)
(7.65392 1.09559 -6.46593e-19)
(7.22465 1.53074 -6.39042e-19)
(6.68365 1.95167 0)
(6.05931 2.31368 0)
(5.41172 2.67815 0)
(4.9487 2.96857 0)
(4.53194 3.24062 -6.01964e-19)
(4.08997 3.145 5.95711e-19)
(3.6547 2.56392 5.88794e-19)
(2.80335 1.87747 1.16527e-18)
(2.33325 0.905757 0)
(0.924338 0.85072 -1.53072e-21)
(1.57531 -1.06787 0)
(1.05926 -0.825272 -5.62019e-19)
(-2.43565 2.28207 -1.1112e-21)
(-4.68758 4.04832 -5.47466e-19)
(-6.69579 5.40228 5.40257e-19)
(-8.09234 6.11677 2.80697e-21)
(-9.07887 6.3471 0)
(-9.62557 6.25782 5.2911e-19)
(-10.0052 5.86453 5.20907e-19)
(-10.299 5.28736 1.04379e-18)
(-10.6917 4.67083 0)
(-11.1004 4.04394 -5.22709e-19)
(-11.5726 3.43691 0)
(-12.0015 2.83969 1.03653e-18)
(-12.3746 2.25149 -5.15013e-19)
(-12.6367 1.67873 5.13782e-19)
(-12.7825 1.13437 -5.11838e-19)
(-12.803 0.637631 -1.02349e-18)
(-12.7155 0.203082 5.0548e-19)