/*--------------------------------*- C++ -*----------------------------------*\
| =========                 |                                                 |
| \\      /  F ield         | OpenFOAM: The Open Source CFD Toolbox           |
|  \\    /   O peration     | Version:  2112                                  |
|   \\  /    A nd           | Website:  www.openfoam.com                      |
|    \\/     M anipulation  |                                                 |
\*---------------------------------------------------------------------------*/
FoamFile
{
    version     2.0;
    format      ascii;
    arch        "LSB;label=32;scalar=64";
    class       surfaceScalarField;
    location    "0.12";
    object      phi_0;
}
// * * * * * * * * * * * * * * * * * * * * * * * * * * * * * * * * * * * * * //

dimensions      [0 3 -1 0 0 0 0];

oriented        oriented;

internalField   nonuniform List<scalar> 
25468
(
2.87741e-06
4.63446e-08
2.81313e-06
6.42856e-08
2.7549e-06
5.82323e-08
2.70094e-06
5.3951e-08
2.64853e-06
5.24193e-08
2.59137e-06
5.71541e-08
2.53029e-06
6.10827e-08
2.47269e-06
5.7603e-08
2.42319e-06
4.94912e-08
2.38174e-06
4.14589e-08
2.34284e-06
3.88989e-08
2.29899e-06
4.3843e-08
2.24999e-06
4.9008e-08
2.20328e-06
4.67103e-08
2.16408e-06
3.91987e-08
2.13311e-06
3.09638e-08
2.10983e-06
2.32808e-08
2.09264e-06
1.71926e-08
2.07798e-06
1.46612e-08
2.06194e-06
1.60432e-08
2.04443e-06
1.75098e-08
2.02814e-06
1.6282e-08
2.01439e-06
1.375e-08
2.00288e-06
1.15159e-08
1.99305e-06
9.83025e-09
1.98461e-06
8.43299e-09
1.97734e-06
7.27356e-09
1.97072e-06
6.61658e-09
1.96416e-06
6.56007e-09
1.95726e-06
6.90822e-09
1.94996e-06
7.29996e-09
1.94249e-06
7.46482e-09
1.93505e-06
7.44581e-09
1.92768e-06
7.36227e-09
1.92001e-06
7.66992e-09
1.91128e-06
8.73654e-09
1.89936e-06
1.19176e-08
1.88009e-06
1.92729e-08
1.83752e-06
4.25696e-08
6.57693e-08
1.77175e-06
3.12688e-06
3.33906e-08
3.13625e-06
5.49114e-08
3.13847e-06
5.6012e-08
3.13708e-06
5.53459e-08
3.13351e-06
5.59838e-08
3.12977e-06
6.08936e-08
3.12422e-06
6.66347e-08
3.11524e-06
6.65806e-08
3.10289e-06
6.1841e-08
3.08706e-06
5.72969e-08
3.06864e-06
5.73176e-08
3.04952e-06
6.29623e-08
3.02848e-06
7.00459e-08
3.00237e-06
7.28211e-08
2.97174e-06
6.98236e-08
2.93954e-06
6.31655e-08
2.90749e-06
5.53347e-08
2.87575e-06
4.89282e-08
2.84456e-06
4.58569e-08
2.81456e-06
4.60409e-08
2.7849e-06
4.71716e-08
2.75401e-06
4.71719e-08
2.72184e-06
4.59185e-08
2.6895e-06
4.38523e-08
2.65817e-06
4.11622e-08
2.62864e-06
3.79638e-08
2.6013e-06
3.46163e-08
2.57625e-06
3.16639e-08
2.55344e-06
2.93744e-08
2.5327e-06
2.7641e-08
2.51372e-06
2.62865e-08
2.49606e-06
2.5125e-08
2.4793e-06
2.4205e-08
2.46309e-06
2.35729e-08
2.44723e-06
2.3528e-08
2.43152e-06
2.44396e-08
2.41661e-06
2.68367e-08
2.40525e-06
3.06295e-08
2.41289e-06
3.49268e-08
4.19488e-08
2.43671e-06
3.32337e-06
2.64803e-08
3.33108e-06
4.71943e-08
3.33525e-06
5.18433e-08
3.33756e-06
5.30369e-08
3.33899e-06
5.45505e-08
3.34137e-06
5.85207e-08
3.34493e-06
6.30705e-08
3.34753e-06
6.39817e-08
3.34757e-06
6.17963e-08
3.34526e-06
5.96098e-08
3.34289e-06
5.96881e-08
3.3427e-06
6.31549e-08
3.34427e-06
6.84748e-08
3.3455e-06
7.15908e-08
3.34475e-06
7.05722e-08
3.34142e-06
6.64974e-08
3.33541e-06
6.13451e-08
3.3276e-06
5.67376e-08
3.31965e-06
5.38051e-08
3.31239e-06
5.33028e-08
3.30491e-06
5.46542e-08
3.29583e-06
5.62511e-08
3.28445e-06
5.72946e-08
3.27082e-06
5.74869e-08
3.25532e-06
5.66569e-08
3.23848e-06
5.48109e-08
3.22082e-06
5.22675e-08
3.20302e-06
4.94672e-08
3.18551e-06
4.68879e-08
3.16836e-06
4.4793e-08
3.15128e-06
4.33638e-08
3.13385e-06
4.25518e-08
3.11561e-06
4.24502e-08
3.09629e-06
4.28933e-08
3.07597e-06
4.38396e-08
3.0552e-06
4.52164e-08
3.03513e-06
4.68997e-08
3.01709e-06
4.86769e-08
3.0013e-06
5.07114e-08
5.56189e-08
2.98763e-06
3.53711e-06
2.15305e-08
3.54317e-06
4.11401e-08
3.5474e-06
4.76123e-08
3.55013e-06
5.03075e-08
3.55195e-06
5.27236e-08
3.55418e-06
5.62944e-08
3.55744e-06
5.98059e-08
3.56046e-06
6.09653e-08
3.56219e-06
6.00699e-08
3.56271e-06
5.90887e-08
3.56272e-06
5.96713e-08
3.56351e-06
6.23732e-08
3.56614e-06
6.58444e-08
3.5702e-06
6.75307e-08
3.57426e-06
6.65122e-08
3.57717e-06
6.35826e-08
3.57852e-06
5.99963e-08
3.57834e-06
5.69177e-08
3.57691e-06
5.52376e-08
3.57503e-06
5.5179e-08
3.57372e-06
5.59648e-08
3.57333e-06
5.66375e-08
3.57375e-06
5.68783e-08
3.57457e-06
5.66633e-08
3.57531e-06
5.59184e-08
3.57551e-06
5.46122e-08
3.57488e-06
5.28967e-08
3.57328e-06
5.10709e-08
3.57071e-06
4.94527e-08
3.56728e-06
4.82232e-08
3.56318e-06
4.74672e-08
3.55857e-06
4.71662e-08
3.55369e-06
4.73271e-08
3.54873e-06
4.78507e-08
3.54388e-06
4.86911e-08
3.53935e-06
4.97445e-08
3.53529e-06
5.09656e-08
3.53163e-06
5.23295e-08
3.52857e-06
5.37715e-08
5.47097e-08
3.52948e-06
3.76592e-06
1.75119e-08
3.77096e-06
3.60922e-08
3.77494e-06
4.36367e-08
3.7778e-06
4.74481e-08
3.77999e-06
5.05362e-08
3.78238e-06
5.39034e-08
3.78538e-06
5.68063e-08
3.78827e-06
5.80739e-08
3.79033e-06
5.80069e-08
3.79152e-06
5.79033e-08
3.79241e-06
5.87805e-08
3.79405e-06
6.07326e-08
3.7971e-06
6.2794e-08
3.80102e-06
6.36131e-08
3.80479e-06
6.27391e-08
3.80769e-06
6.06827e-08
3.80941e-06
5.828e-08
3.81002e-06
5.62989e-08
3.8101e-06
5.51631e-08
3.81044e-06
5.48421e-08
3.81147e-06
5.49314e-08
3.8131e-06
5.50033e-08
3.81512e-06
5.4859e-08
3.81736e-06
5.44299e-08
3.81961e-06
5.36608e-08
3.82165e-06
5.25727e-08
3.82326e-06
5.12911e-08
3.82432e-06
5.00056e-08
3.82491e-06
4.88705e-08
3.82515e-06
4.79811e-08
3.82523e-06
4.7382e-08
3.82532e-06
4.70818e-08
3.82559e-06
4.70598e-08
3.82616e-06
4.72764e-08
3.82718e-06
4.76666e-08
3.82877e-06
4.81579e-08
3.83109e-06
4.86489e-08
3.8344e-06
4.90209e-08
3.83915e-06
4.90163e-08
4.84374e-08
3.84542e-06
4.0099e-06
1.41861e-08
4.0144e-06
3.15935e-08
4.01813e-06
3.99034e-08
4.02107e-06
4.45153e-08
4.02354e-06
4.80574e-08
4.02612e-06
5.13258e-08
4.029e-06
5.39249e-08
4.03177e-06
5.53059e-08
4.034e-06
5.57791e-08
4.03572e-06
5.61859e-08
4.03739e-06
5.71109e-08
4.0396e-06
5.85154e-08
4.04261e-06
5.97882e-08
4.04603e-06
6.01947e-08
4.04926e-06
5.95072e-08
4.05188e-06
5.80586e-08
4.05377e-06
5.63936e-08
4.0551e-06
5.49733e-08
4.05624e-06
5.40238e-08
4.05755e-06
5.35306e-08
4.05918e-06
5.32966e-08
4.06111e-06
5.3075e-08
4.06326e-06
5.27106e-08
4.06555e-06
5.21421e-08
4.06785e-06
5.13587e-08
4.07002e-06
5.03969e-08
4.07197e-06
4.93452e-08
4.07366e-06
4.83107e-08
4.07515e-06
4.73849e-08
4.07651e-06
4.66259e-08
4.07783e-06
4.60584e-08
4.07923e-06
4.56779e-08
4.08084e-06
4.54572e-08
4.08276e-06
4.53535e-08
4.08512e-06
4.53068e-08
4.08803e-06
4.5246e-08
4.09159e-06
4.50874e-08
4.09586e-06
4.4748e-08
4.10074e-06
4.4144e-08
4.32616e-08
4.10591e-06
4.26986e-06
1.14945e-08
4.27402e-06
2.74363e-08
4.27759e-06
3.63317e-08
4.28058e-06
4.15224e-08
4.28327e-06
4.53717e-08
4.28599e-06
4.86033e-08
4.28885e-06
5.10616e-08
4.29161e-06
5.25488e-08
4.29403e-06
5.33579e-08
4.29618e-06
5.4039e-08
4.29835e-06
5.49401e-08
4.30086e-06
5.6006e-08
4.30379e-06
5.68521e-08
4.30693e-06
5.70595e-08
4.30991e-06
5.65226e-08
4.3125e-06
5.54672e-08
4.31465e-06
5.42459e-08
4.31648e-06
5.31477e-08
4.31818e-06
5.23175e-08
4.31996e-06
5.17503e-08
4.32193e-06
5.13313e-08
4.32409e-06
5.09144e-08
4.3264e-06
5.04032e-08
4.32878e-06
4.97593e-08
4.33116e-06
4.89841e-08
4.33344e-06
4.81074e-08
4.3356e-06
4.7186e-08
4.33763e-06
4.62834e-08
4.33956e-06
4.54535e-08
4.34146e-06
4.47266e-08
4.34341e-06
4.41113e-08
4.34549e-06
4.35962e-08
4.34779e-06
4.3156e-08
4.35039e-06
4.27543e-08
4.35335e-06
4.23514e-08
4.3567e-06
4.18969e-08
4.36044e-06
4.1339e-08
4.36456e-06
4.06289e-08
4.36897e-06
3.97382e-08
3.86428e-08
4.37359e-06
4.54684e-06
9.35997e-09
4.55062e-06
2.36634e-08
4.55415e-06
3.27962e-08
4.55721e-06
3.84651e-08
4.56004e-06
4.254e-08
4.56289e-06
4.57569e-08
4.5658e-06
4.81511e-08
4.56862e-06
4.97223e-08
4.57125e-06
5.07368e-08
4.57372e-06
5.15674e-08
4.57622e-06
5.24351e-08
4.57893e-06
5.32958e-08
4.58188e-06
5.39066e-08
4.58491e-06
5.40223e-08
4.58784e-06
5.36019e-08
4.5905e-06
5.28041e-08
4.59288e-06
5.1862e-08
4.59506e-06
5.09665e-08
4.59717e-06
5.02145e-08
4.59931e-06
4.96061e-08
4.60157e-06
4.9076e-08
4.60394e-06
4.85425e-08
4.60639e-06
4.7949e-08
4.60888e-06
4.72704e-08
4.61136e-06
4.65077e-08
4.61378e-06
4.56809e-08
4.61614e-06
4.48251e-08
4.61845e-06
4.39781e-08
4.62073e-06
4.31703e-08
4.62304e-06
4.24175e-08
4.62543e-06
4.17212e-08
4.62796e-06
4.10693e-08
4.63067e-06
4.0441e-08
4.63362e-06
3.98126e-08
4.6368e-06
3.91695e-08
4.64022e-06
3.84766e-08
4.64386e-06
3.76966e-08
4.64768e-06
3.68053e-08
4.65162e-06
3.57997e-08
3.46662e-08
4.6556e-06
4.84199e-06
7.67163e-09
4.8453e-06
2.03528e-08
4.84879e-06
2.93048e-08
4.85193e-06
3.53317e-08
4.85489e-06
3.95764e-08
4.85786e-06
4.27865e-08
4.86086e-06
4.51528e-08
4.8638e-06
4.67842e-08
4.86661e-06
4.79227e-08
4.86934e-06
4.88345e-08
4.87211e-06
4.96721e-08
4.87499e-06
5.04084e-08
4.87801e-06
5.08917e-08
4.88106e-06
5.09726e-08
4.88402e-06
5.06419e-08
4.88681e-06
5.00152e-08
4.88942e-06
4.92527e-08
4.89189e-06
4.8487e-08
4.89432e-06
4.77879e-08
4.89677e-06
4.7162e-08
4.89927e-06
4.65752e-08
4.90183e-06
4.59814e-08
4.90443e-06
4.53455e-08
4.90705e-06
4.465e-08
4.90967e-06
4.38941e-08
4.91226e-06
4.30898e-08
4.91482e-06
4.22582e-08
4.91738e-06
4.14242e-08
4.91994e-06
4.06058e-08
4.92255e-06
3.98122e-08
4.92523e-06
3.90431e-08
4.92801e-06
3.82882e-08
4.93092e-06
3.75313e-08
4.93397e-06
3.67619e-08
4.93716e-06
3.59806e-08
4.94047e-06
3.51636e-08
4.94388e-06
3.42859e-08
4.94735e-06
3.33296e-08
4.95088e-06
3.22778e-08
3.11313e-08
4.95441e-06
5.15646e-06
6.32677e-09
5.15929e-06
1.75267e-08
5.16261e-06
2.59885e-08
5.16583e-06
3.21052e-08
5.16894e-06
3.64732e-08
5.17204e-06
3.96868e-08
5.17515e-06
4.20407e-08
5.17822e-06
4.3715e-08
5.18122e-06
4.49252e-08
5.18417e-06
4.58767e-08
5.18716e-06
4.66873e-08
5.19022e-06
4.73466e-08
5.19335e-06
4.77591e-08
5.19649e-06
4.78333e-08
5.19956e-06
4.75724e-08
5.20251e-06
4.70631e-08
5.20534e-06
4.64212e-08
5.20809e-06
4.57449e-08
5.21079e-06
4.50892e-08
5.21348e-06
4.44655e-08
5.2162e-06
4.38568e-08
5.21895e-06
4.3236e-08
5.22171e-06
4.25804e-08
5.22448e-06
4.18776e-08
5.22725e-06
4.1126e-08
5.23001e-06
4.03326e-08
5.23276e-06
3.95113e-08
5.2355e-06
3.86797e-08
5.23826e-06
3.78493e-08
5.24104e-06
3.7027e-08
5.24387e-06
3.62143e-08
5.24675e-06
3.54079e-08
5.24968e-06
3.46004e-08
5.25267e-06
3.37771e-08
5.25573e-06
3.29141e-08
5.25889e-06
3.20038e-08
5.26213e-06
3.10455e-08
5.26543e-06
3.00346e-08
5.26874e-06
2.89613e-08
2.78307e-08
5.27205e-06
5.49147e-06
5.27493e-09
5.49387e-06
1.51271e-08
5.4969e-06
2.2952e-08
5.50013e-06
2.88756e-08
5.50337e-06
3.32342e-08
5.50662e-06
3.6436e-08
5.50987e-06
3.87933e-08
5.51308e-06
4.05055e-08
5.51625e-06
4.17567e-08
5.5194e-06
4.27221e-08
5.52259e-06
4.35019e-08
5.52583e-06
4.40989e-08
5.52914e-06
4.4457e-08
5.53244e-06
4.45331e-08
5.53568e-06
4.43336e-08
5.53882e-06
4.39191e-08
5.54187e-06
4.33751e-08
5.54484e-06
4.27759e-08
5.54776e-06
4.2165e-08
5.55067e-06
4.15562e-08
5.55358e-06
4.09429e-08
5.55651e-06
4.03105e-08
5.55944e-06
3.9646e-08
5.56238e-06
3.89422e-08
5.5653e-06
3.81997e-08
5.56821e-06
3.74248e-08
5.5711e-06
3.66262e-08
5.57397e-06
3.58105e-08
5.57683e-06
3.49845e-08
5.57971e-06
3.41527e-08
5.5826e-06
3.33163e-08
5.58554e-06
3.2474e-08
5.58852e-06
3.16221e-08
5.59154e-06
3.0751e-08
5.59461e-06
2.98421e-08
5.59773e-06
2.88914e-08
5.60087e-06
2.79008e-08
5.60403e-06
2.68732e-08
5.60718e-06
2.58118e-08
2.4724e-08
5.61029e-06
5.84832e-06
4.46946e-09
5.85037e-06
1.30751e-08
5.85313e-06
2.02013e-08
5.85624e-06
2.57606e-08
5.85952e-06
2.99588e-08
5.86287e-06
3.30805e-08
5.86626e-06
3.54067e-08
5.86963e-06
3.71363e-08
5.87296e-06
3.8423e-08
5.87629e-06
3.93978e-08
5.87965e-06
4.01347e-08
5.8831e-06
4.06529e-08
5.88661e-06
4.09439e-08
5.89013e-06
4.10116e-08
5.8936e-06
4.08701e-08
5.89696e-06
4.05564e-08
5.90021e-06
4.01222e-08
5.90337e-06
3.96131e-08
5.90648e-06
3.90586e-08
5.90956e-06
3.84728e-08
5.91265e-06
3.78592e-08
5.91574e-06
3.72163e-08
5.91885e-06
3.65423e-08
5.92195e-06
3.5837e-08
5.92505e-06
3.51035e-08
5.92813e-06
3.43467e-08
5.93118e-06
3.35719e-08
5.93421e-06
3.27804e-08
5.93722e-06
3.19738e-08
5.94022e-06
3.1152e-08
5.94322e-06
3.0314e-08
5.94624e-06
2.94583e-08
5.94928e-06
2.85826e-08
5.95235e-06
2.76836e-08
5.95543e-06
2.67578e-08
5.95852e-06
2.58047e-08
5.96159e-06
2.48268e-08
5.96464e-06
2.38283e-08
5.96763e-06
2.28146e-08
2.17932e-08
5.97056e-06
7.58881e-06
3.7328e-09
7.59092e-06
1.09653e-08
7.59394e-06
1.71781e-08
7.5975e-06
2.21966e-08
7.60137e-06
2.60936e-08
7.60543e-06
2.9016e-08
7.60963e-06
3.12103e-08
7.61388e-06
3.28848e-08
7.61814e-06
3.4165e-08
7.62241e-06
3.51221e-08
7.62675e-06
3.57992e-08
7.63117e-06
3.62314e-08
7.63566e-06
3.64547e-08
7.64017e-06
3.65066e-08
7.64462e-06
3.64152e-08
7.64898e-06
3.62022e-08
7.65321e-06
3.58865e-08
7.65734e-06
3.54833e-08
7.66139e-06
3.5005e-08
7.6654e-06
3.44626e-08
7.6694e-06
3.3867e-08
7.67338e-06
3.32285e-08
7.67737e-06
3.25564e-08
7.68135e-06
3.18584e-08
7.68531e-06
3.11404e-08
7.68925e-06
3.04064e-08
7.69317e-06
2.96584e-08
7.69705e-06
2.88959e-08
7.70091e-06
2.81175e-08
7.70474e-06
2.73212e-08
7.70855e-06
2.65052e-08
7.71234e-06
2.56682e-08
7.71611e-06
2.48097e-08
7.71986e-06
2.39307e-08
7.72359e-06
2.30337e-08
7.72727e-06
2.21219e-08
7.7309e-06
2.11996e-08
7.73445e-06
2.02717e-08
7.73792e-06
1.93431e-08
1.84198e-08
7.7413e-06
1.00132e-05
3.00517e-09
1.00154e-05
8.79419e-09
1.00187e-05
1.38859e-08
1.00228e-05
1.81423e-08
1.00273e-05
2.15645e-08
1.00321e-05
2.41936e-08
1.00372e-05
2.61437e-08
1.00425e-05
2.76094e-08
1.00479e-05
2.87426e-08
1.00534e-05
2.95948e-08
1.0059e-05
3.01866e-08
1.00647e-05
3.05521e-08
1.00704e-05
3.07367e-08
1.00761e-05
3.07831e-08
1.00818e-05
3.07221e-08
1.00875e-05
3.057e-08
1.0093e-05
3.03323e-08
1.00985e-05
3.00101e-08
1.01039e-05
2.96064e-08
1.01092e-05
2.91279e-08
1.01145e-05
2.85858e-08
1.01197e-05
2.79933e-08
1.01249e-05
2.73633e-08
1.01301e-05
2.67064e-08
1.01352e-05
2.60303e-08
1.01403e-05
2.53394e-08
1.01453e-05
2.46353e-08
1.01503e-05
2.39178e-08
1.01552e-05
2.31861e-08
1.01601e-05
2.24393e-08
1.01649e-05
2.1677e-08
1.01697e-05
2.08995e-08
1.01744e-05
2.01084e-08
1.0179e-05
1.93059e-08
1.01835e-05
1.84956e-08
1.0188e-05
1.76814e-08
1.01923e-05
1.68678e-08
1.01965e-05
1.60593e-08
1.02006e-05
1.52601e-08
1.44743e-08
1.02046e-05
1.32124e-05
2.24193e-09
1.32146e-05
6.52538e-09
1.32182e-05
1.03364e-08
1.32227e-05
1.36009e-08
1.3228e-05
1.6306e-08
1.32337e-05
1.84654e-08
1.32398e-05
2.00878e-08
1.32461e-05
2.12456e-08
1.32528e-05
2.20842e-08
1.32597e-05
2.27115e-08
1.32667e-05
2.31576e-08
1.32738e-05
2.34395e-08
1.3281e-05
2.35829e-08
1.32881e-05
2.36146e-08
1.32953e-05
2.35552e-08
1.33025e-05
2.34171e-08
1.33096e-05
2.32064e-08
1.33167e-05
2.29261e-08
1.33237e-05
2.25795e-08
1.33306e-05
2.2172e-08
1.33375e-05
2.17111e-08
1.33443e-05
2.12058e-08
1.3351e-05
2.06651e-08
1.33576e-05
2.0097e-08
1.33641e-05
1.95076e-08
1.33706e-05
1.89015e-08
1.33769e-05
1.82816e-08
1.33832e-05
1.76496e-08
1.33894e-05
1.70072e-08
1.33955e-05
1.63557e-08
1.34014e-05
1.56967e-08
1.34073e-05
1.50324e-08
1.34131e-05
1.43649e-08
1.34187e-05
1.36972e-08
1.34241e-05
1.30321e-08
1.34294e-05
1.23727e-08
1.34346e-05
1.17223e-08
1.34396e-05
1.10839e-08
1.34444e-05
1.04598e-08
9.85283e-09
1.3449e-05
1.74337e-05
1.39625e-09
1.74361e-05
4.0505e-09
1.744e-05
6.42303e-09
1.74452e-05
8.48199e-09
1.74512e-05
1.02198e-08
1.74581e-05
1.16399e-08
1.74654e-05
1.27445e-08
1.74731e-05
1.35245e-08
1.74812e-05
1.40248e-08
1.74896e-05
1.43563e-08
1.74981e-05
1.45836e-08
1.75068e-05
1.4718e-08
1.75157e-05
1.47657e-08
1.75245e-05
1.47367e-08
1.75335e-05
1.4641e-08
1.75424e-05
1.44865e-08
1.75513e-05
1.42797e-08
1.75602e-05
1.4026e-08
1.75691e-05
1.37304e-08
1.75778e-05
1.33976e-08
1.75865e-05
1.30323e-08
1.75951e-05
1.2639e-08
1.76035e-05
1.22222e-08
1.76118e-05
1.17858e-08
1.762e-05
1.13334e-08
1.7628e-05
1.08685e-08
1.76359e-05
1.03938e-08
1.76437e-05
9.91209e-09
1.76512e-05
9.42602e-09
1.76587e-05
8.93803e-09
1.76659e-05
8.45055e-09
1.7673e-05
7.9659e-09
1.76799e-05
7.48637e-09
1.76865e-05
7.01409e-09
1.7693e-05
6.5511e-09
1.76993e-05
6.09926e-09
1.77054e-05
5.6603e-09
1.77112e-05
5.23576e-09
1.77168e-05
4.82664e-09
4.43402e-09
1.77223e-05
2.30037e-05
4.02698e-10
2.30066e-05
1.18542e-09
2.30111e-05
1.89206e-09
2.30171e-05
2.50799e-09
2.30243e-05
3.02858e-09
2.30325e-05
3.45093e-09
2.30414e-05
3.77153e-09
2.3051e-05
3.9841e-09
2.30609e-05
4.07743e-09
2.30712e-05
4.08162e-09
2.30817e-05
4.04489e-09
2.30925e-05
3.9784e-09
2.31034e-05
3.88169e-09
2.31143e-05
3.75625e-09
2.31254e-05
3.6053e-09
2.31364e-05
3.43225e-09
2.31475e-05
3.24042e-09
2.31585e-05
3.03298e-09
2.31694e-05
2.8127e-09
2.31802e-05
2.58188e-09
2.31909e-05
2.34238e-09
2.32014e-05
2.09576e-09
2.32118e-05
1.84341e-09
2.3222e-05
1.58674e-09
2.3232e-05
1.32718e-09
2.32418e-05
1.06623e-09
2.32514e-05
8.05495e-10
2.32608e-05
5.46578e-10
2.32699e-05
2.91096e-10
2.32788e-05
4.08243e-11
2.32875e-05
-2.03625e-10
2.32959e-05
-4.40104e-10
2.3304e-05
-6.67693e-10
2.33119e-05
-8.85409e-10
2.33196e-05
-1.09242e-09
2.3327e-05
-1.28803e-09
2.33341e-05
-1.47171e-09
2.3341e-05
-1.64306e-09
2.33476e-05
-1.80194e-09
-1.94825e-09
2.3354e-05
3.03535e-05
-8.1323e-10
3.0357e-05
-2.36473e-09
3.03627e-05
-3.7455e-09
3.03701e-05
-4.94076e-09
3.03791e-05
-5.95753e-09
3.03894e-05
-6.81152e-09
3.04007e-05
-7.52181e-09
3.04128e-05
-8.10764e-09
3.04254e-05
-8.58442e-09
3.04385e-05
-8.97042e-09
3.04518e-05
-9.30414e-09
3.04654e-05
-9.59977e-09
3.04791e-05
-9.85818e-09
3.0493e-05
-1.00809e-08
3.05069e-05
-1.02709e-08
3.05207e-05
-1.04313e-08
3.05345e-05
-1.05651e-08
3.05482e-05
-1.0675e-08
3.05618e-05
-1.07638e-08
3.05752e-05
-1.08335e-08
3.05885e-05
-1.08857e-08
3.06015e-05
-1.09215e-08
3.06143e-05
-1.09415e-08
3.06268e-05
-1.09466e-08
3.06391e-05
-1.09376e-08
3.0651e-05
-1.09156e-08
3.06627e-05
-1.08816e-08
3.06741e-05
-1.08364e-08
3.06852e-05
-1.0781e-08
3.06959e-05
-1.07158e-08
3.07064e-05
-1.06414e-08
3.07165e-05
-1.05581e-08
3.07263e-05
-1.04663e-08
3.07358e-05
-1.03662e-08
3.07449e-05
-1.0258e-08
3.07538e-05
-1.0142e-08
3.07623e-05
-1.00187e-08
3.07706e-05
-9.88838e-09
3.07785e-05
-9.75151e-09
-9.60859e-09
3.07862e-05
1.54321e-05
-1.50634e-09
1.5434e-05
-4.34913e-09
1.54372e-05
-6.85358e-09
1.54412e-05
-8.99201e-09
1.5446e-05
-1.07789e-08
1.54515e-05
-1.22481e-08
1.54574e-05
-1.3438e-08
1.54637e-05
-1.43865e-08
1.54702e-05
-1.51257e-08
1.54769e-05
-1.56982e-08
1.54838e-05
-1.61745e-08
1.54908e-05
-1.65747e-08
1.54978e-05
-1.68997e-08
1.55049e-05
-1.71527e-08
1.5512e-05
-1.73398e-08
1.5519e-05
-1.74685e-08
1.5526e-05
-1.75472e-08
1.55329e-05
-1.7584e-08
1.55397e-05
-1.75848e-08
1.55464e-05
-1.75536e-08
1.5553e-05
-1.74927e-08
1.55595e-05
-1.74039e-08
1.55659e-05
-1.72892e-08
1.55721e-05
-1.71509e-08
1.55781e-05
-1.69914e-08
1.5584e-05
-1.68134e-08
1.55898e-05
-1.66194e-08
1.55953e-05
-1.64118e-08
1.56007e-05
-1.61926e-08
1.5606e-05
-1.59634e-08
1.56111e-05
-1.57256e-08
1.5616e-05
-1.548e-08
1.56208e-05
-1.52276e-08
1.56254e-05
-1.49689e-08
1.56298e-05
-1.47047e-08
1.56341e-05
-1.44356e-08
1.56382e-05
-1.41621e-08
1.56422e-05
-1.38851e-08
1.56461e-05
-1.36052e-08
-1.33233e-08
1.56498e-05
1.36048e-05
-2.19406e-09
1.36068e-05
-6.32944e-09
1.36099e-05
-9.91952e-09
1.36138e-05
-1.29175e-08
1.36184e-05
-1.53657e-08
1.36235e-05
-1.73352e-08
1.3629e-05
-1.88962e-08
1.36347e-05
-2.01122e-08
1.36406e-05
-2.10454e-08
1.36467e-05
-2.17796e-08
1.36529e-05
-2.23785e-08
1.36592e-05
-2.28565e-08
1.36655e-05
-2.32206e-08
1.36718e-05
-2.34808e-08
1.36781e-05
-2.36471e-08
1.36844e-05
-2.37313e-08
1.36906e-05
-2.37466e-08
1.36967e-05
-2.37051e-08
1.37027e-05
-2.36148e-08
1.37087e-05
-2.34789e-08
1.37145e-05
-2.32988e-08
1.37201e-05
-2.30804e-08
1.37257e-05
-2.28299e-08
1.37311e-05
-2.25526e-08
1.37363e-05
-2.22528e-08
1.37415e-05
-2.19336e-08
1.37464e-05
-2.15977e-08
1.37513e-05
-2.12473e-08
1.3756e-05
-2.08841e-08
1.37605e-05
-2.051e-08
1.37649e-05
-2.01268e-08
1.37692e-05
-1.9736e-08
1.37733e-05
-1.93392e-08
1.37773e-05
-1.8938e-08
1.37811e-05
-1.85336e-08
1.37848e-05
-1.81274e-08
1.37883e-05
-1.77205e-08
1.37918e-05
-1.73139e-08
1.37951e-05
-1.69085e-08
-1.65051e-08
1.37982e-05
1.1994e-05
-2.93222e-09
1.19961e-05
-8.42966e-09
1.19993e-05
-1.30778e-08
1.20032e-05
-1.68319e-08
1.20077e-05
-1.98123e-08
1.20125e-05
-2.21613e-08
1.20176e-05
-2.39979e-08
1.20229e-05
-2.5415e-08
1.20284e-05
-2.6501e-08
1.20339e-05
-2.73628e-08
1.20396e-05
-2.80386e-08
1.20453e-05
-2.85399e-08
1.2051e-05
-2.88928e-08
1.20566e-05
-2.91255e-08
1.20622e-05
-2.92567e-08
1.20678e-05
-2.92977e-08
1.20733e-05
-2.9256e-08
1.20787e-05
-2.91373e-08
1.2084e-05
-2.89473e-08
1.20893e-05
-2.86913e-08
1.20943e-05
-2.83775e-08
1.20993e-05
-2.80204e-08
1.21041e-05
-2.76329e-08
1.21088e-05
-2.72235e-08
1.21133e-05
-2.67967e-08
1.21177e-05
-2.63542e-08
1.2122e-05
-2.58965e-08
1.21262e-05
-2.54237e-08
1.21302e-05
-2.49364e-08
1.21342e-05
-2.44358e-08
1.2138e-05
-2.39241e-08
1.21416e-05
-2.34038e-08
1.21452e-05
-2.28778e-08
1.21486e-05
-2.23489e-08
1.21519e-05
-2.18196e-08
1.2155e-05
-2.12921e-08
1.21581e-05
-2.0768e-08
1.2161e-05
-2.02486e-08
1.21638e-05
-1.97348e-08
-1.92273e-08
1.21666e-05
1.0574e-05
-3.78514e-09
1.05764e-05
-1.07797e-08
1.05797e-05
-1.64211e-08
1.05837e-05
-2.07724e-08
1.0588e-05
-2.41201e-08
1.05925e-05
-2.67162e-08
1.05973e-05
-2.87455e-08
1.06022e-05
-3.03334e-08
1.06073e-05
-3.15625e-08
1.06124e-05
-3.25021e-08
1.06176e-05
-3.31856e-08
1.06227e-05
-3.36491e-08
1.06277e-05
-3.39427e-08
1.06327e-05
-3.41163e-08
1.06377e-05
-3.4203e-08
1.06426e-05
-3.42098e-08
1.06474e-05
-3.41246e-08
1.06522e-05
-3.39325e-08
1.06569e-05
-3.3632e-08
1.06615e-05
-3.32414e-08
1.06659e-05
-3.27891e-08
1.06702e-05
-3.22963e-08
1.06743e-05
-3.17793e-08
1.06783e-05
-3.12493e-08
1.06822e-05
-3.07112e-08
1.06861e-05
-3.01646e-08
1.06898e-05
-2.96062e-08
1.06934e-05
-2.90327e-08
1.06969e-05
-2.84419e-08
1.07003e-05
-2.78342e-08
1.07036e-05
-2.72118e-08
1.07067e-05
-2.6578e-08
1.07098e-05
-2.59373e-08
1.07127e-05
-2.52941e-08
1.07156e-05
-2.46525e-08
1.07183e-05
-2.40159e-08
1.07209e-05
-2.33868e-08
1.07234e-05
-2.2767e-08
1.07259e-05
-2.21575e-08
-2.1558e-08
1.07282e-05
9.32231e-06
-4.85794e-09
9.32505e-06
-1.35216e-08
9.32862e-06
-1.99874e-08
9.33256e-06
-2.47121e-08
9.33667e-06
-2.82358e-08
9.34089e-06
-3.09337e-08
9.3452e-06
-3.30594e-08
9.34964e-06
-3.47712e-08
9.35421e-06
-3.61347e-08
9.35887e-06
-3.71553e-08
9.36352e-06
-3.78368e-08
9.3681e-06
-3.82322e-08
9.37259e-06
-3.84323e-08
9.377e-06
-3.85235e-08
9.38135e-06
-3.85567e-08
9.38568e-06
-3.85348e-08
9.38998e-06
-3.84254e-08
9.39423e-06
-3.81882e-08
9.39841e-06
-3.78037e-08
9.40245e-06
-3.72882e-08
9.40635e-06
-3.66834e-08
9.41008e-06
-3.60322e-08
9.41367e-06
-3.53696e-08
9.41714e-06
-3.47174e-08
9.42051e-06
-3.40823e-08
9.42381e-06
-3.34582e-08
9.42703e-06
-3.2832e-08
9.43019e-06
-3.21899e-08
9.43327e-06
-3.15226e-08
9.43626e-06
-3.08273e-08
9.43916e-06
-3.01064e-08
9.44195e-06
-2.9366e-08
9.44462e-06
-2.86137e-08
9.44718e-06
-2.78575e-08
9.44964e-06
-2.7105e-08
9.45198e-06
-2.63625e-08
9.45423e-06
-2.56345e-08
9.45639e-06
-2.49239e-08
9.45846e-06
-2.42321e-08
-2.356e-08
9.46047e-06
8.21907e-06
-6.40366e-09
8.22227e-06
-1.67242e-08
8.22602e-06
-2.37381e-08
8.2299e-06
-2.8594e-08
8.23378e-06
-3.21136e-08
8.23761e-06
-3.47685e-08
8.24144e-06
-3.68865e-08
8.24536e-06
-3.86881e-08
8.24944e-06
-4.02207e-08
8.25367e-06
-4.13773e-08
8.25789e-06
-4.20654e-08
8.26201e-06
-4.23427e-08
8.26595e-06
-4.23764e-08
8.26976e-06
-4.23365e-08
8.27352e-06
-4.23189e-08
8.27731e-06
-4.23212e-08
8.28115e-06
-4.22673e-08
8.28502e-06
-4.20576e-08
8.28884e-06
-4.16263e-08
8.29254e-06
-4.09785e-08
8.29603e-06
-4.01775e-08
8.2993e-06
-3.9308e-08
8.30238e-06
-3.84471e-08
8.30531e-06
-3.76472e-08
8.30816e-06
-3.69262e-08
8.31097e-06
-3.62701e-08
8.31378e-06
-3.56445e-08
8.3166e-06
-3.50082e-08
8.31941e-06
-3.43288e-08
8.32217e-06
-3.35903e-08
8.32485e-06
-3.27929e-08
8.32744e-06
-3.19474e-08
8.32989e-06
-3.10703e-08
8.33221e-06
-3.01791e-08
8.3344e-06
-2.92906e-08
8.33646e-06
-2.84189e-08
8.3384e-06
-2.75741e-08
8.34023e-06
-2.6762e-08
8.34199e-06
-2.59841e-08
-2.52362e-08
8.34366e-06
7.24672e-06
-8.63399e-09
7.25043e-06
-2.04282e-08
7.25434e-06
-2.76447e-08
7.25813e-06
-3.23933e-08
7.26178e-06
-3.57583e-08
7.26522e-06
-3.82099e-08
7.2685e-06
-4.01672e-08
7.27183e-06
-4.20203e-08
7.27546e-06
-4.38462e-08
7.27939e-06
-4.53121e-08
7.28338e-06
-4.60553e-08
7.28715e-06
-4.61039e-08
7.29055e-06
-4.57849e-08
7.29368e-06
-4.5459e-08
7.29672e-06
-4.53592e-08
7.29991e-06
-4.55112e-08
7.30337e-06
-4.57303e-08
7.30705e-06
-4.57346e-08
7.31075e-06
-4.53317e-08
7.31429e-06
-4.45143e-08
7.31752e-06
-4.34049e-08
7.32038e-06
-4.21704e-08
7.32291e-06
-4.09753e-08
7.32521e-06
-3.99487e-08
7.32742e-06
-3.91416e-08
7.32967e-06
-3.85161e-08
7.33201e-06
-3.79814e-08
7.33444e-06
-3.74423e-08
7.33694e-06
-3.68302e-08
7.33946e-06
-3.61109e-08
7.34195e-06
-3.52804e-08
7.34436e-06
-3.43543e-08
7.34664e-06
-3.33562e-08
7.34878e-06
-3.23133e-08
7.35074e-06
-3.12547e-08
7.35253e-06
-3.02079e-08
7.35415e-06
-2.91961e-08
7.35562e-06
-2.82354e-08
7.35697e-06
-2.73334e-08
-2.64873e-08
7.35822e-06
6.38956e-06
-1.15158e-08
6.39396e-06
-2.48186e-08
6.3981e-06
-3.17937e-08
6.40185e-06
-3.61421e-08
6.40532e-06
-3.92283e-08
6.40839e-06
-4.12786e-08
6.41104e-06
-4.28148e-08
6.41363e-06
-4.46127e-08
6.41675e-06
-4.69599e-08
6.42058e-06
-4.91498e-08
6.42467e-06
-5.01417e-08
6.42837e-06
-4.98041e-08
6.43136e-06
-4.87738e-08
6.43365e-06
-4.77523e-08
6.43557e-06
-4.72749e-08
6.4377e-06
-4.76435e-08
6.4406e-06
-4.86296e-08
6.44433e-06
-4.94627e-08
6.44846e-06
-4.94623e-08
6.45245e-06
-4.85023e-08
6.45589e-06
-4.68462e-08
6.45856e-06
-4.48448e-08
6.46044e-06
-4.28546e-08
6.46172e-06
-4.1227e-08
6.46279e-06
-4.02136e-08
6.46411e-06
-3.98335e-08
6.46595e-06
-3.98244e-08
6.46832e-06
-3.98089e-08
6.47102e-06
-3.95272e-08
6.47382e-06
-3.89117e-08
6.47655e-06
-3.80151e-08
6.47911e-06
-3.69185e-08
6.48144e-06
-3.56823e-08
6.48348e-06
-3.43532e-08
6.48521e-06
-3.29827e-08
6.48664e-06
-3.16345e-08
6.48781e-06
-3.03708e-08
6.48881e-06
-2.92369e-08
6.48973e-06
-2.8251e-08
-2.7462e-08
6.4907e-06
5.63409e-06
-1.51647e-08
5.63945e-06
-3.01793e-08
5.64396e-06
-3.62982e-08
5.64776e-06
-3.99408e-08
5.65117e-06
-4.26373e-08
5.65381e-06
-4.3924e-08
5.65568e-06
-4.468e-08
5.65744e-06
-4.63775e-08
5.66008e-06
-4.96028e-08
5.66401e-06
-5.30784e-08
5.66848e-06
-5.46104e-08
5.67234e-06
-5.36657e-08
5.675e-06
-5.14314e-08
5.67652e-06
-4.92745e-08
5.67728e-06
-4.80371e-08
5.67788e-06
-4.82438e-08
5.67931e-06
-5.00557e-08
5.68227e-06
-5.24182e-08
5.6865e-06
-5.36987e-08
5.6912e-06
-5.32017e-08
5.69553e-06
-5.11697e-08
5.69885e-06
-4.8171e-08
5.70089e-06
-4.48908e-08
5.7016e-06
-4.19432e-08
5.70116e-06
-3.97687e-08
5.70006e-06
-3.87294e-08
5.69913e-06
-3.88985e-08
5.69909e-06
-3.97704e-08
5.70016e-06
-4.05979e-08
5.70217e-06
-4.09217e-08
5.70481e-06
-4.06489e-08
5.70776e-06
-3.98697e-08
5.71076e-06
-3.86881e-08
5.71359e-06
-3.71836e-08
5.71603e-06
-3.54248e-08
5.71792e-06
-3.35172e-08
5.71913e-06
-3.15851e-08
5.71967e-06
-2.97748e-08
5.71959e-06
-2.81715e-08
-2.67278e-08
5.71886e-06
4.96892e-06
-2.03368e-08
4.97559e-06
-3.6852e-08
4.98043e-06
-4.11286e-08
4.98482e-06
-4.43329e-08
4.98871e-06
-4.65281e-08
4.99063e-06
-4.58438e-08
4.99074e-06
-4.47903e-08
4.99127e-06
-4.69079e-08
4.99427e-06
-5.26043e-08
4.99953e-06
-5.83428e-08
5.00504e-06
-6.01185e-08
5.00875e-06
-5.73769e-08
5.00956e-06
-5.22357e-08
5.00769e-06
-4.74058e-08
5.00515e-06
-4.54985e-08
5.00454e-06
-4.76303e-08
5.00692e-06
-5.24419e-08
5.01123e-06
-5.67247e-08
5.01554e-06
-5.80048e-08
5.01858e-06
-5.62472e-08
5.01988e-06
-5.24666e-08
5.01908e-06
-4.7369e-08
5.01602e-06
-4.18303e-08
5.01136e-06
-3.72906e-08
5.00667e-06
-3.50736e-08
5.00335e-06
-3.5412e-08
5.0018e-06
-3.73465e-08
5.00135e-06
-3.93232e-08
5.00092e-06
-4.01691e-08
4.9997e-06
-3.96936e-08
4.99735e-06
-3.8307e-08
4.99396e-06
-3.6472e-08
4.98969e-06
-3.4427e-08
4.98474e-06
-3.2225e-08
4.9792e-06
-2.98841e-08
4.97321e-06
-2.75309e-08
4.96697e-06
-2.53505e-08
4.96072e-06
-2.35207e-08
4.95463e-06
-2.20825e-08
-2.11485e-08
4.94905e-06
4.38631e-06
-3.06511e-08
4.39451e-06
-4.50499e-08
4.39892e-06
-4.55374e-08
4.40443e-06
-4.98462e-08
4.40843e-06
-5.05276e-08
4.40813e-06
-4.55423e-08
4.4035e-06
-4.01555e-08
4.39755e-06
-4.09606e-08
4.39437e-06
-4.94298e-08
4.39401e-06
-5.79822e-08
4.39278e-06
-5.8889e-08
4.38831e-06
-5.2899e-08
4.38004e-06
-4.39687e-08
4.36771e-06
-3.50792e-08
4.35147e-06
-2.92519e-08
4.33353e-06
-2.96944e-08
4.31769e-06
-3.65996e-08
4.30474e-06
-4.37803e-08
4.29198e-06
-4.52438e-08
4.27722e-06
-4.14827e-08
4.26016e-06
-3.54122e-08
4.24154e-06
-2.87476e-08
4.22161e-06
-2.19019e-08
4.19957e-06
-1.52473e-08
4.17499e-06
-1.04895e-08
4.14952e-06
-9.94941e-09
4.12576e-06
-1.35786e-08
4.10449e-06
-1.80544e-08
4.08471e-06
-2.03874e-08
4.06515e-06
-2.014e-08
4.0451e-06
-1.82512e-08
4.02448e-06
-1.58546e-08
4.00357e-06
-1.35173e-08
3.98257e-06
-1.12307e-08
3.96153e-06
-8.83988e-09
3.94039e-06
-6.39284e-09
3.91923e-06
-4.19317e-09
3.89832e-06
-2.60829e-09
3.87806e-06
-1.81956e-09
-1.82822e-09
3.85874e-06
3.82719e-06
3.78214e-06
3.7366e-06
3.68676e-06
3.63623e-06
3.59069e-06
3.55053e-06
3.50957e-06
3.46014e-06
3.40216e-06
3.34327e-06
3.29037e-06
3.2464e-06
3.21132e-06
3.18207e-06
3.15238e-06
3.11578e-06
3.072e-06
3.02675e-06
2.98527e-06
2.94986e-06
2.92111e-06
2.89921e-06
2.88396e-06
2.87347e-06
2.86352e-06
2.84994e-06
2.83189e-06
2.8115e-06
2.79136e-06
2.77311e-06
2.75726e-06
2.74374e-06
2.73251e-06
2.72367e-06
2.71728e-06
2.71308e-06
2.71047e-06
2.70865e-06
2.70683e-06
1.34677e-10
-1.34677e-10
3.02386e-10
-1.67709e-10
4.9944e-10
-1.97054e-10
7.28696e-10
-2.29256e-10
9.9191e-10
-2.63214e-10
1.28993e-09
-2.98021e-10
1.62284e-09
-3.32912e-10
1.98972e-09
-3.66878e-10
2.38819e-09
-3.98473e-10
2.81381e-09
-4.25611e-10
3.25923e-09
-4.45426e-10
3.71735e-09
-4.58122e-10
4.21203e-09
-4.94675e-10
4.75606e-09
-5.44036e-10
5.31517e-09
-5.59107e-10
5.86553e-09
-5.5036e-10
6.39597e-09
-5.30443e-10
6.89278e-09
-4.96811e-10
7.33956e-09
-4.46773e-10
7.71887e-09
-3.79313e-10