/*--------------------------------*- C++ -*----------------------------------*\
| =========                 |                                                 |
| \\      /  F ield         | OpenFOAM: The Open Source CFD Toolbox           |
|  \\    /   O peration     | Version:  2112                                  |
|   \\  /    A nd           | Website:  www.openfoam.com                      |
|    \\/     M anipulation  |                                                 |
\*---------------------------------------------------------------------------*/
FoamFile
{
    version     2.0;
    format      ascii;
    arch        "LSB;label=32;scalar=64";
    class       volScalarField;
    location    "0.022";
    object      k;
}
// * * * * * * * * * * * * * * * * * * * * * * * * * * * * * * * * * * * * * //

dimensions      [0 2 -2 0 0 0 0];

internalField   nonuniform List<scalar> 
12225
(
0.00010612
6.77494e-05
7.0464e-05
9.14946e-05
9.70146e-05
9.32383e-05
7.01861e-05
4.82085e-05
4.11657e-05
4.09001e-05
4.50651e-05
5.12924e-05
5.28143e-05
5.20615e-05
4.58535e-05
3.3371e-05
2.39244e-05
3.22386e-05
2.15062e-05
2.20475e-05
2.39413e-05
2.97105e-05
3.39939e-05
3.51865e-05
3.453e-05
3.1585e-05
2.96057e-05
2.91476e-05
2.93813e-05
3.10401e-05
3.53565e-05
3.80014e-05
3.8251e-05
3.77122e-05
3.64241e-05
3.22345e-05
2.00224e-05
1.85109e-05
1.52128e-05
1.37542e-05
1.35935e-05
1.37653e-05
1.42747e-05
1.45453e-05
1.48826e-05
1.55724e-05
1.70915e-05
1.88354e-05
2.00211e-05
2.05577e-05
2.15426e-05
2.28267e-05
2.32894e-05
2.30624e-05
2.01853e-05
2.01271e-05
1.99095e-05
1.96606e-05
1.89647e-05
1.8352e-05
1.77344e-05
1.51294e-05
9.70733e-06
9.52615e-06
9.90515e-06
1.11045e-05
1.39224e-05
1.59967e-05
1.70882e-05
1.75005e-05
1.75907e-05
1.755e-05
3.1636e-05
2.77029e-05
2.21244e-05
2.14627e-05
2.13708e-05
2.11792e-05
2.09788e-05
2.05966e-05
2.01691e-05
1.95774e-05
1.90874e-05
1.89762e-05
1.90724e-05
1.94692e-05
1.97691e-05
1.98586e-05
1.9858e-05
1.97556e-05
2.33386e-05
2.58315e-05
3.07077e-05
4.03612e-05
4.24298e-05
3.89517e-05
3.09261e-05
2.70657e-05
2.64096e-05
2.71459e-05
2.81688e-05
2.79504e-05
2.61683e-05
2.30773e-05
2.14496e-05
2.08242e-05
2.06761e-05
2.06437e-05
2.43364e-05
2.33951e-05
2.24124e-05
2.30163e-05
2.47967e-05
2.55899e-05
2.58257e-05
2.58068e-05
2.53342e-05
2.47825e-05
2.46329e-05
2.466e-05
2.47801e-05
2.46701e-05
2.40184e-05
2.34926e-05
2.33996e-05
2.35238e-05
2.59354e-05
2.82672e-05
2.82613e-05
2.90992e-05
2.95697e-05
2.96469e-05
2.96586e-05
2.81086e-05
2.42405e-05
2.21519e-05
2.12849e-05
2.11055e-05
2.11252e-05
2.12743e-05
2.16695e-05
2.22692e-05
2.28953e-05
2.40808e-05
2.05231e-05
2.245e-05
2.32841e-05
2.32914e-05
2.26334e-05
2.21371e-05
2.16087e-05
2.10422e-05
2.05839e-05
2.03896e-05
2.03668e-05
2.04873e-05
2.12728e-05
2.3872e-05
2.55315e-05
2.5941e-05
2.58448e-05
2.5796e-05
2.23684e-05
2.17633e-05
2.40776e-05
2.69495e-05
2.6574e-05
2.41907e-05
2.21338e-05
2.11442e-05
2.08242e-05
2.0794e-05
2.09564e-05
2.20229e-05
2.5943e-05
2.85784e-05
2.89874e-05
2.85565e-05
2.64004e-05
2.44236e-05
2.09101e-05
2.11457e-05
2.19677e-05
2.25385e-05
2.25522e-05
2.23157e-05
2.21581e-05
2.21692e-05
2.23568e-05
2.30419e-05
2.53205e-05
3.41258e-05
4.17303e-05
4.3222e-05
4.26342e-05
4.00834e-05
3.30383e-05
2.7411e-05
2.07119e-05
2.09248e-05
2.12532e-05
2.23332e-05
2.27771e-05
2.27335e-05
2.21784e-05
2.16218e-05
2.15145e-05
2.16057e-05
2.22256e-05
2.47745e-05
3.08263e-05
3.46018e-05
3.52513e-05
3.44316e-05
3.03062e-05
2.62261e-05
2.09996e-05
2.16403e-05
2.12446e-05
2.07382e-05
2.07267e-05
2.10524e-05
2.27622e-05
2.49396e-05
2.53976e-05
2.53217e-05
2.55904e-05
2.65171e-05
2.66078e-05
2.576e-05
2.41695e-05
2.32118e-05
2.24678e-05
2.21173e-05
2.07912e-05
2.19871e-05
2.19327e-05
2.15913e-05
2.15928e-05
2.18932e-05
2.30218e-05
2.54439e-05
2.68247e-05
2.72643e-05
2.71588e-05
2.67207e-05
2.5931e-05
2.45712e-05
2.33107e-05
2.24145e-05
2.18518e-05
2.15584e-05
2.11814e-05
2.2239e-05
2.21897e-05
2.22135e-05
2.29774e-05
2.33636e-05
2.33036e-05
2.32334e-05
2.34656e-05
2.50557e-05
2.72143e-05
2.74724e-05
2.69678e-05
2.62487e-05
2.54881e-05
2.45538e-05
2.3716e-05
2.31085e-05
2.04695e-05
2.18651e-05
2.24733e-05
2.29777e-05
2.37947e-05
2.43021e-05
2.439e-05
2.42539e-05
2.34433e-05
2.2738e-05
2.25516e-05
2.25379e-05
2.25911e-05
2.28491e-05
2.30243e-05
2.30518e-05
2.30435e-05
2.30137e-05
2.00689e-05
2.16396e-05
2.44944e-05
2.97099e-05
3.1043e-05
3.03765e-05
2.68998e-05
2.37198e-05
2.20955e-05
2.14866e-05
2.13817e-05
2.14596e-05
2.19402e-05
2.25136e-05
2.28219e-05
2.29398e-05
2.29622e-05
2.29457e-05
2.07456e-05
2.28157e-05
2.3455e-05
2.38573e-05
2.37265e-05
2.27388e-05
2.19698e-05
2.16189e-05
2.133e-05
2.1063e-05
2.08854e-05
2.08156e-05
2.08086e-05
2.08184e-05
2.0849e-05
2.09194e-05
2.10957e-05
2.16642e-05
2.02034e-05
2.13477e-05
2.15259e-05
2.12043e-05
2.08218e-05
2.08037e-05
2.09012e-05
2.09403e-05
2.09148e-05
2.07744e-05
2.06461e-05
2.05871e-05
2.05659e-05
2.05619e-05
2.05636e-05
2.05764e-05
2.06256e-05
2.08416e-05
2.02153e-05
2.10614e-05
2.15232e-05
2.15572e-05
2.15708e-05
2.20209e-05
2.31573e-05
2.36727e-05
2.37059e-05
2.36105e-05
2.31487e-05
2.24611e-05
2.19006e-05
2.14713e-05
2.11921e-05
2.10557e-05
2.10206e-05
2.10224e-05
2.0281e-05
2.11909e-05
2.15393e-05
2.16529e-05
2.18574e-05
2.20093e-05
2.20639e-05
2.20237e-05
2.20024e-05
2.20118e-05
2.20626e-05
2.2178e-05
2.22585e-05
2.22857e-05
2.22974e-05
2.23546e-05
2.2401e-05
2.23055e-05
2.05702e-05
2.03892e-05
2.11061e-05
2.18977e-05
2.21245e-05
2.21312e-05
2.20928e-05
2.209e-05
2.21759e-05
2.25157e-05
2.27061e-05
2.27266e-05
2.26532e-05
2.22806e-05
2.19014e-05
2.17164e-05
2.16556e-05
2.16515e-05
2.05115e-05
2.03352e-05
2.03587e-05
2.0595e-05
2.08564e-05
2.0996e-05
2.11013e-05
2.12509e-05
2.15221e-05
2.17648e-05
2.18865e-05
2.1912e-05
2.18941e-05
2.17933e-05
2.17241e-05
2.17147e-05
2.17383e-05
2.18835e-05
2.0799e-05
2.25049e-05
2.24269e-05
2.16837e-05
2.16008e-05
2.1697e-05
2.17098e-05
2.16645e-05
2.16632e-05
2.18034e-05
2.24814e-05
2.33033e-05
2.38562e-05
2.40416e-05
2.39527e-05
2.35479e-05
2.3313e-05
2.3277e-05
2.10977e-05
2.15599e-05
2.13864e-05
2.09644e-05
2.13848e-05
2.49872e-05
2.71573e-05
2.68419e-05
2.52157e-05
2.42515e-05
2.41944e-05
2.49014e-05
2.84453e-05
3.1937e-05
3.32728e-05
3.34617e-05
3.31845e-05
3.15232e-05
2.0536e-05
2.04102e-05
2.04017e-05
2.05098e-05
2.1181e-05
2.58148e-05
3.33905e-05
3.40301e-05
3.23163e-05
3.07046e-05
3.06439e-05
3.18585e-05
3.77657e-05
4.32007e-05
4.42979e-05
4.32006e-05
3.72681e-05
3.11912e-05
2.00115e-05
2.00013e-05
1.99988e-05
1.99694e-05
1.98959e-05
1.97336e-05
1.95282e-05
1.94899e-05
1.95231e-05
1.9642e-05
2.00389e-05
2.04687e-05
2.05573e-05
2.05827e-05
2.06375e-05
2.06594e-05
2.06494e-05
2.06529e-05
2.00014e-05
1.84227e-05
1.8031e-05
1.6444e-05
1.3847e-05
1.30048e-05
1.30182e-05
1.35525e-05
1.49341e-05
1.58458e-05
1.62712e-05
1.63946e-05
1.63952e-05
1.6286e-05
1.61707e-05
1.6169e-05
1.62219e-05
1.63908e-05
2.00075e-05
2.03827e-05
2.18946e-05
2.28804e-05
2.3269e-05
2.35542e-05
2.42003e-05
2.6069e-05
2.74062e-05
2.77493e-05
2.77184e-05
2.75174e-05
2.74953e-05
2.76925e-05
2.84708e-05
3.07043e-05
3.64848e-05
4.10209e-05
2.03063e-05
2.69803e-05
5.71524e-05
7.32187e-05
7.28646e-05
6.19138e-05
5.22098e-05
4.94597e-05
4.90798e-05
4.91925e-05
4.96348e-05
5.06134e-05
5.32376e-05
6.29073e-05
7.97063e-05
9.03373e-05
9.49238e-05
9.58631e-05
0.00036436
0.00176872
0.00214753
0.00205496
0.00183082
0.00173922
0.00172731
0.00175184
0.00178388
0.00178301
0.00178493
0.00176671
0.0016793
0.00169313
0.00179734
0.00204204
0.002596
0.00331366
0.00422099
0.00562435
0.00659759
0.00890331
0.0121921
0.012878
0.0130524
0.0196044
0.0244079
0.0261338
0.0419564
0.105491
0.0443945
0.0163424
0.0120777
0.0117103
0.0116666
0.0102987
0.00894855
0.00691988
0.00558736
0.00398265
0.00307879
0.00215941
0.00168579
0.00122038
0.00101467
0.000894738
0.000853503
0.000858201
0.000857796
0.00084908
0.000838624
0.000826912
0.00081067
0.000796074
0.000778108
0.000762096
0.000740019
0.000714311
0.000686953
0.000661036
0.000636331
0.000614332
0.000590256
0.000566842
0.000547149
0.000525229
0.000504913
0.000494211
0.000479044
0.000469434
0.000456725
0.000439367
0.000428885
0.000421985
0.000412519
0.000394776
0.000375309
0.000355486
0.000345269
0.000323254
0.000297974
0.00028483
0.000262127
0.000244553
0.000226918
0.000210319
0.000194782
0.000180465
0.000167528
0.00015579
0.000144973
0.000135147
0.00012624
0.000117479
0.000108482
9.93919e-05
9.03359e-05
8.14329e-05
7.27489e-05
6.42475e-05
5.58766e-05
4.7727e-05
4.01939e-05
3.36287e-05
2.81051e-05
2.35107e-05
1.97081e-05
1.65855e-05
1.40329e-05
1.19115e-05
1.00572e-05
8.3741e-06
6.84104e-06
5.47539e-06
4.28751e-06
3.30048e-06
2.51062e-06
1.89268e-06
1.41596e-06
1.05149e-06
7.7485e-07
5.66456e-07
4.10793e-07
2.95565e-07
2.11053e-07
1.49622e-07
1.05342e-07
7.36676e-08
5.11711e-08
3.53008e-08
2.41794e-08
1.64374e-08
1.10844e-08
7.40997e-09
4.90772e-09
3.2185e-09
2.0889e-09
1.34118e-09
8.51575e-10
5.34612e-10
3.31815e-10
2.03615e-10
1.23551e-10
7.41516e-11
4.40343e-11
2.58843e-11
1.50675e-11
8.68932e-12
4.9665e-12
2.81455e-12
1.58212e-12
8.82492e-13
4.8865e-13
2.68717e-13
1.46848e-13
7.98299e-14
4.32529e-14
2.34417e-14
1.27947e-14
7.11884e-15
4.11933e-15
2.55005e-15
1.73965e-15
1.32942e-15
1.1291e-15
1.03881e-15
1.00591e-15
1e-15
1e-15
1e-15
1e-15
1e-15
1e-15
1e-15
1e-15
1e-15
1.44484e-15
4.29333e-13
3.9902e-10
3.62749e-07
0.00059443
0.00156832
0.00229733
0.00293896
0.00379157
0.00405576
0.00433089
0.0050625
0.00552559
0.00582185
0.00628189
0.00636747
0.00627536
0.00603514
0.00552768
0.00500756
0.0045407
0.00446143
0.00460562
0.0051128
0.00571978
0.00677498
0.00896712
0.010554
0.0116976
0.019714
0.0394429
0.041516
0.0400012
0.034052
0.0153755
0.00900154
0.00694124
0.00600582
0.00468848
0.00397974
0.00321775
0.00284811
0.0025917
0.00247179
0.00242458
0.00240986
0.00243744
0.00245256
0.00247635
0.00248582
0.00248944
0.00248641
0.00246574
0.00244165
0.00239804
0.00236246
0.00231907
0.00227694
0.00223823
0.00217976
0.00212123
0.00206315
0.0020089
0.0019461
0.00188584
0.00183372
0.00177724
0.00172194
0.00166792
0.00161946
0.00156824
0.00153422
0.00148767
0.00145839
0.00143621
0.00139551
0.0013759
0.00134983
0.00131688
0.00127231
0.00123045
0.00116199
0.0011161
0.00104081
0.000961701
0.000897444
0.000817099
0.000746595
0.000676752
0.000610679
0.000549242
0.000493059
0.000444024
0.000402007
0.000365054
0.000332491
0.000303704
0.000278619
0.000256754
0.00023725
0.00021943
0.000202859
0.000187468
0.000173144
0.000159595
0.000145971
0.000131835
0.000117457
0.000103406
9.01603e-05
7.79755e-05
6.69542e-05
5.7149e-05
4.86164e-05
4.13921e-05
3.53843e-05
3.03971e-05
2.62059e-05
2.26253e-05
1.94911e-05
1.66945e-05
1.41816e-05
1.19287e-05
9.92697e-06
8.16669e-06
6.63969e-06
5.33507e-06
4.2377e-06
3.32869e-06
2.58657e-06
1.98874e-06
1.51293e-06
1.13852e-06
8.47248e-07
6.23417e-07
4.53573e-07
3.26137e-07
2.31602e-07
1.62344e-07
1.12281e-07
7.65952e-08
5.15255e-08
3.41742e-08
2.2346e-08
1.4406e-08
9.15776e-09
5.74185e-09
3.55221e-09
2.16945e-09
1.30875e-09
7.80354e-10
4.60167e-10
2.68521e-10
1.55138e-10
8.87873e-11
5.03588e-11
2.83174e-11
1.57911e-11
8.73454e-12
4.79296e-12
2.60954e-12
1.40994e-12
7.56223e-13
4.0286e-13
2.13364e-13
1.12525e-13
5.92522e-14
3.12957e-14
1.67076e-14
9.12944e-15
5.20307e-15
3.17327e-15
2.12574e-15
1.58567e-15
1.30677e-15
1.16196e-15
1.08712e-15
1.04653e-15
1.02727e-15
1.01256e-15
1.038e-15
3.08199e-14
3.15352e-11
2.81839e-08
0.000455623
0.00108771
0.00174613
0.00300796
0.00485603
0.00677784
0.00805687
0.0102048
0.0112223
0.012314
0.0139847
0.0142135
0.0139606
0.0132653
0.0122108
0.0111506
0.00924816
0.00783306
0.00735696
0.0062395
0.0062404
0.00687358
0.00922405
0.0189659
0.0298514
0.0321565
0.033043
0.0241888
0.0162429
0.00857564
0.00553999
0.0042603
0.00368811
0.00335039
0.00314505
0.00305131
0.00299034
0.00297021
0.00298339
0.00310581
0.00319788
0.00331306
0.00336582
0.003409
0.00342664
0.00343271
0.00343011
0.00340156
0.00337882
0.00335772
0.00329888
0.00322293
0.00314057
0.00308163
0.00304325
0.00295997
0.00286793
0.00281576
0.0027667
0.00270605
0.00260253
0.00255542
0.0025203
0.0024659
0.00242491
0.00240265
0.00236674
0.00235174
0.0023425
0.0023371
0.00233911
0.0023527
0.00236525
0.0023691
0.00236598
0.00234455
0.00231322
0.00225136
0.00215781
0.00205047
0.00192138
0.00177075
0.00161335
0.00144582
0.00128647
0.00113747
0.000991324
0.000848127
0.000716852
0.000610979
0.000522143
0.000449462
0.000391947
0.000347352
0.000312559
0.000284488
0.000260861
0.000240171
0.000221143
0.000202751
0.000185217
0.000169543
0.000155789
0.000143051
0.000130458
0.000117829
0.000105302
9.25969e-05
7.94164e-05
6.61266e-05
5.40193e-05
4.41607e-05
3.65398e-05
3.06356e-05
2.60735e-05
2.25347e-05
1.97358e-05
1.74348e-05
1.54473e-05
1.36516e-05
1.19891e-05
1.04382e-05
8.99196e-06
7.65584e-06
6.43837e-06
5.34672e-06
4.38443e-06
3.55042e-06
2.83927e-06
2.24216e-06
1.74807e-06
1.34501e-06
1.02112e-06
7.64758e-07
5.64856e-07
4.11322e-07
2.95202e-07
2.08754e-07
1.45425e-07
9.97916e-08
6.74547e-08
4.49236e-08
2.94877e-08
1.90883e-08
1.21961e-08
7.69972e-09
4.80885e-09
2.9731e-09
1.8198e-09
1.1029e-09
6.61895e-10
3.93386e-10
2.31543e-10
1.34963e-10
7.79007e-11
4.45231e-11
2.51961e-11
1.4119e-11
7.83557e-12
4.30788e-12
2.34739e-12
1.26861e-12
6.80556e-13
3.62842e-13
1.92552e-13
1.0194e-13
5.4007e-14
2.87862e-14
1.55572e-14
8.63968e-15
5.02376e-15
3.12881e-15
2.14237e-15
1.60813e-15
1.3495e-15
1.16539e-15
1.1407e-15
2.41202e-15
1.3278e-12
1.09389e-09
0.000426033
0.00138383
0.00218201
0.00441735
0.00660439
0.0089747
0.0105693
0.013263
0.015689
0.0194614
0.0255763
0.0273133
0.0282255
0.0277341
0.026316
0.0235951
0.0182114
0.0133775
0.00999627
0.00880626
0.00693034
0.00870692
0.0206438
0.0271382
0.0278311
0.0237956
0.0137097
0.00879953
0.00584487
0.00420924
0.00361666
0.00339805
0.00332694
0.00330875
0.00333186
0.00350342
0.00371126
0.00401905
0.00432328
0.00461495
0.00482162
0.00495781
0.00501343
0.0050234
0.00494269
0.00476763
0.00464728
0.00451719
0.00434113
0.00427326
0.00420046
0.00402792
0.00379644
0.00365188
0.00358378
0.00350589
0.00337463
0.00327587
0.00323019
0.00317607
0.00312148
0.00307677
0.00304089
0.00297636
0.00291388
0.00287959
0.0028353
0.00281706
0.00281063
0.0028101
0.00282608
0.0028389
0.00285323
0.00285844
0.00286046
0.00285914
0.00284545
0.00280913
0.00276491
0.00271133
0.00265093
0.00258621
0.00250363
0.00237477
0.00219938
0.00198048
0.00174019
0.00149603
0.00126674
0.00105743
0.000868792
0.00070016
0.000557685
0.00044844
0.00037144
0.000320046
0.000285035
0.000259511
0.000239335
0.000222526
0.000207279
0.000192434
0.000178248
0.000165854
0.000155886
0.000148508
0.000143084
0.000138214
0.000132356
0.000123863
0.00011113
9.44236e-05
7.62852e-05
5.99246e-05
4.66784e-05
3.64389e-05
2.87849e-05
2.31531e-05
1.89972e-05
1.58597e-05
1.33897e-05
1.13459e-05
9.59281e-06
8.05813e-06
6.70754e-06
5.52416e-06
4.49851e-06
3.62224e-06
2.88626e-06
2.27907e-06
1.78719e-06
1.39505e-06
1.08568e-06
8.42632e-07
6.51581e-07
5.01104e-07
3.82525e-07
2.89269e-07
2.16305e-07
1.59718e-07
1.16345e-07
8.35579e-08
5.91496e-08
4.12675e-08
2.8378e-08
1.92365e-08
1.28563e-08
8.47429e-09
5.51176e-09
3.53848e-09
2.24272e-09
1.40352e-09
8.67341e-10
5.29312e-10
3.1902e-10
1.89913e-10
1.11684e-10
6.48998e-11
3.72792e-11
2.11776e-11
1.19047e-11
6.62662e-12
3.65532e-12
2.00005e-12
1.08649e-12
5.86867e-13
3.15549e-13
1.69389e-13
9.09452e-14
4.90383e-14
2.67569e-14
1.47412e-14
8.54234e-15
4.96865e-15
3.32074e-15
2.51379e-15
1.26148e-14
1.55731e-14
1.46999e-13
4.61704e-11
0.000510888
0.00185821
0.00284752
0.00549616
0.00854522
0.0113739
0.0147591
0.0187359
0.0268364
0.0371948
0.0489035
0.0546445
0.0619086
0.0614954
0.0583468
0.0513552
0.0408284
0.0294188
0.0167924
0.00922039
0.00913039
0.0189074
0.0236746
0.0242235
0.0170926
0.00958237
0.00616846
0.00457437
0.00384066
0.00356889
0.00350838
0.00350544
0.00367124
0.003987
0.0045536
0.00533534
0.00628405
0.00727958
0.00775336
0.00806031
0.00814064
0.00808874
0.00768962
0.00724317
0.00694699
0.00647589
0.00623289
0.00598886
0.00548143
0.0052282
0.00510889
0.00492426
0.00457579
0.0041948
0.00397342
0.0038212
0.00361067
0.00347502
0.0033846
0.00330453
0.00327412
0.00326371
0.00326909
0.00328802
0.00329958
0.00329989
0.00327172
0.00323505
0.00318358
0.00311701
0.00305866
0.00298219
0.0029432
0.00292257
0.00290777
0.0028916
0.00286868
0.00282971
0.00279473
0.00276316
0.00273152
0.0027226
0.00271957
0.00268927
0.00263489
0.00254737
0.00240284
0.0021935
0.00192785
0.00165758
0.00140639
0.00117974
0.000959787
0.000735319
0.000541828
0.000407976
0.00032632
0.000276941
0.00024662
0.000226347
0.000211075
0.000197928
0.000184851
0.000170904
0.000157145
0.000145434
0.000136713
0.000131558
0.000129355
0.000127889
0.000125014
0.000119175
0.00010913
9.39959e-05
7.54923e-05
5.72595e-05
4.23649e-05
3.1246e-05
2.33439e-05
1.79103e-05
1.42275e-05
1.17073e-05
9.90784e-06
8.52834e-06
7.37799e-06
6.35173e-06
5.41094e-06
4.55275e-06
3.78156e-06
3.10137e-06
2.51238e-06
2.01105e-06
1.59127e-06
1.24504e-06
9.63423e-07
7.37265e-07
5.57874e-07
4.17305e-07
3.08498e-07
2.25357e-07
1.62631e-07
1.15904e-07
8.15501e-08
5.66311e-08
3.88047e-08
2.62316e-08
1.7491e-08
1.15034e-08
7.46213e-09
4.77487e-09
3.01417e-09
1.87724e-09
1.15352e-09
6.99257e-10
4.1806e-10
2.46419e-10
1.43147e-10
8.19309e-11
4.61996e-11
2.567e-11
1.40614e-11
7.60125e-12
4.0609e-12
2.14821e-12
1.12823e-12
5.89979e-13
3.08336e-13
1.61861e-13
8.53308e-14
4.58969e-14
2.57399e-14
1.40637e-14
1.04181e-14
1.112e-14
3.41802e-14
5.47266e-14
1.34345e-12
1.44291e-12
1.42356e-11
1.66192e-11
0.000618875
0.00240041
0.00381962
0.00762325
0.0115279
0.015359
0.020174
0.0294502
0.042438
0.0567068
0.0720735
0.0798792
0.0864391
0.090974
0.089494
0.0779507
0.053644
0.0286288
0.0151984
0.0109365
0.016558
0.0207507
0.0212284
0.0142617
0.00776926
0.00519009
0.00414428
0.0037666
0.00366802
0.00366012
0.00386924
0.00434789
0.005281
0.00677727
0.00899463
0.0101256
0.0106498
0.0107973
0.0107122
0.0101212
0.00959327
0.00916964
0.00871078
0.00827714
0.00760926
0.00733439
0.00717792
0.00689418
0.00646169
0.00608494
0.00584457
0.00565973
0.00520703
0.00482958
0.00465654
0.00434366
0.00392475
0.00374978
0.00357432
0.0033853
0.0033053
0.00323876
0.00321508
0.00323175
0.00331242
0.00334519
0.00335814
0.0033431
0.00328694
0.00320311
0.00310195
0.00299641
0.00290262
0.00282477
0.00276121
0.00269757
0.00263475
0.00253563
0.00241908
0.00232368
0.00228617
0.00233783
0.00246556
0.0025759
0.00261641
0.00260924
0.00254862
0.00242666
0.00224105
0.00196957
0.00166278
0.00139471
0.00118345
0.00100754
0.000828971
0.000635379
0.000459508
0.000338494
0.000269724
0.000231675
0.000210317
0.000197096
0.000186928
0.000176782
0.000165492
0.000152128
0.000138067
0.00012604
0.000117407
0.000112827
0.000111813
0.000111965
0.000111967
0.000111105
0.000106919
9.30957e-05
7.24746e-05
5.31352e-05
3.75328e-05
2.61276e-05
1.82643e-05
1.30802e-05
9.75951e-06
7.6451e-06
6.26725e-06
5.31578e-06
4.58929e-06
3.96576e-06
3.39222e-06
2.85932e-06
2.37151e-06
1.93537e-06
1.55508e-06
1.23125e-06
9.61377e-07
7.40751e-07
5.63509e-07
4.23374e-07
3.14208e-07
2.30356e-07
1.66819e-07
1.19317e-07
8.42732e-08
5.87647e-08
4.04465e-08
2.74711e-08
1.84073e-08
1.2165e-08
7.92723e-09
5.09214e-09
3.22345e-09
2.01027e-09
1.2347e-09
7.46617e-10
4.44342e-10
2.60177e-10
1.4983e-10
8.4833e-11
4.72114e-11
2.58196e-11
1.38737e-11
7.32247e-12
3.79641e-12
1.93479e-12
9.69444e-13
4.77137e-13
2.34485e-13
1.12797e-13
5.52725e-14
4.86258e-14
6.63523e-14
1.4779e-13
4.50139e-13
1.2862e-12
4.00311e-12
8.45808e-12
3.41976e-11
3.34615e-11
4.82568e-11
4.7283e-11
0.000799412
0.00287004
0.00483638
0.00907755
0.0129642
0.0180075
0.0259596
0.0383469
0.0537965
0.0692661
0.0846267
0.0983525
0.101515
0.0991797
0.0906449
0.0748006
0.048306
0.0239172
0.0159966
0.0155789
0.0183669
0.0189159
0.0132637
0.00701741
0.00480345
0.004034
0.00381564
0.00378467
0.00389079
0.00433982
0.00536213
0.00723647
0.0102637
0.0117038
0.0123538
0.0125432
0.0125052
0.0118174
0.0113072
0.0107287
0.0101086
0.00984157
0.00960521
0.00941575
0.00929011
0.00932303
0.00939722
0.00939849
0.00887214
0.00823256
0.00761644
0.00724345
0.00634303
0.00553728
0.0051769
0.0047952
0.00432399
0.00412596
0.00387139
0.00356566
0.00343464
0.00329411
0.00315181
0.00307479
0.00304431
0.00307393
0.00311222
0.00312776
0.00313279
0.0031277
0.00307737
0.00300601
0.00294748
0.0029294
0.00293354
0.0029036
0.00281424
0.00262509
0.00240165
0.00214829
0.00192843
0.00178609
0.0017172
0.00175166
0.00190565
0.00210349
0.00228443
0.00234709
0.00229396
0.00211353
0.00183943
0.00150775
0.0012218
0.00103871
0.000896824
0.000759013
0.000617033
0.000470956
0.000343694
0.000259409
0.000214499
0.000191762
0.00018013
0.000173076
0.000165986
0.000157458
0.000146602
0.000133076
0.000119185
0.000108116
0.000101076
9.83146e-05
9.81856e-05
9.90913e-05
9.97839e-05
9.95116e-05
9.69171e-05
8.60809e-05
6.46401e-05
4.55249e-05
3.08881e-05
2.05199e-05
1.35853e-05
9.16254e-06
6.44281e-06
4.80158e-06
3.80173e-06
3.16256e-06
2.70973e-06
2.33771e-06
1.99884e-06
1.682e-06
1.38928e-06
1.12588e-06
8.95778e-07
7.00461e-07
5.38895e-07
4.08297e-07
3.04887e-07
2.24515e-07
1.63106e-07
1.16927e-07
8.27239e-08
5.77581e-08
3.97949e-08
2.70528e-08
1.81422e-08
1.19994e-08
7.82554e-09
5.03081e-09
3.18714e-09
1.98914e-09
1.22258e-09
7.39738e-10
4.40447e-10
2.57954e-10
1.48536e-10
8.40549e-11
4.67228e-11
2.54995e-11
1.36577e-11
7.17647e-12
3.69953e-12
1.86752e-12
9.2579e-13
4.56915e-13
2.30377e-13
1.1653e-13
7.95165e-14
8.27415e-14
1.12938e-13
2.09875e-13
4.8863e-13
1.14942e-12
3.29428e-12
5.99073e-12
1.8414e-11
1.9629e-11
2.16042e-11
2.69231e-11
0.000878153
0.00317163
0.00585128
0.00960292
0.0135465
0.01918
0.0282558
0.0418058
0.0586237
0.0747869
0.0889714
0.095585
0.0972697
0.093942
0.082855
0.0626661
0.0326501
0.0195324
0.0165864
0.0165351
0.0169911
0.0128196
0.00678689
0.00468073
0.00403567
0.00388974
0.00389631
0.00419865
0.00503299
0.00668984
0.00971729
0.0124615
0.0135794
0.0139756
0.014057
0.0137397
0.0131247
0.0127165
0.0124161
0.01231
0.012381
0.0134042
0.014854
0.0165447
0.0184239
0.0201481
0.0210923
0.0213978
0.0204158
0.0185428
0.0159472
0.0143398
0.0122452
0.00938152
0.00767853
0.00665127
0.00530195
0.00477117
0.00443695
0.00413954
0.00388534
0.00370528
0.00354681
0.00333523
0.00315289
0.00307296
0.00305698
0.00306818
0.00308349
0.00313321
0.00320419
0.00329685
0.00344034
0.00366393
0.00393627
0.00409419
0.0041403
0.00395947
0.00355501
0.00300205
0.00243428
0.00197554
0.00168411
0.00148383
0.00136137
0.00129306
0.0012926
0.00145429
0.0017128
0.00187854
0.0018368
0.00157911
0.00124326
0.000963206
0.000815805
0.000733041
0.000635523
0.00052524
0.000414954
0.000316429
0.000241581
0.00019714
0.000174462
0.000163209
0.000157443
0.000152954
0.000147071
0.000138448
0.000126765
0.000113068
0.000100773
9.23132e-05
8.8247e-05
8.75464e-05
8.8145e-05
9.0027e-05
9.06201e-05
9.01922e-05
8.68461e-05
7.34741e-05
5.2437e-05
3.54987e-05
2.31919e-05
1.47925e-05
9.36124e-06
6.01106e-06
4.02478e-06
2.87763e-06
2.21512e-06
1.81629e-06
1.54807e-06
1.33295e-06
1.13724e-06
9.52987e-07
7.81777e-07
6.27509e-07
4.9322e-07
3.80103e-07
2.876e-07
2.13913e-07
1.56566e-07
1.12853e-07
8.01574e-08
5.61252e-08
3.87487e-08
2.63806e-08
1.77109e-08
1.17242e-08
7.65165e-09
4.92223e-09
3.12033e-09
1.9487e-09
1.19856e-09
7.25754e-10
4.3248e-10
2.53518e-10
1.46126e-10
8.27793e-11
4.60663e-11
2.51713e-11
1.34987e-11
7.10022e-12
3.66352e-12
1.85183e-12
9.16444e-13
4.49417e-13
2.24339e-13
1.11912e-13
6.96032e-14
6.91073e-14
8.689e-14
1.4777e-13
3.18756e-13
6.95217e-13
1.98257e-12
3.09076e-12
6.29783e-12
7.21185e-12
7.86733e-12
9.99232e-12
0.000903637
0.00326842
0.00621626
0.00960429
0.0126902
0.0175405
0.0248434
0.0346342
0.047951
0.0599353
0.0705119
0.0771281
0.0789646
0.0739757
0.0575579
0.0376286
0.0233617
0.0180534
0.0160981
0.015214
0.0121054
0.00668951
0.00465693
0.00404026
0.00391043
0.00395856
0.00429702
0.005338
0.00754919
0.0117427
0.0144814
0.0154406
0.0156538
0.0156257
0.0151975
0.0148193
0.0146738
0.0149667
0.016056
0.0183934
0.0223652
0.0284488
0.035877
0.0436342
0.0508488
0.0556722
0.0577994
0.0580871
0.0531427
0.0484868
0.0413326
0.0338727
0.0286085
0.0225519
0.0166605
0.0136305
0.00908436
0.00686921
0.00555482
0.00476586
0.00439559
0.00416088
0.00400059
0.0038961
0.00375735
0.0035075
0.00336188
0.00331413
0.00331136
0.00335772
0.00348071
0.00365063
0.00386592
0.00412112
0.0043832
0.00457667
0.00465358
0.00461998
0.0044753
0.00424236
0.00391765
0.00347723
0.00290412
0.00227802
0.00171525
0.00134198
0.00108503
0.000923475
0.000844875
0.000913893
0.00118704
0.00133169
0.00124038
0.000937457
0.00068113
0.000539734
0.000500372
0.000473391
0.000412632
0.000334883
0.00026211
0.000208588
0.000176103
0.000157784
0.000146965
0.000140897
0.000138011
0.000134753
0.000128374
0.000118452
0.000105965
9.37034e-05
8.47268e-05
7.99851e-05
7.88375e-05
7.91726e-05
8.13644e-05
8.30148e-05
8.31404e-05
8.193e-05
7.54297e-05
5.67665e-05
3.85711e-05
2.51192e-05
1.57972e-05
9.69463e-06
5.89433e-06
3.6321e-06
2.33826e-06
1.61968e-06
1.22256e-06
9.94252e-07
8.45331e-07
7.26421e-07
6.17612e-07
5.14476e-07
4.18393e-07
3.32047e-07
2.57427e-07
1.95262e-07
1.45141e-07
1.05881e-07
7.58985e-08
5.35146e-08
3.71413e-08
2.53874e-08
1.70962e-08
1.13444e-08
7.418e-09
4.77964e-09
3.03424e-09
1.89742e-09
1.16848e-09
7.08428e-10
4.22698e-10
2.48117e-10
1.43216e-10
8.1253e-11
4.52899e-11
2.47895e-11
1.33182e-11
7.01926e-12
3.62822e-12
1.83917e-12
9.113e-13
4.44934e-13
2.19947e-13
1.09168e-13
6.07672e-14
5.42668e-14
6.25255e-14
9.32705e-14
1.78099e-13
3.71824e-13
6.98953e-13
1.38171e-12
1.52433e-12
1.8465e-12
2.0876e-12
2.87495e-12
0.000827751
0.00306264
0.00585254
0.0084396
0.0105599
0.0137262
0.0185339
0.0250617
0.0346886
0.0419671
0.0464364
0.048603
0.0489266
0.0428682
0.033364
0.0243345
0.0188765
0.0163344
0.0139307
0.0105579
0.00647942
0.00465119
0.00403308
0.0039039
0.00395913
0.00429448
0.00546946
0.00824109
0.0123879
0.0148755
0.0161663
0.0167162
0.0168757
0.0168819
0.0168113
0.0170821
0.0182233
0.0209484
0.0264444
0.0356427
0.0494764
0.0678996
0.0891722
0.11056
0.12529
0.132892
0.135548
0.131657
0.120927
0.104245
0.0892244
0.0714878
0.0565386
0.0459896
0.0362827
0.0292526
0.0216373
0.0142598
0.00950929
0.00673304
0.00530578
0.00453473
0.00416777
0.00401198
0.00395242
0.00389612
0.0037471
0.00353405
0.00342627
0.00337522
0.0034143
0.003504
0.00364079
0.00381349
0.00399688
0.00414833
0.00423744
0.00426835
0.00427391
0.00424643
0.00416222
0.00405075
0.00392807
0.00375617
0.00338549
0.00269415
0.00183955
0.0011659
0.000782845
0.00059851
0.000532775
0.000597012
0.000784594
0.000817824
0.000662447
0.000455331
0.000336277
0.000291037
0.000288757
0.000287899
0.000259967
0.000209198
0.000175619
0.000155604
0.00014316
0.000133806
0.000126473
0.000122477
0.000120561
0.000117116
0.00010919
9.81625e-05
8.66637e-05
7.77856e-05
7.28692e-05
7.15015e-05
7.17418e-05
7.4011e-05
7.65426e-05
7.70937e-05
7.65607e-05
7.27304e-05
5.83059e-05
3.97077e-05
2.58193e-05
1.61335e-05
9.75695e-06
5.76621e-06
3.38002e-06
2.01255e-06
1.25897e-06
8.55986e-07
6.41763e-07
5.22502e-07
4.44745e-07
3.81377e-07
3.2249e-07
2.66333e-07
2.14139e-07
1.67617e-07
1.27902e-07
9.53141e-08
6.94951e-08
4.96584e-08
3.48245e-08
2.39952e-08
1.62588e-08
1.08405e-08
7.11521e-09
4.59843e-09
2.92653e-09
1.83403e-09
1.13166e-09
6.87357e-10
4.10857e-10
2.41597e-10
1.39707e-10
7.94128e-11
4.43523e-11
2.43274e-11
1.30987e-11
6.92032e-12
3.58562e-12
1.8221e-12
9.07161e-13
4.41378e-13
2.15011e-13
1.05756e-13
5.40461e-14
3.91277e-14
4.10585e-14
5.20046e-14
9.15762e-14
1.44757e-13
2.66103e-13
3.27047e-13
3.67228e-13
4.56312e-13
5.21313e-13
7.43067e-13
0.000722927
0.00281341
0.0056134
0.00802356
0.0096503
0.0118961
0.0147136
0.0174284
0.0219019
0.0267216
0.028806
0.0295734
0.0289046
0.0246371
0.0208449
0.0165614
0.0143471
0.0120915
0.00891869
0.00641378
0.00467219
0.00405703
0.00390012
0.00391894
0.00417542
0.00498473
0.00687007
0.0102502
0.0148763
0.0182023
0.0191291
0.0192494
0.0192096
0.0194719
0.0206374
0.0229777
0.0269876
0.0357435
0.0525715
0.0846467
0.123202
0.164838
0.199879
0.225094
0.241712
0.249353
0.251374
0.239052
0.22275
0.192021
0.156785
0.122824
0.0904035
0.0676208
0.0521899
0.0408595
0.0341208
0.0275113
0.0198701
0.012919
0.0086101
0.00625879
0.00491417
0.0042381
0.00401646
0.00398402
0.00396849
0.00388552
0.00367009
0.00344149
0.00330257
0.00322435
0.00317799
0.00315167
0.00313706
0.00313093
0.00312611
0.00311647
0.0030946
0.00306791
0.00310491
0.0032917
0.00360873
0.00385304
0.00390105
0.0038138
0.00350827
0.00264112
0.00148484
0.000784614
0.000476091
0.000359247
0.000333892
0.000389944
0.00045121
0.000416492
0.000296919
0.000222964
0.000187303
0.000174771
0.000174198
0.000174138
0.000162837
0.000146968
0.00013853
0.000131809
0.000124003
0.000115513
0.000108916
0.000105977
0.000104136
9.98304e-05
9.04323e-05
8.00424e-05
7.15947e-05
6.67739e-05
6.53129e-05
6.55053e-05
6.7796e-05
7.0952e-05
7.18571e-05
7.15817e-05
6.8835e-05
5.71224e-05
3.90162e-05
2.52825e-05
1.56986e-05
9.39667e-06
5.45935e-06
3.10822e-06
1.76126e-06
1.01941e-06
6.25822e-07
4.22952e-07
3.18817e-07
2.61748e-07
2.23554e-07
1.91283e-07
1.60677e-07
1.31358e-07
1.04263e-07
8.03878e-08
6.03064e-08
4.41106e-08
3.15215e-08
2.20468e-08
1.51157e-08
1.01718e-08
6.72473e-09
4.37088e-09
2.79441e-09
1.75777e-09
1.08802e-09
6.62692e-10
3.97123e-10
2.34089e-10
1.3569e-10
7.73172e-11
4.32901e-11
2.3807e-11
1.2854e-11
6.8107e-12
3.54007e-12
1.80427e-12
9.01836e-13
4.4141e-13
2.11841e-13
1.01848e-13
4.9719e-14
2.6965e-14
2.24085e-14
2.2996e-14
3.02707e-14
3.11525e-14
3.51285e-14
4.7155e-14
5.71481e-14
7.92314e-14
9.53129e-14
1.51557e-13
0.000541173
0.00222768
0.0045957
0.00668626
0.00774703
0.00910388
0.0112261
0.0129773
0.0150417
0.0173262
0.018266
0.0186008
0.0180758
0.015857
0.014638
0.0121234
0.0101636
0.00844189
0.00617275
0.00482571
0.00417228
0.00395609
0.00391926
0.00410978
0.00499227
0.00701728
0.0104661
0.0147135
0.0178929
0.0196531
0.0208083
0.0217418
0.0227238
0.0239012
0.025756
0.0289533
0.0388808
0.0601381
0.104649
0.154384
0.203358
0.246757
0.279287
0.304901
0.318652