# Probe 0 (0.0254 0.0253 0)
# Probe 1 (0.0508 0.0253 0)
# Probe 2 (0.0762 0.0253 0)
# Probe 3 (0.1016 0.0253 0)
# Probe 4 (0.127 0.0253 0)
# Probe 5 (0.1524 0.0253 0)
# Probe 6 (0.1778 0.0253 0)
#       Probe             0             1             2             3             4             5             6
#        Time
        1e-05        143510        129338        116305        103476       90741.1       78695.2         66123
        2e-05      -71447.1      -64372.2      -57863.5      -51455.5      -45092.8      -39074.9      -32794.6
        3e-05      -73.9183      -65.5142      -61.7512       -59.343      -58.0921      -56.6249      -54.8072
        4e-05       20.7744       23.3826       23.5589       23.2413       22.7964        22.325       21.8162
        5e-05       20.2935        23.037       23.2312       22.9016       22.4538       21.9732       21.4494
        6e-05       21.1393       23.9774       24.1849       23.8577       23.4101       22.9302       22.4101
        7e-05       21.9466       24.6038        24.782       24.4521       24.0065       23.5296       23.0132
        8e-05       22.1606       24.8377       25.0185        24.691       24.2467       23.7711       23.2564
        9e-05       22.1709       24.8358       25.0146       24.6884       24.2454       23.7716       23.2591
       0.0001       22.0937       24.7592       24.9381       24.6134       24.1717       23.6997       23.1896
      0.00011        22.014       24.6766       24.8552       24.5318       24.0913       23.6209       23.1127
      0.00012       21.9552       24.6031       24.7791        24.457       24.0179       23.5494       23.0435
      0.00013       21.9397       24.5422       24.7098       24.3872       23.9488       23.4818        22.978
      0.00014       21.9674       24.4952       24.6484       24.3243       23.8865        23.421       22.9192
      0.00015       21.8733       24.4278       24.5876        24.266       23.8296       23.3656       22.8658
      0.00016       21.8784       24.3826       24.5332       24.2111       23.7757       23.3132       22.8154
      0.00017        21.759       24.3114       24.4733       24.1546       23.7208         23.26       22.7643
      0.00018       21.8786       24.2924       24.4262       24.1035       23.6701       23.2107        22.717
      0.00019       21.8663       24.2499       24.3774       24.0537       23.6206       23.1625       22.6705
       0.0002       21.8364       24.2013       24.3261       24.0036       23.5721       23.1156       22.6257
      0.00021       21.8189       24.1611       24.2815       23.9591       23.5284       23.0734       22.5853
      0.00022       21.7629       24.1096        24.232       23.9112        23.482       23.0286       22.5425
      0.00023       21.6785       24.0559       24.1858       23.8676       23.4398       22.9879       22.5036
      0.00024       21.7363       24.0296       24.1428       23.8226       23.3956       22.9452       22.4629
      0.00025       21.7455       23.9978       24.1034       23.7825       23.3562        22.907       22.4263
      0.00026       21.7637       23.9678       24.0641       23.7424        23.317       22.8692       22.3903
      0.00027       21.8737       23.9559        24.028       23.7025       23.2772       22.8307       22.3535
      0.00028        21.848       23.9207       23.9907       23.6653       23.2409       22.7958       22.3203
      0.00029       21.8583       23.8911       23.9537       23.6284       23.2052       22.7616       22.2879
       0.0003       21.7851       23.8439       23.9132       23.5901       23.1683        22.726       22.2539
      0.00031       21.7968       23.8165       23.8785       23.5549        23.134       22.6932       22.2229
      0.00032       21.8017       23.7879       23.8434       23.5195       23.0995       22.6599       22.1911
      0.00033       21.7984       23.7581       23.8088        23.485       23.0659       22.6277       22.1606
      0.00034       21.7781       23.7251        23.774       23.4508       23.0329        22.596       22.1306
      0.00035       21.7362        23.688        23.739       23.4174       23.0008       22.5653       22.1016
      0.00036       21.8494       23.6858       23.7125       23.3866       22.9701       22.5356       22.0733
      0.00037       21.9314       23.6768       23.6843       23.3553        22.939       22.5057       22.0449
      0.00038       22.0405       23.6723       23.6563       23.3235       22.9075       22.4753       22.0161
      0.00039       21.9207       23.6237       23.6233       23.2944       22.8799        22.449       21.9913
       0.0004       21.8637       23.5836       23.5884        23.262       22.8492       22.4198       21.9638
      0.00041        21.859       23.5592       23.5603       23.2337       22.8216       22.3933       21.9386
      0.00042       21.8974       23.5437       23.5338        23.206       22.7947       22.3677       21.9146
      0.00043       21.8932       23.5208       23.5069       23.1789       22.7683       22.3424       21.8906
      0.00044       21.8911       23.4967       23.4781       23.1502       22.7406       22.3159       21.8657
      0.00045       21.8735       23.4705         23.45       23.1226        22.714       22.2905       21.8417
      0.00046       21.8552       23.4454       23.4233       23.0963       22.6887       22.2665       21.8191
      0.00047       21.8202       23.4168       23.3957       23.0697       22.6632       22.2422       21.7962
      0.00048       21.7246       23.3748       23.3653       23.0427       22.6377       22.2179       21.7734
      0.00049       21.6854        23.346       23.3384       23.0169       22.6131       22.1944       21.7512
       0.0005       21.6633       23.3216        23.313        22.992       22.5892       22.1717         21.73
      0.00051       21.7127       23.3101       23.2884       22.9658       22.5637       22.1476       21.7073
      0.00052       21.6557       23.2801       23.2642       22.9434       22.5423        22.127       21.6878
      0.00053       21.5872       23.2463       23.2373       22.9187       22.5189       22.1049       21.6671
      0.00054       21.5317        23.216       23.2118       22.8949       22.4964       22.0835       21.6471
      0.00055       21.4768       23.1858       23.1863       22.8712       22.4738       22.0621       21.6271
      0.00056       21.4245       23.1566       23.1614       22.8481       22.4519       22.0414       21.6076
      0.00057       21.3786       23.1304       23.1387       22.8265       22.4314       22.0219       21.5893
      0.00058       21.3347       23.1031        23.114       22.8034       22.4094        22.001       21.5697
      0.00059       21.2434        23.065       23.0877       22.7803       22.3878       21.9808        21.551
       0.0006       21.1408       23.0273       23.0632       22.7592       22.3683       21.9623       21.5335
      0.00061       21.1967       23.0221       23.0439       22.7378       22.3472       21.9421       21.5147
      0.00062       21.1262       22.9917       23.0211       22.7171       22.3278       21.9239       21.4978
      0.00063       21.0626       22.9617        22.998       22.6962        22.308       21.9051         21.48
      0.00064        21.084        22.951       22.9792       22.6764       22.2888       21.8868       21.4629
      0.00065       20.9808       22.9137       22.9548       22.6553       22.2692       21.8684       21.4458
      0.00066       20.9449       22.8903       22.9335       22.6353       22.2503       21.8504       21.4289
      0.00067       20.9148       22.8691       22.9135       22.6161       22.2319       21.8331       21.4129
      0.00068       20.8832       22.8466       22.8924        22.596       22.2128       21.8151        21.396
      0.00069       20.8034       22.8136       22.8693       22.5757       22.1939       21.7974       21.3795
       0.0007       20.7928       22.7976       22.8514        22.558        22.177       21.7813       21.3645
      0.00071       20.7611       22.7763       22.8316       22.5391        22.159        21.764       21.3483
      0.00072       20.7151       22.7516       22.8105       22.5196       22.1406       21.7469       21.3325
      0.00073       20.6964       22.7347       22.7934       22.5028       22.1245       21.7317       21.3182
      0.00074       20.6945       22.7198       22.7751       22.4846       22.1071       21.7152       21.3028
      0.00075       20.6479       22.6943       22.7541       22.4653       22.0889        21.698       21.2868
      0.00076       20.5898       22.6688       22.7355       22.4486       22.0733       21.6834       21.2734
      0.00077       20.5804       22.6537       22.7186       22.4319       22.0573       21.6682       21.2591
      0.00078       20.5705       22.6371       22.7002       22.4139       22.0401       21.6519        21.244
      0.00079       20.5605       22.6217       22.6832       22.3972       22.0241       21.6369         21.23
       0.0008       20.5478       22.6058       22.6662       22.3805       22.0082       21.6219        21.216
      0.00081       20.5298       22.5884       22.6487       22.3637       21.9923       21.6068        21.202
      0.00082       20.5251        22.575       22.6331       22.3482       21.9774       21.5928        21.189
      0.00083        20.513       22.5588       22.6158       22.3313       21.9614       21.5778       21.1751
      0.00084       20.4987       22.5433       22.5998       22.3158       21.9466       21.5637       21.1619
      0.00085       20.5396       22.5389       22.5853       22.2998       21.9311        21.549       21.1483
      0.00086       20.5497        22.531       22.5728       22.2867       21.9183       21.5369       21.1371
      0.00087       20.4413       22.4916       22.5493       22.2673       21.9007       21.5205       21.1219
      0.00088       20.4966       22.4941       22.5397       22.2558       21.8892       21.5096       21.1118
      0.00089       20.4893       22.4796       22.5233       22.2393       21.8734       21.4946       21.0979
       0.0009       20.4705        22.463       22.5072       22.2241       21.8591       21.4812       21.0854
      0.00091       20.4664       22.4502       22.4926       22.2098       21.8455       21.4686       21.0738
      0.00092       20.4499       22.4347       22.4774       22.1951       21.8314       21.4551       21.0613
      0.00093       20.4172        22.415       22.4608       22.1799       21.8172       21.4419       21.0491
      0.00094       20.4149       22.4047       22.4482       22.1671       21.8049       21.4302       21.0383
      0.00095       20.3855       22.3856       22.4312       22.1513       21.7901       21.4164       21.0254
      0.00096       20.3789        22.372        22.417       22.1375        21.777       21.4042       21.0143
      0.00097       20.3725       22.3599       22.4036       22.1243       21.7644        21.392       21.0028
      0.00098        20.363       22.3466       22.3891       22.1101       21.7509       21.3795       20.9913
      0.00099       20.3416       22.3309       22.3744       22.0963       21.7379       21.3673       20.9801
        0.001       20.2939       22.3092       22.3592       22.0829       21.7254       21.3557       20.9694
      0.00101       20.3069       22.3016       22.3466       22.0698       21.7128       21.3438       20.9585
      0.00102       20.2846       22.2861       22.3326       22.0567       21.7005       21.3321       20.9474
      0.00103       20.2695       22.2724       22.3191       22.0437       21.6882       21.3207       20.9372
      0.00104       20.2508       22.2573       22.3047         22.03       21.6754       21.3086       20.9259
      0.00105        20.225       22.2416        22.291       22.0172       21.6633       21.2974       20.9156
      0.00106       20.2239       22.2325       22.2796       22.0059       21.6524        21.287        20.906
      0.00107       20.2655       22.2304       22.2675       21.9922       21.6392       21.2747       20.8947
      0.00108       20.2739       22.2234       22.2566       21.9808       21.6281       21.2642        20.885
      0.00109       20.2291       22.2035       22.2421        21.968       21.6162        21.253       20.8746
       0.0011       20.1907       22.1858       22.2287        21.956       21.6051       21.2429       20.8654
      0.00111       20.1465       22.1664        22.215       21.9439        21.594       21.2324       20.8557
      0.00112       20.1416       22.1561        22.203       21.9322       21.5828       21.2219       20.8461
      0.00113       20.1029       22.1378       22.1893       21.9199       21.5714       21.2113       20.8364
      0.00114        20.082       22.1229       22.1758       21.9072       21.5594       21.2001        20.826
      0.00115       20.0251       22.1014       22.1618       21.8954       21.5486       21.1902        20.817
      0.00116        20.008       22.0894       22.1504       21.8844       21.5382       21.1802       20.8077
      0.00117       20.0129       22.0814       22.1393       21.8732       21.5275       21.1704       20.7989
      0.00118       20.0006       22.0692       22.1271       21.8614       21.5163       21.1597       20.7889
      0.00119       19.9877        22.057       22.1149       21.8497       21.5053       21.1496       20.7796
       0.0012       19.9683       22.0447       22.1035        21.839       21.4953       21.1402        20.771
      0.00121       19.9222       22.0257       22.0908       21.8279       21.4851       21.1307       20.7624
      0.00122       19.8907       22.0095       22.0782       21.8167       21.4746       21.1209       20.7533
      0.00123       19.8833       21.9999       22.0676       21.8062       21.4648       21.1117        20.745
      0.00124       19.8734       21.9891       22.0562       21.7951       21.4543       21.1019        20.736
      0.00125       19.8557       21.9762       22.0442       21.7838       21.4437       21.0922       20.7272
      0.00126         19.84       21.9654       22.0341       21.7745       21.4348       21.0837       20.7192
      0.00127       19.8072       21.9503       22.0225       21.7637       21.4249       21.0745        20.711
      0.00128       19.7905       21.9376       22.0104       21.7524       21.4143       21.0647       20.7019
      0.00129       19.7754       21.9274       22.0009       21.7433       21.4057       21.0566       20.6946
       0.0013       19.7713       21.9183       21.9902       21.7328       21.3957       21.0473        20.686
      0.00131       19.8145       21.9207       21.9827       21.7237       21.3868        21.039       20.6785
      0.00132        19.846       21.9199       21.9738       21.7134       21.3767       21.0295       20.6698
      0.00133       19.7929       21.9012       21.9626       21.7041       21.3682       21.0216       20.6625
      0.00134       19.7943        21.893       21.9521       21.6938       21.3586       21.0127       20.6545
      0.00135       19.7439       21.8744       21.9403       21.6837       21.3492        21.004       20.6464
      0.00136       19.7055       21.8579       21.9288       21.6737       21.3401       20.9956       20.6389
      0.00137       19.6873       21.8465       21.9185       21.6641       21.3311       20.9872       20.6311
      0.00138        19.693       21.8415       21.9104       21.6556       21.3229       20.9796       20.6242
      0.00139       19.6463       21.8234       21.8982       21.6451       21.3132       20.9706        20.616
       0.0014       19.6349       21.8138       21.8885       21.6357       21.3046       20.9626       20.6088
      0.00141       19.6339       21.8067       21.8796       21.6268        21.296       20.9545       20.6013
      0.00142       19.6216       21.7967       21.8704       21.6183       21.2881       20.9473       20.5948
      0.00143       19.5926       21.7837       21.8597       21.6083       21.2788       20.9386       20.5869
      0.00144       19.5838       21.7746       21.8502       21.5991       21.2701       20.9306       20.5796
      0.00145       19.5711       21.7657       21.8414       21.5909       21.2624       20.9233        20.573
      0.00146       19.5641       21.7573       21.8321       21.5816       21.2537       20.9153       20.5657
      0.00147       19.5068       21.7383       21.8215       21.5731        21.246       20.9081       20.5591
      0.00148       19.5007       21.7287       21.8112       21.5634        21.237       20.8999       20.5517
      0.00149       19.4805        21.719       21.8025        21.555        21.229       20.8924       20.5449
       0.0015       19.4656       21.7091       21.7937       21.5468       21.2214       20.8853       20.5384
      0.00151       19.4388       21.6965       21.7838       21.5379       21.2131       20.8777       20.5316
      0.00152       19.4265       21.6874        21.775       21.5294       21.2052       20.8704       20.5249
      0.00153        19.398       21.6746       21.7654        21.521       21.1974       20.8631       20.5183
      0.00154       19.3864       21.6654       21.7567       21.5128       21.1898       20.8561        20.512
      0.00155       19.3425         21.65       21.7466        21.504       21.1817       20.8487       20.5053
      0.00156       19.3869       21.6537       21.7406       21.4964       21.1742       20.8416       20.4988
      0.00157       19.3958       21.6503       21.7335       21.4888       21.1669       20.8348       20.4927
      0.00158       19.3957       21.6439       21.7252       21.4804        21.159       20.8275        20.486
      0.00159       19.3622         21.63       21.7157       21.4723       21.1515       20.8207       20.4798
       0.0016       19.3401       21.6189        21.707       21.4645       21.1444       20.8141       20.4738
      0.00161       19.2858       21.6018       21.6969       21.4561       21.1367        20.807       20.4674
      0.00162       19.2662       21.5908        21.688       21.4481       21.1294       20.8002       20.4613
      0.00163       19.2624       21.5846       21.6804       21.4404       21.1221       20.7935       20.4553
      0.00164       19.2399       21.5736       21.6718       21.4327        21.115       20.7869       20.4492
      0.00165       19.2279       21.5653        21.664       21.4252        21.108       20.7805       20.4435
      0.00166       19.1872       21.5495       21.6542       21.4172       21.1008       20.7739       20.4375
      0.00167       19.1593       21.5382       21.6454       21.4092       21.0934        20.767       20.4313
      0.00168       19.1533       21.5314        21.638        21.402       21.0866       20.7608       20.4257
      0.00169       19.1387        21.523       21.6305       21.3949       21.0799       20.7546         20.42
       0.0017       19.1235       21.5137       21.6221       21.3872       21.0728        20.748       20.4142
      0.00171       19.1097       21.5052       21.6143       21.3799        21.066       20.7418       20.4085
      0.00172       19.1069       21.4986       21.6069       21.3726       21.0592       20.7355       20.4028
      0.00173       19.0879       21.4896       21.5992       21.3655       21.0526       20.7294       20.3973
      0.00174       19.0631       21.4781       21.5908        21.358       21.0457       20.7231       20.3916
      0.00175       19.0513       21.4708       21.5834       21.3509       21.0391        20.717       20.3862
      0.00176       19.0122       21.4568       21.5751        21.344       21.0328       20.7112       20.3809
      0.00177       18.9914       21.4463       21.5666       21.3364       21.0259       20.7049       20.3753
      0.00178       18.9826       21.4384       21.5592       21.3295       21.0194       20.6988       20.3697
      0.00179       18.9879       21.4353        21.553        21.323       21.0132       20.6932       20.3647
       0.0018       19.0188       21.4378        21.548       21.3165       21.0067       20.6871       20.3592
      0.00181       19.0113       21.4308       21.5408       21.3096       21.0004       20.6813       20.3539
      0.00182         18.98        21.419        21.533       21.3031       20.9945       20.6759       20.3491
      0.00183       18.9555       21.4083       21.5249       21.2957       20.9877       20.6696       20.3434
      0.00184       18.9381       21.3993       21.5174        21.289       20.9815       20.6639       20.3383
      0.00185       18.9317       21.3918       21.5107       21.2827       20.9757       20.6586       20.3335
      0.00186       18.8729       21.3747       21.5016       21.2755       20.9692       20.6527       20.3282
      0.00187       18.8661       21.3676       21.4943       21.2686       20.9629       20.6468        20.323
      0.00188       18.8584       21.3619       21.4883       21.2627       20.9573       20.6417       20.3183
      0.00189       18.8437       21.3535       21.4811       21.2561       20.9512       20.6361       20.3132
       0.0019       18.8275       21.3449        21.474       21.2496       20.9451       20.6306       20.3084
      0.00191        18.833       21.3408       21.4679       21.2434       20.9394       20.6252       20.3036
      0.00192       18.8034       21.3307       21.4606        21.237       20.9335       20.6199       20.2988
      0.00193       18.7652       21.3167       21.4524       21.2303       20.9274       20.6143       20.2937
      0.00194        18.749       21.3084       21.4452       21.2237       20.9214       20.6088       20.2889
      0.00195       18.7284       21.2998       21.4386       21.2177       20.9159       20.6037       20.2842
      0.00196       18.7159       21.2923       21.4319       21.2115       20.9102       20.5985       20.2795
      0.00197       18.7161       21.2875       21.4262       21.2057       20.9046       20.5934       20.2749
      0.00198       18.6836       21.2766       21.4189       21.1996       20.8991       20.5884       20.2705
      0.00199       18.6704       21.2679       21.4112       21.1925       20.8926       20.5824       20.2651
        0.002       18.6561        21.261       21.4055       21.1871       20.8876       20.5778        20.261
      0.00201       18.6328       21.2517       21.3989       21.1814       20.8824        20.573       20.2566
      0.00202       18.6043       21.2398       21.3907       21.1745       20.8762       20.5674       20.2517
      0.00203       18.6403       21.2447       21.3875       21.1697       20.8713       20.5629       20.2476
      0.00204       18.6824       21.2494       21.3833       21.1638       20.8655       20.5574       20.2427
      0.00205       18.5967       21.2264        21.374       21.1577       20.8604       20.5529       20.2386
      0.00206       18.5894         21.22       21.3676       21.1517       20.8548       20.5477        20.234
      0.00207       18.5836       21.2147       21.3618        21.146       20.8494       20.5428       20.2296
      0.00208       18.5407       21.2007       21.3541       21.1398       20.8439       20.5378       20.2251
      0.00209       18.5341       21.1954       21.3485       21.1345        20.839       20.5333       20.2211
       0.0021       18.5128       21.1854       21.3417       21.1286       20.8336       20.5283       20.2167
      0.00211       18.4867       21.1761       21.3349       21.1226       20.8282       20.5235       20.2124
      0.00212       18.4885       21.1724       21.3296       21.1173       20.8231       20.5187        20.208
      0.00213       18.4503       21.1598       21.3225       21.1115        20.818       20.5141        20.204
      0.00214       18.4316       21.1513        21.316       21.1057       20.8128       20.5093       20.1997
      0.00215       18.4201       21.1448       21.3102       21.1004       20.8078       20.5047       20.1955
      0.00216       18.4208       21.1406        21.305       21.0952       20.8029       20.5003       20.1916
      0.00217       18.3937       21.1313       21.2985       21.0896       20.7979       20.4957       20.1875
      0.00218       18.3887       21.1254       21.2923       21.0836       20.7923       20.4906       20.1829
      0.00219       18.3682       21.1172       21.2867       21.0787       20.7878       20.4865       20.1793
       0.0022       18.3564       21.1105       21.2807       21.0732       20.7827       20.4818       20.1751
      0.00221       18.3284       21.1005       21.2744       21.0678       20.7779       20.4775       20.1712
      0.00222       18.3146       21.0935       21.2684       21.0625        20.773       20.4729       20.1671
      0.00223       18.3142       21.0893       21.2635       21.0575       20.7683       20.4687       20.1634
      0.00224       18.2817       21.0789        21.257       21.0521       20.7634       20.4643       20.1594
      0.00225       18.2641       21.0704       21.2503       21.0462       20.7581       20.4594       20.1551
      0.00226       18.2466       21.0633       21.2452       21.0415       20.7538       20.4555       20.1516
      0.00227       18.2623       21.0638       21.2412       21.0369       20.7493       20.4513       20.1479
      0.00228        18.277       21.0635       21.2367       21.0317       20.7443       20.4467       20.1437
      0.00229       18.2601       21.0556       21.2307       21.0264       20.7395       20.4423       20.1398
       0.0023       18.2258       21.0437       21.2244       21.0215       20.7352       20.4384       20.1364
      0.00231       18.1958       21.0345       21.2185       21.0165       20.7306       20.4342       20.1326
      0.00232       18.1828       21.0267       21.2117       21.0103        20.725       20.4292       20.1281
      0.00233       18.1813       21.0235       21.2077       21.0062       20.7211       20.4256        20.125
      0.00234       18.1458       21.0122       21.2015       21.0013       20.7168       20.4217       20.1214
      0.00235       18.1323       21.0053       21.1957       20.9959       20.7118       20.4171       20.1174
      0.00236       18.1085       20.9961       21.1896       20.9909       20.7073       20.4131       20.1138
      0.00237       18.0962         20.99       21.1844       20.9862        20.703       20.4091       20.1102
      0.00238       18.0817       20.9834       21.1791       20.9813       20.6985        20.405       20.1066
      0.00239       18.0864       20.9806       21.1747       20.9767       20.6942       20.4011       20.1031
       0.0024       18.0393        20.967       21.1677       20.9713       20.6895       20.3968       20.0993
      0.00241       18.0308       20.9616       21.1627       20.9667       20.6852       20.3929       20.0958
      0.00242        18.013       20.9544       21.1573       20.9619       20.6808        20.389       20.0923
      0.00243       18.0004       20.9484       21.1522       20.9572       20.6765        20.385       20.0888
      0.00244       17.9802       20.9402       21.1466       20.9524       20.6722       20.3811       20.0852
      0.00245       17.9618       20.9331       21.1415       20.9479       20.6681       20.3773        20.082
      0.00246       17.9543       20.9278       21.1365       20.9432       20.6637       20.3734       20.0785
      0.00247       17.9376       20.9205       21.1311       20.9384       20.6594       20.3694       20.0748
      0.00248       17.9266       20.9143       21.1261       20.9339       20.6552       20.3657       20.0716
      0.00249       17.8942        20.904       21.1197       20.9285       20.6505       20.3614       20.0678
       0.0025       17.8811       20.8987       21.1158       20.9251       20.6473       20.3584       20.0651
      0.00251       17.8847        20.896       21.1108       20.9199       20.6424       20.3541       20.0613
      0.00252       17.8973       20.8965       21.1075        20.916       20.6386       20.3505       20.0581
      0.00253       17.8796       20.8892       21.1021       20.9112       20.6343       20.3465       20.0545
      0.00254       17.8688       20.8835       21.0975       20.9069       20.6304       20.3431       20.0516
      0.00255       17.8387       20.8735       21.0918       20.9024       20.6264       20.3393       20.0481
      0.00256       17.7966       20.8608       21.0854       20.8975       20.6221       20.3356       20.0449
      0.00257       17.7857       20.8547       21.0801       20.8927       20.6176       20.3315       20.0412
      0.00258       17.7719       20.8492       21.0758       20.8889       20.6142       20.3283       20.0383
      0.00259       17.7619       20.8444       21.0714       20.8846       20.6102       20.3248       20.0353
       0.0026       17.7376       20.8357       21.0656       20.8798       20.6059       20.3209       20.0317
      0.00261       17.7046       20.8256       21.0602       20.8754        20.602       20.3174       20.0287
      0.00262       17.6848       20.8182       21.0554       20.8714       20.5984        20.314       20.0256
      0.00263        17.671       20.8117       21.0501       20.8666        20.594       20.3101       20.0223
      0.00264       17.6577        20.806       21.0456       20.8626       20.5904       20.3067       20.0192