/*--------------------------------*- C++ -*----------------------------------*\
| =========                 |                                                 |
| \\      /  F ield         | OpenFOAM: The Open Source CFD Toolbox           |
|  \\    /   O peration     | Version:  2112                                  |
|   \\  /    A nd           | Website:  www.openfoam.com                      |
|    \\/     M anipulation  |                                                 |
\*---------------------------------------------------------------------------*/
FoamFile
{
    version     2.0;
    format      ascii;
    arch        "LSB;label=32;scalar=64";
    class       surfaceScalarField;
    location    "0.25";
    object      phi_0;
}
// * * * * * * * * * * * * * * * * * * * * * * * * * * * * * * * * * * * * * //

dimensions      [0 3 -1 0 0 0 0];

oriented        oriented;

internalField   nonuniform List<scalar> 
24170
(
3.1057e-06
8.27045e-08
3.00007e-06
1.05628e-07
2.89258e-06
1.07496e-07
2.78434e-06
1.08237e-07
2.67955e-06
1.04789e-07
2.58187e-06
9.76769e-08
2.49264e-06
8.92317e-08
2.41205e-06
8.05901e-08
2.33984e-06
7.22151e-08
2.27554e-06
6.42967e-08
2.21837e-06
5.71721e-08
2.16796e-06
5.04137e-08
2.12335e-06
4.46062e-08
2.0844e-06
3.89502e-08
2.05049e-06
3.39107e-08
2.02082e-06
2.96653e-08
1.99803e-06
2.27928e-08
2.2848e-08
1.97518e-06
3.43196e-06
6.79961e-08
3.43689e-06
1.00699e-07
3.4358e-06
1.08586e-07
3.42965e-06
1.14384e-07
3.41785e-06
1.16586e-07
3.40133e-06
1.14197e-07
3.38155e-06
1.09016e-07
3.35959e-06
1.02545e-07
3.33638e-06
9.54307e-08
3.31266e-06
8.80136e-08
3.28899e-06
8.0845e-08
3.26583e-06
7.3572e-08
3.2434e-06
6.70341e-08
3.22212e-06
6.02321e-08
3.20184e-06
5.41905e-08
3.18346e-06
4.80432e-08
3.16511e-06
4.11495e-08
3.70612e-08
3.15089e-06
3.67309e-06
5.74202e-08
3.6812e-06
9.25909e-08
3.68646e-06
1.0333e-07
3.69088e-06
1.09961e-07
3.69446e-06
1.13005e-07
3.6968e-06
1.11854e-07
3.69794e-06
1.07881e-07
3.69797e-06
1.02511e-07
3.69706e-06
9.63448e-08
3.69528e-06
8.9792e-08
3.69291e-06
8.32148e-08
3.68995e-06
7.65352e-08
3.68677e-06
7.02123e-08
3.68322e-06
6.37805e-08
3.67973e-06
5.76801e-08
3.67628e-06
5.14968e-08
3.67235e-06
4.50766e-08
3.88575e-08
3.67055e-06
3.93426e-06
4.8547e-08
3.94242e-06
8.44344e-08
3.9483e-06
9.74477e-08
3.95348e-06
1.04782e-07
3.95827e-06
1.0821e-07
3.9625e-06
1.07625e-07
3.96609e-06
1.04291e-07
3.96912e-06
9.94849e-08
3.97167e-06
9.37934e-08
3.97376e-06
8.77014e-08
3.97553e-06
8.14481e-08
3.97694e-06
7.51225e-08
3.9782e-06
6.89593e-08
3.9792e-06
6.27745e-08
3.98016e-06
5.67207e-08
3.98102e-06
5.06385e-08
3.98175e-06
4.43472e-08
3.80548e-08
3.98255e-06
4.21492e-06
4.07574e-08
4.22316e-06
7.61916e-08
4.22946e-06
9.11428e-08
4.23498e-06
9.92704e-08
4.24012e-06
1.03071e-07
4.24481e-06
1.02934e-07
4.24896e-06
1.00139e-07
4.25266e-06
9.57785e-08
4.25597e-06
9.04838e-08
4.25893e-06
8.47487e-08
4.2616e-06
7.87766e-08
4.264e-06
7.27204e-08
4.26622e-06
6.67356e-08
4.26826e-06
6.0742e-08
4.27017e-06
5.48019e-08
4.27197e-06
4.88463e-08
4.27353e-06
4.27871e-08
3.67788e-08
4.2748e-06
4.51586e-06
3.39821e-08
4.52412e-06
6.79339e-08
4.53101e-06
8.42568e-08
4.53696e-06
9.33143e-08
4.54247e-06
9.75597e-08
4.54752e-06
9.78909e-08
4.55205e-06
9.56085e-08
4.55615e-06
9.16725e-08
4.55986e-06
8.67744e-08
4.56323e-06
8.13782e-08
4.56632e-06
7.56922e-08
4.56914e-06
6.9895e-08
4.57176e-06
6.412e-08
4.57418e-06
5.83211e-08
4.57643e-06
5.2548e-08
4.57851e-06
4.67747e-08
4.58032e-06
4.09755e-08
3.5268e-08
4.58183e-06
4.83849e-06
2.82123e-08
4.84644e-06
5.99811e-08
4.85382e-06
7.68826e-08
4.86047e-06
8.66658e-08
4.86658e-06
9.14494e-08
4.87208e-06
9.23818e-08
4.87704e-06
9.06555e-08
4.88152e-06
8.71901e-08
4.88558e-06
8.27185e-08
4.88929e-06
7.76636e-08
4.8927e-06
7.22822e-08
4.89583e-06
6.67618e-08
4.89873e-06
6.12277e-08
4.9014e-06
5.56467e-08
4.90386e-06
5.00855e-08
4.9061e-06
4.45362e-08
4.90807e-06
3.90093e-08
3.36129e-08
4.90972e-06
5.18446e-06
2.33361e-08
5.19181e-06
5.26278e-08
5.1993e-06
6.93942e-08
5.20654e-06
7.94228e-08
5.21338e-06
8.46124e-08
5.21962e-06
8.6141e-08
5.22522e-06
8.50527e-08
5.23022e-06
8.21965e-08
5.23468e-06
7.82515e-08
5.23876e-06
7.35876e-08
5.24249e-06
6.8554e-08
5.24591e-06
6.33418e-08
5.24906e-06
5.80738e-08
5.25196e-06
5.27435e-08
5.25462e-06
4.74345e-08
5.25701e-06
4.21422e-08
5.25912e-06
3.69024e-08
3.18209e-08
5.26091e-06
5.55543e-06
1.92393e-08
5.5621e-06
4.59627e-08
5.5694e-06
6.209e-08
5.5769e-06
7.19284e-08
5.58426e-06
7.72541e-08
5.59121e-06
7.91845e-08
5.5976e-06
7.86611e-08
5.60336e-06
7.64389e-08
5.60851e-06
7.31041e-08
5.61312e-06
6.89721e-08
5.61727e-06
6.44067e-08
5.62103e-06
5.95826e-08
5.62447e-06
5.46312e-08
5.62761e-06
4.96058e-08
5.63046e-06
4.45904e-08
5.63302e-06
3.95817e-08
5.63528e-06
3.46428e-08
2.9877e-08
5.63722e-06
5.95316e-06
1.58511e-08
5.95918e-06
3.9944e-08
5.96618e-06
5.50933e-08
5.97367e-06
6.44397e-08
5.98127e-06
6.9656e-08
5.98867e-06
7.17829e-08
5.99567e-06
7.16575e-08
6.00217e-06
6.99425e-08
6.00812e-06
6.71539e-08
6.0135e-06
6.35922e-08
6.01833e-06
5.95702e-08
6.02267e-06
5.52429e-08
6.02657e-06
5.07324e-08
6.03005e-06
4.6132e-08
6.03314e-06
4.14953e-08
6.0359e-06
3.68261e-08
6.03832e-06
3.22212e-08
2.77686e-08
6.04043e-06
6.37957e-06
1.3092e-08
6.38504e-06
3.44758e-08
6.3917e-06
4.84362e-08
6.39904e-06
5.70914e-08
6.40669e-06
6.20141e-08
6.41429e-06
6.41747e-08
6.42166e-06
6.42966e-08
6.42865e-06
6.29483e-08
6.43522e-06
6.0587e-08
6.4413e-06
5.75098e-08
6.44689e-06
5.39802e-08
6.45198e-06
5.01528e-08
6.45657e-06
4.61389e-08
6.46067e-06
4.20387e-08
6.46427e-06
3.78907e-08
6.46739e-06
3.37045e-08
6.47006e-06
2.95536e-08
2.54668e-08
6.47236e-06
5.74279e-06
1.11368e-08
5.74707e-06
3.01921e-08
5.75244e-06
4.30651e-08
5.75848e-06
5.10584e-08
5.76488e-06
5.56153e-08
5.77136e-06
5.7692e-08
5.77772e-06
5.79313e-08
5.78386e-06
5.68171e-08
5.78969e-06
5.47478e-08
5.7952e-06
5.20068e-08
5.80035e-06
4.88307e-08
5.80513e-06
4.53732e-08
5.80952e-06
4.17428e-08
5.81353e-06
3.80345e-08
5.81712e-06
3.42966e-08
5.82027e-06
3.05536e-08
5.82297e-06
2.68558e-08
2.32017e-08
5.82523e-06
7.00007e-06
9.2208e-09
7.00466e-06
2.55994e-08
7.01057e-06
3.7163e-08
7.01725e-06
4.43749e-08
7.02445e-06
4.84154e-08
7.03187e-06
5.02741e-08
7.03925e-06
5.05485e-08
7.04644e-06
4.96302e-08
7.05335e-06
4.78399e-08
7.05992e-06
4.54309e-08
7.06614e-06
4.2611e-08
7.07199e-06
3.95258e-08
7.07745e-06
3.62811e-08
7.08252e-06
3.29656e-08
7.08718e-06
2.96399e-08
7.09138e-06
2.63482e-08
7.0951e-06
2.31315e-08
2.00042e-08
7.0983e-06
8.53272e-06
7.34682e-09
8.53758e-06
2.07423e-08
8.54409e-06
3.06551e-08
8.55145e-06
3.70155e-08
8.55943e-06
4.04325e-08
8.56779e-06
4.19124e-08
8.57623e-06
4.21037e-08
8.58455e-06
4.13154e-08
8.59261e-06
3.97805e-08
8.60034e-06
3.77024e-08
8.6077e-06
3.52533e-08
8.61466e-06
3.25608e-08
8.62122e-06
2.97221e-08
8.62737e-06
2.68158e-08
8.63311e-06
2.39035e-08
8.63841e-06
2.10399e-08
8.64327e-06
1.82718e-08
1.56374e-08
8.64764e-06
1.04011e-05
5.49945e-09
1.04061e-05
1.56921e-08
1.04132e-05
2.35258e-08
1.04215e-05
2.87844e-08
1.04303e-05
3.15768e-08
1.04397e-05
3.25914e-08
1.04492e-05
3.25608e-08
1.04587e-05
3.18043e-08
1.0468e-05
3.04749e-08
1.0477e-05
2.87127e-08
1.04856e-05
2.66461e-08
1.04938e-05
2.43768e-08
1.05015e-05
2.19842e-08
1.05088e-05
1.95321e-08
1.05156e-05
1.70736e-08
1.0522e-05
1.46602e-08
1.0528e-05
1.2337e-08
1.01481e-08
1.05334e-05
1.26786e-05
3.64278e-09
1.26839e-05
1.04586e-08
1.26916e-05
1.58238e-08
1.27008e-05
1.95376e-08
1.27108e-05
2.15661e-08
1.27213e-05
2.21212e-08
1.27321e-05
2.18001e-08
1.27429e-05
2.09835e-08
1.27536e-05
1.97962e-08
1.2764e-05
1.83191e-08
1.2774e-05
1.66332e-08
1.27835e-05
1.48083e-08
1.27926e-05
1.29004e-08
1.28012e-05
1.0955e-08
1.28093e-05
9.01218e-09
1.28168e-05
7.11148e-09
1.28239e-05
5.28529e-09
3.56542e-09
1.28305e-05
1.54551e-05
1.71529e-09
1.54606e-05
4.95454e-09
1.54689e-05
7.50061e-09
1.54793e-05
9.21689e-09
1.54907e-05
1.00819e-08
1.55028e-05
1.00981e-08
1.55151e-05
9.47389e-09
1.55275e-05
8.56932e-09
1.55398e-05
7.49446e-09
1.55518e-05
6.28558e-09
1.55635e-05
4.98099e-09
1.55747e-05
3.61883e-09
1.55854e-05
2.23029e-09
1.55955e-05
8.40963e-10
1.5605e-05
-5.26821e-10
1.5614e-05
-1.85502e-09
1.56224e-05
-3.13206e-09
-4.33424e-09
1.56303e-05
1.88397e-05
-3.86352e-10
1.88458e-05
-1.07142e-09
1.8855e-05
-1.74034e-09
1.88667e-05
-2.44331e-09
1.888e-05
-3.20887e-09
1.88941e-05
-4.06209e-09
1.89086e-05
-5.0165e-09
1.89232e-05
-5.97653e-09
1.89376e-05
-6.92131e-09
1.89517e-05
-7.84172e-09
1.89654e-05
-8.73138e-09
1.89786e-05
-9.58388e-09
1.89912e-05
-1.03952e-08
1.90032e-05
-1.11646e-08
1.90146e-05
-1.18944e-08
1.90253e-05
-1.2588e-08
1.90354e-05
-1.32319e-08
-1.37652e-08
1.90449e-05
2.29658e-05
-2.86275e-09
2.2973e-05
-8.22557e-09
2.2984e-05
-1.27397e-08
2.29979e-05
-1.63615e-08
2.30138e-05
-1.91524e-08
2.30309e-05
-2.11599e-08
2.30484e-05
-2.25199e-08
2.3066e-05
-2.35395e-08
2.30834e-05
-2.43189e-08
2.31004e-05
-2.48864e-08
2.3117e-05
-2.52732e-08
2.31329e-05
-2.55148e-08
2.31482e-05
-2.56432e-08
2.31627e-05
-2.56847e-08
2.31764e-05
-2.56531e-08
2.31894e-05
-2.55368e-08
2.32014e-05
-2.52944e-08
-2.49093e-08
2.32126e-05
1.68127e-05
-4.8995e-09
1.68185e-05
-1.40244e-08
1.68273e-05
-2.1508e-08
1.68382e-05
-2.72541e-08
1.68504e-05
-3.13824e-08
1.68633e-05
-3.40583e-08
1.68765e-05
-3.57149e-08
1.68898e-05
-3.67889e-08
1.69029e-05
-3.74294e-08
1.69157e-05
-3.77038e-08
1.69281e-05
-3.76853e-08
1.694e-05
-3.74454e-08
1.69514e-05
-3.70315e-08
1.69622e-05
-3.64705e-08
1.69723e-05
-3.57685e-08
1.69817e-05
-3.48909e-08
1.69903e-05
-3.38687e-08
-3.27796e-08
1.69981e-05
1.46367e-05
-7.04295e-09
1.46427e-05
-2.0002e-08
1.46514e-05
-3.02315e-08
1.46619e-05
-3.77034e-08
1.46732e-05
-4.27428e-08
1.46851e-05
-4.58868e-08
1.46972e-05
-4.78176e-08
1.47093e-05
-4.89219e-08
1.47212e-05
-4.93815e-08
1.47329e-05
-4.93241e-08
1.4744e-05
-4.8852e-08
1.47547e-05
-4.80735e-08
1.47647e-05
-4.70318e-08
1.47739e-05
-4.57388e-08
1.47824e-05
-4.42479e-08
1.47901e-05
-4.26047e-08
1.47972e-05
-4.09177e-08
-3.92696e-08
1.48037e-05
1.27426e-05
-9.50979e-09
1.27491e-05
-2.64938e-08
1.2758e-05
-3.91068e-08
1.27681e-05
-4.77985e-08
1.27788e-05
-5.34615e-08
1.27899e-05
-5.70387e-08
1.28012e-05
-5.91288e-08
1.28124e-05
-6.00976e-08
1.28233e-05
-6.023e-08
1.28336e-05
-5.97007e-08
1.28434e-05
-5.86035e-08
1.28524e-05
-5.71022e-08
1.28607e-05
-5.52929e-08
1.28682e-05
-5.32316e-08
1.2875e-05
-5.10423e-08
1.28812e-05
-4.88554e-08
1.2887e-05
-4.6705e-08
-4.46201e-08
1.28924e-05
1.1094e-05
-1.26046e-08
1.11012e-05
-3.36974e-08
1.11103e-05
-4.8135e-08
1.112e-05
-5.75899e-08
1.11303e-05
-6.37256e-08
1.11408e-05
-6.75304e-08
1.11512e-05
-6.94853e-08
1.11611e-05
-7.00608e-08
1.11705e-05
-6.96125e-08
1.11792e-05
-6.84053e-08
1.11872e-05
-6.65915e-08
1.11945e-05
-6.43572e-08
1.1201e-05
-6.18851e-08
1.12071e-05
-5.93048e-08
1.12127e-05
-5.66679e-08
1.1218e-05
-5.40667e-08
1.12228e-05
-5.15274e-08
-4.90736e-08
1.12272e-05
9.6594e-06
-1.67899e-08
9.66737e-06
-4.16645e-08
9.67643e-06
-5.71961e-08
9.68582e-06
-6.69818e-08
9.69531e-06
-7.32148e-08
9.70463e-06
-7.68519e-08
9.71357e-06
-7.84226e-08
9.72196e-06
-7.84518e-08
9.72968e-06
-7.73286e-08
9.73672e-06
-7.54489e-08
9.74321e-06
-7.30858e-08
9.74922e-06
-7.03595e-08
9.75475e-06
-6.74208e-08
9.75986e-06
-6.44167e-08
9.7646e-06
-6.14008e-08
9.76897e-06
-5.844e-08
9.77301e-06
-5.55646e-08
-5.27946e-08
9.77673e-06
8.41087e-06
-2.23101e-08
8.41957e-06
-5.0362e-08
8.42826e-06
-6.58898e-08
8.43675e-06
-7.54631e-08
8.44501e-06
-8.14845e-08
8.45291e-06
-8.4748e-08
8.46039e-06
-8.58967e-08
8.46737e-06
-8.54375e-08
8.47385e-06
-8.38038e-08
8.4798e-06
-8.14069e-08
8.48529e-06
-7.85738e-08
8.49035e-06
-7.54225e-08
8.49503e-06
-7.20951e-08
8.49933e-06
-6.8718e-08
8.50329e-06
-6.53644e-08
8.50694e-06
-6.20874e-08
8.5103e-06
-5.892e-08
-5.588e-08
8.51338e-06
7.32412e-06
-2.91415e-08
7.33304e-06
-5.92904e-08
7.34096e-06
-7.38082e-08
7.34836e-06
-8.28581e-08
7.35555e-06
-8.86776e-08
7.36239e-06
-9.15842e-08
7.36879e-06
-9.23035e-08
7.37472e-06
-9.1365e-08
7.38021e-06
-8.92947e-08
7.38526e-06
-8.64574e-08
7.38989e-06
-8.32061e-08
7.39413e-06
-7.96593e-08
7.39801e-06
-7.5975e-08
7.40155e-06
-7.22595e-08
7.40479e-06
-6.8597e-08
7.40774e-06
-6.5037e-08
7.41042e-06
-6.16029e-08
-5.83272e-08
7.41287e-06
6.37805e-06
-3.71265e-08
6.3869e-06
-6.81418e-08
6.3941e-06
-8.10052e-08
6.40064e-06
-8.93998e-08
6.40695e-06
-9.4991e-08
6.41292e-06
-9.75522e-08
6.41843e-06
-9.78131e-08
6.42344e-06
-9.63702e-08
6.42798e-06
-9.38357e-08
6.43208e-06
-9.05606e-08
6.43577e-06
-8.68916e-08
6.43905e-06
-8.29445e-08
6.44196e-06
-7.88864e-08
6.44454e-06
-7.48339e-08
6.44679e-06
-7.08499e-08
6.44878e-06
-6.70231e-08
6.4505e-06
-6.33248e-08
-5.98116e-08
6.45198e-06
5.55505e-06
-4.67161e-08
5.56387e-06
-7.69575e-08
5.57024e-06
-8.73776e-08
5.57588e-06
-9.50405e-08
5.58117e-06
-1.00274e-07
5.58592e-06
-1.02305e-07
5.58997e-06
-1.01861e-07
5.59328e-06
-9.96835e-08
5.59583e-06
-9.63819e-08
5.5977e-06
-9.24309e-08
5.59892e-06
-8.81139e-08
5.59954e-06
-8.35653e-08
5.59961e-06
-7.89554e-08
5.59921e-06
-7.4431e-08
5.59836e-06
-7.00073e-08
5.59718e-06
-6.58355e-08
5.59565e-06
-6.18044e-08
-5.81145e-08
5.59396e-06
4.84108e-06
-6.01847e-08
4.84859e-06
-8.4471e-08
4.85176e-06
-9.05502e-08
4.85254e-06
-9.58221e-08
4.85027e-06
-9.7998e-08
4.84465e-06
-9.66896e-08
4.83589e-06
-9.30972e-08
4.82445e-06
-8.8245e-08
4.81075e-06
-8.26821e-08
4.79538e-06
-7.7057e-08
4.77875e-06
-7.14918e-08
4.76128e-06
-6.60898e-08
4.74329e-06
-6.09638e-08
4.72505e-06
-5.61912e-08
4.70677e-06
-5.17269e-08
4.6886e-06
-4.76697e-08
4.67069e-06
-4.38926e-08
-4.0559e-08
4.65313e-06
4.14249e-06
4.05802e-06
3.96747e-06
3.87165e-06
3.77365e-06
3.67696e-06
3.58386e-06
3.49562e-06
3.41294e-06
3.33588e-06
3.26439e-06
3.1983e-06
3.13733e-06
3.08114e-06
3.02942e-06
2.98175e-06
2.93785e-06
2.89729e-06
-2.89881e-08
2.89881e-08
-6.48343e-08
3.58462e-08
-8.78751e-08
2.30408e-08
-8.44411e-08
-3.43405e-09
-5.1639e-08
-3.28021e-08
5.13661e-09
-5.67756e-08
7.69189e-08
-7.17823e-08
1.5558e-07
-7.86613e-08
2.34961e-07
-7.9381e-08
3.10963e-07
-7.60021e-08
3.81028e-07
-7.00643e-08
4.43589e-07
-6.25611e-08
4.9773e-07
-5.41413e-08
5.42966e-07
-4.52365e-08
5.7911e-07
-3.61436e-08
6.06181e-07
-2.7071e-08
6.24334e-07
-1.81527e-08
6.33854e-07
-9.51989e-09
6.35129e-07
-1.27567e-09
6.28375e-07
6.75418e-09
6.14106e-07
1.42695e-08
5.92868e-07
2.12378e-08
5.65183e-07
2.7685e-08
5.31511e-07
3.36717e-08
4.92255e-07
3.92562e-08
4.47749e-07
4.45064e-08
3.98252e-07
4.94963e-08
3.4398e-07
5.42724e-08
2.8517e-07
5.88101e-08
2.22207e-07
6.29625e-08
1.55801e-07
6.64063e-08
8.72352e-08
6.85658e-08
1.87608e-08
6.84744e-08
-4.58941e-08
6.46549e-08
-1.00909e-07
5.5015e-08
-1.39314e-07
3.8405e-08
-1.57356e-07
1.80417e-08
-1.5841e-07
1.0541e-09
-1.53258e-07
-5.15201e-09
-1.53801e-07
5.43204e-10
-1.59856e-07
6.05443e-09
-1.56612e-07
-3.24345e-09
-1.2993e-07
-2.66819e-08
-7.67478e-08
-5.31825e-08
-8.38967e-09
-6.83581e-08
5.54051e-08
-6.37948e-08
9.76014e-08
-4.21963e-08
1.09951e-07
-1.235e-08
9.50529e-08
1.48984e-08
6.10841e-08
3.39689e-08
2.6261e-08
3.48231e-08
1.7366e-08
8.89498e-09
2.4758e-08
-7.39203e-09
1.02988e-08
1.44593e-08
-2.47504e-08
3.50491e-08
-1.12471e-07
8.77205e-08
-2.87113e-07
1.74642e-07
-4.91044e-07
2.03931e-07
-6.69197e-07
1.78153e-07
-8.29729e-07
1.60532e-07
-9.70311e-07
1.40582e-07
-1.09183e-06
1.21517e-07
-1.19712e-06
1.0529e-07
-1.28768e-06
9.05628e-08
-1.36618e-06
7.85039e-08
-1.4345e-06
6.8313e-08
-1.49452e-06
6.002e-08
-1.54775e-06
5.32339e-08
-1.59546e-06
4.77045e-08
-1.63868e-06
4.32263e-08
-1.67821e-06
3.95272e-08
-1.71473e-06
3.65208e-08
-1.74876e-06
3.40342e-08
-1.78073e-06
3.19656e-08
-1.81095e-06
3.0224e-08
-1.83968e-06
2.87304e-08
-1.86712e-06
2.74398e-08
-1.89342e-06
2.62951e-08
-1.91869e-06
2.52735e-08
-1.94303e-06
2.43364e-08
-1.9665e-06
2.34729e-08
-1.98916e-06
2.26563e-08
-2.01104e-06
2.18813e-08
-2.03217e-06
2.11306e-08
-2.05257e-06
2.04006e-08
-2.07225e-06
1.9681e-08
-2.09122e-06
1.89688e-08
-2.10948e-06
1.82589e-08
-2.12703e-06
1.75487e-08
-2.14386e-06
1.68362e-08
-2.15998e-06
1.61198e-08
-2.17538e-06
1.53998e-08
-2.19006e-06
1.46749e-08
-2.204e-06
1.39461e-08
-2.21722e-06
1.32133e-08
-2.2297e-06
1.24776e-08
-2.24144e-06
1.17398e-08
-2.25244e-06
1.10008e-08
-2.2627e-06
1.02612e-08
-2.27222e-06
9.5225e-09
-2.281e-06
8.78493e-09
-2.28905e-06
8.04855e-09
-2.29637e-06
7.31399e-09
-2.30295e-06
6.58073e-09
-2.3088e-06
5.8487e-09
-2.31391e-06
5.1168e-09
-2.3183e-06
4.38438e-09
-2.32195e-06
3.65004e-09
-2.32486e-06
2.91205e-09
-2.32703e-06
2.16719e-09
-2.32844e-06
1.41341e-09
-2.32909e-06
6.50121e-10
-2.32895e-06
-1.41733e-10
-2.32811e-06
-8.38885e-10
-2.32658e-06
-1.53503e-09
-2.32434e-06
-2.23977e-09
-2.32141e-06
-2.92737e-09
-2.3178e-06
-3.61033e-09
-2.31352e-06
-4.28092e-09
-2.30858e-06
-4.94074e-09
-2.30299e-06
-5.58834e-09
-2.29677e-06
-6.22244e-09
-2.28992e-06
-6.84397e-09
-2.28247e-06
-7.45245e-09
-2.27442e-06
-8.04886e-09
-2.26579e-06
-8.63416e-09
-2.25658e-06
-9.20939e-09
-2.2468e-06
-9.77635e-09
-2.23647e-06
-1.03347e-08
-2.22558e-06
-1.0885e-08
-2.21415e-06
-1.14292e-08
-2.20218e-06
-1.19707e-08
-2.18967e-06
-1.25075e-08
-2.17664e-06
-1.30366e-08
-2.16308e-06
-1.35567e-08
-2.14902e-06
-1.40622e-08
-2.13445e-06
-1.45667e-08
-2.11935e-06
-1.51006e-08
-2.10372e-06
-1.5631e-08
-2.08758e-06
-1.61423e-08
-2.07092e-06
-1.66569e-08
-2.05375e-06
-1.71671e-08
-2.03608e-06
-1.76757e-08
-2.01789e-06
-1.81839e-08
-1.9992e-06
-1.8692e-08
-1.98e-06
-1.92014e-08
-1.96029e-06
-1.97134e-08
-1.94006e-06
-2.02295e-08
-1.91931e-06
-2.07515e-08
-1.89802e-06
-2.12814e-08
-1.8762e-06
-2.18213e-08
-1.85383e-06
-2.23734e-08
-1.83089e-06
-2.29401e-08
-1.80737e-06
-2.3524e-08
-1.78324e-06
-2.41275e-08
-1.75848e-06
-2.47529e-08
-1.73308e-06
-2.54028e-08
-1.707e-06
-2.60793e-08
-1.68022e-06
-2.67847e-08
-1.6527e-06
-2.75208e-08
-1.62441e-06
-2.82897e-08
-1.59531e-06
-2.90933e-08
-1.56538e-06
-2.99337e-08
-1.53457e-06
-3.08128e-08
-1.50284e-06
-3.17327e-08
-1.47014e-06
-3.26954e-08
-1.43644e-06
-3.37027e-08
-1.40168e-06
-3.47565e-08
-1.36582e-06
-3.58588e-08
-1.32881e-06
-3.70133e-08
-1.29059e-06
-3.8221e-08
-1.2511e-06
-3.94869e-08
-1.21027e-06
-4.0826e-08
-1.16799e-06
-4.22834e-08
-1.12405e-06
-4.39454e-08
-1.07807e-06
-4.59721e-08
-1.02899e-06
-4.90815e-08
-9.74576e-07
-5.44162e-08
-9.11852e-07
-6.27236e-08
-7.80333e-08
-8.33819e-07
-1.05839e-08
3.9572e-08
-2.25038e-08
4.77661e-08
-1.5206e-08
1.5743e-08
2.15088e-08
-4.01489e-08
8.29512e-08
-9.42445e-08
1.58164e-07
-1.31989e-07
2.37774e-07
-1.51392e-07
3.15566e-07
-1.56454e-07
3.88234e-07
-1.52049e-07
4.54161e-07
-1.41929e-07
5.12677e-07
-1.2858e-07
5.63592e-07
-1.13476e-07
6.06963e-07
-9.75121e-08
6.42929e-07
-8.12023e-08
6.71654e-07
-6.48695e-08
6.93322e-07
-4.87382e-08
7.08144e-07
-3.29748e-08
7.16354e-07
-1.77302e-08
7.18317e-07
-3.23895e-09
7.14309e-07
1.07622e-08
7.04741e-07
2.38379e-08
6.8995e-07
3.60284e-08
6.70248e-07
4.73874e-08
6.45932e-07
5.79877e-08
6.17246e-07
6.79419e-08
5.84348e-07
7.74044e-08
5.47289e-07
8.65556e-08
5.05988e-07
9.55733e-08
4.60251e-07
1.04547e-07
4.0981e-07
1.13403e-07
3.5443e-07
1.21787e-07
2.94002e-07
1.28994e-07
2.28618e-07
1.33858e-07
1.58596e-07
1.34676e-07
8.43205e-08
1.29291e-07
7.25997e-09
1.15466e-07
-6.64518e-08
9.17534e-08
-1.24852e-07
5.94546e-08
-1.57244e-07
2.72394e-08
-1.62473e-07
5.77224e-09
-1.47722e-07
-8.69602e-09
-1.17179e-07
-3.37867e-08
-6.7358e-08
-7.65028e-08
-2.13605e-09
-1.18404e-07
6.03941e-08
-1.30888e-07
1.03019e-07
-1.0642e-07
1.18403e-07
-5.75795e-08
1.12631e-07
-6.57854e-09
9.36337e-08
3.38959e-08
6.43814e-08
6.32211e-08
1.66334e-08
8.25711e-08
-6.83233e-08
9.38517e-08
-2.11491e-07
1.35776e-07
-4.1792e-07
2.20888e-07
-6.58267e-07
2.75396e-07
-8.60663e-07
2.90117e-07
-9.92178e-07
3.06157e-07
-1.08823e-06
2.99982e-07
-1.1814e-06
2.71326e-07
-1.26438e-06
2.43509e-07
-1.33637e-06
2.12576e-07
-1.39961e-06
1.84755e-07
-1.45452e-06
1.60201e-07
-1.50297e-06
1.39008e-07
-1.54591e-06
1.21444e-07
-1.58445e-06
1.06851e-07
-1.61937e-06
9.4949e-08
-1.65138e-06
8.52395e-08
-1.681e-06
7.73258e-08
-1.70867e-06
7.08905e-08
-1.73473e-06
6.55913e-08
-1.75944e-06
6.12303e-08
-1.783e-06
5.7594e-08
-1.80557e-06
5.45328e-08
-1.82727e-06
5.19244e-08
-1.8482e-06
4.96617e-08
-1.86843e-06
4.76747e-08
-1.88803e-06
4.58935e-08
-1.90703e-06
4.4274e-08
-1.92547e-06
4.27725e-08
-1.94336e-06
4.13634e-08
-1.96072e-06
4.00178e-08
-1.97756e-06
3.87194e-08
-1.99388e-06
3.74493e-08
-2.00967e-06
3.61974e-08
-2.02494e-06
3.49517e-08
-2.03968e-06
3.37058e-08
-2.05387e-06
3.24529e-08
-2.06752e-06
3.11893e-08
-2.08059e-06
2.99116e-08
-2.09309e-06
2.86182e-08
-2.105e-06
2.73087e-08
-2.11631e-06
2.59829e-08
-2.127e-06
2.46418e-08
-2.13708e-06
2.32867e-08
-2.14652e-06
2.19197e-08
-2.15532e-06
2.05427e-08
-2.16348e-06
1.91584e-08
-2.17098e-06
1.77682e-08
-2.17784e-06
1.63744e-08
-2.18403e-06
1.49785e-08
-2.18956e-06
1.35815e-08
-2.19443e-06
1.21845e-08
-2.19864e-06
1.07879e-08
-2.20218e-06
9.39188e-09
-2.20506e-06
7.99611e-09
-2.20728e-06
6.60004e-09
-2.20883e-06
5.20273e-09
-2.20972e-06
3.80351e-09
-2.20996e-06
2.4015e-09
-2.20954e-06
9.99779e-10
-2.2085e-06
-3.91823e-10
-2.20683e-06
-1.81481e-09
-2.20446e-06
-3.20278e-09
-2.20141e-06
-4.5877e-09
-2.19768e-06
-5.97263e-09
-2.19326e-06
-7.34318e-09
-2.18817e-06
-8.70118e-09
-2.18241e-06
-1.00391e-08
-2.176e-06
-1.13564e-08
-2.16894e-06
-1.26497e-08
-2.16124e-06
-1.39177e-08
-2.15293e-06
-1.51606e-08
-2.144e-06
-1.6378e-08
-2.13448e-06
-1.7572e-08
-2.12437e-06
-1.87438e-08
-2.11368e-06
-1.98962e-08
-2.10243e-06
-2.10313e-08
-2.09061e-06
-2.21511e-08
-2.07824e-06
-2.32573e-08
-2.06531e-06
-2.43525e-08
-2.05185e-06
-2.54388e-08
-2.03784e-06
-2.65164e-08
-2.02329e-06
-2.75847e-08
-2.0082e-06
-2.86439e-08
-1.99257e-06
-2.96941e-08
-1.97639e-06
-3.07422e-08
-1.9597e-06
-3.17972e-08
-1.94248e-06
-3.28466e-08
-1.92474e-06
-3.3885e-08
-1.90648e-06
-3.492e-08
-1.88769e-06
-3.59502e-08
-1.86839e-06
-3.69774e-08
-1.84857e-06
-3.80032e-08
-1.82823e-06
-3.90293e-08
-1.80738e-06
-4.00578e-08
-1.786e-06
-4.10915e-08
-1.7641e-06
-4.21332e-08
-1.74166e-06
-4.31866e-08
-1.71869e-06
-4.42554e-08
-1.69516e-06
-4.5344e-08
-1.67108e-06
-4.64569e-08
-1.64642e-06
-4.75989e-08
-1.62117e-06
-4.87749e-08
-1.59531e-06
-4.999e-08
-1.56881e-06
-5.1249e-08
-1.54166e-06
-5.25568e-08
-1.51382e-06
-5.39178e-08
-1.48527e-06
-5.53364e-08
-1.45597e-06
-5.68166e-08
-1.4259e-06
-5.83623e-08
-1.39502e-06
-5.99775e-08
-1.36328e-06
-6.16663e-08
-1.33066e-06
-6.34326e-08
-1.29712e-06
-6.52804e-08
-1.2626e-06
-6.72137e-08
-1.22706e-06
-6.92362e-08
-1.19047e-06
-7.13515e-08
-1.15277e-06
-7.35626e-08
-1.1139e-06
-7.58741e-08
-1.07384e-06
-7.82893e-08
-1.0325e-06
-8.08189e-08
-9.89841e-07
-8.34887e-08
-9.45758e-07
-8.63667e-08
-9.00113e-07
-8.95906e-08
-8.52665e-07
-9.34197e-08
-8.03013e-07
-9.87337e-08
-7.50769e-07
-1.06661e-07
-6.94162e-07
-1.19331e-07
-1.3844e-07
-6.33755e-07
-4.91874e-10
4.00638e-08
1.40873e-08
3.31869e-08
6.38012e-08
-3.39708e-08
1.38962e-07
-1.1531e-07
2.20809e-07
-1.76091e-07
2.97031e-07
-2.08211e-07
3.62951e-07
-2.17312e-07
4.18396e-07
-2.11899e-07
4.65012e-07
-1.98665e-07
5.04575e-07
-1.81492e-07
5.38432e-07
-1.62438e-07
5.6753e-07
-1.42573e-07
5.92458e-07
-1.2244e-07
6.13535e-07
-1.0228e-07
6.30847e-07
-8.21815e-08
6.44339e-07
-6.22302e-08
6.53872e-07
-4.25079e-08
6.59253e-07
-2.31112e-08
6.60227e-07
-4.21325e-09
6.56908e-07
1.40816e-08
6.49234e-07
3.15119e-08
6.37341e-07
4.79218e-08
6.21498e-07
6.32298e-08
6.02055e-07
7.74311e-08
5.79434e-07
9.05622e-08
5.5407e-07
1.02769e-07
5.26273e-07
1.14352e-07
4.96178e-07
1.25669e-07
4.63727e-07
1.36999e-07
4.28661e-07
1.48468e-07
3.90562e-07
1.59886e-07
3.48917e-07
1.70639e-07
3.03073e-07
1.79703e-07
2.52293e-07
1.85456e-07
1.95899e-07
1.85684e-07
1.3365e-07
1.77715e-07
6.65274e-08
1.58876e-07
-1.236e-09
1.27218e-07
-5.74869e-08
8.34903e-08
-8.52978e-08
3.35832e-08
-7.73086e-08
-1.66852e-08
-3.9009e-08
-7.20864e-08
1.76523e-08
-1.33164e-07
7.09586e-08
-1.71711e-07
1.00239e-07
-1.60168e-07
1.01526e-07
-1.07708e-07
7.39802e-08
-3.00335e-08
1.40862e-08
5.33155e-08
-7.30385e-08
1.21021e-07
-1.94992e-07
1.85174e-07
-3.65563e-07
2.53142e-07
-5.81772e-07
3.10062e-07
-7.94166e-07
3.48169e-07
-9.46223e-07
3.72945e-07
-1.05069e-06
3.79858e-07
-1.13178e-06
3.71214e-07
-1.18471e-06
3.59088e-07
-1.2184e-06
3.33666e-07
-1.24935e-06
3.02276e-07
-1.27786e-06
2.7202e-07
-1.30684e-06
2.41557e-07
-1.33621e-06
2.14125e-07
-1.36564e-06
1.89632e-07
-1.39497e-06
1.68338e-07
-1.42377e-06
1.50248e-07
-1.45188e-06
1.34958e-07
-1.47914e-06
1.22208e-07
-1.50549e-06
1.11589e-07
-1.53093e-06
1.0277e-07
-1.55549e-06
9.54455e-08
-1.57921e-06
8.93162e-08
-1.60216e-06
8.41757e-08
-1.62438e-06
7.98119e-08
-1.64592e-06
7.60775e-08
-1.66683e-06
7.28368e-08
-1.68716e-06
6.99841e-08
-1.70692e-06
6.74356e-08
-1.72615e-06
6.51214e-08
-1.74486e-06
6.2986e-08
-1.76307e-06
6.09846e-08
-1.78079e-06
5.90829e-08
-1.79802e-06
5.72507e-08
-1.81477e-06
5.54651e-08
-1.83102e-06
5.37056e-08
-1.84678e-06
5.19578e-08
-1.86204e-06
5.02082e-08
-1.87678e-06
4.84478e-08
-1.891e-06
4.66685e-08
-1.90467e-06
4.48653e-08
-1.9178e-06
4.30342e-08
-1.93035e-06
4.11734e-08
-1.94233e-06
3.92826e-08
-1.95371e-06
3.73618e-08
-1.96448e-06
3.54129e-08
-1.97463e-06
3.34381e-08
-1.98415e-06
3.14405e-08
-1.99303e-06
2.94237e-08
-2.00126e-06
2.73913e-08
-2.00884e-06
2.53464e-08
-2.01576e-06
2.32927e-08
-2.02201e-06
2.12329e-08
-2.0276e-06
1.91689e-08
-2.03252e-06
1.71026e-08
-2.03677e-06
1.5035e-08
-2.04034e-06
1.29667e-08
-2.04324e-06
1.08978e-08
-2.04547e-06
8.82809e-09
-2.04702e-06
6.75696e-09
-2.0479e-06
4.68359e-09
-2.04811e-06
2.60746e-09
-2.04764e-06
5.30148e-10
-2.04649e-06
-1.54488e-09
-2.04468e-06
-3.62486e-09
-2.04218e-06
-5.6982e-09
-2.039e-06
-7.76749e-09
-2.03515e-06
-9.82873e-09
-2.03062e-06
-1.18734e-08
-2.02542e-06
-1.38982e-08
-2.01956e-06
-1.58959e-08
-2.01306e-06
-1.78634e-08
-2.00591e-06
-1.97964e-08
-1.99813e-06
-2.16927e-08
-1.98974e-06
-2.35516e-08
-1.98075e-06
-2.53732e-08
-1.97116e-06
-2.71598e-08
-1.96099e-06
-2.89138e-08
-1.95025e-06
-3.06388e-08
-1.93894e-06
-3.23382e-08
-1.92708e-06
-3.40156e-08
-1.91466e-06
-3.56738e-08
-1.9017e-06
-3.7316e-08
-1.88819e-06
-3.89448e-08
-1.87415e-06
-4.05613e-08
-1.85956e-06
-4.21664e-08
-1.84445e-06
-4.37612e-08
-1.82879e-06
-4.53469e-08
-1.81261e-06
-4.69274e-08
-1.7959e-06
-4.85059e-08
-1.77867e-06
-5.00769e-08
-1.76092e-06
-5.16384e-08
-1.74264e-06
-5.31938e-08
-1.72385e-06
-5.47434e-08
-1.70454e-06
-5.62889e-08
-1.68471e-06
-5.78326e-08
-1.66436e-06
-5.93769e-08
-1.64349e-06
-6.0925e-08
-1.6221e-06
-6.24807e-08
-1.60019e-06
-6.40485e-08
-1.57774e-06
-6.56336e-08
-1.55476e-06
-6.72417e-08
-1.53122e-06
-6.88792e-08
-1.50712e-06
-7.05528e-08
-1.48245e-06
-7.22698e-08
-1.45719e-06
-7.40376e-08
-1.43132e-06
-7.58638e-08
-1.40481e-06
-7.77557e-08
-1.37765e-06
-7.97207e-08
-1.3498e-06
-8.17656e-08
-1.32124e-06
-8.38967e-08
-1.29193e-06
-8.61201e-08
-1.26186e-06
-8.84417e-08
-1.23097e-06
-9.08676e-08
-1.19923e-06
-9.34038e-08
-1.1666e-06
-9.60563e-08
-1.13305e-06
-9.8831e-08
-1.09853e-06
-1.01734e-07
-1.063e-06
-1.04771e-07
-1.0264e-06
-1.07947e-07
-9.887e-07
-1.11266e-07
-9.4984e-07
-1.14734e-07
-9.09773e-07
-1.18356e-07
-8.68446e-07
-1.22146e-07
-8.25795e-07
-1.26139e-07
-7.81744e-07
-1.30418e-07
-7.36179e-07
-1.35156e-07
-6.8892e-07
-1.40678e-07
-6.39737e-07
-1.47917e-07
-5.88453e-07
-1.57945e-07
-5.34332e-07
-1.73452e-07
-1.94965e-07
-4.77808e-07
4.29724e-09
3.57666e-08
5.49183e-08
-1.74341e-08
1.43885e-07
-1.22938e-07
2.34787e-07
-2.06211e-07
3.07678e-07
-2.48982e-07
3.59653e-07
-2.60187e-07
3.96162e-07
-2.5382e-07
4.23412e-07
-2.39149e-07
4.45627e-07
-2.2088e-07
4.65165e-07
-2.01029e-07
4.83075e-07
-1.80348e-07
4.99684e-07
-1.59183e-07
5.14942e-07
-1.37697e-07
5.28659e-07
-1.15997e-07
5.40626e-07
-9.41486e-08
5.50598e-07
-7.22017e-08
5.58288e-07
-5.0198e-08
5.63393e-07
-2.82163e-08
5.65586e-07
-6.406e-09
5.64565e-07
1.51024e-08
5.60036e-07
3.60409e-08
5.51844e-07
5.61138e-08
5.40013e-07
7.50607e-08
5.24727e-07
9.27174e-08
5.0631e-07
1.08979e-07
4.85247e-07
1.23832e-07
4.62078e-07
1.37521e-07
4.37213e-07
1.50534e-07
4.10886e-07
1.63325e-07
3.83152e-07
1.76202e-07
3.53848e-07
1.8919e-07
3.22707e-07
2.01781e-07
2.8931e-07
2.131e-07
2.52966e-07
2.218e-07
2.12883e-07
2.25767e-07
1.68363e-07
2.22235e-07
1.19296e-07
2.07943e-07
6.72001e-08
1.79314e-07
1.717e-08
1.3352e-07
-2.03742e-08
7.11273e-08
-3.38978e-08
-3.16166e-09
-1.68646e-08
-8.91195e-08
6.17299e-09
-1.56202e-07
-6.6534e-10
-1.64872e-07
-5.16331e-08
-1.09201e-07
-1.44896e-07
-1.4445e-08
-2.65507e-07
9.05782e-08
-4.06743e-07
1.94551e-07
-5.65096e-07
2.79374e-07
-7.25902e-07
3.4598e-07
-8.6906e-07
3.96299e-07
-9.82367e-07
4.23369e-07
-1.06554e-06
4.31339e-07
-1.11912e-06
4.26532e-07
-1.14965e-06
4.10381e-07
-1.16772e-06
3.89288e-07
-1.176e-06
3.67363e-07
-1.18281e-06
3.40476e-07
-1.19274e-06
3.12209e-07
-1.20532e-06
2.84601e-07
-1.22157e-06
2.5781e-07
-1.24057e-06
2.33122e-07
-1.26172e-06
2.10785e-07
-1.28435e-06
1.90968e-07
-1.30781e-06
1.73709e-07
-1.33166e-06
1.58806e-07
-1.35554e-06
1.46082e-07
-1.3792e-06
1.3525e-07
-1.4025e-06
1.26068e-07
-1.42533e-06
1.18278e-07
-1.44765e-06
1.11643e-07
-1.46945e-06
1.05968e-07
-1.49071e-06
1.0107e-07
-1.51143e-06
9.68066e-08
-1.53164e-06
9.30471e-08
-1.55135e-06
8.96887e-08
-1.57056e-06
8.66461e-08
-1.58929e-06
8.38484e-08
-1.60754e-06
8.1237e-08
-1.62532e-06
7.87662e-08
-1.64263e-06
7.63977e-08
-1.65948e-06
7.40994e-08
-1.67586e-06
7.18445e-08
-1.69177e-06
6.96111e-08
-1.70719e-06
6.73814e-08
-1.72212e-06
6.51406e-08
-1.73655e-06
6.28774e-08
-1.75047e-06
6.05827e-08
-1.76385e-06
5.82502e-08
-1.77669e-06
5.58755e-08
-1.78898e-06
5.34565e-08
-1.80069e-06
5.09928e-08
-1.81181e-06
4.84851e-08
-1.82233e-06
4.59358e-08
-1.83224e-06
4.33482e-08
-1.84153e-06
4.07267e-08
-1.85018e-06
3.8076e-08
-1.85819e-06
3.54013e-08
-1.86555e-06
3.27073e-08
-1.87226e-06
2.9999e-08
-1.87831e-06
2.72803e-08
-1.88369e-06
2.45543e-08
-1.88841e-06
2.18236e-08
-1.89247e-06
1.90898e-08
-1.89585e-06
1.63543e-08
-1.89858e-06
1.36178e-08
-1.90063e-06
1.08807e-08
-1.90201e-06
8.14273e-09
-1.90273e-06
5.40295e-09
-1.90279e-06
2.66074e-09