/*--------------------------------*- C++ -*----------------------------------*\
| =========                 |                                                 |
| \\      /  F ield         | OpenFOAM: The Open Source CFD Toolbox           |
|  \\    /   O peration     | Version:  2112                                  |
|   \\  /    A nd           | Website:  www.openfoam.com                      |
|    \\/     M anipulation  |                                                 |
\*---------------------------------------------------------------------------*/
FoamFile
{
    version     2.0;
    format      ascii;
    arch        "LSB;label=32;scalar=64";
    class       volScalarField;
    location    "0.25";
    object      turbulenceProperties:L;
}
// * * * * * * * * * * * * * * * * * * * * * * * * * * * * * * * * * * * * * //

dimensions      [0 1 0 0 0 0 0];

internalField   nonuniform List<scalar> 
12225
(
9.29536e-05
0.000104355
0.000110333
0.000112988
0.000114207
0.000114389
0.000114244
0.000113867
0.000113251
0.000112535
0.000111794
0.000111015
0.00011027
0.000109519
0.000108814
0.000108168
0.000107465
0.000107061
0.00167495
0.0006313
0.000400628
0.000309259
0.000263285
0.000237428
0.00022189
0.00021193
0.000205516
0.000201425
0.000198857
0.000197465
0.000196874
0.000196932
0.000197628
0.00019833
0.000199496
0.00020058
0.017801
0.00636577
0.00395077
0.00252138
0.00179991
0.00136739
0.00113494
0.0009607
0.000857866
0.000768933
0.000715197
0.000662348
0.000631317
0.000597292
0.000578381
0.000552849
0.00054196
0.000524372
0.0587345
0.0260573
0.0177289
0.0119945
0.00914523
0.00689657
0.00578009
0.00474132
0.00420789
0.00363597
0.00334374
0.00299192
0.0028135
0.00258339
0.00247256
0.00229198
0.0022314
0.00210085
0.0765323
0.0561325
0.0404576
0.0303239
0.0249983
0.0199447
0.017324
0.0145874
0.0131478
0.0115013
0.0106354
0.00956426
0.00900604
0.00827303
0.00789662
0.00733937
0.00713699
0.00666706
0.079394
0.0739034
0.0633174
0.0508427
0.0440875
0.0375683
0.0337325
0.0295994
0.0271528
0.0244245
0.0228007
0.0208933
0.0197818
0.0183964
0.0176067
0.0165226
0.0161014
0.0150835
0.0797631
0.0786944
0.0753478
0.0679264
0.0616292
0.0547864
0.0503011
0.0458186
0.042878
0.039657
0.0374569
0.0350292
0.0334278
0.0315449
0.030365
0.0288159
0.0281236
0.0266466
0.0798161
0.0796169
0.0788642
0.0766646
0.0735423
0.0686121
0.0645597
0.0603389
0.0571196
0.0539592
0.0516371
0.0492048
0.0473921
0.0453515
0.0439553
0.0422032
0.0412626
0.039605
0.0798263
0.0797893
0.0796307
0.0791869
0.0782259
0.0764484
0.0742555
0.0713831
0.0686354
0.065865
0.0635872
0.0613043
0.0595357
0.0576837
0.0563252
0.054669
0.053643
0.0520493
0.0798297
0.0798256
0.0797922
0.0797119
0.0794733
0.0790487
0.0783628
0.077227
0.075898
0.0741996
0.0725181
0.07067
0.0691183
0.0674977
0.0662266
0.0648221
0.0639005
0.0625623
0.0798328
0.0798353
0.0798313
0.079812
0.0797656
0.0796649
0.0795005
0.0791902
0.0787952
0.078162
0.0774571
0.0765067
0.0755663
0.0744398
0.0734383
0.0723265
0.0714981
0.0704415
0.0798326
0.0798401
0.0798413
0.0798373
0.0798268
0.0797946
0.0797508
0.0796574
0.0795498
0.0793421
0.0791143
0.0787512
0.0783672
0.0778306
0.0773035
0.0766125
0.0760215
0.0752328
0.0798326
0.0798406
0.0798474
0.0798476
0.0798462
0.0798345
0.0798221
0.0797887
0.07976
0.0796952
0.0796342
0.0795195
0.0794074
0.0792195
0.0790417
0.0787548
0.0785057
0.0780916
0.0798328
0.0798406
0.0798488
0.079854
0.079855
0.0798529
0.079849
0.0798348
0.079825
0.0798024
0.0797856
0.0797514
0.0797242
0.0796716
0.0796291
0.0795489
0.0794841
0.0793625
0.0798328
0.0798413
0.0798484
0.0798567
0.0798604
0.0798616
0.0798618
0.079857
0.0798521
0.079843
0.0798357
0.0798238
0.0798148
0.0797999
0.0797886
0.0797693
0.0797545
0.0797284
0.079833
0.0798413
0.0798494
0.0798559
0.0798637
0.0798666
0.0798686
0.0798692
0.0798676
0.0798643
0.0798608
0.0798562
0.0798522
0.0798471
0.0798433
0.0798381
0.0798346
0.0798288
0.079833
0.0798416
0.0798496
0.0798567
0.0798632
0.0798698
0.0798726
0.079875
0.0798765
0.0798763
0.0798757
0.0798745
0.0798734
0.0798721
0.0798713
0.0798703
0.0798703
0.0798694
0.079833
0.0798417
0.0798497
0.0798571
0.0798634
0.07987
0.0798751
0.0798779
0.0798805
0.0798825
0.0798836
0.0798843
0.079885
0.0798857
0.0798866
0.0798877
0.079889
0.0798907
0.079833
0.0798417
0.0798496
0.0798571
0.0798633
0.07987
0.0798751
0.0798787
0.0798814
0.0798838
0.0798854
0.0798867
0.079888
0.0798891
0.0798905
0.0798917
0.0798935
0.0798955
0.079833
0.0798414
0.0798494
0.0798565
0.079863
0.0798692
0.079873
0.0798754
0.0798772
0.0798775
0.0798765
0.0798749
0.0798719
0.0798684
0.0798629
0.079857
0.0798482
0.0798401
0.0798331
0.0798409
0.0798493
0.0798548
0.0798616
0.0798626
0.079862
0.0798581
0.0798487
0.0798347
0.0798132
0.079787
0.0797499
0.0797071
0.0796495
0.0795886
0.079513
0.0794443
0.0798334
0.0798401
0.079847
0.0798452
0.0798366
0.0798167
0.0797758
0.0797113
0.0796172
0.0794952
0.0793322
0.0791402
0.0788995
0.0786431
0.0783511
0.0780676
0.0777502
0.0774665
0.0798353
0.0798315
0.0798137
0.0797627
0.0796329
0.0794122
0.0790608
0.0786228
0.0780555
0.0773873
0.0766338
0.0758538
0.0750189
0.074217
0.0733959
0.0726313
0.0718149
0.071114
0.0798264
0.0797691
0.0795487
0.0790217
0.0780078
0.0766916
0.0750289
0.073338
0.0714567
0.0696329
0.0677959
0.0661226
0.0644657
0.0629698
0.0614567
0.0601395
0.0587624
0.057645
0.0797833
0.0791697
0.0773476
0.0741912
0.0700632
0.0663333
0.0623778
0.0590723
0.0557403
0.0530275
0.050301
0.0480569
0.0458147
0.0439974
0.0421491
0.0406902
0.039142
0.0379859
0.079243
0.0742447
0.0652899
0.0572053
0.0498819
0.0447743
0.0397176
0.0361082
0.0325181
0.0299822
0.0274278
0.0256261
0.0237612
0.0224546
0.0210512
0.0200853
0.0189955
0.0182713
0.0726504
0.0502453
0.036546
0.0282289
0.0226337
0.0189737
0.0156444
0.0135435
0.0115908
0.0103814
0.0091791
0.008433
0.0076399
0.00715029
0.00659642
0.0062586
0.00585334
0.0056107
0.0342386
0.0148924
0.00935796
0.00653285
0.00501271
0.00392651
0.00310146
0.0025873
0.00218668
0.00193592
0.00171693
0.00157642
0.00144194
0.00135555
0.00126593
0.00120889
0.00114546
0.00110558
0.0037012
0.00142297
0.000882838
0.000641748
0.000511206
0.000436125
0.000388634
0.000357681
0.000335529
0.000320499
0.000308673
0.000300653
0.000293902
0.000289598
0.000285594
0.000283454
0.000281048
0.000280278
0.000130364
0.0001428
0.000149987
0.000154211
0.000156553
0.000157927
0.000158603
0.000158979
0.000158998
0.000158932
0.00015877
0.000158504
0.00015819
0.000157848
0.000157485
0.000157117
0.000156743
0.000156373
3.43615e-06
2.96248e-05
3.83273e-05
4.36137e-05
5.02724e-05
6.26228e-05
8.16273e-05
0.000102303
0.000121473
0.000138361
0.000153002
0.000165693
0.000176671
0.000186346
0.000194809
0.000202319
0.000208812
0.000214526
0.000219099
0.000223002
0.000225508
0.000227326
0.000227206
0.000226398
0.00022456
0.000220988
0.000215899
0.000209063
0.000200142
0.000188643
0.000173827
0.000154619
0.000129793
0.00010035
7.64736e-05
6.97179e-05
7.18707e-05
7.60735e-05
7.88845e-05
8.38091e-05
9.06718e-05
9.24521e-05
8.94077e-05
8.22421e-05
7.95627e-05
8.09213e-05
8.45909e-05
8.26004e-05
7.67153e-05
6.69165e-05
5.59851e-05
4.78083e-05
3.99124e-05
4.19802e-05
6.65964e-05
9.96231e-05
0.000181767
0.000259701
0.000288975
0.000304364
0.000316591
0.000324322
0.000331199
0.000336411
0.000341217
0.000345219
0.000348541
0.000351501
0.000353983
0.000356291
0.000358254
0.000360122
0.000361739
0.000363288
0.000364657
0.000365963
0.000367139
0.000368251
0.000369269
0.000370222
0.000371104
0.000371921
0.000372682
0.000373382
0.000374033
0.000374629
0.000375179
0.00037568
0.000376137
0.000376551
0.000376923
0.000377254
0.000377547
0.000377802
0.00037802
0.000378203
0.00037835
0.000378463
0.000378543
0.000378591
0.000378607
0.000378592
0.000378548
0.000378474
0.000378371
0.000378241
0.000378083
0.000377898
0.000377688
0.000377454
0.000377197
0.00037692
0.000376627
0.000376316
0.000375982
0.000375628
0.000375253
0.000374858
0.000374444
0.00037401
0.000373558
0.000373089
0.0003726
0.000372096
0.000371573
0.000371036
0.000370481
0.00036991
0.000369329
0.000368732
0.000368115
0.000367479
0.000366829
0.000366163
0.000365484
0.000364793
0.000364085
0.000363363
0.000362625
0.000361873
0.000361107
0.000360326
0.000359531
0.000358722
0.000357899
0.000357063
0.000356213
0.00035535
0.000354474
0.000353585
0.000352683
0.000351768
0.000350841
0.000349902
0.00034895
0.000347985
0.000347009
0.000346021
0.00034502
0.000344007
0.000342983
0.000341946
0.000340897
0.000339837
0.000338765
0.000337681
0.000336586
0.00033548
0.000334363
0.000333236
0.000332115
0.000331015
0.000329945
0.000328915
0.000327922
0.000326997
0.00032618
0.000325497
0.000324694
0.000323718
7.56711e-06
2.30432e-05
6.38524e-05
0.000121619
0.000175734
0.000267712
0.000380919
0.000511691
0.000647026
0.000783213
0.000912866
0.00102833
0.00112351
0.0012015
0.00125731
0.00129496
0.00131007
0.00131551
0.00130627
0.00127028
0.00119814
0.00109393
0.000984075
0.000878543
0.000781374
0.000693873
0.00061569
0.000545665
0.000482438
0.000424613
0.000370854
0.00031983
0.0002701
0.000220815
0.000175729
0.000142572
0.00012979
0.000130143
0.000139595
0.000147628
0.000176535
0.000246918
0.000343196
0.000462217
0.000614222
0.000718288
0.000750497
0.000733378
0.000645578
0.000463054
0.000326047
0.000256219
0.000176331
0.000179058
0.000249759
0.000283409
0.00032854
0.000397649
0.000464317
0.00052243
0.000592836
0.000660199
0.00073118
0.000803216
0.000869779
0.000939956
0.000999869
0.00106383
0.00111717
0.00117349
0.00122174
0.00127095
0.0013155
0.00135929
0.00140117
0.00144131
0.00148122
0.00151906
0.00155751
0.00159398
0.0016313
0.00166703
0.00170344
0.00173875
0.00177443
0.00180944
0.00184451
0.00187919
0.0019137
0.00194796
0.00198189
0.00201558
0.0020488
0.0020817
0.00211416
0.00214623
0.00217782
0.00220881
0.00223909
0.00226873
0.00229757
0.00232568
0.00235296
0.00237944
0.00240516
0.00242993
0.00245361
0.00247609
0.00249721
0.0025168
0.00253458
0.00254881
0.00256061
0.00256861
0.00257931
0.00258756
0.00259662
0.00260479
0.00261273
0.00262048
0.00262759
0.00263477
0.00264129
0.00264782
0.00265388
0.00265983
0.00266548
0.00267095
0.0026762
0.00268128
0.00268622
0.002691
0.00269562
0.00270011
0.00270448
0.00270876
0.00271305
0.0027173
0.00272132
0.00272524
0.00272907
0.00273277
0.0027364
0.00273994
0.00274341
0.00274683
0.00275019
0.00275353
0.00275685
0.00276017
0.00276351
0.00276686
0.00277026
0.00277371
0.00277723
0.00278082
0.00278451
0.0027883
0.00279221
0.00279624
0.00280041
0.00280473
0.0028092
0.00281385
0.00281868
0.00282368
0.00282888
0.00283427
0.00283987
0.00284567
0.00285165
0.00285796
0.00286486
0.00287287
0.0028828
0.00289575
0.00291361
0.00293674
0.00296048
0.00296151
8.40606e-06
2.09443e-05
6.07427e-05
0.000112794
0.000202097
0.000363881
0.000569257
0.000821867
0.00111129
0.00143943
0.00177528
0.0020739
0.0023172
0.00247057
0.00255932
0.00258726
0.00257168
0.00252687
0.00247413
0.00241758
0.0023592
0.00229877
0.00222781
0.00213537
0.00201964
0.00188868
0.00173301
0.0015653
0.0013889
0.00120508
0.00102312
0.00084897
0.000685343
0.000537363
0.000405157
0.000302868
0.000231854
0.000186957
0.000167227
0.000170067
0.000204745
0.000268713
0.000410814
0.000658509
0.000842443
0.000883324
0.000833657
0.000814389
0.000755603
0.000546577
0.000337289
0.000286829
0.000310157
0.000354584
0.000440897
0.000548632
0.000678475
0.000856453
0.00102644
0.00125431
0.00148882
0.00175809
0.00200408
0.0022646
0.00246924
0.0026857
0.00285231
0.00302613
0.00316215
0.00330374
0.0034206
0.00353577
0.00364091
0.00373872
0.00383407
0.00392151
0.00400873
0.00408953
0.00417044
0.00424638
0.00432228
0.00439449
0.00446621
0.00453527
0.00460335
0.00466948
0.00473426
0.00479746
0.00485911
0.00491931
0.00497776
0.0050346
0.00508983
0.00514349
0.00519555
0.00524609
0.005295
0.0053423
0.00538806
0.0054317
0.00547387
0.00551414
0.00555278
0.00558958
0.00562455
0.00565757
0.00568859
0.00571753
0.00574431
0.00576886
0.0057911
0.00581098
0.00582909
0.00584615
0.0058629
0.00587807
0.00589279
0.0059063
0.00591899
0.0059309
0.00594174
0.00595204
0.00596129
0.00597003
0.0059779
0.00598522
0.00599187
0.00599795
0.00600346
0.00600845
0.00601294
0.00601693
0.00602044
0.00602351
0.00602614
0.00602837
0.00603021
0.00603162
0.00603257
0.00603311
0.00603328
0.00603304
0.00603245
0.00603152
0.00603027
0.00602873
0.00602693
0.00602488
0.00602262
0.00602018
0.00601757
0.00601484
0.006012
0.00600909
0.00600612
0.00600311
0.00600011
0.00599711
0.00599415
0.00599124
0.0059884
0.00598566
0.00598303
0.00598053
0.00597817
0.00597597
0.00597393
0.00597206
0.00597038
0.00596895
0.00596785
0.00596738
0.005968
0.00597063
0.00597661
0.00598779
0.00600648
0.00603206
0.00605671
0.00604514
8.54451e-06
2.47256e-05
6.6612e-05
0.00015604
0.000327252
0.00061985
0.00106416
0.00168545
0.00240073
0.00299798
0.00343226
0.00369426
0.00384797
0.00391184
0.00387857
0.00378051
0.00365356
0.00349393
0.00331426
0.00314752
0.0030028
0.00288554
0.00280329
0.00274811
0.00269481
0.00263795
0.00257873
0.00249653
0.00237388
0.00219929
0.00197544
0.00171714
0.00143745
0.00115343
0.00089073
0.000655451
0.000465134
0.000329962
0.000249289
0.000211481
0.000219065
0.000313262
0.000590422
0.00080937
0.000735418
0.000626247
0.00055805
0.00049782
0.000452464
0.000395353
0.000370316
0.000420318
0.000516981
0.000705587
0.000889587
0.00117324
0.00148327
0.00189989
0.00234287
0.00281132
0.00323656
0.00363635
0.00395784
0.00427131
0.00451927
0.00476408
0.00496095
0.00515476
0.00531608
0.00547332
0.00561247
0.00574359
0.00586694
0.00598141
0.0060918
0.00619583
0.00629577
0.00639194
0.00648529
0.00657515
0.00666198
0.00674609
0.00682786
0.00690709
0.00698415
0.0070589
0.00713148
0.0072019
0.00727012
0.00733623
0.00740012
0.00746193
0.00752156
0.00757908
0.00763443
0.00768762
0.00773863
0.00778746
0.0078341
0.00787855
0.00792091
0.00796108
0.00799916
0.00803509
0.00806892
0.00810065
0.00813029
0.00815789
0.0081835
0.0082072
0.00822909
0.00824931
0.00826811
0.0082857
0.00830204
0.00831703
0.00833085
0.00834337
0.00835471
0.00836492
0.00837391
0.00838193
0.00838881
0.00839478
0.00839977
0.00840391
0.0084072
0.00840969
0.00841143
0.00841243
0.00841272
0.00841234
0.00841128
0.00840959
0.00840726
0.00840432
0.00840077
0.0083966
0.00839181
0.00838643
0.00838049
0.00837397
0.00836692
0.00835935
0.00835128
0.00834274
0.00833375
0.00832434
0.00831454
0.00830437
0.00829385
0.00828303
0.00827191
0.00826052
0.00824889
0.00823703
0.00822497
0.00821272
0.0082003
0.00818773
0.00817501
0.00816217
0.00814922
0.00813616
0.00812302
0.00810979
0.00809649
0.00808314
0.00806976
0.00805644
0.00804333
0.0080307
0.00801896
0.00800885
0.00800166
0.00799894
0.00800214
0.00801044
0.00801794
0.00800086
7.10095e-06
2.9681e-05
0.000101419
0.000263277
0.000643476
0.00137963
0.00234246
0.00320569
0.00384607
0.00426337
0.0045017
0.00463583
0.00469547
0.00467988
0.00460197
0.00448822
0.0043386
0.00414313
0.00391638
0.00368377
0.0034664
0.00328136
0.00314486
0.00306146
0.00301676
0.00298723
0.00297961
0.0029894
0.00298114
0.00293047
0.00280726
0.00257297
0.0022662
0.0019058
0.00151551
0.00114826
0.000833625
0.000587497
0.000415032
0.000324769
0.000316732
0.000493383
0.000801044
0.000709573
0.000615196
0.000530123
0.000505834
0.00048577
0.000470081
0.000496516
0.000578979
0.000818434
0.00108354
0.00145548
0.00189292
0.00242913
0.00299733
0.00352465
0.00408114
0.00453198
0.00498071
0.00534358
0.00568133
0.00597236
0.00623099
0.00646412
0.00666947
0.00685859
0.00702854
0.00718558
0.00733195
0.00746864
0.00759595
0.00771622
0.00783052
0.00793904
0.00804298
0.00814249
0.00823811
0.00832994
0.00841839
0.00850362
0.00858582
0.00866508
0.00874152
0.0088152
0.00888617
0.00895449
0.00902017
0.00908326
0.00914375
0.00920172
0.00925714
0.00931006
0.00936049
0.00940846
0.00945399
0.00949712
0.00953788
0.00957634
0.00961252
0.00964648
0.00967826
0.00970791
0.00973547
0.00976102
0.00978461
0.00980629
0.00982615
0.00984427
0.00986073
0.00987555
0.00988897
0.00990101
0.00991166
0.00992097
0.00992897
0.00993568
0.00994116
0.00994546
0.00994858
0.00995062
0.00995159
0.00995159
0.00995062
0.00994877
0.00994606
0.00994253
0.00993823
0.00993318
0.00992741
0.00992093
0.00991377
0.00990593
0.00989743
0.00988829
0.00987849
0.00986804
0.00985695
0.00984524
0.00983291
0.00981997
0.00980644
0.00979232
0.00977763
0.00976238
0.00974659
0.00973028
0.00971345
0.00969612
0.00967831
0.00966004
0.0096413
0.00962212
0.0096025
0.00958245
0.00956198
0.0095411
0.0095198
0.00949809
0.00947597
0.00945345
0.00943052
0.00940718
0.00938343
0.00935927
0.00933471
0.00930974
0.00928439
0.00925873
0.00923288
0.00920712
0.009182
0.00915805
0.00913589
0.00911661
0.00910102
0.00908882
0.00907659
0.00905479
5.80445e-06
4.47681e-05
0.000172267
0.000576989
0.00150122
0.00261007
0.00356111
0.00420575
0.00460925
0.00486908
0.0050389
0.00513518
0.00518042
0.00517838
0.00512004
0.00502272
0.00488383
0.0046978
0.0044801
0.00424097
0.00398948
0.00374108
0.00353205
0.00338321
0.00329352
0.00325306
0.0032467
0.00329321
0.00334829
0.00338007
0.00335965
0.00322481
0.00296214
0.0025941
0.00214809
0.00168086
0.00125325
0.000900157
0.000630434
0.000450972
0.000454685
0.000745795
0.000745695
0.000670426
0.000579888
0.000555466
0.000553017
0.000587835
0.000676061
0.000905838
0.00122713
0.00168817
0.0021913
0.00276181
0.0033539
0.00395699
0.00457432
0.00507588
0.0056034
0.00601917
0.00642684
0.00676171
0.00707452
0.00734503
0.00758758
0.00780743
0.00801
0.00819108
0.00835775
0.00851186
0.0086551
0.00878872
0.00891402
0.0090322
0.00914397
0.00924998
0.00935085
0.00944694
0.00953865
0.00962622
0.00970995
0.00979001
0.00986656
0.00993975
0.0100097
0.0100764
0.0101401
0.0102007
0.0102584
0.0103131
0.010365
0.010414
0.0104602
0.0105038
0.0105447
0.010583
0.0106188
0.0106521
0.0106831
0.0107117
0.0107382
0.0107624
0.0107847
0.0108049
0.0108231
0.0108395
0.0108541
0.010867
0.0108782
0.0108878
0.0108957
0.0109021
0.0109073
0.0109113
0.0109142
0.0109158
0.0109164
0.0109158
0.0109142
0.0109116
0.010908
0.0109035
0.010898
0.0108918
0.0108847
0.0108768
0.0108682
0.0108589
0.0108489
0.0108383
0.010827
0.0108151
0.0108026
0.0107896
0.0107759
0.0107616
0.0107467
0.0107313
0.0107153
0.0106987
0.0106815
0.0106638
0.0106454
0.0106265
0.0106071
0.010587
0.0105664
0.0105452
0.0105235
0.0105012
0.0104783
0.0104549
0.0104309
0.0104064
0.0103813
0.0103556
0.0103293
0.0103025
0.010275
0.010247
0.0102183
0.010189
0.010159
0.0101284
0.0100972
0.0100652
0.0100326
0.00999926
0.00996524
0.00993055
0.00989526
0.00985949
0.0098234
0.00978717
0.00975143
0.00971694
0.00968404
0.00965313
0.00962221
0.00959685
2.26907e-05
7.97771e-05
0.000359116
0.00125116
0.00248312
0.00355422
0.00426172
0.00471048
0.00501742
0.00523671
0.00539351
0.00549831
0.00554598
0.0055517
0.00551444
0.00543778
0.00531882
0.0051613
0.00497648
0.00476832
0.00454506
0.0043159
0.0040872
0.00388209
0.00372437
0.00362943
0.00360146
0.00363239
0.00371692
0.00378597
0.0038062
0.00372243
0.00350039
0.00313511
0.00264136
0.00209199
0.00156626
0.00111745
0.000743542
0.000562925
0.00064149
0.000812007
0.00073887
0.000676246
0.000644359
0.000686479
0.00079517
0.000989354
0.00133559
0.001827
0.00235927
0.00293877
0.00354141
0.00416449
0.00479128
0.00536798
0.00593433
0.00639502
0.00685701
0.00723727
0.00759151
0.00789991
0.00817926
0.00843551
0.00866167
0.00886807
0.00905642
0.00922803
0.00938648
0.00953306
0.00966932
0.00979644
0.0099155
0.0100274
0.0101327
0.010232
0.0103258
0.0104146
0.0104985
0.010578
0.0106531
0.0107242
0.0107915
0.0108549
0.0109147
0.0109709
0.0110238
0.0110734
0.0111198
0.011163
0.0112031
0.0112401
0.0112742
0.0113054
0.011334
0.01136
0.0113835
0.0114046
0.0114234
0.01144
0.0114545
0.011467
0.0114777
0.0114868
0.0114942
0.0115
0.0115041
0.0115066
0.0115077
0.0115074
0.0115057
0.011503
0.0114992
0.0114945
0.0114887
0.0114821
0.0114746
0.0114662
0.0114571
0.0114471
0.0114365
0.0114251
0.0114131
0.0114005
0.0113873
0.0113735
0.0113591
0.0113442
0.0113288
0.0113129
0.0112966
0.0112797
0.0112625
0.0112447
0.0112266
0.0112079
0.0111889
0.0111694
0.0111494
0.011129
0.0111082
0.0110869
0.0110651
0.0110428
0.01102
0.0109967
0.010973
0.0109486
0.0109238
0.0108984
0.0108724
0.0108458
0.0108186
0.0107908
0.0107623
0.0107332
0.0107033
0.0106728
0.0106415
0.0106095
0.0105766
0.010543
0.0105085
0.0104731
0.0104368
0.0103996
0.0103614
0.0103222
0.010282
0.0102408
0.0101986
0.0101554
0.0101112
0.0100664
0.0100209
0.00997552
0.0099299
0.00988501
0.00983727
0.00980557
3.90285e-05
0.000138341
0.000720376
0.00196714
0.00323561
0.00409562
0.00463984
0.00501304
0.00529728
0.00550526
0.00565005
0.00574138
0.00578701
0.0057936
0.00576593
0.00570546
0.00561135
0.00549088
0.00534798
0.0051854
0.00501092
0.00483232
0.00465677
0.00449384
0.00435574
0.00425294
0.00419392
0.00418124
0.00420265
0.0042186
0.00419606
0.00409148
0.0038678
0.0034985
0.00298698
0.00239405
0.00179038
0.00122965
0.00081149
0.000678536
0.000786153
0.000816123
0.0007799
0.000763662
0.000847248
0.00106417
0.00137817
0.00185285
0.0024167
0.0029681
0.003564
0.0042017
0.00484372
0.00544008
0.00602564
0.00655419
0.00704719
0.00746804
0.00786403
0.0082081
0.0085212
0.00881047
0.00906594
0.00929804
0.00950746
0.00969871
0.00987371
0.0100343
0.0101825
0.0103197
0.010447
0.0105655
0.010676
0.0107792
0.0108758
0.0109661
0.0110505
0.0111295
0.0112034
0.0112723
0.0113365
0.0113963
0.0114518
0.0115033
0.0115507
0.0115939
0.0116336
0.0116698
0.0117027
0.0117324
0.0117592
0.0117836
0.0118055
0.0118242
0.01184
0.011853
0.0118633
0.0118712
0.0118766
0.0118798
0.0118809
0.0118799
0.0118773
0.011873
0.0118672
0.01186
0.0118518
0.0118425
0.0118322
0.0118211
0.0118093
0.0117968
0.0117835
0.0117695
0.0117549
0.0117397
0.011724
0.0117077
0.011691
0.0116739
0.0116564
0.0116385
0.0116203
0.0116017
0.0115829
0.0115637
0.0115442
0.0115244
0.0115043
0.011484
0.0114633
0.0114425
0.0114213
0.0113999
0.0113783
0.0113564
0.0113342
0.0113118
0.0112891
0.0112662
0.0112429
0.0112194
0.0111955
0.0111713
0.0111468
0.0111219
0.0110965
0.0110708
0.0110446
0.0110179
0.0109906
0.0109629
0.0109345
0.0109056
0.0108759
0.0108456
0.0108146
0.0107828
0.0107502
0.0107167
0.0106824
0.0106471
0.0106109
0.0105736
0.0105353
0.0104959
0.0104553
0.0104135
0.0103705
0.0103262
0.0102807
0.0102338
0.0101856
0.0101362
0.0100855
0.0100341
0.00998106
0.00992839
0.00986793
0.00983181
4.8429e-05
0.000217376
0.0011198
0.00256314
0.00367796
0.00437347
0.00485869
0.00520687
0.00544714
0.0056221
0.00574919
0.00583549
0.00588454
0.00590036
0.00588632
0.00584606
0.00578243
0.00569883
0.00559867
0.00548549
0.00536049
0.00522927
0.00510118
0.00498273
0.00487642
0.00478703
0.00471889
0.0046727
0.0046396
0.00460016
0.00452763
0.00438486
0.0041275
0.00371412
0.00314886
0.00249815
0.00184862
0.00123768
0.000862763
0.000766881
0.000848269
0.000868214
0.000878712
0.000965014
0.0012814
0.00175808
0.00227306
0.00284456
0.00346939
0.00405522
0.00468936
0.00534791
0.00595975
0.00650465
0.00703258
0.0075091
0.00794124
0.00832052
0.00866564
0.00898323
0.00927293
0.00953196
0.00976591
0.00997841
0.0101719
0.0103488
0.010511
0.0106601
0.0107976
0.0109246
0.0110421
0.0111509
0.0112517
0.011345
0.0114314
0.0115112
0.0115848
0.0116525
0.0117146
0.0117713
0.0118228
0.0118692
0.0119113
0.0119493
0.0119838
0.0120158
0.0120435
0.0120672
0.012087
0.012103
0.0121152
0.0121233
0.0121277
0.0121293
0.0121283
0.0121247
0.0121188
0.0121107
0.0121008
0.0120891
0.0120758
0.0120613
0.0120453
0.0120282
0.01201
0.011991
0.0119712
0.0119507
0.0119298
0.0119083
0.0118864
0.0118642
0.0118416
0.0118187
0.0117955
0.0117722
0.0117487
0.0117252
0.0117015
0.0116778
0.0116541
0.0116305
0.0116068
0.0115832
0.0115595
0.0115359
0.0115122
0.0114885
0.0114647
0.0114409
0.0114171
0.0113932
0.0113692
0.0113452
0.0113211
0.011297
0.0112728
0.0112486
0.0112243
0.0111999
0.0111754
0.0111508
0.0111261
0.0111012
0.0110762
0.0110509
0.0110254
0.0109996
0.0109734
0.0109469
0.01092
0.0108927
0.0108648
0.0108364
0.0108074
0.0107777
0.0107474
0.0107163
0.0106844
0.0106517
0.0106181
0.0105835
0.0105479
0.0105113
0.0104735
0.0104345
0.0103943
0.0103527
0.0103098
0.0102655
0.0102197
0.0101724
0.0101235
0.0100732
0.0100211
0.00996793
0.00991186
0.00985704
0.00978886
0.00975163
5.24502e-05
0.000319747
0.00149528
0.00291663
0.00386642
0.00450246
0.00492271
0.00521976
0.00545086
0.00563032
0.00576379
0.00585536
0.00591011
0.00593436
0.00593215
0.00590965
0.00586918
0.00581442
0.00574964
0.00567687
0.00559745
0.00551235
0.00542274
0.00533466
0.00525357
0.00518013
0.00511247
0.00504681
0.00497327
0.00487398
0.00472338
0.00449171
0.00415791
0.00370908
0.00314195
0.00248932
0.0018068
0.00117889
0.000904119
0.000831486
0.000897426
0.000977761
0.00105383
0.00135605
0.00193457
0.00254382
0.00313034
0.00376963
0.0044279
0.00503529
0.00567013
0.00630153
0.00686394
0.0073629
0.00783682
0.00826621
0.00864497
0.00898883
0.00931046
0.00960151
0.00986384
0.0101006
0.0103159
0.0105119
0.010691
0.0108548
0.0110051
0.0111431
0.0112699
0.0113865
0.0114937
0.0115922
0.0116824
0.0117649
0.01184
0.0119081
0.0119695
0.0120244
0.012073
0.0121164
0.0121554
0.012191
0.0122211
0.0122459
0.0122656
0.0122794
0.0122883
0.0122933
0.0122945
0.0122921
0.0122864
0.0122777
0.0122662
0.0122519
0.0122351
0.012216
0.0121948
0.0121718
0.0121471
0.0121209
0.0120936
0.0120653
0.012036
0.0120061
0.0119757
0.0119448
0.0119137
0.0118825
0.0118512
0.0118199
0.0117886
0.0117574
0.0117263
0.0116954
0.0116647
0.0116342
0.011604
0.0115742
0.0115447
0.0115155
0.0114868
0.0114584
0.0114305
0.0114029
0.0113756
0.0113487
0.011322
0.0112955
0.0112693
0.0112432
0.0112172
0.0111914
0.0111657
0.0111402
0.0111148
0.0110896
0.0110644
0.0110394
0.0110145
0.0109897
0.010965
0.0109403
0.0109157
0.0108912
0.0108666
0.010842
0.0108172
0.0107924
0.0107674
0.0107422
0.0107167
0.0106909
0.0106646
0.010638
0.0106109
0.0105832
0.0105549
0.0105259
0.0104962
0.0104657
0.0104343
0.0104021
0.0103688
0.0103345
0.0102991
0.0102626
0.0102247
0.0101855
0.0101448
0.0101027
0.0100591
0.0100138
0.00996682
0.00991831
0.00986751
0.00981588
0.00975998
0.00970719
0.00963593
0.00960063
5.3664e-05
0.000420643
0.00173322
0.00306201
0.00391134
0.0044426
0.0048335
0.0051398
0.00537885
0.00556053
0.00569508
0.00578984
0.00585092
0.00588631
0.00589897
0.00589298
0.00587378
0.00584294
0.00580341
0.00575694
0.00570551
0.00565212
0.00559524
0.00553227
0.00546201
0.00538588
0.00530303
0.00520688
0.00508735
0.00493169
0.00472815
0.00446129
0.004098
0.00361884
0.00302936
0.00236279
0.00164689
0.00113005
0.000930682
0.000873705
0.000995079
0.00116245
0.00134731
0.00188181
0.00261665
0.00328878
0.00391413
0.00459179
0.0052624
0.00587338
0.00647941
0.00706297
0.00758007
0.00804042
0.00846925
0.00885074
0.00919697
0.00952172
0.00981663
0.0100831
0.0103244
0.0105435
0.0107431
0.0109252
0.0110915
0.0112436
0.0113828
0.0115099
0.011626
0.0117319
0.011828
0.0119151
0.0119934
0.0120635
0.0121258
0.0121801
0.0122277
0.01227
0.012308
0.0123391
0.012363
0.0123794
0.012389
0.0123929
0.0123918
0.0123862
0.012377
0.0123639
0.0123473
0.0123274
0.0123045
0.0122789
0.0122508
0.0122203
0.0121877
0.0121531
0.0121167
0.0120788
0.0120396
0.0119994
0.0119583
0.0119167
0.0118748
0.0118328
0.0117908
0.0117491
0.0117077
0.0116667
0.0116263
0.0115864
0.0115472
0.0115085
0.0114704
0.011433
0.0113963
0.0113602
0.011325
0.0112904
0.0112567
0.0112237
0.0111914
0.0111599
0.0111292
0.0110992
0.0110699
0.0110411
0.0110129
0.0109851
0.0109577
0.0109307
0.010904
0.0108776
0.0108515
0.0108257
0.0108002
0.0107749
0.0107499
0.0107252
0.0107007
0.0106765
0.0106525
0.0106287
0.0106051
0.0105816
0.0105583
0.0105352
0.010512
0.0104889
0.0104658
0.0104426
0.0104192
0.0103957
0.0103719
0.0103478
0.0103233
0.0102984
0.0102729
0.0102469
0.0102202
0.0101928
0.0101647
0.0101357
0.0101059
0.0100751
0.0100432
0.0100102
0.00997594
0.00994039
0.00990344
0.00986502
0.00982502
0.00978344
0.00974
0.00969513
0.00964755
0.00959962
0.00954606
0.00949817
0.00942701
0.00939608
5.33896e-05
0.000490536
0.00185399
0.00309036
0.00380822
0.00430572
0.0046926
0.00499963
0.00524047
0.00542335
0.00555982
0.00565796
0.00572455
0.00576813
0.00579215
0.00579969
0.00579346
0.00577508
0.00574768
0.00571382
0.00567533
0.00563221
0.00558379
0.00552877
0.00546693
0.00539147
0.00530273
0.00519722
0.00506279
0.00488528
0.0046493
0.00433426
0.00391952
0.00339833
0.00276749
0.00205052
0.00140074
0.00109418
0.000951455
0.000960767
0.00117181
0.0013876
0.00170991
0.00247617
0.0032769
0.00396399
0.00460792
0.00529471
0.00595894
0.00655701
0.00712432
0.00765907
0.00813721
0.00856476
0.00895061
0.00930141
0.00963008
0.0099307
0.0102033
0.0104507
0.0106756
0.0108803
0.011067
0.0112372
0.0113923
0.0115334
0.0116614
0.0117771
0.0118812
0.0119744
0.0120573
0.0121302
0.0121931
0.0122476
0.0122952
0.0123381
0.0123737
0.0124007
0.0124184
0.0124276
0.0124278
0.0124204
0.0124078
0.0123902
0.012368
0.0123418
0.0123121
0.0122791
0.0122432
0.0122048
0.0121642
0.0121216
0.0120773
0.0120313
0.0119839
0.0119351
0.011885
0.0118339
0.0117819
0.0117293
0.0116762
0.011623
0.0115701
0.0115178
0.0114662
0.0114155
0.0113658
0.0113173
0.0112699
0.0112237
0.0111787
0.0111349
0.0110923
0.0110508
0.0110104
0.0109712
0.0109332
0.0108963
0.0108606
0.0108259
0.0107924
0.0107599
0.0107284
0.010698
0.0106685
0.0106398
0.0106118
0.0105844
0.0105576
0.0105313
0.0105055
0.01048
0.010455
0.0104303
0.010406
0.0103821
0.0103585
0.0103353
0.0103123
0.0102897
0.0102675
0.0102455
0.0102238
0.0102024
0.0101811
0.0101601
0.0101393
0.0101186
0.0100979
0.0100773
0.0100567
0.0100359
0.010015
0.00999392
0.00997253
0.00995079
0.00992863
0.00990599
0.0098828
0.00985899
0.00983452
0.00980932
0.00978334
0.00975648
0.00972867
0.00969982
0.00966986
0.00963864
0.00960608
0.00957212
0.00953661
0.00949961
0.00946064
0.00942049
0.00937722
0.00933441
0.00928429
0.00924264
0.00917447
0.0091491
5.1495e-05
0.000534768
0.00190512
0.00299659
0.00360406
0.00407561
0.00446285
0.00477598
0.00502049
0.00520464
0.00534142
0.00543831
0.00550547
0.0055525
0.00558098
0.00559359
0.00559285
0.00558253
0.00556445
0.0055406
0.00551271
0.00548058
0.00544348
0.00540069
0.0053507
0.00528421
0.00519466
0.00508225
0.00492843
0.00471723
0.00443256
0.00404918
0.00356559