/*--------------------------------*- C++ -*----------------------------------*\
| =========                 |                                                 |
| \\      /  F ield         | OpenFOAM: The Open Source CFD Toolbox           |
|  \\    /   O peration     | Version:  2112                                  |
|   \\  /    A nd           | Website:  www.openfoam.com                      |
|    \\/     M anipulation  |                                                 |
\*---------------------------------------------------------------------------*/
FoamFile
{
    version     2.0;
    format      ascii;
    arch        "LSB;label=32;scalar=64";
    class       volScalarField;
    location    "0.08";
    object      p;
}
// * * * * * * * * * * * * * * * * * * * * * * * * * * * * * * * * * * * * * //

dimensions      [0 2 -2 0 0 0 0];

internalField   nonuniform List<scalar> 
12225
(
0.866492
-0.0152944
-0.455123
-0.710539
-0.99441
-1.2735
-1.49009
-1.64348
-1.76081
-1.88236
-2.02074
-2.17626
-2.34257
-2.50818
-2.66434
-2.77449
-2.8874
-2.34174
0.564111
-0.0320794
-0.382689
-0.58701
-0.809254
-1.03005
-1.20334
-1.33355
-1.45439
-1.58514
-1.73671
-1.90738
-2.08853
-2.268
-2.43934
-2.58385
-2.7556
-3.00679
0.318342
-0.0525213
-0.396202
-0.631909
-0.866657
-1.09856
-1.29038
-1.44104
-1.57208
-1.69902
-1.83472
-1.98169
-2.13577
-2.28958
-2.43975
-2.58052
-2.76885
-3.0787
0.113709
-0.122455
-0.4435
-0.676227
-0.89421
-1.10897
-1.29163
-1.43907
-1.56912
-1.69776
-1.83634
-1.98699
-2.1459
-2.30686
-2.46786
-2.63081
-2.83469
-3.12275
-0.0732652
-0.235433
-0.511047
-0.724845
-0.925412
-1.12549
-1.30178
-1.45029
-1.58513
-1.71924
-1.86088
-2.01187
-2.16971
-2.33063
-2.49487
-2.6674
-2.87335
-3.13689
-0.228924
-0.351988
-0.590622
-0.787817
-0.973965
-1.16099
-1.33047
-1.47856
-1.61593
-1.75209
-1.89348
-2.0422
-2.19717
-2.35661
-2.52178
-2.69761
-2.89989
-3.14084
-0.365765
-0.449733
-0.665096
-0.855152
-1.03168
-1.20763
-1.36932
-1.51511
-1.65334
-1.79068
-1.93218
-2.0799
-2.23355
-2.39244
-2.55799
-2.73423
-2.9308
-3.15251
-0.493303
-0.539851
-0.727985
-0.911345
-1.08427
-1.25422
-1.41143
-1.55695
-1.69613
-1.83474
-1.97685
-2.12425
-2.27707
-2.43522
-2.59993
-2.77411
-2.96279
-3.16581
-0.611903
-0.632812
-0.789666
-0.95886
-1.12478
-1.2898
-1.44655
-1.59429
-1.73532
-1.87589
-2.01889
-2.16592
-2.31745
-2.47371
-2.63547
-2.80428
-2.98179
-3.16604
-0.721426
-0.726454
-0.856062
-1.00791
-1.16158
-1.31809
-1.47105
-1.61731
-1.75944
-1.90144
-2.0448
-2.19066
-2.33962
-2.49203
-2.64836
-2.80911
-2.97473
-3.14263
-0.822495
-0.81872
-0.924855
-1.0603
-1.202
-1.3481
-1.49303
-1.63424
-1.77451
-1.91518
-2.05699
-2.20063
-2.34643
-2.49452
-2.64508
-2.79819
-2.95386
-3.10891
-0.905883
-0.902049
-0.988482
-1.10931
-1.24119
-1.37871
-1.5166
-1.65287
-1.78928
-1.92678
-2.06585
-2.20672
-2.34935
-2.49358
-2.63928
-2.78612
-2.93338
-3.07774
-0.97671
-0.97912
-1.05025
-1.15721
-1.27993
-1.4099
-1.54175
-1.67355
-1.80607
-1.94004
-2.07572
-2.21307
-2.3518
-2.49154
-2.63185
-2.77203
-2.91093
-3.04552
-1.04789
-1.05501
-1.11648
-1.21019
-1.32303
-1.44502
-1.57043
-1.69725
-1.82549
-1.95537
-2.08681
-2.21955
-2.35317
-2.48713
-2.62073
-2.75309
-2.88294
-3.00771
-1.12025
-1.1281
-1.18194
-1.26553
-1.36879
-1.48278
-1.60142
-1.72262
-1.84593
-1.97102
-2.09744
-2.22472
-2.35229
-2.47947
-2.60546
-2.7293
-2.84981
-2.96496
-1.18903
-1.19674
-1.24247
-1.31804
-1.41299
-1.5199
-1.6321
-1.74738
-1.86514
-1.98474
-2.10543
-2.22652
-2.3473
-2.46702
-2.58486
-2.69992
-2.81121
-2.91721
-1.24729
-1.25497
-1.29366
-1.36148
-1.44972
-1.5508
-1.65748
-1.76713
-1.87916
-1.99285
-2.10729
-2.22165
-2.33519
-2.44714
-2.55675
-2.66323
-2.76585
-2.86355
-1.28444
-1.292
-1.32671
-1.38843
-1.47126
-1.56765
-1.67008
-1.77504
-1.88179
-1.98973
-2.09793
-2.20555
-2.31188
-2.41626
-2.51803
-2.61659
-2.7114
-2.80178
-1.28388
-1.29131
-1.3249
-1.3847
-1.46529
-1.55923
-1.65905
-1.76079
-1.86356
-1.96675
-2.06951
-2.17112
-2.27101
-2.36869
-2.4637
-2.55562
-2.64411
-2.72879
-1.23369
-1.24134
-1.27811
-1.34236
-1.42607
-1.52183
-1.62236
-1.72415
-1.82609
-1.92737
-2.02726
-2.12531
-2.22126
-2.31477
-2.40551
-2.49323
-2.57772
-2.65876
-1.16129
-1.16914
-1.21203
-1.2832
-1.37235
-1.47237
-1.57628
-1.68089
-1.78475
-1.88673
-1.9861
-2.08275
-2.17698
-2.26858
-2.35724
-2.44285
-2.52537
-2.60469
-1.07096
-1.07878
-1.12955
-1.21014
-1.30825
-1.41558
-1.52604
-1.63635
-1.74485
-1.85
-1.95085
-2.04735
-2.14015
-2.22977
-2.31618
-2.39947
-2.47982
-2.5573
-0.965679
-0.97111
-1.03479
-1.13166
-1.24245
-1.36012
-1.47936
-1.59573
-1.7074
-1.81371
-1.91388
-2.00858
-2.09878
-2.18501
-2.26733
-2.34646
-2.42296
-2.49707
-0.841428
-0.84946
-0.937903
-1.05403
-1.17525
-1.30102
-1.42709
-1.54818
-1.66176
-1.76728
-1.86482
-1.95577
-2.04156
-2.12302
-2.20109
-2.27686
-2.35106
-2.4241
-0.698651
-0.722122
-0.838639
-0.968087
-1.09493
-1.2272
-1.36041
-1.48782
-1.6062
-1.71429
-1.81236
-1.90191
-1.9851
-2.06349
-2.13853
-2.2116
-2.28361
-2.35465
-0.54024
-0.581766
-0.728366
-0.871236
-1.00568
-1.14877
-1.29369
-1.43065
-1.55602
-1.66873
-1.76913
-1.85905
-1.94141
-2.019
-2.09415
-2.1687
-2.2439
-2.32115
-0.353738
-0.429243
-0.620598
-0.782388
-0.930963
-1.09038
-1.24983
-1.39677
-1.52741
-1.64105
-1.73821
-1.82129
-1.89424
-1.96102
-2.02553
-2.09136
-2.16034
-2.23207
-0.134308
-0.31694
-0.544402
-0.709345
-0.871942
-1.05315
-1.23346
-1.39867
-1.54556
-1.6734
-1.78238
-1.87513
-1.95599
-2.02789
-2.0942
-2.15929
-2.22705
-2.30219
0.137423
-0.275282
-0.532454
-0.666124
-0.812955
-0.986981
-1.15713
-1.30794
-1.43711
-1.54425
-1.63031
-1.70008
-1.76224
-1.82253
-1.88412
-1.95081
-2.02428
-2.10442
0.48278
-0.198058
-0.538405
-0.69938
-0.885177
-1.10657
-1.32391
-1.51934
-1.68934
-1.83186
-1.94632
-2.03609
-2.1063
-2.16653
-2.22592
-2.28744
-2.35337
-2.41765
-4.68252
-4.63629
-4.62755
-4.6291
-4.63034
-4.63475
-4.64863
-4.67128
-4.69819
-4.72765
-4.75922
-4.79195
-4.82447
-4.85531
-4.88305
-4.90633
-4.92384
-4.9343
-4.93823
-4.93643
-4.92906
-4.91597
-4.89741
-4.87405
-4.84671
-4.815
-4.77805
-4.73797
-4.69859
-4.66206
-4.62926
-4.60112
-4.57893
-4.56422
-4.55819
-4.56073
-4.56978
-4.58217
-4.59594
-4.6113
-4.62955
-4.6522
-4.68076
-4.71675
-4.76175
-4.81735
-4.88518
-4.96689
-5.06421
-5.17893
-5.31293
-5.46819
-5.64711
-5.85245
-6.08487
-6.33887
-6.60914
-6.89778
-7.20798
-7.53958
-7.89089
-8.25984
-8.64406
-9.04086
-9.44732
-9.86041
-10.277
-10.6942
-11.109
-11.5186
-11.9205
-12.3123
-12.6919
-13.0574
-13.4069
-13.7388
-14.0516
-14.3438
-14.6138
-14.8603
-15.0817
-15.2766
-15.4434
-15.5808
-15.6874
-15.7617
-15.8024
-15.8082
-15.7777
-15.7096
-15.6029
-15.4565
-15.2692
-15.0401
-14.7696
-14.4604
-14.109
-13.709
-13.2591
-12.7614
-12.2158
-11.6217
-10.9784
-10.2849
-9.54034
-8.74355
-7.89326
-6.98825
-6.0275
-5.0105
-3.93723
-2.80792
-1.62299
-0.383157
0.910284
2.25495
3.64668
5.07866
6.54128
8.02428
9.5161
11.0029
12.4678
13.8895
15.2412
16.5005
17.6524
18.6915
19.5997
20.3877
21.0981
21.6931
22.1353
22.4358
22.6011
22.6368
22.5566
22.374
22.099
21.7454
21.3299
20.8658
20.3614
19.8239
19.2611
18.6823
18.0968
17.5109
16.9297
16.358
15.8007
15.2621
14.7454
14.254
13.7912
13.3602
12.9642
12.6059
12.2911
12.0155
11.7838
11.5937
11.4491
11.3503
11.2964
11.2863
11.3183
11.3903
11.5002
11.645
11.8217
12.0268
12.2571
12.5093
12.7808
13.0699
13.3797
13.7087
14.116
14.4895
-4.75331
-4.702
-4.69826
-4.70756
-4.71965
-4.73728
-4.76066
-4.7868
-4.81372
-4.84078
-4.86743
-4.89287
-4.91609
-4.93606
-4.95183
-4.96261
-4.9679
-4.96756
-4.96032
-4.9455
-4.92339
-4.89502
-4.86163
-4.82468
-4.78605
-4.74804
-4.71169
-4.6761
-4.64095
-4.6071
-4.57536
-4.54657
-4.52208
-4.50393
-4.49421
-4.49344
-4.49916
-4.50736
-4.51562
-4.52405
-4.53427
-4.54822
-4.56774
-4.59443
-4.62973
-4.67501
-4.73167
-4.80117
-4.88504
-4.98483
-5.10205
-5.23805
-5.39395
-5.57016
-5.7665
-5.98617
-6.23458
-6.51266
-6.81791
-7.14811
-7.50129
-7.87515
-8.26689
-8.67336
-9.09118
-9.51687
-9.94693
-10.3779
-10.8066
-11.23
-11.6452
-12.0498
-12.4415
-12.8182
-13.1783
-13.5199
-13.8416
-14.142
-14.4197
-14.6734
-14.902
-15.104
-15.2782
-15.4232
-15.5377
-15.6202
-15.6694
-15.6841
-15.6628
-15.6043
-15.5074
-15.371
-15.1939
-14.9742
-14.7086
-14.4007
-14.0492
-13.6557
-13.2185
-12.7343
-12.2023
-11.6224
-10.9941
-10.3168
-9.58936
-8.81089
-7.98022
-7.09611
-6.1574
-5.16351
-4.11464
-3.01108
-1.85316
-0.641599
0.622238
1.93607
3.29619
4.69632
6.12584
7.57478
9.03298
10.4879
11.9253
13.3279
14.6735
15.9426
17.1258
18.2136
19.1806
20.004
20.6669
21.1964
21.6143
21.9205
22.1029
22.1625
22.1109
21.9616
21.7236
21.4076
21.0298
20.6033
20.1387
19.6439
19.1239
18.5856
18.0377
17.4862
16.9344
16.387
15.8498
15.3274
14.8235
14.3419
13.8868
13.4619
13.0704
12.7154
12.3971
12.1152
11.878
11.6885
11.5458
11.4497
11.3997
11.3941
11.4307
11.507
11.6202
11.7673
11.9451
12.1502
12.3792
12.6292
12.8976
13.1827
13.4883
13.8086
14.2032
14.512
-4.77985
-4.71642
-4.71154
-4.7225
-4.73552
-4.7529
-4.77598
-4.80329
-4.833
-4.86366
-4.89401
-4.92286
-4.94908
-4.97163
-4.98962
-5.00228
-5.00905
-5.00957
-5.00352
-4.99076
-4.97149
-4.94619
-4.91554
-4.8804
-4.84186
-4.80112
-4.75915
-4.71674
-4.67494
-4.635
-4.59811
-4.56558
-4.53921
-4.52114
-4.51277
-4.51324
-4.51908
-4.5265
-4.53394
-4.54209
-4.55259
-4.56725
-4.58779
-4.6158
-4.65276
-4.70015
-4.75948
-4.83231
-4.92029
-5.02513
-5.14852
-5.2921
-5.45737
-5.64543
-5.85679
-6.09244
-6.3542
-6.64279
-6.95736
-7.29637
-7.65776
-8.03894
-8.43691
-8.84835
-9.26979
-9.6977
-10.1286
-10.5592
-10.9863
-11.4071
-11.8191
-12.2199
-12.6074
-12.9799
-13.3356
-13.6732
-13.9912
-14.2883
-14.563
-14.8143
-15.0406
-15.2406
-15.413
-15.5563
-15.6689
-15.7495
-15.7969
-15.8096
-15.7865
-15.7263
-15.6277
-15.4897
-15.3114
-15.0936
-14.8339
-14.5273
-14.1761
-13.7814
-13.3428
-12.8584
-12.3273
-11.749
-11.1232
-10.4492
-9.72599
-8.95251
-8.1277
-7.25031
-6.31904
-5.33321
-4.29374
-3.20062
-2.05305
-0.851281
0.403445
1.70911
3.06287
4.45994
5.8888
7.33757
8.79781
10.2573
11.7022
13.1153
14.4795
15.7761
16.99
18.103
19.0897
19.9187
20.5875
21.1098
21.5117
21.7989
21.9651
22.0126
21.9507
21.7908
21.5465
21.2294
20.8515
20.4228
19.955
19.4609
18.947
18.4173
17.8799
17.3415
16.8043
16.2717
15.7494
15.2416
14.7516
14.2829
13.8395
13.4249
13.0422
12.6937
12.3803
12.1094
11.8779
11.6901
11.5466
11.4482
11.3953
11.3871
11.4222
11.4984
11.6128
11.762
11.9424
12.1503
12.3819
12.6339
12.9035
13.1882
13.4901
13.7995
14.1579
14.3939
-4.82874
-4.76302
-4.75916
-4.77387
-4.79054
-4.81076
-4.83567
-4.86415
-4.89464
-4.92578
-4.95629
-4.985
-5.01081
-5.03274
-5.04992
-5.06165
-5.06737
-5.0667
-5.0594
-5.0454
-5.02485
-4.9981
-4.96573
-4.92846
-4.88721
-4.84301
-4.79701
-4.75039
-4.70446
-4.66056
-4.62014
-4.5849
-4.55698
-4.53841
-4.52978
-4.52934
-4.53275
-4.53741
-4.54264
-4.54934
-4.55904
-4.57339
-4.59402
-4.62249
-4.66034
-4.70913
-4.77051
-4.84618
-4.93797
-5.04775
-5.17739
-5.3287
-5.50335
-5.70269
-5.92765
-6.17884
-6.4566
-6.76072
-7.09016
-7.44315
-7.81729
-8.20964
-8.61691
-9.03558
-9.46207
-9.89281
-10.3244
-10.7537
-11.1778
-11.594
-12.0001
-12.394
-12.774
-13.1385
-13.486
-13.8153
-14.1252
-14.4144
-14.6818
-14.9261
-15.1461
-15.3407
-15.5085
-15.648
-15.7579
-15.8368
-15.8834
-15.8964
-15.8744
-15.8161
-15.7201
-15.5849
-15.4092
-15.1921
-14.936
-14.6363
-14.2926
-13.9046
-13.4717
-12.9926
-12.4663
-11.893
-11.273
-10.6054
-9.88883
-9.12231
-8.30461
-7.43419
-6.50929
-5.52852
-4.4939
-3.40638
-2.26382
-1.06611
0.185721
1.48974
2.84293
4.23935
5.67181
7.13015
8.60339
10.0773
11.5358
12.9595
14.3334
15.6413
16.8627
17.9782
18.9656
19.8011
20.4827
21.0198
21.4294
21.7178
21.8843
21.9322
21.8685
21.7022
21.449
21.1252
20.7409
20.3048
19.8277
19.3206
18.7948
18.2572
17.7145
17.1748
16.6419
16.1169
15.6044
15.1066
14.6265
14.1682
13.7354
13.3313
12.9591
12.6217
12.3211
12.06
11.8385
11.6587
11.5211
11.426
11.3734
11.3634
11.3952
11.4678
11.5789
11.7258
11.905
12.1127
12.3448
12.5972
12.8666
13.1492
13.4449
13.7404
14.0618
14.252
-4.87266
-4.81608
-4.81328
-4.82915
-4.84782
-4.86993
-4.89618
-4.9255
-4.95648
-4.98782
-5.01832
-5.04681
-5.07225
-5.09368
-5.11026
-5.12131
-5.12627
-5.12475
-5.11653
-5.10147
-5.07969
-5.05149
-5.01739
-4.97805
-4.93436
-4.88736
-4.83826
-4.78836
-4.73909
-4.69196
-4.64873
-4.61146
-4.58238
-4.56303
-4.55287
-4.54918
-4.54874
-4.54979
-4.5522
-4.55692
-4.56533
-4.57895
-4.59935
-4.62809
-4.66678
-4.71712
-4.78091
-4.86007
-4.95663
-5.07264
-5.21017
-5.37114
-5.55723
-5.76976
-6.00958
-6.27703
-6.57189
-6.8932
-7.23925
-7.60764
-7.99541
-8.39917
-8.81528
-9.24
-9.66966
-10.1008
-10.5301
-10.9548
-11.3723
-11.7804
-12.1772
-12.5612
-12.931
-13.2854
-13.6234
-13.9438
-14.2457
-14.5282
-14.7901
-15.0301
-15.2471
-15.44
-15.6072
-15.7472
-15.8584
-15.9392
-15.9884
-16.0046
-15.9864
-15.9324
-15.841
-15.7105
-15.5393
-15.327
-15.0738
-14.7784
-14.4397
-14.0567
-13.6286
-13.1536
-12.6303
-12.0602
-11.4447
-10.7825
-10.0718
-9.31145
-8.50036
-7.6372
-6.72062
-5.74981
-4.72387
-3.64216
-2.504
-1.30994
-0.061171
1.24006
2.58953
3.98007
5.40813
6.86721
8.34325
9.82169
11.2861
12.7174
14.0973
15.4096
16.6343
17.7507
18.7378
19.5782
20.268
20.8144
21.2301
21.5223
21.6936
21.7481
21.693
21.5371
21.2932
20.9769
20.5992
20.1699
19.6982
19.1916
18.6625
18.1224
17.577
17.031
16.4918
15.9647
15.4542
14.9598
14.4825
14.0278
13.6
13.202
12.8365
12.5059
12.2122
11.9588
11.7456
11.5743
11.4453
11.3586
11.314
11.3109
11.3479
11.4235
11.5356
11.6821
11.8602
12.0666
12.2978
12.5495
12.8176
13.0971
13.3857
13.6676
13.9595
14.1192
-4.90742
-4.86644
-4.86627
-4.88238
-4.90213
-4.92534
-4.95216
-4.98161
-5.01243
-5.04343
-5.0735
-5.10154
-5.12651
-5.14749
-5.16363
-5.17421
-5.17868
-5.17661
-5.16772
-5.1519
-5.12925
-5.10005
-5.06478
-5.0241
-4.97885
-4.93008
-4.87901
-4.82701
-4.77566
-4.7267
-4.68215
-4.64421
-4.61467
-4.59403
-4.58094
-4.57294
-4.56795
-4.56506
-4.56448
-4.56711
-4.5742
-4.58716
-4.60752
-4.63688
-4.67697
-4.72967
-4.79699
-4.88108
-4.98419
-5.10858
-5.25644
-5.42973
-5.63009
-5.8586
-6.11577
-6.40139
-6.71449
-7.05337
-7.41556
-7.79798
-8.19712
-8.6092
-9.03038
-9.4569
-9.88526
-10.3123
-10.7352
-11.1517
-11.5597
-11.9576
-12.3441
-12.7178
-13.078
-13.4236
-13.7538
-14.0677
-14.3646
-14.6433
-14.9028
-15.1416
-15.3586
-15.5526
-15.7219
-15.8647
-15.979
-16.0629
-16.1157
-16.136
-16.1224
-16.0729
-15.9859
-15.8595
-15.6915
-15.4821
-15.2323
-14.9409
-14.6063
-14.2276
-13.8038
-13.3343
-12.8183
-12.2555
-11.6455
-10.9874
-10.2807
-9.52463
-8.71833
-7.86103
-6.95229
-5.992
-4.9766
-3.90348
-2.77368
-1.58787
-0.347097
0.9468
2.29018
3.67689
5.10068
6.55479
8.02698
9.50302
10.9669
12.4004
13.7845
15.1003
16.3271
17.4446
18.4333
19.2779
19.9739
20.5259
20.9442
21.237
21.4094
21.4669
21.4174
21.2706
21.0385
20.7346
20.3703
19.9553
19.4985
19.008
18.4932
17.9644
17.4276
16.8858
16.3468
15.8193
15.308
14.8145
14.3396
13.8872
13.4618
13.0663
12.7031
12.3748
12.0838
11.8333
11.624
11.4574
11.3337
11.253
11.2149
11.2186
11.2626
11.345
11.4636
11.6154
11.7973
12.0059
12.2378
12.4891
12.7557
13.0319
13.3135
13.5832
13.8519
13.99
-4.92115
-4.89986
-4.90419
-4.92056
-4.94094
-4.96468
-4.99156
-5.02073
-5.05115
-5.08178
-5.11156
-5.13943
-5.16435
-5.18536
-5.20157
-5.21225
-5.21676
-5.21464
-5.20561
-5.18954
-5.16652
-5.13684
-5.10097
-5.05959
-5.01357
-4.964
-4.91215
-4.85952
-4.8078
-4.7589
-4.71478
-4.67726
-4.6473
-4.62462
-4.60782
-4.59524
-4.58576
-4.57908
-4.57557
-4.5761
-4.5818
-4.59404
-4.61434
-4.64441
-4.68614
-4.74162
-4.81309
-4.90295
-5.01364
-5.14758
-5.307
-5.49382
-5.70944
-5.95459
-6.22923
-6.53247
-6.86258
-7.21703
-7.59267
-7.98587
-8.39275
-8.80938
-9.23199
-9.65708
-10.0816
-10.5027
-10.9184
-11.3267
-11.7261
-12.1154
-12.4936
-12.8598
-13.2132
-13.553
-13.8787
-14.1892
-14.4838
-14.7616
-15.0213
-15.2609
-15.4795
-15.6761
-15.8489
-15.9954
-16.1133
-16.2002
-16.2563
-16.2812
-16.2723
-16.2276
-16.1456
-16.0247
-15.8638
-15.6619
-15.4179
-15.1309
-14.7999
-14.4244
-14.0039
-13.5386
-13.0291
-12.473
-11.8679
-11.214
-10.5117
-9.76046
-8.95962
-8.10832
-7.20594
-6.25196
-5.2447
-4.18202
-3.06349
-1.88923
-0.660085
0.622494
1.95565
3.33425
4.75183
6.20045
7.66869
9.14261
10.606
12.0403
13.4257
14.7419
15.9682
17.0841
18.0716
18.917
19.6155
20.1703
20.5899
20.8827
21.0557
21.116
21.0721
20.9341
20.7132
20.4218
20.071
19.6705
19.2291
18.7554
18.2577
17.7449
17.2232
16.6968
16.1712
15.6527
15.1453
14.6538
14.1824
13.7345
13.3131
12.9209
12.5606
12.2346
11.9457
11.6965
11.4884
11.3231
11.2013
11.1234
11.089
11.0972
11.1465
11.2348
11.3597
11.5181
11.7064
11.9209
12.1572
12.4112
12.6781
12.9521
13.2279
13.4875
13.7385
13.8626
-4.90682
-4.90801
-4.91911
-4.93632
-4.95728
-4.98135
-5.0081
-5.03692
-5.06702
-5.09747
-5.12727
-5.15535
-5.18066
-5.2022
-5.21904
-5.23035
-5.23547
-5.2339
-5.22532
-5.20962
-5.18689
-5.15744
-5.12175
-5.08056
-5.03481
-4.98564
-4.93444
-4.88278
-4.8324
-4.78505
-4.74235
-4.70544
-4.67462
-4.64938
-4.62875
-4.61187
-4.5983
-4.58809
-4.58172
-4.58003
-4.58412
-4.59533
-4.61529
-4.64584
-4.68907
-4.74728
-4.82298
-4.91876
-5.03725
-5.18092
-5.35197
-5.55213
-5.78245
-6.04317
-6.33362
-6.65221
-6.99649
-7.36329
-7.74895
-8.14953
-8.56104
-8.97966
-9.40187
-9.82454
-10.245
-10.6611
-11.071
-11.4732
-11.8665
-12.2501
-12.623
-12.9847
-13.3344
-13.6714
-13.9951
-14.3046
-14.5989
-14.8774
-15.1387
-15.3799
-15.6008
-15.8015
-15.9793
-16.1316
-16.2562
-16.3513
-16.4152
-16.4462
-16.4427
-16.403
-16.3258
-16.2103
-16.0562
-15.8613
-15.6227
-15.3394
-15.0115
-14.6387
-14.2204
-13.7568
-13.2479
-12.6931
-12.0911
-11.4419
-10.7453
-10.0007
-9.20749
-8.36466
-7.47131
-6.52651
-5.52904
-4.47729
-3.37021
-2.20754
-0.989905
0.281441
1.60401
2.97335
4.38329
5.8256
7.28915
8.75987
10.2208
11.653
13.036
14.3487
15.57
16.6801
17.6621
18.5038
19.2007
19.7552
20.1745
20.4673
20.6418
20.706
20.6692
20.5412
20.3331
20.056
19.7205
19.3362
18.9119
18.4555
17.9752
17.4788
16.9727
16.4619
15.9515
15.447
14.9499
14.465
13.9999
13.5587
13.1432
12.7562
12.4002
12.0779
11.792
11.5449
11.3385
11.1744
11.0538
10.9772
10.9445
10.9551
11.0077
11.1003
11.2303
11.3944
11.5889
11.8097
12.0522
12.3113
12.5815
12.856
13.1286
13.3813
13.6199
13.7373
-4.86143
-4.88838
-4.90836
-4.92678
-4.94822
-4.97252
-4.99917
-5.02779
-5.05782
-5.08842
-5.11858
-5.14726
-5.17338
-5.19588
-5.21378
-5.22622
-5.23247
-5.23202
-5.22455
-5.20992
-5.18826
-5.15989
-5.12537
-5.08549
-5.04126
-4.9939
-4.94482
-4.89555
-4.84764
-4.80252
-4.76131
-4.72459
-4.69241
-4.66442
-4.64015
-4.61934
-4.60195
-4.58828
-4.57887
-4.57456
-4.5765
-4.58609
-4.60508
-4.63548
-4.67962
-4.74004
-4.81944
-4.92062
-5.04628
-5.19892
-5.38059
-5.59274
-5.83599
-6.11005
-6.41365
-6.74457
-7.09981
-7.47578
-7.86854
-8.27407
-8.68847
-9.1081
-9.52976
-9.95065
-10.3685
-10.7813
-11.1878
-11.5865
-11.9766
-12.3574
-12.728
-13.088
-13.4365
-13.7728
-14.0964
-14.4062
-14.7014
-14.9828
-15.2498
-15.4992
-15.7289
-15.9369
-16.1213
-16.2802
-16.412
-16.5155
-16.5869
-16.6235
-16.6245
-16.5888
-16.5151
-16.4023
-16.2496
-16.0556
-15.8186
-15.5378
-15.2128
-14.843
-14.4281
-13.9679
-13.4622
-12.9108
-12.3133
-11.6695
-10.979
-10.2416
-9.4563
-8.62222
-7.73831
-6.80341
-5.81631
-4.77553
-3.67987
-2.5289
-1.32289
-0.0628944
1.24882
2.60833
4.00978
5.44464
6.90163
8.36653
9.822
11.2484
12.6247
13.9291
15.1406
16.2401
17.2119
18.0455
18.7368
19.288
19.7059
19.9988
20.1757
20.2454
20.2172
20.1012
19.9075
19.6467
19.3287
18.9627
18.5571
18.1196
17.6579
17.1792
16.6896
16.195
15.6998
15.2078
14.7215
14.247
13.7917
13.3587
12.9502
12.5691
12.2183
11.9005
11.6183
11.3743
11.1704
11.0084
10.8896
10.8146
10.7835
10.796
10.851
10.9466
11.0804
11.2492
11.4492
11.6759
11.9245
12.1893
12.4643
12.7418
13.0145
13.2644
13.4961
13.6137
-4.78696
-4.84387
-4.87439
-4.89347
-4.91478
-4.93901
-4.96549
-4.99405
-5.02429
-5.05537
-5.08626
-5.11586
-5.14312
-5.16693
-5.1863
-5.20032
-5.20825
-5.20957
-5.20394
-5.19123
-5.17158
-5.14535
-5.11317
-5.07584
-5.0344
-4.99006
-4.94412
-4.89794
-4.85277
-4.80967
-4.76935
-4.73217
-4.69816
-4.66727
-4.63943
-4.61474
-4.59343
-4.57592
-4.56286
-4.55515
-4.554
-4.56098
-4.57797
-4.60722
-4.65125
-4.71281
-4.79482
-4.90017
-5.03163
-5.19162
-5.38201
-5.60392
-5.85755
-6.14212
-6.45585
-6.79607
-7.15942
-7.54208
-7.94002
-8.34926
-8.76603
-9.1869
-9.60891
-10.0295
-10.4466
-10.8586
-11.2641
-11.6621
-12.0518
-12.4325
-12.8035
-13.1641
-13.5134
-13.8507
-14.1767
-14.4925
-14.7971
-15.0879
-15.3634
-15.6224
-15.8612
-16.0762
-16.2662
-16.4298
-16.5653
-16.6709
-16.7445
-16.7839
-16.7879
-16.7551
-16.6843
-16.5744
-16.4243
-16.2326
-15.9984
-15.7209
-15.3995
-15.0337
-14.6231
-14.1676
-13.6668
-13.1204
-12.5284
-11.8905
-11.2065
-10.4761
-9.69852
-8.87287
-7.9981
-7.07301
-6.09627
-5.06647
-3.98238
-2.84337
-1.64918
-0.400637
0.899983
2.24902
3.64079
5.06675
6.51538
7.97198
9.41872
10.8353
12.2001
13.491
14.6875
15.7714
16.7285
17.5499
18.2322
18.7779
19.1931
19.4865
19.6669
19.7435
19.7257
19.6231
19.4455
19.2027
18.9038
18.5577
18.1722
17.7548
17.3127
16.8526
16.3809
15.903
15.4221
14.9419
14.4678
14.0058
13.5609
13.1365
12.7354
12.3607
12.0153
11.7022
11.4241
11.1835
10.9826
10.8232
10.7067
10.634
10.6052
10.62
10.6776
10.7762
10.9135
11.0864
11.2912
11.5232
11.7775
12.0481
12.3284
12.6102
12.8855
13.1364
13.3666
13.4907
-4.69168
-4.78209
-4.82306
-4.8409
-4.86069
-4.88413
-4.91015
-4.9388
-4.96983
-5.00215
-5.03435
-5.06535
-5.09415
-5.11968
-5.14093
-5.157
-5.16716
-5.17089
-5.16783
-5.15788
-5.14119
-5.11813
-5.08928
-5.05546
-5.01763
-4.97687
-4.93432
-4.89108
-4.84812
-4.80621
-4.76587
-4.7274
-4.69099
-4.6568
-4.62505
-4.59603
-4.57014
-4.54793
-4.53016
-4.51785
-4.51235
-4.51539
-4.52905
-4.55577
-4.59828
-4.65953
-4.74255
-4.85035
-4.98568
-5.15084
-5.34751
-5.5765
-5.83766
-6.12981
-6.45082
-6.79773
-7.16698
-7.55465
-7.95674
-8.36932
-8.78874
-9.21173
-9.63546
-10.0575
-10.476
-10.8894
-11.2965
-11.6963
-12.0882
-12.4713
-12.8449
-13.2083
-13.5618
-13.907
-14.2441
-14.5714
-14.8872
-15.1873
-15.4689
-15.7316
-15.9733
-16.1917
-16.3853
-16.5522
-16.6907
-16.7989
-16.875
-16.9173
-16.9245
-16.8952
-16.8282
-16.7223
-16.5761
-16.3886
-16.1588
-15.8858
-15.5691
-15.2082
-14.8027
-14.3522
-13.8567
-13.3158
-12.7295
-12.0977
-11.4202
-10.6968
-9.92686
-9.10953
-8.24383
-7.32851
-6.36202
-5.34297
-4.27024
-3.14292
-1.96054
-0.723667
0.565699
1.90399
3.28543
4.70135
6.1398
7.58548
9.01989
10.4222
11.7703
13.0424
14.2186
15.2821
16.2204
17.0259
17.6965
18.2347
18.6468
18.9408
19.1258
19.2106
19.2046
19.1168
18.9565
18.7326
18.4539
18.1285
17.7638
17.3672
16.9453
16.5045
16.0511
15.5891
15.1218
14.6548
14.1942
13.7445
13.3098
12.8942
12.5006
12.1324
11.7926
11.4842
11.2102
10.9732
10.7754
10.6189
10.5051
10.4349
10.4089
10.4267
10.4874
10.5895
10.7307
10.908
11.1175
11.3549
11.6148
11.8912
12.1772
12.4641
12.7437
12.9987
13.2315
13.3674
-4.59
-4.71363
-4.76166
-4.77496
-4.7912
-4.81299
-4.83868
-4.86832
-4.9015
-4.93632
-4.97065
-5.00347
-5.0341
-5.06161
-5.08503
-5.10346
-5.11626
-5.12287
-5.12295
-5.1164
-5.10332
-5.08404
-5.05908
-5.02913
-4.99503
-4.95768
-4.91802
-4.87692
-4.83513
-4.79327
-4.7518
-4.71107
-4.67141
-4.63315
-4.59664
-4.56233
-4.53075
-4.50257
-4.47871
-4.46033
-4.44897
-4.44654
-4.45532
-4.47794
-4.5173
-4.57651
-4.65871
-4.76694
-4.90391
-5.07183
-5.27217
-5.50549
-5.77137
-6.06839
-6.39418
-6.74564
-7.11912
-7.51072
-7.91646
-8.33246
-8.75514
-9.1813
-9.60818
-10.0335
-10.4553
-10.8721
-11.283
-11.6869
-12.0831
-12.471
-12.8502
-13.2224
-13.5884
-13.9472
-14.2962
-14.6316
-14.9518
-15.2554
-15.5409
-15.807
-16.0517
-16.2733
-16.4702
-16.6406
-16.7826
-16.8944
-16.9743
-17.0208
-17.0323
-17.0076
-16.9455
-16.8445
-16.7034
-16.521
-16.2963
-16.0287
-15.7174
-15.3618
-14.9617
-14.5167
-14.0266
-13.4913
-12.9109
-12.2852
-11.6142
-10.8977
-10.1351
-9.32589
-8.46895
-7.56302
-6.60657
-5.59812
-4.53638
-3.42026
-2.24919
-1.02354
0.254865
1.58244
2.95316
4.35796
5.78427
7.21604
8.63411
10.0172
11.3433
12.5911
13.742
14.7806
15.6963
16.4831
17.1399
17.6695
18.078
18.3731
18.5633
18.6574
18.664
18.5917
18.4492
18.2448
17.9865
17.6819
17.3383
16.9623
16.5605
16.1391
15.7033
15.2564
14.8032
14.3505
13.9032
13.4652
13.0408
12.6339
12.2479
11.8861
11.5517
11.2481
10.978
10.7444
10.5497
10.3961
10.2851
10.2179
10.1949
10.2161
10.2805
10.3868
10.5325
10.7148
10.9297
11.1729
11.4389
11.7215
12.0137
12.3067
12.5921
12.8534
13.092
13.2438
-4.50078
-4.64974
-4.6983
-4.70569
-4.71879
-4.73952
-4.76476
-4.79557
-4.8326
-4.87163
-4.90802
-4.94163
-4.97333
-5.00236
-5.02767
-5.04841
-5.06385
-5.07344
-5.07682
-5.07383
-5.0645
-5.04905
-5.02788
-5.00153
-4.97066
-4.93597
-4.89822
-4.8581
-4.81623
-4.77316
-4.72937
-4.68527
-4.64127
-4.59782
-4.55537
-4.51449
-4.47584
-4.44024
-4.40878
-4.3828
-4.36404
-4.35459
-4.35693
-4.37384
-4.4084
-4.46382
-4.5433
-4.6499
-4.78629
-4.95456
-5.15605
-5.39111
-5.65913
-5.95855
-6.28692
-6.64107
-7.01737
-7.41195
-7.82089
-8.24039
-8.6669
-9.09717
-9.5284
-9.95828
-10.385
-10.8069
-11.2232
-11.6329
-12.0359
-12.4338
-12.8264
-13.213
-13.5918
-13.9595
-14.3136
-14.6533
-14.9775
-15.2851
-15.5746
-15.8445
-16.0931
-16.3186
-16.5195
-16.694
-16.8404
-16.9568
-17.0415
-17.093
-17.1098
-17.0908
-17.0343
-16.939
-16.8035
-16.6267
-16.4077
-16.1457
-15.8399
-15.4898
-15.095
-14.6554
-14.1707
-13.6409
-13.0661
-12.4464
-11.7817
-11.072
-10.3167
-9.51539
-8.66691
-7.77
-6.82313
-5.82471
-4.77328
-3.6676
-2.50699
-1.29175
-0.0236811
1.2934
2.65303
4.04547
5.45734
6.87179
8.26909
9.62782
10.9264
12.1447
13.2654
14.2753
15.1655
15.9315
16.5729
17.0931
17.4978
17.794
17.9899
18.0936
18.113
18.0563
17.9314
17.7461
17.5078
17.2237
16.9005
16.5447
16.1625
15.7597
15.3401
14.9081
14.4699
14.0314
13.597
13.1705
12.7561
12.3578
11.9791
11.6234
11.2943
10.9951
10.7288
10.4985
10.3067
10.1559
10.0477
9.98348
9.96379
9.98863
10.0573
10.1682
10.3192
10.5072
10.7285
10.9783
11.2513
11.5411
11.8405
12.1408
12.4335
12.7032
12.9501
13.1204
-4.44149
-4.59761
-4.641
-4.64483
-4.65464
-4.67442
-4.70264
-4.73847
-4.77962
-4.82077
-4.85746
-4.89035
-4.92171
-4.95129
-4.97784
-5.00033
-5.01799
-5.0302
-5.03654
-5.03674
-5.03073
-5.01859
-5.00057
-4.97703
-4.94845
-4.91538
-4.87838
-4.83802
-4.79486
-4.74939
-4.7021
-4.65347
-4.60396
-4.55409
-4.50444
-4.45568
-4.40862
-4.36424
-4.32381
-4.28889
-4.26138
-4.24358
-4.23812
-4.24794
-4.27624
-4.3263
-4.40137
-4.50448
-4.63825
-4.80465
-5.00488
-5.23919
-5.50688
-5.80636
-6.13515
-6.49014
-6.86779
-7.2643
-7.67582
-8.09859
-8.52904
-8.96381
-9.39993
-9.83502
-10.2673
-10.6948
-11.1185
-11.5397
-11.9568
-12.3691
-12.7753
-13.1721
-13.5572
-13.9298
-14.2889
-14.6336
-14.9627
-15.275
-15.569
-15.8434
-16.0965
-16.3267
-16.5323
-16.7116
-16.863
-16.9845
-17.0747
-17.1319
-17.1548
-17.1417
-17.0912
-17.0016
-16.8719
-16.7008
-16.4874
-16.2308
-15.9303
-15.5854
-15.1959
-14.7614
-14.2819
-13.7575
-13.1883
-12.5745
-11.9161
-11.2131
-10.4651
-9.67147
-8.83117
-7.94287
-7.00495
-6.01574
-4.97362
-3.87727
-2.72597
-1.52009
-0.261648
1.04508
2.39291
3.77122
5.16573
6.55882
7.93047
9.25953
10.5253
11.7092
12.7958
13.7739
14.6363
15.38
16.0052
16.5154
16.9159
17.2132
17.4145
17.5274
17.5592
17.5174
17.4093
17.2421
17.0229
16.7581
16.4545
16.1181
15.7546
15.3684
14.9642
14.5476
14.1246
13.7001
13.2781
12.8626
12.4579
12.0677
11.6959
11.3461
11.0218
10.7266
10.4637
10.2364
10.0474
9.89916
9.79375
9.73251
9.71623
9.74502
9.81821
9.93438
10.0913
10.2859
10.5143
10.7718
11.0529
11.3511
11.6592
11.9683
12.27
12.5502
12.8075
12.998
-4.41781
-4.564
-4.5941
-4.59759
-4.61143
-4.63601
-4.66798
-4.70596
-4.74724
-4.78639
-4.8207
-4.85293
-4.88481
-4.91515
-4.94271
-4.96654
-4.98586
-5.00004
-5.0086
-5.01118
-5.00759
-4.99779
-4.98186
-4.96003
-4.93261
-4.89999
-4.86259
-4.82087
-4.7753
-4.72636
-4.67452
-4.6203
-4.56422
-4.50688
-4.44896
-4.39128
-4.33479
-4.28067
-4.23037
-4.18562
-4.14854
-4.12156
-4.10745
-4.1093
-4.13034
-4.1739
-4.24323
-4.3413
-4.47059
-4.63298
-4.82957
-5.06058
-5.32533
-5.62226
-5.94902
-6.30265
-6.67974
-7.07662
-7.48954
-7.91477
-8.34862
-8.78743
-9.22791
-9.66763
-10.1068
-10.5459
-10.9835
-11.4188
-11.8494
-12.2718
-12.6847
-13.0872
-13.4782
-13.8566
-14.2215
-14.5718
-14.9063
-15.2238
-15.5229
-15.8024
-16.0605
-16.2957
-16.5064
-16.6909
-16.8476
-16.9747
-17.0706
-17.1337
-17.1625
-17.1554
-17.1106
-17.0267
-16.9025
-16.7367
-16.5285
-16.2769
-15.9814
-15.6414
-15.2568
-14.8274
-14.3531
-13.8342
-13.2707
-12.6629
-12.0109
-11.3148
-10.574
-9.78784
-8.95532
-8.07498
-7.1451
-6.16392
-5.12973
-4.04122
-2.8978
-1.70012
-0.450698
0.845438
2.18014
3.54174
4.91507
6.28201
7.62264
8.91663
10.1447
11.2899
12.3391
13.2831
14.1162
14.8366
15.445
15.9447
16.3405
16.6382
16.8442
16.9653
17.0084
16.9802
16.8875
16.7371
16.5355
16.289
16.0038
15.6854
15.3383
14.9676
14.579
14.1782
13.77
13.3586
12.9484
12.5434
12.1476
11.7651
11.3998
11.0553
10.7354
10.4438
10.184
9.9593
9.77268
9.6269
9.5241
9.46585
9.45307
9.48601
9.56409
9.68596
9.8494
10.0513
10.2878
10.5541
10.8445
11.1525
11.4707
11.7904
12.1031
12.3957
12.6657
12.8775
-4.40439
-4.5595
-4.5898
-4.59063
-4.60493
-4.63038
-4.66212
-4.69857
-4.73584
-4.77063
-4.80396
-4.8373
-4.86991
-4.90068
-4.92867
-4.95308
-4.9732
-4.98839
-4.99812
-5.00196
-4.99961
-4.99091
-4.97583
-4.95447
-4.92699
-4.89365
-4.85473
-4.81059
-4.76162
-4.70822
-4.65088
-4.59011
-4.52651
-4.46077
-4.3937
-4.32628
-4.25966
-4.1952
-4.13455
-4.07962
-4.03269
-3.99632
-3.97339
-3.96699
-3.98039
-4.01686
-4.07954
-4.17127
-4.29446
-4.45089
-4.64159
-4.86686
-5.1261
-5.41788
-5.74004
-6.08981
-6.464
-6.85913
-7.27158
-7.69766
-8.13354
-8.57502
-9.01955
-9.46748
-9.91851
-10.3711
-10.821
-11.2647
-11.7014
-12.1297
-12.5487
-12.9574
-13.3546
-13.7392
-14.11
-14.4661
-14.8062
-15.1291
-15.4336
-15.7183
-15.9816
-16.222
-16.4379
-16.6276
-16.7896
-16.9221
-17.0236
-17.0925
-17.127
-17.1252
-17.0857
-17.007
-16.8878
-16.7268
-16.5233
-16.2764
-15.9856
-15.6505
-15.2708
-14.8466
-14.3779
-13.8648
-13.3075
-12.7062
-12.0611
-11.372
-10.6385
-9.85971
-9.03446
-8.1612
-7.23813
-6.26341
-5.23538
-4.15288
-3.01564
-1.82488
-0.583937
0.701103
2.02089
3.3626
4.71027
6.04562
7.34927
8.60229
9.78721
10.8893
11.8975
12.8046
13.6067
14.3024
14.8929
15.381