/*--------------------------------*- C++ -*----------------------------------*\
| =========                 |                                                 |
| \\      /  F ield         | OpenFOAM: The Open Source CFD Toolbox           |
|  \\    /   O peration     | Version:  2112                                  |
|   \\  /    A nd           | Website:  www.openfoam.com                      |
|    \\/     M anipulation  |                                                 |
\*---------------------------------------------------------------------------*/
FoamFile
{
    version     2.0;
    format      ascii;
    arch        "LSB;label=32;scalar=64";
    class       volScalarField;
    location    "0.02";
    object      ddt0(omega);
}
// * * * * * * * * * * * * * * * * * * * * * * * * * * * * * * * * * * * * * //

dimensions      [0 0 -2 0 0 0 0];

internalField   nonuniform List<scalar> 
12885
(
2.13851e-82
8.15985e-83
6.61361e-85
3.74284e-86
1.63556e-86
1.32599e-86
1.45975e-86
1.43288e-86
1.74955e-86
1.97873e-86
4.45667e-86
-2.1637e-84
1.43966e-82
4.46806e-84
2.21806e-85
7.66078e-86
8.64989e-86
1.10621e-85
1.43892e-85
1.89968e-85
2.54271e-85
3.45991e-85
4.79368e-85
6.79216e-85
9.62636e-85
1.62834e-84
2.24726e-84
5.52723e-84
3.93176e-83
2.57737e-83
1.02556e-82
8.96472e-81
-6.18116e-79
-1.5421e-78
-3.75745e-76
-4.24199e-75
-4.35411e-73
-1.08364e-71
-1.10686e-71
9.30652e-69
2.24938e-82
6.52824e-83
5.90527e-85
3.2599e-86
1.60326e-86
1.36005e-86
1.55403e-86
1.41294e-86
1.7613e-86
2.07548e-86
5.12397e-86
7.46509e-86
3.12428e-82
1.02773e-83
4.67034e-85
8.91592e-86
8.48094e-86
1.07168e-85
1.38451e-85
1.82004e-85
2.42567e-85
3.28141e-85
4.50988e-85
6.39086e-85
8.97442e-85
1.84716e-84
2.25602e-84
1.15091e-83
6.80546e-83
6.35084e-83
2.09587e-82
-7.52896e-80
-3.84917e-78
-8.31743e-77
-1.52709e-75
-1.67916e-73
-7.55776e-72
-2.39457e-70
-1.95516e-70
2.06009e-68
2.10025e-82
3.7293e-83
4.23396e-85
2.84268e-86
1.65074e-86
1.45947e-86
1.95461e-86
1.27781e-86
1.90184e-86
2.4911e-86
8.20197e-86
1.46191e-83
1.35081e-81
4.91549e-83
2.26849e-84
2.09501e-85
1.00116e-85
1.19443e-85
1.51289e-85
1.99292e-85
2.65675e-85
3.58005e-85
4.88844e-85
7.33994e-85
1.18359e-84
4.54844e-84
4.39801e-84
6.21226e-83
4.15662e-83
3.84789e-82
4.49996e-82
-3.65694e-78
-6.2469e-77
-1.01794e-76
-2.17973e-74
-5.16925e-74
-6.34375e-73
-7.51291e-70
2.16052e-68
7.16796e-68
8.14344e-83
9.92965e-84
1.73211e-85
2.65167e-86
1.87004e-86
1.74456e-86
5.10425e-86
-6.51485e-87
2.51789e-86
4.64149e-86
2.77247e-85
3.53932e-82
1.6825e-80
6.90946e-82
3.50803e-83
2.55894e-84
3.33159e-85
2.5265e-85
2.3914e-85
3.14602e-85
4.20605e-85
5.63831e-85
8.21894e-85
1.83164e-84
6.97929e-84
2.2384e-83
3.35432e-83
1.99812e-82
-7.73233e-81
-1.06542e-81
9.41395e-82
-2.23233e-76
-2.45976e-75
-1.59318e-74
-1.24747e-72
-1.28816e-73
-2.55832e-69
-1.5157e-68
1.68951e-67
1.30913e-66
1.28457e-83
1.29016e-84
7.11823e-86
3.28237e-86
2.95757e-86
2.81008e-86
1.05978e-84
-8.73199e-85
7.59374e-86
2.68348e-85
4.18592e-84
3.23577e-80
9.21856e-79
4.10776e-80
2.24134e-81
1.67682e-82
1.46165e-83
6.03592e-84
7.57022e-85
5.80414e-85
7.37772e-85
8.54774e-85
4.55973e-84
1.97392e-83
-1.84331e-83
-1.50919e-81
8.46884e-83
1.08738e-80
3.9139e-79
-5.12408e-80
4.43427e-80
-2.38276e-74
-1.88502e-73
-8.44331e-73
-2.89088e-73
-1.2795e-69
-7.65812e-69
-5.47381e-67
2.43658e-66
1.51295e-65
6.42033e-85
2.20555e-85
8.31093e-86
6.78669e-86
6.90957e-86
-3.7303e-85
1.58765e-82
3.56374e-84
1.19558e-84
6.6865e-84
7.21527e-82
1.07259e-77
1.91384e-76
8.81381e-78
4.92003e-79
3.73505e-80
2.63088e-81
9.90091e-82
4.92409e-83
1.20024e-84
1.58798e-84
2.78209e-84
-3.64188e-83
-4.41534e-84
-2.12037e-80
1.25959e-79
2.12666e-79
1.94941e-78
7.64439e-77
4.64075e-78
-4.54033e-76
-1.81436e-72
-1.1156e-71
-1.85782e-72
-3.06373e-70
-1.71569e-69
-2.3835e-67
-1.64662e-65
-3.69777e-65
-1.72234e-64
5.6542e-86
1.21659e-85
1.07059e-85
1.00079e-85
1.81385e-85
5.15931e-81
9.02785e-80
5.40222e-81
7.531e-83
1.2515e-80
4.53981e-79
5.85521e-75
6.90549e-74
2.95931e-75
2.38743e-76
1.70177e-77
6.05306e-79
1.98603e-79
8.52256e-81
1.80072e-82
3.03791e-83
-1.53595e-82
-9.1558e-81
1.00383e-79
5.16327e-78
3.37837e-77
2.00907e-77
8.54784e-77
4.55956e-75
-8.86306e-76
-6.22178e-75
-2.41051e-70
-1.2407e-69
-2.29992e-70
1.19206e-72
8.74475e-72
-5.34842e-66
-5.36021e-64
-1.44116e-62
-1.54693e-62
8.31239e-87
7.21673e-86
7.94298e-86
-9.43834e-85
1.6615e-82
1.06589e-77
1.23572e-76
1.09525e-77
-1.77073e-80
1.12453e-78
1.25638e-76
3.26558e-72
2.72859e-71
9.01251e-73
6.10521e-74
3.65728e-75
2.67538e-76
7.90546e-77
3.09141e-78
5.79271e-80
1.3823e-81
-8.68787e-81
8.28062e-79
4.39719e-78
1.13334e-75
2.35576e-75
6.28833e-76
9.58703e-76
3.18184e-73
2.11307e-74
-6.31326e-75
-1.54551e-68
-7.07499e-68
-1.45191e-68
-7.10315e-72
8.57862e-71
-1.03263e-66
-3.63137e-66
-1.16003e-61
-1.49382e-61
-2.10151e-87
1.22722e-86
1.61662e-85
1.68852e-83
6.58414e-79
1.45416e-74
1.19846e-73
1.45601e-74
-1.19387e-76
-1.39736e-74
3.67735e-74
1.16146e-69
7.43197e-69
2.16243e-70
1.43886e-71
6.81108e-73
4.2985e-74
3.10159e-74
1.17228e-75
1.94716e-77
1.19184e-78
2.35422e-77
1.14572e-76
3.00498e-75
1.40268e-74
2.52242e-73
1.29269e-73
4.58502e-74
3.49558e-71
2.42569e-72
5.5073e-74
-6.42088e-65
-2.73154e-64
-6.27822e-65
-1.30156e-65
-2.88369e-66
1.53566e-72
-1.24018e-59
-3.99186e-59
-3.57089e-58
3.69475e-84
-9.48622e-83
2.17017e-81
8.20263e-78
5.60213e-77
2.74677e-71
1.74053e-70
2.68515e-71
-5.49112e-73
-3.03934e-73
2.90192e-71
4.10326e-72
6.23802e-70
1.73411e-71
1.07462e-72
1.77073e-75
1.37455e-72
6.52992e-72
1.83902e-73
3.25478e-77
8.39167e-77
3.0238e-75
1.3299e-74
6.75983e-73
2.91165e-72
5.10063e-71
1.09839e-71
3.96661e-69
1.65608e-68
1.37311e-69
9.43047e-71
-2.20816e-62
-8.98772e-62
-4.04343e-61
-1.5475e-60
-3.54188e-61
-1.27896e-63
-3.22475e-58
-1.24088e-56
-2.59949e-56
-1.37455e-78
-1.04816e-78
2.56916e-77
1.46969e-72
8.13428e-72
5.5861e-68
2.93479e-67
5.3508e-68
-1.08559e-71
3.6994e-69
1.78507e-68
1.99218e-69
1.38605e-70
1.13096e-71
6.83248e-73
2.70884e-72
7.37863e-70
3.21339e-69
1.53333e-70
7.22836e-74
3.03258e-74
1.61987e-72
6.72119e-72
5.32747e-70
2.18379e-69
7.47425e-68
1.68294e-68
1.00567e-65
1.3247e-65
1.45808e-66
2.01312e-67
-5.53746e-59
-2.19598e-58
-1.20098e-57
-4.53477e-57
-5.06001e-56
-1.94415e-55
-2.97403e-54
-6.31229e-53
-1.02428e-51
-1.56121e-77
-1.36255e-72
-2.15057e-74
1.51531e-68
5.41348e-68
2.35054e-64
1.09057e-63
4.61801e-61
2.75986e-68
-3.10033e-67
-1.36217e-66
1.23949e-66
1.04066e-67
1.22527e-68
8.6051e-70
2.45588e-70
1.17917e-66
4.86931e-66
4.21623e-67
6.74468e-70
2.82409e-71
4.47656e-70
1.7739e-69
5.11966e-67
2.04044e-66
1.66939e-64
2.77718e-64
7.61967e-64
4.73778e-62
1.1284e-62
1.98667e-63
-1.9006e-55
-7.42426e-55
-3.66668e-63
3.38787e-64
-2.57321e-60
-5.69969e-59
-1.17938e-56
-2.37755e-57
-4.76162e-56
-4.11561e-72
-4.20711e-71
-1.85096e-69
6.29022e-68
7.60735e-67
1.00423e-65
4.31336e-65
1.83673e-62
9.79063e-70
-1.67256e-70
7.02905e-67
7.55526e-68
-6.21649e-72
9.56429e-74
2.84652e-74
-1.88715e-74
1.02255e-71
4.28432e-71
-5.37812e-75
1.03106e-71
4.43457e-75
3.69411e-70
1.89297e-71
1.22539e-73
2.05671e-67
5.55549e-60
5.47547e-63
5.09187e-66
-6.15543e-68
5.34211e-66
2.04543e-65
-2.78655e-65
-1.73986e-50
-9.39452e-59
-5.29964e-67
5.75384e-63
-1.8602e-62
-3.54086e-62
8.16358e-61
3.35813e-60
-1.14303e-68
-7.83611e-68
-4.98113e-66
6.62036e-65
5.21115e-63
6.20031e-63
1.04083e-60
-1.45634e-70
-7.99722e-70
-2.96715e-72
-8.81003e-72
-2.8728e-72
-3.01492e-72
-5.33731e-72
-4.51585e-72
1.5839e-73
-9.81247e-75
-5.82505e-74
-2.6407e-73
-2.21225e-71
7.23173e-70
2.12247e-68
1.46043e-69
-2.30023e-70
2.50853e-69
2.01241e-70
1.67495e-66
-1.60849e-66
-6.49523e-66
3.18334e-63
1.27505e-62
4.9089e-60
4.50598e-61
2.02977e-70
3.56245e-71
1.1318e-63
7.24988e-61
4.10939e-58
9.72139e-56
-7.71918e-52
-5.67414e-66
-4.28441e-65
-1.39036e-62
-9.19071e-64
-3.62797e-60
1.88203e-58
1.28093e-59
2.46936e-61
1.25001e-72
3.22661e-64
-7.05138e-73
2.92262e-74
-3.56562e-74
-1.94023e-74
-6.97002e-75
-1.73466e-73
-5.69388e-73
-4.78349e-71
1.14235e-70
-2.77934e-71
-9.01109e-69
9.16279e-69
-1.09649e-68
-1.16013e-68
-6.67451e-67
-4.80369e-66
1.0107e-67
-9.05769e-61
-3.84236e-60
-1.25645e-58
3.84527e-57
4.36062e-58
4.36724e-59
9.93058e-60
3.56122e-62
1.4255e-61
9.96648e-59
6.1689e-56
1.59364e-53
-1.35494e-49
-1.52568e-73
-1.35203e-65
-7.92372e-65
-2.44589e-62
-4.64551e-64
-6.35671e-60
1.49146e-58
9.56236e-60
1.75498e-61
3.50174e-63
3.07068e-70
1.10167e-70
4.21754e-71
-2.68948e-71
-6.76866e-71
-1.16403e-70
-1.58286e-70
-3.10926e-70
-7.18533e-70
-2.34427e-70
1.89814e-69
-1.97799e-67
1.36601e-56
-5.26089e-65
-2.92262e-65
-1.85461e-64
4.08345e-58
2.16113e-58
-3.57489e-60
-6.11759e-57
5.14951e-57
5.76853e-54
1.19221e-60
1.15286e-61
6.03022e-66
2.47631e-65
4.59714e-61
6.26663e-58
2.78541e-60
2.88677e-57
-5.90663e-73
-9.74058e-71
-1.05198e-65
-6.48984e-66
-4.48948e-65
-1.16299e-62
4.325e-61
4.13369e-60
2.18561e-61
1.3648e-62
2.87387e-64
8.67461e-70
1.945e-69
3.96199e-65
3.09874e-65
9.07368e-61
4.20715e-62
2.98697e-67
1.98072e-65
3.20738e-67
-4.75891e-67
-2.64051e-66
-1.90057e-64
-1.00475e-63
-6.27884e-62
2.73468e-57
9.18097e-57
7.74288e-54
4.60362e-52
8.6645e-53
4.63615e-54
5.08375e-53
1.20939e-52
-8.22666e-54
-1.40937e-67
1.30827e-57
5.52026e-57
1.84507e-58
6.84424e-59
3.08148e-59
1.69027e-69
2.84584e-68
3.6276e-54
-3.82078e-67
1.53156e-70
-1.90618e-67
2.88167e-64
1.0769e-62
5.26141e-64
3.17531e-65
1.32987e-66
2.21633e-68
1.00635e-68
2.69805e-64
9.90385e-61
7.79495e-60
3.82451e-61
1.14544e-62
2.02182e-64
3.43413e-66
-4.388e-68
-2.70911e-67
-9.90486e-65
-5.73966e-64
2.43362e-57
1.33197e-56
1.40528e-53
1.84149e-51
9.34782e-51
1.88203e-51
3.70525e-52
2.62461e-51
-1.64153e-51
-1.36895e-51
-2.84036e-52
3.42462e-60
2.39134e-59
8.23713e-60
2.69684e-60
7.98765e-61
-2.26255e-71
-4.25845e-70
3.80434e-66
1.10644e-68
1.65371e-70
7.73914e-70
1.8977e-67
1.33953e-65
6.56496e-67
4.56595e-68
2.37354e-69
9.00778e-71
2.1611e-71
5.46896e-67
2.80013e-63
2.84214e-62
1.33906e-63
3.57392e-65
1.14267e-66
2.5868e-68
6.61674e-68
4.88494e-67
3.63668e-58
2.63465e-65
3.40679e-60
2.18058e-59
2.29254e-56
3.6176e-57
8.17202e-61
8.56489e-54
1.44156e-54
-1.56335e-53
-6.12905e-53
-3.61133e-53
-1.28776e-53
-2.40366e-54
8.6167e-59
1.69605e-59
-5.44577e-59
-1.76594e-59
-9.66817e-71
3.83903e-68
-2.37626e-70
1.45566e-72
1.60871e-67
3.20716e-70
2.50665e-70
1.75589e-68
8.61416e-70
9.21918e-71
3.57001e-72
1.41614e-73
2.59839e-72
7.89433e-68
2.41885e-69
3.48475e-65
2.29523e-66
4.26163e-68
1.0129e-69
1.46558e-67
2.74264e-68
2.63299e-67
2.67473e-57
2.79546e-66
-1.00728e-72
2.0836e-60
2.09028e-57
5.59373e-65
-1.27065e-62
1.33568e-62
2.84247e-57
-9.05754e-56
-5.43518e-55
-4.48062e-55
-2.12191e-55
-8.90672e-56
-1.92768e-56
-4.71182e-57
-1.04237e-57
-3.9044e-58
4.57186e-73
-8.04189e-72
1.76223e-72
6.00053e-72
2.43343e-70
3.89989e-73
5.53154e-73
4.21805e-71
2.00421e-72
2.4286e-73
9.50802e-75
3.8316e-76
2.22426e-77
1.57703e-73
3.27112e-72
4.64236e-68
2.00001e-69
4.20204e-71
1.74542e-70
1.18585e-66
1.27328e-65
3.74103e-62
3.39316e-60
2.72319e-63
1.19745e-72
4.53974e-69
4.53949e-65
-1.09955e-62
-9.84199e-62
-3.27701e-63
4.50558e-65
-5.9481e-58
-4.21088e-57
-5.05236e-57
-3.20873e-57
-1.45004e-57
-7.38267e-58
-2.56143e-58
-7.78339e-59
-2.18792e-59
1.8385e-74
1.63628e-71
7.20389e-75
-2.28554e-77
7.46052e-73
7.32882e-76
2.77875e-75
2.25272e-73
1.03326e-74
1.26027e-75
5.37208e-77
7.55664e-78
5.77064e-78
2.06772e-76
6.09427e-75
8.57594e-71
3.68881e-72
2.48116e-69
5.48917e-68
5.59051e-64
1.25695e-60
2.25299e-59
8.17022e-70
-8.55539e-70
-3.69692e-64
6.20981e-57
6.77697e-56
1.41112e-55
-1.80112e-62
-2.09891e-62
7.45775e-68
7.78808e-64
-6.77054e-59
-6.33154e-59
-4.66408e-59
-2.42451e-59
-1.26694e-59
-5.04366e-60
-1.79978e-60
-5.97235e-61
4.98176e-71
1.10086e-69
2.87837e-71
1.00316e-77
3.7435e-75
6.90827e-78
4.04738e-77
2.80769e-75
1.30475e-76
2.13013e-77
6.8184e-78
6.27847e-78
6.25671e-78
6.63641e-78
2.38576e-77
3.05964e-73
1.77202e-72
1.83109e-69
9.92223e-69
9.40937e-65
9.05538e-63
2.34282e-61
-1.15937e-64
-2.57891e-63
-1.18026e-59
6.21994e-55
8.71711e-54
1.5432e-55
2.4731e-57
6.6185e-59
2.40738e-60
4.41808e-63
6.99041e-63
-9.97168e-61
-8.53059e-61
-4.66419e-61
-2.6719e-61
-1.10708e-61
-4.33223e-62
-1.63929e-62
7.45372e-70
1.36902e-67
3.01815e-69
5.33617e-73
4.3311e-77
6.46967e-78
7.2621e-78
8.85204e-77
9.78687e-78
6.70741e-78
6.30274e-78
6.29031e-78
6.2956e-78
6.30183e-78
3.32967e-77
1.09105e-73
1.10186e-70
1.1689e-67
1.07002e-64
9.59267e-66
1.45145e-64
5.55035e-63
1.76261e-63
-5.90154e-62
-2.2126e-60
5.62064e-55
2.9093e-52
4.90096e-54
5.48786e-56
6.03925e-58
7.59014e-60
1.11103e-61
1.86317e-63
1.17127e-64
-2.55042e-62
-1.59411e-62
-8.60504e-63
-3.69592e-63
-1.51065e-63
-6.05847e-64
5.49084e-69
8.81344e-66
1.55018e-68
8.03798e-72
1.74576e-76
1.67098e-78
6.56769e-79
9.20539e-78
1.027e-78
2.428e-79
1.07405e-81
-2.18855e-79
-2.45269e-79
-2.61215e-79
9.68416e-77
2.49865e-73
1.01798e-69
1.92369e-66
2.86824e-63
3.87399e-60
6.13342e-62
2.94524e-64
3.2708e-64
1.21551e-61
1.00428e-58
7.60769e-56
4.50358e-53
6.11878e-55
6.14554e-57
6.53139e-59
8.07677e-61
1.27111e-62
3.89726e-64
1.91538e-65
-1.57559e-63
-1.02053e-63
-5.37312e-64
-2.32182e-64
-9.6232e-65
-3.97736e-65
-1.0558e-69
3.8053e-65
1.06954e-67
7.88178e-71
5.72138e-76
-6.32573e-80
1.8074e-78
1.23222e-78
-1.96476e-79
1.7955e-78
1.77803e-78
1.77363e-78
1.77367e-78
1.77796e-78
1.10541e-78
5.86048e-75
5.86354e-71
2.53592e-67
2.807e-64
4.33573e-61
4.49718e-63
3.6197e-65
6.64924e-65
3.8385e-62
2.79618e-59
1.72417e-56
7.84218e-54
1.00879e-55
9.74765e-58
1.01404e-59
1.24091e-61
1.93544e-63
5.37844e-65
7.32551e-66
9.78516e-66
-1.23858e-64
-6.56234e-65
-2.8302e-65
-1.17582e-65
-4.91335e-66
-5.74183e-68
-2.34665e-64
2.09436e-67
2.70818e-70
9.38594e-76
-1.47105e-78
-1.49291e-78
-1.22194e-78
-1.52426e-78
-1.48473e-78
-1.5041e-78
-1.5087e-78
-1.50946e-78
-1.50802e-78
-1.97214e-78
5.67501e-77
7.52997e-73
4.93932e-69
2.18282e-65
8.56702e-62
5.7728e-64
7.59959e-66
8.65367e-66
4.85799e-63
4.5025e-60
3.52574e-57
1.96518e-54
2.49964e-56
2.38567e-58
2.47207e-60
2.97749e-62
4.75753e-64
1.24652e-65
8.88653e-65
1.96822e-66
-2.5872e-65
-1.37365e-65
-5.91608e-66
-2.45675e-66
-1.0461e-66
7.89155e-69
-1.79056e-65
1.04799e-67
5.56768e-71
4.06777e-76
-3.36363e-79
-3.0788e-79
-3.87605e-79
-3.33546e-79
-3.09477e-79
-3.01584e-79
-2.9811e-79
-2.95832e-79
-2.94181e-79
-3.22881e-79
-9.32863e-79
4.1071e-75
9.24972e-71
1.49797e-66
2.16579e-62
9.42834e-65
1.94342e-66
1.57589e-66
6.53392e-64
8.06073e-61
7.80117e-58
5.55837e-55
7.10946e-57
6.7827e-59
7.17432e-61
8.39949e-63
1.35032e-64
3.40012e-66
2.2363e-65
3.27693e-67
-6.80145e-66
-3.61051e-66
-1.55363e-66
-6.44932e-67
-2.73545e-67
-6.36793e-69
-3.76417e-67
2.63025e-70
1.57067e-72
1.27082e-77
-2.68494e-78
-2.6711e-78
-2.7051e-78
-2.67945e-78
-2.67038e-78
-2.66642e-78
-2.66431e-78
-2.6626e-78
-2.66099e-78
-2.66157e-78
-2.70471e-79
3.60649e-78
1.89179e-73
1.55546e-68
8.27619e-64
2.31919e-66
7.4462e-68
5.25308e-68
1.37951e-65
1.35131e-62
1.6007e-59
2.1562e-56
2.76452e-58
2.64271e-60
2.7999e-62
3.28471e-64
5.29016e-66
1.32261e-67
1.37953e-68
1.32147e-70
-2.68857e-67
-1.43034e-67
-6.17573e-68
-2.57409e-68
-1.08045e-68
3.62588e-83
4.08798e-83
4.19037e-83
4.21187e-83
4.2177e-83
4.21915e-83
4.21957e-83
4.21967e-83
4.21965e-83
4.21958e-83
4.21946e-83
4.2193e-83
4.21907e-83
4.21878e-83
4.21837e-83
4.21785e-83
4.21715e-83
4.21621e-83
4.21487e-83
4.21304e-83
4.21033e-83
4.2072e-83
4.20263e-83
4.19645e-83
4.18809e-83
4.17685e-83
4.16199e-83
4.14221e-83
4.11722e-83
4.08508e-83
4.04353e-83
3.99e-83
3.92198e-83
3.83639e-83
3.72984e-83
3.60054e-83
3.44784e-83
3.2817e-83
3.096e-83
2.60551e-83
4.76542e-87
4.57696e-87
4.36753e-87
3.34484e-87
1.70095e-87
1.55982e-87
1.36115e-87
1.29051e-87
9.96823e-88
5.40134e-88
1.24972e-87
2.91207e-87
2.99894e-87
-5.85558e-89
-1.19978e-87
-7.32864e-89
-4.84969e-88
1.30898e-87
5.81936e-88
2.74073e-88
2.93846e-88
6.66787e-87
-3.00135e-88
-1.85687e-87
3.76034e-87
4.81891e-87
2.92258e-87
1.80389e-88
9.2545e-88
1.47283e-86
7.19819e-88
2.35611e-86
3.46082e-87
-5.78548e-89
1.50259e-87
-1.07028e-87
1.22171e-88
1.82292e-87
3.41393e-88
1.49559e-87
-1.68871e-89
8.94324e-89
1.89959e-88
-6.02147e-89
3.11905e-88
1.6112e-87
6.16515e-90
5.14908e-89
-1.8692e-88
3.11837e-88
1.15669e-87
2.55914e-87
-1.5013e-87
-1.01997e-88
1.05655e-87
4.22588e-88
4.58487e-88
3.10294e-88
2.65694e-88
2.81291e-88
1.96765e-88
9.57588e-89
7.45799e-89
6.46913e-89
3.10641e-88
4.50673e-88
3.46504e-88
9.38045e-88
8.22229e-88
4.43813e-88
6.04038e-88
7.8191e-88
8.53681e-88
6.14651e-88
1.17908e-87
1.74465e-87
1.55406e-87
1.61619e-87
1.77948e-87
1.72045e-87
1.46708e-87
1.19866e-87
1.09779e-87
9.51373e-88
1.02608e-87
1.38054e-87
1.26134e-87
1.04112e-87
1.10912e-87
1.10867e-87
1.28787e-87
1.34955e-87
9.5051e-88
7.25121e-88
8.81956e-88
8.27706e-88
7.89969e-88
7.75653e-88
7.78645e-88
7.83552e-88
7.89347e-88
7.88723e-88
7.6578e-88
7.83393e-88
8.76992e-88
9.41488e-88
1.01581e-87
9.84217e-88
9.44639e-88
9.2739e-88
9.14492e-88
9.06968e-88
9.02174e-88
9.00552e-88
9.01009e-88
9.0366e-88
9.0827e-88
9.14863e-88
9.22976e-88
9.32915e-88
9.44591e-88
9.58455e-88
9.74475e-88
9.94303e-88
1.02375e-87
1.05568e-87
1.08847e-87
1.12152e-87
1.20001e-87
1.25247e-87
1.21517e-87
1.18622e-87
1.1897e-87
1.19459e-87
1.19101e-87
1.19345e-87
1.19464e-87
1.19314e-87
1.18914e-87
1.18948e-87
1.19907e-87
1.20704e-87
1.21792e-87
1.23191e-87
1.24886e-87
1.2689e-87
1.27825e-87
1.29919e-87
1.2994e-87
1.29196e-87
1.2965e-87
1.29477e-87
1.27845e-87
1.27291e-87
1.27397e-87
1.27848e-87
1.30673e-87
1.32563e-87
1.35892e-87
1.41089e-87
1.48572e-87
1.58464e-87
1.70788e-87
1.84025e-87
1.94109e-87
2.02797e-87
2.1464e-87
2.27042e-87
2.38113e-87
2.52944e-87
2.76611e-87
3.07462e-87
3.73606e-87
4.06366e-87
4.74342e-87
5.65324e-87
6.32714e-87
6.06591e-87
6.69309e-87
4.94353e-87
1.92918e-87
-1.22516e-88
9.87973e-88
1.90452e-87
1.55868e-87
7.84741e-88
5.95054e-88
3.73189e-88
1.47356e-88
2.27244e-88
2.65842e-88
1.29302e-88
8.30022e-88
7.23809e-88
6.37971e-88
-5.47221e-88
-4.98809e-88
-1.45457e-88
7.90646e-89
-2.73185e-88
3.53206e-88
2.91501e-87
1.30899e-88
5.58113e-89
3.2025e-87
3.0447e-87
2.34191e-87
1.48046e-88
6.29532e-88
6.72292e-87
3.56542e-88
8.72536e-87
1.38032e-87
4.10381e-88
4.09954e-88
2.63311e-88
1.91041e-88
5.10319e-88
1.07196e-88
7.23992e-88
1.16319e-88
1.90871e-88
2.73691e-88
1.79035e-88
3.72635e-88
7.64466e-88
-6.89145e-90
-2.7266e-89
-2.0491e-88
4.42803e-88
1.54689e-87
1.19232e-87
1.95118e-89
1.35205e-88
3.32318e-88
2.81317e-88
5.59545e-88
6.00435e-88
6.48856e-88
7.06098e-88
6.66007e-88
6.05567e-88
6.21943e-88
7.70841e-88
1.31725e-87
1.99897e-87
6.38941e-88
8.47621e-88
2.27744e-87
1.83252e-87
2.36272e-87
2.82248e-87
2.46189e-87
3.72744e-87
3.98708e-87
3.51564e-87
3.79132e-87
3.87344e-87
3.78619e-87
3.35052e-87
3.60884e-87
3.02601e-87
2.74982e-87
2.45116e-87
2.75659e-87
3.00384e-87
2.52487e-87
2.39383e-87
2.17562e-87
2.11299e-87
1.90365e-87
2.27319e-87
2.36968e-87
1.80621e-87
1.8537e-87
1.67831e-87
1.5565e-87
1.46869e-87
1.40054e-87
1.33746e-87
1.27666e-87
1.19454e-87
1.137e-87
1.17549e-87
1.73329e-87
1.90002e-87
1.80207e-87
1.75106e-87
1.69027e-87
1.63391e-87
1.58276e-87
1.53902e-87
1.50945e-87
1.48674e-87
1.47084e-87
1.46185e-87
1.45817e-87
1.45972e-87
1.46511e-87
1.47477e-87
1.48781e-87
1.50499e-87
1.52591e-87
1.55185e-87
1.58912e-87
1.62893e-87
1.66921e-87
1.71252e-87
1.7855e-87
1.85108e-87
1.81861e-87
1.75322e-87
1.75024e-87
1.75206e-87
1.74872e-87
1.74273e-87
1.73797e-87
1.72511e-87
1.70963e-87
1.70925e-87
1.71282e-87
1.72766e-87
1.74832e-87
1.79168e-87
1.81691e-87
1.84445e-87
1.86976e-87
1.89597e-87
1.92126e-87
1.96907e-87
1.99522e-87
1.99217e-87
1.94467e-87
1.90313e-87
1.87727e-87
1.85571e-87
1.87951e-87
1.90328e-87
1.93329e-87
1.99155e-87
2.07393e-87
2.19401e-87
2.40317e-87
2.64364e-87
2.78724e-87
2.90034e-87
3.04926e-87
3.24156e-87
3.40251e-87
3.60486e-87
3.9325e-87
4.28845e-87
4.93579e-87
5.18497e-87
5.96899e-87
6.92217e-87
7.15975e-87
6.975e-87
7.19126e-87
5.85287e-87
1.56847e-87
-3.6438e-88
-2.74299e-87
1.14977e-87
1.90426e-88
1.51312e-89
-2.82522e-88
-4.98522e-88
-7.26973e-88
-4.78659e-88
-3.34201e-88
-4.08116e-88
6.04747e-88
-7.96691e-88
-2.64073e-88
8.48206e-88
4.33593e-89
1.7227e-88
6.93881e-88
1.37792e-88
5.82019e-88
1.75294e-87
3.23859e-88
-3.20616e-89
4.76717e-88
2.34962e-87
1.50365e-87
-2.91139e-89
4.22879e-88
3.81143e-87
6.84599e-88
4.37272e-87
1.14532e-87
3.88676e-88
2.06598e-88
1.22428e-88
4.46032e-89
1.75586e-88
-2.2469e-88
3.68588e-88
2.61941e-88
2.05931e-88
1.75207e-88
7.77482e-89
9.03674e-89
5.11865e-88
1.34305e-88
9.56346e-89
2.18686e-89
1.24695e-88
6.76244e-88
6.5079e-88
5.08278e-88
3.07017e-88
3.38921e-88
3.25452e-88
3.88243e-88
3.5912e-88
3.26409e-88
2.99253e-88
2.54156e-88
2.17391e-88
2.15408e-88
2.5262e-88
4.15412e-88
4.77273e-88
4.60918e-88
5.73724e-88
6.81753e-88
7.11708e-88
8.83371e-88
7.67762e-88
1.14883e-87
8.91969e-88
1.08618e-87
1.22913e-87
1.2724e-87
1.34808e-87
1.53924e-87
1.56644e-87
1.31795e-87
1.84713e-87
1.87321e-87
1.65632e-87
1.6291e-87
1.73452e-87
1.78924e-87
1.63133e-87
1.53085e-87
1.48107e-87
1.3995e-87
1.26229e-87
1.54847e-87
1.62725e-87
1.6277e-87
1.62472e-87
1.63545e-87
1.6364e-87
1.6218e-87
1.61308e-87
1.60837e-87
1.61239e-87
1.58228e-87
1.56723e-87
1.71394e-87
1.78806e-87
1.73609e-87
1.65027e-87
1.5805e-87
1.53429e-87
1.50046e-87
1.47493e-87
1.45508e-87
1.43926e-87
1.42635e-87
1.41642e-87
1.4091e-87
1.40419e-87
1.40112e-87
1.3999e-87
1.40038e-87
1.40282e-87
1.40703e-87
1.4133e-87
1.42557e-87
1.43976e-87
1.4546e-87
1.4682e-87
1.51394e-87
1.59727e-87
1.63245e-87
1.64989e-87
1.66517e-87
1.67758e-87
1.6853e-87
1.69071e-87
1.69753e-87
1.70215e-87
1.71e-87
1.72097e-87
1.73359e-87
1.74757e-87
1.76184e-87
1.77756e-87
1.79511e-87
1.8181e-87
1.82864e-87
1.85439e-87
1.87423e-87
1.86916e-87
1.86548e-87
1.84796e-87
1.8241e-87
1.81866e-87
1.8309e-87
1.85467e-87
1.92051e-87
1.96748e-87
2.01196e-87
2.06766e-87
2.14589e-87
2.25181e-87
2.39932e-87
2.54796e-87
2.68233e-87
2.80666e-87
2.97786e-87
3.19083e-87
3.41379e-87
3.69806e-87
4.11834e-87
4.63648e-87
5.4392e-87
5.74231e-87
6.99168e-87
7.9557e-87
7.85032e-87
7.91319e-87
7.78855e-87
6.87533e-87
2.27634e-87
-1.37237e-87
4.3444e-89
2.59008e-87
-8.27705e-88
-1.3114e-89
-3.95268e-88
-7.3334e-88
-1.00858e-87
-8.51543e-88
-5.57887e-88
-2.74357e-89
1.18874e-88
3.81037e-88
-4.47641e-89
5.79988e-88
4.99913e-88
3.81065e-89
5.37138e-88
2.54663e-88
4.58559e-88
8.2433e-88
-4.26746e-88
4.11439e-88
5.58881e-88
1.05713e-87
5.44898e-88
1.94328e-89
2.58759e-88
1.12713e-87
3.2052e-88
2.49995e-87
8.60536e-88
2.56444e-88
1.4233e-88
2.96738e-89
8.20051e-89
1.23555e-88
-2.18017e-90
2.32699e-88
3.57082e-88
3.04209e-88
2.84342e-88
2.53648e-88
3.25158e-88
5.09773e-88
2.09482e-88
1.83769e-88
1.55076e-88
2.85099e-88
7.02711e-88
7.6838e-88
7.83019e-88
6.50865e-88
6.52537e-88
5.99884e-88
6.00104e-88
5.74858e-88
5.44771e-88
5.1618e-88
4.81644e-88
4.54472e-88
4.32695e-88
4.1216e-88
4.23643e-88
3.67323e-88
4.79727e-88
5.01642e-88
5.24273e-88
6.04324e-88
6.60134e-88
6.19701e-88
8.55307e-88
4.83581e-88
5.66013e-88
6.65808e-88
6.97028e-88
7.31501e-88
8.35461e-88
6.66297e-88
4.91468e-88
1.03788e-87
8.89881e-88
1.02402e-87
6.5389e-88
1.02889e-87
1.23877e-87
1.13169e-87
1.24301e-87
1.30484e-87
1.31999e-87
1.20077e-87
1.38463e-87
1.24627e-87
1.22619e-87
1.19326e-87
1.22354e-87
1.29182e-87
1.35151e-87
1.39704e-87
1.44555e-87
1.48733e-87
1.49468e-87
1.50594e-87
1.21257e-87
1.22e-87
1.25424e-87
1.26388e-87
1.27629e-87
1.29622e-87
1.31885e-87
1.34109e-87
1.3614e-87
1.38052e-87
1.39779e-87
1.41224e-87
1.42455e-87
1.43463e-87
1.44286e-87
1.44927e-87
1.45443e-87
1.45851e-87
1.46176e-87
1.46431e-87
1.46941e-87
1.4724e-87
1.47286e-87
1.46493e-87
1.46694e-87
1.53373e-87
1.63081e-87
1.6977e-87
1.70577e-87
1.7133e-87
1.7146e-87
1.71578e-87
1.71651e-87
1.71743e-87
1.72118e-87
1.72385e-87
1.73157e-87
1.73734e-87
1.74107e-87
1.73896e-87
1.74052e-87
1.74015e-87
1.73462e-87
1.7351e-87
1.71815e-87
1.60846e-87
1.51856e-87
1.51663e-87
1.5607e-87
1.60312e-87
1.65096e-87
1.71786e-87
1.80442e-87
1.89102e-87
1.95861e-87
2.00487e-87
2.05972e-87
2.11326e-87
2.13856e-87
2.12568e-87
2.21787e-87
2.35315e-87
2.53489e-87
2.75672e-87
2.98724e-87
3.22557e-87
3.51078e-87
3.90253e-87
4.59929e-87
5.17645e-87
6.27703e-87
7.29686e-87
7.46268e-87
7.62759e-87
7.67711e-87
7.22607e-87
1.1279e-87
2.35423e-89
2.6972e-87
1.62765e-87
-1.49175e-87
-3.43531e-88
-2.57899e-88
-2.47061e-88
-3.04404e-88
-1.75137e-88
-4.99756e-89
3.68556e-88
1.37784e-88
3.41421e-89
6.44851e-89
1.17095e-88
2.04351e-89
-5.7985e-89
1.92864e-88
1.61715e-88
1.84794e-88
2.99367e-88
-1.79893e-88
3.37676e-88
6.63546e-88
8.3849e-88
1.96085e-88
6.1038e-89
1.71313e-88
6.10711e-88
1.46891e-88
1.31012e-87
5.13857e-88
1.99475e-88
1.34415e-88
7.66229e-89
8.48287e-89
1.93031e-88
1.52824e-88
3.20062e-88
3.24518e-88
2.91445e-88
2.84809e-88
2.82642e-88
3.45149e-88
4.564e-88
3.45994e-88
3.45634e-88
3.71137e-88
4.93128e-88
5.95226e-88
7.23126e-88
7.67661e-88
7.05583e-88
6.87759e-88
6.54513e-88
6.56187e-88
6.44305e-88
6.31341e-88
6.25875e-88
6.2411e-88
6.32224e-88
6.43349e-88
6.51003e-88
6.76754e-88
6.36556e-88
7.53393e-88
9.01881e-88
1.12737e-87
1.23444e-87
1.26491e-87
1.16436e-87
1.08571e-87
9.90965e-88
1.13379e-87
1.19904e-87
1.24828e-87
1.27386e-87
1.33215e-87
1.23461e-87
9.81824e-88
1.38026e-87
1.55703e-87
1.66863e-87
1.38579e-87
1.25935e-87
1.5187e-87
1.41272e-87
1.42752e-87
1.43682e-87
1.41403e-87
1.15091e-87
1.53776e-87
1.75282e-87
1.52407e-87
1.63632e-87
1.7112e-87
1.76312e-87
1.8026e-87
1.8329e-87
1.86377e-87
1.89173e-87
1.89468e-87
1.90304e-87
1.40656e-87
1.31222e-87
1.26087e-87
1.23865e-87
1.24632e-87
1.26953e-87
1.29833e-87
1.32796e-87
1.35637e-87
1.38248e-87
1.40615e-87
1.42753e-87
1.44741e-87
1.46557e-87
1.48259e-87
1.49843e-87
1.51378e-87
1.5289e-87
1.54434e-87
1.56066e-87
1.57501e-87
1.59101e-87
1.60986e-87
1.62916e-87
1.65143e-87
1.70413e-87
1.78657e-87
1.85738e-87
1.87223e-87
1.88193e-87
1.88995e-87
1.89477e-87
1.90224e-87
1.90881e-87
1.91952e-87
1.92571e-87
1.9383e-87
1.94608e-87
1.94643e-87
1.94681e-87
1.95083e-87
1.94952e-87
1.9521e-87
1.95223e-87
1.94847e-87
1.88297e-87
1.84356e-87
1.84071e-87
1.87201e-87
1.90474e-87
1.9543e-87
2.01085e-87
2.0833e-87
2.13696e-87
2.2018e-87
2.25545e-87
2.31406e-87
2.37177e-87
2.41852e-87
2.45089e-87
2.53639e-87
2.63681e-87
2.77021e-87
2.86881e-87
2.99032e-87
3.11188e-87
3.25066e-87
3.45718e-87
3.75988e-87
4.40656e-87
4.9098e-87
5.57199e-87
5.95311e-87
4.6027e-87
6.77104e-87
6.54422e-87
5.19577e-88
-2.22839e-88
-2.08547e-88
-4.89228e-88
-2.93694e-88
-6.5706e-88
7.28056e-90
4.34606e-88
2.39661e-88
3.26897e-88
3.28866e-88
3.73285e-88
1.27624e-88
2.67708e-88
4.30458e-88
-3.31226e-90
-7.88581e-89
-9.5858e-89
-6.94914e-89
4.41232e-89
-2.17943e-89
7.35957e-89
-2.19225e-89
2.09424e-88
5.1886e-88
6.17565e-88
1.46767e-88
5.21774e-89
8.78075e-89
4.90414e-88
1.26645e-88
6.81481e-88
3.00145e-88
1.45782e-88
1.22539e-88
4.6215e-89
4.31308e-89
3.04766e-88
1.46084e-88
4.04378e-88
2.37811e-88
2.31604e-88
2.3706e-88
2.41908e-88
3.07995e-88
2.58345e-88
3.01972e-88
3.13691e-88
3.24632e-88
3.17808e-88
2.95311e-88
3.6501e-88
4.28875e-88
4.03286e-88
5.02388e-88
4.69799e-88
4.64906e-88
4.6208e-88
4.50136e-88
4.46943e-88
4.51068e-88
4.71681e-88
4.97296e-88
5.21485e-88
5.71414e-88
5.5567e-88
6.76426e-88
6.60942e-88
6.73296e-88
7.63409e-88
8.53466e-88
7.77435e-88
1.16791e-87
1.02119e-87
1.22028e-87
1.27149e-87
1.33054e-87
1.36278e-87
1.42775e-87
1.38244e-87
1.21381e-87
1.532e-87
1.53981e-87
1.53589e-87
1.41254e-87
1.45502e-87
1.6001e-87
1.52944e-87
1.53051e-87
1.56725e-87
1.5495e-87
1.24887e-87
1.6098e-87
1.79242e-87
1.66176e-87
1.74378e-87
1.80496e-87
1.85229e-87
1.87715e-87
1.89527e-87
1.91635e-87
1.93215e-87
1.9316e-87
1.95079e-87
1.41811e-87
1.18739e-87
1.18192e-87
1.22275e-87
1.27337e-87
1.32143e-87
1.363e-87
1.39703e-87
1.42508e-87
1.44763e-87
1.46589e-87
1.4801e-87
1.49166e-87
1.50066e-87
1.50785e-87
1.51313e-87
1.5172e-87
1.52004e-87
1.52194e-87
1.52246e-87
1.52418e-87
1.52625e-87
1.53055e-87
1.53849e-87
1.55897e-87
1.61089e-87
1.69225e-87
1.76544e-87
1.77847e-87
1.78844e-87
1.79494e-87
1.80167e-87
1.80899e-87
1.81598e-87
1.82594e-87
1.82993e-87
1.83847e-87
1.84034e-87
1.84281e-87
1.83786e-87
1.83048e-87
1.82394e-87
1.82028e-87
1.81386e-87
1.802e-87
1.74376e-87
1.69986e-87
1.67319e-87
1.67517e-87
1.6911e-87
1.70701e-87
1.71209e-87
1.68747e-87
1.70558e-87
1.71809e-87
1.74681e-87
1.78539e-87
1.82417e-87
1.88298e-87
1.97974e-87
2.07234e-87
2.1832e-87
2.24334e-87
2.26636e-87
2.30515e-87
2.36404e-87
2.43642e-87
2.57769e-87
2.92754e-87
3.48605e-87
3.92176e-87
4.05076e-87
4.43475e-87
4.1718e-87
5.73238e-87
5.64404e-87
-2.34935e-89
2.69086e-88
3.42437e-89
-3.91332e-88
-3.49513e-88
2.51833e-88
1.00915e-87
9.15157e-88
6.77176e-88
5.15685e-88
2.86348e-88
1.98794e-88
-1.2833e-89
6.0612e-89
1.55753e-88
-1.49194e-89
-4.7853e-89
1.43313e-88
1.36243e-89
1.12272e-88
7.24878e-89
-7.59118e-89
9.55028e-89
1.50901e-88
2.02008e-88
3.72294e-88
1.234e-88
4.2785e-89
5.57634e-89
2.32181e-88
1.21812e-88
3.13213e-88
1.86518e-88
1.29079e-88
1.09682e-88
1.39728e-88
1.27205e-88
2.71429e-88
1.84573e-88
2.61718e-88
1.90893e-88
1.98083e-88
2.01478e-88
2.10329e-88
3.18847e-88
3.22849e-88
3.65482e-88
3.93886e-88
4.06291e-88
4.01103e-88
3.40917e-88
5.45605e-88
2.88937e-88
6.66573e-88
4.91671e-88
5.00859e-88
4.8439e-88
4.99458e-88
5.18594e-88
5.37512e-88
5.64627e-88
5.9417e-88
6.25561e-88
6.51591e-88
6.63363e-88
6.50866e-88
6.61848e-88
7.32804e-88
9.22127e-88
1.02995e-87
1.13301e-87
1.02636e-87
1.30349e-87
1.18625e-87
1.27697e-87
1.3278e-87
1.38886e-87
1.40201e-87
1.43382e-87
1.37295e-87
1.17085e-87
1.56257e-87
1.58868e-87
1.64086e-87
1.37664e-87
1.41175e-87
1.65949e-87
1.56783e-87
1.5927e-87
1.64128e-87
1.62711e-87
1.30927e-87
1.76943e-87
1.93395e-87
1.77915e-87
1.84134e-87
1.87932e-87
1.93552e-87
1.98082e-87
2.01131e-87
2.03996e-87
2.05891e-87
2.05607e-87
2.07841e-87
1.54183e-87
1.2626e-87
1.24716e-87
1.30374e-87
1.37035e-87
1.42758e-87
1.47583e-87
1.51529e-87
1.54758e-87
1.57288e-87
1.59265e-87
1.60749e-87
1.61894e-87
1.6271e-87
1.63278e-87
1.63588e-87
1.63713e-87
1.63638e-87
1.63391e-87
1.62886e-87
1.61868e-87
1.60579e-87
1.59018e-87
1.57269e-87
1.56496e-87