/*--------------------------------*- C++ -*----------------------------------*\
| =========                 |                                                 |
| \\      /  F ield         | OpenFOAM: The Open Source CFD Toolbox           |
|  \\    /   O peration     | Version:  2112                                  |
|   \\  /    A nd           | Website:  www.openfoam.com                      |
|    \\/     M anipulation  |                                                 |
\*---------------------------------------------------------------------------*/
FoamFile
{
    version     2.0;
    format      ascii;
    arch        "LSB;label=32;scalar=64";
    class       volVectorField;
    location    "0.11";
    object      U;
}
// * * * * * * * * * * * * * * * * * * * * * * * * * * * * * * * * * * * * * //

dimensions      [0 1 -1 0 0 0 0];

internalField   nonuniform List<vector> 
122250
(
(9.80587 0.10318 0.00117344)
(9.43956 0.114724 0.0120955)
(9.08683 0.0938301 0.0186167)
(8.74338 0.0778844 0.0217503)
(8.42882 0.0657379 0.0238633)
(8.15127 0.0553089 0.0259409)
(7.90875 0.046578 0.0281295)
(7.69362 0.0394927 0.0303658)
(7.50658 0.0331625 0.0326231)
(7.33824 0.0278414 0.0349393)
(7.20628 0.0219753 0.0373353)
(7.07818 0.018724 0.0398723)
(7.01307 0.0103838 0.0425039)
(6.91549 0.0134708 0.0453662)
(6.94376 -0.0081812 0.0484303)
(6.87116 0.0175417 0.0520713)
(7.03551 -0.0585392 0.0560926)
(7.00088 0.0274743 0.0614301)
(10.0762 0.0394525 0.00255842)
(10.1832 0.0755567 0.0120378)
(10.2246 0.0721835 0.0184648)
(10.2065 0.0730609 0.0217468)
(10.1587 0.0754825 0.023876)
(10.0998 0.0754725 0.0259324)
(10.0385 0.0743806 0.0281093)
(9.97538 0.0722322 0.0303363)
(9.91514 0.0707378 0.0325798)
(9.85433 0.0663424 0.0348775)
(9.80446 0.0641136 0.0372595)
(9.75389 0.0558364 0.0397696)
(9.72807 0.0534334 0.0423971)
(9.6971 0.0389244 0.0452189)
(9.71513 0.0350633 0.0483355)
(9.71433 0.00866155 0.0518406)
(9.80288 -0.010312 0.0559518)
(9.85333 -0.070179 0.0610507)
(10.0555 0.0404016 0.00513292)
(10.141 0.0892645 0.0124378)
(10.2132 0.087659 0.0184603)
(10.2534 0.0866854 0.0218528)
(10.2759 0.088814 0.0239803)
(10.2931 0.0891193 0.0259745)
(10.3099 0.0874251 0.0281064)
(10.3255 0.0846802 0.0303064)
(10.3407 0.0815581 0.0325189)
(10.3547 0.077455 0.0347823)
(10.3704 0.071947 0.0371299)
(10.3871 0.0656024 0.0396113)
(10.4108 0.055103 0.0422109)
(10.4397 0.0456614 0.0450142)
(10.4838 0.0247643 0.0480705)
(10.538 0.0061076 0.0515653)
(10.616 -0.0388754 0.0556119)
(10.7032 -0.0907165 0.0607315)
(10.0517 0.0165031 0.00707076)
(10.1178 0.0669132 0.0128116)
(10.1821 0.0698215 0.0183104)
(10.223 0.0686198 0.0217931)
(10.2487 0.071496 0.0239854)
(10.2709 0.0734179 0.0259424)
(10.2948 0.073039 0.028028)
(10.32 0.0707799 0.0302016)
(10.3462 0.0684685 0.0323998)
(10.3733 0.0648217 0.0346451)
(10.402 0.0608515 0.0369795)
(10.4331 0.0539884 0.0394331)
(10.4688 0.0454404 0.0420212)
(10.5109 0.032141 0.0447912)
(10.5624 0.0143325 0.0478358)
(10.6241 -0.0127025 0.051259)
(10.6986 -0.0535473 0.0551468)
(10.7816 -0.112765 0.0601451)
(10.0485 0.00335283 0.00889419)
(10.1012 0.0556995 0.0134274)
(10.1588 0.0654826 0.0183252)
(10.1993 0.0660639 0.0218004)
(10.2256 0.0691648 0.0240613)
(10.2476 0.0718433 0.025987)
(10.2709 0.0719621 0.0280091)
(10.296 0.0700031 0.0301389)
(10.3224 0.0673762 0.0323103)
(10.3499 0.0639658 0.0345297)
(10.3792 0.0593794 0.0368312)
(10.4112 0.052464 0.0392499)
(10.4471 0.0422929 0.0418021)
(10.4891 0.0276536 0.044529)
(10.5385 0.0065789 0.0475177)
(10.5966 -0.0233175 0.0508418)
(10.6632 -0.0656751 0.0546566)
(10.7359 -0.126849 0.0592685)
(10.0457 -0.00746312 0.0105333)
(10.0879 0.0427712 0.0141492)
(10.1386 0.0572572 0.0184214)
(10.1781 0.0595376 0.0217906)
(10.205 0.0622695 0.0241004)
(10.227 0.0648558 0.0260088)
(10.2499 0.0651959 0.0279665)
(10.2746 0.0633243 0.0300387)
(10.3006 0.0605551 0.0321711)
(10.3279 0.0569772 0.0343552)
(10.3568 0.0521221 0.036618)
(10.388 0.0447072 0.0389846)
(10.4228 0.0336497 0.0414855)
(10.4625 0.0175634 0.0441422)
(10.5084 -0.00528412 0.0470277)
(10.5612 -0.0370643 0.0502341)
(10.6195 -0.0804659 0.0538206)
(10.6822 -0.140077 0.0582699)
(10.043 -0.0156947 0.0120121)
(10.077 0.0306762 0.0149364)
(10.1212 0.0484404 0.018611)
(10.1589 0.0528578 0.0217994)
(10.1861 0.0556794 0.0241278)
(10.2083 0.0582367 0.0260307)
(10.2308 0.058852 0.02793)
(10.2549 0.0572782 0.0299363)
(10.2804 0.0545675 0.0320168)
(10.3072 0.0510114 0.034155)
(10.3355 0.0460635 0.0363648)
(10.3658 0.0383926 0.0386719)
(10.3991 0.0268135 0.0411043)
(10.4363 0.00980245 0.0436716)
(10.4782 -0.0137842 0.0464357)
(10.5252 -0.0466188 0.0494669)
(10.5759 -0.0899342 0.0528159)
(10.6291 -0.147256 0.0568326)
(10.0404 -0.0223458 0.0133416)
(10.0682 0.0193982 0.0157515)
(10.1064 0.0391978 0.0188889)
(10.1416 0.045904 0.0218424)
(10.1687 0.0492444 0.0241488)
(10.191 0.0517582 0.0260468)
(10.2131 0.0524741 0.0278929)
(10.2365 0.0510798 0.0298254)
(10.2613 0.0484247 0.0318392)
(10.2874 0.0448503 0.0339176)
(10.3149 0.0397986 0.0360646)
(10.344 0.0318826 0.0382919)
(10.3754 0.0198249 0.0406321)
(10.4097 0.00206137 0.0430839)
(10.4474 -0.0221496 0.0456922)
(10.4887 -0.0552429 0.0485126)
(10.532 -0.097739 0.0515814)
(10.5762 -0.152613 0.0552513)
(10.0379 -0.0276477 0.014538)
(10.0609 0.00936819 0.0165672)
(10.0939 0.0298918 0.0192404)
(10.1262 0.0385689 0.0219287)
(10.1527 0.0426869 0.0241692)
(10.175 0.0451923 0.0260514)
(10.1966 0.0458537 0.0278467)
(10.2192 0.0445221 0.0297004)
(10.2431 0.0419161 0.031634)
(10.2683 0.0383428 0.0336367)
(10.2946 0.0332442 0.0357014)
(10.3222 0.0251974 0.0378372)
(10.3513 0.0129546 0.0400595)
(10.3826 -0.00508606 0.0423712)
(10.4162 -0.0293234 0.0447967)
(10.4517 -0.0618508 0.0473718)
(10.488 -0.10289 0.0501176)
(10.5236 -0.155003 0.05334)
(10.0353 -0.0319869 0.0156151)
(10.0547 0.000493484 0.0173613)
(10.0832 0.0207725 0.0196442)
(10.1125 0.0309372 0.0220599)
(10.138 0.0359309 0.0241951)
(10.16 0.0384989 0.0260421)
(10.181 0.0390196 0.0277848)
(10.2027 0.0376545 0.0295568)
(10.2256 0.0351017 0.0313992)
(10.2497 0.0316095 0.0333111)
(10.2746 0.0266037 0.0352796)
(10.3004 0.018652 0.0372978)
(10.3272 0.00654287 0.039385)
(10.3552 -0.0111909 0.0415335)
(10.3844 -0.0349967 0.0437488)
(10.4144 -0.0664301 0.0460477)
(10.444 -0.10541 0.0484369)
(10.4717 -0.154151 0.0511897)
(10.0327 -0.0356213 0.0165844)
(10.0493 -0.00724356 0.0181181)
(10.074 0.0121168 0.0200786)
(10.1004 0.0232019 0.0222305)
(10.1244 0.0290458 0.0242303)
(10.1458 0.0317842 0.0260183)
(10.1663 0.0321717 0.0277025)
(10.187 0.0307403 0.0293902)
(10.2087 0.0282629 0.0311323)
(10.2314 0.0249426 0.0329386)
(10.2548 0.0201738 0.0347934)
(10.2786 0.0125355 0.0366796)
(10.3028 0.000843635 0.0386062)
(10.3274 -0.016231 0.0405694)
(10.3525 -0.0389995 0.04255)
(10.3771 -0.0687524 0.0445492)
(10.4006 -0.105039 0.0465607)
(10.4211 -0.149795 0.0488313)
(10.0302 -0.0385468 0.0173804)
(10.0449 -0.0135558 0.0187669)
(10.0667 0.00459116 0.0204842)
(10.0905 0.0160425 0.0224108)
(10.1129 0.0225399 0.0242683)
(10.1335 0.0255004 0.0259801)
(10.1533 0.0257978 0.027601)
(10.1732 0.024292 0.0292079)
(10.1937 0.021897 0.0308511)
(10.215 0.0188108 0.032548)
(10.2368 0.0143963 0.0342842)
(10.2586 0.00724234 0.0360376)
(10.2804 -0.00383361 0.0377975)
(10.3019 -0.0199607 0.0395708)
(10.3232 -0.0413506 0.0413214)
(10.3434 -0.0690842 0.0430346)
(10.3617 -0.102386 0.0446955)
(10.3764 -0.143034 0.046531)
(10.0276 -0.0410601 0.0181077)
(10.0408 -0.0190763 0.0193771)
(10.0601 -0.00236014 0.0208922)
(10.0816 0.00903469 0.0226128)
(10.1024 0.0159853 0.0243227)
(10.1219 0.0192101 0.0259432)
(10.1409 0.0194928 0.0274914)
(10.1597 0.0179414 0.0290142)
(10.179 0.0156593 0.0305539)
(10.1987 0.0128991 0.0321333)
(10.2188 0.00899595 0.0337398)
(10.2386 0.00256168 0.0353433)
(10.2578 -0.00756235 0.0369355)
(10.2764 -0.0224512 0.0385067)
(10.2941 -0.0420908 0.0400241)
(10.3101 -0.0673754 0.0414536)
(10.3238 -0.0973281 0.0427738)
(10.3334 -0.133525 0.0441974)
(10.0246 -0.0436312 0.0188492)
(10.0363 -0.0246577 0.0200123)
(10.0533 -0.00964094 0.0213336)
(10.0723 0.0014094 0.0228485)
(10.0912 0.00864327 0.0243898)
(10.1094 0.0121514 0.0258904)
(10.1273 0.0124902 0.0273414)
(10.1448 0.010946 0.0287614)
(10.1626 0.00884778 0.0301754)
(10.1806 0.00657481 0.0316111)
(10.1986 0.0034238 0.0330587)
(10.2159 -0.00200198 0.0344849)
(10.2324 -0.0107138 0.0358677)
(10.2477 -0.0237981 0.0371972)
(10.2618 -0.04107 0.038447)
(10.2735 -0.0631942 0.0395612)
(10.2827 -0.0889945 0.0405119)
(10.2877 -0.11981 0.0415008)
(10.021 -0.0462657 0.0195812)
(10.0314 -0.030229 0.020649)
(10.0462 -0.0170751 0.0217926)
(10.0628 -0.00672173 0.0231053)
(10.0796 0.000579477 0.0244622)
(10.0961 0.00430336 0.0258146)
(10.1125 0.00474372 0.0271395)
(10.1286 0.00327781 0.0284366)
(10.1445 0.00149146 0.0296968)
(10.1604 -0.000103146 0.0309604)
(10.176 -0.0021428 0.0322142)
(10.1908 -0.00606056 0.0334302)
(10.2044 -0.0128721 0.0345778)
(10.2164 -0.0235065 0.035639)
(10.2268 -0.0376961 0.036587)
(10.2346 -0.0558479 0.0373708)
(10.2398 -0.0766465 0.0379492)
(10.2408 -0.101156 0.0385136)
(10.0168 -0.0489491 0.0202747)
(10.0259 -0.0356828 0.0212581)
(10.0388 -0.0244532 0.0222402)
(10.0531 -0.0150865 0.0233592)
(10.0676 -0.00797684 0.0245267)
(10.0822 -0.0041106 0.0257054)
(10.0967 -0.00350538 0.0268696)
(10.111 -0.00474522 0.0279936)
(10.125 -0.00602387 0.0290999)
(10.1387 -0.00664813 0.0301759)
(10.1518 -0.00718662 0.0312143)
(10.1638 -0.00905065 0.032191)
(10.1745 -0.0133744 0.0330776)
(10.1834 -0.0209719 0.0338505)
(10.1905 -0.0314537 0.0344865)
(10.1951 -0.0449483 0.0349508)
(10.1973 -0.06011 0.0351919)
(10.1957 -0.0776404 0.0353851)
(10.0119 -0.0516716 0.0208958)
(10.0199 -0.0409256 0.0218041)
(10.0309 -0.0315873 0.022641)
(10.043 -0.0233312 0.0235801)
(10.0553 -0.0166633 0.0245584)
(10.0678 -0.012763 0.0255532)
(10.0803 -0.0119042 0.0265403)
(10.0926 -0.0126974 0.0274934)
(10.1045 -0.0132317 0.028404)
(10.1158 -0.0125789 0.029268)
(10.1266 -0.0112878 0.0300747)
(10.1361 -0.0107302 0.0308008)
(10.1442 -0.0120639 0.0314211)
(10.1506 -0.0160473 0.0319169)
(10.1553 -0.0223318 0.0322665)
(10.1578 -0.0307542 0.0324435)
(10.1583 -0.0400626 0.0324191)
(10.1557 -0.0505226 0.0323422)
(10.0064 -0.0544164 0.0214074)
(10.0133 -0.0458714 0.0222482)
(10.0226 -0.0382983 0.0229566)
(10.0327 -0.0312075 0.0237332)
(10.0429 -0.0250962 0.0245337)
(10.0534 -0.021262 0.0253452)
(10.0639 -0.0201163 0.0261474)
(10.0741 -0.0203405 0.026914)
(10.0839 -0.0199586 0.027628)
(10.0932 -0.0178706 0.0282781)
(10.1018 -0.0144943 0.0288569)
(10.1095 -0.0111766 0.029347)
(10.1159 -0.00920031 0.029729)
(10.1209 -0.00931928 0.029988)
(10.1244 -0.0113343 0.0301088)
(10.1262 -0.0148543 0.0300762)
(10.1266 -0.0188176 0.0298748)
(10.125 -0.0229427 0.0296602)
(10.0002 -0.057147 0.021772)
(10.0062 -0.0504429 0.0225522)
(10.014 -0.0444123 0.0231501)
(10.0223 -0.0384635 0.0237877)
(10.0308 -0.0329914 0.0244326)
(10.0395 -0.0292467 0.025077)
(10.0483 -0.0277159 0.0257051)
(10.0568 -0.0272219 0.0262937)
(10.0649 -0.0258598 0.0268235)
(10.0726 -0.0224676 0.0272866)
(10.0799 -0.0173152 0.0276725)
(10.0866 -0.0116047 0.0279728)
(10.0927 -0.00667469 0.0281764)
(10.0977 -0.00335982 0.0282714)
(10.1018 -0.00172584 0.02825)
(10.1045 -0.00129997 0.0281144)
(10.1064 -0.0013127 0.0278555)
(10.1071 -0.00103257 0.0276261)
(9.99495 -0.0593016 0.021916)
(10.0003 -0.0539441 0.0226636)
(10.0073 -0.049095 0.0231999)
(10.0147 -0.0440898 0.0237613)
(10.0224 -0.0392401 0.0243186)
(10.0303 -0.0356771 0.024863)
(10.0382 -0.0338621 0.0253824)
(10.046 -0.0327594 0.025861)
(10.0534 -0.0306805 0.0262822)
(10.0605 -0.0265797 0.0266341)
(10.0675 -0.0206633 0.0269125)
(10.0742 -0.0139559 0.0271152)
(10.0809 -0.00765215 0.0272514)
(10.0871 -0.00249358 0.0272973)
(10.0928 0.0012541 0.0272499)
(10.0977 0.00402741 0.0271089)
(10.1021 0.00628437 0.0268779)
(10.1056 0.00874193 0.0267091)
(9.99137 -0.0607547 0.0219342)
(9.99638 -0.0563872 0.0226664)
(10.003 -0.0524585 0.0231781)
(10.0101 -0.0482231 0.0237097)
(10.0176 -0.043919 0.0242302)
(10.0253 -0.040579 0.0247261)
(10.033 -0.0386428 0.0251865)
(10.0406 -0.0371947 0.025603)
(10.0479 -0.0347516 0.0259651)
(10.0549 -0.0304313 0.0262639)
(10.0619 -0.0244427 0.0264993)
(10.0691 -0.0177015 0.0266728)
(10.0765 -0.0112606 0.0267654)
(10.0838 -0.00570953 0.0267915)
(10.091 -0.00128486 0.0267436)
(10.0979 0.00235797 0.0266188)
(10.1044 0.00556902 0.0264329)
(10.1105 0.00898793 0.0263318)
(9.98868 -0.0619149 0.0218835)
(9.99352 -0.05852 0.0226123)
(10.0001 -0.0554874 0.0231221)
(10.0075 -0.0519611 0.0236542)
(10.0153 -0.0481207 0.024169)
(10.0232 -0.0449692 0.0246433)
(10.0309 -0.0429712 0.0250673)
(10.0385 -0.0413346 0.0254428)
(10.0459 -0.0387415 0.0257678)
(10.0532 -0.0344244 0.0260361)
(10.0607 -0.0286269 0.0262461)
(10.0686 -0.0221892 0.0263988)
(10.0769 -0.0160475 0.0264922)
(10.0854 -0.0106968 0.0265272)
(10.0939 -0.00629198 0.0264864)
(10.1022 -0.00253387 0.0263968)
(10.1106 0.000855247 0.0262536)
(10.1186 0.00446627 0.026212)
(9.98668 -0.0629509 0.0217835)
(9.99155 -0.0606814 0.0225216)
(9.99852 -0.0585365 0.023051)
(10.0065 -0.0555838 0.0236071)
(10.015 -0.0520804 0.024136)
(10.0234 -0.0490963 0.0246025)
(10.0314 -0.0471319 0.0250012)
(10.0392 -0.0454656 0.0253493)
(10.047 -0.042902 0.0256551)
(10.0548 -0.0387886 0.0259111)
(10.0629 -0.0334119 0.0261117)
(10.0715 -0.0275361 0.0262571)
(10.0807 -0.0219561 0.0263458)
(10.0903 -0.0170518 0.0263724)
(10.1 -0.0129197 0.0263605)
(10.1097 -0.00922178 0.0262903)
(10.1195 -0.0057851 0.0261944)
(10.129 -0.00211864 0.0262028)
(9.98521 -0.0640049 0.0216406)
(9.99042 -0.0631838 0.022406)
(9.99822 -0.061909 0.0229819)
(10.0073 -0.0592241 0.0235822)
(10.0167 -0.055768 0.0241323)
(10.0256 -0.0528523 0.0245895)
(10.0341 -0.0509767 0.0249632)
(10.0423 -0.049392 0.0252925)
(10.0506 -0.0469909 0.0255931)
(10.0591 -0.0432673 0.0258517)
(10.068 -0.0385481 0.0260556)
(10.0775 -0.0335042 0.0262052)
(10.0877 -0.0287651 0.0263029)
(10.0983 -0.0245786 0.0263499)
(10.1092 -0.0209906 0.0263548)
(10.1201 -0.0177071 0.0263266)
(10.1311 -0.014586 0.0262441)
(10.1418 -0.0112207 0.0262828)
(9.98415 -0.0651753 0.0214555)
(9.99008 -0.0661814 0.0222679)
(9.99937 -0.0659029 0.0229262)
(10.0099 -0.0633366 0.0235957)
(10.0204 -0.0596703 0.0241668)
(10.0299 -0.0566096 0.0246023)
(10.0388 -0.0545902 0.024944)
(10.0475 -0.0527724 0.0252569)
(10.0566 -0.0502019 0.0255578)
(10.0659 -0.046587 0.0258208)
(10.0757 -0.0423026 0.0260258)
(10.086 -0.0378913 0.0261754)
(10.0971 -0.0338011 0.0262769)
(10.1087 -0.0301525 0.0263342)
(10.1206 -0.0269423 0.0263514)
(10.1324 -0.0239197 0.0263335)
(10.1443 -0.0209793 0.0262832)
(10.1559 -0.017807 0.0263601)
(9.98339 -0.0665872 0.0212339)
(9.99046 -0.0692067 0.0221086)
(10.0018 -0.0699378 0.0228693)
(10.0144 -0.0681753 0.0236331)
(10.0262 -0.0654993 0.0242394)
(10.0365 -0.0634501 0.02466)
(10.0459 -0.0620225 0.0249824)
(10.0555 -0.0603278 0.025294)
(10.0655 -0.0578017 0.0256032)
(10.0758 -0.0544976 0.025871)
(10.0865 -0.0508367 0.0260757)
(10.0978 -0.0471832 0.0262253)
(10.1098 -0.0438058 0.0263318)
(10.1223 -0.0407229 0.0263995)
(10.1351 -0.0379026 0.02643)
(10.1478 -0.0350958 0.0264274)
(10.1605 -0.0322215 0.026395)
(10.1728 -0.0290673 0.0264887)
(9.98289 -0.0693992 0.0209965)
(9.99168 -0.0713718 0.021963)
(10.0052 -0.0685608 0.0227847)
(10.0197 -0.064306 0.0235831)
(10.0328 -0.0612102 0.0241861)
(10.0442 -0.0596828 0.0245937)
(10.055 -0.0586959 0.0249237)
(10.066 -0.057244 0.0252582)
(10.0773 -0.0550918 0.0255861)
(10.0888 -0.0524905 0.0258617)
(10.1006 -0.0497712 0.02607)
(10.1129 -0.0470946 0.0262257)
(10.126 -0.0446173 0.0263415)
(10.1394 -0.0422536 0.0264212)
(10.153 -0.0400601 0.0264665)
(10.1665 -0.0377612 0.0264829)
(10.1798 -0.0353624 0.0264712)
(10.1925 -0.0324597 0.0265821)
(9.98322 -0.0777387 0.0207228)
(9.99842 -0.0898491 0.0220763)
(10.0168 -0.0895464 0.0230517)
(10.0338 -0.0849803 0.023818)
(10.048 -0.0812583 0.0243353)
(10.0601 -0.0787074 0.0246896)
(10.0713 -0.0762609 0.0250092)
(10.0822 -0.073358 0.0253488)
(10.0928 -0.0701894 0.0256762)
(10.1031 -0.0668612 0.0259435)
(10.1134 -0.0636497 0.0261437)
(10.124 -0.0604299 0.0262947)
(10.135 -0.0575122 0.0264102)
(10.146 -0.0544594 0.0264919)
(10.157 -0.0517699 0.026539)
(10.1675 -0.0486919 0.0265616)
(10.1781 -0.0459088 0.0265654)
(10.1881 -0.0421965 0.026703)
(9.99955 -0.058187 0.019838)
(10.0309 -0.0590244 0.0215109)
(10.0469 -0.0613948 0.022803)
(10.0468 -0.0621097 0.0237019)
(10.0348 -0.0628377 0.0242511)
(10.0156 -0.0635021 0.0246327)
(9.9926 -0.0633544 0.0249863)
(9.96806 -0.0626348 0.0253515)
(9.94319 -0.0617056 0.0256965)
(9.9185 -0.0607481 0.0259839)
(9.89467 -0.0596458 0.0262045)
(9.87195 -0.0584767 0.0263757)
(9.85081 -0.0570936 0.0265076)
(9.83059 -0.0556343 0.0266061)
(9.81212 -0.0539719 0.0266632)
(9.79404 -0.0521441 0.0267034)
(9.779 -0.0505752 0.0267192)
(9.76348 -0.0488869 0.0269389)
(9.79812 -0.137302 0.0211263)
(9.47721 -0.120659 0.0220287)
(9.19828 -0.101185 0.0229782)
(8.94886 -0.0860249 0.0237799)
(8.72267 -0.0742361 0.0242844)
(8.51804 -0.0646342 0.024651)
(8.3341 -0.0562644 0.0250029)
(8.1698 -0.0490624 0.0253638)
(8.02229 -0.0432105 0.0257044)
(7.88884 -0.038432 0.0259881)
(7.76685 -0.0346842 0.0262098)
(7.65591 -0.0311769 0.0263823)
(7.55423 -0.0285763 0.0265218)
(7.46231 -0.0252368 0.0266224)
(7.37808 -0.0237663 0.0266952)
(7.30229 -0.0195496 0.0267231)
(7.23379 -0.0207749 0.0267278)
(7.169 -0.0146125 0.0267639)
(9.81763 0.0955549 -0.0028399)
(9.46295 0.111195 -0.00311976)
(9.11296 0.0937816 -0.00337857)
(8.76512 0.079898 -0.00367248)
(8.43934 0.0687577 -0.0040844)
(8.14593 0.0590427 -0.00464373)
(7.88218 0.0509147 -0.00535864)
(7.6429 0.0440863 -0.00625281)
(7.4224 0.0382072 -0.00735683)
(7.22129 0.03286 -0.00872402)
(7.03292 0.0284182 -0.0104123)
(6.86203 0.0247818 -0.012471)
(6.68655 0.0232333 -0.0149485)
(6.52908 0.0218 -0.0180731)
(6.32982 0.0277585 -0.0218039)
(6.15235 0.0273727 -0.0267371)
(5.88575 0.0525016 -0.0327456)
(5.63135 0.0581384 -0.0410643)
(10.0731 0.036052 -0.00276608)
(10.1838 0.072333 -0.00308004)
(10.2343 0.0692577 -0.0033535)
(10.2261 0.0708337 -0.003654)
(10.1852 0.0741092 -0.00406593)
(10.1295 0.0755783 -0.00461911)
(10.0661 0.0756913 -0.0053291)
(9.99729 0.0757635 -0.00621683)
(9.92283 0.0753199 -0.00731118)
(9.84447 0.0749382 -0.0086622)
(9.76138 0.0736654 -0.0103092)
(9.6756 0.0738227 -0.0123516)
(9.58234 0.0740129 -0.0148031)
(9.48515 0.0780561 -0.0178074)
(9.37575 0.085275 -0.0215261)
(9.25617 0.0984568 -0.026087)
(9.11997 0.125196 -0.0318205)
(8.95165 0.169487 -0.0384261)
(10.053 0.0357895 -0.00279013)
(10.133 0.0850434 -0.00309124)
(10.2011 0.0844065 -0.0033595)
(10.2388 0.0845328 -0.00364927)
(10.2583 0.0881376 -0.00405274)
(10.2717 0.0900761 -0.00460236)
(10.283 0.089923 -0.00530739)
(10.2916 0.0891828 -0.00618675)
(10.2965 0.0883751 -0.00726724)
(10.296 0.0875519 -0.00859989)
(10.2903 0.0867451 -0.0102363)
(10.2772 0.0863087 -0.0122165)
(10.2574 0.0874935 -0.014592)
(10.2278 0.0909423 -0.0174812)
(10.1925 0.100099 -0.0209682)
(10.1447 0.115471 -0.0252104)
(10.0945 0.145133 -0.030258)
(10.0302 0.193786 -0.0359533)
(10.0495 0.0123767 -0.00279469)
(10.1112 0.0628789 -0.00307647)
(10.1709 0.0664906 -0.00334808)
(10.2072 0.0656258 -0.00363821)
(10.2268 0.0691244 -0.00403595)
(10.241 0.0722394 -0.00458006)
(10.2549 0.0730764 -0.00527806)
(10.2681 0.0728455 -0.00614532)
(10.2795 0.0726744 -0.00720995)
(10.2876 0.0729819 -0.0085148)
(10.292 0.0737283 -0.0100948)
(10.2913 0.0749218 -0.0120319)
(10.2847 0.0777175 -0.0143302)
(10.2715 0.0828375 -0.0170628)
(10.2529 0.0932326 -0.0203235)
(10.2295 0.110414 -0.024143)
(10.2037 0.139348 -0.0284572)
(10.1799 0.182874 -0.0333572)
(10.0463 -0.000149309 -0.00279183)
(10.0951 0.0523343 -0.00305786)
(10.1483 0.063257 -0.00333198)
(10.1843 0.0645921 -0.00362387)
(10.2047 0.0685812 -0.00401228)
(10.2188 0.072716 -0.00454539)
(10.232 0.0745587 -0.00523255)
(10.2447 0.0748972 -0.00608563)
(10.2557 0.0751519 -0.00712902)
(10.264 0.0759815 -0.00840231)
(10.2687 0.0773445 -0.00995554)
(10.2692 0.0790931 -0.0117989)
(10.2641 0.082072 -0.0139908)
(10.2537 0.0874915 -0.0165529)
(10.2383 0.0970126 -0.0195436)
(10.2207 0.113192 -0.0229459)
(10.2015 0.137585 -0.0267327)
(10.1873 0.173397 -0.0306998)
(10.0435 -0.0106406 -0.00278701)
(10.0822 0.0395839 -0.00304104)
(10.1286 0.0550636 -0.00331373)
(10.1636 0.0581568 -0.00360833)
(10.1847 0.061705 -0.00398879)
(10.1991 0.0656582 -0.00450833)
(10.2121 0.0677585 -0.00518154)
(10.2246 0.0683017 -0.00601662)
(10.2356 0.0686778 -0.00703389)
(10.2442 0.0697073 -0.00826647)
(10.2495 0.0714242 -0.00974125)
(10.251 0.0735234 -0.0115181)
(10.2476 0.0766421 -0.013584)
(10.2394 0.0820653 -0.0159506)
(10.2271 0.0906923 -0.0186402)
(10.2132 0.104989 -0.0216482)
(10.1989 0.124831 -0.0248457)
(10.1897 0.153243 -0.028244)
(10.0408 -0.0187315 -0.00278012)
(10.0717 0.0277233 -0.00302124)
(10.1116 0.0465116 -0.00329036)
(10.1448 0.0519582 -0.00358649)
(10.1663 0.0557539 -0.00395947)
(10.1811 0.0597276 -0.00446336)
(10.194 0.0622662 -0.00511803)
(10.2062 0.0633423 -0.00593028)
(10.2172 0.0641962 -0.00691553)
(10.2261 0.0657267 -0.00810087)
(10.232 0.0680328 -0.00952315)
(10.2345 0.0706963 -0.0111767)
(10.2327 0.0740884 -0.0131094)
(10.2267 0.0793574 -0.0152728)
(10.2171 0.0870303 -0.017672)
(10.2065 0.0988649 -0.0202794)
(10.1961 0.114394 -0.0229698)
(10.1907 0.13529 -0.0256709)
(10.0383 -0.0251542 -0.00276862)
(10.0631 0.0167245 -0.0029984)
(10.0972 0.0374971 -0.00326188)
(10.1279 0.0453787 -0.00355821)
(10.1495 0.0498808 -0.003924)
(10.1646 0.0539104 -0.00441089)
(10.1774 0.0566864 -0.00504298)
(10.1894 0.0581514 -0.00582723)
(10.2002 0.0594129 -0.00677436)
(10.2093 0.0613542 -0.00790424)
(10.2157 0.0640786 -0.00923179)
(10.219 0.0671529 -0.0108011)
(10.2186 0.0704849 -0.0125714)
(10.2145 0.075211 -0.0145238)
(10.2072 0.0815423 -0.0166342)
(10.1993 0.0907451 -0.0188645)
(10.1917 0.101892 -0.0211026)
(10.1882 0.115939 -0.0233304)
(10.0357 -0.0303064 -0.00275279)
(10.056 0.0069705 -0.00297295)
(10.0851 0.0284551 -0.00322895)
(10.1129 0.0383952 -0.00352302)
(10.134 0.0438501 -0.00388085)
(10.1493 0.0480016 -0.00434959)
(10.1621 0.0508536 -0.00495547)
(10.1737 0.0525527 -0.00570648)
(10.1843 0.0541418 -0.00660926)
(10.1935 0.0564383 -0.0076774)
(10.2002 0.059494 -0.00892878)
(10.2042 0.0628909 -0.0103523)
(10.205 0.0660968 -0.0119721)
(10.2025 0.0701624 -0.0137114)
(10.1971 0.0751334 -0.0155487)
(10.191 0.0817267 -0.0174319)
(10.1852 0.0888868 -0.0192668)
(10.1824 0.0969892 -0.0210376)
(10.0332 -0.0345302 -0.00273199)
(10.05 -0.00163753 -0.00294403)
(10.0747 0.0195887 -0.00319163)
(10.0996 0.0310908 -0.00348068)
(10.1198 0.0376031 -0.00382886)
(10.1351 0.041968 -0.00427817)
(10.1478 0.0448016 -0.00485476)
(10.1591 0.046612 -0.00556754)
(10.1694 0.0484724 -0.00641987)
(10.1785 0.0511354 -0.00741893)
(10.1854 0.0545207 -0.00857079)
(10.1899 0.0581992 -0.00989171)
(10.1916 0.0613028 -0.0113255)
(10.1903 0.0646951 -0.0128589)
(10.1864 0.0683451 -0.0144353)
(10.1815 0.0725864 -0.0160029)
(10.1765 0.0763801 -0.0174832)
(10.1735 0.079671 -0.0188722)
(10.0305 -0.0380931 -0.00270568)
(10.0448 -0.00916349 -0.00291071)
(10.0659 0.0111631 -0.00314929)
(10.088 0.0236337 -0.00343055)
(10.1068 0.0311367 -0.00376693)
(10.1219 0.035815 -0.00419535)
(10.1343 0.0386275 -0.00474001)
(10.1454 0.0404844 -0.00540997)
(10.1553 0.0425665 -0.00620619)
(10.1641 0.0455859 -0.00713057)
(10.1712 0.0492952 -0.00818389)
(10.1759 0.0532097 -0.00937152)
(10.1782 0.0562644 -0.0106373)
(10.1779 0.0589991 -0.0119752)
(10.175 0.0614594 -0.0133112)
(10.1707 0.0637012 -0.0145983)
(10.1658 0.0648104 -0.0157729)
(10.1617 0.064481 -0.0168431)
(10.028 -0.0409727 -0.00267642)
(10.0404 -0.0153124 -0.00287533)
(10.0588 0.00386094 -0.00310522)
(10.0785 0.0167515 -0.00337735)
(10.096 0.0250299 -0.00370055)
(10.1105 0.030062 -0.00410803)
(10.1227 0.0328846 -0.00462111)
(10.1334 0.0347521 -0.00524822)
(10.1429 0.0369992 -0.00598854)
(10.1514 0.0403403 -0.00684019)
(10.1584 0.0443725 -0.00779881)
(10.1631 0.0484881 -0.00884138)
(10.1657 0.0516261 -0.00998064)
(10.1659 0.0538114 -0.0111494)
(10.1635 0.0553506 -0.0122876)
(10.1593 0.0561781 -0.0133506)
(10.1541 0.0555451 -0.014288)
(10.1487 0.0529996 -0.0151181)
(10.0254 -0.0434617 -0.00264359)
(10.0364 -0.0206767 -0.00283647)
(10.0525 -0.00286106 -0.00305753)
(10.07 0.0100313 -0.00331951)
(10.086 0.0188585 -0.00362771)
(10.0999 0.0242582 -0.00401287)
(10.1117 0.0271443 -0.00449303)
(10.122 0.0290157 -0.00507564)
(10.1312 0.0313822 -0.00575786)
(10.1394 0.034997 -0.00653531)
(10.1461 0.0393692 -0.00740052)
(10.1508 0.0436995 -0.00834629)
(10.1534 0.0470463 -0.0093263)
(10.1538 0.048919 -0.0103306)
(10.1519 0.0498506 -0.011293)
(10.1477 0.0497762 -0.0121619)
(10.1419 0.0481704 -0.0128987)
(10.1352 0.044433 -0.0135311)
(10.0224 -0.0460148 -0.00259991)
(10.032 -0.0261266 -0.00278611)
(10.0459 -0.0099532 -0.00299722)
(10.0612 0.00263697 -0.00324641)
(10.0757 0.0118041 -0.00353497)
(10.0885 0.0175681 -0.00389242)
(10.0998 0.0205552 -0.00433317)
(10.1097 0.0224217 -0.00486367)
(10.1184 0.0249057 -0.00547659)
(10.126 0.0288263 -0.00616748)
(10.1324 0.0336699 -0.00692563)
(10.1368 0.0383695 -0.00772456)
(10.1393 0.042038 -0.00857057)
(10.1397 0.043947 -0.00940477)
(10.138 0.0445137 -0.0101938)
(10.1336 0.0439079 -0.0108786)
(10.1273 0.0419484 -0.0114291)
(10.1191 0.0379423 -0.0118832)
(10.0187 -0.0486346 -0.0025419)
(10.0271 -0.0315703 -0.00272052)
(10.0392 -0.0171982 -0.00291981)
(10.0523 -0.00525566 -0.0031499)
(10.065 0.00401524 -0.00341708)
(10.0767 0.0100372 -0.00374057)
(10.0872 0.0131359 -0.00413484)
(10.0964 0.0150196 -0.00460874)
(10.1044 0.0176644 -0.00513768)
(10.1115 0.0219532 -0.00572973)
(10.1173 0.0273674 -0.00636872)
(10.1213 0.0326524 -0.00704469)
(10.1234 0.0367954 -0.00772924)
(10.1236 0.0391826 -0.00839793)
(10.1218 0.0398838 -0.00901448)
(10.1174 0.03935 -0.00953443)
(10.1106 0.0378556 -0.00992561)
(10.1013 0.0347148 -0.0102309)
(10.0145 -0.0513115 -0.0024658)
(10.0218 -0.0369194 -0.00263566)
(10.0321 -0.0244211 -0.00282185)
(10.0432 -0.0134411 -0.0030344)
(10.0541 -0.00433986 -0.00327259)
(10.0644 0.00180498 -0.00355322)
(10.0739 0.00498617 -0.00388971)
(10.0823 0.00691663 -0.00427946)
(10.0896 0.00976192 -0.00473366)
(10.0959 0.0145333 -0.0052266)
(10.101 0.0206775 -0.00574907)
(10.1044 0.0268527 -0.00628838)
(10.1061 0.0318227 -0.00682367)
(10.1059 0.0350423 -0.00733571)
(10.1039 0.036583 -0.00779374)
(10.0997 0.0367886 -0.00817584)
(10.093 0.0364957 -0.00844556)
(10.0834 0.035279 -0.0086409)
(10.0096 -0.0540358 -0.00236746)
(10.016 -0.0420901 -0.00252748)
(10.0247 -0.0314552 -0.00269913)
(10.034 -0.0215969 -0.00289059)
(10.0431 -0.0129686 -0.0030976)
(10.052 -0.00689011 -0.00333213)
(10.0602 -0.00366614 -0.00361001)
(10.0676 -0.00164374 -0.00393192)
(10.0741 0.00145386 -0.00429275)
(10.0796 0.00681338 -0.00468206)
(10.084 0.0138687 -0.00508827)
(10.0869 0.0211859 -0.00549846)
(10.0883 0.0274088 -0.00589766)
(10.0879 0.0318676 -0.00626896)
(10.0859 0.03481 -0.00659561)
(10.0821 0.0365259 -0.00685988)
(10.0763 0.0379991 -0.00704778)
(10.0678 0.0393523 -0.00717774)
(10.004 -0.056787 -0.00224316)
(10.0096 -0.0469923 -0.00239237)
(10.0168 -0.038131 -0.00254855)
(10.0245 -0.0294904 -0.00271756)
(10.0321 -0.021525 -0.00289349)
(10.0396 -0.0156983 -0.00308396)
(10.0467 -0.0125015 -0.00330033)
(10.053 -0.0103902 -0.00354847)
(10.0586 -0.00702795 -0.00382126)
(10.0634 -0.00106694 -0.00411684)
(10.0673 0.00701133 -0.00441713)
(10.07 0.0156975 -0.00471454)
(10.0714 0.0234829 -0.00499829)
(10.0714 0.0295479 -0.00525805)
(10.0701 0.034055 -0.0054828)
(10.0673 0.0375682 -0.00566107)
(10.0633 0.0409619 -0.00578673)
(10.0575 0.0448694 -0.00588654)
(9.99786 -0.0595192 -0.00208934)
(10.0026 -0.0515511 -0.0022277)
(10.0087 -0.0442918 -0.00236926)
(10.015 -0.0369202 -0.00251743)
(10.0213 -0.0297877 -0.00266474)
(10.0277 -0.0243321 -0.00281635)
(10.0339 -0.0211615 -0.00297903)
(10.0394 -0.0189163 -0.00315906)
(10.0443 -0.0153615 -0.00335973)
(10.0486 -0.00909541 -0.00356841)
(10.0523 -0.000404262 -0.00378263)
(10.0555 0.0093237 -0.00399199)
(10.0578 0.0185297 -0.00418841)
(10.0593 0.0262314 -0.00436343)
(10.0598 0.0322674 -0.00451409)
(10.0592 0.0372374 -0.00463687)
(10.0579 0.0418834 -0.00472294)
(10.0557 0.0471429 -0.00479885)
(9.99282 -0.0616721 -0.00194431)
(9.99703 -0.0550434 -0.00207618)
(10.0024 -0.0489889 -0.00220934)
(10.0079 -0.0426687 -0.00234573)
(10.0137 -0.0363682 -0.00247713)
(10.0195 -0.0313671 -0.00260697)
(10.0253 -0.0282277 -0.0027399)
(10.0306 -0.0257798 -0.00287895)
(10.0353 -0.0220731 -0.00302806)
(10.0395 -0.0158611 -0.00318772)
(10.0434 -0.00732499 -0.00335407)
(10.0472 0.00239379 -0.00350994)
(10.0509 0.0119221 -0.00366101)
(10.0543 0.0203988 -0.00380161)
(10.0571 0.0274151 -0.0039198)
(10.0593 0.0333967 -0.00401461)
(10.061 0.0387518 -0.00408511)
(10.0621 0.0443758 -0.00415192)
(9.98935 -0.0630872 -0.0018302)
(9.99326 -0.0573757 -0.00195876)
(9.99828 -0.0522036 -0.00208956)
(10.0036 -0.0467005 -0.00222237)
(10.0093 -0.0410897 -0.00234757)
(10.0151 -0.0365301 -0.00246732)
(10.0208 -0.0335298 -0.00258571)
(10.0262 -0.031033 -0.00270512)
(10.0311 -0.027328 -0.00282794)
(10.0356 -0.0213594 -0.00295652)
(10.04 -0.0133413 -0.00308648)
(10.0445 -0.00427387 -0.00322083)
(10.0493 0.00459398 -0.00334434)
(10.0541 0.0125873 -0.00345809)
(10.0588 0.0194067 -0.00356029)
(10.0633 0.0254445 -0.00364076)
(10.0675 0.0309643 -0.00370754)
(10.0713 0.0366842 -0.00377569)
(9.98675 -0.0641609 -0.00172875)
(9.99049 -0.0592832 -0.00185681)
(9.99548 -0.0549445 -0.00199068)
(10.001 -0.0502201 -0.00212645)
(10.007 -0.0452457 -0.00225123)
(10.0131 -0.0410774 -0.00236589)
(10.019 -0.0382171 -0.00247553)
(10.0245 -0.0357663 -0.00258421)
(10.0297 -0.0322054 -0.00269422)
(10.0347 -0.026615 -0.00280624)
(10.0398 -0.0192459 -0.00291927)
(10.0452 -0.011025 -0.00303123)
(10.0511 -0.00303928 -0.00313658)
(10.0572 0.00413084 -0.00323507)
(10.0635 0.0102543 -0.00332485)
(10.0697 0.0157129 -0.00340666)
(10.0758 0.0207865 -0.0034695)
(10.0818 0.0260673 -0.00353751)
(9.98482 -0.0650406 -0.00163467)
(9.98856 -0.0610575 -0.00176573)
(9.99379 -0.0575167 -0.00190899)