/*--------------------------------*- C++ -*----------------------------------*\
| =========                 |                                                 |
| \\      /  F ield         | OpenFOAM: The Open Source CFD Toolbox           |
|  \\    /   O peration     | Version:  2112                                  |
|   \\  /    A nd           | Website:  www.openfoam.com                      |
|    \\/     M anipulation  |                                                 |
\*---------------------------------------------------------------------------*/
FoamFile
{
    version     2.0;
    format      ascii;
    arch        "LSB;label=32;scalar=64";
    class       volScalarField;
    location    "0.14";
    object      epsilon;
}
// * * * * * * * * * * * * * * * * * * * * * * * * * * * * * * * * * * * * * //

dimensions      [0 2 -3 0 0 0 0];

internalField   nonuniform List<scalar> 
12225
(
1918.28
3868.49
4854.46
5150.89
5099.98
4907.95
4676.67
4452.34
4254.74
4091.45
3964.36
3872.86
3815.16
3780.32
3762.96
3766.47
3788.41
3860.92
99.8263
226.128
315.385
365.15
386.569
390.358
384.415
373.587
360.467
346.314
331.676
316.742
301.898
290.106
282.234
276.418
271.876
268.67
16.5737
23.0431
30.1935
36.082
39.8909
41.57
41.5407
40.3098
38.2838
35.7466
32.8883
29.8352
26.6825
23.9531
21.8609
20.2286
18.9303
17.8791
13.6878
12.9339
12.5478
12.3821
12.3025
12.1991
12.0128
11.7257
11.343
10.881
10.3605
9.7984
9.24883
8.74449
8.28563
7.87056
7.49727
7.16658
13.5842
12.4383
11.4831
10.6832
10.0075
9.42736
8.9192
8.4652
8.05271
7.67308
7.32016
6.99635
6.70199
6.43413
6.1904
5.96911
5.76947
5.59212
13.5807
12.4157
11.424
10.5733
9.83865
9.20011
8.6414
8.14936
7.71336
7.32482
6.97753
6.66641
6.3869
6.13529
5.9086
5.70459
5.52177
5.3595
13.5805
12.4143
11.4201
10.5659
9.82674
9.18318
8.61958
8.12335
7.68427
7.2941
6.94608
6.63461
6.35507
6.10369
5.87738
5.6737
5.49079
5.32732
13.5804
12.4138
11.419
10.5642
9.82433
9.18004
8.61572
8.11879
7.67911
7.28841
6.93987
6.62791
6.34788
6.09596
5.86898
5.66438
5.48003
5.31424
13.5804
12.4135
11.4182
10.5629
9.82262
9.17787
8.61309
8.11573
7.67564
7.28453
6.93558
6.62319
6.34269
6.0902
5.86251
5.65692
5.47115
5.3033
13.5803
12.4132
11.4176
10.5619
9.82119
9.17601
8.61081
8.11303
7.67252
7.28098
6.93158
6.6187
6.33764
6.0845
5.85601
5.64938
5.46225
5.29259
13.5803
12.4131
11.4172
10.561
9.81996
9.17439
8.60877
8.11057
7.66963
7.27764
6.92777
6.61437
6.33274
6.07893
5.84963
5.64201
5.45363
5.28244
13.5803
12.413
11.4168
10.5604
9.81899
9.17306
8.60707
8.10848
7.66713
7.2747
6.92436
6.61044
6.32823
6.07375
5.84366
5.6351
5.4456
5.2731
13.5803
12.4129
11.4165
10.5599
9.81813
9.17187
8.60551
8.10653
7.66477
7.2719
6.92108
6.60664
6.32385
6.06871
5.83787
5.62845
5.43796
5.26437
13.5803
12.4128
11.4163
10.5593
9.81727
9.17064
8.60387
8.10445
7.6622
7.26882
6.91744
6.60239
6.31892
6.06303
5.83136
5.621
5.42948
5.25476
13.5803
12.4127
11.4161
10.5588
9.81642
9.16938
8.60216
8.10223
7.65944
7.26546
6.91343
6.59768
6.31344
6.05672
5.82413
5.61278
5.4202
5.24435
13.5803
12.4127
11.4159
10.5583
9.81559
9.16812
8.60039
8.09991
7.6565
7.26185
6.9091
6.59257
6.30749
6.04986
5.8163
5.60392
5.41027
5.23331
13.5803
12.4127
11.4157
10.5579
9.81478
9.16686
8.5986
8.09751
7.65344
7.25806
6.90453
6.58715
6.30117
6.0426
5.80805
5.59465
5.39993
5.22189
13.5803
12.4126
11.4155
10.5575
9.81402
9.16564
8.59684
8.09513
7.65036
7.25423
6.89989
6.58166
6.29478
6.03526
5.79974
5.58534
5.38961
5.21055
13.5803
12.4126
11.4154
10.5571
9.81332
9.1645
8.59518
8.09287
7.64743
7.25057
6.89545
6.57639
6.28867
6.02828
5.79187
5.57658
5.37995
5.2
13.5803
12.4126
11.4153
10.5569
9.81293
9.16385
8.59418
8.09147
7.64557
7.2482
6.89254
6.57291
6.28459
6.0236
5.78656
5.57064
5.37338
5.19281
13.5803
12.4126
11.4153
10.5569
9.81284
9.16363
8.5938
8.09086
7.64471
7.24706
6.89109
6.57113
6.28246
6.02111
5.78372
5.56743
5.36982
5.18889
13.5803
12.4127
11.4154
10.557
9.81296
9.16373
8.59383
8.0908
7.64451
7.24669
6.89052
6.57036
6.28146
6.01988
5.78225
5.56572
5.36787
5.1867
13.5803
12.4127
11.4156
10.5573
9.81334
9.16416
8.59428
8.09123
7.64489
7.247
6.89074
6.57046
6.28145
6.01974
5.78198
5.56533
5.36735
5.18607
13.5804
12.4128
11.4158
10.5578
9.814
9.16496
8.59519
8.09221
7.64592
7.24807
6.89184
6.57161
6.28268
6.02108
5.7835
5.56709
5.36944
5.18859
13.5804
12.413
11.4164
10.5587
9.81528
9.16675
8.59764
8.09554
7.65039
7.254
6.89961
6.58164
6.29544
6.03711
5.80336
5.5914
5.39883
5.22373
13.5805
12.414
11.4194
10.5655
9.82838
9.18918
8.63279
8.1469
7.72145
7.34811
7.01998
6.73129
6.47727
6.25391
6.05786
5.88631
5.73683
5.60737
13.5858
12.4502
11.5221
10.7767
10.1924
9.74452
9.40763
9.15908
8.97982
8.85454
8.77159
8.7227
8.70229
8.70699
8.73518
8.78636
8.86017
8.95635
13.9253
14.0339
15.0511
16.7726
18.9108
21.1267
23.1709
24.9166
26.3292
27.4335
28.2865
28.9582
29.5176
30.0284
30.5523
31.1418
31.8304
32.6491
32.4914
71.7783
113.918
152.775
184.649
208.159
223.946
233.555
238.633
240.609
240.622
239.535
237.971
236.402
235.465
235.619
236.935
239.399
622.704
1433.01
2095.69
2601.55
2915
3058.2
3072.71
2999.43
2871.24
2711.94
2537.57
2358.44
2180.9
2008.82
1855.07
1724.06
1607.59
1501.29
12.7929
9.88039
11.0129
11.831
12.9224
14.6013
17.0756
20.4745
24.7873
29.8337
35.3275
40.9844
46.5691
51.7284
56.2025
59.8399
62.5777
64.418
65.4095
65.6319
65.183
64.1694
62.702
60.9342
59.1321
57.333
55.567
53.8607
52.2385
50.7258
49.3524
48.158
47.2003
46.5699
46.4154
46.9975
48.7638
52.5594
58.3692
65.235
73.1095
82.1066
92.4952
104.743
119.63
138.308
161.742
188.301
209.904
218.363
208.878
181.052
141.457
101.024
68.5375
46.842
34.1273
27.6515
25.5651
26.6033
29.9086
34.8512
40.6782
46.7579
52.4882
57.542
62.048
66.2401
70.5292
75.8648
82.9236
90.8722
100.023
113.574
143.332
214.863
311.444
380.546
424.672
445.784
447.98
435.711
413.088
383.621
350.169
314.977
279.737
245.664
213.55
185.13
160.281
138.573
119.649
103.188
88.9036
76.5383
65.8647
56.6831
48.821
41.9315
35.6478
29.9782
24.9366
20.545
16.8408
13.9001
11.921
11.5929
13.8911
17.2506
21.3952
26.3528
32.1703
38.9046
46.787
56.8252
69.364
84.4859
102.197
122.367
144.711
168.951
193.808
214.986
230.58
239.321
240.409
233.648
219.508
199.109
174.158
146.822
119.533
94.6799
74.22
59.3627
49.9683
44.3589
41.2906
39.8274
39.2703
39.1126
39.0125
38.7743
38.3299
37.7121
37.0157
36.3543
35.822
35.4687
35.302
35.3163
35.5168
35.9388
36.6498
37.7554
39.4045
41.7797
45.0628
49.2874
54.0691
58.5559
61.8049
63.2607
65.199
85.1112
167.068
241.451
281.105
288.877
274.871
249.228
220.916
192.544
164.216
135.659
107.041
80.4009
67.9759
70.0831
30.8519
11.0587
9.93751
11.4854
14.2159
17.2813
20.2113
22.7461
24.785
26.3181
27.3656
27.9609
28.1523
27.9988
27.5681
26.9402
26.2028
25.446
24.7587
24.2246
23.9177
23.897
24.1969
24.8307
25.5629
26.3711
27.2353
28.1376
29.0626
29.9985
30.9379
31.8781
32.8222
33.7798
34.7672
35.8067
36.9194
38.1138
39.3574
40.4054
41.3081
42.0026
42.4313
42.6124
42.7886
43.6123
46.2551
52.4076
64.3938
78.786
90.0756
98.7731
107.416
116.217
120.869
115.846
100.044
78.2662
57.3378
41.6004
32.1361
28.7373
30.2655
33.959
37.331
38.4819
37.5432
36.765
39.857
53.7524
92.9536
169.902
252.049
272.419
253.07
233.596
210.107
183.177
155.115
127.755
102.366
79.777
60.4947
44.7736
32.6632
24.0368
18.5987
15.8826
15.3378
15.2966
15.3399
15.436
15.5586
15.6862
15.8005
15.8855
15.9259
15.9064
15.8106
15.6213
15.3238
14.9062
14.361
13.6882
12.8964
12.0008
11.0159
9.97447
9.07809
8.26219
7.50929
6.83403
6.24619
5.75247
5.36087
5.08374
4.92894
4.90195
5.00671
5.24541
5.62048
6.16262
7.26671
10.5732
15.2799
20.5036
25.5441
29.8972
33.2446
35.4381
36.4859
36.5359
35.8558
34.7931
33.7001
32.8345
32.2589
31.8808
31.5628
31.2
30.7589
30.2701
29.7883
29.3528
28.965
28.5851
28.1404
27.5399
26.6911
25.5215
23.9996
22.1558
20.049
17.7634
15.3934
13.0502
10.9636
9.35286
8.42435
8.38388
9.49263
12.4409
20.1232
42.3791
88.6804
120.506
119.807
107.115
89.2237
72.3688
61.6044
59.5985
62.7629
66.1119
68.5585
68.6239
64.8269
56.5552
46.5585
39.1578
58.8438
13.8217
12.483
14.7624
17.1995
19.1136
20.4293
21.1854
21.5026
21.5039
21.2817
20.9039
20.4261
19.8993
19.3723
18.8898
18.4899
18.2004
18.037
18.0037
18.0946
18.2972
18.597
18.9621
19.364
19.7891
20.2233
20.6531
21.0668
21.4563
21.8179
22.1539
22.4725
22.7891
23.1262
23.5134
23.9887
24.6008
25.3736
26.2103
27.0928
28.001
28.8756
29.6475
30.2647
30.7783
31.478
32.9879
36.1624
41.5785
49.3583
56.7496
63.9438
72.8358
83.5135
92.6309
94.9985
87.9046
73.725
57.804
44.6334
36.2245
33.347
35.5397
40.5453
45.516
49.4998
56.8431
82.33
145.163
221.711
240.366
213.548
179.461
147.038
119.795
95.2606
73.4082
54.8488
40.0017
28.9016
21.2156
16.3535
13.6184
12.3469
11.9926
12.1536
12.5645
13.0611
13.5471
14.0061
14.4254
14.7958
15.1114
15.3687
15.5656
15.6988
15.7622
15.746
15.636
15.4155
15.0676
14.5792
13.9445
13.1678
12.2598
11.2272
10.1502
9.19887
8.27922
7.40543
6.59049
5.84153
5.16161
4.55076
4.00686
3.52631
3.1047
2.7373
2.41933
2.14609
1.91388
1.72373
1.59994
1.68743
2.09854
2.83955
3.84703
5.00957
6.19648
7.28061
8.15682
8.75859
9.06748
9.10803
8.92793
8.57707
8.10394
7.56359
7.02064
6.54034
6.1732
5.94343
5.8475
5.85892
5.93749
6.03885
6.12187
6.15338
6.10843
5.96631
5.70896
5.32526
4.82556
4.26643
3.75457
3.33094
3.0672
3.1463
3.92057
6.08564
11.6161
27.0559
63.1238
97.3429
91.2442
75.6309
61.3002
50.9598
46.3418
46.6894
49.9448
54.0085
58.1065
61.4815
62.839
60.6013
53.7968
45.6243
38.4835
99.746
17.8521
15.8259
17.7235
19.0536
19.7644
19.9929
19.8742
19.5524
19.1266
18.6561
18.1762
17.71
17.2757
16.8885
16.5614
16.304
16.1225
16.019
15.9921
16.037
16.1461
16.3125
16.505
16.7105
16.9159
17.1078
17.2731
17.4006
17.4825
17.5154
17.5017
17.4502
17.3778
17.3095
17.2799
17.3346
17.527
17.9253
18.5116
19.2696
20.1986
21.2649
22.4134
23.5689
24.6404
25.5464
26.3101
27.2251
28.9459
32.3266
37.7786
43.7324
49.737
56.972
65.454
72.5866
74.7235
70.431
61.719
52.2181
44.8925
41.2663
43.128
50.3398
61.423
77.1053
112.691
177.191
219.31
202.379
167.314
132.766
103.889
80.2957
61.0507
45.1732
32.7201
23.7026
17.7675
14.2736
12.4986
11.8138
11.7589
12.0371
12.4753
12.98
13.5019
14.0035
14.4611
14.8574
15.1802
15.4242
15.5923
15.6933
15.7388
15.7393
15.6994
15.6153
15.4738
15.2541
14.9317
14.4834
13.8939
13.16
12.2854
11.2789
10.3198
9.39497
8.49077
7.6261
6.81401
6.0622
5.3743
4.75095
4.19063
3.69039
3.24646
2.85455
2.51018
2.20884
1.94608
1.71779
1.52052
1.35593
1.23809
1.18626
1.21884
1.34439
1.55543
1.82744
2.12294
2.39924
2.61764
2.75143
2.78976
2.73721
2.61079
2.43553
2.23901
2.04615
1.87575
1.73929
1.6414
1.58074
1.55123
1.54369
1.54772
1.55333
1.55178
1.53529
1.49676
1.43084
1.33801
1.23163
1.14426
1.13667
1.3276
1.93328
3.41974
6.93585
15.8785
37.9989
73.1524
83.1196
67.8978
54.4013
45.4515
41.3803
41.1298
42.8744
45.1624
47.5919
50.166
52.5304
53.675
52.0605
47.0432
41.1141
35.4053
153.478
22.3737
18.8386
19.7927
20.03
19.931
19.6236
19.199
18.7341
18.2669
17.8134
17.3805
16.9723
16.5942
16.2533
15.9571
15.7123
15.5226
15.3889
15.3086
15.2759
15.2832
15.3269
15.3992
15.4876
15.5769
15.6503
15.6918
15.6866
15.6235
15.496
15.3035
15.0526
14.7589
14.4467
14.1508
13.917
13.8044
13.8887
14.2092
14.7676
15.5772
16.6264
17.8742
19.2528
20.676
22.0419
23.2227
24.1076
24.8159
25.9372
28.4118
32.8159
37.8022
42.7596
48.2672
54.1761
58.7301
60.0055
57.8193
53.9698
51.0199
51.0039
56.0284
69.5399
94.4161
138.817
193.7
204.404
174.179
137.706
106.205
81.04
61.2198
45.5674
33.3976
24.3521
18.2161
14.5233
12.6247
11.8853
11.8142
12.0931
12.5429
13.0736
13.6424
14.2244
14.797
15.3182
15.7544
16.0771
16.2682
16.3247
16.2608
16.1042
15.8905
15.6535
15.417
15.1892
14.9606
14.7068
14.3938
13.9864
13.457
12.7902
11.9786
11.1039
10.252
9.38937
8.5383
7.71745
6.9398
6.21338
5.54241
4.92835
4.37069
3.86763
3.41654
3.01425
2.65729
2.34202
2.06467
1.82151
1.60895
1.42382
1.26425
1.13034
1.02456
0.950757
0.912028
0.908254
0.934284
0.979715
1.03062
1.07275
1.09487
1.0911
1.06144
1.01071
0.94635
0.876269
0.807244
0.744266
0.690471
0.647315
0.61481
0.591815
0.576395
0.566205
0.558798
0.551796
0.543142
0.531858
0.520375
0.519811
0.558973
0.699767
1.07125
1.95375
3.9971
8.88813
20.8497
45.8034
71.3158
67.571
53.3778
43.8925
39.1266
37.8977
38.5391
39.5298
40.2038
40.8382
41.8005
43.0341
43.7423
42.467
39.1171
34.7791
30.3669
220.114
26.9128
21.146
21.1035
20.574
20.0565
19.5658
19.1026
18.6657
18.2408
17.8147
17.3802
16.9381
16.4967
16.0697
15.6719
15.3167
15.0138
14.7686
14.5822
14.4517
14.3713
14.346
14.3747
14.4385
14.5161
14.5846
14.6217
14.6067
14.523
14.3587
14.1088
13.7766
13.3753
12.9288
12.4717
12.0507
11.725
11.5714
11.6648
12.0205
12.6678
13.6193
14.8553
16.3152
17.8985
19.4786
20.914
22.0481
22.7686
23.2382
24.1143
26.3065
30.1477
34.2976
38.1995
42.2689
46.4733
49.928
52.0182
53.5006
56.4041
62.8006
74.8816
101.287
152.518
205.221
198.081
157.384
120.385
91.0195
68.534
51.2481
37.9337
27.885
20.6922
15.9976
13.3403
12.139
11.8437
12.0437
12.4865
13.044
13.6637
14.3279
15.0263
15.7405
16.4388
17.0482
17.5154
17.7936
17.8529
17.689
17.3278
16.8232
16.245
15.663
15.1305
14.6732
14.2883
13.9473
13.6063
13.2164
12.7377
12.1408
11.4344
10.7163
9.95887
9.18362
8.41197
7.66097
6.94264
6.26467
5.63141
5.04489
4.50558
4.01286
3.56546
3.16154
2.7989
2.47503
2.18717
1.93246
1.70797
1.51088
1.33817
1.18755
1.05736
0.946719
0.855371
0.783147
0.729175
0.691189
0.665325
0.646598
0.629906
0.611129
0.587871
0.559592
0.527214
0.492462
0.457265
0.423357
0.392091
0.364383
0.340727
0.321242
0.305745
0.293834
0.285001
0.278786
0.275122
0.275214
0.283895
0.31507
0.402284
0.619044
1.12371
2.26777
4.87561
11.0056
25.1041
49.1108
64.6836
55.8803
44.528
38.3561
36.0262
35.9292
36.4498
36.4108
35.6654
34.8515
34.5545
34.8886
35.1535
34.185
31.8648
28.5969
25.1498
300.052
31.2317
22.6881
21.8726
20.9346
20.2816
19.7942
19.3807
18.9729
18.5203
17.9972
17.4013
16.7506
16.0765
15.4151
14.7994
14.2551
13.7993
13.4403
13.1797
13.0131
12.9312
12.9381
13.0221
13.1591
13.3227
13.4845
13.6154
13.6878
13.678
13.5684
13.3481
13.0158
12.5819
12.0707
11.5183
10.9748
10.4999
10.1743
10.0902
10.2686
10.7559
11.586
12.7635
14.25
15.9554
17.7376
19.4165
20.7963
21.6988
22.0831
22.2817
23.0467
25.1981
28.4268
31.6283
34.6253
38.0277
42.1066
46.8334
52.8934
62.1166
76.9256
102.256
149.102
205.951
205.278
153.402
112.074
82.953
61.7911
46.0001
34.0759
25.2231
18.9917
15.0098
12.8436
11.9843
11.9391
12.3305
12.9248
13.6077
14.3406
15.121
15.9527
16.8275
17.7155
18.5629
19.2792
19.7961
20.0456
19.978
19.5783
18.878
17.9567
16.9273
15.9079
14.9926
14.2306
13.625
13.1442
12.7306
12.3227
11.8707
11.3376
10.7741
10.1562
9.49959
8.82359
8.14613
7.48141
6.8394
6.22647
5.64643
5.10148
4.59283
4.12108
3.68635
3.28832
2.92622
2.59883
2.30454
2.04144
1.80738
1.60021
1.41711
1.25592
1.1146
0.991312
0.884507
0.792917
0.715376
0.650577
0.596852
0.552129
0.514096
0.48053
0.449624
0.420177
0.391613
0.363848
0.337107
0.311752
0.288158
0.266644
0.247437
0.230667
0.21638
0.20457
0.195244
0.188587
0.185389
0.188122
0.203598
0.248874
0.363149
0.632197
1.24273
2.61073
5.71251
12.8865
28.0421
49.0232
57.5688
47.6675
38.9668
35.0614
34.0543
34.3818
34.5311
33.602
31.8273
30.0441
28.8915
28.5868
28.4865
27.7585
26.0171
23.4701
20.6983
393.519
35.288
23.5375
22.2461
21.179
20.5603
20.1433
19.7521
19.2669
18.6244
17.8167
16.8803
15.8786
14.8824
13.9529
13.1341
12.4516
11.9162
11.5282
11.2812
11.1644
11.1631
11.2736
11.4728
11.7377
12.0417
12.3532
12.6364
12.8549
12.9775
12.9797
12.8447
12.5649
12.1457
11.6108
10.9982
10.3657
9.77704
9.32394
9.09772
9.12513
9.46908
10.1821
11.2898
12.775
14.5662
16.5304
18.4697
20.1352
21.2775
21.7511
21.6979
21.6785
22.4706
24.5053
27.0409
29.4558
32.2526
36.4179
42.8021
52.5601
67.3785
89.3288
124.789
179.878
209.778
165.129
112.675
80.2524
58.8388
43.5893
32.3487
24.0934
18.2992
14.607
12.6357
11.9389
12.0637
12.6362
13.4066
14.2429
15.0987
15.9764
16.8938
17.8613
18.8653
19.8624
20.7793
21.5541
22.1107
22.3568
22.2128
21.6353
20.6409
19.3204
17.8282
16.3401
15.004
13.9038
13.0428
12.3931
11.8722
11.4179
10.9742
10.5226
10.032
9.50224
8.9432
8.36864
7.7915
7.22179
6.66613
6.12853
5.61149
5.11688
4.64647
4.20208
3.78539
3.39775
3.04003
2.71243
2.41456
2.14551
1.90397
1.68842
1.49639
1.32616
1.17591
1.04383
0.92819
0.827389
0.739952
0.664482
0.599591
0.543837
0.495735
0.453828
0.416797
0.383555
0.3533
0.325504
0.299863
0.276229
0.25455
0.234817
0.217035
0.201208
0.18734
0.175458
0.16568
0.158403
0.15481
0.158126
0.176586
0.229815
0.361993
0.669937
1.36601
2.92472
6.44988
14.3874
29.6085
47.0227
51.1483
42.0904
35.2943
32.7639
32.4857
32.9338
32.6867
31.1027
28.7116
26.4034
24.7495
23.9917
23.656
23.0278
21.6635
19.615
17.3124
500.289
39.1925
23.8048
22.2926
21.2725
20.7662
20.408
19.9467
19.2371
18.2431
17.0202
15.6772
14.3337
13.0877
12.0023
11.1073
10.4084
9.89767
9.56127
9.38344
9.34886
9.44251
9.65679
9.97002
10.3668
10.8235
11.3055
11.7675
12.1594
12.4391
12.5769
12.5521
12.3518
11.9741
11.4405
10.7865
10.0808
9.39437
8.84725
8.49198
8.38447
8.59833
9.20307
10.2457
11.7284
13.5944
15.7252
17.9298
19.9282
21.3879
22.0551
21.9511
21.508
21.4512
22.3869
24.1223
26.0339
28.3862
32.4692
39.879
52.2769
70.9801
97.4466
138.195
186.307
182.775
124.706
83.2419
59.0444
43.2451
32.0595
23.9584
18.2516
14.5621
12.5667
11.8848
12.0974
12.8192
13.7571
14.7318
15.6664
16.5574
17.4378
18.3445
19.2951
20.2762
21.2409
22.1144
22.8923
23.4869
23.7886
23.6873
23.0962
21.9878
20.4306
18.6
16.7282
15.0202
13.6201
12.5186
11.7106
11.0721
10.5793
10.1397
9.71167
9.27354
8.81877
8.35039
7.87539
7.40053
6.93032
6.46678
6.0105
5.56178
5.12169
4.69239
4.27697
3.87901
3.50197
3.14866
2.82102
2.51999
2.24567
1.99759
1.77454
1.57446
1.396
1.23766
1.09781
0.974799
0.867011
0.772894
0.690969
0.619825
0.5581
0.50448
0.45772
0.416678
0.380362
0.347951
0.31881
0.292467
0.268589
0.246942
0.227362
0.209729
0.193955
0.179985
0.167819
0.157584
0.149749
0.14568
0.149033
0.168967
0.22697
0.371194
0.70766
1.47038
3.18251
7.03738
15.4228
30.0196
44.1669
45.7857
38.0856
32.7852
30.9834
31.0374
31.4928
30.9137
28.8545
26.1918
23.6989
21.8408
20.7853
20.2532
19.6831
18.593
16.9052
14.9302
620.002
43.2128
23.6215
22.0529
21.1688
20.7968
20.4551
19.8299
18.7879
17.3708
15.7346
14.0655
12.5153
11.1744
10.0776
9.22221
8.58748
8.14742
7.87764
7.75827
7.77516
7.9191
8.19158
8.58604
9.09837
9.7108
10.385
11.059
11.6541
12.1079
12.3852
12.4689
12.3487
12.0172
11.4951
10.8079
10.0386
9.28326
8.64224
8.16647
7.93211
8.02219
8.52254
9.50361
10.99
12.9366
15.2303
17.6931
20.045
21.8893
22.8474
22.8217
22.166
21.57
21.6988
22.6825
24.0706
26.0317
29.9601
37.9107
51.791
72.3436
100.706
141.537
173.856
147.716
94.3255
62.9511
44.8434
32.9705
24.6184
18.7247
14.8156
12.5994
11.7693
11.952
12.7534
13.8246
14.9133
15.8861
16.7172
17.4496
18.1487
18.868
19.6318
20.4306
21.2253
21.9766
22.6973
23.3017
23.6843
23.7228
23.2919
22.3036
20.7651
18.8311
16.7787
14.8403
13.2536
11.9848
11.0623
10.3702
9.82081
9.35668
8.93782
8.54002
8.15157
7.769
7.39234
7.02143
6.65429
6.28726
5.9164
5.53897
5.15458
4.76554
4.37642
3.99316
3.62195
3.2683
2.93639
2.62886
2.34695
2.09117
1.85982
1.65149
1.46497
1.29886
1.15165
1.02178
0.907655
0.807731
0.720498
0.64451
0.578389
0.520829
0.470612
0.426628
0.387897
0.353585
0.323009
0.295625
0.271016
0.248859
0.228907
0.21097
0.194902
0.180602
0.168041
0.157335
0.148971
0.144395
0.147488
0.167931
0.228402
0.37985
0.73511
1.54432
3.36537
7.43713
15.9705
29.5735
41.0683
41.443
35.1424
30.8968
29.4675
29.5577
29.8006
28.9622
26.8595
24.2594
21.7503
19.7724
18.5357
17.888
17.3871
16.5222
15.1026
13.3502
753.76
47.8485
23.1553
21.613
20.8902
20.6552
20.3034
19.4688
18.067
16.2565
14.3029
12.4454
10.8306
9.51251
8.48444
7.71123
7.1504
6.76296
6.51814
6.39726
6.39715
6.53228
6.81475
7.25363
7.85907
8.62691
9.52352
10.4696
11.3315
12.0022
12.4309
12.6113
12.5503
12.2446
11.7238
10.9998
10.1915
9.37985
8.639
8.04954
7.69385
7.66274
8.05711
8.97344
10.4671
12.5098
14.9834
17.7079
20.419
22.693
24.0314
24.194
23.4648
22.534
22.0943
22.4464
23.3122
24.8875
28.6001
36.6854
50.9882
71.681
99.936
136.427
152.199
116.898
72.6422
48.9504
35.1613
26.0573
19.7171
15.4024
12.7852
11.6242
11.618
12.3914
13.5505
14.7564
15.7905
16.5771
17.1535
17.6091
18.0317
18.4772
18.9675
19.4963
20.0399
20.6159
21.2093
21.7527
22.1643
22.3356
22.128
21.4059
20.1012
18.2945
16.3015
14.3293
12.7016
11.4315
10.4537
9.70101
9.10806
8.62456
8.21494
7.85561
7.53201
7.23539
6.95916
6.69602
6.43688
6.1715
5.8904
5.58685
5.25826
4.90669
4.53822
4.16165
3.7868
3.42287
3.07728
2.7551
2.45915
2.19099
1.94829
1.72983
1.5342
1.35984
1.20514
1.06847
0.948208
0.842766
0.750597
0.670217
0.60021
0.539244
0.486078
0.439585
0.398763
0.362747
0.330814
0.30237
0.27694
0.254145
0.233683
0.215315
0.198855
0.184167
0.171196
0.16004
0.151178
0.14607
0.14867
0.168863
0.229882
0.38419
0.748587
1.58259
3.46213
7.62883
16.0586
28.5421
38.0352
37.9483
32.8927
29.3758
28.0874
28.0189
27.9675
26.9845
25.0079
22.5811
20.1783
18.2109
16.9195
16.2564
15.8617
15.1925
13.9654
12.3476
938.068
54.5957
22.7503
21.1522
20.5663
20.4735
20.129
19.1024
17.376
15.2419
13.068
11.1197
9.51556
8.26463
7.32185
6.62549
6.11479
5.73772
5.45872
5.26983
5.19788
5.30438
5.58023
6.03353
6.69308
7.58031
8.6882
9.94541
11.143
12.0963
12.7099
12.9834
12.9541
12.6363
12.0855
11.3461
10.4903
9.60275
8.77012
8.07691
7.60854
7.46032
7.74493
8.58544
10.0781
12.2286
14.9162
17.9351
21.0232
23.7642
25.567
26.0245
25.3276
24.1773
23.3039
23.1045
23.4491
24.6201
28.0505
35.9571
49.8849
69.6383
96.3924
125.93
128.793
93.1352
57.281
39.142
28.4212
21.3016
16.412
13.2429
11.5681
11.1756
11.759
12.9231
14.255
15.4257
16.268
16.7801
17.0624
17.2368
17.3926
17.5712
17.7824
18.0256
18.3069
18.6817
19.1068
19.5276
19.8881
20.1104
20.0668
19.6061
18.6171
17.0708
15.3014
13.5639
12.0329
10.7848
9.80326
9.03419
8.42562
7.93964
7.54963
7.2358
6.98278
6.77775
6.60814
6.45961
6.3156
6.15871
5.9731
5.7471
5.47509
5.15816
4.80364
4.42345
4.03187
3.64307
3.2691
2.91873
2.59746
2.30802
2.04752
1.81439
1.60664
1.42219
1.25896
1.115
0.988415
0.87746
0.780467
0.695866
0.622179
0.558021
0.502114
0.453296
0.410529
0.372915
0.339686
0.310205
0.28395
0.260495
0.239498
0.220679
0.203818
0.188754
0.175405
0.163846
0.154532
0.148893
0.150836
0.170184
0.230135
0.383349
0.747503
1.58414
3.46969
7.61171
15.7444
27.1307
35.1962
35.1076
31.0931
28.0874
26.8023
26.4836
26.1443
25.0901
23.2663
21.0544
18.8265
16.9672
15.7322
15.1493
14.8994
14.394
13.2838
11.7196
1095.8
110.659
26.7727
21.2726
20.4808
20.4768
20.2023
19.0723
17.0619
14.6418
12.2758
10.2508
8.65486
7.45638
6.57883
5.93915
5.4594
5.07336
4.74153
4.46812
4.31929
4.44436
4.72523
5.17883
5.85778
6.80899
8.06079
9.58312
11.1065
12.3675
13.192
13.5614
13.5398
13.1971
12.5912
11.7839
10.8521
9.88338
8.96533
8.18152
7.61497
7.35945
7.53301
8.28119
9.74765
11.9967
14.931
18.3074
21.8285
25.0922
27.4547
28.3245
27.7511
26.4376
25.1575
24.3871
24.1612
24.885
27.986
35.5214
48.5807
66.879
91.1501
112.954
107.443
75.126
46.8389
32.203
23.6298
17.9531
14.1199
11.7869
10.8015
10.9707
11.9737
13.3814
14.7587
15.8001
16.4062
16.6502
16.6816
16.6346
16.5806
16.5348
16.4966
16.482
16.546
16.7439
17.0072
17.288
17.5488
17.7399
17.756
17.4477
16.716
15.5498
14.0941
12.5781
11.1982
10.0442
9.11317
8.36663
7.77024
7.30261
6.94855
6.69354
6.52242
6.41919
6.36585
6.34119
6.3211
6.28066
6.19728
6.05384
5.84087
5.55759
5.21171
4.81788
4.3952
3.96396
3.54256
3.14529
2.78354
2.45865
2.16921
1.91314
1.6875
1.48913
1.31498
1.1623
1.02864
0.911811
0.809878
0.721073
0.643787
0.57655
0.518019
0.466981
0.422358
0.38321
0.348729
0.318236
0.291168
0.267058
0.245526
0.226261
0.209014
0.193598
0.179909
0.167997
0.15828
0.152124
0.153294
0.171325
0.228848
0.377456
0.732665
1.5508
3.39225
7.40159
15.0968
25.4772
32.5815
32.7466
29.5893
26.9599
25.612
25.0227
24.4317
23.332
21.6504
19.6456
17.6283
15.9455
14.8569
14.4345
14.3514
13.96
12.8821
11.2959
1155.33
206.465
49.0909
25.5315
21.6206
20.9979
20.6316
19.4588
17.3379
14.7341
12.188
10.0343
8.36921
7.14707
6.27302
5.64849
5.18388
4.80885
4.49333
4.25292
4.14202
4.23184
4.48493
4.92579
5.61593
6.61633
7.9584
9.59974
11.3444
12.8632
13.8874
14.3457
14.3095
13.8861
13.1705
12.2492
11.212
10.1507
9.15175
8.2929
7.64847
7.30296
7.37038
8.00882
9.40677
11.7085
14.8881
18.6913
22.7459
26.6296
29.6794
31.108
30.7447
29.2684
27.5192
26.0575
25.1683
25.4153
28.2034
35.2796
47.2264
63.8967
85.0061
99.5877
89.4864
61.7241
39.3148
27.3173
20.2541
15.6013
12.5318
10.8007
10.2995
10.8482
12.1203
13.6678
15.0448
15.9455
16.3407
16.3741
16.2296
16.0396
15.8472
15.6376
15.4008
15.1735
15.0863
15.155
15.2796
15.4222
15.568
15.6786
15.6778
15.4591
14.9105
13.9891
12.7873
11.4962
10.2936
9.26465
8.41195
7.71173
7.14925
6.72048
6.42133
6.2421
6.16784
6.17964
6.25419
6.3633
6.47513
6.55744
6.58146
6.52509
6.37499
6.1276
5.7894
5.37614
4.9108
4.42015
3.93047
3.4643
3.0416
2.66264
2.32856
2.03715
1.78441
1.56566
1.37628
1.21218
1.06982
0.946232
0.838915
0.745729
0.66482
0.594552
0.533475
0.480303
0.433901
0.39328
0.357594
0.326121
0.298259
0.273508
0.251453
0.231754
0.214137
0.198393
0.184395
0.172168
0.162088
0.155427
0.155737
0.17207
0.226026
0.366999
0.705598
1.48646
3.23972
7.02602
14.1853
23.6694
30.17
30.7244
28.2847
25.9545
24.5283
23.6906
22.8875
21.7432
20.1726
18.3609
16.5705
15.11
14.2376
14.032
14.1067
13.7519
12.6119
10.938
1032.3
305.756
98.325
42.498
27.6402
23.5366
22.0417
20.5738
18.3862
15.683
12.9691
10.6235
8.78626
7.43159
6.46535
5.78216
5.28741
4.91114
4.62433
4.43366
4.35723
4.42914
4.66315
5.113
5.85124
6.94478
8.42366
10.2352
12.1622
13.8348
14.9374
15.3748
15.2303
14.6459
13.7536
12.6679
11.4941
10.329
9.25525
8.34024
7.64346
7.23251
7.20682
7.72255
8.99873
11.2645
14.617
18.8669
23.5726
28.2246
32.1395
34.3386
34.3092
32.6329
30.2603
27.9473
26.3253
26.1363
28.6836
35.2388
45.9869
60.9707
78.508
87.0549
75.0271
51.8177
33.8451
23.7989
17.829
13.9315
11.4275
10.1319
9.96284
10.752
12.1723
13.7687
15.0973
15.8928
16.1617
16.0752
15.8347
15.5693
15.3061
15.01
14.6455
14.2763
14.0785
14.0227
14.0194
14.042
14.084
14.1119
14.0652
13.8542
13.379
12.5935
11.5661
10.456
9.41281
8.5046
7.73337
7.08905
6.57588
6.20498
5.98061
5.89594
5.93546
6.07678
6.29041
6.54013
6.78614
6.99006
7.11927
7.14935
7.06475
6.85897
6.53506
6.10637
5.59641
5.03656
4.46159
3.90914
3.40147
2.94506
2.54526
2.20111
1.90784
1.65891
1.44755
1.26756
1.1137
0.981683
0.868049
0.77001
0.685276
0.61193
0.548338
0.493094
0.444983
0.402956
0.366117
0.333705
0.305082
0.279712
0.257152
0.237036
0.219067
0.203014
0.188733
0.176221
0.165806
0.158647
0.158027
0.172358
0.221821
0.352657
0.668286
1.39636
3.02567
6.51892
13.074
21.7581
27.9124
28.9293
27.1147
25.0478
23.5604
22.518
21.5407
20.3489
18.8627
17.2279
15.6687
14.4604
13.8551
13.8907
14.0725
13.6465
12.3475
10.5399
661.574
361.465
161.904
79.1879
45.6711
32.4035
26.8152
23.6453
20.8527
17.9174
14.9982
12.3883
10.2585
8.6287
7.43098
6.56821
5.94666
5.49376
5.16734
4.94954
4.85566
4.93484
5.21749
5.76313
6.64928
7.94191
9.65463
11.6895
13.7595
15.4445
16.4304
16.657
16.2498
15.3897
14.2409
12.9407
11.6066
10.3359
9.20227
8.257
7.53917
7.09338
6.99566
7.38486
8.48693
10.5962
13.9575
18.5495
23.9588
29.5498
34.5571
37.8283
38.3715
36.498
33.3666
30.113
27.7784
27.2416
29.5566
35.4385
44.918
58.0473
71.7416
75.5325
63.272
44.2384
29.6983
21.1667
16.025
12.7032
10.6273
9.64462
9.68989
10.6089
12.086
13.6794
14.9667
15.7136
15.9374
15.8122
15.5366
15.2357
14.939
14.6196
14.2468
13.8508
13.5343
13.3251
13.1973
13.1257
13.0868
13.0418
12.9315
12.677
12.1967
11.4573
10.5244
9.53654
8.61394
7.80261
7.1022
6.51618
6.06519
5.77085
5.64161
5.67116
5.84196
6.12622
6.48543
6.87306
7.24154
7.54951
7.76581
7.86929
7.84647
7.68945
7.39593
6.97169
6.43394
5.81288
5.15034
4.50471
3.89086
3.33288
2.84334
2.4249
2.07327
1.78041
1.53702
1.33419
1.16421
1.02081
0.899066
0.795125
0.705987
0.629266
0.563026
0.505665
0.455844
0.412426
0.374456
0.341125
0.311753
0.285775
0.262718
0.242191
0.223877
0.207526
0.192973
0.180191
0.169452
0.161789
0.160159
0.172206
0.216337
0.334821
0.621963
1.28416
2.7605
5.90647
11.8042
19.7499
25.7292
27.2589
26.0256
24.218
22.7058
21.5109
20.3973
19.1635
17.7495
16.2789
14.949
14.0145
13.7088
13.9695
14.158
13.5292
11.9874
10.0297
210.092
354.193
212.818
122.084
73.8897
49.1358
36.5896
29.796
25.3103
21.6275
18.3113
15.3694
12.8918
10.9103
9.38708
8.24638
7.40511
6.7921
6.35642
6.06933
5.96716
6.10688
6.52313
7.28003
8.45504
10.095
12.1589
14.4385
16.5182
17.9432
18.4849
18.1996
17.2953
15.997
14.4912
12.9269
11.422
10.0628
8.90268
7.96784
7.27052
6.82763
6.68576
6.95343
7.83696
9.65617
12.7833
17.4421
23.4345
30.0978
36.5048
41.3152
42.9274
40.9944
36.9058
32.6255
29.6756
28.8692
30.8806
36.0206
44.3724
55.6987
65.9596
66.5409
54.8483
39.0058
26.8615
19.4038
14.8302
11.8982
10.106
9.31421
9.46538
10.4207
11.8875
13.4534
14.7256
15.4852
15.7393
15.6426
15.3774
15.0668
14.7546
14.4335
14.0755
13.6736
13.2848
12.9695
12.7425
12.5905
12.4816
12.3651
12.1758
11.8411
11.2984
10.5385
9.63841
8.7237
7.88452
7.14498
6.50544
5.98375
5.61294
5.41945
5.41178
5.58181
5.90707
6.34899
6.8539
7.362
7.82034
8.19153
8.45456
8.59984
8.62252
8.5174
8.27712
7.89504
7.37254
6.7276
6.01383
5.26688
4.52869
3.84227
3.23431
2.71549
2.28413
1.9311
1.64408
1.41054
1.21938
1.06152
0.929881
0.819107
0.725151
0.644941
0.5761
0.51675
0.465372
0.420719
0.381759
0.34763
0.317614
0.291112
0.267629
0.246751
0.228143
0.21154
0.19676
0.183751
0.172733
0.164611
0.162009
0.171757
0.210371
0.315808
0.572478
1.16382
2.47626
5.25647
10.485
17.7383
23.6345
25.6919
25.0124
23.4732
21.9805
20.6881
19.4771
18.2118
16.8574
15.5353
14.4339
13.7962
13.8027
14.2195
14.263
13.2935
11.4576
9.3691
99.717
304.84
263.6
175.55
112.934
75.1099
53.0391
40.2365
32.4907
27.2267
23.1443
19.7401
16.8742
14.5122
12.6201
11.144
10.0195
9.18508
8.59175
8.21368
8.12471
8.36593
8.97903
10.0358
11.5991
13.6572
16.0439
18.3618
20.0737
20.8082
20.5391
19.4869
17.9386
16.1398
14.2765
12.4884
10.8755
9.49662
8.37366
7.50244
6.86841
6.4645
6.31165
6.48624
7.1569
8.62053
11.2972
15.6066