/*--------------------------------*- C++ -*----------------------------------*\
| =========                 |                                                 |
| \\      /  F ield         | OpenFOAM: The Open Source CFD Toolbox           |
|  \\    /   O peration     | Version:  2112                                  |
|   \\  /    A nd           | Website:  www.openfoam.com                      |
|    \\/     M anipulation  |                                                 |
\*---------------------------------------------------------------------------*/
FoamFile
{
    version     2.0;
    format      ascii;
    arch        "LSB;label=32;scalar=64";
    class       surfaceScalarField;
    location    "0.14";
    object      phi;
}
// * * * * * * * * * * * * * * * * * * * * * * * * * * * * * * * * * * * * * //

dimensions      [0 3 -1 0 0 0 0];

oriented        oriented;

internalField   nonuniform List<scalar> 
24170
(
3.04187e-06
1.46537e-07
2.8833e-06
1.58566e-07
2.73993e-06
1.4337e-07
2.60979e-06
1.30141e-07
2.49339e-06
1.16408e-07
2.3919e-06
1.01487e-07
2.30559e-06
8.6311e-08
2.23418e-06
7.14032e-08
2.1773e-06
5.68877e-08
2.13446e-06
4.28337e-08
2.10512e-06
2.93464e-08
2.08859e-06
1.65313e-08
2.08355e-06
5.0301e-09
2.08851e-06
-4.95578e-09
2.10251e-06
-1.39948e-08
2.1245e-06
-2.19992e-08
2.15356e-06
-2.9058e-08
-1.65823e-08
2.17015e-06
3.49675e-06
6.70361e-08
3.55026e-06
1.05053e-07
3.58589e-06
1.0774e-07
3.60594e-06
1.10094e-07
3.6136e-06
1.08751e-07
3.6127e-06
1.02386e-07
3.60641e-06
9.25963e-08
3.59722e-06
8.05954e-08
3.58711e-06
6.69984e-08
3.57765e-06
5.22919e-08
3.57003e-06
3.69695e-08
3.56511e-06
2.14521e-08
3.56362e-06
6.51114e-09
3.56625e-06
-7.58478e-09
3.57349e-06
-2.12339e-08
3.58597e-06
-3.44794e-08
3.60364e-06
-4.67248e-08
-5.53592e-08
3.64242e-06
3.67886e-06
5.06891e-08
3.69559e-06
8.83292e-08
3.71399e-06
8.9334e-08
3.73483e-06
8.92568e-08
3.75626e-06
8.73184e-08
3.77728e-06
8.13678e-08
3.79738e-06
7.25027e-08
3.81622e-06
6.17506e-08
3.8337e-06
4.95183e-08
3.84991e-06
3.60851e-08
3.86511e-06
2.17624e-08
3.87964e-06
6.92852e-09
3.89424e-06
-8.09557e-09
3.91012e-06
-2.34573e-08
3.92823e-06
-3.93467e-08
3.94969e-06
-5.59426e-08
3.97718e-06
-7.42138e-08
-9.6925e-08
4.01875e-06
3.93579e-06
4.0285e-08
3.94691e-06
7.72114e-08
3.95608e-06
8.01668e-08
3.96631e-06
7.90213e-08
3.97743e-06
7.61988e-08
3.98925e-06
6.95521e-08
4.00187e-06
5.98823e-08
4.01528e-06
4.83369e-08
4.02939e-06
3.54057e-08
4.04415e-06
2.13281e-08
4.05958e-06
6.33502e-09
4.07592e-06
-9.41216e-09
4.0936e-06
-2.5778e-08
4.11308e-06
-4.29304e-08
4.13498e-06
-6.12522e-08
4.16045e-06
-8.14141e-08
4.19139e-06
-1.05151e-07
-1.36488e-07
4.23095e-06
4.21562e-06
3.17899e-08
4.22688e-06
6.59517e-08
4.23622e-06
7.0828e-08
4.24618e-06
6.90641e-08
4.25692e-06
6.54614e-08
4.26814e-06
5.83296e-08
4.27997e-06
4.80469e-08
4.29258e-06
3.57333e-08
4.30603e-06
2.19564e-08
4.32043e-06
6.92635e-09
4.3359e-06
-9.14162e-09
4.35264e-06
-2.61473e-08
4.37093e-06
-4.40724e-08
4.39118e-06
-6.31769e-08
4.41394e-06
-8.40085e-08
4.44004e-06
-1.07519e-07
4.47048e-06
-1.35593e-07
-1.72092e-07
4.50609e-06
4.51591e-06
2.49679e-08
4.5267e-06
5.51656e-08
4.53642e-06
6.1104e-08
4.54668e-06
5.87994e-08
4.55791e-06
5.42337e-08
4.56975e-06
4.64917e-08
4.58219e-06
3.56083e-08
4.59536e-06
2.25599e-08
4.60936e-06
7.95767e-09
4.62428e-06
-7.99131e-09
4.64026e-06
-2.51215e-08
4.6575e-06
-4.33914e-08
4.67629e-06
-6.2863e-08
4.69696e-06
-8.38459e-08
4.71991e-06
-1.06955e-07
4.7456e-06
-1.33212e-07
4.77431e-06
-1.64303e-07
-2.03193e-07
4.80541e-06
4.83824e-06
1.94471e-08
4.84837e-06
4.50365e-08
4.85833e-06
5.11394e-08
4.86876e-06
4.83723e-08
4.88021e-06
4.27863e-08
4.89241e-06
3.42913e-08
4.90527e-06
2.27507e-08
4.91888e-06
8.94544e-09
4.93335e-06
-6.51322e-09
4.94876e-06
-2.33972e-08
4.96523e-06
-4.15948e-08
4.98294e-06
-6.10969e-08
5.00209e-06
-8.20172e-08
5.02293e-06
-1.04682e-07
5.04566e-06
-1.29688e-07
5.0704e-06
-1.57952e-07
5.09686e-06
-1.9076e-07
-2.2999e-07
5.12365e-06
5.18413e-06
1.48998e-08
5.19352e-06
3.56421e-08
5.20357e-06
4.10951e-08
5.21413e-06
3.78127e-08
5.22573e-06
3.11819e-08
5.23822e-06
2.17999e-08
5.25145e-06
9.52738e-09
5.26545e-06
-5.05717e-09
5.28031e-06
-2.13785e-08
5.29611e-06
-3.91921e-08
5.31293e-06
-5.84181e-08
5.3309e-06
-7.907e-08
5.35017e-06
-1.0128e-07
5.37084e-06
-1.25351e-07
5.39294e-06
-1.51788e-07
5.41628e-06
-1.81294e-07
5.44022e-06
-2.14708e-07
-2.52969e-07
5.4632e-06
5.55516e-06
1.10797e-08
5.5638e-06
2.69982e-08
5.57378e-06
3.11175e-08
5.58445e-06
2.71459e-08
5.59617e-06
1.94586e-08
5.60887e-06
9.09778e-09
5.62237e-06
-3.97067e-09
5.63665e-06
-1.93398e-08
5.65178e-06
-3.65052e-08
5.6678e-06
-5.52152e-08
5.68478e-06
-7.53984e-08
5.70279e-06
-9.70751e-08
5.72187e-06
-1.20364e-07
5.74203e-06
-1.45508e-07
5.76312e-06
-1.72875e-07
5.78474e-06
-2.02916e-07
5.8061e-06
-2.36064e-07
-2.72556e-07
5.82568e-06
5.95305e-06
7.80647e-09
5.96098e-06
1.90683e-08
5.97077e-06
2.1331e-08
5.98147e-06
1.6437e-08
5.99325e-06
7.67989e-09
6.00606e-06
-3.71083e-09
6.01972e-06
-1.76263e-08
6.03416e-06
-3.37809e-08
6.04941e-06
-5.17558e-08
6.06549e-06
-7.13003e-08
6.08243e-06
-9.23341e-08
6.10022e-06
-1.14866e-07
6.11884e-06
-1.38978e-07
6.13816e-06
-1.64828e-07
6.15791e-06
-1.92631e-07
6.17759e-06
-2.22597e-07
6.19637e-06
-2.54846e-07
-2.8916e-07
6.21298e-06
6.37967e-06
4.95054e-09
6.38694e-06
1.1794e-08
6.39643e-06
1.18407e-08
6.40709e-06
5.78101e-09
6.41884e-06
-4.07408e-09
6.43165e-06
-1.65159e-08
6.44533e-06
-3.13088e-08
6.45978e-06
-4.82356e-08
6.47499e-06
-6.69598e-08
6.49093e-06
-8.72409e-08
6.50758e-06
-1.0898e-07
6.52487e-06
-1.32159e-07
6.5427e-06
-1.56807e-07
6.56086e-06
-1.82988e-07
6.579e-06
-2.10773e-07
6.59658e-06
-2.40173e-07
6.61283e-06
-2.71095e-07
-3.03061e-07
6.62673e-06
5.743e-06
2.78184e-09
5.74869e-06
6.10674e-09
5.75642e-06
4.11555e-09
5.76529e-06
-3.09762e-09
5.77513e-06
-1.39109e-08
5.78585e-06
-2.72373e-08
5.79731e-06
-4.27711e-08
5.8094e-06
-6.03229e-08
5.82206e-06
-7.9615e-08
5.83524e-06
-1.0042e-07
5.84888e-06
-1.2262e-07
5.86288e-06
-1.46166e-07
5.87711e-06
-1.71038e-07
5.89135e-06
-1.97223e-07
5.90526e-06
-2.24686e-07
5.9184e-06
-2.53315e-07
5.93021e-06
-2.82901e-07
-3.12861e-07
5.94001e-06
7.00041e-06
5.26187e-10
7.00644e-06
7.93382e-11
7.01489e-06
-4.33894e-09
7.02482e-06
-1.30259e-08
7.03588e-06
-2.49716e-08
7.04793e-06
-3.92904e-08
7.06081e-06
-5.56452e-08
7.07435e-06
-7.38599e-08
7.08844e-06
-9.37076e-08
7.103e-06
-1.14977e-07
7.1179e-06
-1.37528e-07
7.13301e-06
-1.61274e-07
7.14811e-06
-1.86138e-07
7.16292e-06
-2.12029e-07
7.17706e-06
-2.38822e-07
7.19005e-06
-2.66306e-07
7.20135e-06
-2.94206e-07
-3.21917e-07
7.21041e-06
8.53317e-06
-1.79854e-09
8.53944e-06
-6.18595e-09
8.54847e-06
-1.33715e-08
8.55929e-06
-2.38503e-08
8.57143e-06
-3.71072e-08
8.58464e-06
-5.25032e-08
8.59872e-06
-6.97179e-08
8.61344e-06
-8.85829e-08
8.62864e-06
-1.0891e-07
8.64417e-06
-1.30503e-07
8.65984e-06
-1.53203e-07
8.67545e-06
-1.7688e-07
8.69071e-06
-2.01403e-07
8.7053e-06
-2.26616e-07
8.7188e-06
-2.52326e-07
8.73076e-06
-2.78269e-07
8.74071e-06
-3.04149e-07
-3.29413e-07
8.7482e-06
1.04016e-05
-4.13683e-09
1.04079e-05
-1.25506e-08
1.04173e-05
-2.27425e-08
1.04287e-05
-3.52739e-08
1.04416e-05
-4.99852e-08
1.04556e-05
-6.64879e-08
1.04704e-05
-8.45239e-08
1.04857e-05
-1.03938e-07
1.05014e-05
-1.24569e-07
1.05171e-05
-1.46236e-07
1.05327e-05
-1.68765e-07
1.05478e-05
-1.9199e-07
1.05621e-05
-2.15739e-07
1.05753e-05
-2.39815e-07
1.0587e-05
-2.63989e-07
1.05967e-05
-2.87988e-07
1.06041e-05
-3.11537e-07
-3.34181e-07
1.06089e-05
1.26791e-05
-6.42112e-09
1.26853e-05
-1.88223e-08
1.26947e-05
-3.20982e-08
1.27062e-05
-4.68054e-08
1.27193e-05
-6.3012e-08
1.27333e-05
-8.0546e-08
1.2748e-05
-9.92407e-08
1.27631e-05
-1.18969e-07
1.27781e-05
-1.39592e-07
1.27928e-05
-1.60946e-07
1.28069e-05
-1.82852e-07
1.282e-05
-2.05128e-07
1.28319e-05
-2.27581e-07
1.28421e-05
-2.50001e-07
1.28502e-05
-2.7216e-07
1.2856e-05
-2.93812e-07
1.28592e-05
-3.14727e-07
-3.34563e-07
1.28596e-05
1.54553e-05
-8.56561e-09
1.54612e-05
-2.47269e-08
1.54701e-05
-4.0946e-08
1.5481e-05
-5.77298e-08
1.54933e-05
-7.52781e-08
1.55063e-05
-9.35886e-08
1.55197e-05
-1.12597e-07
1.55329e-05
-1.32222e-07
1.55457e-05
-1.52353e-07
1.55576e-05
-1.72849e-07
1.55683e-05
-1.93547e-07
1.55774e-05
-2.1427e-07
1.55847e-05
-2.34833e-07
1.55897e-05
-2.55039e-07
1.55922e-05
-2.7469e-07
1.5592e-05
-2.93586e-07
1.55888e-05
-3.11548e-07
-3.28348e-07
1.55826e-05
1.88395e-05
-1.04469e-08
1.88447e-05
-2.99308e-08
1.88525e-05
-4.86911e-08
1.88619e-05
-6.71505e-08
1.88722e-05
-8.55907e-08
1.88828e-05
-1.04151e-07
1.8893e-05
-1.22877e-07
1.89026e-05
-1.41746e-07
1.89109e-05
-1.60694e-07
1.89177e-05
-1.79619e-07
1.89225e-05
-1.98392e-07
1.89251e-05
-2.16867e-07
1.89252e-05
-2.34888e-07
1.89224e-05
-2.52296e-07
1.89167e-05
-2.68937e-07
1.89078e-05
-2.84663e-07
1.88956e-05
-2.99347e-07
-3.12855e-07
1.88801e-05
2.29648e-05
-1.18797e-08
2.29689e-05
-3.40893e-08
2.29749e-05
-5.47064e-08
2.29819e-05
-7.40698e-08
2.29888e-05
-9.25612e-08
2.29952e-05
-1.10487e-07
2.30003e-05
-1.28016e-07
2.30038e-05
-1.45206e-07
2.30051e-05
-1.62055e-07
2.3004e-05
-1.78526e-07
2.30002e-05
-1.94549e-07
2.29934e-05
-2.10026e-07
2.29833e-05
-2.24846e-07
2.29699e-05
-2.38898e-07
2.2953e-05
-2.52073e-07
2.29327e-05
-2.64272e-07
2.29087e-05
-2.75414e-07
-2.85432e-07
2.28813e-05
1.68115e-05
-1.26778e-08
1.68138e-05
-3.63859e-08
1.68168e-05
-5.77506e-08
1.68198e-05
-7.70756e-08
1.68222e-05
-9.49282e-08
1.68235e-05
-1.118e-07
1.68235e-05
-1.27944e-07
1.68217e-05
-1.43463e-07
1.68181e-05
-1.58413e-07
1.68124e-05
-1.72816e-07
1.68045e-05
-1.86646e-07
1.67943e-05
-1.99843e-07
1.67818e-05
-2.12327e-07
1.67669e-05
-2.24015e-07
1.67496e-05
-2.34824e-07
1.673e-05
-2.44679e-07
1.67081e-05
-2.53515e-07
-2.6129e-07
1.6684e-05
1.46353e-05
-1.34271e-08
1.46373e-05
-3.8403e-08
1.46397e-05
-6.01038e-08
1.46415e-05
-7.88935e-08
1.46423e-05
-9.57129e-08
1.46418e-05
-1.11277e-07
1.46397e-05
-1.25875e-07
1.46359e-05
-1.39642e-07
1.46302e-05
-1.52705e-07
1.46225e-05
-1.65146e-07
1.46128e-05
-1.76977e-07
1.46012e-05
-1.88164e-07
1.45875e-05
-1.98654e-07
1.45718e-05
-2.08383e-07
1.45543e-05
-2.17284e-07
1.45349e-05
-2.25293e-07
1.45138e-05
-2.32353e-07
-2.38432e-07
1.44909e-05
1.27411e-05
-1.43498e-08
1.27434e-05
-4.07118e-08
1.27457e-05
-6.2445e-08
1.27471e-05
-8.02739e-08
1.27472e-05
-9.58162e-08
1.27459e-05
-1.09971e-07
1.2743e-05
-1.22965e-07
1.27383e-05
-1.34967e-07
1.27318e-05
-1.46195e-07
1.27234e-05
-1.56796e-07
1.27133e-05
-1.66811e-07
1.27013e-05
-1.76231e-07
1.26877e-05
-1.85021e-07
1.26725e-05
-1.93134e-07
1.26557e-05
-2.00507e-07
1.26375e-05
-2.07077e-07
1.26179e-05
-2.12782e-07
-2.17579e-07
1.2597e-05
1.10922e-05
-1.56627e-08
1.10953e-05
-4.37533e-08
1.1098e-05
-6.51425e-08
1.10993e-05
-8.1583e-08
1.10992e-05
-9.57172e-08
1.10977e-05
-1.08448e-07
1.10945e-05
-1.19836e-07
1.10897e-05
-1.30117e-07
1.10831e-05
-1.39616e-07
1.10748e-05
-1.4852e-07
1.10649e-05
-1.56894e-07
1.10534e-05
-1.64752e-07
1.10405e-05
-1.72083e-07
1.10262e-05
-1.7885e-07
1.10107e-05
-1.84996e-07
1.09941e-05
-1.90454e-07
1.09765e-05
-1.95152e-07
-1.99039e-07
1.09579e-05
9.65718e-06
-1.76293e-08
9.66127e-06
-4.78377e-08
9.6644e-06
-6.82794e-08
9.66581e-06
-8.29928e-08
9.66583e-06
-9.57307e-08
9.6644e-06
-1.07023e-07
9.66134e-06
-1.16774e-07
9.6566e-06
-1.25375e-07
9.65023e-06
-1.33251e-07
9.64231e-06
-1.40601e-07
9.63292e-06
-1.475e-07
9.62215e-06
-1.53984e-07
9.61013e-06
-1.60066e-07
9.597e-06
-1.65719e-07
9.58289e-06
-1.70888e-07
9.56793e-06
-1.75494e-07
9.55223e-06
-1.79446e-07
-1.82665e-07
9.53585e-06
8.40836e-06
-2.06362e-08
8.41367e-06
-5.31526e-08
8.41701e-06
-7.16136e-08
8.41849e-06
-8.44759e-08
8.4188e-06
-9.60351e-08
8.41771e-06
-1.05936e-07
8.41499e-06
-1.14057e-07
8.41065e-06
-1.21033e-07
8.40476e-06
-1.27357e-07
8.39738e-06
-1.33222e-07
8.3886e-06
-1.38721e-07
8.37853e-06
-1.4392e-07
8.36732e-06
-1.48852e-07
8.35511e-06
-1.53507e-07
8.34205e-06
-1.57834e-07
8.3283e-06
-1.61741e-07
8.31397e-06
-1.65117e-07
-1.67826e-07
8.29913e-06
7.3218e-06
-2.51521e-08
7.3285e-06
-5.98494e-08
7.33175e-06
-7.48677e-08
7.33311e-06
-8.58386e-08
7.33338e-06
-9.63059e-08
7.33222e-06
-1.04769e-07
7.32946e-06
-1.11302e-07
7.32519e-06
-1.16758e-07
7.31946e-06
-1.21629e-07
7.31234e-06
-1.26105e-07
7.30393e-06
-1.30312e-07
7.29437e-06
-1.34357e-07
7.28382e-06
-1.38302e-07
7.27248e-06
-1.42162e-07
7.26056e-06
-1.45913e-07
7.24827e-06
-1.49451e-07
7.23579e-06
-1.52637e-07
-1.55238e-07
7.2232e-06
6.37636e-06
-3.14426e-08
6.38385e-06
-6.73393e-08
6.38695e-06
-7.79752e-08
6.3885e-06
-8.73806e-08
6.38896e-06
-9.67681e-08
6.38809e-06
-1.03903e-07
6.38606e-06
-1.09266e-07
6.38309e-06
-1.13793e-07
6.37936e-06
-1.17896e-07
6.375e-06
-1.21748e-07
6.37019e-06
-1.25497e-07
6.36509e-06
-1.29266e-07
6.35992e-06
-1.33128e-07
6.35488e-06
-1.37124e-07
6.35021e-06
-1.41246e-07
6.34616e-06
-1.45395e-07
6.34285e-06
-1.49326e-07
-1.52796e-07
6.34041e-06
5.55583e-06
-4.18044e-08
5.56563e-06
-7.71386e-08
5.57409e-06
-8.64393e-08
5.5841e-06
-9.73923e-08
5.59515e-06
-1.0782e-07
5.60666e-06
-1.15415e-07
5.61838e-06
-1.20979e-07
5.63002e-06
-1.25436e-07
5.64131e-06
-1.29181e-07
5.652e-06
-1.32439e-07
5.66191e-06
-1.35415e-07
5.67093e-06
-1.38277e-07
5.67893e-06
-1.41134e-07
5.6859e-06
-1.44087e-07
5.69183e-06
-1.47176e-07
5.69672e-06
-1.50287e-07
5.70053e-06
-1.53136e-07
-1.55938e-07
5.70367e-06
4.89395e-06
-1.0815e-07
4.94601e-06
-1.29195e-07
4.98874e-06
-1.2917e-07
5.02224e-06
-1.30889e-07
5.04566e-06
-1.31241e-07
5.05939e-06
-1.29146e-07
5.06416e-06
-1.25746e-07
5.0607e-06
-1.21984e-07
5.04979e-06
-1.18264e-07
5.03213e-06
-1.14777e-07
5.00835e-06
-1.11636e-07
4.97897e-06
-1.08902e-07
4.94442e-06
-1.06581e-07
4.90508e-06
-1.04744e-07
4.86132e-06
-1.0342e-07
4.81343e-06
-1.02402e-07
4.76165e-06
-1.0135e-07
-1.0033e-07
4.70604e-06
4.09453e-06
3.96533e-06
3.83616e-06
3.70527e-06
3.57403e-06
3.44488e-06
3.31914e-06
3.19715e-06
3.07889e-06
2.96411e-06
2.85248e-06
2.74357e-06
2.63699e-06
2.53225e-06
2.42883e-06
2.32643e-06
2.22508e-06
2.12475e-06
-1.11768e-07
1.11768e-07
-2.34034e-07
1.22266e-07
-3.3064e-07
9.66056e-08
-4.18224e-07
8.7584e-08
-5.23917e-07
1.05693e-07
-6.66105e-07
1.42188e-07
-8.58346e-07
1.92241e-07
-1.10982e-06
2.51478e-07
-1.42315e-06
3.13321e-07
-1.79401e-06
3.70862e-07
-2.21246e-06
4.18451e-07
-2.66486e-06
4.524e-07
-3.13576e-06
4.70896e-07
-3.60927e-06
4.73517e-07
-4.06996e-06
4.60686e-07
-4.50339e-06
4.33433e-07
-4.89666e-06
3.93265e-07
-5.23859e-06
3.41932e-07
-5.5199e-06
2.81311e-07
-5.73327e-06
2.1337e-07
-5.87356e-06
1.40288e-07
-5.93854e-06
6.49839e-08
-5.93075e-06
-7.78456e-09
-5.8547e-06
-7.60557e-08
-5.71483e-06
-1.3987e-07
-5.51477e-06
-2.00057e-07
-5.25784e-06
-2.56928e-07
-4.94737e-06
-3.10471e-07
-4.58679e-06
-3.6058e-07
-4.17961e-06
-4.07178e-07
-3.72933e-06
-4.50288e-07
-3.23925e-06
-4.90076e-07
-2.71239e-06
-5.26863e-07
-2.15132e-06
-5.61062e-07
-1.55822e-06
-5.93108e-07
-9.34612e-07
-6.23605e-07
-2.80817e-07
-6.53795e-07
4.0261e-07
-6.83426e-07
1.11288e-06
-7.10267e-07
1.84624e-06
-7.33362e-07
2.59738e-06
-7.51147e-07
3.35807e-06
-7.60688e-07
4.11711e-06
-7.59035e-07
4.86098e-06
-7.43871e-07
5.57028e-06
-7.09305e-07
6.20075e-06
-6.30467e-07
6.65985e-06
-4.591e-07
6.8208e-06
-1.60944e-07
6.60855e-06
2.12242e-07
6.069e-06
5.39551e-07
5.31762e-06
7.51385e-07
4.50434e-06
8.13273e-07
3.76108e-06
7.43261e-07
3.15936e-06
6.01725e-07
2.70083e-06
4.58529e-07
2.33382e-06
3.67009e-07
1.98764e-06
3.46175e-07
1.61814e-06
3.695e-07
1.2439e-06
3.74242e-07
9.40003e-07
3.03899e-07
8.13018e-07
1.26985e-07
8.9906e-07
-8.6042e-08
1.25013e-06
-3.51074e-07
1.80284e-06
-5.52703e-07
2.40431e-06
-6.01473e-07
2.88403e-06
-4.79721e-07
3.14842e-06
-2.64387e-07
3.22543e-06
-7.70096e-08
3.22679e-06
-1.3619e-09
3.25489e-06
-2.81005e-08
3.31738e-06
-6.24838e-08
3.29304e-06
2.43344e-08
2.99168e-06
3.01361e-07
2.25437e-06
7.37314e-07
1.04604e-06
1.20833e-06
-5.23701e-07
1.56974e-06
-2.25498e-06
1.73128e-06
-3.9846e-06
1.72961e-06
-5.60692e-06
1.62232e-06
-7.06078e-06
1.45386e-06
-8.31733e-06
1.25655e-06
-9.36893e-06
1.0516e-06
-1.02202e-05
8.51253e-07
-1.08816e-05
6.61406e-07
-1.13656e-05
4.84053e-07
-1.16854e-05
3.19714e-07
-1.18554e-05
1.70026e-07
-1.18918e-05
3.6453e-08
-1.18213e-05
-7.05553e-08
-1.16607e-05
-1.60621e-07
-1.14197e-05
-2.40994e-07
-1.11049e-05
-3.14798e-07
-1.07216e-05
-3.8324e-07
-1.02747e-05
-4.46938e-07
-9.76833e-06
-5.06356e-07
-9.20642e-06
-5.61908e-07
-8.59252e-06
-6.13902e-07
-7.93009e-06
-6.62436e-07
-7.22279e-06
-7.07295e-07
-6.47483e-06
-7.47957e-07
-5.69119e-06
-7.83648e-07
-4.87782e-06
-8.13362e-07
-4.04187e-06
-8.35956e-07
-3.19154e-06
-8.50324e-07
-2.33598e-06
-8.55567e-07
-1.4849e-06
-8.51082e-07
-6.47246e-07
-8.37649e-07
1.66612e-07
-8.13857e-07
9.46872e-07
-7.8026e-07
1.68597e-06
-7.39096e-07
2.37816e-06
-6.92189e-07
3.01882e-06
-6.40658e-07
3.60471e-06
-5.85892e-07
4.13384e-06
-5.29128e-07
4.60498e-06
-4.71149e-07
5.01762e-06
-4.12639e-07
5.37213e-06
-3.54504e-07
5.66965e-06
-2.97525e-07
5.91159e-06
-2.41941e-07
6.09915e-06
-1.87554e-07
6.23434e-06
-1.35192e-07
6.31323e-06
-7.88873e-08
6.3215e-06
-8.27238e-09
6.24127e-06
8.02276e-08
6.08155e-06
1.5972e-07
5.85088e-06
2.30671e-07
5.55987e-06
2.91009e-07
5.21982e-06
3.40056e-07
4.84282e-06
3.76993e-07
4.44218e-06
4.00644e-07
4.03258e-06
4.096e-07
3.63016e-06
4.02417e-07
3.25187e-06
3.78286e-07
2.91379e-06
3.38084e-07
2.62877e-06
2.85023e-07
2.40465e-06
2.24118e-07
2.24348e-06
1.61174e-07
2.14109e-06
1.02386e-07
2.0872e-06
5.38916e-08
2.06683e-06
2.03706e-08
2.06327e-06
3.5587e-09
2.06154e-06
1.73384e-09
2.05194e-06
9.5981e-09
2.03029e-06
2.16441e-08
1.99785e-06
3.24424e-08
1.95932e-06
3.85287e-08
1.92075e-06
3.85706e-08
1.88772e-06
3.30308e-08
1.86403e-06
2.36942e-08
1.8509e-06
1.31271e-08
1.84764e-06
3.2556e-09
1.85323e-06
-5.59081e-09
1.86854e-06
-1.53105e-08
1.89592e-06
-2.73763e-08
1.93883e-06
-4.29101e-08
2.0016e-06
-6.27705e-08
2.08689e-06
-8.52851e-08
2.19599e-06
-1.09105e-07
2.32585e-06
-1.29857e-07
2.46153e-06
-1.35686e-07
2.57418e-06
-1.12641e-07
2.63832e-06
-6.41476e-08
2.63482e-06
3.5075e-09
2.43299e-06
2.01825e-07
1.65816e-06
7.74827e-07
7.60391e-08
1.58212e-06
-1.94533e-06
2.02137e-06
-3.80888e-06
1.86356e-06
-5.19186e-06
1.38298e-06
-6.01978e-06
8.27914e-07
-6.32505e-06
3.05273e-07
-6.21125e-06
-1.13798e-07
-5.76429e-06
-4.46964e-07
-5.02783e-06
-7.3646e-07
-4.04039e-06
-9.87436e-07
-2.86292e-06
-1.17748e-06
-1.5865e-06
-1.27642e-06
-3.16976e-07
-1.26952e-06
8.32066e-07
-1.14904e-06
-8.84127e-07
1.71619e-06
-3.00248e-07
4.12017e-07
-5.72905e-07
3.94922e-07
-8.36263e-07
3.59964e-07
-1.14159e-06
3.92912e-07
-1.50149e-06
4.65595e-07
-1.91026e-06
5.50959e-07
-2.35782e-06
6.398e-07
-2.83028e-06
7.23936e-07
-3.31253e-06
7.95566e-07
-3.79041e-06
8.48748e-07
-4.25146e-06
8.79503e-07
-4.68501e-06
8.85946e-07
-5.08226e-06
8.68143e-07
-5.43641e-06
8.2767e-07
-5.74283e-06
7.6711e-07
-5.99899e-06
6.89585e-07
-6.20412e-06
5.98395e-07
-6.35891e-06
4.96725e-07
-6.46507e-06
3.8747e-07
-6.5249e-06
2.73202e-07
-6.54072e-06
1.5611e-07
-6.51465e-06
3.89131e-08
-6.44168e-06
-8.07593e-08
-6.31827e-06
-1.99461e-07
-6.14147e-06
-3.16673e-07
-5.9111e-06
-4.3043e-07
-5.62879e-06
-5.39241e-07
-5.29726e-06
-6.41997e-07
-4.91992e-06
-7.37923e-07
-4.50051e-06
-8.26583e-07
-4.0429e-06
-9.07904e-07
-3.55078e-06
-9.82199e-07
-3.0275e-06
-1.05014e-06
-2.47589e-06
-1.11267e-06
-1.89815e-06
-1.17085e-06
-1.2958e-06
-1.22595e-06
-6.70179e-07
-1.27942e-06
-2.10486e-08
-1.33256e-06
6.52523e-07
-1.38384e-06
1.3492e-06
-1.43004e-06
2.06624e-06
-1.46819e-06
2.79921e-06
-1.49366e-06
3.5401e-06
-1.49993e-06
4.27549e-06
-1.47926e-06
4.99057e-06
-1.42439e-06
5.68863e-06
-1.32852e-06
6.40843e-06
-1.1789e-06
7.18296e-06
-9.35479e-07
7.94139e-06
-5.46188e-07
8.51029e-06
-2.93469e-08
8.74328e-06
5.18393e-07
8.5737e-06
9.82849e-07
8.02467e-06
1.2923e-06
7.19897e-06
1.42742e-06
6.24124e-06
1.41626e-06
5.28258e-06
1.32567e-06
4.4009e-06
1.22785e-06
3.62327e-06
1.14713e-06
2.95566e-06
1.04185e-06
2.4157e-06
8.43862e-07
2.04334e-06
4.99338e-07
1.91649e-06
4.08111e-08
2.04471e-06
-4.79289e-07
2.40388e-06
-9.11873e-07
2.89901e-06
-1.09661e-06
3.39299e-06
-9.737e-07
3.77792e-06
-6.49321e-07
4.02138e-06
-3.20469e-07
4.13255e-06
-1.12535e-07
4.0186e-06
8.58506e-08
3.42129e-06
5.3483e-07
2.11738e-06
1.32825e-06
1.82986e-07
2.23575e-06
-2.02428e-06
2.94457e-06
-4.1505e-06
3.33455e-06
-6.01683e-06
3.43607e-06
-7.577e-06
3.29145e-06
-8.82877e-06
2.98138e-06
-9.79382e-06
2.58737e-06
-1.05118e-05
2.17185e-06
-1.10297e-05
1.77442e-06
-1.13926e-05
1.41451e-06
-1.16388e-05
1.09746e-06
-1.17976e-05
8.20259e-07
-1.18901e-05
5.76538e-07
-1.19299e-05
3.59441e-07
-1.19226e-05
1.62766e-07
-1.18674e-05
-1.87411e-08
-1.17479e-05
-1.90108e-07
-1.15548e-05
-3.53627e-07
-1.1289e-05
-5.06803e-07
-1.09541e-05
-6.49771e-07
-1.05542e-05
-7.83056e-07
-1.00939e-05
-9.07329e-07
-9.57684e-06
-1.02337e-06
-9.00675e-06
-1.132e-06
-8.38678e-06
-1.23386e-06
-7.71999e-06
-1.32923e-06
-7.00953e-06
-1.41776e-06
-6.25906e-06
-1.49843e-06
-5.4732e-06
-1.5695e-06
-4.6578e-06
-1.62876e-06
-3.81999e-06
-1.67377e-06
-2.96811e-06
-1.7022e-06
-2.11137e-06
-1.71231e-06
-1.25915e-06
-1.7033e-06
-4.2198e-07
-1.67482e-06
3.91018e-07
-1.62686e-06
1.16973e-06
-1.55897e-06
1.90718e-06
-1.47655e-06
2.59773e-06
-1.38273e-06
3.23727e-06
-1.2802e-06
3.82308e-06
-1.1717e-06
4.35361e-06
-1.05965e-06
4.82844e-06
-9.45984e-07
5.2481e-06
-8.32302e-07
5.61366e-06
-7.20057e-07
5.92655e-06
-6.1042e-07
6.1888e-06
-5.04189e-07
6.40302e-06
-4.01773e-07
6.57095e-06
-3.03121e-07
6.7013e-06
-2.09241e-07
6.81429e-06
-1.21261e-07
6.92354e-06
-2.90252e-08
7.02394e-06
5.93261e-08
7.10109e-06
1.53517e-07
7.14448e-06
2.47622e-07
7.14523e-06
3.39307e-07
7.09745e-06
4.24771e-07
6.99863e-06
4.99462e-07
6.84997e-06
5.58259e-07
6.6567e-06
5.95685e-07
6.42808e-06
6.06912e-07
6.17667e-06
5.89488e-07
5.91671e-06
5.44982e-07
5.6616e-06
4.79228e-07
5.42146e-06
4.01317e-07
5.2018e-06
3.22045e-07
5.0039e-06
2.51796e-07
4.82621e-06
1.98061e-07
4.66601e-06
1.63754e-07
4.52051e-06
1.47237e-07
4.38652e-06
1.43586e-07
4.26111e-06
1.47053e-07
4.14142e-06
1.5214e-07
4.02516e-06
1.54783e-07
3.91097e-06
1.52761e-07
3.7984e-06
1.45597e-07
3.68789e-06
1.34205e-07
3.58089e-06
1.20126e-07
3.4799e-06
1.04247e-07
3.38795e-06
8.63587e-08
3.30749e-06
6.51516e-08
3.24112e-06
3.89899e-08
3.19089e-06
7.32855e-09
3.15864e-06
-3.05228e-08
3.14403e-06
-7.06805e-08
3.15099e-06
-1.16065e-07
3.19157e-06
-1.70437e-07
3.278e-06
-2.22116e-07
3.39587e-06
-2.30507e-07
3.46367e-06
-1.31948e-07
3.24835e-06
2.18828e-07
2.26172e-06
1.18845e-06
2.07181e-07
2.82937e-06
-2.20534e-06
3.99464e-06
-4.10416e-06
3.92019e-06
-5.28455e-06
3.04394e-06
-5.89715e-06
1.99559e-06
-6.14517e-06
1.07593e-06
-6.15964e-06
3.19748e-07
-5.94663e-06
-3.26813e-07
-5.46298e-06
-9.30612e-07
-4.70649e-06
-1.49295e-06
-3.70687e-06
-1.98705e-06
-2.52353e-06
-2.36082e-06
-1.24725e-06
-2.5527e-06
1.40377e-08
-2.53081e-06
1.15432e-06
-2.28933e-06
-1.8328e-06
2.10299e-06
-3.75914e-07
7.87931e-07
-7.30229e-07
7.49237e-07
-1.10668e-06
7.36419e-07
-1.53821e-06
8.24434e-07
-2.0092e-06
9.36592e-07
-2.5006e-06
1.04235e-06
-2.99611e-06
1.13531e-06
-3.48033e-06
1.20817e-06
-3.94124e-06
1.25647e-06
-4.37108e-06
1.27859e-06
-4.76605e-06
1.27447e-06
-5.1254e-06
1.24529e-06
-5.45025e-06
1.19299e-06
-5.74243e-06
1.11985e-06
-6.00344e-06
1.02812e-06
-6.23362e-06
9.19764e-07
-6.43168e-06
7.96462e-07
-6.59463e-06
6.59675e-07
-6.71799e-06
5.10833e-07
-6.79632e-06
3.51526e-07
-6.8241e-06
1.83892e-07
-6.79555e-06
1.0364e-08
-6.70965e-06
-1.6666e-07
-6.56522e-06
-3.43892e-07
-6.3635e-06
-5.18393e-07
-6.10658e-06
-6.87353e-07
-5.79754e-06
-8.48279e-07
-5.44039e-06
-9.99147e-07
-5.03982e-06
-1.13849e-06
-4.60091e-06
-1.26549e-06
-4.12883e-06
-1.37999e-06
-3.62846e-06
-1.48256e-06
-3.10421e-06
-1.57439e-06
-2.55973e-06
-1.65714e-06
-1.99782e-06
-1.73277e-06
-1.42032e-06
-1.80345e-06
-8.28359e-07
-1.87138e-06
-2.22186e-07
-1.93873e-06
3.99885e-07
-2.00591e-06
1.03962e-06
-2.06977e-06
1.69724e-06
-2.12581e-06
2.37207e-06
-2.16849e-06
3.06161e-06
-2.18947e-06
3.75994e-06
-2.1776e-06
4.45516e-06
-2.1196e-06
5.12938e-06
-2.00274e-06
5.7694e-06
-1.81892e-06
6.39937e-06
-1.56545e-06
7.08964e-06
-1.23645e-06
7.86423e-06
-8.03942e-07
8.61864e-06
-2.36013e-07
9.15725e-06
4.44233e-07
9.31849e-06
1.13107e-06
9.05152e-06
1.69439e-06
8.4159e-06
2.05188e-06
7.5452e-06
2.19637e-06
6.59562e-06
2.17742e-06
5.69346e-06
2.0493e-06
4.90826e-06
1.82705e-06
4.26311e-06
1.48902e-06
3.75405e-06
1.0084e-06
3.41796e-06
3.76901e-07
3.29463e-06
-3.55958e-07
3.40085e-06
-1.0181e-06
3.66942e-06
-1.36517e-06
3.96553e-06
-1.26981e-06
4.16484e-06
-8.48629e-07
4.16126e-06
-3.16886e-07
3.71112e-06
3.37605e-07
2.49098e-06
1.30598e-06
5.01059e-07
2.52476e-06
-1.81935e-06
3.64866e-06
-3.98021e-06
4.39661e-06
-5.76655e-06
4.73091e-06
-7.13569e-06
4.7037e-06
-8.11959e-06
4.41997e-06
-8.80949e-06
3.98135e-06
-9.3065e-06
3.4784e-06
-9.69474e-06
2.97561e-06
-1.00304e-05
2.50747e-06
-1.03409e-05
2.08494e-06
-1.06316e-05
1.70525e-06
-1.08944e-05
1.36025e-06
-1.11156e-05
1.0414e-06
-1.1281e-05
7.4202e-07
-1.13794e-05
4.57806e-07
-1.14029e-05
1.86305e-07
-1.1349e-05
-7.26601e-08
-1.1219e-05
-3.20123e-07
-1.10174e-05
-5.55267e-07
-1.07471e-05
-7.77081e-07
-1.04117e-05
-9.85106e-07
-1.00153e-05
-1.17947e-06
-9.56181e-06
-1.36085e-06
-9.0548e-06
-1.53039e-06
-8.4974e-06
-1.6894e-06
-7.89222e-06
-1.83904e-06
-7.24155e-06
-1.97989e-06
-6.54778e-06
-2.11153e-06
-5.81387e-06
-2.23234e-06
-5.04389e-06
-2.33948e-06
-4.2434e-06
-2.42925e-06
-3.41959e-06
-2.49758e-06
-2.5811e-06
-2.54069e-06
-1.7376e-06
-2.55581e-06
-8.99358e-07
-2.54154e-06
-7.68771e-08
-2.4973e-06
7.18288e-07
-2.42202e-06
1.47813e-06
-2.31881e-06
2.19571e-06
-2.19413e-06
2.86562e-06
-2.05264e-06
3.48416e-06
-1.89874e-06
4.049e-06
-1.73654e-06
4.55897e-06
-1.56962e-06
5.01392e-06
-1.40094e-06
5.41456e-06
-1.23294e-06
5.76218e-06
-1.06768e-06
6.0586e-06
-9.06835e-07
6.30611e-06
-7.51696e-07
6.50756e-06
-6.03228e-07
6.66616e-06
-4.6172e-07
6.78424e-06
-3.27321e-07
6.86367e-06
-2.0069e-07
6.91581e-06
-8.11637e-08
6.94533e-06
2.98051e-08
6.96397e-06
1.3488e-07
6.97781e-06
2.33783e-07
6.99064e-06
3.26472e-07
7.00284e-06
4.12568e-07
7.01155e-06
4.90756e-07
7.01137e-06
5.58444e-07
6.9954e-06
6.11648e-07
6.95681e-06
6.45504e-07
6.8906e-06
6.55697e-07
6.79517e-06
6.4041e-07
6.6727e-06
6.01698e-07
6.52837e-06
5.4565e-07
6.36907e-06
4.81342e-07
6.20215e-06
4.18722e-07
6.0342e-06
3.66004e-07
5.87026e-06
3.27693e-07
5.71337e-06
3.04131e-07
5.56455e-06
2.92407e-07
5.42346e-06
2.88143e-07
5.28876e-06
2.86843e-07
5.15862e-06
2.84914e-07
5.03123e-06
2.80157e-07
4.90507e-06
2.71759e-07
4.77928e-06
2.59993e-07
4.65383e-06
2.45574e-07
4.52931e-06
2.28769e-07
4.40663e-06
2.09035e-07
4.28682e-06
1.84968e-07
4.17118e-06
1.54627e-07
4.06118e-06
1.17331e-07
3.95562e-06
7.50374e-08
3.85398e-06
3.0957e-08
3.76255e-06
-2.46389e-08
3.70187e-06
-1.09752e-07
3.69062e-06
-2.10863e-07
3.69162e-06
-2.31515e-07
3.52696e-06
3.27166e-08
2.79472e-06
9.51063e-07
1.05472e-06
2.92846e-06
-1.23499e-06
5.11908e-06
-3.04653e-06
5.80618e-06
-4.13685e-06
5.01051e-06
-4.7959e-06
3.70299e-06
-5.25098e-06
2.45067e-06
-5.53272e-06
1.35767e-06
-5.58677e-06
3.73797e-07
-5.37812e-06
-5.35461e-07
-4.90128e-06
-1.40746e-06
-4.16395e-06
-2.23028e-06
-3.18929e-06
-2.96171e-06
-2.03185e-06
-3.51826e-06
-7.83416e-07
-3.80113e-06
4.43313e-07
-3.75754e-06
1.55053e-06
-3.39655e-06
-2.77484e-06
2.49258e-06
-4.12402e-07
1.20033e-06
-8.20371e-07
1.15721e-06
-1.26415e-06
1.18019e-06
-1.74778e-06
1.30807e-06
-2.24627e-06
1.43508e-06
-2.7427e-06
1.53879e-06
-3.22496e-06
1.61756e-06
-3.68488e-06
1.66809e-06
-4.11902e-06
1.69061e-06
-4.52738e-06
1.68695e-06
-4.91183e-06
1.65892e-06
-5.27461e-06
1.60807e-06
-5.61703e-06
1.53541e-06
-5.93857e-06
1.44139e-06
-6.23648e-06
1.32603e-06
-6.50594e-06
1.18922e-06
-6.74057e-06
1.03109e-06
-6.93324e-06
8.52338e-07
-7.07687e-06
6.54465e-07
-7.16519e-06
4.39848e-07
-7.19304e-06
2.11742e-07
-7.15693e-06
-2.57454e-08
-7.05526e-06
-2.68331e-07
-6.88793e-06
-5.1122e-07
-6.65662e-06
-7.49704e-07
-6.36466e-06
-9.79317e-07
-6.01681e-06
-1.19612e-06
-5.619e-06
-1.39695e-06
-5.17795e-06
-1.57954e-06
-4.70079e-06
-1.74266e-06
-4.19463e-06
-1.88614e-06
-3.66625e-06
-2.01095e-06
-3.12168e-06
-2.11896e-06
-2.56602e-06
-2.21281e-06
-2.00314e-06
-2.29565e-06
-1.43564e-06
-2.37094e-06
-8.64779e-07
-2.44225e-06
-2.90677e-07
-2.51283e-06
2.8855e-07
-2.58514e-06
8.76639e-07
-2.65786e-06
1.47704e-06
-2.72621e-06
2.0929e-06
-2.78435e-06
2.72626e-06
-2.82283e-06
3.37739e-06
-2.82873e-06
4.04409e-06
-2.7863e-06
4.71931e-06
-2.67795e-06
5.38672e-06
-2.48633e-06
6.02231e-06
-2.20104e-06
6.61483e-06
-1.82897e-06
7.20112e-06
-1.39023e-06
7.84624e-06
-8.81129e-07
8.53631e-06
-2.45843e-07
9.12205e-06
5.45334e-07
9.41806e-06
1.39837e-06
9.32619e-06
2.14375e-06
8.87277e-06
2.64979e-06
8.17537e-06
2.87482e-06
7.37886e-06
2.84581e-06
6.59876e-06
2.60715e-06
5.89762e-06
2.19016e-06
5.29697e-06
1.60905e-06
4.81214e-06
8.61728e-07
4.48485e-06
-2.86647e-08
4.35048e-06
-8.83728e-07
4.35034e-06
-1.36503e-06
4.32121e-06
-1.24069e-06
4.04964e-06
-5.77058e-07
3.22049e-06
5.12267e-07
1.59182e-06
1.96628e-06
-6.15259e-07
3.51306e-06
-2.85314e-06
4.76264e-06
-4.71722e-06
5.51274e-06
-6.09549e-06
5.77488e-06
-7.02714e-06
5.66255e-06
-7.62813e-06
5.30469e-06
-8.02831e-06
4.82016e-06
-8.34163e-06
4.29466e-06
-8.64254e-06
3.77931e-06
-8.96179e-06
3.29486e-06
-9.29763e-06
2.84331e-06
-9.63176e-06
2.41907e-06
-9.94217e-06
2.01566e-06
-1.021e-05
1.62807e-06
-1.04216e-05
1.25302e-06
-1.05684e-05
8.888e-07
-1.06454e-05
5.348e-07
-1.06504e-05
1.91274e-07
-1.05828e-05
-1.40269e-07
-1.04443e-05
-4.58588e-07
-1.02378e-05
-7.61785e-07
-9.96663e-06
-1.04822e-06
-9.6349e-06
-1.31684e-06
-9.24685e-06
-1.56752e-06
-8.80656e-06
-1.80114e-06
-8.31751e-06
-2.01943e-06
-7.78233e-06
-2.22458e-06
-7.20275e-06
-2.41863e-06
-6.57988e-06
-2.60276e-06
-5.91476e-06
-2.77665e-06
-5.20907e-06
-2.93804e-06
-4.46582e-06
-3.08273e-06
-3.68996e-06
-3.20511e-06
-2.88855e-06
-3.29899e-06
-2.07065e-06
-3.35859e-06
-1.24668e-06
-3.37978e-06
-4.28039e-07
-3.36018e-06
3.73537e-07