/*--------------------------------*- C++ -*----------------------------------*\
| =========                 |                                                 |
| \\      /  F ield         | OpenFOAM: The Open Source CFD Toolbox           |
|  \\    /   O peration     | Version:  2112                                  |
|   \\  /    A nd           | Website:  www.openfoam.com                      |
|    \\/     M anipulation  |                                                 |
\*---------------------------------------------------------------------------*/
FoamFile
{
    version     2.0;
    format      ascii;
    arch        "LSB;label=32;scalar=64";
    class       volScalarField;
    location    "0.25";
    object      k;
}
// * * * * * * * * * * * * * * * * * * * * * * * * * * * * * * * * * * * * * //

dimensions      [0 2 -2 0 0 0 0];

internalField   nonuniform List<scalar> 
12225
(
6.44641
9.70968
11.851
13.4181
14.7816
16.1251
17.5482
19.1306
20.8572
22.7182
24.6917
26.7526
28.8752
31.0366
33.2126
35.3953
37.5029
39.3723
2.14357
2.59315
3.05677
3.51246
3.9531
4.37844
4.78781
5.17904
5.54907
5.89824
6.23036
6.55216
6.87195
7.19764
7.53858
7.91353
8.42247
9.17882
1.89707
1.95562
2.00778
2.04677
2.07895
2.10948
2.14265
2.18245
2.23282
2.29765
2.38018
2.48296
2.60791
2.75608
2.91759
3.096
3.29863
3.52761
1.8806
1.89209
1.90759
1.92326
1.93572
1.93867
1.93212
1.91856
1.90099
1.88227
1.86495
1.85127
1.84321
1.84252
1.85035
1.86817
1.89727
1.93911
1.87879
1.88401
1.89066
1.89821
1.90606
1.91285
1.91746
1.91926
1.91765
1.91238
1.9046
1.89523
1.88483
1.87399
1.86328
1.85327
1.84453
1.83763
1.87799
1.88194
1.88648
1.89141
1.89671
1.90203
1.90692
1.91101
1.91399
1.91564
1.91596
1.91498
1.91281
1.90994
1.90664
1.90314
1.89964
1.89625
1.87729
1.88047
1.88413
1.88806
1.89222
1.89648
1.90062
1.90447
1.90789
1.91075
1.91301
1.91465
1.91573
1.9164
1.91683
1.91722
1.91771
1.91841
1.87672
1.87926
1.88226
1.88555
1.88903
1.89261
1.89613
1.89949
1.90264
1.90557
1.90825
1.91066
1.91277
1.91465
1.91639
1.9181
1.91995
1.92202
1.87626
1.87829
1.88076
1.88352
1.88646
1.8895
1.89252
1.89543
1.89822
1.90088
1.90343
1.90588
1.90825
1.91054
1.91279
1.91504
1.91739
1.91991
1.8759
1.87749
1.87952
1.88183
1.88433
1.88693
1.88953
1.89207
1.89451
1.89687
1.89917
1.90142
1.90367
1.90594
1.90825
1.91065
1.91317
1.91585
1.8756
1.87682
1.87847
1.8804
1.88252
1.88475
1.887
1.88923
1.89139
1.89351
1.89557
1.89763
1.8997
1.90182
1.90404
1.90638
1.90887
1.91154
1.87538
1.87629
1.87763
1.87926
1.88108
1.88302
1.88501
1.88699
1.88894
1.89086
1.89276
1.89467
1.8966
1.8986
1.90069
1.90292
1.9053
1.90785
1.87519
1.87584
1.87689
1.87826
1.87982
1.88151
1.88326
1.88502
1.88678
1.88853
1.89028
1.89205
1.89386
1.89574
1.89772
1.89982
1.90206
1.90445
1.87503
1.87539
1.87617
1.87727
1.87858
1.88002
1.88153
1.88308
1.88463
1.8862
1.88779
1.88941
1.89109
1.89284
1.89468
1.89663
1.89872
1.90092
1.87482
1.87494
1.87546
1.8763
1.87736
1.87855
1.87983
1.88116
1.88252
1.8839
1.88531
1.88677
1.88828
1.88987
1.89154
1.89331
1.89518
1.89716
1.87466
1.87446
1.87476
1.87537
1.8762
1.87716
1.87823
1.87934
1.8805
1.88168
1.8829
1.88417
1.88548
1.88686
1.88831
1.88984
1.89145
1.89314
1.87455
1.87412
1.87425
1.87468
1.87531
1.87609
1.87696
1.87789
1.87886
1.87985
1.88086
1.8819
1.88297
1.8841
1.88527
1.8865
1.8878
1.88914
1.8745
1.87395
1.87398
1.8743
1.87482
1.87547
1.87621
1.877
1.87781
1.87863
1.87945
1.88026
1.88107
1.8819
1.88275
1.88362
1.88453
1.88547
1.87454
1.87404
1.8741
1.87443
1.87494
1.87558
1.87629
1.87702
1.87776
1.87847
1.87914
1.87976
1.88034
1.88087
1.88138
1.88187
1.88237
1.88287
1.87468
1.87442
1.87463
1.87509
1.87574
1.87648
1.87727
1.87807
1.87884
1.87956
1.88021
1.88078
1.88127
1.88166
1.88197
1.88222
1.88242
1.88255
1.87487
1.87498
1.87539
1.87606
1.87689
1.8778
1.87873
1.87965
1.88051
1.88131
1.88201
1.88261
1.8831
1.88347
1.88372
1.88383
1.8838
1.88361
1.87511
1.87552
1.87622
1.87714
1.8782
1.87933
1.88047
1.88157
1.88259
1.88351
1.88432
1.88499
1.88552
1.88591
1.88613
1.88617
1.88599
1.88566
1.87537
1.87614
1.87718
1.87842
1.87978
1.88121
1.88262
1.88397
1.88521
1.88632
1.88727
1.88806
1.88866
1.88911
1.88939
1.8895
1.8894
1.88914
1.87571
1.87693
1.87839
1.88001
1.88175
1.88355
1.88532
1.887
1.88855
1.88995
1.89118
1.89221
1.89305
1.8937
1.89418
1.8945
1.89463
1.89457
1.87619
1.87795
1.87991
1.882
1.88422
1.88654
1.88891
1.89123
1.89344
1.89549
1.89732
1.8989
1.9002
1.90123
1.90198
1.90242
1.90254
1.90235
1.87681
1.87913
1.88184
1.88495
1.88843
1.89223
1.89618
1.90007
1.90367
1.90674
1.90911
1.91072
1.91152
1.91154
1.91076
1.90897
1.9064
1.90322
1.8777
1.8817
1.88786
1.89575
1.90435
1.91268
1.91984
1.92512
1.92753
1.92584
1.92079
1.91315
1.90361
1.89285
1.88145
1.86988
1.85856
1.84789
1.88305
1.9072
1.9389
1.9671
1.98612
1.99829
2.00597
2.01135
2.01625
2.02207
2.02978
2.04017
2.05388
2.07152
2.09363
2.12079
2.15347
2.19201
1.99479
2.22132
2.4772
2.74134
3.00108
3.25246
3.49627
3.73321
3.96405
4.1891
4.40766
4.61873
4.82111
5.01419
5.19823
5.37428
5.54431
5.70988
5.02656
7.50803
9.22334
10.4398
11.3951
12.2331
13.0105
13.7514
14.5093
15.3153
16.1863
17.1301
18.1267
19.1647
20.2373
21.337
22.4546
23.583
0.748978
0.88232
1.10605
1.37738
1.67475
1.95159
2.19778
2.41415
2.60421
2.77495
2.93304
3.08399
3.23187
3.37956
3.52904
3.68148
3.83764
3.99792
4.16258
4.3318
4.50574
4.68467
4.86919
5.06043
5.25931
5.4448
5.61068
5.75467
5.87449
5.96786
6.03254
6.06627
6.05992
5.99199
5.87194
5.712
5.52521
5.32076
5.09869
4.84941
4.56072
4.22896
3.86585
3.49572
3.13777
2.82069
2.5663
2.36815
2.22537
2.15212
2.15183
2.217
2.32687
2.43279
2.49744
2.57746
2.83007
3.60392
5.24662
7.89775
11.4851
15.5348
19.3988
23.3355
27.2207
30.9255
34.3348
37.3523
39.9028
41.9348
43.4195
44.3502
44.7422
44.628
44.0475
43.2473
42.2574
41.1022
39.799
38.3612
36.7994
35.2188
33.6445
32.0666
30.4796
28.8815
27.2727
25.6558
24.0366
22.4236
20.8276
19.2615
17.7384
16.2716
14.8735
13.5572
12.3346
11.2175
10.2209
9.36801
8.70143
8.30557
8.34115
8.90056
9.66235
10.5779
11.5969
12.6789
13.7921
14.9117
16.021
17.1066
18.1548
19.1563
20.1085
21.0175
21.8951
22.7092
23.3892
24.0116
24.6449
25.3406
26.1184
26.9506
27.7565
28.411
28.7716
28.7159
28.1804
27.1834
25.8258
24.2675
22.689
21.2486
20.0387
19.0662
18.3867
17.8385
16.9751
15.527
13.75
12.1765
11.7061
13.359
16.8826
20.6419
23.9163
26.1495
26.8739
26.3139
25.0615
23.2993
21.1942
19.1644
17.3395
15.8188
14.7243
14.2701
14.9145
18.1937
23.5253
30.3446
38.2506
47.6694
58.6784
71.3109
85.579
101.487
118.966
137.728
157.129
175.45
190.985
203.167
211.091
213.441
208.822
196.024
175.089
146.421
2.11026
2.09263
2.25045
2.42856
2.58167
2.69194
2.75723
2.77883
2.76248
2.72459
2.67533
2.62118
2.56603
2.51197
2.45963
2.40615
2.35236
2.29856
2.24491
2.1915
2.13844
2.08595
2.03444
1.98449
1.93726
1.91647
1.92498
1.96147
2.02317
2.10574
2.20368
2.3108
2.42046
2.52502
2.6182
2.69486
2.75101
2.78307
2.78674
2.75634
2.68582
2.57099
2.41209
2.21444
1.99668
1.77302
1.55407
1.36024
1.21471
1.13887
1.14141
1.21264
1.39285
1.95393
3.0925
4.9129
7.36569
10.1739
12.604
14.4089
15.8814
16.9661
17.6694
18.0303
18.0718
17.8226
17.3157
16.5876
15.6781
14.6298
13.4871
12.2975
11.1108
9.97668
8.9414
8.04653
7.31916
6.77677
6.42871
6.27309
6.29825
6.37267
6.45165
6.53408
6.61943
6.70754
6.79828
6.89131
6.98576
7.0799
7.17069
7.2536
7.32282
7.36877
7.40656
7.43339
7.44714
7.44618
7.43
7.39888
7.35243
7.28688
7.19557
7.10179
7.0104
6.9243
6.84043
6.74848
6.62614
6.47583
6.30473
6.11911
5.92505
5.72786
5.53212
5.34242
5.16769
5.05944
5.10582
5.25006
5.44772
5.6755
5.9216
6.17932
6.44266
6.70189
6.93963
7.12829
7.22953
7.19691
6.98314
6.55417
5.91482
5.14237
4.4164
3.99955
3.94317
4.24458
4.95311
6.02326
7.3181
8.82063
10.4202
11.7156
12.1646
11.8499
11.0428
9.95542
8.82259
7.87761
7.26537
7.04153
7.21629
7.46983
7.74342
8.01532
8.27193
8.4941
8.69481
8.89783
9.08224
9.26869
9.45241
9.63728
9.8889
10.2495
10.7613
11.4734
12.4503
13.789
15.7126
19.0718
24.348
30.7871
37.5553
43.851
48.8339
51.678
51.7076
48.5761
4.21893
3.53082
3.34919
3.24051
3.1269
2.99472
2.85001
2.69778
2.54994
2.41595
2.29969
2.20182
2.1212
2.05584
2.00332
1.96108
1.92548
1.89409
1.86499
1.83652
1.80741
1.77688
1.74455
1.71047
1.67498
1.63879
1.60519
1.57532
1.55167
1.53672
1.53254
1.54034
1.56017
1.59074
1.62961
1.67346
1.71843
1.76033
1.79459
1.8161
1.81928
1.79856
1.74933
1.66934
1.56065
1.43112
1.29997
1.19618
1.17471
1.30008
1.64196
2.41173
3.75855
5.51794
7.66685
10.0351
11.7521
12.8978
13.5118
13.6971
13.5523
13.1443
12.545
11.8168
11.0118
10.1748
9.34452
8.55351
7.82941
7.19417
6.66363
6.24618
5.94184
5.74246
5.63302
5.59402
5.60467
5.64573
5.70159
5.76099
5.81492
5.86292
5.9064
5.94717
5.98738
6.02939
6.07552
6.12775
6.18732
6.25411
6.32579
6.3962
6.46954
6.54289
6.61212
6.67252
6.71964
6.74967
6.75966
6.74725
6.70953
6.64056
6.54337
6.44225
6.33836
6.23961
6.14831
6.0612
5.97131
5.86388
5.73329
5.58906
5.43417
5.27027
5.09923
4.92351
4.74642
4.57122
4.40078
4.24459
4.10975
4.00074
3.92136
3.87378
3.85849
3.8741
3.91665
3.97829
4.0452
4.09568
4.10022
4.02621
3.85077
3.583
3.28649
3.07728
3.08319
3.40374
4.14447
5.3945
7.09744
8.89664
10.0931
10.0986
9.28394
8.27068
7.32846
6.61294
6.18096
6.01386
6.04484
6.19501
6.40439
6.63707
6.86939
7.07275
7.22329
7.34885
7.43991
7.49068
7.50999
7.50349
7.47663
7.43737
7.39496
7.35926
7.34162
7.35632
7.42643
7.59103
7.92145
8.62752
10.0533
12.376
15.5945
19.3669
23.1857
26.3745
28.272
28.3471
6.89862
4.80958
4.00661
3.48244
3.06694
2.72224
2.43789
2.20773
2.02594
1.88775
1.78713
1.71748
1.67234
1.64591
1.63307
1.62931
1.63082
1.63432
1.63709
1.63601
1.62981
1.61789
1.60026
1.57737
1.54989
1.51868
1.48525
1.45265
1.42185
1.39384
1.36977
1.35083
1.33815
1.33253
1.33432
1.34326
1.3584
1.37814
1.40028
1.422
1.43981
1.44954
1.44671
1.42759
1.39158
1.34639
1.32106
1.38681
1.68274
2.4271
3.79423
5.60466
7.53262
9.42141
10.7721
11.6281
11.9705
11.9031
11.522
10.9374
10.2349
9.48164
8.73146
8.02362
7.38581
6.83627
6.38504
6.03488
5.78215
5.61764
5.52791
5.49689
5.50773
5.5445
5.59342
5.6436
5.68715
5.71896
5.73618
5.73887
5.728
5.70528
5.67575
5.6458
5.61846
5.59689
5.5842
5.58339
5.5971
5.62732
5.67486
5.73886
5.81645
5.90275
5.99167
6.0765
6.15064
6.20816
6.24439
6.25456
6.23382
6.17635
6.09706
6.0014
5.89505
5.78611
5.68127
5.58393
5.49305
5.4007
5.29426
5.18275
5.06804
4.9486
4.8223
4.68778
4.54505
4.39533
4.24093
4.08451
3.92958
3.77824
3.63333
3.49795
3.37533
3.26872
3.18101
3.11403
3.06743
3.03719
3.01431
2.98475
2.93356
2.85664
2.77932
2.7706
2.93966
3.41023
4.29416
5.66197
7.39299
8.92554
9.42315
8.67689
7.61587
6.71969
6.08086
5.69885
5.51978
5.48025
5.53061
5.6397
5.79322
5.97243
6.15655
6.31551
6.46153
6.59377
6.69673
6.75751
6.78486
6.78181
6.75367
6.70652
6.64693
6.58036
6.50988
6.43397
6.34839
6.27353
6.23891
6.31081
6.66894
7.48533
8.94823
11.1579
14.0146
17.1157
19.7328
21.1419
9.93176
5.64391
4.08074
3.19187
2.60043
2.18941
1.90378
1.71035
1.58661
1.51617
1.48627
1.48574
1.50488
1.53651
1.5744
1.61341
1.64935
1.67827
1.6976
1.70621
1.70395
1.69142
1.66971
1.64021
1.6044
1.5637
1.51936
1.47365
1.42943
1.38764
1.34922
1.31508
1.28616
1.26329
1.24715
1.23813
1.23632
1.24138
1.25263
1.26896
1.28862
1.30898
1.32671
1.33906
1.34876
1.38008
1.51744
1.94521
2.93313
4.62703
6.77267
8.80048
10.1708
10.8183
11.031
10.8906
10.4651
9.85825
9.15794
8.4372
7.74741
7.12412
6.58967
6.15499
5.82198
5.58555
5.43541
5.35801
5.33821
5.36075
5.41134
5.47737
5.54819
5.61516
5.67146
5.71188
5.73264
5.73122
5.70581
5.66152
5.6044
5.53738
5.46402
5.38847
5.31521
5.24885
5.194
5.15503
5.13597
5.14005
5.16918
5.22316
5.29909
5.39118
5.49168
5.59288
5.68725
5.76752
5.82987
5.86773
5.87593
5.85309
5.80494
5.73248
5.63912
5.53061
5.41447
5.29859
5.18881
5.0861
4.98037
4.87542
4.77633
4.68142
4.58642
4.48672
4.37888
4.26138
4.13463
4.00038
3.86102
3.71908
3.5762
3.43395
3.29373
3.15703
3.02574
2.90213
2.78868
2.68763
2.60035
2.52713
2.46883
2.43302
2.44622
2.5672
2.88953
3.52242
4.55497
5.99741
7.61827
8.75613
8.70814
7.69327
6.68352
5.99788
5.56025
5.29624
5.15526
5.10199
5.11653
5.18619
5.30089
5.44319
5.59326
5.73796
5.89229
6.04345
6.16281
6.24636
6.29355
6.30477
6.28554
6.24377
6.18727
6.12194
6.05024
5.96669
5.86336
5.75408
5.64974
5.56823
5.56816
5.77366
6.35107
7.49219
9.29927
11.7053
14.3428
16.5578
12.818
5.84311
3.65305
2.62018
2.05175
1.72397
1.53823
1.44445
1.41419
1.42909
1.47553
1.54237
1.61994
1.69978
1.77495
1.8402
1.89169
1.92716
1.94585
1.94827
1.9358
1.91043
1.87442
1.83009
1.77954
1.72451
1.66625
1.60569
1.54477
1.48486
1.42741
1.37389
1.32573
1.28424
1.25053
1.22544
1.20946
1.20269
1.20482
1.21499
1.23177
1.25379
1.28014
1.31385
1.37548
1.54152
2.00293
3.04988
4.89613
7.28149
9.41474
10.4356
10.6342
10.4281
9.97232
9.36074
8.66953
7.9664
7.3004
6.70559
6.20227
5.79992
5.49877
5.29172
5.1669
5.11
5.10632
5.14213
5.20541
5.28604
5.37566
5.46734
5.55522
5.63413
5.69923
5.746
5.77041
5.76867
5.73787
5.67681
5.59351
5.49358
5.38166
5.26385
5.1466
5.03648
4.94011
4.86372
4.81286
4.79185
4.80302
4.8457
4.91559
5.0051
5.10455
5.20633
5.30415
5.38969
5.46274
5.51448
5.5434
5.54893
5.53242
5.49229
5.42795
5.34085
5.23532
5.11861
4.99898
4.88301
4.7698
4.65792
4.55707
4.46835
4.38798
4.3101
4.22883
4.13974
4.04053
3.93103
3.81252
3.68716
3.55689
3.42347
3.28807
3.15153
3.01463
2.87836
2.74421
2.61439
2.49219
2.38285
2.29585
2.25022
2.28363
2.46188
2.8786
3.63369
4.78334
6.25477
7.70903
8.48247
8.11062
7.07226
6.16789
5.61294
5.26552
5.03363
4.88003
4.79924
4.78258
4.82203
4.90505
5.01489
5.13437
5.2756
5.43778
5.59935
5.73685
5.84421
5.91253
5.94024
5.93251
5.89826
5.84709
5.78673
5.72118
5.64595
5.55512
5.45874
5.36184
5.26953
5.19532
5.19045
5.35011
5.83589
6.83929
8.46719
10.6201
12.9145
15.0007
5.42912
3.00329
2.09113
1.68645
1.50184
1.4325
1.43496
1.48661
1.57172
1.67734
1.79217
1.90623
2.01102
2.09986
2.16842
2.21408
2.23652
2.23727
2.21904
2.18515
2.13906
2.08412
2.02342
1.9596
1.89473
1.83016
1.76612
1.70063
1.63367
1.56571
1.49798
1.43245
1.37159
1.31792
1.27365
1.24044
1.2192
1.21002
1.21228
1.22518
1.24918
1.28857
1.36136
1.53059
1.95411
2.93083
4.74109
7.22568
9.51653
10.4709
10.4263
9.94773
9.2876
8.56349
7.84143
7.16331
6.55741
6.04138
5.62459
5.30854
5.08766
4.95088
4.88413
4.87283
4.90364
4.96534
5.04885
5.14696
5.25379
5.36428
5.47374
5.57758
5.67113
5.74982
5.80963
5.8473
5.85462
5.83143
5.77775
5.69433
5.58292
5.44635
5.29407
5.13782
4.98632
4.84876
4.734
4.64987
4.60232
4.59421
4.62385
4.68412
4.76401
4.85114
4.9374
5.02094
5.09321
5.15834
5.20541
5.23845
5.25816
5.26292
5.24998
5.21615
5.15907
5.07875
4.97882
4.86607
4.74845
4.63178
4.51409
4.4061
4.31354
4.23539
4.16675
4.10114
4.03238
3.95592
3.86929
3.77202
3.66503
3.54995
3.42854
3.30229
3.17227
3.03922
2.9038
2.76687
2.6299
2.4957
2.36991
2.26408
2.20164
2.22714
2.41555
2.8706
3.69593
4.92171
6.39226
7.68091
8.18321
7.66523
6.69104
5.89748
5.39348
5.0666
4.83766
4.67253
4.5709
4.53134
4.54588
4.59858
4.67322
4.77108
4.90532
5.06569
5.23137
5.38891
5.51924
5.60868
5.65288
5.65646
5.62963
5.58404
5.52957
5.47185
5.40732
5.33412
5.25834
5.18103
5.10223
5.02454
4.9655
4.97027
5.13388
5.61359
6.58706
8.1441
10.123
16.0012
4.62289
2.43043
1.79292
1.57165
1.50755
1.52671
1.60197
1.71566
1.85234
1.99828
2.14128
2.27076
2.3782
2.45786
2.50729
2.52605
2.51711
2.48512
2.43529
2.37252
2.30112
2.22479
2.14671
2.06949
1.99537
1.92621
1.86213
1.80096
1.74088
1.67965
1.61558
1.54854
1.48034
1.41436
1.35468
1.3051
1.26845
1.24626
1.23924
1.24874
1.27935
1.34581
1.49453
1.85459
2.69115
4.32765
6.75696
9.21594
10.3378
10.2487
9.62101
8.82161
8.01828
7.2771
6.62233
6.06314
5.60377
5.24542
4.98511
4.81474
4.72204
4.69291
4.71377
4.77307
4.86164
4.97228
5.09905
5.23648
5.37906
5.52098
5.65622
5.77897
5.88416
5.96776
6.02654
6.05782
6.05894
6.03058
5.97197
5.88308
5.76499
5.62052
5.45477
5.2753
5.09219
4.91746
4.76388
4.64322
4.56423
4.53146
4.54309
4.58886
4.65087
4.71764
4.77672
4.83249
4.88007
4.91966
4.95219
4.97786
4.99687
5.00858
5.01062
4.999
4.9691
4.91739
4.84331
4.75021
4.64439
4.53328
4.41883
4.308
4.2105
4.12901
4.06119
4.00173
3.94436
3.88339
3.8147
3.73609
3.64699
3.548
3.4403
3.32525
3.20401
3.0775
2.9465
2.81183
2.67472
2.53761
2.4057
2.2903
2.21514
2.22632
2.40329
2.85912
3.70651
4.96248
6.40984
7.56365
7.89897
7.35177
6.47376
5.75456
5.2759
4.94621
4.69986
4.52646
4.4137
4.35686
4.34846
4.36952
4.41379
4.49442
4.60956
4.75879
4.93063
5.10426
5.25547
5.3651
5.42516
5.43925
5.41887
5.37807
5.32917
5.27949
5.22692
5.17357
5.12139
5.06834
5.01145
4.94887
4.88435
4.83902
4.86175
5.05438
5.57397
6.57848
8.10803
15.4897
3.7361
2.10569
1.73724
1.64604
1.66328
1.74773
1.87958
2.04018
2.21243
2.38133
2.53363
2.65831
2.7477
2.7982
2.81025
2.7872
2.73654
2.66597
2.58241
2.49134
2.39671
2.3016
2.20836
2.11874
2.03421
1.95658
1.8872
1.82609
1.77193
1.72147
1.67048
1.61536
1.55483
1.49067
1.42716
1.36971
1.32331
1.29184
1.2788
1.28976
1.33778
1.45841
1.74835
2.42651
3.81295
6.04088
8.58413
10.0281
10.0834
9.42915
8.54435
7.67474
6.90955
6.26528
5.73595
5.31384
4.99356
4.76935
4.63233
4.57032
4.56979
4.6182
4.70525
4.82297
4.96493
5.12522
5.29768
5.47545
5.65109
5.81712
5.96677
6.09469
6.1974
6.27358
6.32391
6.34509
6.34182
6.31163
6.25223
6.16191
6.03994
5.88721
5.70713
5.50635
5.29511
5.08682
4.89749
4.74291
4.63195
4.56827
4.54896
4.5635
4.60207
4.64765
4.67732
4.69933
4.7194
4.73728
4.75198
4.76362
4.77315
4.78115
4.7866
4.78621
4.7749
4.74727
4.69957
4.6314
4.54605
4.44965
4.34752
4.24225
4.14499
4.06127
3.99164
3.93299
3.88021
3.82777
3.77093
3.70639
3.63237
3.54835
3.45462
3.35191
3.2411
3.12302
2.99848
2.86833
2.73384
2.59734
2.46373
2.34377
2.26013
2.25748
2.41467
2.84828
3.67867
4.92094
6.32642
7.38392
7.64118
7.13467
6.35944
5.69817
5.22515
4.88341
4.62836
4.44604
4.32372
4.25274
4.21747
4.21086
4.23085
4.28364
4.37741
4.51493
4.68739
4.87302
5.04279
5.17133
5.24618
5.26949
5.25401
5.21662
5.17234
5.12993
5.0902
5.05732
5.02942
5.00207
4.97029
4.9297
4.87828
4.82336
4.79001
4.83719
5.07862
5.66842
6.73523
13.8056
3.08787
2.05113
1.84945
1.83844
1.91743
2.05564
2.23157
2.42454
2.61635
2.79087
2.93425
3.0362
3.09143
3.09984
3.06526
2.99681
2.90583
2.80139
2.69057
2.57806
2.46659
2.35801
2.25358
2.15388
2.05927
1.97089
1.89268
1.82696
1.77284
1.72742
1.68553
1.64127
1.59085
1.53409
1.47419
1.41696
1.36885
1.33613
1.32621
1.35173
1.44117
1.66647
2.19546
3.31319
5.23889
7.70804
9.50866
9.8728
9.32825
8.42154
7.49669
6.69573
6.04444
5.5274
5.12577
4.8276
4.62482
4.50838
4.46649
4.48603
4.55479
4.66278
4.8022
4.96648
5.14912
5.34296
5.54004
5.73216
5.91179
6.07312
6.21268
6.32932
6.4234
6.4956
6.54638
6.57464
6.58015
6.55945
6.50981
6.42919
6.31587
6.16883
5.98898
5.78093
5.55452
5.32183
5.10032
4.913
4.77007
4.67253
4.61547
4.58724
4.57377
4.57088
4.58053
4.58082
4.58207
4.58395
4.58449
4.58341
4.58205
4.58215
4.58427
4.58667
4.58518
4.57415
4.54821
4.50419
4.44229
4.36604
4.28119
4.19006
4.10035
4.01933
3.94987
3.89111
3.8397
3.79114
3.74097
3.68565
3.62277
3.55106
3.46996
3.37947
3.27989
3.17168
3.05538
2.93177
2.80205
2.66852
2.53594
2.41453
2.32565
2.31124
2.44625
2.84471
3.62962
4.82116
6.16791
7.16177
7.40553
6.97863
6.30542
5.70038
5.23198
4.87859
4.61428
4.42261
4.28963
4.20015
4.14439
4.11408
4.10717
4.13231
4.20143
4.32296
4.492
4.68666
4.87331
5.01976
5.10824
5.13923
5.12662
5.09068
5.04924
5.01194
4.9867
4.974
4.96954
4.96716
4.96058
4.94429
4.91387
4.86818
4.81879
4.79763
4.87927
5.18769
5.87298
11.5352
2.94719
2.16993
2.0483
2.09708
2.22932
2.41326
2.62499
2.8413
3.04175
3.20873
3.32884
3.39457
3.40542
3.36725
3.29022
3.18622
3.06636
2.93922
2.81049
2.68332
2.55918
2.43889
2.32296
2.21161
2.10494
2.0039
1.91399
1.84445
1.79302
1.75198
1.71485
1.67517
1.62868
1.57473
1.51661
1.46106
1.41645
1.39117
1.39762
1.45935
1.63043
2.03552
2.90556
4.4869
6.72244
8.76244
9.53852
9.25109
8.41353
7.4584
6.61122
5.93297
5.4095
5.01257
4.72257
4.52853
4.42122
4.38925
4.41948
4.49928
4.61816
4.76783
4.94127
5.13152
5.33099
5.5315
5.72506
5.90509
6.06747
6.21093
6.33649
6.44621
6.5415
6.62151
6.68244
6.72128
6.73499
6.72081
6.67714
6.60334
6.49854
6.36042
6.18717
5.97931
5.74891
5.50527
5.26222
5.04729
4.88085
4.75702
4.6681
4.60014
4.54155
4.49038
4.45464
4.44517
4.44069
4.4373
4.43171
4.42329
4.41394
4.40654
4.40321
4.40394
4.40607
4.4048
4.39453
4.37061
4.33089
4.27629
4.21068
4.13849
4.06237
3.98977
3.92466
3.86794
3.81795
3.77149
3.72499
3.67522
3.61982
3.55722
3.48644
3.40688
3.31826
3.2205
3.11371
2.99835
2.8754
2.74703
2.61784
2.49753
2.40607
2.38229
2.49547
2.85266
3.57395
4.68729
5.96037
6.91195
7.18254
6.85428
6.28205
5.73022
5.27967
4.92574
4.6529
4.45027
4.30289
4.19619
4.11932
4.06326
4.02788
4.02402
4.06709
4.17087
4.33478
4.53731
4.74031
4.90419
5.00514
5.04201
5.02957
4.99264
4.95026
4.92113
4.91069
4.91677
4.93315
4.95223
4.96711
4.97246
4.96407
4.93693
4.89263
4.84631
4.84333
4.9734
5.37447
9.42872
2.9281
2.34114
2.28587
2.39062
2.57131
2.79395
3.03367
3.26488
3.46541
3.61776
3.71101
3.74207
3.71569
3.64259
3.53632
3.40991
3.27362
3.13403
2.99442
2.85592
2.71873
2.58308
2.44974
2.32027
2.19728
2.08509
1.99187
1.92898
1.8897
1.85819
1.82371
1.78207
1.73125
1.67259
1.61126
1.55486
1.51331
1.49976
1.5369
1.66536
1.97507
2.64172
3.89042
5.79023
7.83816
9.01057
9.10774
8.46453
7.53643
6.64509
5.92028
5.3696
4.96079
4.6656
4.46844
4.35946
4.32772
4.35988
4.44233
4.56339
4.71388
4.88639
5.074
5.26944
5.4651
5.65379
5.82999
5.99092
6.13675
6.26977
6.39266
6.50649
6.60939
6.69651
6.76025
6.79877
6.80935
6.79036
6.74134
6.66302
6.5582
6.42483
6.25949
6.05484
5.82392
5.58167
5.33968
5.11792
4.93157
4.78501
4.67023
4.5722
4.47923
4.39173
4.32221
4.28572
4.2874
4.28988
4.2859
4.27546
4.26167
4.24879
4.24035
4.23787
4.24025
4.24395
4.24395
4.23523
4.21424
4.1799
4.13386
4.08003
4.02157
3.96176
3.90524
3.85388
3.8073
3.76352
3.7199
3.67389
3.62351
3.56738
3.50447
3.43396
3.35518
3.26758
3.1708
3.06481
2.95025
2.82896
2.70524
2.58824
2.49651
2.46566
2.55864
2.87299
3.52142
4.5393
5.72674
6.64612
6.96375
6.74029
6.26777
5.77273
5.34399
4.99576
4.72193
4.51084
4.34781
4.21999
4.11929
4.03729
3.97384
3.94204
3.96011
4.04726
4.20719
4.41867
4.63879
4.82001
4.93196
4.97227
4.95592
4.91488
4.87718
4.85775
4.86062
4.88205
4.914
4.94756
4.9757
4.9945
5.00222
4.99515
4.96685
4.92151
4.88322
4.91104
5.11669
7.58919
2.96872
2.51687
2.52522
2.68658
2.91174
3.16747
3.43034
3.67324
3.87375
4.01585
4.09201
4.10318
4.05803
3.97013
3.85434
3.7235
3.58654
3.44817
3.30977
3.17091
3.0308
2.88949
2.74874
2.61221
2.48516
2.37306
2.27952
2.21035
2.17189
2.1479
2.11683
2.0709
2.01016
1.93902
1.86553
1.80057
1.7581
1.7576
1.83324
2.05578
2.56651
3.54243
5.07432
6.86408
8.27103
8.80195
8.49215
7.69557
6.79295
6.00993
5.40891
4.96878
4.65397
4.44183
4.32054
4.2798
4.30631
4.38522
4.50299
4.64899
4.81521
4.99503
5.18206
5.36971
5.55172
5.72326
5.88203
6.02861
6.16566
6.29606
6.42067
6.53668
6.63733
6.71397
6.76505
6.78976
6.78721
6.75642
6.69714
6.60781
6.49423
6.35939
6.19926
6.01167
5.79731
5.56336
5.32496
5.10166
4.90927
4.7521
4.62115
4.50114
4.3827
4.27064
4.18157
4.13247
4.12888
4.14637
4.14806
4.13811
4.12187
4.10512
4.09259
4.08693
4.08823
4.09415
4.10054
4.10264
4.09635
4.07929
4.05134
4.01463
3.97278
3.92838
3.88338
3.8404
3.79977
3.76041
3.72047
3.67809
3.63179
3.58057
3.52368
3.46042
3.39003
3.31173
3.22474
3.1286
3.02345
2.91071
2.79417
2.68231
2.59224
2.55635
2.63123
2.90398
3.47722
4.39173
5.48551
6.37435
6.74459
6.62335
6.2475
5.8138
5.41385
5.07544
4.80104
4.58244
4.40719
4.26275
4.13829
4.02692
3.93226
3.87061
3.86634
3.94161
4.10218
4.32625
4.56555
4.76398
4.88444
4.92409
4.90757
4.8688
4.8355
4.82313
4.83505
4.86582
4.9054
4.94355
4.9734
4.99312
5.00492
5.01025
5.00055
4.97149
4.93163
4.91423
5.00035
6.05559
3.02175
2.67567
2.73624
2.94184
3.20764
3.49695
3.78449
4.04382
4.25533
4.40435
4.48563
4.50212
4.46414
4.38652
4.28501
4.17315
4.06045
3.95217
3.85023
3.75461
3.66487
3.58129
3.5055
3.44031
3.38885
3.35307
3.33161
3.31751
3.30179
3.27986
3.24084
3.1702
3.05972
2.91212
2.74255
2.57709
2.4509
2.40737
2.50576
2.83713
3.50416
4.59388
6.01724
7.40285
8.27891
8.39553
7.87344
7.04493
6.21732
5.54455
5.04794
4.69502
4.45424
4.309
4.24924
4.26261
4.33331
4.44532
4.58548
4.74431
4.91509
5.09239
5.27095
5.44558
5.61184
5.76718
5.91155
6.04711
6.17673
6.30159
6.41851
6.52015
6.59634
6.64241
6.66616
6.66829
6.64805
6.60439
6.53724
6.44683
6.33436
6.20112
6.04658
5.869
5.66808
5.44902
5.22482
5.01307
4.82766
4.67061
4.53121
4.39541
4.25888
4.13294
4.03793
3.98991
3.99007
4.01719
4.0221
4.01155
3.99284
3.97296
3.95734
3.94922
3.9494
3.95637
3.9668
3.97643
3.98113
3.97789
3.9654
3.94428
3.9168
3.88602
3.85433
3.82154
3.78889
3.75582
3.72102
3.68312
3.64111
3.59438
3.54256
3.48529
3.42201
3.35193
3.2741
3.18771
3.09245
2.98918
2.88111
2.77585
2.68896
2.64974
2.70864
2.94258
3.443
4.25372
5.25027
6.10566
6.52494
6.49772
6.21237
5.8421
5.47749
5.1543
4.8823
4.65828
4.47267
4.31302
4.16706
4.03026
3.91015
3.82596
3.80493
3.87211
4.03527
4.27185
4.52912
4.74433
4.87525
4.91808
4.90023
4.85929
4.82551
4.81487
4.82966
4.86224
4.90023
4.93204
4.95113
4.95793
4.95888
4.96209
4.96427
4.95633
4.93591
4.91517
4.94466
4.84675
3.04976
2.81378
2.90933
3.1434
3.43361
3.74689
4.06071
4.35165
4.59643
4.77944
4.89723
4.95154
4.95221
4.91446
4.85587
4.79308
4.73969
4.70543
4.69661
4.71703
4.76899
4.85382
4.97189
5.12195
5.30007
5.49857
5.70501
5.90168
6.06562
6.17069
6.19105
6.10371
5.89343
5.55953
5.1236
4.63598
4.17642
3.84422
3.73854
3.94339
4.54624
5.49
6.61605
7.6051
8.10943
7.98347
7.36955
6.56357
5.81447
5.2302
4.81077
4.5214
4.33629
4.24755
4.23937
4.29617
4.40025
4.53525
4.68875
4.85245
5.02102
5.19043
5.35694
5.51693
5.66754
5.8075
5.93737
6.05854
6.17144
6.27355
6.35843
6.41924
6.45228
6.46684
6.46606
6.44905
6.41498
6.363
6.29226
6.20225
6.09306
5.96528
5.81886
5.65294
5.46768
5.26795
5.06522
4.8743
4.70496
4.55478
4.41129
4.26407
4.1168
3.98795
3.89958
3.8636
3.874
3.90417
3.90802
3.89437
3.8724
3.84979
3.83215
3.82277
3.82261
3.83058
3.8439
3.85885
3.87157
3.87887
3.87879
3.87093
3.85635
3.83717
3.81579
3.79413
3.77072
3.74527
3.71693
3.68463
3.64767
3.6057
3.55876
3.50688
3.44983
3.38704
3.31759
3.2405
3.15512
3.0618
2.96306
2.86548
2.78302
2.74188
2.78683
2.98534
3.41803
4.1297
5.02971
5.84733
6.30769
6.36366
6.15976
5.85064
5.52494
5.22194
4.95615
4.72881
4.53338
4.35881
4.19401
4.03719
3.89904
3.80161
3.77493
3.84627
4.02358
4.281
4.55913
4.78817
4.92247
4.95991
4.93266
4.8826
4.84212
4.82724
4.83851
4.86544
4.89304
4.90855
4.90612
4.88841
4.86529
4.85052
4.85053
4.85767
4.86414
4.86625
4.88712
3.92635
3.06417
2.9184
3.02837
3.27006
3.57151
3.90382
4.2467
4.57829
4.87599
5.12427
5.31425
5.44306
5.51678
5.54916
5.55915
5.56742
5.59319
5.65207
5.75536
5.9101
6.11919
6.38175
6.69229
7.04198
7.42087
7.81589
8.21204
8.59219
8.93686
9.22336
9.42462
9.50813
9.43657
9.17245
8.6898
7.99473
7.15228
6.30584
5.66105
5.40981
5.62235
6.26689
7.06097
7.72137
7.97098
7.70212
7.04819
6.25596
5.55969
5.0418
4.67861
4.43812
4.29967
4.25392
4.28517
4.37494
4.50406
4.65583
4.81806
4.98303
5.14631
5.30512
5.45717
5.6003
5.73276
5.8537
5.96293
6.06003
6.14303
6.20795
6.25015
6.26761
6.2627
6.2474
6.22049
6.1819
6.13211
6.07097
5.99735
5.90962
5.80652
5.68739
5.55179
5.39939
5.23143
5.05344
4.87598
4.71029
4.56015
4.4178
4.27073
4.11564
3.96607
3.84595
3.77513
3.75794
3.77965
3.80536
3.80258
3.78336
3.75764
3.73308
3.71483
3.70575
3.70653
3.71608
3.73194
3.75086
3.76937
3.78443
3.79385
3.79664
3.793
3.78414
3.77183
3.7578
3.74314
3.7262
3.70521
3.67945
3.64831
3.61165
3.56985
3.5233
3.47214
3.4161
3.35449
3.28634
3.21081
3.12783
3.03917
2.95035
2.87349
2.8317
2.86432
3.03023
3.40012
4.01862
4.82437
5.59998
6.09336
6.22353
6.09257
5.83919
5.55185
5.27183
5.01575
4.78763
4.58376
4.39584
4.21569
4.0446
3.89618
3.7955
3.77539
3.86438
4.06823
4.35451
4.65482
4.89243
5.02083
5.04287
4.99744
4.93117
4.8783
4.85411
4.85644
4.87136
4.88131
4.87299
4.84189
4.7928
4.73772
4.69354
4.67574
4.68388
4.7112
4.7452
4.78739
4.12467
3.0863
2.96955
3.0663
3.29071
3.58618
3.92763
4.30012
4.68852
5.07006
5.42296
5.72985
5.98015
6.17112
6.30793
6.40617
6.48844
6.57578
6.6834
6.82045
6.99208
7.20114
7.4488
7.73571
8.06101
8.42046
8.80879
9.21761
9.64119
10.076
10.5193
10.9658
11.4002
11.7879
12.066
12.1411
11.9022
11.26
10.2134
8.93156
7.78195
7.1693
7.20602
7.65005
8.02806
8.08111
7.66159
6.96351
6.18978
5.5172
5.01724
4.67067
4.44927
4.33354
4.31071
4.36403
4.4733
4.61821
4.78132
4.94989
5.11585
5.27476
5.42437
5.56327
5.6903
5.80439
5.90471
5.99041
6.06006
6.11118
6.14068
6.14598
6.12609
6.0841
6.03103
5.97024
5.90424
5.83464
5.7615
5.6832
5.59703
5.50023
5.39067
5.2671
5.12948
4.98027
4.82595
4.6757
4.53552
4.4017
4.26234
4.10938
3.95071
3.80927
3.70993
3.66527
3.66909
3.69751
3.70913
3.69542
3.66939
3.64061
3.61577
3.599
3.59223
3.59554
3.60762
3.62619
3.64842
3.67135
3.69225
3.70901
3.72033
3.72587
3.72611
3.72214
3.71531
3.70673
3.69684
3.68373
3.66499
3.64016
3.60925
3.57282
3.53156
3.48592
3.43595
3.38125
3.32103
3.25442
3.18108
3.10219
3.02219
2.95148
2.91022
2.93286
3.07096
3.38695
3.92472
4.64605
5.37981
5.89836
6.09299
6.02488
5.81718
5.5608
5.30071
5.05474
4.82789
4.61834
4.42061
4.23004
4.05123
3.90123
3.80889
3.80977
3.93182
4.17499
4.49641
4.8167
5.05362
5.16371
5.15871
5.08619
4.99758
4.92801
4.89085
4.8802
4.8782
4.86517
4.82828
4.76518
4.68271
4.59386
4.51587
4.4698
4.46411
4.49774
4.55725
4.63113
4.68188
3.02878
2.90951
2.97405
3.15807
3.41848
3.74387
4.12936
4.56589
5.03857
5.52622
6.00256
6.44097
6.82106
7.13234
7.37095
7.53915
7.64866
7.71922
7.77404
7.83433
7.91616
8.02974
8.18011
8.36788
8.58944
8.83756
9.10432
9.3789
9.67413
10.0187
10.453
11.0187
11.7403
12.6014
13.5179
14.3203
14.7642
14.5813
13.5887
11.8918
10.0823
8.94183
8.70079
8.7099
8.47763
7.91567
7.15468
6.35697
5.66202
5.1354
4.7688
4.53752
4.42055
4.40099
4.46013
4.57662
4.72912
4.89915
5.0727
5.24051
5.3973
5.54043
5.66868
5.78132
5.87771
5.95709
6.01844
6.0602
6.08041
6.07717
6.04946
5.99735
5.92555
5.84368
5.75698
5.66967
5.58425
5.5011
5.41839
5.33277
5.24049
5.13843
5.02483
4.90011
4.76787