/*--------------------------------*- C++ -*----------------------------------*\
| =========                 |                                                 |
| \\      /  F ield         | OpenFOAM: The Open Source CFD Toolbox           |
|  \\    /   O peration     | Version:  2112                                  |
|   \\  /    A nd           | Website:  www.openfoam.com                      |
|    \\/     M anipulation  |                                                 |
\*---------------------------------------------------------------------------*/
FoamFile
{
    version     2.0;
    format      ascii;
    arch        "LSB;label=32;scalar=64";
    class       volScalarField;
    location    "0.05";
    object      k;
}
// * * * * * * * * * * * * * * * * * * * * * * * * * * * * * * * * * * * * * //

dimensions      [0 2 -2 0 0 0 0];

internalField   nonuniform List<scalar> 
12225
(
0.000238373
0.000113455
3.67837e-05
2.50189e-05
2.33869e-05
2.27909e-05
2.31313e-05
2.69058e-05
4.699e-05
7.81699e-05
9.25378e-05
9.55946e-05
9.42275e-05
8.6566e-05
7.15758e-05
6.45144e-05
4.83711e-05
9.35045e-05
2.21621e-05
2.13901e-05
2.07211e-05
2.09178e-05
2.1033e-05
2.09966e-05
2.10328e-05
2.14838e-05
2.36397e-05
3.13611e-05
4.54219e-05
5.51221e-05
5.95124e-05
6.04749e-05
6.00107e-05
5.84746e-05
5.23328e-05
5.20439e-05
2.00303e-05
1.54823e-05
1.38194e-05
1.44019e-05
1.55194e-05
1.57234e-05
1.5622e-05
1.55803e-05
1.57178e-05
1.64632e-05
1.89834e-05
2.17683e-05
2.35393e-05
2.44328e-05
2.49947e-05
2.51882e-05
2.52657e-05
2.4848e-05
2.00729e-05
2.02076e-05
2.07682e-05
2.10604e-05
2.10398e-05
2.07383e-05
1.94168e-05
1.69539e-05
1.61826e-05
1.64966e-05
1.76004e-05
1.82731e-05
1.85655e-05
1.86419e-05
1.86645e-05
1.8638e-05
1.86315e-05
1.85856e-05
2.39046e-05
2.44168e-05
2.60157e-05
3.38935e-05
3.7533e-05
3.71338e-05
3.21886e-05
2.55299e-05
2.23441e-05
2.10918e-05
2.06665e-05
2.05192e-05
2.04469e-05
2.03332e-05
2.01866e-05
2.00642e-05
1.99844e-05
1.99285e-05
2.27563e-05
2.45173e-05
2.34498e-05
2.35025e-05
2.40516e-05
2.39496e-05
2.3026e-05
2.25778e-05
2.27502e-05
2.39004e-05
2.46222e-05
2.45437e-05
2.39273e-05
2.27549e-05
2.19162e-05
2.13957e-05
2.11293e-05
2.10217e-05
2.08607e-05
2.92033e-05
3.12328e-05
2.56232e-05
2.2395e-05
2.17761e-05
2.17798e-05
2.22916e-05
2.51297e-05
3.02471e-05
3.17835e-05
3.07721e-05
2.69494e-05
2.41917e-05
2.27243e-05
2.19768e-05
2.1625e-05
2.14723e-05
2.14273e-05
2.55321e-05
2.63355e-05
2.55032e-05
2.34576e-05
2.29326e-05
2.29076e-05
2.31889e-05
2.4739e-05
3.19904e-05
4.39641e-05
4.72259e-05
4.51481e-05
3.64954e-05
2.9937e-05
2.62181e-05
2.41364e-05
2.29286e-05
2.13919e-05
2.12734e-05
2.16061e-05
2.1937e-05
2.27293e-05
2.33162e-05
2.35416e-05
2.3621e-05
2.3769e-05
2.44876e-05
2.58309e-05
2.63031e-05
2.61973e-05
2.5529e-05
2.5407e-05
2.61397e-05
2.80181e-05
2.85152e-05
2.19011e-05
2.07646e-05
2.05722e-05
2.09696e-05
2.27324e-05
2.48243e-05
2.55728e-05
2.55932e-05
2.50383e-05
2.33174e-05
2.214e-05
2.15464e-05
2.13044e-05
2.12653e-05
2.13677e-05
2.20134e-05
2.44048e-05
2.64321e-05
2.43097e-05
2.18216e-05
2.05168e-05
2.04715e-05
2.08621e-05
2.27851e-05
2.48864e-05
2.55035e-05
2.54329e-05
2.44354e-05
2.26e-05
2.16532e-05
2.13477e-05
2.1338e-05
2.15844e-05
2.28914e-05
2.59986e-05
2.77809e-05
2.17284e-05
2.17225e-05
2.14312e-05
2.10847e-05
2.10157e-05
2.11629e-05
2.1744e-05
2.20304e-05
2.20368e-05
2.17759e-05
2.14054e-05
2.1342e-05
2.14656e-05
2.22794e-05
2.60909e-05
3.13319e-05
3.39053e-05
3.45526e-05
2.0813e-05
2.15903e-05
2.16732e-05
2.13268e-05
2.07146e-05
2.05306e-05
2.05174e-05
2.05567e-05
2.06684e-05
2.08495e-05
2.11919e-05
2.19525e-05
2.43466e-05
2.85251e-05
3.13131e-05
3.23741e-05
3.24749e-05
3.23542e-05
2.04598e-05
2.0429e-05
2.06488e-05
2.10115e-05
2.10705e-05
2.10717e-05
2.11355e-05
2.15557e-05
2.37173e-05
3.17153e-05
3.77931e-05
3.98097e-05
3.96796e-05
3.67251e-05
3.21642e-05
2.98758e-05
2.89436e-05
2.88349e-05
2.26695e-05
2.29737e-05
2.16494e-05
2.13789e-05
2.16831e-05
2.19708e-05
2.23068e-05
2.32244e-05
2.49953e-05
2.61758e-05
2.69454e-05
2.73622e-05
2.73575e-05
2.65049e-05
2.51682e-05
2.4606e-05
2.45249e-05
2.46229e-05
2.18032e-05
2.12236e-05
2.12122e-05
2.14278e-05
2.17925e-05
2.18953e-05
2.18532e-05
2.16831e-05
2.15559e-05
2.13627e-05
2.12025e-05
2.11416e-05
2.11306e-05
2.11423e-05
2.12477e-05
2.16749e-05
2.3139e-05
2.73021e-05
2.1413e-05
2.05676e-05
2.04698e-05
2.0863e-05
2.1956e-05
2.23789e-05
2.23319e-05
2.20082e-05
2.15103e-05
2.11734e-05
2.10326e-05
2.10024e-05
2.1009e-05
2.10723e-05
2.13436e-05
2.19771e-05
2.23733e-05
2.27161e-05
2.06028e-05
2.10548e-05
2.1212e-05
2.12112e-05
2.14238e-05
2.19397e-05
2.19506e-05
2.16627e-05
2.09801e-05
2.06614e-05
2.05312e-05
2.04781e-05
2.04565e-05
2.04493e-05
2.04486e-05
2.04515e-05
2.04659e-05
2.0519e-05
2.02562e-05
2.08288e-05
2.10135e-05
2.09792e-05
2.09584e-05
2.12987e-05
2.22548e-05
2.25365e-05
2.23327e-05
2.1594e-05
2.10247e-05
2.07626e-05
2.06828e-05
2.06797e-05
2.07309e-05
2.08407e-05
2.08979e-05
2.09105e-05
2.02912e-05
2.06602e-05
2.08731e-05
2.0615e-05
2.0531e-05
2.07604e-05
2.10214e-05
2.09321e-05
2.06408e-05
2.05232e-05
2.05022e-05
2.05213e-05
2.06938e-05
2.09094e-05
2.11634e-05
2.13106e-05
2.15885e-05
2.18996e-05
2.03378e-05
2.03882e-05
2.03707e-05
2.03993e-05
2.05766e-05
2.09301e-05
2.10793e-05
2.1677e-05
2.23913e-05
2.2437e-05
2.18884e-05
2.12939e-05
2.11396e-05
2.11339e-05
2.11288e-05
2.12928e-05
2.20746e-05
2.52655e-05
2.02485e-05
2.04764e-05
2.05631e-05
2.05853e-05
2.0647e-05
2.12939e-05
2.6176e-05
3.42151e-05
3.47371e-05
3.00868e-05
2.48329e-05
2.26062e-05
2.18652e-05
2.17844e-05
2.19897e-05
2.32296e-05
2.87803e-05
4.2909e-05
2.07509e-05
2.30117e-05
2.31678e-05
2.22515e-05
2.12096e-05
2.0981e-05
2.10058e-05
2.11758e-05
2.12158e-05
2.11351e-05
2.10143e-05
2.10011e-05
2.10532e-05
2.13693e-05
2.27129e-05
2.89596e-05
3.73801e-05
4.07881e-05
2.02807e-05
2.07865e-05
2.11971e-05
2.23916e-05
2.28213e-05
2.28275e-05
2.2557e-05
2.16978e-05
2.12249e-05
2.11467e-05
2.12467e-05
2.17648e-05
2.23702e-05
2.30612e-05
2.44605e-05
2.70732e-05
3.013e-05
3.24838e-05
2.14873e-05
2.08348e-05
2.08063e-05
2.11658e-05
2.20405e-05
2.25404e-05
2.27339e-05
2.29182e-05
2.33545e-05
2.50308e-05
3.37784e-05
4.91663e-05
5.27612e-05
5.1376e-05
4.4333e-05
3.55829e-05
2.98916e-05
2.66097e-05
2.09263e-05
2.19212e-05
2.20589e-05
2.18783e-05
2.15113e-05
2.14987e-05
2.15941e-05
2.19009e-05
2.27911e-05
2.62215e-05
4.36717e-05
8.75939e-05
0.000110197
0.000113907
0.000109823
8.7191e-05
5.91442e-05
4.29041e-05
2.00233e-05
2.00216e-05
2.00257e-05
2.00831e-05
2.04362e-05
2.14832e-05
2.19498e-05
2.19807e-05
2.17932e-05
2.15969e-05
2.16654e-05
2.21206e-05
2.23595e-05
2.22877e-05
2.15025e-05
1.93583e-05
1.83003e-05
1.79669e-05
2.01102e-05
1.91592e-05
1.88048e-05
1.73914e-05
1.43492e-05
1.3043e-05
1.29057e-05
1.30663e-05
1.36746e-05
1.47445e-05
1.60606e-05
1.73866e-05
1.83905e-05
1.90079e-05
1.93574e-05
1.95419e-05
1.96034e-05
1.95422e-05
3.00523e-05
3.06594e-05
2.62902e-05
2.45089e-05
2.62475e-05
3.4288e-05
4.0467e-05
4.18036e-05
4.12287e-05
4.05557e-05
4.08425e-05
4.39789e-05
5.14555e-05
5.58233e-05
5.7851e-05
5.85009e-05
5.84971e-05
5.76729e-05
0.000497745
0.000386312
0.000186931
0.000149229
0.000159899
0.000179275
0.000180264
0.000164816
0.00012329
0.000107504
0.000107549
0.000122055
0.00014894
0.000160752
0.000163118
0.000161846
0.000152608
0.000127887
0.106985
0.110948
0.102198
0.0943809
0.0916974
0.0874789
0.0824004
0.0798999
0.0781799
0.0792243
0.079765
0.078059
0.0758048
0.0741786
0.072852
0.071634
0.0705547
0.069396
0.0680242
0.0669455
0.0662808
0.0661037
0.0662906
0.0667016
0.0673934
0.0681802
0.0690922
0.0701254
0.0711062
0.0720395
0.0729628
0.0735777
0.0737085
0.0736134
0.0732211
0.072488
0.0714823
0.0705082
0.0675776
0.0659202
0.0677168
0.0692337
0.0733585
0.12784
0.301457
0.340969
0.311762
0.276425
0.219778
0.187214
0.167402
0.160457
0.161728
0.15754
0.149426
0.142659
0.139876
0.142399
0.144914
0.14655
0.157605
0.243849
0.408486
0.453613
0.411856
0.231856
0.103
0.0491906
0.0277493
0.0199042
0.0174615
0.0169519
0.0172427
0.0175662
0.0177536
0.0178302
0.0176975
0.0173878
0.0169845
0.0164341
0.0157203
0.0151497
0.0142627
0.0136244
0.0125582
0.0117358
0.0106566
0.00970137
0.0083933
0.00765002
0.00631848
0.00567814
0.00470317
0.00424658
0.00379556
0.00359151
0.00352269
0.00355172
0.0035645
0.00357394
0.00358094
0.00358622
0.00359041
0.003594
0.00359698
0.00359906
0.00360032
0.00360078
0.00359974
0.00359771
0.00359639
0.00359193
0.00358481
0.00357446
0.0035617
0.00354127
0.00351547
0.00348111
0.00343654
0.00340415
0.00342604
0.00341569
0.00336622
0.00327236
0.00315758
0.00304101
0.00293975
0.00286108
0.00280381
0.00276364
0.00273591
0.00271575
0.00269912
0.00268234
0.00266195
0.00263349
0.0025964
0.00254828
0.00249204
0.00242889
0.00235892
0.00227406
0.00215635
0.00201911
0.00188748
0.00176062
0.00165011
0.00159116
0.00158052
0.00158507
0.0015755
0.00151504
0.0013285
0.00115196
0.00106176
0.0010209
0.000960066
0.000840225
0.000676904
0.000508788
0.00037048
0.000275758
0.000216625
0.000175464
0.000140584
0.000108751
8.11658e-05
5.94516e-05
4.37041e-05
3.30852e-05
2.61226e-05
2.14108e-05
1.7798e-05
1.4928e-05
1.22993e-05
1.01838e-05
8.22461e-06
6.23905e-06
6.04977e-06
1.21655e-06
0.104852
0.0917153
0.100303
0.100728
0.0898084
0.0756066
0.0611691
0.053263
0.0509283
0.0509429
0.0516497
0.0519753
0.0515381
0.0502175
0.0489955
0.0486031
0.0492715
0.0513877
0.0551657
0.0601954
0.0660129
0.0725259
0.0788359
0.0846633
0.0898817
0.0943761
0.0982322
0.101525
0.104091
0.106229
0.107938
0.109025
0.109251
0.109069
0.108448
0.106901
0.104167
0.100819
0.0932262
0.0802847
0.0706225
0.0671425
0.0680315
0.0832788
0.18453
0.32392
0.362876
0.311319
0.270419
0.251582
0.243829
0.242741
0.246673
0.234114
0.203602
0.159019
0.137992
0.144758
0.171933
0.189729
0.237726
0.313912
0.354282
0.317052
0.187259
0.0937122
0.0473835
0.0268245
0.0177887
0.0136849
0.0116826
0.010473
0.00970544
0.00899279
0.00846063
0.0079773
0.00755876
0.00716602
0.00685095
0.00653515
0.0062276
0.00602541
0.00572178
0.00555974
0.00527993
0.00513398
0.00491491
0.00479392
0.00463049
0.00454799
0.00441535
0.00435249
0.00426173
0.00421624
0.0041493
0.00409161
0.00402792
0.00397993
0.00393682
0.00390472
0.00387983
0.00385784
0.0038436
0.003833
0.00382665
0.00382419
0.00382679
0.00383596
0.00385103
0.003874
0.00390679
0.00395059
0.00400699
0.00407836
0.00416207
0.00424232
0.00431082
0.00437688
0.00444113
0.00449074
0.00452611
0.00458072
0.00462073
0.00463374
0.004633
0.00461243
0.00456602
0.00451009
0.00445242
0.00440196
0.00436326
0.00433496
0.00430968
0.00427753
0.004231
0.00416908
0.00409062
0.00398774
0.003846
0.00365671
0.00343591
0.00321933
0.00304973
0.00296269
0.00289001
0.00276155
0.00259718
0.00242204
0.00223701
0.0020488
0.00188157
0.00174417
0.00162846
0.00153984
0.00148837
0.00146889
0.00146536
0.00146559
0.00146431
0.0014551
0.00141399
0.00129681
0.00118751
0.00111296
0.00106521
0.00103504
0.00101347
0.000983935
0.000916678
0.000780579
0.000638758
0.000510634
0.000408827
0.000323459
0.000260972
0.000206963
0.000172391
0.000135434
0.00012169
8.83255e-05
0.1053
0.0835609
0.0897874
0.0831
0.0644113
0.0490419
0.0455959
0.0443494
0.0438123
0.0458375
0.0470982
0.0490091
0.0561102
0.0627578
0.0714253
0.0761629
0.0798118
0.0852057
0.0900243
0.0943563
0.0977873
0.101075
0.10393
0.106538
0.108798
0.110768
0.112292
0.113708
0.114828
0.116103
0.117032
0.117761
0.11816
0.118311
0.118255
0.117905
0.117378
0.115933
0.111845
0.0988482
0.0810375
0.0692379
0.0658989
0.0681992
0.0879723
0.190382
0.322561
0.324232
0.313057
0.294208
0.291206
0.2945
0.292546
0.285147
0.269367
0.227927
0.151801
0.141428
0.19132
0.23952
0.243847
0.214183
0.141383
0.0841813
0.045611
0.0252481
0.0156049
0.0110397
0.00878405
0.00757306
0.00682562
0.00634935
0.00607814
0.00586089
0.00575342
0.00569154
0.00565899
0.00564083
0.00562829
0.00560653
0.00557301
0.00553164
0.00545313
0.00533813
0.00513128
0.0049147
0.00469635
0.00449839
0.00423289
0.00395672
0.00368008
0.00347682
0.00332472
0.00320998
0.00315164
0.00312358
0.00311719
0.00316715
0.00323598
0.00328866
0.00332144
0.003335
0.00333681
0.003323
0.00328281
0.0032458
0.00319727
0.00314944
0.00309873
0.00305115
0.00300397
0.00296316
0.00293067
0.00290881
0.00290747
0.00296224
0.00308712
0.00326824
0.00350786
0.00380196
0.00409899
0.00432746
0.00450163
0.00463834
0.00473949
0.00481286
0.00486169
0.00488862
0.00489914
0.00490083
0.00489916
0.00489382
0.00488396
0.00486212
0.00481175
0.00473974
0.00465396
0.00456291
0.00447171
0.0043623
0.00418201
0.00387838
0.00346283
0.00302048
0.0026998
0.00256064
0.00250753
0.00244609
0.00231373
0.00198458
0.00158538
0.00127321
0.00108911
0.00100119
0.000961603
0.000946414
0.000947356
0.000980344
0.00106446
0.00111578
0.00113001
0.00112682
0.00109769
0.000996182
0.000908803
0.000869835
0.000857461
0.000851549
0.000839827
0.000820889
0.000785379
0.000700715
0.000596968
0.000491214
0.000408129
0.000331514
0.000281753
0.000226635
0.000198879
0.000160097
0.0907718
0.0745293
0.0547412
0.0421929
0.0381118
0.0388465
0.0477488
0.0562512
0.0589328
0.0599059
0.0630404
0.0685861
0.0745771
0.0774931
0.0799462
0.0829224
0.0857364
0.0897043
0.0933869
0.0966715
0.0990547
0.0998474
0.0999643
0.0996211
0.099354
0.0989971
0.0986357
0.0983786
0.0980746
0.0975708
0.097303
0.0971941
0.0970321
0.0959319
0.0935847
0.091776
0.0911437
0.0892787
0.0860708
0.0815888
0.0746569
0.0668571
0.0627107
0.062774
0.0660193
0.0849914
0.147047
0.251326
0.28827
0.292092
0.294368
0.2962
0.294664
0.288271
0.275958
0.250696
0.180159
0.124394
0.130716
0.183343
0.163277
0.0877467
0.0487741
0.0276128
0.016268
0.0107367
0.00809221
0.00679314
0.0060865
0.00573729
0.00555823
0.00547752
0.00545335
0.00545015
0.00548363
0.00553906
0.00559696
0.0056389
0.00564912
0.00564774
0.00560961
0.00548083
0.00531044
0.00514781
0.0049443
0.0046986
0.00439332
0.00399585
0.00365834
0.00352137
0.00344698
0.00341374
0.00340401
0.00342683
0.00356916
0.00381112
0.00410603
0.00451108
0.00487199
0.00514386
0.00533401
0.00543118
0.00546425
0.00540348
0.00526041
0.00509209
0.0048714
0.00465089
0.00439994
0.00414692
0.00386724
0.00358236
0.00329251
0.00301002
0.00274586
0.00250422
0.00230278
0.00215437
0.00206726
0.00204121
0.00213275
0.00246284
0.00295154
0.00349726
0.00396247
0.00428745
0.00452432
0.00468845
0.00479477
0.00485665
0.00488569
0.00489361
0.00489223
0.00487918
0.00483974
0.00478578
0.00471967
0.00464288
0.00456658
0.00450748
0.00447005
0.00443121
0.00435936
0.00419769
0.0037628
0.00324887
0.00294761
0.00282338
0.0027535
0.00268361
0.00259045
0.00236937
0.00203552
0.00185211
0.00177917
0.0016626
0.00135009
0.00103656
0.000906074
0.000885703
0.000894599
0.000924507
0.000931721
0.000921549
0.000853767
0.000665392
0.000534597
0.000485869
0.000481705
0.000497065
0.00053242
0.000539716
0.000537435
0.000524117
0.000475045
0.000385375
0.000301735
0.00023928
0.000184552
0.00015119
0.0434647
0.037554
0.0333656
0.0352506
0.0418143
0.0495745
0.0557334
0.0582625
0.0595038
0.0611227
0.0634912
0.0661342
0.0675727
0.0682501
0.0690889
0.0702187
0.0706633
0.0704671
0.0680986
0.0640932
0.0596367
0.0554805
0.0525484
0.0506204
0.0494417
0.0489541
0.0491183
0.0503197
0.0518285
0.0535552
0.0545412
0.0549771
0.0553253
0.0560114
0.0564522
0.0568463
0.0570062
0.0562015
0.0554797
0.0548926
0.0549085
0.0550915
0.0569828
0.0603557
0.0626822
0.0663937
0.0759614
0.0977668
0.147349
0.184143
0.215931
0.226592
0.224452
0.215001
0.19979
0.182751
0.142908
0.111855
0.113251
0.151293
0.127029
0.0464192
0.0217924
0.0127337
0.00863255
0.00677391
0.00592484
0.00555117
0.00540079
0.00536056
0.00537613
0.00543907
0.00552859
0.00565159
0.00577919
0.00589235
0.00594408
0.0059535
0.00583255
0.00572392
0.00556636
0.00538463
0.00509078
0.00471832
0.00422481
0.00383879
0.0036772
0.00361745
0.00361188
0.00368717
0.00390703
0.00432615
0.00499334
0.00592852
0.00711432
0.00847258
0.00987714
0.0111831
0.0123039
0.013141
0.0135702
0.0137351
0.0136754
0.0133258
0.012814
0.0122911
0.0116455
0.011077
0.0104532
0.00984205
0.00917444
0.00847092
0.00770476
0.00687682
0.00598966
0.00505547
0.00412663
0.00328045
0.00257521
0.00204196
0.0016775
0.00146338
0.00138645
0.00143146
0.00181096
0.00253907
0.00325994
0.00381419
0.00416825
0.00439138
0.0045264
0.00460312
0.00464111
0.00465438
0.00465584
0.00465404
0.0046458
0.00461937
0.00454028
0.00441168
0.00429504
0.00422869
0.00420561
0.00418443
0.004125
0.003891
0.00330307
0.00292245
0.00276029
0.00272464
0.00274411
0.00278618
0.0027859
0.00276089
0.00263842
0.00230035
0.0019872
0.00173581
0.00151841
0.00134104
0.00121723
0.0011571
0.00114322
0.00112834
0.00108314
0.000930018
0.00071123
0.00053766
0.000445439
0.000429539
0.000441742
0.000512042
0.000589318
0.000613376
0.000609116
0.000569783
0.000441565
0.000314086
0.000227917
0.000161189
0.0279291
0.0330223
0.0364836
0.0418363
0.0492753
0.0525917
0.0541551
0.0544838
0.0526664
0.0501316
0.0459017
0.0424433
0.0395658
0.0381673
0.0363841
0.0339101
0.0311817
0.0275836
0.024277
0.0216545
0.0197397
0.0185
0.0178284
0.0175124
0.0174011
0.0175623
0.0180365
0.018967
0.0203059
0.0224531
0.0257266
0.03074
0.0352866
0.0402764
0.0436061
0.0456465
0.0473004
0.0479665
0.0480958
0.0477089
0.0470716
0.0466585
0.0473579
0.0509234
0.0565104
0.062807
0.0680767
0.072218
0.0811156
0.0918276
0.100779
0.106975
0.107802
0.106612
0.103079
0.0989652
0.0869126
0.0837765
0.095051
0.141277
0.113742
0.0316254
0.0125878
0.00803958
0.00628757
0.00562645
0.0054205
0.00538669
0.00542063
0.00554141
0.00577803
0.00612922
0.00643508
0.00659082
0.00664736
0.00655203
0.00638931
0.00615642
0.00592144
0.00565143
0.00536467
0.00491695
0.0042426
0.00388239
0.00373835
0.00370557
0.00373677
0.00390869
0.00434652
0.00513314
0.00640556
0.00821983
0.010643
0.0135736
0.0165847
0.0198138
0.0231115
0.0261371
0.02865
0.030048
0.0306111
0.0305912
0.0294392
0.0278947
0.0259461
0.0241884
0.0224019
0.0209299
0.0195899
0.0184131
0.0173858
0.0164456
0.0155286
0.0145759
0.0135195
0.0122559
0.0106161
0.00869768
0.00684744
0.00510689
0.00361163
0.00243541
0.00162225
0.0011503
0.00093181
0.00088759
0.00100355
0.00161454
0.00254419
0.0033321
0.00387738
0.00420606
0.00439115
0.00448812
0.00453188
0.00454543
0.00454639
0.00454357
0.0045261
0.00446003
0.00426505
0.00405927
0.00392948
0.00388198
0.00387267
0.00386062
0.0037788
0.00334792
0.0027991
0.00260501
0.00259341
0.00264446
0.0027199
0.00272807
0.00271144
0.00263843
0.00239356
0.00202007
0.00171917
0.0015265
0.00144165
0.00141881
0.0014201
0.00144492
0.00145164
0.00143725
0.00134986
0.00106027
0.000794619
0.000662973
0.000629008
0.00063907
0.000727745
0.000863348
0.000909835
0.000906872
0.000850089
0.00063274
0.000456012
0.000308516
0.0292524
0.0360371
0.0405001
0.0456176
0.0481849
0.0487613
0.0449223
0.0363751
0.0311191
0.0265503
0.0243692
0.0219913
0.0207818
0.0192594
0.0177449
0.0159972
0.0145694
0.0133351
0.0124765
0.0119937
0.0117287
0.0115976
0.0115501
0.011558
0.0115645
0.0115437
0.0115259
0.0114083
0.0111384
0.0110145
0.0113854
0.0122646
0.0138385
0.017086
0.0225076
0.0284598
0.0350814
0.0401515
0.0430267
0.0444146
0.0447047
0.043896
0.0430169
0.0425012
0.0428427
0.045239
0.0477903
0.0497505
0.0542077
0.0569343
0.058096
0.0602813
0.0616961
0.0619688
0.0623262
0.0631815
0.0642888
0.0677899
0.0927303
0.138671
0.10416
0.0240498
0.00884265
0.00630128
0.0055604
0.00537941
0.00540631
0.00553726
0.0059009
0.0065858
0.00713029
0.00742435
0.00751949
0.00744323
0.00723949
0.00692143
0.00656934
0.00616707
0.00581834
0.00527065
0.00449732
0.0039483
0.0037393
0.00369229
0.00377148
0.00393167
0.00436746
0.00530827
0.00699249
0.00973707
0.0132022
0.01675
0.0212945
0.0267564
0.0336135
0.0413306
0.0491894
0.0567984
0.0614906
0.0637948
0.0646195
0.0635764
0.0608673
0.0564563
0.0504276
0.0441677
0.038814
0.0342013
0.0301787
0.0268055
0.0241874
0.0221864
0.0207525
0.0197148
0.0188978
0.0182068
0.0175589
0.0166125
0.0148654
0.0122967
0.00951307
0.00688254
0.00457857
0.00279383
0.00159883
0.000926948
0.000620296
0.000527544
0.000543571
0.000767249
0.001553
0.00249212
0.00322016
0.00370049
0.00397071
0.00409446
0.00414066
0.00415717
0.00415924
0.00415299
0.00411792
0.00398686
0.00380795
0.00369386
0.00365252
0.00364103
0.00361833
0.00352943
0.00316464
0.00257733
0.00229138
0.00225423
0.00227253
0.00236945
0.00241622
0.00240594
0.0023564
0.00222778
0.00192349
0.00165098
0.00149909
0.00145605
0.0014565
0.00149471
0.00161292
0.00166452
0.00166272
0.00159899
0.00130541
0.000952792
0.000785555
0.000746606
0.000761386
0.000873021
0.00102642
0.00107664
0.00107396
0.00101617
0.000793222
0.000519378
0.0295649
0.0374351
0.0416896
0.0437078
0.0432774
0.0353217
0.0251153
0.0206038
0.0177859
0.0159064
0.014985
0.0140602
0.0136003
0.0130013
0.0126231
0.0123015
0.012161
0.0121138
0.0121654
0.0122756
0.0125481
0.0128989
0.0132402
0.013427
0.0134864
0.0131097
0.0127021
0.0120199
0.0109308
0.0097518
0.00886427
0.00790034
0.00704605
0.0066859
0.00649393
0.00751332
0.0101535
0.0154676
0.0233544
0.0314316
0.0375503
0.0401766
0.0412457
0.0407949
0.0402476
0.0398149
0.0394354
0.0383549
0.0368329
0.03631
0.0364086
0.0372309
0.0395245
0.0431865
0.0460031
0.0481981
0.0526798
0.065447
0.111227
0.138333
0.0856666
0.0172314
0.00699648
0.00563636
0.00537712
0.00538444
0.00559977
0.00627176
0.00739056
0.00803325
0.00830082
0.00834817
0.00819662
0.00790392
0.00752444
0.00703241
0.0065357
0.00594103
0.00523881
0.004254
0.00376842
0.00362039
0.003616
0.0037744
0.00408721
0.00482203
0.00629622
0.00913509
0.0129484
0.0168693
0.0215425
0.02923
0.0401559
0.0550523
0.0721021
0.0813273
0.0846624
0.0853208
0.0850185
0.0844153
0.0842405
0.0846546
0.0854299
0.0862205
0.0860146
0.0830148
0.076136
0.0663396
0.0558333
0.0458359
0.0380594
0.0316136
0.0270241
0.0239837
0.0220114
0.0208611
0.020294
0.0200692
0.0198894
0.0194676
0.0177665
0.0145907
0.0110073
0.00753574
0.0046622
0.00261608
0.00135779
0.000692626
0.000396706
0.00029508
0.000285156
0.000338614
0.000626684
0.00137625
0.0020559
0.00252811
0.00281098
0.00298029
0.0030981
0.00319389
0.00325319
0.00327932
0.00329591
0.00333298
0.0033865
0.00341
0.00341115
0.00338829
0.00326807
0.00283422
0.0022634
0.00192017
0.00177583
0.00173457
0.00173199
0.00178586
0.00191253
0.00192755
0.00190601
0.00179348
0.00156931
0.0014612
0.00144545
0.00146189
0.00155934
0.00168326
0.00171871
0.00170422
0.00156893
0.00113593
0.0008283
0.000728636
0.000722326
0.000772574
0.000956513
0.00109689
0.00114407
0.00114227
0.00109233
0.000852012
0.0300135
0.0374509
0.0401111
0.0392777
0.0311722
0.0203804
0.0158319
0.0137591
0.0127409
0.0122984
0.0121933
0.012374
0.0124628
0.0126587
0.0127859
0.0132027
0.0140198
0.0152738
0.0169739
0.0190545
0.0212295
0.0227346
0.0238423
0.0243572
0.024509
0.0240259
0.0232526
0.0218827
0.019866
0.0173905
0.0150048
0.012238
0.00929142
0.0067717
0.00516938
0.00406973
0.00366281
0.00353419
0.0047158
0.0076884
0.0141017
0.0235397
0.0324431
0.0373075
0.0398612
0.0409056
0.0413996
0.0393198
0.0350663
0.0332333
0.033217
0.0343513
0.0372209
0.039701
0.0432916
0.0499187
0.0659716
0.101937
0.137893
0.133964
0.0534205
0.0110862
0.00602604
0.00542589
0.00536859
0.00553233
0.00629723
0.00787533
0.00877939
0.00919281
0.00927442
0.00900729
0.00858841
0.00807254
0.00753562
0.00687923
0.00606231
0.00495089
0.00410716
0.003665
0.00352387
0.00355134
0.00368888
0.00410124
0.0049943
0.00700762
0.0108322
0.0145593
0.0190582
0.0258089
0.0381376
0.0598366
0.0816761
0.0905538
0.0942062
0.0947877
0.0918995
0.0848317
0.0796093
0.0753892
0.0738942
0.0753675
0.0802655
0.08621
0.0912987
0.0952296
0.0970744
0.0972038
0.0935817
0.0857814
0.0730153
0.0576687
0.0443991
0.0358908
0.0299646
0.025959
0.0234893
0.0222541
0.0219737
0.0222675
0.0225591
0.0221732
0.0196771
0.0152513
0.0106225
0.00664721
0.00377006
0.0019611
0.000954856
0.000456784
0.000240169
0.000163022
0.000152237
0.000171114
0.000265629
0.000524565
0.000818647
0.0010986
0.00131163
0.00153108
0.00181204
0.00202245
0.00212472
0.00228678
0.00259644
0.00285579
0.00298382
0.00302518
0.00301467
0.00289802
0.00247622
0.00189685
0.00152724
0.00133332
0.00126374
0.00126248
0.00134211
0.00158233
0.00169423
0.00170094
0.00164981
0.00148255
0.00139941
0.00139131
0.00141343
0.00154887
0.00167302
0.00168808
0.00162906
0.0012959
0.000874856
0.00070322
0.000661976
0.000669202
0.000763602
0.000987088
0.00110977
0.00114879
0.00114717
0.00108512
0.0305565
0.0364968
0.0369
0.0307471
0.0193918
0.0140517
0.0120227
0.0113222
0.0111461
0.0115126
0.0120223
0.0125505
0.0131565
0.0142941
0.0160795
0.0190691
0.02345
0.0274499
0.0310021
0.0340917
0.0356577
0.037214
0.0379995
0.0384802
0.0386227
0.0380202
0.0370097
0.0355258
0.0335229
0.0311857
0.0286617
0.0255339
0.0214408
0.0159666
0.0106489
0.00638757
0.00376937
0.00256637
0.00202117
0.00177577
0.00236865
0.00436442
0.00922039
0.0193415
0.030495
0.037945
0.041937
0.0425907
0.0388775
0.0352576
0.0352358
0.0372316
0.0422019
0.0512239
0.0707463
0.101699
0.127411
0.141355
0.142261
0.102772
0.024857
0.00752761
0.00561968
0.00539768
0.00543971
0.00599233
0.00785144
0.00929325
0.0100338
0.0102521
0.0100581
0.00952123
0.00879269
0.00800166
0.00709436
0.00594243
0.00480094
0.00398127
0.00357995
0.00343742
0.00346448
0.00359836
0.00395584
0.00499144
0.00734957
0.0108568
0.0146755
0.0204217
0.0285867
0.0433322
0.0739221
0.0932183
0.10019
0.101301
0.0956854
0.0826728
0.0649616
0.0501733
0.0430359
0.0396152
0.0378364
0.036969
0.0389
0.0465361
0.061135
0.0796084
0.0933856
0.0998762
0.101484
0.100415
0.096871
0.0892598
0.073979
0.0573709
0.0457907
0.03746
0.0316894
0.0277217
0.0252298
0.0244537
0.0247238
0.0255183
0.0256081
0.0243446
0.0195546
0.013527
0.00837235
0.00471971
0.00246681
0.00121259
0.000571034
0.000269438
0.000141374
9.62789e-05
8.91923e-05
9.46617e-05
0.000124958
0.000241241
0.000354238
0.000418047
0.000542444
0.000765331
0.000914158
0.00103247
0.00129709
0.00181264
0.00219892
0.002423
0.00253475
0.00254488
0.00244576
0.00208696
0.00160084
0.00124838
0.00106499
0.00102135
0.00104302
0.00122338
0.00150097
0.00160649
0.00161059
0.00154358
0.00140095
0.00135485
0.00137091
0.00151265
0.00168228
0.0017201
0.00168328
0.00141818
0.000953841
0.000706753
0.000613817
0.000595934
0.00061215
0.000743386
0.000970597
0.00108062
0.00110687
0.00109888
0.0303647
0.0342918
0.0316538
0.022331
0.0141926
0.0114091
0.0105929
0.0104598
0.0109318
0.0116347
0.0126337
0.0142535
0.0168715
0.0213774
0.0263813
0.0314628
0.0353495
0.0387709
0.0416267
0.043802
0.0451682
0.0461646
0.0468083
0.047153
0.0472504
0.0463253
0.0449644
0.0430114
0.0406344
0.0382967
0.0360196
0.0336855
0.0312171
0.028579
0.0245422
0.0173263
0.00942707
0.00481111
0.0024651
0.00143105
0.0010376
0.000898252
0.00133136
0.00289738
0.00724118
0.0180197
0.0317387
0.0404709
0.0415439
0.0408999
0.0414294
0.0454342
0.0584257
0.0930714
0.128492
0.145595
0.148563
0.143996
0.124361
0.0476671
0.0117947
0.0061834
0.00553716
0.00544968
0.00572892
0.00721482
0.00946366
0.0107457
0.0112929
0.0112985
0.0108117
0.00997793
0.00881149
0.007262
0.00573188
0.00464196
0.00394989
0.0035239
0.00336406
0.00335813
0.00347846
0.0037518
0.00450031
0.00631281
0.00961169
0.0138924
0.0196952
0.0278583
0.0438557
0.0781363
0.0980917
0.104511
0.104881
0.0945319
0.0732631
0.0456706
0.037305
0.0352939
0.0347571
0.0339206
0.0324606
0.0301936
0.0279634
0.0266006
0.0276553
0.0343604
0.0543131
0.0820138
0.0968325
0.100621
0.0997304
0.096295
0.0889102
0.0724798
0.0565311
0.0453303
0.0383111
0.0342693
0.0315699
0.0292117
0.027792
0.0278063
0.0285229
0.028745
0.0281096
0.0239072
0.0161891
0.00971401
0.00533556
0.00275317
0.00135666
0.000645557
0.000302986
0.000148353
8.44456e-05
6.39118e-05
6.24527e-05
7.0863e-05
0.000108433
0.000139597
0.000178594
0.000278885
0.000384855
0.000446437
0.000531214
0.000743304
0.00119314
0.00155952
0.00184097
0.00202678
0.00207509
0.0020071
0.00175222
0.00132204
0.00104452
0.000934286
0.000928565
0.00100591
0.00130577
0.00151408
0.00156498
0.00154891
0.00145048
0.00138771
0.00139954
0.00154221
0.0017083
0.00173951
0.00169618
0.00141547
0.000946622
0.000670741
0.000543619
0.000500917
0.000495246
0.000521447
0.000688114
0.000877882
0.000952167
0.000984991
0.0299279
0.0324125
0.0272707
0.0169588
0.0118014
0.0102783
0.0100062
0.0102587
0.0110678
0.0123514
0.0148072
0.01957
0.0248255
0.0298744
0.0355385
0.0405084
0.0452435
0.0486501
0.0518605
0.0534879
0.0551364
0.056119
0.0575353
0.058373
0.0586914
0.0580781
0.056286
0.0530862
0.0487405
0.0441197
0.0402036
0.0371269
0.0343065
0.032491
0.0305358
0.0286247
0.0229602
0.0124247
0.00594634
0.00271537
0.00121443
0.00067863
0.000496035
0.000494061
0.000912153
0.00256548
0.00846742
0.0250025
0.0384055
0.042343
0.0442417
0.049131
0.0727106
0.120381
0.146053
0.149271
0.145064
0.123322
0.0652399
0.0208377
0.00767884
0.00589521
0.00559462
0.00571823
0.0066154
0.00924165
0.0112217
0.0122337
0.012527
0.0123553
0.0115988
0.0103901
0.00834498
0.00603561
0.00460774
0.00384627
0.00348382
0.00331811
0.00329048
0.00334704
0.00353472
0.00409345
0.00610132
0.00899465
0.0126794
0.0177214
0.0248789
0.0384798
0.0668106
0.098113
0.108566
0.110228
0.100176
0.0719303
0.0433625
0.0360104
0.0349582
0.0360354
0.0387731
0.0401511
0.0401717
0.0370487
0.0316824
0.0270673
0.0249667
0.0252371
0.0282054
0.0412192
0.0725445
0.091185
0.096298
0.0958027
0.0911243
0.077806
0.0597961
0.0472325
0.0396235
0.0355843
0.0337561
0.0330728
0.0323687
0.0321127
0.0321479
0.032148
0.0320541
0.0315187
0.0277883
0.0183165
0.0105524
0.00559936
0.00281875
0.00137365
0.000655667
0.000310087
0.000151485
8.53617e-05
6.15673e-05
5.62887e-05
5.72121e-05
6.23983e-05
7.45992e-05
0.000106467
0.000170176
0.000210317
0.000246446
0.000322561
0.000545508
0.000896712
0.00120164
0.00146214
0.00163786
0.00169294
0.00164016
0.00140372
0.00106901
0.00090705
0.000876784
0.00091188
0.00113791
0.00141301
0.00151328
0.00152125
0.00148922
0.00145894
0.00147053
0.00158327
0.00169773
0.00170771
0.00163691
0.0012804
0.00083651
0.00058331
0.000461221
0.00041217
0.000399221
0.000402352
0.00043773
0.000529943
0.000584314
0.000654368
0.028992
0.030469
0.0226202
0.0140602
0.0106388
0.00978393
0.00972175
0.0102885
0.0115551
0.0144082
0.0198009
0.0259075
0.0315133
0.0384537