/*--------------------------------*- C++ -*----------------------------------*\
| =========                 |                                                 |
| \\      /  F ield         | OpenFOAM: The Open Source CFD Toolbox           |
|  \\    /   O peration     | Version:  2112                                  |
|   \\  /    A nd           | Website:  www.openfoam.com                      |
|    \\/     M anipulation  |                                                 |
\*---------------------------------------------------------------------------*/
FoamFile
{
    version     2.0;
    format      ascii;
    arch        "LSB;label=32;scalar=64";
    class       surfaceScalarField;
    location    "0.37";
    object      phi;
}
// * * * * * * * * * * * * * * * * * * * * * * * * * * * * * * * * * * * * * //

dimensions      [0 3 -1 0 0 0 0];

oriented        oriented;

internalField   nonuniform List<scalar> 
24170
(
3.04172e-06
1.46689e-07
2.8781e-06
1.63618e-07
2.72836e-06
1.49738e-07
2.59089e-06
1.37472e-07
2.46911e-06
1.21779e-07
2.36603e-06
1.03081e-07
2.28019e-06
8.58439e-08
2.20902e-06
7.1166e-08
2.15262e-06
5.6398e-08
2.11159e-06
4.10358e-08
2.08521e-06
2.63759e-08
2.07117e-06
1.40366e-08
2.06669e-06
4.48101e-09
2.0675e-06
-8.11307e-10
2.06963e-06
-2.12373e-09
2.06738e-06
2.24938e-09
2.04944e-06
1.79373e-08
6.24004e-08
1.98704e-06
3.49421e-06
6.97293e-08
3.54752e-06
1.10309e-07
3.58154e-06
1.15713e-07
3.59773e-06
1.21289e-07
3.59756e-06
1.21949e-07
3.5835e-06
1.17134e-07
3.55826e-06
1.11084e-07
3.52352e-06
1.05912e-07
3.47966e-06
1.00254e-07
3.42714e-06
9.3553e-08
3.36686e-06
8.6656e-08
3.30037e-06
8.05273e-08
3.22933e-06
7.55227e-08
3.15616e-06
7.23638e-08
3.08326e-06
7.07695e-08
3.01256e-06
7.2951e-08
2.95376e-06
7.67352e-08
9.12113e-08
2.92495e-06
3.67888e-06
5.33648e-08
3.69601e-06
9.31851e-08
3.71328e-06
9.84342e-08
3.73207e-06
1.02506e-07
3.75014e-06
1.03876e-07
3.76611e-06
1.0117e-07
3.77977e-06
9.74214e-08
3.79114e-06
9.45354e-08
3.79965e-06
9.17489e-08
3.80464e-06
8.8564e-08
3.80571e-06
8.55888e-08
3.80256e-06
8.3676e-08
3.79486e-06
8.32239e-08
3.78255e-06
8.46684e-08
3.76535e-06
8.79728e-08
3.74415e-06
9.41528e-08
3.71937e-06
1.01509e-07
1.11947e-07
3.69864e-06
3.9355e-06
4.32556e-08
3.94552e-06
8.31625e-08
3.95286e-06
9.10928e-08
3.9604e-06
9.49653e-08
3.9677e-06
9.65745e-08
3.97434e-06
9.45369e-08
3.98063e-06
9.11291e-08
3.98698e-06
8.81843e-08
3.99328e-06
8.54461e-08
3.99928e-06
8.25619e-08
4.0049e-06
7.99783e-08
4.0102e-06
7.83703e-08
4.01534e-06
7.80853e-08
4.02057e-06
7.94381e-08
4.02609e-06
8.24555e-08
4.03275e-06
8.74939e-08
4.04072e-06
9.35315e-08
9.98715e-08
4.0528e-06
4.21518e-06
3.52038e-08
4.22457e-06
7.37702e-08
4.23139e-06
8.42768e-08
4.23776e-06
8.85897e-08
4.24362e-06
9.07181e-08
4.24855e-06
8.96027e-08
4.25283e-06
8.68481e-08
4.25687e-06
8.41465e-08
4.26071e-06
8.16034e-08
4.26427e-06
7.90114e-08
4.26754e-06
7.66987e-08
4.27071e-06
7.52045e-08
4.27395e-06
7.48417e-08
4.27758e-06
7.58095e-08
4.28199e-06
7.80442e-08
4.28798e-06
8.15064e-08
4.2964e-06
8.51162e-08
8.7527e-08
4.30874e-06
4.51543e-06
2.886e-08
4.52429e-06
6.49098e-08
4.53127e-06
7.72945e-08
4.53768e-06
8.21798e-08
4.54367e-06
8.4734e-08
4.54882e-06
8.44512e-08
4.55326e-06
8.24037e-08
4.55733e-06
8.00812e-08
4.5611e-06
7.78311e-08
4.56453e-06
7.55828e-08
4.56764e-06
7.35841e-08
4.57059e-06
7.22557e-08
4.57358e-06
7.18525e-08
4.57693e-06
7.2466e-08
4.58102e-06
7.3953e-08
4.58648e-06
7.60386e-08
4.59381e-06
7.77898e-08
7.80164e-08
4.60332e-06
4.83774e-06
2.38414e-08
4.84592e-06
5.67268e-08
4.85292e-06
7.02998e-08
4.85929e-06
7.581e-08
4.86533e-06
7.86857e-08
4.87072e-06
7.90613e-08
4.87547e-06
7.76563e-08
4.87983e-06
7.57263e-08
4.88389e-06
7.37644e-08
4.88766e-06
7.18179e-08
4.89116e-06
7.00793e-08
4.89456e-06
6.88627e-08
4.89805e-06
6.83555e-08
4.90195e-06
6.85729e-08
4.90657e-06
6.93249e-08
4.91236e-06
7.025e-08
4.91955e-06
7.05973e-08
6.93581e-08
4.92821e-06
5.18359e-06
1.98348e-08
5.19101e-06
4.9306e-08
5.19791e-06
6.33966e-08
5.20424e-06
6.94776e-08
5.21032e-06
7.26051e-08
5.2159e-06
7.34825e-08
5.22092e-06
7.2641e-08
5.22555e-06
7.10971e-08
5.2299e-06
6.94079e-08
5.23401e-06
6.77137e-08
5.23792e-06
6.61723e-08
5.24177e-06
6.50094e-08
5.24577e-06
6.4352e-08
5.25018e-06
6.41668e-08
5.25526e-06
6.42456e-08
5.26128e-06
6.4225e-08
5.26836e-06
6.35225e-08
6.14381e-08
5.27628e-06
5.55457e-06
1.65991e-08
5.56123e-06
4.26531e-08
5.56796e-06
5.66625e-08
5.57427e-06
6.31707e-08
5.58037e-06
6.65e-08
5.58611e-06
6.7748e-08
5.59137e-06
6.73809e-08
5.59626e-06
6.62003e-08
5.60091e-06
6.47636e-08
5.60535e-06
6.32758e-08
5.60964e-06
6.18754e-08
5.61393e-06
6.07198e-08
5.6184e-06
5.98863e-08
5.62325e-06
5.93154e-08
5.62869e-06
5.88056e-08
5.63488e-06
5.80392e-08
5.64181e-06
5.65868e-08
5.39952e-08
5.64925e-06
5.95243e-06
1.39457e-08
5.95836e-06
3.67201e-08
5.96486e-06
5.01661e-08
5.97113e-06
5.69011e-08
5.97725e-06
6.03754e-08
5.98312e-06
6.18801e-08
5.98861e-06
6.18878e-08
5.99379e-06
6.10279e-08
5.99873e-06
5.9816e-08
6.00352e-06
5.84927e-08
6.00821e-06
5.71865e-08
6.01292e-06
5.60056e-08
6.01782e-06
5.49913e-08
6.02306e-06
5.40753e-08
6.02878e-06
5.30817e-08
6.03506e-06
5.17585e-08
6.04184e-06
4.98043e-08
4.69542e-08
6.04888e-06
6.37903e-06
1.17312e-08
6.38431e-06
3.14337e-08
6.39052e-06
4.3957e-08
6.39673e-06
5.06888e-08
6.40288e-06
5.42312e-08
6.40887e-06
5.58916e-08
6.41458e-06
5.6173e-08
6.42003e-06
5.55778e-08
6.42529e-06
5.45573e-08
6.43042e-06
5.33612e-08
6.4355e-06
5.21127e-08
6.44061e-06
5.0888e-08
6.4459e-06
4.97056e-08
6.45147e-06
4.85018e-08
6.45742e-06
4.71359e-08
6.46375e-06
4.54234e-08
6.47039e-06
4.31646e-08
4.02251e-08
6.47712e-06
5.74246e-06
1.0109e-08
5.74649e-06
2.74038e-08
5.75149e-06
3.89526e-08
5.75668e-06
4.55003e-08
5.76189e-06
4.90253e-08
5.76703e-06
5.07473e-08
5.77202e-06
5.11841e-08
5.77683e-06
5.07621e-08
5.78152e-06
4.98733e-08
5.78612e-06
4.87592e-08
5.79069e-06
4.75389e-08
5.79531e-06
4.62721e-08
5.80005e-06
4.49674e-08
5.80498e-06
4.35708e-08
5.81014e-06
4.19734e-08
5.81552e-06
4.00426e-08
5.82104e-06
3.76445e-08
3.47216e-08
5.82655e-06
6.99979e-06
8.47427e-09
7.00398e-06
2.32153e-08
7.00943e-06
3.35051e-08
7.01528e-06
3.96515e-08
7.02125e-06
4.30537e-08
7.02723e-06
4.47665e-08
7.03311e-06
4.52996e-08
7.03886e-06
4.50152e-08
7.04449e-06
4.42397e-08
7.05006e-06
4.31935e-08
7.05561e-06
4.19895e-08
7.0612e-06
4.06774e-08
7.06691e-06
3.92624e-08
7.07277e-06
3.77054e-08
7.07881e-06
3.59325e-08
7.085e-06
3.38608e-08
7.09123e-06
3.14123e-08
2.85868e-08
7.09736e-06
8.53248e-06
6.84011e-09
8.53678e-06
1.89137e-08
8.54263e-06
2.76622e-08
8.54913e-06
3.31426e-08
8.55592e-06
3.62655e-08
8.56282e-06
3.78657e-08
8.56971e-06
3.84099e-08
8.57652e-06
3.82035e-08
8.58326e-06
3.75072e-08
8.58994e-06
3.65093e-08
8.59662e-06
3.5313e-08
8.60333e-06
3.39635e-08
8.61013e-06
3.24686e-08
8.61702e-06
3.08073e-08
8.62402e-06
2.89389e-08
8.63106e-06
2.68231e-08
8.63804e-06
2.4424e-08
2.17778e-08
8.64485e-06
1.04009e-05
5.20865e-09
1.04052e-05
1.45193e-08
1.04114e-05
2.14625e-08
1.04186e-05
2.59822e-08
1.04263e-05
2.86172e-08
1.04342e-05
2.99634e-08
1.04422e-05
3.04066e-08
1.04502e-05
3.01954e-08
1.04581e-05
2.95288e-08
1.04661e-05
2.85562e-08
1.0474e-05
2.73666e-08
1.0482e-05
2.60029e-08
1.049e-05
2.44791e-08
1.0498e-05
2.27915e-08
1.0506e-05
2.09265e-08
1.0514e-05
1.88752e-08
1.05218e-05
1.66292e-08
1.4243e-08
1.05293e-05
1.26784e-05
3.56696e-09
1.26829e-05
1.00125e-08
1.26895e-05
1.49056e-08
1.26973e-05
1.81604e-08
1.27059e-05
2.00579e-08
1.27149e-05
2.09717e-08
1.27241e-05
2.11786e-08
1.27334e-05
2.08633e-08
1.27428e-05
2.01668e-08
1.27521e-05
1.91971e-08
1.27615e-05
1.80244e-08
1.27708e-05
1.66875e-08
1.27801e-05
1.52052e-08
1.27893e-05
1.35864e-08
1.27984e-05
1.18355e-08
1.28073e-05
9.96182e-09
1.28159e-05
7.9703e-09
5.92117e-09
1.28243e-05
1.54549e-05
1.88217e-09
1.54596e-05
5.31233e-09
1.54666e-05
7.90976e-09
1.54751e-05
9.59936e-09
1.54847e-05
1.04917e-08
1.54949e-05
1.07724e-08
1.55055e-05
1.0596e-08
1.55163e-05
1.00732e-08
1.55271e-05
9.2887e-09
1.5538e-05
8.30788e-09
1.55489e-05
7.17666e-09
1.55596e-05
5.92404e-09
1.55703e-05
4.56821e-09
1.55807e-05
3.12228e-09
1.5591e-05
1.59777e-09
1.56009e-05
1.73472e-11
1.56105e-05
-1.62885e-09
-3.269e-09
1.56197e-05
1.88394e-05
8.36484e-11
1.88445e-05
2.24009e-10
1.88522e-05
2.31777e-10
1.88617e-05
6.35142e-11
1.88725e-05
-3.08648e-10
1.88842e-05
-8.53237e-10
1.88963e-05
-1.54815e-09
1.89087e-05
-2.36365e-09
1.89213e-05
-3.27383e-09
1.89339e-05
-4.25868e-09
1.89464e-05
-5.30278e-09
1.89587e-05
-6.39427e-09
1.89708e-05
-7.52388e-09
1.89826e-05
-8.68337e-09
1.8994e-05
-9.86468e-09
1.90051e-05
-1.10562e-08
1.90157e-05
-1.22525e-08
-1.34134e-08
1.90259e-05
2.29654e-05
-1.9976e-09
2.29713e-05
-5.69252e-09
2.29803e-05
-8.70374e-09
2.29914e-05
-1.1042e-08
2.30039e-05
-1.28728e-08
2.30175e-05
-1.43781e-08
2.30316e-05
-1.56702e-08
2.3046e-05
-1.6807e-08
2.30606e-05
-1.78295e-08
2.30751e-05
-1.87706e-08
2.30894e-05
-1.96512e-08
2.31035e-05
-2.04825e-08
2.31173e-05
-2.12711e-08
2.31306e-05
-2.20219e-08
2.31435e-05
-2.27389e-08
2.31559e-05
-2.34223e-08
2.31677e-05
-2.40755e-08
-2.46781e-08
2.31789e-05
1.68124e-05
-3.67609e-09
1.68171e-05
-1.03824e-08
1.6824e-05
-1.5627e-08
1.68324e-05
-1.94319e-08
1.68417e-05
-2.21916e-08
1.68516e-05
-2.42878e-08
1.68619e-05
-2.59231e-08
1.68723e-05
-2.72076e-08
1.68827e-05
-2.82344e-08
1.6893e-05
-2.90777e-08
1.69031e-05
-2.97817e-08
1.6913e-05
-3.03703e-08
1.69226e-05
-3.08603e-08
1.69318e-05
-3.12678e-08
1.69407e-05
-3.16079e-08
1.69492e-05
-3.18922e-08
1.69572e-05
-3.21334e-08
-3.23254e-08
1.69649e-05
1.46363e-05
-5.40913e-09
1.46411e-05
-1.51382e-08
1.46478e-05
-2.23803e-08
1.46557e-05
-2.7293e-08
1.46642e-05
-3.06839e-08
1.4673e-05
-3.31659e-08
1.46821e-05
-3.49935e-08
1.46912e-05
-3.63156e-08
1.47003e-05
-3.72798e-08
1.47092e-05
-3.7994e-08
1.47179e-05
-3.85116e-08
1.47264e-05
-3.88579e-08
1.47346e-05
-3.90546e-08
1.47425e-05
-3.91267e-08
1.47499e-05
-3.91009e-08
1.47571e-05
-3.90012e-08
1.47638e-05
-3.8851e-08
-3.86572e-08
1.47701e-05
1.27421e-05
-7.35441e-09
1.27472e-05
-2.0282e-08
1.27541e-05
-2.92362e-08
1.27616e-05
-3.48409e-08
1.27695e-05
-3.858e-08
1.27776e-05
-4.12562e-08
1.27857e-05
-4.31105e-08
1.27938e-05
-4.43453e-08
1.28017e-05
-4.51798e-08
1.28094e-05
-4.57449e-08
1.2817e-05
-4.60822e-08
1.28243e-05
-4.62033e-08
1.28314e-05
-4.61264e-08
1.28382e-05
-4.58826e-08
1.28446e-05
-4.55095e-08
1.28506e-05
-4.50443e-08
1.28563e-05
-4.45245e-08
-4.39758e-08
1.28616e-05
1.10933e-05
-9.70548e-09
1.10991e-05
-2.61028e-08
1.11062e-05
-3.62995e-08
1.11134e-05
-4.21113e-08
1.11208e-05
-4.598e-08
1.11283e-05
-4.87149e-08
1.11356e-05
-5.04617e-08
1.11428e-05
-5.15129e-08
1.11498e-05
-5.21758e-08
1.11567e-05
-5.25888e-08
1.11633e-05
-5.27618e-08
1.11698e-05
-5.26766e-08
1.1176e-05
-5.23398e-08
1.11819e-05
-5.17863e-08
1.11875e-05
-5.10645e-08
1.11927e-05
-5.02252e-08
1.11974e-05
-4.93151e-08
-4.83632e-08
1.12018e-05
9.65823e-06
-1.27196e-08
9.66498e-06
-3.28557e-08
9.67226e-06
-4.35788e-08
9.67923e-06
-4.90834e-08
9.68614e-06
-5.28823e-08
9.69293e-06
-5.55077e-08
9.69947e-06
-5.70036e-08
9.70576e-06
-5.78061e-08
9.71189e-06
-5.83005e-08
9.7179e-06
-5.86047e-08
9.72381e-06
-5.86718e-08
9.72957e-06
-5.84358e-08
9.73512e-06
-5.78842e-08
9.74039e-06
-5.70549e-08
9.74533e-06
-5.60101e-08
9.74992e-06
-5.48181e-08
9.75417e-06
-5.35619e-08
-5.23254e-08
9.75813e-06
8.40939e-06
-1.67567e-08
8.41712e-06
-4.05908e-08
8.42448e-06
-5.09299e-08
8.43124e-06
-5.58517e-08
8.43786e-06
-5.94969e-08
8.44416e-06
-6.18114e-08
8.45003e-06
-6.28714e-08
8.45555e-06
-6.3327e-08
8.46088e-06
-6.36276e-08
8.46612e-06
-6.38476e-08
8.4713e-06
-6.38503e-08
8.47636e-06
-6.34968e-08
8.48123e-06
-6.27501e-08
8.48582e-06
-6.16515e-08
8.49009e-06
-6.02743e-08
8.49397e-06
-5.87002e-08
8.49741e-06
-5.70013e-08
-5.51743e-08
8.50026e-06
7.32297e-06
-2.24456e-08
7.33155e-06
-4.91722e-08
7.33845e-06
-5.78231e-08
7.34469e-06
-6.20912e-08
7.3508e-06
-6.56079e-08
7.35649e-06
-6.75065e-08
7.36169e-06
-6.80634e-08
7.36651e-06
-6.81486e-08
7.37116e-06
-6.82819e-08
7.37581e-06
-6.84988e-08
7.38049e-06
-6.85327e-08
7.38514e-06
-6.81458e-08
7.38967e-06
-6.728e-08
7.394e-06
-6.59821e-08
7.39807e-06
-6.43446e-08
7.40184e-06
-6.24693e-08
7.40537e-06
-6.05234e-08
-5.86079e-08
7.4088e-06
6.37801e-06
-3.03856e-08
6.38777e-06
-5.89312e-08
6.39445e-06
-6.45032e-08
6.40049e-06
-6.81392e-08
6.40635e-06
-7.14695e-08
6.4118e-06
-7.29497e-08
6.41689e-06
-7.31534e-08
6.42178e-06
-7.30412e-08
6.42671e-06
-7.3214e-08
6.43189e-06
-7.36759e-08
6.43734e-06
-7.39781e-08
6.44295e-06
-7.37641e-08
6.44862e-06
-7.2942e-08
6.45419e-06
-7.15602e-08
6.45957e-06
-6.97251e-08
6.46469e-06
-6.75809e-08
6.4694e-06
-6.52331e-08
-6.26007e-08
6.47339e-06
5.55675e-06
-4.16739e-08
5.57029e-06
-7.24714e-08
5.58208e-06
-7.62892e-08
5.59497e-06
-8.10292e-08
5.6083e-06
-8.48048e-08
5.62151e-06
-8.61527e-08
5.63442e-06
-8.60621e-08
5.64701e-06
-8.5631e-08
5.65947e-06
-8.56829e-08
5.67197e-06
-8.61732e-08
5.68438e-06
-8.63821e-08
5.69642e-06
-8.58055e-08
5.70779e-06
-8.43121e-08
5.71818e-06
-8.19572e-08
5.72734e-06
-7.88858e-08
5.73512e-06
-7.53531e-08
5.74151e-06
-7.16297e-08
-6.8117e-08
5.74703e-06
4.88951e-06
-1.03574e-07
4.94075e-06
-1.23718e-07
4.98219e-06
-1.17728e-07
5.015e-06
-1.13841e-07
5.0389e-06
-1.08703e-07
5.0547e-06
-1.01945e-07
5.06324e-06
-9.46078e-08
5.06545e-06
-8.78439e-08
5.06242e-06
-8.26523e-08
5.05478e-06
-7.85345e-08
5.04263e-06
-7.42321e-08
5.02598e-06
-6.91513e-08
5.00487e-06
-6.31967e-08
4.9794e-06
-5.64907e-08
4.94976e-06
-4.92514e-08
4.91626e-06
-4.18516e-08
4.87935e-06
-3.47145e-08
-2.80915e-08
4.83932e-06
4.0991e-06
3.97538e-06
3.85766e-06
3.74382e-06
3.63511e-06
3.53317e-06
3.43856e-06
3.35072e-06
3.26806e-06
3.18953e-06
3.1153e-06
3.04614e-06
2.98295e-06
2.92646e-06
2.87721e-06
2.83535e-06
2.80064e-06
2.77255e-06
-8.01433e-09
8.01433e-09
-1.74212e-08
9.40688e-09
-2.77294e-08
1.03082e-08
-3.87636e-08
1.10341e-08
-5.03768e-08
1.16132e-08
-6.2452e-08
1.20752e-08
-7.49099e-08
1.24578e-08
-8.77058e-08
1.27959e-08
-1.00821e-07
1.3115e-08
-1.14253e-07
1.34319e-08
-1.28009e-07
1.37569e-08
-1.42106e-07
1.40962e-08
-1.56559e-07
1.4453e-08
-1.71388e-07
1.48291e-08
-1.86614e-07
1.52259e-08
-2.02258e-07
1.56444e-08
-2.18344e-07
1.60862e-08
-2.34899e-07
1.65551e-08
-2.51959e-07
1.70593e-08
-2.69574e-07
1.76156e-08
-2.87832e-07
1.82578e-08
-3.06879e-07
1.90465e-08
-3.26806e-07
1.99277e-08
-3.47539e-07
2.07329e-08
-3.68974e-07
2.1435e-08
-3.91093e-07
2.21184e-08
-4.13919e-07
2.28263e-08
-4.37486e-07
2.35667e-08
-4.61822e-07
2.43362e-08
-4.86948e-07
2.51265e-08
-5.12874e-07
2.59257e-08
-5.39594e-07
2.67202e-08
-5.67092e-07
2.74982e-08
-5.95343e-07
2.82512e-08
-6.24319e-07
2.89753e-08
-6.53989e-07
2.96704e-08
-6.84326e-07
3.03366e-08
-7.15299e-07
3.09728e-08
-7.46875e-07
3.15763e-08
-7.79018e-07
3.21436e-08
-8.1169e-07
3.26711e-08
-8.44844e-07
3.31548e-08
-8.78435e-07
3.35905e-08
-9.12409e-07
3.39744e-08
-9.46712e-07
3.4303e-08
-9.81286e-07
3.45742e-08
-1.01607e-06
3.47866e-08
-1.05101e-06
3.49392e-08
-1.08604e-06
3.50311e-08
-1.1211e-06
3.50614e-08
-1.15613e-06
3.50301e-08
-1.19107e-06
3.49373e-08
-1.22585e-06
3.47822e-08
-1.26042e-06
3.45625e-08
-1.29469e-06
3.42752e-08
-1.32861e-06
3.39181e-08
-1.3621e-06
3.34927e-08
-1.39511e-06
3.301e-08
-1.42761e-06
3.24997e-08
-1.4596e-06
3.19896e-08
-1.49107e-06
3.1472e-08
-1.522e-06
3.09251e-08
-1.55234e-06
3.0343e-08
-1.58207e-06
2.97262e-08
-1.61114e-06
2.90761e-08
-1.63954e-06
2.8394e-08
-1.66722e-06
2.76812e-08
-1.69416e-06
2.69394e-08
-1.72033e-06
2.61704e-08
-1.74571e-06
2.53761e-08
-1.77026e-06
2.45585e-08
-1.79398e-06
2.37192e-08
-1.81684e-06
2.28594e-08
-1.83882e-06
2.198e-08
-1.8599e-06
2.10816e-08
-1.88007e-06
2.01643e-08
-1.8993e-06
1.92284e-08
-1.91757e-06
1.82759e-08
-1.93488e-06
1.73101e-08
-1.95122e-06
1.63344e-08
-1.96657e-06
1.53505e-08
-1.98093e-06
1.43601e-08
-1.99429e-06
1.3365e-08
-2.00666e-06
1.23669e-08
-2.01803e-06
1.1368e-08
-2.0284e-06
1.03697e-08
-2.03777e-06
9.37258e-09
-2.04615e-06
8.3756e-09
-2.05352e-06
7.37731e-09
-2.0599e-06
6.37752e-09
-2.06528e-06
5.38116e-09
-2.06968e-06
4.40114e-09
-2.07312e-06
3.43661e-09
-2.07558e-06
2.46012e-09
-2.07703e-06
1.45129e-09
-2.07747e-06
4.36871e-10
-2.0769e-06
-5.70144e-10
-2.07539e-06
-1.5081e-09
-2.07301e-06
-2.37594e-09
-2.06979e-06
-3.2192e-09
-2.06575e-06
-4.04412e-09
-2.0609e-06
-4.85087e-09
-2.05526e-06
-5.63974e-09
-2.04885e-06
-6.41142e-09
-2.04168e-06
-7.1669e-09
-2.03377e-06
-7.90807e-09
-2.02514e-06
-8.63669e-09
-2.01578e-06
-9.35376e-09
-2.00572e-06
-1.00597e-08
-1.99497e-06
-1.07549e-08
-1.98353e-06
-1.14399e-08
-1.97141e-06
-1.21159e-08
-1.95863e-06
-1.27839e-08
-1.94518e-06
-1.34457e-08
-1.93108e-06
-1.41037e-08
-1.91632e-06
-1.47618e-08
-1.90089e-06
-1.54259e-08
-1.88479e-06
-1.61044e-08
-1.86798e-06
-1.68061e-08
-1.85045e-06
-1.7529e-08
-1.83222e-06
-1.82345e-08
-1.81337e-06
-1.88464e-08
-1.79399e-06
-1.93794e-08
-1.7741e-06
-1.98933e-08
-1.75371e-06
-2.03886e-08
-1.73285e-06
-2.0864e-08
-1.71153e-06
-2.13207e-08
-1.68976e-06
-2.17625e-08
-1.66757e-06
-2.21932e-08
-1.64495e-06
-2.26146e-08
-1.62193e-06
-2.30278e-08
-1.59849e-06
-2.34341e-08
-1.57466e-06
-2.38344e-08
-1.55043e-06
-2.42289e-08
-1.52581e-06
-2.46177e-08
-1.50081e-06
-2.50032e-08
-1.47542e-06
-2.53901e-08
-1.44964e-06
-2.57824e-08
-1.42345e-06
-2.61841e-08
-1.39685e-06
-2.66005e-08
-1.36982e-06
-2.70362e-08
-1.34232e-06
-2.74931e-08
-1.31435e-06
-2.79721e-08
-1.28587e-06
-2.84756e-08
-1.25687e-06
-2.90079e-08
-1.22729e-06
-2.95732e-08
-1.19712e-06
-3.01746e-08
-1.1663e-06
-3.08146e-08
-1.13481e-06
-3.14948e-08
-1.1026e-06
-3.22144e-08
-1.06963e-06
-3.29684e-08
-1.03588e-06
-3.37502e-08
-1.00132e-06
-3.45555e-08
-9.6594e-07
-3.53806e-08
-9.29718e-07
-3.62221e-08
-8.9264e-07
-3.70788e-08
-8.54687e-07
-3.79527e-08
-8.15842e-07
-3.88446e-08
-7.76091e-07
-3.97512e-08
-7.35424e-07
-4.06675e-08
-6.93835e-07
-4.15882e-08
-6.51329e-07
-4.25067e-08
-6.07914e-07
-4.34149e-08
-5.63609e-07
-4.43051e-08
-5.18436e-07
-4.51727e-08
-4.72417e-07
-4.60192e-08
-4.25561e-07
-4.68555e-08
-3.77856e-07
-4.77052e-08
-3.29255e-07
-4.86009e-08
-2.79696e-07
-4.95596e-08
-2.29219e-07
-5.0477e-08
-1.78487e-07
-5.07317e-08
-1.30099e-07
-4.83876e-08
-8.55702e-08
-4.45291e-08
-4.20842e-08
-4.3486e-08
2.19529e-09
-4.42794e-08
4.59175e-08
-4.37222e-08
8.75747e-08
-4.16572e-08
1.27814e-07
-4.02392e-08
-3.33669e-08
1.61181e-07
-9.59686e-09
1.76112e-08
-1.98416e-08
1.96516e-08
-3.09004e-08
2.13671e-08
-4.26284e-08
2.27621e-08
-5.49439e-08
2.39288e-08
-6.77881e-08
2.49194e-08
-8.11099e-08
2.57797e-08
-9.48688e-08
2.65548e-08
-1.09037e-07
2.72833e-08
-1.23601e-07
2.79954e-08
-1.38558e-07
2.87143e-08
-1.53919e-07
2.94568e-08
-1.69702e-07
3.02361e-08
-1.85934e-07
3.10617e-08
-2.0265e-07
3.19415e-08
-2.19888e-07
3.2882e-08
-2.37691e-07
3.38898e-08
-2.56108e-07
3.49719e-08
-2.75186e-07
3.61369e-08
-2.94965e-07
3.73951e-08
-3.15466e-07
3.87585e-08
-3.36653e-07
4.02332e-08
-3.58516e-07
4.17913e-08
-3.81152e-07
4.33686e-08
-4.04648e-07
4.49311e-08
-4.2902e-07
4.64903e-08
-4.54256e-07
4.80626e-08
-4.80344e-07
4.96547e-08
-5.07272e-07
5.12641e-08
-5.35028e-07
5.28824e-08
-5.63599e-07
5.44968e-08
-5.92971e-07
5.60925e-08
-6.23128e-07
5.76553e-08
-6.5405e-07
5.91731e-08
-6.85712e-07
6.06368e-08
-7.18081e-07
6.20397e-08
-7.51121e-07
6.3376e-08
-7.84787e-07
6.46398e-08
-8.19035e-07
6.58242e-08
-8.53814e-07
6.69222e-08
-8.89069e-07
6.79264e-08
-9.24744e-07
6.88294e-08
-9.60778e-07
6.96244e-08
-9.97108e-07
7.0305e-08
-1.03367e-06
7.08661e-08
-1.0704e-06
7.13036e-08
-1.10723e-06
7.16148e-08
-1.14409e-06
7.1798e-08
-1.18091e-06
7.18522e-08
-1.21762e-06
7.17771e-08
-1.25417e-06
7.15734e-08
-1.29047e-06
7.12422e-08
-1.32648e-06
7.0785e-08
-1.36212e-06
7.0204e-08
-1.39734e-06
6.95025e-08
-1.43211e-06
6.86864e-08
-1.46639e-06
6.77656e-08
-1.50013e-06
6.67561e-08
-1.53331e-06
6.56783e-08
-1.56587e-06
6.45467e-08
-1.59776e-06
6.336e-08
-1.62894e-06
6.21105e-08
-1.65939e-06
6.07956e-08
-1.68908e-06
5.94167e-08
-1.71798e-06
5.79761e-08
-1.74607e-06
5.64767e-08
-1.77331e-06
5.49216e-08
-1.79968e-06
5.33142e-08
-1.82517e-06
5.16576e-08
-1.84975e-06
4.99552e-08
-1.8734e-06
4.821e-08
-1.8961e-06
4.64246e-08
-1.91785e-06
4.46015e-08
-1.93861e-06
4.27426e-08
-1.95838e-06
4.085e-08
-1.97714e-06
3.89258e-08
-1.99488e-06
3.69727e-08
-2.0116e-06
3.49942e-08
-2.02729e-06
3.29948e-08
-2.04193e-06
3.09789e-08
-2.05553e-06
2.89508e-08
-2.06809e-06
2.69145e-08
-2.0796e-06
2.48744e-08
-2.09006e-06
2.28348e-08
-2.09949e-06
2.07997e-08
-2.1079e-06
1.87726e-08
-2.11528e-06
1.6756e-08
-2.12166e-06
1.47515e-08
-2.12704e-06
1.27607e-08
-2.13145e-06
1.07855e-08
-2.1349e-06
8.82959e-09
-2.13739e-06
6.89702e-09
-2.13894e-06
4.98537e-09
-2.13957e-06
3.086e-09
-2.13931e-06
1.19706e-09
-2.13822e-06
-6.53356e-10
-2.13634e-06
-2.45438e-09
-2.13362e-06
-4.23019e-09
-2.13002e-06
-5.97217e-09
-2.12556e-06
-7.68172e-09
-2.12024e-06
-9.35851e-09
-2.11409e-06
-1.1002e-08
-2.10712e-06
-1.26119e-08
-2.09934e-06
-1.41885e-08
-2.09078e-06
-1.5733e-08
-2.08144e-06
-1.72473e-08
-2.07134e-06
-1.87332e-08
-2.0605e-06
-2.01927e-08
-2.04893e-06
-2.16273e-08
-2.03665e-06
-2.30386e-08
-2.02366e-06
-2.44284e-08
-2.00998e-06
-2.5799e-08
-1.99561e-06
-2.71527e-08
-1.98056e-06
-2.84927e-08
-1.96484e-06
-2.98224e-08
-1.94846e-06
-3.11463e-08
-1.93142e-06
-3.24693e-08
-1.91373e-06
-3.37952e-08
-1.89541e-06
-3.51239e-08
-1.87649e-06
-3.64429e-08
-1.85701e-06
-3.77145e-08
-1.83697e-06
-3.88922e-08
-1.81636e-06
-3.99871e-08
-1.79522e-06
-4.10357e-08
-1.77356e-06
-4.2046e-08
-1.7514e-06
-4.30217e-08
-1.72876e-06
-4.39665e-08
-1.70563e-06
-4.48852e-08
-1.68205e-06
-4.57823e-08
-1.658e-06
-4.66609e-08
-1.6335e-06
-4.75237e-08
-1.60856e-06
-4.83732e-08
-1.58319e-06
-4.92115e-08
-1.55738e-06
-5.00401e-08
-1.53113e-06
-5.08614e-08
-1.50446e-06
-5.16798e-08
-1.47734e-06
-5.25019e-08
-1.44979e-06
-5.33342e-08
-1.42179e-06
-5.41835e-08
-1.39334e-06
-5.50573e-08
-1.36441e-06
-5.59617e-08
-1.335e-06
-5.69011e-08
-1.3051e-06
-5.7879e-08
-1.27467e-06
-5.88996e-08
-1.24371e-06
-5.99683e-08
-1.21219e-06
-6.10905e-08
-1.1801e-06
-6.22708e-08
-1.1474e-06
-6.35127e-08
-1.11408e-06
-6.48171e-08
-1.08011e-06
-6.61816e-08
-1.04548e-06
-6.75999e-08
-1.01017e-06
-6.9064e-08
-9.74154e-07
-7.05673e-08
-9.3743e-07
-7.2104e-08
-8.99982e-07
-7.36705e-08
-8.61795e-07
-7.52653e-08
-8.2286e-07
-7.68877e-08
-7.83169e-07
-7.85356e-08
-7.42718e-07
-8.02021e-08
-7.01509e-07
-8.18772e-08
-6.59546e-07
-8.35508e-08
-6.16842e-07
-8.52105e-08
-5.73416e-07
-8.68411e-08
-5.29293e-07
-8.84279e-08
-4.84506e-07
-8.99604e-08
-4.39088e-07
-9.1437e-08
-3.93075e-07
-9.28681e-08
-3.46504e-07
-9.4276e-08
-2.99425e-07
-9.56799e-08
-2.51942e-07
-9.70431e-08
-2.04324e-07
-9.80949e-08
-1.57246e-07
-9.78097e-08
-1.11067e-07
-9.45664e-08
-6.52751e-08
-9.03213e-08
-1.95307e-08
-8.92304e-08
2.59933e-08
-8.98034e-08
7.13114e-08
-8.90404e-08
1.16258e-07
-8.66034e-08
1.60373e-07
-8.43549e-08
-7.65681e-08
2.03575e-07
-1.061e-08
2.82212e-08
-2.18292e-08
3.08707e-08
-3.35379e-08
3.30759e-08
-4.5826e-08
3.50502e-08
-5.86915e-08
3.67943e-08
-7.21052e-08
3.83331e-08
-8.60341e-08
3.97086e-08
-1.00449e-07
4.09694e-08
-1.15328e-07
4.21624e-08
-1.3066e-07
4.3328e-08
-1.46446e-07
4.44997e-08
-1.62694e-07
4.57045e-08
-1.79421e-07
4.69639e-08
-1.96655e-07
4.82949e-08
-2.14424e-07
4.9711e-08
-2.32765e-07
5.12229e-08
-2.51715e-07
5.28393e-08
-2.7131e-07
5.45674e-08
-2.91586e-07
5.64127e-08
-3.12569e-07
5.83782e-08
-3.34273e-07
6.04627e-08
-3.56696e-07
6.26563e-08
-3.79839e-07
6.49342e-08
-4.03733e-07
6.72625e-08
-4.28419e-07
6.96167e-08
-4.53917e-07
7.19887e-08
-4.80231e-07
7.43762e-08
-5.07351e-07
7.67752e-08
-5.35264e-07
7.91772e-08
-5.63952e-07
8.15701e-08
-5.93394e-07
8.39387e-08
-6.23568e-07
8.62668e-08
-6.54451e-07
8.85384e-08
-6.86017e-07
9.07388e-08
-7.18235e-07
9.28547e-08
-7.51069e-07
9.48742e-08
-7.84479e-07
9.67861e-08
-8.18419e-07
9.85794e-08
-8.52838e-07
1.00243e-07
-8.87681e-07
1.01766e-07
-9.22892e-07
1.03137e-07
-9.58409e-07
1.04347e-07
-9.94171e-07
1.05386e-07
-1.03011e-06
1.06248e-07
-1.06617e-06
1.06924e-07
-1.10228e-06
1.07412e-07
-1.13837e-06
1.07707e-07
-1.17438e-06
1.07808e-07
-1.21025e-06
1.07716e-07
-1.2459e-06
1.07431e-07
-1.28128e-06
1.06957e-07
-1.31634e-06
1.06298e-07
-1.35101e-06
1.05459e-07
-1.38525e-06
1.04446e-07
-1.41902e-06
1.0327e-07
-1.45227e-06
1.01939e-07
-1.48498e-06
1.00468e-07
-1.51709e-06
9.88723e-08
-1.54858e-06
9.71669e-08
-1.5794e-06
9.53623e-08
-1.6095e-06
9.34617e-08
-1.63885e-06
9.14662e-08
-1.66744e-06
8.93783e-08
-1.69522e-06
8.72019e-08
-1.72219e-06
8.49413e-08
-1.74831e-06
8.26014e-08
-1.77358e-06
8.0187e-08
-1.79797e-06
7.77028e-08
-1.82146e-06
7.51534e-08
-1.84405e-06
7.25431e-08
-1.86572e-06
6.98759e-08
-1.88645e-06
6.71553e-08
-1.90623e-06
6.43846e-08
-1.92505e-06
6.15668e-08
-1.94291e-06
5.87048e-08
-1.95979e-06
5.58022e-08
-1.97568e-06
5.28626e-08
-1.99057e-06
4.98908e-08
-2.00447e-06
4.68922e-08
-2.01736e-06
4.38725e-08
-2.02925e-06
4.08379e-08
-2.04013e-06
3.77948e-08
-2.05001e-06
3.47501e-08
-2.05888e-06
3.17106e-08
-2.06676e-06
2.86826e-08
-2.07366e-06
2.5672e-08
-2.07959e-06
2.26833e-08
-2.08456e-06
1.97201e-08
-2.08858e-06
1.67848e-08
-2.09168e-06
1.38795e-08
-2.09385e-06
1.1006e-08
-2.09512e-06
8.16524e-09
-2.09549e-06
5.35576e-09
-2.09498e-06
2.57692e-09
-2.09361e-06
-1.80378e-10
-2.09139e-06
-2.87202e-09
-2.08831e-06
-5.53376e-09
-2.08438e-06
-8.16199e-09
-2.0796e-06
-1.07538e-08
-2.07397e-06
-1.33044e-08
-2.06752e-06
-1.58096e-08
-2.06026e-06
-1.82666e-08
-2.05219e-06
-2.06741e-08
-2.04335e-06
-2.30318e-08
-2.03374e-06
-2.53407e-08
-2.02339e-06
-2.76028e-08
-2.0123e-06
-2.98205e-08
-2.0005e-06
-3.19964e-08
-1.98799e-06
-3.4133e-08
-1.9748e-06
-3.62331e-08
-1.96093e-06
-3.82996e-08
-1.94639e-06
-4.03354e-08
-1.9312e-06
-4.23436e-08
-1.91536e-06
-4.43276e-08
-1.8989e-06
-4.62907e-08
-1.88181e-06
-4.82362e-08
-1.86411e-06
-5.01664e-08
-1.84582e-06
-5.20809e-08
-1.82697e-06
-5.39747e-08
-1.80758e-06
-5.58332e-08
-1.78767e-06
-5.76293e-08
-1.76722e-06
-5.93374e-08
-1.74624e-06
-6.09638e-08
-1.72475e-06
-6.25289e-08
-1.70276e-06
-6.40417e-08
-1.68027e-06
-6.55085e-08
-1.6573e-06
-6.69344e-08
-1.63386e-06
-6.83248e-08
-1.60996e-06
-6.96843e-08
-1.5856e-06
-7.1017e-08
-1.5608e-06
-7.23265e-08
-1.53556e-06
-7.36162e-08
-1.50988e-06
-7.48893e-08
-1.48377e-06
-7.61489e-08
-1.45723e-06
-7.7399e-08
-1.43027e-06
-7.86453e-08
-1.40287e-06
-7.98955e-08
-1.37505e-06
-8.11577e-08
-1.34679e-06
-8.24403e-08
-1.3181e-06
-8.37518e-08
-1.28896e-06
-8.50997e-08
-1.25937e-06
-8.64899e-08
-1.22932e-06
-8.79276e-08
-1.1988e-06
-8.94185e-08
-1.1678e-06
-9.09687e-08
-1.13631e-06
-9.25843e-08
-1.10431e-06
-9.42712e-08
-1.07179e-06
-9.60338e-08
-1.03873e-06
-9.7873e-08
-1.00513e-06
-9.97861e-08
-9.70962e-07
-1.01767e-07
-9.36219e-07
-1.03807e-07
-9.00888e-07
-1.05898e-07
-8.64956e-07
-1.08035e-07
-8.28412e-07
-1.10215e-07
-7.91243e-07
-1.12435e-07
-7.53436e-07
-1.14694e-07
-7.14983e-07
-1.16989e-07
-6.75876e-07
-1.19309e-07
-6.36111e-07
-1.21642e-07
-5.95688e-07
-1.23974e-07
-5.54606e-07
-1.26292e-07
-5.12871e-07
-1.28576e-07
-4.70492e-07
-1.30807e-07
-4.27481e-07
-1.32971e-07
-3.83853e-07
-1.35065e-07
-3.39628e-07
-1.37093e-07
-2.94836e-07
-1.39068e-07
-2.49534e-07
-1.40982e-07
-2.03846e-07
-1.42731e-07
-1.57999e-07
-1.43941e-07
-1.12203e-07
-1.43606e-07
-6.61363e-08
-1.40633e-07
-1.94605e-08
-1.36997e-07
2.73096e-08
-1.36001e-07
7.38961e-08
-1.3639e-07
1.20538e-07
-1.35682e-07
1.67289e-07
-1.33355e-07
2.13958e-07
-1.31024e-07
-1.23627e-07
2.61017e-07
-1.17225e-08
3.99437e-08
-2.37242e-08
4.28725e-08
-3.60807e-08
4.54324e-08
-4.894e-08
4.79095e-08
-6.23479e-08
5.02022e-08
-7.63068e-08
5.22919e-08
-9.08028e-08
5.42046e-08
-1.05819e-07
5.59855e-08
-1.21341e-07
5.76846e-08
-1.37362e-07
5.93486e-08
-1.53881e-07
6.10188e-08
-1.70906e-07
6.27296e-08
-1.88451e-07
6.45093e-08
-2.06537e-07
6.63805e-08
-2.25187e-07
6.83607e-08
-2.44426e-07
7.04628e-08
-2.64283e-07
7.26957e-08
-2.8478e-07
7.50645e-08
-3.05938e-07
7.75705e-08
-3.2777e-07
8.02105e-08
-3.50284e-07
8.29765e-08
-3.73481e-07
8.58536e-08
-3.97367e-07
8.88202e-08
-4.21956e-07
9.18511e-08
-4.47264e-07
9.49244e-08
-4.73299e-07
9.80239e-08
-5.00059e-07
1.01136e-07
-5.27533e-07
1.04249e-07
-5.55703e-07
1.07347e-07
-5.84548e-07
1.10415e-07
-6.14043e-07
1.13433e-07
-6.44161e-07
1.16385e-07
-6.74872e-07
1.1925e-07
-7.06146e-07
1.22013e-07
-7.37945e-07
1.24654e-07
-7.70229e-07
1.27158e-07
-8.02953e-07
1.29509e-07
-8.36065e-07
1.31692e-07
-8.69513e-07
1.33691e-07
-9.0324e-07
1.35492e-07
-9.37186e-07
1.37083e-07
-9.7129e-07
1.38451e-07
-1.00549e-06
1.39586e-07
-1.03972e-06
1.40479e-07
-1.07392e-06
1.41125e-07
-1.10803e-06
1.41519e-07
-1.14198e-06
1.4166e-07
-1.17572e-06
1.41547e-07
-1.20919e-06
1.41183e-07
-1.24233e-06
1.40572e-07
-1.27509e-06
1.39721e-07
-1.30743e-06
1.38636e-07
-1.3393e-06
1.37329e-07
-1.37066e-06
1.35809e-07
-1.40148e-06
1.34089e-07
-1.43173e-06
1.32184e-07
-1.46137e-06
1.30107e-07
-1.49037e-06
1.27875e-07
-1.5187e-06
1.255e-07
-1.54634e-06
1.22995e-07
-1.57324e-06
1.20367e-07
-1.5994e-06
1.17622e-07
-1.62479e-06
1.14767e-07
-1.64939e-06
1.11808e-07
-1.6732e-06
1.08752e-07
-1.69621e-06
1.05605e-07
-1.71839e-06
1.02372e-07
-1.73975e-06
9.90606e-08
-1.76027e-06
9.56752e-08
-1.77995e-06
9.22208e-08
-1.79878e-06
8.8702e-08
-1.81674e-06
8.51225e-08
-1.83384e-06
8.1486e-08
-1.85007e-06
7.77954e-08
-1.86542e-06
7.40539e-08
-1.87988e-06
7.0265e-08
-1.89345e-06
6.64327e-08
-1.90613e-06
6.25618e-08
-1.91789e-06
5.86582e-08
-1.92875e-06
5.47284e-08
-1.93869e-06
5.07802e-08
-1.94772e-06
4.68218e-08
-1.95583e-06
4.28622e-08
-1.96303e-06
3.89106e-08
-1.96932e-06
3.4976e-08
-1.97472e-06
3.10663e-08
-1.97922e-06
2.71883e-08
-1.98285e-06
2.33466e-08
-1.98561e-06
1.95442e-08
-1.98751e-06
1.57821e-08
-1.98856e-06
1.20603e-08
-1.98878e-06
8.37757e-09
-1.98815e-06
4.73228e-09
-1.9867e-06
1.12373e-09
-1.98443e-06
-2.44708e-09
-1.98134e-06
-5.96847e-09
-1.97742e-06
-9.44954e-09
-1.97269e-06
-1.28914e-08
-1.96716e-06
-1.62885e-08
-1.96083e-06
-1.96337e-08
-1.95372e-06
-2.29207e-08
-1.94584e-06
-2.6145e-08
-1.93721e-06
-2.9304e-08
-1.92784e-06
-3.2397e-08