/*--------------------------------*- C++ -*----------------------------------*\
| =========                 |                                                 |
| \\      /  F ield         | OpenFOAM: The Open Source CFD Toolbox           |
|  \\    /   O peration     | Version:  2112                                  |
|   \\  /    A nd           | Website:  www.openfoam.com                      |
|    \\/     M anipulation  |                                                 |
\*---------------------------------------------------------------------------*/
FoamFile
{
    version     2.0;
    format      ascii;
    arch        "LSB;label=32;scalar=64";
    class       volScalarField;
    location    "0.4";
    object      ddt0(omegaU);
}
// * * * * * * * * * * * * * * * * * * * * * * * * * * * * * * * * * * * * * //

dimensions      [0 0 -2 0 0 0 0];

internalField   nonuniform List<scalar> 
12225
(
-0.00140631
-0.0186449
-0.0626644
-0.136786
-0.239372
-0.367928
-0.524177
-0.716042
-0.955334
-1.25509
-1.62603
-2.07581
-2.59966
-3.222
-3.86623
-4.7433
-5.50826
-6.37087
0.0108198
0.0407454
0.0777014
0.112196
0.137543
0.156616
0.175907
0.202658
0.241248
0.293083
0.354438
0.415241
0.461952
0.46008
0.344079
-0.130204
-1.40962
-10.0985
0.00172297
0.0075031
0.0215715
0.0424521
0.0679696
0.0949107
0.123194
0.157021
0.197342
0.24679
0.30715
0.378092
0.461378
0.548344
0.630706
0.581581
0.350379
-1.06709
0.000321912
0.0023628
0.0047893
0.00849691
0.0142409
0.0233947
0.0362351
0.0514313
0.0705853
0.0940246
0.125819
0.162208
0.205569
0.256485
0.316388
0.352933
0.374281
0.194311
4.49484e-05
0.000368584
0.00142246
0.00320919
0.00509339
0.00733891
0.00993873
0.0125616
0.0154333
0.0185378
0.0192667
0.0206147
0.0227246
0.0370393
0.0558687
0.0762872
0.0794085
0.0727825
6.08764e-06
2.51435e-05
0.000195304
0.000541575
0.00128545
0.00212861
0.00303396
0.00396036
0.00486648
0.0057798
0.00614603
0.00686299
0.00831059
0.00318896
-0.00105918
-0.00388737
0.0133836
0.0416449
4.04604e-06
-7.19534e-06
-1.63848e-05
-1.06507e-05
0.00014504
0.000340276
0.000577034
0.000850703
0.00116487
0.00155707
0.00209708
0.00294383
0.0043948
0.00440773
0.00486054
0.00607148
0.0138966
0.0270018
5.25735e-06
-4.84193e-06
-2.81677e-05
-5.8667e-05
-7.29368e-05
-7.23649e-05
-7.29659e-05
-6.90696e-05
-5.42926e-05
-1.53126e-05
7.58051e-05
0.0002636
0.000625031
0.00114764
0.00187411
0.00284998
0.00431561
0.0066493
6.1798e-06
-5.69336e-07
-2.08564e-05
-5.18289e-05
-8.67501e-05
-0.000120124
-0.000157236
-0.000199441
-0.000248445
-0.000299081
-0.000349223
-0.000391461
-0.000420233
-0.00043582
-0.000455059
-0.000508494
-0.000629819
-0.0007719
6.66517e-06
2.71973e-06
-1.35179e-05
-4.08392e-05
-7.70384e-05
-0.000115556
-0.00015145
-0.00018342
-0.00021936
-0.000257185
-0.000296622
-0.00034543
-0.000406493
-0.000482728
-0.000587409
-0.00073902
-0.00095074
-0.001189
6.8142e-06
5.07732e-06
-7.38908e-06
-3.00871e-05
-6.20724e-05
-0.000100567
-0.000138689
-0.000171034
-0.000194092
-0.000205692
-0.000204792
-0.000206749
-0.000214891
-0.000233377
-0.000262668
-0.000298547
-0.000331888
-0.000321551
6.656e-06
6.40968e-06
-3.02126e-06
-2.1485e-05
-4.82882e-05
-8.17277e-05
-0.000118301
-0.000152663
-0.000176457
-0.000186074
-0.00017682
-0.000144305
-9.22014e-05
-3.71111e-05
2.41898e-05
0.000101913
0.000216315
0.000407492
6.3027e-06
7.0673e-06
1.86667e-07
-1.44029e-05
-3.60537e-05
-6.3349e-05
-9.33801e-05
-0.000122336
-0.000144944
-0.000155387
-0.000147875
-0.000113152
-4.75791e-05
5.23173e-05
0.000185878
0.000348405
0.00055843
0.000848573
5.68868e-06
7.19634e-06
2.77158e-06
-7.77523e-06
-2.38114e-05
-4.39915e-05
-6.57693e-05
-8.56937e-05
-9.90245e-05
-0.000100292
-8.44787e-05
-4.57367e-05
2.33654e-05
0.000133606
0.000290724
0.00050064
0.000773217
0.00112269
4.756e-06
6.60826e-06
4.3263e-06
-2.25455e-06
-1.2498e-05
-2.50836e-05
-3.77232e-05
-4.71642e-05
-4.91131e-05
-3.85358e-05
-1.01862e-05
4.18522e-05
0.000123718
0.000242583
0.00040735
0.000628844
0.000918035
0.00128104
3.48457e-06
5.24728e-06
4.67236e-06
1.78025e-06
-2.76382e-06
-7.69892e-06
-1.10183e-05
-9.89379e-06
-6.73957e-07
2.09607e-05
5.97293e-05
0.000120703
0.000209131
0.000331183
0.000492207
0.000698178
0.000955229
0.00126883
1.90329e-06
3.18141e-06
3.83713e-06
4.17879e-06
4.90651e-06
7.12782e-06
1.24152e-05
2.28619e-05
4.11715e-05
7.03058e-05
0.000113532
0.000174191
0.000255543
0.000360248
0.000491565
0.000651842
0.000843606
0.00106638
1.18463e-07
6.59209e-07
2.17631e-06
5.26442e-06
1.05954e-05
1.89557e-05
3.12369e-05
4.84362e-05
7.1596e-05
0.000101985
0.000140825
0.000189262
0.00024828
0.00031863
0.0004008
0.000494833
0.000600877
0.000717244
-1.61719e-06
-1.78862e-06
4.66857e-07
5.89852e-06
1.49808e-05
2.79558e-05
4.47689e-05
6.50485e-05
8.81695e-05
0.000113344
0.000139701
0.000166352
0.000192445
0.000217196
0.000239908
0.000259916
0.000276883
0.000289904
-2.743e-06
-3.17872e-06
-1.00783e-07
7.13119e-06
1.86015e-05
3.39151e-05
5.20844e-05
7.15175e-05
9.01657e-05
0.000105738
0.000115928
0.000118627
0.000112092
9.50406e-05
6.66749e-05
2.665e-05
-2.48311e-05
-8.73612e-05
-3.26009e-06
-3.5192e-06
4.66757e-07
9.00177e-06
2.16958e-05
3.75654e-05
5.4852e-05
7.10475e-05
8.31339e-05
8.78907e-05
8.2226e-05
6.34898e-05
2.97032e-05
-2.03363e-05
-8.70571e-05
-0.000170181
-0.000268767
-0.000381258
-3.42017e-06
-3.15652e-06
1.87253e-06
1.14289e-05
2.46101e-05
3.9874e-05
5.47664e-05
6.60347e-05
6.99575e-05
6.27219e-05
4.08331e-05
1.50531e-06
-5.70812e-05
-0.000135694
-0.000234101
-0.000351185
-0.000485098
-0.00063311
-3.30394e-06
-2.18879e-06
3.97681e-06
1.42457e-05
2.72326e-05
4.08823e-05
5.21849e-05
5.74753e-05
5.28514e-05
3.45958e-05
-3.50537e-07
-5.39321e-05
-0.000126752
-0.00021807
-0.000325928
-0.00044735
-0.00057863
-0.00071514
-2.93014e-06
-5.94522e-07
6.77425e-06
1.74901e-05
3.01045e-05
4.287e-05
5.38042e-05
6.14279e-05
6.52755e-05
6.62459e-05
6.69018e-05
7.17891e-05
8.71271e-05
0.000120383
0.00017993
0.000274764
0.000414117
0.000606939
-2.27126e-06
1.64162e-06
1.00037e-05
2.11445e-05
3.6924e-05
6.47088e-05
0.000117637
0.000215586
0.000384829
0.000656817
0.00106642
0.00165072
0.0024407
0.00346632
0.00475432
0.00632922
0.00821383
0.0104248
-2.37247e-06
-2.04319e-06
-4.61758e-06
-5.1434e-06
1.45493e-05
0.000145773
0.000495247
0.00120565
0.00244906
0.00441669
0.00730358
0.011298
0.0163683
0.0226791
0.0303002
0.0393236
0.0498492
0.0619442
-3.01405e-05
-0.000114157
-0.000297737
-0.000531042
-0.000712037
-0.000160834
0.00171314
0.00566297
0.0125295
0.0231649
0.0383501
0.0586824
0.0835419
0.113636
0.148921
0.189518
0.235549
0.286923
-0.000460161
-0.00157803
-0.00350597
-0.00545019
-0.00543754
-0.0019443
0.00728513
0.0241094
0.0498126
0.085191
0.130682
0.186805
0.2554
0.335593
0.42687
0.528021
0.637471
0.753507
-0.00237267
-0.00963798
-0.0166284
-0.0175669
-0.00881961
0.011091
0.0418642
0.0823715
0.13092
0.185555
0.244377
0.306288
0.37131
0.439309
0.510431
0.584884
0.662768
0.742998
0.000367004
0.00541245
0.017092
0.0345099
0.0541954
0.0721652
0.084553
0.0880406
0.0803249
0.0602743
0.0279006
-0.0163454
-0.0726797
-0.141666
-0.223622
-0.318741
-0.427285
-0.549854
-14.3954
-24.9298
-39.2548
-52.5775
-62.9474
-70.2817
-75.1183
-78.1986
-80.2533
-81.9059
-83.6665
-85.9986
-89.398
-94.1504
-99.2819
-104.731
-110.471
-116.185
-122.249
-128.859
-136.001
-143.613
-151.645
-160.055
-168.801
-177.834
-187.103
-196.557
-206.146
-215.819
-225.527
-235.22
-244.851
-254.367
-263.719
-272.854
-281.719
-290.257
-298.412
-306.128
-313.347
-320.01
-326.061
-331.445
-336.108
-340.001
-343.078
-345.299
-346.632
-347.048
-346.529
-345.065
-342.654
-339.306
-335.036
-329.872
-323.849
-317.012
-309.41
-301.102
-292.15
-282.62
-272.58
-262.102
-251.254
-240.107
-228.727
-217.18
-205.528
-193.829
-182.14
-170.511
-158.992
-147.626
-136.448
-125.489
-114.77
-104.3
-94.0836
-84.115
-74.3875
-64.8952
-55.6381
-46.6243
-37.871
-29.4035
-21.2523
-13.4502
-6.02884
0.984745
7.57052
13.7175
19.4249
24.7028
29.5722
34.0638
38.2163
42.0744
45.6852
49.095
52.3468
55.4774
58.5158
61.4817
64.3864
67.2328
70.0182
72.737
75.3843
77.9595
80.4694
82.9301
85.3658
87.799
90.245
92.7297
95.2619
97.8569
100.457
103.142
106.011
109.089
112.387
115.904
119.629
123.549
127.647
131.902
136.296
140.815
145.444
150.177
155.008
159.934
164.95
170.05
175.218
180.434
185.661
190.863
195.994
201
205.83
210.432
214.763
218.778
222.427
225.653
228.396
230.598
232.21
233.193
233.515
233.147
232.064
230.242
227.663
224.312
220.175
215.244
209.512
202.976
195.636
187.496
178.57
168.884
158.48
147.428
135.841
123.884
111.783
99.8284
88.3848
77.9076
68.9664
61.8463
57.2695
55.4302
56.3285
60.5192
-14.5244
-27.7352
-42.1458
-54.9245
-64.5728
-71.0309
-74.7355
-76.3718
-76.6685
-76.2684
-75.6737
-75.2451
-75.2334
-75.7883
-77.029
-78.5422
-80.3051
-82.3494
-84.7204
-87.4175
-90.4018
-93.6214
-97.0246
-100.561
-104.182
-107.84
-111.491
-115.094
-118.611
-122.006
-125.246
-128.302
-131.143
-133.742
-136.071
-138.103
-139.814
-141.178
-142.171
-142.773
-142.962
-142.721
-142.032
-140.885
-139.268
-137.176
-134.607
-131.563
-128.052
-124.085
-119.68
-114.857
-109.645
-104.074
-98.1789
-91.9989
-85.5758
-78.9537
-72.1781
-65.2955
-58.3524
-51.3947
-44.4675
-37.6143
-30.8774
-24.2975
-17.9144
-11.7675
-5.89671
-0.343386
4.8484
9.63075
13.9508
17.7501
20.9643
23.5254
25.3659
26.4295
26.6843
26.1398
24.86
22.9684
20.6402
18.0825
15.5074
13.1054
11.0256
9.36604
8.17436
7.45474
7.17905
7.29829
7.75291
8.48083
9.42315
10.5276
11.7503
13.056
14.4177
15.8158
17.2366
18.6711
20.1136
21.561
23.0124
24.4689
25.9348
27.419
28.9371
30.5148
32.1898
34.014
36.0505
38.3629
40.9876
43.8833
46.9045
49.849
52.7948
55.7539
58.8238
61.9972
65.2583
68.5873
71.9632
75.3649
78.771
82.161
85.5146
88.8111
92.0284
95.1411
98.1188
100.923
103.507
105.809
107.757
109.262
110.223
110.533
110.091
108.82
106.709
103.85
100.478
96.9629
93.7372
91.1492
89.3288
88.159
87.3835
86.7618
86.1529
85.5056
84.8094
84.0639
83.2687
82.4223
81.5215
80.5622
79.5389
78.4446
77.2715
76.0114
74.6575
73.2049
71.653
70.0085
68.2874
66.5168
64.7376
63.0114
61.417
60.0675
59.1817
58.8876
59.1399
60.3805
62.5667
65.3432
-18.0673
-32.7744
-45.1605
-55.9
-64.0699
-69.4973
-72.3743
-73.2072
-72.6391
-71.2901
-69.6651
-68.1236
-66.8919
-66.0884
-65.7495
-65.8359
-66.2795
-67.0235
-68.0252
-69.2415
-70.6223
-72.1145
-73.6656
-75.2259
-76.7497
-78.1957
-79.5271
-80.7116
-81.721
-82.5302
-83.1169
-83.4612
-83.5449
-83.3515
-82.8658
-82.0744
-80.9655
-79.5291
-77.7572
-75.6443
-73.1876
-70.3871
-67.2462
-63.7718
-59.9745
-55.8688
-51.4731
-46.8099
-41.9053
-36.7893
-31.495
-26.0587
-20.5188
-14.9159
-9.2912
-3.68678
1.8559
7.29643
12.5962
17.7191
22.6319
27.3046
31.711
35.8283
39.6371
43.1214
46.2679
49.0654
51.5045
53.5766
55.2738
56.5888
57.5145
58.0454
58.1789
57.9169
57.2693
56.256
54.9103
53.2789
51.4221
49.4099
47.3172
45.2181
43.1804
41.2612
39.5044
37.9405
36.5867
35.4494
34.5256
33.8057
33.2758
32.9191
32.7181
32.6551
32.7126
32.8734
33.1206
33.4369
33.8053
34.2088
34.6309
35.0566
35.4729
35.8705
36.2439
36.5918
36.9157
37.2172
37.4939
37.7361
37.9252
38.0406
38.0858
38.1593
38.2545
38.6902
39.2059
39.777
40.3998
41.06
41.7442
42.4411
43.1422
43.8419
44.5363
45.223
45.9
46.5653
47.2168
47.8515
48.4649
49.0511
49.6017
50.1062
50.5516
50.9222
51.2002
51.3669
51.4048
51.3018
51.0579
50.6918
50.246
49.7856
49.3843
49.103
48.9682
48.9687
49.0709
49.2423
49.4642
49.7308
50.0425
50.4009
50.8071
51.2616
51.7641
52.3138
52.9094
53.5487
54.2289
54.9472
55.6999
56.4829
57.2939
58.1334
59.0017
59.8974
60.8181
61.7776
62.7857
63.8379
65.0017
66.3677
67.8614
69.478
71.1432
72.4591
-28.1179
-39.8888
-48.5943
-56.0686
-61.9621
-65.9552
-67.9455
-68.189
-67.1698
-65.4244
-63.4208
-61.5041
-59.8921
-58.6936
-57.9323
-57.5738
-57.5515
-57.7916
-58.2271
-58.7982
-59.4502
-60.1318
-60.7961
-61.4006
-61.9077
-62.2847
-62.5035
-62.5401
-62.3741
-61.9882
-61.3679
-60.5007
-59.3763
-57.9861
-56.3234
-54.3834
-52.1634
-49.6628
-46.8837
-43.8306
-40.5111
-36.9361
-33.1196
-29.079
-24.8353
-20.4127
-15.8388
-11.144
-6.36158
-1.52674
3.3235
8.15107
12.9175
17.5847
22.1157
26.4751
30.6303
34.5519
38.2139
41.5948
44.6773
47.4485
49.9004
52.0288
53.8341
55.3199
56.4933
57.3639
57.9437
58.2461
58.2863
58.0803
57.6453
56.9996
56.1632
55.1573
54.0053
52.732
51.3637
49.9272
48.4487
46.9526
45.461
43.992
42.5605
41.1778
39.8523
38.5903
37.3966
36.2749
35.2286
34.2605
33.3732
32.5687
31.8484
31.2124
30.6595
30.1863
29.7876
29.456
29.1826
28.9578
28.772
28.6166
28.485
28.3731
28.2789
28.2019
28.1399
28.0864
28.0274
27.9414
27.808
27.645
27.4145
27.2929
27.3862
27.5513
27.7464
27.9645
28.2016
28.4534
28.7166
28.9888
29.2686
29.5555
29.8498
30.1523
30.4639
30.7857
31.1187
31.4637
31.8214
32.1919
32.575
32.9703
33.3771
33.7944
34.221
34.6554
35.0964
35.5438
35.9989
36.4652
36.9496
37.4618
38.0129
38.613
39.2683
39.9804
40.7479
41.569
42.4424
43.3678
44.3456
45.3763
46.4598
47.5955
48.7831
50.0214
51.3091
52.6449
54.0263
55.453
56.9227
58.4311
59.9748
61.5548
63.1732
64.8243
66.4841
68.161
69.8631
71.5393
73.1892
74.8587
76.3841
77.7974
79.058
79.8434
-44.9777
-49.476
-53.2285
-56.8391
-60.0709
-62.3897
-63.3974
-63.086
-61.7541
-59.8251
-57.7033
-55.6974
-54.0002
-52.7007
-51.808
-51.277
-51.0347
-51.0011
-51.1024
-51.275
-51.4644
-51.6241
-51.7145
-51.7017
-51.5572
-51.2568
-50.7808
-50.1128
-49.2397
-48.1509
-46.8387
-45.2973
-43.5232
-41.515
-39.2734
-36.8013
-34.104
-31.1891
-28.0669
-24.7505
-21.2557
-17.601
-13.8082
-9.90135
-5.9074
-1.85543
2.22351
6.29692
10.3314
14.293
18.1482
21.8643
25.4101
28.7568
31.8783
34.7521
37.3596
39.6867
41.7236
43.4654
44.9116
46.0663
46.9375
47.5367
47.8787
47.9805
47.8614
47.5417
47.0427
46.3862
45.5936
44.686
43.6836
42.606
41.4715
40.2973
39.0993
37.892
36.6882
35.4989
34.3333
33.1986
32.1
31.0415
30.0255
29.0539
28.1281
27.2499
26.4212
25.6442
24.9218
24.2566
23.6511
23.1072
22.6258
22.2066
21.848
21.5466
21.2979
21.096
20.9344
20.8066
20.7063
20.6288
20.5705
20.5291
20.503
20.4904
20.4881
20.491
20.4928
20.4951
20.468
20.4515
20.5644
20.721
20.9158
21.1324
21.3614
21.601
21.8503
22.1089
22.3766
22.6541
22.9426
23.2437
23.5593
23.891
24.2406
24.6095
24.9994
25.4112
25.846
26.3046
26.7877
27.2966
27.8325
28.3972
28.9927
29.6212
30.2851
30.9877
31.7322
32.5217
33.3595
34.2487
35.1922
36.1926
37.2506
38.366
39.5391
40.7694
42.0555
43.3962
44.7905
46.2379
47.7365
49.2835
50.8774
52.5155
54.1949
55.9138
57.662
59.4415
61.2507
63.0835
64.9319
66.7863
68.659
70.555
72.4254
74.2664
76.1289
77.9389
79.635
81.2594
82.6991
83.9876
85.1331
85.8886
-67.5728
-60.648
-58.5504
-58.1143
-58.5943
-59.1684
-59.1594
-58.3064
-56.7173
-54.6904
-52.5533
-50.567
-48.8923
-47.5944
-46.6654
-46.0507
-45.6727
-45.4498
-45.3083
-45.1858
-45.0318
-44.8063
-44.4773
-44.0194
-43.4125
-42.641
-41.6924
-40.5578
-39.2307
-37.7072
-35.9857
-34.067
-31.9541
-29.6521
-27.1687
-24.5138
-21.6994
-18.7402
-15.6531
-12.4574
-9.1746
-5.82826
-2.44388
0.951511
4.32969
7.66169
10.9184
14.071
17.0915
19.9536
22.6329
25.1075
27.3585
29.3707
31.1325
32.6367
33.8803
34.8646
35.5952
36.0816
36.3368
36.377
36.2207
35.888
35.4005
34.7801
34.0489
33.2285
32.3397
31.4019
30.4331
29.4496
28.4657
27.4938
26.5445
25.6264
24.7464
23.9094
23.1193
22.3781
21.6868
21.0454
20.4528
19.9078
19.4087
18.9539
18.5421
18.1723
17.8441
17.5574
17.3125
17.1095
16.9484
16.8282
16.7469
16.7018
16.6892
16.7046
16.7431
16.799
16.8668
16.9415
17.0188
17.0963
17.1724
17.247
17.3205
17.3938
17.467
17.5455
17.6146
17.7249
17.882
18.0593
18.2601
18.473
18.6956
18.9254
19.16
19.3994
19.6445
19.8965
20.1575
20.4299
20.7167
21.0212
21.3464
21.6951
22.0691
22.4703
22.9003
23.36
23.85
24.3706
24.9224
25.5064
26.1244
26.779
27.4733
28.2103
28.9934
29.8277
30.718
31.6681
32.6813
33.76
34.9063
36.122
37.4059
38.7539
40.1658
41.6408
43.1762
44.769
46.4166
48.12
49.8749
51.6727
53.5128
55.3915
57.3048
59.2634
61.2227
63.1968
65.1868
67.1916
69.2073
71.1799
73.1448
75.145
77.0961
78.9613
80.79
82.5513
84.2247
85.8138
87.2287
88.4833
89.6027
90.4226
-94.6287
-72.637
-64.0868
-59.6743
-57.4889
-56.3563
-55.3484
-53.973
-52.1539
-50.0615
-47.9418
-46.0043
-44.3765
-43.1014
-42.1566
-41.4799
-40.9917
-40.612
-40.2701
-39.9084
-39.4823
-38.9588
-38.3135
-37.5289
-36.5927
-35.4965
-34.2351
-32.8058
-31.2086
-29.4455
-27.521
-25.4416
-23.2162
-20.8556
-18.3731
-15.7838
-13.1051
-10.356
-7.55737
-4.73141
-1.90169
0.907353
3.67072
6.36329
8.96036
11.4381
13.7742
15.9482
17.9421
19.7408
21.332
22.7068
23.8597
24.7888
25.4961
25.9869
26.2704
26.3587
26.267
26.0129
25.6159
25.0966
24.4763
23.7763
23.0169
22.2178
21.397
20.5712
19.7553
18.962
18.2023
17.4849
16.8166
16.2023
15.6452
15.147
14.7081
14.3279
14.0051
13.7375
13.5226
13.3574
13.2388
13.1638
13.1291
13.132
13.1697
13.2398
13.3402
13.4694
13.6259
13.8084
14.0151
14.2431
14.488
14.7449
15.0084
15.2733
15.5339
15.7844
16.0189
16.2322
16.4207
16.5832
16.7205
16.8363
16.9354
17.0301
17.0937
17.2707
17.4754
17.649
17.8297
18.0169
18.2097
18.4048
18.6007
18.7966
18.9918
19.1873
19.385
19.5878
19.7993
20.024
20.2665
20.532
20.8252
21.1492
21.5062
21.8981
22.3262
22.7912
23.2928
23.8303
24.4036
25.0132
25.6608
26.3498
27.085
27.8699
28.7065
29.602
30.5631
31.5946
32.7
33.8818
35.1421
36.4853
37.9144
39.4093
40.9733
42.6059
44.3037
46.061
47.8721
49.7561
51.6926
53.6616
55.6678
57.7068
59.7692
61.9303
64.0372
66.141
68.247
70.3717
72.5284
74.5802
76.5998
78.5978
80.5457
82.4308
84.2584
86.0129
87.6859
89.2762
90.7106
91.9785
93.0914
93.9549
-124.708
-84.7123
-69.4201
-61.2724
-56.6115
-53.8717
-51.9127
-50.0408
-48.0083
-45.8612
-43.7633
-41.873
-40.2859
-39.0256
-38.0591
-37.3197
-36.7284
-36.2086
-35.6949
-35.1357
-34.4936
-33.7423
-32.8648
-31.8507
-30.6944
-29.3939
-27.9502
-26.3664
-24.6478
-22.8017
-20.8375
-18.7665
-16.6018
-14.3585
-12.0534
-9.70455
-7.33159
-4.95498
-2.59588
-0.27582
1.98363
4.16121
6.23642
8.18991
10.004
11.6631
13.1543
14.4673
15.5951
16.5338
17.2825
17.8429
18.2199
18.4208
18.4558
18.3375
18.0806
17.7017
17.2188
16.651
16.018
15.3392
14.6337
13.9188
13.2103
12.5221
11.8665
11.2538
10.6926
10.1892
9.74846
9.37298
9.06396
8.82115
8.6431
8.52747
8.47132
8.47151
8.52484
8.62809
8.77801
8.97134
9.205
9.47607
9.78166
10.1189
10.4846
10.8756
11.2887
11.7207
12.1692
12.632
13.1068
13.5891
14.0718
14.5467
15.0067
15.4452
15.8559
16.232
16.5655
16.8482
17.0742
17.243
17.3577
17.4407
17.4665
17.6701
17.9332
18.0922
18.2439
18.3936
18.5449
18.6966
18.8469
18.9936
19.1352
19.2707
19.4
19.5247
19.6478
19.7738
19.9082
20.0572
20.2279
20.4278
20.6644
20.942
21.2611
21.6232
22.0298
22.4806
22.9741
23.5083
24.0814
24.6927
25.3434
26.0379
26.786
27.5973
28.46
29.3864
30.3871
31.4682
32.6336
33.8842
35.2199
36.649
38.2165
39.8333
41.5194
43.2782
45.1054
46.9907
48.9096
50.9754
53.0724
55.1839
57.3256
59.4939
61.652
64.0271
66.2561
68.4658
70.6631
72.8464
75.0127
77.1277
79.2007
81.2318
83.2097
85.1279
86.9804
88.7563
90.4483
92.0554
93.5193
94.8144
95.9269
96.8088
-156.128
-96.2597
-74.246
-62.7188
-55.831
-51.6185
-48.7729
-46.4344
-44.2011
-42.0011
-39.9191
-38.0641
-36.5028
-35.2427
-34.2436
-33.4375
-32.7481
-32.1039
-31.4456
-30.7287
-29.9225
-29.0077
-27.9735
-26.8156
-25.5343
-24.1329
-22.6172
-20.9949
-19.2757
-17.4707
-15.5927
-13.656
-11.6761
-9.67002
-7.65557
-5.65128
-3.67598
-1.7484
0.11311
1.89097
3.56858
5.13058
6.56316
7.85442
8.99469
9.9769
10.7968
11.4534
11.9483
12.2861
12.4734
12.5184
12.431
12.2224
11.9055
11.4945
11.0047
10.4521
9.85311
9.22458
8.58332
7.94585
7.32735
6.74067
6.19642
5.70342
5.26892
4.89859
4.59642
4.36465
4.20387
4.11312
4.09024
4.132
4.23438
4.39287
4.60303
4.86101
5.16377
5.50874
5.89351
6.31591
6.77424
7.26709
7.79315
8.35067
8.93697
9.54833
10.1801
10.8274
11.4859
12.1529
12.8268
13.5022
14.1674
14.8088
15.4148
15.9769
16.4884
16.9404
17.319
17.6103
17.8029
17.9196
17.936
18.1546
18.4724
18.6208
18.7479
18.8598
18.9711
19.0839
19.1965
19.3048
19.4059
19.4973
19.5768
19.6432
19.6964
19.7387
19.7747
19.8105
19.8539
19.9134
19.9984
20.1198
20.2915
20.5238
20.8076
21.1436
21.5334
21.9759
22.4679
23.0051
23.5834
24.1995
24.8513
25.5406
26.2876
27.1492
28.0432
29
30.0385
31.168
32.3929
33.7117
35.1111
36.575
38.3444
40.0923
41.9009
43.7833
45.7354
47.7418
49.711
52.0191
54.2538
56.4916
58.7529
61.0373
63.3305
65.676
67.9885
70.2778
72.5421
74.7767
76.9752
79.1283
81.2328
83.2853
85.2803
87.2127
89.0752
90.8577
92.5514
94.1535
95.6196
96.9195
98.0158
98.8875
-187.333
-106.823
-78.3723
-63.8899
-55.0519
-49.517
-45.8575
-43.0839
-40.6603
-38.4063
-36.3317
-34.4994
-32.9501
-31.6786
-30.6403
-29.7685
-28.9911
-28.2427
-27.4707
-26.6375
-25.7188
-24.7011
-23.5793
-22.3542
-21.0303
-19.6151
-18.1179
-16.5496
-14.9225
-13.2499
-11.5462
-9.82662
-8.10716
-6.4043
-4.73473
-3.11495
-1.5608
-0.0870664
1.29287
2.56715
3.7255
4.75922
5.66128
6.42654
7.05197
7.53689
7.88329
8.09588
8.18202
8.15096
8.01275
7.77746
7.45537
7.05739
6.59528
6.0816
5.5294
4.95199
4.36271
3.77497
3.2027
2.66023
2.16033
1.71231
1.32267
0.996655
0.738648
0.551854
0.438022
0.397233
0.427892
0.526997
0.690492
0.913405
1.18995
1.51394
1.87974
2.28344
2.7232
3.19813
3.7072
4.24977
4.82624
5.43787
6.08636
6.77278
7.49632
8.2538
9.03942
9.84518
10.6631
11.489
12.3236
13.1629
13.9885
14.7748
15.4999
16.1497
16.7152
17.1899
17.5541
17.8205
17.95
18.2575
18.6778
18.8735
19.0027
19.0871
19.1628
19.2383
19.3182
19.4044
19.4933
19.5718
19.6353
19.6807
19.7049
19.7058
19.6836
19.6416
19.5862
19.5265
19.4732
19.4373
19.429
19.4602
19.5583
19.7737
20.0457
20.3785
20.7758
21.2358
21.753
22.3202
22.9303
23.5764
24.2498
24.9347
25.6338
26.626
27.5788
28.5813
29.671
30.862
32.1614
33.5684
35.0566
36.4902
38.5351
40.4252
42.3634
44.3726
46.4491
48.5839
50.753
53.0195
55.3213
57.6477
59.9958
62.3605
64.7323
67.1067
69.4611
71.7846
74.0694
76.3093
78.4995
80.6351
82.7124
84.7283
86.6798
88.5643
90.3757
92.1037
93.738
95.2736
96.6769
97.92
98.9498
99.7599
-216.911
-116.086
-81.6936
-64.7152
-54.2112
-47.5095
-43.1119
-39.9353
-37.3315
-35.022
-32.9477
-31.1289
-29.5833
-28.2956
-27.2194
-26.2906
-25.4424
-24.6159
-23.7652
-22.8587
-21.8778
-20.8141
-19.6668
-18.4403
-17.1424
-15.7832
-14.374
-12.9273
-11.4562
-9.9746
-8.49651
-7.03634
-5.60856
-4.22753
-2.9072
-1.66068
-0.499726
0.565781
1.52806
2.38133
3.12143
3.74545
4.25158
4.63926
4.90936
5.0645
5.10938
5.05125
4.9
4.66704
4.36294
3.99609
3.57375
3.10376
2.59523
2.05819
1.50323
0.94108
0.382146
-0.163228
-0.683044
-1.16251
-1.58846
-1.95388
-2.25571
-2.49053
-2.65453
-2.74461
-2.75921
-2.69866
-2.56532
-2.36326
-2.09786
-1.77583
-1.40496
-0.994084
-0.55124
-0.080861
0.417152
0.944289
1.50042
2.08548
2.7018
3.35381
4.04762
4.78902
5.58111
6.42385
7.31221
8.23521
9.17872
10.1327
11.0993
12.081
13.0535
13.9649
14.7682
15.4446
15.9875
16.4664
16.8837
17.4856
18.1652
18.5485
18.7861
18.9064
18.9719
19.0191
19.0664
19.1185
19.1775
19.2539
19.3606
19.444
19.4974
19.5193
19.5058
19.4536
19.363
19.2388
19.0906
18.9317
18.7782
18.6455
18.5426
18.4665
18.4388
18.7134
19.015
19.3805
19.8233
20.341
20.9249
21.5635
22.2457
22.9625
23.7031
24.4311
25.0143
26.2153
27.2494
28.3166
29.4748
30.744
32.1336
33.646
35.2704
36.9689
38.9015
40.8892
42.9417
45.0603
47.2382
49.467
51.7377
54.0503
56.3968
58.7678
61.1551
63.5492
65.9391
68.3113
70.6497
72.9399
75.1718
77.3388
79.4377
81.4661
83.4217
85.3033
87.1111
88.8462
90.505
92.0779
93.5527
94.9233
96.1653
97.2549
98.1316
98.796
-243.659
-123.851
-84.1683
-65.1632
-53.2726
-45.5582
-40.4983
-36.9512
-34.1776
-31.8131
-29.7354
-27.9262
-26.383
-25.0825
-23.9778
-23.0087
-22.1137
-21.2403
-20.3483
-19.4116
-18.4161
-17.3572
-16.2374
-15.0633
-13.8446
-12.5924
-11.3189
-10.0363
-8.75728
-7.49444
-6.26016
-5.06652
-3.92518
-2.84738
-1.84383
-0.924187
-0.0963655
0.634183
1.26474
1.79494
2.22559
2.5577
2.79229
2.9307
2.97488
2.92765
2.7933
2.57869
2.29455
1.95399
1.56692
1.13718
0.665925
0.156729
-0.383447
-0.945539
-1.51943
-2.09493
-2.66379
-3.21867
-3.7491
-4.23618
-4.66351
-5.0249
-5.32157
-5.55026
-5.70506
-5.78086
-5.77455
-5.68524
-5.5141
-5.2642
-4.94228
-4.56011
-4.12871
-3.66159
-3.17222
-2.66712
-2.14284
-1.59416
-1.02232
-0.430126
0.184891
0.829801
1.51594
2.25381
3.0505
3.91361
4.84222
5.82452
6.84331
7.88397
8.92297
9.96983
11.0327
11.9888
12.7566
13.4303
14.1017
15.0479
16.1744
16.9691
17.5563
17.9325
18.1652
18.2732
18.3118
18.3362
18.3704
18.4139
18.4489
18.5042
18.7165
18.8662
18.9548
18.9897
18.9671
18.8824
18.7358
18.5343
18.292
18.0291
17.7702
17.541
17.3582
17.1962
16.9361
17.3708
17.7389
18.1758
18.7102
19.3363
20.0386
20.7991
21.6009
22.4313
23.2815
24.1387
24.975
26.0103
27.0796
28.2121
29.4417
30.7894
32.2671
33.8781
35.6165
37.4702
39.4498
41.5198
43.6602
45.8573
48.0992
50.3757
52.6791
55.0039
57.3457
59.6986
62.055
64.4046
66.7344
69.028
71.2667
73.4334
75.5159
77.5072
79.4059
81.2118
82.925
84.5471
86.0828
87.5386
88.9153
90.2038
91.3914
92.4721
93.43
94.245
94.8557
95.2623
-266.595
-130.009
-85.796
-65.2261
-52.2164
-43.6385
-37.9918
-34.1074
-31.1766
-28.7607
-26.6811
-24.8844
-23.3499
-22.0482
-20.9325
-19.9463
-19.0337
-18.1473
-17.2521
-16.326
-15.3583
-14.3469
-13.2962
-12.2142
-11.1111
-9.99808
-8.88627
-7.78673
-6.7103
-5.66737
-4.6677
-3.72026
-2.83327
-2.01468
-1.27254
-0.614324
-0.0456396
0.430865
0.816222
1.11447
1.32999
1.46536
1.52169
1.49986
1.40101
1.22644
0.97732
0.657743
0.279007
-0.141861
-0.59534
-1.08463
-1.61863
-2.19827
-2.81521
-3.45581
-4.10287
-4.74031
-5.3681
-5.98302
-6.5766
-7.12295
-7.61089
-8.02663
-8.37573
-8.65309
-8.84866
-8.95482
-8.96765
-8.88493
-8.70153
-8.40802
-8.00906
-7.54274
-7.02492
-6.47471
-5.91448
-5.3549
-4.7858
-4.19469
-3.58595
-2.97139
-2.35311
-1.72398
-1.06159
-0.359871
0.378014
1.19405
2.0812
3.00973
3.96227
5.01854
5.97367
6.77099
7.77538
8.68635
9.57534
10.7332
12.1634
13.3189
14.3824
15.2324
15.858
16.2841
16.6304
16.8246
16.8404
16.8328
16.8594
16.9209
16.8989
16.9276
17.3629
17.6564
17.8431
17.9454
17.9582
17.8744
17.6939
17.4267
17.0934
16.7238
16.3545
16.0248
15.7705
15.6085
15.5299
15.7602
16.143
16.6686
17.3289
18.104
18.9674
19.8907
20.8488
21.8228
22.8023
23.7836
24.773
25.8205
26.9293
28.1182
29.4122
30.8316
32.3885
34.0861
35.9171
37.8685
39.9239
42.06
44.2523
46.481
48.7303
50.9888
53.2491
55.5072
57.7611
60.008
62.2423
64.4545
66.6306
68.7518
70.7953
72.7403
74.5716
76.281
77.8683
79.3352
80.6837
81.919
83.0506
84.093
85.0528
85.9224
86.6885
87.347
87.8916
88.3046
88.5274
88.5491
-284.927
-134.504
-86.5961
-64.9064
-51.0308
-41.7336
-35.5759
-31.3906
-28.3191
-25.861
-23.7877
-22.0139
-20.5029
-19.2192
-18.1166
-17.1419
-16.2437
-15.3789
-14.5163
-13.6365
-12.7309
-11.7989
-10.8456
-9.87944
-8.91057
-7.94924
-7.00501
-6.08644
-5.20146
-4.35806
-3.56326
-2.82298
-2.14197
-1.52548
-0.98071
-0.515261
-0.134547
0.159198
0.369405
0.504231
0.570245
0.569085
0.498937
0.359477
0.153191
-0.118034
-0.464431
-0.885616
-1.36687
-1.88449
-2.43468
-3.02471
-3.67689
-4.39645
-5.16732
-5.95718
-6.70863
-7.35645
-7.98617
-8.60301
-9.19028
-9.70814
-10.2044
-10.6269
-10.9755
-11.2384
-11.4043
-11.47
-11.441
-11.3253
-11.1103
-10.7399
-10.1809
-9.58488
-8.96702
-8.34327
-7.73719
-7.15822
-6.58481
-5.99609
-5.38998
-4.78671
-4.1965
-3.63462
-3.01288
-2.36462
-1.82843
-1.05265
-0.150906
0.715544
1.35739
2.52954
3.33159
3.31524
4.2248
5.56231
7.16528
8.53061
9.82212
10.7696
11.5795
12.3492
13.0154
13.3459
13.6501
14.1747
14.1214
14.0143
13.9962
14.0953
14.281
14.5208
14.933
15.3432
15.6844
15.9236
16.0362
16.0071
15.8345
15.532
15.1282
14.6649
14.1935
13.7697
13.4475
13.2703
13.2705
13.5012
13.9534
14.6088
15.4407
16.4126
17.4828
18.6095
19.7563
20.8969
22.017
23.1154
24.206
25.3172
26.4792
27.7224
29.0768
30.5656
32.202
33.9875
35.9114
37.954
40.0894
42.287
44.516
46.7505
48.9712
51.1655
53.3269
55.4545
57.5504
59.6165
61.6513
63.6476
65.592
67.463
69.2334
70.8776
72.3761
73.7187
74.9055
75.9389
76.8215
77.5609
78.1724
78.6801
79.0991
79.4235
79.639
79.7455
79.7493
79.635
79.3467
78.8471
-298.177
-137.31
-86.5909
-64.2031
-49.7007
-39.8255
-33.2365
-28.793
-25.6053
-23.1229
-21.0734
-19.3426
-17.8783
-16.6394
-15.5793
-14.6474
-13.7956
-12.9841
-12.1842
-11.3782
-10.5583
-9.72397
-8.88046
-8.03631
-7.20124
-6.38433
-5.59316
-4.83441
-4.11345
-3.43444
-2.80176
-2.21933
-1.68899
-1.21566
-0.809474
-0.481641
-0.235527
-0.0778859
0.000387641
0.013262
-0.038019
-0.151555
-0.333865
-0.579876
-0.856024
-1.12592
-1.50716
-1.99475
-2.55125
-3.15456
-3.81662
-4.529
-5.32529
-6.22077
-7.20472
-8.23203
-9.13437
-9.63851
-10.1605
-10.686
-11.2097
-11.7311
-12.1553
-12.414
-12.5745
-12.6347
-12.5808
-12.4138
-12.1522
-11.8272
-11.4565
-11.0323
-10.1583
-9.38695
-8.67757
-8.04927
-7.53808
-7.16024
-6.85988
-6.5907
-6.31562
-6.06009
-5.8657
-5.83224
-5.60419
-5.23171
-5.00479
-4.1937
-3.07287
-1.9823
-2.34978
-0.898948
0.918718
2.77175
4.02428
5.06053
6.17631
7.12989
8.06404
8.74475
9.09364
9.4874
10.7284
10.8189
10.421
9.75651
9.1287
8.74531
8.63793
8.80021
9.1903
9.7467
10.4218
11.1249
11.7697
12.2885
12.6322
12.7727
12.7043
12.4452
12.0352
11.5328
11.009
10.5409
10.2027
10.0575
10.1532
10.5202
11.1614
12.0547
13.1594
14.4215
15.7804
17.1775
18.563
19.902
21.1778
22.3925
23.5674
24.7386
25.9494
27.2435
28.6604
30.2291
31.9644
33.865
35.9136
38.0806
40.3282
42.6139
44.8964
47.141
49.3232
51.4282
53.4505
55.3927
57.2627
59.0694
60.8177
62.5053
64.1215
65.6442
67.0418
68.2836
69.346
70.2167
70.8961
71.3863
71.6885
71.8107
71.7735
71.6132
71.3562
70.9992
70.5256
69.9416
69.2712
68.5056
67.5874
66.438
-306.38
-138.361
-85.6964
-63.0309
-48.1315
-37.8143
-30.8755
-26.2242
-22.9567
-20.4822
-18.4891
-16.8353
-15.453
-14.2944
-13.3117
-12.4559
-11.6813
-10.9506
-10.2371
-9.52423
-8.80348
-8.07356
-7.33921
-6.60913
-5.89267
-5.19762
-4.52947
-3.89316
-3.29265
-2.73562
-2.21654
-1.73273
-1.28338
-0.886146
-0.552736
-0.312568
-0.138039
-0.0891611
-0.100148
-0.144082
-0.285842
-0.496877
-0.792816
-1.16758
-1.4716
-1.46886
-1.68682
-2.04414
-2.50883
-3.0672
-3.62288
-4.14669
-4.7475
-5.50837
-6.46377
-7.64699
-8.98941
-9.06391
-9.35602
-9.71679
-10.0896
-10.4795
-10.6066
-10.511
-10.276
-9.93497
-9.49053
-8.94697
-8.32434
-7.66094
-7.00825
-6.40295
-5.78093
-5.22284
-4.80045
-4.58309
-4.67318