/*--------------------------------*- C++ -*----------------------------------*\
| =========                 |                                                 |
| \\      /  F ield         | OpenFOAM: The Open Source CFD Toolbox           |
|  \\    /   O peration     | Version:  2112                                  |
|   \\  /    A nd           | Website:  www.openfoam.com                      |
|    \\/     M anipulation  |                                                 |
\*---------------------------------------------------------------------------*/
FoamFile
{
    version     2.0;
    format      ascii;
    arch        "LSB;label=32;scalar=64";
    class       surfaceScalarField;
    location    "0.4";
    object      phi;
}
// * * * * * * * * * * * * * * * * * * * * * * * * * * * * * * * * * * * * * //

dimensions      [0 3 -1 0 0 0 0];

oriented        oriented;

internalField   nonuniform List<scalar> 
24170
(
3.04041e-06
1.47992e-07
2.86703e-06
1.73385e-07
2.69454e-06
1.72493e-07
2.52494e-06
1.69599e-07
2.36508e-06
1.59854e-07
2.22066e-06
1.44426e-07
2.09529e-06
1.2537e-07
1.9909e-06
1.0439e-07
1.90781e-06
8.30838e-08
1.8448e-06
6.30105e-08
1.79941e-06
4.53915e-08
1.76848e-06
3.09278e-08
1.74868e-06
1.98006e-08
1.73678e-06
1.19017e-08
1.73009e-06
6.69611e-09
1.72567e-06
4.41118e-09
1.71629e-06
9.38297e-09
1.92908e-08
1.697e-06
3.48641e-06
7.88352e-08
3.5338e-06
1.25988e-07
3.56203e-06
1.44267e-07
3.57076e-06
1.60863e-07
3.56059e-06
1.70028e-07
3.53396e-06
1.71054e-07
3.49386e-06
1.65473e-07
3.44334e-06
1.54905e-07
3.38533e-06
1.41096e-07
3.3223e-06
1.26037e-07
3.25623e-06
1.11468e-07
3.18863e-06
9.85281e-08
3.12071e-06
8.77208e-08
3.0535e-06
7.91095e-08
2.98794e-06
7.22559e-08
2.925e-06
6.73495e-08
2.87091e-06
6.34763e-08
5.39458e-08
2.83625e-06
3.68115e-06
6.02012e-08
3.69987e-06
1.07267e-07
3.71907e-06
1.25067e-07
3.74011e-06
1.39822e-07
3.76095e-06
1.49189e-07
3.77986e-06
1.52147e-07
3.79544e-06
1.49893e-07
3.80667e-06
1.43673e-07
3.81295e-06
1.3482e-07
3.81421e-06
1.24778e-07
3.81083e-06
1.14842e-07
3.80347e-06
1.05892e-07
3.79283e-06
9.8365e-08
3.77962e-06
9.23144e-08
3.76443e-06
8.74416e-08
3.74858e-06
8.32068e-08
3.73333e-06
7.87203e-08
6.91473e-08
3.71813e-06
3.93682e-06
4.87712e-08
3.94866e-06
9.54271e-08
3.95874e-06
1.14981e-07
3.9695e-06
1.29066e-07
3.98087e-06
1.37816e-07
3.99259e-06
1.40434e-07
4.00419e-06
1.38294e-07
4.01508e-06
1.32777e-07
4.02486e-06
1.25037e-07
4.03339e-06
1.16251e-07
4.04074e-06
1.07489e-07
4.04712e-06
9.9519e-08
4.05278e-06
9.27071e-08
4.05804e-06
8.70488e-08
4.06328e-06
8.2202e-08
4.06897e-06
7.75197e-08
4.07541e-06
7.2281e-08
6.34502e-08
4.0811e-06
4.21578e-06
4.01224e-08
4.2262e-06
8.49991e-08
4.23535e-06
1.05839e-07
4.24458e-06
1.1983e-07
4.25406e-06
1.28333e-07
4.26351e-06
1.30992e-07
4.27266e-06
1.29142e-07
4.28127e-06
1.24164e-07
4.28917e-06
1.1714e-07
4.29627e-06
1.09145e-07
4.30266e-06
1.011e-07
4.30856e-06
9.36195e-08
4.31428e-06
8.69854e-08
4.32016e-06
8.11757e-08
4.32648e-06
7.58837e-08
4.33347e-06
7.05211e-08
4.34144e-06
6.432e-08
5.55352e-08
4.34935e-06
4.51587e-06
3.33349e-08
4.52554e-06
7.53359e-08
4.53468e-06
9.6694e-08
4.54387e-06
1.10646e-07
4.55319e-06
1.19013e-07
4.56237e-06
1.21808e-07
4.57119e-06
1.20322e-07
4.57947e-06
1.15884e-07
4.58709e-06
1.09521e-07
4.59403e-06
1.02205e-07
4.60039e-06
9.47364e-08
4.60638e-06
8.76342e-08
4.61223e-06
8.11369e-08
4.61821e-06
7.51937e-08
4.62456e-06
6.95323e-08
4.63139e-06
6.36915e-08
4.63868e-06
5.70309e-08
4.85758e-08
4.64564e-06
4.83814e-06
2.79103e-08
4.84703e-06
6.64474e-08
4.8561e-06
8.76254e-08
4.86543e-06
1.01318e-07
4.8749e-06
1.09539e-07
4.88424e-06
1.12468e-07
4.89323e-06
1.11338e-07
4.90169e-06
1.07422e-07
4.90952e-06
1.01686e-07
4.91674e-06
9.49884e-08
4.92344e-06
8.80316e-08
4.92981e-06
8.1271e-08
4.93603e-06
7.4917e-08
4.9423e-06
6.89172e-08
4.9488e-06
6.30349e-08
4.95558e-06
5.69152e-08
4.96252e-06
5.00915e-08
4.20107e-08
4.96908e-06
5.184e-06
2.34932e-08
5.19211e-06
5.83324e-08
5.20096e-06
7.87813e-08
5.21034e-06
9.19319e-08
5.21999e-06
9.9895e-08
5.22952e-06
1.02938e-07
5.23872e-06
1.02139e-07
5.24745e-06
9.86936e-08
5.2556e-06
9.35281e-08
5.26319e-06
8.74033e-08
5.27029e-06
8.09296e-08
5.27705e-06
7.45062e-08
5.28366e-06
6.8316e-08
5.29024e-06
6.23302e-08
5.29691e-06
5.63637e-08
5.30369e-06
5.01429e-08
5.31043e-06
4.33508e-08
3.57136e-08
5.31672e-06
5.555e-06
1.98348e-08
5.56241e-06
5.09219e-08
5.57096e-06
7.02311e-08
5.58027e-06
8.26134e-08
5.59003e-06
9.01369e-08
5.59976e-06
9.32144e-08
5.60916e-06
9.27304e-08
5.61813e-06
8.97286e-08
5.62658e-06
8.50796e-08
5.6345e-06
7.94786e-08
5.64197e-06
7.34602e-08
5.6491e-06
6.73742e-08
5.65604e-06
6.13821e-08
5.66289e-06
5.5477e-08
5.66972e-06
4.95309e-08
5.67651e-06
4.33529e-08
5.68312e-06
3.67459e-08
2.96053e-08
5.68923e-06
5.95286e-06
1.6754e-08
5.95965e-06
4.41322e-08
5.96789e-06
6.19895e-08
5.97705e-06
7.34496e-08
5.9868e-06
8.03844e-08
5.99668e-06
8.33424e-08
6.00632e-06
8.30842e-08
6.01555e-06
8.05015e-08
6.02428e-06
7.63487e-08
6.03252e-06
7.12425e-08
6.04031e-06
6.56622e-08
6.04777e-06
5.99195e-08
6.05499e-06
5.41615e-08
6.06206e-06
4.84035e-08
6.06902e-06
4.25719e-08
6.07582e-06
3.65516e-08
6.08233e-06
3.02366e-08
2.36183e-08
6.08832e-06
6.37945e-06
1.41133e-08
6.3857e-06
3.78895e-08
6.39363e-06
5.40503e-08
6.40262e-06
6.44658e-08
6.41228e-06
7.07232e-08
6.42219e-06
7.34354e-08
6.432e-06
7.32721e-08
6.44149e-06
7.10079e-08
6.45055e-06
6.72945e-08
6.45913e-06
6.26602e-08
6.46727e-06
5.7522e-08
6.47504e-06
5.21516e-08
6.48252e-06
4.66802e-08
6.48978e-06
4.11431e-08
6.49684e-06
3.5513e-08
6.50365e-06
2.97422e-08
6.51009e-06
2.3792e-08
1.77045e-08
6.51601e-06
5.74282e-06
1.21311e-08
5.74771e-06
3.29986e-08
5.75419e-06
4.75643e-08
5.76165e-06
5.70121e-08
5.76972e-06
6.26505e-08
5.77807e-06
6.5087e-08
5.78641e-06
6.49267e-08
5.79457e-06
6.28506e-08
5.80243e-06
5.94386e-08
5.80993e-06
5.5155e-08
5.81709e-06
5.03644e-08
5.82393e-06
4.53116e-08
5.83048e-06
4.01252e-08
5.83678e-06
3.48463e-08
5.84283e-06
2.94614e-08
5.84861e-06
2.39659e-08
5.85404e-06
1.83644e-08
1.27289e-08
5.85901e-06
7.00019e-06
1.0095e-08
7.00544e-06
2.77539e-08
7.0126e-06
4.04003e-08
7.02096e-06
4.86482e-08
7.0301e-06
5.35154e-08
7.03961e-06
5.55725e-08
7.04919e-06
5.53457e-08
7.05863e-06
5.34133e-08
7.06779e-06
5.02787e-08
7.07661e-06
4.63414e-08
7.08506e-06
4.19108e-08
7.09317e-06
3.72026e-08
7.10095e-06
3.2346e-08
7.10839e-06
2.73992e-08
7.11548e-06
2.23723e-08
7.12218e-06
1.72734e-08
7.12842e-06
1.21214e-08
7.00652e-09
7.13414e-06
8.53293e-06
8.01033e-09
8.53849e-06
2.21963e-08
8.54631e-06
3.25807e-08
8.55559e-06
3.93678e-08
8.56582e-06
4.32851e-08
8.57656e-06
4.48335e-08
8.58745e-06
4.44514e-08
8.59826e-06
4.26069e-08
8.60882e-06
3.97182e-08
8.61904e-06
3.61185e-08
8.62889e-06
3.20644e-08
8.63835e-06
2.77402e-08
8.64743e-06
2.32651e-08
8.65612e-06
1.87086e-08
8.66438e-06
1.41112e-08
8.67216e-06
9.49904e-09
8.67938e-06
4.89928e-09
3.95686e-10
8.68599e-06
1.04014e-05
5.871e-09
1.04072e-05
1.63576e-08
1.04156e-05
2.41353e-08
1.04258e-05
2.91752e-08
1.04372e-05
3.19379e-08
1.04492e-05
3.2822e-08
1.04615e-05
3.21718e-08
1.04737e-05
3.03431e-08
1.04858e-05
2.76617e-08
1.04975e-05
2.43916e-08
1.05088e-05
2.07368e-08
1.05197e-05
1.68484e-08
1.05302e-05
1.28314e-08
1.05401e-05
8.75658e-09
1.05496e-05
4.6735e-09
1.05584e-05
6.23118e-10
1.05667e-05
-3.35609e-09
-7.18922e-09
1.05743e-05
1.2679e-05
3.66023e-09
1.26851e-05
1.02327e-08
1.26942e-05
1.50741e-08
1.27053e-05
1.80621e-08
1.27178e-05
1.94407e-08
1.27311e-05
1.94821e-08
1.27449e-05
1.84299e-08
1.27587e-05
1.65296e-08
1.27723e-05
1.40107e-08
1.27857e-05
1.1064e-08
1.27986e-05
7.83888e-09
1.2811e-05
4.44944e-09
1.28228e-05
9.79808e-10
1.28341e-05
-2.50817e-09
1.28447e-05
-5.9668e-09
1.28547e-05
-9.35511e-09
1.2864e-05
-1.26375e-08
-1.57521e-08
1.28725e-05
1.54555e-05
1.34246e-09
1.5462e-05
3.74879e-09
1.54717e-05
5.32741e-09
1.54838e-05
5.94655e-09
1.54976e-05
5.69066e-09
1.55124e-05
4.69612e-09
1.55277e-05
3.09756e-09
1.55432e-05
1.03253e-09
1.55586e-05
-1.36713e-09
1.55736e-05
-3.98896e-09
1.55882e-05
-6.74294e-09
1.56022e-05
-9.55886e-09
1.56156e-05
-1.23827e-08
1.56283e-05
-1.51725e-08
1.56402e-05
-1.78942e-08
1.56513e-05
-2.05181e-08
1.56617e-05
-2.30191e-08
-2.53518e-08
1.56713e-05
1.88401e-05
-1.16376e-09
1.88472e-05
-3.30727e-09
1.88579e-05
-5.37321e-09
1.88713e-05
-7.46354e-09
1.88866e-05
-9.62025e-09
1.89032e-05
-1.1848e-08
1.89204e-05
-1.41297e-08
1.89379e-05
-1.6437e-08
1.89552e-05
-1.8739e-08
1.89723e-05
-2.10084e-08
1.89887e-05
-2.3223e-08
1.90045e-05
-2.53658e-08
1.90196e-05
-2.7424e-08
1.90338e-05
-2.9387e-08
1.90471e-05
-3.12453e-08
1.90596e-05
-3.29891e-08
1.90712e-05
-3.46099e-08
-3.60813e-08
1.90819e-05
2.29662e-05
-4.03612e-09
2.29744e-05
-1.14574e-08
2.29867e-05
-1.77383e-08
2.30022e-05
-2.29556e-08
2.30199e-05
-2.73063e-08
2.3039e-05
-3.09598e-08
2.30589e-05
-3.4029e-08
2.30791e-05
-3.66045e-08
2.30991e-05
-3.87678e-08
2.31187e-05
-4.05887e-08
2.31376e-05
-4.2125e-08
2.31557e-05
-4.34263e-08
2.31728e-05
-4.45343e-08
2.31889e-05
-4.54828e-08
2.32039e-05
-4.62977e-08
2.32179e-05
-4.69971e-08
2.32309e-05
-4.75943e-08
-4.80845e-08
2.32429e-05
1.6813e-05
-6.30418e-09
1.68193e-05
-1.77916e-08
1.68288e-05
-2.71912e-08
1.68404e-05
-3.46283e-08
1.68536e-05
-4.05046e-08
1.68678e-05
-4.5129e-08
1.68825e-05
-4.87008e-08
1.68973e-05
-5.1397e-08
1.69119e-05
-5.33822e-08
1.69261e-05
-5.47957e-08
1.69397e-05
-5.5754e-08
1.69526e-05
-5.63574e-08
1.69648e-05
-5.66917e-08
1.69761e-05
-5.6827e-08
1.69867e-05
-5.68187e-08
1.69964e-05
-5.67082e-08
1.70053e-05
-5.65259e-08
-5.6282e-08
1.70135e-05
1.46368e-05
-8.57951e-09
1.46431e-05
-2.40329e-08
1.46521e-05
-3.62387e-08
1.46631e-05
-4.55459e-08
1.46752e-05
-5.26853e-08
1.46882e-05
-5.80928e-08
1.47015e-05
-6.20296e-08
1.47149e-05
-6.47537e-08
1.4728e-05
-6.65043e-08
1.47407e-05
-6.7478e-08
1.47528e-05
-6.78408e-08
1.47642e-05
-6.77401e-08
1.47748e-05
-6.73037e-08
1.47846e-05
-6.66379e-08
1.47936e-05
-6.58271e-08
1.48018e-05
-6.49361e-08
1.48093e-05
-6.40124e-08
-6.30798e-08
1.48161e-05
1.27426e-05
-1.10404e-08
1.27491e-05
-3.05257e-08
1.27581e-05
-4.52042e-08
1.27685e-05
-5.60283e-08
1.27801e-05
-6.42054e-08
1.27922e-05
-7.02373e-08
1.28046e-05
-7.44205e-08
1.28169e-05
-7.70969e-08
1.2829e-05
-7.85694e-08
1.28406e-05
-7.90762e-08
1.28516e-05
-7.88245e-08
1.28618e-05
-7.80053e-08
1.28713e-05
-7.6788e-08
1.288e-05
-7.5315e-08
1.28879e-05
-7.37012e-08
1.2895e-05
-7.20362e-08
1.29014e-05
-7.03863e-08
-6.87896e-08
1.29071e-05
1.10938e-05
-1.38906e-08
1.11008e-05
-3.75517e-08
1.11099e-05
-5.42552e-08
1.11201e-05
-6.62294e-08
1.11311e-05
-7.52549e-08
1.11426e-05
-8.17765e-08
1.11543e-05
-8.61084e-08
1.11659e-05
-8.86808e-08
1.11772e-05
-8.98432e-08
1.1188e-05
-8.98598e-08
1.11981e-05
-8.89712e-08
1.12075e-05
-8.7411e-08
1.12161e-05
-8.53915e-08
1.12239e-05
-8.3092e-08
1.12309e-05
-8.0659e-08
1.1237e-05
-7.82077e-08
1.12425e-05
-7.58232e-08
-7.35543e-08
1.12472e-05
9.65872e-06
-1.73995e-08
9.66652e-06
-4.53527e-08
9.67575e-06
-6.34788e-08
9.68577e-06
-7.62508e-08
9.69647e-06
-8.59505e-08
9.70751e-06
-9.28176e-08
9.7186e-06
-9.71987e-08
9.72953e-06
-9.96124e-08
9.74012e-06
-1.00431e-07
9.75019e-06
-9.99309e-08
9.7596e-06
-9.83804e-08
9.76824e-06
-9.60567e-08
9.77607e-06
-9.32159e-08
9.78305e-06
-9.00743e-08
9.7892e-06
-8.68128e-08
9.79457e-06
-8.35761e-08
9.79922e-06
-8.04743e-08
-7.75697e-08
9.80324e-06
8.40993e-06
-2.19787e-08
8.41873e-06
-5.41498e-08
8.42815e-06
-7.29021e-08
8.43805e-06
-8.61466e-08
8.44843e-06
-9.63305e-08
8.45896e-06
-1.03354e-07
8.46942e-06
-1.07655e-07
8.47965e-06
-1.09845e-07
8.48952e-06
-1.10293e-07
8.49885e-06
-1.09268e-07
8.50753e-06
-1.07058e-07
8.51546e-06
-1.03985e-07
8.52259e-06
-1.00344e-07
8.52889e-06
-9.63772e-08
8.53438e-06
-9.23013e-08
8.53909e-06
-8.82923e-08
8.54309e-06
-8.44748e-08
-8.08735e-08
8.5464e-06
7.32358e-06
-2.82695e-08
7.33362e-06
-6.41953e-08
7.34319e-06
-8.24705e-08
7.35285e-06
-9.58096e-08
7.36281e-06
-1.06286e-07
7.37279e-06
-1.13337e-07
7.38266e-06
-1.17524e-07
7.39235e-06
-1.19533e-07
7.40175e-06
-1.19691e-07
7.41072e-06
-1.18243e-07
7.41914e-06
-1.15472e-07
7.42688e-06
-1.11729e-07
7.43388e-06
-1.07342e-07
7.44008e-06
-1.02583e-07
7.4455e-06
-9.77136e-08
7.45016e-06
-9.29601e-08
7.45419e-06
-8.8496e-08
-8.44077e-08
7.45772e-06
6.37891e-06
-3.71138e-08
6.39062e-06
-7.59031e-08
6.40075e-06
-9.2599e-08
6.41097e-06
-1.06032e-07
6.42144e-06
-1.16756e-07
6.43198e-06
-1.2388e-07
6.44258e-06
-1.28128e-07
6.45324e-06
-1.30192e-07
6.46385e-06
-1.303e-07
6.47425e-06
-1.28645e-07
6.48428e-06
-1.25494e-07
6.49369e-06
-1.21145e-07
6.50229e-06
-1.15941e-07
6.50997e-06
-1.10257e-07
6.51669e-06
-1.04435e-07
6.52251e-06
-9.878e-08
6.52742e-06
-9.34151e-08
-8.84588e-08
6.53148e-06
5.55999e-06
-5.16348e-08
5.57641e-06
-9.23239e-08
5.59195e-06
-1.08148e-07
5.60945e-06
-1.23524e-07
5.62824e-06
-1.35547e-07
5.64752e-06
-1.43166e-07
5.66693e-06
-1.47531e-07
5.68591e-06
-1.49175e-07
5.70383e-06
-1.48217e-07
5.72006e-06
-1.44875e-07
5.73408e-06
-1.39516e-07
5.74555e-06
-1.32621e-07
5.75434e-06
-1.24722e-07
5.76039e-06
-1.16307e-07
5.76376e-06
-1.07809e-07
5.76464e-06
-9.96628e-08
5.76335e-06
-9.21265e-08
-8.57436e-08
5.76064e-06
4.88591e-06
-1.09935e-07
4.9365e-06
-1.42919e-07
4.97833e-06
-1.49971e-07
5.0097e-06
-1.54898e-07
5.02924e-06
-1.55087e-07
5.03738e-06
-1.51299e-07
5.03472e-06
-1.44879e-07
5.0221e-06
-1.36549e-07
5.00058e-06
-1.26695e-07
4.97139e-06
-1.15688e-07
4.93581e-06
-1.03935e-07
4.89505e-06
-9.18611e-08
4.85021e-06
-7.98842e-08
4.80227e-06
-6.83663e-08
4.75206e-06
-5.75963e-08
4.70026e-06
-4.78695e-08
4.64748e-06
-3.9343e-08
-3.22521e-08
4.59399e-06
4.09274e-06
3.94982e-06
3.79985e-06
3.64495e-06
3.48986e-06
3.33856e-06
3.19369e-06
3.05714e-06
2.93044e-06
2.81475e-06
2.71082e-06
2.61896e-06
2.53907e-06
2.47071e-06
2.41311e-06
2.36524e-06
2.3259e-06
2.29365e-06
-5.99774e-09
5.99774e-09
-1.3421e-08
7.42329e-09
-2.17968e-08
8.37577e-09
-3.09194e-08
9.12264e-09
-4.06382e-08
9.71873e-09
-5.0834e-08
1.01958e-08
-6.14099e-08
1.05759e-08
-7.22868e-08
1.08769e-08
-8.34026e-08
1.11158e-08
-9.47125e-08
1.13099e-08
-1.0619e-07
1.1477e-08
-1.17826e-07
1.16368e-08
-1.2964e-07
1.18133e-08
-1.41681e-07
1.20412e-08
-1.54003e-07
1.23223e-08
-1.66591e-07
1.25873e-08
-1.7939e-07
1.27996e-08
-1.9238e-07
1.29902e-08
-2.05563e-07
1.31828e-08
-2.18949e-07
1.3386e-08
-2.3255e-07
1.36013e-08
-2.46379e-07
1.3829e-08
-2.60449e-07
1.40691e-08
-2.7477e-07
1.43217e-08
-2.89357e-07
1.45864e-08
-3.04219e-07
1.48627e-08
-3.19369e-07
1.51497e-08
-3.34816e-07
1.54467e-08
-3.50568e-07
1.57524e-08
-3.66634e-07
1.60659e-08
-3.8302e-07
1.63858e-08
-3.99731e-07
1.6711e-08
-4.16771e-07
1.70402e-08
-4.34143e-07
1.7372e-08
-4.51848e-07
1.77051e-08
-4.69886e-07
1.80381e-08
-4.88256e-07
1.83694e-08
-5.06953e-07
1.86977e-08
-5.25974e-07
1.90213e-08
-5.45313e-07
1.93386e-08
-5.64961e-07
1.96481e-08
-5.84909e-07
1.99481e-08
-6.05146e-07
2.02369e-08
-6.25659e-07
2.05127e-08
-6.46433e-07
2.0774e-08
-6.67452e-07
2.10191e-08
-6.88698e-07
2.12462e-08
-7.10152e-07
2.14539e-08
-7.31793e-07
2.16405e-08
-7.53597e-07
2.18047e-08
-7.75542e-07
2.1945e-08
-7.97603e-07
2.20603e-08
-8.19752e-07
2.21494e-08
-8.41963e-07
2.22114e-08
-8.64209e-07
2.22453e-08
-8.86459e-07
2.22506e-08
-9.08686e-07
2.22268e-08
-9.3086e-07
2.21735e-08
-9.5295e-07
2.20906e-08
-9.74928e-07
2.19782e-08
-9.96765e-07
2.18363e-08
-1.01843e-06
2.16655e-08
-1.0399e-06
2.1466e-08
-1.06113e-06
2.12383e-08
-1.08212e-06
2.09832e-08
-1.10282e-06
2.0701e-08
-1.12321e-06
2.03926e-08
-1.14327e-06
2.00587e-08
-1.16297e-06
1.97e-08
-1.18229e-06
1.93172e-08
-1.2012e-06
1.89114e-08
-1.21968e-06
1.84835e-08
-1.23772e-06
1.80346e-08
-1.25528e-06
1.75658e-08
-1.27236e-06
1.70784e-08
-1.28893e-06
1.65739e-08
-1.30499e-06
1.60539e-08
-1.32051e-06
1.552e-08
-1.33548e-06
1.49743e-08
-1.3499e-06
1.44189e-08
-1.36376e-06
1.3856e-08
-1.37705e-06
1.32879e-08
-1.38976e-06
1.27171e-08
-1.40191e-06
1.2146e-08
-1.41349e-06
1.15769e-08
-1.4245e-06
1.1012e-08
-1.43495e-06
1.04535e-08
-1.44485e-06
9.90321e-09
-1.45422e-06
9.36305e-09
-1.46305e-06
8.83481e-09
-1.47137e-06
8.32026e-09
-1.47919e-06
7.82121e-09
-1.48653e-06
7.33947e-09
-1.49341e-06
6.87686e-09
-1.49984e-06
6.43495e-09
-1.50586e-06
6.01516e-09
-1.51148e-06
5.61848e-09
-1.51672e-06
5.24544e-09
-1.52162e-06
4.89613e-09
-1.52619e-06
4.57007e-09
-1.53046e-06
4.26626e-09
-1.53444e-06
3.98311e-09
-1.53816e-06
3.7186e-09
-1.54163e-06
3.47014e-09
-1.54486e-06
3.23491e-09
-1.54787e-06
3.00976e-09
-1.55066e-06
2.79151e-09
-1.55324e-06
2.57695e-09
-1.5556e-06
2.36301e-09
-1.55775e-06
2.14676e-09
-1.55968e-06
1.92545e-09
-1.56137e-06
1.69627e-09
-1.56283e-06
1.4561e-09
-1.56403e-06
1.20249e-09
-1.56496e-06
9.31587e-10
-1.56559e-06
6.28666e-10
-1.56591e-06
3.23146e-10
-1.56594e-06
2.43597e-11
-1.5656e-06
-3.40817e-10
-1.56488e-06
-7.17235e-10
-1.56378e-06
-1.09754e-09
-1.56229e-06
-1.49456e-09
-1.56038e-06
-1.91091e-09
-1.55803e-06
-2.34746e-09
-1.55523e-06
-2.8045e-09
-1.55194e-06
-3.28223e-09
-1.54816e-06
-3.78108e-09
-1.54386e-06
-4.30151e-09
-1.53902e-06
-4.8443e-09
-1.53361e-06
-5.41029e-09
-1.52761e-06
-6.00026e-09
-1.52099e-06
-6.61509e-09
-1.51374e-06
-7.25559e-09
-1.50581e-06
-7.92272e-09
-1.4972e-06
-8.61735e-09
-1.48786e-06
-9.34024e-09
-1.47776e-06
-1.00914e-08
-1.46689e-06
-1.08717e-08
-1.45521e-06
-1.16838e-08
-1.44268e-06
-1.25287e-08
-1.42927e-06
-1.34078e-08
-1.41495e-06
-1.43224e-08
-1.39968e-06
-1.52729e-08
-1.38342e-06
-1.62592e-08
-1.36614e-06
-1.72804e-08
-1.3478e-06
-1.83359e-08
-1.32838e-06
-1.94251e-08
-1.30783e-06
-2.05486e-08
-1.28612e-06
-2.17082e-08
-1.26321e-06
-2.29072e-08
-1.23906e-06
-2.41479e-08
-1.21363e-06
-2.54311e-08
-1.18688e-06
-2.67559e-08
-1.15876e-06
-2.81208e-08
-1.12923e-06
-2.9524e-08
-1.09827e-06
-3.09642e-08
-1.06583e-06
-3.24429e-08
-1.03186e-06
-3.39612e-08
-9.96347e-07
-3.55167e-08
-9.59242e-07
-3.71056e-08
-9.20519e-07
-3.87228e-08
-8.80155e-07
-4.03638e-08
-8.38127e-07
-4.2028e-08
-7.94414e-07
-4.37134e-08
-7.49001e-07
-4.5413e-08
-7.01882e-07
-4.71186e-08
-6.53056e-07
-4.88263e-08
-6.02517e-07
-5.05386e-08
-5.50257e-07
-5.22601e-08
-4.96259e-07
-5.39983e-08
-4.40484e-07
-5.57753e-08
-3.8286e-07
-5.76234e-08
-3.23302e-07
-5.95584e-08
-2.61924e-07
-6.1378e-08
-2.00016e-07
-6.1908e-08
-1.41382e-07
-5.8634e-08
-8.55033e-08
-5.58785e-08
-2.95373e-08
-5.59659e-08
2.6404e-08
-5.59413e-08
-4.76808e-08
7.40848e-08
-7.79312e-09
1.37909e-08
-1.63903e-08
1.60204e-08
-2.57114e-08
1.76969e-08
-3.55778e-08
1.8989e-08
-4.58873e-08
2.00283e-08
-5.65725e-08
2.0881e-08
-6.75867e-08
2.15901e-08
-7.88984e-08
2.21886e-08
-9.0486e-08
2.27034e-08
-1.02335e-07
2.3159e-08
-1.14436e-07
2.35782e-08
-1.26782e-07
2.39823e-08
-1.3936e-07
2.4392e-08
-1.52144e-07
2.48247e-08
-1.65108e-07
2.52859e-08
-1.78278e-07
2.57582e-08
-1.91702e-07
2.62227e-08
-2.05393e-07
2.66814e-08
-2.19353e-07
2.71435e-08
-2.33584e-07
2.76165e-08
-2.48088e-07
2.81054e-08
-2.62872e-07
2.86131e-08
-2.77944e-07
2.91411e-08
-2.93313e-07
2.96904e-08
-3.08988e-07
3.02611e-08
-3.24978e-07
3.08527e-08
-3.41292e-07
3.14641e-08
-3.57939e-07
3.20939e-08
-3.74927e-07
3.27403e-08
-3.92263e-07
3.34014e-08
-4.09952e-07
3.40747e-08
-4.27999e-07
3.47581e-08
-4.46407e-07
3.54487e-08
-4.65179e-07
3.61439e-08
-4.84315e-07
3.68408e-08
-5.03813e-07
3.75364e-08
-5.23671e-07
3.82277e-08
-5.43885e-07
3.89114e-08
-5.64448e-07
3.95842e-08
-5.85352e-07
4.02428e-08
-6.06588e-07
4.08836e-08
-6.28143e-07
4.15031e-08
-6.50003e-07
4.20977e-08
-6.72155e-07
4.26639e-08
-6.94579e-07
4.31981e-08
-7.17257e-07
4.36968e-08
-7.40167e-07
4.41565e-08
-7.63287e-07
4.45738e-08
-7.86592e-07
4.49457e-08
-8.10056e-07
4.52691e-08
-8.33653e-07
4.55414e-08
-8.57352e-07
4.57599e-08
-8.81125e-07
4.59225e-08
-9.04941e-07
4.60272e-08
-9.28769e-07
4.60725e-08
-9.52575e-07
4.60572e-08
-9.76329e-07
4.59804e-08
-9.99997e-07
4.58416e-08
-1.02355e-06
4.56409e-08
-1.04695e-06
4.53784e-08
-1.07017e-06
4.50548e-08
-1.09317e-06
4.46709e-08
-1.11593e-06
4.42279e-08
-1.13842e-06
4.37269e-08
-1.16061e-06
4.31694e-08
-1.18246e-06
4.2557e-08
-1.20396e-06
4.18911e-08
-1.22508e-06
4.11736e-08
-1.24578e-06
4.04063e-08
-1.26606e-06
3.95912e-08
-1.28588e-06
3.87304e-08
-1.30522e-06
3.78263e-08
-1.32407e-06
3.68814e-08
-1.3424e-06
3.58985e-08
-1.3602e-06
3.48808e-08
-1.37746e-06
3.38316e-08
-1.39416e-06
3.27544e-08
-1.41029e-06
3.1653e-08
-1.42585e-06
3.05317e-08
-1.44083e-06
2.93945e-08
-1.45522e-06
2.82456e-08
-1.46902e-06
2.70892e-08
-1.48223e-06
2.59295e-08
-1.49485e-06
2.47702e-08
-1.50689e-06
2.36152e-08
-1.51835e-06
2.2468e-08
-1.52923e-06
2.13321e-08
-1.53953e-06
2.02109e-08
-1.54928e-06
1.91079e-08
-1.55847e-06
1.80267e-08
-1.56712e-06
1.69711e-08
-1.57525e-06
1.59449e-08
-1.58286e-06
1.49523e-08
-1.58998e-06
1.39971e-08
-1.59663e-06
1.30829e-08
-1.60282e-06
1.22128e-08
-1.60859e-06
1.13886e-08
-1.61396e-06
1.06117e-08
-1.61895e-06
9.88182e-09
-1.62357e-06
9.1979e-09
-1.62787e-06
8.5575e-09
-1.63184e-06
7.95712e-09
-1.63551e-06
7.3921e-09
-1.6389e-06
6.85693e-09
-1.64201e-06
6.34541e-09
-1.64485e-06
5.85089e-09
-1.64743e-06
5.36659e-09
-1.64973e-06
4.8858e-09
-1.65177e-06
4.40214e-09
-1.65354e-06
3.90958e-09
-1.65501e-06
3.40261e-09
-1.65619e-06
2.8761e-09
-1.65706e-06
2.32483e-09
-1.6576e-06
1.74374e-09
-1.6578e-06
1.13088e-09
-1.65762e-06
4.40933e-10
-1.65702e-06
-2.7069e-10
-1.65607e-06
-9.31937e-10
-1.65473e-06
-1.67488e-09
-1.65297e-06
-2.47426e-09
-1.65075e-06
-3.3188e-09
-1.64804e-06
-4.2053e-09
-1.64482e-06
-5.13332e-09
-1.64106e-06
-6.10311e-09
-1.63675e-06
-7.11494e-09
-1.63187e-06
-8.16904e-09
-1.62638e-06
-9.26577e-09
-1.62028e-06
-1.04058e-08
-1.61353e-06
-1.15902e-08
-1.60612e-06
-1.28201e-08
-1.59803e-06
-1.40965e-08
-1.58922e-06
-1.54205e-08
-1.57968e-06
-1.67931e-08
-1.56939e-06
-1.82153e-08
-1.55832e-06
-1.96883e-08
-1.54645e-06
-2.1213e-08
-1.53375e-06
-2.279e-08
-1.5202e-06
-2.44203e-08
-1.50578e-06
-2.6106e-08
-1.49046e-06
-2.78499e-08
-1.47421e-06
-2.96553e-08
-1.45701e-06
-3.15255e-08
-1.43882e-06
-3.34629e-08
-1.4196e-06
-3.54699e-08
-1.39934e-06
-3.75482e-08
-1.37797e-06
-3.96991e-08
-1.35548e-06
-4.19235e-08
-1.3318e-06
-4.42218e-08
-1.30692e-06
-4.65951e-08
-1.28078e-06
-4.90455e-08
-1.25335e-06
-5.15737e-08
-1.2246e-06
-5.4178e-08
-1.19451e-06
-5.68551e-08
-1.16303e-06
-5.96011e-08
-1.13014e-06
-6.24111e-08
-1.09582e-06
-6.52813e-08
-1.06005e-06
-6.82129e-08
-1.02281e-06
-7.12064e-08
-9.84066e-07
-7.42564e-08
-9.43817e-07
-7.73543e-08
-9.02051e-07
-8.04893e-08
-8.58764e-07
-8.36509e-08
-8.13956e-07
-8.68356e-08
-7.67632e-07
-9.00377e-08
-7.19802e-07
-9.32425e-08
-6.70488e-07
-9.64335e-08
-6.19714e-07
-9.95994e-08
-5.67513e-07
-1.0274e-07
-5.13919e-07
-1.05855e-07
-4.58972e-07
-1.08945e-07
-4.02727e-07
-1.1202e-07
-3.45269e-07
-1.15081e-07
-2.86789e-07
-1.18039e-07
-2.27743e-07
-1.20424e-07
-1.69059e-07
-1.20592e-07
-1.10637e-07
-1.17056e-07
-5.17429e-08
-1.14772e-07
7.3143e-09
-1.15023e-07
6.58636e-08
-1.14491e-07
-1.04308e-07
1.22491e-07
-8.82224e-09
2.26131e-08
-1.82405e-08
2.54388e-08
-2.8104e-08
2.75603e-08
-3.84266e-08
2.93116e-08
-4.91597e-08
3.07614e-08
-6.02582e-08
3.19794e-08
-7.16876e-08
3.30196e-08
-8.3423e-08
3.3924e-08
-9.54465e-08
3.4727e-08
-1.07745e-07
3.54579e-08
-1.2031e-07
3.61428e-08
-1.33132e-07
3.68046e-08
-1.46203e-07
3.74625e-08
-1.59509e-07
3.8131e-08
-1.73039e-07
3.88163e-08
-1.86797e-07
3.95158e-08
-2.008e-07
4.02252e-08
-2.15064e-07
4.09456e-08
-2.29602e-07
4.16814e-08
-2.44423e-07
4.24377e-08
-2.59536e-07
4.32185e-08
-2.7495e-07
4.40267e-08
-2.90673e-07
4.48643e-08
-3.06714e-07
4.5732e-08
-3.23083e-07
4.66298e-08
-3.39787e-07
4.75569e-08
-3.56835e-07
4.85118e-08
-3.74233e-07
4.94923e-08
-3.91989e-07
5.04959e-08
-4.10107e-07
5.15194e-08
-4.28592e-07
5.25594e-08
-4.47446e-07
5.36123e-08
-4.66671e-07
5.4674e-08
-4.86268e-07
5.57403e-08
-5.06234e-07
5.68067e-08
-5.26566e-07
5.78686e-08
-5.47259e-07
5.89211e-08
-5.68307e-07
5.99592e-08
-5.897e-07
6.09778e-08
-6.11429e-07
6.19715e-08
-6.33481e-07
6.2935e-08
-6.5584e-07
6.38627e-08
-6.78492e-07
6.47491e-08
-7.01417e-07
6.55887e-08
-7.24594e-07
6.63759e-08
-7.48003e-07
6.71054e-08
-7.71618e-07
6.7772e-08
-7.95415e-07
6.83706e-08
-8.19366e-07
6.88965e-08
-8.43442e-07
6.93455e-08
-8.67614e-07
6.97133e-08
-8.91851e-07
6.99965e-08
-9.1612e-07
7.01919e-08
-9.4039e-07
7.0297e-08
-9.64627e-07
7.03095e-08
-9.88798e-07
7.02281e-08
-1.01287e-06
7.00518e-08
-1.03681e-06
6.97804e-08
-1.06058e-06
6.94142e-08
-1.08416e-06
6.8954e-08
-1.1075e-06
6.84013e-08
-1.13059e-06
6.77578e-08
-1.15339e-06
6.70256e-08
-1.17587e-06
6.6207e-08
-1.198e-06
6.53047e-08
-1.21977e-06
6.43212e-08
-1.24114e-06
6.32594e-08
-1.26208e-06
6.21221e-08
-1.28259e-06
6.09125e-08
-1.30263e-06
5.96339e-08
-1.32219e-06
5.82897e-08
-1.34125e-06
5.68839e-08
-1.35979e-06
5.54204e-08
-1.37779e-06
5.39038e-08
-1.39525e-06
5.23388e-08
-1.41215e-06
5.07305e-08
-1.42848e-06
4.90844e-08
-1.44423e-06
4.7406e-08
-1.4594e-06
4.57012e-08
-1.47399e-06
4.39755e-08
-1.48797e-06
4.22348e-08
-1.50137e-06
4.04845e-08
-1.51417e-06
3.87297e-08
-1.52638e-06
3.69755e-08
-1.53799e-06
3.52265e-08
-1.54901e-06
3.34875e-08
-1.55944e-06
3.17629e-08
-1.56928e-06
3.00576e-08
-1.57855e-06
2.83766e-08
-1.58725e-06
2.67251e-08
-1.59539e-06
2.5109e-08
-1.60298e-06
2.35342e-08
-1.61003e-06
2.20073e-08
-1.61657e-06
2.05344e-08
-1.62261e-06
1.91213e-08
-1.62817e-06
1.77727e-08
-1.63327e-06
1.64919e-08
-1.63794e-06
1.52805e-08
-1.6422e-06
1.41384e-08
-1.64606e-06
1.30636e-08
-1.64956e-06
1.20525e-08
-1.6527e-06
1.10994e-08
-1.65551e-06
1.01973e-08
-1.65799e-06
9.33736e-09
-1.66015e-06
8.51016e-09
-1.662e-06
7.70549e-09
-1.66355e-06
6.91303e-09
-1.66479e-06
6.12261e-09
-1.66571e-06
5.32466e-09
-1.66631e-06
4.51025e-09
-1.66658e-06
3.67104e-09
-1.6665e-06
2.79975e-09
-1.66607e-06
1.89053e-09
-1.66526e-06
9.35451e-10
-1.66411e-06
-1.92503e-11
-1.66255e-06
-1.11959e-09
-1.6606e-06
-2.22408e-09
-1.65817e-06
-3.36323e-09
-1.65527e-06
-4.56856e-09
-1.6519e-06
-5.84302e-09
-1.64804e-06
-7.18322e-09
-1.64366e-06
-8.58711e-09
-1.63874e-06
-1.00534e-08
-1.63326e-06
-1.15817e-08
-1.6272e-06
-1.31714e-08
-1.62055e-06
-1.48225e-08
-1.61328e-06
-1.65348e-08
-1.60538e-06
-1.83091e-08
-1.59682e-06
-2.01467e-08
-1.58759e-06
-2.20492e-08
-1.57767e-06
-2.40179e-08
-1.56703e-06
-2.60543e-08
-1.55567e-06
-2.81599e-08
-1.54355e-06
-3.03363e-08
-1.53065e-06
-3.25851e-08
-1.51696e-06
-3.49081e-08
-1.50244e-06
-3.73069e-08
-1.48708e-06
-3.97835e-08
-1.47084e-06
-4.23408e-08
-1.45371e-06
-4.49831e-08
-1.43565e-06
-4.77162e-08
-1.41663e-06
-5.05457e-08
-1.39661e-06
-5.34759e-08
-1.37557e-06
-5.651e-08
-1.35347e-06
-5.96504e-08
-1.33027e-06
-6.28976e-08
-1.30594e-06
-6.62509e-08
-1.28046e-06
-6.97078e-08
-1.25379e-06
-7.32668e-08
-1.2259e-06
-7.69288e-08
-1.19678e-06
-8.06946e-08
-1.1664e-06
-8.4561e-08
-1.13473e-06
-8.85238e-08
-1.10176e-06
-9.25772e-08
-1.06745e-06
-9.67137e-08
-1.03181e-06
-1.00926e-07
-9.94805e-07
-1.05215e-07
-9.56431e-07
-1.09581e-07
-9.16671e-07
-1.14016e-07
-8.75518e-07
-1.18508e-07
-8.32967e-07
-1.2304e-07
-7.89022e-07
-1.27596e-07
-7.43686e-07
-1.32171e-07
-6.96966e-07
-1.36757e-07
-6.48875e-07
-1.41334e-07
-5.9943e-07
-1.45879e-07
-5.48654e-07
-1.50376e-07
-4.96571e-07
-1.54823e-07
-4.43207e-07
-1.59219e-07
-3.88596e-07
-1.63556e-07
-3.32788e-07
-1.67829e-07
-2.75873e-07
-1.71996e-07
-2.18035e-07
-1.75877e-07
-1.59573e-07
-1.78885e-07
-1.0061e-07
-1.79555e-07
-4.05228e-08
-1.77143e-07
2.04661e-08
-1.75761e-07
8.1455e-08
-1.76012e-07
1.42543e-07
-1.75579e-07
-1.65373e-07
2.03608e-07
-9.5415e-09
3.21546e-08
-1.96109e-08
3.55081e-08
-3.00564e-08
3.80059e-08
-4.08967e-08
4.01519e-08
-5.21036e-08
4.19684e-08
-6.36462e-08
4.35219e-08
-7.54998e-08
4.48732e-08
-8.7647e-08
4.60711e-08
-1.00075e-07
4.71549e-08
-1.12774e-07
4.81572e-08
-1.25737e-07
4.91058e-08
-1.38957e-07
5.00244e-08
-1.52427e-07
5.09322e-08
-1.6614e-07
5.18441e-08
-1.80093e-07
5.27696e-08
-1.94291e-07
5.37134e-08
-2.08744e-07
5.46782e-08
-2.23465e-07
5.56668e-08
-2.38466e-07
5.66829e-08
-2.53759e-07
5.77303e-08
-2.69353e-07
5.88121e-08
-2.85257e-07
5.99305e-08
-3.01479e-07
6.10868e-08
-3.18028e-07
6.22813e-08
-3.34912e-07
6.35135e-08
-3.52137e-07
6.47817e-08
-3.69709e-07
6.60837e-08
-3.87633e-07
6.74164e-08
-4.05913e-07
6.87762e-08
-4.24552e-07
7.01587e-08
-4.43552e-07
7.15592e-08
-4.62912e-07
7.29726e-08
-4.82632e-07
7.43934e-08
-5.02707e-07
7.58156e-08
-5.23134e-07
7.72332e-08
-5.43905e-07
7.86398e-08
-5.65012e-07
8.00286e-08
-5.86446e-07
8.13928e-08
-6.08193e-07
8.27253e-08
-6.30241e-07
8.4019e-08
-6.52572e-07
8.52664e-08
-6.7517e-07
8.64602e-08
-6.98013e-07
8.75927e-08
-7.21081e-07
8.86566e-08
-7.4435e-07
8.96446e-08
-7.67794e-07
9.05495e-08
-7.91387e-07
9.13646e-08
-8.15099e-07
9.20834e-08
-8.38903e-07
9.26999e-08
-8.62766e-07
9.32087e-08
-8.86658e-07
9.36048e-08
-9.10545e-07
9.38839e-08
-9.34395e-07
9.40424e-08
-9.58176e-07
9.40773e-08
-9.81853e-07
9.39865e-08
-1.00539e-06
9.37686e-08
-1.02876e-06
9.34232e-08
-1.05193e-06
9.29507e-08
-1.07487e-06
9.23521e-08
-1.09755e-06
9.16295e-08
-1.11993e-06
9.07855e-08
-1.142e-06
8.98232e-08
-1.16372e-06
8.87462e-08
-1.18507e-06
8.75581e-08
-1.20603e-06
8.62629e-08
-1.22657e-06
8.48645e-08
-1.24668e-06
8.3367e-08
-1.26633e-06
8.17744e-08
-1.28551e-06
8.0091e-08
-1.3042e-06
7.83212e-08
-1.32238e-06
7.64699e-08
-1.34004e-06
7.4542e-08
-1.35716e-06
7.2543e-08
-1.37373e-06
7.04787e-08
-1.38975e-06
6.83553e-08
-1.4052e-06
6.61794e-08
-1.42007e-06
6.39578e-08
-1.43436e-06
6.16976e-08
-1.44807e-06
5.94062e-08
-1.46118e-06
5.70908e-08
-1.47371e-06
5.47584e-08
-1.48564e-06
5.24158e-08
-1.49698e-06
5.00696e-08
-1.50773e-06
4.7726e-08
-1.51789e-06
4.53908e-08
-1.52748e-06
4.30699e-08
-1.53648e-06
4.07689e-08
-1.54492e-06
3.84939e-08
-1.55279e-06
3.62509e-08
-1.56011e-06
3.40466e-08
-1.56689e-06
3.18883e-08
-1.57314e-06
2.97839e-08
-1.57888e-06
2.77415e-08
-1.58411e-06
2.57695e-08
-1.58887e-06
2.38755e-08
-1.59316e-06
2.20657e-08
-1.59701e-06
2.03443e-08
-1.60044e-06
1.87132e-08
-1.60348e-06
1.71722e-08
-1.60613e-06
1.57184e-08
-1.60843e-06
1.43467e-08
-1.61038e-06
1.30496e-08
-1.612e-06
1.18173e-08
-1.6133e-06
1.06382e-08
-1.61429e-06
9.49946e-09
-1.61497e-06
8.38752e-09
-1.61534e-06