/*--------------------------------*- C++ -*----------------------------------*\
| =========                 |                                                 |
| \\      /  F ield         | OpenFOAM: The Open Source CFD Toolbox           |
|  \\    /   O peration     | Version:  2112                                  |
|   \\  /    A nd           | Website:  www.openfoam.com                      |
|    \\/     M anipulation  |                                                 |
\*---------------------------------------------------------------------------*/
FoamFile
{
    version     2.0;
    format      ascii;
    arch        "LSB;label=32;scalar=64";
    class       volScalarField;
    location    "0.06";
    object      nut;
}
// * * * * * * * * * * * * * * * * * * * * * * * * * * * * * * * * * * * * * //

dimensions      [0 2 -1 0 0 0 0];

internalField   nonuniform List<scalar> 
12225
(
1.39868e-06
2.33707e-06
3.22217e-06
4.16694e-06
5.2571e-06
6.55862e-06
8.12886e-06
1.00217e-05
1.22954e-05
1.5008e-05
1.82188e-05
2.19861e-05
2.63633e-05
3.13955e-05
3.71185e-05
4.35507e-05
5.07404e-05
5.86056e-05
1.17729e-05
6.48187e-06
5.24699e-06
4.95638e-06
5.07501e-06
5.4503e-06
6.03126e-06
6.808e-06
7.79417e-06
9.00485e-06
1.04521e-05
1.2146e-05
1.40962e-05
1.63151e-05
1.88226e-05
2.16643e-05
2.4963e-05
2.8981e-05
7.38099e-05
2.92256e-05
2.17879e-05
2.01149e-05
1.66623e-05
1.37128e-05
1.18788e-05
1.07243e-05
1.0027e-05
9.67213e-06
9.59312e-06
9.74886e-06
1.01145e-05
1.06796e-05
1.1449e-05
1.24509e-05
1.37429e-05
1.54234e-05
9.36415e-05
8.96203e-05
8.25227e-05
7.32129e-05
6.33338e-05
4.96663e-05
4.12073e-05
3.60907e-05
3.28425e-05
3.05329e-05
2.72294e-05
2.45845e-05
2.24647e-05
2.0769e-05
1.9422e-05
1.83738e-05
1.76098e-05
1.71554e-05
9.44927e-05
9.41617e-05
9.35191e-05
9.23881e-05
9.06201e-05
8.81414e-05
8.49714e-05
8.12281e-05
7.70468e-05
7.25841e-05
6.80126e-05
6.34658e-05
5.90305e-05
5.472e-05
5.05457e-05
4.65397e-05
4.27197e-05
3.91246e-05
9.45134e-05
9.43613e-05
9.41975e-05
9.40023e-05
9.37508e-05
9.34151e-05
9.29669e-05
9.23789e-05
9.16244e-05
9.06791e-05
8.95244e-05
8.8145e-05
8.65242e-05
8.46271e-05
8.24151e-05
7.98568e-05
7.69167e-05
7.35656e-05
9.4511e-05
9.43632e-05
9.42206e-05
9.40815e-05
9.39441e-05
9.38055e-05
9.36615e-05
9.35071e-05
9.33365e-05
9.3143e-05
9.29191e-05
9.26562e-05
9.23436e-05
9.19672e-05
9.15077e-05
9.09383e-05
9.0223e-05
8.9315e-05
9.4509e-05
9.43597e-05
9.42165e-05
9.40791e-05
9.39472e-05
9.38206e-05
9.36985e-05
9.358e-05
9.34644e-05
9.33507e-05
9.32378e-05
9.31246e-05
9.30095e-05
9.28908e-05
9.2766e-05
9.2631e-05
9.248e-05
9.2304e-05
9.45076e-05
9.43572e-05
9.42131e-05
9.4075e-05
9.39427e-05
9.3816e-05
9.36946e-05
9.3578e-05
9.3466e-05
9.33585e-05
9.32554e-05
9.31567e-05
9.30626e-05
9.29736e-05
9.28905e-05
9.28142e-05
9.27456e-05
9.26861e-05
9.45066e-05
9.43553e-05
9.42106e-05
9.4072e-05
9.39392e-05
9.38122e-05
9.36904e-05
9.35737e-05
9.34619e-05
9.33548e-05
9.32526e-05
9.31553e-05
9.30635e-05
9.29777e-05
9.28993e-05
9.28295e-05
9.27704e-05
9.27243e-05
9.45054e-05
9.43532e-05
9.42077e-05
9.40684e-05
9.39352e-05
9.38077e-05
9.36856e-05
9.35687e-05
9.34568e-05
9.33498e-05
9.32478e-05
9.3151e-05
9.30599e-05
9.29751e-05
9.28976e-05
9.2829e-05
9.27709e-05
9.27256e-05
9.45038e-05
9.43502e-05
9.42034e-05
9.40632e-05
9.3929e-05
9.38007e-05
9.3678e-05
9.35605e-05
9.34483e-05
9.33412e-05
9.32393e-05
9.31428e-05
9.30521e-05
9.29679e-05
9.28912e-05
9.28232e-05
9.27656e-05
9.27203e-05
9.4502e-05
9.43467e-05
9.41984e-05
9.40568e-05
9.39215e-05
9.37922e-05
9.36686e-05
9.35505e-05
9.34378e-05
9.33303e-05
9.32283e-05
9.31319e-05
9.30415e-05
9.29579e-05
9.28817e-05
9.28143e-05
9.2757e-05
9.27115e-05
9.45002e-05
9.43432e-05
9.41934e-05
9.40505e-05
9.3914e-05
9.37837e-05
9.36593e-05
9.35406e-05
9.34274e-05
9.33198e-05
9.32178e-05
9.31216e-05
9.30317e-05
9.29485e-05
9.28729e-05
9.28059e-05
9.27486e-05
9.27023e-05
9.44987e-05
9.43403e-05
9.41893e-05
9.40453e-05
9.3908e-05
9.3777e-05
9.36521e-05
9.35331e-05
9.34199e-05
9.33124e-05
9.32107e-05
9.3115e-05
9.30257e-05
9.29432e-05
9.28681e-05
9.28013e-05
9.27436e-05
9.26959e-05
9.44977e-05
9.43382e-05
9.41863e-05
9.40416e-05
9.39037e-05
9.37724e-05
9.36473e-05
9.35284e-05
9.34154e-05
9.33083e-05
9.32073e-05
9.31124e-05
9.30238e-05
9.2942e-05
9.28673e-05
9.28004e-05
9.27418e-05
9.2692e-05
9.44969e-05
9.43367e-05
9.41841e-05
9.40389e-05
9.39008e-05
9.37693e-05
9.36444e-05
9.35257e-05
9.34132e-05
9.33068e-05
9.32065e-05
9.31124e-05
9.30246e-05
9.29432e-05
9.28687e-05
9.28012e-05
9.27411e-05
9.26886e-05
9.44963e-05
9.43356e-05
9.41826e-05
9.40371e-05
9.38989e-05
9.37675e-05
9.36428e-05
9.35245e-05
9.34126e-05
9.33068e-05
9.32072e-05
9.31137e-05
9.30263e-05
9.29451e-05
9.28701e-05
9.28015e-05
9.27392e-05
9.26833e-05
9.44961e-05
9.43353e-05
9.41823e-05
9.40369e-05
9.38989e-05
9.37679e-05
9.36436e-05
9.35259e-05
9.34146e-05
9.33095e-05
9.32104e-05
9.31173e-05
9.303e-05
9.29485e-05
9.28725e-05
9.28021e-05
9.27371e-05
9.26773e-05
9.44965e-05
9.43361e-05
9.41836e-05
9.40388e-05
9.39014e-05
9.37711e-05
9.36475e-05
9.35305e-05
9.34199e-05
9.33153e-05
9.32167e-05
9.31238e-05
9.30364e-05
9.29543e-05
9.28774e-05
9.28053e-05
9.2738e-05
9.26752e-05
9.44975e-05
9.43381e-05
9.41867e-05
9.4043e-05
9.39067e-05
9.37774e-05
9.36549e-05
9.35388e-05
9.3429e-05
9.33252e-05
9.3227e-05
9.31345e-05
9.30471e-05
9.29648e-05
9.28873e-05
9.28143e-05
9.27455e-05
9.26808e-05
9.44995e-05
9.43422e-05
9.41929e-05
9.40512e-05
9.39167e-05
9.37891e-05
9.36682e-05
9.35536e-05
9.34451e-05
9.33423e-05
9.32452e-05
9.31534e-05
9.30666e-05
9.29847e-05
9.29072e-05
9.2834e-05
9.27647e-05
9.2699e-05
9.45025e-05
9.43481e-05
9.42016e-05
9.40626e-05
9.39306e-05
9.38053e-05
9.36864e-05
9.35736e-05
9.34666e-05
9.33652e-05
9.32691e-05
9.31782e-05
9.30921e-05
9.30105e-05
9.29333e-05
9.286e-05
9.27904e-05
9.27243e-05
9.45042e-05
9.43516e-05
9.42069e-05
9.40694e-05
9.39387e-05
9.38146e-05
9.36969e-05
9.35852e-05
9.34793e-05
9.33788e-05
9.32835e-05
9.31932e-05
9.31076e-05
9.30262e-05
9.2949e-05
9.28754e-05
9.28051e-05
9.2738e-05
9.45052e-05
9.43537e-05
9.42101e-05
9.40732e-05
9.39421e-05
9.38167e-05
9.36963e-05
9.35803e-05
9.34682e-05
9.33595e-05
9.32538e-05
9.31504e-05
9.30489e-05
9.29485e-05
9.28488e-05
9.27491e-05
9.26491e-05
9.25482e-05
9.45062e-05
9.43516e-05
9.41965e-05
9.40339e-05
9.3856e-05
9.36561e-05
9.34282e-05
9.31676e-05
9.28699e-05
9.25313e-05
9.21489e-05
9.17214e-05
9.12481e-05
9.07283e-05
9.016e-05
8.95441e-05
8.88849e-05
8.81885e-05
9.44496e-05
9.40012e-05
9.32163e-05
9.19812e-05
9.02577e-05
8.80785e-05
8.55199e-05
8.26789e-05
7.96385e-05
7.64695e-05
7.32435e-05
7.00278e-05
6.68788e-05
6.38301e-05
6.08957e-05
5.80981e-05
5.5465e-05
5.3018e-05
9.01223e-05
6.86427e-05
4.68731e-05
3.87294e-05
3.44061e-05
3.2095e-05
3.11798e-05
2.86356e-05
2.54274e-05
2.28825e-05
2.08452e-05
1.92078e-05
1.78919e-05
1.6839e-05
1.60044e-05
1.53521e-05
1.48526e-05
1.44819e-05
2.4818e-05
1.2553e-05
8.8818e-06
7.337e-06
6.61015e-06
6.28905e-06
6.20553e-06
6.28147e-06
6.48021e-06
6.78362e-06
7.18087e-06
7.66468e-06
8.22976e-06
8.87193e-06
9.58746e-06
1.03725e-05
1.12238e-05
1.21397e-05
1.35534e-06
2.14583e-06
2.85471e-06
3.5448e-06
4.25996e-06
5.03154e-06
5.8815e-06
6.82489e-06
7.87367e-06
9.03767e-06
1.03253e-05
1.17446e-05
1.33025e-05
1.50056e-05
1.68594e-05
1.88501e-05
2.09924e-05
2.32963e-05
0.000400683
0.000409626
0.000428677
0.000447197
0.000427073
0.000388377
0.000361492
0.000344267
0.000334733
0.00033214
0.000335234
0.000342305
0.00035415
0.000371792
0.000396547
0.000394557
0.000385128
0.000372351
0.000355669
0.000335859
0.000317862
0.00030384
0.000292849
0.000281286
0.000266664
0.000249972
0.000232191
0.000209234
0.00018774
0.000169407
0.00015492
0.000144116
0.000136376
0.000130954
0.000127184
0.000124554
0.000122718
0.000121471
0.000120691
0.00012028
0.00012016
0.000120531
0.000121438
0.000122961
0.000125203
0.000128317
0.000132521
0.000138115
0.000145516
0.000155395
0.000168734
0.000186932
0.000211887
0.000245504
0.000286732
0.000323288
0.000330693
0.000304
0.000266797
0.000235715
0.000214102
0.000200882
0.000194375
0.000193149
0.000196145
0.000202581
0.00021185
0.000223518
0.000237143
0.000252739
0.000270162
0.000288742
0.000306657
0.000322118
0.00033329
0.000338547
0.000337242
0.000330413
0.000321147
0.000313965
0.000314466
0.000315137
0.000292795
0.000285701
0.000291287
0.000299494
0.000305413
0.000307209
0.000305357
0.000300546
0.000293353
0.000282885
0.00026493
0.000249503
0.000235919
0.000223707
0.000212532
0.000202133
0.000192292
0.000182836
0.000174392
0.000166874
0.000160226
0.000154426
0.000149491
0.000145474
0.000142473
0.000140633
0.000140153
0.000141421
0.00014504
0.000151999
0.00016406
0.00018454
0.000219913
0.000281177
0.000366262
0.000393011
0.000334534
0.000282352
0.00025253
0.000237475
0.000231539
0.000231689
0.000236423
0.000244848
0.00025646
0.000271074
0.00028872
0.000309598
0.00033403
0.00036243
0.000395253
0.000431584
0.000469706
0.000509922
0.000552031
0.000595523
0.000639733
0.000683835
0.000726881
0.000767868
0.000805825
0.00083988
0.00086934
0.00089374
0.000912888
0.00092688
0.000936087
0.000941115
0.000942728
0.000941763
0.00093904
0.000935291
0.000931108
0.00092692
0.000922998
0.000919468
0.00091634
0.000913557
0.000911043
0.000908717
0.000906499
0.000904332
0.000902188
0.000900062
0.000897964
0.000895917
0.000893949
0.000892091
0.00089037
0.000888817
0.000887457
0.000886322
0.000885424
0.000884873
0.000884486
0.000885285
0.000884811
0.000895401
0.000435212
0.00043589
0.00045085
0.000466303
0.000477706
0.000483813
0.00048458
0.000480624
0.000472928
0.000462649
0.000450665
0.000437622
0.000424591
0.000412752
0.000402949
0.000395246
0.000388688
0.000374086
0.000356637
0.000338538
0.00032044
0.000306818
0.000295635
0.000276515
0.000258652
0.000242756
0.000229556
0.000219831
0.000214413
0.000214083
0.000219414
0.000230666
0.00024772
0.000270042
0.000296667
0.000326217
0.000356916
0.000386633
0.000413068
0.000434226
0.000448893
0.000461711
0.000473254
0.000483608
0.000492808
0.000500842
0.000507666
0.000513187
0.000503937
0.000479858
0.000462063
0.00044878
0.000438979
0.000432177
0.000428123
0.000427004
0.000429033
0.000434303
0.000441487
0.000450418
0.000459724
0.000454332
0.000428988
0.00040277
0.00037777
0.000355901
0.000338438
0.000325753
0.000316149
0.000306084
0.000295514
0.000286393
0.000281372
0.000281331
0.000285544
0.000293167
0.00030188
0.00030731
0.000311097
0.000314865
0.000317806
0.000315855
0.000306035
0.000294368
0.000287331
0.000279619
0.000271862
0.00026369
0.000255198
0.000246587
0.000238639
0.000232683
0.00022921
0.000228531
0.000231045
0.000237258
0.000247547
0.000261781
0.000278884
0.000295925
0.000312972
0.000329948
0.00034659
0.000362562
0.000377429
0.000390591
0.000400919
0.000395337
0.000368162
0.000347743
0.000332693
0.0003221
0.000315218
0.000311294
0.000309498
0.00030911
0.000310764
0.000316661
0.000326793
0.000339634
0.000354596
0.000372384
0.000393067
0.000406059
0.000383291
0.000357652
0.00033241
0.000308615
0.000286785
0.000267265
0.000250323
0.000236197
0.000225271
0.000220204
0.00022498
0.000237499
0.000255088
0.000276154
0.00029973
0.000325256
0.000352414
0.000381002
0.00041088
0.000441949
0.000474113
0.000507172
0.000540675
0.000573829
0.000605574
0.000634811
0.000660666
0.000682638
0.000700621
0.00071483
0.000725702
0.000733794
0.000739687
0.00074391
0.00074691
0.000749051
0.000750619
0.000751825
0.000752826
0.000753738
0.000754649
0.000755624
0.000756705
0.000757926
0.000759323
0.000760946
0.000762872
0.000765211
0.00076812
0.000771818
0.000776601
0.000782931
0.000791455
0.000803867
0.000822743
0.000850934
0.000468171
0.000461887
0.00048025
0.00050205
0.000519051
0.000528625
0.00053061
0.000526078
0.000516553
0.000503571
0.000488464
0.000471761
0.000454314
0.000437137
0.000421513
0.000408616
0.00036827
0.000337252
0.000316046
0.000299476
0.000280884
0.000263604
0.000249922
0.000240498
0.000236394
0.000239957
0.000253523
0.000265962
0.000277605
0.000297597
0.000324629
0.000355959
0.000388176
0.000418205
0.000444072
0.000465057
0.00048133
0.000493523
0.000502412
0.00050873
0.000513183
0.000517037
0.000520626
0.000524136
0.000527655
0.000531198
0.000534728
0.000505485
0.000481785
0.000464634
0.00045237
0.000444311
0.000439945
0.000438993
0.000441347
0.000446741
0.000454998
0.000465382
0.000477624
0.000492247
0.000510284
0.000531283
0.000551511
0.000529855
0.000493311
0.000454265
0.000415579
0.000380112
0.00035067
0.000327382
0.000309482
0.000296336
0.000287733
0.000283977
0.000285685
0.000293189
0.000305533
0.000319782
0.000331414
0.000324293
0.000289038
0.000272958
0.00026815
0.000277123
0.000275108
0.000267433
0.000263316
0.000263056
0.000267319
0.000276823
0.000292359
0.000313443
0.00033799
0.000363347
0.000386624
0.000405616
0.000419355
0.000428016
0.000432407
0.000434933
0.000436556
0.00043723
0.000436886
0.000435445
0.000422575
0.000390275
0.000362731
0.000339534
0.000320353
0.000304827
0.000292638
0.000283453
0.0002769
0.000272558
0.000269938
0.000268932
0.00027077
0.000276964
0.000285795
0.000295917
0.000307209
0.000319982
0.000334297
0.000350069
0.000367389
0.00038646
0.000406422
0.000406189
0.000402893
0.000398621
0.000393532
0.000387747
0.000381296
0.000372759
0.000358091
0.000338557
0.000319233
0.000303456
0.000292898
0.000287923
0.000288222
0.000293045
0.000301542
0.000312983
0.000326757
0.000342359
0.000359357
0.000377351
0.000395905
0.000414444
0.000432216
0.000448447
0.000462599
0.000474477
0.000484153
0.00049187
0.000497966
0.000502807
0.000506747
0.000510109
0.00051316
0.000516089
0.000519016
0.000521994
0.000525028
0.000528081
0.0005311
0.000534028
0.000536822
0.000539473
0.000542013
0.000544526
0.000547155
0.000550113
0.000553693
0.000558311
0.000564586
0.000573708
0.000588524
0.00061264
0.000479688
0.000476219
0.000506581
0.000539653
0.000562688
0.000573345
0.000573346
0.000565444
0.000552267
0.000535993
0.000517936
0.000498364
0.000478412
0.000458869
0.000440466
0.000421611
0.000382937
0.000353697
0.000332706
0.000316908
0.000297787
0.00027935
0.000265561
0.00025866
0.000261055
0.000274568
0.000298743
0.000329802
0.000362166
0.000392009
0.000418864
0.000444684
0.000471693
0.000500492
0.000511916
0.000514492
0.000513659
0.000510528
0.000505967
0.00050065
0.00049525
0.000491123
0.000488328
0.00048681
0.000486466
0.000476891
0.000449034
0.000428389
0.000413935
0.000404639
0.00039994
0.000399475
0.00040287
0.000409823
0.000420115
0.000433355
0.000448889
0.000466011
0.000482548
0.000500162
0.00052062
0.000546102
0.000577282
0.000610965
0.000599942
0.000560193
0.000516351
0.000471286
0.000428079
0.000390537
0.00036005
0.00033727
0.00032267
0.000316959
0.000320658
0.000332378
0.000347342
0.000350264
0.000309901
0.000296609
0.000293657
0.000303038
0.000287774
0.000277362
0.000272999
0.000275626
0.000285719
0.000303576
0.000328484
0.000358002
0.000388307
0.000415297
0.000436451
0.000451485
0.000461442
0.000467771
0.000471719
0.000474118
0.000475342
0.000475471
0.000474547
0.000472519
0.000465733
0.000434964
0.000405549
0.000378181
0.000353403
0.000331618
0.000312832
0.000297122
0.000284475
0.000274745
0.000267695
0.000263019
0.000260432
0.000260199
0.000263248
0.000268764
0.000276019
0.000284459
0.000294095
0.000305087
0.000317526
0.000331845
0.000348373
0.000366981
0.000387683
0.000408501
0.000407811
0.0004065
0.000404743
0.000402672
0.000400367
0.000397788
0.000394691
0.000390184
0.000383384
0.000374071
0.000362664
0.000350122
0.000337185
0.000325219
0.000315729
0.000309436
0.000306456
0.000306569
0.000309321
0.000314134
0.000320415
0.000327576
0.000335029
0.000342221
0.000348685
0.000354101
0.00035833
0.000361397
0.000363441
0.000364663
0.000365296
0.000365569
0.000365686
0.000365805
0.000366034
0.000366426
0.000366985
0.000367676
0.000368435
0.000369188
0.000369863
0.000370408
0.000370795
0.000371035
0.000371183
0.000371347
0.000371708
0.000372549
0.000374336
0.000377899
0.000385198
0.000398821
0.000441726
0.000485878
0.000539602
0.000584073
0.000606713
0.000612073
0.00060593
0.000592332
0.000574238
0.000554015
0.000533311
0.000512841
0.000493339
0.000474856
0.000457175
0.000440393
0.000414986
0.000397866
0.000385335
0.000368511
0.0003471
0.000326424
0.000311862
0.000306322
0.000310646
0.000323462
0.000341275
0.000360355
0.000378506
0.000395354
0.0004118
0.000428702
0.000446291
0.000464474
0.000482978
0.000492873
0.000478486
0.000464284
0.000451215
0.000439885
0.00043082
0.000424251
0.00041982
0.000417187
0.000408597
0.000382245
0.000361952
0.00034739
0.000337958
0.000333403
0.000333569
0.000338328
0.000347541
0.000361064
0.000378708
0.000400113
0.000424456
0.000450687
0.000475667
0.000498133
0.000520968
0.000546383
0.000577784
0.000616537
0.000659622
0.000630458
0.000587583
0.000541269
0.000494025
0.000450309
0.000413589
0.000386511
0.000370863
0.00036728
0.000374109
0.000385704
0.000364186
0.000344087
0.000345622
0.000335983
0.000309889
0.000291466
0.000281504
0.000280391
0.000288651
0.000306785
0.000334125
0.000367937
0.000403389
0.000435393
0.000460875
0.000479421
0.000492344
0.000501344
0.000507738
0.000512323
0.000515485
0.00051737
0.000517764
0.000516673
0.000500778
0.000477855
0.000453476
0.000428075
0.000402335
0.000376876
0.000352528
0.000330096
0.000310252
0.000293446
0.000279802
0.000269265
0.000261591
0.000256431
0.000253689
0.000253977
0.000256609
0.000261415
0.000267997
0.000275982
0.000285266
0.000295914
0.000308105
0.00032206
0.000337786
0.000355127
0.000374318
0.000395702
0.000406859
0.000405108
0.000402964
0.000400592
0.00039812
0.000395636
0.000393184
0.000390706
0.000387946
0.000384573
0.000380204
0.000374491
0.000367124
0.00035815
0.000348079
0.000337683
0.000327789
0.000318972
0.000311639
0.000306094
0.000302337
0.000300135
0.000299128
0.000298925
0.000299116
0.000299359
0.000299409
0.000299134
0.000298499
0.000297523
0.000293616
0.000287007
0.000280491
0.000274227
0.000268343
0.000262926
0.000257998
0.000253533
0.000249471
0.000245728
0.000242215
0.000238853
0.000235591
0.000232372
0.000229165
0.000225968
0.000222823
0.00021978
0.000217054
0.000214608
0.00021402
0.00021483
0.000392693
0.000501347
0.000581824
0.0006265
0.000640387
0.0006386
0.000627422
0.000609743
0.000588007
0.00056484
0.000542885
0.000523605
0.000506651
0.000490574
0.000474123
0.000456397
0.00043917
0.000424
0.000412052
0.000403882
0.000398169
0.000394874
0.000379496
0.000369132
0.000367476
0.000371139
0.00037745
0.000384877
0.000392778
0.000400865
0.000408899
0.000416729
0.000424769
0.000433986
0.000444732
0.000430272
0.000409786
0.000392319
0.000378299
0.000367743
0.000360628
0.000355951
0.000353213
0.000352041
0.000352153
0.000336565
0.000316882
0.000302107
0.000292036
0.000286621
0.000285891
0.000290101
0.000299654
0.000314941
0.000336293
0.000363731
0.000396601
0.000433151
0.000470542
0.000502113
0.00053069
0.000558
0.000587289
0.00062315
0.000666416
0.000674352
0.000632487
0.000586007
0.000538139
0.000492714
0.000454902
0.000428793
0.000416829
0.000418162
0.000426988
0.000412867
0.000407047
0.000397672
0.000353011
0.00031904
0.000296893
0.000285888
0.000286015
0.00029746
0.000320311
0.000353218
0.000392174
0.000431236
0.000465218
0.000491898
0.000511822
0.000526706
0.000538154
0.000547183
0.000554278
0.000559594
0.000563138
0.00055291
0.000537079
0.000519819
0.000500888
0.00048019
0.000457748
0.000433643
0.000408238
0.000382314
0.000356902
0.00033305
0.000311674
0.000293457
0.000278606
0.000267211
0.000258953
0.000253511
0.00025132
0.000251542
0.000253933
0.000258296
0.000264346
0.000271816
0.000280595
0.000290702
0.000302244
0.000315381
0.000330212
0.000346736
0.000365121
0.000385779
0.000407301
0.000404865
0.000402003
0.000398905
0.000395734
0.000392618
0.000389657
0.000386904
0.000384324
0.00038181
0.000379177
0.000376166
0.000372459
0.000367749
0.000361816
0.000354612
0.000346291
0.000337139
0.000327581
0.000318127
0.000309215
0.000301126
0.000293966
0.000287654
0.000282096
0.000277143
0.000272639
0.000268448
0.000264481
0.000260696
0.000257042
0.00025352
0.000250172
0.000243994
0.000234859
0.00022639
0.000218607
0.000211493
0.000205007
0.000199087
0.000193653
0.000188621
0.000183906
0.00017943
0.000175122
0.000170919
0.000166787
0.000162647
0.000158655
0.000154364
0.000151849
0.000147101
0.000355559
0.000522887
0.000624685
0.000657616
0.000663093
0.000657981
0.000645023
0.000625679
0.000602241
0.000577993
0.000557523
0.00053971
0.000523203
0.000507206
0.00049062
0.00047342
0.000457416
0.000444466
0.000436151
0.000432881
0.000433678
0.000438178
0.000446742
0.000447383
0.000437643
0.0004325
0.000429891
0.000428901
0.000428933
0.000429502
0.000430626
0.000433227
0.000438179
0.000409396
0.000382561
0.000359306
0.000340498
0.000326266
0.000316257
0.000309903
0.000306528
0.000304652
0.000303901
0.000304096
0.000305195
0.000307242
0.000310316
0.000313981
0.000297965
0.000286898
0.000280413
0.000278467
0.000281746
0.000291466
0.000309038
0.000335918
0.000372916
0.000418645
0.000469627
0.000515404
0.000554517
0.000587519
0.000616704
0.000647421
0.000683321
0.000704683
0.000664025
0.000617588
0.000569256
0.000523719
0.000487043
0.000464246
0.000457259
0.000462202
0.000468526
0.000462101
0.000431203
0.00037787
0.000333138
0.000304519
0.000290191
0.00028904
0.000300818
0.000325264
0.00036074
0.000402853
0.000445218
0.000482472
0.000512526
0.00053614
0.000555103
0.00057092
0.000584411
0.000595836
0.000605133
0.000607919
0.000593723
0.000578672
0.000562126
0.00054368
0.00052333
0.000500966
0.000476706
0.000450767
0.000423536
0.000395632
0.000368012
0.000341876
0.00031833
0.00029828
0.000282044
0.00026976
0.000260939
0.000255819
0.000253432
0.000253407
0.000255479
0.000259399
0.000264912
0.000271797
0.000279941
0.000289339
0.000300059
0.000312225
0.000325958
0.000341322
0.000358469
0.000377809
0.000399481
0.000405002
0.000401535
0.000397763
0.000393866
0.000390001
0.000386308
0.000382897
0.000379827
0.000377087
0.000374603
0.000372225
0.000369739
0.000366878
0.000363363
0.000358941
0.000353435
0.000346775
0.00033902
0.000330361
0.000321086
0.000311519
0.000301955
0.0002926
0.000283616
0.000275091
0.000267052
0.000259491
0.000252385
0.000245692
0.000239402
0.000233517
0.000228052
0.000223015
0.000218405
0.000214233
0.000210507
0.000207226
0.00020438
0.000201941
0.000199876
0.000195075
0.000189028
0.0001834
0.000178098
0.000173005
0.000168025
0.000162966
0.000157962
0.000152193
0.000148544
0.000140095
0.0003264
0.000567202
0.000660805
0.000678207
0.00068008
0.000674556
0.000661649
0.00064264
0.000620471
0.000598947
0.000578474
0.000559624
0.000542276
0.000525703
0.000509468
0.000494065
0.000480999
0.00047184
0.000467661
0.000468423
0.000473142
0.000480959
0.000491203
0.000502833
0.000513766
0.000520756
0.00051747
0.000509239
0.000493621
0.000467931
0.000437178
0.000404456
0.000372785
0.000344608
0.000321518
0.000303958
0.000291638
0.000283841
0.000279692
0.00027833
0.000278086
0.000277777
0.000277281
0.000276705
0.00027632
0.000276509
0.000277692
0.000280259
0.000284528
0.000290743
0.00029911
0.000309839
0.000305178
0.000305507
0.000313631
0.000332457
0.000365506
0.000414981
0.000478338
0.000542361
0.000598248
0.000642339
0.000674733
0.000700853
0.000726296
0.000728853
0.000690496
0.000644903
0.000596612
0.000551237
0.000515874
0.000495779
0.0004912
0.000494341
0.000490726
0.00046541
0.000412957
0.000354368
0.000316083
0.000295368
0.000290259
0.000299573
0.000322747
0.000358211
0.000401817
0.000447136
0.000488335
0.000522839
0.000551204
0.000575253
0.000596559
0.000615939
0.000633543
0.000649108
0.000662161
0.000662367
0.00064843
0.000632504
0.00061335
0.000591134
0.000566084
0.000538726
0.000509661
0.000479396
0.000448359
0.000416985
0.000386058
0.000356942
0.000330848
0.000308645
0.000291082
0.00027792
0.000269067
0.000263522
0.000260785
0.000260442
0.00026213
0.000265545
0.000270427
0.000276576
0.000283886
0.000292345
0.000302012
0.000312995
0.000325425
0.000339408
0.000355073
0.0003728
0.000392949
0.000405212
0.000401365
0.000397117
0.000392644
0.000388111
0.000383678
0.000379493
0.000375688
0.000372333
0.000369431
0.000366918
0.000364653
0.000362434
0.000360011
0.000357117
0.0003535
0.000348957
0.000343362
0.000336686
0.000329
0.000320461
0.000311279
0.000301683
0.000291894
0.000282107
0.000272476
0.000263115
0.000254108
0.000245499
0.000237333
0.000229647
0.000222472
0.000215833
0.00020975
0.000204238
0.000199303
0.000194943
0.000191142
0.000187886
0.000185149
0.000182895
0.000181079
0.000179657
0.000178587
0.000177828
0.000177339
0.000177088
0.000177037
0.000177166
0.0001774
0.00016764
0.000302746
0.000622968
0.000681971
0.000692192
0.000693439
0.000688402
0.000676982
0.000660132
0.000640114
0.000619621
0.000598797
0.00057914
0.000561036
0.000544339
0.000529092
0.000515859
0.000505629
0.000499281
0.000497155
0.000498755
0.000502972
0.000508605
0.000514353
0.00051847
0.000518609
0.000512276
0.000497853
0.000475255
0.000446016
0.000412897
0.000379226
0.000348163
0.000322081
0.000302246
0.000288817
0.000281089
0.000277889
0.000277882
0.00027978
0.000282489
0.000283546
0.000282772
0.000280295
0.000276477
0.000271895
0.0002673
0.000263515
0.000261298
0.000261218
0.000263624
0.000268696
0.000276595
0.000287708
0.000303043
0.000324498
0.000354795
0.000384733
0.000430078
0.000501336
0.000585173
0.000665068
0.000723269
0.000759564
0.000775261
0.000771253
0.000750215
0.00071579
0.000672199
0.000624498
0.000579204
0.000544213
0.000524445
0.000518002
0.000513817
0.000495829
0.00045241
0.000387785
0.000334084
0.000303609
0.000291509
0.000295679
0.0003149
0.000347806
0.000390932
0.000438208
0.000483242
0.000522439
0.000555723
0.000584876
0.000611722
0.000637313
0.000661901
0.000685166
0.000706433
0.000724807
0.000737217
0.000723377
0.000705497
0.000682294
0.000654489
0.00062295
0.000588804
0.000553204
0.000517066
0.000481091
0.000445582
0.000410851
0.000378304
0.000349703
0.000325391
0.000306671
0.000292893
0.000283272
0.000277215
0.000274101
0.000273376
0.000274584
0.000277368
0.000281455
0.000286663
0.000292909
0.0003002
0.000308608
0.000318246
0.000329246
0.000341737
0.000355831
0.000371848
0.000390183
0.0004058
0.000401814
0.000397332
0.000392504
0.000387486
0.000382438
0.000377525
0.000372931
0.000368784
0.00036516
0.000362074
0.000359464
0.000357195
0.000355068
0.000352838
0.000350243
0.000347037
0.000343015
0.000338042
0.00033206
0.000325096
0.000317245
0.000308658
0.000299514
0.000290002
0.000280305
0.000270586
0.000260985
0.000251617
0.000242577
0.000233942
0.000225777
0.000218133
0.000211052
0.000204564
0.00019869
0.000193439
0.000188808
0.000184786
0.000181355
0.000178485
0.000176141
0.000174283
0.000172869
0.000171853
0.000171192
0.000170843
0.000170762
0.000170912
0.000171231
0.000171699
0.000285968
0.0006476
0.000694198
0.000702379
0.000703013
0.000698405
0.000688738
0.000674418
0.000656572
0.000636447
0.000615649
0.000595654
0.000577162
0.000560477
0.000545875
0.000533765
0.000524615
0.000518676
0.000515739
0.000515039
0.000515424
0.000515566
0.000513943
0.000508768
0.000498204
0.000480952
0.000456939
0.000427584
0.000395555
0.000364152
0.000336525
0.000314997
0.000300694
0.00029353
0.000292475
0.000295932
0.000302104
0.000309272
0.000315983
0.000319749
0.000320182
0.000317333
0.000311405
0.000302828
0.000292318
0.000280928
0.000269953
0.000260689
0.000254154
0.000250964
0.000251347
0.000255243
0.000262439
0.000273215
0.000288952
0.000312298
0.000347755
0.000399227
0.000467474
0.000545747
0.000626118
0.000696934
0.00074895
0.000777961
0.000784272
0.000770782
0.00074146
0.000700805
0.000654185
0.000608559
0.000572248
0.000549615
0.000536947
0.000521441
0.00048817
0.000431442
0.000364188
0.000317928
0.000295515
0.000291723
0.00030445
0.000332212
0.000372414
0.00041986
0.000467868
0.000511483
0.000549414
0.000583094
0.000614648
0.000645604
0.000676574
0.000707412
0.000737427
0.000765535
0.00079034
0.000810211
0.000807584
0.000787141
0.000759262
0.000725394
0.000686934
0.000645617
0.000603176
0.000560771
0.000519464
0.000479894
0.000441955
0.000406263
0.000375355
0.000349743
0.00032953
0.000314553
0.000304187
0.000297615
0.000294052
0.000292815
0.000293361
0.000295281
0.000298302
0.000302275
0.000307168
0.000313038
0.000319993
0.000328163
0.00033768
0.000348667
0.000361216
0.000375587
0.000392143
0.000407132
0.000403271
0.000398815
0.000393877
0.000388586
0.000383089
0.000377562
0.000372222
0.000367238
0.000362742
0.000358821
0.000355493
0.000352701
0.000350309
0.000348119
0.000345886
0.000343355
0.000340284
0.000336476
0.000331799
0.000326192
0.000319665
0.00031229
0.000304188
0.000295507
0.000286411
0.000277063
0.000267619
0.000258217
0.000248984
0.000240027
0.000231439
0.000223296
0.000215663
0.000208589
0.000202112
0.000196254
0.000191024
0.000186422
0.000182431
0.00017903
0.000176188
0.000173865
0.000172023
0.000170615
0.000169597
0.000168924
0.000168551
0.000168436
0.000168526
0.000168792
0.000276927
0.00066577
0.000701718
0.000708076
0.000707319
0.000702168
0.00069334
0.000681019
0.000665329
0.000647087
0.000627566
0.000607923
0.000589144
0.000572007
0.000557016
0.00054445
0.000534412
0.000526757
0.000520996
0.000516271
0.000511448
0.000505232
0.000496228
0.000483086
0.000464862
0.000441513
0.00041424
0.000385412
0.000358075
0.000335231
0.000319146
0.000310917
0.000310376
0.000316295
0.000326755
0.00033954
0.000352481
0.000363712
0.000371897
0.000374814
0.000373659
0.000368481
0.000359342
0.000346454
0.00033028
0.000311871
0.000292913
0.000275372
0.000260933
0.000250694
0.000245193
0.000244489
0.000247939
0.000254967
0.000266113
0.000283264
0.000310979
0.000353772
0.000414507
0.000493174
0.000582063
0.000667536
0.00073598
0.000779481
0.000796904
0.000791386
0.000767546
0.000730288
0.000685007
0.000638463
0.000598878
0.000570225
0.000547941
0.000519386
0.000472884
0.000408936
0.000344986
0.00030572
0.000290837
0.000294487
0.000314571
0.000349072
0.00039409
0.000443362
0.000490682
0.000532913
0.000570475
0.000605548
0.000640249
0.000675822
0.000712588
0.000750123
0.000787423
0.000822991
0.000854895
0.000880816
0.000894144
0.000870905
0.000837575
0.000797408
0.000752146
0.000703968
0.000655396
0.000607875
0.000562221
0.000519592
0.000479395
0.000442222