/*--------------------------------*- C++ -*----------------------------------*\
| =========                 |                                                 |
| \\      /  F ield         | OpenFOAM: The Open Source CFD Toolbox           |
|  \\    /   O peration     | Version:  2112                                  |
|   \\  /    A nd           | Website:  www.openfoam.com                      |
|    \\/     M anipulation  |                                                 |
\*---------------------------------------------------------------------------*/
FoamFile
{
    version     2.0;
    format      ascii;
    arch        "LSB;label=32;scalar=64";
    class       volScalarField;
    location    "0.01";
    object      omega;
}
// * * * * * * * * * * * * * * * * * * * * * * * * * * * * * * * * * * * * * //

dimensions      [0 0 -1 0 0 0 0];

internalField   nonuniform List<scalar> 
12885
(
32514.4
67946.7
81877.4
86465.5
87435.2
87258.1
86787.3
86088.8
85087
83764.6
82402
81192.2
80200
79425.1
78725.7
77822.3
76613.2
75308.9
74092.1
73019
72102.9
71390.7
70845.3
70308.3
69682.6
68979
68245.1
67537.1
66858.7
66205.9
65590.6
65028.6
64510.8
64057.2
63594.8
63228.2
62711.2
62437.8
62077.4
60927.3
1887.1
5813.33
11059.9
16052.2
19545.9
21561.7
22603
23414.3
24980
27646.8
29857.5
31193.8
31814.7
32142.3
32490.3
33045.2
34363.6
35768.6
36787.4
37349.5
37456.5
37409.3
37281.2
37240.3
37278
37364.8
37313.8
37098.9
36619.6
35808.4
34889
33948
33110.4
32373.4
31785.6
31276.5
30922.1
30579.5
30646.3
30972.6
267.739
704.419
1306.2
1996.65
2681.52
3254.51
3621.93
3963.19
4468.42
5522.61
6846.42
7915.7
8628.76
9179.25
9649.56
10038.8
10732.8
11840.3
13074.9
14242.4
15181
15884.1
16376.7
16735.8
17120.7
17594
18169.7
18795
19439.2
19997
20468.5
20796.4
21036.4
21162.8
21255
21286.3
21330.4
21357.1
21412.7
21564.6
86.5834
199.399
336.32
490.6
646.773
802.355
923.927
1012.66
1113.36
1306.62
1564.38
1794.72
2003.67
2179.46
2318.49
2465.02
2577.8
2731.28
3069.92
3529.62
3939.81
4334.37
4614.07
4888.18
5083.56
5336.6
5571.69
5921.67
6252.15
6733.5
7150.61
7658.91
8080.61
8583.59
8958.57
9411.35
9716.25
10124
10376.8
10769.4
50.5237
97.1559
146.531
200.898
255.738
313.131
362.869
397.742
432.259
485.806
555.134
622.933
690.161
751.295
801.966
855.725
890.776
928.094
992.993
1086.36
1174.71
1270.67
1344.19
1426.13
1478.49
1556.3
1602.8
1684.1
1743.03
1829.77
1921.81
2088.23
2225.43
2415
2559.35
2758.46
2893.62
3092.47
3210.53
3410.86
42.6226
62.1814
87.002
112.29
137.971
164.683
188.865
207.424
225.112
247.439
274.123
301.579
329.295
355.713
379.119
402.052
419.424
435.397
454.105
479.175
505.094
533.455
558.703
585.324
606.552
632.282
651.643
676.276
697.341
721.035
746.244
782.823
815.912
857.703
892.922
938.765
972.803
1021.3
1050.34
1102.12
40.5982
48.2022
62.6998
76.3301
90.3955
104.841
118.227
129.436
140.079
151.946
165.147
178.867
192.733
206.226
218.732
230.513
240.525
249.682
258.967
269.45
280.426
292.012
303.257
314.611
325.135
336.151
346.224
356.719
366.778
376.869
386.6
397.261
407.867
419.604
431.005
443.743
455.303
468.826
479.304
494.445
39.9922
43.062
50.69
59.0431
67.4576
76.0385
84.1494
91.3877
98.3124
105.551
113.204
121.077
129
136.777
144.175
151.137
157.432
163.273
168.947
174.763
180.688
186.733
192.743
198.742
204.608
210.492
216.219
221.909
227.479
232.935
238.212
243.455
248.636
253.894
259.133
264.507
269.752
275.345
280.542
286.914
39.7775
41.0772
44.663
49.9699
55.2011
60.5754
65.7792
70.652
75.3762
80.1604
85.0479
89.9884
94.9293
99.8101
104.548
109.079
113.325
117.316
121.132
124.866
128.555
132.224
135.872
139.512
143.137
146.763
150.362
153.927
157.436
160.861
164.216
167.578
170.925
174.255
177.557
180.841
184.07
187.218
190.204
193.548
39.6902
40.2639
41.8582
44.9513
48.2945
51.7366
55.1848
58.5652
61.9057
65.2328
68.5334
71.7956
75.0386
78.2871
81.5233
84.707
87.7638
90.6536
93.3751
95.9567
98.4365
100.861
103.273
105.706
108.178
110.688
113.223
115.76
118.276
120.745
123.13
125.415
127.619
129.752
131.821
133.834
135.797
137.644
139.354
141.21
39.6513
39.9172
40.6448
42.2065
44.2633
46.4691
48.7382
51.0307
53.3538
55.7104
58.0778
60.4274
62.7439
65.0279
67.2825
69.4983
71.6612
73.755
75.7711
77.7104
79.5803
81.3933
83.164
84.9078
86.637
88.359
90.0747
91.7802
93.4685
95.1315
96.7359
98.2329
99.6333
100.949
102.19
103.365
104.484
105.55
106.552
107.638
39.6316
39.7589
40.1028
40.8526
41.9847
43.3076
44.7221
46.1854
47.7092
49.3195
51.012
52.7423
54.4481
56.0826
57.6359
59.1191
60.5668
62.01
63.465
64.9297
66.3865
67.8106
69.1795
70.4805
71.7116
72.8787
73.9911
75.0581
76.0876
77.0852
78.0511
78.9799
79.8692
80.7182
81.5267
82.2952
83.0254
83.7202
84.379
85.0844
39.6197
39.6715
39.8166
40.1381
40.6721
41.3338
42.0837
42.8984
43.7833
44.7552
45.8128
46.9234
48.0332
49.0937
50.0835
51.013
51.9137
52.8204
53.7565
54.7276
55.7211
56.7129
57.6765
58.5906
59.4433
60.2321
60.9613
61.6387
62.2733
62.8735
63.4467
63.9987
64.5329
65.0505
65.552
66.0368
66.5044
66.9544
67.3867
67.8458
39.6133
39.6261
39.6711
39.7779
39.9808
40.2502
40.5639
40.9238
41.3355
41.8038
42.3256
42.8854
43.4582
44.0191
44.554
45.063
45.5577
46.0534
46.5629
47.0914
47.6365
48.1888
48.7362
49.2664
49.7699
50.2414
50.6792
51.0846
51.4608
51.8121
52.1427
52.4569
52.7579
53.0481
53.3293
53.6025
53.868
54.1261
54.3776
54.643
39.6091
39.6074
39.6139
39.6366
39.6876
39.7717
39.8777
40.0011
40.1461
40.3149
40.506
40.7147
40.934
41.1572
41.3794
41.5991
41.8175
42.0374
42.2612
42.4904
42.7247
42.9622
43.2
43.4347
43.6632
43.883
44.0925
44.291
44.4784
44.6554
44.823
44.9822
45.1343
45.2801
45.4205
45.5564
45.6881
45.8162
45.9415
46.0718
39.6082
39.5995
39.5937
39.5938
39.5986
39.6116
39.6356
39.667
39.7044
39.7487
39.7998
39.8567
39.9182
39.9833
40.0509
40.1205
40.1919
40.265
40.34
40.4167
40.4949
40.5742
40.6541
40.7341
40.8134
40.8914
40.9678
41.0421
41.1142
41.1838
41.2511
41.3161
41.3789
41.4397
41.4986
41.5557
41.6112
41.6653
41.7184
41.7726
39.6079
39.5976
39.5886
39.5814
39.5764
39.5742
39.575
39.578
39.584
39.5925
39.6031
39.6159
39.6306
39.6469
39.6649
39.6842
39.7048
39.7266
39.7495
39.7733
39.7981
39.8235
39.8496
39.8761
39.9029
39.9298
39.9569
39.9838
40.0107
40.0374
40.0638
40.0899
40.1157
40.1412
40.1664
40.1912
40.2157
40.2399
40.2639
40.2884
39.6078
39.5974
39.5882
39.5807
39.5752
39.5724
39.5728
39.5754
39.5814
39.5909
39.6027
39.6169
39.6333
39.6518
39.6723
39.6947
39.7188
39.7445
39.7717
39.8002
39.83
39.8608
39.8926
39.9252
39.9586
39.9926
40.0271
40.0621
40.0975
40.1333
40.1694
40.2057
40.2421
40.2786
40.3151
40.3515
40.3877
40.4237
40.4593
40.4941
39.6081
39.5996
39.595
39.5965
39.6042
39.6225
39.655
39.701
39.7603
39.8305
39.9084
39.994
40.0866
40.1854
40.29
40.4
40.5151
40.6348
40.7584
40.8853
41.0147
41.1462
41.2794
41.4141
41.55
41.6872
41.8253
41.9644
42.1042
42.2442
42.3839
42.5228
42.6607
42.797
42.9317
43.0646
43.1955
43.3242
43.4506
43.5745
39.609
39.6093
39.6186
39.6471
39.7059
39.798
39.9233
40.0809
40.2675
40.4768
40.702
40.9417
41.1932
41.4547
41.7252
42.0042
42.2906
42.583
42.8794
43.178
43.4772
43.7761
44.0742
44.3716
44.6685
44.9649
45.2607
45.5554
45.8472
46.1331
46.4112
46.6817
46.9449
47.201
47.4502
47.6927
47.9285
48.1579
48.3806
48.5968
39.6149
39.6383
39.7069
39.8528
40.084
40.3904
40.7658
41.2015
41.6873
42.21
42.7598
43.3294
43.9117
44.5018
45.097
45.6955
46.2953
46.8942
47.4894
48.0786
48.6597
49.2314
49.7923
50.3419
50.8797
51.4052
51.9181
52.4174
52.9008
53.3667
53.8175
54.2554
54.681
55.0947
55.4966
55.8868
56.2653
56.6319
56.9862
57.3276
39.6308
39.7495
40.0362
40.557
41.2463
42.0657
42.9891
43.9968
45.0685
46.1824
47.3239
48.4738
49.6158
50.7411
51.8485
52.9405
54.0194
55.0857
56.1376
57.172
58.1849
59.172
60.1293
61.0538
61.9438
62.7992
63.6214
64.4127
65.1771
65.922
66.6522
67.3678
68.0684
68.7537
69.423
70.0758
70.7113
71.3286
71.9266
72.5027
39.6855
40.1309
41.1211
42.6028
44.3365
46.2111
48.1891
50.2573
52.3934
54.5643
56.7353
58.8683
60.9298
62.91
64.8272
66.7107
68.5817
70.4456
72.295
74.1172
75.8987
77.6271
79.293
80.8914
82.4217
83.8883
85.2987
86.6623
87.9887
89.2865
90.5608
91.8135
93.0447
94.2531
95.4368
96.5937
97.7221
98.8198
99.8842
100.905
39.8591
41.3441
44.2823
47.9625
51.8675
55.7737
59.7103
63.7444
67.8784
72.0471
76.1845
80.2016
83.9914
87.5268
90.9033
94.2572
97.6734
101.156
104.658
108.121
111.5
114.756
117.86
120.801
123.58
126.218
128.745
131.19
133.597
135.997
138.4
140.798
143.179
145.53
147.841
150.103
152.31
154.458
156.549
158.531
40.4213
45.2266
52.8966
61.5785
70.1246
78.1087
85.9546
94.0294
102.472
111.022
119.486
127.654
135.124
141.769
148.049
154.577
161.665
169.215
176.92
184.492
191.829
198.783
205.274
211.331
216.925
222.204
227.275
232.128
237.146
242.488
248.097
253.802
259.489
265.06
270.498
275.754
280.865
285.767
290.63
295.106
42.5922
57.6429
77.5725
99.2234
119.282
136.699
153.883
171.962
192.297
213.301
233.63
252.956
269.864
283.764
297.085
312.734
331.842
353.266
375.066
395.588
415.124
432.944
448.883
463.797
476.991
490.075
503.368
514.449
530.002
549.697
571.238
592.335
612.537
631.043
648.576
664.509
680.122
694.265
709.26
722.462
53.5977
103.391
164.962
231.363
288.925
334.339
382.063
432.347
501.042
577.409
643.178
700.889
749.248
786.155
825.753
883.981
964.182
1055.41
1143.78
1218.47
1286.19
1343.22
1390.03
1436.36
1477.76
1527.44
1587.62
1629.02
1709.46
1822.05
1943.67
2052.57
2150.28
2229.55
2301.3
2360.21
2420.37
2473.47
2536.62
2596.01
123.906
346.526
649.692
962.573
1206.75
1376.94
1580.79
1797.75
2161.84
2594.91
2894.62
3104.49
3282.89
3432.99
3634.97
4010.04
4540.39
5108.45
5596.36
5947.46
6198.25
6394.17
6549.24
6698.27
6943.3
7277.69
7675.39
8120.44
8570.04
9000.96
9392.64
9707.87
9964.01
10156.1
10319.4
10454.6
10604.7
10756.1
10945.8
11143.3
786.725
3098.19
6251.99
8913.68
10551
11521
12613.1
14432.5
16321.5
17689.1
18522.3
18969.5
19261.2
19563.3
20058.9
21116.3
22245.7
23172.1
23817
24176.2
24320.7
24400.1
24523
24717.3
25176.7
25794.8
26392.1
26899
27291
27572.6
27743
27794.6
27788.8
27780.2
27784.5
27815.6
27904.2
28038.8
28195.8
28339.8
17964.3
43762.5
57223.5
63310.3
65833.2
66897.7
67067.9
66932.7
66537.6
65973.5
65455.6
65027.8
64703.3
64403.7
63965.7
63315.9
62575.5
61873.3
61257.6
60736.6
60332.7
60073.8
59894.4
59626.9
59173.4
58594.6
57991.4
57431.7
56931.4
56470.4
56047.2
55695.8
55446.1
55287.7
55171.1
55043
54868.8
54640
54365.6
54062.9
717.65
723.977
737.809
760.546
794.188
841.468
906.046
992.711
1108.19
1263.18
1464.99
1709.35
1986.39
2281.62
2580.88
2876.39
3168.73
3463.97
3770.15
4094.8
4444.09
4823.12
5236.33
5687.61
6180.04
6715.37
7293.74
7913.77
8572.9
9267.91
9995.59
10753.5
11540.8
12357.9
13207.5
14094.4
15025.7
16010.6
17059.6
18184.5
19397.3
20710.2
22133.8
23676.8
25343.5
27280.5
29451.7
31688.3
33938.7
36159.4
38267.7
40133.4
41629.3
42562.1
42946.3
42728
41758.2
40137.8
37906.1
35133.7
31924.8
28425.2
24765.5
20956.7
17113.9
13425.9
10076.3
7237.06
5026.82
3472.67
2532.24
2091.06
2031.67
2288.45
2786.74
3479.19
4270.04
5101.16
5934.95
6746
7517.91
8241.41
8911.01
9523.56
10078.6
10577
11020.4
11410.9
11750.6
12042.1
12287.8
12490.2
12652.1
12776
12864.8
12921.3
12945.8
12944.6
12922.1
12876.4
12813.3
12735.4
12645.3
12545.6
12438.8
12327.1
12212.7
12097.5
11983.3
11871.3
11763
11659.2
11560.7
11468.2
11381.9
11302.1
11228.6
11161.5
11100.5
11045.3
10995.7
10951.1
10911.2
10875.5
10843.4
10814.4
10788.2
10764.4
10742.6
10722.6
10704.1
10687
10671.1
10656.1
10641.9
10628.4
10615.3
10602.6
10590.1
10577.6
10565.2
10552.7
10540.1
10527.4
10514.6
10501.7
10488.5
10475.2
10461.6
10447.7
10433.5
10418.9
10403.9
10388.4
10372.4
10355.8
10338.6
10320.5
10301.7
10281.9
10261
10239
10215.6
10190.6
10163.9
10135
10104
10069.9
10033.3
9991.57
9948.17
9894.19
9844.73
9767.36
9717.07
9591.33
9556.09
9319.97
9345.29
8791.13
719.646
725.746
739.134
761.134
793.624
839.149
901.084
983.822
1092.98
1234.83
1412.96
1624.5
1860.26
2106.38
2349.59
2582.89
2806.97
3027.28
3250.31
3481.36
3723.71
3979.3
4249.12
4533.55
4832.29
5144.3
5468
5801.45
6142.66
6489.83
6841.75
7198.25
7560.24
7929.47
8308.4
8700
9107.56
9534.29
9983.05
10456.1
10955.2
11480.8
12032.1
12606
13195.5
13845.2
14534.7
15190.9
15797.7
16381.5
17057.3
17863.9
18579.6
18907.1
18866
18254.8
17204.9
15814.2
14153.5
12341.7
10503.3
8787.95
7383.8
6394.58
5475.92
4594.63
3782.56
3073.99
2504.15
2101.93
1886.69
1830.82
1933.9
2158.48
2468.9
2810.32
3168.11
3525.29
3871.66
4200.62
4508.7
4794.29
5057.18
5297.34
5515.16
5711.34
5886.7
6042.08
6178.38
6296.5
6397.37
6481.9
6551.05
6605.82
6647.19
6676.03
6693.83
6702.14
6701.11
6693.13
6676.8
6654.09
6626.6
6595.26
6560.82
6524.19
6486.23
6447.67
6409.16
6371.25
6334.42
6299.06
6265.46
6233.85
6204.35
6177.04
6151.92
6128.97
6108.12
6089.28
6072.32
6057.11
6043.5
6031.3
6020.36
6010.51
6001.62
5993.56
5986.23
5979.53
5973.38
5967.71
5962.46
5957.55
5952.92
5948.51
5944.27
5940.14
5936.06
5932.01
5927.95
5923.85
5919.72
5915.52
5911.26
5906.93
5902.51
5898
5893.39
5888.66
5883.79
5878.78
5873.6
5868.23
5862.64
5856.83
5850.74
5844.37
5837.66
5830.57
5823.06
5815.05
5806.49
5797.26
5787.31
5776.46
5764.7
5751.62
5737.52
5721.24
5704.39
5682.93
5663.86
5632.65
5612.65
5564.39
5545.83
5463.37
5462.95
5334.42
724.953
730.531
743.016
763.613
794.052
836.622
894.296
970.751
1070.22
1196.62
1351.52
1531.85
1729.07
1930.75
2125.34
2307.12
2477.45
2641.7
2805.48
2972.84
3145.61
3323.81
3506.7
3693.15
3881.79
4071.09
4259.54
4445.85
4629.15
4809.05
4985.91
5160.93
5335.88
5512.72
5693.38
5879.57
6072.6
6273.11
6480.94
6695.21
6914.4
7136.33
7358.02
7575.92
7785.34
8004.44
8238.47
8487.65
8756.17
8976.85
9080.32
9074.89
8790.63
8279.11
7602.13
6835.65
6107.24
5489.45
4993.29
4519.55
4069.16
3667.08
3330.96
3051.23
2774.32
2504.35
2249.6
2019.44
1832.55
1712.59
1666.41
1696.78
1798.03
1947.58
2121.21
2300.74
2480.03
2653.86
2819.34
2975.08
3120.44
3255.7
3380.86
3495.91
3601.12
3696.85
3783.45
3861.23
3930.53
3991.68
4045.01
4090.88
4129.64
4161.7
4187.43
4207.15
4221.59
4231.36
4236.64
4237.59
4235.51
4230.17
4221.68
4211.46
4199.4
4186.08
4171.92
4157.23
4142.33
4127.48
4112.92
4098.83
4085.38
4072.67
4060.77
4049.72
4039.55
4030.24
4021.77
4014.11
4007.22
4001.05
3995.52
3990.58
3986.16
3982.2
3978.63
3975.41
3972.49
3969.83
3967.4
3965.17
3963.11
3961.19
3959.38
3957.66
3956
3954.37
3952.77
3951.16
3949.54
3947.89
3946.21
3944.49
3942.73
3940.92
3939.07
3937.17
3935.21
3933.19
3931.11
3928.96
3926.72
3924.39
3921.97
3919.43
3916.77
3913.96
3911
3907.86
3904.51
3900.92
3897.05
3892.86
3888.32
3883.32
3877.89
3871.8
3865.25
3857.6
3849.77
3839.58
3830.85
3816
3806.65
3784.78
3774.96
3740.39
3739.07
3727.06
735.417
740.054
750.975
769.222
796.353
834.391
885.832
953.592
1040.71
1149.59
1280.63
1430.61
1591.96
1754.16
1907.57
2047.57
2175.64
2296.69
2415.49
2534.81
2655.46
2776.45
2896.24
3013.34
3126.39
3234.27
3336.1
3431.38
3520.14
3603.03
3681.33
3756.85
3831.48
3906.93
3984.49
4064.91
4148.3
4233.94
4320.37
4405.53
4486.96
4562
4627.27
4679.2
4712.9
4729.1
4726.87
4696.03
4625.91
4495.2
4313.24
4083.65
3809.86
3522.53
3243.81
2994.52
2782.27
2611.63
2472.02
2344.77
2226.84
2126.26
2033.68
1942.88
1849.24
1755.14
1665.56
1589.08
1536.63
1514.12
1523.19
1566.21
1635.15
1720.91
1812.81
1905.71
1997.6
2086.45
2171.28
2251.71
2327.52
2398.86
2465.75
2528.21
2586.27
2639.91
2689.21
2734.27
2775.18
2812.05
2844.96
2874.06
2899.47
2921.36
2939.85
2955.11
2967.44
2977.14
2984.27
2988.93
2991.76
2992.38
2991.59
2989.7
2986.29
2982.02
2977.18
2971.83
2966.15
2960.3
2954.42
2948.63
2943.02
2937.64
2932.55
2927.78
2923.35
2919.27
2915.53
2912.12
2909.03
2906.24
2903.74
2901.49
2899.46
2897.62
2895.95
2894.43
2893.03
2891.73
2890.53
2889.41
2888.34
2887.33
2886.37
2885.43
2884.5
2883.59
2882.67
2881.73
2880.77
2879.79
2878.77
2877.73
2876.65
2875.54
2874.4
2873.22
2872
2870.75
2869.45
2868.12
2866.74
2865.31
2863.82
2862.27
2860.66
2858.97
2857.19
2855.32
2853.33
2851.22
2848.96
2846.52
2843.9
2841.04
2837.96
2834.52
2830.87
2826.62
2822.36
2816.79
2812.15
2804.24
2799.26
2788.33
2782.89
2767.21
2767.38
2791.12
754.194
757.463
765.866
780.38
802.512
834.109
877.222
934.173
1007.11
1097.44
1204.88
1326.29
1455.26
1583.15
1702.12
1808.29
1902.7
1989.22
2071.61
2151.65
2229.4
2303.79
2373.36
2437.09
2494.36
2544.91
2588.68
2625.97
2657.36
2683.96
2707.39
2729.36
2751.48
2774.91
2800.29
2827.72
2856.66
2885.86
2913.58
2937.88
2956.03
2964.77
2965.8
2952.35
2924.18
2875.94
2802.05
2707.6
2593.08
2462.02
2323.98
2185.62
2055.08
1939.2
1841.72
1764.75
1703.4
1656.11
1618.1
1587.81
1558.27
1526.76
1497.71
1469.16
1440.67
1412.56
1388.38
1374.53
1370.19
1378.73
1400.54
1434.07
1476.22
1523.21
1571.69
1620.91
1671.06
1720.68
1768.86
1815.39
1859.99
1902.88
1943.88
1982.83
2019.63
2054.2
2086.51
2116.55
2144.32
2169.82
2193.07
2214.11
2232.97
2249.72
2264.41
2277.12
2287.97
2297.13
2304.62
2310.55
2315.16
2318.38
2320.56
2321.89
2322.15
2321.79
2321
2319.65
2317.92
2315.95
2313.83
2311.65
2309.43
2307.24
2305.1
2303.03
2301.07
2299.22
2297.49
2295.88
2294.38
2292.99
2291.71
2290.52
2289.42
2288.38
2287.39
2286.45
2285.55
2284.67
2283.81
2282.97
2282.14
2281.31
2280.49
2279.66
2278.82
2277.96
2277.09
2276.19
2275.26
2274.31
2273.32
2272.29
2271.24
2270.15
2269.03
2267.89
2266.71
2265.5
2264.26
2262.98
2261.68
2260.34
2258.96
2257.54
2256.08
2254.57
2253
2251.37
2249.68
2247.9
2246.04
2244.08
2242.01
2239.8
2237.48
2234.95
2232.32
2229.32
2226.39
2222.65
2219.55
2214.59
2211.34
2204.93
2201.5
2193.45
2194.13
2223.06
789.238
789.41
793.018
801.226
815.661
838.12
870.455
914.471
971.696
1042.89
1127.36
1222.21
1322.13
1420.25
1510.26
1588.78
1656.08
1714.73
1767.4
1815.35
1858.46
1896.08
1927.68
1953.11
1972.39
1986.09
1994.35
1998.18
1999.29
1997.65
1994.98
1992.68
1992.22
1993.58
1997.14
2002.67
2009.4
2016.04
2020.37
2022.2
2018.93
2009.3
1991.8
1965.23
1928.75
1877.61
1810.38
1734.61
1654.22
1573.79
1497.84
1429.77
1372.72
1327.87
1294.71
1272.1
1257.75
1250.17
1246.52
1241.54
1237.15
1231.01
1227.69
1225.74
1224.74
1224.53
1226.5
1232.01
1241.6
1256.12
1275.81
1300.19
1327.93
1356.86
1386.89
1418.11
1449.7
1481.13
1512.3
1543.1
1573.25
1603.54
1633.13
1661.71
1689.1
1715.19
1739.91
1763.18
1784.97
1805.26
1824.03
1841.28
1857.02
1871.28
1884.08
1895.47
1905.52
1914.31
1921.89
1928.33
1933.75
1938.16
1941.73
1944.58
1946.67
1948.18
1949.25
1949.87
1950.14
1950.09
1949.86
1949.5
1949
1948.39
1947.73
1947.03
1946.31
1945.58
1944.86
1944.13
1943.4
1942.68
1941.96
1941.25
1940.53
1939.81
1939.07
1938.31
1937.53
1936.73
1935.91
1935.06
1934.19
1933.29
1932.36
1931.4
1930.42
1929.4
1928.35
1927.26
1926.13
1924.97
1923.77
1922.53
1921.25
1919.94
1918.6
1917.22
1915.81
1914.37
1912.9
1911.4
1909.86
1908.3
1906.7
1905.07
1903.41
1901.7
1899.96
1898.17
1896.33
1894.43
1892.48
1890.45
1888.36
1886.18
1883.93
1881.53
1879.11
1876.43
1873.83
1870.69
1868.02
1864.17
1861.46
1856.83
1854.13
1848.98
1849.3
1872.45
860.518
848.42
841.559
838.276
840.305
849.545
867.702
896.151
936.011
987.53
1049.7
1119.87
1193.72
1265.93
1331.52
1387.43
1433.16
1470.02
1499.71
1523.34
1541.26
1552.9
1558.69
1560.45
1557.59
1550.94
1541.55
1530.27
1517.96
1505.54
1494.01
1484.21
1476.76
1471.84
1469.5
1468.98
1469.36
1469.7
1468.76
1465.41
1458.51
1447.22
1430.89
1409.27
1380.9
1342.8
1295.05
1244.12
1193.71
1147.36
1109.13
1078.65
1056.44
1044.05
1038.96
1038.11
1042.55
1049.41
1055.19
1058.12
1062.61
1067.33
1072.95
1079.13
1085.36
1091.55
1097.75
1105.66
1115.73
1128.34
1143.84
1162.27
1183.13
1205.9
1230.62
1256.47
1281.94
1307.48
1333.43
1359.65
1385.89
1412.02
1437.76
1462.88
1487.22
1510.62
1532.97
1554.2
1574.24
1593.04
1610.57
1626.81
1641.79
1655.5
1667.97
1679.24
1689.38
1698.44
1706.47
1713.53
1719.7
1725.03
1729.6
1733.51
1736.79
1739.53
1741.82
1743.69
1745.21
1746.42
1747.39
1748.15
1748.74
1749.17
1749.48
1749.66
1749.74
1749.73
1749.66
1749.53
1749.31
1749
1748.64
1748.23
1747.74
1747.18
1746.56
1745.87
1745.12
1744.31
1743.44
1742.51
1741.53
1740.49
1739.4
1738.26
1737.07
1735.83
1734.54
1733.2
1731.81
1730.37
1728.88
1727.35
1725.77
1724.15
1722.49
1720.79
1719.05
1717.28
1715.47
1713.63
1711.75
1709.84
1707.89
1705.91
1703.9
1701.84
1699.75
1697.62
1695.45
1693.22
1690.96
1688.63
1686.26
1683.8
1681.31
1678.7
1676.09
1673.27
1670.55
1667.42
1664.64
1661.05
1658.27
1654.17
1651.51
1647.31
1646.63
1661.22
997.602
952.761
924.272
899.943
881.703
871.578
870.619
880.154
900.768
932.138
972.818
1020.21
1070.76
1120.47
1165.55
1203.3
1232.59
1253.64
1267.11
1273.59
1275.25
1271.98
1264.05
1252.86
1238.97
1223.45
1207.17
1190.87
1175.27
1161.04
1148.79
1138.98
1131.84
1127.59
1126.02
1125.98
1127.03
1128.23
1128.65
1126.98
1122.45
1114.43
1102.41
1085.96
1065.41
1039.13
1008.08
977.297
949.502
926.417
910.195
902.107
899.509
903.911
913.275
926.073
940.302
954.006
964.318
973.329
980.53
984.345
984.949
982.855
979.549
976.933
976.423
978.822
984.544
993.245
1004.22
1018.13
1035.29
1055.3
1077.66
1101.69
1126.8
1153.03
1180.17
1207.95
1236.22
1263.97
1291.38
1318.32
1344.63
1370.12
1394.65
1418.08
1440.3
1461.25
1480.88
1499.15
1516.06
1531.62
1545.86
1558.83
1570.58
1581.17
1590.68
1599.17
1606.74
1613.44
1619.36
1624.57
1629.15
1633.16
1636.67
1639.75
1642.44
1644.79
1646.84
1648.63
1650.19
1651.56
1652.73
1653.73
1654.57
1655.26
1655.81
1656.22
1656.49
1656.63
1656.65
1656.58
1656.38
1656.03
1655.57
1655.01
1654.34
1653.57
1652.7
1651.75
1650.71
1649.59
1648.39
1647.11
1645.76
1644.34
1642.84
1641.28
1639.65
1637.95
1636.2
1634.38
1632.51
1630.58
1628.61
1626.58
1624.5
1622.38
1620.21
1618
1615.74
1613.45
1611.11
1608.73
1606.32
1603.86
1601.35
1598.81
1596.22
1593.58
1590.9
1588.15
1585.37
1582.5
1579.61
1576.61
1573.61
1570.43
1567.34
1563.91
1560.77
1556.99
1553.87
1549.68
1546.78
1542.61
1540.91
1547.45
1249.18
1129.97
1058.57
996.967
946.325
907.178
879.513
864.886
862.866
872.9
892.875
919.705
950.006
980.527
1008.43
1031.52
1048.46
1057.86
1061.07
1059.76
1053.34
1042.91
1029.43
1013.86
997.049
979.875
963.07
947.267
933.014
920.785
910.959
903.735
899.983
898.907
899.431
901.622
904.55
907.25
908.584
908.847
906.556
901.588
893.564
882.563
869.638
854.209
837.624
823.218
814.218
810.577
810.416
817.393
829.627
847.179
868.06
890.152
910.746
928.562
943.614
954.94
960.705
962.302
957.844
948.228
934.181
917.607
900.767
885.397
873.662
867.134
866.937
872.666
883.762
899.005
917.242
937.989
961.706
987.957
1016.13
1045.78
1076.8
1108.5
1140.59
1172.73
1204.66
1236.09
1266.75
1296.39
1324.81
1351.86
1377.4
1401.35
1423.67
1444.33
1463.34
1480.76
1496.63
1511.02
1524.02
1535.74
1546.27
1555.7
1564.14
1571.68
1578.41
1584.43
1589.81
1594.62
1598.95
1602.84
1606.34
1609.49
1612.33
1614.9
1617.21
1619.29
1621.13
1622.76
1624.19
1625.42
1626.45
1627.31
1628
1628.5
1628.83
1628.97
1628.97
1628.83
1628.49
1628.02
1627.42
1626.69
1625.86
1624.89
1623.82
1622.64
1621.36
1619.97
1618.49
1616.91
1615.25
1613.49
1611.65
1609.74
1607.75
1605.69
1603.55
1601.35
1599.09
1596.76
1594.37
1591.92
1589.41
1586.85
1584.24
1581.57
1578.85
1576.08
1573.27
1570.39
1567.47
1564.49
1561.46
1558.36
1555.22
1551.98
1548.73
1545.35
1542
1538.45
1535
1531.23
1527.73
1523.66
1520.21
1515.73
1512.69
1508.12
1505.97
1506.51
1689.49
1417.57
1264.79
1139.93
1040.24
960.586
897.155
850.39
821.146
808.263
807.102
814.791
827.667
842.375
856.28
867.496
874.238
876.525
875.146
869.609
860.527
848.718
835.005
820.198
805.06
790.283
776.445
764.03
753.435
744.97
739.029
736.29
735.697
737.032
740.35
744.709
749.424
753.805
757.471
759.516
760.228
759.766
757.189
753.393
748.895
744.44
742.135
741.75
747.778
759.764
777.308
799.878
826.498
856.075
887.233
917.713
944.711
967.86
984.514
992.739
995.151
988.676
975.013
955.979
933.322
908.222
881.866
855.393
829.264
805.25
785.589
770.819
762.021
759.801
763.714
774.902
790.976
811.392
835.475
861.697
890.359
921.557
954.797
989.459
1025.17
1061.64
1098.45
1135.15
1171.31
1206.59
1240.69
1273.33
1304.32
1333.48
1360.71
1386
1409.32
1430.69
1450.2
1467.95
1484.03
1498.56
1511.65
1523.43
1534.03
1543.56
1552.16
1559.93
1566.97
1573.36
1579.18
1584.5
1589.36
1593.82
1597.93
1601.72
1605.19
1608.37
1611.28
1613.94
1616.35
1618.53
1620.49
1622.23
1623.75
1625.05
1626.13
1626.99
1627.66
1628.14
1628.44
1628.57
1628.57
1628.41
1628.07
1627.61
1627.01
1626.27
1625.41
1624.42
1623.3
1622.07
1620.72
1619.27
1617.72
1616.06
1614.31
1612.47
1610.54
1608.52
1606.42
1604.23
1601.95
1599.61
1597.19
1594.69
1592.13
1589.5
1586.81
1584.05
1581.23
1578.33
1575.36
1572.32
1569.22
1566.01
1562.78
1559.41
1556.06
1552.51
1549.06
1545.3
1541.79
1537.75
1534.35
1529.9
1527.1
1522.41
1521.01
1517.37
2425.41
1858.95
1558.5
1331.08
1159.84
1028.51
923.898
842.138
783.121
744.482
722.607
713.007
710.739
712.133
714.805
716.465
716.599
714.332
709.627
702.567
693.498
682.938
671.487
659.765
648.345
637.733
628.35
620.545
614.596
611.293
610.167
610.904
614.132
619.124
625.636
633.079
640.941
648.806
656.265
662.896
668.692
673.642
677.71
681.567
686.126
693.312
705.557
722.102
743.799
769.055
801.497
841.55
887.264
936.186
983.236
1026.71
1065.08
1093.68
1109.9
1116.32
1111.12
1093.73
1066.32
1031.5
991.72
949.517
907.274
866.685
829.276
795.376
764.91
737.835
713.661
693.228
677.967
667.932
663.346
664.13
670.991
684.525
702.381
724.498
750.908
780.262
811.608
845.229
881.094
918.609
957.186
996.346
1035.67
1074.73
1113.06
1150.23
1185.91
1219.87
1251.89
1281.83
1309.63
1335.31
1358.92
1380.53
1400.25
1418.2
1434.53
1449.35
1462.81
1475.03
1486.16
1496.3
1505.58
1514.09
1521.92
1529.16
1535.89
1542.15
1547.99
1553.44
1558.55
1563.35
1567.85
1572.09
1576.09
1579.84
1583.35
1586.62
1589.62
1592.38
1594.9
1597.19
1599.26
1601.15
1602.85
1604.37
1605.71
1606.88
1607.9
1608.76
1609.46
1610.01
1610.41
1610.67
1610.77
1610.77
1610.62
1610.35
1609.96
1609.46
1608.84
1608.11
1607.28
1606.34
1605.31
1604.19
1602.97
1601.66
1600.27
1598.8
1597.24
1595.61
1593.91
1592.12
1590.25
1588.3
1586.27
1584.14
1581.97
1579.65
1577.35
1574.87
1572.47
1569.81
1567.38
1564.52
1562.25
1559.15
1557.55
1554.44
1554.15
1551.7
3557.08
2479.11
1936.06
1558.3
1292.42
1102.7
957.995
842.84
755.099
692.446
650.291
623.631
607.635
598.184
592.171
587.451
582.785
577.498
571.358
564.375
556.722
548.686
540.619
532.904
525.921
520.008
515.45
512.887
512.031
513.101
516.474
521.964
529.572
538.918
549.642
561.291
573.46
585.844
598.205
610.397
622.465
634.642
647.497
661.023
675.939
694.227
716.872
748.163
788.24
838.06
899.755
967.701
1034.61
1099.06
1162.06
1220.53
1270.51
1305.8
1324.81
1331.74
1319.6
1291.54
1249.15
1195.39
1134.3
1069.9
1006
944.816
887.923
836.191
789.991
749.245
713.907
683.457
657.117
634.595
615.374
598.922
586.826
579.516
576.834
577.809
584.475
597.299
614.265
635.311
660.613
689.624
721.214
754.803
790.088
826.995
864.988
903.465
941.855
979.685
1016.58
1052.17
1086.13
1118.27
1148.49
1176.72
1202.94
1227.16
1249.45
1269.91
1288.66
1305.83
1321.56
1335.98
1349.23
1361.42
1372.7
1383.18
1393
1402.24
1410.95
1419.18
1426.99
1434.42
1441.51
1448.31
1454.84
1461.12
1467.15
1472.91
1478.41
1483.64
1488.61
1493.33
1497.82
1502.08
1506.14
1510
1513.67
1517.17
1520.48
1523.63
1526.61
1529.42
1532.07
1534.55
1536.88
1539.06
1541.1
1543
1544.77
1546.41
1547.92
1549.3
1550.56
1551.7
1552.7
1553.6
1554.37
1555.05
1555.62
1556.11
1556.51
1556.84
1557.1
1557.29
1557.4
1557.44
1557.41
1557.29
1557.12
1556.86
1556.57
1556.19
1555.83
1555.37
1555.01
1554.54
1554.3
1554.04
1554.24
1554.6
1555.74
1559.71
5079.09
3250.65
2369.44
1803.16
1428.91
1173.65
991.593
851.313
740.632
657.083
596.74
554.744
526.346
507.297
494.167
484.475
476.626
469.716
463.317
457.287
451.649
446.514
442.044
438.421
435.968
434.885
435.01
436.968
440.788
446.642
454.665
464.862
477.14
491.208
506.679
523.161
540.376
558.182
576.571
595.249
614.054
632.949
651.607
672.68
698.029
732.858
782.051
848.122
927.811
1006.68
1085.54
1162.52
1242.09
1322.88
1402.16
1474.8
1536.99
1584.3
1612.28
1623.74
1611.9
1578.37
1525.31
1454.81
1371.89
1281.79
1190.69
1103.3
1022.31
949.312
884.786
827.781
777.052
731.707
691.009
654.554
622.372
594.662
570.902
550.83
534.2
520.558
509.615
502.557
499.743
500.027
503.887
514.106
528.296
546.018
567.507
592.679
620.812
651.086
682.892
715.625
748.862
782.268
815.443
848.03
879.804
910.572
940.113
968.204
994.688
1019.51
1042.67
1064.2
1084.17
1102.65
1119.73
1135.52
1150.19
1163.88
1176.76
1188.94
1200.49
1211.49
1221.98
1232.03
1241.7
1251.04
1260.08
1268.87
1277.4
1285.67
1293.65
1301.35
1308.76
1315.9
1322.78
1329.41
1335.82
1342.01
1348
1353.79
1359.41
1364.86
1370.13
1375.23
1380.16
1384.92
1389.53
1393.98
1398.29
1402.45
1406.49
1410.39
1414.16
1417.82
1421.35
1424.77
1428.07
1431.26
1434.34
1437.33
1440.21
1443.02
1445.76
1448.46
1451.09
1453.7
1456.25
1458.79
1461.24
1463.71
1466.07
1468.47
1470.76
1473.16
1475.43
1477.93
1480.23
1483.02
1485.49
1488.92
1491.83
1496.56
1500.43
1513.23
6866.23
4108.67
2823.08
2047.36
1559.98
1240.14
1021.2
862.616
738.881
640.458
565.278
509.816
470.032
442.064
422.494
408.582
398.361
390.565
384.465
379.695
376.1
373.714
372.608
372.521
373.854
376.668
381.066
387.224
395.291
405.441
417.835
432.564
449.553
468.504
488.986
510.623
532.881
555.495
578.113
601.481
626.52
654.55
688.065
729.321
782.746
863.843
954.353
1039.52
1117.29
1201.19
1289.87
1385.45
1485.57
1587.42
1683.77
1772.27
1848.77
1908.03
1945.84
1961.91
1957.76
1922.8
1866.6
1788.06
1690.6
1581.66
1465.97
1349.66
1238.67
1137.08
1047.97
971.085
904.441
846.344
794.898
747.903
703.924
662.508
623.814
588.217
556.178
528.166
504.475
484.574
468.099
454.835
444.597
436.82
432.001
430.652
431.518
436.149
446.115
459.191
475.302
494.583
517.256
542.593
569.197
595.742
621.548
646.775
671.65
696.051
719.782
742.703
764.76
785.967
806.352
825.896
844.548
862.277
879.113
895.142
910.481
925.215
939.384
953.01
966.132
978.8
991.06
1002.95
1014.53
1025.82
1036.83
1047.57
1057.98
1068.05
1077.77
1087.16
1096.22
1104.97
1113.45
1121.67
1129.66
1137.43
1145.02
1152.43
1159.67
1166.74
1173.65
1180.4
1186.99
1193.44
1199.75
1205.93
1211.98
1217.91
1223.73
1229.44
1235.04
1240.53
1245.92
1251.21
1256.38