/*--------------------------------*- C++ -*----------------------------------*\
| =========                 |                                                 |
| \\      /  F ield         | OpenFOAM: The Open Source CFD Toolbox           |
|  \\    /   O peration     | Version:  2112                                  |
|   \\  /    A nd           | Website:  www.openfoam.com                      |
|    \\/     M anipulation  |                                                 |
\*---------------------------------------------------------------------------*/
FoamFile
{
    version     2.0;
    format      ascii;
    arch        "LSB;label=32;scalar=64";
    class       volScalarField;
    location    "0.11";
    object      p;
}
// * * * * * * * * * * * * * * * * * * * * * * * * * * * * * * * * * * * * * //

dimensions      [0 2 -2 0 0 0 0];

internalField   nonuniform List<scalar> 
12225
(
-3.40013
-5.73319
-6.8588
-7.14553
-7.31799
-7.49301
-7.63568
-7.74211
-7.82955
-7.90845
-7.98117
-8.04837
-8.11137
-8.1713
-8.22925
-8.28271
-8.33925
-8.3564
-6.97459
-7.70371
-7.77229
-7.61651
-7.56151
-7.62223
-7.70764
-7.78313
-7.85243
-7.9202
-7.98595
-8.04874
-8.10891
-8.16712
-8.22411
-8.27937
-8.33844
-8.41262
-7.0103
-6.80057
-6.95125
-7.11597
-7.27782
-7.44629
-7.59061
-7.70335
-7.79668
-7.88015
-7.95656
-8.0268
-8.09227
-8.15439
-8.21462
-8.27376
-8.33872
-8.41561
-6.88981
-6.81601
-7.14751
-7.35573
-7.46579
-7.57309
-7.67636
-7.76361
-7.8396
-7.91056
-7.97794
-8.04166
-8.10241
-8.16116
-8.21916
-8.27754
-8.34081
-8.41032
-6.9252
-6.9567
-7.21997
-7.37027
-7.45056
-7.54637
-7.64897
-7.73939
-7.81863
-7.89218
-7.96171
-8.02732
-8.08971
-8.14991
-8.20916
-8.26867
-8.33126
-8.39802
-6.99475
-7.03988
-7.22774
-7.36276
-7.45188
-7.55059
-7.65256
-7.74243
-7.82116
-7.89394
-7.96264
-8.02755
-8.08931
-8.14894
-8.20755
-8.26619
-8.32671
-8.38967
-7.05617
-7.0953
-7.24242
-7.37385
-7.46807
-7.56244
-7.65821
-7.7446
-7.82146
-7.89279
-7.9603
-8.0243
-8.08535
-8.14432
-8.20213
-8.2596
-8.31778
-8.37657
-7.11134
-7.14702
-7.26803
-7.39016
-7.48281
-7.57149
-7.66156
-7.74504
-7.82047
-7.89064
-7.95713
-8.02031
-8.08065
-8.13886
-8.19566
-8.2516
-8.30722
-8.36201
-7.16364
-7.19694
-7.29689
-7.40651
-7.49576
-7.57998
-7.66524
-7.74578
-7.81953
-7.88834
-7.95362
-8.01577
-8.07516
-8.13232
-8.18779
-8.24189
-8.29483
-8.34593
-7.21333
-7.24367
-7.32653
-7.42379
-7.50891
-7.58911
-7.6697
-7.74693
-7.81862
-7.88583
-7.9497
-8.0106
-8.0688
-8.12467
-8.17859
-8.2307
-8.28101
-8.32882
-7.26005
-7.28703
-7.35644
-7.4424
-7.52253
-7.59863
-7.67467
-7.74841
-7.81779
-7.8832
-7.94547
-8.00493
-8.06174
-8.11614
-8.16834
-8.21839
-8.26619
-8.3111
-7.3
-7.32398
-7.38365
-7.46026
-7.53526
-7.6075
-7.67958
-7.75007
-7.81714
-7.88074
-7.94141
-7.99938
-8.05475
-8.10766
-8.15822
-8.20638
-8.25204
-8.29463
-7.33679
-7.35817
-7.40985
-7.47812
-7.54792
-7.61631
-7.68463
-7.75191
-7.81659
-7.87828
-7.93724
-7.99364
-8.04749
-8.09885
-8.14774
-8.19409
-8.23777
-8.27832
-7.37508
-7.39385
-7.43813
-7.4982
-7.56216
-7.62619
-7.69043
-7.75414
-7.81599
-7.87539
-7.93232
-7.98682
-8.03886
-8.0884
-8.1354
-8.17977
-8.22141
-8.25996
-7.41336
-7.42959
-7.4673
-7.51966
-7.57748
-7.63671
-7.69664
-7.75651
-7.81518
-7.87192
-7.92649
-7.9788
-8.02875
-8.07624
-8.12118
-8.16349
-8.2031
-8.23975
-7.44933
-7.46323
-7.49537
-7.54089
-7.59269
-7.647
-7.70255
-7.75849
-7.81376
-7.86758
-7.91955
-7.96945
-8.01712
-8.06242
-8.10524
-8.14551
-8.18317
-8.21809
-7.47961
-7.49158
-7.51931
-7.5592
-7.60567
-7.65536
-7.7068
-7.75898
-7.81091
-7.86179
-7.91111
-7.95855
-8.00392
-8.04705
-8.08783
-8.12619
-8.1621
-8.19551
-7.4992
-7.50981
-7.53448
-7.5704
-7.61292
-7.659
-7.70713
-7.75624
-7.80536
-7.85368
-7.90065
-7.94592
-7.98925
-8.03046
-8.06947
-8.1062
-8.14065
-8.17282
-7.50032
-7.51032
-7.53371
-7.568
-7.60883
-7.65325
-7.69973
-7.74722
-7.79477
-7.84158
-7.88709
-7.93095
-7.97292
-8.01286
-8.05068
-8.08636
-8.11989
-8.15133
-7.4766
-7.48718
-7.51188
-7.54806
-7.59077
-7.63662
-7.68412
-7.73242
-7.78061
-7.82783
-7.87352
-7.91739
-7.95924
-7.99896
-8.0365
-8.07187
-8.10508
-8.13623
-7.44255
-7.4541
-7.48141
-7.52158
-7.56822
-7.61711
-7.66702
-7.71743
-7.76735
-7.81589
-7.86259
-7.90724
-7.9497
-7.98986
-8.02773
-8.06334
-8.09676
-8.12812
-7.40018
-7.41269
-7.44412
-7.49083
-7.54289
-7.59545
-7.64875
-7.70249
-7.7551
-7.80555
-7.85363
-7.89932
-7.94257
-7.9833
-8.02156
-8.05743
-8.09102
-8.12244
-7.35273
-7.36477
-7.40191
-7.45907
-7.51801
-7.57386
-7.63035
-7.68773
-7.74354
-7.79652
-7.84662
-7.89394
-7.93844
-7.98012
-8.01909
-8.05553
-8.0896
-8.12154
-7.30335
-7.31197
-7.35575
-7.42613
-7.49357
-7.55458
-7.61551
-7.67602
-7.73366
-7.78801
-7.83942
-7.88787
-7.93323
-7.97552
-8.01495
-8.05173
-8.086
-8.11792
-7.25314
-7.25648
-7.3155
-7.39464
-7.46203
-7.52907
-7.60036
-7.66857
-7.73039
-7.78734
-7.84076
-7.89072
-7.93707
-7.97997
-8.01973
-8.05667
-8.09109
-8.12348
-7.20001
-7.18009
-7.29597
-7.39493
-7.44169
-7.49521
-7.56608
-7.63762
-7.70275
-7.76285
-7.8193
-7.87194
-7.92056
-7.96538
-8.00679
-8.04516
-8.08075
-8.11375
-7.17043
-7.02362
-7.22759
-7.42645
-7.50781
-7.56674
-7.63114
-7.69364
-7.75096
-7.80496
-7.8564
-7.90464
-7.94933
-7.99061
-8.02883
-8.06434
-8.0976
-8.12958
-7.31433
-6.88975
-6.89392
-7.03621
-7.18053
-7.3289
-7.45555
-7.55863
-7.64529
-7.72207
-7.79131
-7.85341
-7.90895
-7.95877
-8.00368
-8.04436
-8.08165
-8.11692
-7.43196
-7.95263
-7.92891
-7.71898
-7.60913
-7.60611
-7.64997
-7.69917
-7.74871
-7.79981
-7.85071
-7.89926
-7.9446
-7.98663
-8.02542
-8.06096
-8.0937
-8.12493
-3.84362
-5.81822
-6.87889
-7.13012
-7.25471
-7.39364
-7.51798
-7.61485
-7.69462
-7.76589
-7.8305
-7.88837
-7.94004
-7.98634
-8.02788
-8.06483
-8.09729
-8.12368
-9.16621
-9.16478
-9.16133
-9.15747
-9.15484
-9.15458
-9.15689
-9.16126
-9.16686
-9.17272
-9.17787
-9.18145
-9.18269
-9.18152
-9.17824
-9.17327
-9.16703
-9.16013
-9.15336
-9.14748
-9.14312
-9.14068
-9.14028
-9.14197
-9.14579
-9.1519
-9.16058
-9.17226
-9.18753
-9.20693
-9.23095
-9.25995
-9.29405
-9.33311
-9.37669
-9.42413
-9.47457
-9.52706
-9.58064
-9.63441
-9.68756
-9.7394
-9.78938
-9.83711
-9.88229
-9.92473
-9.96432
-10.001
-10.0348
-10.0658
-10.0939
-10.1192
-10.1418
-10.1616
-10.1788
-10.1934
-10.2053
-10.2145
-10.2211
-10.2249
-10.2259
-10.224
-10.2192
-10.2113
-10.2002
-10.1858
-10.1679
-10.1464
-10.1211
-10.0919
-10.0584
-10.0206
-9.97821
-9.931
-9.87875
-9.8212
-9.75811
-9.68921
-9.61426
-9.53296
-9.44506
-9.35028
-9.24835
-9.13901
-9.02201
-8.8972
-8.76435
-8.62312
-8.47325
-8.31395
-8.14523
-7.967
-7.77915
-7.58154
-7.37407
-7.15667
-6.9293
-6.69196
-6.44471
-6.18765
-5.92094
-5.6448
-5.35951
-5.0654
-4.76289
-4.45243
-4.13457
-3.80988
-3.47902
-3.14271
-2.80169
-2.45678
-2.10882
-1.75868
-1.40727
-1.05548
-0.704237
-0.354439
-0.00696931
0.337318
0.677614
1.01316
1.34325
1.66727
1.98467
2.29498
2.59783
2.89295
3.18017
3.45941
3.73069
3.99414
4.24998
4.49855
4.74025
4.97558
5.20512
5.42955
5.64959
5.86604
6.07975
6.29161
6.50256
6.71355
6.92558
7.1396
7.3566
7.57751
7.80324
8.03464
8.2725
8.51749
8.77023
9.03121
9.30069
9.57855
9.86459
10.1586
10.4601
10.7684
11.0827
11.4018
11.7241
12.0482
12.3721
12.6938
13.0112
13.3219
13.6238
13.9147
14.1924
14.4554
14.7023
14.9327
15.1476
15.3495
15.5471
15.7502
16.0199
16.3644
-9.17805
-9.17363
-9.171
-9.17091
-9.17274
-9.17598
-9.18021
-9.1849
-9.18943
-9.19321
-9.19571
-9.19651
-9.19532
-9.19133
-9.18428
-9.17443
-9.16257
-9.14975
-9.13723
-9.1262
-9.11753
-9.11152
-9.10799
-9.10663
-9.10727
-9.10995
-9.11513
-9.12357
-9.13615
-9.15378
-9.17713
-9.20664
-9.24235
-9.28389
-9.33052
-9.38124
-9.43491
-9.49035
-9.54646
-9.60226
-9.65693
-9.70984
-9.76051
-9.80861
-9.85393
-9.89635
-9.93582
-9.97234
-10.0059
-10.0367
-10.0646
-10.0898
-10.1123
-10.1322
-10.1494
-10.164
-10.176
-10.1855
-10.1923
-10.1964
-10.1977
-10.1963
-10.1919
-10.1846
-10.1741
-10.1604
-10.1432
-10.1226
-10.0982
-10.0699
-10.0375
-10.0008
-9.95968
-9.91379
-9.86295
-9.80691
-9.74544
-9.67828
-9.60516
-9.52583
-9.44
-9.34742
-9.24778
-9.14081
-9.02623
-8.9037
-8.77292
-8.63361
-8.48517
-8.32809
-8.162
-7.98662
-7.80173
-7.60717
-7.40282
-7.18858
-6.96441
-6.73029
-6.48627
-6.23244
-5.96893
-5.69596
-5.41378
-5.12271
-4.82313
-4.51548
-4.20029
-3.87812
-3.54961
-3.21543
-2.87634
-2.53312
-2.18659
-1.83763
-1.48711
-1.13594
-0.785031
-0.435275
-0.0875631
0.257246
0.59833
0.934917
1.26629
1.5918
1.91088
2.22303
2.52785
2.82505
3.11439
3.39579
3.66922
3.93477
4.19264
4.44311
4.68657
4.92348
5.15441
5.37998
5.60091
5.81797
6.032
6.24388
6.45452
6.66489
6.87596
7.0887
7.30409
7.52307
7.74656
7.97544
8.21047
8.45238
8.70179
8.95921
9.22486
9.49873
9.78071
10.0706
10.3679
10.6721
10.9823
11.2973
11.6158
11.9361
12.2566
12.5752
12.8899
13.1984
13.4986
13.7883
14.0656
14.3288
14.5768
14.8092
15.0271
15.2331
15.4355
15.6417
15.8986
16.1759
-9.18613
-9.18017
-9.17794
-9.17985
-9.18424
-9.18963
-9.19508
-9.1999
-9.20357
-9.20567
-9.20587
-9.20391
-9.19962
-9.19282
-9.18348
-9.17189
-9.15861
-9.14448
-9.13052
-9.11773
-9.10689
-9.0984
-9.09234
-9.08872
-9.08768
-9.08962
-9.0952
-9.10518
-9.1203
-9.14111
-9.16789
-9.20056
-9.23873
-9.28175
-9.32874
-9.37875
-9.43081
-9.48396
-9.53736
-9.59026
-9.64204
-9.69221
-9.74039
-9.78628
-9.82971
-9.87054
-9.90871
-9.94418
-9.97696
-10.0071
-10.0345
-10.0594
-10.0817
-10.1014
-10.1186
-10.1333
-10.1454
-10.155
-10.162
-10.1664
-10.1681
-10.1671
-10.1632
-10.1564
-10.1465
-10.1334
-10.117
-10.0971
-10.0736
-10.0463
-10.0149
-9.97936
-9.93939
-9.89479
-9.84533
-9.79077
-9.73088
-9.6654
-9.59407
-9.51663
-9.43281
-9.34233
-9.24492
-9.1403
-9.02818
-8.90825
-8.78018
-8.64375
-8.49862
-8.34472
-8.18184
-8.00974
-7.82822
-7.63712
-7.4363
-7.22565
-7.00512
-6.77469
-6.53436
-6.28423
-6.02441
-5.75508
-5.47649
-5.18893
-4.89276
-4.58841
-4.27636
-3.95716
-3.63142
-3.29981
-2.96303
-2.62187
-2.27713
-1.92965
-1.58032
-1.23001
-0.879639
-0.530097
-0.182275
0.162963
0.504784
0.842401
1.17508
1.50214
1.82299
2.1371
2.44404
2.74346
3.03511
3.31885
3.59461
3.86245
4.12252
4.37506
4.62042
4.85903
5.09141
5.31817
5.53999
5.75762
5.97189
6.18364
6.3938
6.60331
6.81313
7.02425
7.23763
7.45422
7.67495
7.9007
8.13227
8.37037
8.61564
8.86858
9.12947
9.39849
9.67566
9.96072
10.2533
10.5527
10.8582
11.1687
11.4829
11.7992
12.116
12.4314
12.7432
13.0495
13.348
13.6368
13.9138
14.1776
14.427
14.6617
14.8829
15.0925
15.2985
15.5043
15.7473
15.9659
-9.20007
-9.19575
-9.19466
-9.19696
-9.20118
-9.20594
-9.21037
-9.21389
-9.21605
-9.21652
-9.21502
-9.21137
-9.2054
-9.19705
-9.18641
-9.17379
-9.15974
-9.14502
-9.13057
-9.11734
-9.1061
-9.09736
-9.09138
-9.08838
-9.08865
-9.09264
-9.10089
-9.11395
-9.13224
-9.15597
-9.18509
-9.21927
-9.25801
-9.30061
-9.34632
-9.39433
-9.44384
-9.49409
-9.54442
-9.59421
-9.64297
-9.69028
-9.73581
-9.77932
-9.82062
-9.85958
-9.89614
-9.93024
-9.96186
-9.99102
-10.0177
-10.0419
-10.0638
-10.0831
-10.1001
-10.1147
-10.1268
-10.1365
-10.1436
-10.1483
-10.1503
-10.1496
-10.1461
-10.1398
-10.1305
-10.1181
-10.1024
-10.0833
-10.0606
-10.0341
-10.0038
-9.96925
-9.9304
-9.887
-9.83882
-9.78563
-9.72718
-9.66322
-9.5935
-9.51774
-9.43569
-9.34705
-9.25155
-9.14891
-9.03884
-8.92104
-8.79523
-8.66114
-8.51856
-8.36727
-8.20703
-8.03764
-7.85887
-7.67057
-7.47258
-7.26479
-7.04713
-6.81957
-6.5821
-6.3348
-6.07777
-5.81118
-5.53525
-5.25026
-4.95655
-4.65453
-4.34467
-4.02751
-3.70363
-3.37369
-3.03839
-2.69848
-2.35477
-2.0081
-1.65932
-1.30934
-0.95905
-0.609352
-0.26114
0.0847096
0.427354
0.765988
1.09986
1.42827
1.7506
2.0663
2.37491
2.67604
2.96943
3.25488
3.53232
3.80175
4.06331
4.3172
4.56374
4.80335
5.03651
5.26382
5.48594
5.7036
5.91761
6.12882
6.33813
6.54647
6.75483
6.96419
7.17551
7.38975
7.60786
7.83073
8.05917
8.29392
8.53561
8.78473
9.04159
9.30645
9.57942
9.86033
10.1488
10.4442
10.7457
11.0524
11.363
11.676
11.9897
12.3023
12.6118
12.9161
13.2132
13.501
13.7777
14.0416
14.2918
14.5277
14.7503
14.9612
15.1666
15.3663
15.5889
15.7566
-9.21046
-9.209
-9.20917
-9.21159
-9.21519
-9.21886
-9.22196
-9.22403
-9.22473
-9.22378
-9.22096
-9.21612
-9.20916
-9.20009
-9.18907
-9.1764
-9.16263
-9.14848
-9.13482
-9.12255
-9.11242
-9.10499
-9.10065
-9.0997
-9.10248
-9.10934
-9.12066
-9.13674
-9.15776
-9.18369
-9.2143
-9.2492
-9.28783
-9.32957
-9.37374
-9.41965
-9.46664
-9.51411
-9.56148
-9.6083
-9.65413
-9.69864
-9.74156
-9.78267
-9.82181
-9.85886
-9.89374
-9.92639
-9.95679
-9.98492
-10.0108
-10.0343
-10.0556
-10.0746
-10.0913
-10.1057
-10.1178
-10.1275
-10.1348
-10.1396
-10.1419
-10.1416
-10.1385
-10.1327
-10.1239
-10.112
-10.097
-10.0786
-10.0566
-10.031
-10.0015
-9.96793
-9.93008
-9.88774
-9.84067
-9.78866
-9.73145
-9.6688
-9.60044
-9.52612
-9.44556
-9.35848
-9.2646
-9.16364
-9.05531
-8.93932
-8.81541
-8.68329
-8.54273
-8.39348
-8.23531
-8.06799
-7.89132
-7.70511
-7.50921
-7.3035
-7.08789
-6.86234
-6.62685
-6.38146
-6.12628
-5.86146
-5.5872
-5.30378
-5.01152
-4.71083
-4.40217
-4.08605
-3.76307
-3.43386
-3.09912
-2.75962
-2.41615
-2.06954
-1.72066
-1.37042
-1.01971
-0.669451
-0.320543
0.0261258
0.369696
0.709349
1.04431
1.37387
1.69738
2.01428
2.32407
2.62637
2.92087
3.20736
3.48574
3.75602
4.01828
4.27274
4.51968
4.75951
4.99271
5.21986
5.4416
5.65867
5.87185
6.08202
6.29006
6.49691
6.70355
6.91097
7.12015
7.33206
7.54765
7.76782
7.99341
8.22516
8.46371
8.70956
8.96305
9.22447
9.49398
9.77144
10.0565
10.3486
10.647
10.9507
11.2585
11.5688
11.8801
12.1906
12.4983
12.8011
13.097
13.384
13.6602
13.9241
14.1744
14.4106
14.6331
14.843
15.0447
15.235
15.436
15.5616
-9.21225
-9.21374
-9.2156
-9.21862
-9.22196
-9.22494
-9.22712
-9.22821
-9.22794
-9.2261
-9.22254
-9.21714
-9.20988
-9.20081
-9.19014
-9.17821
-9.16557
-9.15292
-9.14107
-9.13083
-9.1229
-9.11786
-9.11612
-9.118
-9.12379
-9.13374
-9.14807
-9.16688
-9.19016
-9.21774
-9.2493
-9.28442
-9.32257
-9.36319
-9.40568
-9.44949
-9.49407
-9.53891
-9.58356
-9.62764
-9.67081
-9.71277
-9.7533
-9.79222
-9.82936
-9.86464
-9.89795
-9.92925
-9.9585
-9.98565
-10.0107
-10.0336
-10.0544
-10.0731
-10.0896
-10.1038
-10.1159
-10.1257
-10.1331
-10.1381
-10.1407
-10.1407
-10.1381
-10.1327
-10.1245
-10.1132
-10.0987
-10.081
-10.0598
-10.0349
-10.0063
-9.97355
-9.93662
-9.89524
-9.84919
-9.79823
-9.74214
-9.68064
-9.6135
-9.54043
-9.46118
-9.37545
-9.28297
-9.18345
-9.07661
-8.96216
-8.83982
-8.70932
-8.57038
-8.42276
-8.26621
-8.10049
-7.9254
-7.74075
-7.54637
-7.34214
-7.12796
-6.90378
-6.66959
-6.42543
-6.17137
-5.90758
-5.63424
-5.35162
-5.06005
-4.75992
-4.45167
-4.13584
-3.813
-3.4838
-3.14894
-2.80917
-2.46531
-2.11818
-1.76869
-1.41772
-1.06619
-0.715042
-0.365182
-0.017517
0.327079
0.667768
1.00376
1.33432
1.6588
1.9766
2.28722
2.59026
2.88539
3.1724
3.45116
3.72168
3.98404
4.23843
4.48514
4.72455
4.95716
5.18353
5.40431
5.62023
5.83208
6.04073
6.24707
6.45206
6.65667
6.8619
7.06874
7.27819
7.49119
7.70866
7.93145
8.16032
8.39591
8.63875
8.88921
9.1476
9.41409
9.68858
9.97077
10.2601
10.5559
10.8571
11.1625
11.4707
11.7801
12.0889
12.3952
12.6968
12.9918
13.2781
13.5539
13.8174
14.0675
14.3032
14.5248
14.7322
14.9286
15.1081
15.2888
15.3799
-9.2025
-9.20675
-9.21096
-9.21547
-9.21947
-9.2226
-9.22465
-9.22547
-9.22491
-9.22285
-9.21918
-9.21387
-9.20695
-9.19853
-9.18887
-9.17834
-9.16749
-9.15698
-9.14757
-9.13998
-9.13488
-9.13278
-9.13407
-9.13904
-9.1479
-9.1608
-9.17782
-9.19892
-9.22396
-9.25272
-9.28484
-9.31989
-9.35741
-9.3969
-9.43786
-9.47981
-9.52229
-9.56489
-9.60725
-9.64902
-9.68993
-9.72974
-9.76825
-9.80529
-9.84074
-9.8745
-9.90648
-9.93662
-9.96489
-9.99123
-10.0156
-10.038
-10.0585
-10.0768
-10.0932
-10.1074
-10.1195
-10.1294
-10.1371
-10.1424
-10.1453
-10.1457
-10.1435
-10.1386
-10.1309
-10.1202
-10.1064
-10.0893
-10.0688
-10.0447
-10.0168
-9.98494
-9.94886
-9.90838
-9.86326
-9.81328
-9.75819
-9.69775
-9.63169
-9.55974
-9.48163
-9.39709
-9.30583
-9.20755
-9.10198
-8.98882
-8.86778
-8.73859
-8.60095
-8.45461
-8.2993
-8.13481
-7.96089
-7.77736
-7.58405
-7.38082
-7.16756
-6.94422
-6.71078
-6.46727
-6.21376
-5.95039
-5.67736
-5.39493
-5.10341
-4.8032
-4.49475
-4.17858
-3.85528
-3.52549
-3.18993
-2.84935
-2.50458
-2.15647
-1.80591
-1.45383
-1.10116
-0.748844
-0.397818
-0.0490061
0.2967
0.638446
0.975421
1.30687
1.63213
1.9506
2.26176
2.56519
2.86055
3.14765
3.42633
3.69659
3.95852
4.21231
4.45824
4.69669
4.92816
5.15321
5.3725
5.58676
5.7968
6.00348
6.20773
6.41048
6.61274
6.81551
7.0198
7.2266
7.43689
7.65159
7.87155
8.09756
8.33028
8.57024
8.81787
9.07346
9.33721
9.60903
9.88865
10.1756
10.469
10.7681
11.0715
11.3779
11.6857
11.9931
12.2982
12.5988
12.893
13.1787
13.454
13.717
13.9665
14.2012
14.4209
14.625
14.815
14.9834
15.1456
15.2084
-9.18247
-9.18925
-9.19655
-9.20332
-9.20874
-9.21274
-9.21536
-9.21657
-9.21633
-9.21461
-9.2114
-9.20673
-9.20068
-9.19343
-9.18527
-9.1766
-9.16795
-9.15996
-9.15331
-9.14865
-9.14656
-9.14751
-9.15184
-9.15977
-9.17145
-9.18694
-9.20621
-9.22914
-9.25555
-9.28515
-9.3176
-9.35249
-9.38942
-9.42793
-9.46761
-9.50803
-9.54882
-9.58963
-9.63014
-9.67008
-9.7092
-9.7473
-9.7842
-9.81977
-9.85389
-9.88646
-9.91741
-9.94667
-9.9742
-9.99995
-10.0239
-10.046
-10.0662
-10.0845
-10.1008
-10.1151
-10.1273
-10.1375
-10.1454
-10.1511
-10.1544
-10.1553
-10.1536
-10.1492
-10.1421
-10.132
-10.1188
-10.1024
-10.0826
-10.0592
-10.0321
-10.001
-9.96573
-9.92608
-9.88183
-9.83275
-9.77858
-9.71909
-9.654
-9.58305
-9.50596
-9.42246
-9.33225
-9.23504
-9.13054
-9.01846
-8.89849
-8.77034
-8.63373
-8.48837
-8.33401
-8.17039
-7.9973
-7.81452
-7.62189
-7.41924
-7.20649
-6.98354
-6.75039
-6.50704
-6.25358
-5.99014
-5.7169
-5.43412
-5.14213
-4.8413
-4.53211
-4.21507
-3.89078
-3.5599
-3.22314
-2.88129
-2.53517
-2.18566
-1.83368
-1.48015
-1.12605
-0.772323
-0.419944
-0.069856
0.277033
0.61985
0.957767
1.29001
1.61591
1.93484
2.24629
2.54981
2.84509
3.1319
3.4101
3.67967
3.94071
4.1934
4.43803
4.67502
4.90483
5.12807
5.34539
5.55754
5.76533
5.96964
6.17141
6.3716
6.5712
6.77125
6.97276
7.17675
7.38419
7.59602
7.81311
8.03626
8.26613
8.50331
8.74821
9.00116
9.26234
9.5317
9.80897
10.0937
10.385
10.6822
10.9838
11.2887
11.5951
11.9012
12.2052
12.5049
12.7983
13.0833
13.3579
13.6202
13.8687
14.1019
14.3191
14.519
14.702
14.8593
15.0048
15.0443
-9.15524
-9.16462
-9.17527
-9.18465
-9.19189
-9.19722
-9.20087
-9.20294
-9.20349
-9.20258
-9.20028
-9.19666
-9.1919
-9.18619
-9.17986
-9.17332
-9.16708
-9.16173
-9.15787
-9.15609
-9.1569
-9.1607
-9.16778
-9.17832
-9.19239
-9.21
-9.23106
-9.25541
-9.28282
-9.31302
-9.34566
-9.38038
-9.41679
-9.45452
-9.49319
-9.53245
-9.57195
-9.6114
-9.65053
-9.6891
-9.72689
-9.76374
-9.79949
-9.834
-9.86718
-9.89894
-9.9292
-9.95789
-9.98498
-10.0104
-10.0341
-10.0561
-10.0763
-10.0947
-10.1112
-10.1257
-10.1382
-10.1487
-10.1571
-10.1632
-10.167
-10.1684
-10.1672
-10.1635
-10.1569
-10.1475
-10.1349
-10.1192
-10.1001
-10.0774
-10.051
-10.0206
-9.98612
-9.94725
-9.90381
-9.85554
-9.80222
-9.74358
-9.67936
-9.6093
-9.53311
-9.45051
-9.36121
-9.26492
-9.16132
-9.05012
-8.93102
-8.8037
-8.66786
-8.52323
-8.36954
-8.20652
-8.03395
-7.85161
-7.65931
-7.45691
-7.24429
-7.02136
-6.7881
-6.54452
-6.29068
-6.02673
-5.75284
-5.46927
-5.17634
-4.87445
-4.56406
-4.2457
-3.91998
-3.58757
-3.2492
-2.90567
-2.55782
-2.20657
-1.85284
-1.49759
-1.14181
-0.786488
-0.432602
-0.081131
0.266994
0.610892
0.949719
1.28269
1.6091
1.92833
2.23985
2.54322
2.8381
3.12426
3.40158
3.67004
3.92974
4.18089
4.42378
4.65883
4.88654
5.10751
5.32243
5.53205
5.7372
5.93878
6.13773
6.33504
6.53172
6.72881
6.92734
7.12833
7.33279
7.54166
7.75582
7.97608
8.20314
8.43756
8.67981
8.93022
9.18896
9.45598
9.73104
10.0136
10.3031
10.5984
10.8985
11.2018
11.5069
11.8119
12.1148
12.4136
12.7061
12.9903
13.264
13.5253
13.7723
14.0035
14.2176
14.4127
14.5884
14.7347
14.865
14.8852
-9.12462
-9.13653
-9.15029
-9.16223
-9.17139
-9.17824
-9.18317
-9.18638
-9.18803
-9.18824
-9.18714
-9.18488
-9.18166
-9.17771
-9.17337
-9.16904
-9.16521
-9.1624
-9.16116
-9.162
-9.16537
-9.17162
-9.18099
-9.19363
-9.20957
-9.22879
-9.25117
-9.27652
-9.30462
-9.33519
-9.36791
-9.40245
-9.43846
-9.47559
-9.51352
-9.55192
-9.59051
-9.62901
-9.66719
-9.70484
-9.74176
-9.77781
-9.81283
-9.84671
-9.87936
-9.91069
-9.94062
-9.9691
-9.99606
-10.0215
-10.0452
-10.0674
-10.0878
-10.1064
-10.1232
-10.1382
-10.1512
-10.1621
-10.171
-10.1776
-10.182
-10.1839
-10.1834
-10.1802
-10.1743
-10.1655
-10.1536
-10.1385
-10.1201
-10.0981
-10.0723
-10.0427
-10.0089
-9.97074
-9.92802
-9.88051
-9.82794
-9.77006
-9.70662
-9.63734
-9.56193
-9.48011
-9.39159
-9.29606
-9.19321
-9.08273
-8.9643
-8.8376
-8.70233
-8.5582
-8.40494
-8.24227
-8.06996
-7.88778
-7.69555
-7.49309
-7.28029
-7.05705
-6.82335
-6.57918
-6.32462
-6.0598
-5.78489
-5.50015
-5.2059
-4.90256
-4.59058
-4.27052
-3.943
-3.6087
-3.26837
-2.92282
-2.57294
-2.21965
-1.86392
-1.50673
-1.1491
-0.792011
-0.436494
-0.0835405
0.265888
0.610884
0.950587
1.28419
1.61099
1.93033
2.24169
2.54461
2.83878
3.12395
3.40003
3.66699
3.92496
4.17414
4.41487
4.64757
4.87277
5.09107
5.30319
5.50991
5.71206
5.91058
6.10641
6.30057
6.49408
6.688
6.88337
7.08123
7.28259
7.48841
7.69958
7.91693
8.14116
8.37286
8.6125
8.86042
9.11679
9.38156
9.65449
9.93511
10.2227
10.5163
10.8148
11.1167
11.4205
11.7242
12.026
12.3238
12.6154
12.8985
13.171
13.4308
13.676
13.9047
14.1151
14.3049
14.473
14.6087
14.725
14.7292
-9.09376
-9.10784
-9.12432
-9.13856
-9.14954
-9.1579
-9.16418
-9.16865
-9.17154
-9.17303
-9.1733
-9.17254
-9.17095
-9.16882
-9.16646
-9.16426
-9.16267
-9.16215
-9.16319
-9.16624
-9.17171
-9.17989
-9.19101
-9.20518
-9.22244
-9.24274
-9.26596
-9.29192
-9.3204
-9.35113
-9.38382
-9.41815
-9.45382
-9.49051
-9.52791
-9.56575
-9.60375
-9.64168
-9.67931
-9.71644
-9.75292
-9.78858
-9.8233
-9.85696
-9.88948
-9.92075
-9.95072
-9.97932
-10.0065
-10.0321
-10.0562
-10.0788
-10.0996
-10.1187
-10.136
-10.1515
-10.1651
-10.1766
-10.1861
-10.1933
-10.1983
-10.2009
-10.201
-10.1984
-10.1931
-10.1849
-10.1737
-10.1592
-10.1414
-10.12
-10.0949
-10.0659
-10.0327
-9.99526
-9.9532
-9.90635
-9.85445
-9.79724
-9.73447
-9.66586
-9.59113
-9.50997
-9.4221
-9.32721
-9.22496
-9.11503
-8.99709
-8.87082
-8.73593
-8.5921
-8.43906
-8.27652
-8.10425
-7.922
-7.72957
-7.52681
-7.31356
-7.08975
-6.85532
-6.61028
-6.3547
-6.0887
-5.81246
-5.52624
-5.23036
-4.92525
-4.61138
-4.2893
-3.95967
-3.62318
-3.28063
-2.93282
-2.58067
-2.22512
-1.86717
-1.50784
-1.14817
-0.789188
-0.431943
-0.0774556
0.273285
0.619341
0.959832
1.29394
1.62094
1.94019
2.25114
2.55335
2.8465
3.13036
3.40484
3.66994
3.9258
4.17265
4.41083
4.6408
4.86311
5.07838
5.28736
5.49084
5.6897
5.88487
6.07733
6.2681
6.45823
6.6488
6.84085
7.03545
7.23362
7.43632
7.64446
7.85888
8.08028
8.30927
8.54634
8.79181
9.04584
9.30842
9.57928
9.85795
10.1437
10.4356
10.7325
11.033
11.3354
11.6378
11.9384
12.235
12.5253
12.8071
13.0781
13.3361
13.579
13.8046
14.0108
14.1949
14.355
14.4804
14.5837
14.5744
-9.06493
-9.0808
-9.09955
-9.11574
-9.1283
-9.13804
-9.14559
-9.1513
-9.15543
-9.1582
-9.15984
-9.16054
-9.16056
-9.16014
-9.15961
-9.15931
-9.15965
-9.16106
-9.16395
-9.16873
-9.17576
-9.18532
-9.19761
-9.21275
-9.23077
-9.25164
-9.27525
-9.30143
-9.32998
-9.36065
-9.39317
-9.42726
-9.46263
-9.49898
-9.53605
-9.57355
-9.61125
-9.64891
-9.68633
-9.72333
-9.75973
-9.7954
-9.8302
-9.86403
-9.89678
-9.92836
-9.95871
-9.98773
-10.0154
-10.0416
-10.0663
-10.0894
-10.1109
-10.1306
-10.1486
-10.1648
-10.179
-10.1912
-10.2013
-10.2092
-10.2149
-10.2181
-10.2188
-10.2168
-10.2121
-10.2045
-10.1938
-10.18
-10.1627
-10.1419
-10.1173
-10.0889
-10.0563
-10.0194
-9.97789
-9.9316
-9.88027
-9.82364
-9.76144
-9.69339
-9.61922
-9.53862
-9.45128
-9.35687
-9.25507
-9.14552
-9.02792
-8.90192
-8.76723
-8.62353
-8.47052
-8.30793
-8.13549
-7.95297
-7.76015
-7.55687
-7.34296
-7.11835
-6.88297
-6.63683
-6.37999
-6.11256
-5.83475
-5.54682
-5.24909
-4.94198
-4.62598
-4.30166
-3.96969
-3.63079
-3.28577
-2.93549
-2.58086
-2.22287
-1.86254
-1.50094
-1.13914
-0.778198
-0.419199
-0.0631903
0.288812
0.635844
0.977005
1.31147
1.63848
1.95741
2.2677
2.56892
2.86075
3.14298
3.41554
3.67844
3.93183
4.17599
4.41128
4.63818
4.85726
5.06919
5.27472
5.47469
5.66998
5.86156
6.05043
6.23762
6.42422
6.61129
6.79992
6.99117
7.18607
7.38561
7.5907
7.80218
8.02076
8.24707
8.48158
8.72462
8.97636
9.23676
9.50557
9.7823
10.0662
10.3564
10.6517
10.9506
11.2515
11.5525
11.8517
12.1468
12.4356
12.7157
12.9848
13.2406
13.4806
13.7025
13.904
14.0819
14.2338
14.3491
14.44
14.4193
-9.03972
-9.05705
-9.07765
-9.09541
-9.10926
-9.12014
-9.12877
-9.13555
-9.14077
-9.14468
-9.14754
-9.14955
-9.15096
-9.15203
-9.15303
-9.1543
-9.15618
-9.15906
-9.16331
-9.1693
-9.17735
-9.18772
-9.20062
-9.21618
-9.23444
-9.2554
-9.27896
-9.305
-9.33332
-9.36371
-9.39593
-9.42971
-9.46478
-9.50088
-9.53773
-9.57509
-9.61271
-9.65038
-9.6879
-9.72507
-9.76174
-9.79775
-9.83298
-9.86731
-9.90062
-9.93283
-9.96384
-9.99358
-10.022
-10.0489
-10.0744
-10.0983
-10.1206
-10.1411
-10.1599
-10.1768
-10.1917
-10.2047
-10.2155
-10.224
-10.2303
-10.2341
-10.2354
-10.234
-10.2298
-10.2227
-10.2125
-10.1991
-10.1824
-10.162
-10.138
-10.11
-10.0779
-10.0414
-10.0004
-9.95455
-9.90369
-9.84752
-9.78578
-9.7182
-9.64448
-9.56432
-9.47738
-9.38333
-9.28181
-9.1725
-9.05507
-8.9292
-8.79455
-8.65082
-8.49771
-8.33491
-8.16217
-7.97923
-7.78588
-7.58193
-7.36722
-7.14165
-6.90517
-6.65776
-6.3995
-6.13049
-5.85094
-5.56111
-5.26134
-4.95205
-4.63374
-4.30702
-3.97254
-3.63107
-3.28343
-2.93052
-2.57329
-2.21276
-1.84998
-1.48606
-1.12209
-0.759188
-0.398462
-0.0409907
0.312182
0.660067
1.00174
1.33637
1.6632
1.98157
2.29094
2.59089
2.8811
3.16139
3.43169
3.69206
3.94268
4.18382
4.4159
4.63942
4.85499
5.06329
5.26513
5.46134
5.65285
5.84065
6.02576
6.20924
6.39218
6.57566
6.76079
6.94865
7.14026
7.33662
7.53866
7.7472
7.96299
8.18664
8.41863
8.65928
8.90874
9.16698
9.43373
9.7085
9.99058
10.279
10.5725
10.8698
11.169
11.4684
11.7659
12.0593
12.3462
12.6242
12.891
13.1439
13.3805
13.5982
13.7944
13.9655
14.1091
14.2144
14.2932
14.2627
-9.01928
-9.03785
-9.05994
-9.0789
-9.09368
-9.10539
-9.1148
-9.12235
-9.12837
-9.13314
-9.13692
-9.13994
-9.14242
-9.1446
-9.14673
-9.14912
-9.15206
-9.1559
-9.16097
-9.1676
-9.17611
-9.18674
-9.19972
-9.21518
-9.2332
-9.25379
-9.27692
-9.30246
-9.33028
-9.36018
-9.39195
-9.42534
-9.4601
-9.49598
-9.53273
-9.57009
-9.60783
-9.64573
-9.68359
-9.72121
-9.75843
-9.79508
-9.83102
-9.86612
-9.90027
-9.93336
-9.96529
-9.99596
-10.0253
-10.0532
-10.0796
-10.1044
-10.1275
-10.1489
-10.1685
-10.1862
-10.2019
-10.2155
-10.2269
-10.2361
-10.2429
-10.2472
-10.249
-10.2481
-10.2443
-10.2377
-10.2279
-10.2149
-10.1985
-10.1785
-10.1548
-10.1272
-10.0954
-10.0593
-10.0186
-9.9732
-9.92271
-9.86692
-9.80556
-9.73835
-9.665
-9.58516
-9.4985
-9.40465
-9.3033
-9.19411
-9.07675
-8.95088
-8.81618
-8.67232
-8.51899
-8.35589
-8.18274
-7.99929
-7.8053
-7.60058
-7.38496
-7.15834
-6.92065
-6.67189
-6.4121
-6.1414
-5.86001
-5.56817
-5.26625
-4.95467
-4.63396
-4.30473
-3.96766
-3.62353
-3.27321
-2.91762
-2.55774
-2.19464
-1.82941
-1.46317
-1.09707
-0.732272
-0.369904
-0.0110818
0.343123
0.691699
1.0337
1.36828
1.69468
2.01224
2.32042
2.61881
2.90711
3.18515
3.4529
3.71044
3.95797
4.19581
4.4244
4.64427
4.85608
5.06053
5.25846
5.45073
5.63831
5.82219
6.00343
6.1831
6.36231
6.54217
6.72378
6.90822
7.09655
7.28976
7.48878
7.69444
7.90748
8.12851
8.35801
8.59629
8.8435
9.09958
9.36426
9.63705
9.91719
10.2037
10.4954
10.7908
11.0882
11.3857
11.6812
11.9725
12.2571
12.5326
12.7965
13.046
13.2786
13.4914
13.6817
13.8456
13.9804
14.0756
14.1427
14.1034
-9.00457
-9.02418
-9.04754
-9.06737
-9.0827
-9.09481
-9.10456
-9.11244
-9.11882
-9.12402
-9.1283
-9.13188
-9.13496
-9.13776
-9.1405
-9.14345
-9.14687
-9.15106
-9.15634
-9.16302
-9.17139
-9.18171
-9.19421
-9.20906
-9.22637
-9.24618
-9.26849
-9.29323
-9.32029
-9.3495
-9.38068
-9.4136
-9.44803
-9.48373
-9.52045
-9.55794
-9.59596
-9.63428
-9.67269
-9.71098
-9.74897
-9.78649
-9.82338
-9.85948
-9.89467
-9.92883
-9.96183
-9.99357
-10.024
-10.0529
-10.0803
-10.106
-10.1301
-10.1523
-10.1727
-10.1911
-10.2074
-10.2216
-10.2336
-10.2433
-10.2505
-10.2553
-10.2574
-10.2569
-10.2534
-10.247
-10.2375
-10.2248
-10.2086
-10.1889
-10.1655
-10.1381
-10.1066
-10.0708
-10.0305
-9.9853
-9.93511
-9.87962
-9.81858
-9.75168
-9.67858
-9.59894
-9.51241
-9.41866
-9.31738
-9.20823
-9.09086
-8.96493
-8.8301
-8.68605
-8.53245
-8.36899
-8.19539
-8.01137
-7.81669
-7.61116
-7.3946
-7.16689
-6.92796
-6.67779
-6.41645
-6.14404
-5.86078
-5.56692
-5.26283
-4.94896
-4.62584
-4.29409
-3.95444
-3.60768
-3.2547
-2.89647
-2.534
-2.1684
-1.80079
-1.43234
-1.06423
-0.697669
-0.333814
0.0261837
0.381226
0.730276
1.07238
1.40666
1.73236
2.04884
2.35555
2.65209
2.93819
3.2137
3.47862
3.73304
3.97722
4.21151
4.43638
4.65241
4.86026
5.0607
5.25457
5.44279
5.62634
5.80624
5.98356
6.1594
6.33489
6.51113
6.68925
6.87034
7.05545
7.24557
7.44164
7.6445
7.85486
8.07334
8.30041
8.53637
8.78135
9.03527
9.29786
9.5686
9.84672
10.1312
10.4209
10.7142
11.0095
11.3048
11.598
11.8867
12.1686
12.4411
12.7014
12.9469
13.1748
13.3821
13.5658
13.7219
13.8476
13.9326
13.9878
13.9406
-8.99665
-9.01718
-9.04149
-9.0618
-9.07718
-9.08912
-9.09861
-9.10624
-9.11242
-9.1175
-9.12172
-9.12529
-9.12839
-9.13119
-9.13389
-9.13671
-9.13989
-9.1437
-9.14845
-9.15444
-9.16196
-9.17129
-9.18268
-9.19632
-9.21237
-9.23092
-9.25199
-9.27556
-9.30155
-9.32984
-9.36026
-9.39261
-9.42667
-9.4622
-9.49893
-9.53664
-9.57506
-9.61395
-9.65308
-9.69223
-9.7312
-9.76977
-9.80778
-9.84505
-9.88143
-9.91678
-9.95096
-9.98386
-10.0153
-10.0453
-10.0737
-10.1004
-10.1253
-10.1483
-10.1694
-10.1884
-10.2053
-10.22
-10.2325
-10.2425
-10.2501
-10.2552
-10.2576
-10.2572
-10.254
-10.2478
-10.2385
-10.2259
-10.2099
-10.1904
-10.1671
-10.14
-10.1087
-10.0731
-10.033
-9.98808
-9.93816
-9.88298
-9.82221
-9.75551
-9.68254
-9.60298
-9.51651
-9.42282
-9.32157
-9.21241
-9.095
-8.96898
-8.83401
-8.68975
-8.53587
-8.37205
-8.19798
-8.0134
-7.81804
-7.6117
-7.3942
-7.16541
-6.92526
-6.67372
-6.41085
-6.13676
-5.85166
-5.55583
-5.24962
-4.93351
-4.60804
-4.27386
-3.9317
-3.5824
-3.22688
-2.86612
-2.5012
-2.13324
-1.76341
-1.39293
-1.02302
-0.654903
-0.289796
0.0711247
0.426734
0.775973
1.11787
1.45155
1.77624
2.09129
2.3962