/*--------------------------------*- C++ -*----------------------------------*\
| =========                 |                                                 |
| \\      /  F ield         | OpenFOAM: The Open Source CFD Toolbox           |
|  \\    /   O peration     | Version:  2112                                  |
|   \\  /    A nd           | Website:  www.openfoam.com                      |
|    \\/     M anipulation  |                                                 |
\*---------------------------------------------------------------------------*/
FoamFile
{
    version     2.0;
    format      ascii;
    arch        "LSB;label=32;scalar=64";
    class       volScalarField;
    location    "0.36";
    object      k;
}
// * * * * * * * * * * * * * * * * * * * * * * * * * * * * * * * * * * * * * //

dimensions      [0 2 -2 0 0 0 0];

internalField   nonuniform List<scalar> 
12225
(
1.73064
1.95963
1.86275
1.71208
1.59283
1.47774
1.36085
1.23937
1.11167
0.97736
0.837995
0.69759
0.562477
0.439785
0.336244
0.254814
0.19197
0.166079
0.262195
0.157086
0.10158
0.0758464
0.0641656
0.0584096
0.0552982
0.0534472
0.052073
0.0505334
0.0482476
0.0448165
0.0402011
0.0347708
0.029158
0.0240195
0.0195263
0.0159769
0.325707
0.269213
0.22095
0.181936
0.150456
0.124652
0.103081
0.0847709
0.069149
0.0559381
0.0450081
0.0362246
0.0293598
0.0241076
0.0201533
0.0172312
0.0151259
0.0136758
0.344709
0.310486
0.278247
0.249322
0.223815
0.201373
0.181485
0.163622
0.147323
0.132241
0.118187
0.10514
0.0932119
0.0825613
0.0733042
0.0654667
0.0589865
0.0537653
0.350977
0.325291
0.300635
0.277702
0.256712
0.237628
0.220276
0.204421
0.189822
0.176275
0.163637
0.151848
0.140918
0.130889
0.121784
0.113581
0.106215
0.0996116
0.353317
0.331462
0.310765
0.291407
0.27346
0.256904
0.241652
0.227577
0.214538
0.202403
0.191067
0.180458
0.170547
0.161336
0.152837
0.145051
0.137955
0.131542
0.354168
0.334034
0.315419
0.29818
0.282226
0.267473
0.253826
0.241184
0.229444
0.218508
0.208293
0.198735
0.189788
0.181427
0.173634
0.166395
0.159691
0.15354
0.354456
0.335032
0.317426
0.301356
0.286619
0.273061
0.260555
0.248989
0.238261
0.228285
0.218983
0.210292
0.202162
0.194557
0.187444
0.180798
0.174597
0.168867
0.354544
0.335382
0.31821
0.302712
0.288637
0.27579
0.264015
0.25318
0.243176
0.233909
0.2253
0.217282
0.2098
0.20281
0.196272
0.190154
0.18443
0.179126
0.354569
0.335492
0.318483
0.303227
0.289465
0.276988
0.265623
0.255227
0.245681
0.236884
0.228751
0.22121
0.2142
0.207669
0.201573
0.195875
0.190545
0.185602
0.354575
0.335522
0.318565
0.303398
0.289765
0.277453
0.266287
0.256119
0.246825
0.238301
0.230456
0.223215
0.216511
0.210288
0.204498
0.199099
0.194058
0.189388
0.354576
0.335528
0.318585
0.303443
0.289851
0.277599
0.266509
0.256436
0.247253
0.238854
0.231149
0.224058
0.217513
0.211457
0.205837
0.200611
0.195743
0.19124
0.354576
0.335529
0.318589
0.303455
0.289877
0.277647
0.266589
0.256557
0.247425
0.239088
0.231453
0.224441
0.217984
0.212022
0.206502
0.201381
0.196621
0.192227
0.354576
0.335528
0.318588
0.303455
0.289881
0.277658
0.266612
0.256595
0.247485
0.239174
0.23157
0.224595
0.21818
0.212266
0.206799
0.201735
0.197036
0.192707
0.354575
0.335527
0.318586
0.303452
0.289878
0.277656
0.266613
0.256602
0.247498
0.239196
0.231603
0.224641
0.218242
0.212346
0.206901
0.201862
0.197191
0.192892
0.354575
0.335526
0.318584
0.303449
0.289875
0.277653
0.26661
0.2566
0.247498
0.239199
0.231609
0.224652
0.218258
0.212369
0.206932
0.201903
0.197244
0.19296
0.354575
0.335525
0.318582
0.303447
0.289872
0.27765
0.266608
0.256599
0.247499
0.239201
0.231614
0.224659
0.218269
0.212384
0.206953
0.201931
0.197281
0.193007
0.354574
0.335525
0.318581
0.303446
0.289871
0.27765
0.266609
0.256602
0.247504
0.239209
0.231625
0.224675
0.21829
0.212412
0.206988
0.201975
0.197335
0.193073
0.354574
0.335524
0.318581
0.303446
0.289873
0.277654
0.266616
0.256612
0.247519
0.239229
0.231652
0.224708
0.218332
0.212462
0.207049
0.202047
0.19742
0.193171
0.354574
0.335525
0.318582
0.30345
0.28988
0.277665
0.266632
0.256633
0.247546
0.239263
0.231692
0.224757
0.218388
0.212527
0.207123
0.202131
0.197515
0.193277
0.354574
0.335525
0.318585
0.303455
0.289889
0.277678
0.266649
0.256656
0.247573
0.239294
0.231728
0.224797
0.218433
0.212577
0.207178
0.202191
0.197579
0.193346
0.354574
0.335526
0.318587
0.303459
0.289893
0.277681
0.266649
0.256651
0.247562
0.239275
0.2317
0.224758
0.218383
0.212515
0.207103
0.202104
0.19748
0.193235
0.354573
0.33552
0.31857
0.303422
0.289824
0.277569
0.266484
0.256424
0.247267
0.238908
0.231259
0.224242
0.217791
0.211849
0.206367
0.201299
0.19661
0.192305
0.354558
0.335455
0.318407
0.303109
0.289313
0.276823
0.265478
0.255144
0.245709
0.237077
0.229168
0.221908
0.215232
0.209081
0.203406
0.198164
0.193317
0.188869
0.354452
0.335039
0.317485
0.301524
0.286971
0.273683
0.261545
0.250452
0.240313
0.231041
0.222559
0.214795
0.207687
0.201174
0.195193
0.189691
0.184626
0.179992
0.353854
0.333061
0.313656
0.295661
0.279097
0.263945
0.250152
0.237635
0.226295
0.216032
0.206743
0.198334
0.190716
0.18381
0.177548
0.171868
0.166702
0.162008
0.351182
0.32557
0.300895
0.278023
0.257313
0.238826
0.222455
0.20801
0.19528
0.184059
0.174156
0.165402
0.157647
0.150762
0.144633
0.139167
0.134287
0.129955
0.340507
0.298577
0.259358
0.225563
0.197384
0.174168
0.155062
0.13928
0.126174
0.115228
0.106037
0.0982827
0.0917094
0.0861143
0.081333
0.0772324
0.0737046
0.0706615
0.300243
0.202246
0.132757
0.0921984
0.0697463
0.0569182
0.0489898
0.0436014
0.0395983
0.0364086
0.0337426
0.0314467
0.0294347
0.0276541
0.0260702
0.0246624
0.023413
0.0223492
1.46367
1.8008
1.81909
1.74403
1.64865
1.55523
1.46977
1.39347
1.32622
1.26749
1.21663
1.17289
1.13557
1.10398
1.07747
1.05548
1.03736
1.02277
0.0823035
0.0968883
0.116123
0.124938
0.119178
0.0984514
0.0719737
0.0536999
0.0445347
0.0519856
0.0687749
0.0933687
0.124604
0.169995
0.234107
0.31747
0.418847
0.534744
0.657677
0.760805
0.829822
0.854987
0.829926
0.753044
0.629334
0.471285
0.300899
0.154795
0.062157
0.0319125
0.0463445
0.0611636
0.0692181
0.0675072
0.0569739
0.0466588
0.0444313
0.0560524
0.0781838
0.106566
0.128505
0.132073
0.126587
0.121309
0.120886
0.12135
0.111665
0.0959115
0.130792
0.286759
0.48711
0.708935
0.935751
1.15475
1.35653
1.53482
1.68597
1.80838
1.90195
1.96758
2.00687
2.02177
2.01444
1.98702
1.94151
1.88301
1.81568
1.74021
1.65724
1.56741
1.47136
1.36986
1.2638
1.15426
1.04261
0.930422
0.819538
0.711925
0.609576
0.51435
0.427813
0.351109
0.284901
0.229396
0.184518
0.150277
0.121648
0.0950423
0.070986
0.050371
0.0352203
0.0343811
0.0467716
0.0618074
0.0776976
0.0936683
0.109249
0.124135
0.138131
0.151162
0.165241
0.180994
0.196935
0.212251
0.22649
0.239403
0.250866
0.26079
0.26912
0.275941
0.280232
0.280323
0.275989
0.26738
0.255134
0.240403
0.224703
0.209596
0.19631
0.185499
0.177223
0.171137
0.16701
0.164414
0.162347
0.160383
0.158325
0.156088
0.153629
0.150923
0.147943
0.144651
0.141011
0.137003
0.132647
0.128049
0.123436
0.11918
0.115789
0.11382
0.11334
0.114503
0.117726
0.123541
0.133113
0.147813
0.166592
0.181835
0.175893
0.142758
0.104701
0.167529
0.324934
0.473983
0.584721
0.643157
0.646781
0.60154
0.52019
0.424711
0.328843
0.24447
0.180324
0.124945
0.0764982
0.0436254
0.039415
0.0780122
0.125379
0.18198
0.254728
0.335059
0.419245
0.503962
0.586441
0.665839
0.723311
0.704819
0.608783
0.431181
0.209513
0.0426374
0.0418851
0.0358116
0.0212982
0.00434271
0.00352163
0.00297921
0.0025492
0.00222536
0.00198962
0.00183509
0.00175946
0.00178012
0.00192779
0.00224001
0.00276006
0.00353726
0.00532782
0.0207359
0.0483891
0.0830556
0.11801
0.146065
0.160858
0.158394
0.138516
0.107561
0.0744162
0.0462046
0.0287428
0.0204527
0.0140679
0.00604164
0.00331418
0.00351559
0.00401699
0.00440462
0.00454194
0.00505098
0.00870165
0.0159396
0.0187271
0.0227921
0.0383485
0.0613956
0.0777938
0.0952928
0.120173
0.151341
0.177919
0.196083
0.20444
0.203308
0.19413
0.178925
0.159862
0.138988
0.118077
0.098583
0.0816346
0.0680595
0.0584132
0.0531368
0.0529503
0.0557118
0.0586281
0.0617061
0.0649451
0.0683345
0.0718532
0.0754704
0.0791473
0.0828383
0.0864914
0.0900484
0.0934418
0.0965908
0.0993967
0.10174
0.103482
0.104478
0.104595
0.103742
0.101891
0.0990771
0.0953174
0.0906359
0.08511
0.0788012
0.0716911
0.0647257
0.0592117
0.0541108
0.049351
0.0449078
0.0407576
0.0368799
0.0332581
0.0298778
0.0267327
0.0238164
0.0211197
0.0186448
0.0164009
0.0143975
0.0126392
0.0111232
0.0098428
0.00882189
0.00845411
0.00918556
0.0104074
0.0116523
0.0125426
0.0128261
0.0124398
0.0114911
0.0101929
0.00878675
0.00747916
0.00640589
0.00562663
0.00513175
0.00486451
0.00475638
0.00474659
0.00479161
0.00486656
0.00496119
0.00507324
0.00520137
0.00533832
0.00546516
0.00554758
0.00553624
0.00537321
0.0050043
0.00439783
0.00358203
0.00292854
0.0026287
0.00253567
0.00263109
0.00302007
0.00400582
0.00632227
0.0118246
0.024504
0.0361862
0.0409043
0.0516666
0.0593625
0.0557406
0.0444876
0.0307132
0.0188853
0.0120017
0.0110529
0.0107557
0.0105187
0.0103501
0.0102137
0.00986342
0.00916872
0.00821116
0.00732651
0.00682251
0.00647245
0.00634501
0.00651639
0.00694369
0.00757679
0.00837031
0.00935499
0.0110077
0.0166748
0.0361617
0.0535308
0.0567431
0.226845
0.0358018
0.0192322
0.0132377
0.00783259
0.00560418
0.00420379
0.00322472
0.00252233
0.00201303
0.00164122
0.001368
0.0011652
0.00101224
0.00089431
0.000801013
0.000725171
0.000661971
0.000611061
0.000898284
0.00295276
0.0083565
0.0179414
0.0309767
0.044952
0.0562448
0.0615227
0.0596875
0.05209
0.0413141
0.0302978
0.0207577
0.0130371
0.00767015
0.00511353
0.0044928
0.00480178
0.00537042
0.005667
0.00580093
0.00872271
0.0163429
0.0276596
0.0359029
0.0428621
0.0494589
0.0550834
0.0605109
0.065447
0.0683465
0.0679127
0.0647529
0.0601517
0.0555124
0.0519386
0.050009
0.0497528
0.0507905
0.0525771
0.0546392
0.0566924
0.0586268
0.0604333
0.0621364
0.0638134
0.0655909
0.0674725
0.0694675
0.0715882
0.07385
0.0762703
0.0788669
0.0816562
0.0846489
0.0878458
0.0912303
0.0947605
0.09836
0.10191
0.105246
0.108161
0.110423
0.111798
0.112089
0.111172
0.109014
0.105677
0.101304
0.0960827
0.0901898
0.0836542
0.0775284
0.0721769
0.0671569
0.0624705
0.0581215
0.0540992
0.0503857
0.0469592
0.0437959
0.040872
0.0381639
0.0356497
0.0333099
0.0311279
0.0290891
0.0271809
0.0253916
0.0237098
0.0221242
0.0206216
0.0191793
0.0177364
0.0162184
0.0146615
0.01311
0.0116213
0.0102509
0.00903917
0.00800531
0.00714822
0.00645095
0.00588735
0.0054285
0.00504735
0.00472121
0.00443242
0.00416817
0.0039197
0.00368136
0.0034497
0.00322272
0.00299936
0.00277913
0.00256183
0.00234707
0.00213421
0.00192321
0.00171693
0.00152399
0.00136091
0.00124332
0.00120107
0.00131949
0.00168447
0.00236699
0.00392739
0.00791208
0.0149459
0.0192493
0.0186053
0.0171882
0.0137676
0.00994425
0.00757742
0.00686149
0.00701928
0.00734142
0.00772947
0.00820055
0.00873072
0.00928113
0.00979581
0.0102017
0.0104196
0.0103801
0.0100715
0.0096556
0.00918273
0.00869674
0.00822457
0.00777455
0.00734239
0.00691699
0.00648106
0.00600415
0.00541249
0.00480926
0.00631739
0.00885161
0.134903
0.0184099
0.00946675
0.00803449
0.00670125
0.00517501
0.0038682
0.00288095
0.00217706
0.0016907
0.00136005
0.00113539
0.00098005
0.000868713
0.00078476
0.000717699
0.000661058
0.000610838
0.000564505
0.000527645
0.000615492
0.00123156
0.00308013
0.00687338
0.0127921
0.0199954
0.0266698
0.0309303
0.031802
0.0294983
0.0250552
0.0196233
0.0142627
0.0100356
0.00734674
0.00623059
0.00663451
0.00798828
0.010045
0.0145207
0.0191526
0.0236624
0.0277011
0.0306102
0.0329972
0.0349285
0.0363073
0.0371958
0.0375169
0.0372915
0.0369255
0.0370409
0.03801
0.0398256
0.0421784
0.0446488
0.0468915
0.048732
0.050163
0.0512782
0.0521954
0.0530098
0.0537819
0.0545469
0.0554094
0.0563641
0.0574131
0.0585642
0.0598335
0.0612459
0.0628353
0.0646434
0.066718
0.0691089
0.0718622
0.0750126
0.0785719
0.0825152
0.086766
0.091182
0.0955481
0.0995829
0.102962
0.105361
0.106514
0.106262
0.104581
0.101583
0.0974658
0.0924469
0.0866949
0.0814078
0.0764258
0.0716671
0.0671769
0.0629775
0.0590726
0.0554541
0.052107
0.0490122
0.0461491
0.0434966
0.041034
0.0387423
0.0366038
0.0346028
0.0327254
0.0309593
0.0292937
0.0277196
0.0262291
0.0248135
0.0234618
0.0221584
0.020861
0.0195851
0.0183425
0.0171515
0.0160308
0.0149927
0.0140407
0.0131705
0.0123735
0.0116402
0.0109616
0.0103307
0.00974155
0.00918952
0.00867053
0.00818092
0.0077173
0.0072765
0.00685567
0.00645242
0.0060651
0.00569313
0.00533692
0.00499729
0.00467505
0.00437012
0.00407692
0.00378351
0.00350053
0.00327808
0.003196
0.00342387
0.00458286
0.00742412
0.0108322
0.0109342
0.00884577
0.00673577
0.00520318
0.00476591
0.00507797
0.00548428
0.00571183
0.00590256
0.0061864
0.00658763
0.00709196
0.00767511
0.00829435
0.00888174
0.00934571
0.00958376
0.00954622
0.00934695
0.00905951
0.00873621
0.00841043
0.0080961
0.00779288
0.00749395
0.00719261
0.00688327
0.00655335
0.00614966
0.00553035
0.00489509
0.0978698
0.0135101
0.0151095
0.0115715
0.00794221
0.00527407
0.00351301
0.00241407
0.00175433
0.001367
0.00113888
0.000999173
0.000906559
0.000838204
0.000782167
0.00073267
0.000687239
0.000644858
0.000604756
0.00056566
0.000533849
0.000570712
0.000883551
0.00186599
0.00397133
0.00739477
0.0117144
0.0158869
0.018758
0.0196816
0.0187049
0.0162969
0.0131744
0.0102167
0.00811841
0.00762249
0.009369
0.0136334
0.016569
0.0177645
0.0196421
0.0214758
0.0229984
0.0241609
0.0251097
0.0258897
0.0265927
0.0273712
0.02837
0.0297271
0.0315135
0.0336305
0.0358142
0.0377651
0.0392766
0.0402929
0.0408861
0.0411931
0.0413553
0.0414834
0.0416479
0.0418852
0.0422085
0.0426575
0.0432362
0.0439005
0.044635
0.045432
0.0462947
0.0472392
0.0482969
0.0495157
0.05096
0.0527082
0.0548487
0.0574719
0.0606582
0.0644611
0.068886
0.0738646
0.0792324
0.0847154
0.0899391
0.0944641
0.0978583
0.0997927
0.100089
0.098773
0.0960058
0.0919988
0.0873024
0.08275
0.0781952
0.0737448
0.0694775
0.0654376
0.0616453
0.0581056
0.0548131
0.0517563
0.0489199
0.0462871
0.0438401
0.0415617
0.0394354
0.0374457
0.0355787
0.0338218
0.0321638
0.0305948
0.0291062
0.0276904
0.0263408
0.0250515
0.0238152
0.022615
0.0214594
0.020351
0.0192934
0.0182897
0.017341
0.0164462
0.0156026
0.0148066
0.0140549
0.0133443
0.0126722
0.0120362
0.0114342
0.0108641
0.0103238
0.00981101
0.0093235
0.00885876
0.00841429
0.0079875
0.0075755
0.00717437
0.00677882
0.00638124
0.00596474
0.00550196
0.00499673
0.00451202
0.00412157
0.00409572
0.00491305
0.00665057
0.00767185
0.0064397
0.00471713
0.00373538
0.0036263
0.004005
0.00432126
0.00439069
0.00438749
0.00447073
0.00468237
0.005019
0.00547956
0.00605641
0.00672373
0.00742417
0.00806169
0.00850796
0.00867076
0.00864297
0.00849732
0.00829116
0.00806496
0.00783819
0.00761378
0.00738621
0.00714952
0.00690238
0.0066491
0.00638722
0.00608532
0.0056168
0.132085
0.0444153
0.0258029
0.0143192
0.00782623
0.00436943
0.0026202
0.00177304
0.00137087
0.00117401
0.00106581
0.000992828
0.000931939
0.000874177
0.000817187
0.000761748
0.000709952
0.000663949
0.000624922
0.000590943
0.000555789
0.000527677
0.000558864
0.000807565
0.00155549
0.00310549
0.00555026
0.00854261
0.0113345
0.0131763
0.0137059
0.0129644
0.0113313
0.00952091
0.00864335
0.0102887
0.014857
0.0159645
0.0159825
0.0165275
0.017405
0.0183199
0.0191683
0.0199696
0.0208128
0.0217873
0.0229873
0.024461
0.0261665
0.0279672
0.0296526
0.0309958
0.0318366
0.032138
0.0319823
0.0315233
0.0309304
0.0303483
0.0298799
0.0295866
0.0294969
0.029615
0.0299273
0.0304789
0.0311314
0.0318622
0.032653
0.0334892
0.0343619
0.0352701
0.036225
0.0372547
0.0384084
0.0397601
0.0414085
0.0434737
0.0460874
0.0493775
0.0534434
0.0583248
0.0639634
0.0701687
0.0766
0.0827696
0.0881009
0.0920797
0.0943386
0.0947638
0.09343
0.0905771
0.0870865
0.0832362
0.0791951
0.0751228
0.071127
0.0672761
0.0636099
0.0601487
0.0568994
0.0538606
0.051025
0.048382
0.0459188
0.0436217
0.0414765
0.0394694
0.0375871
0.0358169
0.0341475
0.0325685
0.0310707
0.029646
0.0282875
0.026989
0.025745
0.0245502
0.0233981
0.0222936
0.021237
0.0202287
0.0192684
0.0183551
0.0174869
0.0166618
0.0158774
0.0151317
0.0144227
0.0137488
0.0131083
0.0124996
0.0119209
0.0113705
0.0108462
0.0103456
0.00986607
0.00940426
0.00895587
0.00851472
0.00807239
0.00761664
0.00712188
0.00654777
0.0058952
0.00523214
0.00466623
0.00448725
0.004913
0.00565399
0.00538897
0.00403992
0.00305037
0.00289159
0.00322246
0.00351448
0.00352046
0.0033796
0.00328716
0.00331234
0.00346581
0.00374045
0.0041457
0.00468894
0.00536255
0.00612511
0.00688456
0.00748807
0.00781434
0.00793938
0.00791893
0.00781331
0.00766996
0.0075142
0.00735205
0.0071793
0.00699084
0.006786
0.00656981
0.00634796
0.00612127
0.00586396
0.153868
0.0745736
0.0317444
0.0132038
0.00568052
0.00281107
0.00177698
0.00140954
0.00126328
0.00118113
0.00111191
0.00104076
0.000964857
0.000885551
0.000805861
0.000729603
0.000660993
0.000604
0.000561166
0.000530202
0.000504479
0.000481489
0.00047207
0.00053927
0.000841702
0.00161421
0.00305024
0.00511038
0.00739703
0.00930422
0.010365
0.0104144
0.00967006
0.00888277
0.00970093
0.0137179
0.0150795
0.0144688
0.0143532
0.014723
0.0153519
0.0160957
0.0169225
0.0178713
0.0189975
0.0203238
0.0218131
0.023349
0.024752
0.0258289
0.0264313
0.0265034
0.026097
0.0253464
0.0244203
0.0234769
0.0226361
0.0219727
0.0215234
0.0212986
0.0212935
0.021496
0.0218933
0.0224027
0.0229557
0.0235495
0.0241852
0.0248662
0.0255969
0.0263826
0.0272305
0.0281531
0.0291743
0.0303373
0.0317117
0.0333994
0.0355333
0.0382692
0.0417662
0.0461556
0.051498
0.057731
0.0646335
0.0717751
0.078503
0.0841289
0.0881184
0.0901577
0.0901919
0.0886996
0.0862647
0.0832003
0.079764
0.0761488
0.072491
0.0688822
0.0653818
0.062026
0.0588353
0.0558193
0.0529804
0.0503158
0.0478193
0.0454825
0.0432951
0.0412463
0.0393245
0.0375183
0.0358166
0.0342089
0.0326854
0.0312372
0.0298565
0.0285367
0.0272724
0.0260593
0.0248912
0.0237698
0.0226943
0.0216643
0.0206792
0.019738
0.0188395
0.0179823
0.0171647
0.0163854
0.0156427
0.0149353
0.0142618
0.0136206
0.01301
0.0124282
0.011873
0.011342
0.0108322
0.0103399
0.00986036
0.00938646
0.00890853
0.00841141
0.00786273
0.00721467
0.00647027
0.00570233
0.00504155
0.00469772
0.00469842
0.00467847
0.00384795
0.00278055
0.00238601
0.00260646
0.0029322
0.00298495
0.00279191
0.0025722
0.0024454
0.0024355
0.00254389
0.00276278
0.00310913
0.00360296
0.00425386
0.00503879
0.00587666
0.00657904
0.0070459
0.00730623
0.00739689
0.00737838
0.00730418
0.00720529
0.0070909
0.0069581
0.00680252
0.00662446
0.00643006
0.00622727
0.00602261
0.00581433
0.53378
0.118105
0.0310022
0.00873858
0.00314917
0.00182864
0.00151758
0.00141207
0.00133199
0.0012459
0.00115254
0.00105381
0.00095147
0.000847827
0.000745625
0.000648374
0.000561167
0.000490312
0.000440618
0.000410933
0.000398063
0.000393707
0.000393891
0.00042599
0.000590487
0.00106677
0.00204364
0.00357747
0.0054469
0.0071834
0.00833056
0.00868151
0.00849586
0.0087485
0.0115866
0.0137841
0.0133017
0.0128046
0.0128751
0.0133293
0.0140138
0.0148588
0.0158584
0.0170236
0.0183347
0.0197152
0.0210321
0.0221223
0.0228387
0.0230976
0.0229049
0.0223502
0.0215759
0.0207352
0.0199579
0.01933
0.0188926
0.0186512
0.0185894
0.0186801
0.0188935
0.019202
0.0195613
0.0198861
0.0201775
0.0204444
0.0207032
0.0209762
0.0212888
0.0216663
0.0221319
0.0227073
0.0234164
0.0242914
0.025381
0.0267586
0.0285266
0.0308183
0.0337914
0.0376074
0.0424009
0.048219
0.0549932
0.0624542
0.0699836
0.0767171
0.0820615
0.0854203
0.08672
0.0864581
0.0850379
0.0827945
0.08001
0.0769034
0.0736345
0.0703158
0.0670234
0.0638084
0.0607039
0.0577305
0.0549004
0.0522193
0.0496884
0.0473053
0.045065
0.0429606
0.0409836
0.0391248
0.0373743
0.0357221
0.0341586
0.0326747
0.0312621
0.0299134
0.0286224
0.027384
0.0261939
0.0250485
0.0239479
0.0228909
0.0218768
0.0209046
0.0199734
0.0190821
0.0182296
0.0174148
0.0166364
0.0158935
0.0151847
0.0145087
0.0138641
0.0132489
0.0126611
0.0120981
0.0115569
0.0110337
0.0105232
0.0100183
0.00950859
0.00897696
0.00838655
0.00768781
0.00688705
0.00605683
0.00533018
0.00479877
0.00438511
0.00384554
0.00285573
0.0021186
0.00210338
0.00243947
0.0026281
0.00249342
0.00221095
0.0019716
0.00183439
0.00180512
0.00187967
0.00204997
0.00233862
0.00277623
0.00338757
0.00416714
0.00503865
0.0057995
0.00638759
0.00676643
0.0069562
0.00701441
0.00699906
0.00694629
0.00686826
0.00676343
0.0066288
0.0064665
0.00628444
0.00609189
0.00589757
0.00570316
0.945115
0.123382
0.0188096
0.00393751
0.0019655
0.00170544
0.00160914
0.00150422
0.00138958
0.00127413
0.00115994
0.00104471
0.000927107
0.000807518
0.000687073
0.000568775
0.000459731
0.000371033
0.000312169
0.000287433
0.000293091
0.00031018
0.000326799
0.000361577
0.000498176
0.000889763
0.00170234
0.00299975
0.00461311
0.00613465
0.00716054
0.00761774
0.00794958
0.0095553
0.0119273
0.0121896
0.0116463
0.0115175
0.0118419
0.0124668
0.0133009
0.0143065
0.0154639
0.0167318
0.0180244
0.0192175
0.0201754
0.0207912
0.02102
0.0208928
0.0205034
0.0199803
0.0194534
0.0190261
0.018759
0.0186701
0.0187455
0.0189527
0.0192518
0.0196019
0.0199656
0.0203117
0.0205622
0.0207129
0.020761
0.0207152
0.020598
0.0204453
0.0203017
0.0202144
0.0202253
0.0203679
0.0206705
0.0211643
0.0218945
0.0229297
0.0243622
0.0263012
0.028876
0.0322193
0.0364738
0.041731
0.0480322
0.0553151
0.0631443
0.0704227
0.0766963
0.0808921
0.0833091
0.0841274
0.0836459
0.0821892
0.0800495
0.0774616
0.0746023
0.0715993
0.0685426
0.0654953
0.0625015
0.0595918
0.0567872
0.0541016
0.0515435
0.0491169
0.0468223
0.0446576
0.0426179
0.0406968
0.0388868
0.0371791
0.0355649
0.0340353
0.0325818
0.0311966
0.0298727
0.0286042
0.0273867
0.0262152
0.0250886
0.0240048
0.0229626
0.0219608
0.0209984
0.0200744
0.019188
0.0183383
0.0175245
0.0167457
0.0160011
0.0152894
0.0146094
0.0139595
0.0133374
0.0127409
0.0121668
0.0116113
0.0110692
0.0105331
0.00999277
0.00942956
0.00880453
0.00807016
0.00723551
0.00636905
0.00558006
0.0048442
0.00406244
0.00319191
0.00222755
0.00176724
0.00195925
0.00229226
0.00233866
0.0020923
0.00178344
0.00155088
0.00141712
0.00137928
0.00142786
0.00155554
0.00178958
0.00216953
0.00273499
0.00349376
0.00433984
0.00515756
0.00584269
0.00632409
0.00660256
0.00672953
0.00676567
0.00675147
0.00670169
0.00661632
0.0064943
0.00634055
0.00616572
0.00598085
0.00579616
0.005613
1.24844
0.0917578
0.00745216
0.0022539
0.0019736
0.00184557
0.00169783
0.00155506
0.00142274
0.00129981
0.00118103
0.00105989
0.000933848
0.000802446
0.000666089
0.000528086
0.000397937
0.000292191
0.00022954
0.000223706
0.000246586
0.000272298
0.000297615
0.000353636
0.000530353
0.00097289
0.00183076
0.00307692
0.00445618
0.00565015
0.00649651
0.00711077
0.00808221
0.0099162
0.0108756
0.0106675
0.0104673
0.0106813
0.0112367
0.0120337
0.013017
0.0141503
0.0153843
0.0166378
0.0178022
0.018765
0.0194427
0.0198052
0.0198826
0.0197544
0.0195286
0.0193152
0.0192014
0.0192354
0.0194266
0.0197559
0.0201887
0.0206844
0.0212012
0.021699
0.0221405
0.0224711
0.0226814
0.0227542
0.0226683
0.0224171
0.022016
0.0215064
0.0209522
0.0204295
0.0200113
0.0197541
0.0196943
0.0198605
0.0202872
0.021036
0.0222043
0.0238901
0.0262095
0.0292462
0.0331065
0.0378799
0.0436256
0.0504464
0.0582359
0.0655858
0.0720249
0.0770081
0.0803136
0.0820048
0.0823205
0.0815612
0.0800139
0.0779182
0.0754589
0.0727731
0.0699603
0.0670929
0.0642237
0.0613917
0.0586258
0.0559471
0.0533709
0.0509072
0.048562
0.0463377
0.0442336
0.0422465
0.0403713
0.0386015
0.0369293
0.0353467
0.0338454
0.0324175
0.0310558
0.0297536
0.0285056
0.0273066
0.0261535
0.0250437
0.0239751
0.0229461
0.0219554
0.0210019
0.0200848
0.0192034
0.0183569
0.0175448
0.0167662
0.0160202
0.0153058
0.0146215
0.0139654
0.0133351
0.0127278
0.0121397
0.0115656
0.0109984
0.0104277
0.00983443
0.00917947
0.00841878
0.00756364
0.00667662
0.00582565
0.00488239
0.00379193
0.00272057
0.00184274
0.00157194
0.0018506
0.0021525
0.00209485
0.00179443
0.00149233
0.00128043
0.00115921
0.00111908
0.00114553
0.00123482
0.00141859
0.00174189
0.00226428
0.00295809
0.00378532
0.00464463
0.00540628
0.0059759
0.00633387
0.00652316
0.00660544
0.00662462
0.00659763
0.00652601
0.00641129
0.00626212
0.00609285
0.00591686
0.00574557
0.00557897
1.37752
0.0487182
0.00272125
0.00229779
0.00213351
0.00193448
0.00176236
0.00161333
0.0014803
0.00135836
0.00124017
0.00111751
0.000988297
0.000851799
0.000709049
0.000564514
0.000429487
0.000322721
0.000265133
0.000267916
0.00029089
0.000330548
0.000401351
0.000549866
0.000863305
0.00144228
0.00232351
0.00339693
0.00447128
0.00540982
0.00619535
0.00702923
0.00828138
0.00940974
0.00968347
0.00960054
0.00974433
0.0102205
0.0109582
0.0118959
0.0129914
0.0141965
0.0154399
0.0166286
0.0176659
0.0184774
0.0190293
0.0193343
0.0194476
0.019454
0.0194481
0.0195097
0.0196857
0.019989
0.0204071
0.0209147
0.021482
0.0220781
0.0226719
0.0232301
0.0237165
0.0241005
0.024388
0.024532
0.024486
0.0242153
0.0237101
0.0229985
0.0221512
0.0212718
0.0204753
0.0198605
0.0194863
0.019393
0.0196102
0.0201845
0.0212251
0.0228088
0.0250403
0.0279565
0.0315976
0.0360665
0.0413599
0.0476628
0.0547429
0.0619884
0.0686443
0.074083
0.0779775
0.0803044
0.0812427
0.0810585
0.0800217
0.0783653
0.0762738
0.073887
0.0713097
0.0686201
0.0658777
0.0631283
0.0604075
0.0577427
0.0551551
0.0526603
0.0502691
0.0479884
0.0458212
0.0437679
0.0418259
0.0399908
0.0382567
0.0366164
0.0350626
0.0335874
0.0321835
0.0308438
0.0295624
0.0283338
0.0271534
0.0260177
0.0249239
0.0238698
0.0228536
0.021874
0.02093
0.0200208
0.0191456
0.0183039
0.017495
0.0167181
0.0159723
0.0152562
0.0145683
0.0139063
0.0132674
0.012648
0.0120431
0.0114457
0.0108458
0.0102242
0.00954314
0.00876228
0.00789465
0.00699574
0.006086
0.00495344
0.00361251
0.00241593
0.00161776
0.00145293
0.00175039
0.0020049
0.0019056
0.00160223
0.00132081
0.00113335
0.00102995
0.000989834
0.000993889
0.00104738
0.00118703
0.00145872
0.00190625
0.00255058
0.00336296
0.00424819
0.00507055
0.00571611
0.00614528
0.00639127
0.00651544
0.00656423
0.00655624
0.00649454
0.00638376
0.00623699
0.00607304
0.00590841
0.00575573
0.00561366
1.34412
0.018664
0.00234444
0.00247405
0.00224495
0.00203397
0.0018565
0.0017056
0.00157378
0.00145482
0.00134108
0.0012249
0.00110246
0.000974103
0.000842648
0.00071369
0.000596951
0.000506313
0.000457737
0.000464154
0.000507098
0.00059484
0.000750308
0.00101524
0.00144097
0.00205719
0.00283676
0.00369741
0.00455274
0.00535643
0.00615856
0.00710665
0.008075
0.00864018
0.00880529
0.00896535
0.00936896
0.0100303
0.0109006
0.011939
0.013104
0.0143372
0.015561
0.0166903
0.0176516
0.0183976
0.0189145
0.0192257
0.0193897
0.019487
0.0195959
0.0197703
0.0200339
0.0203868
0.0208166
0.0213067
0.0218408
0.0224023
0.0229736
0.0235317
0.0240457
0.0245271
0.0249476
0.025253
0.0253789
0.0252598
0.024848
0.0241372
0.0231822
0.0220961
0.0210299
0.0201411
0.0195185
0.0192282
0.0193171
0.0198155
0.0208576
0.022509
0.0248213
0.0277928
0.0313333
0.0354526
0.0403427
0.0461891
0.0528799
0.0599105
0.0665614
0.0721864
0.0764077
0.0791442
0.0805262
0.0807832
0.0801605
0.0788758
0.0771054
0.0749863
0.0726237
0.0700992
0.0674767
0.0648071
0.0621314
0.0594825
0.0568867
0.0543643
0.0519307
0.0495967
0.047369
0.0452508
0.0432423
0.0413414
0.0395437
0.0378436
0.0362343
0.0347087
0.0332595
0.0318795
0.0305623
0.0293022
0.0280934
0.0269316
0.0258133
0.0247357
0.0236964
0.0226937
0.0217263
0.0207931
0.0198933
0.0190262
0.0181912
0.0173875
0.0166143
0.0158703
0.0151541
0.0144636
0.0137961
0.013148
0.0125147
0.0118894
0.0112621
0.0106147
0.00991109
0.00911445
0.00823926
0.00733406
0.00637629
0.00508918
0.00354756
0.00225747
0.00150034
0.00137209
0.0016444
0.00185584
0.00175708
0.00149001
0.00124975
0.0010964
0.00100993
0.000961736
0.000938014
0.000951452
0.00104226
0.00126009
0.00165453
0.00225705
0.00305227
0.00395515
0.00482731
0.00553882
0.0060316
0.0063289
0.00649103
0.00656626
0.00657435
0.0065198
0.00641048
0.0062643
0.00610507
0.00595323
0.00582317
0.00571322
1.18906
0.0157523
0.00257136
0.00262528
0.00238954
0.00217056
0.0019862
0.00183268
0.00170277
0.00158955
0.0014857
0.00138401
0.00127998
0.00117344
0.00106762
0.000968348
0.000884184
0.000826325
0.000807607
0.000838826
0.00091813
0.00105896
0.00127906
0.00160062
0.00204157
0.00260254
0.00325935
0.00396983
0.00469673
0.00544004
0.00623237
0.00702339
0.00764677
0.00802104
0.0082827
0.00865164
0.009232
0.0100173
0.0109771
0.0120795
0.0132812
0.0145213
0.0157269
0.0168251
0.0177542
0.0184712
0.0189628
0.0192553
0.019412
0.0195114
0.0196203
0.0197794
0.0200046
0.0202962
0.0206469
0.0210462
0.0214828
0.0219466
0.0224284
0.0229186
0.0234129
0.0239245
0.0244219
0.02486
0.0251704
0.0252663
0.025062
0.0245053
0.0236179
0.0224997
0.0213094
0.0202728
0.0195099
0.01911
0.0191643
0.0197
0.0207999
0.0225645
0.0250394
0.0281414
0.0317116
0.0357244
0.0403869
0.0459368
0.0523299
0.0591249
0.0656472
0.0712693
0.0756079
0.0785587
0.08022
0.0807886
0.0804817
0.0794956
0.0779927
0.0761023
0.0739268
0.071548
0.0690323
0.0664343
0.0637993
0.0611645
0.0585606
0.056012
0.0535381
0.051153
0.0488668
0.0466856
0.0446119
0.0426457
0.0407844
0.0390236
0.0373576
0.0357799
0.0342835
0.0328613
0.0315065
0.0302133
0.0289749
0.0277865
0.0266439
0.0255436
0.0244829
0.0234594
0.0224714
0.0215176
0.020597
0.0197085
0.0188517
0.0180255
0.0172293
0.0164617
0.0157215
0.0150066
0.0143143
0.0136415
0.0129833
0.0123332
0.0116817
0.0110117
0.0102894
0.00948076
0.00860133
0.00769451
0.00670719
0.00531216
0.00361106
0.00222935
0.00146383
0.00131632
0.00153453
0.00171173
0.00164161
0.0014326
0.00124103
0.00111727
0.00103971
0.00097882
0.00092765
0.000906537
0.000957363
0.00113197
0.00148422
0.00205353
0.00283541
0.00375386
0.00466941
0.005439
0.00598821
0.00633112
0.00652696
0.00662538
0.0066468
0.00659694
0.00648667
0.00633849
0.0061813
0.00604046
0.00593323
0.00585974
0.998813
0.0129419
0.0027757
0.00279892
0.00256462
0.00234041
0.00214923
0.00199198
0.00186324
0.00175645
0.00166517
0.00158318
0.00150566
0.00143083
0.00136047
0.00129944
0.00125507
0.00123664
0.00125447
0.00130943
0.00141701
0.00158617
0.00182742
0.00215104
0.00256274
0.00305863
0.0036236
0.00423784
0.00488838
0.00556378
0.00622611
0.00681201
0.00727945
0.00765233