/*--------------------------------*- C++ -*----------------------------------*\
| =========                 |                                                 |
| \\      /  F ield         | OpenFOAM: The Open Source CFD Toolbox           |
|  \\    /   O peration     | Version:  2112                                  |
|   \\  /    A nd           | Website:  www.openfoam.com                      |
|    \\/     M anipulation  |                                                 |
\*---------------------------------------------------------------------------*/
FoamFile
{
    version     2.0;
    format      ascii;
    arch        "LSB;label=32;scalar=64";
    class       volScalarField;
    location    "0.16";
    object      k;
}
// * * * * * * * * * * * * * * * * * * * * * * * * * * * * * * * * * * * * * //

dimensions      [0 2 -2 0 0 0 0];

internalField   nonuniform List<scalar> 
12225
(
0.891899
1.27265
1.48106
1.57194
1.59353
1.57788
1.54392
1.50221
1.45852
1.41584
1.3756
1.33838
1.30429
1.27322
1.24494
1.21913
1.19549
1.17338
0.400565
0.420264
0.428142
0.429143
0.426708
0.422905
0.419222
0.416706
0.415909
0.417058
0.420199
0.425283
0.432213
0.440871
0.451147
0.462929
0.476283
0.491227
0.37633
0.376074
0.36947
0.358499
0.345273
0.331081
0.316782
0.302984
0.290084
0.278311
0.267777
0.258515
0.250504
0.243697
0.238034
0.233452
0.229916
0.227306
0.372549
0.369206
0.364424
0.358088
0.350609
0.342444
0.333933
0.325322
0.316794
0.308479
0.300465
0.292807
0.285536
0.278666
0.272197
0.266122
0.260429
0.255117
0.371958
0.368515
0.364608
0.36017
0.355244
0.349947
0.344414
0.338764
0.333094
0.327475
0.321962
0.316592
0.311391
0.306375
0.301552
0.296924
0.292489
0.28827
0.371871
0.368577
0.365158
0.361545
0.357743
0.353789
0.349732
0.345618
0.341492
0.337389
0.333338
0.329364
0.325482
0.321704
0.318039
0.31449
0.311061
0.307782
0.371868
0.368675
0.365512
0.362329
0.359111
0.355862
0.352591
0.349316
0.346054
0.342822
0.339635
0.336506
0.333443
0.330454
0.327544
0.324718
0.321977
0.319354
0.371871
0.368729
0.365696
0.362736
0.359827
0.35696
0.354128
0.351333
0.348578
0.345869
0.343211
0.340609
0.338069
0.335592
0.333181
0.330839
0.328567
0.326395
0.371872
0.368749
0.365774
0.36292
0.360167
0.357502
0.354913
0.352393
0.349938
0.347546
0.345217
0.342951
0.340747
0.338605
0.336527
0.334511
0.33256
0.330697
0.37187
0.368753
0.365799
0.362989
0.360307
0.35774
0.355277
0.352906
0.35062
0.348414
0.346282
0.344223
0.342231
0.340306
0.338446
0.336648
0.334913
0.333261
0.371868
0.368751
0.365802
0.363007
0.360354
0.357829
0.355423
0.353124
0.350925
0.348819
0.346797
0.344856
0.342991
0.341198
0.339473
0.337813
0.336218
0.334703
0.371866
0.368748
0.365799
0.363008
0.360362
0.357851
0.355466
0.353196
0.351033
0.348969
0.346998
0.345114
0.343311
0.341584
0.33993
0.338344
0.336825
0.335388
0.371865
0.368745
0.365795
0.363004
0.36036
0.357854
0.355476
0.353217
0.35107
0.349026
0.347079
0.345224
0.343453
0.341763
0.340148
0.338604
0.33713
0.335739
0.371864
0.368742
0.365791
0.362998
0.360354
0.357848
0.355472
0.353217
0.351075
0.349039
0.347103
0.34526
0.343505
0.341833
0.340239
0.338718
0.337269
0.335903
0.371862
0.36874
0.365787
0.362993
0.360347
0.35784
0.355464
0.353209
0.351068
0.349035
0.347102
0.345264
0.343514
0.341849
0.340263
0.338752
0.337314
0.335961
0.371862
0.368738
0.365783
0.362988
0.360341
0.357834
0.355456
0.353201
0.35106
0.349027
0.347095
0.345258
0.343511
0.341848
0.340266
0.338759
0.337325
0.335978
0.371861
0.368736
0.365781
0.362985
0.360337
0.357828
0.35545
0.353195
0.351054
0.349022
0.34709
0.345255
0.343509
0.341849
0.340268
0.338765
0.337334
0.335991
0.37186
0.368735
0.365779
0.362982
0.360334
0.357825
0.355448
0.353193
0.351053
0.349021
0.347091
0.345257
0.343514
0.341856
0.34028
0.338779
0.337353
0.336014
0.37186
0.368735
0.365779
0.362982
0.360334
0.357826
0.355449
0.353195
0.351057
0.349027
0.3471
0.345269
0.34353
0.341876
0.340303
0.338807
0.337386
0.336052
0.37186
0.368735
0.36578
0.362984
0.360337
0.35783
0.355455
0.353204
0.351068
0.349042
0.347118
0.34529
0.343554
0.341904
0.340336
0.338844
0.337427
0.336097
0.371861
0.368736
0.365782
0.362987
0.360342
0.357838
0.355465
0.353215
0.351082
0.349057
0.347136
0.34531
0.343575
0.341927
0.340359
0.338868
0.337451
0.336121
0.371861
0.368738
0.365785
0.362992
0.360349
0.357845
0.355473
0.353223
0.351088
0.349061
0.347134
0.345303
0.34356
0.341902
0.340324
0.33882
0.337389
0.336043
0.371863
0.368741
0.365789
0.362996
0.36035
0.357841
0.355457
0.353191
0.351032
0.348975
0.347012
0.345138
0.343347
0.341635
0.339998
0.338432
0.336935
0.335522
0.371864
0.368744
0.365789
0.362985
0.360314
0.357765
0.355325
0.352983
0.35073
0.34856
0.346468
0.344451
0.342506
0.340631
0.338825
0.337085
0.335412
0.333821
0.371869
0.368752
0.365785
0.362931
0.360163
0.35746
0.354812
0.352215
0.349667
0.347171
0.34473
0.342349
0.340029
0.337775
0.335589
0.333472
0.331427
0.329474
0.371904
0.368823
0.365843
0.362874
0.359839
0.356716
0.353518
0.350275
0.347017
0.34377
0.340556
0.337394
0.334299
0.33128
0.328348
0.325509
0.322766
0.320144
0.372176
0.36946
0.36652
0.363035
0.35902
0.35463
0.349994
0.345211
0.340357
0.335495
0.330676
0.325939
0.321316
0.316828
0.312494
0.308322
0.304322
0.300512
0.374217
0.374033
0.371111
0.365898
0.359335
0.35194
0.343999
0.335736
0.327346
0.318991
0.310802
0.302877
0.295286
0.288076
0.281274
0.274893
0.268934
0.263404
0.386335
0.394289
0.397304
0.397854
0.396734
0.394242
0.390645
0.386382
0.381861
0.37738
0.373153
0.369324
0.365983
0.363176
0.36092
0.359216
0.358063
0.357493
0.642864
0.874547
1.04592
1.17935
1.27459
1.33636
1.37109
1.38521
1.3844
1.37332
1.35558
1.33382
1.30997
1.28534
1.26083
1.23705
1.21431
1.19288
0.0210535
0.036591
0.0535988
0.0788436
0.107068
0.133585
0.154543
0.172099
0.186951
0.199615
0.210495
0.219903
0.228067
0.235149
0.241259
0.24647
0.250837
0.2544
0.257199
0.259275
0.26067
0.261431
0.261605
0.261234
0.260356
0.258994
0.25718
0.255176
0.253006
0.250579
0.247828
0.244699
0.241156
0.237181
0.232768
0.227929
0.222689
0.217082
0.211154
0.204951
0.198521
0.191902
0.185122
0.178193
0.171109
0.163851
0.156386
0.148685
0.14091
0.133093
0.125192
0.117221
0.109265
0.101502
0.0942159
0.0877855
0.0826618
0.0793257
0.078162
0.0792396
0.0823525
0.0866453
0.0908201
0.0949465
0.0995057
0.105142
0.112526
0.122236
0.134598
0.149675
0.167152
0.186516
0.208645
0.236012
0.268677
0.304646
0.328249
0.33003
0.324783
0.375416
0.504703
0.624976
0.732185
0.824239
0.901468
0.965205
1.01711
1.05882
1.09187
1.11756
1.137
1.15114
1.16076
1.16653
1.16904
1.1688
1.16627
1.16189
1.15598
1.14859
1.13987
1.12989
1.11874
1.10644
1.09301
1.07845
1.0627
1.0457
1.02733
1.00743
0.985808
0.962219
0.936389
0.908018
0.876815
0.84253
0.805001
0.764213
0.72034
0.67379
0.625222
0.575607
0.526433
0.480565
0.446394
0.427936
0.412402
0.398183
0.38525
0.37366
0.36342
0.354493
0.346801
0.340238
0.334675
0.329966
0.325948
0.322445
0.319208
0.315753
0.31134
0.305451
0.297454
0.287275
0.275459
0.263116
0.251632
0.242193
0.235396
0.231169
0.229021
0.228458
0.229309
0.231818
0.236495
0.243905
0.254491
0.268468
0.285713
0.305685
0.327487
0.350177
0.373246
0.396854
0.422281
0.451587
0.4823
0.509353
0.532795
0.553699
0.574549
0.591604
0.603762
0.6124
0.624266
0.639967
0.652558
0.66098
0.663987
0.653595
0.0317855
0.0666299
0.124961
0.179839
0.226966
0.266356
0.299168
0.326486
0.349141
0.367851
0.383232
0.395755
0.405732
0.41335
0.418719
0.42192
0.423039
0.422198
0.419555
0.41531
0.409692
0.402951
0.395343
0.387114
0.378493
0.369672
0.360805
0.351875
0.343167
0.334727
0.326592
0.318798
0.311371
0.304336
0.297711
0.291503
0.285714
0.28033
0.275323
0.270645
0.266232
0.261997
0.257839
0.253646
0.249309
0.244736
0.239868
0.234694
0.229272
0.223722
0.21822
0.21298
0.208244
0.204252
0.20122
0.19931
0.198611
0.199094
0.200439
0.201799
0.201751
0.199483
0.195857
0.192134
0.189979
0.191617
0.199826
0.217518
0.247004
0.289536
0.346749
0.42246
0.525995
0.684212
0.899226
1.15246
1.34831
1.35332
1.27574
1.19556
1.136
1.09116
1.06105
1.04483
1.04065
1.046
1.05822
1.0749
1.09406
1.11425
1.1345
1.15422
1.17311
1.1911
1.20828
1.22485
1.2411
1.25722
1.27243
1.28717
1.30164
1.31601
1.33041
1.34491
1.35954
1.37426
1.38899
1.40351
1.41752
1.43057
1.44207
1.45124
1.4571
1.45853
1.45424
1.44292
1.42331
1.39442
1.35567
1.30707
1.24927
1.18356
1.11174
1.03578
0.960302
0.894073
0.831921
0.773764
0.719954
0.670662
0.625863
0.585393
0.548994
0.516355
0.487147
0.461038
0.437708
0.416842
0.398146
0.381337
0.365946
0.351515
0.339108
0.32995
0.325007
0.325161
0.330869
0.341847
0.356908
0.374066
0.391005
0.405922
0.418531
0.430658
0.445937
0.468769
0.503145
0.551571
0.6141
0.687984
0.768487
0.850489
0.930073
1.00469
1.07358
1.13684
1.1945
1.24666
1.29379
1.33596
1.37346
1.40632
1.4333
1.45418
1.46891
1.47652
1.47568
1.46726
1.45041
1.43025
0.0417089
0.121187
0.193816
0.246507
0.285287
0.31694
0.345322
0.372014
0.397417
0.421403
0.443612
0.463598
0.480913
0.495184
0.506152
0.513704
0.517877
0.518842
0.516885
0.512376
0.505743
0.497438
0.487915
0.477605
0.466907
0.456172
0.445721
0.435894
0.426782
0.41848
0.411047
0.404508
0.398862
0.394085
0.390129
0.386924
0.384373
0.382355
0.380712
0.379254
0.377752
0.375949
0.373568
0.370336
0.366006
0.36039
0.353383
0.344983
0.335297
0.324537
0.312999
0.301032
0.289002
0.277258
0.266104
0.255774
0.246424
0.23813
0.230882
0.224599
0.219203
0.2148
0.211884
0.211494
0.215707
0.228426
0.255832
0.304763
0.382041
0.493713
0.652643
0.887746
1.19814
1.54165
1.73297
1.70023
1.56091
1.39902
1.26956
1.18849
1.15228
1.15184
1.17925
1.22612
1.2837
1.34406
1.40109
1.45114
1.49278
1.52616
1.55231
1.57254
1.58819
1.60039
1.61009
1.61803
1.6248
1.6303
1.63448
1.63763
1.64012
1.64232
1.64458
1.64722
1.65052
1.65467
1.65981
1.66595
1.67297
1.68057
1.68823
1.69514
1.70023
1.70209
1.69904
1.68923
1.67078
1.64202
1.60176
1.54955
1.48579
1.41175
1.32935
1.24053
1.15381
1.07454
0.999496
0.929129
0.863947
0.804191
0.749859
0.700766
0.656609
0.617025
0.581622
0.550005
0.521795
0.496625
0.474161
0.454087
0.435937
0.41916
0.403262
0.388336
0.375149
0.364226
0.356141
0.351456
0.35072
0.354486
0.363298
0.377703
0.39847
0.427102
0.466274
0.519544
0.590102
0.679022
0.783963
0.899372
1.01817
1.13364
1.24074
1.33648
1.42014
1.49261
1.55555
1.61076
1.65983
1.70373
1.74276
1.77667
1.8045
1.82552
1.83882
1.8434
1.83859
1.82558
1.80497
1.7834
0.0508947
0.169614
0.240203
0.286102
0.322721
0.356878
0.39065
0.424155
0.456816
0.487825
0.516335
0.541576
0.562925
0.579956
0.592459
0.600437
0.604086
0.603759
0.599931
0.593152
0.584015
0.573121
0.561054
0.54836
0.535541
0.523053
0.511335
0.500901
0.491819
0.48426
0.478328
0.474065
0.471462
0.470458
0.470945
0.472766
0.475703
0.479473
0.483727
0.488047
0.491963
0.494973
0.496582
0.496342
0.493895
0.489012
0.481616
0.471791
0.459765
0.445881
0.430556
0.41423
0.397332
0.380244
0.363293
0.346752
0.330861
0.315856
0.302012
0.289707
0.279516
0.27237
0.269836
0.274612
0.291383
0.327785
0.395177
0.509728
0.690419
0.955148
1.30153
1.68689
1.91779
1.90946
1.75595
1.55767
1.38866
1.27833
1.23103
1.23807
1.2858
1.36014
1.4488
1.54167
1.63118
1.7124
1.78281
1.84175
1.88973
1.92783
1.95725
1.97911
1.99438
2.00389
2.00834
2.00833
2.00446
1.99698
1.98624
1.97279
1.9572
1.94005
1.92193
1.90345
1.88519
1.86774
1.85162
1.8373
1.8251
1.81517
1.80742
1.80139
1.79625
1.79067
1.78288
1.77069
1.75173
1.72365
1.68454
1.63327
1.56972
1.4948
1.41028
1.31872
1.23161
1.14907
1.07048
0.996664
0.928234
0.865483
0.808423
0.756872
0.710525
0.669008
0.631917
0.598849
0.569413
0.543243
0.52
0.499347
0.480911
0.464275
0.449
0.434664
0.421167
0.408847
0.397938
0.388753
0.381772
0.377853
0.378502
0.386088
0.403885
0.435895
0.48637
0.55883
0.654734
0.77239
0.906746
1.05028
1.19456
1.3318
1.45617
1.56451
1.65645
1.73368
1.79883
1.85451
1.90287
1.94522
1.98205
2.01341
2.03855
2.05654
2.06631
2.067
2.05827
2.04149
2.018
1.99389
0.0855702
0.208304
0.272812
0.322101
0.368259
0.413523
0.457674
0.499947
0.539475
0.575413
0.607001
0.633625
0.654874
0.670569
0.680767
0.685748
0.685967
0.682012
0.674551
0.664288
0.651927
0.63815
0.623597
0.608866
0.594512
0.581085
0.569231
0.559315
0.551551
0.546179
0.543352
0.543131
0.545486
0.550285
0.557291
0.566155
0.576411
0.587484
0.5987
0.609314
0.61855
0.625651
0.629937
0.630866
0.628081
0.621441
0.611038
0.597171
0.58031
0.561038
0.539982
0.517762
0.494939
0.471996
0.449334
0.427297
0.406214
0.386473
0.368621
0.353503
0.342479
0.337781
0.343199
0.365298
0.415085
0.509056
0.667898
0.911241
1.24842
1.65344
1.98113
2.05305
1.93135
1.72131
1.51839
1.37237
1.29849
1.29148
1.33722
1.41899
1.52176
1.63416
1.74823
1.85833
1.96058
2.05266
2.13351
2.20291
2.26106
2.30837
2.34533
2.37251
2.39047
2.39985
2.4013
2.39547
2.38305
2.36449
2.34045
2.31159
2.27853
2.24191
2.20243
2.16083
2.11794
2.07464
2.03187
1.99061
1.95182
1.91632
1.88476
1.85742
1.83409
1.81395
1.79544
1.77631
1.7538
1.72494
1.68695
1.63783
1.57669
1.50391
1.4208
1.33318
1.24942
1.16809
1.09027
1.01704
0.949113
0.886822
0.830198
0.779073
0.733151
0.692064
0.655421
0.622824
0.593896
0.56828
0.545644
0.525662
0.508005
0.492319
0.478223
0.465336
0.453298
0.442059
0.431751
0.422554
0.414818
0.409252
0.407274
0.411504
0.426212
0.457293
0.511267
0.593177
0.704256
0.840926
0.995798
1.15957
1.3226
1.47619
1.61382
1.73207
1.83074
1.9119
1.97865
2.03406
2.08058
2.11984
2.15258
2.17923
2.19933
2.21204
2.2164
2.21173
2.19795
2.17655
2.1491
2.12071
0.134792
0.243697
0.311839
0.373705
0.432637
0.488441
0.540608
0.588524
0.631521
0.66893
0.700177
0.724881
0.74293
0.7545
0.760029
0.760158
0.755659
0.747362
0.736102
0.722677
0.707828
0.692235
0.676527
0.661296
0.647132
0.634696
0.624909
0.617933
0.614141
0.613803
0.617073
0.62397
0.634359
0.647932
0.664193
0.682455
0.701856
0.72139
0.739955
0.756423
0.769715
0.77888
0.783166
0.782079
0.77542
0.763292
0.746081
0.724411
0.699072
0.670946
0.640927
0.609869
0.578546
0.547646
0.517782
0.489523
0.463465
0.440346
0.421237
0.407831
0.402923
0.41125
0.440843
0.504672
0.621435
0.813405
1.10044
1.47561
1.89059
2.09701
2.07505
1.89499
1.67194
1.48525
1.36982
1.33004
1.35474
1.42654
1.52835
1.64694
1.77338
1.90169
2.02751
2.14755
2.25943
2.36149
2.45266
2.53224
2.59982
2.65529
2.69873
2.73046
2.75097
2.76083
2.76071
2.75127
2.7332
2.70693
2.67342
2.63331
2.58716
2.53553
2.47904
2.41837
2.35432
2.28783
2.22002
2.15217
2.08573
2.02221
1.9631
1.90967
1.86274
1.8224
1.78776
1.7569
1.727
1.6946
1.65605
1.6084
1.54975
1.47979
1.39999
1.31933
1.23909
1.16034
1.08471
1.01343
0.947297
0.886672
0.831615
0.781973
0.737459
0.697718
0.662369
0.631031
0.603338
0.57895
0.557543
0.53881
0.522443
0.508122
0.495513
0.484278
0.474098
0.464724
0.45618
0.448576
0.442194
0.43765
0.436202
0.440277
0.454122
0.484192
0.538384
0.623497
0.741853
0.889574
1.05794
1.23617
1.4134
1.57995
1.72856
1.85544
1.96025
2.04514
2.11336
2.16818
2.21228
2.24754
2.27496
2.29534
2.30865
2.3143
2.31158
2.30005
2.27984
2.25252
2.21962
2.18538
0.184543
0.283501
0.364817
0.439906
0.508337
0.570778
0.627414
0.677903
0.721613
0.757885
0.786273
0.806696
0.819469
0.825265
0.825013
0.819777
0.810645
0.798646
0.7847
0.769602
0.754034
0.738597
0.723854
0.710385
0.698864
0.690207
0.685335
0.684399
0.687802
0.695809
0.708503
0.725756
0.747196
0.772181
0.799805
0.828916
0.858162
0.886065
0.911118
0.931896
0.947152
0.955908
0.957512
0.951667
0.93844
0.918241
0.891775
0.859983
0.823953
0.784837
0.74378
0.701891
0.660238
0.619866
0.581836
0.547215
0.517178
0.493211
0.477469
0.473351
0.486385
0.525493
0.604087
0.740277
0.955228
1.26021
1.65512
1.97905
2.11195
2.03491
1.83883
1.62605
1.4637
1.37683
1.36377
1.40993
1.49717
1.60982
1.73696
1.87166
2.00921
2.14605
2.27928
2.40648
2.52565
2.63515
2.73363
2.82007
2.89378
2.95441
3.00192
3.03654
3.0587
3.06898
3.06802
3.05649
3.03505
3.00416
2.96486
2.91777
2.86339
2.80215
2.73452
2.66098
2.58214
2.49875
2.41182
2.32259
2.23266
2.14387
2.05835
1.97827
1.90564
1.84181
1.78702
1.74012
1.69866
1.65915
1.61724
1.5691
1.51169
1.44391
1.37066
1.29495
1.21813
1.14222
1.06906
1
0.935884
0.877118
0.823788
0.775757
0.732755
0.694441
0.660452
0.630425
0.604016
0.580902
0.56078
0.54336
0.528357
0.515481
0.50443
0.494904
0.486621
0.479341
0.472976
0.467606
0.463483
0.461168
0.461806
0.467585
0.482401
0.512447
0.565906
0.650696
0.770659
0.92291
1.09866
1.28627
1.47376
1.65043
1.80821
1.94272
2.05325
2.14176
2.21145
2.2656
2.30701
2.33774
2.35906
2.37214
2.37741
2.37468
2.36355
2.34386
2.31595
2.28144
2.24175
2.20046
0.227134
0.329471
0.426923
0.511685
0.586219
0.652871
0.712166
0.76357
0.80623
0.839492
0.863193
0.877751
0.884098
0.883526
0.877502
0.867486
0.854809
0.840592
0.825732
0.810926
0.796726
0.783616
0.77209
0.762753
0.75645
0.754513
0.757191
0.76497
0.778234
0.797184
0.821761
0.851583
0.885916
0.92367
0.963445
1.0036
1.04235
1.07787
1.10842
1.13248
1.14885
1.1567
1.15559
1.14544
1.12652
1.09938
1.06488
1.02408
0.978168
0.928413
0.876084
0.822509
0.769174
0.717801
0.670516
0.629485
0.59711
0.57637
0.571381
0.588174
0.635645
0.726512
0.875819
1.0972
1.40878
1.7395
1.98078
2.05192
1.95768
1.77258
1.58493
1.45027
1.38827
1.39475
1.45432
1.54974
1.66736
1.79833
1.93709
2.07978
2.2233
2.365
2.50258
2.63397
2.75731
2.87094
2.97344
3.06371
3.14094
3.20468
3.25482
3.29152
3.31514
3.32618
3.32527
3.31302
3.29008
3.25692
3.21458
3.16367
3.10462
3.0378
2.96352
2.88209
2.79389
2.69942
2.5994
2.49486
2.38719
2.27821
2.17022
2.06596
1.96838
1.88029
1.80325
1.7372
1.6805
1.63028
1.58176
1.53053
1.47234
1.40859
1.34007
1.268
1.19435
1.12127
1.05064
0.983847
0.921773
0.864852
0.813188
0.76666
0.725015
0.687932
0.65507
0.626094
0.600689
0.578562
0.559443
0.543071
0.529192
0.517549
0.507876
0.499911
0.493405
0.488153
0.484033
0.481101
0.479592
0.480041
0.483511
0.491988
0.508952
0.539982
0.592784
0.675536
0.793346
0.944985
1.12271
1.31487
1.50878
1.69276
1.85785
1.99892
2.11468
2.20666
2.2778
2.33131
2.36997
2.39597
2.41082
2.41601
2.41251
2.40054
2.38009
2.3513
2.31474
2.27206
2.22461
2.17551
0.260826
0.380365
0.492347
0.584117
0.663476
0.73365
0.794827
0.846043
0.886304
0.915186
0.93305
0.941006
0.940706
0.934075
0.92306
0.909415
0.89459
0.879697
0.865535
0.852659
0.841486
0.8324
0.825871
0.822569
0.823477
0.830014
0.842045
0.860136
0.884712
0.915928
0.953557
0.996932
1.04493
1.09599
1.14824
1.19972
1.24845
1.29256
1.33035
1.36043
1.38173
1.39346
1.39542
1.38751
1.36983
1.34267
1.3066
1.26236
1.21091
1.15331
1.09077
1.02471
0.957342
0.89127
0.831301
0.781862
0.747451
0.7334
0.746154
0.793294
0.884502
1.03534
1.25109
1.50168
1.74529
1.90865
1.94155
1.85198
1.69797
1.54609
1.44191
1.40225
1.42316
1.49059
1.58933
1.70789
1.83909
1.97845
2.12266
2.26896
2.41493
2.55841
2.69747
2.8303
2.95521
3.07062
3.17515
3.26767
3.34733
3.41362
3.46631
3.50543
3.53123
3.54411
3.54456
3.5331
3.5103
3.47669
3.43324
3.38055
3.31904
3.24902
3.17073
3.08436
2.99012
2.88827
2.77928
2.66389
2.54322
2.41879
2.29273
2.16786
2.04764
1.9363
1.8367
1.74998
1.67535
1.61143
1.55329
1.49612
1.43788
1.37597
1.30995
1.2407
1.16996
1.09969
1.0317
0.967332
0.907452
0.852499
0.802576
0.757569
0.717234
0.681267
0.649352
0.621185
0.596486
0.575006
0.556516
0.540804
0.527661
0.516878
0.508235
0.501513
0.496506
0.493039
0.491009
0.490454
0.4916
0.494963
0.50155
0.513179
0.532941
0.56571
0.618305
0.69844
0.811883
0.959126
1.1342
1.32636
1.52278
1.71108
1.88142
2.02778
2.14808
2.24324
2.3158
2.36873
2.40474
2.42607
2.43442
2.4316
2.41905
2.39747
2.36726
2.32889
2.28315
2.23177
2.17607
2.1189
0.286381
0.433992
0.558339
0.656528
0.740825
0.814392
0.876872
0.927026
0.963981
0.987781
0.999477
1.00093
0.994495
0.98263
0.967645
0.951465
0.935567
0.921007
0.908485
0.898444
0.891202
0.887095
0.886613
0.890514
0.899881
0.915472
0.937363
0.96626
1.00263
1.04656
1.0977
1.1552
1.21778
1.28376
1.3503
1.41558
1.47801
1.53604
1.58823
1.63334
1.67021
1.69777
1.71496
1.7208
1.71446
1.69538
1.66342
1.61889
1.56256
1.49565
1.41992
1.3378
1.25284
1.16954
1.09391
1.03283
0.993903
0.985352
1.01374
1.08354
1.19678
1.34958
1.52367
1.6805
1.7799
1.7936
1.7271
1.61686
1.50918
1.43872
1.42064
1.45299
1.52467
1.62329
1.73964
1.86803
2.00483
2.14722
2.29273
2.43916
2.58455
2.72719
2.86546
2.9978
3.12269
3.23865
3.34435
3.43865
3.52065
3.58974
3.64556
3.68798
3.71706
3.73303
3.73618
3.72689
3.70554
3.67272
3.62936
3.57606
3.51325
3.44123
3.36021
3.27034
3.1717
3.06441
2.94869
2.82512
2.69462
2.55834
2.41804
2.27624
2.13627
2.00379
1.88283
1.77555
1.68168
1.60195
1.53289
1.4695
1.40792
1.34525
1.28022
1.21302
1.14487
1.0774
1.01219
0.950481
0.893075
0.840366
0.792437
0.749158
0.710283
0.675516
0.644557
0.61713
0.592994
0.571943
0.553802
0.538415
0.525636
0.515316
0.507299
0.501424
0.497536
0.495505
0.495261
0.496845
0.500478
0.506662
0.516355
0.531235
0.554054
0.589012
0.641905
0.719502
0.827552
0.967903
1.13666
1.32467
1.51973
1.70919
1.88245
2.03252
2.15643
2.25432
2.32816
2.38057
2.41412
2.43105
2.43319
2.42259
2.40117
2.37009
2.33017
2.28221
2.22727
2.16716
2.10323
2.03822
0.305626
0.488123
0.623742
0.729029
0.818624
0.895372
0.95866
1.0073
1.04077
1.0597
1.06583
1.0617
1.05021
1.0342
1.01624
0.998348
0.981998
0.968223
0.957685
0.950784
0.947799
0.949039
0.955017
0.96654
0.98474
1.00948
1.0415
1.08151
1.13001
1.18704
1.25218
1.32453
1.40279
1.48535
1.57047
1.65657
1.74209
1.82536
1.90444
1.97707
2.04063
2.09226
2.12915
2.1489
2.14981
2.13108
2.09292
2.0364
1.96343
1.87669
1.77944
1.67557
1.56996
1.46772
1.37565
1.30129
1.25227
1.23486
1.25149
1.3011
1.37819
1.47051
1.5579
1.61633
1.62965
1.59772
1.53863
1.47983
1.44575
1.44942
1.49153
1.56492
1.66068
1.77201
1.89466
2.02581
2.16311
2.30438
2.44764
2.59117
2.73348
2.87323
3.00907
3.13963
3.2635
3.3793
3.48572
3.58161
3.666
3.73817
3.79758
3.84393
3.87707
3.897
3.90379
3.89757
3.87841
3.84706
3.80439
3.75101
3.68735
3.61376
3.53045
3.43758
3.33522
3.22338
3.10202
2.97171
2.83341
2.6879
2.53654
2.38148
2.22496
2.07425
1.93437
1.8082
1.69748
1.60236
1.52046
1.44796
1.3808
1.31558
1.25029
1.18439
1.11847
1.05372
0.991427
0.932633
0.878018
0.827899
0.782304
0.741072
0.703939
0.670603
0.640774
0.614195
0.590656
0.569993
0.552083
0.536831
0.524156
0.513985
0.506237
0.500824
0.497657
0.496665
0.497825
0.501201
0.507018
0.515767
0.52836
0.546352
0.572204
0.609525
0.663118
0.738581
0.841069
0.973183
1.13296
1.31333
1.50336
1.69071
1.86428
2.01623
2.14255
2.24249
2.31733
2.36927
2.4006
2.41352
2.40996
2.39215
2.36243
2.32241
2.2733
2.21626
2.15261
2.08425
2.01264
1.94047
0.320697
0.537403
0.685821
0.799586
0.895032
0.975148
1.03942
1.08693
1.11765
1.13282
1.13478
1.12665
1.11171
1.09303
1.07324
1.05438
1.03799
1.02515
1.01662
1.01284
1.01412
1.02075
1.03312
1.0519
1.07805
1.11143
1.153
1.20364
1.26401
1.33438
1.41462
1.50424
1.60235
1.70779
1.81902
1.93408
2.05029
2.1641
2.27102
2.36593
2.44366
2.49972
2.531
2.53618
2.51562
2.47112
2.40539
2.32164
2.22331
2.11388
1.99682
1.87575
1.75403
1.63669
1.52932
1.43853
1.37088
1.33133
1.3219
1.33913
1.37575
1.42131
1.46294
1.4891
1.49517
1.48616
1.47497
1.47631
1.50045
1.55023
1.62263
1.71256
1.81577
1.9295
2.05175
2.1806
2.3141
2.45053
2.58838
2.7264
2.8635
2.99864
3.1307
3.25831
3.38017
3.49499
3.60147
3.69843
3.78483
3.85981
3.92269
3.97296
4.01027
4.03436
4.04504
4.04216
4.02545
3.99578
3.95397
3.90061
3.83618
3.76103
3.67545
3.57966
3.47378
3.35779
3.23128
3.09485
2.95009
2.79725
2.63743
2.47263
2.30594
2.1424
1.98704
1.84424
1.71703
1.60648
1.51138
1.42875
1.35478
1.28587
1.21942
1.15421
1.09021
1.02812
0.968846
0.913192
0.861668
0.814475
0.771563
0.73272
0.69765
0.666036
0.637589
0.612065
0.589277
0.569096
0.551444
0.536281
0.523594
0.513384
0.50565
0.500388
0.497588
0.497253
0.499419
0.504194
0.511817
0.522775
0.537936
0.558744
0.58741
0.627043
0.681575
0.755411
0.852729
0.976226
1.12543
1.29544
1.47719
1.6592
1.83033
1.98203
2.10929
2.21037
2.28579
2.33718
2.36655
2.37595
2.36736
2.34318
2.30607
2.25804
2.20069
2.13554
2.06414
1.98851
1.91025
1.83203
0.32927
0.580059
0.741228
0.863534
0.965148
1.04942
1.11608
1.16448
1.19493
1.20903
1.20951
1.19976
1.18331
1.16337
1.14263
1.12322
1.10676
1.09448
1.0873
1.08584
1.09054
1.1017
1.11969
1.14504
1.17856
1.2203
1.2714
1.33296
1.40596
1.49105
1.58853
1.69817
1.81909
1.9495
2.0864
2.22531
2.36022
2.48394
2.58902
2.66899
2.71948
2.73897
2.72867
2.69199
2.63355
2.55836
2.47107
2.37552
2.2746
2.17025
2.06373
1.95588
1.8458
1.7345
1.62499
1.52283
1.43603
1.37395
1.34564
1.34869
1.37237
1.40743
1.4452
1.47901
1.50655
1.53083
1.55845
1.59616
1.64787
1.7141
1.7934
1.88404
1.98463
2.09398
2.21064
2.33284
2.45862
2.58679
2.71633
2.8464
2.97623
3.10504
3.23206
3.35524
3.47368
3.5862
3.69153
3.78844
3.87581
3.95266
4.01817
4.07164
4.1125
4.14026
4.15445
4.15466
4.14026
4.11219
4.07115
4.01773
3.95241
3.8756
3.78764
3.68883
3.57943
3.45961
3.32951
3.18958
3.04048
2.88275
2.71732
2.5459
2.37133
2.19787
2.03051
1.8742
1.73286
1.60856
1.5012
1.40873
1.3278
1.25481
1.1868
1.12197
1.05973
1.00026
0.944123
0.891816
0.843651
0.799686
0.759774
0.723633
0.690926
0.661319
0.634513
0.610275
0.588435
0.568894
0.551611
0.536595
0.523891
0.513569
0.505706
0.500383
0.497677
0.497672
0.500479
0.50626
0.515287
0.528047
0.545374
0.568608
0.599742
0.64147
0.697009
0.769689
0.862538
0.977784
1.11581
1.27369
1.44448
1.61816
1.78404
1.93316
2.05963
2.16073
2.23611
2.28678
2.31437
2.32076
2.30794
2.27841
2.23508
2.1803
2.11605
2.04415
1.96638
1.88488
1.80137
1.71852
0.330204
0.611146
0.783378
0.913695
1.02188
1.11177
1.18334
1.23606
1.27024
1.2875
1.29055
1.28278
1.26775
1.24874
1.2285
1.20925
1.19276
1.18047
1.17357
1.17304
1.1796
1.19381
1.21613
1.24705
1.28723
1.3369
1.39724
1.46953
1.55492
1.65415
1.76734
1.89353
2.03028
2.17331
2.31622
2.4509
2.5684
2.66052
2.72143
2.74893
2.74468
2.71361
2.66269
2.59955
2.53129
2.4636
2.40035
2.34338
2.29273
2.24702
2.20393
2.15914
2.10775
2.04669
1.9746
1.89257
1.80518
1.72103
1.65235
1.61989
1.61973
1.63731
1.6634
1.69195
1.7201
1.74845
1.78006
1.8185
1.8664
1.92508
1.99493
2.07565
2.166
2.26498
2.37137
2.48377
2.59805
2.71459
2.83294
2.95256
3.07286
3.19312
3.31244
3.42947
3.54303
3.65185
3.75463
3.8501
3.93706
4.01444
4.08126
4.13668
4.17996
4.21038
4.22726
4.22989
4.21756
4.19099
4.15078
4.09746
4.03152
3.95342
3.86358
3.76239
3.65023
3.52745
3.39441
3.25154
3.09933
2.93829
2.76919
2.59347
2.41357
2.23327
2.05738
1.89105
1.73872
1.60331
1.48571
1.38476
1.29769
1.22103
1.15159
1.08719
1.02674
0.970004
0.917147
0.868394
0.823833
0.783363
0.74672
0.713548
0.683462
0.656101
0.631162
0.608417
0.587715
0.56898
0.552204
0.537438
0.524777
0.514349
0.506304
0.5008
0.497999
0.49807
0.501209
0.50764
0.51768
0.53183
0.550894
0.576117
0.609301
0.652801
0.709263
0.781138
0.870327
0.978201
1.10533
1.25026
1.40819
1.57099
1.72893
1.87305
1.99681
2.09657
2.17108
2.22071
2.24664
2.25052
2.2343
2.20056
2.15236
2.09235
2.02281
1.94582
1.86337
1.7777
1.69062
1.60481
0.321908
0.624879
0.804717
0.94161
1.05654
1.15385
1.23361
1.29514
1.33838
1.36449
1.37572
1.37512
1.36602
1.35162
1.33469
1.31753
1.30202
1.28979
1.28233
1.28102
1.28712
1.3017
1.32562
1.35958
1.40422
1.45965
1.5268
1.60672
1.70016
1.80714
1.92644
2.05505
2.18776
2.3172
2.43445
2.53041
2.59772
2.63242
2.63499
2.61019
2.56593
2.51164
2.45669
2.40903
2.37445
2.35627
2.3554
2.37075
2.39969
2.43866
2.48349
2.52869
2.57057
2.60469
2.62588
2.62847
2.60727
2.55902
2.48425
2.38867
2.30614
2.25463
2.21605
2.18491
2.15929
2.14001
2.12964
2.1312
2.14697
2.17824
2.22528
2.28771
2.36031
2.4421
2.53165
2.62713
2.7264
2.82887
2.9341
3.04163
3.15093
3.26128
3.37179
3.4813
3.58855
3.69226
3.79106
3.88364
3.96873
4.04515
4.11183
4.1678
4.21215
4.24403
4.26255
4.26674
4.25588
4.23042
4.19083
4.13758
4.07116
3.99203
3.9007
3.79763
3.68333
3.55827
3.42294
3.27785
3.12347
2.96031
2.78906
2.61091
2.42801
2.24372
2.06259
1.88972
1.72984
1.58649
1.46139
1.35414
1.26252
1.18324
1.11304
1.04947
0.991097
0.93731
0.887954
0.842979
0.802255
0.765513
0.732368
0.702381
0.675118
0.650193
0.627297
0.606209
0.586796
0.569008
0.552867
0.538459
0.525923
0.515437
0.507211
0.501471
0.49846
0.498428
0.501653
0.50843
0.519132
0.534281
0.55466
0.581429
0.61622
0.661105
0.718295
0.789572
0.875868
0.977526
1.09472
1.22682
1.37091
1.52092
1.66853
1.80528
1.92429
2.02115
2.0938
2.1419
2.16615
2.16794
2.14915
2.11239
2.06079
1.99721
1.92416
1.84395
1.75872
1.67074
1.58192
1.49485
0.302886
0.615883
0.79794
0.938767
1.05991
1.16605
1.25727
1.33242
1.39073
1.43247
1.45899
1.4726
1.47607
1.47233
1.46403
1.45346
1.44251
1.43282
1.42595
1.42355
1.42734
1.43906
1.46036
1.49261
1.53679
1.59274
1.66067
1.74088
1.83303
1.93559
2.04527
2.15675
2.26275
2.3549
2.42518
2.46784
2.48099
2.46723
2.43325
2.38831
2.34241
2.30458
2.28164
2.27768
2.29408
2.33005
2.38341
2.45144
2.5315
2.62134
2.71912
2.82388
2.93719
3.05893
3.1862
3.31215
3.42547
3.51089
3.55109
3.5297
3.43465
3.28265
3.1311
2.98431
2.84513
2.72096
2.61922
2.54548
2.49991
2.48267
2.49011
2.51833
2.56256
2.61963
2.6869
2.76204
2.84316
2.9292
3.01943
3.11329
3.21014
3.30925
3.40966
3.51027
3.60981
3.70694
3.80028
3.88846
3.97014
4.04408
4.1091
4.16412
4.20813
4.24014
4.25912
4.26393
4.25381
4.22897
4.18974
4.13651
4.06972
3.98986
3.89745
3.79305
3.67722
3.55056
3.41367
3.26712
3.11147
2.94726
2.77514
2.59618
2.41228
2.22652
2.04311
1.86699
1.70301
1.55512
1.42564
1.3148
1.22075
1.14041
1.07052
1.00848
0.952648
0.90216
0.856589
0.815644
0.778986
0.746183
0.71673
0.690107
0.665829
0.643486
0.622767
0.603459
0.585451
0.568719
0.553316
0.539362
0.527031
0.516547
0.508167
0.50218
0.498895
0.498639
0.501768
0.508652
0.519721
0.535529
0.556842
0.584748
0.620725
0.666604
0.724261
0.795001
0.879023
0.975663
1.08429
1.20444
1.33456
1.47058
1.60597
1.73316
1.84536
1.93766
2.00728
2.0532
2.07563
2.07566
2.05511
2.01653
1.96306
1.89765
1.82299
1.74151
1.65545
1.56707
1.47831
1.39164
0.271512
0.57804
0.754667
0.894897
1.02002
1.13494
1.23966
1.33249
1.41172
1.47639
1.52657
1.56337
1.5887
1.60484
1.61415
1.61872
1.62028
1.62019
1.61966
1.61997
1.62266
1.62975
1.64359
1.66674
1.70164
1.74859
1.8071
1.87666
1.95582
2.0417
2.1296
2.2132
2.28521
2.33876
2.36907
2.37504
2.35989
2.3307
2.29694
2.26849
2.25369
2.25803
2.28351
2.32879
2.38991
2.46144
2.53784
2.61466