/*--------------------------------*- C++ -*----------------------------------*\
| =========                 |                                                 |
| \\      /  F ield         | OpenFOAM: The Open Source CFD Toolbox           |
|  \\    /   O peration     | Version:  2112                                  |
|   \\  /    A nd           | Website:  www.openfoam.com                      |
|    \\/     M anipulation  |                                                 |
\*---------------------------------------------------------------------------*/
FoamFile
{
    version     2.0;
    format      ascii;
    arch        "LSB;label=32;scalar=64";
    class       volScalarField;
    location    "0.36";
    object      omegaU_0;
}
// * * * * * * * * * * * * * * * * * * * * * * * * * * * * * * * * * * * * * //

dimensions      [0 0 -1 0 0 0 0];

internalField   nonuniform List<scalar> 
12225
(
56302.3
79828.2
86641.2
86408.5
83636.2
80220.4
76912.3
73983.3
71491.7
69396.5
67622.2
66095.3
64755.7
63560.8
62476.2
61505
60539.4
59412.8
4494.72
10578.6
15770.1
19726.2
22524.7
24404.6
25610.3
26338.3
26734.9
26906.7
26928.9
26854.4
26719.8
26548.5
26357.3
26164.5
26062.5
26077.4
301.708
1082.51
2191.74
3455.17
4695.67
5798.58
6721.95
7475.49
8093.4
8614.52
9071.68
9489.57
9884.43
10266
10639.1
11008
11372.5
11694
54.5991
125.696
267.989
484.629
758.706
1057.62
1354.69
1634.17
1890.9
2128.85
2352.02
2563.53
2765.89
2960.99
3149.72
3332.46
3507.55
3664.7
40.6538
46.6895
61.834
89.8944
132.31
186.531
248.716
315.402
383.813
451.162
517.115
581.466
644.551
706.993
768.394
828.112
885.169
936.578
39.8423
40.5096
42.1735
45.526
51.1575
59.2539
69.66
82.097
96.2342
111.444
127.585
144.556
161.939
179.109
196.027
212.559
228.452
243.075
39.7434
39.9496
40.2886
40.8326
41.6814
42.9056
44.5315
46.5652
49.0118
51.8718
55.1593
58.8874
62.9613
67.1694
71.4332
75.6668
79.7775
83.6478
39.6982
39.8248
40.0007
40.2223
40.4962
40.8266
41.2104
41.6463
42.1391
42.6958
43.3236
44.0295
44.8139
45.6651
46.5649
47.4905
48.4179
49.3214
39.6683
39.7565
39.8802
40.0315
40.2059
40.3977
40.5981
40.801
41.006
41.2157
41.4331
41.6611
41.9029
42.1602
42.4324
42.7181
43.0154
43.3178
39.6476
39.7092
39.7998
39.9131
40.0438
40.1866
40.3341
40.4806
40.6245
40.7666
40.9091
41.0549
41.2073
41.3694
41.543
41.7288
41.9271
42.1345
39.6334
39.6748
39.7407
39.8264
39.927
40.038
40.1536
40.2695
40.3839
40.497
40.6103
40.7258
40.846
40.9736
41.1106
41.2582
41.4169
41.5845
39.6241
39.6516
39.6998
39.766
39.8456
39.9344
40.028
40.1229
40.2176
40.3119
40.4069
40.5038
40.6044
40.7104
40.8234
40.9442
41.0732
41.2089
39.6174
39.6343
39.6688
39.7195
39.7824
39.8537
39.9298
40.0077
40.0862
40.1651
40.2448
40.3264
40.411
40.4998
40.5936
40.693
40.798
40.9077
39.6127
39.6205
39.6429
39.68
39.728
39.7837
39.844
39.9066
39.9702
40.0345
40.0997
40.1665
40.2355
40.3074
40.3828
40.4619
40.5446
40.63
39.6096
39.6105
39.6231
39.6484
39.6834
39.7254
39.7718
39.8207
39.8707
39.9215
39.973
40.0254
40.0791
40.1346
40.1921
40.2515
40.3129
40.3758
39.6074
39.6037
39.6094
39.6251
39.6493
39.6798
39.7146
39.7517
39.7901
39.829
39.8682
39.9075
39.9471
39.9872
40.0278
40.0691
40.1111
40.1535
39.6058
39.5994
39.6005
39.6097
39.6262
39.6482
39.674
39.7022
39.7313
39.7606
39.7896
39.818
39.8458
39.8729
39.8995
39.9256
39.9513
39.9766
39.6052
39.5974
39.5964
39.6023
39.6145
39.6314
39.6517
39.674
39.6969
39.7196
39.7416
39.7623
39.7817
39.7996
39.8161
39.8312
39.8451
39.8581
39.6059
39.5987
39.5979
39.6039
39.6158
39.6321
39.6512
39.6718
39.6926
39.7126
39.7313
39.7482
39.7631
39.776
39.787
39.796
39.8035
39.8097
39.6079
39.6036
39.6061
39.616
39.6323
39.6528
39.6759
39.6997
39.723
39.7448
39.7645
39.7817
39.7963
39.8085
39.8182
39.8258
39.8313
39.8352
39.6108
39.6112
39.6197
39.6368
39.6605
39.6885
39.7186
39.7489
39.7778
39.8043
39.8277
39.8479
39.8647
39.8784
39.8893
39.8975
39.9033
39.9068
39.6155
39.6243
39.6425
39.6701
39.7047
39.7437
39.7847
39.8253
39.8636
39.8985
39.9292
39.9555
39.9775
39.9955
40.01
40.0217
40.0309
40.0381
39.6244
39.6459
39.6784
39.7212
39.7721
39.8287
39.8878
39.9467
40.0033
40.0567
40.1065
40.1529
40.1966
40.2387
40.281
40.3252
40.3735
40.4277
39.6395
39.6801
39.7352
39.8049
39.8902
39.9928
40.1132
40.2524
40.4125
40.596
40.8054
41.043
41.3124
41.6181
41.9661
42.3625
42.8127
43.3227
39.6652
39.7475
39.8805
40.1025
40.4699
41.0399
41.8577
42.9534
44.3415
46.0191
47.9743
50.193
52.6636
55.3795
58.3431
61.4872
64.8039
68.2893
39.7383
40.234
41.5447
44.2402
48.8958
55.9124
65.4391
77.3894
91.4646
107.139
124.003
141.709
159.99
178.659
197.609
216.389
234.992
253.433
41.1379
51.1047
74.1645
114.635
174.176
251.73
343.871
446.032
553.287
660.867
765.982
866.906
962.805
1053.5
1139.36
1221.6
1300.8
1377.57
90.6179
297.924
643.709
1107.86
1647.28
2216.71
2777.94
3304.66
3782.66
4207.82
4580.68
4905.88
5190.17
5440.94
5665.44
5870.28
6060.81
6241.57
1859.06
4860.92
7894.36
10624.7
12910.4
14733.9
16149.4
17229
18040.6
18642.3
19080.1
19390.2
19601.6
19737.2
19815.5
19851.6
19857.7
19842.3
36980.9
56252.5
64448.4
66924.3
66730.7
65373.8
63564.5
61644.7
59782.7
58057
56498.3
55111.2
53886.6
52807.9
51854.7
51006.8
50242.2
49548.7
795.546
970.4
1231.56
1479.65
1691.32
1871.75
2033.98
2191.52
2350.67
2514.09
2685.03
2866.07
3058.93
3264.63
3483.64
3716.06
3961.95
4221.95
4497.34
4772.97
5012.91
5209.89
5355.15
5435.47
5435.86
5345.65
5154.14
4849.29
4424.67
3886.97
3266.35
2623.55
2029.26
1765.84
1736.01
1786.2
1870.24
1969.01
2076.81
2194.1
2323.42
2469.1
2637.54
2836.44
3073.93
3358.39
3698.21
4100.48
4568.67
5099.8
5682.83
6298.9
6923.46
7529.82
8092.59
8589.55
9002.37
9317.1
9523.86
9616.61
9592.89
9453.44
9201.57
8843.23
8388.75
7849.61
7282.53
6699.45
6113.02
5537.4
4987.16
4477.13
4022.19
3637
3335.74
3131.95
3038.67
3068.68
3227.56
3483.28
3829.07
4247.53
4714.39
5202.72
5686.28
6143.18
6559.63
6928.45
7245.84
7483.13
7586.97
7573.12
7464.51
7281.32
7028.1
6700.13
6310.86
5919.39
5635.75
5595.03
5923.39
6703.18
7944.07
9490.64
10971.7
12392.8
13673.8
14749.9
15582.3
16157
16469.9
16525.3
16334.6
15915.5
15282.9
14449.2
13488.2
12459.8
11377.3
10258.6
9124.57
7998.26
6910.19
5891.03
4972.22
4185.52
3561.08
3126.36
2906.95
2921.17
3186.51
3634.03
4232.65
4970.58
5816.97
6739.62
7703.29
8676.81
9629.57
10528.9
11345.2
12053.7
12637.4
13079.2
13321.1
13398.3
13346.1
13191.9
12957.6
12661.2
12318.2
11941.5
11541.2
11125.3
10699.6
10268.2
9833.78
9398.27
8963.78
8532.66
8107.63
7691.73
7286.99
6893.38
6509.09
6131.31
5757.76
5389.07
5031.95
4702.14
4422.37
4214.83
4093.57
4057.41
4091.32
4198.03
4366.21
4557.03
4721.69
4693
1562.57
1801.74
2010.88
2143.75
2212.86
2236.09
2228
2199.77
2159.73
2113.46
2064.46
2014.92
1966.26
1919.54
1875.6
1835.25
1799.34
1768.91
1745.42
1746.37
1801.93
1911.99
2072.06
2272.51
2497.25
2726.26
2938.61
3111.52
3222.28
3250.92
3183.21
3012.21
2737
2401.35
1993.83
1716.27
1597.48
1534.37
1506.69
1507.33
1535.69
1595.35
1691.5
1828.33
2007.26
2225.69
2475.81
2744.6
3015.26
3269.65
3490.64
3664.02
3780.13
3834.7
3828.23
3765.08
3653.23
3504.02
3331.27
3150.38
2977.44
2827.79
2714.8
2648.25
2631.51
2663.99
2697.04
2728.9
2758.29
2783.71
2803.32
2815.07
2816.74
2805.46
2777.67
2728.86
2653.26
2543.74
2393.06
2226.47
2053.57
1880.99
1722.2
1589.63
1492.18
1434.57
1413.71
1427.68
1481.64
1597.29
1793.6
2020.26
2252.32
2502.69
2814.93
3218.22
3690.87
4205.4
4758.54
5370.03
6046.24
6721.55
7194.26
7452.17
7490.35
7318.23
6957.86
6448.48
5842.21
5169.46
4488.41
3858.21
3325.39
2920.37
2657.88
2540.12
2491.05
2451.42
2419.62
2396.08
2384.93
2388.89
2393.29
2396.17
2396.99
2395.46
2391.42
2384.48
2374.49
2360.43
2341.85
2323.15
2305.26
2290.15
2280.44
2282.87
2324.46
2402.83
2500.09
2613.77
2744.23
2891.09
3053.39
3240.66
3485.84
3740.69
3975.56
4177.78
4342.83
4470.78
4564.25
4626.82
4661.78
4671.31
4656.3
4616.38
4550
4454.88
4329.26
4173.46
3991.05
3789.3
3577.5
3366.05
3164.34
2978.73
2810.37
2655.28
2507.85
2364.7
2227.29
2102.46
2002.16
1938.55
1915.69
1917.72
1937.71
1973.54
2026.26
2122.68
2920.3
2816.03
2759.18
2661.45
2536.02
2401.43
2270.17
2148.55
2039.16
1942.33
1857.24
1782.58
1716.96
1659.1
1607.98
1562.84
1523.21
1488.86
1459.88
1436.71
1424.14
1427.15
1454.12
1513.85
1612.72
1752.12
1926.95
2125.18
2328.85
2516.05
2662.77
2743.8
2732.72
2612.83
2360.1
2029.16
1656.48
1469.03
1365.62
1323.15
1334.47
1396.58
1505.77
1654.99
1833.46
2027.69
2223.16
2406.12
2565.08
2691.92
2782.32
2835.56
2854.17
2843.82
2812.56
2769.3
2722.6
2679.96
2647.03
2627.07
2620.8
2626.71
2641.72
2662.08
2684.48
2707.75
2733.38
2760.69
2788.88
2817.04
2844.18
2868.98
2890.18
2906.42
2915.68
2914.83
2898.96
2860.32
2786.44
2657.97
2488.32
2282.72
2051.11
1813.62
1591.47
1401.16
1252.08
1148.84
1094.91
1096.77
1171.06
1343.94
1630.54
2042
2573.87
3190.08
3827.04
4425.74
4958.82
5412.42
5721.52
5806.47
5690.28
5400.12
4973.48
4460.88
3919.19
3403.85
2959.85
2613.53
2375.23
2236.08
2174.65
2165.36
2185.07
2217.26
2248.6
2277.98
2305.1
2329.93
2352.55
2372.83
2390.47
2404.91
2415.06
2419.77
2417.96
2408.23
2388.74
2357.55
2320.84
2282.08
2239.85
2195.59
2150.85
2106.92
2065.8
2029.65
2000.63
1980.61
1970.99
1972.76
1986.02
2010.19
2052.49
2118.73
2200.03
2289.34
2380.45
2468.79
2551.63
2627.84
2697.35
2760.37
2816.78
2865.58
2904.53
2930.25
2938.68
2926.13
2890.19
2830.62
2749.79
2652.67
2545.8
2435.83
2327.95
2224.82
2126.61
2031.91
1938.87
1846.19
1753.89
1665.51
1591.32
1540.08
1520.98
1543.38
1611.52
1727.2
4400.29
3642.15
3212.1
2854.72
2550.94
2299.45
2095.7
1932.54
1802.36
1697.89
1613.21
1543.64
1485.55
1436.25
1393.74
1356.62
1323.96
1295.19
1270.08
1248.72
1233.38
1225.59
1227.95
1245.1
1283.73
1351.45
1454.55
1595.15
1768.97
1964.57
2163.84
2342.5
2469.74
2511.42
2429.24
2217.34
1900.11
1578.17
1365.08
1298.16
1329.45
1436.44
1592
1771.45
1955.18
2128.12
2279.99
2404.97
2500.75
2567.86
2608.97
2628.25
2630.68
2621.39
2605.35
2586.99
2569.61
2555.17
2544.58
2537.97
2535.11
2535.73
2539.65
2546.84
2557.3
2571.24
2588.4
2607.88
2628.8
2650.36
2671.99
2693.3
2713.93
2734.15
2754.35
2774.56
2794.12
2810.52
2817.59
2801.78
2736.54
2613.81
2432.39
2203.98
1954.7
1715.07
1509.84
1355.14
1262.1
1241.88
1312.44
1499.72
1825.64
2299.1
2890.82
3521.61
4092.78
4540.3
4845.53
4981.72
4929.54
4717.79
4378.78
3956.39
3502.88
3070.95
2703.88
2427.36
2246.48
2149.3
2114.62
2119.6
2145.47
2179.53
2214.64
2246.96
2275.84
2301.38
2323.98
2344.16
2362.42
2379.03
2393.74
2405.85
2414.44
2418.16
2415.27
2403.9
2382.23
2350.13
2313.51
2271.31
2224.75
2175.13
2123.21
2069.65
2015.46
1962.09
1911.49
1866.39
1829.59
1803.59
1790.27
1790.38
1803.58
1828.87
1860.5
1895.77
1932.55
1969.26
2005.01
2039.75
2074.19
2109.47
2146.82
2186.92
2229.42
2272.65
2313.63
2348.32
2372.21
2381.27
2372.86
2346.38
2303.37
2247.06
2181.52
2110.48
2036.45
1960.27
1881.34
1798.49
1711.69
1623.8
1541.65
1475.21
1438.37
1444.74
1501.38
1606.44
5898.57
4215.34
3353.38
2763.56
2346.36
2051.18
1841.34
1690.2
1579.13
1495.48
1430.72
1379.01
1336.37
1300.09
1268.32
1239.84
1213.88
1190.01
1168.04
1148.03
1131.29
1119.46
1113.75
1116.41
1131.21
1163.85
1221.57
1311.46
1437.84
1599.39
1787.49
1985.36
2167.15
2298.04
2335.56
2249.72
2039.08
1755.12
1477.2
1353.19
1430.2
1593.98
1788.62
1980.23
2150.48
2291.71
2401.45
2481.06
2533.97
2564.5
2577.1
2576.11
2565.49
2548.59
2528
2505.82
2483.9
2463.58
2445.87
2431.6
2421.46
2415.98
2415.49
2419.97
2429.06
2441.88
2456.83
2472.89
2489.1
2504.68
2519.11
2532.14
2543.63
2554.31
2565.61
2579.37
2597.96
2623.65
2657.24
2695.39
2725.35
2715.94
2639.12
2487.77
2275.63
2036.36
1809.73
1628.09
1515.32
1492.05
1581.97
1805
2171.47
2668.79
3236.32
3768.26
4167.06
4395.77
4455.33
4361.7
4144.64
3832.7
3464.11
3084.57
2738.74
2460.19
2264.65
2149.41
2098.95
2093.03
2113.05
2145.13
2180.41
2213.8
2242.64
2267.26
2288.11
2305.67
2320.67
2334
2346.32
2358.28
2370.17
2381.58
2391.35
2397.76
2398.41
2391.06
2373.4
2348.32
2315.51
2275.98
2230.89
2181.37
2128.21
2071.98
2013.27
1952.73
1891.22
1830.25
1772.38
1720.68
1678.63
1649.58
1636.11
1640.09
1657.32
1682.41
1710.98
1739.57
1766.01
1789.44
1810.16
1829.38
1848.83
1870.36
1895.48
1924.86
1958.06
1993.3
2027.58
2057.2
2078.33
2087.77
2083.58
2065.37
2034.12
1991.66
1939.88
1880.09
1812.86
1738.45
1658.11
1575.36
1497.06
1432.89
1394.23
1395.3
1446.01
1545.6
7329.16
4518.46
3231.3
2492.71
2054.32
1788.01
1620.18
1509.12
1431.44
1374.1
1329.66
1293.53
1262.7
1235.29
1210.1
1186.41
1163.82
1142.19
1121.52
1101.94
1084.1
1069.09
1057.89
1052.05
1054.09
1067.92
1099.23
1155.2
1242.96
1366.92
1525.85
1710.66
1902.74
2072.71
2180.77
2188.77
2077.21
1864.92
1608.12
1464.58
1595.25
1802.54
2008.6
2185.25
2324.73
2427.16
2496.38
2538.14
2558.32
2562.05
2553.57
2536.36
2513.31
2486.77
2458.63
2430.64
2404.4
2381.22
2362.1
2347.81
2338.83
2335.34
2337.18
2343.91
2354.81
2368.56
2383.24
2397.65
2410.76
2421.82
2430.39
2436.31
2439.53
2440.33
2439.75
2439.71
2443.3
2455
2480.17
2523.38
2584.56
2651.29
2683.11
2638.37
2508.77
2312.7
2095.62
1907.09
1787.6
1769.15
1879.26
2129.02
2511.55
2986.53
3466.08
3840.82
4044.25
4077.43
3976.88
3782.76
3515.83
3204.91
2886.54
2598.01
2367.78
2208.64
2117.4
2080.19
2079.53
2099.58
2128.51
2158.78
2186.33
2209.45
2227.95
2243.58
2256.19
2266.02
2273.63
2280.14
2286.96
2295.27
2305.64
2317.8
2330.08
2340.35
2345.41
2343.02
2332.67
2314.12
2287.91
2255
2216.44
2173.15
2125.68
2074.32
2019.19
1960.43
1898.28
1833.23
1766.43
1699.97
1636.75
1580.5
1535.46
1506.17
1496.02
1501.7
1518.91
1542.84
1569.19
1594.82
1617.99
1638.28
1656.32
1673.44
1691.24
1711.19
1734.26
1760.59
1789.29
1818.4
1845.17
1866.46
1879.32
1881.51
1871.81
1849.96
1816.46
1772.1
1717.77
1654.64
1584.74
1511.76
1441.75
1384.22
1350.96
1353.87
1403.99
1502.85
8581.3
4558.46
2930.6
2166.56
1793.49
1599.05
1487.05
1414.57
1362.43
1321.97
1288.81
1260.23
1234.39
1210.05
1186.46
1163.34
1140.65
1118.5
1097.1
1076.71
1057.64
1040.61
1026.1
1015.31
1010.1
1013.34
1029.42
1064.43
1125.69
1219.85
1350.04
1512.9
1696.22
1877.08
2021.11
2089.43
2052.5
1908.14
1698.37
1598.73
1786.87
2010.2
2200.84
2345.6
2446.82
2510.54
2544.61
2556.69
2553.01
2538.24
2515.84
2488.4
2457.99
2426.53
2395.72
2367.07
2341.79
2320.85
2304.97
2294.66
2290.15
2291.39
2297.97
2309.2
2324.06
2340.72
2356.8
2370.86
2381.79
2388.91
2391.99
2391.3
2387.41
2380.68
2371.55
2360.99
2351.08
2345.87
2351.91
2377.99
2433
2520
2622.41
2681.13
2657.38
2539.62
2359.67
2179.25
2059.47
2046.29
2168.66
2426.34
2792.23
3200.99
3552.79
3759.23
3798.26
3704.46
3535.65
3314.1
3056.21
2788.29
2540.23
2337.44
2193.41
2107.62
2069.44
2064.09
2077.36
2098.14
2119.46
2138.2
2153.86
2166.87
2179.02
2189.37
2196.98
2201.48
2203.66
2205.12
2207.68
2212.98
2221.77
2233.9
2247.34
2259.65
2267.04
2267.83
2261.08
2246.63
2225.23
2198.08
2166.42
2131.18
2092.78
2051.15
2005.83
1956.24
1901.8
1842.16
1777.4
1708.52
1637.25
1566.34
1499.6
1441.85
1399.4
1374.87
1367.34
1373.76
1390
1411.88
1435.96
1459.91
1482.59
1503.82
1524.11
1544.32
1565.35
1587.92
1612.17
1637.56
1662.73
1685.63
1703.79
1714.71
1716.26
1707.02
1686.36
1654.38
1611.83
1560.16
1501.67
1439.96
1380.35
1330.61
1301.85
1307.44
1359.17
1460.15
9542.93
4382.35
2555.83
1890.17
1629.03
1507.42
1436.04
1385
1344.12
1309.76
1279.89
1252.71
1226.78
1201.26
1175.78
1150.29
1124.97
1100.21
1076.45
1054.15
1033.7
1015.41
999.326
986.326
977.783
975.87
983.999
1007.23
1052.23
1126.14
1234.17
1376.5
1545.56
1723.87
1882.55
1985.06
1997.09
1904.78
1749.54
1736.03
1967.72
2182.7
2342.35
2449.77
2514.29
2545.82
2553.72
2545.57
2526.86
2501.35
2471.61
2439.55
2406.8
2374.9
2345.24
2318.96
2297
2280.24
2269.45
2265.17
2267.61
2276.51
2291.1
2310.15
2332.08
2354.05
2373.51
2388.84
2398.75
2402.44
2399.78
2391.42
2378.62
2362.81
2344.96
2325.58
2305.59
2287.39
2276.09
2280.52
2313.32
2388.56
2510.5
2641.95
2722.88
2709.5
2597.15
2442.45
2326.44
2312.93
2432.54
2673.74
2990.92
3303.25
3517.31
3580.3
3510.1
3357.84
3171.59
2960.18
2736.53
2522.06
2338.37
2200.34
2111.72
2066.18
2051.96
2056.27
2068.17
2080.46
2090.35
2098.47
2106.73
2116.12
2126.65
2135.4
2140.61
2141.63
2139.63
2136.66
2134.86
2136.45
2142.59
2153.33
2166.43
2178.25
2186.13
2187.66
2181.52
2167.77
2147.51
2122.39
2094.08
2063.87
2032.4
1999.67
1965
1927.28
1885.11
1837.09
1782.08
1719.82
1651
1577.24
1501.35
1427.33
1360.93
1308.07
1271.62
1251.95
1247.27
1254.46
1270.02
1290.76
1314.23
1338.83
1363.68
1388.45
1413.18
1438.01
1463.06
1488.19
1512.85
1535.9
1555.74
1570.35
1577.7
1576
1564.05
1541.45
1508.64
1466.97
1418.75
1367.31
1317.38
1275.65
1251.85
1258.77
1309.84
1410.51
10116.5
4045.01
2203.82
1721.86
1566.85
1490.48
1436.3
1391.19
1351.96
1317.61
1286.74
1257.54
1228.62
1199.35
1169.61
1139.63
1109.85
1080.83
1053.28
1027.92
1005.43
986.333
969.971
956.899
948.022
944.917
950.265
968.297
1004.93
1067.05
1160.54
1287.38
1442.86
1613.24
1774.07
1891.69
1930.22
1873.15
1778.16
1869.2
2114.01
2305.48
2431.08
2504.42
2539.3
2547.45
2538.15
2518
2491.37
2461.03
2428.83
2396.14
2364.22
2334.25
2307.34
2284.56
2267.06
2256.01
2252.45
2256.93
2269.34
2288.76
2313.62
2341.88
2371.25
2398.82
2422.84
2441.46
2452.86
2455.53
2448.8
2433.18
2410.52
2383.52
2354.45
2324.52
2294.24
2264.76
2239.56
2225.73
2233.97
2282.3
2389.85
2547.3
2707.4
2807.1
2795.1
2692.87
2587.25
2564.13
2661.87
2862.07
3106.54
3311.08
3401.89
3362.33
3234.59
3069.17
2888.69
2703.36
2520.94
2356.05
2222.7
2128.69
2073.18
2048.38
2043.5
2047.9
2053.37
2056.12
2056.96
2059.02
2064.61
2073.71
2083.81
2091.68
2094.87
2092.8
2086.61
2078.91
2072.36
2069.68
2072.55
2080.38
2091.26
2102.07
2109.23
2109.91
2102.72
2087.87
2066.8
2041.57
2014.19
1986.29
1958.79
1931.9
1905.13
1877.39
1847.03
1812.05
1770.28
1720.01
1660.58
1592.36
1517.02
1437.58
1358.6
1286.29
1225.73
1180.16
1150.64
1136.3
1135
1144.04
1160.74
1182.83
1208.48
1236.33
1265.34
1294.76
1324
1352.55
1379.82
1405.06
1427.19
1444.8
1456.25
1459.93
1454.55
1439.42
1414.72
1381.57
1342.04
1299.2
1257.21
1221.88
1201.67
1208.33
1255.74
1352.5
10221.3
3511.14
1946.7
1667.62
1576.24
1514.95
1462.6
1415.97
1374.39
1337.33
1303.18
1269.94
1236.31
1201.84
1166.57
1130.86
1095.34
1060.79
1028.16
998.354
972.395
952.373
937.425
926.772
920.327
919.105
925.369
942.864
976.924
1033.91
1119.56
1236.32
1380.74
1541.23
1696.22
1814.5
1861.39
1829.12
1808.97
1985.1
2217.98
2380.44
2475.4
2521.88
2535.73
2528.91
2509.86
2483.95
2454.47
2423.36
2391.82
2360.8
2331.21
2304.05
2280.45
2261.81
2249.74
2245.73
2250.68
2264.6
2286.49
2314.6
2346.7
2380.37
2413.22
2444.77
2474.24
2499.45
2517.63
2525.76
2521.34
2503.38
2473.39
2435.46
2394.03
2351.99
2310.22
2268.91
2230.29
2201.18
2189.36
2208.85
2284.4
2426.75
2623.68
2819.16
2929.68
2916.23
2837.89
2798.47
2855.97
2995.52
3154.82
3256.51
3250.8
3147.63
2996.5
2836.31
2678.3
2525.18
2380.9
2254.79
2157.64
2091.86
2055.51
2041.11
2039.3
2041.11
2040.28
2035.69
2030.64
2029.3
2033.16
2040.82
2048.48
2053.72
2054.1
2048.8
2038.77
2026.82
2016.43
2009.95
2009.13
2014.03
2022.65
2031.49
2036.69
2035.23
2025.76
2008.74
1985.97
1959.8
1932.51
1905.85
1880.88
1857.9
1836.58
1816.04
1794.84
1770.99
1742
1705.2
1658.52
1600.93
1532.67
1455.62
1373.25
1290.88
1214.27
1148.27
1096.17
1059.35
1037.56
1029.4
1032.91
1045.97
1066.54
1092.76
1122.93
1155.48
1189
1222.26
1254.18
1283.74
1309.94
1331.63
1347.54
1356.36
1356.91
1348.49
1331.06
1305.49
1273.56
1237.97
1202.41
1171.92
1153.83
1158.63
1199.93
1288.77
9788.14
2960.07
1841.48
1695.38
1621.79
1559.52
1503.65
1453.21
1407.74
1366.44
1327.57
1289.22
1250.29
1210.35
1169.5
1128.13
1086.99
1047.01
1009.26
974.743
944.706
923.464
912.879
905.731
902.439
904.262
913.432
933.347
968.8
1025.42
1108.13
1218.83
1354.06
1502.97
1645.56
1752.86
1796.12
1790.96
1858.28
2072.55
2282.11
2416.27
2486.8
2514.47
2515.26
2500.45
2477.31
2450.13
2421.24
2391.91
2362.82
2334.55
2307.78
2283.52
2263.22
2248.73
2241.91
2243.98
2255.05
2273.99
2298.88
2327.66
2358.59
2390.35
2421.55
2455.04
2490.18
2524.82
2555.67
2578.17
2587.08
2578.01
2549.57
2505.87
2453.67
2399.14
2345.53
2292.79
2240.78
2196.23
2167.92
2164.99
2203.78
2309.41
2498.48
2746.48
2972.28
3082.07
3065.92
3016.73
3022.54
3089.37
3161.35
3174.17
3099.14
2960.27
2803.48
2656.01
2522.26
2400.28
2290.58
2197.52
2125.08
2075.76
2049.15
2039.56
2039.09
2039.37
2034.95
2026.05
2017.28
2012.79
2013.13
2015.67
2017.07
2016.29
2011.86
2003.02
1990.64
1976.55
1963.52
1954.45
1951.3
1954.09
1960.58
1966.95
1969.19
1964.42
1951.6
1931.59
1906.56
1879.14
1851.74
1826.12
1803.27
1783.43
1766.28
1751.04
1736.51
1721.02
1702.32
1677.59
1643.92
1599
1541.58
1472.05
1392.74
1307.81
1222.76
1143.14
1073.58
1017.2
975.509
948.598
935.615
935.159
945.573
965.072
991.792
1023.8
1059.14
1095.91
1132.37
1166.99
1198.38
1225.32
1246.61
1261.11
1267.82
1266.06
1255.71
1237.38
1212.53
1183.47
1153.42
1126.78
1109.84
1111.82
1145.42
1223.07
8801.05
2580.55
1877.45
1761.18
1684.23
1617.13
1556.51
1501.36
1451.07
1404.72
1360.72
1317.41
1273.76
1229.31
1184.1
1138.57
1093.57
1050.26
1010.08
974.636
945.718
925.355
915.12
909.677
909.131
914.469
927.606
951.496
990.085
1047.77
1128.09
1231.88
1355.38
1488.42
1612.8
1703.1
1743.66
1781.72
1915.48
2132.3
2314.12
2423.88
2476.84
2492.98
2487.24
2469.73
2446.59
2421.19
2395.16
2369.18
2343.51
2318.41
2294.46
2272.8
2255.25
2243.94
2240.54
2245.42
2257.36
2274.07
2293.2
2313.44
2334.84
2358.46
2385.52
2418.66
2456.96
2499.37
2543.44
2584.45
2615.28
2627.56
2614.34
2576.48
2520.8
2456.46
2390.91
2327.02
2263.52
2204.12
2159.6
2137.89
2147.88
2211.42
2361.03
2609.2
2908.57
3150.14
3243.07
3216.41
3174.32
3165.22
3154.22
3093.7
2969.98
2811.08
2655.15
2520.93
2408.78
2313.79
2232.81
2164.92
2110.29
2071.46
2049.7
2041.62
2041.26
2041.65
2037.67
2028.82
2018.56
2010.04
2003.28
1996.24
1987.93
1978.39
1967.5
1954.85
1940.27
1924.98
1911.3
1901.82
1898.28
1900.35
1905.32
1909.04
1907.62
1898.62
1881.63
1858.06
1830.47
1801.71
1774.24
1749.74
1729.02
1712.15
1698.66
1687.73
1678.26
1668.88
1657.75
1642.42
1619.92
1587.24
1541.87
1482.68
1410.57
1328.39
1240.91
1153.74
1072.24
1000.7
942.003
897.591
867.753
851.983
849.276
858.298
877.443
904.842
938.396
975.867
1015.01
1053.73
1090.16
1122.66
1149.86
1170.58
1183.84
1188.98
1185.81
1174.72
1156.85
1134.12
1109.27
1086.09
1069.99
1068.9
1094.27
1158.8
7502.88
2366.38
1945.65
1839.47
1757.32
1685.17
1619.72
1559.81
1504.75
1453.76
1405.58
1358.79
1312.37
1265.8
1219
1172.37
1126.71
1083.23
1043.43
1008.88
981.085
961.418
951.485
947.695
949.862
958.829
976.14
1004.09
1045.56
1103.46
1179.72
1273.86
1381.61
1493.5
1594.38
1667.94
1719.31
1803.73
1969.01
2169.05
2323.47
2414.03
2455.81
2466.44
2459.15
2442.75
2422.45
2400.9
2379.22
2357.63
2336
2314.3
2292.99
2273.42
2257.7
2248.12
2245.99
2250.6
2259.47
2269.42
2278.12
2285.52
2294
2307.64
2330.64
2360.21
2396.23
2439.84
2490.61
2545.21
2596.59
2634.3
2645.9
2626.45
2579.17
2513.05
2438.61
2363.34
2289.68
2218.71
2157.46
2117.37
2105.48
2133.65
2232.55
2439.31
2752.28
3091.77
3324.44
3378.77
3319.83
3244.25
3158.53
3037.19
2876.86
2703.85
2548.34
2423.58
2327.66
2253.55
2194.7
2145.97
2104.84
2073.24
2053.6
2044.88
2043.3
2043.73
2041.64
2035.4
2026.18
2014.52
1998.71
1979.32
1959.44
1940.22
1921.96
1904.67
1888
1872.55
1859.99
1852.25
1850.35
1853.15
1857.24
1858.24
1852.62
1838.76
1817.07
1789.61
1759.36
1729.36
1702.03
1678.9
1660.53
1646.73
1636.8
1629.74
1624.46
1619.71
1614.02
1605.45
1591.48
1569.08
1535.02
1486.88
1424.07
1347.98
1262.39
1172.48
1083.85
1001.53
929.434
870.107
824.858
794.041
777.349
774.014
782.889
802.454
830.807
865.721
904.764
945.471
985.516
1022.83
1055.67
1082.61
1102.53
1114.7
1118.8
1115.02
1104.22
1087.9
1068.33
1048.72
1033.67
1029.93
1047.46
1098.42
6103.02
2274.66
2030.33
1925.99
1838.81
1762.38
1692.96
1629.26
1570.51
1516.21
1465.55
1417.4
1370.79
1325.1
1280.09
1235.91
1193.1
1152.61
1115.67
1083.66
1057.9
1039.43
1028.89
1026.58
1030.98
1042.72
1062.89
1093.01
1134.83
1189.81
1258.44
1339.18
1427.65
1516.14
1595.23
1661.2
1732.16
1847.11
2015.25
2189.79
2319.97
2396.75
2432.82
2442.66
2437.47
2424.85
2409.29
2392.97
2376.65
2360.23
2343.21
2325.19
2306.43
2288.29
2273.24
2263.94
2261.63
2264.99
2270.48
2274.08
2273.29
2268.92
2265.78
2272.76
2290.23
2312.1
2340.53
2378.53
2427.63
2486.31
2548.79
2604.71
2640.94
2646.3
2616.98
2558.37
2481.37
2396.88
2311.72
2228.64
2152.67
2095.09
2064.44
2066.27
2120.02
2266.42
2539.69
2912.14
3267.27
3458.9
3448.92
3338.12
3192.55
3019.87
2827.86
2640.08
2480.29
2358.4
2271.42
2210.87
2167.51
2133.13
2102.8
2076.97
2058.3
2047.55
2043.1
2041.65
2039.46
2033.95
2023.99
2008.29
1984.88
1955.88
1926.52
1899.4
1875.31
1854.2
1836.05
1821.4
1811.36
1807.06
1808.39
1813.04
1816.71
1814.88
1804.68
1785.52
1758.79
1727.26
1694.35
1663.29
1636.45
1615.1
1599.51
1589.13
1582.94
1579.7
1578.16
1577.14
1575.43
1571.56
1563.63
1548.95
1524.23
1486.28
1433.16
1364.89
1283.94
1194.74
1102.77
1013.44
931.406
860.079
801.637
757.198
727.092
711.094
708.541
718.353
739.011
768.556
804.655
844.757
886.278
926.793
964.165
996.627
1022.81
1041.77
1053
1056.48
1052.76
1042.97
1028.93
1013.28
999.844
994.296
1005.11
1043.28
4748.83
2286.71
2123.31
2018
1927.35
1848.3
1776.77
1711.36
1651.11
1595.59
1544.47
1497.03
1452.43
1410.08
1369.6
1330.86
1293.96
1259.31
1227.57
1199.61
1176.45
1159.05
1148.25
1146.94
1152.39
1165.02
1185.45
1214.48
1252.83
1300.85
1358.04
1422.55
1490.96
1559.01
1624.27
1691.78
1778.61
1902.63
2056.06
2203.49
2313.82
2381.82
2416.62
2429.2
2428.43
2421.27
2411.62
2401.33
2390.91
2380.04
2367.97
2354.03
2338.23
2321.75
2307.06
2296.88
2292.57
2293.07
2294.97
2294.32
2289.16
2280.64
2272.87
2271.26
2276.33
2286.78
2304.79
2333.78
2376.51
2433.1
2499.43
2566.17
2619.56
2645.18
2633.94
2586.3
2510.94
2419.87
2323.38
2227.41
2137.35
2063.53
2015.86
1997.15
2016.81
2105.85
2310.87
2651.13
3064.32
3401.14
3520.07
3437.06
3262.39
3050.38
2828.56
2621.9
2450.67
2323.17
2236.32
2180.97
2146.17
2121.48
2099.73
2079.15
2061.45
2048.29
2039.65
2033.85
2028.03
2019.27
2005.16
1983.87
1954.63
1920.71
1886.8
1855.61
1828.33
1805.39
1787.22
1774.51
1768.13
1768.4
1773.9
1780.81
1783.94
1778.91
1763.75
1738.99
1707.04
1671.39
1635.92
1604.06
1578.14
1559.19
1547.08
1540.78
1538.81
1539.6
1541.7
1543.9
1545.16
1544.47
1540.4
1530.88
1512.99
1483.37
1439.18
1379.09
1304.21
1218
1125.48
1032.18
943.199
862.634
793.38
737.216
695.031
667.071
653.097
652.447
664.021
686.245
717.082
754.129
794.779
836.422
876.636
913.327
944.813
969.865
987.726
998.127
1001.31
998.055
989.742
978.471
967.37
961.104
966.717
993.773
3583.26
2306.12
2213.01
2111.24
2021.33
1943.42
1873.19
1809.56
1751.18
1697.24
1647.7
1602.27
1560.51
1522.04
1486.61
1454.05
1424.25
1397.19
1372.96
1351.8
1334.12
1320.43
1311.3
1309.03
1314.1
1325.34
1343.06
1367.48
1398.7
1436.52
1480.25
1528.69
1580.46
1634.99
1694.28
1764.63
1855.43
1971.08
2101.04
2222.64
2317.15
2381.17
2417.54
2434.68
2440.47
2440.32
2437.47
2433.58
2429.14
2423.81
2416.76
2407.13
2394.61
2379.96
2365.17
2352.71
2344.22
2339.44
2336.11
2331.27
2323.16
2312.11
2300
2289.72
2283.09
2282.51
2291.04
2312.23
2349.02
2402.21
2468.58
2539.63
2601.77
2639.28
2639.96
2600.23
2525.81
2428.22
2319.81
2209.72
2105.03
2015.9
1952.66
1917.08
1911.67
1956.26
2091.76
2360.55
2755.81
3180.13
3464.67
3498.55
3354.63
3129.8
2884.2
2654.69
2463.66
2320.4
2223.15
2163.21
2128.95
2108.5
2092.6
2076.79
2060.79
2045.89
2032.87
2021.23
2009.16
1994.17
1973.93
1947.07
1914.38
1879.3
1844.76
1812.84
1784.89
1761.96
1745.13
1735.5
1733.78
1739.35
1749.15
1757.78
1759.42
1750.27
1729.51
1698.77
1661.35
1621.5
1583.65
1551.51
1527.32
1511.78
1504.19
1502.9
1505.89
1511.14
1516.96
1522.07
1525.58
1526.74
1524.63
1517.88
1504.24
1480.61
1443.74
1391.29
1323.04
1241.27
1150.26
1055.36
961.902
874.482
796.589
730.572
677.819
638.982
614.178
603.096
605.013
618.756
642.674
674.665
712.292
752.953
794.092
833.376
868.834
898.938
922.639
939.379
949.093
952.214
949.711
943.187
935.122
929.277
931.385
949.484
2719.96
2313.93
2283.99
2198.19
2122
2055.72
1995.78
1941.12
1890.25
1842.27
1797.05
1754.58
1714.87
1678.02
1644.24
1613.72
1586.57
1562.77
1542.22
1524.78
1510.32
1498.75
1490.09
1484.61
1487.41
1495.78
1509.24
1527.85
1551.56
1580.18
1613.44
1651.09
1693.27
1741.07
1797.09
1865.39
1949.79
2049.92
2157.69
2259.45
2344.64
2407.21
2445.02
2467.68
2480.28
2486.77
2489.84
2491.04
2491.01
2489.59
2486.08
2479.6
2469.62
2456.39
2441.18
2425.91
2412.27
2400.72
2390.32
2379.29
2366.22
2350.79
2333.86
2317.82
2304.44
2297.04
2299.6
2316.1
2349.61
2400.89
2466.74
2538.7
2603.09
2643.63
2646.74
2606.57
2526.67
2417.95
2294.19
2167.19
2046.27
1942.08
1864.44
1814.33
1789.75
1801.8
1880.63
2067.9
2393.21
2822.82
3231.06
3441.92
3409.25
3224.17
2978.46
2732.39
2519.2
2353.46
2236.87
2162.81
2120.3
2097.04
2082.3
2069.21
2055.06
2039.72
2023.77
2007.26
1989.26
1968.19
1942.48
1911.55
1876.76
1841.19
1806.82
1775.25
1747.89
1726.31
1712.2
1706.96
1710.91
1722.08
1735.5
1744.39
1742.91
1728.28
1700.82
1663.14
1619.48
1575.11
1535.23
1503.8
1482.87
1472.47
1471.06
1476.19
1485.13
1495.38
1505.01
1512.7
1517.65
1519.42
1517.63
1511.59
1499.81
1479.81
1448.17
1401.94
1339.81
1262.89
1174.61
1079.88
984.072
892.088
807.864
734.21
672.916
624.962
590.739
570.197
562.904
568.029
584.303
609.988
642.939
680.722
720.808
760.765
798.427
832.016
860.211
882.168
897.521
906.377
909.33
907.536
902.896
898.371
898.534
909.949
2318.46
2282.03
2296.44
2243.53
2199.71
2162.47
2128.24
2095.76
2063.29
2029.98
1995.68
1960.25
1923.8
1886.94
1850.61
1815.93
1784.01
1755.77
1731.72
1711.92
1696.21
1684.29
1675.79
1670.28
1667.4
1672.63
1682.51
1696.54
1714.77
1737.26
1764.15
1795.73
1832.69
1876.23
1928.17
1990.57
2064.64
2149.09
2238.82
2326.1
2407.08
2466.1
2505.94
2533.56
2551.94
2563.74
2571.05
2575.35
2577.44
2577.5
2575.13
2569.66
2560.48
2547.49
2531.3
2513.15
2494.44
2476
2457.8
2439.13
2419.2
2397.69
2375.29
2354.87
2338.2
2328.75
2330.45
2347.09
2381.42
2433.67
2499.92
2570.81
2631.85
2666.36
2660.54
2608.29
2513.04
2386.38
2243.6
2098.5
1962.23
1845.74
1757.41
1696.76
1659.89
1652.35
1695.47
1821
2065.16
2438.67
2879.71
3238.86
3368.14