/*--------------------------------*- C++ -*----------------------------------*\
| =========                 |                                                 |
| \\      /  F ield         | OpenFOAM: The Open Source CFD Toolbox           |
|  \\    /   O peration     | Version:  2112                                  |
|   \\  /    A nd           | Website:  www.openfoam.com                      |
|    \\/     M anipulation  |                                                 |
\*---------------------------------------------------------------------------*/
FoamFile
{
    version     2.0;
    format      ascii;
    arch        "LSB;label=32;scalar=64";
    class       volScalarField;
    location    "0.36";
    object      omegaU;
}
// * * * * * * * * * * * * * * * * * * * * * * * * * * * * * * * * * * * * * //

dimensions      [0 0 -1 0 0 0 0];

internalField   nonuniform List<scalar> 
12225
(
56302.3
79828.1
86641.2
86408.4
83636
80219.9
76911.7
73982.5
71490.6
69395
67620.5
66093.2
64753.2
63557.9
62472.8
61501.1
60534.8
59407.4
4494.74
10578.7
15770.2
19726.4
22525
24404.9
25610.7
26338.8
26735.5
26907.2
26929.5
26855.1
26720.5
26549.2
26358.1
26165.3
26063.3
26078.6
301.71
1082.52
2191.78
3455.25
4695.81
5798.8
6722.25
7475.88
8093.88
8615.11
9072.39
9490.41
9885.42
10267.1
10640.4
11009.5
11374.3
11696.2
54.5993
125.698
267.997
484.649
758.748
1057.69
1354.8
1634.33
1891.11
2129.14
2352.39
2563.99
2766.45
2961.68
3150.55
3333.47
3508.77
3666.19
40.6538
46.6898
61.8353
89.8982
132.319
186.548
248.744
315.446
383.875
451.247
517.227
581.61
644.74
707.234
768.697
828.489
885.635
937.151
39.8423
40.5096
42.1737
45.5265
51.1589
59.2569
69.6657
82.1066
96.2489
111.466
127.616
144.599
161.992
179.175
196.108
212.659
228.575
243.226
39.7434
39.9496
40.2886
40.8326
41.6815
42.9059
44.5322
46.5664
49.0142
51.8758
55.1658
58.8976
62.9749
67.1874
71.4563
75.6958
79.8133
83.6912
39.6982
39.8248
40.0007
40.2222
40.4961
40.8265
41.2102
41.646
42.1388
42.6956
43.3237
44.0299
44.8151
45.6672
46.5681
47.4951
48.4241
49.3293
39.6683
39.7565
39.8802
40.0314
40.2058
40.3976
40.5978
40.8006
41.0054
41.2149
41.4321
41.6599
41.9015
42.1586
42.4307
42.7161
43.0133
43.3156
39.6476
39.7092
39.7998
39.913
40.0437
40.1865
40.3339
40.4803
40.624
40.7659
40.9082
41.0537
41.2058
41.3676
41.5408
41.7262
41.9241
42.1311
39.6334
39.6748
39.7407
39.8264
39.927
40.0379
40.1534
40.2692
40.3834
40.4964
40.6095
40.7247
40.8447
40.972
41.1086
41.2559
41.4142
41.5814
39.6241
39.6516
39.6998
39.766
39.8455
39.9343
40.0279
40.1227
40.2172
40.3114
40.4062
40.5029
40.6032
40.709
40.8217
40.9422
41.0708
41.2061
39.6174
39.6343
39.6688
39.7195
39.7823
39.8536
39.9297
40.0076
40.086
40.1647
40.2443
40.3257
40.4101
40.4986
40.5922
40.6912
40.796
40.9053
39.6127
39.6205
39.643
39.68
39.728
39.7836
39.8439
39.9065
39.9701
40.0342
40.0993
40.1659
40.2347
40.3065
40.3817
40.4605
40.5429
40.628
39.6096
39.6105
39.6231
39.6484
39.6834
39.7254
39.7718
39.8206
39.8707
39.9214
39.9728
40.0251
40.0787
40.134
40.1913
40.2505
40.3116
40.3743
39.6074
39.6037
39.6094
39.6251
39.6493
39.6799
39.7146
39.7517
39.7901
39.829
39.8681
39.9073
39.9469
39.9868
40.0273
40.0685
40.1103
40.1525
39.6058
39.5994
39.6005
39.6097
39.6262
39.6482
39.6741
39.7022
39.7313
39.7606
39.7896
39.818
39.8457
39.8728
39.8994
39.9254
39.951
39.9761
39.6052
39.5974
39.5964
39.6023
39.6145
39.6314
39.6517
39.674
39.6969
39.7196
39.7416
39.7623
39.7817
39.7996
39.8161
39.8313
39.8452
39.8581
39.6059
39.5987
39.5979
39.6039
39.6158
39.6321
39.6512
39.6718
39.6926
39.7126
39.7313
39.7483
39.7632
39.7762
39.7872
39.7963
39.8038
39.81
39.6079
39.6036
39.6061
39.616
39.6323
39.6528
39.6759
39.6997
39.7231
39.7449
39.7646
39.7818
39.7965
39.8087
39.8185
39.8261
39.8317
39.8356
39.6108
39.6112
39.6197
39.6368
39.6605
39.6885
39.7186
39.7489
39.7778
39.8044
39.8279
39.8481
39.865
39.8787
39.8896
39.8979
39.9038
39.9074
39.6155
39.6242
39.6425
39.6701
39.7047
39.7437
39.7848
39.8254
39.8637
39.8986
39.9294
39.9558
39.9778
39.9959
40.0105
40.0223
40.0316
40.039
39.6244
39.6459
39.6784
39.7212
39.7721
39.8287
39.8879
39.9468
40.0034
40.0569
40.1068
40.1532
40.197
40.2393
40.2816
40.3259
40.3742
40.4284
39.6395
39.6801
39.7352
39.8049
39.8902
39.9928
40.1133
40.2525
40.4126
40.5961
40.8055
41.0431
41.3124
41.6179
41.9656
42.3616
42.8114
43.3208
39.6652
39.7475
39.8805
40.1025
40.4699
41.0397
41.8574
42.9528
44.3404
46.0174
47.9717
50.1892
52.6584
55.3728
58.3345
61.4767
64.7914
68.2747
39.7383
40.234
41.5446
44.2398
48.8947
55.9102
65.4351
77.3826
91.4542
107.125
123.983
141.683
159.957
178.619
197.561
216.332
234.927
253.358
41.1379
51.1043
74.163
114.631
174.167
251.713
343.842
445.988
553.225
660.784
765.877
866.776
962.649
1053.32
1139.15
1221.36
1300.53
1377.27
90.6175
297.92
643.696
1107.83
1647.23
2216.62
2777.8
3304.47
3782.43
4207.53
4580.34
4905.5
5189.74
5440.46
5664.92
5869.73
6060.21
6240.93
1859.05
4860.89
7894.3
10624.6
12910.3
14733.6
16149.1
17228.6
18040.2
18641.9
19079.6
19389.8
19601.1
19736.7
19815
19851.1
19857.2
19841.8
36980.9
56252.5
64448.5
66924.3
66730.8
65374
63564.8
61645.2
59783.2
58057.8
56499.2
55112.3
53887.8
52809.2
51856.2
51008.4
50243.9
49550.6
794.792
969.992
1231.01
1478.67
1689.93
1870.01
2031.94
2189.22
2348.15
2511.37
2682.11
2862.95
3055.61
3261.09
3479.86
3712.01
3957.61
4217.29
4492.32
4767.82
5007.67
5204.64
5350.01
5430.58
5431.33
5341.66
5150.88
4846.93
4423.23
3886.24
3265.71
2622.17
2027.04
1760.3
1729.49
1779.35
1863.04
1961.41
2068.74
2185.45
2314.08
2458.96
2626.52
2824.51
3061.16
3345.09
3685
4088.43
4559.25
5094.85
5684.32
6308.75
6943.36
7561.16
8136.51
8646.84
9073.34
9401.61
9621.46
9726.54
9714.11
9584.62
9341.15
8989.73
8540.06
8000.18
7428.58
6839.56
6245.51
5660.55
5099.27
4576.54
4107.34
3706.44
3388.18
3166.29
3053.98
3064.09
3205.98
3449.31
3784.79
4196.74
4661.33
5151.41
5640.08
6104.18
6528.65
6905.06
7229.3
7476.79
7591.65
7587.94
7488.41
7313.98
7070.45
6752.02
6367.73
5969.66
5662.59
5581.48
5857.61
6582.99
7777.5
9318.43
10811.1
12242.2
13539.6
14636.1
15491.3
16089.7
16427
16507.2
16340.9
15944.7
15334.2
14523.7
13572.2
12552.1
11475.9
10361.4
9229.09
8101.65
7009.25
5982.67
5053.44
4253.47
3613.26
3160.7
2921.82
2915.78
3161.46
3598.12
4185.68
4915.41
5756.8
6677.57
7642.73
8620.53
9580.52
10490
11318.6
12041.2
12639.4
13097.7
13355.8
13443.7
13398
13247.1
13013.5
12715.7
12369.7
11988.8
11583.8
11162.9
10732.4
10296.6
9858.31
9419.52
8982.33
8549
8122.15
7704.73
7298.76
6904.21
6519.28
6141.11
5767.29
5398.18
5040.12
4708.44
4425.71
4214.37
4089.03
4049.3
4080.11
4183.56
4349.57
4540.48
4709.86
4693.38
1563.26
1801.22
2009.36
2141.63
2210.44
2233.6
2225.55
2197.43
2157.5
2111.35
2062.48
2013.04
1964.48
1917.83
1873.96
1833.64
1797.76
1767.33
1743.82
1744.46
1799.67
1909.31
2068.95
2268.98
2493.36
2722.09
2934.28
3107.2
3218.11
3247.02
3179.66
3009.06
2734.38
2398.81
1992.31
1711.79
1592.92
1530.2
1503.01
1504.23
1533.39
1594.25
1692.19
1831.59
2014
2236.82
2492.11
2766.59
3043.15
3303.38
3529.87
3708.24
3828.7
3886.79
3882.79
3820.75
3708.49
3557.25
3380.89
3194.92
3015.63
2858.72
2737.86
2663.13
2638.83
2668.71
2701.5
2733.39
2763.13
2789.24
2809.93
2823.17
2826.79
2818.03
2793.41
2748.54
2677.78
2574.07
2428.81
2262.2
2089.12
1914.15
1750.76
1612.08
1507.85
1443.8
1417.89
1427.53
1476.82
1585.07
1775.4
1999.16
2228.19
2472.2
2771.65
3161.96
3625.12
4133.36
4681.18
5287.74
5963.03
6653.49
7156.23
7436.89
7495.34
7340.76
6994.54
6495.52
5896.04
5227.88
4546.19
3910.74
3368.83
2952.44
2677.48
2544.4
2494.33
2453.97
2421.52
2397.13
2384.31
2387.75
2392.6
2395.98
2397.33
2396.32
2392.77
2386.28
2376.66
2363
2344.54
2325.62
2307.35
2291.62
2281.11
2282.08
2320.65
2397.67
2494.11
2607.15
2737.27
2884.23
3047.11
3233.65
3479.25
3738
3977.72
4184.51
4353.25
4483.73
4578.53
4641.35
4675.71
4684.11
4667.72
4626.44
4558.92
4462.98
4336.88
4180.86
3998.35
3796.45
3584.37
3372.43
3170.05
2983.69
2814.68
2659.16
2511.52
2368.2
2230.41
2104.78
2003.02
1937.59
1913.3
1914.6
1933.96
1969.14
2020.92
2113.98
2919.56
2813.72
2756.26
2658.47
2533.26
2398.99
2268.05
2146.72
2037.57
1940.93
1856
1781.46
1715.92
1658.13
1607.06
1561.96
1522.34
1488.01
1459.01
1435.81
1423.15
1426
1452.72
1512.11
1610.57
1749.5
1923.86
2121.66
2324.99
2511.98
2658.64
2739.83
2729.24
2610.04
2358.23
2027.11
1653.72
1465.46
1362.74
1321.39
1334.3
1398.51
1510.31
1662.56
1844.31
2041.89
2240.62
2426.58
2588.12
2716.97
2808.65
2862.25
2880.23
2868.33
2834.65
2788.22
2737.81
2691.18
2654.32
2630.77
2621.49
2625.1
2638.59
2658.16
2680.36
2703.34
2728.81
2756.09
2784.4
2812.85
2840.44
2865.97
2888.16
2905.73
2916.81
2918.53
2906.32
2872.93
2806.74
2687.99
2524.17
2323.85
2094.36
1855.24
1628.24
1431.13
1274.51
1163.62
1102.05
1095.71
1159.58
1319.58
1590.96
1985.4
2501.1
3106.66
3742.03
4347.78
4893.59
5365.14
5703.59
5815.12
5718.42
5441.92
5023.23
4513.21
3969.27
3447.87
2995.41
2639.47
2391.71
2244.5
2177.09
2163.97
2181.72
2213.63
2245.27
2275.06
2302.66
2328.03
2351.22
2372.15
2390.49
2405.7
2416.73
2422.38
2421.53
2412.8
2394.35
2364.11
2327.32
2288.61
2246.3
2201.71
2156.48
2111.87
2069.81
2032.44
2001.96
1980.31
1969.03
1969.24
1981.27
2004.65
2045.66
2112.35
2195.13
2286.72
2380.47
2471.39
2556.42
2634.21
2704.59
2767.8
2823.86
2871.95
2910.07
2934.99
2942.83
2929.92
2893.85
2834.3
2753.52
2656.37
2549.32
2439.03
2330.76
2227.28
2128.82
2034
1940.97
1848.39
1756.2
1667.66
1592.74
1540.32
1519.42
1539.48
1604.99
1718.12
4396.89
3638.13
3208.38
2851.62
2548.49
2297.56
2094.24
1931.4
1801.43
1697.11
1612.54
1543.03
1484.99
1435.73
1393.25
1356.15
1323.51
1294.75
1269.65
1248.28
1232.91
1225.05
1227.29
1244.25
1282.61
1349.98
1452.63
1592.74
1766.09
1961.27
2160.26
2338.87
2466.38
2508.69
2427.38
2215.91
1898.15
1575.54
1362.5
1297.12
1330.51
1439.71
1597.31
1778.53
1963.78
2138
2290.91
2416.61
2512.74
2579.73
2620.22
2638.36
2639.18
2627.9
2609.7
2589.21
2569.86
2553.73
2541.76
2534.11
2530.5
2530.58
2534.11
2541.02
2551.29
2565.03
2582.08
2601.52
2622.47
2644.12
2665.89
2687.39
2708.23
2728.64
2749.06
2769.66
2789.97
2807.93
2818.11
2808.47
2753.65
2640.69
2468.4
2245.59
1996.97
1753.42
1541.19
1377.71
1274.77
1243.41
1300.4
1471.27
1778.14
2232.19
2809.85
3438.34
4020.68
4488.45
4818.51
4983.68
4954.12
4757.42
4426.84
4006.7
3550.1
3111.11
2734.74
2448.5
2259
2155.09
2115.82
2118.09
2142.62
2176.22
2211.36
2243.95
2273.24
2299.27
2322.39
2343.15
2362
2379.25
2394.68
2407.62
2417.13
2421.9
2420.16
2410.02
2389.61
2358.25
2322.1
2280.21
2233.73
2184.04
2131.94
2078.08
2023.42
1969.35
1917.75
1871.25
1832.66
1804.56
1788.98
1786.97
1798.43
1822.9
1854.69
1890.9
1929.18
1967.68
2005.26
2041.62
2077.3
2113.38
2151.05
2191.07
2233.21
2275.94
2316.44
2350.75
2374.45
2383.5
2375.2
2348.88
2305.99
2249.71
2184.1
2112.93
2038.78
1962.59
1883.78
1801.18
1714.63
1626.8
1544.28
1476.83
1438.14
1441.91
1495.58
1597.89
5893.09
4210.56
3349.73
2760.97
2344.58
2049.96
1840.46
1689.54
1578.58
1494.99
1430.26
1378.57
1335.94
1299.67
1267.91
1239.45
1213.51
1189.66
1167.72
1147.74
1131.01
1119.16
1113.41
1115.98
1130.62
1163.03
1220.42
1309.9
1435.82
1596.94
1784.68
1982.38
2164.29
2295.67
2333.96
2248.69
2037.89
1753.15
1474.84
1352.14
1431.08
1596.36
1792
1984.09
2154.6
2295.95
2405.71
2485.19
2537.8
2567.8
2579.67
2577.78
2566.19
2548.28
2526.73
2503.73
2481.14
2460.28
2442.12
2427.44
2416.92
2411.08
2410.23
2414.38
2423.18
2435.9
2450.85
2466.99
2483.35
2499.12
2513.8
2527.06
2538.74
2549.47
2560.61
2573.97
2591.9
2616.79
2649.87
2688.73
2722.6
2722.84
2657.98
2517.92
2313.15
2075.19
1844.23
1654.25
1530.28
1493.26
1566.32
1770.82
2117.81
2598.74
3159.91
3700.79
4121.42
4377.26
4464.05
4389.96
4185.08
3878.94
3510.24
3125.75
2771.76
2483.81
2279.4
2156.99
2101.45
2092.3
2110.48
2141.63
2176.54
2209.92
2239.04
2263.99
2285.29
2303.36
2318.91
2332.76
2345.6
2358.07
2370.51
2382.56
2393.13
2400.55
2402.39
2396.41
2379.98
2355.9
2323.92
2285.02
2240.37
2191.14
2138.15
2082.02
2023.31
1962.69
1900.95
1839.48
1780.71
1727.6
1683.59
1652.13
1636.01
1637.42
1653.18
1677.7
1706.52
1735.99
1763.69
1788.48
1810.47
1830.71
1850.85
1872.75
1897.95
1927.19
1960.15
1995.14
2029.25
2058.82
2080.04
2089.68
2085.74
2067.76
2036.69
1994.35
1942.67
1883
1815.94
1741.78
1661.63
1578.89
1500.19
1435.05
1394.65
1393.14
1440.77
1537.44
7322.02
4513.53
3228.17
2490.82
2053.17
1787.25
1619.61
1508.63
1430.97
1373.62
1329.16
1293.01
1262.16
1234.75
1209.57
1185.89
1163.34
1141.75
1121.13
1101.61
1083.82
1068.85
1057.65
1051.79
1053.75
1067.44
1098.52
1154.17
1241.55
1365.11
1523.68
1708.27
1900.38
2070.73
2179.46
2188.08
2076.62
1863.75
1606.16
1462.76
1594.41
1802.36
2008.74
2185.38
2324.79
2427.12
2496.25
2537.91
2557.93
2561.42
2552.61
2535.03
2511.61
2484.71
2456.24
2427.92
2401.36
2377.82
2358.33
2343.64
2334.25
2330.36
2331.87
2338.34
2349.04
2362.85
2377.69
2392.33
2405.73
2417.11
2426.02
2432.25
2435.81
2436.9
2436.44
2436.23
2439.16
2449.56
2472.78
2513.73
2573.47
2642.17
2683.75
2651.92
2534.77
2346.07
2128.89
1933.69
1802.58
1768.6
1860.03
2090.54
2455.61
2920.27
3403.13
3796.33
4026.54
4086.43
4003.79
3820.35
3558.25
3246.75
2923.35
2626.93
2387.89
2220.7
2123.15
2081.56
2078.11
2096.49
2124.47
2154.29
2181.76
2205.12
2223.9
2239.99
2253.17
2263.63
2271.82
2278.8
2285.95
2294.51
2305.12
2317.61
2330.44
2341.53
2347.7
2346.51
2337.28
2319.77
2294.46
2262.3
2224.37
2181.61
2134.64
2083.76
2029.1
1970.78
1909.03
1844.25
1777.52
1710.76
1646.72
1589.03
1541.88
1509.86
1497
1500.6
1516.52
1539.99
1566.55
1592.83
1616.85
1638
1656.78
1674.42
1692.54
1712.61
1735.67
1761.91
1790.53
1819.62
1846.47
1867.96
1881.12
1883.66
1874.3
1852.77
1819.55
1775.43
1721.33
1658.39
1588.61
1515.56
1445.13
1386.59
1351.66
1352.08
1399.13
1494.92
8572.83
4553.69
2928.1
2165.26
1792.73
1598.49
1486.55
1414.05
1361.87
1321.35
1288.14
1259.51
1233.64
1209.29
1185.7
1162.6
1139.95
1117.85
1096.53
1076.23
1057.25
1040.29
1025.84
1015.07
1009.84
1013.01
1028.92
1063.69
1124.63
1218.43
1348.29
1510.92
1694.22
1875.38
2019.99
2088.95
2052.31
1907.59
1696.73
1595.6
1783.58
2007.13
2198
2342.89
2444.21
2508.07
2542.31
2554.54
2550.98
2536.26
2513.83
2486.31
2455.78
2424.15
2393.13
2364.2
2338.59
2317.25
2300.96
2290.24
2285.37
2286.31
2292.7
2303.84
2318.7
2335.64
2352.08
2366.56
2377.93
2385.46
2388.9
2388.49
2384.83
2378.33
2369.45
2359.03
2348.96
2342.95
2347.17
2370.22
2421.25
2504.83
2608.84
2678.05
2668.07
2563.02
2388.54
2204.42
2073.35
2043.61
2146.68
2386.11
2738.58
3144.45
3508.03
3737.88
3802.56
3728.47
3568.99
3352.25
3094.32
2822.17
2567.07
2356.2
2204.7
2113.02
2070.71
2062.71
2074.34
2094.16
2114.97
2133.52
2149.23
2162.59
2175.12
2186.12
2194.49
2199.75
2202.53
2204.36
2207.06
2212.32
2221.01
2233.14
2246.86
2259.78
2268.08
2269.85
2264.1
2250.53
2229.86
2203.29
2172.1
2137.29
2099.38
2058.34
2013.75
1964.99
1911.46
1852.74
1788.82
1720.57
1649.59
1578.45
1510.81
1451.35
1406.42
1379.28
1369.45
1374.17
1389.39
1410.87
1434.99
1459.25
1482.33
1503.94
1524.52
1544.9
1566.03
1588.63
1612.9
1638.33
1663.61
1686.72
1705.19
1716.5
1718.5
1709.72
1689.47
1657.85
1615.59
1564.11
1505.68
1443.84
1383.78
1333.13
1302.75
1305.92
1354.49
1452.33
9533.4
4377.87
2553.92
1889.26
1628.43
1506.88
1435.46
1384.35
1343.38
1308.93
1278.98
1251.72
1225.74
1200.18
1174.69
1149.22
1123.94
1099.25
1075.59
1053.4
1033.08
1014.91
998.932
986.003
977.484
975.535
983.553
1006.59
1051.32
1124.91
1232.62
1374.71
1543.73
1722.27
1881.47
1984.62
1997.1
1904.57
1747.76
1730.96
1962.16
2177.45
2337.58
2445.45
2510.41
2542.36
2550.64
2542.83
2524.38
2499.04
2469.38
2437.32
2404.48
2372.42
2342.52
2315.93
2293.63
2276.49
2265.33
2260.73
2262.92
2271.68
2286.24
2305.4
2327.51
2349.95
2369.99
2385.97
2396.54
2400.85
2398.68
2390.63
2377.94
2362.12
2344.25
2324.9
2304.92
2286.4
2273.99
2275.95
2304.36
2373.64
2490.52
2625.75
2717.12
2718.95
2618.18
2464.55
2338.95
2308.86
2409.7
2634.99
2943.73
3259.98
3491.08
3577.5
3527.72
3387.59
3205.33
2994.87
2768.29
2547.97
2357.07
2212.03
2117.68
2068.04
2051.12
2053.76
2064.68
2076.45
2086.1
2094.19
2102.58
2112.23
2123.34
2132.87
2138.99
2140.85
2139.44
2136.76
2134.92
2136.21
2141.93
2152.33
2165.5
2177.7
2186.3
2188.74
2183.53
2170.59
2150.92
2126.19
2098.11
2068.05
2036.8
2004.41
1970.3
1933.4
1892.32
1845.6
1792.03
1731.14
1663.5
1590.55
1514.92
1440.43
1372.61
1317.65
1278.81
1256.85
1250.27
1256.08
1270.75
1291.02
1314.28
1338.82
1363.67
1388.47
1413.22
1438.08
1463.18
1488.4
1513.2
1536.48
1556.64
1571.67
1579.51
1578.34
1566.91
1544.77
1512.33
1470.89
1422.73
1371.15
1320.78
1278.19
1252.92
1257.53
1305.5
1402.9
10106
4040.88
2202.38
1721.18
1566.29
1489.88
1435.6
1390.37
1351.01
1316.53
1285.53
1256.22
1227.21
1197.88
1168.11
1138.12
1108.38
1079.44
1051.99
1026.78
1004.47
985.546
969.341
956.386
947.572
944.464
949.733
967.601
1003.99
1065.81
1158.99
1285.61
1441.01
1611.6
1772.92
1891.21
1930.32
1872.95
1775.4
1861.97
2106.85
2298.99
2425.38
2499.47
2535.03
2543.77
2534.95
2515.18
2488.83
2458.68
2426.56
2393.86
2361.84
2331.7
2304.55
2281.48
2263.64
2252.25
2248.36
2252.56
2264.75
2284.08
2308.98
2337.42
2367.12
2395.19
2419.88
2439.35
2451.73
2455.43
2449.62
2434.64
2412.26
2385.17
2355.81
2325.59
2295.13
2265.37
2239.45
2223.94
2228.7
2270.76
2370.1
2523.85
2687.33
2799.82
2803.85
2709.48
2598.37
2560.22
2640.67
2827.92
3068.68
3281.93
3391.35
3371.89
3258.26
3099.34
2920.57
2733.19
2546.39
2375.35
2235.53
2135.9
2076.13
2048.44
2041.75
2045.07
2049.98
2052.47
2053.21
2055.27
2061
2070.4
2081.16
2089.88
2094.05
2092.84
2087.26
2079.78
2073.05
2069.82
2072.01
2079.29
2089.92
2100.93
2108.7
2110.25
2103.96
2089.88
2069.36
2044.4
2017.11
1989.18
1961.64
1934.81
1908.29
1881.07
1851.59
1817.87
1777.72
1729.27
1671.68
1605.12
1531.03
1452.22
1373.02
1299.56
1237.18
1189.42
1157.69
1141.38
1138.47
1146.28
1162.1
1183.54
1208.73
1236.25
1265.05
1294.34
1323.55
1352.15
1379.56
1405.04
1427.49
1445.52
1457.48
1461.73
1456.92
1442.34
1418.08
1385.23
1345.83
1302.89
1260.52
1224.44
1202.9
1207.44
1251.9
1345.31
10209.8
3507.44
1945.62
1667.05
1575.65
1514.26
1461.77
1414.96
1373.21
1335.96
1301.63
1268.23
1234.48
1199.91
1164.57
1128.85
1093.35
1058.89
1026.38
996.746
970.996
951.213
936.468
925.969
919.619
918.418
924.619
941.964
975.792
1032.5
1117.85
1234.4
1378.76
1539.46
1694.97
1814
1861.49
1828.39
1803.91
1976.52
2209.98
2373.47
2469.47
2516.88
2531.5
2525.31
2506.73
2481.19
2451.96
2421
2389.53
2358.49
2328.82
2301.49
2277.66
2258.73
2246.31
2241.91
2246.46
2260.01
2281.6
2309.5
2341.52
2375.26
2408.38
2440.19
2470.19
2496.26
2515.67
2525.34
2522.58
2506.13
2477.12
2439.47
2397.73
2355.17
2312.97
2271.31
2232.03
2201.47
2187.15
2201.65
2268.77
2402.45
2594.59
2795.45
2921.68
2923.25
2846.88
2796.39
2838.92
2968.41
3127.56
3240.23
3251.88
3164.22
3021.96
2864.84
2706.32
2550.29
2401.33
2269.29
2166.55
2096.39
2056.84
2040.35
2037.24
2038.32
2037.18
2032.48
2027.39
2026.07
2030.12
2038.19
2046.53
2052.61
2053.89
2049.41
2039.98
2028.15
2017.49
2010.35
2008.69
2012.85
2021.05
2029.96
2035.69
2035.04
2026.44
2010.16
1987.87
1961.91
1934.61
1907.82
1882.67
1859.56
1838.25
1817.94
1797.27
1774.37
1746.79
1711.85
1667.32
1611.95
1545.73
1470.24
1388.72
1306.26
1228.67
1161.03
1106.89
1067.94
1044.15
1034.23
1036.27
1048.12
1067.72
1093.16
1122.74
1154.87
1188.16
1221.34
1253.31
1283.07
1309.57
1331.67
1348.09
1357.48
1358.64
1350.81
1333.9
1308.72
1277
1241.4
1205.57
1174.45
1155.22
1158.15
1196.71
1282.23
9775.65
2956.88
1840.7
1694.86
1621.15
1558.72
1502.66
1452.01
1406.3
1364.76
1325.66
1287.12
1248.01
1207.95
1167.01
1125.61
1084.49
1044.59
1006.98
972.651
942.828
921.83
911.503
904.546
901.366
903.224
912.338
932.107
967.337
1023.69
1106.14
1216.67
1351.9
1501.09
1644.28
1752.39
1795.97
1788.74
1850.73
2063.28
2273.88
2409.33
2481.03
2509.66
2511.21
2496.98
2474.27
2447.39
2418.72
2389.52
2360.5
2332.23
2305.41
2281.03
2260.52
2245.7
2238.45
2240.04
2250.61
2269.07
2293.54
2321.96
2352.61
2384.16
2415.27
2448.57
2483.79
2518.91
2550.77
2574.94
2586.17
2579.72
2553.61
2511.33
2459.43
2404.42
2350.13
2296.97
2244.49
2198.49
2167.9
2161.29
2193.57
2288.99
2467.22
2711.01
2945.81
3073.94
3069.75
3017.2
3011.6
3070.87
3144.68
3168.53
3108.06
2980.31
2828.67
2682.03
2546.53
2421.11
2306.76
2208.55
2131.73
2078.98
2049.83
2038.51
2036.97
2036.72
2032.12
2023.21
2014.48
2010.14
2010.83
2013.95
2016.05
2015.93
2012.18
2003.95
1992
1978.02
1964.68
1954.91
1950.85
1952.81
1958.84
1965.25
1967.99
1963.99
1952
1932.66
1908.04
1880.75
1853.26
1827.42
1804.31
1784.25
1766.98
1751.77
1737.5
1722.6
1704.94
1681.79
1650.2
1607.71
1552.81
1485.58
1407.99
1323.97
1238.86
1158.32
1087.19
1028.86
985.083
956.15
941.311
939.207
948.187
966.468
992.187
1023.42
1058.21
1094.67
1131.03
1165.72
1197.35
1224.66
1246.43
1261.48
1268.8
1267.66
1257.88
1240.02
1215.48
1186.53
1156.34
1129.22
1111.36
1111.74
1142.9
1217.37
8787.51
2578.22
1876.93
1760.64
1683.53
1616.23
1555.37
1499.96
1449.38
1402.75
1358.47
1314.93
1271.08
1226.49
1181.18
1135.61
1090.63
1047.41
1007.38
972.126
943.431
923.295
913.291
908.024
907.579
912.938
926.017
949.77
988.164
1045.63
1125.76
1229.48
1353.1
1486.54
1611.59
1702.58
1742.48
1776.92
1906.47
2122.89
2306.05
2417.21
2471.34
2488.4
2483.34
2466.32
2443.54
2418.4
2392.55
2366.71
2341.15
2316.12
2292.17
2270.44
2252.69
2241.03
2237.18
2241.56
2253.03
2269.32
2288.09
2307.94
2328.89
2352.03
2378.49
2410.99
2448.78
2490.91
2535.18
2577.22
2610.19
2625.68
2616.15
2581.37
2527.43
2463.4
2397.3
2332.78
2268.93
2208.39
2161.55
2136.77
2142.1
2196.94
2333.49
2569.5
2867.09
3122.66
3235.59
3217.38
3170.25
3156.03
3147.42
3096.46
2983.99
2832.62
2679.29
2544.4
2429.75
2331.11
2245.82
2173.71
2115.65
2074.12
2050.28
2040.69
2039.35
2039.21
2035.04
2026.26
2016.28
2008.23
2002.12
1995.79
1988.04
1978.87
1968.3
1955.96
1941.59
1926.28
1912.23
1902.05
1897.62
1898.92
1903.51
1907.37
1906.49
1898.25
1882.03
1859.04
1831.75
1803.03
1775.39
1750.61
1729.58
1712.44
1698.76
1687.76
1678.39
1669.33
1658.88
1644.72
1623.96
1593.58
1550.9
1494.45
1424.75
1344.31
1257.66
1170.37
1087.91
1014.79
954.164
907.684
875.8
858.099
853.621
861.06
878.83
905.09
937.763
974.621
1013.42
1052.03
1088.56
1121.34
1148.96
1170.19
1184.04
1189.8
1187.22
1176.66
1159.2
1136.7
1111.85
1088.38
1071.57
1069.19
1092.46
1154.09
7489.49
2364.44
1945.19
1838.93
1756.58
1684.19
1618.46
1558.24
1502.85
1451.55
1403.06
1356.02
1309.39
1262.66
1215.77
1169.09
1123.45
1080.06
1040.39
1006.01
978.416
958.959
949.172
945.53
947.782
956.765
974.027
1001.88
1043.21
1100.98
1177.16
1271.34
1379.31
1491.63
1593.02
1666.59
1716.1
1796.71
1959.39
2159.85
2315.72
2407.65
2450.51
2461.96
2455.25
2439.27
2419.26
2397.94
2376.44
2355.03
2333.57
2312.02
2290.82
2271.26
2255.38
2245.47
2242.92
2247.15
2255.78
2265.59
2274.17
2281.34
2289.35
2302.2
2324.29
2353.02
2388.05
2430.61
2480.55
2535.03
2587.5
2627.94
2643.64
2628.55
2584.71
2520.44
2446.36
2370.61
2296.42
2224.71
2161.54
2118.38
2102.76
2124.68
2211.9
2402.71
2703.74
3046.15
3298.65
3373.77
3321.06
3243.99
3160.66
3046.66
2894.36
2726.07
2571.38
2444.92
2346.01
2268.23
2205.52
2153.36
2109.54
2075.8
2054.44
2044.38
2041.88
2041.74
2039.41
2033.28
2024.51
2013.69
1999.02
1980.34
1960.77
1941.62
1923.3
1905.93
1889.15
1873.48
1860.45
1852
1849.3
1851.5
1855.44
1856.75
1851.78
1838.7
1817.71
1790.72
1760.66
1730.58
1703
1679.53
1660.81
1646.72
1636.58
1629.42
1624.14
1619.56
1614.29
1606.51
1593.86
1573.4
1541.88
1496.64
1436.68
1362.99
1279
1189.75
1100.82
1017.42
943.688
882.406
835.077
802.187
783.51
778.328
785.534
803.644
830.794
864.786
903.199
943.562
983.521
1020.97
1054.13
1081.51
1101.97
1114.74
1119.43
1116.22
1105.89
1089.91
1070.49
1050.76
1035.23
1030.49
1046.31
1094.72
6090.38
2273.74
2029.93
1925.46
1838.05
1761.34
1691.61
1627.58
1568.49
1513.86
1462.88
1414.47
1367.64
1321.79
1276.68
1232.45
1189.66
1149.22
1112.38
1080.51
1054.89
1036.56
1026.11
1023.93
1028.41
1040.17
1060.32
1090.39
1132.15
1187.09
1255.73
1336.59
1425.27
1514.03
1593.12
1658.19
1726.71
1838.7
2005.59
2180.94
2312.49
2390.51
2427.53
2438.08
2433.39
2421.12
2405.81
2389.7
2373.59
2357.39
2340.62
2322.89
2304.38
2286.35
2271.23
2261.67
2259.01
2262.12
2267.61
2271.43
2270.93
2266.65
2263.03
2268.8
2285.51
2306.53
2333.71
2370.18
2417.7
2475.23
2537.6
2595.04
2634.65
2644.66
2620
2564.83
2489.56
2405.36
2319.82
2236.1
2158.6
2098.06
2063.94
2061.25
2106.37
2237.57
2492.98
2856.02
3220.98
3438.31
3449.45
3344.43
3202.31
3034.95
2848.18
2662.94
2502.64
2378.29
2287.96
2223.75
2176.93
2139.68
2107.19
2079.69
2059.61
2047.73
2042.43
2040.43
2038.03
2032.71
2023.37
2008.7
1986.58
1958.19
1928.89
1901.53
1877.07
1855.56
1837
1821.86
1811.2
1806.17
1806.83
1811.14
1814.95
1813.71
1804.31
1785.96
1759.87
1728.7
1695.84
1664.57
1637.37
1615.62
1599.65
1588.99
1582.61
1579.27
1577.72
1576.8
1575.33
1571.97
1564.96
1551.8
1529.27
1494.09
1443.99
1378.57
1299.86
1212.02
1120.41
1030.55
947.258
874.195
813.749
767.203
735
716.988
712.556
720.671
739.858
768.198
803.389
842.888
884.099
924.564
962.105
994.908
1021.56
1041.07
1052.87
1056.93
1053.73
1044.36
1030.59
1014.98
1001.29
995.034
1004.5
1040.55
4737.83
2285.9
2122.93
2017.49
1926.6
1847.26
1775.39
1709.65
1649.07
1593.22
1541.79
1494.08
1449.28
1406.77
1366.18
1327.37
1290.45
1255.82
1224.13
1196.25
1173.17
1155.85
1145.11
1143.91
1149.43
1162.1
1182.55
1211.57
1249.91
1297.93
1355.16
1419.72
1488.16
1556.05
1620.69
1686.75
1771.41
1893.59
2046.63
2194.92
2306.4
2375.42
2411.03
2424.23
2423.91
2417.06
2407.65
2397.58
2387.4
2376.82
2365.12
2351.59
2336.19
2319.99
2305.37
2295.05
2290.5
2290.83
2292.83
2292.55
2287.82
2279.51
2271.49
2269.05
2273.36
2282.87
2299.56
2326.84
2367.6
2422.39
2487.7
2554.89
2610.7
2640.57
2634.41
2591.29
2518.95
2429.19
2332.78
2236.29
2144.88
2068.29
2017.2
1994.86
2008.51
2085.74
2272.34
2594.82
3003.73
3358.63
3508.33
3443.87
3277.16
3070.08
2851.56
2645.8
2473.03
2342.45
2251.92
2192.88
2154.82
2127.6
2104.05
2082.13
2063.34
2049.26
2039.91
2033.65
2027.71
2019.24
2005.84
1985.54
1957.28
1923.73
1889.69
1858.09
1830.26
1806.71
1787.89
1774.48
1767.32
1766.83
1771.82
1778.7
1782.33
1778.18
1763.99
1740.08
1708.7
1673.29
1637.71
1605.49
1579.1
1559.67
1547.16
1540.59
1538.47
1539.21
1541.34
1543.63
1545.07
1544.69
1541.25
1532.84
1516.71
1489.54
1448.3
1391.28
1319.1
1234.84
1143.3
1050
960.189
878.172
807.065
748.837
704.519
674.454
658.467
655.951
665.852
686.643
716.327
752.525
792.63
834.017
874.227
911.122
942.97
968.495
986.895
997.856
1001.58
998.799
990.848
979.767
968.601
961.892
966.515
991.879
3574.68
2305.31
2212.58
2110.72
2020.61
1942.44
1871.9
1807.94
1749.25
1695.02
1645.2
1599.52
1557.54
1518.89
1483.33
1450.67
1420.81
1393.71
1369.47
1348.34
1330.71
1317.1
1308.05
1305.68
1310.79
1322.07
1339.79
1364.2
1395.39
1433.15
1476.78
1525.05
1576.51
1630.47
1688.79
1757.77
1847.1
1961.8
2091.74
2214.02
2309.38
2374.17
2411.26
2428.93
2435.13
2435.31
2432.75
2429.13
2425
2420.05
2413.47
2404.39
2392.45
2378.28
2363.78
2351.39
2342.82
2337.96
2334.73
2330.18
2322.43
2311.63
2299.53
2288.89
2281.59
2279.99
2287.11
2306.47
2341.16
2392.27
2457.15
2528.01
2591.87
2633.12
2638.84
2604.17
2533.67
2438.28
2330.52
2220.07
2114.07
2022.27
1955.57
1916.79
1907.09
1943.27
2063.46
2312.18
2692.25
3119.43
3430.11
3495.07
3368.51
3151.87
2909.57
2680.15
2486.9
2340.07
2238.79
2175
2137.47
2114.58
2097.02
2080.08
2063.24
2047.66
2034.11
2022.15
2010.04
1995.38
1975.76
1949.65
1917.46
1882.47
1847.69
1815.32
1786.76
1763.12
1745.47
1734.94
1732.31
1737.13
1746.64
1755.61
1758.14
1750.14
1730.49
1700.62
1663.7
1623.93
1585.79
1553.11
1528.31
1512.21
1504.21
1502.69
1505.6
1510.89
1516.81
1522.06
1525.75
1527.15
1525.46
1519.49
1507.19
1485.6
1451.43
1402.04
1336.74
1257.35
1167.86
1073.48
979.627
891.075
811.529
743.548
688.681
647.703
620.811
607.755
607.861
620.003
642.572
673.5
710.365
750.562
791.51
830.839
866.531
897.011
921.184
938.447
948.695
952.319
950.245
944.023
936.056
930
931.44
948.262
2714.64
2312.99
2283.33
2197.52
2121.23
2054.81
1994.67
1939.78
1888.68
1840.48
1795.04
1752.35
1712.44
1675.39
1641.43
1610.75
1583.46
1559.55
1538.91
1521.4
1506.87
1495.26
1486.57
1481.12
1483.74
1492.07
1505.47
1523.97
1547.54
1575.95
1608.92
1646.17
1687.79
1734.85
1789.93
1857.2
1940.67
2040.28
2148.07
2250.25
2335.91
2399.22
2437.61
2460.77
2473.8
2480.7
2484.16
2485.76
2486.15
2485.22
2482.28
2476.48
2467.21
2454.65
2439.97
2425.03
2411.53
2400.05
2389.76
2378.93
2366.11
2350.88
2333.97
2317.67
2303.73
2295.38
2296.55
2311.21
2342.57
2391.71
2455.97
2527.54
2593.38
2637.4
2645.46
2610.57
2535.12
2429.19
2306.45
2179.15
2056.82
1949.87
1868.71
1815.56
1787.79
1793.95
1861.51
2031.13
2336.55
2755.21
3173.99
3417.29
3412.55
3243.29
3004.15
2759.11
2543.82
2374.36
2253.49
2175.34
2129.37
2103.52
2087.05
2072.86
2057.99
2042.13
2025.81
2009.09
1991.12
1970.31
1945.07
1914.6
1879.99
1844.33
1809.65
1777.59
1749.61
1727.23
1712.14
1705.84
1708.79
1719.32
1732.77
1742.42
1742.19
1728.94
1702.71
1665.9
1622.63
1578.14
1537.72
1505.53
1483.82
1472.8
1470.99
1475.95
1484.91
1495.32
1505.17
1513.09
1518.27
1520.28
1518.81
1513.3
1502.48
1484.1
1454.81
1411.45
1352.33
1278.07
1191.71
1097.95
1002.14
909.344
823.688
748.199
684.849
634.761
598.424
575.854
566.672
570.093
584.884
609.347
641.359
678.495
718.214
758.056
795.814
829.668
858.25
880.672
896.529
905.89
909.309
907.894
903.478
898.933
898.705
909.216
2316.54
2280.71
2295.31
2242.57
2198.79
2161.56
2127.32
2094.81
2062.29
2028.9
1994.51
1958.98
1922.4
1885.37
1848.84
1813.91
1781.73
1753.23
1728.91
1708.87
1692.95
1680.86
1672.19
1666.5
1663.49
1668.37
1678.08
1691.88
1709.82
1731.94
1758.36
1789.39
1825.67
1868.45
1919.57
1981.16
2054.56
2138.61
2228.24
2315.62
2396.81
2456.58
2496.94
2525.07
2544
2556.36
2564.25
2569.14
2571.84
2572.54
2570.88
2566.18
2557.83
2545.64
2530.17
2512.59
2494.25
2476.06
2458.06
2439.58
2419.84
2398.47
2376.01
2355.26
2338
2327.56
2327.83
2342.63
2374.85
2425.07
2489.89
2560.62
2623.32
2661.43
2660.65
2613.8
2523.14
2399.37
2257.6
2112
1973.96
1854.46
1762.58
1698.97
1659.39
1647.45
1682.28