/*--------------------------------*- C++ -*----------------------------------*\
| =========                 |                                                 |
| \\      /  F ield         | OpenFOAM: The Open Source CFD Toolbox           |
|  \\    /   O peration     | Version:  2112                                  |
|   \\  /    A nd           | Website:  www.openfoam.com                      |
|    \\/     M anipulation  |                                                 |
\*---------------------------------------------------------------------------*/
FoamFile
{
    version     2.0;
    format      ascii;
    arch        "LSB;label=32;scalar=64";
    class       volVectorField;
    location    "0.36";
    object      U_0;
}
// * * * * * * * * * * * * * * * * * * * * * * * * * * * * * * * * * * * * * //

dimensions      [0 1 -1 0 0 0 0];

internalField   nonuniform List<vector> 
12225
(
(9.62243 0.110216 0)
(8.81104 0.172892 0)
(7.96868 0.172458 0)
(7.17968 0.15394 0)
(6.50997 0.127018 0)
(5.97695 0.0972617 0)
(5.57268 0.0697549 0)
(5.2804 0.0472393 0)
(5.07809 0.0304422 0)
(4.94202 0.0190099 0)
(4.85122 0.0119198 0)
(4.7897 0.00811773 0)
(4.74622 0.00672023 0)
(4.71362 0.00681811 0)
(4.68682 0.00775023 0)
(4.66592 0.00945293 0)
(4.63043 0.0263976 0)
(4.59319 -0.00628908 0)
(10.1386 0.121937 0)
(10.3668 0.185201 0)
(10.4431 0.193031 0)
(10.3848 0.191831 0)
(10.2329 0.180847 0)
(10.0205 0.160528 0)
(9.77324 0.135313 0)
(9.51161 0.109543 0)
(9.2495 0.0863183 0)
(8.99452 0.0671372 0)
(8.7505 0.0521191 0)
(8.51949 0.0407925 0)
(8.30245 0.0323996 0)
(8.10006 0.0263385 0)
(7.91093 0.0216787 0)
(7.73543 0.0198908 0)
(7.57907 0.01974 0)
(7.4586 0.0449065 0)
(10.0378 0.0791385 0)
(10.1431 0.135089 0)
(10.2433 0.159152 0)
(10.3247 0.176794 0)
(10.3857 0.183741 0)
(10.4238 0.180078 0)
(10.4346 0.170051 0)
(10.4195 0.157861 0)
(10.3836 0.146486 0)
(10.3324 0.137418 0)
(10.2702 0.130789 0)
(10.2007 0.12616 0)
(10.1266 0.122935 0)
(10.0493 0.120357 0)
(9.97164 0.11803 0)
(9.8948 0.115751 0)
(9.82439 0.113477 0)
(9.75224 0.103285 0)
(10.0197 0.061917 0)
(10.0833 0.119696 0)
(10.1466 0.145135 0)
(10.2013 0.160216 0)
(10.2522 0.166486 0)
(10.2958 0.164141 0)
(10.3285 0.156215 0)
(10.35 0.14627 0)
(10.3624 0.136604 0)
(10.3701 0.128628 0)
(10.3744 0.122627 0)
(10.3764 0.118397 0)
(10.377 0.115519 0)
(10.3768 0.113412 0)
(10.3765 0.111437 0)
(10.3767 0.108826 0)
(10.379 0.104708 0)
(10.3808 0.0923012 0)
(10.0121 0.0510003 0)
(10.0606 0.10703 0)
(10.112 0.132568 0)
(10.1567 0.147163 0)
(10.1983 0.153771 0)
(10.2355 0.152674 0)
(10.266 0.146797 0)
(10.2896 0.139167 0)
(10.3073 0.131744 0)
(10.3203 0.125204 0)
(10.3308 0.119746 0)
(10.3402 0.115463 0)
(10.35 0.112142 0)
(10.3613 0.109473 0)
(10.3739 0.106752 0)
(10.3879 0.10319 0)
(10.4034 0.0978415 0)
(10.4198 0.0882751 0)
(10.0082 0.0418807 0)
(10.0463 0.0939861 0)
(10.0912 0.120011 0)
(10.1316 0.134869 0)
(10.1687 0.142056 0)
(10.2028 0.14248 0)
(10.2321 0.138368 0)
(10.2563 0.132224 0)
(10.2762 0.125748 0)
(10.2924 0.119737 0)
(10.3065 0.11468 0)
(10.3196 0.110565 0)
(10.3324 0.107073 0)
(10.3457 0.103648 0)
(10.36 0.0998233 0)
(10.3755 0.0951247 0)
(10.3921 0.0887984 0)
(10.409 0.0792916 0)
(10.006 0.0346981 0)
(10.0361 0.0816411 0)
(10.0751 0.107331 0)
(10.1122 0.122418 0)
(10.1466 0.13016 0)
(10.1783 0.131559 0)
(10.2063 0.128605 0)
(10.2302 0.123571 0)
(10.251 0.118155 0)
(10.2695 0.113124 0)
(10.2864 0.10862 0)
(10.3023 0.104647 0)
(10.3177 0.100926 0)
(10.3327 0.0969876 0)
(10.3482 0.092555 0)
(10.3643 0.087162 0)
(10.3811 0.0801772 0)
(10.3981 0.0706104 0)
(10.0045 0.0288989 0)
(10.0284 0.0707401 0)
(10.0622 0.095321 0)
(10.0959 0.110129 0)
(10.1276 0.118101 0)
(10.1573 0.120226 0)
(10.1839 0.118247 0)
(10.2071 0.114133 0)
(10.2277 0.109366 0)
(10.2466 0.104675 0)
(10.2644 0.100253 0)
(10.2815 0.0961679 0)
(10.2984 0.0922886 0)
(10.3152 0.0881812 0)
(10.332 0.0833604 0)
(10.3489 0.0773991 0)
(10.3659 0.0698464 0)
(10.3829 0.0601941 0)
(10.0035 0.0240809 0)
(10.0226 0.0609485 0)
(10.0517 0.084006 0)
(10.082 0.0982492 0)
(10.1111 0.106209 0)
(10.1387 0.108871 0)
(10.1638 0.107707 0)
(10.1862 0.10437 0)
(10.2063 0.10011 0)
(10.2247 0.0956078 0)
(10.2422 0.0911484 0)
(10.2593 0.0868298 0)
(10.2762 0.0825508 0)
(10.2932 0.077961 0)
(10.3103 0.0726434 0)
(10.3275 0.0662226 0)
(10.3444 0.0583306 0)
(10.3611 0.0486849 0)
(10.0027 0.0200423 0)
(10.0181 0.0520805 0)
(10.043 0.0732887 0)
(10.0701 0.0867652 0)
(10.0967 0.0945447 0)
(10.1222 0.0975529 0)
(10.1458 0.0970204 0)
(10.1673 0.0943308 0)
(10.1867 0.0905485 0)
(10.2047 0.0862933 0)
(10.2217 0.0818564 0)
(10.2382 0.0773355 0)
(10.2545 0.0726514 0)
(10.2708 0.0675575 0)
(10.2872 0.0617509 0)
(10.3036 0.0549345 0)
(10.3197 0.0468182 0)
(10.3355 0.0372506 0)
(10.0022 0.0166171 0)
(10.0146 0.0440997 0)
(10.0359 0.0631975 0)
(10.0599 0.075686 0)
(10.0841 0.0831045 0)
(10.1076 0.0862637 0)
(10.1297 0.0861781 0)
(10.1501 0.0839972 0)
(10.1689 0.0806261 0)
(10.1863 0.0766122 0)
(10.2029 0.0722266 0)
(10.2188 0.0675649 0)
(10.2344 0.0625762 0)
(10.2499 0.0570868 0)
(10.2653 0.0508737 0)
(10.2805 0.043722 0)
(10.2953 0.035435 0)
(10.3098 0.0259582 0)
(10.0018 0.0138689 0)
(10.0121 0.0375296 0)
(10.0304 0.0545247 0)
(10.0519 0.0659085 0)
(10.074 0.0728324 0)
(10.0957 0.0759601 0)
(10.1165 0.0761238 0)
(10.1359 0.0742813 0)
(10.154 0.071202 0)
(10.1709 0.0673676 0)
(10.187 0.0630299 0)
(10.2025 0.0582848 0)
(10.2175 0.0531034 0)
(10.2322 0.0473602 0)
(10.2467 0.0408904 0)
(10.2609 0.0335446 0)
(10.2746 0.025196 0)
(10.2878 0.0158523 0)
(10.0014 0.011463 0)
(10.01 0.0315839 0)
(10.0257 0.0464088 0)
(10.0448 0.0565498 0)
(10.065 0.0628432 0)
(10.0852 0.0657978 0)
(10.1047 0.0660789 0)
(10.1231 0.0644703 0)
(10.1405 0.0616149 0)
(10.1569 0.0579283 0)
(10.1724 0.0536397 0)
(10.1873 0.0488444 0)
(10.2018 0.0435326 0)
(10.2158 0.0376201 0)
(10.2295 0.0309938 0)
(10.2427 0.023557 0)
(10.2554 0.0152363 0)
(10.2675 0.00607938 0)
(10.0009 0.00918831 0)
(10.0081 0.0254742 0)
(10.0212 0.0377677 0)
(10.038 0.0463376 0)
(10.0562 0.0517293 0)
(10.0746 0.0543059 0)
(10.0928 0.0545582 0)
(10.1102 0.0530875 0)
(10.1267 0.0504039 0)
(10.1423 0.0468488 0)
(10.1573 0.0426196 0)
(10.1715 0.037806 0)
(10.1853 0.0324167 0)
(10.1985 0.0264066 0)
(10.2113 0.0197118 0)
(10.2235 0.0122838 0)
(10.2351 0.00409603 0)
(10.2462 -0.00478139 0)
(10.0006 0.00705302 0)
(10.0066 0.0195519 0)
(10.0174 0.028792 0)
(10.0318 0.035355 0)
(10.048 0.0395154 0)
(10.0647 0.0414564 0)
(10.0814 0.0414833 0)
(10.0976 0.0400127 0)
(10.1132 0.0374203 0)
(10.128 0.0339679 0)
(10.1422 0.0298122 0)
(10.1557 0.0250312 0)
(10.1687 0.0196457 0)
(10.1811 0.0136424 0)
(10.1929 0.00699813 0)
(10.2041 -0.00029485 0)
(10.2146 -0.00822488 0)
(10.2245 -0.0167121 0)
(10.0005 0.00480721 0)
(10.0055 0.0135195 0)
(10.0147 0.0195625 0)
(10.027 0.0237448 0)
(10.0411 0.0263032 0)
(10.0561 0.0272772 0)
(10.0712 0.0268077 0)
(10.0862 0.0251412 0)
(10.1008 0.0225211 0)
(10.1148 0.0191241 0)
(10.1282 0.0150588 0)
(10.1409 0.0103816 0)
(10.153 0.00511448 0)
(10.1645 -0.000737889 0)
(10.1753 -0.00717164 0)
(10.1855 -0.0141671 0)
(10.1949 -0.0216863 0)
(10.2037 -0.0296487 0)
(10.0004 0.00250804 0)
(10.0049 0.00702976 0)
(10.013 0.00988885 0)
(10.0236 0.0115139 0)
(10.036 0.0121342 0)
(10.0494 0.0117672 0)
(10.0632 0.0104668 0)
(10.0771 0.00834885 0)
(10.0907 0.00553707 0)
(10.1039 0.00212267 0)
(10.1165 -0.00184153 0)
(10.1284 -0.00633131 0)
(10.1398 -0.0113389 0)
(10.1504 -0.0168605 0)
(10.1603 -0.0228856 0)
(10.1696 -0.0293863 0)
(10.1781 -0.0363152 0)
(10.1859 -0.0436011 0)
(10.0004 2.29509e-05 0)
(10.0045 -5.54954e-05 0)
(10.0119 -0.000643844 0)
(10.0216 -0.00176671 0)
(10.033 -0.00337154 0)
(10.0454 -0.00541955 0)
(10.0583 -0.00787861 0)
(10.0713 -0.0107137 0)
(10.0842 -0.013896 0)
(10.0967 -0.0174136 0)
(10.1087 -0.0212723 0)
(10.1201 -0.0254895 0)
(10.1308 -0.0300862 0)
(10.1408 -0.035079 0)
(10.1501 -0.0404732 0)
(10.1587 -0.0462549 0)
(10.1665 -0.0523864 0)
(10.1736 -0.0588106 0)
(10.0004 -0.00277831 0)
(10.0043 -0.00810995 0)
(10.0116 -0.0127479 0)
(10.0211 -0.0170242 0)
(10.0324 -0.0212057 0)
(10.0447 -0.0252541 0)
(10.0575 -0.0291405 0)
(10.0704 -0.0328911 0)
(10.0831 -0.0365635 0)
(10.0954 -0.040227 0)
(10.1072 -0.0439531 0)
(10.1184 -0.0478097 0)
(10.1288 -0.0518558 0)
(10.1385 -0.0561393 0)
(10.1474 -0.0606955 0)
(10.1557 -0.0655465 0)
(10.1631 -0.0706973 0)
(10.1699 -0.0761343 0)
(10.0004 -0.00554377 0)
(10.0047 -0.0160369 0)
(10.0126 -0.0247087 0)
(10.0232 -0.0322616 0)
(10.0357 -0.0390364 0)
(10.049 -0.0449989 0)
(10.0628 -0.0501608 0)
(10.0764 -0.05464 0)
(10.0898 -0.058603 0)
(10.1025 -0.0622164 0)
(10.1145 -0.0656302 0)
(10.1258 -0.0689743 0)
(10.1362 -0.0723554 0)
(10.1458 -0.075855 0)
(10.1546 -0.0795339 0)
(10.1627 -0.083446 0)
(10.17 -0.0876523 0)
(10.1766 -0.0922068 0)
(10.0006 -0.00810261 0)
(10.0057 -0.0229998 0)
(10.015 -0.0354177 0)
(10.0275 -0.0459768 0)
(10.0417 -0.0549061 0)
(10.0566 -0.0622856 0)
(10.0717 -0.0682447 0)
(10.0864 -0.0730342 0)
(10.1005 -0.0769467 0)
(10.1138 -0.0802477 0)
(10.1262 -0.0831626 0)
(10.1376 -0.0858822 0)
(10.148 -0.0885637 0)
(10.1575 -0.0913267 0)
(10.1662 -0.09425 0)
(10.174 -0.0973763 0)
(10.1811 -0.100746 0)
(10.1874 -0.10442 0)
(10.0011 -0.0108632 0)
(10.0076 -0.0305241 0)
(10.0193 -0.0467842 0)
(10.0344 -0.0599709 0)
(10.0508 -0.0706399 0)
(10.0676 -0.0790427 0)
(10.0842 -0.0854306 0)
(10.1003 -0.0902006 0)
(10.1153 -0.0937776 0)
(10.1292 -0.0965242 0)
(10.1419 -0.0987406 0)
(10.1534 -0.10068 0)
(10.1637 -0.102549 0)
(10.1729 -0.104508 0)
(10.1812 -0.106659 0)
(10.1886 -0.109028 0)
(10.1952 -0.111581 0)
(10.201 -0.114309 0)
(10.0016 -0.0143044 0)
(10.0104 -0.0394033 0)
(10.0255 -0.0589965 0)
(10.0436 -0.0742624 0)
(10.0626 -0.0862789 0)
(10.0816 -0.0953675 0)
(10.1001 -0.101862 0)
(10.1175 -0.106313 0)
(10.1335 -0.109278 0)
(10.1479 -0.111216 0)
(10.1608 -0.112508 0)
(10.1722 -0.113484 0)
(10.1822 -0.114404 0)
(10.191 -0.115456 0)
(10.1986 -0.116772 0)
(10.2053 -0.118368 0)
(10.2111 -0.120135 0)
(10.216 -0.121982 0)
(10.0023 -0.0185195 0)
(10.0145 -0.049446 0)
(10.0339 -0.0719577 0)
(10.0556 -0.0889305 0)
(10.0773 -0.102014 0)
(10.0987 -0.111452 0)
(10.1191 -0.117667 0)
(10.1379 -0.121419 0)
(10.1547 -0.123454 0)
(10.1695 -0.124329 0)
(10.1825 -0.124475 0)
(10.1936 -0.124287 0)
(10.203 -0.124082 0)
(10.2109 -0.124076 0)
(10.2175 -0.124448 0)
(10.2231 -0.125215 0)
(10.2277 -0.126213 0)
(10.2315 -0.127293 0)
(10.0034 -0.0238555 0)
(10.0206 -0.0612289 0)
(10.0454 -0.0859813 0)
(10.0707 -0.103991 0)
(10.0952 -0.117661 0)
(10.1189 -0.127011 0)
(10.1412 -0.132544 0)
(10.1614 -0.135251 0)
(10.1791 -0.136098 0)
(10.1945 -0.135746 0)
(10.2076 -0.134633 0)
(10.2183 -0.133182 0)
(10.227 -0.13175 0)
(10.2338 -0.130566 0)
(10.2392 -0.129812 0)
(10.2431 -0.129534 0)
(10.2461 -0.12968 0)
(10.2484 -0.130117 0)
(10.0054 -0.0311077 0)
(10.0303 -0.0750536 0)
(10.061 -0.100492 0)
(10.0899 -0.118461 0)
(10.1174 -0.132147 0)
(10.1443 -0.141224 0)
(10.1696 -0.146149 0)
(10.1922 -0.147956 0)
(10.212 -0.147547 0)
(10.2285 -0.145587 0)
(10.2419 -0.142846 0)
(10.2523 -0.139924 0)
(10.26 -0.137205 0)
(10.2655 -0.134868 0)
(10.2693 -0.133388 0)
(10.2713 -0.13271 0)
(10.2724 -0.132421 0)
(10.2728 -0.132562 0)
(10.0099 -0.0405082 0)
(10.0457 -0.0877691 0)
(10.0849 -0.113929 0)
(10.1206 -0.133004 0)
(10.1546 -0.146896 0)
(10.1883 -0.155369 0)
(10.2201 -0.159277 0)
(10.2486 -0.159789 0)
(10.2728 -0.158066 0)
(10.2918 -0.154604 0)
(10.3061 -0.149886 0)
(10.316 -0.144843 0)
(10.322 -0.140089 0)
(10.3249 -0.135959 0)
(10.3252 -0.13267 0)
(10.3244 -0.130383 0)
(10.3228 -0.129022 0)
(10.3204 -0.128611 0)
(10.0208 -0.0546052 0)
(10.0803 -0.100464 0)
(10.1455 -0.124723 0)
(10.2052 -0.147309 0)
(10.2607 -0.165035 0)
(10.3118 -0.175592 0)
(10.3545 -0.180299 0)
(10.3859 -0.180459 0)
(10.4056 -0.177093 0)
(10.4153 -0.171588 0)
(10.4154 -0.165043 0)
(10.4069 -0.158366 0)
(10.3911 -0.152187 0)
(10.3692 -0.146908 0)
(10.3425 -0.142905 0)
(10.3119 -0.140418 0)
(10.2781 -0.139214 0)
(10.2426 -0.139326 0)
(10.0832 -0.0937884 0)
(10.2604 -0.154209 0)
(10.3715 -0.169062 0)
(10.4146 -0.179827 0)
(10.4058 -0.186591 0)
(10.3521 -0.18672 0)
(10.2607 -0.181156 0)
(10.141 -0.171326 0)
(10.0024 -0.15857 0)
(9.85216 -0.144132 0)
(9.69587 -0.129011 0)
(9.5375 -0.114136 0)
(9.37996 -0.100283 0)
(9.22507 -0.0879408 0)
(9.0738 -0.0774057 0)
(8.92672 -0.0687916 0)
(8.78374 -0.061926 0)
(8.64592 -0.0570467 0)
(9.77051 -0.0888057 0)
(9.253 -0.152803 0)
(8.6711 -0.166929 0)
(8.0747 -0.166935 0)
(7.5099 -0.158994 0)
(6.99592 -0.144784 0)
(6.53947 -0.126753 0)
(6.14407 -0.107301 0)
(5.81005 -0.088271 0)
(5.53388 -0.070716 0)
(5.30965 -0.055163 0)
(5.13058 -0.0417618 0)
(4.9895 -0.0305106 0)
(4.87948 -0.0214135 0)
(4.79397 -0.0143342 0)
(4.72734 -0.00905264 0)
(4.674 -0.00550547 0)
(4.63221 -0.00270224 0)
(-0.00270288 0.0196019 -2.59164e-22)
(0.00555338 0.000965859 2.50402e-22)
(0.0340767 -0.0252955 0)
(0.0881196 -0.0545785 0)
(0.168365 -0.082958 0)
(0.273307 -0.109134 -2.24792e-22)
(0.397817 -0.135908 0)
(0.539583 -0.159307 0)
(0.695983 -0.174768 0)
(0.859467 -0.182105 0)
(1.02441 -0.182032 3.77359e-22)
(1.18594 -0.175525 0)
(1.33953 -0.163576 0)
(1.48121 -0.147055 0)
(1.60758 -0.126641 0)
(1.71565 -0.102772 7.31282e-22)
(1.80272 -0.0755841 0)
(1.86599 -0.0447967 0)
(1.90322 -0.00949165 0)
(1.91095 0.0312235 0)
(1.88292 0.0759549 0)
(1.81928 0.121576 0)
(1.72023 0.164681 0)
(1.58639 0.201373 8.19472e-22)
(1.42251 0.222823 -7.74795e-22)
(1.23542 0.225217 7.27003e-22)
(1.03324 0.21275 6.79774e-22)
(0.826643 0.186765 0)
(0.626754 0.150103 0)
(0.444429 0.108163 -5.73887e-22)
(0.288316 0.0682817 -5.55431e-22)
(0.162866 0.0375638 0)
(0.0657688 0.0190241 0)
(-0.00518357 0.00818036 -5.51866e-22)
(-0.0553765 0.00138539 0)
(-0.094237 0.00208313 0)
(-0.128281 0.00573222 6.12913e-22)
(-0.158847 0.00868861 0)
(-0.185441 0.0098619 6.82456e-22)
(-0.20763 0.00909372 1.44994e-21)
(-0.225886 0.00677212 0)
(-0.241785 0.00380955 0)
(-0.257955 0.00138102 0)
(-0.277875 0.000594999 0)
(-0.305672 0.00244832 0)
(-0.346 0.00787907 2.28377e-21)
(-0.403921 0.0177068 2.49232e-21)
(-0.484639 0.0325228 2.72296e-21)
(-0.593105 0.0526017 0)
(-0.733462 0.0778369 -3.24842e-21)
(-0.908403 0.107583 0)
(-1.11857 0.140291 3.85397e-21)
(-1.36216 0.173437 4.1842e-21)
(-1.63504 0.204171 0)
(-1.93115 0.229911 0)
(-2.24294 0.247524 0)
(-2.56158 0.255337 5.58962e-21)
(-2.87705 0.253071 0)
(-3.17936 0.240433 0)
(-3.45845 0.217867 0)
(-3.70453 0.186421 0)
(-3.90888 0.147617 0)
(-4.06414 0.103583 0)
(-4.16369 0.057525 0)
(-4.2026 0.0127835 0)
(-4.17899 -0.0294879 -5.22387e-21)
(-4.10192 -0.0678033 0)
(-3.96917 -0.103636 0)
(-3.78279 -0.136699 2.52121e-21)
(-3.54516 -0.166365 1.34409e-21)
(-3.25952 -0.192342 0)
(-2.92998 -0.215172 1.27805e-21)
(-2.56044 -0.234229 -2.66545e-21)
(-2.15632 -0.24849 0)
(-1.72453 -0.25697 5.40787e-21)
(-1.27371 -0.258862 0)
(-0.814312 -0.253976 0)
(-0.357247 -0.243732 -8.8584e-21)
(0.0892672 -0.229753 0)
(0.512952 -0.212953 1.01069e-20)
(0.90228 -0.191637 0)
(1.24934 -0.164615 -1.05542e-20)
(1.54732 -0.134166 -1.05905e-20)
(1.79295 -0.104442 -1.05394e-20)
(1.98814 -0.0776711 -2.08588e-20)
(2.13736 -0.0543857 2.05679e-20)
(2.24546 -0.03431 0)
(2.3188 -0.0164269 0)
(2.36403 0.00338669 0)
(2.38158 0.0277748 1.92449e-20)
(2.37084 0.0510603 1.89277e-20)
(2.34246 0.0606225 -1.85982e-20)
(2.30811 0.052663 0)
(2.27714 0.0369136 1.79556e-20)
(2.24832 0.0264406 1.7614e-20)
(2.20772 0.0281102 1.72262e-20)
(2.13565 0.0405986 0)
(2.01673 0.057753 0)
(1.84265 0.0759724 0)
(1.60524 0.101115 1.45901e-20)
(1.29489 0.134893 0)
(0.905176 0.171538 0)
(0.432832 0.212749 -1.02501e-20)
(-0.121633 0.258991 0)
(-0.74816 0.304815 0)
(-1.42525 0.342492 -2.52298e-21)
(-2.12506 0.36572 0)
(-2.81688 0.371112 0)
(-3.47176 0.358624 -5.90768e-21)
(-4.06535 0.329973 -8.26261e-21)
(-4.57885 0.288561 0)
(-4.99904 0.233399 1.16854e-20)
(-5.31831 0.170681 0)
(-5.53429 0.109975 -1.30606e-20)
(-5.64949 0.0542302 0)
(-5.66844 0.00679622 -1.23473e-20)
(-5.61162 -0.0321946 -1.12666e-20)
(-5.49007 -0.0657361 0)
(-5.31004 -0.0958654 0)
(-5.07651 -0.123613 0)
(-4.79331 -0.149652 0)
(-4.46344 -0.174558 0)
(-4.08962 -0.198653 0)
(-3.67466 -0.221851 0)
(-3.22193 -0.24357 7.41093e-21)
(-2.73573 -0.262325 -1.01472e-20)
(-2.22184 -0.275654 0)
(-1.68912 -0.28066 0)
(-1.15099 -0.274149 0)
(-0.620865 -0.26111 0)
(-0.0921532 -0.250265 -4.14313e-20)
(0.436006 -0.249221 0)
(0.950327 -0.247905 4.46892e-20)
(1.44908 -0.234787 -4.53427e-20)
(1.92155 -0.208853 0)
(2.35355 -0.177788 0)
(2.74053 -0.145466 0)
(3.07975 -0.113758 4.30929e-20)
(3.36917 -0.083614 4.17706e-20)
(3.60746 -0.055137 0)
(3.79424 -0.0287076 3.87346e-20)
(3.93004 -0.00561704 3.71388e-20)
(4.01687 0.0129594 -3.55579e-20)
(4.05595 0.0265196 0)
(4.04791 0.0410286 0)
(4.00489 0.05297 -3.11485e-20)
(3.93519 0.0603411 0)
(3.84552 0.065162 0)
(3.74124 0.0686694 0)
(3.62631 0.0712196 0)
(3.50383 0.0728698 2.58935e-20)
(3.37637 0.0736106 2.51801e-20)
(3.24598 0.0734482 0)
(3.1143 0.0724043 2.40571e-20)
(2.98262 0.0705272 0)
(2.85183 0.0678766 0)
(2.7225 0.0644314 2.3039e-20)
(2.59509 0.0600679 0)
(2.47007 0.0546725 2.27234e-20)
(2.34781 0.0482085 0)
(2.22854 0.0406379 0)
(2.11225 0.0321983 2.26636e-20)
(1.99887 0.0243338 0)
(1.88809 0.0180917 2.2835e-20)
(1.77914 0.0138466 0)
(1.67102 0.0117285 0)
(1.56289 0.0116499 0)
(1.45444 0.0132383 -2.33775e-20)
(1.34643 0.0156179 0)
(1.24179 0.0167869 2.35881e-20)
(1.14514 0.0157051 0)
(1.06305 0.0129476 0)
(1.0035 0.00811873 0)
(0.973826 0.00146139 0)
(0.976896 -0.00685344 0)
(1.01369 -0.015491 0)
(1.08138 -0.0227207 0)
(1.16438 -0.0266982 -4.89068e-20)
(1.25495 -0.0206255 0)
(1.2629 -0.00257655 0)
(0.0224555 -0.0264772 8.14053e-22)
(0.0668315 -0.078534 -7.77027e-22)
(0.142449 -0.148597 0)
(0.239866 -0.226563 5.14729e-22)
(0.360144 -0.302183 0)
(0.500879 -0.367346 2.19575e-22)
(0.656717 -0.418383 -5.66153e-22)
(0.821692 -0.455414 -6.2642e-22)
(0.990079 -0.477157 0)
(1.1575 -0.483192 -8.1633e-22)
(1.3204 -0.474495 -3.63476e-22)
(1.47574 -0.452862 0)
(1.6209 -0.420291 0)
(1.75372 -0.378643 0)
(1.87237 -0.329484 0)
(1.97533 -0.274027 -7.07153e-22)
(2.06139 -0.2131 0)
(2.12974 -0.147149 1.87625e-21)
(2.17948 -0.0762137 0)
(2.21117 -6.77937e-05 0)
(2.22714 0.0807478 -2.00604e-21)
(2.22415 0.164591 0)
(2.19863 0.249256 1.92102e-21)
(2.14681 0.331679 -7.94974e-22)
(2.06436 0.407055 7.50127e-22)
(1.94748 0.469831 -7.0207e-22)
(1.79363 0.513777 -6.54915e-22)
(1.60397 0.532947 0)
(1.38365 0.523402 0)
(1.14185 0.485048 5.52699e-22)
(0.891547 0.423023 -5.72018e-22)
(0.648002 0.347607 0)
(0.425333 0.271017 0)
(0.232967 0.202886 5.4129e-22)
(0.0717678 0.152778 0)
(-0.0599165 0.123224 0)
(-0.164379 0.103829 -6.0983e-22)
(-0.24783 0.0873211 0)
(-0.315098 0.0715439 6.43302e-22)
(-0.371613 0.0582526 -1.43867e-21)
(-0.424059 0.0501821 0)
(-0.479702 0.0496134 0)
(-0.545508 0.0581896 -3.37744e-21)
(-0.627667 0.0769413 -3.62812e-21)
(-0.731537 0.106434 -3.91554e-21)
(-0.861768 0.146846 2.01923e-21)
(-1.02218 0.197777 -2.41671e-21)
(-1.21523 0.257994 -7.67263e-21)
(-1.44149 0.325128 5.52441e-21)
(-1.69918 0.395408 3.10292e-21)
(-1.98401 0.463781 0)
(-2.28931 0.524942 -3.65234e-21)
(-2.60673 0.574672 4.03427e-21)
(-2.92736 0.610096 0)
(-3.24266 0.629191 0)
(-3.54491 0.630718 0)
(-3.82692 0.614128 -5.26487e-21)
(-4.08273 0.579963 0)
(-4.30762 0.529561 1.23994e-20)
(-4.49825 0.464808 0)
(-4.65252 0.387822 1.32342e-20)
(-4.76922 0.300711 0)
(-4.8478 0.205803 -1.32128e-20)
(-4.88786 0.105955 0)
(-4.88882 0.00389776 1.2046e-20)
(-4.84871 -0.0985062 -5.98473e-21)
(-4.75631 -0.198888 0)
(-4.61189 -0.296467 -7.80569e-21)
(-4.41432 -0.389789 -2.38055e-21)
(-4.1639 -0.477081 -1.26912e-21)
(-3.86112 -0.557172 0)
(-3.50862 -0.628813 2.26841e-22)
(-3.11107 -0.690809 2.53457e-21)
(-2.67208 -0.741052 0)
(-2.1967 -0.777246 -5.17343e-21)
(-1.69117 -0.797223 1.2108e-20)
(-1.16341 -0.799298 0)
(-0.623631 -0.782743 8.58955e-21)
(-0.0838889 -0.747219 0)
(0.439727 -0.69162 -2.9449e-20)
(0.931337 -0.621463 0)
(1.37814 -0.541126 3.08717e-20)
(1.77013 -0.454927 1.03779e-20)
(2.1017 -0.368845 -1.0224e-20)
(2.37201 -0.288321 -2.02631e-20)
(2.5841 -0.216384 2.00019e-20)
(2.74305 -0.153335 0)
(2.85457 -0.101756 0)
(2.92677 -0.0629782 0)
(2.97431 -0.0328507 -5.67355e-20)
(3.00977 -0.00636723 -1.86299e-20)
(3.0247 0.0129806 1.8289e-20)
(3.0071 0.0247464 0)
(2.95142 0.0332694 1.77528e-20)
(2.85628 0.050585 -1.73139e-20)
(2.71597 0.0898128 -1.69401e-20)
(2.51436 0.154683 0)
(2.23088 0.239102 0)
(1.85065 0.336623 0)
(1.36601 0.444848 -1.44288e-20)
(0.774296 0.560508 0)
(0.0796632 0.67971 2.37255e-20)
(-0.698905 0.791405 2.94991e-20)
(-1.5262 0.880892 -1.46932e-20)
(-2.35954 0.935376 0)
(-3.15632 0.946992 -1.30474e-21)
(-3.88125 0.91539 0)
(-4.50981 0.846153 7.62048e-21)
(-5.02921 0.748519 -7.17723e-21)
(-5.4369 0.632766 -9.47221e-21)
(-5.73812 0.508362 0)
(-5.9435 0.38337 -3.52755e-20)
(-6.06476 0.262774 2.58356e-20)
(-6.11454 0.149718 1.26515e-20)
(-6.10449 0.0467659 0)
(-6.04314 -0.0435752 1.19555e-20)
(-5.92482 -0.121832 3.36838e-20)
(-5.74916 -0.190476 0)
(-5.52055 -0.251587 1.62448e-20)
(-5.24294 -0.306671 1.21044e-20)
(-4.91969 -0.356807 7.52063e-21)
(-4.55354 -0.402574 0)
(-4.14714 -0.443848 0)
(-3.70322 -0.47995 0)
(-3.22501 -0.510406 6.19376e-21)
(-2.71679 -0.535023 9.753e-21)
(-2.18333 -0.551483 0)
(-1.62895 -0.557485 2.85539e-20)
(-1.05916 -0.553933 3.29468e-20)
(-0.480088 -0.547391 0)
(0.102671 -0.543758 4.02642e-20)
(0.675558 -0.528985 8.32422e-20)
(1.23179 -0.507457 -4.32104e-20)
(1.76678 -0.482461 -4.2769e-20)
(2.27338 -0.450161 0)
(2.74832 -0.411653 0)
(3.18836 -0.369086 0)
(3.58892 -0.323671 -4.15818e-20)
(3.94511 -0.27525 3.97649e-20)
(4.2534 -0.225237 7.75582e-20)
(4.51061 -0.175612 -3.7597e-20)
(4.71402 -0.127818 3.5817e-20)
(4.86204 -0.0826944 3.46609e-20)
(4.957 -0.0403916 0)
(5.00687 -0.000446418 0)
(5.00834 0.0305536 -3.03868e-20)
(4.96363 0.0534779 0)
(4.87959 0.070375 0)
(4.76334 0.0823411 5.42143e-20)
(4.62203 0.0903386 0)
(4.46232 0.0952681 2.54932e-20)
(4.28996 0.0978819 -2.47539e-20)
(4.1098 0.0987916 0)
(3.9258 0.0984769 2.37906e-20)
(3.74108 0.0973961 0)
(3.55801 0.0959829 0)
(3.37829 0.0944976 -2.2766e-20)
(3.20315 0.0930243 4.52256e-20)
(3.03357 0.0916657 -2.24668e-20)
(2.87026 0.090541 0)
(2.71373 0.0895463 0)
(2.56439 0.0885026 2.23014e-20)
(2.42238 0.0878444 0)
(2.28731 0.0876177 2.23608e-20)
(2.15836 0.0875686 0)
(2.03441 0.0874398 0)
(1.91417 0.0868808 0)
(1.7965 0.0853406 2.30246e-20)
(1.68097 0.0820262 0)
(1.56849 0.0761178 -2.32768e-20)
(1.46242 0.0666977 0)
(1.36857 0.0524272 0)
(1.29529 0.0330928 4.71818e-20)
(1.252 0.010494 -4.74596e-20)
(1.2474 -0.0131422 0)
(1.27957 -0.0346158 0)
(1.34376 -0.0498169 0)
(1.42374 -0.0535139 1.45541e-19)
(1.51158 -0.0365833 0)
(1.54025 -0.0011507 -9.71995e-20)
(0.0391833 -0.158541 8.40872e-23)
(0.113784 -0.259585 1.1198e-21)
(0.228172 -0.376421 0)
(0.361178 -0.49933 -1.10686e-21)
(0.51027 -0.613009 0)
(0.67085 -0.706284 0)
(0.836989 -0.773672 -1.73087e-22)
(1.00338 -0.813933 6.13389e-22)
(1.1659 -0.82831 9.29407e-22)
(1.32173 -0.819494 8.00629e-22)
(1.46902 -0.790795 0)
(1.60649 -0.745517 0)
(1.73313 -0.686625 -1.52389e-21)
(1.84811 -0.616602 -3.36704e-21)
(1.95066 -0.537444 3.67312e-21)
(2.04003 -0.450701 0)
(2.11555 -0.357569 4.20385e-21)
(2.17659 -0.258985 -1.85936e-21)
(2.22257 -0.155835 0)
(2.25298 -0.0489262 4.66755e-21)
(2.26799 0.0618476 1.99326e-21)
(2.26804 0.177001 -4.65604e-21)
(2.25354 0.296423 -1.90571e-21)
(2.22415 0.418715 0)
(2.17802 0.540606 4.19289e-21)
(2.11149 0.656863 3.94251e-21)
(2.01946 0.760243 0)
(1.89637 0.841538 3.35578e-21)
(1.7376 0.890734 0)
(1.54152 0.899393 2.76693e-21)
(1.31174 0.86377 1.08043e-21)
(1.0584 0.787719 0)
(0.797386 0.683436 0)
(0.54634 0.568631 0)
(0.319214 0.461271 0)
(0.125181 0.370629 0)
(-0.03174 0.297865 0)
(-0.153702 0.240112 2.45957e-21)
(-0.24807 0.196889 -3.89092e-21)
(-0.327609 0.171346 0)
(-0.405597 0.166357 0)
(-0.494095 0.182598 0)
(-0.601981 0.219012 1.78051e-22)
(-0.735203 0.273428 3.57392e-21)
(-0.897464 0.343641 7.47629e-21)
(-1.09063 0.427757 -8.09398e-21)
(-1.31488 0.523145 -4.32419e-21)
(-1.56828 0.625352 4.8915e-21)
(-1.84663 0.72849 -4.54346e-23)
(-2.14371 0.825891 5.89564e-21)
(-2.45247 0.910836 0)
(-2.76619 0.97729 7.32307e-21)
(-3.07859 1.02088 4.5724e-22)
(-3.38393 1.04002 0)
(-3.67765 1.0349 0)
(-3.95658 1.00597 -1.07659e-20)
(-4.21828 0.954311 0)
(-4.4605 0.881795 0)
(-4.68081 0.790662 1.43806e-20)
(-4.87642 0.683257 2.74904e-20)
(-5.04401 0.56193 -1.27747e-20)
(-5.17967 0.428941 0)
(-5.27896 0.286351 1.27946e-20)
(-5.33744 0.135968 0)
(-5.351 -0.0204403 1.48737e-20)
(-5.31621 -0.180613 1.0595e-20)
(-5.23095 -0.342605 -2.16866e-20)
(-5.09444 -0.503049 -1.07783e-20)
(-4.90656 -0.659074 0)
(-4.66812 -0.807915 9.97825e-21)
(-4.38052 -0.947005 0)
(-4.04395 -1.07355 -1.25634e-21)
(-3.66195 -1.18668 -5.14607e-21)
(-3.23808 -1.28316 -1.05149e-20)
(-2.77538 -1.36002 1.58453e-20)
(-2.2775 -1.41383 -3.26318e-20)
(-1.74883 -1.44065 0)
(-1.19518 -1.43608 0)
(-0.624085 -1.39572 3.42323e-20)
(-0.0456232 -1.31703 5.64686e-20)
(0.523141 -1.20263 0)
(1.06204 -1.06091 -2.03034e-20)
(1.55186 -0.902321 0)
(1.97727 -0.739289 6.06174e-20)
(2.32979 -0.583611 2.753e-22)
(2.60824 -0.442819 -2.44354e-22)
(2.81956 -0.318532 -3.88656e-20)
(2.97272 -0.213145 0)
(3.07643 -0.130071 3.77902e-20)
(3.14091 -0.0659938 1.90136e-22)
(3.17205 -0.0112614 0)
(3.1709 0.0435208 0)
(3.12903 0.10068 0)
(3.02848 0.160723 -3.51366e-20)
(2.85316 0.234063 0)
(2.59104 0.339386 0)
(2.23372 0.485476 0)
(1.77684 0.662699 0)
(1.22062 0.856228 0)
(0.570133 1.05667 -2.86419e-20)
(-0.16172 1.25413 0)
(-0.946535 1.42904 -2.29241e-20)
(-1.74452 1.55989 -1.87968e-20)
(-2.51384 1.62907 1.41367e-20)
(-3.22019 1.62871 0)
(-3.84255 1.56157 3.57895e-21)
(-4.37384 1.43902 0)
(-4.81723 1.2767 -7.45682e-21)
(-5.18069 1.09048 1.2573e-20)
(-5.4724 0.893795 5.63818e-20)
(-5.69827 0.696745 0)
(-5.86146 0.506015 7.55889e-20)
(-5.96287 0.326169 2.96718e-20)
(-6.00206 0.160113 0)
(-5.97883 0.00868676 5.57659e-20)
(-5.89465 -0.128804 5.27951e-20)
(-5.7521 -0.252827 -7.07862e-20)
(-5.55626 -0.363895 0)
(-5.31153 -0.463418 -1.61467e-20)
(-5.0217 -0.553245 -1.203e-20)
(-4.68968 -0.635108 -2.44706e-20)
(-4.31783 -0.710078 0)
(-3.90816 -0.778624 0)
(-3.46168 -0.841349 0)
(-2.97967 -0.896405 1.16653e-20)
(-2.46552 -0.942063 0)
(-1.92454 -0.976868 0)
(-1.36149 -0.998653 -2.84795e-20)
(-0.781769 -1.00644 -3.28902e-20)
(-0.192693 -1.00266 0)
(0.394323 -0.987444 0)
(0.970598 -0.960265 -8.23891e-20)
(1.53053 -0.921775 0)
(2.0684 -0.871325 8.55044e-20)
(2.58113 -0.809789 8.48865e-20)
(3.06693 -0.740904 0)
(3.5219 -0.66671 0)
(3.94087 -0.588642 -8.03126e-20)
(4.32079 -0.507753 -6.23485e-22)
(4.65992 -0.423648 -6.27934e-22)
(4.95561 -0.337233 0)
(5.20493 -0.250389 -1.40275e-19)
(5.40504 -0.165216 0)
(5.55396 -0.0842443 0)
(5.65013 -0.0118771 0)
(5.69498 0.0506558 5.9786e-20)
(5.69247 0.104029 0)
(5.64588 0.147581 -1.0974e-19)
(5.56045 0.181415 -5.33819e-20)
(5.44274 0.206339 0)
(5.29931 0.223479 -5.02526e-20)
(5.13614 0.234079 0)
(4.95837 0.239382 0)
(4.77012 0.240499 -1.40728e-19)
(4.57446 0.238341 9.23042e-20)
(4.37411 0.233775 0)
(4.17123 0.227534 9.05442e-20)
(3.96752 0.22007 -4.51909e-20)
(3.76437 0.211629 0)
(3.56354 0.202508 0)
(3.3669 0.192938 0)
(3.17642 0.183259 -1.34596e-19)
(2.99399 0.173811 0)
(2.82104 0.164994 -4.51276e-20)
(2.65854 0.157297 0)
(2.50673 0.151052 0)
(2.36513 0.146182 0)
(2.23295 0.141984 0)
(2.10967 0.136941 0)
(1.9957 0.128712 0)
(1.89303 0.114769 -9.30677e-20)
(1.80533 0.0928966 0)
(1.73702 0.0618692 -4.70352e-20)
(1.69113 0.0230195 1.41923e-19)
(1.66899 -0.0186784 0)
(1.67084 -0.0568236 0)
(1.69717 -0.0847569 -9.6524e-20)
(1.73834 -0.0938479 -9.70381e-20)
(1.78996 -0.0699231 9.75651e-20)
(1.79624 -0.0101205 9.72991e-20)
(0.0517122 -0.342637 -2.1776e-21)
(0.148253 -0.503377 -2.04552e-21)
(0.290233 -0.664723 -1.47198e-21)
(0.445668 -0.820031 -9.24177e-22)
(0.608342 -0.950923 0)
(0.772384 -1.04713 1.7448e-21)
(0.932352 -1.10641 -1.22504e-21)
(1.08502 -1.13134 0)
(1.22892 -1.12642 -9.16878e-22)
(1.36356 -1.09646 0)
(1.48881 -1.04585 3.11099e-21)
(1.60467 -0.978311 0)
(1.71106 -0.896878 1.51375e-21)
(1.80777 -0.803959 3.34961e-21)
(1.89449 -0.701448 -3.65899e-21)
(1.97081 -0.590819 0)
(2.03626 -0.473231 -4.19684e-21)
(2.09034 -0.349613 0)
(2.13256 -0.220759 0)
(2.16235 -0.0874079 -4.6693e-21)
(2.17926 0.049667 0)
(2.18306 0.189739 -8.54409e-22)
(2.17379 0.332173 0)
(2.15179 0.476318 0)
(2.11727 0.621201 8.40795e-22)
(2.06975 0.764933 -3.92783e-21)
(2.00734 0.90377 -4.44375e-21)
(1.9262 1.03099 -3.33155e-21)
(1.82055 1.13631 0)
(1.68383 1.20674 -6.10892e-21)
(1.51118 1.22938 0)
(1.30272 1.19619 -2.74184e-21)
(1.06607 1.10885 0)
(0.816104 0.980691 0)
(0.571343 0.832781 2.30521e-21)
(0.348903 0.684547 0)
(0.159993 0.548252 -2.36195e-21)
(0.0082537 0.432308 -1.60179e-23)
(-0.110236 0.348419 5.08112e-21)
(-0.211263 0.308031 -5.1838e-21)
(-0.314945 0.313034 0)
(-0.436137 0.356665 0)
(-0.582698 0.430023 -2.80748e-21)
(-0.758364 0.526501 0)
(-0.964994 0.64073 -3.56519e-21)
(-1.20251 0.767734 3.86181e-21)
(-1.46806 0.901414 4.22027e-21)
(-1.75641 1.03423 0)
(-2.06125 1.15817 -5.14786e-21)
(-2.3758 1.26605 -5.72368e-21)
(-2.69405 1.35236 1.36055e-20)
(-3.01119 1.41329 -7.09333e-21)
(-3.32421 1.44634 -7.87592e-21)
(-3.63104 1.45058 0)
(-3.9291 1.42695 0)
(-4.21581 1.3771 1.04387e-20)
(-4.48861 1.30197 0)
(-4.74435 1.20265 0)
(-4.97914 1.08044 -2.56031e-20)
(-5.18854 0.936801 -2.67789e-20)
(-5.36776 0.773419 0)
(-5.51193 0.592382 0)
(-5.61644 0.3962 0)
(-5.6773 0.187813 0)
(-5.69146 -0.0294103 -2.60526e-20)
(-5.65692 -0.251735 2.85152e-20)
(-5.57256 -0.475332 2.1239e-20)
(-5.43796 -0.696342 4.0307e-20)
(-5.25337 -0.911263 0)
(-5.02013 -1.11675 4.22145e-21)
(-4.74119 -1.30906 0)
(-4.41769 -1.48561 -1.22258e-22)
(-4.05216 -1.64442 3.72844e-21)
(-3.64976 -1.78236 1.01845e-20)
(-3.21333 -1.89684 -1.53235e-20)
(-2.74569 -1.98476 3.09189e-21)
(-2.24915 -2.0421 0)
(-1.72566 -2.06351 -2.66933e-20)
(-1.17735 -2.0422 -3.29476e-20)
(-0.607455 -1.97077 -7.0587e-20)
(-0.0219744 -1.8439 0)
(0.56325 -1.66411 3.86488e-20)
(1.12465 -1.44382 0)
(1.63697 -1.2011 -7.94811e-20)