/*--------------------------------*- C++ -*----------------------------------*\
| =========                 |                                                 |
| \\      /  F ield         | OpenFOAM: The Open Source CFD Toolbox           |
|  \\    /   O peration     | Version:  2112                                  |
|   \\  /    A nd           | Website:  www.openfoam.com                      |
|    \\/     M anipulation  |                                                 |
\*---------------------------------------------------------------------------*/
FoamFile
{
    version     2.0;
    format      ascii;
    arch        "LSB;label=32;scalar=64";
    class       volVectorField;
    location    "0.34";
    object      ddt0(U);
}
// * * * * * * * * * * * * * * * * * * * * * * * * * * * * * * * * * * * * * //

dimensions      [0 1 -2 0 0 0 0];

internalField   nonuniform List<vector> 
12225
(
(0.0284659 -0.00972482 0)
(0.161351 -0.017796 0)
(0.334197 -0.0120742 0)
(0.456554 0.00778764 0)
(0.452928 0.0390022 0)
(0.302031 0.0705071 0)
(0.0578424 0.0818291 0)
(-0.144173 0.0520334 0)
(-0.09301 -0.0375157 0)
(0.486163 -0.202511 0)
(1.91299 -0.457706 0)
(4.55912 -0.825486 0)
(8.85732 -1.33828 0)
(15.3219 -2.05071 0)
(24.595 -3.05467 0)
(37.6518 -4.46832 0)
(55.6941 -6.3397 0)
(81.4882 -9.40447 0)
(-0.00302768 -0.0200318 0)
(0.0631626 -0.0474081 0)
(0.251388 -0.0569414 0)
(0.557397 -0.0477344 0)
(0.951532 -0.0197318 0)
(1.39058 0.0166658 0)
(1.84388 0.0358447 0)
(2.31931 0.00465401 0)
(2.87977 -0.115095 0)
(3.65446 -0.365261 0)
(4.83961 -0.790886 0)
(6.71212 -1.45288 0)
(9.64259 -2.421 0)
(14.112 -3.792 0)
(20.752 -5.739 0)
(30.5136 -8.52612 0)
(44.5679 -12.6194 0)
(65.4639 -19.444 0)
(0.00494433 -0.0286264 0)
(0.0800122 -0.08164 0)
(0.245594 -0.118533 0)
(0.497619 -0.139293 0)
(0.854892 -0.14606 0)
(1.34894 -0.151678 0)
(1.99887 -0.178928 0)
(2.81439 -0.261034 0)
(3.78435 -0.445491 0)
(4.93313 -0.787682 0)
(6.30343 -1.34946 0)
(7.99469 -2.22564 0)
(10.184 -3.53121 0)
(13.1395 -5.41261 0)
(17.2411 -8.12441 0)
(23.0316 -12.0782 0)
(31.1024 -18.0321 0)
(41.48 -27.4091 0)
(0.00907091 -0.0376389 0)
(0.0938279 -0.110078 0)
(0.25711 -0.169653 0)
(0.499746 -0.219081 0)
(0.813924 -0.265905 0)
(1.25036 -0.312412 0)
(1.8026 -0.392811 0)
(2.49559 -0.543037 0)
(3.36256 -0.808107 0)
(4.42353 -1.24618 0)
(5.69063 -1.93307 0)
(7.23781 -2.95815 0)
(8.91902 -4.47024 0)
(10.9202 -6.68037 0)
(13.3061 -9.89685 0)
(16.0719 -14.5945 0)
(19.037 -21.3929 0)
(21.5044 -31.337 0)
(0.0105294 -0.0497389 0)
(0.0990148 -0.143468 0)
(0.266408 -0.224762 0)
(0.505442 -0.296477 0)
(0.808255 -0.365798 0)
(1.17428 -0.453045 0)
(1.64045 -0.582773 0)
(2.21617 -0.78778 0)
(2.9199 -1.11785 0)
(3.76763 -1.63441 0)
(4.78462 -2.4086 0)
(5.98167 -3.56073 0)
(7.48987 -5.2059 0)
(9.23953 -7.52994 0)
(11.2157 -10.8455 0)
(13.3162 -15.538 0)
(15.3175 -22.0399 0)
(16.8467 -30.9089 0)
(0.010403 -0.06446 0)
(0.0986455 -0.182685 0)
(0.266037 -0.283206 0)
(0.499363 -0.374624 0)
(0.794622 -0.468016 0)
(1.14757 -0.587786 0)
(1.58239 -0.753297 0)
(2.10893 -1.00465 0)
(2.73839 -1.39174 0)
(3.48198 -1.97568 0)
(4.35842 -2.83316 0)
(5.36817 -4.06934 0)
(6.56086 -5.82123 0)
(7.88823 -8.28165 0)
(9.29887 -11.6994 0)
(10.6453 -16.3953 0)
(11.6759 -22.7098 0)
(11.8384 -31.1456 0)
(0.00986308 -0.0793553 0)
(0.0948287 -0.223364 0)
(0.256634 -0.347788 0)
(0.480466 -0.463161 0)
(0.761208 -0.581059 0)
(1.10106 -0.722724 0)
(1.50753 -0.919696 0)
(1.98856 -1.20984 0)
(2.55224 -1.64199 0)
(3.20425 -2.27868 0)
(3.95082 -3.19734 0)
(4.78444 -4.50699 0)
(5.69023 -6.33568 0)
(6.62669 -8.84182 0)
(7.50624 -12.2425 0)
(8.14299 -16.7986 0)
(8.25458 -22.762 0)
(7.31624 -30.4497 0)
(0.00921519 -0.0942872 0)
(0.0891905 -0.264616 0)
(0.241619 -0.412314 0)
(0.451253 -0.550554 0)
(0.710367 -0.693333 0)
(1.02004 -0.864408 0)
(1.3828 -1.09463 0)
(1.80144 -1.42209 0)
(2.27823 -1.89567 0)
(2.81208 -2.5771 0)
(3.39764 -3.54192 0)
(4.01671 -4.8898 0)
(4.63204 -6.73629 0)
(5.17948 -9.22071 0)
(5.54861 -12.5169 0)
(5.54254 -16.8172 0)
(4.88623 -22.2828 0)
(3.12021 -29.0906 0)
(0.00848516 -0.109097 0)
(0.0821897 -0.305821 0)
(0.222245 -0.476124 0)
(0.413192 -0.635719 0)
(0.644861 -0.800831 0)
(0.915162 -0.995739 0)
(1.2226 -1.25133 0)
(1.5644 -1.60596 0)
(1.93585 -2.10753 0)
(2.32757 -2.81509 0)
(2.72279 -3.79959 0)
(3.0908 -5.14885 0)
(3.37914 -6.9636 0)
(3.50554 -9.35861 0)
(3.34534 -12.4622 0)
(2.70384 -16.4016 0)
(1.32923 -21.2602 0)
(-1.16687 -27.1197 0)
(0.00764797 -0.123488 0)
(0.0738518 -0.345978 0)
(0.198764 -0.537761 0)
(0.366783 -0.716645 0)
(0.565704 -0.900306 0)
(0.789928 -1.11294 0)
(1.03371 -1.38521 0)
(1.28874 -1.75455 0)
(1.54323 -2.26646 0)
(1.77929 -2.97552 0)
(1.96949 -3.94556 0)
(2.07139 -5.25121 0)
(2.02065 -6.97488 0)
(1.72372 -9.2037 0)
(1.05028 -12.0238 0)
(-0.184023 -15.507 0)
(-2.19968 -19.676 0)
(-5.31872 -24.5437 0)
(0.00667988 -0.137111 0)
(0.0641568 -0.38386 0)
(0.171285 -0.595132 0)
(0.312386 -0.79024 0)
(0.473607 -0.987592 0)
(0.64601 -1.21088 0)
(0.819706 -1.48966 0)
(0.981209 -1.85921 0)
(1.11226 -2.36124 0)
(1.18735 -3.04416 0)
(1.17026 -3.96248 0)
(1.00957 -5.17625 0)
(0.633359 -6.74758 0)
(-0.0563266 -8.73574 0)
(-1.18687 -11.1896 0)
(-2.9251 -14.1356 0)
(-5.45482 -17.552 0)
(-9.03749 -21.4067 0)
(0.00569544 -0.148652 0)
(0.0541041 -0.415435 0)
(0.142677 -0.641834 0)
(0.255811 -0.848006 0)
(0.378526 -1.0524 0)
(0.499181 -1.27773 0)
(0.604449 -1.55169 0)
(0.676727 -1.90661 0)
(0.692828 -2.37954 0)
(0.621736 -3.01193 0)
(0.421583 -3.84836 0)
(0.0360548 -4.93465 0)
(-0.60922 -6.31407 0)
(-1.61033 -8.02188 0)
(-3.08537 -10.0776 0)
(-5.1802 -12.4756 0)
(-8.04335 -15.1651 0)
(-11.8862 -18.0907 0)
(0.00463223 -0.158618 0)
(0.0431673 -0.442511 0)
(0.111607 -0.680866 0)
(0.194703 -0.893973 0)
(0.276714 -1.09976 0)
(0.34372 -1.31945 0)
(0.37948 -1.57826 0)
(0.363028 -1.90479 0)
(0.267389 -2.33066 0)
(0.0576707 -2.88963 0)
(-0.311356 -3.6158 0)
(-0.897811 -4.54102 0)
(-1.77479 -5.69095 0)
(-3.03215 -7.07975 0)
(-4.77445 -8.70329 0)
(-7.12408 -10.5321 0)
(-10.195 -12.4966 0)
(-14.1545 -14.5284 0)
(0.0033015 -0.167593 0)
(0.0297083 -0.466535 0)
(0.073566 -0.71351 0)
(0.120288 -0.928266 0)
(0.153844 -1.12746 0)
(0.15841 -1.32994 0)
(0.115263 -1.55732 0)
(0.000788064 -1.83313 0)
(-0.214628 -2.18204 0)
(-0.568 -2.6285 0)
(-1.10534 -3.19453 0)
(-1.88305 -3.89694 0)
(-2.96843 -4.74357 0)
(-4.43977 -5.7288 0)
(-6.38255 -6.82837 0)
(-8.89104 -7.99511 0)
(-12.0418 -9.14927 0)
(-15.9587 -10.217 0)
(0.0016555 -0.174071 0)
(0.0135892 -0.482774 0)
(0.0285179 -0.731752 0)
(0.0329663 -0.939191 0)
(0.011436 -1.11948 0)
(-0.0529432 -1.28798 0)
(-0.180359 -1.46151 0)
(-0.395626 -1.65721 0)
(-0.728948 -1.89144 0)
(-1.21669 -2.17822 0)
(-1.90203 -2.52688 0)
(-2.83517 -2.93952 0)
(-4.07265 -3.40798 0)
(-5.67601 -3.91063 0)
(-7.70737 -4.4093 0)
(-10.2305 -4.84766 0)
(-13.2855 -5.14554 0)
(-16.9568 -5.23336 0)
(-0.000278801 -0.175694 0)
(-0.00475789 -0.484185 0)
(-0.0219442 -0.724059 0)
(-0.063422 -0.910602 0)
(-0.142887 -1.05471 0)
(-0.276776 -1.16721 0)
(-0.484961 -1.25901 0)
(-0.791161 -1.3399 0)
(-1.22321 -1.41738 0)
(-1.81321 -1.49499 0)
(-2.5973 -1.57043 0)
(-3.61495 -1.6335 0)
(-4.90748 -1.66419 0)
(-6.51628 -1.63102 0)
(-8.47849 -1.49003 0)
(-10.8282 -1.18524 0)
(-13.5751 -0.645852 0)
(-16.7694 0.186675 0)
(-0.00235973 -0.169337 0)
(-0.023879 -0.461799 0)
(-0.0733419 -0.676346 0)
(-0.15922 -0.823958 0)
(-0.291689 -0.910964 0)
(-0.484622 -0.942874 0)
(-0.755061 -0.924265 0)
(-1.12264 -0.85761 0)
(-1.60937 -0.742264 0)
(-2.2393 -0.573175 0)
(-3.0377 -0.339553 0)
(-4.02987 -0.023732 0)
(-5.23942 0.399664 0)
(-6.68704 0.964408 0)
(-8.3873 1.71266 0)
(-10.3496 2.69091 0)
(-12.5616 3.95273 0)
(-15.0469 5.54152 0)
(-0.00431055 -0.151678 0)
(-0.0409128 -0.406603 0)
(-0.117285 -0.575586 0)
(-0.237327 -0.664131 0)
(-0.405803 -0.673385 0)
(-0.63157 -0.603525 0)
(-0.926057 -0.453371 0)
(-1.30187 -0.219403 0)
(-1.7723 0.104852 0)
(-2.35076 0.529559 0)
(-3.0498 1.06918 0)
(-3.87993 1.74265 0)
(-4.84755 2.57271 0)
(-5.95362 3.58669 0)
(-7.19711 4.82473 0)
(-8.57343 6.31079 0)
(-10.0585 8.08133 0)
(-11.6571 10.1632 0)
(-0.00566975 -0.121344 0)
(-0.0512487 -0.315289 0)
(-0.140745 -0.41981 0)
(-0.272206 -0.435222 0)
(-0.443569 -0.3582 0)
(-0.656653 -0.184967 0)
(-0.915074 0.0892233 0)
(-1.2225 0.470844 0)
(-1.58218 0.968338 0)
(-1.99662 1.59246 0)
(-2.46705 2.35649 0)
(-2.9938 3.27607 0)
(-3.57287 4.36958 0)
(-4.17421 5.6554 0)
(-4.80315 7.13765 0)
(-5.45756 8.84633 0)
(-6.09814 10.7913 0)
(-6.72654 12.9887 0)
(-0.00536685 -0.0895874 0)
(-0.0495369 -0.223167 0)
(-0.13394 -0.271015 0)
(-0.251439 -0.230219 0)
(-0.394387 -0.0952622 0)
(-0.558958 0.139051 0)
(-0.742694 0.478184 0)
(-0.942704 0.928444 0)
(-1.15529 1.49702 0)
(-1.37573 2.19213 0)
(-1.59767 3.02306 0)
(-1.81106 3.99989 0)
(-2.00526 5.13327 0)
(-2.19793 6.43206 0)
(-2.35315 7.89581 0)
(-2.43984 9.53866 0)
(-2.45972 11.3624 0)
(-2.3948 13.3736 0)
(-0.00493527 -0.0656283 0)
(-0.0451792 -0.156495 0)
(-0.119408 -0.169254 0)
(-0.21731 -0.0991275 0)
(-0.328087 0.0601236 0)
(-0.444509 0.313794 0)
(-0.56045 0.666871 0)
(-0.669281 1.1245 0)
(-0.763669 1.69194 0)
(-0.835565 2.37467 0)
(-0.876002 3.17826 0)
(-0.875077 4.10809 0)
(-0.823471 5.16782 0)
(-0.713438 6.36068 0)
(-0.52864 7.70567 0)
(-0.251565 9.18911 0)
(0.130996 10.8151 0)
(0.627142 12.5835 0)
(-0.0043625 -0.0471123 0)
(-0.0394195 -0.106086 0)
(-0.101455 -0.0957816 0)
(-0.178081 -0.0105418 0)
(-0.256666 0.155948 0)
(-0.327923 0.40861 0)
(-0.383564 0.751562 0)
(-0.414867 1.18853 0)
(-0.412539 1.72284 0)
(-0.366836 2.35764 0)
(-0.267385 3.09579 0)
(-0.103241 3.94032 0)
(0.136349 4.89355 0)
(0.462432 5.95773 0)
(0.886945 7.13564 0)
(1.42102 8.42425 0)
(2.07504 9.81937 0)
(2.85723 11.3194 0)
(-0.00377461 -0.0331344 0)
(-0.0335544 -0.0693405 0)
(-0.0836348 -0.0455517 0)
(-0.140273 0.0442989 0)
(-0.189887 0.206434 0)
(-0.222149 0.445292 0)
(-0.227718 0.763977 0)
(-0.196927 1.16477 0)
(-0.11958 1.64916 0)
(0.0147659 2.21822 0)
(0.217527 2.87205 0)
(0.500265 3.61343 0)
(0.873439 4.44422 0)
(1.34745 5.36363 0)
(1.93258 6.36969 0)
(2.63793 7.4594 0)
(3.4708 8.62827 0)
(4.43817 9.87462 0)
(-0.00324029 -0.0227914 0)
(-0.0281106 -0.04329 0)
(-0.0672682 -0.0127692 0)
(-0.106088 0.0749182 0)
(-0.130675 0.226017 0)
(-0.130629 0.444832 0)
(-0.0965598 0.733643 0)
(-0.0187554 1.09346 0)
(0.113081 1.52409 0)
(0.308928 2.02458 0)
(0.58279 2.5901 0)
(0.947138 3.2203 0)
(1.40941 3.91972 0)
(1.97717 4.68796 0)
(2.66032 5.52278 0)
(3.46845 6.41993 0)
(4.4082 7.37394 0)
(5.48724 8.3835 0)
(-0.00278095 -0.0152218 0)
(-0.0232711 -0.0252694 0)
(-0.052945 0.00740967 0)
(-0.0766303 0.0888631 0)
(-0.0808952 0.225022 0)
(-0.0562734 0.420207 0)
(0.00584036 0.676068 0)
(0.114779 0.992716 0)
(0.280241 1.36908 0)
(0.510158 1.80271 0)
(0.818047 2.28644 0)
(1.20291 2.83574 0)
(1.68865 3.43334 0)
(2.28436 4.07477 0)
(2.99836 4.76272 0)
(3.83952 5.49526 0)
(4.81546 6.26453 0)
(5.93604 7.06834 0)
(-0.00239619 -0.00961891 0)
(-0.0191754 -0.0128335 0)
(-0.0413586 0.0190944 0)
(-0.0541121 0.0924789 0)
(-0.048249 0.215914 0)
(-0.0139746 0.391779 0)
(0.0574961 0.620494 0)
(0.175768 0.901657 0)
(0.348532 1.23364 0)
(0.587367 1.61682 0)
(0.886902 2.03233 0)
(1.24313 2.48591 0)
(1.70891 2.98847 0)
(2.28924 3.51791 0)
(2.98795 4.07252 0)
(3.82104 4.64912 0)
(4.78237 5.25028 0)
(5.88381 5.87519 0)
(-0.00203314 -0.00577815 0)
(-0.0164739 -0.00424638 0)
(-0.0348874 0.0266251 0)
(-0.0444769 0.0935527 0)
(-0.0424804 0.203305 0)
(-0.0135951 0.36126 0)
(0.0460417 0.566822 0)
(0.141399 0.818096 0)
(0.274343 1.11182 0)
(0.455701 1.4452 0)
(0.679415 1.82025 0)
(1.00474 2.20558 0)
(1.40287 2.61153 0)
(1.88453 3.03104 0)
(2.46088 3.48144 0)
(3.17665 3.94365 0)
(3.99723 4.40267 0)
(4.93875 4.88299 0)
(-0.000793471 -0.00389283 0)
(-0.0148688 -0.000980495 0)
(-0.0381823 0.0268452 0)
(-0.0696686 0.0896136 0)
(-0.102322 0.196134 0)
(-0.138892 0.348432 0)
(-0.194861 0.54733 0)
(-0.270913 0.794701 0)
(-0.355828 1.08572 0)
(-0.425603 1.41442 0)
(-0.446839 1.76563 0)
(-0.384717 2.1257 0)
(-0.203208 2.49209 0)
(0.128204 2.85956 0)
(0.655806 3.21828 0)
(1.34314 3.57928 0)
(2.25438 3.93808 0)
(3.40438 4.29897 0)
(-0.00485621 0.00281884 0)
(-0.047226 0.0188593 0)
(-0.130381 0.0605265 0)
(-0.239724 0.136561 0)
(-0.335677 0.249854 0)
(-0.385255 0.405171 0)
(-0.314765 0.602156 0)
(-0.0531897 0.835049 0)
(0.464021 1.09211 0)
(1.2884 1.36106 0)
(2.4551 1.6282 0)
(3.97729 1.88023 0)
(5.85276 2.11379 0)
(8.06918 2.32317 0)
(10.6083 2.51069 0)
(13.4516 2.67579 0)
(16.5703 2.8117 0)
(19.9379 2.92109 0)
(0.00214692 0.00458321 0)
(0.0452771 0.02162 0)
(0.194479 0.0547273 0)
(0.531204 0.107909 0)
(1.13404 0.181222 0)
(2.07248 0.271294 0)
(3.39095 0.373107 0)
(5.10291 0.478697 0)
(7.19411 0.576182 0)
(9.62691 0.655492 0)
(12.3447 0.709558 0)
(15.2721 0.734182 0)
(18.3332 0.731956 0)
(21.4604 0.706899 0)
(24.5983 0.665325 0)
(27.7057 0.612187 0)
(30.7459 0.54717 0)
(33.6739 0.480667 0)
(0.370646 -1.5153 4.04506e-19)
(0.553537 -1.05546 -3.93759e-19)
(0.340517 -0.368982 0)
(-0.644803 0.675361 0)
(-2.43374 2.4841 0)
(-5.41106 4.33555 3.74908e-19)
(-9.77249 5.78718 0)
(-15.1035 6.97451 0)
(-21.1831 7.88345 0)
(-27.8092 8.59603 0)
(-34.9613 9.26784 -3.57978e-19)
(-42.7525 9.99966 0)
(-51.3028 10.8185 0)
(-60.7212 11.7041 0)
(-71.0835 12.6361 0)
(-82.4395 13.6072 -3.49331e-19)
(-94.818 14.6101 0)
(-108.218 15.6368 0)
(-122.603 16.6882 0)
(-137.941 17.7887 0)
(-154.139 19.0335 0)
(-171.639 20.6862 0)
(-186.352 23.3544 0)
(-204.823 23.3644 -3.4448e-19)
(-223.231 21.7505 3.45334e-19)
(-239.682 18.9452 -3.37944e-19)
(-254.116 15.6233 -3.30282e-19)
(-265.575 9.03407 0)
(-273.484 1.42353 0)
(-277.605 -4.51727 2.97085e-19)
(-277.776 -10.5615 2.8506e-19)
(-274.22 -15.3448 0)
(-267.168 -19.1416 0)
(-256.806 -22.2224 2.46032e-19)
(-243.408 -24.2112 0)
(-227.498 -24.8515 0)
(-209.756 -24.115 -2.11067e-19)
(-190.972 -22.0504 0)
(-172.037 -18.8113 -1.94019e-19)
(-153.875 -14.7297 -3.75562e-19)
(-137.315 -10.3171 0)
(-122.966 -6.15652 0)
(-111.123 -2.70645 0)
(-101.82 -0.123485 0)
(-94.943 1.72222 0)
(-90.3692 3.0629 -3.49803e-19)
(-87.4706 3.83524 -3.47715e-19)
(-86.2911 4.42436 -3.44452e-19)
(-86.6942 5.30063 0)
(-89.0677 7.8034 3.3021e-19)
(-94.4439 14.0919 0)
(-103.72 18.2766 -3.06731e-19)
(-116.988 17.1151 -2.88976e-19)
(-131.933 14.2525 0)
(-146.56 9.31285 0)
(-156.491 0.784404 0)
(-155.195 -11.5881 -1.63079e-19)
(-136.425 -25.5224 0)
(-98.7575 -37.8189 0)
(-47.1182 -44.9349 0)
(19.376 -35.1833 0)
(64.6481 -12.2547 0)
(90.4332 12.4872 0)
(113.036 29.5408 0)
(162.216 17.3823 0)
(265.706 -15.6076 6.27333e-19)
(415.594 -49.3399 0)
(597.538 -102.028 0)
(798.578 -157.612 -1.60111e-18)
(997.596 -180.737 -1.8678e-18)
(1169.61 -175.338 0)
(1300.05 -152.044 2.23823e-18)
(1383.43 -117.616 -2.39215e-18)
(1419.33 -78.4051 0)
(1411.55 -39.0913 2.5214e-18)
(1366.06 -2.62007 0)
(1289.89 28.3085 0)
(1190.15 52.5764 -2.21346e-18)
(1072.88 73.5052 0)
(943.138 90.67 1.74498e-18)
(805.306 101.978 0)
(664.694 107.371 -1.12979e-18)
(524.752 107.435 -7.67111e-19)
(388.255 102.749 -3.59866e-19)
(259.124 93.5196 7.92003e-20)
(140.385 84.1902 -8.1378e-19)
(28.5637 72.9815 0)
(-77.0805 57.7946 0)
(-142.268 44.0586 0)
(-207.02 38.1231 -2.27656e-18)
(-262.797 34.2394 -2.64858e-18)
(-314.287 31.9782 2.99769e-18)
(-362.947 30.8731 0)
(-410.255 30.4943 -3.61078e-18)
(-457.484 30.3637 -3.87159e-18)
(-505.729 30.1505 -4.10277e-18)
(-555.637 29.8264 0)
(-607.317 30.0233 0)
(-660.261 30.5491 0)
(-713.251 30.5224 -4.60283e-18)
(-764.16 29.0883 0)
(-809.719 25.8091 0)
(-846.011 20.1641 4.14436e-18)
(-868.796 11.4524 0)
(-874.343 -1.01544 0)
(-859.271 -16.3057 2.73442e-18)
(-819.574 -28.2239 0)
(-766.492 -22.6668 0)
(-724.452 -9.98121 -3.96383e-19)
(-684.531 -18.5144 1.83942e-19)
(-625.037 -35.0376 0)
(-548.29 -43.1526 -8.39384e-19)
(-467.51 -46.0466 0)
(-386.384 -47.9892 1.18809e-18)
(-312.015 -43.5947 0)
(-244.859 -37.2613 1.32277e-18)
(-184.778 -31.8778 1.33946e-18)
(-131.721 -26.7918 0)
(-85.8165 -21.9683 0)
(-46.7556 -17.8586 0)
(-13.4115 -14.5256 0)
(15.4138 -11.5309 0)
(44.5273 -10.5541 0)
(68.2599 -8.80062 0)
(87.2874 -6.97851 1.104e-18)
(103.911 -3.71545 -1.00196e-18)
(117.028 -1.56412 0)
(128.338 -0.344317 0)
(138.6 0.891999 0)
(147.792 2.80363 0)
(155.692 5.5012 -1.55341e-18)
(162.084 8.60959 0)
(167.046 11.5198 1.44387e-18)
(171.07 13.0439 -1.3995e-18)
(173.698 11.5192 0)
(173.991 9.23547 0)
(169.966 8.38589 0)
(157.445 10.314 1.37707e-18)
(131.042 14.8398 1.43112e-18)
(86.2765 18.3937 0)
(24.4102 15.2039 1.61201e-18)
(-32.9902 6.29286 2.32733e-18)
(-63.0165 -12.9323 -2.39162e-18)
(-9.33819 -28.084 0)
(112.756 -55.8704 0)
(273.873 -73.3736 -2.70074e-18)
(455.63 -76.511 0)
(640.525 -60.036 0)
(830.9 -51.6062 0)
(1008.46 -62.1978 0)
(1142.01 -49.0494 1.03992e-17)
(1229.05 -32.3841 2.18685e-18)
(1260.72 -18.9257 0)
(1219.58 -0.268439 6.36929e-18)
(1105.5 34.2089 0)
(916.629 86.8656 0)
(660.278 125.111 3.39859e-18)
(355.318 135.252 0)
(0.154473 121.08 -3.86997e-19)
(-311.401 118.683 0)
(-594.53 111.814 0)
(-861.035 99.8714 -6.29211e-18)
(-1095.69 77.0639 0)
(-1255.88 24.4171 -7.80345e-18)
(-1370.68 -16.4586 0)
(-1450.85 0.370397 0)
(-1436.02 3.66536 0)
(-1369.37 -42.882 3.87087e-18)
(-1249.45 -90.6623 0)
(-1064.84 -101.541 -3.56036e-19)
(-867.136 -89.6049 0)
(-683.106 -70.0651 0)
(-527.522 -50.9878 0)
(-401.561 -35.9914 0)
(-300.264 -24.8272 0)
(-218.021 -13.3995 0)
(-151.875 -9.37888 0)
(-94.8831 -14.7361 -3.65727e-18)
(-48.7958 -8.83164 0)
(-7.2095 -4.86759 0)
(-0.958922 -0.223008 -1.20176e-18)
(-2.13165 1.0867 1.16769e-18)
(-4.34073 2.86059 0)
(-7.0904 5.23284 -7.61538e-19)
(-10.4109 8.11014 0)
(-14.2387 11.3823 -3.66929e-19)
(-18.4752 14.4968 7.32199e-19)
(-22.966 16.9834 7.2365e-19)
(-27.615 18.506 0)
(-32.5946 19.6637 7.10359e-19)
(-38.1148 21.3238 3.44286e-19)
(-44.2637 23.213 0)
(-51.213 25.3629 0)
(-59.0674 27.7505 0)
(-67.9596 30.274 0)
(-77.9892 32.8351 3.35336e-19)
(-89.1876 35.3262 0)
(-101.507 37.6177 -6.87874e-19)
(-114.803 39.5884 0)
(-128.817 41.1583 0)
(-143.188 42.3261 6.86141e-19)
(-157.108 43.1255 0)
(-173.39 43.9059 -6.72676e-19)
(-186.275 42.9891 3.35264e-19)
(-198.467 40.5401 -3.36636e-19)
(-211.651 36.8742 3.29636e-19)
(-225.42 32.4198 3.22327e-19)
(-239.567 27.2665 0)
(-253.952 21.2995 0)
(-268.301 14.3799 -2.9151e-19)
(-281.927 6.90037 2.92286e-19)
(-294.206 -0.816186 0)
(-304.45 -8.71921 0)
(-312.11 -16.5725 -2.38026e-19)
(-316.725 -23.9739 0)
(-317.798 -30.5577 0)
(-314.916 -35.9597 2.01483e-19)
(-307.819 -39.8189 0)
(-296.427 -41.8385 -1.76799e-19)
(-280.885 -41.8543 3.56542e-19)
(-261.621 -39.9044 0)
(-239.343 -36.2615 0)
(-214.982 -31.388 6.53135e-19)
(-189.673 -25.7718 6.55614e-19)
(-164.886 -19.8438 6.63388e-19)
(-141.896 -14.1411 -3.31736e-19)
(-122.249 -9.07672 3.41007e-19)
(-106.289 -4.29806 1.02063e-18)
(-94.773 -0.0441924 -6.72245e-19)
(-87.9051 4.55155 -3.26943e-19)
(-85.0337 9.8382 0)
(-85.6784 16.3814 3.02538e-19)
(-89.7271 23.1822 -3.26864e-19)
(-97.1401 27.5153 0)
(-104.415 24.8569 0)
(-104.773 10.4635 0)
(-90.1825 -16.8765 1.63265e-19)
(-55.4714 -51.7253 0)
(-0.0701267 -85.0589 5.52873e-19)
(74.6137 -108.918 0)
(155.536 -107.58 -2.74744e-19)
(264.537 -89.1684 0)
(405.457 -84.0533 7.23097e-19)
(589.883 -125.436 0)
(825.977 -221.842 -1.36519e-18)
(1093.71 -329.077 8.23165e-19)
(1358.09 -394.573 0)
(1562.75 -400.54 2.83032e-18)
(1689.54 -359.903 1.3864e-18)
(1736.8 -285.086 1.65949e-18)
(1708.57 -191.37 0)
(1618.5 -93.8253 2.55496e-18)
(1482.47 -3.17199 2.21605e-18)
(1316.61 73.9303 0)
(1135.77 134.595 -2.4177e-18)
(952.302 178.688 4.96661e-18)
(775.254 207.432 0)
(610.754 222.717 2.24454e-18)
(463.167 227.485 0)
(334.527 224.938 -5.42739e-18)
(224.832 216.955 0)
(132.616 205.754 3.67734e-18)
(56.8458 192.653 8.72339e-19)
(-4.55747 177.207 -4.09444e-19)
(-55.3611 160.607 2.36034e-19)
(-100.715 147.845 -1.55168e-18)
(-136.775 129.885 0)
(-162.613 110.642 0)
(-217.068 94.0628 0)
(-262.957 83.4841 6.76014e-18)
(-308.828 75.6538 2.62252e-18)
(-352.295 70.1516 -2.96281e-18)
(-394.118 66.534 0)
(-435.119 64.6865 -3.53026e-18)
(-476.419 64.6526 3.80619e-18)
(-519.579 66.8015 4.02911e-18)
(-565.774 69.3055 0)
(-615.662 70.9412 0)
(-668.016 70.8812 0)
(-720.626 68.4763 4.51171e-18)
(-770.938 62.4769 0)
(-816.315 51.9372 -8.74878e-18)
(-853.265 36.3659 -1.23401e-17)
(-878.476 15.6907 7.54793e-18)
(-889.889 -9.42799 0)
(-887.511 -36.4376 2.87794e-18)
(-872.256 -58.0439 0)
(-841.271 -61.8005 1.83599e-18)
(-791.005 -58.2574 -1.86904e-19)
(-727.019 -67.5135 1.99115e-19)
(-655.75 -83.2858 0)
(-581.065 -92.9541 2.55618e-18)
(-501.281 -92.3313 -2.07526e-18)
(-425.688 -85.4554 -1.15891e-18)
(-356.833 -77.4628 0)
(-289.771 -71.4145 -1.27203e-18)
(-227.406 -64.3067 -3.83498e-18)
(-170.2 -55.871 0)
(-119.629 -47.2426 -2.48848e-18)
(-76.3271 -39.5032 -2.41879e-18)
(-40.3178 -33.3365 -2.33414e-18)
(-9.8224 -29.4851 0)
(11.7556 -28.8834 0)
(29.3555 -29.0224 0)
(51.5828 -22.4915 1.25663e-18)
(77.9006 -18.3879 1.00062e-18)
(102.633 -17.0241 0)
(125.892 -15.4079 1.73861e-18)
(146.8 -14.0576 1.67222e-18)
(164.359 -13.0911 0)
(178.051 -12.386 1.55136e-18)
(187.869 -11.7796 3.03228e-18)
(194.142 -10.8717 -1.45177e-18)
(197.283 -9.35058 -1.45214e-18)
(198.722 -7.40224 0)
(199.613 -3.4201 0)
(199.585 3.83812 0)
(197.047 15.0145 -1.34403e-18)
(186.84 30.0593 1.2916e-18)
(156.127 46.6246 2.64139e-18)
(91.5292 57.7714 -1.55812e-18)
(1.24679 50.3482 1.12703e-19)
(-55.8981 0.827927 2.43164e-18)
(-48.9748 -70.6344 0)
(85.1788 -128.046 0)
(341.38 -162.102 -2.47494e-18)
(650.755 -177.526 0)
(958.058 -185.62 0)
(1220.34 -182.376 1.22968e-17)
(1406.79 -145.568 0)
(1502.04 -93.6311 5.56349e-18)
(1500.78 -28.8912 -2.21932e-18)
(1405.36 35.612 0)
(1224 98.0841 7.23612e-18)
(977.819 151.898 0)
(696.427 192.627 0)
(408.503 221.613 -3.34964e-18)
(141.507 232.375 8.49308e-19)
(-93.7027 209.875 3.95519e-19)
(-359.413 216.2 0)
(-627.785 205.542 0)
(-882.034 183.876 -6.17611e-18)
(-1114.92 146.181 0)
(-1318.84 112.391 -9.34529e-18)
(-1483.28 97.985 0)
(-1569.69 18.0168 0)
(-1560.88 -34.8413 0)
(-1497.47 -57.1578 -3.75796e-18)
(-1374.6 -92.112 0)
(-1208 -115.817 4.07765e-19)
(-1016.46 -118.013 0)
(-825.035 -106.383 0)
(-650.928 -89.3091 3.27211e-18)
(-498.042 -73.2803 -3.64807e-18)
(-370.635 -58.6382 0)
(-266.46 -47.8512 0)
(-190.114 -46.4312 0)
(-132.016 -36.7138 9.05248e-18)
(-68.9608 -31.3182 0)
(-9.68918 -29.508 -6.3696e-18)
(-1.43104 4.45763 -1.68372e-21)
(-3.64564 6.70136 -1.54681e-18)
(-6.47024 9.38049 0)
(-9.3419 12.8685 1.51455e-18)
(-12.1126 16.57 0)
(-14.5613 19.9147 0)
(-16.5215 22.5678 1.07187e-20)
(-17.6917 24.4895 -7.1744e-19)
(-18.567 26.1763 -7.25974e-19)
(-20.3497 28.4414 -7.0919e-19)
(-22.4147 31.0752 0)
(-24.8382 34.2715 0)
(-28.5251 38.0061 7.08489e-19)
(-33.5318 42.2796 1.41323e-18)
(-40.0879 46.9732 -1.41143e-18)
(-48.3646 51.8673 0)
(-58.3845 56.6917 -1.41153e-18)
(-70.0595 61.1582 6.89874e-19)
(-83.2056 64.9844 0)
(-97.5622 67.9168 -1.41168e-18)
(-112.836 69.7257 -6.87606e-19)
(-128.72 70.1912 1.41277e-18)
(-145.083 68.8786 6.73123e-19)
(-161.304 67.3435 0)
(-176.934 65.1055 -1.3975e-18)
(-191.623 62.0438 -1.37941e-18)
(-205.479 57.9156 0)
(-218.797 52.6215 -1.31005e-18)
(-231.696 46.2019 0)
(-244.154 38.6475 -1.21506e-18)
(-256.165 30.0367 -5.69073e-19)
(-267.777 20.5615 0)
(-278.886 10.2967 0)
(-289.434 -0.604008 0)
(-299.046 -11.9439 0)
(-307.307 -23.4312 0)
(-313.622 -34.7004 0)
(-317.286 -45.3212 -7.4347e-19)
(-317.561 -54.8159 1.05476e-18)
(-313.748 -62.7062 0)
(-305.28 -68.5948 0)
(-291.825 -72.257 0)
(-273.276 -73.6224 -3.25455e-20)
(-249.861 -72.1052 -6.4098e-19)
(-222.516 -67.0146 -1.2783e-18)
(-192.804 -58.9008 1.31308e-18)
(-162.107 -48.7994 6.72584e-19)
(-132.688 -37.3613 -6.70221e-19)
(-105.623 -23.8204 -5.93316e-21)
(-81.9727 -9.15747 -6.83247e-19)
(-63.8664 5.81093 0)
(-51.7037 19.8359 -6.69182e-19)
(-44.861 30.816 -4.87246e-20)
(-40.3603 34.2602 0)
(-30.633 21.8685 0)
(-4.74241 -14.1051 6.12987e-19)
(47.1085 -73.7675 0)
(129.088 -146.064 0)
(234.298 -211.328 -1.49995e-18)
(364.897 -254.689 -7.53427e-19)
(522.093 -286.496 2.95505e-19)
(718.888 -324.077 0)
(972.29 -400.108 -7.64606e-19)
(1265.8 -516.75 0)
(1536.73 -612.336 -1.91077e-18)
(1718.17 -632.434 -1.15682e-18)
(1793.16 -574.507 5.50167e-18)
(1763.27 -454.571 4.10735e-18)
(1648.68 -303.515 0)
(1475.7 -144.917 -8.78928e-18)
(1272.64 4.11713 0)
(1064.65 130.829 -1.45947e-17)
(870.801 228.619 -1.03223e-17)
(702.605 296.389 -1.03927e-17)
(564.696 337.093 1.02552e-17)
(456.367 355.803 -1.50196e-17)
(373.23 357.993 0)
(308.961 348.928 0)
(257.456 333.048 7.90569e-18)
(213.671 313.028 1.06014e-17)
(173.352 290.543 0)
(133.424 267.099 -2.44367e-18)
(91.8331 244.013 0)
(47.4035 222.694 3.18637e-18)
(2.73923 202.998 -1.08897e-18)
(-49.2298 180.958 2.11051e-18)
(-103.886 167.295 1.5474e-18)
(-153.08 154.902 0)
(-199.665 142.856 -3.62483e-18)
(-243.345 130.287 -8.92531e-21)
(-285.156 120.238 0)
(-325.23 112.882 0)
(-364.181 108.333 0)
(-402.937 106.795 7.08297e-18)
(-443.368 107.828 0)
(-486.12 111.535 0)
(-531.078 117.259 0)
(-579.267 121.985 0)
(-630.193 123.809 0)
(-682.861 121.108 9.01402e-18)
(-734.885 112.543 0)
(-782.781 96.6653 8.68914e-18)
(-822.543 72.9502 8.2036e-18)
(-850.523 42.0282 -7.49178e-18)
(-864.409 6.15676 0)
(-863.866 -31.213 -5.63399e-18)
(-849.588 -65.5236 0)
(-818.585 -90.8324 -1.7421e-18)
(-768.004 -113.19 4.40266e-19)
(-706.185 -133.632 -9.21594e-19)
(-641.463 -151.372 0)
(-577.651 -163.049 -4.70443e-18)
(-513.232 -165.44 -1.91488e-18)
(-446.702 -156.044 0)
(-375.592 -142.326 -4.9423e-18)
(-307.351 -130.057 -4.93388e-18)
(-246.176 -117.775 7.50572e-18)
(-188.532 -104.187 0)
(-135.735 -89.9115 2.46616e-18)
(-89.4856 -76.2437 2.39826e-18)
(-50.6783 -64.3786 6.95707e-18)
(-19.3169 -54.4749 0)
(4.97955 -46.3852 0)
(26.8169 -41.4293 0)
(44.7057 -35.9125 1.54514e-18)
(57.2805 -35.8274 0)
(72.7294 -34.4417 0)
(92.7128 -32.294 -1.71797e-18)
(114.801 -28.7777 -1.65419e-18)
(138.104 -23.9092 0)
(160.974 -18.22 0)
(181.592 -12.515 -3.01349e-18)
(198.653 -7.62026 0)
(211.475 -3.95079 2.87021e-18)
(219.905 -0.712837 2.77582e-18)
(224.131 2.8069 0)
(224.941 8.45158 0)
(223.608 19.7753 -2.63871e-18)
(219.675 42.3352 -1.16732e-19)
(207.464 79.4772 -1.84885e-19)
(176.565 117.435 0)
(121.992 110.563 -3.7034e-18)
(73.496 18.123 0)
(102.64 -146.386 0)
(261.707 -291.669 0)
(539.498 -375.007 5.39064e-18)
(870.576 -396.444 0)
(1172.02 -367.965 -1.74043e-17)
(1382.49 -299.299 -1.21303e-17)
(1480.39 -202.496 0)
(1481.74 -92.0145 -1.55056e-17)
(1399.36 23.7053 0)
(1251.39 131.104 0)
(1060.36 227.141 -4.22757e-17)
(845.625 302.023 2.62476e-17)
(623.643 352.934 0)
(396.401 378.165 1.26783e-17)
(152.903 384.163 -8.85425e-19)
(-91.0005 381.025 0)
(-342.519 373.13 0)
(-598.029 354.972 0)
(-842.237 326.548 3.71764e-17)
(-1083.11 284.547 0)
(-1308.52 229.49 1.70818e-17)
(-1479.15 147.166 0)
(-1571.11 51.2271 0)
(-1586.25 -44.0324 0)
(-1533.35 -124.476 0)
(-1414.51 -188.316 0)
(-1255.18 -226.145 0)
(-1077.87 -232.782 -2.47721e-18)
(-902.265 -215.103 0)
(-742.593 -185.723 -3.2639e-18)
(-606.626 -157.432 1.06676e-17)
(-497.741 -131.433 0)
(-408.748 -109.434 0)
(-323.328 -91.2735 -1.73252e-18)
(-231.963 -69.3409 -5.26775e-18)
(-140.147 -62.0414 5.62985e-18)
(-43.0052 -57.2865 6.33899e-18)
(-0.935659 10.5325 2.36894e-18)
(-3.57768 12.7352 2.31084e-18)
(-4.95828 14.9343 1.53592e-18)
(-5.6339 17.5743 7.68024e-19)
(-5.2097 19.742 0)
(-3.4844 21.0507 -1.49864e-18)
(-0.445442 21.7102 7.54582e-19)
(3.7639 22.4651 0)
(7.884 24.2566 7.30528e-19)
(11.8764 27.1123 0)
(15.5467 30.8887 -1.46136e-18)
(17.5538 36.0846 0)
(17.4758 42.6934 -7.18831e-19)
(14.911 50.494 -1.43566e-18)
(9.56296 59.1075 1.43475e-18)
(1.35606 68.008 0)
(-9.58568 76.6252 1.4353e-18)
(-22.973 84.4323 0)
(-38.3931 90.9839 0)
(-55.3641 95.9438 1.43409e-18)
(-73.3913 99.1041 0)
(-91.9972 100.393 2.24987e-20)
(-110.828 99.8141 0)
(-129.393 97.4767 0)
(-147.543 93.7587 -3.20567e-20)
(-165.091 88.7744 1.4074e-18)
(-181.769 82.5623 1.41122e-18)
(-197.472 75.2747 1.33337e-18)
(-211.954 66.6955 0)
(-225.615 57.3453 2.48904e-18)
(-238.286 47.5326 0)
(-250.111 37.3858 1.11827e-18)
(-261.385 26.503 0)
(-272.173 14.899 0)
(-282.334 2.85367 -8.99099e-19)
(-291.823 -9.83855 0)
(-300.384 -23.0867 7.64115e-19)
(-307.631 -36.6636 4.42735e-20)
(-313.067 -50.2454 -1.35034e-18)
(-316.104 -63.4082 1.20597e-18)
(-316.107 -75.6689 0)
(-312.423 -86.4608 0)
(-303.892 -95.4261 4.6187e-19)
(-290.203 -102.051 0)
(-271.138 -104.968 6.24159e-19)
(-247.167 -103.531 -6.4778e-19)
(-218.891 -98.1257 -6.64985e-19)
(-185.541 -88.2209 0)
(-149.248 -72.633 6.71366e-19)
(-113.497 -52.8078 6.81338e-19)
(-80.3212 -30.6679 -1.39074e-18)
(-51.1502 -8.53195 6.67405e-19)
(-24.7008 8.32668 6.55534e-19)
(5.76158 8.14259 0)
(52.3314 -24.5418 0)
(126.324 -96.5244 -6.23772e-19)
(233.205 -199.88 0)
(371.583 -311.418 0)
(540.003 -411.955 9.89846e-19)
(737.325 -494.208 7.65931e-19)
(965.919 -580.657 0)
(1230.54 -686.128 0)
(1495.24 -784.859 0)
(1686.92 -825.377 0)
(1760.63 -774.634 2.80705e-18)
(1709.69 -637.998 -5.51948e-18)
(1558.86 -446.299 -5.30511e-18)
(1347.03 -235.256 -1.46813e-17)
(1113.41 -35.088 0)
(890.652 133.415 -9.14829e-19)
(701.708 260.808 0)
(557.178 346.031 1.02189e-17)
(456.866 394.592 -2.79973e-20)
(392.856 415.359 1.05908e-17)
(353.8 417.624 -1.04234e-17)
(328.472 409.105 2.09801e-19)
(307.821 395.115 0)
(285.663 378.951 -8.68453e-18)
(258.622 362.479 -8.01354e-18)
(225.46 346.25 -1.41181e-17)
(186.214 330.043 0)
(141.69 313.52 5.00043e-18)
(93.4096 296.281 0)
(42.7279 278.356 -5.57568e-18)
(-12.1464 259.589 1.17869e-18)
(-61.3931 236.92 8.18601e-20)
(-108.054 220.624 -1.56104e-18)
(-158.055 204.059 -4.85062e-18)
(-204.643 188.264 3.65402e-18)
(-247.903 173.333 -4.54243e-18)
(-288.54 160.56 0)
(-326.455 151.22 1.20164e-17)
(-362.364 145.795 0)
(-397.518 144.542 1.42485e-17)
(-433.356 147.362 -1.5107e-17)
(-470.571 152.73 -1.58671e-17)
(-511.225 159.935 1.6535e-17)
(-556.423 166.773 1.7126e-17)
(-606.936 170.719 0)
(-661.821 168.87 8.99541e-18)
(-718.178 158.132 0)
(-771.555 136.262 0)
(-816.643 102.664 1.71581e-17)
(-848.102 58.6883 0)
(-862.014 8.04304 0)
(-856.775 -44.0005 1.14512e-17)
(-832.714 -91.9797 0)
(-790.047 -130.155 0)
(-733.387 -159.207 0)