/*--------------------------------*- C++ -*----------------------------------*\
| =========                 |                                                 |
| \\      /  F ield         | OpenFOAM: The Open Source CFD Toolbox           |
|  \\    /   O peration     | Version:  2112                                  |
|   \\  /    A nd           | Website:  www.openfoam.com                      |
|    \\/     M anipulation  |                                                 |
\*---------------------------------------------------------------------------*/
FoamFile
{
    version     2.0;
    format      ascii;
    arch        "LSB;label=32;scalar=64";
    class       volScalarField;
    location    "0.34";
    object      kU;
}
// * * * * * * * * * * * * * * * * * * * * * * * * * * * * * * * * * * * * * //

dimensions      [0 2 -2 0 0 0 0];

internalField   nonuniform List<scalar> 
12225
(
0.399894
0.622133
0.790756
0.936315
1.07828
1.22681
1.38722
1.56288
1.7564
1.96988
2.20476
2.46169
2.74031
3.03919
3.35585
3.68741
4.02877
4.35346
0.124077
0.143975
0.166704
0.192121
0.220502
0.252431
0.28856
0.329251
0.374479
0.423885
0.476865
0.532746
0.590985
0.651385
0.714333
0.781416
0.859276
0.970281
0.113241
0.115524
0.118704
0.122064
0.124901
0.127528
0.130321
0.133614
0.137636
0.14252
0.148342
0.155196
0.163241
0.172749
0.184136
0.198101
0.215795
0.238637
0.112486
0.112632
0.113049
0.113698
0.114518
0.115444
0.116409
0.117359
0.118181
0.118733
0.119043
0.119161
0.119169
0.11917
0.119301
0.119739
0.120731
0.122515
0.112423
0.112355
0.112339
0.112376
0.112478
0.112649
0.112866
0.113122
0.1134
0.113675
0.113926
0.114138
0.114284
0.114339
0.114308
0.114208
0.114073
0.11395
0.112392
0.112286
0.112191
0.11211
0.112058
0.112038
0.112042
0.112064
0.1121
0.112141
0.11218
0.112209
0.112221
0.112209
0.11217
0.112106
0.112022
0.111935
0.112366
0.112233
0.112111
0.112003
0.111915
0.111849
0.111796
0.111752
0.111711
0.11167
0.111624
0.111571
0.11151
0.111438
0.111359
0.111273
0.111186
0.111099
0.112347
0.112198
0.11206
0.111935
0.111828
0.111738
0.11166
0.11159
0.111522
0.111452
0.111377
0.111295
0.111206
0.111112
0.111015
0.110919
0.110825
0.110737
0.112333
0.112174
0.112025
0.111889
0.111769
0.111662
0.111566
0.111477
0.111391
0.111305
0.111215
0.111121
0.111022
0.110921
0.110819
0.11072
0.110627
0.11054
0.112323
0.112155
0.112
0.111856
0.111726
0.111608
0.1115
0.111398
0.111299
0.1112
0.111101
0.111
0.110896
0.110793
0.110692
0.110595
0.110505
0.110423
0.112315
0.112141
0.111979
0.11183
0.111693
0.111567
0.11145
0.111339
0.111232
0.111126
0.111021
0.110916
0.110811
0.110709
0.11061
0.110517
0.110433
0.110359
0.11231
0.112131
0.111965
0.111811
0.111669
0.111538
0.111416
0.111299
0.111187
0.111077
0.110969
0.110863
0.11076
0.11066
0.110565
0.110478
0.1104
0.110334
0.112306
0.112122
0.111952
0.111795
0.111649
0.111514
0.111388
0.111267
0.111152
0.111041
0.110932
0.110827
0.110725
0.110629
0.110539
0.110458
0.110387
0.110328
0.112302
0.112114
0.111941
0.11178
0.111631
0.111492
0.111362
0.111239
0.111122
0.11101
0.110902
0.110799
0.110701
0.11061
0.110526
0.110451
0.110387
0.110337
0.112298
0.112107
0.11193
0.111766
0.111613
0.111472
0.11134
0.111215
0.111098
0.110986
0.11088
0.11078
0.110687
0.1106
0.110523
0.110455
0.110399
0.110356
0.112295
0.112101
0.111921
0.111754
0.111599
0.111455
0.111321
0.111196
0.111078
0.110968
0.110865
0.110769
0.11068
0.110599
0.110528
0.110466
0.110416
0.110378
0.112293
0.112096
0.111913
0.111744
0.111587
0.111442
0.111307
0.111182
0.111065
0.110957
0.110856
0.110764
0.11068
0.110604
0.110537
0.11048
0.110433
0.110397
0.112291
0.112093
0.111908
0.111737
0.111579
0.111433
0.111299
0.111174
0.11106
0.110953
0.110856
0.110767
0.110685
0.110612
0.110548
0.110491
0.110444
0.110405
0.112291
0.112092
0.111907
0.111736
0.111578
0.111433
0.1113
0.111178
0.111065
0.110962
0.110867
0.11078
0.110701
0.110629
0.110563
0.110504
0.110452
0.110405
0.112291
0.112094
0.11191
0.111741
0.111586
0.111444
0.111314
0.111195
0.111086
0.110986
0.110894
0.11081
0.110731
0.110659
0.110592
0.110529
0.110471
0.110416
0.112293
0.112098
0.111917
0.111751
0.111599
0.111461
0.111335
0.11122
0.111115
0.11102
0.110931
0.11085
0.110774
0.110702
0.110635
0.11057
0.110508
0.110448
0.112296
0.112104
0.111928
0.111766
0.111618
0.111484
0.111363
0.111254
0.111154
0.111064
0.11098
0.110903
0.110831
0.110763
0.110697
0.110633
0.110569
0.110507
0.112301
0.112114
0.111943
0.111786
0.111643
0.111515
0.1114
0.111297
0.111204
0.111121
0.111045
0.110975
0.110909
0.110847
0.110786
0.110726
0.110666
0.110606
0.112308
0.112128
0.111963
0.111811
0.111675
0.111554
0.111448
0.111355
0.111274
0.111203
0.11114
0.111082
0.111029
0.110978
0.110928
0.110877
0.110826
0.110772
0.112319
0.112149
0.111994
0.111852
0.111725
0.111616
0.111523
0.111445
0.111381
0.11133
0.11129
0.111259
0.111235
0.111215
0.111197
0.111179
0.111161
0.111142
0.112335
0.11218
0.112045
0.111932
0.111845
0.111785
0.111753
0.111746
0.111763
0.111803
0.111863
0.111937
0.112019
0.112106
0.112197
0.112289
0.112378
0.112462
0.112358
0.112231
0.112191
0.11227
0.112459
0.112734
0.113071
0.113449
0.113853
0.114269
0.114683
0.115088
0.115473
0.115832
0.116159
0.116441
0.116636
0.116755
0.112639
0.113378
0.114548
0.116009
0.117661
0.119349
0.120675
0.121737
0.122649
0.12352
0.124443
0.125483
0.126687
0.128079
0.129665
0.13145
0.133434
0.135636
0.1169
0.125426
0.135878
0.147813
0.160934
0.175182
0.190705
0.207657
0.226126
0.24611
0.267579
0.290465
0.314645
0.339955
0.366198
0.393174
0.420714
0.448665
0.30556
0.464784
0.58845
0.692374
0.787745
0.88072
0.974504
1.07079
1.16991
1.27146
1.37703
1.4876
1.60375
1.72581
1.85396
1.98825
2.12851
2.27461
0.394716
0.397787
0.421471
0.456179
0.501284
0.552796
0.601128
0.647497
0.692116
0.7356
0.778642
0.821877
0.865854
0.911015
0.957697
1.00613
1.05642
1.1086
1.16255
1.21803
1.27478
1.33255
1.39083
1.4449
1.49435
1.5386
1.57718
1.60961
1.63322
1.64292
1.64015
1.62593
1.60127
1.56722
1.52484
1.47523
1.41962
1.35952
1.29682
1.23395
1.17391
1.12002
1.07527
1.04168
1.01974
1.00751
0.9992
0.994598
0.993472
0.994936
0.997483
0.992974
0.983549
0.976012
0.97544
0.985705
1.00906
1.0454
1.09088
1.13454
1.15167
1.13088
1.08139
1.0185
0.958618
0.958331
1.09984
1.46379
2.11825
3.00769
3.81421
4.57595
5.26424
5.8558
6.33975
6.7138
6.98167
7.14982
7.22605
7.21779
7.12951
7.00127
6.84243
6.65613
6.4445
6.20915
5.95155
5.67327
5.38164
5.09106
4.80135
4.5131
4.22733
3.94524
3.66816
3.39748
3.13463
2.88122
2.63886
2.4088
2.19284
1.99288
1.81087
1.64929
1.51188
1.40516
1.34163
1.34634
1.44728
1.61048
1.82325
2.07805
2.3689
2.69149
3.04348
3.42235
3.82572
4.25122
4.69675
5.16098
5.6436
6.14441
6.65451
7.1379
7.59412
8.02322
8.42304
8.78658
9.10024
9.3437
9.49123
9.51521
9.39214
9.10999
8.67419
8.11061
7.46469
6.79467
6.15981
5.60626
5.15388
4.78895
4.48118
4.17355
3.80654
3.37576
2.92556
2.5358
2.28804
2.28787
2.63945
3.26353
3.93854
4.5578
4.99107
5.1253
5.05702
4.84401
4.52186
4.12765
3.75193
3.42379
3.171
3.03484
3.0909
3.651
4.77576
6.29386
8.10561
10.3008
12.8763
15.8044
19.049
22.5803
26.3707
30.3776
34.5137
38.2857
41.5775
43.9216
0.774363
0.672417
0.635235
0.619822
0.614636
0.612736
0.610541
0.606886
0.601536
0.594604
0.586321
0.576914
0.566625
0.555705
0.544409
0.532998
0.52173
0.510852
0.500594
0.491155
0.482651
0.47513
0.468714
0.467474
0.470587
0.477803
0.488659
0.502535
0.518566
0.535768
0.553485
0.571089
0.588028
0.603835
0.618077
0.630312
0.640055
0.646827
0.65023
0.650011
0.646104
0.638595
0.62759
0.613023
0.594546
0.572387
0.548806
0.522698
0.493495
0.462431
0.430937
0.40038
0.372798
0.350752
0.33618
0.329276
0.328496
0.332328
0.342286
0.367892
0.444009
0.586109
0.800891
1.10559
1.51272
2.00716
2.48913
2.7923
3.00833
3.13828
3.17427
3.13334
3.02893
2.87663
2.69213
2.48936
2.27959
2.0713
1.87102
1.68379
1.51334
1.3632
1.23501
1.1299
1.04906
0.993783
0.964993
0.962124
0.976468
0.991502
1.00683
1.02211
1.03701
1.05116
1.06416
1.07554
1.08475
1.09101
1.09308
1.09369
1.09277
1.08995
1.08492
1.07748
1.06751
1.05496
1.03962
1.021
1.00215
0.985505
0.970843
0.958385
0.946841
0.932092
0.914797
0.898146
0.884016
0.873556
0.867466
0.866266
0.870554
0.881718
0.907832
0.974042
1.07372
1.19523
1.3316
1.47776
1.62863
1.77811
1.91823
2.03929
2.13086
2.18308
2.1865
2.13381
2.02088
1.84976
1.63399
1.40328
1.20306
1.08348
1.05913
1.11726
1.22545
1.34375
1.46157
1.58957
1.74378
1.9263
2.10048
2.19206
2.18391
2.0874
1.92428
1.73324
1.56162
1.44281
1.39698
1.43248
1.48549
1.54497
1.60501
1.6629
1.71372
1.77027
1.82454
1.87474
1.9187
1.98578
2.09223
2.25092
2.47402
2.77651
3.17724
3.69856
4.38891
5.49993
7.12052
9.1652
1.30604
0.96311
0.817458
0.734966
0.681304
0.642185
0.610871
0.584395
0.561319
0.540887
0.522703
0.506122
0.490697
0.476082
0.462062
0.44854
0.435526
0.423107
0.411424
0.400645
0.390924
0.382387
0.375121
0.369257
0.365062
0.362546
0.361688
0.362426
0.364626
0.368088
0.372572
0.37782
0.383582
0.38963
0.395761
0.401781
0.40748
0.412604
0.416863
0.419954
0.421608
0.421621
0.41987
0.416262
0.410681
0.402985
0.393062
0.38142
0.367943
0.352286
0.334965
0.317721
0.303826
0.297836
0.304074
0.324526
0.358688
0.407532
0.485093
0.63533
0.861253
1.1728
1.5739
2.03364
2.38054
2.55318
2.59905
2.54419
2.42608
2.26641
2.08105
1.88565
1.69299
1.51354
1.35464
1.22026
1.1114
1.02703
0.964792
0.921673
0.894487
0.88014
0.875756
0.87881
0.88711
0.898796
0.912374
0.926102
0.939181
0.951343
0.962451
0.972424
0.981175
0.988598
0.994526
0.99862
1.00215
1.00512
1.00748
1.00909
1.00967
1.00882
1.00606
1.00088
0.992777
0.981148
0.965118
0.94347
0.920855
0.897517
0.873663
0.849719
0.825753
0.801607
0.776947
0.750462
0.723269
0.69731
0.673578
0.652565
0.634454
0.619298
0.607218
0.598968
0.598876
0.608123
0.627799
0.658527
0.700159
0.75155
0.810367
0.87313
0.935295
0.991286
1.03448
1.05734
1.05223
1.01392
0.943643
0.853162
0.76581
0.710589
0.71037
0.773878
0.902243
1.08159
1.28787
1.48861
1.64825
1.73525
1.72638
1.63993
1.51377
1.37709
1.25897
1.18055
1.15002
1.16278
1.20626
1.26564
1.32706
1.38371
1.42735
1.45392
1.46841
1.46926
1.45874
1.43881
1.41175
1.38191
1.3537
1.33128
1.31886
1.31961
1.33787
1.38385
1.47368
1.69404
2.14143
2.91293
1.92797
1.21005
0.919928
0.762951
0.666062
0.601481
0.556312
0.523769
0.4997
0.481411
0.466764
0.454212
0.442649
0.431354
0.419927
0.408231
0.396323
0.3844
0.372735
0.361639
0.351421
0.342365
0.334708
0.328827
0.324928
0.322946
0.32275
0.324164
0.326953
0.330821
0.335427
0.340417
0.345431
0.350189
0.354391
0.35783
0.36036
0.361885
0.362347
0.361712
0.359962
0.357097
0.353143
0.348161
0.342238
0.335474
0.327975
0.319866
0.311755
0.303935
0.29707
0.29324
0.297217
0.316625
0.359581
0.431523
0.536119
0.69329
0.926368
1.19772
1.51861
1.89137
2.18496
2.33869
2.3552
2.26621
2.11353
1.93073
1.74082
1.55724
1.38925
1.24385
1.12529
1.03476
0.970427
0.928323
0.903614
0.891653
0.888558
0.891372
0.897951
0.906769
0.916744
0.92709
0.937211
0.946615
0.954782
0.961493
0.966551
0.969807
0.971072
0.970999
0.969793
0.967685
0.964963
0.961954
0.958983
0.956309
0.954078
0.952283
0.95069
0.948856
0.94611
0.941655
0.934644
0.924266
0.909669
0.891422
0.872475
0.851822
0.829893
0.806938
0.783072
0.758298
0.732635
0.705363
0.676351
0.647748
0.620879
0.596526
0.575023
0.556344
0.540222
0.526392
0.514848
0.506286
0.500902
0.499615
0.503484
0.513439
0.530029
0.553144
0.581854
0.614251
0.647213
0.676268
0.695952
0.701022
0.688855
0.662827
0.634646
0.622969
0.648213
0.726488
0.864766
1.05593
1.27043
1.45613
1.56064
1.56054
1.47135
1.35189
1.23799
1.14696
1.09021
1.07072
1.08313
1.11837
1.16709
1.22078
1.27254
1.31737
1.3487
1.37225
1.38654
1.3883
1.3779
1.35601
1.32451
1.28648
1.24528
1.20396
1.16483
1.12804
1.09608
1.07392
1.06758
1.09811
1.20646
1.45569
2.56279
1.36683
0.933836
0.724186
0.610427
0.545693
0.508393
0.487131
0.475072
0.467776
0.462291
0.456731
0.450006
0.441622
0.431517
0.419915
0.407211
0.393886
0.380439
0.367349
0.355056
0.343948
0.334608
0.327333
0.322277
0.319521
0.319039
0.320682
0.323438
0.327111
0.331439
0.336146
0.340943
0.34554
0.34967
0.353118
0.355732
0.357431
0.358192
0.358019
0.356897
0.354744
0.351376
0.346424
0.339532
0.331527
0.323135
0.315071
0.308193
0.303612
0.303437
0.312463
0.339954
0.399082
0.503138
0.662883
0.898798
1.17986
1.45476
1.74276
1.99465
2.14349
2.17955
2.11245
1.97213
1.7964
1.61365
1.44133
1.28859
1.16027
1.05912
0.985646
0.93763
0.910573
0.898947
0.897541
0.902274
0.910376
0.920171
0.930731
0.941564
0.952384
0.96297
0.973088
0.982475
0.990812
0.997169
1.00109
1.00209
1.0006
0.99663
0.990337
0.982001
0.972048
0.961032
0.949602
0.938453
0.928237
0.919465
0.912395
0.907022
0.903004
0.899457
0.895274
0.889082
0.879651
0.866152
0.850815
0.833626
0.814922
0.795129
0.77439
0.752666
0.729875
0.705918
0.680351
0.652088
0.622931
0.594476
0.567891
0.543973
0.523116
0.505319
0.490269
0.477467
0.466602
0.457349
0.449605
0.443652
0.440041
0.439489
0.442688
0.450108
0.461788
0.477076
0.494386
0.511206
0.524602
0.532533
0.536203
0.54259
0.565033
0.620058
0.721469
0.874718
1.07039
1.2737
1.42581
1.47737
1.42582
1.31266
1.20098
1.12002
1.06882
1.04591
1.04868
1.07294
1.11126
1.15557
1.19798
1.23461
1.26067
1.28428
1.30583
1.32206
1.32847
1.32372
1.3066
1.27808
1.24081
1.19817
1.1534
1.10873
1.06374
1.02148
0.985232
0.956731
0.940249
0.951416
1.02076
3.08234
1.40214
0.874768
0.655524
0.557267
0.514494
0.498769
0.495984
0.498233
0.500856
0.501255
0.498236
0.491546
0.481522
0.46882
0.45422
0.438503
0.422377
0.406452
0.391238
0.377158
0.364852
0.354622
0.34661
0.341039
0.338073
0.337259
0.337722
0.33941
0.342138
0.345668
0.349708
0.353913
0.357919
0.361382
0.364019
0.365642
0.366162
0.365577
0.36395
0.361353
0.357865
0.353618
0.348696
0.343172
0.337098
0.330562
0.323911
0.318455
0.317788
0.327751
0.35886
0.427814
0.555359
0.762208
1.05331
1.35247
1.61402
1.83802
1.97856
2.0365
2.00518
1.89832
1.74544
1.57606
1.41251
1.26671
1.14413
1.04705
0.976081
0.929989
0.90523
0.896578
0.898504
0.906389
0.917084
0.928844
0.940957
0.953312
0.966061
0.979377
0.993309
1.0077
1.02216
1.03608
1.04881
1.05841
1.06412
1.06511
1.06057
1.0516
1.03867
1.02233
1.00326
0.982322
0.960525
0.938982
0.918849
0.901151
0.886505
0.875246
0.867425
0.861927
0.857401
0.851742
0.842947
0.830963
0.816224
0.799116
0.780551
0.761306
0.741787
0.722025
0.701788
0.680678
0.658099
0.632628
0.605117
0.577094
0.549822
0.524374
0.501564
0.481859
0.465331
0.451694
0.440437
0.431037
0.422817
0.415449
0.408894
0.403383
0.39935
0.397327
0.3978
0.40105
0.406986
0.415082
0.424625
0.435521
0.449882
0.473975
0.518937
0.598169
0.721696
0.889949
1.08722
1.27406
1.39319
1.40693
1.32986
1.21854
1.12604
1.06946
1.04246
1.03789
1.05061
1.07845
1.11403
1.1476
1.17036
1.18678
1.20215
1.21909
1.23827
1.255
1.26633
1.26798
1.25708
1.23336
1.19891
1.15725
1.11207
1.06605
1.01946
0.976189
0.938733
0.907752
0.88404
0.870886
0.879312
3.37829
1.32601
0.783264
0.599007
0.538573
0.526611
0.533394
0.54526
0.55519
0.559815
0.558111
0.55046
0.537962
0.521975
0.503836
0.484712
0.465536
0.44701
0.429641
0.413795
0.399946
0.388593
0.379569
0.373132
0.36948
0.368084
0.367591
0.368075
0.369426
0.371514
0.374159
0.377101
0.379985
0.382407
0.383989
0.384442
0.383601
0.381463
0.378172
0.37386
0.369036
0.363692
0.3579
0.351802
0.345554
0.339418
0.333864
0.330006
0.33032
0.340328
0.372216
0.44463
0.582936
0.814465
1.1261
1.43356
1.6841
1.84131
1.9158
1.91775
1.85047
1.72944
1.57964
1.42562
1.28366
1.1618
1.06282
0.987554
0.935851
0.905991
0.894243
0.895506
0.904654
0.917658
0.93203
0.946675
0.961466
0.97679
0.993164
1.01098
1.03038
1.05116
1.07281
1.09454
1.11518
1.13331
1.14678
1.15473
1.15618
1.15034
1.13644
1.11582
1.09008
1.06027
1.02757
0.993386
0.959242
0.926847
0.897959
0.873586
0.854258
0.840809
0.832019
0.826261
0.82091
0.813657
0.80317
0.788922
0.771499
0.752042
0.731772
0.71161
0.692
0.672913
0.653915
0.63425
0.61237
0.587932
0.5621
0.535921
0.510442
0.486658
0.46539
0.447157
0.432088
0.41993
0.410209
0.402168
0.395149
0.388694
0.382607
0.376946
0.371974
0.368073
0.365659
0.365101
0.36674
0.371099
0.379524
0.395393
0.425645
0.481377
0.575322
0.715377
0.896497
1.09482
1.26657
1.36027
1.35146
1.26581
1.1646
1.08965
1.04856
1.03486
1.04068
1.05989
1.0862
1.11003
1.12542
1.13441
1.13992
1.14657
1.157
1.1719
1.18921
1.20433
1.21167
1.2068
1.18814
1.15712
1.11724
1.07264
1.0265
0.980257
0.938382
0.902634
0.873077
0.84949
0.832032
0.82434
3.39045
1.18268
0.702243
0.580097
0.562454
0.577196
0.598555
0.615423
0.62309
0.620758
0.609854
0.592649
0.571441
0.548232
0.524637
0.501837
0.480624
0.461472
0.444627
0.430347
0.419442
0.411418
0.406478
0.404741
0.406203
0.409107
0.41166
0.414009
0.416055
0.417632
0.418655
0.41909
0.418774
0.417509
0.415095
0.411424
0.4066
0.400983
0.395881
0.393469
0.39092
0.38731
0.382004
0.375308
0.367872
0.361211
0.356672
0.357202
0.367313
0.397756
0.467918
0.603517
0.832584
1.13688
1.44173
1.67953
1.79574
1.83248
1.80593
1.72403
1.6021
1.46196
1.32377
1.20046
1.09733
1.01553
0.955054
0.915626
0.895747
0.892074
0.89994
0.914621
0.93242
0.951121
0.969891
0.988873
1.00871
1.03014
1.05367
1.07945
1.10719
1.13617
1.16536
1.19354
1.21937
1.24011
1.25496
1.26289
1.26299
1.25453
1.23693
1.20955
1.17463
1.13411
1.08941
1.04237
0.994819
0.948786
0.907048
0.871501
0.842419
0.821496
0.808088
0.79978
0.794445
0.788544
0.779672
0.766613
0.749473
0.729323
0.70766
0.685886
0.66498
0.645363
0.626886
0.608893
0.590012
0.568854
0.546065
0.522275
0.498245
0.474868
0.453072
0.433662
0.417164
0.403725
0.393147
0.384839
0.378077
0.372182
0.366657
0.361252
0.35596
0.350966
0.346593
0.343267
0.341576
0.342515
0.348079
0.362349
0.39288
0.451362
0.551232
0.700279
0.890019
1.08937
1.25055
1.32843
1.30984
1.22626
1.13573
1.07256
1.04069
1.03324
1.04247
1.06133
1.0813
1.09557
1.10192
1.1016
1.09883
1.09766
1.10172
1.11275
1.12926
1.14664
1.1584
1.15868
1.14452
1.11659
1.07835
1.03441
0.988256
0.943495
0.904155
0.871295
0.844579
0.823332
0.80691
0.796027
3.23845
1.03516
0.660631
0.604348
0.62138
0.652482
0.677704
0.689343
0.68625
0.671207
0.648244
0.620895
0.591732
0.562666
0.53524
0.510489
0.488998
0.470949
0.456373
0.44631
0.44012
0.437808
0.439453
0.445247
0.456001
0.468887
0.476653
0.480991
0.482637
0.482135
0.47996
0.476386
0.471542
0.46567
0.459488
0.454687
0.45481
0.466492
0.492912
0.51526
0.529123
0.531625
0.522703
0.504779
0.481905
0.461317
0.447671
0.447201
0.467612
0.526524
0.645343
0.847338
1.12113
1.40599
1.61782
1.71654
1.73882
1.70345
1.62179
1.50776
1.37995
1.25597
1.14708
1.05753
0.98759
0.936849
0.905103
0.891418
0.893145
0.906192
0.926132
0.949286
0.973291
0.997164
1.02101
1.04559
1.07181
1.10039
1.13158
1.16509
1.20015
1.23555
1.2698
1.30131
1.3286
1.34892
1.36215
1.36743
1.36409
1.35159
1.3296
1.29794
1.25639
1.20781
1.15354
1.09567
1.03665
0.978081
0.923243
0.87641
0.837351
0.807725
0.788751
0.777205
0.770484
0.765164
0.757917
0.746544
0.730423
0.710295
0.687694
0.664332
0.64164
0.620521
0.601262
0.583524
0.566299
0.547804
0.527981
0.507073
0.485434
0.463652
0.442515
0.422889
0.405535
0.390946
0.379273
0.370243
0.363277
0.357666
0.352753
0.348058
0.343339
0.338588
0.333992
0.329916
0.326968
0.326245
0.329898
0.342157
0.370696
0.427478
0.526794
0.67759
0.870634
1.07047
1.22616
1.29737
1.27891
1.20401
1.12301
1.06682
1.03925
1.03378
1.04241
1.05756
1.07173
1.07936
1.07947
1.07385
1.06522
1.05777
1.05594
1.06261
1.07733
1.09577
1.1108
1.11519
1.10465
1.07905
1.04189
0.998222
0.952205
0.909552
0.873234
0.84374
0.820394
0.802217
0.788245
0.778068
2.95942
0.913293
0.665565
0.664008
0.703115
0.73966
0.759039
0.75792
0.739963
0.711647
0.678456
0.643567
0.608567
0.574764
0.544147
0.517996
0.496949
0.480972
0.470568
0.465684
0.465933
0.472519
0.484843
0.50289
0.525337
0.548016
0.564356
0.57117
0.573183
0.572068
0.569923
0.569368
0.574173
0.589619
0.622086
0.677668
0.759853
0.866901
0.943166
0.984999
0.992227
0.968019
0.917833
0.849497
0.77365
0.703925
0.645791
0.624322
0.65011
0.734382
0.887608
1.11117
1.35148
1.51497
1.61008
1.63546
1.60661
1.53628
1.43692
1.32387
1.21275
1.11463
1.03414
0.971667
0.926633
0.899005
0.888519
0.893455
0.910474
0.935467
0.964574
0.994892
1.02481
1.05399
1.0831
1.11327
1.14554
1.18046
1.21795
1.25725
1.29708
1.33585
1.37175
1.40291
1.42768
1.44418
1.45251
1.45218
1.44287
1.42443
1.3969
1.36043
1.31543
1.26263
1.20306
1.13799
1.07164
1.00472
0.938994
0.882369
0.834919
0.798279
0.772676
0.756517
0.747626
0.742254
0.736341
0.726759
0.712093
0.692618
0.669738
0.645298
0.621029
0.598223
0.577579
0.559153
0.542342
0.525586
0.508131
0.489926
0.470966
0.451467
0.431931
0.413078
0.395707
0.380511
0.36793
0.358037
0.35052
0.344804
0.340215
0.336149
0.332187
0.328141
0.324056
0.320201
0.317132
0.315908
0.318615
0.329312
0.355364
0.408453
0.503192
0.649932
0.840845
1.03963
1.1938
1.2657
1.25428
1.19207
1.12084
1.06869
1.04189
1.03519
1.04081
1.05138
1.06037
1.06376
1.06066
1.05133
1.03802
1.02518
1.01809
1.02067
1.03347
1.05252
1.07017
1.07783
1.06998
1.04578
1.00879
0.964344
0.919288
0.879205
0.846216
0.820347
0.800613
0.785787
0.774703
0.766385
2.59617
0.842162
0.712805
0.747799
0.797023
0.829924
0.83689
0.820311
0.788834
0.751062
0.711644
0.671666
0.631196
0.590945
0.555322
0.526687
0.506098
0.494397
0.491879
0.495168
0.505361
0.523769
0.550495
0.58423
0.621436
0.657158
0.687846
0.713751
0.740565
0.779585
0.83951
0.928164
1.05003
1.20338
1.37694
1.54817
1.68469
1.76037
1.77732
1.75167
1.69145
1.60144
1.48528
1.3483
1.20046
1.05837
0.944649
0.88321
0.891187
0.975143
1.11716
1.26264
1.39661
1.48616
1.52383
1.51221
1.46136
1.38211
1.28669
1.18852
1.09884
1.02381
0.96497
0.922067
0.89522
0.884798
0.890156
0.909016
0.937901
0.972931
1.01051
1.04789
1.08366
1.11786
1.15165
1.18652
1.22367
1.26348
1.30548
1.34843
1.39055
1.42981
1.46419
1.49172
1.51053
1.52005
1.52046
1.51173
1.4941
1.46774
1.43306
1.39048
1.34106
1.28666
1.22595
1.15757
1.08762
1.01732
0.948755
0.885468
0.830741
0.787235
0.756173
0.735666
0.724578
0.718908
0.714068
0.706146
0.693032
0.674548
0.651906
0.626969
0.601633
0.577443
0.555409
0.535937
0.518813
0.502985
0.48721
0.471229
0.454773
0.437746
0.420327
0.402987
0.386404
0.371303
0.358289
0.34771
0.339551
0.333461
0.328878
0.325188
0.321871
0.318601
0.315286
0.312089
0.309482
0.30844
0.310902
0.320618
0.3444
0.393207
0.481294
0.619995
0.80403
0.999371
1.15415
1.23172
1.23178
1.18356
1.12356
1.07575
1.04786
1.03779
1.0389
1.0445
1.04922
1.04968
1.04376
1.03108
1.0138
0.996596
0.985344
0.984876
0.996542
1.01664
1.03687
1.04727
1.04121
1.01723
0.979041
0.93416
0.890822
0.853636
0.824186
0.802092
0.786066
0.774654
0.766527
0.760509
2.18544
0.845097
0.790931
0.844415
0.894317
0.917495
0.910443
0.881381
0.841825
0.799696
0.7569
0.712082
0.664961
0.618447
0.577517
0.546596
0.528338
0.525101
0.530722
0.545811
0.571515
0.609001
0.658638
0.719774
0.791408
0.874201
0.972288
1.09239
1.24043
1.41774
1.61829
1.82879
2.02979
2.19967
2.32025
2.38227
2.38807
2.34952
2.2974
2.23514
2.1617
2.0731
1.96394
1.82972
1.67007
1.49332
1.3209
1.18655
1.12171
1.13458
1.20273
1.28969
1.36857
1.41632
1.42505
1.39728
1.34083
1.26514
1.18096
1.09892
1.02682
0.968288
0.924142
0.894761
0.880933
0.883007
0.899972
0.929486
0.968335
1.01278
1.05895
1.10362
1.14513
1.18377
1.22123
1.25958
1.30022
1.34349
1.38849
1.43346
1.47605
1.51375
1.54421
1.56552
1.57595
1.57625
1.56658
1.54724
1.51974
1.48425
1.44173
1.39281
1.33723
1.27986
1.21908
1.15454
1.08667
1.01677
0.947248
0.881319
0.822342
0.773257
0.736249
0.71248
0.700091
0.694362
0.690545
0.684116
0.672427
0.654985
0.632856
0.607882
0.582027
0.556969
0.533908
0.513495
0.495822
0.480361
0.465798
0.451568
0.437267
0.422579
0.407418
0.391989
0.376771
0.362403
0.349518
0.338634
0.329977
0.323442
0.318652
0.315079
0.312193
0.309587
0.307063
0.304675
0.302803
0.302319
0.304985
0.314202
0.33613
0.380755
0.461441
0.589843
0.763458
0.952628
1.1083
1.19409
1.208
1.17469
1.12536
1.08201
1.05368
1.03987
1.03594
1.03696
1.03831
1.03551
1.02608
1.00991
0.989201
0.968796
0.954973
0.953199
0.965358
0.98767
1.01097
1.02371
1.0184
0.992977
0.953566
0.909483
0.868234
0.834066
0.808173
0.789819
0.777426
0.769317
0.764001
0.760207
1.81626
0.873053
0.876812
0.941834
0.989476
1.00371
0.986676
0.95077
0.908387
0.865688
0.822089
0.774648
0.722991
0.671265
0.62677
0.597549
0.591061
0.599533
0.620565
0.656335
0.70893
0.780278
0.871755
0.98425
1.11874
1.27673
1.45909
1.66284
1.87827
2.08915
2.27605
2.42133
2.51384
2.55237
2.54565
2.5086
2.4563
2.39863
2.35866
2.33333
2.31675
2.30053
2.2736
2.22244
2.13269
1.99355
1.8063
1.5948
1.4076
1.29643
1.27532
1.30943
1.35018
1.36889
1.35853
1.32114
1.26308
1.19224
1.11734
1.04659
0.985545
0.936887
0.901745
0.881068
0.875844
0.886153
0.910969
0.948494
0.995411
1.04846
1.10328
1.15565
1.20309
1.24578
1.28587
1.3263
1.36903
1.4145
1.46154
1.50776
1.55005
1.58515
1.61023
1.62331
1.62365
1.61359
1.59325
1.56208
1.52412
1.47917
1.42859
1.37388
1.31639
1.25704
1.19604
1.13309
1.0679
1.00089
0.93359
0.868576
0.808882
0.757434
0.716728
0.688555
0.673288
0.668135
0.665462
0.66038
0.649866
0.633307
0.611749
0.587032
0.561134
0.535772
0.512221
0.491262
0.473183
0.457791
0.444202
0.431417
0.418953
0.406363
0.393374
0.379972
0.366428
0.353235
0.340967
0.330206
0.321335
0.314456
0.309391
0.305756
0.303085
0.30096
0.299119
0.297531
0.296481
0.296729
0.299856
0.308909
0.32938
0.370194
0.443516
0.560731
0.721754
0.902246
1.05773
1.15225
1.18069
1.16263
1.12428
1.08562
1.05651
1.03836
1.02848
1.02347
1.02041
1.01537
1.00364
0.984487
0.96137
0.939402
0.925141
0.924447
0.939368
0.965566
0.992596
1.00702
1.00088
0.974583
0.9351
0.891823
0.852423
0.820991
0.798395
0.783553
0.774588
0.769564
0.766792
0.7649
1.50228
0.910598
0.957684
1.031
1.0782
1.08895
1.06886
1.03218
0.991526
0.952589
0.914242
0.873038
0.828266
0.784483
0.750659
0.736867
0.743667
0.762999
0.801419
0.860999
0.943516
1.05009
1.18069
1.33383
1.50622
1.6919
1.88066
2.05734
2.20381
2.30416
2.35016
2.34394
2.29717
2.22751
2.15359
2.09062
2.04781
2.02756
2.03815
2.07661
2.13956
2.22236
2.31699
2.40948
2.47785
2.49242
2.42155
2.24634
1.98355
1.70299
1.50247
1.41937
1.40773
1.3893
1.35302
1.29984
1.23428
1.16219
1.08999
1.02346
0.965953
0.922462
0.892993
0.878013
0.878135
0.893037
0.921846
0.963164
1.01484
1.07388
1.13566
1.19508
1.24864
1.29579
1.33864
1.38043
1.4238
1.46972
1.51715
1.56327
1.60413
1.63552
1.65414
1.65835
1.64901
1.62903
1.59948
1.56105
1.51483
1.46221
1.40477
1.34432
1.2826
1.22083
1.15942
1.098
1.03587
0.972719
0.909239
0.847244
0.789254
0.737985
0.696019
0.665489
0.647306
0.640089
0.638783
0.634871
0.62518
0.609204
0.588122
0.563824
0.53827
0.51314
0.489691
0.46873
0.450635
0.435387
0.422558
0.411088
0.400252
0.389539
0.378558
0.367136
0.355364
0.343583
0.332259
0.321979
0.313201
0.306171
0.300882
0.297109
0.294493
0.292663
0.291344
0.290451
0.29019
0.29121
0.294911
0.303996
0.323315
0.360742
0.427133
0.533206
0.68071
0.850653
1.0042
1.10643
1.14875
1.14564
1.11868
1.08564
1.05661
1.03468
1.01895
1.00733
0.997334
0.985726
0.970638
0.950888
0.928062
0.907152
0.895219
0.898511
0.918849
0.950715
0.981853
0.998543
0.992678
0.965289
0.924669
0.881208
0.842902
0.813675
0.794019
0.782455
0.776738
0.774594
0.774057
0.773611
1.2443
0.938643
1.01774
1.10057
1.15358
1.16973
1.15516
1.12406
1.08962
1.0593
1.03394
1.01094
0.988445
0.967992
0.954473
0.954004
0.962256
0.990493
1.04108
1.11504
1.21229
1.33106
1.46726
1.61399
1.76117
1.89555
2.00168
2.06502
2.07657
2.03686
1.95629
1.85174
1.74161
1.64187
1.56397
1.51465
1.49706
1.5144
1.55469
1.61962
1.71421
1.84473
2.01618
2.22796
2.46797
2.7061
2.89136
2.95808
2.84545
2.5366
2.12141
1.77586
1.60726
1.51699
1.43059
1.34313
1.25356
1.16842
1.09155
1.02356
0.967039
0.924902
0.897083
0.883916
0.885429
0.901025
0.929974
0.971407
1.02401
1.0853
1.15092
1.21555
1.27484
1.32708
1.37339
1.41664
1.45973
1.50415
1.54929
1.5925
1.62987
1.65737
1.67179
1.67071
1.65492
1.62768
1.59068
1.54508
1.49212
1.43327
1.3703
1.30526
1.24013
1.17643
1.11479
1.05484
0.995663
0.936454
0.877255
0.819187
0.764209
0.714725
0.673286
0.642159
0.622477
0.613209
0.610644
0.607712
0.598363
0.582564
0.561778
0.537986
0.513102
0.488703
0.465948
0.445584
0.427984
0.413203
0.401
0.390781
0.381473
0.372487
0.363361
0.353811
0.343794
0.333506
0.323302
0.313739
0.305299
0.298314
0.292909
0.288997
0.286345
0.284658
0.283689
0.283338
0.283755
0.285492
0.289773
0.298976
0.317346
0.351765
0.411803
0.507311
0.641311
0.799635
0.949409
1.05753
1.11216
1.12295
1.10746
1.08112
1.05371
1.02948
1.00908
0.991603
0.975433
0.958448
0.939518
0.917626
0.894671
0.876049
0.869175
0.880173
0.909649
0.949773
0.98599
1.00368
0.995544
0.964535
0.920814
0.875866
0.837902
0.810503
0.793645
0.785336
0.782847
0.783448
0.78482
0.785268
1.04347
0.938408
1.03816
1.13531
1.20332
1.23646
1.23826
1.22025
1.19536
1.17353
1.15924
1.15231
1.15047
1.15205
1.15748
1.16705
1.1854
1.22034
1.27385
1.34589
1.43418
1.53374
1.63663
1.73212
1.8076
1.85054
1.85162
1.80819
1.7263
1.61931
1.50368
1.39422
1.30143
1.23114
1.18543
1.16386
1.16487
1.18494
1.20609
1.23509
1.2832
1.3655
1.50004
1.70561
1.99565
2.3665
2.78454
3.18133
3.45684
3.48093
3.17836
2.61493
2.08564
1.80546
1.61247
1.46308
1.33343
1.22296
1.12942
1.05144
0.989201
0.943238
0.912929
0.897793
0.897145
0.910084
0.935856
0.973884
1.02338
1.08251
1.14773
1.21422
1.27729
1.33407
1.38419
1.42934
1.47192
1.5136
1.55436
1.59238
1.62465
1.64791
1.65915
1.65522
1.63623
1.6049
1.56331
1.51308
1.45573
1.39288
1.32646
1.25864
1.19163
1.12712
1.06589
1.00764
0.951321
0.89585
0.840824
0.786832
0.73535
0.688481
0.648673
0.618179
0.598103
0.587439
0.582846
0.579176
0.569514
0.553409
0.532721
0.509512
0.485604
0.462411
0.440922
0.42175
0.4052
0.391317
0.379936
0.370681
0.362872
0.355512
0.348113
0.340319
0.331985
0.323182
0.314155
0.305425
0.297462
0.29065
0.285209
0.281171
0.278418
0.276747
0.275968
0.275992
0.276941
0.279283
0.284083
0.293403
0.310921
0.342585
0.396738
0.482306
0.603179
0.74937
0.893855
1.00597
1.0711
1.09444
1.09005
1.07125
1.04717
1.02263
0.999435
0.977805
0.957016
0.935807
0.913514
0.889881
0.867745
0.85342
0.854694
0.876787
0.917713
0.966238
1.00544
1.02067
1.00666
0.969116
0.920436
0.873098
0.835217
0.809753
0.795971