/*--------------------------------*- C++ -*----------------------------------*\
| =========                 |                                                 |
| \\      /  F ield         | OpenFOAM: The Open Source CFD Toolbox           |
|  \\    /   O peration     | Version:  2112                                  |
|   \\  /    A nd           | Website:  www.openfoam.com                      |
|    \\/     M anipulation  |                                                 |
\*---------------------------------------------------------------------------*/
FoamFile
{
    version     2.0;
    format      ascii;
    arch        "LSB;label=32;scalar=64";
    class       volScalarField;
    location    "0.34";
    object      kU_0;
}
// * * * * * * * * * * * * * * * * * * * * * * * * * * * * * * * * * * * * * //

dimensions      [0 2 -2 0 0 0 0];

internalField   nonuniform List<scalar> 
12225
(
0.399894
0.622133
0.790755
0.936313
1.07828
1.2268
1.38721
1.56287
1.75639
1.96985
2.20472
2.46162
2.74019
3.03899
3.35552
3.68688
4.02794
4.35215
0.124077
0.143976
0.166704
0.19212
0.220501
0.252429
0.288555
0.329243
0.374468
0.423872
0.476854
0.532744
0.591008
0.651458
0.714496
0.781733
0.859851
0.971306
0.113241
0.115524
0.118704
0.122064
0.124901
0.127528
0.130321
0.133614
0.137635
0.142519
0.148343
0.155201
0.163255
0.172779
0.184197
0.198215
0.216
0.239012
0.112486
0.112632
0.113049
0.113698
0.114518
0.115443
0.116409
0.117358
0.11818
0.118733
0.119042
0.119161
0.119169
0.119173
0.119308
0.119756
0.120765
0.122582
0.112423
0.112355
0.112339
0.112375
0.112478
0.112649
0.112866
0.113122
0.1134
0.113675
0.113926
0.114137
0.114282
0.114336
0.114304
0.114203
0.114067
0.113945
0.112392
0.112286
0.112191
0.11211
0.112058
0.112037
0.112041
0.112064
0.112099
0.11214
0.112179
0.112208
0.112219
0.112207
0.112166
0.112101
0.112016
0.111927
0.112366
0.112233
0.112111
0.112003
0.111915
0.111849
0.111796
0.111751
0.111711
0.111669
0.111623
0.11157
0.111508
0.111437
0.111357
0.111271
0.111183
0.111097
0.112347
0.112198
0.11206
0.111935
0.111827
0.111737
0.11166
0.111589
0.111521
0.111451
0.111376
0.111294
0.111205
0.111111
0.111014
0.110918
0.110825
0.110737
0.112333
0.112174
0.112025
0.111889
0.111768
0.111662
0.111566
0.111477
0.111391
0.111304
0.111215
0.11112
0.111022
0.110921
0.110819
0.11072
0.110628
0.110542
0.112323
0.112155
0.112
0.111856
0.111726
0.111608
0.1115
0.111397
0.111299
0.1112
0.111101
0.111
0.110897
0.110793
0.110692
0.110596
0.110507
0.110427
0.112315
0.112141
0.111979
0.11183
0.111693
0.111567
0.11145
0.111339
0.111232
0.111126
0.111021
0.110916
0.110812
0.11071
0.110611
0.11052
0.110437
0.110365
0.11231
0.112131
0.111965
0.111811
0.111669
0.111538
0.111416
0.111299
0.111187
0.111077
0.11097
0.110864
0.110761
0.110661
0.110567
0.110481
0.110405
0.11034
0.112306
0.112122
0.111952
0.111795
0.111649
0.111514
0.111388
0.111268
0.111152
0.111041
0.110933
0.110828
0.110727
0.110631
0.110542
0.110461
0.110391
0.110334
0.112302
0.112114
0.111941
0.11178
0.111631
0.111492
0.111362
0.111239
0.111123
0.111011
0.110903
0.1108
0.110703
0.110612
0.110528
0.110455
0.110392
0.110343
0.112298
0.112107
0.11193
0.111766
0.111614
0.111472
0.11134
0.111215
0.111098
0.110986
0.110881
0.110781
0.110688
0.110602
0.110526
0.110459
0.110404
0.110362
0.112295
0.112101
0.111921
0.111754
0.111599
0.111455
0.111321
0.111196
0.111079
0.110969
0.110866
0.11077
0.110681
0.110601
0.11053
0.11047
0.11042
0.110383
0.112293
0.112097
0.111913
0.111744
0.111587
0.111442
0.111307
0.111182
0.111066
0.110957
0.110857
0.110765
0.110681
0.110605
0.110539
0.110482
0.110436
0.110401
0.112291
0.112093
0.111908
0.111737
0.111579
0.111434
0.111299
0.111175
0.11106
0.110954
0.110856
0.110767
0.110686
0.110613
0.110549
0.110493
0.110446
0.110407
0.112291
0.112092
0.111907
0.111736
0.111578
0.111433
0.1113
0.111178
0.111065
0.110962
0.110867
0.110781
0.110701
0.110629
0.110563
0.110504
0.110452
0.110405
0.112291
0.112094
0.11191
0.111741
0.111586
0.111444
0.111314
0.111195
0.111086
0.110986
0.110894
0.110809
0.110731
0.110659
0.110591
0.110528
0.11047
0.110415
0.112293
0.112098
0.111917
0.111751
0.111599
0.111461
0.111335
0.11122
0.111115
0.111019
0.110931
0.110849
0.110773
0.110701
0.110633
0.110568
0.110505
0.110445
0.112296
0.112104
0.111928
0.111766
0.111618
0.111484
0.111363
0.111254
0.111154
0.111063
0.11098
0.110902
0.11083
0.110761
0.110695
0.11063
0.110566
0.110503
0.112301
0.112114
0.111943
0.111786
0.111643
0.111515
0.1114
0.111297
0.111204
0.11112
0.111044
0.110973
0.110908
0.110845
0.110784
0.110723
0.110662
0.110601
0.112308
0.112128
0.111963
0.111811
0.111675
0.111554
0.111448
0.111355
0.111274
0.111202
0.111138
0.111081
0.111027
0.110975
0.110925
0.110873
0.110821
0.110767
0.112319
0.112149
0.111994
0.111852
0.111725
0.111616
0.111522
0.111444
0.11138
0.111329
0.111289
0.111258
0.111233
0.111212
0.111193
0.111175
0.111157
0.111137
0.112335
0.11218
0.112045
0.111932
0.111845
0.111785
0.111753
0.111745
0.111762
0.111802
0.111861
0.111935
0.112017
0.112104
0.112195
0.112287
0.112376
0.112459
0.112358
0.112231
0.112191
0.11227
0.112459
0.112734
0.11307
0.113449
0.113853
0.114269
0.114684
0.115088
0.115473
0.115832
0.11616
0.116442
0.116637
0.116755
0.112639
0.113378
0.114548
0.116009
0.117661
0.119349
0.120676
0.121738
0.12265
0.123523
0.124447
0.12549
0.126697
0.128091
0.129682
0.131472
0.133462
0.13567
0.1169
0.125426
0.135879
0.147815
0.160937
0.175186
0.190712
0.207669
0.226144
0.246134
0.267613
0.290509
0.314703
0.340028
0.366287
0.393282
0.420843
0.448817
0.30556
0.464784
0.58845
0.692374
0.787744
0.880718
0.974499
1.07078
1.16989
1.27143
1.377
1.48755
1.60369
1.72574
1.85386
1.98813
2.12836
2.27444
0.394719
0.397854
0.421629
0.456449
0.501683
0.553289
0.601698
0.648125
0.692785
0.736298
0.779358
0.822603
0.866581
0.911737
0.958406
1.00682
1.05708
1.10923
1.16314
1.21858
1.27529
1.33302
1.39133
1.44564
1.49538
1.53992
1.57884
1.61165
1.63603
1.64647
1.64447
1.63099
1.60701
1.57354
1.53161
1.48231
1.42688
1.3668
1.30401
1.24096
1.18068
1.12652
1.08151
1.04762
1.02536
1.01279
1.00403
0.998886
0.997159
0.997968
0.999789
0.994409
0.984401
0.97655
0.975909
0.986291
1.00984
1.04627
1.09138
1.13359
1.14789
1.1247
1.07398
1.01159
0.954931
0.963618
1.11938
1.50191
2.17865
3.07253
3.87688
4.63694
5.32065
5.90555
6.38153
6.74703
7.00626
7.16599
7.23436
7.21944
7.12576
6.9949
6.83387
6.64573
6.43258
6.19594
5.93708
5.65743
5.36624
5.07591
4.78635
4.49821
4.21255
3.93059
3.65368
3.38322
3.12069
2.8677
2.62586
2.39641
2.18121
1.98214
1.80115
1.64076
1.50482
1.40004
1.33939
1.34898
1.45453
1.62011
1.83501
2.09143
2.38347
2.7069
3.05943
3.43855
3.84191
4.26719
4.71235
5.17618
5.65847
6.15895
6.66739
7.14841
7.60244
8.02931
8.42671
8.78732
9.09712
9.3354
9.47619
9.49193
9.35962
9.06817
8.62427
8.05515
7.40732
6.73952
6.11053
5.56508
5.12074
4.76154
4.45659
4.14558
3.77289
3.33798
2.88923
2.50834
2.2755
2.30408
2.68343
3.31786
3.98953
4.59604
5.00734
5.11861
5.03791
4.81552
4.48687
4.09261
3.72056
3.39791
3.15279
3.02836
3.10423
3.7135
4.86756
6.40167
8.23439
10.4495
13.0416
15.9822
19.2359
22.7745
26.571
30.5828
34.7143
38.4676
41.737
44.052
0.774727
0.67283
0.635738
0.620419
0.615308
0.613457
0.611285
0.607631
0.602265
0.595311
0.587009
0.577588
0.567296
0.556381
0.545097
0.533701
0.522448
0.511583
0.501331
0.491889
0.483372
0.475827
0.469338
0.46785
0.470722
0.477746
0.488458
0.502248
0.518271
0.535549
0.553424
0.571256
0.588482
0.604618
0.619212
0.631803
0.641886
0.648963
0.652618
0.652589
0.6488
0.641336
0.630298
0.615612
0.596925
0.574432
0.550473
0.523995
0.494379
0.462904
0.431039
0.40019
0.372449
0.350399
0.335943
0.329201
0.328597
0.33273
0.343451
0.371307
0.452153
0.599719
0.821213
1.13365
1.54803
2.04746
2.52038
2.81625
3.02744
3.15088
3.18077
3.13412
3.02452
2.86782
2.67982
2.47453
2.26315
2.05411
1.85391
1.66751
1.49854
1.35031
1.22426
1.12144
1.04291
0.98984
0.963178
0.962444
0.976783
0.991798
1.00711
1.02238
1.03727
1.05142
1.0644
1.07574
1.08488
1.09104
1.09301
1.09361
1.09264
1.08973
1.0846
1.07702
1.0669
1.05418
1.03865
1.0198
1.00109
0.984506
0.969979
0.957652
0.946124
0.931172
0.913896
0.897366
0.88341
0.873134
0.867217
0.866178
0.870633
0.882073
0.909459
0.977422
1.07819
1.20038
1.33713
1.48338
1.63403
1.7829
1.92192
2.04133
2.13072
2.18026
2.18051
2.12428
2.00765
1.83324
1.61562
1.38582
1.19022
1.07848
1.06103
1.12515
1.23554
1.35422
1.47263
1.60242
1.75902
1.94215
2.11113
2.19281
2.1766
2.07364
1.90721
1.71683
1.549
1.43584
1.39663
1.4353
1.48894
1.54853
1.60834
1.66576
1.71615
1.77283
1.82657
1.87578
1.9202
1.98917
2.09819
2.2599
2.48638
2.79275
3.19793
3.7245
4.42448
5.5501
7.17997
9.22947
1.30684
0.963688
0.817993
0.735484
0.681781
0.642584
0.611161
0.584565
0.561359
0.540818
0.522576
0.505968
0.490549
0.475968
0.462004
0.448555
0.435621
0.423285
0.411681
0.400973
0.391314
0.382826
0.375595
0.369738
0.365532
0.362985
0.362079
0.362756
0.364892
0.368295
0.372734
0.377959
0.383727
0.389815
0.39602
0.402147
0.407982
0.413261
0.417685
0.42094
0.422746
0.422892
0.421246
0.417706
0.412146
0.404416
0.394398
0.382562
0.368883
0.352973
0.335396
0.31797
0.304071
0.298342
0.305115
0.326314
0.361464
0.411943
0.49383
0.650828
0.883659
1.2024
1.60903
2.06828
2.39995
2.5651
2.60348
2.54367
2.4219
2.25921
2.07171
1.87491
1.68158
1.50217
1.34391
1.21062
1.10315
1.02029
0.959541
0.917773
0.891734
0.878284
0.874549
0.878032
0.886579
0.89837
0.911961
0.925621
0.938635
0.95076
0.961857
0.971844
0.980627
0.988093
0.994061
0.998246
1.00186
1.00492
1.00734
1.00898
1.00955
1.00864
1.00578
1.00047
0.992178
0.980319
0.963973
0.942033
0.919372
0.895922
0.871999
0.848016
0.824039
0.799905
0.775254
0.74874
0.721692
0.695963
0.672491
0.651729
0.633837
0.618861
0.60694
0.598914
0.599215
0.608873
0.628995
0.660164
0.702182
0.753848
0.812771
0.875428
0.937228
0.992546
1.03469
1.05604
1.04899
1.00859
0.936637
0.845773
0.760084
0.708652
0.713429
0.782555
0.916104
1.09918
1.30674
1.50542
1.65946
1.73799
1.72002
1.62879
1.5008
1.36505
1.24997
1.17553
1.14874
1.16425
1.20935
1.26899
1.33023
1.38625
1.42845
1.45424
1.46767
1.46754
1.45624
1.43566
1.40827
1.37848
1.35064
1.3289
1.31737
1.31909
1.33868
1.3864
1.47916
1.70589
2.16123
2.94155
1.9295
1.21062
0.920136
0.762961
0.665883
0.60109
0.555705
0.522958
0.498719
0.480334
0.465649
0.45312
0.441632
0.430449
0.419161
0.407618
0.395866
0.384094
0.372568
0.361597
0.351486
0.342518
0.33493
0.329074
0.32519
0.323208
0.322998
0.324385
0.327137
0.330959
0.335514
0.340451
0.345417
0.350128
0.354295
0.357716
0.360247
0.361794
0.3623
0.36173
0.360061
0.357288
0.353434
0.348552
0.342726
0.336048
0.328618
0.320557
0.312436
0.304596
0.297725
0.293998
0.298375
0.318689
0.363166
0.437292
0.545071
0.708937
0.94715
1.22232
1.54739
1.92018
2.2017
2.34665
2.35503
2.26145
2.10603
1.922
1.73164
1.54809
1.38058
1.23603
1.11862
1.02943
0.966413
0.92549
0.901736
0.890476
0.887843
0.890918
0.8976
0.906406
0.916289
0.926498
0.93647
0.945743
0.953747
0.960333
0.965296
0.968496
0.969758
0.969751
0.968641
0.966655
0.964075
0.961221
0.958409
0.955887
0.953784
0.95208
0.950525
0.948667
0.945836
0.94124
0.934046
0.923456
0.90858
0.890298
0.871232
0.850452
0.828387
0.805285
0.78127
0.756363
0.730596
0.703177
0.674201
0.645777
0.619186
0.595162
0.573993
0.555613
0.539733
0.526086
0.5147
0.50627
0.501023
0.499907
0.503982
0.514167
0.530987
0.554294
0.583119
0.6155
0.648243
0.676799
0.695671
0.699695
0.686542
0.660131
0.632797
0.623588
0.652861
0.736216
0.879761
1.07481
1.28944
1.46993
1.56515
1.55531
1.46024
1.34053
1.22818
1.13983
1.08622
1.06942
1.0837
1.11999
1.16922
1.22291
1.27443
1.31882
1.34954
1.37265
1.38615
1.38694
1.37559
1.35282
1.32065
1.28228
1.24103
1.19996
1.16124
1.12491
1.0937
1.07247
1.06735
1.10029
1.21223
1.46713
2.5654
1.36718
0.933393
0.723378
0.609323
0.544297
0.506734
0.485273
0.473106
0.4658
0.460396
0.454991
0.44847
0.440318
0.430451
0.419079
0.406587
0.39345
0.380164
0.367208
0.355023
0.343999
0.334694
0.327438
0.322382
0.319607
0.319089
0.320685
0.323417
0.327051
0.331329
0.33598
0.340714
0.345245
0.349311
0.352699
0.355263
0.356926
0.357667
0.35749
0.356377
0.354238
0.350886
0.34592
0.339049
0.331127
0.322855
0.314942
0.308245
0.303884
0.304027
0.31366
0.342384
0.403733
0.511228
0.676173
0.919033
1.20171
1.47756
1.76634
2.00943
2.15109
2.17935
2.10695
1.96375
1.78724
1.60476
1.43325
1.28153
1.15438
1.05452
0.982362
0.935559
0.909494
0.898577
0.897601
0.902528
0.910648
0.920341
0.930727
0.941347
0.951942
0.962304
0.972208
0.981389
0.989541
0.995704
0.999421
1.00034
0.998796
0.994827
0.988573
0.980319
0.970488
0.95963
0.948391
0.937455
0.927462
0.918901
0.912005
0.906745
0.902754
0.899139
0.89479
0.888367
0.878677
0.864991
0.849622
0.832394
0.813672
0.793843
0.77302
0.751156
0.728184
0.704025
0.678212
0.649772
0.620617
0.59231
0.565993
0.542424
0.521944
0.504503
0.48975
0.477168
0.46646
0.457294
0.449608
0.443711
0.440176
0.439728
0.443056
0.450614
0.462415
0.47776
0.495014
0.511627
0.524688
0.532312
0.536057
0.543412
0.568148
0.626842
0.732854
0.890708
1.08921
1.29088
1.43562
1.47689
1.41716
1.30117
1.19196
1.11348
1.06473
1.04372
1.0481
1.07336
1.11216
1.15654
1.19878
1.23523
1.26127
1.28508
1.30665
1.32237
1.32804
1.32232
1.30415
1.27473
1.23682
1.19388
1.14912
1.10464
1.05996
1.01831
0.982765
0.954998
0.939458
0.952282
1.0245
3.08577
1.40188
0.873443
0.653798
0.555218
0.51214
0.496191
0.493316
0.495624
0.49844
0.499125
0.496442
0.4901
0.480409
0.468004
0.453656
0.438145
0.42218
0.406377
0.391251
0.37723
0.36492
0.3547
0.346666
0.341048
0.338013
0.337165
0.337573
0.339201
0.341858
0.345308
0.34926
0.353373
0.357286
0.360659
0.363214
0.364767
0.365232
0.36461
0.362964
0.360365
0.3569
0.352689
0.347817
0.342352
0.336345
0.329884
0.323311
0.318065
0.317812
0.328525
0.361087
0.432747
0.564791
0.778646
1.07493
1.37359
1.63366
1.85245
1.98656
2.03783
2.00112
1.89072
1.73647
1.5673
1.40478
1.26028
1.13907
1.04333
0.973687
0.928805
0.905033
0.897076
0.899392
0.90741
0.91805
0.929637
0.941513
0.953611
0.966107
0.979188
0.992911
1.00712
1.02141
1.03515
1.04767
1.05702
1.06245
1.06317
1.05843
1.04934
1.03634
1.02
1.00099
0.980175
0.958567
0.937273
0.917438
0.900061
0.88572
0.874711
0.867038
0.861546
0.856878
0.850932
0.841768
0.829577
0.814688
0.797549
0.77905
0.759912
0.74048
0.720736
0.700423
0.679147
0.656312
0.630531
0.602846
0.574787
0.547621
0.52241
0.499937
0.48062
0.464478
0.451174
0.440172
0.430934
0.422794
0.415454
0.408905
0.403404
0.399401
0.397434
0.397986
0.40132
0.407326
0.415464
0.42505
0.436114
0.451036
0.476493
0.523977
0.606888
0.734716
0.906777
1.10549
1.28904
1.39967
1.40351
1.32014
1.20858
1.11877
1.06499
1.0398
1.03644
1.05004
1.07845
1.1141
1.14738
1.16987
1.18649
1.2023
1.21985
1.23932
1.256
1.26684
1.2676
1.25559
1.23078
1.19548
1.1533
1.10794
1.06199
1.01567
0.972961
0.936145
0.905776
0.882644
0.870244
0.879936
3.3811
1.32467
0.781052
0.5965
0.53576
0.523541
0.530243
0.542254
0.552527
0.557616
0.556416
0.549249
0.537178
0.521542
0.503675
0.484747
0.4657
0.44725
0.429915
0.414069
0.400159
0.388764
0.379662
0.373126
0.36935
0.367891
0.367317
0.367714
0.368966
0.370942
0.373464
0.376278
0.379035
0.381338
0.382815
0.383182
0.382276
0.380097
0.376786
0.372482
0.367642
0.3623
0.356539
0.350496
0.344326
0.338287
0.33285
0.329149
0.329722
0.340385
0.373726
0.448949
0.592171
0.830897
1.14622
1.45346
1.70054
1.85046
1.91934
1.91616
1.84483
1.72157
1.57127
1.41796
1.27727
1.15684
1.05925
0.985312
0.934857
0.906085
0.89517
0.896961
0.906347
0.919361
0.933589
0.948004
0.962537
0.97761
0.993764
1.0114
1.03064
1.05129
1.07281
1.09442
1.11496
1.13273
1.14587
1.15345
1.1545
1.14823
1.13389
1.113
1.08708
1.05717
1.02447
0.990404
0.95649
0.924443
0.896006
0.872096
0.853207
0.840127
0.8315
0.825729
0.82009
0.812483
0.801606
0.787058
0.769492
0.750061
0.729947
0.710003
0.690595
0.671629
0.652631
0.632827
0.610642
0.585953
0.559949
0.533709
0.508303
0.484727
0.463778
0.445927
0.43125
0.419439
0.409982
0.402107
0.395166
0.388726
0.382621
0.376937
0.371957
0.368073
0.365702
0.365215
0.36696
0.371509
0.380331
0.397052
0.428976
0.487527
0.585388
0.72972
0.914015
1.11248
1.27963
1.36447
1.34665
1.25645
1.15608
1.08386
1.04507
1.03294
1.03962
1.0593
1.08576
1.10912
1.1242
1.13318
1.139
1.14633
1.15751
1.17306
1.19068
1.2056
1.21219
1.20623
1.18637
1.15433
1.11376
1.06885
1.02265
0.976689
0.935362
0.900209
0.871198
0.848084
0.831102
0.824006
3.39172
1.18023
0.699427
0.577063
0.559118
0.573732
0.595288
0.612659
0.621003
0.619373
0.609096
0.592399
0.571576
0.54864
0.525217
0.502504
0.481312
0.46213
0.445218
0.430818
0.419783
0.411599
0.40648
0.404542
0.405776
0.408594
0.411032
0.41326
0.41517
0.41661
0.417488
0.417777
0.41732
0.415929
0.413414
0.409667
0.404788
0.399108
0.393822
0.390958
0.38797
0.384009
0.378557
0.37193
0.364715
0.358371
0.354214
0.355187
0.36593
0.397815
0.470674
0.610973
0.846701
1.1545
1.4601
1.69329
1.80302
1.8343
1.80328
1.71825
1.59478
1.45456
1.31725
1.19524
1.09345
1.01294
0.953708
0.915443
0.896576
0.893671
0.90202
0.916917
0.934721
0.953289
0.97185
0.990601
1.01022
1.03147
1.05487
1.08055
1.10821
1.13712
1.1662
1.19422
1.21986
1.24026
1.25473
1.26221
1.2618
1.25276
1.23456
1.20654
1.17118
1.13031
1.08538
1.03827
0.990822
0.945095
0.90392
0.868994
0.840535
0.820273
0.807257
0.799138
0.7937
0.787446
0.778103
0.764593
0.747141
0.726883
0.705311
0.683777
0.663179
0.643852
0.625573
0.607632
0.588577
0.56721
0.544214
0.520264
0.496165
0.472844
0.451239
0.432132
0.416005
0.402949
0.392713
0.384662
0.37806
0.372235
0.366714
0.361279
0.35595
0.350933
0.346563
0.34328
0.341692
0.342853
0.348887
0.364116
0.396459
0.457946
0.56197
0.715434
0.908015
1.10657
1.26228
1.33141
1.30478
1.2177
1.12832
1.06763
1.03775
1.03155
1.04146
1.06047
1.08017
1.09401
1.10012
1.09983
1.09743
1.09695
1.10191
1.11384
1.13096
1.14842
1.15963
1.15886
1.14344
1.11436
1.07531
1.03097
0.984693
0.940274
0.901466
0.869164
0.842947
0.822116
0.806036
0.795501
3.23731
1.03208
0.657604
0.600998
0.617754
0.648992
0.67482
0.687357
0.685194
0.670929
0.648534
0.621572
0.592665
0.563764
0.53641
0.511649
0.490083
0.471916
0.457183
0.446881
0.440462
0.437895
0.43924
0.444686
0.454984
0.467675
0.47544
0.479694
0.481227
0.480567
0.478199
0.474418
0.469366
0.463269
0.456783
0.451466
0.45066
0.460893
0.484908
0.505316
0.517867
0.519792
0.511017
0.493875
0.472251
0.453352
0.441425
0.44244
0.464828
0.526544
0.64972
0.857909
1.13537
1.42227
1.63003
1.72375
1.74082
1.70118
1.61665
1.50131
1.3735
1.25039
1.14269
1.05435
0.985571
0.935943
0.905274
0.892555
0.895047
0.908608
0.92882
0.952048
0.975986
0.9997
1.02335
1.04773
1.07378
1.10224
1.13334
1.16679
1.2018
1.23714
1.2713
1.30262
1.32963
1.34964
1.36248
1.36731
1.36343
1.35032
1.32762
1.29517
1.25293
1.20372
1.1489
1.09072
1.03156
0.973089
0.918824
0.872725
0.834421
0.805717
0.787425
0.776317
0.769707
0.764165
0.756452
0.744531
0.727944
0.707542
0.684902
0.661712
0.639338
0.618597
0.599684
0.582185
0.565004
0.546395
0.52642
0.505341
0.483561
0.461718
0.440638
0.421196
0.404133
0.389901
0.378595
0.369886
0.363158
0.35769
0.352834
0.348135
0.343381
0.338591
0.333975
0.329916
0.327053
0.326543
0.330664
0.343882
0.374232
0.434047
0.53763
0.693006
0.888832
1.0874
1.23722
1.30002
1.2744
1.19641
1.11638
1.06234
1.03653
1.03212
1.04123
1.0564
1.07027
1.07749
1.07742
1.07178
1.06345
1.05667
1.0558
1.06354
1.07911
1.09787
1.11253
1.11594
1.1041
1.07727
1.03921
0.995063
0.94899
0.906701
0.870905
0.841943
0.819063
0.801264
0.787586
0.777663
2.95547
0.910254
0.662579
0.660458
0.699436
0.736527
0.756963
0.757032
0.740048
0.712366
0.679538
0.644871
0.610031
0.576364
0.545787
0.519566
0.498365
0.48218
0.47145
0.466294
0.466148
0.472276
0.484075
0.501553
0.5235
0.545945
0.562378
0.569133
0.570939
0.569443
0.566651
0.565051
0.568219
0.581242
0.610437
0.66208
0.740122
0.843835
0.917692
0.958483
0.965694
0.942248
0.89349
0.827233
0.754105
0.687982
0.633704
0.616332
0.646186
0.734754
0.893432
1.12088
1.36431
1.52722
1.6184
1.63893
1.60574
1.53235
1.43146
1.31822
1.2078
1.11073
1.03133
0.969867
0.925815
0.899164
0.889599
0.895309
0.912899
0.938256
0.967546
0.997897
1.02773
1.05676
1.08568
1.11567
1.14779
1.18261
1.22003
1.25927
1.29904
1.33772
1.37351
1.40448
1.42889
1.44509
1.45305
1.45228
1.44247
1.42346
1.39528
1.35809
1.31229
1.25871
1.1983
1.13263
1.06591
0.998814
0.933422
0.877592
0.831015
0.79537
0.770664
0.755237
0.74672
0.741316
0.735017
0.724855
0.70961
0.689712
0.666647
0.642266
0.618258
0.595838
0.575615
0.55756
0.540982
0.524257
0.506757
0.488441
0.46934
0.449725
0.430147
0.411363
0.39418
0.379269
0.367029
0.357477
0.350251
0.344744
0.340275
0.336253
0.332281
0.328202
0.324089
0.320239
0.317239
0.31621
0.319357
0.330964
0.358743
0.41476
0.513717
0.665116
0.858922
1.05639
1.20472
1.2687
1.25079
1.18574
1.11485
1.06443
1.03917
1.03341
1.03944
1.05
1.05873
1.06182
1.05854
1.04914
1.03605
1.02384
1.01772
1.02147
1.03529
1.05485
1.07226
1.07899
1.0698
1.04429
1.00633
0.96137
0.916386
0.876703
0.844234
0.818877
0.799584
0.785109
0.774291
0.766179
2.58981
0.839557
0.709843
0.744143
0.793539
0.827468
0.835847
0.820522
0.789832
0.75242
0.713165
0.673346
0.63306
0.593
0.557448
0.528659
0.507776
0.495601
0.492645
0.495467
0.505074
0.522788
0.548776
0.581837
0.618545
0.65391
0.684096
0.708878
0.733645
0.769526
0.825106
0.908316
1.02408
1.17153
1.34075
1.51069
1.65013
1.72778
1.74719
1.72335
1.66427
1.57488
1.45913
1.32276
1.17631
1.03705
0.927869
0.872264
0.886434
0.976693
1.12469
1.27321
1.40837
1.49587
1.52944
1.51341
1.45905
1.37772
1.28164
1.18385
1.09507
1.02102
0.963098
0.921065
0.895092
0.885528
0.891651
0.911122
0.940451
0.975771
1.0135
1.0509
1.08657
1.12061
1.15421
1.18892
1.22593
1.26565
1.30758
1.35045
1.39246
1.43158
1.46575
1.49303
1.51141
1.5206
1.52064
1.5115
1.49343
1.46659
1.43138
1.38817
1.33817
1.28303
1.22139
1.15205
1.08167
1.01104
0.942562
0.87978
0.825908
0.783488
0.753495
0.73397
0.723496
0.717997
0.712884
0.704394
0.690634
0.671612
0.648653
0.623656
0.598491
0.574644
0.553045
0.534014
0.517251
0.501598
0.485901
0.469903
0.453359
0.436216
0.418708
0.401355
0.384862
0.369959
0.357225
0.346967
0.339116
0.333281
0.328875
0.325281
0.321995
0.318717
0.315383
0.312189
0.309642
0.308779
0.31165
0.32221
0.347595
0.399144
0.49126
0.634566
0.821664
1.01599
1.16531
1.23552
1.22958
1.17851
1.11841
1.07166
1.04504
1.03583
1.03733
1.04299
1.04758
1.04782
1.04171
1.02893
1.01182
0.995182
0.984902
0.985648
0.998444
1.01917
1.03925
1.0487
1.04124
1.01586
0.976624
0.931378
0.888188
0.851437
0.822513
0.800918
0.78531
0.774225
0.766342
0.760501
2.17767
0.842965
0.787654
0.840731
0.891331
0.915926
0.910386
0.882412
0.843363
0.801373
0.758676
0.714085
0.667251
0.620902
0.579879
0.548605
0.529754
0.525807
0.53082
0.545217
0.570115
0.606673
0.655282
0.715294
0.785626
0.866727
0.96252
1.07972
1.22458
1.39888
1.59713
1.80643
2.00754
2.17871
2.30132
2.36545
2.3729
2.33615
2.28492
2.22262
2.14827
2.05795
1.94647
1.80966
1.64793
1.47073
1.30082
1.17254
1.11614
1.13698
1.21054
1.29988
1.3785
1.42357
1.42834
1.39672
1.33751
1.26048
1.17619
1.09482
1.02365
0.966034
0.922722
0.894146
0.881115
0.883928
0.901514
0.931511
0.97072
1.01541
1.0617
1.10636
1.14775
1.18621
1.22349
1.26169
1.30224
1.34542
1.39035
1.4352
1.47759
1.51502
1.54511
1.56602
1.57595
1.57585
1.56575
1.54602
1.51814
1.48228
1.43941
1.39004
1.33405
1.2763
1.21489
1.14963
1.08107
1.01067
0.941009
0.875356
0.817043
0.76892
0.733054
0.71046
0.69885
0.693472
0.689498
0.682528
0.670154
0.652093
0.629545
0.604406
0.578631
0.553851
0.531196
0.511242
0.494001
0.478856
0.464462
0.45031
0.435995
0.421232
0.405979
0.390493
0.375294
0.361041
0.348364
0.337754
0.329392
0.323131
0.318557
0.315128
0.312318
0.309738
0.307216
0.304842
0.303031
0.302715
0.305762
0.315757
0.339152
0.386292
0.470725
0.603551
0.780367
0.969009
1.11987
1.19895
1.20724
1.17095
1.12101
1.07831
1.05093
1.03786
1.03437
1.03556
1.03678
1.03378
1.02418
1.00792
0.987367
0.967496
0.954631
0.954101
0.967449
0.990446
1.01359
1.02529
1.01848
0.991551
0.951211
0.906845
0.865809
0.832115
0.80676
0.788894
0.776899
0.769091
0.763994
0.760358
1.80831
0.870512
0.873223
0.938237
0.987034
1.00295
0.987419
0.9524
0.91029
0.867587
0.824044
0.776817
0.725385
0.673669
0.628808
0.598814
0.591276
0.599148
0.619448
0.654405
0.706108
0.776502
0.86698
0.978411
1.11171
1.26837
1.44938
1.65214
1.86734
2.07897
2.26763
2.41547
2.5109
2.55213
2.5474
2.5114
2.4595
2.40229
2.36249
2.33661
2.31864
2.30002
2.26956
2.2137
2.11837
1.97371
1.78285
1.57213
1.39163
1.29092
1.2785
1.31672
1.35684
1.37293
1.35908
1.31854
1.25844
1.18687
1.11229
1.04245
0.982431
0.93472
0.900431
0.880553
0.876071
0.887014
0.912348
0.95024
0.997433
1.05069
1.1056
1.15791
1.2052
1.24764
1.28755
1.32789
1.37059
1.41605
1.46302
1.50906
1.55103
1.58565
1.6101
1.62248
1.62228
1.61176
1.59095
1.55938
1.52106
1.47585
1.42509
1.37027
1.31268
1.25317
1.19186
1.12842
1.06265
0.995136
0.927583
0.862673
0.803459
0.752809
0.713138
0.686126
0.671945
0.667284
0.664552
0.65895
0.647722
0.630491
0.608445
0.583486
0.557592
0.53244
0.509248
0.488731
0.471109
0.456117
0.442785
0.430161
0.417758
0.405147
0.392091
0.378622
0.365056
0.351916
0.339788
0.329244
0.320634
0.314023
0.309193
0.305737
0.303182
0.301121
0.299313
0.297757
0.296778
0.297192
0.300676
0.310445
0.332249
0.375341
0.452081
0.573445
0.73773
0.918246
1.06973
1.15824
1.18141
1.16023
1.12081
1.08232
1.05383
1.03627
1.02682
1.02213
1.01929
1.01413
1.00211
0.982818
0.959837
0.938386
0.925075
0.92564
0.941768
0.968628
0.995405
1.00862
1.00085
0.973092
0.932734
0.889254
0.850141
0.819231
0.797192
0.782836
0.774249
0.769497
0.766909
0.76514
1.49451
0.907617
0.95381
1.02751
1.07619
1.08877
1.07017
1.03428
0.993785
0.954724
0.916295
0.87513
0.830371
0.78636
0.751943
0.737278
0.743728
0.762432
0.80017
0.859074
0.940972
1.04703
1.17724
1.3301
1.50233
1.68801
1.87716
2.05479
2.20288
2.3054
2.35388
2.35019
2.30574
2.23794
2.16533
2.10314
2.06066
2.04084
2.05193
2.09066
2.15351
2.23554
2.32823
2.41696
2.47916
2.48488
2.40329
2.21818
1.95115
1.67645
1.48973
1.41812
1.40858
1.38846
1.34967
1.29427
1.22748
1.15532
1.08393
1.0186
0.962362
0.920106
0.891586
0.877434
0.878255
0.893708
0.922938
0.964557
1.01648
1.07568
1.13747
1.19675
1.25004
1.29692
1.33959
1.38135
1.42479
1.47081
1.51826
1.56422
1.60464
1.63531
1.65304
1.65625
1.64624
1.62573
1.59566
1.55679
1.51021
1.45736
1.39985
1.33949
1.27794
1.21632
1.15493
1.09333
1.03085
0.967305
0.903568
0.841588
0.783937
0.733314
0.692257
0.662814
0.645719
0.639309
0.638011
0.633577
0.623144
0.606464
0.584857
0.560272
0.53467
0.509695
0.486555
0.466001
0.448352
0.433534
0.421051
0.409797
0.399084
0.388406
0.377396
0.365918
0.354106
0.342338
0.3311
0.320982
0.312423
0.305638
0.300584
0.297009
0.294542
0.292811
0.291556
0.290721
0.290545
0.291735
0.295776
0.305521
0.326048
0.365521
0.434993
0.544888
0.695633
0.866121
1.01653
1.1135
1.15091
1.14458
1.11616
1.08284
1.05408
1.03255
1.01721
1.00593
0.996178
0.984677
0.96956
0.949733
0.927004
0.906578
0.89559
0.900147
0.92167
0.954093
0.984787
1.00011
0.992496
0.96362
0.922191
0.878631
0.84071
0.81207
0.793002
0.781926
0.776566
0.774654
0.774245
0.773862
1.23703
0.935244
1.01355
1.0971
1.15178
1.16986
1.15686
1.12661
1.09234
1.06182
1.03623
1.01311
0.990585
0.970078
0.956414
0.95568
0.96342
0.991038
1.04104
1.11451
1.21142
1.33003
1.46624
1.61311
1.76052
1.89526
2.002
2.06623
2.07894
2.04055
1.96137
1.85818
1.74934
1.65081
1.57407
1.52587
1.50918
1.52764
1.56895
1.63543
1.73212
1.86514
2.03899
2.25214
2.49102
2.72369
2.8977
2.94733
2.81483
2.49124
2.07744
1.74934
1.59776
1.50849
1.42136
1.33304
1.24318
1.15924
1.08381
1.01748
0.962626
0.921932
0.89527
0.88305
0.885306
0.901459
0.930821
0.972564
1.02541
1.08682
1.15239
1.2168
1.27575
1.32764
1.37374
1.41696
1.46017
1.50478
1.55
1.59307
1.62998
1.6567
1.67008
1.66778
1.65112
1.62319
1.58558
1.53948
1.48612
1.42704
1.36406
1.29922
1.23445
1.17117
1.10984
1.05001
0.990727
0.931296
0.871914
0.813843
0.759116
0.710159
0.669514
0.639384
0.620739
0.612279
0.610016
0.606519
0.59639
0.579876
0.558563
0.534473
0.509515
0.485234
0.462745
0.442746
0.425565
0.411206
0.399384
0.389445
0.380306
0.371403
0.362286
0.352701
0.342642
0.332344
0.322187
0.31274
0.304477
0.297707
0.292525
0.288818
0.286332
0.284772
0.283898
0.283631
0.284154
0.286067
0.290676
0.300489
0.319952
0.356201
0.418993
0.517981
0.655133
0.814446
0.961928
1.06555
1.11564
1.1232
1.10594
1.07893
1.05146
1.02743
1.00731
0.990155
0.974253
0.957474
0.938601
0.916724
0.893961
0.875924
0.870094
0.882409
0.913007
0.953488
0.988978
1.00505
0.995034
0.962552
0.918138
0.873241
0.835788
0.809059
0.792828
0.785011
0.782849
0.783622
0.785037
0.785453
1.03732
0.934825
1.03383
1.13165
1.20142
1.23653
1.24006
1.22313
1.19862
1.17666
1.16208
1.15491
1.15296
1.15449
1.15983
1.16928
1.1872
1.22164
1.27467
1.34627
1.43421
1.53351
1.63621
1.73154
1.80687
1.84975
1.85096
1.80794
1.7267
1.62054
1.50578
1.39712
1.30503
1.23535
1.19028
1.16957
1.1718
1.19151
1.21297
1.24332
1.29414
1.38072
1.52119
1.734
2.03133
2.407
2.82399
3.21076
3.46517
3.45727
3.12278
2.5501
2.04538
1.78207
1.59435
1.44646
1.31841
1.21008
1.11885
1.04321
0.983176
0.939092
0.910311
0.896389
0.896672
0.910302
0.936588
0.975008
1.02479
1.08407
1.14926
1.21549
1.27817
1.33453
1.38434
1.42938
1.47203
1.51388
1.55476
1.59269
1.62459
1.64715
1.65738
1.65215
1.63207
1.59986
1.55751
1.50665
1.44881
1.38568
1.31923
1.25167
1.18513
1.12121
1.06052
1.00261
0.946406
0.890882
0.835771
0.781795
0.730518
0.684094
0.644988
0.615405
0.596284
0.586368
0.582077
0.578053
0.567543
0.550735
0.529552
0.506068
0.48209
0.458997
0.43774
0.418894
0.402721
0.389234
0.378227
0.369292
0.361692
0.354453
0.347099
0.339293
0.330926
0.322099
0.313091
0.304442
0.296618
0.289989
0.284751
0.280913
0.278337
0.276813
0.276154
0.276288
0.277362
0.279892
0.285011
0.294897
0.313399
0.34669
0.403287
0.491996
0.615889
0.763429
0.906413
1.01478
1.07576
1.0959
1.08956
1.06979
1.04536
1.0208
0.997764
0.976384
0.955847
0.934857
0.91267
0.889147
0.867352
0.853793
0.856273
0.879734
0.921641
0.970204
1.00831
1.02165
1.00566
0.966726
0.917538
0.870447
0.833228
0.808524
0.795409
0.791132