/*--------------------------------*- C++ -*----------------------------------*\
| =========                 |                                                 |
| \\      /  F ield         | OpenFOAM: The Open Source CFD Toolbox           |
|  \\    /   O peration     | Version:  2112                                  |
|   \\  /    A nd           | Website:  www.openfoam.com                      |
|    \\/     M anipulation  |                                                 |
\*---------------------------------------------------------------------------*/
FoamFile
{
    version     2.0;
    format      ascii;
    arch        "LSB;label=32;scalar=64";
    class       volScalarField;
    location    "0.34";
    object      nut;
}
// * * * * * * * * * * * * * * * * * * * * * * * * * * * * * * * * * * * * * //

dimensions      [0 2 -1 0 0 0 0];

internalField   nonuniform List<scalar> 
12225
(
3.97525e-06
6.29381e-06
8.18699e-06
9.96744e-06
1.18348e-05
1.39081e-05
1.62622e-05
1.89487e-05
2.20058e-05
2.54626e-05
2.93394e-05
3.36467e-05
3.83855e-05
4.35488e-05
4.91246e-05
5.50936e-05
6.14627e-05
6.83479e-05
3.6782e-05
1.84606e-05
1.40324e-05
1.2523e-05
1.21549e-05
1.24042e-05
1.30688e-05
1.40539e-05
1.53037e-05
1.67775e-05
1.84407e-05
2.02636e-05
2.22237e-05
2.43094e-05
2.65265e-05
2.89129e-05
3.16347e-05
3.52528e-05
0.000271828
0.000100058
7.50402e-05
6.21955e-05
4.43332e-05
3.44092e-05
2.84955e-05
2.48354e-05
2.25469e-05
2.1144e-05
2.03425e-05
1.99678e-05
1.99124e-05
2.01136e-05
2.05413e-05
2.11946e-05
2.21076e-05
2.33471e-05
0.000814736
0.000688978
0.000407653
0.000263458
0.000187778
0.000146136
0.000122562
0.000109414
9.80026e-05
8.2906e-05
7.19883e-05
6.38307e-05
5.75311e-05
5.25085e-05
4.83889e-05
4.49303e-05
4.19875e-05
3.95295e-05
0.000849878
0.000838688
0.000813059
0.000767599
0.000701754
0.000612031
0.000499114
0.00041135
0.000347004
0.000302699
0.000272977
0.000253927
0.000235564
0.000211095
0.000190196
0.000171904
0.000155559
0.000140888
0.000851669
0.000850758
0.000848436
0.000843422
0.000834189
0.000819466
0.000798823
0.000772516
0.00074155
0.000707389
0.000671524
0.000635148
0.000599112
0.000563879
0.000529472
0.000495748
0.000462576
0.000430136
0.000851664
0.000851313
0.000850889
0.000850268
0.00084926
0.000847597
0.000844995
0.000841211
0.000836083
0.00082954
0.000821581
0.000812243
0.000801563
0.000789546
0.000776141
0.000761241
0.000744718
0.000726553
0.000851604
0.00085123
0.00085088
0.000850554
0.000850246
0.000849927
0.000849541
0.00084903
0.000848336
0.00084741
0.000846211
0.000844703
0.000842857
0.00084064
0.00083801
0.000834916
0.000831287
0.000827063
0.000851558
0.000851149
0.000850771
0.00085043
0.000850131
0.000849871
0.000849636
0.000849405
0.000849162
0.000848888
0.000848569
0.000848194
0.000847755
0.000847251
0.000846677
0.000846031
0.000845304
0.000844485
0.000851524
0.000851087
0.000850685
0.000850318
0.000849991
0.0008497
0.000849436
0.000849188
0.000848945
0.000848698
0.000848441
0.000848169
0.000847883
0.000847587
0.000847286
0.000846988
0.000846698
0.000846419
0.000851498
0.000851039
0.000850617
0.00085023
0.00084988
0.000849562
0.00084927
0.000848993
0.000848723
0.000848456
0.000848186
0.000847912
0.000847636
0.000847363
0.000847099
0.000846852
0.000846629
0.000846437
0.00085148
0.000851004
0.000850567
0.000850165
0.000849799
0.000849463
0.000849151
0.000848856
0.00084857
0.000848289
0.000848011
0.000847734
0.000847462
0.000847199
0.000846951
0.000846725
0.000846528
0.000846367
0.000851466
0.000850976
0.000850525
0.000850111
0.000849731
0.000849382
0.000849056
0.000848748
0.000848452
0.000848164
0.000847883
0.000847609
0.000847344
0.000847093
0.000846861
0.000846654
0.00084648
0.000846345
0.000851452
0.000850949
0.000850485
0.000850059
0.000849668
0.000849306
0.00084897
0.000848653
0.000848351
0.000848061
0.000847782
0.000847515
0.000847262
0.000847026
0.000846814
0.00084663
0.000846482
0.000846373
0.000851441
0.000850926
0.00085045
0.000850012
0.00084961
0.000849238
0.000848894
0.000848571
0.000848267
0.000847978
0.000847706
0.000847449
0.000847211
0.000846995
0.000846804
0.000846644
0.00084652
0.000846437
0.000851431
0.000850905
0.000850419
0.000849971
0.00084956
0.000849181
0.00084883
0.000848505
0.000848201
0.000847918
0.000847654
0.00084741
0.000847188
0.00084699
0.00084682
0.000846681
0.000846578
0.000846513
0.000851423
0.000850889
0.000850394
0.000849938
0.00084952
0.000849136
0.000848782
0.000848457
0.000848157
0.00084788
0.000847626
0.000847395
0.000847187
0.000847006
0.000846851
0.000846727
0.000846635
0.000846576
0.000851417
0.000850877
0.000850377
0.000849916
0.000849494
0.000849108
0.000848755
0.000848432
0.000848137
0.000847868
0.000847624
0.000847403
0.000847207
0.000847035
0.000846888
0.000846767
0.000846672
0.000846605
0.000851415
0.000850873
0.000850371
0.000849911
0.00084949
0.000849108
0.00084876
0.000848444
0.000848157
0.000847897
0.000847662
0.00084745
0.00084726
0.00084709
0.00084694
0.00084681
0.000846699
0.000846605
0.000851418
0.000850879
0.000850383
0.000849929
0.000849516
0.000849143
0.000848806
0.000848501
0.000848227
0.000847978
0.000847753
0.000847549
0.000847364
0.000847194
0.000847039
0.000846896
0.000846764
0.000846643
0.000851424
0.000850893
0.000850406
0.000849963
0.000849562
0.000849201
0.000848878
0.000848587
0.000848327
0.000848092
0.00084788
0.000847686
0.000847507
0.000847341
0.000847184
0.000847034
0.000846889
0.000846749
0.000851434
0.000850916
0.000850442
0.000850013
0.000849626
0.000849281
0.000848974
0.000848701
0.000848458
0.000848242
0.000848046
0.000847868
0.000847702
0.000847546
0.000847395
0.000847246
0.000847098
0.000846949
0.00085145
0.000850949
0.000850492
0.000850079
0.00084971
0.000849383
0.000849097
0.000848846
0.000848625
0.00084843
0.000848256
0.000848097
0.000847949
0.000847805
0.000847662
0.000847516
0.000847364
0.000847204
0.000851474
0.000850995
0.000850559
0.000850163
0.00084981
0.000849498
0.000849222
0.000848972
0.000848736
0.000848503
0.000848263
0.000848004
0.000847715
0.00084739
0.00084702
0.000846603
0.000846135
0.000845616
0.000851508
0.000851056
0.000850619
0.000850161
0.000849635
0.000848981
0.000848122
0.000846972
0.000845451
0.000843491
0.000841044
0.000838094
0.000834649
0.000830728
0.000826366
0.000821603
0.000816487
0.000811065
0.000851487
0.000850628
0.000848872
0.000845441
0.000839581
0.000830612
0.000817957
0.00080132
0.000780779
0.00075679
0.000730117
0.000684827
0.000632175
0.000587212
0.000549599
0.000518719
0.000493368
0.000475591
0.000847478
0.000830855
0.000793922
0.000734731
0.000585859
0.000439206
0.00034911
0.000289876
0.00024865
0.000219264
0.00019819
0.000183139
0.000172609
0.000165605
0.00016148
0.00015787
0.00014577
0.000135621
0.000644936
0.000227495
0.000151519
0.000122793
0.000109728
0.000102856
8.07244e-05
6.59445e-05
5.5671e-05
4.83129e-05
4.2924e-05
3.89125e-05
3.58926e-05
3.36032e-05
3.18626e-05
3.05395e-05
2.95383e-05
2.87872e-05
8.41472e-05
3.68001e-05
2.45012e-05
1.94688e-05
1.7057e-05
1.58713e-05
1.53633e-05
1.52845e-05
1.55044e-05
1.59459e-05
1.65617e-05
1.73198e-05
1.81962e-05
1.91712e-05
2.02275e-05
2.13506e-05
2.25279e-05
2.37488e-05
3.99101e-06
6.14093e-06
7.91309e-06
9.49673e-06
1.10125e-05
1.25443e-05
1.41458e-05
1.58496e-05
1.76566e-05
1.95567e-05
2.16066e-05
2.38139e-05
2.61816e-05
2.87099e-05
3.13971e-05
3.42392e-05
3.72326e-05
4.03636e-05
0.000246769
0.000244569
0.000248761
0.000257308
0.000269341
0.000274551
0.000247825
0.000226311
0.000210283
0.000198151
0.000188998
0.000182233
0.000177447
0.000174358
0.000172774
0.000172557
0.000173606
0.000175846
0.000179212
0.000183647
0.000189104
0.00019554
0.00020296
0.000210799
0.000219064
0.00022772
0.00023678
0.000246373
0.000251233
0.000250723
0.000249419
0.000247449
0.000244919
0.000241932
0.000238599
0.000235051
0.000231444
0.000227966
0.000224867
0.000222478
0.000221222
0.000221576
0.000223976
0.000228666
0.000235547
0.000244047
0.000253063
0.000261912
0.00027015
0.000277412
0.000283019
0.000274784
0.000253835
0.000232798
0.000214186
0.000199349
0.000189233
0.000184297
0.000184262
0.000188082
0.00019286
0.000197425
0.000203782
0.000215493
0.000224488
0.000216874
0.000218308
0.000230986
0.000251524
0.00027545
0.000294173
0.000308534
0.000318815
0.000325383
0.000328701
0.000329234
0.000327383
0.000323547
0.000318069
0.000311192
0.000298918
0.000284998
0.000272175
0.000260195
0.000248891
0.000238129
0.000227774
0.000217686
0.000207962
0.000199029
0.000190799
0.000183232
0.000176312
0.000170045
0.000164462
0.000159624
0.00015563
0.000152631
0.000150841
0.000150558
0.000152264
0.000156708
0.000165094
0.000179534
0.000203994
0.000246318
0.000320952
0.000435096
0.000493698
0.000457926
0.000398933
0.000364471
0.000348958
0.000345769
0.000350962
0.000362128
0.000377902
0.000397579
0.000420777
0.00044729
0.000477119
0.000510372
0.000546368
0.000582356
0.000619054
0.000656875
0.000695691
0.000735113
0.000774258
0.000811464
0.000844249
0.000869507
0.00088397
0.000884904
0.000870986
0.000843128
0.000804545
0.000760034
0.00071468
0.000671875
0.000631584
0.000590935
0.000548353
0.000504588
0.000461092
0.000422651
0.000396669
0.000395739
0.000445068
0.000464667
0.000487278
0.000524922
0.000559711
0.000585532
0.000597866
0.000559278
0.000486423
0.000433379
0.000393815
0.000365467
0.000353631
0.000362341
0.000403856
0.0005127
0.000786801
0.000859774
0.000934389
0.0010006
0.000938396
0.000938268
0.000987737
0.00106995
0.00117714
0.0013063
0.00145729
0.00163106
0.00182428
0.00201956
0.00221019
0.00242488
0.000290847
0.000276159
0.000272327
0.000274684
0.000280693
0.000288259
0.000295992
0.00030316
0.000309363
0.000314444
0.000318402
0.000321295
0.000323221
0.000324298
0.000324657
0.000324426
0.000323732
0.000322688
0.00032122
0.000318502
0.000314271
0.000308928
0.000302799
0.000295283
0.000287018
0.000278507
0.000270171
0.000262312
0.000255094
0.000248492
0.00024247
0.000237001
0.00023209
0.00022775
0.000223908
0.000220335
0.000216874
0.000213557
0.000210463
0.00020768
0.0002053
0.000203393
0.000201979
0.00020099
0.000200255
0.000199639
0.000199384
0.000199382
0.000199521
0.000199716
0.000199897
0.000199991
0.000200176
0.000200864
0.000202309
0.000204192
0.000205681
0.0002061
0.000205761
0.000206615
0.000213757
0.000225829
0.000240354
0.000256208
0.000271645
0.000284336
0.000292784
0.000296587
0.00029848
0.0002995
0.000299286
0.000297741
0.000294925
0.00029098
0.000286074
0.000280397
0.000274736
0.000269509
0.000264906
0.000261207
0.000258794
0.000258173
0.000259696
0.000263739
0.000270617
0.000280378
0.000292508
0.000305545
0.000317946
0.000330241
0.000342279
0.0003539
0.000364937
0.000375215
0.000384557
0.00039278
0.000399689
0.000404939
0.00038402
0.000361157
0.000343236
0.000329584
0.000320017
0.000314324
0.000312175
0.000313031
0.00031651
0.000323424
0.000336604
0.000356899
0.000382326
0.000412997
0.00044905
0.000469439
0.000450408
0.000427956
0.000404279
0.000380687
0.000358142
0.000337343
0.000318777
0.000302938
0.000291723
0.000290404
0.000297885
0.000311097
0.000328203
0.000348191
0.000370332
0.000393899
0.000417971
0.000441375
0.000462737
0.000480493
0.000492636
0.000496743
0.000490126
0.000470694
0.0004389
0.000399725
0.00036302
0.000341402
0.000340612
0.000357524
0.000381001
0.000399231
0.00041688
0.000437814
0.000462231
0.000489201
0.000515829
0.000535193
0.000546163
0.000549959
0.000547066
0.000546151
0.00055651
0.000577676
0.000605433
0.000630339
0.000642241
0.000650403
0.000657379
0.000663181
0.00063468
0.000602207
0.000604587
0.000628412
0.000612523
0.000578421
0.000549598
0.000528877
0.000518642
0.00051982
0.000533159
0.000559799
0.000604592
0.000698099
0.000845369
0.00103934
0.000339943
0.000308689
0.000296859
0.00029525
0.000298697
0.000304014
0.00030935
0.000313808
0.000316995
0.000318853
0.000319883
0.000319975
0.000319373
0.000318239
0.000316727
0.000314984
0.000313151
0.000311361
0.000309736
0.000308371
0.000307349
0.000306732
0.000306558
0.000306651
0.000306713
0.000306538
0.000305906
0.000304594
0.000302412
0.000299211
0.000294907
0.000289496
0.000283066
0.000275799
0.000267935
0.000259728
0.000251425
0.00024328
0.000235524
0.000228348
0.000221883
0.000216209
0.00021135
0.000207279
0.000203926
0.000201186
0.000198955
0.000197107
0.000195666
0.000194619
0.000194072
0.000194382
0.000196287
0.000200781
0.00020833
0.000217849
0.000227154
0.000234867
0.000242548
0.000256596
0.000272847
0.00028847
0.000302354
0.000312886
0.000316799
0.000315168
0.000309375
0.000305376
0.000300031
0.00029544
0.000291683
0.000288888
0.00028727
0.000287119
0.000289081
0.000293585
0.00030094
0.000310998
0.00032323
0.000336744
0.000350343
0.000363185
0.000374569
0.00038396
0.000391172
0.000396329
0.000399773
0.000402105
0.000404116
0.000405766
0.000407029
0.00040789
0.000408322
0.000408285
0.00040772
0.000387764
0.000367909
0.000349518
0.000332539
0.000317237
0.000303895
0.000292899
0.000284532
0.000278927
0.00027601
0.000275536
0.000277354
0.000282203
0.000293266
0.000309332
0.000328318
0.000349643
0.000374151
0.000403611
0.000438932
0.000464838
0.000465063
0.000463952
0.000462085
0.000459836
0.000457426
0.000454957
0.000452298
0.000447279
0.000435078
0.000418997
0.000402962
0.000389768
0.000380895
0.000376701
0.000376807
0.000380337
0.000386187
0.000393149
0.000399759
0.000403919
0.000402841
0.000394591
0.000379427
0.000359952
0.000340963
0.000328276
0.00032666
0.000337785
0.000359938
0.000389369
0.000423261
0.000458942
0.000492777
0.000521188
0.000541321
0.000551406
0.000555947
0.000557956
0.000560335
0.000566056
0.000574223
0.000582996
0.000592013
0.000601492
0.000609629
0.000614982
0.000615745
0.000530816
0.000477002
0.000448399
0.000435007
0.000435765
0.000450963
0.00047852
0.000516267
0.000559827
0.00060078
0.000627739
0.000617069
0.000599707
0.000583899
0.000583866
0.000621921
0.000710092
0.000382926
0.000333782
0.000313973
0.000308581
0.000309212
0.000311521
0.00031348
0.000314363
0.00031407
0.000312898
0.000311007
0.00030857
0.000305728
0.000302602
0.000299304
0.000295957
0.000292686
0.000289629
0.000286924
0.000284713
0.000283129
0.000282291
0.000282285
0.000283044
0.000284725
0.000287275
0.00029058
0.000294464
0.000298681
0.000302913
0.00030678
0.000309872
0.000310771
0.000312104
0.000310591
0.000307082
0.000301612
0.000294406
0.000285854
0.000276446
0.000266695
0.000257056
0.000247886
0.000239434
0.000231872
0.000225308
0.000219805
0.000215423
0.000212196
0.000210236
0.000209861
0.000211798
0.000217366
0.000227904
0.000243007
0.000259341
0.000273574
0.000288116
0.000303401
0.000314103
0.000322577
0.000329548
0.000332167
0.000329534
0.00032295
0.000314379
0.000305926
0.000299088
0.000294641
0.000293067
0.00029461
0.000299508
0.000307866
0.000319431
0.000333458
0.00034862
0.000363428
0.000376642
0.00038759
0.000396167
0.000402659
0.000407542
0.000411266
0.00041419
0.000416565
0.000418525
0.000420035
0.000421054
0.000421552
0.0004215
0.000411206
0.000397316
0.000384586
0.000372849
0.000361822
0.000351108
0.000340298
0.000329081
0.000317412
0.000305345
0.000293612
0.00028308
0.000274542
0.000268581
0.000265509
0.000265449
0.00026851
0.000275451
0.000287172
0.00030253
0.000320642
0.00034097
0.00036365
0.000390302
0.000422742
0.000458309
0.000458573
0.000457543
0.00045592
0.000454229
0.000452842
0.000451994
0.000451785
0.00045217
0.000452824
0.000452694
0.000450699
0.000446296
0.000439597
0.000431303
0.000422238
0.000413691
0.000406778
0.000401844
0.000398446
0.000395343
0.00039069
0.000383039
0.000372173
0.000359228
0.000346768
0.000338566
0.000338801
0.000350325
0.000373343
0.000405793
0.00044409
0.000483423
0.000518398
0.00054457
0.000559837
0.000565534
0.000559074
0.000568241
0.000569441
0.000572612
0.000578175
0.000586143
0.00059568
0.000604694
0.000611254
0.0006142
0.000559906
0.000495903
0.00045568
0.000431098
0.000420872
0.000423607
0.000439186
0.000466433
0.000504938
0.000553806
0.000610747
0.000658896
0.00066139
0.000663623
0.000667044
0.00066915
0.000644768
0.000604345
0.000412266
0.000345714
0.000320698
0.000313643
0.000312642
0.000312654
0.000312015
0.000310552
0.000308512
0.00030605
0.000303133
0.000299801
0.000296084
0.00029204
0.00028776
0.000283369
0.000279011
0.000274846
0.000271043
0.000267768
0.000265189
0.000263466
0.000262591
0.000262894
0.000264453
0.000267347
0.000271584
0.000275967
0.000258737
0.000246817
0.000239216
0.000234685
0.000232412
0.000231797
0.000232368
0.0002338
0.000235899
0.000238592
0.000241909
0.000245972
0.000251101
0.000257849
0.000266898
0.000277582
0.000275022
0.000265728
0.000257249
0.000250084
0.000244513
0.000241118
0.000240722
0.000244666
0.000254636
0.000270936
0.000290986
0.000311223
0.000329678
0.000340437
0.000343146
0.000343706
0.000343634
0.00034059
0.000333818
0.000324269
0.000313914
0.000304805
0.000298575
0.000296244
0.00029834
0.000305091
0.000316347
0.000331379
0.000348698
0.000366308
0.000382362
0.00039574
0.000406203
0.000414126
0.000420135
0.000424846
0.000428739
0.000432128
0.000435183
0.000437962
0.000440458
0.000442609
0.000443987
0.000444495
0.000429276
0.000412715
0.000396962
0.000382432
0.000369411
0.000357979
0.000347998
0.000339164
0.000330807
0.000322223
0.00031272
0.000302071
0.000290695
0.000279502
0.000269645
0.000262095
0.000257506
0.000256119
0.000258172
0.000264578
0.000275299
0.000290104
0.000308482
0.000330074
0.000354809
0.000382714
0.00041435
0.000450243
0.000459614
0.000457743
0.000454835
0.000451502
0.000448259
0.000445503
0.000443491
0.00044234
0.000442045
0.000442555
0.000443597
0.000444662
0.000445141
0.000444412
0.000441951
0.000437603
0.000431661
0.000424678
0.000417144
0.000409201
0.000400561
0.000390792
0.000379927
0.000368863
0.000359584
0.00035503
0.000358236
0.000371156
0.000394294
0.000426681
0.000465215
0.000504523
0.000538251
0.000561033
0.000555735
0.00052833
0.000521074
0.000538618
0.000577794
0.000581841
0.000589182
0.000598591
0.000607849
0.000614342
0.00061743
0.000557455
0.000499863
0.000458438
0.000428901
0.000410488
0.000404162
0.000409652
0.000426719
0.000454953
0.000494561
0.000546018
0.000609377
0.000651734
0.000651741
0.000651439
0.000651896
0.000654333
0.000659539
0.000671645
0.000421097
0.000341151
0.000317319
0.000312652
0.000312268
0.000311739
0.00031052
0.000308859
0.000306857
0.000304412
0.00030136
0.000297625
0.000293248
0.000288365
0.000283151
0.000277794
0.00027249
0.000267427
0.000262788
0.000258744
0.000255463
0.000253037
0.000251697
0.000251694
0.000253191
0.000256317
0.000243337
0.000225447
0.000212965
0.00020459
0.000199067
0.000195676
0.000193919
0.000193358
0.000193649
0.000194541
0.000195885
0.000197637
0.000199854
0.000202435
0.000205818
0.000210575
0.000216495
0.000223445
0.000231942
0.000243069
0.000257595
0.000274692
0.000276635
0.000272624
0.000272967
0.000279764
0.000294369
0.000315938
0.00034007
0.000359722
0.000366449
0.000362921
0.00035676
0.000351426
0.000344268
0.000334563
0.000323288
0.000312307
0.000303637
0.000298903
0.000299149
0.000304878
0.000316085
0.000332106
0.000351392
0.000371656
0.000390577
0.000406637
0.000419416
0.000429308
0.000437046
0.000443362
0.000448832
0.000453841
0.000458607
0.000463214
0.000467636
0.000471757
0.000475412
0.000478461
0.000480238
0.000480666
0.000479561
0.000458075
0.000433337
0.000410881
0.000390852
0.000373387
0.000358457
0.000345881
0.00033527
0.000325908
0.000316747
0.000306777
0.000295601
0.000283758
0.000272505
0.000263067
0.0002566
0.000253508
0.000254341
0.00025939
0.000268705
0.00028225
0.00029981
0.000321208
0.000346329
0.000374947
0.000407323
0.00044413
0.000463957
0.000462165
0.000458896
0.00045474
0.000450245
0.000445909
0.000442147
0.000439243
0.000437333
0.00043642
0.000436459
0.00043723
0.000438431
0.00043968
0.000440501
0.000440364
0.00043877
0.000435353
0.000429945
0.000422569
0.000413397
0.000402782
0.000391475
0.000380939
0.000373522
0.000372008
0.000378365
0.00039311
0.000416216
0.000447327
0.000484251
0.000521925
0.000553357
0.000569984
0.000533073
0.000505793
0.00050132
0.000522296
0.000567445
0.000594805
0.000603862
0.000613222
0.000619729
0.000591469
0.000532086
0.0004877
0.000454223
0.000427054
0.000405895
0.000393604
0.000391067
0.000399321
0.000418737
0.000449465
0.000491988
0.000547261
0.000614933
0.000647486
0.000645173
0.000642787
0.000641081
0.000640716
0.000642696
0.000649111
0.000404708
0.000322402
0.00030967
0.000312009
0.0003139
0.00031413
0.000313615
0.000312531
0.000310654
0.000307777
0.000303858
0.000299006
0.000293426
0.000287362
0.000281077
0.000274816
0.000268803
0.000263234
0.000258276
0.000254079
0.00025076
0.000248496
0.000247566
0.000248144
0.000250405
0.000236803
0.000217602
0.000203497
0.000193685
0.000186796
0.000182074
0.000179014
0.000177221
0.000176345
0.000176083
0.000176213
0.000176658
0.000177365
0.000178358
0.000180288
0.000183373
0.000187368
0.000192635
0.000199245
0.000207591
0.000218285
0.000232494
0.000252491
0.000281244
0.000294781
0.000297123
0.000308096
0.000328586
0.000354493
0.000375459
0.000382062
0.000375396
0.000365564
0.000356278
0.000346019
0.000334285
0.000321974
0.000310881
0.000302949
0.000299747
0.000302257
0.00031087
0.000325364
0.000344696
0.000366852
0.000389213
0.000409485
0.000426461
0.000440078
0.000450952
0.000459889
0.000467612
0.000474666
0.00048141
0.000488046
0.00049464
0.000501153
0.000507462
0.000513365
0.000518554
0.000522626
0.000524942
0.000525357
0.000523644
0.000519615
0.000499331
0.000465429
0.000435874
0.000410151
0.000388092
0.000369565
0.000354269
0.000341623
0.000330653
0.000319903
0.000308148
0.000295386
0.000282553
0.000270988
0.000262188
0.000257218
0.000256276
0.000259539
0.000267076
0.000278856
0.000294805
0.000314883
0.000339084
0.000367227
0.000399409
0.000436322
0.000468203
0.000467072
0.000464189
0.000460056
0.000455154
0.00044997
0.000444984
0.000440615
0.000437164
0.000434777
0.00043348
0.000433162
0.000433609
0.000434563
0.000435721
0.000436718
0.0004371
0.000436336
0.000433871
0.000429232
0.000422178
0.000412906
0.000402326
0.000392366
0.000386027
0.000386546
0.000395578
0.000412472
0.000436034
0.000465756
0.000500347
0.000535655
0.000564434
0.000561014
0.000523646
0.000498794
0.000495753
0.000515884
0.000554419
0.000600393
0.000617558
0.000608707
0.000558832
0.000510136
0.000473965
0.00044842
0.000426082
0.000406421
0.000391091
0.000382914
0.00038389
0.000395259
0.000417623
0.00045148
0.000497673
0.000557403
0.00062809
0.000643587
0.000639416
0.000635681
0.000632873
0.000631279
0.000631231
0.000633878
0.000346172
0.000296566
0.000306639
0.000316851
0.000319927
0.000320803
0.000320821
0.000319634
0.000316892
0.000312627
0.000307123
0.000300731
0.000293777
0.000286556
0.000279357
0.000272456
0.000266094
0.000260455
0.000255683
0.000251902
0.00024933
0.000248199
0.000248652
0.000250864
0.000255001
0.000238929
0.000222194
0.000209675
0.000200443
0.000193253
0.00018759
0.00018301
0.000179162
0.000175823
0.000172992
0.000170773
0.000169141
0.000168139
0.000168616
0.000171493
0.000175355
0.000179929
0.000185136
0.000191252
0.000198907
0.000210185
0.000229456
0.000261364
0.000309556
0.000307662
0.000314356
0.000331933
0.000357356
0.000379798
0.000388619
0.000382206
0.000371236
0.000359516
0.000347154
0.000334095
0.000321194
0.000310123
0.000302765
0.000300645
0.000304682
0.000315185
0.000331824
0.000353421
0.000377817
0.000402306
0.000424601
0.000443572
0.000459217
0.000472167
0.000483214
0.000493063
0.000502267
0.000511215
0.000520138
0.000529122
0.000538114
0.000546941
0.000555345
0.000563028
0.000569653
0.000574188
0.00057647
0.000576247
0.000573326
0.000567575
0.00055891
0.000531184
0.000493254
0.000460551
0.000432291
0.000408201
0.000388007
0.000371209
0.000357151
0.000344377
0.000330964
0.000316516
0.000301274
0.000286939
0.000275455
0.000267887
0.000264604
0.000265794
0.000271344
0.000281106
0.00029499
0.000312991
0.00033519
0.000361567
0.000392185
0.000427798
0.000468328
0.000471029
0.000468865
0.000465278
0.000460635
0.000455336
0.000449821
0.000444541
0.0004399
0.000436193
0.000433574
0.000432061
0.0004315
0.000431671
0.000432326
0.000433193
0.000433947
0.000434171
0.000433342
0.000430869
0.000426219
0.000419191
0.000410345
0.00040152
0.000396053
0.000397799
0.000408747
0.000427682
0.000452163
0.000480919
0.000513184
0.000545948
0.000572385
0.000565223
0.000526761
0.000502689
0.000499327
0.000515456
0.00054506
0.000574893
0.00057884
0.00054985
0.000510017
0.000476773
0.000451843
0.000432074
0.000414371
0.00039788
0.000385439
0.000380106
0.000384224
0.000399005
0.000425095
0.000463237
0.000514682
0.000579808
0.000643902
0.00063823
0.000632681
0.000628136
0.000624849
0.000622869
0.000622219
0.000623348
0.000293807
0.000283766
0.000315967
0.000326852
0.000329192
0.00033036
0.000330171
0.000327905
0.000323489
0.000317445
0.000310404
0.000302804
0.000294882
0.000286847
0.000279004
0.000271694
0.000265219
0.000259787
0.000255539
0.000252801
0.000251715
0.000252389
0.000255004
0.000259829
0.000267906
0.000270799
0.000254272
0.000240207
0.000229059
0.000218975
0.000209474
0.000200712
0.000192958
0.000186414
0.000181148
0.000177234
0.000175582
0.000179164
0.000189692
0.000200054
0.000209302
0.000216825
0.000222533
0.000227475
0.000234672
0.000250031
0.000279348
0.000322783
0.000316344
0.000318611
0.000331745
0.000353871
0.000376049
0.000386863
0.000383672
0.000373711
0.00036131
0.000347998
0.000334344
0.00032122
0.000310167
0.000303002
0.000301261
0.000305877
0.000317161
0.000334819
0.000357763
0.000383944
0.000410692
0.000435642
0.000457513
0.000476145
0.000492035
0.000505887
0.000518379
0.000530098
0.000541512
0.000552939
0.000564526
0.00057624
0.000587883
0.000599118
0.000609497
0.000618531
0.000625808
0.000630071
0.000631399
0.0006296
0.000624564
0.000616268
0.00060476
0.000590161
0.000551916
0.000515027
0.000483135
0.000455704
0.000432507
0.000412781
0.000395945
0.000381239
0.00036588
0.000348758
0.000330369
0.000312355
0.000296997
0.000285748
0.000279432
0.000278053
0.000281297
0.000288817
0.000300377
0.000315901
0.000335479
0.000359222
0.000387244
0.000420285
0.000459065
0.000474051
0.00047261
0.000469744
0.000465712
0.000460799
0.000455354
0.000449776
0.00044448
0.000439837
0.000436115
0.000433466
0.000431846
0.000431094
0.000430995
0.000431309
0.000431776
0.000432081
0.000431817
0.000430466
0.000427462
0.000422398
0.000415465
0.000408115
0.000403556
0.000406001
0.000418049
0.00043855
0.000464127
0.000492442
0.000522758
0.000553149
0.000577937
0.000586199
0.000544212
0.000518203
0.00051239
0.000523428
0.000544834
0.000560797
0.000554189
0.000529029
0.000499828
0.000473986
0.00045246
0.000434083
0.000416991
0.000401231
0.000390039
0.000387046
0.000394506
0.00041338
0.000444206
0.000488019
0.000545975
0.000614684
0.00063841
0.0006311
0.000624786
0.000619995
0.000616739
0.000614871
0.000614242
0.000614945
0.000249107
0.000290809
0.000332774
0.000338276
0.000340367
0.000341522
0.000340331
0.000336425
0.000330329
0.000323081
0.000315413
0.000307465
0.000299076
0.000290246
0.000281506
0.0002735
0.000266766
0.000261582
0.000258244
0.000256976
0.000258075
0.000262034
0.00026894
0.000279082
0.000292197
0.000306183
0.000307118
0.000287902
0.000271836
0.000258406
0.00024677
0.000237478
0.000231476
0.000230159
0.000235267
0.000249034
0.000273233
0.000308376
0.000335764
0.000354577
0.000365384
0.000369234
0.000368202
0.000365929
0.00036875
0.000371564
0.000346496
0.000330327
0.000325604
0.00033244
0.000348411
0.0003674
0.000378485
0.000379176
0.000372362
0.000361301
0.000348408
0.000334995
0.000322094
0.000311103
0.000303751
0.000301627
0.000305782
0.00031665
0.000334095
0.000357301
0.000384541
0.000413329
0.000441207
0.000466593
0.000488991
0.000508613
0.000525956
0.000541598
0.000556139
0.000570157
0.000584129
0.000598341
0.000612838
0.000627426
0.000641701
0.000655108
0.00066699
0.00067662
0.000683395
0.000686292
0.000685538
0.000681048
0.000672841
0.000661026
0.000645826
0.000627564
0.00060383
0.000566876
0.000534267
0.000505757
0.000481863
0.000461578
0.000443549
0.000428252
0.000412195
0.000393398
0.000371486
0.000347994
0.000327016
0.000310949
0.000300637
0.000295954
0.000296376
0.000301307
0.000310279
0.000323055
0.00033965
0.000360235
0.000385001
0.000414613
0.000450053
0.000476468
0.000475619
0.00047344
0.000470111
0.000465824
0.000460824
0.000455425
0.000449993
0.000444898
0.000440461
0.000436924
0.000434358
0.000432696
0.000431776
0.000431391
0.000431316
0.000431295
0.000431011
0.000430051
0.00042792
0.00042418
0.000418814
0.000412886
0.00040922
0.000412019
0.00042442
0.00044576
0.00047223
0.00050044
0.00052926
0.000557602
0.000581315
0.000595039
0.000580971
0.000550306
0.000539804
0.000545503
0.000559438
0.000567337
0.00055929
0.00053947
0.000514917
0.000491261
0.000470023
0.000450763
0.00043245
0.000416239
0.000406152
0.000406034
0.000417809
0.000441997
0.000478972
0.00052993
0.000593784
0.000639833
0.000631132
0.000623073
0.000616689
0.000612199
0.000609405
0.000607999
0.000607706
0.000608366
0.000212291
0.000318337
0.000348652
0.000350394
0.00035296
0.000353442
0.000350825
0.000345527
0.000338692
0.000331579
0.000324521
0.000316891
0.000307924
0.000297391
0.000286647
0.000277096
0.000269769
0.000265441
0.000264699
0.000266669
0.00027189
0.000281002
0.000294225
0.000311084
0.00032993
0.000347994
0.000362634
0.000368085
0.000355428
0.000351929
0.000358588
0.000376374
0.000406298
0.000448208
0.000500321
0.000557241
0.000575657
0.000575722
0.000566967
0.000553384
0.000536393
0.000516112
0.000492028
0.000463675
0.000431527
0.000397956
0.00036767
0.000346964
0.000339949
0.000345392
0.000356514
0.000365422
0.000369246
0.000366792
0.000359103
0.000348238
0.000336059
0.000323935
0.000313201
0.000305446
0.000302295
0.000304994
0.000314212
0.000330076
0.00035215
0.000379203
0.000409138
0.000439529
0.000468487
0.000495087
0.000519138
0.000540771
0.000560274
0.000578107
0.000594909
0.000611358
0.000627993
0.000645068
0.000662489
0.000679843
0.000696462
0.000711515
0.000724115
0.000733371
0.000738369
0.000738799
0.000734921
0.000726793
0.000714629
0.000698581
0.000678997
0.000656297
0.000631348
0.00060544
0.000578332
0.000549889
0.000522702
0.000497038
0.000473451
0.000453041
0.000436914
0.000426096
0.000421135
0.000393645
0.000365845
0.000343237
0.000327653
0.000318787