/*--------------------------------*- C++ -*----------------------------------*\
| =========                 |                                                 |
| \\      /  F ield         | OpenFOAM: The Open Source CFD Toolbox           |
|  \\    /   O peration     | Version:  2112                                  |
|   \\  /    A nd           | Website:  www.openfoam.com                      |
|    \\/     M anipulation  |                                                 |
\*---------------------------------------------------------------------------*/
FoamFile
{
    version     2.0;
    format      ascii;
    arch        "LSB;label=32;scalar=64";
    class       volScalarField;
    location    "0.34";
    object      omegaU;
}
// * * * * * * * * * * * * * * * * * * * * * * * * * * * * * * * * * * * * * //

dimensions      [0 0 -1 0 0 0 0];

internalField   nonuniform List<scalar> 
12225
(
56070.5
79744.4
87649
89008
87799.4
85598.2
83032.8
80385.6
77807.5
75385
73163.1
71156.2
69354.7
67731.7
66249.3
64872.8
63538
61951.2
3373.31
7799.08
11880
15341.4
18141
20350.5
22080
23427.7
24469.8
25265.1
25859.4
26290.7
26592.6
26795.5
26929.1
27026.5
27162.5
27523.5
260.838
633.564
1211.54
1962.59
2817.33
3706.21
4573.39
5380
6104.45
6740.44
7292.23
7772.33
8197.99
8588.62
8964.16
9346.79
9761.1
10221.2
138.065
163.477
213.989
297.851
419.507
578.514
768.869
981.497
1205.89
1432.15
1653.64
1866.83
2071.38
2269.54
2465.45
2665
2875.4
3099.33
132.281
133.965
138.169
146.399
160.282
180.971
208.713
243.339
284.058
329.599
378.822
430.854
485.149
541.645
601.001
664.37
733.31
808.799
131.967
131.983
132.232
132.923
134.332
136.72
140.258
145.064
151.169
158.528
167.053
176.666
187.313
198.995
211.852
226.134
242.17
260.231
131.936
131.835
131.758
131.727
131.78
131.96
132.304
132.846
133.612
134.617
135.865
137.362
139.115
141.142
143.477
146.173
149.299
152.913
131.924
131.807
131.699
131.602
131.524
131.467
131.436
131.432
131.459
131.52
131.618
131.756
131.94
132.176
132.475
132.85
133.317
133.892
131.915
131.791
131.675
131.568
131.472
131.387
131.311
131.242
131.178
131.118
131.062
131.009
130.96
130.919
130.887
130.87
130.872
130.896
131.908
131.779
131.658
131.546
131.444
131.35
131.263
131.181
131.102
131.025
130.947
130.87
130.792
130.716
130.643
130.574
130.513
130.46
131.903
131.77
131.645
131.529
131.422
131.323
131.231
131.143
131.058
130.975
130.892
130.811
130.73
130.651
130.575
130.504
130.439
130.381
131.9
131.763
131.635
131.517
131.407
131.304
131.208
131.117
131.028
130.943
130.859
130.776
130.696
130.618
130.545
130.477
130.416
130.362
131.897
131.757
131.627
131.506
131.394
131.289
131.19
131.096
131.006
130.919
130.834
130.752
130.673
130.598
130.528
130.464
130.407
130.358
131.894
131.752
131.62
131.496
131.381
131.274
131.173
131.078
130.986
130.899
130.815
130.734
130.658
130.586
130.519
130.459
130.407
130.364
131.892
131.748
131.613
131.487
131.37
131.261
131.159
131.062
130.97
130.883
130.8
130.722
130.648
130.58
130.518
130.462
130.415
130.377
131.89
131.744
131.607
131.479
131.361
131.25
131.146
131.049
130.958
130.871
130.79
130.714
130.644
130.579
130.521
130.47
130.426
130.391
131.888
131.74
131.602
131.473
131.353
131.241
131.137
131.04
130.949
130.864
130.785
130.711
130.644
130.582
130.527
130.478
130.437
130.404
131.887
131.738
131.599
131.469
131.348
131.236
131.132
131.035
130.945
130.862
130.784
130.713
130.647
130.588
130.534
130.486
130.445
130.409
131.887
131.737
131.598
131.468
131.347
131.236
131.133
131.037
130.949
130.867
130.792
130.722
130.658
130.598
130.544
130.495
130.45
130.409
131.887
131.739
131.6
131.471
131.352
131.243
131.142
131.048
130.962
130.883
130.809
130.741
130.678
130.618
130.563
130.511
130.462
130.417
131.889
131.741
131.604
131.478
131.361
131.254
131.155
131.065
130.982
130.905
130.834
130.767
130.705
130.647
130.591
130.538
130.487
130.437
131.891
131.746
131.611
131.487
131.373
131.269
131.174
131.087
131.007
130.934
130.866
130.803
130.743
130.686
130.632
130.579
130.527
130.476
131.894
131.752
131.621
131.5
131.39
131.289
131.198
131.115
131.04
130.972
130.909
130.851
130.797
130.746
130.696
130.648
130.601
130.553
131.898
131.761
131.634
131.517
131.412
131.318
131.236
131.165
131.106
131.058
131.02
130.993
130.974
130.965
130.962
130.967
130.979
130.996
131.905
131.776
131.661
131.566
131.498
131.47
131.493
131.58
131.741
131.987
132.324
132.753
133.271
133.876
134.561
135.32
136.146
137.032
131.928
131.879
131.993
132.395
133.215
134.582
136.625
139.452
143.143
147.733
153.212
159.514
166.545
174.211
182.411
191.045
199.995
209.174
132.579
135.079
141.313
152.804
170.637
195.477
227.472
266.629
312.544
364.432
421.233
481.754
544.762
609.067
673.625
737.578
800.14
860.89
160.618
241.46
385.925
591.821
853.987
1160.35
1494.91
1846.05
2203.09
2556.67
2899.14
3224.76
3529.63
3811.5
4069.52
4304.26
4517.34
4711.66
1389.23
3408.31
5545.79
7592.32
9435.1
11037.6
12413
13586.1
14584.7
15434.1
16156.5
16770.7
17291.8
17732.7
18103.9
18415.2
18675.2
18892.1
36871.3
56002.1
64523.5
67737.5
68479.9
68091.5
67182.6
66033
64778.4
63489.9
62208.1
60958.8
59759.5
58622.4
57555.6
56563.9
55646.4
54806.4
1599.53
1626.48
1694.28
1772.89
1861.15
1960.53
2074.86
2203.99
2346.04
2501.28
2670.4
2853.92
3052.03
3264.43
3490.35
3728.5
3977.16
4234.2
4497.07
4762.52
5027.89
5290.98
5548.81
5780.58
5985.05
6160.37
6305.37
6418.94
6500.84
6552.74
6575.89
6570.74
6537.94
6477.94
6390.82
6276.21
6133.76
5963.69
5767.05
5546.38
5306.5
5054.79
4800.84
4555.45
4329.25
4128.35
3948.43
3797.45
3677.48
3586.49
3524.44
3498.47
3515.71
3578.63
3689.03
3847.95
4052.27
4291.39
4543.34
4764.42
4863.26
4797.76
4610.37
4389.94
4270.23
4418.83
5038.01
6337.13
8421.68
10919.2
12965.9
14831.3
16511.9
17996.6
19287.3
20392.2
21325.7
22098.2
22718.5
23194
23529.2
23726.2
23787.2
23712.3
23499.1
23143.2
22639.6
21982.9
21189.2
20312.8
19352.3
18310.8
17194.1
16011.1
14772.8
13493.1
12188.4
10878.3
9584.33
8327.39
7133.97
6032.08
5048.02
4206.8
3531.71
3044.7
2767.79
2726.26
2931.51
3286.1
3772.1
4365.06
5036.56
5755.39
6495.9
7233.35
7946.21
8616.55
9230.49
9778.46
10254.9
10657.8
10983.1
11198.6
11318.5
11355.4
11320.5
11223.2
11070.4
10869.2
10626.5
10350
10047.2
9725.76
9391.92
9050.95
8710.14
8383.23
8093.42
7870.14
7734.01
7674.24
7650.73
7569.52
7300.05
6777.2
6057.12
5341.54
4901.61
4923.68
5416.72
6217.17
7036.74
7784.02
8348.14
8644.27
8619.15
8263.14
7610.97
6725.3
5791.21
4918.3
4216.88
3800.03
3773.89
4246.46
5111.11
6290.08
7729.57
9320.23
10946.5
12508.6
13930.6
15164.8
16183.6
16972
17539.6
17802.7
17811.6
17446.6
2662.44
2434.89
2332.62
2256.49
2189.71
2125.64
2062.69
2001.87
1944.43
1890.97
1841.45
1795.59
1753.06
1713.56
1676.88
1642.9
1611.61
1583.11
1558.42
1542.08
1535.78
1538
1547.94
1583.14
1639.57
1715.59
1808.7
1915.79
2032.85
2156.08
2282.7
2409.64
2533.62
2651.3
2760.4
2860.7
2951.28
3028.82
3089.52
3129.87
3147.13
3139.71
3107.2
3050.02
2968.94
2867.11
2752.51
2621.59
2473.39
2315.44
2155.8
2001.99
1862.35
1746.22
1661.72
1612.58
1597.11
1612.46
1663.51
1780.57
2077.17
2595.37
3332.13
4315.19
5568.75
7059.11
8501.59
9414.77
10078.8
10478.4
10606.2
10523.7
10270.2
9886
9410.6
8877.98
8297.41
7685.44
7062.96
6446.18
5847.66
5280.18
4755.6
4284.16
3876.54
3544.44
3299.04
3148.88
3071.18
3002.36
2941.54
2888.12
2841.61
2801.5
2767.25
2738.27
2713.99
2694.26
2680.04
2674.58
2667.85
2653.14
2628.76
2593.45
2546.41
2487.09
2414.19
2325.09
2235.83
2156.63
2083.23
2019.27
1976.76
1985.55
2031.04
2098.69
2186.65
2294.68
2422.13
2567.91
2730.92
2910.56
3111.97
3354.09
3604.48
3841.98
4057.24
4244.09
4397.76
4514.13
4589.4
4620.31
4604.9
4543.42
4438.38
4295.61
4123.18
3929.85
3722.91
3510.61
3314.02
3173.61
3109.48
3124.99
3216.4
3365.86
3505.98
3630.7
3772.52
3937.65
4072.04
4095.84
3998.65
3795.56
3517.46
3173.55
2806.09
2497.61
2307.4
2272.56
2312.99
2375.41
2441.53
2507.46
2569.64
2633.44
2716.65
2887.01
3132.45
3433.11
3806.83
4256.04
4770.18
5341.29
5959.27
6606.94
7259.3
7878.43
8422.97
8818.28
3841.94
3120
2753.69
2489.3
2280.92
2112.35
1974.69
1862.27
1770.75
1695.96
1634.04
1581.76
1536.44
1495.99
1458.87
1424.01
1390.79
1358.9
1328.31
1299.23
1271.92
1246.65
1223.65
1204.16
1190.24
1182.71
1182.35
1189.87
1205.73
1230.2
1263.35
1305.1
1355.1
1412.73
1477.08
1546.93
1620.68
1696.01
1769.93
1839.1
1900.14
1950.06
1986.61
2008.22
2013.88
2003.04
1975.63
1935.09
1880.47
1810.13
1725.98
1634.52
1547.87
1483.39
1459.58
1489.68
1579.05
1735.16
1999.99
2476
3156.54
4065.59
5205.49
6499.63
7514.34
8101.02
8365.79
8331.32
8086.1
7671.3
7134.63
6527.28
5893.36
5271.48
4686.01
4156.4
3693.09
3302.36
2984.85
2737.02
2553.18
2423.4
2338.04
2288.8
2267.82
2267.8
2282.23
2303.13
2324.04
2344.56
2364.57
2384.03
2402.95
2421.34
2439.24
2456.53
2472.93
2488.04
2501.13
2511.1
2516.29
2514.69
2504.17
2482.67
2448.39
2399.59
2333.76
2247.69
2161.23
2075.45
1990.77
1908.41
1828.76
1752.48
1680.53
1614.46
1555.21
1502.98
1457.69
1419.12
1387.01
1361.22
1342.52
1339.14
1376.48
1451.38
1557.96
1689.54
1838.19
1995.09
2150.62
2295.68
2421.87
2521.4
2587.76
2617.71
2612.03
2569.55
2487.02
2370.21
2246.02
2164.61
2174.65
2291.04
2506.66
2777.81
3042.72
3243.56
3344.82
3329.42
3189.19
2974.09
2722.87
2468.09
2246.83
2085.58
2002.74
1994.5
2037.56
2104.17
2176.84
2250.01
2318.08
2372.36
2401.72
2399.24
2369.78
2318.71
2251.94
2179.05
2110.85
2060
2049.3
2085.2
2168.1
2307.55
2523.86
2901.41
3443.25
4102.19
5034.84
3625.27
2929.96
2472.45
2154.07
1930.79
1774.63
1666.13
1591.05
1538.56
1500.82
1471.99
1447.85
1425.49
1403.01
1379.36
1354.09
1327.22
1299.07
1270.19
1241.21
1212.81
1185.71
1161.75
1141.2
1124.17
1110.71
1100.86
1094.66
1092.13
1093.38
1098.57
1108
1122.03
1141.02
1165.26
1194.78
1229.2
1267.6
1308.43
1349.71
1389.18
1424.62
1454.1
1475.98
1488.95
1492.12
1484.82
1469.18
1445.69
1415.56
1384.52
1367.36
1389.29
1479.71
1663.92
1959.68
2406.29
3053.28
3813.15
4707.74
5739.29
6577.9
7096.95
7292.79
7208.52
6908.62
6455.38
5908.29
5313.6
4715.57
4152.97
3655.11
3239.4
2910.19
2662.85
2486.36
2367.37
2292.52
2249.99
2230.05
2224.97
2229.08
2238.32
2249.86
2261.79
2273.1
2283.54
2292.84
2300.85
2307.47
2312.69
2316.68
2319.78
2322.43
2325.11
2328.28
2332.17
2336.68
2341.18
2344.27
2343.89
2337.39
2321.86
2294.52
2252.9
2194.48
2122.91
2051.16
1976.2
1900.5
1825.43
1751.52
1678.69
1607.43
1539.06
1474.9
1415.71
1361.82
1313.27
1269.81
1230.87
1195.75
1164.15
1136.97
1118.38
1111.39
1119.47
1145.33
1190.44
1255.28
1337.1
1430.4
1528.58
1624.34
1710.59
1781.34
1830.16
1850.9
1845.14
1830.18
1840.02
1913.25
2073.76
2316.28
2602.15
2860.74
3012.12
3010.51
2865.64
2628.18
2390.46
2181.61
2018.43
1914.53
1869.89
1873.36
1908.01
1959.25
2018.83
2081.85
2144.86
2203.62
2251.35
2279.19
2278.69
2250.56
2196.98
2123.43
2037.82
1947.84
1860.18
1780.37
1712.02
1657.24
1618.26
1600.46
1641.06
1807.3
2127.74
6216.35
3953.64
2911.89
2308.95
1952.48
1745.36
1629.38
1568.59
1539.88
1528.43
1525.04
1523.45
1519.86
1512.2
1499.57
1481.87
1459.48
1433.11
1403.61
1371.89
1338.88
1305.48
1274.25
1245.12
1218.65
1195.16
1174.74
1157.34
1142.91
1131.29
1122.16
1115.24
1110.36
1107.5
1106.86
1108.75
1113.54
1121.56
1132.88
1147.26
1164.01
1182.08
1200.46
1218.33
1234.57
1247.62
1256.12
1259.86
1260.44
1259.18
1260.53
1277.1
1335.06
1472.97
1729.08
2129.93
2726.29
3465.73
4239.47
5070.49
5804.57
6293.46
6529.16
6514.5
6282.37
5893.6
5404.48
4865.35
4319.2
3803.02
3347.97
2974.38
2688.94
2485.81
2351.04
2268.01
2221.24
2198.31
2190.18
2190.75
2196.13
2203.94
2212.79
2221.85
2230.58
2238.57
2245.94
2252.18
2256.71
2258.99
2258.66
2255.6
2249.91
2241.99
2232.48
2222.27
2212.4
2203.89
2197.47
2193.29
2190.7
2188.12
2182.83
2171.47
2150.31
2116.06
2066.29
2009.95
1947.42
1880.65
1812.17
1743.58
1675.76
1609.1
1543.74
1480
1418.77
1360.87
1307.02
1257.78
1213.52
1174.21
1139.41
1108.35
1080.13
1054.34
1031
1011.12
996.655
990.165
994.43
1011.62
1042.73
1087.39
1143.67
1208.17
1276.22
1342.41
1401.67
1453.66
1508.94
1591.51
1730.86
1943.84
2218.44
2508.64
2737.86
2826.06
2744.76
2541.41
2299.96
2095.16
1949.98
1856.06
1810.19
1802.35
1821.06
1856.46
1901.08
1950.02
1999.6
2048.57
2095.11
2136.28
2164
2169.38
2150.42
2106.39
2041.31
1961.96
1875.7
1788.91
1706.55
1632.16
1567.31
1512.39
1467.61
1436.96
1442.55
1519.79
7319.8
4110.04
2756.74
2096.66
1784.58
1650.4
1606.24
1605.86
1623.66
1645.33
1663.31
1674.04
1676.21
1669.83
1655.72
1635.1
1609.24
1579.41
1546.7
1512.07
1476.37
1441.89
1408.92
1377.11
1346.96
1318.97
1293.45
1270.72
1250.68
1232.96
1217.22
1203.1
1190.25
1178.45
1167.65
1157.92
1149.44
1142.44
1137.08
1133.45
1131.45
1130.99
1131.98
1133.96
1136.21
1138.32
1140.79
1144.49
1151.17
1165.67
1200.7
1282.72
1453.32
1757.81
2241.33
2928.13
3690.76
4447.3
5151.97
5630.1
5915.44
5993.42
5871.91
5588.85
5190.61
4725.64
4234.36
3752.75
3312.55
2939.07
2646.59
2435.67
2295.52
2209.6
2161.07
2136.19
2125.28
2122.32
2123.99
2128.63
2135.55
2144.38
2154.89
2166.7
2179.32
2192.04
2203.93
2213.84
2221.01
2224.72
2224.36
2219.59
2210.36
2196.92
2179.86
2160.17
2139.17
2118.46
2099.68
2083.95
2071.7
2062.31
2053.39
2041.69
2022.51
1991.55
1950.32
1900.74
1843.94
1782.81
1719.99
1657.32
1595.81
1535.83
1477.2
1419.68
1363.55
1309.31
1257.57
1209.09
1164.64
1124.81
1089.82
1059.39
1032.84
1009.2
987.576
967.036
947.581
929.981
915.737
906.865
905.548
913.742
932.794
963.124
1004.08
1054.23
1112.51
1180.98
1268.93
1394.96
1580.93
1835.86
2138.19
2430.47
2631
2669.34
2542.53
2326.23
2111.52
1947.99
1844.73
1787.56
1764.36
1766.31
1785.93
1816.68
1851.77
1886.1
1917.17
1948.04
1980.97
2014.8
2039.79
2050.46
2040.49
2007.1
1952.38
1882
1803.03
1722.09
1644.65
1574.49
1513.07
1460.41
1415.97
1379.77
1355.05
1354.64
8277.54
4112.92
2529.35
1919.84
1715.75
1676.41
1700.8
1744.66
1787.17
1818.9
1836.75
1840.96
1833.38
1816.43
1792.52
1763.77
1731.88
1698.15
1663.5
1628.61
1594.93
1563.78
1533.2
1503.7
1475.53
1448.96
1424.33
1401.49
1379.78
1358.67
1337.74
1316.75
1295.67
1274.65
1253.99
1233.97
1214.7
1196.26
1178.81
1162.08
1146.88
1132.65
1119.42
1107.59
1097.6
1090.25
1086.99
1091.02
1109.03
1154.51
1252.73
1443.15
1774.07
2297.55
2999.26
3752.16
4486.2
5036.91
5377.25
5542.32
5535.6
5371.37
5081.16
4705.82
4282.47
3843.76
3418.85
3035.23
2715
2469.64
2297.57
2186.91
2121.3
2085.22
2066.81
2058.49
2056.12
2057.85
2063.03
2071.49
2083.09
2097.48
2114.08
2132.09
2150.55
2168.5
2184.59
2197.99
2207.96
2213.83
2214.91
2210.52
2200.26
2184.16
2162.56
2136.25
2106.55
2075.3
2044.79
2016.95
1993.05
1973.83
1957.76
1941.8
1921.24
1893.04
1855.98
1809.5
1755.45
1696.72
1636.25
1576.34
1518.38
1462.94
1409.77
1358.23
1307.91
1258.76
1210.93
1164.9
1121.47
1081.53
1045.86
1014.85
988.388
965.852
946.317
928.445
911.302
894.45
878.1
863.133
851.004
843.556
842.782
850.593
868.686
898.748
943.324
1007.72
1102.63
1245.33
1454.39
1734.36
2056.02
2350.62
2531.39
2539.46
2394.36
2186.3
2000.75
1870.89
1792.09
1750.72
1736.06
1740.44
1758.87
1783.71
1804.25
1818.14
1829.42
1845.07
1866.88
1892.82
1917.25
1931.97
1929.46
1905.61
1861.06
1800.37
1730.08
1656.91
1586.67
1523.11
1467.56
1419.95
1379.54
1345.67
1318.11
1300.47
8977.69
3987.91
2290.13
1830.82
1758.07
1799.22
1865.7
1925.4
1966.25
1985.62
1985.7
1970.7
1945.15
1913.18
1878.02
1841.9
1806.22
1771.79
1738.98
1708.39
1682.27
1657.61
1634.73
1613.39
1592.95
1573.18
1554.5
1535.91
1515.1
1490.45
1463.55
1434.68
1404.73
1374.73
1345.24
1316.37
1288.32
1261.34
1237.36
1220.27
1203.47
1186.02
1167.52
1149.22
1132.58
1120.99
1118.96
1136.08
1186.58
1292.83
1488.5
1818.19
2329.85
2993.39
3709.88
4394.31
4837.19
5097.07
5202.09
5160.31
4987.96
4714.12
4372.26
3992.96
3601.56
3222
2878.19
2590.75
2370.85
2217.4
2119.49
2061.95
2030.46
2014.37
2007.17
2005.57
2008.32
2015.08
2025.75
2040.08
2057.54
2077.32
2098.44
2119.86
2140.55
2159.76
2176.97
2191.57
2202.92
2210.33
2213.11
2210.46
2201.47
2185.6
2162.78
2133.46
2098.61
2059.86
2019.9
1981.51
1946.2
1915.7
1890.57
1867.09
1843.74
1815.51
1779.45
1734.53
1681.88
1624.06
1564.11
1504.73
1447.81
1394.31
1344.25
1296.97
1251.65
1207.68
1164.65
1122.5
1081.65
1042.89
1007.23
975.529
948.316
925.565
906.758
890.705
876.193
862.189
848.103
833.929
820.285
808.36
799.814
796.687
801.411
817.085
848.26
902.442
991.988
1134.65
1348.59
1637.38
1968.36
2265.18
2436.84
2433.25
2288.39
2096.45
1934.7
1826.41
1761.9
1727.67
1715.02
1719.93
1735.17
1747.6
1747.85
1742.99
1740.88
1746.15
1760.86
1783.29
1807.48
1825.24
1828.61
1812.62
1776.78
1724.74
1662.65
1597.37
1534.79
1478.3
1429.09
1387.11
1351.65
1321.84
1296.83
1277.02
9306.5
3647.93
2090.82
1849
1887.6
1975.06
2052.58
2102.27
2121.4
2114.41
2088.39
2050.49
2006.67
1961.56
1918.4
1878.91
1843.75
1812.83
1785.93
1765.46
1748.48
1734.65
1723.32
1713.62
1702.1
1688.17
1674.11
1658.4
1637.74
1611.75
1582.24
1550.82
1518.67
1486.78
1456.64
1430.86
1413.59
1414.81
1438.51
1456.58
1465.04
1459.88
1440.6
1410.36
1375.78
1349.92
1348.24
1385.45
1478.18
1652.56
1945.3
2394.48
2981.35
3634.34
4216.67
4593.23
4812.54
4894.99
4850.66
4693.87
4449.04
4145.09
3807.6
3457.36
3113.84
2798.08
2529.9
2321.74
2174.73
2080.13
2024.27
1993.69
1978.09
1971.12
1969.62
1972.44
1979.29
1990.08
2004.48
2021.89
2041.47
2062.27
2083.36
2103.87
2123.01
2140.91
2157.35
2171.9
2184.06
2193.19
2198.56
2199.3
2194.31
2182.31
2162.46
2134.58
2099.26
2057.43
2011.39
1965.56
1921.22
1879.68
1844.92
1814.14
1784.79
1753.3
1716.18
1671.48
1619.37
1561.84
1501.74
1441.93
1384.66
1331.3
1282.31
1237.28
1195.34
1155.58
1117.16
1079.47
1042.35
1006.19
971.805
940.222
912.379
888.842
869.663
854.146
841.22
829.671
818.462
806.98
795.179
783.622
773.458
766.417
764.906
772.363
794.045
838.383
918.573
1052.9
1260.13
1545.07
1875.85
2173.81
2345.56
2345.43
2212.88
2039.42
1895.37
1799.7
1742.47
1711.12
1698.84
1700.87
1705.75
1699.56
1683.45
1667.97
1658.71
1659.17
1670.6
1691.16
1715.33
1735.32
1743.25
1733.59
1704.98
1660.29
1605.42
1547.29
1491.52
1441.22
1397.65
1360.88
1330.21
1304.69
1283.28
1265.26
9183.8
3140.53
2000.05
1962.92
2065.76
2165.78
2230.29
2252.86
2240.08
2202.69
2151.01
2093.14
2034.82
1980.27
1932.99
1893.96
1862.87
1838.71
1822.18
1812.17
1805.42
1803.28
1802.79
1801.94
1797.89
1789.83
1781.09
1771.83
1758.06
1739.71
1720.42
1704.4
1697.77
1708.05
1741.58
1802.93
1893.68
2012.05
2099.22
2153.62
2172.15
2155.72
2108.75
2039.67
1961.43
1894.49
1863.78
1890.01
1996.63
2209.06
2547.59
3024.4
3570.75
3995.43
4323.96
4526.57
4611.29
4585.98
4461.17
4255.4
3992.58
3695.4
3381.95
3068.58
2773.56
2516.1
2310.6
2161.61
2063.6
2004.89
1972.58
1956.09
1948.46
1946.08
1947.54
1952.57
1961.1
1972.89
1987.39
2003.82
2021.32
2039.12
2056.63
2073.41
2089.1
2104.33
2118.79
2132.27
2144.44
2154.88
2162.96
2167.8
2168.22
2162.62
2149.31
2126.9
2095.75
2055.97
2007.96
1958.22
1908.26
1860.21
1815.94
1776.03
1739.16
1702.47
1662.47
1616.58
1564.15
1506.47
1446.02
1385.58
1327.54
1273.54
1224.42
1180.13
1140
1103.09
1068.36
1034.82
1001.82
969.18
937.302
907.016
879.362
855.277
835.328
819.449
806.984
796.872
787.943
779.222
770.172
760.827
751.85
744.567
741.101
744.75
760.757
797.587
868.394
991.347
1185.6
1458.03
1780.58
2077.43
2255.6
2269.9
2157.67
2003.34
1872.24
1783.34
1728.86
1697.69
1683.07
1677.47
1667.88
1646.71
1621.15
1600.19
1588.04
1587
1597.48
1617.39
1641.71
1663.36
1674.8
1670.17
1647.35
1608.59
1559.62
1507.18
1456.57
1411.08
1372.19
1340
1313.76
1292.41
1274.8
1259.74
8568.63
2645.5
2044.46
2134.17
2258.11
2348.12
2385.49
2374.08
2329.06
2265.1
2192.91
2119.55
2049.84
1987.1
1937.3
1900.74
1876.04
1862.55
1858.26
1856.86
1858.7
1863.93
1871
1878.04
1883.54
1888.42
1896.81
1912.04
1935.58
1973.07
2033.1
2123
2246.26
2400.91
2577.67
2759.96
2926.55
3057.68
3134.79
3165.37
3153.38
3102.89
3018.69
2907.84
2781.88
2659.52
2569.29
2545.54
2621.53
2823.29
3133.56
3455.3
3782.34
4051.77
4243.43
4342.46
4348.53
4266.63
4108.19
3891.09
3635.01
3356.84
3071.08
2793.5
2542.16
2333.31
2175.68
2068.16
2001.98
1965.17
1946.51
1937.76
1934.16
1933.66
1935.84
1940.8
1948.53
1958.68
1970.57
1983.44
1996.59
2009.53
2022.04
2034.06
2045.76
2057.46
2068.88
2080
2090.74
2101.02
2110.56
2118.67
2124.12
2125.17
2119.81
2105.1
2080.76
2046.76
2003.92
1954.5
1901.39
1847.55
1795.56
1747.12
1702.35
1659.44
1615.22
1566.86
1513.18
1454.89
1394
1333.05
1274.37
1219.71
1170.1
1125.81
1086.46
1051.23
1019.11
988.949
959.753
930.894
902.268
874.317
847.894
824.022
803.576
787.04
774.29
764.642
757.06
750.46
743.999
737.303
730.601
724.819
721.728
724.305
737.456
769.199
832.026
943.311
1121.94
1376.69
1684.89
1977.56
2165.25
2200.92
2114.41
1980.17
1859.18
1773.25
1718.32
1684.77
1664.81
1648.97
1626.63
1595.63
1564.93
1542.17
1530.24
1530.05
1541.1
1561.15
1585.83
1608.88
1623.12
1622.38
1603.84
1569.34
1524.37
1475.49
1428.29
1386.44
1351.5
1323.46
1301.39
1284.08
1270.22
1258.51
7464.05
2366.2
2190.33
2322.12
2442.69
2510.48
2516.85
2475.09
2405.17
2322.02
2234.56
2148.52
2069.14
2001.92
1950.99
1917.39
1898.97
1892.26
1891.09
1895.66
1905.78
1921.58
1943.19
1971.34
2008.41
2059.59
2132.53
2234.04
2368.73
2539.47
2745.48
2979.11
3225.34
3464.21
3674.97
3840.81
3952.45
4009.68
4029.91
4018.86
3979.13
3911.14
3814.57
3690.36
3543.53
3386.58
3243.3
3149.04
3139
3228.19
3397.56
3601.77
3810.64
3982.34
4093.45
4132.1
4096.03
3989.31
3822.38
3610.3
3368.56
3110.89
2851
2605.02
2389.95
2218.53
2095.1
2015.46
1969.84
1946.87
1936.65
1932.38
1930.54
1930.11
1931.31
1934.59
1940.03
1947.25
1955.57
1964.26
1972.77
1980.85
1988.49
1995.85
2003.49
2011.03
2018.46
2026
2033.79
2042.14
2051.17
2060.62
2069.6
2075.87
2077.48
2071.88
2056.7
2030.51
1993.31
1946.66
1893.17
1836.01
1778.29
1722.59
1670.31
1620.79
1571.57
1519.81
1464.05
1404.64
1343.22
1282
1223.1
1168.18
1118.33
1074
1035.02
1000.8
970.432
942.812
916.792
891.448
866.265
841.248
816.914
794.132
773.839
756.879
743.602
733.783
726.708
721.401
716.916
712.615
708.38
704.768
703.19
706.245
718.377
746.936
803.419
903.932
1066.47
1301.08
1590.8
1875.93
2073.38
2133.74
2076.41
1963.97
1852.7
1767.76
1709.9
1671.52
1644.02
1617.75
1585.48
1548.64
1516.92
1495.61
1486.01
1487.91
1500.27
1520.97
1546.34
1570.84
1587.38
1589.36
1573.37
1540.93
1497.55
1450.24
1405.2
1366.27
1334.9
1310.79
1292.75
1279.34
1269.09
1260.62
6145.38
2346.11
2350.81
2498.05
2610
2657.69
2640.62
2578.36
2492.63
2397.08
2298.7
2202.22
2113.15
2037.93
1981.7
1946.7
1933.57
1933.59
1942.45
1960.95
1990.8
2034.36
2094.73
2176.14
2284.16
2425.06
2603.68
2820.29
3068.9
3337.55
3609.32
3864.44
4084.17
4255.81
4375.17
4446.25
4478.18
4480.82
4475.7
4462.81
4439.63
4401.61
4342.88
4257.41
4140.82
3993.64
3825.78
3661.19
3537.95
3495.49
3546.19
3660.52
3790.81
3895.29
3952.83
3952.98
3892.92
3775.62
3609.47
3406.52
3179.18
2939.85
2702.28
2482.22
2294.81
2149.83
2049.01
1987.17
1955.07
1941.29
1936.77
1935.35
1934.1
1932.64
1931.83
1932.57
1935.2
1939.42
1944.54
1949.84
1954.76
1959.01
1962.64
1965.92
1969.27
1972.02
1974.6
1977.62
1981.29
1986.47
1993.57
2002.59
2012.89
2023
2030.55
2032.42
2025.4
2007.01
1976.18
1933.54
1881.2
1822.22
1760.15
1698.46
1639.49
1583.54
1528.92
1473.15
1414.71
1353.8
1291.8
1230.59
1171.99
1117.47
1068
1024.04
985.585
952.199
923.134
897.42
873.922
851.583
829.623
807.686
785.919
764.915
745.478
728.603
714.958
704.732
697.604
692.857
689.621
687.153
685.102
683.718
684.07
688.37
700.561
727.241
778.777
869.768
1016.89
1230.79
1499.74
1774.21
1979.57
2064.96
2038.48
1949.97
1850.01
1766.19
1704.3
1659.53
1623.79
1588.7
1549.9
1510.99
1480.93
1462.5
1455.72
1459.8
1473.58
1495.27
1521.8
1547.92
1566.21
1569.4
1553.73
1520.84
1476.92
1429.85
1386.23
1349.88
1321.92
1301.67
1287.6
1277.95
1271.08
1265.54
4795.2
2383.71
2492.82
2648.56
2756.97
2796.38
2770.25
2700.38
2608.66
2508.23
2405.6
2305
2211.75
2133.1
2076.78
2048.93
2045.95
2054.69
2079.11
2121.34
2184.42
2271.98
2387.97
2536.13
2718.98
2935.92
3181.03
3441.7
3700
3936.74
4135.76
4287.56
4391.08
4453.33
4486.38
4503.39
4514.77
4525.68
4545.86
4572.7
4602.35
4629.66
4647.34
4645.56
4612.78
4538.31
4416.75
4252.49
4064.29
3890.79
3784.84
3771.53
3822.51
3863.29
3871.31
3836.6
3755.5
3629.36
3463.92
3267.37
3044.86
2820.35
2604.17
2408.06
2243.86
2118.22
2031.54
1979.22
1953.04
1943.37
1941.74
1942.06
1941.23
1938.85
1935.98
1933.96
1933.61
1934.97
1937.54
1940.56
1943.29
1945.14
1945.81
1945.39
1944.13
1941.88
1939.22
1936.92
1935.91
1937.2
1941.55
1949.33
1960.18
1972.77
1984.62
1992.28
1991.9
1980.09
1954.83
1915.92
1864.87
1804.58
1738.87
1671.9
1606.92
1545.01
1484.96
1424.85
1363.4
1300.81
1238.31
1177.49
1119.81
1066.43
1018.13
975.263
937.84
905.531
877.716
853.574
832.103
812.245
793.092
774.052
754.961
736.105
718.054
701.797
688.141
677.578
670.143
665.443
662.805
661.53
661.154
661.708
663.965
669.767
682.549
708.15
755.777
838.455
971.339
1165.13
1412.51
1673.8
1884.05
1992.54
1996.9
1934.22
1848.31
1767.65
1702.39
1651.16
1607.87
1566.29
1524.42
1486.47
1458.89
1442.99
1438.4
1444.21
1459.34
1482.42
1510.65
1538.44
1557.54
1560
1542.18
1506.62
1460.65
1412.95
1370.36
1336.49
1311.99
1295.7
1285.61
1279.61
1275.82
1272.71
3589.23
2404.64
2590.72
2759.19
2878.59
2929.02
2912.85
2850.92
2765.28
2670.62
2575.22
2484.07
2401.82
2334.34
2288.32
2269.29
2264.82
2282.27
2323.29
2389.91
2484.57
2609.47
2765.61
2951.65
3162.48
3388.06
3613.34
3820.55
3993.66
4123.06
4207.86
4255.09
4276.87
4286.67
4296.29
4313.94
4343.82
4387.23
4437.49
4495.44
4562.75
4640.44
4726.71
4814.4
4889.15
4931.19
4922.19
4852.31
4718.05
4519.06
4280.02
4075.34
3977.78
3933.74
3878.09
3797.19
3681.45
3534.87
3363.97
3169.87
2960.12
2752.48
2555.14
2378.02
2229.74
2115.07
2034.31
1984.11
1958.09
1948.34
1947.13
1948.25
1948.04
1945.46
1941.29
1937.02
1933.92
1932.51
1932.65
1933.66
1934.67
1934.78
1933.25
1929.61
1924.18
1917.36
1909.91
1902.85
1897.46
1895.03
1896.71
1903.14
1914.2
1928.6
1943.72
1955.74
1960.25
1953.19
1931.78
1895.16
1844.4
1782.28
1712.92
1641.02
1570.45
1502.91
1437.65
1373.13
1308.59
1244.42
1181.73
1121.8
1065.74
1014.35
968.094
927.163
891.48
860.74
834.425
811.825
792.101
774.307
757.525
741.042
724.477
707.846
691.461
676.214
662.922
652.235
644.464
639.523
636.996
636.324
637.048
639.073
642.945
650.17
663.699
688.631
733.046
808.427
928.356
1103.25
1329.29
1575.69
1787.44
1915.63
1949.24
1913.48
1844.71
1770.53
1704.23
1648.09
1598.91
1553.04
1510.04
1473.74
1448.52
1434.8
1431.98
1439.26
1455.97
1481.1
1511.59
1540.75
1559.16
1558.58
1536.22
1496.05
1446.8
1397.93
1356.35
1325.22
1304.54
1292.5
1286.51
1284.03
1282.92
1281.59
2682.65
2373.87
2614.78
2808.48
2960.45
3046.81
3064.31
3029.5
2963.67
2883.98
2802.64
2727.61
2663.79
2614.6
2583.06
2567.8
2568.69
2594.52
2647.06
2727.6
2836.68
2973.24
3133.64
3310.78
3493.77
3668.78
3821.6
3941.62
4025.39
4077.56
4108.44
4129.75
4150.95
4177.57
4211.37
4251.47
4295.99
4338.83
4376.67
4415.67
4463.03
4527.29
4617.29
4737.78
4881.87
5025.53
5135.33
5191.09
5192.88
5129.41
4959.81
4663.34
4339.01
4137.71
3978.51
3830.26
3670.24
3498.92
3315.74
3120.85
2920.64
2725.84
2543.31
2380.06
2241.95
2132.41
2052.05
1998.84
1968.37
1954.58
1950.84
1951.14
1951.21
1949.06
1944.65
1939.13
1933.86
1929.8
1927.2
1925.71
1924.55
1922.76
1919.36
1913.4
1904.95
1894.62
1883.41
1872.62
1863.82
1858.66
1858.56
1864.41
1876.16
1892.43
1910.31
1925.56
1933.25
1928.79
1908.92
1872.38
1820.06
1754.83
1681.2
1604.31
1528.4
1455.47
1385.2
1316.48
1249.11
1183.75
1121.43
1063.1
1009.47
960.937
917.638
879.515
846.348
817.785
793.363
772.483
754.431
738.423
723.636
709.331
695.01
680.458
665.764
651.695
638.984
628.335
620.244
614.881
612.091
611.511
612.77
615.736
620.794
629.164
643.342
667.716
709.275
778.015
885.962
1043.05
1248.23
1478.52
1688.56
1832.71
1893.32
1884.93
1836.25
1772.58
1708.91
1650.78
1598.23
1550.11
1507.07
1472.4
1449
1436.82
1435.28
1444.02
1462.95
1491.03
1524.06
1553.54
1568.93
1562.46
1532.95
1486.39
1433.05
1383.04
1343.02
1315.38
1299.24
1291.92
1290.19
1290.99
1291.97
1291.59
2275.28
2247.74
2509.9
2751.01
2967.08
3124.15
3210.63
3233.85
3209.73
3155.08
3086.03
3016.24
2955.37
2909.03
2879.87
2862.46
2866.31
2894.17
2947.53
3026.81
3130.79
3255.94
3395.79
3540.86
3679.69
3801.14
3897.91
3969.6
4023.29
4070.53
4122
4182.9
4251.56
4321.06
4382.3
4427.42
4453.82
4461.71
4461.49
4456.76
4452.04
4455.48
4480.59
4546.53
4669.32
4840.05
5013.2
5141.97
5230.04
5308.79
5353.88
5248.25
4902.05
4511.11
4223.92
3979.46
3755.27
3542.07
3334.23
3129.01
2928.75
2738.65
2563.19
2406.65
2272.67
2163.57
2079.99
2020.79
1983.07
1962.4
1953.38
1950.6
1949.58
1947.52
1943.43
1937.68
1931.32
1925.33
1920.26
1916.07
1912.22
1907.87
1901.97
1893.55
1882.6
1869.69
1855.89
1842.72
1832.02
1825.7
1825.43
1832.2
1845.83
1864.63
1885.19
1902.7
1911.75
1907.38
1886.14
1846.73
1790.22
1719.9
1640.78
1558.37
1477
1398.73
1323.59
1251.06
1181.43
1115.68
1054.67
998.975
948.852
904.269
864.997
830.689
800.932
775.285
753.292
734.459
718.211
703.899
690.859
678.424
666.052
653.328
640.447
627.849
616.117
605.93
597.875
592.297
589.254
588.578
590.025
593.493
599.284
608.409
622.988
646.785
685.826
748.774
846.227
987.514
1173.64
1387.93
1593.61
1749.14
1832.46
1849.38
1821.53
1771.25
1713.98
1657.54
1604.73
1556.58
1514.64
1481.8
1459.76
1448.47
1447.94
1458.65
1480.87
1512.62
1547.47
1574.79
1583.67
1567.82
1528.59
1474.39
1416.98
1366.72
1329.57
1306.75
1296.18
1294.18
1296.71
1300.29
1302.48
1302
2389.56
2051.42
2239.58
2524.26
2819.86
3071.38
3260.34
3381.57
3438.68
3441.06
3403.51
3344.15
3280.41
3225.89
3188.84
3164.63
3162.3
3183.14
3227.72
3295.48
3384.01
3488.5
3601.56
3713.78
3815.64
3900.46
3967.6
4023.9
4081.35
4151.37
4238.36
4336.53
4432.29
4510.6
4561.74
4587.05
4587.89
4585.11
4577.48
4561.52
4535.16
4502.6
4471.8
4457.13
4489
4592.38
4739.41
4861.94
4935.66
5014.15
5141.37
5273.26
5278.2
5031.53
4641.45
4279.23
3961.41
3681.21
3428.98
3197.37
2983.38
2787.09
2609.6
2452.48
2317.23
2204.93
2115.81
2049.09
2002.75
1973.55
1957.27
1949.28
1945.29
1942.09
1937.87
1932.16
1925.38
1918.24
1911.31
1904.73
1898.22
1891.11
1882.56
1871.79
1858.91
1844.45
1829.49
1815.69
1805.04
1799.62
1801.18
1810.59
1827.34
1849.13
1871.9
1890.24
1898.34