/*--------------------------------*- C++ -*----------------------------------*\
| =========                 |                                                 |
| \\      /  F ield         | OpenFOAM: The Open Source CFD Toolbox           |
|  \\    /   O peration     | Version:  2112                                  |
|   \\  /    A nd           | Website:  www.openfoam.com                      |
|    \\/     M anipulation  |                                                 |
\*---------------------------------------------------------------------------*/
FoamFile
{
    version     2.0;
    format      ascii;
    arch        "LSB;label=32;scalar=64";
    class       volScalarField;
    location    "0.39";
    object      p;
}
// * * * * * * * * * * * * * * * * * * * * * * * * * * * * * * * * * * * * * //

dimensions      [0 2 -2 0 0 0 0];

internalField   nonuniform List<scalar> 
122250
(
1361.6
-666.651
81.6624
-285.109
-130.168
-72.115
-8.24026
45.1091
69.0901
39.8689
-22.1276
-49.8307
-53.9134
-27.1961
22.5613
43.7557
41.6963
37.4481
1304.31
-671.396
73.1931
-289.198
-129.382
-74.0914
2.2567
50.6414
57.4691
23.4001
-23.9016
-54.9208
-68.0824
-31.0513
27.7407
46.6307
42.4511
37.3549
1307.01
-694.72
28.9407
-256.255
-96.098
-72.1609
19.2836
56.6157
49.5128
12.831
-28.579
-56.4761
-62.9383
-19.7942
31.9779
46.5044
42.4446
37.6163
1317.27
-736.663
27.4672
-206.112
-88.8745
-78.2407
30.9373
59.5259
47.7523
17.4647
-25.8004
-60.6151
-67.2862
-18.9138
29.3157
42.5582
39.9278
35.8412
1300.54
-720.771
42.1733
-187.819
-72.7661
-66.6463
40.6466
51.5368
38.6241
19.3358
-15.8096
-55.4299
-60.8706
-12.6629
26.4429
36.9812
36.2699
33.1774
1300.82
-718.213
64.2313
-150.165
-38.7857
-36.3086
42.0139
34.0441
22.2721
9.46204
-12.5113
-39.7381
-39.973
-3.05614
23.9842
31.6135
32.6783
30.6643
1291.86
-706.222
84.5495
-123.944
-18.7588
-16.945
34.0262
20.1656
10.0192
1.3237
-10.6121
-24.9404
-19.8333
4.74237
22.9142
31.0827
30.4778
29.2565
1273.69
-691.388
94.6756
-112.746
-9.89021
-16.7519
23.3425
8.23631
0.325262
-4.5866
-10.952
-18.1
-10.3139
8.322
21.6079
27.6353
28.7967
28.4399
1250.01
-672.303
102.662
-105.75
4.43416
-15.0429
14.7406
-0.943556
-3.37155
-7.85331
-9.63741
-13.3141
-5.01531
9.7036
20.2418
25.6094
27.5947
28.5316
1226.61
-651.944
115.116
-101.711
10.7215
-17.4647
9.67446
-5.22707
-3.55936
-10.2894
-8.5626
-7.52153
-0.339593
10.2896
19.8399
25.1009
26.1842
26.7882
1208.65
-639.645
127.286
-97.0111
6.94543
-23.3728
8.55318
-5.83469
-3.87178
-11.0629
-4.91036
-1.21803
3.3657
13.0114
23.3946
26.0522
23.7727
23.8136
1196.38
-633.472
136.434
-89.0363
15.2487
-22.8411
9.61459
-5.83099
-2.70506
-9.82008
-6.16928
-1.09301
4.8417
14.6596
23.4551
24.8927
22.5615
23.1235
1184.12
-637.679
141.217
-82.118
23.1463
-18.8103
8.87538
-6.82042
0.8996
-3.15677
-1.97166
1.66305
6.24337
13.2486
20.4653
22.3768
21.9469
23.0749
1170.96
-646.373
129.387
-77.8119
27.6082
-24.4092
10.3413
-5.1096
3.87707
2.29556
3.74135
6.36531
10.3584
13.8595
17.0551
17.9434
19.7668
21.4444
1171.17
-678.491
87.1176
-64.9624
30.7634
-28.0709
13.9418
1.99958
6.95093
4.65661
6.29686
8.651
12.0671
14.379
15.8523
16.5553
18.2304
19.2183
1188.81
-703.497
120.43
-64.533
18.6728
-29.7705
14.047
2.99688
7.89737
7.29511
9.64397
10.9657
12.991
14.5148
15.9934
17.1893
18.4396
19.6631
1201.41
-754.788
82.9494
-86.102
-4.62922
-20.8962
8.16165
-1.54191
6.0285
9.15685
13.4531
14.2362
15.2064
15.2324
15.9564
16.7892
18.1584
19.2424
1165.72
-696.157
128.193
-79.4523
9.56144
-31.5381
10.5934
3.29839
5.2927
12.2253
18.682
19.2753
17.572
16.3091
16.605
16.73
16.3446
16.3225
1206.24
-648.319
71.2354
-96.4268
37.422
-6.81714
18.4723
10.5361
16.9816
20.6658
20.379
18.9112
17.4403
15.603
13.998
12.8814
12.5683
12.8116
1197.04
-694.115
88.0485
-72.6665
24.059
-3.9908
18.5944
20.7898
27.7141
24.0203
17.6128
13.7609
13.2201
12.4721
10.7933
8.54195
6.40563
4.97108
1309.73
-544.42
47.2233
-109.152
24.4196
15.1122
30.8544
27.3615
27.5322
24.3955
19.3907
16.338
14.9722
12.8503
10.3948
5.64289
-0.137707
-4.14855
1375.17
-539.145
62.2219
-114.695
39.2791
23.9165
36.1416
27.9526
27.8703
26.0704
22.897
19.4116
15.6003
11.0592
5.93386
-1.60927
-10.4356
-16.3421
1342.81
-617.41
51.7354
-89.352
30.1607
-21.6839
28.9153
22.8861
27.6398
27.7044
24.833
19.8096
13.7743
7.06093
-1.12003
-10.3264
-17.8347
-21.9468
1263.16
-721.633
57.9478
-83.6078
30.1862
-14.806
34.7146
31.7308
33.9519
32.5234
28.2874
21.0898
12.9015
5.15075
-2.41911
-9.32365
-14.4814
-17.5131
1236.27
-757.176
30.0465
-73.8337
20.9204
7.83661
33.6741
31.7598
36.8339
35.8663
30.9831
21.8627
11.2837
3.24301
-2.21389
-6.59183
-9.7173
-12.0021
1223.8
-737.685
59.1706
-65.7984
24.4208
0.117279
33.4415
31.0933
40.2253
39.3323
32.617
22.1205
11.454
4.13949
0.35001
-1.47302
-3.98091
-5.68725
1298.37
-662.686
72.2068
-75.4439
15.2787
-15.1053
34.9512
33.2469
45.1207
42.8296
33.1475
23.334
15.425
9.56909
5.68356
2.83275
0.49139
-1.17461
1271.24
-630.194
60.2842
-70.6167
16.793
-18.4936
18.5683
25.5847
42.424
44.6726
37.2966
29.3462
21.0479
14.4129
10.4676
6.59653
2.54294
1.05229
1205.81
-655.515
61.6715
-21.7852
40.8595
-7.74129
6.02967
24.0955
44.5642
48.7585
39.2735
30.5806
23.0724
17.0892
12.9876
9.28424
5.86296
3.71898
1122.92
-666.413
26.3564
-60.3342
41.9135
5.21716
5.65288
20.2115
47.3005
54.1596
43.4536
33.4427
25.6465
19.2981
14.5031
10.038
5.81098
3.58287
1381.96
-663.729
76.7107
-153.915
-7.81276
-87.1808
-10.0434
30.26
30.1792
-1.64606
-36.4231
-44.7209
-42.5651
-5.18747
41.032
49.4576
44.8108
38.2688
1307.47
-709.616
62.3815
-153.246
-30.2146
-100.406
-8.83722
32.0894
24.0318
-19.989
-51.8907
-54.3775
-42.3288
-0.217145
45.6312
52.0024
44.8127
38.9354
1318.92
-712.15
35.8676
-144.057
-46.0087
-104.042
-2.02084
21.6008
1.59954
-41.3636
-57.2331
-60.4739
-38.302
15.1056
49.2728
52.533
46.1514
40.574
1296.3
-758.91
15.8831
-132.125
-48.0995
-93.8657
4.57397
8.41434
-19.7124
-55.109
-67.9978
-69.8621
-41.968
16.011
48.7487
51.4408
44.8948
39.1648
1257.86
-753.27
21.2935
-117.105
-34.4946
-78.265
5.52135
-4.05585
-27.9385
-54.3426
-73.064
-86.7567
-49.0692
12.6219
45.7612
47.3827
41.7095
37.3259
1264.7
-763.678
10.919
-97.0182
-22.8914
-59.6786
0.476912
-10.5999
-26.7745
-49.4795
-64.61
-78.758
-43.84
10.8966
39.0397
41.1125
38.1077
35.0686
1257.52
-754.814
16.2675
-87.919
-22.0569
-47.5716
-4.62168
-6.68889
-18.7526
-41.2253
-53.8167
-55.6475
-32.2741
10.5951
31.4801
35.7245
35.0728
33.0255
1247.34
-750.745
24.1437
-99.4671
-19.1863
-38.7781
-2.58907
-6.27046
-15.7261
-31.0996
-42.1816
-44.0857
-20.9664
10.4891
25.3793
31.0706
32.9827
31.869
1232.11
-753.248
27.6882
-107.313
-6.42734
-34.6492
1.52869
-10.777
-12.4555
-23.4274
-27.6558
-27.8365
-9.65322
10.8619
21.8823
27.8111
30.6925
30.9523
1211.96
-746.088
37.5767
-110.99
-2.43021
-36.9107
3.84218
-11.3033
-7.1449
-19.5724
-18.8213
-13.828
-0.731251
12.041
22.4255
27.5865
27.9459
26.4909
1203.47
-735.965
55.4191
-105.806
5.61609
-40.1224
6.53894
-8.90916
-4.84295
-17.0001
-12.1174
-4.75121
4.1999
15.0903
25.3101
27.9782
25.2522
23.378
1202.45
-727.184
71.9074
-101.213
11.1538
-34.9305
8.16052
-6.25175
-3.6004
-12.9942
-8.42333
-0.278831
7.39023
17.8829
25.7484
26.7043
23.0825
21.6812
1198.21
-719.617
73.1722
-99.277
11.8341
-33.2501
7.83278
-6.32755
-0.599331
-6.80126
-3.92625
2.84301
9.44463
17.2059
23.0279
22.8607
20.9467
20.5471
1218.98
-700.238
61.5334
-98.4454
10.3488
-37.5138
5.18447
-9.57346
2.6304
-0.420108
2.43724
6.56274
11.3081
15.5129
18.6875
19.3482
19.6453
20.2273
1289.37
-604.79
41.7408
-116.418
22.314
-37.6708
6.02704
-3.69906
6.29103
4.04812
6.07215
8.79643
12.2369
15.0317
17.2244
18.7481
19.4127
20.2563
1332.64
-550.417
70.1279
-113.649
23.6493
-36.8985
3.61888
2.64579
7.86039
7.37281
9.27493
10.6748
12.4605
14.7273
16.7216
18.2047
19.6535
20.9174
1374.89
-625.387
71.9237
-100.943
27.1843
18.4273
15.023
1.3781
6.82026
9.51492
13.5843
14.68
15.5758
15.4386
15.8625
16.9025
18.251
19.2699
1309.27
-578.684
86.128
-126.522
46.1303
-0.931068
16.9348
1.78179
2.79885
10.1424
17.7695
18.5782
17.5422
16.6283
16.5624
16.507
16.4792
16.5525
1349.83
-585.883
55.8486
-105.656
57.0835
34.8165
29.2689
7.58176
13.898
18.4315
19.859
18.3406
16.8742
15.4387
14.2383
13.3822
13.0434
13.0988
1357.1
-645.012
63.4483
-76.2944
44.0498
26.7343
20.8225
11.1002
22.9988
21.0296
15.7734
12.9636
13.3638
13.3443
11.8665
9.18605
6.93431
5.38054
1334.74
-534.855
45.021
-85.2465
46.0854
4.37523
31.3773
16.7168
22.0613
22.0845
20.6661
19.0266
17.4903
15.2707
11.8107
5.89183
0.589201
-3.22341
1289.51
-560.405
53.0729
-53.6114
44.762
6.91692
43.0555
22.5757
25.9581
25.3018
23.8561
21.1508
17.7828
12.004
4.23775
-2.92724
-9.21524
-13.1688
1348.94
-518.562
29.3117
-83.0924
38.2236
-21.2003
35.9979
24.5794
28.8588
27.4334
23.9565
19.3223
14.1896
7.64052
-1.37579
-9.77046
-15.8323
-18.0177
1361.69
-554.2
20.8413
-95.97
28.7256
-21.0485
40.348
36.1555
35.6903
31.3751
25.7653
19.5568
13.2399
5.97206
-2.50006
-10.1773
-14.9811
-16.7061
1382.97
-612.618
-12.7144
-76.8201
21.2699
8.12874
50.1553
45.4898
39.7524
34.2675
27.9447
20.2432
11.6819
4.5848
-0.85016
-4.75774
-7.21974
-8.94289
1402.94
-704.45
-62.8741
-84.7918
18.411
2.87853
37.4695
42.685
41.5003
38.0376
30.0423
19.5234
11.0701
5.83708
2.10641
-1.13237
-2.48858
-2.33408
1359.06
-729.483
-18.6883
-93.1449
7.37742
-17.0192
29.9733
39.3936
43.4761
40.0758
29.963
21.1484
14.8684
10.5212
6.84583
3.59421
1.4978
0.0219344
1304.06
-666.684
-28.4321
-82.9564
17.6716
-17.6652
23.2521
44.38
50.0691
44.1757
35.298
27.1885
21.1612
16.5154
11.3293
5.81466
2.90265
1.8401
1319.15
-667.586
-101.399
-53.0658
42.5904
-4.74337
15.2938
39.4698
45.0178
42.155
35.1968
29.2278
23.194
17.5801
12.3428
6.99608
3.82196
3.41393
1363.22
-595.98
-115.112
-69.1681
68.8359
12.8534
19.0073
40.8971
46.3965
42.7416
37.103
31.0958
25.3171
19.4776
13.9653
9.0686
5.18497
3.45282
1184.79
-541.266
94.6269
-152.384
-38.3338
-61.2155
6.52342
16.819
-3.00393
-14.8168
-3.01037
-8.0248
-10.6154
16.7933
39.8135
40.5206
39.5086
37.1479
1147.67
-557.711
55.0096
-165.248
-49.5053
-64.8808
2.65608
10.979
-9.18127
-30.4802
-15.0869
-12.9776
-17.8124
16.9535
41.8658
41.055
39.6223
37.8286
1222.74
-617.004
31.5929
-174.935
-74.2558
-75.9356
-2.21449
-5.62228
-32.6019
-55.5533
-34.5519
-28.8348
-16.7135
28.0586
50.5887
44.7168
41.7983
38.5111
1250.75
-705.696
-10.2279
-157.167
-65.5716
-65.175
-6.27123
-14.0593
-45.8009
-73.4958
-58.5677
-40.2262
-5.66036
38.9487
56.2741
50.326
44.9169
39.2948
1262.32
-726.486
-21.3389
-133.702
-43.3403
-71.8206
-17.9385
-20.8971
-41.1191
-68.9571
-65.4137
-46.5148
-3.83179
39.7451
55.2001
51.2038
47.6836
39.532
1314.64
-716.24
-40.3826
-127.272
-25.0454
-68.3611
-21.8896
-13.8161
-27.8849
-59.6292
-59.4628
-44.8736
-6.22809
34.5914
48.2557
48.0104
45.9052
38.0834
1310.5
-706.971
-23.1058
-125.077
-12.9661
-67.8549
-18.2991
-1.02909
-15.5787
-54.3464
-63.9665
-46.8612
-11.3253
24.1227
37.4356
40.3308
39.8857
35.4718
1311.32
-686.223
-12.7376
-146.134
-9.22079
-60.054
-9.56206
2.36685
-10.9006
-43.931
-51.9452
-40.703
-11.2156
16.6589
29.0149
31.7908
31.9908
32.4162
1336.92
-659.065
-12.6272
-161.594
-1.43124
-50.9442
-2.39742
-2.9467
-10.1158
-34.7504
-36.5625
-27.4486
-4.92654
15.0347
24.7023
26.7857
27.1101
27.537
1339.86
-635.458
4.04946
-144.671
3.18351
-50.5255
4.61892
-5.12325
-6.80509
-28.3069
-27.4215
-16.9225
1.35394
16.4108
24.8203
27.5231
25.4638
24.3998
1331.28
-620.026
25.0154
-136.801
9.75568
-46.8577
7.433
-3.74149
-2.18916
-22.7768
-20.8482
-10.2856
5.56701
19.8356
29.7694
29.0836
24.578
21.5574
1340.72
-621.973
30.6261
-133.269
18.1452
-29.3261
7.41736
-2.88998
1.00803
-14.6733
-12.9824
-4.19268
9.59618
23.4273
29.7953
25.3897
21.4434
18.9226
1314.51
-615.886
41.9958
-141.205
20.6836
-23.892
6.71686
-3.85085
3.53334
-5.95531
-4.45304
2.63662
12.7308
21.7492
24.9783
21.4048
18.3546
17.2933
1314.77
-567.976
42.1086
-136.957
29.2083
-24.1037
3.25584
-7.68065
5.02401
0.408805
3.16347
7.54186
13.1356
18.5271
20.6297
18.8787
17.4856
18.3237
1319.19
-511.865
26.126
-109.685
49.926
-31.6169
3.84541
-8.39556
7.1024
3.81624
6.01446
8.68679
12.5585
16.3124
18.651
18.7466
18.2788
19.3789
1244.85
-567.581
54.1
-100.863
63.6004
-15.3923
-2.96231
-1.68331
7.17248
6.61775
8.66051
10.6242
13.367
15.6164
17.3558
18.632
19.8084
20.961
1209.61
-621.843
128.578
-55.4943
58.956
-1.85304
14.1277
-0.135387
7.06307
10.2007
14.0748
15.1157
15.5997
15.79
16.285
17.0779
17.8768
18.7547
1187.77
-574.614
102.535
-77.3965
91.0761
2.17061
18.9921
-1.3094
5.08943
11.725
18.5691
18.6839
17.5326
16.8361
16.4559
16.2573
16.3638
16.6001
1174.87
-693.745
182.843
-38.9386
26.7899
-4.75696
17.9963
8.20507
14.3683
18.4679
20.3972
18.3467
16.4777
15.4222
14.4771
13.8082
13.329
13.0904
1180.01
-661.934
185.107
-24.3984
28.4746
-0.27819
20.3521
8.07577
20.9594
19.3257
17.7538
17.1858
17.281
15.6423
12.8931
9.60523
6.99921
5.42395
1177.39
-731.407
115.646
-66.5667
19.502
-2.09604
25.9081
12.4946
20.1456
20.7987
21.7024
21.1183
19.0046
15.7871
11.3168
5.53321
0.810534
-3.1897
1165.85
-711.292
81.4397
-51.6714
43.7392
0.451035
32.7139
17.9822
26.7145
23.9259
23.5134
20.8715
16.1122
10.6866
4.77796
-1.34659
-7.32333
-11.7231
1190.64
-788.636
75.0777
-35.5847
29.9807
-8.76418
37.5479
24.8625
31.0477
27.0905
24.0583
19.815
15.2639
9.51895
2.27377
-4.33344
-8.32595
-10.81
1254.74
-730.422
65.1053
-59.4316
3.6328
-15.182
46.2476
36.1047
36.6616
31.0991
25.07
19.3574
13.9433
7.05148
-1.59232
-8.72775
-11.8939
-12.2225
1358.76
-597.877
27.3723
-74.6552
25.6224
-19.1291
45.9738
43.1087
40.9677
33.7866
25.352
18.429
12.7464
7.49802
2.76159
-0.868552
-3.70283
-6.26661
1467.56
-522.798
-55.9351
-84.7584
35.7338
-2.00889
37.7903
42.4506
42.0769
37.5484
29.6705
21.1178
14.2996
9.11548
3.73959
-0.81121
-2.55247
-3.15522
1412.76
-511.697
-10.2688
-85.5891
48.6691
10.9793
33.3279
41.2983
42.5474
40.2184
33.674
25.8399
18.5347
11.4593
4.9908
0.87789
0.180563
0.852305
1386.7
-533.569
-9.76406
-76.2412
66.9284
31.3947
33.3537
40.1641
46.0063
44.3727
37.8399
30.3218
22.476
14.2286
6.71138
2.78415
1.85952
1.94706
1473.03
-503.09
-83.2637
-69.0364
90.6112
43.5426
35.6813
38.5343
43.3952
42.9229
38.4724
31.9934
23.6297
15.719
9.37404
6.11319
3.96828
2.54795
1607.94
-430.035
-24.6314
-51.4698
105.912
52.4626
38.9492
42.9333
45.7935
43.6536
38.4398
32.4639
26.4485
18.5664
12.4452
8.96009
5.71203
3.29337
1030.91
-298.01
136.888
-187.604
-28.7591
-43.6691
16.8487
9.71008
-4.09025
12.4291
21.6338
-10.9835
-2.8282
28.0079
43.1412
36.5342
27.6174
26.5501
1095.12
-308.926
112.574
-202.462
-35.9976
-47.9989
18.6316
9.45
-7.87018
9.07439
20.8722
-14.8744
-10.5573
28.6907
43.946
35.0829
24.7865
29.4552
1192.38
-380.218
64.5936
-244.524
-58.5597
-50.9699
22.3399
13.5863
-6.87884
-2.4168
-0.955186
-29.378
-11.5831
33.6546
47.3808
36.2768
30.1659
32.8468
1289.45
-437.099
-13.259
-247.966
-58.6743
-44.4698
19.069
22.3335
0.531499
-19.2432
-23.9519
-28.9331
2.30871
44.9122
50.7761
39.5268
33.0092
33.9747
1345.35
-468.493
-41.265
-224.856
-40.4698
-40.5004
11.5636
14.9702
7.48677
-24.1263
-30.6451
-21.8397
10.58
45.1888
49.0913
40.0161
34.1293
33.0748
1381.48
-490.875
-67.7266
-217.224
-14.6653
-31.1103
0.802992
6.85473
-0.249123
-27.6592
-39.2175
-24.8296
7.25169
36.9765
41.7956
37.7637
33.8666
32.1242
1363.62
-537.833
-54.2745
-193.46
0.00502376
-41.2527
-0.315625
8.49024
-1.62557
-37.4569
-50.7948
-33.0118
-2.80328
24.2842
33.0502
33.4426
33.5267
32.8317
1348.44
-561.803
-27.3692
-184.326
12.3673
-60.1634
2.42782
11.6236
-1.6485
-36.0911
-42.9676
-29.5868
-5.56377
17.3019
28.3433
30.1566
31.3325
30.3482
1336.51
-543.518
-8.54729
-173.682
18.345
-27.8449
3.68449
2.96318
-2.95466
-30.6944
-34.4037
-23.1884
-2.71515
17.1467
27.3359
28.7767
28.7311
25.6142
1315.25
-555.77
14.7221
-148.101
27.182
-15.8745
3.64417
-2.98738
-1.42175
-25.1201
-29.4743
-20.5949
-0.604326
17.3875
28.0878
32.4842
29.5519
24.1125
1267.6
-590.368
54.7435
-125.089
27.3763
-31.0525
5.33838
-3.77572
3.01994
-18.6114
-23.8892
-18.7756
0.365943
20.178
34.7837
37.1814
27.1333
18.8932
1233.76
-597.942
92.7827
-102.033
38.5254
-26.611
6.20802
-3.09963
8.5868
-10.2904
-14.3721
-12.3186
4.95629
25.0724
34.0758
26.7948
19.7712
14.3844
1250.72
-583.827
70.8576
-107.848
60.826
-14.7027
7.65803
-2.78882
10.7099
-2.1862
-3.11381
-0.652405
11.1993
24.5382
26.3781
20.8395
15.9968
13.0865
1231.42
-623.246
51.8273
-102.682
65.5917
-6.57758
5.43973
-4.83314
9.63626
2.9876
4.82301
6.39629
13.0763
19.3238
20.0353
17.078
15.5593
16.3457
1163.35
-712.967
90.373
-58.0483
25.7683
-21.7558
-0.550972
-5.73587
8.05586
4.2724
6.61064
8.17888
12.7994
16.9358
17.872
17.0171
16.918
18.4162
1139.46
-691.229
90.8246
-60.576
44.1099
-7.39419
12.2042
-0.375783
6.931
5.7068
8.86095
10.4851
13.1644
15.3691
16.6999
17.8676
19.078
20.3253
1135.94
-634.635
125.983
-79.5026
47.7736
-1.53443
13.863
2.78355
8.20274
10.7651
13.5894
14.6861
15.1765
15.3081
15.7861
16.5167
17.3102
18.0983
1128.87
-625.543
122.316
-55.065
45.9015
-2.86472
18.329
5.48085
10.9931
15.5405
19.3644
18.8288
17.5505
16.8245
16.3833
16.1566
16.2721
16.6477
1140.21
-600.867
210.016
-88.4275
55.8757
-0.756484
20.5098
12.4492
17.4254
20.1874
20.7285
18.3802
16.6417
15.6875
14.8286
14.1895
13.3684
13.0164
1145.77
-616.714
185.019
-66.6357
46.9433
4.62227
21.9557
11.9833
19.664
18.9837
19.9166
19.9291
19.1489
16.7922
13.2976
9.7206
6.91346
5.00317
1159.21
-618.8
183.933
-69.6503
37.3031
2.34075
25.1428
17.3084
21.9315
20.522
22.0895
21.5393
18.9462
15.117
10.2155
4.77059
0.0805372
-5.10721
1170.02
-630.584
179.803
-72.6073
40.3177
0.628613
32.5783
21.3479
27.7119
24.2949
23.9646
20.5944
15.4106
9.80878
4.22583
-1.3757
-6.88943
-11.7859
1170.79
-653.137
154.697
-82.21
42.5828
-5.00329
38.3231
27.3257
33.9405
27.4739
25.0105
19.87
14.5937
8.36811
2.259
-2.56109
-6.52389
-10.6256
1197.26
-741.992
43.4533
-79.1425
34.4947
-0.504571
51.0513
37.5475
38.169
31.4902
26.0924
19.2818
12.5466
5.3807
-2.05468
-7.32397
-9.98359
-12.0967
1261.84
-735.627
-26.9972
-112.684
30.705
-10.6924
53.0295
51.8442
43.826
34.3104
25.6264
17.1836
10.6581
6.22701
3.54233
0.437877
-3.27752
-6.41347
1294.38
-821.314
-50.6759
-103.684
16.0083
-16.2289
41.6339
52.6682
48.3785
39.1431
30.1838
21.3254
13.4736
6.37405
0.534018
-3.10448
-4.87193
-6.03402
1404.64
-730.552
-53.2805
-56.2069
49.6553
4.34283
40.9191
51.611
48.7517
43.4277
37.8952
29.9246
18.9508
7.96716
0.497005
-2.48384
-2.00922
0.0962325
1461.27
-593.323
-35.9057
-82.2617
78.2225
21.6705
50.9089
55.776
49.8115
46.682
42.8044
34.6028
22.8267
10.6901
2.92487
0.15258
0.557144
1.33293
1527.04
-551.781
-24.6587
-117.775
78.2885
34.5831
63.0913
62.4996
52.0697
47.4998
42.7057
34.6078
22.3225
11.1327
5.03833
2.84035
2.84151
2.05792
1461.23
-560.741
-13.6096
-107.056
76.9693
43.0829
65.939
64.1155
54.2646
47.8556
42.6236
34.7386
22.4137
14.1704
8.6073
6.51621
4.10196
1.24373
1111.78
-396.724
69.4143
-277.373
-19.5372
-25.591
28.8272
25.5006
-7.91692
-15.1322
6.02539
18.3744
16.753
23.7189
32.4198
34.4917
25.2253
12.325
1092.88
-420.939
60.8571
-249.699
-5.41336
-22.7374
28.2011
13.1614
-17.8634
-21.5959
-0.755512
12.6723
11.4096
23.1951
28.323
30.5313
18.6669
10.7035
1150.31
-502.12
12.5098
-289.088
-31.4748
-28.6069
27.46
15.373
-15.5471
-28.1985
-12.7072
-1.58948
7.10906
28.2364
34.1192
27.2834
16.8353
14.1717
1259.66
-497.696
-25.8341
-282.987
-57.3997
-47.3624
22.0545
19.3954
-7.79015
-32.2583
-24.0155
-8.77309
12.0538
34.8426
35.0336
25.3597
17.2319
14.2576
1319.99
-583.907
-77.7925
-217.293
-44.8894
-53.5305
12.801
13.3481
-7.50777
-34.6754
-30.7535
-8.33453
17.8392
37.3747
33.037
23.1559
17.1064
15.8527
1316.12
-679.536
-101.37
-192.4
-34.0015
-70.0895
-2.98561
5.61872
-9.75611
-40.5114
-40.7067
-13.5546
15.1404
31.741
27.0873
19.2994
16.3061
17.9365
1286.42
-685.823
-65.5087
-155.981
-16.9721
-64.1718
0.0489938
8.4533
-4.40022
-35.7864
-40.6933
-18.7859
7.23677
21.5877
19.5988
14.4851
15.2468
20.1205
1252.89
-716.465
-5.77573
-120.081
4.39068
-57.8839
2.95954
9.21799
-1.57117
-27.9102
-31.1398
-15.852
2.76018
13.527
14.648
13.8805
16.8908
20.642
1233.8
-699.011
34.3022
-99.3261
11.9612
-49.5834
3.83855
3.89602
-1.63862
-19.8378
-23.3891
-14.3924
-1.48926
7.92045
13.1666
16.6613
19.304
20.5414
1221.17
-693.239
68.5181
-102.231
17.7776
-40.2632
2.89506
-1.22277
-0.457609
-13.886
-19.162
-16.9643
-7.13787
4.77326
16.4648
22.6317
22.2903
20.2204
1203.39
-675.047
92.7827
-93.0573
22.8813
-39.6057
1.60746
-4.60874
3.13259
-8.62646
-14.7789
-16.6173
-7.42975
9.1616
24.7107
28.8485
23.0757
17.1237
1186.05
-649.751
113.798
-82.4102
24.5827
-32.0363
4.23546
-4.40653
7.92154
-4.44205
-8.10936
-6.93224
1.33257
17.447
27.6853
24.4225
16.2281
11.8253
1187.19
-655.764
114.374
-78.1989
32.6123
-25.3002
6.17148
-4.05805
9.71717
0.0344635
0.476986
3.09851
11.6247
21.105
23.2415
18.3331
12.2868
10.5172
1171.53
-656.641
105.713
-81.7424
40.5979
-14.7478
6.24684
-3.11028
10.7217
4.66497
7.82634
8.04868
11.5929
15.5273
17.0003
14.2081
12.8993
14.7144
1151.84
-612.856
165.026
-82.7828
44.7311
-14.2788
5.01793
-2.78042
9.07717
4.70927
7.2704
8.56518
11.8529
14.6739
15.8037
15.2271
15.7937
18.1174
1152.13
-612.985
194.416
-83.6198
47.2184
-5.70135
8.00091
1.31417
7.60982
5.47281
9.72943
10.5544
12.7206
14.5147
15.8587
16.8942
18.1666
19.7798
1154.62
-615.731
213.715
-64.6134
45.7717
-2.99013
13.0304
4.76781
10.1176
10.4162
13.4346
14.0151
14.682
15.0157
15.7138
16.352
16.999
17.7371
1147.22
-608.54
211.845
-68.1912
49.6211
-5.63884
15.4113
10.7025
18.0826
18.1395
19.6677
18.8269
17.5916
16.9841
16.5259
16.0876
16.1649
16.6305
1161.51
-622.859
231.686
-73.1693
38.1864
-5.35911
20.1286
14.3773
23.5797
21.012
20.5687
18.392
17.126
16.0272
15.057
14.0221
13.1903
12.9191
1167.77
-630.101
227.682
-68.3815
32.8886
-1.27628
20.4705
12.4849
19.2861
18.8653
20.3812
20.1748
19.0529
16.3843
12.7253
9.49368
6.69945
4.17434
1181.09
-637.813
218.055
-76.5033
36.6999
4.88167
26.9908
21.9315
25.4322
21.9256
22.1332
20.6483
18.0072
14.0238
9.13505
4.31254
-0.552164
-7.43787
1196.15
-644.766
200.72
-79.0791
37.3255
7.0049
34.1056
24.938
29.596
25.6355
24.0951
20.1902
15.0748
9.60963
4.03764
-1.22105
-6.30194
-12.1574
1199.87
-656.44
167.905
-84.9072
32.2015
2.3664
35.1665
26.2064
32.4341
27.8033
25.0759
20.1637
14.7172
8.57814
2.47354
-2.74541
-7.48915
-12.6304
1199.66
-699.806
95.0577
-90.7525
21.4814
0.397161
50.7256
33.9289
37.5641
31.7037
27.1342
20.0016
12.7866
5.80538
0.0195244
-4.71802
-8.84373
-13.2398
1223.26
-729.875
32.9667
-93.6828
15.1937
-6.04532
51.8332
49.206
44.1022
35.1513
26.5339
17.1608
9.69325
5.24788
2.70244
-1.42653
-7.9937
-13.0469
1245.32
-778.511
13.3224
-87.9659
24.5949
-14.4518
38.9798
55.3862
52.1809
41.2383
30.3502
19.3518
10.1824
3.60753
-0.559183
-4.31202
-8.38408
-10.58
1368.95
-785.979
-31.7994
-108.91
31.5057
-16.8579
29.2691
57.8466
55.9398
46.7389
38.3481
27.6746
16.3312
7.37492
2.41673
-0.956459
-3.32923
-4.44698
1379.44
-712.939
-40.1341
-121.102
31.4007
-10.357
30.7228
62.0629
60.4317
50.9121
44.5112
35.5409
23.6885
14.643
8.44684
4.45884
1.59123
0.281158
1262.93
-735.968
-16.6384
-130.794
15.8128
4.52882
44.608
67.4021
61.4235
52.9356
46.8001
37.8791
25.2909
16.76
11.193
8.63859
6.81343
4.35151
1171.94
-688.418
3.34118
-122.989
23.0385
24.5308
56.3799
71.6795
60.8583
51.7976
46.8814
39.0631
28.2854
20.9688
16.2058
15.8452
12.9462
6.31778
991.191
-593.119
-69.2642
-197.56
-17.2628
-7.5903
8.04514
2.6072
-3.81842
-9.13024
-5.15059
10.3641
21.0268
21.0436
26.6441
30.6739
26.323
22.1668
1111.59
-626.71
-106.649
-191.42
1.70398
-4.72882
6.66319
-9.00136
-11.909
-11.9
-8.21939
7.96879
19.0397
19.0481
23.6314
27.467
23.7672
20.5058
1169.05
-677.566
-105.486
-210.301
-0.0423425
-11.3988
4.68513
-16.5567
-24.4843
-22.3962
-13.6729
4.68093
18.7177
22.7476
24.7864
25.0286
20.9663
19.7575
1250.22
-678.145
-116.747
-250.721
-14.5848
-19.3914
8.44943
-12.2399
-29.5042
-31.044
-19.5138
2.99343
21.1159
25.3122
23.6829
20.7833
18.389
19.4829
1285.2
-742.589
-115.427
-179.703
-6.69367
-26.9456
8.88546
-9.06178
-31.005
-38.52
-26.3696
1.70434
23.6785
25.7695
19.9035
15.3074
15.6757
19.2436
1256.38
-743.817
-72.6145
-141.774
2.22185
-33.7007
8.69375
-5.50285
-22.8569
-37.024
-30.2764
-1.35349
22.3444
22.2814
13.8327
9.11467
12.3653
18.7491
1239.91
-705.123
-17.2054
-125.503
10.5774
-39.2683
8.0502
-1.8564
-12.6073
-30.3398
-24.1558
-1.37239
17.6891
16.0589
7.65418
4.00084
9.90464
18.4731
1233.52
-681.377
35.9015
-110.239
19.3126
-38.755
8.01922
-2.68063
-8.48324
-21.1723
-18.1358
-1.25267
11.8771
9.05153
2.86897
3.04891
11.0064
19.3594
1228.83
-662.533
88.4613
-102.161
21.5028
-39.2167
7.53128
-4.26662
-5.75686
-13.8354
-11.4377
-1.16874
5.63452
2.92764
0.349715
7.06939
14.8535
20.3171
1220.68
-651.712
119.605
-99.8183
21.7998
-35.617
7.85736
-6.48102
-3.47296
-9.07317
-6.98943
-3.27636
-1.46533
-1.46877
3.87897
12.215
16.3408
18.4158
1211.16
-645.729
145.145
-95.0103
23.3597
-32.0532
5.12275
-7.48049
0.726635
-6.52629
-6.30911
-4.45576
-3.70833
1.10514
10.1163
14.9289
14.7255
15.2956
1201.03
-640.54
164.538
-89.2904
28.2094
-29.4989
4.12093
-8.3986
2.51682
-4.79254
-5.2582
-2.78621
1.38957
8.15194
13.8865
12.2006
9.60855
10.8786
1190.02
-638.131
173.15
-88.1983
33.5035
-25.9977
3.52028
-8.35682
4.10741
-0.513975
0.484573
2.81109
8.7431
13.241
13.6932
9.00252
7.2944
10.1419
1178.75
-635.307
179.076
-85.8697
38.7063
-19.5546
4.14636
-5.14052
7.81959
4.94984
9.0265
10.1412
11.7363
12.943
12.6695
10.1709
10.8109
14.673
1172.37
-627.427
196.9
-78.4712
40.64
-11.4259
7.642
-0.783057
8.79895
4.2779
8.00527
8.47715
10.4505
12.6138
13.8187
13.6299
15.4016
18.7012
1168.39
-621.598
210.58
-77.7916
41.4329
-6.06089
11.8234
3.90338
9.46668
6.25183
10.5628
10.9164
12.7259
14.1338
15.1919
16.4144
18.1911
20.2826
1166.03
-613.95
224.06
-72.4735
39.3688
-5.71809
12.4739
6.63055
11.8045
10.1692
13.323
13.569
14.4953
15.1877
15.8216
16.2924
17.0091
17.9862
1156.34
-604.641
226.539
-75.1217
38.1702
-8.16753
11.7146
13.4865
22.4581
19.3018
20.3014
18.7806
17.8996
17.4377
16.8307
16.407
16.5646
16.9225
1166.6
-614.171
239.677
-79.9068
35.5773
-6.0402
20.4269
16.2363
26.2212
21.4227
21.0333
18.6537
17.5675
16.2844
15.1292
13.9758
13.152
12.5255
1174.45
-623.301
237.824
-77.5331
33.0142
-3.60072
22.0229
14.997
20.5261
19.2167
20.3342
19.7429
18.3742
15.4603
12.1849
9.39648
6.52257
3.48223
1188.3
-635.087
231.238
-79.4104
31.8113
3.65772
32.6048
28.4059
30.2729
24.7078
22.1152
19.0578
17.0049
13.0844
8.46714
4.3257
-1.01161
-8.30333
1203.27
-642.756
217.283
-76.6175
29.0435
1.13911
35.4236
27.8182
29.1128
25.3094
23.5161
20.5011
15.5427
9.74757
3.88875
-1.19716
-6.06638
-12.1679
1215.12
-656.856
193.495
-86.5345
38.046
-3.32592
31.2097
25.4456
29.245
26.4714
24.1809
20.4041
14.9333
9.05495
3.01644
-2.45242
-7.3714
-12.5497
1223.26
-673.88
155.389
-86.5013
30.5874
3.53836
35.004
30.3745
34.5859
31.1339
27.3625
21.3736
14.7092
8.24789
2.11907
-4.64818
-10.8983
-17.0113
1243.22
-673.728
132.558
-82.1277
23.1473
-1.20632
40.1708
36.9767
39.9197
36.3476
30.221
21.2882
12.5974
6.80303
2.3151
-4.83739
-14.6491
-22.1488
1268.27
-698.633
118.697
-77.4589
17.9336
-3.54637
31.8678
39.8579
42.6636
41.4339
33.9696
22.6905
11.9044
5.06623
0.569035
-4.57524
-10.1906
-13.27
1350.15
-752.093
81.0751
-99.8159
26.9918
5.68124
22.1692
38.4379
45.8703
45.709
39.6894
28.4541
16.6114
7.64024
2.43253
-1.05538
-4.59271
-4.80139
1351.65
-737.08
75.3083
-134.215
23.1385
7.36193
15.5294
32.0966
48.0499
50.1669
46.886
37.0289
25.0303
13.883
8.09348
5.66973
5.64835
2.88213
1293.55
-745.795
80.8656
-132.194
-5.52184
20.6607
25.0906
25.815
45.8897
52.7079
49.3516
40.2608
27.7032
16.1066
13.8912
14.3179
10.8457
6.57314
1302.43
-748.958
108.719
-101.092
-13.9273
28.2843
32.2145
28.7925
45.8886
50.9784
48.7978
40.513
29.3484
18.9012
19.6379
20.596
11.4225
-0.148379
952.81
-726.253
-45.4663
-94.6484
43.065
10.1364
0.888124
-29.5759
-32.2672
-21.7461
-7.72843
8.23691
19.3228
23.1116
23.7682
27.0683
29.5261
31.4918
1088.57
-783.672
-107.523
-127.316
30.8595
11.453
0.118602
-38.0673
-34.6053
-21.0311
-10.1159
7.15288
20.4564
22.8693
21.9026
25.1556
28.3858
30.8169
1148.62
-778.587
-106.071
-120.034
33.3717
9.22982
-0.490526
-42.2126
-37.5987
-19.9988
-10.8185
6.36826
22.6295
24.1778
22.0265
24.0366
26.7815
29.2509
1203.91
-757.542
-115.823
-182.096
33.8977
-2.24779
0.417678
-36.9035
-41.4515
-25.4634
-13.7704
7.1122
24.2332
25.0623
21.5446
21.1599
23.5677
26.9916
1239.5
-748.056
-83.672
-175.035
28.6083
-10.8664
3.37258
-31.3652
-46.5041
-37.4141
-18.9685
7.65302
25.1538
24.6418
19.2471
17.0323
19.4247
23.4976
1259.89
-718.035
-24.6237
-147.327
25.029
-15.456
8.26234
-19.9405
-34.4157
-38.9227
-19.6743
9.02596
26.3417
22.9718
14.4249
10.1367
12.8785
18.9478
1267.21
-689.114
32.5672
-110.815
20.8408
-22.982
10.7892
-8.61895
-18.9921
-27.3714
-15.9787
11.2513
23.9301
18.121
10.4535
7.58052
9.8474
16.2418
1263.59
-667.674
67.8891
-95.709
22.927
-26.8757
7.64892
-9.46716
-12.0012
-17.6461
-10.2033
8.84842
15.0997
9.42271
6.61719
9.56915
14.7705
19.3875
1251.94
-657.199
105.402
-99.3304
20.3158
-29.1688
7.33792
-8.48587
-7.35432
-11.5418
-5.28629
4.77371
6.13503
4.21929
5.84252
11.7738
18.2524
22.3112
1236.51
-648.048
139.272
-95.6998
18.6959
-32.1759
7.80989
-7.98437
-4.29513
-7.40675
-2.39112
2.54817
4.53785
5.96826
10.2814
15.4561
18.6898
21.6105
1221.48
-641.428
163.614
-93.1264
20.8766
-29.9313
6.66282
-8.19431
-1.15752
-4.49362
-2.32894
0.87294
3.27454
6.16469
10.1909
13.0562
15.4123
18.7524
1208.24
-636.775
179.118
-91.4797
25.2686
-29.4315
5.13085
-10.1918
-1.7096
-4.5522
-3.47379
-0.945741
1.80844
4.54715
6.34051
6.96944
9.9308
14.4919
1195.7
-632.535
190.397
-88.9628
30.1063
-28.5185
4.7376
-10.2725
-0.610019
-2.13111
0.412153
0.36776
3.28244
4.76299
4.0438
5.00149
8.47405
13.6879
1185.09
-629.453
201.4
-85.0697
33.6572
-26.5037
4.73207
-6.24998
2.11034
2.84586
6.62395
8.53477
11.3619
11.4042
10.1628
9.87599
12.418
16.8583
1176.57
-623.982
214.703
-79.5899
34.2084
-21.2104
8.16861
1.73486
6.77441
3.88798
7.66118
8.13877
10.2739
11.2782
12.5739
13.6585
16.0578
19.6397
1169.48
-618.044
224.538
-76.733
34.0962
-12.7127
11.915
6.10989
10.0064
6.28014
10.6681
11.0993
12.8576
13.7773
14.7449
16.3557