/*--------------------------------*- C++ -*----------------------------------*\
| =========                 |                                                 |
| \\      /  F ield         | OpenFOAM: The Open Source CFD Toolbox           |
|  \\    /   O peration     | Version:  2112                                  |
|   \\  /    A nd           | Website:  www.openfoam.com                      |
|    \\/     M anipulation  |                                                 |
\*---------------------------------------------------------------------------*/
FoamFile
{
    version     2.0;
    format      ascii;
    arch        "LSB;label=32;scalar=64";
    class       volScalarField;
    location    "0.005";
    object      k_0;
}
// * * * * * * * * * * * * * * * * * * * * * * * * * * * * * * * * * * * * * //

dimensions      [0 2 -2 0 0 0 0];

internalField   nonuniform List<scalar> 
12225
(
0.000166233
0.00016874
8.54475e-05
4.76692e-05
3.46355e-05
2.90573e-05
2.74686e-05
2.75402e-05
2.91883e-05
3.5818e-05
5.78795e-05
0.000124761
0.000188352
0.000222157
0.00023267
0.000231972
0.000195394
0.000263204
2.70216e-05
2.81748e-05
2.4507e-05
2.28868e-05
2.24161e-05
2.21751e-05
2.21498e-05
2.2268e-05
2.27007e-05
2.36684e-05
2.56566e-05
2.99355e-05
3.8252e-05
5.88328e-05
8.85985e-05
0.000111426
0.000117433
0.000122473
2.00991e-05
1.92925e-05
1.78677e-05
1.7181e-05
1.70736e-05
1.71031e-05
1.72533e-05
1.75969e-05
1.78239e-05
1.79612e-05
1.8116e-05
1.84082e-05
1.90222e-05
2.05657e-05
2.47799e-05
2.88781e-05
3.0546e-05
3.13092e-05
2.00617e-05
2.02909e-05
2.07192e-05
2.06846e-05
2.0168e-05
1.94923e-05
1.96011e-05
1.99583e-05
2.01604e-05
2.01797e-05
2.01341e-05
1.99433e-05
1.96684e-05
1.95476e-05
1.95402e-05
1.95374e-05
1.94807e-05
1.93055e-05
2.00792e-05
2.28195e-05
2.58251e-05
2.58846e-05
2.40923e-05
2.25091e-05
2.23866e-05
2.30832e-05
2.61379e-05
2.85895e-05
2.94151e-05
2.9442e-05
2.88568e-05
2.70435e-05
2.59279e-05
2.50737e-05
2.44125e-05
2.36133e-05
2.03937e-05
2.22695e-05
2.26855e-05
2.24419e-05
2.15725e-05
2.12285e-05
2.1255e-05
2.17771e-05
2.42945e-05
2.6703e-05
2.75001e-05
2.76346e-05
2.7543e-05
2.69053e-05
2.57245e-05
2.49316e-05
2.4486e-05
2.43308e-05
2.05554e-05
2.36087e-05
2.49252e-05
2.36959e-05
2.17216e-05
2.13151e-05
2.17497e-05
2.52284e-05
3.79109e-05
4.55638e-05
4.63783e-05
4.5716e-05
4.18081e-05
3.48422e-05
2.99231e-05
2.68232e-05
2.48329e-05
2.38461e-05
2.44356e-05
2.38522e-05
2.35556e-05
2.23037e-05
2.10482e-05
2.06925e-05
2.08041e-05
2.2029e-05
2.42859e-05
2.48566e-05
2.48107e-05
2.43593e-05
2.31391e-05
2.22397e-05
2.17308e-05
2.14931e-05
2.14063e-05
2.13986e-05
2.18682e-05
2.20561e-05
2.24107e-05
2.21694e-05
2.12134e-05
2.05847e-05
2.05349e-05
2.08686e-05
2.2311e-05
2.2964e-05
2.28133e-05
2.21897e-05
2.16804e-05
2.14357e-05
2.13506e-05
2.13404e-05
2.13675e-05
2.14021e-05
2.08969e-05
2.09431e-05
2.0791e-05
2.08524e-05
2.09533e-05
2.10874e-05
2.25435e-05
2.54352e-05
2.55324e-05
2.43086e-05
2.29739e-05
2.25151e-05
2.24454e-05
2.25183e-05
2.28447e-05
2.30721e-05
2.31431e-05
2.31406e-05
2.03986e-05
2.0533e-05
2.03673e-05
2.03572e-05
2.07646e-05
2.22873e-05
2.63771e-05
2.82344e-05
2.8061e-05
2.63152e-05
2.44024e-05
2.3516e-05
2.31744e-05
2.30076e-05
2.28318e-05
2.26461e-05
2.2438e-05
2.23515e-05
2.04528e-05
2.01799e-05
2.01391e-05
2.04385e-05
2.2315e-05
2.50876e-05
2.60381e-05
2.57601e-05
2.42222e-05
2.30142e-05
2.24849e-05
2.2296e-05
2.22317e-05
2.2189e-05
2.21127e-05
2.1914e-05
2.17074e-05
2.16352e-05
2.26629e-05
2.15117e-05
2.10334e-05
2.15489e-05
2.23789e-05
2.23076e-05
2.2104e-05
2.16025e-05
2.11449e-05
2.09676e-05
2.097e-05
2.09996e-05
2.09531e-05
2.08672e-05
2.08075e-05
2.07942e-05
2.08185e-05
2.09649e-05
3.1836e-05
2.82122e-05
2.18289e-05
2.12079e-05
2.15958e-05
2.17121e-05
2.15327e-05
2.12769e-05
2.12012e-05
2.12173e-05
2.15176e-05
2.28757e-05
2.34089e-05
2.32892e-05
2.25375e-05
2.19004e-05
2.17356e-05
2.16692e-05
2.15926e-05
2.10022e-05
2.26576e-05
2.55549e-05
2.57208e-05
2.4151e-05
2.32958e-05
2.3225e-05
2.31984e-05
2.29759e-05
2.26274e-05
2.26088e-05
2.27105e-05
2.27544e-05
2.26642e-05
2.24901e-05
2.2465e-05
2.25542e-05
2.04718e-05
2.18044e-05
2.3132e-05
2.38633e-05
2.34e-05
2.24524e-05
2.227e-05
2.23218e-05
2.25959e-05
2.32874e-05
2.53981e-05
3.07655e-05
3.2936e-05
3.26698e-05
2.99251e-05
2.6003e-05
2.38346e-05
2.276e-05
2.16704e-05
2.25764e-05
2.17289e-05
2.08147e-05
2.07261e-05
2.09975e-05
2.18329e-05
2.26412e-05
2.29692e-05
2.32719e-05
2.36394e-05
2.37607e-05
2.35849e-05
2.2814e-05
2.22903e-05
2.20981e-05
2.20686e-05
2.21101e-05
2.1721e-05
2.23053e-05
2.15639e-05
2.06525e-05
2.03889e-05
2.03964e-05
2.07477e-05
2.2382e-05
2.31772e-05
2.29107e-05
2.20493e-05
2.15887e-05
2.14265e-05
2.13847e-05
2.139e-05
2.13367e-05
2.12982e-05
2.13268e-05
2.0505e-05
2.06717e-05
2.17515e-05
2.30825e-05
2.34905e-05
2.26312e-05
2.14552e-05
2.14292e-05
2.25471e-05
2.42137e-05
2.42589e-05
2.36111e-05
2.24462e-05
2.16535e-05
2.11743e-05
2.0918e-05
2.08129e-05
2.07835e-05
2.14837e-05
2.08142e-05
2.19299e-05
2.62538e-05
2.64668e-05
2.47753e-05
2.33115e-05
2.26661e-05
2.32838e-05
2.66233e-05
2.8271e-05
2.81795e-05
2.68899e-05
2.43119e-05
2.27566e-05
2.21564e-05
2.20912e-05
2.21902e-05
2.01662e-05
2.0238e-05
2.12078e-05
2.74436e-05
4.01501e-05
4.29629e-05
3.7397e-05
2.66831e-05
2.28487e-05
2.15884e-05
2.11648e-05
2.10539e-05
2.10584e-05
2.11834e-05
2.16996e-05
2.32514e-05
2.83636e-05
3.58424e-05
2.03343e-05
2.0537e-05
2.11063e-05
2.24835e-05
2.29139e-05
2.30463e-05
2.32429e-05
2.40498e-05
2.76879e-05
3.28509e-05
3.41967e-05
3.30164e-05
3.17055e-05
3.20658e-05
3.57129e-05
4.47808e-05
4.97732e-05
5.14478e-05
2.48594e-05
2.73307e-05
2.56427e-05
2.36898e-05
2.30351e-05
2.25425e-05
2.22382e-05
2.21291e-05
2.21263e-05
2.22241e-05
2.24875e-05
2.29589e-05
2.41053e-05
2.82176e-05
3.38956e-05
3.73089e-05
3.87117e-05
3.90748e-05
2.06699e-05
2.17072e-05
2.17763e-05
2.19397e-05
2.27055e-05
2.28127e-05
2.28209e-05
2.28783e-05
2.30916e-05
2.3931e-05
2.59357e-05
2.6583e-05
2.62747e-05
2.47383e-05
2.33969e-05
2.26707e-05
2.24951e-05
2.25955e-05
2.06409e-05
2.21022e-05
2.44432e-05
2.48881e-05
2.47846e-05
2.42214e-05
2.29782e-05
2.18973e-05
2.1331e-05
2.11411e-05
2.11158e-05
2.11409e-05
2.1124e-05
2.10421e-05
2.10219e-05
2.10313e-05
2.10982e-05
2.13295e-05
2.18146e-05
2.1094e-05
2.22586e-05
2.73745e-05
3.23949e-05
3.26405e-05
2.93893e-05
2.40901e-05
2.16274e-05
2.08003e-05
2.06227e-05
2.0574e-05
2.05047e-05
2.04715e-05
2.04751e-05
2.05221e-05
2.06891e-05
2.11634e-05
2.01277e-05
2.0431e-05
2.04696e-05
2.04491e-05
2.02112e-05
1.93461e-05
1.83435e-05
1.80367e-05
1.81936e-05
1.83795e-05
1.82792e-05
1.79465e-05
1.7954e-05
1.80337e-05
1.79665e-05
1.74067e-05
1.68865e-05
1.68643e-05
2.00256e-05
1.76084e-05
1.24942e-05
1.26238e-05
1.44415e-05
1.58287e-05
1.57867e-05
1.42933e-05
1.21018e-05
1.10526e-05
1.07695e-05
1.08367e-05
1.15387e-05
1.29948e-05
1.3993e-05
1.45693e-05
1.48562e-05
1.49546e-05
2.02012e-05
2.47425e-05
4.27628e-05
8.76989e-05
0.000113382
0.000116785
0.000109892
8.0838e-05
5.3441e-05
3.82467e-05
3.03273e-05
2.64655e-05
2.47947e-05
2.42487e-05
2.4173e-05
2.42197e-05
2.4412e-05
2.48774e-05
2.73378e-05
0.000132527
0.000439507
0.000646616
0.000703256
0.000690379
0.000564017
0.000329143
0.000185876
0.000108582
6.90451e-05
4.94105e-05
3.98768e-05
3.54646e-05
3.36942e-05
3.32421e-05
3.3295e-05
3.40536e-05
7.72623e-07
9.18148e-07
2.09722e-06
6.11193e-06
1.12649e-05
1.67445e-05
2.13011e-05
2.38689e-05
2.48692e-05
2.40599e-05
2.1571e-05
1.79872e-05
1.38894e-05
9.92184e-06
6.51921e-06
3.85577e-06
2.07899e-06
1.07117e-06
5.81772e-07
3.92764e-07
4.57761e-07
5.59825e-07
6.75416e-07
7.95643e-07
9.14928e-07
1.03534e-06
1.14605e-06
1.23767e-06
1.31383e-06
1.37925e-06
1.4157e-06
1.4259e-06
1.38871e-06
1.30424e-06
1.17396e-06
1.06604e-06
8.79407e-07
6.67419e-07
5.31876e-07
4.50454e-07
3.85609e-07
3.28755e-07
2.7905e-07
2.36368e-07
1.99945e-07
1.68612e-07
1.41406e-07
1.1767e-07
9.70931e-08
7.94383e-08
6.44519e-08
5.18647e-08
4.14031e-08
3.27961e-08
2.57817e-08
2.01136e-08
1.55698e-08
1.19567e-08
9.10814e-09
6.88247e-09
5.15932e-09
3.83716e-09
2.8315e-09
2.07307e-09
1.50586e-09
1.08518e-09
7.7576e-10
5.50053e-10
3.86788e-10
2.69689e-10
1.86412e-10
1.27712e-10
8.66986e-11
5.83028e-11
3.88333e-11
2.56079e-11
1.67133e-11
1.07958e-11
6.90245e-12
4.36928e-12
2.73908e-12
1.7012e-12
1.04729e-12
6.39426e-13
3.87465e-13
2.33229e-13
1.39613e-13
8.32378e-14
4.95304e-14
2.94998e-14
1.76636e-14
1.07003e-14
6.61936e-15
4.23659e-15
2.85011e-15
2.04681e-15
1.58428e-15
1.31969e-15
1.1692e-15
1.08441e-15
1.03772e-15
1.01349e-15
1.0028e-15
1.00002e-15
1e-15
1e-15
1e-15
1e-15
1e-15
1e-15
1e-15
1e-15
1e-15
1e-15
1e-15
1e-15
1e-15
1e-15
1e-15
1e-15
1e-15
1e-15
1e-15
1e-15
1e-15
1e-15
1e-15
1e-15
1e-15
1e-15
1e-15
1e-15
1e-15
1e-15
1e-15
1e-15
1e-15
1e-15
1e-15
1e-15
1e-15
1e-15
1e-15
1e-15
1e-15
1e-15
1e-15
1e-15
1e-15
1e-15
1e-15
1e-15
1e-15
1e-15
1e-15
1e-15
1e-15
1e-15
1e-15
1e-15
1e-15
1e-15
1.03014e-15
1.37146e-15
3.97616e-15
2.05625e-14
1.12981e-13
5.75211e-13
2.70189e-12
1.19513e-11
5.10941e-11
3.20964e-10
1.24165e-09
2.41103e-08
3.46285e-08
2.47395e-07
3.4727e-07
4.06821e-07
4.38198e-07
7.4186e-07
3.90223e-06
4.02026e-06
3.76009e-06
3.07345e-06
3.10566e-06
4.08881e-06
5.05726e-06
5.24236e-06
4.69511e-06
3.97923e-06
3.35969e-06
2.88389e-06
2.59647e-06
2.47103e-06
2.50389e-06
2.73377e-06
3.12182e-06
3.70252e-06
4.4661e-06
5.40132e-06
6.50987e-06
7.7283e-06
9.02986e-06
1.03972e-05
1.17916e-05
1.31442e-05
1.44118e-05
1.55913e-05
1.66752e-05
1.76654e-05
1.8441e-05
1.89524e-05
1.93167e-05
1.97141e-05
1.9548e-05
1.79219e-05
1.51522e-05
1.19191e-05
8.89764e-06
6.84326e-06
5.67555e-06
4.79382e-06
4.02359e-06
3.3733e-06
2.8403e-06
2.40511e-06
2.04619e-06
1.73588e-06
1.46286e-06
1.2239e-06
1.01658e-06
8.38341e-07
6.86507e-07
5.5838e-07
4.51231e-07
3.62313e-07
2.88984e-07
2.28875e-07
1.79937e-07
1.40405e-07
1.08743e-07
8.36012e-08
6.37997e-08
4.83274e-08
3.6332e-08
2.7104e-08
2.00607e-08
1.47273e-08
1.07214e-08
7.73778e-09
5.53419e-09
3.92163e-09
2.75209e-09
1.91192e-09
1.31499e-09
8.94597e-10
6.0196e-10
4.00986e-10
2.64611e-10
1.73076e-10
1.12259e-10
7.2236e-11
4.6135e-11
2.92579e-11
1.84326e-11
1.15418e-11
7.1859e-12
4.4507e-12
2.7436e-12
1.68364e-12
1.02931e-12
6.26879e-13
3.80366e-13
2.30302e-13
1.39366e-13
8.44615e-14
5.14596e-14
3.16502e-14
1.96859e-14
1.24022e-14
7.94727e-15
5.21849e-15
3.54924e-15
2.53241e-15
1.91655e-15
1.54462e-15
1.32135e-15
1.19029e-15
1.11414e-15
1.06975e-15
1.04357e-15
1.02784e-15
1.01816e-15
1.01207e-15
1.00814e-15
1.00557e-15
1.00386e-15
1.00271e-15
1.00192e-15
1.00138e-15
1.001e-15
1.00073e-15
1.00054e-15
1.0004e-15
1.0003e-15
1.00022e-15
1.00017e-15
1.00012e-15
1.00009e-15
1.00007e-15
1.00005e-15
1.00004e-15
1.00003e-15
1.00002e-15
1.00001e-15
1.00001e-15
1e-15
1e-15
1e-15
1e-15
1e-15
1e-15
1e-15
1e-15
1e-15
1e-15
1e-15
1e-15
1e-15
1e-15
1e-15
1e-15
1e-15
1e-15
1e-15
1e-15
1e-15
1e-15
1e-15
1e-15
1e-15
1.00008e-15
1.0012e-15
1.01194e-15
1.09434e-15
1.63144e-15
4.69368e-15
2.03105e-14
9.31061e-14
4.09437e-13
1.71918e-12
7.75447e-12
3.1047e-11
2.0808e-10
6.35604e-10
2.43136e-09
9.96783e-09
1.48743e-08
2.74025e-08
9.16027e-08
4.54802e-06
4.53997e-06
6.90653e-06
6.93194e-06
6.68256e-06
6.7856e-06
6.9983e-06
7.10445e-06
7.25912e-06
7.53474e-06
7.98671e-06
8.67462e-06
9.67105e-06
1.10505e-05
1.284e-05
1.50634e-05
1.77401e-05
2.0868e-05
2.44869e-05
2.85774e-05
3.30976e-05
3.80395e-05
4.33135e-05
4.88955e-05
5.47144e-05
6.06108e-05
6.63154e-05
7.14898e-05
7.58769e-05
7.9104e-05
8.08316e-05
8.13877e-05
8.03103e-05
7.78554e-05
7.41928e-05
6.94869e-05
6.39436e-05
5.78237e-05
5.14278e-05
4.49593e-05
3.85593e-05
3.24756e-05
2.68967e-05
2.20193e-05
1.79793e-05
1.47808e-05
1.24715e-05
1.07218e-05
9.19105e-06
7.83247e-06
6.63413e-06
5.58496e-06
4.67321e-06
3.88725e-06
3.21581e-06
2.64697e-06
2.16739e-06
1.76419e-06
1.4266e-06
1.14554e-06
9.13389e-07
7.23269e-07
5.68781e-07
4.44149e-07
3.44311e-07
2.64897e-07
2.02189e-07
1.53043e-07
1.14829e-07
8.53639e-08
6.28393e-08
4.57892e-08
3.30079e-08
2.35266e-08
1.65926e-08
1.15522e-08
7.95944e-09
5.4598e-09
3.72842e-09
2.53454e-09
1.71521e-09
1.15564e-09
7.75305e-10
5.17991e-10
3.44673e-10
2.28435e-10
1.50788e-10
9.9135e-11
6.49154e-11
4.23125e-11
2.74837e-11
1.77549e-11
1.14118e-11
7.3582e-12
4.75976e-12
3.08701e-12
2.00977e-12
1.31427e-12
8.56283e-13
5.51005e-13
3.50581e-13
2.20927e-13
1.38107e-13
8.57765e-14
5.30708e-14
3.27937e-14
2.02801e-14
1.26983e-14
8.21829e-15
5.54179e-15
3.91028e-15
2.89363e-15
2.24731e-15
1.82993e-15
1.55736e-15
1.3779e-15
1.2589e-15
1.17941e-15
1.12583e-15
1.08933e-15
1.06417e-15
1.04659e-15
1.03415e-15
1.02524e-15
1.01877e-15
1.01403e-15
1.01053e-15
1.00792e-15
1.00597e-15
1.00448e-15
1.00338e-15
1.00251e-15
1.00189e-15
1.00137e-15
1.001e-15
1.00072e-15
1.00046e-15
1.00027e-15
1.00016e-15
1.00009e-15
1.00005e-15
1.00002e-15
1.00001e-15
1e-15
1e-15
1e-15
1e-15
1e-15
1e-15
1e-15
1e-15
1e-15
1e-15
1e-15
1e-15
1e-15
1e-15
1e-15
1e-15
1e-15
1e-15
1e-15
1.00003e-15
1.00027e-15
1.00216e-15
1.01454e-15
1.08559e-15
1.4491e-15
3.14498e-15
1.04562e-14
4.01576e-14
1.57734e-13
5.93502e-13
2.46317e-12
8.59688e-12
2.82135e-11
1.44129e-10
3.04501e-10
8.06555e-10
5.1041e-09
4.70175e-06
4.04575e-06
7.46388e-06
9.58899e-06
1.01826e-05
1.04969e-05
1.08955e-05
1.14919e-05
1.2323e-05
1.34445e-05
1.49134e-05
1.68277e-05
1.92696e-05
2.23193e-05
2.60526e-05
3.05612e-05
3.59062e-05
4.21431e-05
4.93678e-05
5.75827e-05
6.67856e-05
7.67946e-05
8.6887e-05
9.67563e-05
0.000105993
0.000114086
0.00012075
0.000125816
0.000128904
0.00013022
0.000129895
0.000127604
0.000123783
0.00011865
0.000112439
0.000105411
9.78042e-05
8.98323e-05
8.16846e-05
7.35886e-05
6.584e-05
5.85406e-05
5.17485e-05
4.54963e-05
3.97948e-05
3.46385e-05
3.00097e-05
2.58822e-05
2.22245e-05
1.90018e-05
1.61782e-05
1.37167e-05
1.15811e-05
9.73626e-06
8.14988e-06
6.79369e-06
5.64146e-06
4.66529e-06
3.84042e-06
3.14617e-06
2.56434e-06
2.07955e-06
1.67764e-06
1.34605e-06
1.07383e-06
8.51495e-07
6.70902e-07
5.25065e-07
4.08028e-07
3.1473e-07
2.40906e-07
1.82946e-07
1.37839e-07
1.03062e-07
7.6489e-08
5.6416e-08
4.13706e-08
3.01631e-08
2.18944e-08
1.58402e-08
1.1432e-08
8.23437e-09
5.92016e-09
4.24771e-09
3.04036e-09
2.16977e-09
1.54303e-09
1.09283e-09
7.70398e-10
5.40349e-10
3.7691e-10
2.61416e-10
1.80259e-10
1.23514e-10
8.41184e-11
5.69543e-11
3.83446e-11
2.56836e-11
1.71324e-11
1.13887e-11
7.54846e-12
4.99526e-12
3.30235e-12
2.17955e-12
1.43735e-12
9.499e-13
6.30573e-13
4.20466e-13
2.81142e-13
1.88169e-13
1.25861e-13
8.40951e-14
5.61909e-14
3.76441e-14
2.53808e-14
1.73018e-14
1.19846e-14
8.47706e-15
6.15013e-15
4.59299e-15
3.53919e-15
2.81682e-15
2.31478e-15
1.96093e-15
1.70825e-15
1.52552e-15
1.39193e-15
1.29316e-15
1.22008e-15
1.16417e-15
1.12372e-15
1.09031e-15
1.06815e-15
1.04665e-15
1.03365e-15
1.0225e-15
1.00908e-15
1.00147e-15
1e-15
1e-15
1e-15
1e-15
1e-15
1e-15
1e-15
1e-15
1e-15
1e-15
1e-15
1e-15
1e-15
1e-15
1e-15
1e-15
1e-15
1e-15
1e-15
1e-15
1e-15
1e-15
1e-15
1e-15
1e-15
1e-15
1e-15
1.00029e-15
1.00269e-15
1.01434e-15
1.06403e-15
1.26551e-15
2.04706e-15
4.94568e-15
1.5138e-14
5.02435e-14
1.65833e-13
5.14282e-13
2.20376e-12
6.46437e-12
2.23484e-11
2.78783e-10
5.00676e-06
3.59592e-06
7.00908e-06
1.02304e-05
1.11191e-05
1.15498e-05
1.20911e-05
1.29714e-05
1.41601e-05
1.57653e-05
1.78774e-05
2.0713e-05
2.44613e-05
2.93267e-05
3.54459e-05
4.30332e-05
5.22235e-05
6.3184e-05
7.61195e-05
9.10252e-05
0.000107827
0.000125959
0.000143662
0.000159922
0.000173977
0.000185155
0.000192649
0.000196332
0.000197509
0.000194598
0.000188823
0.000180599
0.000170465
0.000159009
0.000146739
0.000134119
0.000121549
0.000109299
9.75959e-05
8.6589e-05
7.63727e-05
6.7001e-05
5.84901e-05
5.08287e-05
4.39842e-05
3.79095e-05
3.25498e-05
2.78464e-05
2.37384e-05
2.01661e-05
1.70733e-05
1.44066e-05
1.21158e-05
1.01548e-05
8.48041e-06
7.05264e-06
5.83951e-06
4.81695e-06
3.95956e-06
3.24381e-06
2.64973e-06
2.15697e-06
1.74914e-06
1.41276e-06
1.13638e-06
9.10218e-07
7.25937e-07
5.76427e-07
4.5566e-07
3.58547e-07
2.80813e-07
2.1888e-07
1.69771e-07
1.31019e-07
1.00592e-07
7.68223e-08
5.83497e-08
4.407e-08
3.30913e-08
2.46979e-08
1.83178e-08
1.34968e-08
9.87634e-09
7.1747e-09
5.17214e-09
3.69804e-09
2.62098e-09
1.84001e-09
1.27855e-09
8.78357e-10
5.95932e-10
3.98668e-10
2.64059e-10
1.73036e-10
1.12087e-10
7.17082e-11
4.52634e-11
2.81591e-11
1.72447e-11
1.03817e-11
6.13517e-12
3.55359e-12
2.01436e-12
1.11595e-12
6.0361e-13
3.18641e-13
1.64239e-13
8.29304e-14
4.14529e-14
2.08785e-14
1.08902e-14
6.09554e-15
3.78076e-15
2.62992e-15
2.02527e-15
1.68335e-15
1.47474e-15
1.33912e-15
1.24684e-15
1.1821e-15
1.13573e-15
1.10201e-15
1.07719e-15
1.05872e-15
1.04486e-15
1.03438e-15
1.02639e-15
1.02027e-15
1.01559e-15
1.01192e-15
1.00918e-15
1.00694e-15
1.00531e-15
1.00393e-15
1.00294e-15
1.00216e-15
1.00143e-15
1.00089e-15
1.00056e-15
1.00036e-15
1.00022e-15
1.00012e-15
1.00008e-15
1.00012e-15
1.00019e-15
1.00028e-15
1.00036e-15
1.00042e-15
1.00046e-15
1.00048e-15
1.00049e-15
1.00047e-15
1.00044e-15
1.0004e-15
1.00035e-15
1.00032e-15
1.00034e-15
1.00044e-15
1.0008e-15
1.00173e-15
1.00395e-15
1.00909e-15
1.0208e-15
1.04776e-15
1.11091e-15
1.26593e-15
1.67397e-15
2.88233e-15
6.85629e-15
2.12909e-14
7.14861e-14
2.51558e-13
8.10572e-13
2.63891e-12
7.69706e-12
2.09288e-11
8.0186e-11
1.05976e-10
2.09342e-10
2.22531e-10
5.61028e-06
3.5736e-06
6.85947e-06
1.04911e-05
1.153e-05
1.20962e-05
1.296e-05
1.42555e-05
1.60277e-05
1.86107e-05
2.23383e-05
2.75473e-05
3.46821e-05
4.42493e-05
5.69418e-05
7.3338e-05
9.39134e-05
0.000119078
0.000148889
0.000182685
0.000219414
0.000257556
0.000292755
0.000322038
0.000344748
0.000357906
0.000362917
0.000362417
0.000352358
0.000336983
0.000316967
0.000294022
0.000269202
0.000243771
0.000218525
0.000194175
0.000171303
0.000150017
0.000130577
0.000113047
9.73742e-05
8.35007e-05
7.13219e-05
6.07088e-05
5.15174e-05
4.35967e-05
3.67991e-05
3.09877e-05
2.60335e-05
2.18194e-05
1.82459e-05
1.52223e-05
1.26674e-05
1.05143e-05
8.71123e-06
7.19699e-06
5.92769e-06
4.8642e-06
3.9799e-06
3.2482e-06
2.64208e-06
2.1416e-06
1.72983e-06
1.39222e-06
1.11637e-06
8.91786e-07
7.09601e-07
5.62366e-07
4.43838e-07
3.48801e-07
2.72914e-07
2.12575e-07
1.64808e-07
1.27164e-07
9.76341e-08
7.458e-08
5.66696e-08
4.28254e-08
3.21799e-08
2.40381e-08
1.78458e-08
1.31632e-08
9.64353e-09
7.01442e-09
5.06347e-09
3.62551e-09
2.57356e-09
1.80957e-09
1.25969e-09
8.66844e-10
5.89513e-10
3.94913e-10
2.61931e-10
1.71876e-10
1.11485e-10
7.14154e-11
4.51338e-11
2.81096e-11
1.72304e-11
1.03799e-11
6.13563e-12
3.55254e-12
2.01115e-12
1.11115e-12
5.98061e-13
3.13084e-13
1.59229e-13
7.8669e-14
3.78515e-14
1.78792e-14
8.45792e-15
4.17911e-15
2.30963e-15
1.52384e-15
1.20568e-15
1.08112e-15
1.03355e-15
1.01548e-15
1.00839e-15
1.00533e-15
1.00377e-15
1.00284e-15
1.00219e-15
1.00171e-15
1.00135e-15
1.00106e-15
1.00083e-15
1.00065e-15
1.00051e-15
1.0004e-15
1.00031e-15
1.00024e-15
1.00019e-15
1.00014e-15
1.00011e-15
1.00008e-15
1.00006e-15
1.00005e-15
1.00003e-15
1.00002e-15
1.00002e-15
1.00001e-15
1.00001e-15
1e-15
1e-15
1e-15
1e-15
1e-15
1e-15
1e-15
1e-15
1e-15
1e-15
1e-15
1e-15
1e-15
1.00001e-15
1.00383e-15
1.01457e-15
1.03849e-15
1.075e-15
1.14986e-15
1.26669e-15
1.50131e-15
1.92239e-15
2.77919e-15
4.61857e-15
8.84873e-15
1.91843e-14
4.59531e-14
1.17427e-13
3.13914e-13
8.56745e-13
2.30736e-12
6.21197e-12
1.45076e-11
5.74125e-11
6.68438e-11
1.03649e-10
1.20208e-10
6.37807e-06
3.66209e-06
6.95532e-06
1.08131e-05
1.19892e-05
1.27617e-05
1.4048e-05
1.61321e-05
1.93151e-05
2.42084e-05
3.15556e-05
4.24251e-05
5.8168e-05
8.04619e-05
0.000111087
0.000151494
0.000202628
0.000264486
0.000335448
0.000412291
0.000491387
0.000568278
0.00063228
0.0006768
0.000704428
0.000714351
0.000695596
0.000673729
0.00063115
0.000583115
0.000529496
0.000474662
0.000420615
0.000369208
0.000321258
0.000277667
0.000238938
0.000204283
0.000174302
0.000148026
0.000124993
0.000105066
8.79501e-05
7.33764e-05
6.10644e-05
5.07192e-05
4.206e-05
3.48308e-05
2.88106e-05
2.38028e-05
1.96429e-05
1.61893e-05
1.33234e-05
1.09468e-05
8.97359e-06
7.33954e-06
5.9923e-06
4.88845e-06
3.98076e-06
3.23259e-06
2.6176e-06
2.11338e-06
1.70105e-06
1.36478e-06
1.09132e-06
8.69606e-07
6.90424e-07
5.461e-07
4.30261e-07
3.37626e-07
2.63828e-07
2.05272e-07
1.58999e-07
1.22589e-07
9.40654e-08
7.18219e-08
5.45574e-08
4.12226e-08
3.09748e-08
2.31404e-08
1.71835e-08
1.26794e-08
9.29379e-09
6.76437e-09
4.88682e-09
3.50229e-09
2.48887e-09
1.75223e-09
1.22168e-09
8.41991e-10
5.74015e-10
3.8506e-10
2.55792e-10
1.68144e-10
1.0928e-10
7.01526e-11
4.44379e-11
2.7745e-11
1.70528e-11
1.03032e-11
6.10994e-12
3.55017e-12
2.01762e-12
1.11951e-12
6.05421e-13
3.1859e-13
1.62949e-13
8.09913e-14
3.92015e-14
1.86111e-14
8.82624e-15
4.34889e-15
2.37877e-15
1.54596e-15
1.20791e-15
1.07616e-15
1.02687e-15
1.00916e-15
1.00304e-15
1.00101e-15
1.00035e-15
1.00014e-15
1.00007e-15
1.00005e-15
1.00003e-15
1.00003e-15
1.00002e-15
1.00002e-15
1.00001e-15
1.00001e-15
1.00001e-15
1.00001e-15
1.00001e-15
1e-15
1e-15
1e-15
1e-15
1e-15
1e-15
1e-15
1e-15
1e-15
1e-15
1e-15
1e-15
1e-15
1e-15
1e-15
1e-15
1e-15
1e-15
1e-15
1e-15
1e-15
1e-15
1e-15
1e-15
1.00031e-15
1.00442e-15
1.01676e-15
1.04423e-15
1.10435e-15
1.20501e-15
1.4095e-15
1.77064e-15
2.50106e-15
4.04542e-15
7.53986e-15
1.58891e-14
3.70676e-14
9.22741e-14
2.3831e-13
6.30319e-13
1.59148e-12
4.40058e-12
8.88516e-12
3.06156e-11
3.37425e-11
3.58392e-11
4.37649e-11
7.51387e-06
3.96457e-06
7.26145e-06
1.13426e-05
1.25917e-05
1.36647e-05
1.59441e-05
1.97596e-05
2.60585e-05
3.63682e-05
5.29556e-05
7.90703e-05
0.000118764
0.000176645
0.000256839
0.000361818
0.000491279
0.000640994
0.000802495
0.000965319
0.0011217
0.00126133
0.00134632
0.00139126
0.00140884
0.00139314
0.00128311
0.00120647
0.00108723
0.000965345
0.00084523
0.000730516
0.000625679
0.000531748
0.00044857
0.000377059
0.000316265
0.000264683
0.000219873
0.000181187
0.000149232
0.000122892
0.000101103
8.31488e-05
6.83429e-05
5.61263e-05
4.60472e-05
3.77343e-05
3.08847e-05
2.52521e-05
2.06216e-05
1.68213e-05
1.37105e-05
1.11649e-05
9.082e-06
7.39076e-06
6.01057e-06
4.87755e-06
3.94874e-06
3.18963e-06
2.57052e-06
2.06652e-06
1.65702e-06
1.32497e-06
1.05634e-06
8.39551e-07
6.65056e-07
5.2501e-07
4.12956e-07
3.23591e-07
2.52567e-07
1.96323e-07
1.51955e-07
1.17092e-07
8.98134e-08
6.85604e-08
5.20765e-08
3.93512e-08
2.95751e-08
2.21026e-08
1.64209e-08
1.21243e-08
8.89366e-09
6.479e-09
4.68557e-09
3.36217e-09
2.39257e-09
1.68718e-09
1.17837e-09
8.13957e-10
5.56058e-10
3.74272e-10
2.49095e-10
1.64075e-10
1.0687e-10
6.87713e-11
4.3678e-11
2.735e-11
1.68642e-11
1.0226e-11
6.08856e-12
3.55375e-12
2.02991e-12
1.13274e-12
6.16482e-13
3.26721e-13
1.68422e-13
8.44253e-14
4.1226e-14
1.97372e-14
9.41859e-15
4.64383e-15
2.5178e-15
1.60795e-15
1.23404e-15
1.08658e-15
1.03078e-15
1.01052e-15
1.00346e-15
1.0011e-15
1.00033e-15
1.0001e-15
1.00003e-15
1.00001e-15
1e-15
1e-15
1e-15
1e-15
1e-15
1e-15
1e-15
1e-15
1e-15
1e-15
1e-15
1e-15
1e-15
1e-15
1e-15
1e-15
1e-15
1e-15
1e-15
1e-15
1e-15
1e-15
1e-15
1e-15
1e-15
1e-15
1e-15
1e-15
1e-15
1e-15
1e-15
1e-15
1e-15
1.00003e-15
1.00242e-15
1.01176e-15
1.03485e-15
1.08345e-15
1.17427e-15
1.34382e-15
1.65874e-15
2.26011e-15
3.50594e-15
6.24523e-15
1.2626e-14
2.81957e-14
6.77593e-14
1.66706e-13
4.21867e-13
1.00129e-12
2.86948e-12
5.01368e-12
1.28493e-11
1.41501e-11
1.49448e-11
1.78298e-11
8.39836e-06
4.42443e-06
7.87913e-06
1.19775e-05
1.33972e-05
1.53649e-05
1.96955e-05
2.74055e-05
4.13345e-05
6.5902e-05
0.000107805
0.000176109
0.000281313
0.000433377
0.000638361
0.000895422
0.00119549
0.00152089
0.00184638
0.00214602
0.00241165
0.00259599
0.00268991
0.00272367
0.00264668
0.00252741
0.00224132
0.00199072
0.0017567
0.00147166
0.00124471
0.00103111
0.000849464
0.000695594
0.000566101
0.000459685
0.000371547
0.000298241
0.000239909
0.000193871
0.000157241
0.000127905
0.000104481
8.55148e-05
7.00371e-05
5.73549e-05
4.69415e-05
3.83834e-05
3.13484e-05
2.55734e-05
2.0836e-05
1.69563e-05
1.37862e-05
1.12012e-05
9.09087e-06
7.3604e-06
5.94625e-06
4.79549e-06
3.86124e-06
3.10381e-06
2.49045e-06
1.99432e-06
1.59353e-06
1.27026e-06
1.00996e-06
8.00774e-07
6.33031e-07
4.98848e-07
3.91795e-07
3.06632e-07
2.39093e-07
1.85707e-07
1.43656e-07
1.10656e-07
8.48601e-08
6.47774e-08
4.92095e-08
3.71953e-08
2.79669e-08
2.09128e-08
1.55481e-08
1.14898e-08
8.43676e-09
6.15335e-09
4.45596e-09
3.20228e-09
2.28263e-09
1.61283e-09
1.12879e-09
7.81785e-10
5.35393e-10
3.61807e-10
2.4133e-10
1.5934e-10
1.04054e-10
6.71471e-11
4.27774e-11
2.68765e-11
1.66342e-11
1.01284e-11
6.05851e-12
3.55465e-12
2.04231e-12
1.14716e-12
6.28952e-13
3.3612e-13
1.74902e-13
8.85933e-14
4.37507e-14
2.11829e-14
1.02026e-14
5.04683e-15
2.71431e-15
1.69893e-15
1.27407e-15
1.10332e-15
1.03744e-15
1.01304e-15
1.00437e-15
1.00141e-15
1.00044e-15
1.00013e-15
1.00004e-15
1.00001e-15
1e-15
1e-15
1e-15
1e-15
1e-15
1e-15
1e-15
1e-15
1e-15
1e-15
1e-15
1e-15
1e-15
1e-15
1e-15
1e-15
1e-15
1e-15
1e-15
1e-15
1e-15
1e-15
1e-15
1e-15
1e-15
1e-15
1e-15
1e-15
1e-15
1e-15
1e-15
1e-15
1e-15
1e-15
1.00068e-15
1.00663e-15
1.02374e-15
1.06096e-15
1.14119e-15
1.27111e-15
1.53317e-15
2.00354e-15
2.95687e-15
4.9858e-15
9.54624e-15
2.0199e-14
4.61782e-14
1.07341e-13
2.55679e-13
5.62131e-13
1.58497e-12
2.50023e-12
3.52937e-12
4.20434e-12
4.66069e-12
6.0394e-12
9.82553e-06
5.13485e-06
8.7141e-06
1.28639e-05
1.47152e-05
1.8786e-05
2.76231e-05
4.49045e-05
7.8483e-05
0.000140516
0.000248533
0.000423983
0.000687926
0.0010541
0.00152247
0.00208163
0.00270343
0.00330867
0.00387619
0.00439532
0.00483028
0.00509165
0.00520109
0.00507012
0.00485658
0.00441193
0.0038471
0.00314182
0.00276931
0.00213319
0.001742
0.00136802
0.00107355
0.000839667
0.000656864
0.000512278
0.000400878
0.000313624
0.000246993
0.000197256
0.000158342
0.000127664
0.000103246
8.38029e-05
6.82525e-05
5.57268e-05
4.55646e-05
3.72737e-05
3.04815e-05
2.48974e-05
2.03093e-05
1.65384e-05
1.34352e-05
1.0884e-05
8.79593e-06
7.09537e-06
5.71447e-06
4.59517e-06
3.68925e-06
2.95705e-06
2.36603e-06
1.88962e-06
1.5061e-06
1.19782e-06
9.50402e-07
7.52185e-07
5.93692e-07
4.67231e-07
3.66567e-07
2.86643e-07
2.23365e-07
1.73416e-07
1.34116e-07
1.03302e-07
7.92292e-08
6.04958e-08
4.59768e-08
3.47721e-08
2.6164e-08
1.95817e-08
1.45733e-08
1.0782e-08
7.92752e-09
5.79054e-09
4.20015e-09
3.02406e-09
2.15998e-09
1.52976e-09
1.07331e-09
7.45659e-10
5.1212e-10
3.47669e-10
2.32496e-10
1.53933e-10
1.00824e-10
6.5274e-11
4.17309e-11
2.63201e-11
1.6359e-11
1.00079e-11
6.01796e-12
3.55167e-12
2.05412e-12
1.16243e-12
6.42727e-13
3.46794e-13
1.82435e-13
9.35503e-14
4.68231e-14
2.29845e-14
1.12038e-14
5.57445e-15
2.97809e-15
1.82408e-15
1.33046e-15
1.12747e-15
1.04728e-15
1.01686e-15
1.00578e-15
1.00191e-15
1.0006e-15
1.00018e-15
1.00005e-15
1.00002e-15
1e-15
1e-15
1e-15
1e-15
1e-15
1e-15
1e-15
1e-15
1e-15
1e-15
1e-15
1e-15
1e-15
1e-15
1e-15
1e-15
1e-15
1e-15
1e-15
1e-15
1e-15
1e-15
1e-15
1e-15
1e-15
1e-15
1e-15
1e-15
1e-15
1e-15
1e-15
1e-15
1e-15
1e-15
1.00002e-15
1.00209e-15
1.01193e-15
1.0379e-15
1.09116e-15
1.20265e-15
1.38288e-15
1.74616e-15
2.41646e-15
3.79353e-15
6.75022e-15
1.32885e-14
2.83092e-14
6.10925e-14
1.48198e-13
2.7414e-13
6.98167e-13
8.49064e-13
8.84774e-13
9.8303e-13
1.11078e-12
1.56832e-12
1.11806e-05
5.61529e-06
9.35042e-06
1.42873e-05
1.72679e-05
2.58439e-05
4.51037e-05
8.56862e-05
0.000167257
0.000319003
0.000578887
0.000987037
0.00157686
0.00237146
0.00339179
0.00437503
0.0054348
0.0066022
0.00777269
0.00886339
0.00956912
0.00996582
0.0101286
0.00956897
0.00882177
0.00778212
0.00641034
0.00527149
0.00431754
0.00319918
0.00244944
0.00180944
0.00133578
0.00098649
0.000735629
0.000550119
0.000413511
0.000317592
0.00024563
0.000188951
0.000145825
0.000113353
8.87782e-05
7.03785e-05
5.65094e-05
4.58934e-05
3.759e-05
3.09382e-05
2.55485e-05
2.11238e-05
1.74428e-05
1.43636e-05
1.1791e-05
9.65017e-06
7.87402e-06
6.40418e-06
5.19189e-06
4.19595e-06
3.38107e-06
2.71686e-06
2.17734e-06
1.74049e-06
1.38779e-06
1.10376e-06
8.75615e-07
6.92786e-07
5.46621e-07
4.3005e-07
3.37312e-07
2.63727e-07
2.05501e-07
1.59562e-07
1.23432e-07
9.51085e-08
7.29835e-08
5.57642e-08
4.24152e-08
3.21091e-08
2.41868e-08
1.81244e-08
1.35074e-08
1.00088e-08
7.37153e-09
5.39448e-09
3.92093e-09
2.82939e-09
2.02598e-09
1.43877e-09
1.01258e-09
7.05832e-10
4.86633e-10
3.31812e-10
2.22936e-10
1.48096e-10
9.73596e-11
6.32873e-11
4.06402e-11
2.57555e-11
1.60916e-11
9.9007e-12
5.99169e-12
3.56147e-12
2.07616e-12
1.18534e-12
6.62043e-13
3.61449e-13
1.92832e-13
1.00553e-13
5.13224e-14
2.57405e-14
1.28095e-14
6.46215e-15
3.44302e-15
2.05461e-15
1.43868e-15
1.17559e-15
1.06757e-15
1.02499e-15
1.00888e-15
1.00303e-15
1.00099e-15
1.00031e-15
1.00009e-15
1.00003e-15
1.00001e-15
1e-15
1e-15
1e-15
1e-15
1e-15
1e-15
1e-15
1e-15
1e-15
1e-15
1e-15
1e-15
1e-15
1e-15
1e-15
1e-15
1e-15
1e-15
1e-15
1e-15
1e-15
1e-15
1e-15
1e-15
1e-15
1e-15
1e-15
1e-15
1e-15
1e-15
1e-15
1e-15
1e-15
1e-15
1.00004e-15
1.0028e-15
1.01524e-15
1.04692e-15
1.11849e-15
1.23871e-15
1.48253e-15
1.91773e-15
2.73773e-15
4.39872e-15
7.7926e-15
1.48822e-14
3.04132e-14
5.57465e-14
1.09451e-13
1.41093e-13
1.72629e-13
1.87343e-13
2.13891e-13
2.37081e-13
3.41518e-13
1.25342e-05
6.35265e-06
1.01547e-05
1.61003e-05
2.2258e-05
4.0183e-05
8.203e-05
0.000173173
0.00035687
0.00069325
0.00125454
0.00212514
0.00342847
0.00502818
0.00644173
0.00841059
0.0106618
0.0132048
0.0158163
0.0182431
0.0197299
0.0203143
0.0200105
0.0183102
0.015658
0.0124357
0.010077
0.008519
0.00624697
0.00492359
0.00346713
0.00244967
0.00169914
0.00118017
0.000821726
0.000582931
0.000417517
0.000300326
0.000219314
0.000163198
0.000121665
9.11662e-05
6.89833e-05
5.25683e-05
4.0415e-05
3.14651e-05
2.49094e-05
2.01396e-05
1.66183e-05
1.39376e-05
1.18207e-05
1.00757e-05
8.57208e-06
7.24244e-06
6.08627e-06
5.08504e-06
4.22135e-06
3.48158e-06
2.85386e-06
2.32628e-06
1.88646e-06
1.52253e-06
1.2234e-06
9.79032e-07
7.80471e-07
6.199e-07
4.90613e-07
3.8693e-07
3.04091e-07
2.38145e-07
1.85829e-07
1.44472e-07
1.11891e-07
8.63159e-08
6.63139e-08
5.07296e-08
3.86353e-08
2.92877e-08
2.20939e-08
1.65824e-08
1.23795e-08
9.19018e-09
6.78232e-09
4.97421e-09
3.62414e-09