/*--------------------------------*- C++ -*----------------------------------*\
| =========                 |                                                 |
| \\      /  F ield         | OpenFOAM: The Open Source CFD Toolbox           |
|  \\    /   O peration     | Version:  2112                                  |
|   \\  /    A nd           | Website:  www.openfoam.com                      |
|    \\/     M anipulation  |                                                 |
\*---------------------------------------------------------------------------*/
FoamFile
{
    version     2.0;
    format      ascii;
    arch        "LSB;label=32;scalar=64";
    class       volScalarField;
    location    "0.32";
    object      k;
}
// * * * * * * * * * * * * * * * * * * * * * * * * * * * * * * * * * * * * * //

dimensions      [0 2 -2 0 0 0 0];

internalField   nonuniform List<scalar> 
12225
(
1.36883
2.18718
2.86063
3.48989
4.14321
4.85953
5.66224
6.56818
7.59018
8.73691
10.012
11.4136
12.9345
14.5637
16.287
18.0964
19.9505
21.7407
0.415438
0.4856
0.569536
0.667201
0.778877
0.905616
1.04808
1.20545
1.37518
1.55362
1.73706
1.92268
2.1093
2.29802
2.49195
2.6985
2.95703
3.29709
0.377961
0.385497
0.396021
0.406113
0.415807
0.425989
0.437571
0.451266
0.467403
0.486151
0.50774
0.532585
0.561295
0.594648
0.633419
0.678727
0.731959
0.789247
0.375389
0.376307
0.377918
0.380021
0.382496
0.385189
0.387914
0.390045
0.391452
0.392161
0.392309
0.3921
0.391794
0.391687
0.39208
0.393258
0.395423
0.398187
0.375081
0.375241
0.375545
0.375979
0.376557
0.377262
0.378056
0.378848
0.379565
0.380149
0.380487
0.38056
0.380391
0.380022
0.379506
0.378906
0.378302
0.377706
0.374934
0.374913
0.374954
0.37506
0.375242
0.375491
0.375787
0.376107
0.376429
0.376733
0.376992
0.377192
0.37733
0.377401
0.377438
0.37748
0.377546
0.377647
0.37481
0.374668
0.374602
0.37461
0.374689
0.374814
0.374969
0.375143
0.375323
0.375499
0.375665
0.375816
0.375953
0.376082
0.376213
0.376362
0.376539
0.376742
0.374721
0.374487
0.374335
0.374267
0.374284
0.374352
0.374446
0.374557
0.374676
0.374795
0.374913
0.375027
0.375142
0.375263
0.375397
0.375551
0.375731
0.375931
0.374656
0.374359
0.374138
0.374
0.373948
0.373963
0.374014
0.37408
0.374156
0.374237
0.37432
0.374406
0.374496
0.374596
0.374711
0.374843
0.374995
0.375161
0.374609
0.374265
0.373992
0.373797
0.373681
0.373634
0.373634
0.373663
0.373704
0.373752
0.373803
0.373859
0.373923
0.373997
0.374085
0.374188
0.374305
0.374433
0.374574
0.374193
0.373881
0.373639
0.373468
0.373363
0.373308
0.373286
0.373287
0.373301
0.373326
0.373358
0.373398
0.373446
0.373506
0.373578
0.373662
0.373752
0.374549
0.374143
0.373801
0.373524
0.373312
0.373159
0.373056
0.372989
0.372948
0.372926
0.372919
0.372924
0.372941
0.37297
0.373008
0.373054
0.373109
0.373168
0.374531
0.374102
0.373735
0.37343
0.373183
0.372991
0.372845
0.372735
0.372654
0.372594
0.372553
0.372527
0.372516
0.372519
0.372535
0.372561
0.372592
0.372625
0.374514
0.374067
0.373676
0.373343
0.373065
0.372836
0.37265
0.372499
0.372376
0.372275
0.372194
0.372131
0.372083
0.372051
0.372032
0.372024
0.372024
0.372028
0.374501
0.374037
0.373625
0.373267
0.37296
0.372698
0.372476
0.372287
0.372124
0.371984
0.371863
0.371759
0.37167
0.371596
0.371533
0.371481
0.371437
0.371397
0.374491
0.374013
0.373584
0.373205
0.372872
0.372582
0.372328
0.372104
0.371907
0.37173
0.371572
0.371429
0.371299
0.371181
0.371074
0.370975
0.370883
0.370798
0.374484
0.373997
0.373555
0.373159
0.372806
0.372491
0.372211
0.371959
0.371731
0.371522
0.37133
0.371152
0.370985
0.370828
0.37068
0.370539
0.370405
0.370277
0.374481
0.37399
0.373539
0.373132
0.372764
0.372432
0.372132
0.371857
0.371604
0.371369
0.371148
0.37094
0.370741
0.370552
0.370369
0.370194
0.370024
0.369861
0.374484
0.373993
0.373542
0.37313
0.372756
0.372415
0.372102
0.371814
0.371544
0.371291
0.37105
0.370819
0.370597
0.370382
0.370173
0.369971
0.369774
0.369583
0.374491
0.374008
0.373563
0.373156
0.372785
0.372445
0.372133
0.371843
0.37157
0.371311
0.371063
0.370824
0.370591
0.370364
0.370143
0.369926
0.369714
0.369508
0.374502
0.374029
0.373595
0.373198
0.372836
0.372504
0.372199
0.371916
0.37165
0.371396
0.371152
0.370915
0.370684
0.370457
0.370234
0.370014
0.369798
0.369588
0.374517
0.37406
0.37364
0.373256
0.372907
0.37259
0.372299
0.372031
0.37178
0.371542
0.371313
0.37109
0.370872
0.370657
0.370444
0.370233
0.370023
0.369818
0.374539
0.374101
0.3737
0.373334
0.373004
0.372708
0.372442
0.3722
0.371977
0.371768
0.371569
0.371377
0.371187
0.370999
0.37081
0.370621
0.370432
0.370244
0.374569
0.374159
0.373782
0.373441
0.373141
0.372881
0.372657
0.37246
0.372284
0.372126
0.371977
0.371833
0.371692
0.371549
0.371404
0.371255
0.371102
0.370946
0.374616
0.374249
0.373915
0.373618
0.373367
0.373164
0.373003
0.372878
0.372784
0.372714
0.372661
0.372619
0.372582
0.372545
0.372503
0.372452
0.372393
0.372324
0.374687
0.374382
0.374138
0.373967
0.373874
0.373855
0.373899
0.373997
0.374141
0.374323
0.374534
0.374763
0.374991
0.375201
0.375378
0.375514
0.375602
0.375635
0.374812
0.374674
0.374834
0.375331
0.376075
0.376969
0.37796
0.379008
0.380079
0.381141
0.382168
0.383131
0.383911
0.384446
0.384743
0.384822
0.384712
0.384456
0.375779
0.378263
0.381976
0.386561
0.391755
0.396106
0.39979
0.403122
0.406442
0.410047
0.414156
0.418911
0.424392
0.430628
0.437619
0.445376
0.453928
0.463382
0.39033
0.418948
0.455032
0.497684
0.546136
0.599966
0.659338
0.724611
0.795951
0.873215
0.955944
1.0434
1.13466
1.22868
1.3244
1.42089
1.51755
1.61407
1.02818
1.58816
2.04555
2.4503
2.83925
3.22143
3.61385
4.0273
4.46811
4.94008
5.44561
5.98631
6.56317
7.17649
7.82589
8.51033
9.22763
9.97501
0.0660087
0.0665136
0.0679175
0.0702821
0.0739624
0.0793845
0.087188
0.0983141
0.1142
0.137134
0.170197
0.215603
0.274376
0.34616
0.429556
0.522618
0.623225
0.729349
0.83922
0.95142
1.06492
1.17906
1.29353
1.40828
1.52349
1.63951
1.75677
1.87576
1.99699
2.12091
2.24797
2.37853
2.51291
2.65137
2.79409
2.94124
3.09291
3.24916
3.41003
3.5755
3.74555
3.92011
4.09911
4.28244
4.46997
4.66156
4.85704
5.0562
5.25884
5.46472
5.67359
5.88517
6.09916
6.31524
6.53309
6.75234
6.97265
7.19363
7.4149
7.63607
7.85673
8.07648
8.29493
8.51166
8.7263
8.93845
9.14774
9.35379
9.55628
9.75486
9.94923
10.1391
10.3242
10.5043
10.6793
10.8488
11.0129
11.1713
11.324
11.471
11.6122
11.7476
11.8773
12.0013
12.1197
12.2326
12.34
12.442
12.5388
12.6303
12.7167
12.7982
12.8747
12.9464
13.0135
13.0761
13.1342
13.1882
13.238
13.2839
13.3259
13.3642
13.3989
13.4301
13.4577
13.482
13.5027
13.52
13.5338
13.5441
13.5506
13.5534
13.5522
13.5468
13.5372
13.5228
13.5036
13.4793
13.4497
13.4148
13.3753
13.3309
13.2815
13.2269
13.1671
13.1018
13.0311
12.9548
12.8728
12.785
12.6915
12.592
12.4867
12.3755
12.2583
12.1353
12.0065
11.8719
11.7318
11.5862
11.4354
11.2794
11.1186
10.9531
10.783
10.6085
10.4297
10.2464
10.0586
9.8662
9.66912
9.46728
9.26067
9.04929
8.8331
8.61208
8.38619
8.15536
7.91953
7.67866
7.43267
7.1815
6.92508
6.66339
6.39647
6.12442
5.84743
5.56581
5.28003
4.99077
4.69896
4.40583
4.11303
3.82286
3.53888
3.27481
3.01425
2.89385
2.94363
3.15343
0.0688346
0.0682076
0.0688178
0.0703528
0.0729332
0.0767885
0.0823893
0.0905422
0.102584
0.120517
0.146751
0.183248
0.230815
0.288902
0.355946
0.429906
0.508686
0.590395
0.673458
0.756669
0.839179
0.920474
1.00033
1.07875
1.15593
1.23217
1.30785
1.38338
1.45914
1.5355
1.61275
1.69115
1.77087
1.85206
1.93478
2.01908
2.10494
2.19233
2.28118
2.37142
2.46293
2.55561
2.64933
2.74394
2.83931
2.93527
3.03165
3.12829
3.22502
3.32165
3.41799
3.51386
3.60906
3.7034
3.7967
3.88876
3.97939
4.06841
4.15566
4.24095
4.32412
4.40503
4.48353
4.5595
4.6328
4.70334
4.77102
4.83577
4.8975
4.95618
5.01174
5.06418
5.11347
5.15959
5.20257
5.2424
5.2791
5.3127
5.34322
5.3707
5.39518
5.4167
5.43532
5.4511
5.46414
5.47454
5.48245
5.48801
5.49143
5.49289
5.49261
5.49078
5.48763
5.48334
5.47809
5.47204
5.46532
5.45805
5.45033
5.44223
5.43381
5.4251
5.41614
5.40693
5.3975
5.38785
5.37797
5.36787
5.35757
5.34705
5.33633
5.32543
5.31436
5.30313
5.29178
5.28032
5.26883
5.25733
5.2462
5.23551
5.22468
5.21371
5.20256
5.19124
5.17974
5.16804
5.15612
5.14394
5.13148
5.11867
5.10547
5.09181
5.07761
5.06276
5.04718
5.03073
5.01328
4.9947
4.97482
4.95351
4.93062
4.90603
4.87965
4.85147
4.82156
4.79009
4.75734
4.72369
4.68953
4.65526
4.62116
4.5874
4.55406
4.52113
4.48854
4.4562
4.42398
4.39171
4.35919
4.32618
4.29236
4.25739
4.22085
4.18227
4.14109
4.09671
4.04844
3.99555
3.93724
3.87268
3.80097
3.72123
3.63251
3.5339
3.42487
3.31078
3.20263
3.15966
3.19934
3.31968
0.0750348
0.0718176
0.0712278
0.0720716
0.0741056
0.0773427
0.0821433
0.0892488
0.0999159
0.115962
0.139454
0.171998
0.214089
0.26498
0.323044
0.386291
0.452757
0.520737
0.588866
0.656143
0.721906
0.785788
0.84767
0.907623
0.965862
1.02269
1.07845
1.1335
1.18817
1.24276
1.29751
1.3526
1.40817
1.4643
1.52102
1.57832
1.63619
1.69455
1.75335
1.81247
1.87183
1.93131
1.99079
2.05016
2.10927
2.16801
2.22625
2.28385
2.34068
2.39661
2.45151
2.50525
2.55772
2.60879
2.65834
2.70628
2.75249
2.7969
2.83941
2.87995
2.91845
2.95487
2.98915
3.02126
3.05118
3.07889
3.10439
3.12768
3.14878
3.16771
3.18449
3.19917
3.21178
3.22237
3.23099
3.23771
3.24258
3.24566
3.24703
3.24677
3.24496
3.24169
3.23709
3.23126
3.22436
3.21654
3.20797
3.19882
3.18927
3.17952
3.16972
3.16005
3.15065
3.14165
3.13315
3.12525
3.11802
3.1115
3.10573
3.10073
3.0965
3.09306
3.09038
3.08847
3.0873
3.08686
3.08713
3.08811
3.0898
3.09217
3.09525
3.09902
3.10352
3.10874
3.11473
3.12152
3.12924
3.13827
3.14819
3.15883
3.17012
3.18207
3.19466
3.2079
3.22176
3.23622
3.25125
3.26679
3.28281
3.29924
3.31603
3.3331
3.35036
3.36773
3.38512
3.40242
3.41953
3.43634
3.45276
3.4687
3.48409
3.4989
3.51313
3.52682
3.54007
3.55305
3.56595
3.579
3.59241
3.60635
3.62092
3.63617
3.65206
3.66855
3.68555
3.70294
3.72059
3.73835
3.75606
3.77348
3.79039
3.80649
3.82148
3.83499
3.84661
3.85585
3.8622
3.8651
3.86393
3.85805
3.84677
3.82951
3.8058
3.77543
3.73832
3.69707
3.65786
3.64976
3.67839
3.74022
0.0825793
0.0763569
0.0743959
0.0744805
0.0760585
0.0789466
0.0834187
0.0901928
0.100501
0.116049
0.138639
0.169518
0.208837
0.255636
0.308232
0.364704
0.423242
0.482324
0.540786
0.597815
0.652912
0.705845
0.756592
0.805289
0.852178
0.897561
0.941766
0.985112
1.02789
1.07034
1.11266
1.155
1.19745
1.24006
1.28284
1.32577
1.36881
1.41191
1.45498
1.49793
1.54069
1.58314
1.6252
1.66675
1.70769
1.74794
1.78738
1.82591
1.86346
1.89992
1.93522
1.96928
2.00202
2.03339
2.06331
2.09176
2.11868
2.14405
2.16784
2.19006
2.2107
2.22976
2.24727
2.26325
2.27773
2.29077
2.3024
2.31268
2.32168
2.32946
2.33609
2.34164
2.3462
2.34983
2.35263
2.35468
2.35606
2.35687
2.35719
2.35711
2.35674
2.35617
2.35551
2.35485
2.35431
2.35399
2.35399
2.35441
2.35532
2.35682
2.35897
2.36181
2.36541
2.36978
2.37495
2.38093
2.38771
2.39531
2.40369
2.41286
2.42279
2.43347
2.44487
2.457
2.46983
2.48336
2.49758
2.51249
2.52808
2.54438
2.56138
2.5791
2.59757
2.61681
2.63687
2.65777
2.67947
2.70187
2.7249
2.74854
2.77278
2.79763
2.82306
2.84906
2.87562
2.9027
2.93029
2.95834
2.98683
3.01573
3.04498
3.07456
3.10441
3.1345
3.16477
3.19518
3.22569
3.25627
3.28687
3.31749
3.3481
3.37874
3.40941
3.44016
3.47106
3.50217
3.53356
3.56531
3.59747
3.63007
3.66311
3.69656
3.73039
3.76451
3.79884
3.83331
3.8678
3.9022
3.93639
3.97021
4.0035
4.03608
4.06773
4.09823
4.12733
4.15472
4.18006
4.20303
4.22328
4.24042
4.25398
4.26378
4.26984
4.27211
4.27016
4.2634
4.25489
4.25891
4.27841
4.30609
0.091657
0.0816641
0.0782014
0.0774987
0.0786578
0.0813256
0.0857046
0.0925026
0.102934
0.118596
0.141048
0.171204
0.208918
0.253063
0.301935
0.353701
0.406691
0.45955
0.511276
0.561211
0.608987
0.654479
0.697742
0.738961
0.778401
0.816365
0.853165
0.889092
0.924401
0.959301
0.993954
1.02847
1.06292
1.09733
1.13171
1.16602
1.20023
1.23427
1.26808
1.30158
1.33471
1.36737
1.39949
1.431
1.46182
1.49189
1.52114
1.54951
1.57695
1.60342
1.62889
1.65331
1.67668
1.69898
1.7202
1.74037
1.75949
1.77759
1.79471
1.8109
1.82621
1.84069
1.8544
1.86743
1.87984
1.89172
1.90312
1.91415
1.92487
1.93537
1.94571
1.95599
1.96626
1.9766
1.98706
1.99772
2.00861
2.01979
2.03131
2.04321
2.05551
2.06826
2.08147
2.09517
2.10937
2.12409
2.13934
2.15511
2.17141
2.18823
2.20556
2.22339
2.2417
2.26048
2.27971
2.29938
2.31946
2.33995
2.36083
2.38209
2.40374
2.42576
2.44819
2.47101
2.49425
2.51793
2.54207
2.56669
2.59183
2.61751
2.64376
2.67063
2.69816
2.72622
2.75478
2.78388
2.81354
2.84372
2.87442
2.90563
2.93735
2.96959
3.00232
3.03555
3.06925
3.10342
3.13804
3.17308
3.20855
3.24441
3.28065
3.31726
3.35421
3.39148
3.42905
3.46691
3.50505
3.54345
3.5821
3.62099
3.66013
3.69952
3.73918
3.77911
3.81933
3.85986
3.90071
3.94186
3.98333
4.02508
4.06708
4.1093
4.15168
4.19416
4.23666
4.27909
4.32139
4.36345
4.40517
4.44644
4.48713
4.5271
4.56618
4.60423
4.64108
4.67654
4.71023
4.742
4.77166
4.79898
4.82333
4.8449
4.86417
4.88045
4.89344
4.90105
4.90399
4.91082
4.92342
4.93244
0.101997
0.0875387
0.0824156
0.0808813
0.0816255
0.0841285
0.0885295
0.0955293
0.106321
0.122389
0.145055
0.174923
0.211591
0.253807
0.299878
0.348064
0.396835
0.444982
0.491649
0.536302
0.57868
0.61874
0.656596
0.692467
0.726634
0.759399
0.791059
0.821881
0.852094
0.88188
0.911372
0.940663
0.969804
0.998815
1.02769
1.05641
1.08492
1.1132
1.14117
1.16879
1.196
1.22275
1.24899
1.27468
1.29978
1.32426
1.34809
1.37127
1.39378
1.41563
1.43684
1.45741
1.47739
1.49682
1.51573
1.5342
1.55228
1.57005
1.58758
1.60496
1.62226
1.63958
1.657
1.6746
1.69245
1.71064
1.72923
1.7483
1.76788
1.78804
1.80882
1.83024
1.85233
1.87511
1.89857
1.92271
1.94751
1.97297
1.99904
2.02569
2.05288
2.08057
2.10871
2.13725
2.16614
2.19533
2.22479
2.25445
2.28429
2.31427
2.34434
2.37448
2.40467
2.43489
2.46512
2.49534
2.52556
2.55577
2.58598
2.61621
2.64647
2.67679
2.70722
2.73778
2.76852
2.7995
2.83075
2.86234
2.89432
2.92674
2.95966
2.993
3.02657
3.0605
3.09488
3.12972
3.16503
3.20081
3.23707
3.2738
3.31101
3.3487
3.38687
3.42551
3.4646
3.50415
3.54415
3.58458
3.62543
3.6667
3.70838
3.75045
3.7929
3.83572
3.87891
3.92244
3.96631
4.01051
4.05503
4.09985
4.14497
4.19039
4.23608
4.28205
4.32828
4.37476
4.42147
4.46839
4.51548
4.5627
4.61002
4.65738
4.70471
4.75197
4.79907
4.84595
4.8925
4.93864
4.98428
5.02933
5.07369
5.11717
5.15962
5.20095
5.24104
5.27988
5.31669
5.35156
5.38445
5.41539
5.44301
5.46798
5.49059
5.51084
5.52797
5.5397
5.54572
5.55167
5.55855
5.55703
0.113673
0.0939334
0.0869728
0.0845581
0.084881
0.0872433
0.0917205
0.0990011
0.110245
0.126813
0.149791
0.17951
0.215348
0.25597
0.299729
0.344986
0.39033
0.434689
0.477332
0.517829
0.556006
0.591881
0.625612
0.657442
0.68766
0.716563
0.744434
0.771522
0.798034
0.824133
0.849936
0.875521
0.900933
0.92619
0.95129
0.976216
1.00094
1.02544
1.04968
1.07363
1.09726
1.12055
1.14349
1.16606
1.18828
1.21015
1.23169
1.25294
1.27393
1.2947
1.31532
1.33586
1.35637
1.37695
1.39767
1.41863
1.43991
1.46162
1.48383
1.50666
1.53017
1.55446
1.57959
1.60563
1.63262
1.66062
1.68966
1.71976
1.75093
1.78317
1.81646
1.85078
1.8861
1.92237
1.95953
1.99752
2.03626
2.07567
2.11567
2.15617
2.19707
2.23828
2.27971
2.32128
2.36291
2.40451
2.44602
2.48737
2.52851
2.5694
2.61
2.65028
2.69022
2.72981
2.76904
2.80792
2.84645
2.88465
2.92253
2.96014
2.99751
3.03469
3.07175
3.10873
3.14572
3.18278
3.21998
3.25741
3.29512
3.33322
3.37133
3.40953
3.44802
3.48688
3.52614
3.56584
3.60597
3.64656
3.68759
3.72909
3.77105
3.81347
3.85635
3.89969
3.94348
3.98771
4.03238
4.07748
4.12299
4.16891
4.21523
4.26193
4.309
4.35643
4.40419
4.45229
4.5007
4.54941
4.5984
4.64765
4.69715
4.74687
4.79679
4.84689
4.89714
4.94751
4.99797
5.0485
5.09905
5.14955
5.19997
5.25023
5.30027
5.35004
5.39947
5.44846
5.49689
5.54467
5.59174
5.63802
5.68353
5.72783
5.77078
5.81237
5.85253
5.89182
5.92822
5.96242
5.99432
6.02379
6.05039
6.07427
6.09561
6.1145
6.13023
6.14096
6.14599
6.14913
6.15051
6.14193
0.126676
0.100782
0.0917876
0.0884386
0.0883246
0.0905498
0.0951202
0.102701
0.114401
0.131446
0.154697
0.18424
0.219297
0.258482
0.300188
0.342884
0.385287
0.426446
0.465734
0.502811
0.53757
0.570078
0.600523
0.629162
0.656288
0.682191
0.707141
0.731372
0.755078
0.778405
0.801464
0.824328
0.847043
0.869632
0.892103
0.914455
0.936683
0.958777
0.980734
1.00255
1.02423
1.04579
1.06725
1.08863
1.10998
1.13135
1.1528
1.17439
1.19621
1.21833
1.24084
1.26385
1.28743
1.3117
1.33674
1.36267
1.38958
1.41755
1.44668
1.47705
1.50872
1.54174
1.57616
1.61201
1.6493
1.68803
1.7282
1.76978
1.81274
1.85704
1.90261
1.94939
1.99729
2.04624
2.09613
2.14685
2.1983
2.25036
2.3029
2.3558
2.40894
2.46219
2.51544
2.56858
2.62151
2.67413
2.72635
2.77811
2.82934
2.87998
2.93
2.97937
3.02808
3.07612
3.12349
3.1702
3.21627
3.26172
3.30659
3.35093
3.3948
3.43826
3.4814
3.52429
3.56702
3.60967
3.65234
3.69518
3.73789
3.7803
3.82278
3.86545
3.90841
3.95171
3.99538
4.03945
4.08393
4.12883
4.17416
4.21992
4.26612
4.31275
4.35981
4.40729
4.4552
4.50351
4.55223
4.60134
4.65081
4.70065
4.75083
4.80134
4.85216
4.90326
4.95463
5.00624
5.05807
5.11012
5.16235
5.21473
5.26724
5.31985
5.37252
5.42522
5.47791
5.53055
5.58312
5.63559
5.68788
5.73991
5.79163
5.84297
5.89388
5.94428
5.99421
6.04346
6.09176
6.13914
6.18553
6.23088
6.27564
6.31861
6.35974
6.3992
6.43689
6.47278
6.50627
6.53735
6.56587
6.59167
6.6146
6.63467
6.65197
6.66658
6.67793
6.68474
6.68626
6.68506
6.6805
6.66592
0.14109
0.108064
0.096818
0.0924732
0.0918954
0.0939668
0.0986159
0.10647
0.118571
0.135998
0.159402
0.188663
0.222883
0.260657
0.300439
0.340798
0.380574
0.418924
0.455313
0.489476
0.521358
0.551064
0.578802
0.604839
0.629464
0.652961
0.675588
0.697569
0.719087
0.740282
0.761263
0.782105
0.802861
0.823566
0.844245
0.864916
0.885596
0.906303
0.927058
0.947892
0.968837
0.98994
1.01125
1.03284
1.05477
1.07712
1.1
1.12349
1.14769
1.17272
1.19866
1.22564
1.25375
1.28308
1.31375
1.34583
1.37942
1.41459
1.45142
1.48994
1.53021
1.57226
1.61608
1.66167
1.70902
1.75809
1.80884
1.86122
1.91516
1.9706
2.02745
2.08561
2.14497
2.20543
2.26687
2.32915
2.39214
2.4557
2.51968
2.58393
2.64831
2.71267
2.77687
2.84078
2.90428
2.96725
3.0296
3.09123
3.15206
3.21203
3.27108
3.32918
3.38631
3.44246
3.49765
3.55188
3.60518
3.65758
3.70915
3.75993
3.81002
3.85951
3.90849
3.95705
4.00528
4.05333
4.10105
4.14807
4.19474
4.2413
4.28793
4.33474
4.38178
4.42912
4.47678
4.52481
4.5732
4.62197
4.67113
4.72067
4.7706
4.82091
4.87159
4.92264
4.97404
5.0258
5.07788
5.13029
5.18299
5.23596
5.28919
5.34265
5.39632
5.45016
5.50415
5.55825
5.61245
5.66672
5.72105
5.77539
5.82967
5.88387
5.93797
5.99191
6.04565
6.09914
6.15237
6.20537
6.25796
6.30995
6.36137
6.41217
6.46227
6.51162
6.56049
6.6085
6.65488
6.70002
6.74386
6.78633
6.8274
6.86672
6.90413
6.93959
6.97296
7.00411
7.03279
7.05883
7.0821
7.10246
7.1198
7.13411
7.14546
7.15387
7.15893
7.15982
7.15583
7.14883
7.13746
7.11672
0.156993
0.115766
0.102026
0.0966161
0.095537
0.09742
0.102106
0.110172
0.122574
0.140243
0.163633
0.192458
0.225733
0.262061
0.299967
0.338125
0.375483
0.411296
0.445112
0.476726
0.506126
0.533444
0.5589
0.582765
0.605323
0.626851
0.647599
0.66778
0.687573
0.707119
0.726526
0.745879
0.765243
0.784671
0.804205
0.823886
0.843755
0.863855
0.884237
0.904954
0.92607
0.947654
0.969786
0.992553
1.01605
1.04038
1.06566
1.092
1.11951
1.14831
1.1785
1.21019
1.24346
1.2784
1.3151
1.35364
1.39408
1.43648
1.48089
1.52735
1.57587
1.62645
1.67907
1.73371
1.79031
1.84884
1.90923
1.97141
2.03531
2.10085
2.16791
2.2364
2.30619
2.37716
2.44918
2.5221
2.59578
2.67005
2.74475
2.81971
2.89474
2.96969
3.04439
3.11869
3.19245
3.26552
3.3378
3.40916
3.47951
3.54874
3.61678
3.68359
3.74911
3.81335
3.8763
3.93797
3.9984
4.05764
4.11575
4.17282
4.22897
4.28434
4.33904
4.3932
4.44675
4.49917
4.55062
4.60152
4.65212
4.70258
4.75307
4.80366
4.85443
4.90542
4.95668
5.00824
5.06011
5.1123
5.16481
5.21763
5.27077
5.32421
5.37794
5.43195
5.48622
5.54074
5.59551
5.65051
5.70567
5.76098
5.81642
5.87197
5.92759
5.98324
6.03888
6.09449
6.15002
6.20546
6.26084
6.31609
6.37097
6.42556
6.47983
6.53372
6.5872
6.6402
6.6927
6.745
6.79668
6.84716
6.89676
6.94546
6.99317
7.03981
7.08537
7.12967
7.17245
7.21371
7.25336
7.29131
7.32744
7.36158
7.39359
7.42335
7.45074
7.47562
7.4978
7.51713
7.53348
7.54674
7.55682
7.56373
7.56749
7.56812
7.56531
7.5586
7.54736
7.53304
7.51376
7.48603
0.174479
0.123883
0.107382
0.100829
0.0992005
0.100844
0.105503
0.11369
0.126263
0.144003
0.167189
0.195398
0.227592
0.262405
0.29844
0.334475
0.369559
0.403037
0.434525
0.463869
0.491092
0.516343
0.539848
0.561878
0.582712
0.602617
0.621836
0.640578
0.659018
0.6773
0.695542
0.713838
0.73227
0.750907
0.769816
0.789056
0.808693
0.828793
0.849429
0.870678
0.892624
0.915355
0.938966
0.963559
0.989245
1.01614
1.04437
1.07405
1.10531
1.13825
1.17298
1.20957
1.2481
1.28865
1.33128
1.37606
1.42303
1.47224
1.52372
1.5775
1.63358
1.69195
1.75257
1.8154
1.88037
1.94743
2.01653
2.08759
2.16054
2.23528
2.31171
2.38972
2.46916
2.54992
2.63184
2.71477
2.79856
2.88303
2.96799
3.05325
3.1386
3.22384
3.30879
3.39328
3.47714
3.56022
3.64237
3.72346
3.80336
3.88194
3.95909
4.03474
4.1088
4.18124
4.25205
4.32124
4.38883
4.45487
4.51948
4.58275
4.64487
4.70607
4.76646
4.82535
4.88262
4.93876
4.99403
5.0487
5.10299
5.15707
5.21109
5.26514
5.31928
5.37357
5.42803
5.48271
5.53761
5.59275
5.64812
5.70372
5.75953
5.81553
5.87172
5.92807
5.98456
6.04118
6.09794
6.15488
6.21176
6.26859
6.32539
6.38214
6.43878
6.49528
6.5516
6.60769
6.6635
6.71903
6.77449
6.82976
6.88408
6.93782
6.991
7.04356
7.09543
7.14656
7.1969
7.24644
7.29504
7.34249
7.38879
7.43388
7.47768
7.52009
7.56102
7.60035
7.63795
7.67373
7.70756
7.73937
7.76902
7.79639
7.82134
7.84375
7.86349
7.88044
7.89446
7.90541
7.91318
7.91768
7.91886
7.91673
7.91131
7.90263
7.89046
7.87458
7.85445
7.83128
7.80282
7.76694
0.193643
0.132417
0.112864
0.105077
0.102839
0.104176
0.108725
0.11692
0.129515
0.147138
0.169915
0.197319
0.228285
0.261495
0.295639
0.329597
0.362512
0.39381
0.423167
0.45047
0.475766
0.499216
0.521048
0.541528
0.560927
0.579504
0.597496
0.615108
0.632516
0.649869
0.667293
0.684899
0.702787
0.721044
0.739757
0.759005
0.778872
0.799445
0.820815
0.843076
0.866325
0.890659
0.916179
0.942992
0.971217
1.00098
1.0324
1.06561
1.10073
1.13787
1.17711
1.21852
1.26214
1.30804
1.35628
1.4069
1.45994
1.51543
1.57341
1.63388
1.69686
1.76233
1.83024
1.90054
1.97315
2.04805
2.12517
2.20446
2.28584
2.36921
2.45448
2.5415
2.63015
2.72028
2.81172
2.90431
2.99787
3.09223
3.18718
3.28248
3.3779
3.47321
3.5682
3.66267
3.75644
3.84935
3.94124
4.03195
4.12134
4.20926
4.29559
4.38017
4.46289
4.54367
4.62249
4.69933
4.77417
4.84712
4.91826
4.98779
5.05592
5.1221
5.18619
5.24868
5.30973
5.36957
5.42845
5.48662
5.5443
5.60168
5.65891
5.71613
5.77334
5.83054
5.8878
5.94517
6.00265
6.06026
6.11798
6.1758
6.2337
6.29166
6.34967
6.40769
6.4657
6.52367
6.58165
6.64003
6.69786
6.75535
6.81259
6.86957
6.92625
6.98257
7.03849
7.09396
7.14892
7.20333
7.25719
7.31044
7.36286
7.41446
7.46522
7.51508
7.56398
7.61183
7.65858
7.70415
7.74845
7.79137
7.83283
7.87276
7.91105
7.94762
7.98236
8.01518
8.04594
8.07453
8.10085
8.1248
8.14626
8.16512
8.18126
8.19455
8.20488
8.21216
8.21626
8.21708
8.21453
8.20855
8.19913
8.18629
8.17007
8.15051
8.12748
8.10088
8.07029
8.03676
7.99782
7.95252
0.214578
0.141374
0.118452
0.109328
0.106409
0.107358
0.111697
0.119774
0.132226
0.149537
0.171699
0.198105
0.227693
0.259204
0.291425
0.323333
0.354164
0.383412
0.410807
0.436269
0.459861
0.48175
0.502162
0.521354
0.539586
0.557111
0.574159
0.590933
0.607609
0.624342
0.641271
0.658524
0.67622
0.694468
0.713368
0.733017
0.75351
0.77495
0.797443
0.821097
0.846013
0.872288
0.900018
0.92931
0.960284
0.993066
1.02779
1.06458
1.10357
1.14486
1.18852
1.23459
1.28311
1.33412
1.3877
1.44388
1.50271
1.5642
1.62838
1.69524
1.7648
1.83704
1.91192
1.98936
2.06933
2.1518
2.23672
2.32406
2.41372
2.50561
2.59963
2.69562
2.79344
2.89293
2.99388
3.09607
3.19931
3.30341
3.40816
3.51329
3.61853
3.7236
3.82827
3.93233
4.03558
4.13785
4.23898
4.33882
4.43722
4.53405
4.62917
4.72247
4.81367
4.90261
4.98932
5.0738
5.15593
5.23604
5.31386
5.38873
5.46046
5.52997
5.59763
5.66369
5.7282
5.79139
5.8535
5.9148
5.9755
6.03581
6.09588
6.15603
6.2161
6.27582
6.33543
6.39501
6.45456
6.51408
6.57355
6.63297
6.6923
6.75152
6.8106
6.86951
6.92821
6.98666
7.04486
7.10284
7.16039
7.21747
7.27408
7.33019
7.38576
7.44072
7.49503
7.54863
7.60144
7.65343
7.70454
7.75469
7.80381
7.85184
7.89872
7.94438
7.98875
8.03177
8.07334
8.11338
8.15182
8.18855
8.22347
8.2565
8.28754
8.31649
8.34326
8.36775
8.38982
8.40938
8.42632
8.44053
8.45192
8.46039
8.46582
8.4681
8.46716
8.4629
8.45524
8.44409
8.42942
8.4112
8.38944
8.36419
8.33552
8.30353
8.26815
8.22939
8.18688
8.14159
8.09097
8.03499
0.237384
0.150764
0.124135
0.113554
0.109868
0.110336
0.114351
0.122171
0.134311
0.151115
0.172457
0.197679
0.22574
0.255457
0.285717
0.315597
0.344417
0.371737
0.39733
0.421143
0.443251
0.463819
0.483065
0.501234
0.518578
0.535338
0.55174
0.567983
0.584247
0.600687
0.617459
0.634711
0.652589
0.671222
0.690721
0.711186
0.73272
0.755432
0.779442
0.804873
0.83183
0.860399
0.890666
0.922741
0.956748
0.992813
1.03107
1.07164
1.11466
1.16025
1.20844
1.25927
1.31276
1.369
1.42805
1.49001
1.55493
1.62283
1.6937
1.76753
1.84426
1.92377
2.00606
2.09115
2.17902
2.26966
2.36301
2.45901
2.55757
2.65857
2.76187
2.86734
2.97482
3.08415
3.19512
3.30717
3.42013
3.53387
3.64816
3.76274
3.87725
3.99142
4.10496
4.21766
4.32934
4.43981
4.54893
4.65657
4.76259
4.8669
4.96943
5.0704
5.1691
5.26501
5.35855
5.4502
5.53904
5.62433
5.70578
5.78389
5.85903
5.93183
6.00263
6.0717
6.13912
6.20512
6.26998
6.33396
6.39727
6.46007
6.5225
6.58466
6.64658
6.7082
6.76957
6.83072
6.89165
6.95236
7.01282
7.07301
7.13291
7.19247
7.25166
7.31045
7.36879
7.42663
7.48395
7.5407
7.59683
7.65226
7.70695
7.76087
7.81396
7.86616
7.91741
7.96765
8.01681
8.06483
8.11165
8.15719
8.20138
8.24416
8.28544
8.32517
8.36326
8.39963
8.4342
8.46688
8.49759
8.52622
8.55267
8.57685
8.59866
8.61802
8.63481
8.64895
8.66032
8.66881
8.67432
8.67678
8.67607
8.67213
8.66485
8.65416
8.63999
8.62227
8.60097
8.57603
8.54744
8.51523
8.47944
8.44017
8.39752
8.35165
8.30257
8.25038
8.19473
8.13652
8.07333
8.00575
0.262195
0.160612
0.129913
0.117738
0.113181
0.113056
0.116624
0.124042
0.1357
0.151805
0.172131
0.195989
0.222382
0.250216
0.278482
0.306358
0.333246
0.358766
0.382728
0.4051
0.425963
0.445476
0.463846
0.481302
0.498081
0.514424
0.53055
0.546655
0.562907
0.57947
0.596511
0.614217
0.632772
0.652332
0.673011
0.694899
0.718087
0.742681
0.768813
0.796627
0.82623
0.857713
0.891162
0.926717
0.964544
1.00478
1.04753
1.0929
1.14099
1.19183
1.24541
1.30188
1.36132
1.42383
1.48953
1.55852
1.63086
1.70653
1.78547
1.86762
1.95285
2.04066
2.13123
2.22481
2.32135
2.42084
2.52322
2.6284
2.73624
2.84659
2.9593
3.07419
3.19113
3.31014
3.43172
3.55326
3.67526
3.79769
3.9204
4.04307
4.16538
4.287
4.40767
4.52718
4.64534
4.76204
4.87714
4.99053
5.10214
5.21188
5.31961
5.42545
5.52974
5.63149
5.73028
5.82546
5.91743
6.00621
6.09091
6.17212
6.25039
6.3262
6.3996
6.47103
6.54075
6.60904
6.67616
6.74236
6.80779
6.87257
6.9368
7.00053
7.0638
7.1266
7.18894
7.25082
7.31223
7.37316
7.43358
7.49347
7.55279
7.6115
7.66957
7.72695
7.78359
7.83945
7.89448
7.94863
8.00186
8.0541
8.10529
8.15538
8.20432
8.25205
8.2985
8.3436
8.38729
8.4295
8.47016
8.50919
8.54653
8.58209
8.61579
8.64757
8.67733
8.70499
8.73048
8.75369
8.77455
8.79294
8.80877
8.82194
8.83236
8.83994
8.84458
8.84619
8.84468
8.83994
8.83189
8.82045
8.80556
8.78714
8.76512
8.73947
8.71013
8.67709
8.64032
8.59983
8.55566
8.50786
8.45654
8.40183
8.34389
8.28295
8.21913
8.15259
8.08299
8.0112
7.93513
7.85574
0.290477
0.17142
0.136058
0.122049
0.11645
0.115573
0.118534
0.125379
0.136362
0.151549
0.170625
0.192896
0.217426
0.24323
0.269417
0.295268
0.320269
0.344096
0.366595
0.387748
0.407642
0.426427
0.444289
0.461433
0.478089
0.494503
0.510909
0.527495
0.544405
0.561782
0.579823
0.598783
0.618924
0.640457
0.663513
0.688163
0.714449
0.742461
0.772313
0.804103
0.837867
0.873855
0.912246
0.953292
0.997186
1.0439
1.09342
1.14589
1.20136
1.25955
1.3204
1.38449
1.4518
1.52244
1.59651
1.67409
1.75519
1.83979
1.92792
2.01982
2.11638
2.2151
2.31669
2.42125
2.52871
2.639
2.75199
2.86757
2.98554
3.10573
3.22791
3.35189
3.47746
3.60445
3.73268
3.86138
3.99024
4.11906
4.24766
4.37572
4.50291
4.62893
4.75358
4.87669
4.99811
5.11784
5.23573
5.35169
5.46604
5.57872
5.6892
5.79709
5.90159
6.00307
6.10172
6.19745
6.29031
6.38033
6.46762
6.55234
6.63462
6.71446
6.79085
6.86477
6.9367
7.00705
7.07611
7.14406
7.21102
7.2771
7.34233
7.40676
7.47042
7.53329
7.59539
7.6567
7.71721
7.77691
7.83576
7.89375
7.95084
8.00698
8.06215
8.1163
8.16937
8.22132
8.2721
8.32167
8.36996
8.41693
8.46251
8.50663
8.54925
8.5903
8.62971
8.66742
8.70335
8.73744
8.7696
8.79978
8.82789
8.85384
8.87756
8.89897
8.91798
8.93451
8.94847
8.95977
8.96832
8.97403
8.97679
8.97651
8.97311
8.9665
8.9566
8.94332
8.92659
8.90632
8.88244
8.85491
8.82367
8.78869
8.74993
8.70738
8.66104
8.61092
8.55706
8.49949
8.43831
8.37363
8.30561
8.23443
8.16032
8.08357
8.00444
7.92323
7.83968
7.75459
7.66609
7.57514
0.31846
0.181531
0.141649
0.125845
0.119178
0.117495
0.119785
0.125988
0.136223
0.15043
0.168224
0.188922
0.211668
0.235586
0.259902
0.283998
0.307438
0.329948
0.351402
0.371802
0.391242
0.409865
0.42783
0.445316
0.462558
0.47985
0.49748
0.51566
0.53452
0.554179
0.574846
0.596843
0.620483
0.64609
0.673978
0.704003
0.735994
0.770181
0.806628
0.845176
0.885525
0.92863
0.974551
1.02347
1.07551
1.1307
1.18922
1.25141
1.31811
1.38827
1.46149
1.53804
1.61792
1.70116
1.7878
1.87788
1.97138
2.06826
2.16845
2.27197
2.3789
2.48862
2.60095
2.71574
2.83278
2.95189
3.07291
3.1957
3.32007
3.44584
3.57281
3.70082
3.82966
3.95914
4.08907
4.21908
4.34886
4.4782
4.60683
4.73451
4.86102
4.98622
5.11
5.23225
5.35296
5.47269
5.59085
5.70709
5.82081
5.93184
6.04045
6.14675
6.2507
6.35234
6.45156
6.54803
6.64181
6.73295
6.82178
6.90851
6.9932
7.07578
7.15525
7.23208
7.30666
7.37929
7.45019
7.51953
7.58743
7.65398
7.71923
7.78323
7.84601
7.90758
7.96795
8.02711
8.08507