/*--------------------------------*- C++ -*----------------------------------*\
| =========                 |                                                 |
| \\      /  F ield         | OpenFOAM: The Open Source CFD Toolbox           |
|  \\    /   O peration     | Version:  2112                                  |
|   \\  /    A nd           | Website:  www.openfoam.com                      |
|    \\/     M anipulation  |                                                 |
\*---------------------------------------------------------------------------*/
FoamFile
{
    version     2.0;
    format      ascii;
    arch        "LSB;label=32;scalar=64";
    class       volScalarField;
    location    "0.32";
    object      omegaU;
}
// * * * * * * * * * * * * * * * * * * * * * * * * * * * * * * * * * * * * * //

dimensions      [0 0 -1 0 0 0 0];

internalField   nonuniform List<scalar> 
12225
(
55396.8
78423.2
85937.8
87139.9
85923.8
83814.5
81423.9
79029
76771.1
74719.6
72897.5
71297.6
69895
68657.7
67551.3
66571.4
65603.7
64468.3
3652.12
8217.75
12314.5
15695.4
18339.4
20346.4
21844.5
22945.6
23738.1
24292.4
24666.9
24910.6
25064.6
25163.2
25233.5
25302
25453.3
25707
280.854
726.197
1380.52
2180.4
3053.07
3925.41
4743.22
5478.1
6118.22
6666.8
7137.17
7547.35
7915.83
8259.16
8589.87
8919.43
9255.39
9569.81
113.541
156.495
227.805
331.868
470.524
641.672
837.849
1046.1
1255.99
1459.86
1654.16
1837.65
2011
2175.97
2334.54
2488.39
2637.96
2774.98
100.475
105.683
115.105
129.971
151.058
178.94
213.593
253.693
297.768
344.358
391.703
438.907
485.605
531.895
577.725
622.905
667.232
708.665
99.1458
99.7551
101.128
103.555
107.168
112.084
118.377
126.01
134.856
144.749
155.38
166.546
178.1
189.795
201.584
213.398
224.926
235.704
99.0014
99.0312
99.1857
99.5356
100.126
100.985
102.142
103.613
105.398
107.487
109.861
112.492
115.34
118.315
121.363
124.43
127.408
130.199
98.9773
98.9337
98.9159
98.937
99.0097
99.1396
99.3322
99.5927
99.9244
100.329
100.808
101.359
101.977
102.649
103.358
104.083
104.804
105.503
98.967
98.9087
98.8634
98.8337
98.8223
98.8287
98.8517
98.8906
98.9454
99.0159
99.1024
99.2054
99.3251
99.461
99.6115
99.7741
99.9459
100.122
98.96
98.8945
98.8401
98.7978
98.7683
98.7504
98.7412
98.7387
98.7414
98.7489
98.7607
98.7772
98.799
98.8271
98.8623
98.9049
98.9545
99.0092
98.9549
98.8841
98.8238
98.7744
98.7361
98.7079
98.6878
98.6734
98.663
98.6555
98.6505
98.648
98.6485
98.6529
98.6618
98.6758
98.6945
98.7166
98.9513
98.8767
98.8121
98.7576
98.7132
98.678
98.6506
98.6291
98.6119
98.598
98.5868
98.5779
98.5714
98.5677
98.5673
98.5703
98.5767
98.5852
98.9486
98.8708
98.8025
98.7439
98.6945
98.6535
98.6199
98.592
98.5688
98.5493
98.5328
98.5191
98.508
98.4995
98.4934
98.4897
98.4881
98.4881
98.9462
98.8655
98.7939
98.7312
98.6772
98.6309
98.5914
98.5575
98.5282
98.5028
98.4806
98.4613
98.4449
98.431
98.4195
98.41
98.4021
98.3952
98.9442
98.8611
98.7864
98.7201
98.6618
98.6107
98.566
98.5265
98.4915
98.4603
98.4322
98.4071
98.3846
98.3645
98.3467
98.3307
98.3162
98.3027
98.9427
98.8577
98.7804
98.711
98.649
98.5937
98.5443
98.4999
98.4597
98.4231
98.3896
98.3587
98.3303
98.304
98.2795
98.2567
98.2352
98.215
98.9417
98.8553
98.7761
98.7042
98.6392
98.5805
98.5272
98.4786
98.434
98.3927
98.3542
98.3182
98.2843
98.2522
98.2218
98.1929
98.1652
98.1388
98.9413
98.8543
98.7739
98.7003
98.6332
98.5718
98.5156
98.4637
98.4154
98.3702
98.3276
98.2871
98.2486
98.2117
98.1763
98.1422
98.1093
98.0777
98.9417
98.8548
98.7742
98.7001
98.632
98.5693
98.5113
98.4573
98.4066
98.3587
98.3131
98.2694
98.2274
98.1868
98.1475
98.1094
98.0725
98.0369
98.9428
98.8569
98.7773
98.7039
98.6362
98.5738
98.5158
98.4615
98.4104
98.3617
98.3151
98.2701
98.2266
98.1842
98.143
98.1028
98.0637
98.0257
98.9444
98.8601
98.782
98.7101
98.6437
98.5824
98.5256
98.4723
98.4221
98.3742
98.3281
98.2836
98.2402
98.1978
98.1563
98.1158
98.0761
98.0375
98.9466
98.8646
98.7886
98.7186
98.6542
98.595
98.5403
98.4893
98.4413
98.3958
98.3522
98.3101
98.269
98.2289
98.1896
98.1511
98.1135
98.0768
98.9498
98.8707
98.7974
98.7301
98.6688
98.6134
98.5633
98.5181
98.4772
98.4401
98.4065
98.3761
98.3486
98.3238
98.3017
98.2823
98.2656
98.2519
98.9544
98.8797
98.8117
98.7523
98.7042
98.67
98.6517
98.6513
98.6709
98.7119
98.7755
98.8619
98.9713
99.1031
99.2565
99.4305
99.624
99.8361
98.9642
98.911
98.8933
98.9358
99.065
99.3064
99.6825
100.212
100.907
101.775
102.812
104.013
105.364
106.849
108.451
110.155
111.946
113.812
99.0655
99.3666
100.183
101.743
104.148
107.517
111.956
117.526
124.234
132.03
140.819
150.473
160.804
171.644
182.882
194.424
206.187
218.092
101.221
107.347
119.981
140.309
168.276
203.456
245.958
295.448
351.159
411.974
476.568
543.563
611.401
678.982
745.716
811.248
875.288
937.639
148.98
256.957
440.32
689.327
995.43
1336.17
1698.33
2069.51
2438.45
2795.76
3134.34
3449.5
3739.22
4003.05
4241.72
4457.26
4652.46
4831.26
1566.56
3736.24
5966.77
8050.94
9884.74
11451
12766.2
13862
14770.7
15521.7
16139.6
16645.3
17056.5
17388.2
17653.1
17863.1
18028.9
18160.3
36481.6
55176.1
63362.6
66369.6
66994
66541.7
65600
64439
63190.6
61924.7
60681.8
59487.3
58357.7
57303
56327.6
55432.7
54613.3
53867.5
148.99
148.607
148.514
148.823
150.074
152.771
157.529
165.091
176.377
192.196
212.45
236.085
261.949
289.152
317.152
345.667
374.563
403.79
433.347
463.265
493.589
524.369
555.654
587.484
619.895
652.917
686.579
720.907
755.933
791.686
828.201
865.51
903.648
942.644
982.528
1023.32
1065.05
1107.74
1151.38
1196
1241.59
1288.15
1335.68
1384.17
1433.6
1483.95
1535.21
1587.33
1640.28
1694.04
1748.55
1803.78
1859.65
1916.13
1973.15
2030.65
2088.56
2146.8
2205.31
2264
2322.8
2381.61
2440.37
2498.99
2557.37
2615.45
2673.12
2730.31
2786.94
2842.92
2898.19
2952.67
3006.28
3058.97
3110.69
3161.36
3210.96
3259.43
3306.75
3352.88
3397.8
3441.5
3483.95
3525.15
3565.07
3603.72
3641.08
3677.15
3711.92
3745.4
3777.6
3808.53
3838.22
3866.68
3893.97
3920.1
3945.14
3969.13
3992.12
4014.15
4035.28
4055.55
4075.01
4093.68
4111.59
4128.77
4145.24
4160.99
4176.02
4190.32
4203.87
4216.63
4228.57
4239.63
4249.74
4258.81
4266.75
4273.51
4279.03
4283.25
4286.32
4288.11
4288.58
4287.64
4285.23
4281.29
4275.74
4268.51
4259.53
4248.72
4236.01
4221.31
4204.55
4185.65
4164.53
4141.11
4115.32
4087.06
4056.27
4022.86
3986.73
3947.78
3905.9
3860.95
3812.76
3761.15
3705.89
3646.73
3583.45
3515.81
3443.61
3366.68
3284.87
3198.04
3106.08
3008.89
2906.41
2798.61
2685.52
2567.23
2443.91
2315.82
2183.34
2046.99
1907.45
1765.61
1622.58
1479.71
1338.65
1201.33
1070
947.177
835.65
738.377
658.45
601.132
565.686
551.888
562.271
594.096
153.386
151.075
149.561
148.412
147.954
148.551
150.672
154.842
161.67
171.773
185.481
202.555
222.282
243.759
266.156
288.869
311.524
333.936
356.043
377.855
399.418
420.794
442.045
463.234
484.414
505.635
526.94
548.37
569.958
591.734
613.723
635.944
658.412
681.135
704.114
727.348
750.829
774.546
798.482
822.62
846.937
871.409
896.007
920.703
945.465
970.259
995.05
1019.8
1044.48
1069.03
1093.44
1117.64
1141.61
1165.29
1188.66
1211.67
1234.28
1256.46
1278.16
1299.36
1320.02
1340.12
1359.62
1378.5
1396.76
1414.36
1431.29
1447.56
1463.15
1478.07
1492.32
1505.91
1518.85
1531.18
1542.91
1554.07
1564.7
1574.85
1584.57
1593.92
1602.98
1611.81
1620.53
1629.22
1637.98
1646.91
1656.09
1665.55
1675.33
1685.43
1695.8
1706.39
1717.16
1728.02
1738.9
1749.75
1760.51
1771.11
1781.53
1791.71
1801.63
1811.25
1820.56
1829.52
1838.1
1846.29
1854.05
1861.34
1868.12
1874.34
1879.96
1884.91
1889.13
1892.53
1895.04
1896.55
1896.98
1896.26
1894.55
1891.93
1888.3
1883.63
1877.9
1871.07
1863.12
1854.04
1843.8
1832.4
1819.82
1806.06
1791.12
1775.03
1757.8
1739.48
1720.12
1699.78
1678.56
1656.56
1633.93
1610.81
1587.39
1563.9
1540.57
1517.64
1495.32
1473.76
1453
1432.9
1413.17
1393.42
1373.27
1352.41
1330.66
1307.91
1284.11
1259.23
1233.22
1206.05
1177.69
1148.11
1117.3
1085.26
1052.01
1017.59
982.088
945.632
908.405
870.663
832.751
795.112
758.302
722.994
689.951
660.01
634.131
614.218
602.694
600.429
608.047
624.534
162.192
155.593
152.002
149.511
147.986
147.588
148.673
151.631
156.881
164.845
175.799
189.651
205.9
223.792
242.554
261.561
280.394
298.822
316.756
334.194
351.182
367.789
384.089
400.15
416.035
431.798
447.485
463.134
478.776
494.433
510.123
525.855
541.632
557.451
573.304
589.179
605.059
620.924
636.75
652.513
668.186
683.739
699.143
714.368
729.381
744.152
758.649
772.84
786.693
800.179
813.268
825.931
838.141
849.874
861.106
871.818
881.99
891.608
900.66
909.137
917.034
924.35
931.085
937.245
942.84
947.88
952.383
956.367
959.855
962.873
965.451
967.619
969.414
970.871
972.03
972.933
973.624
974.147
974.551
974.882
975.19
975.52
975.916
976.417
977.055
977.852
978.82
979.959
981.26
982.703
984.262
985.904
987.594
989.299
990.983
992.615
994.165
995.608
996.922
998.086
999.084
999.902
1000.53
1000.95
1001.17
1001.17
1000.95
1000.52
999.871
999.02
997.976
996.754
995.374
993.857
992.231
990.522
988.826
987.343
985.865
984.298
982.608
980.764
978.737
976.504
974.045
971.35
968.411
965.226
961.798
958.13
954.23
950.106
945.773
941.246
936.547
931.7
926.736
921.689
916.6
911.513
906.478
901.546
896.764
892.176
887.81
883.671
879.739
875.96
872.259
868.548
864.746
860.79
856.635
852.251
847.614
842.699
837.482
831.935
826.034
819.75
813.057
805.931
798.354
790.314
781.808
772.845
763.456
753.707
743.691
733.54
723.433
713.632
704.444
696.192
689.289
684.438
682.599
684.536
689.736
697.369
174.349
160.862
154.539
150.587
148.159
147.134
147.738
150.262
154.998
162.211
172.03
184.313
198.605
214.251
230.573
247.013
263.19
278.888
294.026
308.608
322.685
336.332
349.625
362.637
375.429
388.053
400.55
412.95
425.275
437.538
449.748
461.903
473.997
486.022
497.962
509.798
521.509
533.074
544.465
555.658
566.624
577.338
587.771
597.896
607.686
617.116
626.161
634.797
643.003
650.758
658.045
664.848
671.155
676.954
682.24
687.009
691.259
694.995
698.221
700.947
703.187
704.956
706.273
707.159
707.639
707.739
707.488
706.915
706.054
704.935
703.593
702.063
700.377
698.57
696.674
694.723
692.745
690.77
688.825
686.933
685.116
683.393
681.777
680.281
678.911
677.671
676.564
675.587
674.736
674.007
673.393
672.889
672.486
672.18
671.963
671.83
671.774
671.789
671.869
672.008
672.199
672.438
672.72
673.04
673.395
673.783
674.205
674.661
675.155
675.692
676.28
676.928
677.647
678.45
679.363
680.462
681.717
683.034
684.387
685.764
687.156
688.555
689.956
691.352
692.742
694.124
695.498
696.865
698.228
699.59
700.955
702.328
703.715
705.124
706.562
708.04
709.567
711.155
712.815
714.559
716.4
718.347
720.408
722.586
724.882
727.286
729.786
732.362
734.992
737.654
740.327
742.994
745.641
748.253
750.817
753.319
755.747
758.087
760.323
762.437
764.41
766.222
767.866
769.331
770.608
771.685
772.55
773.236
773.777
774.199
774.517
774.864
775.389
776.078
777.077
778.364
780.196
783.195
787.125
790.727
191.835
167.295
157.241
151.661
148.447
147.034
147.468
149.927
154.587
161.566
170.859
182.243
195.273
209.363
223.931
238.496
252.729
266.45
279.593
292.17
304.239
315.874
327.154
338.147
348.912
359.493
369.924
380.227
390.414
400.49
410.455
420.3
430.015
439.583
448.988
458.207
467.22
476.003
484.532
492.784
500.736
508.363
515.645
522.561
529.091
535.218
540.926
546.204
551.039
555.425
559.356
562.831
565.851
568.419
570.545
572.238
573.514
574.389
574.884
575.021
574.825
574.324
573.546
572.521
571.28
569.854
568.275
566.574
564.783
562.932
561.049
559.163
557.299
555.481
553.731
552.068
550.508
549.065
547.753
546.578
545.549
544.67
543.942
543.368
542.945
542.674
542.55
542.571
542.733
543.033
543.468
544.033
544.726
545.543
546.481
547.535
548.701
549.976
551.354
552.832
554.405
556.071
557.825
559.667
561.594
563.607
565.705
567.892
570.169
572.54
575.01
577.585
580.272
583.091
586.047
589.088
592.204
595.385
598.626
601.925
605.284
608.702
612.179
615.717
619.315
622.976
626.702
630.495
634.358
638.295
642.307
646.4
650.576
654.841
659.196
663.648
668.2
672.856
677.62
682.495
687.483
692.586
697.802
703.131
708.568
714.106
719.738
725.455
731.247
737.107
743.027
748.998
755.012
761.058
767.126
773.203
779.281
785.352
791.407
797.431
803.403
809.292
815.097
820.816
826.443
831.957
837.276
842.446
847.499
852.43
857.082
861.595
866.168
870.433
874.487
878.069
881.211
884.495
887.887
890.014
214.483
174.895
160.066
152.643
148.714
147.08
147.532
150.12
154.903
161.875
170.911
181.717
193.844
206.764
219.977
233.081
245.802
257.995
269.614
280.68
291.253
301.408
311.218
320.747
330.047
339.154
348.096
356.885
365.528
374.021
382.359
390.529
398.517
406.305
413.875
421.206
428.279
435.073
441.57
447.75
453.596
459.091
464.223
468.978
473.347
477.324
480.903
484.083
486.865
489.255
491.26
492.891
494.161
495.087
495.689
495.99
496.013
495.786
495.338
494.697
493.895
492.961
491.928
490.824
489.68
488.524
487.383
486.282
485.244
484.291
483.441
482.712
482.118
481.669
481.375
481.243
481.276
481.478
481.847
482.383
483.082
483.941
484.953
486.113
487.416
488.856
490.426
492.121
493.935
495.864
497.903
500.049
502.297
504.643
507.085
509.619
512.241
514.95
517.742
520.615
523.569
526.601
529.714
532.907
536.183
539.543
542.992
546.533
550.17
553.91
557.757
561.712
565.772
569.925
574.166
578.491
582.9
587.392
591.967
596.628
601.377
606.216
611.145
616.167
621.284
626.498
631.811
637.224
642.741
648.364
654.096
659.937
665.892
671.961
678.146
684.45
690.873
697.416
704.08
710.864
717.769
724.794
731.937
739.195
746.565
754.04
761.616
769.283
777.036
784.869
792.779
800.759
808.803
816.901
825.038
833.193
841.356
849.526
857.697
865.863
874.006
882.042
889.976
897.823
905.59
913.308
920.702
927.887
934.931
941.901
948.334
954.476
960.375
965.945
971.088
975.532
979.22
982.619
985.749
987.404
243.412
184.067
163.258
153.698
149.073
147.319
147.897
150.698
155.67
162.7
171.568
181.93
193.331
205.282
217.373
229.281
240.771
251.728
262.125
271.992
281.388
290.383
299.047
307.437
315.596
323.556
331.335
338.941
346.373
353.627
360.691
367.553
374.196
380.605
386.763
392.653
398.26
403.568
408.565
413.238
417.578
421.577
425.231
428.536
431.494
434.108
436.383
438.331
439.963
441.294
442.342
443.128
443.674
444.006
444.149
444.132
443.985
443.737
443.419
443.06
442.69
442.336
442.024
441.779
441.622
441.575
441.655
441.878
442.256
442.801
443.521
444.421
445.505
446.774
448.228
449.863
451.677
453.662
455.812
458.12
460.576
463.171
465.898
468.746
471.709
474.777
477.944
481.203
484.548
487.973
491.474
495.047
498.688
502.395
506.165
509.996
513.886
517.833
521.838
525.9
530.021
534.203
538.45
542.765
547.153
551.62
556.171
560.813
565.553
570.398
575.32
580.323
585.416
590.601
595.88
601.255
606.729
612.302
617.978
623.758
629.645
635.64
641.746
647.964
654.296
660.742
667.305
673.986
680.786
687.708
694.752
701.921
709.214
716.633
724.179
731.85
739.647
747.569
755.614
763.78
772.065
780.471
788.994
797.633
806.385
815.244
824.206
833.259
842.39
851.592
860.866
870.209
879.615
889.079
898.59
908.099
917.575
927.034
936.476
945.91
955.375
964.646
973.74
982.694
991.533
1000.49
1008.86
1016.94
1024.75
1032.27
1039.39
1046.12
1052.48
1058.43
1063.87
1068.57
1072.45
1075.83
1078.71
1080.14
279.202
195.119
167.011
154.953
149.59
147.765
148.515
151.551
156.706
163.776
172.473
182.416
193.165
204.287
215.421
226.301
236.744
246.662
256.04
264.911
273.335
281.378
289.101
296.554
303.776
310.791
317.612
324.243
330.681
336.917
342.942
348.742
354.305
359.616
364.664
369.437
373.926
378.121
382.016
385.609
388.897
391.882
394.568
396.96
399.07
400.91
402.495
403.843
404.975
405.913
406.681
407.305
407.811
408.228
408.583
408.906
409.225
409.567
409.96
410.429
410.997
411.685
412.511
413.493
414.642
415.971
417.489
419.201
421.114
423.229
425.546
428.065
430.781
433.689
436.784
440.058
443.501
447.103
450.856
454.747
458.765
462.901
467.143
471.481
475.906
480.41
484.984
489.622
494.317
499.064
503.859
508.697
513.575
518.491
523.444
528.431
533.451
538.506
543.594
548.72
553.886
559.097
564.36
569.68
575.065
580.523
586.063
591.699
597.398
603.143
608.969
614.885
620.897
627.009
633.226
639.55
645.985
652.533
659.196
665.977
672.877
679.899
687.043
694.31
701.702
709.219
716.862
724.629
732.523
740.543
748.691
756.969
765.375
773.909
782.572
791.364
800.283
809.327
818.492
827.77
837.158
846.659
856.271
865.993
875.822
885.758
895.797
905.933
916.125
926.355
936.635
946.963
957.339
967.768
978.274
988.757
999.116
1009.41
1019.64
1029.83
1040.19
1050.21
1059.94
1069.47
1078.79
1087.92
1096.69
1105.13
1113.21
1120.91
1128.19
1135.03
1141.41
1147.3
1152.62
1157.22
1160.98
1164.15
1166.64
1167.75
322.541
208.369
171.533
156.547
150.343
148.436
149.355
152.597
157.883
164.935
173.415
182.928
193.058
203.42
213.7
223.675
233.203
242.219
250.719
258.737
266.33
273.56
280.48
287.136
293.56
299.77
305.777
311.582
317.181
322.567
327.73
332.662
337.351
341.791
345.972
349.892
353.545
356.931
360.052
362.91
365.512
367.868
369.988
371.888
373.582
375.092
376.439
377.645
378.737
379.738
380.677
381.578
382.468
383.374
384.321
385.336
386.442
387.662
389.018
390.529
392.211
394.079
396.142
398.411
400.89
403.585
406.498
409.631
412.981
416.548
420.325
424.309
428.491
432.864
437.418
442.144
447.029
452.064
457.235
462.53
467.937
473.444
479.041
484.716
490.46
496.264
502.12
508.02
513.959
519.931
525.931
531.955
538
544.064
550.145
556.24
562.35
568.475
574.615
580.775
586.96
593.177
599.435
605.742
612.108
618.547
625.037
631.533
638.077
644.694
651.399
658.2
665.103
672.115
679.239
686.481
693.842
701.327
708.935
716.671
724.534
732.526
740.649
748.903
757.288
765.805
774.452
783.226
792.123
801.145
810.294
819.57
828.973
838.501
848.154
857.933
867.837
877.868
888.021
898.277
908.614
919.045
929.573
940.196
950.91
961.719
972.631
983.671
994.746
1005.78
1016.83
1027.9
1038.97
1050.07
1061.31
1072.55
1083.49
1094.31
1105.02
1115.6
1126.09
1136.35
1146.36
1156.11
1165.58
1174.75
1183.57
1192
1200.02
1207.58
1214.68
1221.26
1227.33
1232.84
1237.72
1241.88
1245.21
1247.88
1249.73
1250.29
373.791
224.032
176.967
158.576
151.378
149.332
150.373
153.758
159.098
166.052
174.252
183.307
192.827
202.469
211.963
221.122
229.833
238.048
245.771
253.039
259.904
266.422
272.643
278.604
284.334
289.848
295.155
300.255
305.146
309.821
314.276
318.503
322.5
326.262
329.788
333.081
336.142
338.977
341.596
344.006
346.222
348.258
350.13
351.858
353.462
354.967
356.396
357.776
359.132
360.49
361.875
363.31
364.819
366.423
368.145
370.005
372.022
374.215
376.599
379.188
381.994
385.024
388.285
391.778
395.506
399.469
403.666
408.095
412.753
417.634
422.732
428.039
433.546
439.244
445.122
451.169
457.371
463.718
470.194
476.787
483.483
490.269
497.135
504.069
511.061
518.105
525.19
532.311
539.462
546.636
553.829
561.038
568.259
575.491
582.731
589.976
597.225
604.476
611.73
618.99
626.263
633.56
640.891
648.269
655.678
663.044
670.393
677.779
685.227
692.754
700.374
708.094
715.921
723.86
731.919
740.1
748.409
756.846
765.413
774.112
782.943
791.907
801.005
810.237
819.604
829.107
838.747
848.516
858.393
868.382
878.489
888.713
899.055
909.51
920.08
930.762
941.56
952.483
963.549
974.718
985.899
997.142
1008.45
1019.84
1031.28
1042.79
1054.37
1066.17
1078
1089.65
1101.25
1112.83
1124.37
1135.87
1147.34
1158.72
1169.93
1180.99
1191.88
1202.58
1213.08
1223.32
1233.28
1242.92
1252.23
1261.16
1269.68
1277.76
1285.36
1292.45
1299
1304.98
1310.38
1315.15
1319.25
1322.6
1325.12
1326.93
1327.82
1327.51
433.118
242.23
183.406
161.103
152.716
150.434
151.519
154.963
160.263
167.031
174.886
183.445
192.352
201.301
210.058
218.465
226.432
233.923
240.95
247.548
253.765
259.654
265.256
270.608
275.733
280.646
285.353
289.857
294.156
298.249
302.132
305.807
309.273
312.533
315.593
318.458
321.139
323.645
325.991
328.192
330.263
332.222
334.09
335.888
337.638
339.365
341.095
342.854
344.666
346.556
348.544
350.65
352.891
355.287
357.854
360.609
363.566
366.741
370.144
373.788
377.678
381.822
386.219
390.869
395.772
400.926
406.33
411.98
417.872
423.999
430.353
436.926
443.707
450.685
457.846
465.18
472.672
480.307
488.071
495.947
503.921
511.978
520.107
528.297
536.539
544.827
553.152
561.51
569.896
578.304
586.733
595.18
603.644
612.125
620.623
629.135
637.655
646.18
654.707
663.237
671.774
680.334
688.922
697.405
705.774
714.112
722.455
730.836
739.279
747.804
756.425
765.152
773.987
782.931
791.995
801.183
810.5
819.947
829.525
839.233
849.071
859.04
869.138
879.366
889.724
900.217
910.856
921.655
932.513
943.451
954.486
965.619
976.85
988.174
999.589
1011.09
1022.68
1034.37
1046.26
1058.3
1070.19
1082.1
1094.04
1106.02
1118.02
1130.03
1142.06
1154.13
1166.17
1178.14
1190.03
1201.85
1213.57
1225.19
1236.69
1248.04
1259.21
1270.17
1280.9
1291.37
1301.57
1311.45
1320.99
1330.15
1338.9
1347.21
1355.03
1362.35
1369.12
1375.32
1380.9
1385.86
1390.17
1393.8
1396.7
1398.82
1400.1
1400.63
1400.18
1398.61
500.448
262.989
190.88
164.15
154.353
151.709
152.737
156.139
161.301
167.796
175.24
183.268
191.554
199.828
207.884
215.589
222.87
229.702
236.098
242.093
247.732
253.061
258.12
262.941
267.544
271.943
276.147
280.158
283.979
287.611
291.056
294.319
297.407
300.327
303.091
305.709
308.195
310.564
312.833
315.02
317.143
319.221
321.273
323.321
325.388
327.498
329.677
331.949
334.34
336.871
339.557
342.415
345.456
348.697
352.152
355.836
359.761
363.939
368.379
373.091
378.08
383.351
388.902
394.728
400.829
407.203
413.85
420.766
427.947
435.384
443.069
450.99
459.134
467.487
476.032
484.755
493.638
502.665
511.816
521.072
530.414
539.825
549.294
558.81
568.367
577.958
587.581
597.232
606.91
616.615
626.347
636.108
645.901
655.734
665.62
675.561
685.546
695.578
705.636
715.721
725.823
735.76
745.479
755.086
764.611
774.092
783.567
793.068
802.624
812.259
821.998
831.859
841.826
851.88
862.043
872.323
882.726
893.251
903.899
914.667
925.553
936.556
947.673
958.901
970.24
981.691
993.28
1005.16
1016.97
1028.8
1040.68
1052.64
1064.66
1076.74
1088.87
1101.05
1113.28
1125.55
1137.88
1150.25
1162.6
1174.93
1187.25
1199.54
1211.82
1224.05
1236.23
1248.36
1260.41
1272.36
1284.19
1295.88
1307.42
1318.78
1329.95
1340.91
1351.61
1362.05
1372.18
1381.99
1391.44
1400.51
1409.16
1417.35
1425.06
1432.26
1438.9
1444.96
1450.41
1455.21
1459.35
1462.79
1465.53
1467.52
1468.75
1469.18
1468.75
1467.55
1465.32
1462.06
575.55
286.245
199.371
167.707
156.267
153.114
153.968
157.22
162.144
168.283
175.254
182.718
190.376
197.987
205.373
212.419
219.064
225.292
231.116
236.57
241.696
246.536
251.125
255.491
259.656
263.633
267.431
271.056
274.512
277.805
280.941
283.931
286.788
289.525
292.155
294.694
297.156
299.561
301.928
304.276
306.624
308.99
311.39
313.844
316.377
319.01
321.77
324.681
327.768
331.05
334.543
338.254
342.196
346.384
350.838
355.574
360.607
365.947
371.6
377.572
383.865
390.476
397.402
404.636
412.176
420.023
428.175
436.629
445.378
454.413
463.721
473.288
483.097
493.126
503.353
513.749
524.293
534.964
545.737
556.585
567.483
578.412
589.359
600.317
611.283
622.256
633.24
644.238
655.257
666.303
677.385
688.517
699.702
710.947
722.313
733.847
745.502
757.363
769.303
781.035
792.419
803.61
814.65
825.573
836.396
847.151
857.879
868.616
879.394
890.241
901.19
912.32
923.563
934.812
946.142
957.57
969.099
980.728
992.456
1004.28
1016.19
1028.19
1040.27
1052.42
1064.65
1076.95
1089.31
1101.78
1114.26
1126.76
1139.28
1151.82
1164.38
1176.94
1189.51
1202.07
1214.62
1227.15
1239.65
1252.13
1264.55
1276.91
1289.2
1301.42
1313.54
1325.55
1337.46
1349.23
1360.86
1372.32
1383.59
1394.66
1405.51
1416.11
1426.44
1436.49
1446.21
1455.58
1464.58
1473.18
1481.34
1489.05
1496.25
1502.93
1509.06
1514.59
1519.5
1523.76
1527.34
1530.21
1532.36
1533.76
1534.4
1534.27
1533.33
1531.58
1528.95
1525.56
1521.11
1515.74
658.142
311.863
208.807
171.731
158.414
154.597
155.148
158.137
162.727
168.432
174.879
181.749
188.773
195.735
202.478
208.905
214.963
220.64
225.952
230.929
235.61
240.033
244.23
248.229
252.048
255.703
259.203
262.556
265.772
268.857
271.823
274.689
277.474
280.195
282.868
285.509
288.133
290.759
293.411
296.111
298.879
301.729
304.679
307.752
310.972
314.363
317.945
321.74
325.77
330.057
334.611
339.44
344.558
349.993
355.775
361.942
368.529
375.557
383.026
390.922
399.224
407.883
416.89
426.242
435.934
445.963
456.324
467.007
478
489.285
500.844
512.656
524.699
536.947
549.366
561.874
574.461
587.107
599.782
612.452
625.086
637.662
650.17
662.61
674.989
687.323
699.622
711.901
724.192
736.511
748.863
761.34
773.903
786.484
799.283
812.608
826.052
839.349
852.377
865.258
877.956
890.484
902.86
915.105
927.234
939.28
951.286
963.286
975.31
987.379
999.512
1011.73
1024.03
1036.37
1048.77
1061.22
1073.73
1086.3
1098.91
1111.57
1124.26
1136.99
1149.73
1162.5
1175.28
1188.06
1200.84
1213.62
1226.39
1239.12
1251.83
1264.49
1277.1
1289.67
1302.17
1314.61
1326.97
1339.25
1351.43
1363.53
1375.51
1387.37
1399.1
1410.69
1422.12
1433.39
1444.48
1455.37
1466.05
1476.5
1486.69
1496.61
1506.24
1515.56
1524.53
1533.14
1541.35
1549.14
1556.48
1563.34
1569.69
1575.51
1580.75
1585.38
1589.38
1592.73
1595.37
1597.3
1598.49
1598.91
1598.54
1597.39
1595.43
1592.65
1589.06
1584.64
1579.35
1573.29
1566.21
1558.32
748.046
339.66
219.078
176.153
160.738
156.097
156.213
158.825
162.988
168.189
174.067
180.323
186.711
193.04
199.171
205.019
210.541
215.726
220.59
225.163
229.479
233.573
237.475
241.21
244.798
248.257
251.599
254.832
257.965
261.01
263.987
266.923
269.851
272.797
275.777
278.802
281.878
285.024
288.266
291.637
295.16
298.857
302.757
306.911
311.386
316.218
321.382
326.861
332.657
338.76
345.164
351.913
359.032
366.558
374.537
383.02
392.047
401.623
411.722
422.317
433.376
444.82
456.662
468.877
481.441
494.343
507.568
521.095
534.898
548.948
563.214
577.666
592.277
607.04
622.026
636.868
651.659
666.406
681.093
695.685
710.151
724.472
738.644
752.674
766.582
780.408
794.166
807.87
821.564
835.257
848.929
862.682
876.887
891.217
905.542
919.604
933.595
947.737
961.83
975.776
989.507
1003.04
1016.39
1029.6
1042.7
1055.73
1068.72
1081.69
1094.66
1107.65
1120.64
1133.66
1146.69
1159.73
1172.77
1185.81
1198.85
1211.87
1224.87
1237.85
1250.8
1263.72
1276.6
1289.43
1302.21
1314.93
1327.59
1340.18
1352.69
1365.13
1377.47
1389.72
1401.87
1413.92
1425.85
1437.66
1449.35
1460.89
1472.3
1483.55
1494.63
1505.55
1516.27
1526.8
1537.11
1547.19
1557.03
1566.62
1575.92
1584.92
1593.6
1601.93
1609.89
1617.46
1624.61
1631.32
1637.54
1643.26
1648.44
1653.06
1657.08
1660.47
1663.2
1665.24
1666.56
1667.14
1666.95
1665.97
1664.18
1661.56
1658.1
1653.81
1648.67
1642.7
1635.89
1628.27
1619.8
1610.6
1600.47
1589.67
850.027
370.879
230.557
181.098
163.281
157.612
157.128
159.228
162.853
167.467
172.716
178.319
184.054
189.751
195.287
200.59
205.622
210.377
214.868
219.123
223.177
227.062
230.805
234.427
237.954
241.411
244.824
248.207
251.563
254.893
258.227
261.623
265.145
268.853
272.796
277.004
281.387
285.94
290.697
295.684
300.893
306.423
312.345
318.771
325.815
333.428
341.48
349.96
358.899
368.29
378.153
388.511
399.339
410.652
422.464
434.765
447.52
460.684
474.246
488.244
502.845
517.699
532.916
548.452
564.26
580.306
596.559
612.986
629.548
646.211
662.937
679.692
696.444
713.165
729.841
746.402
762.823
779.109
795.258
811.248
827.063
842.708
858.204
873.576
888.86
904.136
919.405
934.677
950.187
965.997
981.881
997.672
1013.06
1028.25
1043.46
1058.69
1073.83
1088.7
1103.3
1117.63
1131.68
1145.53
1159.27
1172.92
1186.51
1200.06
1213.57
1227.06
1240.52
1253.94
1267.32
1280.67
1293.97
1307.21
1320.39
1333.51
1346.57
1359.54
1372.44
1385.25
1397.98
1410.61
1423.15
1435.58
1447.9
1460.12
1472.21
1484.19
1496.04
1507.75
1519.33
1530.75
1542.03
1553.15
1564.1
1574.88
1585.47
1595.87
1606.07
1616.05
1625.81
1635.33
1644.6
1653.6
1662.32
1670.73
1678.82
1686.58
1693.97
1700.97
1707.56
1713.72
1719.42
1724.62
1729.31
1733.45
1737.01
1739.96
1742.27
1743.92
1744.86
1745.08
1744.54
1743.21
1741.09
1738.13
1734.32
1729.66
1724.12
1717.7
1710.41
1702.24
1693.22
1683.37
1672.7
1661.27
1649.09
1636.3
1622.71
1608.65
952.303
400.239
241.032
185.561
165.515
158.819
157.688
159.238
162.317
166.368
171.037
176.061
181.234
186.404
191.465
196.355
201.045
205.528
209.819
213.949
217.958
221.885
225.758
229.598
233.427
237.301
241.292
245.47
249.912
254.536
259.279
264.253
269.557
275.332
281.795
288.868
296.176
303.841
311.967
320.599
329.77
339.615
350.105
361.251
372.968
385.151
397.872
411.28
425.592
440.611
456.242
472.376
488.912
505.804
523.025
540.545
558.321
576.303
594.45
612.735
631.167
649.698
668.302
686.917
705.483
723.959
742.321
760.55
778.629
796.542
814.279
831.83
849.191
866.358
883.33
900.096
916.657
933.043
949.265
965.343
981.297
997.203
1013.13
1029.11
1045.2
1061.89
1078.9
1096.05
1113.05
1129.76
1146.33
1162.8
1179.17
1195.5
1211.76
1227.78
1243.55
1258.88
1273.9
1288.68
1303.25
1317.66
1332.02
1346.33
1360.56
1374.71
1388.77
1402.72
1416.56
1430.29
1443.89
1457.37
1470.72
1483.92
1496.99
1509.92
1522.7
1535.33
1547.81
1560.13
1572.29
1584.29
1596.11
1607.77
1619.25
1630.55
1641.67
1652.59
1663.32
1673.85
1684.17
1694.28
1704.16
1713.81
1723.22
1732.38
1741.29
1749.92
1758.27
1766.32
1774.07
1781.49
1788.56
1795.28
1801.62
1807.55
1813.07
1818.14
1822.75
1826.86
1830.45
1833.49
1835.95
1837.81
1839.04
1839.6
1839.46
1838.61
1837
1834.61
1831.42
1827.41
1822.54
1816.8
1810.18
1802.66
1794.23
1784.9
1774.66
1763.52
1751.5
1738.62
1724.92
1710.43
1695.21
1679.32
1662.84
1645.96
1628.47
1610.76
1053.24
426.905
250.081
189.336
167.346
159.694
157.92
158.929
161.498
165.049
169.23
173.789
178.539
183.345
188.119
192.817
197.426
201.953
206.404
210.813
215.25
219.792
224.58
229.736
235.031
240.57
246.475
253.017
260.498
268.446
276.853
286.121
296.314
307.579
319.865
332.698
346.205
360.56
375.968
392.528
410.098
428.582
447.809
467.668
488.034
508.769
529.799
551.12
572.67
594.382
616.145
637.833
659.342
680.624
701.665
722.463
743.014
763.306
783.328
803.068
822.534
841.748
860.721
879.439
897.88
916.032
933.896
951.481
968.8
985.868
1002.7
1019.33
1035.77
1052.08
1068.27
1084.36
1100.4
1116.45
1132.52
1148.65
1164.91
1181.67
1199
1216.72
1234.66
1252.34
1269.89
1287.4
1304.88
1322.35
1339.81
1357.25
1374.64