/*--------------------------------*- C++ -*----------------------------------*\
| =========                 |                                                 |
| \\      /  F ield         | OpenFOAM: The Open Source CFD Toolbox           |
|  \\    /   O peration     | Version:  2112                                  |
|   \\  /    A nd           | Website:  www.openfoam.com                      |
|    \\/     M anipulation  |                                                 |
\*---------------------------------------------------------------------------*/
FoamFile
{
    version     2.0;
    format      ascii;
    arch        "LSB;label=32;scalar=64";
    class       surfaceScalarField;
    location    "0.46";
    object      ddtCorrDdt0(phi);
}
// * * * * * * * * * * * * * * * * * * * * * * * * * * * * * * * * * * * * * //

dimensions      [0 3 -2 0 0 0 0];

oriented        oriented;

internalField   nonuniform List<scalar> 
24170
(
-1.52441e-11
1.52493e-11
-5.2137e-11
3.69037e-11
-1.14124e-10
6.19987e-11
-2.05307e-10
9.11943e-11
-3.28383e-10
1.23088e-10
-4.88389e-10
1.60019e-10
-6.92877e-10
2.045e-10
-9.53557e-10
2.60693e-10
-1.28784e-09
3.34298e-10
-1.72362e-09
4.35792e-10
-2.30215e-09
5.78536e-10
-3.08269e-09
7.80554e-10
-4.16636e-09
1.08369e-09
-5.66972e-09
1.50337e-09
-7.86012e-09
2.19042e-09
-1.19951e-08
4.13503e-09
-1.82086e-08
6.21345e-09
3.24393e-08
-5.06478e-08
1.17038e-12
1.40846e-11
-6.37769e-12
4.44627e-11
-2.66527e-11
8.22852e-11
-6.64591e-11
1.31013e-10
-1.31633e-10
1.88274e-10
-2.29262e-10
2.5766e-10
-3.665e-10
3.41751e-10
-5.51272e-10
4.45477e-10
-7.92344e-10
5.75383e-10
-1.1032e-09
7.4666e-10
-1.50299e-09
9.78343e-10
-2.0224e-09
1.29998e-09
-2.70065e-09
1.76195e-09
-3.69596e-09
2.4987e-09
-5.1063e-09
3.60077e-09
-7.20178e-09
6.23053e-09
-9.76808e-09
8.77976e-09
1.99962e-08
2.67506e-09
-4.18939e-12
1.82797e-11
-1.78467e-11
5.81303e-11
-3.92979e-11
1.03748e-10
-6.84287e-11
1.60155e-10
-1.05256e-10
2.25114e-10
-1.53998e-10
3.06415e-10
-2.20198e-10
4.07963e-10
-3.12357e-10
5.37648e-10
-4.41692e-10
7.04731e-10
-6.25436e-10
9.30415e-10
-8.88083e-10
1.241e-09
-1.26138e-09
1.67328e-09
-1.80711e-09
2.3077e-09
-2.62392e-09
3.31552e-09
-3.83729e-09
4.81416e-09
-5.26291e-09
7.65617e-09
-7.57811e-09
1.1095e-08
1.94448e-08
-7.02675e-09
-4.05717e-12
2.23423e-11
-1.89401e-11
7.30227e-11
-4.62723e-11
1.3109e-10
-8.73086e-11
2.01202e-10
-1.40451e-10
2.78268e-10
-2.06619e-10
3.72595e-10
-2.87713e-10
4.89069e-10
-3.87303e-10
6.37249e-10
-5.10664e-10
8.28104e-10
-6.57678e-10
1.07744e-09
-8.34218e-10
1.41755e-09
-1.05158e-09
1.89066e-09
-1.32316e-09
2.57929e-09
-1.64646e-09
3.63883e-09
-1.98968e-09
5.1574e-09
-1.974e-09
7.64051e-09
-1.57029e-09
1.06913e-08
1.55005e-08
2.37406e-09
-5.32639e-12
2.76743e-11
-1.96754e-11
8.73809e-11
-4.44156e-11
1.5584e-10
-8.28707e-11
2.39668e-10
-1.37334e-10
3.32741e-10
-2.07686e-10
4.42958e-10
-2.96328e-10
5.77723e-10
-4.0693e-10
7.47863e-10
-5.42647e-10
9.63832e-10
-7.13612e-10
1.24842e-09
-9.21735e-10
1.62569e-09
-1.16269e-09
2.13163e-09
-1.40432e-09
2.82093e-09
-1.59726e-09
3.83179e-09
-1.69011e-09
5.25027e-09
-1.37085e-09
7.32127e-09
-3.66512e-10
9.68697e-09
1.25054e-08
2.62863e-09
-6.51187e-12
3.41921e-11
-2.30115e-11
1.0389e-10
-4.8378e-11
1.81217e-10
-8.24062e-11
2.73706e-10
-1.33718e-10
3.84064e-10
-2.01658e-10
5.10909e-10
-2.87101e-10
6.63177e-10
-3.92871e-10
8.53644e-10
-5.20285e-10
1.09126e-09
-6.72428e-10
1.40057e-09
-8.47613e-10
1.80089e-09
-1.04074e-09
2.32476e-09
-1.25359e-09
3.0338e-09
-1.40044e-09
3.97865e-09
-1.36726e-09
5.21711e-09
-9.00669e-10
6.85469e-09
1.51775e-10
8.63454e-09
1.03426e-08
2.31459e-09
-6.9452e-12
4.11438e-11
-2.54344e-11
1.22389e-10
-5.28097e-11
2.08603e-10
-8.52669e-11
3.06174e-10
-1.31025e-10
4.29833e-10
-1.9369e-10
5.73586e-10
-2.72317e-10
7.41815e-10
-3.68681e-10
9.5002e-10
-4.81167e-10
1.20376e-09
-6.08232e-10
1.52765e-09
-7.4656e-10
1.93923e-09
-8.85576e-10
2.46379e-09
-1.01245e-09
3.16069e-09
-1.07032e-09
4.03653e-09
-9.59588e-10
5.10639e-09
-4.85374e-10
6.38049e-09
4.80631e-10
7.66855e-09
8.69e-09
2.13323e-09
-6.97296e-12
4.81238e-11
-2.59984e-11
1.41426e-10
-5.52424e-11
2.37858e-10
-9.10256e-11
3.41969e-10
-1.31239e-10
4.70058e-10
-1.84727e-10
6.27086e-10
-2.54157e-10
8.11257e-10
-3.38137e-10
1.03401e-09
-4.3266e-10
1.29829e-09
-5.35302e-10
1.6303e-09
-6.39127e-10
2.04306e-09
-7.27287e-10
2.55196e-09
-7.64679e-10
3.1981e-09
-7.13923e-10
3.98579e-09
-5.06666e-10
4.89915e-09
-1.99454e-11
5.89378e-09
8.46424e-10
6.80219e-09
7.39063e-09
2.1458e-09
-6.77381e-12
5.49052e-11
-2.55832e-11
1.60246e-10
-5.50501e-11
2.67337e-10
-9.45728e-11
3.81504e-10
-1.36922e-10
5.12419e-10
-1.81337e-10
6.71514e-10
-2.36728e-10
8.6666e-10
-3.03058e-10
1.10036e-09
-3.77701e-10
1.37295e-09
-4.54277e-10
1.70689e-09
-5.23376e-10
2.11218e-09
-5.65159e-10
2.59376e-09
-5.45861e-10
3.17882e-09
-4.21707e-10
3.86165e-09
-1.35937e-10
4.6134e-09
3.86233e-10
5.37163e-09
1.19047e-09
5.99797e-09
6.32146e-09
2.25966e-09
-6.42718e-12
6.13407e-11
-2.45003e-11
1.78331e-10
-5.2939e-11
2.95789e-10
-9.15649e-11
4.20142e-10
-1.37791e-10
5.58659e-10
-1.85599e-10
7.19335e-10
-2.32896e-10
9.1397e-10
-2.76242e-10
1.14371e-09
-3.2393e-10
1.42065e-09
-3.68653e-10
1.75163e-09
-3.98059e-10
2.1416e-09
-3.95555e-10
2.59127e-09
-3.27873e-10
3.11115e-09
-1.51229e-10
3.68503e-09
1.80121e-10
4.28207e-09
7.09693e-10
4.84207e-09
1.44925e-09
5.25843e-09
5.41681e-09
2.35391e-09
-5.94847e-12
6.72982e-11
-2.27585e-11
1.95154e-10
-4.91417e-11
3.22186e-10
-8.46503e-11
4.55665e-10
-1.28033e-10
6.02055e-10
-1.76705e-10
7.68023e-10
-2.24853e-10
9.62133e-10
-2.66033e-10
1.18491e-09
-2.97356e-10
1.45199e-09
-3.10149e-10
1.76444e-09
-2.91166e-10
2.12263e-09
-2.37419e-10
2.53754e-09
-1.20973e-10
2.99472e-09
9.61331e-11
3.46794e-09
4.50099e-10
3.92812e-09
9.62314e-10
4.32988e-09
1.62924e-09
4.59152e-09
4.6447e-09
2.40135e-09
-4.55913e-12
7.18669e-11
-1.73396e-11
2.07949e-10
-3.73114e-11
3.42172e-10
-6.3742e-11
4.8211e-10
-9.55443e-11
6.33873e-10
-1.30781e-10
8.03275e-10
-1.65543e-10
9.9691e-10
-1.97206e-10
1.21659e-09
-2.17264e-10
1.47206e-09
-2.17466e-10
1.76465e-09
-1.85314e-10
2.09049e-09
-1.08484e-10
2.46073e-09
2.72494e-11
2.859e-09
2.3661e-10
3.25859e-09
5.41092e-10
3.62365e-09
9.52306e-10
3.91868e-09
1.45985e-09
4.084e-09
4.07941e-09
2.02516e-09
-4.51708e-12
7.63943e-11
-1.71805e-11
2.20626e-10
-3.66678e-11
3.61675e-10
-6.18037e-11
5.07261e-10
-9.09825e-11
6.63067e-10
-1.21778e-10
8.34086e-10
-1.50165e-10
1.02531e-09
-1.72332e-10
1.23877e-09
-1.7927e-10
1.47901e-09
-1.61496e-10
1.7469e-09
-1.09325e-10
2.03834e-09
-2.2009e-12
2.35362e-09
1.76931e-10
2.67989e-09
4.35979e-10
2.99956e-09
7.77797e-10
3.28185e-09
1.21297e-09
3.48352e-09
1.72693e-09
3.57005e-09
3.52513e-09
2.28122e-09
-4.03148e-12
8.04375e-11
-1.51986e-11
2.31808e-10
-3.1902e-11
3.78394e-10
-5.23877e-11
5.27763e-10
-7.43195e-11
6.85015e-10
-9.44517e-11
8.54234e-10
-1.07998e-10
1.03888e-09
-1.09507e-10
1.2403e-09
-9.02228e-11
1.45975e-09
-3.96099e-11
1.6963e-09
5.36241e-11
1.94512e-09
2.06323e-10
2.20094e-09
4.33194e-10
2.45303e-09
7.46518e-10
2.68626e-09
1.14627e-09
2.88212e-09
1.62398e-09
3.00582e-09
2.15639e-09
3.03766e-09
2.97119e-09
2.71034e-09
-2.83257e-12
8.32833e-11
-1.03883e-11
2.39379e-10
-2.08483e-11
3.88869e-10
-3.18214e-11
5.38752e-10
-4.01477e-11
6.93358e-10
-4.16171e-11
8.55721e-10
-3.055e-11
1.02783e-09
-2.0484e-13
1.20997e-09
5.82914e-11
1.40127e-09
1.55542e-10
1.59906e-09
3.02622e-10
1.79805e-09
5.12214e-10
1.99136e-09
7.9584e-10
2.16942e-09
1.16214e-09
2.31997e-09
1.61453e-09
2.42975e-09
2.137e-09
2.48337e-09
2.70393e-09
2.47074e-09
2.39101e-09
3.28412e-09
-6.0284e-13
8.38999e-11
-1.66749e-12
2.4046e-10
-1.24927e-12
3.88467e-10
3.57298e-12
5.33947e-10
1.66736e-11
6.80274e-10
4.30252e-11
8.29386e-10
8.88678e-11
9.81999e-10
1.61474e-10
1.13738e-09
2.6933e-10
1.29342e-09
4.21701e-10
1.44671e-09
6.27591e-10
1.59218e-09
8.95353e-10
1.72362e-09
1.23107e-09
1.83373e-09
1.63643e-09
1.91462e-09
2.1075e-09
1.9587e-09
2.6314e-09
1.95948e-09
3.18885e-09
1.91329e-09
1.8227e-09
3.75718e-09
2.85297e-12
8.10608e-11
1.16837e-11
2.31644e-10
2.82921e-11
3.71875e-10
5.57645e-11
5.0649e-10
9.82529e-11
6.37802e-10
1.60886e-10
7.66769e-10
2.49696e-10
8.93204e-10
3.71282e-10
1.01581e-09
5.32731e-10
1.13199e-09
7.40726e-10
1.23873e-09
1.00103e-09
1.33189e-09
1.31761e-09
1.40705e-09
1.69166e-09
1.45969e-09
2.12074e-09
1.48557e-09
2.59809e-09
1.48136e-09
3.11242e-09
1.44517e-09
3.64867e-09
1.37705e-09
1.28076e-09
4.19062e-09
7.18259e-12
7.38927e-11
2.90055e-11
2.09836e-10
6.6431e-11
3.34464e-10
1.22055e-10
4.50881e-10
1.99468e-10
5.60405e-10
3.02966e-10
6.63286e-10
4.37294e-10
7.58889e-10
6.07325e-10
8.45791e-10
8.17378e-10
9.21952e-10
1.07111e-09
9.85009e-10
1.37061e-09
1.0324e-09
1.71604e-09
1.06164e-09
2.10516e-09
1.07058e-09
2.53307e-09
1.05767e-09
2.9923e-09
1.02215e-09
3.4732e-09
9.64292e-10
3.96482e-09
8.85447e-10
7.88982e-10
4.45661e-09
1.27925e-11
6.11157e-11
4.92873e-11
1.73358e-10
1.09299e-10
2.74469e-10
1.94059e-10
3.66137e-10
3.05609e-10
4.48871e-10
4.46363e-10
5.22547e-10
6.18765e-10
5.86501e-10
8.24935e-10
6.39636e-10
1.06628e-09
6.8062e-10
1.3432e-09
7.08101e-10
1.65476e-09
7.20858e-10
1.99847e-09
7.17943e-10
2.37027e-09
6.98801e-10
2.76457e-09
6.63377e-10
3.17456e-09
6.12173e-10
3.59259e-09
5.46273e-10
4.0108e-09
4.67259e-10
3.7774e-10
4.42205e-09
1.0247e-11
5.08831e-11
3.94276e-11
1.44192e-10
8.65857e-11
2.27326e-10
1.51492e-10
3.01245e-10
2.34291e-10
3.66086e-10
3.3524e-10
4.21612e-10
4.54514e-10
4.67241e-10
5.92017e-10
5.02146e-10
7.47212e-10
5.25439e-10
9.18993e-10
5.36334e-10
1.1056e-09
5.34262e-10
1.30462e-09
5.18942e-10
1.51299e-09
4.90443e-10
1.72717e-09
4.49215e-10
1.94327e-09
3.9609e-10
2.1573e-09
3.32256e-10
2.3654e-09
2.59166e-10
1.78869e-10
2.56429e-09
9.09961e-12
4.17978e-11
3.50013e-11
1.18306e-10
7.63777e-11
1.85965e-10
1.32374e-10
2.45264e-10
2.0235e-10
2.96124e-10
2.8571e-10
3.38266e-10
3.81777e-10
3.71189e-10
4.89675e-10
3.94262e-10
6.08237e-10
4.0689e-10
7.35944e-10
4.0864e-10
8.70915e-10
3.99305e-10
1.01092e-09
3.78948e-10
1.15346e-09
3.47917e-10
1.29584e-09
3.0685e-10
1.4353e-09
2.56644e-10
1.56916e-09
1.98418e-10
1.6949e-09
1.33434e-10
6.3319e-11
1.81047e-09
7.91046e-12
3.39015e-11
3.03351e-11
9.5897e-11
6.58006e-11
1.50516e-10
1.13161e-10
1.97919e-10
1.7139e-10
2.3791e-10
2.39474e-10
2.70196e-10
3.1636e-10
2.94317e-10
4.0088e-10
3.09756e-10
4.91689e-10
3.16096e-10
5.87239e-10
3.13104e-10
6.85788e-10
3.0077e-10
7.85433e-10
2.79317e-10
8.84151e-10
2.49213e-10
9.79866e-10
2.1115e-10
1.07053e-09
1.65991e-10
1.15424e-09
1.1473e-10
1.22924e-09
5.84475e-11
-1.55282e-12
1.29413e-09
6.84716e-12
2.70681e-11
2.61296e-11
7.66306e-11
5.6341e-11
1.2032e-10
9.62403e-11
1.58035e-10
1.44622e-10
1.89543e-10
2.00296e-10
2.14537e-10
2.62086e-10
2.32542e-10
3.28769e-10
2.43087e-10
3.99033e-10
2.45847e-10
4.71462e-10
2.4069e-10
5.44546e-10
2.27701e-10
6.16719e-10
2.07158e-10
6.86373e-10
1.79574e-10
7.51886e-10
1.45652e-10
8.11711e-10
1.06181e-10
8.64435e-10
6.20218e-11
9.08809e-10
1.40879e-11
-3.65623e-11
9.43834e-10
5.95972e-12
2.1122e-11
2.25433e-11
6.0063e-11
4.82692e-11
9.46108e-11
8.1911e-11
1.2441e-10
1.22171e-10
1.49299e-10
1.67838e-10
1.68886e-10
2.17784e-10
1.82611e-10
2.70883e-10
1.90004e-10
3.25965e-10
1.90779e-10
3.81823e-10
1.84846e-10
4.37207e-10
1.72331e-10
4.90889e-10
1.53491e-10
5.4159e-10
1.28887e-10
5.88029e-10
9.92278e-11
6.29021e-10
6.52042e-11
6.63507e-10
2.75509e-11
6.90552e-10
-1.2943e-11
-5.54101e-11
7.09414e-10
5.23081e-12
1.59037e-11
1.94439e-11
4.58653e-11
4.12488e-11
7.28217e-11
6.95172e-11
9.61565e-11
1.02933e-10
1.15899e-10
1.40388e-10
1.31446e-10
1.80956e-10
1.42058e-10
2.23691e-10
1.47284e-10
2.67618e-10
1.46867e-10
3.1174e-10
1.40738e-10
3.55034e-10
1.29052e-10
3.96605e-10
1.11934e-10
4.35373e-10
9.01328e-11
4.70246e-10
6.43697e-11
5.00332e-10
3.51335e-11
5.24829e-10
3.06773e-12
5.43024e-10
-3.11239e-11
-6.67108e-11
5.54338e-10
4.54811e-12
1.13669e-11
1.64363e-11
3.3992e-11
3.45393e-11
5.4734e-11
5.77844e-11
7.29267e-11
8.52594e-11
8.84393e-11
1.16074e-10
1.00647e-10
1.49438e-10
1.0871e-10
1.84465e-10
1.12272e-10
2.20279e-10
1.11068e-10
2.56013e-10
1.0502e-10
2.90748e-10
9.43314e-11
3.23766e-10
7.8931e-11
3.54258e-10
5.96555e-11
3.81363e-10
3.72809e-11
4.04462e-10
1.20492e-11
4.22933e-10
-1.5389e-11
4.3624e-10
-4.44175e-11
-7.44678e-11
4.4401e-10
3.57718e-12
7.80013e-12
1.30999e-11
2.44839e-11
2.7788e-11
4.00614e-11
4.64038e-11
5.43261e-11
6.85264e-11
6.63328e-11
9.36199e-11
7.557e-11
1.20746e-10
8.16001e-11
1.48988e-10
8.40451e-11
1.77573e-10
8.24993e-11
2.05821e-10
7.67874e-11
2.33144e-10
6.70236e-11
2.58562e-10
5.35292e-11
2.81709e-10
3.65243e-11
3.0256e-10
1.64464e-11
3.2069e-10
-6.06585e-12
3.35595e-10
-3.02802e-11
3.46819e-10
-5.56286e-11
-8.13715e-11
3.53737e-10
2.07107e-12
5.7429e-12
9.16074e-12
1.74123e-11
2.02745e-11
2.89669e-11
3.43472e-11
4.02722e-11
5.03235e-11
5.03763e-11
6.73748e-11
5.85382e-11
8.52521e-11
6.37419e-11
1.03977e-10
6.53388e-11
1.23606e-10
6.28888e-11
1.44133e-10
5.62783e-11
1.65366e-10
4.58087e-11
1.87157e-10
3.17562e-11
2.08834e-10
1.4866e-11
2.28933e-10
-3.63411e-12
2.4609e-10
-2.32068e-11
2.59036e-10
-4.32106e-11
2.66624e-10
-6.32026e-11
-8.27136e-11
2.67981e-10
-4.24864e-13
6.18498e-12
2.43089e-12
1.45777e-11
9.02563e-12
2.23945e-11
2.02313e-11
2.90889e-11
3.65354e-11
3.4095e-11
5.79651e-11
3.7131e-11
8.39645e-11
3.77648e-11
1.13459e-10
3.58656e-11
1.44842e-10
3.15276e-11
1.7609e-10
2.50515e-11
2.04997e-10
1.69226e-11
2.29213e-10
7.56207e-12
2.46583e-10
-2.48205e-12
2.55497e-10
-1.25272e-11
2.54617e-10
-2.23083e-11
2.43098e-10
-3.16737e-11
2.20383e-10
-4.04716e-11
-4.87198e-11
1.86407e-10
6.18653e-12
2.07658e-11
4.31623e-11
7.22533e-11
1.06351e-10
1.43484e-10
1.81251e-10
2.1712e-10
2.4865e-10
2.73705e-10
2.90631e-10
2.98196e-10
2.95718e-10
2.83195e-10
2.6089e-10
2.2922e-10
1.88752e-10
1.40038e-10
-5.65097e-09
5.65097e-09
-1.32739e-08
7.62297e-09
-2.14537e-08
8.17979e-09
-2.96511e-08
8.19735e-09
-3.72478e-08
7.59672e-09
-4.36767e-08
6.42888e-09
-4.86748e-08
4.99807e-09
-5.23147e-08
3.63997e-09
-5.4918e-08
2.6033e-09
-5.69879e-08
2.06991e-09
-5.92195e-08
2.23156e-09
-6.26467e-08
3.4272e-09
-6.89825e-08
6.33583e-09
-7.60933e-08
7.11076e-09
-8.10237e-08
4.93035e-09
-8.48091e-08
3.78543e-09
-8.84594e-08
3.65033e-09
-9.23033e-08
3.84389e-09
-9.63414e-08
4.03809e-09
-1.00511e-07
4.1699e-09
-1.04768e-07
4.25646e-09
-1.09088e-07
4.3206e-09
-1.13467e-07
4.37862e-09
-1.17909e-07
4.44233e-09
-1.2243e-07
4.52045e-09
-1.27049e-07
4.61882e-09
-1.31789e-07
4.74027e-09
-1.36674e-07
4.88482e-09
-1.41724e-07
5.05008e-09
-1.46956e-07
5.23173e-09
-1.5238e-07
5.4241e-09
-1.58e-07
5.62068e-09
-1.63815e-07
5.81466e-09
-1.69814e-07
5.99928e-09
-1.75982e-07
6.16819e-09
-1.82298e-07
6.31569e-09
-1.88735e-07
6.43691e-09
-1.95263e-07
6.52792e-09
-2.01849e-07
6.58574e-09
-2.08457e-07
6.60833e-09
-2.15052e-07
6.59449e-09
-2.21595e-07
6.54376e-09
-2.28052e-07
6.45621e-09
-2.34384e-07
6.33229e-09
-2.40556e-07
6.1726e-09
-2.46534e-07
5.97772e-09
-2.52282e-07
5.74806e-09
-2.57766e-07
5.48368e-09
-2.6295e-07
5.1843e-09
-2.678e-07
4.84927e-09
-2.72277e-07
4.47764e-09
-2.76345e-07
4.06829e-09
-2.79966e-07
3.62012e-09
-2.83098e-07
3.13219e-09
-2.85702e-07
2.60394e-09
-2.87737e-07
2.0353e-09
-2.89164e-07
1.42678e-09
-2.89943e-07
7.79477e-10
-2.90038e-07
9.50949e-11
-2.89414e-07
-6.24151e-10
-2.88039e-07
-1.37563e-09
-2.85882e-07
-2.15641e-09
-2.82919e-07
-2.96343e-09
-2.79125e-07
-3.79361e-09
-2.74481e-07
-4.64392e-09
-2.6897e-07
-5.51146e-09
-2.62577e-07
-6.39338e-09
-2.5529e-07
-7.28674e-09
-2.47102e-07
-8.18824e-09
-2.38008e-07
-9.09388e-09
-2.28009e-07
-9.99845e-09
-2.17114e-07
-1.08952e-08
-2.05339e-07
-1.17752e-08
-1.92712e-07
-1.26273e-08
-1.79274e-07
-1.3438e-08
-1.65082e-07
-1.41913e-08
-1.50213e-07
-1.48695e-08
-1.34759e-07
-1.54535e-08
-1.18835e-07
-1.59239e-08
-1.02574e-07
-1.62614e-08
-8.61258e-08
-1.64483e-08
-6.96564e-08
-1.64694e-08
-5.33434e-08
-1.6313e-08
-3.73709e-08
-1.59725e-08
-2.19232e-08
-1.54477e-08
-7.17776e-09
-1.47455e-08
6.7033e-09
-1.38811e-08
1.95816e-08
-1.28783e-08
3.13508e-08
-1.17693e-08
4.19442e-08
-1.05935e-08
5.13407e-08
-9.39651e-09
5.95683e-08
-8.22771e-09
6.67065e-08
-7.13818e-09
7.28847e-08
-6.17816e-09
7.82794e-08
-5.39468e-09
8.31085e-08
-4.82908e-09
8.76233e-08
-4.5148e-09
9.20991e-08
-4.4757e-09
9.68243e-08
-4.72522e-09
1.0209e-07
-5.26555e-09
1.08177e-07
-6.08678e-09
1.15343e-07
-7.16631e-09
1.23812e-07
-8.46911e-09
1.33761e-07
-9.94889e-09
1.45311e-07
-1.15498e-08
1.58521e-07
-1.32093e-08
1.73381e-07
-1.48603e-08
1.89815e-07
-1.6434e-08
2.07675e-07
-1.78598e-08
2.26743e-07
-1.90684e-08
2.46742e-07
-1.99988e-08
2.67344e-07
-2.06012e-08
2.88188e-07
-2.08446e-08
3.08883e-07
-2.06952e-08
3.2916e-07
-2.02764e-08
3.49306e-07
-2.0146e-08
3.68576e-07
-1.92699e-08
3.83603e-07
-1.50267e-08
3.97564e-07
-1.39613e-08
4.09736e-07
-1.2172e-08
4.18033e-07
-8.29659e-09
4.23186e-07
-5.15349e-09
4.25229e-07
-2.04274e-09
4.24168e-07
1.06045e-09
4.20069e-07
4.09967e-09
4.13059e-07
7.00943e-09
4.03326e-07
9.73371e-09
3.91091e-07
1.22351e-08
3.76593e-07
1.44978e-08
3.60065e-07
1.65275e-08
3.41716e-07
1.83497e-08
3.2171e-07
2.00056e-08
3.00164e-07
2.15455e-08
2.77144e-07
2.30203e-08
2.52673e-07
2.44708e-08
2.26755e-07
2.59182e-08
1.99414e-07
2.73408e-08
1.70645e-07
2.87689e-08
1.40434e-07
3.02113e-08
1.08871e-07
3.15634e-08
7.61053e-08
3.27652e-08
4.2366e-08
3.37393e-08
7.9592e-09
3.44067e-08
-2.67277e-08
3.46869e-08
-6.12331e-08
3.45053e-08
-9.50323e-08
3.37992e-08
-1.27555e-07
3.25223e-08
-1.58206e-07
3.0651e-08
-1.86395e-07
2.81894e-08
-2.11571e-07
2.5176e-08
-2.33253e-07
2.16818e-08
-2.51057e-07
1.78036e-08
-2.64717e-07
1.36601e-08
-2.74104e-07
9.38687e-09
-2.79234e-07
5.13077e-09
-2.80276e-07
1.04151e-09
-2.77535e-07
-2.7407e-09
-2.71445e-07
-6.08959e-09
-2.62547e-07
-8.89853e-09
-2.51452e-07
-1.10946e-08
-2.38801e-07
-1.26511e-08
-2.25201e-07
-1.35996e-08
-2.11162e-07
-1.40389e-08
-1.97054e-07
-1.41084e-08
-1.83087e-07
-1.3967e-08
-1.69291e-07
-1.37958e-08
-1.55478e-07
-1.38127e-08
-1.41244e-07
-1.42341e-08
-1.26038e-07
-1.52066e-08
-1.09265e-07
-1.67726e-08
-9.03984e-08
-1.88666e-08
-6.91425e-08
-2.12559e-08
-4.5635e-08
-2.35075e-08
-2.07964e-08
-2.48387e-08
2.94811e-09
-2.37445e-08
2.52452e-08
-2.22971e-08
5.36119e-08
-2.83666e-08
8.69197e-08
-3.33079e-08
1.11228e-07
-2.43084e-08
-9.5291e-09
1.20757e-07
-8.45781e-09
1.41088e-08
-1.13294e-08
1.04946e-08
-1.27752e-08
9.62562e-09
-1.40645e-08
9.48667e-09
-1.59186e-08
9.45072e-09
-1.87271e-08
9.23738e-09
-2.25361e-08
8.80708e-09
-2.71898e-08
8.29367e-09
-3.24656e-08
7.87911e-09
-3.81208e-08
7.72514e-09
-4.38476e-08
7.95832e-09
-4.9089e-08
8.6686e-09
-5.25442e-08
9.79101e-09
-5.59609e-08
1.05275e-08
-6.11552e-08
1.01247e-08
-6.68675e-08
9.49777e-09
-7.22982e-08
9.08099e-09
-7.73289e-08
8.87455e-09
-8.20796e-08
8.78879e-09
-8.66789e-08
8.76924e-09
-9.12204e-08
8.79791e-09
-9.57738e-08
8.87405e-09
-1.00398e-07
9.00256e-09
-1.05144e-07
9.18886e-09
-1.1006e-07
9.43644e-09
-1.15187e-07
9.74553e-09
-1.20559e-07
1.01126e-08
-1.26205e-07
1.05302e-08
-1.32142e-07
1.09877e-08
-1.38382e-07
1.14714e-08
-1.44924e-07
1.19663e-08
-1.51759e-07
1.24559e-08
-1.58869e-07
1.29243e-08
-1.66226e-07
1.33559e-08
-1.73795e-07
1.37372e-08
-1.81536e-07
1.40564e-08
-1.89403e-07
1.43043e-08
-1.97349e-07
1.44743e-08
-2.05326e-07
1.45623e-08
-2.13284e-07
1.45668e-08
-2.21178e-07
1.44882e-08
-2.28963e-07
1.43285e-08
-2.36597e-07
1.40907e-08
-2.44043e-07
1.37782e-08
-2.51265e-07
1.33947e-08
-2.58231e-07
1.29429e-08
-2.64908e-07
1.2425e-08
-2.71266e-07
1.18416e-08
-2.77274e-07
1.11924e-08
-2.829e-07
1.04758e-08
-2.88112e-07
9.68913e-09
-2.92873e-07
8.82937e-09
-2.97146e-07
7.89321e-09
-3.00891e-07
6.87778e-09
-3.04068e-07
5.78093e-09
-3.06635e-07
4.60165e-09
-3.08548e-07
3.34024e-09
-3.09767e-07
1.99848e-09
-3.10252e-07
5.79504e-10
-3.09964e-07
-9.12256e-10
-3.08868e-07
-2.47131e-09
-3.06933e-07
-4.09141e-09
-3.04131e-07
-5.76582e-09
-3.00437e-07
-7.48761e-09
-2.95831e-07
-9.24982e-09
-2.90297e-07
-1.10456e-08
-2.83822e-07
-1.28679e-08
-2.76399e-07
-1.47096e-08
-2.68025e-07
-1.65627e-08
-2.58701e-07
-1.84178e-08
-2.48436e-07
-2.02633e-08
-2.37246e-07
-2.2085e-08
-2.25157e-07
-2.38649e-08
-2.12203e-07
-2.5581e-08
-1.98434e-07
-2.72069e-08
-1.83913e-07
-2.87122e-08
-1.6872e-07
-3.00626e-08
-1.52952e-07
-3.12212e-08
-1.36726e-07
-3.21499e-08
-1.20177e-07
-3.28108e-08
-1.03456e-07
-3.31689e-08
-8.67317e-08
-3.3194e-08
-7.01811e-08
-3.28636e-08
-5.39878e-08
-3.21659e-08
-3.83337e-08
-3.11018e-08
-2.33912e-08
-2.9688e-08
-9.31454e-09
-2.79579e-08
3.76943e-09
-2.59624e-08
1.57694e-08
-2.37694e-08
2.66374e-08
-2.14615e-08
3.6374e-08
-1.91332e-08
4.50325e-08
-1.68862e-08
5.27187e-08
-1.48244e-08
5.95896e-08
-1.30491e-08
6.58486e-08
-1.16536e-08
7.1738e-08
-1.07185e-08
7.75305e-08
-1.03072e-08
8.35173e-08
-1.04625e-08
8.99971e-08
-1.1205e-08
9.72636e-08
-1.2532e-08
1.05592e-07
-1.44155e-08
1.15228e-07
-1.68014e-08
1.26369e-07
-1.96101e-08
1.3916e-07
-2.27398e-08
1.5368e-07
-2.60707e-08
1.69943e-07
-2.94713e-08
1.87887e-07
-3.28045e-08
2.07385e-07
-3.59323e-08
2.2824e-07
-3.87147e-08
2.50186e-07
-4.10143e-08
2.72899e-07
-4.27121e-08
2.96e-07
-4.37016e-08
3.19059e-07
-4.39039e-08
3.4162e-07
-4.32558e-08
3.63128e-07
-4.17842e-08
3.82633e-07
-3.96511e-08
4.0857e-07
-4.52072e-08
4.21655e-07
-2.81116e-08
4.34441e-07
-2.67472e-08
4.44953e-07
-2.26842e-08
4.53744e-07
-1.70873e-08
4.59438e-07
-1.0847e-08
4.61736e-07
-4.34089e-09
4.60599e-07
2.19714e-09
4.56109e-07
8.58992e-09
4.48427e-07
1.46912e-08
4.37774e-07
2.03872e-08
4.24405e-07
2.56034e-08
4.08594e-07
3.0309e-08
3.90605e-07
3.45168e-08
3.70675e-07
3.82798e-08
3.48998e-07
4.16823e-08
3.25717e-07
4.48267e-08
3.00921e-07
4.78163e-08
2.74654e-07
5.07383e-08
2.46925e-07
5.3647e-08
2.17717e-07
5.65492e-08
1.87054e-07
5.94315e-08
1.55016e-07
6.22498e-08
1.21687e-07
6.4892e-08
8.72406e-08
6.72114e-08
5.19373e-08
6.90425e-08
1.61183e-08
7.02257e-08
-1.97906e-08
7.05957e-08
-5.529e-08
7.00046e-08
-8.98234e-08
6.83326e-08
-1.22799e-07
6.54981e-08
-1.53616e-07
6.14672e-08
-1.81687e-07
5.62613e-08
-2.06478e-07
4.99669e-08
-2.27529e-07
4.27325e-08
-2.44482e-07
3.47568e-08
-2.57105e-07
2.62826e-08
-2.65305e-07
1.75876e-08
-2.69146e-07
8.97193e-09
-2.68845e-07
7.40441e-10
-2.64763e-07
-6.82352e-09
-2.57383e-07
-1.34686e-08
-2.47295e-07
-1.89872e-08
-2.35148e-07
-2.32413e-08
-2.21615e-07
-2.61845e-08
-2.0733e-07
-2.7884e-08
-1.9283e-07
-2.85392e-08
-1.78503e-07
-2.8435e-08
-1.64571e-07
-2.7899e-08
-1.5107e-07
-2.72975e-08
-1.37828e-07
-2.70544e-08
-1.24481e-07
-2.75811e-08
-1.10535e-07
-2.91527e-08
-9.54706e-08
-3.18367e-08
-7.88578e-08
-3.54794e-08
-6.0507e-08
-3.96066e-08
-4.06298e-08
-4.33847e-08
-1.98346e-08
-4.56338e-08
1.2776e-09
-4.48567e-08
2.42956e-08
-4.53151e-08
5.06412e-08
-5.47123e-08
7.64828e-08
-5.91496e-08
9.94328e-08
-4.72585e-08
-3.02426e-08
1.20146e-07
-9.08467e-09
2.31934e-08
-1.40576e-08
1.54675e-08
-1.59179e-08
1.1486e-08
-1.64166e-08
9.98531e-09
-1.68226e-08
9.85673e-09
-1.78396e-08
1.02544e-08
-1.97747e-08
1.07422e-08
-2.26591e-08
1.1178e-08
-2.63576e-08
1.15777e-08
-3.06432e-08
1.20107e-08
-3.52233e-08
1.25384e-08
-3.97247e-08
1.317e-08
-4.37379e-08
1.38041e-08
-4.73849e-08
1.41745e-08
-5.13666e-08
1.41064e-08
-5.56894e-08
1.38206e-08
-6.01371e-08
1.35286e-08
-6.45757e-08
1.33132e-08
-6.8976e-08
1.31891e-08
-7.3364e-08
1.31572e-08
-7.77866e-08
1.32205e-08
-8.2297e-08
1.33845e-08
-8.69492e-08
1.36547e-08
-9.17945e-08
1.40343e-08
-9.68799e-08
1.45218e-08
-1.02246e-07
1.51112e-08
-1.07924e-07
1.57907e-08
-1.13937e-07
1.65436e-08
-1.20298e-07
1.7349e-08
-1.2701e-07
1.81827e-08
-1.34062e-07
1.90187e-08
-1.41437e-07
1.98304e-08
-1.49105e-07
2.05921e-08
-1.57029e-07
2.12802e-08
-1.65166e-07
2.18741e-08
-1.73467e-07
2.23573e-08
-1.8188e-07
2.27176e-08
-1.90353e-07
2.29471e-08
-1.98833e-07
2.30425e-08
-2.0727e-07
2.30043e-08
-2.15618e-07
2.28359e-08
-2.23833e-07
2.25434e-08
-2.31876e-07
2.21337e-08
-2.39712e-07
2.16143e-08
-2.47309e-07
2.09921e-08
-2.54639e-07
2.02722e-08
-2.61672e-07
1.94581e-08
-2.68381e-07
1.85508e-08
-2.74737e-07
1.75486e-08
-2.80709e-07
1.64479e-08
-2.86264e-07
1.52433e-08
-2.91363e-07
1.39284e-08
-2.95966e-07
1.24968e-08
-3.00031e-07
1.09427e-08
-3.03512e-07
9.26184e-09
-3.06363e-07
7.45211e-09
-3.08536e-07
5.51377e-09
-3.09987e-07
3.44968e-09
-3.10673e-07
1.26517e-09
-3.10553e-07
-1.03221e-09
-3.09591e-07
-3.43312e-09
-3.07756e-07
-5.92693e-09
-3.05019e-07
-8.50228e-09
-3.01359e-07
-1.11476e-08
-2.96758e-07
-1.38515e-08
-2.912e-07
-1.66028e-08
-2.84678e-07
-1.93904e-08
-2.77184e-07
-2.22032e-08
-2.68718e-07
-2.50291e-08
-2.59282e-07
-2.78541e-08
-2.48883e-07
-3.06617e-08
-2.37537e-07
-3.34312e-08
-2.25265e-07
-3.61368e-08
-2.12099e-07
-3.8747e-08
-1.98082e-07
-4.12237e-08
-1.83273e-07
-4.3522e-08
-1.67744e-07
-4.5591e-08
-1.51591e-07
-4.73748e-08
-1.34926e-07
-4.88145e-08
-1.17886e-07
-4.98511e-08
-1.00626e-07
-5.04285e-08
-8.33217e-08
-5.04984e-08
-6.61612e-08
-5.00241e-08
-4.93415e-08
-4.89856e-08
-3.30594e-08
-4.7384e-08
-1.75024e-08
-4.5245e-08
-2.83877e-09
-4.26215e-08
1.07928e-08
-3.9594e-08
2.32929e-08
-3.62696e-08
3.46098e-08
-3.27786e-08
4.47459e-08
-2.92694e-08
5.37607e-08
-2.5901e-08
6.17713e-08
-2.2835e-08
6.89494e-08
-2.02272e-08
7.55153e-08
-1.82195e-08
8.17297e-08
-1.69328e-08
8.78818e-08
-1.64592e-08
9.42767e-08
-1.68574e-08
1.01223e-07
-1.81514e-08
1.09021e-07
-2.03298e-08
1.17948e-07
-2.3342e-08
1.28244e-07
-2.70976e-08
1.40101e-07
-3.14669e-08
1.53648e-07
-3.62874e-08
1.68948e-07
-4.13702e-08
1.85989e-07
-4.6512e-08
2.04689e-07
-5.15045e-08
2.249e-07
-5.61438e-08
2.46412e-07
-6.02263e-08
2.6895e-07
-6.35518e-08
2.92193e-07
-6.59556e-08
3.15776e-07
-6.72841e-08
3.39311e-07
-6.74388e-08
3.62438e-07
-6.63831e-08
3.83258e-07
-6.26039e-08
4.06025e-07
-6.24178e-08
4.17918e-07
-5.71007e-08
4.38163e-07
-4.83564e-08
4.52559e-07
-4.11435e-08
4.63155e-07
-3.328e-08
4.70454e-07
-2.43862e-08
4.74467e-07
-1.48599e-08
4.75127e-07
-5.00133e-09
4.72448e-07
4.87655e-09
4.66536e-07
1.45016e-08
4.57584e-07
2.36434e-08
4.45846e-07
3.21258e-08
4.31611e-07
3.98378e-08
4.15183e-07
4.67375e-08
3.96848e-07
5.28512e-08
3.7686e-07
5.82681e-08
3.55417e-07
6.31249e-08
3.32659e-07
6.75852e-08
3.08661e-07
7.18138e-08
2.83448e-07
7.59512e-08
2.57006e-07
8.00898e-08
2.29297e-07
8.42581e-08
2.00302e-07
8.84264e-08
1.7005e-07
9.25017e-08
1.38624e-07
9.63179e-08
1.06178e-07
9.96574e-08
7.29493e-08
1.02271e-07
3.92713e-08
1.03904e-07
5.55906e-09
1.04308e-07
-2.77019e-08
1.03266e-07
-5.99744e-08
1.00605e-07
-9.06927e-08
9.62163e-08
-1.19287e-07
9.00617e-08
-1.45209e-07
8.21828e-08
-1.67957e-07
7.27157e-08
-1.87111e-07
6.18856e-08
-2.02345e-07
4.99909e-08
-2.13458e-07
3.73963e-08
-2.2039e-07
2.45195e-08
-2.23232e-07
1.1814e-08
-2.22232e-07
-2.5982e-10
-2.1778e-07
-1.1276e-08
-2.10387e-07
-2.08608e-08
-2.00664e-07
-2.87106e-08
-1.89277e-07
-3.4628e-08
-1.7691e-07
-3.85516e-08
-1.64209e-07
-4.05853e-08
-1.51714e-07
-4.10334e-08
-1.39814e-07
-4.03354e-08
-1.28714e-07
-3.89985e-08
-1.1843e-07
-3.75817e-08
-1.08771e-07
-3.67135e-08
-9.9354e-08
-3.69981e-08
-8.96649e-08
-3.88418e-08
-7.91556e-08
-4.2346e-08
-6.73524e-08
-4.72825e-08
-5.39854e-08
-5.29737e-08
-3.90841e-08
-5.82859e-08
-2.27986e-08
-6.19194e-08
-4.83139e-09
-6.28239e-08
1.5456e-08
-6.56025e-08
3.66174e-08
-7.58736e-08
5.72887e-08
-7.98209e-08
7.89284e-08
-6.88983e-08
-5.44459e-08
1.03132e-07
-1.17684e-08
3.49619e-08
-1.70726e-08
2.07716e-08
-1.88794e-08
1.32928e-08
-1.8735e-08
9.84095e-09
-1.79568e-08
9.07845e-09
-1.74304e-08
9.72806e-09
-1.76478e-08
1.09596e-08
-1.87901e-08
1.23203e-08
-2.08201e-08
1.36077e-08
-2.35652e-08
1.47559e-08
-2.67813e-08
1.57544e-08
-3.02085e-08
1.65973e-08
-3.36547e-08
1.72503e-08
-3.71267e-08
1.76465e-08
-4.0786e-08
1.77657e-08
-4.46647e-08
1.76993e-08
-4.86961e-08
1.75601e-08
-5.28141e-08
1.74311e-08
-5.6991e-08
1.7366e-08
-6.12347e-08
1.7401e-08
-6.55758e-08
1.75616e-08
-7.00568e-08
1.78654e-08
-7.4725e-08
1.83229e-08
-7.96271e-08
1.89364e-08
-8.4806e-08
1.97007e-08
-9.02974e-08
2.06026e-08
-9.61282e-08
2.16215e-08
-1.02315e-07
2.27304e-08
-1.08863e-07
2.38973e-08
-1.15767e-07
2.50865e-08
-1.23009e-07
2.62609e-08
-1.30562e-07
2.73833e-08
-1.38389e-07
2.84187e-08
-1.46445e-07
2.93359e-08
-1.54679e-07
3.01084e-08
-1.63037e-07
3.07159e-08
-1.71464e-07
3.11443e-08
-1.79903e-07
3.13861e-08
-1.88301e-07
3.144e-08
-1.96606e-07
3.13097e-08
-2.04773e-07
3.10032e-08
-2.12761e-07
3.0531e-08
-2.20532e-07
2.9905e-08
-2.28055e-07
2.91369e-08
-2.353e-07
2.82369e-08
-2.4224e-07
2.72123e-08
-2.48849e-07
2.60675e-08
-2.55101e-07
2.48026e-08
-2.60966e-07
2.3414e-08
-2.66413e-07
2.1895e-08
-2.71406e-07
2.0236e-08
-2.75905e-07
1.84268e-08
-2.79865e-07
1.6457e-08
-2.8324e-07
1.43182e-08
-2.85983e-07
1.20044e-08
-2.88044e-07
9.51348e-09
-2.89377e-07
6.84705e-09
-2.89939e-07
4.01081e-09
-2.89688e-07
1.01414e-09
-2.88589e-07
-2.13042e-09
-2.86615e-07
-5.40791e-09
-2.8374e-07
-8.80187e-09
-2.79947e-07
-1.22953e-08
-2.75223e-07
-1.58717e-08
-2.69559e-07
-1.95153e-08
-2.6295e-07
-2.32113e-08
-2.55395e-07
-2.69458e-08
-2.46893e-07
-3.07054e-08
-2.37446e-07
-3.44756e-08
-2.2706e-07
-3.824e-08
-2.15744e-07
-4.19784e-08
-2.0351e-07
-4.56652e-08
-1.90379e-07
-4.92678e-08
-1.76381e-07
-5.27452e-08
-1.61557e-07
-5.60468e-08
-1.45968e-07
-5.91118e-08
-1.29689e-07
-6.18697e-08
-1.12822e-07
-6.42423e-08
-9.54903e-08
-6.61458e-08
-7.78462e-08
-6.74951e-08
-6.00653e-08
-6.82095e-08
-4.23458e-08
-6.8218e-08
-2.49025e-08
-6.74673e-08
-7.9596e-09
-6.59285e-08
8.2601e-09
-6.36037e-08
2.35461e-08
-6.05311e-08
3.77128e-08
-5.67882e-08
5.06111e-08
-5.24924e-08
6.21401e-08
-4.77987e-08
7.2256e-08
-4.28945e-08
8.09781e-08
-3.79916e-08
8.83926e-08
-3.33155e-08
9.46504e-08
-2.90929e-08
9.99623e-08
-2.55391e-08
1.0459e-07
-2.28474e-08
1.08836e-07
-2.11789e-08
1.13028e-07
-2.06509e-08
1.17502e-07
-2.13318e-08
1.22593e-07
-2.32416e-08
1.28616e-07
-2.63533e-08
1.35862e-07
-3.05878e-08
1.44576e-07
-3.58111e-08
1.54945e-07
-4.18366e-08
1.67093e-07
-4.84344e-08
1.81064e-07
-5.53413e-08
1.96829e-07
-6.22776e-08
2.14286e-07
-6.89614e-08
2.33266e-07
-7.5123e-08
2.53539e-07
-8.04998e-08
2.74811e-07