/*--------------------------------*- C++ -*----------------------------------*\
| =========                 |                                                 |
| \\      /  F ield         | OpenFOAM: The Open Source CFD Toolbox           |
|  \\    /   O peration     | Version:  2112                                  |
|   \\  /    A nd           | Website:  www.openfoam.com                      |
|    \\/     M anipulation  |                                                 |
\*---------------------------------------------------------------------------*/
FoamFile
{
    version     2.0;
    format      ascii;
    arch        "LSB;label=32;scalar=64";
    class       volScalarField;
    location    "0.46";
    object      nut;
}
// * * * * * * * * * * * * * * * * * * * * * * * * * * * * * * * * * * * * * //

dimensions      [0 2 -1 0 0 0 0];

internalField   nonuniform List<scalar> 
12225
(
5.44253e-06
8.85186e-06
1.18524e-05
1.48661e-05
1.81856e-05
2.2004e-05
2.64538e-05
3.16331e-05
3.76112e-05
4.44326e-05
5.21155e-05
6.06518e-05
7.00108e-05
8.01438e-05
9.09929e-05
0.000102463
0.000114632
0.000127336
4.55011e-05
2.36367e-05
1.84999e-05
1.70037e-05
1.69881e-05
1.7804e-05
1.91916e-05
2.10138e-05
2.31721e-05
2.55813e-05
2.81673e-05
3.08717e-05
3.36597e-05
3.65273e-05
3.94991e-05
4.26581e-05
4.64693e-05
5.13399e-05
0.000378401
0.000141363
0.00010826
7.45048e-05
5.44794e-05
4.34103e-05
3.69026e-05
3.29523e-05
3.05597e-05
2.91699e-05
2.84575e-05
2.82276e-05
2.83643e-05
2.88004e-05
2.94972e-05
3.04398e-05
3.16369e-05
3.29983e-05
0.00124197
0.000932736
0.000530693
0.000355309
0.000261062
0.000209672
0.00018254
0.000149162
0.000124686
0.00010747
9.48855e-05
8.53681e-05
7.79511e-05
7.20244e-05
6.72025e-05
6.32406e-05
5.99876e-05
5.74297e-05
0.00146212
0.00142026
0.00123936
0.00107849
0.000890089
0.000730252
0.000610654
0.000528042
0.000472031
0.000436223
0.000388639
0.00034692
0.000313434
0.000285899
0.000262883
0.000243454
0.000226941
0.000213365
0.00151266
0.00150334
0.0014831
0.00144876
0.00130247
0.0011613
0.00105839
0.000983983
0.000929223
0.000891319
0.000869408
0.000856509
0.000843746
0.000795654
0.000749231
0.000707878
0.000635626
0.00056093
0.00151436
0.00151333
0.00151071
0.00150543
0.00144221
0.00132125
0.00124177
0.00119069
0.00115977
0.00114481
0.00114195
0.00114048
0.00112889
0.001097
0.00103724
0.000953923
0.000859028
0.000781804
0.00151437
0.00151409
0.00151375
0.00151315
0.00151211
0.00144221
0.00136012
0.00130622
0.00127481
0.00126005
0.00125304
0.0012437
0.00122202
0.00118202
0.00111994
0.00104102
0.000957056
0.000891451
0.00151427
0.00151396
0.00151376
0.00151366
0.00151362
0.00151358
0.00147855
0.00142133
0.00138298
0.0013591
0.001342
0.00132268
0.0012925
0.00124636
0.00118513
0.0011147
0.00104271
0.000986909
0.00151418
0.00151379
0.00151352
0.00151338
0.00151336
0.00151345
0.00151359
0.00151375
0.00148908
0.00146097
0.00143805
0.00141232
0.0013762
0.00132659
0.00126609
0.00120076
0.00113729
0.00108959
0.00151412
0.00151366
0.00151332
0.0015131
0.001513
0.001513
0.00151309
0.00151322
0.00151339
0.00151356
0.00151374
0.00149965
0.00146378
0.00141632
0.00135946
0.00130012
0.00124474
0.00120443
0.00151408
0.00151357
0.00151318
0.00151289
0.00151271
0.00151264
0.00151264
0.0015127
0.0015128
0.00151292
0.00151306
0.00151322
0.00151339
0.00149657
0.00144941
0.00139981
0.0013536
0.00132062
0.00151404
0.0015135
0.00151306
0.00151272
0.00151248
0.00151233
0.00151225
0.00151224
0.00151226
0.00151232
0.00151241
0.00151251
0.00151264
0.00151278
0.00151295
0.00149232
0.00145755
0.00143319
0.00151401
0.00151344
0.00151295
0.00151256
0.00151227
0.00151205
0.0015119
0.0015118
0.00151175
0.00151174
0.00151175
0.00151179
0.00151185
0.00151193
0.00151204
0.00151215
0.00151227
0.0015124
0.00151399
0.00151338
0.00151286
0.00151243
0.00151207
0.0015118
0.00151158
0.00151142
0.0015113
0.00151121
0.00151115
0.00151111
0.0015111
0.0015111
0.00151113
0.00151116
0.00151121
0.00151125
0.00151397
0.00151334
0.00151279
0.00151231
0.00151192
0.00151158
0.00151131
0.00151109
0.0015109
0.00151075
0.00151062
0.00151051
0.00151042
0.00151035
0.00151029
0.00151024
0.0015102
0.00151016
0.00151396
0.00151331
0.00151273
0.00151223
0.00151179
0.00151142
0.0015111
0.00151082
0.00151058
0.00151037
0.00151018
0.00151
0.00150985
0.0015097
0.00150957
0.00150944
0.00150932
0.00150921
0.00151395
0.0015133
0.00151271
0.00151218
0.00151172
0.00151131
0.00151096
0.00151064
0.00151035
0.00151009
0.00150985
0.00150962
0.0015094
0.0015092
0.001509
0.00150881
0.00150862
0.00150845
0.00151396
0.0015133
0.00151271
0.00151218
0.0015117
0.00151128
0.0015109
0.00151056
0.00151024
0.00150995
0.00150967
0.0015094
0.00150914
0.00150889
0.00150864
0.0015084
0.00150816
0.00150794
0.00151397
0.00151333
0.00151275
0.00151222
0.00151176
0.00151134
0.00151096
0.00151061
0.00151029
0.00150998
0.00150969
0.0015094
0.00150913
0.00150885
0.00150858
0.00150832
0.00150805
0.0015078
0.00151399
0.00151337
0.00151281
0.0015123
0.00151185
0.00151144
0.00151108
0.00151074
0.00151043
0.00151013
0.00150985
0.00150957
0.00150929
0.00150902
0.00150875
0.00150848
0.0015082
0.00150794
0.00151402
0.00151342
0.00151289
0.00151241
0.00151198
0.0015116
0.00151126
0.00151095
0.00151066
0.00151039
0.00151013
0.00150987
0.00150962
0.00150936
0.00150909
0.00150882
0.00150855
0.00150827
0.00151406
0.0015135
0.00151299
0.00151254
0.00151214
0.00151179
0.00151148
0.00151119
0.00151091
0.00151063
0.00151034
0.00151002
0.00150967
0.00150929
0.00150886
0.00150839
0.00150787
0.00150731
0.00151411
0.00151359
0.00151311
0.00151264
0.00151216
0.00151163
0.001511
0.0015102
0.00150919
0.00150792
0.00150635
0.00150445
0.00150221
0.00149963
0.00149672
0.0014935
0.00148998
0.00148619
0.00151415
0.00151348
0.0015124
0.00151055
0.00150756
0.00150308
0.00149676
0.00148835
0.00147772
0.00146484
0.00144984
0.00143293
0.00141441
0.0013946
0.00137383
0.00135238
0.00133051
0.00130844
0.00151289
0.00150707
0.00149382
0.00147024
0.00143592
0.00139085
0.00133585
0.00127285
0.00120457
0.00113398
0.00106378
0.000996113
0.000932668
0.000874229
0.000820875
0.000772401
0.000728485
0.000688762
0.00148117
0.00139612
0.00124963
0.00106999
0.000787371
0.000601353
0.000485513
0.000408014
0.000354244
0.000316797
0.000291137
0.000274408
0.000251117
0.000226433
0.000206325
0.000189693
0.00017576
0.000163961
0.000885689
0.000319603
0.000214728
0.000175185
0.000157414
0.000118573
9.41547e-05
7.7911e-05
6.66672e-05
5.86622e-05
5.28496e-05
4.85721e-05
4.5395e-05
4.30263e-05
4.12648e-05
3.99657e-05
3.90243e-05
3.8363e-05
9.96652e-05
4.4852e-05
3.05041e-05
2.47265e-05
2.21e-05
2.09575e-05
2.06587e-05
2.09093e-05
2.15549e-05
2.25033e-05
2.36923e-05
2.50743e-05
2.66102e-05
2.82659e-05
3.00108e-05
3.18191e-05
3.36714e-05
3.55544e-05
5.37152e-06
8.39345e-06
1.09997e-05
1.34368e-05
1.58725e-05
1.83003e-05
2.0916e-05
2.37875e-05
2.6951e-05
3.04298e-05
3.42401e-05
3.83921e-05
4.28904e-05
4.77339e-05
5.29161e-05
5.84244e-05
6.42459e-05
7.03482e-05
0.000864365
0.000872744
0.00088805
0.000907258
0.000927134
0.000945706
0.000962361
0.000977313
0.000991048
0.00100399
0.00101636
0.00102824
0.00103954
0.00103993
0.00103672
0.00103592
0.00103705
0.00103914
0.00104182
0.00104498
0.00104855
0.00105247
0.00105666
0.00106106
0.00106562
0.00107027
0.00107497
0.0010797
0.0010844
0.00108907
0.00109366
0.00109817
0.00110257
0.00110685
0.00111099
0.00111498
0.00111881
0.00112247
0.00112595
0.00112924
0.00113233
0.00113521
0.00113789
0.00114035
0.00114259
0.00114461
0.00114641
0.00114798
0.00114933
0.00115045
0.00115136
0.00115204
0.00115252
0.00115279
0.00115286
0.00115274
0.00115243
0.00115195
0.00115129
0.00115047
0.0011495
0.00114838
0.00114713
0.00114575
0.00114425
0.00114263
0.00114091
0.00113909
0.00113718
0.00113519
0.00113313
0.00113101
0.00112883
0.0011266
0.00112434
0.00112206
0.00111975
0.00111744
0.00111513
0.00111282
0.00111053
0.00110826
0.00110602
0.0011038
0.00110161
0.00109944
0.0010973
0.00109519
0.0010931
0.00109104
0.001089
0.00108697
0.00108497
0.00108297
0.00108098
0.001079
0.00107701
0.00107501
0.001073
0.00107095
0.00106887
0.00106673
0.00106454
0.00106228
0.00105994
0.00105751
0.00105497
0.00105233
0.00104956
0.00104665
0.00104361
0.00104041
0.00103705
0.00103351
0.00102979
0.00102586
0.00102176
0.00101748
0.00101296
0.00100818
0.00100325
0.000998186
0.000992979
0.000987637
0.000982163
0.000976561
0.000970835
0.00096499
0.000959032
0.000952968
0.000946806
0.000940555
0.000934225
0.000927831
0.000921388
0.000914914
0.000908429
0.00090196
0.000895532
0.000889175
0.000882924
0.000876814
0.000870885
0.000865174
0.000859717
0.000854547
0.000849695
0.000845189
0.000841063
0.000837354
0.000834108
0.000831378
0.000829226
0.000827719
0.00082693
0.000826942
0.000827849
0.000829764
0.000832823
0.000837185
0.000843045
0.000850641
0.000860267
0.000872309
0.000887267
0.000905804
0.000928816
0.000957551
0.00099381
0.00104026
0.00110102
0.00118275
0.00129692
0.00146485
0.00173885
0.00220821
0.00228223
0.00226049
0.00226387
0.00229371
0.000766
0.000852282
0.000874383
0.00089686
0.000917388
0.000935127
0.000950163
0.000963083
0.00097458
0.000985219
0.000995356
0.00100517
0.00101473
0.00102405
0.00103322
0.00104229
0.00105127
0.00106015
0.00106889
0.00107744
0.00108578
0.00109387
0.0011017
0.00110926
0.00111653
0.00112352
0.00113024
0.0011367
0.00114291
0.00114887
0.00115461
0.00116014
0.00116547
0.00117061
0.00117557
0.00118037
0.00118501
0.0011895
0.00119384
0.00119804
0.0012021
0.00120603
0.00120983
0.0012135
0.00121703
0.00122043
0.00122371
0.00122686
0.00122987
0.00123276
0.00123552
0.00123815
0.00124065
0.00124302
0.00124526
0.00124738
0.00124937
0.00125123
0.00125296
0.00125457
0.00125605
0.00125739
0.0012586
0.00125967
0.00126059
0.00126136
0.00126198
0.00126242
0.00126268
0.00126274
0.00126258
0.00126219
0.00126152
0.00126056
0.00125926
0.00125757
0.00125544
0.00125283
0.00124966
0.00124588
0.00124144
0.00123633
0.00123053
0.00122406
0.00121699
0.00120937
0.0012013
0.00119288
0.0011842
0.00117537
0.00116645
0.00115755
0.00114871
0.00114
0.00113145
0.0011231
0.00111497
0.00110707
0.00109941
0.001092
0.00108485
0.00107794
0.0010713
0.00106491
0.00105879
0.00105295
0.00104739
0.00104215
0.00103723
0.00103267
0.00102849
0.00102473
0.00102143
0.00101863
0.00101638
0.00101471
0.00101368
0.00101332
0.00101365
0.00101467
0.00101629
0.00101854
0.00102143
0.00102499
0.00102923
0.00103418
0.00103984
0.00104624
0.00105338
0.00106127
0.00106991
0.00107928
0.00108937
0.00110015
0.00111158
0.00112359
0.00113611
0.00114903
0.00116221
0.00117549
0.00118866
0.00120153
0.00121384
0.00122542
0.00123614
0.00124599
0.00125517
0.00126404
0.00127307
0.00128274
0.00129346
0.0013055
0.00131905
0.00133426
0.00135128
0.00137028
0.00139143
0.00141492
0.00144097
0.00146981
0.00150168
0.00153685
0.00157559
0.00161818
0.00166484
0.00171579
0.00177112
0.00183077
0.00189438
0.00196121
0.00202989
0.00209819
0.0021628
0.00221912
0.00226096
0.00228024
0.00226698
0.00225183
0.00225312
0.00227434
0.000442554
0.000810549
0.000849515
0.000880235
0.000903622
0.000921498
0.000935416
0.000946661
0.000956255
0.000964932
0.000973159
0.000981195
0.000989163
0.000997112
0.00100506
0.001013
0.00102088
0.00102868
0.00103634
0.00104381
0.00105108
0.0010581
0.00106486
0.00107136
0.00107759
0.00108357
0.0010893
0.0010948
0.00110009
0.00110517
0.00111008
0.00111483
0.00111943
0.0011239
0.00112825
0.0011325
0.00113667
0.00114075
0.00114477
0.00114872
0.00115262
0.00115647
0.00116027
0.00116404
0.00116776
0.00117145
0.00117511
0.00117873
0.00118232
0.00118588
0.00118941
0.00119291
0.00119637
0.0011998
0.00120319
0.00120653
0.00120983
0.00121307
0.00121626
0.00121937
0.0012224
0.00122535
0.00122819
0.0012309
0.00123348
0.0012359
0.00123814
0.00124017
0.00124197
0.0012435
0.00124474
0.00124565
0.0012462
0.00124635
0.00124606
0.00124531
0.00124405
0.00124228
0.00123998
0.00123714
0.00123378
0.00122993
0.00122564
0.00122098
0.00121601
0.00121082
0.00120551
0.00120016
0.00119486
0.0011897
0.00118473
0.00118003
0.00117565
0.00117163
0.00116801
0.00116481
0.00116205
0.00115974
0.00115789
0.00115651
0.0011556
0.00115515
0.00115518
0.00115567
0.00115663
0.00115805
0.00115994
0.0011623
0.00116511
0.00116839
0.00117212
0.00117631
0.00118096
0.00118608
0.00119167
0.00119777
0.00120436
0.00121139
0.00121901
0.00122723
0.00123605
0.00124548
0.00125552
0.00126619
0.00127748
0.00128938
0.00130187
0.00131495
0.0013286
0.00134277
0.00135744
0.00137256
0.00138808
0.00140394
0.00142006
0.00143636
0.00145274
0.0014691
0.00148533
0.00150131
0.00151694
0.00153212
0.0015468
0.00156096
0.00157464
0.00158797
0.00160115
0.00161441
0.00162801
0.00164216
0.00165703
0.00167272
0.00168931
0.00170684
0.00172537
0.00174495
0.00176562
0.00178745
0.00181048
0.00183477
0.00186037
0.00188732
0.00191563
0.0019453
0.00197629
0.00200848
0.00204171
0.00207569
0.00210996
0.00214388
0.0021766
0.00220694
0.00223343
0.00225437
0.00226774
0.002271
0.00226146
0.00225208
0.00225209
0.00226407
0.000320852
0.000753721
0.000815298
0.00085808
0.00088647
0.000905675
0.000919257
0.000929476
0.000937782
0.000945096
0.000951973
0.000958717
0.000965472
0.000972286
0.000979156
0.000986046
0.000992911
0.0009997
0.00100637
0.00101287
0.00101919
0.00102531
0.0010312
0.00103689
0.00104237
0.00104765
0.00105275
0.0010577
0.0010625
0.00106719
0.00107177
0.00107628
0.00108073
0.00108514
0.00108952
0.0010939
0.00109828
0.00110269
0.00110712
0.0011116
0.00111613
0.00112073
0.00112539
0.00113013
0.00113495
0.00113986
0.00114486
0.00114996
0.00115516
0.00116046
0.00116587
0.00117138
0.00117699
0.00118271
0.00118852
0.00119443
0.00120042
0.00120649
0.00121262
0.00121882
0.00122505
0.00123131
0.00123758
0.00124383
0.00125006
0.00125623
0.00126232
0.0012683
0.00127416
0.00127986
0.00128539
0.00129073
0.00129585
0.00130074
0.00130539
0.0013098
0.00131396
0.0013179
0.00132162
0.00132515
0.00132852
0.00133177
0.00133494
0.00133808
0.00134123
0.00134443
0.00134774
0.00135117
0.00135478
0.00135858
0.0013626
0.00136685
0.00137135
0.00137611
0.00138114
0.00138643
0.00139201
0.00139787
0.00140401
0.00141045
0.00141719
0.00142424
0.00143159
0.00143926
0.00144726
0.00145557
0.0014642
0.00147316
0.00148243
0.00149202
0.00150191
0.00151209
0.00152257
0.00153333
0.00154437
0.00155556
0.00156694
0.00157865
0.00159069
0.00160306
0.00161573
0.0016287
0.00164195
0.00165546
0.0016692
0.00168314
0.00169727
0.00171154
0.00172593
0.00174039
0.00175489
0.00176938
0.00178382
0.00179816
0.00181235
0.00182633
0.00184007
0.0018535
0.00186659
0.00187931
0.00189164
0.00190356
0.0019151
0.00192629
0.0019372
0.00194791
0.0019585
0.00196908
0.00197972
0.00199049
0.00200142
0.00201255
0.00202387
0.00203541
0.00204718
0.00205917
0.00207142
0.00208391
0.00209665
0.00210964
0.00212288
0.00213638
0.0021501
0.002164
0.00217801
0.00219204
0.00220598
0.00221968
0.00223287
0.00224522
0.00225644
0.00226612
0.00227376
0.00227897
0.00228126
0.00227954
0.00227294
0.00226701
0.00226571
0.00227005
0.000250288
0.000689365
0.000775759
0.00083313
0.000868271
0.000889876
0.000903825
0.000913562
0.00092107
0.000927489
0.000933459
0.000939317
0.000945217
0.000951204
0.000957269
0.000963374
0.000969472
0.000975519
0.000981476
0.000987315
0.000993018
0.000998576
0.00100399
0.00100927
0.00101442
0.00101948
0.00102444
0.00102935
0.00103421
0.00103907
0.00104393
0.00104882
0.00105378
0.00105881
0.00106393
0.00106918
0.00107457
0.00108011
0.00108583
0.00109174
0.00109786
0.00110419
0.00111077
0.00111759
0.00112469
0.00113205
0.00113971
0.00114767
0.00115594
0.00116453
0.00117344
0.00118269
0.00119227
0.00120219
0.00121244
0.00122303
0.00123393
0.00124516
0.00125668
0.00126849
0.00128058
0.00129291
0.00130546
0.00131822
0.00133115
0.00134422
0.0013574
0.00137068
0.00138401
0.00139736
0.00141072
0.00142406
0.00143735
0.00145057
0.00146372
0.00147677
0.00148971
0.00150255
0.00151527
0.00152788
0.00154037
0.00155276
0.00156503
0.00157721
0.00158928
0.00160125
0.00161312
0.00162488
0.00163654
0.00164809
0.00165953
0.00167086
0.00168207
0.00169317
0.00170416
0.00171505
0.00172586
0.00173658
0.00174724
0.00175786
0.00176846
0.00177905
0.00178965
0.00180027
0.00181095
0.00182167
0.00183246
0.00184332
0.00185425
0.00186526
0.00187633
0.00188747
0.00189869
0.00190984
0.00192086
0.00193194
0.00194309
0.00195432
0.0019656
0.00197692
0.00198825
0.00199957
0.00201086
0.0020221
0.00203326
0.00204431
0.00205524
0.00206601
0.00207661
0.002087
0.00209717
0.00210709
0.00211673
0.00212608
0.00213512
0.00214383
0.00215219
0.00216019
0.00216783
0.00217511
0.00218203
0.00218862
0.00219488
0.00220084
0.00220655
0.00221203
0.00221731
0.00222244
0.00222744
0.00223231
0.00223706
0.0022417
0.00224623
0.00225066
0.00225498
0.00225923
0.00226339
0.00226748
0.00227147
0.00227537
0.00227918
0.00228291
0.00228659
0.00229016
0.00229357
0.00229675
0.00229971
0.00230243
0.00230474
0.00230646
0.00230759
0.00230808
0.00230774
0.00230662
0.00230467
0.00230127
0.00229607
0.00229137
0.00228877
0.00228806
0.000207618
0.000624514
0.000734052
0.000806785
0.000849742
0.00087456
0.000889454
0.000899159
0.000906255
0.000912135
0.000917535
0.000922825
0.00092817
0.000933617
0.00093916
0.000944765
0.000950392
0.000956005
0.000961578
0.000967093
0.000972543
0.000977929
0.000983262
0.000988556
0.000993831
0.000999111
0.00100442
0.00100979
0.00101524
0.00102081
0.00102653
0.00103242
0.00103851
0.00104483
0.00105141
0.00105828
0.00106547
0.001073
0.0010809
0.00108919
0.00109791
0.00110708
0.00111672
0.00112687
0.00113754
0.00114875
0.00116054
0.00117291
0.00118588
0.00119948
0.0012137
0.00122856
0.00124406
0.00126019
0.00127695
0.00129431
0.00131228
0.00133081
0.00134989
0.00136947
0.00138953
0.00141
0.00143085
0.00145203
0.00147348
0.00149514
0.00151697
0.00153891
0.0015609
0.00158288
0.00160482
0.00162665
0.00164833
0.00166982
0.00169108
0.00171206
0.00173274
0.00175308
0.00177306
0.00179265
0.00181182
0.00183056
0.00184886
0.00186669
0.00188404
0.00190091
0.00191729
0.00193317
0.00194856
0.00196345
0.00197785
0.00199177
0.0020052
0.00201818
0.00203071
0.00204282
0.00205453
0.00206587
0.00207688
0.00208758
0.002098
0.00210818
0.00211815
0.00212794
0.00213757
0.00214706
0.00215644
0.00216571
0.00217489
0.002184
0.00219304
0.00220193
0.00221055
0.00221902
0.00222739
0.00223569
0.00224392
0.00225204
0.00226004
0.00226791
0.00227563
0.00228317
0.00229052
0.00229767
0.00230459
0.00231127
0.00231769
0.00232384
0.00232971
0.00233529
0.00234056
0.00234551
0.00235015
0.00235445
0.00235843
0.00236208
0.00236539
0.00236839
0.00237107
0.00237343
0.0023755
0.00237728
0.00237879
0.00238003
0.00238102
0.00238178
0.00238232
0.00238266
0.00238281
0.00238278
0.00238256
0.00238215
0.00238154
0.00238073
0.00237974
0.0023786
0.00237736
0.00237598
0.00237445
0.00237277
0.00237092
0.00236895
0.00236696
0.00236489
0.00236268
0.00236022
0.00235763
0.002355
0.00235218
0.00234892
0.00234549
0.00234194
0.00233822
0.00233442
0.00233053
0.00232617
0.00232111
0.0023164
0.00231266
0.00230904
0.000179043
0.000563155
0.000692323
0.000780046
0.000831332
0.000859922
0.000876204
0.000886221
0.000893195
0.000898794
0.000903866
0.000908821
0.000913841
0.000918981
0.000924242
0.000929597
0.000935018
0.00094048
0.000945967
0.000951474
0.000957003
0.000962566
0.000968181
0.00097387
0.000979661
0.000985583
0.000991668
0.000997951
0.00100447
0.00101125
0.00101835
0.00102578
0.0010336
0.00104184
0.00105055
0.00105975
0.00106949
0.00107982
0.00109076
0.00110236
0.00111466
0.00112769
0.00114149
0.0011561
0.00117154
0.00118785
0.00120504
0.00122315
0.00124217
0.00126212
0.001283
0.00130479
0.00132749
0.00135106
0.00137548
0.00140069
0.00142665
0.0014533
0.00148057
0.00150839
0.00153668
0.00156536
0.00159435
0.00162355
0.00165288
0.00168226
0.0017116
0.00174081
0.00176982
0.00179856
0.00182696
0.00185494
0.00188246
0.00190945
0.00193586
0.00196166
0.00198679
0.00201123
0.00203494
0.0020579
0.00208008
0.00210147
0.00212205
0.00214182
0.00216077
0.00217891
0.00219624
0.00221276
0.0022285
0.00224347
0.00225768
0.00227116
0.00228393
0.00229601
0.00230745
0.00231827
0.0023285
0.0023382
0.00234739
0.00235612
0.00236443
0.00237236
0.00237995
0.00238724
0.00239425
0.00240104
0.00240761
0.00241401
0.00242024
0.00242631
0.00243208
0.00243757
0.00244288
0.00244803
0.00245304
0.00245791
0.00246261
0.00246714
0.00247148
0.00247561
0.00247953
0.00248321
0.00248665
0.00248984
0.00249276
0.00249541
0.00249778
0.00249986
0.00250165
0.00250315
0.00250434
0.00250523
0.00250581
0.00250609
0.00250608
0.00250576
0.00250516
0.00250428
0.00250314
0.00250175
0.00250011
0.00249824
0.00249613
0.00249379
0.00249122
0.00248844
0.00248545
0.00248226
0.0024789
0.00247538
0.0024717
0.00246784
0.00246379
0.00245953
0.00245507
0.00245044
0.00244579
0.00244105
0.00243621
0.00243123
0.00242607
0.00242076
0.00241559
0.00241042
0.00240518
0.00239968
0.00239415
0.00238877
0.00238335
0.00237783
0.00237225
0.00236669
0.00236121
0.00235591
0.00235078
0.00234556
0.00234009
0.00233494
0.00233027
0.00232506
0.000158978
0.000507418
0.000651896
0.000753469
0.000813158
0.000845858
0.000863847
0.000874436
0.000881502
0.000887008
0.000891927
0.000896719
0.000901588
0.000906603
0.000911774
0.000917088
0.000922527
0.000928077
0.000933735
0.000939504
0.000945398
0.000951436
0.000957645
0.000964055
0.000970701
0.00097762
0.000984853
0.000992441
0.00100043
0.00100887
0.0010178
0.00102727
0.00103733
0.00104804
0.00105945
0.00107161
0.00108456
0.00109837
0.00111307
0.00112873
0.00114538
0.00116308
0.00118185
0.00120173
0.00122276
0.00124494
0.0012683
0.00129284
0.00131854
0.0013454
0.00137337
0.00140243
0.00143251
0.00146354
0.00149546
0.00152818
0.0015616
0.00159562
0.00163013
0.00166503
0.00170019
0.0017355
0.00177085
0.00180613
0.00184122
0.00187603
0.00191045
0.00194441
0.0019778
0.00201057
0.00204264
0.00207395
0.00210444
0.00213407
0.0021628
0.00219058
0.00221738
0.00224319
0.00226798
0.00229173
0.00231442
0.00233606
0.00235664
0.00237617
0.00239464
0.00241208
0.00242851
0.00244393
0.00245839
0.0024719
0.0024845
0.00249622
0.0025071
0.00251717
0.00252647
0.00253504
0.00254292
0.00255017
0.00255682
0.00256293
0.00256853
0.00257367
0.00257841
0.00258278
0.00258683
0.00259061
0.00259413
0.00259747
0.00260049
0.00260318
0.00260564
0.0026079
0.00260999
0.00261192
0.00261368
0.00261528
0.00261669
0.00261791
0.00261892
0.00261972
0.00262029
0.00262062
0.0026207
0.00262053
0.00262011
0.00261943
0.00261849
0.00261729
0.00261583
0.0026141
0.00261211
0.00260985
0.00260733
0.00260454
0.00260148
0.00259817
0.0025946
0.0025908
0.00258677
0.00258255
0.00257814
0.00257355
0.00256877
0.0025638
0.00255864
0.00255329
0.00254773
0.00254198
0.00253609
0.00253012
0.00252405
0.00251783
0.00251146
0.00250492
0.00249817
0.00249116
0.00248428
0.0024774
0.00247046
0.00246345
0.00245624
0.00244881
0.00244171
0.00243468
0.00242767
0.00242063
0.0024136
0.00240663
0.0023997
0.0023928
0.00238595
0.00237919
0.00237261
0.00236629
0.00236022
0.00235427
0.00234829
0.00234264
0.00233727
0.00233122
0.000144296
0.000457977
0.00061347
0.000727348
0.000795215
0.000832188
0.000852102
0.000863452
0.000870766
0.000876314
0.000881205
0.000885959
0.000890806
0.000895835
0.00090107
0.000906509
0.000912146
0.00091798
0.000924016
0.000930269
0.000936761
0.000943519
0.000950578
0.000957977
0.000965757
0.000973965
0.00098265
0.000991865
0.00100166
0.0010121
0.00102324
0.00103514
0.00104786
0.00106147
0.00107602
0.00109158
0.00110822
0.00112598
0.00114493
0.00116511
0.00118658
0.00120935
0.00123347
0.00125896
0.00128583
0.00131407
0.00134367
0.0013746
0.00140682
0.00144028
0.0014749
0.00151059
0.00154727
0.00158481
0.0016231
0.00166202
0.00170144
0.0017412
0.0017812
0.00182127
0.0018613
0.00190114
0.00194068
0.0019798
0.00201838
0.00205632
0.00209353
0.00212993
0.00216545
0.00220002
0.00223359
0.00226612
0.00229755
0.00232786
0.00235703
0.00238502
0.00241183
0.00243744
0.00246183
0.00248501
0.00250696
0.00252769
0.00254721
0.00256551
0.00258262
0.00259856
0.00261335
0.00262701
0.00263959
0.00265111
0.00266161
0.00267114
0.00267973
0.00268742
0.00269426
0.0027003
0.0027056
0.00271019
0.00271415
0.0027175
0.0027203
0.00272261
0.00272447
0.00272594
0.00272706
0.00272792
0.00272843
0.00272859
0.00272847
0.00272811
0.00272756
0.00272684
0.00272596
0.00272494
0.00272376
0.00272241
0.0027209
0.00271921
0.00271733
0.00271525
0.00271295
0.00271044
0.00270771
0.00270474
0.00270154
0.00269811
0.00269445
0.00269058
0.0026865
0.00268221
0.00267771
0.00267298
0.00266803
0.00266286
0.00265748
0.00265187
0.00264604
0.00264
0.00263374
0.00262735
0.00262084
0.00261421
0.00260745
0.00260054
0.00259348
0.00258627
0.00257888
0.00257126
0.00256349
0.00255578
0.00254801
0.00254016
0.00253221
0.00252415
0.00251589
0.00250718
0.00249884
0.00249054
0.00248223
0.00247391
0.00246556
0.00245717
0.00244888
0.00244066
0.00243251
0.00242442
0.00241639
0.00240844
0.00240057
0.00239279
0.00238513
0.00237761
0.00237031
0.00236328
0.00235655
0.00235003
0.00234364
0.0023376
0.00233179
0.00232536
0.00013324
0.000414706
0.000577348
0.00070181
0.00077743
0.000818709
0.000840684
0.000852928
0.0008606
0.000866286
0.000871237
0.00087604
0.000880961
0.000886109
0.000891523
0.000897215
0.000903192
0.000909462
0.000916041
0.000922952
0.000930224
0.000937894
0.000946003
0.000954597
0.000963727
0.000973447
0.000983815
0.000994894
0.00100675
0.00101944
0.00103305
0.00104764
0.00106328
0.00108005
0.00109802
0.00111724
0.00113779
0.00115973
0.00118309
0.00120793
0.00123427
0.00126214
0.00129154
0.00132246
0.0013549
0.00138881
0.00142414
0.00146084
0.0014988
0.00153795
0.00157816
0.00161931
0.00166127
0.00170388
0.001747
0.00179047
0.00183414
0.00187785
0.00192146
0.00196482
0.0020078
0.00205026
0.00209208
0.00213315
0.00217336
0.00221263
0.00225087
0.00228803
0.00232405
0.00235889
0.0023925
0.00242486
0.00245594
0.00248573
0.00251422
0.00254139
0.00256726
0.00259181
0.00261505
0.00263698
0.00265759
0.00267689
0.00269488
0.00271158
0.00272701
0.00274117
0.0027541
0.00276582
0.00277636
0.00278575
0.00279404
0.00280127
0.00280748
0.00281271
0.00281701
0.00282044
0.00282307
0.00282497
0.00282618
0.00282677
0.00282679
0.00282629
0.00282533
0.002824
0.00282225
0.00282012
0.00281768
0.00281495
0.00281196
0.00280878
0.00280544
0.00280196
0.00279836
0.00279464
0.0027908
0.00278683
0.00278272
0.00277846
0.00277405
0.00276948
0.00276473
0.0027598
0.00275469
0.00274938
0.00274386
0.00273814
0.00273223
0.00272615
0.00271994
0.00271359
0.00270708
0.0027004
0.00269357
0.00268657
0.00267941
0.00267208
0.00266457
0.00265687
0.00264892
0.00264087
0.00263282
0.00262471
0.00261651
0.00260822
0.00259984
0.00259136
0.00258275
0.00257385
0.00256474
0.00255586
0.00254698
0.00253806
0.00252908
0.00252004
0.00251093
0.00250169
0.00249249
0.00248332
0.00247418
0.00246505
0.00245596
0.00244691
0.00243792
0.00242902
0.00242021
0.00241149
0.00240287
0.00239436
0.00238596
0.00237769
0.00236957
0.00236163
0.00235392
0.0023465
0.00233938
0.00233253
0.0023259
0.00231965
0.00231362
0.00230711
0.000124724
0.000377099
0.000543605
0.000676906
0.000759721
0.000805239
0.000829344
0.000842567
0.00085067
0.000856556
0.000861624
0.000866537
0.000871597
0.000876938
0.000882617
0.000888659
0.000895082
0.000901903
0.000909148
0.000916846
0.000925034
0.000933754
0.000943056
0.000952991
0.000963618
0.000975
0.000987201
0.00100029
0.00101435
0.00102944
0.00104565
0.00106305
0.00108173
0.00110175
0.00112319
0.0011461
0.00117056
0.0011966
0.00122426
0.00125357
0.00128453
0.00131713
0.00135135
0.00138716
0.0014245
0.0014633
0.00150348
0.00154492
0.00158753
0.00163115
0.00167565
0.00172086
0.00176662
0.00181277
0.00185912
0.00190551
0.00195178
0.00199776
0.0020433
0.00208827
0.00213253
0.00217597
0.00221848
0.00225995
0.00230031
0.00233946
0.00237737
0.00241398
0.00244926
0.00248319
0.00251574
0.0025469
0.00257667
0.00260505
0.00263204
0.00265766
0.00268191
0.00270481
0.00272638
0.00274661
0.00276551
0.00278307
0.0027993
0.00281421
0.00282781
0.00284011
0.00285113
0.00286089
0.0028694
0.00287671
0.00288284
0.00288782
0.00289168
0.00289447
0.00289623
0.00289703
0.00289697
0.00289612
0.00289456
0.00289235
0.00288959
0.0028863
0.00288256
0.00287842
0.00287394
0.0028691
0.00286395
0.00285853
0.0028529
0.00284711
0.00284118
0.00283515
0.00282906
0.00282292
0.0028167
0.0028104
0.00280402
0.00279755
0.00279097
0.00278429
0.00277749
0.00277057
0.00276351
0.00275632
0.00274897
0.00274146
0.00273374
0.00272588
0.00271802
0.0027101
0.0027021
0.002694
0.0026858
0.0026775
0.00266911
0.00266061
0.002652
0.00264326
0.00263418
0.002625
0.00261599
0.00260697
0.00259791
0.00258881
0.00257965
0.00257044
0.00256118
0.00255182
0.00254237
0.00253294
0.0025235
0.00251404
0.00250456
0.00249505
0.00248552
0.00247596
0.00246641
0.00245688
0.00244738
0.00243792
0.00242852
0.00241918
0.00240993
0.00240077
0.00239172
0.00238278
0.00237396
0.00236526
0.0023567
0.00234829
0.00234005
0.002332
0.0023242
0.00231667
0.00230944
0.00230251
0.00229585
0.00228961
0.00228357
0.00227722
0.000118047
0.000344521
0.000512214
0.000652661
0.000742028
0.000791632
0.000817875
0.000832118
0.000840693
0.000846812
0.000852032
0.000857092
0.000862335
0.000867922
0.000873926
0.000880387
0.000887331
0.000894786
0.000902782
0.000911355
0.000920549
0.00093041
0.000940993
0.000952355
0.00096456
0.000977677
0.000991778
0.00100694
0.00102324
0.00104075
0.00105957
0.00107977
0.00110142
0.00112461
0.0011494
0.00117583
0.00120396
0.00123382
0.00126542
0.00129875
0.0013338
0.00137052
0.00140885
0.00144872
0.00149005
0.00153273
0.00157663
0.00162164
0.00166761
0.00171437
0.00176175
0.00180956
0.00185762
0.00190575
0.00195376
0.00200147
0.00204871
0.00209531
0.00214114
0.00218606
0.00222996
0.00227276
0.00231436
0.0023547
0.00239369
0.0024313
0.00246749
0.00250224
0.00253554
0.00256738
0.00259776
0.00262669
0.00265419
0.00268025
0.00270492
0.00272822
0.00275019
0.00277084
0.00279022
0.00280833
0.00282517
0.00284073
0.00285501
0.00286799
0.0028797
0.00289013
0.00289928
0.00290716
0.00291379
0.00291918
0.00292332
0.00292626
0.00292799
0.00292851
0.00292787
0.00292616
0.00292347
0.00291992
0.00291568
0.00291063
0.00290518
0.00289942
0.00289332
0.00288681
0.0028799
0.00287263
0.00286506
0.00285727