/*--------------------------------*- C++ -*----------------------------------*\
| =========                 |                                                 |
| \\      /  F ield         | OpenFOAM: The Open Source CFD Toolbox           |
|  \\    /   O peration     | Version:  2112                                  |
|   \\  /    A nd           | Website:  www.openfoam.com                      |
|    \\/     M anipulation  |                                                 |
\*---------------------------------------------------------------------------*/
FoamFile
{
    version     2.0;
    format      ascii;
    arch        "LSB;label=32;scalar=64";
    class       volScalarField;
    location    "0.46";
    object      p;
}
// * * * * * * * * * * * * * * * * * * * * * * * * * * * * * * * * * * * * * //

dimensions      [0 2 -2 0 0 0 0];

internalField   nonuniform List<scalar> 
12225
(
0.159315
-0.809432
-1.11583
-1.27034
-1.5095
-1.78397
-2.04645
-2.2889
-2.50651
-2.69284
-2.84723
-2.97637
-3.0915
-3.20458
-3.3269
-3.45775
-3.62362
-3.68584
-0.248567
-0.844872
-1.12052
-1.27075
-1.48531
-1.73296
-1.97115
-2.19142
-2.38932
-2.55897
-2.69953
-2.81714
-2.9226
-3.02804
-3.14572
-3.29033
-3.48933
-3.89475
-0.416073
-0.816712
-1.12343
-1.30419
-1.52093
-1.76636
-2.00311
-2.22215
-2.42076
-2.59531
-2.74565
-2.8769
-2.99804
-3.11907
-3.25064
-3.40433
-3.60545
-3.89408
-0.583975
-0.894803
-1.1813
-1.35604
-1.5544
-1.78107
-2.00135
-2.20527
-2.39162
-2.55763
-2.7028
-2.8312
-2.95068
-3.07037
-3.19974
-3.34961
-3.53309
-3.75724
-0.732257
-0.974711
-1.23067
-1.40431
-1.59369
-1.80777
-2.01679
-2.21158
-2.39172
-2.55454
-2.69958
-2.83114
-2.95626
-3.08237
-3.21702
-3.36832
-3.543
-3.74504
-0.856621
-1.04296
-1.27508
-1.45024
-1.63281
-1.83488
-2.03358
-2.22021
-2.39374
-2.55188
-2.69479
-2.82661
-2.95298
-3.07986
-3.21342
-3.35891
-3.5192
-3.69212
-0.968554
-1.11016
-1.317
-1.48908
-1.66443
-1.8553
-2.04455
-2.22358
-2.39095
-2.54519
-2.68676
-2.81884
-2.94577
-3.07265
-3.20429
-3.34354
-3.49104
-3.64272
-1.07152
-1.17969
-1.36079
-1.52589
-1.69311
-1.87306
-2.05266
-2.2238
-2.38491
-2.53495
-2.67418
-2.80504
-2.9311
-3.05641
-3.18427
-3.3163
-3.45227
-3.5876
-1.16619
-1.24982
-1.40702
-1.56311
-1.72148
-1.89078
-2.06078
-2.22399
-2.37865
-2.52388
-2.65984
-2.78845
-2.91256
-3.03514
-3.1585
-3.28348
-3.40916
-3.5311
-1.253
-1.31868
-1.45459
-1.6003
-1.74941
-1.908
-2.06851
-2.22402
-2.37228
-2.51253
-2.64489
-2.77073
-2.89212
-3.01126
-3.1297
-3.24766
-3.36394
-3.47469
-1.33242
-1.38497
-1.50235
-1.63689
-1.77659
-1.92459
-2.07552
-2.22319
-2.36503
-2.50026
-2.62877
-2.75134
-2.86947
-2.98472
-3.09797
-3.20908
-3.31691
-3.41834
-1.3988
-1.44254
-1.54537
-1.66946
-1.80051
-1.93925
-2.08148
-2.22175
-2.35753
-2.48789
-2.61246
-2.73167
-2.84648
-2.95784
-3.06625
-3.17151
-3.27255
-3.36679
-1.45892
-1.49615
-1.58635
-1.70032
-1.82295
-1.95294
-2.08684
-2.21995
-2.34966
-2.47489
-2.59517
-2.71068
-2.82189
-2.92919
-3.03281
-3.13246
-3.22732
-3.31543
-1.52017
-1.55186
-1.62997
-1.73306
-1.84638
-1.96694
-2.09182
-2.21701
-2.33987
-2.45915
-2.57426
-2.68504
-2.79158
-2.89401
-2.99227
-3.08588
-3.17431
-3.25621
-1.57959
-1.6066
-1.67376
-1.76572
-1.86911
-1.97984
-2.09522
-2.21185
-2.32715
-2.43971
-2.54875
-2.65384
-2.75478
-2.85142
-2.94354
-3.0308
-3.11279
-3.18849
-1.63273
-1.65587
-1.71359
-1.7949
-1.88827
-1.98916
-2.09496
-2.20272
-2.30998
-2.4152
-2.51743
-2.61606
-2.71065
-2.80089
-2.8865
-2.96716
-3.04264
-3.11233
-1.67306
-1.6931
-1.74321
-1.81515
-1.89923
-1.9909
-2.08761
-2.18673
-2.28593
-2.38361
-2.47871
-2.57046
-2.65832
-2.7419
-2.82092
-2.89513
-2.96443
-3.02853
-1.69081
-1.70868
-1.7534
-1.8183
-1.89495
-1.97905
-2.06813
-2.15977
-2.25178
-2.34253
-2.43089
-2.51604
-2.5974
-2.67456
-2.74726
-2.81535
-2.8788
-2.93754
-1.67108
-1.68792
-1.73023
-1.79173
-1.86435
-1.94401
-2.02838
-2.11516
-2.20222
-2.28794
-2.37116
-2.45107
-2.52707
-2.59879
-2.66603
-2.72872
-2.78691
-2.84072
-1.60742
-1.62547
-1.67039
-1.73443
-1.80871
-1.88937
-1.97436
-2.06135
-2.14813
-2.23307
-2.31503
-2.39316
-2.46688
-2.53584
-2.5999
-2.65908
-2.71351
-2.76347
-1.52901
-1.54964
-1.60036
-1.67036
-1.74925
-1.8338
-1.92238
-2.01251
-2.10182
-2.1887
-2.27198
-2.35077
-2.42447
-2.49273
-2.55545
-2.61273
-2.66477
-2.71199
-1.4365
-1.46186
-1.52226
-1.60106
-1.68638
-1.77671
-1.87096
-1.96619
-2.0599
-2.15053
-2.23689
-2.31796
-2.39308
-2.46189
-2.52435
-2.58059
-2.63093
-2.67593
-1.33355
-1.36686
-1.44153
-1.53104
-1.62337
-1.72053
-1.82174
-1.92328
-2.02261
-2.1183
-2.20903
-2.2936
-2.37121
-2.44149
-2.50439
-2.56011
-2.609
-2.65174
-1.22204
-1.26844
-1.36259
-1.46334
-1.56248
-1.66719
-1.77603
-1.88433
-1.98989
-2.09146
-2.18748
-2.27645
-2.35743
-2.42999
-2.49405
-2.54986
-2.59792
-2.63922
-1.10269
-1.17105
-1.28996
-1.3998
-1.50447
-1.61756
-1.73464
-1.8498
-1.96166
-2.06929
-2.17075
-2.26417
-2.34849
-2.42331
-2.48843
-2.54399
-2.59046
-2.62869
-0.974615
-1.07858
-1.2285
-1.34208
-1.44679
-1.56512
-1.68863
-1.80978
-1.92809
-2.04282
-2.15154
-2.25163
-2.34161
-2.42119
-2.49016
-2.54867
-2.59742
-2.63844
-0.832219
-0.979229
-1.16595
-1.28489
-1.39209
-1.515
-1.64243
-1.76708
-1.88949
-2.00883
-2.12221
-2.2268
-2.32054
-2.40224
-2.47133
-2.52806
-2.57308
-2.60814
-0.675286
-0.871134
-1.07643
-1.19959
-1.3241
-1.46488
-1.60539
-1.74225
-1.87769
-2.01026
-2.13636
-2.25327
-2.35878
-2.45064
-2.52784
-2.59078
-2.64163
-2.68424
-0.522979
-0.891587
-1.08455
-1.1707
-1.28738
-1.42728
-1.56315
-1.6954
-1.82836
-1.96015
-2.08637
-2.20323
-2.30759
-2.39672
-2.46912
-2.52465
-2.56495
-2.59197
-0.0885879
-0.804178
-1.04484
-1.13203
-1.26565
-1.42409
-1.57672
-1.72554
-1.87532
-2.02367
-2.1658
-2.29761
-2.4158
-2.51758
-2.60137
-2.66652
-2.71501
-2.74299
-4.5226
-4.53668
-4.53908
-4.54105
-4.54355
-4.54599
-4.54824
-4.55034
-4.55237
-4.5544
-4.55653
-4.55885
-4.56135
-4.56379
-4.56604
-4.56828
-4.57062
-4.57309
-4.57567
-4.5784
-4.58126
-4.58429
-4.58747
-4.59081
-4.59433
-4.59802
-4.60189
-4.60594
-4.61016
-4.61457
-4.61916
-4.62393
-4.62888
-4.634
-4.63929
-4.64474
-4.65035
-4.65609
-4.66197
-4.66795
-4.67404
-4.68019
-4.6864
-4.69264
-4.69887
-4.70506
-4.71118
-4.71719
-4.72304
-4.72869
-4.7341
-4.7392
-4.74395
-4.74828
-4.75215
-4.75548
-4.75822
-4.7603
-4.76165
-4.76222
-4.76192
-4.7607
-4.75849
-4.75522
-4.75082
-4.74524
-4.7384
-4.73025
-4.72072
-4.70975
-4.6973
-4.6833
-4.6677
-4.65045
-4.63152
-4.61085
-4.5884
-4.56415
-4.53806
-4.5101
-4.48025
-4.44848
-4.41478
-4.37913
-4.34151
-4.30192
-4.26036
-4.2168
-4.17127
-4.12375
-4.07425
-4.02277
-3.96933
-3.91394
-3.85661
-3.79736
-3.7362
-3.67314
-3.6082
-3.54138
-3.47271
-3.40217
-3.32978
-3.25553
-3.1794
-3.10138
-3.02145
-2.93959
-2.85575
-2.76991
-2.68201
-2.59203
-2.49989
-2.40555
-2.30896
-2.21005
-2.10874
-2.0051
-1.899
-1.79012
-1.67856
-1.5643
-1.44725
-1.32737
-1.20458
-1.07883
-0.950043
-0.818175
-0.683166
-0.544964
-0.403517
-0.258778
-0.110701
0.0407566
0.195633
0.353965
0.515783
0.681113
0.849986
1.02243
1.19845
1.37806
1.56127
1.74806
1.93843
2.13233
2.32975
2.53063
2.73494
2.94261
3.15358
3.36777
3.58507
3.80539
4.02857
4.25448
4.48296
4.71384
4.94695
5.18209
5.41905
5.65759
5.8975
6.13852
6.38041
6.62289
6.86567
7.10848
7.35101
7.59294
7.8339
8.07342
8.31089
8.54527
8.77635
8.98925
9.19254
9.39601
9.61958
9.79579
-4.50232
-4.52291
-4.52398
-4.52437
-4.52569
-4.52711
-4.52845
-4.52977
-4.53112
-4.5325
-4.5339
-4.53528
-4.53659
-4.53794
-4.53952
-4.54136
-4.54341
-4.54561
-4.54794
-4.55042
-4.55303
-4.55577
-4.55865
-4.56166
-4.56482
-4.56813
-4.57159
-4.5752
-4.57897
-4.5829
-4.587
-4.59126
-4.59568
-4.60028
-4.60503
-4.60994
-4.61501
-4.62022
-4.62557
-4.63104
-4.63662
-4.6423
-4.64804
-4.65384
-4.65966
-4.66547
-4.67125
-4.67695
-4.68255
-4.68798
-4.69322
-4.69821
-4.70289
-4.70722
-4.71113
-4.71457
-4.71747
-4.71977
-4.72139
-4.72228
-4.72237
-4.72158
-4.71984
-4.7171
-4.71327
-4.7083
-4.70212
-4.69466
-4.68587
-4.67567
-4.66402
-4.65086
-4.63613
-4.61978
-4.60177
-4.58205
-4.56058
-4.53732
-4.51224
-4.48529
-4.45645
-4.4257
-4.393
-4.35835
-4.32172
-4.28309
-4.24246
-4.19982
-4.15517
-4.10849
-4.05979
-4.00908
-3.95635
-3.90163
-3.84491
-3.78621
-3.72555
-3.66294
-3.5984
-3.53193
-3.46356
-3.39328
-3.3211
-3.24702
-3.17103
-3.09313
-3.01329
-2.9315
-2.84772
-2.76192
-2.67405
-2.58408
-2.49195
-2.39759
-2.30098
-2.20202
-2.10044
-1.99675
-1.89065
-1.78221
-1.67114
-1.55735
-1.44077
-1.32136
-1.19905
-1.0738
-0.945555
-0.814255
-0.679852
-0.542296
-0.401541
-0.257542
-0.110258
0.0403498
0.194318
0.351681
0.512467
0.676706
0.84441
1.0156
1.19028
1.36847
1.55018
1.7354
1.92411
2.1163
2.31193
2.51095
2.71332
2.91896
3.12779
3.33975
3.55471
3.77256
3.99317
4.21638
4.44202
4.66993
4.89991
5.13175
5.36523
5.60012
5.83615
6.07309
6.31064
6.54853
6.78644
7.02408
7.26111
7.4972
7.73198
7.96504
8.19604
8.42447
8.65352
8.88532
9.11445
9.32486
9.55134
9.72942
-4.50554
-4.53015
-4.5331
-4.53345
-4.53478
-4.53626
-4.53764
-4.53898
-4.54034
-4.54175
-4.54321
-4.54473
-4.54631
-4.54795
-4.54969
-4.55154
-4.55352
-4.55564
-4.55789
-4.56029
-4.56283
-4.56553
-4.56838
-4.5714
-4.57457
-4.57791
-4.58142
-4.58511
-4.58896
-4.593
-4.59721
-4.6016
-4.60616
-4.6109
-4.61581
-4.62088
-4.6261
-4.63148
-4.63699
-4.64263
-4.64837
-4.6542
-4.6601
-4.66604
-4.67199
-4.67793
-4.68382
-4.68962
-4.6953
-4.7008
-4.70609
-4.7111
-4.7158
-4.72012
-4.724
-4.72738
-4.73021
-4.73241
-4.73392
-4.73467
-4.7346
-4.73363
-4.73171
-4.72875
-4.72471
-4.7195
-4.71307
-4.70535
-4.69629
-4.68582
-4.67388
-4.66042
-4.64539
-4.62874
-4.61041
-4.59038
-4.56858
-4.54499
-4.51957
-4.49229
-4.46313
-4.43205
-4.39904
-4.36407
-4.32714
-4.28824
-4.24734
-4.20445
-4.15955
-4.11265
-4.06374
-4.01283
-3.95992
-3.90502
-3.84814
-3.7893
-3.72852
-3.6658
-3.60116
-3.53462
-3.46619
-3.39588
-3.32368
-3.24961
-3.17366
-3.0958
-3.01604
-2.93434
-2.85067
-2.76501
-2.67731
-2.58753
-2.49564
-2.40158
-2.30533
-2.20683
-2.10611
-2.00255
-1.8964
-1.78773
-1.6765
-1.56263
-1.44605
-1.32667
-1.20444
-1.07929
-0.951164
-0.820003
-0.685757
-0.548374
-0.407807
-0.264013
-0.116949
0.0334233
0.187138
0.344227
0.50472
0.668643
0.836018
1.00686
1.18119
1.35901
1.54033
1.72514
1.91343
2.10518
2.30037
2.49896
2.70089
2.9061
3.11452
3.32607
3.54064
3.75811
3.97836
4.20122
4.42655
4.65416
4.88389
5.11553
5.34887
5.58367
5.81971
6.05673
6.29449
6.5327
6.77109
7.00937
7.24725
7.48443
7.72061
7.95551
8.18903
8.42101
8.65351
8.88615
9.11329
9.32409
9.55203
9.72485
-4.50488
-4.52905
-4.53324
-4.53391
-4.53525
-4.53665
-4.53791
-4.53912
-4.54037
-4.54167
-4.54305
-4.54452
-4.54609
-4.54776
-4.54955
-4.55148
-4.55354
-4.55575
-4.55809
-4.56059
-4.56323
-4.56603
-4.56898
-4.57209
-4.57537
-4.57882
-4.58244
-4.58624
-4.59021
-4.59437
-4.5987
-4.60322
-4.60792
-4.61279
-4.61784
-4.62306
-4.62843
-4.63396
-4.63963
-4.64542
-4.65132
-4.65731
-4.66337
-4.66947
-4.67558
-4.68167
-4.68771
-4.69366
-4.69948
-4.70511
-4.71052
-4.71566
-4.72045
-4.72486
-4.72883
-4.73228
-4.73515
-4.73739
-4.73892
-4.73968
-4.7396
-4.73861
-4.73665
-4.73365
-4.72954
-4.72427
-4.71776
-4.70995
-4.70079
-4.69022
-4.67818
-4.66461
-4.64946
-4.6327
-4.61425
-4.59409
-4.57218
-4.54846
-4.52292
-4.49552
-4.46623
-4.43502
-4.40188
-4.36679
-4.32974
-4.2907
-4.24968
-4.20666
-4.16164
-4.11462
-4.0656
-4.01457
-3.96154
-3.90654
-3.84956
-3.79062
-3.72974
-3.66693
-3.60222
-3.53561
-3.46712
-3.39676
-3.32454
-3.25045
-3.1745
-3.09666
-3.01693
-2.93527
-2.85167
-2.76608
-2.67847
-2.58879
-2.49698
-2.403
-2.30676
-2.20824
-2.10751
-2.00434
-1.89868
-1.79047
-1.67965
-1.56616
-1.44993
-1.33091
-1.20903
-1.08423
-0.956448
-0.82564
-0.691749
-0.554724
-0.414518
-0.271086
-0.124388
0.0256169
0.178962
0.335679
0.495798
0.659345
0.826339
0.996799
1.17074
1.34817
1.5291
1.71353
1.90144
2.09284
2.28768
2.48595
2.68759
2.89254
3.10074
3.3121
3.52653
3.74392
3.96412
4.18701
4.41242
4.6402
4.87018
5.10215
5.33593
5.57126
5.80795
6.04575
6.28441
6.52366
6.76321
7.00277
7.24205
7.48071
7.71842
7.95489
8.18992
8.4232
8.65564
8.88548
9.11094
9.32206
9.55194
9.71915
-4.50651
-4.52982
-4.53532
-4.53685
-4.53854
-4.54004
-4.5413
-4.54249
-4.54368
-4.54494
-4.54628
-4.54772
-4.54927
-4.55095
-4.55275
-4.55468
-4.55676
-4.55898
-4.56134
-4.56386
-4.56653
-4.56936
-4.57236
-4.57552
-4.57886
-4.58237
-4.58606
-4.58994
-4.594
-4.59825
-4.60269
-4.60731
-4.61212
-4.61712
-4.62229
-4.62763
-4.63314
-4.6388
-4.6446
-4.65053
-4.65657
-4.6627
-4.66889
-4.67512
-4.68135
-4.68757
-4.69372
-4.69977
-4.70567
-4.71138
-4.71686
-4.72204
-4.72687
-4.73129
-4.73525
-4.73867
-4.74151
-4.74368
-4.74513
-4.74579
-4.74559
-4.74446
-4.74235
-4.73918
-4.73489
-4.72943
-4.72272
-4.71471
-4.70535
-4.69457
-4.68231
-4.66854
-4.65319
-4.63621
-4.61757
-4.59721
-4.5751
-4.5512
-4.52547
-4.49789
-4.46842
-4.43706
-4.40376
-4.36853
-4.33134
-4.29218
-4.25104
-4.20792
-4.1628
-4.1157
-4.06659
-4.01549
-3.96241
-3.90734
-3.85031
-3.79133
-3.73041
-3.66757
-3.60284
-3.53622
-3.46774
-3.3974
-3.32521
-3.25118
-3.17529
-3.09755
-3.01793
-2.9364
-2.85295
-2.76753
-2.68011
-2.59063
-2.49906
-2.40534
-2.30941
-2.2112
-2.11067
-2.00774
-1.90233
-1.79439
-1.68386
-1.57067
-1.45475
-1.33604
-1.21447
-1.08999
-0.962534
-0.832049
-0.698482
-0.561782
-0.421901
-0.278793
-0.132418
0.0172626
0.170285
0.326682
0.486481
0.64971
0.816389
0.986536
1.16017
1.3373
1.51795
1.7021
1.88977
2.08093
2.27558
2.47366
2.67514
2.87996
3.08806
3.29935
3.51375
3.73113
3.95138
4.17433
4.39985
4.62778
4.85795
5.09017
5.32424
5.55991
5.79697
6.03519
6.27432
6.51408
6.75416
6.99428
7.23413
7.47338
7.71167
7.9487
8.18425
8.41789
8.65006
8.87864
9.10401
9.31539
9.54722
9.70852
-4.50893
-4.53074
-4.53707
-4.53949
-4.54158
-4.54323
-4.54453
-4.5457
-4.54687
-4.54811
-4.54943
-4.55086
-4.55242
-4.5541
-4.55592
-4.55789
-4.55999
-4.56225
-4.56466
-4.56723
-4.56996
-4.57285
-4.57592
-4.57916
-4.58258
-4.58619
-4.58998
-4.59396
-4.59813
-4.6025
-4.60706
-4.61181
-4.61676
-4.62189
-4.6272
-4.63269
-4.63834
-4.64415
-4.6501
-4.65617
-4.66235
-4.66862
-4.67494
-4.68129
-4.68764
-4.69396
-4.70019
-4.70632
-4.71228
-4.71803
-4.72352
-4.7287
-4.7335
-4.73788
-4.74176
-4.74509
-4.74781
-4.74984
-4.75113
-4.7516
-4.7512
-4.74986
-4.74752
-4.74411
-4.73958
-4.73387
-4.72691
-4.71866
-4.70905
-4.69803
-4.68555
-4.67155
-4.656
-4.63882
-4.61999
-4.59947
-4.57719
-4.55315
-4.52729
-4.49958
-4.47001
-4.43855
-4.40518
-4.36988
-4.33264
-4.29344
-4.25228
-4.20914
-4.16402
-4.11692
-4.06782
-4.01673
-3.96365
-3.90859
-3.85156
-3.79259
-3.73169
-3.66887
-3.60416
-3.53758
-3.46914
-3.39886
-3.32674
-3.25279
-3.17701
-3.09939
-3.0199
-2.93853
-2.85525
-2.77002
-2.68279
-2.59354
-2.50221
-2.40874
-2.31307
-2.21513
-2.11486
-2.01218
-1.90704
-1.79937
-1.68911
-1.57619
-1.46054
-1.3421
-1.2208
-1.09659
-0.969393
-0.839169
-0.705861
-0.569416
-0.429785
-0.286924
-0.140791
0.00865261
0.161443
0.317611
0.477188
0.640201
0.806668
0.976609
1.15004
1.32699
1.50747
1.69147
1.879
2.07005
2.2646
2.46261
2.66402
2.8688
3.07687
3.28816
3.50257
3.71999
3.9403
4.16333
4.38893
4.61696
4.84726
5.07962
5.31385
5.5497
5.78694
6.02535
6.26469
6.50467
6.74497
6.98531
7.22537
7.46483
7.70337
7.94066
8.17646
8.41032
8.6424
8.87043
9.09604
9.30744
9.54097
9.69621
-4.51244
-4.53265
-4.53956
-4.54283
-4.54536
-4.54717
-4.54852
-4.5497
-4.55087
-4.55208
-4.55339
-4.55482
-4.55638
-4.55807
-4.55991
-4.56189
-4.56402
-4.56631
-4.56876
-4.57138
-4.57416
-4.57712
-4.58025
-4.58357
-4.58707
-4.59077
-4.59466
-4.59874
-4.60303
-4.60751
-4.6122
-4.61708
-4.62215
-4.62742
-4.63287
-4.63849
-4.64428
-4.65022
-4.6563
-4.66249
-4.66879
-4.67516
-4.68158
-4.68801
-4.69444
-4.7008
-4.70708
-4.71322
-4.71918
-4.7249
-4.73035
-4.73545
-4.74016
-4.74442
-4.74817
-4.75134
-4.75388
-4.75571
-4.75679
-4.75704
-4.75641
-4.75482
-4.75224
-4.74859
-4.74382
-4.73788
-4.73071
-4.72225
-4.71246
-4.70127
-4.68863
-4.6745
-4.65882
-4.64154
-4.62262
-4.60202
-4.57969
-4.55559
-4.52969
-4.50197
-4.47238
-4.44092
-4.40755
-4.37226
-4.33504
-4.29587
-4.25474
-4.21164
-4.16656
-4.11948
-4.07042
-4.01935
-3.9663
-3.91125
-3.85425
-3.79529
-3.7344
-3.6716
-3.60691
-3.54036
-3.47196
-3.40173
-3.32968
-3.25582
-3.18014
-3.10263
-3.02327
-2.94205
-2.85893
-2.77388
-2.68685
-2.59782
-2.50671
-2.41346
-2.318
-2.22029
-2.12025
-2.0178
-1.9129
-1.80547
-1.69545
-1.58276
-1.46734
-1.34913
-1.22805
-1.10405
-0.977071
-0.847056
-0.713952
-0.577704
-0.438265
-0.295589
-0.149634
-0.000363474
0.15226
0.308268
0.467691
0.630557
0.796883
0.966686
1.13999
1.31682
1.49719
1.68111
1.86856
2.05955
2.25406
2.45204
2.65343
2.85819
3.06627
3.27757
3.49201
3.70947
3.92984
4.15294
4.37861
4.60672
4.8371
5.06956
5.30389
5.53986
5.77722
6.01575
6.2552
6.49529
6.73573
6.9762
7.2164
7.456
7.69472
7.93221
8.16823
8.40225
8.6343
8.86199
9.08782
9.29905
9.53401
9.68335
-4.51682
-4.53542
-4.54269
-4.54673
-4.54969
-4.55168
-4.5531
-4.5543
-4.55546
-4.55667
-4.55798
-4.55941
-4.56097
-4.56267
-4.56453
-4.56653
-4.5687
-4.57103
-4.57352
-4.57618
-4.57902
-4.58205
-4.58525
-4.58865
-4.59224
-4.59603
-4.60002
-4.60421
-4.60861
-4.61321
-4.61801
-4.62302
-4.62822
-4.6336
-4.63918
-4.64492
-4.65082
-4.65687
-4.66305
-4.66934
-4.67572
-4.68216
-4.68863
-4.69511
-4.70155
-4.70793
-4.71419
-4.72029
-4.7262
-4.73185
-4.73719
-4.74218
-4.74676
-4.75087
-4.75446
-4.75746
-4.75981
-4.76145
-4.76233
-4.76238
-4.76155
-4.75978
-4.75701
-4.75319
-4.74826
-4.74217
-4.73488
-4.72631
-4.71643
-4.70517
-4.69248
-4.67831
-4.6626
-4.64532
-4.6264
-4.6058
-4.58349
-4.55941
-4.53355
-4.50585
-4.4763
-4.44487
-4.41154
-4.3763
-4.33912
-4.29999
-4.25891
-4.21584
-4.1708
-4.12376
-4.07472
-4.02366
-3.97061
-3.91556
-3.85854
-3.79957
-3.73868
-3.67587
-3.61119
-3.54465
-3.47628
-3.40609
-3.3341
-3.2603
-3.18471
-3.1073
-3.02806
-2.94697
-2.86401
-2.77913
-2.6923
-2.60345
-2.51252
-2.41947
-2.32421
-2.22669
-2.12685
-2.02462
-1.91992
-1.8127
-1.70287
-1.59038
-1.47516
-1.35713
-1.23624
-1.11241
-0.9856
-0.85575
-0.722806
-0.586711
-0.447417
-0.30488
-0.159058
-0.00991438
0.142588
0.298481
0.457798
0.620567
0.7868
0.95651
1.12973
1.30648
1.48679
1.67065
1.85806
2.04902
2.24352
2.4415
2.6429
2.84768
3.05577
3.26711
3.48158
3.69909
3.91952
4.14269
4.36844
4.59664
4.8271
5.05963
5.29403
5.53009
5.76756
6.0062
6.24573
6.48591
6.72645
6.96705
7.20736
7.4471
7.68597
7.92362
8.15981
8.39393
8.62594
8.85338
9.07939
9.29033
9.52646
9.67026
-4.5221
-4.53912
-4.54658
-4.5513
-4.55467
-4.55684
-4.55833
-4.55955
-4.56071
-4.56193
-4.56323
-4.56466
-4.56623
-4.56795
-4.56982
-4.57185
-4.57404
-4.5764
-4.57894
-4.58165
-4.58455
-4.58763
-4.59091
-4.59438
-4.59805
-4.60193
-4.60602
-4.61031
-4.61481
-4.61952
-4.62443
-4.62954
-4.63485
-4.64034
-4.64601
-4.65185
-4.65783
-4.66395
-4.6702
-4.67654
-4.68295
-4.68942
-4.6959
-4.70237
-4.7088
-4.71513
-4.72134
-4.72738
-4.73319
-4.73874
-4.74397
-4.74884
-4.75329
-4.75726
-4.7607
-4.76356
-4.76577
-4.76727
-4.76801
-4.76793
-4.76697
-4.76508
-4.76221
-4.7583
-4.7533
-4.74717
-4.73984
-4.73126
-4.72138
-4.71014
-4.69748
-4.68335
-4.66769
-4.65046
-4.63159
-4.61106
-4.5888
-4.56478
-4.53897
-4.51132
-4.48182
-4.45044
-4.41716
-4.38197
-4.34483
-4.30575
-4.2647
-4.22168
-4.17667
-4.12965
-4.08061
-4.02955
-3.97647
-3.92139
-3.86434
-3.80534
-3.74442
-3.68159
-3.61689
-3.55035
-3.482
-3.41184
-3.33989
-3.26615
-3.19063
-3.11331
-3.03419
-2.95323
-2.87042
-2.78569
-2.69901
-2.61032
-2.51956
-2.42667
-2.33158
-2.23424
-2.13457
-2.03251
-1.92799
-1.82093
-1.71128
-1.59896
-1.48389
-1.36602
-1.24526
-1.12157
-0.994884
-0.865157
-0.732332
-0.596347
-0.457156
-0.314714
-0.168983
-0.0199252
0.132495
0.288313
0.447561
0.610271
0.776455
0.946113
1.11928
1.296
1.47628
1.66012
1.84752
2.03848
2.23298
2.43099
2.63243
2.83725
3.0454
3.25679
3.47133
3.68889
3.90936
4.13262
4.35848
4.58677
4.81732
5.04992
5.28439
5.52054
5.75812
5.99685
6.23647
6.47673
6.71736
6.95805
7.19847
7.43832
7.6773
7.91509
8.15137
8.38554
8.61748
8.84471
9.07083
9.2814
9.51841
9.65717
-4.52826
-4.54377
-4.55129
-4.55655
-4.56029
-4.56264
-4.5642
-4.56545
-4.56662
-4.56783
-4.56913
-4.57056
-4.57213
-4.57385
-4.57573
-4.57778
-4.57999
-4.58238
-4.58495
-4.5877
-4.59065
-4.59379
-4.59712
-4.60066
-4.60441
-4.60837
-4.61254
-4.61692
-4.62151
-4.6263
-4.6313
-4.6365
-4.64188
-4.64745
-4.65318
-4.65907
-4.6651
-4.67125
-4.67751
-4.68385
-4.69026
-4.6967
-4.70316
-4.70959
-4.71596
-4.72223
-4.72836
-4.73431
-4.74003
-4.74547
-4.7506
-4.75536
-4.7597
-4.76357
-4.76692
-4.76969
-4.77181
-4.77324
-4.77391
-4.77377
-4.77276
-4.77083
-4.76793
-4.76401
-4.75902
-4.75292
-4.74564
-4.73713
-4.72732
-4.71616
-4.70359
-4.68955
-4.67399
-4.65684
-4.63807
-4.61762
-4.59544
-4.57149
-4.54574
-4.51815
-4.4887
-4.45737
-4.42414
-4.38899
-4.35191
-4.31287
-4.27187
-4.22889
-4.1839
-4.1369
-4.08787
-4.03679
-3.98367
-3.92854
-3.87144
-3.8124
-3.75144
-3.68858
-3.62385
-3.5573
-3.48895
-3.41882
-3.3469
-3.27322
-3.19777
-3.12054
-3.04153
-2.96069
-2.87799
-2.79339
-2.70683
-2.61827
-2.52765
-2.43489
-2.33994
-2.24274
-2.14321
-2.04128
-1.9369
-1.82998
-1.72046
-1.60826
-1.49332
-1.37556
-1.25491
-1.13131
-1.0047
-0.875048
-0.742297
-0.606375
-0.467238
-0.324846
-0.17916
-0.0301439
0.122237
0.278016
0.437228
0.599912
0.766081
0.935733
1.1089
1.28563
1.46591
1.64977
1.83719
2.02817
2.2227
2.42074
2.62225
2.82716
3.0354
3.24687
3.46148
3.67912
3.89966
4.12299
4.34897
4.57736
4.808
5.04069
5.27525
5.51147
5.74912
5.98793
6.22763
6.46797
6.70867
6.94942
7.18992
7.42985
7.66892
7.90677
8.14309
8.37722
8.60904
8.83606
9.06216
9.2723
9.50986
9.64422
-4.53528
-4.54938
-4.55683
-4.56252
-4.56657
-4.56908
-4.57071
-4.57198
-4.57315
-4.57435
-4.57564
-4.57706
-4.57861
-4.58033
-4.5822
-4.58425
-4.58647
-4.58887
-4.59146
-4.59423
-4.59721
-4.60039
-4.60377
-4.60736
-4.61117
-4.61518
-4.61941
-4.62386
-4.62851
-4.63337
-4.63843
-4.64368
-4.64911
-4.6547
-4.66045
-4.66635
-4.67237
-4.6785
-4.68472
-4.69102
-4.69737
-4.70375
-4.71014
-4.7165
-4.72279
-4.72898
-4.73503
-4.74088
-4.74651
-4.75186
-4.7569
-4.76159
-4.76587
-4.7697
-4.77301
-4.77575
-4.77786
-4.77928
-4.77996
-4.77982
-4.77882
-4.77691
-4.77403
-4.77017
-4.76527
-4.75927
-4.7521
-4.74372
-4.73405
-4.72302
-4.71059
-4.69667
-4.68123
-4.6642
-4.64553
-4.62517
-4.60308
-4.5792
-4.5535
-4.52596
-4.49657
-4.46529
-4.4321
-4.39701
-4.35998
-4.321
-4.28005
-4.23712
-4.19219
-4.14523
-4.09621
-4.0451
-3.99193
-3.93676
-3.87961
-3.82053
-3.75952
-3.69662
-3.63187
-3.5653
-3.49696
-3.42685
-3.35497
-3.28134
-3.20595
-3.1288
-3.04987
-2.96912
-2.88652
-2.80201
-2.71553
-2.62706
-2.53654
-2.44388
-2.34903
-2.25191
-2.15247
-2.05064
-1.94635
-1.83952
-1.73009
-1.61797
-1.50311
-1.38542
-1.26483
-1.14128
-1.0147
-0.885076
-0.75234
-0.616424
-0.477289
-0.334894
-0.189203
-0.0401809
0.112206
0.267989
0.427201
0.589875
0.756045
0.925736
1.09896
1.27573
1.45606
1.63996
1.82743
2.01847
2.21305
2.41114
2.61273
2.81775
3.02609
3.23766
3.45237
3.6701
3.89074
4.11416
4.34022
4.5687
4.79942
5.0322
5.26684
5.50313
5.74083
5.97969
6.21944
6.45983
6.70057
6.94136
7.1819
7.42187
7.66096
7.8988
8.13507
8.36908
8.6007
8.82745
9.05341
9.26306
9.50081
9.63145
-4.54315
-4.55594
-4.56322
-4.56922
-4.57353
-4.57618
-4.57786
-4.57913
-4.58028
-4.58144
-4.5827
-4.58407
-4.5856
-4.58727
-4.58912
-4.59114
-4.59334
-4.59573
-4.59831
-4.60108
-4.60407
-4.60726
-4.61066
-4.61428
-4.61812
-4.62217
-4.62644
-4.63092
-4.63561
-4.64049
-4.64557
-4.65083
-4.65626
-4.66184
-4.66756
-4.6734
-4.67936
-4.68541
-4.69153
-4.69773
-4.70397
-4.71025
-4.71655
-4.72282
-4.72903
-4.73514
-4.7411
-4.74687
-4.75241
-4.75768
-4.76268
-4.76734
-4.77161
-4.77545
-4.77879
-4.78157
-4.78374
-4.78522
-4.78596
-4.7859
-4.78496
-4.7831
-4.7803
-4.77656
-4.7718
-4.76596
-4.75898
-4.75078
-4.74129
-4.73044
-4.71817
-4.7044
-4.68909
-4.67219
-4.65362
-4.63336
-4.61133
-4.5875
-4.56183
-4.53433
-4.50496
-4.47371
-4.44058
-4.40553
-4.36855
-4.32964
-4.28877
-4.24592
-4.20106
-4.15417
-4.1052
-4.05408
-4.00087
-3.94566
-3.8885
-3.82941
-3.76839
-3.70546
-3.64068
-3.57411
-3.50576
-3.43564
-3.36378
-3.29018
-3.21484
-3.13775
-3.05888
-2.9782
-2.89566
-2.81121
-2.72478
-2.63635
-2.54587
-2.45324
-2.35842
-2.26135
-2.16194
-2.06015
-1.95589
-1.8491
-1.7397
-1.62761
-1.51277
-1.3951
-1.27454
-1.151
-1.02443
-0.894767
-0.761972
-0.626002
-0.486813
-0.344364
-0.198618
-0.0495425
0.102896
0.258727
0.41798
0.580683
0.746883
0.916631
1.08992
1.26676
1.44716
1.63113
1.81868
2.0098
2.20446
2.40264
2.60432
2.80943
3.01786
3.22953
3.44434
3.66217
3.88291
4.10642
4.33254
4.56109
4.79189
5.02473
5.25941
5.49574
5.73346
5.97234
6.2121
6.45249
6.69322
6.934
7.17452
7.41445
7.65349
7.89125
8.12737
8.36115
8.59248
8.81887
9.04451
9.25361
9.49117
9.61886
-4.55183
-4.56345
-4.57051
-4.57669
-4.58119
-4.58393
-4.58563
-4.58687
-4.58796
-4.58905
-4.59022
-4.59152
-4.59296
-4.59456
-4.59634
-4.59829
-4.60043
-4.60277
-4.60531
-4.60805
-4.61101
-4.61418
-4.61757
-4.62119
-4.62502
-4.62908
-4.63335
-4.63783
-4.64252
-4.64741
-4.65247
-4.65769
-4.66306
-4.66856
-4.67419
-4.67992
-4.68575
-4.69165
-4.69762
-4.70364
-4.70974
-4.71589
-4.72208
-4.72827
-4.7344
-4.74044
-4.74634
-4.75203
-4.75747
-4.76268
-4.76766
-4.77235
-4.77669
-4.78061
-4.78406
-4.78696
-4.78925
-4.79087
-4.79176
-4.79184
-4.79102
-4.78919
-4.78646
-4.7829
-4.77837
-4.77277
-4.76603
-4.75806
-4.74879
-4.73815
-4.72605
-4.71244
-4.69725
-4.68044
-4.66197
-4.64177
-4.61977
-4.59592
-4.57022
-4.54268
-4.5133
-4.48206
-4.44895
-4.41393
-4.37702
-4.33817
-4.29739
-4.25464
-4.20991
-4.16315
-4.11426
-4.0631
-4.00979
-3.95457
-3.89748
-3.8385
-3.77754
-3.71459
-3.64974
-3.5831
-3.51471
-3.44459
-3.37274
-3.29919
-3.2239
-3.14687
-3.06805
-2.98741
-2.9049
-2.82047
-2.73405
-2.6456
-2.55507
-2.46241
-2.36756
-2.27045
-2.17101
-2.06919
-1.96491
-1.85809
-1.74866
-1.63655
-1.52168
-1.40398
-1.28337
-1.1598
-1.03319
-0.903459
-0.770567
-0.634501
-0.495215
-0.352669
-0.206829
-0.0576608
0.0948647
0.250778
0.41011
0.57289
0.739161
0.908969
1.08233
1.25923
1.43971
1.62376
1.81139
2.00259
2.19735
2.39562
2.59739
2.80257
3.01109
3.22284
3.43774
3.65566
3.87647
4.10004
4.32622
4.55481
4.78563
5.01849
5.25319
5.4895
5.72721
5.96605
6.20577
6.4461
6.68676
6.92746
7.16788
7.40769
7.64658
7.88414
8.12001
8.35346
8.58436
8.81028
9.03543
9.24391
9.48085
9.60638
-4.56133
-4.57195
-4.57873
-4.585
-4.58959
-4.59236
-4.59401
-4.59516
-4.59612
-4.59708
-4.59811
-4.59926
-4.60056
-4.60203
-4.60367
-4.6055
-4.60754
-4.60977
-4.61223
-4.61489
-4.61778
-4.6209
-4.62425
-4.62782
-4.63162
-4.63564
-4.63988
-4.64433
-4.64899
-4.65383
-4.65883
-4.66397
-4.66922
-4.67459
-4.68005
-4.68561
-4.69123
-4.69691
-4.70261
-4.70838
-4.71426
-4.72026
-4.72635
-4.73246
-4.73856
-4.74458
-4.75047
-4.75612
-4.76145
-4.76661
-4.7717
-4.77659
-4.78115
-4.78532
-4.78904
-4.79222
-4.7948
-4.79671
-4.79786
-4.79816
-4.79739
-4.79527
-4.79224
-4.7887
-4.78434
-4.77894
-4.77237
-4.76456
-4.75544
-4.74493
-4.73296
-4.71941
-4.70426
-4.68749
-4.66906
-4.64889
-4.62686
-4.6029
-4.57705
-4.54941
-4.52
-4.48879
-4.45574
-4.42082
-4.38404
-4.34536
-4.30479
-4.26228
-4.21782
-4.17136
-4.12269
-4.07142
-4.01788
-3.96271
-3.90583
-3.847
-3.78603
-3.72289
-3.65784
-3.59113
-3.52278
-3.45274
-3.381
-3.30754
-3.23235
-3.1554
-3.07664
-2.99602
-2.91349
-2.82901
-2.74255
-2.65402
-2.56338
-2.47061
-2.37566
-2.27844
-2.17892
-2.077
-1.97263
-1.86573
-1.75623
-1.64404
-1.52909
-1.41131
-1.29062
-1.16696
-1.04025
-0.91042
-0.777427
-0.641246
-0.501841
-0.359176
-0.213218
-0.0639382
0.0886929
0.244705
0.404129
0.566998
0.733351
0.903227
1.07665
1.25362
1.43416
1.61829
1.80599
1.99727
2.1921
2.39045
2.59229
2.79754
3.00613
3.21794
3.4329
3.65086
3.87172
4.09532
4.32151
4.5501
4.7809
5.01374
5.24839
5.48464
5.72227
5.96101
6.20061
6.44081
6.68133
6.92186
7.16209
7.40169
7.64033
7.87758
8.11306
8.34605
8.5764
8.80172
9.02618
9.23394
9.46982
9.59395
-4.57168
-4.58151
-4.58801
-4.59428
-4.59886
-4.60155
-4.60304
-4.60398
-4.60472
-4.60543
-4.60622
-4.60713
-4.6082
-4.60945
-4.61089
-4.61253
-4.61439
-4.61647
-4.61878
-4.62132
-4.62409
-4.62711
-4.63038
-4.63388
-4.63762
-4.64157
-4.64573
-4.65012
-4.65472
-4.6595
-4.66439
-4.66934
-4.67437
-4.67949
-4.68469
-4.68999
-4.69537
-4.7008
-4.7062
-4.71169
-4.71746
-4.72351
-4.72972
-4.736
-4.74227
-4.74846
-4.75444
-4.7599
-4.76445
-4.76882
-4.77367
-4.77854
-4.78311
-4.7873
-4.79112
-4.79446
-4.79721
-4.7993
-4.80069
-4.80129
-4.80094
-4.79955
-4.7972
-4.79388
-4.78947
-4.7839
-4.77709
-4.769
-4.75956
-4.74871
-4.7364
-4.72254
-4.7071
-4.69005
-4.67136
-4.65095
-4.6287
-4.60447
-4.57836
-4.55052
-4.52098
-4.48971
-4.45667
-4.42183
-4.38518
-4.34671
-4.30641
-4.26423
-4.22016
-4.17417
-4.12614
-4.07592
-4.0235
-3.96904
-3.91256
-3.85395
-3.79288
-3.72932
-3.66394
-3.59723
-3.52905
-3.45924
-3.38773
-3.31449
-3.23945
-3.16258
-3.08383
-3.00316
-2.92054
-2.83594
-2.74933
-2.66065
-2.56986
-2.47694
-2.38182
-2.28446
-2.18479
-2.08274
-1.97824
-1.87122
-1.76161
-1.64931
-1.53426
-1.41638
-1.29558
-1.17181
-1.04498
-0.915035
-0.781929
-0.645629
-0.5061
-0.36331
-0.217232
-0.0678379
0.0848998
0.24101
0.400524
0.563476
0.729904
0.899844
1.07332
1.25035
1.43095
1.61513
1.80289
1.99423
2.18912
2.38753
2.58942
2.79471
3.00334
3.21519
3.43017
3.64815
3.86901
4.0926
4.31875
4.54729
4.77803
5.01078
5.24533
5.48145
5.71893
5.95749
6.1969
6.43689
6.67717
6.91744
7.15738
7.39666
7.63491
7.87173
8.1067
8.33908
8.56873
8.79329
9.01684
9.2238
9.45812
9.5816
-4.58338
-4.59272
-4.59891
-4.60507
-4.60949
-4.6119
-4.61304
-4.61357
-4.61389
-4.61419
-4.61458
-4.61511
-4.61583
-4.61674
-4.61788
-4.61924
-4.62086
-4.62272
-4.62484
-4.6272
-4.6298
-4.63267
-4.63583
-4.63925
-4.64287
-4.64665
-4.65063
-4.65487
-4.6594
-4.66416
-4.66903
-4.67386
-4.67876
-4.68379
-4.68889
-4.69407
-4.69925
-4.70419
-4.70847
-4.71239
-4.717
-4.72255
-4.72858
-4.73478
-4.74103
-4.7473
-4.75346
-4.75931
-4.7648
-4.77009
-4.7752
-4.77984
-4.78392
-4.78751
-4.79069
-4.79341
-4.79559
-4.79717
-4.79813
-4.79844
-4.7981
-4.79722
-4.79532
-4.79189
-4.78714
-4.78112
-4.77382
-4.76518
-4.75518
-4.74376
-4.73088
-4.71653
-4.70065
-4.68317
-4.66408
-4.64332
-4.62079
-4.59631
-4.56997
-4.54196
-4.51231
-4.48099
-4.448
-4.4133
-4.37689
-4.33871
-4.29874
-4.25696