/*--------------------------------*- C++ -*----------------------------------*\
| =========                 |                                                 |
| \\      /  F ield         | OpenFOAM: The Open Source CFD Toolbox           |
|  \\    /   O peration     | Version:  2112                                  |
|   \\  /    A nd           | Website:  www.openfoam.com                      |
|    \\/     M anipulation  |                                                 |
\*---------------------------------------------------------------------------*/
FoamFile
{
    version     2.0;
    format      ascii;
    arch        "LSB;label=32;scalar=64";
    class       volVectorField;
    location    "0.46";
    object      U_0;
}
// * * * * * * * * * * * * * * * * * * * * * * * * * * * * * * * * * * * * * //

dimensions      [0 1 -1 0 0 0 0];

internalField   nonuniform List<vector> 
12225
(
(9.76438 0.067418 0)
(9.27356 0.109 0)
(8.73475 0.118704 0)
(8.18556 0.12062 0)
(7.66202 0.116935 0)
(7.18175 0.108418 0)
(6.75612 0.0965261 0)
(6.39408 0.0826449 0)
(6.0998 0.0680382 0)
(5.87172 0.0538874 0)
(5.70357 0.0411188 0)
(5.5861 0.0302898 0)
(5.50872 0.0216194 0)
(5.46114 0.015209 0)
(5.43291 0.011061 0)
(5.41971 0.00992644 0)
(5.39696 0.0262712 0)
(5.37368 -0.0017606 0)
(10.0957 0.0741221 0)
(10.284 0.108923 0)
(10.4001 0.116889 0)
(10.451 0.125036 0)
(10.4469 0.129904 0)
(10.3921 0.129364 0)
(10.2928 0.123676 0)
(10.1581 0.113512 0)
(9.99755 0.0998838 0)
(9.81906 0.0842312 0)
(9.62908 0.0680969 0)
(9.43258 0.0527668 0)
(9.23348 0.0390884 0)
(9.03498 0.0276272 0)
(8.84001 0.018192 0)
(8.65139 0.0131748 0)
(8.47564 0.0108587 0)
(8.33454 0.0338845 0)
(10.0193 0.0415504 0)
(10.0733 0.0684541 0)
(10.1286 0.0844284 0)
(10.1827 0.10191 0)
(10.2398 0.116222 0)
(10.2957 0.125766 0)
(10.3438 0.13095 0)
(10.3811 0.132437 0)
(10.4054 0.131064 0)
(10.4157 0.128017 0)
(10.4127 0.124557 0)
(10.3977 0.121668 0)
(10.3727 0.119905 0)
(10.3397 0.119396 0)
(10.3006 0.119939 0)
(10.2572 0.120905 0)
(10.2144 0.121971 0)
(10.1678 0.114747 0)
(10.0104 0.0334874 0)
(10.0434 0.0654494 0)
(10.0731 0.0821373 0)
(10.0985 0.0957628 0)
(10.1258 0.105964 0)
(10.1556 0.112004 0)
(10.1859 0.114519 0)
(10.2149 0.114088 0)
(10.2414 0.11131 0)
(10.2648 0.107071 0)
(10.285 0.102338 0)
(10.3024 0.0978728 0)
(10.3176 0.0941482 0)
(10.3313 0.0913303 0)
(10.3445 0.0892515 0)
(10.3581 0.087414 0)
(10.3733 0.0849004 0)
(10.39 0.0749584 0)
(10.0063 0.0280715 0)
(10.0321 0.0594419 0)
(10.0569 0.0755955 0)
(10.078 0.0884546 0)
(10.0997 0.0984063 0)
(10.1225 0.104532 0)
(10.1449 0.107287 0)
(10.1661 0.107359 0)
(10.1858 0.105458 0)
(10.2037 0.102397 0)
(10.2197 0.0989443 0)
(10.2342 0.0956911 0)
(10.2478 0.0930118 0)
(10.2614 0.0910371 0)
(10.2757 0.0895121 0)
(10.2914 0.0877497 0)
(10.309 0.0846573 0)
(10.3288 0.0776499 0)
(10.0039 0.0230469 0)
(10.0244 0.0526835 0)
(10.0469 0.0694491 0)
(10.067 0.0823288 0)
(10.0871 0.0920058 0)
(10.1078 0.0979218 0)
(10.128 0.100602 0)
(10.147 0.100806 0)
(10.1647 0.099149 0)
(10.1809 0.0963035 0)
(10.1956 0.0929259 0)
(10.2092 0.089563 0)
(10.2221 0.0865275 0)
(10.2351 0.0838136 0)
(10.2487 0.0811291 0)
(10.2632 0.0779324 0)
(10.2789 0.0733022 0)
(10.2953 0.0654482 0)
(10.0026 0.0191693 0)
(10.0188 0.0463966 0)
(10.0389 0.063073 0)
(10.058 0.0756819 0)
(10.0772 0.0850114 0)
(10.0968 0.090773 0)
(10.1159 0.0935115 0)
(10.1341 0.0939056 0)
(10.151 0.0925242 0)
(10.1665 0.0899875 0)
(10.1809 0.0868982 0)
(10.1943 0.0836868 0)
(10.2072 0.080576 0)
(10.2201 0.077531 0)
(10.2332 0.0743247 0)
(10.2469 0.0704809 0)
(10.2612 0.0652235 0)
(10.2756 0.057445 0)
(10.0018 0.016103 0)
(10.0147 0.0408107 0)
(10.0323 0.0568621 0)
(10.0501 0.0688747 0)
(10.0684 0.077795 0)
(10.087 0.0833451 0)
(10.1053 0.0860485 0)
(10.1227 0.0865718 0)
(10.139 0.0854418 0)
(10.1542 0.0831898 0)
(10.1683 0.0803113 0)
(10.1817 0.0771629 0)
(10.1945 0.0739326 0)
(10.2072 0.0705978 0)
(10.2199 0.0669201 0)
(10.2329 0.0625003 0)
(10.2461 0.0568044 0)
(10.259 0.0492164 0)
(10.0013 0.0135933 0)
(10.0116 0.0357445 0)
(10.027 0.0509005 0)
(10.0434 0.062171 0)
(10.0606 0.0705563 0)
(10.0783 0.0758887 0)
(10.0957 0.0785367 0)
(10.1123 0.0791 0)
(10.128 0.0781141 0)
(10.1427 0.0760521 0)
(10.1566 0.073319 0)
(10.1697 0.070209 0)
(10.1823 0.0668712 0)
(10.1947 0.0632818 0)
(10.207 0.0592547 0)
(10.2193 0.0544907 0)
(10.2315 0.0486166 0)
(10.2432 0.0412985 0)
(10.001 0.011492 0)
(10.0094 0.0311035 0)
(10.0227 0.0451549 0)
(10.0378 0.0555723 0)
(10.0537 0.0632764 0)
(10.0703 0.0682887 0)
(10.0869 0.0708652 0)
(10.1028 0.0714815 0)
(10.1179 0.0706188 0)
(10.1322 0.0686913 0)
(10.1457 0.0660539 0)
(10.1584 0.0629635 0)
(10.1707 0.0595443 0)
(10.1827 0.0557736 0)
(10.1945 0.0515131 0)
(10.2061 0.0465501 0)
(10.2174 0.0406406 0)
(10.2282 0.0336344 0)
(10.0008 0.00970432 0)
(10.0077 0.0268451 0)
(10.0193 0.0396218 0)
(10.033 0.0490979 0)
(10.0477 0.056054 0)
(10.0631 0.060598 0)
(10.0787 0.0629827 0)
(10.094 0.0636114 0)
(10.1086 0.0628445 0)
(10.1224 0.0610357 0)
(10.1355 0.0585 0)
(10.148 0.0554509 0)
(10.1599 0.0519758 0)
(10.1714 0.0480684 0)
(10.1827 0.0436553 0)
(10.1936 0.0385998 0)
(10.2041 0.0327585 0)
(10.214 0.0260911 0)
(10.0006 0.00826259 0)
(10.0065 0.0232311 0)
(10.0168 0.0347246 0)
(10.0293 0.0432708 0)
(10.0429 0.0494994 0)
(10.0573 0.0535616 0)
(10.072 0.0556752 0)
(10.0865 0.0561876 0)
(10.1004 0.0554329 0)
(10.1138 0.0537026 0)
(10.1266 0.0512479 0)
(10.1388 0.0482395 0)
(10.1505 0.0447594 0)
(10.1617 0.0408182 0)
(10.1724 0.036351 0)
(10.1828 0.0312887 0)
(10.1926 0.0255734 0)
(10.2018 0.0192277 0)
(10.0005 0.00698777 0)
(10.0055 0.0198788 0)
(10.0147 0.0300179 0)
(10.0261 0.0375901 0)
(10.0388 0.0430664 0)
(10.0522 0.0466086 0)
(10.0659 0.0484076 0)
(10.0796 0.0487574 0)
(10.0929 0.0479442 0)
(10.1058 0.0462153 0)
(10.1182 0.043781 0)
(10.13 0.0407955 0)
(10.1414 0.0373403 0)
(10.1523 0.0334165 0)
(10.1627 0.0289822 0)
(10.1725 0.0240131 0)
(10.1818 0.0184801 0)
(10.1905 0.012446 0)
(10.0005 0.00569117 0)
(10.0047 0.0163183 0)
(10.0127 0.0248582 0)
(10.0231 0.0312591 0)
(10.0347 0.0358303 0)
(10.047 0.0387266 0)
(10.0598 0.0401085 0)
(10.0726 0.040211 0)
(10.0852 0.0392707 0)
(10.0974 0.0374916 0)
(10.1092 0.0350431 0)
(10.1205 0.0320496 0)
(10.1314 0.0285855 0)
(10.1418 0.0246837 0)
(10.1518 0.0203441 0)
(10.1612 0.0155417 0)
(10.17 0.010271 0)
(10.1782 0.00462107 0)
(10.0004 0.00436332 0)
(10.004 0.0125667 0)
(10.011 0.0192644 0)
(10.0202 0.024277 0)
(10.0307 0.027771 0)
(10.042 0.0298752 0)
(10.0538 0.030717 0)
(10.0657 0.0304722 0)
(10.0774 0.0293245 0)
(10.0889 0.0274345 0)
(10.1 0.024934 0)
(10.1107 0.0219226 0)
(10.1209 0.0184666 0)
(10.1308 0.0146045 0)
(10.1401 0.010358 0)
(10.149 0.00574703 0)
(10.1572 0.000794205 0)
(10.1649 -0.00442121 0)
(10.0003 0.00299414 0)
(10.0034 0.00863327 0)
(10.0094 0.0132544 0)
(10.0176 0.0166475 0)
(10.0271 0.0188728 0)
(10.0374 0.0200187 0)
(10.0481 0.0201764 0)
(10.059 0.0194669 0)
(10.0699 0.0180208 0)
(10.0806 0.0159555 0)
(10.091 0.0133684 0)
(10.101 0.010336 0)
(10.1106 0.00691487 0)
(10.1197 0.00314572 0)
(10.1284 -0.00093931 0)
(10.1365 -0.00530884 0)
(10.1441 -0.00992943 0)
(10.1512 -0.0147211 0)
(10.0003 0.00156683 0)
(10.003 0.00449529 0)
(10.0082 0.0068158 0)
(10.0155 0.00835265 0)
(10.024 0.00910296 0)
(10.0333 0.00910938 0)
(10.0431 0.00842534 0)
(10.0531 0.00712245 0)
(10.0632 0.00528122 0)
(10.0731 0.00297688 0)
(10.0827 0.00027365 0)
(10.0919 -0.00277567 0)
(10.1008 -0.00612845 0)
(10.1093 -0.00974947 0)
(10.1172 -0.0136072 0)
(10.1247 -0.0176692 0)
(10.1317 -0.0219028 0)
(10.1382 -0.0262404 0)
(10.0003 4.75691e-05 0)
(10.0026 6.74652e-05 0)
(10.0073 -0.000155724 0)
(10.0139 -0.000728902 0)
(10.0216 -0.00168263 0)
(10.0302 -0.00301545 0)
(10.0392 -0.00471198 0)
(10.0485 -0.00674467 0)
(10.0577 -0.00907948 0)
(10.0669 -0.0116828 0)
(10.0758 -0.0145247 0)
(10.0844 -0.0175794 0)
(10.0926 -0.0208247 0)
(10.1004 -0.02424 0)
(10.1078 -0.0278051 0)
(10.1146 -0.031498 0)
(10.121 -0.0352965 0)
(10.127 -0.039151 0)
(10.0002 -0.00164085 0)
(10.0025 -0.00485161 0)
(10.0069 -0.00791991 0)
(10.0132 -0.0108757 0)
(10.0205 -0.0137691 0)
(10.0286 -0.016639 0)
(10.0371 -0.0195069 0)
(10.0459 -0.0223866 0)
(10.0547 -0.0252891 0)
(10.0634 -0.0282237 0)
(10.0718 -0.0311985 0)
(10.0798 -0.034221 0)
(10.0875 -0.0372974 0)
(10.0948 -0.0404323 0)
(10.1016 -0.0436269 0)
(10.1079 -0.0468788 0)
(10.1138 -0.0501834 0)
(10.1192 -0.0535139 0)
(10.0003 -0.00325565 0)
(10.0027 -0.00954043 0)
(10.0074 -0.0152733 0)
(10.0138 -0.0204249 0)
(10.0213 -0.0250899 0)
(10.0295 -0.0293537 0)
(10.0382 -0.0332699 0)
(10.047 -0.0368881 0)
(10.0558 -0.0402597 0)
(10.0644 -0.0434325 0)
(10.0727 -0.0464498 0)
(10.0806 -0.0493525 0)
(10.0881 -0.0521784 0)
(10.0951 -0.0549608 0)
(10.1016 -0.0577275 0)
(10.1076 -0.0604995 0)
(10.1132 -0.0632928 0)
(10.1183 -0.0661033 0)
(10.0003 -0.004683 0)
(10.003 -0.0136329 0)
(10.0083 -0.0215604 0)
(10.0153 -0.0284441 0)
(10.0234 -0.0344852 0)
(10.032 -0.0398191 0)
(10.041 -0.04452 0)
(10.0502 -0.0486676 0)
(10.0593 -0.0523469 0)
(10.0682 -0.0556348 0)
(10.0767 -0.0586021 0)
(10.0847 -0.0613174 0)
(10.0922 -0.0638469 0)
(10.0992 -0.0662509 0)
(10.1057 -0.0685819 0)
(10.1115 -0.0708832 0)
(10.1169 -0.0731901 0)
(10.1218 -0.0755168 0)
(10.0004 -0.00616573 0)
(10.0037 -0.0177682 0)
(10.0099 -0.0276835 0)
(10.0178 -0.0360477 0)
(10.0266 -0.0432635 0)
(10.0359 -0.0495073 0)
(10.0456 -0.0548589 0)
(10.0554 -0.0594275 0)
(10.065 -0.0633274 0)
(10.0743 -0.0666564 0)
(10.0832 -0.0695068 0)
(10.0916 -0.0719732 0)
(10.0993 -0.0741496 0)
(10.1065 -0.0761238 0)
(10.113 -0.0779744 0)
(10.1188 -0.0797691 0)
(10.1241 -0.0815646 0)
(10.1288 -0.0833963 0)
(10.0005 -0.00781897 0)
(10.0048 -0.0221515 0)
(10.0124 -0.0338257 0)
(10.0214 -0.0434252 0)
(10.031 -0.0516448 0)
(10.0412 -0.058661 0)
(10.0518 -0.0645524 0)
(10.0623 -0.0694636 0)
(10.0727 -0.0735273 0)
(10.0827 -0.0768482 0)
(10.0921 -0.0795319 0)
(10.101 -0.0816963 0)
(10.1091 -0.0834626 0)
(10.1165 -0.0849468 0)
(10.1231 -0.0862555 0)
(10.1291 -0.0874825 0)
(10.1343 -0.0887066 0)
(10.1389 -0.0899798 0)
(10.0007 -0.00978409 0)
(10.0066 -0.026927 0)
(10.0159 -0.0400263 0)
(10.0263 -0.0506292 0)
(10.037 -0.0597396 0)
(10.0482 -0.0674217 0)
(10.0598 -0.073752 0)
(10.0712 -0.0789312 0)
(10.0824 -0.0831052 0)
(10.0932 -0.0863732 0)
(10.1033 -0.0888475 0)
(10.1127 -0.0906685 0)
(10.1212 -0.0919857 0)
(10.1289 -0.0929416 0)
(10.1357 -0.0936725 0)
(10.1417 -0.0943041 0)
(10.1469 -0.0949465 0)
(10.1513 -0.0956808 0)
(10.0011 -0.0122873 0)
(10.0094 -0.0323348 0)
(10.0211 -0.0463767 0)
(10.033 -0.0577201 0)
(10.0449 -0.0676731 0)
(10.0573 -0.0760219 0)
(10.0699 -0.0827796 0)
(10.0823 -0.088187 0)
(10.0943 -0.0923971 0)
(10.1057 -0.0955047 0)
(10.1165 -0.0976318 0)
(10.1264 -0.0989525 0)
(10.1354 -0.0996609 0)
(10.1434 -0.0999328 0)
(10.1504 -0.0999316 0)
(10.1565 -0.0998091 0)
(10.1616 -0.0996937 0)
(10.1659 -0.0996498 0)
(10.002 -0.0157237 0)
(10.0141 -0.0390003 0)
(10.0288 -0.0534951 0)
(10.0422 -0.0649948 0)
(10.0552 -0.0750566 0)
(10.0688 -0.0834864 0)
(10.0825 -0.090371 0)
(10.0959 -0.095935 0)
(10.109 -0.100271 0)
(10.1216 -0.103436 0)
(10.1335 -0.105532 0)
(10.1446 -0.106721 0)
(10.1547 -0.107194 0)
(10.1637 -0.107164 0)
(10.1717 -0.106853 0)
(10.1786 -0.106447 0)
(10.1845 -0.106119 0)
(10.1896 -0.105936 0)
(10.0041 -0.0200912 0)
(10.0218 -0.0453885 0)
(10.0405 -0.0603904 0)
(10.0565 -0.0727006 0)
(10.0722 -0.0832869 0)
(10.0886 -0.0916982 0)
(10.1053 -0.098358 0)
(10.122 -0.103585 0)
(10.1387 -0.107427 0)
(10.1553 -0.109922 0)
(10.1714 -0.111172 0)
(10.1868 -0.111392 0)
(10.201 -0.11079 0)
(10.2138 -0.109531 0)
(10.2251 -0.107847 0)
(10.235 -0.106008 0)
(10.2435 -0.104188 0)
(10.2502 -0.102486 0)
(10.0095 -0.0259545 0)
(10.039 -0.0474154 0)
(10.0698 -0.0602576 0)
(10.0991 -0.0743507 0)
(10.1314 -0.0877269 0)
(10.166 -0.0990219 0)
(10.2013 -0.108509 0)
(10.2361 -0.116537 0)
(10.2697 -0.123034 0)
(10.3007 -0.127907 0)
(10.3283 -0.131186 0)
(10.3514 -0.132985 0)
(10.3698 -0.133558 0)
(10.3832 -0.133246 0)
(10.3917 -0.132403 0)
(10.3955 -0.131418 0)
(10.395 -0.130538 0)
(10.3911 -0.130189 0)
(10.0515 -0.0520906 0)
(10.1748 -0.0841541 0)
(10.2757 -0.0938815 0)
(10.3508 -0.103773 0)
(10.4025 -0.112691 0)
(10.4316 -0.119349 0)
(10.4374 -0.12401 0)
(10.4212 -0.126801 0)
(10.3853 -0.127582 0)
(10.3323 -0.126284 0)
(10.2647 -0.122983 0)
(10.1851 -0.117906 0)
(10.096 -0.111393 0)
(9.99951 -0.103832 0)
(9.89751 -0.09561 0)
(9.79161 -0.0872213 0)
(9.683 -0.078956 0)
(9.57302 -0.0718946 0)
(9.87225 -0.0504931 0)
(9.57844 -0.089546 0)
(9.23342 -0.104027 0)
(8.8629 -0.112288 0)
(8.49004 -0.116489 0)
(8.1243 -0.117184 0)
(7.77077 -0.115272 0)
(7.43459 -0.1113 0)
(7.12026 -0.10559 0)
(6.83104 -0.0984517 0)
(6.56915 -0.0902288 0)
(6.33584 -0.0812854 0)
(6.13139 -0.0719818 0)
(5.95513 -0.0626426 0)
(5.80552 -0.0535463 0)
(5.68064 -0.0449788 0)
(5.57698 -0.0372805 0)
(5.49431 -0.0300098 0)
(-0.00471417 0.00822257 -2.10189e-21)
(-0.00827471 0.00976484 1.95085e-21)
(-0.0163576 0.0108386 0)
(-0.024735 0.0116974 0)
(-0.0335542 0.0123444 0)
(-0.0428446 0.0128076 -1.88784e-21)
(-0.0525072 0.0131227 0)
(-0.0624483 0.0133221 0)
(-0.0726046 0.0134384 0)
(-0.082934 0.01351 0)
(-0.0934156 0.0135883 1.81917e-21)
(-0.104059 0.0137485 0)
(-0.114887 0.0141055 0)
(-0.125958 0.0145272 0)
(-0.137298 0.014767 0)
(-0.148846 0.0148409 1.76688e-21)
(-0.160563 0.0148664 0)
(-0.172452 0.0148989 0)
(-0.184522 0.0149493 0)
(-0.196782 0.0150165 0)
(-0.209241 0.0150989 0)
(-0.221911 0.0151963 0)
(-0.234801 0.0153083 0)
(-0.247923 0.0154345 1.68919e-21)
(-0.261287 0.0155742 -1.67958e-21)
(-0.274905 0.0157264 1.67004e-21)
(-0.288786 0.01589 1.66059e-21)
(-0.30294 0.0160639 0)
(-0.317376 0.0162467 0)
(-0.332103 0.0164371 -1.63284e-21)
(-0.347128 0.0166336 -1.62381e-21)
(-0.362456 0.0168349 0)
(-0.378094 0.0170392 0)
(-0.394044 0.0172453 -1.59736e-21)
(-0.410311 0.0174514 0)
(-0.426894 0.0176561 0)
(-0.443794 0.0178577 1.5719e-21)
(-0.461009 0.0180547 0)
(-0.478535 0.0182454 1.55544e-21)
(-0.496368 0.0184284 3.09469e-21)
(-0.514501 0.018602 0)
(-0.532925 0.0187646 0)
(-0.551631 0.0189147 0)
(-0.570607 0.0190507 0)
(-0.589839 0.0191711 0)
(-0.609311 0.0192744 3.00077e-21)
(-0.629008 0.0193594 2.98547e-21)
(-0.64891 0.0194247 2.97023e-21)
(-0.668998 0.0194693 0)
(-0.689249 0.019492 -2.93979e-21)
(-0.709642 0.019492 0)
(-0.730153 0.0194686 2.90921e-21)
(-0.750755 0.0194213 2.8938e-21)
(-0.771425 0.0193496 0)
(-0.792134 0.0192534 0)
(-0.812857 0.0191327 0)
(-0.833565 0.0189877 2.83061e-21)
(-0.854232 0.0188189 0)
(-0.87483 0.0186268 0)
(-0.895332 0.0184123 0)
(-0.915711 0.0181761 0)
(-0.935942 0.0179194 0)
(-0.955999 0.0176431 0)
(-0.975858 0.0173485 0)
(-0.995494 0.0170365 0)
(-1.01489 0.0167083 -2.67039e-21)
(-1.03401 0.016365 0)
(-1.05285 0.0160076 0)
(-1.07138 0.015637 2.60851e-21)
(-1.08958 0.0152541 2.58672e-21)
(-1.10743 0.0148598 0)
(-1.12493 0.014455 -2.54129e-21)
(-1.14204 0.0140405 2.51761e-21)
(-1.15876 0.0136172 0)
(-1.17507 0.0131858 -2.46827e-21)
(-1.19096 0.0127474 0)
(-1.20641 0.0123029 0)
(-1.22142 0.0118538 2.38916e-21)
(-1.23598 0.0114014 0)
(-1.25007 0.0109475 -2.33296e-21)
(-1.2637 0.0104938 0)
(-1.27685 0.0100424 2.274e-21)
(-1.28953 0.00959543 2.24348e-21)
(-1.30174 0.00915471 2.21229e-21)
(-1.31348 0.00872205 4.36084e-21)
(-1.32474 0.00829901 -4.29577e-21)
(-1.33554 0.00788691 0)
(-1.34588 0.00748687 0)
(-1.35577 0.00709983 0)
(-1.36522 0.00672671 -4.02244e-21)
(-1.37423 0.00636839 -3.95097e-21)
(-1.38283 0.00602577 3.87828e-21)
(-1.39101 0.00569978 0)
(-1.39881 0.0053913 -3.72943e-21)
(-1.40623 0.00510113 -3.65334e-21)
(-1.41329 0.00482987 -3.57617e-21)
(-1.42002 0.00457796 0)
(-1.42644 0.00434553 0)
(-1.43255 0.00413246 0)
(-1.43839 0.0039383 -3.25764e-21)
(-1.44398 0.00376226 0)
(-1.44932 0.00360324 0)
(-1.45445 0.00345985 3.00933e-21)
(-1.45938 0.00333043 0)
(-1.46411 0.00321315 0)
(-1.46866 0.00310604 2.75371e-21)
(-1.47304 0.00300702 0)
(-1.47725 0.00291399 0)
(-1.48129 0.00282483 -2.49105e-21)
(-1.48516 0.0027374 -2.40193e-21)
(-1.48887 0.0026495 0)
(-1.49239 0.0025586 2.22124e-21)
(-1.49572 0.00246131 0)
(-1.49885 0.00235244 -2.03716e-21)
(-1.50177 0.00222337 0)
(-1.50445 0.00206186 -1.84952e-21)
(-1.50685 0.00187413 -1.75419e-21)
(-1.50898 0.00172511 0)
(-1.51084 0.001628 0)
(-1.51235 0.00158843 0)
(-1.5135 0.00152488 0)
(-1.51428 0.00143285 0)
(-1.51468 0.00131823 0)
(-1.51467 0.0011844 0)
(-1.51422 0.00103362 -9.56084e-22)
(-1.51332 0.000867311 8.5128e-22)
(-1.51194 0.000686239 0)
(-1.51006 0.000490653 0)
(-1.50764 0.000280417 0)
(-1.50468 5.51317e-05 0)
(-1.50113 -0.000185787 6.18536e-22)
(-1.49698 -0.000443092 0)
(-1.49219 -0.000717729 -1.6782e-22)
(-1.48674 -0.00101083 -6.12299e-23)
(-1.48059 -0.00132368 0)
(-1.47372 -0.00165761 0)
(-1.4661 -0.00201341 0)
(-1.45769 -0.00238983 1.00186e-21)
(-1.44846 -0.00278311 1.24303e-21)
(-1.43838 -0.00319311 0)
(-1.4274 -0.00362038 1.73243e-21)
(-1.4155 -0.00406471 1.98058e-21)
(-1.40262 -0.00452501 -2.23097e-21)
(-1.38873 -0.00499947 0)
(-1.37378 -0.00548588 0)
(-1.35774 -0.00598236 -2.99507e-21)
(-1.34057 -0.00648801 0)
(-1.32223 -0.0070035 0)
(-1.30267 -0.00753112 0)
(-1.28185 -0.0080739 0)
(-1.25973 -0.00863417 4.30552e-21)
(-1.23626 -0.00921277 4.57183e-21)
(-1.2114 -0.00980956 0)
(-1.18509 -0.0104238 5.10714e-21)
(-1.15729 -0.0110548 0)
(-1.12797 -0.0117025 0)
(-1.09708 -0.0123684 5.913e-21)
(-1.06458 -0.0130539 0)
(-1.03043 -0.013759 6.4488e-21)
(-0.994579 -0.0144833 0)
(-0.957001 -0.0152259 0)
(-0.917662 -0.0159868 7.24336e-21)
(-0.876532 -0.0167684 0)
(-0.833582 -0.0175726 7.76209e-21)
(-0.788784 -0.0183993 0)
(-0.742119 -0.0192487 0)
(-0.693577 -0.0201234 0)
(-0.643145 -0.0210305 -8.75447e-21)
(-0.590804 -0.0219793 0)
(-0.536529 -0.022983 9.21679e-21)
(-0.48028 -0.0240654 0)
(-0.421983 -0.0252627 0)
(-0.361527 -0.0266194 0)
(-0.298867 -0.0281038 0)
(-0.233814 -0.028921 0)
(-0.171315 -0.0257024 0)
(-0.112987 -0.0217612 0)
(-0.0555874 -0.021296 -2.12358e-20)
(0.00680588 -0.0210552 0)
(0.0563062 -0.0169235 0)
(-0.00703649 0.0178359 6.25771e-21)
(-0.0100407 0.0210493 -5.79986e-21)
(-0.0191374 0.0234707 0)
(-0.0280437 0.0252535 3.78277e-21)
(-0.037197 0.0265841 0)
(-0.0467846 0.027567 1.86037e-21)
(-0.0567612 0.0282818 -3.68707e-21)
(-0.0670671 0.0287966 -3.65908e-21)
(-0.0776665 0.0291683 0)
(-0.0885357 0.0294461 -3.60641e-21)
(-0.0996566 0.0296742 -1.79317e-21)
(-0.111011 0.0298949 0)
(-0.122563 0.0301499 0)
(-0.134283 0.0304598 0)
(-0.146181 0.0307853 0)
(-0.158295 0.0310916 -1.73394e-21)
(-0.170643 0.0313789 0)
(-0.183227 0.0316603 3.41631e-21)
(-0.196047 0.0319462 0)
(-0.209103 0.0322427 0)
(-0.222402 0.0325526 -3.35092e-21)
(-0.235951 0.0328777 0)
(-0.249758 0.0332188 3.30902e-21)
(-0.263834 0.0335761 -1.64779e-21)
(-0.278189 0.0339492 1.63778e-21)
(-0.292831 0.0343372 -1.62795e-21)
(-0.307773 0.0347388 -1.61827e-21)
(-0.323022 0.0351523 0)
(-0.338589 0.0355756 0)
(-0.354481 0.0360066 1.59018e-21)
(-0.370706 0.0364425 -1.57357e-21)
(-0.387268 0.0368807 0)
(-0.404174 0.0373183 0)
(-0.421425 0.0377522 1.55469e-21)
(-0.439025 0.0381793 0)
(-0.456972 0.0385963 0)
(-0.475266 0.0389999 -1.52934e-21)
(-0.493904 0.039387 0)
(-0.51288 0.039754 1.50482e-21)
(-0.532187 0.0400978 -3.00981e-21)
(-0.551816 0.0404151 0)
(-0.571757 0.0407026 0)
(-0.591997 0.0409572 -5.90816e-21)
(-0.612522 0.041176 -5.87702e-21)
(-0.633314 0.0413561 -5.84609e-21)
(-0.654356 0.0414949 2.89923e-21)
(-0.675627 0.04159 -2.90083e-21)
(-0.697105 0.0416393 -8.6398e-21)
(-0.718768 0.0416408 5.72377e-21)
(-0.740589 0.0415931 2.85511e-21)
(-0.762543 0.0414949 0)
(-0.784603 0.0413453 -2.82452e-21)
(-0.806739 0.0411439 2.79237e-21)
(-0.828924 0.0408905 0)
(-0.851127 0.0405854 0)
(-0.873318 0.0402292 0)
(-0.895467 0.039823 -2.74601e-21)
(-0.917545 0.0393681 0)
(-0.939521 0.0388662 5.41046e-21)
(-0.961366 0.0383194 0)
(-0.983051 0.0377299 5.34285e-21)
(-1.00455 0.0371 0)
(-1.02583 0.0364323 -5.27246e-21)
(-1.04688 0.0357294 0)
(-1.06766 0.034994 5.19886e-21)
(-1.08815 0.0342287 -2.57332e-21)
(-1.10834 0.033436 0)
(-1.12819 0.0326185 -5.08156e-21)
(-1.14769 0.0317787 -2.52678e-21)
(-1.16682 0.030919 -2.50552e-21)
(-1.18557 0.0300419 0)
(-1.20391 0.0291497 -2.44926e-21)
(-1.22183 0.028245 -2.43836e-21)
(-1.23932 0.0273302 0)
(-1.25637 0.0264078 2.39067e-21)
(-1.27296 0.0254803 -4.72134e-21)
(-1.28909 0.0245503 0)
(-1.30475 0.0236205 -2.31467e-21)
(-1.31993 0.0226934 0)
(-1.33462 0.0217718 6.77411e-21)
(-1.34884 0.0208581 0)
(-1.36256 0.0199546 -6.60681e-21)
(-1.3758 0.0190637 -2.17608e-21)
(-1.38856 0.0181875 2.13917e-21)
(-1.40082 0.0173278 4.21884e-21)
(-1.41261 0.0164865 -4.15809e-21)
(-1.42391 0.0156652 0)
(-1.43473 0.0148657 0)
(-1.44509 0.0140897 0)
(-1.45497 0.0133389 1.17276e-20)
(-1.4644 0.012615 3.84485e-21)
(-1.47339 0.0119201 -3.77571e-21)
(-1.48194 0.0112557 0)
(-1.49007 0.0106236 -3.62538e-21)
(-1.4978 0.0100251 3.56085e-21)
(-1.50515 0.00946102 3.48685e-21)
(-1.51213 0.00893178 0)
(-1.51876 0.00843718 0)
(-1.52507 0.00797641 0)
(-1.53108 0.00754806 3.17998e-21)
(-1.5368 0.0071501 0)
(-1.54225 0.00677994 -6.03546e-21)
(-1.54745 0.0064345 -8.81289e-21)
(-1.55241 0.00611033 5.70967e-21)
(-1.55714 0.00580374 0)
(-1.56164 0.00551087 2.68602e-21)
(-1.56594 0.00522784 0)
(-1.57001 0.00495087 5.03734e-21)
(-1.57387 0.00467632 -2.43036e-21)
(-1.5775 0.00440085 -2.34347e-21)
(-1.5809 0.00412147 0)
(-1.58405 0.00383559 -6.509e-21)
(-1.58695 0.00354111 4.15898e-21)
(-1.58957 0.00323655 1.9907e-21)
(-1.59191 0.00292099 0)
(-1.59393 0.00259116 1.80683e-21)
(-1.59559 0.00223281 5.13797e-21)
(-1.59687 0.00179933 0)
(-1.59781 0.00134966 3.04574e-21)
(-1.59839 0.000923519 2.85354e-21)
(-1.59856 0.000490997 2.65939e-21)
(-1.59829 4.37277e-05 0)
(-1.59753 -0.0004196 0)
(-1.59627 -0.000899401 0)
(-1.59448 -0.00139563 -9.31108e-22)
(-1.59213 -0.00190807 -8.28736e-22)
(-1.5892 -0.0024365 0)
(-1.58567 -0.00298079 -1.24249e-21)
(-1.58151 -0.00354091 -1.03165e-21)
(-1.57669 -0.00411684 0)
(-1.57119 -0.00470854 -6.00438e-22)
(-1.56499 -0.00531594 -7.73e-22)
(-1.55805 -0.00593899 1.62694e-22)
(-1.55036 -0.00657771 -4.85886e-23)
(-1.54189 -0.00723215 0)
(-1.5326 -0.00790241 0)
(-1.52248 -0.00858858 0)
(-1.5115 -0.00929032 -9.67776e-22)
(-1.49963 -0.0100063 1.18008e-21)
(-1.48684 -0.0107371 2.84589e-21)
(-1.4731 -0.0114841 -1.66986e-21)
(-1.45837 -0.0122485 1.88127e-21)
(-1.44264 -0.0130314 2.14752e-21)
(-1.42584 -0.0138333 0)
(-1.40795 -0.0146548 0)
(-1.38893 -0.0154961 -2.84122e-21)
(-1.36871 -0.0163569 0)
(-1.34727 -0.0172371 0)
(-1.32455 -0.0181366 7.20173e-21)
(-1.30051 -0.0190557 0)
(-1.2751 -0.0199938 4.07531e-21)
(-1.2483 -0.0209492 -4.37934e-21)
(-1.22006 -0.0219197 0)
(-1.19034 -0.0229026 4.82484e-21)
(-1.15912 -0.0238952 0)
(-1.12638 -0.0248955 0)
(-1.09208 -0.0259037 -5.64369e-21)
(-1.05619 -0.0269196 1.1714e-20)
(-1.01871 -0.0279405 -6.1438e-21)
(-0.979589 -0.0289625 0)
(-0.93883 -0.0299809 0)
(-0.896418 -0.0309914 6.78794e-21)
(-0.852346 -0.0319926 0)
(-0.80661 -0.0329813 7.25354e-21)
(-0.759209 -0.033951 0)
(-0.710153 -0.0348938 0)
(-0.659459 -0.0358039 0)
(-0.607148 -0.0366792 8.24301e-21)
(-0.553244 -0.0375174 0)
(-0.497774 -0.0383148 -8.65215e-21)
(-0.440777 -0.0390713 0)
(-0.38231 -0.0397802 0)
(-0.32248 -0.0403951 1.82854e-20)
(-0.26168 -0.0406732 -1.86207e-20)
(-0.20033 -0.0398505 0)
(-0.140026 -0.0377824 0)
(-0.0786597 -0.0373783 0)
(-0.0180445 -0.0376531 5.99795e-20)
(0.0468066 -0.0371141 0)
(0.101422 -0.0323254 -4.10856e-20)
(-0.0079206 0.0367553 1.21309e-24)
(-0.011643 0.0407518 7.87446e-21)
(-0.0211348 0.0438762 0)
(-0.030573 0.0464793 -7.59067e-21)
(-0.0400522 0.0485906 0)
(-0.0499168 0.0502727 0)
(-0.0601698 0.0515991 -3.85308e-24)
(-0.070766 0.0526452 3.66752e-21)
(-0.081678 0.0534817 3.64537e-21)
(-0.0928852 0.0541731 3.61667e-21)
(-0.104369 0.0547767 0)
(-0.11611 0.0553409 0)
(-0.128088 0.0558993 -3.54785e-21)
(-0.140279 0.0564577 -7.04851e-21)
(-0.152677 0.0570008 7.00184e-21)
(-0.165291 0.057521 0)
(-0.178134 0.058026 6.91015e-21)
(-0.191216 0.058529 -3.42878e-21)
(-0.204544 0.0590419 0)
(-0.218126 0.0595736 6.77728e-21)
(-0.231969 0.0601304 3.36341e-21)
(-0.246083 0.0607164 -6.69214e-21)
(-0.260477 0.0613339 -3.32156e-21)
(-0.275161 0.0619835 0)
(-0.290144 0.0626646 6.56971e-21)
(-0.305436 0.0633757 6.53026e-21)
(-0.321047 0.0641139 0)
(-0.336984 0.064876 6.45326e-21)
(-0.353256 0.0656577 0)
(-0.369869 0.0664545 6.37863e-21)
(-0.38683 0.0672614 3.16703e-21)
(-0.404142 0.0680727 0)
(-0.421809 0.068883 0)
(-0.439831 0.0696861 0)
(-0.458209 0.070476 0)
(-0.476941 0.0712464 0)
(-0.496023 0.071991 0)
(-0.515448 0.0727035 6.09969e-21)
(-0.53521 0.0733776 -9.09533e-21)
(-0.555299 0.0740069 0)
(-0.575704 0.0745853 0)
(-0.59641 0.0751066 0)
(-0.617403 0.0755651 -9.75846e-24)
(-0.638664 0.0759552 5.8956e-21)
(-0.660174 0.0762716 1.17378e-20)
(-0.681912 0.0765094 -1.16747e-20)
(-0.703856 0.0766642 -5.81104e-21)
(-0.725979 0.0767321 5.76942e-21)
(-0.748256 0.0767098 1.03594e-23)
(-0.77066 0.0765946 5.71702e-21)
(-0.793162 0.0763843 0)
(-0.815733 0.0760775 5.65396e-21)
(-0.838342 0.0756737 1.04631e-23)
(-0.860958 0.0751728 0)
(-0.883551 0.0745757 0)
(-0.906089 0.0738838 -5.52505e-21)
(-0.928542 0.0730995 0)
(-0.950878 0.0722255 0)
(-0.973068 0.0712655 5.43419e-21)
(-0.995084 0.0702235 1.07788e-20)
(-1.0169 0.069104 -5.34431e-21)
(-1.03848 0.0679119 0)
(-1.0598 0.0666521 5.27179e-21)
(-1.08085 0.0653297 0)
(-1.1016 0.06395 5.21407e-21)
(-1.12202 0.062518 5.15706e-21)
(-1.14209 0.0610385 -1.02511e-20)
(-1.16181 0.0595166 -5.09262e-21)
(-1.18114 0.0579568 0)
(-1.20008 0.056364 9.99797e-21)
(-1.21861 0.0547425 0)
(-1.23671 0.0530971 1.47211e-20)
(-1.25437 0.0514322 9.72608e-21)
(-1.27159 0.0497524 9.63108e-21)
(-1.28835 0.0480623 -9.53383e-21)
(-1.30464 0.0463664 1.41453e-20)
(-1.32046 0.0446694 0)
(-1.3358 0.0429759 0)
(-1.35066 0.0412901 -9.12193e-21)
(-1.36503 0.0396166 -1.35145e-20)
(-1.37891 0.0379591 0)
(-1.3923 0.0363214 4.38951e-21)
(-1.4052 0.0347068 0)
(-1.4176 0.0331182 -1.28262e-20)
(-1.42951 0.0315584 7.81604e-24)
(-1.44092 0.03003 -7.3749e-24)
(-1.45184 0.0285357 8.18253e-21)
(-1.46228 0.0270781 0)
(-1.47222 0.0256602 -7.92216e-21)
(-1.48168 0.0242853 5.80603e-24)
(-1.49066 0.0229569 0)
(-1.49918 0.0216788 0)
(-1.50724 0.0204548 0)
(-1.51486 0.0192884 7.22141e-21)
(-1.52204 0.0181823 0)
(-1.52882 0.0171388 0)
(-1.53519 0.0161588 0)
(-1.5412 0.0152421 0)
(-1.54685 0.0143876 0)
(-1.55216 0.0135926 6.31279e-21)
(-1.55715 0.0128535 0)
(-1.56183 0.0121654 5.98931e-21)
(-1.56623 0.0115225 5.82653e-21)
(-1.57035 0.0109184 -5.66203e-21)
(-1.5742 0.0103462 0)
(-1.57778 0.00979878 -5.32813e-21)
(-1.58111 0.00926886 0)
(-1.58418 0.00874943 -4.98789e-21)
(-1.58698 0.00823382 4.81545e-21)
(-1.58951 0.00771577 1.39314e-20)
(-1.59176 0.0071896 0)
(-1.59372 0.00665019 1.28743e-20)
(-1.59538 0.00609294 4.11847e-21)
(-1.59671 0.00551349 0)
(-1.59771 0.0049093 7.50548e-21)
(-1.59836 0.00429008 7.13906e-21)
(-1.59867 0.00365847 -1.01488e-20)
(-1.59859 0.0029546 0)
(-1.59807 0.00220058 -3.00301e-21)
(-1.5971 0.00139584 -2.81245e-21)
(-1.59567 0.000557964 -7.87366e-21)
(-1.59375 -0.000307122 0)
(-1.59133 -0.00119887 0)
(-1.58838 -0.00211738 0)
(-1.58487 -0.00306248 -1.84725e-21)
(-1.58078 -0.0040337 0)
(-1.5761 -0.00503049 0)
(-1.57079 -0.00605247 1.22092e-21)
(-1.56483 -0.00709942 1.01337e-21)
(-1.55821 -0.00817116 0)
(-1.5509 -0.00926739 0)
(-1.54288 -0.0103878 7.5851e-22)
(-1.53412 -0.011532 0)
(-1.5246 -0.0126998 1.05816e-22)
(-1.51429 -0.0138911 5.21651e-22)
(-1.50318 -0.0151059 0)
(-1.49122 -0.0163441 0)
(-1.47841 -0.0176062 -1.85425e-21)
(-1.4647 -0.0188936 -2.50653e-23)
(-1.45006 -0.0202085 -2.58993e-23)
(-1.43448 -0.0215535 0)
(-1.4179 -0.022931 -7.38845e-21)
(-1.40029 -0.0243428 0)
(-1.38162 -0.0257901 0)
(-1.36184 -0.0272733 0)
(-1.34091 -0.0287922 5.59207e-21)
(-1.31879 -0.0303453 0)
(-1.29545 -0.0319304 -1.30394e-20)
(-1.27085 -0.0335456 -7.03624e-21)
(-1.24496 -0.0351893 0)
(-1.21776 -0.0368595 -8.00949e-21)
(-1.18921 -0.0385522 0)
(-1.15928 -0.040263 0)
(-1.12795 -0.0419869 -2.83587e-20)
(-1.09519 -0.0437186 1.98599e-20)
(-1.06099 -0.0454538 0)
(-1.02533 -0.0471922 2.18109e-20)
(-0.988182 -0.0489331 -1.14272e-20)
(-0.949536 -0.050672 0)
(-0.909377 -0.0524026 0)
(-0.867692 -0.0541171 0)
(-0.824479 -0.0558087 -3.99376e-20)
(-0.779734 -0.0574752 0)
(-0.733459 -0.0591134 -1.42601e-20)
(-0.685655 -0.0607152 0)
(-0.636331 -0.0622707 0)
(-0.585499 -0.0637747 0)
(-0.533178 -0.0652289 0)
(-0.479383 -0.0666364 0)
(-0.424136 -0.0679998 0)
(-0.367469 -0.069326 -3.44784e-20)
(-0.309443 -0.0706101 0)
(-0.25017 -0.0717863 -1.80355e-20)
(-0.189986 -0.0725738 5.52529e-20)
(-0.129029 -0.0721629 0)
(-0.0673808 -0.0702419 0)
(-0.00349621 -0.0691544 -3.92009e-20)
(0.0592496 -0.0689631 -3.98923e-20)
(0.126469 -0.0681262 4.0601e-20)
(0.183455 -0.0625899 4.10438e-20)
(-0.00829051 0.0553658 -1.29824e-20)
(-0.0128978 0.0591714 -1.19613e-20)
(-0.0227712 0.0624606 -7.73272e-21)
(-0.0327063 0.0655538 -3.8149e-21)
(-0.0425838 0.0682387 0)
(-0.0527886 0.0704888 7.47667e-21)
(-0.0633502 0.0723479 -3.71019e-21)
(-0.0742399 0.0738813 0)
(-0.0854409 0.075158 -3.65485e-21)
(-0.096939 0.0762429 0)
(-0.108719 0.077194 7.21525e-21)
(-0.120764 0.0780599 0)
(-0.133059 0.0788778 3.55936e-21)
(-0.14559 0.0796705 7.07225e-21)
(-0.158351 0.0804486 -7.02619e-21)
(-0.171344 0.0812189 0)
(-0.184577 0.08199 -6.93552e-21)
(-0.198058 0.0827716 0)
(-0.211794 0.083573 0)
(-0.225795 0.0844019 -6.80381e-21)
(-0.240068 0.0852645 0)
(-0.254622 0.0861649 -2.81778e-24)
(-0.269467 0.0871051 0)
(-0.284611 0.0880858 0)
(-0.300063 0.0891057 3.09029e-24)
(-0.31583 0.0901622 -6.55763e-21)
(-0.331921 0.0912516 -6.52204e-21)
(-0.348342 0.0923687 -6.48039e-21)
(-0.365099 0.0935079 0)
(-0.382196 0.0946624 -1.28141e-20)
(-0.399636 0.095825 0)
(-0.417422 0.0969879 -6.33592e-21)
(-0.435553 0.0981429 0)
(-0.454027 0.0992815 0)
(-0.472841 0.100395 6.22963e-21)
(-0.49199 0.101475 0)
(-0.511467 0.102511 -6.16062e-21)
(-0.531262 0.103495 4.83586e-24)
(-0.551364 0.104419 1.21808e-20)
(-0.57176 0.105272 -1.21189e-20)
(-0.592434 0.106047 0)
(-0.613371 0.106734 0)
(-0.63455 0.107327 -5.96602e-21)
(-0.655951 0.107816 0)
(-0.677551 0.108196 -5.88929e-21)