/*--------------------------------*- C++ -*----------------------------------*\
| =========                 |                                                 |
| \\      /  F ield         | OpenFOAM: The Open Source CFD Toolbox           |
|  \\    /   O peration     | Version:  2112                                  |
|   \\  /    A nd           | Website:  www.openfoam.com                      |
|    \\/     M anipulation  |                                                 |
\*---------------------------------------------------------------------------*/
FoamFile
{
    version     2.0;
    format      ascii;
    arch        "LSB;label=32;scalar=64";
    class       volScalarField;
    location    "0.02";
    object      kU;
}
// * * * * * * * * * * * * * * * * * * * * * * * * * * * * * * * * * * * * * //

dimensions      [0 2 -2 0 0 0 0];

internalField   nonuniform List<scalar> 
12225
(
0.399873
0.622083
0.790634
0.93601
1.07762
1.22557
1.38513
1.55956
1.75137
1.96254
2.19438
2.44731
2.72067
3.01261
3.32
3.63925
3.96204
4.26695
0.124091
0.144072
0.166916
0.19249
0.221116
0.253411
0.290066
0.331501
0.37776
0.428548
0.483336
0.54154
0.602725
0.666847
0.734511
0.807425
0.893039
1.00112
0.113237
0.115533
0.118738
0.122119
0.124999
0.127706
0.130638
0.134148
0.138494
0.143833
0.15028
0.157975
0.167145
0.178159
0.191579
0.208307
0.229961
0.258222
0.112488
0.112631
0.113048
0.1137
0.114526
0.115461
0.116441
0.117414
0.118238
0.11881
0.119163
0.11936
0.119501
0.119717
0.120189
0.121171
0.123052
0.126266
0.112423
0.112345
0.112317
0.11234
0.112429
0.11259
0.112806
0.113062
0.113339
0.113614
0.113865
0.114066
0.114186
0.114219
0.114171
0.114064
0.113946
0.113893
0.112394
0.112279
0.112172
0.112077
0.112006
0.111966
0.111949
0.11195
0.111964
0.111984
0.112004
0.112015
0.11201
0.111981
0.111926
0.111844
0.111738
0.111621
0.112368
0.11223
0.112098
0.111975
0.111869
0.11178
0.111703
0.111632
0.111564
0.111497
0.111428
0.111355
0.111278
0.111199
0.111121
0.111046
0.110979
0.110922
0.11235
0.112198
0.112051
0.111913
0.111789
0.111678
0.111577
0.111479
0.111383
0.111286
0.111185
0.111082
0.110979
0.110879
0.11079
0.110715
0.110663
0.110634
0.112336
0.112175
0.11202
0.111874
0.111738
0.111613
0.111496
0.111383
0.111271
0.111158
0.111043
0.110928
0.110815
0.110709
0.110615
0.110541
0.110494
0.110477
0.112327
0.112158
0.111998
0.111845
0.111703
0.111569
0.111442
0.111319
0.111197
0.111076
0.110954
0.110834
0.110719
0.110612
0.110519
0.110448
0.110404
0.110391
0.112319
0.112145
0.11198
0.111824
0.111677
0.111538
0.111405
0.111276
0.111149
0.111024
0.110901
0.11078
0.110667
0.110563
0.110474
0.110407
0.110367
0.110356
0.112314
0.112136
0.111967
0.111808
0.111658
0.111516
0.11138
0.111249
0.111121
0.110995
0.110873
0.110755
0.110645
0.110547
0.110464
0.110402
0.110365
0.110356
0.112309
0.112128
0.111956
0.111795
0.111643
0.111499
0.111362
0.111229
0.111101
0.110977
0.110858
0.110744
0.11064
0.110547
0.110471
0.110414
0.110381
0.110374
0.112305
0.11212
0.111946
0.111782
0.111628
0.111483
0.111345
0.111214
0.111087
0.110966
0.110851
0.110744
0.110646
0.110561
0.110492
0.110441
0.110413
0.110407
0.112302
0.112113
0.111936
0.111771
0.111615
0.11147
0.111332
0.111202
0.111079
0.110962
0.110853
0.110753
0.110663
0.110587
0.110525
0.11048
0.110456
0.110451
0.112298
0.112107
0.111927
0.11176
0.111604
0.111458
0.111322
0.111194
0.111075
0.110964
0.110862
0.11077
0.110689
0.11062
0.110566
0.110527
0.110506
0.110501
0.112295
0.112101
0.111919
0.111751
0.111594
0.111449
0.111315
0.111191
0.111077
0.110972
0.110877
0.110793
0.11072
0.110659
0.110611
0.110577
0.110558
0.110553
0.112293
0.112096
0.111913
0.111744
0.111588
0.111445
0.111314
0.111194
0.111085
0.110987
0.110899
0.110823
0.110757
0.110703
0.11066
0.110629
0.110609
0.110601
0.112291
0.112093
0.11191
0.111741
0.111587
0.111447
0.11132
0.111206
0.111104
0.111013
0.110933
0.110864
0.110805
0.110755
0.110716
0.110686
0.110665
0.110652
0.112291
0.112093
0.111912
0.111746
0.111596
0.11146
0.111339
0.111232
0.111137
0.111053
0.11098
0.110918
0.110864
0.110819
0.110782
0.110752
0.110729
0.110711
0.112292
0.112097
0.111918
0.111756
0.111611
0.111481
0.111366
0.111266
0.111178
0.111101
0.111036
0.110979
0.110932
0.110891
0.110857
0.110828
0.110804
0.110784
0.112295
0.112103
0.111929
0.111772
0.111633
0.111509
0.111401
0.111308
0.111228
0.11116
0.111102
0.111054
0.111013
0.110979
0.11095
0.110924
0.110902
0.110881
0.112299
0.112113
0.111945
0.111795
0.111661
0.111545
0.111446
0.111362
0.111291
0.111233
0.111185
0.111147
0.111116
0.11109
0.111069
0.11105
0.111033
0.111016
0.112306
0.112127
0.111967
0.111824
0.111698
0.111592
0.111504
0.111433
0.111376
0.111333
0.1113
0.111276
0.111259
0.111246
0.111235
0.111226
0.111216
0.111206
0.112317
0.11215
0.112002
0.11187
0.111756
0.111662
0.111588
0.111532
0.111494
0.111471
0.111461
0.111462
0.111471
0.111484
0.1115
0.111516
0.111532
0.111548
0.112334
0.112182
0.112055
0.111953
0.111879
0.111836
0.111823
0.111836
0.111876
0.111935
0.112007
0.112089
0.112179
0.112274
0.112372
0.112471
0.112567
0.112658
0.112359
0.112237
0.112204
0.112288
0.112478
0.112753
0.113089
0.113465
0.113865
0.114275
0.114683
0.115078
0.115452
0.115796
0.116107
0.116379
0.116587
0.116717
0.112639
0.113381
0.114549
0.116003
0.11764
0.119326
0.120638
0.121666
0.122521
0.123305
0.124102
0.124975
0.125965
0.127094
0.128367
0.129788
0.131357
0.133095
0.116892
0.125395
0.13579
0.147624
0.160608
0.174674
0.189956
0.206592
0.224649
0.244107
0.264924
0.287014
0.310244
0.334444
0.359415
0.38496
0.410915
0.437144
0.305548
0.464785
0.58851
0.692556
0.788134
0.881425
0.975662
1.07256
1.1724
1.27481
1.38142
1.49321
1.61077
1.73444
1.8644
2.0007
2.14315
2.29164
0.398159
0.357911
0.343272
0.336112
0.334954
0.338494
0.345531
0.355223
0.366992
0.38041
0.395142
0.410952
0.427696
0.445385
0.464224
0.484605
0.50628
0.525657
0.541919
0.553989
0.560367
0.558895
0.546522
0.519456
0.47094
0.404511
0.334948
0.27579
0.236983
0.213903
0.183101
0.178533
0.227662
0.380374
0.719651
1.28768
1.78387
2.24231
2.6537
3.00371
3.28505
3.4961
3.6392
3.71941
3.74316
3.72892
3.69302
3.63902
3.56963
3.48692
3.39256
3.28778
3.1754
3.06603
2.95878
2.85282
2.74764
2.64288
2.53825
2.43345
2.32827
2.22251
2.11605
2.0089
1.90117
1.79307
1.68501
1.57756
1.47128
1.36682
1.26485
1.16602
1.07103
0.980636
0.895741
0.817536
0.747652
0.688403
0.643091
0.616073
0.610735
0.620815
0.639572
0.663959
0.692387
0.723967
0.758113
0.794404
0.83253
0.872307
0.913506
0.955998
0.999578
1.04399
1.089
1.13437
1.1799
1.2254
1.2707
1.31566
1.36014
1.40401
1.44721
1.48969
1.53089
1.5705
1.6086
1.64522
1.68038
1.71404
1.74614
1.7766
1.80537
1.83241
1.8577
1.88124
1.90301
1.92305
1.94144
1.95827
1.9736
1.98753
2.00012
2.01144
2.02156
2.03054
2.03844
2.04534
2.05131
2.05642
2.06074
2.06436
2.06735
2.06981
2.07181
2.07346
2.07484
2.07603
2.07711
2.07815
2.0792
2.08032
2.08153
2.08288
2.08437
2.08602
2.08783
2.08981
2.09193
2.0942
2.09659
2.09911
2.10173
2.10444
2.10723
2.11009
2.11299
2.11594
2.1189
2.12187
2.12482
2.12773
2.13056
2.13329
2.13588
2.13825
2.14035
2.14208
2.14332
2.14392
2.14366
2.14226
2.13934
2.13434
2.12657
2.11472
2.09794
2.07149
2.03946
1.9624
0.570042
0.386374
0.321729
0.293934
0.282554
0.27952
0.280652
0.283585
0.286878
0.289568
0.290918
0.290299
0.286837
0.280158
0.271156
0.260618
0.250031
0.244888
0.245594
0.251704
0.262083
0.274927
0.287689
0.297134
0.299491
0.294008
0.292508
0.329439
0.449021
0.67916
1.02446
1.32544
1.48604
1.61124
1.72807
1.82733
1.88189
1.89683
1.87407
1.81737
1.73287
1.62803
1.51077
1.38881
1.2693
1.15854
1.06093
0.979374
0.915762
0.871037
0.845137
0.837133
0.843759
0.851298
0.859226
0.867277
0.87531
0.883293
0.891254
0.899258
0.90737
0.915631
0.924033
0.932493
0.940826
0.948722
0.955663
0.960811
0.963931
0.965091
0.963661
0.958955
0.950302
0.937161
0.919234
0.896552
0.869481
0.838608
0.804499
0.767457
0.731926
0.699493
0.667327
0.635511
0.604154
0.573415
0.543479
0.514501
0.486496
0.458736
0.431681
0.405887
0.381792
0.359694
0.339735
0.321939
0.306254
0.29258
0.280787
0.270733
0.262272
0.255256
0.249547
0.245015
0.241998
0.240608
0.240604
0.241736
0.243782
0.246551
0.249872
0.253589
0.257581
0.261768
0.266094
0.270461
0.274759
0.278926
0.282951
0.286845
0.290625
0.29431
0.297917
0.301447
0.304884
0.308202
0.311367
0.31434
0.317089
0.319591
0.321835
0.32382
0.325553
0.32704
0.328296
0.329337
0.330186
0.330873
0.331428
0.331882
0.332266
0.332604
0.33292
0.333232
0.333559
0.333914
0.334311
0.334759
0.335264
0.335829
0.336457
0.337145
0.337894
0.338699
0.339561
0.340476
0.341444
0.342465
0.343541
0.344676
0.345875
0.347147
0.348505
0.349966
0.351551
0.353293
0.35523
0.357419
0.359931
0.362867
0.366361
0.370601
0.37585
0.382481
0.391042
0.40232
0.417657
0.438698
0.471743
0.515811
0.689056
0.374006
0.298076
0.279851
0.280391
0.287957
0.297605
0.306862
0.314424
0.31961
0.321935
0.320131
0.315126
0.307681
0.298475
0.288125
0.277245
0.268053
0.261705
0.259176
0.261367
0.269405
0.285043
0.310204
0.353956
0.445924
0.651386
1.02205
1.37647
1.50398
1.55198
1.5613
1.54319
1.5119
1.47091
1.41775
1.3503
1.27157
1.18509
1.09566
1.0087
0.929318
0.861519
0.807633
0.768251
0.742465
0.728266
0.72313
0.724476
0.72997
0.737709
0.746203
0.754001
0.760859
0.766787
0.771968
0.77675
0.781535
0.786706
0.79263
0.799637
0.808013
0.817977
0.829663
0.843095
0.858133
0.874331
0.890902
0.906515
0.921207
0.93418
0.944339
0.95046
0.951333
0.945967
0.933854
0.915171
0.890717
0.861552
0.828586
0.79739
0.76739
0.737357
0.707342
0.677312
0.647246
0.617177
0.587193
0.557404
0.527856
0.498354
0.469221
0.441018
0.41411
0.388741
0.365073
0.343201
0.323164
0.304954
0.288523
0.273796
0.260672
0.249036
0.238766
0.229736
0.221828
0.214927
0.208928
0.203734
0.199259
0.19542
0.192131
0.189292
0.18677
0.184411
0.182228
0.180212
0.178357
0.176652
0.175084
0.173641
0.17231
0.171077
0.16993
0.168845
0.167808
0.166809
0.165842
0.164897
0.163971
0.163057
0.162154
0.16126
0.160375
0.159499
0.158634
0.157782
0.156949
0.156142
0.155366
0.154629
0.153937
0.153296
0.152712
0.152188
0.151728
0.151331
0.151001
0.150734
0.150531
0.150388
0.150304
0.150274
0.150295
0.150364
0.150478
0.150634
0.15083
0.151065
0.151338
0.151648
0.151996
0.152383
0.152814
0.153293
0.153826
0.154423
0.155097
0.155869
0.156764
0.15782
0.159092
0.160661
0.162646
0.165236
0.168726
0.173649
0.180769
0.192436
0.210002
0.73109
0.341851
0.288772
0.289935
0.302862
0.318229
0.332266
0.343162
0.350274
0.353713
0.354047
0.352039
0.348418
0.343702
0.338109
0.331477
0.325085
0.32426
0.329748
0.340633
0.35665
0.38217
0.430871
0.529104
0.721528
1.01866
1.30042
1.4828
1.52386
1.47463
1.40112
1.32366
1.24772
1.17499
1.10444
1.03471
0.965959
0.900173
0.840007
0.788217
0.746819
0.716573
0.696976
0.686649
0.683823
0.686697
0.69362
0.70316
0.71408
0.725319
0.735531
0.742376
0.745387
0.744464
0.739858
0.732158
0.722714
0.713222
0.704583
0.697562
0.692762
0.690629
0.691475
0.695527
0.70292
0.714629
0.730728
0.750952
0.774555
0.799715
0.825708
0.851106
0.873924
0.891941
0.902877
0.904877
0.897253
0.880666
0.856906
0.828696
0.801957
0.77539
0.748947
0.722796
0.696911
0.671179
0.64547
0.61965
0.593594
0.566821
0.53922
0.511467
0.484013
0.457188
0.431236
0.406346
0.382671
0.360334
0.339432
0.320034
0.302181
0.285883
0.271119
0.257836
0.245957
0.235376
0.225976
0.217628
0.210199
0.203564
0.197603
0.19221
0.187291
0.182762
0.178556
0.174617
0.170901
0.167378
0.164025
0.160826
0.157765
0.154832
0.152013
0.149301
0.146695
0.14419
0.141779
0.139452
0.137204
0.135021
0.132905
0.130856
0.128877
0.126969
0.125132
0.12337
0.121684
0.120077
0.118553
0.117112
0.11576
0.114496
0.113324
0.112243
0.111253
0.110353
0.109541
0.108812
0.108164
0.10759
0.107087
0.106649
0.106271
0.105948
0.105674
0.105447
0.105261
0.105113
0.105
0.104918
0.104866
0.104842
0.104845
0.104874
0.104929
0.10501
0.105122
0.105265
0.105447
0.105674
0.10596
0.10632
0.106782
0.107385
0.108193
0.109304
0.1109
0.113271
0.117082
0.123114
0.718403
0.326969
0.308128
0.322757
0.34234
0.360724
0.375109
0.38478
0.390205
0.392508
0.393113
0.393437
0.394585
0.397059
0.40062
0.405192
0.424732
0.440612
0.46301
0.49868
0.553411
0.633441
0.753574
0.920581
1.11799
1.28934
1.37473
1.3664
1.29627
1.20609
1.11968
1.0427
0.975028
0.915052
0.861264
0.813233
0.771768
0.73828
0.713905
0.699015
0.693108
0.695064
0.703509
0.717074
0.734493
0.754595
0.776263
0.798384
0.81982
0.839411
0.8528
0.859618
0.858973
0.850238
0.833206
0.808346
0.778846
0.746756
0.714099
0.682809
0.654622
0.630889
0.612486
0.599853
0.59315
0.592479
0.598017
0.61002
0.629805
0.657191
0.690062
0.726403
0.763804
0.79922
0.828793
0.84847
0.855767
0.850136
0.833512
0.810715
0.787101
0.762475
0.737783
0.713539
0.689913
0.66687
0.644276
0.62192
0.599537
0.576383
0.552376
0.528024
0.503665
0.479539
0.45582
0.432636
0.410091
0.388283
0.367303
0.347246
0.32821
0.310287
0.293563
0.278104
0.263953
0.251122
0.239585
0.229286
0.220132
0.212007
0.204777
0.198299
0.192435
0.187056
0.182053
0.177346
0.172875
0.168601
0.1645
0.160562
0.156783
0.153162
0.149698
0.146386
0.14322
0.140194
0.137297
0.134523
0.131865
0.129319
0.126879
0.124536
0.12229
0.120137
0.118078
0.116113
0.114243
0.112469
0.110794
0.109217
0.107741
0.106365
0.105089
0.103914
0.102836
0.101853
0.100963
0.100161
0.0994428
0.0988029
0.0982361
0.0977367
0.097299
0.0969175
0.0965867
0.0963017
0.0960575
0.0958499
0.0956749
0.0955288
0.0954085
0.0953115
0.0952352
0.0951781
0.0951387
0.0951161
0.0951101
0.0951211
0.0951505
0.0952008
0.095276
0.0953827
0.095531
0.0957373
0.0960263
0.0964426
0.0970212
0.0978561
0.099106
0.101119
0.666334
0.340872
0.350172
0.372152
0.394868
0.413288
0.425823
0.43309
0.436665
0.438578
0.440998
0.445996
0.455292
0.47016
0.491504
0.519945
0.549104
0.582133
0.626684
0.685888
0.761806
0.855064
0.961948
1.06856
1.1506
1.18359
1.16227
1.10332
1.03
0.959393
0.898157
0.846648
0.803631
0.768112
0.739924
0.719637
0.708016
0.705433
0.711606
0.725684
0.746502
0.772796
0.803329
0.836913
0.872392
0.908607
0.944344
0.978308
1.00912
1.0345
1.05359
1.06579
1.06945
1.06296
1.04497
1.01457
0.971747
0.919693
0.860896
0.798309
0.735459
0.676098
0.623576
0.580233
0.547117
0.524237
0.51113
0.507431
0.51323
0.530676
0.559792
0.598927
0.643768
0.691779
0.737901
0.775502
0.799599
0.807236
0.799921
0.784175
0.764001
0.741405
0.718004
0.694777
0.672202
0.650434
0.629451
0.609107
0.589153
0.568926
0.547963
0.526699
0.505416
0.484307
0.463494
0.443053
0.423024
0.40343
0.384288
0.365627
0.347487
0.329932
0.313043
0.296919
0.281664
0.267384
0.254167
0.24208
0.231151
0.221368
0.212676
0.204977
0.198142
0.192024
0.186471
0.181341
0.176514
0.171901
0.16744
0.163104
0.158888
0.154805
0.15087
0.147103
0.143514
0.140108
0.136882
0.133829
0.130937
0.128195
0.125593
0.123121
0.120769
0.118531
0.116402
0.11438
0.112464
0.110653
0.108947
0.107346
0.105849
0.104457
0.103169
0.101982
0.100894
0.0999035
0.0990058
0.0981972
0.0974732
0.0968287
0.0962584
0.0957567
0.0953179
0.0949363
0.0946064
0.0943228
0.0940803
0.0938742
0.0937001
0.0935541
0.0934327
0.0933326
0.0932514
0.0931866
0.0931364
0.0930995
0.093075
0.0930623
0.0930616
0.0930739
0.093101
0.0931463
0.0932152
0.0933165
0.0934637
0.0936807
0.0939965
0.094466
0.0950827
0.0959785
0.598633
0.377139
0.400186
0.427155
0.451518
0.469485
0.480585
0.486385
0.489146
0.491352
0.495441
0.503572
0.51737
0.537659
0.564189
0.595482
0.629308
0.669718
0.717501
0.772317
0.831969
0.891933
0.944828
0.981055
0.992159
0.975705
0.937979
0.890199
0.842449
0.800463
0.765902
0.738698
0.718767
0.706448
0.702311
0.70674
0.719617
0.740244
0.76748
0.799949
0.83622
0.874959
0.915032
0.955555
0.995854
1.03536
1.07345
1.10931
1.14189
1.17069
1.19725
1.21958
1.23545
1.2426
1.2389
1.22236
1.19125
1.14403
1.08252
1.00793
0.922731
0.831225
0.739433
0.654204
0.58142
0.524455
0.483687
0.457217
0.444757
0.445991
0.461044
0.490162
0.532792
0.585715
0.64241
0.69481
0.734817
0.756265
0.75993
0.751732
0.736133
0.716288
0.694499
0.672257
0.6504
0.629318
0.609134
0.589821
0.571217
0.552922
0.534131
0.515172
0.496287
0.477633
0.459312
0.44138
0.423858
0.406737
0.389991
0.373585
0.35749
0.341688
0.326188
0.311022
0.296252
0.281965
0.26827
0.255286
0.24313
0.231905
0.221683
0.212494
0.204318
0.197085
0.190679
0.184954
0.179751
0.174914
0.170311
0.165848
0.161471
0.157163
0.152939
0.14883
0.144873
0.141098
0.137525
0.134163
0.131009
0.128054
0.125283
0.122682
0.120236
0.117932
0.115759
0.113709
0.111776
0.109956
0.108247
0.106647
0.105154
0.103767
0.102484
0.101303
0.100222
0.0992372
0.0983452
0.097542
0.0968231
0.0961837
0.0956185
0.0951222
0.0946891
0.0943135
0.0939899
0.0937127
0.0934768
0.0932774
0.0931098
0.0929699
0.092854
0.0927589
0.0926817
0.09262
0.0925717
0.0925353
0.0925095
0.0924937
0.0924876
0.0924917
0.0925072
0.0925364
0.0925832
0.0926543
0.0927595
0.0929162
0.093147
0.0934974
0.093961
0.0945703
0.535626
0.409481
0.44415
0.476838
0.504502
0.524141
0.535884
0.541715
0.544045
0.545343
0.547864
0.553531
0.563749
0.579212
0.599541
0.623288
0.651622
0.683828
0.718804
0.754655
0.788577
0.817006
0.836109
0.842759
0.835861
0.817285
0.791534
0.763855
0.738379
0.717468
0.702253
0.693494
0.691913
0.698013
0.711821
0.732743
0.759613
0.790844
0.824664
0.859376
0.893628
0.92663
0.958236
0.988848
1.01917
1.04987
1.08135
1.11341
1.14529
1.17939
1.2141
1.24709
1.27601
1.29857
1.31263
1.31614
1.30711
1.28364
1.24393
1.18656
1.11089
1.01773
0.910385
0.795758
0.683862
0.585618
0.509307
0.4577
0.426876
0.412233
0.411255
0.423519
0.450348
0.493494
0.551972
0.613556
0.665641
0.69966
0.714123
0.714238
0.704174
0.68784
0.668207
0.647285
0.626278
0.60582
0.586197
0.567503
0.549688
0.532552
0.515387
0.498165
0.481114
0.46436
0.447982
0.432028
0.416517
0.401449
0.386798
0.372524
0.358571
0.34488
0.331399
0.318087
0.304927
0.291929
0.27913
0.266599
0.254432
0.242748
0.231676
0.221342
0.211849
0.203266
0.195606
0.188826
0.182827
0.177468
0.172584
0.168014
0.163622
0.159316
0.155051
0.150826
0.146672
0.142635
0.138762
0.135091
0.131643
0.128426
0.125435
0.122659
0.12008
0.11768
0.115443
0.113352
0.111397
0.109569
0.10786
0.106266
0.104782
0.103406
0.102135
0.100965
0.0998944
0.0989191
0.0980357
0.0972402
0.0965281
0.0958947
0.095335
0.0948437
0.0944152
0.0940441
0.0937247
0.0934517
0.0932198
0.0930242
0.0928603
0.0927238
0.0926111
0.0925187
0.0924437
0.0923836
0.0923362
0.0923
0.0922735
0.0922559
0.0922466
0.092246
0.0922546
0.0922744
0.0923084
0.0923618
0.092443
0.0925657
0.0927493
0.09303
0.0934322
0.0939438
0.481538
0.423133
0.466689
0.508645
0.543942
0.569098
0.584885
0.59349
0.597149
0.598172
0.598562
0.600118
0.604395
0.611047
0.620783
0.634543
0.651678
0.671171
0.691699
0.711622
0.729081
0.742207
0.749432
0.749885
0.743778
0.732574
0.718702
0.704867
0.693418
0.686137
0.68433
0.688907
0.700264
0.718131
0.741536
0.76889
0.798176
0.827239
0.854151
0.877609
0.897228
0.913609
0.928164
0.942756
0.959285
0.97932
1.0038
1.03282
1.06648
1.10472
1.14499
1.18499
1.22252
1.25559
1.28241
1.30128
1.3104
1.30773
1.29112
1.25854
1.20805
1.13802
1.04773
0.939254
0.818949
0.69674
0.586889
0.50459
0.451674
0.421562
0.407403
0.404682
0.413148
0.436398
0.478558
0.538668
0.59608
0.638898
0.663842
0.672321
0.668204
0.65591
0.638954
0.619796
0.599973
0.580349
0.561371
0.543253
0.526059
0.509722
0.493816
0.478004
0.462471
0.447305
0.432547
0.418218
0.40433
0.390885
0.377879
0.365292
0.353087
0.341215
0.329614
0.318219
0.306966
0.295802
0.284693
0.273623
0.262607
0.251688
0.240945
0.230484
0.220436
0.210943
0.202134
0.194109
0.186913
0.180528
0.174871
0.169808
0.165176
0.160816
0.156595
0.152431
0.148294
0.144196
0.140182
0.136303
0.13261
0.129137
0.125904
0.122913
0.120157
0.11762
0.115283
0.113127
0.111132
0.109284
0.107571
0.105982
0.10451
0.103149
0.101894
0.100742
0.0996867
0.0987261
0.0978558
0.0970718
0.0963697
0.0957449
0.0951925
0.0947074
0.0942841
0.0939174
0.0936019
0.0933322
0.0931031
0.09291
0.0927481
0.0926134
0.092502
0.0924106
0.0923362
0.0922762
0.0922285
0.0921913
0.0921632
0.0921431
0.0921303
0.0921248
0.092127
0.0921382
0.0921607
0.0921988
0.0922593
0.0923534
0.0924973
0.0927196
0.0930484
0.0935035
0.447911
0.418408
0.464591
0.512979
0.556438
0.590954
0.616407
0.633027
0.641916
0.646309
0.647596
0.647131
0.646027
0.646481
0.649308
0.654765
0.662591
0.672183
0.682667
0.692983
0.701995
0.708621
0.712005
0.71174
0.708081
0.702051
0.695314
0.689811
0.687391
0.689541
0.697233
0.710797
0.72983
0.753172
0.778992
0.804971
0.828614
0.847715
0.860848
0.867747
0.869399
0.867827
0.86566
0.865651
0.870261
0.881336
0.899849
0.925733
0.960116
0.99918
1.04076
1.08272
1.12317
1.1605
1.19347
1.22098
1.24176
1.25401
1.25524
1.24342
1.2163
1.17166
1.10704
1.02096
0.917925
0.801699
0.681781
0.579179
0.505997
0.459574
0.433641
0.419817
0.413882
0.418712
0.44031
0.479969
0.53037
0.578829
0.611711
0.627374
0.628804
0.620628
0.606623
0.589563
0.571249
0.552742
0.534633
0.517248
0.50075
0.48517
0.470344
0.455781
0.44161
0.427877
0.414586
0.401721
0.389269
0.377223
0.365579
0.354336
0.343488
0.333016
0.322887
0.313054
0.303455
0.294025
0.284694
0.2754
0.266089
0.256727
0.247298
0.23782
0.228347
0.218972
0.209825
0.201061
0.192834
0.185273
0.178455
0.172384
0.166993
0.162154
0.157711
0.153512
0.149436
0.145417
0.141438
0.137524
0.133722
0.130083
0.126649
0.12345
0.120496
0.117785
0.115307
0.113043
0.110973
0.109078
0.107339
0.105742
0.104273
0.102924
0.101686
0.100552
0.0995165
0.0985751
0.0977228
0.0969552
0.0962677
0.0956555
0.095114
0.094638
0.0942223
0.0938619
0.0935514
0.0932858
0.0930601
0.0928695
0.0927095
0.0925762
0.0924658
0.0923749
0.0923005
0.0922402
0.0921916
0.092153
0.0921228
0.0920999
0.0920835
0.0920732
0.0920692
0.0920723
0.0920844
0.0921087
0.0921508
0.0922198
0.0923292
0.0925014
0.0927632
0.0931449
0.462804
0.395997
0.43523
0.486633
0.536747
0.580116
0.615535
0.64296
0.661134
0.672613
0.679099
0.682123
0.683152
0.683534
0.684253
0.685934
0.688817
0.692795
0.697479
0.702276
0.706484
0.709419
0.710576
0.709822
0.707562
0.704784
0.702917
0.703534
0.70803
0.717367
0.731902
0.751283
0.77441
0.799447
0.82395
0.845143
0.860397
0.867819
0.86677
0.858078
0.843864
0.827093
0.811043
0.798832
0.793061
0.795633
0.807665
0.829414
0.861411
0.898027
0.93708
0.976808
1.01563
1.05226
1.08582
1.11581
1.14162
1.16202
1.17407
1.17584
1.16502
1.13952
1.09682
1.03178
0.951056
0.854935
0.750845
0.651131
0.568517
0.510152
0.473963
0.451101
0.43407
0.423636
0.42689
0.448617
0.485161
0.525973
0.560052
0.581111
0.587106
0.582739
0.571681
0.556824
0.540173
0.522968
0.505931
0.489481
0.473855
0.459153
0.44535
0.432046
0.419201
0.406845
0.394953
0.383485
0.372398
0.361666
0.351273
0.341221
0.331514
0.322161
0.313162
0.304505
0.296164
0.288093
0.280236
0.272523
0.26488
0.257233
0.24951
0.241648
0.233606
0.225371
0.216972
0.208492
0.200064
0.19186
0.184067
0.176848
0.170309
0.164473
0.159285
0.154622
0.150337
0.146287
0.142372
0.138538
0.134779
0.131122
0.127609
0.124279
0.121166
0.118286
0.115645
0.113238
0.11105
0.109063
0.10726
0.10562
0.104127
0.102769
0.101531
0.100406
0.0993837
0.0984582
0.097623
0.0968725
0.0962012
0.0956041
0.0950759
0.0946115
0.0942058
0.0938537
0.09355
0.0932898
0.0930683
0.0928809
0.0927233
0.0925915
0.092482
0.0923914
0.0923168
0.0922557
0.0922059
0.0921654
0.0921328
0.0921068
0.0920865
0.0920713
0.0920612
0.0920566
0.0920588
0.0920705
0.0920961
0.0921433
0.0922233
0.0923541
0.0925585
0.0928645
0.545146
0.366514
0.39364
0.442759
0.495009
0.543916
0.58683
0.623011
0.651225
0.672815
0.688596
0.699532
0.706717
0.711283
0.714256
0.71646
0.718449
0.720495
0.72261
0.724606
0.726187
0.727071
0.727149
0.726626
0.726117
0.726617
0.729337
0.735465
0.745925
0.76118
0.781106
0.804899
0.831008
0.857143
0.880418
0.897744
0.906439
0.904906
0.893109
0.872619
0.846202
0.817043
0.788504
0.763579
0.744672
0.734484
0.736788
0.755769
0.785559
0.818167
0.85224
0.887012
0.921471
0.954586
0.985683
1.0145
1.04086
1.06435
1.08168
1.09074
1.0892
1.07485
1.04598
1.00136
0.940419
0.864268
0.777637
0.689751
0.612232
0.553621
0.513974
0.485221
0.45935
0.43701
0.426302
0.433704
0.457487
0.488639
0.516828
0.535768
0.544168
0.543331
0.535029
0.522275
0.507235
0.491346
0.475469
0.460104
0.445531
0.431882
0.419177
0.407195
0.395717
0.384744
0.374234
0.364129
0.354373
0.344922
0.335747
0.326836
0.318196
0.30984
0.30179
0.294062
0.286665
0.279594
0.272825
0.266316
0.260008
0.253828
0.247693
0.241509
0.235182
0.22862
0.221748
0.214524
0.206957
0.199127
0.191185
0.183339
0.175817
0.168819
0.162479
0.156832
0.151825
0.147339
0.143233
0.13938
0.13569
0.13212
0.128663
0.125339
0.122176
0.119202
0.116436
0.113888
0.11156
0.109446
0.107532
0.105802
0.10424
0.10283
0.101558
0.10041
0.0993774
0.0984488
0.0976164
0.0968725
0.0962102
0.0956231
0.0951052
0.0946507
0.0942539
0.0939096
0.0936124
0.0933575
0.0931401
0.0929556
0.0928
0.0926693
0.09256
0.0924689
0.0923931
0.0923303
0.0922781
0.0922347
0.0921985
0.0921683
0.0921429
0.0921218
0.0921046
0.0920915
0.0920835
0.0920826
0.0920926
0.0921198
0.0921739
0.0922699
0.092427
0.092669
0.653416
0.332499
0.346921
0.389436
0.439232
0.489551
0.536807
0.579365
0.616402
0.647801
0.673558
0.693948
0.709521
0.721043
0.729366
0.735311
0.739575
0.742685
0.744986
0.746673
0.747861
0.748683
0.749399
0.750487
0.752669
0.756865
0.764057
0.775126
0.790691
0.81097
0.83566
0.863804
0.89368
0.92275
0.947808
0.965426
0.972665
0.967835
0.950997
0.923935
0.889549
0.851243
0.813185
0.77842
0.747977
0.720893
0.699152
0.718324
0.74476
0.770747
0.796997
0.824102
0.851722
0.879155
0.905861
0.931598
0.956135
0.978702
0.997637
1.01051
1.01459
1.00739
0.987096
0.952584
0.903609
0.841464
0.770215
0.697443
0.632667
0.582566
0.54587
0.51418
0.480867
0.448956
0.428165
0.425425
0.439318
0.461644
0.483047
0.497719
0.504246
0.503738
0.497738
0.48681
0.473131
0.458421
0.443687
0.42949
0.416121
0.403699
0.392239
0.381655
0.371617
0.362065
0.352942
0.344184
0.335731
0.327531
0.319547
0.311759
0.304162
0.296768
0.289599
0.282687
0.276063
0.269754
0.263773
0.258118
0.252766
0.247673
0.242774
0.237985
0.233205
0.228318
0.223197
0.217716
0.211764
0.205271
0.198242
0.190775
0.183063
0.17537
0.167979
0.161127
0.154963
0.14952
0.144737
0.140494
0.13665
0.133087
0.12972
0.126503
0.123422
0.120482
0.117698
0.115086
0.112657
0.110422
0.10838
0.106526
0.10485
0.10334
0.101983
0.100767
0.0996805
0.0987113
0.0978495
0.0970853
0.0964099
0.0958151
0.0952933
0.0948374
0.0944407
0.0940971
0.0938009
0.0935466
0.0933293
0.0931444
0.0929875
0.0928549
0.0927429
0.0926484
0.0925686
0.0925011
0.0924437
0.0923944
0.0923518
0.0923144
0.0922812
0.0922514
0.0922244
0.0922003
0.0921797
0.0921644
0.0921574
0.0921642
0.0921933
0.0922574
0.0923737
0.0925619
0.760933
0.306968
0.300243
0.333115
0.376315
0.42384
0.471943
0.518133
0.561088
0.600094
0.634596
0.664229
0.688912
0.70887
0.724572
0.736639
0.74574
0.752521
0.757559
0.761359
0.764377
0.767075
0.769974
0.773695
0.778974
0.786624
0.797461
0.812227
0.831515
0.855737
0.884884
0.917204
0.951353
0.984811
1.0142
1.03583
1.04646
1.04411
1.02856
1.00135
0.965274
0.924415
0.882937
0.843637
0.808656
0.779703
0.762135
0.756503
0.758702
0.766594
0.778793
0.794253
0.812041
0.83137
0.851709
0.872748
0.894089
0.914817
0.933197
0.94674
0.952628
0.948263
0.931692
0.901903
0.859159
0.805594
0.745923
0.687378
0.63741
0.598944
0.566968
0.532435
0.492102
0.453031
0.426206
0.417535
0.424629
0.439671
0.454592
0.464616
0.468528
0.467015
0.461134
0.451251
0.438485
0.424745
0.411114
0.398158
0.38613
0.375101
0.365042
0.355869
0.347376
0.339304
0.331588
0.324165
0.316983
0.309993
0.303159
0.296457
0.289875
0.283419
0.277107
0.270969
0.265044
0.259376
0.254005
0.248963
0.244267
0.239913
0.235873
0.232093
0.228495
0.224974
0.221405
0.217639
0.21351
0.20885
0.203513
0.197418
0.190589
0.183178
0.175456
0.167766
0.160443
0.153749
0.147821
0.142673
0.138223
0.134337
0.130873
0.127708
0.124754
0.121956
0.119289
0.116746
0.114331
0.112056
0.109935
0.107975
0.106179
0.104544
0.103066
0.101738
0.10055
0.0994924
0.0985557
0.0977293
0.0970031
0.0963673
0.0958127
0.0953306
0.0949129
0.0945521
0.0942414
0.0939746
0.093746
0.0935504
0.0933833
0.0932403
0.093118
0.0930128
0.0929221
0.0928432
0.092774
0.0927125
0.0926572
0.0926065
0.0925594
0.092515
0.0924725
0.0924319
0.0923936
0.0923589
0.0923305
0.0923133
0.0923149
0.0923464
0.0924235
0.092563
0.814344
0.315796
0.265109
0.282934
0.316698
0.357716
0.402338
0.447874
0.492583
0.535413
0.575557
0.612305
0.645086
0.673547
0.69761
0.717461
0.73351
0.746308
0.756486
0.764706
0.77164
0.777967
0.784388
0.791504
0.800031
0.810708
0.824217
0.841217
0.862311
0.887944
0.918029
0.951846
0.988229
1.02496
1.0589
1.08643
1.10411
1.10945
1.1015
1.08102
1.05026
1.01272
0.972139
0.931637
0.893865
0.861044
0.83589
0.816646
0.803353
0.795737
0.793312
0.795487
0.80163
0.811172
0.823676
0.838723
0.855623
0.873084
0.889044
0.900821
0.905525
0.900544
0.883984
0.855116
0.814944
0.766834
0.716667
0.671455
0.635618
0.606689
0.575781
0.535612
0.488691
0.445858
0.417431
0.406668
0.409598
0.418885
0.428107
0.433818
0.435126
0.432308
0.425862
0.415921
0.403604
0.390723
0.378262
0.366694
0.356179
0.34671
0.338197
0.33052
0.32354
0.316993
0.31069
0.304581
0.298625
0.292787
0.287039
0.281359
0.275738
0.270175
0.264684
0.259289
0.254028
0.248947
0.244099
0.239536
0.235305
0.23144
0.227954
0.224834
0.222037
0.21949
0.217091
0.21471
0.212185
0.209327
0.205921
0.201754
0.196661
0.190579
0.183599
0.175978
0.168095
0.160371
0.153173
0.14675
0.1412
0.136494
0.132517
0.129116
0.126139
0.123454
0.120968
0.118616
0.116364
0.114201
0.112129
0.110163
0.108316
0.106596
0.10501
0.103561
0.102248
0.101069
0.100017
0.0990846
0.0982633
0.0975434
0.0969151
0.0963689
0.0958955
0.0954863
0.0951331
0.0948285
0.0945659
0.0943392
0.0941431
0.0939729
0.0938243
0.0936937
0.093578
0.0934745
0.0933808
0.0932949
0.0932151
0.0931398
0.0930678
0.0929981
0.0929298
0.0928628
0.0927971
0.092734
0.0926758
0.092627
0.0925943
0.092588
0.0926222
0.0927123
0.747623
0.339233
0.255695
0.248727
0.267097
0.297206
0.333996
0.374528
0.416747
0.459284
0.501152
0.541521
0.579635
0.614842
0.646639
0.674722
0.699038
0.719779
0.737356
0.752334
0.765376
0.777181
0.788441
0.799813
0.811937
0.825395