/*--------------------------------*- C++ -*----------------------------------*\
| =========                 |                                                 |
| \\      /  F ield         | OpenFOAM: The Open Source CFD Toolbox           |
|  \\    /   O peration     | Version:  2112                                  |
|   \\  /    A nd           | Website:  www.openfoam.com                      |
|    \\/     M anipulation  |                                                 |
\*---------------------------------------------------------------------------*/
FoamFile
{
    version     2.0;
    format      ascii;
    arch        "LSB;label=32;scalar=64";
    class       volScalarField;
    location    "0.02";
    object      nut;
}
// * * * * * * * * * * * * * * * * * * * * * * * * * * * * * * * * * * * * * //

dimensions      [0 2 -1 0 0 0 0];

internalField   nonuniform List<scalar> 
12225
(
3.97523e-06
6.29406e-06
8.18816e-06
9.97039e-06
1.18407e-05
1.39186e-05
1.62802e-05
1.89782e-05
2.20527e-05
2.55348e-05
2.94475e-05
3.38042e-05
3.86097e-05
4.38617e-05
4.95546e-05
5.56764e-05
6.22699e-05
6.93674e-05
3.6748e-05
1.8432e-05
1.40113e-05
1.25075e-05
1.21449e-05
1.24015e-05
1.30768e-05
1.40774e-05
1.53495e-05
1.68545e-05
1.85602e-05
2.04397e-05
2.24741e-05
2.46567e-05
2.7e-05
2.95465e-05
3.24814e-05
3.60472e-05
0.000274349
9.97747e-05
7.48e-05
6.16978e-05
4.39206e-05
3.40533e-05
2.81824e-05
2.45581e-05
2.23024e-05
2.09341e-05
2.0172e-05
1.98449e-05
1.98492e-05
2.01274e-05
2.06558e-05
2.14423e-05
2.25397e-05
2.40137e-05
0.00081456
0.000687663
0.000410009
0.000264066
0.000187661
0.000145711
0.000122052
0.000108937
9.50751e-05
8.01041e-05
6.92707e-05
6.11622e-05
5.48866e-05
4.98788e-05
4.57731e-05
4.23404e-05
3.94414e-05
3.70688e-05
0.000849866
0.00083848
0.000812227
0.000765557
0.000697819
0.000616088
0.000518194
0.00042376
0.000355281
0.000308312
0.000277068
0.000250724
0.000220919
0.000195951
0.000174502
0.00015561
0.000138577
0.000123119
0.000851672
0.000850722
0.000848294
0.000843048
0.000833338
0.000817705
0.000795528
0.000767121
0.000733514
0.000696244
0.000656893
0.000616794
0.000576873
0.000537467
0.000498558
0.000459955
0.00042142
0.000383011
0.000851672
0.000851302
0.000850837
0.000850148
0.000849026
0.000847172
0.000844256
0.000839987
0.000834149
0.000826613
0.000817321
0.000806245
0.000793347
0.000778522
0.000761567
0.000742163
0.000719892
0.000694392
0.000851614
0.000851229
0.00085085
0.00085048
0.00085011
0.000849707
0.000849212
0.000848559
0.000847682
0.000846519
0.000845014
0.000843114
0.000840763
0.00083789
0.000834398
0.000830149
0.000824951
0.000818573
0.000851569
0.000851155
0.000850754
0.000850376
0.000850028
0.000849705
0.000849393
0.000849075
0.000848733
0.000848353
0.000847921
0.00084743
0.000846876
0.000846255
0.000845563
0.000844791
0.000843915
0.000842891
0.000851536
0.000851098
0.000850678
0.000850282
0.000849913
0.000849569
0.000849241
0.00084892
0.000848599
0.000848272
0.000847937
0.000847597
0.000847261
0.00084694
0.000846651
0.000846411
0.000846235
0.000846126
0.000851511
0.000851054
0.000850619
0.000850209
0.000849824
0.000849462
0.000849116
0.000848778
0.000848443
0.000848109
0.000847777
0.000847451
0.000847143
0.000846864
0.000846634
0.000846469
0.000846391
0.000846406
0.000851493
0.000851021
0.000850575
0.000850155
0.000849761
0.000849388
0.000849032
0.000848685
0.000848345
0.00084801
0.000847682
0.000847367
0.000847073
0.000846815
0.000846607
0.000846465
0.000846407
0.00084644
0.000851479
0.000850994
0.000850538
0.000850111
0.000849709
0.00084933
0.000848968
0.000848619
0.000848279
0.000847949
0.00084763
0.000847329
0.000847054
0.000846816
0.000846629
0.000846506
0.000846462
0.000846501
0.000851465
0.000850969
0.000850503
0.000850068
0.00084966
0.000849277
0.000848913
0.000848566
0.000848232
0.000847912
0.000847609
0.000847327
0.000847075
0.000846863
0.0008467
0.000846598
0.000846568
0.000846612
0.000851453
0.000850945
0.00085047
0.000850028
0.000849616
0.00084923
0.000848868
0.000848526
0.000848202
0.000847898
0.000847615
0.000847358
0.000847133
0.000846948
0.000846811
0.00084673
0.000846714
0.000846762
0.000851442
0.000850923
0.00085044
0.000849992
0.000849577
0.000849192
0.000848834
0.0008485
0.000848191
0.000847905
0.000847645
0.000847415
0.000847218
0.000847062
0.00084695
0.000846889
0.000846884
0.000846934
0.000851432
0.000850904
0.000850414
0.000849961
0.000849545
0.000849162
0.000848811
0.000848489
0.000848196
0.000847931
0.000847696
0.000847493
0.000847325
0.000847194
0.000847105
0.000847059
0.000847062
0.000847108
0.000851423
0.000850888
0.000850393
0.000849938
0.000849524
0.000849147
0.000848805
0.000848498
0.000848224
0.000847982
0.000847771
0.000847594
0.000847451
0.000847342
0.00084727
0.000847234
0.000847236
0.000847273
0.000851417
0.000850878
0.000850381
0.000849929
0.000849521
0.000849155
0.000848829
0.00084854
0.000848288
0.00084807
0.000847886
0.000847733
0.000847612
0.000847522
0.000847461
0.000847428
0.000847424
0.000847444
0.000851416
0.000850879
0.000850388
0.000849945
0.000849549
0.000849199
0.000848893
0.000848627
0.000848399
0.000848206
0.000848046
0.000847916
0.000847814
0.000847738
0.000847685
0.000847654
0.000847642
0.000847646
0.00085142
0.00085089
0.000850409
0.00084998
0.000849601
0.00084927
0.000848984
0.000848742
0.000848538
0.00084837
0.000848234
0.000848126
0.000848044
0.000847983
0.00084794
0.000847912
0.000847898
0.000847893
0.000851429
0.000850911
0.000850446
0.000850035
0.000849675
0.000849365
0.000849103
0.000848886
0.00084871
0.000848569
0.000848461
0.00084838
0.000848321
0.000848281
0.000848254
0.000848238
0.000848229
0.000848223
0.000851444
0.000850944
0.0008505
0.000850109
0.000849772
0.000849487
0.000849254
0.000849066
0.000848921
0.000848812
0.000848736
0.000848686
0.000848656
0.000848642
0.000848636
0.000848636
0.000848635
0.000848633
0.000851467
0.000850993
0.000850574
0.000850206
0.00084989
0.000849629
0.000849416
0.000849243
0.000849101
0.000848979
0.000848868
0.000848758
0.000848639
0.000848506
0.000848354
0.000848178
0.000847977
0.000847748
0.000851503
0.00085106
0.000850648
0.000850229
0.000849761
0.000849195
0.000848463
0.000847498
0.000846235
0.000844633
0.000842674
0.000840353
0.000837683
0.000820388
0.000802144
0.000788691
0.000779467
0.000774756
0.000851484
0.000850646
0.000848957
0.000845684
0.000840156
0.000831758
0.000819997
0.00080465
0.000785837
0.000745008
0.000684935
0.00063256
0.000587855
0.000550297
0.000519239
0.000493947
0.00047311
0.000459045
0.000847503
0.000831099
0.000794828
0.000736935
0.000578214
0.000435357
0.000347438
0.000289626
0.000249332
0.00022054
0.00019986
0.000185106
0.000174804
0.000167962
0.000163915
0.000162183
0.000156755
0.000146625
0.000647843
0.000226174
0.000150984
0.000122674
0.000109725
0.000104308
8.2063e-05
6.71931e-05
5.68458e-05
4.94248e-05
4.39802e-05
3.99176e-05
3.68494e-05
3.45128e-05
3.27248e-05
3.13537e-05
3.03035e-05
2.95013e-05
8.42252e-05
3.68577e-05
2.45538e-05
1.95181e-05
1.71016e-05
1.59112e-05
1.53973e-05
1.5311e-05
1.55209e-05
1.5949e-05
1.65476e-05
1.72838e-05
1.8133e-05
1.90749e-05
2.00923e-05
2.117e-05
2.22956e-05
2.34587e-05
3.99102e-06
6.14066e-06
7.91232e-06
9.49542e-06
1.10105e-05
1.25413e-05
1.41411e-05
1.58423e-05
1.76426e-05
1.95337e-05
2.1571e-05
2.37616e-05
2.61077e-05
2.8609e-05
3.12629e-05
3.40651e-05
3.70113e-05
4.00879e-05
0.000166058
0.000120921
9.04726e-05
7.92158e-05
7.11945e-05
6.4645e-05
5.93879e-05
5.51845e-05
5.18456e-05
4.92472e-05
4.73012e-05
4.59417e-05
4.51206e-05
4.48139e-05
4.50344e-05
4.57949e-05
4.71119e-05
4.87594e-05
5.08229e-05
5.33721e-05
5.64866e-05
6.03028e-05
6.50594e-05
7.11383e-05
7.16124e-05
6.89835e-05
6.56506e-05
6.23491e-05
6.0477e-05
5.96722e-05
5.54122e-05
5.40696e-05
5.95748e-05
7.34795e-05
9.35534e-05
0.000115264
0.000129749
0.000140435
0.00014836
0.000153999
0.000157705
0.000159767
0.000160436
0.00015993
0.000156659
0.000150671
0.000145383
0.000140652
0.000136367
0.000132442
0.000128797
0.000125348
0.000122068
0.000119241
0.00011678
0.000114621
0.000112696
0.000110944
0.000109314
0.000107757
0.000106236
0.000104726
0.000103215
0.00010171
0.000100236
9.88412e-05
9.75967e-05
9.65954e-05
9.59511e-05
9.58027e-05
9.63254e-05
9.77434e-05
0.000100355
0.000104588
0.000111096
0.000120934
0.000135858
0.000158629
0.0001921
0.000231334
0.000248436
0.000226118
0.000192388
0.000165555
0.000146902
0.000134233
0.00012566
0.00011991
0.000116142
0.000113836
0.000112653
0.000112364
0.000112778
0.000113744
0.000115147
0.000116899
0.000118931
0.000121186
0.000123616
0.00012618
0.000128846
0.000131583
0.000134365
0.000137174
0.000139947
0.000142654
0.000145298
0.000147871
0.000150367
0.000152777
0.000155092
0.000157304
0.000159405
0.000161387
0.000163245
0.000164985
0.000166614
0.000168129
0.000169531
0.000170824
0.000172016
0.000173112
0.00017412
0.000175045
0.000175892
0.000176665
0.000177369
0.000178006
0.000178581
0.000179096
0.000179557
0.000179967
0.000180333
0.000180658
0.000180949
0.00018121
0.000181447
0.000181663
0.000181864
0.000182052
0.000182231
0.000182403
0.00018257
0.000182733
0.000182894
0.000183054
0.000183212
0.00018337
0.000183528
0.000183686
0.000183844
0.000184003
0.000184163
0.000184323
0.000184484
0.000184646
0.000184809
0.000184973
0.000185139
0.000185306
0.000185475
0.000185646
0.000185819
0.000185995
0.000186173
0.000186355
0.000186541
0.000186732
0.000186928
0.000187132
0.000187345
0.00018757
0.00018781
0.000188075
0.000188363
0.000188724
0.000189071
0.000189786
0.000189811
0.000191279
0.000117729
0.000128411
0.000104997
9.89653e-05
9.58018e-05
9.31988e-05
9.20178e-05
9.24381e-05
9.44772e-05
9.8453e-05
0.000105102
0.000115671
0.000122403
0.000118978
0.000115355
0.000111704
0.000107969
0.00010285
9.69445e-05
9.10684e-05
8.58477e-05
8.15894e-05
7.8339e-05
7.59614e-05
7.41563e-05
7.28825e-05
7.3699e-05
8.11083e-05
9.78271e-05
0.000118753
0.000137098
0.000147889
0.000151716
0.000150567
0.000151457
0.000156014
0.000159457
0.000161838
0.000164302
0.00016694
0.000169921
0.000173486
0.000177931
0.00018366
0.000191301
0.000201432
0.00021442
0.000230286
0.000248456
0.000267377
0.000284462
0.000296763
0.000303223
0.000309609
0.000315905
0.000322103
0.000328204
0.000334219
0.000340155
0.000346016
0.000351789
0.000357442
0.000362906
0.000368049
0.000372631
0.000376297
0.000379134
0.00037792
0.000357239
0.000338133
0.000321101
0.000306554
0.000294835
0.000286058
0.000280149
0.000276868
0.000275821
0.000276533
0.000278688
0.000282502
0.000289697
0.000299924
0.000310699
0.000321377
0.000332079
0.000342916
0.000353615
0.000363918
0.000372481
0.000362632
0.00033932
0.000313839
0.000289023
0.000265771
0.000244376
0.000224935
0.000207451
0.000191867
0.000178082
0.000165963
0.00015536
0.000146119
0.000138084
0.000131111
0.000125112
0.000120023
0.000115743
0.000112158
0.00010916
0.00010665
0.000104541
0.000102783
0.000101318
0.000100071
9.89935e-05
9.80689e-05
9.72614e-05
9.65482e-05
9.59171e-05
9.53613e-05
9.48766e-05
9.44598e-05
9.41071e-05
9.38131e-05
9.35692e-05
9.33653e-05
9.31904e-05
9.30331e-05
9.28837e-05
9.27344e-05
9.258e-05
9.24172e-05
9.22446e-05
9.20612e-05
9.18669e-05
9.16628e-05
9.14511e-05
9.12351e-05
9.10186e-05
9.08054e-05
9.05991e-05
9.04026e-05
9.02184e-05
9.00486e-05
8.98947e-05
8.97582e-05
8.96398e-05
8.95402e-05
8.94592e-05
8.93966e-05
8.93517e-05
8.93234e-05
8.93108e-05
8.93128e-05
8.93285e-05
8.9357e-05
8.93977e-05
8.94503e-05
8.95146e-05
8.95911e-05
8.96803e-05
8.97836e-05
8.99029e-05
9.00409e-05
9.02014e-05
9.03895e-05
9.0612e-05
9.08781e-05
9.11999e-05
9.15939e-05
9.20821e-05
9.26947e-05
9.34733e-05
9.44753e-05
9.57821e-05
9.75057e-05
9.98267e-05
0.000102946
0.000107624
0.000113558
8.92316e-05
0.000143511
0.000126138
0.000117623
0.0001122
0.000108502
0.000107119
0.000107862
0.000110614
0.000115907
0.000124505
0.000120764
0.000116837
0.000112901
0.000109079
0.000105458
0.000102103
9.92092e-05
9.67494e-05
9.45243e-05
9.23474e-05
9.02905e-05
8.88779e-05
8.48613e-05
8.35546e-05
8.98169e-05
0.000112598
0.000155266
0.000173643
0.000174511
0.000172208
0.000169908
0.000168054
0.000167082
0.000167465
0.000169279
0.00017251
0.000177277
0.000183816
0.000192443
0.00020349
0.000217145
0.000233328
0.000251291
0.000269493
0.000285866
0.000298917
0.000308096
0.000313837
0.000317115
0.000318923
0.000320192
0.000321494
0.000322801
0.000324117
0.00032548
0.000326955
0.000328604
0.000330459
0.00033254
0.000334856
0.000337409
0.000340197
0.000343217
0.000346465
0.000349925
0.000353529
0.000357165
0.000344861
0.000324368
0.000306622
0.000292327
0.000281729
0.000274722
0.000271008
0.000270192
0.000271833
0.000275529
0.000281087
0.000288685
0.00030015
0.000314317
0.000329607
0.000345405
0.000361708
0.000378673
0.000396321
0.00041454
0.000433389
0.000453106
0.000462536
0.000457691
0.000451754
0.000445081
0.000437953
0.000430607
0.000423242
0.00041603
0.00040911
0.000402592
0.000396557
0.00039105
0.000386092
0.000381671
0.00037775
0.000374269
0.000371156
0.000368331
0.000365709
0.000363198
0.000360594
0.00035702
0.000351882
0.000345568
0.000328792
0.000307962
0.000288246
0.000269996
0.000253361
0.000238301
0.00022473
0.000212544
0.000201619
0.000191818
0.000182992
0.000175022
0.000167805
0.000161237
0.000155235
0.000149733
0.00014468
0.000140022
0.000135722
0.000131748
0.000128073
0.000124671
0.00012152
0.000118601
0.0001159
0.0001134
0.000111091
0.00010896
0.000106998
0.000105195
0.000103542
0.00010203
0.000100648
9.93884e-05
9.82398e-05
9.71926e-05
9.62372e-05
9.53641e-05
9.4565e-05
9.38321e-05
9.31584e-05
9.25379e-05
9.19653e-05
9.14359e-05
9.09454e-05
9.04903e-05
9.00674e-05
8.96738e-05
8.93071e-05
8.89654e-05
8.86471e-05
8.83509e-05
8.80763e-05
8.7823e-05
8.75917e-05
8.73837e-05
8.7202e-05
8.70503e-05
8.69376e-05
8.68679e-05
8.68835e-05
8.69396e-05
8.73546e-05
8.74205e-05
9.00893e-05
8.81031e-05
7.42776e-05
0.00014729
0.000158856
0.000154262
0.000148157
0.000143128
0.000138807
0.000134599
0.000130306
0.000125973
0.000121708
0.000117631
0.000113839
0.000110379
0.000107241
0.000104351
0.000101753
0.000100452
0.000100705
0.000102259
0.000104631
0.000107813
0.000113215
0.000123682
0.000142366
0.000165421
0.00018149
0.000187864
0.000185997
0.00018108
0.000176565
0.000173702
0.00017277
0.000173956
0.000177424
0.000183262
0.00019157
0.000202421
0.000215706
0.000230896
0.000246862
0.000261977
0.00027466
0.000284
0.000290071
0.000293683
0.000295854
0.000297395
0.000298778
0.000300188
0.000301534
0.000302246
0.000302181
0.000301344
0.000299826
0.00029064
0.000273169
0.000261682
0.00025538
0.000253912
0.000257221
0.000265351
0.000278281
0.000295355
0.000302188
0.000305922
0.00031041
0.000315602
0.000321375
0.000311698
0.000290539
0.000273214
0.000261184
0.000254255
0.000251793
0.000253036
0.000257289
0.000264025
0.000272961
0.000284154
0.000298794
0.000315528
0.000333632
0.000352605
0.000372331
0.000392918
0.000414535
0.000437576
0.000462637
0.000484563
0.000484548
0.000483165
0.000480739
0.000477537
0.000473793
0.000469713
0.000465496
0.000461328
0.000457393
0.000453864
0.000450905
0.000448666
0.000447278
0.00044685
0.00044746
0.000449156
0.000451957
0.000455849
0.000460789
0.000466712
0.00047352
0.000481027
0.000489036
0.000497422
0.000506084
0.000514864
0.000523592
0.000532098
0.00054021
0.00054776
0.000554587
0.000560538
0.000565472
0.000569221
0.000571207
0.000571062
0.000568769
0.00056436
0.000557818
0.000541797
0.000524822
0.000507715
0.000490591
0.000473697
0.000457209
0.000441262
0.000425965
0.000411407
0.000397648
0.000384722
0.000372638
0.000361386
0.000350941
0.00034127
0.000332338
0.000324103
0.000316525
0.00030956
0.00030316
0.000297276
0.000291858
0.000286856
0.000282222
0.000277911
0.000273882
0.000270097
0.000266523
0.000263131
0.000259892
0.000256781
0.000253773
0.000250843
0.000247964
0.000245108
0.000242245
0.000239338
0.000236345
0.000233213
0.000229878
0.000226258
0.000222248
0.000217705
0.000212466
0.000206257
0.000198914
0.000189711
0.000179484
0.000164863
0.000155409
0.000131169
6.46536e-05
0.000159795
0.000163453
0.000156401
0.000150538
0.000145575
0.000140824
0.000135982
0.000131109
0.000126405
0.000122093
0.00011836
0.000115322
0.000112976
0.000111183
0.000109795
0.000111065
0.000113214
0.000116756
0.000122197
0.00012958
0.000138579
0.000149752
0.000162688
0.000175537
0.000184904
0.000188327
0.000186515
0.000182152
0.000178132
0.000176045
0.00017647
0.000179585
0.000185485
0.000194198
0.000205618
0.000219385
0.000234714
0.000250325
0.000264693
0.000276608
0.000285653
0.000292234
0.00029719
0.00030135
0.000305285
0.000309255
0.00031327
0.000317186
0.000320781
0.000322945
0.000323474
0.000322177
0.000318913
0.000312443
0.000279367
0.000253128
0.00023207
0.000215202
0.000202343
0.000193593
0.000189265
0.000189854
0.000196032
0.000208638
0.000228416
0.000254614
0.000272102
0.000278318
0.000286293
0.000284935
0.000263331
0.000245948
0.000235448
0.000231418
0.000232464
0.000237368
0.000245163
0.000255427
0.000268431
0.000284632
0.000303007
0.000322995
0.000343994
0.000365773
0.000388369
0.000411938
0.000437164
0.000465011
0.000485509
0.000487564
0.000488244
0.000487809
0.000486473
0.000484417
0.000481807
0.000478799
0.000475548
0.00047221
0.000468946
0.000465918
0.000463295
0.000461245
0.000459935
0.000459521
0.000460147
0.00046193
0.00046496
0.000469289
0.000474933
0.00048187
0.000490043
0.000499368
0.00050974
0.000521046
0.000533171
0.000545998
0.000559404
0.000573268
0.000587463
0.000601856
0.000616307
0.000630671
0.000644791
0.000658498
0.000671616
0.000683968
0.000695357
0.000705458
0.000713963
0.000720736
0.000725719
0.000728904
0.000730342
0.000730138
0.000728445
0.000725449
0.000721358
0.000716386
0.000710743
0.000704623
0.000698199
0.000691619
0.000685005
0.000678454
0.000672038
0.000665809
0.000659799
0.000654024
0.000648489
0.00064319
0.000638117
0.000633259
0.000628599
0.000624124
0.00061982
0.000615673
0.000611669
0.000607794
0.000604033
0.000600368
0.000596779
0.000593244
0.000589734
0.000586215
0.000582647
0.000578977
0.000575138
0.000571046
0.000566587
0.00056161
0.000555913
0.000549212
0.000541115
0.000531037
0.000518193
0.000474245
0.000407774
0.000362927
0.000279878
5.88205e-05
0.000173091
0.000169652
0.000162773
0.000157113
0.000151743
0.000146207
0.00014056
0.00013511
0.000130178
0.000126053
0.000122967
0.000121081
0.000120494
0.000121295
0.000123614
0.000126688
0.000130594
0.000135955
0.00014268
0.000150419
0.000158709
0.000167006
0.000174425
0.000179797
0.000182104
0.000181424
0.000179163
0.000177235
0.000177168
0.000179733
0.000185206
0.000193637
0.000204928
0.000218744
0.000234386
0.00025075
0.000266516
0.000280579
0.000292462
0.00030238
0.000310963
0.000318881
0.000326605
0.000334342
0.00034207
0.00034961
0.000356695
0.000363024
0.000368082
0.000371661
0.000373646
0.000373667
0.000371332
0.000366267
0.000355662
0.000322206
0.000293367
0.000267794
0.000244639
0.000223944
0.000206221
0.000192293
0.000183166
0.000179981
0.000184065
0.00019713
0.000220668
0.00023789
0.000244342
0.000254128
0.00026671
0.000252743
0.00023388
0.000224114
0.000221667
0.000224622
0.000231214
0.000240782
0.000253937
0.000270328
0.000289354
0.00031017
0.000332087
0.00035473
0.000378048
0.000402126
0.000427414
0.000454995
0.000480633
0.000484167
0.000486373
0.000487481
0.000487671
0.000487092
0.000485873
0.000484128
0.000481973
0.000479521
0.000476896
0.000474229
0.000471662
0.000469348
0.000467449
0.000466135
0.000465579
0.000465957
0.00046743
0.000470145
0.000474214
0.000479709
0.000486654
0.000495021
0.000504735
0.000515685
0.000527737
0.00054074
0.000554542
0.000568997
0.000583966
0.000599321
0.000614938
0.000630694
0.00064646
0.000662099
0.000677468
0.000692418
0.000706802
0.000720472
0.000733288
0.000745104
0.000755783
0.000765233
0.000773392
0.000780228
0.000785744
0.000789973
0.000792978
0.000794849
0.000795695
0.000795638
0.000794808
0.000793337
0.000791351
0.000788972
0.000786309
0.000783456
0.000780496
0.000777496
0.000774508
0.000771572
0.000768716
0.000765958
0.000763308
0.000760772
0.000758348
0.000756035
0.000753825
0.000751712
0.000749686
0.000747738
0.000745856
0.000744027
0.000742236
0.000740467
0.000738698
0.000736907
0.000735061
0.000733121
0.000731036
0.000728736
0.000726125
0.000723063
0.000719351
0.000714675
0.000708564
0.000700188
0.00066239
0.000576519
0.0004574
5.67613e-05
0.000180916
0.00017763
0.000171601
0.000165963
0.000160225
0.000154113
0.000147954
0.000142212
0.000137256
0.000133374
0.000130783
0.000129611
0.000129877
0.00013147
0.000134149
0.000137332
0.000141465
0.000146438
0.000151997
0.000157755
0.000163273
0.000168094
0.000171777
0.00017403
0.000174949
0.000175233
0.00017603
0.000178486
0.000183382
0.000191068
0.000201593
0.000214763
0.000230089
0.000246722
0.000263538
0.000279424
0.000293655
0.000306079
0.000317006
0.00032693
0.00033629
0.000345361
0.000354251
0.000362953
0.000371382
0.000379402
0.000386839
0.000393474
0.000399312
0.000404781
0.000409469
0.000412883
0.000414491
0.000413732
0.000410043
0.000402867
0.000378261
0.000353209
0.000329352
0.000306032
0.000283257
0.000261478
0.000241692
0.000225523
0.000215241
0.000213397
0.000213172
0.000210284
0.000211773
0.000217785
0.000228469
0.000243671
0.000261272
0.000239245
0.000228756
0.000226545
0.000229392
0.000236222
0.000247259
0.00026202
0.000279886
0.000299972
0.00032143
0.000343692
0.000366608
0.000390264
0.000414858
0.000441392
0.000470846
0.000478781
0.000481992
0.000484148
0.000485421
0.000485949
0.000485841
0.000485186
0.000484067
0.000482561
0.000480752
0.000478732
0.000476607
0.000474498
0.000472539
0.00047088
0.000469679
0.000469111
0.000469353
0.000470594
0.000473013
0.00047678
0.000482031
0.000488857
0.000497289
0.000507291
0.000518764
0.00053155
0.000545451
0.00056025
0.000575731
0.000591693
0.000607953
0.000624355
0.000640754
0.000657013
0.000672996
0.000688564
0.000703579
0.000717905
0.000731418
0.000744004
0.000755569
0.000766036
0.000775348
0.000783473
0.000790404
0.000796157
0.000800772
0.000804311
0.000806852
0.000808491
0.000809333
0.00080949
0.000809078
0.000808207
0.000806983
0.000805505
0.000803858
0.000802117
0.000800343
0.000798584
0.000796877
0.000795247
0.000793712
0.00079228
0.000790954
0.000789733
0.000788612
0.000787585
0.000786642
0.000785775
0.000784975
0.000784232
0.000783537
0.00078288
0.000782253
0.000781644
0.000781045
0.000780442
0.000779821
0.000779166
0.000778451
0.000777646
0.000776704
0.00077555
0.000774071
0.000772038
0.000769113
0.000702796
0.000575779
6.03047e-05
0.000188086
0.00018592
0.000181255
0.000176222
0.0001707
0.000164516
0.000158183
0.000152265
0.000147137
0.000143051
0.000140182
0.000138632
0.0001384
0.0001393
0.000140832
0.000143259
0.000146414
0.000150095
0.000154055
0.000158024
0.000161757
0.00016508
0.000167942
0.000170481
0.000173088
0.000176406
0.00018118
0.000188037
0.000197334
0.00020913
0.000223193
0.000238967
0.000255583
0.000271995
0.000287268
0.00030084
0.000312602
0.000322763
0.000331651
0.000339574
0.000346778
0.000353463
0.000359816
0.000366013
0.000372206
0.000378486
0.000384852
0.000391191
0.000398326
0.000405934
0.000413537
0.000420615
0.000426621
0.000430974
0.000433059
0.000432225
0.000427815
0.000419217
0.00040595
0.000387744
0.000364679
0.000337394
0.000307379
0.000276965
0.000249062
0.000226409
0.00021054
0.000200877
0.000196399
0.000196609
0.000201635
0.000212141
0.000228899
0.000251855
0.000256511
0.000244998
0.00024199
0.000244746
0.000252413
0.000264237
0.000279497
0.000297318
0.000316765
0.000337162
0.000358304
0.00038035
0.000403487
0.000428433
0.000456455
0.000473085
0.000476998
0.000479862
0.000481862
0.00048314
0.000483806
0.000483948
0.000483635
0.000482926
0.000481877
0.000480544
0.000478999
0.000477325
0.000475622
0.00047401
0.000472623
0.000471608
0.000471125
0.000471347
0.000472459
0.000474655
0.000478134
0.000483085
0.000489671
0.000498005
0.000508126
0.000519988
0.000533454
0.000548305
0.000564267
0.000581039
0.000598323
0.000615847
0.000633373
0.000650699
0.000667651
0.000684072
0.000699818
0.000714756
0.000728767
0.000741747
0.000753618
0.000764326
0.000773841
0.000782154
0.000789277
0.000795242
0.000800098
0.000803909
0.000806754
0.000808725
0.000809919
0.000810443
0.000810403
0.000809906
0.000809054
0.00080794
0.000806651
0.00080526
0.000803828
0.000802407
0.000801033
0.000799736
0.000798532
0.000797433
0.000796442
0.000795558
0.000794777
0.000794091
0.000793493
0.000792972
0.000792521
0.000792129
0.000791789
0.000791494
0.000791235
0.000791008
0.000790807
0.000790628
0.000790468
0.000790324
0.000790195
0.000790081
0.000789984
0.000789908
0.00078986
0.000789833
0.000789825
0.000789637
0.000666007
7.29755e-05
0.000170738
0.000170356
0.000182625
0.000186571
0.000182255
0.000176758
0.000170775
0.000164971
0.000159772
0.000155409
0.000152042
0.000149812
0.00014835
0.000147669
0.000148013
0.000149249
0.000151211
0.00015373
0.00015664
0.0001598
0.000163129
0.000166625
0.000170388
0.000174645
0.000179746
0.000186132
0.000194234
0.000204348
0.000216533
0.000230564
0.0002459
0.000261727
0.000277105
0.000291203
0.000303491
0.000313781
0.000322131
0.000328724
0.000333787
0.000337581
0.000340425
0.000342709
0.000344875
0.000347377
0.000350625
0.000354924
0.000360409
0.000367289
0.000375681
0.000385025
0.000394843
0.000404667
0.00041404
0.000422481
0.000429434
0.000434223
0.000436047
0.000434049
0.000427476
0.000415675
0.000398206
0.00037497
0.000346584
0.000314575
0.000281099
0.000249613
0.000224628
0.000207516
0.000197167
0.000192129
0.00019147
0.000195488
0.000205652
0.000223694
0.000250086
0.00027761
0.000267992
0.000265134
0.000268524
0.000276773
0.000288785
0.000303526
0.000319954
0.000337392
0.000355686
0.000375088
0.000395896
0.000418606
0.000444213
0.00046771
0.00047213
0.000475505
0.00047802
0.000479818
0.000481015
0.000481703
0.000481955
0.000481828
0.000481369
0.00048062
0.000479625
0.000478436
0.000477119
0.00047576
0.000474464
0.000473352
0.000472559
0.000472235
0.000472535
0.000473632
0.00047571
0.000478971
0.000483629
0.000489895
0.000497959
0.000507954
0.000519924
0.000533806
0.000549413
0.000566453
0.000584561
0.000603338
0.000622394
0.000641378
0.000659987
0.000677974
0.00069513
0.000711285
0.000726303
0.000740075
0.00075253
0.00076363
0.000773372
0.000781784
0.000788916
0.000794836
0.000799623
0.000803364
0.000806157
0.000808099
0.000809294
0.000809847
0.00080986
0.000809436
0.000808671
0.000807653
0.000806464
0.000805174
0.000803844
0.000802522
0.000801245
0.000800042
0.000798931
0.000797922
0.00079702
0.000796225
0.000795532
0.000794935
0.000794424
0.000793992
0.000793629
0.000793326
0.000793074
0.000792868
0.0007927
0.000792564
0.000792458
0.000792378
0.000792322
0.000792291
0.000792289
0.000792321
0.0007924
0.000792546
0.00079279
0.000793177
0.000793783
0.000794646
0.000756783
0.00010782
0.000157346
0.000156912
0.000171193
0.000178591
0.000181805
0.000184741
0.000184751
0.000179666
0.000174898
0.000170539
0.000166661
0.000163276
0.000160795
0.000159277
0.000158714
0.000159044
0.000160184
0.000162042
0.00016454
0.000167625
0.000171289
0.00017558
0.000180611
0.000186568
0.000193698
0.000202268
0.000212484
0.000224392
0.000237794
0.000252218
0.000266949
0.000281158
0.000294081
0.000305161
0.000314092
0.000320772
0.000325232
0.000327603
0.000328125
0.00032717
0.000325248
0.000322985
0.000321072
0.000320185
0.000320905
0.000323633
0.000328517
0.000336073
0.000345241
0.000355497
0.000366378
0.00037751
0.000388587
0.000399321
0.000409362
0.000418188
0.000425007
0.000428727
0.000428443
0.000423225
0.000412305
0.000395089
0.000371497
0.000343149
0.000311011
0.000277189
0.000246908
0.000223807
0.000207931
0.000198379
0.000193425
0.000192344
0.000196361
0.000207653
0.000227053
0.00025276
0.000281156
0.000295179
0.00029352
0.000297458
0.000305663
0.000316866
0.000329741
0.000343601
0.000358453
0.000374665
0.000392605
0.000412595
0.000435353
0.000461388
0.000467764
0.000471508
0.000474402
0.000476584
0.000478164
0.000479236
0.000479877
0.000480149
0.000480105
0.000479784
0.000479223
0.000478457
0.000477528
0.000476491
0.000475419
0.000474404
0.000473558
0.000473007
0.000472889
0.000473348
0.000474536
0.000476618
0.000479778
0.000484223
0.000490181
0.000497888
0.000507559
0.000519345
0.000533289
0.000549293
0.000567108
0.000586349
0.000606544
0.000627187
0.000647794
0.000667932
0.000687238
0.000705422
0.000722257
0.000737582
0.000751291
0.00076334
0.000773737
0.000782538
0.000789841
0.000795764
0.000800441
0.000804007
0.000806597
0.000808338
0.000809355
0.000809763
0.000809669
0.000809173
0.000808368
0.000807338
0.000806157
0.000804889
0.00080359
0.000802304
0.000801065
0.0007999
0.000798825
0.000797851
0.000796981
0.000796216
0.00079555
0.000794978
0.000794492
0.000794082
0.000793739
0.000793456
0.000793223
0.000793033
0.000792881
0.00079276
0.000792666
0.000792597
0.000792551
0.000792528
0.000792531
0.000792566
0.000792646
0.00079279
0.000793031
0.000793417
0.000794026
0.000794946
0.000796252
0.000148796
0.000155471
0.000153304
0.000168036
0.000177645
0.000183155
0.000187276
0.000194844
0.000192711
0.000188497
0.00018445
0.000180792
0.000177678
0.000175248
0.000173588
0.000172753
0.000172762
0.000173613
0.000175293
0.000177787
0.000181092
0.00018523
0.000190258
0.000196272
0.000203409
0.000211828
0.000221655
0.000232914
0.000245447
0.000258871
0.000272593
0.000285903
0.000298095
0.000308579
0.000316937
0.000322902
0.000326335
0.000327224
0.000325703
0.000322086
0.000316883
0.000310774
0.000304566
0.000299127
0.000295292
0.000293787
0.000295145
0.000299636
0.000307542
0.000317056
0.000327504
0.000338475
0.000349699
0.00036101
0.000372304
0.000383461
0.000394214
0.000403994
0.000411458
0.000415656
0.000415505
0.000410064
0.000398527
0.00037969
0.00035606
0.000328052
0.000297619
0.000267738
0.00024172
0.000221979
0.000208801
0.000200566
0.000195774
0.000194957
0.000200436
0.000214097
0.000235385
0.000261478
0.000289028
0.000315472
0.000323773
0.000327617
0.000334594
0.000343415
0.000353315
0.00036444
0.0003773
0.00039224
0.000409401
0.000429181
0.000452146
0.000463976
0.000468007
0.000471199
0.000473682
0.000475564
0.000476933
0.000477865
0.000478428
0.000478677
0.00047866
0.000478413
0.000477972
0.000477367
0.000476635
0.000475823
0.000474995