/*--------------------------------*- C++ -*----------------------------------*\
| =========                 |                                                 |
| \\      /  F ield         | OpenFOAM: The Open Source CFD Toolbox           |
|  \\    /   O peration     | Version:  2112                                  |
|   \\  /    A nd           | Website:  www.openfoam.com                      |
|    \\/     M anipulation  |                                                 |
\*---------------------------------------------------------------------------*/
FoamFile
{
    version     2.0;
    format      ascii;
    arch        "LSB;label=32;scalar=64";
    class       volVectorField;
    location    "0.02";
    object      U;
}
// * * * * * * * * * * * * * * * * * * * * * * * * * * * * * * * * * * * * * //

dimensions      [0 1 -1 0 0 0 0];

internalField   nonuniform List<vector> 
12225
(
(9.76187 0.0641559 0)
(9.26456 0.104891 0)
(8.71902 0.114161 0)
(8.15501 0.116641 0)
(7.60544 0.114919 0)
(7.08634 0.109144 0)
(6.60701 0.10018 0)
(6.17599 0.0889712 0)
(5.79966 0.0764595 0)
(5.48035 0.0636191 0)
(5.21637 0.0513781 0)
(5.00263 0.0405242 0)
(4.83157 0.0316292 0)
(4.69403 0.0251025 0)
(4.57962 0.0213433 0)
(4.47918 0.0202988 0)
(4.37438 0.0316264 0)
(4.24441 0.0176537 0)
(10.0976 0.0742961 0)
(10.2942 0.113035 0)
(10.4207 0.12269 0)
(10.4787 0.133007 0)
(10.4813 0.141688 0)
(10.4333 0.146204 0)
(10.3399 0.146411 0)
(10.2088 0.142554 0)
(10.0489 0.135094 0)
(9.86805 0.124884 0)
(9.67266 0.113109 0)
(9.4673 0.101113 0)
(9.25475 0.0901873 0)
(9.03616 0.0815346 0)
(8.81157 0.0760981 0)
(8.5791 0.0758615 0)
(8.3404 0.0826835 0)
(8.09228 0.108649 0)
(10.0166 0.0405511 0)
(10.0687 0.068286 0)
(10.1226 0.0836408 0)
(10.1762 0.102025 0)
(10.2335 0.118936 0)
(10.2917 0.13193 0)
(10.3446 0.141243 0)
(10.3874 0.147149 0)
(10.4172 0.149918 0)
(10.4324 0.150264 0)
(10.432 0.149308 0)
(10.4162 0.14839 0)
(10.3854 0.148852 0)
(10.3406 0.151909 0)
(10.2823 0.15882 0)
(10.2102 0.170784 0)
(10.1276 0.190883 0)
(10.0285 0.216106 0)
(10.0084 0.0329053 0)
(10.0391 0.0667264 0)
(10.0666 0.0843614 0)
(10.0878 0.099575 0)
(10.1092 0.112484 0)
(10.1327 0.122053 0)
(10.1573 0.128647 0)
(10.1818 0.132802 0)
(10.2048 0.134915 0)
(10.2249 0.135513 0)
(10.2406 0.135481 0)
(10.2515 0.135932 0)
(10.2572 0.138019 0)
(10.258 0.142894 0)
(10.2544 0.151849 0)
(10.247 0.166066 0)
(10.2376 0.187571 0)
(10.228 0.213362 0)
(10.0049 0.0280385 0)
(10.0284 0.0616324 0)
(10.051 0.0790035 0)
(10.068 0.0934462 0)
(10.0841 0.106283 0)
(10.1008 0.116187 0)
(10.1166 0.123228 0)
(10.1308 0.127922 0)
(10.1429 0.13077 0)
(10.1524 0.132437 0)
(10.1588 0.133811 0)
(10.162 0.135908 0)
(10.1618 0.139734 0)
(10.1585 0.146287 0)
(10.1528 0.156637 0)
(10.1457 0.171722 0)
(10.1382 0.192453 0)
(10.1337 0.218391 0)
(10.0032 0.0235351 0)
(10.0213 0.0553259 0)
(10.0411 0.0737056 0)
(10.0571 0.0886199 0)
(10.072 0.101622 0)
(10.087 0.111678 0)
(10.101 0.118934 0)
(10.1131 0.124042 0)
(10.1228 0.127608 0)
(10.13 0.13026 0)
(10.1342 0.132777 0)
(10.1355 0.136069 0)
(10.1338 0.14109 0)
(10.1295 0.148763 0)
(10.1233 0.15997 0)
(10.116 0.175452 0)
(10.1087 0.195714 0)
(10.1033 0.220888 0)
(10.0023 0.020085 0)
(10.0163 0.0498343 0)
(10.0334 0.068553 0)
(10.0484 0.0834583 0)
(10.0624 0.0963257 0)
(10.0764 0.106516 0)
(10.0896 0.114203 0)
(10.101 0.119982 0)
(10.1102 0.124401 0)
(10.1169 0.128058 0)
(10.1209 0.131704 0)
(10.1222 0.136202 0)
(10.1208 0.142419 0)
(10.1173 0.151154 0)
(10.1122 0.163137 0)
(10.1064 0.17895 0)
(10.1008 0.198898 0)
(10.0968 0.222983 0)
(10.0016 0.0173667 0)
(10.0126 0.0450424 0)
(10.0274 0.063745 0)
(10.0412 0.0784809 0)
(10.0543 0.0911064 0)
(10.0673 0.10133 0)
(10.0796 0.109326 0)
(10.0905 0.11566 0)
(10.0994 0.12088 0)
(10.1061 0.125558 0)
(10.1104 0.130379 0)
(10.1122 0.136101 0)
(10.1118 0.143473 0)
(10.1095 0.153176 0)
(10.106 0.165802 0)
(10.1019 0.181791 0)
(10.0982 0.201316 0)
(10.0959 0.224356 0)
(10.0012 0.0151602 0)
(10.0099 0.0407101 0)
(10.0226 0.0591003 0)
(10.0353 0.07361 0)
(10.0475 0.085989 0)
(10.0596 0.0962185 0)
(10.0711 0.104481 0)
(10.0814 0.111308 0)
(10.09 0.117245 0)
(10.0967 0.12284 0)
(10.1013 0.128711 0)
(10.1039 0.135521 0)
(10.1046 0.143909 0)
(10.1039 0.154442 0)
(10.1021 0.167584 0)
(10.1001 0.183648 0)
(10.0984 0.202721 0)
(10.098 0.22479 0)
(10.0009 0.0133422 0)
(10.0079 0.0367777 0)
(10.0189 0.0545998 0)
(10.0305 0.0688054 0)
(10.0418 0.0809135 0)
(10.0531 0.0911108 0)
(10.0639 0.0995983 0)
(10.0737 0.106866 0)
(10.0821 0.113438 0)
(10.0888 0.119834 0)
(10.0939 0.126607 0)
(10.0973 0.134329 0)
(10.0992 0.143542 0)
(10.0999 0.154708 0)
(10.1001 0.168181 0)
(10.1001 0.184178 0)
(10.1006 0.202727 0)
(10.1024 0.223775 0)
(10.0007 0.0118208 0)
(10.0064 0.0332141 0)
(10.0159 0.0502561 0)
(10.0265 0.0640568 0)
(10.0371 0.0758543 0)
(10.0477 0.0859695 0)
(10.0579 0.0946269 0)
(10.0673 0.102268 0)
(10.0756 0.109385 0)
(10.0825 0.116458 0)
(10.088 0.123977 0)
(10.0922 0.13243 0)
(10.0953 0.142266 0)
(10.0976 0.153852 0)
(10.0996 0.167451 0)
(10.1016 0.183206 0)
(10.1043 0.201104 0)
(10.1081 0.221059 0)
(10.0006 0.0106093 0)
(10.0053 0.0302187 0)
(10.0137 0.0463999 0)
(10.0234 0.0597316 0)
(10.0335 0.0712001 0)
(10.0435 0.081188 0)
(10.0534 0.0899379 0)
(10.0625 0.0978474 0)
(10.0708 0.10537 0)
(10.0779 0.112945 0)
(10.0839 0.121002 0)
(10.089 0.129957 0)
(10.0932 0.140177 0)
(10.0969 0.151956 0)
(10.1004 0.165485 0)
(10.1042 0.180852 0)
(10.1087 0.198014 0)
(10.1143 0.216867 0)
(10.0005 0.00955376 0)
(10.0046 0.0274644 0)
(10.0119 0.0426742 0)
(10.0209 0.0554506 0)
(10.0304 0.0665462 0)
(10.0401 0.0763527 0)
(10.0496 0.0851254 0)
(10.0586 0.0932222 0)
(10.0669 0.101052 0)
(10.0744 0.109008 0)
(10.081 0.117462 0)
(10.0869 0.126763 0)
(10.0922 0.137206 0)
(10.0972 0.149017 0)
(10.1023 0.162328 0)
(10.1077 0.177182 0)
(10.1138 0.193513 0)
(10.1211 0.211209 0)
(10.0004 0.00848122 0)
(10.0039 0.0245411 0)
(10.0104 0.0385481 0)
(10.0187 0.0505791 0)
(10.0276 0.0611662 0)
(10.0369 0.0706782 0)
(10.0461 0.0793741 0)
(10.0551 0.0875674 0)
(10.0636 0.0956102 0)
(10.0716 0.10384 0)
(10.0789 0.112566 0)
(10.0858 0.122063 0)
(10.0923 0.132555 0)
(10.0988 0.1442 0)
(10.1055 0.157075 0)
(10.1126 0.171184 0)
(10.1205 0.186441 0)
(10.1294 0.202736 0)
(10.0004 0.00737201 0)
(10.0034 0.0214296 0)
(10.0091 0.0339853 0)
(10.0167 0.0450319 0)
(10.0253 0.0549215 0)
(10.0342 0.0639726 0)
(10.0433 0.0724311 0)
(10.0524 0.0805615 0)
(10.0613 0.0886506 0)
(10.0698 0.0969708 0)
(10.078 0.105762 0)
(10.086 0.115227 0)
(10.0939 0.125517 0)
(10.1019 0.136728 0)
(10.1102 0.148889 0)
(10.119 0.161971 0)
(10.1286 0.175875 0)
(10.1391 0.190504 0)
(10.0003 0.00619718 0)
(10.003 0.0180725 0)
(10.0082 0.0288976 0)
(10.0153 0.0386623 0)
(10.0235 0.0475937 0)
(10.0323 0.0559422 0)
(10.0415 0.0639202 0)
(10.0508 0.0717387 0)
(10.0601 0.0796143 0)
(10.0694 0.0877478 0)
(10.0786 0.096308 0)
(10.0878 0.105426 0)
(10.0971 0.115188 0)
(10.1067 0.125634 0)
(10.1166 0.136754 0)
(10.1271 0.148494 0)
(10.1382 0.160748 0)
(10.1502 0.173442 0)
(10.0003 0.00490582 0)
(10.0028 0.0143386 0)
(10.0077 0.0230949 0)
(10.0145 0.0312055 0)
(10.0225 0.038823 0)
(10.0314 0.0461264 0)
(10.0408 0.0532774 0)
(10.0506 0.0604281 0)
(10.0606 0.0677243 0)
(10.0708 0.0752935 0)
(10.0811 0.0832345 0)
(10.0916 0.0916129 0)
(10.1023 0.100459 0)
(10.1133 0.109767 0)
(10.1247 0.119497 0)
(10.1366 0.12958 0)
(10.1491 0.139909 0)
(10.1622 0.150437 0)
(10.0003 0.00340751 0)
(10.0027 0.00997992 0)
(10.0076 0.0162124 0)
(10.0144 0.0221892 0)
(10.0227 0.0280194 0)
(10.0318 0.0338141 0)
(10.0418 0.0396748 0)
(10.0522 0.045692 0)
(10.0631 0.0519427 0)
(10.0743 0.0584846 0)
(10.0858 0.0653519 0)
(10.0975 0.0725532 0)
(10.1095 0.080072 0)
(10.1219 0.0878679 0)
(10.1345 0.0958787 0)
(10.1476 0.104028 0)
(10.161 0.112212 0)
(10.1749 0.120411 0)
(10.0003 0.00154607 0)
(10.0029 0.00454876 0)
(10.0081 0.00757332 0)
(10.0153 0.0107578 0)
(10.0241 0.0141689 0)
(10.034 0.0178461 0)
(10.0448 0.0218269 0)
(10.0562 0.0261412 0)
(10.0682 0.0308023 0)
(10.0806 0.0358055 0)
(10.0932 0.0411289 0)
(10.1061 0.046735 0)
(10.1193 0.0525713 0)
(10.1327 0.0585714 0)
(10.1463 0.0646586 0)
(10.1602 0.0707515 0)
(10.1742 0.0767545 0)
(10.1884 0.0826511 0)
(10.0003 -0.000389763 0)
(10.0033 -0.00109936 0)
(10.0091 -0.0013961 0)
(10.0172 -0.00109863 0)
(10.0269 -0.000209014 0)
(10.0378 0.00123205 0)
(10.0495 0.00320827 0)
(10.062 0.00570408 0)
(10.0751 0.00868525 0)
(10.0885 0.0121023 0)
(10.1022 0.0158973 0)
(10.1161 0.0200026 0)
(10.1301 0.0243407 0)
(10.1442 0.0288277 0)
(10.1584 0.0333758 0)
(10.1726 0.037898 0)
(10.1869 0.0423017 0)
(10.2011 0.0465593 0)
(10.0004 -0.00217257 0)
(10.0038 -0.00623941 0)
(10.0104 -0.00941699 0)
(10.0195 -0.0115371 0)
(10.0302 -0.012741 0)
(10.042 -0.0131586 0)
(10.0547 -0.0128381 0)
(10.0681 -0.0118239 0)
(10.0821 -0.0101853 0)
(10.0964 -0.00800128 0)
(10.111 -0.00535168 0)
(10.1256 -0.00232225 0)
(10.1403 0.000993499 0)
(10.155 0.0044978 0)
(10.1696 0.00809186 0)
(10.184 0.0116804 0)
(10.1984 0.0151668 0)
(10.2125 0.0185101 0)
(10.0005 -0.0040116 0)
(10.0046 -0.0114345 0)
(10.0123 -0.0172868 0)
(10.0225 -0.0215414 0)
(10.0342 -0.0245978 0)
(10.0469 -0.0266761 0)
(10.0606 -0.0278293 0)
(10.075 -0.0281221 0)
(10.0899 -0.0276535 0)
(10.1051 -0.0265207 0)
(10.1205 -0.0248164 0)
(10.1358 -0.0226391 0)
(10.1512 -0.0200963 0)
(10.1663 -0.0172987 0)
(10.1813 -0.0143561 0)
(10.196 -0.0113735 0)
(10.2104 -0.0084553 0)
(10.2245 -0.0056595 0)
(10.0006 -0.0060001 0)
(10.0057 -0.0168387 0)
(10.0149 -0.0251005 0)
(10.0264 -0.0311725 0)
(10.0391 -0.0358422 0)
(10.0528 -0.0393763 0)
(10.0675 -0.0418112 0)
(10.0828 -0.0432439 0)
(10.0987 -0.0438009 0)
(10.1147 -0.0435815 0)
(10.1309 -0.0426718 0)
(10.147 -0.0411717 0)
(10.163 -0.0391993 0)
(10.1787 -0.03688 0)
(10.194 -0.0343367 0)
(10.209 -0.031686 0)
(10.2235 -0.0290406 0)
(10.2376 -0.026472 0)
(10.0008 -0.00826902 0)
(10.0074 -0.0225644 0)
(10.0185 -0.0328091 0)
(10.0314 -0.0403569 0)
(10.045 -0.0464612 0)
(10.0598 -0.0512853 0)
(10.0754 -0.0548119 0)
(10.0918 -0.0571957 0)
(10.1085 -0.0586035 0)
(10.1255 -0.059141 0)
(10.1425 -0.058892 0)
(10.1594 -0.0579531 0)
(10.1761 -0.0564424 0)
(10.1923 -0.0544796 0)
(10.2081 -0.0521965 0)
(10.2233 -0.0497313 0)
(10.238 -0.0472165 0)
(10.2521 -0.0447412 0)
(10.0012 -0.0110243 0)
(10.0101 -0.0288127 0)
(10.0234 -0.040386 0)
(10.0377 -0.0489639 0)
(10.0525 -0.0563583 0)
(10.0683 -0.0624699 0)
(10.085 -0.0671524 0)
(10.1024 -0.0705547 0)
(10.12 -0.072833 0)
(10.1378 -0.0740532 0)
(10.1556 -0.0742716 0)
(10.1732 -0.0736151 0)
(10.1904 -0.0722388 0)
(10.2071 -0.0703041 0)
(10.2232 -0.0679643 0)
(10.2387 -0.0653751 0)
(10.2535 -0.0626919 0)
(10.2677 -0.0599999 0)
(10.0019 -0.014504 0)
(10.0143 -0.0361067 0)
(10.0306 -0.0486259 0)
(10.0463 -0.0577907 0)
(10.062 -0.0657585 0)
(10.0789 -0.0723162 0)
(10.0968 -0.0774967 0)
(10.1152 -0.0814948 0)
(10.1339 -0.0844037 0)
(10.1527 -0.0862567 0)
(10.1716 -0.0870885 0)
(10.1903 -0.0869768 0)
(10.2086 -0.0860561 0)
(10.2265 -0.0844927 0)
(10.2438 -0.0824582 0)
(10.2605 -0.0801124 0)
(10.2764 -0.0776112 0)
(10.2915 -0.0749967 0)
(10.0034 -0.0188235 0)
(10.0209 -0.0431583 0)
(10.0413 -0.0566587 0)
(10.0596 -0.0671423 0)
(10.0778 -0.0762689 0)
(10.0975 -0.0835184 0)
(10.1185 -0.0890401 0)
(10.1402 -0.093254 0)
(10.1626 -0.0962664 0)
(10.1855 -0.0980872 0)
(10.2089 -0.0987986 0)
(10.2323 -0.0984982 0)
(10.2555 -0.0973142 0)
(10.2782 -0.0954038 0)
(10.3001 -0.0929316 0)
(10.321 -0.0901081 0)
(10.3409 -0.0871177 0)
(10.359 -0.0839596 0)
(10.0081 -0.0243112 0)
(10.0373 -0.0445704 0)
(10.0702 -0.0549989 0)
(10.1021 -0.0670202 0)
(10.137 -0.0789794 0)
(10.1764 -0.0893446 0)
(10.2177 -0.0981544 0)
(10.2597 -0.105556 0)
(10.3014 -0.111589 0)
(10.3421 -0.116169 0)
(10.3807 -0.119274 0)
(10.4164 -0.120957 0)
(10.4487 -0.121336 0)
(10.477 -0.120595 0)
(10.5013 -0.118958 0)
(10.5215 -0.116722 0)
(10.538 -0.114109 0)
(10.5513 -0.111664 0)
(10.052 -0.0514333 0)
(10.1803 -0.0852841 0)
(10.2887 -0.0946645 0)
(10.3716 -0.103719 0)
(10.4327 -0.112497 0)
(10.4718 -0.119265 0)
(10.4901 -0.124261 0)
(10.4887 -0.127746 0)
(10.4698 -0.129685 0)
(10.4359 -0.129982 0)
(10.3892 -0.128627 0)
(10.3321 -0.125701 0)
(10.2669 -0.121361 0)
(10.1955 -0.115836 0)
(10.1199 -0.109386 0)
(10.0414 -0.102393 0)
(9.961 -0.0951099 0)
(9.88035 -0.0884375 0)
(9.87195 -0.0477786 0)
(9.57764 -0.0856219 0)
(9.23691 -0.0989263 0)
(8.87166 -0.106329 0)
(8.50411 -0.110343 0)
(8.1437 -0.111364 0)
(7.79422 -0.110199 0)
(7.45926 -0.107334 0)
(7.14245 -0.102973 0)
(6.84668 -0.0973399 0)
(6.57388 -0.0907258 0)
(6.32528 -0.0833861 0)
(6.10148 -0.0755696 0)
(5.90247 -0.0675221 0)
(5.72759 -0.0594726 0)
(5.57584 -0.0516629 0)
(5.44474 -0.0443473 0)
(5.33514 -0.0374573 0)
(0.101948 -0.177921 -5.11401e-21)
(0.260735 -0.285751 4.94926e-21)
(0.552448 -0.332 0)
(0.849605 -0.343344 0)
(1.13692 -0.338612 0)
(1.42165 -0.327944 -5.22439e-21)
(1.7042 -0.315606 0)
(1.98271 -0.302528 0)
(2.25554 -0.288027 0)
(2.52008 -0.270858 0)
(2.77202 -0.249669 6.44599e-21)
(3.00535 -0.223233 0)
(3.21276 -0.190077 0)
(3.38576 -0.148587 0)
(3.51615 -0.0975853 0)
(3.59405 -0.0362116 7.73575e-21)
(3.61759 0.0381499 0)
(3.56406 0.123527 0)
(3.43214 0.212729 0)
(3.22486 0.29624 0)
(2.94865 0.364575 0)
(2.61587 0.408078 0)
(2.24649 0.417275 0)
(1.86903 0.38224 6.96266e-21)
(1.51999 0.296876 -6.78274e-21)
(1.23752 0.168239 6.62325e-21)
(1.0497 0.0230805 6.48071e-21)
(0.967103 -0.101645 0)
(0.98564 -0.183781 0)
(1.06441 -0.227063 -6.14963e-21)
(1.13215 -0.241641 -6.11844e-21)
(1.11776 -0.238142 0)
(0.999337 -0.204171 0)
(0.766794 -0.117074 -6.19111e-21)
(0.40184 0.0291091 0)
(-0.095852 0.206933 0)
(-0.714396 0.379989 6.36734e-21)
(-1.43121 0.53235 0)
(-2.213 0.651245 6.56951e-21)
(-3.02766 0.729912 1.3638e-20)
(-3.8444 0.76758 0)
(-4.6364 0.767464 0)
(-5.3816 0.735248 0)
(-6.06275 0.677844 0)
(-6.66727 0.601543 0)
(-7.1872 0.513027 1.83017e-20)
(-7.6186 0.419615 1.88256e-20)
(-7.96114 0.326786 1.91694e-20)
(-8.21727 0.238283 0)
(-8.39156 0.157533 -1.92804e-20)
(-8.48968 0.0876781 0)
(-8.51767 0.030976 1.86407e-20)
(-8.48642 -0.0121513 1.80425e-20)
(-8.41629 -0.0441182 0)
(-8.3095 -0.0693155 0)
(-8.1737 -0.0894308 0)
(-8.01392 -0.105666 1.43961e-20)
(-7.83454 -0.118827 0)
(-7.63904 -0.129614 0)
(-7.43006 -0.138692 0)
(-7.20941 -0.146719 0)
(-6.97803 -0.154346 0)
(-6.73592 -0.162178 0)
(-6.48222 -0.170736 0)
(-6.21526 -0.180433 0)
(-5.9328 -0.191494 -3.32651e-21)
(-5.6323 -0.203831 0)
(-5.31132 -0.21719 0)
(-4.96785 -0.231484 -8.54882e-22)
(-4.60052 -0.246344 -2.31359e-21)
(-4.20893 -0.260885 0)
(-3.79434 -0.274056 5.26309e-21)
(-3.35986 -0.284757 -6.70749e-21)
(-2.9104 -0.29195 0)
(-2.45237 -0.294764 9.38692e-21)
(-1.99315 -0.292554 0)
(-1.54038 -0.284972 0)
(-1.10133 -0.272258 -1.24805e-20)
(-0.682429 -0.2561 0)
(-0.287927 -0.240628 1.378e-20)
(0.0831138 -0.228925 0)
(0.434532 -0.217457 -1.42659e-20)
(0.764979 -0.202228 -1.42925e-20)
(1.07013 -0.183353 -1.42452e-20)
(1.34853 -0.163354 -2.82752e-20)
(1.60047 -0.143988 2.79689e-20)
(1.82695 -0.125949 0)
(2.02937 -0.109511 0)
(2.20964 -0.0944393 0)
(2.36915 -0.0794264 2.62825e-20)
(2.50941 -0.0646007 2.5821e-20)
(2.63151 -0.050811 -2.53585e-20)
(2.73659 -0.0385622 0)
(2.82614 -0.0279551 2.44523e-20)
(2.90182 -0.0188745 2.40155e-20)
(2.96519 -0.0111362 2.35923e-20)
(3.0177 -0.00456758 0)
(3.06067 0.000954834 0)
(3.09526 0.0055398 0)
(3.12255 0.00929174 2.20517e-20)
(3.1435 0.0123034 0)
(3.15896 0.0146585 0)
(3.16966 0.0164467 -2.1057e-20)
(3.1762 0.0178161 0)
(3.1789 0.0191073 0)
(3.17831 0.020303 -2.0186e-20)
(3.17498 0.0212077 0)
(3.16939 0.0217211 0)
(3.16198 0.0218497 1.94226e-20)
(3.15316 0.0216282 1.91899e-20)
(3.14333 0.0210674 0)
(3.13283 0.0201413 -1.87533e-20)
(3.12196 0.0187983 0)
(3.11097 0.017054 1.83516e-20)
(3.1 0.0151377 0)
(3.08901 0.0134318 1.79781e-20)
(3.07809 0.0119279 1.78009e-20)
(3.06738 0.0105523 0)
(3.05696 0.0093058 0)
(3.04684 0.00820478 0)
(3.03696 0.00725483 0)
(3.02727 0.00645241 0)
(3.01772 0.00578555 0)
(3.00826 0.00523254 0)
(2.99887 0.00476769 1.65564e-20)
(2.98954 0.00436753 -1.64176e-20)
(2.98029 0.00400527 0)
(2.97117 0.0036591 0)
(2.9622 0.00332246 0)
(2.95342 0.00300126 0)
(2.94486 0.00270327 -3.1531e-20)
(2.93654 0.00243341 0)
(2.92845 0.002192 3.10438e-20)
(2.92061 0.00197455 -3.08068e-20)
(2.91302 0.00177619 0)
(2.90571 0.00159464 0)
(2.89867 0.0014303 0)
(2.89193 0.00128509 2.9898e-20)
(2.88548 0.00116076 2.96799e-20)
(2.87934 0.00105748 0)
(2.8735 0.000973457 2.92537e-20)
(2.86796 0.000905634 2.90453e-20)
(2.86272 0.000850711 -2.88397e-20)
(2.85776 0.000805926 0)
(2.85309 0.000769315 0)
(2.84869 0.000739524 -2.82394e-20)
(2.84452 0.000715516 0)
(2.84058 0.000696403 0)
(2.83683 0.000681469 0)
(2.83326 0.000670287 0)
(2.82983 0.000662787 2.72859e-20)
(2.82652 0.000659212 2.71014e-20)
(2.82331 0.000659962 0)
(2.82017 0.000665465 2.67378e-20)
(2.81709 0.000676119 0)
(2.81403 0.000692336 0)
(2.81097 0.000714617 2.62058e-20)
(2.80789 0.000743662 0)
(2.80475 0.000780466 2.58601e-20)
(2.80153 0.000826427 0)
(2.79817 0.000883451 0)
(2.79465 0.000954074 2.53555e-20)
(2.7909 0.00104163 0)
(2.78685 0.0011505 2.50298e-20)
(2.78243 0.00128639 0)
(2.77752 0.00145687 0)
(2.77199 0.00167198 0)
(2.76567 0.00194522 -2.44125e-20)
(2.75832 0.00229499 0)
(2.74964 0.00274669 2.41286e-20)
(2.73922 0.00333598 0)
(2.7265 0.00411385 0)
(2.71074 0.00515453 0)
(2.69076 0.00656929 0)
(2.66531 0.00852828 0)
(2.63118 0.0112889 0)
(2.58803 0.0154085 0)
(2.52001 0.0211758 -4.69238e-20)
(2.45366 0.0344257 0)
(2.23916 0.0391891 0)
(0.133347 -0.546319 1.54205e-20)
(0.313065 -0.811445 -1.48887e-20)
(0.576486 -0.884642 0)
(0.833607 -0.889405 1.01655e-20)
(1.08092 -0.874982 0)
(1.33235 -0.859018 5.15774e-21)
(1.59039 -0.84438 -1.10251e-20)
(1.85258 -0.827955 -1.1486e-20)
(2.11573 -0.805009 0)
(2.37557 -0.770974 -1.26261e-20)
(2.62626 -0.72167 -6.36533e-21)
(2.86051 -0.652815 0)
(3.0702 -0.56242 0)
(3.24914 -0.4506 0)
(3.39151 -0.318533 0)
(3.49366 -0.168269 -7.67749e-21)
(3.54779 -0.001604 0)
(3.5688 0.178042 1.6646e-20)
(3.55127 0.362229 0)
(3.4884 0.541091 0)
(3.37392 0.703838 -1.56744e-20)
(3.20185 0.836516 0)
(2.96872 0.920304 1.44225e-20)
(2.67835 0.932456 -6.68599e-21)
(2.34655 0.85691 6.51273e-21)
(2.00454 0.700486 -6.37948e-21)
(1.69389 0.490934 -6.27808e-21)
(1.43366 0.250614 0)
(1.16893 0.0339613 0)
(0.808926 -0.0173195 6.125e-21)
(0.320913 0.176482 -6.00591e-21)
(-0.311836 0.502354 0)
(-1.08292 0.83963 0)
(-1.9523 1.16315 5.75087e-21)
(-2.87845 1.45299 0)
(-3.81972 1.68824 0)
(-4.74222 1.85156 -5.46173e-21)
(-5.6137 1.93585 0)
(-6.40846 1.94284 7.20074e-21)
(-7.10924 1.88128 -1.18766e-20)
(-7.70649 1.76428 0)
(-8.19793 1.60676 0)
(-8.5873 1.42338 -3.26022e-20)
(-8.88298 1.22716 -3.44183e-20)
(-9.09626 1.02855 -3.60641e-20)
(-9.23937 0.835037 2.03007e-20)
(-9.32435 0.651506 -1.78131e-20)
(-9.36224 0.480832 -5.7464e-20)
(-9.36243 0.324598 3.94316e-20)
(-9.33271 0.183877 1.8603e-20)
(-9.27919 0.0598421 0)
(-9.20569 -0.046655 -1.80555e-20)
(-9.11148 -0.136037 1.87237e-20)
(-8.98649 -0.2096 0)
(-8.83657 -0.270058 0)
(-8.66339 -0.319129 0)
(-8.47033 -0.358523 -1.39452e-20)
(-8.26062 -0.389871 0)
(-8.03716 -0.414802 2.40108e-20)
(-7.8023 -0.434985 0)
(-7.55771 -0.452153 1.9296e-20)
(-7.30418 -0.468061 0)
(-7.04162 -0.484414 -1.45113e-20)
(-6.76901 -0.502749 0)
(-6.48444 -0.524298 9.63371e-21)
(-6.18526 -0.549875 -3.90915e-21)
(-5.86833 -0.579659 0)
(-5.53014 -0.613062 -1.89985e-21)
(-5.16747 -0.648749 8.27771e-22)
(-4.77891 -0.685508 2.24287e-21)
(-4.36444 -0.7209 0)
(-3.92539 -0.751904 4.33989e-21)
(-3.46519 -0.775399 6.52317e-21)
(-2.98926 -0.788657 0)
(-2.50453 -0.789759 -9.14918e-21)
(-2.01872 -0.777899 2.01341e-20)
(-1.53933 -0.753508 0)
(-1.0728 -0.718331 1.22273e-20)
(-0.624096 -0.675716 0)
(-0.197209 -0.630801 -4.0406e-20)
(0.203581 -0.588316 0)
(0.575628 -0.546749 4.16816e-20)
(0.919038 -0.504023 1.39733e-20)
(1.23521 -0.460204 -1.3711e-20)
(1.52575 -0.41672 -2.7212e-20)
(1.79175 -0.374811 2.69199e-20)
(2.03416 -0.33512 0)
(2.2541 -0.298008 0)
(2.45235 -0.264353 0)
(2.63131 -0.23449 -7.65462e-20)
(2.79376 -0.207185 -2.51767e-20)
(2.94109 -0.181715 2.4759e-20)
(3.07429 -0.158284 0)
(3.19443 -0.137099 2.37632e-20)
(3.30264 -0.118186 -2.35235e-20)
(3.40002 -0.101451 -2.31264e-20)
(3.48767 -0.0867405 0)
(3.56666 -0.0738846 0)
(3.63798 -0.0627 0)
(3.70257 -0.0530019 -2.1651e-20)
(3.76124 -0.0446159 0)
(3.81472 -0.0373774 4.19063e-20)
(3.86366 -0.0311248 6.19644e-20)
(3.9087 -0.0256766 -4.06936e-20)
(3.95061 -0.0207773 0)
(3.98982 -0.0164167 -1.97578e-20)
(4.02655 -0.0126735 0)
(4.06098 -0.00952915 -3.8531e-20)
(4.09326 -0.00688727 1.90033e-20)
(4.12347 -0.00464334 1.87716e-20)
(4.15164 -0.00270589 0)
(4.17772 -0.000979387 5.50644e-20)
(4.20165 0.000667804 -3.62894e-20)
(4.22335 0.00238999 -1.796e-20)
(4.24267 0.00415703 0)
(4.25965 0.0055896 -1.75905e-20)
(4.27429 0.00662207 -5.22303e-20)
(4.28678 0.00736658 0)
(4.29738 0.00792272 -3.41549e-20)
(4.30624 0.00836049 -3.38405e-20)
(4.31347 0.00872539 -3.35352e-20)
(4.31919 0.0090385 0)
(4.32348 0.00930513 0)
(4.32645 0.00952243 0)
(4.32817 0.00966605 1.61924e-20)
(4.32873 0.00973263 1.60653e-20)
(4.32819 0.00973108 0)
(4.32662 0.0096651 3.16045e-20)
(4.32408 0.0095357 3.13533e-20)
(4.32066 0.00934754 0)
(4.31641 0.00911545 3.08701e-20)
(4.31143 0.00885353 6.12606e-20)
(4.30579 0.00856985 -3.04016e-20)
(4.29957 0.00826514 -3.01689e-20)
(4.29288 0.00793878 0)
(4.28581 0.00759155 0)
(4.27844 0.00722546 0)
(4.27088 0.0068434 -2.93041e-20)
(4.26321 0.00644867 2.90926e-20)
(4.25552 0.00604454 5.77783e-20)
(4.2479 0.00563449 -2.86884e-20)
(4.24039 0.00522288 2.84871e-20)
(4.23307 0.0048153 2.82929e-20)
(4.22596 0.00441841 0)
(4.2191 0.00403927 0)
(4.21249 0.00368427 -2.77174e-20)
(4.20615 0.00335828 0)
(4.20006 0.00306418 0)
(4.1942 0.00280291 5.43283e-20)
(4.18856 0.0025739 0)
(4.18311 0.00237562 2.6804e-20)
(4.17781 0.00220617 -2.66277e-20)
(4.17265 0.00206369 0)
(4.16759 0.00194667 2.62775e-20)
(4.16261 0.0018541 0)
(4.15768 0.00178553 0)
(4.15277 0.0017411 -2.57666e-20)
(4.14785 0.00172164 5.11976e-20)
(4.14289 0.00172872 -2.54336e-20)
(4.13786 0.00176483 0)
(4.13273 0.0018335 0)
(4.12745 0.0019397 2.49457e-20)
(4.12197 0.00209014 0)
(4.11624 0.00229391 2.46309e-20)
(4.11018 0.00256318 0)
(4.1037 0.00291426 0)
(4.0967 0.00336903 0)
(4.08902 0.0039571 2.40359e-20)
(4.08049 0.0047188 0)
(4.07087 0.00570968 -2.37608e-20)
(4.05983 0.00700773 0)
(4.04694 0.00872248 0)
(4.03163 0.0110169 4.67832e-20)
(4.01298 0.0141171 -4.6578e-20)
(3.99014 0.01842 0)
(3.96042 0.0243427 0)
(3.92458 0.0333462 0)
(3.86873 0.0450699 1.38421e-19)
(3.82009 0.0713891 0)
(3.67228 0.0903567 -9.21992e-20)
(0.136892 -1.03238 1.62882e-22)
(0.300506 -1.33611 2.00349e-20)
(0.496264 -1.36825 0)
(0.691263 -1.36286 -2.04341e-20)
(0.887878 -1.35969 0)
(1.09576 -1.36122 0)
(1.31535 -1.36159 -3.51677e-22)
(1.54315 -1.35293 1.14823e-20)
(1.77485 -1.32749 1.25185e-20)
(2.00523 -1.27821 1.26523e-20)
(2.22658 -1.19853 0)
(2.43182 -1.0849 0)
(2.61394 -0.936803 -1.56677e-20)
(2.76435 -0.755946 -3.29295e-20)
(2.87549 -0.546073 3.43492e-20)
(2.94138 -0.313624 0)
(2.95942 -0.0685803 3.63326e-20)
(2.92896 0.180988 -1.70205e-20)
(2.85057 0.430626 0)
(2.73306 0.676899 3.54087e-20)
(2.58457 0.914766 1.60096e-20)
(2.4061 1.13372 -3.29588e-20)
(2.19181 1.31446 -1.46723e-20)
(1.93465 1.42689 0)
(1.63454 1.42797 2.785e-20)
(1.3029 1.2747 2.62895e-20)
(0.926501 1.00373 0)
(0.448098 0.818832 2.47345e-20)
(-0.220594 0.920819 0)
(-1.07734 1.25513 2.3479e-20)
(-2.02426 1.68248 1.11016e-20)
(-3.0022 2.10884 0)
(-3.96931 2.48231 0)
(-4.88835 2.77681 0)
(-5.72611 2.97614 0)
(-6.45882 3.07284 0)
(-7.07505 3.06725 0)
(-7.57447 2.96821 2.78915e-20)
(-7.96686 2.79188 -4.17658e-20)
(-8.26856 2.55833 0)
(-8.4988 2.28829 0)
(-8.67639 2.00047 0)
(-8.81709 1.70989 -4.9102e-21)
(-8.9321 1.42728 3.40125e-20)
(-9.02775 1.15947 7.56614e-20)
(-9.10595 0.910166 -7.81843e-20)
(-9.16522 0.680863 -4.17024e-20)
(-9.20214 0.471628 3.90511e-20)
(-9.21283 0.281735 2.71876e-21)
(-9.19391 0.110081 4.16827e-20)
(-9.14369 -0.0444683 0)
(-9.06279 -0.182854 3.94765e-20)
(-8.95224 -0.305907 1.72193e-21)
(-8.81507 -0.413109 0)
(-8.65541 -0.503547 0)
(-8.47693 -0.577997 -3.17288e-20)
(-8.28297 -0.638128 0)
(-8.07637 -0.686104 0)
(-7.85963 -0.72408 2.53598e-20)
(-7.63471 -0.754542 4.4518e-20)
(-7.40299 -0.780246 -1.92489e-20)
(-7.16502 -0.804102 0)
(-6.92045 -0.829026 1.44608e-20)
(-6.66791 -0.857732 0)
(-6.40502 -0.892558 1.12553e-20)
(-6.12812 -0.935563 7.08464e-21)
(-5.8329 -0.987433 -1.11097e-20)
(-5.51483 -1.04736 -4.1212e-21)
(-5.16882 -1.1127 0)
(-4.79096 -1.17938 -4.83222e-21)
(-4.38052 -1.24362 0)
(-3.93866 -1.30032 -2.57645e-20)
(-3.46931 -1.34385 -2.22926e-20)
(-2.97915 -1.36933 -2.80288e-20)
(-2.47694 -1.37352 3.34736e-20)
(-1.97249 -1.35546 -5.83855e-20)
(-1.47533 -1.31664 0)
(-0.993528 -1.26049 0)
(-0.533122 -1.19174 5.00123e-20)
(-0.0985538 -1.11556 7.89714e-20)
(0.306499 -1.03631 0)
(0.680772 -0.956174 -2.73609e-20)
(1.02494 -0.876579 0)
(1.34103 -0.798666 8.13987e-20)
(1.6312 -0.723567 3.81896e-22)
(1.89718 -0.652163 -3.502e-22)
(2.14035 -0.584962 -5.24582e-20)
(2.36203 -0.5223 0)
(2.56367 -0.464845 5.08294e-20)
(2.74635 -0.413284 2.55156e-22)
(2.91107 -0.366641 0)
(3.0598 -0.324107 0)
(3.19426 -0.285383 0)
(3.31578 -0.250447 -4.68844e-20)
(3.42564 -0.219206 0)
(3.52502 -0.191494 0)
(3.61504 -0.167087 0)
(3.69679 -0.145718 0)
(3.77132 -0.127101 0)
(3.83959 -0.110949 -4.23263e-20)
(3.90249 -0.0969771 0)
(3.96084 -0.084915 -4.11678e-20)
(4.01535 -0.0745129 -4.05611e-20)
(4.06666 -0.065571 3.9977e-20)
(4.11527 -0.0579995 0)
(4.16161 -0.0515952 3.88734e-20)
(4.20611 -0.0461106 0)
(4.24908 -0.0413577 3.78564e-20)
(4.29075 -0.037199 -3.73773e-20)
(4.33124 -0.0335154 -1.1063e-19)
(4.37063 -0.030196 0)
(4.40898 -0.0271389 -1.08051e-19)
(4.44632 -0.0242997 -3.55476e-20)
(4.48269 -0.0217578 0)
(4.51843 -0.0194693 -6.97292e-20)
(4.55367 -0.0173857 -6.90595e-20)
(4.58829 -0.0154407 1.02655e-19)
(4.62194 -0.0135847 0)
(4.6543 -0.0118158 3.36168e-20)
(4.6852 -0.0101216 3.33138e-20)
(4.71453 -0.00847703 9.89901e-20)
(4.74221 -0.00686833 0)
(4.76818 -0.00529681 0)
(4.79243 -0.00377426 0)
(4.81488 -0.0022964 3.18533e-20)
(4.83554 -0.000880098 0)
(4.85443 0.000446071 0)
(4.87155 0.0016608 -3.11253e-20)
(4.88696 0.00277029 -3.08791e-20)
(4.90065 0.00379348 0)
(4.91271 0.00470522 0)
(4.92322 0.00549295 -6.03595e-20)
(4.93227 0.00615999 0)
(4.93997 0.00670131 5.94732e-20)
(4.94643 0.00711236 5.90255e-20)
(4.95175 0.00739287 0)
(4.95605 0.00754613 0)
(4.95947 0.00757958 -5.77831e-20)
(4.96212 0.00750464 -1.01599e-23)
(4.96413 0.00733555 -8.91355e-24)
(4.9656 0.0070882 0)
(4.96664 0.00677922 -1.12433e-19)
(4.96732 0.00642535 0)
(4.96769 0.00604299 0)
(4.96782 0.00564765 0)
(4.96775 0.00525341 5.47271e-20)
(4.96751 0.00487237 0)
(4.96712 0.00451423 -1.08005e-19)
(4.96661 0.00418613 -5.3651e-20)
(4.966 0.00389275 0)
(4.96529 0.00363666 -5.29513e-20)
(4.96449 0.00341884 0)
(4.9636 0.00323922 0)
(4.96261 0.00309721 -1.55773e-19)
(4.96152 0.0029921 1.03176e-19)
(4.96031 0.00292356 0)
(4.95898 0.00289188 1.01852e-19)
(4.9575 0.0028983 -5.06015e-20)
(4.95586 0.00294527 0)
(4.95405 0.00303671 0)
(4.95203 0.00317832 0)
(4.94978 0.00337802 -1.47979e-19)
(4.94727 0.00364651 0)
(4.94445 0.00399813 -4.87142e-20)
(4.94126 0.00445197 0)
(4.93763 0.00503346 0)
(4.93347 0.00577665 0)
(4.92867 0.00672733 0)
(4.92307 0.00794774 0)
(4.91645 0.00952307 0)
(4.90857 0.0115727 -9.34837e-20)
(4.89905 0.0142629 0)
(4.88741 0.0178422 -4.62965e-20)
(4.87293 0.0226456 1.38231e-19)
(4.85487 0.0292796 0)
(4.83128 0.0383177 0)
(4.80227 0.0518468 -9.1248e-20)
(4.75948 0.0692808 -9.13151e-20)
(4.71826 0.103686 9.10699e-20)
(4.62192 0.132941 9.12677e-20)
(0.105544 -1.43458 -3.10478e-20)
(0.225752 -1.68322 -3.02905e-20)
(0.346796 -1.69089 -2.02922e-20)
(0.478393 -1.70181 -1.03781e-20)
(0.618588 -1.72367 0)
(0.769605 -1.74808 2.20672e-20)
(0.931126 -1.76616 -1.17078e-20)
(1.10067 -1.76808 0)
(1.27441 -1.74366 -1.26314e-20)
(1.44712 -1.68321 0)
(1.61232 -1.57886 2.95719e-20)
(1.76211 -1.42634 0)
(1.88835 -1.22352 1.60319e-20)
(1.98308 -0.97209 3.38028e-20)
(2.03915 -0.677974 -3.53804e-20)
(2.05231 -0.351306 0)
(2.01649 -0.00388607 -3.7623e-20)
(1.93063 0.345864 0)
(1.79445 0.682379 0)
(1.6135 0.996424 -3.66227e-20)
(1.39701 1.28746 0)
(1.15196 1.55669 -2.27576e-21)
(0.882726 1.78684 0)
(0.586897 1.93274 0)
(0.251119 1.95005 2.18285e-21)
(-0.168228 1.88817 -2.65721e-20)
(-0.759001 1.91831 -2.6703e-20)
(-1.5506 2.1502 -2.29524e-20)
(-2.48048 2.54049 0)
(-3.44875 2.97173 -4.45847e-20)
(-4.37757 3.3631 0)
(-5.22149 3.67323 -2.38816e-20)
(-5.95317 3.879 0)
(-6.55966 3.97126 0)
(-7.03993 3.9534 2.72718e-20)
(-7.40446 3.83788 0)
(-7.67265 3.64312 -3.07077e-20)
(-7.86914 3.39072 5.21133e-21)
(-8.01907 3.1022 6.38362e-20)
(-8.14374 2.79583 -7.29669e-20)
(-8.25787 2.48492 0)
(-8.36875 2.17756 0)
(-8.47704 1.87751 -4.6623e-20)
(-8.57864 1.58586 0)
(-8.66696 1.30261 -4.00889e-20)
(-8.73488 1.02799 4.12287e-20)
(-8.77627 0.763118 4.20482e-20)
(-8.78686 0.509997 0)
(-8.76446 0.271335 -4.25905e-20)
(-8.70876 0.0500118 -4.22298e-20)
(-8.62133 -0.151512 8.80655e-20)
(-8.50572 -0.331453 -3.99342e-20)
(-8.36586 -0.488777 -3.83048e-20)
(-8.20594 -0.623658 0)
(-8.03051 -0.73665 0)
(-7.84404 -0.828934 3.21447e-20)
(-7.65 -0.902661 0)
(-7.45185 -0.960488 0)
(-7.25208 -1.00557 -5.00621e-20)
(-7.05212 -1.04114 -4.51673e-20)
(-6.85256 -1.07091 0)
(-6.65308 -1.09892 0)
(-6.4525 -1.12939 0)
(-6.2487 -1.16654 0)
(-6.03802 -1.21376 -2.09806e-20)
(-5.81558 -1.27392 1.84763e-20)
(-5.57589 -1.34889 1.11412e-20)
(-5.31236 -1.43815 1.50075e-20)
(-5.01812 -1.53921 0)
(-4.68599 -1.64573 3.38047e-21)
(-4.31029 -1.7494 0)
(-3.89017 -1.84159 1.62931e-20)
(-3.42932 -1.91319 3.04977e-21)
(-2.93588 -1.95619 2.77751e-20)
(-2.42153 -1.96528 -3.3168e-20)
(-1.89997 -1.939 1.96188e-21)
(-1.38475 -1.8802 0)
(-0.88732 -1.79503 -4.50798e-20)
(-0.415912 -1.69136 -4.96468e-20)
(0.0241961 -1.57725 -1.02841e-19)
(0.430438 -1.45944 0)
(0.80332 -1.34231 5.28584e-20)
(1.14436 -1.22847 0)
(1.45621 -1.11926 -1.06588e-19)
(1.74164 -1.01548 5.32132e-20)
(2.00299 -0.917542 -5.26703e-20)