/*--------------------------------*- C++ -*----------------------------------*\
| =========                 |                                                 |
| \\      /  F ield         | OpenFOAM: The Open Source CFD Toolbox           |
|  \\    /   O peration     | Version:  2112                                  |
|   \\  /    A nd           | Website:  www.openfoam.com                      |
|    \\/     M anipulation  |                                                 |
\*---------------------------------------------------------------------------*/
FoamFile
{
    version     2.0;
    format      ascii;
    arch        "LSB;label=32;scalar=64";
    class       volScalarField;
    location    "0.24";
    object      pMean;
}
// * * * * * * * * * * * * * * * * * * * * * * * * * * * * * * * * * * * * * //

dimensions      [0 2 -2 0 0 0 0];

internalField   nonuniform List<scalar> 
122250
(
0.470957
-0.217342
-0.526198
-0.730375
-0.833155
-0.925362
-1.01225
-1.09314
-1.16679
-1.231
-1.28576
-1.33237
-1.36957
-1.40425
-1.43438
-1.49633
-1.59098
-1.80236
0.205425
-0.31885
-0.599515
-0.766069
-0.852429
-0.937358
-1.02224
-1.10293
-1.17668
-1.24141
-1.29697
-1.34451
-1.38418
-1.42004
-1.45753
-1.51398
-1.62262
-1.76647
0.21111
-0.233166
-0.495986
-0.745543
-0.850255
-0.938727
-1.02367
-1.10508
-1.17975
-1.24596
-1.30313
-1.35347
-1.39702
-1.43971
-1.48495
-1.55085
-1.65119
-1.79367
0.178662
-0.160126
-0.371791
-0.732511
-0.855709
-0.948315
-1.03084
-1.11115
-1.18647
-1.25398
-1.31339
-1.36634
-1.41508
-1.46335
-1.51813
-1.58863
-1.68809
-1.81872
0.0977012
-0.149777
-0.334515
-0.710482
-0.858961
-0.955612
-1.0373
-1.11688
-1.19273
-1.26193
-1.32373
-1.37999
-1.43319
-1.48743
-1.54838
-1.62309
-1.71972
-1.83927
0.0068525
-0.200441
-0.345205
-0.743802
-0.874568
-0.968884
-1.04886
-1.1271
-1.20316
-1.27383
-1.33811
-1.39756
-1.45504
-1.51426
-1.57997
-1.65746
-1.75157
-1.86363
-0.0721932
-0.244592
-0.353964
-0.750988
-0.884223
-0.981556
-1.06126
-1.13816
-1.21408
-1.2861
-1.35282
-1.4155
-1.47691
-1.54043
-1.60993
-1.68929
-1.78172
-1.88813
-0.144929
-0.289798
-0.367563
-0.765099
-0.893221
-0.995249
-1.07517
-1.15109
-1.22682
-1.30007
-1.36919
-1.43503
-1.50007
-1.5673
-1.63983
-1.72055
-1.81163
-1.91355
-0.211947
-0.335199
-0.386585
-0.778784
-0.905505
-1.00972
-1.08994
-1.16549
-1.24117
-1.31552
-1.38686
-1.45564
-1.52393
-1.59428
-1.66922
-1.75084
-1.84065
-1.9389
-0.269911
-0.383151
-0.408587
-0.794668
-0.919876
-1.0258
-1.1061
-1.18158
-1.2573
-1.33252
-1.40578
-1.47718
-1.54832
-1.62128
-1.69808
-1.78028
-1.86889
-1.96403
-0.330364
-0.443492
-0.439351
-0.81209
-0.940266
-1.04148
-1.123
-1.19911
-1.27499
-1.35091
-1.42572
-1.4993
-1.57281
-1.64789
-1.72612
-1.80863
-1.8961
-1.98857
-0.388991
-0.501928
-0.476858
-0.835713
-0.956047
-1.05732
-1.13877
-1.21517
-1.29142
-1.36803
-1.44413
-1.51952
-1.59497
-1.67168
-1.75089
-1.8335
-1.91999
-2.01033
-0.427215
-0.52628
-0.488169
-0.859549
-0.974382
-1.07152
-1.15395
-1.23147
-1.30834
-1.38555
-1.46268
-1.5395
-1.6165
-1.69453
-1.7745
-1.85708
-1.9426
-2.03103
-0.454972
-0.524022
-0.485198
-0.889073
-0.992366
-1.09129
-1.17223
-1.25018
-1.32789
-1.40599
-1.48421
-1.56241
-1.64084
-1.72002
-1.80056
-1.8829
-1.96728
-2.05363
-0.496898
-0.539085
-0.48902
-0.916161
-1.01747
-1.11159
-1.19432
-1.27319
-1.35135
-1.4299
-1.50892
-1.58818
-1.66766
-1.74758
-1.82827
-1.91
-1.99293
-2.07698
-0.537062
-0.568429
-0.496699
-0.943421
-1.04656
-1.13449
-1.21809
-1.29698
-1.37549
-1.4548
-1.53471
-1.61481
-1.695
-1.7753
-1.85586
-1.93681
-2.01822
-2.1
-0.573685
-0.59724
-0.503175
-0.978118
-1.085
-1.16595
-1.24482
-1.32201
-1.40143
-1.48182
-1.56248
-1.64308
-1.72356
-1.80388
-1.88403
-1.96401
-2.0438
-2.12339
-0.598195
-0.611175
-0.500402
-1.00799
-1.10665
-1.18905
-1.2711
-1.34631
-1.42671
-1.5081
-1.58921
-1.66987
-1.75027
-1.8303
-1.9098
-1.98862
-2.06671
-2.14407
-0.599575
-0.598738
-0.493989
-0.903731
-1.13313
-1.20775
-1.29059
-1.36205
-1.44718
-1.5307
-1.61213
-1.69264
-1.77279
-1.85241
-1.93113
-2.00872
-2.08508
-2.16025
-0.602584
-0.59921
-0.532765
-0.914161
-1.13078
-1.2112
-1.29616
-1.37124
-1.45599
-1.54011
-1.62262
-1.70393
-1.78432
-1.86374
-1.94199
-2.01886
-2.0942
-2.16804
-0.566728
-0.589999
-0.526785
-0.996955
-1.11768
-1.2051
-1.29152
-1.37291
-1.45648
-1.54091
-1.62485
-1.70759
-1.78887
-1.86853
-1.94631
-2.02214
-2.09614
-2.16853
-0.517316
-0.553245
-0.509305
-0.968147
-1.10546
-1.19668
-1.28616
-1.36715
-1.4519
-1.53783
-1.62329
-1.7073
-1.7897
-1.8704
-1.94934
-2.02612
-2.1
-2.17095
-0.457459
-0.511586
-0.493504
-0.950232
-1.08859
-1.18546
-1.27763
-1.36006
-1.44639
-1.53406
-1.62105
-1.70629
-1.78934
-1.87041
-1.94864
-2.02393
-2.09649
-2.16417
-0.389149
-0.462256
-0.475984
-0.925246
-1.0718
-1.17374
-1.2645
-1.35044
-1.43835
-1.52736
-1.61566
-1.70234
-1.78797
-1.87309
-1.95895
-2.0426
-2.11341
-2.16175
-0.31063
-0.415844
-0.467971
-0.932708
-1.06446
-1.16688
-1.25591
-1.34398
-1.43421
-1.52491
-1.61433
-1.70206
-1.78942
-1.87924
-1.96476
-2.03125
-2.08918
-2.15808
-0.218825
-0.35688
-0.458828
-0.852195
-1.05085
-1.15095
-1.2411
-1.33215
-1.425
-1.51692
-1.60722
-1.69603
-1.78703
-1.88447
-1.96243
-2.02294
-2.07989
-2.14347
-0.12387
-0.331287
-0.484128
-0.899952
-1.05529
-1.14929
-1.2387
-1.33182
-1.42581
-1.51757
-1.60628
-1.69304
-1.77854
-1.86475
-1.95088
-2.03534
-2.10412
-2.16001
-0.0676505
-0.391131
-0.621176
-0.912764
-1.04602
-1.13592
-1.22823
-1.32489
-1.42067
-1.51312
-1.60202
-1.68876
-1.77359
-1.8578
-1.93745
-2.01426
-2.08498
-2.14972
-0.114726
-0.518029
-0.773617
-0.946532
-1.05137
-1.13958
-1.23288
-1.3291
-1.42357
-1.51469
-1.60266
-1.68822
-1.77183
-1.8533
-1.93205
-2.00699
-2.07664
-2.14264
0.187682
-0.402818
-0.704199
-0.917319
-1.03002
-1.12497
-1.22174
-1.31862
-1.41294
-1.50389
-1.59169
-1.677
-1.76018
-1.84119
-1.91913
-1.99309
-2.06326
-2.12964
0.226919
-0.302501
-0.675422
-0.79106
-0.891461
-0.990491
-1.08629
-1.17887
-1.26682
-1.34786
-1.42077
-1.48685
-1.54365
-1.59565
-1.63619
-1.68325
-1.72511
-1.85867
0.156847
-0.164052
-0.511424
-0.753609
-0.897587
-1.00126
-1.09609
-1.18844
-1.27631
-1.35727
-1.43064
-1.49681
-1.55576
-1.60778
-1.65509
-1.69752
-1.75672
-1.83872
0.0153682
-0.207166
-0.526515
-0.767106
-0.912075
-1.00982
-1.10061
-1.19264
-1.28113
-1.36293
-1.43701
-1.50502
-1.56589
-1.62266
-1.67398
-1.72824
-1.79198
-1.8859
-0.106594
-0.191292
-0.509501
-0.75492
-0.922446
-1.02195
-1.1092
-1.19996
-1.28862
-1.37091
-1.4463
-1.51564
-1.58006
-1.64031
-1.6992
-1.76032
-1.83289
-1.92546
-0.2132
-0.246123
-0.512381
-0.766197
-0.932232
-1.03119
-1.11568
-1.20543
-1.29427
-1.37745
-1.45423
-1.5259
-1.59326
-1.65795
-1.72223
-1.78974
-1.86633
-1.95635
-0.315668
-0.267229
-0.501982
-0.74796
-0.942382
-1.03671
-1.12355
-1.21369
-1.30261
-1.38669
-1.46518
-1.53889
-1.60922
-1.67779
-1.74676
-1.81896
-1.89797
-1.9871
-0.407414
-0.308215
-0.508797
-0.751062
-0.951287
-1.04631
-1.13315
-1.22269
-1.31139
-1.39623
-1.47619
-1.552
-1.62514
-1.69719
-1.77003
-1.8457
-1.92667
-2.01521
-0.491314
-0.349693
-0.520565
-0.751828
-0.959503
-1.0577
-1.14301
-1.23182
-1.32045
-1.40612
-1.48771
-1.56572
-1.64155
-1.7167
-1.79276
-1.87123
-1.9538
-2.04189
-0.567151
-0.392558
-0.539199
-0.75572
-0.972113
-1.07012
-1.15479
-1.24295
-1.33133
-1.41758
-1.50059
-1.58061
-1.65883
-1.73659
-1.81523
-1.89585
-1.97959
-2.06728
-0.634552
-0.434673
-0.561425
-0.754911
-0.985544
-1.08356
-1.16819
-1.25582
-1.34383
-1.43042
-1.51454
-1.59624
-1.67648
-1.75641
-1.83707
-1.9193
-2.00384
-2.09115
-0.695881
-0.473987
-0.595666
-0.777871
-0.999223
-1.09806
-1.1825
-1.26974
-1.35741
-1.44427
-1.52933
-1.61248
-1.69444
-1.77613
-1.8584
-1.94179
-2.02682
-2.11371
-0.746815
-0.51504
-0.638118
-0.799633
-1.01524
-1.11334
-1.19674
-1.28363
-1.37106
-1.45803
-1.54376
-1.62803
-1.71128
-1.79427
-1.87764
-1.96178
-2.047
-2.13342
-0.796673
-0.544456
-0.656745
-0.817817
-1.03601
-1.12887
-1.21282
-1.2993
-1.38655
-1.47354
-1.55958
-1.64451
-1.72864
-1.8125
-1.89656
-1.98108
-2.0662
-2.15192
-0.850787
-0.587327
-0.661147
-0.815676
-1.0613
-1.14548
-1.2275
-1.31554
-1.40367
-1.49071
-1.57683
-1.66219
-1.74702
-1.83157
-1.9161
-2.00071
-2.08544
-2.1702
-0.906057
-0.629043
-0.677166
-0.840401
-1.079
-1.16324
-1.2406
-1.33143
-1.42208
-1.50943
-1.59553
-1.68114
-1.76639
-1.85131
-1.93597
-2.02035
-2.1044
-2.18796
-0.955864
-0.66756
-0.699546
-0.874046
-1.0826
-1.17967
-1.26754
-1.35561
-1.44316
-1.52986
-1.61584
-1.70145
-1.78673
-1.87161
-1.95597
-2.03968
-2.12262
-2.20465
-0.998756
-0.702294
-0.716915
-0.882715
-1.12697
-1.20434
-1.28184
-1.3744
-1.46526
-1.55205
-1.63749
-1.72261
-1.80747
-1.8918
-1.97538
-2.05798
-2.13949
-2.21974
-1.02782
-0.72565
-0.731131
-0.897555
-1.13384
-1.21412
-1.29951
-1.39703
-1.48857
-1.57453
-1.65903
-1.74343
-1.82762
-1.9111
-1.99349
-2.07459
-2.15428
-2.23252
-1.04545
-0.737875
-0.753871
-0.982415
-1.14643
-1.22349
-1.30647
-1.40968
-1.50266
-1.58859
-1.6729
-1.75698
-1.84061
-1.92318
-2.0043
-2.08382
-2.16168
-2.23786
-1.01702
-0.735967
-0.770898
-0.991382
-1.15041
-1.23396
-1.31713
-1.4177
-1.51048
-1.59709
-1.68174
-1.76566
-1.84868
-1.93034
-2.01036
-2.08863
-2.16512
-2.23983
-0.980882
-0.703154
-0.73527
-0.914178
-1.13649
-1.2306
-1.31983
-1.41594
-1.50903
-1.59701
-1.68246
-1.76645
-1.84904
-1.93
-2.00923
-2.08685
-2.1628
-2.2369
-0.928735
-0.660086
-0.708974
-0.904488
-1.14388
-1.22974
-1.31128
-1.41065
-1.5052
-1.59389
-1.67979
-1.76379
-1.84592
-1.92606
-2.00449
-2.08142
-2.15753
-2.23276
-0.864092
-0.610251
-0.681059
-0.883753
-1.13482
-1.22382
-1.30376
-1.40535
-1.50107
-1.59065
-1.67694
-1.76064
-1.84174
-1.92037
-1.99757
-2.07629
-2.15408
-2.22681
-0.785588
-0.5555
-0.655217
-0.881719
-1.1239
-1.21753
-1.30131
-1.39869
-1.4949
-1.58589
-1.67318
-1.75693
-1.83855
-1.91771
-1.99988
-2.07742
-2.15895
-2.24633
-0.692837
-0.500825
-0.632099
-0.864082
-1.1205
-1.21393
-1.30409
-1.39896
-1.49347
-1.58494
-1.67205
-1.75502
-1.83381
-1.90901
-1.97385
-2.04109
-2.11614
-2.21641
-0.584128
-0.448917
-0.637545
-0.919481
-1.11337
-1.20928
-1.30005
-1.39458
-1.48956
-1.58135
-1.66858
-1.75137
-1.83231
-1.89847
-1.96701
-2.02988
-2.09988
-2.19081
-0.471614
-0.404574
-0.627671
-0.908827
-1.11526
-1.20657
-1.2978
-1.39487
-1.49065
-1.58221
-1.66878
-1.75121
-1.83097
-1.90979
-1.98999
-2.06394
-2.14226
-2.2229
-0.323417
-0.419927
-0.680272
-0.94916
-1.10941
-1.19871
-1.29023
-1.38884
-1.48635
-1.57881
-1.66607
-1.7486
-1.82772
-1.90306
-1.97748
-2.05471
-2.13407
-2.20878
-0.169713
-0.361337
-0.669828
-0.945113
-1.09408
-1.19555
-1.28935
-1.38729
-1.48456
-1.57684
-1.66375
-1.74607
-1.82503
-1.90087
-1.9751
-2.04818
-2.12243
-2.19569
-0.120419
-0.562265
-0.902463
-0.985091
-1.08501
-1.18303
-1.27827
-1.3767
-1.47444
-1.56714
-1.65445
-1.73702
-1.81602
-1.89181
-1.96571
-2.03816
-2.11135
-2.18378
0.397918
-0.224136
-0.592022
-0.77464
-0.894051
-1.00059
-1.10504
-1.20669
-1.303
-1.39312
-1.4767
-1.55624
-1.63006
-1.70483
-1.77514
-1.86284
-1.95741
-2.15285
0.177826
-0.263629
-0.606809
-0.791573
-0.90849
-1.01174
-1.11462
-1.21579
-1.3121
-1.4021
-1.48617
-1.56546
-1.64124
-1.71479
-1.79094
-1.87026
-1.9775
-2.10654
0.0921892
-0.264578
-0.591017
-0.790089
-0.912803
-1.01494
-1.1166
-1.21827
-1.31536
-1.40642
-1.49115
-1.57183
-1.64862
-1.72547
-1.80278
-1.88923
-1.99111
-2.1219
-0.0241847
-0.308608
-0.605695
-0.805144
-0.930349
-1.02939
-1.12772
-1.22753
-1.32436
-1.41549
-1.50105
-1.58242
-1.66142
-1.73995
-1.8216
-1.91017
-2.01349
-2.13581
-0.119618
-0.348185
-0.611581
-0.808245
-0.938899
-1.038
-1.13381
-1.23249
-1.32962
-1.42174
-1.5084
-1.59121
-1.672
-1.7531
-1.83735
-1.92826
-2.03047
-2.14576
-0.210968
-0.39416
-0.625597
-0.816081
-0.952015
-1.0522
-1.14622
-1.24304
-1.33951
-1.43195
-1.51954
-1.60359
-1.68606
-1.76922
-1.85553
-1.94773
-2.04853
-2.1595
-0.291623
-0.441348
-0.644392
-0.825663
-0.964276
-1.06582
-1.15836
-1.2531
-1.34873
-1.44157
-1.53025
-1.61562
-1.6997
-1.78462
-1.87254
-1.96544
-2.06515
-2.17276
-0.366756
-0.491253
-0.668859
-0.838776
-0.977606
-1.08031
-1.17206
-1.26519
-1.35988
-1.45284
-1.54238
-1.62906
-1.71461
-1.80102
-1.89012
-1.98338
-2.08209
-2.18681
-0.435429
-0.540578
-0.696671
-0.854441
-0.991861
-1.0952
-1.18665
-1.27845
-1.37209
-1.46502
-1.55538
-1.64325
-1.73009
-1.81766
-1.90754
-2.00088
-2.09851
-2.20074
-0.499102
-0.589848
-0.727975
-0.87252
-1.00725
-1.11074
-1.20222
-1.29313
-1.38581
-1.47849
-1.56936
-1.65818
-1.74608
-1.83453
-1.92488
-2.01801
-2.11447
-2.21438
-0.557493
-0.637986
-0.761323
-0.893833
-1.02341
-1.1266
-1.21821
-1.30863
-1.40055
-1.49287
-1.58401
-1.67358
-1.76231
-1.85139
-1.94192
-2.03459
-2.12979
-2.22748
-0.6068
-0.680483
-0.79262
-0.916144
-1.0404
-1.14203
-1.23343
-1.3236
-1.41498
-1.50689
-1.59808
-1.68806
-1.77731
-1.86675
-1.95723
-2.0493
-2.14323
-2.23893
-0.652341
-0.718391
-0.822508
-0.940171
-1.06017
-1.15866
-1.24919
-1.3391
-1.43005
-1.5215
-1.61251
-1.70267
-1.79223
-1.88181
-1.97206
-2.06338
-2.15597
-2.2497
-0.700353
-0.759189
-0.853794
-0.965076
-1.08411
-1.17834
-1.26742
-1.3571
-1.44768
-1.53857
-1.62921
-1.7193
-1.80892
-1.89841
-1.98819
-2.0785
-2.16946
-2.26095
-0.749025
-0.800923
-0.887456
-0.995025
-1.10914
-1.20017
-1.28773
-1.37725
-1.46749
-1.5578
-1.64791
-1.73766
-1.82703
-1.91613
-2.00513
-2.09415
-2.18322
-2.27221
-0.796083
-0.843509
-0.922839
-1.02885
-1.13525
-1.22435
-1.31117
-1.39954
-1.48904
-1.57871
-1.66814
-1.75725
-1.84599
-1.93431
-2.02221
-2.10966
-2.19662
-2.28297
-0.838049
-0.88232
-0.954965
-1.05844
-1.16574
-1.25026
-1.33444
-1.42219
-1.51132
-1.60025
-1.68877
-1.77694
-1.86472
-1.95195
-2.03847
-2.12414
-2.20888
-2.29258
-0.868785
-0.911089
-0.980335
-1.08234
-1.19009
-1.27383
-1.35738
-1.44476
-1.53327
-1.6212
-1.70857
-1.79558
-1.88218
-1.96808
-2.05301
-2.13677
-2.21927
-2.30042
-0.879644
-0.923738
-0.997927
-1.1043
-1.20027
-1.28513
-1.3705
-1.45918
-1.54776
-1.6352
-1.72189
-1.8081
-1.89368
-1.97829
-2.06165
-2.14359
-2.22401
-2.30281
-0.860519
-0.908957
-0.990503
-1.09911
-1.19782
-1.28578
-1.37274
-1.46194
-1.55112
-1.63914
-1.72613
-1.81223
-1.89733
-1.98118
-2.06356
-2.14433
-2.22341
-2.30072
-0.827142
-0.880752
-0.963729
-1.07628
-1.19009
-1.28154
-1.36924
-1.45863
-1.54859
-1.63758
-1.72525
-1.8116
-1.89661
-1.98015
-2.06213
-2.14239
-2.22076
-2.29717
-0.779908
-0.840373
-0.935361
-1.05747
-1.17587
-1.26987
-1.35961
-1.45072
-1.54201
-1.63211
-1.72061
-1.80741
-1.89253
-1.97598
-2.05769
-2.13759
-2.21556
-2.29146
-0.721778
-0.793285
-0.902375
-1.03442
-1.16068
-1.2589
-1.35029
-1.44269
-1.53534
-1.62681
-1.71638
-1.80383
-1.88926
-1.97281
-2.05441
-2.134
-2.2115
-2.28683
-0.651375
-0.738102
-0.867452
-1.01374
-1.14676
-1.24694
-1.33857
-1.43183
-1.52597
-1.61889
-1.70935
-1.79717
-1.88273
-1.96628
-2.04798
-2.12785
-2.20523
-2.28029
-0.573285
-0.683946
-0.838778
-0.998728
-1.13787
-1.23919
-1.33153
-1.42587
-1.52193
-1.61655
-1.70783
-1.79577
-1.88115
-1.96442
-2.04586
-2.12598
-2.20415
-2.27921
-0.479364
-0.621956
-0.812473
-0.989093
-1.12201
-1.22238
-1.31617
-1.41296
-1.51119
-1.60725
-1.69932
-1.78777
-1.87355
-1.95678
-2.03842
-2.11813
-2.19609
-2.27146
-0.385388
-0.577336
-0.806351
-0.991451
-1.12201
-1.22005
-1.31516
-1.41441
-1.51386
-1.60965
-1.70108
-1.78899
-1.87434
-1.95767
-2.03913
-2.11865
-2.19514
-2.26917
-0.250513
-0.50781
-0.779331
-0.973822
-1.10076
-1.20137
-1.30117
-1.40383
-1.50522
-1.60222
-1.69437
-1.78267
-1.86821
-1.95138
-2.03239
-2.11133
-2.1882
-2.26275
-0.181026
-0.508673
-0.803195
-0.983168
-1.10107
-1.20271
-1.30467
-1.40773
-1.50834
-1.60434
-1.69575
-1.78358
-1.86878
-1.95169
-2.03249
-2.11086
-2.1869
-2.26028
0.0694342
-0.451431
-0.783004
-0.963024
-1.08371
-1.18972
-1.29433
-1.39839
-1.4993
-1.59547
-1.68705
-1.775
-1.86028
-1.94317
-2.0239
-2.10211
-2.17795
-2.25045
0.378332
-0.264569
-0.629264
-0.797538
-0.904766
-1.00537
-1.10815
-1.20937
-1.3051
-1.39476
-1.47846
-1.55896
-1.63498
-1.71224
-1.78527
-1.87442
-1.96724
-2.1576
0.16891
-0.295137
-0.633593
-0.808899
-0.916533
-1.01471
-1.11615
-1.21697
-1.31276
-1.40234
-1.48656
-1.56684
-1.64474
-1.72081
-1.79968
-1.88042
-1.98647
-2.11059
0.0774178
-0.297984
-0.620434
-0.808876
-0.92202
-1.01952
-1.12
-1.22102
-1.3173
-1.40765
-1.49236
-1.57395
-1.65261
-1.73186
-1.8115
-1.89935
-2.00069
-2.12974
-0.0322552
-0.337566
-0.6301
-0.820296
-0.937147
-1.03293
-1.13082
-1.23053
-1.32681
-1.41734
-1.50286
-1.58499
-1.66571
-1.74637
-1.8302
-1.9204
-2.02447
-2.14784
-0.12918
-0.3782
-0.635956
-0.822874
-0.945314
-1.04219
-1.13832
-1.23689
-1.33322
-1.42453
-1.51099
-1.59446
-1.67676
-1.75983
-1.84623
-1.93909
-2.04309
-2.16072
-0.21779
-0.423943
-0.649433
-0.829766
-0.956679
-1.05563
-1.15034
-1.24721
-1.34313
-1.43493
-1.52234
-1.60696
-1.69082
-1.77588
-1.86437
-1.95884
-2.06208
-2.17614
-0.298326
-0.472743
-0.669156
-0.839217
-0.968006
-1.06909
-1.1629
-1.25798
-1.3531
-1.44522
-1.53356
-1.61937
-1.70468
-1.79141
-1.88151
-1.97687
-2.0794
-2.19049
-0.372128
-0.523164
-0.694227
-0.851782
-0.97994
-1.08292
-1.17655
-1.27018
-1.36437
-1.45665
-1.54589
-1.63293
-1.71961
-1.80774
-1.899
-1.99483
-2.09655
-2.20496
-0.440126
-0.573698
-0.723362
-0.867684
-0.993037
-1.09723
-1.19115
-1.28373
-1.37696
-1.46918
-1.55915
-1.6473
-1.73514
-1.82434
-1.91634
-2.01224
-2.11293
-2.21883
-0.502796
-0.623413
-0.755503
-0.886976
-1.00786
-1.11225
-1.20661
-1.29852
-1.39084
-1.4828
-1.57327
-1.66232
-1.75112
-1.84108
-1.93346
-2.02908
-2.12855
-2.23201
-0.560626
-0.671685
-0.789586
-0.909233
-1.02463
-1.12813
-1.22274
-1.31428
-1.40584
-1.49742
-1.58814
-1.67786
-1.76738
-1.85784
-1.95028
-2.04532
-2.14337
-2.24442
-0.609581
-0.714257
-0.821857
-0.931941
-1.04179
-1.14352
-1.23802
-1.32939
-1.42043
-1.51161
-1.60237
-1.69247
-1.78242
-1.87309
-1.96533
-2.05961
-2.15621
-2.25502
-0.655019
-0.754619
-0.854074
-0.955863
-1.06015
-1.1595
-1.25352
-1.34475
-1.43542
-1.52621
-1.61685
-1.70712
-1.7973
-1.88799
-1.97983
-2.0732
-2.16826
-2.26485
-0.702821
-0.797823
-0.890182
-0.984168
-1.08247
-1.17866
-1.27168
-1.36265
-1.45298
-1.54335
-1.63373
-1.72394
-1.81411
-1.90457
-1.99576
-2.08791
-2.18111
-2.27519
-0.75147
-0.842689
-0.929204
-1.01613
-1.10863
-1.20123
-1.2927
-1.38312
-1.47307
-1.56298
-1.65294
-1.74283
-1.83267
-1.9226
-2.01282
-2.10345
-2.19451
-2.2858
-0.798786
-0.887286
-0.969217
-1.05052
-1.13776
-1.22668
-1.31616
-1.40573
-1.49518
-1.58458
-1.67397
-1.76329
-1.85247
-1.9415
-2.03043
-2.11925
-2.20793
-2.29626
-0.841212
-0.928078
-1.0068
-1.08423
-1.16775
-1.25346
-1.34097
-1.42946
-1.51828
-1.60708
-1.69578
-1.78428
-1.87251
-1.96034
-2.04769
-2.13449
-2.22065
-2.30601
-0.873296
-0.959787
-1.03705
-1.11268
-1.19423
-1.27816
-1.36446
-1.45218
-1.54039
-1.62858
-1.71653
-1.80412
-1.89123
-1.97767
-2.0633
-2.14799
-2.23163
-2.31409
-0.886269
-0.974209
-1.05319
-1.12902
-1.20955
-1.29429
-1.38138
-1.46936
-1.55747
-1.64535
-1.73278
-1.81963
-1.9057
-1.99079
-2.07474
-2.15741
-2.23869
-2.31849
-0.868479
-0.95927
-1.04234
-1.12276
-1.20768
-1.29571
-1.38491
-1.47411
-1.56298
-1.65133
-1.739
-1.82577
-1.91141
-1.99573
-2.07859
-2.15991
-2.23963
-2.31768
-0.835945
-0.93007
-1.01907
-1.10736
-1.19891
-1.29038
-1.38142
-1.47192
-1.56185
-1.65112
-1.73949
-1.82662
-1.91225
-1.99625
-2.07855
-2.15911
-2.23789
-2.31486
-0.790206
-0.889577
-0.987395
-1.08505
-1.18456
-1.28109
-1.37449
-1.46608
-1.55703
-1.64742
-1.73669
-1.82433
-1.91007
-1.99388
-2.07577
-2.15579
-2.23391
-2.3101
-0.733017
-0.840552
-0.95119
-1.0617
-1.17039
-1.27132
-1.36634
-1.45897
-1.55125
-1.64306
-1.73341
-1.82162
-1.90753
-1.99125
-2.0729
-2.15257
-2.23025
-2.3059
-0.665404
-0.785598
-0.914027
-1.03982
-1.15689
-1.26036
-1.35587
-1.44948
-1.54336
-1.63663
-1.72785
-1.81636
-1.90225
-1.98576
-2.06716
-2.14651
-2.2239
-2.29916
-0.587572
-0.727678
-0.88117
-1.02495
-1.14835
-1.25229
-1.34798
-1.44324
-1.53928
-1.6341
-1.72601
-1.8147
-1.90065
-1.98427
-2.06573
-2.1449
-2.22166
-2.29609
-0.499616
-0.667251
-0.851132
-1.0108
-1.13622
-1.23829
-1.33425
-1.43186
-1.53018
-1.6262
-1.71851
-1.80737
-1.89348
-1.97724
-2.05863
-2.13773
-2.2146
-2.2892
-0.402667
-0.617612
-0.841255
-1.01416
-1.13614
-1.23444
-1.33092
-1.43067
-1.53033
-1.62656
-1.71863
-1.80725
-1.89322
-1.97677
-2.05802
-2.13696
-2.21349
-2.28763
-0.281311
-0.554867
-0.819782
-1.00137
-1.1202
-1.21879
-1.31872
-1.4214
-1.52243
-1.61918
-1.71156
-1.80047
-1.88665
-1.97038
-2.05173
-2.13066
-2.20713
-2.2815
-0.201032
-0.549077
-0.838384
-1.00913
-1.11907
-1.21721
-1.31883
-1.42208
-1.52279
-1.61913
-1.7113
-1.80013
-1.88631
-1.96999
-2.05119
-2.12972
-2.20582
-2.27933
0.0289016
-0.507999
-0.836654
-1.00036
-1.10762
-1.20847
-1.31248
-1.41668
-1.51767
-1.61417
-1.70651
-1.79547
-1.88173
-1.96539
-2.0466
-2.12501
-2.20088
-2.27344
0.385376
-0.258847
-0.619026
-0.781714
-0.884143
-0.980623
-1.07913
-1.17489
-1.2632
-1.34287
-1.41343
-1.47673
-1.53091
-1.58063
-1.62082
-1.6713
-1.72277
-1.87125
0.176339
-0.289092
-0.622856
-0.792893
-0.895877
-0.990001
-1.0872
-1.18261
-1.27108
-1.35082
-1.42213
-1.4856
-1.54216
-1.59155
-1.63864
-1.68255
-1.74951
-1.83737
0.0847306
-0.291974
-0.609928
-0.793006
-0.901465
-0.994962
-1.09127
-1.18696
-1.27605
-1.35679
-1.42893
-1.49428
-1.55247
-1.60654
-1.6565
-1.71117
-1.77828
-1.87737
-0.0246347
-0.33132
-0.619239
-0.804202
-0.916476
-1.00842
-1.10226
-1.19674
-1.28596
-1.36713
-1.44051
-1.50712
-1.5684
-1.62549
-1.68196
-1.74236
-1.8164
-1.9135
-0.121504
-0.371905
-0.625058
-0.806731
-0.924596
-1.0178
-1.11
-1.20347
-1.29293
-1.37518
-1.44999
-1.51869
-1.58269
-1.64385
-1.70523
-1.77124
-1.84858
-1.9421
-0.209996
-0.417526
-0.638331
-0.813425
-0.935823
-1.03126
-1.12224
-1.21417
-1.30343
-1.38651
-1.4628
-1.53349
-1.60027
-1.66512
-1.7308
-1.80105
-1.88027
-1.97214
-0.290511
-0.466283
-0.657974
-0.822801
-0.947032
-1.04478
-1.13508
-1.22545
-1.31414
-1.39789
-1.47569
-1.54846
-1.61797
-1.6862
-1.7556
-1.82906
-1.90983
-2.0006
-0.364342
-0.516682
-0.682974
-0.835275
-0.958813
-1.05864
-1.14901
-1.23816
-1.32621
-1.41053
-1.48985
-1.56478
-1.63695
-1.70825
-1.78081
-1.85688
-1.93889
-2.02869
-0.432439
-0.567273
-0.712113
-0.8511
-0.971772
-1.07299
-1.16393
-1.25231
-1.33971
-1.42442
-1.50511
-1.58208
-1.65672
-1.73072
-1.8059
-1.88402
-1.96688
-2.05575
-0.495263
-0.617106
-0.74429
-0.870293
-0.98645
-1.08807
-1.17973
-1.26774
-1.35458
-1.43949
-1.52135
-1.60017
-1.67702
-1.75335
-1.83069
-1.91041
-1.9938
-2.08171
-0.553316
-0.665527
-0.778436
-0.892466
-1.00309
-1.10401
-1.19622
-1.28419
-1.37064
-1.45566
-1.53846
-1.61888
-1.69767
-1.77598
-1.85506
-1.93596
-2.01961
-2.10656
-0.602541
-0.708205
-0.810777
-0.915061
-1.02014
-1.1195
-1.21189
-1.3
-1.38629
-1.47137
-1.55483
-1.63646
-1.71674
-1.79654
-1.87686
-1.95852
-2.04221
-2.12825
-0.648131
-0.748774
-0.843066
-0.93887
-1.03839
-1.13562
-1.22785
-1.31613
-1.40241
-1.48757
-1.57153
-1.65412
-1.73561
-1.81661
-1.89789
-1.98006
-2.06362
-2.14875
-0.696065
-0.792323
-0.879275
-0.967076
-1.06058
-1.15498
-1.24657
-1.33494
-1.42131
-1.50659
-1.59098
-1.67438
-1.75691
-1.83894
-1.92097
-2.00343
-2.08665
-2.17072
-0.745151
-0.837758
-0.9184
-0.999002
-1.08677
-1.17785
-1.26825
-1.35648
-1.44295
-1.52839
-1.61311
-1.69712
-1.78043
-1.86318
-1.94568
-2.02814
-2.11078
-2.1936
-0.793112
-0.882969
-0.958705
-1.03342
-1.11609
-1.20377
-1.29257
-1.38035
-1.46686
-1.55245
-1.63742
-1.72179
-1.80554
-1.88865
-1.97124
-2.05339
-2.13518
-2.21657
-0.836409
-0.924572
-0.997076
-1.06774
-1.14644
-1.23124
-1.31842
-1.40558
-1.492
-1.57771
-1.66281
-1.74732
-1.83116
-1.91424
-1.99654
-2.07803
-2.15873
-2.23857
-0.869566
-0.957323
-1.02848
-1.0973
-1.1739
-1.25706
-1.34322
-1.42997
-1.51635
-1.60214
-1.68732
-1.77181
-1.85549
-1.93822
-2.01991
-2.10049
-2.17993
-2.25815
-0.883672
-0.97269
-1.04521
-1.11501
-1.19231
-1.27588
-1.36244
-1.44956
-1.53626
-1.62232
-1.70767
-1.79216
-1.87562
-1.95787
-2.03879
-2.11831
-2.19639
-2.27297
-0.867656
-0.959538
-1.03627
-1.11086
-1.19242
-1.27935
-1.36816
-1.45666
-1.5443
-1.63111
-1.71702
-1.80184
-1.88535
-1.96735
-2.04773
-2.12647
-2.20354
-2.27892
-0.836617
-0.932045
-1.01494
-1.09641
-1.18392
-1.275
-1.3662
-1.45616
-1.54493
-1.63273
-1.71948
-1.80487
-1.88862
-1.97059
-2.05072
-2.12902
-2.20548
-2.28012
-0.791879
-0.892475
-0.984172
-1.07542
-1.17109
-1.26704
-1.36054
-1.45166
-1.5415
-1.63047
-1.71821
-1.80421
-1.88822
-1.97016
-2.05008
-2.12803
-2.20405
-2.27815
-0.735623
-0.844205
-0.948965
-1.05337
-1.15818
-1.25843
-1.35348
-1.44559
-1.53675
-1.62715
-1.716
-1.80263
-1.88686
-1.9688
-2.04864
-2.12646
-2.20219
-2.27587
-0.668862
-0.789923
-0.912607
-1.03282
-1.14596
-1.24859
-1.34402
-1.43702
-1.52974
-1.62161
-1.71137
-1.79835
-1.8826
-1.9644
-2.04398
-2.12152
-2.19705
-2.27056
-0.591841
-0.732664
-0.880608
-1.01891
-1.13848
-1.24142
-1.33682
-1.43138
-1.52625
-1.61967
-1.71012
-1.79729
-1.88161
-1.96355
-2.04322
-2.12059
-2.19562
-2.26842
-0.505031
-0.673291
-0.851652
-1.00583
-1.12774
-1.22849
-1.32383
-1.4206
-1.51772
-1.61236
-1.70322
-1.79055
-1.875
-1.95701
-2.03669
-2.11408
-2.18923
-2.2622
-0.408931
-0.624265
-0.842174
-1.00977
-1.12833
-1.22514
-1.32079
-1.41963
-1.51809
-1.61297
-1.70362
-1.79073
-1.87506
-1.9569
-2.03637
-2.11352
-2.18837
-2.26093
-0.289579
-0.563209
-0.822293
-0.998124
-1.11327
-1.21004
-1.30893
-1.41064
-1.5105
-1.60592
-1.6969
-1.78434
-1.86895
-1.951
-2.03059
-2.1077
-2.1825
-2.25527
-0.209644
-0.557464
-0.840326
-1.00555
-1.11198
-1.20834
-1.30892
-1.41122
-1.51078
-1.60578
-1.69652
-1.78383
-1.86836
-1.95029
-2.02975
-2.10656
-2.18093
-2.25276
0.0173753
-0.517738
-0.840359
-0.997616
-1.10089
-1.19984
-1.30286
-1.40614
-1.506
-1.6012
-1.69215
-1.77964
-1.86432
-1.94632
-2.02584
-2.10257
-2.17679
-2.24775
0.40993
-0.232102
-0.589687
-0.749576
-0.849011
-0.94216
-1.03694
-1.12855
-1.21234
-1.28711
-1.35254
-1.41013
-1.45828
-1.50034
-1.53157
-1.56825
-1.6033
-1.72718
0.200972
-0.262364
-0.593536
-0.760768
-0.86077
-0.951581
-1.04507
-1.13635
-1.22032
-1.29519
-1.36134
-1.41921
-1.46966
-1.5118
-1.5498
-1.5817
-1.63287
-1.70546
0.10937
-0.265246
-0.580616
-0.760912
-0.866396
-0.956597
-1.04922
-1.14081
-1.22543
-1.30133
-1.36837
-1.42817
-1.48038
-1.52741
-1.56888
-1.61279
-1.66718
-1.75317
0.00010587
-0.304608
-0.589955
-0.772126
-0.881451
-0.970127
-1.06031
-1.15073
-1.23551
-1.3119
-1.38022
-1.44139
-1.49678
-1.54719
-1.59579
-1.64673
-1.70984
-1.79566
-0.0967544
-0.345206
-0.595836
-0.77472
-0.889631
-0.979588
-1.06818
-1.15763
-1.2427
-1.32024
-1.39004
-1.45341
-1.51168
-1.56652
-1.62067
-1.6783
-1.74613
-1.82968
-0.1852
-0.390836
-0.609147
-0.781464
-0.900931
-0.993164
-1.08057
-1.16854
-1.25347
-1.3319
-1.40328
-1.46876
-1.52999
-1.58884
-1.64787
-1.71061
-1.78141
-1.86426
-0.265659
-0.439595
-0.628839
-0.790915
-0.912238
-1.00682
-1.09361
-1.18007
-1.2645
-1.34369
-1.41667
-1.48438
-1.54854
-1.61109
-1.67433
-1.74101
-1.81424
-1.89679
-0.339448
-0.490008
-0.653898
-0.803481
-0.924136
-1.02084
-1.10776
-1.19309
-1.27696
-1.35681
-1.43142
-1.50144
-1.56847
-1.63438
-1.70121
-1.77108
-1.84628
-1.92858
-0.407521
-0.540616
-0.683099
-0.819418
-0.937243
-1.0354
-1.12296
-1.20759
-1.29091
-1.37125
-1.44737
-1.5196
-1.5893
-1.65817
-1.72798
-1.8004
-1.87707
-1.95914
-0.470325
-0.590474
-0.715337
-0.838739
-0.952099
-1.05071
-1.13906
-1.22342
-1.30629
-1.38696
-1.46439
-1.53863
-1.61076
-1.68222
-1.75451
-1.82892
-1.90666
-1.98842
-0.528348
-0.638931
-0.749563
-0.861064
-0.968954
-1.06693
-1.15592
-1.24034
-1.32294
-1.40385
-1.48237
-1.55839
-1.63267
-1.70635
-1.78067
-1.85662
-1.93508
-2.01646
-0.577555
-0.681658
-0.781998
-0.88383
-0.986226
-1.08272
-1.17197
-1.25663
-1.33919
-1.4203
-1.49963
-1.57702
-1.65298
-1.72837
-1.80418
-1.8812
-1.96005
-2.041
-0.623105
-0.722277
-0.814401
-0.907815
-1.00471
-1.09917
-1.18835
-1.27329
-1.35595
-1.43729
-1.51727
-1.5958
-1.67315
-1.74996
-1.82697
-1.90477
-1.98383
-2.06428
-0.670951
-0.765885
-0.850767
-0.936269
-1.02723
-1.11895
-1.20761
-1.29277
-1.37567
-1.45729
-1.53789
-1.61742
-1.69603
-1.7741
-1.85213
-1.93053
-2.0096
-2.08941
-0.719997
-0.81139
-0.890112
-0.968557
-1.05386
-1.14236
-1.22996
-1.31514
-1.39833
-1.48031
-1.56145
-1.6418
-1.72143
-1.80048
-1.87926
-1.95799
-2.03686
-2.11585
-0.768159
-0.856769
-0.930724
-1.00342
-1.08373
-1.16899
-1.25514
-1.34006
-1.42349
-1.50585
-1.58746
-1.66843
-1.74875
-1.82844
-1.90761
-1.98636
-2.06475
-2.14273
-0.811855
-0.898795
-0.969556
-1.03838
-1.11477
-1.19726
-1.282
-1.36652
-1.45011
-1.53281
-1.61481
-1.69618
-1.77686
-1.85681
-1.936
-2.01442
-2.09208
-2.16889
-0.845787
-0.932383
-1.00183
-1.0687
-1.14319
-1.22419
-1.30808
-1.3924
-1.47617
-1.55921
-1.64154
-1.72315
-1.80396
-1.88384
-1.96272
-2.04053
-2.11724
-2.19277
-0.861063
-0.948851
-1.01969
-1.08767
-1.16297
-1.24446
-1.32885
-1.41368
-1.49796
-1.5815
-1.66425
-1.74612
-1.82696
-1.90663
-1.98501
-2.06204
-2.13767
-2.21183
-0.846334
-0.937035
-1.01216
-1.08479
-1.1644
-1.24924
-1.3359
-1.42219
-1.50754
-1.59196
-1.67544
-1.7578
-1.83884
-1.91841
-1.99642
-2.07282
-2.14761
-2.22075
-0.816492
-0.910644
-0.991663
-1.07097
-1.1566
-1.24571
-1.33491
-1.42273
-1.50926
-1.59477
-1.67917
-1.76218
-1.84355
-1.92317
-2.001
-2.07704
-2.15131
-2.2238
-0.772974
-0.87217
-0.961891
-1.05089
-1.14442
-1.23834
-1.32981
-1.4189
-1.50661
-1.59333
-1.67877
-1.76247
-1.84415
-1.92381
-2.00147
-2.07723
-2.15109
-2.22308
-0.717756
-0.824734
-0.927462
-1.0297
-1.13211
-1.23019
-1.3232
-1.41328
-1.50234
-1.59055
-1.67716
-1.76153
-1.8435
-1.92318
-2.00078
-2.07639
-2.15001
-2.22162
-0.652064
-0.771284
-0.891587
-1.00931
-1.12032
-1.22095
-1.31432
-1.40525
-1.49582
-1.58548
-1.673
-1.75774
-1.83977
-1.91933
-1.99672
-2.07209
-2.14547
-2.2169
-0.575999
-0.714794
-0.860018
-0.99558
-1.11302
-1.214
-1.30739
-1.39987
-1.49258
-1.58381
-1.67204
-1.75698
-1.83909
-1.91882
-1.99627
-2.07148
-2.1444
-2.21511
-0.490189
-0.656185
-0.831623
-0.983087
-1.10246
-1.20119
-1.29458
-1.38927
-1.48423
-1.57667
-1.66534
-1.75046
-1.8327
-1.9125
-1.99
-2.06523
-2.13824
-2.20913
-0.395145
-0.607583
-0.822152
-0.986856
-1.10316
-1.19797
-1.29166
-1.38842
-1.48473
-1.57742
-1.66587
-1.75078
-1.83292
-1.91257
-1.98984
-2.06481
-2.13754
-2.20801
-0.277086
-0.547187
-0.802422
-0.975327
-1.08826
-1.18304
-1.27992
-1.37953