/*--------------------------------*- C++ -*----------------------------------*\
| =========                 |                                                 |
| \\      /  F ield         | OpenFOAM: The Open Source CFD Toolbox           |
|  \\    /   O peration     | Version:  2112                                  |
|   \\  /    A nd           | Website:  www.openfoam.com                      |
|    \\/     M anipulation  |                                                 |
\*---------------------------------------------------------------------------*/
FoamFile
{
    version     2.0;
    format      ascii;
    arch        "LSB;label=32;scalar=64";
    class       surfaceScalarField;
    location    "0.11";
    object      phi_0;
}
// * * * * * * * * * * * * * * * * * * * * * * * * * * * * * * * * * * * * * //

dimensions      [0 3 -1 0 0 0 0];

oriented        oriented;

internalField   nonuniform List<scalar> 
24170
(
3.10568e-06
8.27276e-08
3e-06
1.05682e-07
2.89242e-06
1.07573e-07
2.78407e-06
1.0835e-07
2.67915e-06
1.04927e-07
2.58131e-06
9.78367e-08
2.49187e-06
8.94397e-08
2.41103e-06
8.08417e-08
2.33849e-06
7.25386e-08
2.27379e-06
6.47028e-08
2.21609e-06
5.76962e-08
2.16501e-06
5.1077e-08
2.11953e-06
4.54883e-08
2.07945e-06
4.00733e-08
2.04401e-06
3.54409e-08
2.01245e-06
3.15652e-08
1.98715e-06
2.52938e-08
2.55667e-08
1.96159e-06
3.43194e-06
6.80331e-08
3.43683e-06
1.00795e-07
3.43568e-06
1.08724e-07
3.42944e-06
1.1459e-07
3.41753e-06
1.16837e-07
3.40087e-06
1.14497e-07
3.38091e-06
1.09403e-07
3.35873e-06
1.03013e-07
3.33524e-06
9.60368e-08
3.31117e-06
8.87668e-08
3.28706e-06
8.18064e-08
3.26333e-06
7.48072e-08
3.24018e-06
6.86359e-08
3.21795e-06
6.23037e-08
3.19648e-06
5.69179e-08
3.17651e-06
5.15349e-08
3.15618e-06
4.56222e-08
4.29763e-08
3.13877e-06
3.67308e-06
5.74724e-08
3.68114e-06
9.27294e-08
3.68634e-06
1.03532e-07
3.69067e-06
1.10255e-07
3.69414e-06
1.13362e-07
3.69636e-06
1.12279e-07
3.69734e-06
1.08424e-07
3.69719e-06
1.03164e-07
3.69604e-06
9.71843e-08
3.69398e-06
9.08296e-08
3.69126e-06
8.45271e-08
3.68786e-06
7.82094e-08
3.68412e-06
7.23762e-08
3.67986e-06
6.65614e-08
3.67548e-06
6.12977e-08
3.67083e-06
5.61858e-08
3.66524e-06
5.12075e-08
4.70441e-08
3.66118e-06
3.93424e-06
4.86165e-08
3.94236e-06
8.46185e-08
3.94817e-06
9.7717e-08
3.95326e-06
1.05164e-07
3.95795e-06
1.08675e-07
3.96205e-06
1.08179e-07
3.96548e-06
1.04993e-07
3.96832e-06
1.00322e-07
3.97065e-06
9.48582e-08
3.97248e-06
8.90009e-08
3.97393e-06
8.30773e-08
3.97496e-06
7.71808e-08
3.97575e-06
7.15855e-08
3.97617e-06
6.61396e-08
3.9764e-06
6.10627e-08
3.97631e-06
5.62772e-08
3.97583e-06
5.16939e-08
4.77042e-08
3.97517e-06
4.2149e-06
4.08428e-08
4.22309e-06
7.6428e-08
4.22932e-06
9.14871e-08
4.23474e-06
9.97403e-08
4.23977e-06
1.0365e-07
4.24432e-06
1.03631e-07
4.2483e-06
1.01006e-07
4.25182e-06
9.68062e-08
4.2549e-06
9.17762e-08
4.2576e-06
8.63035e-08
4.25997e-06
8.07062e-08
4.26202e-06
7.51324e-08
4.26383e-06
6.97706e-08
4.26537e-06
6.46032e-08
4.26669e-06
5.97462e-08
4.26775e-06
5.52133e-08
4.26845e-06
5.09895e-08
4.73671e-08
4.26879e-06
4.51585e-06
3.40791e-08
4.52406e-06
6.82217e-08
4.53086e-06
8.46883e-08
4.53672e-06
9.38788e-08
4.5421e-06
9.82671e-08
4.54698e-06
9.87484e-08
4.55134e-06
9.66492e-08
4.55524e-06
9.29028e-08
4.55872e-06
8.82989e-08
4.56184e-06
8.31875e-08
4.56463e-06
7.79149e-08
4.56712e-06
7.26382e-08
4.56937e-06
6.7522e-08
4.57137e-06
6.26067e-08
4.57314e-06
5.79766e-08
4.57467e-06
5.36842e-08
4.5759e-06
4.97603e-08
4.6401e-08
4.57686e-06
4.83848e-06
2.8318e-08
4.84639e-06
6.03077e-08
4.85369e-06
7.7398e-08
4.86023e-06
8.7336e-08
4.86619e-06
9.23e-08
4.87151e-06
9.343e-08
4.87627e-06
9.18927e-08
4.88053e-06
8.86472e-08
4.88435e-06
8.44761e-08
4.8878e-06
7.97333e-08
4.89092e-06
7.47975e-08
4.89374e-06
6.98188e-08
4.8963e-06
6.49615e-08
4.89861e-06
6.0295e-08
4.90069e-06
5.58949e-08
4.90254e-06
5.18326e-08
4.90415e-06
4.81527e-08
4.49866e-08
4.90557e-06
5.18445e-06
2.34491e-08
5.19178e-06
5.29815e-08
5.1992e-06
6.99768e-08
5.20634e-06
8.01972e-08
5.21303e-06
8.56013e-08
5.21909e-06
8.73785e-08
5.22445e-06
8.65254e-08
5.22916e-06
8.39391e-08
5.23337e-06
8.02687e-08
5.23716e-06
7.59444e-08
5.24059e-06
7.13662e-08
5.24371e-06
6.66942e-08
5.24656e-06
6.21114e-08
5.24916e-06
5.76995e-08
5.25152e-06
5.353e-08
5.25367e-06
4.96882e-08
5.25561e-06
4.62161e-08
4.31978e-08
5.25739e-06
5.55543e-06
1.93573e-08
5.56207e-06
4.6337e-08
5.56932e-06
6.27271e-08
5.57672e-06
7.2797e-08
5.58396e-06
7.83656e-08
5.59076e-06
8.05777e-08
5.59694e-06
8.03498e-08
5.60241e-06
7.84692e-08
5.60723e-06
7.54444e-08
5.61148e-06
7.16981e-08
5.61528e-06
6.75658e-08
5.61872e-06
6.3248e-08
5.62187e-06
5.89681e-08
5.62475e-06
5.48155e-08
5.6274e-06
5.0878e-08
5.62984e-06
4.72519e-08
5.63209e-06
4.39626e-08
4.10643e-08
5.63423e-06
5.95316e-06
1.59711e-08
5.95916e-06
4.03368e-08
5.96611e-06
5.57767e-08
5.97352e-06
6.53907e-08
5.98101e-06
7.08763e-08
5.98828e-06
7.33052e-08
5.99512e-06
7.35131e-08
6.0014e-06
7.21856e-08
6.00706e-06
6.97848e-08
6.01208e-06
6.66835e-08
6.01651e-06
6.31344e-08
6.02042e-06
5.93303e-08
6.02393e-06
5.54601e-08
6.02714e-06
5.16105e-08
6.03009e-06
4.79291e-08
6.03283e-06
4.45114e-08
6.0354e-06
4.1388e-08
3.85993e-08
6.03787e-06
6.37957e-06
1.32166e-08
6.38502e-06
3.48861e-08
6.39164e-06
4.9158e-08
6.39891e-06
5.8112e-08
6.40646e-06
6.33304e-08
6.41395e-06
6.58109e-08
6.42118e-06
6.62847e-08
6.42803e-06
6.53423e-08
6.43439e-06
6.34185e-08
6.44023e-06
6.08491e-08
6.4455e-06
5.78646e-08
6.45019e-06
5.46356e-08
6.45436e-06
5.12919e-08
6.45807e-06
4.79043e-08
6.46139e-06
4.46023e-08
6.46448e-06
4.14275e-08
6.46739e-06
3.84789e-08
3.58078e-08
6.47018e-06
5.74278e-06
1.12696e-08
5.74705e-06
3.0619e-08
5.75239e-06
4.38137e-08
5.75838e-06
5.21275e-08
5.76471e-06
5.70013e-08
5.7711e-06
5.94127e-08
5.77737e-06
6.0016e-08
5.7834e-06
5.93146e-08
5.78912e-06
5.76987e-08
5.79449e-06
5.54787e-08
5.79948e-06
5.28789e-08
5.80405e-06
5.006e-08
5.80821e-06
4.71342e-08
5.81194e-06
4.41702e-08
5.81529e-06
4.12583e-08
5.81832e-06
3.83999e-08
5.82111e-06
3.56879e-08
3.31703e-08
5.82374e-06
7.00006e-06
9.36633e-09
7.00463e-06
2.60492e-08
7.0105e-06
3.79378e-08
7.01714e-06
4.54894e-08
7.02428e-06
4.98677e-08
7.03161e-06
5.20758e-08
7.0389e-06
5.27261e-08
7.04599e-06
5.22254e-08
7.0528e-06
5.08945e-08
7.05927e-06
4.90036e-08
7.06539e-06
4.67602e-08
7.07113e-06
4.43164e-08
7.07649e-06
4.17825e-08
7.08142e-06
3.92328e-08
7.08595e-06
3.67301e-08
7.09007e-06
3.42809e-08
7.09383e-06
3.19259e-08
2.96877e-08
7.09731e-06
8.53271e-06
7.50786e-09
8.53753e-06
2.1222e-08
8.54401e-06
3.14605e-08
8.55133e-06
3.81707e-08
8.55925e-06
4.19428e-08
8.56755e-06
4.3784e-08
8.57591e-06
4.43605e-08
8.58414e-06
4.3993e-08
8.59212e-06
4.2918e-08
8.59978e-06
4.13477e-08
8.60708e-06
3.94565e-08
8.61402e-06
3.73783e-08
8.62059e-06
3.52146e-08
8.62678e-06
3.30396e-08
8.6326e-06
3.09091e-08
8.63803e-06
2.8849e-08
8.64308e-06
2.68748e-08
2.49936e-08
8.64778e-06
1.0401e-05
5.67688e-09
1.04061e-05
1.62073e-08
1.04132e-05
2.43699e-08
1.04214e-05
2.99743e-08
1.04302e-05
3.31309e-08
1.04394e-05
3.45146e-08
1.04489e-05
3.48725e-08
1.04584e-05
3.45357e-08
1.04676e-05
3.36602e-08
1.04766e-05
3.23894e-08
1.04852e-05
3.08534e-08
1.04934e-05
2.91566e-08
1.05013e-05
2.738e-08
1.05087e-05
2.55853e-08
1.05158e-05
2.38195e-08
1.05225e-05
2.21146e-08
1.05289e-05
2.04872e-08
1.89461e-08
1.0535e-05
1.26786e-05
3.83486e-09
1.26838e-05
1.10079e-08
1.26915e-05
1.67098e-08
1.27007e-05
2.07602e-08
1.27107e-05
2.3142e-08
1.27211e-05
2.40657e-08
1.27319e-05
2.41331e-08
1.27427e-05
2.37278e-08
1.27534e-05
2.29782e-08
1.27638e-05
2.19665e-08
1.27739e-05
2.07739e-08
1.27836e-05
1.94704e-08
1.27928e-05
1.81103e-08
1.28017e-05
1.67352e-08
1.28101e-05
1.53762e-08
1.28182e-05
1.40568e-08
1.28259e-05
1.27905e-08
1.15866e-08
1.28332e-05
1.54551e-05
1.9166e-09
1.54606e-05
5.52586e-09
1.54689e-05
8.41334e-09
1.54792e-05
1.04601e-08
1.54907e-05
1.1658e-08
1.55027e-05
1.20241e-08
1.55151e-05
1.17797e-08
1.55275e-05
1.12707e-08
1.55399e-05
1.06065e-08
1.5552e-05
9.82442e-09
1.55638e-05
8.96273e-09
1.55753e-05
8.05787e-09
1.55862e-05
7.1379e-09
1.55967e-05
6.22283e-09
1.56068e-05
5.32661e-09
1.56164e-05
4.45832e-09
1.56256e-05
3.62105e-09
2.81766e-09
1.56343e-05
1.88397e-05
-1.8619e-10
1.88458e-05
-5.05158e-10
1.8855e-05
-8.39557e-10
1.88667e-05
-1.22349e-09
1.888e-05
-1.67334e-09
1.88943e-05
-2.19851e-09
1.89088e-05
-2.79582e-09
1.89235e-05
-3.39192e-09
1.89381e-05
-3.96732e-09
1.89524e-05
-4.51384e-09
1.89664e-05
-5.02667e-09
1.898e-05
-5.50222e-09
1.8993e-05
-5.93882e-09
1.90056e-05
-6.33738e-09
1.90176e-05
-6.70198e-09
1.90291e-05
-7.04014e-09
1.90401e-05
-7.36313e-09
-7.68072e-09
1.90506e-05
2.29658e-05
-2.68106e-09
2.2973e-05
-7.71008e-09
2.29841e-05
-1.19176e-08
2.29981e-05
-1.52435e-08
2.30142e-05
-1.77331e-08
2.30314e-05
-1.94171e-08
2.30491e-05
-2.04621e-08
2.30669e-05
-2.11725e-08
2.30845e-05
-2.16466e-08
2.31019e-05
-2.19129e-08
2.31189e-05
-2.20043e-08
2.31354e-05
-2.19587e-08
2.31512e-05
-2.18104e-08
2.31665e-05
-2.15899e-08
2.31811e-05
-2.1326e-08
2.31951e-05
-2.10435e-08
2.32085e-05
-2.07587e-08
-2.04768e-08
2.32213e-05
1.68128e-05
-4.74139e-09
1.68186e-05
-1.35714e-08
1.68275e-05
-2.07787e-08
1.68385e-05
-2.62474e-08
1.68508e-05
-3.00707e-08
1.68638e-05
-3.24331e-08
1.68772e-05
-3.38234e-08
1.68907e-05
-3.46427e-08
1.69041e-05
-3.50271e-08
1.69172e-05
-3.50511e-08
1.693e-05
-3.47896e-08
1.69423e-05
-3.4317e-08
1.69542e-05
-3.37013e-08
1.69656e-05
-3.29911e-08
1.69765e-05
-3.22134e-08
1.69869e-05
-3.13972e-08
1.69967e-05
-3.05438e-08
-2.96409e-08
1.70058e-05
1.46367e-05
-6.9109e-09
1.46428e-05
-1.96148e-08
1.46516e-05
-2.95936e-08
1.46621e-05
-3.6789e-08
1.46736e-05
-4.15334e-08
1.46856e-05
-4.44183e-08
1.46979e-05
-4.61306e-08
1.47103e-05
-4.70165e-08
1.47225e-05
-4.72511e-08
1.47344e-05
-4.69888e-08
1.4746e-05
-4.63371e-08
1.47571e-05
-4.53931e-08
1.47676e-05
-4.42624e-08
1.47776e-05
-4.30042e-08
1.4787e-05
-4.16016e-08
1.47957e-05
-4.01109e-08
1.48037e-05
-3.85632e-08
-3.6968e-08
1.48111e-05
1.27426e-05
-9.40289e-09
1.27492e-05
-2.61645e-08
1.27581e-05
-3.85396e-08
1.27683e-05
-4.69666e-08
1.27791e-05
-5.2377e-08
1.27905e-05
-5.57492e-08
1.2802e-05
-5.76652e-08
1.28134e-05
-5.84511e-08
1.28246e-05
-5.83865e-08
1.28353e-05
-5.77179e-08
1.28455e-05
-5.65515e-08
1.28551e-05
-5.49956e-08
1.28641e-05
-5.31931e-08
1.28723e-05
-5.12413e-08
1.28798e-05
-4.915e-08
1.28867e-05
-4.69867e-08
1.2893e-05
-4.48445e-08
-4.27786e-08
1.28988e-05
1.1094e-05
-1.25179e-08
1.11013e-05
-3.34077e-08
1.11104e-05
-4.76274e-08
1.11203e-05
-5.68595e-08
1.11307e-05
-6.27888e-08
1.11414e-05
-6.64362e-08
1.1152e-05
-6.82669e-08
1.11622e-05
-6.87109e-08
1.1172e-05
-6.81328e-08
1.11811e-05
-6.68453e-08
1.11896e-05
-6.50226e-08
1.11974e-05
-6.28108e-08
1.12045e-05
-6.03337e-08
1.1211e-05
-5.77398e-08
1.1217e-05
-5.51484e-08
1.12226e-05
-5.25655e-08
1.12278e-05
-5.00306e-08
-4.75964e-08
1.12326e-05
9.65941e-06
-1.67123e-08
9.66741e-06
-4.1406e-08
9.67654e-06
-5.67591e-08
9.68606e-06
-6.63757e-08
9.69573e-06
-7.24622e-08
9.70527e-06
-7.59817e-08
9.71446e-06
-7.74515e-08
9.72315e-06
-7.74018e-08
9.73124e-06
-7.6225e-08
9.73867e-06
-7.42705e-08
9.74549e-06
-7.18477e-08
9.75182e-06
-6.91387e-08
9.7577e-06
-6.62089e-08
9.76314e-06
-6.31797e-08
9.76817e-06
-6.01822e-08
9.77284e-06
-5.72399e-08
9.77719e-06
-5.43782e-08
-5.1629e-08
9.78122e-06
8.41088e-06
-2.22389e-08
8.41962e-06
-5.01464e-08
8.42839e-06
-6.5533e-08
8.43701e-06
-7.49895e-08
8.44547e-06
-8.09268e-08
8.45358e-06
-8.40911e-08
8.46126e-06
-8.51323e-08
8.46848e-06
-8.46155e-08
8.47521e-06
-8.29606e-08
8.48145e-06
-8.05106e-08
8.48722e-06
-7.76145e-08
8.49254e-06
-7.44636e-08
8.49748e-06
-7.11459e-08
8.50206e-06
-6.77584e-08
8.50629e-06
-6.44125e-08
8.5102e-06
-6.115e-08
8.51382e-06
-5.79981e-08
-5.49784e-08
8.51717e-06
7.32413e-06
-2.90858e-08
7.33311e-06
-5.91281e-08
7.34111e-06
-7.35291e-08
7.34861e-06
-8.24941e-08
7.35595e-06
-8.82649e-08
7.36296e-06
-9.10968e-08
7.36955e-06
-9.17241e-08
7.37567e-06
-9.07369e-08
7.38136e-06
-8.86529e-08
7.38664e-06
-8.57839e-08
7.39151e-06
-8.24875e-08
7.39598e-06
-7.89306e-08
7.40008e-06
-7.52518e-08
7.40386e-06
-7.15323e-08
7.40732e-06
-6.78743e-08
7.41049e-06
-6.4325e-08
7.4134e-06
-6.09054e-08
-5.76484e-08
7.41607e-06
6.37807e-06
-3.7088e-08
6.38696e-06
-6.80238e-08
6.39423e-06
-8.07984e-08
6.40087e-06
-8.91316e-08
6.4073e-06
-9.46915e-08
6.4134e-06
-9.72024e-08
6.41908e-06
-9.73973e-08
6.42425e-06
-9.59138e-08
6.42897e-06
-9.3366e-08
6.43325e-06
-9.00706e-08
6.43714e-06
-8.63734e-08
6.44062e-06
-8.24147e-08
6.44373e-06
-7.83585e-08
6.4465e-06
-7.4304e-08
6.44895e-06
-7.03229e-08
6.45113e-06
-6.65037e-08
6.45304e-06
-6.28176e-08
-5.93197e-08
6.45471e-06
5.55507e-06
-4.66905e-08
5.56392e-06
-7.68776e-08
5.57036e-06
-8.72391e-08
5.57609e-06
-9.48608e-08
5.58147e-06
-1.00072e-07
5.58634e-06
-1.0207e-07
5.59053e-06
-1.01585e-07
5.59399e-06
-9.93785e-08
5.59669e-06
-9.60658e-08
5.59872e-06
-9.21006e-08
5.60011e-06
-8.77659e-08
5.60091e-06
-8.32084e-08
5.60115e-06
-7.85996e-08
5.60092e-06
-7.40749e-08
5.60025e-06
-6.96535e-08
5.59923e-06
-6.54876e-08
5.59788e-06
-6.14665e-08
-5.77873e-08
5.59635e-06
4.84109e-06
-6.01685e-08
4.84863e-06
-8.44262e-08
4.85187e-06
-9.04743e-08
4.85273e-06
-9.57253e-08
4.85055e-06
-9.78899e-08
4.84505e-06
-9.65657e-08
4.83641e-06
-9.29529e-08
4.82512e-06
-8.80871e-08
4.81158e-06
-8.25205e-08
4.79637e-06
-7.68897e-08
4.77992e-06
-7.13174e-08
4.76262e-06
-6.59121e-08
4.74481e-06
-6.07883e-08
4.72675e-06
-5.60175e-08
4.70866e-06
-5.15561e-08
4.69067e-06
-4.75035e-08
4.67294e-06
-4.37331e-08
-4.04064e-08
4.65556e-06
4.14251e-06
4.05808e-06
3.96761e-06
3.87188e-06
3.77399e-06
3.67743e-06
3.58447e-06
3.49639e-06
3.41387e-06
3.33698e-06
3.26566e-06
3.19975e-06
3.13896e-06
3.08294e-06
3.03138e-06
2.98388e-06
2.94015e-06
2.89974e-06
-4.63247e-08
4.63247e-08
-9.2158e-08
4.58333e-08
-9.6102e-08
3.944e-09
-4.52552e-08
-5.08468e-08
4.91369e-08
-9.43922e-08
1.69214e-07
-1.20077e-07
3.02181e-07
-1.32967e-07
4.40381e-07
-1.382e-07
5.79768e-07
-1.39387e-07
7.18146e-07
-1.38379e-07
8.54306e-07
-1.3616e-07
9.87146e-07
-1.3284e-07
1.11572e-06
-1.28576e-07
1.23955e-06
-1.23829e-07
1.35843e-06
-1.18877e-07
1.47228e-06
-1.13848e-07
1.5809e-06
-1.08626e-07
1.68395e-06
-1.03049e-07
1.78123e-06
-9.7282e-08
1.87265e-06
-9.14167e-08
1.95779e-06
-8.51379e-08
2.03627e-06
-7.84852e-08
2.1079e-06
-7.16256e-08
2.17259e-06
-6.46854e-08
2.23034e-06
-5.77599e-08
2.28125e-06
-5.09001e-08
2.3254e-06
-4.41508e-08
2.36293e-06
-3.75337e-08
2.39398e-06
-3.10528e-08
2.4187e-06
-2.47212e-08
2.43716e-06
-1.84606e-08
2.4494e-06
-1.22356e-08
2.45541e-06
-6.01347e-09
2.45507e-06
3.46974e-10
2.4469e-06
8.16395e-09
2.43078e-06
1.61181e-08
2.40604e-06
2.47439e-08
2.37181e-06
3.4235e-08
2.32706e-06
4.47431e-08
2.2706e-06
5.64617e-08
2.20096e-06
6.96437e-08
2.11647e-06
8.44915e-08
2.01491e-06
1.01557e-07
1.89383e-06
1.21076e-07
1.75004e-06
1.43792e-07
1.57968e-06
1.70364e-07
1.37943e-06
2.00242e-07
1.1424e-06
2.37029e-07
8.6968e-07
2.72725e-07
5.46412e-07
3.23269e-07
1.89699e-07
3.56713e-07
-9.30534e-08
2.82752e-07
-2.84488e-07
1.91435e-07
-4.09385e-07
1.24897e-07
-4.74847e-07
6.54621e-08
-4.99653e-07
2.48056e-08
-4.87464e-07
-1.21885e-08
-4.21747e-07
-6.57173e-08
-2.9123e-07
-1.30517e-07
-9.72856e-08
-1.93945e-07
1.4813e-07
-2.45416e-07
4.04811e-07
-2.56681e-07
6.05253e-07
-2.00442e-07
6.96364e-07
-9.11112e-08
6.60252e-07
3.61127e-08
5.15175e-07
1.45076e-07
3.20777e-07
1.94398e-07
2.23584e-07
9.71934e-08
2.98439e-07
-7.48547e-08
3.19667e-07
-2.12287e-08
1.2538e-07
1.94287e-07
-2.67514e-07
3.92895e-07
-6.59694e-07
3.9218e-07
-1.03976e-06
3.8007e-07
-1.40634e-06
3.66576e-07
-1.76873e-06
3.62391e-07
-2.13183e-06
3.63098e-07
-2.49971e-06
3.67879e-07
-2.87192e-06
3.72212e-07
-3.24342e-06
3.71501e-07
-3.60568e-06
3.6226e-07
-3.94893e-06
3.43246e-07
-4.26433e-06
3.15402e-07
-4.54586e-06
2.81535e-07
-4.79069e-06
2.44825e-07
-4.99834e-06
2.0765e-07
-5.17011e-06
1.71775e-07
-5.30845e-06
1.38334e-07
-5.41626e-06
1.07808e-07
-5.4964e-06
8.01457e-08
-5.5516e-06
5.51937e-08
-5.58437e-06
3.2777e-08
-5.59724e-06
1.28619e-08
-5.59201e-06
-5.22787e-09
-5.57369e-06
-1.83156e-08
-5.54422e-06
-2.94726e-08
-5.50575e-06
-3.84732e-08
-5.46066e-06
-4.5085e-08
-5.41099e-06
-4.96704e-08
-5.35853e-06
-5.24584e-08
-5.30523e-06
-5.33033e-08
-5.25285e-06
-5.23824e-08
-5.20291e-06
-4.99351e-08
-5.15677e-06
-4.61424e-08
-5.11559e-06
-4.11801e-08
-5.08034e-06
-3.5244e-08
-5.05167e-06
-2.86789e-08
-5.02975e-06
-2.19134e-08
-5.01449e-06
-1.52604e-08
-5.00557e-06
-8.92136e-09
-5.0024e-06
-3.16697e-09
-5.00404e-06
1.63594e-09
-5.00897e-06
4.93161e-09
-5.01574e-06
6.77299e-09
-5.02148e-06
5.74004e-09
-5.02286e-06
1.38016e-09
-5.01741e-06
-5.45504e-09
-5.00116e-06
-1.62492e-08
-4.97016e-06
-3.09967e-08
-4.9208e-06
-4.93682e-08
-4.84995e-06
-7.08418e-08
-4.75491e-06
-9.50408e-08
-4.63318e-06
-1.21731e-07
-4.48254e-06
-1.50644e-07
-4.30114e-06
-1.81394e-07
-4.08767e-06
-2.13472e-07
-3.84116e-06
-2.46517e-07
-3.55965e-06
-2.81507e-07
-3.2416e-06
-3.18047e-07
-2.88685e-06
-3.54754e-07
-2.4965e-06
-3.9035e-07
-2.07386e-06
-4.22638e-07
-1.62344e-06
-4.50422e-07
-1.15213e-06
-4.71302e-07
-6.69235e-07
-4.82899e-07
-1.84092e-07
-4.85143e-07
2.93542e-07
-4.77635e-07
7.54951e-07
-4.61409e-07
1.19298e-06
-4.38029e-07
1.60104e-06
-4.08057e-07
1.975e-06
-3.73966e-07
2.31348e-06
-3.38479e-07
2.61594e-06
-3.0246e-07
2.88306e-06
-2.67119e-07
3.11663e-06
-2.33571e-07
3.31913e-06
-2.02492e-07
3.49404e-06
-1.74914e-07
3.64482e-06
-1.50781e-07
3.77472e-06
-1.29904e-07
3.88709e-06
-1.12364e-07
3.98524e-06
-9.81525e-08
4.07223e-06
-8.69878e-08
4.15061e-06
-7.83834e-08
4.22242e-06
-7.18036e-08
4.28881e-06
-6.63911e-08
4.34951e-06
-6.07004e-08
4.40329e-06
-5.37824e-08
4.45023e-06
-4.69447e-08
4.49025e-06
-4.00176e-08
4.51496e-06
-2.47106e-08
4.50752e-06
7.44403e-09
4.45256e-06
5.49542e-08
4.34407e-06
1.08491e-07
4.18623e-06
1.57847e-07
3.99444e-06
1.91792e-07
3.7913e-06
2.03138e-07
3.59867e-06
1.92629e-07
3.43241e-06
1.66259e-07
3.3007e-06
1.31711e-07
3.20319e-06
9.75107e-08
3.13339e-06
6.98015e-08
3.08464e-06
4.87459e-08
3.04951e-06
3.5125e-08
3.0229e-06
2.66099e-08
2.99889e-06
2.40131e-08
2.9788e-06
2.00929e-08
2.95645e-06
2.23439e-08
2.93678e-06
1.96784e-08
2.87847e-06
5.83077e-08
1.05399e-07
2.77307e-06
2.49086e-10
4.60756e-08
3.15107e-08
1.45717e-08
1.1259e-07
-7.71354e-08
2.21114e-07
-1.5937e-07
3.34045e-07
-2.07323e-07
4.4265e-07
-2.28682e-07
5.45758e-07
-2.36075e-07
6.45093e-07
-2.37535e-07
7.42693e-07
-2.36987e-07
8.40016e-07
-2.35701e-07
9.37484e-07
-2.33628e-07
1.03511e-06
-2.30466e-07
1.13327e-06
-2.26734e-07
1.23215e-06
-2.22709e-07
1.33131e-06
-2.18043e-07
1.42975e-06
-2.12285e-07
1.52626e-06
-2.05137e-07
1.61977e-06
-1.96555e-07
1.70923e-06
-1.86742e-07
1.79358e-06
-1.75773e-07
1.87211e-06
-1.63669e-07
1.94451e-06
-1.50879e-07
2.01068e-06
-1.37793e-07
2.07063e-06
-1.2464e-07
2.12445e-06
-1.11577e-07
2.17228e-06
-9.87313e-08
2.21432e-06
-8.61964e-08
2.25082e-06
-7.40275e-08
2.28201e-06
-6.22475e-08
2.30812e-06
-5.08309e-08
2.32936e-06
-3.97008e-08
2.34588e-06
-2.87511e-08
2.35769e-06
-1.78227e-08
2.36468e-06
-6.64035e-09
2.3678e-06
5.04286e-09
2.36617e-06
1.77465e-08
2.35917e-06
3.17418e-08
2.34612e-06
4.72811e-08
2.32619e-06
6.46746e-08
2.2985e-06
8.41514e-08
2.26219e-06
1.05961e-07
2.21629e-06
1.30387e-07
2.15998e-06
1.57867e-07
2.09198e-06
1.89073e-07
2.01124e-06
2.24536e-07
1.91595e-06
2.65648e-07
1.80425e-06
3.11949e-07
1.67522e-06
3.66053e-07
1.52493e-06
4.23016e-07
1.36517e-06
4.83035e-07
1.1849e-06
5.3698e-07
9.22666e-07
5.44986e-07
6.0454e-07
5.0956e-07
3.11843e-07
4.17595e-07
1.00947e-07
2.76358e-07
-1.66849e-08
1.42437e-07
-4.31477e-08
1.42743e-08
1.11848e-08
-1.2005e-07
1.25584e-07
-2.44916e-07
3.00912e-07
-3.69273e-07
5.28375e-07
-4.72879e-07
7.46401e-07
-4.74707e-07
8.86812e-07
-3.40853e-07
9.08696e-07
-1.12996e-07
8.20462e-07
1.24347e-07
6.64732e-07
3.00807e-07
5.04498e-07
3.54632e-07
3.01739e-07
2.99952e-07
-1.83315e-07
4.10199e-07
-8.90749e-07
6.86205e-07
-1.49074e-06
7.94275e-07
-1.93038e-06
8.32543e-07
-2.34184e-06
8.03634e-07
-2.72863e-06
7.66865e-07
-3.08765e-06
7.25595e-07
-3.41843e-06
6.93167e-07
-3.72169e-06
6.66363e-07
-3.99763e-06
6.43815e-07
-4.24582e-06
6.20402e-07
-4.46626e-06
5.91942e-07
-4.65915e-06
5.55147e-07
-4.82586e-06
5.0996e-07
-4.96869e-06
4.58231e-07
-5.09014e-06
4.02982e-07
-5.19246e-06
3.47144e-07
-5.27781e-06
2.93005e-07
-5.34791e-06
2.41876e-07
-5.40391e-06
1.94337e-07
-5.44667e-06
1.50564e-07
-5.47685e-06
1.10325e-07
-5.49494e-06
7.32874e-08
-5.50151e-06
3.93487e-08
-5.49725e-06
8.59649e-09
-5.48354e-06
-1.89403e-08
-5.45901e-06
-4.28455e-08
-5.42504e-06
-6.34346e-08
-5.3834e-06
-8.01168e-08
-5.33596e-06
-9.25293e-08
-5.2846e-06
-1.01024e-07
-5.23106e-06
-1.05997e-07
-5.17685e-06
-1.07522e-07
-5.12345e-06
-1.05781e-07
-5.07226e-06
-1.01126e-07
-5.02448e-06
-9.392e-08
-4.98115e-06
-8.45124e-08
-4.94304e-06
-7.33517e-08
-4.91065e-06
-6.10664e-08
-4.88422e-06
-4.83403e-08
-4.86373e-06
-3.5756e-08
-4.84884e-06
-2.38066e-08
-4.83895e-06
-1.30639e-08
-4.83305e-06
-4.26166e-09
-4.82989e-06
1.77379e-09
-4.82755e-06
4.43522e-09
-4.82356e-06
1.75066e-09
-4.81555e-06
-6.63612e-09
-4.79999e-06
-2.10169e-08
-4.77365e-06
-4.25842e-08
-4.7328e-06
-7.18438e-08
-4.67383e-06
-1.08338e-07
-4.59359e-06
-1.51086e-07
-4.48938e-06
-1.99245e-07
-4.35895e-06
-2.52165e-07
-4.20018e-06
-3.09412e-07
-4.01122e-06
-3.70354e-07
-3.79049e-06
-4.34202e-07
-3.53634e-06
-5.00671e-07
-3.24778e-06
-5.70068e-07
-2.92404e-06
-6.41784e-07
-2.56422e-06
-7.14576e-07
-2.169e-06
-7.85571e-07
-1.74109e-06
-8.50546e-07
-1.2848e-06
-9.06709e-07
-8.06764e-07
-9.49342e-07
-3.15514e-07
-9.74149e-07
1.792e-07
-9.79857e-07
6.67651e-07
-9.66086e-07
1.14046e-06
-9.34222e-07
1.58988e-06
-8.87443e-07
2.01047e-06
-8.28651e-07
2.39864e-06
-7.62134e-07
2.75243e-06
-6.92274e-07
3.07141e-06
-6.21432e-07
3.35549e-06
-5.512e-07
3.60578e-06
-4.83865e-07
3.82462e-06
-4.21334e-07
4.01479e-06
-3.65082e-07
4.1791e-06
-3.15091e-07
4.3204e-06
-2.712e-07
4.44183e-06
-2.33794e-07
4.54675e-06
-2.03081e-07
4.63859e-06
-1.78828e-07
4.72055e-06
-1.60336e-07
4.79511e-06
-1.46363e-07
4.86373e-06
-1.35013e-07
4.92703e-06
-1.24007e-07
4.98517e-06
-1.11914e-07
5.03711e-06
-9.88852e-08
5.08035e-06
-8.3258e-08
5.11429e-06
-5.86492e-08
5.1416e-06
-1.98748e-08
5.16232e-06
3.42422e-08
5.17236e-06
9.84503e-08
5.16492e-06
1.65285e-07
5.13286e-06
2.23851e-07
5.07136e-06
2.64637e-07
4.98043e-06
2.8356e-07
4.86417e-06
2.82517e-07
4.72806e-06
2.67826e-07
4.57999e-06
2.45579e-07
4.42973e-06
2.20058e-07
4.28567e-06
1.92803e-07
4.1531e-06
1.67699e-07
4.03525e-06
1.44462e-07
3.93433e-06
1.2493e-07
3.84991e-06
1.04516e-07
3.78224e-06
9.00138e-08
3.7258e-06
7.61177e-08
3.68223e-06
1.01872e-07
1.4997e-07
3.63766e-06
2.59382e-08
2.01374e-08
1.31338e-07
-9.08281e-08
2.50084e-07
-1.95882e-07
3.42163e-07
-2.51449e-07
4.08896e-07
-2.74056e-07
4.63187e-07
-2.82974e-07
5.15695e-07
-2.88582e-07
5.72563e-07
-2.94403e-07
6.36311e-07
-3.00735e-07
7.07431e-07
-3.06821e-07
7.85425e-07
-3.11622e-07
8.70255e-07
-3.15296e-07
9.61595e-07
-3.18073e-07
1.05758e-06
-3.18694e-07
1.15546e-06
-3.15923e-07
1.25244e-06
-3.09264e-07
1.34619e-06
-2.98884e-07
1.43503e-06
-2.854e-07
1.51783e-06
-2.69544e-07
1.59397e-06
-2.51912e-07
1.66363e-06
-2.33329e-07
1.72718e-06
-2.14429e-07
1.78487e-06
-1.95481e-07
1.83692e-06
-1.76694e-07
1.88362e-06
-1.58279e-07
1.9253e-06
-1.40405e-07
1.96228e-06
-1.23177e-07
1.9949e-06
-1.06653e-07
2.02348e-06
-9.08242e-08
2.04826e-06
-7.5611e-08
2.06943e-06
-6.08723e-08
2.08708e-06
-4.63952e-08
2.10115e-06
-3.18932e-08
2.1116e-06
-1.7091e-08
2.1187e-06
-2.06014e-09
2.12128e-06
1.51638e-08
2.11907e-06
3.39538e-08
2.11144e-06
5.49129e-08
2.09757e-06
7.85457e-08
2.07683e-06
1.04885e-07
2.04883e-06
1.33964e-07
2.0134e-06
1.65815e-07
1.97073e-06
2.0054e-07
1.92143e-06
2.38377e-07
1.86636e-06
2.79603e-07
1.80709e-06
3.24915e-07
1.74484e-06
3.74206e-07
1.68238e-06
4.28511e-07
1.61972e-06
4.85675e-07
1.55954e-06
5.43213e-07
1.49842e-06
5.98102e-07
1.41061e-06
6.32796e-07
1.2881e-06
6.32069e-07
1.12759e-06
5.781e-07
9.40341e-07
4.63611e-07
7.75937e-07
3.06842e-07
6.70683e-07
1.19528e-07
6.37292e-07
-8.66588e-08
6.73023e-07
-2.80647e-07
7.83008e-07
-4.79258e-07
9.2584e-07
-6.15711e-07
1.02238e-06
-5.71245e-07
1.03091e-06
-3.49385e-07
9.50055e-07
-3.21397e-08
7.53544e-07
3.20858e-07
4.7503e-07
5.79321e-07
5.70272e-08
7.72635e-07
-6.15879e-07
9.72858e-07
-1.3708e-06
1.16511e-06
-1.92797e-06
1.24338e-06
-2.353e-06
1.2193e-06
-2.69081e-06
1.17035e-06
-2.98545e-06
1.09828e-06
-3.24826e-06
1.02968e-06
-3.48664e-06
9.63968e-07
-3.70088e-06
9.07407e-07
-3.89203e-06
8.57519e-07
-4.06079e-06
8.12575e-07
-4.20886e-06
7.68475e-07
-4.33903e-06
7.22109e-07
-4.45479e-06
6.70903e-07
-4.5595e-06
6.14671e-07
-4.65577e-06
5.54506e-07
-4.74497e-06
4.92184e-07
-4.82716e-06
4.2933e-07
-4.9017e-06
3.67539e-07
-4.96761e-06
3.07791e-07
-5.02391e-06
2.50635e-07
-5.06964e-06
1.96292e-07
-5.10406e-06
1.44747e-07
-5.12669e-06
9.59162e-08
-5.13738e-06
5.00445e-08
-5.13645e-06
7.66197e-09
-5.12459e-06
-3.08038e-08
-5.10237e-06
-6.50641e-08
-5.07113e-06
-9.46761e-08
-5.03246e-06
-1.18784e-07
-4.98807e-06
-1.36918e-07
-4.9398e-06
-1.49291e-07
-4.88936e-06
-1.56442e-07
-4.83812e-06
-1.58756e-07
-4.78737e-06
-1.56532e-07
-4.73829e-06
-1.50206e-07
-4.69197e-06
-1.40238e-07
-4.64939e-06
-1.27098e-07
-4.6113e-06
-1.11444e-07
-4.57821e-06
-9.41506e-08
-4.55044e-06
-7.61155e-08
-4.52804e-06
-5.81578e-08
-4.51076e-06
-4.10826e-08
-4.49799e-06
-2.58333e-08
-4.48874e-06
-1.35139e-08
-4.4817e-06
-5.26441e-09
-4.47489e-06
-2.37456e-09
-4.46648e-06
-6.65475e-09
-4.45378e-06
-1.93367e-08
-4.43339e-06
-4.14142e-08
-4.40182e-06
-7.41476e-08
-4.35542e-06
-1.18244e-07
-4.29071e-06
-1.73055e-07
-4.2047e-06
-2.37091e-07
-4.095e-06
-3.0895e-07
-3.95963e-06
-3.87533e-07
-3.79683e-06
-4.72213e-07
-3.60517e-06
-5.6201e-07
-3.38336e-06
-6.56016e-07
-3.12996e-06
-7.5407e-07
-2.84388e-06
-8.56146e-07
-2.52421e-06
-9.6145e-07
-2.17033e-06
-1.06846e-06
-1.78196e-06
-1.17395e-06
-1.35998e-06
-1.27252e-06
-9.0822e-07
-1.35847e-06
-4.33233e-07
-1.42433e-06
5.69101e-08
-1.46429e-06
5.5105e-07
-1.474e-06
1.03848e-06
-1.45352e-06
1.50954e-06
-1.40528e-06
1.95642e-06
-1.33432e-06
2.37516e-06
-1.24739e-06
2.76253e-06
-1.14951e-06
3.11556e-06
-1.0453e-06
3.43313e-06
-9.39005e-07
3.71596e-06
-8.34027e-07
3.96565e-06
-7.3355e-07
4.18427e-06
-6.3996e-07
4.37415e-06
-5.54961e-07
4.53759e-06
-4.7853e-07
4.67704e-06
-4.10651e-07
4.79531e-06
-3.5206e-07
4.8954e-06
-3.0317e-07
4.98046e-06
-2.63894e-07
5.05368e-06
-2.33557e-07
5.11781e-06
-2.10496e-07
5.17482e-06
-1.92019e-07
5.22597e-06
-1.75157e-07
5.27181e-06
-1.57748e-07
5.31161e-06
-1.38686e-07
5.3441e-06
-1.15749e-07
5.36987e-06
-8.44263e-08
5.39077e-06
-4.07751e-08
5.40825e-06
1.67645e-08
5.42096e-06
8.57411e-08
5.42611e-06
1.60138e-07
5.41918e-06
2.30781e-07
5.39468e-06
2.89141e-07
5.34739e-06
3.30849e-07
5.27395e-06
3.5595e-07
5.17443e-06
3.67347e-07
5.05275e-06
3.67257e-07
4.91544e-06
3.57372e-07
4.77014e-06
3.38103e-07
4.62541e-06
3.12426e-07
4.48888e-06
2.80996e-07
4.36713e-06
2.46677e-07
4.26284e-06
2.08807e-07
4.1785e-06
1.74357e-07
4.11146e-06
1.43163e-07
4.06859e-06
1.44738e-07
1.76714e-07
4.04185e-06
8.23281e-08
-6.21907e-08
1.91912e-07
-2.00412e-07
2.56168e-07
-2.60137e-07
2.86513e-07
-2.81794e-07
3.06918e-07
-2.94462e-07
3.31275e-07
-3.0733e-07
3.64804e-07
-3.22111e-07
4.09124e-07
-3.38724e-07
4.64516e-07
-3.56127e-07
5.3027e-07
-3.72574e-07
6.05716e-07
-3.87069e-07
6.89805e-07
-3.99385e-07
7.7905e-07
-4.07319e-07
8.68902e-07
-4.08545e-07
9.5566e-07
-4.02682e-07
1.0371e-06
-3.90708e-07
1.11239e-06
-3.74166e-07
1.18156e-06
-3.54572e-07
1.24505e-06
-3.33036e-07
1.30344e-06
-3.103e-07
1.35719e-06
-2.87079e-07
1.4066e-06
-2.63845e-07
1.45199e-06
-2.40863e-07
1.49364e-06
-2.18348e-07
1.53188e-06
-1.96516e-07
1.56702e-06
-1.75549e-07
1.59942e-06
-1.55577e-07
1.62944e-06
-1.36671e-07
1.65743e-06
-1.18818e-07
1.68372e-06
-1.019e-07
1.70853e-06
-8.5681e-08
1.73194e-06
-6.97991e-08
1.75381e-06
-5.37709e-08
1.77381e-06
-3.70899e-08
1.79108e-06
-1.93236e-08
1.80574e-06
5.04798e-10
1.81679e-06
2.28985e-08
1.82307e-06
4.86342e-08
1.823e-06
7.86115e-08
1.81568e-06
1.1221e-07
1.80044e-06
1.49201e-07
1.77712e-06
1.8914e-07
1.7461e-06
2.31551e-07
1.70854e-06
2.75941e-07
1.66612e-06
3.22022e-07
1.62133e-06
3.69705e-07
1.57668e-06
4.18861e-07
1.53561e-06
4.69573e-07
1.50034e-06
5.20948e-07
1.47281e-06
5.70749e-07
1.45496e-06
6.15948e-07
1.4398e-06
6.47952e-07
1.41425e-06
6.57627e-07
1.36203e-06
6.30312e-07
1.27817e-06
5.47476e-07
1.17891e-06
4.06099e-07
1.08404e-06
2.144e-07
9.98422e-07
-1.04169e-09
9.71296e-07
-2.5352e-07
1.00448e-06
-5.1244e-07
1.01815e-06
-6.29386e-07
9.51613e-07
-5.04705e-07
7.67691e-07
-1.65463e-07
4.59125e-07
2.76426e-07
5.77335e-08
7.2225e-07
-4.68296e-07
1.10535e-06
-1.08502e-06
1.38935e-06
-1.67564e-06
1.56348e-06
-2.11991e-06
1.60938e-06
-2.42693e-06
1.5504e-06
-2.67185e-06
1.46422e-06
-2.8763e-06
1.3748e-06
-3.05821e-06
1.28019e-06
-3.22272e-06
1.19419e-06
-3.37449e-06
1.11573e-06
-3.5145e-06
1.04742e-06
-3.64378e-06
9.86794e-07
-3.76267e-06
9.31463e-07
-3.87239e-06
8.78195e-07
-3.97446e-06
8.24184e-07
-4.07078e-06
7.67222e-07
-4.16277e-06
7.06661e-07
-4.25101e-06
6.42746e-07
-4.33516e-06
5.76333e-07
-4.41433e-06
5.08501e-07
-4.48718e-06
4.4039e-07
-4.55222e-06
3.72835e-07
-4.60811e-06
3.06518e-07
-4.65371e-06
2.41899e-07
-4.68823e-06
1.79261e-07
-4.71117e-06
1.18858e-07
-4.72252e-06
6.13976e-08
-4.7227e-06
7.84193e-09
-4.71237e-06
-4.11347e-08
-4.6924e-06
-8.50332e-08
-4.6641e-06
-1.22979e-07
-4.62889e-06
-1.53991e-07
-4.5882e-06
-1.77612e-07
-4.54366e-06
-1.93829e-07
-4.49693e-06
-2.03179e-07
-4.44928e-06
-2.06406e-07
-4.40176e-06
-2.04048e-07
-4.35532e-06
-1.96645e-07
-4.31086e-06
-1.84702e-07
-4.26919e-06
-1.68766e-07
-4.23098e-06
-1.49653e-07
-4.19672e-06
-1.28411e-07
-4.16672e-06
-1.06114e-07
-4.14106e-06
-8.38187e-08
-4.11947e-06
-6.26706e-08
-4.10131e-06
-4.39913e-08
-4.0856e-06
-2.92254e-08
-4.07098e-06
-1.98827e-08
-4.05563e-06
-1.7727e-08
-4.03742e-06
-2.4868e-08
-4.01359e-06