/*--------------------------------*- C++ -*----------------------------------*\
| =========                 |                                                 |
| \\      /  F ield         | OpenFOAM: The Open Source CFD Toolbox           |
|  \\    /   O peration     | Version:  2112                                  |
|   \\  /    A nd           | Website:  www.openfoam.com                      |
|    \\/     M anipulation  |                                                 |
\*---------------------------------------------------------------------------*/
FoamFile
{
    version     2.0;
    format      ascii;
    arch        "LSB;label=32;scalar=64";
    class       volScalarField;
    location    "0.12";
    object      k;
}
// * * * * * * * * * * * * * * * * * * * * * * * * * * * * * * * * * * * * * //

dimensions      [0 2 -2 0 0 0 0];

internalField   nonuniform List<scalar> 
12225
(
0.891939
1.27288
1.48169
1.57322
1.59576
1.58141
1.54912
1.50951
1.46835
1.42867
1.39196
1.35884
1.32949
1.30389
1.28194
1.26351
1.24854
1.23687
0.400469
0.420039
0.427766
0.428558
0.425833
0.42162
0.417384
0.414139
0.412395
0.412324
0.413906
0.417015
0.421459
0.427006
0.43339
0.440296
0.447455
0.454274
0.376363
0.376084
0.36943
0.35845
0.345253
0.331113
0.316878
0.303142
0.290286
0.278522
0.267938
0.258545
0.250292
0.243097
0.236852
0.231428
0.226682
0.222377
0.372554
0.369226
0.364453
0.358127
0.350677
0.342569
0.334143
0.32565
0.317276
0.309153
0.301372
0.293991
0.287044
0.28055
0.274514
0.268938
0.26382
0.259171
0.37196
0.368526
0.364637
0.360225
0.355331
0.350078
0.344606
0.339039
0.333477
0.327994
0.32265
0.317485
0.312531
0.30781
0.303338
0.299128
0.29519
0.291554
0.371871
0.368584
0.365177
0.361582
0.357802
0.353881
0.349867
0.345812
0.34176
0.33775
0.333817
0.329984
0.326274
0.322703
0.319283
0.316026
0.312942
0.310062
0.371867
0.368679
0.365525
0.362356
0.359158
0.355935
0.3527
0.34947
0.346265
0.343103
0.340002
0.336976
0.334038
0.331198
0.328465
0.325845
0.323347
0.320998
0.37187
0.368731
0.365705
0.362757
0.359865
0.35702
0.354217
0.351459
0.348749
0.346095
0.343504
0.340983
0.338537
0.336172
0.333893
0.331703
0.329608
0.327632
0.37187
0.36875
0.36578
0.362936
0.360198
0.357551
0.354987
0.352498
0.35008
0.347734
0.345459
0.343257
0.341128
0.339074
0.337097
0.335198
0.333379
0.331659
0.371869
0.368753
0.365803
0.363001
0.360332
0.357781
0.355338
0.352993
0.350739
0.34857
0.346483
0.344476
0.342545
0.34069
0.338908
0.3372
0.335565
0.33402
0.371866
0.36875
0.365805
0.363017
0.360373
0.357862
0.355473
0.353197
0.351024
0.348949
0.346964
0.345066
0.343249
0.341511
0.339848
0.338258
0.336738
0.335303
0.371865
0.368746
0.3658
0.363015
0.360377
0.357878
0.355508
0.353256
0.351116
0.349079
0.347138
0.345289
0.343526
0.341844
0.340239
0.338707
0.337247
0.335871
0.371863
0.368743
0.365795
0.363008
0.360372
0.357875
0.35551
0.353267
0.351139
0.349117
0.347196
0.345369
0.34363
0.341976
0.3404
0.338899
0.337469
0.336124
0.371862
0.36874
0.36579
0.363001
0.360362
0.357864
0.355498
0.353256
0.35113
0.349112
0.347196
0.345376
0.343646
0.342001
0.340436
0.338947
0.337531
0.336199
0.371861
0.368738
0.365786
0.362994
0.360352
0.357851
0.355483
0.353238
0.351109
0.349088
0.347171
0.345349
0.343619
0.341973
0.340408
0.338919
0.337503
0.336172
0.371861
0.368736
0.365782
0.362988
0.360344
0.35784
0.355468
0.353219
0.351086
0.349062
0.34714
0.345314
0.343578
0.341928
0.340358
0.338864
0.337443
0.336108
0.37186
0.368735
0.36578
0.362984
0.360337
0.357831
0.355455
0.353203
0.351066
0.349037
0.347111
0.34528
0.343539
0.341883
0.340308
0.338808
0.337382
0.33604
0.37186
0.368735
0.365778
0.362981
0.360333
0.357824
0.355446
0.353191
0.351051
0.349018
0.347087
0.345252
0.343507
0.341847
0.340266
0.338761
0.33733
0.335983
0.37186
0.368735
0.365778
0.362981
0.360331
0.357821
0.355442
0.353184
0.351041
0.349006
0.347072
0.345234
0.343485
0.341821
0.340237
0.338729
0.337293
0.335943
0.371861
0.368736
0.36578
0.362982
0.360333
0.357823
0.355443
0.353184
0.351041
0.349004
0.347069
0.345229
0.343479
0.341813
0.340227
0.338716
0.337278
0.335926
0.371861
0.368737
0.365782
0.362985
0.360337
0.357827
0.355447
0.353188
0.351044
0.349007
0.34707
0.345229
0.343476
0.341807
0.340218
0.338703
0.337261
0.335905
0.371862
0.368739
0.365785
0.362989
0.360341
0.35783
0.355449
0.353188
0.35104
0.348997
0.347053
0.345201
0.343436
0.341754
0.340148
0.338615
0.337153
0.335775
0.371864
0.368742
0.365788
0.362991
0.360339
0.357821
0.355427
0.353147
0.350973
0.348897
0.346913
0.345014
0.343196
0.341455
0.339785
0.338183
0.336649
0.335195
0.371865
0.368744
0.365787
0.362978
0.3603
0.357741
0.355287
0.352927
0.350653
0.348458
0.346337
0.344287
0.342306
0.340391
0.338539
0.336751
0.335026
0.33338
0.37187
0.368752
0.365781
0.362922
0.360146
0.357433
0.35477
0.352152
0.349579
0.347052
0.344574
0.34215
0.339782
0.337473
0.335226
0.333043
0.330926
0.328896
0.371905
0.368826
0.365844
0.362867
0.359815
0.356667
0.353439
0.350161
0.34686
0.343564
0.340293
0.337066
0.333897
0.330797
0.327774
0.324836
0.321987
0.319251
0.372178
0.369472
0.366536
0.363043
0.359011
0.354594
0.349924
0.345095
0.340183
0.33525
0.330347
0.325512
0.320778
0.316166
0.311695
0.307376
0.303217
0.299239
0.374225
0.374002
0.371021
0.365769
0.359185
0.351772
0.343803
0.335499
0.327053
0.318628
0.310356
0.302339
0.29465
0.28734
0.28044
0.273966
0.267921
0.262315
0.386281
0.394202
0.397251
0.397903
0.396931
0.394629
0.391261
0.387271
0.383067
0.378951
0.375139
0.371778
0.368962
0.366738
0.365126
0.364129
0.363745
0.364001
0.642873
0.87455
1.04583
1.17898
1.27368
1.33464
1.36825
1.38095
1.37845
1.36543
1.34551
1.32137
1.29494
1.26758
1.24022
1.21345
1.18764
1.16306
0.024748
0.0435082
0.0606286
0.0816664
0.102986
0.123504
0.140813
0.154884
0.166534
0.176117
0.183897
0.190096
0.194895
0.198441
0.20085
0.202211
0.202593
0.202044
0.200594
0.19825
0.195037
0.191678
0.1885
0.185288
0.181933
0.178405
0.174753
0.171111
0.167716
0.164925
0.163239
0.163305
0.165866
0.17164
0.181196
0.195727
0.217184
0.240434
0.263879
0.286993
0.309912
0.333013
0.356637
0.380952
0.405925
0.431381
0.457072
0.482745
0.508186
0.533252
0.557906
0.582262
0.606669
0.631905
0.655791
0.675499
0.690518
0.700314
0.704329
0.702018
0.6929
0.676605
0.652986
0.622257
0.585117
0.543185
0.499569
0.457423
0.414481
0.372244
0.332753
0.297873
0.268998
0.246902
0.231752
0.22326
0.220891
0.224015
0.231934
0.243763
0.258214
0.273365
0.286814
0.29723
0.30814
0.327652
0.357905
0.397985
0.441406
0.478391
0.504277
0.529187
0.579163
0.682613
0.801804
0.914967
1.02024
1.11681
1.20491
1.28514
1.3582
1.42475
1.48535
1.54048
1.59051
1.63579
1.6767
1.7137
1.74747
1.77902
1.80792
1.83151
1.84964
1.86205
1.86844
1.86858
1.86227
1.84945
1.83015
1.80456
1.77299
1.73592
1.69394
1.64779
1.59825
1.54618
1.49242
1.43779
1.38307
1.32892
1.27592
1.22471
1.1761
1.13355
1.10955
1.09081
1.07316
1.05614
1.03954
1.02313
1.00665
0.98981
0.972301
0.953804
0.93401
0.912635
0.889443
0.864253
0.836965
0.80757
0.776162
0.742939
0.70821
0.672374
0.63591
0.599925
0.564846
0.530625
0.497344
0.465117
0.434206
0.405079
0.378305
0.354382
0.333603
0.316013
0.30144
0.289575
0.280049
0.272488
0.26655
0.261935
0.25839
0.255701
0.253678
0.252127
0.250865
0.24951
0.247906
0.244206
0.0396695
0.0825991
0.132736
0.178214
0.217842
0.252207
0.281549
0.306125
0.326293
0.342489
0.355181
0.364817
0.371794
0.376457
0.379108
0.380019
0.379444
0.377629
0.374814
0.371231
0.367087
0.36249
0.357799
0.353353
0.349546
0.346858
0.34587
0.347308
0.352084
0.361338
0.37644
0.398899
0.430088
0.470826
0.521028
0.579991
0.642517
0.699087
0.749886
0.795414
0.83683
0.875683
0.91353
0.951638
0.990873
1.03174
1.07451
1.11929
1.16606
1.2147
1.26493
1.31628
1.36812
1.41958
1.46768
1.51161
1.55001
1.58129
1.60376
1.61569
1.61539
1.60133
1.57218
1.52687
1.4646
1.3844
1.29019
1.18894
1.08275
0.975095
0.869865
0.770886
0.681495
0.604201
0.540524
0.491092
0.455939
0.434838
0.427441
0.433109
0.450528
0.477533
0.511711
0.552357
0.604428
0.684405
0.809553
0.987143
1.20149
1.40785
1.55161
1.62205
1.66134
1.71434
1.78289
1.86332
1.95223
2.04624
2.14237
2.23844
2.33313
2.42583
2.51637
2.60479
2.69121
2.77565
2.85806
2.93824
3.01592
3.0908
3.16149
3.22882
3.29195
3.34974
3.40098
3.4444
3.47877
3.50303
3.51629
3.51797
3.50779
3.48585
3.45264
3.40897
3.35596
3.29495
3.22743
3.15493
3.07895
3.00088
2.92188
2.84324
2.76583
2.69386
2.62683
2.56292
2.50137
2.44186
2.38406
2.32754
2.27183
2.21637
2.16059
2.1039
2.04575
1.9856
1.92302
1.85765
1.78925
1.71773
1.64315
1.56572
1.48585
1.40411
1.32126
1.23847
1.15647
1.07604
0.997868
0.922764
0.851912
0.78672
0.72841
0.677653
0.634488
0.598444
0.568753
0.544539
0.524943
0.509194
0.496635
0.48674
0.479101
0.473413
0.469447
0.467042
0.465996
0.46642
0.467337
0.473847
0.0505657
0.127045
0.189243
0.237209
0.276346
0.309883
0.339398
0.365513
0.388438
0.40826
0.425057
0.438928
0.45001
0.458479
0.464552
0.468492
0.470602
0.471228
0.470752
0.469603
0.468274
0.467386
0.46718
0.468082
0.470582
0.475282
0.482953
0.494593
0.511477
0.535171
0.56745
0.610063
0.664329
0.730625
0.80802
0.894293
0.977713
1.05443
1.12345
1.18516
1.24101
1.29289
1.34265
1.39175
1.4412
1.49155
1.5431
1.59596
1.6501
1.70539
1.7615
1.81797
1.87411
1.92905
1.98087
2.02811
2.06931
2.1028
2.12683
2.13958
2.13929
2.12429
2.0931
2.04437
1.97688
1.88935
1.78103
1.65808
1.52553
1.38638
1.24476
1.10545
0.973511
0.853827
0.750581
0.666884
0.604668
0.564912
0.548016
0.553998
0.582376
0.632147
0.70286
0.797797
0.93042
1.11443
1.36388
1.66151
1.93005
2.07232
2.08697
2.08019
2.11134
2.18859
2.29945
2.42893
2.564
2.69531
2.81768
2.92941
3.0311
3.12456
3.21192
3.29522
3.37616
3.45602
3.53568
3.6156
3.69584
3.77596
3.85536
3.93365
4.00963
4.08177
4.14836
4.20761
4.25771
4.29699
4.32401
4.33763
4.33715
4.32232
4.29338
4.25102
4.19637
4.13089
4.05627
3.97433
3.88688
3.79556
3.70186
3.60879
3.51838
3.43116
3.34743
3.26676
3.18887
3.11353
3.04044
2.96918
2.89924
2.82999
2.76079
2.69091
2.61967
2.54638
2.47042
2.39126
2.30847
2.22178
2.1311
2.03651
1.93832
1.83706
1.73361
1.62929
1.52465
1.42076
1.3187
1.21956
1.12457
1.03518
0.95285
0.878721
0.813401
0.756951
0.709012
0.668971
0.636099
0.609644
0.588882
0.573133
0.561771
0.554221
0.549957
0.548516
0.549444
0.552515
0.55702
0.565113
0.0590282
0.164956
0.23241
0.28173
0.321798
0.356675
0.387972
0.416213
0.441515
0.463869
0.483255
0.499687
0.51324
0.524057
0.532353
0.538417
0.542611
0.545369
0.547204
0.548717
0.550631
0.553851
0.558737
0.565913
0.576034
0.589833
0.608181
0.632153
0.663086
0.702581
0.752415
0.814275
0.889348
0.977854
1.07869
1.18236
1.28303
1.37724
1.46337
1.54139
1.61231
1.67764
1.73883
1.79707
1.85318
1.90773
1.96114
2.01376
2.06584
2.11751
2.1687
2.21908
2.268
2.31447
2.35772
2.39685
2.43072
2.45793
2.47693
2.4861
2.48381
2.4685
2.4387
2.39301
2.33003
2.24833
2.1463
2.02256
1.88415
1.73491
1.57783
1.41743
1.25926
1.10955
0.974604
0.860306
0.771598
0.712252
0.685003
0.691882
0.734541
0.814729
0.935877
1.10738
1.33311
1.61173
1.92459
2.20008
2.33642
2.32922
2.30169
2.32981
2.42214
2.55962
2.71861
2.88012
3.03175
3.16731
3.28542
3.38766
3.47708
3.55711
3.63096
3.70138
3.77059
3.84024
3.91148
3.98492
4.06068
4.13837
4.21792
4.29877
4.37961
4.45872
4.53412
4.60367
4.66522
4.71665
4.75611
4.78204
4.7933
4.78925
4.76979
4.73534
4.68681
4.62555
4.55318
4.47154
4.38253
4.28774
4.19133
4.09491
3.99948
3.90592
3.81484
3.72644
3.6408
3.55786
3.47746
3.39925
3.32278
3.24745
3.1726
3.09748
3.02129
2.94323
2.86252
2.77845
2.69038
2.59781
2.50041
2.39804
2.29082
2.17916
2.06399
1.94632
1.82685
1.70684
1.58765
1.47069
1.35744
1.24951
1.14853
1.05595
0.972758
0.899417
0.835908
0.781853
0.736664
0.699656
0.670118
0.647348
0.630664
0.619397
0.61289
0.610507
0.611619
0.615743
0.622216
0.631687
0.083985
0.197766
0.268879
0.322697
0.367655
0.406885
0.441662
0.472564
0.499897
0.523846
0.54455
0.562149
0.57681
0.588749
0.598245
0.605649
0.611393
0.616001
0.620102
0.624461
0.630043
0.637607
0.647871
0.661637
0.679749
0.703116
0.732738
0.769754
0.815485
0.871437
0.939216
1.0203
1.11563
1.22552
1.34201
1.46055
1.57643
1.68602
1.78716
1.87899
1.96166
2.03585
2.10243
2.16229
2.21631
2.26538
2.31042
2.35231
2.39182
2.42951
2.46561
2.50003
2.53234
2.56176
2.58899
2.61419
2.63666
2.65525
2.66855
2.67501
2.67304
2.66107
2.63758
2.60111
2.55014
2.483
2.39776
2.29209
2.1637
2.02091
1.86518
1.69994
1.53059
1.36408
1.2084
1.07187
0.96245
0.887215
0.85223
0.862913
0.924613
1.04334
1.22724
1.4737
1.76734
2.07836
2.34372
2.47878
2.46979
2.43063
2.45185
2.54925
2.70109
2.87902
3.06003
3.22896
3.37789
3.50442
3.60983
3.69735
3.77092
3.83448
3.89163
3.94542
3.99843
4.05265
4.10958
4.17017
4.23478
4.3032
4.37575
4.45201
4.53072
4.61014
4.68817
4.76254
4.83088
4.89086
4.94033
4.97741
5.0006
5.00889
5.00176
4.97925
4.94191
4.89075
4.82715
4.75282
4.66936
4.58114
4.48965
4.39642
4.30273
4.20967
4.11808
4.02851
3.94131
3.85666
3.77456
3.69483
3.61714
3.541
3.46579
3.39078
3.31516
3.23804
3.1585
3.07565
2.98863
2.89668
2.79918
2.6957
2.58608
2.47051
2.34987
2.22449
2.09543
1.96406
1.83195
1.70078
1.57234
1.44854
1.33128
1.22232
1.12303
1.03426
0.95632
0.88909
0.83213
0.784815
0.746433
0.716249
0.693528
0.677541
0.667557
0.662844
0.662663
0.666351
0.673157
0.683016
0.115451
0.230179
0.307454
0.368185
0.418846
0.462266
0.499963
0.53286
0.561554
0.586466
0.607917
0.626187
0.641557
0.654333
0.664871
0.673591
0.680999
0.687699
0.694423
0.702067
0.711752
0.724186
0.740268
0.760962
0.787296
0.820362
0.861323
0.911429
0.972024
1.04454
1.13039
1.2308
1.3456
1.46972
1.59949
1.7305
1.85826
1.97887
2.08947
2.18827
2.27448
2.34803
2.40945
2.45974
2.50021
2.53248
2.55823
2.5791
2.59651
2.61156
2.62499
2.63721
2.64826
2.65787
2.66823
2.68037
2.69378
2.70732
2.71943
2.72837
2.73227
2.72934
2.71785
2.69624
2.66295
2.61627
2.55412
2.47386
2.37184
2.24814
2.10786
1.95209
1.78512
1.61386
1.44746
1.2965
1.1721
1.08505
1.04548
1.06315
1.14794
1.31003
1.54868
1.84356
2.15598
2.42116
2.56395
2.56276
2.51305
2.51808
2.60673
2.76034
2.94811
3.14369
3.3289
3.49325
3.63234
3.74604
3.83672
3.90804
3.96403
4.0087
4.04579
4.07869
4.11036
4.14332
4.17957
4.22053
4.26699
4.31899
4.37709
4.44125
4.51037
4.58281
4.65652
4.72924
4.79859
4.86217
4.91772
4.96315
4.9967
5.017
5.02314
5.01469
4.99172
4.95476
4.90474
4.8434
4.77383
4.69786
4.61713
4.53321
4.44744
4.36102
4.27492
4.18994
4.10666
4.02547
3.94658
3.87003
3.79567
3.72318
3.65205
3.58166
3.51121
3.43979
3.36641
3.29002
3.20954
3.12394
3.03227
2.93378
2.82792
2.71454
2.59413
2.46671
2.33336
2.19552
2.05487
1.91333
1.77299
1.63604
1.50475
1.38123
1.26724
1.16405
1.07237
0.992384
0.923855
0.866269
0.818935
0.781082
0.75191
0.730615
0.716391
0.708429
0.705906
0.708031
0.713939
0.723158
0.147665
0.266341
0.352082
0.418753
0.473251
0.51923
0.558721
0.592942
0.622675
0.648474
0.67077
0.689939
0.706345
0.72037
0.732435
0.74302
0.75269
0.762114
0.772102
0.783646
0.797977
0.815779
0.838064
0.865941
0.900601
0.943312
0.995401
1.05824
1.13323
1.22176
1.32513
1.44219
1.56996
1.70561
1.84534
1.98463
2.11877
2.24339
2.35487
2.45064
2.52924
2.59035
2.63465
2.66371
2.67971
2.68521
2.68282
2.67501
2.66392
2.65136
2.63871
2.62699
2.61689
2.60868
2.606
2.61019
2.62062
2.63583
2.65388
2.6725
2.6893
2.70191
2.70821
2.70637
2.69485
2.67213
2.63641
2.58525
2.51521
2.42212
2.30836
2.17453
2.02269
1.85857
1.6914
1.53341
1.39881
1.30264
1.25989
1.28527
1.3926
1.59032
1.86162
2.16862
2.44496
2.61267
2.63383
2.57514
2.55416
2.61974
2.76187
2.94975
3.1541
3.3535
3.53445
3.6899
3.81748
3.91795
3.99379
4.0484
4.08557
4.10918
4.12309
4.13102
4.13645
4.14251
4.15187
4.16659
4.18801
4.2166
4.25301
4.29768
4.34976
4.4078
4.46993
4.53402
4.59785
4.65912
4.71559
4.76515
4.80588
4.83614
4.85464
4.86049
4.85323
4.83278
4.80009
4.75708
4.70529
4.64621
4.58133
4.51203
4.4396
4.36522
4.28995
4.2147
4.14024
4.06715
3.99589
3.92671
3.85969
3.79472
3.73152
3.66957
3.60822
3.54659
3.48366
3.41828
3.34919
3.2751
3.19475
3.10697
3.0108
2.90561
2.79123
2.66755
2.53553
2.39655
2.25233
2.10492
1.95664
1.80997
1.66751
1.53174
1.40486
1.28858
1.18404
1.09182
1.01196
0.944146
0.887762
0.842041
0.806132
0.779149
0.7602
0.748389
0.742808
0.742563
0.746683
0.75444
0.176436
0.305247
0.399289
0.469928
0.526738
0.574377
0.615238
0.650685
0.681589
0.708574
0.732146
0.752751
0.770819
0.786789
0.801126
0.814352
0.827068
0.839985
0.85396
0.870039
0.889517
0.913057
0.941779
0.976919
1.01981
1.07188
1.13457
1.20938
1.29764
1.40088
1.51701
1.6448
1.78188
1.92491
2.06966
2.21121
2.34437
2.4642
2.56648
2.64819
2.70775
2.7451
2.76162
2.75978
2.74283
2.7143
2.67772
2.63641
2.59331
2.55102
2.51173
2.47725
2.44892
2.42761
2.41801
2.421
2.4355
2.45964
2.49105
2.52691
2.56407
2.5993
2.62964
2.65268
2.6667
2.67045
2.66272
2.64175
2.60471
2.54722
2.46743
2.36494
2.23934
2.09404
1.93686
1.78035
1.64112
1.53847
1.49274
1.52363
1.64758
1.86309
2.14019
2.41992
2.62168
2.68557
2.63466
2.58153
2.60973
2.72584
2.90239
3.10781
3.31724
3.51389
3.68769
3.83366
3.95036
4.03853
4.10026
4.13838
4.15623
4.15746
4.14597
4.12579
4.10096
4.07533
4.05238
4.03498
4.02524
4.0243
4.03271
4.0514
4.07981
4.11671
4.16043
4.2091
4.26075
4.31333
4.3648
4.41315
4.45645
4.49294
4.52105
4.53951
4.54732
4.54411
4.53054
4.50752
4.47602
4.43707
4.39175
4.34116
4.28637
4.22846
4.16843
4.10725
4.04578
3.9848
3.92494
3.8667
3.81041
3.75622
3.70408
3.65372
3.60463
3.55608
3.5071
3.4565
3.4029
3.34478
3.28058
3.20872
3.12776
3.03649
2.93385
2.81974
2.69486
2.5604
2.41801
2.26979
2.11817
1.96588
1.81581
1.6708
1.53347
1.40599
1.28997
1.18642
1.09577
1.01797
0.952581
0.898905
0.856084
0.823171
0.799186
0.783139
0.77403
0.770866
0.772577
0.778261
0.200201
0.344643
0.445612
0.5191
0.577753
0.626924
0.669202
0.706039
0.738379
0.766919
0.792236
0.814845
0.835227
0.853858
0.871228
0.887872
0.9044
0.921536
0.940151
0.961303
0.986257
1.01572
1.05091
1.09318
1.14396
1.20475
1.2771
1.36273
1.4616
1.57359
1.69768
1.83199
1.97361
2.11864
2.26225
2.39895
2.523
2.62895
2.71232
2.77007
2.80098
2.80571
2.78659
2.74712
2.69153
2.62427
2.54979
2.47231
2.39579
2.32386
2.25974
2.20608
2.16492
2.13761
2.12824
2.13609
2.15963
2.19704
2.24612
2.30405
2.36722
2.4314
2.49225
2.54611
2.59046
2.62394
2.64592
2.65565
2.65139
2.62969
2.58715
2.52144
2.43021
2.31399
2.17792
2.03309
1.89691
1.79194
1.74339
1.77523
1.90398
2.11657
2.3703
2.59253
2.70751
2.69323
2.62037
2.59877
2.67231
2.82334
3.0194
3.23205
3.44081
3.63237
3.7989
3.93652
4.04394
4.12153
4.17067
4.19349
4.19271
4.1716
4.134
4.08415
4.02663
3.96608
3.90691
3.85304
3.80756
3.77254
3.74845
3.73654
3.73645
3.74709
3.76699
3.79453
3.82806
3.86585
3.90619
3.9473
3.98741
4.02481
4.05787
4.08512
4.10502
4.11695
4.12104
4.11752
4.10669
4.08903
4.06508
4.03553
4.00112
3.96267
3.92104
3.87714
3.83185
3.78604
3.74051
3.69597
3.653
3.61204
3.5733
3.53679
3.50226
3.46916
3.43666
3.40362
3.36862
3.33
3.28589
3.23436
3.17342
3.1011
3.01563
2.91676
2.80478
2.68059
2.54565
2.40196
2.25202
2.0987
1.94513
1.79447
1.64973
1.51353
1.38796
1.27451
1.17403
1.08683
1.01274
0.95121
0.901445
0.862488
0.833292
0.812778
0.799849
0.793414
0.792307
0.795492
0.218988
0.38282
0.489643
0.565824
0.626448
0.677311
0.72116
0.759562
0.793564
0.823965
0.851428
0.876533
0.899804
0.921732
0.942805
0.963543
0.984537
1.00649
1.03027
1.05696
1.08744
1.1228
1.16428
1.21331
1.27147
1.33995
1.41985
1.51217
1.61708
1.73408
1.86177
1.99776
2.1386
2.27975
2.41578
2.54061
2.64804
2.73239
2.78918
2.81577
2.81162
2.77831
2.71914
2.63862
2.54197
2.4347
2.32245
2.21075
2.10482
2.00935
1.92824
1.86447
1.82015
1.79668
1.79359
1.80807
1.83893
1.88569
1.94787
2.02417
2.11171
2.20584
2.30061
2.39013
2.46997
2.5376
2.59238
2.63446
2.66335
2.67692
2.67201
2.64538
2.59343
2.5142
2.40957
2.28764
2.16436
2.06328
2.01261
2.03901
2.15702
2.34532
2.5515
2.70105
2.73798
2.67847
2.6126
2.62514
2.7319
2.90423
3.10974
3.32388
3.52964
3.71593
3.87634
4.00747
4.10785
4.17722
4.21618
4.22603
4.20876
4.16713
4.1047
4.02581
3.93546
3.83907
3.74212
3.64973
3.56628
3.49501
3.43662
3.39229
3.36164
3.34359
3.33674
3.33963
3.35085
3.36901
3.39273
3.42056
3.45101
3.48267
3.51416
3.54355
3.56941
3.59125
3.60859
3.62107
3.62841
3.63044
3.62714
3.61865
3.60524
3.58736
3.56559
3.54066
3.51337
3.48459
3.45521
3.4261
3.39807
3.3718
3.34782
3.32643
3.30769
3.29131
3.27669
3.26282
3.24834
3.23152
3.21031
3.1824
3.14529
3.09607
3.03261
2.95415
2.86049
2.7521
2.6301
2.49634
2.35323
2.20372
2.05108
1.89876
1.7501
1.60815
1.47547
1.35403
1.24514
1.14953
1.06736
0.998325
0.941774
0.896802
0.862345
0.837258
0.820354
0.810448
0.806281
0.8067
0.233888
0.41882
0.531041
0.610212
0.673077
0.725801
0.771342
0.811435
0.847277
0.879793
0.909741
0.937764
0.964416
0.990185
1.01553
1.04093
1.06692
1.09416
1.12344
1.15575
1.19193
1.23307
1.28039
1.33521
1.39884
1.47247
1.55702
1.65309
1.7606
1.87873
2.00567
2.1386
2.27354
2.40541
2.52824
2.63554
2.72084
2.77845
2.80421
2.79608
2.75436
2.68162
2.58226
2.46203
2.32765
2.18639
2.04572
1.91267
1.79324
1.6919
1.6116
1.55387
1.5192
1.50862
1.51246
1.52778
1.555
1.59636
1.65478
1.7325
1.82964
1.94301
2.06589
2.18972
2.30689
2.41207
2.50299
2.58025
2.64407
2.69332
2.72625
2.73984
2.73
2.69321
2.62855
2.54041
2.44115
2.35216
2.30146
2.31613
2.40809
2.55261
2.69511
2.76979
2.746
2.66598
2.61736
2.65743
2.78363
2.96533
3.17305
3.38534
3.58783
3.76983
3.9258
4.05271
4.14869
4.21275
4.24471
4.24504
4.21492
4.15643
4.07272
3.96799
3.84751
3.71737
3.5841
3.45421
3.33357
3.22688
3.13561
3.06038
3.00055
2.95484
2.92169
2.89963
2.8873
2.88345
2.88694
2.89658
2.91119
2.92993
2.95117
2.97368
2.99681
3.01998
3.0426
3.06396
3.08336
3.10007
3.11348
3.12309
3.12862
3.13
3.1274
3.12121
3.11202
3.10059
3.0878
3.07459
3.06191
3.05068
3.04169
3.03557
3.03267
3.03307
3.03643
3.042
3.04857
3.05445
3.0575
3.05514
3.04439
3.02142
2.98378
2.93008
2.85947
2.77188
2.66798
2.54929
2.41805
2.27716
2.12999
1.98017
1.83134
1.68694
1.54995
1.42283
1.30736
1.20471
1.11542
1.03951
0.976557
0.92577
0.886133
0.856479
0.835558
0.822098
0.814756
0.812273
0.245672
0.450254
0.568731
0.65152
0.716983
0.771789
0.819192
0.861151
0.899045
0.933942
0.966701
0.998023
1.02848
1.05853
1.0886
1.11909
1.15044
1.18322
1.21811
1.25597
1.29758
1.34397
1.39629
1.45569
1.52334
1.60021
1.68703
1.7841
1.89108
2.00684
2.12926
2.25513
2.38007
2.49863
2.60449
2.69092
2.75141
2.78049
2.77447
2.73203
2.65444
2.54547
2.41107
2.25902
2.09844
1.93904
1.79004
1.65889
1.55049
1.46708
1.40881
1.37422
1.3608
1.36351
1.36977
1.37726
1.38786
1.40634
1.43935
1.49383
1.57498
1.68405
1.81632
1.96169
2.10942
2.25019
2.37745
2.492
2.59151
2.67812
2.75061
2.80601
2.84037
2.84965
2.83122
2.78609
2.7218
2.65455
2.60818
2.60694
2.66126
2.74813
2.81889
2.82358
2.75469
2.66648
2.63336
2.69048
2.82564
3.00914
3.21438
3.42215
3.61939
3.79723
3.95035
4.0754
4.17006
4.23207
4.26075
4.25584
4.21767
4.14756
4.04814
3.9233
3.77831
3.61973
3.45503
3.29203
3.1382
2.99994
2.88017
2.77864
2.69423
2.6253
2.56995
2.52636
2.4929
2.46813
2.45096
2.44017
2.43473
2.43381
2.43659
2.44286
2.45266
2.46599
2.48264
2.50214
2.52367
2.54623
2.5687
2.59
2.6092
2.62561
2.63885
2.64884
2.65579
2.66021
2.6628
2.66448
2.66623
2.66912
2.67415
2.68222
2.69401
2.70994
2.73004
2.75387
2.78049
2.80838
2.83542
2.85891
2.87547
2.88054
2.87128
2.84554
2.80177
2.73919
2.65789
2.55893
2.44424
2.31656
2.17925
2.03606
1.89087
1.74744
1.60916
1.47893
1.359
1.25099
1.15587
1.07401
1.00526
0.949042
0.904449
0.870347
0.845461
0.828461
0.817928
0.812509
0.253152
0.477283
0.601898
0.688355
0.756503
0.813507
0.862935
0.906983
0.947212
0.984826
1.02078
1.05581
1.09049
1.12526
1.16047
1.19644
1.23351
1.2721
1.31276
1.35619
1.40312
1.45448
1.51125
1.57444
1.64498
1.72367
1.81098
1.90699
2.01111
2.12197
2.23723
2.35343
2.46599
2.56924
2.65673
2.72171
2.75784
2.75996
2.72495
2.65227
2.5443
2.40636
2.24656
2.07537
1.90463
1.74598
1.60886
1.4992
1.41925
1.36829
1.34342
1.33985
1.35155
1.36591
1.37339
1.37131
1.36141
1.34955
1.34494
1.35839
1.40037
1.47852
1.59381
1.73739
1.8977
2.06367
2.21982
2.36617
2.50232
2.62804
2.74186
2.84095
2.92148
2.97938
3.01126
3.01576
2.99577
2.96062
2.92642
2.91089
2.92234
2.94463
2.94174
2.88281
2.77805
2.68353
2.65807
2.72135
2.85676
3.03637
3.23589
3.43768
3.62969
3.80381
3.95475
4.07887
4.17338
4.23599
4.26512
4.25961
4.2188
4.14305
4.03481
3.8974
3.73585
3.55689
3.36861
3.17991
2.99973
2.83609
2.69408
2.57265
2.47021
2.38471
2.3137
2.25472
2.20554
2.16408
2.12919
2.09945
2.07334
2.05014
2.02974
2.01265
1.99981
1.99225
1.99078
1.99573
2.00683
2.02327
2.04378
2.06692
2.09119
2.11528
2.13816
2.15914
2.17793
2.1946
2.20954
2.22347
2.23728
2.25203
2.26886
2.28884
2.31294
2.34192
2.37616
2.41563
2.45973
2.50725
2.55626
2.60409
2.64713
2.68038
2.70048
2.70452
2.69011
2.65567
2.60057
2.52525
2.43121
2.32088
2.1975
2.06485
1.92698
1.7879
1.65139
1.52073
1.39865
1.28719
1.18775
1.10108
1.02737
0.966297
0.91712
0.878802
0.850096
0.829646
0.815985
0.807677
0.256143
0.498278
0.62833
0.718175
0.788923
0.848194
0.899855
0.946314
0.98929
1.03009
1.06973
1.10899
1.14842
1.18844
1.22933
1.27132
1.31465
1.35958
1.4065
1.45593
1.50856
1.56515
1.62651
1.69343
1.76663
1.84666
1.9338
2.02789
2.12818
2.23313
2.34028
2.44609
2.54594
2.63416
2.70438
2.75002
2.76497
2.74447
2.68592
2.58952
2.45882
2.30082
2.12591
1.94704
1.77794
1.63065
1.51328
1.42944
1.37915
1.36005
1.36742
1.39366
1.42806
1.45585
1.46922
1.46379
1.43962
1.40232
1.36234
1.3327
1.327
1.35829
1.43527
1.55276
1.70071
1.86626
2.03817
2.20985
2.37797
2.54052
2.69518
2.83859
2.96655
3.07466
3.15901
3.21693
3.24778
3.25424
3.24292
3.22164
3.19413
3.15324
3.07957
2.96217
2.82413
2.71845
2.69034
2.74959
2.87788
3.04896
3.24013
3.43474
3.62124
3.79178
3.941
4.06499
4.16066
4.22543
4.25715
4.25405
4.21499
4.13985
4.02999
3.88821
3.71916
3.52941
3.32726
3.12224
2.92431
2.7431
2.58537
2.45046
2.33644
2.24079
2.16035
2.09196
2.03282
1.98048
1.93295
1.88834
1.84508
1.8022
1.75956
1.71793
1.67882
1.64423
1.61614
1.59615
1.58513
1.58311
1.58935
1.6025
1.62088
1.64275
1.66651
1.69086
1.7149
1.73814
1.76053
1.7824
1.8044
1.82746
1.85265
1.88115
1.91409
1.95248
1.99707
2.04821
2.10576
2.16891
2.2361
2.30487
2.37167
2.43135
2.48
2.51392
2.52987
2.52536
2.4989
2.45018
2.38006
2.29058
2.18469
2.0661
1.93894
1.80742
1.67561
1.5472
1.42529
1.31239
1.21028
1.12014
1.04249
0.977288
0.924039
0.88185
0.849554
0.825814
0.809147
0.798055
0.254054
0.510974
0.64507
0.73762
0.810673
0.87222
0.926363
0.975667
1.02194
1.06655
1.11053
1.15465
1.1995
1.24544
1.29274
1.34156
1.39202
1.44429
1.49856
1.55516
1.61471
1.6778
1.74502
1.81694
1.89402
1.97658
2.06465
2.15788
2.25536
2.35548
2.45574
2.55265
2.64168
2.71737
2.77357
2.80398
2.80281
2.7656
2.69018
2.57737
2.43159
2.26115
2.0781
1.89694
1.73215
1.59529
1.49308
1.42766
1.39827
1.40237
1.43297
1.48034
1.53096
1.57149
1.59387
1.59196
1.56331
1.51164
1.44738
1.38449
1.33767
1.32174
1.3486
1.42211
1.53759
1.68522
1.85435
2.03635
2.22531
2.41709
2.60785
2.79309
2.96752
3.12573
3.26291
3.37531
3.46014
3.51512
3.53802
3.52527
3.47248
3.3791
3.24253
3.07098
2.89788
2.77276
2.73107
2.77683
2.8913
3.04953
3.22979
3.41581
3.59617
3.76293
3.91053
4.03479
4.13236
4.20034
4.2362
4.23775
4.20345
4.13269
4.0262
3.88631
3.71735
3.52569
3.31964
3.10889
2.90371
2.71404
2.5473
2.40439
2.28351
2.18164
2.0952
2.02065
1.95483
1.89506
1.83898
1.78441
1.72944
1.67269
1.61357
1.55252
1.49101
1.43133
1.37618
1.32817
1.2894
1.26116
1.24376
1.23665
1.23857
1.24787
1.26273
1.28146
1.30263
1.32523
1.34867
1.3728
1.39789
1.42456
1.45371
1.4864
1.52383
1.56714
1.61733
1.67515
1.74089
1.81426
1.89421
1.97873
2.06461
2.14698
2.22138
2.28342
2.32898
2.35461
2.35786
2.33748
2.29359
2.22759
2.14208
2.04052
1.92702
1.80592
1.68154
1.55786
1.43841
1.32605
1.223
1.1308
1.05033
0.981875
0.92519
0.87958
0.844007
0.817199
0.797695
0.783968
0.246045
0.512756
0.648717
0.74284
0.817676
0.881434
0.938351
0.991042
1.04132
1.09051
1.13963
1.18946
1.24057
1.29337
1.34814
1.40505
1.46419
1.52564
1.58945
1.65572
1.72486
1.79735
1.8736
1.95388
2.0384
2.12717
2.21994
2.31611
2.41459
2.51364
2.61077
2.70255
2.78466
2.8519
2.89842
2.91836
2.90622
2.85747
2.77067
2.64713
2.49183
2.31385
2.12607
1.94363
1.78121
1.64994
1.55587
1.50051
1.48198
1.4955
1.53326
1.58688
1.64257
1.68932
1.71812
1.72119
1.69305
1.63435
1.55435
1.46761
1.38915
1.33428
1.31723
1.34602
1.42078
1.53642
1.68561
1.8608
2.05545
2.26408
2.48147
2.7018
2.91837
3.12414
3.31265
3.47869
3.61794
3.72533
3.79265
3.80612
3.74972
3.62326
3.4372
3.21672
3.00511
2.85091
2.78438
2.80705
2.90064
3.04118
3.20733
3.38277
3.55575
3.71801
3.8636
3.98806
4.08773
4.15945
4.20039
4.2081
4.1807
4.11723
4.01802
3.88504
3.72231
3.53595
3.33403
3.126
2.92181
2.73095
2.56054
2.41301
2.28732
2.18058
2.08915
2.00939
1.93807
1.87242
1.81002
1.74862
1.68613
1.62081
1.55162
1.47845
1.40229
1.32514
1.24968
1.17884
1.11534
1.06136
1.01828
0.986572
0.965919
0.955316
0.953328
0.958338
0.968775
0.983294
1.0009
1.02099
1.04341
1.06838
1.09647
1.12852
1.16558
1.20879
1.2593
1.3181
1.38593
1.46305
1.54904
1.64256
1.7411
1.8406
1.93624
2.02297
2.09584
2.15039
2.1831
2.1917
2.17534
2.13468
2.07173
1.98962
1.89228
1.7841
1.66954
1.55289
1.43799
1.32807
1.22575
1.13292
1.05083
0.980066
0.920669
0.872171
0.833704
0.804107
0.781981
0.765803
0.231045
0.499563
0.634071
0.727976
0.803674
0.869347
0.929185
0.985703
1.04058
1.09501
1.14991
1.20601
1.26391
1.3241
1.38694
1.45271
1.5216
1.5937
1.66903
1.74756
1.82942
1.91505
2.00467
2.09831
2.19585
2.29693
2.40095
2.50693
2.61345
2.71852
2.81947
2.91284
2.99435
3.05911
3.1007
3.11414
3.09504
3.03991
2.94743
2.81916
2.66019
2.47961
2.29006
2.10626
1.94239
1.80939
1.7135
1.65635
1.63562
1.64562
1.67845
1.72658
1.77687
1.81948
1.84578
1.84726
1.8164
1.75114
1.659
1.55402
1.45104
1.36569
1.31328
1.30345
1.33879
1.41782
1.53716
1.69232
1.87825
2.08973
2.3212
2.56609
2.81657
3.06383
3.29917
3.51506
3.70523
3.86287
3.97694
4.02773
3.98917
3.85499
3.64114
3.38423
3.13632
2.94825
2.84978
2.84284
2.9105
3.02965
3.17903
3.34192
3.50605
3.6626
3.80519
3.92896
4.02999
4.10489
4.15063
4.16457
4.14466
4.08972
3.99984
3.87675
3.72416
3.54788
3.35559
3.15619
2.95888
2.77223
2.60242
2.453
2.3239
2.21284
2.1165
2.03145
1.95456