/*--------------------------------*- C++ -*----------------------------------*\
| =========                 |                                                 |
| \\      /  F ield         | OpenFOAM: The Open Source CFD Toolbox           |
|  \\    /   O peration     | Version:  2112                                  |
|   \\  /    A nd           | Website:  www.openfoam.com                      |
|    \\/     M anipulation  |                                                 |
\*---------------------------------------------------------------------------*/
FoamFile
{
    version     2.0;
    format      ascii;
    arch        "LSB;label=32;scalar=64";
    class       volScalarField;
    location    "0.3";
    object      epsilonU;
}
// * * * * * * * * * * * * * * * * * * * * * * * * * * * * * * * * * * * * * //

dimensions      [0 2 -3 0 0 0 0];

internalField   nonuniform List<scalar> 
12225
(
2117.65
3609.98
4533.16
4958.41
5063.36
4992.41
4836.54
4647.47
4452.98
4267.06
4096.02
3942.1
3805.5
3685.54
3581.21
3491.51
3415.79
3352.63
164.447
343.193
478.544
566.061
616.055
640.296
649.219
650.554
649.009
647.189
646.437
647.351
650.085
654.525
660.382
667.188
674.718
681.931
35.2912
63.3897
88.9924
109.86
125.613
136.401
142.991
146.43
147.679
147.507
146.489
145.034
143.41
141.778
140.214
138.713
137.249
135.483
19.2588
25.9573
32.7976
39.0426
44.4256
48.829
52.2608
54.8173
56.6292
57.83
58.5439
58.8787
58.9238
58.7494
58.4082
57.9341
57.3508
56.6405
15.8649
17.8235
20.1053
22.3942
24.5337
26.4382
28.072
29.4334
30.5392
31.4146
32.0877
32.5869
32.9383
33.1654
33.2878
33.3211
33.2775
33.1613
14.9666
15.4714
16.2182
17.0732
17.9493
18.7909
19.5648
20.2549
20.8559
21.3688
21.7984
22.1513
22.4349
22.6565
22.8231
22.9407
23.0146
23.0467
14.7202
14.7315
14.878
15.1193
15.4166
15.7386
16.062
16.3716
16.6582
16.9169
17.1454
17.3435
17.5122
17.6528
17.7672
17.8573
17.9249
17.97
14.655
14.5046
14.4189
14.3917
14.4115
14.4649
14.5399
14.6263
14.7167
14.8058
14.8901
14.9671
15.0355
15.0945
15.1438
15.1835
15.2138
15.2338
14.6386
14.4396
14.2718
14.1361
14.0306
13.9517
13.8944
13.8541
13.8263
13.8075
13.7946
13.7853
13.778
13.7712
13.764
13.7556
13.7456
13.7332
14.6347
14.4224
14.2287
14.054
13.8985
13.7612
13.6407
13.5352
13.4425
13.3608
13.2883
13.2234
13.1648
13.1112
13.0617
13.0155
12.972
12.9306
14.6337
14.4181
14.217
14.0301
13.8571
13.6975
13.5507
13.4158
13.292
13.1783
13.0736
12.9772
12.8881
12.8054
12.7286
12.6568
12.5896
12.5269
14.6335
14.4171
14.2141
14.024
13.8459
13.6794
13.5237
13.3784
13.2427
13.1161
12.9978
12.8872
12.7838
12.687
12.5961
12.5108
12.4306
12.3557
14.6334
14.4167
14.2132
14.022
13.8423
13.6734
13.5146
13.3652
13.2247
13.0925
12.9681
12.8509
12.7406
12.6365
12.5384
12.4457
12.3582
12.2763
14.6333
14.4165
14.2128
14.0212
13.841
13.6713
13.5114
13.3606
13.2183
13.084
12.9572
12.8373
12.7239
12.6166
12.515
12.4187
12.3276
12.242
14.6332
14.4163
14.2125
14.0208
13.8404
13.6704
13.5101
13.3589
13.2161
13.0811
12.9535
12.8327
12.7183
12.6099
12.5071
12.4095
12.317
12.2301
14.6332
14.4162
14.2123
14.0205
13.84
13.6698
13.5094
13.358
13.215
13.0798
12.9519
12.8308
12.7161
12.6074
12.5043
12.4064
12.3135
12.2262
14.6332
14.4162
14.2122
14.0203
13.8397
13.6694
13.5089
13.3574
13.2143
13.0789
12.9509
12.8298
12.715
12.6061
12.5029
12.405
12.312
12.2247
14.6331
14.4161
14.2121
14.0202
13.8395
13.6692
13.5086
13.357
13.2138
13.0784
12.9504
12.8291
12.7143
12.6055
12.5022
12.4043
12.3114
12.2242
14.6331
14.4161
14.2121
14.0201
13.8394
13.6691
13.5085
13.3569
13.2137
13.0783
12.9502
12.829
12.7142
12.6054
12.5022
12.4043
12.3114
12.2242
14.6331
14.4161
14.2122
14.0203
13.8396
13.6693
13.5087
13.3572
13.214
13.0787
12.9507
12.8296
12.7148
12.6061
12.503
12.4053
12.3125
12.2255
14.6332
14.4162
14.2123
14.0205
13.8399
13.6698
13.5094
13.358
13.2152
13.0802
12.9526
12.8318
12.7176
12.6094
12.5069
12.4098
12.3177
12.2313
14.6332
14.4164
14.2127
14.0212
13.8412
13.672
13.5127
13.3629
13.2219
13.0892
12.9642
12.8464
12.7353
12.6305
12.5317
12.4384
12.3503
12.2679
14.6335
14.4173
14.2153
14.0268
13.8514
13.6886
13.5375
13.3977
13.2682
13.1483
13.0371
12.9341
12.8384
12.7493
12.6664
12.5889
12.5166
12.4497
14.6353
14.4258
14.2371
14.07
13.9241
13.7982
13.6902
13.5979
13.519
13.4512
13.3927
13.3418
13.297
13.2571
13.2212
13.1885
13.1583
13.1309
14.6523
14.4924
14.3889
14.3378
14.3305
14.3574
14.4088
14.4762
14.553
14.6338
14.7147
14.7931
14.867
14.9352
14.9971
15.0524
15.1013
15.1443
14.7827
14.9199
15.2276
15.649
16.1343
16.6453
17.1544
17.6433
18.1007
18.52
18.8981
19.2342
19.5294
19.786
20.0066
20.1945
20.3531
20.4861
15.6395
17.2506
19.2172
21.2906
23.3363
25.2738
27.0484
28.6313
30.0127
31.1946
32.1869
33.005
33.6669
34.1916
34.5981
34.9044
35.1273
35.2839
21.1361
30.3148
39.7055
48.703
56.9952
64.3324
70.5197
75.5293
79.4311
82.3405
84.3969
85.747
86.5311
86.8758
86.8905
86.6699
86.2908
85.8311
70.7129
134.097
193.326
246.849
291.99
327.208
352.492
369.356
379.702
385.265
387.493
387.527
386.226
384.213
381.932
379.703
377.763
376.4
983.083
1559.89
2040.13
2442.42
2743.42
2943.99
3057.6
3102.34
3096.33
3055.28
2991.62
2914.63
2830.93
2745.06
2660.04
2577.75
2499.21
2425.16
13.9616
14.2143
21.2263
30.6061
42.9634
55.7846
68.621
78.8987
86.7125
92.1989
95.4672
96.6546
95.908
93.3669
89.234
84.8161
81.3088
78.237
75.6005
73.8474
73.9143
77.1829
85.0624
97.9703
113.891
130.131
143.2
152.95
161.412
171.421
185.831
206.645
234.4
268.117
305.831
345.325
384.682
422.524
458.009
490.718
520.526
547.497
571.814
593.745
613.64
631.957
649.291
664.719
676.005
683.088
685.859
684.187
677.968
667.162
651.813
632.065
608.163
580.451
549.359
515.39
479.099
441.094
402.038
362.697
323.986
287.071
253.681
225.959
204.588
186.579
171.912
160.946
153.907
150.833
151.601
155.952
163.522
173.827
186.219
199.802
213.312
225.005
232.631
233.8
227.363
216.009
206.354
200.279
199.777
205.62
216.458
228.957
238.936
243.814
246.074
255.006
284.588
350.498
437.967
525.956
611.379
692.154
767.183
835.88
897.963
953.355
1002.14
1044.53
1080.92
1111.88
1138.18
1160.86
1181.2
1196.64
1206.88
1212.08
1212.35
1207.78
1198.44
1184.45
1165.88
1142.87
1115.56
1084.15
1048.86
1010.02
967.98
923.22
876.318
828.067
779.918
736.261
710.448
697.48
683.904
668.824
652.386
634.828
616.372
597.199
577.444
557.205
536.544
515.499
494.092
472.341
450.259
427.86
405.631
384.108
362.675
341.179
319.674
298.303
277.249
256.707
236.859
217.839
199.687
182.371
165.88
150.307
135.85
122.744
111.185
101.267
92.9617
86.1314
80.5686
76.0481
72.4046
69.6393
67.4812
65.7125
64.1996
62.832
61.5269
60.1093
58.655
56.1384
17.8091
14.3294
22.6672
32.1376
39.8674
45.8278
50.2794
53.4306
55.4943
56.6752
57.1764
57.196
56.9196
56.5285
56.2519
56.5308
57.6239
59.6117
62.8033
67.8975
76.1324
89.2357
108.864
135.521
163.6
188.738
209.745
226.185
238.265
246.748
252.832
257.781
262.451
267.072
271.429
275.189
278.135
280.216
281.517
282.202
282.491
282.632
282.902
283.59
285.003
287.458
291.254
296.613
301.826
306.485
310.334
313.126
314.631
314.652
313.035
309.686
304.573
297.734
289.264
279.313
268.064
255.724
242.51
228.641
214.339
199.809
185.221
171.648
159.428
148.15
137.919
128.906
121.251
115.033
110.248
106.817
104.604
103.445
103.178
103.64
104.637
105.915
107.177
108.168
108.845
109.677
112.422
118.381
129.698
149.655
181.896
229.429
292.138
361.591
418.397
446.257
451.418
452.2
453.401
454.718
456.262
457.976
459.643
461.008
461.891
462.227
462.084
461.645
461.199
461.122
461.863
463.909
467.796
472.874
477.543
481.633
485.018
487.568
489.154
489.65
488.936
486.902
483.449
478.498
471.992
463.908
454.264
443.131
430.658
417.109
402.948
389.094
377.612
367.192
356.568
345.721
334.775
323.849
313.032
302.379
291.912
281.628
271.5
261.483
251.526
241.572
231.565
221.463
211.402
201.477
191.47
181.274
170.861
160.256
149.529
138.778
128.124
117.702
107.656
98.1412
89.313
81.3027
74.1995
68.0447
62.8341
58.5231
55.036
52.277
50.1449
48.549
47.4167
46.7075
46.3776
46.3661
46.6121
47.0638
47.6582
48.4207
49.2173
51.1342
24.956
37.5698
51.206
57.8853
60.1348
60.2838
59.6325
58.7865
58.0021
57.3854
56.9951
56.895
57.1893
58.0766
59.8081
62.4499
66.2114
71.4817
78.9765
89.919
106.12
129.655
161.832
196.321
227.29
250.919
265.634
271.848
271.425
266.987
261.148
255.859
252.1
249.991
249.15
249.066
249.332
249.736
250.254
251.003
252.167
253.94
256.478
259.877
264.168
269.309
275.197
281.504
287.804
293.816
299.261
303.851
307.311
309.395
309.913
308.743
305.847
301.271
295.137
287.631
278.972
269.388
259.086
248.232
236.934
225.23
213.023
200.971
189.276
177.588
165.904
154.341
143.09
132.394
122.521
113.739
106.281
100.332
96.0269
93.4472
92.6083
93.4311
95.7287
99.2588
103.909
110.117
119.73
136.931
167.066
216.576
289.288
378.812
460.568
499.522
484.595
448.965
418.632
398.098
385.301
377.382
372.122
368.026
364.274
360.583
357.029
353.857
351.36
349.798
349.364
350.168
352.236
355.509
359.864
364.824
369.986
375.165
380.193
384.905
389.145
392.758
395.597
397.518
398.385
398.073
396.473
393.498
389.097
383.259
376.03
367.525
357.927
347.915
338.23
328.385
318.272
308.002
297.716
287.534
277.546
267.806
258.339
249.14
240.182
231.421
222.801
214.259
205.73
197.155
188.506
179.815
170.996
162.003
152.825
143.48
134.016
124.502
115.027
105.694
96.6101
87.8812
79.6081
71.8865
64.8006
58.4117
52.7484
47.8033
43.5382
39.8946
36.803
34.1953
32.0238
30.2469
28.831
27.7694
27.0592
26.6866
26.6457
26.981
27.7196
29.2249
59.9837
75.8725
81.1447
80.1894
77.1998
73.9422
71.0348
68.652
66.835
65.6069
65.0179
65.1748
66.2846
68.6563
72.2037
77.1086
83.6802
92.4465
104.306
120.682
143.483
174.652
209.831
244.102
272.086
290.305
298.001
296.827
289.911
280.729
272.109
265.702
261.953
260.46
260.427
261.054
261.775
262.346
262.813
263.409
264.427
266.126
268.685
272.182
276.596
281.819
287.663
293.881
300.226
306.404
312.097
316.971
320.696
322.969
323.547
322.267
319.072
314.025
307.301
299.17
289.957
280.002
269.616
259.051
248.468
237.929
227.352
216.922
206.867
196.635
186.011
174.901
163.327
151.446
139.563
128.117
117.641
108.693
101.794
97.3652
95.6983
96.9377
101.099
108.165
118.36
132.801
154.791
189.072
242.305
319.059
411.983
492.378
521.221
489.123
437.402
396.434
370.292
355.155
346.351
340.45
335.413
330.307
324.952
319.586
314.609
310.417
307.326
305.533
305.125
306.084
308.31
311.64
315.874
320.737
325.983
331.426
336.894
342.229
347.281
351.908
355.972
359.336
361.863
363.421
363.883
363.139
361.099
357.709
352.953
346.857
339.565
331.795
323.613
315.001
306.056
296.921
287.735
278.613
269.643
260.877
252.342
244.035
235.935
228
220.176
212.403
204.614
196.745
188.745
180.598
172.251
163.67
154.849
145.804
136.579
127.239
117.868
108.565
99.4361
90.5834
82.1006
74.0727
66.5762
59.6742
53.4084
47.7935
42.8168
38.4453
34.6327
31.3183
28.4437
25.9597
23.8268
22.0174
20.5171
19.3362
18.4875
17.9902
17.8863
18.3256
119.943
109.782
100.493
94.0456
89.4161
85.9184
83.1689
80.9828
79.3213
78.2534
77.9413
78.6525
80.813
84.3954
89.5849
96.6479
105.98
118.189
134.207
155.371
182.9
214.968
248.54
279.032
302.046
315.136
318.484
314.443
306.44
297.751
290.635
286.028
283.749
282.972
282.729
282.284
281.322
279.926
278.44
277.288
276.844
277.359
278.957
281.645
285.339
289.88
295.05
300.782
306.899
313.1
319.028
324.293
328.482
331.194
332.064
330.816
327.302
321.534
313.701
304.144
293.314
281.706
269.794
257.978
246.557
235.7
225.429
215.841
207.121
198.642
190.066
181.127
171.636
161.534
150.936
140.169
129.773
120.447
112.97
108.105
106.527
108.804
115.427
126.939
144.295
169.711
206.791
259.065
329.97
414.403
489.244
519.016
488.248
431.413
385.199
356.202
340.218
331.611
326.098
321.123
315.523
309.096
302.18
295.322
289.068
283.855
279.974
277.572
276.671
277.197
279.003
281.898
285.666
290.072
294.888
299.927
305.032
310.068
314.914
319.463
323.607
327.236
330.236
332.485
333.859
334.239
333.522
331.628
328.504
324.132
318.85
312.956
306.5
299.587
292.344
284.908
277.399
269.917
262.533
255.291
248.208
241.28
234.48
227.767
221.088
214.38
207.578
200.613
193.421
185.95
178.164
170.04
161.576
152.788
143.72
134.436
125.023
115.583
106.23
97.0729
88.2166
79.754
71.7673
64.3256
57.4796
51.2569
45.6606
40.6735
36.2634
32.3783
28.9643
25.9711
23.3544
21.0773
19.1116
17.4403
16.0609
14.9879
14.2339
13.8617
204.834
138.97
117.151
108.01
103.179
100.18
98.0605
96.4608
95.3155
94.7393
94.9849
96.4418
99.56
104.33
111.041
120.055
131.845
147.051
166.549
190.67
218.725
249.226
279.253
305.061
323.437
332.962
334.413
330.236
323.467
316.677
311.324
307.681
305.176
302.925
300.197
296.674
292.477
288.017
283.8
280.281
277.79
276.516
276.533
277.818
280.279
283.765
288.076
293.373
299.506
306.174
313.008
319.578
325.393
329.917
332.608
332.971
330.644
325.469
317.545
307.23
295.086
281.786
268.003
254.334
241.242
229.037
217.858
208.009
199.473
191.743
184.498
177.436
170.275
162.803
154.937
146.791
138.714
131.299
125.342
121.781
121.638
125.995
136.022
153.093
179.125
216.985
267.687
332.073
405.869
472.935
505.947
486.893
431.893
382.259
350.02
332.527
323.801
318.817
314.358
308.846
301.89
293.82
285.279
276.96
269.459
263.208
258.474
255.368
253.871
253.868
255.174
257.564
260.802
264.596
268.7
272.932
277.16
281.286
285.239
288.959
292.388
295.458
298.086
300.173
301.609
302.279
302.075
300.909
298.717
295.556
291.731
287.323
282.437
277.195
271.722
266.133
260.524
254.97
249.519
244.194
238.993
233.896
228.865
223.849
218.787
213.61
208.244
202.614
196.639
190.228
183.358
176.012
168.19
159.91
151.213
142.167
132.861
123.404
113.918
104.526
95.3483
86.4938
78.0591
70.1257
62.7559
55.9892
49.8409
44.3032
39.3555
34.962
31.0733
27.6406
24.618
21.9645
19.6448
17.631
15.9024
14.4535
13.2853
12.4161
295.03
163.772
133.72
123.357
118.905
116.746
115.572
114.895
114.613
114.862
115.963
118.42
122.388
128.17
136.134
146.712
160.399
177.849
198.812
223.121
249.952
277.626
303.594
324.995
339.63
346.805
347.507
343.867
338.247
332.425
327.189
322.427
317.538
311.909
305.241
297.648
289.554
281.516
274.069
267.64
262.527
258.905
256.848
256.352
257.356
259.751
263.395
268.525
274.939
282.387
290.574
299.128
307.57
315.29
321.561
325.606
326.706
324.353
318.378
309.024
296.901
282.861
267.822
252.622
237.934
224.227
211.825
201.246
192.183
184.363
177.566
171.547
166.039
160.792
155.618
150.462
145.466
141.02
137.795
136.758
139.171
146.599
160.92
184.354
219.57
267.634
327.066
393.123
453.761
489.128
482.416
438.202
385.658
349.279
328.965
319.245
314.541
310.886
306.077
299.33
290.795
281.113
271.085
261.478
252.916
245.843
240.513
237.004
235.249
235.071
236.219
238.407
241.35
244.638
248.003
251.279
254.372
257.241
259.875
262.281
264.457
266.383
268.015
269.279
270.076
270.298
269.834
268.596
266.546
263.857
260.642
257.004
253.068
248.961
244.808
240.709
236.744
232.962
229.383
226.004
222.796
219.715
216.701
213.683
210.582
207.313
203.789
199.916
195.59
190.679
185.16
179.015
172.239
164.847
156.878
148.396
139.492
130.282
120.896
111.472
102.148
93.051
84.2978
75.9871
68.1969
60.9812
54.368
48.3605
42.9426
38.0981
33.7854
29.959
26.574
23.5879
20.9624
18.664
16.6644
14.9432
13.4881
12.3
378.117
185.162
149.622
138.999
135.502
134.669
134.911
135.613
136.612
138.029
140.201
143.66
148.51
155.155
164.059
175.748
190.402
208.15
228.828
251.929
276.432
300.71
322.65
340.117
351.632
356.9
356.839
353.11
347.4
340.848
333.837
326.167
317.438
307.404
296.163
284.132
271.918
260.163
249.438
240.179
232.677
227.082
223.436
221.705
221.814
223.665
227.237
232.34
238.759
246.397
255.184
265.001
275.592
286.476
296.9
305.848
312.176
314.83
313.116
306.91
296.705
283.469
268.38
252.567
236.963
222.237
209.207
197.932
188.256
180.094
173.328
167.805
163.33
159.697
156.711
154.242
152.289
151.063
151.076
153.239
158.944
170.118
189.191
218.934
261.773
316.02
376.788
433.871
471.773
475.884
444.743
395.784
353.38
328.596
316.585
311.525
308.71
305.15
299.439
291.339
281.331
270.24
258.977
248.385
239.142
231.716
226.348
223.064
221.71
222
223.571
226.032
229.023
231.999
234.704
237.011
238.884
240.353
241.482
242.347
243.009
243.496
243.795
243.854
243.571
242.838
241.521
239.533
236.949
233.85
230.331
226.526
222.593
218.693
214.973
211.548
208.497
205.86
203.637
201.798
200.287
199.03
197.937
196.909
195.843
194.63
193.158
191.311
188.95
185.902
182.126
177.592
172.279
166.189
159.351
151.822
143.689
135.069
126.098
116.926
107.709
98.5938
89.7183
81.2018
73.1416
65.6091
58.6484
52.2766
46.485
41.2656
36.5929
32.4274
28.7271
25.4507
22.5588
20.0156
17.7888
15.8514
14.1798
12.7657
448.274
203.33
164.3
154.193
152.145
153.079
155.174
157.681
160.358
163.274
166.732
171.237
176.908
184.203
193.539
205.301
219.678
236.656
255.934
276.864
298.387
319.032
337.079
350.918
359.518
362.741
361.31
356.423
349.233
340.468
330.342
318.75
305.578
290.948
275.303
259.333
243.839
229.576
217.142
206.917
199.063
193.561
190.277
189.021
189.602
191.846
195.715
200.412
205.832
212.084
219.4
228.059
238.267
249.987
262.764
275.628
287.143
295.653
299.696
298.443
291.953
281.135
267.36
252.049
236.441
221.867
208.731
197.134
187.157
178.819
172.09
166.902
163.156
160.728
159.49
159.333
160.215
162.246
165.803
171.692
181.3
196.694
220.537
255.602
302.984
358.293
413.046
454.148
468.073
449.645
408.535
364.275
332.429
315.856
309.212
306.809
304.758
300.823
294.149
284.846
273.601
261.379
249.208
238.034
228.614
221.439
216.713
214.363
214.092
215.455
217.934
221.015
224.193
226.927
229.002
230.355
231.023
231.108
230.749
230.094
229.263
228.32
227.279
226.107
224.674
222.867
220.49
217.561
214.044
209.976
205.458
200.656
195.781
191.055
186.687
182.848
179.654
177.165
175.388
174.282
173.77
173.75
174.104
174.703
175.41
176.089
176.599
176.794
176.502
175.503
173.723
171.101
167.589
163.166
157.838
151.644
144.661
136.997
128.79
120.198
111.387
102.524
93.768
85.2599
77.1184
69.4352
62.2728
55.6655
49.6206
44.1268
39.1783
34.7447
30.7897
27.275
24.1623
21.4154
19.0005
16.8875
15.0473
13.4638
504.309
218.866
177.778
168.54
168.158
171.092
175.308
179.919
184.577
189.268
194.215
199.692
205.954
213.483
222.704
233.935
247.315
262.76
279.908
298.084
316.284
333.225
347.498
357.85
363.497
364.327
360.841
353.866
344.196
332.341
318.515
302.819
285.482
267.018
248.24
230.128
213.636
199.517
188.215
179.856
174.306
171.272
170.391
171.293
173.632
177.118
181.252
185.274
189.067
192.779
196.808
201.782
208.439
217.405
228.895
242.426
256.693
269.702
279.226
283.477
281.694
274.415
263.062
249.216
234.987
221.197
208.423
197.022
187.192
179.027
172.564
167.807
164.744
163.357
163.625
165.539
169.122
174.485
181.935
192.139
206.318
226.38
254.778
293.795
341.964
393.108
436.458
459.25
453.286
421.907
379.558
342.475
319.067
308.292
304.894
303.977
302.225
297.877
290.425
280.19
268.003
254.96
242.229
230.881
221.751
215.336
211.76
210.799
211.965
214.622
218.093
221.751
224.988
227.38
228.783
229.209
228.761
227.605
225.932
223.957
221.853
219.713
217.559
215.405
213.062
210.429
207.351
203.687
199.341
194.29
188.61
182.471
176.122
169.855
163.962
158.705
154.285
150.83
148.392
146.958
146.456
146.774
147.775
149.302
151.193
153.28
155.392
157.353
158.963
159.959
160.216
159.626
158.104
155.589
152.055
147.512
142.011
135.644
128.539
120.853
112.759
104.438
96.0664
87.8058
79.7965
72.1519
64.9551
58.2593
52.0901
46.4476
41.3252
36.7106
32.5751
28.8855
25.6065
22.7034
20.1426
17.8929
15.9241
14.2129
549.763
233.355
190.159
181.579
182.767
187.695
194.091
200.906
207.66
214.222
220.712
227.157
233.981
241.63
250.496
260.863
272.845
286.337
300.979
316.139
330.915
344.206
354.845
361.809
364.451
362.62
356.627
347.038
334.435
319.264
301.866
282.635
262.197
241.483
221.628
203.763
188.775
177.161
169.013
164.112
162.059
162.391
164.641
168.351
173.068
178.355
183.351
187.458
190.356
191.979
192.634
193.085
194.477
198.086
204.926
215.324
228.588
242.925
255.729
264.359
266.975
263.447
255.097
243.895
231.393
218.769
206.833
196.089
186.826
179.198
173.295
169.178
166.912
166.579
168.287
172.174
178.414
187.228
198.936
214.07
233.538
258.725
291.287
332.262
378.148
421.232
450.521
456.114
435.828
398.414
358.62
328.192
310.868
303.946
302.582
302.561
301.033
296.463
288.559
277.736
264.929
251.375
238.376
227.131
218.546
213.093
210.775
211.188
213.642
217.33
221.456
225.322
228.341
230.232
230.927
230.497
229.096
226.922
224.194
221.18
218.104
215.079
212.105
209.294
206.481
203.5
200.147
196.204
191.489
185.898
179.436
172.233
164.527
156.64
148.929
141.746
135.396
130.113
126.042
123.243
121.696
121.317
121.977
123.514
125.749
128.493
131.552
134.725
137.793
140.466
142.554
143.894
144.349
143.812
142.208
139.507
135.723
130.918
125.2
118.711
111.623
104.123
96.3978
88.6277
80.9725
73.5664
66.5135
59.8872
53.7321
48.0666
42.8877
38.191
33.9596
30.1675
26.7845
23.7787
21.1184
18.7728
16.7121
14.9108
581.619
244.779
199.896
192.09
194.858
201.752
210.306
219.329
228.209
236.682
244.731
252.334
259.87
267.734
276.28
285.762
296.284
307.753
319.854
332.031
343.509
353.356
360.592
364.356
364.069
359.534
350.915
338.614
323.117
304.918
284.57
262.813
240.668
219.387
200.242
184.258
172.017
163.625
158.833
157.207
158.269
161.559
166.638
173.049
180.278
187.686
194.437
199.914
203.48
204.656
203.378
200.271
196.699
194.453
195.218
200.104
209.214
221.401
234.255
244.811
250.245
249.885
244.601
235.856
225.223
214.026
203.228
193.449
185.055
178.253
173.173
169.92
168.619
169.441
172.62
178.463
187.343
199.673
215.89
236.451
261.871
292.72
329.328
370.823
412.098
444.911
459.752
450.788
420.869
381.223
344.811
319.492
306.257
301.79
301.693
302.268
301.018
296.614
288.734
277.746
264.604
250.827
237.756
226.697
218.608
213.931
212.545
213.873
217.064
221.199
225.427
229.049
231.592
232.873
232.875
231.707
229.548
226.612
223.099
219.329
215.568
211.955
208.561
205.41
202.411
199.391
196.109
192.296
187.697
182.122
175.487
167.844
159.373
150.371
141.204
132.269
123.946
116.565
110.379
105.551
102.155
100.182
99.5555
100.146
101.79
104.299
107.471
111.094
114.943
118.737
122.211
125.145
127.348
128.653
128.935
128.109
126.141
123.051
118.91
113.838
107.991
101.55
94.7085
87.6549
80.5656
73.5931
66.8616
60.4641
54.464
48.8979
43.7794
39.1049
34.8677
31.0508
27.6303
24.5792
21.8686
19.47
17.355
15.4982
598.906
251.462
206.191
199.403
203.713
212.452
223.042
234.195
245.188
255.638
265.395
274.407
282.96
291.367
299.914
308.818
318.171
327.906
337.765
347.29
355.838
362.631
366.848
367.747
364.794
357.752
346.684
331.895
313.852
293.161
270.619
247.293
224.501
203.646
185.93
172.104
162.385
156.565
154.218
154.873
158.088
163.46
170.59
179.046
188.304
197.587
206.359
213.943
219.484
222.07
221.043
216.52
209.764
202.927
198.217
197.321
200.944
208.685
218.705
228.145
234.311
235.766
232.559
225.753
216.788
207.001
197.421
188.739
181.374
175.573
171.493
169.27
169.077
171.154
175.847
183.621
195.061
210.825
231.554
257.733
289.523
326.529
367.38
408.889
444.662
466.788
468.293
447.568
411.081
370.659
336.97
315.027
304.28
301.244
301.9
302.926
302.051
298.038
290.533
279.887
267.046
253.384
240.362
229.375
221.454
217.052
215.977
217.514
220.716
224.62
228.398
231.402
233.266
233.858
233.198
231.406
228.668
225.206
221.259
217.092
212.947
208.999
205.357
202.054
199.027
196.115
193.076
189.618
185.437
180.275
173.966
166.474
157.904
148.489
138.564
128.516
118.747
109.633
101.496
94.587
89.0736
85.0438
82.509
81.4143
81.6513
83.0714
85.4968
88.729
92.5587
96.7413
100.965
104.957
108.472
111.288
113.221
114.127
113.916
112.554
110.064
106.529
102.077
96.8714
91.0985
84.9502
78.6112
72.2479
66.0012
59.9823
54.2725
48.9254
43.9706
39.4184
35.2652
31.5013
28.1108
25.0723
22.3615
19.953
17.8211
15.9419
602.054
253.258
208.79
203.191
208.934
219.323
231.76
244.912
257.99
270.513
282.22
293.023
303.084
312.602
321.773
330.749
339.597
348.263
356.541
364.068
370.325
374.677
376.44
374.976
369.793
360.626
347.47
330.572
310.414
287.723
263.513
239.093
215.96
195.539
178.878
166.464
158.262
153.914
152.956
154.937
159.423
165.986
174.221
183.764
194.055
204.529
214.755
224.113
231.752
236.568
237.427
233.783
226.388
217.332
209.097
203.572
201.871
204.305
209.926
216.482
221.353
222.747
220.228
214.461
206.642
198.002
189.534
181.93
175.627
170.884
167.877
166.761
167.739
171.105
177.288
186.89
200.685
219.584
244.491
276.045
314.203
357.684
403.283
445.407
476.411
489.059
479.23
449.12
407.668
366.477
334.213
313.985
304.401
301.977
302.983
304.347
303.932
300.521
293.706
283.764
271.551
258.343
245.604
234.735
226.768
222.142
220.65
221.592
224.029
227.023
229.824
231.88
232.917
232.811
231.573
229.309
226.191
222.426
218.246
213.887
209.573
205.481
201.736
198.388
195.4
192.64
189.883
186.838
183.183
178.615
172.905
165.938
157.743
148.485
138.444
127.975
117.466
107.298
97.8133
89.3001
81.9799
76.0076
71.4729
68.4052
66.7783
66.5174
67.5062
69.5955
72.6211
76.4077
80.6423
85.0232
89.262
93.0907
96.2703
98.6002
99.9284
100.16
99.2643
97.2709
94.2683
90.3911
85.8063
80.6977
75.2505
69.6384
64.0141
58.5036
53.2041
48.1848
43.4903
39.1443
35.1546
31.517
28.2203
25.2499
22.5869
20.21
18.097
16.2269
591.422
250.201
207.657
203.382
210.416
222.232
236.302
251.313
266.455
281.195
295.19
308.302
320.55
332
342.73
352.801
362.219
370.909
378.69
385.261
390.201
392.996
393.079
389.911
383.053
372.238
357.412
338.728
316.702
292.213
266.419
240.795
216.944
196.286
179.757
167.697
159.958
156.146
155.793
158.42
163.513
170.535
178.972
188.43
198.744
209.519
220.348
230.724
239.92
246.835
250.059
248.429
241.999
232.49
222.435
213.878
208.118
205.897
206.938
209.629
211.73
211.502
208.325
202.598
195.269
187.381
179.807
173.17
167.869
164.153
162.198
162.168
164.285
168.875
176.426
187.635
203.427
224.932
253.331
289.519
333.48
383.358
434.383
478.633
507.055
512.832
494.314
456.827
411.09
368.401
336.041
315.971
306.371
303.812
304.765
306.311
306.373
303.705
297.815
288.865
277.581
265.116
252.845
242.098
233.869
228.602
226.144
225.889
226.99
228.604
230.074
230.954
231.019
230.144
228.322
225.637
222.234
218.297
214.028
209.634
205.308
201.216
197.478
194.157
191.238
188.62
186.112
183.443
180.295
176.344
171.319
165.044
157.479
148.722
138.995
128.612
117.934
107.332
97.1492
87.6817
79.1656
71.7772
65.6389
60.8263
57.3743
55.2808
54.5076
54.9819
56.6116
59.3199
62.852
66.9173
71.2173
75.4573
79.3584
82.6702
85.1835
86.7424
87.2534
86.689
85.0864
82.5387
79.1826
75.1823
70.714
65.9506
61.0503
56.149
51.3566
46.7557
42.4041
38.3381
34.5762
31.1239
27.9771
25.1246
22.5527
20.2453
18.1839
16.3519
567.438
242.43
202.893
200.09
208.307
221.366
236.902
253.689
270.961
288.184
304.965
321.104
336.482
351.017
364.65
377.31
388.897
399.26
408.178
415.35
420.396
422.867
422.262
418.128
410.123
398.025
381.795
361.628
338.034
311.897
284.464
257.28
231.981
209.982
192.21
179.022
170.323
165.763
164.872
167.101
171.834
178.44
186.369
195.332
205.37
216.05
227
237.795
247.813
256.019
260.904
260.963
255.757
246.616
235.852
225.39
216.591
210.508
207.322
205.917
204.505
201.647
196.81
190.299
182.868
175.351
168.44
162.627
158.231
155.46
154.472
155.435
158.576
164.241
172.948
185.447
202.76
226.174
257.117
296.792
345.443
401.123
458.134
506.591
535.735
538.399
514.449
471.511
421.759
376.543
342.495
321.055
310.26
306.77
307.182
308.654
309.107
307.228
302.407
294.663
284.555
273.067
261.42
250.824
242.209
236.039
232.263
230.418
229.812
229.728
229.617
229.127
228.07
226.327
223.871
220.762
217.113
213.074
208.81
204.489
200.267
196.28
192.634
189.391
186.553
184.051
181.73
179.356
176.63
173.234
168.872
163.326
156.497
148.417
139.25
129.261
118.782
108.167
97.7578
87.8558
78.7035
70.4819
63.3155
57.2836
52.4332
48.7893
46.3601
45.1378
45.1058
46.2997
48.5772
51.7135
55.4441
59.4821
63.5344
67.3187
70.5801
73.107
74.7449
75.4046
75.0648
73.7679
71.6096
68.7243
65.2688
61.4065
57.2941
53.0717
48.8573
44.7439
40.8007
37.0747
33.5949
30.3758
27.4207
24.7258
22.2816
20.0759
18.0953
16.3266
529.637
229.632
194.431
193.428
202.858
217.074
233.961
252.448
271.873
291.762
311.74
331.532
350.912
369.674
387.617
404.521
420.135
434.166
446.274
456.064
463.099
466.794
466.82
462.838
454.569
441.852
424.698
403.344
378.328
350.54
321.238
291.963
264.348
239.84
219.465
203.73
192.693
186.1
183.494
184.283
187.792
193.343
200.395
208.782
218.454
228.815
239.499
250.129
260.141
268.539
273.797
274.313
269.516
260.515
249.197
237.094
225.57
215.961
208.729
203.093
197.718
191.607
184.492
176.7
168.835
161.498
155.158
150.126
146.604
144.732
144.642
146.496
150.527
157.086
166.698
180.128
198.434
222.985
255.366
297.05
348.655
408.56
470.971
524.994
558.163
562.077
536.755
490.984
438.041
389.768
352.891
328.898
315.935
310.785
310.134
311.163
311.752
310.497
306.662
300.11
291.223
280.795
269.862
259.487
250.526
243.455
238.326
234.832
232.445
230.589
228.817
226.866
224.589
221.885
218.727
215.15
211.241
207.113
202.889
198.693
194.636
190.816
187.311
184.173
181.412
178.985
176.778
174.599
172.187
169.244
165.471
160.625
154.558
147.243
138.778
129.373
119.321
108.956
98.6157
88.6101
79.1955
70.5649
62.8479
56.1203
50.4188
45.7574
42.1416
39.5777
38.0872
37.772
38.6014
40.4582
43.1606
46.475
50.1337
53.8544
57.3609
60.4036
62.7778
64.3377
65.004
64.7645
63.6673
61.8083
59.3163
56.3364
53.0158
49.492
45.8854
42.2954
38.7987
35.4512
32.2905
29.3391
26.6077
24.0987
21.8084
19.7293
17.8518
16.1663
484.177
214.189
184.14
185.194
195.912
211.264
229.421
249.511
271.023
293.601
316.937
340.738
364.73
388.625
412.101
434.787
456.256
476.026
493.576
508.177
519.031
525.777
528.07
525.604
518.16
505.644
488.137
465.945
439.652
410.172
378.759
346.934
316.331
288.457
264.481
245.114
230.61
220.846
215.422
213.743
215.114
218.844
224.416
231.825
240.507
249.935
259.705
269.416
278.472
285.837
289.969
289.368
283.653
273.831
261.226
246.974
232.608
219.711
208.827
199.346
190.322
181.196
171.967
162.998
154.746
147.588
141.772
137.436
134.663
133.53
134.141
136.652
141.301
148.439
158.585
172.489
191.195
216.08
248.795
291.005
343.702
405.857
472.303
532.227
571.861
580.956
558.328
512.68
457.924
406.698