/*--------------------------------*- C++ -*----------------------------------*\
| =========                 |                                                 |
| \\      /  F ield         | OpenFOAM: The Open Source CFD Toolbox           |
|  \\    /   O peration     | Version:  2112                                  |
|   \\  /    A nd           | Website:  www.openfoam.com                      |
|    \\/     M anipulation  |                                                 |
\*---------------------------------------------------------------------------*/
FoamFile
{
    version     2.0;
    format      ascii;
    arch        "LSB;label=32;scalar=64";
    class       volScalarField;
    location    "0.3";
    object      kU;
}
// * * * * * * * * * * * * * * * * * * * * * * * * * * * * * * * * * * * * * //

dimensions      [0 2 -2 0 0 0 0];

internalField   nonuniform List<scalar> 
12225
(
0.624354
0.890973
1.03704
1.10092
1.1164
1.10594
1.08281
1.05441
1.02479
0.996081
0.969297
0.944875
0.922938
0.903458
0.886345
0.8715
0.858861
0.848222
0.280331
0.294052
0.299506
0.300123
0.298306
0.295479
0.292675
0.290613
0.28966
0.289949
0.291481
0.294184
0.29794
0.302606
0.30802
0.313988
0.320366
0.326899
0.263452
0.263253
0.25859
0.250897
0.241647
0.231731
0.221745
0.212109
0.203092
0.194848
0.187445
0.180895
0.175169
0.170215
0.165962
0.162328
0.159226
0.156496
0.260787
0.258456
0.255113
0.250678
0.24545
0.239753
0.233824
0.227838
0.221925
0.216177
0.210657
0.205404
0.200444
0.195788
0.191441
0.187401
0.183667
0.180246
0.260372
0.257966
0.25524
0.252144
0.248706
0.245012
0.24116
0.237235
0.233305
0.229423
0.225628
0.221949
0.218406
0.215016
0.211786
0.208727
0.205843
0.20316
0.26031
0.258007
0.255619
0.253096
0.250443
0.247687
0.244862
0.242004
0.239142
0.236305
0.233513
0.230785
0.228134
0.225572
0.223106
0.220743
0.218491
0.216373
0.260307
0.258074
0.255863
0.253641
0.251395
0.24913
0.246853
0.244577
0.242314
0.240077
0.237878
0.235725
0.233628
0.231593
0.229624
0.227728
0.225908
0.224186
0.26031
0.258111
0.25599
0.253922
0.251893
0.249893
0.247921
0.245977
0.244065
0.242188
0.240351
0.238559
0.236815
0.235122
0.233483
0.2319
0.230376
0.228931
0.26031
0.258125
0.256044
0.254049
0.252127
0.250268
0.248464
0.246711
0.245005
0.243347
0.241735
0.240171
0.238654
0.237185
0.235765
0.234394
0.233074
0.231821
0.260308
0.258127
0.25606
0.254096
0.252223
0.250432
0.248714
0.247063
0.245474
0.243942
0.242465
0.24104
0.239666
0.238341
0.237064
0.235833
0.23465
0.233527
0.260307
0.258125
0.256062
0.254108
0.252254
0.250491
0.248812
0.247211
0.24568
0.244215
0.242812
0.241466
0.240176
0.238937
0.237747
0.236605
0.23551
0.234471
0.260306
0.258123
0.25606
0.254107
0.252258
0.250504
0.248839
0.247256
0.245749
0.244313
0.242942
0.241634
0.240383
0.239187
0.238042
0.236946
0.235897
0.234905
0.260305
0.258121
0.256056
0.254104
0.252255
0.250504
0.248843
0.247267
0.24577
0.244346
0.242991
0.2417
0.240469
0.239295
0.238173
0.237102
0.23608
0.235115
0.260304
0.258119
0.256053
0.254099
0.25225
0.250498
0.248838
0.247263
0.245769
0.244349
0.242999
0.241715
0.240493
0.239328
0.238218
0.23716
0.236151
0.2352
0.260303
0.258117
0.25605
0.254095
0.252244
0.250491
0.24883
0.247254
0.245759
0.244339
0.24299
0.241707
0.240487
0.239325
0.238218
0.237164
0.23616
0.235215
0.260303
0.258116
0.256048
0.254091
0.252239
0.250485
0.248822
0.247245
0.245748
0.244327
0.242977
0.241693
0.240473
0.239311
0.238204
0.237151
0.236148
0.235204
0.260302
0.258115
0.256046
0.254088
0.252235
0.25048
0.248816
0.247237
0.24574
0.244317
0.242966
0.241682
0.24046
0.239297
0.238191
0.237137
0.236134
0.235192
0.260302
0.258114
0.256045
0.254087
0.252233
0.250477
0.248812
0.247233
0.245734
0.244311
0.242959
0.241674
0.240452
0.239289
0.238183
0.237129
0.236127
0.235185
0.260302
0.258114
0.256045
0.254086
0.252232
0.250476
0.248811
0.247231
0.245733
0.244309
0.242957
0.241672
0.24045
0.239288
0.238182
0.237129
0.236127
0.235186
0.260302
0.258115
0.256046
0.254088
0.252234
0.250478
0.248813
0.247235
0.245736
0.244314
0.242962
0.241678
0.240456
0.239294
0.238188
0.237136
0.236134
0.235193
0.260303
0.258116
0.256047
0.25409
0.252237
0.250482
0.248818
0.24724
0.245742
0.24432
0.242968
0.241683
0.240461
0.239298
0.238191
0.237137
0.236133
0.23519
0.260303
0.258117
0.256049
0.254093
0.252241
0.250486
0.248822
0.247242
0.245742
0.244317
0.242961
0.24167
0.24044
0.239269
0.238151
0.237086
0.236069
0.235111
0.260304
0.258119
0.256052
0.254095
0.252241
0.250481
0.248808
0.247216
0.245699
0.244251
0.242868
0.241545
0.24028
0.239068
0.237907
0.236794
0.235729
0.23472
0.260305
0.258121
0.256052
0.254087
0.252215
0.250427
0.248713
0.247067
0.245481
0.243951
0.242475
0.241049
0.239672
0.238341
0.237056
0.235816
0.23462
0.23348
0.260309
0.258126
0.256048
0.254049
0.252108
0.250212
0.248353
0.246526
0.244732
0.242972
0.241248
0.239562
0.237917
0.236315
0.234757
0.233244
0.231779
0.230375
0.260333
0.258178
0.256093
0.254013
0.251882
0.249685
0.247434
0.245148
0.242849
0.240555
0.238281
0.236039
0.233839
0.23169
0.229596
0.227563
0.225593
0.223703
0.260525
0.25863
0.256573
0.254127
0.251307
0.248221
0.24496
0.241591
0.238169
0.234735
0.231325
0.227967
0.224682
0.221486
0.21839
0.215402
0.212528
0.209781
0.261959
0.261806
0.259721
0.256046
0.251439
0.246253
0.240683
0.234882
0.228987
0.22311
0.217343
0.211756
0.206401
0.201311
0.196508
0.192001
0.187793
0.183891
0.270395
0.27593
0.278044
0.278468
0.277741
0.276072
0.273648
0.27078
0.267755
0.264784
0.26202
0.259567
0.257491
0.255828
0.254592
0.253789
0.25342
0.253507
0.450011
0.612199
0.732151
0.825481
0.891977
0.934937
0.958837
0.968172
0.966928
0.958372
0.945025
0.928754
0.910903
0.89241
0.873912
0.855821
0.838382
0.821777
0.0299565
0.0503518
0.0659797
0.0846407
0.106274
0.126581
0.145251
0.159134
0.169291
0.176209
0.180228
0.181627
0.180624
0.177375
0.172082
0.166454
0.161863
0.15775
0.15416
0.151763
0.15194
0.156634
0.167508
0.184326
0.203454
0.221134
0.234723
0.244277
0.252482
0.262736
0.278076
0.30006
0.328243
0.360684
0.394965
0.429024
0.461467
0.49153
0.5189
0.543543
0.565572
0.58518
0.602591
0.618052
0.631837
0.644251
0.655649
0.666445
0.674548
0.679891
0.682456
0.682181
0.678992
0.672833
0.663675
0.651532
0.636463
0.618575
0.598021
0.574992
0.549715
0.522441
0.49346
0.463123
0.43189
0.400435
0.369908
0.342189
0.319792
0.300702
0.283908
0.269974
0.259479
0.252818
0.250137
0.251324
0.256042
0.263765
0.273805
0.285299
0.297162
0.308017
0.31612
0.319449
0.316346
0.307363
0.297498
0.290024
0.286833
0.289338
0.297145
0.307813
0.317685
0.323591
0.32541
0.328431
0.342865
0.380153
0.443702
0.507123
0.566325
0.620125
0.668383
0.711266
0.749047
0.782036
0.810558
0.834946
0.855565
0.872821
0.887186
0.899238
0.909703
0.918282
0.924063
0.927203
0.927795
0.925902
0.921572
0.914843
0.905748
0.894315
0.880574
0.86456
0.846323
0.825932
0.803486
0.779123
0.753044
0.725551
0.697235
0.669872
0.650008
0.641284
0.633112
0.623925
0.613724
0.602636
0.590796
0.578313
0.565276
0.551744
0.537756
0.523332
0.508478
0.493192
0.477463
0.461271
0.444971
0.428973
0.412775
0.396221
0.379311
0.362124
0.344774
0.3274
0.310144
0.293131
0.276422
0.260014
0.24391
0.228203
0.213104
0.198905
0.185903
0.174328
0.164289
0.155759
0.148605
0.142634
0.137683
0.133796
0.13071
0.12814
0.125915
0.123892
0.121961
0.119886
0.11776
0.114186
0.0354093
0.0676334
0.120066
0.174359
0.220275
0.258326
0.289154
0.313301
0.331429
0.344273
0.352673
0.357534
0.35979
0.360435
0.360758
0.361484
0.36211
0.364232
0.370345
0.384156
0.410486
0.453922
0.515743
0.590642
0.659074
0.709251
0.739761
0.752908
0.753497
0.747476
0.740657
0.73755
0.740631
0.750372
0.765944
0.786025
0.809347
0.834922
0.862058
0.890312
0.919412
0.949174
0.979428
1.00997
1.04057
1.07094
1.10081
1.12893
1.15575
1.18086
1.20358
1.2232
1.23903
1.25044
1.25689
1.25797
1.25341
1.24313
1.22716
1.20568
1.17899
1.1474
1.11126
1.07091
1.02667
0.97878
0.927341
0.87574
0.826014
0.777484
0.73081
0.686972
0.646979
0.611714
0.581824
0.557651
0.539227
0.526314
0.518446
0.514912
0.514655
0.516192
0.517673
0.517148
0.512956
0.504355
0.493035
0.489904
0.50367
0.5394
0.597777
0.674617
0.75993
0.836455
0.884489
0.899791
0.902267
0.911381
0.930444
0.956154
0.986653
1.0206
1.05681
1.09433
1.13242
1.17058
1.20846
1.24579
1.28238
1.31804
1.35259
1.38588
1.4178
1.44795
1.4769
1.5044
1.53016
1.55386
1.57516
1.59372
1.60922
1.62129
1.62961
1.63386
1.63374
1.62901
1.6195
1.60513
1.58594
1.5621
1.53395
1.50202
1.46927
1.43585
1.40081
1.3645
1.32746
1.29014
1.2529
1.21601
1.17965
1.14388
1.10872
1.0741
1.0399
1.00597
0.972137
0.938214
0.903768
0.869216
0.834424
0.79927
0.763661
0.72756
0.690995
0.654068
0.616951
0.579841
0.542929
0.506459
0.470852
0.436754
0.404918
0.375999
0.350386
0.328132
0.308999
0.292562
0.278344
0.265898
0.254918
0.245236
0.236788
0.229575
0.22357
0.21872
0.214871
0.212095
0.209653
0.210725
0.0454021
0.139397
0.215758
0.270513
0.309866
0.339696
0.363696
0.383819
0.401068
0.416032
0.429211
0.441197
0.452821
0.465387
0.479814
0.4949
0.511287
0.530502
0.555474
0.590846
0.642402
0.714769
0.807391
0.900136
0.97585
1.02495
1.04563
1.04243
1.02392
1.00002
0.979497
0.96819
0.968455
0.979728
0.999667
1.02532
1.05398
1.08365
1.11317
1.14212
1.17057
1.19881
1.22716
1.25585
1.28496
1.3144
1.34396
1.37316
1.40193
1.42961
1.45535
1.47826
1.49743
1.51199
1.52124
1.52461
1.52174
1.51254
1.4971
1.47574
1.44893
1.41717
1.38098
1.34077
1.29682
1.24915
1.1973
1.14382
1.09014
1.03521
0.979188
0.922709
0.866796
0.812778
0.762197
0.716646
0.67759
0.646188
0.623171
0.608736
0.602435
0.603068
0.608696
0.616952
0.625804
0.634994
0.648462
0.67643
0.730999
0.821318
0.944662
1.07831
1.1796
1.20956
1.17573
1.1359
1.12143
1.1331
1.16363
1.20489
1.25037
1.29565
1.3383
1.37752
1.41359
1.44729
1.47952
1.51106
1.5425
1.57415
1.60611
1.63825
1.67026
1.70211
1.73374
1.7647
1.79453
1.82278
1.84899
1.87273
1.89356
1.91104
1.92474
1.93422
1.9391
1.939
1.93362
1.92278
1.90636
1.88439
1.85693
1.82527
1.79152
1.75529
1.71684
1.67676
1.63566
1.59407
1.5524
1.51098
1.47
1.42955
1.38963
1.35015
1.31097
1.27189
1.23267
1.19308
1.15278
1.11169
1.06968
1.02666
0.982605
0.937557
0.891617
0.844959
0.797825
0.750504
0.703286
0.656451
0.610334
0.565401
0.522258
0.481538
0.443763
0.409235
0.378012
0.349965
0.324864
0.302332
0.28197
0.26355
0.246964
0.232182
0.219257
0.208317
0.199433
0.192791
0.188244
0.187316
0.0814072
0.218205
0.299012
0.352777
0.391396
0.421167
0.44542
0.466016
0.484197
0.500973
0.517325
0.534352
0.553461
0.57613
0.600821
0.627849
0.657924
0.692528
0.734433
0.78798
0.858313
0.949038
1.04723
1.13829
1.20771
1.24732
1.25712
1.24389
1.21835
1.19167
1.17256
1.16565
1.1715
1.18768
1.21034
1.2356
1.26048
1.28332
1.30374
1.32228
1.3399
1.35764
1.37633
1.39648
1.41828
1.44156
1.46586
1.49102
1.51687
1.54264
1.56737
1.59002
1.60951
1.62482
1.63501
1.63932
1.63724
1.62857
1.61341
1.59217
1.5655
1.53417
1.49899
1.4607
1.41981
1.37658
1.33075
1.28321
1.23552
1.18594
1.13377
1.07878
1.02121
0.96187
0.902262
0.844545
0.791361
0.745505
0.709495
0.685148
0.673268
0.673504
0.684454
0.70409
0.730783
0.765252
0.813749
0.883448
0.984856
1.12
1.26691
1.37521
1.39563
1.33704
1.27512
1.25193
1.26647
1.30568
1.3562
1.40798
1.45502
1.49481
1.52732
1.55397
1.57669
1.59741
1.61776
1.63889
1.66151
1.68589
1.71195
1.73934
1.76751
1.7965
1.82595
1.85532
1.88408
1.91175
1.9379
1.96209
1.98392
2.00297
2.01884
2.03108
2.03929
2.04305
2.04201
2.03588
2.02444
2.00753
1.98523
1.95943
1.93055
1.89881
1.86471
1.82881
1.79166
1.75374
1.71544
1.67704
1.63872
1.60055
1.56251
1.52451
1.48637
1.44787
1.40877
1.36877
1.32758
1.28492
1.24066
1.19467
1.14693
1.09751
1.04653
0.994218
0.940892
0.886928
0.832739
0.778733
0.725326
0.672983
0.622245
0.573696
0.527866
0.485149
0.445756
0.409736
0.376969
0.347096
0.319864
0.29504
0.272442
0.251941
0.233464
0.216999
0.202664
0.190724
0.181218
0.175052
0.12911
0.275379
0.362999
0.427486
0.476969
0.515564
0.546051
0.570626
0.591244
0.609765
0.628052
0.648096
0.672216
0.699588
0.730669
0.765968
0.806247
0.852839
0.908034
0.975187
1.05705
1.14849
1.24094
1.32195
1.38023
1.41026
1.41387
1.39884
1.37581
1.35475
1.34235
1.34094
1.34911
1.36316
1.37891
1.39298
1.4036
1.41058
1.4149
1.41808
1.42165
1.42684
1.43443
1.44479
1.45793
1.47352
1.49098
1.51081
1.53284
1.55629
1.58011
1.60315
1.62415
1.64185
1.65497
1.6624
1.66327
1.65706
1.64368
1.62348
1.5972
1.56586
1.53062
1.49259
1.45277
1.41185
1.37007
1.32803
1.28716
1.2456
1.20226
1.15627
1.10705
1.05453
0.999386
0.943242
0.888695
0.839098
0.798104
0.769057
0.754449
0.755605
0.77268
0.805049
0.852357
0.916741
1.00194
1.10922
1.23999
1.37919
1.48542
1.50988
1.44884
1.3742
1.34322
1.35828
1.40303
1.46002
1.51633
1.56434
1.601
1.62654
1.64309
1.65357
1.66085
1.66742
1.67511
1.68512
1.69806
1.71403
1.73276
1.75368
1.77607
1.7998
1.8243
1.84895
1.87323
1.89671
1.91904
1.93992
1.95907
1.9762
1.99098
2.00306
2.01209
2.01769
2.01952
2.01726
2.01066
1.99948
1.98439
1.96625
1.94532
1.92192
1.89647
1.8694
1.84111
1.81196
1.7822
1.75202
1.72151
1.69068
1.65947
1.62773
1.59527
1.56183
1.52714
1.49089
1.45272
1.41222
1.36925
1.32373
1.27565
1.22506
1.17212
1.11709
1.06033
1.00229
0.943481
0.88444
0.825696
0.767797
0.711318
0.656847
0.60493
0.556007
0.510363
0.468129
0.429292
0.39368
0.361081
0.331276
0.304061
0.279263
0.256739
0.236387
0.218126
0.202109
0.188406
0.177512
0.184198
0.3354
0.441227
0.521409
0.581965
0.628171
0.663818
0.691851
0.714814
0.73509
0.755038
0.777103
0.80339
0.833528
0.868429
0.908913
0.955869
1.0105
1.07454
1.1484
1.23012
1.3158
1.39777
1.46636
1.51358
1.53635
1.53755
1.5246
1.50648
1.49077
1.48155
1.47912
1.48092
1.48329
1.48305
1.47846
1.46947
1.45727
1.44367
1.43053
1.4194
1.4114
1.40719
1.40705
1.41096
1.41863
1.42957
1.44487
1.46428
1.48698
1.51194
1.53797
1.56371
1.58763
1.60808
1.62343
1.63219
1.63325
1.62603
1.61059
1.58758
1.55814
1.52373
1.48587
1.446
1.40532
1.36459
1.32528
1.28819
1.25205
1.21593
1.17889
1.14003
1.09868
1.05473
1.00892
0.96302
0.919882
0.883163
0.85689
0.844926
0.850526
0.87607
0.923084
0.992908
1.08739
1.20057
1.32759
1.45532
1.55407
1.58486
1.53576
1.4545
1.41291
1.42297
1.46892
1.53041
1.59143
1.64212
1.6781
1.69914
1.7076
1.70701
1.70114
1.69333
1.6863
1.68194
1.68142
1.68517
1.69312
1.70472
1.71919
1.73563
1.75343
1.77178
1.79
1.80762
1.82434
1.84
1.85449
1.86773
1.87961
1.88995
1.89856
1.90516
1.90947
1.91123
1.91019
1.90616
1.89916
1.88989
1.87862
1.86562
1.85119
1.83559
1.81908
1.80187
1.7841
1.76586
1.74716
1.72794
1.70809
1.68745
1.66577
1.64281
1.61826
1.59178
1.56299
1.53148
1.49663
1.45835
1.41659
1.37132
1.32262
1.27064
1.21565
1.15806
1.09839
1.03721
0.975172
0.912929
0.851135
0.790451
0.731519
0.674929
0.621171
0.570589
0.523359
0.47957
0.439218
0.402144
0.368157
0.337064
0.308679
0.282834
0.259387
0.238206
0.219214
0.202485
0.18824
0.2346
0.405505
0.534645
0.627257
0.695779
0.748015
0.788563
0.820656
0.846977
0.870048
0.892439
0.916896
0.944069
0.975323
1.01187
1.05477
1.10495
1.16358
1.22938
1.30163
1.37811
1.45456
1.52454
1.58086
1.61815
1.63497
1.63437
1.62248
1.60606
1.59013
1.5767
1.56494
1.55234
1.53628
1.51519
1.48901
1.45894
1.42693
1.39512
1.36545
1.33946
1.31823
1.30245
1.2924
1.28813
1.28945
1.29603
1.30884
1.32723
1.35047
1.37778
1.40824
1.4407
1.47365
1.5052
1.53316
1.55526
1.56949
1.57439
1.56933
1.55461
1.53134
1.50115
1.46592
1.42753
1.38765
1.34771
1.31014
1.27494
1.24178
1.21025
1.17975
1.14948
1.11865
1.08674
1.05375
1.02056
0.98907
0.962326
0.944329
0.939752
0.953479
0.990017
1.05291
1.14451
1.2597
1.38664
1.50959
1.60411
1.6406
1.60548
1.528
1.47117
1.46974
1.51166
1.57522
1.64134
1.69725
1.73637
1.75714
1.76143
1.75295
1.7361
1.71516
1.69384
1.67505
1.66075
1.652
1.64902
1.65137
1.65816
1.66823
1.68039
1.69328
1.70582
1.71733
1.72744
1.73606
1.74327
1.74923
1.7541
1.75799
1.76091
1.76279
1.76347
1.76277
1.76051
1.7566
1.75105
1.74434
1.73681
1.72882
1.72066
1.71262
1.7049
1.6976
1.69075
1.68429
1.67806
1.67186
1.66542
1.65843
1.65056
1.64145
1.63071
1.61794
1.6027
1.58454
1.56286
1.53687
1.5065
1.47166
1.43233
1.38854
1.34044
1.28831
1.23257
1.17376
1.11254
1.04965
0.985846
0.921902
0.858587
0.796632
0.736704
0.679361
0.625017
0.573918
0.526164
0.481929
0.441123
0.403603
0.369201
0.33774
0.309051
0.282975
0.259361
0.23808
0.219039
0.202388
0.276495
0.480402
0.628286
0.730264
0.806362
0.865555
0.912528
0.950386
0.981669
1.0088
1.03427
1.06077
1.08891
1.1205
1.15712
1.20022
1.24994
1.30624
1.36833
1.43466
1.50256
1.56792
1.62548
1.66993
1.69762
1.70795
1.7035
1.68882
1.66855
1.64576
1.62125
1.59399
1.56225
1.52478
1.48149
1.43356
1.38308
1.33252
1.28434
1.2406
1.20287
1.17213
1.14887
1.13319
1.12494
1.12384
1.12986
1.142
1.1593
1.18147
1.20845
1.2402
1.27643
1.31628
1.35814
1.39961
1.43765
1.46909
1.49115
1.50199
1.50106
1.4891
1.46774
1.43915
1.40559
1.36914
1.33274
1.2978
1.26483
1.23423
1.20617
1.18052
1.1569
1.13474
1.11345
1.0927
1.07265
1.05437
1.04008
1.03337
1.0392
1.06345
1.11204
1.18955
1.29675
1.42081
1.54378
1.64129
1.687
1.66652
1.59713
1.52829
1.50677
1.53788
1.59967
1.67034
1.73371
1.78017
1.80591
1.81139
1.79985
1.7759
1.74461
1.71081
1.67865
1.65129
1.63073
1.61781
1.61232
1.61326
1.61912
1.62819
1.6388
1.64873
1.65676
1.66226
1.66509
1.66542
1.66362
1.66015
1.65545
1.64983
1.64344
1.63635
1.6284
1.61951
1.60946
1.59835
1.5867
1.57494
1.56353
1.55304
1.54402
1.53692
1.53205
1.52953
1.52929
1.53112
1.53463
1.53937
1.54483
1.55045
1.55566
1.5599
1.5626
1.5632
1.56112
1.55576
1.54635
1.53187
1.51217
1.48711
1.4566
1.42061
1.37925
1.33276
1.28155
1.22617
1.16733
1.10582
1.04251
0.978287
0.914033
0.850586
0.788712
0.72906
0.672132
0.618262
0.567597
0.520343
0.476562
0.436165
0.399024
0.364988
0.333897
0.305596
0.279929
0.25675
0.23589
0.217414
0.309447
0.551092
0.712544
0.823604
0.908348
0.975956
1.03092
1.07608
1.11374
1.14606
1.17535
1.20405
1.23304
1.26426
1.29929
1.33936
1.3849
1.43569
1.49075
1.54825
1.60545
1.65863
1.7035
1.73599
1.75348
1.7556
1.74419
1.72237
1.69316
1.65842
1.61849
1.57274
1.52051
1.46188
1.39814
1.33164
1.26538
1.20245
1.14555
1.09664
1.05683
1.02642
1.0051
0.992241
0.987058
0.988773
0.99697
1.00803
1.02131
1.03716
1.05661
1.08098
1.11158
1.1491
1.19316
1.24193
1.29217
1.33965
1.37997
1.40948
1.42606
1.42956
1.42121
1.40325
1.3782
1.34947
1.31938
1.2893
1.26038
1.23352
1.20936
1.18828
1.17038
1.15551
1.14336
1.13359
1.12608
1.1213
1.12073
1.1273
1.14565
1.18177
1.24188
1.3301
1.44332
1.56324
1.66631
1.72578
1.72336
1.66573
1.59058
1.54571
1.55512
1.60854
1.68101
1.75262
1.80997
1.84606
1.85902
1.85068
1.82517
1.78789
1.74461
1.70085
1.66131
1.62943
1.60713
1.59481
1.59157
1.59554
1.60439
1.61572
1.62703
1.63572
1.64059
1.64121
1.63768
1.63045
1.62021
1.60775
1.59375
1.57869
1.5628
1.54633
1.52889
1.51051
1.49067
1.47016
1.44905
1.42782
1.40718
1.38805
1.37141
1.35815
1.34897
1.34429
1.34419
1.34847
1.35666
1.3681
1.38202
1.39758
1.41396
1.43031
1.44583
1.45973
1.47126
1.4796
1.48378
1.48251
1.4755
1.46246
1.44318
1.41751
1.38547
1.34722
1.30311
1.25367
1.19961
1.14176
1.08108
1.01853
0.955127
0.891814
0.829469
0.768848
0.710559
0.655039
0.602548
0.553219
0.507278
0.464716
0.425457
0.389385
0.356366
0.326257
0.298909
0.274174
0.251868
0.231973
0.334502
0.612167
0.784845
0.905327
0.999322
1.07604
1.1398
1.19314
1.23805
1.27643
1.31021
1.34103
1.37037
1.40032
1.43254
1.4682
1.5078
1.5511
1.59712
1.64408
1.68938
1.72978
1.7617
1.78188
1.78822
1.78029
1.75919
1.72695
1.68554
1.63622
1.57942
1.51529
1.44438
1.36831
1.28985
1.21262
1.14044
1.07668
1.02362
0.98234
0.952744
0.933915
0.924439
0.922681
0.926978
0.93582
0.946478
0.95544
0.96207
0.96699
0.971906
0.979476
0.992882
1.01509
1.04797
1.09146
1.14321
1.1988
1.2525
1.29861
1.33269
1.35307
1.35991
1.35524
1.34233
1.3241
1.30275
1.28004
1.25743
1.23613
1.21715
1.20131
1.18917
1.18111
1.17726
1.17761
1.18216
1.19114
1.20549
1.22728
1.26017
1.3092
1.37954
1.47394
1.58271
1.68613
1.75845
1.77698
1.7369
1.66234
1.59743
1.57782
1.60985
1.67595
1.75315
1.8234
1.87438
1.90126
1.9034
1.88353
1.8465
1.79844
1.74594
1.69531
1.65186
1.61925
1.59914
1.59123
1.59363
1.60347
1.61751
1.63262
1.64551
1.65375
1.65634
1.6531
1.64438
1.63088
1.61353
1.59343
1.57153
1.54843
1.52431
1.49978
1.47399
1.44719
1.41918
1.38968
1.35871
1.32663
1.29422
1.26265
1.23331
1.20768
1.18709
1.17258
1.16475
1.16377
1.16934
1.18082
1.19733
1.21781
1.24114
1.2662
1.29189
1.31715
1.34098
1.36233
1.38004
1.39248
1.39912
1.39944
1.39303
1.37959
1.35895
1.33114
1.29641
1.2552
1.20818
1.1562
1.10023
1.04133
0.980601
0.919096
0.857808
0.797611
0.739225
0.683202
0.629918
0.579573
0.532349
0.488393
0.447691
0.410174
0.375743
0.344275
0.315639
0.289695
0.266279
0.245294
0.354097
0.661767
0.844834
0.974227
1.07705
1.16262
1.23507
1.29668
1.34908
1.39379
1.43241
1.46576
1.49593
1.52488
1.55423
1.58514
1.61818
1.65321
1.68939
1.72513
1.75815
1.78565
1.80461
1.8123
1.80689
1.78774
1.75541
1.71117
1.65642
1.5923
1.51974
1.43996
1.35503
1.26817
1.1836
1.10583
1.03878
0.985077
0.945784
0.920558
0.908067
0.906399
0.913333
0.926468
0.943304
0.961426
0.976271
0.985243
0.987121
0.981893
0.971106
0.958071
0.947547
0.944833
0.954515
0.97928
1.0189
1.0701
1.12702
1.18259
1.22964
1.26465
1.28607
1.29558
1.29595
1.28965
1.27885
1.26542
1.25097
1.23693
1.22457
1.21502
1.20929
1.20822
1.21252
1.22271
1.2392
1.26239
1.29289
1.33186
1.38139
1.44439
1.52344
1.61811
1.715
1.79352
1.83045
1.8118
1.74644
1.66842
1.61868
1.61948
1.6663
1.73927
1.81734
1.88449
1.93053
1.95089
1.94513
1.91667
1.87094
1.81486
1.75581
1.70097
1.65619
1.62523
1.60931
1.60725
1.61614
1.63212
1.65115
1.6695
1.68351
1.69122
1.69187
1.68551
1.67271
1.65434
1.6314
1.60528
1.57727
1.54803
1.51745
1.48692
1.4558
1.42367
1.38997
1.35412
1.31576
1.27492
1.23215
1.18852
1.14557
1.10515
1.06917
1.03938
1.01718
1.00347
0.998578
1.00227
1.01387
1.03232
1.05638
1.0847
1.11591
1.14866
1.18167
1.21363
1.24316
1.26839
1.28834
1.30223
1.30935
1.30917
1.30128
1.28552
1.26195
1.23088
1.19288
1.14874
1.09943
1.04606
0.989769
0.931726
0.873026
0.814656
0.757454
0.702089
0.649054
0.598674
0.551118
0.506585
0.465157
0.426825
0.391531
0.359186
0.32968
0.302891
0.278673
0.256915
0.367614
0.699302
0.891993
1.02931
1.13997
1.23355
1.31407
1.38358
1.44336
1.49451
1.53818
1.57508
1.60711
1.63605
1.6634
1.69028
1.71729
1.74445
1.77113
1.79603
1.81722
1.83236
1.83888
1.83447
1.8174
1.78692
1.74316
1.68697
1.61953
1.54222
1.45677
1.36566
1.27251
1.18195
1.09905
1.02829
0.972726
0.933614
0.910629
0.902372
0.906851
0.921739
0.944458
0.972165
1.00173
1.02959
1.05136
1.06461
1.06707
1.05734
1.0358
1.00541
0.971814
0.942239
0.923676
0.921663
0.938643
0.973582
1.02188
1.07686
1.12894
1.17223
1.20498
1.22719
1.2402
1.24587
1.24616
1.24287
1.23764
1.23198
1.22732
1.22504
1.22647
1.23292
1.2456
1.26568
1.29417
1.33191
1.37947
1.43724
1.50545
1.58401
1.67156
1.76307
1.84314
1.89268
1.89441
1.84484
1.76362
1.68802
1.65174
1.6664
1.72167
1.79759
1.87496
1.93937
1.98183
1.99813
1.98806
1.95459
1.90318
1.84193
1.77875
1.72149
1.6765
1.64758
1.63547
1.6382
1.65194
1.6721
1.6941
1.71385
1.7278
1.73439
1.73305
1.72402
1.708
1.68594
1.65872
1.62806
1.59551
1.56191
1.52778
1.49359
1.45916
1.42395
1.3872
1.34803
1.3057
1.25982
1.21052
1.15852
1.10515
1.05219
1.00174
0.955978
0.916949
0.886341
0.865341
0.854535
0.853894
0.862832
0.880327
0.905057
0.935541
0.970233
1.00759
1.04607
1.08407
1.11959
1.15112
1.17747
1.1976
1.21066
1.21596
1.21306
1.20176
1.18217
1.15471
1.12003
1.07905
1.03286
0.982636
0.929605
0.874951
0.819765
0.764999
0.711436
0.659685
0.610183
0.563215
0.518936
0.477518
0.439018
0.403431
0.370706
0.340764
0.313506
0.288811
0.266575
0.374948
0.726187
0.926152
1.06964
1.18665
1.28699
1.37467
1.45153
1.51854
1.57641
1.62587
1.66756
1.70301
1.73367
1.76083
1.78547
1.80819
1.82911
1.84781
1.8633
1.87407
1.87818
1.87352
1.85809
1.83034
1.78939
1.73516
1.66826
1.58992
1.50194
1.40693
1.30862
1.21186
1.12213
1.04456
0.982893
0.938956
0.912779
0.903184
0.908336
0.926025
0.953735
0.988674
1.02776
1.06762
1.1035
1.13285
1.15295
1.16072
1.15326
1.12901
1.0893
1.03953
0.988185
0.944023
0.91497
0.905718
0.917788
0.948559
0.991712
1.03939
1.08494
1.12418
1.15538
1.17858
1.19478
1.20542
1.21202
1.21611
1.21917
1.2227
1.22822
1.23733
1.25168
1.27297
1.30297
1.34333
1.39551
1.46036
1.53775
1.62616
1.72215
1.8195
1.90771
1.97028
1.99122
1.96101
1.88641
1.79438
1.72143
1.69381
1.71592
1.77474
1.85101
1.927
1.98948
2.03006
2.04473
2.03318
1.99821
1.94531
1.88209
1.81694
1.75823
1.71276
1.68453
1.67407
1.67874
1.69414
1.71526
1.73734
1.75615
1.76849
1.773
1.76932
1.75774
1.73901
1.71418
1.68444
1.65124
1.61594
1.57962
1.54301
1.50654
1.47013
1.4333
1.39521
1.35483
1.31116
1.26346
1.21144
1.1554
1.09625
1.03549
0.97502
0.917006
0.863662
0.817078
0.779055
0.750968
0.733654
0.727365
0.731773
0.746044
0.768957
0.79904
0.83468
0.874197
0.915875
0.957675
0.997564
1.03391
1.06527
1.0904
1.10827
1.11808
1.11934
1.11188
1.09587
1.07178
1.04039
1.00272
0.959935
0.91327
0.863974
0.81322
0.762057
0.711378
0.661899
0.614165
0.568565
0.525346
0.48466
0.446634
0.411318
0.37871
0.348767
0.32142
0.296574
0.274147
0.376499
0.742326
0.946878
1.09452
1.21616
1.32186
1.41565
1.49927
1.57346
1.63859
1.69498
1.74316
1.78421
1.81915
1.84892
1.87426
1.89567
1.91328
1.92682
1.93557
1.93838
1.93375
1.91998
1.89542
1.85868
1.80891
1.74589
1.67016
1.58303
1.48677
1.38477
1.28167
1.1831
1.09486
1.02175
0.966703
0.930632
0.912914
0.912047
0.926012
0.952343
0.988192
1.03056
1.07635
1.12172
1.16267
1.19739
1.22323
1.237
1.23506
1.21424
1.17381
1.11755
1.05378
0.992366
0.941739
0.908217
0.895845
0.904934
0.931456
0.968706
1.00987
1.04976
1.08528
1.11517
1.1394
1.15865
1.17398
1.18662
1.19795
1.20944
1.2227
1.23948
1.26172
1.2915
1.33108
1.38273
1.44856
1.52991
1.6266
1.73582
1.85104
1.96087
2.0492
2.09807
2.09483
2.03783
1.94276
1.84131
1.76793
1.74307
1.76683
1.82523
1.89987
1.97412
2.03546
2.0758
2.09107
2.0807
2.04716
1.99559
1.93324
1.8685
1.80977
1.76391
1.73486
1.72306
1.72591
1.73896
1.75715
1.77587
1.79115
1.80028
1.80198
1.79582
1.78205
1.76137
1.73477
1.70344
1.66869
1.63178
1.59382
1.55563
1.51768
1.48004
1.44231
1.40371
1.36319
1.31962
1.27201
1.21976
1.1628
1.10167
1.03751
0.971911
0.906794
0.844223
0.786258
0.734824
0.691614
0.658
0.634956
0.62299
0.6221
0.631784
0.65109
0.678721
0.71314
0.752703
0.795558
0.839324
0.88192
0.921471
0.956312
0.98501
1.00639
1.01958
1.02408
1.01971
1.00673
0.985685
0.957456
0.923122
0.883899
0.841047
0.79579
0.749257
0.702429
0.656122
0.610981
0.567487
0.525982
0.486687
0.449741
0.415237
0.383222
0.353697
0.326627
0.301949
0.279608
0.372455
0.74763
0.953941
1.10361
1.22811
1.33772
1.43662
1.52649
1.60796
1.68113
1.74601
1.80292
1.85241
1.89502
1.93124
1.96145
1.9859
2.00459
2.01726
2.02336
2.022
2.01204
1.99215
1.96107
1.91765
1.86116
1.79135
1.70852
1.61419
1.51115
1.40326
1.29574
1.19467
1.10594
1.0341
0.981612
0.948962
0.935265
0.938796
0.957195
0.987517
1.02643
1.07054
1.11681
1.16292
1.20572
1.24306
1.27249
1.29104
1.29487
1.27979
1.24304
1.18627
1.11672
1.04453
0.978825
0.926804
0.894102
0.883211
0.892234
0.91605
0.948595
0.984584
1.02023
1.05327
1.08266
1.10827
1.13054
1.15034
1.16882
1.1874
1.20769
1.23157
1.26112
1.29874
1.34702
1.40878
1.48668
1.58271
1.69703
1.82633
1.96187
2.08777
2.18231
2.22515
2.20567
2.12858
2.01673
1.90523
1.82694
1.79883
1.81898
1.8734
1.94455
2.01655
2.07727
2.11861
2.13628
2.12931
2.09968
2.05198
1.99293
1.93051
1.87275
1.82626
1.7949
1.77929
1.77721
1.78457
1.79668
1.80932
1.81901
1.82342
1.82129
1.81211
1.79602
1.77358
1.74567
1.71335
1.67776
1.64004
1.60122
1.5621
1.52323
1.48476
1.44644
1.40761
1.36729
1.32433
1.27764
1.2264
1.17026
1.10947
1.04482
0.977634
0.909556
0.842434
0.77815
0.718498
0.665109
0.619405
0.582575
0.555549
0.538963
0.533098
0.537823
0.552578
0.5764
0.608064
0.646238
0.688554
0.732643
0.776269
0.817377
0.85412
0.884911
0.908467
0.923869
0.930595
0.928538
0.917995
0.899613
0.874326
0.843261
0.807643
0.768709
0.72763
0.685457
0.643089
0.601256
0.560527
0.521324
0.483946
0.44859
0.415383
0.384398
0.355676
0.329223
0.305012
0.283021
0.362888
0.742017
0.947172
1.09672
1.22234
1.33454
1.43767
1.53354
1.62272
1.70521
1.78073
1.84933
1.91104
1.96584
2.01369
2.05448
2.08803
2.11403
2.13201
2.14133
2.14119
2.1306
2.10835
2.07381
2.02619
1.96497
1.8901
1.80214
1.70265
1.59441
1.48157
1.3695
1.26435
1.17193
1.0967
1.04116
1.00592
0.990195
0.992155
1.00915
1.03789
1.07479
1.11648
1.16041
1.20496
1.247
1.28423
1.31431
1.33446
1.34092
1.32904
1.29492
1.23868
1.16647
1.08795
1.01217
0.94684
0.898731
0.871736
0.865406
0.876002
0.898539
0.928236
0.961183
0.994539
1.02649
1.05614
1.08333
1.10852
1.13262
1.15695
1.18311
1.213
1.24884
1.29317
1.34885
1.41902
1.50685
1.61496
1.74417
1.89151
2.04742
2.19311
2.30166
2.34902
2.32419
2.2355
2.11082
1.98814
1.90022
1.86296
1.87431
1.92104
1.98646
2.05521
2.11524
2.15828
2.17961
2.17771
2.15395
2.11219
2.05841
1.99983
1.94384
1.89659
1.86191
1.84074
1.83145
1.83068
1.83435
1.8388
1.84108
1.83926
1.83216
1.8192
1.80037
1.77608
1.74702
1.71405
1.6781
1.64012
1.60098
1.56143
1.522
1.48293
1.4441
1.40502
1.36485
1.32252
1.27692
1.22713
1.17262
1.11336
1.04988
0.983225
0.914806
0.84627
0.779335
0.715656
0.656735
0.603866
0.558128
0.520416
0.491464
0.471863
0.462029
0.462138
0.472052
0.491331
0.519629
0.555141
0.59557
0.638543
0.681734
0.722947
0.760194
0.791768
0.816313
0.832883
0.840978
0.840545
0.831944
0.815887
0.793347
0.765458
0.733421
0.698413
0.661525
0.623713
0.58578
0.548372
0.511984
0.476983
0.443629
0.412099
0.38251
0.35493
0.329397
0.305922
0.28452
0.347379
0.724185
0.925138
1.07245
1.19752
1.311
1.41744
1.51883
1.61587
1.70851
1.79642
1.87926
1.95659
2.02788
2.09252
2.14986
2.19914
2.23951
2.27005
2.28971
2.29738
2.29205
2.27308
2.23992
2.19215
2.12958
2.05242
1.96153
1.85859
1.74645
1.62919
1.51208
1.40105
1.30181
1.21898
1.15543
1.11226
1.08902
1.08401
1.09453
1.11721
1.14846
1.18503
1.22479
1.26567
1.30416
1.33786
1.36456
1.38164
1.38546
1.37129
1.33496
1.27626
1.20079
1.1172
1.03376
0.95847
0.898952
0.859773
0.841191
0.840465
0.853655
0.87669
0.905835
0.937954
0.970687
1.00253
1.03284
1.06168
1.08978
1.11834
1.14893
1.18349
1.22426