/*--------------------------------*- C++ -*----------------------------------*\
| =========                 |                                                 |
| \\      /  F ield         | OpenFOAM: The Open Source CFD Toolbox           |
|  \\    /   O peration     | Version:  2112                                  |
|   \\  /    A nd           | Website:  www.openfoam.com                      |
|    \\/     M anipulation  |                                                 |
\*---------------------------------------------------------------------------*/
FoamFile
{
    version     2.0;
    format      ascii;
    arch        "LSB;label=32;scalar=64";
    class       volScalarField;
    location    "0.21";
    object      p;
}
// * * * * * * * * * * * * * * * * * * * * * * * * * * * * * * * * * * * * * //

dimensions      [0 2 -2 0 0 0 0];

internalField   nonuniform List<scalar> 
12225
(
-4.54536
-5.20407
-5.53436
-5.67137
-5.77783
-5.88914
-5.99388
-6.08722
-6.17238
-6.25426
-6.33326
-6.41225
-6.48797
-6.5684
-6.64324
-6.73456
-6.81119
-6.92723
-4.71117
-5.22416
-5.52739
-5.66525
-5.77252
-5.88326
-5.98759
-6.08092
-6.16642
-6.24818
-6.32741
-6.40527
-6.48189
-6.55877
-6.63752
-6.71695
-6.80503
-6.87366
-4.88449
-5.24868
-5.52597
-5.6692
-5.77872
-5.88789
-5.99026
-6.08247
-6.16701
-6.24789
-6.32576
-6.40261
-6.47746
-6.55326
-6.62888
-6.70582
-6.78471
-6.85366
-5.05149
-5.29597
-5.54033
-5.68152
-5.78959
-5.89499
-5.99416
-6.08442
-6.16776
-6.24744
-6.32426
-6.39973
-6.47354
-6.54735
-6.62091
-6.69434
-6.76791
-6.83804
-5.18924
-5.36248
-5.5672
-5.69969
-5.80429
-5.90547
-6.00117
-6.08919
-6.1711
-6.2494
-6.32497
-6.3989
-6.47131
-6.54294
-6.61415
-6.68408
-6.7537
-6.81905
-5.30078
-5.43528
-5.60218
-5.72324
-5.82318
-5.91984
-6.01171
-6.0971
-6.17717
-6.2538
-6.32781
-6.4
-6.47061
-6.53997
-6.60846
-6.67505
-6.7402
-6.80009
-5.40291
-5.50492
-5.64157
-5.75106
-5.84558
-5.93737
-6.02514
-6.10757
-6.18544
-6.26013
-6.33231
-6.40256
-6.47111
-6.53806
-6.60363
-6.66685
-6.72768
-6.78321
-5.49935
-5.56899
-5.68279
-5.78144
-5.87017
-5.95699
-6.04057
-6.11986
-6.19531
-6.26787
-6.33802
-6.40616
-6.47245
-6.53687
-6.59944
-6.65933
-6.71625
-6.76803
-5.58561
-5.62924
-5.72423
-5.81276
-5.8957
-5.97764
-6.05713
-6.13325
-6.20616
-6.27646
-6.34444
-6.41036
-6.47427
-6.53608
-6.59566
-6.65234
-6.70572
-6.75412
-5.6578
-5.68621
-5.76465
-5.84382
-5.92113
-5.99838
-6.07397
-6.14697
-6.21731
-6.28529
-6.35104
-6.41467
-6.47614
-6.53534
-6.59202
-6.64566
-6.69585
-6.74127
-5.7175
-5.73852
-5.80317
-5.87392
-5.94577
-6.01853
-6.09038
-6.16034
-6.22811
-6.29375
-6.35724
-6.41857
-6.47763
-6.53427
-6.58821
-6.63904
-6.68641
-6.72924
-5.76552
-5.78223
-5.83658
-5.90035
-5.96731
-6.03606
-6.10459
-6.17182
-6.23725
-6.30075
-6.36217
-6.42143
-6.47835
-6.53274
-6.58436
-6.63285
-6.67796
-6.71876
-5.80867
-5.82213
-5.86772
-5.92524
-5.98752
-6.05235
-6.11767
-6.18222
-6.24535
-6.30675
-6.36616
-6.42341
-6.47829
-6.53061
-6.58011
-6.62652
-6.66966
-6.70876
-5.85281
-5.86364
-5.90105
-5.95205
-6.00917
-6.06961
-6.13127
-6.19277
-6.25327
-6.31227
-6.36943
-6.42446
-6.47715
-6.52726
-6.5746
-6.61893
-6.66013
-6.69765
-5.89628
-5.90515
-5.93555
-5.98003
-6.03167
-6.08733
-6.14493
-6.20296
-6.26045
-6.31674
-6.37138
-6.42401
-6.47437
-6.52223
-6.56741
-6.60974
-6.64914
-6.68523
-5.93686
-5.94435
-5.96921
-6.00765
-6.05385
-6.10461
-6.15789
-6.21216
-6.26633
-6.31964
-6.37153
-6.42161
-6.46957
-6.51518
-6.55828
-6.59875
-6.63653
-6.67137
-5.97145
-5.97804
-5.99886
-6.03227
-6.07362
-6.11982
-6.16892
-6.21943
-6.27021
-6.32044
-6.36952
-6.41701
-6.46259
-6.50603
-6.54718
-6.58596
-6.62232
-6.65612
-5.99522
-6.00129
-6.01963
-6.0496
-6.08738
-6.13005
-6.17576
-6.22307
-6.27087
-6.31833
-6.36484
-6.40995
-6.45335
-6.49483
-6.53425
-6.57154
-6.60667
-6.63957
-6.00024
-6.0062
-6.02385
-6.05274
-6.08917
-6.13029
-6.1743
-6.21981
-6.26578
-6.3114
-6.3561
-6.39947
-6.44124
-6.48122
-6.51932
-6.55548
-6.58969
-6.62197
-5.97919
-5.98605
-6.00601
-6.03741
-6.07578
-6.11821
-6.16297
-6.20877
-6.25462
-6.29983
-6.34391
-6.38655
-6.42753
-6.46673
-6.50408
-6.53957
-6.57321
-6.60506
-5.94434
-5.95314
-5.97743
-6.0134
-6.05541
-6.10059
-6.14736
-6.19451
-6.24115
-6.28673
-6.33089
-6.3734
-6.41414
-6.45304
-6.49008
-6.52527
-6.55867
-6.59036
-5.89677
-5.90967
-5.94104
-5.98343
-6.03016
-6.07885
-6.12823
-6.17718
-6.22499
-6.27125
-6.31578
-6.35847
-6.39925
-6.43812
-6.47511
-6.51026
-6.54363
-6.57533
-5.83733
-5.85775
-5.89931
-5.94956
-6.00151
-6.05407
-6.1064
-6.15747
-6.2067
-6.25392
-6.29911
-6.34225
-6.38337
-6.42251
-6.45971
-6.49506
-6.52862
-6.56053
-5.76549
-5.79751
-5.8533
-5.913
-5.97052
-6.0273
-6.08304
-6.13663
-6.18763
-6.23611
-6.28225
-6.32615
-6.36789
-6.40753
-6.44518
-6.48091
-6.51484
-6.54709
-5.67981
-5.72671
-5.8038
-5.87563
-5.9392
-6.00063
-6.06031
-6.11682
-6.16984
-6.21979
-6.26707
-6.31191
-6.35442
-6.39472
-6.43292
-6.46915
-6.50351
-6.53614
-5.57853
-5.64447
-5.75397
-5.84105
-5.91091
-5.97718
-6.04103
-6.10052
-6.15549
-6.20684
-6.25522
-6.30097
-6.34424
-6.38516
-6.4239
-6.46059
-6.49538
-6.52837
-5.44839
-5.55937
-5.71129
-5.81335
-5.88862
-5.95952
-6.02737
-6.08952
-6.1461
-6.19854
-6.2478
-6.29426
-6.33811
-6.3795
-6.41861
-6.45558
-6.49068
-6.52398
-5.28264
-5.49149
-5.68558
-5.79523
-5.87292
-5.94765
-6.01909
-6.08349
-6.14136
-6.19472
-6.24477
-6.2919
-6.33631
-6.3781
-6.41754
-6.4547
-6.48994
-6.52329
-5.10276
-5.45241
-5.68268
-5.79026
-5.86539
-5.94113
-6.01413
-6.0793
-6.13747
-6.19107
-6.2415
-6.28904
-6.33387
-6.37602
-6.41581
-6.4532
-6.48864
-6.52196
-4.93355
-5.42168
-5.68556
-5.7947
-5.86968
-5.94674
-6.02081
-6.08621
-6.14414
-6.19738
-6.24751
-6.29484
-6.33948
-6.38142
-6.4211
-6.45831
-6.4935
-6.52581
-7.5767
-7.57982
-7.58492
-7.59089
-7.59586
-7.59852
-7.59777
-7.59319
-7.58483
-7.57396
-7.5623
-7.55153
-7.54265
-7.53596
-7.53103
-7.52723
-7.52406
-7.5211
-7.51862
-7.51727
-7.51798
-7.52003
-7.52268
-7.52593
-7.52902
-7.52955
-7.5264
-7.51954
-7.51122
-7.50591
-7.50601
-7.50956
-7.51312
-7.51455
-7.51615
-7.51705
-7.51332
-7.50948
-7.49805
-7.48245
-7.48572
-7.5097
-7.55084
-7.60505
-7.66796
-7.73596
-7.8061
-7.87621
-7.94497
-8.01159
-8.07566
-8.13702
-8.19572
-8.25188
-8.30567
-8.35731
-8.407
-8.45494
-8.50116
-8.54564
-8.58842
-8.62959
-8.66917
-8.70713
-8.74346
-8.77807
-8.81087
-8.84177
-8.87062
-8.89728
-8.92162
-8.94345
-8.96263
-8.97897
-8.99231
-9.00249
-9.00932
-9.01266
-9.01234
-9.00822
-9.00014
-8.98797
-8.97157
-8.95081
-8.92558
-8.89574
-8.86119
-8.82182
-8.77753
-8.72821
-8.67378
-8.61414
-8.5492
-8.4789
-8.40315
-8.3219
-8.23506
-8.1426
-8.04448
-7.94062
-7.83091
-7.71552
-7.5943
-7.46723
-7.3343
-7.19553
-7.05092
-6.9005
-6.74431
-6.58239
-6.41479
-6.24158
-6.06283
-5.87864
-5.68909
-5.4943
-5.29438
-5.08947
-4.87969
-4.6652
-4.44615
-4.22272
-3.99506
-3.76338
-3.52786
-3.2887
-3.04612
-2.80032
-2.55158
-2.30019
-2.0464
-1.79007
-1.53138
-1.27076
-1.00846
-0.744721
-0.479779
-0.213882
0.0527313
0.319826
0.587171
0.854541
1.12171
1.38846
1.65459
1.91988
2.18413
2.44715
2.70874
2.96873
3.22693
3.48317
3.73727
3.98908
4.23844
4.48522
4.72931
4.97058
5.20894
5.44431
5.67658
5.90569
6.13156
6.35409
6.57322
6.78886
7.00097
7.20946
7.4143
7.61543
7.81278
8.0063
8.19594
8.38156
8.56343
8.74042
8.91602
9.08099
9.25951
9.40069
-7.58932
-7.59199
-7.59793
-7.6046
-7.60987
-7.61259
-7.61145
-7.60608
-7.5969
-7.58508
-7.57252
-7.5609
-7.55115
-7.54357
-7.53779
-7.53327
-7.52949
-7.52631
-7.52369
-7.5223
-7.52318
-7.52493
-7.52536
-7.52743
-7.53209
-7.53521
-7.53451
-7.53006
-7.52265
-7.51742
-7.51771
-7.52242
-7.52717
-7.52422
-7.51413
-7.49504
-7.49119
-7.51591
-7.52658
-7.52231
-7.53195
-7.55865
-7.60038
-7.65301
-7.71266
-7.77607
-7.84092
-7.90571
-7.96941
-8.03135
-8.09123
-8.14893
-8.20446
-8.25792
-8.30941
-8.35907
-8.40704
-8.45343
-8.49829
-8.54167
-8.58357
-8.62402
-8.66301
-8.7005
-8.73644
-8.77074
-8.8033
-8.83401
-8.86274
-8.88932
-8.91362
-8.93546
-8.95468
-8.9711
-8.98455
-8.99486
-9.00187
-9.00541
-9.00532
-9.00146
-8.99367
-8.98181
-8.96575
-8.94537
-8.92053
-8.89113
-8.85703
-8.81815
-8.77437
-8.72559
-8.67172
-8.61267
-8.54835
-8.47869
-8.40362
-8.32305
-8.23692
-8.14518
-8.04782
-7.94496
-7.8361
-7.72132
-7.60081
-7.47453
-7.34243
-7.20451
-7.06077
-6.91123
-6.75592
-6.59487
-6.42816
-6.25582
-6.07795
-5.89463
-5.70594
-5.512
-5.31292
-5.10883
-4.89986
-4.68617
-4.4679
-4.24522
-4.0183
-3.78732
-3.55248
-3.31395
-3.07194
-2.82663
-2.57821
-2.32684
-2.07279
-1.81655
-1.55829
-1.29805
-1.03615
-0.772775
-0.508166
-0.24257
0.0237695
0.290622
0.557754
0.82494
1.09196
1.35858
1.62461
1.88982
2.15402
2.41702
2.67862
2.93864
3.19689
3.45321
3.70741
3.95934
4.20884
4.45578
4.70003
4.94148
5.18003
5.41558
5.64805
5.87735
6.10341
6.32614
6.54547
6.76132
6.97362
7.18231
7.38734
7.58864
7.78618
7.97988
8.16974
8.35559
8.5378
8.71521
8.89154
9.05736
9.23778
9.38191
-7.59277
-7.59423
-7.59759
-7.60152
-7.60506
-7.60735
-7.60793
-7.60559
-7.60028
-7.59302
-7.58525
-7.57809
-7.57208
-7.56722
-7.56322
-7.55961
-7.55585
-7.55174
-7.5471
-7.5421
-7.53701
-7.53214
-7.52794
-7.5252
-7.52361
-7.52154
-7.51856
-7.51515
-7.51382
-7.51708
-7.52429
-7.52737
-7.52128
-7.51646
-7.52561
-7.52985
-7.5283
-7.53952
-7.55748
-7.57725
-7.6034
-7.63655
-7.67729
-7.72409
-7.77545
-7.82964
-7.88533
-7.94149
-7.99738
-8.0525
-8.10651
-8.15922
-8.21053
-8.26043
-8.30893
-8.35608
-8.40192
-8.44649
-8.48981
-8.53189
-8.57271
-8.61227
-8.65052
-8.68741
-8.72287
-8.75679
-8.78907
-8.81958
-8.84817
-8.87469
-8.89898
-8.92087
-8.94019
-8.95676
-8.9704
-8.98095
-8.98823
-8.99208
-8.99234
-8.98885
-8.98148
-8.97008
-8.95452
-8.93467
-8.9104
-8.88161
-8.84816
-8.80996
-8.7669
-8.71888
-8.6658
-8.60758
-8.54413
-8.47537
-8.40123
-8.32163
-8.2365
-8.1458
-8.04941
-7.94718
-7.83963
-7.72617
-7.60688
-7.48177
-7.35083
-7.21406
-7.07149
-6.92311
-6.76897
-6.6091
-6.44355
-6.27239
-6.09568
-5.91351
-5.72597
-5.53316
-5.3352
-5.13221
-4.92433
-4.7117
-4.49446
-4.2728
-4.04686
-3.81684
-3.58293
-3.3453
-3.10417
-2.85973
-2.61219
-2.36174
-2.10861
-1.85312
-1.59547
-1.33585
-1.07451
-0.811654
-0.547532
-0.282382
-0.0164394
0.250059
0.51688
0.783799
1.05059
1.31703
1.58291
1.84802
2.11215
2.37512
2.63672
2.89677
3.15511
3.41153
3.66588
3.91798
4.16769
4.41485
4.65935
4.90107
5.13989
5.37572
5.60849
5.83809
6.06445
6.28748
6.50712
6.72327
6.93588
7.14487
7.35019
7.55178
7.7496
7.94359
8.13374
8.31991
8.50252
8.68031
8.85733
9.02357
9.20476
9.348
-7.58864
-7.58798
-7.58713
-7.58767
-7.59105
-7.59602
-7.60073
-7.60451
-7.60715
-7.60874
-7.60946
-7.60953
-7.60897
-7.60757
-7.6051
-7.60125
-7.5958
-7.58844
-7.57945
-7.56892
-7.55703
-7.54404
-7.53042
-7.51689
-7.50423
-7.49366
-7.4866
-7.48592
-7.49
-7.49593
-7.50281
-7.51348
-7.52166
-7.52602
-7.53553
-7.54989
-7.56655
-7.58707
-7.60985
-7.63595
-7.66633
-7.70088
-7.7397
-7.78212
-7.8275
-7.87502
-7.92393
-7.97355
-8.02336
-8.07295
-8.12203
-8.1704
-8.21793
-8.26456
-8.31024
-8.35497
-8.39873
-8.44152
-8.48333
-8.52414
-8.56391
-8.60261
-8.64016
-8.6765
-8.71153
-8.74514
-8.77721
-8.80759
-8.83613
-8.86267
-8.88704
-8.90906
-8.92855
-8.94534
-8.95924
-8.97007
-8.97767
-8.98187
-8.98252
-8.97944
-8.97252
-8.96159
-8.94654
-8.92723
-8.90353
-8.87534
-8.84254
-8.80502
-8.76267
-8.71539
-8.66309
-8.60568
-8.54307
-8.47519
-8.40195
-8.32329
-8.23914
-8.14944
-8.05412
-7.95307
-7.84637
-7.73391
-7.61569
-7.49166
-7.36183
-7.22618
-7.08472
-6.93748
-6.78447
-6.62574
-6.46133
-6.29131
-6.11573
-5.93469
-5.74826
-5.55656
-5.3597
-5.15779
-4.95097
-4.73938
-4.52317
-4.30251
-4.07755
-3.84847
-3.61547
-3.37873
-3.13844
-2.89483
-2.64808
-2.39842
-2.14606
-1.89127
-1.63425
-1.37523
-1.11443
-0.852091
-0.588444
-0.323731
-0.0581814
0.207967
0.474481
0.741133
1.0077
1.27396
1.53969
1.80469
2.06875
2.33168
2.59328
2.85337
3.11177
3.3683
3.62278
3.87505
4.12495
4.37233
4.61706
4.85903
5.09812
5.33423
5.56728
5.79717
6.02383
6.24717
6.46711
6.68356
6.89647
7.10576
7.31137
7.51324
7.71134
7.9056
8.09603
8.28248
8.46538
8.64348
8.82066
8.98717
9.1678
9.30708
-7.58725
-7.58661
-7.58479
-7.58525
-7.5889
-7.5966
-7.60704
-7.61823
-7.62853
-7.63733
-7.64446
-7.6496
-7.65235
-7.65248
-7.64991
-7.64468
-7.63674
-7.62612
-7.61292
-7.59724
-7.57932
-7.55958
-7.53846
-7.51682
-7.49632
-7.47974
-7.47041
-7.4686
-7.47196
-7.47998
-7.49066
-7.50451
-7.52241
-7.54172
-7.56232
-7.58429
-7.60837
-7.63464
-7.66201
-7.69126
-7.72288
-7.75708
-7.79389
-7.83304
-7.87417
-7.91687
-7.96068
-8.00522
-8.05014
-8.09514
-8.14001
-8.18458
-8.22872
-8.27235
-8.31541
-8.35784
-8.39962
-8.44071
-8.48107
-8.52065
-8.55941
-8.59728
-8.63416
-8.66998
-8.70461
-8.73794
-8.76982
-8.8001
-8.82861
-8.85519
-8.87965
-8.90181
-8.92147
-8.93846
-8.9526
-8.96369
-8.97157
-8.97607
-8.97703
-8.9743
-8.96774
-8.95721
-8.94257
-8.9237
-8.90048
-8.87279
-8.84052
-8.80356
-8.7618
-8.71514
-8.66349
-8.60675
-8.54484
-8.47769
-8.4052
-8.32732
-8.24396
-8.15507
-8.06059
-7.96044
-7.85459
-7.74301
-7.62567
-7.50255
-7.37362
-7.23889
-7.09836
-6.95205
-6.79997
-6.64217
-6.4787
-6.3096
-6.13495
-5.95482
-5.76931
-5.57852
-5.38254
-5.18151
-4.97556
-4.76482
-4.54944
-4.32959
-4.10542
-3.87712
-3.64486
-3.40883
-3.16925
-2.9263
-2.68019
-2.43114
-2.17937
-1.92514
-1.66864
-1.41012
-1.14978
-0.887865
-0.624617
-0.36027
-0.095054
0.170794
0.437042
0.70346
0.969823
1.23591
1.50151
1.7664
2.03038
2.29326
2.55484
2.81494
3.07337
3.32996
3.58453
3.83691
4.08693
4.33446
4.57936
4.82151
5.06079
5.29711
5.53038
5.76049
5.98738
6.21095
6.43112
6.6478
6.86094
7.07045
7.27629
7.47838
7.67669
7.87115
8.06178
8.2484
8.43143
8.60966
8.7866
8.95294
9.13245
9.26625
-7.58943
-7.58814
-7.58796
-7.59131
-7.60092
-7.6148
-7.63034
-7.64611
-7.66087
-7.67308
-7.68183
-7.68708
-7.68914
-7.68825
-7.6845
-7.67789
-7.66835
-7.6558
-7.64024
-7.62179
-7.60058
-7.57676
-7.55102
-7.52515
-7.50218
-7.48517
-7.47589
-7.47242
-7.47436
-7.48314
-7.49931
-7.5209
-7.54509
-7.57044
-7.59675
-7.62351
-7.65103
-7.67956
-7.70896
-7.73954
-7.77149
-7.80498
-7.84005
-7.87664
-7.91458
-7.95367
-7.99366
-8.03432
-8.07543
-8.1168
-8.15828
-8.19972
-8.24103
-8.28211
-8.32291
-8.36336
-8.40341
-8.44302
-8.48211
-8.52064
-8.55852
-8.59568
-8.63201
-8.66741
-8.70174
-8.73487
-8.76664
-8.79689
-8.82543
-8.85209
-8.87668
-8.899
-8.91885
-8.93604
-8.9504
-8.96172
-8.96984
-8.97459
-8.97581
-8.97335
-8.96707
-8.95684
-8.94253
-8.924
-8.90115
-8.87385
-8.84199
-8.80546
-8.76416
-8.71798
-8.66683
-8.61062
-8.54926
-8.48267
-8.41077
-8.33348
-8.25075
-8.16249
-8.06864
-7.96915
-7.86398
-7.75309
-7.63644
-7.51401
-7.38578
-7.25176
-7.11193
-6.96632
-6.81495
-6.65786
-6.49508
-6.32669
-6.15273
-5.97329
-5.78846
-5.59834
-5.40303
-5.20266
-4.99735
-4.78724
-4.57248
-4.35322
-4.12964
-3.90191
-3.6702
-3.43471
-3.19564
-2.95318
-2.70755
-2.45897
-2.20765
-1.95383
-1.69773
-1.43957
-1.17958
-0.917993
-0.655051
-0.390986
-0.12603
0.139582
0.405616
0.671844
0.93804
1.20398
1.46946
1.73425
1.99815
2.26097
2.52252
2.7826
3.04104
3.29766
3.55227
3.8047
4.0548
4.30241
4.54741
4.78966
5.02907
5.26552
5.49893
5.7292
5.95624
6.17996
6.40029
6.61713
6.83042
7.04008
7.24606
7.4483
7.64675
7.84134
8.03206
8.21877
8.40178
8.57995
8.75643
8.92223
9.10067
9.22847
-7.59737
-7.59453
-7.59863
-7.60887
-7.62411
-7.64208
-7.66069
-7.67729
-7.69063
-7.70076
-7.70801
-7.71252
-7.71429
-7.71325
-7.70928
-7.70228
-7.69217
-7.67891
-7.66252
-7.64301
-7.62043
-7.59537
-7.56934
-7.54469
-7.52369
-7.5083
-7.49883
-7.49566
-7.49975
-7.51188
-7.53084
-7.55426
-7.57987
-7.60667
-7.63429
-7.66241
-7.69105
-7.72025
-7.75008
-7.7807
-7.81222
-7.84475
-7.87833
-7.91295
-7.94853
-7.98496
-8.02213
-8.05991
-8.09816
-8.13676
-8.17561
-8.2146
-8.25366
-8.29271
-8.33169
-8.37053
-8.40919
-8.44759
-8.48568
-8.52337
-8.56058
-8.5972
-8.63314
-8.66826
-8.70241
-8.73546
-8.76722
-8.79752
-8.82617
-8.85297
-8.87773
-8.90023
-8.92028
-8.93768
-8.95223
-8.96376
-8.97207
-8.97702
-8.97843
-8.97618
-8.97011
-8.96009
-8.94601
-8.92772
-8.90513
-8.87811
-8.84655
-8.81034
-8.76937
-8.72354
-8.67275
-8.61692
-8.55595
-8.48977
-8.4183
-8.34145
-8.25917
-8.17137
-8.07799
-7.97899
-7.87431
-7.76391
-7.64776
-7.52583
-7.39811
-7.26458
-7.12526
-6.98015
-6.82928
-6.67268
-6.5104
-6.34249
-6.16902
-5.99006
-5.8057
-5.61604
-5.42119
-5.22127
-5.0164
-4.80673
-4.59239
-4.37355
-4.15037
-3.92302
-3.6917
-3.45658
-3.21786
-2.97575
-2.73046
-2.4822
-2.23119
-1.97767
-1.72185
-1.46395
-1.20421
-0.94285
-0.680127
-0.416267
-0.151502
0.113933
0.379805
0.645887
0.911951
1.17778
1.44315
1.70785
1.97168
2.23444
2.49594
2.756
3.01443
3.27105
3.52566
3.77811
4.02823
4.27588
4.52092
4.76323
5.0027
5.23922
5.47271
5.70307
5.93021
6.15402
6.37444
6.59138
6.80475
7.01451
7.22058
7.4229
7.62142
7.81607
8.00682
8.19351
8.3764
8.55438
8.73029
8.8953
9.07289
9.19475
-7.6042
-7.60536
-7.61471
-7.63083
-7.64943
-7.66752
-7.68349
-7.69728
-7.70897
-7.71846
-7.72552
-7.72997
-7.73167
-7.73051
-7.7264
-7.71934
-7.70932
-7.69627
-7.68004
-7.66074
-7.63895
-7.61555
-7.5918
-7.56959
-7.55129
-7.53872
-7.53185
-7.53113
-7.53766
-7.55119
-7.57014
-7.5927
-7.61739
-7.64346
-7.67048
-7.69819
-7.72648
-7.75533
-7.78476
-7.81483
-7.84559
-7.87711
-7.9094
-7.94246
-7.97626
-8.01075
-8.04587
-8.08155
-8.11771
-8.15428
-8.19118
-8.22835
-8.26572
-8.30325
-8.34087
-8.37852
-8.41614
-8.45367
-8.49103
-8.52815
-8.56491
-8.60122
-8.63695
-8.67195
-8.70608
-8.73917
-8.77104
-8.80148
-8.83031
-8.85732
-8.88228
-8.905
-8.92525
-8.94284
-8.95758
-8.96926
-8.97773
-8.98281
-8.98435
-8.98221
-8.97626
-8.96638
-8.95243
-8.9343
-8.91186
-8.88502
-8.85364
-8.81763
-8.77688
-8.73127
-8.68071
-8.62512
-8.56441
-8.4985
-8.42731
-8.35076
-8.26878
-8.18129
-8.08824
-7.98956
-7.8852
-7.77513
-7.6593
-7.5377
-7.4103
-7.2771
-7.1381
-6.99331
-6.84275
-6.68647
-6.5245
-6.3569
-6.18373
-6.00508
-5.82101
-5.63165
-5.43708
-5.23744
-5.03285
-4.82345
-4.60938
-4.39079
-4.16787
-3.94077
-3.70968
-3.47479
-3.23631
-2.99442
-2.74934
-2.5013
-2.2505
-1.99717
-1.74154
-1.48382
-1.22423
-0.963037
-0.700466
-0.436749
-0.172121
0.093185
0.358937
0.624907
0.890867
1.1566
1.42188
1.68651
1.95027
2.21297
2.47443
2.73445
2.99286
3.24945
3.50405
3.75648
4.00659
4.25422
4.49926
4.74158
4.98107
5.21762
5.45115
5.68156
5.90874
6.1326
6.35306
6.57004
6.78345
6.99325
7.19936
7.40172
7.60027
7.79493
7.98565
8.17226
8.35497
8.53265
8.70798
8.87208
9.04904
9.16529
-7.60805
-7.61481
-7.63054
-7.64826
-7.66522
-7.68098
-7.69547
-7.70844
-7.71958
-7.72861
-7.73533
-7.73956
-7.74118
-7.7402
-7.73657
-7.73
-7.7204
-7.70794
-7.69278
-7.67509
-7.65526
-7.6342
-7.61331
-7.59475
-7.58065
-7.5714
-7.56711
-7.56859
-7.57638
-7.58985
-7.60766
-7.62854
-7.65156
-7.67614
-7.70188
-7.72851
-7.75588
-7.78392
-7.81259
-7.84189
-7.87183
-7.90241
-7.93364
-7.9655
-7.998
-8.03111
-8.06479
-8.09901
-8.13371
-8.16887
-8.20442
-8.24034
-8.27657
-8.31306
-8.34977
-8.38664
-8.4236
-8.46059
-8.49754
-8.53435
-8.57092
-8.60714
-8.64285
-8.67793
-8.71219
-8.74545
-8.77753
-8.80822
-8.8373
-8.86456
-8.88976
-8.91269
-8.93314
-8.9509
-8.96577
-8.97757
-8.98612
-8.99125
-8.99284
-8.99073
-8.98482
-8.97498
-8.96107
-8.94299
-8.92062
-8.89385
-8.86256
-8.82664
-8.78599
-8.74048
-8.69004
-8.63457
-8.57399
-8.50823
-8.4372
-8.36082
-8.27901
-8.1917
-8.09883
-8.00033
-7.89615
-7.78626
-7.67061
-7.54919
-7.42196
-7.28893
-7.1501
-7.00547
-6.85508
-6.69896
-6.53715
-6.36971
-6.1967
-6.0182
-5.83429
-5.64507
-5.45066
-5.25116
-5.04671
-4.83745
-4.62352
-4.40508
-4.18229
-3.95532
-3.72436
-3.4896
-3.25124
-3.00948
-2.76453
-2.51662
-2.26594
-2.01274
-1.75722
-1.49961
-1.24013
-0.979038
-0.71657
-0.452955
-0.188426
0.076784
0.342443
0.608322
0.874195
1.13984
1.40505
1.6696
1.93329
2.19593
2.45732
2.7173
2.97568
3.23223
3.48678
3.73916
3.98922
4.23681
4.48181
4.7241
4.96357
5.20011
5.43363
5.66405
5.89125
6.11511
6.33557
6.55254
6.76595
6.97574
7.18185
7.38421
7.58276
7.77739
7.96805
8.15452
8.337
8.51432
8.68907
8.8522
9.0287
9.13989
-7.61823
-7.62734
-7.6426
-7.6575
-7.67216
-7.68624
-7.69938
-7.71127
-7.72165
-7.73023
-7.73681
-7.74131
-7.74357
-7.74316
-7.73991
-7.73385
-7.72505
-7.71373
-7.69999
-7.68398
-7.6664
-7.64832
-7.63117
-7.61679
-7.6062
-7.5996
-7.59748
-7.60049
-7.60879
-7.62168
-7.63819
-7.65748
-7.67891
-7.70201
-7.72642
-7.7519
-7.77827
-7.80543
-7.83332
-7.86188
-7.89108
-7.92089
-7.95132
-7.98235
-8.01397
-8.04616
-8.07892
-8.11221
-8.14601
-8.1803
-8.21504
-8.25022
-8.28579
-8.32171
-8.35793
-8.3944
-8.43107
-8.46786
-8.50469
-8.54148
-8.5781
-8.61444
-8.65035
-8.68566
-8.72019
-8.75376
-8.78615
-8.81716
-8.84654
-8.87407
-8.89951
-8.92263
-8.94323
-8.96109
-8.97602
-8.98783
-8.99635
-9.00144
-9.00297
-9.00082
-8.99486
-8.98497
-8.97103
-8.95292
-8.93053
-8.90375
-8.87246
-8.83655
-8.7959
-8.7504
-8.69996
-8.6445
-8.58395
-8.51822
-8.44724
-8.37091
-8.28916
-8.20192
-8.1091
-8.01066
-7.90654
-7.7967
-7.68112
-7.55975
-7.43257
-7.29959
-7.1608
-7.01622
-6.86587
-6.7098
-6.54804
-6.38064
-6.20767
-6.02921
-5.84534
-5.65616
-5.46179
-5.26234
-5.05794
-4.84872
-4.63484
-4.41644
-4.1937
-3.96678
-3.73587
-3.50117
-3.26286
-3.02116
-2.77628
-2.52843
-2.27783
-2.02469
-1.76924
-1.51169
-1.25228
-0.991262
-0.728868
-0.465329
-0.200878
0.0642528
0.329831
0.595629
0.861421
1.12699
1.39211
1.65658
1.92019
2.18274
2.44407
2.70399
2.96232
3.21882
3.4733
3.72559
3.97557
4.22308
4.46801
4.71023
4.94964
5.18613
5.41963
5.65003
5.87721
6.10104
6.32146
6.53839
6.75176
6.96152
7.16759
7.36993
7.56844
7.76301
7.95356
8.13986
8.32208
8.49899
8.67318
8.8353
9.01145
9.1182
-7.62354
-7.63149
-7.64315
-7.65561
-7.66839
-7.68095
-7.69294
-7.70411
-7.71416
-7.72303
-7.73045
-7.73567
-7.73838
-7.73848
-7.73577
-7.73032
-7.72238
-7.71214
-7.69982
-7.68583
-7.67085
-7.65589
-7.64233
-7.63131
-7.62334
-7.61887
-7.61848
-7.62262
-7.63121
-7.64363
-7.65923
-7.6774
-7.69767
-7.71963
-7.743
-7.76755
-7.79312
-7.81958
-7.84685
-7.87485
-7.90352
-7.93282
-7.96276
-7.99329
-8.02442
-8.05613
-8.08841
-8.12124
-8.15462
-8.18852
-8.22294
-8.25783
-8.29318
-8.32895
-8.36508
-8.40153
-8.43824
-8.47513
-8.51213
-8.54914
-8.58605
-8.62272
-8.659
-8.69469
-8.7296
-8.76354
-8.79628
-8.82759
-8.85725
-8.88501
-8.91064
-8.93389
-8.95455
-8.97244
-8.98734
-8.99906
-9.00744
-9.01237
-9.01375
-9.01146
-9.00538
-8.99537
-8.98131
-8.96308
-8.94059
-8.91372
-8.88235
-8.84637
-8.80565
-8.76005
-8.7095
-8.65395
-8.59332
-8.52754
-8.45652
-8.38016
-8.29838
-8.2111
-8.11824
-8.01976
-7.91561
-7.80574
-7.69012
-7.56871
-7.4415
-7.30848
-7.16964
-7.02502
-6.87463
-6.71852
-6.55672
-6.38929
-6.21628
-6.03779
-5.85389
-5.66468
-5.47028
-5.27081
-5.06639
-4.85717
-4.64327
-4.42487
-4.20213
-3.97521
-3.74431
-3.50962
-3.27133
-3.02965
-2.7848
-2.53699
-2.28643
-2.03333
-1.77793
-1.52043
-1.26107
-1.00012
-0.737788
-0.474318
-0.20994
0.0551124
0.320609
0.586322
0.852026
1.1175
1.38253
1.64691
1.91042
2.17289
2.43412
2.69398
2.95226
3.20867
3.46304
3.71522
3.96509
4.21249
4.45732
4.69945
4.93877
5.17519
5.40863
5.63901
5.86614
6.08991
6.31026
6.52712
6.74043
6.95013
7.15615
7.35844
7.55691
7.75139
7.94181
8.12791
8.30984
8.48632
8.65997
8.8211
8.99693
9.09989
-7.61378
-7.62012
-7.63014
-7.6415
-7.65327
-7.66492
-7.67627
-7.68753
-7.69845
-7.70809
-7.71599
-7.7218
-7.72502
-7.72548
-7.72326
-7.71856
-7.71163
-7.7027
-7.69202
-7.67998
-7.66734
-7.65512
-7.64434
-7.63571
-7.62978
-7.62711
-7.62826
-7.63346
-7.64247
-7.65482
-7.67003
-7.68762
-7.70723
-7.72852
-7.75126
-7.77525
-7.80033
-7.82638
-7.85331
-7.88102
-7.90945
-7.93856
-7.96832
-7.99871
-8.02972
-8.06134
-8.09355
-8.12635
-8.15974
-8.19369
-8.22818
-8.26321
-8.29874
-8.33472
-8.37113
-8.4079
-8.44495
-8.48221
-8.51959
-8.55702
-8.59435
-8.63146
-8.66817
-8.7043
-8.73964
-8.77397
-8.80707
-8.83869
-8.86859
-8.89652
-8.92224
-8.9455
-8.96612
-8.9839
-8.99864
-9.01014
-9.01823
-9.02284
-9.02392
-9.02138
-9.01507
-9.00485
-8.99058
-8.97216
-8.94949
-8.92246
-8.89095
-8.85483
-8.81395
-8.76816
-8.71741
-8.66169
-8.60093
-8.53504
-8.46393
-8.38749
-8.30563
-8.21825
-8.1253
-8.02672
-7.92248
-7.81253
-7.69683
-7.57534
-7.44803
-7.31491
-7.17599
-7.03128
-6.88081
-6.72462
-6.56275
-6.39524
-6.22217
-6.04361
-5.85964
-5.67038
-5.47593
-5.27642
-5.07197
-4.86271
-4.6488
-4.43038
-4.20761
-3.98069
-3.74979
-3.5151
-3.27683
-3.03518
-2.79036
-2.54259
-2.29206
-2.03902
-1.78366
-1.52621
-1.26692
-1.00603
-0.743781
-0.480392
-0.2161
0.0488626
0.314264
0.579878
0.84548
1.11085
1.37577
1.64003
1.90344
2.16579
2.42692
2.68673
2.94496
3.20127
3.4555
3.70754
3.95726
4.20453
4.44923
4.69124
4.93046
5.16678
5.40017
5.6305
5.85758
6.08127
6.30153
6.5183
6.73153
6.94116
7.14712
7.34936
7.54777
7.74216
7.93242
8.11831
8.29993
8.47596
8.64911
8.80926
8.98477
9.08464
-7.58944
-7.59479
-7.60461
-7.61609
-7.62767
-7.63918
-7.65101
-7.66296
-7.67446
-7.68482
-7.69323
-7.6993
-7.70288
-7.70394
-7.70254
-7.69884
-7.69301
-7.68527
-7.6759
-7.66548
-7.65479
-7.64468
-7.63592
-7.62917
-7.62506
-7.62417
-7.62688
-7.63322
-7.64293
-7.65561
-7.67089
-7.68839
-7.70782
-7.7289
-7.75144
-7.77525
-7.80021
-7.8262
-7.85311
-7.88085
-7.90935
-7.93858
-7.96849
-7.99907
-8.03032
-8.06221
-8.09475
-8.12792
-8.16172
-8.19612
-8.2311
-8.26662
-8.30265
-8.33915
-8.37607
-8.41335
-8.45091
-8.48868
-8.52659
-8.56455
-8.60242
-8.64004
-8.67724
-8.71383
-8.74959
-8.78429
-8.81771
-8.84958
-8.87964
-8.9076
-8.93319
-8.95621
-8.97651
-8.99393
-9.00828
-9.01932
-9.02686
-9.03092
-9.03155
-9.02866
-9.02209
-9.01162
-8.99711
-8.97846
-8.95558
-8.92837
-8.89671
-8.86045
-8.81938
-8.77327
-8.72216
-8.66619
-8.60529
-8.5393
-8.46811
-8.39159
-8.30963
-8.22214
-8.12907
-8.03039
-7.92605
-7.81601
-7.70023
-7.57866
-7.45126
-7.31804
-7.17901
-7.03422
-6.88368
-6.72742
-6.56549
-6.39793
-6.2248
-6.04618
-5.86217
-5.67287
-5.4784
-5.27887
-5.07441
-4.86515
-4.65124
-4.43282
-4.21007
-3.98317
-3.7523
-3.51765
-3.27943
-3.03784
-2.79309
-2.54539
-2.29494
-2.04198
-1.7867
-1.52934
-1.27016
-1.00939
-0.747249
-0.48398
-0.219814
0.0450178
0.310284
0.575759
0.84122
1.10645
1.37122
1.63534
1.89859
2.16079
2.42179
2.68158
2.93984
3.19606
3.45012
3.70199
3.95155
4.19867
4.44322
4.68511
4.92421
5.16043
5.39377
5.62411
5.85113
6.07471
6.29487
6.51154
6.72469
6.93424
7.14013
7.34233
7.54071
7.73499
7.92509
8.11075
8.29207
8.46765
8.64032
8.79954
8.97467
9.07214
-7.55358
-7.55879
-7.56954
-7.58197
-7.59399
-7.60591
-7.61828
-7.63086
-7.64289
-7.65354
-7.66232
-7.66895
-7.67325
-7.67508
-7.67448
-7.67157
-7.66651
-7.6596
-7.65129
-7.64219
-7.63302
-7.62453
-7.61746
-7.6125
-7.61029
-7.61126
-7.61558
-7.62318
-7.6338
-7.64712
-7.66282
-7.68062
-7.70025
-7.72151
-7.74421
-7.76821
-7.79338
-7.81962
-7.84681
-7.87489
-7.90379
-7.93348
-7.96391
-7.99505
-8.02689
-8.05942
-8.09262
-8.12647
-8.16096
-8.19607
-8.23176
-8.26801
-8.30479
-8.34202
-8.37965
-8.41759
-8.45579
-8.49418
-8.5327
-8.57124
-8.60965
-8.64776
-8.68538
-8.72231
-8.75832
-8.79318
-8.82665
-8.85846
-8.88833
-8.91595
-8.94102
-8.96336
-8.98296
-8.99975
-9.01349
-9.02383
-9.03045
-9.03361
-9.03369
-9.03053
-9.02379
-9.01318
-8.99851
-8.97967
-8.95665
-8.92935
-8.89764
-8.86134
-8.82012
-8.77355
-8.72186
-8.66555
-8.60447
-8.53838
-8.46712
-8.39052
-8.30844
-8.22078
-8.12753
-8.0287
-7.92423
-7.81409
-7.69822
-7.57653
-7.44901
-7.31565
-7.17652
-7.03162
-6.881
-6.72469
-6.56272
-6.39511
-6.22192
-6.04325
-5.85921
-5.6699
-5.47542
-5.27591
-5.07149
-4.86228
-4.64841
-4.43005
-4.20737
-3.98055
-3.74977
-3.51524
-3.27714
-3.03569
-2.7911
-2.54357
-2.2933
-2.04051
-1.78541
-1.52826
-1.26931
-1.00877
-0.746871
-0.483855
-0.21995
0.0446104
0.309597
0.574784
0.839954
1.10488
1.36936
1.63316
1.8961
2.15797
2.41864
2.67827
2.93647
3.19253
3.44636
3.69801
3.94736
4.19431
4.4387
4.68044
4.9194
5.15552
5.38886
5.61931
5.84634
6.06981
6.28986
6.50644
6.7195
6.929
7.13484
7.33705
7.53543
7.72963
7.91957
8.10499
8.28602
8.46115
8.63337
8.7917
8.96637
9.06214
-7.5103
-7.51611
-7.52847
-7.54211
-7.55445
-7.56667
-7.57954
-7.59262
-7.60509
-7.61628
-7.62571
-7.63298
-7.6378
-7.64007
-7.63986
-7.63733
-7.63275
-7.6265
-7.61909
-7.61106
-7.60315
-7.59616
-7.59084
-7.58782
-7.58758
-7.59039
-7.59628
-7.60513
-7.61673
-7.63081
-7.64713
-7.66545
-7.68556
-7.70727
-7.73044
-7.75494
-7.78064
-7.80742
-7.83522
-7.86395
-7.89356
-7.92399
-7.95519
-7.98714
-8.01984
-8.05325
-8.08736
-8.12212
-8.15751
-8.1935
-8.23007
-8.26718
-8.30481
-8.34288
-8.38132
-8.42007
-8.45903
-8.49811
-8.53721
-8.57618
-8.61487
-8.65308
-8.69066
-8.72741
-8.76313
-8.79762
-8.83061
-8.86185
-8.89103
-8.9178
-8.9417
-8.96266
-8.98106
-8.99698
-9.01
-9.01944
-9.02456
-9.02622
-9.02557
-9.02219
-9.01544
-9.00488
-8.99015
-8.97121
-8.94812
-8.92085
-8.88926
-8.85315
-8.81225
-8.76628
-8.71524
-8.65918
-8.59813
-8.53198
-8.46059
-8.38383
-8.30153
-8.21361
-8.12011
-8.02102
-7.91631
-7.80594
-7.68984
-7.56793
-7.44017
-7.30658
-7.16723
-7.02214
-6.87135
-6.71488
-6.55276
-6.38501
-6.2117
-6.03292
-5.84878
-5.65939
-5.46487
-5.26532
-5.06089
-4.85168
-4.63783
-4.4195
-4.19687
-3.97013
-3.73945
-3.50502
-3.26706
-3.02576
-2.78134
-2.534
-2.28393
-2.03134
-1.77647
-1.51959
-1.26092
-1.00067
-0.739088
-0.476399
-0.212839
0.0513614
0.315971
0.580766
0.845528
1.11003
1.37406
1.63739
1.89982
2.16113
2.42115
2.67972
2.93671
3.19197
3.44531
3.69655
3.94555
4.19215
4.43622
4.67764
4.9163
5.15212
5.3853
5.61575
5.84274
6.06608
6.286
6.50249
6.7155
6.92494
7.13077
7.33307
7.53158
7.72576
7.91555
8.10076
8.28152
8.45623
8.62805
8.78553
8.95965
9.05443
-7.4619
-7.46867
-7.48308
-7.49777
-7.51002
-7.52235
-7.53579
-7.54945
-7.56252
-7.57433
-7.58426
-7.59184
-7.59683
-7.59926
-7.59928
-7.59712
-7.59307
-7.58747
-7.58078
-7.57372
-7.56712
-7.56176
-7.55826
-7.55711
-7.55866
-7.56306
-7.57029
-7.58025
-7.59277
-7.60764
-7.62465
-7.64361
-7.66436
-7.68672
-7.71056
-7.73574
-7.76217
-7.78975
-7.81841
-7.84805
-7.87861
-7.91002
-7.94222
-7.9752
-8.00893
-8.04339
-8.07851
-8.11428
-8.15064
-8.18756
-8.22501
-8.26295
-8.30134
-8.34013
-8.37924
-8.4186
-8.45808
-8.49758
-8.53689
-8.57581
-8.6142
-8.65193
-8.68887
-8.72485
-8.75973
-8.7933
-8.82535
-8.85561
-8.88373
-8.90914
-8.93084
-8.94881
-8.96475
-8.97933
-8.99161
-9.00069
-9.00642
-9.00912
-9.00887
-9.00547
-8.99863
-8.98795
-8.97302
-8.95381