/*--------------------------------*- C++ -*----------------------------------*\
| =========                 |                                                 |
| \\      /  F ield         | OpenFOAM: The Open Source CFD Toolbox           |
|  \\    /   O peration     | Version:  2112                                  |
|   \\  /    A nd           | Website:  www.openfoam.com                      |
|    \\/     M anipulation  |                                                 |
\*---------------------------------------------------------------------------*/
FoamFile
{
    version     2.0;
    format      ascii;
    arch        "LSB;label=32;scalar=64";
    class       volScalarField;
    location    "0.24";
    object      kU;
}
// * * * * * * * * * * * * * * * * * * * * * * * * * * * * * * * * * * * * * //

dimensions      [0 2 -2 0 0 0 0];

internalField   nonuniform List<scalar> 
12225
(
0.660407
1.9081
2.98652
3.35755
3.31268
3.15926
2.89936
2.64873
2.42582
2.23072
2.06724
1.92384
1.81006
1.70356
1.62744
1.54861
1.49319
1.45243
0.379383
0.418441
0.50945
0.61535
0.673969
0.702613
0.700563
0.692543
0.678549
0.662269
0.650617
0.640177
0.63435
0.629804
0.629062
0.629771
0.631206
0.637532
0.375311
0.377009
0.379858
0.383105
0.387451
0.387778
0.386773
0.383831
0.380507
0.375009
0.370674
0.365759
0.36203
0.35892
0.356206
0.354728
0.353335
0.353914
0.375375
0.375811
0.376656
0.37671
0.376608
0.37607
0.375041
0.373367
0.371575
0.368789
0.36687
0.363516
0.361267
0.358187
0.355918
0.352981
0.351069
0.348693
0.375339
0.375733
0.376331
0.376709
0.376907
0.376827
0.376556
0.376033
0.375448
0.374459
0.373808
0.372398
0.371622
0.370184
0.369329
0.367754
0.366944
0.365531
0.375253
0.375637
0.376148
0.376625
0.377003
0.377255
0.377307
0.377247
0.377087
0.376725
0.376504
0.375982
0.375659
0.375076
0.374719
0.374058
0.373695
0.373044
0.375193
0.375512
0.375919
0.376381
0.376841
0.37724
0.377521
0.377694
0.377708
0.377662
0.377588
0.377371
0.377231
0.376964
0.376783
0.376472
0.376275
0.375939
0.375146
0.375404
0.375728
0.376124
0.376539
0.376968
0.377353
0.377685
0.377901
0.378039
0.378067
0.378041
0.377989
0.377877
0.377776
0.37762
0.377505
0.377314
0.375108
0.375307
0.375571
0.375899
0.376255
0.376636
0.377011
0.377378
0.377706
0.377976
0.378175
0.378295
0.378353
0.378346
0.378313
0.378256
0.378183
0.378071
0.375076
0.375219
0.375428
0.375698
0.376002
0.376327
0.376662
0.376993
0.37732
0.377625
0.377907
0.37814
0.37833
0.378452
0.378535
0.378551
0.378538
0.378505
0.375045
0.375142
0.375299
0.375517
0.375773
0.376051
0.376339
0.376629
0.376916
0.377196
0.377467
0.377723
0.37796
0.378172
0.378347
0.378485
0.378571
0.378623
0.375019
0.375079
0.375192
0.375369
0.375582
0.375824
0.376072
0.376328
0.376575
0.376825
0.377058
0.377294
0.37751
0.377729
0.377919
0.378108
0.378255
0.378394
0.374999
0.375023
0.375091
0.375227
0.375405
0.375614
0.375828
0.376055
0.37627
0.376491
0.376691
0.376899
0.377081
0.377275
0.37744
0.377621
0.377764
0.377928
0.374951
0.374956
0.374993
0.375081
0.375221
0.375396
0.375576
0.375772
0.375956
0.376149
0.376321
0.3765
0.376654
0.376817
0.376951
0.377102
0.377217
0.377358
0.374931
0.374856
0.374875
0.374927
0.375032
0.375171
0.37532
0.375484
0.375641
0.375805
0.375954
0.376106
0.376238
0.376375
0.376487
0.376608
0.376701
0.37681
0.374923
0.374767
0.374765
0.374793
0.374856
0.374963
0.375082
0.375215
0.375347
0.375484
0.375611
0.375739
0.375852
0.375967
0.376063
0.376162
0.376239
0.376325
0.374902
0.37473
0.374663
0.374679
0.37472
0.374799
0.374893
0.375001
0.375111
0.375225
0.375332
0.37544
0.375537
0.375633
0.375715
0.375797
0.375863
0.375933
0.374889
0.374713
0.374608
0.374617
0.374646
0.374704
0.374784
0.374874
0.374969
0.375067
0.375162
0.375254
0.375341
0.375422
0.375496
0.375565
0.375625
0.375681
0.374892
0.374721
0.374617
0.374625
0.374654
0.37471
0.374788
0.374876
0.374969
0.375064
0.375157
0.375246
0.375331
0.375409
0.375481
0.375545
0.375604
0.375655
0.374913
0.374758
0.374705
0.374722
0.374764
0.374842
0.374937
0.375041
0.37515
0.375258
0.375364
0.375463
0.375558
0.375644
0.375725
0.375797
0.375866
0.375924
0.374937
0.374829
0.374837
0.374872
0.374945
0.375052
0.375174
0.375302
0.375434
0.375562
0.375688
0.375805
0.375918
0.376021
0.376121
0.376209
0.376294
0.376366
0.374957
0.374958
0.374986
0.375053
0.375172
0.375315
0.375471
0.375632
0.375793
0.375951
0.376106
0.37625
0.376388
0.376513
0.376629
0.376728
0.376816
0.376881
0.375013
0.375053
0.375131
0.375259
0.375423
0.375612
0.37581
0.376013
0.376211
0.376404
0.376583
0.376744
0.376883
0.376997
0.377085
0.377145
0.377182
0.377199
0.375052
0.375153
0.375288
0.375479
0.375699
0.375946
0.376186
0.376426
0.376636
0.376821
0.37696
0.377068
0.377131
0.37717
0.377167
0.377151
0.377111
0.377054
0.375097
0.375272
0.375481
0.375743
0.37601
0.376281
0.376504
0.3767
0.376819
0.376912
0.376929
0.376912
0.376861
0.376773
0.37664
0.376507
0.376342
0.376183
0.375145
0.37542
0.375688
0.375952
0.37621
0.376402
0.376552
0.376573
0.376523
0.376384
0.376158
0.375917
0.375561
0.375251
0.374836
0.374468
0.374012
0.373624
0.375178
0.375571
0.37582
0.376132
0.376314
0.376304
0.37616
0.375962
0.375315
0.374856
0.373905
0.373175
0.372043
0.3711
0.369889
0.368805
0.367586
0.366418
0.375163
0.37611
0.376801
0.378287
0.379886
0.381635
0.382914
0.38323
0.38283
0.382211
0.380245
0.37862
0.376232
0.373929
0.371543
0.369103
0.36708
0.364792
0.376974
0.391332
0.427238
0.488149
0.555448
0.606439
0.641098
0.660805
0.669668
0.668914
0.665764
0.65986
0.653091
0.645544
0.639845
0.633618
0.630187
0.625778
0.562097
1.30095
2.22587
2.87281
3.22114
3.27775
3.23584
3.13085
2.97538
2.81619
2.66336
2.52188
2.39258
2.27646
2.17147
2.07837
1.99394
1.9194
3.529e-05
9.67518e-05
0.00019105
0.000312929
0.000548271
0.00114123
0.00223331
0.00410762
0.00630669
0.00877442
0.01163
0.0144197
0.0175192
0.0205927
0.0235543
0.0263348
0.0288676
0.0311711
0.033279
0.0351429
0.036794
0.0381978
0.0393529
0.0402779
0.0409101
0.0413628
0.0413536
0.0411871
0.0407631
0.0399349
0.0387829
0.0373079
0.035522
0.0334428
0.0310923
0.0285117
0.0257416
0.0228292
0.019846
0.0168366
0.0138604
0.0110252
0.00832616
0.00577218
0.00363734
0.00220834
0.0014815
0.001297
0.00133202
0.00147814
0.00172921
0.00216639
0.00283681
0.00358975
0.00477699
0.00653446
0.00856881
0.0116299
0.015665
0.0201975
0.023874
0.0265129
0.0286773
0.0309996
0.0323819
0.0318397
0.0296736
0.0248498
0.0191127
0.0135981
0.00932891
0.00776792
0.00981038
0.0174521
0.0282143
0.0356463
0.0399331
0.0413196
0.0412308
0.0399167
0.0389577
0.0404224
0.0442106
0.0495543
0.0554704
0.0617555
0.0680025
0.0752506
0.0815747
0.0881742
0.0954962
0.101056
0.106634
0.104865
0.0962938
0.0738362
0.0353712
0.0173218
0.0158573
0.0150726
0.0139818
0.0135349
0.012422
0.0117417
0.0126223
0.0181652
0.0502796
0.141411
0.208495
0.238639
0.270174
0.290248
0.302837
0.315024
0.321009
0.327727
0.330555
0.331766
0.331998
0.331183
0.330135
0.329948
0.330888
0.334994
0.341849
0.352867
0.371931
0.401724
0.443289
0.496314
0.557449
0.620859
0.680552
0.732432
0.775084
0.808674
0.833571
0.850397
0.858619
0.862009
0.862483
0.857913
0.848669
0.840064
0.829056
0.816123
0.803222
0.789199
0.774318
0.759265
0.743488
0.727023
0.70987
0.691888
0.672969
0.653088
0.63215
0.610221
0.587333
0.563429
0.53875
0.513249
0.487082
0.460342
0.433258
0.405939
0.378435
0.35134
0.325303
0.2997
0.274234
0.247742
0.22229
0.201813
0.194996
0.201687
0.211797
0.21582
0.227712
0.209568
0.000277208
6.93754e-05
0.000235489
0.000726179
0.00175148
0.00382999
0.00653813
0.0109382
0.0157159
0.0206983
0.0260555
0.0312214
0.0351344
0.0380374
0.0402106
0.0418731
0.0430976
0.0439994
0.044768
0.0453865
0.0458658
0.0462268
0.0465598
0.0466761
0.0466509
0.0464981
0.0461139
0.0453147
0.0441716
0.0426977
0.040912
0.0388179
0.0364744
0.0339521
0.031294
0.0285757
0.0258466
0.0231223
0.0204571
0.0178794
0.0153518
0.0129824
0.0107611
0.00862792
0.00671697
0.00527596
0.00434251
0.00374112
0.00330123
0.00323363
0.00337344
0.00381428
0.00467405
0.00562187
0.00666228
0.00893084
0.012174
0.0145039
0.0186249
0.0229404
0.0234244
0.0236404
0.0243023
0.0284149
0.034862
0.0350287
0.0328757
0.0280268
0.0228659
0.0201896
0.0139831
0.018249
0.0390826
0.068915
0.0820187
0.0896795
0.092262
0.0933079
0.0945392
0.095787
0.097547
0.0997593
0.102403
0.105193
0.107536
0.109749
0.112834
0.116731
0.120235
0.123206
0.121778
0.115634
0.105072
0.09249
0.0792492
0.0647761
0.0404434
0.0173738
0.00832793
0.00753871
0.0152476
0.0314666
0.0369991
0.0519912
0.0674244
0.0734505
0.0986841
0.141762
0.157936
0.164688
0.166555
0.165844
0.158345
0.148836
0.138606
0.129161
0.120301
0.113451
0.11046
0.109164
0.108791
0.109334
0.113655
0.122776
0.135012
0.15044
0.169824
0.194011
0.222235
0.253741
0.288206
0.326248
0.367788
0.409137
0.451119
0.494918
0.535223
0.571225
0.6062
0.637075
0.665835
0.694831
0.717364
0.738158
0.759402
0.777642
0.795993
0.816471
0.836958
0.858666
0.882678
0.908059
0.935345
0.96438
0.995296
1.02818
1.06147
1.09679
1.13329
1.16937
1.20673
1.24291
1.27795
1.3105
1.34016
1.36508
1.38193
1.39091
1.39439
1.38466
1.37098
1.33884
1.30753
1.25882
1.20987
1.15421
1.09848
1.03384
0.996468
0.89839
0.000578625
0.000104186
0.000405477
0.00128481
0.00341121
0.00707277
0.013021
0.0191359
0.0263819
0.0329222
0.0373511
0.0403755
0.0425278
0.0441692
0.0454216
0.0463926
0.0472376
0.047959
0.0486476
0.0492858
0.0499176
0.0504767
0.0510884
0.0516768
0.0522243
0.0527289
0.0531813
0.0535811
0.0538568
0.0538374
0.0536177
0.0530192
0.0516291
0.049532
0.0468264
0.0436402
0.0400866
0.0361719
0.0321879
0.0283379
0.0244616
0.0209002
0.017799
0.0150118
0.0125678
0.0105827
0.00907888
0.00796431
0.00691714
0.00686162
0.00733158
0.00865435
0.0103577
0.0137794
0.0193986
0.0311527
0.0457784
0.0562375
0.0657802
0.0753873
0.0790448
0.0759746
0.066794
0.0620828
0.0624671
0.0686972
0.0737965
0.0509321
0.0311302
0.0296433
0.0392477
0.0754266
0.0887793
0.0931474
0.0941169
0.0931608
0.0928812
0.0929945
0.0935842
0.0942521
0.0948083
0.0957268
0.0968819
0.0988219
0.103748
0.109025
0.11502
0.122006
0.130096
0.13871
0.147405
0.149683
0.135858
0.107782
0.0804582
0.0607302
0.0395829
0.017476
0.0103917
0.0181753
0.0612484
0.0898616
0.0810326
0.0740416
0.0850316
0.112436
0.155232
0.20263
0.242048
0.288787
0.323755
0.346642
0.355187
0.356978
0.349875
0.328742
0.308814
0.290096
0.268257
0.249678
0.237613
0.231658
0.229538
0.22927
0.233683
0.250075
0.278033
0.314967
0.363255
0.428354
0.514828
0.621364
0.733327
0.847412
0.961758
1.0663
1.16254
1.25012
1.32625
1.38977
1.44248
1.48688
1.52438
1.55331
1.57625
1.59498
1.61013
1.62324
1.63666
1.65148
1.66595
1.68215
1.70158
1.72081
1.74152
1.76547
1.78765
1.81132
1.83661
1.85981
1.88405
1.90648
1.92697
1.94418
1.95693
1.96279
1.96425
1.9544
1.93562
1.9042
1.8709
1.81397
1.7646
1.68841
1.62005
1.53823
1.46085
1.37047
1.32133
1.21955
0.000727489
0.000241072
0.000907264
0.00296113
0.00799724
0.0154017
0.0242724
0.0323592
0.0370295
0.0397159
0.0416607
0.0430083
0.044143
0.0451244
0.0459507
0.0465569
0.0469242
0.047036
0.0470209
0.0469472
0.0469191
0.0469387
0.0470583
0.0474254
0.0482756
0.0493095
0.0504207
0.0515366
0.0525627
0.0535075
0.0542092
0.0547321
0.0549238
0.0548758
0.0545835
0.0537009
0.0521171
0.0499401
0.0473587
0.0443464
0.0408903
0.0373583
0.0336738
0.0297184
0.0261498
0.0234759
0.0212881
0.0181351
0.016684
0.0171767
0.0188041
0.0211334
0.0261357
0.0409537
0.0654726
0.0878147
0.0956948
0.0980022
0.0995108
0.103331
0.112233
0.118842
0.123761
0.129649
0.128017
0.110231
0.0734896
0.0501716
0.0446479
0.0622614
0.0856596
0.091885
0.0927268
0.091316
0.0908889
0.0908091
0.0914633
0.0930217
0.0939964
0.0944634
0.0945212
0.0941934
0.092762
0.0892899
0.0865357
0.0854407
0.0855752
0.0904054
0.096943
0.105759
0.118464
0.124493
0.118602
0.0951382
0.0704239
0.0463509
0.0309693
0.0226675
0.0409291
0.117115
0.120328
0.0926624
0.0903676
0.109027
0.159126
0.235556
0.334682
0.437443
0.536085
0.621823
0.668785
0.703729
0.717654
0.722005
0.720819
0.705544
0.681246
0.656601
0.628968
0.598925
0.572787
0.553362
0.545516
0.542957
0.543773
0.559259
0.601811
0.665109
0.739314
0.828952
0.937622
1.05081
1.16439
1.2808
1.39633
1.50958
1.61607
1.7169
1.81295
1.89821
1.97313
2.03632
2.08827
2.12812
2.15618
2.17725
2.19192
2.20136
2.21047
2.21895
2.22678
2.23655
2.24862
2.26108
2.27543
2.29227
2.30779
2.32458
2.34268
2.3594
2.37696
2.39319
2.40786
2.41881
2.42488
2.42514
2.41457
2.39036
2.35426
2.3003
2.24153
2.15705
2.08189
1.98073
1.88714
1.78262
1.682
1.57497
1.49855
1.39752
0.000516813
0.000726048
0.00269843
0.0080177
0.0186775
0.0304092
0.036728
0.0397592
0.0413725
0.0422708
0.0429685
0.0435642
0.0438779
0.0440299
0.0440794
0.0440552
0.0439277
0.0436993
0.0433837
0.0429964
0.0425096
0.0419475
0.0413041
0.0408433
0.040747
0.040849
0.0412633
0.0423352
0.0442385
0.0464565
0.0490311
0.0512364
0.0528099
0.0539531
0.0544324
0.0544312
0.0542428
0.0536965
0.0527004
0.0513437
0.0496272
0.0473336
0.0447329
0.0425379
0.0403124
0.0373524
0.0341113
0.0331713
0.033283
0.0314557
0.0322014
0.038841
0.0624487
0.102711
0.109033
0.1075
0.106003
0.10748
0.113716
0.123298
0.133941
0.138617
0.140103
0.137093
0.122986
0.0909214
0.0635975
0.0574813
0.0694401
0.0850107
0.0896347
0.0906533
0.0906971
0.0913521
0.0947774
0.100328
0.105489
0.109875
0.111985
0.112605
0.108775
0.103576
0.0974823
0.0890891
0.0823003
0.0776643
0.0727532
0.0699958
0.0673614
0.065796
0.0644123
0.0645399
0.0655027
0.0567437
0.0463425
0.0402183
0.0388998
0.0687002
0.123271
0.126396
0.110842
0.110693
0.152922
0.242352
0.386763
0.517982
0.625828
0.732809
0.818453
0.89009
0.946159
0.989416
1.01563
1.02667
1.02968
1.0271
1.01146
0.986546
0.957244
0.924312
0.890325
0.858295
0.840877
0.836085
0.835519
0.842995
0.873761
0.933105
1.01187
1.10081
1.20064
1.3132
1.43404
1.55879
1.6865
1.81772
1.94965
2.07751
2.20136
2.31822
2.42139
2.50978
2.58419
2.64073
2.67977
2.70632
2.72258
2.73125
2.73663
2.73947
2.74105
2.74243
2.74571
2.74971
2.75441
2.76163
2.76744
2.77295
2.77958
2.78531
2.79195
2.79879
2.80598
2.81188
2.81554
2.81337
2.80058
2.77185
2.72738
2.66187
2.57894
2.47231
2.3591
2.24086
2.11661
1.99617
1.86885
1.74952
1.64228
1.53795
0.000398284
0.00249528
0.00785092
0.0211655
0.0341299
0.0395067
0.0418477
0.0428445
0.0433299
0.0436336
0.0437622
0.0438531
0.0439626
0.0440634
0.0441243
0.0441426
0.0441147
0.0440311
0.0438937
0.0436372
0.0432711
0.0428108
0.0422516
0.0415828
0.0407947
0.0400273
0.039394
0.0391478
0.0392041
0.0395011
0.0402552
0.0419912
0.04462
0.0475651
0.0500411
0.0520369
0.053169
0.0534817
0.0533747
0.0531278
0.0526466
0.0517682
0.0507615
0.0489161
0.0464494
0.0448393
0.0450182
0.0456217
0.0414567
0.0417582
0.0498489
0.0911114
0.117081
0.118581
0.105886
0.0890607
0.0865775
0.0900719
0.103234
0.118766
0.125214
0.127084
0.122637
0.103781
0.0775707
0.0641264
0.0612438
0.0664077
0.0816516
0.0887304
0.0925692
0.097427
0.107831
0.125305
0.149151
0.173507
0.191654
0.201868
0.207414
0.208989
0.201048
0.18713
0.165948
0.142603
0.114806
0.0944739
0.0773991
0.0689404
0.0646064
0.0617568
0.059248
0.0568132
0.0553842
0.0534591
0.0526067
0.0614198
0.0904661
0.11568
0.122865
0.125049
0.14054
0.208426
0.347876
0.529328
0.636497
0.752796
0.85595
0.940448
1.03024
1.09957
1.16634
1.22123
1.26291
1.29583
1.30947
1.31368
1.31243
1.30007
1.27642
1.24433
1.20692
1.16621
1.12594
1.09894
1.09195
1.09152
1.10055
1.13286
1.19437
1.27878
1.37659
1.48307
1.59781
1.72283
1.85827
1.99901
2.13898
2.2783
2.41922
2.55711
2.68595
2.80437
2.90994
2.99786
3.06271
3.10428
3.12761
3.13964
3.14513
3.14698
3.14717
3.14297
3.1386
3.13616
3.13196
3.1289
3.12491
3.11608
3.10597
3.09261
3.07789
3.0638
3.05056
3.04052
3.03548
3.02615
3.00215
2.96462
2.91209
2.83728
2.7396
2.62014
2.4892
2.36035
2.22164
2.09429
1.95581
1.83537
1.71228
1.60902
0.00731272
0.00917239
0.0192225
0.0351444
0.0409813
0.0433108
0.0442278
0.0448283
0.0455617
0.0461974
0.0464044
0.0463308
0.0462254
0.0463799
0.0466858
0.0470254
0.0473761
0.047702
0.0479486
0.0479414
0.0478142
0.04749
0.0468406
0.0460058
0.0448689
0.0435521
0.0422404
0.0410897
0.0401303
0.0396662
0.0396679
0.0399158
0.0406484
0.0422017
0.0441601
0.046305
0.0486772
0.0506948
0.0521113
0.0530339
0.053399
0.0533227
0.052864
0.0519266
0.0523104
0.0541161
0.0546943
0.0505652
0.0510844
0.0582782
0.100253
0.120048
0.120097
0.10386
0.0778809
0.0686784
0.0657959
0.065711
0.0694226
0.0752438
0.0768158
0.0765995
0.0696429
0.0628746
0.0605417
0.0605273
0.0659755
0.0777768
0.0921958
0.100305
0.113767
0.139197
0.178565
0.230608
0.270979
0.305754
0.333531
0.355867
0.368636
0.37453
0.37653
0.365053
0.339666
0.302382
0.251241
0.194627
0.143436
0.104705
0.0836386
0.0732583
0.068428
0.0664552
0.0659141
0.0686584
0.0758333
0.089067
0.106085
0.124025
0.138653
0.177156
0.270946
0.451045
0.614907
0.716491
0.82978
0.924453
1.01888
1.10009
1.1865
1.26354
1.33611
1.40386
1.45954
1.50988
1.54775
1.57435
1.584
1.58542
1.57951
1.56087
1.53074
1.4914
1.44535
1.39715
1.35165
1.32821
1.32439
1.32974
1.35389
1.40313
1.47707
1.57157
1.68182
1.80404
1.93331
2.0659
2.20219
2.344
2.48908
2.63286
2.77412
2.91123
3.04113
3.15554
3.24806
3.31474
3.35809
3.38652
3.40239
3.40891
3.41106
3.41127
3.40736
3.40239
3.39661
3.38988
3.38281
3.37167
3.35759
3.3366
3.30964
3.27742
3.24065
3.20198
3.16471
3.13068
3.09452
3.04822
2.98811
2.90588
2.79712
2.66988
2.53142
2.39848
2.25281
2.12376
1.9802
1.86167
1.73269
1.63139
0.0238604
0.0186244
0.0322786
0.0409695
0.0438583
0.0452008
0.0466655
0.0480359
0.0490404
0.0496944
0.0501211
0.0504477
0.0508986
0.0515478
0.0524941
0.053632
0.0548861
0.0561727
0.0573223
0.0582024
0.0587063
0.0587727
0.0584819
0.0577373
0.0563201
0.0539058
0.050726
0.047971
0.0454262
0.0433445
0.0419694
0.0411925
0.0413274
0.0420592
0.0434983
0.0454381
0.0476294
0.0498064
0.0517947
0.0532223
0.0541974
0.0547108
0.055506
0.0579676
0.0600713
0.0600333
0.0582938
0.0581181
0.0611927
0.0926887
0.116385
0.118758
0.109677
0.082825
0.0691564
0.0623617
0.058122
0.056587
0.0562413
0.0565295
0.0574419
0.0584007
0.0587044
0.0601289
0.0629227
0.0692401
0.0829458
0.101519
0.12128
0.145513
0.192692
0.258657
0.31725
0.365851
0.412474
0.451346
0.484616
0.511318
0.530361
0.544211
0.553214
0.557791
0.557168
0.535936
0.498569
0.435383
0.349262
0.261202
0.182551
0.133845
0.108242
0.096849
0.0931776
0.0941115
0.104531
0.117978
0.141024
0.172476
0.234169
0.355823
0.534551
0.663111
0.773305
0.868599
0.963564
1.05254
1.13418
1.21676
1.29775
1.37949
1.45768
1.53324
1.6026
1.6664
1.72247
1.76941
1.80796
1.83516
1.84478
1.84532
1.83676
1.81475
1.77969
1.73382
1.68026
1.62531
1.57469
1.54697
1.54357
1.55404
1.58608
1.64184
1.72056
1.81933
1.93098
2.05112
2.18053
2.31756
2.46031
2.60867
2.76168
2.91381
3.05671
3.1858
3.2954
3.37939
3.43918
3.48294
3.51165
3.52573
3.53179
3.53351
3.53141
3.52543
3.51731
3.50622
3.49316
3.47875
3.46253
3.4397
3.41023
3.37269
3.328
3.27676
3.22177
3.16752
3.12044
3.06728
3.00206
2.91464
2.79955
2.66643
2.51661
2.37256
2.21463
2.08085
1.92765
1.81212
1.67549
1.58387
0.0320376
0.0240371
0.0381769
0.0432542
0.0452851
0.0473638
0.0487261
0.0496023
0.0502124
0.050643
0.0510684
0.0516761
0.0526251
0.0539736
0.0556648
0.0576475
0.0599561
0.0624091
0.0646627
0.0665725
0.0682952
0.0700294
0.0718193
0.0735515
0.0749669
0.0756533
0.0747879
0.0722021
0.0676034
0.0625237
0.0573461
0.0525723
0.0494106
0.0476719
0.0474023
0.0481202
0.0494591
0.0511465
0.0528932
0.0545043
0.0562325
0.0582765
0.0610379
0.0630075
0.0642542
0.0650539
0.0625172
0.0621586
0.0796904
0.108807
0.114574
0.112636
0.0949797
0.0774581
0.069007
0.0627954
0.059897
0.0586723
0.0583159
0.0585832
0.0603678
0.0628207
0.066369
0.0727526
0.0839594
0.102203
0.129453
0.165774
0.206523
0.261241
0.324111
0.376051
0.427073
0.474804
0.522771
0.567278
0.609563
0.646084
0.674233
0.688695
0.696768
0.703309
0.712545
0.71661
0.716542
0.69854
0.652724
0.576653
0.473791
0.36764
0.278894
0.225093
0.199869
0.191142
0.191831
0.219221
0.267259
0.351296
0.477522
0.605505
0.713546
0.810023
0.894188
0.982115
1.06299
1.14281
1.21637
1.29419
1.37338
1.45478
1.53537
1.61482
1.69215
1.76524
1.83458
1.89767
1.955
2.00429
2.04459
2.07643
2.09133
2.09294
2.08461
2.06193
2.02464
1.97499
1.91719
1.85801
1.80544
1.76935
1.76206
1.77195
1.80563
1.86466
1.94348
2.03856
2.14745
2.26989
2.40662
2.55386
2.70524
2.85628
3.00408
3.14507
3.27029
3.37128
3.44675
3.49988
3.53657
3.55822
3.5686
3.57225
3.57138
3.56597
3.55714
3.54394
3.52684
3.51037
3.49263
3.46969
3.43991
3.40114
3.35317
3.29572
3.23043
3.16666
3.10018
3.02687
2.93937
2.8253
2.68589
2.52766
2.3656
2.21554
2.05723
1.93163
1.78762
1.68673
1.55734
1.48167
0.03419
0.0271981
0.0407445
0.0441706
0.0462281
0.0482366
0.0494151
0.0500477
0.0504631
0.050714
0.0510241
0.0515758
0.0525265
0.0538501
0.0554115
0.0572158
0.059282
0.0612813
0.0625249
0.0632673
0.0640935
0.0651809
0.0664249
0.0678201
0.0691727
0.0703841
0.0718431
0.0737815
0.0747677
0.0738232
0.0716094
0.0679871
0.0641457
0.0610243
0.0588883
0.0579366
0.0578599
0.0580731
0.0586068
0.0598499
0.0621034
0.0645324
0.0672728
0.0687597
0.0684527
0.0647837
0.0630772
0.0691554
0.0967395
0.109247
0.11102
0.105673
0.0919672
0.0805413
0.0754959
0.0732116
0.0726048
0.0729778
0.0747529
0.0781648
0.0840358
0.0927015
0.106178
0.128083
0.157243
0.191935
0.230276
0.266349
0.306891
0.350909
0.393952
0.431853
0.471527
0.513766
0.5595
0.607617
0.657257
0.706536
0.753509
0.797866
0.825422
0.837484
0.84075
0.840261
0.846675
0.851266
0.852492
0.835038
0.792599
0.723806
0.636225
0.556363
0.494838
0.466238
0.456734
0.475784
0.542351
0.607431
0.697738
0.775551
0.849635
0.924662
0.994699
1.06872
1.13874
1.20636
1.2743
1.34594
1.42214
1.49944
1.5785
1.65784
1.73712
1.81415
1.88985
1.96231
2.03154
2.09656
2.15638
2.20998
2.25533
2.29136
2.31577
2.3218
2.31639
2.29633
2.26152
2.2147
2.16096
2.10703
2.06118
2.03045
2.02291
2.03305
2.06642
2.12498
2.20631
2.30574
2.42014
2.54651
2.68258
2.82422
2.96544
3.09415
3.20732
3.30569
3.38521
3.44712
3.49413
3.52785
3.54866
3.5602
3.56228
3.56008
3.55362
3.54249
3.52131
3.50184
3.47831
3.45012
3.41226
3.36389
3.30767
3.24124
3.16095
3.07364
2.98597
2.89231
2.77923
2.64331
2.48795
2.32355
2.16559
2.01779
1.86425
1.74398
1.60377
1.51167
1.38938
1.33015
0.0330754
0.0294482
0.041464
0.044387
0.0464272
0.0484725
0.0494833
0.0498089
0.0497339
0.0493603
0.0490638
0.0489233
0.0489964
0.0486543
0.0479746
0.0472567
0.0467341
0.0467435
0.0476297
0.0491767
0.0506507
0.0517101
0.0520158
0.0519472
0.0513475
0.050155
0.0484746
0.0465806
0.0464457
0.0489971
0.0528536
0.0565032
0.0588836
0.0590673
0.0586847
0.0590471
0.0604148
0.061599
0.0625626
0.0640721
0.0661676
0.0683937
0.0693827
0.0691491
0.0670074
0.0632133
0.06349
0.0788204
0.101932
0.108474
0.109358
0.10591
0.101537
0.102722
0.110743
0.116975
0.123302
0.129512
0.137914
0.149197
0.162743
0.180583
0.202214
0.225534
0.250723
0.276709
0.303749
0.330702
0.357771
0.384932
0.410987
0.438088
0.471249
0.509004
0.550806
0.597616
0.650145
0.70845
0.768598
0.826243
0.881618
0.934405
0.968536
0.981983
0.981778
0.974339
0.974087
0.970978
0.964523
0.939762
0.900822
0.849483
0.799319
0.763943
0.749052
0.746344
0.772868
0.81209
0.865467
0.916711
0.969392
1.0241
1.08111
1.14011
1.19821
1.25507
1.31628
1.38059
1.45044
1.52159
1.59546
1.67106
1.74807
1.82477
1.9014
1.97683
2.05067
2.12284
2.19282
2.26014
2.32376
2.38208
2.43333
2.4746
2.50525
2.52008
2.51986
2.50636
2.47983
2.44388
2.4041
2.36691
2.33888
2.32666
2.33129
2.35444
2.39823
2.4614
2.54085
2.63429
2.73851
2.84932
2.96199
3.07018
3.16581
3.24852
3.31742
3.37417
3.41825
3.45356
3.47561
3.48996
3.49305
3.49171
3.48625
3.47636
3.4523
3.42689
3.39156
3.35282
3.30008
3.23796
3.16966
3.09305
3.00812
2.91764
2.82349
2.71003
2.57252
2.41347
2.24471
2.0718
1.90838
1.75537
1.60644
1.491
1.36376
1.28677
1.18179
1.14173
0.0285303
0.0304374
0.0414066
0.0427709
0.0445795
0.0465118
0.0470082
0.0468407
0.0460836
0.0447452
0.0431398
0.0412428
0.0391357
0.0375902
0.0373834
0.0381953
0.0400894
0.0430614
0.0468287
0.050684
0.0539957
0.0556795
0.0559544
0.0553419
0.053429
0.0511079
0.0490315
0.0467054
0.0442393
0.0420435
0.0413223
0.0417577
0.0434318
0.0466417
0.050385
0.0547688
0.0589427
0.0613417
0.0628401
0.0647099
0.0669158
0.0682586
0.0684998
0.0668878
0.061774
0.0595498
0.0654135
0.0849032
0.102358
0.108911
0.112011
0.115552
0.123726
0.133418
0.144659
0.15915
0.17612
0.193308
0.211139
0.228683
0.246444
0.264353
0.281231
0.297698
0.313614
0.328572
0.343698
0.35902
0.374041
0.389747
0.407036
0.426377
0.449905
0.477405
0.5126
0.557066
0.61025
0.6708
0.737502
0.80932
0.882804
0.952531
1.01511
1.0722
1.1151
1.13468
1.13798
1.12086
1.11367
1.09948
1.0835
1.058
1.02922
0.99995
0.980634
0.972061
0.970833
0.987179
1.01565
1.04741
1.0832
1.1187
1.15923
1.2054
1.25231
1.29878
1.34996
1.4051
1.46624
1.53013
1.59717
1.66862
1.74289
1.81734
1.89212
1.96647
2.03998
2.1128
2.1847
2.25556
2.32485
2.39227
2.45703
2.51763
2.57218
2.61817
2.65251
2.6745
2.68215
2.67794
2.66411
2.64474
2.62486
2.60958
2.60327
2.60925
2.62844
2.66236
2.71029
2.77011
2.83937
2.91495
2.99376
3.07274
3.14402
3.20757
3.2613
3.30812
3.34387
3.37472
3.39466
3.40835
3.41128
3.40974
3.40191
3.38739
3.35546
3.32258
3.2785
3.22986
3.16645
3.09395
3.01787
2.93548
2.84454
2.73872
2.61557
2.46571
2.29582
2.11663
1.93181
1.75668
1.59682
1.44943
1.31748
1.21096
1.10552
1.04191
0.959667
0.936452
0.0235221
0.0308559
0.0392289
0.0385603
0.0393339
0.0413658
0.0423232
0.0426908
0.0423784
0.0411207
0.0386782
0.0360707
0.0353563
0.0354491
0.0366519
0.0397464
0.0453118
0.0529853
0.0609886
0.0645474
0.0654664
0.0654133
0.0633183
0.057965
0.0520676
0.0494002
0.0480125
0.0470442
0.0457874
0.0440205
0.0417976
0.0407229
0.0406606
0.0414085
0.0433643
0.0467494
0.0515737
0.0563665
0.0599401
0.0634947
0.0659093
0.0663957
0.0648878
0.0591083
0.0558481
0.057422
0.0689239
0.0880948
0.10189
0.108454
0.11554
0.127793
0.143003
0.158527
0.176278
0.196832
0.217083
0.236664
0.256025
0.274051
0.291416
0.307688
0.322317
0.337128
0.350407
0.360569
0.369089
0.377387
0.385272
0.394126
0.403225
0.412746
0.426342
0.446849
0.475978
0.5148
0.562699
0.618584
0.681291
0.750821
0.829108
0.914491
1.00109
1.08171
1.15031
1.20997
1.25963
1.28297
1.28791
1.25845
1.2412
1.21831
1.19917
1.18399
1.17136
1.16018
1.15513
1.15528
1.1643
1.17822
1.19745
1.22025
1.24641
1.276
1.30893
1.34406
1.38384
1.42806
1.47859
1.53467
1.59448
1.65786
1.72533
1.79411
1.86385
1.93416
2.00471
2.07557
2.14674
2.21826
2.29004
2.3616
2.43214
2.50039
2.56479
2.62376
2.67661
2.72176
2.75751
2.78269
2.79733
2.80325
2.80318
2.80095
2.79987
2.80354
2.814
2.83297
2.86066
2.89627
2.93893
2.98693
3.03628
3.08687
3.13344
3.18168
3.22074
3.25617
3.28198
3.30412
3.31764
3.32448
3.3234
3.31704
3.30149
3.27732
3.23913
3.19571
3.14824
3.08484
3.01184
2.92611
2.84325
2.74514
2.62795
2.48832
2.32495
2.14344
1.95492
1.76618
1.58149
1.41717
1.2652
1.12849
1.01614
0.922338
0.849289
0.80167
0.754661
0.750103
0.0181094
0.0309945
0.0375792
0.035369
0.0357706
0.037883
0.0407115
0.0415549
0.0413545
0.0397973
0.036772
0.0351257
0.0349751
0.0361552
0.0405724
0.0491376
0.0608645
0.072908
0.0793683
0.0816127
0.0820774
0.0801684
0.0720998
0.0599381
0.0523965
0.0489496
0.0474525
0.0469168
0.0467512
0.0465522
0.04549
0.0434003
0.0429496
0.0430948
0.0443256
0.0470384
0.0507417
0.0545112
0.0584773
0.0617952
0.0627284
0.0616716
0.0566372
0.0525708
0.0522826
0.0579444
0.0714284
0.0875851
0.0995971
0.105759
0.115252
0.129894
0.147301
0.166982
0.191116
0.22056
0.251485
0.282334
0.311883
0.338121
0.360254
0.377778
0.389736
0.396364
0.400763
0.403151
0.405044
0.406925
0.40854
0.40999
0.412677
0.419403
0.430325
0.447806
0.472841
0.505242
0.544413
0.58984
0.641794
0.701528
0.768198
0.842937
0.928023
1.02007
1.11472
1.20577
1.28403
1.34988
1.40754
1.43856
1.4468
1.41634
1.37556
1.3468
1.32266
1.30726
1.30039
1.29852
1.30107
1.30685
1.31627
1.32884
1.34447
1.36347
1.38567
1.41052
1.43812
1.46911
1.50576
1.5495
1.59985
1.65397
1.71029
1.77058
1.83409
1.89937
1.96593
2.03354
2.10195
2.171
2.24058
2.3105
2.38044
2.4501
2.51895
2.5857
2.64821
2.7048
2.75382
2.79475
2.82814
2.85394
2.87286
2.88659
2.89727
2.90748
2.91877
2.93225
2.95011
2.9719
2.99726
3.02723
3.05588
3.09109
3.12341
3.15888
3.18525
3.20869
3.22432
3.23596
3.24008
3.2386
3.23327
3.21689
3.1982
3.16035
3.12346
3.06633
3.00583
2.91478
2.82778
2.73684
2.63421
2.49846
2.33997
2.1607
1.96289
1.77008
1.57855
1.39327
1.21805
1.06553
0.926019
0.815674
0.738066
0.684077
0.652822
0.633473
0.62706
0.630936
0.0133102
0.0310253
0.0366642
0.0334329
0.033755
0.0365983
0.0404107
0.0413252
0.0409928
0.0389149
0.0362229
0.0358149
0.0371802
0.0425863
0.0535403
0.0700106
0.0901203
0.110661
0.12601
0.131708
0.133334
0.13213
0.122481
0.104118
0.0832146
0.0660167
0.0567511
0.0519259
0.0501358
0.0500809
0.0519176
0.0525409
0.0525374
0.052444
0.0524543
0.05307
0.0546758
0.0565103
0.0575912
0.0579231
0.0556577
0.0499144
0.047316
0.0467911
0.050493
0.0589632
0.0725465
0.08617
0.0958289
0.101808
0.113279
0.128908
0.145999
0.165678
0.189878
0.220016
0.252972
0.288112
0.324765
0.361032
0.395112
0.425911
0.452023
0.47095
0.483086
0.488539
0.488854
0.484624
0.478304
0.471943
0.467586
0.468433
0.474168
0.485838
0.503824
0.528155
0.558577
0.594941
0.637149
0.684708
0.73946
0.802053
0.870469
0.945573
1.02993
1.12387
1.22386
1.32543
1.41966
1.4989
1.56545
1.60501
1.61619
1.59711
1.5556
1.50988
1.47031
1.44716
1.43395
1.42796
1.42767
1.43299
1.44203
1.45401
1.46873
1.48597
1.50569
1.52831
1.55492
1.58565
1.62237
1.66627
1.71563
1.76863
1.82289
1.87958
1.93916
2.00144
2.06551
2.13087
2.19725
2.26437
2.33193
2.39953
2.46679
2.53304
2.59734
2.65757
2.71333
2.76364
2.8072
2.84397
2.87406
2.89895
2.91932
2.93581
2.9514
2.96512
2.98019
2.99664
3.01408
3.0363
3.05618
3.08151
3.102
3.12517
3.14148
3.15407
3.16238
3.16402
3.16328
3.15647
3.1454
3.11877
3.09541
3.04427
2.9908
2.90311
2.81982
2.72843
2.63383
2.51864
2.36515
2.18577
1.99131
1.77915
1.58093
1.38519
1.19742
1.01682
0.861139
0.736645
0.658436
0.611852
0.582256
0.565358
0.55605
0.555847
0.557479
0.565487
0.00891063
0.0311033
0.0360053
0.032462
0.0327418
0.035848
0.0405877
0.0419651
0.0418594
0.0403968
0.0394599
0.040073
0.0447867
0.0564422
0.0751418