/*--------------------------------*- C++ -*----------------------------------*\
| =========                 |                                                 |
| \\      /  F ield         | OpenFOAM: The Open Source CFD Toolbox           |
|  \\    /   O peration     | Version:  2112                                  |
|   \\  /    A nd           | Website:  www.openfoam.com                      |
|    \\/     M anipulation  |                                                 |
\*---------------------------------------------------------------------------*/
FoamFile
{
    version     2.0;
    format      ascii;
    arch        "LSB;label=32;scalar=64";
    class       volVectorField;
    location    "0.24";
    object      U;
}
// * * * * * * * * * * * * * * * * * * * * * * * * * * * * * * * * * * * * * //

dimensions      [0 1 -1 0 0 0 0];

internalField   nonuniform List<vector> 
12225
(
(9.88061 0.045935 0)
(9.47146 0.10493 0)
(8.94092 0.130824 0)
(8.39546 0.12521 0)
(7.89024 0.109335 0)
(7.43438 0.0921561 0)
(7.03411 0.0754778 0)
(6.68611 0.0610399 0)
(6.38647 0.0489703 0)
(6.12744 0.0390895 0)
(5.90728 0.030877 0)
(5.71588 0.0241553 0)
(5.55841 0.0185908 0)
(5.41431 0.0138538 0)
(5.31097 0.00986453 0)
(5.19231 0.0066907 0)
(5.14788 0.00195007 0)
(5.02052 0.0036615 0)
(10.0181 0.0531478 0)
(10.0637 0.0971273 0)
(10.078 0.117206 0)
(10.0481 0.12706 0)
(9.9837 0.130037 0)
(9.89165 0.128098 0)
(9.78448 0.123247 0)
(9.668 0.11667 0)
(9.54983 0.109461 0)
(9.43181 0.101868 0)
(9.3192 0.0945795 0)
(9.20964 0.0868818 0)
(9.11005 0.0803742 0)
(9.01179 0.0725866 0)
(8.9294 0.0672988 0)
(8.84075 0.0588999 0)
(8.78031 0.0545893 0)
(8.6964 0.0460806 0)
(10.0131 0.0478393 0)
(10.0512 0.0913699 0)
(10.0827 0.113499 0)
(10.1081 0.127212 0)
(10.1267 0.133013 0)
(10.1378 0.133727 0)
(10.142 0.130637 0)
(10.1393 0.125426 0)
(10.1319 0.11917 0)
(10.1198 0.112389 0)
(10.1055 0.10545 0)
(10.0879 0.098297 0)
(10.0705 0.0916179 0)
(10.0501 0.0844225 0)
(10.0326 0.0781499 0)
(10.0107 0.0708417 0)
(9.99664 0.0642087 0)
(9.97284 0.0575405 0)
(10.0079 0.0419585 0)
(10.0429 0.0847533 0)
(10.0744 0.107961 0)
(10.1005 0.12073 0)
(10.1228 0.125772 0)
(10.1406 0.12635 0)
(10.1547 0.124155 0)
(10.1659 0.120127 0)
(10.1741 0.114959 0)
(10.1804 0.10925 0)
(10.1849 0.103201 0)
(10.188 0.0970146 0)
(10.19 0.0909333 0)
(10.191 0.0845379 0)
(10.1917 0.0785524 0)
(10.1914 0.0717888 0)
(10.1917 0.0653735 0)
(10.1895 0.0576253 0)
(10.0054 0.0351665 0)
(10.0352 0.0768884 0)
(10.0667 0.101462 0)
(10.0942 0.114515 0)
(10.1175 0.120594 0)
(10.1363 0.121937 0)
(10.1516 0.120064 0)
(10.164 0.116024 0)
(10.1741 0.111379 0)
(10.1827 0.106169 0)
(10.1898 0.100561 0)
(10.1958 0.0947747 0)
(10.2009 0.0889135 0)
(10.2052 0.0828733 0)
(10.2089 0.076887 0)
(10.2121 0.0704673 0)
(10.2147 0.063963 0)
(10.2162 0.0569241 0)
(10.0041 0.0298444 0)
(10.0285 0.0679398 0)
(10.0579 0.0919199 0)
(10.0861 0.106752 0)
(10.1111 0.114472 0)
(10.1316 0.116884 0)
(10.1484 0.115764 0)
(10.1617 0.112555 0)
(10.1724 0.108258 0)
(10.1815 0.103124 0)
(10.1892 0.097683 0)
(10.1959 0.0921766 0)
(10.2016 0.0865608 0)
(10.2066 0.0807818 0)
(10.211 0.0749347 0)
(10.2148 0.0687906 0)
(10.2179 0.0625521 0)
(10.2202 0.0561812 0)
(10.0033 0.0255343 0)
(10.0232 0.0600861 0)
(10.0493 0.0827521 0)
(10.0762 0.0973915 0)
(10.1014 0.105754 0)
(10.1236 0.109568 0)
(10.1426 0.11003 0)
(10.158 0.10817 0)
(10.1702 0.104475 0)
(10.1802 0.0998492 0)
(10.1884 0.0948439 0)
(10.1953 0.0895055 0)
(10.2013 0.0839997 0)
(10.2066 0.0784286 0)
(10.2111 0.0727909 0)
(10.2151 0.0669258 0)
(10.2184 0.0609858 0)
(10.221 0.0550348 0)
(10.0026 0.021795 0)
(10.0189 0.0530322 0)
(10.0418 0.0742798 0)
(10.0664 0.0882872 0)
(10.0903 0.0967191 0)
(10.1125 0.101033 0)
(10.1325 0.102292 0)
(10.1499 0.101475 0)
(10.1644 0.0991165 0)
(10.1764 0.0956018 0)
(10.1862 0.0913136 0)
(10.1941 0.0863801 0)
(10.2006 0.0812634 0)
(10.2061 0.0759554 0)
(10.2109 0.0704819 0)
(10.2149 0.0648308 0)
(10.2183 0.0591847 0)
(10.2211 0.0535881 0)
(10.0022 0.0185416 0)
(10.0154 0.046486 0)
(10.0354 0.0661415 0)
(10.0576 0.0795114 0)
(10.0796 0.0878613 0)
(10.1007 0.0923522 0)
(10.1201 0.0939849 0)
(10.1379 0.0937263 0)
(10.1539 0.0921244 0)
(10.1678 0.089474 0)
(10.1797 0.0861263 0)
(10.1897 0.0821739 0)
(10.1979 0.0778035 0)
(10.2045 0.0729611 0)
(10.2099 0.0678714 0)
(10.2142 0.0626085 0)
(10.2178 0.0572438 0)
(10.2207 0.0518952 0)
(10.0018 0.0157172 0)
(10.0127 0.0404708 0)
(10.03 0.05838 0)
(10.0498 0.0709406 0)
(10.07 0.0790674 0)
(10.0895 0.0836527 0)
(10.108 0.0855539 0)
(10.1251 0.0856088 0)
(10.1409 0.0843695 0)
(10.1554 0.0822138 0)
(10.1684 0.0794739 0)
(10.1801 0.0762425 0)
(10.1902 0.0726558 0)
(10.1988 0.0687059 0)
(10.2059 0.0644239 0)
(10.2116 0.059788 0)
(10.216 0.0548647 0)
(10.2194 0.0499878 0)
(10.0015 0.0132394 0)
(10.0105 0.0349985 0)
(10.0253 0.0510801 0)
(10.043 0.0626324 0)
(10.0614 0.0703572 0)
(10.0795 0.0749192 0)
(10.0968 0.0770122 0)
(10.1131 0.0773211 0)
(10.1282 0.0763564 0)
(10.1422 0.0745011 0)
(10.1551 0.0720665 0)
(10.167 0.06921 0)
(10.178 0.0660955 0)
(10.1879 0.0627591 0)
(10.1967 0.0592173 0)
(10.2043 0.0554627 0)
(10.2106 0.0514795 0)
(10.2156 0.0473391 0)
(10.0012 0.0112204 0)
(10.0088 0.0304073 0)
(10.0217 0.0447809 0)
(10.0375 0.0552743 0)
(10.0544 0.0624813 0)
(10.0713 0.0668921 0)
(10.0876 0.0690662 0)
(10.1031 0.0695714 0)
(10.1176 0.0688519 0)
(10.131 0.0672486 0)
(10.1435 0.0650414 0)
(10.1551 0.0624093 0)
(10.1658 0.0595114 0)
(10.1757 0.0564298 0)
(10.1849 0.0532328 0)
(10.1933 0.0499634 0)
(10.2008 0.0466294 0)
(10.2074 0.0432818 0)
(10.0007 0.00947371 0)
(10.0074 0.0261826 0)
(10.0186 0.0388392 0)
(10.0327 0.0481932 0)
(10.0482 0.0547759 0)
(10.0639 0.0589327 0)
(10.0794 0.0610959 0)
(10.0941 0.0617336 0)
(10.108 0.0612277 0)
(10.121 0.0598758 0)
(10.1331 0.0579199 0)
(10.1443 0.0555295 0)
(10.1546 0.0528453 0)
(10.1643 0.0499626 0)
(10.1732 0.0469628 0)
(10.1815 0.0439168 0)
(10.1891 0.0408796 0)
(10.1963 0.0379588 0)
(10.0004 0.00780289 0)
(10.0061 0.0219152 0)
(10.0157 0.0324752 0)
(10.0282 0.0404113 0)
(10.0422 0.0461476 0)
(10.0567 0.0498848 0)
(10.0711 0.0519161 0)
(10.085 0.0526035 0)
(10.0983 0.0522658 0)
(10.1108 0.0511584 0)
(10.1225 0.0494851 0)
(10.1334 0.0473956 0)
(10.1435 0.0450072 0)
(10.1529 0.0424054 0)
(10.1615 0.0396596 0)
(10.1695 0.0368385 0)
(10.1769 0.0340059 0)
(10.1839 0.031278 0)
(10.0003 0.00606194 0)
(10.0051 0.0174401 0)
(10.0135 0.0258288 0)
(10.0242 0.0320282 0)
(10.0367 0.0366281 0)
(10.0499 0.0397213 0)
(10.0632 0.0414546 0)
(10.0763 0.0420705 0)
(10.0889 0.0418141 0)
(10.1009 0.0408933 0)
(10.1122 0.0394759 0)
(10.1228 0.0376904 0)
(10.1327 0.035635 0)
(10.1419 0.0333819 0)
(10.1504 0.0309857 0)
(10.1582 0.0285008 0)
(10.1655 0.0259768 0)
(10.1722 0.0235003 0)
(10.0002 0.00432087 0)
(10.0045 0.012556 0)
(10.0118 0.0188204 0)
(10.0212 0.0231049 0)
(10.0322 0.0262738 0)
(10.0441 0.0284465 0)
(10.0563 0.0296562 0)
(10.0685 0.0300282 0)
(10.0803 0.029724 0)
(10.0917 0.0288937 0)
(10.1026 0.0276639 0)
(10.1129 0.0261365 0)
(10.1226 0.0243917 0)
(10.1316 0.0224902 0)
(10.1401 0.020478 0)
(10.1479 0.0183973 0)
(10.1551 0.016282 0)
(10.1619 0.0141858 0)
(10.0002 0.00250268 0)
(10.0039 0.00733633 0)
(10.0105 0.0111314 0)
(10.0191 0.0134259 0)
(10.029 0.0149985 0)
(10.0398 0.0160016 0)
(10.051 0.016431 0)
(10.0623 0.0163377 0)
(10.0734 0.0158094 0)
(10.0843 0.0149359 0)
(10.0948 0.0137962 0)
(10.1047 0.0124567 0)
(10.1142 0.0109718 0)
(10.123 0.00938541 0)
(10.1314 0.00773314 0)
(10.1392 0.00604691 0)
(10.1465 0.0043512 0)
(10.1532 0.00268104 0)
(10.0002 0.000550337 0)
(10.0035 0.00162904 0)
(10.0097 0.00236628 0)
(10.0178 0.00253267 0)
(10.027 0.00240367 0)
(10.0372 0.00203829 0)
(10.0477 0.00145071 0)
(10.0584 0.000665857 0)
(10.0691 -0.00028013 0)
(10.0796 -0.00135094 0)
(10.0897 -0.00251538 0)
(10.0994 -0.00374742 0)
(10.1087 -0.00502557 0)
(10.1174 -0.00633179 0)
(10.1257 -0.00764996 0)
(10.1334 -0.00896452 0)
(10.1407 -0.0102616 0)
(10.1475 -0.0115164 0)
(10.0002 -0.00165555 0)
(10.0034 -0.00488839 0)
(10.0096 -0.00778355 0)
(10.0176 -0.010126 0)
(10.0267 -0.0122375 0)
(10.0367 -0.014228 0)
(10.0473 -0.0160667 0)
(10.0579 -0.0177446 0)
(10.0686 -0.0192734 0)
(10.079 -0.0206709 0)
(10.0891 -0.0219561 0)
(10.0988 -0.0231463 0)
(10.1081 -0.0242557 0)
(10.1168 -0.0252951 0)
(10.1251 -0.0262713 0)
(10.1328 -0.0271881 0)
(10.1401 -0.0280472 0)
(10.1469 -0.0288398 0)
(10.0002 -0.00385021 0)
(10.0039 -0.0113519 0)
(10.0104 -0.0177682 0)
(10.0189 -0.0226097 0)
(10.0288 -0.0267384 0)
(10.0396 -0.0303398 0)
(10.0509 -0.0333771 0)
(10.0622 -0.0358773 0)
(10.0734 -0.0379112 0)
(10.0844 -0.0395561 0)
(10.0949 -0.0408852 0)
(10.1049 -0.0419607 0)
(10.1143 -0.0428316 0)
(10.1232 -0.0435385 0)
(10.1316 -0.0441167 0)
(10.1395 -0.0445948 0)
(10.1468 -0.0449998 0)
(10.1537 -0.0453484 0)
(10.0003 -0.00590432 0)
(10.0046 -0.0172161 0)
(10.0119 -0.0262946 0)
(10.0214 -0.0334323 0)
(10.0326 -0.0394361 0)
(10.0447 -0.0443764 0)
(10.0571 -0.0482914 0)
(10.0694 -0.0513079 0)
(10.0814 -0.053578 0)
(10.0929 -0.0552456 0)
(10.1039 -0.0564433 0)
(10.1142 -0.0572847 0)
(10.124 -0.0578556 0)
(10.1332 -0.0582263 0)
(10.1418 -0.0584634 0)
(10.1498 -0.0586188 0)
(10.1574 -0.0587197 0)
(10.1644 -0.0587763 0)
(10.0005 -0.0081476 0)
(10.0058 -0.023006 0)
(10.0145 -0.0347744 0)
(10.0259 -0.044329 0)
(10.0388 -0.052035 0)
(10.0525 -0.0580222 0)
(10.0661 -0.0625001 0)
(10.0795 -0.0657558 0)
(10.0923 -0.0680457 0)
(10.1045 -0.0695809 0)
(10.1161 -0.070551 0)
(10.1269 -0.0711288 0)
(10.1371 -0.0714319 0)
(10.1466 -0.0715208 0)
(10.1553 -0.0714569 0)
(10.1634 -0.0712865 0)
(10.1707 -0.0709738 0)
(10.1773 -0.070494 0)
(10.001 -0.01065 0)
(10.0077 -0.0292421 0)
(10.0187 -0.0439264 0)
(10.0323 -0.0555102 0)
(10.0473 -0.064506 0)
(10.0626 -0.0711881 0)
(10.0777 -0.0759439 0)
(10.0921 -0.0792554 0)
(10.1059 -0.0814903 0)
(10.1189 -0.0828667 0)
(10.1309 -0.0835711 0)
(10.1419 -0.0838227 0)
(10.1519 -0.083736 0)
(10.1609 -0.0833068 0)
(10.1689 -0.0825916 0)
(10.1758 -0.0816536 0)
(10.1817 -0.080385 0)
(10.1869 -0.0788643 0)
(10.0016 -0.0137983 0)
(10.0106 -0.0364308 0)
(10.0243 -0.0535177 0)
(10.0406 -0.0667482 0)
(10.0577 -0.0768185 0)
(10.0748 -0.0840427 0)
(10.0912 -0.0889516 0)
(10.1066 -0.0921991 0)
(10.1207 -0.0941997 0)
(10.1335 -0.0951349 0)
(10.1448 -0.0952147 0)
(10.1547 -0.0947098 0)
(10.1633 -0.0936777 0)
(10.1706 -0.0921289 0)
(10.1769 -0.0902823 0)
(10.1823 -0.0883677 0)
(10.1869 -0.0864327 0)
(10.1911 -0.0844168 0)
(10.0022 -0.0176386 0)
(10.0145 -0.044416 0)
(10.0317 -0.0637601 0)
(10.0505 -0.0784954 0)
(10.0696 -0.089386 0)
(10.0878 -0.0967679 0)
(10.1045 -0.101408 0)
(10.1194 -0.104082 0)
(10.1323 -0.105045 0)
(10.1434 -0.104679 0)
(10.1531 -0.103464 0)
(10.1613 -0.10179 0)
(10.1683 -0.0998576 0)
(10.1744 -0.097752 0)
(10.1799 -0.0954152 0)
(10.1848 -0.092997 0)
(10.1891 -0.0906919 0)
(10.193 -0.0884808 0)
(10.0032 -0.0225256 0)
(10.02 -0.0537428 0)
(10.0406 -0.0749946 0)
(10.0611 -0.0905563 0)
(10.0804 -0.100926 0)
(10.0981 -0.107139 0)
(10.1138 -0.110344 0)
(10.1273 -0.111676 0)
(10.1385 -0.111681 0)
(10.1482 -0.110734 0)
(10.1569 -0.109004 0)
(10.1644 -0.106723 0)
(10.1709 -0.10423 0)
(10.1767 -0.10181 0)
(10.1817 -0.0993334 0)
(10.1862 -0.0967994 0)
(10.1902 -0.0943114 0)
(10.1938 -0.0918863 0)
(10.0053 -0.0292551 0)
(10.0273 -0.0636448 0)
(10.0497 -0.0839091 0)
(10.0701 -0.0986553 0)
(10.0887 -0.1088 0)
(10.1054 -0.11462 0)
(10.1201 -0.117248 0)
(10.1327 -0.11758 0)
(10.1433 -0.116756 0)
(10.1523 -0.115361 0)
(10.16 -0.113484 0)
(10.1665 -0.111051 0)
(10.1721 -0.108394 0)
(10.1768 -0.105634 0)
(10.1807 -0.102852 0)
(10.1839 -0.100045 0)
(10.1866 -0.0972932 0)
(10.1888 -0.0946458 0)
(10.0097 -0.0360116 0)
(10.0356 -0.0705002 0)
(10.058 -0.0910652 0)
(10.0787 -0.105521 0)
(10.0973 -0.116006 0)
(10.1128 -0.12202 0)
(10.1252 -0.125133 0)
(10.1342 -0.12564 0)
(10.1404 -0.12475 0)
(10.1439 -0.122723 0)
(10.1451 -0.120094 0)
(10.1443 -0.116888 0)
(10.1418 -0.113441 0)
(10.138 -0.109927 0)
(10.1329 -0.106375 0)
(10.1272 -0.102953 0)
(10.1203 -0.0995385 0)
(10.1136 -0.0964833 0)
(10.0125 -0.042829 0)
(10.0463 -0.0768535 0)
(10.0682 -0.0954764 0)
(10.0743 -0.107819 0)
(10.0627 -0.115733 0)
(10.0361 -0.120253 0)
(9.99509 -0.121934 0)
(9.94362 -0.121505 0)
(9.88446 -0.119649 0)
(9.82133 -0.11694 0)
(9.75512 -0.113664 0)
(9.68842 -0.110014 0)
(9.62125 -0.106136 0)
(9.55588 -0.102258 0)
(9.49108 -0.0983501 0)
(9.42958 -0.0946121 0)
(9.36837 -0.0909341 0)
(9.31236 -0.087677 0)
(9.91235 -0.035084 0)
(9.67565 -0.0800543 0)
(9.34545 -0.110682 0)
(8.97484 -0.126412 0)
(8.60033 -0.126842 0)
(8.24446 -0.116702 0)
(7.91277 -0.105276 0)
(7.60708 -0.0937193 0)
(7.3293 -0.0826369 0)
(7.07805 -0.0726654 0)
(6.85124 -0.063866 0)
(6.64692 -0.0561232 0)
(6.46267 -0.0493608 0)
(6.29709 -0.0434794 0)
(6.1473 -0.0383334 0)
(6.01329 -0.033904 0)
(5.89055 -0.0298137 0)
(5.78245 -0.0260833 0)
(-0.00835936 0.0231632 -5.42539e-21)
(-0.033163 0.0287522 5.39688e-21)
(-0.0563985 0.0233974 0)
(-0.0630341 0.00731575 0)
(-0.0437508 -0.0174845 0)
(0.00344166 -0.0431833 -5.20672e-21)
(0.073111 -0.0637951 0)
(0.157396 -0.0777476 0)
(0.249608 -0.0849509 0)
(0.344247 -0.0866607 0)
(0.437114 -0.0847171 5.02058e-21)
(0.525468 -0.0805994 0)
(0.607485 -0.0747392 0)
(0.682144 -0.0676631 0)
(0.748858 -0.0599295 0)
(0.807359 -0.0519676 5.10283e-21)
(0.857619 -0.0439999 0)
(0.899706 -0.0361629 0)
(0.93383 -0.0285627 0)
(0.960126 -0.0212249 0)
(0.978969 -0.0141018 0)
(0.990292 -0.0071894 0)
(0.994818 -0.000332705 0)
(0.992007 0.00649205 5.15313e-21)
(0.982166 0.0132268 -5.13068e-21)
(0.965632 0.019718 5.10209e-21)
(0.942717 0.0258232 5.06757e-21)
(0.913763 0.0314751 0)
(0.879157 0.0365873 0)
(0.839314 0.0411068 -4.93323e-21)
(0.794679 0.0450052 -4.88048e-21)
(0.745741 0.0482249 0)
(0.693064 0.050698 0)
(0.637285 0.0523627 -4.71031e-21)
(0.579117 0.053165 0)
(0.519366 0.0530832 0)
(0.45886 0.0521631 4.54165e-21)
(0.398474 0.0503763 0)
(0.339164 0.0477921 4.4409e-21)
(0.28176 0.0446375 8.79168e-21)
(0.227092 0.0406846 0)
(0.176308 0.0367588 0)
(0.129537 0.034199 0)
(0.0867951 0.0289581 0)
(0.0516213 0.0157832 0)
(0.0292244 -0.00148616 8.42867e-21)
(0.0218631 -0.0161435 8.38825e-21)
(0.0303784 -0.0283554 8.34708e-21)
(0.0529324 -0.0389218 0)
(0.0916575 -0.045852 -8.28661e-21)
(0.140179 -0.0496297 0)
(0.202668 -0.0525245 8.28387e-21)
(0.279403 -0.0540052 8.31159e-21)
(0.361943 -0.0527165 0)
(0.449438 -0.061172 0)
(0.545499 -0.0723008 0)
(0.64646 -0.0743701 8.66077e-21)
(0.740919 -0.0690204 0)
(0.819397 -0.0620177 0)
(0.877172 -0.0509064 0)
(0.909846 -0.0291061 0)
(0.904707 -0.00110894 0)
(0.856568 0.0162019 0)
(0.780921 0.019602 0)
(0.691386 0.0294002 0)
(0.579694 0.0626047 -7.72207e-21)
(0.432881 0.0980945 0)
(0.267079 0.0981438 0)
(0.117475 0.0705082 6.86977e-21)
(0.00259454 0.0545709 6.69314e-21)
(-0.0790143 0.0355674 0)
(-0.150007 -0.00718116 -6.47362e-21)
(-0.234052 -4.56231e-05 6.42898e-21)
(-0.344619 0.0892649 0)
(-0.467694 0.132353 -6.34339e-21)
(-0.541348 0.0613965 0)
(-0.52274 -0.0255193 0)
(-0.446155 -0.0624636 6.44109e-21)
(-0.341892 -0.0771008 0)
(-0.208439 -0.0916174 -6.58771e-21)
(-0.0481972 -0.105938 0)
(0.136304 -0.117179 6.86786e-21)
(0.34008 -0.125499 7.08315e-21)
(0.556209 -0.129487 7.38632e-21)
(0.776933 -0.128115 1.55565e-20)
(0.992916 -0.121069 -1.64857e-20)
(1.19345 -0.108304 0)
(1.36758 -0.090147 0)
(1.50586 -0.0661766 0)
(1.5958 -0.037121 -1.99297e-20)
(1.63271 0.00172982 -2.019e-20)
(1.59551 0.0476142 1.99878e-20)
(1.46103 0.104242 0)
(1.21238 0.167428 -1.80027e-20)
(0.838615 0.221019 -1.6419e-20)
(0.361534 0.228656 -1.49533e-20)
(-0.124161 0.161785 0)
(-0.464402 0.063327 0)
(-0.571866 -0.00671139 0)
(-0.542297 -0.0545459 -1.33559e-20)
(-0.459585 -0.0680279 0)
(-0.345117 -0.041079 0)
(-0.233412 -0.00587679 1.33779e-20)
(-0.135127 -0.0666922 0)
(-0.106531 -0.230718 0)
(-0.19475 -0.233178 1.34584e-20)
(-0.412859 0.0830806 0)
(-0.913522 0.297978 0)
(-1.38001 0.185975 -1.23596e-20)
(-1.59103 0.118488 -1.27069e-20)
(-1.82168 0.0993531 0)
(-1.97811 0.0574844 1.338e-20)
(-2.08481 0.0385799 0)
(-2.1774 0.0211404 -1.38692e-20)
(-2.23269 0.00725318 0)
(-2.27874 -0.00088127 -1.41696e-20)
(-2.30625 -0.00837879 -1.42787e-20)
(-2.32415 -0.0132053 0)
(-2.33226 -0.0173237 0)
(-2.33173 -0.0201546 0)
(-2.32594 -0.0220924 0)
(-2.31629 -0.0238453 0)
(-2.30617 -0.0244866 0)
(-2.29959 -0.0233356 0)
(-2.30252 -0.0190742 -1.51831e-20)
(-2.3229 -0.00965757 1.53574e-20)
(-2.37191 0.00677846 0)
(-2.45899 0.0295227 0)
(-2.58894 0.0553372 0)
(-2.75963 0.0790913 0)
(-2.96053 0.0952858 3.18996e-20)
(-3.17462 0.100488 0)
(-3.38358 0.0954352 -3.22474e-20)
(-3.57335 0.0843335 3.23735e-20)
(-3.73741 0.0712893 0)
(-3.87424 0.0581843 0)
(-3.98371 0.0458832 0)
(-4.06766 0.035129 -3.13566e-20)
(-4.12892 0.0258259 -3.05875e-20)
(-4.16944 0.0178332 0)
(-4.19181 0.01141 -2.84497e-20)
(-4.19864 0.00607879 -2.71056e-20)
(-4.19228 0.0017474 2.56e-20)
(-4.17655 -0.00131826 0)
(-4.15252 -0.00392161 0)
(-4.12223 -0.00588341 2.0344e-20)
(-4.08743 -0.00728531 0)
(-4.04927 -0.00838327 0)
(-4.00857 -0.00931132 0)
(-3.96548 -0.0102324 0)
(-3.92008 -0.0112046 -1.02989e-20)
(-3.87217 -0.012305 -8.16639e-21)
(-3.82106 -0.0136985 0)
(-3.76604 -0.0153911 -3.74387e-21)
(-3.70631 -0.0173847 0)
(-3.64071 -0.0198139 0)
(-3.56824 -0.0226342 3.41962e-21)
(-3.48776 -0.0258535 0)
(-3.39797 -0.0295924 8.66022e-21)
(-3.2976 -0.0338156 0)
(-3.1851 -0.0385618 0)
(-3.05905 -0.0438539 1.73708e-20)
(-2.91773 -0.049684 0)
(-2.75957 -0.0560267 2.37723e-20)
(-2.5829 -0.0628044 0)
(-2.38646 -0.0698059 0)
(-2.16976 -0.0767313 0)
(-1.93277 -0.0833714 -3.75874e-20)
(-1.67633 -0.0894182 0)
(-1.40272 -0.094359 4.43923e-20)
(-1.11358 -0.098013 0)
(-0.816642 -0.0992985 0)
(-0.512013 -0.0991783 0)
(-0.212802 -0.0964262 0)
(0.0864354 -0.0910146 0)
(0.360281 -0.0845274 0)
(0.637135 -0.0760735 0)
(0.856537 -0.0662695 -1.21653e-19)
(1.10225 -0.0540507 0)
(1.22343 -0.0317675 0)
(-0.00555409 0.0627263 1.63127e-20)
(-0.0243263 0.0718351 -1.62331e-20)
(-0.0311603 0.0381422 0)
(-0.00699437 -0.03203 1.06675e-20)
(0.0515177 -0.119223 0)
(0.133527 -0.195677 5.16763e-21)
(0.22872 -0.249828 -1.02686e-20)
(0.328364 -0.279889 -1.01598e-20)
(0.426515 -0.290613 0)
(0.520124 -0.287071 -1.00236e-20)
(0.607438 -0.273425 -4.9186e-21)
(0.687083 -0.253544 0)
(0.758763 -0.230421 0)
(0.822872 -0.205747 0)
(0.879584 -0.180556 0)
(0.929098 -0.155498 -4.95605e-21)
(0.971614 -0.130975 0)
(1.0073 -0.107234 1.01111e-20)
(1.03625 -0.0844473 0)
(1.0586 -0.0626885 0)
(1.07446 -0.0419378 -1.01482e-20)
(1.08416 -0.0221754 0)
(1.08771 -0.00336214 1.01224e-20)
(1.0859 0.0144786 -5.00282e-21)
(1.07895 0.0313287 4.98603e-21)
(1.06712 0.0471254 -4.96596e-21)
(1.05065 0.061839 -4.94164e-21)
(1.02975 0.0754456 0)
(1.00465 0.0879259 0)
(0.975583 0.0992589 4.83813e-21)
(0.942793 0.109396 -4.85351e-21)
(0.906555 0.118233 0)
(0.867156 0.125642 0)
(0.824915 0.131505 4.64366e-21)
(0.78018 0.135678 0)
(0.73336 0.138053 0)
(0.684948 0.138543 -4.48718e-21)
(0.635533 0.137038 0)
(0.585767 0.133538 4.40217e-21)
(0.536444 0.128079 -8.69778e-21)
(0.488508 0.120502 0)
(0.443024 0.11078 0)
(0.401547 0.0991038 -1.69288e-20)
(0.366193 0.0850422 -1.68066e-20)
(0.337489 0.066714 -1.67017e-20)
(0.314535 0.0427608 8.25419e-21)
(0.29786 0.0133277 -8.32187e-21)
(0.290645 -0.0188843 -2.47378e-20)
(0.295445 -0.0517796 1.63884e-20)
(0.313435 -0.0829374 8.22812e-21)
(0.343506 -0.111177 0)
(0.393782 -0.144302 -8.22245e-21)
(0.459567 -0.173286 8.22789e-21)
(0.541069 -0.186234 0)
(0.633622 -0.193189 0)
(0.72333 -0.202382 0)
(0.802862 -0.198553 -8.57978e-21)
(0.867148 -0.171246 0)
(0.904899 -0.127517 1.7894e-20)
(0.91081 -0.0753396 0)
(0.887804 -0.0105652 1.79903e-20)
(0.84253 0.0655898 0)
(0.772813 0.133925 -1.74111e-20)
(0.672138 0.180414 0)
(0.547554 0.215272 1.63077e-20)
(0.40909 0.253647 -7.9626e-21)
(0.260161 0.287046 0)
(0.10448 0.293596 -1.43474e-20)
(-0.0528087 0.257606 -6.84973e-21)
(-0.210166 0.189577 -6.64522e-21)
(-0.386087 0.163642 0)
(-0.604534 0.219407 -6.4559e-21)
(-0.802137 0.241187 -6.31406e-21)
(-0.895711 0.184264 0)
(-0.919282 0.103376 6.21991e-21)
(-0.921595 0.00877283 -1.26604e-20)
(-0.91342 -0.0708447 0)
(-0.885791 -0.129487 -6.31009e-21)
(-0.822069 -0.182087 0)
(-0.725323 -0.23039 1.95895e-20)
(-0.598023 -0.272701 0)
(-0.44251 -0.307488 -2.05226e-20)
(-0.263304 -0.333753 -7.01519e-21)
(-0.0657484 -0.347982 7.65175e-21)
(0.142097 -0.348147 1.6156e-20)
(0.350712 -0.332032 -1.71155e-20)
(0.550127 -0.299143 0)
(0.728754 -0.25041 0)
(0.876949 -0.185752 0)
(0.987307 -0.106626 6.06866e-20)
(1.04843 -0.00994776 2.02183e-20)
(1.06483 0.105567 -2.00022e-20)
(1.02946 0.248213 0)
(0.923496 0.411347 -1.95395e-20)
(0.725315 0.564696 1.63304e-20)
(0.421273 0.643762 1.4829e-20)
(0.0619325 0.572526 0)
(-0.227518 0.345913 0)
(-0.375059 0.0864166 0)
(-0.413598 -0.0560918 1.33807e-20)
(-0.328784 -0.128017 0)
(-0.264494 -0.189857 -2.6372e-20)
(-0.346034 -0.205372 -3.98738e-20)
(-0.61233 -0.0344124 2.63761e-20)
(-1.11032 0.313216 0)
(-1.65447 0.488049 1.3153e-20)
(-1.86827 0.508024 0)
(-2.04095 0.480238 2.49391e-20)
(-2.21957 0.350402 -1.30187e-20)
(-2.31721 0.268994 -1.31296e-20)
(-2.44673 0.210889 0)
(-2.52841 0.154041 -3.96192e-20)
(-2.6184 0.121496 2.69434e-20)
(-2.69607 0.0936936 1.35596e-20)
(-2.77137 0.0736531 0)
(-2.8468 0.0582068 1.38747e-20)
(-2.9181 0.0447951 4.20243e-20)
(-2.98947 0.0341509 0)
(-3.05732 0.024026 2.8384e-20)
(-3.12333 0.0160476 2.85543e-20)
(-3.18549 0.0109143 2.87283e-20)
(-3.24574 0.00915434 0)
(-3.30545 0.0119109 0)
(-3.36672 0.0204179 0)
(-3.43266 0.0362379 -1.47444e-20)
(-3.50535 0.0605071 -1.50547e-20)
(-3.58514 0.0919002 0)
(-3.67115 0.125727 -3.05173e-20)
(-3.76036 0.156339 -3.07735e-20)
(-3.84865 0.178219 0)
(-3.93186 0.187013 -3.11725e-20)
(-4.00564 0.181814 -6.28457e-20)
(-4.06791 0.165952 3.1412e-20)
(-4.11946 0.144342 3.17561e-20)
(-4.16065 0.120673 0)
(-4.1917 0.0969888 0)
(-4.21359 0.0746361 0)
(-4.22679 0.0544068 3.00193e-20)
(-4.23107 0.0361497 -2.94032e-20)
(-4.22725 0.0197086 -5.65569e-20)
(-4.21538 0.00543155 2.69899e-20)
(-4.1954 -0.00684775 -2.59286e-20)
(-4.16821 -0.0170759 -2.42058e-20)
(-4.13248 -0.0252375 0)
(-4.08996 -0.0316065 0)
(-4.04239 -0.036214 1.94704e-20)
(-3.99081 -0.0394169 0)
(-3.93625 -0.0416618 0)
(-3.87934 -0.0434559 -2.74746e-20)
(-3.82005 -0.0451376 0)
(-3.75848 -0.0468682 -9.98289e-21)
(-3.69432 -0.0489162 7.66984e-21)
(-3.62686 -0.0515409 0)
(-3.55565 -0.0547953 -3.86803e-21)
(-3.47977 -0.0587351 0)
(-3.39815 -0.0635503 0)
(-3.3101 -0.0691776 -3.19354e-21)
(-3.21429 -0.0756058 1.06709e-20)
(-3.10961 -0.0830295 -8.06501e-21)
(-2.99505 -0.0913977 0)
(-2.86906 -0.100764 0)
(-2.7305 -0.111205 1.53918e-20)
(-2.57783 -0.122727 0)
(-2.40963 -0.135284 2.1127e-20)
(-2.22444 -0.148706 0)
(-2.02125 -0.162656 0)
(-1.79946 -0.176594 0)
(-1.55925 -0.18982 3.46192e-20)
(-1.30149 -0.201875 0)
(-1.02776 -0.211929 -4.08749e-20)
(-0.740163 -0.219259 0)
(-0.444824 -0.222467 0)
(-0.14249 -0.222211 9.68687e-20)
(0.154549 -0.217326 -1.01142e-19)
(0.450305 -0.208301 0)
(0.72714 -0.19602 0)
(0.998473 -0.18032 0)
(1.23216 -0.160739 3.36529e-19)
(1.47209 -0.139204 0)
(1.63505 -0.0923494 -2.31128e-19)
(-0.00225765 0.0849955 3.78386e-23)
(-0.0100241 0.0811367 2.17174e-20)
(0.0138114 -0.0104302 0)
(0.0860721 -0.161282 -2.1277e-20)
(0.183267 -0.305301 0)
(0.286851 -0.407499 0)
(0.385269 -0.463544 -1.3606e-22)
(0.473966 -0.481793 1.00232e-20)
(0.552407 -0.473544 1.01139e-20)
(0.62131 -0.44934 9.8477e-21)
(0.6825 -0.416402 0)
(0.737672 -0.379039 0)
(0.787882 -0.340196 -9.9938e-21)
(0.833612 -0.301516 -2.00025e-20)
(0.875102 -0.263719 2.00326e-20)
(0.912434 -0.227039 0)
(0.945567 -0.191521 2.01125e-20)
(0.974396 -0.157117 -9.91105e-21)
(0.998744 -0.123823 0)
(1.01843 -0.091722 2.01908e-20)
(1.03329 -0.0609039 9.95272e-21)
(1.04322 -0.0314537 -2.01597e-20)
(1.04809 -0.00350691 -9.92734e-21)
(1.04797 0.0228258 0)
(1.04293 0.0475759 1.9915e-20)
(1.03309 0.0707598 1.97856e-20)
(1.01865 0.0923582 0)
(0.999917 0.112342 1.94733e-20)
(0.97726 0.130677 0)
(0.951059 0.147317 1.91102e-20)
(0.921739 0.162176 9.37081e-21)
(0.889747 0.175171 0)
(0.85547 0.186201 0)
(0.819276 0.195142 0)
(0.781539 0.201813 0)
(0.74263 0.20599 0)
(0.702971 0.207511 0)
(0.662986 0.206188 1.75476e-20)
(0.623101 0.201881 -2.60289e-20)
(0.583909 0.194443 0)
(0.545998 0.183624 0)
(0.509943 0.169213 0)
(0.476589 0.150805 9.20864e-23)
(0.446865 0.127595 1.66747e-20)
(0.421293 0.0987956 3.30128e-20)
(0.400261 0.0641473 -3.28262e-20)
(0.384243 0.0240188 -1.6235e-20)
(0.374409 -0.0203347 1.63704e-20)
(0.371527 -0.0653654 -2.09328e-22)
(0.378135 -0.108901 1.60652e-20)
(0.39925 -0.158261 0)
(0.438316 -0.211038 1.61423e-20)
(0.489583 -0.259722 -8.59749e-23)
(0.547334 -0.294739 0)
(0.603094 -0.31036 0)
(0.641832 -0.302868 -1.71347e-20)
(0.659711 -0.265618 0)
(0.662594 -0.198813 0)
(0.652636 -0.113575 1.8571e-20)
(0.625225 -0.0235948 3.6677e-20)
(0.576178 0.0662505 -1.78598e-20)
(0.509224 0.156464 0)
(0.425218 0.242037 1.73097e-20)
(0.319257 0.314991 0)
(0.190266 0.378152 1.70658e-20)
(0.0476594 0.434768 1.56054e-20)
(-0.093696 0.467993 -3.0475e-20)
(-0.2398 0.461804 -1.48158e-20)
(-0.421584 0.444715 0)
(-0.662967 0.468268 2.6845e-20)
(-0.916033 0.486525 0)
(-1.08969 0.437022 3.84776e-20)
(-1.19843 0.34798 2.57673e-20)
(-1.2763 0.24944 2.57647e-20)
(-1.3317 0.15104 -2.58302e-20)
(-1.37478 0.0417507 3.84951e-20)
(-1.4027 -0.0653945 0)
(-1.40455 -0.159978 0)
(-1.37885 -0.248947 -2.65697e-20)
(-1.32452 -0.332026 -3.98198e-20)
(-1.23989 -0.407353 0)
(-1.12652 -0.472486 1.35312e-20)
(-0.986266 -0.523064 0)
(-0.822679 -0.554407 -4.50024e-20)
(-0.642201 -0.562072 6.77246e-22)
(-0.452933 -0.541911 -6.04077e-22)
(-0.26573 -0.493798 3.62583e-20)
(-0.0917553 -0.419486 0)
(0.0571929 -0.322053 -4.04227e-20)
(0.17202 -0.206197 5.58457e-22)
(0.249565 -0.0733756 0)
(0.287057 0.0877376 0)
(0.291797 0.279036 0)
(0.261943 0.498621 3.77057e-20)
(0.197226 0.709855 0)
(0.0820073 0.826541 0)
(-0.0847436 0.759257 0)
(-0.258265 0.517673 0)
(-0.34106 0.220367 0)
(-0.306878 -0.0831789 2.61319e-20)
(-0.41447 -0.211525 0)
(-0.794384 0.0179073 2.60258e-20)
(-1.34813 0.390337 2.60256e-20)
(-1.78719 0.550938 -2.57447e-20)
(-1.99788 0.578305 0)
(-2.18906 0.581066 -2.56835e-20)
(-2.24041 0.57626 0)
(-2.25793 0.534492 -2.429e-20)
(-2.2823 0.418694 2.42595e-20)
(-2.31169 0.338928 7.47313e-20)
(-2.36166 0.273621 0)
(-2.40699 0.216663 7.62476e-20)
(-2.46332 0.180911 2.59938e-20)
(-2.51759 0.152372 0)
(-2.57517 0.132621 5.26753e-20)
(-2.63492 0.118036 5.32949e-20)
(-2.69776 0.10643 -8.0784e-20)
(-2.76408 0.0968397 0)
(-2.83366 0.0877835 -2.74744e-20)
(-2.90756 0.0800026 -2.77487e-20)
(-2.98427 0.0737316 -8.39093e-20)
(-3.06332 0.070232 0)
(-3.14403 0.0710091 0)
(-3.22586 0.0772325 0)
(-3.30804 0.0900354 -2.8681e-20)
(-3.38832 0.110424 0)
(-3.46378 0.13783 0)
(-3.53256 0.168352 2.98264e-20)
(-3.59383 0.195628 2.99957e-20)
(-3.64653 0.214088 0)
(-3.69076 0.220009 0)
(-3.72945 0.212069 6.02308e-20)
(-3.76547 0.193007 0)
(-3.79887 0.167649 -5.96376e-20)
(-3.82874 0.139315 -5.91208e-20)
(-3.85326 0.110359 0)
(-3.87102 0.0825773 0)
(-3.88073 0.0567563 5.596e-20)
(-3.88149 0.0329702 -2.24303e-22)
(-3.87313 0.0113704 -2.63449e-22)
(-3.85578 -0.00775635 0)
(-3.83025 -0.0243967 9.54268e-20)
(-3.79686 -0.0389569 0)
(-3.75635 -0.0511823 0)
(-3.71004 -0.0607187 0)
(-3.6589 -0.0677372 -3.56134e-20)
(-3.60412 -0.0726341 0)
(-3.54674 -0.076112 5.83427e-20)
(-3.48704 -0.0789138 2.53595e-20)
(-3.42517 -0.0815657 0)
(-3.36109 -0.0844345 1.81783e-20)
(-3.29433 -0.0877945 0)
(-3.22437 -0.0920148 0)
(-3.15063 -0.0973165 2.12685e-20)
(-3.0722 -0.10369 -6.51086e-21)
(-2.9882 -0.111362 0)
(-2.89779 -0.120398 1.01117e-20)
(-2.79978 -0.130702 -9.92434e-21)
(-2.69307 -0.142492 0)
(-2.57655 -0.155778 0)
(-2.4489 -0.170536 0)
(-2.30896 -0.186881 -8.69586e-20)
(-2.1554 -0.204804 0)
(-1.98697 -0.224218 -4.0351e-20)
(-1.80242 -0.244865 0)
(-1.60089 -0.266168 0)
(-1.38198 -0.287298 0)
(-1.14628 -0.307257 0)
(-0.894745 -0.325282 0)
(-0.628735 -0.34015 0)
(-0.351059 -0.350595 -1.61577e-19)
(-0.0655323 -0.355251 0)
(0.224966 -0.353795 -9.14787e-20)
(0.511178 -0.345723 2.84821e-19)
(0.794568 -0.331407 0)
(1.06034 -0.311754 0)
(1.31845 -0.287848 -2.06751e-19)
(1.54387 -0.258104 -2.12005e-19)
(1.77196 -0.225869 2.14232e-19)
(1.93555 -0.171041 2.18682e-19)
(-0.00190279 0.0890291 -3.28276e-20)
(0.0103535 0.040727 -3.26636e-20)
(0.0915573 -0.16003 -2.15439e-20)
(0.204663 -0.380227 -1.06888e-20)
(0.313652 -0.535121 0)
(0.403862 -0.614123 2.08084e-20)
(0.474072 -0.634712 -1.04654e-20)
(0.528625 -0.619736 0)
(0.57363 -0.586763 -9.90628e-21)
(0.613776 -0.545951 0)
(0.65151 -0.502433 2.00466e-20)
(0.688016 -0.45842 0)
(0.723706 -0.41469 9.80915e-21)
(0.758452 -0.371469 1.96643e-20)
(0.791859 -0.328787 -1.97238e-20)
(0.823462 -0.286674 0)
(0.852838 -0.245187 -1.98576e-20)
(0.879655 -0.204328 0)
(0.903642 -0.1641 0)
(0.924461 -0.124585 -2.0022e-20)
(0.941747 -0.0858933 0)
(0.955172 -0.0481892 -3.049e-22)
(0.964402 -0.0116933 0)
(0.969179 0.0233992 0)
(0.969284 0.0569185 2.94486e-22)
(0.964532 0.0886 -1.97168e-20)
(0.954921 0.118151 -1.98406e-20)
(0.940593 0.145344 -1.93709e-20)
(0.921788 0.170018 0)
(0.898861 0.192048 -3.81493e-20)
(0.872262 0.211355 0)
(0.842507 0.227877 -1.86993e-20)
(0.810155 0.24159 0)
(0.775764 0.252449 0)
(0.739901 0.260343 1.79265e-20)
(0.703036 0.265119 0)
(0.665611 0.266644 -1.74511e-20)
(0.628074 0.264742 5.35296e-23)
(0.590831 0.259195 3.40316e-20)
(0.55437 0.24984 -3.36653e-20)
(0.519043 0.236423 0)
(0.4852 0.218517 0)
(0.4534 0.195832 -1.62183e-20)
(0.424069 0.168024 0)
(0.397595 0.134345 -1.62388e-20)
(0.37422 0.09423 1.6155e-20)
(0.35413 0.0482727 1.60905e-20)
(0.337686 -0.00207585 0)
(0.326046 -0.0586882 -1.59955e-20)
(0.326419 -0.1242 -1.5963e-20)
(0.341796 -0.19768 3.14166e-20)
(0.368786 -0.271109 -1.60503e-20)
(0.389658 -0.325835 -1.62042e-20)
(0.391665 -0.341958 0)
(0.380217 -0.322558 0)
(0.36534 -0.282494 1.70553e-20)
(0.352091 -0.230462 0)
(0.335738 -0.164378 0)
(0.312465 -0.0781406 -3.6441e-20)
(0.273856 0.0277093 -3.67905e-20)
(0.214456 0.145083 0)
(0.133665 0.26394 0)
(0.0349316 0.37306 0)
(-0.0797601 0.465386 0)