/*--------------------------------*- C++ -*----------------------------------*\
| =========                 |                                                 |
| \\      /  F ield         | OpenFOAM: The Open Source CFD Toolbox           |
|  \\    /   O peration     | Version:  2112                                  |
|   \\  /    A nd           | Website:  www.openfoam.com                      |
|    \\/     M anipulation  |                                                 |
\*---------------------------------------------------------------------------*/
FoamFile
{
    version     2.0;
    format      ascii;
    arch        "LSB;label=32;scalar=64";
    class       volVectorField;
    location    "0.04";
    object      U;
}
// * * * * * * * * * * * * * * * * * * * * * * * * * * * * * * * * * * * * * //

dimensions      [0 1 -1 0 0 0 0];

internalField   nonuniform List<vector> 
12225
(
(10.2821 0.00335535 0)
(9.80181 0.0775144 0)
(9.27337 0.0832288 0)
(8.79811 0.0711531 0)
(8.43867 0.0581559 0)
(8.1459 0.052589 0)
(7.85935 0.0515834 0)
(7.56202 0.0493564 0)
(7.28777 0.0463789 0)
(7.02706 0.051975 0)
(6.76139 0.0682844 0)
(6.42078 0.0922446 0)
(6.01353 0.107526 0)
(5.51814 0.109197 0)
(5.03775 0.109588 0)
(4.42886 0.099407 0)
(4.10196 0.150797 0)
(2.68869 0.303777 0)
(10.3024 0.0700728 0)
(10.2397 0.146755 0)
(10.1329 0.143151 0)
(10.0492 0.112921 0)
(10.042 0.0889554 0)
(10.0828 0.0863578 0)
(10.117 0.0984417 0)
(10.0764 0.108558 0)
(9.98669 0.107517 0)
(9.8422 0.104174 0)
(9.73489 0.111614 0)
(9.57608 0.139996 0)
(9.50145 0.182279 0)
(9.2749 0.224881 0)
(9.21388 0.270709 0)
(8.85723 0.281535 0)
(8.82662 0.37241 0)
(8.20779 0.351472 0)
(9.81711 -0.0402489 0)
(9.98868 0.113727 0)
(10.0903 0.140471 0)
(10.1362 0.0988872 0)
(10.1583 0.0529814 0)
(10.1549 0.0372202 0)
(10.1295 0.0529311 0)
(10.0738 0.0797532 0)
(10.0251 0.104758 0)
(9.97272 0.121947 0)
(9.96427 0.145414 0)
(9.93662 0.172178 0)
(9.96274 0.212117 0)
(9.92258 0.243765 0)
(9.94235 0.270043 0)
(9.87477 0.294506 0)
(9.88757 0.328702 0)
(9.84766 0.395889 0)
(9.97639 0.0179283 0)
(9.96139 0.106718 0)
(10.0839 0.104057 0)
(10.181 0.0812902 0)
(10.2264 0.0718636 0)
(10.2281 0.0913414 0)
(10.1937 0.128052 0)
(10.1323 0.152851 0)
(10.0737 0.154738 0)
(10.0251 0.140957 0)
(10.0006 0.137888 0)
(9.98444 0.153864 0)
(9.98597 0.194053 0)
(9.98435 0.238969 0)
(9.98374 0.285143 0)
(9.97649 0.322496 0)
(9.97189 0.353418 0)
(9.99937 0.388682 0)
(9.9939 0.0130233 0)
(10.0113 0.0712505 0)
(9.90645 0.0970566 0)
(9.90545 0.0763077 0)
(9.95269 0.0457404 0)
(9.99168 0.0474039 0)
(10.017 0.076432 0)
(10.0389 0.106646 0)
(10.0659 0.125254 0)
(10.0908 0.134222 0)
(10.1024 0.148074 0)
(10.0947 0.173543 0)
(10.0698 0.211483 0)
(10.0392 0.254452 0)
(10.0016 0.290892 0)
(9.96678 0.318776 0)
(9.93126 0.335826 0)
(9.9152 0.344363 0)
(9.81743 -0.0318823 0)
(9.83105 0.152025 0)
(9.9591 0.125032 0)
(10.083 0.0522352 0)
(10.1101 0.0337298 0)
(10.078 0.070787 0)
(10.0413 0.120484 0)
(10.0202 0.149218 0)
(10.0088 0.151849 0)
(9.99315 0.143552 0)
(9.96695 0.146849 0)
(9.93879 0.172373 0)
(9.91862 0.217313 0)
(9.91205 0.270043 0)
(9.91568 0.313748 0)
(9.92529 0.345099 0)
(9.93886 0.361295 0)
(9.95695 0.363919 0)
(9.9078 0.0471141 0)
(10.0303 0.0245352 0)
(10.1496 0.0285699 0)
(10.1564 0.0482277 0)
(10.0899 0.0593876 0)
(10.0193 0.0721877 0)
(9.98208 0.0886469 0)
(9.99768 0.104512 0)
(10.059 0.11994 0)
(10.128 0.138572 0)
(10.1567 0.165004 0)
(10.1214 0.198639 0)
(10.0338 0.234486 0)
(9.92792 0.2676 0)
(9.83642 0.292687 0)
(9.77592 0.309586 0)
(9.75053 0.31663 0)
(9.76072 0.316855 0)
(9.87969 0.0223051 0)
(9.91058 0.0687676 0)
(9.89581 0.081694 0)
(9.94356 0.0598156 0)
(9.99256 0.0693832 0)
(10.0087 0.108977 0)
(9.99044 0.135707 0)
(9.95898 0.130353 0)
(9.93883 0.111188 0)
(9.94243 0.111898 0)
(9.96592 0.152861 0)
(9.99299 0.22594 0)
(10.0082 0.304249 0)
(10.0038 0.362525 0)
(9.98462 0.389052 0)
(9.95676 0.387532 0)
(9.9309 0.36587 0)
(9.90906 0.334861 0)
(9.87676 0.0621469 0)
(9.94922 -0.00979214 0)
(10.0352 0.0163629 0)
(10.0685 0.0321706 0)
(10.0404 0.0530025 0)
(10.01 0.0789951 0)
(10.0079 0.101505 0)
(10.0242 0.114266 0)
(10.0333 0.117115 0)
(10.0216 0.120282 0)
(9.99607 0.13936 0)
(9.97125 0.180031 0)
(9.95438 0.233905 0)
(9.94171 0.285366 0)
(9.92856 0.322138 0)
(9.9124 0.340263 0)
(9.89703 0.340934 0)
(9.88316 0.327867 0)
(10.067 0.0591285 0)
(10.0841 0.00902325 0)
(10.0174 0.0299225 0)
(9.9817 0.0477393 0)
(9.99408 0.0813545 0)
(10.0339 0.11606 0)
(10.075 0.131517 0)
(10.0935 0.128606 0)
(10.0735 0.124534 0)
(10.0185 0.139475 0)
(9.94965 0.183424 0)
(9.89157 0.249607 0)
(9.85791 0.319975 0)
(9.84995 0.374688 0)
(9.86011 0.401989 0)
(9.87674 0.400826 0)
(9.89251 0.377175 0)
(9.89424 0.342394 0)
(10.1299 -0.0753107 0)
(10.0424 0.0185633 0)
(9.91477 0.0532983 0)
(9.82674 0.0530861 0)
(9.80761 0.0527454 0)
(9.83538 0.0529599 0)
(9.88383 0.0688702 0)
(9.92607 0.105179 0)
(9.93841 0.14722 0)
(9.91995 0.182379 0)
(9.89074 0.209991 0)
(9.87369 0.235223 0)
(9.88082 0.261001 0)
(9.90971 0.2847 0)
(9.94893 0.304604 0)
(9.98195 0.318512 0)
(9.99905 0.329597 0)
(9.98509 0.336196 0)
(9.89664 0.0871606 0)
(9.80773 0.0965657 0)
(9.75811 0.104941 0)
(9.77011 0.0802989 0)
(9.80664 0.0621815 0)
(9.8341 0.0627352 0)
(9.85331 0.080864 0)
(9.8702 0.107954 0)
(9.88738 0.138763 0)
(9.90855 0.172142 0)
(9.93797 0.209511 0)
(9.97484 0.250111 0)
(10.014 0.289323 0)
(10.0474 0.320928 0)
(10.0676 0.342351 0)
(10.0685 0.353864 0)
(10.0488 0.361169 0)
(10.0073 0.366433 0)
(9.8457 0.0194461 0)
(9.84943 0.0576901 0)
(9.92031 0.0610472 0)
(10.0102 0.0516494 0)
(10.0394 0.0490792 0)
(10.0274 0.0496158 0)
(10.0291 0.059962 0)
(10.0505 0.0853765 0)
(10.0625 0.118069 0)
(10.0472 0.145696 0)
(10.0137 0.165828 0)
(9.98385 0.185251 0)
(9.97189 0.210932 0)
(9.97875 0.245463 0)
(9.99392 0.288397 0)
(10.0029 0.334321 0)
(9.99441 0.381908 0)
(9.96109 0.423498 0)
(9.89007 0.14306 0)
(9.86129 0.0969484 0)
(9.88314 0.0122299 0)
(9.89482 0.0158075 0)
(9.92062 0.0403385 0)
(9.94481 0.0444438 0)
(9.96114 0.050926 0)
(9.96688 0.0860277 0)
(9.95922 0.148342 0)
(9.94371 0.217077 0)
(9.93061 0.271782 0)
(9.92447 0.304019 0)
(9.92456 0.318423 0)
(9.92636 0.325619 0)
(9.92699 0.336454 0)
(9.92064 0.356755 0)
(9.90669 0.389273 0)
(9.87904 0.431243 0)
(10.0061 0.119606 0)
(10.0615 0.0116973 0)
(10.0231 0.0207649 0)
(9.98631 0.0411651 0)
(9.99221 0.0380173 0)
(9.99644 0.0411378 0)
(9.95978 0.0676841 0)
(9.883 0.106806 0)
(9.80244 0.137883 0)
(9.75871 0.151509 0)
(9.77002 0.152986 0)
(9.82779 0.156481 0)
(9.90908 0.175303 0)
(9.98955 0.216227 0)
(10.0516 0.278322 0)
(10.0835 0.352543 0)
(10.0858 0.433159 0)
(10.057 0.507911 0)
(9.96795 -0.0623403 0)
(9.93028 0.0297349 0)
(9.95478 0.103304 0)
(10.0435 0.0704979 0)
(10.1288 0.0256268 0)
(10.1677 0.0469775 0)
(10.1674 0.127829 0)
(10.1408 0.21499 0)
(10.1017 0.262831 0)
(10.0677 0.25983 0)
(10.0462 0.223175 0)
(10.0311 0.180785 0)
(10.0145 0.158087 0)
(9.99326 0.170139 0)
(9.96923 0.220447 0)
(9.94608 0.300548 0)
(9.92407 0.399043 0)
(9.9091 0.502489 0)
(9.88796 -0.0349106 0)
(9.91607 -0.0736433 0)
(10.0277 -0.125001 0)
(10.1346 -0.136469 0)
(10.1459 -0.093207 0)
(10.0839 0.0024297 0)
(10.027 0.11512 0)
(10.011 0.193156 0)
(10.0338 0.215455 0)
(10.0796 0.20223 0)
(10.1255 0.188265 0)
(10.1463 0.198718 0)
(10.1307 0.239565 0)
(10.0823 0.305223 0)
(10.0164 0.381707 0)
(9.94886 0.45942 0)
(9.89346 0.52933 0)
(9.85724 0.590405 0)
(10.2907 0.0122305 0)
(10.3127 -0.0869867 0)
(10.354 -0.0875321 0)
(10.3196 0.0118127 0)
(10.1908 0.122265 0)
(10.0693 0.196874 0)
(10.0126 0.221003 0)
(10.0034 0.198548 0)
(10.0116 0.152409 0)
(10.0225 0.116492 0)
(10.0299 0.117126 0)
(10.0344 0.162432 0)
(10.043 0.241982 0)
(10.0607 0.335582 0)
(10.0895 0.421713 0)
(10.1239 0.490154 0)
(10.1633 0.536851 0)
(10.1994 0.570828 0)
(9.9865 -0.0310186 0)
(10.0586 -0.134367 0)
(10.0503 -0.0807563 0)
(10.0678 0.0523153 0)
(10.1212 0.168069 0)
(10.1917 0.21604 0)
(10.2454 0.213291 0)
(10.2625 0.198444 0)
(10.2506 0.192875 0)
(10.2268 0.193789 0)
(10.2027 0.19162 0)
(10.1853 0.186602 0)
(10.1782 0.186977 0)
(10.1822 0.202081 0)
(10.1926 0.234865 0)
(10.2067 0.283978 0)
(10.2211 0.343569 0)
(10.2379 0.408484 0)
(10.1694 -0.0567106 0)
(10.1841 -0.0957758 0)
(10.1232 -0.117197 0)
(10.0301 -0.0796464 0)
(10.0073 -0.018338 0)
(10.0568 0.0535601 0)
(10.1262 0.128162 0)
(10.1806 0.185846 0)
(10.2148 0.21118 0)
(10.2302 0.208117 0)
(10.2303 0.197976 0)
(10.2241 0.204205 0)
(10.2217 0.236997 0)
(10.2291 0.291999 0)
(10.2466 0.353878 0)
(10.2717 0.409492 0)
(10.3014 0.449152 0)
(10.3323 0.470712 0)
(10.044 -0.0264529 0)
(10.0735 -0.0347303 0)
(10.0129 0.0816045 0)
(10.0114 0.115567 0)
(10.056 0.06873 0)
(10.1039 0.0211262 0)
(10.1292 0.0177658 0)
(10.1334 0.061549 0)
(10.1306 0.125875 0)
(10.1241 0.17948 0)
(10.1105 0.205784 0)
(10.0931 0.206712 0)
(10.0825 0.195884 0)
(10.0888 0.189061 0)
(10.1169 0.197065 0)
(10.1635 0.222758 0)
(10.2233 0.263029 0)
(10.2866 0.313523 0)
(10.0438 -0.0347173 0)
(10.0018 -0.0358022 0)
(10.0819 -0.0439299 0)
(10.1778 -0.078051 0)
(10.2286 -0.0758594 0)
(10.2198 -0.00519806 0)
(10.1797 0.0938306 0)
(10.1494 0.174464 0)
(10.1525 0.219854 0)
(10.1862 0.238333 0)
(10.233 0.243264 0)
(10.2763 0.241536 0)
(10.3096 0.234347 0)
(10.3346 0.223015 0)
(10.3558 0.211393 0)
(10.3781 0.205981 0)
(10.4045 0.209932 0)
(10.4368 0.228247 0)
(10.0541 -0.0192743 0)
(10.0633 -0.0189819 0)
(10.0134 -0.0790425 0)
(9.92813 -0.0665847 0)
(9.84981 0.000166039 0)
(9.82743 0.0596902 0)
(9.86791 0.0846101 0)
(9.94463 0.0863207 0)
(10.029 0.0851539 0)
(10.103 0.0914724 0)
(10.1584 0.104255 0)
(10.1975 0.11794 0)
(10.2287 0.128604 0)
(10.2612 0.136488 0)
(10.2979 0.14499 0)
(10.3376 0.157781 0)
(10.3764 0.176293 0)
(10.4119 0.201318 0)
(10.0794 -0.0461588 0)
(10.0173 0.0230618 0)
(9.95283 0.0752022 0)
(9.94062 0.0511729 0)
(9.9895 0.0131623 0)
(10.0599 -0.000572301 0)
(10.1171 0.00779967 0)
(10.1455 0.0317563 0)
(10.1561 0.0678116 0)
(10.1724 0.10815 0)
(10.2059 0.141164 0)
(10.2508 0.156848 0)
(10.295 0.152104 0)
(10.3294 0.132697 0)
(10.3507 0.111536 0)
(10.3618 0.101109 0)
(10.3682 0.108377 0)
(10.3773 0.135618 0)
(9.74544 -0.0221582 0)
(9.82164 0.0555352 0)
(9.87767 -0.0411018 0)
(9.93413 -0.0786814 0)
(9.99514 -0.0697144 0)
(10.0552 -0.0394595 0)
(10.1102 0.00333823 0)
(10.1537 0.0380922 0)
(10.1855 0.0500075 0)
(10.2153 0.0441107 0)
(10.2518 0.0369489 0)
(10.2943 0.0411281 0)
(10.3372 0.0587729 0)
(10.3749 0.0851083 0)
(10.4056 0.113036 0)
(10.4313 0.137695 0)
(10.4564 0.156697 0)
(10.4871 0.170588 0)
(9.93428 -0.0499971 0)
(10.067 -0.0317782 0)
(10.1517 -0.0125147 0)
(10.1728 -0.022249 0)
(10.1433 -0.0537866 0)
(10.1184 -0.0705646 0)
(10.139 -0.0517958 0)
(10.1948 -0.0102297 0)
(10.2523 0.0306448 0)
(10.2893 0.0588764 0)
(10.3019 0.0731142 0)
(10.2974 0.0760944 0)
(10.2879 0.0721519 0)
(10.2846 0.0649214 0)
(10.2941 0.0575994 0)
(10.3194 0.0536428 0)
(10.3592 0.0545433 0)
(10.4144 0.0633425 0)
(10.1858 0.0335285 0)
(10.0887 -0.0660903 0)
(10.0704 -0.0892614 0)
(10.1106 -0.0567778 0)
(10.1101 -0.0418548 0)
(10.0605 -0.0496853 0)
(10.021 -0.0527037 0)
(10.0305 -0.03993 0)
(10.0864 -0.016124 0)
(10.1642 0.0112762 0)
(10.238 0.0366088 0)
(10.2942 0.0571847 0)
(10.3324 0.0722748 0)
(10.3595 0.0814625 0)
(10.3816 0.0833943 0)
(10.4032 0.0787973 0)
(10.4271 0.0687269 0)
(10.4561 0.0569926 0)
(10.2068 0.111224 0)
(10.2139 0.0436348 0)
(10.1532 -0.0436036 0)
(10.1472 -0.0468403 0)
(10.1433 -0.0237937 0)
(10.1099 -0.0167603 0)
(10.0605 -0.0276207 0)
(10.0199 -0.0414639 0)
(10.0091 -0.0423406 0)
(10.0384 -0.0274079 0)
(10.1026 -0.00475098 0)
(10.1875 0.0157522 0)
(10.2802 0.0285475 0)
(10.3719 0.03299 0)
(10.4573 0.0302359 0)
(10.5333 0.0235904 0)
(10.6011 0.0159081 0)
(10.6611 0.0109169 0)
(9.82401 -0.0312094 0)
(10.0584 -0.0165099 0)
(10.151 -0.0590459 0)
(10.1636 -0.0551373 0)
(10.2017 -0.0298133 0)
(10.2919 -0.0175522 0)
(10.373 -0.0186196 0)
(10.3897 -0.025941 0)
(10.3482 -0.0336818 0)
(10.2958 -0.0387851 0)
(10.2731 -0.0398766 0)
(10.2931 -0.0367383 0)
(10.3466 -0.0302183 0)
(10.4157 -0.0222978 0)
(10.4818 -0.0167126 0)
(10.5347 -0.0151728 0)
(10.5695 -0.0181833 0)
(10.592 -0.0231983 0)
(9.83977 0.0486627 0)
(9.89343 -0.0453375 0)
(9.70577 -0.0652449 0)
(9.47873 -0.0640455 0)
(9.28283 -0.0698605 0)
(9.12337 -0.0707932 0)
(8.99694 -0.0531058 0)
(8.90551 -0.02502 0)
(8.84627 -0.00372643 0)
(8.80324 0.000481532 0)
(8.75405 -0.0106432 0)
(8.68725 -0.0272593 0)
(8.60784 -0.0390027 0)
(8.53154 -0.0409949 0)
(8.46739 -0.035033 0)
(8.41875 -0.0262173 0)
(8.37897 -0.0193837 0)
(8.34318 -0.0173555 0)
(-0.219773 0.456293 -1.24269e-19)
(-0.545957 0.210797 1.23292e-19)
(-0.751226 0.0980197 0)
(-0.81509 -0.0880893 0)
(-0.666963 -0.247734 0)
(-0.341428 -0.458992 -1.19705e-19)
(0.165713 -0.601883 0)
(0.815419 -0.684735 0)
(1.50404 -0.707017 0)
(2.19408 -0.68459 0)
(2.86082 -0.628456 1.14566e-19)
(3.47928 -0.549395 0)
(4.02717 -0.456434 0)
(4.48922 -0.356716 0)
(4.85816 -0.254426 0)
(5.12796 -0.151933 1.10611e-19)
(5.29509 -0.0486646 0)
(5.35603 0.0567498 0)
(5.30694 0.167352 0)
(5.13845 0.285381 0)
(4.8632 0.402695 0)
(4.46092 0.517275 0)
(3.96148 0.61572 0)
(3.33368 0.705258 1.03853e-19)
(2.65074 0.748985 -1.03023e-19)
(1.8504 0.768208 1.02238e-19)
(1.08221 0.691532 1.01508e-19)
(0.222344 0.629458 0)
(-0.484202 -0.171559 0)
(-0.748962 -0.248914 -9.91105e-20)
(-1.15393 0.58884 -9.82164e-20)
(-1.70412 0.713428 0)
(-2.51366 0.656865 0)
(-3.2737 0.594618 -9.59995e-20)
(-3.66363 0.278796 0)
(-3.64816 -0.0651886 0)
(-3.26136 -0.459244 9.36362e-20)
(-2.47885 -0.869931 0)
(-1.2007 -1.25926 9.1914e-20)
(0.16856 -1.1748 1.8254e-19)
(1.32425 -0.609512 0)
(1.75093 -0.0547742 0)
(1.93098 0.00168215 0)
(1.48445 0.58455 0)
(1.30017 0.795467 0)
(1.45657 0.454935 1.73892e-19)
(1.21366 -1.14262 1.71959e-19)
(0.874874 -1.95434 1.70609e-19)
(0.582352 -0.724716 0)
(-0.957506 1.59109 -1.66255e-19)
(-3.27126 1.7205 0)
(-4.91778 1.37038 1.62234e-19)
(-6.35428 1.14491 1.61063e-19)
(-7.51763 0.918269 0)
(-8.48957 0.741585 0)
(-9.27805 0.591136 0)
(-9.92917 0.472721 1.5792e-19)
(-10.4556 0.375253 0)
(-10.8842 0.297093 0)
(-11.225 0.231997 0)
(-11.4931 0.177564 0)
(-11.6945 0.13042 0)
(-11.8373 0.0891539 0)
(-11.9251 0.0526709 0)
(-11.9625 0.0205913 0)
(-11.953 -0.0075454 -1.48209e-19)
(-11.9067 -0.0321295 0)
(-11.8225 -0.0536665 0)
(-11.707 -0.0721638 1.43717e-19)
(-11.5622 -0.0877639 1.42128e-19)
(-11.3939 -0.100284 0)
(-11.2058 -0.109751 -1.38866e-19)
(-11.0031 -0.11612 1.37212e-19)
(-10.7903 -0.11954 0)
(-10.5722 -0.120131 -1.33902e-19)
(-10.3533 -0.118158 0)
(-10.1377 -0.113903 0)
(-9.92922 -0.107708 1.29024e-19)
(-9.731 -0.0999431 0)
(-9.5457 -0.0910621 -1.25874e-19)
(-9.37515 -0.0815735 0)
(-9.22027 -0.0721026 1.2281e-19)
(-9.08077 -0.0633573 1.21305e-19)
(-8.95498 -0.0561429 1.19812e-19)
(-8.83944 -0.0513477 2.36648e-19)
(-8.7288 -0.0499187 -2.33666e-19)
(-8.61561 -0.0527943 0)
(-8.49047 -0.0607358 0)
(-8.34258 -0.074094 0)
(-8.16085 -0.0925651 -2.21279e-19)
(-7.93549 -0.11506 -2.17988e-19)
(-7.65966 -0.139772 2.1462e-19)
(-7.33081 -0.164395 0)
(-6.95133 -0.186561 -2.07754e-19)
(-6.52804 -0.204339 -2.04333e-19)
(-6.07078 -0.216647 -2.00972e-19)
(-5.5906 -0.22337 0)
(-5.09792 -0.225198 0)
(-4.6013 -0.223288 0)
(-4.10696 -0.218873 -1.88571e-19)
(-3.61902 -0.213006 0)
(-3.1399 -0.206491 0)
(-2.67057 -0.199942 1.8043e-19)
(-2.21109 -0.193669 0)
(-1.76132 -0.187634 0)
(-1.32098 -0.181585 1.73086e-19)
(-0.889575 -0.175746 0)
(-0.466892 -0.169716 0)
(-0.0547831 -0.164046 -1.66343e-19)
(0.347128 -0.158627 -1.64102e-19)
(0.741085 -0.152997 0)
(1.12656 -0.147361 1.59687e-19)
(1.50322 -0.141593 0)
(1.87044 -0.135449 -1.55473e-19)
(2.22693 -0.128632 0)
(2.57059 -0.120876 -1.51431e-19)
(2.89862 -0.11204 -1.4947e-19)
(3.20794 -0.102116 0)
(3.49551 -0.0912577 0)
(3.7588 -0.0797041 0)
(3.99565 -0.0675508 0)
(4.20389 -0.0550601 0)
(4.38161 -0.0423444 0)
(4.52621 -0.028952 0)
(4.63527 -0.0155268 -1.34807e-19)
(4.70975 -0.00291198 1.33056e-19)
(4.75066 0.0101116 0)
(4.75693 0.0222789 0)
(4.73544 0.0292632 0)
(4.69585 0.0309058 0)
(4.64726 0.0293169 2.48845e-19)
(4.59684 0.0263052 0)
(4.54894 0.0231382 -2.4202e-19)
(4.50532 0.0209639 2.38621e-19)
(4.46537 0.0207334 0)
(4.42659 0.0227428 0)
(4.38572 0.0262712 0)
(4.34025 0.0298608 -2.25128e-19)
(4.28948 0.0320541 -2.21791e-19)
(4.2347 0.032082 0)
(4.17848 0.030074 -2.15166e-19)
(4.12351 0.0268257 -2.11877e-19)
(4.07165 0.0234613 2.08604e-19)
(4.02345 0.0210361 0)
(3.97812 0.0201753 0)
(3.93394 0.0209711 1.98874e-19)
(3.88877 0.0231269 0)
(3.84059 0.0261988 0)
(3.78766 0.029831 0)
(3.72848 0.033812 0)
(3.66183 0.0378987 -1.8301e-19)
(3.58704 0.041576 -1.79895e-19)
(3.50453 0.0440078 0)
(3.41621 0.0443423 -1.73724e-19)
(3.32539 0.042221 0)
(3.23611 0.0379557 0)
(3.15217 0.0323514 -1.64602e-19)
(3.07624 0.0263761 0)
(3.00946 0.0208126 -1.58592e-19)
(2.95172 0.0160975 0)
(2.90205 0.0123483 0)
(2.85933 0.00948416 -1.49676e-19)
(2.82222 0.00735797 0)
(2.7899 0.00583007 -1.43803e-19)
(2.76113 0.00481068 0)
(2.73552 0.00421705 0)
(2.71163 0.00401842 0)
(2.68959 0.0041105 1.32233e-19)
(2.66732 0.00454125 0)
(2.64566 0.0051131 -1.26537e-19)
(2.62167 0.00613564 0)
(2.59659 0.00708719 0)
(2.56731 0.00906249 0)
(2.53237 0.0103544 0)
(2.49425 0.0146003 0)
(2.43422 0.01601 0)
(2.38735 0.0264415 0)
(2.2578 0.0262466 2.08695e-19)
(2.22543 0.0560115 0)
(1.87744 0.0449866 0)
(0.0292529 1.00783 3.72898e-19)
(0.0298844 0.819139 -3.70361e-19)
(0.0464933 0.406526 0)
(0.272099 -0.0653448 2.4321e-19)
(0.799313 -0.71941 0)
(1.48683 -1.32071 1.19077e-19)
(2.2307 -1.75085 -2.36107e-19)
(2.97089 -1.9998 -2.339e-19)
(3.66107 -2.08199 0)
(4.29332 -2.03362 -2.30088e-19)
(4.86365 -1.89078 -1.137e-19)
(5.36675 -1.68547 0)
(5.79952 -1.44179 0)
(6.15942 -1.17564 0)
(6.44853 -0.897408 0)
(6.66436 -0.612699 -1.10084e-19)
(6.81375 -0.325311 0)
(6.89039 -0.0362068 2.18155e-19)
(6.90626 0.251923 0)
(6.84441 0.541038 0)
(6.70724 0.827258 -2.12759e-19)
(6.48095 1.11343 0)
(6.18184 1.38654 2.08968e-19)
(5.77541 1.65052 -1.03044e-19)
(5.28857 1.87135 1.0215e-19)
(4.6582 2.05933 -1.01318e-19)
(3.94342 2.14023 -1.0057e-19)
(3.04853 2.16719 0)
(2.04521 1.98835 0)
(0.823586 1.57262 9.893e-20)
(-0.489437 1.13615 -9.86718e-20)
(-1.09781 1.42133 0)
(-1.861 1.67987 0)
(-2.33143 1.20525 9.6065e-20)
(-2.54544 0.393555 0)
(-2.5224 -0.509777 0)
(-2.26677 -1.50444 -9.37475e-20)
(-1.73754 -2.49603 0)
(-0.658404 -3.45598 9.25495e-20)
(0.109728 -3.1583 -1.82173e-19)
(0.878828 -1.89315 0)
(1.24229 -0.875856 0)
(1.38603 0.453827 -3.58932e-19)
(1.66904 0.310618 -3.55091e-19)
(0.573103 -1.13474 -3.52378e-19)
(0.430533 0.109613 1.74742e-19)
(-1.55483 1.808 -1.714e-19)
(-4.15248 2.86339 -5.08263e-19)
(-5.66225 3.34953 3.34799e-19)
(-6.68562 3.62981 1.6383e-19)
(-7.74959 3.20112 0)
(-8.44322 2.77931 -1.60657e-19)
(-9.13969 2.3149 1.6243e-19)
(-9.66517 1.9186 0)
(-10.1423 1.56459 0)
(-10.5244 1.27716 0)
(-10.8581 1.03358 -1.57491e-19)
(-11.1325 0.83473 0)
(-11.3658 0.665805 3.12965e-19)
(-11.5554 0.522901 0)
(-11.7079 0.39767 3.0913e-19)
(-11.8225 0.286826 0)
(-11.9014 0.186484 -3.04693e-19)
(-11.9446 0.095141 0)
(-11.9537 0.011463 2.99634e-19)
(-11.9297 -0.0648181 -1.48612e-19)
(-11.8676 -0.133619 0)
(-11.7738 -0.194802 -2.90835e-19)
(-11.6484 -0.247934 -1.43703e-19)
(-11.4968 -0.29272 -1.42109e-19)
(-11.3218 -0.328753 0)
(-11.1287 -0.355926 -1.39008e-19)
(-10.9217 -0.374235 -1.37186e-19)
(-10.7056 -0.383993 0)
(-10.485 -0.385661 1.33876e-19)
(-10.2643 -0.379954 -2.64513e-19)
(-10.0475 -0.367713 0)
(-9.83819 -0.349937 -1.29005e-19)
(-9.63939 -0.327744 0)
(-9.45362 -0.302424 3.77572e-19)
(-9.28264 -0.275466 0)
(-9.12728 -0.248624 -3.68409e-19)
(-8.98727 -0.223937 -1.21302e-19)
(-8.86091 -0.203731 1.19841e-19)
(-8.74488 -0.190595 2.36761e-19)
(-8.63389 -0.187281 -2.33842e-19)
(-8.52049 -0.196498 0)
(-8.39498 -0.220512 0)
(-8.24591 -0.260511 0)
(-8.06131 -0.315873 6.64174e-19)
(-7.8305 -0.383642 2.17949e-19)
(-7.54601 -0.458516 -2.14567e-19)
(-7.20524 -0.53341 0)
(-6.81128 -0.600831 -2.07995e-19)
(-6.37233 -0.654662 2.04252e-19)
(-5.89994 -0.691559 2.00889e-19)
(-5.40668 -0.711289 0)
(-4.90389 -0.716133 0)
(-4.40036 -0.709804 0)
(-3.90196 -0.696172 1.88501e-19)
(-3.41216 -0.678514 0)
(-2.93275 -0.659205 -3.66084e-19)
(-2.46413 -0.639962 -5.41235e-19)
(-2.0059 -0.621523 3.55812e-19)
(-1.55774 -0.603832 0)
(-1.11916 -0.58647 1.73148e-19)
(-0.689627 -0.569286 0)
(-0.269312 -0.551825 3.37128e-19)
(0.139646 -0.536554 -1.66364e-19)
(0.538136 -0.520582 -1.64083e-19)
(0.928609 -0.504904 0)
(1.31024 -0.489601 -4.7883e-19)
(1.6832 -0.474257 3.15001e-19)
(2.0474 -0.458094 1.55373e-19)
(2.40217 -0.44012 0)
(2.74621 -0.419412 1.51341e-19)
(3.07776 -0.395448 4.48224e-19)
(3.39467 -0.368275 0)
(3.69489 -0.338403 2.91207e-19)
(3.97657 -0.306449 2.87482e-19)
(4.23844 -0.272675 2.83808e-19)
(4.4799 -0.237031 0)
(4.69937 -0.199254 0)
(4.89392 -0.159369 0)
(5.05857 -0.119186 -1.34756e-19)
(5.18517 -0.0810022 -1.32976e-19)
(5.27032 -0.0452872 0)
(5.32131 -0.0132578 -2.59023e-19)
(5.3446 0.0125314 -2.55555e-19)
(5.34595 0.0301415 0)
(5.33032 0.0394907 -2.48653e-19)
(5.30299 0.04211 -4.90486e-19)
(5.26991 0.040198 2.41825e-19)
(5.23709 0.0361184 2.38442e-19)
(5.20987 0.0320662 0)
(5.19193 0.0297277 0)
(5.18412 0.0298702 0)
(5.18403 0.0321995 2.24926e-19)
(5.18654 0.0356049 -2.21591e-19)
(5.18568 0.0387238 -4.36512e-19)
(5.17672 0.0405353 2.14941e-19)
(5.15767 0.0406296 -2.11654e-19)
(5.12952 0.0392103 -2.08375e-19)
(5.09539 0.0369327 0)
(5.05917 0.0346201 0)
(5.02433 0.0330023 1.98658e-19)
(4.99318 0.032545 0)
(4.96673 0.0334101 0)
(4.94514 0.0355624 -3.7817e-19)
(4.92807 0.0388708 0)
(4.91494 0.0430869 -1.82792e-19)
(4.90489 0.0477598 1.79664e-19)
(4.89663 0.0522256 0)
(4.88876 0.0556964 -1.73483e-19)
(4.88004 0.0573484 0)
(4.86962 0.0566738 0)
(4.85727 0.0537957 1.64339e-19)
(4.84324 0.0493809 -3.22649e-19)
(4.82795 0.0442758 1.58328e-19)
(4.81173 0.0391729 0)
(4.79471 0.0344858 0)
(4.77693 0.030361 -1.49417e-19)
(4.75837 0.0268084 0)
(4.73917 0.0237504 -1.43555e-19)
(4.71941 0.0211805 0)
(4.69944 0.0190101 0)
(4.67934 0.0173676 0)
(4.65946 0.0160619 -1.32012e-19)
(4.63978 0.0154954 0)
(4.62029 0.0150948 1.26329e-19)
(4.60117 0.0160022 0)
(4.58096 0.0165628 0)
(4.56173 0.0199406 -2.35827e-19)
(4.53677 0.0214316 2.30274e-19)
(4.51646 0.0297793 0)
(4.47608 0.0318299 0)
(4.45602 0.0516033 0)
(4.3722 0.0531101 -6.25066e-19)
(4.36509 0.101953 0)
(4.16266 0.102329 3.95399e-19)
(0.0868426 0.533558 7.02791e-23)
(0.20661 0.364607 4.93583e-19)
(0.624156 -0.32532 0)
(1.48115 -1.46535 -4.83803e-19)
(2.42022 -2.49157 0)
(3.28047 -3.19216 0)
(4.0072 -3.55508 -9.19849e-22)
(4.59807 -3.64108 2.32322e-19)
(5.07583 -3.52366 2.31871e-19)
(5.47027 -3.27335 2.28983e-19)
(5.80113 -2.94416 0)
(6.08202 -2.57305 0)
(6.32215 -2.18246 -2.26413e-19)
(6.52682 -1.78414 -4.502e-19)
(6.69704 -1.3839 4.47518e-19)
(6.83126 -0.983587 0)
(6.92663 -0.584451 4.41892e-19)
(6.97986 -0.186349 -2.18083e-19)
(6.99072 0.207468 0)
(6.9613 0.597911 4.31638e-19)
(6.89436 0.986112 2.12533e-19)
(6.78628 1.37627 -4.23887e-19)
(6.63652 1.76459 -2.08541e-19)
(6.43783 2.15233 0)
(6.18667 2.5251 4.11949e-19)
(5.86776 2.87966 4.0804e-19)
(5.46247 3.18314 0)
(4.9576 3.42143 4.0076e-19)
(4.30137 3.55573 0)
(3.53273 3.56416 3.9488e-19)
(2.46163 3.32036 1.95491e-19)
(1.44368 2.89232 0)
(0.562963 2.45203 0)
(0.0436799 1.78731 0)
(-0.304258 0.763805 0)
(-0.669155 -0.441866 0)
(-0.54101 -1.81269 0)
(-0.474273 -3.16664 3.72724e-19)
(0.224888 -4.43076 -5.52758e-19)
(0.204307 -3.8102 0)
(0.23156 -2.26827 0)
(-0.460508 -1.28093 0)
(-1.03989 -0.126287 -1.88778e-22)
(-1.68342 1.74398 3.53925e-19)
(-3.88805 2.63723 6.99392e-19)
(-4.887 3.51919 -6.89583e-19)
(-6.31802 4.22314 -3.40502e-19)
(-7.35149 4.39354 3.3552e-19)
(-8.04557 4.51065 1.29688e-21)
(-8.47475 4.36512 3.30722e-19)
(-8.77055 3.90113 0)
(-8.99204 3.41173 3.26342e-19)
(-9.24717 2.8779 2.67903e-21)
(-9.4919 2.41891 0)
(-9.76057 2.00564 0)
(-10.0195 1.66611 -3.19563e-19)
(-10.2729 1.37356 0)
(-10.5065 1.12927 0)
(-10.7177 0.91614 3.15407e-19)
(-10.901 0.729983 6.24755e-19)
(-11.0534 0.561693 -3.09439e-19)
(-11.1727 0.407892 0)
(-11.2568 0.264516 3.0503e-19)
(-11.3051 0.129885 0)
(-11.3167 0.00278143 3.01287e-19)
(-11.292 -0.116415 2.97146e-19)
(-11.2316 -0.226256 -5.89471e-19)
(-11.1382 -0.325317 -2.92105e-19)
(-11.0143 -0.412148 0)
(-10.8636 -0.485551 5.70153e-19)
(-10.6901 -0.544682 0)
(-10.4984 -0.589086 8.34692e-19)
(-10.2931 -0.618776 5.49814e-19)
(-10.0791 -0.634159 5.43e-19)
(-9.86093 -0.636065 -5.36227e-19)
(-9.6431 -0.625643 7.94215e-19)
(-9.42969 -0.604319 0)
(-9.22441 -0.573739 0)
(-9.0305 -0.535774 -5.10015e-19)
(-8.85069 -0.492522 -7.55629e-19)
(-8.68703 -0.446407 0)
(-8.54075 -0.400263 2.45779e-19)
(-8.4119 -0.357411 0)
(-8.29912 -0.321695 -7.19556e-19)
(-8.19927 -0.29747 1.70553e-22)
(-8.10701 -0.289507 -2.69587e-22)
(-8.01447 -0.302696 4.62227e-19)
(-7.91092 -0.341469 0)
(-7.78309 -0.408679 -4.50123e-19)
(-7.61651 -0.503998 6.78715e-22)
(-7.39777 -0.622584 0)
(-7.11723 -0.754809 0)
(-6.77157 -0.887238 0)
(-6.36535 -1.00548 4.15681e-19)
(-5.91024 -1.09797 0)
(-5.42206 -1.15886 0)
(-4.91699 -1.18849 0)
(-4.40858 -1.19186 0)
(-3.90608 -1.17633 0)
(-3.41448 -1.14915 3.77291e-19)
(-2.93573 -1.11627 0)
(-2.47026 -1.08158 3.66078e-19)
(-2.0169 -1.04789 3.60853e-19)
(-1.57418 -1.01595 -3.55801e-19)
(-1.14156 -0.984926 0)
(-0.718082 -0.954761 -3.46172e-19)
(-0.30331 -0.924238 0)
(0.10092 -0.895141 -3.36963e-19)
(0.493968 -0.867245 3.32304e-19)
(0.877127 -0.838791 9.83557e-19)
(1.25021 -0.811474 0)
(1.61305 -0.785332 9.57235e-19)
(1.96525 -0.759809 3.15056e-19)
(2.30572 -0.733831 0)
(2.63237 -0.706005 6.13359e-19)
(2.94263 -0.674961 6.05384e-19)
(3.23454 -0.63969 -8.96231e-19)
(3.50784 -0.599885 0)
(3.764 -0.55615 -2.91084e-19)
(4.00514 -0.509776 -2.87383e-19)
(4.23271 -0.46206 -8.51342e-19)
(4.4477 -0.413104 0)
(4.6519 -0.361092 0)
(4.8478 -0.30296 0)
(5.03575 -0.236121 -2.69535e-19)
(5.20835 -0.162224 0)
(5.34818 -0.0900499 0)
(5.43799 -0.0300697 2.58981e-19)
(5.47352 0.0138095 2.55519e-19)
(5.46514 0.0427367 0)
(5.43083 0.0596956 0)
(5.38624 0.0673534 4.90414e-19)
(5.34038 0.0671496 0)
(5.29746 0.0605624 -4.76814e-19)
(5.26042 0.050124 -4.70069e-19)
(5.2331 0.0392165 0)
(5.2199 0.0311393 0)
(5.22335 0.0281397 4.49861e-19)
(5.24111 0.0308621 -1.55169e-23)
(5.26502 0.0381714 -1.30917e-23)
(5.28356 0.047501 0)
(5.28686 0.0559186 8.4648e-19)
(5.27113 0.0613753 0)
(5.23941 0.0632952 0)
(5.1987 0.0623141 0)
(5.15618 0.0596307 -3.97241e-19)
(5.11694 0.0564277 0)
(5.08358 0.0535384 7.6893e-19)
(5.05699 0.0513798 3.78116e-19)
(5.0374 0.0501098 0)
(5.025 0.0497996 3.65531e-19)
(5.01991 0.0504048 0)
(5.02179 0.0516224 0)
(5.02945 0.0528081 1.04074e-18)
(5.04091 0.0529978 -6.81555e-19)
(5.05395 0.0514429 0)
(5.06664 0.0481451 -6.57212e-19)
(5.0777 0.0436898 3.22575e-19)
(5.08635 0.0389298 0)
(5.09218 0.0345891 0)
(5.09502 0.0310648 0)
(5.09478 0.0283945 8.96229e-19)
(5.09159 0.0264453 0)
(5.08564 0.0249655 2.87017e-19)
(5.07739 0.0238525 0)
(5.06709 0.022905 0)
(5.05539 0.022278 0)
(5.04227 0.0216865 0)
(5.02863 0.0216754 0)
(5.01378 0.0215135 0)
(4.99946 0.0226694 4.93866e-19)
(4.98342 0.0232017 0)
(4.96958 0.0269186 2.35741e-19)
(4.95173 0.028646 -6.90581e-19)
(4.93929 0.0380164 0)
(4.91641 0.0416594 0)
(4.90637 0.0636759 4.27428e-19)
(4.87057 0.0710281 4.16542e-19)
(4.86622 0.122252 -4.05802e-19)
(4.8061 0.142083 -3.95187e-19)
(-0.161262 0.236037 -7.46563e-19)
(0.320998 -0.455464 -7.39686e-19)
(1.5708 -2.4245 -4.87388e-19)
(2.68449 -3.85479 -2.41723e-19)
(3.54118 -4.60537 0)
(4.12912 -4.82358 4.74535e-19)
(4.49305 -4.69129 -2.37026e-19)
(4.7075 -4.36033 0)
(4.84648 -3.93895 -2.31876e-19)
(4.96311 -3.49303 0)
(5.08537 -3.05287 4.61585e-19)
(5.22168 -2.62605 0)
(5.36917 -2.20905 2.26913e-19)
(5.51934 -1.79549 4.51271e-19)
(5.66214 -1.38108 -4.48639e-19)
(5.78776 -0.963607 0)
(5.88824 -0.54291 -4.43068e-19)
(5.95506 -0.117963 0)
(5.98435 0.310417 0)
(5.98423 0.742087 -4.32372e-19)
(5.96064 1.17386 0)
(5.92153 1.6025 -2.70017e-21)
(5.86627 2.02654 0)
(5.80493 2.44985 0)
(5.72621 2.87344 2.85719e-21)
(5.64344 3.29536 -4.07958e-19)
(5.51885 3.7067 -4.06727e-19)
(5.37405 4.08493 -3.99935e-19)
(5.12532 4.40314 0)
(4.82769 4.61457 -7.88142e-19)
(4.35137 4.67757 0)
(3.75255 4.43525 -3.89099e-19)
(3.04666 3.90935 0)
(2.39031 3.01011 0)
(1.8046 1.73648 3.81896e-19)
(1.16762 0.157593 0)
(0.790921 -1.59677 -3.75034e-19)
(0.317463 -3.23361 -2.49323e-21)
(0.0816208 -4.22025 7.34708e-19)
(-1.02995 -2.69184 -7.27522e-19)
(-2.24329 -0.371082 0)
(-3.62005 1.45507 0)
(-4.6843 2.44729 -3.52959e-19)
(-5.47011 3.58095 0)
(-6.64567 4.25105 -3.46653e-19)
(-7.25037 4.84578 3.42811e-19)
(-7.94339 5.12909 3.38833e-19)
(-8.19655 5.06172 0)
(-8.4258 4.91192 -3.33012e-19)
(-8.5015 4.55073 -3.30558e-19)
(-8.60767 4.10885 6.61175e-19)
(-8.71285 3.63316 -3.26404e-19)
(-8.86 3.15821 -3.24626e-19)
(-9.02508 2.72341 0)
(-9.21625 2.32637 0)
(-9.41579 1.98005 3.19779e-19)
(-9.6197 1.67283 0)
(-9.81861 1.40351 0)
(-10.0062 1.16071 -6.29257e-19)
(-10.1767 0.93959 -6.25413e-19)
(-10.3238 0.732728 0)
(-10.4438 0.53673 0)
(-10.5318 0.348733 0)
(-10.5855 0.168236 0)
(-10.6024 -0.00448281 -6.02062e-19)
(-10.5813 -0.167889 5.9779e-19)
(-10.5229 -0.319739 5.90148e-19)
(-10.4295 -0.457582 1.16898e-18)
(-10.3043 -0.57902 0)
(-10.1515 -0.682025 9.97583e-22)
(-9.976 -0.76512 0)
(-9.78295 -0.827516 -5.57134e-19)
(-9.57759 -0.869156 5.42581e-22)
(-9.36497 -0.890612 -5.43461e-19)
(-9.1498 -0.89303 5.36675e-19)
(-8.93634 -0.877986 1.85231e-22)
(-8.72839 -0.847417 0)
(-8.5294 -0.803528 5.16866e-19)
(-8.34247 -0.748814 5.10438e-19)
(-8.17037 -0.686114 1.00829e-18)
(-8.0155 -0.618747 0)
(-7.87955 -0.550692 -4.91953e-19)
(-7.76319 -0.486716 0)
(-7.6656 -0.432433 9.60397e-19)
(-7.58405 -0.394361 -4.74304e-19)
(-7.51333 -0.379875 4.68466e-19)
(-7.4451 -0.396824 -4.62575e-19)
(-7.36728 -0.452645 -9.14495e-19)
(-7.26377 -0.552488 4.5039e-19)
(-7.11588 -0.696281 -4.4398e-19)
(-6.90551 -0.876403 0)
(-6.61912 -1.07716 8.62748e-19)
(-6.25201 -1.27636 0)
(-5.81157 -1.45013 8.33889e-19)
(-5.31642 -1.57999 -8.19474e-19)
(-4.79104 -1.65801 -8.05456e-19)
(-4.25883 -1.68744 7.92007e-19)
(-3.73738 -1.67868 7.79185e-19)