/*--------------------------------*- C++ -*----------------------------------*\
| =========                 |                                                 |
| \\      /  F ield         | OpenFOAM: The Open Source CFD Toolbox           |
|  \\    /   O peration     | Version:  2112                                  |
|   \\  /    A nd           | Website:  www.openfoam.com                      |
|    \\/     M anipulation  |                                                 |
\*---------------------------------------------------------------------------*/
FoamFile
{
    version     2.0;
    format      ascii;
    arch        "LSB;label=32;scalar=64";
    class       volScalarField;
    location    "0.03";
    object      pMean;
}
// * * * * * * * * * * * * * * * * * * * * * * * * * * * * * * * * * * * * * //

dimensions      [0 2 -2 0 0 0 0];

internalField   nonuniform List<scalar> 
12225
(
27.3605
26.2662
25.6381
25.2899
25.0006
24.7044
24.4035
24.1099
23.8294
23.5599
23.2982
23.0375
22.7743
22.4921
22.1833
21.7676
21.2162
19.9963
27.1284
26.2365
25.6377
25.2811
24.9902
24.6962
24.3964
24.1033
23.822
23.5528
23.2892
23.0299
22.7613
22.4866
22.1594
21.7964
21.2244
20.5662
27.0434
26.2299
25.6474
25.2788
24.983
24.6904
24.3925
24.0993
23.8181
23.5476
23.2843
23.0214
22.7547
22.4705
22.1581
21.7821
21.312
20.7155
26.878
26.182
25.6417
25.269
24.9684
24.678
24.3828
24.091
23.8094
23.539
23.2741
23.0117
22.7416
22.4606
22.1473
21.7932
21.3667
20.8693
26.767
26.1459
25.6424
25.2695
24.9621
24.6706
24.3774
24.0866
23.8049
23.5336
23.2685
23.0047
22.7356
22.4548
22.1504
21.8141
21.434
21.0245
26.7035
26.0951
25.6203
25.2573
24.9476
24.6556
24.365
24.0767
23.7962
23.525
23.26
22.9965
22.7288
22.4514
22.1574
21.8415
21.5037
21.1544
26.6167
26.0497
25.6081
25.2553
24.9426
24.6472
24.357
24.0702
23.7906
23.5195
23.2546
22.9916
22.7261
22.4539
22.171
21.8757
21.5711
21.2663
26.5321
25.9913
25.5738
25.236
24.9269
24.6316
24.3427
24.0587
23.7814
23.5117
23.2478
22.9864
22.7243
22.4584
22.1871
21.9104
21.6322
21.3603
26.5047
25.9557
25.5525
25.2278
24.9221
24.6242
24.3339
24.0509
23.7751
23.5063
23.2434
22.984
22.7257
22.4665
22.2059
21.9448
21.6871
21.4386
26.4518
25.8959
25.5087
25.2018
24.9034
24.6075
24.3189
24.0383
23.7652
23.4989
23.2381
22.9814
22.7274
22.475
22.2242
21.9763
21.7345
21.5032
26.3855
25.8608
25.4875
25.1873
24.8938
24.5996
24.3106
24.0305
23.7589
23.4943
23.2357
22.9819
22.7321
22.4858
22.2435
22.0063
21.7764
21.5568
26.2619
25.8
25.4536
25.162
24.8737
24.5828
24.2965
24.0188
23.7497
23.488
23.2323
22.9818
22.736
22.4951
22.2594
22.0299
21.8083
21.5964
26.2752
25.7813
25.4279
25.1443
24.8636
24.5762
24.2904
24.013
23.7451
23.4853
23.232
22.9844
22.7423
22.506
22.2757
22.0523
21.8366
21.6298
26.2375
25.7262
25.3819
25.113
24.8409
24.5577
24.275
24.0007
23.7362
23.4798
23.2299
22.986
22.748
22.5163
22.2912
22.0731
21.8623
21.6594
26.183
25.691
25.3541
25.0909
24.8255
24.5466
24.2657
23.9927
23.73
23.4763
23.2298
22.9895
22.7555
22.5282
22.3076
22.0936
21.8865
21.686
26.0875
25.6284
25.3144
25.0599
24.7979
24.5243
24.2501
23.9829
23.7248
23.4747
23.2316
22.9951
22.7651
22.5416
22.3246
22.1139
21.9093
21.7102
26.0939
25.6125
25.2896
25.0379
24.7821
24.5125
24.2401
23.9744
23.7186
23.4719
23.2326
22.9999
22.7736
22.5536
22.3398
22.1318
21.9293
21.7318
26.0666
25.5923
25.2681
25.0172
24.765
24.5
24.2328
23.9718
23.7198
23.4765
23.2407
23.0114
22.7884
22.5714
22.3605
22.1551
21.955
21.7598
26.0344
25.5413
25.2237
24.9871
24.7467
24.4901
24.2272
23.9686
23.7194
23.4797
23.2479
23.0227
22.8036
22.5906
22.3836
22.1823
21.9864
21.7953
26.2034
25.6723
25.3127
25.0463
24.7879
24.5212
24.2543
23.9951
23.7464
23.5074
23.2765
23.0528
22.8359
22.6257
22.4222
22.2249
22.0337
21.8484
25.9375
25.5399
25.2653
25.0272
24.7734
24.5085
24.2456
23.9916
23.7473
23.5114
23.2829
23.0617
22.8477
22.6407
22.4406
22.2471
22.0597
21.8781
26.1102
25.6614
25.3454
25.0864
24.8208
24.5464
24.2765
24.0182
23.7717
23.5347
23.3059
23.0849
22.8718
22.6662
22.468
22.2768
22.0922
21.9143
26.2074
25.6865
25.3349
25.0691
24.8092
24.5411
24.2747
24.0178
23.7725
23.5369
23.3099
23.0909
22.8798
22.6765
22.4808
22.2924
22.111
21.9362
26.2867
25.7726
25.4104
25.1242
24.8476
24.5717
24.3022
24.0434
23.7954
23.5576
23.3293
23.1099
22.8992
22.6967
22.502
22.3148
22.1349
21.9621
26.2935
25.7925
25.4199
25.1193
24.8386
24.5668
24.3018
24.0441
23.796
23.5584
23.3311
23.1133
22.9041
22.7031
22.5099
22.3244
22.1465
21.9758
26.4302
25.8895
25.4741
25.151
24.8645
24.5911
24.3237
24.0628
23.8118
23.5725
23.3444
23.1264
22.9172
22.7164
22.5236
22.3388
22.1617
21.9919
26.494
25.9018
25.4616
25.1378
24.8584
24.5899
24.3232
24.0616
23.8104
23.5716
23.3446
23.1275
22.9193
22.7194
22.5276
22.3438
22.1679
21.9996
26.7049
25.9988
25.4925
25.1544
24.8775
24.6088
24.3384
24.0735
23.8207
23.5813
23.3539
23.1366
22.9282
22.7283
22.5368
22.3533
22.1777
22.0095
26.6828
25.9848
25.4786
25.1485
24.8778
24.6098
24.3381
24.0728
23.8203
23.5814
23.3543
23.1373
22.9292
22.7298
22.5386
22.3559
22.181
22.0141
26.9274
26.0315
25.4806
25.1561
24.888
24.618
24.3444
24.0782
23.8254
23.5864
23.3593
23.1422
22.9341
22.7346
22.5434
22.3608
22.1862
22.0204
16.4412
16.3999
16.3519
16.3259
16.3041
16.2522
16.1333
15.9238
15.623
15.2523
14.8449
14.442
14.0836
13.8025
13.6201
13.5443
13.5697
13.6784
13.8421
14.0274
14.1986
14.3268
14.3861
14.3812
14.3217
14.2552
14.1687
14.0569
13.918
13.7624
13.588
13.3364
12.8574
12.088
11.0894
9.92392
8.62938
7.24585
5.82227
4.39463
3.02155
1.75934
0.657454
-0.24621
-0.925018
-1.36251
-1.55188
-1.49531
-1.2026
-0.689676
0.0225302
0.910648
1.95
3.11584
4.38339
5.72899
7.13048
8.56804
10.0241
11.4841
12.9356
14.3686
15.7752
17.1493
18.4865
19.7842
21.0411
22.2568
23.4324
24.5695
25.6706
26.7386
27.7762
28.7863
29.7713
30.733
31.6718
32.5874
33.4779
34.3402
35.1698
35.9613
36.7085
37.4049
38.044
38.6199
39.1277
39.5634
39.9247
40.2104
40.421
40.5586
40.6275
40.6335
40.5836
40.4859
40.3486
40.1799
39.9875
39.7776
39.5558
39.3263
39.0929
38.8581
38.6241
38.3925
38.1644
37.9405
37.7213
37.5072
37.2983
37.0944
36.8956
36.7016
36.5122
36.3271
36.1461
35.9688
35.7951
35.6246
35.4572
35.2924
35.1302
34.9703
34.8124
34.6563
34.5018
34.3488
34.1969
34.0461
33.8962
33.747
33.5984
33.4503
33.3026
33.1553
33.0084
32.8619
32.7159
32.5703
32.425
32.2801
32.1353
31.9905
31.8456
31.7004
31.5548
31.4087
31.2621
31.1148
30.9668
30.8181
30.6687
30.5184
30.3674
30.2155
30.0628
29.9093
29.755
29.5999
29.4442
29.2878
29.1309
28.9736
28.8161
28.6587
28.5016
28.3454
28.1905
28.0379
27.8883
27.7439
27.6054
27.4776
27.3617
27.2684
27.2005
27.1837
27.2279
27.3863
16.1489
16.0971
16.0298
15.9848
15.95
15.8755
15.7255
15.4807
15.1472
14.7494
14.3233
13.909
13.5435
13.2565
13.0689
12.9917
13.0251
13.1578
13.365
13.6086
13.8466
14.0421
14.1734
14.2316
14.2122
14.0906
13.9335
13.7274
13.442
12.9874
12.5062
12.0446
11.4241
10.5798
9.52553
8.30588
6.98537
5.62003
4.24272
2.88387
1.59203
0.41832
-0.5911
-1.40008
-1.98338
-2.32693
-2.42659
-2.28673
-1.9181
-1.33631
-0.560536
0.386631
1.48046
2.69581
4.00831
5.39485
6.83365
8.30493
9.79104
11.277
12.7506
14.2022
15.6244
17.0112
18.3587
19.6644
20.9271
22.1466
23.3243
24.4621
25.5627
26.6292
27.6649
28.673
29.6562
30.6165
31.5548
32.4707
33.3624
34.2269
35.0596
35.855
36.6068
37.3082
37.9527
38.5341
39.0475
39.489
39.856
40.1474
40.3635
40.5062
40.5796
40.5896
40.5433
40.4488
40.3143
40.1484
39.9586
39.7512
39.5317
39.3045
39.0731
38.8402
38.608
38.3778
38.151
37.9283
37.7102
37.497
37.2889
37.0858
36.8876
36.6942
36.5054
36.3208
36.1403
35.9634
35.79
35.6199
35.4527
35.2882
35.1262
34.9665
34.8088
34.6529
34.4987
34.3458
34.1942
34.0436
33.8939
33.7449
33.5966
33.4487
33.3013
33.1543
33.0076
32.8614
32.7155
32.5701
32.425
32.2801
32.1354
31.9906
31.8457
31.7005
31.5549
31.4088
31.2621
31.1148
30.9668
30.8181
30.6686
30.5184
30.3673
30.2154
30.0627
29.9092
29.7548
29.5997
29.4439
29.2875
29.1305
28.9731
28.8155
28.6579
28.5007
28.3442
28.189
28.036
27.8859
27.7404
27.6012
27.4711
27.3538
27.2543
27.1824
27.1428
27.1567
27.1786
16.0783
16.0413
15.9359
15.7991
15.6276
15.4017
15.1043
14.7308
14.2929
13.8166
13.3375
12.893
12.5173
12.2383
12.0756
12.0373
12.1188
12.3026
12.5622
12.87
13.1951
13.5029
13.7533
13.903
13.9459
13.8292
13.5609
13.1457
12.6108
11.9554
11.1941
10.3521
9.39778
8.32235
7.16026
5.90828
4.58682
3.24139
1.91179
0.63316
-0.555445
-1.61377
-2.504
-3.19471
-3.66323
-3.89615
-3.88863
-3.64337
-3.17016
-2.48526
-1.6096
-0.567326
0.616194
1.91564
3.30625
4.76456
6.26854
7.79815
9.33612
10.8679
12.3816
13.8679
15.3197
16.7314
18.0993
19.4208
20.6952
21.9225
23.1046
24.2439
25.3437
26.4078
27.4401
28.4444
29.4241
30.3819
31.3191
32.2356
33.1298
33.9986
34.8375
35.6406
36.4014
37.1127
37.7675
38.3597
38.8839
39.3364
39.7147
40.0172
40.2439
40.3966
40.4792
40.4974
40.4584
40.3704
40.242
40.0819
39.8976
39.6954
39.4809
39.2584
39.0314
38.8025
38.5739
38.3471
38.1232
37.9032
37.6874
37.4764
37.2702
37.0689
36.8724
36.6804
36.4929
36.3094
36.1299
35.954
35.7815
35.6121
35.4456
35.2818
35.1204
34.9612
34.804
34.6486
34.4948
34.3423
34.1911
34.0409
33.8916
33.743
33.5951
33.4476
33.3007
33.1541
33.0078
32.862
32.7164
32.5712
32.4262
32.2814
32.1366
31.9918
31.8467
31.7014
31.5557
31.4095
31.2627
31.1153
30.9673
30.8185
30.669
30.5187
30.3675
30.2156
30.0628
29.9092
29.7548
29.5996
29.4437
29.2871
29.13
28.9724
28.8146
28.6567
28.4991
28.3422
28.1864
28.0325
27.8815
27.7344
27.5933
27.4598
27.3385
27.2306
27.1463
27.0799
27.0486
26.9925
15.994
15.943
15.7659
15.4927
15.1427
14.7283
14.2555
13.7351
13.1864
12.6348
12.1095
11.642
11.2629
10.9987
10.8711
10.8892
11.0423
11.3024
11.6348
12.0047
12.3776
12.7174
12.9877
13.1395
13.1096
12.8893
12.4795
11.8992
11.1635
10.2981
9.3194
8.23427
7.06617
5.82167
4.5175
3.17552
1.81575
0.465183
-0.844991
-2.0801
-3.20435
-4.18235
-4.98111
-5.57211
-5.93364
-6.05204
-5.92108
-5.54388
-4.93289
-4.10826
-3.09455
-1.91868
-0.608014
0.810427
2.31107
3.87017
5.46591
7.07872
8.69116
10.2886
11.8597
13.3955
14.8896
16.3369
17.7338
19.0782
20.3694
21.6082
22.7968
23.9385
25.0373
26.0978
27.1248
28.1232
29.0972
30.0505
30.9852
31.9016
32.7986
33.673
34.5203
35.3343
36.1076
36.8326
37.5015
38.1078
38.6465
39.1139
39.5073
39.825
40.0667
40.2337
40.3296
40.36
40.3319
40.2538
40.1348
39.9835
39.8075
39.6134
39.4065
39.1912
38.9707
38.748
38.5249
38.303
38.0836
37.8675
37.6553
37.4474
37.244
37.0451
36.8508
36.6609
36.4752
36.2934
36.1153
35.9408
35.7695
35.6012
35.4357
35.2728
35.1122
34.9537
34.7972
34.6424
34.4891
34.3372
34.1864
34.0367
33.8878
33.7397
33.5922
33.4452
33.2987
33.1525
33.0066
32.8611
32.7158
32.5708
32.426
32.2812
32.1365
31.9917
31.8467
31.7014
31.5556
31.4094
31.2627
31.1153
30.9672
30.8184
30.6689
30.5185
30.3674
30.2154
30.0626
29.9089
29.7544
29.5992
29.4432
29.2865
29.1292
28.9714
28.8133
28.6551
28.4971
28.3395
28.1831
28.0282
27.8758
27.7269
27.5833
27.4461
27.3192
27.2025
27.1034
27.0136
26.9408
26.8299
15.8062
15.6709
15.3619
14.9398
14.4399
13.8807
13.2778
12.6502
12.0176
11.4017
10.8307
10.3395
9.96217
9.72827
9.65671
9.74485
9.96894
10.2918
10.6694
11.0596
11.4238
11.7256
11.9208
11.964
11.8164
11.4515
10.8704
10.0997
9.17406
8.12311
6.97174
5.73014
4.41006
3.0333
1.62079
0.193595
-1.22625
-2.61359
-3.93975
-5.17172
-6.27458
-7.21387
-7.95553
-8.46979
-8.73241
-8.72788
-8.4523
-7.9132
-7.13022
-6.12976
-4.94169
-3.59738
-2.12796
-0.562434
1.07328
2.75606
4.46528
6.18161
7.88749
9.56793
11.2113
12.8096
14.3568
15.8489
17.2828
18.6563
19.9691
21.2224
22.4192
23.5639
24.6615
25.7176
26.7381
27.7289
28.6954
29.6423
30.5727
31.4879
32.3871
33.2677
34.1246
34.9514
35.7399
36.4811
37.1668
37.7901
38.346
38.8307
39.2417
39.5773
39.8371
40.0217
40.1341
40.1796
40.165
40.0997
39.9927
39.853
39.6882
39.5049
39.3082
39.1023
38.8906
38.6758
38.4599
38.2445
38.031
37.8201
37.6125
37.4087
37.209
37.0134
36.822
36.6348
36.4514
36.2719
36.0958
35.9231
35.7534
35.5866
35.4224
35.2607
35.1012
34.9437
34.7881
34.6341
34.4817
34.3305
34.1804
34.0313
33.8831
33.7355
33.5886
33.4421
33.2961
33.1504
33.005
32.8598
32.7149
32.5702
32.4256
32.2811
32.1365
31.9917
31.8468
31.7015
31.5557
31.4095
31.2627
31.1153
30.9672
30.8184
30.6689
30.5185
30.3673
30.2153
30.0624
29.9087
29.7541
29.5987
29.4426
29.2857
29.1282
28.9702
28.8118
28.6532
28.4946
28.3364
28.179
28.0229
27.8691
27.718
27.5715
27.43
27.2967
27.1708
27.0564
26.9449
26.8363
26.6869
15.3229
15.1003
14.6993
14.2025
13.6281
12.9915
12.3168
11.6269
10.9387
10.2723
9.66067
9.1453
8.76787
8.56099
8.53709
8.68197
8.95978
9.31921
9.70088
10.0557
10.3452
10.5327
10.5815
10.459
10.1358
9.59591
8.84845
7.92083
6.84219
5.64026
4.33818
2.95769
1.51907
0.0402075
-1.46263
-2.97141
-4.46476
-5.91747
-7.30016
-8.57826
-9.71233
-10.6591
-11.3774
-11.8322
-11.9983
-11.8625
-11.4264
-10.7048
-9.72201
-8.5109
-7.10993
-5.55898
-3.89546
-2.15227
-0.356572
1.46965
3.30782
5.14094
6.95253
8.72759
10.4545
12.1255
13.7361
15.2828
16.7626
18.1733
19.5141
20.7861
21.9933
23.1415
24.2378
25.289
26.3026
27.2854
28.2442
29.1845
30.1101
31.0229
31.923
32.8082
33.6737
34.5127
35.3161
36.0743
36.7782
37.4203
37.9952
38.4992
38.9298
39.2855
39.5654
39.7699
39.9008
39.9631
39.9641
39.9133
39.8204
39.6944
39.5432
39.373
39.1889
38.9948
38.7938
38.5887
38.3815
38.174
37.9674
37.7628
37.5609
37.3622
37.1669
36.9753
36.7875
36.6035
36.4231
36.2461
36.0725
35.9019
35.7343
35.5692
35.4067
35.2464
35.0883
34.932
34.7775
34.6245
34.4729
34.3225
34.1733
34.0249
33.8773
33.7304
33.5841
33.4382
33.2927
33.1475
33.0026
32.8579
32.7134
32.569
32.4246
32.2803
32.1358
31.9912
31.8463
31.701
31.5554
31.4092
31.2624
31.115
30.967
30.8181
30.6686
30.5182
30.367
30.2149
30.062
29.9082
29.7536
29.5981
29.4418
29.2848
29.127
28.9687
28.8099
28.6508
28.4917
28.3327
28.1743
28.0169
27.8613
27.7078
27.5579
27.4119
27.2718
27.1364
27.0072
26.8761
26.7382
26.5616
14.5683
14.3343
13.965
13.4877
12.9136
12.2687
11.584
10.8792
10.1659
9.4674
8.82841
8.30179
7.93093
7.74212
7.73756
7.8938
8.16433
8.48742
8.80043
9.05281
9.20587
9.2286
9.09319
8.77267
8.24937
7.52367
6.61149
5.5344
4.31761
2.9852
1.56156
0.0703791
-1.47026
-3.04775
-4.65079
-6.2657
-7.874
-9.45007
-10.9596
-12.3589
-13.5955
-14.6134
-15.3604
-15.7931
-15.884
-15.6235
-15.017
-14.083
-12.854
-11.3753
-9.69938
-7.87959
-5.96456
-3.99445
-1.99945
-0.000573219
1.98751
3.95266
5.88225
7.76295
9.58368
11.3378
13.0222
14.6341
16.171
17.6303
19.0103
20.3109
21.5355
22.691
23.7867
24.8328
25.8389
26.8139
27.7655
28.7002
29.622
30.5327
31.4325
32.3198
33.1908
34.0387
34.8547
35.6285
36.35
37.011
37.6053
38.1292
38.5805
38.9576
39.2587
39.484
39.6347
39.7154
39.7336
39.6991
39.622
39.5117
39.3759
39.2208
39.0511
38.8704
38.6818
38.4878
38.2907
38.0921
37.8936
37.6963
37.5008
37.3078
37.1177
36.9308
36.7471
36.5667
36.3897
36.2158
36.0449
35.8768
35.7114
35.5485
35.3879
35.2293
35.0727
34.9178
34.7646
34.6128
34.4623
34.313
34.1647
34.0172
33.8704
33.7243
33.5787
33.4335
33.2886
33.144
32.9996
32.8554
32.7113
32.5672
32.4232
32.279
32.1348
31.9903
31.8456
31.7004
31.5548
31.4087
31.262
31.1147
30.9666
30.8178
30.6682
30.5178
30.3666
30.2145
30.0615
29.9077
29.7529
29.5973
29.4409
29.2837
29.1257
28.9671
28.8079
28.6483
28.4884
28.3286
28.1691
28.0102
27.8526
27.6966
27.5431
27.3923
27.2452
27.1004
26.9574
26.809
26.6476
26.4503
13.967
13.7778
13.4726
13.0463
12.5153
11.9133
11.268
10.5909
9.88866
9.1903
8.55188
8.02776
7.65873
7.46007
7.42619
7.52635
7.70937
7.91421
8.0821
8.16682
8.13483
7.95851
7.61236
7.07711
6.34629
5.42845
4.34215
3.11021
1.75574
0.301595
-1.23078
-2.82611
-4.476
-6.1769
-7.92483
-9.7108
-11.5161
-13.3084
-15.0408
-16.6532
-18.0775
-19.2446
-20.0869
-20.5482
-20.5929
-20.2075
-19.4015
-18.2032
-16.6611
-14.8384
-12.8072
-10.6394
-8.39832
-6.13446
-3.88322
-1.66622
0.505699
2.62693
4.69176
6.69137
8.61657
10.4621
12.2269
13.9103
15.5107
17.0258
18.4537
19.7932
21.0463
22.2194
23.3224
24.3675
25.3673
26.3341
27.2786
28.2084
29.1276
30.0373
30.9371
31.8258
32.7002
33.5548
34.3808
35.1672
35.903
36.5801
37.1915
37.734
38.2048
38.6023
38.9246
39.1705
39.3416
39.4421
39.4794
39.4631
39.4036
39.3106
39.1917
39.0529
38.8988
38.7326
38.5574
38.3756
38.1894
38.0007
37.811
37.6216
37.4333
37.2468
37.0624
36.8806
36.7015
36.5253
36.352
36.1815
36.0137
35.8485
35.6857
35.5251
35.3666
35.21
35.0552
34.902
34.7502
34.5998
34.4505
34.3023
34.155
34.0085
33.8627
33.7174
33.5725
33.428
33.2838
33.1398
32.996
32.8523
32.7086
32.565
32.4213
32.2774
32.1334
31.9892
31.8445
31.6995
31.554
31.408
31.2614
31.1141
30.9661
30.8173
30.6677
30.5174
30.3661
30.214
30.061
29.907
29.7522
29.5965
29.4399
29.2824
29.1242
28.9652
28.8056
28.6454
28.4848
28.3241
28.1634
28.0029
27.8432
27.6845
27.5273
27.3716
27.2175
27.0637
26.9081
26.7445
26.5645
26.3507
13.7158
13.5708
13.3206
12.9575
12.4983
11.974
11.4063
10.8001
10.1563
9.50372
8.90171
8.3978
8.01937
7.77513
7.65372
7.62447
7.64262
7.65633
7.61654
7.48374
7.22641
6.81736
6.235
5.46792
4.51746
3.39721
2.129
0.736929
-0.75632
-2.33073
-3.97552
-5.69099
-7.4842
-9.36288
-11.3297
-13.376
-15.4765
-17.5865
-19.642
-21.5645
-23.268
-24.6601
-25.6505
-26.1666
-26.1655
-25.6356
-24.5924
-23.0767
-21.1542
-18.911
-16.4427
-13.8443
-11.1986
-8.57001
-6.00068
-3.5134
-1.1161
1.19175
3.41259
5.54466
7.58257
9.524
11.3716
13.1278
14.7939
16.3679
17.8472
19.2306
20.5194
21.7188
22.8383
23.8906
24.8899
25.8522
26.7915
27.718
28.6367
29.5473
30.4486
31.3396
32.2181
33.0787
33.9122
34.7071
35.4531
36.1418
36.7671
37.3255
37.8136
38.2296
38.5712
38.8371
39.0284
39.1494
39.2073
39.211
39.1708
39.0961
38.9948
38.873
38.7349
38.5838
38.4224
38.2532
38.0786
37.9003
37.7201
37.5391
37.3585
37.1789
37.0009
36.8248
36.6508
36.4792
36.31
36.1433
35.9789
35.8168
35.6568
35.4988
35.3427
35.1883
35.0355
34.8841
34.7339
34.585
34.4371
34.2902
34.1441
33.9987
33.8538
33.7095
33.5655
33.4218
33.2783
33.135
32.9918
32.8486
32.7054
32.5622
32.4189
32.2754
32.1317
31.9876
31.8432
31.6984
31.553
31.4071
31.2606
31.1133
30.9654
30.8167
30.6671
30.5168
30.3655
30.2134
30.0603
29.9063
29.7514
29.5955
29.4388
29.2811
29.1226
28.9632
28.8031
28.6423
28.481
28.3192
28.1573
27.9952
27.8333
27.6718
27.5108
27.3501
27.1894
27.027
26.8602
26.6834
26.4882
26.2612
13.7938
13.685
13.4875
13.19
12.8117
12.3789
11.9092
11.4017
10.8538
10.287
9.74652
9.26612
8.86388
8.54233
8.28992
8.0827
7.88707
7.66466
7.37758
6.99132
6.47496
5.80352
4.96175
3.94617
2.76502
1.43702
-0.0130999
-1.56149
-3.18916
-4.88849
-6.6661
-8.53931
-10.5303
-12.6569
-14.9241
-17.3169
-19.7972
-22.3026
-24.7481
-27.0332
-29.0468
-30.6753
-31.8138
-32.3799
-32.3272
-31.6444
-30.3491
-28.4918
-26.1552
-23.4479
-20.4926
-17.411
-14.3091
-11.2668
-8.33452
-5.53593
-2.87659
-0.350857
2.05073
4.33309
6.49546
8.53967
10.473
12.304
14.0373
15.672
17.2049
18.6339
19.9605
21.1899
22.3309
23.3966
24.4026
25.3669
26.3068
27.235
28.1565
29.0707
29.9758
30.8708
31.7535
32.6185
33.4564
34.2562
35.0087
35.7057
36.3416
36.9128
37.4164
37.8495
38.2093
38.4939
38.7044
38.8449
38.9229
38.947
38.9268
38.8713
38.7882
38.6835
38.5614
38.4253
38.2779
38.1216
37.9588
37.7915
37.6212
37.4494
37.2769
37.1048
36.9335
36.7635
36.5952
36.4286
36.264
36.1013
35.9407
35.782
35.6252
35.47
35.3165
35.1645
35.0138
34.8644
34.7161
34.5688
34.4225
34.277
34.1321
33.9879
33.8442
33.7008
33.5577
33.4149
33.2722
33.1296
32.987
32.8444
32.7018
32.5591
32.4161
32.273
32.1296
31.9858
31.8416
31.697
31.5518
31.406
31.2596
31.1125
30.9646
30.8159
30.6664
30.5161
30.3648
30.2127
30.0596
29.9055
29.7505
29.5945
29.4375
29.2796
29.1208
28.9611
28.8005
28.6391
28.4769
28.3142
28.1509
27.9871
27.823
27.6587
27.4939
27.3284
27.1613
26.9909
26.8142
26.6258
26.4182
26.1806
14.1155
14.0324
13.8723
13.6306
13.3237
12.9733
12.5931
12.1821
11.7345
11.2588
10.7795
10.3156
9.87842
9.46853
9.0765
8.68418
8.26681
7.79593
7.24235
6.57816
5.77932
4.82922
3.72075
2.4573
1.05279
-0.470431
-2.08873
-3.78443
-5.55029
-7.39446
-9.34047
-11.4202
-13.6643
-16.0912
-18.6999
-21.4614
-24.3195
-27.1932
-29.9818
-32.5701
-34.8348
-36.6522
-37.9066
-38.5066
-38.3993
-37.5708
-36.0416
-33.8708
-31.1545
-28.02
-24.6118
-21.0748
-17.5364
-14.0926
-10.8028
-7.69225
-4.76417
-2.00717
0.591832
3.04038
5.34032
7.49865
9.52875
11.444
13.2522
14.9529
16.5425
18.0183
19.3826
20.6419
21.8061
22.8888
23.9073
24.8821
25.8317
26.7688
27.6981
28.6184
29.5285
30.4273
31.3125
32.1789
33.0178
33.8197
34.5762
35.2797
35.9248
36.5079
37.0256
37.4743
37.8501
38.151
38.378
38.536
38.6321
38.6751
38.674
38.6374
38.5726
38.4851
38.3791
38.2579
38.1245
37.9813
37.8308
37.6748
37.5149
37.3527
37.189
37.0247
36.8606
36.6971
36.5347
36.3736
36.2139
36.0558
35.8992
35.7442
35.5907
35.4387
35.288
35.1386
34.9903
34.843
34.6967
34.5512
34.4065
34.2625
34.1191
33.9761
33.8335
33.6913
33.5492
33.4073
33.2654
33.1236
32.9817
32.8398
32.6977
32.5555
32.413
32.2702
32.1271
31.9837
31.8397
31.6953
31.5503
31.4047
31.2584
31.1114
30.9636
30.815
30.6656
30.5153
30.3641
30.2119
30.0587
29.9046
29.7495
29.5934
29.4362
29.2781
29.119
28.9588
28.7977
28.6357
28.4727
28.3089
28.1442
27.9788
27.8125
27.6453
27.4769
27.3067
27.1337
26.9559
26.7703
26.572
26.3541
26.1079
14.5736
14.5043
14.3676
14.1624
13.9011
13.6014
13.2764
12.9279
12.5485
12.1356
11.6951
11.2345
10.7568
10.2584
9.73008
9.1574
8.5228
7.80694
6.99037
6.05547
4.98866
3.78235
2.43546
0.955448
-0.642097
-2.3375
-4.11339
-5.95994
-7.88073
-9.89579
-12.0366
-14.3377
-16.8264
-19.51
-22.3744
-25.3796
-28.4645
-31.5471
-34.5277
-37.2904
-39.7039
-41.6315
-42.947
-43.5495
-43.3834
-42.4369
-40.7338
-38.3394
-35.3591
-31.9318
-28.2113
-24.3548
-20.5035
-16.7633
-13.1986
-9.83653
-6.67827
-3.71207
-0.926133
1.68541
4.12613
6.40662
8.54498
10.5567
12.4499
14.2235
15.8734
17.3975
18.7996
20.0884
21.2759
22.3784
23.4158
24.4098
25.3781
26.3309
27.2711
28.1979
29.1113
30.0106
30.8946
31.7589
32.5969
33.4005
34.1616
34.8727
35.5281
36.1232
36.6537
37.1147
37.5022
37.8148
38.0546
38.2272
38.3397
38.4002
38.4169
38.3979
38.3502
38.2792
38.1889
38.0826
37.9633
37.8335
37.6955
37.5512
37.4022
37.2499
37.0954
36.9395
36.7829
36.6264
36.4702
36.3148
36.1603
36.007
35.8547
35.7037
35.5538
35.4051
35.2574
35.1107
34.965
34.82
34.6758
34.5323
34.3894
34.247
34.105
33.9634
33.8221
33.681
33.54
33.399
33.2581
33.117
32.9759
32.8346
32.6932
32.5515
32.4095
32.2671
32.1244
31.9813
31.8376
31.6934
31.5487
31.4032
31.2571
31.1102
30.9626
30.8141
30.6647
30.5144
30.3632
30.211
30.0579
29.9037
29.7485
29.5922
29.4349
29.2765
29.117
28.9565
28.7949
28.6322
28.4684
28.3035
28.1375
27.9704
27.8019
27.6319
27.4599
27.2853
27.1067
26.9223
26.7288
26.5219
26.2955
26.0422
15.0849
15.0196
14.8903
14.6975
14.4504
14.1642
13.8509
13.5146
13.149
12.7458
12.299
11.8058
11.2617
10.6594
9.98961
9.24187
8.4054
7.46977
6.42595
5.26649
3.98543
2.57937
1.0484
-0.601133
-2.35698
-4.20384
-6.12815
-8.12268
-10.1918
-12.3521
-14.6284
-17.0471
-19.6294
-22.38
-25.2872
-28.3179
-31.4207
-34.5193
-37.5153
-40.2894
-42.7064
-44.6266
-45.9246
-46.5026
-46.3059
-45.3211
-43.5693
-41.1177
-38.0708
-34.5652
-30.7545
-26.7958
-22.8302
-18.9644
-15.2642
-11.7584
-8.45083
-5.33494
-2.40415
0.343174
2.91042
5.31011
7.56027
9.67447
11.6573
13.5054
15.2146
16.7849
18.2226
19.5393
20.7511
21.8776
22.941
23.9616
24.9537
25.924
26.8743
27.8048
28.7168
29.6121
30.4913
31.3526
32.1912
32.9998
33.7695
34.4919
35.1598
35.767
36.3072
36.7755
37.1692
37.4888
37.7379
37.9222
38.0488
38.1252
38.1585
38.156
38.1242
38.0685
37.9932
37.9015
37.7963
37.6799
37.5546
37.4223
37.2844
37.1423
36.9972
36.8499
36.7012
36.5518
36.4021
36.2527
36.1037
35.9553
35.8076
35.6608
35.5147
35.3695
35.225
35.0812
34.9381
34.7956
34.6536
34.5122
34.3711
34.2304
34.0901
33.9499
33.81
33.6701
33.5302
33.3902
33.2502
33.11
32.9696
32.829
32.6882
32.5471
32.4056
32.2637
32.1214
31.9786
31.8353
31.6913
31.5468
31.4016
31.2556
31.1089
30.9614
30.813
30.6637
30.5134
30.3623
30.2101
30.0569
29.9027
29.7474
29.591
29.4335
29.2749
29.1151
28.9541
28.792
28.6287
28.4641
28.2981
28.1308
27.9619
27.7913
27.6186
27.4433
27.2645
27.0808
26.8903
26.6899
26.4755
26.242
25.9828
15.6007
15.5316
15.3946
15.1926
14.9309
14.623
14.2795
13.9061
13.4981
13.0444
12.5331
11.9542
11.2996
10.562
9.73525
8.81449
7.79585
6.67705
5.45708
4.13507
2.70808
1.1713
-0.47856
-2.23834
-4.09781
-6.04151
-8.05135
-10.1124
-12.2189
-14.3784
-16.611
-18.944
-21.4035
-24.0048
-26.7453
-29.601
-32.5263
-35.4513
-38.2801
-40.9004
-43.1926
-45.0247
-46.2781
-46.8568
-46.7029
-45.7978
-44.1572
-41.8366
-38.9358
-35.5826
-31.9195
-28.0908
-24.2258
-20.4244
-16.7498
-13.2324
-9.88164
-6.69953
-3.68913
-0.855247
1.80386
4.29954
6.64559
8.84978
10.9105
12.8221
14.5814
16.1908
17.6595
19.0029
20.2411
21.3972
22.492
23.5421
24.557
25.5411
26.4966
27.426
28.3337
29.2244
30.1014
30.9646
31.8095
32.6278
33.4098
34.1456
34.8259
35.442
35.9868
36.4566
36.8518
37.1751
37.4307
37.6244
37.7625
37.8522
37.9001
37.9128
37.8963
37.8555
37.7948
37.7173
37.626
37.5229
37.4103
37.2898
37.1629
37.0311
36.8954
36.7568
36.6161
36.474
36.3311
36.1879
36.0445
35.9013
35.7584
35.6159
35.4738
35.3321
35.191
35.0502
34.9099
34.77
34.6303
34.491
34.3519
34.2131
34.0743
33.9357
33.7971
33.6585
33.5198
33.3809
33.2418
33.1025
32.9629
32.8231
32.6829
32.5424
32.4014
32.26
32.1181
31.9757
31.8327
31.6891
31.5448
31.3998
31.254
31.1074
30.96
30.8118
30.6626
30.5124
30.3613
30.2091
30.0559
29.9016
29.7462
29.5897
29.432
29.2732
29.1131
28.9518
28.7891
28.6251
28.4597
28.2928
28.1241
27.9536
27.781
27.6057
27.4272
27.2445
27.0561
26.8601
26.6536
26.4328
26.1931
25.929
16.0782
16.0024
15.8471
15.6181
15.318
14.9578
14.5451
14.0832
13.5672
12.9887
12.3395
11.6129
10.8032
9.90495
8.91509
7.83433
6.66749
5.42059
4.09762
2.69743
1.21404
-0.359816
-2.02673
-3.78089
-5.60934
-7.4944
-9.41394
-11.3497
-13.2955
-15.2622
-17.2715
-19.3561
-21.5443
-23.8531
-26.2845
-28.8209
-31.4233
-34.0334
-36.5719
-38.9433
-41.0422
-42.7533
-43.9655
-44.5861
-44.5532
-43.8405
-42.4549
-40.4431
-37.887
-34.8955
-31.5926
-28.1016
-24.5323
-20.9711
-17.4759
-14.0784
-10.7961
-7.6429
-4.63353
-1.7791
0.919458
3.46919
5.87578
8.138
10.2485
12.2008
13.9925
15.6286
17.1217
18.4901
19.7568
20.9442
22.0697
23.1448
24.1758
25.1675
26.1252
27.0554
27.9656
28.8621
29.7479
30.6217
31.4775
32.3064
33.0983
33.8426
34.5282
35.1452
35.6875
36.1541
36.5477
36.8723
37.1324
37.3333
37.4808
37.5817
37.6426
37.6694
37.6676
37.6418
37.5957
37.5324
37.4547
37.3646
37.2642
37.1553
37.0392
36.9174
36.7911
36.6612
36.5286
36.394
36.2579
36.1209
35.9834
35.8455
35.7074
35.5693
35.4313
35.2934
35.1556
35.018
34.8806
34.7432
34.606
34.4689
34.3319
34.1949
34.0579
33.9208
33.7837
33.6464
33.5088
33.371
33.233
33.0946
32.9559
32.8168
32.6773
32.5373
32.397
32.256
32.1146
31.9726
31.8299
31.6866
31.5426
31.3978
31.2522
31.1059
30.9586
30.8105
30.6614
30.5113
30.3602
30.2081
30.0549
29.9005
29.7451
29.5884
29.4306
29.2715
29.1111
28.9494
28.7863
28.6217
28.4554
28.2875
28.1176
27.9455
27.7709
27.5932
27.4117
27.2254
27.0328
26.8319
26.62
26.3937
26.1488
25.8806
16.4794
16.3968
16.2183
15.9448
15.5788
15.1261
14.5864
13.962
13.2554
12.473
11.6202
10.7002
9.71278
8.65999
7.54649
6.37787
5.16007
3.89827
2.59603
1.25287
-0.133836
-1.5672
-3.0471
-4.5746
-6.14553
-7.75791
-9.40306
-11.0678
-12.7502
-14.4527
-16.1889
-17.9794
-19.8468
-21.8069
-23.866
-26.0153
-28.2294
-30.4656
-32.6634
-34.7464
-36.6249
-38.2009
-39.3776
-40.071
-40.2187
-39.7893
-38.7784
-37.2149
-35.1576
-32.6891
-29.9065
-26.9074
-23.7788
-20.5908
-17.3947
-14.2258
-11.1125
-8.08164
-5.15726
-2.35404
0.32393
2.875
5.29352
7.56926
9.69185
11.6549
13.4573
15.1055
16.6137
18.0024
19.294
20.5078
21.6568
22.7493
23.7922
24.7933
25.762
26.7073
27.6363
28.5528
29.4565
30.3438
31.2084
32.0422
32.8355
33.5773
34.2563
34.8642
35.3978
35.8579
36.248
36.5722
36.8349
37.0413
37.1971
37.3087
37.3821
37.423
37.4359
37.4249
37.3935
37.3444
37.2801
37.2029
37.1146
37.0171
36.9118
36.8001
36.6832
36.5622
36.4377
36.3107
36.1816
36.0511
35.9195
35.7871
35.6541
35.5206
35.3868
35.2527
35.1185
34.9842
34.8497
34.7152
34.5805
34.4457
34.3108
34.1758
34.0406
33.9051
33.7695
33.6336
33.4973
33.3607
33.2236
33.0862
32.9484
32.8101
32.6713
32.532
32.3922
32.2518
32.1108
31.9692
31.8269
31.6839
31.5402
31.3957
31.2504
31.1042
30.9571
30.8091
30.6601
30.5101
30.3591
30.207
30.0538
29.8994
29.7439
29.5871
29.4292
29.2699
29.1092
28.9471
28.7835
28.6183
28.4513
28.2824
28.1113
27.9377
27.7612
27.5813
27.397
27.2074
27.0109
26.8056
26.589
26.3579
26.1086
25.8369
16.7608
16.6644
16.4326
16.0743
15.5807
14.9525
14.192
13.3193
12.3615
11.3473
10.3008
9.24335
8.18801
7.13961
6.09477
5.04979
4.00313
2.95894
1.91567
0.869291
-0.196118
-1.29239
-2.43581
-3.63475
-4.89499
-6.21661
-7.59163
-9.00817
-10.4584
-11.9381
-13.4492
-15.0036
-16.6173
-18.3028
-20.0661
-21.9027
-23.7957
-25.7144
-27.6139
-29.4357
-31.1095
-32.5579
-33.7035
-34.475
-34.8126
-34.6796
-34.0596
-32.9613
-31.4215
-29.4993
-27.2656
-24.7921
-22.1438
-19.3759
-16.5339
-13.6582
-10.7865
-7.95337
-5.18464
-2.496
0.101533
2.59446
4.96702
7.2044
9.29545
11.2339
13.0194
14.6596
16.1696
17.5689
18.8767
20.1082
21.2741
22.3835
23.4453
24.4695
25.4652
26.4389
27.3943
28.3317
29.2492
30.1436
31.0097
31.8399
32.6242
33.3518
34.0142
34.6066
35.128
35.5797
35.9647
36.2867
36.5503
36.7607
36.9238
37.0453
37.1307
37.1847
37.2114
37.2143
37.1965
37.1606
37.109
37.0438
36.967
36.8804
36.7854
36.6834
36.5757
36.4632
36.3468
36.2272
36.1051
35.9809
35.8552
35.7282
35.6002
35.4713
35.3417
35.2116
35.0809
34.9499
34.8185
34.6867
34.5545
34.4221
34.2894
34.1563
34.0229
33.8891
33.755
33.6205
33.4855
33.35
33.2141
33.0776
32.9406
32.8031
32.6651
32.5265
32.3873
32.2474
32.1069
31.9658
31.8238
31.6812
31.5378
31.3935
31.2484
31.1024
30.9555
30.8077
30.6588
30.5089
30.3579
30.2059
30.0527
29.8983
29.7427
29.5859
29.4277
29.2682
29.1073
28.9449
28.7808
28.615
28.4473
28.2775
28.1053
27.9303
27.7521
27.57
27.3832
27.1906
26.9907
26.7816
26.5608
26.3256
26.0724
25.7978
16.9041
16.7646
16.4268
15.8998
15.1744
14.2804
13.2508
12.1378
10.994
9.87437
8.82393
7.86969
7.01513
6.24707
5.53806
4.85939
4.18836
3.51247
2.81822
2.09227
1.32066