/*--------------------------------*- C++ -*----------------------------------*\
| =========                 |                                                 |
| \\      /  F ield         | OpenFOAM: The Open Source CFD Toolbox           |
|  \\    /   O peration     | Version:  2112                                  |
|   \\  /    A nd           | Website:  www.openfoam.com                      |
|    \\/     M anipulation  |                                                 |
\*---------------------------------------------------------------------------*/
FoamFile
{
    version     2.0;
    format      ascii;
    arch        "LSB;label=32;scalar=64";
    class       surfaceScalarField;
    location    "0.24";
    object      phi;
}
// * * * * * * * * * * * * * * * * * * * * * * * * * * * * * * * * * * * * * //

dimensions      [0 3 -1 0 0 0 0];

oriented        oriented;

internalField   nonuniform List<scalar> 
24170
(
3.03952e-06
1.48885e-07
2.87477e-06
1.64755e-07
2.7211e-06
1.53663e-07
2.57743e-06
1.43669e-07
2.44497e-06
1.32464e-07
2.32563e-06
1.19338e-07
2.22024e-06
1.05393e-07
2.12718e-06
9.30625e-08
2.0442e-06
8.29732e-08
1.97083e-06
7.33703e-08
1.90744e-06
6.33943e-08
1.8544e-06
5.3038e-08
1.81179e-06
4.26108e-08
1.77925e-06
3.25437e-08
1.7561e-06
2.31495e-08
1.74091e-06
1.51886e-08
1.73071e-06
1.01962e-08
7.52404e-09
1.72319e-06
3.49622e-06
6.99112e-08
3.54972e-06
1.11254e-07
3.58512e-06
1.18263e-07
3.60368e-06
1.25111e-07
3.6076e-06
1.28551e-07
3.59982e-06
1.27112e-07
3.58281e-06
1.22405e-07
3.5589e-06
1.1697e-07
3.52993e-06
1.11945e-07
3.49687e-06
1.06431e-07
3.4605e-06
9.97623e-08
3.42153e-06
9.20094e-08
3.38057e-06
8.35682e-08
3.33818e-06
7.49391e-08
3.29475e-06
6.65795e-08
3.25083e-06
5.91038e-08
3.20822e-06
5.28136e-08
4.38211e-08
3.17192e-06
3.6796e-06
5.28278e-08
3.69624e-06
9.4613e-08
3.71384e-06
1.00668e-07
3.73335e-06
1.05597e-07
3.753e-06
1.08905e-07
3.77164e-06
1.08469e-07
3.7885e-06
1.05539e-07
3.80344e-06
1.02036e-07
3.81658e-06
9.88069e-08
3.82775e-06
9.52573e-08
3.83674e-06
9.07751e-08
3.84341e-06
8.53366e-08
3.84774e-06
7.9233e-08
3.84986e-06
7.28219e-08
3.84999e-06
6.64534e-08
3.84878e-06
6.03134e-08
3.8472e-06
5.439e-08
4.60239e-08
3.845e-06
3.93528e-06
4.29361e-08
3.94534e-06
8.45516e-08
3.95295e-06
9.30585e-08
3.96095e-06
9.75979e-08
3.96914e-06
1.00714e-07
3.9772e-06
1.00407e-07
3.98514e-06
9.76029e-08
3.99314e-06
9.40312e-08
4.00145e-06
9.05058e-08
4.00999e-06
8.67091e-08
4.01857e-06
8.22002e-08
4.02695e-06
7.69542e-08
4.03499e-06
7.11986e-08
4.0426e-06
6.52097e-08
4.04984e-06
5.92127e-08
4.05689e-06
5.32634e-08
4.06403e-06
4.7246e-08
4.02589e-08
4.0698e-06
4.21502e-06
3.50469e-08
4.22469e-06
7.48819e-08
4.2317e-06
8.60406e-08
4.23838e-06
9.09179e-08
4.24492e-06
9.4174e-08
4.25101e-06
9.43162e-08
4.25668e-06
9.19382e-08
4.26215e-06
8.85613e-08
4.26768e-06
8.4975e-08
4.27334e-06
8.10529e-08
4.27904e-06
7.64983e-08
4.28469e-06
7.13008e-08
4.29024e-06
6.56524e-08
4.29567e-06
5.97762e-08
4.30105e-06
5.38292e-08
4.30648e-06
4.78422e-08
4.31206e-06
4.16583e-08
3.47254e-08
4.3176e-06
4.51536e-06
2.87716e-08
4.52447e-06
6.57727e-08
4.53166e-06
7.88503e-08
4.53841e-06
8.41685e-08
4.5451e-06
8.74879e-08
4.55137e-06
8.80434e-08
4.55717e-06
8.61385e-08
4.56268e-06
8.30558e-08
4.56809e-06
7.95557e-08
4.5735e-06
7.56495e-08
4.57884e-06
7.11549e-08
4.58406e-06
6.60777e-08
4.58914e-06
6.05807e-08
4.59407e-06
5.48445e-08
4.59891e-06
4.89862e-08
4.60373e-06
4.30188e-08
4.60858e-06
3.68168e-08
3.00951e-08
4.61321e-06
4.8377e-06
2.37909e-08
4.8461e-06
5.73698e-08
4.85339e-06
7.15622e-08
4.86019e-06
7.73734e-08
4.86697e-06
8.07022e-08
4.87346e-06
8.15519e-08
4.87954e-06
8.00574e-08
4.88535e-06
7.72552e-08
4.89103e-06
7.38716e-08
4.89666e-06
7.00235e-08
4.90219e-06
6.56224e-08
4.90757e-06
6.06913e-08
4.91279e-06
5.53682e-08
4.91783e-06
4.98009e-08
4.92273e-06
4.40823e-08
4.92753e-06
3.82253e-08
4.93218e-06
3.21643e-08
2.57705e-08
4.9365e-06
5.18357e-06
1.97984e-08
5.19122e-06
4.97268e-08
5.19848e-06
6.42967e-08
5.2053e-06
7.05576e-08
5.21213e-06
7.38713e-08
5.21878e-06
7.48956e-08
5.22511e-06
7.37336e-08
5.23117e-06
7.11905e-08
5.2371e-06
6.79402e-08
5.24295e-06
6.41773e-08
5.24868e-06
5.98892e-08
5.25426e-06
5.51165e-08
5.25965e-06
4.99789e-08
5.26485e-06
4.46015e-08
5.26986e-06
3.90649e-08
5.2747e-06
3.33943e-08
5.27929e-06
2.75715e-08
2.15647e-08
5.28349e-06
5.55459e-06
1.65498e-08
5.56147e-06
4.28456e-08
5.5686e-06
5.71613e-08
5.57544e-06
6.37222e-08
5.58231e-06
6.70025e-08
5.5891e-06
6.81046e-08
5.59563e-06
6.71976e-08
5.60193e-06
6.48922e-08
5.60808e-06
6.17894e-08
5.61412e-06
5.81358e-08
5.62003e-06
5.39796e-08
5.62577e-06
4.93785e-08
5.63131e-06
4.44403e-08
5.63664e-06
3.92752e-08
5.64174e-06
3.39598e-08
5.6466e-06
2.85337e-08
5.65116e-06
2.30119e-08
1.74227e-08
5.6553e-06
5.95247e-06
1.38604e-08
5.95863e-06
3.66786e-08
5.96555e-06
5.02405e-08
5.97239e-06
5.68859e-08
5.97929e-06
6.01044e-08
5.98618e-06
6.12097e-08
5.9929e-06
6.04798e-08
5.99941e-06
5.83819e-08
6.00577e-06
5.54336e-08
6.01199e-06
5.19088e-08
6.01807e-06
4.79026e-08
6.02396e-06
4.3489e-08
6.02963e-06
3.87682e-08
6.03507e-06
3.38411e-08
6.04024e-06
2.87837e-08
6.04513e-06
2.36479e-08
6.04967e-06
1.84701e-08
1.33115e-08
6.05378e-06
6.37908e-06
1.15923e-08
6.38461e-06
3.11522e-08
6.39125e-06
4.35946e-08
6.39806e-06
5.00832e-08
6.40497e-06
5.31885e-08
6.41194e-06
5.42362e-08
6.41882e-06
5.36086e-08
6.42552e-06
5.16812e-08
6.43206e-06
4.88881e-08
6.43846e-06
4.55082e-08
6.4447e-06
4.16699e-08
6.45072e-06
3.74609e-08
6.45651e-06
3.29773e-08
6.46204e-06
2.83137e-08
6.46728e-06
2.35465e-08
6.47219e-06
1.8736e-08
6.47673e-06
1.393e-08
9.20468e-09
6.48084e-06
5.74251e-06
9.91423e-09
5.74675e-06
2.69168e-08
5.75212e-06
3.82205e-08
5.75781e-06
4.43903e-08
5.76366e-06
4.73415e-08
5.7696e-06
4.83004e-08
5.7755e-06
4.77073e-08
5.78129e-06
4.58922e-08
5.78695e-06
4.32259e-08
5.79248e-06
3.99779e-08
5.79786e-06
3.62938e-08
5.80305e-06
3.22706e-08
5.80802e-06
2.80022e-08
5.81276e-06
2.35793e-08
5.81723e-06
1.90776e-08
5.8214e-06
1.45617e-08
5.82525e-06
1.00831e-08
5.72409e-09
5.82873e-06
6.99986e-06
8.20606e-09
7.00429e-06
2.24896e-08
7.01016e-06
3.2356e-08
7.01657e-06
3.79727e-08
7.02325e-06
4.0661e-08
7.03008e-06
4.14697e-08
7.03693e-06
4.08642e-08
7.04368e-06
3.91416e-08
7.05029e-06
3.66109e-08
7.05675e-06
3.35208e-08
7.06302e-06
3.00255e-08
7.06906e-06
2.62289e-08
7.07484e-06
2.22229e-08
7.08032e-06
1.80936e-08
7.08549e-06
1.39153e-08
7.0903e-06
9.75322e-09
7.09472e-06
5.65874e-09
1.71463e-09
7.09873e-06
8.53257e-06
6.48175e-09
8.53714e-06
1.79199e-08
8.54344e-06
2.60585e-08
8.55056e-06
3.0847e-08
8.55811e-06
3.31187e-08
8.56588e-06
3.36928e-08
8.57373e-06
3.30138e-08
8.58152e-06
3.13508e-08
8.58918e-06
2.8957e-08
8.59665e-06
2.60499e-08
8.60389e-06
2.27813e-08
8.61086e-06
1.92575e-08
8.61752e-06
1.55671e-08
8.62382e-06
1.17903e-08
8.62974e-06
7.99726e-09
8.63524e-06
4.25053e-09
8.64031e-06
5.96931e-10
-2.88572e-09
8.64491e-06
1.0401e-05
4.7492e-09
1.04056e-05
1.32387e-08
1.04123e-05
1.93865e-08
1.04201e-05
2.30537e-08
1.04285e-05
2.47126e-08
1.04373e-05
2.49396e-08
1.04462e-05
2.4111e-08
1.0455e-05
2.24627e-08
1.04638e-05
2.0197e-08
1.04724e-05
1.74937e-08
1.04807e-05
1.44905e-08
1.04886e-05
1.12886e-08
1.04962e-05
7.97038e-09
1.05034e-05
4.60781e-09
1.05101e-05
1.26327e-09
1.05164e-05
-2.00742e-09
1.05222e-05
-5.16515e-09
-8.14122e-09
1.05274e-05
1.26785e-05
3.00514e-09
1.26833e-05
8.44774e-09
1.26903e-05
1.23744e-08
1.26988e-05
1.46336e-08
1.2708e-05
1.54556e-08
1.27178e-05
1.51951e-08
1.27277e-05
1.4127e-08
1.27378e-05
1.2438e-08
1.27477e-05
1.02819e-08
1.27574e-05
7.79632e-09
1.27668e-05
5.09414e-09
1.27758e-05
2.26291e-09
1.27844e-05
-6.26726e-10
1.27925e-05
-3.51449e-09
1.28001e-05
-6.3493e-09
1.28072e-05
-9.08602e-09
1.28137e-05
-1.16957e-08
-1.41218e-08
1.28197e-05
1.5455e-05
1.22956e-09
1.54599e-05
3.49954e-09
1.54673e-05
4.99148e-09
1.54763e-05
5.57818e-09
1.54865e-05
5.33575e-09
1.54972e-05
4.43286e-09
1.55083e-05
3.02587e-09
1.55195e-05
1.23544e-09
1.55306e-05
-8.36462e-10
1.55415e-05
-3.09769e-09
1.55521e-05
-5.46889e-09
1.55623e-05
-7.88518e-09
1.55719e-05
-1.02936e-08
1.55811e-05
-1.265e-08
1.55896e-05
-1.4918e-08
1.55976e-05
-1.70663e-08
1.5605e-05
-1.90779e-08
-2.09105e-08
1.56118e-05
1.88395e-05
-6.27978e-10
1.88447e-05
-1.75339e-09
1.88527e-05
-2.93856e-09
1.88625e-05
-4.2691e-09
1.88736e-05
-5.78051e-09
1.88855e-05
-7.46943e-09
1.88979e-05
-9.30727e-09
1.89104e-05
-1.12531e-08
1.89228e-05
-1.3263e-08
1.8935e-05
-1.52949e-08
1.89468e-05
-1.73092e-08
1.89582e-05
-1.92705e-08
1.89691e-05
-2.11487e-08
1.89793e-05
-2.29194e-08
1.8989e-05
-2.45641e-08
1.8998e-05
-2.60673e-08
1.90063e-05
-2.74252e-08
-2.86117e-08
1.9014e-05
2.29654e-05
-2.69621e-09
2.29713e-05
-7.68905e-09
2.29803e-05
-1.19075e-08
2.29914e-05
-1.53937e-08
2.3004e-05
-1.83237e-08
2.30174e-05
-2.0893e-08
2.30313e-05
-2.32171e-08
2.30454e-05
-2.53415e-08
2.30594e-05
-2.72881e-08
2.30732e-05
-2.90719e-08
2.30866e-05
-3.06982e-08
2.30995e-05
-3.2164e-08
2.31118e-05
-3.34636e-08
2.31235e-05
-3.45939e-08
2.31345e-05
-3.55555e-08
2.31447e-05
-3.63506e-08
2.31543e-05
-3.69897e-08
-3.74639e-08
2.31632e-05
1.68123e-05
-4.32933e-09
1.68169e-05
-1.22945e-08
1.68237e-05
-1.87131e-08
1.6832e-05
-2.36208e-08
1.68411e-05
-2.74163e-08
1.68507e-05
-3.05073e-08
1.68606e-05
-3.31078e-08
1.68705e-05
-3.53102e-08
1.68804e-05
-3.71826e-08
1.68901e-05
-3.87816e-08
1.68996e-05
-4.01384e-08
1.69087e-05
-4.12652e-08
1.69174e-05
-4.21691e-08
1.69257e-05
-4.28589e-08
1.69334e-05
-4.33467e-08
1.69407e-05
-4.36454e-08
1.69475e-05
-4.37742e-08
-4.37356e-08
1.69538e-05
1.46362e-05
-5.99869e-09
1.46409e-05
-1.69143e-08
1.46474e-05
-2.52804e-08
1.4655e-05
-3.12321e-08
1.46632e-05
-3.55833e-08
1.46717e-05
-3.8998e-08
1.46803e-05
-4.17424e-08
1.4689e-05
-4.39374e-08
1.46975e-05
-4.57036e-08
1.47058e-05
-4.71342e-08
1.4714e-05
-4.82714e-08
1.47218e-05
-4.91282e-08
1.47294e-05
-4.97151e-08
1.47366e-05
-5.00471e-08
1.47434e-05
-5.01434e-08
1.47497e-05
-5.00248e-08
1.47557e-05
-4.97189e-08
-4.92372e-08
1.47612e-05
1.2742e-05
-7.86032e-09
1.2747e-05
-2.18983e-08
1.27536e-05
-3.19217e-08
1.27609e-05
-3.84673e-08
1.27684e-05
-4.30795e-08
1.2776e-05
-4.66538e-08
1.27837e-05
-4.94162e-08
1.27913e-05
-5.15128e-08
1.27987e-05
-5.31349e-08
1.2806e-05
-5.44061e-08
1.2813e-05
-5.53619e-08
1.28199e-05
-5.60042e-08
1.28265e-05
-5.63394e-08
1.28329e-05
-5.63835e-08
1.28389e-05
-5.61581e-08
1.28446e-05
-5.56873e-08
1.28498e-05
-5.50024e-08
-5.41198e-08
1.28547e-05
1.10932e-05
-1.00956e-08
1.10988e-05
-2.75566e-08
1.11057e-05
-3.87901e-08
1.11126e-05
-4.54013e-08
1.11196e-05
-5.00194e-08
1.11265e-05
-5.36096e-08
1.11334e-05
-5.62652e-08
1.114e-05
-5.81918e-08
1.11466e-05
-5.96624e-08
1.1153e-05
-6.08063e-08
1.11592e-05
-6.16303e-08
1.11654e-05
-6.2115e-08
1.11713e-05
-6.22583e-08
1.1177e-05
-6.20742e-08
1.11824e-05
-6.15848e-08
1.11875e-05
-6.08164e-08
1.11923e-05
-5.98054e-08
-5.85741e-08
1.11968e-05
9.65808e-06
-1.29578e-08
9.66466e-06
-3.41397e-08
9.67172e-06
-4.58549e-08
9.67836e-06
-5.20413e-08
9.68486e-06
-5.65176e-08
9.69122e-06
-5.99657e-08
9.6973e-06
-6.23475e-08
9.70313e-06
-6.40176e-08
9.70879e-06
-6.53294e-08
9.71437e-06
-6.63837e-08
9.71988e-06
-6.71345e-08
9.72529e-06
-6.75289e-08
9.73058e-06
-6.75506e-08
9.73572e-06
-6.72079e-08
9.74065e-06
-6.65204e-08
9.74535e-06
-6.55139e-08
9.74977e-06
-6.42278e-08
-6.26886e-08
9.75389e-06
8.40922e-06
-1.68221e-08
8.41691e-06
-4.18369e-08
8.42392e-06
-5.2864e-08
8.43017e-06
-5.82896e-08
8.43629e-06
-6.26337e-08
8.44214e-06
-6.5821e-08
8.44759e-06
-6.77966e-08
8.45272e-06
-6.91452e-08
8.45767e-06
-7.02834e-08
8.46255e-06
-7.1261e-08
8.46738e-06
-7.19655e-08
8.47216e-06
-7.23036e-08
8.47685e-06
-7.22429e-08
8.48143e-06
-7.17843e-08
8.48585e-06
-7.09436e-08
8.49008e-06
-6.9742e-08
8.49407e-06
-6.8222e-08
-6.63758e-08
8.49776e-06
7.32257e-06
-2.21105e-08
7.33151e-06
-5.07707e-08
7.33824e-06
-5.95965e-08
7.34399e-06
-6.40361e-08
7.34953e-06
-6.81748e-08
7.35465e-06
-7.09446e-08
7.35931e-06
-7.24555e-08
7.36367e-06
-7.35082e-08
7.36792e-06
-7.45336e-08
7.37217e-06
-7.55135e-08
7.37646e-06
-7.62528e-08
7.38077e-06
-7.6612e-08
7.38507e-06
-7.6545e-08
7.38934e-06
-7.60479e-08
7.39353e-06
-7.51347e-08
7.39761e-06
-7.38206e-08
7.40155e-06
-7.21634e-08
-7.01451e-08
7.40532e-06
6.37713e-06
-2.91721e-08
6.3868e-06
-6.04467e-08
6.39339e-06
-6.61798e-08
6.39923e-06
-6.98773e-08
6.40481e-06
-7.37572e-08
6.40994e-06
-7.60772e-08
6.41474e-06
-7.7253e-08
6.41944e-06
-7.82077e-08
6.42427e-06
-7.93602e-08
6.42936e-06
-8.06074e-08
6.43475e-06
-8.16461e-08
6.44042e-06
-8.22804e-08
6.44632e-06
-8.24434e-08
6.45239e-06
-8.21215e-08
6.45858e-06
-8.13207e-08
6.46484e-06
-8.00796e-08
6.47109e-06
-7.84126e-08
-7.62005e-08
6.47714e-06
5.55752e-06
-4.12248e-08
5.57004e-06
-7.29745e-08
5.58148e-06
-7.76177e-08
5.59404e-06
-8.24325e-08
5.60719e-06
-8.69106e-08
5.62046e-06
-8.93485e-08
5.63366e-06
-9.04538e-08
5.64678e-06
-9.1325e-08
5.65997e-06
-9.25481e-08
5.67329e-06
-9.39276e-08
5.68666e-06
-9.50132e-08
5.69992e-06
-9.55457e-08
5.71291e-06
-9.5435e-08
5.72545e-06
-9.46602e-08
5.73736e-06
-9.32289e-08
5.74851e-06
-9.12336e-08
5.75886e-06
-8.87612e-08
-8.63248e-08
5.76899e-06
4.89248e-06
-1.06094e-07
4.94333e-06
-1.23826e-07
4.98498e-06
-1.19269e-07
5.01788e-06
-1.15338e-07
5.04216e-06
-1.11184e-07
5.05877e-06
-1.05958e-07
5.06873e-06
-1.00415e-07
5.07314e-06
-9.57311e-08
5.07299e-06
-9.24051e-08
5.06885e-06
-8.97884e-08
5.06099e-06
-8.71551e-08
5.04965e-06
-8.41963e-08
5.03504e-06
-8.08286e-08
5.01743e-06
-7.70535e-08
4.99711e-06
-7.29032e-08
4.97437e-06
-6.84945e-08
4.94949e-06
-6.3888e-08
-5.94274e-08
4.9226e-06
4.09658e-06
3.97276e-06
3.85349e-06
3.73815e-06
3.62696e-06
3.52101e-06
3.42059e-06
3.32486e-06
3.23246e-06
3.14267e-06
3.05551e-06
2.97132e-06
2.89049e-06
2.81343e-06
2.74053e-06
2.67204e-06
2.60815e-06
2.54872e-06
1.53097e-08
-1.53097e-08
3.22095e-08
-1.68998e-08
4.97995e-08
-1.75899e-08
6.77754e-08
-1.79759e-08
8.57855e-08
-1.80101e-08
1.03485e-07
-1.76998e-08
1.20611e-07
-1.71253e-08
1.3705e-07
-1.64396e-08
1.52946e-07
-1.58958e-08
1.68259e-07
-1.53129e-08
1.82476e-07
-1.42172e-08
1.95021e-07
-1.25452e-08
2.05471e-07
-1.04493e-08
2.13516e-07
-8.04528e-09
2.1891e-07
-5.39395e-09
2.21443e-07
-2.53278e-09
2.20922e-07
5.20361e-10
2.17283e-07
3.6393e-09
2.10668e-07
6.61475e-09
2.01636e-07
9.03262e-09
1.90555e-07
1.10809e-08
1.77415e-07
1.31399e-08
1.62246e-07
1.51691e-08
1.45107e-07
1.71387e-08
1.26089e-07
1.90174e-08
1.05316e-07
2.07739e-08
8.2937e-08
2.23786e-08
5.91358e-08
2.38012e-08
3.41281e-08
2.50077e-08
8.17283e-09
2.59553e-08
-1.84296e-08
2.66024e-08
-4.53352e-08
2.69056e-08
-7.21524e-08
2.68172e-08
-9.85035e-08
2.63512e-08
-1.24195e-07
2.56919e-08
-1.49585e-07
2.53896e-08
-1.75598e-07
2.60125e-08
-2.02541e-07
2.69438e-08
-2.29875e-07
2.73334e-08
-2.5711e-07
2.72356e-08
-2.83943e-07
2.68323e-08
-3.10248e-07
2.63051e-08
-3.36057e-07
2.58095e-08
-3.61514e-07
2.54565e-08
-3.86826e-07
2.5312e-08
-4.12181e-07
2.53556e-08
-4.3771e-07
2.55283e-08
-4.63485e-07
2.5775e-08
-4.89545e-07
2.60604e-08
-5.15913e-07
2.63675e-08
-5.42603e-07
2.66903e-08
-5.69634e-07
2.70313e-08
-5.97024e-07
2.73898e-08
-6.24789e-07
2.77653e-08
-6.52946e-07
2.81567e-08
-6.81508e-07
2.85622e-08
-7.10487e-07
2.89784e-08
-7.39888e-07
2.9401e-08
-7.69712e-07
2.98245e-08
-7.99955e-07
3.02426e-08
-8.30603e-07
3.06482e-08
-8.61636e-07
3.10336e-08
-8.93027e-07
3.13906e-08
-9.24738e-07
3.17112e-08
-9.56726e-07
3.19873e-08
-9.88937e-07
3.22116e-08
-1.02131e-06
3.23778e-08
-1.0538e-06
3.24802e-08
-1.08631e-06
3.25149e-08
-1.11879e-06
3.24789e-08
-1.15116e-06
3.23709e-08
-1.18335e-06
3.21905e-08
-1.21529e-06
3.19388e-08
-1.24691e-06
3.16181e-08
-1.27814e-06
3.12313e-08
-1.30892e-06
3.07823e-08
-1.3392e-06
3.02755e-08
-1.36891e-06
2.97157e-08
-1.39802e-06
2.9108e-08
-1.42648e-06
2.84573e-08
-1.45425e-06
2.77688e-08
-1.48129e-06
2.70472e-08
-1.50759e-06
2.62971e-08
-1.53311e-06
2.55226e-08
-1.55784e-06
2.47276e-08
-1.58176e-06
2.39153e-08
-1.60484e-06
2.30888e-08
-1.6271e-06
2.22505e-08
-1.6485e-06
2.14028e-08
-1.66905e-06
2.0548e-08
-1.68873e-06
1.96881e-08
-1.70756e-06
1.88252e-08
-1.72552e-06
1.79615e-08
-1.74262e-06
1.70994e-08
-1.75886e-06
1.62416e-08
-1.77425e-06
1.53908e-08
-1.7888e-06
1.45499e-08
-1.80252e-06
1.37218e-08
-1.81543e-06
1.29093e-08
-1.82755e-06
1.21146e-08
-1.83889e-06
1.13395e-08
-1.84947e-06
1.05854e-08
-1.85933e-06
9.85327e-09
-1.86847e-06
9.14355e-09
-1.87693e-06
8.45685e-09
-1.88472e-06
7.79361e-09
-1.89187e-06
7.1544e-09
-1.89841e-06
6.53987e-09
-1.90437e-06
5.9507e-09
-1.90975e-06
5.38757e-09
-1.9146e-06
4.85103e-09
-1.91895e-06
4.34139e-09
-1.9228e-06
3.85862e-09
-1.92621e-06
3.40211e-09
-1.92918e-06
2.97059e-09
-1.93174e-06
2.56194e-09
-1.93391e-06
2.17289e-09
-1.93571e-06
1.79884e-09
-1.93714e-06
1.43313e-09
-1.93821e-06
1.06941e-09
-1.93893e-06
7.13099e-10
-1.93926e-06
3.32954e-10
-1.93918e-06
-8.12449e-11
-1.93866e-06
-5.21071e-10
-1.93768e-06
-9.75928e-10
-1.93616e-06
-1.52169e-09
-1.93404e-06
-2.11685e-09
-1.93124e-06
-2.80019e-09
-1.92765e-06
-3.5895e-09
-1.92315e-06
-4.5012e-09
-1.9176e-06
-5.5509e-09
-1.91085e-06
-6.75292e-09
-1.90273e-06
-8.11948e-09
-1.89307e-06
-9.65984e-09
-1.88169e-06
-1.13805e-08
-1.8684e-06
-1.32903e-08
-1.85301e-06
-1.53877e-08
-1.83534e-06
-1.76672e-08
-1.81522e-06
-2.01178e-08
-1.7925e-06
-2.27227e-08
-1.76704e-06
-2.54614e-08
-1.73873e-06
-2.83117e-08
-1.70748e-06
-3.12522e-08
-1.67322e-06
-3.42616e-08
-1.6359e-06
-3.73174e-08
-1.5955e-06
-4.03994e-08
-1.552e-06
-4.3495e-08
-1.5054e-06
-4.6606e-08
-1.45565e-06
-4.9749e-08
-1.4027e-06
-5.29449e-08
-1.34649e-06
-5.62165e-08
-1.28688e-06
-5.96037e-08
-1.22369e-06
-6.31905e-08
-1.1566e-06
-6.70938e-08
-1.08516e-06
-7.14369e-08
-1.00881e-06
-7.63534e-08
-9.26788e-07
-8.20202e-08
-8.38147e-07
-8.86413e-08
-7.41799e-07
-9.63476e-08
-6.36834e-07
-1.04966e-07
-5.23353e-07
-1.13481e-07
-4.04119e-07
-1.19233e-07
-2.86598e-07
-1.17521e-07
-1.66739e-07
-1.1986e-07
-3.64083e-08
-1.3033e-07
1.01163e-07
-1.37571e-07
2.43885e-07
-1.42721e-07
3.95631e-07
-1.51746e-07
5.5771e-07
-1.62079e-07
7.25009e-07
-1.673e-07
8.93559e-07
-1.6855e-07
1.06033e-06
-1.66767e-07
1.2227e-06
-1.62374e-07
1.37814e-06
-1.55434e-07
1.52411e-06
-1.45975e-07
1.65806e-06
-1.33947e-07
1.77718e-06
-1.19126e-07
1.87634e-06
-9.91553e-08
1.93969e-06
-6.33534e-08
1.23476e-08
1.92735e-06
1.65484e-08
-3.18581e-08
3.37343e-08
-3.40857e-08
5.17252e-08
-3.55808e-08
7.01042e-08
-3.63549e-08
8.85188e-08
-3.64247e-08
1.06655e-07
-3.58365e-08
1.24205e-07
-3.46751e-08
1.40821e-07
-3.30557e-08
1.56016e-07
-3.10907e-08
1.69491e-07
-2.87881e-08
1.81285e-07
-2.6011e-08
1.91427e-07
-2.26869e-08
1.99819e-07
-1.88414e-08
2.06312e-07
-1.45387e-08
2.10768e-07
-9.84997e-09
2.13084e-07
-4.8485e-09
2.1328e-07
3.2493e-10
2.1121e-07
5.70914e-09
2.06807e-07
1.1018e-08
1.99715e-07
1.6124e-08
1.89795e-07
2.10009e-08
1.77237e-07
2.56978e-08
1.62193e-07
3.02132e-08
1.44808e-07
3.45242e-08
1.25229e-07
3.85965e-08
1.03616e-07
4.23861e-08
8.01528e-08
4.58423e-08
5.50461e-08
4.89079e-08
2.85327e-08
5.15211e-08
8.70709e-10
5.36173e-08
-2.76594e-08
5.51326e-08
-5.67763e-08
5.60225e-08
-8.62398e-08
5.62807e-08
-1.15863e-07
5.59743e-08
-1.45487e-07
5.5316e-08
-1.74809e-07
5.47118e-08
-2.03383e-07
5.45864e-08
-2.31332e-07
5.48927e-08
-2.59189e-07
5.51903e-08
-2.87236e-07
5.52828e-08
-3.15533e-07
5.51295e-08
-3.43985e-07
5.47575e-08
-3.72426e-07
5.42503e-08
-4.00693e-07
5.37233e-08
-4.2867e-07
5.32893e-08
-4.56337e-07
5.30223e-08
-4.8376e-07
5.29509e-08
-5.11057e-07
5.30725e-08
-5.38366e-07
5.3369e-08
-5.65816e-07
5.38179e-08
-5.93523e-07
5.43966e-08
-6.21576e-07
5.50843e-08
-6.50047e-07
5.58612e-08
-6.78991e-07
5.67096e-08
-7.08447e-07
5.76126e-08
-7.3844e-07
5.85545e-08
-7.68981e-07
5.95194e-08
-8.00071e-07
6.04916e-08
-8.31702e-07
6.14551e-08
-8.63853e-07
6.23935e-08
-8.96495e-07
6.32902e-08
-9.29589e-07
6.41283e-08
-9.6309e-07
6.48909e-08
-9.9694e-07
6.5562e-08
-1.03108e-06
6.61264e-08
-1.06544e-06
6.65705e-08
-1.09994e-06
6.68826e-08
-1.13452e-06
6.70533e-08
-1.16908e-06
6.70756e-08
-1.20354e-06
6.69454e-08
-1.23783e-06
6.66611e-08
-1.27187e-06
6.62239e-08
-1.30557e-06
6.56369e-08
-1.33885e-06
6.49059e-08
-1.37166e-06
6.40381e-08
-1.40392e-06
6.30422e-08
-1.43557e-06
6.1928e-08
-1.46656e-06
6.0706e-08
-1.49684e-06
5.93871e-08
-1.52637e-06
5.7982e-08
-1.5551e-06
5.65013e-08
-1.58301e-06
5.49552e-08
-1.61006e-06
5.33531e-08
-1.63624e-06
5.17037e-08
-1.66153e-06
5.00147e-08
-1.68591e-06
4.82931e-08
-1.70937e-06
4.65449e-08
-1.73189e-06
4.47755e-08
-1.75348e-06
4.29897e-08
-1.77412e-06
4.11921e-08
-1.79382e-06
3.9387e-08
-1.81257e-06
3.75789e-08
-1.83038e-06
3.57725e-08
-1.84726e-06
3.39727e-08
-1.8632e-06
3.21849e-08
-1.87823e-06
3.04149e-08
-1.89234e-06
2.86684e-08
-1.90557e-06
2.69513e-08
-1.91793e-06
2.52688e-08
-1.92944e-06
2.36254e-08
-1.94013e-06
2.20243e-08
-1.95001e-06
2.04679e-08
-1.95912e-06
1.89576e-08
-1.96747e-06
1.74943e-08
-1.97509e-06
1.60786e-08
-1.98201e-06
1.47112e-08
-1.98824e-06
1.33927e-08
-1.99383e-06
1.21238e-08
-1.99878e-06
1.09056e-08
-2.00313e-06
9.7387e-09
-2.00691e-06
8.62347e-09
-2.01012e-06
7.55977e-09
-2.01281e-06
6.54664e-09
-2.01499e-06
5.58188e-09
-2.01668e-06
4.66208e-09
-2.0179e-06
3.78221e-09
-2.01867e-06
2.93515e-09
-2.01898e-06
2.11054e-09
-2.01885e-06
1.30028e-09
-2.01824e-06
4.59124e-10
-2.01714e-06
-3.82285e-10
-2.01561e-06
-1.19477e-09
-2.0136e-06
-2.09014e-09
-2.01106e-06
-3.06373e-09
-2.0079e-06
-4.13169e-09
-2.00409e-06
-5.33582e-09
-1.99951e-06
-6.69741e-09
-1.99406e-06
-8.24959e-09
-1.98763e-06
-1.00247e-08
-1.98007e-06
-1.20541e-08
-1.97126e-06
-1.4368e-08
-1.96101e-06
-1.69933e-08
-1.94918e-06
-1.99527e-08
-1.93558e-06
-2.32638e-08
-1.92002e-06
-2.69384e-08
-1.90233e-06
-3.09835e-08
-1.88232e-06
-3.53965e-08
-1.85982e-06
-4.01644e-08
-1.83468e-06
-4.52628e-08
-1.80674e-06
-5.06562e-08
-1.7759e-06
-5.63004e-08
-1.74207e-06
-6.21485e-08
-1.70516e-06
-6.81557e-08
-1.66515e-06
-7.42785e-08
-1.62199e-06
-8.04726e-08
-1.57569e-06
-8.66974e-08
-1.52626e-06
-9.29272e-08
-1.4737e-06
-9.91626e-08
-1.41802e-06
-1.05436e-07
-1.35917e-06
-1.1179e-07
-1.29712e-06
-1.18273e-07
-1.23176e-06
-1.24963e-07
-1.16294e-06
-1.32011e-07
-1.0904e-06
-1.3963e-07
-1.0138e-06
-1.48041e-07
-9.32685e-07
-1.57464e-07
-8.46551e-07
-1.68155e-07
-7.54839e-07
-1.80353e-07
-6.57085e-07
-1.94102e-07
-5.53128e-07
-2.08923e-07
-4.43388e-07
-2.2322e-07
-3.28783e-07
-2.33839e-07
-2.06968e-07
-2.39336e-07
-7.58882e-08
-2.5094e-07
6.25017e-08
-2.6872e-07
2.08944e-07
-2.84013e-07
3.64334e-07
-2.98112e-07
5.28617e-07
-3.16028e-07
7.0106e-07
-3.34523e-07
8.7861e-07
-3.4485e-07
1.05772e-06
-3.47658e-07
1.23547e-06
-3.44522e-07
1.40909e-06
-3.35994e-07
1.5758e-06
-3.22144e-07
1.73283e-06
-3.03e-07
1.87736e-06
-2.78479e-07
2.00621e-06
-2.47977e-07
2.11558e-06
-2.08527e-07
2.19986e-06
-1.47631e-07
-4.5959e-08
2.25817e-06
1.57615e-08
-4.76196e-08
3.3001e-08
-5.13252e-08
5.0677e-08
-5.32568e-08
6.83848e-08
-5.40627e-08
8.58091e-08
-5.38491e-08
1.02687e-07
-5.2714e-08
1.18775e-07
-5.07637e-08
1.33825e-07
-4.81058e-08
1.47563e-07
-4.48283e-08
1.59748e-07
-4.09733e-08
1.70271e-07
-3.65342e-08
1.79089e-07
-3.15042e-08
1.8615e-07
-2.59032e-08
1.91388e-07
-1.97764e-08
1.94723e-07
-1.31854e-08
1.96082e-07
-6.20702e-09
1.95342e-07
1.06537e-09
1.9251e-07
8.54079e-09
1.87443e-07
1.60848e-08
1.79989e-07
2.35778e-08
1.70057e-07
3.09329e-08
1.57661e-07
3.80946e-08
1.42862e-07
4.50117e-08
1.25758e-07
5.16284e-08
1.06472e-07
5.78821e-08
8.51558e-08
6.37027e-08
6.19849e-08
6.90132e-08
3.7162e-08
7.37307e-08
1.09093e-08
7.77738e-08
-1.65438e-08
8.10703e-08
-4.4979e-08
8.35678e-08
-7.41919e-08
8.52353e-08
-1.03997e-07
8.60855e-08
-1.34231e-07
8.6209e-08
-1.64723e-07
8.58079e-08
-1.95207e-07
8.51958e-08
-2.25319e-07
8.46976e-08
-2.5488e-07
8.44541e-08
-2.84067e-07
8.43771e-08
-3.13102e-07
8.43182e-08
-3.42115e-07
8.41426e-08
-3.71128e-07
8.37699e-08
-4.00085e-07
8.32079e-08
-4.28908e-07
8.25462e-08
-4.57531e-07
8.19125e-08
-4.85934e-07
8.1425e-08
-5.14149e-07
8.11662e-08
-5.42255e-07
8.11784e-08
-5.70357e-07
8.14708e-08
-5.98569e-07
8.20304e-08
-6.27004e-07
8.28307e-08
-6.55758e-07
8.38385e-08
-6.84914e-07
8.5018e-08
-7.14538e-07
8.63333e-08
-7.44675e-07
8.77499e-08
-7.75355e-07
8.92345e-08
-8.06592e-07
9.07556e-08
-8.38383e-07
9.22829e-08
-8.70715e-07
9.37869e-08
-9.0356e-07
9.52392e-08
-9.36882e-07
9.66118e-08
-9.70632e-07
9.7878e-08
-1.00475e-06
9.90122e-08
-1.03918e-06
9.99905e-08
-1.07385e-06
1.00791e-07
-1.10867e-06
1.01396e-07
-1.14358e-06
1.01788e-07
-1.17848e-06
1.01956e-07
-1.2133e-06
1.01891e-07
-1.24794e-06
1.0159e-07
-1.28233e-06
1.0105e-07
-1.31638e-06
1.00277e-07
-1.35002e-06
9.92752e-08
-1.38317e-06
9.80553e-08
-1.41576e-06
9.66288e-08
-1.44773e-06
9.501e-08
-1.47901e-06
9.3214e-08
-1.50957e-06
9.12573e-08
-1.53933e-06
8.91565e-08
-1.56828e-06
8.69282e-08
-1.59637e-06
8.45886e-08
-1.62357e-06
8.21531e-08
-1.64985e-06
7.9636e-08
-1.6752e-06
7.70505e-08
-1.69959e-06
7.44082e-08
-1.72302e-06
7.17195e-08
-1.74546e-06
6.89937e-08
-1.76693e-06
6.62386e-08
-1.7874e-06
6.34615e-08
-1.80688e-06
6.06693e-08
-1.82536e-06
5.78685e-08
-1.84284e-06
5.50658e-08
-1.85934e-06
5.22685e-08
-1.87485e-06
4.94839e-08
-1.88939e-06
4.67205e-08
-1.90296e-06
4.39868e-08
-1.91558e-06
4.12918e-08
-1.92728e-06
3.86443e-08
-1.93806e-06
3.60523e-08
-1.94796e-06
3.35223e-08
-1.95699e-06
3.1059e-08
-1.96519e-06
2.86654e-08
-1.97257e-06
2.6343e-08
-1.97917e-06
2.40925e-08
-1.98501e-06
2.1914e-08
-1.9901e-06
1.98078e-08
-1.99449e-06
1.77743e-08
-1.99818e-06
1.58138e-08
-2.0012e-06
1.3927e-08
-2.00357e-06
1.21141e-08
-2.00532e-06
1.03749e-08
-2.00647e-06
8.70819e-09
-2.00704e-06
7.11183e-09
-2.00704e-06
5.58165e-09
-2.00649e-06
4.11142e-09
-2.0054e-06
2.69284e-09
-2.00378e-06
1.31533e-09
-2.00163e-06
-3.89112e-11
-1.99895e-06
-1.37715e-09
-1.99576e-06
-2.73508e-09
-1.99202e-06
-4.11571e-09
-1.98769e-06
-5.53002e-09
-1.98274e-06
-7.03456e-09
-1.97714e-06
-8.66321e-09
-1.97082e-06
-1.04531e-08
-1.96371e-06
-1.24487e-08
-1.95571e-06
-1.46927e-08
-1.94673e-06
-1.72301e-08
-1.93665e-06
-2.01061e-08
-1.92534e-06
-2.3365e-08
-1.91266e-06
-2.70488e-08
-1.89846e-06
-3.11949e-08
-1.88258e-06
-3.58342e-08
-1.86485e-06
-4.09898e-08
-1.84511e-06
-4.66766e-08
-1.8232e-06
-5.29004e-08
-1.79894e-06
-5.96549e-08
-1.77218e-06
-6.692e-08
-1.74279e-06
-7.46586e-08
-1.71063e-06
-8.28162e-08
-1.6756e-06
-9.1325e-08
-1.63764e-06
-1.00112e-07
-1.59669e-06
-1.09109e-07
-1.55271e-06
-1.18254e-07
-1.5057e-06
-1.27482e-07
-1.45566e-06
-1.36735e-07
-1.40261e-06
-1.45974e-07
-1.34658e-06
-1.55198e-07
-1.28756e-06
-1.64456e-07
-1.22553e-06
-1.73823e-07
-1.16042e-06
-1.83377e-07
-1.09216e-06
-1.93229e-07
-1.02057e-06
-2.036e-07
-9.45403e-07
-2.14794e-07
-8.66318e-07
-2.27125e-07
-7.82889e-07
-2.40893e-07
-6.94638e-07
-2.56405e-07
-6.01102e-07
-2.73889e-07
-5.01904e-07
-2.933e-07
-3.96804e-07
-3.14023e-07
-2.85518e-07
-3.34506e-07
-1.67059e-07
-3.52297e-07
-3.88057e-08
-3.67589e-07
9.82473e-08
-3.87993e-07
2.42333e-07
-4.12806e-07
3.94716e-07
-4.36396e-07
5.56172e-07
-4.59568e-07
7.25176e-07
-4.85033e-07
8.99669e-07
-5.09016e-07
1.07877e-06
-5.23949e-07
1.26018e-06
-5.29069e-07
1.44104e-06
-5.25384e-07
1.6184e-06
-5.13358e-07
1.78935e-06
-4.93093e-07
1.95103e-06
-4.64672e-07
2.1006e-06
-4.28052e-07
2.23519e-06
-3.82565e-07
2.35205e-06
-3.25392e-07
2.45062e-06
-2.46199e-07
-1.29814e-07
2.53447e-06
1.55756e-08
-6.31952e-08
3.14892e-08
-6.72389e-08
4.73334e-08
-6.91009e-08
6.28497e-08
-6.9579e-08
7.78299e-08
-6.88293e-08
9.21115e-08
-6.69955e-08
1.0555e-07
-6.42022e-08
1.17996e-07
-6.05522e-08
1.29291e-07
-5.61233e-08
1.39283e-07
-5.09648e-08
1.47852e-07
-4.51031e-08
1.54907e-07
-3.85592e-08
1.60366e-07
-3.13627e-08
1.64148e-07
-2.35586e-08
1.66171e-07
-1.52082e-08
1.66354e-07
-6.38948e-09
1.64615e-07
2.80411e-09
1.60889e-07
1.22665e-08
1.55095e-07
2.18788e-08
1.47153e-07
3.15196e-08
1.37009e-07
4.10769e-08
1.24653e-07
5.04511e-08
1.10115e-07
5.95496e-08
9.34621e-08
6.82813e-08
7.47912e-08
7.6553e-08
5.42261e-08
8.42678e-08
3.19138e-08
9.13255e-08
8.01966e-09
9.76248e-08
-1.72817e-08
1.03075e-07
-4.38148e-08
1.07603e-07
-7.14038e-08
1.11157e-07
-9.98813e-08
1.13713e-07
-1.29094e-07
1.15298e-07
-1.58894e-07
1.1601e-07
-1.89123e-07
1.16037e-07
-2.19574e-07
1.15647e-07
-2.49999e-07
1.15123e-07
-2.80203e-07
1.14658e-07
-3.10121e-07
1.14295e-07
-3.39763e-07
1.13961e-07
-3.69157e-07
1.13536e-07
-3.98328e-07
1.12941e-07
-4.273e-07
1.1218e-07
-4.56091e-07
1.11338e-07
-4.84721e-07
1.10542e-07
-5.13214e-07
1.09918e-07
-5.41614e-07
1.09567e-07
-5.69984e-07
1.09548e-07
-5.98399e-07
1.09886e-07
-6.26947e-07
1.10578e-07
-6.55712e-07
1.11596e-07
-6.84774e-07
1.12901e-07
-7.14203e-07
1.14447e-07
-7.44053e-07
1.16184e-07
-7.74365e-07
1.18061e-07
-8.05161e-07
1.20031e-07
-8.3645e-07
1.22045e-07
-8.68225e-07
1.24058e-07
-9.00464e-07
1.26027e-07
-9.33135e-07
1.2791e-07
-9.66193e-07
1.2967e-07
-9.99583e-07
1.31268e-07
-1.03324e-06
1.32672e-07
-1.0671e-06
1.3385e-07
-1.10109e-06
1.34775e-07
-1.13512e-06
1.35425e-07
-1.16911e-06
1.35782e-07
-1.20299e-06
1.35832e-07
-1.23666e-06
1.35566e-07
-1.27005e-06
1.34982e-07
-1.30308e-06
1.3408e-07
-1.33567e-06
1.32867e-07
-1.36775e-06
1.31354e-07
-1.39925e-06
1.29553e-07
-1.4301e-06
1.27482e-07
-1.46025e-06
1.2516e-07
-1.48965e-06
1.22609e-07
-1.51824e-06
1.1985e-07
-1.54599e-06
1.16905e-07
-1.57286e-06
1.13797e-07
-1.59882e-06
1.10548e-07
-1.62384e-06
1.07178e-07
-1.64791e-06
1.03705e-07
-1.67101e-06
1.00147e-07
-1.69312e-06
9.65193e-08
-1.71423e-06
9.28357e-08
-1.73435e-06
8.91078e-08
-1.75346e-06
8.53458e-08
-1.77155e-06
8.1559e-08
-1.78864e-06
7.7756e-08
-1.80472e-06
7.39453e-08
-1.81979e-06
7.01357e-08
-1.83385e-06
6.63363e-08
-1.84693e-06
6.25573e-08
-1.85902e-06
5.88095e-08
-1.87013e-06
5.51044e-08
-1.8803e-06
5.14543e-08
-1.88952e-06
4.78712e-08
-1.89784e-06
4.43657e-08
-1.90526e-06
4.09465e-08
-1.91182e-06
3.76192e-08
-1.91754e-06
3.43869e-08
-1.92245e-06
3.12506e-08
-1.92657e-06
2.82098e-08
-1.92992e-06
2.52638e-08
-1.93252e-06
2.24118e-08
-1.9344e-06
1.96533e-08
-1.93558e-06
1.69882e-08
-1.93606e-06
1.44164e-08
-1.93589e-06
1.19374e-08
-1.93506e-06