/*--------------------------------*- C++ -*----------------------------------*\
| =========                 |                                                 |
| \\      /  F ield         | OpenFOAM: The Open Source CFD Toolbox           |
|  \\    /   O peration     | Version:  2112                                  |
|   \\  /    A nd           | Website:  www.openfoam.com                      |
|    \\/     M anipulation  |                                                 |
\*---------------------------------------------------------------------------*/
FoamFile
{
    version     2.0;
    format      ascii;
    arch        "LSB;label=32;scalar=64";
    class       volVectorField;
    location    "0.15";
    object      U_0;
}
// * * * * * * * * * * * * * * * * * * * * * * * * * * * * * * * * * * * * * //

dimensions      [0 1 -1 0 0 0 0];

internalField   nonuniform List<vector> 
122250
(
(-35.4482 0.81956 0.152679)
(-7.15224 1.94772 0.0193298)
(-45.677 -3.49028 0.835674)
(14.075 -2.84895 -3.4667)
(-0.823139 0.256046 -2.63885)
(-7.43089 0.104002 -0.081747)
(2.63593 -0.923975 2.18522)
(1.56419 -0.0649551 2.96028)
(-0.0339393 -0.3129 2.23333)
(1.58536 -0.201727 1.95191)
(2.85601 0.0746248 1.28632)
(2.0009 0.266725 0.813736)
(1.19005 -0.428229 1.15041)
(1.75388 -0.815125 1.16815)
(3.66901 0.286163 -0.80414)
(1.51219 0.25912 -0.24914)
(0.632175 -0.292437 1.7584)
(0.606291 -0.156797 2.16244)
(-39.0999 4.47863 0.255731)
(-5.59109 6.35745 0.255457)
(-45.4953 -5.61025 2.47109)
(-2.24826 -3.96339 -1.01749)
(-15.0618 2.19631 -3.17677)
(4.66487 -2.77899 -1.19496)
(-1.93042 -1.74925 -0.172139)
(4.3097 0.449687 0.656558)
(2.51823 0.287 1.54251)
(1.65052 -0.44667 2.16615)
(1.88416 -0.75747 1.86571)
(2.12594 -0.438029 1.06608)
(2.09576 -0.836514 0.632504)
(1.28667 -1.65993 0.946128)
(2.42921 -0.469669 0.275786)
(3.10243 0.940163 -0.773492)
(3.64606 0.909203 -0.5854)
(3.72419 0.243146 0.426814)
(-36.518 7.37834 0.0912875)
(-3.22517 10.4049 0.149659)
(-43.517 -6.96745 4.08311)
(-6.49389 -6.01477 1.50627)
(-22.5515 -2.11322 -3.1261)
(6.78237 -4.9578 -1.37409)
(-2.04908 -1.99898 0.855055)
(3.59788 -0.778471 1.24101)
(3.05455 0.235101 1.52293)
(2.81369 0.163487 1.91301)
(1.98581 -0.428156 2.0763)
(2.54456 -0.504734 1.70002)
(2.07288 -0.964989 1.01732)
(1.77287 -1.87179 0.299459)
(1.56826 -1.16678 0.535179)
(2.87115 0.353481 -0.477674)
(4.17732 0.579038 -1.06964)
(5.05049 0.317598 -0.712749)
(-34.102 9.80428 -0.140925)
(-0.353996 14.1142 -0.395429)
(-40.1993 -8.50844 4.51575)
(-3.74652 -8.57385 4.56734)
(-13.7739 -5.70089 -2.03892)
(1.4316 -7.23116 -0.698701)
(-0.32464 -2.2098 -0.672081)
(3.36059 -1.83246 0.0774185)
(1.74726 -0.476768 1.06198)
(2.07822 0.0403146 1.3835)
(1.49227 -0.347391 1.87923)
(2.20361 -0.536317 2.02992)
(2.4521 -0.975619 1.02591)
(1.7329 -1.81744 0.305093)
(2.02326 -1.5254 0.180169)
(2.40517 -0.36065 -0.104839)
(3.44293 0.0527934 -0.524352)
(4.52893 -0.0632282 -0.28941)
(-31.2708 12.4454 -0.420631)
(4.04542 17.8955 -1.09605)
(-33.5047 -10.1847 4.39249)
(-5.27762 -11.8459 5.12124)
(-6.96219 -6.34146 -0.168574)
(3.67026 -8.18358 -0.906781)
(1.39674 -2.86007 -0.961529)
(4.48187 -1.30939 -0.760259)
(2.0174 0.021853 0.386278)
(2.24891 0.386348 0.891567)
(1.93858 0.0138562 1.58352)
(2.3532 -0.40424 1.96771)
(2.83641 -0.745446 1.14845)
(1.98389 -1.55463 0.117427)
(1.83977 -1.51333 0.247604)
(2.43426 -0.57031 0.307013)
(3.09769 -0.154398 0.0449307)
(4.05143 0.123316 0.0539995)
(-28.3646 14.4024 -0.670272)
(10.9365 21.1905 -1.48891)
(-21.7799 -9.08609 4.76824)
(-1.9844 -14.9376 4.98401)
(-2.54132 -8.7427 0.506764)
(4.19437 -8.75958 -0.650748)
(3.53213 -3.40235 -1.19389)
(5.24268 -1.76708 -1.05578)
(2.99651 -0.03147 -0.375385)
(2.53151 0.424319 0.454055)
(2.40689 0.28587 1.38528)
(2.50767 -0.190397 1.90806)
(2.80357 -0.396396 1.25664)
(2.14452 -1.19115 0.264591)
(1.47639 -1.61684 0.302616)
(2.22367 -0.407477 1.37688)
(2.8847 0.302141 1.19678)
(3.77327 0.698896 0.480933)
(-26.3076 14.7903 -0.819582)
(21.0444 24.3739 -1.18704)
(-7.88585 -5.98798 4.76397)
(3.49484 -15.5666 4.41974)
(3.63003 -10.2483 0.633988)
(6.02735 -8.88861 -0.773658)
(5.28536 -3.79804 -1.41832)
(6.0257 -1.45422 -1.13081)
(3.78023 0.524136 -0.727931)
(2.59269 1.108 0.253791)
(2.68975 0.904478 1.18759)
(2.82773 0.389172 1.73724)
(2.95753 0.104263 1.38188)
(2.50637 -0.66983 0.82944)
(1.19543 -1.63326 0.503615)
(1.58127 -0.370381 1.75651)
(2.3835 0.801534 1.90744)
(3.43452 1.2534 1.25709)
(-26.722 13.2081 -0.923629)
(29.4047 24.4537 -0.261254)
(6.13984 -3.27074 4.5602)
(9.87554 -14.7479 3.20456)
(8.75131 -11.2459 0.0740885)
(7.60221 -8.41161 -1.06776)
(6.20122 -3.56185 -1.45096)
(6.20173 -0.916298 -1.30621)
(4.38049 0.857715 -1.02849)
(3.05919 1.47197 -0.0349259)
(3.09559 1.30165 1.20146)
(3.16256 0.907431 1.75618)
(3.35131 0.584439 1.6388)
(3.17768 -0.055154 1.59899)
(1.54651 -1.06346 1.02804)
(1.02073 -0.381619 1.43959)
(1.99645 0.834437 2.10132)
(2.9943 1.53682 1.69531)
(-29.4444 10.3645 -0.952438)
(34.8152 22.263 0.756534)
(16.2004 -2.27536 3.7404)
(15.978 -12.855 1.65618)
(12.6917 -11.0045 -0.70373)
(8.58573 -7.66471 -1.41586)
(6.60207 -3.20748 -1.5478)
(6.12946 -0.34473 -1.43074)
(4.699 1.23213 -1.10144)
(3.55421 1.76667 -0.327724)
(3.56649 1.53118 0.934842)
(3.68866 1.27441 1.66142)
(4.02524 1.04824 1.8728)
(3.96473 0.435187 1.90318)
(2.55884 -0.343878 1.28752)
(1.27187 -0.46283 0.808903)
(1.67807 0.551868 1.37586)
(1.62696 1.33525 1.21645)
(-32.7615 7.42375 -0.86192)
(37.366 18.7151 1.6337)
(21.82 -1.59996 2.7299)
(19.2553 -10.0936 -0.0545568)
(14.1069 -9.81132 -1.55758)
(8.20886 -6.53076 -1.70157)
(5.8757 -2.42743 -1.68605)
(5.3049 0.402706 -1.60243)
(4.30477 1.65962 -1.15863)
(3.59859 1.93774 -0.440341)
(3.72183 1.65122 0.64862)
(4.00339 1.48397 1.46021)
(4.57412 1.39136 1.89716)
(4.39142 0.949841 2.04159)
(3.52828 0.32148 1.34156)
(2.25487 0.0688891 0.32365)
(1.53355 0.865179 0.778934)
(1.05599 1.26207 1.25675)
(-35.4052 5.00789 -0.695421)
(38.0783 13.8749 2.52218)
(22.2898 -2.64602 1.44513)
(19.5499 -7.70081 -1.64562)
(13.0638 -8.06303 -2.14297)
(6.61728 -5.30002 -1.83106)
(4.39413 -1.72441 -1.7913)
(4.11977 0.753027 -1.66097)
(3.58655 1.75413 -1.15379)
(3.36783 1.8574 -0.346231)
(3.65748 1.57885 0.649586)
(4.02641 1.53101 1.35542)
(4.58111 1.74992 1.76756)
(4.56492 1.55861 1.98016)
(3.95753 0.999869 1.37972)
(2.97364 0.701733 0.187304)
(1.85101 1.20863 0.508686)
(1.14793 1.40677 1.47487)
(-36.7516 3.27092 -0.562174)
(38.4498 8.60015 3.20129)
(19.4599 -3.45822 -0.194188)
(17.2379 -4.88916 -2.82697)
(9.78018 -6.14427 -2.22549)
(4.51412 -4.16754 -1.74902)
(2.82308 -1.29073 -1.74839)
(2.7795 1.04746 -1.63387)
(2.74363 1.82536 -1.02693)
(3.07479 1.86386 -0.0683772)
(3.53722 1.65941 0.789258)
(3.99282 1.66559 1.31899)
(4.69489 1.91379 1.78481)
(4.74866 1.85716 2.08085)
(3.97977 1.43133 1.47188)
(3.1767 1.09938 0.133294)
(2.09956 1.63399 0.45542)
(1.67631 1.57241 1.31746)
(-37.149 1.73588 -0.472508)
(38.5744 4.77358 0.622208)
(12.0373 -4.08919 -1.94898)
(12.8587 -2.38444 -3.09602)
(5.86957 -4.85209 -1.83162)
(3.05081 -3.4445 -1.56478)
(1.63651 -1.30639 -1.5346)
(1.72709 0.661956 -1.37999)
(1.95719 1.11297 -0.652494)
(2.64231 1.36997 0.330124)
(3.0225 1.61124 0.99036)
(3.34181 1.97006 1.22073)
(3.99658 2.43409 1.3825)
(4.3307 2.62629 1.47748)
(3.83149 2.15659 1.044)
(3.17723 1.44544 -0.0454339)
(2.375 1.6521 0.143102)
(1.91525 1.93225 1.22812)
(-36.432 -0.0328815 -0.459713)
(37.2026 0.280516 -1.39656)
(4.41551 -3.34103 -1.98979)
(9.87629 -0.232077 -2.38394)
(2.76992 -3.98524 -1.25724)
(2.21034 -2.93913 -1.37849)
(0.126419 -1.26759 -0.974826)
(1.07315 0.90066 -0.299512)
(1.69645 1.23834 0.820403)
(2.26462 1.73023 1.25232)
(2.58759 1.77042 1.16841)
(3.02079 1.882 1.10243)
(3.76691 2.18302 1.47799)
(3.87628 2.39974 1.89618)
(3.36373 2.24967 1.19053)
(3.05912 1.96232 -0.332661)
(2.29827 1.92288 0.0733494)
(1.77981 1.8157 1.45205)
(-34.9918 -1.91441 -0.589115)
(34.724 -3.40742 -1.70108)
(-0.0518425 -1.90297 -2.00427)
(8.37708 1.00804 -1.81475)
(1.2882 -3.30717 -0.81009)
(1.78566 -3.00478 -1.27796)
(-1.13979 -1.66478 0.648848)
(0.562424 -0.249527 1.64341)
(-0.51653 -0.177 1.08356)
(1.02835 1.52183 1.04011)
(1.1386 2.16869 0.882194)
(1.94276 2.61524 1.19127)
(2.44486 2.93874 1.14324)
(2.58075 3.01733 0.318055)
(2.79952 2.82677 -0.913562)
(2.73059 2.71912 -1.10365)
(2.33953 2.70646 -0.147892)
(2.06556 2.47548 0.653156)
(-34.2305 -3.8672 -0.784885)
(33.7341 -6.49244 -1.60776)
(-0.981751 0.455481 -2.2623)
(8.69252 0.840702 -1.73827)
(3.37452 -3.12477 -0.339446)
(1.78932 -4.09181 -1.37921)
(-1.85881 -0.864733 1.05345)
(0.178988 1.11243 1.40189)
(-1.96067 1.74555 -0.737488)
(-0.901572 2.0643 -0.60619)
(-1.2996 1.54358 -0.213073)
(-0.119038 2.17475 -0.152335)
(0.178925 1.78796 -0.671855)
(0.862097 2.40573 -0.990738)
(1.25772 2.96183 -0.691496)
(1.22495 3.08333 0.0407488)
(1.05388 2.64468 0.571633)
(0.940544 1.94231 0.728563)
(-35.7212 -6.24599 -0.748755)
(36.1796 -9.74462 -0.320077)
(8.21427 -3.10594 -5.37675)
(12.6115 -0.979391 -1.47813)
(11.892 -2.95751 1.72951)
(5.51124 -3.32587 -0.755262)
(-3.00837 -2.25134 1.68157)
(-0.541195 -0.10635 0.58879)
(-3.35669 -0.138997 -0.137663)
(-0.259138 0.644657 -0.352873)
(-0.221377 0.127865 -1.49111)
(0.77643 0.594092 -2.19188)
(-0.145183 1.22785 -1.68005)
(0.0223766 1.98292 -1.22235)
(-0.118514 1.99023 0.0555918)
(-0.196612 1.2783 0.68745)
(-0.289264 0.549434 0.551086)
(-0.0620877 0.567871 -0.0755043)
(-41.0392 -5.71944 -0.878597)
(39.3788 -5.7388 -0.617074)
(19.4191 -1.68331 -2.55972)
(25.2662 -1.93517 5.26281)
(14.1624 -0.365732 8.47286)
(12.9812 -0.355999 0.649924)
(0.711018 3.0137 2.6831)
(3.39367 3.80247 3.18586)
(1.81922 1.25846 3.10383)
(1.5423 -1.31869 2.7442)
(-1.23856 -0.339545 1.72852)
(-1.01903 0.904381 0.226629)
(-0.987861 1.0718 0.0779783)
(-0.331312 0.671159 0.871776)
(-0.453545 0.278566 1.69997)
(-1.0514 -0.154355 2.33701)
(-1.10256 0.0398034 1.64187)
(-0.918081 0.320861 1.03829)
(-44.562 1.66467 0.0493967)
(40.9284 2.58545 1.57212)
(23.7683 -0.481485 -5.4742)
(25.5913 -2.61876 -1.20723)
(15.9589 -2.5821 3.3256)
(8.7204 -0.121103 1.02546)
(3.44019 3.67599 3.56361)
(4.6151 3.915 4.90324)
(5.49098 2.13057 4.14768)
(4.793 1.57693 2.87986)
(3.7294 2.20194 1.64126)
(3.83528 2.55138 0.741229)
(4.56634 2.1554 0.552663)
(5.43747 1.04207 0.62457)
(5.78542 -0.107894 0.180567)
(5.40145 -0.598866 -0.564063)
(3.93512 -0.2733 -0.528954)
(1.81572 0.624506 -0.282555)
(-37.3788 6.00444 0.494309)
(37.306 8.35173 3.86943)
(14.9588 2.70587 -1.28705)
(9.44562 1.42389 -3.24565)
(1.24752 3.45817 -0.467789)
(3.42755 -1.09116 2.67882)
(1.4969 -1.41999 2.64966)
(3.59076 -2.77584 0.324445)
(3.54172 -2.57168 -1.48657)
(4.33205 -1.73893 -3.14117)
(5.03755 -1.19364 -3.84996)
(5.5871 -0.344987 -3.49545)
(5.90365 0.778355 -2.97175)
(5.82994 0.751063 -2.65381)
(5.76006 1.04029 -1.92858)
(3.27366 1.6408 -1.7181)
(0.623953 0.741488 -0.478032)
(-0.272852 0.66512 2.24694)
(-34.2077 4.13005 -0.281389)
(33.5356 6.91442 0.108363)
(0.289832 -0.0018552 -1.94703)
(9.40142 1.37689 -1.78016)
(2.60081 3.31569 0.6761)
(5.40091 -0.104849 0.356774)
(5.14665 -2.13916 0.705994)
(6.41684 -3.34067 -2.02051)
(5.80872 -4.44024 -3.71494)
(4.72532 -3.59202 -4.44459)
(3.29736 -1.23977 -3.72219)
(3.02472 0.779136 -1.62109)
(2.81565 2.02164 -0.319762)
(2.1545 2.7423 0.0637735)
(1.40672 2.86153 0.172158)
(0.8523 1.9544 1.00813)
(0.614112 1.15232 2.64215)
(0.000896545 0.353312 3.72524)
(-34.6792 1.6674 -0.259065)
(33.9913 3.8295 0.133746)
(-3.17414 1.43523 -0.71129)
(10.5302 0.79037 -1.00145)
(6.11417 2.24402 0.856604)
(7.5808 -0.416546 0.130305)
(7.33043 -2.59801 -1.17069)
(5.89775 -3.1842 -3.85643)
(1.4573 -1.85577 -4.24269)
(0.795548 0.753827 -0.857005)
(0.298785 1.88023 1.4347)
(-0.280922 2.11727 2.28183)
(-0.231291 1.60899 2.64128)
(0.208248 0.842342 2.69373)
(0.844302 0.140715 2.49184)
(1.4957 -0.283078 2.36274)
(1.79012 -0.217198 2.33116)
(1.74996 0.347044 2.05162)
(-35.2551 -0.464928 -0.196307)
(35.1323 -0.030074 0.563184)
(0.708613 2.50418 -0.738433)
(11.0703 0.786282 -1.01188)
(7.82761 1.14505 0.68265)
(7.62527 -0.977814 -0.682438)
(5.14189 -2.25445 -2.56441)
(0.91787 -0.962936 -3.9694)
(-1.1908 0.618354 -1.21269)
(-0.886758 2.01984 0.943166)
(-1.5262 1.46217 2.04799)
(-1.0156 0.489496 2.43292)
(-0.48634 -0.546429 2.51739)
(0.506636 -0.740299 1.92089)
(1.24374 -0.629307 0.837101)
(1.64599 -0.390175 -0.095943)
(1.82973 -0.0412129 -0.884936)
(2.01248 0.304022 -1.62193)
(-35.1823 -2.46005 -0.126759)
(35.4599 -4.25981 1.00482)
(4.19667 0.598453 -0.30563)
(11.2065 0.956241 -0.970383)
(8.09025 0.722144 0.464228)
(6.42584 -0.229595 -1.2506)
(2.95695 -0.281989 -2.46999)
(-0.560545 1.34552 -3.2688)
(-2.04391 2.0391 -1.10933)
(-1.15601 2.41791 0.177426)
(-1.87955 1.47207 0.420252)
(-1.07675 0.708753 0.88038)
(-1.03009 0.306838 0.800894)
(-0.358109 0.117784 0.317041)
(0.302012 -0.0625895 -0.452152)
(0.938364 -0.210477 -1.24923)
(1.32998 -0.173135 -1.95843)
(1.55224 0.0467462 -2.53387)
(-34.6666 -4.12938 -0.0545731)
(35.6726 -5.51666 2.70535)
(5.37293 1.84638 0.177436)
(10.6918 2.1841 -1.26349)
(7.41565 1.24372 -0.192462)
(4.73995 0.779911 -1.76307)
(1.02015 0.441671 -2.16837)
(0.251052 1.75766 -2.95966)
(-1.85963 2.20359 -2.24288)
(-0.873665 2.67147 -1.58975)
(-1.57193 2.02852 -1.71813)
(-0.959519 1.36017 -0.993909)
(-0.981687 0.93728 -0.0674437)
(-0.226427 0.588736 0.70173)
(0.688998 0.410201 1.06141)
(1.66203 0.498449 0.955785)
(2.46693 0.842621 0.527295)
(3.01673 1.21676 0.0893791)
(-34.3628 -5.40025 0.102379)
(36.2821 -7.29111 5.48375)
(4.93471 4.44129 0.77852)
(10.1244 3.65822 -1.68461)
(6.71254 2.0579 -0.674788)
(3.82441 1.6421 -1.86405)
(0.42143 0.558827 -1.8439)
(0.732155 1.1258 -2.33647)
(-1.76816 2.09003 -2.32672)
(-0.816568 2.51211 -2.21121)
(-1.30281 2.09906 -2.43864)
(-0.754745 1.83726 -1.8216)
(-0.789736 1.67546 -0.611387)
(0.18474 1.13635 0.651781)
(1.23675 0.610736 1.48661)
(2.28076 0.405421 2.07194)
(3.20205 0.461793 2.33989)
(3.97522 0.517544 2.16803)
(-34.5209 -6.11209 0.517999)
(37.311 -8.61601 5.96087)
(11.9064 1.72308 3.46026)
(11.9589 4.10832 -0.480093)
(8.17344 3.03861 -0.704909)
(4.78585 2.38149 -1.88835)
(0.807229 0.187022 -1.44557)
(-1.26226 0.5313 -1.55453)
(-2.08128 1.70458 -1.63073)
(-0.65526 2.06726 -1.71722)
(-0.933636 2.33371 -1.95264)
(-0.500305 2.34025 -1.90636)
(0.177449 1.63331 -1.08974)
(1.41251 0.347918 -0.0324905)
(2.19987 -0.503044 0.35691)
(2.85953 -0.592815 0.561587)
(3.38341 -0.225946 1.04041)
(3.55437 0.262159 1.0336)
(-35.2459 -6.34532 1.43701)
(37.9591 -6.59851 5.39361)
(5.69601 4.54115 3.18615)
(9.97248 5.18763 -2.84982)
(7.01149 3.52504 -2.15869)
(6.00302 3.0047 -1.97476)
(3.69972 1.319 -1.30761)
(-1.49253 -0.297895 -2.01183)
(-3.00149 0.0737057 -1.85384)
(-2.63322 0.973996 -1.90701)
(-2.48555 1.7212 -2.2504)
(-0.041845 1.47407 -2.44435)
(1.7426 0.586543 -1.88955)
(3.27787 -0.584699 -0.823411)
(3.59716 -1.4168 -0.483791)
(3.15743 -1.34355 -0.929625)
(3.12067 -0.40307 -1.22104)
(3.72428 0.0462398 -1.24957)
(-34.8541 -5.41992 3.48351)
(32.0964 -6.18525 5.66499)
(11.2165 1.01949 6.93905)
(9.65735 3.75688 2.69703)
(8.0994 2.63297 -1.15065)
(9.81353 1.94518 -2.44768)
(11.8614 1.36672 -0.9996)
(14.8333 0.828576 -1.47905)
(13.2535 0.157818 -2.47057)
(7.36529 -0.110097 -2.11999)
(2.78378 0.6244 -2.02888)
(3.60983 0.909005 -3.09714)
(6.3781 0.440189 -3.44668)
(8.76436 -0.528992 -2.02859)
(7.9574 -1.23873 -0.73374)
(5.54406 -1.5499 -1.01285)
(4.38002 -1.61722 -1.204)
(3.90543 -1.52222 -0.384252)
(-24.8407 -1.93617 5.18019)
(2.61705 1.59122 8.51667)
(-21.5346 4.55417 -3.17233)
(9.8698 3.47484 -2.50234)
(9.92241 1.93607 -1.96357)
(12.1934 0.964259 -1.93455)
(13.734 -0.117973 -0.862664)
(14.2314 -0.712162 -0.675693)
(13.2989 0.0197912 -1.57096)
(10.6838 0.653356 -1.74327)
(8.46666 1.00939 -1.50651)
(9.35754 0.35084 -1.68124)
(9.27743 -0.942046 -1.72544)
(7.13721 -1.22736 -0.830638)
(4.53663 -1.00771 -0.596009)
(1.39378 -0.22402 -0.542645)
(1.23338 0.522887 1.22324)
(1.16486 0.568666 2.17717)
(-34.6169 0.644034 -0.136117)
(-0.716602 2.90186 -1.52521)
(-44.8659 -0.463089 -1.92822)
(-8.43385 -1.42455 -2.09781)
(-25.31 -3.06224 1.4675)
(7.07261 -2.63773 2.74197)
(2.07023 -0.103119 1.24456)
(2.64928 0.0149863 1.06437)
(2.99976 -0.103505 0.788649)
(4.05229 -0.0136066 0.951443)
(3.87852 0.214199 1.4052)
(1.84768 0.328977 1.88873)
(0.368806 -0.247124 2.51852)
(1.38526 -0.878046 2.05305)
(3.45647 -0.121588 0.719826)
(1.26598 0.394167 0.589828)
(-0.258442 -0.117571 1.21868)
(-0.633415 0.455418 0.454252)
(-38.1838 3.89613 0.111269)
(-1.15565 6.36549 -0.27338)
(-44.6359 -2.40921 1.23763)
(2.99209 -4.42559 -2.08724)
(-19.731 -5.31053 -1.95387)
(1.2008 -5.09885 0.393628)
(-3.59077 0.189173 2.35904)
(3.44562 0.597489 0.232612)
(3.66445 0.376477 0.0354591)
(5.0435 0.536787 0.647204)
(5.86305 0.397781 1.33992)
(4.96877 0.318061 1.96641)
(4.29021 0.358279 3.10544)
(2.93383 -0.368213 3.0786)
(3.10984 -1.24001 1.23684)
(3.84745 0.246703 0.119737)
(2.8951 1.34694 0.326353)
(0.973545 0.979451 0.648958)
(-36.2244 6.70925 0.139174)
(-0.464298 10.4286 0.101224)
(-43.5558 -3.3015 2.59736)
(0.638638 -6.46926 1.74569)
(-14.1013 -5.51642 -0.628566)
(0.99544 -6.33556 -0.85082)
(-4.61724 -0.903314 2.76811)
(3.86083 -1.14414 2.10969)
(3.91363 0.322825 1.59174)
(5.35307 1.04714 1.11317)
(6.59188 0.945959 0.968943)
(6.23974 0.742744 1.64926)
(5.78788 0.533303 2.29466)
(6.6474 0.0633035 2.06481)
(5.00773 -1.09342 1.41217)
(4.4057 -0.744101 0.193706)
(5.06597 0.965398 -0.304983)
(4.53932 1.49132 -0.173496)
(-34.31 9.14335 0.0640251)
(0.72904 14.328 -0.112817)
(-43.0001 -4.5848 2.31975)
(-0.749694 -9.26936 2.24101)
(-11.0405 -7.61422 -0.254707)
(3.03176 -8.27275 -1.37104)
(-0.259468 -2.69797 -0.489833)
(2.96196 -1.85161 0.466494)
(2.23921 -0.250979 0.850652)
(4.51984 0.822676 0.690164)
(5.81237 1.12386 0.629947)
(5.97604 1.2098 1.2857)
(6.77625 1.08528 1.46653)
(6.9282 0.330234 1.18661)
(4.8777 -0.971296 1.04774)
(3.74388 -1.31075 0.185554)
(4.81253 0.201512 -0.634244)
(5.38984 1.12058 -0.846406)
(-31.9148 11.9333 -0.0726414)
(3.45149 18.5717 -0.485156)
(-38.9523 -5.15725 2.24931)
(-1.27739 -11.5051 2.68608)
(-6.09014 -8.58256 0.0567464)
(2.3677 -8.60425 -0.971657)
(1.48125 -2.86687 -1.14643)
(3.90944 -1.51557 -0.246764)
(1.86012 -0.00270874 -0.255432)
(3.32681 0.941337 -0.0924878)
(4.73699 1.53721 0.19961)
(5.68203 1.71554 0.833098)
(6.73653 1.35479 0.932535)
(6.78348 0.662165 0.685742)
(4.17472 -0.810824 0.99733)
(2.92616 -1.74901 0.353953)
(3.51782 -0.466264 -1.15448)
(3.92024 0.706819 -1.76594)
(-29.1876 14.2257 -0.210186)
(8.33066 22.2764 -0.730154)
(-30.1708 -5.23645 2.11022)
(0.288878 -14.1003 2.56699)
(-1.50874 -10.0206 0.35441)
(4.59394 -9.54759 -0.991391)
(3.761 -3.85467 -1.461)
(4.92929 -1.99509 -0.239043)
(2.20478 0.209078 -0.164097)
(2.44948 1.0208 -0.435984)
(3.71951 1.54142 -0.025231)
(5.08015 1.67703 0.597561)
(6.32303 1.33793 0.673703)
(6.23843 0.885087 0.493021)
(3.32812 -0.608295 1.04425)
(2.08382 -1.80669 0.926742)
(2.87511 -0.648281 -0.9173)
(3.67915 0.717975 -1.90967)
(-27.2249 14.9796 -0.280232)
(18.5829 26.5844 -0.748479)
(-16.6824 -2.71202 1.89202)
(4.49042 -14.8769 2.26866)
(3.93704 -11.0991 0.297011)
(5.60541 -9.20511 -0.910954)
(5.00584 -3.93637 -1.80374)
(5.64612 -1.58259 -0.924281)
(2.79365 0.717733 -0.176967)
(2.1089 1.52527 -0.653825)
(2.71203 1.64747 -0.735597)
(4.29319 1.51721 0.0910277)
(5.74418 1.27117 0.506105)
(5.23125 1.17292 0.581765)
(2.91441 -0.271615 1.07901)
(1.72607 -1.56558 1.48239)
(2.6766 -0.917892 -0.138479)
(3.85291 -0.174293 -1.95383)
(-27.537 13.6497 -0.324553)
(28.1659 27.6565 -0.372821)
(0.456116 0.776972 1.70207)
(10.2378 -13.9619 1.65753)
(8.97656 -11.7021 0.189776)
(7.47365 -8.8923 -0.816974)
(6.26705 -3.92894 -1.6271)
(6.03061 -1.14643 -1.29395)
(3.56306 0.96566 -0.326248)
(2.1041 2.06692 -0.165038)
(2.17699 2.1497 -0.378746)
(3.56619 1.6841 0.179488)
(4.80734 1.40247 0.680192)
(4.26699 1.4717 1.07289)
(3.22885 0.0116785 1.2235)
(1.96 -1.30952 1.32302)
(1.90178 -0.392853 0.801328)
(1.92599 0.80987 0.557358)
(-30.3053 10.776 -0.349122)
(34.5107 25.8536 0.134695)
(15.0204 2.45426 1.58053)
(16.8911 -11.9517 0.993679)
(13.0257 -11.362 -0.093821)
(8.43724 -7.96252 -0.917067)
(6.61491 -3.3658 -1.63254)
(5.86101 -0.4428 -1.43434)
(4.01617 1.26162 -0.576909)
(2.35907 2.22378 0.0927029)
(2.17954 2.50764 0.454335)
(3.06685 2.03676 0.702799)
(3.75257 1.77156 1.00021)
(3.87509 1.74591 1.66741)
(3.97671 0.549983 1.41829)
(2.7342 -0.684752 1.01715)
(1.24601 -0.113655 1.22503)
(0.738888 0.491231 1.43866)
(-33.7105 7.6297 -0.339212)
(37.5836 22.3573 0.579635)
(22.735 2.46372 1.23011)
(20.4731 -9.36412 0.255866)
(14.7857 -10.0163 -0.421507)
(8.37351 -6.80635 -0.935632)
(6.03716 -2.64466 -1.63606)
(5.18931 0.18592 -1.54604)
(3.81123 1.59507 -0.840041)
(2.64194 2.12635 0.035873)
(2.45813 2.43895 0.790213)
(2.78361 2.40822 1.08939)
(3.26753 2.2128 1.29609)
(3.51392 1.77357 1.77909)
(3.82089 0.756073 0.990118)
(3.72419 0.0582004 0.346877)
(2.22824 0.429411 1.11457)
(1.51817 0.560867 1.65713)
(-36.3712 5.05367 -0.310764)
(38.54 17.3758 1.37445)
(23.8789 1.06056 0.937798)
(20.9455 -6.743 -0.401363)
(14.093 -8.03975 -0.693832)
(7.00096 -5.49085 -0.956356)
(4.66288 -1.91272 -1.59241)
(4.09189 0.564942 -1.52411)
(3.09856 1.66377 -0.968222)
(2.64347 1.83531 -0.0788778)
(2.65028 2.00434 0.744168)
(2.67481 2.50614 1.12294)
(2.93007 2.68072 1.26706)
(3.2033 2.20834 1.49653)
(3.41158 1.10801 0.842244)
(3.41582 0.499191 0.210282)
(2.49799 0.957025 1.05043)
(1.97647 0.943573 1.73219)
(-37.6833 3.25552 -0.30483)
(38.9877 12.5399 1.54375)
(21.6055 -0.380583 0.215607)
(18.851 -4.16189 -0.990122)
(11.1277 -5.98255 -0.809488)
(5.00582 -4.31625 -0.89091)
(3.13873 -1.49306 -1.48705)
(2.7791 0.901043 -1.42994)
(2.14084 1.7801 -0.894739)
(2.3152 1.81447 -0.0665257)
(2.6697 1.89339 0.591726)
(2.78253 2.44054 1.01247)
(3.05891 2.75385 1.4093)
(3.27213 2.51741 1.77015)
(3.17217 1.61708 1.00039)
(3.07369 0.928202 0.0664509)
(2.60878 1.32953 0.877646)
(2.63707 1.30377 1.40132)
(-37.924 1.72028 -0.327429)
(39.1066 7.16313 0.4604)
(14.4702 -2.51953 -0.275653)
(14.2868 -1.74011 -1.13402)
(7.15832 -4.44439 -0.67276)
(3.46291 -3.53598 -0.679012)
(1.96295 -1.49201 -1.24021)
(1.7456 0.49135 -1.18943)
(1.09314 1.01593 -0.624356)
(1.63196 1.27081 0.174593)
(2.18794 1.65196 0.715668)
(2.38992 2.5457 0.802604)
(2.73681 3.20979 0.90167)
(3.01755 3.01147 1.3108)
(2.85145 1.98736 0.685037)
(2.78324 1.2742 -0.319982)
(2.59024 1.56047 0.547198)
(2.78821 1.81769 1.26912)
(-36.9319 -0.0426536 -0.404968)
(37.6408 1.11106 -0.344163)
(6.20841 -2.84062 -0.465782)
(10.5565 0.466918 -0.761683)
(3.64998 -3.46321 -0.369613)
(2.50029 -3.00335 -0.244808)
(0.447585 -1.33458 -0.731329)
(0.621591 1.18416 -0.42004)
(0.758179 1.47718 0.522448)
(1.50467 1.77477 0.606032)
(2.09162 1.83069 0.488961)
(2.63061 2.15032 0.4425)
(3.19986 2.4626 1.11583)
(2.9605 2.60032 2.05342)
(2.92 2.34586 0.688663)
(3.02566 1.81482 -0.945728)
(2.71997 2.06202 -0.136603)
(2.62196 2.318 0.984717)
(-35.2865 -1.94754 -0.643545)
(35.1181 -3.30274 -1.21825)
(1.3083 -1.51232 -0.829349)
(8.55615 1.89083 -0.547984)
(1.71056 -2.71098 -0.19544)
(2.04683 -3.01185 0.647981)
(-1.00199 -1.79846 0.861038)
(0.396753 -0.343629 1.34061)
(-0.150602 0.0550414 0.717433)
(1.61584 1.34264 0.548269)
(1.8042 2.08783 0.496014)
(1.99508 2.79312 0.598033)
(2.0541 3.11337 0.917067)
(2.13112 3.10724 0.204627)
(2.5045 2.56521 -1.25745)
(2.17194 2.44214 -1.11882)
(1.79693 2.91183 0.0079496)
(1.77408 3.19869 0.733089)
(-34.4958 -3.96234 -1.13832)
(34.1673 -6.26026 -2.92107)
(0.521911 0.787031 -1.17073)
(8.0729 2.4969 -0.16356)
(2.52658 -2.08605 -0.095025)
(1.9367 -4.22904 1.84567)
(-1.90519 -0.621927 1.72012)
(-1.21056 1.53923 1.19998)
(-2.76272 1.22122 -1.01458)
(-1.88745 1.86801 -0.808283)
(-1.86998 1.65655 -0.279715)
(-0.820387 1.79595 -0.00937457)
(-0.407232 1.21091 -0.157552)
(0.0955971 1.50322 -0.641395)
(0.0701804 1.94367 -0.098486)
(-0.0624158 2.02003 0.789655)
(-0.0525811 1.92459 1.27171)
(0.333391 1.63465 1.42294)
(-35.542 -6.46435 -1.99701)
(35.6826 -10.4482 -5.5531)
(2.97942 4.17545 -2.68858)
(8.35658 4.85356 1.02425)
(8.31719 -0.861695 1.00008)
(4.99389 -3.5015 2.1678)
(-1.79511 -1.8727 3.02836)
(1.47546 2.26762 1.02921)
(-1.62763 1.35187 -0.00426635)
(1.16204 1.96729 -0.78818)
(1.89696 1.78802 -1.43929)
(1.91351 1.52956 -1.52646)
(1.43167 0.638603 -0.63216)
(0.217807 1.3192 -0.149658)
(-0.225275 1.11283 0.913643)
(-0.128662 1.1582 1.60936)
(-0.0849602 1.48821 1.25656)
(0.206305 2.23912 0.0972484)
(-39.3507 -5.68565 -3.79067)
(33.7016 -1.79525 -15.056)
(11.9758 1.03103 -5.8724)
(12.2095 1.03689 5.94269)
(12.9081 -2.26386 6.85614)
(10.4505 -0.848968 2.75676)
(0.164668 2.72436 3.99976)
(1.23206 2.3313 3.42872)
(-3.65105 0.0127295 4.25436)
(-3.19936 0.000167184 3.42493)
(-4.32456 0.812243 0.749071)
(-1.73694 0.725878 -0.770982)
(-3.07805 0.0859284 -0.198109)
(-1.59376 -0.579969 0.62004)
(-1.96548 -0.841897 1.44118)
(-0.726545 -0.591143 1.67028)
(0.152624 0.349229 1.06424)
(0.615023 1.42347 0.831886)
(-43.5823 1.62196 -4.03542)
(40.4702 1.05572 -13.8113)
(-8.5027 -10.9086 -9.82166)
(8.65096 -7.32087 2.55115)
(4.34983 -1.7649 2.03567)
(3.79319 1.9927 4.96145)
(0.613237 3.1701 5.99743)
(3.54029 2.73805 6.88098)
(1.72757 2.14377 5.41428)
(1.4903 3.05026 4.31949)
(2.5871 3.34095 2.41883)
(4.92943 2.61598 0.709052)
(6.41159 2.37236 0.0842845)
(7.62938 3.5237 0.482924)
(8.39725 4.54925 1.13698)
(8.44732 2.83773 1.00451)
(6.88052 0.452349 0.665508)
(4.57645 0.201094 0.838353)
(-37.0496 5.80447 -1.80339)
(36.8943 9.11992 -5.61757)
(11.0598 1.76447 -3.49827)
(8.65528 0.13296 -1.19123)
(0.94177 2.83328 -1.47712)
(3.49616 0.57619 1.62802)
(1.59905 -0.0374094 1.53463)
(3.71508 0.178392 0.727092)
(4.21939 0.655402 -0.550325)
(5.47298 0.211085 -1.73447)
(5.7409 -1.01356 -2.92969)
(5.494 -1.51041 -3.17283)
(5.70572 -0.28409 -2.57136)
(5.71512 1.16774 -2.14726)
(5.96493 1.26176 -1.13572)
(5.78657 1.70217 0.273881)
(3.04456 1.75197 0.945868)
(0.740578 0.787716 2.67058)
(-34.2031 3.87196 -0.878757)
(33.533 6.86786 -1.49564)
(0.972455 -0.80673 -1.24265)
(10.0787 0.119336 0.0941249)
(5.84183 3.38821 0.664577)
(6.99863 3.0788 0.81213)
(6.73703 2.94855 0.181268)
(8.43566 0.486532 -1.46303)
(9.18043 -2.41719 -2.58828)
(8.04831 -3.29963 -3.20043)
(5.04747 -1.92416 -3.3643)
(3.3274 -0.143844 -2.00247)
(2.96393 1.321 -0.524174)
(2.78063 2.70465 0.357004)
(2.43731 3.52352 1.35328)
(1.64179 3.25995 2.2129)
(0.775646 2.34257 3.13563)
(0.371587 1.54277 3.9745)
(-34.7411 1.50213 -0.455031)
(34.0622 1.51441 -0.189002)
(5.27665 1.30272 0.501679)
(11.8095 0.17746 0.351484)
(9.93301 2.49509 1.11076)
(9.76612 3.66416 0.806451)
(10.3196 1.99753 -0.345738)
(11.1623 -1.00221 -1.93037)
(6.63104 -1.85395 -3.16196)
(2.54731 0.0614939 -1.97407)
(1.00763 1.45663 0.939262)
(0.328785 2.13536 2.27926)
(0.237621 2.26465 2.88695)
(0.669237 2.24807 3.15776)
(1.25011 2.1953 3.08728)
(1.70432 2.02781 2.82921)
(1.9305 1.84723 2.61248)
(2.10901 1.61495 2.11737)
(-35.3246 -0.59323 -0.325381)
(34.9055 -2.76888 0.0832984)
(6.714 -0.444414 1.44447)
(12.3954 0.11516 0.560076)
(10.8368 1.5811 1.13185)
(10.5434 1.83945 0.846892)
(10.2 -0.0328102 -0.473576)
(6.27088 -0.241408 -2.27539)
(0.310597 0.466476 -2.09172)
(0.144458 1.59126 0.308333)
(-0.948871 1.72271 1.74704)
(-0.592029 1.54076 2.26665)
(-0.14333 1.06748 2.17794)
(0.785357 1.09972 1.62923)
(1.49156 1.21652 0.864315)
(1.9866 1.29266 0.0735906)
(2.31483 1.30091 -0.654417)
(2.53731 1.20367 -1.36867)
(-35.3262 -2.57145 -0.329583)
(35.5188 -5.66608 -1.6301)
(7.24807 -1.18692 0.0668506)
(11.9748 0.535074 0.385986)
(10.2049 0.852971 0.986778)
(9.23768 0.766181 0.457995)
(6.61832 0.501821 -0.729155)
(2.18439 1.72606 -1.92204)
(-1.59277 2.26979 -1.556)
(-0.217991 2.15861 0.243114)
(-0.906796 2.2517 0.53594)
(-0.314017 1.798 0.534992)
(0.0254279 1.44306 0.0604431)
(0.600112 1.26402 -0.546419)
(1.01659 1.09734 -1.2033)
(1.37896 0.97092 -1.84261)
(1.67716 0.865823 -2.43267)
(1.89529 0.771242 -2.9385)
(-34.9226 -4.30628 -0.460197)
(35.9439 -7.17035 -1.29106)
(8.49507 0.324868 -1.40778)
(11.5026 1.54726 -0.114779)
(9.32956 0.861084 0.445017)
(6.771 1.06595 0.142183)
(3.0147 1.19319 -0.726298)
(1.49113 2.22899 -1.35455)
(-1.11166 2.02174 -1.81657)
(-0.111429 2.24615 -1.60999)
(-0.500862 2.47979 -1.4332)
(-0.0122791 2.18065 -1.57763)
(-0.104209 1.94083 -1.52817)
(0.0929729 1.8527 -1.30777)
(0.383986 1.82105 -1.11191)
(0.896311 1.81572 -1.02864)
(1.40798 1.74997 -1.02131)
(1.79659 1.58064 -1.06741)
(-34.7508 -5.65326 -0.829975)
(36.6104 -5.7742 -0.379978)
(10.4904 1.85005 0.67065)
(11.5535 2.37769 0.205397)
(8.65104 1.43004 -0.130649)
(5.2368 1.60881 0.188256)
(1.6119 0.73889 -0.057345)
(1.53658 1.12469 -0.334773)
(-0.876209 1.14717 -1.03264)
(-0.0600719 1.63559 -1.96017)
(-0.328574 2.14664 -2.26442)
(0.139972 2.23867 -2.47852)
(-0.20067 2.51044 -2.0666)
(-0.0963931 2.69274 -1.25315)
(0.538453 2.53676 -0.106023)
(1.59432 2.12802 0.860083)
(2.6563 1.769 1.43221)
(3.35459 1.58468 1.56801)
(-35.134 -6.37952 -1.51793)
(37.2597 -4.11644 -3.12224)
(14.5827 3.84505 1.73612)
(13.1186 3.58723 1.25899)
(10.0013 1.94502 0.155415)
(6.90958 2.02623 0.235478)
(2.74689 0.67665 0.167768)
(0.422683 0.297632 0.296432)
(0.021346 0.84002 -0.74155)
(0.650226 1.2854 -1.38942)
(0.816884 1.61112 -1.69175)
(1.05153 1.99355 -2.24155)
(0.511099 2.94437 -1.89563)
(0.444263 3.37362 -0.643974)
(0.903194 2.65506 0.469695)
(1.97159 1.80577 1.14125)
(2.7814 1.59838 1.55583)
(3.21582 1.70279 1.43455)
(-36.3333 -6.4748 -2.48)
(36.4308 -3.65289 -10.4245)
(20.2003 3.31737 0.548892)
(18.4852 4.09035 3.23171)
(11.3441 2.37099 1.31771)
(7.62515 2.14258 0.251718)
(4.97108 1.35612 -0.248282)
(-0.480639 -0.0156946 0.505965)
(-2.1478 0.0182122 0.291606)
(-1.96643 0.346894 -0.0954744)
(-1.92965 1.13752 -1.13056)
(-1.34463 2.32925 -1.57463)
(-1.43684 3.39854 -1.16732)
(-0.628251 3.25796 -0.445482)
(1.21004 1.36648 0.11726)
(2.72649 -0.108005 0.359969)
(3.23533 0.474563 0.500673)
(4.02408 1.14386 0.421025)
(-38.767 -4.93764 -4.04628)
(36.5532 -4.14954 -10.7129)
(13.3647 3.03425 -4.68891)
(18.465 4.31596 0.168588)
(16.9071 3.382 0.970975)
(16.5778 2.59314 0.900811)
(17.6458 1.89231 -0.613815)