/*--------------------------------*- C++ -*----------------------------------*\
| =========                 |                                                 |
| \\      /  F ield         | OpenFOAM: The Open Source CFD Toolbox           |
|  \\    /   O peration     | Version:  2112                                  |
|   \\  /    A nd           | Website:  www.openfoam.com                      |
|    \\/     M anipulation  |                                                 |
\*---------------------------------------------------------------------------*/
FoamFile
{
    version     2.0;
    format      ascii;
    arch        "LSB;label=32;scalar=64";
    class       volScalarField;
    location    "0.04";
    object      k_0;
}
// * * * * * * * * * * * * * * * * * * * * * * * * * * * * * * * * * * * * * //

dimensions      [0 2 -2 0 0 0 0];

internalField   nonuniform List<scalar> 
122250
(
179.684
26.3266
22.3717
11.4693
9.5632
8.77469
8.78736
7.70155
7.7556
7.90031
8.19531
9.1388
9.77799
9.47765
8.5317
7.88064
6.98331
6.43431
121.609
25.2687
12.8049
10.0454
8.86791
8.44118
8.33786
6.39074
5.36517
6.3364
5.82067
6.35198
6.79644
6.42347
5.82801
5.87957
5.87344
5.48847
123.182
29.8657
23.8535
10.3844
8.49583
7.24344
6.9874
6.53057
4.67307
5.72659
4.54447
4.21935
4.18881
4.18016
4.3156
4.21467
3.89881
3.29572
127.401
37.6975
37.4523
19.4695
18.8562
7.58766
8.46693
12.3628
5.00023
4.82489
3.66539
3.21389
3.17394
3.19122
3.41835
3.52085
3.57475
3.33687
131.784
44.8963
46.6879
40.7866
41.4093
20.6968
18.5846
17.5197
10.8919
5.91292
3.67025
2.93503
2.85953
2.87445
2.87505
3.01882
3.14764
2.88597
133.641
49.6212
54.6657
51.6696
53.7166
40.8981
27.8206
20.3124
13.4578
8.58052
4.96614
3.15485
2.73402
2.37244
2.16582
2.39756
2.54941
2.18114
130.263
56.8402
65.3171
55.0514
56.7954
47.5391
31.8028
22.2844
14.9987
9.51723
7.11541
4.15276
2.58433
2.03314
1.86135
1.97569
1.99731
1.68422
120.71
65.6996
75.9107
61.9332
58.7493
50.3965
34.8059
22.9534
15.1239
9.30458
6.5907
5.53836
3.18328
1.7886
1.47216
1.50872
1.54335
1.49198
108.06
75.0038
82.0279
64.4692
58.2754
54.5846
36.0158
22.8251
13.9069
9.16984
5.16199
4.36579
3.94963
2.2912
1.32395
1.29173
1.43189
1.48179
94.5806
79.1363
82.1159
62.8151
59.6161
55.9129
32.8811
20.5512
13.1866
8.21828
5.06768
3.42059
3.46297
3.14005
1.76112
1.43275
1.5575
1.61844
80.5143
78.1068
78.2394
61.2014
64.9337
54.0954
29.633
19.9873
13.0662
7.35291
4.63705
3.16647
2.84166
2.94629
2.61023
2.00292
2.1196
2.16424
67.2393
75.0707
74.8649
70.132
69.6568
47.2269
29.9915
20.2909
11.5377
6.17586
3.37046
2.90276
2.53732
2.59036
2.66958
2.48863
2.1829
2.07517
56.76
67.916
70.3646
69.8986
65.3902
41.9309
32.0219
18.0994
7.93517
3.76599
2.2688
2.25909
2.36489
2.3376
2.44342
2.58932
2.47477
2.08533
48.974
52.1106
54.3333
57.6014
54.2107
45.0786
26.3903
10.2948
3.89888
2.19237
1.91146
2.0888
2.36751
2.34952
2.31111
2.45328
2.51144
2.3572
42.6854
40.2446
39.4914
41.8506
40.1192
31.2598
12.9311
4.42303
1.98245
1.8786
2.09678
2.80222
3.11596
3.03773
2.58785
2.42856
2.46399
2.40312
39.4647
35.9698
37.9273
36.5449
34.8251
20.3932
6.41049
2.26566
1.98865
2.32824
3.13556
3.80539
4.26781
4.24949
3.8096
2.89792
2.67074
2.49261
40.1106
36.7537
40.1141
36.8086
36.0809
14.4469
7.91038
7.902
6.09626
4.43447
4.03068
4.04441
4.32449
4.52914
4.40332
3.6961
2.92173
2.63307
42.1757
39.0344
42.7567
39.8626
41.3424
31.1282
31.3347
22.9143
10.8006
8.43819
8.0277
7.52076
7.08116
6.90022
6.69191
6.17908
4.6808
3.53737
44.8777
42.0244
45.9933
43.6525
44.3714
40.6714
28.8135
14.6805
11.5707
11.4552
11.4905
11.2487
10.1537
9.0302
8.16837
6.39114
4.5512
3.50515
46.39
45.0129
48.4333
46.2325
42.9325
19.4776
10.8283
8.56486
8.64129
10.2745
11.3311
11.2727
10.595
9.84451
8.92544
6.91409
4.79346
3.46642
49.0154
49.1075
51.6137
40.7674
24.7986
10.8485
9.05356
6.88778
6.03874
9.18592
10.1865
10.1279
9.72771
9.15718
8.11151
6.26726
4.31057
2.94825
52.0175
54.8121
54.5816
33.2456
15.214
9.78089
8.89123
6.45864
5.26487
5.63261
5.77903
6.31839
6.26549
5.87519
5.11923
4.13909
3.12556
2.42601
55.4886
61.1058
59.3874
31.2533
13.9692
12.132
9.20259
5.87342
6.01458
5.86662
5.09347
5.29629
4.9196
4.42954
3.84855
3.32539
2.84458
2.48251
59.6916
68.3604
64.692
31.0127
14.6735
11.9772
6.73637
4.68683
8.70015
12.8073
9.77831
9.56828
12.1485
15.3958
16.1732
13.4698
8.39779
4.46891
65.4547
77.734
70.573
31.0558
15.3164
10.001
5.11256
5.61016
10.1622
11.2861
13.1257
20.6793
27.6926
29.696
28.6129
24.7735
21.1812
16.6759
73.4819
91.3104
79.0329
31.8269
18.3033
9.98309
7.19659
9.86089
10.8068
9.74689
9.75092
13.9006
23.3531
26.3354
26.8918
25.816
20.4086
16.8686
84.4011
110.526
90.6799
35.6148
22.9981
10.6356
14.4245
15.6557
12.6562
10.7081
10.8665
11.1883
12.5991
20.5674
28.7971
28.724
24.9034
15.5491
99.6147
124.696
90.9197
33.3998
20.1525
16.2015
17.2083
18.3814
16.3575
14.5411
14.9111
16.2908
20.0834
36.0276
46.3005
42.1081
30.5224
20.5455
121.18
127.326
63.9076
30.9867
29.4722
40.2633
36.8963
32.5468
25.1811
18.824
17.8058
22.2267
39.0619
63.7672
61.2522
43.0119
22.9117
15.4656
151.026
113.423
68.3235
35.1043
38.8169
51.8593
66.6226
67.623
64.2298
49.4341
38.4784
39.5714
48.8
68.354
74.6812
57.2365
34.0573
26.5105
208.462
38.218
34.8149
11.348
10.8344
10.4508
10.095
8.25368
9.2546
8.74554
8.44146
8.30147
8.48249
9.28492
10.2759
10.9788
11.2936
11.1529
133.055
28.6275
14.7908
13.3548
13.0568
10.4132
10.1589
7.69673
7.48929
7.12676
6.0354
5.96883
6.11324
6.53238
6.85866
6.95637
6.82175
6.06752
130.368
32.7226
25.5699
18.3885
17.307
10.4251
10.5537
12.0239
7.71309
6.58778
5.73243
5.50256
5.48482
5.469
5.31295
4.83441
4.56273
4.19017
131.93
39.838
37.9708
27.3329
30.9669
16.5033
17.4112
16.5101
8.56038
5.86426
5.00186
5.23561
5.28948
5.06762
4.50042
4.58959
5.32275
5.42212
134.921
46.0226
45.036
41.4068
48.8306
32.2989
23.6821
18.3053
11.8485
7.38079
4.7785
4.28796
4.59565
4.62846
4.31222
4.42955
4.22067
2.92248
136.602
50.3902
50.2892
42.9158
53.5501
48.4404
29.1421
21.5286
14.5363
9.14737
6.64968
4.47381
3.61367
3.80408
3.79136
3.37816
2.40138
1.91736
133.881
57.872
60.8021
49.0442
54.6612
53.7864
33.5167
23.3498
15.3259
9.51674
6.93951
5.59022
3.67117
2.60907
2.38473
2.06792
1.84522
1.79107
125.223
66.1942
72.8788
52.6738
59.605
57.1723
36.4703
24.0903
15.4481
10.1031
5.58215
4.91284
4.4274
2.62458
1.73003
1.57298
1.59165
1.60562
111.968
74.3718
80.3678
55.8574
62.3151
58.5785
36.8252
23.49
15.449
10.56
5.76844
3.79977
3.94189
3.61415
2.05452
1.47532
1.44678
1.45838
97.3837
79.1538
81.3282
61.1705
63.9888
58.8351
34.2987
21.4268
14.6537
9.27014
6.08957
3.57476
3.2725
3.5342
2.95919
1.70187
1.4268
1.3956
82.3662
78.2642
77.9635
60.8019
66.2341
56.2241
32.2965
20.9695
13.9376
8.209
5.03517
3.65637
2.76779
3.02445
3.18753
2.37938
1.68435
1.58348
68.45
75.3566
74.5402
69.5223
69.9707
51.0166
33.1233
20.0423
11.0314
6.34338
3.25144
2.9962
2.58241
2.48565
2.92501
2.83954
2.14633
1.91591
57.3879
68.5283
70.9503
70.7657
66.885
45.4289
32.0286
15.9
6.82028
3.63361
2.22026
2.14412
2.2994
2.24218
2.42764
2.81851
2.68532
2.50559
49.4334
52.9966
58.6897
60.5485
55.8343
44.1905
22.3061
8.4236
3.5773
2.32889
1.96033
2.0272
2.2664
2.24692
2.16947
2.39952
2.68817
2.82631
42.9864
41.355
40.9637
42.8528
40.2267
28.9893
11.1103
4.0813
2.1439
2.11934
2.30547
2.84068
3.09572
3.03736
2.59868
2.32344
2.39874
2.65215
39.616
36.1907
38.1958
36.745
34.7967
19.2307
5.62856
2.74676
2.39085
2.63403
3.29356
3.7777
4.10251
4.09902
3.89625
3.03857
2.57271
2.51742
40.135
36.7568
40.0716
36.7314
36.1795
14.7056
9.75254
8.45369
5.55536
4.33421
4.24135
4.26639
4.22375
4.2588
4.2467
3.99318
3.06347
2.6502
42.0604
38.8667
42.6314
39.8637
40.9652
33.9598
31.5593
19.1817
9.6775
8.66169
8.94837
9.00016
8.39608
7.17857
6.58223
5.73514
4.46042
3.55504
44.41
41.4939
45.5672
43.2384
43.0403
37.2893
22.033
11.7596
10.2618
10.49
11.1592
11.3624
11.1713
10.4836
9.12658
6.66213
4.65865
3.47975
45.3592
43.9256
47.2973
44.0839
36.7966
12.4005
8.52234
7.81076
7.95638
9.70718
10.5338
10.6291
10.4787
9.98166
8.66869
6.32058
4.51792
3.17629
47.9149
48.3689
50.2345
34.3632
15.2365
8.06151
7.96094
6.31753
5.04238
6.75259
7.90874
8.55088
8.58256
8.24416
7.09365
5.41473
3.75212
2.435
51.1921
54.7947
54.464
30.2451
11.6969
7.95113
7.45481
5.66137
4.82402
5.48273
5.4247
5.5644
5.40328
5.03613
4.44905
3.74004
2.96197
2.26495
54.9738
61.5517
60.5626
30.7577
11.9918
10.3507
8.70664
5.71599
6.0738
5.3712
4.46684
4.29448
4.39123
4.11268
3.71263
3.31509
2.87025
2.47059
59.5246
68.6424
66.3888
32.4608
13.6406
11.0743
7.24935
5.07692
8.11204
11.8765
10.8486
8.46614
10.5975
14.9182
16.8433
15.084
10.303
5.77286
65.843
76.6047
71.8002
34.3203
16.2078
10.1481
6.1243
6.00503
9.92251
10.1361
9.36094
13.3523
23.2224
28.2303
28.9368
27.9169
24.8406
22.2473
75.2425
86.5438
78.1589
36.7589
20.0191
10.6987
7.08145
7.8389
9.74865
9.49543
8.44383
9.10054
14.4107
21.4916
26.6119
28.497
27.1446
23.9407
89.0122
91.5186
86.7775
42.1685
25.4202
11.4422
10.3798
9.51245
9.32114
9.85011
11.2058
10.8437
11.2556
15.8983
32.9292
39.2231
36.1212
25.1535
106.839
88.1138
86.8406
46.3326
41.4028
16.7874
14.8322
12.4173
10.7412
12.5338
17.2906
17.9618
18.978
28.2306
56.458
55.6541
45.3571
29.0095
122.624
80.1507
69.519
46.6384
45.9428
55.4466
39.7685
25.3349
17.7182
17.1934
20.5355
32.1229
42.6251
70.7387
72.1451
54.9502
29.8121
21.1428
143.269
80.6632
65.183
61.562
69.2616
86.8358
100.88
105.931
95.3475
61.2448
52.299
54.7213
69.0214
85.0231
74.7248
50.1679
47.2493
55.4672
209.506
46.0303
46.8941
21.4722
21.2091
14.0726
12.9946
12.1971
9.61108
8.10538
7.03031
6.55651
6.47439
6.73006
7.84169
10.1039
11.6641
13.1875
139.659
39.2933
29.8429
29.9931
29.3227
20.3357
18.4138
14.4213
9.59797
8.23481
6.19564
5.02004
4.48237
4.26756
4.13379
4.14274
4.65259
5.17593
136.393
44.4119
42.8106
39.0248
37.8957
25.6868
20.9009
17.8333
13.1468
9.9717
7.5093
6.28865
5.45897
4.73776
4.65246
4.82499
4.7815
4.31843
137.488
49.551
49.3653
42.8992
44.1433
32.7341
23.2784
19.7283
13.8035
9.98159
7.47343
6.47051
5.70963
4.80572
4.34361
4.78629
5.97534
6.6979
139.496
53.5815
53.4457
47.9573
51.4068
44.9672
27.5228
20.9791
14.7368
10.6703
7.39994
6.12253
5.54685
4.87526
4.07376
3.73307
4.0018
4.6809
140.068
55.9321
56.9698
49.2957
54.9376
51.0705
31.2048
22.6035
15.8548
12.0581
7.67768
5.82669
5.09349
4.70208
3.9668
3.3354
3.16226
3.47219
136.654
60.9446
64.7841
53.4077
59.6721
54.7466
34.5057
23.2714
15.9748
12.8551
7.07002
5.08162
4.72218
4.4195
3.72874
3.15447
3.16021
3.49704
126.42
66.696
76.0613
53.4131
61.4803
56.3239
36.0334
23.4017
15.4224
12.9833
7.80921
4.15216
3.97196
4.00892
3.7604
3.45879
3.3349
3.18852
111.71
74.7322
83.6468
50.2759
60.3745
56.6262
36.5477
21.6357
14.4298
11.7637
9.08495
4.38543
3.35802
3.54095
3.69497
3.62726
3.10713
2.30841
96.4791
79.0834
84.0916
52.5344
58.9058
54.9784
34.0603
20.6269
13.9312
10.9024
8.63246
5.28665
3.1052
3.03495
3.40715
3.48723
2.8194
1.96246
81.6593
78.1512
80.6627
57.5546
62.8534
53.4932
32.7169
20.3684
12.9269
9.74637
6.42441
5.09929
3.3648
2.66545
2.88008
3.34783
2.9986
2.12679
68.091
75.2706
75.3756
68.8977
68.5865
49.6608
33.5397
18.5567
9.66073
6.98335
4.02894
3.32009
3.25203
2.53661
2.45796
2.92534
3.11947
2.90527
57.349
68.4788
72.418
71.8378
67.1141
48.9882
30.1779
13.1606
5.92761
4.03114
2.83178
2.34112
2.44322
2.42167
2.21071
2.36271
2.86428
3.23738
49.3942
53.2284
61.2179
62.5016
56.3506
41.8448
18.3485
7.15076
3.66156
2.87804
2.49295
2.32759
2.32188
2.32802
2.20699
2.16582
2.3281
2.83633
42.7263
41.6567
41.2993
41.9549
38.9683
26.9422
9.88557
4.20272
2.73687
2.61053
2.73679
3.08916
3.1813
3.12383
2.89771
2.38885
2.35509
2.47359
39.5611
36.2459
38.293
36.5082
34.6973
18.581
5.68026
3.27594
2.67539
2.87774
3.80899
4.87621
5.06586
4.98562
4.71246
4.04683
2.95568
2.64399
40.1848
36.8629
40.1872
36.9213
36.4863
14.3811
7.43696
6.03743
4.99979
5.3391
6.46327
7.14122
6.95218
6.22871
5.90553
5.50984
4.44934
3.36263
42.214
39.1109
42.8455
40.2461
41.1202
26.1125
22.7776
14.7488
9.13338
9.09068
10.0628
12.0231
12.1155
10.7047
8.62917
7.11779
5.35368
3.9988
44.5646
41.811
45.7659
43.4961
42.9383
31.51
18.5178
10.7848
9.48713
9.74673
10.8144
12.2971
12.8346
12.528
10.7904
7.54349
5.04078
3.44716
45.224
43.9829
47.2189
43.0736
33.5952
9.54756
7.29254
6.92956
7.28033
9.21495
10.6089
11.075
11.1728
10.8653
9.06441
6.05814
3.8156
2.32355
47.5798
49.1226
49.4988
31.1558
11.8563
7.22738
7.33224
5.88183
5.13549
7.00554
7.93488
8.21106
8.14436
7.51458
5.88046
4.37741
3.07592
2.05276
51.0126
56.094
55.6447
28.0916
9.34658
8.0998
7.33602
4.73092
4.40316
5.80255
6.04682
5.62895
5.12286
4.54943
3.92152
3.29553
2.62905
2.01589
55.1349
63.6619
63.3124
29.7714
9.74002
9.07855
7.87638
5.87688
6.50137
5.39597
4.50874
4.36501
4.6423
4.37669
3.91311
3.39845
2.86759
2.44034
60.2835
71.1143
70.154
32.7336
11.1752
9.30231
6.73442
6.29863
9.9212
10.7893
9.36347
8.97858
10.2841
11.9401
12.9081
11.7273
8.38839
5.48834
67.6602
78.4204
75.8488
36.8961
14.2277
8.1096
6.14288
6.93329
10.1847
9.55849
7.00358
7.45133
11.499
18.5956
22.864
23.5945
23.1044
21.8548
78.8517
85.6118
81.1912
42.4313
19.0826
9.02362
6.22793
6.74846
9.29359
9.6232
8.07482
7.04818
9.56182
14.4957
17.9076
21.3131
22.1058
22.2507
95.1321
88.3893
86.437
58.0083
27.8713
13.7399
7.87873
7.25529
8.27255
10.9269
12.1446
10.8783
10.5474
14.1593
29.1386
34.1673
31.4374
24.2241
115.289
85.7728
90.1945
73.6853
42.4242
19.919
11.8867
9.55338
10.1416
17.6234
20.8866
16.0923
11.7975
16.0755
43.0456
53.5258
45.2842
30.5089
125.955
83.6925
86.5089
76.508
41.8829
36.4097
30.5318
22.6053
23.0417
36.9083
45.2501
33.3064
18.4361
39.1786
65.9148
62.2702
37.9479
26.5681
148.842
93.2421
89.5318
98.3826
90.4863
93.2382
91.611
101.518
109.985
97.408
80.375
73.1084
70.3077
84.4596
76.8168
59.4339
63.6737
88.0002
223.241
53.4114
50.06
27.4367
29.9789
16.2748
13.0634
13.4573
10.6926
9.6293
8.37029
7.53603
7.29607
7.32193
7.35116
7.41451
7.85035
10.9544
148.024
46.0028
35.3852
37.4823
37.9171
25.1585
20.0335
20.3652
13.5935
8.90125
6.24745
4.80518
4.16136
3.99463
3.82518
3.68137
3.62268
3.58943
142.743
51.5472
48.5442
45.0597
45.0606
34.8578
27.0401
24.8825
16.1753
12.1193
8.287
6.09265
4.89918
4.55066
4.46611
4.30028
4.12991
3.70901
143.026
56.9747
57.2768
53.0467
54.1061
44.3421
32.6687
26.8846
17.833
13.454
8.95008
6.50149
5.16586
4.72113
4.73057
4.93371
5.20559
5.64185
143.687
60.0644
62.4848
58.5574
59.2153
51.6712
36.6371
27.5198
18.4271
13.7931
8.65503
5.63695
4.20075
3.98784
4.12069
4.49888
4.76606
5.07165
142.256
63.6034
68.3844
60.3889
60.2514
53.9029
38.6293
27.6665
18.3835
13.7155
8.08721
5.01664
3.86939
3.82778
4.01822
4.35107
4.58629
4.77833
135.079
66.9779
77.9671
58.9593
60.1244
54.5986
39.894
26.814
16.5022
11.6735
7.71734
4.55882
3.71358
3.77145
4.02227
4.2267
4.343
4.51004
121.556
73.0822
86.1339
52.1357
57.2873
54.1438
39.2686
24.4103
14.2029
9.11736
7.85976
5.18853
3.58188
3.53864
3.6956
3.90021
4.00564
4.19246
106.803
78.7246
88.0746
51.8916
55.5915
51.8466
35.1699
22.4012
13.4113
8.59349
7.43581
6.24819
3.65494
3.02452
3.09814
3.35919
3.5016
3.74681
92.6608
80.1726
85.5311
55.8012
56.0175
51.4674
33.8068
21.8138
13.4795
8.8106
7.33067
6.65111
5.0034
3.01983
2.79766
2.9457
3.18515
3.4084
79.2759
78.7073
78.8461
60.8831
61.757
51.8088
33.5225
22.3478
13.3262
8.56267
6.71902
6.05864
5.52841
3.74021
2.71706
2.76487
2.93916
3.20777
66.7455
75.2683
76.8574
69.2099
67.5724
50.8224
34.4968
20.2914
9.63091
5.87727
4.68958
3.86579
3.94059
3.82116
2.81876
2.61943
2.73547
3.0152
56.5846
67.5109
74.1258
74.026
68.5818
50.8229
28.9357
12.2107
5.58616
3.73974
3.48426
3.06119
2.84751
2.92588
2.74827
2.45422
2.5441
2.84453
48.5305
53.643
65.9823
66.7005
56.3413
35.5884
16.6302
7.16564
3.76791
2.99581
3.05529
3.19007
3.00184
2.80825
2.73607
2.51065
2.49067
2.62959
41.8918
42.5914
43.5603
43.2359
38.5005
26.318
10.765
4.81046
3.06346
2.81265
3.02431
4.04665
4.39962
4.29845
3.98852
3.29263
2.76522
2.69235
39.2294
36.2613
38.1719
36.4457
34.8612
18.5223
6.15094
3.52365
2.87018
3.06249
4.29113
6.89959
7.75774
7.70822
7.51634
6.97246
5.31616
3.95667
40.1796
36.9311
40.3524
37.2384
36.6751
13.8301
4.7408
4.25248
4.34493
5.51442
8.85776
11.2859
11.3271
10.3377
9.38878
8.0124
6.0625
4.76819
42.5211
39.4797
43.2026
40.6309
41.2157
19.4872
13.436
11.502
8.66224
8.9872
10.689
15.5556
18.1448
17.5702
13.8235
9.82005
6.76179
4.788
45.1986
42.5337
46.3007
43.9658
43.3873
22.811
15.0669
11.0561
9.29191
9.31426
9.69594
11.0839
13.7871
14.4595
13.483
10.0416
6.30599
3.96215
45.9806
44.9151
48.1745
43.8368
35.2976
9.69105
6.92149
6.75875
7.11033
8.22883
8.61688
8.57818
8.46767
8.34752
7.91983
6.10386
3.79772
2.3532
48.1332
49.6383
50.0116
31.0215
12.6468
7.0896
6.75883
6.05931
5.81229
6.37124
6.95953
6.92313
6.57922
5.95658
5.0937
3.89588
2.71142
1.96276
51.5607
56.4841
55.828
27.8993
10.2731
9.29169
7.01672
4.62974
4.22685
4.61068
4.94596
4.94838
4.5988
4.1306
3.54783
2.93136
2.36248
1.94662
55.7985
63.8416
63.239
29.5348
11.103
10.4291
7.80661
7.1509
8.13133
5.41887
4.22929
4.0605
3.79256
3.32046
2.99433
2.67308
2.33183
2.08
61.2235
71.6749
70.5933
31.9075
12.1504
11.0147
7.99035
7.74118
10.5252
10.4523
7.20477
6.29582
6.09529
5.25383
4.91681
4.45393
3.76895
3.26709
68.731
80.1096
77.4871
33.7412
12.5076
9.85585
7.80931
8.12564
9.51397
7.14731
5.09747
5.02959
5.53899
5.76364
6.53871
8.37546
9.83986
10.1528
78.9697
88.2224
85.2831
38.6141
15.1221
11.3086
7.8765
7.99512
10.3036
10.4756
7.32559
5.78926
6.297
8.83535
12.0034
12.949
12.0318
10.4508
91.9515
95.6848
96.534
53.9625
23.0104
16.4833
9.7097
8.69555
11.3676
12.6017
11.9215
9.2423
8.66678
12.8641
24.1774
30.5643
29.1009
22.8231
107.06
103.939
106.265
87.7978
41.5949
21.1181
11.5159
10.3619
14.7096
21.3205
19.2872
11.4847
9.56497
13.2621
34.9489
51.9187
48.8137
30.0729
125.808
112.609
106.559
94.9374
54.9537
28.4154
16.6602
16.7989
23.9529
44.2483
48.3813
27.1937
12.4767
14.8538
38.0575
68.6642
69.4467
48.2182
174.661
126.744
135.905
126.364
101.295
84.2158
64.2556
66.4406
91.2789
105.407
106.883
77.8198
37.4071
42.8158
67.8979
82.8756
98.0323
105.295
193.894
55.0522
50.7079
25.752
26.0792
14.4711
14.7463
17.4085
12.5034
10.0694
8.64274
7.90416
7.68619
7.69284
7.82461
8.26244
9.30002
11.9011
141.727
51.2911
40.28
31.8587
28.8038
20.5863
21.7921
25.772
15.8063
9.94401
6.64929
4.89084
4.05383
3.64612
3.42197
3.36473
3.47084
3.61476
145.21
56.7226
50.205
45.7672
34.6526
29.0554
33.505
31.6658
20.4936
14.3339
10.3381
7.54348
5.79978
4.87201
4.23535
3.82026
3.67024
3.33436
147.133
62.2692
64.6066
54.3951
49.2036
41.7426
41.8633
37.1098
22.9101
15.7559
11.3753
8.58258
6.64164
5.64684
5.40109
5.42314
5.67688
6.35928
146.435
65.469
73.1329
59.6764
54.4504
46.4804
43.3634
38.4595
24.4186
16.367
11.4527
8.551
6.63754
5.5168
5.30562
5.39134
5.70325
6.43372
141.139
67.6128
82.6935
60.2696
54.9968
47.6809
43.6995
38.3341
24.2405
15.4053
9.68355
6.97009
5.51181
4.70369
4.57251
4.66006
4.91473
5.2698
128.728
72.7225
88.3945
56.6245
53.8634
48.2093
41.0932
33.8439
20.5779
12.1139
7.88042
5.56693
4.32792
3.69334
3.60153
3.64949
3.79971
4.11925
114.544
78.5055
89.8117
57.6888
54.3379
48.5329
36.1887
26.2151
16.8265
10.5569
7.87534
6.29402
4.76258
3.73195
3.48014
3.49597
3.57351
3.76338
100.981
83.1751
88.3495
63.3551
58.4472
49.413
33.634
23.5283
14.7666
9.77453
7.99195
7.29079
6.21617
4.69093
3.79033
3.5019
3.47535
3.53494
88.4704
82.9775
84.2549
70.146
65.5712
52.2706
33.3595
22.1261
13.6567
8.98011
7.49135
7.11559
6.72537
5.63192
4.14316
3.36257
3.15643
3.17641
76.225
81.1673
82.0842
75.4403
73.9673
54.8612
33.8111
21.1282
11.933
6.87448
5.7889
5.87765
6.24512
6.16372
5.28232
3.71741
3.16513
3.10919
64.6213
77.339
81.079
80.9496
77.2435
54.5097
31.3198
16.1458
7.63623
4.58427
4.02415
4.13744
5.02654
5.79971
5.65943
4.78935
3.70494
3.43592
54.9589
68.7784
78.7556
80.4193
73.2086
47.0212
22.1306
10.397
5.27865
3.63125
3.41283
3.56629
3.88407
4.61545
4.84959
4.68599
4.18593
3.99239
46.8761
57.1714
72.7622
73.6259
61.329
33.3805
15.8811
7.54675
4.06886
3.17769
3.17052
3.59813
3.88191
3.79241
3.85021
3.99413
3.99265
3.95085
40.6364
45.8814
51.1769
50.8975
42.2134
24.6595
11.6327
5.39761
3.39857
3.03311
3.21168
4.29976
4.94574
4.93043
4.63422
3.97289
3.81864
3.79933
38.7092
36.801
38.4003
37.5189
34.7466
17.6288
5.38057
3.44772
3.0904
3.38677
4.91441
8.57732
9.86216
9.82589
9.57639
8.57159
5.99754
4.79838
40.0742
36.9355
40.4816
37.5516
36.8245
13.414
3.30904
3.3627
4.24146
6.69957
11.4656
16.0843
17.8131
17.6076
16.846
15.2628
10.098
6.5516
42.807
39.774
43.5104
40.8424
41.2352
16.6973
8.86091
9.27987
8.58497
9.36642
12.5
16.5536
20.1839
21.5448
20.7866
16.9821
10.597
6.64072
45.9156
43.1971
46.7585
44.156
43.6167
19.0464
12.1315
11.1047
8.99246
8.55645
8.73135
9.62568
12.0794
14.6293
15.3015
14.2602
9.80274
5.64796
47.0903
45.941
48.8278
44.5256
36.915
9.71061
7.0171
7.26484
7.5721
7.73879
7.70766
7.52764
7.12748
6.85428
6.60299
6.42811
5.29624
3.71213
49.1777
49.9658
50.3431
31.9939
14.3274
6.17135
6.40176
6.91356
7.00529
6.91652
6.60152
5.97228
5.49484
5.07182
4.62477
4.05866
3.24853
2.63382
52.4883
56.2725
55.0621
28.4242
12.0141
8.11799
6.76061
4.91868
4.44286
4.81814
5.20475
5.09063
4.58509
4.05993
3.53202
3.01746
2.53374
2.2196
56.559
63.4032
61.5779
29.7609
13.6135
10.5257
6.86152
4.85499
6.39124
4.68906
3.72865
3.6043
2.98731
2.61734
2.52087
2.49084
2.40078
2.29458
61.7273
70.9976
68.217
31.9624
15.9083
12.0721
6.73317
4.50677
5.59153
4.94045
4.12364
3.88777
3.40506
2.99193
2.87645
2.90245
2.88487
2.80903
69.0049
79.2464
74.5347
34.2659
17.0305
12.2998
7.75557
7.44745
7.17496
5.23633
4.33409
4.39388
4.13781
3.8945
4.01248
4.03475
4.00197
3.93285
78.8203
88.8019
82.7882
39.4209
19.1991
13.8036
8.36603
8.45851
11.5071
10.6513
6.74877
5.57092
5.63059
8.24874
12.4214
13.0007
8.95115
6.12078
90.9297
98.5051
93.9506
51.1125
24.8284
14.8113
9.68416
10.4838
15.5462
14.8824
10.1329
7.38414
7.75104
11.5071
19.7756
28.1129
26.8527
18.2375
104.602
105.902
100.14
68.9107
34.1728
16.1259
12.8087
14.03
19.3363
20.7527
14.498
8.39696
8.55937
12.205
26.1497
52.6851
52.2835
37.7866
120.218
113.021
77.2328
50.2282
27.4063
20.298
17.7686
17.3234
19.8763
29.1425
24.7348
11.35
10.6886
13.3383
26.5802
70.3971
81.1902
71.4199
159.507
124.421
123.104
76.854
78.8521
71.3782
55.359
56.4883
67.3439
99.2789
94.8337
41.9512
26.6917
28.939
42.7783
86.2229
95.0846
81.3207
337.326
190.085
98.9278
28.7049
25.55
15.2866
14.7012
15.5744
14.348
13.0008
12.4926
12.3905
12.4426
12.6288
13.0584
14.0295
14.4172
14.29
201.724
105.016
71.2376
36.0654
23.5713
16.3816
16.0298
16.3115
13.0018
10.7217
8.55046
7.40867
6.94957
6.96946
7.09691
7.53384
7.48511
6.74742
177.36
88.2575
64.9167
51.9824
26.3739
17.731
20.2212
19.6195
14.5288
11.037
7.73742
6.47797
5.83225
5.32104
5.09277
5.16804
5.58618
5.84529
164.609
83.3615
73.3337
46.8968
33.9405
21.9297
20.766
24.2388
17.6225
11.0815
7.64655
6.22861
5.79412
5.51863
5.4544
5.58974
5.89264
5.9643
152.02
81.7909
84.0365
49.4051
43.4035
30.9608
28.0799
24.6087
17.4663
11.9876
8.58928
6.72595
6.1281
6.09462
6.28135
6.65205
6.77674
6.71031
137.458
82.8395
92.0242
53.4522
45.6587
31.5043
27.3753
23.5626
18.0985
13.6674
10.518
8.14571
7.03207
6.96567
7.51965
7.99921
7.87628
7.24071
122.543
85.5431
94.111
59.3142
50.448
35.793
24.511
20.9729
15.6902
12.3647
9.7444
8.28926
7.97993
8.19457
9.43175
10.3926
10.2204
9.28392
108.71
88.2053
92.8285
66.9869
60.5831
45.567
25.3685
19.4932
13.5294
10.492
8.38771
7.25597
6.91641
6.81892
6.7782
6.78463
6.96473
7.83714
96.3343
87.8645
89.2658
77.059
72.8158
50.4694
25.8703
16.2323
10.482
8.38528
7.43183
6.66538
6.22291
6.05005
5.81822
5.4627
5.24071
5.25202
84.98
86.3495
87.4777
84.0777
78.2623
52.6854
25.0966
15.0107
8.55826
5.59453
5.27405
5.41291
5.53331
5.52098
5.41777
5.08358
4.60187
4.43569
73.5812
82.5958
86.3186
85.6999
80.0923
53.2521
25.2015
13.996
7.7631
4.6978
4.10176
4.16094
4.70004
5.10466
5.12927
4.99342
4.45979
4.08051
62.8217
77.9641
85.0126
85.9878
79.6348
51.5042
23.7913
11.7832
6.81179
4.52598
3.93785
3.9095
4.17852
5.14195
5.6065
5.60206
5.4449
5.07681
53.7868
68.3391
82.114
83.3541
74.4962
44.7207
21.2333
10.6938
6.09845
4.43977
3.98562
3.96917
4.05697
4.53569
5.4757
5.94831
6.07371
6.06477
45.727
57.3628
75.3499
76.7021
64.7144
33.2344
15.5235
8.39108
4.86945
3.81321
3.76659
3.9932
4.19806
4.14513
4.09864
4.39627
5.4337
5.91941
39.7794
47.4846
56.5112
57.2966
44.9774
22.1601
9.01728
4.90431
3.68408
3.54378
3.71772
4.79928
5.45337
5.43105
5.05288
4.04542
4.08516
4.68528
38.3262
37.5139
39.3023
39.047
33.7951
15.4742
4.45943
3.17819
3.26087
3.71201
4.95978
8.73198
10.7972
10.8817
10.5264
9.03245
5.81261
4.75996
39.9375
36.9201
40.5143
37.8132
36.6154
13.2829
2.86018
2.76482
4.02566
8.07584
12.2583
16.6444
20.1071
21.0901
20.8994
19.7158
14.0315
8.13609
42.9861
39.9385
43.6888
40.8789
41.1699
15.7204
6.84274
7.57058
8.64803
12.2281
15.5389
16.7096
18.2913
20.6033
21.5326
20.9301
16.1755
10.1983
46.4509
43.6509
47.0543
44.0849
43.6632
18.2026
11.2277
11.1815
9.47638
8.35134
8.52203
9.60892
11.4363
12.8296
14.1183
14.4056
12.6518
8.68212
48.0637
46.7415
49.2347
44.8484
37.6266
9.92594
6.96332
7.57099
7.73183
7.63559
7.43522
7.29253
6.93051
6.52192
6.33318
5.95534
5.42315
4.75642
50.2246
50.4792
50.8313
33.4279
15.4438
5.25698
6.13408
7.68394
7.97108
7.78852
7.10221
6.25111
5.63397
5.27812
4.9967
4.56605
4.06558
3.70689
53.3362
56.3385
54.7003
29.0342
12.7385
6.07552
6.77805
6.65578
5.16207
5.27184
5.44417
5.2969
5.16859
5.13213
4.75959
4.09822
3.54393
3.26589
57.1215
63.0351
60.522
29.9437
14.422
9.81589
7.14315
4.07538
3.68633
3.32333
3.40364
3.45759
3.04189
3.19137
3.53645
3.6055
3.51666
3.31654
61.8868
69.3691
66.1554
31.9175
16.7479
10.5937
5.8333
3.80078
3.91161
3.81255
3.79937
4.16059
4.63239
5.49683
6.63353
7.56408
7.61269
7.01196
69.1347
74.8556
71.0919
34.1009
17.4645
10.3442
6.73143
6.16657
6.46941
6.12027
5.90432
6.79944
9.08124
12.0382
15.4089
16.9741
15.7442
13.9313
80.5979
78.773
74.023
38.0403
17.6247
10.7456
8.02268
8.31779
12.0915
11.9161
9.2969
8.37528
9.24768
11.9141
16.2093
22.738
25.6175
21.8138
96.8114
79.4062
77.4458
49.5905
22.8272
11.7878
9.1725
10.878
19.8
20.4343
13.9698
9.89001
10.3885
13.0573
15.1591
20.2235
28.0226
28.4163
115.082
74.8631
83.3063
54.8348
23.6239
12.7077
12.1344
16.3991
28.0393
33.4638
27.2136
14.1206
12.7716
14.3583
17.0135
27.2119
42.61
44.4769
122.788
74.4558
67.9032
40.4585
31.6309
18.1723
18.446
20.4601
28.8096
55.3048
53.8696
30.3643
18.8436
17.7976
21.4109
44.709
73.3951
74.8825
150.07
88.4825
77.5236
64.5574
75.0448
69.4741
59.9415
64.2729
85.1888
110.973
99.8137
46.2429
31.5398
32.61
43.0073
83.7637
93.9511
66.4572
226.975
104.73
76.5362
28.5113
25.8339
18.9021
17.0331
17.5045
15.8657
15.0118
14.4836
14.2326
14.1991
14.6136
15.9151
15.5487
12.6831
11.2769
173.299
87.7241
46.674
30.8628
25.2345
23.7565
20.4382
19.0441
13.6826
10.5004
7.38995
5.72971
5.01729
4.91644
5.14234
6.48897
7.10913
7.01838
158.409
84.8925
73.5761
37.8861
29.0997
24.2226
23.7503
18.7768
14.6813
12.7821
9.2223
7.27338
6.05639
5.19966
5.06726
5.39794
6.54578
7.7437
146.987
86.0206
85.4491
41.4608
35.4389
24.3327
21.8306
16.8579
13.0222
11.4745
8.86305
7.28887
6.58563
6.0451
5.86847
5.82988
5.95062
6.57708
135.707
89.3779
91.9497
43.9025
43.7172
27.5722
20.2332
16.7934
11.9883
9.98878
7.60908
6.05373
5.72646
5.82746
6.03761
5.98449
5.69527
5.81318
124.278
92.272
94.6694
51.1429
50.0872
34.4712
20.6351
17.192
11.8735
9.80119
7.31572
5.43698
4.72373
4.7217
4.85299
4.82637
4.65416
4.72598
113.126
93.7916
93.8926
61.7331
60.0589
47.0401
24.6817
17.3925
11.4606
9.50354
7.49988
5.51064
4.53846
4.40531
4.45401
4.38795
4.33676
4.41939
102.469
93.3424
91.7504
71.8692
68.9772
56.1991
26.8223
16.8208
10.9717
8.4877
7.48022
6.73872
6.04965
5.3632
4.8549
4.61918
4.62284
4.7304
92.4968
91.5899
90.6955
80.9849
77.6363
60.9205
27.845
16.2554
9.94075
7.10745
6.75223
6.74573
6.48719
5.74479
4.96093
4.54029
4.50765
4.60125
82.5715
88.7364
89.4557
86.5009
81.0328
62.3732
28.8647
15.877
9.64516
6.47094
5.69033
5.77837
5.83144
5.62885
4.84633
3.99823
3.68007
3.68178
72.355
82.6523
87.6833
85.7121
80.7869
61.2943
29.4175
14.776
9.18561
6.24245
5.32176
5.33073
5.52874
5.50072
5.08377
4.03193
3.39349
3.20868
62.2821
76.9996
86.1805
85.9529
80.201
57.1501
27.2904
13.2768
8.14003
6.04811
5.10002
4.99669
5.07227
5.16654
4.98945
4.26174
3.45378
3.15834
53.713
65.1827
82.4274
84.9687
76.4422
50.231
22.1742
10.7791
6.41298
5.037
4.70181
4.71656
4.53466
4.47177
4.42091
4.16277
3.50932
3.12333
45.8269
53.0952
75.2317
79.6514
68.5263
38.0373
15.1105
6.79032
4.49036
4.00192
4.15696
4.74421
4.77347
4.18762
3.74298
3.63557
3.45101
3.08811
39.8274
45.0099
58.4722
61.6184
48.5844
23.1909
8.37776
4.18755
3.54704
3.61581
3.97538
5.43378
6.14799
6.00478
4.70682
3.68084
3.46919
3.17209
38.1979
37.2369
39.5074
40.1648
33.7545
15.2208
3.88987
2.81145
3.06005
3.68611
4.99062
8.71949
10.884
10.986
10.3472
7.4644
4.78171
3.57259
39.8761
36.8761
40.4536
37.9419
36.2629
13.2932
2.66777
2.69407
3.96849
8.04668
11.9863
16.2196
19.483
20.5097
20.4589
19.2493
14.1012
9.65831
43.0411
39.9811
43.7167
40.743
41.1394
15.2978
6.83646
9.08257
10.2988
13.4236
15.6955
15.9911
16.1773
17.3581
18.8094
19.0135
17.1047
12.596
46.7092
43.857
47.1914
44.1017
44.1342
18.8685
14.6954
16.8593
14.0121
10.5553
10.4205
11.0716
11.8843
11.882
11.5872
11.7698
11.8562
10.5571
48.6877
47.1836
49.5
45.5965
39.2527
11.1414
9.45153
10.4784
9.97641
8.50749
7.63657
7.39965
6.9654
6.2343
5.49287
4.92423
4.84454
4.89383
51.0099
50.9075
51.4957
36.2415
17.3754
5.85948
8.54848
10.4947
10.0969
8.75024
7.46796
6.51911
5.78141
5.4067
5.15658
4.80438
4.65202
4.50133
53.9231
56.6898
54.786
29.9807
12.9455
6.34136
8.54366
8.64743
6.574
5.836
5.71011
5.48206
5.43863
5.60215
5.65094
5.3947
4.9686
4.40631
57.5344
64.0473
60.5407
30.0201
14.2112
12.028
9.24703
5.09561
3.63797
2.90873
3.01394
3.1876
3.16186
3.60308
4.14838
4.37593
4.29219
3.97206
62.299
71.0688
66.4547
31.7519
16.5343
11.4628
7.51877
5.34333
4.5629
3.99954
3.81803
3.74355
4.19372
5.41191
7.72981
10.5873
12.2252
12.0323
70.0382
76.364
71.3801
33.8459
16.8811
10.343
10.5812
10.1102
9.6713
8.51424
7.03977
6.26004
6.43049
7.74293
10.1152
15.7047