/*--------------------------------*- C++ -*----------------------------------*\
| =========                 |                                                 |
| \\      /  F ield         | OpenFOAM: The Open Source CFD Toolbox           |
|  \\    /   O peration     | Version:  2112                                  |
|   \\  /    A nd           | Website:  www.openfoam.com                      |
|    \\/     M anipulation  |                                                 |
\*---------------------------------------------------------------------------*/
FoamFile
{
    version     2.0;
    format      ascii;
    arch        "LSB;label=32;scalar=64";
    class       volVectorField;
    location    "0.11";
    object      U;
}
// * * * * * * * * * * * * * * * * * * * * * * * * * * * * * * * * * * * * * //

dimensions      [0 1 -1 0 0 0 0];

internalField   nonuniform List<vector> 
12225
(
(9.74861 0.0363268 0)
(9.22203 0.0728135 0)
(8.67241 0.0848018 0)
(8.11614 0.0900944 0)
(7.56387 0.0928663 0)
(7.01725 0.0941354 0)
(6.47076 0.0950221 0)
(5.91815 0.0963924 0)
(5.35374 0.0987199 0)
(4.77176 0.102178 0)
(4.16671 0.106552 0)
(3.53506 0.110996 0)
(2.87774 0.113799 0)
(2.20164 0.11241 0)
(1.52326 0.103579 0)
(0.861345 0.0850505 0)
(0.251672 0.0515557 0)
(-0.297805 0.0153251 0)
(10.1141 0.0756357 0)
(10.3404 0.126651 0)
(10.4896 0.138484 0)
(10.5638 0.148042 0)
(10.5796 0.159433 0)
(10.544 0.171834 0)
(10.4578 0.185954 0)
(10.3205 0.20277 0)
(10.13 0.223011 0)
(9.882 0.247274 0)
(9.57004 0.275865 0)
(9.18566 0.308393 0)
(8.72011 0.343311 0)
(8.16579 0.377607 0)
(7.52048 0.406792 0)
(6.78467 0.425899 0)
(5.97566 0.428687 0)
(5.08933 0.407983 0)
(10.0083 0.0434827 0)
(10.0526 0.0682734 0)
(10.0997 0.0749361 0)
(10.1438 0.0890034 0)
(10.1914 0.108517 0)
(10.2433 0.130264 0)
(10.2954 0.154758 0)
(10.3438 0.183422 0)
(10.3853 0.217555 0)
(10.4162 0.258449 0)
(10.4317 0.307271 0)
(10.4247 0.36457 0)
(10.3857 0.429711 0)
(10.3018 0.500296 0)
(10.1583 0.572156 0)
(9.93613 0.639475 0)
(9.62527 0.69642 0)
(9.18598 0.739359 0)
(10.0049 0.0333747 0)
(10.0264 0.0675288 0)
(10.0419 0.0852236 0)
(10.0442 0.10304 0)
(10.0404 0.121618 0)
(10.0361 0.140058 0)
(10.0326 0.160025 0)
(10.0307 0.183626 0)
(10.0323 0.212572 0)
(10.0398 0.24846 0)
(10.0558 0.292876 0)
(10.0829 0.347119 0)
(10.1227 0.411822 0)
(10.1742 0.486417 0)
(10.233 0.569217 0)
(10.2877 0.656523 0)
(10.3261 0.746729 0)
(10.3188 0.834514 0)
(10.0035 0.0287543 0)
(10.0205 0.0659794 0)
(10.0344 0.0856364 0)
(10.0362 0.102253 0)
(10.0297 0.12015 0)
(10.019 0.139287 0)
(10.0046 0.160598 0)
(9.98621 0.185537 0)
(9.96459 0.215276 0)
(9.94151 0.250816 0)
(9.91935 0.293101 0)
(9.90124 0.342868 0)
(9.89113 0.40047 0)
(9.89333 0.465661 0)
(9.91178 0.537945 0)
(9.94875 0.616067 0)
(10.003 0.700968 0)
(10.0747 0.791074 0)
(10.0024 0.0252535 0)
(10.015 0.061922 0)
(10.0266 0.0833775 0)
(10.0291 0.101577 0)
(10.0245 0.121618 0)
(10.0161 0.143371 0)
(10.0044 0.167164 0)
(9.98889 0.194232 0)
(9.96977 0.225747 0)
(9.94789 0.262623 0)
(9.92434 0.305584 0)
(9.90041 0.35505 0)
(9.87774 0.410976 0)
(9.85824 0.472763 0)
(9.84387 0.539523 0)
(9.83694 0.610296 0)
(9.83814 0.684944 0)
(9.85402 0.765033 0)
(10.0016 0.0225357 0)
(10.0108 0.058333 0)
(10.0201 0.0821578 0)
(10.0227 0.102454 0)
(10.0191 0.124016 0)
(10.0118 0.147152 0)
(10.0018 0.172213 0)
(9.98882 0.200428 0)
(9.97319 0.233001 0)
(9.95574 0.270798 0)
(9.93745 0.314425 0)
(9.91931 0.364191 0)
(9.90229 0.419999 0)
(9.88719 0.481296 0)
(9.87442 0.547212 0)
(9.86412 0.616923 0)
(9.85589 0.689697 0)
(9.85087 0.766939 0)
(10.0011 0.0205234 0)
(10.0078 0.0553887 0)
(10.0151 0.0810225 0)
(10.0176 0.102977 0)
(10.0148 0.125639 0)
(10.0086 0.149931 0)
(10 0.176293 0)
(9.98911 0.205771 0)
(9.97615 0.239422 0)
(9.96197 0.277992 0)
(9.94754 0.321957 0)
(9.93385 0.371542 0)
(9.92185 0.42666 0)
(9.9123 0.486905 0)
(9.90559 0.551655 0)
(9.90167 0.620358 0)
(9.90021 0.692498 0)
(9.9006 0.768799 0)
(10.0007 0.0190473 0)
(10.0055 0.0529425 0)
(10.0113 0.0798241 0)
(10.0137 0.103275 0)
(10.0117 0.127098 0)
(10.0068 0.152577 0)
(9.99981 0.180195 0)
(9.99104 0.210789 0)
(9.98077 0.245273 0)
(9.96972 0.284306 0)
(9.95879 0.328282 0)
(9.9489 0.377363 0)
(9.94089 0.431459 0)
(9.93545 0.490251 0)
(9.93305 0.553281 0)
(9.93386 0.620163 0)
(9.93782 0.690532 0)
(9.94486 0.764938 0)
(10.0005 0.0179557 0)
(10.004 0.0509276 0)
(10.0085 0.0786439 0)
(10.0108 0.103412 0)
(10.0097 0.12833 0)
(10.0062 0.154819 0)
(10.0009 0.183433 0)
(9.99443 0.214871 0)
(9.98692 0.249923 0)
(9.97909 0.289169 0)
(9.97173 0.33293 0)
(9.96566 0.381312 0)
(9.96159 0.434219 0)
(9.96014 0.491385 0)
(9.96174 0.552448 0)
(9.96665 0.617116 0)
(9.97491 0.685061 0)
(9.98686 0.756854 0)
(10.0004 0.0171323 0)
(10.0029 0.0492713 0)
(10.0066 0.0774923 0)
(10.0089 0.10331 0)
(10.0088 0.129154 0)
(10.0066 0.156445 0)
(10.0033 0.185811 0)
(9.99911 0.217857 0)
(9.99444 0.253238 0)
(9.98987 0.292443 0)
(9.9861 0.335731 0)
(9.98385 0.383162 0)
(9.98376 0.434634 0)
(9.98637 0.489922 0)
(9.99206 0.548728 0)
(10.0012 0.610815 0)
(10.0138 0.675854 0)
(10.0304 0.744398 0)
(10.0003 0.0165283 0)
(10.0023 0.04796 0)
(10.0055 0.0764069 0)
(10.0079 0.102943 0)
(10.0087 0.129471 0)
(10.008 0.157324 0)
(10.0064 0.18717 0)
(10.0045 0.21954 0)
(10.0024 0.254974 0)
(10.0008 0.293879 0)
(10.0003 0.33646 0)
(10.0016 0.382748 0)
(10.0051 0.432636 0)
(10.0114 0.485922 0)
(10.0208 0.542342 0)
(10.0338 0.601683 0)
(10.0504 0.663592 0)
(10.0711 0.728576 0)
(10.0002 0.0160368 0)
(10.002 0.046796 0)
(10.0048 0.0752392 0)
(10.0075 0.102221 0)
(10.0093 0.129233 0)
(10.01 0.157454 0)
(10.0103 0.187551 0)
(10.0106 0.219999 0)
(10.0111 0.255239 0)
(10.0125 0.293599 0)
(10.0152 0.335237 0)
(10.0198 0.380154 0)
(10.0268 0.428234 0)
(10.0367 0.479281 0)
(10.0498 0.533045 0)
(10.0664 0.589315 0)
(10.0868 0.647706 0)
(10.1115 0.708669 0)
(10.0002 0.0155306 0)
(10.0018 0.045512 0)
(10.0046 0.0737249 0)
(10.0078 0.100907 0)
(10.0106 0.128196 0)
(10.0131 0.156576 0)
(10.0156 0.186666 0)
(10.0184 0.218887 0)
(10.0219 0.253585 0)
(10.0266 0.291003 0)
(10.0329 0.331243 0)
(10.0412 0.374274 0)
(10.0521 0.419966 0)
(10.0659 0.46812 0)
(10.083 0.518484 0)
(10.1036 0.570834 0)
(10.1279 0.624747 0)
(10.1566 0.680603 0)
(10.0002 0.0149571 0)
(10.0018 0.0439729 0)
(10.0048 0.071639 0)
(10.0088 0.0986372 0)
(10.013 0.125829 0)
(10.0175 0.153989 0)
(10.0224 0.183654 0)
(10.0281 0.215175 0)
(10.035 0.248806 0)
(10.0432 0.284705 0)
(10.0534 0.322913 0)
(10.0657 0.363365 0)
(10.0807 0.40591 0)
(10.0986 0.450335 0)
(10.1198 0.496377 0)
(10.1444 0.54379 0)
(10.1726 0.592117 0)
(10.205 0.64167 0)
(10.0002 0.0142278 0)
(10.002 0.0419246 0)
(10.0056 0.0685738 0)
(10.0106 0.0948301 0)
(10.0165 0.121353 0)
(10.0233 0.148721 0)
(10.0309 0.177352 0)
(10.0398 0.207515 0)
(10.0502 0.239372 0)
(10.0623 0.272999 0)
(10.0764 0.308375 0)
(10.0929 0.345396 0)
(10.112 0.383884 0)
(10.1339 0.42361 0)
(10.159 0.464297 0)
(10.1873 0.505679 0)
(10.219 0.547286 0)
(10.2545 0.589375 0)
(10.0003 0.0132027 0)
(10.0025 0.0389647 0)
(10.0069 0.0638962 0)
(10.0133 0.0886242 0)
(10.0212 0.113658 0)
(10.0304 0.139403 0)
(10.0411 0.166145 0)
(10.0533 0.194055 0)
(10.0672 0.223211 0)
(10.0831 0.25361 0)
(10.1012 0.285175 0)
(10.1216 0.317762 0)
(10.1445 0.35117 0)
(10.1701 0.38516 0)
(10.1985 0.419449 0)
(10.2299 0.453773 0)
(10.2641 0.487684 0)
(10.3016 0.521398 0)
(10.0003 0.0116712 0)
(10.0031 0.0345018 0)
(10.0086 0.0567038 0)
(10.0167 0.0788551 0)
(10.0268 0.101335 0)
(10.0387 0.124393 0)
(10.0524 0.148181 0)
(10.0679 0.172767 0)
(10.0853 0.198145 0)
(10.1048 0.224242 0)
(10.1263 0.250929 0)
(10.1501 0.278033 0)
(10.1762 0.30534 0)
(10.2046 0.332615 0)
(10.2354 0.359593 0)
(10.2686 0.386034 0)
(10.3041 0.411555 0)
(10.3422 0.436342 0)
(10.0004 0.00932492 0)
(10.0039 0.027628 0)
(10.0109 0.0455702 0)
(10.0209 0.0636742 0)
(10.0334 0.0821892 0)
(10.048 0.101206 0)
(10.0646 0.120743 0)
(10.0832 0.140772 0)
(10.1036 0.16121 0)
(10.126 0.181929 0)
(10.1503 0.202762 0)
(10.1765 0.223517 0)
(10.2045 0.243985 0)
(10.2345 0.263949 0)
(10.2662 0.283183 0)
(10.2998 0.301491 0)
(10.3349 0.318579 0)
(10.3718 0.334596 0)
(10.0005 0.00663255 0)
(10.0048 0.0197338 0)
(10.0131 0.032838 0)
(10.025 0.0464411 0)
(10.0395 0.0606567 0)
(10.0562 0.0754157 0)
(10.0749 0.0906218 0)
(10.0955 0.106171 0)
(10.1178 0.121927 0)
(10.1418 0.137719 0)
(10.1674 0.153362 0)
(10.1946 0.168663 0)
(10.2232 0.18343 0)
(10.2533 0.197474 0)
(10.2846 0.210609 0)
(10.3172 0.222681 0)
(10.3508 0.23348 0)
(10.3856 0.24312 0)
(10.0006 0.00405729 0)
(10.0056 0.0122576 0)
(10.0152 0.0210072 0)
(10.0287 0.0307713 0)
(10.0448 0.0414522 0)
(10.063 0.0527977 0)
(10.0831 0.0646312 0)
(10.1049 0.0768062 0)
(10.1284 0.0891379 0)
(10.1532 0.101413 0)
(10.1794 0.113419 0)
(10.2069 0.124959 0)
(10.2355 0.135846 0)
(10.2651 0.145908 0)
(10.2957 0.154986 0)
(10.3272 0.162953 0)
(10.3594 0.16965 0)
(10.3924 0.175158 0)
(10.0007 0.00142971 0)
(10.0066 0.00471955 0)
(10.0178 0.0093773 0)
(10.0329 0.0157694 0)
(10.0505 0.0234192 0)
(10.07 0.0318436 0)
(10.0912 0.0408206 0)
(10.114 0.0501936 0)
(10.1381 0.0597506 0)
(10.1634 0.0692615 0)
(10.1898 0.0785047 0)
(10.2171 0.0872747 0)
(10.2453 0.0953799 0)
(10.2742 0.102648 0)
(10.3038 0.108928 0)
(10.3339 0.114102 0)
(10.3645 0.11804 0)
(10.3955 0.120802 0)
(10.0009 -0.00137273 0)
(10.0079 -0.00306166 0)
(10.021 -0.00212211 0)
(10.038 0.00143609 0)
(10.0569 0.00656584 0)
(10.0774 0.0125955 0)
(10.0995 0.0192835 0)
(10.1231 0.0264011 0)
(10.1478 0.0336499 0)
(10.1735 0.0407863 0)
(10.2 0.0476091 0)
(10.2273 0.0539355 0)
(10.2551 0.0595951 0)
(10.2834 0.0644268 0)
(10.312 0.0682938 0)
(10.341 0.0710925 0)
(10.3702 0.0727184 0)
(10.3997 0.0732046 0)
(10.0012 -0.0044896 0)
(10.0099 -0.0112224 0)
(10.0254 -0.0133839 0)
(10.0443 -0.012095 0)
(10.0645 -0.00920044 0)
(10.0859 -0.00526202 0)
(10.1088 -0.00032027 0)
(10.1329 0.00534889 0)
(10.1578 0.0113328 0)
(10.1836 0.0172588 0)
(10.2099 0.0228838 0)
(10.2368 0.0280159 0)
(10.264 0.0324658 0)
(10.2916 0.0360664 0)
(10.3193 0.0386725 0)
(10.3471 0.0401782 0)
(10.375 0.0404922 0)
(10.4029 0.0396376 0)
(10.0016 -0.00807674 0)
(10.0129 -0.0199357 0)
(10.0313 -0.0242089 0)
(10.0519 -0.0242235 0)
(10.0731 -0.0231144 0)
(10.0955 -0.0213336 0)
(10.1194 -0.0186559 0)
(10.1443 -0.0152678 0)
(10.1698 -0.0115195 0)
(10.1957 -0.00770765 0)
(10.2221 -0.00403415 0)
(10.2487 -0.000687444 0)
(10.2756 0.0021319 0)
(10.3024 0.00424077 0)
(10.3293 0.00547652 0)
(10.3561 0.00571295 0)
(10.3827 0.00485457 0)
(10.4094 0.00287846 0)
(10.0023 -0.01233 0)
(10.0174 -0.0295044 0)
(10.0394 -0.0356011 0)
(10.0615 -0.0361997 0)
(10.0829 -0.0350525 0)
(10.1055 -0.0327592 0)
(10.1296 -0.0295476 0)
(10.1546 -0.0259317 0)
(10.1801 -0.0223084 0)
(10.206 -0.0188442 0)
(10.2321 -0.0156774 0)
(10.2585 -0.0129732 0)
(10.2848 -0.0108985 0)
(10.311 -0.00961427 0)
(10.337 -0.00926624 0)
(10.3628 -0.00996799 0)
(10.3883 -0.0118188 0)
(10.4136 -0.0147493 0)
(10.0033 -0.017439 0)
(10.0229 -0.0376387 0)
(10.0486 -0.0462469 0)
(10.0723 -0.0518275 0)
(10.0945 -0.0556117 0)
(10.1179 -0.0567816 0)
(10.1427 -0.055859 0)
(10.1684 -0.0538177 0)
(10.1946 -0.0512502 0)
(10.2213 -0.0484524 0)
(10.2484 -0.045682 0)
(10.2757 -0.0431947 0)
(10.3031 -0.0412207 0)
(10.3303 -0.0399591 0)
(10.3574 -0.039593 0)
(10.3842 -0.0402774 0)
(10.411 -0.0421165 0)
(10.4376 -0.0449905 0)
(10.0053 -0.0266587 0)
(10.0355 -0.0408779 0)
(10.0726 -0.0386132 0)
(10.1098 -0.0389346 0)
(10.1496 -0.0416154 0)
(10.193 -0.0436276 0)
(10.2385 -0.0446007 0)
(10.2843 -0.0450057 0)
(10.3299 -0.0450511 0)
(10.3749 -0.0448194 0)
(10.419 -0.0444692 0)
(10.4621 -0.0442228 0)
(10.5039 -0.0443165 0)
(10.5445 -0.0449963 0)
(10.5839 -0.0465172 0)
(10.6225 -0.0491981 0)
(10.6605 -0.0531912 0)
(10.6981 -0.0588518 0)
(10.0696 -0.0572394 0)
(10.233 -0.0995961 0)
(10.3674 -0.106421 0)
(10.4685 -0.107669 0)
(10.5463 -0.107916 0)
(10.606 -0.10649 0)
(10.65 -0.103924 0)
(10.681 -0.100948 0)
(10.7017 -0.0978769 0)
(10.7147 -0.0948484 0)
(10.7217 -0.092013 0)
(10.7239 -0.089546 0)
(10.7223 -0.0876284 0)
(10.7175 -0.0864496 0)
(10.7096 -0.0862156 0)
(10.699 -0.0872654 0)
(10.6853 -0.0897429 0)
(10.6693 -0.0941938 0)
(9.84372 -0.0297379 0)
(9.51564 -0.0631263 0)
(9.17092 -0.0749731 0)
(8.82719 -0.0792533 0)
(8.50347 -0.0797877 0)
(8.20603 -0.0775718 0)
(7.934 -0.0737237 0)
(7.68558 -0.0691557 0)
(7.45932 -0.0643776 0)
(7.25353 -0.0596792 0)
(7.06613 -0.0552682 0)
(6.89485 -0.0513055 0)
(6.73734 -0.047919 0)
(6.59122 -0.0452125 0)
(6.45409 -0.0432929 0)
(6.32354 -0.0423664 0)
(6.19578 -0.0425193 0)
(6.07057 -0.043977 0)
(-0.497532 0.451056 -8.48247e-20)
(-0.587873 0.0895032 8.5314e-20)
(0.223433 -0.828755 0)
(1.12982 -1.32273 0)
(2.13166 -1.39081 0)
(3.08809 -1.19544 -4.59635e-20)
(3.85555 -0.872257 0)
(4.3434 -0.497476 0)
(4.56994 -0.0971567 0)
(4.48628 0.302065 0)
(4.1114 0.658732 4.59984e-20)
(3.49738 0.915367 0)
(2.71023 1.0109 0)
(1.84777 0.900593 0)
(1.03563 0.590279 0)
(0.462325 0.108422 7.40447e-20)
(0.198085 -0.478972 0)
(0.27005 -0.716949 0)
(0.559644 -0.900313 0)
(0.89995 -1.015 0)
(1.19848 -0.9325 0)
(1.40537 -0.869205 0)
(1.39435 -0.805058 0)
(1.16523 -0.565678 6.33876e-20)
(0.69333 -0.076318 -6.87724e-20)
(-0.0842402 0.409649 6.63323e-20)
(-1.02597 0.715963 5.47816e-20)
(-2.05093 0.915882 0)
(-3.11143 1.02812 0)
(-4.16483 1.06724 -3.86264e-20)
(-5.1764 1.04873 -3.74125e-20)
(-6.12027 0.987798 0)
(-6.97899 0.898188 0)
(-7.74225 0.791511 -3.77492e-20)
(-8.40535 0.676963 0)
(-8.96772 0.561463 0)
(-9.43157 0.449986 3.92296e-20)
(-9.801 0.345895 0)
(-10.0815 0.251488 3.96387e-20)
(-10.2791 0.168611 7.91753e-20)
(-10.4 0.0985053 0)
(-10.4514 0.0414842 0)
(-10.4382 -0.00298607 0)
(-10.3819 -0.0379487 0)
(-10.2839 -0.0676497 0)
(-10.149 -0.0938786 6.93289e-20)
(-9.98026 -0.117644 6.62713e-20)
(-9.77999 -0.13956 6.28816e-20)
(-9.54982 -0.160043 0)
(-9.29096 -0.179392 -5.51773e-20)
(-9.00431 -0.197815 0)
(-8.69056 -0.215427 4.63138e-20)
(-8.3503 -0.232249 4.14575e-20)
(-7.9842 -0.248189 0)
(-7.5932 -0.263049 0)
(-7.17862 -0.276527 0)
(-6.7424 -0.288245 1.91486e-20)
(-6.28715 -0.297783 0)
(-5.81622 -0.304728 0)
(-5.33368 -0.308731 0)
(-4.84413 -0.309549 0)
(-4.3525 -0.307077 0)
(-3.86382 -0.301372 0)
(-3.38291 -0.292653 0)
(-2.91406 -0.281277 0)
(-2.46139 -0.267834 4.43695e-20)
(-2.0278 -0.252885 0)
(-1.61556 -0.23697 0)
(-1.22614 -0.220566 -6.62333e-20)
(-0.860361 -0.20403 -7.32606e-20)
(-0.518453 -0.187751 0)
(-0.199461 -0.172441 8.65019e-20)
(0.0971741 -0.157902 -8.7543e-20)
(0.371783 -0.143621 0)
(0.625511 -0.130264 8.04353e-20)
(0.858547 -0.117735 0)
(1.07204 -0.105978 0)
(1.26708 -0.0949573 -7.19846e-20)
(1.44462 -0.0846254 0)
(1.60557 -0.0749155 6.75234e-20)
(1.75069 -0.0657327 0)
(1.88057 -0.0568648 -6.38425e-20)
(1.99552 -0.0478798 -6.22717e-20)
(2.09528 -0.0387828 -6.08769e-20)
(2.17889 -0.0309379 -1.19311e-19)
(2.247 -0.0215667 1.17279e-19)
(2.2972 0.0044203 0)
(2.29955 0.0574202 0)
(2.23666 0.128778 0)
(2.10342 0.193196 1.14508e-19)
(1.9084 0.222821 1.15532e-19)
(1.67821 0.204202 -1.16901e-19)
(1.44867 0.148579 0)
(1.25047 0.0790516 1.1931e-19)
(1.10543 0.00903472 1.19952e-19)
(1.02944 -0.05852 1.20135e-19)
(1.0228 -0.115455 0)
(1.06246 -0.144938 0)
(1.1247 -0.151818 0)
(1.1961 -0.149254 1.15129e-19)
(1.267 -0.143235 0)
(1.33376 -0.134619 0)
(1.39772 -0.124542 -1.10323e-19)
(1.46375 -0.11599 0)
(1.54079 -0.112568 0)
(1.64118 -0.116263 -1.03809e-19)
(1.77837 -0.125548 0)
(1.96292 -0.134601 0)
(2.19709 -0.134254 9.55036e-20)
(2.46665 -0.11457 9.28849e-20)
(2.73565 -0.0728557 0)
(2.95902 -0.023077 -8.87158e-20)
(3.11103 0.00588415 0)
(3.18654 -0.0117895 8.65711e-20)
(3.15834 -0.0550779 0)
(2.9183 -0.0228029 8.34413e-20)
(2.27906 0.174753 7.95897e-20)
(1.14379 0.454619 0)
(-0.316839 0.623312 0)
(-1.80779 0.645476 0)
(-3.18324 0.58959 0)
(-4.38299 0.499889 0)
(-5.38045 0.400383 0)
(-6.17218 0.302784 0)
(-6.76394 0.212416 -8.94966e-20)
(-7.16427 0.131828 9.7641e-20)
(-7.38408 0.0627269 0)
(-7.43429 0.00636226 0)
(-7.35137 -0.0402298 0)
(-7.14718 -0.0820827 0)
(-6.82885 -0.12064 1.66945e-19)
(-6.40349 -0.155929 0)
(-5.87914 -0.187565 -1.08631e-19)
(-5.26534 -0.215027 7.06074e-20)
(-4.57361 -0.237782 0)
(-3.81725 -0.255393 0)
(-3.01191 -0.267796 0)
(-2.17282 -0.275076 1.31815e-19)
(-1.31403 -0.277683 1.93143e-19)
(-0.4455 -0.276398 0)
(0.425532 -0.270943 2.70283e-19)
(1.28879 -0.263158 2.72948e-19)
(2.13684 -0.254202 -2.69831e-19)
(2.96721 -0.245147 0)
(3.77964 -0.235735 0)
(4.57259 -0.223143 -2.3915e-19)
(5.33903 -0.206674 0)
(6.0666 -0.198476 0)
(6.75866 -0.199592 0)
(7.41571 -0.128453 0)
(7.78524 0.100917 1.73178e-19)
(7.54274 0.397104 1.65543e-19)
(6.68338 0.573009 0)
(5.40536 0.506558 1.51957e-19)
(4.12104 0.221695 0)
(3.24904 -0.134716 0)
(2.93701 -0.350614 1.32163e-19)
(3.04947 -0.303524 0)
(3.18739 -0.0722666 1.30209e-19)
(2.72826 0.222032 0)
(1.09185 0.516376 0)
(-1.34999 0.626178 -9.79118e-20)
(-3.40363 0.454287 0)
(-4.59364 0.194377 -2.25961e-19)
(-4.85909 -0.0244595 0)
(-4.48002 -0.165275 0)
(-3.69518 -0.233336 0)
(-2.72932 -0.2473 4.83157e-20)
(-1.75987 -0.225337 0)
(-0.900753 -0.188539 6.48269e-20)
(-0.203678 -0.147026 0)
(0.332198 -0.110436 0)
(0.737849 -0.0861537 0)
(1.04857 -0.0732273 0)
(1.30772 -0.0694757 0)
(1.56379 -0.0719361 0)
(1.86515 -0.0727922 0)
(2.22034 -0.0557619 -2.93156e-19)
(2.53366 -0.0133662 0)
(2.6067 0.0153975 0)
(-0.214151 1.12898 2.55996e-19)
(0.96386 -0.850622 -1.86736e-19)
(2.16949 -2.73316 0)
(3.14407 -3.445 8.68867e-20)
(3.86256 -3.26508 0)
(4.36895 -2.64996 3.57686e-20)
(4.70273 -1.89235 -9.506e-20)
(4.89593 -1.1208 -1.00313e-19)
(4.94891 -0.376523 0)
(4.90625 0.354875 -1.01321e-19)
(4.75042 1.05949 -4.02999e-20)
(4.44509 1.67777 0)
(3.97375 2.10897 0)
(3.3602 2.23981 0)
(2.68221 1.99615 0)
(2.05882 1.39398 -4.89959e-20)
(1.60346 0.779948 0)
(1.44902 0.142357 1.14032e-19)
(1.40848 -0.466251 0)
(1.06649 -0.765793 0)
(0.470341 -0.209091 -1.37875e-19)
(-0.528426 0.621455 0)
(-1.70413 1.26408 9.73011e-20)
(-2.9325 1.82841 -3.82547e-20)
(-4.15087 2.28481 3.17392e-20)
(-5.32107 2.58362 -2.73338e-20)
(-6.39739 2.71737 -2.46084e-20)
(-7.36112 2.71726 0)
(-8.19621 2.61125 0)
(-8.89714 2.42912 2.34318e-20)
(-9.46727 2.19869 -3.32486e-20)
(-9.91685 1.94343 0)
(-10.2603 1.6814 0)
(-10.5139 1.42521 2.99523e-20)
(-10.6937 1.18266 0)
(-10.8145 0.95785 0)
(-10.8888 0.752268 -3.51149e-20)
(-10.9267 0.565744 0)
(-10.9359 0.397336 4.16794e-20)
(-10.9222 0.246071 -7.57698e-20)
(-10.8894 0.111372 0)
(-10.8381 -0.00722159 0)
(-10.7694 -0.110663 -1.53804e-19)
(-10.6669 -0.201211 -1.49471e-19)
(-10.5338 -0.282108 -1.44444e-19)
(-10.3696 -0.355364 7.11806e-20)
(-10.1755 -0.422488 -6.45564e-20)
(-9.9526 -0.484668 -1.86759e-19)
(-9.70211 -0.542871 1.18106e-19)
(-9.42481 -0.597878 5.35949e-20)
(-9.12127 -0.650266 0)
(-8.79186 -0.700372 -4.48582e-20)
(-8.43685 -0.748245 4.30816e-20)
(-8.05654 -0.793615 0)
(-7.65155 -0.835873 0)
(-7.22291 -0.874096 0)
(-6.77237 -0.907121 -1.83679e-20)
(-6.30248 -0.933665 0)
(-5.81669 -0.95248 1.50482e-20)
(-5.31925 -0.96253 0)
(-4.81509 -0.963144 -1.16695e-20)
(-4.3095 -0.95412 0)
(-3.80783 -0.935769 3.97096e-20)
(-3.31514 -0.90888 0)
(-2.83589 -0.874639 -6.84147e-20)
(-2.37377 -0.834542 4.05442e-20)
(-1.93169 -0.790207 0)
(-1.51168 -0.743161 1.11446e-19)
(-1.11497 -0.694753 6.34635e-20)
(-0.742145 -0.646242 7.03903e-20)
(-0.393408 -0.598918 0)
(-0.0676312 -0.55297 8.04245e-20)
(0.236261 -0.508961 8.08677e-20)
(0.518902 -0.466643 0)
(0.780696 -0.426811 -7.52052e-20)
(1.02253 -0.389384 1.44658e-19)
(1.24557 -0.354262 0)
(1.45089 -0.321337 6.80713e-20)
(1.63948 -0.290452 0)
(1.81227 -0.261407 -1.92035e-19)
(1.97006 -0.233957 0)
(2.11356 -0.207794 1.82135e-19)
(2.24339 -0.182433 5.93693e-20)
(2.36034 -0.157112 -5.77895e-20)
(2.46535 -0.13105 -1.13249e-19)
(2.55723 -0.102425 1.11176e-19)
(2.63687 -0.0659074 0)
(2.72887 -0.0168679 0)
(2.84032 0.0467237 0)
(2.95751 0.121866 -3.04639e-19)
(3.06297 0.193339 -9.86808e-20)
(3.14396 0.240984 9.59278e-20)
(3.2004 0.25189 0)
(3.2425 0.225461 9.2348e-20)
(3.28383 0.17221 -9.05147e-20)
(3.32718 0.112468 -8.97546e-20)
(3.35913 0.0613264 0)
(3.38731 0.0258907 0)
(3.41665 0.010109 0)
(3.44103 0.0106459 -8.74244e-20)
(3.4513 0.0182157 0)
(3.4406 0.0222497 1.74895e-19)
(3.4086 0.0145183 2.62199e-19)
(3.3633 -0.00970791 -1.74531e-19)
(3.31937 -0.0511352 0)
(3.29155 -0.107961 -8.61756e-20)
(3.29114 -0.17648 0)
(3.32825 -0.250251 -1.67594e-19)
(3.41452 -0.316721 8.21948e-20)
(3.55679 -0.354454 8.07001e-20)
(3.74308 -0.343227 0)
(3.93485 -0.281627 2.38038e-19)
(4.06505 -0.182056 -1.59483e-19)
(3.99525 -0.0200938 -8.00273e-20)
(3.42036 0.31731 0)
(2.06555 0.889099 -8.52802e-20)
(0.137182 1.47574 -2.144e-19)
(-1.76247 1.75605 0)
(-3.35305 1.75638 -4.0172e-20)
(-4.58782 1.58825 4.34398e-21)
(-5.5103 1.34863 4.70686e-20)
(-6.18477 1.0974 0)
(-6.67176 0.860564 0)
(-7.01828 0.645098 0)
(-7.25648 0.449909 -9.56251e-20)
(-7.4056 0.272142 -9.58022e-20)
(-7.47418 0.110395 0)
(-7.46344 -0.0352052 -2.12107e-19)
(-7.3442 -0.167342 -2.04193e-19)
(-7.11147 -0.289657 0)
(-6.76837 -0.402979 -1.63074e-19)
(-6.32058 -0.506668 -2.85431e-19)
(-5.77567 -0.599524 1.0481e-19)
(-5.14293 -0.680161 7.89973e-20)
(-4.43347 -0.747217 0)
(-3.66024 -0.799547 0)
(-2.83782 -0.836563 0)
(-1.98147 -0.858457 -1.23735e-19)
(-1.10535 -0.866584 1.70471e-19)
(-0.218928 -0.862994 4.39936e-19)
(0.668585 -0.849052 -2.41924e-19)
(1.54714 -0.829321 2.39186e-19)
(2.41225 -0.806882 2.45693e-19)
(3.26233 -0.783639 0)
(4.09671 -0.760234 0)
(4.9149 -0.735301 -2.1642e-19)
(5.71832 -0.704347 0)
(6.50332 -0.661992 0)
(7.2303 -0.602704 3.6022e-19)
(7.86032 -0.494561 0)
(8.58014 -0.266793 1.49808e-19)
(9.48372 0.123106 -1.4329e-19)
(10.1856 0.584084 0)
(10.3663 0.926362 9.99033e-20)
(9.99475 1.02194 0)
(9.1549 0.867989 0)
(7.84893 0.520057 -9.34594e-20)
(6.35981 0.201589 2.16126e-19)
(5.12235 0.323473 -1.0826e-19)
(3.69324 0.956575 0)
(1.36785 1.59912 0)
(-0.920351 1.65431 -1.32268e-19)
(-2.25223 1.12806 0)
(-2.87762 0.456243 -2.90795e-19)
(-3.0211 -0.128605 0)
(-2.66601 -0.527767 0)
(-1.94545 -0.727127 0)
(-1.06333 -0.764444 -5.13766e-20)
(-0.177006 -0.688824 0)
(0.596249 -0.565499 -5.95667e-20)
(1.21024 -0.439064 0)
(1.67146 -0.328673 0)
(2.00718 -0.247219 2.41908e-19)
(2.24766 -0.195329 -2.55867e-19)
(2.42511 -0.173576 0)
(2.57941 -0.18737 0)
(2.76602 -0.231973 0)
(3.04408 -0.256204 8.09834e-19)
(3.38493 -0.177577 0)
(3.58552 -0.0182282 -5.39486e-19)
(0.538482 -1.01976 9.83097e-21)
(1.79874 -4.26052 1.86595e-19)
(2.74815 -5.31392 0)
(3.21448 -4.85065 -1.76073e-19)
(3.33216 -3.82905 0)
(3.31595 -2.74481 0)
(3.27768 -1.75244 -1.6239e-20)
(3.24836 -0.854079 1.24925e-19)
(3.19962 0.00765636 1.51464e-19)
(3.15347 0.829819 1.26794e-19)
(3.08422 1.61554 0)
(2.9501 2.33566 0)
(2.71815 2.89456 -1.08299e-19)
(2.37221 3.14978 -2.00147e-19)
(1.92434 3.01366 1.93783e-19)
(1.46179 2.51066 0)
(1.12857 1.32001 2.22668e-19)
(0.791821 -0.198414 -1.33969e-19)
(-0.177934 0.365772 0)
(-1.63701 1.47889 1.83638e-19)
(-3.03306 2.36898 7.19958e-20)
(-4.39051 3.09633 -1.25251e-19)
(-5.6186 3.62806 -5.28982e-20)
(-6.69306 3.97726 0)
(-7.58314 4.14846 1.0619e-19)
(-8.28454 4.15134 1.06599e-19)
(-8.81533 4.00563 0)
(-9.205 3.74588 1.1335e-19)
(-9.48599 3.41008 0)
(-9.69142 3.03399 1.25339e-19)
(-9.85012 2.64702 5.53484e-20)
(-9.98419 2.27043 0)
(-10.1077 1.91734 0)
(-10.227 1.59404 0)
(-10.3425 1.30184 0)
(-10.4503 1.03903 0)
(-10.5447 0.802387 0)
(-10.6194 0.588273 1.69099e-19)
(-10.6688 0.393141 -2.51079e-19)
(-10.6883 0.213723 0)
(-10.6749 0.0473875 0)
(-10.6278 -0.107571 0)
(-10.5482 -0.25234 -7.31945e-21)
(-10.4379 -0.386926 1.50372e-19)
(-10.2991 -0.510956 2.96258e-19)
(-10.1333 -0.625291 -2.83838e-19)
(-9.94156 -0.731155 -1.37737e-19)
(-9.72505 -0.829914 1.25337e-19)
(-9.48441 -0.92292 4.73096e-21)
(-9.21998 -1.0114 1.14e-19)
(-8.93169 -1.09631 0)
(-8.61912 -1.17825 9.61189e-20)
(-8.28159 -1.25734 4.78665e-21)
(-7.91835 -1.33308 0)
(-7.52888 -1.40437 0)
(-7.11317 -1.46947 -5.52866e-20)
(-6.67208 -1.52617 0)
(-6.20766 -1.57202 0)
(-5.72325 -1.60459 2.4586e-20)
(-5.22348 -1.62188 1.32994e-20)
(-4.71406 -1.6226 1.12001e-20)
(-4.20131 -1.6064 0)
(-3.6917 -1.57391 -3.80546e-20)
(-3.19133 -1.52673 0)
(-2.70551 -1.46715 -5.92524e-20)
(-2.23848 -1.39794 -7.94671e-20)
(-1.79335 -1.32197 1.81405e-19)
(-1.37212 -1.24193 1.02289e-19)
(-0.975802 -1.16016 0)
(-0.604842 -1.07873 -2.64668e-19)
(-0.258685 -0.999717 0)
(0.064107 -0.922979 -4.55976e-19)
(0.364303 -0.849222 -2.95835e-19)
(0.642968 -0.779334 -2.87746e-19)
(0.900817 -0.713589 2.79831e-19)
(1.13911 -0.651935 -4.09333e-19)
(1.35911 -0.594246 0)
(1.56196 -0.540316 0)
(1.74876 -0.48987 2.5123e-19)
(1.92047 -0.442576 3.68185e-19)
(2.07801 -0.398044 0)
(2.22219 -0.355813 -1.17434e-19)
(2.35376 -0.315421 0)
(2.47342 -0.276363 3.3673e-19)
(2.58186 -0.237518 8.58527e-22)
(2.67993 -0.197746 -8.29658e-22)
(2.76805 -0.158197 -2.12822e-19)
(2.84754 -0.118168 0)
(2.9263 -0.073244 2.06803e-19)
(3.01908 -0.0199741 8.70612e-22)
(3.13368 0.0348154 0)
(3.26442 0.0761786 0)
(3.39369 0.0885565 0)
(3.50372 0.0648707 -1.80267e-19)
(3.58577 0.00951256 0)
(3.6416 -0.062121 0)
(3.67954 -0.1222 0)
(3.70732 -0.15959 0)
(3.73902 -0.175004 0)
(3.78537 -0.170301 -1.67833e-19)
(3.85161 -0.147432 0)
(3.93609 -0.111771 -1.64609e-19)
(4.0296 -0.0738906 -1.62641e-19)
(4.11852 -0.047144 1.60527e-19)
(4.18753 -0.0430551 0)
(4.22267 -0.0685015 1.56758e-19)
(4.21978 -0.125862 0)
(4.19522 -0.213669 1.53973e-19)
(4.18565 -0.318831 -1.52456e-19)
(4.22141 -0.403669 -4.52845e-19)
(4.28806 -0.414162 0)
(4.30421 -0.305786 -4.66893e-19)
(4.09213 -0.0184056 -1.56693e-19)
(3.32334 0.592251 0)
(1.75376 1.5389 -3.1641e-19)
(-0.277251 2.44424 -2.58882e-19)
(-2.03558 2.87273 2.78614e-19)
(-3.31388 2.86811 0)
(-4.20399 2.5995 3.57645e-20)
(-4.8534 2.21769 -4.08853e-21)
(-5.38493 1.82418 -1.78493e-19)
(-5.86325 1.46517 0)
(-6.30295 1.1494 0)
(-6.69091 0.869107 0)
(-7.00519 0.613267 -2.07467e-19)
(-7.22498 0.372901 0)
(-7.33613 0.14302 0)
(-7.33201 -0.0783829 2.12232e-19)
(-7.21207 -0.291064 2.02777e-19)
(-6.97836 -0.492143 0)
(-6.63433 -0.679632 0)
(-6.1853 -0.851518 2.7745e-19)
(-5.6384 -1.00554 0)
(-5.00265 -1.1393 -1.40734e-19)
(-4.28906 -1.25045 -7.72241e-20)
(-3.51069 -1.33703 0)
(-2.6825 -1.39793 0)
(-1.82037 -1.43346 -2.0656e-19)
(-0.939112 -1.4458 -1.5762e-20)
(-0.0490786 -1.43791 -1.4692e-20)
(0.83843 -1.41377 0)
(1.7135 -1.38051 -8.80443e-19)
(2.5726 -1.34327 0)
(3.41527 -1.30526 0)
(4.24268 -1.26718 0)
(5.05563 -1.22716 4.12167e-19)
(5.85207 -1.18039 0)
(6.62825 -1.11576 -7.20648e-19)
(7.38125 -1.01759 -3.43242e-19)
(8.08934 -0.880706 0)
(8.7065 -0.695218 -2.99018e-19)
(9.29659 -0.406525 0)
(10.0697 0.0393949 0)
(10.9532 0.559159 -5.77786e-19)
(11.607 0.983149 3.12756e-19)
(11.6858 1.22551 0)
(10.9602 1.27611 2.86469e-19)
(9.41336 1.18346 -1.69426e-19)
(7.35491 1.27175 0)
(5.27644 1.92141 0)
(3.32469 2.63035 0)
(1.80984 2.55418 6.78106e-19)
(0.748019 1.73517 0)
(-0.0303019 0.732748 6.65996e-19)
(-0.29769 -0.164309 0)
(-0.0827994 -0.804911 0)
(0.434538 -1.13929 0)
(1.08729 -1.19808 0)
(1.74989 -1.07996 0)
(2.33218 -0.882396 0)
(2.78798 -0.674727 -3.18993e-19)
(3.10919 -0.493589 0)
(3.31232 -0.356671 -2.17764e-19)
(3.42289 -0.265449 7.03247e-19)
(3.46838 -0.217605 0)
(3.47862 -0.221987 0)
(3.49395 -0.286976 -5.09735e-19)
(3.56765 -0.350725 -5.15807e-19)
(3.69794 -0.259058 5.31717e-19)
(3.69229 0.0478444 5.2853e-19)
(0.707936 -4.05392 -3.75845e-19)
(1.5596 -6.47905 -2.91817e-19)
(1.87303 -5.77583 -2.17479e-19)
(1.81886 -4.46021 -1.35806e-19)
(1.68335 -3.33362 0)
(1.5931 -2.40745 3.26132e-19)
(1.52792 -1.59132 -1.91502e-19)
(1.47256 -0.810283 0)
(1.39486 -0.0466608 -2.12146e-19)
(1.30332 0.792027 0)
(1.15328 1.74694 3.69333e-19)
(0.924501 2.71494 0)
(0.653072 3.52073 1.43821e-19)
(0.374583 3.92943 2.62628e-19)
(0.126117 3.64055 -2.4759e-19)
(-0.0302666 2.55418 0)
(-0.618449 1.77608 -2.00061e-19)
(-1.91482 2.33697 0)
(-3.38949 3.34539 0)
(-4.78239 4.17013 -1.04718e-19)
(-5.96717 4.7303 0)
(-6.94241 5.08612 -1.36424e-20)
(-7.69532 5.23762 0)
(-8.24392 5.20947 0)
(-8.61525 5.03612 1.78367e-20)
(-8.85026 4.75351 -1.00318e-19)
(-8.99458 4.39767 -1.25995e-19)
(-9.09032 4.0039 -1.12945e-19)
(-9.17105 3.60044 0)
(-9.25826 3.20603 -2.76049e-19)
(-9.36119 2.8301 0)
(-9.47937 2.47509 -1.62028e-19)
(-9.60613 2.13956 0)
(-9.73212 1.82076 0)
(-9.84792 1.51629 1.79097e-19)
(-9.94556 1.22486 0)
(-10.0192 0.946266 -1.86888e-19)
(-10.0651 0.681212 1.40646e-20)
(-10.0814 0.430845 3.68923e-19)
(-10.0676 0.196327 -3.83065e-19)
(-10.0241 -0.0218046 0)
(-9.95371 -0.223969 0)
(-9.85789 -0.410836 -1.87256e-19)
(-9.73868 -0.583429 0)
(-9.59803 -0.742719 -1.56943e-19)
(-9.43776 -0.889972 1.49954e-19)
(-9.2594 -1.02678 1.42381e-19)
(-9.06409 -1.15497 0)
(-8.85237 -1.27649 -1.25699e-19)
(-8.62417 -1.39326 -1.1668e-19)
(-8.37865 -1.50689 2.25888e-19)
(-8.11423 -1.61856 -9.74611e-20)
(-7.82861 -1.72869 -8.7305e-20)
(-7.519 -1.83677 0)
(-7.18244 -1.94117 0)
(-6.81634 -2.03913 5.47453e-20)
(-6.41913 -2.12688 0)
(-5.99084 -2.20004 0)
(-5.53365 -2.25422 -3.8072e-20)
(-5.05202 -2.28564 -1.29036e-20)
(-4.55244 -2.29173 0)
(-4.04285 -2.27165 0)
(-3.5318 -2.22633 0)
(-3.02749 -2.15838 0)
(-2.53707 -2.07167 1.2047e-19)
(-2.06615 -1.97074 -1.39991e-19)
(-1.61868 -1.86021 -1.75447e-19)
(-1.19704 -1.74436 -3.99009e-19)
(-0.802243 -1.6269 0)
(-0.434588 -1.5108 5.94044e-21)
(-0.0928901 -1.39803 0)
(0.22442 -1.28946 2.81073e-19)
(0.51848 -1.18601 4.23478e-21)
(0.790464 -1.08859 2.70078e-19)
(1.04175 -0.99729 -2.64252e-19)
(1.27385 -0.91198 2.90188e-21)
(1.48814 -0.832409 0)
(1.6859 -0.758232 -2.4463e-19)
(1.86828 -0.689039 -2.41466e-19)
(2.03634 -0.624374 -4.70603e-19)
(2.19104 -0.563743 0)
(2.33329 -0.506608 2.25043e-19)
(2.46394 -0.452373 0)
(2.58383 -0.400385 -4.34849e-19)
(2.69381 -0.349947 2.14268e-19)
(2.79518 -0.300277 -2.10765e-19)
(2.88967 -0.25033 2.07507e-19)
(2.97917 -0.198696 4.06677e-19)
(3.06568 -0.145812 -2.01446e-19)
(3.15153 -0.0956006 1.98282e-19)
(3.23973 -0.0527826 0)
(3.33276 -0.0226314 -3.78877e-19)
(3.42923 -0.00823062 0)
(3.52262 -0.00864499 -3.6238e-19)
(3.60285 -0.0194998 3.55736e-19)
(3.66511 -0.0385483 3.49015e-19)
(3.71037 -0.0628132 -3.43548e-19)
(3.74326 -0.0858732 -3.39476e-19)