/*--------------------------------*- C++ -*----------------------------------*\
| =========                 |                                                 |
| \\      /  F ield         | OpenFOAM: The Open Source CFD Toolbox           |
|  \\    /   O peration     | Version:  2112                                  |
|   \\  /    A nd           | Website:  www.openfoam.com                      |
|    \\/     M anipulation  |                                                 |
\*---------------------------------------------------------------------------*/
FoamFile
{
    version     2.0;
    format      ascii;
    arch        "LSB;label=32;scalar=64";
    class       volVectorField;
    location    "0.45";
    object      UMean;
}
// * * * * * * * * * * * * * * * * * * * * * * * * * * * * * * * * * * * * * //

dimensions      [0 1 -1 0 0 0 0];

internalField   nonuniform List<vector> 
122250
(
(-23.0995 0.285132 -0.259182)
(5.57633 1.44802 -0.404052)
(-27.2845 -2.52858 0.0378847)
(6.38377 -1.27427 0.276703)
(-7.09213 -0.818068 -0.00300943)
(3.88175 -0.53899 -0.111157)
(-0.993527 -0.377184 -0.0443683)
(3.37871 -0.330789 -0.0439081)
(1.77149 -0.226983 0.0040737)
(3.55951 -0.240853 0.0320349)
(3.24318 -0.172634 0.0655634)
(3.87825 -0.162482 0.0695185)
(3.83903 -0.150844 0.0787408)
(4.12126 -0.147923 0.110122)
(4.16733 -0.12827 0.134968)
(4.22616 -0.116975 0.152717)
(4.33093 -0.125226 0.122014)
(4.19759 -0.00276924 0.106055)
(-31.8505 2.09517 -0.192334)
(9.54791 4.6645 -0.330049)
(-23.3269 -3.44935 0.0468248)
(2.88266 -1.5279 0.135257)
(-8.57012 -0.614004 -0.0263868)
(2.27437 -0.709896 -0.0950743)
(-1.75365 -0.35209 -0.147377)
(2.9285 -0.466073 -0.154782)
(1.82097 -0.23904 -0.0682973)
(3.7273 -0.30369 -0.0580811)
(3.67503 -0.164738 0.0161775)
(4.46289 -0.150819 0.0616099)
(4.62643 -0.105191 0.0838332)
(5.02568 -0.0948244 0.0847233)
(5.16386 -0.0457588 0.0949059)
(5.30093 -0.0411222 0.0905741)
(5.36795 0.0104035 0.0316907)
(5.33138 0.0502076 0.0109599)
(-33.7158 3.69061 -0.105969)
(13.53 6.50456 -0.199023)
(-21.5109 -4.84732 0.164256)
(1.75464 -2.26679 0.165582)
(-9.22466 -1.6355 0.0322801)
(1.13038 -1.52253 -0.018631)
(-2.42375 -1.02374 -0.154623)
(2.12432 -1.01162 -0.166167)
(1.44959 -0.630224 -0.0857533)
(3.33223 -0.657678 -0.0900508)
(3.43911 -0.442188 -0.0426351)
(4.24355 -0.391013 -0.025459)
(4.49508 -0.325787 -0.00027594)
(4.89532 -0.291489 0.0109905)
(5.07532 -0.223546 0.0244496)
(5.23725 -0.190669 0.03059)
(5.36006 -0.121206 0.0121273)
(5.35861 0.00185771 -0.00966683)
(-33.8532 4.93529 -0.0506411)
(17.4895 8.25983 -0.121428)
(-18.9845 -4.87455 0.315162)
(0.907568 -2.55406 0.263286)
(-8.78372 -2.09458 0.0498437)
(0.684569 -2.14241 0.0772421)
(-2.27285 -1.44463 -0.0729039)
(1.87577 -1.46772 -0.108804)
(1.39544 -0.941831 -0.0619357)
(3.16062 -0.918121 -0.0776974)
(3.29602 -0.634512 -0.0906222)
(4.07687 -0.536906 -0.0810531)
(4.35789 -0.428097 -0.0722053)
(4.73769 -0.354268 -0.0603359)
(4.91899 -0.262584 -0.0487163)
(5.10683 -0.225524 -0.0235)
(5.22183 -0.121259 0.00418472)
(5.2864 0.0216295 -0.0144106)
(-33.8516 6.08862 -0.0146404)
(21.5363 9.51158 -0.0888593)
(-16.16 -4.64437 0.408507)
(1.70835 -2.92071 0.362247)
(-7.59783 -2.84852 0.131836)
(0.722339 -2.8457 0.105128)
(-1.96433 -2.02365 0.0126143)
(1.88376 -2.00194 -0.0844092)
(1.49212 -1.36564 -0.0713796)
(3.1338 -1.26219 -0.0789687)
(3.2853 -0.897227 -0.115948)
(4.01912 -0.733686 -0.106093)
(4.29543 -0.573033 -0.100962)
(4.6359 -0.46898 -0.0865555)
(4.79042 -0.366822 -0.0660095)
(4.9378 -0.307561 -0.0303313)
(5.02494 -0.185763 0.0035711)
(5.11499 -0.0228221 -0.00518455)
(-33.8695 6.89705 0.00803787)
(25.1062 10.4553 -0.058527)
(-13.2207 -3.6034 0.400581)
(3.14247 -2.95729 0.376984)
(-5.87646 -3.194 0.148473)
(1.19426 -3.31917 0.141391)
(-1.13516 -2.49979 0.0851323)
(2.13894 -2.46282 -0.0223661)
(1.82545 -1.74154 -0.0811442)
(3.26654 -1.56888 -0.0793778)
(3.40305 -1.12434 -0.0984983)
(4.03034 -0.894614 -0.0785829)
(4.25357 -0.674855 -0.0705984)
(4.54893 -0.543805 -0.0724825)
(4.69524 -0.426038 -0.053167)
(4.81751 -0.34708 -0.0155818)
(4.86086 -0.207808 0.0132527)
(4.95204 -0.0523901 0.0121734)
(-34.0585 7.19278 0.0254315)
(28.1017 10.8985 -0.0236615)
(-10.0874 -2.53579 0.377758)
(5.20364 -2.97746 0.373902)
(-3.64335 -3.4829 0.09526)
(2.12444 -3.71644 0.105381)
(-0.0802004 -2.92685 0.140869)
(2.59862 -2.82953 0.0723114)
(2.34867 -2.10975 -0.0317393)
(3.52241 -1.84707 -0.0247737)
(3.62329 -1.35397 -0.0222321)
(4.13557 -1.07012 0.0112387)
(4.30939 -0.813218 0.00991316)
(4.54637 -0.649699 -0.0155906)
(4.67598 -0.514294 -0.0216685)
(4.76599 -0.397085 -0.00797265)
(4.77823 -0.250034 0.0137312)
(4.84226 -0.108328 0.0297755)
(-34.3621 7.06725 0.0375782)
(30.3416 10.8181 0.0954833)
(-7.07471 -1.32078 0.38183)
(7.3706 -2.69722 0.39108)
(-1.22136 -3.49641 0.0810008)
(3.37899 -3.85307 0.0497379)
(1.2347 -3.1792 0.136868)
(3.23451 -3.03075 0.143626)
(2.97335 -2.35132 0.066398)
(3.88772 -2.02274 0.0457404)
(3.91862 -1.51805 0.0371426)
(4.34152 -1.19699 0.0587674)
(4.4412 -0.90734 0.0759452)
(4.60124 -0.716684 0.0550826)
(4.69909 -0.564528 0.0437283)
(4.76504 -0.418319 0.0494636)
(4.77598 -0.261931 0.0418832)
(4.8165 -0.129509 0.0504453)
(-34.8254 6.62505 0.0428132)
(31.9169 10.2211 0.0795424)
(-4.39098 -0.322215 0.325877)
(9.44446 -2.35966 0.476291)
(1.16637 -3.38648 0.172202)
(4.87887 -3.87999 0.119596)
(2.7385 -3.32491 0.168306)
(4.13507 -3.10476 0.172051)
(3.75021 -2.49829 0.143061)
(4.33524 -2.13307 0.0820414)
(4.267 -1.64476 0.0581385)
(4.55564 -1.30676 0.0542918)
(4.59713 -0.996611 0.0708823)
(4.69872 -0.780719 0.0631481)
(4.73198 -0.611231 0.0464398)
(4.77024 -0.442347 0.0605361)
(4.76721 -0.273995 0.0606415)
(4.8003 -0.133113 0.0614179)
(-35.3063 5.96345 0.0406627)
(32.8775 9.17863 0.0534485)
(-2.02419 0.541993 0.128966)
(11.3382 -1.72082 0.439463)
(3.60383 -3.06363 0.217552)
(6.32863 -3.6509 0.168314)
(4.18685 -3.28608 0.185744)
(5.09956 -3.03355 0.172339)
(4.54419 -2.49436 0.178786)
(4.85338 -2.12163 0.132622)
(4.62609 -1.68896 0.0988952)
(4.76486 -1.37492 0.0416892)
(4.73594 -1.07075 -0.00449403)
(4.78508 -0.841999 -0.0358045)
(4.74754 -0.644484 -0.0793839)
(4.74056 -0.468983 -0.0751479)
(4.72758 -0.291085 -0.0487225)
(4.7409 -0.129751 -0.0171083)
(-35.6366 5.18839 0.0409998)
(33.0542 7.60041 0.0741438)
(-0.498811 0.847494 0.0545071)
(12.9087 -1.19378 0.27226)
(5.77112 -2.6781 0.138266)
(7.66301 -3.26636 0.121138)
(5.37291 -3.08425 0.151586)
(5.90602 -2.86152 0.162981)
(5.13745 -2.39206 0.2)
(5.25864 -2.01361 0.1756)
(4.91728 -1.64527 0.16343)
(4.90365 -1.3833 0.0871461)
(4.80425 -1.10791 -0.0280893)
(4.80511 -0.885353 -0.115877)
(4.72401 -0.680588 -0.170313)
(4.66501 -0.494741 -0.193056)
(4.61705 -0.304926 -0.189342)
(4.59167 -0.121668 -0.128851)
(-35.6537 4.50882 0.0465105)
(33.0392 5.81646 -0.00814844)
(0.507153 0.806687 -0.00551038)
(13.8376 -0.707619 0.213524)
(7.07487 -2.19364 0.144494)
(8.47486 -2.78236 0.0629613)
(6.0773 -2.75165 0.088326)
(6.45978 -2.56615 0.111051)
(5.47845 -2.19798 0.166676)
(5.45544 -1.84459 0.182433)
(5.05309 -1.52211 0.178619)
(4.9637 -1.2899 0.121577)
(4.79467 -1.07317 0.00888363)
(4.75159 -0.874524 -0.110157)
(4.63037 -0.674896 -0.182349)
(4.52384 -0.500482 -0.204737)
(4.45539 -0.311531 -0.227342)
(4.44327 -0.129331 -0.205603)
(-35.4828 3.88833 0.0563535)
(32.3156 3.94298 -0.00159862)
(0.630824 0.612225 -0.0390298)
(14.0095 -0.177908 0.0625546)
(7.60836 -1.6865 0.0643326)
(8.83613 -2.21266 -0.0112173)
(6.33259 -2.37117 0.0280291)
(6.63075 -2.20619 0.0466881)
(5.5652 -1.9282 0.102753)
(5.49264 -1.63268 0.130423)
(5.03978 -1.3685 0.119682)
(4.91983 -1.17142 0.0974438)
(4.70993 -1.00055 0.0294301)
(4.60563 -0.818343 -0.0360802)
(4.48648 -0.645491 -0.0847646)
(4.42143 -0.49748 -0.142642)
(4.34882 -0.330767 -0.203223)
(4.31883 -0.152126 -0.218225)
(-35.0847 3.10566 0.0686235)
(31.5499 1.53428 0.0558149)
(-0.217085 0.0469113 -0.00589367)
(13.474 0.355194 0.0289548)
(7.05783 -1.24232 -0.00927597)
(8.71595 -1.59819 -0.048392)
(6.08365 -1.90574 0.0501821)
(6.45883 -1.77771 0.0530062)
(5.33338 -1.59458 0.0479996)
(5.33595 -1.36086 0.0745105)
(4.8364 -1.16781 0.0723947)
(4.74963 -1.02518 0.0628201)
(4.5255 -0.888214 0.0231326)
(4.39048 -0.775685 -0.00377459)
(4.22376 -0.639021 -0.00333132)
(4.17154 -0.502166 -0.0587384)
(4.10782 -0.333798 -0.11237)
(4.06205 -0.137062 -0.13739)
(-34.4137 2.19024 0.104659)
(30.2999 -0.73346 0.23139)
(-2.30657 -0.759678 -0.00244945)
(12.1642 0.641599 0.0185692)
(5.35468 -0.866012 0.089527)
(7.71437 -1.03378 0.179545)
(5.10487 -1.40408 0.155696)
(5.81874 -1.34436 0.0860221)
(4.6327 -1.24255 0.0625812)
(4.7713 -1.11314 0.0915005)
(4.28989 -0.984518 0.0991085)
(4.31893 -0.873255 0.0779346)
(4.08836 -0.732485 0.0412389)
(4.00172 -0.623809 0.00498886)
(3.8451 -0.542606 3.52204e-05)
(3.75203 -0.45664 -0.0544184)
(3.63405 -0.316437 -0.0800192)
(3.57442 -0.136404 -0.0631176)
(-33.6636 1.18522 0.0918024)
(28.901 -2.28277 0.13551)
(-5.80586 -0.565162 0.168745)
(10.4053 0.854991 0.165978)
(2.552 -0.535664 0.233526)
(6.25373 -0.430458 0.274425)
(3.74708 -0.91878 0.158067)
(4.69618 -0.928773 0.126171)
(3.69685 -0.921786 0.0190342)
(3.99184 -0.890993 0.013065)
(3.55598 -0.848161 0.0336901)
(3.58494 -0.817197 0.016059)
(3.40269 -0.697578 0.0150141)
(3.3788 -0.5675 0.0149293)
(3.26339 -0.442315 -0.0227748)
(3.19689 -0.343815 -0.063981)
(3.10425 -0.219956 -0.0562286)
(3.05234 -0.096847 -0.0420879)
(-32.9666 0.412578 -0.0279672)
(26.857 -2.36193 -0.0752634)
(-7.56657 -0.337392 0.284051)
(9.07755 0.420076 0.326407)
(0.373403 -0.693827 0.258385)
(5.13438 -0.360091 0.291272)
(2.44527 -0.791685 0.0851976)
(3.8329 -0.788383 0.0579351)
(2.92516 -0.828477 -0.0336462)
(3.26915 -0.75295 -0.058052)
(2.85823 -0.660336 -0.0607148)
(2.93403 -0.611347 -0.0570582)
(2.73756 -0.543797 -0.0579719)
(2.71944 -0.445438 -0.0674531)
(2.60584 -0.35399 -0.06779)
(2.59786 -0.286642 -0.0768121)
(2.58119 -0.190452 -0.108882)
(2.56822 -0.0972211 -0.144253)
(-32.599 0.31881 -0.139647)
(24.3346 -1.06953 -0.228999)
(-9.73977 0.0789731 0.803403)
(8.72109 0.0630065 0.670196)
(-1.04879 -0.529852 -0.0182898)
(4.39444 -0.341579 -0.0612732)
(1.2815 -0.606214 -0.0524308)
(3.04855 -0.558306 -0.107606)
(2.05593 -0.511289 -0.248316)
(2.44465 -0.465212 -0.27116)
(2.04215 -0.423775 -0.238618)
(2.14995 -0.428454 -0.221471)
(1.97261 -0.398849 -0.176119)
(1.96033 -0.341718 -0.157324)
(1.86174 -0.294621 -0.108325)
(1.84718 -0.268669 -0.0650527)
(1.83965 -0.238221 -0.0625142)
(1.86404 -0.181242 -0.0992076)
(-32.3727 1.02534 0.00428467)
(23.8307 0.374266 0.167226)
(-10.5697 -1.08613 0.635602)
(8.76353 -0.669379 0.476608)
(-1.23345 -0.631818 0.0514792)
(4.64045 -0.762445 -0.173249)
(1.60265 -0.444112 -0.0777495)
(3.17011 -0.484976 -0.00353695)
(2.09389 -0.400495 -0.0345968)
(2.49594 -0.420644 -0.0643054)
(2.12566 -0.406318 -0.105991)
(2.23267 -0.381819 -0.0750162)
(2.08175 -0.355979 -0.0465104)
(2.06996 -0.315292 -0.0668402)
(1.95594 -0.26462 -0.0682849)
(1.91161 -0.258825 -0.0768186)
(1.87123 -0.244771 -0.0819496)
(1.85883 -0.218508 -0.0434014)
(-32.6934 0.973081 0.20909)
(26.32 2.1004 0.480649)
(-8.66785 -1.34247 0.0931186)
(9.70389 -1.82747 0.0416514)
(0.609903 -0.65212 0.203496)
(4.997 -0.865126 0.212361)
(2.16364 -0.170262 0.213088)
(3.51572 -0.266051 0.219685)
(2.55332 -0.108441 0.214835)
(2.8777 -0.15045 0.244463)
(2.49037 -0.130337 0.280771)
(2.55521 -0.162274 0.300022)
(2.4214 -0.188602 0.254707)
(2.40812 -0.161405 0.173059)
(2.30386 -0.1247 0.131297)
(2.23699 -0.12202 0.113855)
(2.14371 -0.134224 0.0925763)
(2.08345 -0.150359 0.0880027)
(-33.3576 -0.403843 0.287559)
(29.1069 0.94948 0.621149)
(-4.52213 -0.232397 -0.0940871)
(10.8545 -1.36733 -0.0339252)
(3.51549 -0.101356 0.109379)
(6.12115 -0.209464 0.0646071)
(3.65354 0.12344 0.134891)
(4.41462 0.0116493 0.120272)
(3.48608 0.0989701 0.14819)
(3.6156 0.104392 0.212696)
(3.14155 0.0926223 0.228451)
(3.05236 0.0502174 0.248895)
(2.75792 0.00377065 0.246736)
(2.63582 -0.0278128 0.215613)
(2.49967 -0.044761 0.195672)
(2.41987 -0.0257315 0.199078)
(2.30398 -0.0236013 0.193488)
(2.21703 -0.0339576 0.166008)
(-33.8536 -2.01314 0.336597)
(30.5704 -1.91752 0.708332)
(-1.80473 -0.211286 -0.256726)
(11.4088 -0.630347 -0.291562)
(4.78964 0.538676 0.0627576)
(6.87562 0.567127 0.00793438)
(4.38654 0.72967 0.100017)
(4.72947 0.654758 0.0825692)
(3.70975 0.502173 0.101509)
(3.66152 0.389692 0.163453)
(3.20936 0.382315 0.243667)
(3.10646 0.371073 0.260866)
(2.83354 0.297794 0.264276)
(2.72794 0.22698 0.238712)
(2.56113 0.169724 0.206894)
(2.47219 0.131542 0.181709)
(2.37358 0.0880399 0.146287)
(2.30269 0.0516617 0.098631)
(-33.9654 -3.56918 0.302396)
(31.4099 -4.84062 0.621998)
(-0.735838 0.159713 -0.0431742)
(10.796 0.696129 -0.225897)
(3.94433 1.35798 -0.00883049)
(6.12462 1.59074 -0.0299823)
(3.59383 1.39801 0.0706291)
(4.2345 1.20239 0.0628537)
(3.19887 0.860606 0.124686)
(3.25811 0.707902 0.177161)
(2.82724 0.61922 0.28346)
(2.83864 0.563092 0.356279)
(2.71056 0.457608 0.33233)
(2.69709 0.407273 0.268133)
(2.61004 0.332941 0.189562)
(2.56361 0.247948 0.135737)
(2.49114 0.160553 0.0896428)
(2.43877 0.091962 0.0581659)
(-33.7496 -4.99025 0.258031)
(30.988 -6.91469 0.416033)
(-2.50014 1.1241 -0.0779035)
(9.41313 1.86153 -0.0729487)
(1.73292 2.17263 0.082153)
(4.60094 2.36222 0.104818)
(2.06971 1.75775 0.109202)
(3.23466 1.60644 0.0920861)
(2.3139 1.1476 0.178369)
(2.72788 0.9943 0.219256)
(2.38331 0.792369 0.263304)
(2.53759 0.703465 0.298418)
(2.48693 0.579209 0.238299)
(2.55848 0.474591 0.155801)
(2.55139 0.337268 0.0910313)
(2.57418 0.251129 0.072218)
(2.55379 0.170102 0.0640845)
(2.55009 0.101145 0.0623609)
(-33.2837 -6.14976 0.198017)
(30.0552 -8.16894 0.38901)
(-4.98115 2.45259 0.195187)
(7.32102 2.70047 0.0638798)
(-1.30639 2.53666 0.179568)
(2.93489 2.58858 0.152763)
(0.239874 1.68222 0.102297)
(2.16545 1.59299 0.143605)
(1.40483 1.00846 0.190316)
(2.20352 0.929787 0.147473)
(2.04843 0.705404 0.111387)
(2.41128 0.602305 0.0924933)
(2.4426 0.453057 0.0511355)
(2.63055 0.346255 0.0196717)
(2.68509 0.218427 -0.0212452)
(2.75677 0.158743 -0.0216661)
(2.78708 0.118899 0.00740492)
(2.81952 0.0641867 0.0390332)
(-32.9358 -6.73772 0.134219)
(27.707 -8.79292 0.435716)
(-8.33223 4.15138 0.365922)
(4.58173 3.48385 0.199665)
(-4.41963 2.89278 0.0690881)
(1.77966 2.72326 0.0485387)
(-1.14142 1.5523 0.126289)
(1.77152 1.39474 0.0971114)
(1.02429 0.801333 0.0718343)
(2.19564 0.746109 0.0440711)
(2.13846 0.530882 -0.0183582)
(2.62514 0.472029 -0.0747569)
(2.70764 0.358254 -0.0765469)
(2.93239 0.285916 -0.0933787)
(2.99003 0.190435 -0.121715)
(3.08618 0.142913 -0.128368)
(3.14755 0.101536 -0.0970991)
(3.2045 0.054957 -0.0403865)
(-32.8488 -6.38499 0.0662578)
(22.7033 -8.24342 0.312856)
(-12.8814 5.44641 0.486647)
(1.93695 3.55938 0.14715)
(-6.8112 2.18019 0.0922939)
(1.2946 2.08637 0.164727)
(-1.57978 0.890783 0.0490691)
(1.87998 0.844271 0.0637347)
(1.12875 0.394556 0.0334375)
(2.48667 0.400422 -0.00606307)
(2.37997 0.27063 -0.0616093)
(2.92842 0.263387 -0.11319)
(2.99796 0.180061 -0.114148)
(3.24626 0.136678 -0.105318)
(3.30931 0.0655434 -0.107632)
(3.43624 0.0271456 -0.12795)
(3.48817 -0.00607555 -0.117718)
(3.5339 -0.0176012 -0.077606)
(-33.2979 -5.3708 0.00677925)
(16.6136 -6.4072 0.139785)
(-17.7245 6.64357 0.609101)
(1.51015 3.45379 0.148132)
(-7.8648 1.86667 0.134387)
(2.03119 1.53696 0.0920705)
(-1.10206 0.653027 0.0641088)
(2.60197 0.537773 0.0804596)
(1.59561 0.275739 0.106432)
(3.01768 0.280864 0.0408606)
(2.82996 0.237514 0.0255446)
(3.43965 0.226974 -0.0191864)
(3.45208 0.156746 -0.0442189)
(3.69769 0.146736 -0.0379801)
(3.74201 0.0995596 -0.0413618)
(3.85886 0.0718125 -0.0703697)
(3.87799 0.0607369 -0.0737021)
(3.89217 0.0466971 -0.0487283)
(-34.0631 -3.61402 -0.055828)
(10.8402 -4.96325 -0.0695553)
(-20.2541 5.13356 0.65874)
(3.20205 2.42941 0.573594)
(-6.44988 0.0831174 0.328327)
(3.59669 0.3304 0.338242)
(0.474357 -0.198451 0.400095)
(3.73131 -0.0103395 0.244806)
(2.63642 -0.065432 0.235174)
(3.85739 -0.0318706 0.0872831)
(3.56715 -0.0212651 0.0911207)
(4.11841 -0.0186582 0.0671655)
(4.03049 -0.052402 0.043522)
(4.20983 -0.0369146 0.0128654)
(4.15094 -0.0435633 -0.00222709)
(4.17267 -0.0457981 -0.0221361)
(4.11413 -0.0404957 -0.0321947)
(4.07287 -0.0465644 -0.0202155)
(-31.0155 -1.07324 -0.0861023)
(4.41554 -0.880938 -0.126184)
(-26.5812 3.98229 0.548598)
(9.6098 2.15713 0.694011)
(-2.89719 0.937354 0.248636)
(6.58435 0.546282 0.36615)
(2.508 0.218286 0.370335)
(4.64062 0.182424 0.225111)
(3.38405 0.173387 0.195618)
(4.18154 0.16076 0.0933334)
(3.70891 0.151766 0.080423)
(4.0591 0.134971 0.0407992)
(3.81362 0.11283 0.0152281)
(3.8534 0.118238 -0.0191812)
(3.71425 0.115107 -0.0361123)
(3.66297 0.113407 -0.0686259)
(3.56661 0.112209 -0.0870116)
(3.48488 0.101241 -0.0855092)
(-22.7144 0.286473 -0.503533)
(4.4152 1.42907 -0.241361)
(-28.5438 -2.64823 0.407147)
(6.30476 -1.31346 0.401019)
(-7.56134 -0.827073 0.365042)
(3.5365 -0.563619 0.416854)
(-1.30683 -0.391088 0.296411)
(3.0753 -0.342623 0.255758)
(1.48401 -0.212432 0.234097)
(3.29063 -0.215383 0.162155)
(2.97324 -0.145101 0.126301)
(3.61031 -0.147788 0.122963)
(3.57549 -0.139346 0.126397)
(3.8649 -0.134816 0.12306)
(3.9358 -0.110376 0.131457)
(3.99197 -0.0898342 0.135912)
(4.09347 -0.0997419 0.140665)
(3.9387 0.0166032 0.17857)
(-31.4727 2.05473 -0.455488)
(8.47954 4.71683 -0.361099)
(-24.4767 -3.74531 0.215199)
(2.21869 -1.68412 0.169108)
(-9.13525 -0.688994 0.138856)
(2.11023 -0.733843 0.213676)
(-1.79585 -0.359412 0.107939)
(2.73585 -0.475209 0.0399227)
(1.67058 -0.213195 0.122665)
(3.55679 -0.276339 0.0706752)
(3.5297 -0.138088 0.069284)
(4.33328 -0.112587 0.0483306)
(4.46608 -0.0558265 0.0655136)
(4.8035 -0.0457728 0.0753767)
(4.92973 0.00716847 0.105682)
(5.08576 0.016582 0.110142)
(5.16885 0.0695366 0.0839664)
(5.12253 0.107179 0.0776075)
(-33.385 3.63423 -0.294851)
(12.9431 6.51836 -0.357692)
(-22.1075 -5.21596 0.254115)
(1.07965 -2.57836 0.245518)
(-9.4711 -1.88128 0.0927264)
(0.946688 -1.58496 0.244476)
(-2.4426 -1.01149 0.0897803)
(2.03377 -1.0396 -0.0407885)
(1.36482 -0.62329 0.0553676)
(3.21367 -0.627446 0.0340774)
(3.33922 -0.402307 0.059707)
(4.15638 -0.325774 0.0251228)
(4.38914 -0.229527 0.0340022)
(4.75598 -0.181703 0.0462972)
(4.93384 -0.100523 0.0760838)
(5.1115 -0.0577988 0.088919)
(5.2442 0.000437067 0.0758159)
(5.24548 0.105901 0.0710298)
(-33.6514 4.88889 -0.182028)
(17.1355 8.25132 -0.313948)
(-19.438 -5.20542 0.21809)
(0.426319 -2.93085 0.351761)
(-9.04289 -2.32938 0.112241)
(0.453097 -2.12946 0.251005)
(-2.30793 -1.40411 0.0658365)
(1.78688 -1.46176 -0.0300738)
(1.29955 -0.897807 0.0625539)
(3.0577 -0.876901 0.0382642)
(3.19185 -0.577678 0.0111907)
(4.01467 -0.459799 -0.0546626)
(4.28564 -0.323444 -0.0729586)
(4.66505 -0.242671 -0.0470456)
(4.83895 -0.125462 -0.00739966)
(5.02549 -0.0621811 0.0269715)
(5.14385 0.0254898 0.0329498)
(5.19166 0.145997 0.0358569)
(-33.7244 6.05215 -0.0921261)
(21.4103 9.4354 -0.254378)
(-16.5392 -4.98597 0.18058)
(1.48147 -3.30482 0.383676)
(-7.75506 -3.14576 0.114938)
(0.550198 -2.86679 0.127771)
(-1.97478 -1.95954 0.0536611)
(1.83086 -1.94321 -0.0485487)
(1.42165 -1.28653 0.00891496)
(3.09083 -1.20545 0.0255176)
(3.20446 -0.84646 -0.0393851)
(3.97205 -0.682322 -0.115694)
(4.24643 -0.507443 -0.134237)
(4.60322 -0.386036 -0.0951615)
(4.74724 -0.233048 -0.0433854)
(4.90398 -0.126653 -0.00733138)
(4.98882 -0.0209091 -0.00177625)
(5.05895 0.109189 0.0146511)
(-33.7971 6.86614 -0.0203531)
(25.0492 10.222 -0.162637)
(-13.5686 -4.05531 0.147936)
(3.05209 -3.35941 0.357995)
(-5.82058 -3.44315 0.123333)
(1.13855 -3.33028 0.0603247)
(-1.1414 -2.42265 0.0818783)
(2.14338 -2.38232 0.0057283)
(1.83684 -1.67556 -0.00632812)
(3.26599 -1.51965 0.0210842)
(3.36129 -1.08071 -0.0331442)
(4.01719 -0.88334 -0.0706601)
(4.25215 -0.654825 -0.0905443)
(4.55429 -0.490424 -0.0872018)
(4.66929 -0.311261 -0.0398854)
(4.80061 -0.183521 -0.0113619)
(4.86032 -0.0625371 0.00325221)
(4.92312 0.0719 0.032094)
(-34.0216 7.16799 0.0334368)
(27.9645 10.5612 -0.0525886)
(-10.4104 -2.9527 0.140348)
(5.15891 -3.32909 0.348957)
(-3.74335 -3.72938 0.158644)
(1.99718 -3.70829 0.000263101)
(-0.061308 -2.87702 0.0481752)
(2.66 -2.75148 0.0130131)
(2.39259 -2.04138 -0.00280317)
(3.53189 -1.80848 0.0122175)
(3.61672 -1.32331 0.00104757)
(4.12336 -1.08075 0.00733735)
(4.2884 -0.826218 0.0102287)
(4.5315 -0.624884 -0.0247587)
(4.64059 -0.42427 -0.0239016)
(4.74223 -0.277694 -0.00209978)
(4.78025 -0.126728 0.0226758)
(4.82007 0.0140046 0.0326618)
(-34.3189 7.05528 0.0582613)
(30.1978 10.4907 0.101158)
(-7.55102 -1.73392 0.141191)
(7.41914 -2.99031 0.23496)
(-1.3681 -3.67889 0.169775)
(3.23366 -3.89055 -0.0512845)
(1.26126 -3.21917 0.0435089)
(3.34516 -3.0204 0.0398663)
(3.06076 -2.32549 0.0119014)
(3.91519 -2.01297 0.0164958)
(3.9333 -1.50287 0.0195034)
(4.32918 -1.2092 0.0348471)
(4.40894 -0.944359 0.0528501)
(4.56395 -0.735322 0.026057)
(4.65519 -0.519416 0.0031858)
(4.73355 -0.34017 0.0122768)
(4.75583 -0.172033 0.0120933)
(4.79064 -0.0270181 0.0127818)
(-34.7878 6.63262 0.0594135)
(31.766 9.99049 0.12934)
(-4.94156 -0.709601 0.139665)
(9.46228 -2.56515 0.247124)
(1.11478 -3.48041 0.17008)
(4.76607 -3.9185 -0.0526819)
(2.75744 -3.38812 0.0393364)
(4.18393 -3.13179 0.0630476)
(3.81545 -2.49351 0.0401471)
(4.36929 -2.12204 0.0564116)
(4.28014 -1.64279 0.055388)
(4.54455 -1.31389 0.0573544)
(4.59033 -1.02346 0.0587635)
(4.67485 -0.792471 0.0394668)
(4.69807 -0.564756 0.00480851)
(4.73568 -0.351667 0.0146033)
(4.73508 -0.178645 0.00318588)
(4.76494 -0.0342461 -0.0151396)
(-35.2551 5.98803 0.0439008)
(32.8771 8.98644 0.135648)
(-2.33811 0.195365 0.141263)
(11.1932 -1.93921 0.0622687)
(3.33002 -3.11006 0.0402911)
(6.18778 -3.68389 -0.0182143)
(4.15644 -3.34209 0.0335977)
(5.10853 -3.09283 0.0863342)
(4.52703 -2.52696 0.112799)
(4.85461 -2.12433 0.143974)
(4.60573 -1.69201 0.149329)
(4.74739 -1.38493 0.110992)
(4.71068 -1.10249 0.0531433)
(4.77063 -0.844931 0.0187714)
(4.7292 -0.59706 -0.014876)
(4.70375 -0.377968 -0.0253907)
(4.67773 -0.199967 -0.0305967)
(4.68828 -0.0434043 -0.0446523)
(-35.559 5.22 0.0241975)
(33.302 7.54303 0.0765496)
(-0.559727 0.708963 0.129713)
(12.5221 -1.30481 0.132691)
(5.22526 -2.62645 0.0308421)
(7.46286 -3.30385 0.0350709)
(5.31505 -3.14829 0.00640031)
(5.91834 -2.94777 0.079385)
(5.10858 -2.43349 0.130137)
(5.25912 -2.02408 0.166005)
(4.89869 -1.65068 0.170778)
(4.89773 -1.38797 0.109501)
(4.78376 -1.15288 0.0455444)
(4.75686 -0.892796 0.00240029)
(4.67814 -0.623682 -0.0341975)
(4.62628 -0.41212 -0.0684311)
(4.59368 -0.222618 -0.0899746)
(4.56911 -0.0654903 -0.0971956)
(-35.6204 4.54061 0.0159267)
(33.3252 5.82597 0.028628)
(0.559799 0.75034 0.0768368)
(13.5986 -0.676871 0.179869)
(6.70735 -2.13104 0.0305578)
(8.3778 -2.83863 0.00974264)
(6.10311 -2.85314 -0.0268277)
(6.43553 -2.64975 0.0622339)
(5.40911 -2.23538 0.121543)
(5.43522 -1.84232 0.128294)
(5.02694 -1.54205 0.151855)
(4.947 -1.32452 0.117661)
(4.75228 -1.11795 0.0517443)
(4.65757 -0.887118 -0.000754516)
(4.5403 -0.651803 -0.0436853)
(4.47247 -0.459804 -0.0655259)
(4.44359 -0.271472 -0.117722)
(4.42348 -0.0947735 -0.141392)
(-35.3814 3.90935 0.0189296)
(32.855 3.84673 0.042239)
(0.937159 0.474854 -0.0544439)
(13.7354 -0.0944205 0.0173279)
(7.33804 -1.69856 0.014301)
(8.86791 -2.30863 0.0251321)
(6.41487 -2.47514 -0.00315595)
(6.66526 -2.29372 0.0361257)
(5.51459 -1.96741 0.0928257)
(5.45843 -1.6417 0.106449)
(5.00074 -1.39414 0.126294)
(4.85894 -1.20104 0.107991)
(4.60251 -1.02889 0.0676223)
(4.47977 -0.834947 0.0411479)
(4.35628 -0.644138 -0.00866421)
(4.30011 -0.480103 -0.0708058)
(4.2433 -0.308647 -0.12185)
(4.20678 -0.143814 -0.148104)
(-35.0117 3.12129 0.0326937)
(31.7199 1.52473 0.0667763)
(-0.252146 0.0309374 0.0151863)
(13.4065 0.387473 0.00664473)
(7.11792 -1.25118 0.0239098)
(8.69841 -1.64824 0.0443406)
(6.15527 -1.98153 0.0290236)
(6.48066 -1.83753 0.0377869)
(5.32236 -1.63222 0.0463112)
(5.27197 -1.38729 0.0949466)
(4.7618 -1.19442 0.105241)
(4.63102 -1.04608 0.062993)
(4.36545 -0.903985 0.0577724)
(4.23645 -0.756152 0.0623577)
(4.09298 -0.624065 0.0265579)
(4.02513 -0.486489 -0.0515036)
(3.94596 -0.327162 -0.0890773)
(3.89538 -0.161722 -0.108294)
(-34.3916 2.19381 0.0548117)
(30.7246 -0.794416 0.0176742)
(-2.24132 -0.753956 0.0809248)
(12.0075 0.588569 0.128704)
(5.32684 -0.899535 0.0741887)
(7.77152 -1.0277 0.1648)
(5.22283 -1.48236 0.11415)
(5.76861 -1.37711 0.088293)
(4.59398 -1.25615 0.0725105)
(4.62682 -1.12442 0.120156)
(4.16647 -1.00427 0.129478)
(4.14829 -0.867355 0.0853605)
(3.95217 -0.747967 0.0887609)
(3.85476 -0.619969 0.0711746)
(3.68413 -0.497528 0.0300202)
(3.57408 -0.369438 -0.0240634)
(3.45219 -0.246124 -0.0392932)
(3.38957 -0.122095 -0.03322)
(-33.5047 1.1541 0.0141485)
(29.1846 -2.28905 -0.0319659)
(-5.67281 -0.564876 0.373113)
(10.2685 0.773832 0.375769)
(2.46501 -0.694283 0.145821)
(6.23447 -0.471679 0.193362)
(3.56588 -0.953708 0.171815)
(4.55602 -0.915731 0.109282)
(3.51474 -0.919245 0.0364436)
(3.75123 -0.879348 0.0277814)
(3.34818 -0.84243 0.0464178)
(3.35068 -0.76592 0.0217153)
(3.18224 -0.647746 0.0334202)
(3.16253 -0.493492 0.0265122)
(3.05731 -0.363942 -0.0133795)
(2.97348 -0.265737 -0.0363419)
(2.90203 -0.166132 -0.0393106)
(2.89258 -0.0826707 -0.0387173)
(-32.8306 0.365819 -0.108768)
(26.5375 -2.32851 -0.387839)
(-8.48502 -0.204979 0.457105)
(9.17038 0.458979 0.517161)
(-0.000697029 -0.741492 0.206059)
(5.16089 -0.316666 0.313768)
(2.22877 -0.695516 0.126585)
(3.59945 -0.646645 0.0207649)
(2.62845 -0.743216 -0.0730603)
(2.97656 -0.695409 -0.0903368)
(2.58345 -0.615667 -0.0862411)
(2.66944 -0.557824 -0.0869334)
(2.52226 -0.473547 -0.0670466)
(2.50502 -0.378211 -0.0707156)
(2.41568 -0.27501 -0.0891539)
(2.41379 -0.191535 -0.0968185)
(2.39458 -0.124292 -0.0876917)
(2.38678 -0.0350625 -0.103459)
(-32.4834 0.278683 -0.0966477)
(24.368 -1.22239 -0.317587)
(-10.4054 -0.243299 0.284615)
(8.85845 0.000133003 0.297766)
(-1.28701 -0.547995 0.0347572)
(4.29458 -0.393861 0.135028)
(1.20271 -0.588093 -0.0622193)
(2.95609 -0.48334 -0.197875)
(1.99177 -0.466091 -0.321522)
(2.35762 -0.449642 -0.293845)
(1.94888 -0.447351 -0.251144)
(2.04929 -0.440628 -0.219332)
(1.89268 -0.360321 -0.177489)
(1.90157 -0.273671 -0.143218)
(1.81768 -0.209419 -0.0882059)
(1.83308 -0.167494 -0.0753294)
(1.86534 -0.135857 -0.0866073)
(1.90148 -0.124829 -0.104329)
(-32.4387 1.0264 0.0650839)
(23.8872 0.318331 0.0702286)
(-10.1957 -1.49508 0.374733)
(9.03688 -0.880526 0.365802)
(-0.897992 -0.621493 0.111266)
(4.83806 -0.899735 0.0164552)
(1.43721 -0.531393 -0.0741909)
(3.11525 -0.521206 -0.0035965)
(2.04709 -0.373872 -0.0272625)
(2.46293 -0.34337 -0.0529486)
(2.06083 -0.312697 -0.088789)
(2.13967 -0.29048 -0.064009)
(1.9838 -0.251435 -0.0268603)
(1.98668 -0.254599 -0.0383995)
(1.92022 -0.199004 -0.0535732)
(1.92375 -0.150992 -0.0721911)
(1.89975 -0.116732 -0.0714564)
(1.89114 -0.0756711 -0.0307053)
(-32.803 0.960125 0.280722)
(27.5122 1.91215 0.702615)
(-7.46843 -1.55409 0.0151715)
(9.58361 -1.99094 0.129579)
(0.579328 -0.783207 0.194445)
(4.99717 -1.03397 0.268452)
(2.05949 -0.301948 0.263394)
(3.34826 -0.248828 0.230241)
(2.32872 -0.062747 0.217589)
(2.68071 -0.105595 0.225206)
(2.33199 -0.0603855 0.23403)
(2.48359 -0.115117 0.225684)
(2.3532 -0.177385 0.222945)
(2.35749 -0.180594 0.194571)
(2.26032 -0.171304 0.158431)
(2.23974 -0.177575 0.142925)
(2.17768 -0.174856 0.128505)
(2.1356 -0.151479 0.121366)
(-33.4311 -0.440251 0.364191)
(29.8287 0.863327 0.624551)
(-3.75618 -0.243654 -0.319244)
(10.8206 -1.29252 -0.289523)
(3.53908 -0.111051 -0.00391523)
(6.08354 -0.206318 0.0994762)
(3.50102 0.224893 0.194644)
(4.24474 0.130147 0.150419)
(3.21238 0.194658 0.173204)
(3.38191 0.162522 0.252156)
(2.95573 0.124025 0.233259)
(2.95901 0.108384 0.222994)
(2.72525 0.0664071 0.243124)
(2.63844 0.0114989 0.240538)
(2.48421 -0.0254242 0.226499)
(2.38266 -0.0373855 0.222981)
(2.27945 -0.0489042 0.223389)
(2.19819 -0.0465042 0.202215)
(-33.9668 -2.09498 0.367346)
(31.3365 -2.30695 0.528011)
(-1.12036 -0.245357 -0.211036)
(11.5317 -0.506175 -0.293213)
(4.97651 0.55635 -0.0245217)
(6.68062 0.635838 -0.0138381)
(4.21387 0.823263 0.158657)
(4.5599 0.727179 0.150642)
(3.52373 0.581938 0.155366)
(3.48849 0.476279 0.179114)
(3.01732 0.437149 0.211095)
(2.97695 0.387255 0.259495)
(2.75457 0.2958 0.264195)
(2.65145 0.227094 0.237935)
(2.48395 0.170294 0.205494)
(2.40522 0.1167 0.194389)
(2.33054 0.0652976 0.18)
(2.25377 0.0474889 0.143605)
(-34.0429 -3.66447 0.307881)
(31.2915 -5.21552 0.342104)
(-0.935162 0.143484 -0.0569598)
(11.3822 0.690318 0.00961499)
(4.4469 1.46526 0.0594365)
(6.11922 1.68294 -0.0852479)
(3.6223 1.48918 0.0590152)
(4.18571 1.30884 0.0852004)
(3.15044 0.936046 0.111708)
(3.20006 0.769102 0.151262)
(2.76407 0.63035 0.251726)
(2.79661 0.568242 0.307659)
(2.63336 0.484181 0.262235)
(2.61495 0.403764 0.209501)
(2.52808 0.287514 0.177975)
(2.47731 0.189803 0.1588)
(2.40304 0.13474 0.121539)
(2.32503 0.0964452 0.0788588)
(-33.7955 -5.07478 0.23798)
(30.9618 -7.40956 0.377783)
(-2.60912 0.995552 0.143447)
(9.72188 1.77359 0.173582)
(2.0238 2.33091 0.112445)
(4.7087 2.56562 0.0134729)
(2.17945 1.90582 0.114366)
(3.22347 1.69073 0.0882164)
(2.29026 1.14702 0.131027)
(2.74346 0.980893 0.142579)
(2.41137 0.763914 0.203807)
(2.56777 0.694073 0.217626)
(2.50106 0.572322 0.186212)
(2.58411 0.458655 0.154801)
(2.57038 0.323395 0.117691)
(2.57483 0.255613 0.0962216)
(2.54826 0.201915 0.0662967)
(2.5401 0.149048 0.0401846)
(-33.319 -6.23187 0.169636)
(29.9438 -8.53812 0.366705)
(-5.39197 2.40061 0.343324)
(7.35175 2.70099 0.30129)
(-1.18375 2.66125 0.170973)
(2.96316 2.73623 0.0836005)
(0.368759 1.80133 0.166431)
(2.24943 1.66266 0.149111)
(1.51501 1.02749 0.19405)
(2.3642 0.902673 0.129095)
(2.18402 0.695084 0.085842)
(2.54775 0.622867 0.0726537)
(2.60122 0.446039 0.0343293)
(2.7987 0.332838 0.0170138)
(2.82337 0.219848 -0.0143637)
(2.85823 0.171544 -0.0230498)
(2.87743 0.153614 -0.00695242)
(2.91492 0.10569 0.00563362)
(-32.9607 -6.83492 0.0903657)
(27.7508 -9.01034 0.374559)
(-8.61279 4.26844 0.571534)
(4.88204 3.48721 0.433097)
(-4.10045 2.99983 0.0914627)
(1.76135 2.76196 0.00639536)