/*--------------------------------*- C++ -*----------------------------------*\
| =========                 |                                                 |
| \\      /  F ield         | OpenFOAM: The Open Source CFD Toolbox           |
|  \\    /   O peration     | Version:  2112                                  |
|   \\  /    A nd           | Website:  www.openfoam.com                      |
|    \\/     M anipulation  |                                                 |
\*---------------------------------------------------------------------------*/
FoamFile
{
    version     2.0;
    format      ascii;
    arch        "LSB;label=32;scalar=64";
    class       volScalarField;
    location    "0.33";
    object      k_0;
}
// * * * * * * * * * * * * * * * * * * * * * * * * * * * * * * * * * * * * * //

dimensions      [0 2 -2 0 0 0 0];

internalField   nonuniform List<scalar> 
12885
(
0.505531
1.16448
1.54488
1.66114
1.76773
1.99154
2.72263
3.74921
4.45032
4.83767
5.05865
5.3044
5.75039
6.96463
8.61092
9.92452
10.8074
11.3212
11.6138
11.8828
12.3618
13.4375
14.7021
15.8962
16.9064
17.6749
18.1912
18.5028
18.6995
18.8723
19.0875
19.3746
19.7249
20.1284
20.5357
20.9616
21.3215
21.707
22.0698
21.8346
0.379189
0.408684
0.419128
0.416643
0.413127
0.41709
0.444151
0.536391
0.634725
0.684825
0.712093
0.751656
0.825342
0.971484
1.27981
1.61548
1.88676
2.0654
2.18009
2.27155
2.39582
2.65683
3.04943
3.52803
4.0362
4.51537
4.92789
5.25073
5.49275
5.68926
5.87661
6.08988
6.33422
6.6302
6.94894
7.32159
7.69492
8.13304
8.58518
9.33579
0.375962
0.379254
0.378859
0.376828
0.37253
0.367734
0.364094
0.363962
0.364288
0.363849
0.360035
0.359034
0.36045
0.365909
0.379065
0.410379
0.443048
0.469735
0.486765
0.502384
0.5171
0.546188
0.586455
0.6598
0.752211
0.87362
0.997401
1.12883
1.23617
1.34277
1.42047
1.51629
1.58966
1.70589
1.8017
1.96131
2.09629
2.3146
2.494
2.77933
0.375545
0.376388
0.376158
0.375366
0.373652
0.371549
0.369537
0.367759
0.366331
0.364271
0.36131
0.359008
0.357019
0.354959
0.353885
0.354068
0.354902
0.355252
0.355251
0.354049
0.352698
0.352739
0.353561
0.356215
0.360928
0.370823
0.381801
0.398989
0.412498
0.430582
0.441905
0.458373
0.468166
0.486526
0.498694
0.523781
0.542735
0.578964
0.606798
0.661097
0.375341
0.375756
0.375633
0.375245
0.374419
0.373378
0.372351
0.371414
0.370573
0.369399
0.367982
0.366615
0.36522
0.363798
0.362648
0.361654
0.360731
0.359801
0.358729
0.357201
0.355623
0.354252
0.353066
0.352002
0.351473
0.351507
0.351792
0.35258
0.353726
0.355301
0.35638
0.357675
0.358427
0.35964
0.360471
0.362119
0.363529
0.366035
0.368177
0.37317
0.375209
0.375488
0.375427
0.37521
0.374751
0.374167
0.373586
0.373046
0.372518
0.37184
0.371054
0.370253
0.369423
0.368598
0.36786
0.367146
0.366429
0.365695
0.364884
0.363946
0.362975
0.362053
0.361138
0.360293
0.359608
0.359068
0.358632
0.358342
0.358142
0.358006
0.357857
0.357713
0.357508
0.357302
0.357059
0.356863
0.356681
0.356547
0.35654
0.356627
0.375128
0.375325
0.375308
0.375184
0.374911
0.37456
0.374205
0.373862
0.373506
0.373078
0.372595
0.372096
0.371587
0.371082
0.370598
0.37011
0.369603
0.369076
0.368515
0.36792
0.367319
0.366741
0.366178
0.365647
0.365165
0.364735
0.364352
0.36402
0.363725
0.363459
0.363195
0.362928
0.36266
0.362399
0.362142
0.361899
0.361672
0.36146
0.361289
0.361106
0.375079
0.375215
0.375224
0.375155
0.374992
0.374774
0.374547
0.374319
0.374072
0.373787
0.373474
0.373152
0.372826
0.3725
0.372172
0.371832
0.371473
0.371099
0.370711
0.370317
0.369927
0.369553
0.369192
0.368848
0.368525
0.368224
0.367944
0.367685
0.367444
0.367219
0.367005
0.366801
0.366606
0.366423
0.366251
0.36609
0.365942
0.365807
0.365681
0.365546
0.375047
0.375137
0.375158
0.375124
0.37503
0.374894
0.374748
0.374593
0.374422
0.374229
0.374023
0.373811
0.373597
0.37338
0.373154
0.372915
0.372662
0.372398
0.372129
0.371862
0.371602
0.371354
0.371116
0.370889
0.370673
0.370466
0.37027
0.370084
0.369908
0.369742
0.369586
0.36944
0.369305
0.36918
0.369061
0.368946
0.368839
0.36874
0.36865
0.368562
0.375026
0.37508
0.375102
0.375088
0.375039
0.374957
0.374864
0.374761
0.374645
0.374517
0.374381
0.374243
0.374102
0.373956
0.373802
0.373635
0.373458
0.373275
0.37309
0.372908
0.372734
0.372568
0.372409
0.372258
0.372113
0.371973
0.371839
0.371709
0.371584
0.371464
0.371351
0.371244
0.371144
0.371054
0.370971
0.370897
0.37083
0.370772
0.370723
0.370681
0.37501
0.375036
0.375052
0.375048
0.375026
0.374981
0.374925
0.374859
0.374785
0.374703
0.374617
0.374528
0.374438
0.374342
0.374238
0.374125
0.374004
0.37388
0.373756
0.373634
0.373517
0.373406
0.3733
0.373198
0.373101
0.373007
0.372916
0.372829
0.372745
0.372665
0.372591
0.372521
0.372458
0.372402
0.372357
0.372323
0.372299
0.372284
0.372275
0.37227
0.374996
0.375
0.375006
0.375005
0.374996
0.374975
0.374945
0.374908
0.374865
0.374817
0.374768
0.374717
0.374665
0.374607
0.374543
0.37447
0.374392
0.374311
0.37423
0.374152
0.374078
0.374009
0.373943
0.373881
0.373821
0.373764
0.373708
0.373655
0.373606
0.373561
0.373521
0.373487
0.37346
0.37344
0.373428
0.373423
0.373425
0.373431
0.373443
0.373458
0.374982
0.374963
0.374956
0.374953
0.374949
0.374943
0.374933
0.37492
0.374904
0.374885
0.374867
0.374849
0.374831
0.374809
0.374781
0.374745
0.374705
0.374661
0.374618
0.374578
0.374543
0.374511
0.374484
0.374459
0.374436
0.374414
0.374393
0.374373
0.374355
0.374341
0.37433
0.374324
0.374323
0.374327
0.374336
0.37435
0.374368
0.37439
0.374414
0.37444
0.374968
0.374924
0.374898
0.374886
0.374881
0.374881
0.374883
0.374886
0.374892
0.374898
0.374906
0.374914
0.374923
0.37493
0.374935
0.374935
0.374933
0.374929
0.374924
0.374922
0.374921
0.374923
0.374927
0.374934
0.374941
0.37495
0.37496
0.37497
0.374982
0.374996
0.375011
0.375029
0.37505
0.375073
0.375098
0.375126
0.375155
0.375186
0.375218
0.375251
0.374957
0.374887
0.374838
0.374808
0.374794
0.374792
0.374797
0.374808
0.374824
0.374844
0.374868
0.374893
0.374919
0.374947
0.374974
0.375001
0.375029
0.375056
0.375083
0.375111
0.375139
0.375168
0.375198
0.375229
0.37526
0.375292
0.375324
0.375357
0.375391
0.375426
0.375461
0.375497
0.375534
0.375571
0.375608
0.375645
0.375682
0.375719
0.375756
0.375791
0.374947
0.374856
0.374784
0.374733
0.374703
0.37469
0.374692
0.374701
0.374719
0.374742
0.374769
0.3748
0.374834
0.37487
0.374909
0.374949
0.374991
0.375033
0.375077
0.375121
0.375166
0.375211
0.375256
0.375301
0.375346
0.375391
0.375437
0.375482
0.375527
0.375572
0.375617
0.375661
0.375705
0.375748
0.375791
0.375833
0.375873
0.375913
0.375951
0.375988
0.374941
0.374834
0.374746
0.374677
0.37463
0.374602
0.374594
0.374598
0.374611
0.374631
0.374657
0.374686
0.374719
0.374755
0.374794
0.374835
0.374878
0.374923
0.374969
0.375015
0.375063
0.37511
0.375158
0.375206
0.375253
0.3753
0.375347
0.375393
0.375439
0.375484
0.375528
0.375572
0.375614
0.375656
0.375696
0.375735
0.375773
0.37581
0.375846
0.37588
0.374939
0.374827
0.374732
0.374657
0.374601
0.374565
0.374548
0.374547
0.374555
0.374572
0.374593
0.374618
0.374647
0.374679
0.374713
0.374749
0.374786
0.374825
0.374865
0.374905
0.374946
0.374987
0.375027
0.375068
0.375108
0.375148
0.375187
0.375225
0.375262
0.375299
0.375334
0.375368
0.375402
0.375434
0.375465
0.375495
0.375523
0.375551
0.375577
0.375603
0.374942
0.374839
0.374752
0.374685
0.374637
0.374606
0.374591
0.37459
0.374595
0.374608
0.374624
0.374643
0.374665
0.374688
0.374713
0.374739
0.374765
0.374792
0.374819
0.374845
0.374872
0.374898
0.374923
0.374947
0.374971
0.374993
0.375015
0.375035
0.375055
0.375073
0.375091
0.375107
0.375123
0.375137
0.37515
0.375162
0.375174
0.375184
0.375194
0.375203
0.374947
0.374855
0.37478
0.374723
0.374683
0.374656
0.374641
0.374635
0.374636
0.37464
0.374647
0.374656
0.374666
0.374677
0.374688
0.374698
0.374708
0.374718
0.374727
0.374735
0.374743
0.37475
0.374756
0.37476
0.374764
0.374766
0.374767
0.374767
0.374766
0.374764
0.374761
0.374758
0.374754
0.374749
0.374744
0.374739
0.374733
0.374726
0.374719
0.374711
0.374955
0.374879
0.374819
0.374773
0.374737
0.374709
0.374688
0.374672
0.374658
0.374646
0.374634
0.374623
0.374611
0.374598
0.374584
0.374567
0.374549
0.374529
0.374509
0.374488
0.374467
0.374445
0.374422
0.374398
0.374373
0.374347
0.374319
0.374291
0.374262
0.374234
0.374205
0.374176
0.374148
0.37412
0.374092
0.374064
0.374037
0.374009
0.373982
0.373955
0.374966
0.374912
0.374867
0.374826
0.374788
0.374749
0.374711
0.374673
0.374632
0.37459
0.374547
0.374502
0.374455
0.374406
0.374354
0.374299
0.374241
0.374181
0.37412
0.374059
0.373999
0.373938
0.373877
0.373815
0.373752
0.373689
0.373624
0.373559
0.373494
0.373429
0.373365
0.373302
0.373241
0.373181
0.373123
0.373065
0.373009
0.372954
0.3729
0.372847
0.374982
0.374954
0.374922
0.374878
0.374822
0.374758
0.374687
0.37461
0.374526
0.374436
0.374341
0.374243
0.374143
0.37404
0.373933
0.373822
0.373706
0.373587
0.373467
0.373347
0.37323
0.373114
0.373
0.372887
0.372773
0.372658
0.372542
0.372426
0.37231
0.372195
0.372082
0.371971
0.371862
0.371756
0.371654
0.371554
0.371456
0.371362
0.37127
0.371181
0.375005
0.37501
0.374987
0.37493
0.374833
0.374718
0.374592
0.374456
0.374305
0.374137
0.373958
0.373772
0.373585
0.373397
0.373207
0.37301
0.372804
0.372591
0.372374
0.372158
0.371946
0.371741
0.371543
0.371348
0.371156
0.370966
0.370777
0.370588
0.370399
0.370209
0.370021
0.369834
0.369651
0.369471
0.369295
0.369124
0.368958
0.368798
0.368644
0.368496
0.375039
0.375101
0.375076
0.374988
0.374815
0.3746
0.374377
0.374146
0.373887
0.373592
0.373265
0.372921
0.372575
0.372237
0.371902
0.371565
0.371216
0.370847
0.370462
0.370069
0.369682
0.369312
0.36896
0.368626
0.36831
0.368008
0.367717
0.367432
0.367145
0.36685
0.366546
0.366236
0.365923
0.365611
0.365302
0.365002
0.364714
0.36444
0.364181
0.363941
0.375097
0.375275
0.375238
0.375086
0.374759
0.374322
0.373901
0.3735
0.373046
0.372501
0.371884
0.371218
0.370549
0.36991
0.369286
0.368682
0.368064
0.367405
0.366689
0.365929
0.365178
0.36447
0.363811
0.363199
0.362662
0.362193
0.361781
0.361414
0.361057
0.360667
0.360218
0.359716
0.359187
0.358628
0.35805
0.357492
0.356974
0.356495
0.356058
0.355676
0.375203
0.37571
0.375655
0.375351
0.374653
0.373608
0.372697
0.37197
0.371119
0.369964
0.368657
0.367248
0.365821
0.364548
0.363364
0.3623
0.361302
0.360205
0.358813
0.357243
0.355795
0.354564
0.353534
0.352701
0.352377
0.352406
0.352562
0.353038
0.353527
0.353706
0.353674
0.353206
0.352677
0.351991
0.351217
0.350666
0.350557
0.350622
0.350935
0.351505
0.375492
0.377537
0.377561
0.376793
0.37488
0.371876
0.369655
0.368889
0.367923
0.365448
0.362703
0.35999
0.357205
0.355932
0.356208
0.357882
0.360504
0.361422
0.361248
0.359619
0.359453
0.360106
0.362386
0.367587
0.378197
0.391728
0.408765
0.427122
0.444669
0.456824
0.465258
0.470294
0.475489
0.480094
0.488149
0.498265
0.513653
0.531688
0.555293
0.580265
0.377986
0.394247
0.402374
0.401241
0.39553
0.394717
0.401352
0.43201
0.459349
0.469136
0.473379
0.481219
0.499093
0.53438
0.617541
0.736532
0.839792
0.907363
0.937696
0.951482
0.974312
1.01582
1.09293
1.24723
1.43509
1.63232
1.82618
2.00365
2.14486
2.23469
2.28297
2.31292
2.34603
2.40447
2.50459
2.64116
2.81009
2.99661
3.19743
3.39584
0.468891
0.913286
1.28232
1.39733
1.45931
1.57773
1.97469
2.5852
3.02183
3.27494
3.40963
3.51556
3.67702
4.02549
4.86334
5.69597
6.35761
6.81712
7.10574
7.28514
7.43345
7.63898
8.10567
8.96476
9.87996
10.7318
11.4558
12.0284
12.4584
12.7583
12.9399
13.0701
13.2358
13.4934
13.8576
14.3114
14.8249
15.3647
15.9011
16.4128
0.0472641
0.0472748
0.0472985
0.0473367
0.0473911
0.0474637
0.0475561
0.04767
0.0478067
0.0479666
0.0481495
0.0483587
0.0486029
0.0488838
0.0492028
0.0495626
0.0499661
0.050417
0.0509186
0.0514751
0.0520904
0.052769
0.053515
0.0543326
0.055225
0.0561926
0.0572275
0.0583245
0.0595149
0.0608455
0.0623436
0.0640473
0.0660012
0.068254
0.0708544
0.0738394
0.0772062
0.0809351
0.0851373
0.0898649
0.0952054
0.101326
0.108484
0.117047
0.127504
0.141625
0.160859
0.184751
0.214052
0.249416
0.291305
0.339917
0.395247
0.457066
0.524953
0.598331
0.67657
0.758991
0.844912
0.933669
1.02462
1.11717
1.21074
1.30482
1.39891
1.49256
1.58538
1.67698
1.76702
1.85521
1.94126
2.02495
2.10604
2.18437
2.25975
2.33205
2.40114
2.46691
2.52926
2.58813
2.64343
2.69511
2.74314
2.78749
2.82813
2.86506
2.89827
2.9278
2.95364
2.97583
2.99441
3.00943
3.02102
3.02878
3.03265
3.03399
3.03259
3.02734
3.01975
3.00899
2.99589
2.98015
2.96221
2.94205
2.91995
2.89602
2.87048
2.84347
2.81521
2.78587
2.75566
2.72477
2.69341
2.6618
2.63015
2.59871
2.56772
2.53744
2.50832
2.48032
2.45352
2.4291
2.40668
2.38704
2.37038
2.35721
2.34827
2.34442
2.34399
2.35003
2.36169
2.37962
2.40372
2.43377
2.469
2.50816
2.54944
2.59067
2.6296
2.66435
2.6937
2.71715
2.7347
2.74655
2.75273
2.75358
2.74922
2.74044
2.72865
2.71821
2.71604
2.72952
2.74467
2.75686
2.7633
2.76304
2.75547
2.74024
2.71744
2.68716
2.64971
2.60561
2.55561
2.50066
2.44187
2.38044
2.3176
2.25455
2.19236
2.13196
2.07413
2.01936
1.96808
1.92036
1.87613
1.83525
1.79757
1.75669
1.73212
1.65652
0.0473009
0.0473103
0.0473321
0.0473677
0.0474189
0.0474875
0.0475751
0.0476834
0.0478138
0.0479676
0.0481462
0.0483524
0.0485908
0.0488644
0.0491758
0.0495279
0.049924
0.0503679
0.0508635
0.0514148
0.0520265
0.0527029
0.0534488
0.0542682
0.0551648
0.0561401
0.0571917
0.0583205
0.0595499
0.0609163
0.062449
0.0641826
0.0661567
0.0684137
0.0709944
0.0739282
0.0772161
0.0808472
0.0848819
0.0893628
0.0943597
0.100003
0.106494
0.114119
0.123252
0.135315
0.151305
0.170579
0.193476
0.220218
0.250863
0.285279
0.323235
0.364406
0.408405
0.454789
0.503146
0.553071
0.604193
0.656165
0.708676
0.761438
0.814194
0.866707
0.918767
0.970181
1.02078
1.0704
1.11892
1.16622
1.21218
1.25671
1.29975
1.34121
1.38105
1.41921
1.45564
1.49032
1.52321
1.5543
1.58356
1.61099
1.63657
1.66032
1.68223
1.70232
1.72061
1.7371
1.75183
1.76482
1.7761
1.78571
1.79368
1.79991
1.80441
1.80801
1.81022
1.81075
1.81045
1.80868
1.80604
1.8023
1.79775
1.79236
1.7863
1.77962
1.77245
1.76489
1.75705
1.74905
1.741
1.73302
1.72526
1.71785
1.71094
1.70469
1.69929
1.69488
1.69197
1.69054
1.69039
1.69276
1.69737
1.7049
1.71562
1.73013
1.74911
1.77322
1.802
1.83765
1.87993
1.92961
1.9869
2.05174
2.12349
2.20079
2.28147
2.36257
2.44068
2.51248
2.57533
2.62762
2.66885
2.69938
2.71991
2.73157
2.73538
2.73284
2.72582
2.71832
2.7171
2.72857
2.74062
2.74896
2.75113
2.74609
2.73308
2.71171
2.68199
2.64396
2.59797
2.54459
2.48465
2.41924
2.34957
2.27698
2.20283
2.12842
2.05491
1.9833
1.91439
1.84879
1.78676
1.72886
1.67416
1.62467
1.5761
1.53236
1.49387
1.43423
0.047392
0.0473988
0.0474178
0.0474503
0.0474979
0.0475623
0.0476454
0.0477487
0.0478739
0.0480228
0.0481974
0.0484002
0.0486347
0.048904
0.0492112
0.0495595
0.0499525
0.0503939
0.0508881
0.0514393
0.0520523
0.0527318
0.0534827
0.0543099
0.0552174
0.0562084
0.0572852
0.0584534
0.059732
0.0611498
0.0627351
0.0645197
0.0665393
0.0688311
0.07143
0.074361
0.0776303
0.0812378
0.085224
0.0896294
0.0945187
0.100008
0.106273
0.113563
0.122193
0.13343
0.148035
0.165239
0.185168
0.207833
0.233127
0.260796
0.290557
0.32211
0.355157
0.389377
0.424499
0.46028
0.496506
0.532988
0.569556
0.606062
0.642373
0.678367
0.713939
0.748992
0.783442
0.817214
0.850242
0.882469
0.913845
0.944328
0.973881
1.00247
1.03008
1.05668
1.08226
1.1068
1.1303
1.15273
1.17411
1.19442
1.21368
1.23188
1.24904
1.26516
1.28027
1.29437
1.30748
1.31962
1.33082
1.34109
1.35044
1.35885
1.36638
1.37343
1.37967
1.38507
1.39004
1.39422
1.398
1.40119
1.404
1.40639
1.40848
1.41028
1.4119
1.41337
1.41478
1.41619
1.41769
1.41935
1.42128
1.42356
1.4263
1.42964
1.43372
1.43868
1.44484
1.45222
1.46088
1.47161
1.48433
1.49962
1.51781
1.53945
1.5652
1.59564
1.63093
1.67273
1.72123
1.77732
1.84146
1.91387
1.9942
2.08135
2.1733
2.26703
2.35877
2.44457
2.52098
2.58563
2.63751
2.67675
2.7042
2.72123
2.7292
2.72997
2.72568
2.72028
2.71991
2.72961
2.73966
2.74584
2.74573
2.73821
2.72243
2.69801
2.66489
2.62314
2.57313
2.51549
2.45113
2.38119
2.30699
2.22996
2.15151
2.073
1.99564
1.92045
1.8482
1.77955
1.71466
1.65422
1.59704
1.54564
1.49467
1.4511
1.40885
1.35462
0.0475585
0.0475613
0.0475763
0.0476048
0.0476485
0.0477089
0.0477877
0.0478867
0.0480078
0.0481529
0.0483243
0.0485246
0.0487569
0.0490242
0.04933
0.0496777
0.0500712
0.0505145
0.051012
0.0515686
0.0521893
0.0528792
0.0536438
0.0544886
0.0554188
0.0564397
0.0575566
0.0587786
0.0601224
0.061612
0.0632742
0.0651387
0.0672383
0.0696066
0.0722753
0.0752682
0.0785975
0.0822736
0.0863317
0.0908159
0.0957948
0.101383
0.107753
0.115136
0.123814
0.134994
0.149289
0.165802
0.184495
0.205219
0.227818
0.251986
0.277446
0.303952
0.331318
0.359317
0.387783
0.416578
0.445582
0.474694
0.503823
0.532889
0.561819
0.590546
0.619012
0.647163
0.674949
0.702328
0.729261
0.755714
0.781659
0.807068
0.831921
0.856198
0.879883
0.902964
0.925429
0.947269
0.968472
0.989034
1.00895
1.02822
1.04683
1.06481
1.08213
1.09882
1.11486
1.13029
1.14508
1.15927
1.17285
1.18585
1.19825
1.21008
1.22139
1.23232
1.24267
1.25249
1.26195
1.27088
1.27948
1.28765
1.2955
1.30302
1.31027
1.31726
1.32405
1.33067
1.33717
1.34359
1.35
1.35645
1.363
1.36973
1.37673
1.38409
1.39193
1.4004
1.40967
1.41984
1.43105
1.44381
1.45818
1.47461
1.49347
1.51524
1.54051
1.56982
1.60364
1.64324
1.68907
1.74207
1.8029
1.87203
1.94944
2.03448
2.12552
2.21994
2.31422
2.40432
2.48635
2.55732
2.61554
2.66064
2.69321
2.71454
2.72609
2.72983
2.7281
2.7247
2.72507
2.7331
2.74118
2.74527
2.74306
2.73332
2.71519
2.68832
2.65264
2.60826
2.55561
2.4954
2.42864
2.35655
2.28053
2.20205
2.12256
2.04344
1.96586
1.89083
1.81905
1.75114
1.6872
1.62785
1.57191
1.52173
1.47213
1.43042
1.38854
1.33813
0.0478284
0.0478253
0.0478353
0.0478593
0.0478987
0.0479552
0.0480303
0.048126
0.0482442
0.0483871
0.048557
0.0487568
0.0489893
0.0492579
0.0495661
0.0499177
0.0503168
0.0507678
0.0512756
0.0518454
0.0524826
0.0531931
0.0539832
0.0548593
0.0558281
0.0568969
0.0580737
0.05937
0.0608018
0.0623909
0.0641629
0.0661464
0.0683726
0.0708737
0.0736807
0.0768198
0.0803109
0.0841766
0.0884576
0.0932084
0.0985096
0.104484
0.111303
0.119188
0.12839
0.140103
0.154794
0.171387
0.189791
0.209855
0.231384
0.254079
0.277693
0.301869
0.326663
0.351943
0.377607
0.403581
0.429797
0.456195
0.482717
0.50931
0.535923
0.562506
0.589014
0.615403
0.641635
0.667671
0.693478
0.719024
0.744282
0.769227
0.793835
0.818086
0.841963
0.865449
0.888533
0.911203
0.933439
0.955232
0.976572
0.997451
1.01786
1.0378
1.05726
1.07623
1.09472
1.11272
1.13024
1.14726
1.1638
1.17985
1.19542
1.21051
1.22516
1.23939
1.25311
1.26637
1.27923
1.2916
1.30358
1.31513
1.32632
1.33711
1.34757
1.35769
1.36751
1.37705
1.38636
1.39546
1.40439
1.4132
1.42194
1.43067
1.43945
1.44839
1.45755
1.46707
1.47709
1.4877
1.49907
1.51155
1.52526
1.54057
1.55781
1.57742
1.59988
1.62573
1.6555
1.69018
1.73036
1.77694
1.83067
1.89216
1.96168
2.03895
2.12287
2.21139
2.30145
2.38929
2.47106
2.54343
2.6042
2.65242
2.68825
2.71268
2.7271
2.73341
2.73401
2.73245
2.73341
2.73988
2.74603
2.74816
2.74405
2.73242
2.71244
2.6838
2.64642
2.60052
2.5466
2.48544
2.41813
2.34596
2.27035
2.1928
2.11474
2.03747
1.96214
1.88965
1.82063
1.75561
1.69465
1.6382
1.58523
1.53766
1.491
1.45176
1.41189
1.36489
0.0482341
0.0482249
0.0482297
0.0482492
0.0482847
0.0483378
0.0484102
0.048504
0.0486211
0.0487639
0.048935
0.0491373
0.0493739
0.0496483
0.0499643
0.050326
0.0507379
0.0512048
0.0517322
0.0523258
0.0529917
0.0537369
0.0545683
0.055494
0.0565222
0.0576622
0.0589249
0.0603235
0.0618751
0.0636011
0.0655268
0.0676809
0.070095
0.0728021
0.0758354
0.0792264
0.0830053
0.0872086
0.091889
0.097116
0.102986
0.109631
0.117225
0.125973
0.136088
0.148787
0.164416
0.181711
0.200518
0.220631
0.241808
0.263914
0.28683
0.310555
0.334974
0.359967
0.385443
0.411348
0.437624
0.464219
0.491079
0.518151
0.545382
0.572723
0.600124
0.627539
0.654925
0.68224
0.709447
0.736509
0.763394
0.790071
0.816513
0.842695
0.868593
0.894187
0.919459
0.944402
0.968984
0.99319
1.01701
1.04042
1.06341
1.08598
1.10811
1.1298
1.15102
1.17179
1.19208
1.2119
1.23123
1.25007
1.26841
1.28625
1.30362
1.32051
1.33687
1.35273
1.36811
1.38297
1.39737
1.41126
1.4247
1.43767
1.45021
1.46231
1.474
1.48531
1.49625
1.50686
1.51716
1.5272
1.53702
1.54666
1.55619
1.56567
1.57519
1.58484
1.59474
1.60498
1.61573
1.62723
1.63964
1.65325
1.66836
1.68533
1.7046
1.72661
1.75192
1.7813
1.81536
1.85492
1.90071
1.95341
2.01343
2.08077
2.15478
2.23395
2.31583
2.39723
2.47459
2.54459
2.60472
2.65359
2.69086
2.71716
2.73363
2.74201
2.74461
2.74464
2.74604
2.75104
2.75536
2.75566
2.7499
2.73673
2.71544
2.68571
2.64753
2.60119
2.54726
2.4866
2.42034
2.34978
2.27636
2.2015
2.12658
2.05283
1.98125
1.91265
1.8476
1.78648
1.72933
1.67647
1.62702
1.58243
1.53907
1.50228
1.46481
1.42114
0.0488177
0.0488044
0.0488054
0.0488213
0.0488538
0.0489047
0.048976
0.0490698
0.0491884
0.0493343
0.0495104
0.0497198
0.0499659
0.0502524
0.0505836
0.0509639
0.0513983
0.0518924
0.052452
0.0530838
0.0537949
0.0545931
0.0554871
0.0564863
0.0576009
0.0588427
0.0602251
0.0617637
0.0634775
0.0653892
0.0675256
0.0699169
0.0725969
0.0756019
0.0789698
0.0827399
0.0869545
0.0916649
0.0969382
0.102859
0.109536
0.117106
0.125733
0.135592
0.146855
0.160768
0.177584
0.195877
0.215503
0.236311
0.258165
0.281001
0.304762
0.329413
0.354825
0.380955
0.407766
0.435192
0.463161
0.491602
0.520446
0.549623
0.579066
0.608711
0.638498
0.66837
0.698274
0.72816
0.757983
0.7877
0.817271
0.846661
0.875835
0.904763
0.933418
0.961773
0.989804
1.01748
1.0448
1.07174
1.09828
1.12441
1.1501
1.17536
1.20015
1.22448
1.24832
1.27167
1.29451
1.31684
1.33865
1.35993
1.38066
1.40086
1.42051
1.43961
1.45813
1.4761
1.49349
1.51031
1.52657
1.54226
1.55739
1.57198
1.58602
1.59954
1.61255
1.62506
1.6371
1.6487
1.65987
1.67064
1.68107
1.69118
1.70103
1.71068
1.7202
1.72966
1.73917
1.74882
1.75874
1.76914
1.78016
1.79204
1.80503
1.81947
1.8357
1.85412
1.87523
1.89964
1.92794
1.96081
1.99897
2.04303
2.09349
2.15052
2.21376
2.28218
2.35395
2.42647
2.49669
2.56155
2.61848
2.66581
2.70282
2.7297
2.74733
2.75718
2.76136
2.76266
2.76429
2.76793
2.7705
2.76916
2.76199
2.74768
2.7256
2.69548
2.65735
2.61157
2.55876
2.49982
2.4359
2.36827
2.2983
2.22734
2.15665
2.08733
2.02028
1.9562
1.89553
1.83859
1.78539
1.73614
1.69012
1.64839
1.60811
1.57351
1.5383
1.49776
0.0496487
0.0496296
0.0496265
0.0496391
0.0496694
0.0497195
0.0497916
0.0498882
0.0500117
0.0501652
0.0503517
0.0505745
0.0508376
0.051145
0.0515015
0.0519119
0.0523821
0.0529182
0.053527
0.0542161
0.054994
0.0558698
0.0568538
0.0579574
0.0591933
0.0605759
0.0621215
0.0638488
0.0657798
0.0679399
0.0703588
0.0730701
0.0761114
0.0795241
0.0833529
0.0876462
0.0924582
0.0978533
0.103911
0.110724
0.118406
0.127084
0.136899
0.147991
0.16049
0.175709
0.193849
0.213391
0.234259
0.256381
0.279707
0.304206
0.329831
0.356521
0.384171
0.412717
0.442079
0.472164
0.50288
0.534139
0.565854
0.597946
0.630339
0.66296
0.695745
0.728631
0.761559
0.794476
0.827331
0.860079
0.892676
0.925082
0.95726
0.989176
1.0208
1.0521
1.08305
1.11363
1.14381
1.17358
1.20292
1.23181
1.26023
1.28817
1.3156
1.34251
1.36889
1.39473
1.42001
1.44472
1.46885
1.49239
1.51533
1.53766
1.55938
1.58048
1.60094
1.62076
1.63993
1.65845
1.67633
1.69355
1.71012
1.72606
1.74136
1.75605
1.77012
1.7836
1.79651
1.80886
1.82069
1.832
1.84285
1.85325
1.86327
1.87294
1.88234
1.89152
1.90056
1.90957
1.91866
1.92796
1.93764
1.94789
1.95893
1.97102
1.98447
1.99963
2.01691
2.03682
2.05986
2.08665
2.11777
2.15381
2.19525
2.24234
2.29494
2.35237
2.41332
2.47578
2.53726
2.59509
2.6469
2.69088
2.72607
2.75231
2.77015
2.7808
2.78603
2.7882
2.78981
2.79216
2.79309
2.79029
2.78195
2.76689
2.74453
2.71464
2.67732
2.63295
2.58219
2.52594
2.46531
2.40152
2.33583
2.26947
2.20357
2.13909
2.07681
2.01733
1.96101
1.9081
1.85861
1.81266
1.7697
1.73047
1.69283
1.66005
1.62683
1.58904
0.0508214
0.0507891
0.0507784
0.0507859
0.0508139
0.0508644
0.0509399
0.051043
0.0511765
0.0513437
0.051548
0.0517932
0.0520836
0.0524238
0.0528192
0.0532754
0.0537988
0.0543967
0.055077
0.0558485
0.0567211
0.0577059
0.0588151
0.0600625
0.0614637
0.0630361
0.0647996
0.0667767
0.0689931
0.0714785
0.0742666
0.0773957
0.0809084
0.084852
0.0892781
0.0942432
0.0998103
0.106052
0.11305
0.1209
0.129702
0.139569
0.150613
0.162949
0.176692
0.193286
0.212931
0.234066
0.256688
0.280779
0.306313
0.333244
0.361497
0.390971
0.421552
0.453135
0.485608
0.518859
0.552781
0.587272
0.62224
0.657598
0.693265
0.729168
0.765237
0.801405
0.837613
0.873802
0.909919
0.945914
0.98174
1.01736
1.05272
1.08779
1.12254
1.15693
1.19093
1.22453
1.25768
1.29038
1.3226
1.35432
1.38552
1.41618
1.44629
1.47581
1.50475
1.53307
1.56078
1.58785
1.61427
1.64004
1.66514
1.68956
1.7133
1.73633
1.75865
1.78026
1.80113
1.82127
1.84067
1.85934
1.87727
1.89447
1.91094
1.9267
1.94176
1.95612
1.96981
1.98284
1.99523
2.00701
2.01821
2.02885
2.03897
2.04862
2.05786
2.06673
2.07531
2.08368
2.09194
2.10021
2.10862
2.11733
2.12654
2.13646
2.14735
2.15951
2.17329
2.18909
2.20737
2.2286
2.25332
2.28203
2.31516
2.35299
2.39552
2.44233
2.49249
2.54452
2.59648
2.64618
2.6915
2.73073
2.76277
2.78722
2.80435
2.81504
2.82073
2.82328
2.8246
2.82566
2.82506
2.82093
2.81164
2.79616
2.77396
2.74484
2.70893
2.66663
2.61861
2.56572
2.50901
2.44959
2.38859
2.32712
2.26616
2.20653
2.14892
2.09382
2.04155
1.9923
1.94609
1.903
1.86261
1.82547
1.78999
1.75866
1.7271
1.69172
0.0524223
0.0523758
0.0523572
0.0523604
0.0523879
0.0524419
0.0525252
0.0526407
0.0527916
0.0529815
0.0532143
0.0534942
0.0538261
0.0542154
0.0546679
0.0551904
0.0557902
0.0564757
0.0572561
0.0581419
0.0591449
0.060278
0.0615562
0.0629961
0.0646165
0.0664384
0.0684858
0.0707855
0.0733679
0.0762674
0.0795225
0.0831762
0.087276
0.091874
0.0970262
0.102793
0.10924
0.116437
0.124464
0.133402
0.14334
0.154374
0.16661
0.18017
0.195206
0.21333
0.2348
0.257991
0.282918
0.309564
0.337871
0.367748
0.399078
0.431729
0.465562
0.500448
0.536258
0.572869
0.61017
0.648055
0.686429
0.725204
0.764298
0.803637
0.843148
0.882763
0.922418
0.962052
1.00161
1.04103
1.08027
1.11927
1.158
1.19641
1.23447
1.27212
1.30935
1.34612
1.38241
1.41819
1.45344
1.48813
1.52225
1.55577
1.58867
1.62093
1.65252
1.68344
1.71367
1.74319
1.77199
1.80006
1.82739
1.85396
1.87976
1.90478
1.92901
1.95243
1.97503
1.99682
2.01778
2.03791
2.0572
2.07567
2.09332
2.11015
2.12618
2.14142
2.15588
2.16957
2.18253
2.19476
2.20629
2.21715
2.22737
2.23699
2.24606
2.25463
2.26275
2.27049
2.27795
2.28521
2.29239
2.29964
2.3071
2.31496
2.32345
2.3328
2.34332
2.35533
2.36921
2.38536
2.40422
2.42622
2.45175
2.48108
2.51428
2.55111
2.59095
2.63273
2.67499
2.71601
2.75402
2.78749
2.81532
2.83697
2.85247
2.86242
2.8679
2.87028
2.87097
2.87069
2.86859
2.86321
2.85315
2.83749
2.81575
2.78777
2.7537
2.71392
2.66905
2.6199
2.5674
2.51254
2.45633
2.39971
2.34354
2.28852
2.23524
2.18413
2.13545
2.08939
2.04596
2.00525
1.96696
1.93148
1.89769
1.86745
1.83721
1.80381
0.0545633
0.0545042
0.0544795
0.0544817
0.0545134
0.0545774
0.0546765
0.0548142
0.0549941
0.05522
0.0554965
0.0558285
0.0562215
0.0566815
0.0572154
0.057831
0.0585367
0.0593424
0.0602589
0.0612984
0.062475
0.0638043
0.0653038
0.0669935
0.0688959
0.0710359
0.0734418
0.0761449
0.0791803
0.0825867
0.0864067
0.0906866
0.0954762
0.100829
0.106799
0.113445
0.120826
0.129004
0.138048
0.148032
0.159042
0.171185
0.184595
0.199452
0.215963
0.235885
0.259609
0.285318
0.312998
0.342583
0.373967
0.407018
0.441586
0.477522
0.514675
0.552909
0.592091
0.6321
0.672822
0.714157
0.756009
0.798291
0.840923
0.883826
0.926927
0.970156
1.01344
1.05672
1.09992
1.143
1.18588
1.22851
1.27086
1.31286
1.35447
1.39565
1.43635
1.47656
1.51622
1.55533
1.59384
1.63175
1.66901
1.70561
1.74153
1.77673
1.81119
1.84491
1.87785
1.91
1.94135
1.97189
2.0016
2.03046
2.05848
2.08562
2.11187
2.13723
2.16169
2.18522
2.20783
2.22951
2.25025
2.27006
2.28895
2.30691
2.32396
2.34012
2.35538
2.36977
2.38331
2.396
2.40789
2.41898
2.4293
2.4389
2.44781
2.45606
2.46372
2.47085
2.4775
2.48377
2.48975
2.49556
2.50132
2.5072
2.51338
2.52005
2.52747
2.53592
2.54569
2.55712
2.57058
2.58643
2.60501
2.62656
2.65121
2.67883
2.70902
2.74105
2.77384
2.80609
2.8364
2.86348
2.88632
2.90431
2.91733
2.92574
2.93028
2.93189
2.93154
2.9298
2.92614
2.91951
2.90872
2.89299
2.87187
2.84523
2.81318
2.7761
2.73454
2.68921
2.64091
2.59053
2.53891
2.48687
2.43512
2.3843
2.33488
2.28725
2.24166
2.19827
2.15713
2.11833
2.08167
2.04745
2.01491
1.98543
1.95617
1.92423
0.0573625
0.0572998
0.0572763
0.0572868
0.0573339
0.0574206
0.0575503
0.0577264
0.0579532
0.0582351
0.0585772
0.0589852
0.0594652
0.0600245
0.0606707
0.0614129
0.062261
0.0632263
0.0643215
0.065561
0.0669612
0.0685404
0.0703194
0.0723215
0.0745727
0.077102
0.0799414
0.0831263
0.0866947
0.090688
0.0951501
0.100127
0.105666
0.111815
0.118623
0.126139
0.134415
0.143506
0.153481
0.164426
0.176455
0.18972
0.204429
0.220797
0.239011
0.261086
0.287434
0.315967
0.346613
0.379259
0.413761
0.449965
0.487716
0.526861
0.567256
0.608768
0.65127
0.694648
0.738796
0.783614
0.82901
0.8749
0.9212
0.967832
1.01472
1.06178
1.10895
1.15614
1.20329
1.25032
1.29716
1.34376
1.39006
1.436
1.48152
1.52657
1.57112
1.61511
1.65851
1.70128
1.74341
1.78486
1.8256
1.86561
1.90486
1.94332
1.98096
2.01775
2.05369
2.08875
2.12292
2.15617
2.1885
2.2199
2.25034
2.27981
2.3083
2.33579
2.36226
2.38771
2.41212
2.43549
2.45781
2.47909
2.49932
2.51851
2.53667
2.55381
2.56995
2.58509
2.59925
2.61245
2.62472
2.63606
2.6465
2.65608
2.66482
2.67277
2.67997
2.68646
2.69231
2.69758
2.70235
2.70672
2.7108
2.71473
2.71864
2.72272
2.72716
2.7322
2.73808
2.74509
2.75353
2.7637
2.7759
2.79036
2.80721
2.82642
2.84774
2.87069
2.89451
2.91823
2.94079
2.96116
2.97845
2.9921
3.00189
3.00799
3.01083
3.011
3.00916
3.00568
3.00033
2.99231
2.98073
2.96486
2.94432
2.91897
2.88892
2.85446
2.81608
2.77437
2.73003
2.68378
2.63636
2.58843
2.54062
2.49345
2.44735
2.40266
2.35962
2.31839
2.27905
2.24169
2.20623
2.17289
2.1412
2.11216
2.0835
2.05247
0.0608996
0.0608717
0.0608801
0.0609271
0.0610163
0.0611517
0.0613373
0.0615778
0.0618782
0.0622438
0.0626806
0.0631953
0.0637952
0.0644882
0.0652835
0.0661913
0.067223
0.0683916
0.0697117
0.0711999