/*--------------------------------*- C++ -*----------------------------------*\
| =========                 |                                                 |
| \\      /  F ield         | OpenFOAM: The Open Source CFD Toolbox           |
|  \\    /   O peration     | Version:  2112                                  |
|   \\  /    A nd           | Website:  www.openfoam.com                      |
|    \\/     M anipulation  |                                                 |
\*---------------------------------------------------------------------------*/
FoamFile
{
    version     2.0;
    format      ascii;
    arch        "LSB;label=32;scalar=64";
    class       volScalarField;
    location    "0.33";
    object      omega_0;
}
// * * * * * * * * * * * * * * * * * * * * * * * * * * * * * * * * * * * * * //

dimensions      [0 0 -1 0 0 0 0];

internalField   nonuniform List<scalar> 
12885
(
32561.5
68238.3
81966.4
86460.4
87530.7
87388
86796.6
85634.1
84505.7
83517.1
82699.6
81941
80966.8
79638
78186.9
76853.2
75716.4
74799.8
74107.6
73527.4
72823.1
71934.1
70990.5
70053.7
69168
68363.4
67639.3
67016.3
66480.9
65999.1
65525.7
65046.6
64540.8
64040.4
63502.2
63031.1
62439.3
62078
61664.9
60480.2
1577.01
7440.35
12383.4
15488.4
17157.8
19272.5
22538
25449.8
27322.5
28256.8
28790.3
29302.3
30032.2
31754.4
33623.9
34961.2
35713.6
36003.1
36074.8
36172.2
36380.3
36911.1
37587.3
37881.8
37826.1
37558.1
36926
36168.7
35478.7
34886.4
34396.6
33929.9
33478.1
32961
32442.6
31840.6
31360.2
30768.4
30733.1
30900.1
228.449
833.557
1457.15
2010.94
2432.4
2749.93
3309.31
4608.55
5654.11
6336.45
6835.31
7257.78
7647.36
8309.21
9543.87
10931.6
12010.1
12789.1
13372.8
13805.9
14182.5
14723.7
15507.7
16432.4
17405.1
18302.4
19041.1
19568.7
19944.4
20186.4
20385.8
20535.8
20703.6
20846.9
21014.1
21152.1
21299.9
21427
21523.9
21734.9
77.5028
219.775
363.197
505.163
624.335
702.572
833.097
1082.57
1307.89
1496.71
1657.84
1777.55
1871.39
1988.61
2183.88
2425.75
2729.83
3044.58
3278.59
3510.62
3686.57
3922.66
4164.13
4512.85
4896.42
5394.25
5879.93
6419.65
6850
7277.49
7582.72
7936.64
8173.77
8509.32
8736.74
9102.66
9359.7
9782.2
10079.8
10558.1
49.2156
101.461
153.882
207.235
253.645
287.505
335.429
402.972
469.399
532.901
590.762
635.385
671.797
708.412
755.345
817.85
889.848
971.004
1037.07
1107.33
1165.21
1234.13
1292.19
1368
1432.68
1528.59
1611.07
1721.32
1821.61
1974.55
2087.98
2233.53
2331.05
2470.87
2559.29
2707.1
2797.43
2966.74
3070.32
3270.66
42.5175
63.8808
89.7675
115.052
137.695
156.596
179.272
206.449
234.001
261.563
287.424
308.887
327.144
344.312
362.98
386.337
410.517
437.111
461.685
487.327
511.068
536.043
558.22
582.075
602.881
628.074
651.038
678.717
706.207
743.471
775.744
813.475
843.841
880.621
908.364
945.627
971.369
1011.67
1035.76
1082.67
40.6344
49.0519
63.9581
77.5942
90.3013
101.857
114.476
128.355
142.524
156.804
170.414
182.39
192.963
202.797
212.78
223.997
235.599
247.781
259.733
271.888
283.743
295.552
306.567
317.305
327.174
337.287
347.021
357.409
367.736
379.117
390.311
402.183
413.421
425.213
436.027
447.692
457.94
470.003
479.206
493.187
40.0195
43.3944
51.3773
59.6391
67.3873
74.7996
82.5441
90.6942
98.9942
107.331
115.355
122.701
129.39
135.651
141.823
148.273
154.882
161.646
168.404
175.193
181.902
188.483
194.756
200.733
206.346
211.773
217.023
222.278
227.513
232.852
238.2
243.617
248.976
254.338
259.582
264.857
269.979
275.245
280.093
286.235
39.7903
41.2051
45.0119
50.2456
55.1438
60.018
65.0378
70.2156
75.4751
80.7416
85.8546
90.664
95.1568
99.4048
103.538
107.69
111.873
116.087
120.301
124.507
128.67
132.744
136.669
140.416
143.971
147.369
150.639
153.833
156.978
160.107
163.224
166.338
169.444
172.517
175.669
178.917
182.207
185.521
188.687
192.159
39.6951
40.3096
42.0001
45.072
48.2535
51.4811
54.8186
58.2379
61.7244
65.2233
68.657
71.9581
75.1086
78.1192
81.0305
83.8921
86.727
89.5485
92.3591
95.1586
97.9327
100.657
103.303
105.848
108.283
110.612
112.851
115.037
117.19
119.33
121.471
123.621
125.783
127.934
130.029
132.085
134.111
136.117
138.021
140.012
39.6528
39.9303
40.6838
42.2501
44.2337
46.3616
48.6143
50.9496
53.3233
55.7189
58.1084
60.4614
62.7517
64.9614
67.087
69.141
71.1425
73.1146
75.0779
77.0439
79.0095
80.9592
82.8721
84.7291
86.5183
88.2366
89.8852
91.4691
93.0028
94.4971
95.9617
97.4054
98.8344
100.249
101.578
102.81
103.963
105.054
106.086
107.181
39.632
39.7619
40.1097
40.8555
41.9603
43.2724
44.7388
46.3153
47.9397
49.5867
51.2355
52.8714
54.4855
56.0767
57.6397
59.1691
60.6645
62.1299
63.572
64.9964
66.4048
67.7944
69.1583
70.4892
71.7808
73.0302
74.2359
75.387
76.4852
77.5303
78.5226
79.464
80.358
81.2087
82.0117
82.7643
83.4683
84.1289
84.7538
85.4128
39.6199
39.6719
39.8165
40.133
40.6588
41.3374
42.1498
43.071
44.0639
45.0896
46.1152
47.1259
48.1291
49.1467
50.1915
51.2598
52.3356
53.3986
54.4319
55.4261
56.3799
57.2971
58.1835
59.0442
59.8829
60.7011
61.4983
62.2715
63.0163
63.7278
64.4013
65.0336
65.6232
66.1715
66.6819
67.1586
67.605
68.0245
68.4229
68.8362
39.6134
39.6263
39.6711
39.7766
39.9795
40.2638
40.6171
41.035
41.5069
42.0122
42.5302
43.0509
43.578
44.1238
44.698
45.3017
45.9259
46.5556
47.1752
47.7732
48.3442
48.8883
49.4092
49.9118
50.4005
50.8781
51.3453
51.8013
52.2442
52.6714
53.0802
53.4684
53.8346
54.1784
54.5004
54.8021
55.0854
55.3522
55.6064
55.8636
39.6092
39.6078
39.6144
39.6374
39.6894
39.7794
39.8994
40.0431
40.2084
40.3924
40.5898
40.7972
41.0147
41.2445
41.4887
41.7476
42.0187
42.2974
42.578
42.8556
43.1267
43.3894
43.6436
43.8901
44.1298
44.3638
44.5926
44.8163
45.0346
45.247
45.4529
45.6517
45.8429
46.0262
46.2015
46.3689
46.5289
46.6818
46.829
46.9762
39.6083
39.5998
39.5942
39.5945
39.5997
39.6139
39.6407
39.6763
39.7184
39.7668
39.8214
39.8815
39.947
40.018
40.0943
40.1759
40.2621
40.3519
40.4443
40.538
40.6322
40.7259
40.8187
40.9104
41.0007
41.0897
41.1773
41.2637
41.3486
41.4321
41.5141
41.5945
41.6731
41.7499
41.8248
41.8978
41.9687
42.0378
42.1052
42.1727
39.6079
39.5977
39.5888
39.5817
39.5768
39.5748
39.5758
39.5793
39.586
39.5952
39.6066
39.6202
39.636
39.6538
39.6735
39.6951
39.7184
39.7431
39.7691
39.7961
39.8239
39.8523
39.8812
39.9104
39.9399
39.9695
39.9992
40.0289
40.0585
40.0881
40.1175
40.1468
40.1758
40.2045
40.2329
40.2609
40.2886
40.3159
40.3431
40.3709
39.6078
39.5974
39.5882
39.5807
39.5752
39.5724
39.5729
39.5756
39.5817
39.5908
39.6022
39.6158
39.6315
39.6492
39.6687
39.69
39.7128
39.737
39.7625
39.789
39.8165
39.8449
39.8739
39.9036
39.9338
39.9644
39.9954
40.0268
40.0583
40.0901
40.1219
40.1537
40.1855
40.2172
40.2487
40.2801
40.3112
40.342
40.3723
40.402
39.608
39.5995
39.5948
39.5962
39.604
39.6224
39.6553
39.7014
39.7599
39.8267
39.9003
39.9805
40.0671
40.1594
40.2571
40.3598
40.4667
40.5771
40.6902
40.8053
40.9221
41.0401
41.1592
41.2794
41.4005
41.5223
41.6445
41.7667
41.8886
42.01
42.1304
42.2496
42.3675
42.4839
42.5987
42.712
42.8236
42.9334
43.0414
43.1472
39.6089
39.6091
39.6182
39.6463
39.7046
39.7973
39.924
40.0827
40.2674
40.4682
40.6827
40.91
41.1484
41.3972
41.6562
41.9241
42.1988
42.4775
42.7576
43.0376
43.3168
43.5953
43.8732
44.1507
44.4277
44.7034
44.9773
45.2484
45.5158
45.7787
46.0367
46.2893
46.5365
46.7782
47.0145
47.2456
47.4715
47.6925
47.9082
48.1183
39.6148
39.6379
39.7057
39.8489
40.0778
40.3856
40.7659
41.2072
41.6926
42.2084
42.7491
43.3079
43.8758
44.454
45.045
45.6469
46.2543
46.8594
47.456
48.0428
48.6191
49.185
49.7404
50.2848
50.8181
51.3397
51.8496
52.3473
52.833
53.3063
53.7675
54.2163
54.6529
55.0773
55.4894
55.8892
56.2767
56.6518
57.0143
57.3635
39.631
39.7505
40.0369
40.545
41.2224
42.0438
42.9834
44.0115
45.0967
46.2191
47.3576
48.4927
49.6175
50.7409
51.8666
52.9908
54.1058
55.2032
56.278
57.3281
58.3495
59.3395
60.2968
61.2221
62.1173
62.9853
63.829
64.6509
65.4525
66.2349
66.9982
67.7421
68.4658
69.1685
69.8493
70.5074
71.1423
71.7534
72.3399
72.8998
39.6877
40.1443
41.1429
42.5763
44.2602
46.1348
48.1637
50.2958
52.476
54.6554
56.7879
58.8459
60.8491
62.8236
64.7856
66.7366
68.6685
70.5717
72.4365
74.2474
75.9922
77.6648
79.2668
80.8061
82.2943
83.7435
85.1632
86.5588
87.9323
89.2827
90.6078
91.9043
93.1691
94.3989
95.5914
96.745
97.8588
98.9325
99.9648
100.947
39.8704
41.4204
44.3967
47.9129
51.6358
55.535
59.6394
63.8699
68.1232
72.3161
76.332
80.0744
83.6036
87.085
90.6366
94.2667
97.9199
101.528
105.037
108.406
111.602
114.612
117.454
120.162
122.783
125.365
127.938
130.513
133.09
135.651
138.183
140.67
143.101
145.464
147.754
149.967
152.105
154.171
156.17
158.054
40.4557
45.5348
53.3137
61.4668
69.3683
77.3555
85.8196
94.5442
103.242
111.795
119.874
127.023
133.492
140.088
147.321
155.092
163.054
170.873
178.366
185.438
191.993
197.975
203.539
208.792
213.93
219.175
224.588
230.233
236.069
241.917
247.693
253.336
258.828
264.125
269.248
274.194
279.039
283.743
288.469
292.86
42.6123
58.6586
79.0969
98.7767
116.384
134.112
153.876
174.605
195.1
215.146
233.867
249.147
262.126
276.965
295.897
317.597
339.877
360.974
380.409
398.195
414.139
427.861
440.929
453.309
465.936
480.05
494.948
512.89
533.078
552.392
570.675
587.606
603.854
618.996
634.002
648.426
663.65
678.426
694.8
709.89
52.9167
107.675
171.142
228.175
274.897
324.154
384.312
449.901
515.657
575.559
629.036
670.581
705.461
756.343
833.893
925.473
1015.43
1092.93
1158.53
1214.99
1263.15
1301.19
1344.83
1390.55
1442.82
1507.67
1575.37
1663.84
1767.45
1856.35
1934.75
1999.23
2060.08
2113.12
2171.08
2228.73
2299.11
2371.5
2459.09
2544.58
117.265
377.537
681.828
929.318
1111.11
1326.84
1615.47
1939.19
2266.25
2510.41
2688.83
2856.81
3025.34
3318.43
3816.5
4389.92
4897.88
5264.92
5522.33
5722.57
5879.89
6027.54
6259.56
6598.12
7016.28
7476.99
7977.45
8443.05
8830.51
9124.25
9356.5
9530.66
9678.55
9814.38
9978.39
10161.5
10390
10634
10910.3
11179.7
742.579
3538.88
6456.57
8377.63
9585.76
11136.2
13345.2
15376.5
16751.6
17539.9
17977.4
18292.1
18702.1
19607.8
20843.5
21941.5
22738.1
23206.8
23420.6
23538.8
23685.4
23896.2
24363
25072.9
25766.3
26353.9
26806.8
27128.3
27319.8
27394
27404.4
27408.7
27436.3
27518.4
27690
27902.7
28126.2
28328.9
28496.3
28608.1
18025.5
43935.1
57249.1
63292.6
65891.7
66946.7
66974.2
66799.9
66404.3
65973.9
65619.5
65329.2
64979.8
64431
63719
62997.7
62352.8
61805.2
61369.8
61071.2
60867
60599.3
60137.1
59528.1
58889
58295.4
57769.7
57297.7
56870.7
56524.2
56299.2
56173.5
56068.5
55914.6
55681.7
55380.6
55038.2
54683.5
54336.9
54009.9
95.0935
95.1314
95.2132
95.344
95.53
95.7778
96.0942
96.4861
96.9604
97.5234
98.1792
98.9513
99.8726
100.951
102.191
103.605
105.204
107.003
109.018
111.268
113.775
116.567
119.68
123.154
127.042
131.394
136.242
141.65
147.832
155.025
163.403
173.217
184.787
198.515
214.894
234.515
258.01
286.775
322.904
368.041
424.291
494.541
582.522
692.981
831.803
1021.62
1279.23
1594.01
1969.43
2406.22
2901.74
3450.49
4044.87
4676.04
5334.92
6012.76
6701.72
7394.98
8086.85
8772.7
9448.79
10112.2
10760.5
11392
12005.3
12599.3
13173.1
13726.2
14258.2
14768.8
15257.9
15725.4
16171.4
16596
16999.4
17381.7
17743.2
18084.1
18404.6
18704.9
18985.3
19245.8
19486.8
19708.3
19910.6
20093.9
20258.2
20403.8
20530.7
20639.2
20729.3
20801.3
20856.2
20889.2
20904.3
20904.8
20884.2
20846.8
20791.2
20718.3
20627.9
20520.3
20395.5
20253.9
20095.5
19920.4
19729
19521.2
19297.3
19057.3
18801.3
18529.5
18241.8
17938.3
17618.9
17283.6
16932.3
16564.5
16179.8
15777.9
15358.5
14920
14462
13983
13481.6
12956
12404
11823.6
11214
10571.5
9895.69
9185.61
8442.23
7668.62
6871.07
6060.08
5251.05
4464.14
3722.76
3050.13
2464.84
1976.92
1586.29
1284.45
1057.97
892.292
774.126
692.912
640.892
613.648
603.717
608.02
627.609
663.818
715.861
784.238
869.752
973.367
1095.95
1238.12
1400.18
1581.95
1782.84
2001.84
2237.61
2488.56
2753.01
3029.18
3315.54
3610.13
3912.27
4218.41
4531.75
4839.35
5163.59
5445.63
5797.16
5972.74
6383.94
6285.97
95.1693
95.2046
95.2828
95.4089
95.5888
95.829
96.1363
96.5177
96.9807
97.5332
98.1844
98.951
99.8525
100.902
102.11
103.489
105.053
106.819
108.804
111.03
113.522
116.309
119.428
122.92
126.834
131.224
136.14
141.661
147.964
155.257
163.734
173.641
185.285
199.05
215.403
234.903
258.22
286.545
321.491
364.48
417.215
481.891
561.207
658.389
777.166
934.34
1139.05
1377.96
1649.56
1950.42
2275.41
2618.49
2973.47
3334.58
3696.83
4056.21
4409.7
4755.07
5090.82
5415.92
5729.75
6031.96
6322.39
6600.98
6867.8
7122.95
7366.59
7598.91
7820.11
8030.42
8230.07
8419.3
8598.35
8767.44
8926.81
9076.68
9217.25
9348.72
9471.25
9585.03
9690.19
9786.89
9875.27
9955.46
10027.6
10091.8
10148.2
10196.8
10237.9
10271.4
10297.5
10316.3
10328.1
10331.1
10328.4
10320.7
10304.9
10282.4
10253.5
10217.7
10175.8
10127.3
10072.8
10012.2
9945.66
9873.26
9795.16
9711.42
9622.17
9527.47
9427.41
9322.04
9211.41
9095.54
8974.41
8848
8716.21
8578.92
8435.96
8286.89
8131.31
7969.05
7799.11
7620.87
7433.16
7234.72
7023.95
6799.07
6557.49
6297.26
6015.31
5708.93
5375.45
5013.04
4621.33
4202.48
3762.26
3310.73
2862.16
2433.39
2040.89
1697.32
1409.24
1176.87
995.58
858.286
757.384
686.174
639.36
613.696
603.916
607.598
624.867
656.539
701.824
760.824
833.815
921.108
1022.85
1138.9
1268.78
1411.61
1566.14
1730.8
1903.83
2083.36
2267.56
2454.66
2643.2
2831.64
3019.36
3204.2
3388.09
3563.92
3744.64
3898.33
4086.84
4181.99
4394.19
4405.93
95.3561
95.3866
95.4594
95.5795
95.7527
95.9853
96.284
96.6563
97.1099
97.6537
98.2982
99.0569
99.945
100.976
102.165
103.524
105.069
106.819
108.793
111.013
113.506
116.304
119.444
122.969
126.929
131.381
136.39
142.05
148.512
155.965
164.611
174.691
186.507
200.426
216.898
236.464
259.8
287.949
322.256
364.005
414.647
475.943
549.934
638.887
745.18
882.105
1054.31
1247.46
1457.95
1681.16
1911.91
2145.32
2377.2
2604.32
2824.39
3036.03
3238.51
3431.56
3615.24
3789.78
3955.5
4112.75
4261.89
4403.28
4537.25
4664.11
4784.15
4897.65
5004.87
5106.04
5201.38
5291.12
5375.43
5454.51
5528.51
5597.58
5661.87
5721.5
5776.58
5827.21
5873.51
5915.56
5953.46
5987.3
6017.16
6043.12
6065.26
6083.65
6098.37
6109.49
6117.08
6121.07
6121.64
6118.69
6113.06
6104.91
6093.15
6078.46
6061.07
6040.66
6017.75
5992.08
5964
5933.42
5900.55
5865.38
5828.06
5788.61
5747.14
5703.69
5658.34
5611.14
5562.12
5511.32
5458.76
5404.43
5348.32
5290.37
5230.57
5168.57
5104.12
5037.41
4967.63
4894.56
4817.42
4735.51
4647.86
4552.96
4448.74
4333.88
4205.35
4060.45
3895.91
3708.53
3495.58
3255.64
2989.6
2701.77
2400.47
2097.61
1806.87
1540.93
1308.88
1115
959.096
837.993
747.129
681.919
638.443
614.053
604.45
607.529
623.184
652.045
693.3
746.806
812.527
890.389
980.12
1081.16
1192.59
1313.14
1441.23
1575.06
1712.72
1852.31
1992.06
2130.39
2266.05
2397.92
2525.58
2647.78
2765.94
2875.96
2986.13
3077.78
3188.17
3244.21
3364.62
3404.35
95.6977
95.7205
95.7858
95.8985
96.0641
96.289
96.5799
96.9443
97.3905
97.9276
98.5664
99.319
100.199
101.221
102.4
103.75
105.289
107.037
109.015
111.248
113.763
116.595
119.783
123.371
127.414
131.975
137.127
142.973
149.653
157.344
166.25
176.613
188.731
202.965
219.752
239.625
263.252
291.563
325.704
366.846
416.262
475.364
545.651
628.657
725.711
847.56
995.631
1155.31
1322.09
1491.28
1658.53
1820.42
1974.62
2119.88
2255.68
2382.13
2499.73
2609.11
2710.97
2805.96
2894.72
2977.76
3055.56
3128.53
3197
3261.29
3321.65
3378.33
3431.53
3481.44
3528.21
3572
3612.93
3651.13
3686.7
3719.73
3750.3
3778.48
3804.34
3827.94
3849.34
3868.6
3885.78
3900.92
3914.08
3925.3
3934.63
3942.12
3947.81
3951.74
3953.95
3954.31
3953.27
3950.55
3946.61
3941.38
3934.5
3926.34
3916.98
3906.26
3894.49
3881.51
3867.53
3852.49
3836.52
3819.62
3801.86
3783.26
3763.89
3743.77
3722.95
3701.46
3679.32
3656.58
3633.24
3609.31
3584.81
3559.72
3534.07
3507.66
3480.39
3452.4
3423.19
3392.71
3360.51
3326.18
3289.12
3248.36
3202.6
3150.91
3091.06
3020.97
2937.89
2838.83
2720.74
2581.04
2418.42
2233.82
2031.27
1818.16
1604.4
1400.61
1215.86
1056.06
923.596
818.002
737.046
677.904
637.856
614.839
605.439
607.868
621.832
647.802
684.946
732.922
791.432
860.104
938.355
1025.33
1119.85
1220.47
1325.51
1433.16
1541.63
1649.21
1754.41
1856
1953.1
2045
2131.6
2212.3
2288.24
2357.25
2424.66
2479.83
2545.06
2579.11
2648.62
2697.98
96.2523
96.2639
96.3195
96.4232
96.5806
96.7979
97.082
97.4405
97.8818
98.4155
99.0523
99.8041
100.684
101.707
102.889
104.245
105.796
107.562
109.566
111.836
114.402
117.3
120.573
124.269
128.447
133.174
138.535
144.636
151.616
159.648
168.937
179.73
192.325
207.083
224.44
244.925
269.196
298.101
332.654
373.896
422.906
480.815
548.792
627.646
717.573
827.374
955.894
1088.61
1220.89
1348.7
1469.02
1580.03
1681.07
1772.29
1854.41
1928.38
1995.26
2056.02
2111.52
2162.48
2209.51
2253.09
2293.62
2331.42
2366.75
2399.83
2430.85
2459.95
2487.27
2512.92
2536.99
2559.57
2580.74
2600.54
2619.03
2636.26
2652.27
2667.08
2680.72
2693.23
2704.63
2714.96
2724.22
2732.46
2739.7
2745.95
2751.25
2755.6
2759.04
2761.58
2763.23
2764.02
2764.05
2763.3
2761.91
2759.82
2756.94
2753.44
2749.33
2744.56
2739.29
2733.42
2727.09
2720.25
2712.97
2705.25
2697.14
2688.65
2679.81
2670.64
2661.16
2651.4
2641.39
2631.13
2620.65
2609.96
2599.07
2587.99
2576.73
2565.19
2553.36
2541.3
2528.76
2515.72
2501.93
2487.18
2471.07
2453.04
2432.31
2408.23
2379.33
2344.11
2300.56
2246.34
2178.82
2095.44
1994.22
1874.46
1737.61
1587.74
1431.4
1276.57
1131.05
1000.9
889.735
798.763
727.447
674.358
637.793
616.234
607.059
608.794
621.002
644.024
677.019
719.486
770.931
830.759
898.179
972.16
1051.42
1134.49
1219.74
1305.52
1390.28
1472.61
1551.37
1625.69
1695.04
1759.09
1817.93
1871.42
1920.5
1964.15
2005.78
2039.54
2078.66
2100.34
2141.42
2190.54
97.0894
97.0892
97.134
97.228
97.377
97.5874
97.8662
98.2215
98.662
99.1976
99.8391
100.599
101.49
102.528
103.73
105.113
106.698
108.508
110.569
112.911
115.566
118.576
121.985
125.847
130.226
135.197
140.853
147.306
154.699
163.207
173.04
184.452
197.748
213.296
231.538
253.004
278.34
308.333
343.888
385.92
435.309
492.847
559.08
634.217
718.05
816.604
926.924
1035.2
1137.45
1230.96
1314.31
1387.31
1450.6
1505.3
1552.77
1594.27
1630.93
1663.68
1693.27
1720.29
1745.18
1768.28
1789.84
1810.06
1829.09
1847.06
1864.06
1880.16
1895.44
1909.94
1923.69
1936.75
1949.13
1960.86
1971.94
1982.41
1992.26
2001.51
2010.16
2018.22
2025.7
2032.6
2038.94
2044.73
2049.97
2054.68
2058.86
2062.51
2065.66
2068.3
2070.45
2072.12
2073.36
2074.17
2074.6
2074.61
2074.19
2073.42
2072.29
2070.8
2069.01
2066.89
2064.5
2061.82
2058.89
2055.71
2052.3
2048.68
2044.86
2040.86
2036.69
2032.38
2027.92
2023.34
2018.66
2013.88
2009.02
2004.08
1999.07
1993.94
1988.72
1983.42
1977.91
1972.18
1966.1
1959.55
1952.28
1943.94
1934.09
1922.26
1907.5
1888.8
1864.74
1833.62
1793.42
1742.02
1677.46
1598.5
1505.21
1399.55
1285.53
1168.71
1055.2
950.407
858.245
780.829
718.743
671.599
638.522
618.48
609.547
610.548
620.949
640.996
669.847
706.893
751.499
802.929
860.273
922.432
988.129
1055.96
1124.47
1192.25
1258.02
1320.7
1379.48
1433.81
1483.41
1528.22
1568.44
1604.21
1636.26
1664.23
1690.32
1711.45
1735.39
1749.92
1775.16
1819
98.3049
98.2932
98.3267
98.4103
98.5508
98.7553
99.0314
99.3876
99.8332
100.378
101.035
101.815
102.734
103.806
105.051
106.487
108.138
110.028
112.186
114.645
117.443
120.623
124.236
128.341
133.01
138.326
144.39
151.324
159.278
168.435
179.016
191.284
205.557
222.215
241.706
264.564
291.413
322.977
360.036
403.33
453.459
510.777
575.229
646.213
722.41
808.943
900.31
984.803
1059.84
1124.39
1178.64
1223.63
1260.82
1291.73
1317.79
1340.13
1359.68
1377.15
1393.03
1407.71
1421.45
1434.41
1446.74
1458.53
1469.84
1480.71
1491.19
1501.3
1511.05
1520.47
1529.55
1538.32
1546.76
1554.89
1562.69
1570.18
1577.33
1584.16
1590.66
1596.83
1602.66
1608.16
1613.33
1618.18
1622.69
1626.87
1630.74
1634.27
1637.49
1640.4
1642.99
1645.29
1647.31
1649.05
1650.54
1651.74
1652.68
1653.38
1653.85
1654.08
1654.1
1653.92
1653.54
1652.97
1652.23
1651.32
1650.26
1649.04
1647.69
1646.21
1644.62
1642.91
1641.12
1639.23
1637.28
1635.26
1633.18
1631.05
1628.87
1626.63
1624.34
1622
1619.55
1616.98
1614.21
1611.17
1607.69
1603.57
1598.53
1592.24
1584.09
1573.4
1559.19
1540.26
1515.14
1482.2
1439.82
1386.7
1322.33
1247.46
1164.35
1076.67
988.869
905.4
829.904
764.834
711.431
670.041
640.39
621.894
613.21
613.443
622.01
639.084
663.842
695.617
733.69
777.25
825.349
876.9
930.703
985.504
1040.06
1093.2
1143.95
1191.52
1235.35
1275.12
1310.76
1342.33
1370.09
1394.29
1415.52
1433.77
1450.41
1463.98
1478.98
1489.17
1505.67
1542.01
100.055
100.016
100.03
100.099
100.229
100.428
100.705
101.068
101.527
102.093
102.779
103.598
104.565
105.698
107.016
108.541
110.298
112.315
114.624
117.261
120.269
123.698
127.604
132.054
137.127
142.916
149.534
157.114
165.818
175.841
187.416
200.822
216.39
234.509
255.632
280.277
309.023
342.491
381.278
425.842
476.374
532.66
593.948
658.864
725.412
797.7
868.957
930.579
981.767
1023.07
1055.8
1081.6
1102.11
1118.72
1132.56
1144.48
1155.08
1164.8
1173.92
1182.62
1191.03
1199.22
1207.23
1215.08
1222.8
1230.38
1237.84
1245.17
1252.36
1259.42
1266.34
1273.1
1279.72
1286.16
1292.44
1298.53
1304.44
1310.14
1315.65
1320.95
1326.03
1330.9
1335.56
1339.99
1344.21
1348.2
1351.97
1355.52
1358.85
1361.96
1364.85
1367.53
1370.01
1372.28
1374.37
1376.25
1377.94
1379.46
1380.79
1381.96
1382.96
1383.81
1384.51
1385.06
1385.48
1385.76
1385.91
1385.94
1385.86
1385.68
1385.39
1385.02
1384.55
1384.01
1383.4
1382.73
1382
1381.21
1380.37
1379.47
1378.52
1377.52
1376.43
1375.24
1373.9
1372.36
1370.51
1368.23
1365.34
1361.59
1356.61
1349.9
1340.81
1328.51
1311.95
1289.93
1261.2
1224.65
1179.59
1126.15
1065.49
999.901
932.486
866.652
805.517
751.49
706.114
670.169
643.838
626.883
618.443
617.878
624.61
638.735
659.509
686.221
718.132
754.415
794.144
836.3
879.812
923.603
966.644
1008.03
1047
1083.01
1115.71
1144.93
1170.7
1193.14
1212.54
1229.15
1243.44
1255.56
1266.39
1275.33
1284.96
1292.35
1303.88
1332.51
102.504
102.416
102.399
102.447
102.565
102.761
103.044
103.423
103.909
104.513
105.249
106.131
107.177
108.405
109.836
111.497
113.413
115.617
118.146
121.04
124.349
128.126
132.438
137.36
142.981
149.406
156.759
165.188
174.869
186.01
198.861
213.711
230.9
250.814
273.887
300.586
331.386
366.722
406.9
451.966
501.575
554.884
610.518
666.647
721.564
777.457
828.809
870.154
902.268
926.654
945.026
958.993
969.898
978.768
986.347
993.147
999.509
1005.65
1011.69
1017.7
1023.72
1029.76
1035.82
1041.91
1048
1054.09
1060.16
1066.22
1072.24
1078.21
1084.12
1089.97
1095.73
1101.4
1106.97
1112.42
1117.76
1122.96
1128.02
1132.93
1137.7
1142.31
1146.76
1151.06
1155.19
1159.15
1162.94
1166.56
1170.01
1173.3
1176.41
1179.36
1182.15
1184.77
1187.24
1189.55
1191.71
1193.72
1195.58
1197.3
1198.89
1200.34
1201.66
1202.85
1203.92
1204.88
1205.71
1206.44
1207.07
1207.59
1208.01
1208.35
1208.6
1208.76
1208.85
1208.87
1208.81
1208.69
1208.5
1208.23
1207.9
1207.5
1207
1206.4
1205.66
1204.74
1203.58
1202.08
1200.13
1197.55
1194.1
1189.43
1183.09
1174.52
1162.97
1147.6
1127.48
1101.72
1069.67
1031.17
986.768
937.808
886.352
834.889
785.916
741.585
703.508
672.602
649.418
633.959
625.744
624.357
629.28
640.509
657.461
679.364
705.532
735.171
767.413
801.349
836.054
870.636
904.269
936.253
966.042
993.253
1017.66
1039.21
1057.95
1074.06
1087.76
1099.32
1109.09
1117.27
1124.44
1130.45
1136.76
1142.22
1150.65
1172.53
105.768
105.632
105.589
105.621
105.734
105.938
106.24
106.652
107.185
107.851
108.666
109.645
110.809
112.177
113.776
115.631
117.776
120.246
123.082
126.333
130.053
134.305
139.164
144.715
151.058
158.311
166.612
176.122
187.031
199.559
213.964
230.537
249.605
271.522
296.653
325.346
357.878
394.387
434.769
478.564
524.879
572.387
619.433
664.605
707.071
745.813
779.765
805.21
823.859
837.382
847.301
854.835
860.891
866.101
870.886
875.511
880.135
884.841
889.669
894.629
899.717
904.92
910.222
915.607
921.058
926.559
932.095
937.651
943.214
948.769
954.304
959.805
965.26
970.657
975.984
981.229
986.383
991.437
996.383
1001.22
1005.93
1010.52
1014.98
1019.31
1023.51
1027.56
1031.48
1035.25
1038.88
1042.36
1045.7
1048.89
1051.95
1054.86
1057.64
1060.28
1062.78
1065.15
1067.38
1069.49
1071.47
1073.32
1075.06
1076.67
1078.16
1079.54
1080.8
1081.96
1083.01
1083.95
1084.79
1085.54
1086.19
1086.75
1087.22
1087.61
1087.9
1088.12
1088.24
1088.27
1088.22
1088.08
1087.82
1087.45
1086.93
1086.23
1085.32
1084.12
1082.56
1080.51
1077.8
1074.2
1069.41
1063.01
1054.51
1043.32
1028.76
1010.16
986.984
958.973
926.327
889.808
850.719
810.8
771.975
736.059
704.364
678.068
657.8
643.754
635.732
633.506
636.669
645.09
658.39
675.829
696.695
720.319
745.936
772.746
799.975
826.906
852.883
877.381
900.002
920.483
938.686
954.591
968.281
979.902
989.658
997.768
1004.51
1010.08
1014.86
1018.93
1023.11
1027.15
1033.43
1049.73
109.99
109.832
109.781
109.816
109.946
110.179
110.526
110.999
111.609
112.373
113.307
114.429
115.762
117.33
119.161
121.288
123.746
126.577
129.83
133.558
137.824
142.7
148.271
154.632
161.894
170.187
179.66
190.485
202.857
216.998
233.155
251.594
272.589
296.405
323.263
353.295
386.479
422.565
461.001
500.885
540.996
579.916
616.963
651.339
678.979
704.326
724.968
739.628
750.023
757.499
763.136
767.708
771.744
775.585
779.436
783.414
787.575
791.938
796.5
801.247
806.157
811.211
816.388
821.668
827.034
832.469
837.958
843.484
849.034
854.593
860.147
865.683
871.188
876.649
882.053
887.39
892.648
897.819
902.896
907.872
912.742
917.503
922.149
926.677
931.083
935.362
939.509
943.522
947.4
951.144
954.755
958.232
961.576
964.788
967.867
970.815
973.632
976.32
978.879
981.31
983.614
985.792
987.846
989.776
991.585
993.274
994.844
996.299
997.639
998.867
999.984
1000.99
1001.9
1002.69
1003.39
1003.98
1004.47
1004.85
1005.13
1005.3
1005.35
1005.3
1005.12
1004.81
1004.33
1003.68
1002.82
1001.7
1000.27
998.443
996.098
993.076
989.168
984.1
977.532
969.047
958.172
944.426
927.385
906.785
882.661
855.415
825.845
795.164
764.698
735.699
709.606
687.412
669.783
657.03
649.157
646.082
647.552
653.288
663.147
676.42
692.52
710.767
730.526
751.191
772.101
792.689
812.435
830.946
847.936
863.221
876.704
888.39
898.353
906.718
913.645
919.314
923.937
927.693
930.839
933.545
936.281
939.2
943.824
955.643
115.371
115.242
115.218
115.292
115.474
115.774
116.204
116.777
117.508
118.415
119.518
120.84
122.405
124.243
126.386
128.873
131.744
135.049
138.841
143.182
148.145
153.809
160.266
167.622
175.996
185.524
196.357
208.665
222.633
238.458
256.34
276.472
299.014
324.065
351.618
381.515
413.39
446.64
480.42
513.702
545.308
575.545
602.557
623.768
641.485
656.913
668.889
677.284
683.369
688.04
691.955
695.548
699.094
702.757
706.622
710.728
715.081
719.672
724.481
729.485
734.66
739.984
745.436
750.997
756.65
762.38
768.17
774.006
779.871
785.751
791.631
797.499
803.34
809.141
814.888
820.569
826.173
831.69
837.114
842.438
847.658
852.77
857.769
862.652
867.414
872.051
876.556
880.924
885.153
889.248
893.208
897.033
900.724
904.281
907.703
910.991
914.145
917.165
920.051
922.802
925.419
927.902
930.251
932.468
934.553
936.507
938.332
940.029
941.6
943.047
944.371
945.572
946.652
947.611
948.448
949.164
949.759
950.23
950.576
950.793
950.866
950.831
950.641
950.297
949.786
949.092
948.19
947.051
945.632
943.875
941.699
938.995
935.622
931.397
926.09
919.423
911.082
900.721
888.02
872.748
854.865
834.563
812.272
788.651
764.686
741.541
720.22
701.589
686.286
674.679
666.902
662.98
662.824
666.054
672.688
682.138
693.883
707.407
722.141
737.489
753.007
768.287
782.922
796.597
809.1
820.296
830.106
838.54
845.661
851.563
856.367
860.215
863.272
865.68
867.621
869.284
870.951
872.917
876.177
884.39
122.266
122.236
122.299
122.466
122.749
123.16
123.715
124.431
125.327
126.425
127.748
129.325
131.187
133.366
135.903
138.84
142.226
146.116
150.572
155.661
161.461
168.06
175.552
184.046
193.66
204.522
216.77
230.545
245.988
263.232
282.378
303.486
326.537
351.409
377.836
405.391
433.476
461.347
488.129
513.599
538.127
558.537
574.677
588.103
598.918
608.16
615.368
620.727
625.025
628.792
632.39
636.041
639.877
643.966
648.334
652.984
657.901
663.064
668.45
674.033
679.788
685.695
691.734
697.885
704.132
710.459
716.851
723.29
729.76
736.246
742.732
749.204
755.649
762.049
768.391
774.66
780.845
786.934
792.92
798.797
804.561
810.208
815.736
821.14
826.415
831.558
836.562
841.419
846.128
850.696
855.122
859.406
863.546
867.543
871.396
875.106
878.67
882.088
885.36
888.483
891.458
894.283
896.959
899.486
901.864
904.094
906.177
908.115
909.908
911.559
913.068
914.436
915.662
916.748
917.693
918.497
919.158
919.676
920.048
920.265
920.33
920.259
920.019
919.609
919.021
918.241
917.254
916.039
914.569
912.806
910.695
908.163
905.12
901.444
896.988
891.567
884.971
876.962
867.31
855.82
842.337
826.894
809.836
791.66
773.002
754.61
737.254
721.641
708.334
697.708
689.97
685.226
683.475
684.474
688.081
694.054
701.883
711.171
721.471
732.358
743.425
754.242
764.589
774.241
783.043
790.891
797.726
803.551
808.399
812.333
815.44
817.829
819.633
820.949
821.91
822.697
823.489
824.584
826.638
831.92
131.742
131.808
131.967
132.229
132.612
133.132
133.811
134.67
135.734
137.031
138.59
140.446
142.635
145.197
148.179
151.629
155.602
160.156
165.359
171.281
178.001
185.603
194.177
203.819
214.626
226.697
240.124
254.987
271.341
289.203
308.537
329.23
351.076
373.761
396.861
419.856
442.14
463.539
484.314
503.144
517.868
530.153
540.405
548.804
555.605
561.614
566.698
570.984
574.918
578.791
582.793
587.032
591.566
596.417
601.585
607.056
612.808
618.818
625.059
631.505
638.133
644.919
651.845
658.889
666.034
673.262
680.556
687.896
695.265
702.645
710.022
717.379
724.703
731.975
739.177
746.293
753.307
760.207
766.984
773.633
780.149
786.531
792.775
798.879
804.838
810.649
816.311
821.822
827.183
832.378
837.406
842.268
846.964
851.495
855.861
860.061
864.095
867.961
871.658
875.184
878.539
881.722
884.732
887.57
890.236
892.731
895.056
897.214
899.204
901.03
902.692
904.192
905.529
906.705
907.718
908.57
909.258
909.783
910.142
910.321
910.345
910.203
909.88
909.374
908.679
907.786
906.686
905.364
903.804
901.982
899.861
897.395
894.523
891.17
887.237
882.606
877.135
870.662
863.025
854.08
843.747
832.036
819.062
805.102
790.557
775.934
761.786
748.656
737.01
727.194
719.445
713.916
710.662