/*--------------------------------*- C++ -*----------------------------------*\
| =========                 |                                                 |
| \\      /  F ield         | OpenFOAM: The Open Source CFD Toolbox           |
|  \\    /   O peration     | Version:  2112                                  |
|   \\  /    A nd           | Website:  www.openfoam.com                      |
|    \\/     M anipulation  |                                                 |
\*---------------------------------------------------------------------------*/
FoamFile
{
    version     2.0;
    format      ascii;
    arch        "LSB;label=32;scalar=64";
    class       volVectorField;
    location    "0.33";
    object      U_0;
}
// * * * * * * * * * * * * * * * * * * * * * * * * * * * * * * * * * * * * * //

dimensions      [0 1 -1 0 0 0 0];

internalField   nonuniform List<vector> 
12885
(
(9.89796 0.0390129 0)
(9.71697 0.0718185 0)
(9.53053 0.0712625 0)
(9.33423 0.06356 0)
(9.15172 0.0677453 0)
(8.97682 0.0947263 0)
(8.76683 0.121604 0)
(8.55474 0.122578 0)
(8.36364 0.103901 0)
(8.202 0.0787961 0)
(8.06748 0.0626558 0)
(7.93846 0.077044 0)
(7.78912 0.121697 0)
(7.62527 0.153313 0)
(7.4739 0.147198 0)
(7.34803 0.120525 0)
(7.24917 0.088519 0)
(7.17522 0.0577529 0)
(7.12065 0.0382978 0)
(7.07361 0.0454081 0)
(7.02289 0.0739887 0)
(6.96782 0.0959304 0)
(6.91522 0.0987838 0)
(6.87095 0.0901247 0)
(6.83392 0.0764282 0)
(6.80199 0.0601084 0)
(6.77424 0.0437324 0)
(6.7499 0.031569 0)
(6.72759 0.0267547 0)
(6.70567 0.0291654 0)
(6.68251 0.0360178 0)
(6.65814 0.0435872 0)
(6.63229 0.0497424 0)
(6.60672 0.0531506 0)
(6.57878 0.0553304 0)
(6.55176 0.0574051 0)
(6.51019 0.0644639 0)
(6.4714 0.0704891 0)
(6.34813 0.16258 0)
(6.29396 0.16402 0)
(10.0104 0.0403178 0)
(10.0519 0.0649318 0)
(10.0804 0.066975 0)
(10.0859 0.068302 0)
(10.0749 0.0654001 0)
(10.0585 0.060863 0)
(10.0401 0.0606159 0)
(10.0175 0.0616468 0)
(9.98653 0.0610979 0)
(9.9442 0.0610718 0)
(9.88921 0.0650558 0)
(9.82625 0.0679 0)
(9.76117 0.0597814 0)
(9.68724 0.0446352 0)
(9.5983 0.0340955 0)
(9.49607 0.0304674 0)
(9.38992 0.0301563 0)
(9.28604 0.0318688 0)
(9.18352 0.0346325 0)
(9.08292 0.0323228 0)
(8.98521 0.0207041 0)
(8.8897 0.00543303 0)
(8.7925 -0.00530137 0)
(8.69163 -0.00856379 0)
(8.59005 -0.00555559 0)
(8.49244 0.00166449 0)
(8.40055 0.00992929 0)
(8.31559 0.0163967 0)
(8.23723 0.0198407 0)
(8.16597 0.0205077 0)
(8.10067 0.0192549 0)
(8.04128 0.0171264 0)
(7.98542 0.0153466 0)
(7.93322 0.0150746 0)
(7.88159 0.0178312 0)
(7.83313 0.0253734 0)
(7.78377 0.0411075 0)
(7.74763 0.0709009 0)
(7.72567 0.125133 0)
(7.77761 0.236415 0)
(10.0081 0.0308396 0)
(10.0302 0.0544705 0)
(10.0516 0.0606532 0)
(10.0634 0.0625465 0)
(10.0679 0.0652307 0)
(10.0704 0.0758761 0)
(10.0768 0.0914309 0)
(10.088 0.100335 0)
(10.0971 0.10002 0)
(10.0971 0.0952738 0)
(10.0879 0.0919156 0)
(10.078 0.0992676 0)
(10.0763 0.12239 0)
(10.0814 0.149077 0)
(10.0848 0.163618 0)
(10.0812 0.163374 0)
(10.0697 0.153625 0)
(10.0498 0.139826 0)
(10.0239 0.127745 0)
(9.99743 0.125941 0)
(9.97424 0.137877 0)
(9.95099 0.155527 0)
(9.92289 0.169684 0)
(9.88657 0.176704 0)
(9.84337 0.176742 0)
(9.79477 0.170954 0)
(9.74215 0.161423 0)
(9.68677 0.150577 0)
(9.63091 0.14099 0)
(9.57586 0.13405 0)
(9.52244 0.130483 0)
(9.46935 0.129498 0)
(9.41609 0.130706 0)
(9.36052 0.133256 0)
(9.3032 0.137558 0)
(9.24287 0.144476 0)
(9.18356 0.154987 0)
(9.12502 0.171367 0)
(9.07516 0.190411 0)
(9.02663 0.209203 0)
(10.0052 0.0253082 0)
(10.0222 0.0471761 0)
(10.0376 0.0556103 0)
(10.0482 0.0603427 0)
(10.0544 0.0653931 0)
(10.0587 0.0725613 0)
(10.065 0.0804044 0)
(10.0747 0.0849542 0)
(10.0838 0.0857824 0)
(10.0887 0.0861789 0)
(10.0895 0.0899321 0)
(10.0887 0.0979173 0)
(10.0904 0.106364 0)
(10.0976 0.111028 0)
(10.1093 0.111261 0)
(10.1211 0.108809 0)
(10.1295 0.105563 0)
(10.1333 0.103717 0)
(10.1327 0.10507 0)
(10.1284 0.108876 0)
(10.1225 0.112597 0)
(10.1178 0.114895 0)
(10.1158 0.116974 0)
(10.1161 0.120195 0)
(10.1177 0.124347 0)
(10.1191 0.128359 0)
(10.1192 0.131635 0)
(10.1169 0.134216 0)
(10.1121 0.136605 0)
(10.1043 0.139057 0)
(10.0944 0.141897 0)
(10.0822 0.145354 0)
(10.0691 0.150052 0)
(10.0547 0.156355 0)
(10.041 0.165018 0)
(10.0269 0.176195 0)
(10.0154 0.189916 0)
(10.0034 0.204973 0)
(9.99663 0.219674 0)
(9.98907 0.232063 0)
(10.0035 0.0205631 0)
(10.0175 0.0417963 0)
(10.0297 0.0512548 0)
(10.0391 0.0572013 0)
(10.0456 0.0626946 0)
(10.0509 0.0690897 0)
(10.0573 0.0759129 0)
(10.0657 0.080895 0)
(10.0735 0.0835522 0)
(10.0789 0.0856973 0)
(10.0817 0.0891442 0)
(10.0837 0.0944522 0)
(10.0878 0.101151 0)
(10.0958 0.107584 0)
(10.1064 0.111848 0)
(10.1167 0.113411 0)
(10.1245 0.113112 0)
(10.1291 0.112363 0)
(10.1308 0.112274 0)
(10.1307 0.113702 0)
(10.131 0.117285 0)
(10.1333 0.122684 0)
(10.1374 0.128695 0)
(10.1425 0.134263 0)
(10.148 0.138703 0)
(10.1537 0.141831 0)
(10.1591 0.143767 0)
(10.1634 0.144931 0)
(10.1664 0.14583 0)
(10.1681 0.147073 0)
(10.1689 0.149241 0)
(10.1693 0.152792 0)
(10.1698 0.157972 0)
(10.1707 0.164853 0)
(10.1726 0.173236 0)
(10.1758 0.182776 0)
(10.1808 0.192882 0)
(10.1878 0.203018 0)
(10.1979 0.212246 0)
(10.2109 0.220063 0)
(10.0026 0.0165457 0)
(10.0138 0.0369571 0)
(10.0245 0.047037 0)
(10.0328 0.0538058 0)
(10.0394 0.0597869 0)
(10.0452 0.0660753 0)
(10.0518 0.0723185 0)
(10.0592 0.0771665 0)
(10.0662 0.0804141 0)
(10.0716 0.0832406 0)
(10.0756 0.0869031 0)
(10.0796 0.0919371 0)
(10.0851 0.0978668 0)
(10.0926 0.103172 0)
(10.1012 0.106548 0)
(10.1093 0.107952 0)
(10.1158 0.108224 0)
(10.1205 0.108438 0)
(10.1237 0.10951 0)
(10.1264 0.111972 0)
(10.1294 0.115671 0)
(10.1333 0.119827 0)
(10.1379 0.123736 0)
(10.143 0.127144 0)
(10.1485 0.130017 0)
(10.1541 0.132371 0)
(10.1595 0.134331 0)
(10.1645 0.136159 0)
(10.1688 0.138202 0)
(10.1727 0.140763 0)
(10.1763 0.144046 0)
(10.1798 0.148129 0)
(10.1836 0.152998 0)
(10.1879 0.158559 0)
(10.1931 0.164637 0)
(10.1994 0.171002 0)
(10.2071 0.177352 0)
(10.2164 0.183321 0)
(10.2274 0.188282 0)
(10.2397 0.191657 0)
(10.002 0.0133714 0)
(10.0109 0.032153 0)
(10.0205 0.0430485 0)
(10.0281 0.050357 0)
(10.0346 0.0566841 0)
(10.0407 0.0628698 0)
(10.0471 0.0686638 0)
(10.0539 0.073344 0)
(10.0604 0.0769344 0)
(10.066 0.0802435 0)
(10.0709 0.0840841 0)
(10.0758 0.088705 0)
(10.0817 0.0936306 0)
(10.0886 0.0979129 0)
(10.096 0.100898 0)
(10.1029 0.102662 0)
(10.109 0.103778 0)
(10.1139 0.104919 0)
(10.1181 0.106602 0)
(10.122 0.109019 0)
(10.126 0.112009 0)
(10.1305 0.115229 0)
(10.1354 0.118408 0)
(10.1406 0.121409 0)
(10.1461 0.124159 0)
(10.1516 0.126631 0)
(10.157 0.128901 0)
(10.1621 0.131122 0)
(10.1669 0.133475 0)
(10.1716 0.136107 0)
(10.1762 0.139118 0)
(10.181 0.142546 0)
(10.1861 0.146381 0)
(10.1917 0.150547 0)
(10.198 0.154922 0)
(10.2052 0.15931 0)
(10.2133 0.16346 0)
(10.2223 0.16706 0)
(10.2321 0.169791 0)
(10.2425 0.171453 0)
(10.0014 0.0108682 0)
(10.0084 0.0277323 0)
(10.017 0.0391033 0)
(10.0243 0.0468253 0)
(10.0306 0.0533664 0)
(10.0367 0.0594273 0)
(10.043 0.0649079 0)
(10.0494 0.0694759 0)
(10.0557 0.0732644 0)
(10.0614 0.0768236 0)
(10.0667 0.0806543 0)
(10.0722 0.0848599 0)
(10.0781 0.0891015 0)
(10.0846 0.0928266 0)
(10.0912 0.0956844 0)
(10.0976 0.0977367 0)
(10.1034 0.0993413 0)
(10.1086 0.100917 0)
(10.1133 0.102775 0)
(10.1178 0.105033 0)
(10.1225 0.10763 0)
(10.1273 0.110401 0)
(10.1324 0.113182 0)
(10.1377 0.115855 0)
(10.1432 0.118356 0)
(10.1486 0.120677 0)
(10.1539 0.122871 0)
(10.1592 0.125029 0)
(10.1643 0.127256 0)
(10.1695 0.129635 0)
(10.1747 0.132216 0)
(10.1801 0.135004 0)
(10.1858 0.13796 0)
(10.1919 0.141007 0)
(10.1985 0.144047 0)
(10.2057 0.146938 0)
(10.2133 0.149504 0)
(10.2214 0.151564 0)
(10.2298 0.153016 0)
(10.2384 0.15377 0)
(10.0011 0.0088761 0)
(10.0064 0.0238626 0)
(10.0139 0.0350639 0)
(10.0209 0.0432443 0)
(10.027 0.049865 0)
(10.033 0.0557863 0)
(10.0392 0.0610374 0)
(10.0454 0.0655093 0)
(10.0515 0.0693732 0)
(10.0573 0.0730109 0)
(10.0629 0.0767418 0)
(10.0685 0.0806192 0)
(10.0745 0.0844195 0)
(10.0807 0.0878036 0)
(10.087 0.0905627 0)
(10.093 0.0927412 0)
(10.0987 0.0945721 0)
(10.1041 0.0963313 0)
(10.1091 0.0982268 0)
(10.114 0.100347 0)
(10.119 0.102669 0)
(10.1241 0.105098 0)
(10.1293 0.107528 0)
(10.1347 0.10988 0)
(10.14 0.112111 0)
(10.1454 0.114215 0)
(10.1508 0.116221 0)
(10.1561 0.118183 0)
(10.1615 0.120155 0)
(10.1668 0.122178 0)
(10.1723 0.124269 0)
(10.1779 0.126411 0)
(10.1837 0.128557 0)
(10.1898 0.130656 0)
(10.1962 0.132709 0)
(10.2029 0.134629 0)
(10.2097 0.136282 0)
(10.2168 0.137552 0)
(10.2239 0.138354 0)
(10.2311 0.13861 0)
(10.0008 0.00728277 0)
(10.0048 0.0205143 0)
(10.0111 0.0311552 0)
(10.0176 0.0395354 0)
(10.0237 0.0462273 0)
(10.0297 0.051996 0)
(10.0357 0.0570406 0)
(10.0418 0.0613854 0)
(10.0477 0.0652295 0)
(10.0535 0.0688378 0)
(10.0592 0.0724263 0)
(10.065 0.0760319 0)
(10.0709 0.0795065 0)
(10.077 0.0826321 0)
(10.083 0.0852778 0)
(10.0889 0.087477 0)
(10.0946 0.0893879 0)
(10.1 0.0912001 0)
(10.1053 0.0930598 0)
(10.1104 0.0950345 0)
(10.1156 0.0971169 0)
(10.1208 0.099253 0)
(10.1261 0.101377 0)
(10.1314 0.103437 0)
(10.1368 0.105397 0)
(10.1421 0.107249 0)
(10.1475 0.109007 0)
(10.1528 0.110712 0)
(10.1582 0.11239 0)
(10.1636 0.114058 0)
(10.169 0.115725 0)
(10.1746 0.117377 0)
(10.1802 0.118983 0)
(10.1859 0.120508 0)
(10.1917 0.121904 0)
(10.1977 0.123109 0)
(10.2038 0.124056 0)
(10.2101 0.124679 0)
(10.2164 0.124884 0)
(10.2228 0.124621 0)
(10.0005 0.00603656 0)
(10.0036 0.0176676 0)
(10.0088 0.0275311 0)
(10.0146 0.0356775 0)
(10.0205 0.0423806 0)
(10.0264 0.0480263 0)
(10.0324 0.0529096 0)
(10.0383 0.0571508 0)
(10.0442 0.0609158 0)
(10.0499 0.0644254 0)
(10.0557 0.0678539 0)
(10.0614 0.0712345 0)
(10.0673 0.0744609 0)
(10.0733 0.0773775 0)
(10.0793 0.0798927 0)
(10.0851 0.0820331 0)
(10.0908 0.0839158 0)
(10.0963 0.085684 0)
(10.1017 0.0874504 0)
(10.1069 0.089271 0)
(10.1122 0.0911473 0)
(10.1174 0.0930456 0)
(10.1227 0.0949208 0)
(10.128 0.0967326 0)
(10.1333 0.0984548 0)
(10.1386 0.100077 0)
(10.1439 0.101605 0)
(10.1492 0.103052 0)
(10.1544 0.104431 0)
(10.1596 0.105756 0)
(10.1649 0.107031 0)
(10.1702 0.108253 0)
(10.1756 0.109405 0)
(10.181 0.110444 0)
(10.1865 0.111268 0)
(10.1921 0.111827 0)
(10.1978 0.112108 0)
(10.2034 0.112098 0)
(10.2091 0.111778 0)
(10.2148 0.111145 0)
(10.0002 0.0051113 0)
(10.0027 0.0153207 0)
(10.007 0.0243121 0)
(10.0121 0.0319352 0)
(10.0176 0.0383511 0)
(10.0232 0.0438125 0)
(10.029 0.0485402 0)
(10.0349 0.052687 0)
(10.0407 0.0563686 0)
(10.0464 0.0597675 0)
(10.052 0.0630158 0)
(10.0578 0.0661439 0)
(10.0637 0.0690937 0)
(10.0696 0.0717779 0)
(10.0756 0.0741463 0)
(10.0815 0.0762202 0)
(10.0872 0.0780778 0)
(10.0927 0.0798129 0)
(10.0981 0.0814992 0)
(10.1033 0.0831751 0)
(10.1086 0.0848465 0)
(10.1138 0.0864983 0)
(10.119 0.0881069 0)
(10.1243 0.0896502 0)
(10.1296 0.0911139 0)
(10.1348 0.0924929 0)
(10.1401 0.0937847 0)
(10.1453 0.0949793 0)
(10.1505 0.0960813 0)
(10.1556 0.0970908 0)
(10.1608 0.0980022 0)
(10.1659 0.0988057 0)
(10.1711 0.099486 0)
(10.1763 0.100017 0)
(10.1815 0.10036 0)
(10.1867 0.100486 0)
(10.192 0.100377 0)
(10.1972 0.100025 0)
(10.2023 0.0994296 0)
(10.2073 0.0986011 0)
(10.0001 0.00427578 0)
(10.002 0.0130413 0)
(10.0054 0.0210708 0)
(10.0099 0.0280352 0)
(10.0148 0.0339684 0)
(10.0201 0.0390268 0)
(10.0255 0.0434498 0)
(10.0312 0.0473908 0)
(10.0368 0.0509503 0)
(10.0424 0.0542096 0)
(10.0481 0.0572226 0)
(10.0538 0.0600141 0)
(10.0596 0.0625932 0)
(10.0655 0.0649681 0)
(10.0714 0.0671497 0)
(10.0772 0.0691549 0)
(10.0829 0.0710074 0)
(10.0885 0.0727322 0)
(10.0939 0.0743495 0)
(10.0992 0.0758731 0)
(10.1044 0.0773118 0)
(10.1096 0.0786712 0)
(10.1148 0.0799548 0)
(10.12 0.0811651 0)
(10.1252 0.0823041 0)
(10.1304 0.0833732 0)
(10.1356 0.0843706 0)
(10.1407 0.0852892 0)
(10.1458 0.0861185 0)
(10.1509 0.0868448 0)
(10.1559 0.087452 0)
(10.1609 0.0879227 0)
(10.1659 0.088239 0)
(10.1709 0.088385 0)
(10.1758 0.0883487 0)
(10.1806 0.0881226 0)
(10.1854 0.0877036 0)
(10.1901 0.087094 0)
(10.1947 0.0862996 0)
(10.1993 0.0853348 0)
(10.0001 0.00350677 0)
(10.0015 0.0106737 0)
(10.0042 0.0174343 0)
(10.008 0.0235339 0)
(10.0124 0.028868 0)
(10.017 0.0334072 0)
(10.022 0.0373167 0)
(10.0272 0.0408239 0)
(10.0325 0.0440475 0)
(10.038 0.0470048 0)
(10.0436 0.0496915 0)
(10.0492 0.0521211 0)
(10.0548 0.0543315 0)
(10.0605 0.0563707 0)
(10.0662 0.0582793 0)
(10.0719 0.0600798 0)
(10.0775 0.0617757 0)
(10.083 0.0633583 0)
(10.0884 0.0648158 0)
(10.0938 0.0661421 0)
(10.0991 0.0673397 0)
(10.1043 0.0684187 0)
(10.1095 0.0693938 0)
(10.1146 0.0702792 0)
(10.1198 0.0710859 0)
(10.1248 0.0718189 0)
(10.1299 0.0724767 0)
(10.1348 0.073052 0)
(10.1398 0.0735338 0)
(10.1447 0.0739083 0)
(10.1495 0.0741613 0)
(10.1543 0.0742789 0)
(10.159 0.0742498 0)
(10.1637 0.0740667 0)
(10.1682 0.073727 0)
(10.1727 0.0732329 0)
(10.1771 0.0725904 0)
(10.1814 0.0718084 0)
(10.1855 0.0708965 0)
(10.1895 0.0698685 0)
(10.0001 0.00273821 0)
(10.0012 0.00826553 0)
(10.0034 0.0135517 0)
(10.0065 0.0184434 0)
(10.0102 0.0228621 0)
(10.0145 0.026755 0)
(10.0189 0.0300662 0)
(10.0236 0.032918 0)
(10.0285 0.0355038 0)
(10.0337 0.0378968 0)
(10.039 0.0400872 0)
(10.0443 0.0420732 0)
(10.0497 0.043879 0)
(10.0551 0.0455404 0)
(10.0606 0.047089 0)
(10.066 0.0485428 0)
(10.0714 0.0499037 0)
(10.0767 0.0511624 0)
(10.0821 0.0523058 0)
(10.0873 0.0533242 0)
(10.0926 0.0542151 0)
(10.0978 0.0549832 0)
(10.1029 0.055638 0)
(10.1079 0.0561903 0)
(10.1129 0.056649 0)
(10.1178 0.0570195 0)
(10.1226 0.0573026 0)
(10.1274 0.0574958 0)
(10.1321 0.0575941 0)
(10.1367 0.0575916 0)
(10.1413 0.0574826 0)
(10.1457 0.0572625 0)
(10.1501 0.0569288 0)
(10.1544 0.0564812 0)
(10.1586 0.0559221 0)
(10.1627 0.0552563 0)
(10.1666 0.0544907 0)
(10.1705 0.0536344 0)
(10.1742 0.0526952 0)
(10.1778 0.0516842 0)
(10.0001 0.00190178 0)
(10.001 0.00570415 0)
(10.0028 0.00935769 0)
(10.0054 0.0127882 0)
(10.0087 0.0159488 0)
(10.0124 0.0188042 0)
(10.0165 0.021313 0)
(10.0208 0.0234183 0)
(10.0253 0.0251969 0)
(10.03 0.0268031 0)
(10.0349 0.0282893 0)
(10.0399 0.0296553 0)
(10.0449 0.0309033 0)
(10.05 0.0320427 0)
(10.0551 0.0330827 0)
(10.0602 0.034029 0)
(10.0653 0.0348835 0)
(10.0705 0.0356451 0)
(10.0755 0.0363114 0)
(10.0806 0.0368806 0)
(10.0856 0.037352 0)
(10.0905 0.0377266 0)
(10.0954 0.0380065 0)
(10.1002 0.0381943 0)
(10.105 0.0382924 0)
(10.1096 0.0383026 0)
(10.1142 0.0382265 0)
(10.1187 0.0380648 0)
(10.1231 0.0378185 0)
(10.1274 0.0374887 0)
(10.1316 0.037077 0)
(10.1357 0.0365859 0)
(10.1397 0.0360185 0)
(10.1436 0.035379 0)
(10.1474 0.0346721 0)
(10.151 0.0339036 0)
(10.1546 0.0330797 0)
(10.158 0.0322075 0)
(10.1613 0.0312925 0)
(10.1645 0.030342 0)
(10.0001 0.000939519 0)
(10.0009 0.00281201 0)
(10.0025 0.00461406 0)
(10.0048 0.00631618 0)
(10.0076 0.00789763 0)
(10.011 0.00934118 0)
(10.0148 0.0106261 0)
(10.0188 0.0117201 0)
(10.0231 0.0125841 0)
(10.0274 0.0132837 0)
(10.032 0.0139049 0)
(10.0366 0.0144614 0)
(10.0413 0.0149488 0)
(10.0461 0.0153656 0)
(10.0509 0.015712 0)
(10.0557 0.0159883 0)
(10.0605 0.0161956 0)
(10.0653 0.0163354 0)
(10.07 0.0164094 0)
(10.0748 0.016419 0)
(10.0795 0.0163654 0)
(10.0841 0.0162492 0)
(10.0886 0.0160707 0)
(10.0931 0.0158302 0)
(10.0975 0.0155278 0)
(10.1018 0.0151644 0)
(10.106 0.0147411 0)
(10.1102 0.0142597 0)
(10.1142 0.0137229 0)
(10.1181 0.0131336 0)
(10.122 0.0124955 0)
(10.1257 0.0118125 0)
(10.1293 0.011089 0)
(10.1328 0.0103296 0)
(10.1362 0.00953863 0)
(10.1394 0.0087209 0)
(10.1426 0.00788101 0)
(10.1457 0.00702353 0)
(10.1486 0.00615206 0)
(10.1515 0.0052707 0)
(10.0001 -0.000200625 0)
(10.0008 -0.000598107 0)
(10.0023 -0.000980338 0)
(10.0045 -0.00134543 0)
(10.0072 -0.00169521 0)
(10.0104 -0.00203401 0)
(10.014 -0.00236873 0)
(10.0179 -0.00270952 0)
(10.022 -0.00306876 0)
(10.0262 -0.0034588 0)
(10.0305 -0.00386566 0)
(10.035 -0.00429084 0)
(10.0395 -0.00473603 0)
(10.0441 -0.00520292 0)
(10.0486 -0.00569292 0)
(10.0532 -0.00620703 0)
(10.0578 -0.00674578 0)
(10.0623 -0.00730923 0)
(10.0668 -0.00789706 0)
(10.0713 -0.00850876 0)
(10.0757 -0.00914379 0)
(10.08 -0.00980175 0)
(10.0843 -0.0104824 0)
(10.0884 -0.0111856 0)
(10.0925 -0.011911 0)
(10.0965 -0.0126581 0)
(10.1004 -0.013426 0)
(10.1043 -0.0142132 0)
(10.108 -0.0150181 0)
(10.1116 -0.0158384 0)
(10.1151 -0.0166719 0)
(10.1185 -0.0175162 0)
(10.1218 -0.0183685 0)
(10.125 -0.0192263 0)
(10.1281 -0.0200872 0)
(10.131 -0.0209488 0)
(10.1339 -0.0218087 0)
(10.1367 -0.0226647 0)
(10.1394 -0.0235151 0)
(10.142 -0.0243579 0)
(10.0001 -0.00119527 0)
(10.0009 -0.00358269 0)
(10.0025 -0.00587357 0)
(10.0049 -0.00802679 0)
(10.0078 -0.0100232 0)
(10.0111 -0.0118578 0)
(10.0148 -0.0135353 0)
(10.0188 -0.0150674 0)
(10.023 -0.0164658 0)
(10.0273 -0.0177516 0)
(10.0317 -0.0189925 0)
(10.0362 -0.0202083 0)
(10.0408 -0.0213991 0)
(10.0453 -0.0225673 0)
(10.0499 -0.0237159 0)
(10.0545 -0.0248464 0)
(10.0591 -0.0259586 0)
(10.0636 -0.0270517 0)
(10.0681 -0.0281254 0)
(10.0725 -0.0291805 0)
(10.0768 -0.030219 0)
(10.081 -0.0312436 0)
(10.0852 -0.0322577 0)
(10.0893 -0.0332636 0)
(10.0933 -0.0342628 0)
(10.0971 -0.0352555 0)
(10.1009 -0.0362408 0)
(10.1046 -0.0372174 0)
(10.1082 -0.0381836 0)
(10.1116 -0.0391375 0)
(10.115 -0.0400781 0)
(10.1183 -0.0410043 0)
(10.1214 -0.0419157 0)
(10.1245 -0.042812 0)
(10.1274 -0.0436933 0)
(10.1302 -0.0445595 0)
(10.133 -0.0454109 0)
(10.1356 -0.0462474 0)
(10.1382 -0.0470688 0)
(10.1407 -0.0478751 0)
(10.0001 -0.00191302 0)
(10.001 -0.00572066 0)
(10.0029 -0.00933888 0)
(10.0055 -0.0126915 0)
(10.0086 -0.0157502 0)
(10.0122 -0.0185122 0)
(10.0161 -0.0209889 0)
(10.0203 -0.0232056 0)
(10.0246 -0.0252015 0)
(10.029 -0.0270439 0)
(10.0335 -0.0288139 0)
(10.0381 -0.0305248 0)
(10.0428 -0.032173 0)
(10.0474 -0.0337634 0)
(10.0521 -0.0353041 0)
(10.0567 -0.036799 0)
(10.0613 -0.0382469 0)
(10.0658 -0.0396453 0)
(10.0703 -0.0409932 0)
(10.0747 -0.0422938 0)
(10.079 -0.0435527 0)
(10.0833 -0.0447763 0)
(10.0874 -0.0459705 0)
(10.0915 -0.0471394 0)
(10.0954 -0.0482851 0)
(10.0993 -0.0494084 0)
(10.103 -0.0505086 0)
(10.1066 -0.0515846 0)
(10.1101 -0.0526354 0)
(10.1135 -0.0536603 0)
(10.1168 -0.0546589 0)
(10.12 -0.0556317 0)
(10.123 -0.0565795 0)
(10.126 -0.0575032 0)
(10.1289 -0.0584039 0)
(10.1317 -0.0592829 0)
(10.1344 -0.0601411 0)
(10.1369 -0.0609793 0)
(10.1394 -0.0617983 0)
(10.1418 -0.0625986 0)
(10.0001 -0.00264431 0)
(10.0012 -0.00789808 0)
(10.0034 -0.012811 0)
(10.0064 -0.0172703 0)
(10.0099 -0.0212647 0)
(10.0139 -0.0248135 0)
(10.0181 -0.0279451 0)
(10.0225 -0.0307059 0)
(10.027 -0.0331786 0)
(10.0316 -0.0355045 0)
(10.0362 -0.0377564 0)
(10.0409 -0.0399264 0)
(10.0457 -0.0419852 0)
(10.0504 -0.0439365 0)
(10.0552 -0.045797 0)
(10.0599 -0.0475778 0)
(10.0645 -0.0492838 0)
(10.069 -0.050916 0)
(10.0735 -0.0524771 0)
(10.0779 -0.053978 0)
(10.0821 -0.0554244 0)
(10.0863 -0.0568176 0)
(10.0905 -0.0581564 0)
(10.0945 -0.0594404 0)
(10.0984 -0.0606709 0)
(10.1022 -0.0618518 0)
(10.1058 -0.0629883 0)
(10.1094 -0.0640863 0)
(10.1128 -0.0651512 0)
(10.1161 -0.0661869 0)
(10.1193 -0.0671964 0)
(10.1224 -0.0681807 0)
(10.1254 -0.0691401 0)
(10.1283 -0.0700738 0)
(10.1311 -0.070981 0)
(10.1338 -0.0718606 0)
(10.1364 -0.0727118 0)
(10.1389 -0.0735344 0)
(10.1413 -0.0743282 0)
(10.1437 -0.075094 0)
(10.0001 -0.0034517 0)
(10.0016 -0.0102608 0)
(10.0043 -0.0164338 0)
(10.0078 -0.0218687 0)
(10.0117 -0.0266438 0)
(10.016 -0.0308386 0)
(10.0205 -0.034507 0)
(10.0252 -0.0377152 0)
(10.0299 -0.0405755 0)
(10.0347 -0.0432513 0)
(10.0395 -0.0458277 0)
(10.0443 -0.0483151 0)
(10.0491 -0.0506966 0)
(10.054 -0.052946 0)
(10.0588 -0.0550458 0)
(10.0635 -0.057003 0)
(10.0681 -0.0588448 0)
(10.0726 -0.0606041 0)
(10.077 -0.0623057 0)
(10.0813 -0.0639587 0)
(10.0856 -0.0655596 0)
(10.0897 -0.067097 0)
(10.0937 -0.0685587 0)
(10.0977 -0.0699377 0)
(10.1015 -0.0712346 0)
(10.1053 -0.0724573 0)
(10.1089 -0.0736183 0)
(10.1123 -0.0747315 0)
(10.1157 -0.0758097 0)
(10.1189 -0.0768628 0)
(10.122 -0.0778963 0)
(10.125 -0.0789124 0)
(10.128 -0.0799099 0)
(10.1308 -0.0808855 0)
(10.1335 -0.0818353 0)
(10.1362 -0.0827551 0)
(10.1387 -0.0836413 0)
(10.1412 -0.0844913 0)
(10.1436 -0.085303 0)
(10.1459 -0.0860755 0)
(10.0002 -0.00445019 0)
(10.0023 -0.0129712 0)
(10.0057 -0.0202881 0)
(10.0097 -0.0264748 0)
(10.0141 -0.0318265 0)
(10.0186 -0.0365213 0)
(10.0234 -0.0406184 0)
(10.0282 -0.0441771 0)
(10.0331 -0.0473271 0)
(10.038 -0.0502386 0)
(10.0429 -0.0530366 0)
(10.0477 -0.0557666 0)
(10.0526 -0.0584158 0)
(10.0575 -0.0609113 0)
(10.0623 -0.0631938 0)
(10.0671 -0.0652653 0)
(10.0717 -0.0671802 0)
(10.0762 -0.0690111 0)
(10.0806 -0.0708118 0)
(10.0848 -0.0725937 0)
(10.089 -0.0743413 0)
(10.0932 -0.0760241 0)
(10.0972 -0.0776104 0)
(10.1012 -0.079079 0)
(10.1051 -0.0804252 0)
(10.1088 -0.0816603 0)
(10.1124 -0.0828065 0)
(10.1158 -0.0838907 0)
(10.1191 -0.0849382 0)
(10.1223 -0.0859682 0)
(10.1253 -0.0869917 0)
(10.1282 -0.0880108 0)
(10.131 -0.0890206 0)
(10.1337 -0.0900117 0)
(10.1364 -0.0909732 0)
(10.139 -0.0918954 0)
(10.1415 -0.0927709 0)
(10.1439 -0.0935953 0)
(10.1463 -0.0943677 0)
(10.1486 -0.0950896 0)
(10.0005 -0.00571887 0)
(10.0035 -0.0161014 0)
(10.0078 -0.0243459 0)
(10.0124 -0.030986 0)
(10.0171 -0.0366911 0)
(10.0218 -0.0417734 0)
(10.0268 -0.0462313 0)
(10.0319 -0.050041 0)
(10.0369 -0.0533477 0)
(10.0417 -0.0564013 0)
(10.0465 -0.0594038 0)
(10.0512 -0.062427 0)
(10.0561 -0.0654045 0)
(10.0611 -0.0681807 0)
(10.0661 -0.0706319 0)
(10.0711 -0.0727581 0)
(10.0758 -0.0746663 0)
(10.0803 -0.0764952 0)
(10.0845 -0.0783505 0)
(10.0886 -0.0802687 0)
(10.0927 -0.0822153 0)
(10.0968 -0.0841112 0)
(10.101 -0.0858741 0)
(10.1051 -0.0874523 0)
(10.1091 -0.0888345 0)
(10.113 -0.0900429 0)
(10.1168 -0.09112 0)
(10.1202 -0.0921175 0)
(10.1235 -0.0930863 0)
(10.1265 -0.0940689 0)
(10.1294 -0.0950916 0)
(10.1322 -0.0961628 0)
(10.1349 -0.0972751 0)
(10.1375 -0.0984105 0)
(10.1401 -0.0995467 0)
(10.1427 -0.100661 0)
(10.1453 -0.101734 0)
(10.1479 -0.10275 0)
(10.1503 -0.103699 0)
(10.1527 -0.104571 0)
(10.0011 -0.00768968 0)
(10.0053 -0.0198727 0)
(10.0106 -0.0285757 0)
(10.016 -0.0352972 0)
(10.0209 -0.0411268 0)
(10.0257 -0.0465413 0)
(10.0308 -0.0513753 0)
(10.0363 -0.0553726 0)
(10.0415 -0.05867 0)
(10.0462 -0.0616788 0)
(10.0507 -0.0647636 0)
(10.0551 -0.0680908 0)
(10.0598 -0.0715708 0)
(10.065 -0.0748624 0)
(10.0705 -0.0776004 0)
(10.0759 -0.0796929 0)
(10.0808 -0.0813428 0)
(10.0853 -0.0828746 0)
(10.0892 -0.0845768 0)
(10.0929 -0.0866042 0)
(10.0966 -0.0889234 0)
(10.1006 -0.0913193 0)
(10.1049 -0.0934964 0)
(10.1093 -0.0952397 0)
(10.1137 -0.0964981 0)
(10.1179 -0.0973505 0)
(10.1218 -0.0979325 0)
(10.1254 -0.0983921 0)
(10.1286 -0.0988731 0)
(10.1314 -0.0994949 0)
(10.134 -0.100326 0)
(10.1364 -0.101367 0)
(10.1386 -0.102559 0)
(10.1409 -0.103812 0)
(10.1432 -0.105041 0)
(10.1455 -0.106178 0)
(10.1479 -0.107187 0)
(10.1503 -0.108051 0)
(10.1528 -0.108767 0)
(10.1552 -0.109349 0)
(10.0016 -0.0104249 0)
(10.0077 -0.0241213 0)
(10.0144 -0.0329144 0)
(10.0207 -0.0393497 0)
(10.0257 -0.0450892 0)
(10.0304 -0.0508662 0)
(10.0358 -0.0561691 0)
(10.0418 -0.0602723 0)
(10.0475 -0.0633243 0)
(10.0522 -0.0660563 0)
(10.056 -0.0690725 0)
(10.0594 -0.0726255 0)
(10.0634 -0.0766622 0)
(10.0687 -0.0807268 0)
(10.0752 -0.084122 0)
(10.0819 -0.0864606 0)
(10.0879 -0.0879047 0)
(10.0925 -0.0889445 0)
(10.0957 -0.090126 0)
(10.0981 -0.0918532 0)
(10.1004 -0.0943307 0)
(10.1035 -0.0975369 0)
(10.108 -0.101104 0)
(10.1134 -0.104441 0)
(10.1191 -0.107088 0)
(10.1245 -0.108877 0)
(10.1294 -0.109854 0)
(10.1335 -0.110191 0)
(10.1367 -0.11015 0)
(10.139 -0.110049 0)
(10.1406 -0.110211 0)
(10.142 -0.110883 0)
(10.1434 -0.112174 0)
(10.1451 -0.114023 0)
(10.1473 -0.116255 0)
(10.1499 -0.118651 0)
(10.1527 -0.121012 0)
(10.1556 -0.123185 0)
(10.1586 -0.125074 0)
(10.1615 -0.126632 0)
(10.0025 -0.0139366 0)
(10.0107 -0.0289744 0)
(10.0199 -0.0374988 0)
(10.0276 -0.043084 0)
(10.0324 -0.0485786 0)
(10.0365 -0.0552241 0)
(10.0424 -0.0613607 0)
(10.0498 -0.0651361 0)
(10.0564 -0.0670348 0)
(10.0608 -0.0687601 0)
(10.0634 -0.0717513 0)
(10.0653 -0.0764939 0)
(10.0678 -0.0819902 0)
(10.0727 -0.0863282 0)
(10.0803 -0.0882714 0)
(10.0891 -0.0881292 0)
(10.0969 -0.0871034 0)
(10.1024 -0.0864479 0)
(10.1054 -0.0872401 0)
(10.1063 -0.0899478 0)
(10.1058 -0.093848 0)
(10.1052 -0.0973907 0)
(10.1064 -0.0993202 0)
(10.1103 -0.0994576 0)
(10.1163 -0.0984434 0)
(10.1234 -0.0969662 0)
(10.1305 -0.0953743 0)
(10.137 -0.093828 0)
(10.1421 -0.0926201 0)
(10.1454 -0.0922028 0)
(10.1468 -0.0928556 0)
(10.1463 -0.0944314 0)
(10.1444 -0.0964482 0)
(10.1421 -0.0984365 0)
(10.14 -0.100115 0)
(10.1387 -0.101394 0)
(10.1384 -0.102306 0)
(10.1392 -0.102948 0)
(10.1408 -0.10345 0)
(10.143 -0.103885 0)
(10.0046 -0.0180539 0)
(10.0157 -0.0351091 0)
(10.0298 -0.0427543 0)
(10.039 -0.0459156 0)
(10.0423 -0.0499515 0)
(10.0454 -0.0592295 0)
(10.0533 -0.0702427 0)
(10.0644 -0.0765437 0)
(10.0731 -0.0773807 0)
(10.0758 -0.0756162 0)
(10.0731 -0.0744799 0)
(10.0695 -0.0780784 0)
(10.071 -0.0898888 0)
(10.0795 -0.106797 0)
(10.0917 -0.120297 0)
(10.1025 -0.125466 0)
(10.109 -0.123167 0)
(10.1098 -0.116603 0)
(10.1045 -0.109341 0)
(10.0958 -0.105142 0)
(10.0888 -0.108315 0)
(10.0875 -0.121008 0)
(10.0915 -0.139148 0)
(10.0969 -0.155598 0)
(10.1003 -0.166427 0)
(10.1006 -0.171182 0)
(10.0982 -0.170584 0)
(10.0935 -0.165639 0)
(10.0864 -0.157558 0)
(10.0767 -0.148009 0)
(10.0652 -0.139432 0)
(10.0536 -0.134427 0)
(10.0434 -0.1343 0)
(10.035 -0.138642 0)
(10.0278 -0.145975 0)
(10.0213 -0.15461 0)
(10.0144 -0.163101 0)
(10.0069 -0.170418 0)
(9.99803 -0.175946 0)
(9.98837 -0.179446 0)
(10.0061 -0.0249215 0)
(10.0313 -0.0449974 0)
(10.0544 -0.0493588 0)
(10.0638 -0.0498124 0)
(10.061 -0.0512761 0)
(10.058 -0.055341 0)
(10.0629 -0.058769 0)
(10.0709 -0.0594014 0)
(10.0725 -0.0581151 0)
(10.0632 -0.0572228 0)
(10.0427 -0.0594166 0)
(10.0148 -0.0646397 0)
(9.98795 -0.0682952 0)
(9.96887 -0.0669906 0)
(9.95455 -0.0626089 0)
(9.93702 -0.0578841 0)
(9.91224 -0.0532841 0)
(9.88148 -0.0488757 0)
(9.84508 -0.0466776 0)
(9.80031 -0.0489503 0)
(9.74735 -0.0534817 0)
(9.69356 -0.0545077 0)
(9.64604 -0.0496265 0)
(9.6049 -0.0413642 0)
(9.56426 -0.0332751 0)
(9.5199 -0.0277238 0)
(9.47168 -0.0250715 0)
(9.4217 -0.0238501 0)
(9.37164 -0.0227394 0)
(9.32063 -0.0220181 0)
(9.26668 -0.0221615 0)
(9.21016 -0.0226843 0)
(9.15438 -0.0228658 0)
(9.10254 -0.0222571 0)
(9.0557 -0.0205235 0)
(9.01319 -0.0176772 0)
(8.97346 -0.0140723 0)
(8.93533 -0.010267 0)
(8.89767 -0.00669073 0)
(8.86049 -0.004064 0)
(9.94444 -0.0258131 0)
(9.84992 -0.0548145 0)
(9.74131 -0.0578062 0)
(9.63161 -0.0495083 0)
(9.52757 -0.0534948 0)
(9.40673 -0.0790702 0)
(9.25993 -0.104157 0)
(9.1078 -0.107934 0)
(8.96772 -0.0938144 0)
(8.849 -0.0724283 0)
(8.75144 -0.0559182 0)
(8.66215 -0.0596721 0)
(8.55935 -0.0924732 0)
(8.43021 -0.134254 0)
(8.28717 -0.153633 0)
(8.15034 -0.14606 0)
(8.03156 -0.124021 0)
(7.93492 -0.096204 0)
(7.86062 -0.0672449 0)
(7.80512 -0.0454271 0)
(7.75785 -0.0467437 0)
(7.70297 -0.0794084 0)
(7.63154 -0.121836 0)
(7.54896 -0.146588 0)
(7.46695 -0.149091 0)
(7.3937 -0.136842 0)
(7.33163 -0.118104 0)
(7.28027 -0.0971126 0)
(7.23944 -0.0727626 0)
(7.21017 -0.0445321 0)
(7.19242 -0.0201682 0)
(7.18237 -0.0104433 0)
(7.17362 -0.01836 0)
(7.16076 -0.03824 0)
(7.14163 -0.0613168 0)
(7.11704 -0.0807393 0)
(7.08932 -0.0932683 0)
(7.06099 -0.0986688 0)
(7.03374 -0.0982877 0)
(7.00913 -0.0937502 0)
(0.000403491 -0.000470587 0)
(0.00067516 -0.000504565 0)
(0.0012453 -0.000511808 0)
(0.00183447 -0.000524787 0)
(0.00244047 -0.000536245 1.64202e-22)
(0.0030737 -0.000542118 0)
(0.00373207 -0.000541356 0)
(0.00440694 -0.000533402 0)
(0.00508839 -0.000519431 0)
(0.00577214 -0.000514325 0)
(0.0064678 -0.00059538 0)
(0.00720969 -0.000686042 2.75974e-22)
(0.00799457 -0.000670763 0)
(0.00876339 -0.000611784 0)
(0.00949149 -0.000548912 0)
(0.010171 -0.000483651 0)
(0.010791 -0.000413461 0)
(0.011337 -0.000338067 0)
(0.0117938 -0.000257641 -4.6076e-22)
(0.0121453 -0.00017222 0)
(0.012375 -8.24459e-05 4.31873e-22)
(0.012466 1.04223e-05 -4.1758e-22)
(0.0123993 0.000111411 4.03427e-22)
(0.0121538 0.000218359 0)
(0.011706 0.000334328 0)
(0.0110239 0.000460661 -7.2317e-22)
(0.0101138 0.000525973 6.95436e-22)
(0.00903598 0.000486722 -6.70024e-22)
(0.00777037 0.000491918 0)
(0.00621687 0.000594514 -6.28334e-22)
(0.00432476 0.000696144 6.08711e-22)
(0.0020744 0.000799111 0)
(-0.000560459 0.000905847 0)
(-0.00361376 0.00101684 0)
(-0.00711592 0.00112923 -1.07281e-21)
(-0.0110852 0.00122784 0)
(-0.0155757 0.00149271 1.00793e-21)
(-0.0207514 0.00178965 0)
(-0.0268353 0.00193336 -9.54471e-22)
(-0.0337904 0.00204909 9.27137e-22)
(-0.0417376 0.00218776 0)
(-0.0508818 0.0023535 0)
(-0.0614855 0.0025555 0)
(-0.0739071 0.00280249 0)
(-0.0885754 0.0030992 1.58918e-21)
(-0.107568 0.00349757 0)
(-0.1323 0.00400064 -1.31975e-21)
(-0.161552 0.00454543 0)
(-0.195662 0.0051164 0)
(-0.234814 0.00568632 0)
(-0.27891 0.00622585 -1.33761e-21)
(-0.327596 0.00670851 0)
(-0.380318 0.00711474 -1.3496e-21)
(-0.436384 0.00743237 0)
(-0.495039 0.00765816 0)
(-0.555525 0.00779566 0)
(-0.617144 0.00785295 1.37866e-21)
(-0.679273 0.00784091 0)
(-0.741385 0.00777104 0)
(-0.80304 0.00765427 0)
(-0.863883 0.00750032 1.40736e-21)
(-0.923629 0.00731742 1.41333e-21)
(-0.982053 0.00711234 0)
(-1.03898 0.00689052 0)
(-1.09427 0.00665631 0)
(-1.14781 0.00641322 0)
(-1.19953 0.00616408 0)
(-1.24937 0.00591121 0)
(-1.29729 0.00565651 -1.42811e-21)
(-1.34326 0.00540154 1.42532e-21)
(-1.38727 0.00514757 0)
(-1.42931 0.00489565 -1.41545e-21)
(-1.46938 0.00464664 0)
(-1.5075 0.00440124 0)
(-1.54369 0.00415995 0)
(-1.57796 0.0039231 0)
(-1.61033 0.00369088 0)
(-1.64083 0.00346333 0)
(-1.66949 0.00324037 -1.33309e-21)
(-1.69632 0.00302182 0)
(-1.72136 0.00280751 -1.29556e-21)
(-1.74462 0.00259728 1.27446e-21)
(-1.76613 0.00239099 -1.25183e-21)
(-1.78591 0.00218857 0)
(-1.80398 0.00198994 -1.202e-21)
(-1.82036 0.00179503 0)
(-1.83509 0.00160369 -1.14619e-21)
(-1.84817 0.00141571 0)
(-1.85963 0.00123086 0)
(-1.86949 0.0010488 0)
(-1.87776 0.000868948 -2.03475e-21)