/*--------------------------------*- C++ -*----------------------------------*\
| =========                 |                                                 |
| \\      /  F ield         | OpenFOAM: The Open Source CFD Toolbox           |
|  \\    /   O peration     | Version:  2112                                  |
|   \\  /    A nd           | Website:  www.openfoam.com                      |
|    \\/     M anipulation  |                                                 |
\*---------------------------------------------------------------------------*/
FoamFile
{
    version     2.0;
    format      ascii;
    arch        "LSB;label=32;scalar=64";
    class       volScalarField;
    location    "0.06";
    object      s_0;
}
// * * * * * * * * * * * * * * * * * * * * * * * * * * * * * * * * * * * * * //

dimensions      [0 0 0 0 0 0 0];

internalField   nonuniform List<scalar> 
122250
(
1
1
1
1
1
1
1
1
1
1
1
1
1
1
1
1
1
1
1
1
1
1
1
1
1
1
1
1
1
1
1
1
1
1
1
1
1
1
1
1
1
1
1
1
1
1
1
1
1
1
1
1
1
1
1
1
1
1
1
1
1
1
1
1
1
1
1
1
1
1
1
1
1
1
1
1
1
1
1
1
1
1
1
1
1
1
1
1
1
1
1
1
1
1
1
1
1
1
1
1
1
1
1
1
1
1
1
1
1
1
1
1
1
1
1
1
1
1
1
1
1
1
1
1
1
1
1
1
1
1
1
1
1
1
1
1
1
1
1
1
1
1
1
1
1
1
1
1
1
1
1
1
1
1
1
1
1
1
1
1
1
1
1
1
1
1
1
1
1
1
1
1
1
1
1
1
1
1
1
1
1
1
1
1
1
1
1
1
1
1
1
1
1
1
1
1
1
1
1
1
1
1
1
1
1
1
1
1
1
1
1
1
1
1
1
1
1
1
1
1
1
1
1
1
1
1
1
1
1
1
1
1
1
1
1
1
1
1
1
1
1
1
1
1
1
1
1
1
1
1
1
1
1
1
1
1
1
1
1
1
1
1
1
1
1
1
1
1
1
1
1
1
1
1
1
1
1
1
1
1
1
1
1
1
1
1
1
1
1
1
1
1
1
1
1
1
1
1
1
1
1
1
1
1
1
1
1
1
1
1
1
1
1
1
1
1
1
1
1
1
1
1
1
1
1
1
1
1
1
1
1
1
1
1
1
1
1
1
1
1
1
1
1
1
1
1
1
1
1
1
1
1
1
1
1
1
1
1
1
1
1
1
1
1
1
1
1
1
1
1
1
1
1
1
1
1
1
1
1
1
1
1
1
1
1
1
1
1
1
1
1
1
1
1
1
1
1
1
1
1
1
1
1
1
1
1
1
1
1
1
1
1
1
1
1
1
1
1
1
1
1
1
1
1
1
1
1
1
1
1
1
1
1
1
1
1
1
1
1
1
1
1
1
1
1
1
1
1
1
1
1
1
1
1
1
1
1
1
1
1
1
1
1
1
1
1
1
1
1
1
1
1
1
1
1
1
1
1
1
1
1
1
1
1
1
1
1
1
1
1
1
1
1
1
1
1
1
1
1
1
1
1
1
1
1
1
1
1
1
1
1
1
1
1
1
1
1
1
1
1
1
1
1
1
1
1
1
1
1
1
1
1
1
1
1
1
1
1
1
1
1
1
1
1
1
1
1
1
1
1
1
1
1
1
1
1
1
1
1
1
1
1
1
1
1
1
1
1
1
1
1
1
1
1
1
1
1
1
1
1
1
1
1
1
1
1
1
1
1
1
1
1
1
1
1
1
1
1
1
1
1
1
1
1
1
1
1
1
1
1
1
1
1
1
1
1
1
1
1
1
1
1
1
1
1
1
1
1
1
1
1
1
1
1
1
1
1
1
1
1
1
1
1
1
1
1
1
1
1
1
1
1
1
1
1
1
1
1
1
1
1
1
1
1
1
1
1
1
1
1
1
1
1
1
1
1
1
1
1
1
1
1
1
1
1
1
1
1
1
1
1
1
1
1
1
1
1
1
1
1
1
1
1
1
1
1
1
1
1
1
1
1
1
1
1
1
1
1
1
1
1
1
1
1
1
1
1
1
1
1
1
1
1
1
1
1
1
1
1
1
1
1
1
1
1
1
1
1
1
1
1
1
1
1
1
1
1
1
1
1
1
1
1
1
1
1
1
1
1
1
1
1
1
1
1
1
1
1
1
1
1
1
1
1
1
1
1
1
1
1
1
1
1
1
1
1
1
1
1
1
1
1
1
1
1
1
1
1
1
1
1
1
1
1
1
1
1
1
1
1
1
1
1
1
1
1
1
1
1
1
1
1
1
1
1
1
1
1
1
1
1
1
1
1
1
1
1
1
1
1
1
1
1
1
1
1
1
1
1
1
1
1
1
1
1
1
1
1
1
1
1
1
1
1
1
1
1
1
1
1
1
1
1
1
1
1
1
1
1
1
1
1
1
1
1
1
1
1
1
1
1
1
1
1
1
1
1
1
1
1
1
1
1
1
1
1
1
1
1
1
1
1
1
1
1
1
1
1
1
1
1
1
1
1
1
1
1
1
1
1
1
1
1
1
1
1
1
1
1
1
1
1
1
1
1
1
1
1
1
1
1
1
1
1
1
1
1
1
1
1
1
1
1
1
1
1
1
1
1
1
1
1
1
1
1
1
1
1
1
1
1
1
1
1
1
1
1
1
1
1
1
1
1
1
1
1
1
1
1
1
1
1
1
1
1
1
1
1
1
1
1
1
1
1
1
1
1
1
1
1
1
1
1
1
1
1
1
1
1
1
1
1
1
1
1
1
1
1
1
1
1
1
1
1
1
1
1
1
1
1
1
1
1
1
1
1
1
1
1
1
1
1
1
1
1
1
1
1
1
1
1
1
1
1
1
1
1
1
1
1
1
1
1
1
1
1
1
1
1
1
1
1
1
1
1
1
1
1
1
1
1
1
1
1
1
1
1
1
1
1
1
1
1
1
1
1
1
1
1
1
1
1
1
1
1
1
1
1
1
1
1
1
1
1
1
1
1
1
1
1
1
1
1
1
1
1
1
1
1
1
1
1
1
1
1
1
1
1
1
1
1
1
1
1
1
1
1
1
1
1
1
1
1
1
1
1
1
1
1
1
1
1
1
1
1
1
1
1
1
1
1
1
1
1
1
1
1
1
1
1
1
1
1
1
1
1
1
1
1
1
1
1
1
1
1
1
1
1
1
1
1
1
1
1
1
1
1
1
1
1
1
1
1
1
1
1
1
1
1
1
1
1
1
1
1
1
1
1
1
1
1
1
1
1
1
1
1
1
1
1
1
1
1
1
1
1
1
1
1
1
1
1
1
1
1
1
1
1
1
1
1
1
1
1
1
1
1
1
1
1
1
1
1
1
1
1
1
1
1
1
1
1
1
1
1
1
1
1
1
1
1
1
1
1
1
1
1
1
1
1
1
1
1
1
1
1
1
1
1
1
1
1
1
1
1
1
1
1
1
1
1
1
1
1
1
1
1
1
1
1
1
1
1
1
1
1
1
1
1
1
1
1
1
1
1
1
1
1
1
1
1
1
1
1
1
1
1
1
1
1
1
1
1
1
1
1
1
1
1
1
1
1
1
1
1
1
1
1
1
1
1
1
1
1
1
1
1
1
1
1
1
1
1
1
1
1
1
1
1
1
1
1
1
1
1
1
1
1
1
1
1
1
1
1
1
1
1
1
1
1
1
1
1
1
1
1
1
1
1
1
1
1
1
1
1
1
1
1
1
1
1
1
1
1
1
1
1
1
1
1
1
1
1
1
1
1
1
1
1
1
1
1
1
1
1
1
1
1
1
1
1
1
1
1
1
1
1
1
1
1
1
1
1
1
1
1
1
1
1
1
1
1
1
1
1
1
1
1
1
1
1
1
1
1
1
1
1
1
1
1
1
1
1
1
1
1
1
1
1
1
1
1
1
1
1
1
1
1
1
1
1
1
1
1
1
1
1
1
1
1
1
1
1
1
1
1
1
1
1
1
1
1
1
1
1
1
1
1
1
1
1
1
1
1
1
1
1
1
1
1
1
1
1
1
1
1
1
1
1
1
1
1
1
1
1
1
1
1
1
1
1
1
1
1
1
1
1
1
1
1
1
1
1
1
1
1
1
1
1
1
1
1
1
1
1
1
1
1
1
1
1
1
1
1
1
1
1
1
1
1
1
1
1
1
1
1
1
1
1
1
1
1
1
1
1
1
1
1
1
1
1
1
1
1
1
1
1
1
1
1
1
1
1
1
1
1
1
1
1
1
1
1
1
1
1
1
1
1
1
1
1
1
1
1
1
1
1
1
1
1
1
1
1
1
1
1
1
1
1
1
1
1
1
1
1
1
1
1
1
1
1
1
1
1
1
1
1
1
1
1
1
1
1
1
1
1
1
1
1
1
1
1
1
1
1
1
1
1
1
1
1
1
1
1
1
1
1
1
1
1
1
1
1
1
1
1
1
1
1
1
1
1
1
1
1
1
1
1
1
1
1
1
1
1
1
1
1
1
1
1
1
1
1
1
1
1
1
1
1
1
1
1
1
1
1
1
1
1
1
1
1
1
1
1
1
1
1
1
1
1
1
1
1
1
1
1
1
1
1
1
1
1
1
1
1
1
1
1
1
1
1
1
1
1
1
1
1
1
1
1
1
1
1
1
1
1
1
1
1
1
1
1
1
1
1
1
1
1
1
1
1
1
1
1
1
1
1
1
1
1
1
1
1
1
1
1
1
1
1
1
1
1
1
1
1
1
1
1
1
1
1
1
1
1
1
1
1
1
1
1
1
1
1
1
1
1
1
1
1
1
1
1
1
1
1
1
1
1
1
1
1
1
1
1
1
1
1
1
1
1
1
1
1
1
1
1
1
1
1
1
1
1
1
1
1
1
1
1
1
1
1
1
1
1
1
1
1
1
1
1
1
1
1
1
1
1
1
1
1
1
1
1
1
1
1
1
1
1
1
1
1
1
1
1
1
1
1
1
1
1
1
1
1
1
1
1
1
1
1
1
1
1
1
1
1
1
1
1
1
1
1
1
1
1
1
1
1
1
1
1
1
1
1
1
1
1
1
1
1
1
1
1
1
1
1
1
1
1
1
1
1
1
1
1
1
1
1
1
1
1
1
1
1
1
1
1
1
1
1
1
1
1
1
1
1
1
1
1
1
1
1
1
1
1
1
1
1
1
1
1
1
1
1
1
1
1
1
1
1
1
1
1
1
1
1
1
1
1
1
1
1
1
1
1
1
1
1
1
1
1
1
1
1
1
1
1
1
1
1
1
1
1
1
1
1
1
1
1
1
1
1
1
1
1
1
1
1
1
1
1
1
1
1
1
1
1
1
1
1
1
1
1
1
1
1
1
1
1
1
1
1
1
1
1
1
1
1
1
1
1
1
1
1
1
1
1
1
1
1
1
1
1
1
1
1
1
1
1
1
1
1
1
1
1
1
1
1
1
1
1
1
1
1
1
1
1
1
1
1
1
1
1
1
1
1
1
1
1
1
1
1
1
1
1
1
1
1
1
1
1
1
1
1
1
1
1
1
1
1
1
1
1
1
1
1
1
1
1
1
1
1
1
1
1
1
1
1
1
1
1
1
1
1
1
1
1
1
1
1
1
1
1
1
1
1
1
1
1
1
1
1
1
1
1
1
1
1
1
1
1
1
1
1
1
1
1
1
1
1
1
1
1
1
1
1
1
1
1
1
1
1
1
1
1
1
1
1
1
1
1
1
1
1
1
1
1
1
1
1
1
1
1
1
1
1
1
1
1
1
1
1
1
1
1
1
1
1
1
1
1
1
1
1
1
1
1
1
1
1
1
1
1
1
1
1
1
1
1
1
1
1
1
1
1
1
1
1
1
1
1
1
1
1
1
1
1
1
1
1
1
1
1
1
1
1
1
1
1
1
1
1
1
1
1
1
1
1
1
1
1
1
1
1
1
1
1
1
1
1
1
1
1
1
1
1
1
1
1
1
1
1
1
1
1
1
1
1
1
1
1
1
1
1
1
1
1
1
1
1
1
1
1
1
1
1
1
1
1
1
1
1
1
1
1
1
1
1
1
1
1
1
1
1
1
1
1
1
1
1
1
1
1
1
1
1
1
1
1
1
1
1
1
1
1
1
1
1
1
1
1
1
1
1
1
1
1
1
1
1
1
1
1
1
1
1
1
1
1
1
1
1
1
1
1
1
1
1
1
1
1
1
1
1
1
1
1
1
1
1
1
1
1
1
1
1
1
1
1
1
1
1
1
1
1
1
1
1
1
1
1
1
1
1
1
1
1
1
1
1
1
1
1
1
1
1
1
1
1
1
1
1
1
1
1
1
1
1
1
1
1
1
1
1
1
1
1
1
1
1
1
1
1
1
1
1
1
1
1
1
1
1
1
1
1
1
1
1
1
1
1
1
1
1
1
1
1
1
1
1
1
1
1
1
1
1
1
1
1
1
1
1
1
1
1
1
1
1
1
1
1
1
1
1
1
1
1
1
1
1
1
1
1
1
1
1
1
1
1
1
1
1
1
1
1
1
1
1
1
1
1
1
1
1
1
1
1
1
1
1
1
1
1
1
1
1
1
1
1
1
1
1
1
1
1
1
1
1
1
1
1
1
1
1
1
1
1
1
1
1
1
1
1
1
1
1
1
1
1
1
1
1
1
1
1
1
1
1
1
1
1
1
1
1
1
1
1
1
1
1
1
1
1
1
1
1
1
1
1
1
1
1
1
1
1
1
1
1
1
1
1
1
1
1
1
1
1
1
1
1
1
1
1
1
1
1
1
1
1
1
1
1
1
1
1
1
1
1
1
1
1
1
1
1
1
1
1
1
1
1
1
1
1
1
1
1
1
1
1
1
1
1
1
1
1
1
1
1
1
1
1
1
1
1
1
1
1
1
1
1
1
1
1
1
1
1
1
1
1
1
1
1
1
1
1
1
1
1
1
1
1
1
1
1
1
1
1
1
1
1
1
1
1
1
1
1
1
1
1
1
1
1
1
1
1
1
1
1
1
1
1
1
1
1
1
1
1
1
1
1
1
1
1
1
1
1
1
1
1
1
1
1
1
1
1
1
1
1
1
1
1
1
1
1
1
1
1
1
1
1
1
1
1
1
1
1
1
1
1
1
1
1
1
1
1
1
1
1
1
1
1
1
1
1
1
1
1
1
1
1
1
1
1
1
1
1
1
1
1
1
1
1
1
1
1
1
1
1
1
1
1
1
1
1
1
1
1
1
1
1
1
1
1
1
1
1
1
1
1
1
1
1
1
1
1
1
1
1
1
1
1
1
1
1
1
1
1
1
1
1
1
1
1
1
1
1
1
1
1
1
1
1
1
1
1
1
1
1
1
1
1
1
1
1
1
1
1
1
1
1
1
1
1
1
1
1
1
1
1
1
1
1
1
1
1
1
1
1
1
1
1
1
1
1
1
1
1
1
1
1
1
1
1
1
1
1
1
1
1
1
1
1
1
1
1
1
1
1
1
1
1
1
1
1
1
1
1
1
1
1
1
1
1
1
1
1
1
1
1
1
1
1
1
1
1
1
1
1
1
1
1
1
1
1
1
1
1
1
1
1
1
1
1
1
1
1
1
1
1
1
1
1
1
1
1
1
1
1
1
1
1
1
1
1
1
1
1
1
1
1
1
1
1
1
1
1
1
1
1
1
1
1
1
1
1
1
1
1
1
1
1
1
1
1
1
1
1
1
1
1
1
1
1
1
1
1
1
1
1
1
1
1
1
1
1
1
1
1
1
1
1
1
1
1
1
1
1
1
1
1
1
1
1
1
1
1
1
1
1
1
1
1
1
1
1
1
1
1
1
1
1
1
1
1
1
1
1
1
1
1
1
1
1
1
1
1
1
1
1
1
1
1
1
1
1
1
1
1
1
1
1
1
1
1
1
1
1
1
1
1
1
1
1
1
1
1
1
1
1
1
1
1
1
1
1
1
1
1
1
1
1
1
1
1
1
1
1
1
1
1
1
1
1
1
1
1
1
1
1
1
1
1
1
1
1
1
1
1
1
1
1
1
1
1
1
1
1
1
1
1
1
1
1
1
1
1
1
1
1
1
1
1
1
1
1
1
1
1
1
1
1
1
1
1
1
1
1
1
1
1
1
1
1
1
1
1
1
1
1
1
1
1
1
1
1
1
1
1
1
1
1
1
1
1
1
1
1
1
1
1
1
1
1
1
1
1
1
1
1
1
1
1
1
1
1
1
1
1
1
1
1
1
1
1
1
1
1
1
1
1
1
1
1
1
1
1
1
1
1
1
1
1
1
1
1
1
1
1
1
1
1
1
1
1
1
1
1
1
1
1
1
1
1
1
1
1
1
1
1
1
1
1
1
1
1
1
1
1
1
1
1
1
1
1
1
1
1
1
1
1
1
1
1
1
1
1
1
1
1
1
1
1
1
1
1
1
1
1
1
1
1
1
1
1
1
1
1
1
1
1
1
1
1
1
1
1
1
1
1
1
1
1
1
1
1
1
1
1
1
1
1
1
1
1
1
1
1
1
1
1
1
1
1
1
1
1
1
1
1
1
1
1
1
1
1
1
1
1
1
1
1
1
1
1
1
1
1
1
1
1
1
1
1
1
1
1
1
1
1
1
1
1
1
1
1
1
1
1
1
1
1
1
1
1
1
1
1
1
1
1
1
1
1
1
1
1
1
1
1
1
1
1
1
1
1
1
1
1
1
1
1
1
1
1
1
1
1
1
1
1
1
1
1
1
1
1
1
1
1
1
1
1
1
1
1
1
1
1
1
1
1
1
1
1
1
1
1
1
1
1
1
1
1
1
1
1
1
1
1
1
1
1
1
1
1
1
1
1
1
1
1
1
1
1
1
1
1
1
1
1
1
1
1
1
1
1
1
1
1
1
1
1
1
1
1
1
1
1
1
1
1
1
1
1
1
1
1
1
1
1
1
1
1
1
1
1
1
1
1
1
1
1
1
1
1
1
1
1
1
1
1
1
1
1
1
1
1
1
1
1
1
1
1
1
1
1
1
1
1
1
1
1
1
1
1
1
1
1
1
1
1
1
1
1
1
1
1
1
1
1
1
1
1
1
1
1
1
1
1
1
1
1
1
1
1
1
1
1
1
1
1
1
1
1
1
1
1
1
1
1
1
1
1
1
1
1
1
1
1
1
1
1
1
1
1
1
1
1
1
1
1
1
1
1
1
1
1
1
1
1
1
1
1
1
1
1
1
1
1
1
1
1
1
1
1
1
1
1
1
1
1
1
1
1
1
1
1
1
1
1
1
1
1
1
1
1
1
1
1
1
1
1
1
1
1
1
1
1
1
1
1
1
1
1
1
1
1
1
1
1
1
1
1
1
1
1
1
1
1
1
1
1
1
1
1
1
1
1
1
1
1
1
1
1
1
1
1
1
1
1
1
1
1
1
1
1
1
1
1
1
1
1
1
1
1
1
1
1
1
1
1
1
1
1
1
1
1
1
1
1
1
1
1
1
1
1
1
1
1
1
1
1
1
1
1
1
1
1
1
1
1
1
1
1
1
1
1
1
1
1
1
1
1
1
1
1
1
1
1
1
1
1
1
1
1
1
1
1
1
1
1
1
1
1
1
1
1
1
1
1
1
1
1
1
1
1
1
1
1
1
1
1
1
1
1
1
1
1
1
1
1
1
1
1
1
1
1
1
1
1
1
1
1
1
1
1
1
1
1
1
1
1
1
1
1
1
1
1
1
1
1
1
1
1
1
1
1
1
1
1
1
1
1
1
1
1
1
1
1
1
1
1
1
1
1
1
1
1
1
1
1
1
1
1
1
1
1
1
1
1
1
1
1
1
1
1
1
1
1
1
1
1
1
1
1
1
1
1
1
1
1
1
1
1
1
1
1
1
1
1
1
1
1
1
1
1
1
1
1
1
1
1
1
1
1
1
1
1
1
1
1
1
1
1
1
1
1
1
1
1
1
1
1
1
1
1
1
1
1
1
1
1
1
1
1
1
1
1
1
1
1
1
1
1
1
1
1
1
1
1
1
1
1
1
1
1
1
1
1
1
1
1
1
1
1
1
1
1
1
1
1
1
1
1
1
1
1
1
1
1
1
1
1
1
1
1
1
1
1
1
1
1
1
1
1
1
1
1
1
1
1
1
1
1
1
1
1
1
1
1
1
1
1
1
1
1
1
1
1
1
1
1
1
1
1
1
1
1
1
1
1
1
1
1
1
1
1
1
1
1
1
1
1
1
1
1
1
1
1
1
1
1
1
1
1
1
1
1
1
1
1
1
1
1
1
1
1
1
1
1
1
1
1
1
1
1
1
1
1
1
1
1
1
1
1
1
1
1
1
1
1
1
1
1
1
1
1
1
1
1
1
1
1
1
1
1
1
1
1
1
1
1
1
1
1
1
1
1
1
1
1
1
1
1
1
1
1
1
1
1
1
1
1
1
1
1
1
1
1
1
1
1
1
1
1
1
1
1
1
1
1
1
1
1
1
1
1
1
1
1
1
1
1
1
1
1
1
1
1
1
1
1
1
1
1
1
1
1
1
1
1
1
1
1
1
1
1
1
1
1
1
1
1
1
1
1
1
1
1
1
1
1
1
1
1
1
1
1
1
1
1
1
1
1
1
1
1
1
1
1
1
1
1
1
1
1
1
1
1
1
1
1
1
1
1
1
1
1
1
1
1
1
1
1
1
1
1
1
1
1
1
1
1
1
1
1
1
1
1
1
1
1
1
1
1
1
1
1
1
1
1
1
1
1
1
1
1
1
1
1
1
1
1
1
1
1
1
1
1
1
1
1
1
1
1
1
1
1
1
1
1
1
1
1
1
1
1
1
1
1
1
1
1
1
1
1
1
1
1
1
1
1
1
1
1
1
1
1
1
1
1
1
1
1
1
1
1
1
1
1
1
1
1
1
1
1
1
1
1
1
1
1
1
1
1
1
1
1
1
1
1
1
1
1
1
1
1
1
1
1
1
1
1
1
1
1
1
1
1
1
1
1
1
1
1
1
1
1
1
1
1
1
1
1
1
1
1
1
1
1
1
1
1
1
1
1
1
1
1
1
1
1
1
1
1
1
1
1
1
1
1
1
1
1
1
1
1
1
1
1
1
1
1
1
1
1
1
1
1
1
1
1
1
1
1
1
1
1
1
1
1
1
1
1
1
1
1
1
1
1
1
1
1
1
1
1
1
1
1
1
1
1
1
1
1
1
1
1
1
1
1
1
1
1
1
1
1
1
1
1
1
1
1
1
1
1
1
1
1
1
1
1
1
1
1
1
1
1
1
1
1
1
1
1
1
1
1
1
1
1
1
1
1
1
1
1
1
1
1
1
1
1
1
1
1
1
1
1
1
1
1
1
1
1
1
1
1
1
1
1
1
1
1
1
1
1
1
1
1
1
1
1
1
1
1
1
1
1
1
1
1
1
1
1
1
1
1
1
1
1
1
1
1
1
1
1
1
1
1
1
1
1
1
1
1
1
1
1
1
1
1
1
1
1
1
1
1
1
1
1
1
1
1
1
1
1
1
1
1
1
1
1
1
1
1
1
1
1
1
1
1
1
1
1
1
1
1
1
1
1
1
1
1
1
1
1
1
1
1
1
1
1
1
1
1
1
1
1
1
1
1
1
1
1
1
1
1
1
1
1
1
1
1
1
1
1
1
1
1
1
1
1
1
1
1
1
1
1
1
1
1
1
1
1
1
1
1
1
1
1
1
1
1
1
1
1
1
1
1
1
1
1
1
1
1
1
1
1
1
1
1
1
1
1
1
1
1
1
1
1
1
1
1
1
1
1
1
1
1
1
1
1
1
1
1
1
1
1
1
1
1
1
1
1
1
1
1
1
1
1
1
1
1
1
1
1
1
1
1
1
1
1
1
1
1
1
1
1
1
1
1
1
1
1
1
1
1
1
1
1
1
1
1
1
1
1
1
1
1
1
1
1
1
1
1
1
1
1
1
1
1
1
1
1
1
1
1
1
1
1
1
1
1
1
1
1
1
1
1
1
1
1
1
1
1
1
1
1
1
1
1
1
1
1
1
1
1
1
1
1
1
1
1
1
1
1
1
1
1
1
1
1
1
1
1
1
1
1
1
1
1
1
1
1
1
1
1
1
1
1
1
1
1
1
1
1
1
1
1
1
1
1
1
1
1
1
1
1
1
1
1
1
1
1
1
1
1
1
1
1
1
1
1
1
1
1
1
1
1
1
1
1
1
1
1
1
1
1
1
1
1
1
1
1
1
1
1
1
1
1
1
1
1
1
1
1
1
1
1
1
1
1
1
1
1
1
1
1
1
1
1
1
1
1
1
1
1
1
1
1
1
1
1
1
1
1
1
1
1
1
1
1
1
1
1
1
1
1
1
1
1
1
1
1
1
1
1
1
1
1
1
1
1
1
1
1
1
1
1
1
1
1
1
1
1
1
1
1
1
1
1
1
1
1
1
1
1
1
1
1
1
1
1
1
1
1
1
1
1
1
1
1
1
1
1
1
1
1
1
1
1
1
1
1
1
1
1
1
1
1
1
1
1
1
1
1
1
1
1
1
1
1
1
1
1
1
1
1
1
1
1
1
1
1
1
1
1
1
1
1
1
1
1
1
1
1
1
1
1
1
1
6.3666e-11
5.43573e-09
6.91233e-08
4.44611e-07
1.98165e-06
6.99979e-06
2.09746e-05
5.51367e-05
0.000133446
0.000316406
0.000737917
0.00161108
0.00337648
0.00578031
0.00902139
0.0115392
0.0163573
0.0293397
0.0403668
0.0600734
0.0876995
0.106124
0.11503
0.121403
0.139639
0.17743
0.210066
0.226044
0.229049
0.225899
0.205062
0.138136
0.122583
0.105258
0.0816932
0.121312
0.293163
0.278754
0.249303
0.412059
0.630972
0.754645
0.816661
0.815942
0.787986
0.779175
0.780387
0.795014
0.81874
0.824003
0.821133
0.80456
0.771566
0.723942
0.686729
0.677845
0.676975
0.678953
0.685334
0.693715
0.70279
0.718036
0.747465
0.780711
0.789526
0.790572
0.790018
0.78773
0.784135
0.780103
0.776071
0.772251
0.76872
0.765493
0.76241
0.759294
0.757761
0.757351
0.757273
0.75749
0.758663
0.761416
0.765801
0.771417
0.777386
0.782191
0.785301
0.788777
0.790322
0.79035
0.782815
0.772589
0.757212
0.73875
0.717768
0.689868
0.649612
0.594572
0.554625
0.544243
0.5439
0.55172
0.566071
0.576704
0.587283
0.610812
0.647879
0.679564
0.695782
0.700881
0.693409
0.661584
0.605455
0.549558
0.525703
0.526532
0.539139
0.547023
0.547038
0.542501
0.529568
0.523387
0.515282
0.478126
0.374189
0.380338
0.496662
0.626193
0.701587
0.737602
0.746894
0.744139
0.722805
0.69511
0.690159
0.697734
0.724253
0.748685
0.758015
0.75672
0.750556
0.740213
0.728558
0.720398
0.717352
0.718332
0.721219
0.72615
0.732527
0.731662
0.729553
0.730672
0.735759
0.74856
0.753691
0.74759
0.678688
0.352343
0.082099
0.011348
0.00103941
7.51652e-05
4.69692e-06
5.36782e-07
6.70154e-08
8.55696e-09
1.11425e-09
1.45531e-10
1.89595e-11
2.46433e-12
3.20083e-13
4.15831e-14
5.41033e-15
7.05521e-16
9.25822e-17
1.22714e-17
1.66251e-18
2.30954e-19
3.38904e-20
2.1768e-21
1.18534e-09
7.26675e-08
9.10293e-07
5.96678e-06
2.64161e-05
9.17917e-05
0.000270845
0.000681275
0.0015869
0.00382182
0.00917781
0.0194745
0.0324095
0.0499221
0.0588231
0.0714537
0.102653
0.181741
0.264885
0.331122
0.369316
0.387127
0.392859
0.391308
0.385798
0.376877
0.376242
0.385448
0.41275
0.419431
0.422347
0.383567
0.307523
0.353949
0.461815
0.473162
0.429698
0.382442
0.409605
0.682162
0.756572
0.762149
0.764533
0.76359
0.769509
0.791223
0.80405
0.808565
0.810228
0.809757
0.803806
0.790007
0.768074
0.735994
0.712445
0.707705
0.709756
0.725097
0.746481
0.751947
0.752429
0.753108
0.758577
0.770512
0.775283
0.77575
0.77504
0.77221
0.766266
0.756612
0.747457
0.744752
0.745032
0.75099
0.755131
0.755494
0.753636
0.753038
0.752599
0.752456
0.752885
0.754076
0.755855
0.758923
0.76434
0.772905
0.784039
0.795909
0.808078
0.821186
0.826735
0.82807
0.825001
0.815418
0.803644
0.789184
0.765916
0.744804
0.726748
0.703314
0.697269
0.698274
0.703719
0.711428
0.715355
0.714333
0.720444
0.737986
0.758145
0.772697
0.779163
0.771053
0.733434
0.659508
0.588938
0.564605
0.565455
0.576508
0.584283
0.584159
0.585024
0.578712
0.5468
0.516161
0.432809
0.36258
0.367306
0.449317
0.644235
0.748709
0.785487
0.796445
0.79792
0.797287
0.798113
0.802226
0.806517
0.817083
0.823214
0.819093
0.791467
0.74506
0.721954
0.715863
0.719564
0.736938
0.758534
0.777731
0.776871
0.776992
0.782791
0.800097
0.818932
0.826838
0.827322
0.824875
0.83255
0.832449
0.829304
0.802064
0.666029
0.282458
0.0778951
0.0176806
0.00365833
0.00072046
0.000136484
2.49162e-05
4.38574e-06
7.45117e-07
1.22357e-07
1.94656e-08
3.007e-09
4.53011e-10
6.68042e-11
9.73221e-12
1.4082e-12
2.06006e-13
3.16451e-14
-2.09507e-15
9.1501e-09
5.23351e-07
6.79347e-06
4.40508e-05
0.000181555
0.000587415
0.00165799
0.00363504
0.00759715
0.0190953
0.0336535
0.0523986
0.0725915
0.080743
0.0934822
0.135321
0.289302
0.401644
0.45
0.474416
0.49029
0.506165
0.501556
0.486792
0.454413
0.41505
0.385409
0.392635
0.442693
0.462905
0.440643
0.613799
0.63568
0.639481
0.645228
0.589684
0.470822
0.430296
0.437607
0.658161
0.713063
0.718139
0.72984
0.763413
0.790903
0.803367
0.807553
0.808813
0.808998
0.807851
0.803699
0.795915
0.786822
0.778178
0.767527
0.760015
0.757796
0.757707
0.758486
0.758642
0.75859
0.758759
0.760371
0.761642
0.761095
0.754984
0.738192
0.704842
0.650307
0.599498
0.583845
0.582147
0.599366
0.654534
0.723177
0.74885
0.756162
0.757256
0.755008
0.753051
0.752356
0.75127
0.750677
0.751235
0.754501
0.760204
0.767904
0.781911
0.800988
0.818994
0.83256
0.838953
0.844349
0.847955
0.845213
0.830502
0.813768
0.791888
0.784075
0.782738
0.78393
0.790246
0.794727
0.793957
0.787806
0.784648
0.785509
0.778042
0.75969
0.752121
0.761097
0.781399
0.782141
0.748105
0.682356
0.655472
0.662792
0.688601
0.685343
0.657265
0.647556
0.626665
0.557042
0.520038
0.462777
0.385019
0.382072
0.438541
0.624989
0.729919
0.766252
0.784635
0.791986
0.789243
0.773407
0.760451
0.767967
0.807973
0.835032
0.837124
0.82242
0.78095
0.767665
0.77186
0.792865
0.824151
0.824268
0.806045
0.767148
0.742266
0.729353
0.743578
0.806719
0.838248
0.838527
0.819568
0.808117
0.810863
0.824972
0.832375
0.822161
0.733135
0.410586
0.155794
0.0510248
0.0150449
0.00409219
0.00104321
0.000251638
5.78465e-05
1.27468e-05
2.70962e-06
5.58547e-07
1.12509e-07
2.22453e-08
4.36501e-09
8.50508e-10
1.67405e-10
3.28264e-11
6.49343e-12
4.56549e-08
3.13157e-06
4.17131e-05
0.000249658
0.000877783
0.0025016
0.00643134
0.00986993
0.0165308
0.0309894
0.0442052
0.0650636
0.0988943
0.1127
0.149702
0.310982
0.433102
0.474484
0.501484
0.522508
0.543026
0.567752
0.565171
0.53383
0.514693
0.50437
0.487731
0.521898
0.514235
0.57908
0.678678
0.710555
0.710329
0.699924
0.66695
0.566045
0.458033
0.422112
0.469332
0.64248
0.695938
0.706266
0.737682
0.780962
0.805073
0.810554
0.811604
0.811519
0.810004
0.80694
0.80227
0.795223
0.785585
0.774059
0.75989
0.745023
0.7336
0.725947
0.718898
0.709794
0.701705
0.695507
0.686442
0.671109
0.646862
0.611057
0.563285
0.51771
0.488787
0.469781
0.461464
0.45836
0.458268
0.471661
0.517616
0.613736
0.699609
0.726605
0.734531
0.736101
0.735273
0.730222
0.725963
0.725862
0.732712
0.74554
0.755939
0.765699
0.778321
0.801327
0.818873
0.826647
0.83959
0.848491
0.84806
0.830236
0.82216
0.812186
0.796694
0.79432
0.798543
0.81225
0.821979
0.823128
0.812628
0.805854
0.807825
0.813981
0.815285
0.803758
0.764148
0.734014
0.723781
0.722726
0.706226
0.684176
0.684113
0.699029
0.706734
0.686092
0.627583
0.602837
0.569095
0.513549
0.463299
0.400208
0.391687
0.450549
0.634682
0.719816
0.758631
0.779424
0.780992
0.760617
0.71532
0.710251
0.741115
0.824902
0.870967
0.87509
0.862343
0.841009
0.832648
0.839728
0.855636
0.855666
0.847476
0.822602
0.794479
0.75168
0.6877
0.630641
0.625913
0.693784
0.777447
0.78881
0.773767
0.766796
0.772744
0.799628
0.810081
0.79538
0.681393
0.363659
0.147411
0.0511333
0.0158003
0.00447121
0.00117856
0.000292807
6.92058e-05
1.56998e-05
3.44463e-06
7.37596e-07
1.55147e-07
3.24118e-08
6.74426e-09
1.41584e-09
2.97549e-10
6.32196e-11
2.10375e-07
1.71593e-05
0.000221029
0.00112592
0.00323105
0.0076652
0.0112973
0.0152108
0.0244616
0.0393647
0.0715643
0.133202
0.243312
0.267672
0.368854
0.44525
0.473041
0.499271
0.525499
0.534356
0.555265
0.582217
0.587756
0.564628
0.537389
0.525332
0.524289
0.583536
0.672475
0.710336
0.723531
0.724097
0.713393
0.702292
0.656025
0.545725
0.483596
0.460648
0.546347
0.656478
0.697561
0.71035
0.754781
0.797676
0.809238
0.811314
0.811497
0.810402
0.807092
0.801581
0.79391
0.784475
0.773119
0.760715
0.748159
0.736315
0.72423
0.707476
0.682464
0.648577
0.611974
0.580004
0.555258
0.53427
0.515405
0.505285
0.503868
0.505927
0.510086
0.512621
0.508618
0.493387
0.471365
0.462284
0.464264
0.501183
0.579557
0.668533
0.693555
0.696078
0.688227
0.660975
0.638557
0.634953
0.642132
0.672286
0.710679
0.745884
0.763687
0.794127
0.814632
0.820816
0.832044
0.84427
0.840864
0.800872
0.791024
0.791191
0.791715
0.792597
0.7977
0.812078
0.823219
0.826388
0.819295
0.81402
0.81484
0.819629
0.824166
0.83026
0.837546
0.836723
0.802594
0.742019
0.721491
0.720559
0.713104
0.687701
0.681179
0.668499
0.617697
0.553759
0.529994
0.522147
0.510467
0.469057
0.441768
0.478166
0.628718
0.730201
0.800622
0.822461
0.814219
0.775828
0.768181
0.801069
0.862623
0.893609
0.900049
0.89058
0.874087
0.858132
0.848516
0.859963
0.872996
0.887949
0.909946
0.915608
0.908952
0.887085
0.842891
0.728619
0.585893
0.527602
0.569367
0.674734
0.715198
0.725211
0.742802
0.776987
0.789058
0.78412
0.72226
0.463494
0.204372
0.077332
0.0259049
0.0078849
0.00222134
0.000586979
0.00014704
3.52556e-05
8.16072e-06
1.84005e-06
4.07252e-07
8.92909e-08
1.95062e-08
4.28628e-09
9.4785e-10
2.1156e-10
8.56894e-07
5.58849e-05
0.000595664
0.0023793
0.00587657
0.00956461
0.0127648
0.020461
0.0368168
0.0827147
0.186389
0.367879
0.484537
0.477513
0.462234
0.469928
0.517245
0.545751
0.54253
0.543042
0.598944
0.624993
0.592033
0.583115
0.586884
0.6165
0.661038
0.701476
0.715849
0.719713
0.719548
0.711713
0.7037
0.692567
0.652022
0.579588
0.54771
0.53634
0.586689
0.670376
0.704451
0.72827
0.78522
0.804369
0.80808
0.808114
0.802661
0.793613
0.781859
0.765105
0.739635
0.702209
0.684016
0.676354
0.674151
0.677254
0.681836
0.679284
0.669192
0.651136
0.627669
0.606334
0.590468
0.575863
0.57182
0.575197
0.589589
0.617018
0.648103
0.664261
0.669056
0.66083
0.624737
0.556711
0.511633
0.498222
0.523659
0.59059
0.620422
0.625184
0.615331
0.602298
0.597037
0.588454
0.570045
0.566577
0.600294
0.660803
0.689689
0.758887
0.815969
0.826623
0.830433
0.844099
0.847676
0.824421
0.803065
0.808491
0.816363
0.817366
0.811653
0.807232
0.805945
0.81567
0.818857
0.826015
0.831818
0.836013
0.836682
0.838464
0.847885
0.869635
0.874872
0.853082
0.774477
0.741997
0.719394
0.685828
0.6804
0.688336
0.6809
0.622037
0.554232
0.525064
0.516912
0.499524
0.493908
0.545587
0.682301
0.763788
0.831736
0.862061
0.860208
0.845653
0.852743
0.891092
0.913821
0.917495
0.912138
0.895464
0.875222
0.851512
0.847501
0.865366
0.88125
0.914134
0.935426
0.934254
0.922231
0.902395
0.873815
0.821925
0.763471
0.654458
0.57691
0.586604
0.664917
0.707758
0.725611
0.761443
0.775986
0.772288
0.722411
0.493008
0.228167
0.0908174
0.0320648
0.010291
0.00305761
0.000852804
0.000225781
5.72899e-05
1.40506e-05
3.3582e-06
7.87892e-07
1.82859e-07
4.22224e-08
9.76265e-09
2.26489e-09
5.27671e-10
1.23081e-06
6.61896e-05
0.000670592
0.00259236
0.00623531
0.0088889
0.0154283
0.0315889
0.0642145
0.170523
0.419369
0.536922
0.554749
0.487157
0.431214
0.489148
0.543926
0.562708
0.55701
0.543075
0.612321
0.66791
0.670001
0.66579
0.665735
0.667165
0.675374
0.6923
0.703053
0.705826
0.705099
0.700089
0.693058
0.67942
0.647054
0.604324
0.584522
0.578602
0.6112
0.682085
0.728815
0.772375
0.801027
0.806099
0.8051
0.795792
0.772698
0.737801
0.711906
0.695735
0.670129
0.632962
0.608884
0.603739
0.609807
0.64514
0.699341
0.717026
0.720384
0.719503
0.710021
0.678842
0.631226
0.615728
0.614283
0.630181
0.67554
0.728006
0.758243
0.769577
0.774227
0.77666
0.77274
0.745143
0.66737
0.558314
0.502706
0.492447
0.511722
0.528184
0.552445
0.593965
0.607042
0.600245
0.561112
0.548764
0.575941
0.631375
0.6414
0.684243
0.777162
0.827137
0.828983
0.830541
0.84331
0.846972
0.841599
0.834725
0.830833
0.828446
0.830099
0.831543
0.841817
0.859703
0.866178
0.867013
0.872914
0.88605
0.893143
0.895651
0.897838
0.901789
0.90249
0.894604
0.843503
0.771467
0.737703
0.707465
0.685437
0.689582
0.703989
0.701495
0.669322
0.614727
0.581331
0.571693
0.581954
0.653488
0.724536
0.780486
0.820953
0.858275
0.878424
0.894057
0.912003
0.924512
0.927244
0.925528
0.917877
0.900027
0.878939
0.852116
0.847424
0.86303
0.902328
0.940117
0.944408
0.939818
0.922104
0.875123
0.809386
0.764119
0.751141
0.745316
0.715855
0.692345
0.699167
0.715803
0.723132
0.745481
0.765208
0.762621
0.718663
0.508205
0.244407
0.101226
0.0371248
0.0123409
0.00378771
0.00108884
0.000296596
7.73396e-05
1.9486e-05
4.78725e-06
1.15674e-06
2.7726e-07
6.63921e-08
1.59826e-08
3.87981e-09
9.48994e-10
5.3174e-07
2.92723e-05
0.000368825
0.00190193
0.00501639
0.00817379
0.0184291
0.0451046
0.0924313
0.313933
0.527325
0.546867
0.468156
0.427791
0.453323
0.529857
0.558673
0.573568
0.564715
0.55547
0.542046
0.561592
0.647874
0.680549
0.684831
0.670405
0.62213
0.586491
0.581942
0.614131
0.667429
0.67769
0.676265
0.664621
0.635288
0.610964
0.602742
0.609663
0.640377
0.699751
0.756989
0.794774
0.805247
0.806166
0.801881
0.784154
0.746396
0.701059
0.681033
0.667573
0.646946
0.617148
0.605553
0.607027
0.634176
0.693816
0.725328
0.730469
0.722606
0.693187
0.647692
0.618184
0.605139
0.601132
0.608185
0.652138
0.727595
0.769895
0.782807
0.787528
0.789518
0.794121
0.798985
0.796652
0.782739
0.754419
0.688381
0.578483
0.530699
0.515765
0.536646
0.58543
0.617338
0.619281
0.581803
0.551131
0.581065
0.652433
0.659678
0.680383
0.760181
0.803709
0.802347
0.788703
0.791945
0.816646
0.850888
0.867349
0.874158
0.874238
0.869732
0.872333
0.885034
0.904249
0.912233
0.907633
0.895471
0.893183
0.899648
0.902157
0.909499
0.913187
0.912872
0.907592
0.894733
0.868556
0.852087
0.821688
0.756296
0.715054
0.707524
0.714555
0.720987
0.710795
0.655237
0.628193
0.635767
0.676747
0.723974
0.764931
0.79329
0.844674
0.883636
0.908855
0.927061
0.931284
0.928295
0.920083
0.915016
0.904225
0.874175
0.851078
0.850225
0.878669
0.933672
0.947552
0.946991
0.940994
0.921895
0.861271
0.773774
0.711202
0.683449
0.685608
0.708017
0.723898
0.729696
0.729543
0.725857
0.734746
0.756779
0.755151
0.712193
0.503932
0.242799
0.101116
0.0374955
0.012659
0.00396361
0.00116818
0.000328145
8.883e-05
2.34061e-05
6.0574e-06
1.55069e-06
3.95003e-07
1.00553e-07
2.5662e-08
6.57514e-09
1.6881e-09
2.2146e-07
1.30291e-05
0.000174625
0.00103282
0.00329367
0.00775293
0.0226158
0.0551112
0.115435
0.351723
0.521605
0.504551
0.461513
0.507012
0.551253
0.535284
0.5258
0.550032
0.565442
0.573205
0.571725
0.56591
0.572756
0.597168
0.653625
0.66009
0.615065
0.513801
0.485106
0.48152
0.528693
0.62947
0.655898
0.654804
0.636766
0.619267
0.61639
0.634946
0.661262
0.706835
0.762546
0.798638
0.804899
0.804829
0.79505
0.764498
0.713833
0.686339
0.6741
0.660501
0.640363
0.622826
0.619241
0.625742
0.649218
0.678815
0.685596
0.656712
0.594291
0.561091
0.54655
0.543373
0.547046
0.566465
0.601261
0.667108
0.742924
0.767152
0.77096
0.771089
0.770945
0.77656
0.787734
0.792165
0.786303
0.773265
0.760218
0.740156
0.720198
0.682004
0.617457
0.578053
0.59493
0.594786
0.589316
0.571871
0.587774
0.660522
0.681276
0.70209
0.769478
0.793481
0.789571
0.740908
0.719564
0.719795
0.739604
0.775133
0.824392
0.870544
0.889253
0.891672
0.900601
0.917246
0.926632
0.929328
0.925985
0.913551
0.905023
0.907262
0.918811
0.930486
0.934052
0.931393
0.923883
0.923178
0.925857
0.923034
0.893464
0.78637
0.729904
0.731316
0.765743
0.771463
0.717682
0.657593
0.649837
0.663757
0.710871
0.730921
0.739615
0.804953
0.888482
0.92498
0.938914
0.938459
0.928314
0.909014
0.882306
0.869745
0.853285
0.848841
0.859063
0.918878
0.947103
0.949552
0.947558
0.940647
0.926697
0.885934
0.788985
0.711725
0.671382
0.658767
0.665114
0.69868
0.7182
0.717761
0.710401
0.718345
0.746014
0.746567
0.704388
0.495603
0.239756
0.101572
0.038728
0.0135363
0.00441519
0.00136235
0.000401836
0.000114247
3.15272e-05
8.49851e-06
2.25251e-06
5.90908e-07
1.5436e-07
4.03587e-08
1.06005e-08
2.79355e-09
2.41711e-07
1.31722e-05
0.000169949
0.00101429
0.00352615
0.0104952
0.0333511
0.0726114
0.128546
0.295007
0.493109
0.500923
0.489453
0.551885
0.563229
0.532677
0.482339
0.463144
0.495487
0.565373
0.589027
0.593817
0.59732
0.611904
0.625102
0.61808
0.555243
0.5033
0.487302
0.474172
0.471826
0.521061
0.619973
0.645821
0.643945
0.632053
0.629518
0.641323
0.667381
0.707223
0.760337
0.797431
0.803351
0.801061
0.784008
0.743167
0.696996
0.679068
0.667772
0.656397
0.64168
0.629749
0.626604
0.627029
0.631261
0.625051
0.583309
0.554788
0.542542
0.539503
0.542897
0.558713
0.578702
0.597157
0.621423
0.663954
0.703357
0.717262
0.721328
0.724558
0.733643
0.73948
0.749258
0.761105
0.767329
0.763502
0.762628
0.762958
0.766201
0.771941
0.764504
0.719963
0.622397
0.57728
0.575755
0.579817
0.587872
0.633247
0.660939
0.667482
0.671234
0.715181
0.735641
0.723362
0.69131
0.693499
0.703568
0.733539
0.759536
0.781579
0.835796
0.881048
0.901075
0.910792
0.921326
0.933013
0.935359
0.93441
0.93134
0.930653
0.932765
0.939468
0.945236
0.944464
0.937308
0.934796
0.93748
0.937873
0.9287
0.861804
0.762244
0.758148
0.800454
0.804694
0.748201
0.679332
0.655439
0.663098
0.702702
0.70563
0.70369
0.772275
0.880279
0.927337
0.939482
0.937922
0.940037
0.941627
0.928757
0.879194
0.851574
0.84955
0.878962
0.934148
0.948315
0.949193
0.945554
0.934218
0.927293
0.913103
0.867348
0.753358
0.680658
0.651777
0.646928
0.655096
0.677164
0.678553
0.677231
0.692397
0.729285
0.732607
0.69168
0.483611
0.234359
0.100215
0.0388324
0.0139018
0.00465276
0.00147094
0.000443164
0.000128175
3.59292e-05
9.86468e-06
2.68285e-06
7.30926e-07
2.01288e-07
5.62385e-08
1.59446e-08
4.53116e-09
5.38158e-07
2.09207e-05
0.000248776
0.00154307
0.00653527
0.0230225
0.0680735
0.153133
0.20239
0.232726
0.459386
0.516095
0.44622
0.475438
0.570934
0.567069
0.50345
0.438483
0.421447
0.465501
0.570573
0.602444
0.613538
0.61591
0.59485
0.544828
0.514562
0.507119
0.504925
0.490078
0.476966
0.473495
0.510821
0.617332
0.641896
0.640032
0.633734
0.638268
0.661444
0.703434
0.758028
0.792567
0.799065
0.796435
0.775862
0.731996
0.688904
0.663305
0.645496
0.634754
0.626233
0.619446
0.616942
0.613622
0.597485
0.568615
0.545543
0.537237
0.53533
0.540146
0.557087
0.57446
0.584564
0.594164
0.604294
0.612381
0.61779
0.628008
0.647077
0.674857
0.700818
0.713939
0.722675
0.734362
0.751163
0.757199
0.767298
0.771499
0.775413
0.788666
0.794834
0.786395
0.760953
0.699854
0.635565
0.619405
0.660019
0.675338
0.671201
0.65692
0.644893
0.639999
0.645336
0.652159
0.665949
0.681485
0.696817
0.725387
0.744235
0.753423
0.7909
0.844802
0.891529
0.900705
0.902027
0.915972
0.934101
0.938949
0.940388
0.941677
0.941103
0.941435
0.946866
0.947988
0.948292
0.94887
0.948597
0.94694
0.939838
0.896986
0.792041
0.781554
0.811267
0.812099
0.758268
0.693188
0.668034
0.676001
0.708571
0.705879
0.704563
0.770834
0.877807
0.925522
0.936698
0.937403
0.940466
0.945569
0.944574
0.918025
0.862861
0.85539
0.883842
0.931244
0.94523
0.94621
0.943822
0.929739
0.91843
0.914051
0.898479
0.834696
0.714492
0.657836
0.639773
0.638103
0.641067
0.646432
0.654689
0.680928
0.715463
0.718115
0.674632
0.46322
0.224489
0.0966988
0.0377318
0.0135693
0.00456353
0.00145249
0.000442706
0.00013087
3.8083e-05
1.10948e-05
3.28828e-06
1.00216e-06
3.14738e-07
1.01153e-07
3.29028e-08