/*--------------------------------*- C++ -*----------------------------------*\
| =========                 |                                                 |
| \\      /  F ield         | OpenFOAM: The Open Source CFD Toolbox           |
|  \\    /   O peration     | Version:  2112                                  |
|   \\  /    A nd           | Website:  www.openfoam.com                      |
|    \\/     M anipulation  |                                                 |
\*---------------------------------------------------------------------------*/
FoamFile
{
    version     2.0;
    format      ascii;
    arch        "LSB;label=32;scalar=64";
    class       volScalarField;
    location    "0.05";
    object      omega_0;
}
// * * * * * * * * * * * * * * * * * * * * * * * * * * * * * * * * * * * * * //

dimensions      [0 0 -1 0 0 0 0];

internalField   nonuniform List<scalar> 
12225
(
37527.4
40232.8
41980.6
42971.6
43467.8
43636.1
43606.9
43513.2
43331.8
43108.3
42891.2
42648.4
42446.8
42207.1
42042.1
41807.9
41687.2
41426.3
2590.02
6031.92
8564.14
10434.5
11781.2
12744.6
13403.5
13874.7
14208.2
14437.4
14605.3
14722.5
14802.6
14878.7
14901.5
15007.9
15037.8
15133.8
353.333
924.549
1440.49
1916.63
2329.88
2712.42
3026.83
3321.98
3552.64
3781.16
3949.08
4127.39
4249.74
4394.13
4481.07
4594.68
4690.42
4841.23
119.88
272.472
420.064
564.954
695.795
826.595
938.262
1053.7
1145.34
1246.57
1320.57
1409.12
1468.37
1547.18
1592.94
1663.43
1709.1
1778.59
66.3201
127.392
187.03
246.728
301.623
357.201
405.979
456.991
499.127
545.637
581.449
623.816
653.781
692.906
716.771
754.77
774.533
810.806
48.3364
78.7057
108.549
138.624
166.738
194.963
220.454
246.59
269.264
293.326
313.228
335.42
352.586
373.345
387.563
408.038
418.784
439.705
42.5798
57.9351
74.9497
92.1018
108.397
124.59
139.582
154.607
168.187
182.038
194.211
207.002
217.751
229.725
238.912
250.663
257.617
270.154
40.7443
48.3003
58.4295
68.8856
79.039
89.0937
98.5931
107.968
116.688
125.344
133.271
141.257
148.383
155.82
162.079
169.258
174.295
181.913
40.0947
43.6844
49.6643
56.2075
62.7703
69.3142
75.6117
81.7894
87.6486
93.3822
98.7674
104.063
108.967
113.878
118.276
122.941
126.647
131.545
39.83
41.4868
44.8445
48.9341
53.2195
57.572
61.8455
66.0496
70.0975
74.0414
77.8044
81.4652
84.9286
88.3214
91.4744
94.6629
97.4073
100.713
39.7092
40.4618
42.2024
44.6911
47.4543
50.3496
53.264
56.1634
58.9965
61.7654
64.4382
67.0335
69.5203
71.9354
74.2264
76.4854
78.5283
80.8403
39.6567
40.0174
40.9252
42.4443
44.2525
46.224
48.2659
50.3324
52.3828
54.4032
56.3733
58.293
60.1482
61.9485
63.6752
65.3609
66.9279
68.6372
39.6301
39.791
40.2293
41.0881
42.2159
43.5114
44.9036
46.3475
47.8085
49.2672
50.7068
52.1199
53.4975
54.839
56.1367
57.4
58.597
59.8705
39.6161
39.6731
39.853
40.2503
40.8658
41.6257
42.4859
43.4121
44.3767
45.3606
46.3489
47.3319
48.3016
49.2539
50.1838
51.0917
51.9657
52.8795
39.6079
39.6203
39.6767
39.8191
40.0932
40.4707
40.9314
41.4554
42.0248
42.6251
43.2445
43.8739
44.5062
45.1362
45.7596
46.374
46.9746
47.5966
39.6044
39.5976
39.6067
39.6428
39.7275
39.8755
40.0761
40.3231
40.6085
40.9246
41.2642
41.621
41.9898
42.3661
42.7464
43.1276
43.5074
43.9004
39.6041
39.5886
39.5797
39.5823
39.5969
39.6326
39.6976
39.7881
39.9032
40.0404
40.1973
40.371
40.5585
40.7572
40.9648
41.179
41.3981
41.6268
39.604
39.5867
39.5724
39.5629
39.562
39.567
39.5819
39.6119
39.6571
39.7168
39.7906
39.8776
39.9768
40.0868
40.2062
40.3338
40.4681
40.6095
39.6039
39.5872
39.5744
39.571
39.5761
39.5924
39.626
39.6778
39.7467
39.8319
39.9323
40.0463
40.1723
40.3087
40.4538
40.6061
40.7639
40.9231
39.6039
39.5965
39.6053
39.6396
39.7173
39.849
40.0256
40.2422
40.4926
40.7702
41.0691
41.3839
41.7099
42.0432
42.3806
42.7194
43.0572
43.3845
39.6101
39.6339
39.7209
39.9212
40.2588
40.6986
41.219
41.7992
42.4213
43.0704
43.7349
44.4058
45.0762
45.7408
46.3957
47.0379
47.6664
48.2613
39.6301
39.7854
40.1866
40.9423
41.9215
43.051
44.2751
45.5509
46.8496
48.1496
49.4372
50.7018
51.9374
53.1386
54.3039
55.4289
56.5211
57.5352
39.7084
40.3654
41.8055
43.8379
46.1468
48.5869
51.0776
53.5595
56.0055
58.3902
60.7071
62.9436
65.1022
67.1742
69.1697
71.0722
72.9231
74.6046
40.0216
42.3541
46.3978
51.0038
55.8246
60.6418
65.3934
69.9961
74.4592
78.7349
82.8555
86.7811
90.558
94.1378
97.5939
100.83
104.028
106.842
41.2483
48.5858
58.1029
67.9215
77.7111
87.1516
96.3298
105.036
113.456
121.38
129.045
136.209
143.169
149.609
155.947
161.668
167.529
172.435
46.1883
66.6964
88.9339
110.632
131.795
151.701
171.05
188.973
206.477
222.467
238.236
252.409
266.614
279.079
291.943
302.762
314.574
323.722
65.91
125.794
185.584
241.614
295.606
345.196
393.511
436.767
479.608
516.858
554.732
586.508
620.035
646.896
676.737
699.2
726.004
744.522
166.861
402.764
620.313
816.663
1000.53
1164.07
1318.81
1451.53
1579.95
1685.61
1792.23
1875.32
1964.44
2029.26
2104.56
2154.64
2219.04
2257.34
1157.99
2665.25
3851.81
4824.17
5630.05
6283.29
6816.44
7239.27
7584.76
7854.93
8080.84
8250.95
8404.94
8511.04
8620.12
8681.89
8766
8794.08
23121.6
24533.2
25613.8
26402
26955.8
27333.5
27579.6
27732.5
27815.4
27852.7
27848.3
27831.2
27795.9
27747.3
27692.2
27633.1
27572.2
27510.7
11464.4
2521.05
2537.23
2572.93
2637.34
2720.09
2813.08
2903.8
2988.52
3066.4
3138.02
3200.54
3253.68
3297.43
3331.46
3356.5
3371.94
3377.74
3376.43
3371.02
3361.64
3347.49
3327.71
3302.5
3271.59
3236.14
3195.76
3152.07
3104.51
3054.45
3005.09
2958.16
2913.37
2914.43
2932.65
2999.97
3205.38
3294.66
3353.06
3508.67
4270.63
5313.6
5932.14
6355.5
6680.17
6941.84
7158.87
7344.58
7505.34
7647.67
7774.23
7888.81
7992.55
8087.85
8175.22
8256.24
8331.14
8401.01
8465.96
8526.71
8583.38
8636.42
8685.98
8732.28
8775.6
8816.07
8853.9
8889.2
8922.2
8952.98
8981.76
9008.56
9033.69
9057.21
9079.36
9100.13
9119.69
9138
9154.74
9170.01
9183.93
9196.12
9206.44
9215.6
9224.05
9229.66
9233.61
9235.67
9235.54
9233.17
9228.49
9221.22
9211.23
9198.15
9181.76
9161.7
9137.71
9109.62
9077.25
9040.43
8998.7
8952.14
8901.88
8848.33
8792.32
8728.64
8660.52
8583.73
8498.5
8400.02
8290.77
8170.6
8040.8
7902.66
7760.58
7642.28
7594.32
7564.3
7533.13
7497.32
7459.43
7420.17
7378.61
7339.38
7302.02
7266.17
7231.24
7196.9
7164.35
7133.32
7103.71
7075.4
7048.63
7023.46
6999.82
6977.61
6956.4
6936.53
6917.44
6898.51
6879.35
6859.81
6839.64
6818.15
6794.65
6768.7
6739.92
6707.68
6671.84
6632.55
6589.02
6540.96
6488.58
6430.5
6365.92
6294.81
6214.2
6119.09
6008.01
5886.97
5766.59
5656.86
5564.96
5494.15
5443.02
5407.67
5383.75
5368.27
5359.83
5357.79
5361.63
5370.39
5383.1
5397.72
5415.56
5435.73
5465.16
5483.49
5499.51
5493.02
11467.9
2431.83
1724.19
1534.22
1441.5
1371.3
1309.21
1247.16
1191.87
1144.79
1104.95
1071.95
1045.87
1025.82
1011.1
1001.11
995.863
995.562
998.466
1014.79
1053.16
1111.19
1182.3
1262.95
1349.64
1435.75
1518.15
1582.2
1634.51
1634.57
1611.64
1552.17
1404.51
1362.93
1407.4
1592.08
2277.48
3863.23
4846.79
4981.26
5075.67
5311.95
5410.58
5330.99
5056.27
4846.73
4609
4414.14
4231.34
4075.73
3938.92
3818.81
3715.6
3622.8
3543.07
3470.28
3406.97
3348.72
3297.22
3249.68
3207.03
3167.67
3132
3099.14
3069.31
3042.04
3017.36
2995.05
2975.22
2957.91
2943.07
2930.21
2920.35
2914.24
2910.24
2907.94
2908.58
2913.21
2916.85
2920.21
2923.9
2927.15
2930.28
2933.16
2935.8
2938.14
2940.18
2941.92
2943.31
2944.38
2945.15
2945.7
2946.1
2946.32
2946.31
2946.25
2946.33
2946.48
2946.63
2946.97
2947.46
2948.12
2949.05
2950.06
2951.33
2951.73
2951.61
2949.39
2944.3
2933.43
2917.71
2898.91
2876.04
2849.27
2819.06
2787.93
2758.88
2728.25
2695.53
2661.5
2627.72
2590.29
2549.62
2508.55
2469.11
2431.81
2396.65
2363.58
2332.5
2303.42
2276.36
2251.28
2228.35
2206.98
2187.99
2170.64
2154.84
2141.96
2128.67
2119.88
2108.94
2103.31
2103.7
2110.12
2122.36
2138.56
2157.98
2180.18
2205.09
2232.78
2262.56
2294.72
2330.65
2370.23
2413.11
2464.3
2525.8
2592.98
2665.67
2739.84
2791.4
2803.15
2798.01
2778.68
2728.39
2650.6
2559.53
2457.76
2351.69
2245.4
2145.73
2051.1
1969.08
1886.87
1831.61
1764.8
1729.17
1720.93
1756.23
1995.44
11471.6
3034.78
2273.74
1853.69
1639.12
1477.69
1339.35
1224.81
1132.98
1058.88
999.454
950.946
911.75
879.268
851.825
828.34
808.488
792.28
778.874
771.396
771.782
777.096
790.847
815.214
848.827
890.554
939.198
989.708
1040.28
1080.8
1098.89
1140.85
1277.55
1715.16
2488.48
3519.1
4254.18
4545.79
4631.2
4588.18
4494.37
4206.57
3788.01
3467.94
3233.07
3010.15
2842.7
2698.46
2588.45
2494.21
2421.13
2357.97
2307.93
2264.44
2229.25
2198.67
2173.53
2151.82
2133.83
2118.49
2105.88
2095.42
2087.03
2080.43
2075.46
2072.31
2070.68
2069.99
2070.39
2072.02
2074.76
2078.34
2082.81
2088.08
2094
2100.52
2107.63
2114.81
2122.2
2129.6
2137.17
2144.78
2152.48
2160.26
2168.14
2176.14
2184.29
2192.61
2201.15
2209.94
2219.04
2228.51
2238.44
2248.8
2259.65
2271.03
2282.98
2295.51
2308.6
2322.2
2336.23
2350.51
2364.85
2378.69
2391.76
2404
2414.77
2423.27
2427.96
2429.53
2426.86
2419.03
2405.45
2385.72
2359.78
2328.07
2291.29
2249.77
2204.41
2156.33
2106.51
2055.26
2003.1
1951.03
1899.6
1849.08
1800.05
1752.61
1706.76
1663.07
1621.57
1582.17
1544.97
1509.82
1476.95
1446.19
1417.44
1390.98
1366.13
1343.63
1322.74
1303.49
1286.59
1271.93
1259.63
1250.02
1242.61
1237.13
1234.42
1234.17
1235.25
1239.06
1245.61
1254.75
1266.25
1281.54
1301.25
1325.3
1355.25
1388.45
1419.34
1446.35
1466.82
1474
1473.26
1468.77
1458.08
1433.46
1398
1353.33
1302.44
1245.62
1187.2
1125.53
1068.08
1012.78
967.838
925.619
917.465
967.354
11474.3
4129.43
2857.52
2182.15
1804.21
1542.43
1358.91
1221.91
1117.43
1038.03
980.388
937.399
902.093
872.756
848.103
827.129
809.057
793.348
779.896
769.347
762.157
759.425
760.523
765.687
777.749
797.016
823.456
857.019
898.443
954.605
1075.68
1355.29
1967.27
2885.32
3720.65
4067.44
4165.73
4176.59
3850.67
3577.92
3251.2
2971.1
2702.7
2505.92
2347.59
2218.48
2125.73
2047.78
1991.42
1944.14
1908.94
1879.78
1857.65
1839.68
1826.07
1815.43
1807.69
1802.08
1798.77
1797.27
1796.82
1797.93
1800.17
1803.6
1807.97
1813.28
1819.39
1826.25
1833.8
1841.96
1850.69
1859.89
1869.53
1879.55
1889.9
1900.56
1911.41
1922.39
1933.5
1944.69
1955.95
1967.27
1978.63
1990.05
2001.54
2013.11
2024.8
2036.64
2048.65
2060.89
2073.38
2086.18
2099.32
2112.81
2126.72
2141.07
2155.87
2171.12
2186.79
2202.82
2219.1
2235.51
2251.97
2268.56
2284.56
2299.56
2313.12
2324.46
2332.09
2335.59
2334.51
2327.04
2312.79
2291.17
2262.14
2225.89
2182.95
2134.35
2081.29
2025.1
1966.61
1906.9
1846.66
1787.02
1728.32
1670.73
1614.59
1560.12
1507.4
1456.95
1408.6
1362.41
1318.67
1277.33
1238.44
1201.98
1167.89
1136.13
1106.57
1079.24
1053.94
1030.57
1009.18
989.572
971.724
955.79
941.622
929.06
918.312
909.457
902.254
896.426
892.331
890.749
890.769
891.9
895.517
902.172
911.624
923.364
936.638
950.579
963.111
973.678
983.389
990.321
992.202
991.401
987.567
977.437
956.931
927.846
891.061
847.116
800.439
752.949
709.937
673.654
641.258
651.832
11482.5
5297.14
3263.05
2340.71
1852.03
1533.87
1316.72
1169.01
1073.85
1013.87
970.777
938.531
914.517
895.743
880.173
866.501
853.922
842.025
830.493
819.109
808.437
799.545
793.158
792.1
795.398
805.478
825.804
857.137
909.146
1027.74
1335.51
1997.56
2844.07
3528.25
3813.75
3885.46
3696.29
3307.97
2988.99
2742.9
2490.75
2298.03
2129.21
2009.08
1915.41
1844.51
1793.64
1753.32
1724.87
1702.63
1687.03
1675.49
1667.85
1663.32
1661.23
1660.63
1661.72
1664.36
1668.17
1673.02
1678.82
1685.5
1692.95
1701.16
1710.05
1719.59
1729.73
1740.42
1751.63
1763.29
1775.36
1787.79
1800.53
1813.55
1826.77
1840.11
1853.54
1867.02
1880.52
1893.99
1907.35
1920.6
1933.71
1946.67
1959.5
1972.19
1984.76
1997.24
2009.65
2022.03
2034.4
2046.82
2059.33
2072
2084.89
2098.03
2111.47
2125.21
2139.25
2153.51
2167.89
2182.24
2196.4
2210.17
2223.29
2235.48
2246.24
2254.87
2259.46
2260.49
2253.88
2239.64
2217.44
2186.64
2147.56
2100.67
2047.01
1987.98
1925.2
1860.16
1794.15
1728.28
1663.3
1600.04
1538.71
1479.84
1423.22
1369.34
1318.26
1269.38
1223.14
1179.12
1137.31
1098.41
1062.27
1028.73
997.631
968.794
942.055
917.288
894.313
873.01
853.317
835.091
818.24
802.794
788.7
775.815
764.211
754.005
745
737.012
730.367
725.213
720.916
717.739
716.544
716.624
717.58
720.541
725.302
731.228
737.708
744.714
752.393
760.369
768.022
773.787
775.733
775.333
772.134
763.338
741.713
710.795
673.075
634.153
592.685
563.192
524.057
520.565
11561.3
6003.23
3413.16
2377.41
1780.52
1430.45
1229.39
1119.26
1053.54
1008.79
979.747
960.844
947.903
938.252
930.108
922.384
914.451
906.034
897.14
887.921
878.706
869.968
862.018
855.262
851.136
852.658
863.455
897.849
998.61
1285.69
1875.67
2617.88
3269.66
3560.48
3634.32
3367.49
2946
2653.03
2415.91
2220.84
2047.46
1916.97
1812.3
1739.02
1684.33
1644.85
1617.37
1597.47
1584.61
1576.45
1572.53
1571.13
1571.22
1573.95
1577.86
1582.93
1588.99
1595.86
1603.42
1611.59
1620.37
1629.69
1639.56
1649.96
1660.91
1672.4
1684.38
1696.85
1709.78
1723.14
1736.85
1750.83
1765.08
1779.53
1794.05
1808.51
1822.86
1837.03
1850.92
1864.48
1877.66
1890.46
1902.84
1914.8
1926.32
1937.41
1948.09
1958.4
1968.37
1978.05
1987.53
1996.86
2006.14
2015.47
2024.95
2034.69
2044.76
2055.24
2066.17
2077.52
2089.2
2101.01
2112.72
2124.13
2134.93
2144.63
2152.75
2158.18
2160.57
2157.32
2144.56
2120.79
2087.45
2043.63
1990.2
1928.09
1858.96
1784.93
1708.43
1631.46
1555.58
1481.89
1411.26
1344.3
1281.38
1222.92
1168.75
1119.13
1073.82
1032.16
994.721
960.082
928.178
899.413
873.381
849.723
828.138
808.347
790.107
773.225
757.512
742.83
729.091
716.195
704.073
692.733
682.15
672.255
663.109
654.778
647.152
640.176
634.014
628.681
623.943
619.907
616.668
614.312
613.246
613.214
613.741
615.526
618.594
622.72
627.988
634.533
642.107
649.816
656.031
659.307
659.63
657.922
651.307
631.57
600.725
568.732
530.991
503.788
468.908
455.416
11803.4
6214.63
3406.69
2194.72
1609.15
1324.47
1183.43
1104.1
1056.27
1029.64
1014.79
1006.17
1000.78
996.359
992.114
987.066
980.721
973.237
965.269
957.131
949.126
941.36
933.968
927.669
925.699
929.133
945.843
1009.49
1215.34
1669.75
2307.99
2955.75
3316.89
3423.69
3191.92
2749.24
2434.74
2221.12
2041.66
1897.23
1778.41
1690.27
1624.5
1579.04
1546.96
1525.25
1511.62
1504.4
1501.4
1500.8
1503.07
1507.24
1512.77
1519.54
1527.03
1535.15
1543.71
1552.63
1561.85
1571.35
1581.15
1591.28
1601.76
1612.64
1623.96
1635.72
1647.91
1660.47
1673.41
1686.71
1700.23
1713.85
1727.49
1741.08
1754.48
1767.64
1780.48
1792.96
1804.99
1816.54
1827.58
1838.08
1848.07
1857.55
1866.53
1875.05
1883.15
1890.9
1898.37
1905.65
1912.86
1920.12
1927.54
1935.23
1943.31
1951.92
1961.16
1971.12
1981.84
1993.31
2005.39
2017.71
2029.78
2041.13
2051.2
2059.3
2064.81
2067.35
2065.91
2057.7
2035.73
2000.53
1953.38
1893.61
1822.86
1742.88
1656.14
1566.08
1476.04
1388.26
1304.09
1224.64
1150.61
1082.6
1021.03
965.874
916.948
874.081
836.412
803.949
775.7
751.188
730.796
713.151
697.805
684.36
672.497
661.934
652.411
643.733
635.712
628.208
621.12
614.36
607.869
601.64
595.655
589.891
584.4
579.22
574.316
569.671
565.361
561.429
557.795
554.407
551.265
548.583
546.658
545.611
545.374
545.554
546.325
548.605
552.305
557.353
563.891
571.514
579.123
585.024
587.972
588.199
586.239
578.345
554.799
527.89
495.141
469.147
439.124
421.285
12211.9
5999.04
3016.34
1922.63
1474.04
1274.86
1171.22
1116.06
1088.99
1075.86
1069.17
1065.08
1062.56
1058.43
1051.45
1042.17
1032.63
1023.55
1015.36
1008.23
1002.15
996.861
992.737
991.741
994.268
1005.29
1043.81
1169.88
1483.1
1983.21
2575.12
3045.88
3221.5
3095.33
2680.46
2314.77
2093.86
1930.22
1795.3
1689.34
1606.48
1546.37
1503.87
1475.4
1456.92
1447.06
1442.88
1441.95
1444.19
1448.91
1455.47
1463.25
1471.88
1481.11
1490.64
1500.36
1510.14
1519.9
1529.63
1539.36
1549.16
1559.1
1569.23
1579.59
1590.28
1601.29
1612.58
1624.06
1635.7
1647.42
1659.14
1670.8
1682.34
1693.68
1704.74
1715.48
1725.87
1735.88
1745.5
1754.68
1763.43
1771.73
1779.6
1787.05
1794.13
1800.89
1807.39
1813.71
1819.94
1826.19
1832.58
1839.23
1846.26
1853.79
1861.96
1870.87
1880.61
1891.24
1902.78
1915.16
1928.21
1941.46
1954.13
1965.56
1975.04
1981.71
1984.78
1984.38
1979.48
1964.92
1932.12
1884.03
1820.92
1742.79
1652.08
1552.19
1447.28
1342.99
1242.91
1148.71
1061.36
981.839
910.76
848.405
794.542
748.487
709.574
676.859
649.495
626.873
607.993
592.62
580.362
570.242
561.953
555.15
549.614
545.112
541.388
538.324
535.695
533.382
531.283
529.3
527.36
525.424
523.459
521.449
519.418
517.369
515.321
513.235
511.144
509.109
507.113
505.052
502.89
500.813
499.108
497.99
497.498
497.442
497.655
498.593
501.346
505.398
510.947
517.912
525.734
532.963
538.045
539.864
539.594
536.465
522.985
500.176
472.452
448.101
422.182
402.985
12693.7
5377.46
2605.51
1735.5
1411.88
1262.37
1190.61
1158.13
1142.9
1134.21
1127.93
1120.72
1108.4
1093.15
1077.62
1063.55
1051.61
1042.2
1035.28
1030.86
1028.71
1028.42
1029.48
1033.97
1045.63
1074.41
1151.24
1341.7
1694.71
2185.91
2718.83
2987.16
3004.49
2689.94
2290.56
2022.47
1857.97
1730.15
1627.92
1549.23
1490.04
1448.26
1420.15
1402.87
1394.43
1391.59
1391.71
1395.61
1401.98
1410.17
1419.6
1429.82
1440.5
1451.38
1462.25
1472.97
1483.43
1493.59
1503.46
1513.1
1522.65
1532.17
1541.69
1551.29
1560.99
1570.81
1580.69
1590.6
1600.5
1610.35
1620.09
1629.68
1639.09
1648.29
1657.23
1665.87
1674.18
1682.15
1689.74
1696.96
1703.78
1710.22
1716.31
1722.08
1727.59
1732.91
1738.11
1743.29
1748.56
1754.04
1759.86
1766.15
1773.04
1780.67
1789.16
1798.61
1809.12
1820.7
1833.33
1846.93
1861.33
1875.93
1889.66
1901.64
1911.02
1916.73
1917.98
1915.82
1906.74
1883.39
1837.51
1772.27
1688.71
1587.76
1473.46
1352.95
1234.11
1122.85
1020.4
927.664
845.478
774.421
714.279
664.157
622.846
588.91
561.274
538.663
520.418
505.59
493.772
484.57
476.988
471.048
466.55
463.195
460.962
459.617
458.888
458.897
459.145
459.759
460.627
461.595
462.582
463.527
464.375
465.096
465.688
466.103
466.411
466.47
466.388
466.172
465.795
465.173
464.228
463.127
462.107
461.395
461.074
461.038
461.196
461.878
464.108
467.558
472.378
478.67
486.248
494.036
500.55
504.195
504.921
503.834
497.626
479.871
456.924
434.844
412.48
393.467
13171.8
4688.9
2294.55
1644.48
1394.85
1286.44
1239.98
1217.73
1202.72
1187.44
1169.55
1144.29
1119.38
1096.21
1075.75
1058.78
1045.98
1037.17
1032.16
1031.03
1032.82
1037.83
1046.04
1059.15
1083.86
1136.3
1249.73
1475.1
1845.38
2315.78
2705.05
2843.22
2713.25
2346.24
2015.94
1819.26
1689.61
1588.59
1509.69
1450.07
1406.65
1377.02
1358.63
1349.7
1346.84
1347.54
1351.96
1359.25
1368.55
1379.24
1390.84
1402.93
1415.23
1427.49
1439.5
1451.11
1462.28
1472.96
1483.21
1492.99
1502.4
1511.6
1520.65
1529.6
1538.48
1547.31
1556.06
1564.72
1573.26
1581.68
1589.95
1598.04
1605.92
1613.56
1620.89
1627.89
1634.52
1640.75
1646.57
1651.95
1656.92
1661.49
1665.72
1669.67
1673.43
1677.1
1680.79
1684.61
1688.72
1693.24
1698.35
1704.2
1710.94
1718.7
1727.64
1737.84
1749.37
1762.24
1776.37
1791.59
1807.79
1824.14
1839.23
1851.87
1860.99
1865.29
1864.94
1859.79
1844.04
1806.1
1741.42
1653.26
1543.81
1416.79
1280.92
1148.56
1027.86
919.453
823.62
741.336
672.717
616.744
571.629
535.374
506.267
482.749
463.768
448.378
435.97
426.07
418.205
412.455
407.703
403.985
401.387
399.7
399.13
399.235
399.735
400.957
402.672
404.73
407.053
409.542
412.114
414.696
417.218
419.636
421.919
424.015
425.94
427.626
429.051
430.237
431.175
431.788
431.944
431.891
431.68
431.528
431.503
431.592
431.939
432.879
434.972
438.066
442.422
448.19
455.401
463.347
470.782
475.998
478.135
478.053
475.429
464.233
445.455
426.068
406.927
389.078
13613.6
4057.91
2141.87
1617.55
1421.21
1343.18
1306.7
1281.4
1254.54
1221.9
1182.16
1142.97
1105.19
1072.52
1047.11
1029.42
1018.91
1015.09
1016.1
1020.11
1026.58
1035.86
1050.29
1072.6
1111.7
1186.07
1327.08
1574.26
1941.05
2364.9
2630
2658.98
2432.5
2081.55
1822.96
1671.78
1566.58
1485.46
1423.19
1376.97
1344.27
1322.87
1311.67
1307.68
1307.79
1311.98
1319.36
1329.15
1340.63
1353.26
1366.59
1380.28
1394.03
1407.59
1420.79
1433.53
1445.79
1457.38
1468.21
1478.41
1488.09
1497.38
1506.34
1515.02
1523.47
1531.73
1539.8
1547.68
1555.37
1562.86
1570.13
1577.17
1583.93
1590.36
1596.41
1602.02
1607.16
1611.79
1615.9
1619.49
1622.59
1625.25
1627.54
1629.57
1631.46
1633.36
1635.42
1637.82
1640.72
1644.31
1648.76
1654.26
1660.99
1669.09
1678.7
1689.89
1702.72
1717.22
1733.21
1750.36
1768.51
1786.43
1802.55
1815.23
1823.08
1824.88
1822.34
1811.42
1784.33
1723
1632.75
1516.38
1378.67
1230.21
1085.64
955.766
841.926
744.132
663.305
598.464
547.367
507.225
475.524
450.248
429.92
413.413
399.95
388.998
380.062
372.965
367.379
363.261
360.351
358.188
356.523
355.889
355.955
356.41
357.579
359.342
361.567
364.175
367.088
370.227
373.514
376.877
380.246
383.568
386.796
389.878
392.791
395.486
397.921
400.092
401.965
403.469
404.541
405.271
405.767
406.137
406.474
406.862
407.518
408.741
410.788
413.747
417.849
423.261
430.124
438.021
446.012
452.511
456.292
457.104
456.181
450.603
436.176
419.743
403.659
387.589
14015.6
3724.48
2091.4
1641.53
1486.73
1421.77
1381.94
1342.12
1294.12
1238.3
1179.44
1121.98
1073.17
1035.68
1009.4
993.462
986.481
986.331
990.867
999.738
1012.13
1028.21
1050.11
1081.37
1135.36
1230.47
1394.65
1655.03
2003.85
2346.06
2497.65
2458.42
2192.71
1887.28
1684.88
1562.66
1475.44
1408.93
1358.56
1321.77
1296.46
1281.15
1274.28
1272.89
1275.73
1282.26
1291.64
1303.15
1316.19
1330.26
1344.95
1359.94
1374.94
1389.78
1404.4
1418.6
1432.09
1444.75
1456.56
1467.59
1477.94
1487.69
1496.92
1505.68
1514.04
1522.06
1529.77
1537.19
1544.32
1551.16
1557.69
1563.89
1569.72
1575.11
1580.02
1584.39
1588.16
1591.31
1593.84
1595.74
1597.09
1597.93
1598.4
1598.62
1598.76
1599.03
1599.62
1600.75
1602.68
1605.59
1609.67
1615.14
1622.17
1630.93
1641.6
1654.17
1668.46
1684.74
1702.84
1722.18
1742.24
1761.15
1777.56
1789.09
1794.06
1793.31
1786
1763.9
1713.93
1623.12
1500.79
1354.71
1194.32
1036.96
897.953
780.209
682.667
604.996
544.541
497.859
461.595
433.077
410.378
392.122
377.32
365.255
355.386
347.356
340.813
335.606
331.611
328.544
326.629
325.572
325.037
324.99
325.222
325.983
327.414
329.323
331.667
334.393
337.441
340.748
344.247
347.873
351.561
355.256
358.906
362.459
365.874
369.104
372.106
374.854
377.301
379.382
381.06
382.365
383.379
384.176
384.859
385.545
386.461
387.842
389.924
392.84
396.803
401.977
408.553
416.304
424.578
432.042
437.342
439.595
439.594
437.339
428.1
414.575
401.422
387.495
14403.8
3627.9
2107.64
1718.41
1581.21
1516.34
1464.11
1403.57
1331.48
1252.89
1176.61
1111.54
1059.11
1019.99
993.129
977.309
970.999
971.549
978.477
990.492
1007.06
1028.52
1056.06
1097.78
1166.38
1279.73
1459.18
1717.83
2030.37
2284.6
2359.77
2263.29
1999.12
1744.69
1582.88
1480.95
1407.53
1351.96
1310.26
1280.2
1260.07
1248.62
1244.15
1244.6
1249.15
1257.01
1267.49
1279.96
1293.88
1308.81
1324.37
1340.27
1356.37
1372.53
1388.5
1403.98
1418.75
1432.68
1445.68
1457.76
1468.98
1479.4
1489.11
1498.17
1506.66
1514.64
1522.16
1529.28
1535.99
1542.31
1548.2
1553.67
1558.66
1563.12
1567
1570.22
1572.74
1574.53
1575.61
1575.98
1575.76
1575
1573.87
1572.56
1571.29
1570.28
1569.82
1570.04
1571.41
1574.17
1578.41
1584.43
1592.39
1602.26
1614.55
1629.26
1646.33
1665.16
1685.59
1706.91
1728.48
1747.37
1761.86
1770.25
1770.86
1766.54
1750.41
1707.74
1618.86
1493.01
1338.88
1166.61
997.686
851.853
732.353
636.372
561.698
504.256
460.113
425.897
399.111
377.959
361.153
347.737
336.978
328.323
321.344
315.733
311.238
307.715
305.06
303.052
301.845
301.588
301.698
302.16
303.062
304.223
305.671
307.573
309.873
312.525
315.491
318.72
322.159
325.752
329.443
333.179
336.911
340.587
344.159
347.581
350.809
353.806
356.52
358.897
360.903
362.547
363.879
364.96
365.889
366.793
367.876
369.354
371.454
374.335
378.195
383.194
389.526
397.094
405.454
413.565
420.167
424.074
425.133
424.458
420.098
409.689
399.346
387.877
14767.2
3650.19
2187.87
1822.99
1692.8
1625.07
1559.04
1479.14
1387.06
1290.94
1200.61
1124.05
1065.12
1023.5
997.09
984.37
980.019
980.774
988.485
1001.55
1019.74
1044.35
1079.39
1132.44
1215.17
1341.35
1524.18
1762.86
2023.25
2185.36
2216.65
2089.92
1853.52
1646.65
1512.94
1424.67
1360.58
1312.36
1276.45
1250.8
1233.87
1224.4
1221.01
1222.26
1227.25
1235.48
1246.19
1258.87
1272.99
1288.13
1304.11
1320.7
1337.61
1354.61
1371.51
1388.05
1403.96
1419.04
1433.14
1446.22
1458.3
1469.42
1479.66
1489.07
1497.75
1505.77
1513.2
1520.09
1526.48
1532.35
1537.7
1542.49
1546.71
1550.3
1553.2
1555.33
1556.66
1557.17
1556.92
1555.91
1554.25
1552.14
1549.75
1547.31
1545.08
1543.38
1542.51
1542.6
1544.12
1547.6
1552.8
1560.22
1570.17
1582.74
1597.89
1615.41
1635.09
1656.42
1678.59
1700.98
1723.17
1740.96
1752.28
1755.11
1751.56
1737.59
1705.66
1620.96
1489.16
1325.4
1142.36
964.604
814.481
694.353
599.793
526.81
470.689
427.601
394.44
368.845
349.034
333.66
321.7
312.367
305.051
299.298
294.761
291.208
288.449
286.376
284.851
283.847
283.472
283.525
283.887
284.895
286.35
287.982
289.809
291.838
294.062
296.533
299.314
302.347
305.584
308.981
312.49
316.068
319.666
323.237
326.734
330.107
333.314
336.314
339.057
341.496
343.6
345.367
346.831
348.041
349.09
350.1
351.255
352.756
354.826
357.639
361.384
366.221
372.323
379.687
388.001
396.491
404.049
409.517
412.212
412.459
411.02
404.674
396.863
387.912
14987
3686.04
2275.64
1939.03
1819.15
1750.88
1675.91
1584.73
1482.37
1377.83
1280.82
1198.33
1132.73
1084.01
1051.62
1034.37
1027.14
1025.62
1031.59
1045.18
1065.47
1094.65
1137.56
1202.04
1293.73
1423.01
1595.84
1802.85
1998.08
2085.94
2087.84
1953.23
1749.59
1577.25
1462.3
1384.52
1328.31
1286.17
1254.56
1231.69
1216.45
1207.78
1204.6
1205.65
1210.07
1217.8
1227.93
1240.11
1253.92
1268.93
1284.82
1301.4
1318.44
1335.73
1353.06
1370.15
1386.73
1402.54
1417.4
1431.22
1443.97
1455.67
1466.35
1476.09
1484.96
1493.05
1500.42
1507.15
1513.25
1518.74
1523.59
1527.75
1531.2
1533.89
1535.76
1536.78
1536.89
1536.27
1534.68
1532.38
1529.57
1526.45
1523.28
1520.34
1517.91
1516.35
1516.07
1516.98
1519.98
1525.32
1533.12
1543.82
1557.21
1573.19
1590.9
1610.26
1631.56
1654.2
1678.09
1702.04
1723.7
1738.59
1744.57
1743.52
1730.77
1695.49
1627.72
1487.55
1310.22
1117.31
933.889
781.85
661.998
568.58
496.417
440.802
398.311
366.035
341.638
323.254
309.409
298.982
291.114
285.151
280.603
277.142
274.498
272.529
271.101
270.094
269.498
269.354
269.429
269.859
270.694
271.907
273.489
275.416
277.653
279.99
282.412
284.941
287.585
290.359
293.302
296.409
299.629
302.924
306.252
309.572
312.834
315.994
319.007
321.83
324.421
326.738
328.756
330.468
331.899
333.094
334.137
335.141
336.273
337.722
339.701
342.395
345.989
350.643
356.508
363.634
371.82
380.467
388.671
395.367
399.746
401.443
401.283
398.78
393.589
387.111
15057.9
3702.87
2364.73
2064.74
1960.58
1899.4
1827.28
1739.52
1642.17
1542.39
1447.83
1364.63
1293.8
1234.26
1190.34
1161.43
1147.06
1141.67
1141.73
1153.85
1175.73
1208.84
1256.34
1321.21
1409.4
1525.65
1668.58
1823.44
1944.47
1991.43
1970.17
1846.39
1684.64
1551.15
1453.51
1382.25
1328.31
1286.67
1255.01
1231.66
1215.11
1204.54
1199.17
1198.29
1200.39
1205.81
1214.35
1225.2
1237.88
1251.93
1267.01
1282.9
1299.38
1316.25
1333.28
1350.23
1366.81
1382.78
1397.92
1412.09
1425.22
1437.28
1448.29
1458.29
1467.34
1475.51
1482.86
1489.43
1495.27
1500.36
1504.64
1508.07
1510.61
1512.23
1512.88
1512.7
1511.7
1509.66
1506.89
1503.6
1500.07
1496.52
1493.35
1490.92
1489.36
1489.23
1490.55
1494.43
1501.32
1510.8
1522.92
1536.68
1552.44
1570.54
1591.04
1614.15
1639.14
1665.12
1691.16
1715.21
1732.62
1739.3
1736.93
1728.92
1695.15
1621.16
1477.58
1284.16
1082.31
897.745
747.122
629.314
537.653
466.478
411.537
369.952
338.982
316.222
299.651
287.629
278.9
272.538
267.884
264.456
261.925
260.106
258.846
257.988
257.496
257.388
257.453
257.864
258.599
259.546
260.715
262.137
263.822
265.814
268.115
270.645
273.357
276.139
278.884
281.611
284.345
287.113
289.967
292.897
295.864
298.829
301.749
304.578
307.272
309.789
312.092
314.148
315.935
317.451
318.714
319.772
320.698
321.598
322.623
323.951
325.784
328.31
331.712
336.149
341.76
348.615
356.597
365.254
373.851
381.432
387.207
390.713
391.827
391.423
389.211
385.222
14969.2
3702.28
2404.57
2156.18
2093.22
2057.53
2012.24
1951.4
1879.42
1803.33
1727.9
1658.15
1594.03
1528.08
1469.63
1423.29
1389.53
1368.99
1359.78
1357.9
1368.47
1391.55
1427.89
1479.63
1549.21
1637.67
1741.25
1847.98
1916.49
1937.92
1908.99
1814.31
1687.38
1565.24
1470.56
1399.01
1344.07
1301.16
1267.67
1242.24
1223.82
1211.42
1204.23
1201.66
1202.42
1205.88
1212.02
1220.25
1230.35
1242
1254.97
1269.11
1284.07
1299.62
1315.51
1331.51
1347.37
1362.82
1377.65
1391.68
1404.79
1416.91
1428.03
1438.13
1447.25
1455.41
1462.62
1468.91
1474.28
1478.72
1482.15
1484.51
1485.81
1486.01
1485.51
1483.98
1481.56
1478.5
1475.01
1471.38
1468.07
1465.19
1463.16
1462.89
1463.87
1467.51
1473.88
1482.73
1493.26
1505.7
1520.37
1537.96
1558.51
1581.57
1606.68
1633.33
1660.77
1688.05
1713.64
1732.14
1738.63
1737.8
1721.24
1691.44
1617.29
1458.79
1247.62
1039.01
859.373
713.831
599.542
509.845
439.396
384.983
344.45
315.133
294.369
279.83
269.651
262.448
257.298
253.575
250.884
248.943
247.65
246.837
246.424
246.406
246.578
247.142
248.021
249.09
250.339
251.751
253.321
255.056
256.958
259.053
261.367
263.908
266.671
269.571
272.501
275.371
278.099
280.687
283.197
285.702
288.24
290.775
293.268
295.674
297.95
300.057
301.962
303.64
305.077
306.274
307.253
308.061
308.769
309.474
310.313
311.451
313.082
315.39
318.556
322.736
328.059
334.604
342.308
350.843
359.616
367.798
374.608
379.524
382.472
383.47
383.263
382.067
14782.2
3661.19
2401.9
2182
2155.61
2175.9
2180.94
2171.78
2144.77
2108.85
2068.76
2027.46
1986.27
1937.27
1883.84
1832.82
1786.76
1747.03
1714.13
1688.75
1674.28
1668.7
1671.61
1691.72
1727.45
1779.02
1842.32
1905.19
1942.81
1954.52
1922.97
1837.17
1723.5
1613.16
1520.12
1445.77
1387.15
1340.21
1302.48
1272.79
1250.17
1233.76
1222.78
1216.62
1214.49
1215.26
1218.61
1224.86
1233.04
1242.89
1253.76
1265.43
1277.93
1291.17
1304.97
1319.22
1333.65
1347.96
1361.87
1375.21
1387.8
1399.55
1410.37
1420.2
1429.01
1436.76
1443.44
1449.01
1453.45
1456.75
1458.84
1459.7
1459.55
1458.62
1456.63
1453.95
1450.85
1447.52
1444.36
1441.54
1439.76
1439.74
1441.28
1445.28
1451.42
1458.99
1468.49
1480.3