/*--------------------------------*- C++ -*----------------------------------*\
| =========                 |                                                 |
| \\      /  F ield         | OpenFOAM: The Open Source CFD Toolbox           |
|  \\    /   O peration     | Version:  2112                                  |
|   \\  /    A nd           | Website:  www.openfoam.com                      |
|    \\/     M anipulation  |                                                 |
\*---------------------------------------------------------------------------*/
FoamFile
{
    version     2.0;
    format      ascii;
    arch        "LSB;label=32;scalar=64";
    class       surfaceScalarField;
    location    "0.08";
    object      phi_0;
}
// * * * * * * * * * * * * * * * * * * * * * * * * * * * * * * * * * * * * * //

dimensions      [0 3 -1 0 0 0 0];

oriented        oriented;

internalField   nonuniform List<scalar> 
24170
(
3.08985e-06
9.85605e-08
2.93306e-06
1.56787e-07
2.76177e-06
1.71284e-07
2.5949e-06
1.66872e-07
2.44188e-06
1.53022e-07
2.30556e-06
1.36321e-07
2.18641e-06
1.19152e-07
2.08326e-06
1.03144e-07
1.99432e-06
8.89409e-08
1.91783e-06
7.64905e-08
1.8521e-06
6.57352e-08
1.79581e-06
5.62895e-08
1.74721e-06
4.86016e-08
1.7058e-06
4.14069e-08
1.66935e-06
3.6448e-08
1.63868e-06
3.06731e-08
1.61036e-06
2.83195e-08
2.92545e-08
1.5811e-06
3.43291e-06
8.29015e-08
3.44167e-06
1.48021e-07
3.43885e-06
1.74104e-07
3.42276e-06
1.82964e-07
3.39593e-06
1.79852e-07
3.36187e-06
1.70388e-07
3.3236e-06
1.57413e-07
3.28352e-06
1.43227e-07
3.2432e-06
1.29261e-07
3.20371e-06
1.1598e-07
3.16567e-06
1.03781e-07
3.12948e-06
9.24725e-08
3.09529e-06
8.27983e-08
3.06312e-06
7.35739e-08
3.03292e-06
6.66505e-08
3.0042e-06
5.93894e-08
2.97693e-06
5.55905e-08
5.08175e-08
2.95537e-06
3.67479e-06
7.06314e-08
3.6874e-06
1.35411e-07
3.69776e-06
1.63742e-07
3.70586e-06
1.74858e-07
3.71132e-06
1.74399e-07
3.71415e-06
1.67559e-07
3.71442e-06
1.57138e-07
3.71262e-06
1.45028e-07
3.7091e-06
1.32781e-07
3.70425e-06
1.20834e-07
3.69844e-06
1.09583e-07
3.69183e-06
9.90843e-08
3.68482e-06
8.98146e-08
3.67721e-06
8.11789e-08
3.66969e-06
7.41713e-08
3.6615e-06
6.75839e-08
3.65426e-06
6.28307e-08
5.78958e-08
3.64718e-06
3.93576e-06
6.02547e-08
3.94878e-06
1.22397e-07
3.95996e-06
1.52562e-07
3.96959e-06
1.65226e-07
3.97746e-06
1.6653e-07
3.98378e-06
1.61242e-07
3.98877e-06
1.52149e-07
3.99263e-06
1.41162e-07
3.99554e-06
1.29874e-07
3.99769e-06
1.18686e-07
3.99925e-06
1.08023e-07
4.00023e-06
9.81062e-08
4.00089e-06
8.91467e-08
4.00109e-06
8.09845e-08
4.00119e-06
7.40659e-08
4.00095e-06
6.78315e-08
4.00101e-06
6.27701e-08
5.82975e-08
4.00061e-06
4.216e-06
5.13781e-08
4.22894e-06
1.0946e-07
4.24126e-06
1.40247e-07
4.25204e-06
1.54444e-07
4.2609e-06
1.57668e-07
4.26812e-06
1.54019e-07
4.27399e-06
1.46282e-07
4.27876e-06
1.36386e-07
4.28274e-06
1.25897e-07
4.2861e-06
1.15327e-07
4.28894e-06
1.05179e-07
4.29135e-06
9.5696e-08
4.29349e-06
8.70072e-08
4.29532e-06
7.9157e-08
4.29705e-06
7.23357e-08
4.29863e-06
6.62532e-08
4.30028e-06
6.11173e-08
5.66406e-08
4.30194e-06
4.51665e-06
4.38123e-08
4.52893e-06
9.71813e-08
4.54192e-06
1.2726e-07
4.55393e-06
1.42431e-07
4.56422e-06
1.47382e-07
4.57269e-06
1.45546e-07
4.57953e-06
1.39446e-07
4.58495e-06
1.30968e-07
4.58946e-06
1.21381e-07
4.59331e-06
1.11482e-07
4.59661e-06
1.01874e-07
4.59954e-06
9.27712e-08
4.60218e-06
8.43652e-08
4.60458e-06
7.67598e-08
4.60686e-06
7.0047e-08
4.60907e-06
6.40528e-08
4.61133e-06
5.8857e-08
5.42877e-08
4.61368e-06
4.8392e-06
3.7331e-08
4.85058e-06
8.57998e-08
4.86342e-06
1.14422e-07
4.87604e-06
1.29813e-07
4.88757e-06
1.35849e-07
4.89758e-06
1.35535e-07
4.90594e-06
1.31092e-07
4.91263e-06
1.2428e-07
4.91801e-06
1.15992e-07
4.92243e-06
1.07066e-07
4.92615e-06
9.81504e-08
4.92944e-06
8.94837e-08
4.9324e-06
8.14046e-08
4.93514e-06
7.40226e-08
4.93776e-06
6.74233e-08
4.94032e-06
6.14938e-08
4.94292e-06
5.62629e-08
5.16226e-08
4.94558e-06
5.18516e-06
3.17477e-08
5.19564e-06
7.53194e-08
5.20797e-06
1.02099e-07
5.22057e-06
1.17208e-07
5.23261e-06
1.23812e-07
5.24362e-06
1.24523e-07
5.25337e-06
1.21342e-07
5.26173e-06
1.15921e-07
5.26865e-06
1.09068e-07
5.27428e-06
1.01437e-07
5.27889e-06
9.35447e-08
5.28276e-06
8.56165e-08
5.28611e-06
7.80518e-08
5.28917e-06
7.09602e-08
5.29209e-06
6.45052e-08
5.29493e-06
5.86548e-08
5.29776e-06
5.34261e-08
4.87452e-08
5.30064e-06
5.55617e-06
2.69122e-08
5.56579e-06
6.56982e-08
5.57752e-06
9.03765e-08
5.58984e-06
1.04882e-07
5.6019e-06
1.11753e-07
5.61326e-06
1.13162e-07
5.62373e-06
1.10879e-07
5.63323e-06
1.06418e-07
5.64164e-06
1.00658e-07
5.64888e-06
9.4192e-08
5.655e-06
8.74289e-08
5.66008e-06
8.05346e-08
5.66434e-06
7.37955e-08
5.66802e-06
6.72725e-08
5.67138e-06
6.11481e-08
5.67454e-06
5.54917e-08
5.67762e-06
5.03471e-08
4.56859e-08
5.68068e-06
5.95399e-06
2.26988e-08
5.96279e-06
5.68982e-08
5.97387e-06
7.92943e-08
5.98583e-06
9.29262e-08
5.99776e-06
9.98203e-08
6.0092e-06
1.01726e-07
6.01991e-06
1.00167e-07
6.02987e-06
9.64593e-08
6.03905e-06
9.14765e-08
6.04742e-06
8.58174e-08
6.05495e-06
7.9903e-08
6.06156e-06
7.39282e-08
6.06727e-06
6.80817e-08
6.07217e-06
6.23725e-08
6.07645e-06
5.68728e-08
6.08028e-06
5.16577e-08
6.08384e-06
4.67882e-08
4.22894e-08
6.08723e-06
6.3805e-06
1.90123e-08
6.3885e-06
4.88921e-08
6.39893e-06
6.88674e-08
6.41048e-06
8.13739e-08
6.42225e-06
8.80529e-08
6.4337e-06
9.02762e-08
6.44455e-06
8.93179e-08
6.45472e-06
8.62939e-08
6.4642e-06
8.19943e-08
6.47303e-06
7.69866e-08
6.48125e-06
7.16843e-08
6.48884e-06
6.6332e-08
6.4958e-06
6.11207e-08
6.50208e-06
5.60986e-08
6.50767e-06
5.12811e-08
6.51265e-06
4.66808e-08
6.51713e-06
4.23049e-08
3.81775e-08
6.52124e-06
5.7436e-06
1.625e-08
5.74976e-06
4.27241e-08
5.75809e-06
6.05468e-08
5.76753e-06
7.19255e-08
5.77734e-06
7.82511e-08
5.78701e-06
8.06025e-08
5.79628e-06
8.00463e-08
5.80503e-06
7.75434e-08
5.81322e-06
7.38008e-08
5.82088e-06
6.93349e-08
5.82803e-06
6.45258e-08
5.83474e-06
5.96239e-08
5.84104e-06
5.48198e-08
5.84694e-06
5.02005e-08
5.85242e-06
4.58023e-08
5.85747e-06
4.16345e-08
5.8621e-06
3.76737e-08
3.39324e-08
5.86634e-06
7.0009e-06
1.35061e-08
7.0074e-06
3.62205e-08
7.0164e-06
5.15532e-08
7.02685e-06
6.14767e-08
7.03789e-06
6.72105e-08
7.04894e-06
6.95497e-08
7.05966e-06
6.93244e-08
7.06988e-06
6.73288e-08
7.0795e-06
6.41766e-08
7.08851e-06
6.03207e-08
7.09695e-06
5.60936e-08
7.10484e-06
5.1725e-08
7.11228e-06
4.73835e-08
7.11931e-06
4.31695e-08
7.12597e-06
3.91441e-08
7.13227e-06
3.53394e-08
7.1382e-06
3.17388e-08
2.83677e-08
7.14376e-06
8.53356e-06
1.07941e-08
8.54031e-06
2.94669e-08
8.54988e-06
4.19819e-08
8.56128e-06
5.00833e-08
8.57355e-06
5.49334e-08
8.58604e-06
5.70603e-08
8.59832e-06
5.70441e-08
8.61016e-06
5.54955e-08
8.62141e-06
5.29205e-08
8.63203e-06
4.97029e-08
8.642e-06
4.61247e-08
8.65134e-06
4.23837e-08
8.66011e-06
3.86183e-08
8.66836e-06
3.49184e-08
8.67616e-06
3.13457e-08
8.68355e-06
2.79412e-08
8.69059e-06
2.47029e-08
2.16749e-08
8.69728e-06
1.0402e-05
8.05834e-09
1.04091e-05
2.23419e-08
1.04192e-05
3.19088e-08
1.04314e-05
3.78652e-08
1.04448e-05
4.14734e-08
1.04588e-05
4.31158e-08
1.04727e-05
4.31266e-08
1.04863e-05
4.19159e-08
1.04993e-05
3.98634e-08
1.05118e-05
3.72708e-08
1.05235e-05
3.43649e-08
1.05346e-05
3.13079e-08
1.0545e-05
2.82111e-08
1.05548e-05
2.51479e-08
1.0564e-05
2.21667e-08
1.05726e-05
1.9299e-08
1.05808e-05
1.65455e-08
1.3958e-08
1.05885e-05
1.26796e-05
5.2046e-09
1.26873e-05
1.46764e-08
1.2698e-05
2.11799e-08
1.27111e-05
2.47698e-08
1.27258e-05
2.68333e-08
1.27412e-05
2.7697e-08
1.27568e-05
2.74983e-08
1.27723e-05
2.64637e-08
1.27873e-05
2.48377e-08
1.28017e-05
2.28267e-08
1.28155e-05
2.05897e-08
1.28286e-05
1.82443e-08
1.28409e-05
1.58735e-08
1.28525e-05
1.35328e-08
1.28634e-05
1.12563e-08
1.28737e-05
9.06089e-09
1.28833e-05
6.94753e-09
4.97444e-09
1.28923e-05
1.54562e-05
2.21188e-09
1.54645e-05
6.37416e-09
1.54764e-05
9.22906e-09
1.54908e-05
1.03778e-08
1.55069e-05
1.07698e-08
1.5524e-05
1.061e-08
1.55415e-05
9.95674e-09
1.55591e-05
8.90947e-09
1.55763e-05
7.58758e-09
1.5593e-05
6.09615e-09
1.56091e-05
4.51669e-09
1.56245e-05
2.91013e-09
1.5639e-05
1.32017e-09
1.56528e-05
-2.23795e-10
1.56657e-05
-1.70461e-09
1.56779e-05
-3.11326e-09
1.56893e-05
-4.43805e-09
-5.61388e-09
1.56999e-05
1.88409e-05
-1.06449e-09
1.88502e-05
-2.88503e-09
1.88639e-05
-4.50168e-09
1.88803e-05
-6.02678e-09
1.88985e-05
-7.46699e-09
1.8918e-05
-8.84994e-09
1.89381e-05
-1.0149e-08
1.89584e-05
-1.13531e-08
1.89784e-05
-1.24566e-08
1.8998e-05
-1.34575e-08
1.90168e-05
-1.43577e-08
1.90349e-05
-1.5162e-08
1.90521e-05
-1.58761e-08
1.90684e-05
-1.6507e-08
1.90838e-05
-1.7063e-08
1.90982e-05
-1.75495e-08
1.91117e-05
-1.79586e-08
-1.82383e-08
1.91243e-05
2.29672e-05
-4.93533e-09
2.29783e-05
-1.39282e-08
2.29947e-05
-2.09498e-08
2.30144e-05
-2.57421e-08
2.30364e-05
-2.94245e-08
2.30598e-05
-3.22917e-08
2.3084e-05
-3.4373e-08
2.31084e-05
-3.5765e-08
2.31326e-05
-3.65983e-08
2.31561e-05
-3.69953e-08
2.31788e-05
-3.70604e-08
2.32005e-05
-3.68794e-08
2.32212e-05
-3.65201e-08
2.32407e-05
-3.60364e-08
2.32591e-05
-3.54714e-08
2.32764e-05
-3.48534e-08
2.32927e-05
-3.41844e-08
-3.34053e-08
2.33078e-05
1.68139e-05
-8.09399e-09
1.68226e-05
-2.27108e-08
1.68354e-05
-3.36583e-08
1.68508e-05
-4.11773e-08
1.68681e-05
-4.67137e-08
1.68865e-05
-5.06694e-08
1.69053e-05
-5.32023e-08
1.69241e-05
-5.4563e-08
1.69425e-05
-5.50185e-08
1.69603e-05
-5.47993e-08
1.69773e-05
-5.4097e-08
1.69935e-05
-5.30652e-08
1.70088e-05
-5.18164e-08
1.70232e-05
-5.04315e-08
1.70367e-05
-4.89681e-08
1.70493e-05
-4.74601e-08
1.70611e-05
-4.59094e-08
-4.42486e-08
1.70719e-05
1.46379e-05
-1.13942e-08
1.46466e-05
-3.14681e-08
1.4659e-05
-4.59946e-08
1.46741e-05
-5.62713e-08
1.46909e-05
-6.35684e-08
1.47086e-05
-6.83359e-08
1.47264e-05
-7.10124e-08
1.47439e-05
-7.20824e-08
1.47609e-05
-7.19687e-08
1.47771e-05
-7.10055e-08
1.47924e-05
-6.94612e-08
1.48069e-05
-6.75479e-08
1.48205e-05
-6.54114e-08
1.48332e-05
-6.3139e-08
1.4845e-05
-6.0785e-08
1.4856e-05
-5.83816e-08
1.4866e-05
-5.59277e-08
-5.33686e-08
1.48751e-05
1.27439e-05
-1.51277e-08
1.27531e-05
-4.06575e-08
1.27659e-05
-5.88491e-08
1.27813e-05
-7.16254e-08
1.2798e-05
-8.02592e-08
1.28151e-05
-8.54571e-08
1.2832e-05
-8.79536e-08
1.28484e-05
-8.84953e-08
1.28641e-05
-8.76616e-08
1.2879e-05
-8.58635e-08
1.28929e-05
-8.34179e-08
1.2906e-05
-8.05889e-08
1.29181e-05
-7.75305e-08
1.29293e-05
-7.43045e-08
1.29395e-05
-7.09745e-08
1.29487e-05
-6.76102e-08
1.2957e-05
-6.42023e-08
-6.07306e-08
1.29643e-05
1.10954e-05
-1.96419e-08
1.11057e-05
-5.08823e-08
1.11193e-05
-7.24881e-08
1.1135e-05
-8.72715e-08
1.11515e-05
-9.67972e-08
1.11681e-05
-1.02039e-07
1.11842e-05
-1.04057e-07
1.11996e-05
-1.0389e-07
1.12141e-05
-1.02188e-07
1.12276e-05
-9.93803e-08
1.124e-05
-9.58337e-08
1.12513e-05
-9.19046e-08
1.12615e-05
-8.77217e-08
1.12706e-05
-8.3328e-08
1.12784e-05
-7.88585e-08
1.12853e-05
-7.44538e-08
1.12912e-05
-7.01461e-08
-6.59424e-08
1.12964e-05
9.66078e-06
-2.52046e-08
9.67228e-06
-6.2388e-08
9.68665e-06
-8.68509e-08
9.70253e-06
-1.03152e-07
9.71883e-06
-1.13103e-07
9.73474e-06
-1.17942e-07
9.74976e-06
-1.19084e-07
9.76375e-06
-1.17878e-07
9.77649e-06
-1.14928e-07
9.78784e-06
-1.10731e-07
9.79779e-06
-1.05779e-07
9.80639e-06
-1.00504e-07
9.81375e-06
-9.50846e-08
9.82007e-06
-8.96498e-08
9.82551e-06
-8.43004e-08
9.83021e-06
-7.91537e-08
9.83436e-06
-7.42933e-08
-6.96944e-08
9.83811e-06
8.4122e-06
-3.2053e-08
8.42503e-06
-7.52194e-08
8.43993e-06
-1.01747e-07
8.45564e-06
-1.18865e-07
8.4711e-06
-1.28565e-07
8.48555e-06
-1.32385e-07
8.49859e-06
-1.32123e-07
8.51002e-06
-1.29309e-07
8.51987e-06
-1.24778e-07
8.52834e-06
-1.19204e-07
8.53562e-06
-1.13063e-07
8.5418e-06
-1.06681e-07
8.54708e-06
-1.00367e-07
8.55173e-06
-9.42983e-08
8.55587e-06
-8.84434e-08
8.55956e-06
-8.28368e-08
8.56283e-06
-7.75697e-08
-7.26403e-08
8.56578e-06
7.32584e-06
-4.06073e-08
7.33976e-06
-8.91367e-08
7.35449e-06
-1.1648e-07
7.3688e-06
-1.33174e-07
7.38218e-06
-1.41951e-07
7.39418e-06
-1.4438e-07
7.40465e-06
-1.42596e-07
7.41346e-06
-1.38119e-07
7.42095e-06
-1.3227e-07
7.42746e-06
-1.25705e-07
7.43316e-06
-1.18765e-07
7.4381e-06
-1.11618e-07
7.44238e-06
-1.04648e-07
7.44609e-06
-9.80095e-08
7.44934e-06
-9.16951e-08
7.4522e-06
-8.56998e-08
7.45469e-06
-8.00601e-08
-7.48197e-08
7.45687e-06
6.38079e-06
-5.13275e-08
6.39481e-06
-1.03157e-07
6.40818e-06
-1.29858e-07
6.42039e-06
-1.4538e-07
6.43154e-06
-1.531e-07
6.44134e-06
-1.5418e-07
6.44985e-06
-1.51108e-07
6.45703e-06
-1.45298e-07
6.4631e-06
-1.38336e-07
6.4682e-06
-1.30806e-07
6.47251e-06
-1.23078e-07
6.47616e-06
-1.15269e-07
6.4792e-06
-1.07692e-07
6.48169e-06
-1.00497e-07
6.48368e-06
-9.36812e-08
6.48529e-06
-8.73132e-08
6.48652e-06
-8.1292e-08
-7.5725e-08
6.48743e-06
5.55859e-06
-6.44482e-08
5.57163e-06
-1.16205e-07
5.58326e-06
-1.41482e-07
5.5941e-06
-1.56227e-07
5.60354e-06
-1.62541e-07
5.61099e-06
-1.61629e-07
5.61666e-06
-1.56778e-07
5.62072e-06
-1.49355e-07
5.62324e-06
-1.40853e-07
5.62432e-06
-1.31887e-07
5.62417e-06
-1.22931e-07
5.62303e-06
-1.14127e-07
5.62103e-06
-1.05694e-07
5.61833e-06
-9.77933e-08
5.61501e-06
-9.03625e-08
5.61126e-06
-8.3566e-08
5.60715e-06
-7.71855e-08
-7.13536e-08
5.60278e-06
4.8439e-06
-8.07431e-08
4.85526e-06
-1.27566e-07
4.86128e-06
-1.47495e-07
4.86053e-06
-1.55482e-07
4.85136e-06
-1.53374e-07
4.83445e-06
-1.44718e-07
4.81176e-06
-1.34083e-07
4.78495e-06
-1.22545e-07
4.75525e-06
-1.11158e-07
4.72383e-06
-1.0047e-07
4.69154e-06
-9.06384e-08
4.65907e-06
-8.16543e-08
4.6269e-06
-7.35254e-08
4.59535e-06
-6.62384e-08
4.56465e-06
-5.96705e-08
4.53495e-06
-5.38576e-08
4.50636e-06
-4.86022e-08
-4.41599e-08
4.47917e-06
4.12193e-06
3.99437e-06
3.84687e-06
3.69139e-06
3.53802e-06
3.3933e-06
3.25922e-06
3.13667e-06
3.02551e-06
2.92504e-06
2.8344e-06
2.75275e-06
2.67922e-06
2.61299e-06
2.55332e-06
2.49946e-06
2.45086e-06
2.4067e-06
-1.21574e-07
1.21574e-07
-2.39753e-07
1.18179e-07
-3.03877e-07
6.41234e-08
-2.97436e-07
-6.44087e-09
-2.23698e-07
-7.37376e-08
-8.28029e-08
-1.40895e-07
1.17738e-07
-2.00541e-07
3.65865e-07
-2.48127e-07
6.47968e-07
-2.82103e-07
9.50263e-07
-3.02295e-07
1.26035e-06
-3.10089e-07
1.56778e-06
-3.07432e-07
1.86435e-06
-2.96569e-07
2.14395e-06
-2.79594e-07
2.40195e-06
-2.58003e-07
2.63503e-06
-2.33081e-07
2.84079e-06
-2.0576e-07
3.01776e-06
-1.7697e-07
3.16545e-06
-1.47691e-07
3.28406e-06
-1.1861e-07
3.37444e-06
-9.03807e-08
3.43783e-06
-6.33849e-08
3.47559e-06
-3.77659e-08
3.48891e-06
-1.33165e-08
3.4785e-06
1.04155e-08
3.44565e-06
3.28435e-08
3.39091e-06
5.47455e-08
3.3149e-06
7.60049e-08
3.21799e-06
9.69072e-08
3.09989e-06
1.181e-07
2.95966e-06
1.40237e-07
2.79604e-06
1.63615e-07
2.60911e-06
1.86929e-07
2.39997e-06
2.0914e-07
2.16759e-06
2.32383e-07
1.91561e-06
2.51983e-07
1.66579e-06
2.49815e-07
1.45031e-06
2.15481e-07
1.28851e-06
1.61799e-07
1.17902e-06
1.09496e-07
1.10721e-06
7.18085e-08
1.0528e-06
5.44121e-08
9.98459e-07
5.43382e-08
9.38725e-07
5.97336e-08
8.80305e-07
5.84202e-08
8.3109e-07
4.92151e-08
7.87568e-07
4.35225e-08
7.39818e-07
4.77499e-08
6.94956e-07
4.48619e-08
6.73748e-07
2.12074e-08
7.19926e-07
-4.61779e-08
8.73443e-07
-1.53516e-07
1.07299e-06
-1.99546e-07
1.23644e-06
-1.63454e-07
1.36873e-06
-1.32291e-07
1.50713e-06
-1.384e-07
1.68081e-06
-1.73681e-07
1.84803e-06
-1.67216e-07
1.91056e-06
-6.25287e-08
1.85264e-06
5.79217e-08
1.6994e-06
1.53238e-07
1.37446e-06
3.24938e-07
8.01119e-07
5.73342e-07
1.47836e-07
6.53282e-07
-4.91804e-07
6.3964e-07
-1.12267e-06
6.30869e-07
-1.73947e-06
6.16797e-07
-2.33713e-06
5.97662e-07
-2.9099e-06
5.72768e-07
-3.45483e-06
5.44925e-07
-3.96927e-06
5.1444e-07
-4.45169e-06
4.82428e-07
-4.90129e-06
4.496e-07
-5.31695e-06
4.15659e-07
-5.69843e-06
3.81475e-07
-6.04481e-06
3.46382e-07
-6.35572e-06
3.10911e-07
-6.63065e-06
2.74929e-07
-6.86949e-06
2.38845e-07
-7.07209e-06
2.02598e-07
-7.23847e-06
1.66379e-07
-7.3687e-06
1.30232e-07
-7.46291e-06
9.42038e-08
-7.52158e-06
5.86713e-08
-7.54498e-06
2.34031e-08
-7.53599e-06
-8.98855e-09
-7.49689e-06
-3.91067e-08
-7.42907e-06
-6.78125e-08
-7.33479e-06
-9.42859e-08
-7.21634e-06
-1.18449e-07
-7.07635e-06
-1.39991e-07
-6.91768e-06
-1.58667e-07
-6.74343e-06
-1.74255e-07
-6.55681e-06
-1.8662e-07
-6.36106e-06
-1.95745e-07
-6.15939e-06
-2.01674e-07
-5.95475e-06
-2.04632e-07
-5.74989e-06
-2.04863e-07
-5.54713e-06
-2.02765e-07
-5.34829e-06
-1.98834e-07
-5.15464e-06
-1.93651e-07
-4.96695e-06
-1.87692e-07
-4.78553e-06
-1.8142e-07
-4.61016e-06
-1.75369e-07
-4.44017e-06
-1.69986e-07
-4.27458e-06
-1.65592e-07
-4.11208e-06
-1.62506e-07
-3.95119e-06
-1.60886e-07
-3.79059e-06
-1.606e-07
-3.62921e-06
-1.61378e-07
-3.46622e-06
-1.62988e-07
-3.30106e-06
-1.6516e-07
-3.13334e-06
-1.67724e-07
-2.96288e-06
-1.70462e-07
-2.78976e-06
-1.73121e-07
-2.61414e-06
-1.75614e-07
-2.43633e-06
-1.77811e-07
-2.25677e-06
-1.79564e-07
-2.07597e-06
-1.80792e-07
-1.89449e-06
-1.81487e-07
-1.71286e-06
-1.81633e-07
-1.53164e-06
-1.81217e-07
-1.35144e-06
-1.80197e-07
-1.17286e-06
-1.78578e-07
-9.96495e-07
-1.76368e-07
-8.22933e-07
-1.73562e-07
-6.52877e-07
-1.70056e-07
-4.87069e-07
-1.65809e-07
-3.2625e-07
-1.60818e-07
-1.71072e-07
-1.55178e-07
-2.21243e-08
-1.48948e-07
1.20097e-07
-1.42221e-07
2.55195e-07
-1.35098e-07
3.82739e-07
-1.27544e-07
5.02504e-07
-1.19765e-07
6.14619e-07
-1.12115e-07
7.19544e-07
-1.04926e-07
8.17984e-07
-9.84401e-08
9.10856e-07
-9.28717e-08
9.99351e-07
-8.8495e-08
1.0849e-06
-8.5553e-08
1.16921e-06
-8.43031e-08
1.25423e-06
-8.50261e-08
1.34221e-06
-8.798e-08
1.4357e-06
-9.34828e-08
1.53725e-06
-1.0155e-07
1.64922e-06
-1.11976e-07
1.77405e-06
-1.2483e-07
1.91443e-06
-1.40379e-07
2.07316e-06
-1.58728e-07
2.25263e-06
-1.79468e-07
2.4539e-06
-2.01274e-07
2.67592e-06
-2.22019e-07
2.91522e-06
-2.39303e-07
3.16644e-06
-2.51216e-07
3.42322e-06
-2.56779e-07
3.67872e-06
-2.55499e-07
3.92601e-06
-2.47289e-07
4.15969e-06
-2.33685e-07
4.37673e-06
-2.1704e-07
4.57369e-06
-1.96963e-07
4.745e-06
-1.7131e-07
4.88918e-06
-1.44177e-07
5.00222e-06
-1.13044e-07
5.0611e-06
-5.88722e-08
5.0471e-06
1.3994e-08
4.88548e-06
1.61619e-07
4.3767e-06
5.08779e-07
3.4448e-06
9.31902e-07
2.38243e-06
1.06237e-06
1.57496e-06
8.07474e-07
1.18468e-06
3.90275e-07
1.08487e-06
9.98119e-08
1.05413e-06
3.07372e-08
9.95188e-07
5.89438e-08
9.24867e-07
7.03213e-08
8.73609e-07
5.12578e-08
8.5696e-07
1.66492e-08
8.28697e-07
2.82629e-08
3.61411e-08
7.92556e-07
6.52645e-08
5.63098e-08
1.08487e-07
7.49568e-08
1.55058e-07
1.75521e-08
2.55596e-07
-1.06979e-07
4.37585e-07
-2.55727e-07
6.93221e-07
-3.96531e-07
1.00291e-06
-5.10232e-07
1.34481e-06
-5.90024e-07
1.69972e-06
-6.37015e-07
2.05335e-06
-6.55927e-07
2.39579e-06
-6.52529e-07
2.72012e-06
-6.31762e-07
3.02145e-06
-5.97898e-07
3.29616e-06
-5.543e-07
3.54177e-06
-5.03617e-07
3.75677e-06
-4.48078e-07
3.94043e-06
-3.89416e-07
4.09245e-06
-3.29e-07
4.21302e-06
-2.68255e-07
4.30272e-06
-2.08309e-07
4.36268e-06
-1.50347e-07
4.39447e-06
-9.51736e-08
4.4006e-06
-4.38887e-08
4.38679e-06
4.91355e-10
4.34926e-06
4.79458e-08
4.2943e-06
8.78012e-08
4.22471e-06
1.2433e-07
4.14237e-06
1.58347e-07
4.04851e-06
1.90773e-07
3.94402e-06
2.22589e-07
3.82955e-06
2.54707e-07
3.70492e-06
2.88242e-07
3.56928e-06
3.22565e-07
3.42278e-06
3.5564e-07
3.26766e-06
3.87509e-07
3.10443e-06
4.15212e-07
2.92518e-06
4.29069e-07
2.71605e-06
4.24603e-07
2.47241e-06
4.05445e-07
2.21041e-06
3.71496e-07
1.95968e-06
3.22537e-07
1.74181e-06
2.72282e-07
1.56121e-06
2.34932e-07
1.41981e-06
2.01137e-07
1.32591e-06
1.52317e-07
1.27829e-06
9.68402e-08
1.25524e-06
6.65741e-08
1.23004e-06
7.2946e-08
1.18208e-06
9.28217e-08
1.10483e-06
9.84638e-08
1.03313e-06
2.55128e-08
9.86489e-07
-1.06871e-07
9.30411e-07
-1.43468e-07
9.28553e-07
-1.61596e-07
1.03653e-06
-2.40273e-07
1.14885e-06
-2.50718e-07
1.1072e-06
-1.32024e-07
8.72476e-07
6.75046e-08
4.24082e-07
3.85865e-07
-2.01514e-07
6.83518e-07
-9.23694e-07
8.75418e-07
-1.62259e-06
1.02383e-06
-2.2054e-06
1.15615e-06
-2.75579e-06
1.20368e-06
-3.31045e-06
1.1943e-06
-3.83686e-06
1.15728e-06
-4.32629e-06
1.10622e-06
-4.77608e-06
1.04745e-06
-5.18778e-06
9.84473e-07
-5.56276e-06
9.19898e-07
-5.90307e-06
8.54752e-07
-6.21063e-06
7.89989e-07
-6.48724e-06
7.26208e-07
-6.73468e-06
6.631e-07
-6.95437e-06
6.01163e-07
-7.14768e-06
5.39701e-07
-7.31574e-06
4.78963e-07
-7.45921e-06
4.18406e-07
-7.57852e-06
3.58155e-07
-7.67374e-06
2.97815e-07
-7.74475e-06
2.37392e-07
-7.79142e-06
1.76901e-07
-7.81369e-06
1.16473e-07
-7.81114e-06
5.61222e-08
-7.78423e-06
-3.51028e-09
-7.73157e-06
-6.16513e-08
-7.65255e-06
-1.18127e-07
-7.54827e-06
-1.72088e-07
-7.42002e-06
-2.2254e-07
-7.26976e-06
-2.68706e-07
-7.09986e-06
-3.09894e-07
-6.91296e-06
-3.45559e-07
-6.71191e-06
-3.75308e-07
-6.49963e-06
-3.98896e-07
-6.27908e-06
-4.16297e-07
-6.05314e-06
-4.27617e-07
-5.82468e-06
-4.33091e-07
-5.59639e-06
-4.33158e-07
-5.37078e-06
-4.28373e-07
-5.1498e-06
-4.19809e-07
-4.93491e-06
-4.08542e-07
-4.727e-06
-3.95607e-07
-4.52638e-06
-3.82036e-07
-4.33289e-06
-3.68861e-07
-4.14585e-06
-3.5702e-07
-3.96431e-06
-3.47138e-07
-3.78699e-06
-3.39823e-07
-3.61242e-06
-3.35454e-07
-3.43914e-06
-3.33881e-07
-3.26593e-06
-3.34586e-07
-3.09188e-06
-3.37046e-07
-2.91621e-06
-3.40826e-07
-2.73845e-06
-3.45485e-07
-2.55839e-06
-3.50521e-07
-2.37605e-06
-3.55467e-07
-2.1916e-06
-3.60055e-07
-2.00537e-06
-3.64045e-07
-1.81769e-06
-3.67244e-07
-1.62913e-06
-3.69354e-07
-1.4403e-06
-3.70311e-07
-1.2518e-06
-3.7014e-07
-1.06427e-06
-3.68748e-07
-8.78406e-07
-3.66056e-07
-6.94953e-07
-3.6203e-07
-5.14648e-07
-3.56674e-07
-3.38222e-07
-3.49987e-07
-1.66504e-07
-3.41774e-07
-3.84348e-10
-3.31928e-07
1.59358e-07
-3.20561e-07
3.12003e-07
-3.07823e-07
4.56969e-07
-2.93914e-07
5.93869e-07
-2.79121e-07
7.22479e-07
-2.63708e-07
8.4285e-07
-2.47915e-07
9.55275e-07
-2.3219e-07
1.06018e-06
-2.17025e-07
1.15819e-06
-2.02934e-07
1.25015e-06
-1.90397e-07
1.33713e-06
-1.79848e-07
1.42042e-06
-1.7179e-07
1.50158e-06
-1.66707e-07
1.58236e-06
-1.6509e-07
1.66476e-06
-1.67424e-07
1.75099e-06
-1.74211e-07
1.84354e-06
-1.86036e-07
1.94494e-06
-2.02945e-07
2.05765e-06
-2.24684e-07
2.18419e-06
-2.51368e-07
2.32724e-06
-2.83436e-07
2.48971e-06
-3.2119e-07
2.6742e-06
-3.63966e-07
2.88222e-06
-4.09287e-07
3.11317e-06
-4.52976e-07
3.36411e-06
-4.90242e-07
3.6302e-06
-5.17303e-07
3.90522e-06
-5.31799e-07
4.18213e-06
-5.3241e-07
4.45453e-06
-5.19688e-07
4.71717e-06
-4.96321e-07
4.96517e-06
-4.65041e-07
5.19438e-06
-4.26176e-07
5.40278e-06
-3.79714e-07
5.58767e-06
-3.29067e-07
5.74335e-06
-2.68716e-07
5.8642e-06
-1.79725e-07
5.94601e-06
-6.78158e-08
6.00944e-06
9.81909e-08
6.06284e-06
4.55373e-07
6.01417e-06
9.80576e-07
5.77047e-06
1.30608e-06
5.35259e-06
1.22535e-06
4.77588e-06
9.66985e-07
4.06161e-06
8.14087e-07
3.35315e-06
7.39196e-07
2.79947e-06
6.12626e-07
2.44869e-06
4.21098e-07
2.24793e-06
2.52017e-07
2.14757e-06
1.1701e-07
2.10402e-06
7.18082e-08
5.95881e-08
2.08058e-06
5.87213e-08
-2.41151e-09
1.25476e-07
8.20237e-09
2.84544e-07
-1.41517e-07
5.58778e-07
-3.81213e-07
9.19147e-07
-6.16097e-07
1.31911e-06
-7.96496e-07
1.7215e-06
-9.12622e-07
2.10496e-06
-9.73486e-07
2.46007e-06
-9.92124e-07
2.78409e-06
-9.79948e-07
3.07741e-06
-9.45845e-07
3.34155e-06
-8.95902e-07
3.57809e-06
-8.34439e-07
3.78829e-06
-7.64502e-07
3.97298e-06
-6.88302e-07
4.13232e-06
-6.07422e-07
4.26622e-06
-5.23317e-07
4.37465e-06
-4.37429e-07
4.45754e-06
-3.51147e-07
4.51525e-06
-2.66018e-07
4.5486e-06
-1.83691e-07
4.55908e-06
-1.05658e-07
4.54884e-06
-3.36493e-08
4.51451e-06
3.4821e-08
4.46478e-06
9.76751e-08
4.39908e-06
1.535e-07
4.32015e-06
2.03268e-07
4.23038e-06
2.48115e-07
4.13194e-06
2.89207e-07
4.02673e-06
3.27808e-07
3.91604e-06
3.65388e-07
3.80121e-06
4.03072e-07
3.68333e-06
4.40449e-07
3.56265e-06
4.76315e-07
3.43934e-06
5.10821e-07
3.31126e-06
5.43298e-07
3.17109e-06
5.69236e-07
3.01144e-06
5.84256e-07
2.82962e-06
5.87259e-07
2.62624e-06
5.74877e-07
2.40511e-06
5.4367e-07
2.17476e-06
5.02631e-07
1.95033e-06
4.59368e-07
1.75675e-06
3.94713e-07
1.6151e-06
2.93963e-07
1.51663e-06
1.95309e-07
1.42913e-06
1.54078e-07
1.33112e-06
1.70955e-07
1.21031e-06
2.13632e-07
1.06627e-06
2.42506e-07
9.20786e-07
1.70995e-07
7.56738e-07
5.71766e-08
6.22454e-07
-9.1827e-09
5.64164e-07
-1.03307e-07
4.07326e-07
-8.34341e-08
3.73992e-08
1.19209e-07
-5.31005e-07
4.3638e-07
-1.19386e-06
7.30357e-07
-1.80789e-06
9.99899e-07
-2.3566e-06
1.23223e-06
-2.87295e-06
1.39176e-06
-3.34402e-06
1.49491e-06
-3.73351e-06
1.54564e-06
-4.077e-06
1.54716e-06
-4.39838e-06
1.51568e-06
-4.70142e-06
1.46032e-06
-4.98688e-06
1.39168e-06
-5.25501e-06
1.31558e-06
-5.50708e-06
1.23654e-06
-5.74407e-06
1.15689e-06
-5.96714e-06
1.07782e-06
-6.17705e-06
9.99897e-07
-6.37392e-06
9.23082e-07
-6.55795e-06
8.47132e-07
-6.72846e-06
7.71666e-07
-6.88512e-06
6.9636e-07
-7.0267e-06
6.20542e-07
-7.15211e-06
5.43819e-07
-7.25973e-06
4.65772e-07
-7.3479e-06
3.85985e-07
-7.41488e-06
3.0438e-07
-7.45898e-06
2.21002e-07
-7.47865e-06
1.36137e-07
-7.47281e-06
5.02802e-08
-7.44061e-06
-3.57075e-08
-7.3815e-06
-1.20763e-07
-7.29593e-06
-2.0369e-07
-7.18489e-06
-2.83131e-07
-7.04974e-06
-3.57695e-07
-6.89234e-06
-4.26098e-07
-6.71504e-06
-4.87195e-07
-6.52053e-06
-5.40077e-07
-6.31173e-06
-5.84102e-07
-6.09172e-06
-6.18911e-07
-5.86357e-06
-6.44445e-07
-5.6303e-06
-6.60889e-07
-5.39484e-06
-6.68547e-07
-5.15986e-06
-6.68135e-07
-4.92785e-06
-6.60386e-07
-4.70078e-06
-6.46883e-07
-4.48004e-06
-6.29277e-07
-4.26665e-06
-6.08998e-07
-4.06114e-06
-5.87551e-07
-3.86354e-06
-5.6646e-07
-3.67335e-06
-5.47214e-07
-3.4896e-06
-5.30886e-07
-3.31101e-06
-5.18411e-07
-3.13605e-06
-5.10414e-07
-2.96318e-06
-5.06753e-07
-2.79104e-06
-5.06726e-07
-2.61859e-06
-5.09499e-07
-2.44496e-06
-5.14448e-07
-2.26956e-06
-5.20885e-07
-2.09205e-06
-5.28032e-07
-1.91231e-06
-5.35214e-07
-1.73037e-06
-5.41995e-07
-1.54646e-06
-5.47954e-07
-1.3609e-06
-5.528e-07
-1.17399e-06
-5.56262e-07
-9.86193e-07
-5.58112e-07
-7.98036e-07
-5.58297e-07
-6.10118e-07
-5.56666e-07
-4.23115e-07
-5.5306e-07
-2.37783e-07
-5.47362e-07
-5.49186e-08
-5.39538e-07
1.24633e-07
-5.2954e-07
2.99813e-07
-5.16954e-07
4.69451e-07
-5.01566e-07
6.32463e-07
-4.83573e-07
7.87806e-07
-4.63166e-07
9.34604e-07
-4.40711e-07
1.07225e-06
-4.16764e-07
1.2003e-06
-3.91761e-07
1.31855e-06
-3.66169e-07
1.42714e-06
-3.40774e-07
1.52652e-06
-3.16402e-07
1.61738e-06
-2.93794e-07
1.70069e-06
-2.73708e-07
1.77776e-06
-2.56923e-07
1.85018e-06
-2.44212e-07
1.91979e-06
-2.36317e-07
1.98864e-06
-2.3394e-07
2.05889e-06
-2.37668e-07
2.13277e-06
-2.48095e-07
2.21261e-06
-2.6588e-07
2.30097e-06
-2.91299e-07
2.4006e-06
-3.24313e-07
2.51424e-06
-3.65006e-07
2.64464e-06
-4.13842e-07
2.79476e-06
-4.71305e-07
2.96742e-06
-5.36634e-07
3.1645e-06
-6.06363e-07
3.3857e-06
-6.7418e-07
3.62827e-06
-7.32805e-07
3.88754e-06
-7.76572e-07
4.15735e-06
-8.01612e-07
4.43067e-06
-8.05734e-07
4.70077e-06
-7.8979e-07
4.96179e-06
-7.57339e-07
5.20896e-06
-7.12205e-07
5.43898e-06
-6.56203e-07
5.64962e-06
-5.90354e-07
5.83778e-06
-5.17223e-07
6.00118e-06
-4.32116e-07
6.1388e-06
-3.17345e-07
6.24469e-06
-1.73706e-07
6.33315e-06
9.72608e-09
6.45711e-06
3.31416e-07
6.63283e-06
8.04856e-07
6.76331e-06
1.1756e-06
6.73736e-06
1.2513e-06
6.53334e-06
1.171e-06
6.17772e-06
1.16971e-06
5.67481e-06
1.24211e-06
5.03792e-06
1.24952e-06
4.34778e-06
1.11123e-06
3.73724e-06
8.62562e-07
3.29598e-06
5.58273e-07
3.0319e-06
3.35878e-07
2.03722e-07
2.88777e-06
-3.01979e-08
2.77864e-08
1.30061e-07
-1.52056e-07
5.17417e-07
-5.28873e-07
1.00196e-06
-8.65757e-07
1.47307e-06
-1.08721e-06
1.88217e-06
-1.2056e-06
2.22142e-06
-1.25187e-06
2.49939e-06
-1.25146e-06
2.72897e-06
-1.2217e-06
2.92273e-06
-1.17371e-06
3.0907e-06
-1.11381e-06
3.24022e-06
-1.04542e-06
3.3757e-06
-9.69921e-07
3.49932e-06
-8.88117e-07
3.6114e-06
-8.00382e-07
3.71102e-06
-7.07041e-07
3.79681e-06
-6.09109e-07
3.86731e-06
-5.07928e-07
3.92127e-06
-4.05112e-07
3.95811e-06
-3.02851e-07
3.97778e-06
-2.03365e-07
3.98072e-06
-1.08601e-07
3.96908e-06
-2.2011e-08
3.94292e-06
6.09858e-08
3.90668e-06
1.33913e-07
3.86186e-06
1.98325e-07
3.81015e-06
2.54975e-07
3.75296e-06
3.05306e-07
3.69139e-06
3.50772e-07
3.62571e-06
3.93489e-07
3.55528e-06
4.35816e-07
3.4799e-06
4.78455e-07
3.39994e-06
5.20407e-07
3.31553e-06
5.60726e-07
3.22695e-06
5.99406e-07
3.13386e-06
6.36384e-07
3.03311e-06
6.69989e-07
2.91962e-06
6.97742e-07
2.79053e-06
7.16355e-07
2.64535e-06
7.20054e-07
2.4815e-06
7.07514e-07
2.29788e-06
6.86259e-07
2.10854e-06
6.487e-07
1.93684e-06
5.66422e-07
1.78548e-06
4.45319e-07
1.63159e-06
3.492e-07
1.46006e-06
3.2561e-07
1.27688e-06
3.54138e-07
1.08397e-06
4.06536e-07
8.84103e-07
4.42374e-07
6.75957e-07
3.79141e-07
4.52279e-07
2.80854e-07
2.5049e-07
1.92607e-07
-6.22692e-08
2.09452e-07
-5.90807e-07
4.45103e-07
-1.23002e-06
7.58419e-07
-1.84051e-06
1.04687e-06
-2.40424e-06
1.29408e-06
-2.89572e-06
1.49138e-06
-3.29594e-06
1.63245e-06
-3.62834e-06
1.72417e-06
-3.90843e-06
1.77499e-06
-4.14736e-06
1.78458e-06
-4.36175e-06
1.76155e-06
-4.56235e-06
1.71629e-06
-4.75687e-06
1.65484e-06
-4.94899e-06
1.58381e-06
-5.13986e-06
1.50644e-06
-5.32948e-06
1.42616e-06
-5.51734e-06
1.34474e-06
-5.70232e-06
1.26281e-06
-5.88343e-06
1.18101e-06
-6.05922e-06
1.09887e-06
-6.22821e-06
1.01612e-06
-6.38859e-06
9.3205e-07
-6.53844e-06
8.46213e-07
-6.67564e-06
7.57737e-07
-6.798e-06
6.66181e-07
-6.90325e-06
5.71019e-07
-6.98915e-06
4.71883e-07
-7.0535e-06
3.68736e-07
-7.09421e-06
2.61708e-07
-7.10944e-06
1.51365e-07
-7.09782e-06
3.86671e-08
-7.05847e-06
-7.50571e-08
-6.99105e-06
-1.8819e-07
-6.89591e-06
-2.98828e-07
-6.77403e-06
-4.0501e-07
-6.62694e-06
-5.04784e-07
-6.4567e-06
-5.96335e-07
-6.26585e-06
-6.7805e-07
-6.05736e-06
-7.48565e-07
-5.83446e-06
-8.07e-07
-5.60056e-06
-8.52813e-07
-5.35904e-06
-8.85964e-07
-5.11314e-06
-9.06789e-07
-4.86595e-06
-9.15735e-07
-4.62022e-06
-9.13869e-07
-4.37804e-06
-9.02559e-07
-4.14144e-06
-8.83482e-07
-3.9119e-06
-8.58818e-07
-3.69044e-06
-8.30459e-07
-3.47762e-06
-8.00369e-07
-3.27353e-06
-7.70551e-07
-3.07772e-06
-7.4303e-07
-2.88925e-06
-7.19354e-07
-2.70702e-06
-7.00634e-07
-2.52978e-06
-6.87663e-07
-2.35616e-06
-6.80366e-07
-2.1849e-06
-6.77989e-07
-2.0149e-06
-6.79493e-07
-1.84532e-06
-6.8403e-07
-1.67535e-06
-6.90858e-07
-1.5043e-06
-6.99084e-07
-1.33187e-06