/*--------------------------------*- C++ -*----------------------------------*\
| =========                 |                                                 |
| \\      /  F ield         | OpenFOAM: The Open Source CFD Toolbox           |
|  \\    /   O peration     | Version:  2112                                  |
|   \\  /    A nd           | Website:  www.openfoam.com                      |
|    \\/     M anipulation  |                                                 |
\*---------------------------------------------------------------------------*/
FoamFile
{
    version     2.0;
    format      ascii;
    arch        "LSB;label=32;scalar=64";
    class       volScalarField;
    location    "0.06";
    object      k_0;
}
// * * * * * * * * * * * * * * * * * * * * * * * * * * * * * * * * * * * * * //

dimensions      [0 2 -2 0 0 0 0];

internalField   nonuniform List<scalar> 
12225
(
0.535045
0.804685
0.988844
1.09674
1.15171
1.17051
1.16725
1.15679
1.13662
1.11187
1.08793
1.06135
1.03933
1.01337
0.995469
0.970356
0.95735
0.929462
0.378397
0.385954
0.391242
0.394524
0.396625
0.398318
0.399577
0.401815
0.404476
0.409316
0.413698
0.421662
0.428413
0.439373
0.448443
0.461826
0.473341
0.487578
0.375174
0.37442
0.372405
0.368384
0.363765
0.358024
0.352542
0.34648
0.341316
0.335871
0.331663
0.327396
0.324417
0.321601
0.319963
0.318545
0.318422
0.318951
0.375056
0.37458
0.373489
0.371366
0.368938
0.365731
0.362593
0.358791
0.355411
0.3514
0.348099
0.344188
0.341163
0.337563
0.334923
0.331745
0.329587
0.3269
0.375065
0.374808
0.37421
0.373048
0.371701
0.369942
0.368165
0.366025
0.364018
0.36167
0.359588
0.357172
0.355132
0.352738
0.350833
0.348497
0.346825
0.344544
0.37507
0.374923
0.374555
0.373842
0.372998
0.371929
0.370812
0.369506
0.368219
0.36677
0.365397
0.363879
0.362491
0.360949
0.359608
0.358058
0.356835
0.355261
0.37506
0.374971
0.374726
0.374251
0.373675
0.372968
0.372207
0.371343
0.37046
0.369496
0.368542
0.367524
0.366543
0.365502
0.36453
0.363478
0.362566
0.361483
0.375038
0.374982
0.374811
0.374476
0.374062
0.373563
0.373017
0.372408
0.371771
0.371089
0.370396
0.369673
0.368954
0.368211
0.36749
0.366742
0.36605
0.36528
0.375014
0.374972
0.374845
0.3746
0.374293
0.373926
0.37352
0.37307
0.372594
0.372089
0.371569
0.371032
0.370489
0.369936
0.369388
0.368833
0.368301
0.367735
0.374993
0.374948
0.374847
0.374664
0.374431
0.374154
0.373844
0.373502
0.373137
0.372751
0.372351
0.371939
0.37152
0.371096
0.370672
0.370247
0.369832
0.369403
0.374972
0.374915
0.374827
0.374687
0.374508
0.374295
0.374055
0.37379
0.373506
0.373205
0.372892
0.37257
0.372241
0.371908
0.371575
0.371242
0.370916
0.370583
0.374955
0.374881
0.374798
0.374683
0.374539
0.37437
0.374178
0.373966
0.373737
0.373495
0.373243
0.372982
0.372716
0.372446
0.372176
0.371906
0.371641
0.371373
0.37494
0.374847
0.374761
0.374662
0.374545
0.37441
0.374256
0.374086
0.373903
0.373707
0.373503
0.373292
0.373075
0.372856
0.372636
0.372417
0.372199
0.371981
0.374927
0.374811
0.374716
0.374625
0.374528
0.374421
0.374301
0.374169
0.374026
0.373874
0.373714
0.373547
0.373377
0.373203
0.373029
0.372855
0.372681
0.372507
0.374915
0.374776
0.374667
0.374575
0.374489
0.374402
0.374309
0.37421
0.374103
0.373989
0.373869
0.373743
0.373613
0.373481
0.373347
0.373212
0.373077
0.372941
0.374907
0.374746
0.374619
0.374518
0.374434
0.374358
0.374285
0.37421
0.374133
0.374051
0.373964
0.373874
0.37378
0.373683
0.373584
0.373484
0.373382
0.373278
0.374901
0.374724
0.37458
0.374466
0.374375
0.374302
0.374238
0.374179
0.374122
0.374063
0.374003
0.373941
0.373875
0.373807
0.373737
0.373664
0.373589
0.373512
0.374897
0.37471
0.374554
0.374429
0.37433
0.374253
0.37419
0.374137
0.374089
0.374044
0.373998
0.373952
0.373905
0.373855
0.373803
0.373748
0.373692
0.373633
0.374896
0.374706
0.374547
0.374418
0.374315
0.374234
0.374167
0.37411
0.374059
0.374011
0.373964
0.373917
0.373869
0.37382
0.373769
0.373717
0.373663
0.373608
0.374898
0.374715
0.374564
0.374441
0.374338
0.37425
0.374171
0.374097
0.374025
0.373954
0.373882
0.37381
0.373736
0.373661
0.373585
0.373509
0.373432
0.373355
0.374903
0.374734
0.374594
0.374474
0.374364
0.37426
0.374156
0.374052
0.373945
0.373836
0.373725
0.373612
0.373497
0.373381
0.373265
0.373149
0.373033
0.372919
0.374913
0.374763
0.37463
0.374501
0.374369
0.37423
0.374083
0.37393
0.373769
0.373604
0.373434
0.373261
0.373086
0.372909
0.372733
0.372557
0.372382
0.372211
0.374928
0.374797
0.374659
0.374501
0.374323
0.374126
0.373912
0.373685
0.373445
0.373196
0.372941
0.37268
0.372417
0.372152
0.371887
0.371622
0.37136
0.371104
0.374949
0.374829
0.374663
0.37445
0.374193
0.373903
0.373584
0.373242
0.372881
0.372504
0.372117
0.371722
0.371322
0.37092
0.370517
0.370117
0.369718
0.369331
0.374971
0.374846
0.374623
0.374311
0.373918
0.373474
0.372976
0.372443
0.371875
0.371286
0.370677
0.370057
0.369428
0.368798
0.368165
0.367541
0.366914
0.366313
0.374988
0.374834
0.374505
0.374005
0.373353
0.372619
0.37178
0.370892
0.369932
0.368949
0.36792
0.366889
0.365833
0.364793
0.363736
0.362717
0.361676
0.360705
0.37501
0.374775
0.374226
0.373321
0.372093
0.370746
0.369155
0.367523
0.365713
0.363923
0.362013
0.360168
0.358244
0.35642
0.354537
0.352793
0.350981
0.349361
0.375129
0.374769
0.37379
0.371941
0.369401
0.366712
0.363455
0.360288
0.356724
0.353416
0.349861
0.34664
0.3433
0.340304
0.337311
0.334584
0.332012
0.329576
0.376922
0.379842
0.381424
0.381352
0.380861
0.379876
0.378153
0.376597
0.374826
0.373509
0.372315
0.37159
0.371303
0.371422
0.372015
0.372603
0.374413
0.375388
0.459531
0.609332
0.729995
0.821292
0.887098
0.932745
0.96284
0.98165
0.99191
0.996488
0.995937
0.993798
0.989384
0.983339
0.976491
0.969163
0.961627
0.954022
0.000659892
0.00360686
0.00899651
0.0172913
0.0291616
0.0401865
0.0507918
0.0614817
0.0714483
0.0799822
0.0873526
0.0931434
0.096715
0.0983553
0.0984676
0.0979354
0.0966819
0.094664
0.0924619
0.090409
0.0882831
0.0858748
0.0829511
0.0793794
0.0750299
0.0698595
0.0638292
0.057075
0.049643
0.0419463
0.0342927
0.0274526
0.0220772
0.0176207
0.0164235
0.0171591
0.0198546
0.0243545
0.0327799
0.0472406
0.0515308
0.0549456
0.0625595
0.109229
0.241767
0.352762
0.436462
0.505904
0.564862
0.616482
0.662367
0.703801
0.741674
0.776583
0.80909
0.83947
0.86811
0.89511
0.920757
0.94505
0.968204
0.990162
1.01107
1.03085
1.04961
1.06733
1.08405
1.09975
1.11446
1.12816
1.14088
1.15259
1.16334
1.17311
1.18194
1.18986
1.1969
1.20316
1.20872
1.21365
1.21745
1.2205
1.22254
1.22375
1.22399
1.22372
1.22197
1.21967
1.2163
1.21209
1.20705
1.20103
1.19426
1.18651
1.17804
1.16862
1.15848
1.14745
1.13568
1.12308
1.10971
1.0954
1.08046
1.06462
1.04809
1.03076
1.0127
0.993893
0.97438
0.954169
0.933313
0.911755
0.889279
0.865327
0.840944
0.815834
0.79061
0.765251
0.740569
0.71633
0.692943
0.6751
0.669163
0.670953
0.673601
0.675419
0.675797
0.675465
0.67463
0.672837
0.66952
0.665893
0.661392
0.655628
0.648751
0.641183
0.633156
0.624792
0.616125
0.607267
0.598157
0.588877
0.579438
0.569533
0.559552
0.549193
0.538121
0.526247
0.513527
0.500099
0.486037
0.471544
0.45679
0.44196
0.427194
0.412766
0.398658
0.385102
0.372036
0.359696
0.347831
0.336749
0.325963
0.315867
0.305918
0.296259
0.286415
0.276682
0.266759
0.256113
0.243998
0.230635
0.216495
0.202163
0.192148
0.18439
0.180705
0.176427
0.174482
0.166658
0.00211071
0.00521031
0.0165652
0.0337586
0.0545767
0.081495
0.111958
0.142702
0.170924
0.194827
0.213454
0.225983
0.232507
0.233437
0.232005
0.228412
0.222818
0.216351
0.209257
0.201112
0.192231
0.182705
0.172344
0.160966
0.14849
0.134909
0.120188
0.104807
0.0890097
0.0747795
0.0622697
0.0522801
0.0439442
0.0418634
0.0438163
0.0515073
0.0694374
0.0987947
0.134712
0.172084
0.260549
0.334085
0.355383
0.388087
0.457863
0.513856
0.563895
0.619317
0.671488
0.723576
0.773569
0.824158
0.874103
0.924176
0.973713
1.02285
1.07139
1.11925
1.16651
1.21305
1.2591
1.30456
1.34971
1.39365
1.43642
1.47823
1.51888
1.55848
1.59698
1.63434
1.67056
1.70558
1.73938
1.7719
1.8031
1.83295
1.86141
1.88848
1.91416
1.93839
1.96205
1.98455
2.00617
2.02673
2.04626
2.06475
2.08214
2.09841
2.11358
2.12761
2.14042
2.15202
2.16237
2.17142
2.17919
2.18564
2.19069
2.1944
2.19648
2.19742
2.19772
2.1954
2.19194
2.18664
2.17976
2.17108
2.16054
2.14804
2.1335
2.11687
2.09807
2.07721
2.05458
2.03031
2.00241
1.97226
1.93963
1.9044
1.86634
1.82594
1.78378
1.74083
1.69815
1.65403
1.60859
1.5623
1.515
1.46573
1.41657
1.3678
1.31953
1.2722
1.22436
1.17631
1.12876
1.08267
1.03806
0.995008
0.95375
0.914268
0.876933
0.841642
0.808249
0.777447
0.748347
0.720434
0.693603
0.668006
0.643521
0.620371
0.598358
0.577551
0.557935
0.539309
0.521668
0.505174
0.489348
0.474318
0.459751
0.446284
0.432952
0.420591
0.408387
0.397108
0.385561
0.375154
0.364403
0.354958
0.344824
0.336147
0.327288
0.320021
0.311361
0.30507
0.299704
0.296922
0.293045
0.291145
0.287626
0.278649
0.00367008
0.00380512
0.0121922
0.0252323
0.0503897
0.0849727
0.125926
0.166542
0.203024
0.233444
0.256395
0.272205
0.281748
0.286293
0.28603
0.284323
0.280564
0.275324
0.269616
0.263789
0.257877
0.251763
0.245053
0.237265
0.22803
0.216888
0.20352
0.187954
0.170537
0.15137
0.133025
0.116521
0.106826
0.108842
0.121099
0.153895
0.211713
0.315144
0.427001
0.448125
0.433948
0.429872
0.448884
0.507898
0.578738
0.657968
0.740813
0.829411
0.918651
1.01343
1.10837
1.20259
1.29372
1.38108
1.46415
1.5428
1.61728
1.68769
1.75447
1.81776
1.87792
1.93502
1.98924
2.04134
2.09179
2.14049
2.18766
2.23336
2.27764
2.32057
2.36218
2.40251
2.44159
2.47943
2.51605
2.55148
2.58572
2.61877
2.65058
2.68112
2.71033
2.73817
2.76461
2.78958
2.81307
2.83504
2.85548
2.87436
2.89174
2.90756
2.92181
2.93442
2.94535
2.95456
2.96195
2.96762
2.97115
2.97277
2.97332
2.97059
2.96563
2.95858
2.94959
2.93846
2.92516
2.90955
2.89155
2.87103
2.84788
2.82202
2.79305
2.76071
2.72484
2.68518
2.64129
2.59354
2.54185
2.48621
2.42718
2.36481
2.29886
2.22934
2.15632
2.07997
2.0017
1.92275
1.84434
1.76727
1.6909
1.61688
1.54588
1.47864
1.41403
1.35246
1.29417
1.23969
1.18808
1.13899
1.09251
1.04841
1.00672
0.967314
0.930016
0.894949
0.861747
0.830218
0.800179
0.771423
0.743763
0.717182
0.691578
0.666913
0.643151
0.620394
0.598375
0.577172
0.55666
0.53705
0.517989
0.499928
0.482267
0.465502
0.449148
0.433727
0.418395
0.404116
0.389871
0.376446
0.362894
0.350494
0.338167
0.326516
0.314576
0.30356
0.293398
0.285076
0.277842
0.273062
0.269246
0.26738
0.00371088
0.00323253
0.010396
0.0333558
0.0815978
0.136621
0.189636
0.237993
0.278123
0.308539
0.330658
0.344124
0.350862
0.351057
0.348919
0.343757
0.33662
0.329052
0.321698
0.314984
0.309043
0.30372
0.298575
0.293007
0.286371
0.277856
0.266943
0.253459
0.237679
0.220294
0.203385
0.191057
0.191795
0.206735
0.253582
0.360283
0.491639
0.537142
0.506219
0.471998
0.462285
0.49684
0.573584
0.666896
0.774544
0.891201
1.01198
1.13557
1.25756
1.37762
1.49297
1.60307
1.70734
1.8057
1.89841
1.98576
2.06823
2.14621
2.22017
2.29046
2.35747
2.42152
2.48294
2.54206
2.59912
2.65425
2.7076
2.75927
2.80936
2.85789
2.90492
2.95045
2.9945
3.03706
3.07814
3.11774
3.15584
3.1924
3.22739
3.26074
3.29239
3.3223
3.35041
3.37666
3.40099
3.42333
3.44358
3.46165
3.4777
3.49186
3.50412
3.51444
3.52269
3.52902
3.53297
3.53482
3.53538
3.53342
3.52859
3.52108
3.51077
3.4979
3.48236
3.4641
3.44303
3.419
3.39186
3.36143
3.3276
3.29055
3.24946
3.20417
3.15454
3.1005
3.04194
2.97833
2.90941
2.83474
2.75371
2.66677
2.57468
2.47795
2.37801
2.27561
2.1713
2.06659
1.96282
1.86262
1.76936
1.681
1.59784
1.52055
1.44936
1.38378
1.32347
1.26887
1.21802
1.17032
1.12593
1.08456
1.04583
1.00946
0.975222
0.943012
0.912717
0.883715
0.855803
0.828869
0.802772
0.777415
0.752699
0.72855
0.704892
0.681762
0.659033
0.636775
0.614946
0.593674
0.572812
0.552646
0.532926
0.513924
0.495407
0.477703
0.460402
0.443921
0.427759
0.412324
0.397214
0.382558
0.368077
0.35361
0.339237
0.325122
0.312071
0.299624
0.289358
0.280105
0.273345
0.267009
0.00229404
0.00945565
0.0385581
0.104304
0.181076
0.250576
0.309517
0.354887
0.384933
0.40181
0.409103
0.41016
0.408449
0.404124
0.397571
0.389716
0.380996
0.372116
0.363685
0.356223
0.350012
0.345001
0.340792
0.336725
0.332055
0.325668
0.316685
0.305011
0.291066
0.276032
0.263087
0.26257
0.281128
0.345176
0.4746
0.579419
0.602131
0.540162
0.504296
0.494892
0.53519
0.638544
0.743267
0.8693
1.00069
1.13766
1.2743
1.40984
1.54185
1.66988
1.79278
1.91023
2.02208
2.12833
2.22918
2.32488
2.41576
2.50215
2.58442
2.66288
2.73783
2.80959
2.87844
2.94462
3.00834
3.06979
3.12915
3.18657
3.24212
3.29586
3.34779
3.39788
3.44608
3.4923
3.53645
3.57868
3.61899
3.65735
3.6937
3.72798
3.76016
3.7902
3.81803
3.84363
3.86693
3.88784
3.9063
3.92214
3.93541
3.94623
3.95464
3.96079
3.96398
3.96517
3.96451
3.96048
3.95408
3.9449
3.93305
3.91858
3.90169
3.88207
3.85931
3.83341
3.80426
3.7717
3.7355
3.69539
3.65082
3.60088
3.54613
3.48648
3.42167
3.35145
3.27557
3.19378
3.1058
3.01222
2.91273
2.80727
2.69613
2.57985
2.45981
2.34063
2.22115
2.10168
1.98402
1.86937
1.75684
1.65031
1.55188
1.46281
1.38355
1.31378
1.25297
1.20082
1.15554
1.11593
1.08114
1.04889
1.01876
0.990542
0.963793
0.938295
0.913942
0.890284
0.86724
0.844757
0.822726
0.801026
0.779577
0.75822
0.736923
0.715695
0.694494
0.67336
0.652303
0.63143
0.610721
0.590377
0.570349
0.550822
0.531723
0.513275
0.495315
0.478021
0.461189
0.44497
0.429236
0.413851
0.398866
0.383795
0.369142
0.354136
0.340389
0.326038
0.314436
0.301343
0.292321
0.279612
0.0141554
0.0473366
0.129032
0.23621
0.328409
0.392166
0.426834
0.442028
0.445904
0.444156
0.43985
0.434081
0.42792
0.421557
0.415015
0.408297
0.401386
0.394403
0.387821
0.382086
0.377515
0.374152
0.371702
0.369541
0.366953
0.362859
0.356299
0.347018
0.335766
0.325526
0.325276
0.345217
0.410832
0.531087
0.6229
0.64068
0.581378
0.532254
0.52118
0.566245
0.679589
0.796975
0.926239
1.0658
1.20715
1.34971
1.4903
1.62869
1.76386
1.89544
2.02288
2.14587
2.26422
2.37779
2.48654
2.59054
2.68992
2.78484
2.8755
2.96211
3.0449
3.12409
3.19991
3.27254
3.34223
3.4092
3.4736
3.53571
3.59573
3.65364
3.70943
3.76301
3.81427
3.8631
3.90935
3.9531
3.99437
4.03312
4.06927
4.10276
4.13355
4.16161
4.18691
4.20944
4.22919
4.24616
4.26037
4.27183
4.2807
4.28637
4.28886
4.28945
4.28714
4.28136
4.2727
4.26104
4.24655
4.229
4.20843
4.1847
4.15745
4.12636
4.09201
4.05437
4.01333
3.96871
3.9203
3.86786
3.81095
3.74952
3.68338
3.61219
3.53562
3.45335
3.36513
3.27077
3.17088
3.06727
2.95796
2.84261
2.72143
2.59496
2.46492
2.33072
2.19246
2.05321
1.91574
1.78272
1.65681
1.54029
1.43478
1.34128
1.26015
1.19095
1.13303
1.08546
1.04663
1.01522
0.989607
0.968182
0.949438
0.93153
0.914349
0.897576
0.880995
0.864644
0.848345
0.83189
0.815125
0.798012
0.780558
0.763016
0.745284
0.727279
0.708984
0.690335
0.671413
0.652325
0.633116
0.613945
0.594871
0.57605
0.55751
0.539423
0.521761
0.504619
0.487939
0.471751
0.456065
0.440637
0.425691
0.410601
0.396121
0.381022
0.367354
0.352395
0.340539
0.326082
0.316353
0.301478
0.0905703
0.145824
0.282062
0.396024
0.452033
0.474097
0.479371
0.475078
0.465041
0.454667
0.445088
0.436385
0.428636
0.421798
0.41575
0.410353
0.405406
0.400985
0.397359
0.394613
0.392913
0.392309
0.392461
0.392798
0.392661
0.391419
0.388053
0.382544
0.376882
0.377396
0.394081
0.446166
0.543633
0.637966
0.665325
0.620976
0.559615
0.54423
0.581175
0.696217
0.818986
0.950272
1.08907
1.23187
1.37478
1.51708
1.65761
1.7963
1.9328
2.06682
2.19793
2.32573
2.44987
2.57006
2.68607
2.79773
2.90496
3.00773
3.1061
3.20012
3.28991
3.37556
3.45717
3.53493
3.6093
3.68068
3.74918
3.81506
3.87852
3.93951
3.99795
4.05373
4.10676
4.15697
4.2043
4.24863
4.2898
4.32777
4.36247
4.39383
4.42182
4.44643
4.46764
4.48548
4.49997
4.51111
4.51908
4.5233
4.52471
4.52347
4.51804
4.50954
4.49789
4.48285
4.46443
4.44226
4.41661
4.38779
4.3559
4.32095
4.28283
4.24152
4.19722
4.14985
4.09923
4.04517
3.98747
3.92598
3.86162
3.79339
3.72061
3.64277
3.55947
3.47035
3.37516
3.2737
3.16576
3.05062
2.92825
2.79884
2.66285
2.52101
2.37438
2.2243
2.0727
1.92204
1.77512
1.63499
1.50463
1.38649
1.28206
1.19201
1.1163
1.05389
1.00363
0.964117
0.933479
0.910306
0.892809
0.879663
0.869974
0.861388
0.852719
0.843769
0.834389
0.824535
0.814139
0.803207
0.791773
0.779801
0.767233
0.753916
0.739851
0.725037
0.709562
0.693792
0.677614
0.661041
0.644085
0.626886
0.609547
0.592215
0.574975
0.557974
0.541254
0.524891
0.508896
0.493255
0.478046
0.463006
0.448424
0.433651
0.419532
0.404716
0.391301
0.376393
0.364455
0.349669
0.339396
0.32383
0.166718
0.267741
0.418243
0.484328
0.508616
0.510433
0.501062
0.483385
0.465569
0.448188
0.433007
0.420869
0.411869
0.405629
0.40155
0.399002
0.397558
0.39674
0.396499
0.397106
0.398814
0.401405
0.404508
0.40761
0.410125
0.411649
0.412296
0.41267
0.415518
0.428438
0.463972
0.538143
0.632782
0.673645
0.652233
0.586689
0.56465
0.585403
0.689157
0.813355
0.943503
1.07995
1.21998
1.36138
1.50246
1.64279
1.7821
1.92047
2.05775
2.1936
2.3276
2.45931
2.58826
2.714
2.8361
2.95421
3.06805
3.17742
3.28218
3.38226
3.47759
3.56805
3.65369
3.73508
3.81294
3.88788
3.96006
4.02951
4.09608
4.15968
4.22018
4.27741
4.33125
4.38157
4.42825
4.47117
4.51025
4.54546
4.57675
4.6041
4.6275
4.64696
4.6625
4.67418
4.68219
4.68618
4.68727
4.68511
4.67882
4.66885
4.65489
4.6371
4.61551
4.59038
4.56181
4.52969
4.49435
4.45596
4.4146
4.37046
4.32428
4.27612
4.22533
4.1717
4.11504
4.05515
3.99175
3.92454
3.85282
3.77624
3.69445
3.60697
3.51334
3.41316
3.30614
3.19219
3.07116
2.94302
2.80782
2.66583
2.51764
2.36417
2.20685
2.04737
1.88824
1.73235
1.58292
1.44345
1.31702
1.20581
1.11095
1.0323
0.96921
0.91972
0.881872
0.854155
0.834185
0.820351
0.811273
0.805246
0.801996
0.800105
0.797551
0.794219
0.790134
0.785138
0.779224
0.772423
0.764799
0.756393
0.747272
0.737369
0.726766
0.715488
0.70344
0.690641
0.676907
0.662778
0.648242
0.633271
0.617971
0.602472
0.586879
0.571322
0.555878
0.540616
0.525587
0.510763
0.496254
0.481821
0.467759
0.453475
0.439779
0.425402
0.412261
0.397685
0.385684
0.371065
0.360391
0.344837
0.202919
0.365305
0.485848
0.533238
0.542385
0.531881
0.508628
0.480258
0.452378
0.428103
0.408948
0.395194
0.386431
0.381876
0.380583
0.38131
0.383392
0.386588
0.390474
0.394595
0.39898
0.404244
0.409753
0.415036
0.419695
0.423677
0.427641
0.433347
0.44493
0.4714
0.525953
0.609694
0.663545
0.668976
0.616057
0.584523
0.585684
0.665555
0.784375
0.912086
1.0445
1.18046
1.31808
1.45626
1.59432
1.73219
1.86995
2.00765
2.14511
2.28202
2.41797
2.55246
2.68491
2.81474
2.94137
3.06428
3.18302
3.29723
3.40661
3.51092
3.60987
3.70334
3.79168
3.87629
3.95738
4.03521
4.10991
4.18139
4.24952
4.31415
4.37514
4.43233
4.48559
4.5348
4.57985
4.62066
4.65721
4.68945
4.71736
4.74092
4.76015
4.77507
4.78569
4.79188
4.79432
4.79361
4.7884
4.77884
4.76495
4.74687
4.7246
4.69835
4.66821
4.63441
4.59741
4.55819
4.51602
4.47093
4.42301
4.37233
4.31881
4.26232
4.20302
4.14082
4.07553
4.00691
3.93462
3.85826
3.77737
3.69143
3.5999
3.50221
3.39781
3.2863
3.16742
3.0413
2.90785
2.76735
2.62008
2.46665
2.308
2.14538
1.98083
1.81641
1.65542
1.5012
1.35712
1.22713
1.11376
1.01843
0.941305
0.880799
0.835347
0.802458
0.77921
0.764501
0.755609
0.750622
0.749496
0.74986
0.751255
0.754165
0.755848
0.756062
0.755656
0.753938
0.750967
0.746924
0.741887
0.735949
0.729212
0.721705
0.713471
0.704538
0.694915
0.684562
0.673595
0.661851
0.649503
0.636637
0.62332
0.609654
0.595736
0.581682
0.567579
0.553494
0.539493
0.525559
0.511802
0.498032
0.484518
0.470758
0.457468
0.443552
0.430649
0.41648
0.404415
0.39012
0.379151
0.363914
0.235876
0.444218
0.556242
0.58799
0.580709
0.552797
0.515293
0.477029
0.441557
0.4124
0.390665
0.375876
0.367107
0.363235
0.36315
0.365853
0.370517
0.376384
0.382943
0.389865
0.397046
0.403987
0.410754
0.417195
0.423188
0.429168
0.436363
0.447683
0.469002
0.509472
0.574874
0.640258
0.662908
0.645492
0.599245
0.589771
0.633544
0.739197
0.861551
0.989282
1.12009
1.25282
1.3865
1.52071
1.65529
1.7904
1.92616
2.06253
2.19934
2.33631
2.473
2.60885
2.74321
2.8754
3.00471
3.1305
3.25217
3.36921
3.48121
3.58773
3.68852
3.78369
3.87456
3.96125
4.04414
4.1235
4.19941
4.27178
4.34048
4.40537
4.46632
4.52318
4.57584
4.62416
4.66806
4.70745
4.74231
4.77256
4.79818
4.81914
4.83543
4.84702
4.85363
4.85597
4.85444
4.84819
4.83718
4.82144
4.80111
4.77675
4.74844
4.71607
4.67971
4.63952
4.59569
4.54812
4.49718
4.44311
4.3861
4.32628
4.26374
4.19852
4.13059
4.05979
3.98588
3.90853
3.82732
3.74176
3.65133
3.55537
3.45332
3.34452
3.2284
3.1047
2.97327
2.83458
2.68855
2.53605
2.37761
2.21441
2.04785
1.87968
1.71284
1.54954
1.39417
1.25057
1.12261
1.01273
0.922061
0.85034
0.796225
0.757053
0.730026
0.713291
0.703277
0.699565
0.699735
0.701283
0.705436
0.710639
0.716255
0.72219
0.727102
0.730269
0.731739
0.731794
0.731099
0.728908
0.725541
0.721207
0.716035
0.710108
0.703495
0.696233
0.688336
0.679815
0.670697
0.660938
0.650485
0.63944
0.627861
0.615823
0.603413
0.590725
0.577849
0.564848
0.551793
0.538677
0.525607
0.512441
0.49941
0.486119
0.473161
0.459647
0.446912
0.433116
0.420979
0.40701
0.395806
0.380987
0.261155
0.520495
0.623713
0.643805
0.622129
0.578689
0.527658
0.47882
0.438143
0.406648
0.383851
0.368742
0.360043
0.356393
0.356198
0.359293
0.364967
0.37215
0.38008
0.388222
0.396197
0.403743
0.410813
0.417386
0.423851
0.431384
0.441963
0.459569
0.490456
0.540424
0.604196
0.643419
0.651626
0.613538
0.593366
0.606995
0.686526
0.798482
0.920121
1.04524
1.17228
1.30051
1.42955
1.55935
1.69
1.8217
1.95454
2.08838
2.22313
2.35865
2.49449
2.63004
2.76456
2.89727
3.02736
3.15408
3.27673
3.39467
3.50737
3.61444
3.71587
3.81259
3.90478
3.99267
4.07658
4.15677
4.23332
4.30619
4.37528
4.44048
4.50166
4.55867
4.61139
4.65968
4.7034
4.74239
4.77647
4.80565
4.82996
4.84937
4.86386
4.87328
4.87745
4.87745
4.87258
4.86259
4.8475
4.82734
4.80218
4.77206
4.73701
4.69726
4.653
4.60449
4.55198
4.49572
4.43602
4.37316
4.30738
4.23887
4.16775
4.09408
4.01778
3.93861
3.85623
3.77018
3.67991
3.58482
3.48429
3.37757
3.26407
3.14313
3.01427
2.8776
2.73313
2.5818
2.42359
2.26029
2.09263
1.9227
1.75237
1.58419
1.42192
1.26956
1.13099
1.00956
0.907501
0.825531
0.763062
0.718258
0.687672
0.668955
0.657738
0.653828
0.654211
0.656347
0.661756
0.668709
0.676558
0.684695
0.692697
0.700484
0.707526
0.713004
0.716419
0.717954
0.718096
0.71752
0.715461
0.712239
0.708141
0.703282
0.697771
0.691673
0.68497
0.677755
0.670055
0.6616
0.652606
0.643026
0.632869
0.62218
0.611024
0.599482
0.587635
0.575542
0.563273
0.550834
0.53832
0.525635
0.512974
0.500039
0.487307
0.474087
0.461438
0.447924
0.435693
0.42199
0.41058
0.396177
0.287432
0.590566
0.696177
0.709126
0.673477
0.614247
0.549284
0.490112
0.442448
0.407561
0.383921
0.36904
0.361369
0.358613
0.358951
0.362618
0.368559
0.375781
0.383566
0.391389
0.39888
0.405836
0.41226
0.418403
0.425049
0.433827
0.447889
0.471475
0.50927
0.561444
0.612696
0.635311
0.626058
0.599637
0.59587
0.638592
0.731206
0.843356
0.961816
1.08262
1.20468
1.32758
1.45118
1.57537
1.70048
1.82727
1.95596
2.08683
2.2195
2.35323
2.48747
2.6216
2.75487
2.88647
3.01559
3.14142
3.2632
3.38025
3.49205
3.59841
3.69998
3.79705
3.88966
3.97798
4.06227
4.14276
4.21957
4.2927
4.36207
4.4276
4.48915
4.5466
4.59979
4.64856
4.69272
4.73206
4.76638
4.79563
4.81974
4.83863
4.8522
4.86029
4.86298
4.86053
4.85246
4.83863
4.81907
4.79379
4.76287
4.72641
4.68456
4.63755
4.58566
4.52922
4.46861
4.40422
4.33643
4.26559
4.19197
4.11576
4.03705
3.95586
3.87201
3.78514
3.69475
3.60021
3.50082
3.3958
3.28454
3.16618
3.04019
2.90596
2.76345
2.61323
2.45548
2.29195
2.12275
1.95109
1.77761
1.606
1.43903
1.28038
1.13438
1.00394
0.892261
0.801862
0.731225
0.681774
0.648514
0.629339
0.618254
0.614554
0.614998
0.617208
0.622642
0.630192
0.638889
0.648227
0.657862
0.667485
0.676779
0.685611
0.693782
0.700841
0.706221
0.709493
0.710799
0.710849
0.710097
0.707834
0.704598
0.700555
0.695861
0.690605
0.684791
0.678411
0.671497
0.664132
0.656297
0.647858
0.638822
0.629208
0.619058
0.608434
0.597407
0.586032
0.574374
0.562448
0.550341
0.537993
0.525569
0.512855
0.500233
0.487181
0.474529
0.461183
0.448826
0.435309
0.4237
0.409664
0.309521
0.66644
0.775559
0.783058
0.733407
0.658308
0.58012
0.512036
0.459227
0.421785
0.397156
0.382203
0.374762
0.372087
0.372066
0.375305
0.380493
0.386818
0.393538
0.400085
0.406104
0.411492
0.416454
0.421633
0.428256
0.438566
0.455905
0.484047
0.524844
0.573339
0.607841
0.617692
0.601904
0.591533
0.605783
0.670567
0.766983
0.876121
0.989701
1.10495
1.22101
1.33756
1.45461
1.5738
1.69539
1.81881
1.94408
2.07105
2.19954
2.32925
2.45969
2.59022
2.72012
2.84856
2.9747
3.09771
3.2168
3.33122
3.44075
3.54594
3.64697
3.74384
3.83645
3.92482
4.00911
4.08953
4.16621
4.23921
4.30849
4.37398
4.43555
4.49308
4.54638
4.59527
4.63954
4.67904
4.71361
4.74298
4.76696
4.78536
4.79799
4.80471
4.80551
4.80094
4.7898
4.77217
4.74823
4.71799
4.68158
4.63917
4.59101
4.53741
4.47875
4.41546
4.34803
4.27692
4.20258
4.12539
4.04563
3.96341
3.87873
3.79145
3.70122
3.60752
3.50961
3.40666
3.29781
3.18213
3.05909
2.92776
2.7879
2.63911
2.48218
2.31803
2.14744
1.97327
1.79584
1.62041
1.4481
1.28482
1.13193
0.994168
0.875511
0.775909
0.700769
0.649099
0.617097
0.598065
0.587565
0.583099
0.583287
0.585178
0.589782
0.596936
0.605398
0.614748
0.624637
0.634821
0.645094
0.655287
0.665195
0.674623
0.683431
0.691453
0.698254
0.703295
0.706378
0.7076
0.707538
0.706474
0.704058
0.700702
0.696584
0.691845
0.686584
0.680951
0.674893
0.668361
0.661352
0.653798
0.645655
0.636906
0.627566
0.617676
0.607297
0.596478
0.585277
0.573716
0.561874
0.549725
0.537409
0.524785
0.512157
0.499149
0.486407
0.473117
0.460595
0.447179
0.435368
0.421633
0.326761
0.738734
0.858145
0.864091
0.802257
0.712119
0.621963
0.54637
0.488819
0.448346
0.421964
0.406003
0.397975
0.394795
0.39428
0.396559
0.400676
0.405517
0.410374
0.414767
0.418468
0.421561
0.424544
0.428455
0.435069
0.446813
0.466433
0.496063
0.534187
0.572851
0.593218
0.59675
0.591264
0.594692
0.627238
0.700893
0.796096
0.90029
1.00787
1.11676
1.22631
1.33654
1.4491
1.56316
1.67859
1.79553
1.91421
2.03455
2.1564
2.27962
2.40383
2.52851
2.65306
2.77658
2.89804
3.01647
3.13133
3.2425
3.34968
3.45313
3.55297
3.64909
3.74128
3.82943
3.91359
3.99391
4.0705
4.14343
4.2127
4.27824
4.33994
4.39767
4.45123
4.50042
4.545
4.58472
4.61933
4.64856
4.67211
4.68973
4.70113
4.70604
4.70497
4.69823
4.68386
4.66262
4.63459
4.59986
4.55864
4.51119
4.45786
4.39909
4.33533
4.26712
4.19497
4.11938
4.04082
3.95964
3.87597
3.78981
3.70096
3.60907
3.51351
3.41348
3.30799
3.19599
3.07655
2.94873
2.81221
2.66608
2.51088
2.34652
2.17503
1.99754
1.81635
1.63513
1.4562
1.28675
1.12667
0.98341
0.855276
0.750858
0.673439
0.624124
0.593777
0.574594
0.564271
0.558887
0.558656
0.559934
0.563348
0.569419
0.576934
0.585441
0.594626
0.604304
0.61434
0.624598
0.634944
0.645259
0.65542
0.665234
0.67453
0.683198
0.691012
0.697548
0.702394
0.705365
0.706246
0.706083
0.704808
0.702169
0.698719
0.694604
0.689927
0.684835
0.679355
0.673443
0.667131
0.660339
0.652986
0.645001
0.63636
0.627088
0.617239
0.606857
0.595995
0.584681
0.572989
0.560922
0.548602
0.535951
0.523216
0.510139
0.497229
0.483893
0.471165
0.457775
0.445753
0.432249
0.336058
0.806192
0.940474
0.9497
0.879263
0.775919
0.677572
0.598877
0.537974
0.492957
0.462478
0.443246
0.432233
0.42697
0.425146
0.425058
0.427009
0.429507
0.431835
0.433586
0.434668
0.435368
0.436435
0.439189
0.445543
0.457728
0.477748
0.505957
0.539398
0.570231
0.586361
0.592828
0.594996
0.609333
0.657286
0.733009
0.823828
0.921403
1.02176
1.1233
1.22568
1.32982
1.43438
1.53995
1.64694
1.75587
1.86671
1.97941
2.09384
2.20979
2.32683
2.44433
2.56166
2.67845
2.79387
2.90699
3.01724
3.12442
3.22843
3.32935
3.42718
3.52177
3.61285
3.70023
3.78385
3.86372
3.93993
4.0125
4.08144
4.14668
4.20812
4.26561
4.31894
4.3679
4.4122
4.45157
4.48568
4.51422
4.53683
4.55319
4.5629
4.56561
4.56282
4.55349
4.53608
4.51159
4.48012
4.44187
4.39711
4.34622
4.28966
4.22792
4.16154
4.09105
4.01692
3.93964
3.85957
3.77691
3.69159
3.60333
3.51162
3.41577
3.31487
3.20787
3.09356
2.97085
2.83885
2.69688
2.54495
2.38236
2.21101
2.03083
1.8461
1.65782
1.47169
1.29193
1.12343
0.972626
0.837427
0.726884
0.652087
0.604572
0.574787
0.556558
0.546419
0.540939
0.539514
0.540256
0.542419
0.547124
0.553312
0.560511
0.568439
0.576937
0.585923
0.595313
0.605037
0.615032
0.625214
0.635489
0.645759
0.655863
0.665626
0.674884
0.683483
0.691187
0.697625
0.702405
0.705186
0.705922
0.705658
0.704221
0.701449
0.697881
0.693694
0.689046
0.68403
0.67867
0.672998
0.666914
0.660327
0.653107
0.645149
0.636452
0.627072
0.617058
0.606458
0.595307
0.583679
0.5716
0.559187
0.546412
0.533486
0.520246
0.507101
0.493634
0.480664
0.467232
0.45499
0.441653
0.339121
0.86119
1.01621
1.03453
0.972447
0.873239
0.775345
0.692754
0.626061
0.573465
0.535213
0.509134
0.491593
0.480259
0.473387
0.469475
0.467396
0.466204
0.465131
0.463759
0.462065
0.460588
0.460018
0.461398
0.46718
0.479002
0.497969
0.523495
0.552132
0.577935
0.595156
0.605537
0.6171
0.645173
0.700733
0.773616
0.856957
0.945593
1.03667
1.12891
1.22214
1.31588
1.41062
1.50662
1.60419
1.70353
1.80478
1.90798
2.01308
2.1199
2.22808
2.3371
2.4464
2.55551
2.66378
2.77053
2.87525
2.97764
3.07755
3.17497
3.26984
3.36199
3.45117
3.53709
3.61959
3.69856
3.77399
3.84584
3.91407
3.97861
4.03933
4.09607
4.14861
4.1967
4.24006
4.27836
4.31128
4.33844
4.3595
4.37406
4.38163
4.38201
4.37758
4.36558
4.34571
4.31889
4.28529
4.24517
4.19892
4.14699
4.08986
4.02802
3.962
3.89227
3.81916
3.74298
3.66384
3.58162
3.49595
3.40618
3.31144
3.21078
3.10306
2.98714
2.86167
2.72573
2.57864
2.42015
2.25065
2.07023
1.8822
1.68719
1.49314
1.30082
1.1208
0.957096
0.816698
0.703368
0.631955
0.586703
0.558564
0.541951
0.53219
0.527159
0.524874
0.525058
0.526491
0.529665
0.534377
0.540038
0.546385
0.553284
0.560703
0.568614
0.576984
0.585796
0.595022
0.60463
0.614565
0.624752
0.635099
0.645466
0.655696
0.665592
0.674971
0.683663
0.691396
0.697854
0.702657
0.705341
0.706024
0.705719
0.704243
0.701362
0.697719
0.693529
0.688935
0.684006
0.678778
0.673227
0.667344
0.660899
0.653685
0.645586
0.636664
0.626988
0.616606
0.605562
0.593933
0.581771
0.569194
0.556216
0.543029
0.529548