/*--------------------------------*- C++ -*----------------------------------*\
| =========                 |                                                 |
| \\      /  F ield         | OpenFOAM: The Open Source CFD Toolbox           |
|  \\    /   O peration     | Version:  2112                                  |
|   \\  /    A nd           | Website:  www.openfoam.com                      |
|    \\/     M anipulation  |                                                 |
\*---------------------------------------------------------------------------*/
FoamFile
{
    version     2.0;
    format      ascii;
    arch        "LSB;label=32;scalar=64";
    class       volScalarField;
    location    "0.06";
    object      nut;
}
// * * * * * * * * * * * * * * * * * * * * * * * * * * * * * * * * * * * * * //

dimensions      [0 2 -1 0 0 0 0];

internalField   nonuniform List<scalar> 
12225
(
5.32143e-06
8.10064e-06
1.00904e-05
1.13574e-05
1.2103e-05
1.24774e-05
1.2616e-05
1.2673e-05
1.26148e-05
1.24972e-05
1.23752e-05
1.22158e-05
1.20922e-05
1.19218e-05
1.18226e-05
1.16504e-05
1.15855e-05
1.13855e-05
0.000146089
6.39884e-05
4.56843e-05
3.78094e-05
3.36672e-05
3.12518e-05
2.98092e-05
2.89672e-05
2.84571e-05
2.83588e-05
2.83221e-05
2.86437e-05
2.89411e-05
2.95346e-05
3.00643e-05
3.07825e-05
3.15639e-05
3.17398e-05
0.00106167
0.00040502
0.000258524
0.000192209
0.000156132
0.000131999
0.000116461
0.000104324
9.60479e-05
8.88591e-05
8.39687e-05
7.93371e-05
7.63338e-05
7.32172e-05
7.1348e-05
6.91533e-05
6.849e-05
6.58039e-05
0.00312813
0.00137493
0.000889089
0.000657364
0.000530222
0.000442509
0.000386371
0.000340621
0.000310213
0.000282001
0.000263554
0.000244289
0.000232369
0.000218232
0.000209958
0.000199592
0.000194066
0.000182795
0.00425419
0.0029425
0.00200072
0.00151203
0.00123229
0.00103579
0.000906691
0.000801162
0.000729148
0.000663016
0.000618376
0.00057263
0.000543248
0.000509138
0.000488825
0.000463109
0.000448245
0.000422884
0.00478975
0.00476398
0.00345045
0.00269684
0.00223697
0.00190785
0.00168184
0.00149873
0.00136734
0.00125058
0.00116652
0.00108496
0.00102817
0.000966749
0.00092753
0.000879203
0.000850703
0.000806483
0.00553878
0.00647248
0.00499958
0.00406347
0.00344722
0.00299369
0.00266642
0.00240208
0.00220257
0.00202995
0.00189766
0.00177561
0.0016834
0.00159098
0.00152592
0.00145092
0.00140589
0.00133754
0.00665337
0.00776371
0.00641465
0.00543619
0.00473259
0.00419303
0.0037833
0.00344941
0.003186
0.00296072
0.00277935
0.0026172
0.00248661
0.00236309
0.00226764
0.00216702
0.00209943
0.00200781
0.00819194
0.00858377
0.0075475
0.00666458
0.00596288
0.00539473
0.00493993
0.00456148
0.00425103
0.00398472
0.00376219
0.00356563
0.00340015
0.00324868
0.00312338
0.00300017
0.00290785
0.00279548
0.00941484
0.00903779
0.0083588
0.00765649
0.0070356
0.00649893
0.0060448
0.00565496
0.00532317
0.00503449
0.00478588
0.0045658
0.00437468
0.00420185
0.00405244
0.00391133
0.00379678
0.00366794
0.00944295
0.00926591
0.00888165
0.00838394
0.00789198
0.00743395
0.00702266
0.00665545
0.00633104
0.0060424
0.00578694
0.00555813
0.0053546
0.00517024
0.00500619
0.00485393
0.00472345
0.00458422
0.00945502
0.00936794
0.0091581
0.00882764
0.00846367
0.00809904
0.00775242
0.00742995
0.00713478
0.00686539
0.006621
0.00639853
0.00619678
0.00601236
0.00584509
0.00569019
0.00555297
0.00541073
0.00946098
0.00942039
0.00931562
0.00911851
0.00887213
0.00860485
0.00833464
0.00807133
0.00782084
0.00758534
0.00736598
0.00716224
0.00697379
0.00679921
0.00663812
0.00648819
0.00635192
0.00621312
0.00946398
0.00944748
0.00940246
0.00930738
0.0091648
0.00899492
0.00880995
0.00861896
0.00842839
0.00824223
0.00806303
0.00789208
0.0077301
0.00757713
0.00743325
0.00729772
0.0071716
0.00704432
0.00946567
0.0094592
0.009443
0.00940691
0.00934043
0.00925115
0.00914476
0.00902675
0.00890188
0.00877381
0.00864535
0.00851846
0.00839451
0.00827439
0.0081587
0.00804767
0.00794185
0.00783513
0.0094663
0.00946386
0.00945848
0.00944732
0.00942502
0.00938813
0.00933928
0.00928022
0.00921306
0.00913986
0.00906252
0.00898261
0.00890144
0.00882005
0.00873923
0.00865957
0.00858157
0.00850231
0.00946621
0.00946545
0.00946392
0.00946043
0.00945465
0.00944424
0.00942715
0.0094042
0.00937563
0.00934199
0.00930399
0.00926238
0.00921789
0.0091712
0.00912295
0.00907366
0.00902375
0.00897223
0.00946613
0.00946554
0.00946502
0.00946414
0.00946185
0.00945869
0.00945354
0.00944501
0.00943302
0.00941767
0.00939903
0.00937732
0.00935281
0.00932585
0.00929678
0.00926598
0.00923375
0.00920009
0.00946614
0.00946533
0.00946435
0.00946193
0.00945812
0.00945215
0.00944245
0.00942867
0.00941104
0.00938969
0.0093649
0.00933704
0.00930652
0.00927378
0.00923923
0.00920326
0.00916627
0.00912921
0.00946619
0.00946333
0.00945741
0.00944613
0.00942508
0.00939171
0.0093483
0.00929614
0.0092369
0.00917224
0.00910373
0.00903269
0.00896028
0.00888739
0.00881478
0.00874301
0.00867252
0.00860524
0.00946483
0.00945491
0.00943066
0.00938032
0.00929893
0.00919589
0.00907727
0.00894876
0.008815
0.0086796
0.00854513
0.00841342
0.00828567
0.00816266
0.00804481
0.00793238
0.00782522
0.00772623
0.0094603
0.0094196
0.00932226
0.00914703
0.00893022
0.00869267
0.00844903
0.00820897
0.00797795
0.00775904
0.00755343
0.00736151
0.00718289
0.00701705
0.00686306
0.0067204
0.00658724
0.00646792
0.00944204
0.0092851
0.00896192
0.00854284
0.00811152
0.00770007
0.00732037
0.00697684
0.00666778
0.0063911
0.00614285
0.0059203
0.00571979
0.00553923
0.00537538
0.00522755
0.00509101
0.00497257
0.00936867
0.00884984
0.00807497
0.00734156
0.00670294
0.00616568
0.00571272
0.00533212
0.00500755
0.00473073
0.00449064
0.00428281
0.00409959
0.00393924
0.0037954
0.0036694
0.00355251
0.00345505
0.00909055
0.00771506
0.00644751
0.00551088
0.00481157
0.00428523
0.00387171
0.00354564
0.00327741
0.00305849
0.00287199
0.00271625
0.00257966
0.00246426
0.00235987
0.00227232
0.00218886
0.00212291
0.00811849
0.00561993
0.00421099
0.0033806
0.00283277
0.00245618
0.00217339
0.00196251
0.00179142
0.00165816
0.00154401
0.00145314
0.00137165
0.00130656
0.00124524
0.00119726
0.00114886
0.00111327
0.00568947
0.00297923
0.00201645
0.0015451
0.00125871
0.00107397
0.000938029
0.000841368
0.000762401
0.000703955
0.000652404
0.000613868
0.000577519
0.000550669
0.000523545
0.000504173
0.000482998
0.000468745
0.00224799
0.000930489
0.000602579
0.000455438
0.000369193
0.000315008
0.000275568
0.000248182
0.000225741
0.000209617
0.00019515
0.000184774
0.000174676
0.000167604
0.000160171
0.000155164
0.000149485
0.000145853
0.000325488
0.000142518
9.9025e-05
7.90496e-05
6.76458e-05
6.04555e-05
5.54734e-05
5.20173e-05
4.94134e-05
4.7545e-05
4.60669e-05
4.50277e-05
4.41674e-05
4.36289e-05
4.31457e-05
4.29001e-05
4.26962e-05
4.26707e-05
6.00622e-06
8.01637e-06
9.67397e-06
1.09719e-05
1.19471e-05
1.26598e-05
1.31663e-05
1.35209e-05
1.3758e-05
1.39144e-05
1.39966e-05
1.40527e-05
1.40731e-05
1.40659e-05
1.40436e-05
1.40093e-05
1.39692e-05
1.39224e-05
5.98447e-08
1.4713e-06
3.55295e-06
6.50801e-06
1.03592e-05
1.36573e-05
1.65878e-05
1.93668e-05
2.1821e-05
2.38218e-05
2.547e-05
2.67272e-05
2.63276e-05
2.55177e-05
2.46306e-05
2.39132e-05
2.32817e-05
2.2692e-05
2.22704e-05
2.20805e-05
2.20565e-05
2.21321e-05
2.22328e-05
2.23254e-05
2.22553e-05
2.10239e-05
1.95481e-05
1.7839e-05
1.58833e-05
1.37639e-05
1.15503e-05
9.46432e-06
7.75222e-06
6.27793e-06
5.83926e-06
6.06341e-06
6.91758e-06
8.32442e-06
1.07729e-05
1.48245e-05
1.60639e-05
1.69027e-05
1.86874e-05
2.79971e-05
4.39055e-05
4.98936e-05
5.33326e-05
5.51558e-05
5.58704e-05
5.60966e-05
5.60863e-05
5.59898e-05
5.5879e-05
5.57866e-05
5.57305e-05
5.57099e-05
5.57285e-05
5.57767e-05
5.58558e-05
5.59544e-05
5.60742e-05
5.6204e-05
5.63456e-05
5.64888e-05
5.66382e-05
5.67875e-05
5.69376e-05
5.70867e-05
5.72347e-05
5.73807e-05
5.75259e-05
5.76693e-05
5.78134e-05
5.79578e-05
5.81053e-05
5.82577e-05
5.84178e-05
5.85906e-05
5.87806e-05
5.89915e-05
5.92021e-05
5.94313e-05
5.96676e-05
5.99206e-05
6.0189e-05
6.04923e-05
6.07861e-05
6.11245e-05
6.14756e-05
6.18602e-05
6.22758e-05
6.27237e-05
6.32165e-05
6.37484e-05
6.4338e-05
6.49799e-05
6.56931e-05
6.64778e-05
6.73529e-05
6.83258e-05
6.94154e-05
7.06268e-05
7.20011e-05
7.35468e-05
7.53111e-05
7.73246e-05
7.96447e-05
8.23328e-05
8.54765e-05
8.91883e-05
9.3626e-05
9.89872e-05
0.000104274
0.000102584
0.000100837
9.90142e-05
9.71524e-05
9.52441e-05
9.33366e-05
9.14447e-05
8.9557e-05
8.80038e-05
8.72565e-05
8.72125e-05
8.72589e-05
8.7267e-05
8.7179e-05
8.70237e-05
8.49985e-05
7.48206e-05
6.67999e-05
6.04392e-05
5.5279e-05
5.09912e-05
4.73912e-05
4.43611e-05
4.18001e-05
3.96269e-05
3.77776e-05
3.62052e-05
3.48618e-05
3.37166e-05
3.27426e-05
3.18923e-05
3.11716e-05
3.05534e-05
3.00002e-05
2.9491e-05
2.90073e-05
2.85408e-05
2.80809e-05
2.76238e-05
2.71659e-05
2.67055e-05
2.62389e-05
2.57736e-05
2.53012e-05
2.48301e-05
2.43523e-05
2.38821e-05
2.34025e-05
2.29364e-05
2.24543e-05
2.19862e-05
2.15025e-05
2.1019e-05
2.05069e-05
1.99909e-05
1.94607e-05
1.8894e-05
1.82343e-05
1.74972e-05
1.66886e-05
1.58273e-05
1.52268e-05
1.48255e-05
1.46699e-05
1.4624e-05
1.45778e-05
1.45593e-05
1.87725e-07
2.6599e-06
1.09774e-05
2.15275e-05
2.90215e-05
3.92381e-05
4.75421e-05
5.79871e-05
7.09446e-05
8.67367e-05
0.000106236
0.000128049
0.000138246
0.000145422
0.000151158
0.000155162
0.000157204
0.000157957
0.000157366
0.000151117
0.000143019
0.00013275
0.00012071
0.000108012
9.52513e-05
8.28294e-05
7.09557e-05
5.99714e-05
4.99684e-05
4.21449e-05
3.56258e-05
3.10284e-05
2.76652e-05
2.88239e-05
3.5038e-05
4.42222e-05
5.85334e-05
7.82686e-05
9.15147e-05
6.7608e-05
6.85329e-05
5.96329e-05
5.56127e-05
6.36227e-05
8.23443e-05
9.98569e-05
0.000109265
0.000125843
0.00014085
0.000159231
0.000176299
0.000195327
0.000213634
0.000232868
0.000251598
0.000270615
0.000289248
0.00030784
0.000326167
0.000344334
0.000362356
0.000380231
0.000398081
0.000415554
0.000432816
0.000449821
0.00046658
0.000483078
0.000499307
0.000515218
0.00053079
0.000545951
0.000560645
0.000574779
0.000588264
0.000600967
0.000612503
0.000622818
0.000632062
0.000640219
0.000648217
0.000655885
0.000663306
0.00067039
0.000677476
0.000684127
0.00069021
0.000696588
0.000702319
0.000707658
0.000713102
0.000717944
0.000722569
0.000726861
0.000730798
0.000734411
0.000737645
0.00074054
0.000742957
0.000745077
0.000747085
0.00074845
0.000749404
0.000749871
0.000749877
0.000749356
0.000748277
0.000746589
0.000744252
0.000741243
0.000737554
0.000733324
0.000728974
0.00072512
0.000719668
0.000713475
0.000706509
0.000698651
0.000689789
0.000679932
0.000669134
0.000657226
0.000644166
0.000630065
0.000615455
0.000600635
0.000585658
0.000570155
0.00055549
0.000541796
0.000528193
0.000514798
0.000500677
0.000485943
0.000470707
0.000455423
0.000440099
0.000424661
0.000409232
0.000393734
0.000378424
0.000363397
0.000348292
0.000334379
0.000320251
0.000303852
0.000286799
0.000270345
0.000254867
0.000240857
0.000228262
0.000217099
0.000207503
0.000198883
0.000191732
0.000185783
0.000180303
0.000175417
0.00017113
0.000167552
0.000164175
0.000161144
0.000158086
0.000155202
0.000151946
0.000148669
0.000144732
0.000140962
0.000136433
0.000131532
0.000126013
0.000120708
0.000113356
0.000107019
0.000102238
9.92307e-05
9.74215e-05
9.54139e-05
9.49305e-05
8.49012e-05
3.22442e-07
1.78865e-06
6.69032e-06
1.0588e-05
1.83849e-05
3.24439e-05
5.34462e-05
7.71118e-05
0.000100264
0.000126477
0.000148887
0.000168831
0.000185997
0.000200393
0.000211618
0.000221722
0.000229953
0.000236439
0.000241961
0.000246227
0.000248686
0.000248998
0.000245709
0.000237731
0.00022672
0.000211543
0.00019271
0.000172034
0.000151131
0.000130654
0.000114309
0.000101144
9.59135e-05
0.000100918
0.000108919
0.000116081
0.000116642
0.000121636
0.00010444
8.69518e-05
8.45089e-05
9.46864e-05
0.000103565
0.000119937
0.000142426
0.00017774
0.000216241
0.000258584
0.000303742
0.000353299
0.000402981
0.000453966
0.00050299
0.000551084
0.000596665
0.000640376
0.000681755
0.000721111
0.000758494
0.000794004
0.000827836
0.000859974
0.000890573
0.00092
0.00094842
0.000975764
0.00100216
0.00102757
0.00105203
0.00107554
0.00109806
0.0011196
0.00114013
0.00115963
0.00117802
0.0011953
0.00121164
0.0012272
0.00124163
0.00125534
0.00126844
0.00128086
0.00129263
0.0013037
0.0013141
0.00132381
0.00133276
0.00134105
0.00134867
0.00135556
0.00136179
0.0013673
0.00137206
0.00137608
0.00137932
0.0013818
0.00138333
0.00138403
0.0013842
0.00138313
0.0013809
0.00137768
0.00137367
0.00136879
0.001363
0.00135619
0.00134837
0.00133951
0.00132959
0.00131862
0.00130649
0.00129321
0.00127887
0.00126342
0.00124271
0.00120902
0.00117596
0.0011431
0.00111067
0.00107867
0.001047
0.00101575
0.000984767
0.000954052
0.000924374
0.000896449
0.000871252
0.000849882
0.000832285
0.000818718
0.000810383
0.000808622
0.000788205
0.000768905
0.00075052
0.000733503
0.000717041
0.000700406
0.000683642
0.000666439
0.000648745
0.000630678
0.000611832
0.000592662
0.000573791
0.000552898
0.000532028
0.000510701
0.000488939
0.000467707
0.000447354
0.00042809
0.00041009
0.000393918
0.000379694
0.000366475
0.000354075
0.000342926
0.000333315
0.000324764
0.000316855
0.000309661
0.000302729
0.000296257
0.000289518
0.000282914
0.000275829
0.000268472
0.000259683
0.000250775
0.000241336
0.000231043
0.000219107
0.00020853
0.000198595
0.000191307
0.00018429
0.00017974
0.000174682
0.000162211
3.18778e-07
9.59097e-07
2.95031e-06
9.35637e-06
2.51155e-05
4.98476e-05
8.07211e-05
0.000116988
0.000155198
0.000191751
0.00022448
0.000251128
0.000271619
0.000285233
0.000295439
0.000301898
0.000305947
0.000309337
0.000312956
0.000317306
0.000322303
0.000327505
0.000331561
0.000332816
0.000329998
0.000320671
0.000306645
0.000286894
0.000262615
0.000236875
0.000215156
0.00019882
0.000188619
0.000174613
0.000159669
0.000158275
0.000144655
0.000129499
0.000123116
0.000123487
0.000120069
0.000138226
0.000169534
0.000214014
0.000267848
0.000334553
0.000403751
0.000480322
0.000556335
0.000632778
0.000706011
0.000776335
0.000842422
0.000904676
0.000962873
0.0010174
0.00106848
0.00111639
0.00116147
0.00120393
0.00124405
0.00128202
0.00131808
0.00135239
0.00138512
0.00141634
0.00144613
0.0014745
0.00150162
0.0015277
0.00155231
0.00157573
0.00159793
0.00161895
0.00163881
0.00165757
0.00167524
0.00169185
0.00170736
0.00172197
0.0017356
0.00174826
0.00175992
0.00177057
0.0017802
0.00178878
0.00179629
0.00180268
0.00180794
0.00181226
0.00181563
0.00181804
0.00181944
0.00181991
0.00181925
0.00181752
0.00181517
0.00181166
0.00180674
0.00180058
0.00179312
0.00177031
0.00173925
0.00170737
0.00167448
0.0016407
0.00160608
0.00157067
0.0015346
0.00149806
0.00146086
0.0014233
0.00138587
0.00134859
0.00131124
0.00127387
0.00123654
0.001199
0.001161
0.00112272
0.0010845
0.00104647
0.00100911
0.000972899
0.000937813
0.000904445
0.000873702
0.000846952
0.000826039
0.000809742
0.000797989
0.000791174
0.000789856
0.000794335
0.000804775
0.000823238
0.000839674
0.000829109
0.00081915
0.000809084
0.000798444
0.000787018
0.000774497
0.00076074
0.000746079
0.000729869
0.00071231
0.00069357
0.000673851
0.000653579
0.000633161
0.000612916
0.000593228
0.000574542
0.00055707
0.000540659
0.000525322
0.000511356
0.00049862
0.000487085
0.000476477
0.000466781
0.00045758
0.00044896
0.000440424
0.000432096
0.000423334
0.000414132
0.000404093
0.000393395
0.000381229
0.00036712
0.000352196
0.000336807
0.000321471
0.000306596
0.000293788
0.000281315
0.000270545
0.000248327
1.93036e-07
1.57612e-06
7.73424e-06
2.60171e-05
5.73058e-05
0.000100815
0.000155406
0.000215178
0.000271081
0.000316536
0.000349697
0.000371703
0.000385909
0.000393434
0.000395819
0.000394994
0.000392365
0.000389433
0.00038743
0.000387283
0.000389407
0.00039364
0.000399006
0.000403896
0.000406238
0.00039674
0.000371151
0.000345608
0.000317649
0.000284744
0.00024985
0.000224146
0.000207363
0.000198386
0.000193436
0.000183616
0.000174463
0.000156399
0.000144201
0.000149426
0.000176318
0.000228494
0.000285313
0.000361121
0.000443084
0.000536547
0.000628765
0.000724486
0.000815288
0.000903484
0.000986447
0.00106456
0.00113755
0.00120564
0.0012691
0.00132824
0.00138343
0.00143487
0.00148312
0.00152863
0.0015713
0.00161147
0.00164939
0.00168528
0.00171929
0.00175156
0.00178221
0.00181136
0.00183909
0.00186543
0.0018904
0.00191405
0.00193637
0.00195738
0.00197705
0.00199547
0.00201272
0.0020288
0.00204373
0.00205755
0.00207022
0.00208174
0.00209209
0.00210125
0.00210919
0.00211589
0.00212129
0.00212537
0.00212054
0.00210403
0.00208643
0.00206751
0.002047
0.00202562
0.0020034
0.00197953
0.0019546
0.00192841
0.0019011
0.00187284
0.00184384
0.00181412
0.00178339
0.0017516
0.00171873
0.00168474
0.00164965
0.00161347
0.00157604
0.00153726
0.0014977
0.00145768
0.00141751
0.00137721
0.0013368
0.00129595
0.00125474
0.00121364
0.00117256
0.00113136
0.00109003
0.00104855
0.00100734
0.00096822
0.000930651
0.00089455
0.000860721
0.000830044
0.000801973
0.000777573
0.000758005
0.000744045
0.000737466
0.000738208
0.000746385
0.000762233
0.000784535
0.000813563
0.000850109
0.00087083
0.000871287
0.000870728
0.000868582
0.000864452
0.000858274
0.000849717
0.000838837
0.000825871
0.000811081
0.000794808
0.000777473
0.000759403
0.000741086
0.000722998
0.000705461
0.00068867
0.000672803
0.000658078
0.000644461
0.00063199
0.000620546
0.000610084
0.000600272
0.000591119
0.000582313
0.00057374
0.000564866
0.000555605
0.0005458
0.000535009
0.000522833
0.000508716
0.000493558
0.000476485
0.000459419
0.000440098
0.000423698
0.000404163
0.000388285
0.00035489
1.26108e-06
6.19458e-06
2.53256e-05
6.81137e-05
0.000136784
0.000221834
0.000302239
0.000363757
0.000407204
0.000436621
0.000455423
0.000466122
0.000470797
0.00047088
0.000467856
0.000462978
0.000457219
0.000451503
0.000446986
0.000444626
0.000445027
0.000448269
0.000453698
0.000459909
0.000464727
0.000448135
0.000411362
0.000376431
0.000341822
0.000305625
0.000274368
0.000250779
0.000241269
0.000239458
0.000223626
0.000205334
0.000180168
0.000166049
0.000178829
0.000214125
0.000278405
0.000351431
0.000435754
0.000533996
0.000635732
0.000742996
0.000846186
0.000948291
0.00104444
0.0011361
0.00122206
0.00130228
0.00137721
0.00144756
0.00151325
0.00157414
0.00163098
0.00168402
0.00173363
0.00178008
0.00182356
0.00186441
0.00190282
0.00193901
0.00197318
0.00200548
0.00203604
0.00206502
0.0020926
0.00211883
0.00214373
0.00216731
0.00218957
0.00221049
0.00223001
0.00223384
0.00223582
0.00223643
0.00223543
0.00223299
0.00222914
0.00222388
0.00221723
0.00220917
0.00219971
0.00218888
0.00217675
0.00216344
0.00214921
0.00213377
0.00211714
0.0021
0.00208168
0.00206192
0.00204108
0.00201912
0.00199609
0.00197195
0.00194672
0.00192034
0.00189265
0.00186353
0.00183303
0.00180113
0.00176772
0.00173275
0.00169623
0.0016582
0.00161873
0.00157808
0.00153649
0.00149415
0.00145125
0.00140779
0.00136362
0.00131878
0.00127418
0.00123047
0.00118696
0.00114335
0.00109953
0.00105551
0.00101179
0.000968043
0.000923866
0.00088049
0.000839064
0.000800688
0.000766496
0.000737471
0.00071436
0.000698112
0.000689516
0.0006886
0.000695536
0.000710193
0.000732993
0.000764497
0.000803336
0.000849
0.000901788
0.000928383
0.000937069
0.000943078
0.000946047
0.00094598
0.000942822
0.000936526
0.000927205
0.000915219
0.000901061
0.00088558
0.000869234
0.000852465
0.000835732
0.0008193
0.000803532
0.000788706
0.000774904
0.000762211
0.000750604
0.000740037
0.000730268
0.00072125
0.000712745
0.000704527
0.000696196
0.000687541
0.000678454
0.000668248
0.000656914
0.000643502
0.000629208
0.000611842
0.000594852
0.000574405
0.000556159
0.000532177
0.000514221
0.000476414
7.32069e-06
1.94507e-05
7.23441e-05
0.000171852
0.000273109
0.000355533
0.000417281
0.000460314
0.000485959
0.000502013
0.000511291
0.000515298
0.000515345
0.000512493
0.000507745
0.000502051
0.000496044
0.000490635
0.000486795
0.000485147
0.000486205
0.000490172
0.000496418
0.000503744
0.00051001
0.000512152
0.000469336
0.000421207
0.000378761
0.000342523
0.000314219
0.000295845
0.000268788
0.000250222
0.000229631
0.000205856
0.000189603
0.000205241
0.000242595
0.000316735
0.000398588
0.00049236
0.00059528
0.000706017
0.000817433
0.000928987
0.00103555
0.00113831
0.00123478
0.00132577
0.00141196
0.00149319
0.00156877
0.00163958
0.00170565
0.00176726
0.00182478
0.00187845
0.00192857
0.00197538
0.00201912
0.00206006
0.00209838
0.00213433
0.00216821
0.00220032
0.00222989
0.00223697
0.00224425
0.00225104
0.00225648
0.00226069
0.00226373
0.00226569
0.00226672
0.00226704
0.00226668
0.00226551
0.00226354
0.00226084
0.00225739
0.00225318
0.00224819
0.00224241
0.00223582
0.00222837
0.00222005
0.0022104
0.00220028
0.0021893
0.00217662
0.00216266
0.00214723
0.00213012
0.00211129
0.00209054
0.00206803
0.00204394
0.00201821
0.00199071
0.00196117
0.00192956
0.00189607
0.00186074
0.00182349
0.00178431
0.00174324
0.00170056
0.00165694
0.0016122
0.00156644
0.00151986
0.00147265
0.00142498
0.00137693
0.00132862
0.0012802
0.0012315
0.00118256
0.00113331
0.00108375
0.00103396
0.000984106
0.000934491
0.00088577
0.000838767
0.000794449
0.000753962
0.000718535
0.000689239
0.000666947
0.000652454
0.000646453
0.00064907
0.000660291
0.000680309
0.000709215
0.000746789
0.000791808
0.000844536
0.000905876
0.000973786
0.00100695
0.00102168
0.00103267
0.00103983
0.00104312
0.00104266
0.0010387
0.00103151
0.00102146
0.00100885
0.000994252
0.00097827
0.000961578
0.000945188
0.000929323
0.000914257
0.000900109
0.000887029
0.000875074
0.000864225
0.000854317
0.000845266
0.00083686
0.000828829
0.000820858
0.00081262
0.000804012
0.000794281
0.00078361
0.000770753
0.000757133
0.000740056
0.000723182
0.000702037
0.000684129
0.00065745
0.000637371
0.000598021
1.24763e-05
4.72157e-05
0.000154603
0.000272753
0.000369903
0.000440195
0.000487618
0.000514732
0.000531384
0.000539268
0.000541472
0.000540026
0.000536273
0.000531169
0.000525581
0.000520814
0.000516589
0.000513365
0.000511529
0.000511903
0.000514955
0.000520791
0.000528562
0.000537091
0.000544206
0.000546364
0.000540587
0.000508439
0.000453372
0.000407246
0.000343741
0.000300097
0.000277144
0.000252939
0.000231928
0.000211662
0.000226273
0.000262988
0.000337829
0.000427416
0.000524996
0.000632174
0.000744856
0.000860619
0.000974827
0.00108624
0.00119207
0.00129221
0.00138756
0.00147878
0.00156424
0.00164468
0.00172012
0.0017909
0.00185715
0.0019191
0.00197699
0.00203102
0.00208142
0.00212841
0.00217219
0.00221296
0.00225087
0.00227905
0.00227837
0.00228073
0.00228426
0.00228765
0.00229096
0.0022939
0.00229644
0.00229877
0.00230097
0.00230303
0.00230503
0.00230716
0.00230933
0.00231143
0.00231328
0.00231475
0.00231569
0.00231596
0.00231543
0.00231396
0.00231144
0.00230745
0.00230243
0.00229576
0.00228684
0.00227586
0.00226268
0.00224726
0.00222962
0.00220986
0.00218803
0.00216406
0.00213814
0.00211031
0.00208056
0.00204888
0.00201559
0.00198049
0.00194325
0.0019038
0.00186207
0.00181811
0.00177201
0.00172395
0.00167404
0.00162267
0.00157015
0.0015168
0.0014629
0.0014087
0.0013544
0.00130016
0.00124611
0.00119226
0.00113866
0.00108527
0.0010321
0.000979218
0.000926875
0.000875502
0.00082578
0.000778492
0.000734575
0.000695308
0.000662025
0.000635896
0.000617991
0.000608983
0.000609539
0.000619742
0.000639358
0.000668799
0.000707887
0.000756179
0.000813529
0.000878209
0.000950082
0.00103116
0.00109414
0.0011147
0.00113104
0.00114312
0.00115093
0.00115461
0.00115439
0.0011505
0.00114335
0.00113323
0.00112075
0.00110652
0.00109102
0.0010749
0.00105838
0.00104259
0.00102777
0.00101392
0.00100115
0.000989503
0.000978898
0.000969236
0.000960318
0.000951865
0.000943598
0.00093512
0.000926315
0.000916438
0.00090572
0.000892802
0.000879138
0.000862005
0.000844825
0.000822881
0.000804556
0.000777515
0.000755177
0.000715092
1.47262e-05
8.15466e-05
0.000216558
0.000341828
0.000433241
0.000494302
0.000529917
0.000547981
0.000554882
0.000554995
0.000551344
0.000546049
0.000540303
0.000534542
0.00053036
0.000526926
0.000525188
0.000525457
0.000527484
0.000530886
0.000535923
0.000543389
0.000552316
0.000561094
0.000566992
0.000565823
0.000553756
0.000521096
0.000459372
0.000389915
0.000335809
0.00030387
0.000275143
0.000256948
0.000235344
0.000242655
0.000275148
0.000344896
0.00043594
0.000536816
0.000644648
0.000758475
0.00087481
0.000991194
0.00110472
0.00121332
0.00131641
0.0014155
0.00151007
0.0015996
0.00168409
0.00176387
0.00183905
0.0019098
0.00197623
0.00203849
0.00209674
0.00215113
0.00220181
0.00224895
0.00229272
0.00233322
0.00233578
0.0023306
0.0023313
0.00233356
0.00233594
0.00233882
0.00234231
0.00234637
0.00235076
0.00235544
0.00236036
0.00236538
0.00237043
0.00237548
0.00238052
0.00238537
0.0023898
0.0023936
0.00239654
0.00239839
0.00239891
0.00239775
0.00239504
0.0023908
0.002384
0.00237459
0.00236252
0.00234783
0.00233062
0.002311
0.00228908
0.00226502
0.00223913
0.00221182
0.00218266
0.00215158
0.0021185
0.00208329
0.00204565
0.00200538
0.00196249
0.00191694
0.00186874
0.00181798
0.00176483
0.00170959
0.00165264
0.00159438
0.00153525
0.00147566
0.00141596
0.00135647
0.00129741
0.00123899
0.00118128
0.00112435
0.00106821
0.00101284
0.000958257
0.000904551
0.000852126
0.000801286
0.000752841
0.000707667
0.000666756
0.00063181
0.000604226
0.000585243
0.000575902
0.000576461
0.000587264
0.000608383
0.000639014
0.000679792
0.000730333
0.000789651
0.000858935
0.000936325
0.00102036
0.00111399
0.00120737
0.00122984
0.00124798
0.00126203
0.0012713
0.00127667
0.00127826
0.0012763
0.00127108
0.00126287
0.001252
0.00123891
0.00122421
0.00120854
0.00119269
0.00117675
0.00116121
0.0011464
0.00113249
0.00111961
0.00110776
0.00109687
0.00108675
0.00107715
0.00106779
0.00105826
0.00104842
0.00103756
0.0010259
0.0010121
0.000997491
0.000979564
0.000961342
0.000938286
0.000918524
0.0008913
0.000867141
0.000826514
1.66895e-05
0.000114125
0.000271292
0.000399788
0.00048396
0.000531974
0.000555024
0.000563324
0.0005619
0.000555951
0.000548788
0.000542127
0.000536605
0.00053245
0.000529806
0.000528558
0.000529592
0.000532807
0.000537888
0.000544399
0.000552217
0.000560525
0.000568767
0.000574827
0.000574981
0.00056682
0.000541859
0.000492405
0.000429656
0.000371379
0.000329578
0.000299548
0.000277961
0.000263027
0.000255242
0.000282185
0.000339418
0.000428514
0.000528888
0.000636837
0.000749673
0.0008656
0.000981974
0.00109672
0.00120735
0.00131288
0.00141461
0.00151228
0.00160512
0.0016933
0.00177696
0.00185625
0.00193129
0.00200214
0.00206887
0.00213155
0.00219026
0.00224508
0.00229611
0.00234345
0.0023872
0.00238934
0.00238185
0.00238173
0.00238471
0.00238837
0.00239257
0.00239733
0.00240274
0.0024087
0.002415
0.00242152
0.00242812
0.00243465
0.00244098
0.00244703
0.00245267
0.00245767
0.00246181
0.00246483
0.00246652
0.00246662
0.00246472
0.00246104
0.00245549
0.00244738
0.00243655
0.00242297
0.00240676
0.00238831
0.00236765
0.00234479
0.00231983
0.00229287
0.00226392
0.00223281
0.00219958
0.00216418
0.00212651
0.00208639
0.00204357
0.00199784
0.00194912
0.00189739
0.00184275
0.00178535
0.00172545
0.00166349
0.00160004
0.0015357
0.00147105
0.00140655
0.00134257
0.00127944
0.00121736
0.00115657
0.00109693
0.00103859
0.000981504
0.000925711
0.000871352
0.000818553
0.00076793
0.000719619
0.000674838
0.000634725
0.000600929
0.000574914
0.000557908
0.000550885
0.000554332
0.000568122
0.000591524
0.000624861
0.000666625
0.000717147
0.000776937
0.000843333
0.000918535
0.00100247
0.00109407
0.0011951
0.00130462
0.00136951
0.00138562
0.00139664
0.00140463
0.00140931
0.00141036
0.00140845
0.00140381
0.00139661
0.00138698
0.00137502
0.00136125
0.0013464
0.00133111
0.00131556
0.00129985
0.00128433
0.00126932
0.00125507
0.00124168
0.00122914
0.00121731
0.00120595
0.00119482
0.00118349
0.00117183
0.00115918
0.00114571
0.00113019
0.00111378
0.00109425
0.00107418
0.00104953
0.00102759
0.000999443
0.000973619
0.000932349
1.81316e-05
0.000142323
0.000314592
0.000446159
0.000525026
0.000562571
0.000574308
0.000572297
0.000565068
0.000556281
0.000547935
0.00054109
0.000535991
0.000533204
0.000532287
0.000533344
0.000536769
0.000542233
0.000549198
0.000557003
0.000564805
0.000571332
0.000575365
0.000575053
0.000568374
0.000548483
0.000509487
0.00045688
0.000401885
0.000356878
0.000326072
0.000299476
0.000285126
0.00027068
0.000284734
0.000328593
0.000408544
0.000505893
0.000611591
0.000722705
0.0008368
0.000952049
0.00106647
0.00117839
0.0012857
0.00138909
0.00148912
0.00158466
0.00167581
0.00176282
0.0018458
0.00192482
0.00199993
0.00207111
0.00213836
0.00220166
0.002261
0.0023164
0.00236786
0.00241541
0.00242853
0.00242197
0.0024218
0.00242551
0.002431
0.00243721
0.0024437
0.00245043
0.00245744
0.00246461
0.00247179
0.00247885
0.00248565
0.00249205
0.00249791
0.00250308
0.00250735
0.00251057
0.00251258
0.00251316
0.00251212
0.0025092
0.0025042
0.00249753
0.00248854
0.00247696
0.0024628
0.00244606
0.00242679
0.00240506
0.00238094
0.00235456
0.00232604
0.00229544
0.00226276
0.00222787
0.00219067
0.00215106
0.00210889
0.00206398
0.00201609
0.00196498
0.00191051
0.00185274
0.00179183
0.0017281
0.00166194
0.00159397
0.00152498
0.00145572
0.00138686
0.00131887
0.00125206
0.00118682
0.00112322
0.00106148
0.00100125
0.000942895
0.000886284
0.000831736
0.000779432
0.000729572
0.000682875
0.000640255
0.00060287
0.000572203
0.000549788
0.000537144
0.00053513
0.000544335
0.000563428
0.0005921
0.000627761
0.000670533
0.000720292
0.000773996
0.000834504
0.000902428
0.000977379
0.00105909
0.00114822
0.0012454
0.00135312
0.0014691
0.0015377
0.00154443
0.00154726
0.00154849
0.00154777
0.00154421
0.00153877
0.00153152
0.00152253
0.00151156
0.0014988
0.00148505
0.00147091
0.00145597
0.0014406
0.00142495
0.00140927
0.0013939
0.00137905
0.00136479
0.00135104
0.0013376
0.00132425
0.00131062
0.00129656
0.00128149
0.00126551
0.00124759
0.00122865
0.00120681
0.0011842
0.00115745
0.00113282
0.00110303
0.00107513
0.00103317
1.9587e-05
0.000162838
0.000353268
0.000490925
0.000561393
0.000587325
0.000589552
0.000580914
0.000568868
0.000557498
0.000548617
0.000542566
0.000539342
0.000538425
0.000539303
0.000542373
0.000546697
0.000552263
0.00055847
0.00056453
0.00056955
0.000572639
0.000572066
0.00056491
0.000547033
0.000514866
0.000471867
0.00042387