/*--------------------------------*- C++ -*----------------------------------*\
| =========                 |                                                 |
| \\      /  F ield         | OpenFOAM: The Open Source CFD Toolbox           |
|  \\    /   O peration     | Version:  2112                                  |
|   \\  /    A nd           | Website:  www.openfoam.com                      |
|    \\/     M anipulation  |                                                 |
\*---------------------------------------------------------------------------*/
FoamFile
{
    version     2.0;
    format      ascii;
    arch        "LSB;label=32;scalar=64";
    class       volScalarField;
    location    "0.25";
    object      k;
}
// * * * * * * * * * * * * * * * * * * * * * * * * * * * * * * * * * * * * * //

dimensions      [0 2 -2 0 0 0 0];

internalField   nonuniform List<scalar> 
12225
(
0.375009
0.375608
0.377703
0.378244
0.377919
0.376788
0.375998
0.375558
0.375125
0.374748
0.374402
0.374156
0.373913
0.373743
0.372673
0.37394
0.377445
0.41144
0.375032
0.369633
0.360248
0.351313
0.340984
0.332115
0.324108
0.320463
0.317947
0.31556
0.311217
0.30782
0.301594
0.298306
0.292881
0.288435
0.278528
0.267879
0.374935
0.060341
0.0312577
0.025125
0.0214199
0.0192269
0.0190709
0.0202822
0.0255374
0.0330674
0.0361417
0.0364944
0.0368395
0.0384849
0.0394177
0.0392612
0.0383799
0.0359617
0.374987
0.30453
0.101955
0.0389332
0.0409607
0.0344248
0.0141972
0.00482985
0.00211422
0.00179558
0.00201766
0.00248978
0.0025175
0.00255769
0.00274147
0.00329924
0.00458137
0.00711625
0.375368
0.307081
0.264445
0.27083
0.270725
0.221219
0.14967
0.119334
0.11177
0.111949
0.112542
0.111282
0.10287
0.0912106
0.0886271
0.0894727
0.0939876
0.105593
0.375733
0.320327
0.314998
0.297872
0.255522
0.15649
0.107315
0.100525
0.10567
0.127023
0.141799
0.148317
0.15404
0.160729
0.164809
0.165102
0.162808
0.159009
0.375789
0.341731
0.345438
0.336519
0.300478
0.197257
0.13822
0.128186
0.133507
0.167078
0.210091
0.233062
0.240917
0.241482
0.238125
0.219673
0.184319
0.1599
0.375957
0.352899
0.350518
0.345457
0.32139
0.24936
0.205938
0.196991
0.198016
0.206059
0.221806
0.234572
0.241612
0.243595
0.24319
0.238051
0.22197
0.203667
0.375216
0.3602
0.35576
0.34386
0.311005
0.274348
0.253864
0.245446
0.233647
0.20592
0.175291
0.157908
0.154416
0.156506
0.168858
0.183972
0.19051
0.191425
0.374999
0.359855
0.336825
0.29503
0.25266
0.229619
0.226709
0.227346
0.221635
0.187593
0.140901
0.121128
0.118225
0.118554
0.121836
0.127782
0.134111
0.142162
0.375009
0.351756
0.330214
0.291479
0.222544
0.196084
0.201885
0.228824
0.236797
0.233952
0.213978
0.169623
0.134162
0.113807
0.107262
0.106993
0.109418
0.122159
0.375663
0.313286
0.316813
0.307106
0.244217
0.207623
0.206761
0.216689
0.218209
0.210896
0.179322
0.14569
0.123
0.109445
0.104203
0.103649
0.105699
0.117663
0.376032
0.313312
0.335987
0.33601
0.295696
0.256483
0.242545
0.233924
0.219432
0.18062
0.141534
0.125251
0.122265
0.122445
0.123551
0.126745
0.134007
0.146548
0.37516
0.320479
0.322129
0.316834
0.303596
0.284451
0.265091
0.252546
0.247823
0.243772
0.230858
0.201356
0.181622
0.17402
0.167955
0.158866
0.151491
0.149318
0.375497
0.342936
0.259495
0.205761
0.204431
0.221304
0.261227
0.286644
0.297155
0.299135
0.297731
0.292721
0.285731
0.272082
0.22888
0.170402
0.138386
0.125853
0.37515
0.350951
0.295798
0.24062
0.193311
0.181054
0.193384
0.242677
0.2807
0.298713
0.306303
0.308231
0.307786
0.303148
0.282124
0.225008
0.18506
0.162928
0.375136
0.363176
0.337491
0.283058
0.25872
0.261286
0.278138
0.282536
0.277545
0.272425
0.274278
0.281766
0.286648
0.288235
0.287187
0.283368
0.282017
0.279835
0.375038
0.36103
0.327244
0.289436
0.288484
0.305973
0.310603
0.291534
0.218623
0.190834
0.190272
0.194323
0.206211
0.231421
0.257755
0.27942
0.293784
0.300815
0.375014
0.366934
0.348708
0.32434
0.312528
0.303187
0.278933
0.23408
0.207522
0.199384
0.200135
0.202769
0.207
0.2139
0.232151
0.255037
0.267244
0.269845
0.375055
0.352935
0.325108
0.29067
0.276824
0.263273
0.248229
0.245598
0.259239
0.261165
0.240026
0.210548
0.20602
0.207529
0.214155
0.226407
0.234498
0.240822
0.375155
0.356026
0.299738
0.22507
0.212406
0.222899
0.251195
0.27958
0.295413
0.293748
0.264089
0.180448
0.151012
0.151694
0.15995
0.185074
0.209089
0.226432
0.37504
0.357102
0.285633
0.240591
0.250033
0.262881
0.270011
0.289045
0.296739
0.291249
0.245056
0.146732
0.101351
0.0897472
0.0891378
0.0912514
0.0979799
0.105936
0.375035
0.342259
0.264998
0.270711
0.314474
0.308934
0.267732
0.249298
0.217035
0.141167
0.087185
0.0697728
0.0691077
0.0739067
0.0805964
0.0836689
0.0846155
0.0847227
0.37496
0.320802
0.287426
0.306921
0.32993
0.309948
0.23177
0.172803
0.128762
0.0954802
0.0806991
0.0796233
0.0851295
0.0940169
0.0976373
0.0982125
0.0967851
0.0887898
0.375091
0.342721
0.31215
0.313498
0.322172
0.305965
0.238462
0.181301
0.150222
0.132362
0.12571
0.126421
0.134936
0.138858
0.138188
0.133405
0.119683
0.106336
0.37511
0.351378
0.345291
0.328979
0.312691
0.274965
0.203372
0.169348
0.163532
0.161138
0.151274
0.139653
0.13785
0.142861
0.147886
0.147265
0.138924
0.122236
0.375004
0.354923
0.355017
0.340813
0.302111
0.253034
0.184527
0.113021
0.0699241
0.0552132
0.0474507
0.0393611
0.0339269
0.0331351
0.0364101
0.0391884
0.0375494
0.0256615
0.374928
0.031169
0.00958406
0.0101925
0.0122343
0.0149677
0.0171805
0.0182873
0.0187772
0.0196623
0.0216474
0.0261244
0.0339063
0.0423221
0.0496139
0.0541658
0.0574144
0.0583533
0.375043
0.370293
0.362151
0.35894
0.355124
0.351335
0.347694
0.344035
0.339793
0.335687
0.332601
0.331228
0.331161
0.331349
0.331466
0.331289
0.33013
0.327858
0.38048
0.376589
0.375745
0.376507
0.377436
0.377531
0.3772
0.376305
0.375962
0.375963
0.376301
0.376886
0.377161
0.37723
0.377214
0.377056
0.376365
0.375024
0.362779
0.360526
0.302281
0.2657
0.253531
0.249384
0.227938
0.213577
0.220686
0.220626
0.215386
0.200448
0.188721
0.180704
0.174866
0.170606
0.167163
0.164522
0.162828
0.16156
0.160444
0.159814
0.159723
0.159791
0.160042
0.160496
0.16155
0.16257
0.164361
0.166472
0.168056
0.171752
0.177044
0.181611
0.19335
0.200189
0.225886
0.377004
0.503882
0.527135
0.532567
0.512347
0.468723
0.433811
0.410282
0.402717
0.37831
0.357644
0.336875
0.327808
0.326504
0.325638
0.321412
0.324596
0.355234
0.467603
0.522378
0.589741
0.813563
1.11159
1.23074
1.1801
0.605571
0.257093
0.195558
0.186104
0.185473
0.181807
0.17374
0.162745
0.150074
0.137376
0.125055
0.114959
0.106677
0.100543
0.0975696
0.0963739
0.0963509
0.0964757
0.096528
0.0965651
0.0965749
0.0965671
0.0964996
0.0963939
0.0962681
0.0961111
0.0959354
0.0957612
0.0956558
0.0955714
0.0954985
0.0954513
0.0954281
0.0954414
0.0955817
0.0957693
0.0959884
0.0962623
0.0966142
0.0970214
0.0975038
0.0980215
0.0986072
0.0991617
0.0997097
0.100206
0.10068
0.101096
0.1015
0.101807
0.102138
0.102444
0.102658
0.102736
0.102537
0.102171
0.101807
0.101472
0.101178
0.100863
0.100419
0.0997791
0.0989707
0.0981136
0.0974836
0.0974265
0.0977338
0.09851
0.0991325
0.0993683
0.0976277
0.0962379
0.0974896
0.111508
0.214636
0.454314
0.590668
0.710456
0.790642
0.806814
0.788318
0.737809
0.721022
0.753661
0.986362
1.59851
1.81386
1.52658
0.636048
0.292335
0.218665
0.199072
0.189571
0.181535
0.174268
0.168112
0.163466
0.161025
0.160224
0.159484
0.158876
0.158633
0.158661
0.159133
0.159729
0.160193
0.16042
0.160247
0.160337
0.16098
0.161851
0.16246
0.163566
0.165056
0.16787
0.169738
0.170939
0.173931
0.355296
0.315945
0.299699
0.312949
0.316961
0.301021
0.264388
0.219218
0.181251
0.165928
0.15609
0.148926
0.144251
0.141012
0.138779
0.137138
0.135903
0.13526
0.135008
0.13496
0.134915
0.134918
0.13487
0.134817
0.13475
0.134631
0.134451
0.134113
0.134011
0.134183
0.134972
0.13636
0.139835
0.143635
0.151291
0.161847
0.178085
0.219773
0.344722
0.475232
0.51338
0.502798
0.488373
0.494832
0.502287
0.507827
0.47911
0.429056
0.346216
0.301968
0.294631
0.295756
0.295919
0.293832
0.300128
0.341933
0.37464
0.404737
0.615183
0.999606
0.828542
0.517437
0.292802
0.196001
0.162742
0.147894
0.132777
0.121879
0.111281
0.104527
0.0994172
0.0970067
0.0959294
0.0956131
0.0959245
0.0975032
0.0989446
0.100851
0.103198
0.104577
0.105907
0.106585
0.106882
0.106967
0.106573
0.105325
0.104112
0.102874
0.101189
0.0995406
0.0980085
0.0964923
0.0952397
0.0939664
0.0926355
0.0914522
0.0903974
0.0893877
0.0883893
0.0873776
0.0864855
0.0855967
0.0850133
0.0844832
0.0842085
0.0840878
0.0840679
0.0842221
0.0844552
0.0847881
0.0852382
0.0858121
0.0866088
0.0877734
0.0894328
0.0915117
0.0932216
0.0938935
0.0937749
0.0937179
0.0941926
0.0952174
0.0959415
0.0960929
0.0957073
0.0942494
0.0910247
0.0840723
0.0771383
0.0734657
0.0692106
0.0583811
0.0466154
0.0443577
0.0475868
0.0586718
0.0908583
0.187103
0.323014
0.419457
0.446738
0.44345
0.436726
0.42575
0.361732
0.284733
0.283168
0.37159
0.715558
0.821976
0.504974
0.25624
0.196893
0.176336
0.165707
0.157929
0.152216
0.148244
0.145941
0.144786
0.144335
0.145319
0.146074
0.146386
0.146412
0.146535
0.146784
0.147475
0.148214
0.147976
0.146721
0.145734
0.144713
0.143829
0.14282
0.141252
0.137202
0.13247
0.122362
0.126058
0.372655
0.281489
0.283396
0.306537
0.301698
0.275553
0.217399
0.172793
0.158203
0.151623
0.147877
0.147935
0.148909
0.151146
0.155086
0.159471
0.163413
0.16719
0.169849
0.172395
0.173957
0.174981
0.174879
0.174329
0.173151
0.170883
0.167792
0.16497
0.160917
0.156574
0.152178
0.147083
0.143301
0.142036
0.142237
0.143633
0.147609
0.158568
0.189462
0.284457
0.438425
0.474943
0.491641
0.537489
0.572514
0.576714
0.56038
0.516848
0.392149
0.281828
0.270298
0.283147
0.296584
0.297691
0.299683
0.311828
0.366199
0.535392
0.644902
0.527024
0.311801
0.20299
0.146687
0.11977
0.106197
0.0979318
0.0936381
0.0918243
0.0913071
0.0921955
0.0948779
0.0973486
0.101226
0.107049
0.11604
0.126002
0.136575
0.146704
0.154579
0.159942
0.163126
0.164527
0.165044
0.165044
0.163841
0.160995
0.157657
0.153929
0.149529
0.144947
0.139729
0.134029
0.129147
0.124499
0.119822
0.115868
0.112735
0.109983
0.10761
0.105204
0.102836
0.0994616
0.0963247
0.0926741
0.0894736
0.0871677
0.0857104
0.0849278
0.0845585
0.084451
0.0846039
0.0849485
0.0854052
0.0859597
0.0865992
0.0871744
0.0876948
0.0881191
0.0884675
0.0887783
0.0891479
0.0898362
0.091053
0.0921528
0.092364
0.0918061
0.0892974
0.0807015
0.0621635
0.0469381
0.0351336
0.0250086
0.0186717
0.0156064
0.0155103
0.0182815
0.027059
0.0529648
0.133411
0.189301
0.191115
0.166083
0.156961
0.173579
0.177251
0.170723
0.193843
0.384617
0.737016
0.683046
0.313146
0.182608
0.143653
0.124241
0.111064
0.100991
0.0938747
0.0899618
0.0881964
0.0933812
0.112177
0.133182
0.143063
0.146812
0.147971
0.148015
0.147449
0.14696
0.146602
0.14632
0.146003
0.145291
0.143668
0.141309
0.138005
0.133303
0.12468
0.105081
0.0904016
0.0694911
0.406224
0.342955
0.35603
0.321824
0.240126
0.176907
0.158487
0.152779
0.15497
0.161618
0.172574
0.183802
0.193267
0.202489
0.210724
0.217214
0.22357
0.228415
0.232216
0.23497
0.236427
0.236488
0.235877
0.233632
0.229764
0.224414
0.217081
0.210296
0.202272
0.192649
0.185339
0.176967
0.168043
0.161294
0.153152
0.148388
0.148411
0.149756
0.155871
0.179158
0.251659
0.383307
0.45146
0.512494
0.558381
0.579237
0.574632
0.543147
0.432254
0.265401
0.261751
0.298936
0.312509
0.326154
0.347744
0.400027
0.466517
0.50452
0.385433
0.226478
0.151675
0.116242
0.0998383
0.0927397
0.0901943
0.0898069
0.0915755
0.0939832
0.0990523
0.108026
0.121358
0.137022
0.153856
0.17277
0.18923
0.197984
0.201195
0.202121
0.202052
0.200585
0.197995
0.195135
0.192438
0.190075
0.18807
0.186076
0.183696
0.18101
0.178249
0.175271
0.171917
0.168032
0.163427
0.158054
0.151858
0.145154
0.138606
0.132309
0.12696
0.122723
0.120101
0.118229
0.116732
0.115185
0.112879
0.109804
0.105683
0.101268
0.0974723
0.0944998
0.092447
0.0912002
0.090347
0.0897629
0.089329
0.0890351
0.0889031
0.0888981
0.0889939
0.08899
0.0888625
0.088563
0.0879832
0.0878198
0.0884546
0.092062
0.100281
0.110496
0.117936
0.120191
0.119606
0.112649
0.09795
0.0927369
0.0876393
0.0736007
0.0636322
0.0646871
0.0807476
0.111224
0.114288
0.102284
0.0852793
0.084951
0.0893171
0.104631
0.187322
0.536165
0.717664
0.507522
0.207124
0.144156
0.127837
0.121124
0.117193
0.122042
0.131177
0.140457
0.148838
0.155089
0.158748
0.160191
0.160623
0.160076
0.159132
0.156707
0.153691
0.150709
0.148314
0.146661
0.145651
0.145152
0.145195
0.145547
0.14675
0.150177
0.155995
0.15953
0.162639
0.167326
0.432292
0.35305
0.205793
0.157555
0.146442
0.149083
0.155138
0.168614
0.182749
0.191756
0.200289
0.209957
0.219108
0.228266
0.236317
0.244309
0.251966
0.258573
0.265285
0.270514
0.275823
0.280353
0.283752
0.28594
0.286754
0.286389
0.28369
0.275741
0.26411
0.248053
0.228401
0.210267
0.194135
0.180716
0.1712
0.161818
0.154057
0.152145
0.152974
0.157358
0.174742
0.21796
0.321234
0.429625
0.50664
0.551523
0.552752
0.536478
0.443155
0.26005
0.284205
0.371361
0.409563
0.409524
0.411959
0.416261
0.414228
0.29178
0.17795
0.126002
0.101564
0.0916195
0.0883721
0.0878638
0.0898966
0.0925632
0.0998813
0.11208
0.131067
0.147577
0.164911
0.182929
0.20245
0.210006
0.213048
0.21387
0.213675
0.210867
0.205099
0.198745
0.192158
0.184976
0.178738
0.17398
0.171305
0.170293
0.170246
0.170765
0.171232
0.170975
0.170578
0.169559
0.167684
0.164699
0.160504
0.155145
0.148943
0.142167
0.135222
0.128689
0.123348
0.119955
0.118653
0.11814
0.117976
0.117776
0.117278
0.116399
0.114689
0.112121
0.108582
0.104734
0.101477
0.0990436
0.0968047
0.094878
0.0932878
0.0920541
0.09117
0.090878
0.0910633
0.0916811
0.0921567
0.0913892
0.0886361
0.0870612
0.087084
0.0895796
0.10156
0.115256
0.119554
0.119291
0.112777
0.0976478
0.0907577
0.0872892
0.0827084
0.079261
0.0798977
0.084583
0.0889925
0.0883847
0.0864731
0.0828751
0.0837954
0.0995998
0.224633
0.595988
0.652529
0.364241
0.163199
0.135873
0.130343
0.135101
0.148451
0.15606
0.158767
0.16013
0.163498
0.167755
0.173091
0.178592
0.182898
0.184922
0.184739
0.180975
0.174861
0.167733
0.161031
0.155619
0.151562
0.148831
0.147236
0.146635
0.146794
0.148569
0.153642
0.159335
0.161886
0.165266
0.178229
0.13823
0.13227
0.139921
0.153886
0.172169
0.178276
0.184148
0.19064
0.198272
0.207145
0.216907
0.226047
0.235129
0.242908
0.250713
0.257733
0.264467
0.271352
0.27703
0.283289
0.288476
0.293364
0.297987
0.302225
0.305658
0.307966
0.30879
0.308451
0.305952
0.297752
0.277269
0.249195
0.220789
0.198486
0.181085
0.167226
0.158608
0.155484
0.156063
0.159483
0.170678
0.200106
0.257597
0.365236
0.466075
0.495973
0.486537
0.41908
0.250174
0.312514
0.386244
0.4024
0.400929
0.383399
0.336464
0.226774
0.14868
0.111221
0.0946548
0.0883231
0.0867608
0.0873124
0.0896351
0.0958085
0.107247
0.126804
0.145133
0.159738
0.176709
0.195753
0.212898
0.218824
0.220575
0.220725
0.218463
0.211044
0.198
0.181528
0.164559
0.150952
0.142541
0.136138
0.130069
0.124644
0.119256
0.115293
0.113596
0.114725
0.117824
0.122476
0.1285
0.135225
0.141487
0.145896
0.148125
0.146601
0.142708
0.137302
0.131002
0.124598
0.11961
0.116044
0.113751
0.113347
0.114066
0.115621
0.116934
0.117436
0.117334
0.116528
0.11511
0.112667
0.109014
0.104974
0.100891
0.0971224
0.0941869
0.0919981
0.0906383
0.090151
0.0909236
0.092787
0.0946394
0.0953383
0.0931709
0.0885804
0.0873626
0.0884762
0.0970027
0.110752
0.11523
0.115751
0.111961
0.0977624
0.0923516
0.0910068
0.0886454
0.0831938
0.0818421
0.0833299
0.0870406
0.0875588
0.086506
0.08756
0.109787
0.287527
0.604318
0.580106
0.269411
0.149429
0.137666
0.147668
0.165515
0.169858
0.169727
0.169572
0.175612
0.183154
0.192552
0.201047
0.208149
0.21364
0.216209
0.216993
0.213358
0.205822
0.195585
0.184801
0.175381
0.167124
0.160587
0.155941
0.153126
0.151901
0.151895
0.153791
0.159343
0.162427
0.165424
0.125739
0.120947
0.1482
0.167803
0.172365
0.17638
0.180112
0.185183
0.19096
0.197578
0.204077
0.208838
0.212448
0.217654
0.222273
0.229102
0.236314
0.244705
0.252432
0.260652
0.2698
0.277133
0.284975
0.292023
0.29835
0.303793
0.308393
0.31192
0.314373
0.315469
0.3154
0.313265
0.30347
0.280915
0.253054
0.22209
0.194198
0.173738
0.162645
0.158611
0.159012
0.161452
0.16976
0.188965
0.228897
0.320672
0.398179
0.403621
0.367582
0.234838
0.307845
0.359536
0.363573
0.328736
0.26351
0.185942
0.131238
0.103746
0.0915666
0.0872686
0.0863437
0.087153
0.0906052
0.0992409
0.116496
0.135845
0.150437
0.165079
0.179514
0.199576
0.217095
0.223044
0.2243
0.22387
0.219623
0.20882
0.18925
0.164438
0.14619
0.139158
0.135792
0.132787
0.128265
0.122853
0.116732
0.109129
0.100959
0.0937641
0.0898306
0.0874447
0.0860626
0.0854908
0.085922
0.0875472
0.0906552
0.095724
0.102685
0.109284
0.11458
0.11765
0.117482
0.114762
0.112276
0.110539
0.108652
0.107293
0.106932
0.107503
0.109907
0.112863
0.115281
0.116168
0.116086
0.115123
0.113601
0.111281
0.10748
0.101865
0.0958734
0.0915326
0.0888883
0.0878456
0.0885911
0.0923641
0.096473
0.0980568
0.0967111
0.091114
0.0886933
0.0894807
0.0970005
0.1077
0.111886
0.113056
0.110576
0.100968
0.0974164
0.0946783
0.0885264
0.0840796
0.0842182
0.0863638
0.086844
0.0863849
0.0883057
0.118773
0.33832
0.583506
0.506094
0.218717
0.147466
0.149379
0.175482
0.182382
0.180416
0.178918
0.185063
0.195759
0.204137
0.212461
0.219023
0.224574
0.228926
0.231702
0.232771
0.231879
0.227115
0.218158
0.207432
0.198255
0.188917
0.179561
0.171116
0.165044
0.161436
0.159522
0.159054
0.160514
0.163393
0.165587
0.130844
0.148972
0.166039
0.170843
0.171621
0.169015
0.163472
0.160672
0.159821
0.159562
0.158642
0.157551
0.157415
0.159014
0.160807
0.164421
0.169118
0.176276
0.186463
0.199918
0.214835
0.230291
0.244376
0.255773
0.265682
0.274895
0.284601
0.293896
0.303006
0.310312
0.314529
0.315649
0.314291
0.306262
0.288539
0.26714
0.236918
0.2029
0.178002
0.165614
0.161321
0.161597
0.163445
0.169747
0.185782
0.227825
0.320003
0.355194
0.338868
0.222383
0.268998
0.294944
0.270348
0.212499
0.163378
0.122122
0.100565
0.0907676
0.0873048
0.0866683
0.0874255
0.0918411
0.103866
0.120954
0.136562
0.150439
0.16399
0.177285
0.195215
0.214314
0.222295
0.224216
0.224181
0.221267
0.210772
0.188733
0.158698
0.143949
0.13952
0.137596
0.136487
0.135136
0.13264
0.128782
0.122949
0.113755
0.102597
0.0931832
0.0883987
0.0853427
0.0828707
0.0810339
0.0793859
0.0779579
0.0767597
0.0759532
0.0755862
0.0758583
0.0770332
0.0794777
0.0831748
0.0876274
0.0916553
0.0966458
0.101493
0.103396
0.103592
0.103431
0.103581
0.104053
0.105335
0.108546
0.111832
0.113609
0.113847
0.113249
0.111431
0.108714
0.103667
0.0961379
0.0900811
0.0866828
0.0858571
0.0867061
0.0924288
0.0987384
0.100483
0.0991673
0.0931189
0.0904161
0.091288
0.0988098
0.108403
0.113066
0.11516
0.113966
0.107792
0.102075
0.0925373
0.0839828
0.0823347
0.0827194
0.0827888
0.0828563
0.0863904
0.127909
0.373692
0.551028
0.441362
0.196302
0.150075
0.172372
0.19045
0.188741
0.186531
0.191129
0.200047
0.208129
0.214648
0.221809
0.228591
0.23446
0.23798
0.23993
0.240754
0.240748
0.236957
0.228655
0.218349
0.209199
0.201628
0.194893
0.188153
0.180623
0.175003
0.170783
0.167594
0.166037
0.164975
0.165457
0.140407
0.160654
0.164763
0.159033
0.139115
0.132396
0.132195
0.135425
0.139976
0.141346
0.141988
0.142459
0.14293
0.143469
0.144172
0.144676
0.144616
0.144943
0.146311
0.148933
0.15415
0.163677
0.178522
0.195369
0.208255
0.217488
0.227272
0.239133
0.255514
0.274996
0.29088
0.301415
0.306425
0.306907
0.302837
0.289175
0.269151
0.242193
0.210333
0.183665
0.168662
0.16374
0.16387
0.165484
0.171741
0.192632
0.264967
0.322885
0.314692
0.206533
0.223661
0.237997
0.199713
0.150654
0.119667
0.0995384
0.0908083
0.0877121
0.0871499
0.0880125
0.0929364
0.106009
0.120134
0.134821
0.146945
0.158563
0.171969
0.186258
0.20313
0.215687
0.221699
0.222823
0.22128
0.21299
0.193076
0.161676
0.144447
0.140526
0.139896
0.140173
0.140532
0.140346
0.139261
0.137805
0.134552
0.126872
0.111947
0.0973274
0.0915524
0.0886627
0.0867638
0.0848923
0.0826635
0.0804285
0.0781689
0.0762065
0.0745962
0.0732642
0.0723
0.071794
0.0717331
0.07204
0.0728871
0.0749871
0.0801077
0.089158
0.0962287
0.0994579
0.100976
0.101624
0.101914
0.10233
0.103247
0.105793
0.108198
0.109255
0.109386
0.108811
0.106229
0.0995927
0.0914695
0.0863439
0.0844093
0.0843323
0.0865734
0.0960086
0.10212
0.102976
0.100793
0.0941206
0.0921611
0.0935428
0.102463
0.112392
0.119134
0.121612
0.120305
0.113424
0.0983215
0.0830536
0.0768947
0.076731
0.0772602
0.0787163
0.0857045
0.138327
0.391801
0.516903
0.391539
0.188111
0.162635
0.189445
0.197798
0.194906
0.194106
0.200889
0.208376
0.216206
0.225547
0.234374
0.242794
0.249059
0.251419
0.250974
0.250154
0.250463
0.246527
0.2375
0.224486
0.213826
0.205119
0.19877
0.194295
0.189251
0.183342
0.178143
0.171649
0.168455
0.164788
0.164126
0.14719
0.157552
0.152036
0.129012
0.12286
0.122942
0.128523
0.136086
0.139157
0.140617
0.142009
0.143013
0.143762
0.144882
0.145713
0.14582
0.144193
0.142758
0.141412
0.13999
0.139355
0.139374
0.142597
0.150737
0.164445
0.17665
0.18588
0.192516
0.198824
0.208871
0.227549
0.250253
0.269466
0.279713
0.282941
0.280194
0.265979
0.243608
0.219939
0.197803
0.180256
0.169669
0.165671
0.165772
0.168005
0.179985
0.237823
0.301657
0.296687
0.192462
0.186589
0.194392
0.155651
0.121294
0.101199
0.0915549
0.0882979
0.0875146
0.0883971
0.0940386
0.108628
0.122462
0.133217
0.145273
0.154348
0.165963
0.178678
0.190771
0.202549
0.213866
0.218221
0.218034
0.213801
0.199866
0.170893
0.146072
0.140419
0.139824
0.140924
0.1418
0.141742
0.141185
0.140894
0.140574
0.138442
0.132785
0.121923
0.107664
0.103495
0.102471
0.102255
0.10142
0.099
0.096153
0.0926982
0.0889979
0.08523
0.0814092
0.0779291
0.0751371
0.0732619
0.0722057
0.0717261
0.0717652
0.0725935
0.0746336
0.0808721
0.0889522
0.0944248
0.0977594
0.0995327
0.100231
0.100511
0.100937
0.102042
0.102931
0.103118
0.103029
0.102516
0.0997839
0.0911074
0.0840423
0.0814695
0.0813989
0.0830848
0.0923088
0.10275
0.105787
0.105452
0.10065
0.0948197
0.0941105
0.0969852
0.109206
0.120767
0.126757
0.127066
0.123201
0.107214
0.0865983
0.0774732
0.0762715
0.0766888
0.0783692
0.0870408
0.147271
0.39527
0.483924
0.35732
0.186889
0.177924
0.20001
0.201372
0.196829
0.199083
0.20633
0.218207
0.23074
0.243586
0.252947
0.258079
0.25989
0.258387
0.25595
0.254573
0.255011
0.255724
0.249521
0.232979
0.217167
0.206093
0.199132
0.194996
0.190693
0.184618
0.17935
0.171735
0.168209
0.160455
0.158106
0.149073
0.153382
0.136231
0.120434
0.119523
0.12445
0.132816
0.14233
0.148629
0.152603
0.155189
0.156453
0.157279
0.157881
0.158304
0.158478
0.158
0.156763
0.153478
0.147081
0.140461
0.137049
0.135575
0.136097
0.141266
0.154944
0.169033
0.176984
0.181655
0.184684
0.187531
0.19326
0.205261
0.222273
0.23635
0.24318
0.242794
0.233242
0.214896
0.196557
0.182003
0.172227
0.167589
0.166555
0.167521
0.175425
0.223438
0.285893
0.282594
0.183391
0.156658
0.158538
0.127911
0.106493
0.093776
0.0883496
0.0870151
0.0880933
0.0929172
0.106355
0.12227
0.131633
0.142257
0.151852
0.159722
0.170229
0.180578
0.190342
0.200633
0.208797
0.211026
0.210403
0.20111
0.177406
0.148497
0.139047
0.137469
0.138353
0.141466
0.141955
0.14151
0.141236
0.141896
0.142658
0.142044
0.139077
0.133738
0.131642
0.133511
0.136207
0.137645
0.137725
0.134888
0.131427
0.126877
0.121624
0.115663
0.108493
0.100794
0.0935516
0.0877706
0.0835929
0.0800472
0.0766072
0.0739555
0.0726831
0.0722675
0.0748651
0.0820616
0.0881348
0.0925205
0.0949428
0.0963879
0.0976677
0.0983152
0.0983859
0.0982787
0.0977672
0.0962789
0.0920713
0.0830232
0.0765497
0.0746004
0.0749038
0.0775726
0.0901759
0.104121
0.109345
0.109727
0.107186
0.0991332
0.0959607
0.0965085
0.103589
0.119988
0.129376
0.131349
0.129507
0.118787
0.0955466
0.0811555
0.0774721
0.0775782
0.0792655
0.0892571
0.152994
0.387839
0.454168
0.334958
0.190391
0.189108
0.204538
0.202149
0.198791
0.20338
0.213577
0.231147
0.247848
0.260033
0.265876
0.26769
0.264906
0.260909
0.257439
0.255739
0.256095
0.259926
0.257224
0.243999
0.222094
0.206515
0.197908
0.193366
0.189432
0.182591
0.17741
0.167209
0.160219
0.148025
0.143008
0.148538
0.148022
0.126865
0.119006
0.120514
0.129704
0.145971
0.163601
0.17149
0.174246
0.174459
0.170063
0.164014
0.162054
0.161158
0.161013
0.161862
0.164208
0.167153
0.168638
0.164586
0.152137
0.140134
0.134751
0.132541
0.133388
0.142098
0.160486
0.172932
0.178107
0.179824
0.18027
0.181144
0.184843
0.191515
0.199712
0.205558
0.206245
0.20149
0.191208
0.180334
0.172335
0.168345
0.167213
0.167758
0.173944
0.214655
0.271736
0.269943
0.178622
0.133732
0.128887
0.107769
0.0963626
0.0896837
0.086833
0.0867461
0.0899951
0.0991982
0.114437
0.125611
0.133727
0.144307
0.152934
0.160367
0.17018
0.179951
0.188797
0.196604
0.2014
0.202608
0.194892
0.176803
0.15213
0.137764
0.134038
0.13386
0.137456
0.140848
0.140797
0.140133
0.141775
0.146518
0.155124
0.161605
0.165425
0.169949
0.178638
0.187604
0.192377
0.194138
0.193977
0.190489
0.185954
0.180076
0.173788
0.166935
0.15765
0.145573
0.132586
0.121502
0.113322
0.106269
0.0972377
0.086281
0.077028
0.0711713
0.0677041
0.0673798
0.0719928
0.0783871
0.0829252
0.0860268
0.087995
0.0888611
0.0889627
0.0887602
0.087897
0.0854087
0.0774806
0.0683015
0.0639046
0.063345
0.0648962
0.0718962
0.0898946
0.105745
0.11296
0.114166
0.112821
0.105148
0.0987674
0.0979372
0.100861
0.116026
0.130153
0.134133
0.133613
0.128315
0.108086
0.0885434
0.0812932
0.0807068
0.0820286
0.0912495
0.153026
0.370583
0.426886
0.322239
0.201181
0.197876
0.205481
0.20195
0.19929
0.20653
0.225124
0.247034
0.26331
0.271266
0.273758
0.274451
0.270532
0.263674
0.258119
0.255548
0.256328
0.262129
0.261652
0.254109
0.230167
0.207048
0.193666
0.187123
0.182444
0.174413
0.165647
0.153769
0.141016
0.130362
0.126924
0.147892
0.143237
0.123278
0.119372
0.123914
0.143288
0.175151
0.187191
0.190719
0.191149
0.187915
0.17946
0.173825
0.169597
0.164145
0.161967
0.161054
0.161494
0.165185
0.171769
0.177738
0.180281
0.173297
0.155383
0.140052
0.132512
0.129434
0.132098
0.148036
0.168263
0.176145
0.178065
0.177877
0.17742
0.177535
0.178943
0.18136
0.183647
0.183997
0.181691
0.176727
0.171855
0.16867
0.167701
0.168204
0.174158
0.211894
0.2642
0.26364
0.180025
0.118518
0.105873
0.0911652
0.0860057
0.0844516
0.0849454
0.0865485
0.0923086
0.103474
0.116338
0.125386
0.133296
0.143767
0.152302
0.159625
0.169054
0.178014
0.185841
0.191306
0.193402
0.18639
0.171148
0.154939
0.139462
0.132291
0.130635
0.13105
0.136001
0.138656
0.138122
0.139916
0.146021
0.15984
0.17848
0.190512
0.196411
0.202465
0.208709
0.213712
0.217412
0.220041
0.221506
0.221856
0.220859
0.218014
0.213755
0.209431
0.204441
0.197514
0.185989
0.171248
0.15918
0.150915
0.140398
0.119794
0.0958325
0.0782408
0.0674252
0.0610631
0.0578688
0.0580994
0.0622548
0.0668982
0.0700235
0.0713252
0.071347
0.0707943
0.0691123
0.0640002
0.0566497
0.0530953
0.0529339
0.0546759
0.0595972
0.0711717
0.0905252
0.1077
0.116637
0.118669
0.117927
0.111545
0.10247
0.0998898
0.100951
0.111446
0.129519
0.135268
0.135306
0.133394
0.11998
0.0962318
0.0851565
0.0832884
0.0840827
0.0919897
0.149399
0.349962
0.40337
0.316951
0.210786
0.203042
0.205523
0.20116
0.200863
0.214034
0.238905
0.262507
0.278006
0.285581
0.288077
0.28716
0.282554
0.271602
0.260062
0.254687
0.255185
0.262189
0.265681
0.261596
0.241321
0.208846
0.185292
0.174606
0.166297
0.156361
0.143453
0.130927
0.124496
0.122223
0.122587
0.147741
0.141806
0.12263
0.121011
0.131978
0.164227
0.190386
0.200128
0.204961
0.210375
0.213611
0.215223
0.214054
0.206485
0.190578
0.180109
0.169473
0.16365
0.162313
0.165068
0.173569
0.184376
0.189743
0.191421
0.181942
0.161829
0.139454
0.129205
0.12796
0.13685
0.162258
0.175043
0.178275
0.178131
0.176374
0.175817
0.175546
0.175307
0.175111
0.174724
0.173345
0.171141
0.169216
0.168656
0.169441
0.175465
0.204336
0.248167
0.252344
0.183573
0.110324
0.0897769
0.0777695
0.07536
0.0768472
0.0813253
0.0858463
0.0922379
0.103727
0.115943
0.12413
0.131489
0.141451
0.149854
0.157184
0.166317
0.174249
0.18051
0.182779
0.178366
0.166287
0.152793
0.142642
0.134168
0.129172
0.127819
0.127671
0.133152
0.135446
0.136466
0.142207
0.156724
0.179733
0.194373
0.200205
0.204852
0.209076
0.213379
0.217274
0.220806
0.223881
0.226517
0.228785
0.230223
0.230396
0.228406
0.224813
0.221101
0.217429
0.213067
0.206127
0.196082
0.185245
0.175728
0.16358
0.136189
0.101976
0.0778997
0.0631029
0.0548265
0.0502577
0.0483389
0.0482641
0.0494146
0.051142
0.0524159
0.0525962
0.0521611
0.0501517
0.0481807
0.0480775
0.0490454
0.0527555
0.0588571
0.0711989
0.0910049
0.110014
0.120862
0.123806
0.123378
0.11803
0.106785
0.102222
0.102244
0.108345
0.128116
0.136002
0.136212
0.135961
0.128784
0.104706
0.0893349
0.0855891
0.0858968
0.092311
0.141387
0.324663
0.381674
0.315694
0.219879
0.206647
0.205459
0.199696
0.202035
0.220272
0.25178
0.275656
0.289065
0.296247
0.301245
0.304297
0.302105
0.288997
0.267803
0.255098
0.252751
0.260238
0.268264
0.266123
0.251678
0.214342
0.180384
0.15671
0.14248
0.131648
0.123684
0.119794
0.118552
0.119536
0.121892
0.14778
0.142081
0.120445
0.122402
0.136598
0.169625
0.19943
0.215681
0.232363
0.254812
0.271005
0.276847
0.272074
0.256657
0.233409
0.214368
0.197501
0.180009
0.168293
0.164823
0.168343
0.175493
0.190663
0.201658
0.205438
0.20453
0.190745
0.158988
0.134159
0.125016
0.128851
0.15745
0.176725
0.182544
0.182765
0.181089
0.180492
0.180531
0.178955
0.176212
0.174316
0.172574
0.171638
0.171638
0.172654
0.177263
0.190663
0.232505
0.24295
0.187405
0.105488
0.0790947
0.0679472
0.0661468
0.0681343
0.0745737
0.0836473
0.0913081
0.102995
0.114605
0.120971
0.126757
0.135079
0.143284
0.151662
0.160063
0.167487
0.171463
0.168794
0.159981
0.14967
0.141539
0.136578
0.132605
0.127103
0.123942
0.123873
0.128509
0.131437
0.136488
0.149178
0.171955
0.190744
0.197702
0.201805
0.205787
0.208782
0.211527
0.21427
0.217802
0.221788
0.225657
0.229064
0.231823
0.233778
0.234697
0.23308
0.229262
0.225734
0.222778
0.218788
0.21081
0.198684
0.186445
0.175229
0.161407
0.1377
0.104136
0.0772205
0.0601656
0.0507378
0.0461826
0.044322
0.0439118
0.0442796
0.0461571
0.0473948
0.0474653
0.0469303
0.0468151
0.0472541
0.0487797
0.0539077
0.0615971
0.073998
0.0937246
0.113442
0.125477
0.129229
0.12902
0.124459
0.111667
0.104942
0.104079
0.107455
0.125503
0.137738
0.139014
0.139247
0.135029