/*--------------------------------*- C++ -*----------------------------------*\
| =========                 |                                                 |
| \\      /  F ield         | OpenFOAM: The Open Source CFD Toolbox           |
|  \\    /   O peration     | Version:  2112                                  |
|   \\  /    A nd           | Website:  www.openfoam.com                      |
|    \\/     M anipulation  |                                                 |
\*---------------------------------------------------------------------------*/
FoamFile
{
    version     2.0;
    format      ascii;
    arch        "LSB;label=32;scalar=64";
    class       volScalarField;
    location    "0.25";
    object      pPrime2Mean;
}
// * * * * * * * * * * * * * * * * * * * * * * * * * * * * * * * * * * * * * //

dimensions      [0 4 -4 0 0 0 0];

internalField   nonuniform List<scalar> 
12225
(
1.91722e+06
1.8883e+06
1.85823e+06
1.82886e+06
1.80037e+06
1.77277e+06
1.74606e+06
1.72018e+06
1.69509e+06
1.67072e+06
1.64698e+06
1.62378e+06
1.60097e+06
1.57839e+06
1.55582e+06
1.53286e+06
1.50885e+06
1.48208e+06
1.91728e+06
1.88834e+06
1.85827e+06
1.82889e+06
1.8004e+06
1.7728e+06
1.74609e+06
1.72021e+06
1.69513e+06
1.67077e+06
1.64704e+06
1.62385e+06
1.60106e+06
1.57853e+06
1.55601e+06
1.53318e+06
1.50946e+06
1.48363e+06
1.9174e+06
1.88844e+06
1.85834e+06
1.82896e+06
1.80046e+06
1.77286e+06
1.74615e+06
1.72029e+06
1.69522e+06
1.67087e+06
1.64717e+06
1.62401e+06
1.60127e+06
1.57882e+06
1.55644e+06
1.53385e+06
1.51067e+06
1.48643e+06
1.91761e+06
1.88859e+06
1.85847e+06
1.82907e+06
1.80056e+06
1.77297e+06
1.74626e+06
1.72041e+06
1.69536e+06
1.67104e+06
1.64737e+06
1.62427e+06
1.60162e+06
1.57929e+06
1.55711e+06
1.5349e+06
1.51245e+06
1.48978e+06
1.91795e+06
1.88882e+06
1.85865e+06
1.82923e+06
1.80071e+06
1.77312e+06
1.74642e+06
1.72059e+06
1.69556e+06
1.67128e+06
1.64768e+06
1.62465e+06
1.60212e+06
1.57996e+06
1.55806e+06
1.53631e+06
1.51466e+06
1.49339e+06
1.91833e+06
1.88912e+06
1.8589e+06
1.82945e+06
1.80092e+06
1.77333e+06
1.74664e+06
1.72083e+06
1.69584e+06
1.67162e+06
1.64809e+06
1.62517e+06
1.60279e+06
1.58085e+06
1.55929e+06
1.53805e+06
1.51722e+06
1.49713e+06
1.91883e+06
1.88951e+06
1.85923e+06
1.82974e+06
1.8012e+06
1.7736e+06
1.74693e+06
1.72115e+06
1.69622e+06
1.67206e+06
1.64862e+06
1.62584e+06
1.60364e+06
1.58197e+06
1.56079e+06
1.5401e+06
1.52004e+06
1.50093e+06
1.91946e+06
1.89001e+06
1.85965e+06
1.83011e+06
1.80155e+06
1.77396e+06
1.74731e+06
1.72157e+06
1.69669e+06
1.67262e+06
1.6493e+06
1.62667e+06
1.60469e+06
1.58332e+06
1.56254e+06
1.54241e+06
1.52306e+06
1.50477e+06
1.92021e+06
1.89063e+06
1.86017e+06
1.83058e+06
1.80199e+06
1.7744e+06
1.74777e+06
1.72208e+06
1.69727e+06
1.6733e+06
1.65012e+06
1.62768e+06
1.60594e+06
1.58489e+06
1.56454e+06
1.54494e+06
1.52624e+06
1.50863e+06
1.92114e+06
1.89139e+06
1.86081e+06
1.83115e+06
1.80253e+06
1.77494e+06
1.74834e+06
1.7227e+06
1.69798e+06
1.67413e+06
1.6511e+06
1.62887e+06
1.6074e+06
1.58669e+06
1.56676e+06
1.54767e+06
1.52953e+06
1.51249e+06
1.92222e+06
1.8923e+06
1.86158e+06
1.83184e+06
1.80318e+06
1.77558e+06
1.74902e+06
1.72344e+06
1.69882e+06
1.6751e+06
1.65225e+06
1.63024e+06
1.60905e+06
1.58869e+06
1.56917e+06
1.55055e+06
1.53292e+06
1.51637e+06
1.92338e+06
1.89328e+06
1.86243e+06
1.83259e+06
1.80389e+06
1.77629e+06
1.74975e+06
1.72425e+06
1.69972e+06
1.67614e+06
1.65346e+06
1.63167e+06
1.61074e+06
1.59069e+06
1.57154e+06
1.55332e+06
1.5361e+06
1.51993e+06
1.9247e+06
1.89441e+06
1.86338e+06
1.83344e+06
1.80469e+06
1.77708e+06
1.75058e+06
1.72515e+06
1.70073e+06
1.67729e+06
1.65479e+06
1.63322e+06
1.61256e+06
1.59282e+06
1.574e+06
1.55615e+06
1.53928e+06
1.52345e+06
1.9266e+06
1.89591e+06
1.86463e+06
1.83455e+06
1.80573e+06
1.77812e+06
1.75166e+06
1.72631e+06
1.70203e+06
1.67876e+06
1.65648e+06
1.63516e+06
1.6148e+06
1.59539e+06
1.57693e+06
1.55945e+06
1.54296e+06
1.52746e+06
1.92923e+06
1.89788e+06
1.86626e+06
1.83599e+06
1.80708e+06
1.77946e+06
1.75306e+06
1.72782e+06
1.70368e+06
1.68061e+06
1.65858e+06
1.63755e+06
1.61752e+06
1.59846e+06
1.58038e+06
1.56327e+06
1.54713e+06
1.53195e+06
1.93237e+06
1.90035e+06
1.86831e+06
1.83781e+06
1.8088e+06
1.78117e+06
1.75483e+06
1.72971e+06
1.70576e+06
1.68292e+06
1.66116e+06
1.64044e+06
1.62075e+06
1.60205e+06
1.58435e+06
1.5676e+06
1.55181e+06
1.53693e+06
1.93605e+06
1.9033e+06
1.87079e+06
1.84002e+06
1.8109e+06
1.78327e+06
1.75701e+06
1.73204e+06
1.70829e+06
1.6857e+06
1.66424e+06
1.64384e+06
1.6245e+06
1.60616e+06
1.58881e+06
1.57241e+06
1.55693e+06
1.54234e+06
1.94023e+06
1.90654e+06
1.87354e+06
1.84254e+06
1.81333e+06
1.78572e+06
1.75957e+06
1.73478e+06
1.71126e+06
1.68894e+06
1.66777e+06
1.64771e+06
1.62869e+06
1.61069e+06
1.59367e+06
1.57759e+06
1.56239e+06
1.54806e+06
1.94377e+06
1.90937e+06
1.8761e+06
1.84502e+06
1.81585e+06
1.78836e+06
1.76238e+06
1.7378e+06
1.71453e+06
1.6925e+06
1.67163e+06
1.65187e+06
1.63317e+06
1.61548e+06
1.59875e+06
1.58294e+06
1.568e+06
1.55389e+06
1.94345e+06
1.91004e+06
1.87724e+06
1.84647e+06
1.81754e+06
1.79027e+06
1.76451e+06
1.74015e+06
1.7171e+06
1.69529e+06
1.67465e+06
1.65511e+06
1.63663e+06
1.61915e+06
1.60262e+06
1.58699e+06
1.57221e+06
1.55824e+06
1.94245e+06
1.90981e+06
1.87755e+06
1.84714e+06
1.81848e+06
1.79142e+06
1.76585e+06
1.74166e+06
1.71878e+06
1.69712e+06
1.67663e+06
1.65724e+06
1.6389e+06
1.62155e+06
1.60514e+06
1.58962e+06
1.57494e+06
1.56106e+06
1.94106e+06
1.90924e+06
1.87749e+06
1.84744e+06
1.81904e+06
1.79218e+06
1.76677e+06
1.74272e+06
1.71997e+06
1.69843e+06
1.67805e+06
1.65877e+06
1.64053e+06
1.62327e+06
1.60694e+06
1.59149e+06
1.57688e+06
1.56306e+06
1.93985e+06
1.90861e+06
1.87729e+06
1.84754e+06
1.81936e+06
1.79267e+06
1.76739e+06
1.74346e+06
1.7208e+06
1.69936e+06
1.67906e+06
1.65985e+06
1.64168e+06
1.62448e+06
1.60821e+06
1.59282e+06
1.57825e+06
1.56446e+06
1.93878e+06
1.90802e+06
1.87706e+06
1.84755e+06
1.81954e+06
1.79299e+06
1.76781e+06
1.74397e+06
1.72138e+06
1.7e+06
1.67976e+06
1.6606e+06
1.64248e+06
1.62533e+06
1.6091e+06
1.59374e+06
1.5792e+06
1.56545e+06
1.93779e+06
1.90752e+06
1.87684e+06
1.84752e+06
1.81965e+06
1.79319e+06
1.76809e+06
1.74431e+06
1.72178e+06
1.70044e+06
1.68024e+06
1.66112e+06
1.64303e+06
1.62591e+06
1.6097e+06
1.59437e+06
1.57986e+06
1.56612e+06
1.93703e+06
1.90712e+06
1.87666e+06
1.84748e+06
1.81971e+06
1.79332e+06
1.76828e+06
1.74453e+06
1.72204e+06
1.70073e+06
1.68056e+06
1.66147e+06
1.6434e+06
1.6263e+06
1.61011e+06
1.59479e+06
1.58029e+06
1.56657e+06
1.93653e+06
1.90685e+06
1.87653e+06
1.84745e+06
1.81974e+06
1.7934e+06
1.76839e+06
1.74468e+06
1.72221e+06
1.70092e+06
1.68077e+06
1.66169e+06
1.64364e+06
1.62655e+06
1.61037e+06
1.59507e+06
1.58058e+06
1.56686e+06
1.93621e+06
1.90667e+06
1.87645e+06
1.84743e+06
1.81976e+06
1.79345e+06
1.76846e+06
1.74477e+06
1.72231e+06
1.70104e+06
1.68089e+06
1.66183e+06
1.64378e+06
1.6267e+06
1.61053e+06
1.59523e+06
1.58075e+06
1.56703e+06
1.93599e+06
1.90657e+06
1.87641e+06
1.84742e+06
1.81977e+06
1.79347e+06
1.7685e+06
1.74481e+06
1.72236e+06
1.7011e+06
1.68096e+06
1.6619e+06
1.64386e+06
1.62678e+06
1.61062e+06
1.59532e+06
1.58084e+06
1.56713e+06
1.93589e+06
1.90653e+06
1.87639e+06
1.84741e+06
1.81977e+06
1.79348e+06
1.76851e+06
1.74483e+06
1.72239e+06
1.70112e+06
1.68099e+06
1.66193e+06
1.64389e+06
1.62681e+06
1.61065e+06
1.59535e+06
1.58087e+06
1.56716e+06
1.25301e+06
1.25291e+06
1.25271e+06
1.2524e+06
1.25199e+06
1.25148e+06
1.25086e+06
1.25013e+06
1.24928e+06
1.24833e+06
1.24726e+06
1.24607e+06
1.24476e+06
1.24334e+06
1.2418e+06
1.24013e+06
1.23835e+06
1.23644e+06
1.23442e+06
1.23228e+06
1.23001e+06
1.22763e+06
1.22512e+06
1.22251e+06
1.21977e+06
1.21692e+06
1.21396e+06
1.21088e+06
1.2077e+06
1.2044e+06
1.201e+06
1.19749e+06
1.19387e+06
1.19015e+06
1.18632e+06
1.18239e+06
1.17837e+06
1.17424e+06
1.17002e+06
1.16571e+06
1.16131e+06
1.15681e+06
1.15223e+06
1.14755e+06
1.14279e+06
1.13795e+06
1.13302e+06
1.128e+06
1.12291e+06
1.11773e+06
1.11247e+06
1.10714e+06
1.10173e+06
1.09625e+06
1.0907e+06
1.08508e+06
1.07938e+06
1.07362e+06
1.06779e+06
1.06191e+06
1.05596e+06
1.04995e+06
1.04388e+06
1.03775e+06
1.03157e+06
1.02531e+06
1.019e+06
1.01263e+06
1.00621e+06
999744
993225
986654
980029
973351
966617
959828
952981
946083
939135
932134
925081
917984
910846
903670
896459
889213
881933
874618
867271
859892
852480
845039
837569
830072
822547
814994
807412
799801
792159
784486
776779
769039
761265
753460
745625
737768
729894
722004
714101
706184
698259
690321
682368
674396
666403
658386
650343
642275
634183
626067
617932
609783
601624
593461
585297
577134
568975
560819
552668
544520
536377
528236
520099
511965
503835
495709
487586
479468
471356
463248
455148
447058
438977
430905
422839
414778
406723
398679
390651
382645
374667
366720
358803
350915
343051
335211
327394
319604
311843
304117
296430
288786
281190
273643
266144
258693
251294
243950
236666
229446
222291
215203
208182
201232
194358
187568
180870
174279
167817
161534
1.25346e+06
1.25336e+06
1.25316e+06
1.25285e+06
1.25244e+06
1.25193e+06
1.2513e+06
1.25057e+06
1.24972e+06
1.24876e+06
1.24768e+06
1.24649e+06
1.24518e+06
1.24375e+06
1.2422e+06
1.24053e+06
1.23874e+06
1.23682e+06
1.23479e+06
1.23264e+06
1.23036e+06
1.22797e+06
1.22545e+06
1.22282e+06
1.22008e+06
1.21722e+06
1.21424e+06
1.21116e+06
1.20796e+06
1.20466e+06
1.20125e+06
1.19773e+06
1.1941e+06
1.19037e+06
1.18654e+06
1.18261e+06
1.17858e+06
1.17444e+06
1.17022e+06
1.1659e+06
1.16148e+06
1.15698e+06
1.15239e+06
1.14771e+06
1.14294e+06
1.13809e+06
1.13315e+06
1.12813e+06
1.12303e+06
1.11784e+06
1.11258e+06
1.10724e+06
1.10183e+06
1.09635e+06
1.09079e+06
1.08516e+06
1.07947e+06
1.0737e+06
1.06787e+06
1.06198e+06
1.05603e+06
1.05002e+06
1.04394e+06
1.03781e+06
1.03162e+06
1.02536e+06
1.01905e+06
1.01269e+06
1.00627e+06
999804
993284
986713
980088
973408
966670
959877
953030
946125
939173
932168
925113
918016
910878
903701
896488
889241
881959
874642
867294
859913
852502
845061
837592
830095
822570
815017
807435
799824
792183
784510
776802
769061
761286
753480
745647
737792
729919
722030
714128
706214
698290
690353
682399
674426
666431
658413
650369
642299
634204
626086
617949
609797
601637
593471
585306
577142
568982
560825
552674
544526
536383
528242
520106
511972
503843
495718
487596
479479
471367
463261
455162
447074
438994
430922
422855
414792
406735
398689
390661
382655
374677
366729
358811
350922
343058
335216
327399
319607
311846
304119
296432
288789
281194
273647
266148
258697
251297
243952
236668
229448
222293
215204
208183
201231
194357
187565
180864
174269
167798
161489
1.25437e+06
1.25427e+06
1.25407e+06
1.25376e+06
1.25335e+06
1.25283e+06
1.2522e+06
1.25145e+06
1.2506e+06
1.24963e+06
1.24854e+06
1.24733e+06
1.24601e+06
1.24457e+06
1.243e+06
1.24132e+06
1.23951e+06
1.23758e+06
1.23553e+06
1.23335e+06
1.23106e+06
1.22864e+06
1.22611e+06
1.22346e+06
1.22069e+06
1.21781e+06
1.21482e+06
1.21171e+06
1.20849e+06
1.20517e+06
1.20174e+06
1.1982e+06
1.19456e+06
1.19081e+06
1.18697e+06
1.18302e+06
1.17898e+06
1.17483e+06
1.17059e+06
1.16626e+06
1.16183e+06
1.15732e+06
1.15271e+06
1.14802e+06
1.14324e+06
1.13837e+06
1.13342e+06
1.12838e+06
1.12327e+06
1.11808e+06
1.11281e+06
1.10746e+06
1.10204e+06
1.09654e+06
1.09097e+06
1.08534e+06
1.07963e+06
1.07386e+06
1.06803e+06
1.06214e+06
1.05618e+06
1.05015e+06
1.04407e+06
1.03792e+06
1.03172e+06
1.02547e+06
1.01916e+06
1.0128e+06
1.00638e+06
999911
993390
986816
980189
973507
966767
959970
953116
946206
939245
932235
925178
918077
910936
903756
896540
889288
882003
874684
867333
859951
852539
845099
837630
830132
822608
815056
807474
799864
792224
784552
776844
769101
761325
753520
745689
737835
729963
722076
714175
706263
698340
690402
682449
674475
666479
658458
650412
642339
634241
626120
617980
609825
601660
593491
585323
577157
568995
560838
552685
544538
536394
528254
520118
511986
503857
495734
487614
479500
471389
463285
455189
447103
439024
430951
422882
414817
406758
398710
390679
382672
374693
366744
358826
350935
343069
335226
327406
319613
311851
304124
296437
288796
281202
273655
266155
258703
251302
243957
236672
229451
222296
215206
208183
201230
194353
187558
180853
174250
167764
161415
1.25574e+06
1.25564e+06
1.25544e+06
1.25513e+06
1.25471e+06
1.25418e+06
1.25354e+06
1.25278e+06
1.25191e+06
1.25093e+06
1.24982e+06
1.2486e+06
1.24725e+06
1.24579e+06
1.2442e+06
1.24249e+06
1.24066e+06
1.2387e+06
1.23662e+06
1.23442e+06
1.23209e+06
1.22965e+06
1.22709e+06
1.22441e+06
1.22161e+06
1.2187e+06
1.21567e+06
1.21253e+06
1.20929e+06
1.20594e+06
1.20248e+06
1.19891e+06
1.19524e+06
1.19147e+06
1.1876e+06
1.18363e+06
1.17957e+06
1.1754e+06
1.17114e+06
1.16679e+06
1.16235e+06
1.15781e+06
1.15319e+06
1.14848e+06
1.14368e+06
1.13879e+06
1.13382e+06
1.12877e+06
1.12364e+06
1.11843e+06
1.11315e+06
1.10778e+06
1.10234e+06
1.09683e+06
1.09125e+06
1.0856e+06
1.07989e+06
1.07411e+06
1.06827e+06
1.06236e+06
1.05639e+06
1.05035e+06
1.04425e+06
1.0381e+06
1.03189e+06
1.02563e+06
1.01932e+06
1.01296e+06
1.00654e+06
1.00007e+06
993542
986964
980332
973646
966903
960100
953239
946322
939354
932339
925277
918172
911026
903841
896619
889362
882072
874748
867394
860009
852596
845154
837684
830187
822663
815112
807533
799925
792287
784617
776909
769164
761387
753582
745751
737899
730028
722143
714244
706334
698411
690475
682521
674546
666548
658525
650475
642399
634297
626172
618026
609865
601695
593522
585349
577179
569015
560856
552702
544554
536410
528271
520136
512005
503879
495758
487641
479529
471422
463322
455229
447145
439068
430994
422922
414853
406791
398740
390706
382697
374716
366766
358846
350954
343086
335240
327418
319623
311860
304132
296446
288806
281213
273666
266165
258712
251310
243964
236679
229457
222301
215210
208185
201229
194348
187549
180839
174226
167721
161332
1.25759e+06
1.25748e+06
1.25727e+06
1.25696e+06
1.25653e+06
1.25599e+06
1.25533e+06
1.25456e+06
1.25367e+06
1.25266e+06
1.25154e+06
1.25028e+06
1.24891e+06
1.24741e+06
1.24579e+06
1.24405e+06
1.24218e+06
1.24019e+06
1.23807e+06
1.23583e+06
1.23347e+06
1.23098e+06
1.22838e+06
1.22566e+06
1.22282e+06
1.21987e+06
1.21681e+06
1.21363e+06
1.21035e+06
1.20696e+06
1.20346e+06
1.19986e+06
1.19615e+06
1.19235e+06
1.18845e+06
1.18445e+06
1.18035e+06
1.17616e+06
1.17187e+06
1.1675e+06
1.16303e+06
1.15847e+06
1.15382e+06
1.14909e+06
1.14427e+06
1.13936e+06
1.13437e+06
1.12929e+06
1.12414e+06
1.1189e+06
1.11359e+06
1.10821e+06
1.10275e+06
1.09721e+06
1.09162e+06
1.08595e+06
1.08022e+06
1.07443e+06
1.06857e+06
1.06265e+06
1.05666e+06
1.05061e+06
1.0445e+06
1.03834e+06
1.03213e+06
1.02586e+06
1.01954e+06
1.01317e+06
1.00675e+06
1.00027e+06
993741
987156
980516
973821
967072
960261
953392
946469
939496
932475
925409
918299
911147
903956
896727
889462
882165
874835
867475
860087
852670
845226
837755
830259
822736
815187
807610
800006
792372
784704
776995
769250
761472
753667
745837
737985
730115
722231
714334
706425
698504
690568
682614
674638
666637
658611
650558
642477
634370
626239
618088
609920
601743
593563
585384
577210
569042
560880
552724
544575
536431
528293
520160
512032
503908
495789
487676
479567
471465
463370
455282
447201
439124
431048
422973
414900
406834
398779
390743
382731
374748
366797
358875
350980
343109
335261
327436
319638
311873
304144
296459
288821
281229
273682
266180
258726
251323
243975
236689
229466
222308
215215
208187
201228
194343
187539
180821
174198
167672
161248
1.25992e+06
1.25981e+06
1.25959e+06
1.25926e+06
1.25882e+06
1.25826e+06
1.25759e+06
1.25679e+06
1.25588e+06
1.25484e+06
1.25368e+06
1.2524e+06
1.25099e+06
1.24945e+06
1.24779e+06
1.246e+06
1.24408e+06
1.24204e+06
1.23988e+06
1.23759e+06
1.23518e+06
1.23264e+06
1.22999e+06
1.22722e+06
1.22433e+06
1.22133e+06
1.21822e+06
1.215e+06
1.21167e+06
1.20823e+06
1.20469e+06
1.20104e+06
1.19729e+06
1.19344e+06
1.1895e+06
1.18546e+06
1.18133e+06
1.1771e+06
1.17278e+06
1.16838e+06
1.16388e+06
1.15929e+06
1.15461e+06
1.14985e+06
1.145e+06
1.14006e+06
1.13504e+06
1.12993e+06
1.12475e+06
1.11948e+06
1.11414e+06
1.10873e+06
1.10324e+06
1.09768e+06
1.09206e+06
1.08638e+06
1.08062e+06
1.07481e+06
1.06894e+06
1.063e+06
1.05699e+06
1.05093e+06
1.04481e+06
1.03864e+06
1.03242e+06
1.02615e+06
1.01982e+06
1.01344e+06
1.00701e+06
1.00053e+06
993985
987390
980739
974033
967272
960452
953575
946645
939667
932641
925569
918453
911295
904096
896859
889586
882279
874942
867575
860180
852759
845311
837839
830343
822822
815275
807702
800102
792472
784806
777100
769355
761578
753773
745941
738089
730219
722336
714441
706534
698615
690680
682725
674747
666744
658714
650656
642571
634460
626323
618164
609988
601802
593613
585428
577248
569076
560911
552753
544603
536459
528322
520191
512065
503945
495829
487718
479615
471518
463428
455345
447266
439190
431113
423035
414958
406887
398828
390788
382774
374789
366836
358912
351014
343139
335287
327459
319659
311891
304162
296477
288841
281249
273702
266199
258743
251338
243989
236701
229477
222317
215221
208190
201228
194338
187527
180802
174166
167621
161165
1.26274e+06
1.26262e+06
1.2624e+06
1.26205e+06
1.26159e+06
1.26102e+06
1.26031e+06
1.25949e+06
1.25854e+06
1.25747e+06
1.25627e+06
1.25494e+06
1.25348e+06
1.2519e+06
1.25018e+06
1.24834e+06
1.24637e+06
1.24427e+06
1.24205e+06
1.2397e+06
1.23723e+06
1.23463e+06
1.23192e+06
1.22909e+06
1.22614e+06
1.22308e+06
1.21991e+06
1.21663e+06
1.21324e+06
1.20975e+06
1.20615e+06
1.20245e+06
1.19865e+06
1.19475e+06
1.19076e+06
1.18667e+06
1.1825e+06
1.17823e+06
1.17387e+06
1.16942e+06
1.16489e+06
1.16026e+06
1.15555e+06
1.15075e+06
1.14587e+06
1.14089e+06
1.13583e+06
1.13069e+06
1.12547e+06
1.12017e+06
1.11479e+06
1.10935e+06
1.10383e+06
1.09824e+06
1.09259e+06
1.08687e+06
1.0811e+06
1.07526e+06
1.06936e+06
1.0634e+06
1.05738e+06
1.05131e+06
1.04518e+06
1.039e+06
1.03276e+06
1.02648e+06
1.02015e+06
1.01376e+06
1.00732e+06
1.00083e+06
994275
987667
981004
974285
967510
960678
953792
946854
939869
932836
925759
918636
911470
904262
897014
889731
882414
875067
867691
860288
852860
845408
837934
830437
822917
815373
807804
800209
792583
784921
777219
769478
761703
753896
746064
738210
730340
722457
714563
706658
698740
690806
682850
674870
666864
658830
650769
642680
634563
626420
618253
610068
601873
593674
585481
577294
569117
560949
552789
544637
536494
528359
520230
512106
503988
495874
487767
479668
471577
463493
455415
447340
439265
431187
423106
415024
406948
398884
390842
382826
374839
366883
358956
351055
343177
335321
327489
319686
311915
304185
296501
288866
281275
273727
266223
258764
251357
244006
236717
229490
222328
215229
208195
201228
194333
187516
180782
174134
167570
161087
1.26608e+06
1.26595e+06
1.26571e+06
1.26535e+06
1.26487e+06
1.26426e+06
1.26352e+06
1.26266e+06
1.26167e+06
1.26055e+06
1.2593e+06
1.25792e+06
1.2564e+06
1.25476e+06
1.25298e+06
1.25107e+06
1.24904e+06
1.24687e+06
1.24458e+06
1.24216e+06
1.23962e+06
1.23696e+06
1.23417e+06
1.23127e+06
1.22825e+06
1.22512e+06
1.22188e+06
1.21853e+06
1.21508e+06
1.21152e+06
1.20785e+06
1.20409e+06
1.20023e+06
1.19627e+06
1.19222e+06
1.18808e+06
1.18385e+06
1.17953e+06
1.17512e+06
1.17063e+06
1.16605e+06
1.16139e+06
1.15663e+06
1.15179e+06
1.14686e+06
1.14185e+06
1.13675e+06
1.13157e+06
1.1263e+06
1.12096e+06
1.11555e+06
1.11006e+06
1.10451e+06
1.09888e+06
1.0932e+06
1.08745e+06
1.08164e+06
1.07577e+06
1.06985e+06
1.06387e+06
1.05783e+06
1.05173e+06
1.04559e+06
1.0394e+06
1.03315e+06
1.02686e+06
1.02052e+06
1.01412e+06
1.00767e+06
1.00117e+06
994606
987985
981307
974572
967783
960939
954043
947097
940104
933064
925979
918848
911672
904453
897194
889899
882570
875211
867824
860411
852975
845516
838038
830539
823021
815480
807915
800324
792703
785046
777351
769615
761842
754035
746200
738343
730472
722588
714695
706791
698874
690940
682984
675002
666992
658956
650891
642799
634678
626528
618354
610160
601954
593745
585543
577349
569167
560995
552832
544680
536537
528402
520275
512153
504036
495924
487821
479726
471641
463563
455490
447419
439345
431266
423181
415095
407015
398948
390903
382884
374896
366938
359009
351104
343222
335362
327526
319719
311946
304214
296531
288896
281304
273756
266250
258789
251380
244027
236735
229507
222341
215239
208202
201231
194330
187507
180764
174103
167521
161013
1.26995e+06
1.26981e+06
1.26956e+06
1.26917e+06
1.26866e+06
1.26802e+06
1.26724e+06
1.26633e+06
1.26529e+06
1.26411e+06
1.2628e+06
1.26135e+06
1.25977e+06
1.25805e+06
1.2562e+06
1.25422e+06
1.25211e+06
1.24986e+06
1.24749e+06
1.24499e+06
1.24236e+06
1.23961e+06
1.23674e+06
1.23376e+06
1.23066e+06
1.22744e+06
1.22412e+06
1.22069e+06
1.21716e+06
1.21352e+06
1.20978e+06
1.20594e+06
1.20201e+06
1.19799e+06
1.19387e+06
1.18967e+06
1.18538e+06
1.18101e+06
1.17654e+06
1.172e+06
1.16737e+06
1.16266e+06
1.15786e+06
1.15297e+06
1.14799e+06
1.14293e+06
1.13779e+06
1.13256e+06
1.12725e+06
1.12186e+06
1.1164e+06
1.11087e+06
1.10527e+06
1.09961e+06
1.09388e+06
1.08809e+06
1.08225e+06
1.07635e+06
1.07039e+06
1.06439e+06
1.05833e+06
1.05222e+06
1.04605e+06
1.03984e+06
1.03359e+06
1.02728e+06
1.02093e+06
1.01452e+06
1.00806e+06
1.00155e+06
994972
988337
981643
974892
968088
961232
954326
947371
940370
933322
926228
919087
911901
904670
897398
890088
882745
875372
867972
860547
853101
845636
838152
830651
823132
815594
808033
800447
792831
785180
777491
769760
761989
754181
746343
738484
730610
722724
714830
706927
699011
691078
683121
675137
667125
659086
651019
642923
634799
626644
618462
610259
602043
593825
585614
577413
569225
561049
552885
544731
536588
528453
520326
512204
504088
495977
487877
479786
471705
463633
455565
447497
439424
431344
423258
415169
407085
399015
390968
382948
374958
366998
359067
351160
343274
335409
327569
319758
311983
304249
296566
288930
281337
273787
266279
258817
251406
244051
236757
229525
222357
215252
208211
201236
194330
187498
180746
174073
167474
160945
1.27438e+06
1.27424e+06
1.27396e+06
1.27355e+06
1.273e+06
1.27231e+06
1.27149e+06
1.27052e+06
1.26942e+06
1.26817e+06
1.26679e+06
1.26526e+06
1.2636e+06
1.2618e+06
1.25987e+06
1.25779e+06
1.25559e+06
1.25325e+06
1.25078e+06
1.24818e+06
1.24546e+06
1.24261e+06
1.23964e+06
1.23655e+06
1.23336e+06
1.23005e+06
1.22663e+06
1.22311e+06
1.21949e+06
1.21576e+06
1.21194e+06
1.20802e+06
1.20401e+06
1.19991e+06
1.19572e+06
1.19145e+06
1.18709e+06
1.18265e+06
1.17813e+06
1.17353e+06
1.16885e+06
1.16408e+06
1.15922e+06
1.15428e+06
1.14926e+06
1.14415e+06
1.13895e+06
1.13366e+06
1.1283e+06
1.12286e+06
1.11735e+06
1.11176e+06
1.10611e+06
1.1004e+06
1.09463e+06
1.0888e+06
1.08292e+06
1.07698e+06
1.071e+06
1.06496e+06
1.05888e+06
1.05274e+06
1.04656e+06
1.04033e+06
1.03406e+06
1.02774e+06
1.02137e+06
1.01496e+06
1.00849e+06
1.00196e+06
995367
988716
982005
975238
968419
961551
954636
947673
940665
933609
926505
919353
912154
904909
897622
890296
882937
875548
868133
860697
853241
845767
838278
830773
823252
815715
808158
800576
792964
785318
777634
769908
762138
754329
746488
738625
730747
722858
714962
707059
699145
691212
683254
675268
667254
659213
651145
643047
634919
626760
618572
610362
602138
593911
585692
577486
569293
561113
552945
544790
536645
528510
520382
512259
504142
496032
487933
479845
471768
463701
455637
447571
439499
431419
423331
415240
407154
399083
391035
383014
375023
367063
359130
351220
343330
335462
327618
319804
312025
304290
296605
288967
281372
273820
266311
258847
251434
244077
236781
229546
222374
215266
208222
201242
194331
187492
180730
174043
167430
160882
1.27942e+06
1.27926e+06
1.27895e+06
1.27851e+06
1.27792e+06
1.27718e+06
1.2763e+06
1.27526e+06
1.27408e+06
1.27276e+06
1.27129e+06
1.26967e+06
1.26792e+06
1.26602e+06
1.26399e+06
1.26181e+06
1.2595e+06
1.25705e+06
1.25447e+06
1.25176e+06
1.24892e+06
1.24596e+06
1.24287e+06
1.23967e+06
1.23636e+06
1.23294e+06
1.22942e+06
1.22579e+06
1.22207e+06
1.21825e+06
1.21433e+06
1.21032e+06
1.20622e+06
1.20204e+06
1.19777e+06
1.19342e+06
1.18899e+06
1.18447e+06
1.17989e+06
1.17522e+06
1.17047e+06
1.16564e+06
1.16073e+06
1.15573e+06
1.15065e+06
1.14547e+06
1.14022e+06
1.13487e+06
1.12945e+06
1.12395e+06
1.11837e+06
1.11273e+06
1.10703e+06
1.10127e+06
1.09544e+06
1.08957e+06
1.08365e+06
1.07768e+06
1.07165e+06
1.06559e+06
1.05947e+06
1.05331e+06
1.0471e+06
1.04086e+06
1.03456e+06
1.02823e+06
1.02185e+06
1.01541e+06
1.00893e+06
1.00239e+06
995782
989114
982386
975603
968770
961891
954968
947999
940983
933919
926805
919641
912427
905167
897863
890520
883142
875736
868307
860857
853391
845909
838413
830903
823380
815843
808288
800709
793101
785458
777776
770052
762282
754470
746625
738758
730875
722983
715085
707181
699267
691334
683375
675388
667372
659331
651261
643163
635033
626871
618678
610462
602232
593999
585774
577563
569366
561182
553012
544854
536707
528569
520440
512316
504197
496086
487988
479901
471826
463761
455700
447636
439565
431484
423396
415305
407218
399147
391099
383078
375087
367127
359194
351282
343390
335517
327670
319853
312072
304334
296646
289006
281408
273854
266343
258878
251463
244105
236807
229569
222394
215282
208234
201250
194332
187486
180714
174015
167386
160822
1.2851e+06
1.28492e+06
1.28459e+06
1.2841e+06
1.28346e+06
1.28266e+06
1.2817e+06
1.28059e+06
1.27932e+06
1.2779e+06
1.27632e+06
1.2746e+06
1.27273e+06
1.27072e+06
1.26857e+06
1.26628e+06
1.26384e+06
1.26127e+06
1.25856e+06
1.25572e+06
1.25275e+06
1.24965e+06
1.24644e+06
1.24311e+06
1.23967e+06
1.23613e+06
1.23249e+06
1.22874e+06
1.2249e+06
1.22097e+06
1.21695e+06
1.21284e+06
1.20864e+06
1.20436e+06
1.2e+06
1.19556e+06
1.19105e+06
1.18645e+06
1.18179e+06
1.17705e+06
1.17223e+06
1.16733e+06
1.16235e+06
1.15728e+06
1.15213e+06
1.14689e+06
1.14157e+06
1.13616e+06
1.13067e+06
1.1251e+06
1.11947e+06
1.11377e+06
1.10801e+06
1.10219e+06
1.09632e+06
1.09039e+06
1.08443e+06
1.07841e+06
1.07235e+06
1.06625e+06
1.06011e+06
1.05392e+06
1.04769e+06
1.04141e+06
1.0351e+06
1.02874e+06
1.02234e+06
1.01589e+06
1.00939e+06
1.00283e+06
996206
989520
982775
975977
969132
962245
955315
948341
941319
934246
927120
919941
912711
905434
898113
890751
883355
875932
868487
861025
853548
846059
838556
831041
823515
815975
808420
800842
793235
785593
777911
770185
762413
754598
746749
738877
730989
723092
715191
707286
699371
691437
683477
675489
667473
659431
651362
643263
635133
626969
618774
610554
602320
594083
585855
577640
569440
561254
553081
544920
536770
528630
520498
512372
504251
496139
488039
479952
471877
463813
455752
447688
439617
431536
423448
415358
407273
399203
391156
383136
375146
367188
359256
351343
343448
335573
327723
319904
312120
304380
296688
289044
281444
273888
266375
258908
251493
244134
236833
229593
222414
215298
208245
201256
194333
187479
180697
173987
167344
160765
1.29148e+06
1.29128e+06
1.29091e+06
1.29038e+06
1.28967e+06
1.2888e+06
1.28775e+06
1.28654e+06
1.28516e+06
1.28362e+06
1.28192e+06
1.28007e+06
1.27807e+06
1.27592e+06
1.27363e+06
1.27119e+06
1.26861e+06
1.26589e+06
1.26304e+06
1.26005e+06
1.25694e+06
1.2537e+06
1.25034e+06
1.24687e+06
1.24329e+06
1.2396e+06
1.23582e+06
1.23195e+06
1.22799e+06
1.22393e+06
1.21979e+06
1.21557e+06
1.21126e+06
1.20688e+06
1.20241e+06
1.19787e+06
1.19326e+06
1.18857e+06
1.18381e+06
1.17899e+06
1.17408e+06
1.1691e+06
1.16404e+06
1.1589e+06
1.15367e+06
1.14836e+06
1.14297e+06
1.13749e+06
1.13194e+06
1.12631e+06
1.12061e+06
1.11485e+06
1.10903e+06
1.10316e+06
1.09723e+06
1.09126e+06
1.08525e+06
1.07919e+06
1.07309e+06
1.06695e+06
1.06077e+06
1.05456e+06
1.0483e+06
1.042e+06
1.03566e+06
1.02928e+06
1.02285e+06
1.01638e+06
1.00986e+06
1.00327e+06
996629
989924
983162
976350
969495
962600
955665
948687
941659
934578
927438
920242
912994
905699
898359
890980
883568
876130
868671
861198
853712
846213
838704
831183
823651
816108
808550
800970
793361
785716
778031
770302
762526
754706
746853
738976
731083
723181
715276
707369
699452
691516
683555
675566
667550
659508
651440
643342
635213
627050
618854
610634
602398
594159
585929
577713
569512
561323
553148
544985
536832
528689
520554
512424
504301
496186
488084
479994
471917
463851
455789
447725
439653
431572
423484
415396
407313
399246
391202
383185
375198
367242
359310
351397
343502
335626
327774
319953
312168
304424
296729
289081
281478
273919
266405
258938
251522
244162
236859
229616
222434
215314
208256
201261
194332
187470
180679
173958
167302
160709
1.29863e+06
1.29841e+06
1.298e+06
1.2974e+06
1.29662e+06
1.29565e+06
1.29449e+06
1.29316e+06
1.29165e+06
1.28997e+06
1.28812e+06
1.28611e+06
1.28394e+06
1.28162e+06
1.27916e+06
1.27655e+06
1.2738e+06
1.27092e+06
1.26789e+06
1.26474e+06
1.26146e+06
1.25806e+06
1.25454e+06
1.25091e+06
1.24718e+06
1.24334e+06
1.23942e+06
1.2354e+06
1.2313e+06
1.22711e+06
1.22284e+06
1.21849e+06
1.21406e+06
1.20955e+06
1.20497e+06
1.20031e+06
1.19559e+06
1.19079e+06
1.18593e+06
1.181e+06
1.176e+06
1.17093e+06
1.16578e+06
1.16055e+06
1.15524e+06
1.14986e+06
1.14439e+06
1.13885e+06
1.13323e+06
1.12754e+06
1.12178e+06
1.11596e+06
1.11008e+06
1.10416e+06
1.09818e+06
1.09216e+06
1.0861e+06
1.08e+06
1.07386e+06
1.06769e+06
1.06147e+06
1.05522e+06
1.04893e+06
1.0426e+06
1.03623e+06
1.02982e+06
1.02337e+06
1.01687e+06
1.01032e+06
1.00371e+06
997045
990320
983541
976715
969848
962945
956004
949020
941986
934895
927742
920530
913264
905950
898594
891199
883773
876323
868854
861371
853876
846370
838853
831324
823786
816236
808672
801086
793472
785824
778135
770400
762619
754793
746934
739052
731154
723247
715338
707427
699506
691568
683605
675615
667599
659558
651491
643396
635270
627109
618916
610697
602463
594225
585995
577779
569577
561388
553210
545044
536889
528742
520603
512471
504344
496226
488120
480026
471945
463875
455810
447743
439670
431588
423502
415416
407338
399275
391235
383221
375238
367284
359354
351441
343547
335671
327820
319998
312211
304465
296766
289115
281509
273949
266433
258965
251549
244188
236884
229638
222452
215328
208265
201265
194328
187459
180659
173927
167260
160654
1.30665e+06
1.3064e+06
1.30593e+06
1.30525e+06
1.30437e+06
1.30328e+06
1.30199e+06
1.3005e+06
1.29883e+06
1.29697e+06
1.29493e+06
1.29273e+06
1.29036e+06
1.28785e+06
1.28518e+06
1.28237e+06
1.27942e+06
1.27633e+06
1.27311e+06
1.26977e+06