/*--------------------------------*- C++ -*----------------------------------*\
| =========                 |                                                 |
| \\      /  F ield         | OpenFOAM: The Open Source CFD Toolbox           |
|  \\    /   O peration     | Version:  2112                                  |
|   \\  /    A nd           | Website:  www.openfoam.com                      |
|    \\/     M anipulation  |                                                 |
\*---------------------------------------------------------------------------*/
FoamFile
{
    version     2.0;
    format      ascii;
    arch        "LSB;label=32;scalar=64";
    class       volScalarField;
    location    "0.37";
    object      ddt0(omegaU);
}
// * * * * * * * * * * * * * * * * * * * * * * * * * * * * * * * * * * * * * //

dimensions      [0 0 -2 0 0 0 0];

internalField   nonuniform List<scalar> 
12225
(
54.8766
359.004
808.438
1093.77
1115.16
832.886
-95.5484
-2037.01
-4951.21
-8395.45
-11753.2
-14421.7
-15888.5
-15663.2
-13197.2
-7589.54
2670.77
19202.1
-52.8164
90.214
760.211
1776.39
2939.82
4425.12
6468.25
8970.68
11565.1
13863.1
15576.9
16526.9
16567.5
15506.8
13053.7
8805.51
1616.11
-7477.23
-11.3668
-22.287
69.8862
343.993
843.582
1683.28
2997.9
4773.91
6834.37
8938.82
10887.9
12549.9
13823.7
14574.3
14569.6
13430.2
10199.5
3577.46
-0.70828
-3.01378
-1.08728
29.2855
121.711
334.394
724.578
1335.57
2151.71
3123.19
4174.58
5232.9
6226.2
7043.88
7575.44
7624.96
6788.77
4573.42
-0.00919097
0.122132
0.545354
4.15662
16.8834
45.5555
112.338
231.533
409.759
654.601
949.125
1262.39
1591.46
1924.39
2204.2
2368.91
2317.48
1919.87
-0.0177874
0.292939
0.696638
1.37567
3.15818
7.18987
17.1832
36.4133
67.5016
106.255
158.82
235.181
318.986
409.112
493.799
559.729
586.173
545.062
-0.0554256
0.207148
0.579518
0.921009
1.25894
1.76481
2.89724
5.2976
9.64086
15.4625
24.1813
38.4366
55.803
75.5642
96.2998
115.72
130.24
135.055
-0.0821818
0.124908
0.467255
0.779628
0.978213
1.01355
0.892659
0.696869
0.554115
0.572713
0.968832
2.0173
3.76461
6.18657
9.14729
12.3338
15.23
17.0805
-0.100297
0.0589686
0.368409
0.673239
0.873265
0.886989
0.656673
0.166421
-0.56334
-1.49731
-2.59281
-3.77969
-4.98538
-6.16924
-7.33683
-8.54795
-9.90863
-11.5651
-0.111779
0.00595002
0.278347
0.567518
0.770574
0.802472
0.594664
0.109274
-0.661747
-1.71256
-3.03044
-4.58606
-6.34553
-8.2936
-10.4446
-12.8412
-15.5427
-18.6012
-0.117543
-0.0348822
0.198047
0.461995
0.656045
0.696219
0.512065
0.0566237
-0.692592
-1.74358
-3.09638
-4.74301
-6.67549
-8.89859
-11.438
-14.3366
-17.6467
-21.4132
-0.118566
-0.062587
0.134152
0.369237
0.546404
0.584027
0.412099
-0.0209277
-0.746465
-1.78219
-3.13817
-4.81982
-6.83391
-9.19655
-11.9386
-15.1004
-18.7285
-22.8551
-0.115931
-0.0810939
0.0812337
0.284441
0.439379
0.467983
0.301991
-0.112217
-0.811879
-1.82213
-3.16105
-4.84328
-6.88465
-9.30721
-12.1422
-15.4242
-19.1916
-23.4617
-0.108783
-0.0920459
0.0336363
0.197871
0.321807
0.333057
0.166865
-0.230185
-0.898636
-1.86891
-3.1651
-4.80815
-6.81913
-9.22187
-12.0443
-15.3125
-19.0549
-23.274
-0.0961186
-0.0933712
-0.00453785
0.115246
0.200066
0.185906
0.0142922
-0.364705
-0.991481
-1.89856
-3.11299
-4.6583
-6.55643
-8.82861
-11.4959
-14.5739
-18.0797
-22.0024
-0.0771319
-0.0840183
-0.0312021
0.0403074
0.0805055
0.036133
-0.142445
-0.497915
-1.0657
-1.87526
-2.95152
-4.31575
-5.98606
-7.97731
-10.3013
-12.9625
-15.9668
-19.2924
-0.0506114
-0.0608444
-0.0412669
-0.0203032
-0.0329877
-0.115761
-0.302897
-0.622908
-1.10003
-1.75565
-2.60839
-3.67345
-4.96191
-6.48005
-8.22956
-10.2044
-12.4002
-14.7886
-0.0193951
-0.0308185
-0.0460572
-0.0790747
-0.143637
-0.256442
-0.434826
-0.688165
-1.02311
-1.44624
-1.96382
-2.5803
-3.29685
-4.11052
-5.01465
-5.99654
-7.04643
-8.13575
0.0158524
-0.00102668
-0.0566253
-0.14572
-0.258891
-0.384161
-0.509644
-0.628839
-0.735686
-0.822323
-0.878921
-0.894467
-0.857681
-0.757383
-0.583088
-0.323143
0.0287484
0.488708
0.0398624
0.0173535
-0.070333
-0.198784
-0.334245
-0.444312
-0.498037
-0.466995
-0.324898
-0.0477935
0.385341
0.992021
1.78574
2.77579
3.96711
5.36205
6.95574
8.74729
0.0530282
0.0216512
-0.0892422
-0.237157
-0.372278
-0.446201
-0.411676
-0.223589
0.157999
0.766056
1.62623
2.75684
4.16873
5.86546
7.84351
10.0942
12.6001
15.3452
0.0578984
0.0130694
-0.116095
-0.267106
-0.376426
-0.386703
-0.240459
0.118037
0.737558
1.65725
2.90571
4.50089
6.44943
8.74679
11.3783
14.3222
17.5466
21.0195
0.0566713
-0.00420977
-0.144042
-0.280853
-0.344647
-0.272803
0.000933285
0.540165
1.3976
2.61212
4.20815
6.19755
8.57841
11.3326
14.427
17.8192
21.4569
25.2884
0.0500997
-0.0292166
-0.169145
-0.271851
-0.271341
-0.109028
0.277293
0.938835
1.90222
3.16407
4.69126
6.427
8.27564
10.133
11.8825
13.4039
14.5792
15.3019
0.038421
-0.0626442
-0.197186
-0.273047
-0.286852
-0.29974
-0.452733
-0.998745
-2.31538
-4.8926
-9.30173
-16.1486
-26.4904
-40.6979
-59.2748
-82.6102
-111.005
-144.64
0.0245811
-0.0756306
-0.238588
-0.778333
-2.71377
-7.68641
-18.0161
-36.708
-67.3798
-113.988
-180.455
-270.396
-390.596
-540.127
-720.302
-929.219
-1167.59
-1434.01
0.186363
0.713944
0.161672
-8.39469
-39.0528
-106.983
-229.144
-421.928
-702.466
-1086.55
-1585.42
-2203.25
-2932.23
-3770.57
-4710.55
-5730.21
-6828.82
-7994.04
5.08173
17.0122
7.56376
-111.7
-459.924
-1091.31
-2008.01
-3179.36
-4593.44
-6244.47
-8109.04
-10142.3
-12290.2
-14506.7
-16762.6
-19058.5
-21365.3
-23678
41.6271
131.606
-1.23193
-811.871
-2565.52
-5034.33
-7690.38
-10211.2
-12564.4
-14835.8
-17078.3
-19283.6
-21413.6
-23437.8
-25343.2
-27128.8
-28777.1
-30265.5
-15.7515
-117.34
-338.729
-598.583
-572.496
120.701
1646.07
3921.76
6849.71
10428.6
14695.6
19652.2
25239.9
31359
37909.1
44813.7
52011.8
59424.8
10433.7
8347.52
9369.47
11331.3
15145.3
21389.3
28679.7
36276.8
44732.8
53971.1
63896.4
74490.5
85717.5
97466.6
109511
121462
132803
143267
154808
179124
236349
296596
358558
421313
480930
529780
561405
587867
586756
561688
519638
467500
411964
360317
319995
296592
296271
349786
441535
559425
677321
746749
710547
532052
210898
-260096
-902504
-1.69121e+06
-2.52451e+06
-3.39008e+06
-2.58661e+06
-2.27417e+06
-1.9481e+06
-1.60209e+06
-1.26676e+06
-958386
-680742
-434564
-217103
-18162.8
167106
337777
500046
664828
843008
1.042e+06
1.2627e+06
1.37569e+06
1.49802e+06
1.62336e+06
1.74554e+06
1.85976e+06
1.96187e+06
2.04785e+06
2.11344e+06
2.15549e+06
2.17262e+06
2.16414e+06
2.12206e+06
2.04281e+06
1.92911e+06
1.78207e+06
1.60376e+06
1.39702e+06
1.16536e+06
912681
642992
360800
70834.6
-226430
-458733
-620998
-773199
-895243
-991401
-1.06982e+06
-1.13523e+06
-1.18959e+06
-1.24932e+06
-1.31063e+06
-1.3725e+06
-1.43712e+06
-1.48293e+06
-1.40866e+06
-931148
-440284
30087.4
457279
798520
1.00368e+06
1.04069e+06
922475
717507
534491
484559
642198
1.00785e+06
1.39074e+06
1.40465e+06
546571
-1.43663e+06
-3.94703e+06
-4.95839e+06
-4.10704e+06
-3.53235e+06
-2.77838e+06
-1.98703e+06
-1.20657e+06
-458557
222468
819879
1.39634e+06
1.61582e+06
1.77275e+06
1.85166e+06
1.83367e+06
1.69844e+06
1.45005e+06
1.09166e+06
617636
36263.1
-720059
-1.13853e+06
-1.58109e+06
-1.94908e+06
-2.2298e+06
-2.43142e+06
-2.55084e+06
-2.58347e+06
-2.53543e+06
-2.4173e+06
-2.23422e+06
-1.98301e+06
-1.66688e+06
-1.27387e+06
-498538
207377
840255
1.39796e+06
1.87399e+06
2.24546e+06
2.49146e+06
2.60522e+06
2.5979e+06
2.4937e+06
2.32472e+06
2.12743e+06
1.93522e+06
1.76805e+06
1.62564e+06
1.49144e+06
1.34529e+06
1.17674e+06
989123
794084
603208
421976
250982
93308.2
-39397.6
31392.5
20177.3
21302.8
24041.8
26673.2
29048
31037.2
32583.4
33704.1
34462.7
34915.7
35088.1
34976.7
34551.8
33750.8
32469.6
30543.4
27633
22291.2
6740.35
-31673.7
-56905.3
-66853.6
-62252
-45813.4
-22065.8
1699.59
5929.38
2642.89
-10559.6
-35199.1
-69236.2
-106303
-139356
-164670
-183118
-200584
-272729
-360418
-443317
-536601
-700775
-994893
-1.39534e+06
-1.7691e+06
-2.01398e+06
-1.49192e+06
-982459
-706095
-411604
-55026.7
217510
454204
646892
790247
884653
933245
944071
932879
890304
817217
722704
617692
507472
391121
261251
107672
93158.6
81194.7
70752.7
61684.5
53833.6
47082.4
41218.9
35687.8
29148.2
18719.3
3223.2
7149.71
22373.5
39795.8
59135.6
79862
101219
122198
141602
158170
170791
178456
180053
148146
121967
95947.1
67303.2
37377.8
4794.08
-38488.4
-107011
-145795
-167480
-193828
-238469
-320538
-485412
-873301
-1.02559e+06
-871160
-607272
-290773
46365.6
357652
579145
649472
538663
272479
-106138
-644287
-1.18675e+06
-1.82835e+06
-2.51826e+06
-2.79814e+06
-1.74962e+06
-393493
384022
890409
1.16633e+06
1.33507e+06
1.35183e+06
1.15555e+06
826451
467456
38824.2
-19885.9
-78429.9
-167503
-207879
-209980
-208729
-203695
-195624
-180085
-158436
-148090
-143865
-151621
-221290
-305512
-339138
-372793
-413259
-461823
-518649
-585228
-664336
-794925
-1.06864e+06
-1.04382e+06
-864007
-583934
-227111
181135
603886
976199
1.20468e+06
1.27801e+06
1.24957e+06
1.16056e+06
1.03734e+06
904634
781185
674023
579078
489329
402024
319099
243994
178756
122774
73972.1
29833.6
87408.1
49038.1
39831.2
35786
33159.2
30977.6
29081.7
27399
25858.6
24416.8
23062.3
21794.5
20610.3
19499.3
18440.4
17403.7
16353.4
15246.8
13951.8
11987.5
7743.42
-1113.59
-12853.1
-25549.3
-37135.1
-46681.5
-55287.6
-68205.9
-87525.1
-116541
-156252
-202771
-249738
-293013
-334751
-382451
-495554
-632965
-784216
-973818
-1.22371e+06
-1.50665e+06
-1.73913e+06
-1.37953e+06
-777448
-417282
-31633.3
244058
462219
643630
786554
875546
917509
911313
859538
769690
655614
527322
396490
272603
168161
86294.1
26085.8
-15501.3
-42595.4
-59481.1
-63270.4
-66491.7
-69356.1
-71642.2
-73134.4
-73598.9
-72772.2
-70511
-66699.8
-61072.1
-53388.6
-43555.9
-31424.9
-16896.3
164.277
19871.4
42290.2
67379.6
94927.7
124481
155210
185812
214284
237983
213753
200830
183565
159286
129844
97024.9
62736.1
29141.9
-272.197
-23902.9
-41126.4
-51868.2
-57602.3
-63932.7
-87135.2
-174080
-376371
-477099
-459271
-339670
-153799
35627.5
133025
36098.6
-281763
-766118
-1.36077e+06
-2.01444e+06
-2.55274e+06
-2.46862e+06
-1.06582e+06
565220
1.2463e+06
1.47656e+06
1.40809e+06
1.14588e+06
806331
445291
143039
-60479.8
-163857
-194313
-205688
-213855
-219086
-219544
-216299
-209459
-197965
-178290
-144186
-125997
-110214
-100898
-98458.3
-101063
-105281
-110618
-118251
-128633
-142297
-159797
-181603
-209548
-250173
-403995
-643852
-797386
-854569
-798974
-625660
-356826
-52116.8
260470
533040
728786
831422
842559
782353
681419
568369
460563
364535
281411
210958
153155
107986
74135
49128.8
29252.4
163916
79592.6
49911
34237.1
24767.6
18637.2
14353.1
11093.2
8452.08
6204.33
4261.36
2590.74
1182.03
26.6375
-891.205
-1596.34
-2119.54
-2489.54
-2705.4
-2625.94
-2743.39
-5153.44
-10079.5
-18515.2
-30959
-47649.2
-69123.6
-97061.2
-135911
-188299
-252843
-323513
-395904
-469353
-568996
-728537
-802505
-872865
-1.01802e+06
-1.24326e+06
-1.28824e+06
-927088
-592228
-149160
193035
442059
631438
752217
828349
865000
861967
818591
739131
630469
504734
376976
261037
165070
92460.8
42201.2
10555.1
-8086.22
-18762.9
-25348.9
-30393.6
-33876.3
-37681.9
-41366.4
-44676.3
-47355.1
-49200.7
-49966.6
-49386.2
-47275.6
-43821.4
-39093.2
-33080.8
-25822.1
-17416.2
-7911.14
2653.41
14414.4
27784.1
43480.7
62518.2
86010.9
114451
147679
183902
219095
211532
216746
213701
202250
182357
154280
119023
78937.1
37530.1
-1627.24
-35806.4
-62468.9
-78739.3
-82283.2
-73525.8
-59547.2
-61269.7
-117194
-174945
-209896
-208452
-191275
-222721
-387524
-727701
-1.21534e+06
-1.78416e+06
-2.30186e+06
-2.39763e+06
-1.37641e+06
597817
1.42559e+06
1.58354e+06
1.38411e+06
1.00391e+06
596170
266738
48669.9
-67669.4
-119134
-140156
-151076
-158751
-164654
-168523
-171348
-172160
-168368
-158865
-139408
-114428
-95808.7
-80845.2
-72112.5
-68568.7
-68493.6
-70614.9
-75363.2
-82409.3
-91113.5
-101572
-115057
-131859
-152546
-178753
-217754
-302371
-398732
-506771
-592794
-619447
-562679
-420790
-204106
53829
307139
513453
643560
686936
652727
565721
455147
344433
247148
168306
108090
64782
35520.3
17504.1
7122.99
236775
94465.9
43518.6
19604.3
7671.42
1330.23
-2521.13
-5314.03
-7642.72
-9694.24
-11458
-12903.1
-13991.4
-14709.6
-15077.3
-15148.6
-15007.6
-14752.7
-14423.6
-13832.1
-14907.5
-16702.1
-20275.6
-27528.9
-40624.7
-61655.5
-92922.4
-137668
-196369
-275344
-367132
-460059
-559802
-693662
-740597
-724152
-784949
-851551
-717815
-617238
-375478
-68964.8
226970
481446
649779
753933
808638
821093
800681
749490
669630
566579
450418
333854
229229
144874
83431.1
42703.4
18017
4105
-3640.57
-8608.59
-12839
-17306
-22322.6
-27746.6
-32791
-37181
-40677.6
-43055.8
-44051.5
-43308.5
-40731.7
-36115.1
-29407.2
-20766.9
-10403.1
1339.38
13769.2
25913.1
36710.3
45306.6
51437.6
55696.6
59863.3
67091.6
79967.8
102095
133989
165086
178086
195180
205750
208812
203345
187809
161165
124370
80900.4
34935.9
-10153
-51091.4
-83933.3
-104263
-108097
-94162.8
-67819.1
-46644.5
-56985.1
-96389.9
-159596
-249668
-394968
-644836
-1.03033e+06
-1.52232e+06
-2.01792e+06
-2.28883e+06
-1.83756e+06
-85689.6
1.35933e+06
1.62772e+06
1.43694e+06
1.02802e+06
598656
272773
77110.2
-20722.4
-63835.8
-84410.7
-99316.2
-107314
-113182
-118942
-125502
-132715
-138246
-139288
-132889
-116567
-96601.8
-77481.9
-61289.1
-50398.2
-45097.7
-44187.8
-46536.6
-51281.7
-57612.6
-64642.6
-71834.8
-80259
-91240.7
-105706
-125393
-153160
-200262
-259528
-330563
-409630
-478343
-510423
-481791
-378800
-206064
11164.5
233125
420646
543097
585042
551235
463670
352776
244975
155429
88842.1
43828.8
16236.1
1838.02
-3963.58
289262
91730.4
25962.9
548.717
-9018.62
-12939.8
-15290.6
-17406.6
-19531.9
-21554
-23287.4
-24560.5
-25256.3
-25354
-24897.9
-23991
-22792.1
-21520.3
-20467.1
-20594.6
-21613
-23082.6
-26492.9
-34195.7
-49868.4
-77425
-120224
-183168
-282359
-390332
-500194
-588033
-599015
-548313
-560621
-438401
-404692
-318074
-175276
6459.67
223189
426939
590406
700301
755075
769022
750473
704070
633705
543174
439579
333166
234811
152860
91184.6
49079
22743.9
7252.92
-1922.54
-8176.64
-13609.4
-19201.2
-25125.3
-31095
-36609
-42474.3
-47552.6
-51733.3
-54895.7
-56773.7
-57137.9
-55957.1
-52723
-46738.6
-37428.2
-24478.3
-7866.46
11944.1
33786.4
55802.2
75404.5
89928
97450.5
97240.1
90249.9
81347.2
73803.8
76769.5
93426.6
105984
128754
151678
171223
185319
192492
190736
177464
151332
114164
69545.2
20803.6
-28535.2
-74027.6
-110285
-131425
-132538
-112742
-79828.1
-56106.9
-69263.2
-135099
-265779
-477304
-793145
-1.22185e+06
-1.71088e+06
-2.10286e+06
-2.08005e+06
-1.13439e+06
850454
1.6239e+06
1.54971e+06
1.1663e+06
709769
351146
137167
31466.7
-16640
-40375.6
-54709.9
-67640
-72393.4
-77449.5
-84145.5
-92966.9
-103065
-111915
-116394
-113743
-100788
-84761.8
-67086
-51338.5
-40349.1
-35015.6
-34570.2
-37596.7
-42685.9
-48666.3
-54656.3
-60019.9
-64866.5
-70649.3
-78340.7
-89163.5
-105452
-132848
-177264
-233124
-298803
-367599
-424390
-447649
-417077
-322012
-166752
26039.7
222122
384534
483962
506844
459802
367253
260821
165170
92189.7
43449.8
14841.4
915.513
-4028.5
319816
81293.6
7231.38
-14555.2
-19868.9
-21786
-23932.5
-26680.4
-29583.9
-32171.2
-34115.5
-35227.5
-35433.7
-34755.1
-33288
-31196.8
-28717.5
-26229.3
-24358.5
-23512
-23080.3
-23862.3
-27320.9
-36393.8
-55641.2
-89461.7
-144478
-233132
-337062
-416309
-429661
-402953
-311062
-249343
-200257
-128178
-39901
78122.4
216565
362130
497426
602650
670003
699122
694799
663812
609851
536177
447868
352469
259305
176963
110963
62840.7
30727.3
10775.9
-1322.91
-9257.29
-15597.2
-21763.4
-28250.2
-34934.2
-41348.2
-46899.8
-52303.5
-56510.9
-59528.6
-61507.2
-62698.7
-63194.4
-62857.7
-61960.1
-60110.2
-56331.6
-49264.4
-37454
-19810.2
3960.7
33089.9
65194.5
96232.7
121259
136297
139235
128046
110037
86327.6
72638.4
62684.5
67235
81882.1
102817
125446
145990
161922
171063
170454
157159
130703
92947.7
46363
-5820.63
-59111.6
-107634
-144343
-162082
-156164
-128992
-95898.6
-90144.2
-142475
-279620
-520942
-876892
-1.33287e+06
-1.80241e+06
-2.06914e+06
-1.75825e+06
-478180
1.31134e+06
1.73542e+06
1.37535e+06
909381
489306
221925
86970.7
25779.5
-4218.58
-22173.7
-33443.3
-43015.5
-46040.8
-50785
-57545.4
-66846.5
-78782.4
-90208.9
-98541.6
-97433.1
-90312.3
-77239.9
-61472
-46965.7
-36890.1
-32524.2
-33270.6
-37503.2
-43407.2
-49517.7
-54984.1
-59343.9
-62584.1
-65745.8
-69912.9
-75648
-84079.2
-98240.7
-128407
-167050
-220279
-283018
-345610
-391796
-401798
-359763
-259511
-108924
69008.3
241689
375070
443094
439412
377617
285400
191529
114592
60949.6
28533.4
12055.2
5377.7
330915
73985.3
-7337.85
-23273.9
-25458.4
-27753.3
-31639.8
-36081.9
-40103.7
-43176.7
-45084.3
-45762
-45236.3
-43610.3
-41055.6
-37803
-34148.1
-30506.6
-27123.9
-24336.1
-22612.9
-22597.9
-25722
-35117.4
-55535.4
-93613
-168679
-256173
-294863
-242690
-183664
-144777
-93732.6
-38400.7
28673.9
108999
201368
302185
402245
491658
561080
604336
620452
611052
578892
526874
458154
377857
293276
212493
142365
86879.7
46720.2
19933
3115.43
-7411.72
-14773.4
-21140.2
-27680.9
-34715.6
-41960.2
-48824.2
-54591.4
-58482.8
-61046.9
-61880.2
-61183
-59253
-56510.2
-53432.2
-50496.9
-48189.6
-46973.9
-46792.2
-46304.3
-42780.5
-33121.8
-14796.8
13287.9
49095.6
87830.4
122259
145260
155625
145026
125597
93471.1
66196.6
45809.2
36728.2
40292.8
54706.9
75910.8
99275.3
120988
138162
147694
146044
131133
102869
62228.7
11482.5
-45415.3
-102600
-152383
-186052
-195957
-179849
-147675
-130375
-167390
-296953
-545836
-918985
-1.38177e+06
-1.81306e+06
-1.94729e+06
-1.39808e+06
33483.8
1.50777e+06
1.67635e+06
1.24177e+06
706938
351032
157544
69151.8
28436
5849.43
-8406.8
-16666.2
-24482.4
-26496.4
-30028.6
-36718.5
-46119.1
-59684.5
-72433.3
-81908.2
-85697.9
-81925.6
-71533.7
-57786
-44839.4
-36152.9
-33232.6
-35466.5
-40948.5
-47531.7
-53591.9
-58382.7
-61767.3
-64076.3
-66266
-69351.8
-73536.2
-79138.6
-87325
-104345
-129708
-167576
-218817
-278114
-333427
-366820
-359813
-300720
-189100
-38147.8
127153
275022
374801
408631
380289
310422
226192
149624
91758
53941.8
32556.1
22028.2
315744
77367.5
-17845
-27178.9
-28936.7
-33952.3
-40400.4
-46300.4
-50787.4
-53695.8
-55105.6
-55110.3
-53805.2
-51326.6
-47866
-43698.2
-39141.1
-33942
-29475.8
-25651.6
-22695
-21052.9
-21809.7
-27523.7
-53929.7
-104786
-114486
-121069
-106205
-77365.9
-43803.2
-2178
47962.3
105778
171206
242226
315465
385965
447837
495938
526495
537610
529044
501396
456168
396213
326257
252778
182702
121745
73224.8
37779
13870.1
-1292.61
-10827.1
-17486.4
-23279.9
-29367.5
-36139.3
-43392.9
-50539.3
-56726.8
-60897.9
-62220.4
-60932.9
-57711.7
-53117.3
-47705.4
-41697.6
-35054.7
-28349.1
-22267.1
-18293.2
-18640.7
-24557.5
-33259.1
-39536.7
-37026.8
-20900.7
8877.99
47712.3
87656
114809
133360
125861
108357
81358.1
51066.9
24195.1
6333.64
774.618
7844.83
25076.1
48336.1
73322.9
96395.4
114004
122245
118203
100221
67723.4
21603.7
-35311.6
-97770.5
-157978
-206223
-232549
-230473
-204188
-177747
-201443
-316574
-558566
-930149
-1.38035e+06
-1.75878e+06
-1.76917e+06
-1.05587e+06
377012
1.5393e+06
1.57346e+06
1.08198e+06
593639
287470
129278
63229
32446.4
14556.1
3906.23
-3750.95
-10107.1
-10731.8
-12401.6
-19991.4
-29823.2
-42857.5
-57136.4
-69351.8
-75849.8
-74751.3
-66652.8
-54722.1
-43300.9
-36096.9
-34738.5
-38465.2
-44988.3
-51825.4
-57299.9
-60874.3
-62864.1
-64066.7
-65612.2
-68138.3
-71934.4
-77187
-84194.8
-95171.1
-112159
-137717
-175544
-225316
-280106
-325437
-342165
-313880
-234078
-109359
41314.7
190596
308721
371940
374852
330299
261054
189384
129494
86308.2
58788.2
42832.2
274170
48404.6
-26855.2
-28057.6
-32825.5
-41534.1
-49810
-56040.6
-60099
-62341.2
-63093.9
-62498.5
-60662.5
-57717.7
-53823.6
-49230.2
-43810.6
-38188.9
-33253.3
-28191.1
-22042
-13411.1
-2944.77
6669.7
4329.71
-7814.82
-18517.4
-17047.9
-3191.96
19778.3
50838.3
89781.2
135399
186088
239837
293944
345255
390360
426068
449797
459602
454192
432995
396488
346769
287799
225020
164280
110512
66804.9
34121.2
11588.3
-2858.68
-11762.8
-17559
-22208.3
-27026.1
-32634.3
-39010.9
-45593
-51383.9
-54966.8
-55076.9
-53949.7
-48746.2
-42333.6
-35677.6
-29454.6
-23787
-18019.4
-10905.5
-2090.41
7055.8
12421.8
6384.82
-12009.6
-37392.9
-58255.8
-63337.1
-48627.8
-17366.2
24717
53190.9
72741.6
77533.2
68101.9
47227.4
20031.9
-7113.51
-28253.8
-39056.6
-37650
-24840.5
-3541.73
22373.9
49067.2
72620.7
88905.7
94524.7
86664.1
63438.9
24243.5
-29635.7
-94160.6
-162058
-223180
-265888
-280061
-263768
-234477
-242062
-337418
-561503
-916238
-1.33808e+06
-1.65596e+06
-1.56393e+06
-764991
572352
1.48346e+06
1.44531e+06
968513
526223
255099
121566
66836.9
40346
26709
18116.4
7289.95
2551.9
2730.72
812.217
-4770.59
-15036.4
-29138.5
-44935.8
-59071.1
-67744.4
-68688.4
-62315.5
-51774.4
-41615.1
-35786.2
-35963.9
-41097.6
-48416.1
-55083.2
-59464.5
-61347.3
-61527.1
-61206.1
-61349.8
-62583.2
-65592.2
-70777.6
-78233.5
-88567.1
-102783
-121732
-149302
-188223
-236579
-284936
-316320
-311535
-258103
-156647
-21699.9
122691
248710
332136
361462
341742
290205
227169
168171
121021
87458.3
65397.3
211313
12275.6
-25800.3
-27586.3
-38406.1
-49878.7
-58464.5
-64017.1
-67207.2
-68704.7
-68883.9
-67849.1
-65937.3
-62999.7
-59503.1
-55470.1
-48569.3
-42895.3
-34572.8
-23232.3
-6176.45
19005.2
48992.1
72348.8
75655.7
62829.1
51358.6
52095
63123.6
82424.4
109213
142354
180073
220312
260860
299422
333742
361688
381322
390885
388817
374004
346249
306813
258651
206059
153829
106228
66231.1
35202.4
13005.2
-1610.71
-10506.9
-15687.4
-18956.1
-21733.1
-24958.5
-28950.8
-33489
-37810.2
-40622
-40767.8
-37923.4
-30718
-22361.5
-14410.3
-8038.39
-4344.85
-3710.86
-4933.19
-4779.29
-189.364
10556.4
25443.3
28823.5
10186.9
-29729
-75693.2
-106760
-111039
-89997.1
-55556.9
-19984.8
7520.32
21593.2
20755.2
6711.79
-15976.5
-41292.4
-63209.7
-76922.9
-79673.8
-71075
-52820.3
-27917.6
87.6833
27237.5
49424.8
62909.5
64216.5
50469.4
19636.4
-28715.1
-92253.3
-164906
-236749
-295097
-326943
-324497
-296959
-289154
-360065
-556802
-882059
-1.26395e+06
-1.52039e+06
-1.35439e+06
-538218
655865
1.38177e+06
1.31839e+06
891774
494923
248468
127623
74844.9
49563.4
36981.4
29088.4
20841.5
17187.7
16916.1
14614.9
8326.14
-2861.97
-18224.9
-35530.4
-51246.1
-61484.4
-63787.3
-58456.9
-48719.7
-39423.1
-34806.4
-36530.8
-43080.5
-51081.9
-57352.9
-60384.5
-60396
-58444.4
-55819.5
-53436.7
-52390.4
-53774.3
-58253.5
-65990.9
-77048.7
-92146.7
-109562
-132114
-163058
-203679
-249559
-288037
-300209
-268969
-188576
-68794
68593.3
197075
292954
342024
343955
310445
258489
203295
154435
116053
88192.6
131440
-7809.04
-14567.7
-29270.9
-45515.1
-57686.4
-65442.8
-69928.4
-72198.8
-72915
-72372
-70726.8
-68311.6
-65465.4
-62005.5
-57198.9
-49935.7
-40463.9
-25903.8
-3862.9
28298.2
69107
108149
129308
125063
107851
96078.8
95741.2
104172
119688
141455
168100
197725
228315
257945
284840
307371
324008
333265
333704
324132
304007
273906
235784
192789
148661
106969
70477.6
40814.3
18455.7
2927.65
-6878.65
-12378.3
-15020.5
-16093.5
-16627
-17447.3
-18590.5
-19980.5
-20958.9
-19897.9
-15277.6
-6572.27
3305.17
12467.1
20181.2
24982.3
25119.5
19227.6
7672.88
-6070.91
-15219.6
-12245.7
6706.37
23119.4
15438.7
-26451.1
-89301.5
-143185
-164798
-151626
-116037
-73175.1
-35537.6
-11675.9
-5451.53
-15576.8
-37054.6
-63279.8
-87765.8
-105377
-112887
-109255
-95340
-73343
-46328.7
-18068.3
7547.01
26655.1
35502.5
30537.1
8578.7
-32460.4
-92245.8
-166546
-246442
-318924
-368926
-383616
-363116
-342719
-386239
-547583
-832881
-1.16695e+06
-1.36611e+06
-1.15577e+06
-373676
663763
1.2581e+06
1.20337e+06
840729
489009
260915
143320
88089.5
61411.4
48072.5
40731.8
35928.2
33739.3
32091.9
28137.2
20111.7
7181.97
-9842.26
-28701.9
-45763.6
-57046.2
-60007.6
-54962.9
-45361.6
-36496.6
-32988
-36399.9
-44593.2
-53388.6
-59298.4
-60971.8
-58933.3
-54371.6
-48575.5
-42881.3
-38801.3
-37749.3
-40722.4
-48100.5
-59767.3
-77391.2
-95385.5
-116836
-143828
-178613
-220232
-260737
-284028
-271003
-210045
-105202
24469.2
152920
256226
319150
338349
321232
281238
232106
183989
142703
110153
35844.1
11890.3
-15653.2
-35056.1
-52304.3
-64093.4
-71034.6
-74643.9
-76018.6
-75707
-74004.9
-71194
-67658.2
-63608.4
-58709.6
-52187.4
-43008.5
-27886.1
-5126.07
27787.6
70713
116985
152270
163754
152087
133456
122550
121640
127924
140019
157189
178114
200996
224000
245473
263959
278146
286790
288703
282851
268625
246191
216727
182393
145958
110262
77705.3
49938.3
27784
11297.3
5.40784
-6880.18
-10285.8
-11158.9
-10381.2
-8750.62
-6452.27
-4237.38
-2350.79
385.955
5270.55
15340.4
27616.4
36027.4
43400
49131.7
51758
49054.4
38459.4
18589.2
-8590.74
-35548.4
-49796.1
-42209.1
-19791.1
-9411.81
-38106.4
-102566
-166363
-193651
-177714
-133790
-79914.2
-30804.9
2048.91
12507.9
1463.15
-24783
-57776.3
-89774.2
-115057
-130178
-133778
-126286
-109412
-85843.2
-59061.3
-32665.8
-10487.1
3699.04
6018.89
-7487.1
-40292.1
-94082.6
-166931
-251743
-336069
-403661
-437805
-429907
-402147
-418023
-537933
-774788
-1.05598e+06
-1.20467e+06
-976247
-261374
625437
1.12693e+06
1.10004e+06
805499
499013
286502
167888
107718
77631.1
62551.3
55297.7
51932.2
49930.3
47044
41001.6
30553.2
15367.3
-3649.59
-24160
-42372.4
-54201.1
-57097.9
-51537.5
-41399.5
-32629.1
-30309.3
-35772.8
-46005.7
-55914.3
-61659.9
-62005.7
-57614
-49922.3
-40454.2
-30882.8
-23060.4
-18819.3
-19583.2
-26047.4
-38113
-56028.6
-77276.8
-100131
-126193
-157736
-195621
-235669
-265640
-266974
-223820
-134099
-12992.7
113990
222008
294756
327124
323795
295303
253514
208256
166175
130529
-17202.7
6152.35
-18810.2
-39977.5
-57740.9
-69352.2
-75648.7
-78219.8
-78328.1
-76528.9
-73160.8
-68578.6
-63168
-57110.6
-49997
-40705.5
-27694
-7156.56
22091.2
60840.2
105975
148318
174754
177830
163113
145839
136563
135676
140489
149869
163289
179645
197311
214601
230013
242258
250212
252880
249432
239342
222601
199891
172704
143093
113352
85791.4
62131.4
37106.4
21126.2
9465.31
1632.37
-2912.39
-4715.9
-4319.89
-2283.03
1035.5
5533.76
10049.9
14749.4
20697.9
28434.7
38702.6
48568
55843
61132.8
64374.1
64701.9
60043.3
47174.3
22838.3
-13744.3
-57170
-93291.4
-104240
-85376.7
-60934.9
-69863.1
-121473
-176678
-190672
-157430
-97627.4
-30302.4
30250.5
70545.7
82026.5
65352.1
28782.8
-16772
-61721.8
-99279.2
-125781
-139692
-141240
-131949
-114320
-91584.5
-67178.9
-44632.9
-27655.4
-20171.1
-26505.2
-51097.7
-97414
-166005
-252306
-345431
-428969
-483602
-493382
-465601
-457038
-532436
-714560
-939718
-1.04513e+06
-818753
-188503
562241
996709
1.00495e+06
777576
516753
320283
200300
134244
99378.9
81501.4
73070.6
69081
65720.4
60711.6
52203.3
39265.6
21722.8
532.02
-21661.4
-40773.2
-52589.2
-54620
-47681.4
-36368.4
-27535.2
-26787.1
-35015.8
-47962.2
-59459.4
-65209.4
-64088.6
-57040.3
-45723.2
-31947.5
-17781.9
-5597.25
2278.46
4057.32
-1181.5
-13441.3
-32300.7
-56125.7
-81632.1
-108734
-139024
-174228
-212883
-246525
-258765
-231548
-157103
-45670.8
78639.6
189809
269878
312304
320114
301881
267794
226880
185910
148903
-48357.3
-13452.5
-22317.5
-43119.1
-61120
-72912.4
-78922.3
-80404.3
-79008.4
-75553.1
-70385
-63830.3
-56187.5
-47568.9
-37587.1
-25205.5
-9095.66
14608.7
45905.2
84034.4
124628
159103
177674
176805
163111
148956
141894
141681
145781
153182
163616
176326
189928
202847
213650
221147
224392
222673
215616
203442
187859
167108
137153
111784
87835.8
66598.4
47251.4
30691.7
19543.1
11819
6876.43
4292.1
3750.88
5000.32
7740.17
11843.6
17028
22717.8
28846.7
35661.5
43287.5
51223.1
57790.1
62830.2
66194.5
67417.8
65720.6
59240.2
44677.1
17864.7
-24186.4
-79079.1
-133811
-165557
-158300
-128004
-118462
-148451
-177746
-159023
-95270.9
-14958.2
65657.7
136335
182520
192922
167895
117885
56531.9
-4525.56
-57587.1
-98365.7
-125125
-137979
-138412
-128876
-112448
-92483.5
-72231.6
-55097.9
-44910.6
-46004.9
-63295.2
-101568
-163698
-248060
-346314
-443070
-517772
-549077
-529853
-503745
-535444
-659188
-826388
-894332
-682993
-142828
488603
872126
914992
750433
535364
357512
238388
167024
126701
104842
93574.8
86906
81018.6
73308
62091.7
46449.5
26277.8
2800.05
-20954.5
-40572.5
-51690.8
-51962.3
-42788.3
-29834.7
-21127
-22748.1
-34808.2
-51394.2
-64935.8
-70674.5
-67696.6
-57302.9
-41467
-22468.2
-3060.32
13679.9
24959
28867.4
24587.9
12216.3
-7568.08
-33382.9
-61985.9
-91545.6
-122177
-155613
-192413
-227590
-247733
-234343
-174995
-74365.7
45976.3
159113
244992
295414
312211
302775
276102
240351
201966
165200
-61503.8
-16001.9
-24559.2
-44335.3
-61839.7
-73719.9
-79931.1
-80880.7
-78269.4
-73515
-66974.9
-58841.8
-49288.6
-38394.5
-26032.2
-11700.5
5605.29
29010.6
57698.8
90305.8
122964
149374
163242
162764
153245
143600
139537
140841
145132
151288
159222
168661
178668
187891
194979
198877
199185
196212
184866
170817
153769
130758
107061
85663.4
66540.5
50168.9
36097.2
25647.1
19012.9
15149.9
13351
13152.3
14276.5
16579.6
19933.8
24273.3
29423.8
35095.6
41056.7
47158.9
53093
58489.1
62782.3
65728.5
66938.1
66122.1
62425.2
53968.9
37517.4
8625.51
-36958.2
-99363.2
-167909
-218061
-225644
-197451
-175870
-181598
-171879
-105830
-4914.51
95364.2
186944
265985
316603
324515
290066
226102
148923
71671.6
2768.29
-52739.1
-92964.6
-117967
-129190
-129045
-120502
-106689
-90791.2
-75909
-65433
-63500.7
-75054
-105606
-159886
-239232
-338572
-444755
-537443
-592274
-590621
-557530
-550523
-614217
-720809
-753762
-564144
-113745
411641
752415
825733
718763
549727
394395
279993
205188
159445
132558
116871
105815
96220.6
85228.6
70935
52267.8
29226.7
3409.71
-21688.7
-41268.9
-50839.5
-48363
-36184.9
-21460.6
-13576.7
-18864.4
-36095.4
-57196.1
-72999.3
-78353.4
-72666.3
-57726.8
-36099.8
-10901.9
14087.4
34941.4
48558.1
53288.7
48861.3
35850.2
15223.9
-11521.3
-42532.9
-75030.4
-107337
-140004
-174661
-209589
-234932
-233132
-188335
-99511.6
15444.3
129439
220165
277365
301690
299794
279968
249682
214873
179646
-60018.8
-20430
-28526.6
-45160.2
-59967.5
-70696.7
-76894.5
-78472.4
-76106.3
-71127.5
-64292.1
-55821.8
-45834
-34426.4
-21478.4
-6419.42
11879.3
30053.8
53695.9
79397.3
104487
124986
137000
139299
135100
130464
129841
133414
139018
145175
151619
158396
165082
170512
173953
178027
175633
168684
156636
141553
123490
102295
81840.1
63450.6
47733.8
35004.2
25309.5