/*--------------------------------*- C++ -*----------------------------------*\
| =========                 |                                                 |
| \\      /  F ield         | OpenFOAM: The Open Source CFD Toolbox           |
|  \\    /   O peration     | Version:  2112                                  |
|   \\  /    A nd           | Website:  www.openfoam.com                      |
|    \\/     M anipulation  |                                                 |
\*---------------------------------------------------------------------------*/
FoamFile
{
    version     2.0;
    format      ascii;
    arch        "LSB;label=32;scalar=64";
    class       volScalarField;
    location    "0.37";
    object      kU;
}
// * * * * * * * * * * * * * * * * * * * * * * * * * * * * * * * * * * * * * //

dimensions      [0 2 -2 0 0 0 0];

internalField   nonuniform List<scalar> 
12225
(
0.39987
0.62212
0.790835
0.93658
1.07886
1.2279
1.38912
1.56597
1.7612
1.97703
2.21513
2.4764
2.76084
3.0675
3.3945
3.73982
4.09885
4.4485
0.124061
0.143936
0.166575
0.191815
0.219941
0.251497
0.28707
0.326946
0.371003
0.418765
0.469484
0.522301
0.576438
0.631414
0.687268
0.745098
0.810926
0.903997
0.113237
0.115522
0.118694
0.122043
0.124841
0.127388
0.13004
0.133104
0.136774
0.141142
0.146235
0.152073
0.158721
0.166319
0.175116
0.185557
0.198395
0.214236
0.112492
0.112647
0.113063
0.11371
0.114525
0.115443
0.116394
0.117321
0.118143
0.118681
0.118952
0.118996
0.118872
0.118654
0.118432
0.118316
0.118448
0.118925
0.112423
0.112361
0.112355
0.112404
0.112522
0.112698
0.112922
0.113184
0.113469
0.113753
0.114014
0.114237
0.114411
0.114523
0.114546
0.114496
0.114394
0.114276
0.112391
0.112291
0.112207
0.11214
0.112106
0.112106
0.112134
0.112185
0.112251
0.112325
0.1124
0.112472
0.112531
0.112574
0.112599
0.112609
0.112614
0.112637
0.112364
0.112236
0.112124
0.112029
0.111959
0.111916
0.111891
0.111879
0.111875
0.111875
0.111874
0.111869
0.111859
0.111843
0.111823
0.111805
0.111797
0.111808
0.112345
0.112199
0.112068
0.111955
0.111864
0.111796
0.111746
0.111708
0.111678
0.111651
0.111623
0.111592
0.111556
0.111517
0.111478
0.111444
0.11142
0.111411
0.112331
0.112173
0.11203
0.111904
0.111797
0.11171
0.111639
0.11158
0.111529
0.111482
0.111437
0.111391
0.111344
0.111295
0.111248
0.111206
0.111172
0.11115
0.11232
0.112153
0.112002
0.111866
0.111748
0.111646
0.111559
0.111482
0.111414
0.111351
0.111291
0.111232
0.111174
0.111117
0.111063
0.111014
0.110972
0.110938
0.112313
0.112138
0.11198
0.111837
0.111709
0.111597
0.111497
0.111407
0.111325
0.111249
0.111176
0.111107
0.111039
0.110974
0.110913
0.110856
0.110806
0.110761
0.112307
0.112127
0.111963
0.111815
0.11168
0.11156
0.111452
0.111353
0.111261
0.111175
0.111094
0.111016
0.110941
0.110869
0.110802
0.110739
0.110681
0.110627
0.112303
0.112119
0.11195
0.111796
0.111656
0.111529
0.111414
0.111308
0.111209
0.111116
0.111027
0.110943
0.110862
0.110785
0.110711
0.110642
0.110577
0.110517
0.112299
0.112111
0.111937
0.111779
0.111634
0.111501
0.111379
0.111266
0.111161
0.111061
0.110967
0.110876
0.11079
0.110708
0.110629
0.110555
0.110484
0.110416
0.112296
0.112104
0.111926
0.111763
0.111613
0.111475
0.111348
0.111229
0.111118
0.111013
0.110913
0.110818
0.110727
0.11064
0.110557
0.110477
0.1104
0.110327
0.112294
0.112098
0.111917
0.11175
0.111596
0.111453
0.111321
0.111197
0.111081
0.110972
0.110868
0.110768
0.110673
0.110582
0.110495
0.110411
0.11033
0.110253
0.112292
0.112094
0.11191
0.11174
0.111582
0.111436
0.1113
0.111173
0.111053
0.11094
0.110832
0.11073
0.110632
0.110538
0.110448
0.110361
0.110277
0.110196
0.112291
0.112092
0.111906
0.111734
0.111574
0.111425
0.111287
0.111157
0.111035
0.11092
0.11081
0.110706
0.110606
0.11051
0.110418
0.11033
0.110244
0.110162
0.112291
0.112092
0.111906
0.111733
0.111573
0.111423
0.111284
0.111154
0.111032
0.110916
0.110807
0.110702
0.110603
0.110507
0.110415
0.110326
0.110241
0.110159
0.112292
0.112094
0.11191
0.111739
0.11158
0.111432
0.111295
0.111167
0.111047
0.110933
0.110826
0.110724
0.110626
0.110533
0.110443
0.110356
0.110272
0.110191
0.112294
0.112099
0.111917
0.111749
0.111592
0.111448
0.111314
0.111189
0.111072
0.110962
0.110859
0.11076
0.110666
0.110576
0.110489
0.110406
0.110324
0.110246
0.112297
0.112106
0.111928
0.111763
0.11161
0.111469
0.111339
0.111218
0.111107
0.111002
0.110904
0.110811
0.110722
0.110638
0.110556
0.110477
0.110401
0.110326
0.112302
0.112115
0.111942
0.111781
0.111632
0.111496
0.111372
0.111258
0.111152
0.111055
0.110964
0.110879
0.110799
0.110723
0.11065
0.110579
0.11051
0.110442
0.112309
0.112129
0.111961
0.111805
0.111662
0.111532
0.111416
0.111311
0.111217
0.111132
0.111054
0.110983
0.110917
0.110854
0.110794
0.110735
0.110678
0.110622
0.11232
0.112149
0.11199
0.111843
0.111709
0.111591
0.111487
0.111397
0.111321
0.111257
0.111205
0.111162
0.111127
0.111097
0.111073
0.111052
0.111033
0.111015
0.112336
0.112178
0.112037
0.111917
0.111822
0.111755
0.111713
0.111697
0.111705
0.111738
0.111792
0.111865
0.111949
0.112039
0.112134
0.11223
0.112324
0.112414
0.112359
0.112231
0.112189
0.112262
0.112451
0.112726
0.113064
0.113445
0.113852
0.114272
0.114691
0.115098
0.115487
0.115848
0.116177
0.116456
0.116648
0.116764
0.112636
0.113381
0.11456
0.116031
0.117695
0.119389
0.120724
0.121797
0.122726
0.123617
0.12456
0.125619
0.126835
0.128227
0.129797
0.131544
0.133463
0.135567
0.116905
0.125464
0.135959
0.147939
0.16112
0.175446
0.191058
0.208105
0.22667
0.246741
0.268277
0.291194
0.315357
0.340582
0.366656
0.393361
0.420509
0.447927
0.305547
0.464769
0.588426
0.692304
0.787572
0.880381
0.973936
1.06993
1.16874
1.26994
1.37514
1.48532
1.60107
1.72273
1.85047
1.98436
2.12425
2.27001
0.246782
0.251887
0.269922
0.294831
0.326459
0.361805
0.396526
0.430221
0.462485
0.493283
0.52281
0.55139
0.57942
0.60734
0.635634
0.66486
0.695702
0.729018
0.765673
0.805528
0.844643
0.880024
0.911105
0.936798
0.955323
0.964521
0.962354
0.944786
0.909595
0.862901
0.811961
0.763346
0.721859
0.690197
0.669219
0.658642
0.657761
0.664023
0.667506
0.664778
0.652495
0.628698
0.594411
0.554095
0.513164
0.492173
0.528118
0.665355
0.956134
1.46851
2.17859
2.8593
3.54243
4.18559
4.75372
5.22313
5.58082
5.82294
5.95324
5.9802
5.93625
5.85175
5.73309
5.5852
5.41211
5.2172
5.00309
4.78404
4.56958
4.35821
4.14909
3.94192
3.73656
3.53302
3.33146
3.13217
2.93565
2.74247
2.55335
2.36936
2.19167
2.02147
1.86003
1.70867
1.5689
1.44258
1.33232
1.24213
1.17858
1.15182
1.17873
1.25386
1.34735
1.45379
1.57368
1.70623
1.85219
2.01357
2.19452
2.40165
2.64279
2.92712
3.2629
3.64751
4.0431
4.38929
4.6784
4.89417
5.01535
5.02693
4.93079
4.7485
4.51327
4.25544
3.99058
3.71699
3.42247
3.09974
2.76929
2.49848
2.47335
3.05052
4.35165
5.752
6.95753
7.86195
8.36885
8.45087
8.2414
7.87487
7.38581
6.79774
6.19207
5.60399
5.03983
4.50733
4.0169
3.57981
3.20969
2.92716
2.77389
2.85668
3.32922
3.94532
4.67703
5.53922
6.53031
7.65921
8.93139
10.353
11.9344
13.6922
15.6451
17.8059
20.1522
22.4599
24.5342
26.3196
27.7408
28.7168
29.1857
29.133
28.6053
27.6991
26.5286
25.1869
23.7193
22.1189
20.3457
18.3606
16.1624
13.8114
11.4291
9.16928
7.17464
5.53661
4.28203
3.37516
2.77331
2.36057
0.472475
0.424335
0.417174
0.422943
0.434555
0.447177
0.457873
0.46532
0.469043
0.468999
0.465408
0.458665
0.449269
0.437758
0.424669
0.410513
0.395762
0.380852
0.366267
0.353031
0.344686
0.342727
0.345144
0.349324
0.352287
0.351104
0.343768
0.332091
0.320322
0.309763
0.301956
0.29781
0.296927
0.297712
0.298199
0.296934
0.293618
0.292517
0.307595
0.339814
0.390341
0.465593
0.581138
0.759276
1.01728
1.36061
1.76692
2.08338
2.35278
2.58015
2.75409
2.86277
2.90901
2.89334
2.8203
2.69831
2.53881
2.35491
2.15996
1.9664
1.78564
1.62606
1.49331
1.39148
1.32287
1.28751
1.28341
1.29289
1.30277
1.31221
1.32076
1.32817
1.33438
1.3394
1.34323
1.34582
1.34699
1.34647
1.34449
1.3416
1.33736
1.33126
1.32274
1.31125
1.29627
1.27741
1.25445
1.22739
1.19637
1.16158
1.12541
1.09334
1.06218
1.0322
1.00339
0.974948
0.944319
0.912272
0.879535
0.846342
0.813394
0.782097
0.755954
0.744387
0.77367
0.872674
1.00465
1.13465
1.2398
1.3004
1.3023
1.24569
1.15153
1.05746
1.00389
1.01662
1.10387
1.27646
1.57061
2.04381
2.7176
3.44923
3.84054
3.90581
3.74204
3.42395
3.03186
2.63893
2.30903
2.07851
1.96241
1.96293
2.00261
2.04192
2.07832
2.11096
2.13914
2.16113
2.175
2.18906
2.20393
2.2203
2.23404
2.24664
2.26226
2.28209
2.30091
2.3078
2.31324
2.32284
2.34019
2.36921
2.41551
2.48821
2.61541
2.95165
3.57006
4.36029
5.22813
6.09229
6.87691
7.52152
7.99009
8.27235
8.38217
8.34862
8.2021
7.95948
7.61475
7.14419
6.52709
5.76934
4.91531
4.03901
3.21974
2.51652
1.95513
1.53186
1.23382
1.04538
0.773712
0.607983
0.558276
0.540551
0.534694
0.532077
0.528738
0.52327
0.515437
0.505448
0.493653
0.480424
0.466114
0.451046
0.435501
0.419724
0.40391
0.388199
0.372667
0.357361
0.342414
0.328314
0.315725
0.305137
0.296694
0.290205
0.285438
0.282788
0.284166
0.290513
0.302013
0.317647
0.335312
0.352679
0.368338
0.382571
0.403096
0.441282
0.498457
0.585565
0.723319
0.935844
1.23548
1.59312
1.86397
2.05859
2.19413
2.26667
2.28941
2.26609
2.20484
2.11357
1.99937
1.86935
1.73182
1.59586
1.47027
1.36222
1.27623
1.21395
1.17438
1.15436
1.14965
1.15572
1.16838
1.18418
1.19998
1.21399
1.22563
1.23469
1.24128
1.24579
1.24876
1.25081
1.25255
1.25437
1.2564
1.25902
1.26248
1.26643
1.27032
1.27341
1.27488
1.27379
1.26917
1.26006
1.24556
1.22494
1.19767
1.16348
1.12575
1.09063
1.05527
1.02055
0.987251
0.955823
0.926418
0.898958
0.872179
0.845358
0.819101
0.792922
0.765739
0.736273
0.703645
0.669126
0.64207
0.633772
0.643104
0.661391
0.675736
0.675471
0.661288
0.650773
0.673869
0.762756
0.94929
1.27096
1.76319
2.4001
2.99026
3.19337
3.05575
2.76912
2.4416
2.14626
1.92511
1.78929
1.72832
1.71915
1.73774
1.76669
1.79591
1.82275
1.84524
1.8599
1.8733
1.88653
1.89912
1.90979
1.91578
1.91457
1.90948
1.90163
1.89263
1.88353
1.87452
1.865
1.8554
1.84626
1.83669
1.82487
1.81523
1.8127
1.82338
1.85738
1.95158
2.13127
2.4119
2.78897
3.23546
3.70539
4.14268
4.49442
4.72517
4.82641
4.81337
4.71225
4.54287
4.30659
3.9912
3.58962
3.11726
2.61326
2.12625
1.69576
1.34178
1.066
0.863765
0.728059
1.17407
0.813974
0.695715
0.640405
0.607891
0.584264
0.564069
0.545293
0.52724
0.509689
0.492581
0.475897
0.459625
0.443752
0.428266
0.413171
0.398489
0.384261
0.370534
0.35734
0.344682
0.33258
0.321259
0.311277
0.30354
0.299224
0.299649
0.306028
0.320054
0.342151
0.371362
0.405477
0.441788
0.478684
0.517501
0.575235
0.65208
0.741219
0.858454
1.02796
1.27247
1.53154
1.76002
1.9263
2.0097
2.02965
2.0035
1.94402
1.86259
1.76658
1.66263
1.55608
1.45206
1.35569
1.27188
1.20433
1.15479
1.12296
1.10688
1.10376
1.11055
1.12434
1.14259
1.16307
1.1839
1.20294
1.21803
1.22833
1.23345
1.23343
1.22876
1.22044
1.20967
1.19769
1.18651
1.1771
1.17021
1.16631
1.16555
1.16774
1.17231
1.17842
1.18506
1.19104
1.19508
1.19577
1.19154
1.18088
1.16234
1.13487
1.10217
1.0685
1.03269
0.996076
0.959824
0.92491
0.892117
0.862057
0.834266
0.808847
0.786993
0.768429
0.751779
0.734696
0.714218
0.687494
0.652805
0.611854
0.572362
0.542159
0.524521
0.51896
0.527103
0.560177
0.641333
0.801382
1.07476
1.49384
2.05253
2.61483
2.87303
2.73489
2.45087
2.15593
1.91558
1.75218
1.6586
1.61462
1.60022
1.60049
1.60601
1.61347
1.61981
1.62316
1.62534
1.63036
1.63856
1.64943
1.66165
1.67303
1.68051
1.68258
1.68055
1.67541
1.66826
1.6599
1.65072
1.641
1.63132
1.62221
1.6137
1.60352
1.59091
1.57872
1.56994
1.56904
1.58629
1.63504
1.73076
1.8904
2.12276
2.42105
2.75956
3.09648
3.38229
3.57583
3.65717
3.63004
3.51281
3.32392
3.07407
2.76994
2.42495
2.0641
1.718
1.41182
1.15866
0.959981
0.812213
0.707918
1.70749
1.04023
0.820363
0.714434
0.651096
0.607042
0.572944
0.544757
0.520547
0.499266
0.480256
0.463046
0.447257
0.432554
0.418649
0.405312
0.3924
0.379886
0.367871
0.35658
0.34629
0.337101
0.329242
0.323395
0.320955
0.324054
0.335186
0.356572
0.388513
0.431577
0.484264
0.542738
0.603922
0.673903
0.760295
0.848776
0.950899
1.08594
1.24573
1.41644
1.58683
1.72326
1.80596
1.82915
1.80238
1.74344
1.6663
1.58057
1.49267
1.40679
1.32639
1.25454
1.19406
1.14711
1.11463
1.09627
1.0906
1.09571
1.10953
1.13007
1.15537
1.18355
1.21275
1.24115
1.267
1.2874
1.30155
1.30833
1.307
1.29732
1.27974
1.25612
1.22933
1.20113
1.17341
1.14791
1.12609
1.10904
1.09731
1.0909
1.0893
1.09161
1.0967
1.10347
1.11068
1.11711
1.12095
1.1203
1.11265
1.09583
1.07287
1.04481
1.0122
0.976485
0.939108
0.901421
0.864731
0.830177
0.797807
0.768642
0.744592
0.726028
0.712106
0.700841
0.689247
0.673698
0.650734
0.618306
0.577651
0.535808
0.50266
0.487945
0.50182
0.559107
0.682885
0.902756
1.24676
1.72063
2.25324
2.6261
2.59738
2.3407
2.06522
1.84458
1.69677
1.60836
1.55748
1.52773
1.50961
1.49745
1.48716
1.47747
1.4651
1.45565
1.45102
1.45205
1.45889
1.47078
1.48597
1.50145
1.51305
1.51991
1.52215
1.52017
1.51496
1.50757
1.49888
1.48967
1.48062
1.47226
1.46474
1.45744
1.44752
1.43563
1.42407
1.41561
1.41483
1.43017
1.46861
1.54221
1.66425
1.8439
2.07955
2.35198
2.62802
2.86912
3.03587
3.09867
3.05472
2.91686
2.70454
2.43917
2.14444
1.84587
1.56715
1.32492
1.12631
0.970316
0.852354
0.764929
2.32828
1.24073
0.89988
0.744553
0.657595
0.601241
0.560404
0.528552
0.502633
0.481056
0.462857
0.447331
0.433865
0.421884
0.41085
0.400291
0.389877
0.379497
0.369343
0.359933
0.351655
0.344903
0.340339
0.339137
0.343166
0.354569
0.378505
0.420467
0.480074
0.555742
0.641787
0.730101
0.817393
0.901344
0.988405
1.08706
1.19197
1.30681
1.42118
1.5226
1.59681
1.63221
1.62735
1.58928
1.52986
1.46042
1.38868
1.31939
1.25552
1.19929
1.15262
1.11701
1.09328
1.08134
1.08039
1.08921
1.10641
1.13055
1.16015
1.19364
1.22943
1.26586
1.30124
1.33384
1.36188
1.38418
1.39981
1.40712
1.40462
1.39134
1.36698
1.33483
1.29645
1.25403
1.21026
1.16796
1.12967
1.09735
1.07206
1.05392
1.04225
1.03579
1.03316
1.03342
1.03576
1.03991
1.04449
1.04812
1.04786
1.04149
1.02898
1.00974
0.984224
0.953531
0.919071
0.882329
0.84479
0.807834
0.771891
0.738814
0.711266
0.690342
0.675844
0.66634
0.659232
0.650951
0.637495
0.615492
0.58385
0.546175
0.512147
0.495671
0.5139
0.588059
0.744787
1.01249
1.4059
1.89182
2.33744
2.50866
2.32158
2.05516
1.83491
1.68649
1.59585
1.53798
1.49628
1.4637
1.43685
1.41276
1.38884
1.36356
1.34164
1.32493
1.315
1.3129
1.31877
1.33184
1.34994
1.36852
1.38423
1.39575
1.40208
1.40335
1.40047
1.39472
1.38731
1.37923
1.37123
1.36382
1.35721
1.3512
1.34415
1.33422
1.32309
1.31271
1.30591
1.30841
1.32497
1.36315
1.43263
1.54374
1.7034
1.90907
2.14254
2.37717
2.57862
2.71195
2.75209
2.68593
2.52685
2.30069
2.03919
1.77393
1.52964
1.32049
1.15052
1.01668
0.913401
0.833575
2.94424
1.36819
0.919318
0.73447
0.639512
0.580981
0.539365
0.507254
0.481663
0.461171
0.44486
0.431951
0.421669
0.413207
0.40574
0.398502
0.390923
0.382803
0.374451
0.3664
0.359249
0.354072
0.352207
0.355518
0.36574
0.389555
0.436186
0.509671
0.608877
0.719565
0.818015
0.900237
0.976881
1.04975
1.12499
1.20281
1.28036
1.35242
1.41104
1.44891
1.4612
1.4477
1.41319
1.36514
1.31114
1.25693
1.20609
1.16091
1.12306
1.09384
1.07411
1.06412
1.06351
1.07154
1.08727
1.10962
1.13741
1.1694
1.20434
1.24101
1.27825
1.31493
1.34983
1.38166
1.40946
1.43408
1.45376
1.46631
1.46936
1.46076
1.44021
1.40902
1.36781
1.31858
1.26466
1.21018
1.15911
1.11482
1.07894
1.05157
1.03132
1.01611
1.00372
0.993475
0.984941
0.979754
0.977305
0.977595
0.978252
0.977102
0.97212
0.961592
0.944689
0.921553
0.893067
0.860523
0.825359
0.788997
0.752102
0.717167
0.687458
0.664735
0.649408
0.640589
0.636117
0.632665
0.626111
0.612442
0.589407
0.558915
0.52948
0.515872
0.539233
0.626277
0.807562
1.1092
1.52839
1.99122
2.32563
2.34303
2.09617
1.85897
1.69757
1.60125
1.54104
1.49484
1.45444
1.41791
1.38356
1.34887
1.31204
1.27784
1.24776
1.2243
1.20905
1.20336
1.20772
1.22158
1.24094
1.26214
1.28206
1.29787
1.30796
1.31217
1.3114
1.30714
1.30086
1.29375
1.28661
1.27989
1.2738
1.26828
1.26263
1.25443
1.24462
1.2348
1.22674
1.22383
1.23005
1.2505
1.29266
1.36514
1.47597
1.62886
1.8184
2.02635
2.22806
2.39252
2.48853
2.49314
2.40041
2.22467
1.99951
1.76101
1.53802
1.34666
1.19118
1.0681
0.971463
0.894482
3.44136
1.39996
0.890292
0.705016
0.615792
0.5601
0.518915
0.486556
0.461186
0.441841
0.427648
0.417677
0.410931
0.406319
0.402668
0.39883
0.393931
0.387653
0.380186
0.372004
0.364647
0.360091
0.360627
0.369202
0.390337
0.436119
0.514175
0.626711
0.750856
0.852174
0.927037
0.99146
1.05159
1.10913
1.16442
1.21583
1.26034
1.29407
1.3134
1.31637
1.30342
1.27742
1.24286
1.20442
1.16602
1.1304
1.09944
1.07455
1.05674
1.04655
1.04403
1.04879
1.0602
1.07742
1.09945
1.12517
1.15341
1.18314
1.21348
1.24385
1.27382
1.30307
1.33127
1.35791
1.38458
1.41113
1.43593
1.45666
1.47028
1.47314
1.46492
1.4437
1.40831
1.35979
1.30186
1.24033
1.1812
1.13025
1.08967
1.05964
1.03681
1.0176
0.997981
0.97776
0.956565
0.939026
0.92502
0.916659
0.912389
0.910479
0.908451
0.903741
0.894322
0.879113
0.858022
0.831718
0.801298
0.768015
0.732616
0.698161
0.668291
0.645325
0.630252
0.622705
0.620943
0.62192
0.621568
0.615497
0.600497
0.577094
0.553107
0.543445
0.571425
0.667484
0.864707
1.18518
1.60741
2.02411
2.25223
2.1737
1.92658
1.72623
1.61188
1.54994
1.50662
1.46703
1.42837
1.39005
1.3501
1.30535
1.25997
1.21682
1.1784
1.14805
1.12754
1.11805
1.12058
1.1332
1.1532
1.17702
1.20048
1.21997
1.23325
1.23984
1.24067
1.23742
1.23179
1.2251
1.21812
1.21125
1.20464
1.19832
1.19201
1.18394
1.17477
1.166
1.15893
1.15533
1.15798
1.16978
1.19666
1.24602
1.32563
1.44122
1.59289
1.77186
1.95867
2.12931
2.25509
2.30895
2.27496
2.15512
1.97179
1.76156
1.55655
1.37659
1.22857
1.11034
1.01633
0.940046
3.71112
1.34607
0.841385
0.678975
0.599762
0.545311
0.502398
0.468445
0.44272
0.424357
0.412223
0.405106
0.401759
0.400828
0.400741
0.399825
0.396739
0.390802
0.381932
0.371854
0.363204
0.359013
0.362769
0.37971
0.421387
0.50425
0.619326
0.739191
0.838345
0.912713
0.971824
1.02258
1.06771
1.10802
1.14313
1.17179
1.19234
1.20333
1.20407
1.19507
1.17803
1.15545
1.13009
1.10447
1.08061
1.06011
1.04417
1.03367
1.02901
1.03021
1.03693
1.0486
1.06443
1.08339
1.1043
1.12596
1.14733
1.16777
1.18706
1.20536
1.22314
1.24102
1.25965
1.27946
1.30324
1.32984
1.3583
1.38689
1.41264
1.43088
1.44019
1.43529
1.41194
1.36889
1.30952
1.24189
1.17463
1.11875
1.07774
1.05046
1.03182
1.01532
0.993423
0.967048
0.935386
0.907071
0.882438
0.864035
0.852146
0.845807
0.842856
0.840535
0.836141
0.827606
0.813804
0.794525
0.770235
0.741767
0.709833
0.677914
0.649781
0.628196
0.61471
0.609498
0.611241
0.617159
0.62328
0.62502
0.618398
0.602553
0.584088
0.578113
0.609184
0.709975
0.914317
1.23886
1.64533
2.00552
2.14801
2.02192
1.79666
1.63602
1.55554
1.51468
1.48214
1.44923
1.41489
1.37779
1.33459
1.2824
1.22799
1.17559
1.12854
1.09088
1.06558
1.05244
1.05185
1.06305
1.08351
1.10931
1.13565
1.15815
1.17394
1.18223
1.18402
1.18116
1.17556
1.1686
1.16099
1.153
1.14478
1.13646
1.12797
1.11822
1.10831
1.09964
1.09336
1.09068
1.09342
1.10254
1.12205
1.15791
1.21737
1.30702
1.42975
1.58162
1.75033
1.91517
2.05191
2.13515
2.14463
2.07352
1.93268
1.75287
1.56645
1.39633
1.25292
1.13663
1.04322
0.966718
3.79972
1.25123
0.802655
0.669512
0.5953
0.537538
0.490528
0.454023
0.427541
0.40979
0.399177
0.394195
0.393443
0.395385
0.39803
0.398922
0.39574
0.38715
0.375004
0.362421
0.352833
0.351884
0.3662
0.40399
0.475185
0.57857
0.692928
0.794497
0.872612
0.931371
0.977958
1.01655
1.04894
1.0757
1.09673
1.11163
1.12006
1.12198
1.11785
1.10867
1.09579
1.08076
1.06512
1.05031
1.0376
1.02805
1.02242
1.02108
1.0241
1.03124
1.04206
1.05584
1.07159
1.08803
1.10383
1.11785
1.12936
1.13818
1.14465
1.1496
1.15425
1.16013
1.169
1.18248
1.20103
1.22412
1.25199
1.28432
1.31941
1.35276
1.38096
1.39622
1.39001
1.35642
1.29671
1.22157
1.14786
1.08767
1.04602
1.02102
1.00538
0.989853
0.968978
0.941016
0.905975
0.87054
0.837907
0.811754
0.793132
0.781885
0.776436
0.774311
0.772716
0.769103
0.761602
0.749178
0.731543
0.708884
0.681866
0.654103
0.629266
0.610428
0.599685
0.597816
0.603988
0.615701
0.629053
0.639335
0.641986
0.634757
0.622434
0.619825
0.652133
0.753176
0.956127
1.27172
1.64911
1.95236
2.03432
1.89357
1.6975
1.56934
1.51112
1.48356
1.4604
1.43512
1.40659
1.37208
1.32753
1.27093
1.20745
1.14658
1.0929
1.0496
1.01861
1.00118
0.997782
1.00772
1.02852
1.05598
1.08472
1.10963
1.12722
1.13649
1.1385
1.13537
1.12918
1.1213
1.11236
1.10254
1.09199
1.08096
1.06934
1.05709
1.04551
1.03579
1.02903
1.0264
1.02967
1.03879
1.05588
1.08502
1.13221
1.20413
1.30543
1.4353
1.58534
1.73968
1.87758
1.97554
2.01305
1.97799
1.87457
1.72537
1.55915
1.39972
1.26055
1.14515
1.05133
0.974127
3.72521
1.15563
0.791158
0.678491
0.601085
0.536529
0.484242
0.444606
0.416683
0.398559
0.388194
0.383873
0.384107
0.387219
0.390682
0.39086
0.38354
0.37063
0.356835
0.345502
0.341054
0.349708
0.379277
0.436754
0.523515
0.627996
0.729708
0.813602
0.876906
0.924632
0.962038
0.992148
1.01641
1.03545
1.04956
1.05893
1.06385
1.06477
1.06232
1.05725
1.05041
1.04273
1.03515
1.02865
1.02408
1.02211
1.02311
1.0272
1.03432
1.04423
1.05643
1.07007
1.08392
1.09653
1.10654
1.11299
1.11549
1.11429
1.11017
1.10436
1.09849
1.0945
1.09449
1.10158
1.1123
1.12755
1.14879
1.17748
1.21426
1.25739
1.30083
1.33621
1.351
1.33161
1.27729
1.19981
1.11846
1.05092
1.00516
0.978519
0.962307
0.94544
0.922249
0.891808
0.856339
0.81883
0.782783
0.752922
0.730484
0.715992
0.708424
0.705806
0.705661
0.705448
0.70298
0.696664
0.685537
0.668976
0.647932
0.625518
0.605161
0.590109
0.582964
0.585165
0.596491
0.614806
0.636275
0.656031
0.669061
0.671862
0.666931
0.667872
0.699798
0.796848
0.990757
1.28698
1.62739
1.87929
1.92325
1.78701
1.61987
1.51544
1.47062
1.45127
1.43535
1.41652
1.39242
1.35955
1.31507
1.25812
1.1904
1.12256
1.06273
1.01455
0.979767
0.959551
0.954466
0.963894
0.985401
1.01453
1.0454
1.0722
1.09091
1.10035
1.10184
1.09778
1.09042
1.08112
1.0704
1.05838
1.04531
1.03142
1.01687
1.00259
0.989392
0.978137
0.96985
0.965744
0.96786
0.97665
0.992925
1.01907
1.05938
1.11969
1.20541
1.31805
1.45213
1.59456
1.72701
1.829
1.88147
1.8715
1.7988
1.67814
1.53294
1.38573
1.25175
1.13738
1.04283
0.96465
3.49716
1.09092
0.810188
0.701878
0.61547
0.542918
0.484918
0.441356
0.410713
0.39059
0.378631
0.37289
0.37153
0.37229
0.372202
0.3682
0.358856
0.347354
0.336305
0.329889
0.333482
0.353571
0.396559
0.46535
0.555113
0.652079
0.740426
0.811311
0.864876
0.905611
0.937615
0.963334
0.984048
1.00045
1.01301
1.02215
1.02829
1.0319
1.03347
1.03351
1.03255
1.03122
1.03019
1.03011
1.03148
1.03465
1.03976
1.0469
1.05609
1.06718
1.07969
1.09265
1.10467
1.11416
1.11976
1.12067
1.11679
1.10854
1.09702
1.08373
1.07034
1.05908
1.05253
1.05241
1.05449
1.05998
1.07095
1.09
1.11963
1.16065
1.21018
1.25957
1.29422
1.296
1.25609
1.1825
1.09612
1.01998
0.96651
0.933804
0.911524
0.88938
0.861859
0.82819
0.790493
0.752173
0.716683
0.686948
0.663518
0.647759
0.639039
0.635934
0.636488
0.63848
0.639763
0.638502
0.633242
0.622791
0.608185
0.591823
0.576729
0.566163
0.563138
0.569776
0.586605
0.612032
0.642363
0.672521
0.697054
0.711397
0.715566
0.720916
0.751487
0.840988
1.01952
1.28876
1.5887
1.79726
1.82039
1.69815
1.55651
1.46833
1.43064
1.41559
1.40425
1.38946
1.36734
1.33385
1.28642
1.22555
1.1573
1.09074
1.03002
0.980683
0.944947
0.924085
0.918906
0.928969
0.951878
0.982965
1.01585
1.04408
1.06318
1.07196
1.07216
1.06655
1.05755
1.04648
1.0338
1.01962
1.0041
0.988278
0.972747
0.957804
0.943768
0.931202
0.921001
0.914413
0.913438
0.920064
0.934531
0.958306
0.994216
1.04677
1.12116
1.22032
1.34125
1.47307
1.59885
1.69967
1.75851
1.76375
1.71319
1.61626
1.49086
1.35669
1.22917
1.11664
1.02161
0.942351
3.13049
1.09606
0.854363
0.736418
0.638987
0.558081
0.493477
0.444422
0.409098
0.384868
0.369105
0.359575
0.354196
0.350755
0.347016
0.341349
0.333478
0.32531
0.319229
0.319557
0.33163
0.361061
0.411944
0.483939
0.570019
0.657903
0.735919
0.798476
0.846474
0.883687
0.91351
0.938068
0.958541
0.975606
0.989734
1.00133
1.01078
1.01844
1.02468
1.02987
1.03441
1.03874
1.0433
1.04841
1.05426
1.06092
1.0685
1.07717
1.08717
1.09858
1.11104
1.12358
1.13467
1.14261
1.14591
1.14377
1.13598
1.12295
1.10621
1.08701
1.06615
1.04577
1.0346
1.02846
1.02328
1.02044
1.02215
1.0312
1.05076
1.08328
1.12837
1.18026
1.2261
1.24759
1.22899
1.16845
1.08318
0.99958
0.935705
0.89274
0.861028
0.830996
0.7982
0.762138
0.72405
0.685985
0.650448
0.619941
0.596283
0.580279
0.570683
0.566799
0.567296
0.570389
0.574143
0.576715
0.576349
0.571731
0.56353
0.553433
0.543963
0.538234
0.53952
0.550586
0.572813
0.605377
0.644936
0.686227
0.72328
0.750597
0.765816
0.777122
0.80629
0.885781
1.04426
1.2816
1.54057
1.71375
1.72752
1.62286
1.50258
1.4252
1.39027
1.37626
1.36662
1.35321
1.33099
1.29585
1.24593
1.18324
1.11489
1.04929
0.991756
0.945498
0.911953
0.892685
0.889157
0.901169
0.92636
0.959825
0.99468
1.02386
1.04254
1.04976
1.04788
1.04018
1.02912
1.01607
1.00144
0.985794
0.969949
0.954554
0.93976
0.925375
0.911267
0.89771
0.885517
0.876009
0.871152
0.873728
0.884546
0.904775
0.936393
0.982755
1.0483
1.13656
1.24646
1.36925
1.4891
1.58754
1.64863
1.66223
1.62615
1.54699
1.43843
1.31685
1.19659
1.08687
0.991944
0.91175
2.7368
1.12374
0.90853
0.779564
0.671222
0.581825
0.509811
0.453974
0.412532
0.382832
0.362052
0.347796
0.338059
0.331058
0.325278
0.319783
0.314601
0.310506
0.309839
0.316469
0.334969
0.369646
0.422838
0.492841
0.572914
0.653068
0.72435
0.78251
0.828234
0.864567
0.894441
0.919828
0.941871
0.961216
0.978277
0.993387
1.00685
1.01897
1.03004
1.04037
1.05027
1.06001
1.06972
1.07941
1.08893
1.09818
1.10727
1.11652
1.12631
1.13714
1.14885
1.16052
1.17063
1.17738
1.17922
1.17521
1.16492
1.14912
1.12942
1.10695
1.08309
1.05995
1.03988
1.0229
1.00888
0.998291
0.99242
0.993384
1.004
1.02714
1.06413
1.11224
1.16194
1.19617
1.19542
1.15008
1.07115
0.984922
0.91321
0.860185
0.817961
0.779174
0.741317
0.703922
0.66658
0.629486
0.594071
0.562556
0.536982
0.518517
0.506947
0.501229
0.500605
0.503637
0.508595
0.513725
0.51729
0.517855
0.515541
0.511423
0.507501
0.506598
0.51207
0.527201
0.554256
0.5934
0.641963
0.694688
0.745037
0.786582
0.814834
0.834213
0.863022
0.931477
1.06707
1.26998
1.48926
1.63364
1.64472
1.55792
1.45526
1.38504
1.35003
1.33442
1.32385
1.30963
1.2861
1.24953
1.19906
1.13756
1.07186
1.00918
0.954452
0.910827
0.880302
0.864399
0.86417
0.879449
0.907834
0.944108
0.980821
1.01033
1.02763
1.03225
1.02749
1.01755
1.00508
0.991051
0.975923
0.960516
0.945737
0.931961
0.918811
0.90552
0.891546
0.876993
0.862705
0.850126
0.841259
0.839
0.844949
0.86042
0.887028
0.927356
0.985115
1.06391
1.16407
1.27892
1.39388
1.49047
1.55262
1.57094
1.54385
1.47703
1.38157
1.27101
1.15804
1.05185
0.957692
0.876875
2.35501
1.15698
0.967776
0.829428
0.712064
0.615401
0.536522
0.473827
0.4259
0.390408
0.364524
0.345783
0.332281
0.322562
0.315556
0.310658
0.307905
0.307368
0.31093
0.321703
0.343297
0.378955
0.430198
0.495369
0.569051
0.643367
0.710971
0.767838
0.81387
0.851272
0.882589
0.90976
0.934013
0.95605
0.97629
0.995037
1.01257
1.02917
1.04512
1.06071
1.07622
1.09186
1.10678
1.12077
1.13358
1.14491
1.15482
1.16372
1.17235
1.18135
1.19084
1.2002
1.20811
1.21289
1.21298
1.2073
1.19533
1.17758
1.15531
1.12983
1.10264
1.07534
1.04905
1.02459
1.00307
0.985622
0.973553
0.968534
0.972793
0.988859
1.01849
1.06061
1.10852
1.14778
1.15859
1.12668
1.05699
0.973131
0.89787
0.837126
0.785387
0.738736
0.697026
0.659337
0.623078
0.586517
0.550279
0.516622
0.487926
0.46572
0.450124
0.441264
0.43849
0.440466
0.44555
0.452072
0.458477
0.463341
0.466079
0.46729
0.468466
0.472052
0.481305
0.499841
0.530742
0.575311
0.631911
0.695684
0.759655
0.816417
0.859573
0.889571
0.920197
0.978235
1.09007
1.25796
1.43966
1.55999
1.57151
1.50118
1.41309
1.34781
1.31104
1.29195
1.27846
1.26191
1.23659
1.19929
1.14985
1.09145
1.03036
0.972639
0.922581
0.883137
0.856431
0.844205
0.847655
0.866592
0.898371
0.937295
0.975318
1.0044
1.0197
1.02152
1.0141
1.00215
0.988371
0.973653
0.958618
0.94426
0.931355
0.919753
0.908374
0.895893
0.88154
0.865504
0.848853
0.833227
0.820649
0.813763
0.814647
0.824965
0.846246
0.880544
0.93095
1.00099
1.09205
1.19945
1.31017
1.40576
1.46927
1.49098
1.46972
1.41116
1.32524
1.22357
1.11721
1.01478
0.9219
0.840812
2.0008
1.19082
1.02305
0.880275
0.759574
0.660127
0.577814
0.510155
0.456626
0.415899
0.385467
0.362929
0.346396
0.334514
0.326369
0.32142
0.319512
0.320887
0.326372
0.338243
0.359243
0.391938
0.437742
0.495826
0.562524
0.631939
0.697827
0.755823
0.804548
0.844994
0.879106
0.908774
0.935438
0.960058
0.983255
1.00547
1.02716
1.049
1.07036
1.0914
1.11259
1.13359
1.15361
1.17216
1.18858
1.20235
1.21334
1.22193
1.22885
1.23489
1.24047
1.24541
1.24887
1.24957
1.24617
1.23758
1.22323
1.20325
1.17845
1.15001
1.11928
1.08775
1.05669
1.02736
1.00117
0.979443
0.963459
0.954663
0.954879
0.966164
0.990073
1.02611
1.06936
1.10797
1.12373
1.1009
1.04036
0.96215
0.887267
0.821609
0.762322
0.709706
0.665732
0.628374
0.592736
0.555588
0.517235
0.480163
0.44705
0.419622
0.399507
0.387223
0.382023
0.382513
0.387067
0.394083
0.402142
0.410073
0.416952
0.422649
0.428232
0.435721
0.44813
0.4692
0.502666
0.550994
0.61389
0.687402
0.764529
0.837084
0.897135
0.941053
0.977108
1.0271
1.1158
1.24887
1.39448
1.49316
1.50579
1.45006
1.37445
1.31297
1.27362
1.24987
1.23209
1.21231
1.18515
1.1479
1.1008
1.04707
0.992315
0.940975
0.896709
0.862424
0.840502
0.832964
0.841137
0.864709
0.900578
0.942295
0.981031
1.00843
1.0202
1.01792
1.00704
0.99284
0.977926
0.963027
0.948791
0.936171
0.925538
0.915977
0.905617
0.892725
0.87665
0.858044
0.838474
0.819882
0.804277
0.793761
0.790321
0.795942
0.812269
0.841008
0.884638
0.946461
1.02872
1.12868
1.23528
1.33047
1.39615
1.42133
1.4046
1.35183
1.27268
1.17778
1.07696
0.978086
0.886739
0.805662
1.67568
1.21689
1.07539
0.938625
0.822447
0.72594
0.644493
0.576001
0.518475
0.473035
0.437991
0.411319
0.391181
0.376165
0.365269
0.357911
0.353975
0.354354
0.358795
0.368604
0.385894
0.412863
0.451098
0.500734
0.559778
0.624134
0.688599
0.748522
0.801193
0.846111
0.884233
0.917102
0.946302
0.97325
0.999582
1.02499
1.04974
1.0748
1.09986
1.12529
1.15108
1.1767
1.2014
1.22435
1.24463
1.26145
1.2744
1.28357