/*--------------------------------*- C++ -*----------------------------------*\
| =========                 |                                                 |
| \\      /  F ield         | OpenFOAM: The Open Source CFD Toolbox           |
|  \\    /   O peration     | Version:  2112                                  |
|   \\  /    A nd           | Website:  www.openfoam.com                      |
|    \\/     M anipulation  |                                                 |
\*---------------------------------------------------------------------------*/
FoamFile
{
    version     2.0;
    format      ascii;
    arch        "LSB;label=32;scalar=64";
    class       volScalarField;
    location    "0.37";
    object      omegaU_0;
}
// * * * * * * * * * * * * * * * * * * * * * * * * * * * * * * * * * * * * * //

dimensions      [0 0 -1 0 0 0 0];

internalField   nonuniform List<scalar> 
12225
(
56066.3
79744
87660.7
89038.8
87858
85696.3
83183.5
80602.6
78105.2
75778.2
73667.6
71789
70134.9
68681.8
67395.2
66246.2
65168.6
63903.4
3370.18
7790.51
11858.4
15300.9
18080.6
20269.8
21977.4
23301.4
24317.6
25084.2
25646.8
26042.9
26305.5
26464.9
26550.5
26595.2
26674.1
26954.9
260.503
632.061
1206.19
1949.39
2792.36
3665.76
4513.86
5297.89
5995.99
6601.83
7118.96
7558.73
7936.9
8271.09
8579.2
8880.8
9197.01
9533.57
138.045
163.323
213.22
295.61
414.419
568.924
752.521
955.818
1168.33
1379.79
1583.34
1775.05
1953.73
2120.56
2278.66
2432.1
2585.84
2740.59
132.28
133.952
138.09
146.127
159.572
179.292
205.504
237.861
275.442
316.787
360.533
405.546
451.118
496.876
542.713
589.053
636.529
685.209
131.966
131.985
132.234
132.91
134.27
136.524
139.82
144.234
149.748
156.246
163.592
171.648
180.268
189.365
198.868
208.803
219.216
230.067
131.935
131.837
131.765
131.74
131.799
131.977
132.305
132.808
133.501
134.382
135.444
136.675
138.058
139.582
141.241
143.037
144.972
147.035
131.922
131.807
131.704
131.615
131.546
131.503
131.485
131.496
131.535
131.604
131.7
131.824
131.975
132.154
132.362
132.604
132.881
133.195
131.913
131.79
131.678
131.578
131.491
131.418
131.357
131.307
131.265
131.23
131.199
131.171
131.147
131.127
131.113
131.107
131.111
131.128
131.906
131.778
131.66
131.553
131.458
131.375
131.302
131.237
131.178
131.123
131.071
131.02
130.972
130.925
130.88
130.84
130.806
130.778
131.901
131.768
131.645
131.533
131.433
131.342
131.261
131.187
131.119
131.055
130.994
130.935
130.879
130.825
130.774
130.726
130.682
130.644
131.898
131.761
131.634
131.519
131.414
131.319
131.232
131.152
131.077
131.007
130.94
130.876
130.815
130.756
130.701
130.648
130.6
130.555
131.895
131.755
131.626
131.507
131.398
131.299
131.207
131.122
131.043
130.968
130.897
130.828
130.763
130.701
130.641
130.585
130.533
130.483
131.893
131.75
131.618
131.496
131.383
131.28
131.184
131.095
131.012
130.932
130.857
130.785
130.716
130.651
130.588
130.528
130.471
130.417
131.891
131.745
131.61
131.485
131.37
131.263
131.164
131.071
130.983
130.901
130.822
130.747
130.675
130.606
130.54
130.477
130.417
130.359
131.889
131.742
131.604
131.477
131.359
131.249
131.146
131.05
130.96
130.874
130.792
130.714
130.64
130.568
130.5
130.434
130.371
130.31
131.888
131.739
131.6
131.47
131.35
131.238
131.133
131.034
130.941
130.853
130.769
130.689
130.613
130.539
130.469
130.401
130.336
130.273
131.887
131.737
131.597
131.466
131.344
131.231
131.124
131.024
130.929
130.84
130.755
130.673
130.596
130.521
130.449
130.38
130.314
130.25
131.887
131.737
131.597
131.466
131.344
131.229
131.122
131.022
130.927
130.837
130.752
130.671
130.593
130.518
130.447
130.378
130.311
130.247
131.888
131.739
131.6
131.47
131.348
131.235
131.129
131.03
130.937
130.849
130.765
130.685
130.609
130.535
130.465
130.397
130.331
130.268
131.889
131.742
131.604
131.476
131.357
131.245
131.141
131.044
130.953
130.867
130.786
130.709
130.635
130.564
130.495
130.429
130.366
130.304
131.891
131.747
131.611
131.485
131.368
131.259
131.158
131.064
130.976
130.893
130.816
130.742
130.671
130.604
130.539
130.476
130.416
130.357
131.895
131.753
131.62
131.497
131.383
131.277
131.18
131.09
131.006
130.929
130.857
130.789
130.725
130.665
130.607
130.551
130.498
130.447
131.899
131.762
131.633
131.513
131.403
131.304
131.215
131.137
131.07
131.014
130.969
130.934
130.91
130.895
130.89
130.894
130.905
130.924
131.906
131.776
131.659
131.56
131.49
131.459
131.481
131.569
131.735
131.99
132.342
132.793
133.338
133.973
134.69
135.479
136.333
137.24
131.928
131.879
131.994
132.403
133.245
134.654
136.766
139.697
143.528
148.297
153.989
160.544
167.838
175.754
184.172
192.972
202.019
211.208
132.586
135.113
141.426
153.086
171.264
196.617
229.328
269.405
316.42
369.537
427.618
489.351
553.428
618.574
683.655
747.728
809.96
869.889
160.756
242.102
387.634
595.234
859.898
1169.52
1507.92
1863.16
2224.23
2581.38
2926.67
3254.1
3559.6
3840.82
4096.88
4328.4
4536.99
4725.64
1390.68
3414.92
5558.81
7611.05
9459.92
11068.6
12449.2
13626.2
14627.1
15476.9
16198
16808.8
17324.8
17758.9
18121.8
18423.3
18672.3
18877
36868.4
55998.5
64517.8
67726.2
68459.4
68059.2
67136.3
65971
64699.6
63393.8
62095.3
60830.6
59618
58470.4
57396.3
56400.8
55483.1
54646.7
1183.05
1209.2
1265.82
1331.16
1403.76
1483.64
1572.7
1670.48
1775.55
1887.57
2006.64
2132.77
2265.78
2405.23
2550.34
2700.17
2853.65
3009.66
3166.19
3316.38
3437.8
3516.81
3551.61
3542.33
3492.77
3412.44
3316.58
3214.72
3116.68
3044.41
3013.41
3032.38
3103.8
3224.72
3387.84
3583.65
3802.21
4020.45
4167.14
4213.93
4139.07
3945.35
3675.74
3412.56
3252.07
3289.26
3639
4443.39
5836.37
7941.89
10393.4
12520.7
14549.6
16406.8
18043.4
19433.4
20568.6
21453.3
22101.7
22527.3
22744.1
22768.7
22615.9
22297.9
21824.6
21204.8
20444.9
19612.7
18751.3
17858.8
16936.4
15986.9
15014
14021.8
13015.1
11999.6
10981.6
9968.15
8967.94
7994.08
7059.9
6179.4
5367.12
4637.6
4004.91
3482.18
3081.4
2813.18
2686.84
2709.82
2882.91
3153.16
3515.38
3956.63
4461.13
5015.8
5609.89
6231.72
6875.66
7540.15
8220.46
8912.67
9611.59
10290.3
10843.4
11158.5
11259.8
11168.3
10912.7
10537
10101
9670.41
9297.69
9002.3
8760.47
8509.9
8167.97
7681.64
7114
6726.67
6986.11
8326.52
10624
12706.9
14415.8
15705.3
16523.3
16874.2
16774.4
16260.7
15369.8
14127.8
12721.3
11241
9734.02
8255.31
6877.26
5672.44
4712.14
4066.45
3804.55
4010.07
4636.48
5537.66
6703.64
8079.8
9606.07
11234.1
12905.8
14566.7
16170.7
17680.2
19059.8
20274.3
21294.3
21975.9
22255.7
22170.3
21753.3
21038.2
20066.8
18893.6
17583.6
16204.5
14818.8
13478.3
12218.6
11056.4
9989.9
9007.25
8096.14
7250.66
6471.38
5760.91
5120.45
4549.71
4055.09
3644.55
3354.6
3152.54
1931.35
1812.05
1786.86
1778.23
1770.9
1757.65
1736.32
1707.69
1673.4
1635.06
1594.02
1551.45
1508.35
1465.56
1423.84
1383.89
1346.39
1312.06
1282.13
1260.7
1262.93
1289.87
1329.42
1368.5
1395.39
1401.84
1384.82
1353.73
1322.07
1296.23
1283.86
1290.91
1318.62
1362.71
1415.68
1470.17
1522.49
1593.15
1756.28
1998.86
2299.09
2661.36
3142.54
3839.46
4822.81
6088.42
7468.55
8478.51
9336.05
10037.2
10527.4
10781.1
10814.7
10633.7
10255.2
9707.11
9026.5
8255.24
7423.19
6566.28
5729.85
4955.85
4278.2
3722.97
3307.59
3038.73
2915.21
2852.49
2796.96
2746.56
2700.01
2656.54
2615.76
2577.65
2542.49
2511.03
2484.82
2466.46
2455.01
2442.92
2428.3
2409.96
2386.6
2356.94
2319.9
2274.79
2221.47
2160.34
2092.21
2017.96
1945.13
1885.17
1832.81
1789.74
1757.01
1736.25
1731.62
1758.02
1817.34
1892.82
1981.6
2089.52
2229.05
2424.84
2737.91
3190.49
3642.75
4004.9
4247.27
4354.87
4326.03
4179.72
3960.5
3733.74
3570.3
3528.96
3676.58
4063.22
4728.12
5732.64
7013.25
8155.06
8561.26
8419.87
7912.65
7168.79
6315.76
5397.04
4542.99
3857.82
3403.18
3214.93
3122.33
3058.8
3029.61
3048.52
3071.19
3092.17
3110.06
3123.36
3129.44
3124.56
3111.22
3096.46
3086.77
3107.47
3223.17
3390.71
3591.62
3827.96
4104.63
4427.28
4802.06
5236.44
5745.23
6407.54
7144.62
7836.99
8412.46
8816.29
9002.52
8937.17
8611.6
8071.76
7412.19
6716.96
6038.56
5408.51
4842.82
4343.5
3903.38
3513.09
3166.02
2858.62
2588.23
2351.67
2146.25
1971.7
1835.42
1746.65
2873.32
2458.79
2296.67
2183.8
2085.08
1991.48
1901.44
1815.81
1735.63
1661.36
1592.93
1530.01
1472.12
1418.77
1369.53
1324.01
1281.92
1243.01
1207.1
1174.21
1145.07
1121.99
1106.84
1099.77
1099.18
1102.48
1107.63
1115.75
1132.99
1165.23
1218.89
1297.02
1396.85
1511.11
1632.25
1756.7
1910.37
2126.98
2405.07
2774.37
3287.4
4003.42
4958.16
6064.44
6901.43
7540.51
7975.41
8191.47
8230.91
8101.82
7812.84
7383.56
6840.86
6216
5547.09
4876.25
4242.22
3677.18
3204.03
2836.14
2573.97
2404.33
2308.84
2267.14
2260.26
2272.97
2290.88
2306.82
2320.04
2330.26
2337.55
2342.28
2345.06
2346.61
2347.71
2349.02
2351.02
2353.79
2357.07
2360.07
2361.56
2359.86
2353
2338.79
2315.07
2279.86
2231.62
2169.3
2092.49
2001.28
1906.99
1822.57
1741.5
1666.61
1600.06
1543.15
1496.51
1460.41
1434.4
1416.98
1406.41
1400.99
1399.56
1402.65
1415.29
1454.83
1569.14
1762.7
1985.45
2190.59
2340.57
2415.65
2425.19
2419.72
2481.81
2694.67
3126.18
3833.37
4839.11
6015.03
6904.64
6964.45
6443.68
5657.84
4800.41
4012.77
3384.66
2949.6
2703.25
2599.75
2580.59
2601.62
2629.66
2661.91
2696.19
2730.73
2762.76
2790.36
2811.27
2821.71
2815.02
2789.97
2756.81
2717.28
2675.77
2635.59
2599.17
2565.93
2536.47
2512.03
2494.38
2485.61
2488.28
2506.08
2545.37
2638.23
2883.44
3265.16
3746.59
4271.95
4771.68
5173.23
5423.63
5494.83
5379.66
5101.68
4705.94
4248.09
3781.57
3345.91
2961.84
2634.45
2360.31
2133
1945.57
1790.87
1661.98
1552.97
1462.88
1394.28
3998.54
3113.48
2725.24
2451.48
2230.21
2045.53
1890.74
1761.3
1653.21
1562.53
1485.92
1420.52
1364.07
1314.75
1271.18
1232.36
1197.51
1166.11
1137.73
1111.98
1088.46
1068.14
1052.27
1042.47
1040.53
1048.19
1067.37
1100.83
1156.1
1241.45
1362.8
1519.23
1703.81
1908.66
2133.24
2426.53
2764.26
3109.48
3510.21
4041.89
4760.37
5483.84
6133.37
6624.5
6897.33
6986.8
6912.13
6697.04
6367.93
5945.1
5451.78
4916.37
4370.78
3848.28
3379.64
2987.87
2684.07
2467.68
2328.96
2252.64
2221.49
2219.62
2234.6
2257.6
2282.97
2306.76
2326.62
2341.65
2351.32
2355.44
2354.23
2348.35
2338.84
2327.01
2314.35
2302.42
2292.59
2285.81
2282.48
2282.29
2284.14
2286.27
2286.33
2281.59
2269.11
2245.91
2209.29
2156.95
2087.48
1999.92
1907.47
1817.78
1727.8
1640.64
1559.13
1485.79
1422.82
1372.04
1334.49
1309.85
1296.71
1292.9
1295.55
1301.14
1306.08
1308.63
1312.62
1336.05
1394.44
1483.56
1589.5
1697.01
1805.26
1943.71
2172.09
2560.39
3169.16
4031.67
5085.12
6008.85
6203.4
5683.15
4892.9
4074.64
3380.98
2882.61
2577.31
2419.55
2352.94
2332.06
2330.41
2339.73
2354.91
2374.01
2395.22
2417.53
2439.99
2460.81
2477.11
2484.39
2477.19
2457.94
2429.44
2395.05
2358.09
2320.75
2284.1
2248.92
2216.31
2187.13
2161.94
2141.62
2127.36
2120.53
2123.13
2139.9
2189.06
2293.33
2472.06
2734.39
3068.52
3438.69
3794.5
4080.32
4245.11
4258.02
4116.59
3846.56
3493.69
3110.23
2741.23
2415.6
2145.32
1929.98
1762.66
1633.97
1534.54
1456.08
1393.72
1344.12
5290.76
3716.56
3010.22
2541.13
2199.81
1946.28
1756.23
1612.41
1502.16
1416.31
1348.18
1292.92
1247.06
1208.13
1174.38
1144.65
1118.19
1094.6
1073.7
1055.35
1040.01
1028.63
1022
1022.06
1032.14
1056.87
1102.08
1175.21
1285.81
1446.76
1660.58
1917.33
2206.04
2541.17
2922.63
3277.94
3636.66
4053.62
4501.53
4971.16
5432.98
5806.2
6046.19
6128.19
6059.92
5868.97
5579.43
5215.09
4798.76
4353.25
3903.89
3477.32
3097.99
2784.11
2544.55
2378.11
2275.63
2223.75
2208.31
2216.74
2239.25
2268.9
2301.14
2332.98
2362.39
2387.34
2407.43
2421.6
2428.95
2428.9
2421.31
2406.57
2385.72
2360.44
2332.82
2305.15
2279.64
2258.15
2241.83
2230.98
2224.93
2222.11
2220.24
2216.65
2208.47
2192.55
2165.71
2124.79
2067.15
1990.92
1909.45
1823.1
1732.91
1641.93
1553.01
1469.16
1393.68
1329.93
1280.34
1245.75
1225.75
1219.04
1223.33
1235.14
1249.82
1262.11
1267.85
1267.4
1271.07
1292.56
1342.26
1427.48
1559.53
1765.09
2091.08
2593.08
3311.27
4230.22
5181.75
5706.83
5391.65
4667.07
3878.73
3205.44
2727.41
2436.69
2279.29
2199.01
2157.74
2136.2
2125.96
2124.89
2128.79
2136.2
2147
2161.3
2178.53
2197.11
2213.8
2223.42
2221.77
2209.18
2187.01
2157.89
2125.05
2091.17
2058.08
2027.08
1999.05
1974.38
1952.97
1934.7
1920.11
1910.07
1905.94
1910.08
1927.85
1970.35
2046.81
2172.17
2358.02
2603.94
2892.15
3187.33
3441.97
3607.44
3648.65
3554.92
3342.53
3049.67
2724.28
2410.28
2137.26
1917.4
1749.41
1624.79
1533.05
1464.36
1411.67
1369.2
6644.39
4180.71
3100.17
2449.03
2030.77
1755.94
1571.2
1443.6
1352.72
1285.83
1234.97
1195.06
1162.54
1135.04
1110.94
1089.24
1069.41
1051.36
1035.42
1022.34
1013.53
1009.57
1011.82
1023.25
1049.44
1099.51
1184.79
1318.75
1517.5
1789.69
2121.35
2493.44
2881.33
3243.01
3581.07
3907.34
4224.04
4549.04
4861
5135.39
5337.41
5436.1
5420.14
5294.27
5076.29
4787.96
4449.73
4082.03
3705.8
3342.63
3013.42
2735.08
2517.53
2362.43
2264.17
2212.47
2195.44
2202.03
2223.27
2252.71
2286.04
2320.55
2354.4
2386.25
2414.92
2440.47
2462.05
2478.33
2487.96
2489.75
2482.88
2467.04
2442.88
2411.9
2376.34
2339
2302.75
2270.08
2242.68
2221.11
2204.81
2192.26
2181.23
2169.34
2154.69
2135.03
2107.79
2070.51
2019.97
1957.17
1887.39
1809.2
1725.05
1637.63
1549.56
1463.49
1382.64
1310.81
1251.5
1206.9
1177.99
1164.82
1166.25
1179.72
1201.01
1224.37
1243.39
1253.22
1254.63
1258.62
1282.98
1349.3
1483.22
1718.37
2098.92
2669.43
3444.32
4349.51
5121.52
5271.35
4687.07
3930.56
3238.25
2724.92
2402.2
2218.15
2113.59
2049.74
2007.89
1980.27
1962.72
1952.44
1946.22
1944.17
1947.09
1955.48
1968.81
1985.6
2002.56
2013.86
2016.64
2009.81
1993.74
1970.6
1943.48
1915.28
1888.15
1863.4
1841.63
1822.92
1806.88
1792.96
1780.99
1771.37
1764.91
1763.06
1768.8
1789.69
1831.14
1901.78
2012.11
2170.6
2377.55
2619.64
2868.64
3084.76
3225.76
3259.72
3175.81
2988.98
2734.49
2456.4
2194.09
1972.29
1798.85
1669.64
1575.12
1505.04
1451.35
1407.65
7945.13
4454.1
2999.63
2229.89
1803.15
1557.48
1408.63
1313.01
1247.97
1201.4
1166.64
1139.71
1117.98
1099.45
1082.55
1066.45
1050.81
1035.87
1022.51
1012.24
1006.34
1006.42
1015.18
1037.88
1084.98
1171.83
1316.88
1551.19
1886.49
2279.26
2673.35
3036.18
3359.87
3639.13
3902.49
4151.59
4384.14
4590.57
4754.01
4856.72
4883.22
4826.48
4689.93
4484.77
4226.78
3932.96
3620.82
3308.62
3014.66
2755.34
2542.6
2382.03
2272.53
2207.72
2178.25
2174.21
2186.79
2209.22
2236.86
2266.88
2297.69
2328.38
2358.31
2386.86
2414.08
2440.39
2464.73
2485.76
2501.86
2511.2
2512.02
2503.16
2484.34
2456.39
2421.43
2382.61
2343.45
2307.05
2275.3
2248.54
2225.64
2204.51
2182.78
2157.96
2129.54
2097.31
2059.35
2016.03
1965.69
1910.14
1846.98
1776.46
1699.88
1619.12
1536.24
1453.38
1373.07
1298.7
1234.08
1182.37
1145.86
1126.01
1123.04
1135.65
1160.57
1192.43
1224.24
1248.96
1262.97
1271.55
1292.03
1351.08
1483.7
1731.62
2140.51
2746.02
3535.31
4377.75
4948.22
4831.46
4133.1
3412.2
2833.57
2447.53
2219.05
2084.54
1997.67
1936.01
1890.65
1857.06
1832.33
1813.56
1799.25
1790.18
1786.97
1790.45
1800.58
1816.11
1832.32
1845.41
1852.08
1850.11
1839.41
1821.85
1800.42
1778.14
1757.28
1739.07
1723.83
1711.27
1700.77
1691.6
1683.26
1675.93
1670.14
1666.73
1667.32
1676.54
1699.56
1742.42
1812.99
1919.46
2067.18
2253.99
2466.37
2678.82
2856.76
2964.42
2975.9
2885.06
2709.51
2484.23
2248.63
2034.44
1858.43
1723.05
1622.04
1546.1
1487.11
1438.54
9079.58
4535.02
2758.61
1965.39
1595.62
1408.81
1303.15
1236.32
1190.38
1157.21
1132.58
1113.86
1098.96
1086.11
1073.88
1061.25
1047.84
1034.15
1021.24
1010.74
1005.06
1007.41
1022.52
1059.79
1137.29
1281
1536.73
1911.31
2324.26
2703.62
3019.25
3295.71
3541.35
3761.23
3958.1
4129.6
4270.08
4370.8
4422.1
4416.26
4349.5
4223.63
4045.6
3826.13
3578.41
3317.09
3057.81
2816.01
2605.01
2433.95
2306.56
2221.18
2172.02
2151.05
2149.9
2161.24
2179.48
2201
2223.78
2246.91
2270.16
2293.55
2317.08
2340.65
2365.52
2391.33
2417.54
2443.25
2467.03
2486.73
2499.62
2503.3
2496.08
2477.63
2449.64
2415.64
2380.05
2346.61
2317.38
2292.01
2267.88
2241.48
2210.38
2171.74
2126.07
2076.92
2021.96
1968.54
1913.51
1856.1
1795.18
1729.9
1660.17
1586.68
1510.63
1433.51
1357.17
1284.36
1218.58
1163.35
1121.88
1096.78
1089.69
1100.7
1127.8
1166.51
1209.97
1250.07
1280.38
1301.57
1328.21
1387.67
1519.68
1771.79
2191.22
2805.25
3575.39
4326.26
4712.1
4432.65
3732.27
3054.92
2573.35
2277.5
2103.3
1991.97
1911.32
1848.86
1799.52
1759.88
1728.81
1703.73
1683.76
1669.74
1662.33
1662.41
1670.29
1683.7
1699.7
1714.45
1723.96
1725.65
1719.1
1706.01
1689.36
1672.24
1656.9
1644.38
1634.67
1627.15
1620.98
1615.4
1610.01
1605.01
1600.87
1598.19
1597.85
1602.09
1615.32
1641.73
1687.94
1761.34
1868.39
2011.4
2184.91
2373.56
2552.65
2691.7
2761.58
2743.98
2639.97
2471.36
2271.96
2074.58
1901.69
1762.21
1654.54
1571.78
1506.55
1452.44
9932.44
4465.31
2447.01
1730.63
1455.32
1326.84
1251.39
1199.71
1162.15
1134.7
1114.91
1100.64
1089.84
1080.53
1070.98
1060.02
1047.25
1032.83
1017.83
1005.41
999.424
1004.94
1029.94
1091.84
1234.74
1509.66
1881.19
2261.82
2601.35
2894.62
3147.96
3367.56
3557.36
3719.44
3853.41
3956.53
4024.55
4052.65
4036.82
3975.09
3868.3
3720.56
3539
3333.4
3115.62
2898.79
2695.96
2518.42
2373.89
2265.64
2192.5
2149.79
2130.82
2128.41
2136.12
2149.02
2163.89
2179.04
2193.89
2208.53
2223.32
2238.68
2255.01
2272.64
2292.8
2315.05
2339.72
2366.88
2395.99
2425.24
2451.36
2470.45
2478.68
2473.68
2456.07
2429.62
2400.15
2372.77
2350
2330.5
2309.37
2280.35
2240.81
2189.11
2125.17
2058.53
1990.06
1922.58
1857.33
1794.24
1732.21
1669.79
1605.76
1539.57
1471.31
1401.59
1331.55
1263.23
1199.64
1144.21
1100.56
1072.18
1061.91
1071.28
1099.75
1144.09
1198.1
1253.3
1301.28
1338.81
1376.44
1440.52
1572.44
1822.88
2239.23
2840.54
3566.92
4215.24
4453.55
4094.51
3429.15
2825.61
2416.88
2172.46
2024.82
1925.16
1847.17
1783.2
1729.57
1684.66
1649.44
1620.46
1596.55
1578.92
1568.84
1566.41
1571.8
1583.98
1599.97
1615.77
1627.23
1631.48
1627.89
1618.07
1605.05
1592
1581.08
1573.07
1567.6
1563.73
1560.49
1557.23
1553.77
1550.4
1547.52
1545.68
1545.56
1548.42
1557.13
1574.47
1605.53
1656.87
1735.21
1845.02
1985.26
2146.83
2312.07
2456.89
2554.99
2584.68
2536.74
2420.11
2259.44
2084.51
1919.97
1779.63
1666.75
1577.69
1506.63
1447.65
10390
4235.08
2130.85
1573.51
1390.51
1297.5
1232.72
1183.41
1146.43
1119.79
1101.38
1088.9
1080.08
1072.7
1064.58
1053.98
1039.86
1021.99
1004.35
990.873
987.26
1005.89
1066.01
1198.94
1437.5
1766.65
2118.44
2438.62
2715.65
2953.97
3157.56
3329.56
3472.23
3586.46
3671.58
3725.89
3747.23
3733.64
3684.04
3598.84
3480.41
3333.39
3164.82
2983.95
2801.52
2628.56
2474.88
2347.58
2250.21
2182.59
2141.44
2121.43
2116.43
2120.63
2129.37
2139.5
2149.33
2158.28
2166.43
2174.11
2181.74
2189.77
2198.84
2209.97
2222.62
2237.47
2255.92
2279.25
2308.32
2342.63
2379.44
2413.83
2439.5
2450.7
2445.45
2427.07
2402.92
2380.87
2364.55
2351.34
2333.9
2302.81
2253.65
2189.8
2113.96
2031.37
1947.54
1866.55
1790.83
1721.05
1656.43
1595.34
1535.95
1476.73
1416.74
1355.61
1293.65
1232.2
1173.59
1120.88
1077.74
1048.15
1035.93
1043.96
1073.29
1122.21
1185.65
1255.4
1321.74
1378.03
1429.85
1501.06
1632.79
1876.69
2278.94
2851
3517.71
4065.77
4198.9
3817.9
3208.45
2675.42
2319.7
2107.1
1975.41
1880.58
1803.05
1736.25
1677.54
1628.82
1591.44
1560.19
1534.17
1514.06
1501.06
1496.27
1499.97
1511.17
1527.06
1543.53
1556.24
1562.11
1560.37
1552.67
1542.17
1532.12
1524.6
1520.07
1517.8
1516.59
1515.44
1513.84
1511.74
1509.28
1506.83
1504.97
1504.48
1506.39
1512.79
1525.35
1547.53
1584.52
1642.63
1727.38
1840.57
1977.33
2124.81
2263.57
2371.02
2426.33
2416.4
2341.61
2217.03
2066.65
1914.25
1776.4
1660.42
1566.2
1490.05
1427.03
10380.5
3772.91
1876.94
1508.77
1382.43
1297.84
1229.63
1175.6
1135.04
1106.05
1086.11
1072.68
1063.37
1055.82
1047.4
1035.3
1016.64
996.809
981.25
974.935
987.723
1037.51
1149.32
1345.09
1622.36
1937.95
2239.89
2505.2
2734.1
2929.74
3094.18
3229.37
3336.79
3417.01
3469.78
3494.37
3489.97
3456.09
3392.94
3301.92
3186
3050.12
2901.21
2747.79
2599.03
2463.51
2348.04
2256.72
2190.63
2148.08
2125.21
2117.01
2118.23
2124.34
2132.01
2139.32
2145.53
2150.67
2154.99
2158.67
2161.69
2164.05
2166.1
2169.07
2171.92
2176.59
2185.17
2199.94
2223.04
2255.68
2296.99
2342.62
2384.82
2413.95
2422.77
2413.06
2393.49
2374.91
2362.57
2352.25
2334.17
2298.91
2242.68
2167.3
2078.05
1981.88
1885.31
1793.23
1708.86
1633.38
1566.36
1506.25
1450.96
1398.38
1346.75
1294.85
1242.21
1189.41
1138
1090.53
1050.4
1021.74
1008.99
1016.21
1046.06
1098.52
1170.09
1253.37
1338.11
1414.78
1483.53
1564.04
1695.46
1928.81
2308.21
2838.97
3437.65
3895.74
3961.96
3595.22
3050.89
2578.91
2260.58
2066.44
1942.39
1850.33
1773.62
1706.05
1645.96
1595.03
1554.25
1519.87
1491.05
1468.38
1453.13
1446.58
1449.11
1459.72
1475.6
1492.5
1505.92
1512.58
1511.67
1504.99
1495.97
1488.01
1483.09
1481.35
1481.72
1482.82
1483.65
1483.67
1482.67
1480.63
1477.9
1475.16
1473.3
1473.45
1477.47
1486.76
1503.46
1531.29
1575.47
1641.6
1733.23
1848.62
1978.63
2107.18
2214.49
2281.44
2294.31
2249.24
2154.37
2027.4
1889.08
1756.52
1639.73
1541.78
1461.36
1394.87
9857.41
3209.83
1754.35
1518.84
1404.98
1312.37
1234.89
1173.1
1126.26
1092.02
1067.5
1050.04
1037.25
1026.55
1015.08
1000.74
983.821
969.858
962.984
971.733
1009.87
1096.46
1249.84
1473.54
1745.07
2023.34
2277.73
2500.17
2692.48
2856.08
2991.94
3101.32
3185.29
3244.34
3278.53
3287.68
3271.67
3230.67
3165.55
3078.22
2972.05
2852.01
2724.59
2597.17
2477.15
2370.94
2283.19
2216.26
2170.13
2142.67
2130.19
2128.23
2132.36
2138.92
2145.46
2150.83
2154.95
2158.11
2160.8
2163.03
2163.85
2161.96
2156.78
2149.63
2142.03
2136.18
2134.19
2138.57
2152.25
2177.92
2216.71
2266.34
2319.75
2365.38
2389.59
2390.85
2376.95
2360.66
2349.01
2337.53
2314.82
2271.33
2204.29
2116.94
2015.82
1908.47
1801.74
1701.12
1610.21
1530.57
1462.07
1403.31
1352.08
1305.94
1262.58
1220.14
1177.47
1134.43
1091.85
1051.61
1016.68
990.964
979.207
986.34
1016.45
1071.41
1149.5
1244.74
1347.06
1444.91
1532.99
1625.14
1756.75
1976.77
2326.97
2808.6
3336.72
3718.48
3747.75
3415.82
2938.29
2518.49
2226.78
2042.53
1921.36
1830.71
1755.08
1688.3
1628.75
1576.71
1532.43
1494.42
1462.56
1437.47
1420.47
1412.77
1414.71
1425.19
1441.28
1458.53
1472.2
1478.88
1477.81
1471.11
1462.63
1456.05
1453.26
1454.06
1457.04
1460.66
1463.76
1465.58
1465.68
1463.93
1460.62
1456.46
1452.5
1450.01
1450.79
1456.66
1468.98
1490.33
1524.7
1577.08
1651.7
1749.1
1863.19
1980.69
2083.78
2154.67
2179.98
2154.21
2081.48
1974.47
1850.18
1724.64
1609.1
1508.93
1425.08
1355.49
8796.82
2744.9
1763.69
1567.17
1442.64
1337.24
1248.48
1176.73
1121
1078.84
1047.3
1023.74
1005.85
991.369
978.383
966.111
955.83
951.333
958.195
986.6
1050.5
1164.74
1337.26
1559.51
1805.39
2044.71
2260.72
2450.81
2616.15
2756.95
2873.44
2966.35
3036.44
3084.13
3109.59
3112.87
3094.2
3054.14
2993.92
2915.78
2823.14
2720.69
2614.08
2509.37
2412.36
2327.89
2259.29
2208.15
2174.18
2155.43
2148.67
2150.04
2155.67
2162.35
2168
2171.76
2173.64
2174.29
2174.61
2174.81
2174.02
2168.75
2154.84
2138.06
2122.1
2108.48
2098.73
2094.89
2099.8
2116.8
2148.58
2195.16
2251.47
2306.31
2345.7
2360.92
2355.43
2341.83
2328.9
2312.6
2281.06
2225.7
2145.84
2046.37
1934.34
1817.21
1701.92
1594.22
1498.02
1415.25
1346.02
1289.03
1241.95
1202.08
1166.76
1133.64
1101.08
1068.28
1035.46
1003.85
975.776
954.758
945.453
953.291
983.545
1039.86
1122.62
1227.64
1345.83
1464.58
1573.81
1680.23
1813.52
2019.09
2336.29
2764.7
3223.81
3542.96
3556.21
3268.96
2855.95
2481.83
2210.37
2031.07
1909.82
1819.1
1744.11
1678.32
1619.42
1566.65
1519.97
1479.17
1444.73
1417.76
1399.63
1391.42
1393.4
1404.27
1420.85
1438.37
1451.85
1457.75
1455.52
1447.81
1439.12
1433.47
1432.66
1436.14
1442.14
1448.79
1454.66
1458.71
1460.25
1458.92
1454.91
1448.96
1442.33
1436.55
1433.46
1435.23
1443.1
1458.92
1485.67
1527.47
1588.58
1670.89
1770.84
1877.65
1975.12
2046.21
2077.81
2063.88
2006.52
1915.08
1803.29
1685.33
1572.47
1471.48
1385.05
1312.65
7468.46
2395.39
1810.02
1630.84
1492.27
1373.24
1272.2
1189.19
1123.26
1072.19
1033.1
1003.42
981.049
964.367
952.253
944.598
942.991
949.98
971.802
1018.03
1099.87
1226.4
1398.22
1602.89
1818.27
2023.85
2210.14
2376.1
2522.03
2647.29
2751.5
2834.91
2898
2941.09
2964.37
2968.02
2952.46
2918.49
2867.53
2801.87
2724.69
2640.05
2552.59
2467.08
2388.01
2319.03
2262.58
2221.17
2194.59
2180.54
2176.37
2178.8
2184.46
2190.47
2194.86
2196.69
2195.7
2192.55
2188.03
2182.05
2173.68
2160.92
2142.89
2122.45
2102.21
2084.14
2069.76
2060.75
2059.46
2069.06
2093
2133.3
2187.8
2247.58
2297.86
2325.67
2329.68
2320.43
2306.67
2284.08
2241.11
2171.71
2078.35
1967.18
1844.89
1718.3
1594.42
1479.52
1378.13
1292.53
1222.87
1167.77
1124.75
1090.85
1063.08
1038.8
1015.94
993.271
970.455
948.117
927.958
912.915
907.291
916.611
946.943
1003.51
1088.84
1200.95
1332.38
1470.55
1601.8
1725.14
1862.7
2054.6
2337.68
2712.12
3106.29
3374.76
3385
3145.33
2792.77
2460.05
2205.91
2029.35
1906.21
1813.89
1738.45
1672.87
1613.98
1560.4
1512.16
1469.7
1433.94
1406.18
1387.79
1379.88
1382.61
1394.44
1411.77
1429.46
1442.17
1446.37
1441.9
1432.25
1422.78
1417.94
1419.42
1426.18
1435.94
1446.43
1455.82
1462.68
1465.9
1464.89
1459.79
1451.5
1441.59
1431.95
1424.62
1421.84
1425.06
1435.72
1456
1489.2
1539.23
1608.76
1696.16
1792.98
1884.59
1954.35
1989.03
1982.23
1935.08
1855.03
1753.46
1642.64
1533.2
1432.41
1344.18
1269.25
6036.51
2254.42
1888.3
1710.01
1557.03
1424.96
1312.23
1218.62
1143.1
1083.85
1038.26
1003.74
978.315
960.706
950.369
947.648
954.12
971.464
1004.97
1062.16
1150.74
1275.4
1433.68
1614.1
1800.07
1977.66
2140.7
2288.38
2420.32
2535.21
2632.09
2710.74
2771.38
2814.25
2839.57
2847.62
2838.94
2814.41
2775.47
2724.1
2662.71
2593.58
2523.3
2454.85
2391.02
2334.61
2287.91
2252.91
2229.33
2215.93
2210.8
2211.38
2214.86
2218.66
2220.78
2220.04
2215.83
2208.32
2197.94
2184.73
2168.38
2148.55
2125.96
2102.53
2079.88
2059.49
2042.66
2030.81
2025.89
2030.71
2048.77
2083.06
2133.62
2194.12
2250.84
2288.73
2302.51
2299.57
2286.61
2257.73
2202.31
2118.36
2011.82
1889.45
1756.78
1620.04
1486.67
1363.92
1257.02
1168.51
1098.47
1045.2
1005.93
977.427
956.474
940.151
926.13
912.849
899.571
886.409
874.472
866.073
864.958
876.386
906.769
962.531
1048.21
1164.29
1305.52
1460.38
1613.2
1755.75
1901.06
2082.07
2332.56
2655.03
2989.78
3217.01
3231.14
3037.59
2740.65
2446.57
2209.16
2035.17
1909.41
1814.24
1737.06
1670.59
1611.04
1556.73
1507.72
1464.61
1428.53
1400.88
1383.12
1376.37
1380.58
1393.86
1412.09
1429.61
1440.77
1442.15
1434.33
1421.96
1411.49
1407.86
1412.45
1423.56
1438.19
1453.47
1467.02
1476.83
1481.37
1479.91
1472.76
1461.22
1447.32
1433.35
1421.6
1414.24
1412.91
1418.86
1433.68
1459.8
1500.63
1559.19
1635.35
1722.88
1808.75
1876.71
1913.04
1910.73
1870.34
1798.32
1704.57
1599.88
1493.93
1393.97
1304.53
1227.34
4649.58
2245.86
1987.11
1806.1
1642.16
1500.06
1378.24
1276.67
1193.81
1128.14
1077.67
1039.98
1013.02
995.528
987.052
987.871
998.993
1022.57
1061.43
1120.6
1204.84
1316.39
1452.62
1605.17
1762.51
1914.99
2057.91
2190.23
2311.04
2418.59
2511.23
2588.18
2649.34
2694.91
2725.16
2740.46
2741.25
2727.69
2701.66
2665.56
2621.1
2570.96
2518.91
2466.94
2417.23
2371.89
2332.91
2301.71
2278.56
2263.01
2253.99
2249.81
2248.37
2247.56
2245.52
2240.85
2232.71
2220.81
2205.22
2186.16
2163.92
2139.07
2112.82
2086.62
2061.79
2039.49
2020.81
2006.95
1999.62
2001.28
2015.16
2044.62
2091.01
2150.14
2210.03
2255.36
2278.42
2283.16
2272.3
2237.13
2168.83
2070.52
1951.31
1817.56
1673.57
1525.56
1382.11
1251.55
1139.62
1048.76
978.647
927.18
891.269
867.453
852.31
842.753
836.297
831.15
826.291
821.48
817.342
815.58
819.279
833.162
863.535
917.527
1001.38
1118.03
1264.9
1432.47
1604.86
1768.14
1925.32
2099.83
2321.06
2594.66
2874.8
3067
3087.85
2937.6
2692.48
2436.06
2216.67
2046.67
1918.64
1819.96
1739.97
1671.63
1610.88
1555.93
1506.73
1463.76
1428.13
1401.37
1385.04
1380.17
1386.46
1401.46
1420.45
1437.15
1445.67
1442.94
1430.7
1415.13
1403.95
1402.45
1411.44
1428.25
1448.93
1469.77
1487.58
1499.74
1504.36
1500.82
1489.97
1473.83
1455.08
1436.46
1420.44
1408.97
1403.59
1405.58
1416.07
1436.68
1470.05
1519.22
1585.29
1664.06
1744.34
1810.44
1847.95
1848.96
1813.35
1747.05
1659.12
1559.35
1456.57
1357.67
1267.42
1188.17
3433.15
2254.45
2096.47
1924.31
1761.57
1618.05
1492.65
1386.73
1298.95
1227.67
1171.93
1130.02
1099.96
1080.23
1070
1069.22
1078.71
1101.54
1138.09
1191.04
1263.32
1356.28
1468.26
1593.95
1725.7
1856.45
1982.15
2101.38
2213.01
2315.06
2405.34
2482.42
2545.75
2595.42
2632.08
2654.13
2663.08
2660.28
2647.42
2626.05
2597.69
2564.45
2528.4
2491
2453.76
2418.2
2385.79
2357.68
2334.42
2316.09
2302.3
2292.12
2284.25
2277.15
2269.34
2259.53
2246.8
2230.67
2211.01
2188.04
2162.26
2134.42
2105.82
2077.62
2050.97
2026.96
2006.6
1991.06
1981.9
1981.33
1992.37
2018.4
2061.48
2118.9
2180.35
2231.3
2263.03
2275.79
2266.26
2222.43
2139.09
2025.29
1892.25
1745.25
1588.05
1427.94
1274.98
1138.25
1023.26
931.719
862.692
813.643
781.172
761.593
751.376
747.428
747.252
748.958
751.295
753.776
756.682
761.189
769.678
786.143
816.407
867.785
947.765
1061.65
1209.77
1385.33
1573.7
1757.45
1930.11
2104.6
2304.59
2538.48
2773.7
2937.87
2964.95
2850.45
2649.05
2426.38
2225.13
2060.88
1931.99
1830.27
1747.27
1676.68
1614.52
1558.92
1509.67
1467.19
1432.62
1407.52
1393.44
1391.21
1400.09
1416.93
1436.2
1450.99
1455.28
1446.85
1429.08
1410.13
1399.04
1401.2
1416.43
1440.65
1468.58
1495.4
1516.94
1529.89
1532.26
1524.04
1507.13
1484.65
1460.03
1436.43
1416.45
1401.77
1393.55
1392.93
1400.69
1417.74
1445.84
1487.64
1545.06
1615.82
1690.7
1754.87
1793.36
1797.08
1765.09
1702.86
1619.09
1522.95
1422.66
1324.68
1233.73
1152.52
2655.22
2254.06
2177.17
2033.87
1895.38
1768.89
1653.63
1551.83
1463.42
1387.92
1325.71
1276.33
1238.93
1212.74
1196.96
1191
1194.68
1208.32
1236.88
1278.6
1335.06
1407.34
1494.82
1594.59
1701.91
1811.72
1920.47
2026.46
2128.49
2224.68
2312.66
2390.55
2458.76
2512.85
2552.88
2580.55
2597.5
2604.84
2603.88
2595.8
2581.82
2563.31
2541.48
2517.28
2491.64
2465.52
2439.9
2415.62
2393.27
2373.22
2355.5
2339.79
2325.46
2311.62
2297.28
2281.5
2263.53
2242.89
2219.45
2193.34
2165.04
2135.39
2105.46
2076.29
2048.86
2024.11
2003.02
1986.72
1976.71
1975.12
1984.86
2009.37
2051.03
2107.8
2170.45
2225.58
2264.29
2282.58
2270.24
2213.48
2113
1983.22
1835.76
1674.88
1505.04
1335.26
1176.63
1037.93
923.452
833.866
767.599
721.693