/*--------------------------------*- C++ -*----------------------------------*\
| =========                 |                                                 |
| \\      /  F ield         | OpenFOAM: The Open Source CFD Toolbox           |
|  \\    /   O peration     | Version:  2112                                  |
|   \\  /    A nd           | Website:  www.openfoam.com                      |
|    \\/     M anipulation  |                                                 |
\*---------------------------------------------------------------------------*/
FoamFile
{
    version     2.0;
    format      ascii;
    arch        "LSB;label=32;scalar=64";
    class       surfaceScalarField;
    location    "0.02";
    object      phi;
}
// * * * * * * * * * * * * * * * * * * * * * * * * * * * * * * * * * * * * * //

dimensions      [0 3 -1 0 0 0 0];

oriented        oriented;

internalField   nonuniform List<scalar> 
3067
(
5.07984e-05
1.62265e-09
5.07916e-05
6.7736e-09
5.07745e-05
1.70708e-08
5.07358e-05
3.86878e-08
5.06553e-05
8.05069e-08
5.04752e-05
1.80132e-07
5.00721e-05
4.0314e-07
1.19955e-06
4.88725e-05
2.03205e-05
1.08727e-09
2.0322e-05
5.30561e-09
2.03242e-05
1.48715e-08
2.03277e-05
3.51765e-08
2.03301e-05
7.80871e-08
2.03354e-05
1.74879e-07
2.03365e-05
4.02028e-07
1.13032e-06
2.04057e-05
2.03201e-05
1.02843e-09
2.03205e-05
4.91012e-09
2.03216e-05
1.37375e-08
2.03239e-05
3.28924e-08
2.03276e-05
7.4363e-08
2.03356e-05
1.66828e-07
2.0352e-05
3.85636e-07
1.04774e-06
2.04346e-05
2.03201e-05
9.67175e-10
2.03204e-05
4.55274e-09
2.03216e-05
1.25993e-08
2.03244e-05
3.00643e-08
2.03306e-05
6.8113e-08
2.03441e-05
1.53405e-07
2.0373e-05
3.56683e-07
9.44248e-07
2.04765e-05
2.03201e-05
8.38921e-10
2.03207e-05
3.93182e-09
2.03225e-05
1.08433e-08
2.03267e-05
2.58869e-08
2.03357e-05
5.9059e-08
2.03542e-05
1.34914e-07
2.03954e-05
3.15559e-07
8.17997e-07
2.05216e-05
2.03202e-05
6.35719e-10
2.03212e-05
2.97878e-09
2.03237e-05
8.25719e-09
2.03296e-05
1.9996e-08
2.03419e-05
4.68001e-08
2.03662e-05
1.10557e-07
2.04189e-05
2.62933e-07
6.75516e-07
2.05614e-05
2.54004e-05
2.77161e-10
2.5402e-05
1.33659e-09
2.54063e-05
3.91374e-09
2.54159e-05
1.04133e-08
2.54353e-05
2.74415e-08
2.54733e-05
7.25168e-08
2.5552e-05
1.84257e-07
4.82387e-07
2.57451e-05
2.54005e-05
-1.82025e-10
2.54026e-05
-8.09699e-10
2.54081e-05
-1.61652e-09
2.54197e-05
-1.19167e-09
2.54421e-05
5.05417e-09
2.54862e-05
2.84177e-08
2.55755e-05
9.49455e-08
2.8178e-07
2.57761e-05
2.54014e-05
-1.57172e-09
2.54057e-05
-5.08223e-09
2.54137e-05
-9.68333e-09
2.54274e-05
-1.48837e-08
2.54511e-05
-1.8609e-08
2.5495e-05
-1.5526e-08
2.55824e-05
7.61161e-09
8.65823e-08
2.57776e-05
2.53984e-05
2.53933e-05
2.53837e-05
2.53688e-05
2.53502e-05
2.53346e-05
2.53423e-05
2.54288e-05
-2.7085e-06
2.7085e-06
-1.04956e-05
7.78709e-06
-2.07772e-05
1.02816e-05
-3.03654e-05
9.58827e-06
-3.72536e-05
6.88817e-06
-4.10638e-05
3.8102e-06
-4.22367e-05
1.17288e-06
-4.17106e-05
-5.26076e-07
-4.01727e-05
-1.53793e-06
-3.77544e-05
-2.41824e-06
-3.4504e-05
-3.25041e-06
-3.04893e-05
-4.01477e-06
-2.58833e-05
-4.60598e-06
-1.93132e-05
-6.57003e-06
-1.22117e-05
-7.10155e-06
-5.23878e-06
-6.97291e-06
1.11065e-06
-6.34943e-06
6.5627e-06
-5.45205e-06
1.1028e-05
-4.46526e-06
1.45701e-05
-3.54215e-06
1.73093e-05
-2.73921e-06
1.93613e-05
-2.05199e-06
2.084e-05
-1.47872e-06
2.188e-05
-1.03998e-06
2.26308e-05
-7.50799e-07
2.32321e-05
-6.0134e-07
2.37869e-05
-5.54728e-07
2.43513e-05
-5.6442e-07
2.49443e-05
-5.92997e-07
2.55639e-05
-6.19639e-07
2.62016e-05
-6.37715e-07
2.68494e-05
-6.47758e-07
2.75004e-05
-6.50968e-07
2.81472e-05
-6.46878e-07
2.87799e-05
-6.3269e-07
2.93849e-05
-6.04942e-07
2.99479e-05
-5.62994e-07
3.04622e-05
-5.1429e-07
3.0931e-05
-4.6885e-07
3.13631e-05
-4.32126e-07
3.1756e-05
-3.92861e-07
3.20967e-05
-3.40654e-07
3.23624e-05
-2.65757e-07
3.25526e-05
-1.90159e-07
3.26703e-05
-1.17744e-07
3.27563e-05
-8.6012e-08
3.27897e-05
-3.33861e-08
3.27964e-05
-6.67386e-09
3.2547e-05
2.49356e-07
5.30739e-07
3.20163e-05
-3.94828e-06
6.65679e-06
-8.89881e-06
1.27376e-05
-1.38374e-05
1.52201e-05
-1.75719e-05
1.33228e-05
-1.97616e-05
9.07788e-06
-2.05838e-05
4.63241e-06
-2.03028e-05
8.91889e-07
-1.93542e-05
-1.47466e-06
-1.80123e-05
-2.87988e-06
-1.64922e-05
-3.93832e-06
-1.46931e-05
-5.04948e-06
-1.25033e-05
-6.2046e-06
-9.9025e-06
-7.20677e-06
-5.97869e-06
-1.04938e-05
-1.75892e-06
-1.13213e-05
2.35656e-06
-1.10884e-05
5.98421e-06
-9.97707e-06
8.92468e-06
-8.39252e-06
1.11849e-05
-6.72553e-06
1.28646e-05
-5.2218e-06
1.41019e-05
-3.97649e-06
1.50131e-05
-2.9632e-06
1.56521e-05
-2.11774e-06
1.60327e-05
-1.42052e-06
1.61671e-05
-8.85291e-07
1.61035e-05
-5.37747e-07
1.59293e-05
-3.80504e-07
1.57408e-05
-3.75866e-07
1.56101e-05
-4.62284e-07
1.55743e-05
-5.83904e-07
1.56438e-05
-7.07214e-07
1.58135e-05
-8.17445e-07
1.6071e-05
-9.0847e-07
1.64005e-05
-9.76336e-07
1.67836e-05
-1.01585e-06
1.72001e-05
-1.02145e-06
1.76311e-05
-9.9393e-07
1.80637e-05
-9.46939e-07
1.84938e-05
-8.98969e-07
1.89187e-05
-8.57e-07
1.93306e-05
-8.04718e-07
1.97115e-05
-7.21603e-07
2.00452e-05
-5.99429e-07
2.03214e-05
-4.66356e-07
2.05514e-05
-3.47706e-07
2.07445e-05
-2.79121e-07
2.09323e-05
-2.21227e-07
2.1106e-05
-1.80356e-07
2.1356e-05
-6.69743e-10
1.9335e-07
2.16934e-05
-2.13238e-06
8.78917e-06
-4.05965e-06
1.46649e-05
-5.85783e-06
1.70183e-05
-7.03863e-06
1.45036e-05
-7.67234e-06
9.71159e-06
-7.83069e-06
4.79075e-06
-7.31991e-06
3.81113e-07
-6.30615e-06
-2.48842e-06
-5.10584e-06
-4.08019e-06
-4.00445e-06
-5.03971e-06
-2.93408e-06
-6.11985e-06
-1.74074e-06
-7.39794e-06
-2.96868e-07
-8.65064e-06
1.66961e-06
-1.24603e-05
3.81553e-06
-1.34673e-05
5.83796e-06
-1.31108e-05
7.60068e-06
-1.17398e-05
9.04674e-06
-9.83858e-06
1.01178e-05
-7.79657e-06
1.08174e-05
-5.92138e-06
1.12402e-05
-4.39932e-06
1.15073e-05
-3.23035e-06
1.17013e-05
-2.3117e-06
1.18434e-05
-1.56261e-06
1.19087e-05
-9.50599e-07
1.18596e-05
-4.88596e-07
1.16816e-05
-2.02505e-07
1.14033e-05
-9.75689e-08
1.10843e-05
-1.43351e-07
1.07856e-05
-2.85149e-07
1.05472e-05
-4.68846e-07
1.03864e-05
-6.5666e-07
1.0304e-05
-8.26035e-07
1.02924e-05
-9.6471e-07
1.03413e-05
-1.06476e-06
1.04397e-05
-1.11987e-06
1.05767e-05
-1.13096e-06
1.07432e-05
-1.11343e-06
1.09335e-05
-1.0893e-06
1.11433e-05
-1.06676e-06
1.13658e-05
-1.02718e-06
1.15878e-05
-9.43635e-07
1.17957e-05
-8.07343e-07
1.19776e-05
-6.4822e-07
1.21352e-05
-5.0535e-07
1.22706e-05
-4.14514e-07
1.24056e-05
-3.5625e-07
1.25385e-05
-3.13218e-07
1.27415e-05
-2.03698e-07
-5.07319e-08
1.29856e-05
-8.02761e-07
9.59193e-06
-1.36195e-06
1.52241e-05
-1.82797e-06
1.74843e-05
-2.06519e-06
1.47408e-05
-2.133e-06
9.7794e-06
-2.01029e-06
4.66804e-06
-1.62558e-06
-3.59143e-09
-9.76656e-07
-3.13735e-06
-2.39006e-07
-4.81784e-06
4.90784e-07
-5.7695e-06
1.1818e-06
-6.81087e-06
1.89595e-06
-8.11208e-06
2.65845e-06
-9.41314e-06
3.77534e-06
-1.35772e-05
4.85965e-06
-1.45516e-05
5.78804e-06
-1.40392e-05
6.53428e-06
-1.2486e-05
7.17519e-06
-1.04795e-05
7.73493e-06
-8.35631e-06
8.14895e-06
-6.33541e-06
8.37733e-06
-4.6277e-06
8.46216e-06
-3.31517e-06
8.48241e-06
-2.33196e-06
8.49273e-06
-1.57292e-06
8.50121e-06
-9.59088e-07
8.48516e-06
-4.72545e-07
8.41591e-06
-1.33255e-07
8.27776e-06
4.05841e-08
8.07876e-06
5.56506e-08
7.84804e-06
-5.44288e-08
7.61866e-06
-2.39465e-07
7.41362e-06
-4.51623e-07
7.24332e-06
-6.55735e-07
7.10958e-06
-8.30969e-07
7.01092e-06
-9.661e-07
6.94539e-06
-1.05434e-06
6.91138e-06
-1.09694e-06
6.90678e-06
-1.10883e-06
6.92876e-06
-1.11128e-06
6.97373e-06
-1.11173e-06
7.03751e-06
-1.09096e-06
7.11334e-06
-1.01946e-06
7.19402e-06
-8.8803e-07
7.27214e-06
-7.26333e-07
7.34675e-06
-5.79965e-07
7.41623e-06
-4.83993e-07
7.49069e-06
-4.30714e-07
7.57158e-06
-3.94105e-07
7.69398e-06
-3.26095e-07
-2.12747e-07
7.85599e-06
-1.45215e-07
9.73714e-06
-2.05505e-07
1.52844e-05
-1.77456e-07
1.74563e-05
-7.9208e-08
1.46426e-05
6.9414e-08
9.63078e-06
2.97155e-07
4.4403e-06
5.85784e-07
-2.92221e-07
9.50404e-07
-3.50197e-06
1.37468e-06
-5.24212e-06
1.80612e-06
-6.20094e-06
2.24392e-06
-7.24867e-06
2.71023e-06
-8.5784e-06
3.19749e-06
-9.9004e-06
3.82325e-06
-1.4203e-05
4.37025e-06
-1.50986e-05
4.7975e-06
-1.44665e-05
5.0992e-06
-1.27877e-05
5.33543e-06
-1.07157e-05
5.57266e-06
-8.59355e-06
5.79678e-06
-6.55952e-06
5.94864e-06
-4.77955e-06
6.00773e-06
-3.37427e-06
6.00399e-06
-2.32822e-06
5.98238e-06
-1.55131e-06
5.96798e-06
-9.44691e-07
5.9562e-06
-4.60759e-07
5.92873e-06
-1.05784e-07
5.86826e-06
1.01046e-07
5.76686e-06
1.57055e-07
5.63048e-06
8.19461e-08
5.47626e-06
-8.52394e-08
5.32164e-06
-2.97003e-07
5.1779e-06
-5.11992e-07
5.04953e-06
-7.02604e-07
4.93796e-06
-8.54523e-07
4.84416e-06
-9.6055e-07
4.76923e-06
-1.02201e-06
4.71338e-06
-1.05298e-06
4.67528e-06
-1.07318e-06
4.65257e-06
-1.08903e-06
4.6435e-06
-1.08189e-06
4.64662e-06
-1.02258e-06
4.66075e-06
-9.02159e-07
4.68314e-06
-7.48733e-07
4.71239e-06
-6.09206e-07
4.74498e-06
-5.16586e-07
4.78378e-06
-4.69513e-07
4.82843e-06
-4.38752e-07
4.89625e-06
-3.93915e-07
-3.07451e-07
4.99095e-06
8.63637e-08
9.65078e-06
2.24755e-07
1.5146e-05
4.45319e-07
1.72357e-05
6.5359e-07
1.44343e-05
8.21158e-07
9.46321e-06
1.01469e-06
4.24677e-06
1.21609e-06
-4.93625e-07
1.42678e-06
-3.71266e-06
1.65155e-06
-5.46689e-06
1.90642e-06
-6.45581e-06
2.19529e-06
-7.53754e-06
2.51178e-06
-8.89488e-06
2.82945e-06
-1.02181e-05
3.18814e-06
-1.45617e-05
3.46054e-06
-1.5371e-05
3.64657e-06
-1.46525e-05
3.76043e-06
-1.29016e-05
3.84139e-06
-1.07967e-05
3.93717e-06
-8.68933e-06
4.05141e-06
-6.67376e-06
4.14588e-06
-4.87402e-06
4.19089e-06
-3.41929e-06
4.19001e-06
-2.32733e-06
4.1689e-06
-1.5302e-06
4.15088e-06
-9.26671e-07
4.14005e-06
-4.49932e-07
4.12685e-06
-9.25833e-08
4.09908e-06
1.28814e-07
4.04811e-06
2.08022e-07
3.97189e-06
1.58167e-07
3.87655e-06
1.01089e-08
3.77252e-06
-1.92976e-07
3.66902e-06
-4.08492e-07
3.57114e-06
-6.04727e-07
3.48139e-06
-7.6477e-07
3.40141e-06
-8.80573e-07
3.33244e-06
-9.5304e-07
3.27506e-06
-9.95599e-07
3.22855e-06
-1.02668e-06
3.19125e-06
-1.05173e-06
3.16228e-06
-1.05291e-06
3.14209e-06
-1.00239e-06
3.13206e-06
-8.92129e-07
3.13201e-06
-7.48682e-07
3.14094e-06
-6.18132e-07
3.15547e-06
-5.31115e-07
3.1754e-06
-4.89446e-07
3.19975e-06
-4.63105e-07
3.23694e-06
-4.31099e-07
-3.61524e-07
3.29101e-06
1.43441e-07
9.50734e-06
3.23005e-07
1.49664e-05
5.55834e-07
1.70029e-05
7.60193e-07
1.42299e-05
9.19804e-07
9.3036e-06
1.08303e-06
4.08355e-06
1.22518e-06
-6.35771e-07
1.34245e-06
-3.82994e-06
1.46311e-06
-5.58755e-06
1.61747e-06
-6.61017e-06
1.81044e-06
-7.73051e-06
2.0257e-06
-9.11014e-06
2.23369e-06
-1.04261e-05
2.44608e-06
-1.4774e-05
2.58439e-06
-1.55093e-05
2.66204e-06
-1.47301e-05
2.69646e-06
-1.2936e-05
2.71472e-06
-1.08149e-05
2.75015e-06
-8.72476e-06
2.80905e-06
-6.73266e-06
2.8673e-06
-4.93227e-06
2.89979e-06
-3.45178e-06
2.90162e-06
-2.32916e-06
2.88636e-06
-1.51494e-06
2.87101e-06
-9.11319e-07
2.86179e-06
-4.40716e-07
2.85414e-06
-8.49319e-08
2.84014e-06
1.42814e-07
2.81326e-06
2.34903e-07
2.7701e-06
2.01321e-07
2.71188e-06
6.83298e-08
2.64398e-06
-1.25071e-07
2.57285e-06
-3.3736e-07
2.50309e-06
-5.34971e-07
2.43733e-06
-6.99008e-07
2.37724e-06
-8.20482e-07
2.32381e-06
-8.99609e-07
2.27752e-06
-9.49313e-07
2.23796e-06
-9.87118e-07
2.20395e-06
-1.01772e-06
2.17499e-06
-1.02394e-06
2.15196e-06
-9.79366e-07
2.13667e-06
-8.76845e-07
2.12984e-06
-7.41844e-07
2.13085e-06
-6.19142e-07
2.13707e-06
-5.37342e-07
2.14743e-06
-4.99801e-07
2.161e-06
-4.76674e-07
2.18196e-06
-4.52064e-07
-3.93236e-07
2.21367e-06
1.50243e-07
9.35709e-06
3.23228e-07
1.47934e-05
5.53766e-07
1.67723e-05
7.66659e-07
1.4017e-05
9.41444e-07
9.12882e-06
1.11337e-06
3.91162e-06
1.25663e-06
-7.79031e-07
1.3652e-06
-3.9385e-06
1.47547e-06
-5.69782e-06
1.62457e-06
-6.75926e-06
1.81937e-06
-7.92532e-06
2.03895e-06
-9.32973e-06
2.24893e-06
-1.0636e-05
2.45862e-06
-1.49837e-05
2.59378e-06
-1.56444e-05
2.6747e-06
-1.48111e-05
2.71995e-06
-1.29813e-05
2.7536e-06
-1.08486e-05
2.80901e-06
-8.78016e-06
2.89694e-06
-6.82059e-06
2.99612e-06
-5.03145e-06
3.07781e-06
-3.53347e-06
3.13021e-06
-2.38157e-06
3.16241e-06
-1.54713e-06
3.19187e-06
-9.40782e-07
3.22836e-06
-4.77203e-07
3.26934e-06
-1.25917e-07
3.30669e-06
1.05465e-07
3.33242e-06
2.09173e-07
3.34072e-06
1.93026e-07
3.32942e-06
7.96287e-08
3.30142e-06
-9.70748e-08
3.2634e-06
-2.9934e-07
3.22206e-06
-4.93626e-07
3.18181e-06
-6.58764e-07
3.14563e-06
-7.84302e-07
3.11521e-06
-8.69184e-07
3.09147e-06
-9.25573e-07
3.07425e-06
-9.69898e-07
3.06223e-06
-1.0057e-06
3.05503e-06
-1.01675e-06
3.05478e-06
-9.79109e-07
3.06536e-06
-8.87433e-07
3.08939e-06
-7.65874e-07
3.12676e-06
-6.56511e-07
3.17393e-06
-5.84504e-07
3.22827e-06
-5.54143e-07
3.2886e-06
-5.37004e-07
3.35908e-06
-5.22545e-07
-4.80675e-07
3.44652e-06
1.30954e-07
9.22614e-06
2.80024e-07
1.46444e-05
4.83643e-07
1.65687e-05
6.79426e-07
1.38213e-05
8.4525e-07
8.96299e-06
1.00408e-06
3.75279e-06
1.13219e-06
-9.07135e-07
1.22644e-06
-4.03275e-06
1.3213e-06
-5.79269e-06
1.45209e-06
-6.89005e-06
1.62521e-06
-8.09844e-06
1.81991e-06
-9.52443e-06
2.00191e-06
-1.0818e-05
2.17688e-06
-1.51587e-05
2.28561e-06
-1.57532e-05
2.34982e-06
-1.48753e-05
2.38518e-06
-1.30166e-05
2.41196e-06
-1.08754e-05
2.45951e-06
-8.82772e-06
2.54017e-06
-6.90125e-06
2.63833e-06
-5.12961e-06
2.72808e-06
-3.62322e-06
2.79503e-06
-2.44852e-06
2.8432e-06
-1.59531e-06
2.88655e-06
-9.84127e-07
2.93559e-06
-5.26247e-07
2.99044e-06
-1.8076e-07
3.04496e-06
5.09433e-08
3.09215e-06
1.61979e-07
3.12625e-06
1.58928e-07
3.14341e-06
6.24715e-08
3.14288e-06
-9.65484e-08
3.12845e-06
-2.84914e-07
3.10709e-06
-4.72259e-07
3.0844e-06
-6.36073e-07
3.06377e-06
-7.6368e-07
3.04695e-06
-8.52356e-07
3.03479e-06
-9.13417e-07
3.02728e-06
-9.62386e-07
3.02313e-06
-1.00155e-06
3.02202e-06
-1.01563e-06
3.02656e-06
-9.83651e-07
3.04151e-06
-9.02383e-07
3.07044e-06
-7.94801e-07
3.11367e-06
-6.99747e-07
3.16794e-06
-6.3877e-07
3.22983e-06
-6.16037e-07
3.2981e-06
-6.05266e-07
3.37501e-06
-5.99461e-07
-5.7307e-07
3.46741e-06
9.09044e-07
8.3171e-06
2.02553e-06
1.35279e-05
3.24577e-06
1.53485e-05
4.1945e-06
1.28725e-05
4.83551e-06
8.32199e-06
5.26808e-06
3.32021e-06
5.48444e-06
-1.1235e-06
5.6165e-06
-4.16481e-06
5.77549e-06
-5.95168e-06
6.04281e-06
-7.15737e-06
6.42965e-06
-8.48529e-06
6.86271e-06
-9.95748e-06
7.21019e-06
-1.11655e-05
7.42166e-06
-1.53702e-05
7.42124e-06
-1.57527e-05
7.28213e-06
-1.47362e-05
7.05542e-06
-1.27899e-05
6.81665e-06
-1.06366e-05
6.65381e-06
-8.66488e-06
6.60123e-06
-6.84867e-06
6.61673e-06
-5.1451e-06
6.63021e-06
-3.63671e-06
6.59714e-06
-2.41544e-06
6.51665e-06
-1.51482e-06
6.41692e-06
-8.84397e-07
6.32579e-06
-4.35122e-07
6.24978e-06
-1.04749e-07
6.17928e-06
1.21448e-07
6.10113e-06
2.40126e-07
6.00493e-06
2.55131e-07
5.88322e-06
1.84181e-07
5.73164e-06
5.50297e-08
5.55201e-06
-1.05283e-07
5.35678e-06
-2.77034e-07
5.16029e-06
-4.39582e-07
4.9707e-06
-5.74088e-07
4.79177e-06
-6.73426e-07
4.62439e-06
-7.46033e-07
4.46738e-06
-8.05383e-07
4.31826e-06
-8.52426e-07
4.17607e-06
-8.73442e-07
4.04449e-06
-8.52078e-07
3.92978e-06
-7.87668e-07
3.83547e-06
-7.00493e-07
3.76035e-06
-6.24622e-07
3.69914e-06
-5.7756e-07
3.6461e-06
-5.62997e-07
3.5989e-06
-5.58074e-07
3.5582e-06
-5.5876e-07
-5.44359e-07
3.52949e-06
1.2744e-06
7.0427e-06
2.79314e-06
1.20091e-05
4.36796e-06
1.37737e-05
5.55385e-06
1.16866e-05
6.29697e-06
7.57886e-06
6.70555e-06
2.91164e-06
6.85355e-06
-1.2715e-06
6.88753e-06
-4.19879e-06
6.95834e-06
-6.02249e-06
7.18585e-06
-7.38487e-06
7.55884e-06
-8.85829e-06
7.9403e-06
-1.03389e-05
8.16606e-06
-1.13913e-05
8.15375e-06
-1.53578e-05
7.9153e-06
-1.55143e-05
7.57578e-06
-1.43966e-05
7.20947e-06
-1.24236e-05
6.86958e-06
-1.02967e-05
6.62161e-06
-8.41691e-06
6.50019e-06
-6.72725e-06
6.4753e-06
-5.12022e-06
6.48123e-06
-3.64264e-06
6.4645e-06
-2.39871e-06
6.40625e-06
-1.45658e-06
6.32072e-06
-7.98861e-07
6.23448e-06
-3.48887e-07
6.16206e-06
-3.2323e-08
6.10076e-06
1.82741e-07
6.04015e-06
3.00742e-07
5.96978e-06
3.25499e-07
5.88177e-06
2.72189e-07
5.77087e-06
1.65934e-07
5.63228e-06
3.33016e-08
5.46615e-06
-1.10904e-07
5.28382e-06
-2.5725e-07
5.0991e-06
-3.8937e-07
4.92083e-06
-4.9515e-07
4.75187e-06
-5.77081e-07
4.59095e-06
-6.44457e-07
4.4365e-06
-6.97976e-07
4.28934e-06
-7.26282e-07
4.15367e-06
-7.16405e-07
4.03543e-06
-6.69436e-07
3.93804e-06
-6.03104e-07
3.8603e-06
-5.46879e-07
3.7974e-06
-5.14656e-07
3.74339e-06
-5.08989e-07
3.696e-06
-5.10683e-07
3.65554e-06
-5.18303e-07
-5.16068e-07
3.62725e-06
1.55146e-06
5.49124e-06
3.36801e-06
1.01926e-05
5.17849e-06
1.19632e-05
6.53714e-06
1.0328e-05
7.37161e-06
6.74439e-06
7.79133e-06
2.49191e-06
7.90191e-06
-1.38208e-06
7.8886e-06
-4.18547e-06
7.94855e-06
-6.08244e-06
8.19243e-06
-7.62875e-06
8.54778e-06
-9.21365e-06
8.82847e-06
-1.06196e-05
8.88896e-06
-1.14518e-05
8.65958e-06
-1.51285e-05
8.23422e-06
-1.50889e-05
7.74445e-06
-1.39069e-05
7.27751e-06
-1.19567e-05
6.87388e-06
-9.89308e-06
6.57221e-06
-8.11524e-06
6.39924e-06
-6.55427e-06
6.3364e-06
-5.05738e-06
6.32931e-06
-3.63555e-06
6.32274e-06
-2.39215e-06
6.28498e-06
-1.41881e-06
6.21725e-06
-7.31137e-07
6.13988e-06
-2.71514e-07
6.07119e-06
3.63701e-08
6.01536e-06
2.38565e-07
5.96608e-06
3.5002e-07
5.91405e-06
3.77535e-07
5.85145e-06
3.34789e-07
5.77302e-06
2.44361e-07
5.67553e-06
1.30792e-07
5.55297e-06
1.16593e-08
5.40418e-06
-1.08464e-07
5.24003e-06
-2.2522e-07
5.07225e-06
-3.27366e-07
4.90693e-06
-4.11762e-07
4.74489e-06
-4.82421e-07
4.58641e-06
-5.39496e-07
4.43481e-06
-5.74673e-07
4.29508e-06
-5.76682e-07
4.17274e-06
-5.47094e-07
4.07132e-06
-5.01687e-07
3.98987e-06
-4.65424e-07
3.92412e-06
-4.48911e-07
3.86861e-06
-4.53474e-07
3.82104e-06
-4.63117e-07
3.78137e-06
-4.7863e-07
-4.89118e-07
3.75442e-06
1.72038e-06
3.77086e-06
3.70928e-06
8.20367e-06
5.7016e-06
9.97088e-06
7.20281e-06
8.82678e-06
8.11934e-06
5.82786e-06
8.5649e-06
2.04635e-06
8.67826e-06
-1.49544e-06
8.69099e-06
-4.1982e-06
8.80954e-06
-6.20099e-06
9.08315e-06
-7.90236e-06
9.38061e-06
-9.51111e-06
9.51524e-06
-1.07542e-05
9.4023e-06
-1.13388e-05
8.99034e-06
-1.47165e-05
8.42242e-06
-1.4521e-05
7.82235e-06
-1.33068e-05
7.28597e-06
-1.14203e-05
6.84623e-06
-9.45333e-06
6.51515e-06
-7.78416e-06
6.3062e-06
-6.34533e-06
6.20914e-06
-4.96031e-06
6.18434e-06
-3.61076e-06
6.18045e-06
-2.38825e-06
6.15847e-06
-1.39683e-06
6.10878e-06
-6.81444e-07
6.04316e-06
-2.05898e-07
5.97938e-06
1.00148e-07
5.92706e-06
2.90888e-07
5.88464e-06
3.92442e-07
5.84504e-06
4.17129e-07
5.80085e-06
3.78979e-07
5.74654e-06
2.98673e-07
5.67933e-06
1.98003e-07
5.59672e-06
9.42699e-08
5.49226e-06
-4.00244e-09
5.36504e-06
-9.79968e-08
5.22349e-06
-1.85819e-07
5.0758e-06
-2.64075e-07
4.92516e-06
-3.3178e-07
4.77288e-06
-3.87216e-07
4.62257e-06
-4.24363e-07
4.4805e-06
-4.34611e-07
4.35377e-06
-4.20361e-07
4.24724e-06
-3.95165e-07
4.16091e-06
-3.79093e-07
4.0911e-06
-3.79096e-07
4.03295e-06
-3.95327e-07
3.98426e-06
-4.14428e-07
3.9448e-06
-4.39171e-07
-4.62956e-07
3.91864e-06
1.85439e-06
1.91646e-06
4.07123e-06
5.98684e-06
6.10584e-06
7.93627e-06
7.6196e-06
7.31301e-06
8.57994e-06
4.86753e-06
9.0733e-06
1.55299e-06
9.25829e-06
-1.68044e-06
9.37848e-06
-4.31838e-06
9.58038e-06
-6.4029e-06
9.84569e-06
-8.16767e-06
1.00296e-05
-9.69508e-06
9.99072e-06
-1.07153e-05
9.71848e-06
-1.10666e-05
9.16342e-06
-1.41614e-05
8.49074e-06
-1.38483e-05
7.81658e-06
-1.26326e-05
7.24124e-06
-1.0845e-05
6.79035e-06
-9.00244e-06
6.45169e-06
-7.44551e-06
6.22281e-06
-6.11644e-06
6.09803e-06
-4.83553e-06
6.05204e-06
-3.56477e-06
6.04342e-06
-2.37963e-06
6.03174e-06
-1.38515e-06
5.99781e-06
-6.47514e-07
5.9452e-06
-1.53285e-07
5.88791e-06
1.57443e-07
5.83842e-06
3.40369e-07
5.79994e-06
4.30924e-07
5.76833e-06
4.48745e-07
5.73707e-06
4.10231e-07
5.70067e-06
3.35075e-07
5.65557e-06
2.43109e-07
5.6005e-06
1.49331e-07
5.53303e-06
6.34714e-08
5.44776e-06
-1.27239e-08
5.34397e-06
-8.20305e-08
5.22713e-06
-1.47239e-07
5.10125e-06
-2.05899e-07
4.9684e-06
-2.54367e-07
4.83209e-06
-2.88044e-07
4.69889e-06
-3.01411e-07
4.57676e-06
-2.98232e-07
4.47174e-06
-2.90152e-07
4.38509e-06
-2.92441e-07
4.31397e-06
-3.07972e-07
4.25402e-06
-3.35377e-07
4.20359e-06
-3.64003e-07
4.16346e-06
-3.99042e-07
-4.36019e-07
4.13653e-06
1.49338e-06
4.23084e-07
3.57668e-06
3.90354e-06
5.93108e-06
5.58186e-06
7.73082e-06
5.51327e-06
8.8688e-06
3.72955e-06
9.48956e-06
9.32223e-07
9.80668e-06
-1.99755e-06
1.0039e-05
-4.55072e-06
1.02631e-05
-6.62697e-06
1.0435e-05
-8.33961e-06
1.04464e-05
-9.70639e-06
1.02365e-05
-1.05054e-05
9.84637e-06
-1.06765e-05
9.19962e-06
-1.35147e-05
8.46595e-06
-1.31147e-05
7.75568e-06
-1.19224e-05
7.16664e-06
-1.02559e-05
6.71883e-06
-8.55463e-06
6.38516e-06
-7.11184e-06
6.14902e-06
-5.8803e-06
6.00464e-06
-4.69116e-06
5.93694e-06
-3.49707e-06
5.91711e-06
-2.3598e-06
5.90904e-06
-1.37709e-06
5.88712e-06
-6.25591e-07
5.84701e-06
-1.13175e-07
5.79743e-06
2.07022e-07
5.75102e-06
3.86783e-07
5.7148e-06
4.67142e-07
5.68795e-06
4.75598e-07
5.66544e-06
4.32735e-07
5.64198e-06
3.58534e-07
5.61378e-06
2.71317e-07
5.57877e-06
1.84341e-07
5.53586e-06
1.0638e-07
5.48242e-06
4.07167e-08
5.41533e-06
-1.494e-08
5.33471e-06
-6.66209e-08
5.24178e-06
-1.12971e-07
5.13839e-06
-1.50973e-07
5.02742e-06
-1.77082e-07
4.91467e-06
-1.88659e-07
4.80765e-06
-1.91213e-07
4.71268e-06
-1.95181e-07
4.63202e-06
-2.11774e-07
4.56426e-06
-2.40221e-07
4.5065e-06
-2.77614e-07
4.45767e-06
-3.15171e-07
4.41928e-06
-3.6065e-07
-4.09709e-07
4.39297e-06
4.64696e-05
2.82597e-06
4.57564e-05
4.61676e-06
4.58006e-05
5.53767e-06
4.65267e-05
4.78722e-06
4.73755e-05
2.88068e-06
4.78617e-05
4.46095e-07
4.79568e-05
-2.0927e-06
4.76759e-05
-4.26977e-06
4.70456e-05
-5.99667e-06
4.59534e-05
-7.24743e-06
4.4276e-05
-8.02905e-06
4.21008e-05
-8.33017e-06
3.96521e-05
-8.22783e-06
3.62994e-05
-1.0162e-05
3.29028e-05
-9.71808e-06
2.98692e-05
-8.88879e-06
2.74689e-05
-7.85553e-06
2.56882e-05
-6.77397e-06
2.43329e-05
-5.7565e-06
2.32589e-05
-4.80634e-06
2.24297e-05
-3.86201e-06
2.18407e-05
-2.90803e-06
2.14602e-05
-1.97926e-06
2.1211e-05
-1.12796e-06
2.09978e-05
-4.12321e-07
2.07469e-05
1.37731e-07
2.04395e-05
5.14339e-07
2.01075e-05
7.18797e-07
1.97936e-05
7.81102e-07
1.95193e-05
7.49822e-07
1.92808e-05
6.7126e-07
1.90622e-05
5.77159e-07
1.88484e-05
4.85151e-07
1.86288e-05
4.03918e-07
1.83978e-05
3.37368e-07
1.81521e-05
2.86432e-07
1.78865e-05
2.50612e-07
1.75922e-05
2.27698e-07
1.72621e-05
2.17096e-07
1.68927e-05
2.18463e-07
1.64859e-05
2.29713e-07
1.60512e-05
2.46069e-07
1.56037e-05
2.5624e-07
1.51596e-05
2.48924e-07
1.473e-05
2.17803e-07
1.43197e-05
1.70125e-07
1.39297e-05
1.12392e-07
1.35609e-05
5.36704e-08
1.32195e-05
-1.93e-08
-9.84479e-08
1.29082e-05
2.08144e-05
2.41731e-06
2.17688e-05
3.66232e-06
2.28555e-05
4.451e-06
2.37421e-05
3.90064e-06
2.43656e-05
2.25712e-06
2.46173e-05
1.94467e-07
2.46213e-05
-2.09678e-06
2.43194e-05
-3.96778e-06
2.37478e-05
-5.42514e-06
2.29353e-05
-6.43493e-06
2.19128e-05
-7.00648e-06
2.07461e-05
-7.16348e-06
1.95161e-05
-6.99788e-06
1.79623e-05
-8.60814e-06
1.65627e-05
-8.3185e-06
1.54266e-05
-7.75267e-06
1.45665e-05
-6.99547e-06
1.3947e-05
-6.15448e-06
1.34963e-05
-5.30576e-06
1.3145e-05
-4.45507e-06
1.28629e-05
-3.57988e-06
1.26516e-05
-2.69678e-06
1.25232e-05
-1.85082e-06
1.248e-05
-1.08481e-06
1.24997e-05
-4.3195e-07
1.25395e-05
9.78524e-08
1.2566e-05
4.8789e-07
1.2572e-05
7.12779e-07
1.25723e-05
7.80774e-07
1.25885e-05
7.3368e-07
1.26331e-05
6.26668e-07
1.27053e-05
5.0495e-07
1.27972e-05
3.93235e-07
1.29005e-05
3.00601e-07
1.30088e-05
2.29095e-07
1.31164e-05
1.78784e-07
1.32183e-05
1.48785e-07
1.33091e-05
1.36864e-07
1.33842e-05
1.42015e-07
1.34404e-05
1.62244e-07
1.34776e-05
1.9248e-07
1.34988e-05
2.2493e-07
1.35085e-05
2.46492e-07
1.3512e-05
2.45389e-07
1.35152e-05
2.14621e-07
1.35238e-05
1.61549e-07
1.3546e-05
9.02304e-08
1.35876e-05
1.1994e-08
1.366e-05
-9.16714e-08
-2.08481e-07
1.377e-05
2.07947e-05
2.05724e-06
2.15649e-05
2.8921e-06
2.26145e-05
3.40142e-06
2.35557e-05
2.95945e-06
2.41688e-05
1.64398e-06
2.44825e-05
-1.19238e-07
2.43299e-05
-1.94413e-06
2.38844e-05
-3.52232e-06
2.31801e-05
-4.72082e-06
2.22675e-05
-5.52232e-06
2.12118e-05
-5.95081e-06
2.01089e-05
-6.06053e-06
1.90409e-05
-5.92993e-06
1.78102e-05
-7.37746e-06
1.6737e-05
-7.24527e-06
1.58207e-05
-6.83639e-06
1.50433e-05
-6.21808e-06
1.44079e-05
-5.51902e-06
1.39153e-05
-4.8132e-06
1.35445e-05
-4.08422e-06
1.3264e-05
-3.2994e-06
1.30489e-05
-2.4817e-06
1.28914e-05
-1.69333e-06
1.27986e-05
-9.92019e-07
1.27699e-05
-4.0322e-07
1.27814e-05
8.64126e-08
1.28011e-05
4.68107e-07
1.28087e-05
7.05263e-07
1.28043e-05
7.85123e-07
1.28039e-05
7.34089e-07
1.28249e-05
6.05616e-07
1.2875e-05
4.54948e-07
1.29506e-05
3.17614e-07
1.30439e-05
2.07272e-07
1.31466e-05
1.26404e-07
1.32518e-05
7.35633e-08
1.33539e-05
4.67236e-08
1.34479e-05
4.27974e-08
1.35308e-05
5.92009e-08
1.36011e-05
9.18518e-08
1.36598e-05
1.33833e-07
1.37088e-05
1.7596e-07
1.37504e-05
2.04842e-07
1.37865e-05
2.09339e-07
1.38199e-05
1.81143e-07
1.38551e-05
1.2643e-07
1.3901e-05
4.42602e-08
1.39641e-05
-5.10344e-08
1.406e-05
-1.87591e-07
-3.42094e-07
1.41936e-05
2.08307e-05
1.70309e-06
2.14496e-05
2.27319e-06
2.22841e-05
2.56688e-06
2.30703e-05
2.17326e-06
2.36265e-05
1.08778e-06
2.38461e-05
-3.38811e-07
2.37018e-05
-1.79982e-06
2.32684e-05
-3.08899e-06
2.26103e-05
-4.06268e-06
2.17931e-05
-4.70518e-06
2.08955e-05
-5.05316e-06
1.99828e-05
-5.14782e-06
1.91071e-05
-5.0542e-06
1.80558e-05
-6.32615e-06
1.70638e-05
-6.25328e-06
1.61678e-05
-5.94038e-06
1.54001e-05
-5.4504e-06
1.47673e-05
-4.88624e-06
1.42603e-05
-4.30621e-06
1.38697e-05
-3.69363e-06
1.35821e-05
-3.0118e-06
1.33721e-05
-2.27173e-06
1.3214e-05
-1.53519e-06
1.31001e-05
-8.78075e-07
1.30343e-05
-3.37491e-07
1.30138e-05
1.06956e-07
1.30203e-05
4.61622e-07
1.30291e-05
6.96422e-07
1.30284e-05
7.8581e-07
1.30228e-05
7.39674e-07
1.30265e-05
6.01946e-07
1.30523e-05
4.29162e-07
1.31038e-05
2.66078e-07
1.31764e-05
1.34721e-07
1.32617e-05
4.10444e-08
1.3353e-05
-1.77219e-08
1.34441e-05
-4.4386e-08
1.35308e-05
-4.38555e-08
1.36106e-05
-2.06396e-08
1.36832e-05
1.9317e-08
1.37493e-05
6.76631e-08
1.38106e-05
1.14664e-07
1.38682e-05
1.47308e-07
1.39219e-05
1.55647e-07
1.3973e-05
1.3004e-07
1.40236e-05
7.58298e-08
1.40819e-05
-1.40902e-08
1.41529e-05
-1.22042e-07
1.42558e-05
-2.90527e-07
-4.80613e-07
1.43944e-05
2.08859e-05
1.33879e-06
2.14239e-05
1.73518e-06
2.21006e-05
1.89018e-06
2.27435e-05
1.53039e-06
2.31792e-05
6.5207e-07
2.33247e-05
-4.84359e-07
2.31756e-05
-1.65068e-06
2.27672e-05
-2.68054e-06
2.21674e-05
-3.46288e-06
2.14416e-05
-3.97938e-06
2.06501e-05
-4.26168e-06
1.98434e-05
-4.3412e-06
1.90611e-05
-4.27182e-06
1.8106e-05
-5.37104e-06
1.71948e-05
-5.34211e-06
1.63753e-05
-5.12086e-06
1.56825e-05
-4.75762e-06
1.51079e-05
-4.31165e-06
1.46265e-05
-3.82483e-06
1.42291e-05
-3.29627e-06
1.39181e-05
-2.70081e-06
1.36832e-05
-2.03679e-06
1.35036e-05
-1.3556e-06
1.33671e-05
-7.41582e-07
1.32727e-05
-2.43051e-07
1.32238e-05
1.55882e-07
1.32148e-05
4.70538e-07
1.32246e-05
6.86696e-07
1.32338e-05
7.76533e-07
1.32355e-05
7.38009e-07
1.32346e-05
6.02823e-07
1.32427e-05
4.21089e-07
1.32687e-05
2.40089e-07
1.33138e-05
8.95834e-08
1.33741e-05
-1.9198e-08
1.34431e-05
-8.67126e-08
1.3516e-05
-1.17293e-07
1.35889e-05
-1.16781e-07
1.36598e-05
-9.15497e-08
1.37282e-05
-4.91023e-08
1.37949e-05
9.98327e-10
1.38605e-05
4.90328e-08
1.39254e-05
8.2402e-08
1.39882e-05
9.28433e-08
1.40489e-05
6.93779e-08
1.4107e-05
1.77087e-08
1.41699e-05
-7.69282e-08
1.42395e-05
-1.91704e-07
1.43395e-05
-3.90548e-07
-6.12802e-07
1.44717e-05
2.09287e-05
9.71479e-07
2.14155e-05
1.24838e-06
2.19864e-05
1.31925e-06
2.25113e-05
1.00546e-06
2.28537e-05
3.09748e-07
2.29462e-05
-5.76884e-07
2.27857e-05
-1.49019e-06
2.24015e-05
-2.29634e-06
2.18522e-05
-2.9136e-06
2.11955e-05
-3.32267e-06
2.04813e-05
-3.54749e-06
1.97532e-05
-3.61312e-06
1.90447e-05
-3.5633e-06
1.81782e-05
-4.50456e-06
1.73486e-05
-4.51242e-06
1.66038e-05
-4.37613e-06
1.59681e-05
-4.12188e-06
1.54244e-05
-3.76792e-06
1.495e-05
-3.35045e-06
1.45448e-05
-2.89112e-06
1.42172e-05
-2.37317e-06
1.39609e-05
-1.78045e-06
1.37585e-05
-1.15321e-06
1.35975e-05
-5.80578e-07
1.34781e-05
-1.23663e-07
1.34029e-05
2.31031e-07
1.3377e-05
4.96437e-07
1.3386e-05
6.77711e-07
1.34087e-05
7.53813e-07
1.3428e-05
7.18705e-07
1.34375e-05
5.93398e-07
1.3441e-05
4.17588e-07
1.34476e-05
2.33436e-07
1.34644e-05
7.27768e-08
1.34936e-05
-4.83928e-08
1.35336e-05
-1.26669e-07
1.35817e-05
-1.65464e-07
1.36353e-05
-1.7036e-07
1.36925e-05
-1.48738e-07
1.37526e-05
-1.09164e-07
1.38157e-05
-6.20869e-08
1.38815e-05
-1.68443e-08
1.39498e-05
1.41649e-08
1.40175e-05
2.51028e-08
1.40835e-05
3.40511e-09
1.41446e-05
-4.34015e-08
1.4207e-05
-1.39302e-07
1.42682e-05
-2.52968e-07
1.43581e-05
-4.80433e-07
-7.27357e-07
1.44727e-05
2.60288e-05
6.87843e-07
2.64174e-05
8.59748e-07
2.686e-05
8.76681e-07
2.72302e-05
6.35182e-07
2.74105e-05
1.29514e-07
2.73386e-05
-5.04968e-07
2.70133e-05
-1.1649e-06
2.64668e-05
-1.74988e-06
2.57571e-05
-2.20385e-06
2.49461e-05
-2.51171e-06
2.4087e-05
-2.68842e-06
2.32278e-05
-2.75387e-06
2.2407e-05
-2.7425e-06
2.14084e-05
-3.50595e-06
2.04551e-05
-3.55909e-06
1.95966e-05
-3.5177e-06
1.88421e-05
-3.36732e-06
1.81627e-05
-3.08856e-06
1.7538e-05
-2.72578e-06
1.69809e-05
-2.334e-06
1.65068e-05
-1.89906e-06
1.6116e-05
-1.38968e-06
1.57911e-05
-8.28326e-07
1.55149e-05
-3.04332e-07
1.52814e-05
1.09856e-07
1.51059e-05
4.06454e-07
1.49934e-05
6.08927e-07
1.49381e-05
7.33012e-07
1.49173e-05
7.74641e-07
1.49037e-05
7.3229e-07
1.48769e-05
6.20241e-07
1.48287e-05
4.65818e-07
1.47631e-05
2.98948e-07
1.4691e-05
1.44898e-07
1.46222e-05
2.04751e-08
1.45625e-05
-6.70219e-08
1.45146e-05
-1.17523e-07
1.4478e-05
-1.33795e-07
1.44517e-05
-1.22438e-07
1.44345e-05
-9.19818e-08
1.44259e-05
-5.34149e-08
1.4424e-05
-1.50019e-08
1.44276e-05
1.05713e-08
1.44316e-05
2.11283e-08
1.44336e-05
1.41992e-09
1.44261e-05
-3.5945e-08
1.44153e-05
-1.28454e-07
1.43901e-05
-2.27851e-07
1.43921e-05
-4.82426e-07
-7.32398e-07
1.43972e-05
2.58276e-05
6.36351e-07
2.59572e-05
7.30138e-07
2.61146e-05
7.19345e-07
2.62054e-05
5.44402e-07
2.61349e-05
1.99972e-07
2.5868e-05
-2.38023e-07
2.53971e-05
-6.94044e-07
2.47544e-05
-1.10719e-06
2.399e-05
-1.43945e-06
2.31595e-05
-1.68124e-06
2.23093e-05
-1.83822e-06