/*--------------------------------*- C++ -*----------------------------------*\
| =========                 |                                                 |
| \\      /  F ield         | OpenFOAM: The Open Source CFD Toolbox           |
|  \\    /   O peration     | Version:  2112                                  |
|   \\  /    A nd           | Website:  www.openfoam.com                      |
|    \\/     M anipulation  |                                                 |
\*---------------------------------------------------------------------------*/
FoamFile
{
    version     2.0;
    format      ascii;
    arch        "LSB;label=32;scalar=64";
    class       volVectorField;
    location    "0.4";
    object      ddt0(U);
}
// * * * * * * * * * * * * * * * * * * * * * * * * * * * * * * * * * * * * * //

dimensions      [0 1 -2 0 0 0 0];

internalField   nonuniform List<vector> 
12225
(
(-0.0152989 0.00357678 0)
(-0.0544922 0.000738255 0)
(-0.0626491 -0.00846265 0)
(-0.00603353 -0.0191427 0)
(0.111596 -0.025829 0)
(0.260209 -0.0239983 0)
(0.402809 -0.0113456 0)
(0.50505 0.00877794 0)
(0.527111 0.0347514 0)
(0.432043 0.0703246 0)
(0.181287 0.120282 0)
(-0.272217 0.194467 0)
(-0.988862 0.300418 0)
(-1.98594 0.472006 0)
(-3.58734 0.482608 0)
(-5.6341 0.673494 0)
(-9.00777 1.71262 0)
(-15.0587 1.59063 0)
(-0.0065983 0.00996119 0)
(-0.0636504 0.0125378 0)
(-0.1545 0.000846683 0)
(-0.24479 -0.0186517 0)
(-0.304728 -0.0389139 0)
(-0.32151 -0.0536574 0)
(-0.299397 -0.0583777 0)
(-0.258536 -0.0483952 0)
(-0.221107 -0.018942 0)
(-0.217189 0.0331973 0)
(-0.284265 0.114056 0)
(-0.476165 0.234397 0)
(-0.854193 0.407945 0)
(-1.57986 0.674069 0)
(-2.69787 0.930147 0)
(-4.71308 1.44502 0)
(-7.53504 2.66665 0)
(-11.0253 4.38114 0)
(-0.00298428 0.0177305 0)
(-0.0569719 0.0322221 0)
(-0.140938 0.0292653 0)
(-0.250868 0.0155252 0)
(-0.384418 -0.00107069 0)
(-0.543321 -0.0159537 0)
(-0.714637 -0.0216033 0)
(-0.890088 -0.0116322 0)
(-1.07127 0.0184973 0)
(-1.26828 0.075571 0)
(-1.50121 0.169562 0)
(-1.80382 0.314684 0)
(-2.23167 0.533609 0)
(-2.85568 0.861756 0)
(-3.76718 1.43006 0)
(-5.14531 2.32308 0)
(-7.04998 3.57224 0)
(-10.0577 6.09006 0)
(-0.00404503 0.0249746 0)
(-0.0528588 0.0476076 0)
(-0.137057 0.0521308 0)
(-0.236864 0.0465966 0)
(-0.352765 0.0384921 0)
(-0.487346 0.035013 0)
(-0.64777 0.0419924 0)
(-0.83442 0.0644479 0)
(-1.04819 0.110542 0)
(-1.29743 0.187179 0)
(-1.59152 0.30994 0)
(-1.94488 0.501476 0)
(-2.37819 0.796598 0)
(-2.91493 1.25189 0)
(-3.57363 1.96171 0)
(-4.36432 3.01559 0)
(-5.24951 4.66156 0)
(-6.21552 7.00419 0)
(-0.00567403 0.0324153 0)
(-0.0492888 0.0643495 0)
(-0.131754 0.0748656 0)
(-0.229146 0.0752264 0)
(-0.338799 0.0734979 0)
(-0.461368 0.0775234 0)
(-0.600738 0.0926296 0)
(-0.759881 0.125505 0)
(-0.94226 0.18388 0)
(-1.15452 0.27821 0)
(-1.40713 0.423341 0)
(-1.70784 0.640111 0)
(-2.06329 0.960636 0)
(-2.47801 1.43618 0)
(-2.94449 2.14728 0)
(-3.43398 3.1949 0)
(-3.89351 4.71753 0)
(-4.1292 6.88684 0)
(-0.00621193 0.0396549 0)
(-0.0460967 0.0835806 0)
(-0.1246 0.100687 0)
(-0.219644 0.106257 0)
(-0.326053 0.109701 0)
(-0.444497 0.118503 0)
(-0.57422 0.139675 0)
(-0.716227 0.179698 0)
(-0.874129 0.246605 0)
(-1.05128 0.354103 0)
(-1.25328 0.51639 0)
(-1.48601 0.755498 0)
(-1.75545 1.10452 0)
(-2.06372 1.61222 0)
(-2.39679 2.34843 0)
(-2.71054 3.39672 0)
(-2.92095 4.85993 0)
(-2.83474 6.85702 0)
(-0.006247 0.0469282 0)
(-0.0431201 0.102506 0)
(-0.116602 0.127814 0)
(-0.207557 0.139893 0)
(-0.309919 0.148686 0)
(-0.42374 0.162587 0)
(-0.54641 0.189311 0)
(-0.676421 0.236261 0)
(-0.814023 0.312489 0)
(-0.961361 0.430184 0)
(-1.12215 0.605968 0)
(-1.30127 0.862999 0)
(-1.5022 1.23368 0)
(-1.72184 1.76209 0)
(-1.93945 2.50576 0)
(-2.10298 3.5291 0)
(-2.12166 4.90091 0)
(-1.8192 6.69546 0)
(-0.00617448 0.0542039 0)
(-0.0399398 0.121105 0)
(-0.108031 0.154412 0)
(-0.193875 0.173589 0)
(-0.290977 0.188608 0)
(-0.398523 0.207843 0)
(-0.513209 0.239089 0)
(-0.631767 0.290288 0)
(-0.753079 0.371 0)
(-0.876736 0.494513 0)
(-1.00287 0.677761 0)
(-1.13158 0.943187 0)
(-1.26009 1.32047 0)
(-1.37779 1.84687 0)
(-1.45846 2.5656 0)
(-1.45112 3.51804 0)
(-1.27111 4.73639 0)
(-0.800577 6.25545 0)
(-0.0060369 0.0613583 0)
(-0.0360756 0.139506 0)
(-0.0980921 0.18093 0)
(-0.178324 0.207211 0)
(-0.269668 0.2284 0)
(-0.36994 0.252475 0)
(-0.474986 0.287207 0)
(-0.580264 0.340877 0)
(-0.683108 0.423448 0)
(-0.781447 0.548042 0)
(-0.87235 0.731147 0)
(-0.950871 0.993899 0)
(-1.00757 1.36249 0)
(-1.02481 1.86694 0)
(-0.97199 2.53784 0)
(-0.802864 3.39937 0)
(-0.445239 4.46468 0)
(0.186364 5.71671 0)
(-0.00570844 0.0682697 0)
(-0.030888 0.1571 0)
(-0.0860478 0.207179 0)
(-0.160296 0.240954 0)
(-0.245658 0.268137 0)
(-0.338243 0.296264 0)
(-0.432747 0.333075 0)
(-0.523444 0.387009 0)
(-0.605813 0.46819 0)
(-0.675713 0.589248 0)
(-0.727674 0.765563 0)
(-0.753334 1.01576 0)
(-0.739117 1.36129 0)
(-0.663421 1.8246 0)
(-0.493734 2.42537 0)
(-0.184505 3.17496 0)
(0.312197 4.07316 0)
(1.06777 5.0932 0)
(-0.00456909 0.0747544 0)
(-0.0236283 0.173072 0)
(-0.0716595 0.232513 0)
(-0.139796 0.274428 0)
(-0.218814 0.307511 0)
(-0.303309 0.338807 0)
(-0.386973 0.375931 0)
(-0.462959 0.427262 0)
(-0.524965 0.50272 0)
(-0.566588 0.614188 0)
(-0.579954 0.775384 0)
(-0.554242 1.00172 0)
(-0.473736 1.30941 0)
(-0.315841 1.71347 0)
(-0.0498556 2.22422 0)
(0.363363 2.84268 0)
(0.963385 3.55624 0)
(1.80413 4.34983 0)
(-0.000801375 0.079528 0)
(-0.0151728 0.186095 0)
(-0.0572778 0.254911 0)
(-0.119588 0.304505 0)
(-0.192001 0.3426 0)
(-0.268393 0.375846 0)
(-0.341955 0.41154 0)
(-0.404949 0.457705 0)
(-0.449605 0.523675 0)
(-0.467659 0.620254 0)
(-0.449303 0.759313 0)
(-0.382055 0.953207 0)
(-0.249384 1.21362 0)
(-0.0294876 1.54959 0)
(0.305024 1.96456 0)
(0.786619 2.45341 0)
(1.44666 3.00104 0)
(2.32573 3.5872 0)
(0.00705104 0.080113 0)
(-0.00818615 0.19811 0)
(-0.0445474 0.277098 0)
(-0.0998875 0.3339 0)
(-0.164522 0.376494 0)
(-0.232123 0.411036 0)
(-0.295683 0.444142 0)
(-0.346743 0.483125 0)
(-0.37623 0.536404 0)
(-0.374274 0.613438 0)
(-0.329505 0.724116 0)
(-0.228326 0.877874 0)
(-0.0541347 1.08241 0)
(0.213217 1.34191 0)
(0.597132 1.65473 0)
(1.12342 2.01175 0)
(1.8151 2.3962 0)
(2.70227 2.78618 0)
(0.00658616 0.0789736 0)
(-0.00951012 0.207396 0)
(-0.035248 0.299316 0)
(-0.0793403 0.364512 0)
(-0.132613 0.412038 0)
(-0.188641 0.447507 0)
(-0.240383 0.476444 0)
(-0.278899 0.504922 0)
(-0.294036 0.539872 0)
(-0.274503 0.58892 0)
(-0.207627 0.65963 0)
(-0.079167 0.758425 0)
(0.12682 0.889303 0)
(0.427896 1.05238 0)
(0.842679 1.24229 0)
(1.38997 1.44751 0)
(2.08433 1.65111 0)
(2.94647 1.83198 0)
(-0.0022324 0.0855666 0)
(-0.0125631 0.217902 0)
(-0.0282125 0.31821 0)
(-0.0588104 0.392409 0)
(-0.0969709 0.445786 0)
(-0.137872 0.482303 0)
(-0.175347 0.505976 0)
(-0.200793 0.521013 0)
(-0.20382 0.532097 0)
(-0.172438 0.544366 0)
(-0.0932241 0.562739 0)
(0.0482157 0.590852 0)
(0.266622 0.629858 0)
(0.57651 0.677276 0)
(0.991548 0.725828 0)
(1.52402 0.763636 0)
(2.18111 0.775411 0)
(2.97585 0.742441 0)
(-0.00231746 0.089986 0)
(-0.0107215 0.226305 0)
(-0.0208568 0.332189 0)
(-0.0375161 0.413462 0)
(-0.0583224 0.472355 0)
(-0.08098 0.510166 0)
(-0.1015 0.528611 0)
(-0.113229 0.529266 0)
(-0.107411 0.51367 0)
(-0.073224 0.483564 0)
(0.00205444 0.440704 0)
(0.132149 0.386197 0)
(0.330375 0.319567 0)
(0.608498 0.237562 0)
(0.976176 0.133088 0)
(1.44071 -0.00381573 0)
(2.004 -0.184344 0)
(2.67267 -0.422036 0)
(-0.000870522 0.0938581 0)
(-0.00460588 0.234668 0)
(-0.00758119 0.34101 0)
(-0.0116869 0.423634 0)
(-0.0156788 0.485243 0)
(-0.0190314 0.523617 0)
(-0.0205581 0.537814 0)
(-0.0171125 0.52667 0)
(-0.00405587 0.48816 0)
(0.0250835 0.419784 0)
(0.0791007 0.319123 0)
(0.168659 0.184258 0)
(0.304678 0.0137514 0)
(0.49679 -0.194912 0)
(0.75246 -0.4472 0)
(1.07602 -0.750155 0)
(1.46733 -1.11088 0)
(1.92924 -1.53846 0)
(0.000365739 0.094014 0)
(0.00376164 0.234354 0)
(0.00993854 0.338276 0)
(0.0191323 0.418772 0)
(0.0316125 0.478391 0)
(0.0471801 0.514096 0)
(0.06599 0.524067 0)
(0.0880164 0.506052 0)
(0.112923 0.455991 0)
(0.140596 0.367964 0)
(0.172025 0.235152 0)
(0.210003 0.0520194 0)
(0.25953 -0.183956 0)
(0.32839 -0.474764 0)
(0.42373 -0.823865 0)
(0.543095 -1.23161 0)
(0.676324 -1.69377 0)
(0.814896 -2.20308 0)
(0.00184994 0.0877128 0)
(0.0137582 0.220107 0)
(0.0300618 0.319034 0)
(0.0510093 0.393104 0)
(0.0800234 0.443534 0)
(0.11537 0.469626 0)
(0.156479 0.471146 0)
(0.201917 0.447486 0)
(0.248931 0.396646 0)
(0.293553 0.314348 0)
(0.330762 0.193111 0)
(0.354983 0.0221922 0)
(0.364046 -0.211684 0)
(0.365371 -0.520774 0)
(0.36568 -0.894837 0)
(0.356155 -1.29206 0)
(0.318584 -1.70618 0)
(0.252184 -2.1459 0)
(0.00262887 0.0779834 0)
(0.0167405 0.195697 0)
(0.0396677 0.286068 0)
(0.0724265 0.348101 0)
(0.116144 0.383859 0)
(0.168371 0.395222 0)
(0.227681 0.383622 0)
(0.292345 0.349903 0)
(0.360331 0.294335 0)
(0.429628 0.216236 0)
(0.497646 0.112272 0)
(0.558407 -0.0278415 0)
(0.603122 -0.227639 0)
(0.624135 -0.512151 0)
(0.596745 -0.847357 0)
(0.547276 -1.15841 0)
(0.487618 -1.48886 0)
(0.395951 -1.86969 0)
(-0.0014752 0.0660757 0)
(0.0157975 0.172295 0)
(0.0409308 0.251487 0)
(0.0845105 0.298525 0)
(0.141086 0.319511 0)
(0.206425 0.317923 0)
(0.278454 0.295424 0)
(0.355134 0.252414 0)
(0.434653 0.188187 0)
(0.515929 0.101123 0)
(0.597895 -0.00977363 0)
(0.676399 -0.141475 0)
(0.74207 -0.292476 0)
(0.76769 -0.48658 0)
(0.681707 -0.744014 0)
(0.565908 -1.00987 0)
(0.47818 -1.29508 0)
(0.347446 -1.61401 0)
(-0.00190425 0.0637103 0)
(0.0156329 0.15841 0)
(0.0481724 0.216002 0)
(0.100325 0.245199 0)
(0.165424 0.25198 0)
(0.239467 0.238907 0)
(0.320504 0.20696 0)
(0.406241 0.155864 0)
(0.494104 0.0847 0)
(0.580688 -0.00735016 0)
(0.659549 -0.119395 0)
(0.720832 -0.240739 0)
(0.762071 -0.339911 0)
(0.771962 -0.41322 0)
(0.658903 -0.580513 0)
(0.523607 -0.839735 0)
(0.386752 -1.06488 0)
(0.230849 -1.31925 0)
(0.00431184 0.0561472 0)
(0.0223021 0.134652 0)
(0.0606184 0.177181 0)
(0.11843 0.193039 0)
(0.188273 0.187729 0)
(0.267303 0.163952 0)
(0.353191 0.123026 0)
(0.441722 0.0654246 0)
(0.527286 -0.00741433 0)
(0.602483 -0.0917943 0)
(0.656973 -0.182773 0)
(0.679006 -0.27442 0)
(0.67061 -0.344047 0)
(0.649659 -0.357875 0)
(0.590016 -0.388914 0)
(0.446992 -0.614128 0)
(0.272005 -0.857116 0)
(0.103185 -1.04816 0)
(0.00520824 0.0466606 0)
(0.0263169 0.111441 0)
(0.0706857 0.141354 0)
(0.133717 0.145192 0)
(0.207219 0.128616 0)
(0.288375 0.0957057 0)
(0.372707 0.0496284 0)
(0.452899 -0.00715805 0)
(0.520526 -0.070719 0)
(0.566828 -0.135443 0)
(0.584567 -0.196413 0)
(0.569239 -0.252828 0)
(0.526077 -0.300234 0)
(0.477074 -0.317138 0)
(0.430859 -0.315006 0)
(0.336643 -0.392472 0)
(0.21298 -0.625037 0)
(0.0518275 -0.844353 0)
(0.0049087 0.0380963 0)
(0.0282334 0.0889227 0)
(0.0785128 0.106519 0)
(0.146345 0.0994013 0)
(0.221433 0.0745565 0)
(0.299509 0.0380807 0)
(0.374056 -0.00551147 0)
(0.437652 -0.0536499 0)
(0.482577 -0.102485 0)
(0.502944 -0.14732 0)
(0.497155 -0.185873 0)
(0.46774 -0.219841 0)
(0.420861 -0.25081 0)
(0.371495 -0.268619 0)
(0.335391 -0.276857 0)
(0.292212 -0.330711 0)
(0.207046 -0.473579 0)
(0.118654 -0.676801 0)
(0.00458767 0.0305081 0)
(0.0298906 0.0658051 0)
(0.0858918 0.0720147 0)
(0.15557 0.0589345 0)
(0.227741 0.0320792 0)
(0.298241 -0.00316862 0)
(0.361329 -0.0422514 0)
(0.412481 -0.0818444 0)
(0.443528 -0.117762 0)
(0.457956 -0.149662 0)
(0.457099 -0.176521 0)
(0.444741 -0.199746 0)
(0.42461 -0.222742 0)
(0.403318 -0.241857 0)
(0.393035 -0.259282 0)
(0.391015 -0.303436 0)
(0.367872 -0.410784 0)
(0.30161 -0.566907 0)
(0.00356944 0.023137 0)
(0.0320007 0.0455259 0)
(0.0915841 0.0455442 0)
(0.158928 0.0282369 0)
(0.226155 -0.000678945 0)
(0.291887 -0.0358751 0)
(0.354963 -0.0720265 0)
(0.412562 -0.108159 0)
(0.456937 -0.137594 0)
(0.497012 -0.158696 0)
(0.533424 -0.177361 0)
(0.567032 -0.195118 0)
(0.597449 -0.214791 0)
(0.625655 -0.237126 0)
(0.653118 -0.263806 0)
(0.69151 -0.309539 0)
(0.72301 -0.396774 0)
(0.72034 -0.522192 0)
(0.0016662 0.016184 0)
(0.0376261 0.029138 0)
(0.0963151 0.0237335 0)
(0.160834 0.0013724 0)
(0.233985 -0.0320685 0)
(0.31849 -0.071813 0)
(0.412172 -0.111878 0)
(0.499877 -0.145879 0)
(0.588752 -0.175367 0)
(0.655984 -0.198343 0)
(0.696831 -0.216171 0)
(0.710523 -0.230645 0)
(0.696658 -0.244723 0)
(0.655515 -0.261455 0)
(0.588611 -0.286237 0)
(0.49592 -0.329075 0)
(0.36984 -0.398651 0)
(0.194317 -0.492487 0)
(0.00374908 0.00791578 0)
(0.0435571 0.00858629 0)
(0.108055 -0.00503909 0)
(0.180955 -0.0320149 0)
(0.235754 -0.0683165 0)
(0.250159 -0.107634 0)
(0.210387 -0.142452 0)
(0.111717 -0.169571 0)
(-0.0435839 -0.187614 0)
(-0.246476 -0.196244 0)
(-0.484574 -0.198076 0)
(-0.748008 -0.196654 0)
(-1.02743 -0.193825 0)
(-1.32176 -0.190171 0)
(-1.63062 -0.189905 0)
(-1.95791 -0.200017 0)
(-2.31387 -0.226128 0)
(-2.71438 -0.265362 0)
(0.00915592 0.00278285 0)
(0.0297114 -0.00106399 0)
(0.0192188 -0.0128554 0)
(-0.0595311 -0.0302227 0)
(-0.222698 -0.0500479 0)
(-0.464889 -0.0662571 0)
(-0.761949 -0.0726031 0)
(-1.08218 -0.0677964 0)
(-1.39874 -0.0542668 0)
(-1.69172 -0.0351795 0)
(-1.95072 -0.0151092 0)
(-2.17161 0.00538753 0)
(-2.35998 0.0228347 0)
(-2.51848 0.0337553 0)
(-2.65628 0.0385109 0)
(-2.78914 0.0337924 0)
(-2.93913 0.018042 0)
(-3.12837 -0.00638287 0)
(-1.31588 2.35577 1.12849e-18)
(-3.08208 2.72265 -1.10468e-18)
(-5.69645 2.90467 0)
(-8.31159 3.04772 0)
(-11.0027 3.15152 0)
(-13.5466 3.51548 1.06539e-18)
(-16.1555 3.52864 0)
(-18.8271 3.24609 0)
(-21.1553 3.09238 0)
(-23.328 2.89106 0)
(-25.3714 2.77481 -1.03026e-18)
(-27.3787 2.72934 0)
(-29.5121 2.70869 0)
(-31.8519 2.65327 0)
(-34.412 2.61179 0)
(-37.3133 2.99396 -9.99496e-19)
(-40.562 3.45576 0)
(-44.2233 3.88749 0)
(-48.2819 4.30846 0)
(-52.743 4.78516 0)
(-57.6366 5.40413 0)
(-63.1893 6.29451 0)
(-68.7715 7.70161 0)
(-76.9162 9.12511 -9.82988e-19)
(-85.1539 10.4126 9.79309e-19)
(-93.9158 11.6192 -9.76111e-19)
(-103.401 12.4332 -9.7232e-19)
(-113.677 12.4135 0)
(-123.396 8.85788 0)
(-131.976 3.22497 9.53497e-19)
(-139.075 -1.18458 9.43817e-19)
(-143.345 -6.52504 0)
(-143.808 -12.8732 0)
(-139.203 -19.302 8.93302e-19)
(-128.687 -24.5271 0)
(-112.411 -27.5792 0)
(-91.9112 -28.5104 -7.87447e-19)
(-68.5018 -28.7985 0)
(-44.26 -28.2641 -6.9119e-19)
(-22.318 -22.3477 -1.28729e-18)
(-5.91379 -6.65069 0)
(-0.472896 6.57127 0)
(-3.77508 11.0169 0)
(-10.0263 13.807 0)
(-19.2509 17.8037 0)
(-32.7869 22.5126 -5.77244e-19)
(-52.2691 28.0144 -4.40882e-19)
(-79.3029 34.2772 -2.99741e-19)
(-115.093 40.8575 0)
(-160.149 47.0438 1.79018e-20)
(-215.461 51.4981 0)
(-279.842 56.0999 3.70811e-19)
(-354.078 63.225 8.19388e-19)
(-420.624 54.4928 0)
(-492.855 51.5672 0)
(-564.22 50.0183 0)
(-634.354 47.7352 1.5246e-18)
(-701.439 43.5091 0)
(-762.886 36.7257 0)
(-815.502 27.3691 0)
(-856.553 16.3054 0)
(-883.777 6.0803 0)
(-896.71 -0.850616 0)
(-899.063 -5.64129 0)
(-888.529 -11.9305 0)
(-859.835 -20.26 -4.75268e-19)
(-817.876 -26.9186 0)
(-765.086 -33.1007 0)
(-703.714 -41.1815 -4.4225e-19)
(-635.034 -46.7646 -6.67638e-19)
(-561.14 -48.7651 0)
(-485.202 -51.9299 1.01064e-18)
(-405.892 -59.8453 -1.1283e-18)
(-320.798 -73.7517 0)
(-227.067 -84.3906 1.28527e-18)
(-126.982 -70.4503 0)
(-41.1659 -24.6257 0)
(-0.662453 24.9114 -1.41879e-18)
(7.38412 48.2696 0)
(-1.50241 44.5966 1.46611e-18)
(-20.2859 29.0587 0)
(-41.5339 14.6287 -1.53535e-18)
(-60.7901 3.68807 -1.56428e-18)
(-72.0486 -9.85494 -1.60226e-18)
(-64.1389 -42.3834 -3.28315e-18)
(6.28907 -90.8594 3.25384e-18)
(158.159 -111.143 0)
(309.96 -82.282 0)
(424.482 -28.3833 0)
(499.934 16.4571 4.13092e-18)
(602.906 -7.43889 4.49093e-18)
(775.437 -74.5308 -4.98489e-18)
(978.582 -98.493 0)
(1168.27 -103.341 6.2963e-18)
(1329.72 -100.322 7.97178e-18)
(1451.63 -86.8492 8.74329e-18)
(1523.84 -65.8698 0)
(1549.91 -42.7135 0)
(1536.35 -20.9382 0)
(1491.2 -1.78674 8.37412e-18)
(1421.12 14.6966 0)
(1331.12 28.2774 0)
(1223.7 43.5857 -6.2881e-18)
(1099.88 60.805 0)
(958.46 83.5044 0)
(801.427 100.139 -3.29141e-18)
(632.497 104.517 0)
(452.782 105.139 0)
(260.405 92.9606 -3.85447e-19)
(105.46 82.5728 -1.37774e-18)
(-40.2155 75.1825 0)
(-173.936 67.6065 3.20145e-18)
(-293.888 59.0205 0)
(-396.515 49.1581 -4.49664e-18)
(-478.983 38.2172 0)
(-539.336 26.6375 -5.00596e-18)
(-576.49 14.8232 -4.95386e-18)
(-590.038 3.19749 0)
(-580.989 -7.61204 0)
(-551.402 -17.3337 0)
(-503.833 -25.9612 0)
(-441.364 -33.124 0)
(-367.202 -38.7392 0)
(-285.02 -42.2159 0)
(-199.361 -42.3955 -1.84994e-19)
(-116.258 -38.38 -4.52123e-19)
(-41.0345 -32.9437 0)
(24.8945 -27.4971 0)
(82.5421 -23.002 0)
(133.631 -20.3049 0)
(173.64 -15.1297 -4.44458e-18)
(201.32 -6.51537 0)
(213.641 -7.42623 3.80409e-18)
(211.705 -3.12286 -4.01009e-18)
(210.993 5.4738 0)
(199.891 10.698 0)
(182.047 14.6861 0)
(157.5 17.0173 3.33145e-18)
(127.862 17.8571 3.08632e-18)
(95.2156 17.4586 0)
(61.8059 16.0494 2.61368e-18)
(29.671 13.7651 2.40237e-18)
(0.817811 10.7162 -2.21386e-18)
(-23.7042 7.42036 0)
(-43.4728 4.22774 0)
(-57.9107 1.32156 -1.80393e-18)
(-66.5231 -1.26351 0)
(-69.0912 -3.4078 0)
(-65.9466 -4.78645 0)
(-57.6749 -5.03762 0)
(-45.3765 -3.34875 1.41345e-18)
(-29.2905 -0.829543 1.27306e-18)
(-11.4121 -6.22583 0)
(3.63004 -5.44538 1.28868e-18)
(17.9557 -2.91667 0)
(30.8284 -0.717121 0)
(42.1394 1.2537 1.08163e-18)
(51.8226 2.98255 0)
(59.8669 4.90704 9.56033e-19)
(66.2515 6.90158 0)
(70.5486 6.70332 0)
(73.5083 4.94842 7.74733e-19)
(76.3973 2.54857 0)
(79.326 0.0466955 6.94256e-19)
(81.3517 -1.84533 0)
(80.5849 -2.13262 0)
(73.7967 0.655518 0)
(58.7955 4.26486 -6.4752e-19)
(33.5098 6.50289 0)
(-1.77886 8.50205 6.35279e-19)
(-43.52 9.36317 0)
(-83.2099 11.784 0)
(-115.721 10.8994 0)
(-123.948 -0.924919 0)
(-91.0668 -21.7645 0)
(-9.1155 -34.6253 0)
(102.901 -46.5307 0)
(231.919 -50.7242 -2.47808e-18)
(358.137 -34.0647 0)
(453.902 -14.3846 0)
(-1.50859 6.69568 -3.36237e-18)
(-3.33333 7.62211 3.28929e-18)
(-5.95446 7.9524 0)
(-8.33959 8.08154 -2.15523e-18)
(-10.4953 7.96529 0)
(-12.3473 7.64923 -1.05616e-18)
(-13.8535 7.32433 2.09115e-18)
(-15.1256 6.81452 2.06973e-18)
(-16.1156 6.23612 0)
(-17.1211 5.62208 2.0289e-18)
(-18.3529 5.22074 1.00558e-18)
(-19.764 5.46616 0)
(-21.5386 6.09816 0)
(-23.6697 6.96696 0)
(-26.5337 7.83754 0)
(-29.7028 8.70353 9.68849e-19)
(-32.9768 9.66062 0)
(-36.7305 10.6271 -1.92544e-18)
(-40.8313 11.5958 0)
(-45.2145 12.5795 0)
(-49.8408 13.6203 1.91615e-18)
(-54.5466 14.7829 0)
(-59.7345 16.2358 -1.90656e-18)
(-63.4841 17.8604 9.59565e-19)
(-68.0558 19.5787 -9.56427e-19)
(-73.4294 21.4989 9.53127e-19)
(-79.7907 23.6017 9.49042e-19)
(-87.5651 25.5137 0)
(-97.4253 26.432 0)
(-109.761 26.0156 -9.27769e-19)
(-124.933 23.5345 9.37265e-19)
(-142.289 18.1764 0)
(-161.055 9.42568 0)
(-180.056 -2.50284 -8.66677e-19)
(-197.581 -16.3272 0)
(-211.639 -29.7373 0)
(-220.806 -40.187 7.84426e-19)
(-225.17 -45.378 0)
(-225.819 -43.4995 -7.18647e-19)
(-225.118 -35.8476 1.27404e-18)
(-222.893 -21.8253 0)
(-219.598 -4.32266 0)
(-217.683 8.32354 1.91074e-18)
(-218.285 16.1033 1.66898e-18)
(-221.871 23.3721 1.41446e-18)
(-229.085 32.9 -5.83623e-19)
(-240.973 45.6058 4.3193e-19)
(-259.387 60.9608 8.63505e-19)
(-285.78 77.81 -2.67141e-19)
(-320.577 94.7682 -1.06424e-20)
(-360.7 110.006 0)
(-404.613 121.101 -3.80801e-19)
(-475.588 125.939 3.85433e-19)
(-566.893 138.175 0)
(-641.783 143.552 0)
(-724.265 144.073 0)
(-808.208 139.93 -1.52507e-18)
(-889.732 130.992 0)
(-965.297 116.413 3.74265e-18)
(-1032.42 95.6154 0)
(-1088.74 72.1031 3.76158e-18)
(-1131.75 45.7093 0)
(-1154.73 17.9605 -3.32614e-18)
(-1155.83 -10.8666 0)
(-1133.63 -42.1655 1.94865e-18)
(-1090.05 -69.4541 -5.27755e-19)
(-1028.29 -92.137 0)
(-951.336 -109.423 2.98838e-19)
(-863.364 -121.735 4.43393e-19)
(-768.301 -130.331 6.58492e-19)
(-670.312 -134.637 0)
(-572.54 -136.574 9.72185e-19)
(-477.667 -137.977 1.08874e-18)
(-391.241 -136.836 0)
(-318.8 -136.651 -1.24764e-18)
(-264.071 -133.776 2.62723e-18)
(-214.186 -117.534 0)
(-138.948 -85.3172 1.39492e-18)
(-51.0081 -47.2174 0)
(24.2113 -12.1822 -4.31158e-18)
(76.3655 15.3061 0)
(102.706 29.7717 4.45414e-18)
(105.038 30.1174 1.51678e-18)
(98.5806 10.4116 -1.55737e-18)
(111.776 -46.2498 -3.10705e-18)
(158.606 -139.527 3.24971e-18)
(261.014 -217.761 0)
(468.886 -226.294 0)
(720.387 -193.637 0)
(976.891 -203.521 -1.23193e-17)
(1253.93 -277.671 -4.37212e-18)
(1544.63 -332.803 5.00753e-18)
(1798.49 -324.98 0)
(1964.51 -267.163 8.04768e-18)
(2032.4 -185.879 -8.04603e-18)
(2010.34 -97.4691 -8.34709e-18)
(1918.84 -16.1222 0)
(1782.33 49.7991 0)
(1621.22 98.5472 0)
(1449.88 132.316 -8.02715e-18)
(1277.48 155.24 0)
(1108.92 170.756 1.39515e-17)
(946.496 181.543 1.85797e-17)
(791.116 190.431 -1.07122e-17)
(644.41 196.924 0)
(505.166 201.793 -3.40754e-18)
(373.901 205.481 0)
(253.749 204.154 -2.63992e-18)
(146.024 192.961 8.70364e-19)
(11.4655 181.451 -9.85612e-19)
(-122.044 169.045 0)
(-247.534 152.877 -9.37875e-18)
(-359.231 132.709 7.76175e-18)
(-453.107 108.759 4.36096e-18)
(-525.981 82.1593 0)
(-576.345 54.3464 4.85587e-18)
(-603.359 26.1521 1.47266e-17)
(-606.645 -1.35227 0)
(-588.403 -26.403 8.74155e-18)
(-549.945 -48.4847 7.70965e-18)
(-495.455 -65.4571 6.47802e-18)
(-426.798 -78.926 0)
(-348.342 -88.2662 0)
(-264.135 -92.7292 0)
(-178.09 -92.1009 -3.21893e-19)
(-93.6514 -86.1656 3.5025e-19)
(-14.4279 -76.8566 0)
(57.3619 -67.5526 2.39912e-18)
(120.719 -59.209 3.16771e-18)
(171.005 -48.3294 0)
(208.302 -35.5841 4.08466e-18)
(234.867 -20.1786 7.36084e-18)
(249.306 -5.208 -3.62079e-18)
(258.42 0.797169 -3.85696e-18)
(252.412 5.76263 0)
(237.754 11.3899 0)
(215.506 17.4932 0)
(187.036 23.15 -3.18761e-18)
(153.899 27.3339 3.03881e-18)
(117.918 29.4825 5.54678e-18)
(81.0663 29.549 -2.52446e-18)
(45.3139 27.9116 2.36592e-18)
(12.1473 24.997 2.13699e-18)
(-17.5216 21.1088 0)
(-42.5381 16.5643 0)
(-61.6779 11.6651 -1.72932e-18)
(-74.2371 6.56985 0)
(-79.8126 1.52631 0)
(-78.5509 -3.27145 2.96831e-18)
(-70.569 -7.69396 0)
(-56.1329 -11.2672 1.43229e-18)
(-41.4771 -13.8643 -1.22251e-18)
(-25.3606 -12.8354 0)
(-3.82664 -13.1776 1.28218e-18)
(15.5904 -12.6738 0)
(32.0939 -12.1472 0)
(47.4747 -11.3767 -1.07813e-18)
(59.1936 -10.3059 2.07441e-18)
(67.5053 -8.86487 -9.59163e-19)
(72.5034 -6.91251 0)
(74.7734 -5.74691 0)
(75.3201 -5.02147 8.16365e-19)
(75.4494 -4.06789 0)
(75.8139 -2.44386 7.0069e-19)
(76.2435 0.126931 0)
(75.6589 3.89693 0)
(72.1075 8.81552 0)
(62.0559 14.8756 5.96781e-19)
(42.2301 22.0067 0)
(9.31355 27.6788 -5.85224e-19)
(-35.7718 29.0365 0)
(-85.306 25.0472 0)
(-118.654 11.7356 9.68815e-19)
(-125.117 -9.34053 -8.4108e-19)
(-89.6614 -38.1389 0)
(-11.6227 -60.8997 0)
(115.337 -76.8771 0)
(270.253 -81.278 7.69256e-18)
(434.619 -75.6269 0)
(562.387 -67.9824 -7.63653e-18)
(-1.39397 11.7738 1.26601e-21)
(-2.87256 12.8476 -4.36322e-18)
(-4.76682 12.7467 0)
(-6.03193 12.162 4.28996e-18)
(-6.68627 11.1675 0)
(-6.79315 9.92777 0)
(-6.46831 8.66202 -9.56135e-22)
(-5.97368 7.59545 -2.05212e-18)
(-5.48086 6.95095 -2.02801e-18)
(-5.21675 7.0108 -2.00759e-18)
(-5.83392 7.69918 0)
(-7.02025 8.79721 0)
(-8.46994 10.1857 1.95284e-18)
(-10.5158 11.8473 3.87914e-18)
(-13.0697 13.6291 -3.85748e-18)
(-16.128 15.1733 0)
(-19.6591 16.6995 -3.82896e-18)
(-23.5589 18.2159 1.90713e-18)
(-27.7209 19.66 0)
(-32.0539 20.988 -3.81731e-18)
(-36.4716 22.1958 -1.90165e-18)
(-40.8776 23.3144 3.82038e-18)
(-45.2191 24.3424 1.89474e-18)
(-49.31 25.5788 0)
(-52.9768 27.3607 -3.81516e-18)
(-56.2823 29.727 -3.81461e-18)
(-59.1022 32.7706 0)
(-61.6964 36.5114 -3.78526e-18)
(-64.7754 40.64 0)
(-69.3225 44.6587 -3.72929e-18)
(-76.441 47.788 -1.83114e-18)
(-87.2579 48.7478 0)
(-102.839 46.0616 0)
(-123.771 38.6335 0)
(-149.644 26.3555 0)
(-178.785 10.5371 0)
(-208.455 -6.07718 0)
(-235.709 -19.6977 -3.09303e-18)
(-258.116 -27.0238 4.29933e-18)
(-274.223 -26.6945 0)
(-282.744 -19.8239 0)
(-283.417 -9.93267 0)
(-277.724 -0.23139 2.78282e-20)
(-269.523 9.20734 -1.67572e-18)
(-262.96 21.3973 -2.85065e-18)
(-262.023 38.0182 2.30384e-18)
(-270.6 60.7499 8.40135e-19)
(-292.203 90.4596 -5.67165e-19)
(-329.069 124.56 1.38724e-19)
(-381.737 159.21 2.94094e-19)
(-451.097 191.389 0)
(-537.522 217.295 6.79488e-19)
(-614.993 233.495 -8.02308e-19)
(-703.02 257.781 0)
(-814.952 273.523 0)
(-923.479 276.488 -2.90686e-18)
(-1030.42 269.334 0)
(-1133.79 252.905 0)
(-1230.38 227.437 4.49339e-18)
(-1320.1 194.844 8.50514e-18)
(-1399.26 153.845 -3.83745e-18)
(-1462.68 102.922 0)
(-1507.5 44.8356 3.47118e-18)
(-1529.39 -16.9962 0)
(-1525.74 -79.7004 2.46653e-18)
(-1490.41 -138.978 7.45931e-19)
(-1422.78 -188.747 -8.06131e-19)
(-1325.5 -227.383 2.86847e-20)
(-1204.54 -254.38 0)
(-1068.28 -269.726 -2.57479e-18)
(-924.985 -274.477 0)
(-781.28 -271.372 -5.96516e-18)
(-647.026 -265.734 -4.36565e-18)
(-520.589 -256.317 -4.64987e-18)
(-401.376 -232.571 4.87753e-18)
(-295.187 -201.562 -7.58484e-18)
(-206.05 -174.093 0)
(-130.552 -153.102 0)
(-59.6912 -130.616 5.36605e-18)
(15.7344 -98.8021 8.56568e-18)
(89.5018 -57.0999 0)
(147.832 -16.0441 -2.93788e-18)
(185.708 8.10548 0)
(213.293 -11.4219 9.28062e-18)
(264.202 -99.7702 -1.29196e-19)
(371.59 -254.368 1.47231e-19)
(547.246 -417.83 -7.0013e-18)
(792.921 -503.488 0)
(1096.91 -507.842 6.63678e-18)
(1433.69 -525.696 -1.42611e-18)
(1761.84 -581.875 0)
(2008.32 -575.449 0)
(2114.25 -460.662 0)
(2091.82 -293.271 -1.44033e-17)
(1971.79 -117.926 0)
(1795.06 33.7864 0)
(1599.66 147.283 0)
(1411.5 221.8 0)
(1243.38 264.858 0)
(1097.84 286.692 -1.60996e-17)
(971.594 296.435 0)
(858.191 300.926 -1.38225e-17)
(751.054 304.462 -1.23167e-17)
(644.96 308.366 1.06096e-17)
(536.112 312.554 0)
(421.427 315.868 6.62558e-18)
(298.13 316.291 0)
(166.076 313.686 2.48922e-18)
(29.7757 311.806 -3.73485e-19)
(-110.471 301.484 6.96974e-18)
(-245.173 282.278 0)
(-370.705 255.172 1.90353e-17)
(-481.966 220.39 8.2765e-18)
(-574.236 179.014 0)
(-644.114 133.246 1.98756e-17)
(-690.066 85.76 2.05995e-17)
(-710.129 37.7017 -3.03164e-17)
(-705.111 -8.87531 0)
(-677.811 -49.0979 -8.70384e-18)
(-629.636 -85.1632 -7.72042e-18)
(-562.786 -116.022 -2.02244e-17)
(-479.591 -138.695 0)
(-386.866 -153.569 0)
(-289.693 -160.195 0)
(-191.902 -159.279 -3.74815e-19)
(-97.1002 -149.962 0)
(-8.80137 -134.973 0)
(70.4044 -117.525 -2.25568e-18)
(136.633 -99.2021 -2.88145e-18)
(188.479 -79.2244 0)
(226.865 -57.2722 0)
(253.192 -34.942 -7.09817e-18)
(268.221 -15.5018 0)
(272.17 1.18556 7.23046e-18)
(265.247 16.3821 7.29322e-18)
(249.034 29.8019 0)
(225.748 41.1614 0)
(196.893 49.9525 -6.32801e-18)
(164.126 55.6299 5.36008e-20)
(128.948 57.9544 4.30608e-20)
(92.7997 57.0384 0)
(57.1232 53.327 -9.18316e-18)
(23.0459 47.6196 0)
(-7.98964 40.4884 0)
(-34.4326 32.0892 0)
(-55.3196 22.5744 3.40475e-18)
(-70.1708 12.3796 0)
(-78.85 2.11058 -6.1223e-18)
(-81.2015 -7.61049 -2.91303e-18)
(-77.5444 -16.1222 0)
(-68.6592 -23.0057 -2.71043e-18)
(-52.0449 -27.883 0)
(-32.0107 -26.543 0)
(-11.367 -25.5814 -7.43182e-18)
(13.7635 -23.9858 4.67553e-18)
(37.7118 -20.5969 0)
(57.4555 -16.5634 4.25547e-18)
(72.4502 -12.7431 -2.04232e-18)
(82.462 -9.08505 0)
(87.8764 -6.10534 0)
(91.2464 -3.09434 0)
(90.9145 -1.13192 -4.89271e-18)
(87.7554 -0.532497 0)
(83.0512 -0.281887 -1.46207e-18)
(77.4844 0.930113 0)
(71.0413 4.41061 0)
(62.918 11.1902 0)
(51.41 21.2842 0)
(34.7224 33.8749 0)
(12.2636 46.4151 0)
(-14.5354 53.3874 -1.5536e-18)
(-42.8838 46.3773 0)
(-66.1402 24.281 -9.48549e-19)
(-72.262 -13.4817 3.26034e-18)
(-40.3889 -57.8505 0)
(40.3133 -116.777 0)
(166.281 -153.311 -4.58544e-18)
(319.531 -164.424 -5.29216e-18)
(483.225 -149.138 7.10022e-18)
(620.731 -119.059 7.6302e-18)
(-0.679564 15.403 6.66069e-18)
(-1.30906 15.7896 6.51109e-18)
(-1.43878 14.4145 4.30889e-18)
(-0.716816 12.2644 2.13162e-18)
(0.73353 9.77158 0)
(2.65887 7.44406 -4.16668e-18)
(4.6977 5.73259 2.0552e-18)
(6.47325 4.91744 0)
(7.69511 5.13253 2.01068e-18)
(8.24314 6.42429 0)
(8.09614 8.49683 -3.93343e-18)
(7.22528 10.7787 0)
(5.65912 13.3085 -1.93735e-18)
(3.45204 15.9905 -3.85048e-18)
(0.713156 18.6974 3.83158e-18)
(-2.47362 21.2744 0)
(-6.02022 23.6106 3.80881e-18)
(-9.79008 25.6374 0)
(-13.637 27.3205 0)
(-17.4322 28.6597 3.80665e-18)
(-21.0686 29.6881 0)
(-24.4546 30.4707 2.75249e-20)
(-27.5224 31.0969 0)
(-30.2122 31.7008 0)
(-32.4677 32.3991 -7.55275e-20)
(-34.1796 33.4585 3.81571e-18)
(-35.2031 35.1709 3.84431e-18)
(-35.4721 37.8652 3.77985e-18)
(-35.0431 41.8504 0)
(-34.2042 47.3028 7.46611e-18)
(-33.6006 54.0452 0)
(-34.3599 61.2573 3.657e-18)
(-38.082 67.3975 0)
(-46.5676 70.4199 0)
(-61.2568 68.3248 -3.45544e-18)
(-82.5792 59.9967 0)
(-109.419 45.9957 3.25016e-18)
(-138.981 28.8045 -8.10155e-20)
(-167.128 12.1807 -5.8277e-18)
(-189.598 -0.480709 5.57381e-18)
(-204.934 -7.90204 0)
(-211.757 -10.0924 0)
(-210.525 -9.65194 2.12063e-18)
(-206.064 -2.69061 0)
(-204.3 15.6086 1.43457e-18)
(-212.992 48.2734 -1.15121e-18)
(-239.968 94.5665 -8.36955e-19)
(-285.785 149.996 0)
(-347.049 207.669 1.1044e-19)
(-421.701 262.968 -2.99772e-19)
(-507.899 313.84 2.22947e-18)
(-603.952 359.737 -6.72673e-19)
(-704.727 400.115 -4.39873e-19)
(-805.772 419.833 0)
(-911.604 430.068 0)
(-1026.69 430.878 2.84405e-18)
(-1139.09 419.042 0)
(-1249.75 394.838 0)
(-1356.82 359.381 -8.08589e-18)
(-1457.8 312.87 -8.42475e-18)
(-1552.19 253.301 0)
(-1637.05 181.787 0)
(-1710.29 99.2492 0)
(-1768.31 7.00554 0)
(-1806.81 -92.426 -6.09273e-18)
(-1820.79 -193.587 6.03383e-18)
(-1800.13 -290.404 2.4144e-18)
(-1735.63 -371.752 -4.72019e-19)
(-1626.24 -429.943 0)
(-1477.86 -463.633 3.91233e-19)
(-1302.33 -474.022 0)
(-1113.5 -464.463 4.19986e-18)
(-925.165 -441.789 8.25849e-21)
(-754.201 -418.617 4.72672e-18)
(-593.932 -393.513 -4.85867e-18)
(-435.44 -352.049 -1.10704e-19)
(-287.641 -300.855 0)
(-160.474 -252.885 -5.04144e-18)
(-56.0162 -213.242 -5.25076e-18)
(32.3041 -175.49 -1.13955e-17)
(111.199 -130.285 0)
(179.998 -77.0596 5.85597e-18)
(238.62 -42.0083 0)
(304.328 -75.2938 -1.24926e-17)
(413.863 -216.354 6.25366e-18)
(596.043 -446.02 -6.81748e-18)
(844.376 -677.951 6.95872e-18)
(1135.83 -815.803 1.47356e-17)
(1460.03 -855.32 -6.69659e-18)
(1787.96 -865.395 9.04589e-18)
(2027.34 -828.282 0)
(2089.31 -661.261 -2.87043e-17)
(1998.72 -407.22 0)
(1813.42 -141.03 -3.33365e-17)
(1593.4 81.8864 3.47e-17)