/*--------------------------------*- C++ -*----------------------------------*\
| =========                 |                                                 |
| \\      /  F ield         | OpenFOAM: The Open Source CFD Toolbox           |
|  \\    /   O peration     | Version:  2112                                  |
|   \\  /    A nd           | Website:  www.openfoam.com                      |
|    \\/     M anipulation  |                                                 |
\*---------------------------------------------------------------------------*/
FoamFile
{
    version     2.0;
    format      ascii;
    arch        "LSB;label=32;scalar=64";
    class       volScalarField;
    location    "0.4";
    object      omega;
}
// * * * * * * * * * * * * * * * * * * * * * * * * * * * * * * * * * * * * * //

dimensions      [0 0 -1 0 0 0 0];

internalField   nonuniform List<scalar> 
12225
(
11261.2
15967.5
17332.4
17290
16741.5
16065.5
15412.2
14836
14348.6
13942.2
13601.9
13313.4
13065.2
12849.8
12661.9
12502.8
12355.4
12181.9
898.27
2112.71
3148.74
3938.16
4496.14
4870.38
5109.85
5253.69
5331.07
5363.3
5365.42
5347.88
5317.75
5279.53
5235.74
5189.51
5157.11
5126.99
60.2298
215.708
436.355
687.428
933.534
1151.81
1333.99
1481.94
1602.37
1702.96
1790.1
1868.53
1941.23
2009.77
2074.57
2135.64
2191.19
2231.56
10.9058
25.0117
53.1944
96.0237
150.067
208.829
266.959
321.299
370.664
415.858
457.631
496.517
532.793
566.516
597.441
625.018
648.086
663.199
8.12959
9.32151
12.3018
17.809
26.1048
36.6678
48.7095
61.5253
74.6078
87.3148
99.5701
111.317
122.492
133.003
142.689
151.277
158.353
163.035
7.96809
8.10108
8.42905
9.08414
10.1771
11.7373
13.7252
16.0749
18.7275
21.5295
24.432
27.3887
30.3414
33.2159
35.9253
38.3696
40.4332
41.9707
7.94825
7.99032
8.05973
8.16963
8.33836
8.57792
8.89087
9.27487
9.72734
10.2416
10.8115
11.4282
12.0763
12.7341
13.3754
13.9722
14.4957
14.9209
7.93915
7.96509
8.00213
8.04935
8.10784
8.17807
8.25884
8.34904
8.44882
8.55856
8.67817
8.807
8.94373
9.0861
9.23094
9.37418
9.51116
9.63436
7.93316
7.95115
7.97735
8.01013
8.04865
8.09175
8.1375
8.18451
8.23256
8.28222
8.33413
8.3889
8.44714
8.5094
8.57604
8.64704
8.72201
8.7989
7.92906
7.94147
7.96063
7.98529
8.01448
8.04714
8.08174
8.1171
8.15285
8.18923
8.22684
8.26642
8.3088
8.35477
8.40493
8.45956
8.51836
8.58032
7.92623
7.93445
7.94832
7.96701
7.98957
8.01514
8.04256
8.07095
8.09993
8.1296
8.16032
8.19263
8.22713
8.26438
8.30482
8.34848
8.39531
8.44438
7.92441
7.92974
7.93987
7.9543
7.97214
7.99265
8.01493
8.03829
8.0624
8.08731
8.11322
8.14047
8.16942
8.20041
8.23363
8.2691
8.3067
8.3457
7.92316
7.92635
7.93356
7.94457
7.95863
7.97505
7.99313
8.0123
8.0323
8.0531
8.07484
8.09772
8.12196
8.14771
8.17504
8.20395
8.23425
8.26539
7.92234
7.92371
7.92834
7.93629
7.94693
7.95962
7.97382
7.98906
8.00509
8.02187
8.03944
8.05791
8.07737
8.09789
8.1195
8.14211
8.16554
8.18944
7.92178
7.92178
7.92433
7.92967
7.93729
7.94667
7.95735
7.96895
7.98123
7.99412
8.00758
8.02165
8.03638
8.05178
8.06783
8.08444
8.10147
8.11868
7.92136
7.92053
7.92164
7.9249
7.93004
7.93663
7.94431
7.95273
7.96166
7.97095
7.98057
7.99051
8.00078
8.01137
8.02224
8.03334
8.04458
8.05581
7.92111
7.91977
7.92
7.92187
7.92525
7.9298
7.93519
7.9411
7.9473
7.95362
7.95999
7.96639
7.97279
7.97921
7.98564
7.99204
7.99837
8.00458
7.92105
7.9195
7.91931
7.92049
7.92289
7.92621
7.93015
7.93441
7.93874
7.94297
7.94699
7.95075
7.95426
7.95756
7.96067
7.96361
7.96636
7.96892
7.92125
7.9199
7.91977
7.92091
7.92315
7.92615
7.92959
7.93317
7.93663
7.93981
7.94258
7.94491
7.94681
7.94836
7.94961
7.95056
7.95124
7.9517
7.9217
7.92097
7.9215
7.92338
7.92634
7.92998
7.93391
7.93783
7.94146
7.94466
7.94732
7.9494
7.95089
7.95181
7.95222
7.95225
7.95203
7.95165
7.92232
7.92258
7.92428
7.92746
7.93171
7.93657
7.9416
7.94645
7.95087
7.95468
7.95781
7.96021
7.96189
7.96281
7.9631
7.963
7.96267
7.9622
7.92334
7.92527
7.92882
7.93391
7.94006
7.9468
7.95364
7.96016
7.96604
7.9711
7.97524
7.97849
7.98095
7.9827
7.98385
7.98467
7.98535
7.98603
7.92519
7.92958
7.93579
7.94367
7.95278
7.96265
7.97271
7.98244
7.99157
8.00001
8.0078
8.01516
8.02242
8.02997
8.03818
8.04757
8.05859
8.07153
7.9282
7.9363
7.94677
7.95974
7.97548
7.99444
8.01689
8.04327
8.07432
8.11084
8.15357
8.20328
8.26087
8.32731
8.40376
8.49162
8.59329
8.70992
7.93336
7.94963
7.97569
8.01982
8.09399
8.2104
8.37893
8.60642
8.89628
9.24824
9.65982
10.1278
10.6491
11.2216
11.8449
12.5058
13.2041
13.9419
7.94796
8.0482
8.31473
8.86512
9.81834
11.2578
13.2155
15.6751
18.5737
21.8064
25.2882
28.9469
32.7265
36.588
40.5089
44.4034
48.271
52.1205
8.22898
10.242
14.9033
23.0922
35.1582
50.8959
69.6178
90.4001
112.23
134.153
155.598
176.209
195.814
214.377
231.976
248.855
265.142
280.986
18.152
59.7459
129.237
222.636
331.296
446.083
559.279
665.564
762.078
847.926
923.212
988.875
1046.28
1096.94
1142.31
1183.77
1222.41
1259.17
372.091
973.175
1581.07
2128.68
2587.11
2952.76
3236.57
3452.95
3615.58
3736.06
3823.6
3885.51
3927.57
3954.43
3969.82
3976.77
3977.77
3974.57
7396.63
11250.5
12888.3
13381.5
13340.3
13065.9
12700.7
12313
11936.8
11587.9
11272.4
10991.4
10743
10523.9
10330
10157.2
10001
9858.91
201.541
198.213
198.96
201.585
206.436
213.487
223.126
235.92
251.952
271.07
293.197
318.233
346.076
376.635
409.831
445.598
483.848
524.45
567.255
612.107
658.876
707.503
758.069
809.497
855.273
894.211
925.159
946.634
956.905
954.817
939.721
911.385
870.43
818.662
759.375
694.354
628.721
585.043
561.329
553.912
558.488
571.529
589.667
608.907
626.128
639.685
648.755
652.995
652.307
646.73
636.424
621.636
602.75
580.718
557.516
534.096
511.458
490.728
473.1
459.771
452
451.072
458.245
474.666
501.413
538.542
583.2
636.256
697.046
764.463
837.334
914.534
994.658
1074.73
1148.11
1203.98
1232.15
1235.62
1226.31
1207.83
1183.51
1159.75
1142.47
1137.33
1148.31
1168.38
1165.27
1122.28
1053.86
999.608
1004.2
1094.08
1277.95
1547.4
1867.48
2158.16
2427.91
2673.53
2888.72
3070.34
3217.73
3330.91
3410.02
3455.42
3467.22
3445.32
3390.33
3303.25
3185.16
3036.14
2872.66
2698.72
2517.23
2331.5
2144.76
1959.8
1779.03
1605.23
1440.47
1286.27
1143.68
1013.27
895.16
789.1
694.585
611.113
538.934
478.245
428.91
391.622
367.735
359.025
368.727
399.534
444.322
502.147
572.283
653.459
743.966
842.17
946.585
1055.76
1168.07
1281.44
1394.54
1505.49
1612.08
1711.96
1802.78
1882.14
1947.9
1998.94
2028.74
2037.77
2029.23
2006.01
1970.26
1923.7
1868.1
1805.27
1737.05
1664.83
1589.45
1511.37
1431.15
1350.29
1272.13
1202.01
1145.78
1107.71
1088.3
1082.82
1088.47
1097.19
1090.88
1044.82
950.565
824.909
707.986
641.851
277.193
245.012
227.38
215.996
209.456
206.81
207.279
210.273
215.248
221.644
228.879
236.336
243.468
249.853
255.209
259.406
262.419
264.292
265.124
265.066
264.301
263.047
261.551
261.24
268.974
285.344
310.042
341.991
379.365
419.777
460.659
499.333
533.195
559.869
577.349
584.033
578.633
561.266
533.785
505.512
478.937
455.059
433.904
414.581
396.007
377.437
358.732
340.485
323.826
310.048
300.248
295.183
295.272
300.013
307.482
316.821
327.187
337.782
347.853
356.705
363.711
368.323
370.1
368.757
364.227
357.333
348.633
338.599
327.838
316.983
306.698
297.748
291.167
288.511
291.972
303.417
322.525
341.019
348.159
344.85
335.289
320.995
305.415
293.8
292.873
313.643
377.241
480.366
612.733
779.508
982.417
1199.58
1392.98
1512.72
1567.44
1575.13
1545.81
1487.91
1409.76
1319.18
1218.4
1111.35
1004.28
901.794
807.441
724.723
656.831
605.967
573.205
560.276
550.327
541.129
532.435
524.196
516.784
511.388
508.263
504.482
499.652
493.845
487.19
479.877
472.128
464.158
456.184
448.563
441.64
435.494
430.155
425.64
422.204
419.735
417.943
417.117
417.068
417.629
418.704
420.177
421.939
423.917
426.107
428.725
433.61
445.955
463.744
484.274
506.892
531.777
559.311
589.81
623.392
660.083
701.304
743.118
781.441
813.395
837.123
851.439
855.512
848.868
831.534
804.537
770.163
731.679
692.29
653.668
615.973
579.576
545.849
515.765
490.308
472.908
462.476
457.136
456.336
464.9
478.658
485.044
482.957
476.207
347.598
269.208
231.744
211.848
203.455
203.212
208.62
217.594
228.419
239.732
250.488
259.953
267.708
273.595
277.624
279.917
280.674
280.133
278.55
276.179
273.259
270.002
266.593
263.19
259.991
257.752
257.746
261.475
270.379
285.473
307.055
334.524
366.357
400.217
433.119
461.64
482.147
491.589
487.684
469.04
442.076
412.866
384.138
357.21
332.704
311.218
293.675
281.212
274.773
274.82
281.268
293.483
310.327
330.345
351.961
372.644
391.441
407.804
421.44
432.112
439.484
443.331
443.459
439.544
431.174
418.36
402.418
383.751
363.169
341.706
320.429
300.288
281.947
265.718
251.721
240.076
231.039
224.921
221.606
220.079
219.165
219.554
223.494
235.648
262.84
314.087
399.27
528.106
704.458
914.56
1116.29
1250.12
1283.7
1252.71
1182.01
1088.21
984.991
882.914
789.393
708.862
643.024
592.435
556.295
532.792
519.666
514.553
515.134
519.282
525.281
531.539
537.634
543.452
548.84
553.626
557.632
560.679
562.601
563.295
562.667
560.658
557.245
552.527
546.704
539.974
532.493
525.015
517.513
509.638
502.675
496.219
490.111
484.331
478.988
474.115
469.587
465.27
461.031
456.789
452.494
448.116
443.638
439.061
434.427
429.825
425.298
420.868
416.595
412.589
409
406.043
404.016
403.333
406.594
415.475
429.414
447.259
467.54
488.569
508.496
525.527
538.181
545.485
547.02
542.856
533.34
518.791
499.348
475.138
446.634
415.311
384.709
360.661
347.136
345.248
354.933
374.51
397.787
416.423
422.451
411.533
402.27
272.594
221.308
202.222
200.954
209.822
223.836
239.542
254.626
267.669
277.968
285.326
289.867
291.9
291.827
290.077
287.08
283.237
278.906
274.393
269.951
265.781
262.04
258.848
256.179
253.758
251.825
250.85
251.62
255.223
262.878
275.636
293.989
317.525
344.694
372.794
398.184
416.887
425.333
421.234
403.183
377.383
350.734
326.114
305.803
292.042
286.941
291.641
305.564
326.972
353.826
383.038
411.798
437.814
459.818
478.04
491.938
502.264
509.616
514.412
516.901
517.166
515.117
510.449
502.641
490.892
474.137
453.3
428.851
401.41
372.231
342.895
314.925
289.414
266.918
247.704
231.951
219.762
211.219
206.447
205.713
210.284
223.748
252.493
304.696
386.009
500.113
651.254
835.389
1017.58
1129.72
1135.17
1076.65
985.708
882.718
782.657
695.491
626.19
575.6
541.76
521.299
510.613
506.46
506.302
508.344
511.422
514.843
518.267
521.822
526.07
530.922
536.228
541.792
547.405
552.863
557.996
562.678
566.743
570.027
572.346
573.556
573.525
572.234
569.566
564.876
559.72
553.714
546.981
539.803
532.369
524.807
517.256
509.858
502.686
495.723
488.899
482.141
475.421
468.741
462.107
455.522
448.975
442.444
435.904
429.357
422.828
416.35
409.946
403.626
397.369
391.11
384.854
378.877
373.922
370.742
370.103
372.474
377.927
386.148
396.498
408.14
420.067
431.1
439.965
445.355
446.018
440.9
429.394
411.7
389.263
365.022
343.132
328.245
323.747
331.061
348.738
370.998
389.107
393.283
378.11
441.221
263.293
210.23
201.76
212.766
231.386
251.23
268.911
282.86
292.572
298.218
300.254
299.289
295.982
290.979
284.881
278.214
271.417
264.839
258.739
253.301
248.651
244.873
242.035
240.182
239.109
238.795
239.23
240.513
242.955
247.159
254.003
264.456
279.217
298.231
320.282
342.878
362.574
375.711
379.437
371.632
353.993
336.576
324.387
321.385
329.622
348.497
376.755
410.055
444.006
475.225
500.697
518.949
530.816
537.436
540.574
541.936
542.164
541.611
540.419
538.636
536.243
533.168
529.25
524.182
517.404
507.956
494.265
474.944
451.181
422.879
391.19
358.101
325.795
295.977
269.681
247.599
230.299
218.163
211.554
211.261
219.759
242.447
287.456
362.111
469.023
604.983
763.064
923.177
1032.15
1038.95
976.829
884.023
783.679
691.385
616.351
561.718
525.834
504.442
492.732
486.65
483.397
481.358
479.81
478.589
477.825
477.742
478.515
480.524
483.689
487.794
492.583
497.787
503.156
508.489
513.677
518.635
523.288
527.671
531.852
535.808
539.325
542.358
544.403
545.413
545.238
543.702
540.772
536.558
531.237
525.009
518.101
510.734
503.077
495.235
487.268
479.222
471.156
463.133
455.209
447.428
439.818
432.398
425.187
418.216
411.522
405.136
399.076
393.371
388.01
382.918
377.982
372.992
367.628
361.998
356.468
351.544
347.792
345.751
345.837
348.268
353.023
359.75
367.667
375.532
381.724
384.486
382.334
374.561
361.688
345.659
329.676
317.753
313.9
320.656
337.215
358.482
375.545
378.525
362.202
461.454
248.84
207.311
214.223
235.922
259.436
279.411
294.075
303.261
307.403
307.22
303.579
297.386
289.479
280.611
271.414
262.39
253.918
246.262
239.587
233.972
229.436
225.971
223.574
222.33
222.337
223.523
225.765
228.92
232.904
237.789
243.899
251.851
262.424
276.201
293.046
311.702
329.779
344.264
352.55
352.76
347.802
347.934
358.711
380.894
411.71
446.128
479.784
508.761
530.022
543.689
550.642
552.457
551.059
548.079
544.638
541.564
538.78
536.04
533.132
529.917
526.349
522.463
518.363
514.146
509.78
504.921
498.698
489.402
474.401
453.613
426.954
395.272
361.067
327.258
296.151
269.187
247.394
231.69
223.104
223.364
236.188
268.577
329.263
424.088
550.059
694.708
839.142
949.104
973.157
919.845
831.801
735.565
647.965
578.4
529.576
498.888
481.041
470.66
463.76
458.057
452.623
447.376
442.642
438.869
436.455
435.666
436.606
439.064
442.612
446.927
451.666
456.484
461.071
465.191
468.704
471.511
473.745
475.683
477.632
479.926
482.583
485.531
488.767
492.028
494.977
497.193
498.312
498.093
496.43
493.347
488.98
483.526
477.183
470.13
462.529
454.54
446.318
438.011
429.742
421.618
413.724
406.134
398.916
392.137
385.859
380.131
374.984
370.421
366.415
362.928
359.898
357.165
354.249
350.876
346.891
342.284
337.228
332.079
327.34
323.585
321.386
321.189
323.129
326.848
331.404
335.357
337.099
335.372
329.815
321.325
312.084
305.297
304.572
312.689
329.616
350.964
368.069
371.516
356.357
461.174
235.85
215.153
235.841
262.848
285.848
302.117
311.723
315.436
314.152
308.877
300.693
290.66
279.703
268.555
257.77
247.747
238.764
230.994
224.511
219.297
215.266
212.307
210.333
209.423
210.044
212.134
215.557
220.117
225.596
231.819
238.753
246.616
255.92
267.318
281.163
297.041
313.636
329.167
342.366
352.73
366.248
389.172
421.011
456.829
490.961
519.261
539.806
552.364
557.671
557.733
554.789
550.712
546.763
543.621
541.452
539.75
537.837
535.405
532.24
528.225
523.353
517.733
511.649
505.539
499.875
494.963
490.687
486.233
479.81
468.248
450.206
424.878
393.054
357.913
323.278
292.147
266.429
247.586
237.339
238.588
256.289
298.537
373.835
484.646
620.633
759.816
873.552
921.895
886.935
807.813
715.736
629.874
560.968
512.54
482.245
464.522
453.643
445.538
438.114
430.753
423.653
417.322
412.282
408.918
407.436
407.865
410.104
413.632
417.959
422.738
427.593
432.137
435.995
438.832
440.393
440.643
439.763
438.021
435.812
433.634
431.954
431.006
431.001
431.995
433.841
436.189
438.561
440.458
441.448
441.236
439.69
436.821
432.721
427.521
421.388
414.519
407.125
399.412
391.567
383.762
376.148
368.86
362.021
355.744
350.13
345.256
341.175
337.901
335.417
333.667
332.562
331.95
331.429
330.796
329.745
327.974
325.257
321.517
316.873
311.677
306.477
301.947
298.741
297.275
297.512
298.846
300.221
300.485
298.894
295.579
291.797
289.897
292.898
303.431
321.841
344.328
362.665
368.001
355.522
438.706
229.903
231.637
260.375
287.499
306.961
318.531
323.311
322.349
316.744
307.73
296.555
284.328
271.912
259.911
248.723
238.626
229.831
222.471
216.576
212.063
208.751
206.414
204.846
204.049
204.969
207.514
211.508
216.739
222.977
229.999
237.645
245.92
255.122
265.82
278.543
293.541
310.944
329.963
350.562
375.217
406.775
444.105
481.603
513.909
538.189
553.999
562.133
564.349
562.754
559.473
556.162
553.708
552.283
551.604
551.198
550.517
549.179
546.967
543.651
539.034
533.005
525.601
517.064
507.957
499.131
491.495
485.644
481.483
478.055
473.384
464.124
448.079
423.221
390.579
354.157
318.866
288.615
266.174
254.164
256.543
279.237
330.679
418.033
538.989
675.506
797.766
871.904
866.73
801.001
714.109
628.41
557.089
505.58
472.802
453.541
441.764
433.017
425.028
417.169
409.674
403.061
397.816
394.263
392.544
392.634
394.394
397.611
401.836
406.636
411.683
416.607
421.004
424.455
426.525
426.831
425.302
422.03
417.184
411.144
404.796
398.432
392.431
387.249
383.262
380.683
379.504
379.485
380.202
381.135
381.778
381.73
380.742
378.681
375.512
371.267
366.061
360.074
353.524
346.636
339.629
332.708
326.061
319.861
314.265
309.405
305.389
302.291
300.156
298.996
298.778
299.418
300.69
302.294
304.103
305.818
307.079
307.505
306.76
304.62
301.055
296.286
290.789
285.243
280.383
276.781
274.626
273.636
273.19
272.669
271.892
271.491
273.089
279.102
291.907
312.065
336.283
356.779
365.104
356.441
396.966
235.091
252.658
283.267
307.492
322.806
330.36
331.381
327.011
318.555
307.421
294.883
281.94
269.272
257.303
246.318
236.551
228.195
221.391
216.166
212.408
209.872
208.234
207.156
206.553
207.876
210.579
214.441
219.439
225.517
232.534
240.328
248.852
258.365
269.477
283.1
299.898
320.488
345.619
376.211
412.438
452.051
490.211
521.985
545.171
559.768
567.146
569.276
568.369
566.343
564.514
563.477
563.203
563.322
563.397
563.102
562.416
561.416
559.798
557.183
553.159
547.343
539.474
529.54
517.967
505.754
494.409
485.378
479.398
476.03
473.982
470.923
463.764
448.984
424.119
390.421
352.922
317.918
290.77
275.913
278.537
305.237
363.9
459.308
583.898
712.863
811.383
846.586
805.076
725.435
639.962
564.496
507.321
469.615
447.258
434.081
424.968
417.09
409.528
402.381
396.08
391.033
387.508
385.61
385.316
386.514
389.042
392.707
397.209
402.186
407.325
412.256
416.585
419.907
421.774
421.661
419.304
414.666
407.825
399.349
390.043
380.012
369.753
359.812
350.717
342.916
336.701
332.155
329.139
327.318
326.236
325.429
324.53
323.213
321.227
318.394
314.657
310.081
304.823
299.094
293.123
287.144
281.379
276.029
271.274
267.271
264.145
261.989
260.866
260.804
261.801
263.815
266.586
270.004
273.854
277.88
281.756
285.084
287.436
288.411
287.715
285.235
281.114
275.777
269.893
264.233
259.46
255.936
253.664
252.436
252.14
253.137
256.555
264.315
278.534
299.967
325.875
348.993
361.033
357.107
348.401
246.249
273.249
302.756
323.417
335.033
339.373
337.858
331.636
322.016
310.368
297.817
285.159
272.907
261.382
250.833
241.496
233.586
227.243
222.506
219.271
217.295
216.288
216.007
216.424
217.528
219.536
222.619
226.891
232.372
239.004
246.72
255.559
265.887
278.472
294.355
314.709
340.703
372.806
410.19
450.067
488.132
520.229
544.073
559.592
568.05
571.373
571.594
570.455
569.087
567.985
567.193
566.585
566.061
565.617
565.298
565.278
565.468
565.396
564.594
562.565
558.731
552.446
543.172
530.802
516.077
500.914
487.699
478.446
473.547
472.114
472.265
471.405
466.144
452.424
427.529
393.176
355.927
324.03
304.993
306.007
334.48
397.103
495.702
617.839
733.699
806.642
810.057
748.6
662.873
582.842
518.1
472.956
445.407
429.699
419.938
412.354
405.431
398.979
393.276
388.626
385.226
383.159
382.417
382.932
384.615
387.375
391.107
395.627
400.613
405.722
410.555
414.722
417.883
419.696
419.624
417.163
412.065
404.351
394.86
383.739
371.309
358.054
344.533
331.349
319.08
308.192
298.985
291.55
285.78
281.403
278.063
275.45
273.202
270.941
268.345
265.208
261.463
257.157
252.416
247.425
242.396
237.545
233.078
229.184
226.029
223.754
222.47
222.252
223.131
225.115
228.192
232.143
236.941
242.393
248.252
254.225
259.949
264.988
268.886
271.215
271.647
270.039
266.507
261.462
255.581
249.659
244.425
240.375
237.762
236.745
237.689
241.478
249.682
264.208
286.012
313.009
338.635
354.648
355.943
304.676
259.109
291.062
318.332
335.957
345.027
347.524
344.826
338.088
328.58
317.496
305.723
293.876
282.376
271.522
261.568
252.744
245.247
239.199
234.622
231.425
229.434
228.451
228.277
228.74
229.854
231.599
234.217
237.928
242.876
249.15
256.857
266.277
277.993
292.925
312.24
337.078
367.914
403.852
442.326
479.583
511.935
537.033
554.303
564.581
569.427
570.61
569.686
567.748
565.402
562.965
560.71
558.979
558.139
558.437
559.879
562.049
564.131
565.673
566.392
566.084
564.429
560.772
554.05
543.131
527.731
509.558
491.769
477.838
469.57
467.003
468.577
471.704
473.483
470.226
457.592
432.956
399.261
365.301
341.896
339.302
366.563
429.146
526.012
640.824
740.799
790.217
770.853
699.465
614.904
540.344
484.427
448.728
428.41
416.986
409.405
403.144
397.52
392.596
388.541
385.458
383.379
382.296
382.167
382.952
384.656
387.316
390.934
395.399
400.333
405.31
409.896
413.71
416.46
417.951
417.866
415.578
410.562
403.073
393.3
381.388
367.684
352.616
336.713
320.598
304.933
290.32
277.215
265.871
256.339
248.501
242.13
236.936
232.637
228.906
225.403
221.862
218.121
214.13
209.925
205.608
201.324
197.234
193.513
190.331
187.85
186.207
185.527
185.913
187.441
190.15
194.02
198.862
204.674
211.309
218.552
226.131
233.723
240.927
247.285
252.326
255.615
256.822
255.81
252.712
247.966
242.269
236.448
231.277
227.371
225.201
225.279
228.434
236.032
249.828
270.972
298.101
325.595
345.394
351.938
278.522
271.666
305.041
330.041
345.541
353.298
355.351
352.96
347.113
338.851
329.103
318.565
307.772
297.145
287.013
277.638
269.232
261.96
255.925
251.16
247.623
245.218
243.82
243.295
243.556
244.648
246.396
248.912
252.442
257.233
263.537
271.679
282.158
295.71
313.279
335.804
363.756
396.545
432.207
467.687
499.729
525.883
545.046
557.403
563.992
566.217
565.477
562.919
559.415
555.692
552.48
550.496
550.283
552.038
555.579
560.413
565.04
568.509
570.509
570.955
570.066
568.177
565.336
560.768
552.633
538.807
519.348
497.613
478.307
465.06
459.031
459.708
465.044
471.96
476.855
475.746
464.33
440.784
410.267
384.615
377.446
400.553
459.118
549.917
654.05
737.714
767.874
734.018
658.963
577.511
509.315
461.237
432.189
416.422
407.648
401.656
396.716
392.602
389.329
386.84
385.065
383.961
383.489
383.622
384.393
385.938
388.44
391.979
396.429
401.22
405.846
409.897
413.076
415.15
415.988
415.526
413.227
408.757
401.793
392.248
380.262
366.113
350.169
332.89
314.869
296.802
279.394
263.24
248.735
236.049
225.159
215.916
208.116
201.523
195.873
190.893
186.317
181.952
177.686
173.486
169.387
165.469
161.845
158.639
155.986
154.025
152.88
152.658
153.454
155.345
158.39
162.613
167.942
174.367
181.759
189.938
198.657
207.616
216.462
224.765
232.052
237.844
241.714
243.357
242.674
239.85
235.372
229.978
224.518
219.814
216.586
215.53
217.519
223.824
236.096
255.655
281.852
310.197
333.145
344.649
281.475
282.186
313.857
337.241
351.696
359.38
362.33
361.596
357.865
351.836
344.148
335.337
325.914
316.359
307.07
298.346
290.395
283.359
277.332
272.359
268.449
265.573
263.68
262.714
262.652
263.511
265.293
267.898
271.553
276.551
283.254
292.126
303.77
318.921
338.32
362.422
390.976
422.702
455.344
486.168
512.739
533.508
547.994
556.6
560.288
560.247
557.677
553.729
549.559
546.353
545.162
546.638
550.838
557.217
564.755
572.276
578.377
582.769
584.953
584.473
581.474
576.745
571.323
565.69
558.743
547.319
528.61
504.689
480.248
461.661
450.207
446.957
451.733
461.993
473.512
481.922
483.132
473.364
452.59
429.301
418.535
435.414
486.622
567.935
659.44
727.942
743.807
702.06
627.139
549.855
487.492
445.179
420.516
407.562
400.53
395.924
392.483
389.983
388.269
387.128
386.409
386.067
386.049
386.363
387.147
388.678
391.216
394.811
399.175
403.54
407.392
410.448
412.581
413.699
413.689
412.554
410.156
406.033
399.635
390.632
379.012
364.974
348.815
330.92
311.811
292.17
272.765
254.305
237.321
222.105
208.721
197.077
187.01
178.341
170.867
164.355
158.571
153.321
148.467
143.934
139.708
135.827
132.361
129.405
127.061
125.432
124.613
124.687
125.726
127.791
130.933
135.187
140.577
147.147
154.815
163.435
172.794
182.616
192.581
202.305
211.328
219.164
225.336
229.441
231.219
230.637
227.953
223.723
218.724
213.836
209.926
207.838
208.519
213.203
223.468
240.757
265.054
293.072
318.144
333.961
321.441
287.749
315.574
338.618
353.186
361.926
366.93
369.028
368.561
365.82
361.101
354.739
347.213
339.084
330.876
322.983
315.662
309.058
303.253
298.297
294.224
291.055
288.806
287.492
287.113
287.643
289.475
292.245
296.151
301.487
308.642
318.104
330.45
346.272
366.015
389.706
416.679
445.463
473.978
500.008
521.75
538.154
548.975
554.622
555.94
554.029
550.159
545.781
542.458
541.588
543.992
549.695
557.982
567.602
577.064
584.922
591.844
597.866
602.063
602.865
599.412
592.233
582.887
573.116
563.681
552.558
534.948
510.884
483.815
459.631
441.972
432.78
433.607
444.061
460.413
477.154
489.347
493.198
486.128
470.955
459.92
470.186
511.803
581.236
659.219
714.456
720.652
675.858
603.412
530.581
472.838
434.296
412.172
400.79
394.947
391.618
389.666
388.722
388.459
388.538
388.762
389.101
389.544
390.139
391.111
392.854
395.642
399.33
403.247
406.69
409.293
410.985
411.784
411.732
410.849
409.112
406.383
402.324
396.394
388.051
377.045
363.462
347.54
329.582
310.014
289.464
268.716
248.571
229.683
212.464
197.075
183.488
171.578
161.188
152.149
144.273
137.361
131.227
125.726
120.762
116.294
112.33
108.909
106.096
103.962
102.573
101.989
102.256
103.412
105.488
108.519
112.543
117.68
124.01
131.498
140.053
149.52
159.668
170.207
180.796
191.017
200.386
208.407
214.616
218.647
220.306
219.646
217.011
213.028
208.517
204.387
201.57
201.069
204.099
212.17
226.792
248.453
275.008
300.949
320.072
389.815
285.607
306.198
330.662
348.1
358.845
366.767
372.605
376.469
378.221
377.704
374.925
370.215
364.178
357.498
350.756
344.339
338.462
333.223
328.671
324.836
321.746
319.431
317.92
317.233
317.387
319.297
322.231
326.349
331.914
339.273
348.855
361.127
376.504
395.192
416.99
441.12
466.214
490.515
512.248
530
542.955
550.916
554.223
553.649
550.295
545.627
541.419
539.44
540.91
546.043
554.109
563.684
573.017
580.82
587.355
594.462
602.396
610.381
615.761
615.764
609.62
598.525
584.702
570.36
555.918
538.457
514.741
485.869
457.222
433.902
418.516
413.324
420.269
438.072
461.421
483.68
499.83
506.957
504.381
498.252
503.871
535.188
591.406
655.643
699.568
699.815
655.33
586.806
518.281
463.875
427.407
406.336
395.558
390.435
388.188
387.6
388.095
389.174
390.387
391.505
392.518
393.487
394.525
395.9
397.954
400.797
404.021
406.8
408.802
409.953
410.304
409.937
408.909
407.253
404.968
401.933
397.827
392.173
384.414
374.118
361.187
345.792
328.168
308.631
287.71
266.167
244.857
224.546
205.763
188.771
173.612
160.208
148.427
138.119
129.12
121.258
114.371
108.317
102.995
98.3455
94.351
91.0272
88.4054
86.5215
85.4082
85.0882
85.5693
86.8482
88.9185
91.7822
95.4626
100.132
105.91
112.812
120.817
129.846
139.745
150.275
161.137
171.966
182.308
191.66
199.523
205.457
209.15
210.487
209.619
206.983
203.275
199.357
196.179
194.766
196.307
202.238
214.073
232.657
256.821
282.338
303.514
491.061
278.548
286.399
309.882
330.144
346.914
358.659
368.711
377.657
385.094
390.331
392.829
392.521
389.866
385.651
380.696
375.629
370.831
366.497
362.732
359.606
357.167
355.44
354.425
354.135
354.655
356.208
359.327
363.593
369.204
376.431
385.601
397.051
411.05
427.671
446.651
467.288
488.445
508.7
526.629
541.049
551.225
556.917
558.343
556.13
551.438
545.976
541.758
540.599
543.353
549.567
557.781
565.988
572.466
577.398
582.446
588.6
596.769
606.998
617.227
623.447
622.207
613.023
597.817
579.365
560.008
539.184
513.934
483.581
451.923
424.192
403.501
392.198
393.38
408.671
435.166
465.909
493.6
513.827
525.179
529.323
535.197
557.615
600.195
650.475
684.357
681.193
639.329
575.835
511.536
459.505
423.786
402.541
391.486
386.543
385.053
385.62
387.422
389.775
392.11
394.131
395.82
397.3
398.743
400.386
402.434
404.822
407.048
408.387
408.824
408.503
407.62
406.335
404.689
402.621
400.033
396.8
392.668
387.193
379.845
370.181
357.976
343.275
326.256
307.128
286.287
264.421
242.405
221.09
201.121
182.862
166.436
151.819
138.915
127.596
117.717
109.126
101.677
95.2455
89.7284
85.0522
81.1805
78.1056
75.8326
74.3662
73.7017
73.8175
74.6729
76.2141
78.3853
81.1435
84.4786
88.5766
93.5864
99.5718
106.584
114.636
123.678
133.565
144.056
154.847
165.543
175.655
184.663
192.074
197.482
200.642
201.528
200.393
197.765
194.405
191.219
189.217
189.543
193.545
202.692
218.043
239.189
263.144
285.045
600.571
272.083
261.968
281.978
300.123
316.823
335.133
351.193
365.622
379.871
392.899
403.393
410.463
413.972
414.52
413.085
410.592
407.662
404.635
401.713
399.071
396.874
395.265
394.342
394.14
394.609
395.678
398.747
403.044
408.53
415.386
423.839
434.121
446.409
460.731
476.862
494.244
511.984
529.068
544.528
556.155
564.035
567.928
567.956
564.652
559.117
553.016
548.315
546.704
548.839
554.134
561.037
567.574
572.366
575.751
578.979
583.183
589.979
600.464
613.489
624.813
629.142
623.681
609.004
587.705
563.187
537.021
507.809
474.713
440.461
409.535
384.867
368.461
363.567
373.59
399.003
435.071
473.498
506.784
531.488
547.655
558.81
576.432
607.866
646.008
671.715
666.897
628.673
570.377
509.876
459.4
423.459
401.13
389.021
383.593
382.285
383.525
386.268
389.654
392.982
395.844
398.154
400.037
401.69
403.312
405.004
406.61
407.601
407.427
406.301
404.58
402.629
400.685
398.761
396.67
394.142
390.927
386.792
381.416
374.343
365.143
353.607
339.692
323.473
305.059
284.691
262.931
240.626
218.685
197.856
178.611
161.161
145.547
131.723
119.599
109.044
99.922
92.1088
85.4926
79.9702
75.4637
71.9259
69.3303
67.6561
66.8732
66.9316
67.7551
69.2438
71.2835
73.7605
76.5784
79.6836
83.2805
87.5317
92.5171
98.3357
105.082
112.814
121.507
131.023
141.129
151.508
161.726
171.262
179.591
186.237
190.849
193.26
193.55
192.078
189.465
186.534
184.238
183.661
186.05
192.781
205.003
222.834
244.352
265.691
697.598
273.512
239.15
253.541
268.354
280.437
293.73
312.756
334.531
354.173
374.612
394.13
410.938
423.8
432.528
437.875
440.897
442.379
442.722
442.158
440.971
439.527
438.203
437.314
437.071
437.585
438.859
440.67
444.935
450.314
456.793
464.498
473.574
484.143
496.231
509.724
524.553
540.042
553.879
566.286
575.674
581.782
584.362
583.449
579.461
573.336
566.53
560.79
557.636
557.76
560.83
565.65
570.651
574.654
577.389
579.367
582.139
587.84
598.108
612.281
626.196
633.786
630.748
616.207
592.195
562.692
530.679
496.291
459.481
422.757
389.869
363.083
343.753
334.639
339.489
360.757
397.131
442.105
486.676
523.985
552.022
572.011
590.088
614.451
642.953
661.932
656.195
621.777