/*--------------------------------*- C++ -*----------------------------------*\
| =========                 |                                                 |
| \\      /  F ield         | OpenFOAM: The Open Source CFD Toolbox           |
|  \\    /   O peration     | Version:  2112                                  |
|   \\  /    A nd           | Website:  www.openfoam.com                      |
|    \\/     M anipulation  |                                                 |
\*---------------------------------------------------------------------------*/
FoamFile
{
    version     2.0;
    format      ascii;
    arch        "LSB;label=32;scalar=64";
    class       volSymmTensorField;
    location    "0.075";
    object      UPrime2Mean;
}
// * * * * * * * * * * * * * * * * * * * * * * * * * * * * * * * * * * * * * //

dimensions      [0 2 -2 0 0 0 0];

internalField   nonuniform List<symmTensor> 
12225
(
(0.0361818 0.000994103 0 0.002326 0 0)
(0.0171822 5.59498e-05 0 0.00110731 0 0)
(0.0182248 -0.00028038 0 0.000812858 0 0)
(0.0189054 -0.000395244 0 0.000669769 0 0)
(0.0231906 -0.000592198 0 0.000584878 0 0)
(0.0329055 -0.000955358 0 0.000531823 0 0)
(0.0493774 -0.00159331 0 0.000516606 0 0)
(0.0731996 -0.00226467 0 0.000486034 0 0)
(0.108067 -0.00374061 0 0.000538603 0 0)
(0.154044 -0.0043019 0 0.000489924 0 0)
(0.224465 -0.00854238 0 0.000701134 0 0)
(0.312574 -0.00759117 0 0.000580041 0 0)
(0.46265 -0.0219195 0 0.00143707 0 0)
(0.64117 -0.0123858 0 0.00108754 0 0)
(0.987532 -0.0660044 0 0.00548026 0 0)
(1.41878 -0.0164884 0 0.00466247 0 0)
(2.33576 -0.259646 0 0.0401976 0 0)
(3.85107 -0.0737531 0 0.0195578 0 0)
(0.0353353 0.000871216 0 0.0028084 0 0)
(0.0168746 0.000794316 0 0.001606 0 0)
(0.0159457 0.000626719 0 0.00113384 0 0)
(0.0147227 0.000584624 0 0.00095673 0 0)
(0.0144798 0.000451185 0 0.000875723 0 0)
(0.0153404 4.79481e-05 0 0.000853789 0 0)
(0.0178578 -0.000574329 0 0.000858176 0 0)
(0.0228058 -0.00166211 0 0.000971399 0 0)
(0.0309959 -0.00287628 0 0.00103435 0 0)
(0.0448043 -0.0054118 0 0.00144297 0 0)
(0.0649811 -0.00783356 0 0.0016181 0 0)
(0.0995804 -0.0145054 0 0.00286109 0 0)
(0.14633 -0.0197311 0 0.00336102 0 0)
(0.233845 -0.038847 0 0.00727263 0 0)
(0.343857 -0.0522344 0 0.00924654 0 0)
(0.583731 -0.115102 0 0.0243408 0 0)
(0.863401 -0.177558 0 0.0384255 0 0)
(1.5454 -0.452254 0 0.148419 0 0)
(0.0328436 0.000400868 0 0.00352812 0 0)
(0.015127 0.000248462 0 0.00159412 0 0)
(0.014792 8.50086e-06 0 0.00110381 0 0)
(0.0136934 -0.000151494 0 0.000954084 0 0)
(0.0135917 -0.000366964 0 0.00090962 0 0)
(0.014434 -0.000771839 0 0.000937149 0 0)
(0.0164077 -0.00152239 0 0.00107061 0 0)
(0.0198097 -0.00257933 0 0.0012439 0 0)
(0.0254061 -0.00430889 0 0.00168543 0 0)
(0.034005 -0.00644138 0 0.00211971 0 0)
(0.0473201 -0.0105031 0 0.00333375 0 0)
(0.0669794 -0.0151712 0 0.00439581 0 0)
(0.0965995 -0.0256162 0 0.00792387 0 0)
(0.140336 -0.0368366 0 0.0110045 0 0)
(0.206608 -0.0662722 0 0.0231261 0 0)
(0.305799 -0.101491 0 0.0365179 0 0)
(0.448021 -0.19501 0 0.0911951 0 0)
(0.637024 -0.350371 0 0.206859 0 0)
(0.0351752 0.000229439 0 0.00395662 0 0)
(0.0171463 -1.60353e-05 0 0.00222484 0 0)
(0.016398 -0.000267617 0 0.00149661 0 0)
(0.0146246 -0.000338527 0 0.00128538 0 0)
(0.013924 -0.000551637 0 0.00126578 0 0)
(0.0145754 -0.00108332 0 0.00137695 0 0)
(0.0166509 -0.00196858 0 0.00158789 0 0)
(0.0202654 -0.00334146 0 0.00198229 0 0)
(0.0257671 -0.00524086 0 0.00252979 0 0)
(0.0341655 -0.00824608 0 0.00353796 0 0)
(0.0465241 -0.0124902 0 0.00494591 0 0)
(0.065044 -0.0195102 0 0.00755125 0 0)
(0.0914162 -0.0296529 0 0.0114604 0 0)
(0.130035 -0.0467639 0 0.0189338 0 0)
(0.184166 -0.073397 0 0.0320093 0 0)
(0.258975 -0.11888 0 0.0587141 0 0)
(0.355427 -0.19681 0 0.116619 0 0)
(0.456155 -0.311709 0 0.229583 0 0)
(0.030927 0.00083841 0 0.00407268 0 0)
(0.0137797 0.000752288 0 0.00247301 0 0)
(0.0130159 0.000356739 0 0.00175535 0 0)
(0.0110233 7.88851e-05 0 0.00156835 0 0)
(0.0102236 -0.000301536 0 0.00160742 0 0)
(0.0107735 -0.000953895 0 0.00181272 0 0)
(0.0126245 -0.00200193 0 0.00221529 0 0)
(0.0158268 -0.00354064 0 0.00282721 0 0)
(0.0207733 -0.00584836 0 0.00381658 0 0)
(0.0282642 -0.00919676 0 0.00524628 0 0)
(0.0394827 -0.0143852 0 0.00758988 0 0)
(0.0558719 -0.0220541 0 0.0111368 0 0)
(0.0794901 -0.0340894 0 0.0171937 0 0)
(0.112525 -0.0523512 0 0.0272114 0 0)
(0.158111 -0.0812261 0 0.0452365 0 0)
(0.216448 -0.126719 0 0.0791385 0 0)
(0.286703 -0.194652 0 0.14058 0 0)
(0.351233 -0.291042 0 0.262671 0 0)
(0.0345444 0.000459683 0 0.00448118 0 0)
(0.0158931 0.00026743 0 0.00287678 0 0)
(0.0152979 -6.11698e-05 0 0.00212501 0 0)
(0.0138829 -0.000282097 0 0.00193322 0 0)
(0.0135027 -0.000731522 0 0.00202637 0 0)
(0.0142112 -0.0015485 0 0.00235225 0 0)
(0.0159896 -0.00280437 0 0.00292616 0 0)
(0.0189482 -0.00462819 0 0.00382772 0 0)
(0.0235013 -0.00727035 0 0.00519101 0 0)
(0.0303572 -0.0111387 0 0.007259 0 0)
(0.0405354 -0.0168953 0 0.0104381 0 0)
(0.055112 -0.0254545 0 0.0154024 0 0)
(0.0756495 -0.0383288 0 0.0234022 0 0)
(0.1033 -0.0575164 0 0.0365647 0 0)
(0.139738 -0.0863997 0 0.0589638 0 0)
(0.183472 -0.128547 0 0.0977087 0 0)
(0.232073 -0.187649 0 0.164381 0 0)
(0.273532 -0.262112 0 0.27748 0 0)
(0.033802 0.00105026 0 0.00515715 0 0)
(0.0141466 0.000188244 0 0.003715 0 0)
(0.0132091 -0.000103828 0 0.00283439 0 0)
(0.0116019 -0.000241724 0 0.0026373 0 0)
(0.0109664 -0.000643186 0 0.00281105 0 0)
(0.0112117 -0.00143362 0 0.00326882 0 0)
(0.012369 -0.00271977 0 0.00405266 0 0)
(0.0147126 -0.00466671 0 0.00527125 0 0)
(0.0187126 -0.00755468 0 0.00711354 0 0)
(0.0249756 -0.0118221 0 0.00989932 0 0)
(0.0342592 -0.0181313 0 0.0141225 0 0)
(0.047243 -0.0273977 0 0.0206648 0 0)
(0.0648797 -0.0408965 0 0.0308559 0 0)
(0.0875846 -0.0604241 0 0.0472701 0 0)
(0.115898 -0.088103 0 0.0735187 0 0)
(0.147725 -0.126214 0 0.116667 0 0)
(0.180468 -0.175314 0 0.184438 0 0)
(0.205947 -0.231761 0 0.289481 0 0)
(0.0364507 0.00113994 0 0.0051227 0 0)
(0.0165583 0.000178892 0 0.00344902 0 0)
(0.0156723 -0.000105677 0 0.00257017 0 0)
(0.0140322 -0.000187992 0 0.00246455 0 0)
(0.0131431 -0.000599106 0 0.00277012 0 0)
(0.0133074 -0.00152848 0 0.00343067 0 0)
(0.0146525 -0.00304842 0 0.00451537 0 0)
(0.017141 -0.00528338 0 0.00616209 0 0)
(0.0208661 -0.00848556 0 0.00859594 0 0)
(0.0262204 -0.0130661 0 0.0121944 0 0)
(0.0338894 -0.0196397 0 0.0175428 0 0)
(0.0444619 -0.0290363 0 0.0256369 0 0)
(0.0585774 -0.0423652 0 0.0379268 0 0)
(0.0761944 -0.0609749 0 0.0569703 0 0)
(0.0971598 -0.0862611 0 0.0861454 0 0)
(0.119286 -0.119103 0 0.131286 0 0)
(0.140435 -0.158736 0 0.197885 0 0)
(0.155138 -0.201069 0 0.294453 0 0)
(0.0345153 0.00109979 0 0.00584352 0 0)
(0.0154477 0.000180574 0 0.00456002 0 0)
(0.0151181 -0.000224517 0 0.00349492 0 0)
(0.014142 -0.000490317 0 0.00333149 0 0)
(0.0138253 -0.00112176 0 0.00371258 0 0)
(0.014235 -0.0022207 0 0.00455458 0 0)
(0.0154867 -0.00380954 0 0.00591419 0 0)
(0.0176511 -0.00604342 0 0.00796965 0 0)
(0.0208806 -0.00925274 0 0.0109996 0 0)
(0.0255029 -0.0138977 0 0.015466 0 0)
(0.0320036 -0.0205498 0 0.0220251 0 0)
(0.0407224 -0.0298792 0 0.0317658 0 0)
(0.0519609 -0.0426865 0 0.0461646 0 0)
(0.0653707 -0.0598141 0 0.0676786 0 0)
(0.080535 -0.0819619 0 0.0992253 0 0)
(0.0954594 -0.109073 0 0.145479 0 0)
(0.108752 -0.139859 0 0.210059 0 0)
(0.116895 -0.170468 0 0.298367 0 0)
(0.0328623 0.000345595 0 0.00579432 0 0)
(0.0127595 -0.000440389 0 0.004487 0 0)
(0.012104 -0.000754235 0 0.0036715 0 0)
(0.0110956 -0.00084448 0 0.00371007 0 0)
(0.0107758 -0.00125948 0 0.00426054 0 0)
(0.0109567 -0.00224633 0 0.00531738 0 0)
(0.0117437 -0.00388153 0 0.00701716 0 0)
(0.0133948 -0.00626971 0 0.00957032 0 0)
(0.0161645 -0.00964935 0 0.0132794 0 0)
(0.0202421 -0.0143779 0 0.0186393 0 0)
(0.0258018 -0.0209101 0 0.0263414 0 0)
(0.0328621 -0.0297602 0 0.0374868 0 0)
(0.0413971 -0.0414714 0 0.0534943 0 0)
(0.0509844 -0.056481 0 0.0765754 0 0)
(0.0611085 -0.0749458 0 0.109112 0 0)
(0.070409 -0.0962657 0 0.154708 0 0)
(0.0779845 -0.118879 0 0.215539 0 0)
(0.0820951 -0.139552 0 0.295185 0 0)
(0.0349477 0.000778999 0 0.0068492 0 0)
(0.0145836 -0.000309098 0 0.00500951 0 0)
(0.0135115 -0.000833705 0 0.00387681 0 0)
(0.0121963 -0.000978472 0 0.00396623 0 0)
(0.0120046 -0.00137763 0 0.00470384 0 0)
(0.0125427 -0.00232362 0 0.00603299 0 0)
(0.0136018 -0.00393549 0 0.00809314 0 0)
(0.0151896 -0.00631415 0 0.0111264 0 0)
(0.0173862 -0.0096398 0 0.0154791 0 0)
(0.0203007 -0.0141787 0 0.0216859 0 0)
(0.0240835 -0.0202774 0 0.0304645 0 0)
(0.0287542 -0.028272 0 0.0428929 0 0)
(0.0343027 -0.0384782 0 0.06026 0 0)
(0.0403582 -0.0509501 0 0.0844845 0 0)
(0.0465507 -0.0655007 0 0.117382 0 0)
(0.0518821 -0.0811348 0 0.16167 0 0)
(0.0560533 -0.0964498 0 0.21842 0 0)
(0.0579915 -0.108562 0 0.290147 0 0)
(0.0383927 0.00128806 0 0.00721641 0 0)
(0.0174323 0.000186511 0 0.00612116 0 0)
(0.0163975 -0.000493179 0 0.00502912 0 0)
(0.015101 -0.000895911 0 0.00512067 0 0)
(0.0145526 -0.00153507 0 0.00596233 0 0)
(0.0145553 -0.00263894 0 0.00752563 0 0)
(0.0152211 -0.004317 0 0.00994548 0 0)
(0.016656 -0.00666018 0 0.0134584 0 0)
(0.0188054 -0.00983203 0 0.0184161 0 0)
(0.0215601 -0.0140648 0 0.0253634 0 0)
(0.0248611 -0.0196312 0 0.0349958 0 0)
(0.0285491 -0.0267366 0 0.0483164 0 0)
(0.0324859 -0.0355151 0 0.0664383 0 0)
(0.0363209 -0.0458012 0 0.0909703 0 0)
(0.0397534 -0.0572286 0 0.123229 0 0)
(0.0422431 -0.068749 0 0.165262 0 0)
(0.0437413 -0.0791199 0 0.217417 0 0)
(0.0439274 -0.0860956 0 0.281546 0 0)
(0.0348635 0.000301344 0 0.00765045 0 0)
(0.01562 -0.000820823 0 0.00621284 0 0)
(0.0149906 -0.00139201 0 0.00519911 0 0)
(0.0136097 -0.00144671 0 0.0053705 0 0)
(0.0128646 -0.00171818 0 0.0063609 0 0)
(0.0126261 -0.00260479 0 0.00809423 0 0)
(0.0128535 -0.00417632 0 0.0107244 0 0)
(0.013544 -0.00637881 0 0.0145479 0 0)
(0.0146564 -0.00923392 0 0.0199497 0 0)
(0.0161759 -0.0128585 0 0.0274622 0 0)
(0.0181099 -0.0174161 0 0.0377166 0 0)
(0.0203677 -0.0230077 0 0.0516056 0 0)
(0.0227868 -0.0296451 0 0.0700659 0 0)
(0.0250782 -0.0370509 0 0.0944291 0 0)
(0.0269977 -0.0447852 0 0.125616 0 0)
(0.028223 -0.0518538 0 0.165202 0 0)
(0.0288799 -0.0572369 0 0.213049 0 0)
(0.0289444 -0.0591281 0 0.270648 0 0)
(0.0373386 0.000443639 0 0.00869165 0 0)
(0.0177645 -0.00105275 0 0.00733322 0 0)
(0.0170511 -0.0016906 0 0.00632456 0 0)
(0.0156925 -0.00180793 0 0.00661739 0 0)
(0.0151923 -0.00222542 0 0.00779517 0 0)
(0.0152315 -0.00318452 0 0.00980343 0 0)
(0.0155614 -0.00466662 0 0.0128004 0 0)
(0.0160468 -0.00662776 0 0.0170822 0 0)
(0.0166306 -0.00910461 0 0.0230123 0 0)
(0.0173448 -0.0121753 0 0.0310848 0 0)
(0.0182482 -0.0159249 0 0.0418671 0 0)
(0.0192908 -0.0203301 0 0.0561296 0 0)
(0.0204291 -0.0252778 0 0.0745921 0 0)
(0.0214702 -0.0303597 0 0.0982767 0 0)
(0.0223543 -0.0351003 0 0.12769 0 0)
(0.0229701 -0.0385486 0 0.163971 0 0)
(0.0235006 -0.0399864 0 0.206607 0 0)
(0.0242071 -0.0378907 0 0.256798 0 0)
(0.0365892 0.00172096 0 0.0104731 0 0)
(0.0164775 -0.000756653 0 0.00888564 0 0)
(0.015416 -0.00150935 0 0.00726254 0 0)
(0.0143462 -0.0015654 0 0.00744854 0 0)
(0.0139362 -0.00169838 0 0.00871411 0 0)
(0.0135797 -0.0022535 0 0.010886 0 0)
(0.0133107 -0.00331418 0 0.0140994 0 0)
(0.0133014 -0.00481815 0 0.0186303 0 0)
(0.0135478 -0.00669329 0 0.0248302 0 0)
(0.0139486 -0.00889105 0 0.0331574 0 0)
(0.014414 -0.0113871 0 0.0440816 0 0)
(0.0148338 -0.0140594 0 0.0582115 0 0)
(0.0151569 -0.0167201 0 0.0760314 0 0)
(0.0153519 -0.0189396 0 0.0982808 0 0)
(0.015454 -0.0203104 0 0.125133 0 0)
(0.0156507 -0.020051 0 0.157403 0 0)
(0.0161914 -0.0177318 0 0.194305 0 0)
(0.0175287 -0.0122009 0 0.236891 0 0)
(0.0317084 5.36946e-05 0 0.0106868 0 0)
(0.0152373 -0.00171152 0 0.0100272 0 0)
(0.0150113 -0.00290909 0 0.00859034 0 0)
(0.0131909 -0.00322372 0 0.00880679 0 0)
(0.0120389 -0.00339079 0 0.0101545 0 0)
(0.0113841 -0.00392713 0 0.0125451 0 0)
(0.0111965 -0.00494911 0 0.0160722 0 0)
(0.0113715 -0.00628801 0 0.0209374 0 0)
(0.0116506 -0.00774217 0 0.0274004 0 0)
(0.0118313 -0.00917784 0 0.0358042 0 0)
(0.0118728 -0.0105074 0 0.0464822 0 0)
(0.0118069 -0.0115817 0 0.0598672 0 0)
(0.0117064 -0.0121931 0 0.0762351 0 0)
(0.0116638 -0.0119789 0 0.0961031 0 0)
(0.0117783 -0.0105829 0 0.119441 0 0)
(0.012298 -0.00745682 0 0.146855 0 0)
(0.0134365 -0.00227193 0 0.177474 0 0)
(0.0157113 0.00568176 0 0.2122 0 0)
(0.0363768 0.000651622 0 0.0116722 0 0)
(0.0160325 -0.00119375 0 0.0113277 0 0)
(0.0139634 -0.00179244 0 0.0098156 0 0)
(0.011723 -0.00163318 0 0.00979581 0 0)
(0.0107682 -0.00129329 0 0.0110652 0 0)
(0.0102542 -0.00122423 0 0.0134764 0 0)
(0.00986701 -0.00138673 0 0.0169904 0 0)
(0.00954758 -0.00150863 0 0.021705 0 0)
(0.00924123 -0.00137702 0 0.0278076 0 0)
(0.00896942 -0.000887554 0 0.0355668 0 0)
(0.00883503 4.9979e-06 0 0.0452189 0 0)
(0.00893995 0.0014147 0 0.05706 0 0)
(0.0093487 0.0035168 0 0.0712246 0 0)
(0.0101618 0.00662658 0 0.0880137 0 0)
(0.011455 0.0110235 0 0.107217 0 0)
(0.0135049 0.0170892 0 0.129227 0 0)
(0.016481 0.0250017 0 0.153189 0 0)
(0.02085 0.0351407 0 0.179874 0 0)
(0.0364459 0.00175179 0 0.0132363 0 0)
(0.0180807 0.000456625 0 0.0135592 0 0)
(0.0160747 -0.000127992 0 0.0109541 0 0)
(0.013841 0.000259757 0 0.0102973 0 0)
(0.0128043 0.000978395 0 0.0113662 0 0)
(0.0122716 0.00168971 0 0.0136579 0 0)
(0.0119238 0.00247011 0 0.0169661 0 0)
(0.0117476 0.00347018 0 0.0212981 0 0)
(0.0117775 0.00478331 0 0.0267927 0 0)
(0.0120467 0.00650284 0 0.0336629 0 0)
(0.012577 0.00872628 0 0.0420495 0 0)
(0.0134325 0.0116381 0 0.0520828 0 0)
(0.0146718 0.0153974 0 0.0637368 0 0)
(0.0164686 0.0202688 0 0.0771154 0 0)
(0.0189144 0.0263296 0 0.0919761 0 0)
(0.0223413 0.0338634 0 0.108589 0 0)
(0.0268061 0.0427176 0 0.126298 0 0)
(0.0328109 0.053325 0 0.145677 0 0)
(0.0359175 0.000818191 0 0.0114697 0 0)
(0.0165097 -0.000702498 0 0.0108041 0 0)
(0.0141558 -0.000988285 0 0.00904485 0 0)
(0.0116669 -0.000298598 0 0.0088034 0 0)
(0.0104119 0.000467507 0 0.00975174 0 0)
(0.00955226 0.00105945 0 0.0116476 0 0)
(0.00905006 0.00170729 0 0.0143469 0 0)
(0.00900343 0.00269022 0 0.0178364 0 0)
(0.0094087 0.00415339 0 0.0221773 0 0)
(0.0102052 0.00616842 0 0.0274665 0 0)
(0.0113179 0.00878756 0 0.0337553 0 0)
(0.0127545 0.0121127 0 0.0411068 0 0)
(0.014618 0.0162284 0 0.0494641 0 0)
(0.0171269 0.0212827 0 0.0588736 0 0)
(0.0204322 0.0273016 0 0.0691187 0 0)
(0.0248025 0.0344406 0 0.0803639 0 0)
(0.0302837 0.042561 0 0.0921455 0 0)
(0.0371906 0.0519307 0 0.104874 0 0)
(0.0323841 0.00115445 0 0.0123883 0 0)
(0.0138572 0.000663179 0 0.0114337 0 0)
(0.0130796 0.000228378 0 0.0086283 0 0)
(0.01208 0.000612209 0 0.00801255 0 0)
(0.01144 0.00149901 0 0.00877547 0 0)
(0.010926 0.00251218 0 0.0103578 0 0)
(0.0108532 0.00362813 0 0.012502 0 0)
(0.0113802 0.00503576 0 0.0151613 0 0)
(0.0124951 0.0069323 0 0.0183845 0 0)
(0.0141505 0.00944897 0 0.0222168 0 0)
(0.0163256 0.0126502 0 0.0266546 0 0)
(0.0190783 0.0165804 0 0.0317193 0 0)
(0.0225287 0.0212393 0 0.0373794 0 0)
(0.0268521 0.0266683 0 0.043674 0 0)
(0.0321669 0.0328335 0 0.0504589 0 0)
(0.038643 0.0398069 0 0.0578494 0 0)
(0.0463292 0.0474781 0 0.0655308 0 0)
(0.0553753 0.0559876 0 0.0737376 0 0)
(0.0363772 0.00122029 0 0.0117116 0 0)
(0.0171139 0.00126045 0 0.0111546 0 0)
(0.0149001 0.000893036 0 0.00884526 0 0)
(0.0133867 0.00111671 0 0.00799499 0 0)
(0.012755 0.00171882 0 0.00820342 0 0)
(0.0125137 0.00246377 0 0.0091043 0 0)
(0.0126581 0.00335955 0 0.0104842 0 0)
(0.0131644 0.004567 0 0.012266 0 0)
(0.0140366 0.00623256 0 0.0144383 0 0)
(0.0153703 0.0084446 0 0.0170167 0 0)
(0.0173078 0.0112328 0 0.020002 0 0)
(0.0200129 0.0146145 0 0.0234059 0 0)
(0.023622 0.0185779 0 0.0271991 0 0)
(0.0282924 0.02316 0 0.0314004 0 0)
(0.0340461 0.028309 0 0.0358958 0 0)
(0.0410388 0.0340995 0 0.0407801 0 0)
(0.0491791 0.0404116 0 0.045837 0 0)
(0.0586333 0.0473641 0 0.0511805 0 0)
(0.043597 0.000830398 0 0.0104804 0 0)
(0.0200969 0.0007987 0 0.00920796 0 0)
(0.016764 0.000843009 0 0.00717142 0 0)
(0.0150459 0.00123846 0 0.00663291 0 0)
(0.014296 0.00181367 0 0.00676393 0 0)
(0.0140068 0.00246169 0 0.0073105 0 0)
(0.0141931 0.00329285 0 0.00820455 0 0)
(0.0148824 0.00447101 0 0.00941858 0 0)
(0.0160927 0.00606914 0 0.0109393 0 0)
(0.0178969 0.00809261 0 0.0127653 0 0)
(0.0204076 0.0105287 0 0.0148827 0 0)
(0.0237406 0.0133885 0 0.0172809 0 0)
(0.0279768 0.0166893 0 0.0199279 0 0)
(0.0331942 0.0204784 0 0.0228264 0 0)
(0.0393933 0.0247475 0 0.0258945 0 0)
(0.0466599 0.0295431 0 0.0292137 0 0)
(0.0549724 0.0348034 0 0.0326453 0 0)
(0.0643653 0.0405515 0 0.0362447 0 0)
(0.0331864 0.00199392 0 0.00959778 0 0)
(0.0135362 0.000793112 0 0.00853556 0 0)
(0.0122564 0.000633645 0 0.00652012 0 0)
(0.0115564 0.00109497 0 0.00571849 0 0)
(0.0113377 0.00166291 0 0.00563776 0 0)
(0.0111149 0.00217195 0 0.00597164 0 0)
(0.0111051 0.00276053 0 0.00657445 0 0)
(0.0115947 0.0036523 0 0.0073798 0 0)
(0.0127846 0.0049441 0 0.0083667 0 0)
(0.0147832 0.00662683 0 0.00953418 0 0)
(0.0176294 0.00867931 0 0.0108781 0 0)
(0.0213458 0.0111148 0 0.0124 0 0)
(0.0259556 0.0139515 0 0.0140833 0 0)
(0.0315276 0.0172233 0 0.0159307 0 0)
(0.0380948 0.020908 0 0.0178899 0 0)
(0.0457634 0.0250065 0 0.0200128 0 0)
(0.0545694 0.0294532 0 0.0222088 0 0)
(0.0645384 0.0342458 0 0.0245131 0 0)
(0.0356792 0.000612626 0 0.00872283 0 0)
(0.0166846 -0.000119706 0 0.00641926 0 0)
(0.0151179 -2.25856e-05 0 0.00452091 0 0)
(0.0141469 0.000475933 0 0.00389523 0 0)
(0.0141404 0.00106761 0 0.00382218 0 0)
(0.01445 0.00169042 0 0.00404255 0 0)
(0.0150625 0.00239486 0 0.00442171 0 0)
(0.0161096 0.00327441 0 0.00490858 0 0)
(0.0177189 0.0043982 0 0.00550624 0 0)
(0.0200319 0.0058057 0 0.00623075 0 0)
(0.0231706 0.00752248 0 0.00708422 0 0)
(0.0272197 0.00956825 0 0.00806169 0 0)
(0.0322304 0.0119422 0 0.00914895 0 0)
(0.0382626 0.0146511 0 0.0103479 0 0)
(0.0453304 0.0176622 0 0.0116239 0 0)
(0.0535069 0.0209721 0 0.0130095 0 0)
(0.0627863 0.0245293 0 0.0144461 0 0)
(0.0731522 0.0283528 0 0.0159468 0 0)
(0.0330755 0.000354913 0 0.00790288 0 0)
(0.0138508 1.91331e-05 0 0.00593253 0 0)
(0.0124302 -6.27539e-05 0 0.00413042 0 0)
(0.0117736 9.15181e-05 0 0.00347237 0 0)
(0.0118971 0.000386157 0 0.00335058 0 0)
(0.0122882 0.000816389 0 0.00345843 0 0)
(0.0131384 0.00139991 0 0.00364803 0 0)
(0.0146035 0.00215643 0 0.00388878 0 0)
(0.0166758 0.00308347 0 0.0041979 0 0)
(0.0193368 0.00418649 0 0.00459675 0 0)
(0.0226351 0.00549003 0 0.0050902 0 0)
(0.0266824 0.00703345 0 0.00567152 0 0)
(0.0316036 0.00884369 0 0.00632766 0 0)
(0.0375404 0.0109391 0 0.00705226 0 0)
(0.0445483 0.0132991 0 0.0078176 0 0)
(0.0527123 0.0159138 0 0.00865396 0 0)
(0.0619906 0.0187282 0 0.00951922 0 0)
(0.0723898 0.0217529 0 0.0104131 0 0)
(0.0351871 -0.000783268 0 0.00682912 0 0)
(0.0166405 -0.00042965 0 0.00463301 0 0)
(0.0156259 -0.000342428 0 0.0032447 0 0)
(0.0148724 -0.000170643 0 0.00272506 0 0)
(0.0144584 0.0001261 0 0.00253156 0 0)
(0.0141635 0.000507385 0 0.00249506 0 0)
(0.0144418 0.000965153 0 0.00254018 0 0)
(0.0155276 0.00152776 0 0.00264566 0 0)
(0.0173939 0.00222542 0 0.00281186 0 0)
(0.0199641 0.00308464 0 0.00303873 0 0)
(0.0232303 0.00412431 0 0.00332071 0 0)
(0.0272645 0.00535387 0 0.0036515 0 0)
(0.0321753 0.00676873 0 0.00402566 0 0)
(0.0380827 0.00837126 0 0.00444542 0 0)
(0.0450194 0.0101477 0 0.00489521 0 0)
(0.0530612 0.0121049 0 0.00539281 0 0)
(0.0621741 0.0142186 0 0.00591571 0 0)
(0.0723362 0.0164962 0 0.00645273 0 0)
(0.0386621 0.000476661 0 0.00557357 0 0)
(0.0172298 9.31057e-05 0 0.00339029 0 0)
(0.0146424 0.000223853 0 0.00241262 0 0)
(0.0136689 0.000476448 0 0.0020949 0 0)
(0.0135515 0.000696767 0 0.00200002 0 0)
(0.0135097 0.000868251 0 0.00197642 0 0)
(0.0138383 0.00107069 0 0.00198302 0 0)
(0.0148177 0.00138091 0 0.00201595 0 0)
(0.0165371 0.00181825 0 0.00207943 0 0)
(0.0190278 0.00237486 0 0.00217496 0 0)
(0.0223262 0.00304837 0 0.0023 0 0)
(0.0264897 0.0038516 0 0.00245124 0 0)
(0.0315941 0.0047999 0 0.00262609 0 0)
(0.0377326 0.00591211 0 0.0028264 0 0)
(0.044917 0.00718065 0 0.00304288 0 0)
(0.0531981 0.00860005 0 0.00329068 0 0)
(0.0625438 0.0101408 0 0.00355685 0 0)
(0.0728804 0.0117933 0 0.00383417 0 0)
(0.0338206 9.49319e-06 0 0.00471736 0 0)
(0.0161382 -0.000222258 0 0.00283341 0 0)
(0.0148536 -0.000272227 0 0.00192663 0 0)
(0.0141183 -0.000132031 0 0.00163806 0 0)
(0.0141733 1.1963e-05 0 0.00150062 0 0)
(0.0143672 8.98191e-05 0 0.00140418 0 0)
(0.014972 0.000173497 0 0.00133176 0 0)
(0.0162837 0.000340617 0 0.00128449 0 0)
(0.0184016 0.000616139 0 0.00126163 0 0)
(0.0213007 0.000995218 0 0.00125906 0 0)
(0.0249288 0.00146849 0 0.00127381 0 0)
(0.0292839 0.00203449 0 0.0013064 0 0)
(0.0344429 0.00269755 0 0.00135993 0 0)
(0.0405421 0.00347001 0 0.0014374 0 0)
(0.0476634 0.00435707 0 0.00153517 0 0)
(0.0559089 0.0053581 0 0.00166017 0 0)
(0.0653177 0.00646276 0 0.00180189 0 0)
(0.0758016 0.00765998 0 0.00195182 0 0)
(0.0348844 -0.00115659 0 0.0033996 0 0)
(0.0166832 -0.000877176 0 0.00177724 0 0)
(0.0158448 -0.000536995 0 0.00120669 0 0)
(0.0155626 -0.000409343 0 0.00103058 0 0)
(0.0161072 -0.000416531 0 0.000953397 0 0)
(0.0168792 -0.000408519 0 0.000905478 0 0)
(0.018033 -0.000325401 0 0.00087139 0 0)
(0.0197483 -0.00018356 0 0.000851498 0 0)
(0.0221754 3.82809e-06 0 0.000843761 0 0)
(0.0254462 0.000247994 0 0.000844921 0 0)
(0.0296128 0.000567334 0 0.000853392 0 0)
(0.0346948 0.000970984 0 0.000869055 0 0)
(0.0407355 0.00145774 0 0.000892643 0 0)
(0.0478467 0.00202017 0 0.000923924 0 0)
(0.0560962 0.0026502 0 0.000959464 0 0)
(0.0656529 0.00333819 0 0.00100565 0 0)
(0.076532 0.0040798 0 0.00105759 0 0)
(0.0887746 0.00487572 0 0.00110648 0 0)
(0.036514 -0.00115952 0 0.0024442 0 0)
(0.0178958 -0.000535798 0 0.00130763 0 0)
(0.0167346 -0.000351423 0 0.000994666 0 0)
(0.0152967 -0.000240232 0 0.000850625 0 0)
(0.0148259 -0.000186944 0 0.000756534 0 0)
(0.0151128 -0.000135549 0 0.000693156 0 0)
(0.0161196 -6.24611e-05 0 0.000641686 0 0)
(0.0177342 1.11489e-05 0 0.000596652 0 0)
(0.0200018 8.59792e-05 0 0.000561535 0 0)
(0.0231628 0.000177406 0 0.000532189 0 0)
(0.0274413 0.000290967 0 0.00050615 0 0)
(0.0329879 0.000433728 0 0.000485515 0 0)
(0.0399327 0.000612512 0 0.000469684 0 0)
(0.04841 0.000823139 0 0.000455898 0 0)
(0.0585149 0.0010579 0 0.000444497 0 0)
(0.0703536 0.00131206 0 0.000441293 0 0)
(0.0839544 0.00158315 0 0.000440237 0 0)
(0.0992897 0.00188571 0 0.000433439 0 0)
(0.0202858 -0.0426338 5.47383e-22 0.0993264 -1.13039e-21 1.50793e-37)
(0.147251 -0.0887182 -1.33119e-21 0.0597879 5.40461e-22 1.4868e-37)
(0.354726 -0.103751 0 0.0434846 0 0)
(0.57422 -0.0817581 0 0.039113 0 0)
(0.721501 -0.0358103 0 0.0433021 0 0)
(0.809907 -0.00454118 6.70909e-22 0.0632753 7.34777e-22 1.40044e-37)
(0.86524 -0.00662073 0 0.088719 0 0)
(0.955737 -0.0481427 0 0.109453 0 0)
(1.14366 -0.118356 0 0.124462 0 0)
(1.4674 -0.203896 0 0.133223 0 0)
(1.95121 -0.291171 2.13014e-21 0.135306 -2.74718e-22 1.29703e-37)
(2.59242 -0.359466 0 0.121202 0 0)
(3.33964 -0.36227 0 0.0864163 0 0)
(4.0901 -0.34763 0 0.0692344 0 0)
(4.83864 -0.314473 0 0.059381 0 0)
(5.4906 -0.214703 2.46918e-21 0.0469561 2.93598e-22 1.19881e-37)
(5.97049 -0.098377 0 0.0454692 0 0)
(6.30706 -0.00164866 0 0.053575 0 0)
(6.53158 0.0793425 0 0.0708533 0 0)
(6.67721 0.142295 0 0.091569 0 0)
(6.76009 0.152009 0 0.0908338 0 0)
(6.82414 0.112929 0 0.100592 0 0)
(6.93617 0.100873 0 0.111287 0 0)
(6.99356 0.0955641 -3.09849e-21 0.1317 9.02966e-22 1.05226e-37)
(7.09466 0.0489812 4.25808e-21 0.157264 -9.55989e-22 1.03484e-37)
(7.21528 0.0090862 -5.42347e-21 0.20711 8.27804e-22 1.01762e-37)
(7.44095 -0.0671951 -6.53651e-21 0.280411 6.41707e-22 1.00059e-37)
(7.80191 -0.205899 0 0.325184 0 0)
(8.31126 -0.343848 0 0.34252 0 0)
(8.89495 -0.403816 9.83976e-21 0.309023 -3.97934e-22 9.5062e-38)
(9.53093 -0.410147 1.09313e-20 0.280892 -6.77151e-22 9.34342e-38)
(10.2261 -0.458085 0 0.286361 0 0)
(11.0407 -0.525719 0 0.291163 0 0)
(11.9856 -0.599283 1.43598e-20 0.303506 -6.33665e-22 8.86703e-38)
(13.0214 -0.642478 0 0.310604 0 0)
(14.1012 -0.69125 0 0.32798 0 0)
(15.2175 -0.77575 -1.73355e-20 0.363262 4.25406e-22 8.40852e-38)
(16.398 -0.871572 0 0.418877 0 0)
(17.6998 -0.890429 -1.91544e-20 0.438528 3.93175e-22 8.11266e-38)
(19.0386 -0.824263 -4.01881e-20 0.400037 1.108e-21 3.18705e-37)
(20.2742 -0.714182 0 0.328852 0 0)
(21.2148 -0.553068 0 0.284496 0 0)
(21.7441 -0.39726 0 0.269607 0 0)
(21.8821 -0.316313 0 0.246032 0 0)
(22.294 -0.463334 0 0.268275 0 0)
(22.6333 -0.441584 -5.11918e-20 0.351581 1.02962e-21 2.85515e-37)
(22.8505 -0.620196 -5.24078e-20 0.319674 7.49856e-22 2.80249e-37)
(22.8144 -0.725068 -5.33722e-20 0.425481 6.89422e-22 2.75058e-37)
(22.8378 -0.313256 0 0.226227 0 0)
(22.297 0.0100996 5.52222e-20 0.299281 -1.09647e-21 2.64897e-37)
(22.0449 -0.159811 0 0.25261 0 0)
(22.226 -0.296316 -5.6436e-20 0.220137 8.02365e-22 2.5503e-37)
(22.6526 -0.406842 -5.6924e-20 0.194639 7.43347e-22 2.50206e-37)
(23.2462 -0.44671 0 0.175984 0 0)
(23.9401 -0.487885 0 0.159334 0 0)
(24.7204 -0.524556 0 0.144231 0 0)
(25.4592 -0.57665 -5.91692e-20 0.129816 6.45456e-22 2.31631e-37)
(26.2117 -0.503872 0 0.132031 0 0)
(26.778 -0.374408 0 0.168496 0 0)
(27.5199 -0.429154 0 0.148449 0 0)
(28.6002 -0.490524 0 0.124087 0 0)
(29.8392 -0.525257 0 0.104358 0 0)
(31.1299 -0.492622 0 0.0805785 0 0)
(32.269 -0.411482 0 0.0648678 0 0)
(33.2023 -0.323018 0 0.0583356 0 0)
(33.9379 -0.242451 6.07846e-20 0.0579592 -2.3649e-22 1.93814e-37)
(34.4891 -0.177008 0 0.0584804 0 0)
(34.8803 -0.122979 0 0.0574737 0 0)
(35.1217 -0.0755144 -5.88587e-20 0.0558738 7.55457e-23 1.82372e-37)
(35.2191 -0.0330934 -5.78572e-20 0.0544386 1.2228e-23 1.78681e-37)
(35.1836 0.00470133 0 0.0530585 0 0)
(35.0222 0.0346669 5.54012e-20 0.0523151 8.00846e-23 1.71479e-37)
(34.7481 0.0561853 -5.4004e-20 0.0528959 -1.10474e-22 1.67967e-37)
(34.3854 0.079464 0 0.0533319 0 0)
(33.93 0.106737 5.09958e-20 0.0533416 1.43723e-22 1.61116e-37)
(33.3816 0.127595 0 0.0582886 0 0)
(32.7699 0.152207 0 0.0661083 0 0)
(32.0138 0.190119 -4.58141e-20 0.0689029 -2.99731e-22 1.51261e-37)
(31.0786 0.225062 0 0.0591868 0 0)
(29.967 0.222082 4.20755e-20 0.0425924 2.44237e-22 1.44967e-37)
(28.8167 0.255978 0 0.0345361 0 0)
(27.5588 0.343273 -3.8859e-20 0.0366024 -1.87371e-22 1.38887e-37)
(26.1703 0.423069 -3.75096e-20 0.0507655 -1.93725e-22 1.35925e-37)
(24.6077 0.391457 -3.62636e-20 0.0542279 -1.97775e-22 1.33015e-37)
(23.4614 0.25796 -7.01969e-20 0.0438676 -4.71883e-22 5.20619e-37)
(22.6056 0.174638 6.78377e-20 0.0427875 5.91615e-22 5.09378e-37)
(21.9648 0.161223 0 0.0860961 0 0)
(21.0423 -0.0947759 0 0.17817 0 0)
(20.6825 -0.0365439 0 0.146813 0 0)
(20.5955 -0.340603 6.19182e-20 0.323467 -1.76371e-22 4.66338e-37)
(21.8093 -0.586187 6.25813e-20 0.233518 -6.57289e-22 4.56046e-37)
(23.7058 -0.686083 -6.49109e-20 0.17126 1.17804e-21 4.4594e-37)
(26.063 -0.722649 0 0.125446 0 0)
(28.5566 -0.732755 7.26929e-20 0.0916858 -1.39002e-21 4.26276e-37)
(31.0666 -0.681484 7.69456e-20 0.0688464 -1.31309e-21 4.1671e-37)
(33.3291 -0.59949 8.08064e-20 0.0541971 -1.18295e-21 4.07316e-37)
(35.3073 -0.496324 0 0.0451247 0 0)
(36.8762 -0.38509 0 0.0403938 0 0)
(38.0366 -0.273631 0 0.0380397 0 0)
(38.7716 -0.168447 8.65865e-20 0.0366043 -3.58254e-22 3.71394e-37)
(39.1094 -0.0741311 0 0.0361009 0 0)
(39.0879 0.0040563 0 0.0364121 0 0)
(38.7843 0.063212 -7.88195e-20 0.0369717 -1.64399e-22 3.46112e-37)
(38.2697 0.102688 0 0.0374033 0 0)
(37.6202 0.123256 0 0.037515 0 0)
(36.9083 0.127809 -6.64285e-20 0.0371309 -1.97692e-22 3.22201e-37)
(36.1943 0.120833 0 0.0362278 0 0)
(35.5213 0.1076 0 0.0347759 0 0)
(34.9118 0.0935018 5.62287e-20 0.0327343 3.41606e-23 2.99613e-37)
(34.3651 0.0837715 5.38718e-20 0.0300889 -2.0385e-23 2.92368e-37)
(33.8574 0.0831351 0 0.0268886 0 0)
(33.3405 0.0953976 -5.04131e-20 0.0232824 6.46623e-23 2.7829e-37)
(32.7458 0.122625 0 0.019563 0 0)
(31.9918 0.164663 4.73017e-20 0.0161166 2.76647e-23 2.64743e-37)
(31 0.218962 0 0.0133345 0 0)
(29.719 0.28102 4.26647e-20 0.0115122 2.21543e-22 2.51707e-37)
(28.1146 0.344464 3.94207e-20 0.0107709 3.22964e-22 2.45374e-37)
(26.1943 0.402317 0 0.0110347 0 0)
(24.0012 0.448356 0 0.0120833 0 0)
(21.5913 0.478302 0 0.0135909 0 0)
(19.0569 0.488816 0 0.0152168 0 0)
(16.498 0.478728 0 0.0165774 0 0)
(14.0256 0.449204 0 0.0173272 0 0)
(11.7387 0.40384 0 0.0172164 0 0)
(9.70359 0.349181 9.3737e-21 0.0162747 2.35844e-22 1.98947e-37)
(7.94751 0.292578 -7.61115e-21 0.0148361 -1.82098e-22 1.93649e-37)
(6.47171 0.238969 0 0.0132022 0 0)
(5.25882 0.191719 0 0.0116566 0 0)
(4.27952 0.150814 0 0.0102164 0 0)
(3.50144 0.1171 0 0.00903743 0 0)
(2.89645 0.0901587 -6.90709e-21 0.00811121 -1.30519e-22 6.74857e-37)
(2.43832 0.067288 0 0.00721549 0 0)
(2.10047 0.047681 5.30747e-21 0.00638853 9.35014e-23 6.37729e-37)
(1.86374 0.0320781 -4.62199e-21 0.0056853 -7.64083e-23 6.19734e-37)
(1.71162 0.0196259 0 0.00509035 0 0)
(1.62779 0.00995224 0 0.00460739 0 0)
(1.59813 0.00267115 0 0.00423645 0 0)
(1.61068 -0.00259608 2.34243e-21 0.00396996 3.23202e-24 5.51411e-37)
(1.65546 -0.00618759 1.90489e-21 0.00379848 -2.09576e-23 5.35216e-37)
(1.7238 -0.0083533 0 0.00371791 0 0)
(1.80826 -0.00927198 1.2676e-21 0.00372575 -7.30365e-23 5.03845e-37)
(1.90216 -0.00907807 1.06855e-21 0.00382186 -9.55547e-23 4.88659e-37)
(1.99981 -0.00798397 -9.34698e-22 0.0040043 1.15597e-22 4.73799e-37)
(2.09682 -0.00620589 0 0.00427012 0 0)
(2.18971 -0.00394253 0 0.004621 0 0)
(2.27587 -0.00131074 -9.88845e-22 0.00506022 1.90601e-22 4.31119e-37)
(2.35332 0.00159255 0 0.0056064 0 0)
(2.42054 0.00466126 0 0.00629105 0 0)
(2.47694 0.00778794 0 0.00716075 0 0)
(2.52205 0.011046 0 0.00827967 0 0)
(2.5562 0.0145859 2.51043e-21 0.0096875 -2.30551e-22 3.66022e-37)
(2.5795 0.0185021 2.979e-21 0.011316 -2.4383e-22 3.53864e-37)
(2.59311 0.0232009 0 0.0129851 0 0)
(2.59678 0.0297176 4.15915e-21 0.0143806 -2.37468e-22 3.30374e-37)
(2.58385 0.0387518 0 0.0162131 0 0)
(2.54648 0.0450964 0 0.0187176 0 0)
(2.50886 0.0485635 6.06886e-21 0.01964 -7.88432e-23 2.97137e-37)
(2.48381 0.0558641 0 0.0205854 0 0)
(2.45859 0.0622132 6.98686e-21 0.0210019 -2.76814e-23 2.76261e-37)
(2.42359 0.0592434 0 0.0189614 0 0)
(2.36914 0.0458074 0 0.0157442 0 0)