/*--------------------------------*- C++ -*----------------------------------*\
| =========                 |                                                 |
| \\      /  F ield         | OpenFOAM: The Open Source CFD Toolbox           |
|  \\    /   O peration     | Version:  2112                                  |
|   \\  /    A nd           | Website:  www.openfoam.com                      |
|    \\/     M anipulation  |                                                 |
\*---------------------------------------------------------------------------*/
FoamFile
{
    version     2.0;
    format      ascii;
    arch        "LSB;label=32;scalar=64";
    class       volScalarField;
    location    "0.073";
    object      s_0;
}
// * * * * * * * * * * * * * * * * * * * * * * * * * * * * * * * * * * * * * //

dimensions      [0 0 0 0 0 0 0];

internalField   nonuniform List<scalar> 
12225
(
1
1
1
1
1
1
1
1
1
1
1
1
1
1
1
1
1
1
1
1
1
1
1
1
1
1
1
1
1
1
1
1
1
1
1
1
1
1
1
1
1
1
1
1
1
1
1
1
1
1
1
1
1
1
1
1
1
1
1
1
1
1
1
1
1
1
1
1
1
1
1
1
1
1
1
1
1
1
1
1
1
1
1
1
1
1
1
1
1
1
1
1
1
1
1
1
1
1
1
1
1
1
1
1
1
1
1
1
1
1
1
1
1
1
1
1
1
1
1
1
1
1
1
1
1
1
1
1
1
1
1
1
1
1
1
1
1
1
1
1
1
1
1
1
1
1
1
1
1
1
1
1
1
1
1
1
1
1
1
1
1
1
1
1
1
1
1
1
1
1
1
1
1
1
1
1
1
1
1
1
1
1
1
1
1
1
1
1
1
1
1
1
1
1
1
1
1
1
1
1
1
1
1
1
1
1
1
1
1
1
1
1
1
1
1
1
1
1
1
1
1
1
1
1
1
1
1
1
1
1
1
1
1
1
1
1
1
1
1
1
1
1
1
1
1
1
1
1
1
1
1
1
1
1
1
1
1
1
1
1
1
1
1
1
1
1
1
1
1
1
1
1
1
1
1
1
1
1
1
1
1
1
1
1
1
1
1
1
1
1
1
1
1
1
1
1
1
1
1
1
1
1
1
1
1
1
1
1
1
1
1
1
1
1
1
1
1
1
1
1
1
1
1
1
1
1
1
1
1
1
1
1
1
1
1
1
1
1
1
1
1
1
1
1
1
1
1
1
1
1
1
1
1
1
1
1
1
1
1
1
1
1
1
1
1
1
1
1
1
1
1
1
1
1
1
1
1
1
1
1
1
1
1
1
1
1
1
1
1
1
1
1
1
1
1
1
1
1
1
1
1
1
1
1
1
1
1
1
1
1
1
1
1
1
1
1
1
1
1
1
1
1
1
1
1
1
1
1
1
1
1
1
1
1
1
1
1
1
1
1
1
1
1
1
1
1
1
1
1
1
1
1
1
1
1
1
1
1
1
1
1
1
1
1
1
1
1
1
1
1
1
1
1
1
1
1
1
1
1
1
1
1
1
1
1
1
1
1
1
1
1
1
1
1
1
1
1
1
1
1
1
1
1
1
1
1
1
1
1
1
1
1
1
1
1
1
1
1
1
1
1
1
1
1
1
1
1
1
1
1
1
1
1
1
1
1
1
1
1
1
0.743167
0.689176
0.663396
0.659374
0.659186
0.660207
0.662137
0.664706
0.669864
0.672932
0.677227
0.681484
0.684146
0.685736
0.687188
0.688358
0.689283
0.689196
0.688801
0.687992
0.686336
0.684313
0.683376
0.683251
0.683673
0.686187
0.69531
0.710899
0.729208
0.746598
0.752648
0.741832
0.704415
0.700502
0.706114
0.707115
0.707927
0.709652
0.713642
0.72324
0.735949
0.744148
0.746632
0.745694
0.739824
0.718226
0.70903
0.714759
0.755205
0.791813
0.800593
0.799699
0.793486
0.786362
0.780796
0.776784
0.7729
0.766627
0.756082
0.752326
0.752655
0.756645
0.765057
0.776184
0.787572
0.797442
0.805108
0.810635
0.813984
0.815457
0.816199
0.816773
0.817571
0.81876
0.820461
0.822779
0.825487
0.828415
0.83076
0.83143
0.831394
0.830886
0.830011
0.828726
0.827215
0.825773
0.824473
0.823243
0.821938
0.820427
0.819735
0.819569
0.819549
0.819394
0.818362
0.818191
0.823178
0.834559
0.838846
0.840441
0.840992
0.84109
0.841073
0.840883
0.84038
0.83947
0.838138
0.83644
0.83447
0.832313
0.830584
0.829757
0.829347
0.829277
0.829789
0.831186
0.832699
0.834792
0.836975
0.840226
0.844415
0.848965
0.853912
0.858396
0.862736
0.866362
0.869711
0.872812
0.875788
0.878585
0.881483
0.88417
0.886008
0.88688
0.886707
0.885108
0.88134
0.875381
0.867942
0.860086
0.853432
0.849593
0.848156
0.848339
0.851771
0.865053
0.8788
0.882431
0.878001
0.856334
0.837962
0.832375
0.833198
0.841676
0.852736
0.859088
0.862396
0.863828
0.864214
0.864174
0.863543
0.861004
0.857741
0.855707
0.854851
0.854602
0.854561
0.855
0.857508
0.867723
0.895442
0.920387
0.938245
0.949571
0.954334
0.954886
0.951066
0.917541
0.751502
0.53009
0.754105
0.738066
0.726328
0.70856
0.684133
0.685846
0.692047
0.705623
0.726041
0.744636
0.76432
0.783252
0.795326
0.803291
0.810715
0.81297
0.812383
0.810301
0.805738
0.797284
0.789026
0.775334
0.75264
0.726999
0.706744
0.69681
0.695206
0.696225
0.70088
0.716841
0.740147
0.745128
0.743045
0.73486
0.721322
0.708576
0.701467
0.701516
0.704745
0.713822
0.736979
0.762538
0.774567
0.77515
0.763398
0.732698
0.729129
0.757581
0.794211
0.800346
0.798028
0.79314
0.785513
0.774919
0.770746
0.769266
0.767449
0.766505
0.767131
0.781661
0.810135
0.820066
0.824136
0.825599
0.825854
0.825085
0.824983
0.825353
0.825609
0.825657
0.825628
0.825402
0.825193
0.825164
0.825157
0.825074
0.824565
0.822939
0.819364
0.813269
0.804505
0.797899
0.796272
0.796207
0.797521
0.800183
0.804344
0.809466
0.812531
0.813843
0.814684
0.815605
0.817124
0.819484
0.82219
0.825611
0.829629
0.831079
0.831055
0.827484
0.820552
0.812422
0.803161
0.794529
0.788744
0.78295
0.777253
0.77443
0.772505
0.771713
0.771414
0.771346
0.771769
0.773021
0.774556
0.776741
0.779234
0.781808
0.785275
0.788685
0.792463
0.797678
0.802626
0.808748
0.816937
0.826591
0.837108
0.848353
0.859854
0.870944
0.882159
0.894128
0.906567
0.916813
0.925639
0.933515
0.940509
0.946075
0.948359
0.947285
0.93903
0.925038
0.916886
0.915925
0.923207
0.946566
0.960358
0.963149
0.960126
0.942327
0.888934
0.85427
0.839594
0.830534
0.82476
0.822279
0.821935
0.823388
0.831464
0.84054
0.844382
0.845014
0.844691
0.843606
0.843296
0.843405
0.844159
0.847121
0.852314
0.855986
0.858582
0.86508
0.89129
0.927894
0.948338
0.955624
0.955474
0.948783
0.944494
0.933639
0.751342
0.750242
0.738394
0.709203
0.71223
0.724764
0.752041
0.801995
0.840393
0.869788
0.88549
0.894055
0.89829
0.899558
0.89933
0.89874
0.897705
0.895298
0.893491
0.89121
0.886109
0.881618
0.875274
0.861406
0.833011
0.791916
0.75158
0.729844
0.725477
0.728821
0.742493
0.751937
0.753505
0.752241
0.748164
0.733375
0.721506
0.722136
0.72897
0.751737
0.780218
0.788993
0.787195
0.780773
0.778667
0.781789
0.791325
0.799193
0.796943
0.789596
0.781289
0.776091
0.773077
0.771995
0.771848
0.773857
0.779145
0.791302
0.81749
0.831151
0.834952
0.835146
0.829954
0.819217
0.815415
0.814404
0.814208
0.814514
0.816299
0.820236
0.825559
0.82784
0.828284
0.828312
0.828055
0.827113
0.825039
0.821388
0.815722
0.807393
0.795897
0.783367
0.778165
0.776426
0.776442
0.781071
0.792339
0.801329
0.805116
0.807829
0.810932
0.813523
0.815244
0.817526
0.818626
0.818871
0.816636
0.807062
0.793014
0.782626
0.771418
0.764986
0.762002
0.758919
0.757446
0.756872
0.756725
0.757076
0.758476
0.759942
0.760601
0.761427
0.762427
0.762796
0.763549
0.765402
0.767448
0.770205
0.774802
0.779468
0.78386
0.787666
0.790169
0.792342
0.793856
0.795871
0.797965
0.801198
0.805855
0.812098
0.819982
0.830304
0.845976
0.86981
0.894586
0.915268
0.9335
0.948254
0.959447
0.967695
0.972075
0.972972
0.972633
0.972466
0.973857
0.977887
0.978883
0.976736
0.970318
0.959941
0.934405
0.893526
0.857998
0.837548
0.826798
0.820074
0.815908
0.813577
0.812179
0.811317
0.811098
0.811569
0.815045
0.823564
0.829357
0.833375
0.839627
0.855936
0.889191
0.911358
0.914794
0.908079
0.904647
0.913141
0.939871
0.952833
0.954728
0.954704
0.956663
0.956376
0.732203
0.680617
0.681184
0.699124
0.74813
0.814095
0.87673
0.902925
0.913471
0.917341
0.916725
0.914959
0.913474
0.909993
0.907027
0.904733
0.901927
0.898379
0.895632
0.893869
0.892698
0.890855
0.888636
0.886184
0.882033
0.872406
0.854443
0.831737
0.807887
0.794406
0.786855
0.783277
0.783328
0.783929
0.783675
0.774617
0.758859
0.759907
0.777178
0.802582
0.805367
0.805378
0.805737
0.803945
0.800368
0.797927
0.793544
0.788463
0.779261
0.774879
0.774185
0.774416
0.774654
0.778235
0.786677
0.802328
0.822006
0.837876
0.848357
0.85062
0.850204
0.8443
0.832718
0.81886
0.812226
0.810237
0.809672
0.809588
0.809754
0.810565
0.81258
0.815879
0.820317
0.823208
0.823676
0.82362
0.82314
0.822327
0.820727
0.817106
0.810307
0.799303
0.783393
0.769128
0.764332
0.7627
0.762681
0.767287
0.778815
0.78919
0.793706
0.797818
0.800225
0.80078
0.799198
0.790885
0.778166
0.767207
0.7616
0.75632
0.752538
0.751269
0.750791
0.750673
0.751175
0.752994
0.754888
0.756337
0.758496
0.76088
0.761964
0.762358
0.762358
0.761801
0.761529
0.761534
0.762607
0.765019
0.770137
0.776743
0.783994
0.790562
0.796366
0.800842
0.802583
0.802567
0.80124
0.800817
0.802375
0.805743
0.810549
0.816485
0.823704
0.836132
0.860003
0.887592
0.913168
0.93586
0.954704
0.968406
0.977062
0.98121
0.982379
0.98287
0.983881
0.984588
0.984063
0.975989
0.956295
0.948899
0.935539
0.909563
0.879682
0.852338
0.834924
0.827453
0.826041
0.826669
0.83
0.833425
0.836002
0.841061
0.852811
0.86296
0.872075
0.890832
0.920435
0.948216
0.967924
0.977448
0.978625
0.973127
0.944704
0.932805
0.937765
0.948115
0.951172
0.95112
0.950727
0.952232
0.642222
0.661212
0.726916
0.833838
0.895715
0.917476
0.924847
0.925025
0.924005
0.922248
0.918023
0.914132
0.91015
0.900803
0.894688
0.885558
0.876611
0.869359
0.860142
0.857507
0.858332
0.860919
0.866326
0.873281
0.87536
0.87457
0.872109
0.867433
0.860158
0.854932
0.850355
0.847575
0.84113
0.836528
0.832955
0.811759
0.783281
0.785309
0.805739
0.815809
0.817336
0.815663
0.807531
0.801002
0.790455
0.783997
0.776865
0.773173
0.772487
0.774339
0.775609
0.779827
0.788564
0.807864
0.831684
0.844065
0.854643
0.863916
0.866995
0.867609
0.866955
0.862656
0.853003
0.841274
0.832664
0.828425
0.82574
0.821671
0.815061
0.809467
0.807871
0.807484
0.807446
0.807592
0.808171
0.809679
0.812542
0.816301
0.818394
0.818835
0.818847
0.81771
0.812846
0.801028
0.778841
0.759529
0.753753
0.751879
0.751673
0.754713
0.762438
0.767155
0.768956
0.769507
0.768663
0.762695
0.754094
0.750521
0.748582
0.74691
0.746333
0.746255
0.74677
0.748646
0.751324
0.754149
0.758204
0.764226
0.7705
0.773117
0.77401
0.774057
0.771891
0.76619
0.761652
0.759997
0.759651
0.760979
0.765906
0.773606
0.784155
0.796335
0.805954
0.812312
0.819414
0.823982
0.823562
0.82006
0.815579
0.813605
0.814275
0.817567
0.822855
0.831196
0.848337
0.879138
0.908191
0.932587
0.953215
0.969435
0.980262
0.985943
0.987902
0.988228
0.98846
0.988631
0.987395
0.973537
0.935052
0.924448
0.921285
0.908702
0.885889
0.866067
0.854882
0.853051
0.854362
0.857793
0.860026
0.86224
0.866851
0.880152
0.906049
0.930979
0.95177
0.967706
0.978882
0.985869
0.989688
0.991244
0.991334
0.989609
0.97618
0.950704
0.944733
0.946616
0.948715
0.94899
0.949035
0.949644
0.678221
0.746071
0.881372
0.921872
0.93104
0.930642
0.929205
0.926196
0.92177
0.916576
0.906155
0.896866
0.884341
0.866047
0.848682
0.820543
0.798583
0.776525
0.75669
0.755394
0.759211
0.769388
0.791853
0.820843
0.844782
0.860595
0.8669
0.868076
0.871097
0.874557
0.875397
0.875167
0.873523
0.869337
0.849353
0.800605
0.793876
0.80894
0.820514
0.822688
0.818974
0.808293
0.790452
0.77775
0.7722
0.77068
0.770168
0.772014
0.773987
0.779004
0.787131
0.804912
0.829441
0.849085
0.857948
0.863738
0.869905
0.874569
0.875633
0.87578
0.875617
0.874658
0.872466
0.869432
0.867819
0.867564
0.867475
0.866684
0.864075
0.859339
0.853038
0.844446
0.833118
0.82431
0.821876
0.821507
0.821614
0.82192
0.822307
0.822938
0.824215
0.825333
0.825365
0.824235
0.820144
0.80908
0.786153
0.755414
0.744074
0.741387
0.741273
0.744328
0.749437
0.750998
0.751276
0.749984
0.74562
0.742884
0.742082
0.741817
0.741821
0.742572
0.74453
0.747261
0.750831
0.756316
0.764699
0.775407
0.780351
0.781463
0.781512
0.780469
0.776814
0.77056
0.763289
0.759174
0.758072
0.759977
0.764751
0.772959
0.785803
0.800881
0.815807
0.824401
0.828832
0.833841
0.838052
0.837908
0.83631
0.832315
0.830426
0.830228
0.830825
0.833798
0.844988
0.875744
0.907462
0.93255
0.953127
0.970057
0.982387
0.989639
0.992821
0.993699
0.993802
0.993602
0.99089
0.973428
0.918428
0.896727
0.89736
0.897385
0.886824
0.874363
0.871485
0.873199
0.879078
0.881617
0.881971
0.882319
0.884092
0.892479
0.920351
0.949768
0.96921
0.980784
0.987257
0.99086
0.992812
0.993743
0.993853
0.993216
0.988075
0.966713
0.951198
0.948275
0.948495
0.948664
0.948825
0.949231
0.757551
0.865327
0.926654
0.934897
0.93394
0.93114
0.926948
0.919049
0.912058
0.896416
0.880025
0.860013
0.83164
0.788648
0.733318
0.686725
0.654163
0.63439
0.624853
0.624913
0.628271
0.638496
0.662062
0.699967
0.761509
0.819233
0.849488
0.863112
0.871177
0.879303
0.884227
0.885617
0.88456
0.874091
0.825576
0.79805
0.81253
0.825856
0.828337
0.824308
0.809721
0.7826
0.771363
0.768297
0.76775
0.768594
0.770989
0.775278
0.783709
0.797251
0.81669
0.839693
0.857917
0.865766
0.869545
0.872121
0.875087
0.878539
0.881244
0.88297
0.883639
0.883733
0.883474
0.883214
0.883351
0.884634
0.886965
0.890251
0.893712
0.896505
0.898142
0.898858
0.899084
0.898837
0.896894
0.892812
0.888688
0.885184
0.881768
0.878199
0.874195
0.86863
0.860269
0.850095
0.840983
0.836068
0.830046
0.821593
0.80485
0.775901
0.745003
0.736792
0.735743
0.735993
0.737021
0.738172
0.73845
0.738387
0.738369
0.738484
0.738765
0.739282
0.74049
0.742666
0.745846
0.750241
0.756871
0.766823
0.775087
0.77709
0.777428
0.776291
0.771563
0.764178
0.758754
0.756339
0.757288
0.760343
0.766874
0.779166
0.79663
0.812902
0.827665
0.84098
0.845979
0.846842
0.846131
0.845616
0.844508
0.840558
0.83752
0.837227
0.837919
0.840738
0.848762
0.875451
0.913374
0.940267
0.959132
0.973494
0.984278
0.991302
0.994873
0.99606
0.996172
0.995664
0.991792
0.970181
0.9071
0.878912
0.878321
0.882406
0.881312
0.87691
0.877184
0.88414
0.895199
0.89908
0.899104
0.898428
0.899004
0.903559
0.923773
0.952918
0.971701
0.982528
0.988571
0.992106
0.994056
0.995232
0.995331
0.994887
0.99247
0.979838
0.960148
0.951649
0.949373
0.949079
0.949203
0.949838
0.799655
0.910044
0.936943
0.936034
0.93232
0.927464
0.920389
0.910253
0.892436
0.858368
0.833807
0.783848
0.713595
0.658227
0.625759
0.607376
0.599757
0.595863
0.594996
0.595171
0.595829
0.598774
0.608304
0.634628
0.676964
0.737635
0.805056
0.849578
0.869379
0.88138
0.887709
0.888821
0.885165
0.854648
0.801384
0.813209
0.831728
0.836184
0.833667
0.817967
0.787022
0.770762
0.767069
0.766576
0.767161
0.769301
0.773878
0.782163
0.794706
0.812155
0.83411
0.856981
0.867887
0.87213
0.874203
0.875908
0.879053
0.884401
0.890863
0.897902
0.903988
0.907866
0.910286
0.913674
0.916888
0.919445
0.922024
0.924497
0.926846
0.929051
0.930551
0.932005
0.933772
0.935698
0.937777
0.940384
0.94307
0.945252
0.946461
0.947069
0.947247
0.946246
0.942409
0.935553
0.923044
0.902018
0.879155
0.855477
0.836255
0.825012
0.814891
0.799619
0.778515
0.75252
0.738709
0.734519
0.732859
0.732195
0.731954
0.731888
0.731962
0.732365
0.73319
0.734551
0.736325
0.738438
0.740663
0.742573
0.74399
0.745788
0.749434
0.751758
0.751401
0.750491
0.751552
0.75437
0.758962
0.766572
0.778673
0.79691
0.815944
0.83416
0.843999
0.848404
0.851524
0.852364
0.852256
0.8517
0.849874
0.844741
0.841095
0.840439
0.840924
0.843633
0.853533
0.885906
0.92653
0.953955
0.970719
0.981635
0.989189
0.993996
0.996453
0.997252
0.997272
0.996528
0.991188
0.961233
0.891497
0.863589
0.862637
0.869565
0.874877
0.875579
0.878387
0.891547
0.90511
0.910153
0.910835
0.910781
0.9112
0.9143
0.928984
0.955084
0.973014
0.98394
0.990543
0.994742
0.996728
0.996717
0.99615
0.995248
0.993637
0.98809
0.970996
0.957643
0.951947
0.950675
0.950783
0.951308
0.847093
0.933924
0.938941
0.934158
0.930889
0.924719
0.909957
0.881957
0.838075
0.796262
0.7416
0.677849
0.640896
0.617882
0.605872
0.599524
0.600883
0.603552
0.605773
0.612247
0.617852
0.618259
0.622201
0.641201
0.677709
0.724392
0.779019
0.829492
0.86363
0.881536
0.888977
0.888978
0.876068
0.807822
0.807382
0.837564
0.845925
0.846153
0.834134
0.804103
0.775982
0.768163
0.766658
0.766585
0.767646
0.770922
0.776974
0.78638
0.800053
0.81843
0.840691
0.862719
0.872102
0.875736
0.877877
0.881058
0.887332
0.898528
0.916794
0.934678
0.942029
0.94579
0.949142
0.952734
0.955446
0.95751
0.959432
0.960994
0.962358
0.963201
0.963773
0.964276
0.964563
0.964707
0.964818
0.965023
0.96529
0.965699
0.966225
0.966858
0.967565
0.968076
0.968257
0.968239
0.967264
0.9648
0.959829
0.950072
0.932216
0.90108
0.860612
0.829317
0.812885
0.802449
0.791381
0.780408
0.771116
0.759901
0.74887
0.741148
0.735691
0.73302
0.732128
0.732132
0.732331
0.732619
0.732985
0.733828
0.734913
0.737014
0.73999
0.743906
0.747552
0.750787
0.755547
0.763444
0.77397
0.787668
0.804353
0.823673
0.838025
0.845876
0.850755
0.853622
0.854676
0.854615
0.854403
0.853827
0.851978
0.847652
0.845016
0.844675
0.845349
0.848725
0.861046
0.898223
0.937923
0.964113
0.979191
0.987793
0.993191
0.996462
0.997988
0.99838
0.998321
0.997339
0.990604
0.952411
0.877305
0.849952
0.849249
0.857196
0.867188
0.871343
0.878132
0.895594
0.909802
0.916413
0.918632
0.919584
0.920991
0.924638
0.937899
0.961327
0.978515
0.989633
0.995616
0.997695
0.997766
0.996788
0.993123
0.991197
0.990743
0.989194
0.980891
0.966201
0.957493
0.955022
0.955129
0.955707
0.871629
0.942895
0.938463
0.933575
0.929369
0.914216
0.878576
0.826439
0.77248
0.72468
0.674477
0.64609
0.627871
0.61487
0.616619
0.628432
0.651933
0.664344
0.673427
0.70083
0.703113
0.691687
0.673048
0.671491
0.689937
0.733559
0.783676
0.829348
0.864363
0.88349
0.889308
0.882518
0.829614
0.80587
0.835771
0.856904
0.860785
0.856557
0.8356
0.797394
0.774248
0.76855
0.767483
0.767639
0.769606
0.774456
0.782298
0.792932
0.80698
0.824795
0.84534
0.865484
0.876767
0.881507
0.885438
0.893069
0.908596
0.932535
0.951426
0.959582
0.963558
0.965894
0.967997
0.969839
0.970997
0.971845
0.972596
0.973087
0.973513
0.973778
0.973962
0.974058
0.974092
0.974087
0.974027
0.974058
0.974169
0.974293
0.974431
0.974673
0.974995
0.97545
0.976044
0.976676
0.977201
0.977354
0.977293
0.976244
0.973507
0.968613
0.959864
0.945391
0.922321
0.890553
0.856667
0.828332
0.811596
0.804833
0.801944
0.800404
0.798808
0.797576
0.792833
0.789006
0.781885
0.774156
0.767691
0.764
0.763254
0.76407
0.765823
0.768205
0.773024
0.779168
0.789065
0.801181
0.815415
0.829001
0.841883
0.847912
0.850252
0.851827
0.854046
0.85588
0.856385
0.856352
0.856103
0.855458
0.85355
0.849961
0.848742
0.848889
0.850349
0.855935
0.874648
0.917902
0.953207
0.975465
0.987477
0.993311
0.996383
0.998192
0.999092
0.999302
0.999192
0.997944
0.989763
0.943034
0.864742
0.8383
0.837995
0.847085
0.857447
0.863749
0.87595
0.894718
0.910376
0.920092
0.925431
0.928268
0.931078
0.936997
0.953456
0.974218
0.988493
0.995663
0.998148
0.998382
0.997419
0.991551
0.981786
0.978562
0.979285
0.981476
0.980838
0.97376
0.964841
0.961824
0.961757
0.962619
0.892043
0.94576
0.937237
0.933963
0.923728
0.889653
0.833646
0.775257
0.722604
0.680397
0.658074
0.641584
0.634691
0.645973
0.679852
0.73042
0.764221
0.773423
0.771033
0.76827
0.750496
0.722786
0.7051
0.707494
0.724468
0.759368
0.796148
0.835629
0.87036
0.884702
0.884586
0.847077
0.813277
0.817236
0.86313
0.875781
0.878155
0.871567
0.84405
0.799058
0.777591
0.772642
0.771874
0.772433
0.775906
0.783527
0.794739
0.808182
0.82297
0.838847
0.855405
0.871785
0.885328
0.894702
0.906744
0.922858
0.942248
0.958685
0.96704
0.970616
0.972381
0.97337
0.974157
0.974767
0.975141
0.97545
0.975736
0.975975
0.976202
0.976412
0.976597
0.976779
0.976987
0.977231
0.977464
0.977756
0.978075
0.978445
0.978854
0.979322
0.979834
0.980371
0.980918
0.98147
0.982087
0.982682
0.983209
0.983668
0.983769
0.982832
0.980608
0.97731
0.972273
0.96514
0.954406
0.939756
0.923017
0.908205
0.898165
0.882378
0.871894
0.867167
0.862836
0.857334
0.854397
0.852934
0.850305
0.849108
0.846906
0.845861
0.843092
0.843033
0.843895
0.846316
0.851696
0.858161
0.861744
0.863168
0.86167
0.859024
0.856757
0.856043
0.856652
0.858419
0.859252
0.859265
0.859044
0.858389
0.85651
0.854853
0.854686
0.855262
0.858007
0.867267
0.897166
0.940819
0.970479
0.986546
0.993779
0.996979
0.998514
0.999318
0.999659
0.999703
0.999545
0.998102
0.988982
0.938413
0.854704
0.828596
0.828661
0.838845
0.849204
0.85481
0.865673
0.886536
0.908171
0.926942
0.939984
0.946618
0.950374
0.957575
0.973205
0.987311
0.995271
0.998296
0.998798
0.998098
0.992887
0.976321
0.965268
0.962636
0.963177
0.967551
0.971549
0.971287
0.968134
0.966645
0.966588
0.966493
0.90317
0.945994
0.937079
0.933174
0.911546
0.864541
0.804664
0.741038
0.693902
0.671307
0.660877
0.662962
0.681146
0.720068
0.778232
0.806933
0.813512
0.812813
0.803918
0.781955
0.755704
0.738385
0.732662
0.73741
0.756339
0.78137
0.813648
0.855179
0.876072
0.880978
0.856502
0.820822
0.816465
0.849819
0.884137
0.895231
0.897713
0.893483
0.871808
0.824082
0.796752
0.790436
0.789206
0.789988
0.796409
0.811909
0.832293
0.850733
0.864795
0.876239
0.886219
0.895795
0.907946
0.92347
0.937322
0.950551
0.962122
0.969603
0.972566
0.973698
0.974143
0.974351
0.974488
0.974564
0.974503
0.974394
0.974343
0.974335
0.974525
0.974755
0.975094
0.975483
0.975893
0.976386
0.976858
0.977407
0.977977
0.978622
0.979354
0.98023
0.981185
0.982158
0.983267
0.984528
0.985916
0.987298
0.988432
0.989144
0.989428
0.988882
0.987861
0.98625
0.983997
0.981278
0.979225
0.977534
0.975599
0.972628
0.97051
0.96752
0.966404
0.965364
0.962479
0.95722
0.949975
0.941679
0.932918
0.921998
0.909304
0.898093
0.891629
0.888155
0.887183
0.887377
0.887002
0.885707
0.883566
0.880762
0.876016
0.870421
0.866074
0.863614
0.862974
0.863901
0.865883
0.866289
0.866133
0.865403
0.863931
0.86374
0.864044
0.865703
0.871248
0.888191
0.930505
0.96491
0.98351
0.992467
0.996625
0.998446
0.999277
0.999689
0.999851
0.99986
0.999687
0.998212
0.988857
0.937413
0.849873
0.820958
0.820884
0.831504
0.841577
0.846257
0.853395
0.871741
0.905573
0.936044
0.955393
0.964033
0.969056
0.977071
0.987242
0.994765
0.998224
0.999069
0.998791
0.995163
0.977962
0.96377
0.958524
0.957007
0.956954
0.957777
0.961946
0.966625
0.96826
0.968415
0.968131
0.966847
0.909661
0.945275
0.937648
0.931046
0.904047
0.852976
0.788276
0.723781
0.691489
0.684941
0.687526
0.696233
0.719176
0.766968
0.807175
0.821102
0.824774
0.824877
0.819367
0.804482
0.785356
0.776117
0.772869
0.776041
0.796416
0.819231
0.849141
0.866349
0.872288
0.8602
0.826457
0.818988
0.829243
0.87668
0.898699
0.913953
0.917063
0.915848
0.906177
0.880826
0.852432
0.843356
0.840972
0.841137
0.84774
0.863023
0.881545
0.89671
0.907004
0.91521
0.923058
0.930383
0.938116
0.947487
0.956853
0.965031
0.97037
0.972762
0.973578
0.973817
0.97388
0.9735
0.973181
0.972825
0.972673
0.972639
0.972767
0.973038
0.97343
0.973889
0.974293
0.974691
0.974989
0.975273
0.975459
0.975623
0.975798
0.976008
0.976267
0.976583
0.977151
0.978154
0.979593
0.981575
0.984196
0.986907
0.988958
0.990607
0.991513
0.991798
0.991737
0.991307
0.990039
0.98739
0.98502
0.983862
0.983754
0.983717
0.983591
0.98342
0.983287
0.983253
0.983274
0.983282
0.983028
0.982625
0.981954
0.980175
0.975769
0.969618
0.962274
0.953425
0.944401
0.937772
0.933699
0.929498
0.9256
0.921369
0.913288
0.90083
0.889774
0.882816
0.879477
0.878953
0.880634
0.882069
0.88203
0.881279
0.880525
0.880493
0.881189
0.884379
0.894518
0.926063
0.961403
0.980475
0.990448
0.995517
0.997978
0.999104
0.999609
0.999844
0.999931
0.999933
0.999808
0.998674
0.990746
0.943285
0.849444
0.815035
0.813902
0.822835
0.831643
0.835476
0.841247
0.857732
0.900143
0.938313
0.962258
0.974448
0.981522
0.988162
0.994219
0.997888
0.999166
0.999207
0.997635
0.985612
0.9673
0.959596
0.956751
0.955887
0.955787
0.95593
0.956641
0.95828
0.959749
0.960469
0.961487
0.962083
0.914022
0.945254
0.938757
0.930364
0.90132
0.848547
0.781355
0.726239
0.71147
0.708533
0.708855
0.718766
0.744753
0.777771
0.809502
0.821868
0.827066
0.829151
0.82961
0.828026
0.82214
0.818541
0.817567
0.822625
0.835508
0.847644
0.858165
0.862187
0.854019
0.829086
0.820805
0.824822
0.86076
0.892043
0.90805
0.92859
0.93334
0.933779
0.93093
0.920224
0.902464
0.893802
0.891561
0.891307
0.894329
0.90379
0.916964
0.928346
0.936048
0.941769
0.947123
0.952103
0.956803
0.961719
0.966751
0.970767
0.972581
0.973255
0.973433
0.973314
0.97266
0.972348
0.972218
0.972165
0.972171
0.972337
0.972629
0.973259
0.974296
0.975692
0.977524
0.979011
0.979963
0.980386
0.980367
0.979789
0.978908
0.977864
0.977038
0.976401
0.975926
0.975657
0.975619
0.975863
0.976527
0.97841
0.981799
0.985733
0.988845
0.990381
0.991122
0.991332
0.991128
0.99028
0.989091
0.98783
0.986749
0.985763
0.984571
0.983301
0.982224
0.98179
0.981897
0.982939
0.984201
0.98545
0.986553
0.987344
0.987676
0.987137
0.984992
0.980952
0.976074
0.97198
0.968796
0.965565
0.962486
0.960148
0.956945
0.949685
0.935755
0.922207
0.913723
0.910228
0.909978
0.911132
0.911256
0.91085
0.910152
0.910288
0.911819
0.91789
0.938142
0.960871
0.976325
0.986478
0.992809
0.996469
0.998395
0.999315
0.999722
0.999897
0.999961
0.999967
0.999898
0.999143
0.993226
0.955509
0.855229
0.810629
0.807229
0.814373
0.821733
0.825043
0.830584
0.847781
0.895033
0.93743
0.964339
0.979317
0.987696
0.993314
0.997124
0.998973
0.99937
0.998948
0.994177
0.975749
0.963277
0.957975
0.95601
0.955501
0.955509
0.955774
0.956786
0.957602
0.958898
0.960053
0.962151
0.963348
0.917655
0.945717
0.940887
0.93329
0.90574
0.859529
0.801751
0.7594
0.744991
0.740199
0.73943
0.742084
0.75353
0.772493
0.789584
0.799643
0.812463
0.823724
0.830552
0.833087
0.834412
0.835578
0.837304
0.84078
0.845241
0.849282
0.851878
0.842308
0.827672
0.822277
0.823814
0.843329
0.882448
0.899221
0.917125
0.937282
0.944701
0.947323
0.947027
0.94345
0.935135
0.928273
0.926444
0.926152
0.927398
0.93232
0.940104
0.947688
0.95328
0.957259
0.960526
0.963532
0.966182
0.968583
0.970876
0.972384
0.97295
0.973118
0.972952
0.97233
0.97202
0.971786
0.971667
0.971616
0.971615
0.971789
0.972043
0.972698
0.973981
0.975881
0.978519
0.981449
0.984043
0.986006
0.987808
0.988932
0.989466
0.989154
0.987722
0.985577
0.983075
0.980489
0.978212
0.976654
0.975623
0.975098
0.975231
0.976007
0.978001
0.981203
0.984221
0.986191
0.987166
0.987503
0.987277
0.986241
0.984362
0.980668
0.975519
0.971041
0.968136
0.967311
0.967916
0.969874
0.973138
0.977316
0.982028
0.985919
0.98838
0.989711
0.990086
0.989087
0.984954
0.980238
0.976079
0.97246
0.969502
0.967374
0.965949
0.964283
0.960517
0.954617
0.949451
0.946719
0.946029
0.946396
0.947423
0.947571
0.947481
0.947654
0.948904
0.953196
0.962455
0.971854
0.980622
0.987958
0.993305
0.996641
0.998466
0.999353
0.999746
0.999909
0.99997
0.99998
0.999946
0.999516
0.995706
0.969408
0.872509
0.810194
0.799419
0.803486
0.811442
0.815513
0.822362
0.844129
0.895446
0.937843
0.965539
0.981592
0.990432
0.995479
0.998243
0.999288
0.999336
0.998094
0.98864
0.971014
0.96168
0.956956
0.954928
0.954557
0.954698
0.955443
0.957688
0.960441
0.962692
0.964423
0.965989
0.967285
0.91944
0.946702
0.94328
0.939483
0.923339
0.890801
0.842264
0.803154
0.788982
0.782374
0.779018
0.777346
0.776674
0.77807
0.785897
0.789044
0.792424
0.801113
0.808744
0.817809
0.822492
0.829003
0.833485
0.835711
0.836791
0.835421
0.829904
0.824537
0.822597
0.824434
0.836616
0.874437
0.894517
0.906872
0.926169
0.939587
0.949921
0.956436
0.957331
0.956602
0.953685
0.949668
0.948259
0.948052
0.948592
0.950882
0.954708
0.958928
0.962534
0.965233
0.967233
0.968894
0.970304
0.971368
0.972233
0.972712
0.972867
0.972782
0.972176
0.971556
0.971169
0.970776
0.970454
0.970105
0.969808
0.969641
0.969575
0.969976
0.970581
0.972395
0.97492
0.978339
0.982098
0.985136
0.987991
0.990237
0.991956
0.99323
0.994121
0.994592
0.994452
0.993595
0.991762
0.988702
0.985037
0.981052
0.977593
0.975567
0.974459
0.974115
0.974346
0.974986
0.975818
0.97609
0.975438
0.972982
0.968495
0.963963
0.960943
0.959728
0.959707
0.960501
0.962753
0.964482
0.965778
0.967162
0.969646
0.974716
0.981981
0.987967
0.990756
0.991523
0.990684
0.985793
0.979827
0.975206
0.971733
0.969071
0.967171
0.966068
0.964869
0.962648
0.960295
0.959157
0.95909
0.960115
0.962555
0.963448
0.963489
0.963203
0.963143
0.964239
0.967509
0.973758
0.981015
0.987833
0.993072
0.996475
0.998383
0.999324
0.999739
0.999908
0.999971
0.999986
0.999975
0.9998
0.998006
0.983019
0.903898
0.818452
0.793394
0.792044
0.794895
0.800885
0.812557
0.845946
0.898891
0.940573
0.967683
0.98332
0.991872
0.996483
0.9987
0.99933
0.99917
0.996741
0.984143
0.96968
0.960892
0.955042
0.952066
0.951434
0.951671
0.952912
0.956568
0.959995
0.962376
0.964006
0.964701
0.966263
0.920235
0.947776
0.944882
0.942531
0.933432
0.918384
0.893193
0.86736
0.858114
0.854258
0.850994
0.845862
0.838354
0.830421
0.821493
0.813496
0.805914
0.801679
0.800191
0.802266
0.803679
0.807285
0.813892
0.817407
0.819128
0.820327
0.821309
0.822655
0.825043
0.83538
0.86798
0.8916
0.903921
0.917123
0.932441
0.940645
0.951017
0.960636
0.962871
0.963266
0.962654
0.961057
0.960133
0.959994
0.960299
0.961366
0.963089
0.965127
0.967179
0.968857
0.97014
0.971125
0.971859
0.972306
0.972573
0.972685
0.972598
0.972041
0.97116
0.970172
0.969329
0.968276
0.967184
0.965931
0.964694
0.963902
0.963616
0.96438
0.964938
0.966113
0.967417
0.969471
0.972255
0.976001
0.98085
0.985893
0.989513
0.992176
0.994061
0.995356
0.996217
0.996737
0.996998
0.997009
0.996584
0.995408
0.992886
0.988435
0.983078
0.97796
0.9746
0.972515
0.971242
0.970099
0.967809
0.964183
0.961048
0.959169
0.958614
0.958666
0.95905
0.960195
0.962853
0.965341
0.966643
0.967006
0.967567
0.968825
0.971434
0.978349
0.987213
0.991613
0.992927
0.992617
0.988213
0.980784
0.975494
0.97134
0.968107
0.966275
0.965183
0.963939
0.96292
0.96265
0.962994
0.965188
0.968655
0.9699
0.969935
0.969246
0.967634
0.967009
0.967954
0.971738
0.977749
0.984936
0.991201
0.995475
0.997925
0.999143
0.999677
0.999888
0.999966
0.999988
0.999986
0.999916
0.999149
0.992323
0.943939
0.842823
0.79808
0.78886
0.789116
0.79357
0.809291
0.854914
0.908829
0.948327
0.972738
0.986183
0.993423
0.997279
0.998975
0.999322
0.998945
0.995478
0.982207
0.969596
0.959463
0.951212
0.946434
0.945084
0.945274
0.947156
0.951645
0.955251
0.957496
0.958877
0.95944
0.960613
0.920198
0.949042
0.946984
0.94793
0.947526
0.947213
0.945171
0.942417
0.942936
0.946381
0.948724
0.949638
0.947828
0.943054
0.932374
0.913854
0.889188
0.859229
0.833281
0.818012
0.810529
0.808179
0.810217
0.813448
0.816313
0.818909
0.822152
0.826192
0.835705
0.861552
0.887264
0.9001
0.911771
0.926276
0.936437
0.942226
0.951004
0.961272
0.965553
0.966652
0.966769
0.966359
0.965958
0.965928
0.966187
0.966738
0.967489
0.968403
0.969465
0.970524
0.97133
0.971963
0.972378
0.972576
0.972653
0.972632
0.972331
0.97138
0.969713
0.967561
0.964858
0.961237
0.957652
0.954141
0.951397
0.950004
0.950381
0.952527
0.955732
0.959631
0.962639
0.965072
0.96729
0.969097
0.970866
0.974423
0.980255
0.985512
0.989311
0.992244
0.994378
0.995831
0.996769
0.997356
0.997737
0.997954
0.998013
0.997857
0.996998
0.994625
0.989527
0.982922