/*--------------------------------*- C++ -*----------------------------------*\
| =========                 |                                                 |
| \\      /  F ield         | OpenFOAM: The Open Source CFD Toolbox           |
|  \\    /   O peration     | Version:  2112                                  |
|   \\  /    A nd           | Website:  www.openfoam.com                      |
|    \\/     M anipulation  |                                                 |
\*---------------------------------------------------------------------------*/
FoamFile
{
    version     2.0;
    format      ascii;
    arch        "LSB;label=32;scalar=64";
    class       volScalarField;
    location    "0.01";
    object      ddt0(kU);
}
// * * * * * * * * * * * * * * * * * * * * * * * * * * * * * * * * * * * * * //

dimensions      [0 2 -3 0 0 0 0];

internalField   nonuniform List<scalar> 
12225
(
0.0784498
0.0160788
-0.0697615
-0.313044
-0.311393
-0.691845
-0.830951
-1.18552
-1.31393
-1.95872
-1.87049
-2.46469
-2.64417
-2.56042
-3.58769
-2.51633
-3.36927
-3.32627
-0.0168428
0.076949
-0.0526787
0.128492
0.0140092
0.169217
0.0835701
0.181167
0.173628
0.0933965
0.37674
-0.0342851
-3.59351
6.32392
-2.35261
-3.56695
9.82036
-3.41934
-0.0014724
0.0117417
-0.0932146
0.295447
-0.40166
0.0767664
0.108562
0.0560851
-0.0578828
-0.148688
0.144884
-0.359277
0.24275
-0.553711
-0.0038284
0.499314
-1.48284
-1.14322
0.00013025
0.00107153
-0.0363687
0.0594745
-0.30737
0.312969
-0.240109
0.0232443
0.143574
-0.215112
0.0235748
-0.147663
-0.0721149
-0.30575
-0.0703434
0.0324879
-0.519732
-0.635191
0.00155199
-0.00361389
-0.0123482
-0.00684019
-0.122908
0.112639
-0.217268
0.0412148
0.0979404
-0.214732
-0.0540626
-0.109556
-0.114765
-0.16451
-0.165615
-0.0518876
-0.0833623
-0.444403
0.00165541
-0.000843185
-0.00948345
-0.0123932
-0.0533076
0.00140776
-0.140921
-0.00181242
-0.027995
-0.128054
-0.0742321
-0.114941
-0.128436
-0.145999
-0.16951
-0.157736
-0.0444802
-0.280319
0.00158708
0.00164627
-0.00562306
-0.0171135
-0.0256671
-0.0434557
-0.0748233
-0.0494553
-0.072535
-0.122008
-0.0980321
-0.139639
-0.165889
-0.177359
-0.195455
-0.227916
-0.153073
-0.230171
0.00177878
0.00256078
-0.00209617
-0.0126858
-0.0201401
-0.0401419
-0.0581135
-0.0688466
-0.096229
-0.109721
-0.127227
-0.152562
-0.194159
-0.197989
-0.217365
-0.28057
-0.228813
-0.255002
0.00177731
0.00269627
0.000314678
-0.00838362
-0.0168349
-0.0308742
-0.0468188
-0.0639478
-0.0850174
-0.101855
-0.126591
-0.151104
-0.1782
-0.197448
-0.224046
-0.247233
-0.257385
-0.274821
0.00174028
0.00269095
0.00274387
-0.00499535
-0.0140627
-0.0251073
-0.0394101
-0.0553118
-0.0735202
-0.0913755
-0.112826
-0.135176
-0.159872
-0.182698
-0.205732
-0.226939
-0.244119
-0.261795
0.00255743
0.00285268
0.00186877
-0.00284133
-0.0118075
-0.0224974
-0.035344
-0.0503128
-0.0667201
-0.0841929
-0.102813
-0.123847
-0.146783
-0.169342
-0.191344
-0.21342
-0.234075
-0.2518
0.00246303
0.00349823
0.00207401
-0.00222235
-0.0105104
-0.0213001
-0.0335352
-0.0484016
-0.0643394
-0.0816623
-0.0997651
-0.120381
-0.142811
-0.165352
-0.188274
-0.212076
-0.235413
-0.257202
0.00203231
0.00371236
0.00217001
-0.00200287
-0.00975805
-0.0206302
-0.0327429
-0.0476278
-0.0636983
-0.0813382
-0.0999233
-0.121029
-0.143922
-0.16773
-0.192224
-0.218285
-0.244838
-0.271337
0.00131839
0.00414078
0.000257839
-0.00240222
-0.00885975
-0.0202317
-0.0327016
-0.0476266
-0.0642044
-0.0825929
-0.102172
-0.124698
-0.148874
-0.175021
-0.201866
-0.231056
-0.261602
-0.293087
0.00089304
0.00297499
-0.000663125
-0.00434761
-0.0107941
-0.0206764
-0.033366
-0.0483355
-0.0656389
-0.0851999
-0.10623
-0.13067
-0.156872
-0.185701
-0.215789
-0.24845
-0.283697
-0.320263
0.000917992
0.000146458
0.000929494
-0.0088109
-0.0125103
-0.0209722
-0.0335366
-0.0489823
-0.0671745
-0.0882959
-0.111313
-0.138139
-0.166901
-0.198795
-0.23218
-0.268769
-0.30849
-0.350773
0.000415749
-0.00145903
-0.00100525
-0.0106567
-0.0152509
-0.0224189
-0.0337021
-0.0491998
-0.0677236
-0.089796
-0.114848
-0.144184
-0.175941
-0.210859
-0.247497
-0.288362
-0.332458
-0.380213
-0.000768364
-0.00182297
-0.00529498
-0.0073456
-0.0181935
-0.0234105
-0.0305286
-0.0442815
-0.060739
-0.0808316
-0.106147
-0.137274
-0.172265
-0.210559
-0.25124
-0.297027
-0.345929
-0.399768
-0.00112555
-0.00422176
-0.00628591
-0.0102425
-0.0108931
-0.0190935
-0.0225067
-0.029674
-0.0405027
-0.0557319
-0.076027
-0.107453
-0.141079
-0.179286
-0.220942
-0.267798
-0.317479
-0.374609
-0.00153204
-0.00496398
-0.00714567
-0.0083646
-0.007563
-0.00679892
-0.00426571
-0.00213596
-0.00696067
-0.0163579
-0.0251705
-0.0783633
-0.101765
-0.132039
-0.168354
-0.213619
-0.260387
-0.312393
-0.00172963
-0.00499858
-0.00620876
-0.00472438
-0.000595094
0.00543292
0.0133523
0.0221706
0.0289564
0.0331213
0.0341388
0.0176944
-0.0110632
-0.0436219
-0.123998
-0.151961
-0.20152
-0.237717
-0.00178923
-0.00439664
-0.00360446
0.000960063
0.00898421
0.0195408
0.0322433
0.0465414
0.0604196
0.0723115
0.080593
0.0789467
0.06663
0.037489
-0.0116954
-0.0606935
-0.145075
-0.183582
-0.00169841
-0.00296355
0.000207719
0.00708366
0.0181422
0.0313185
0.0459505
0.0629941
0.0798959
0.0954307
0.10803
0.113558
0.109681
0.0919088
0.0598886
0.00900126
-0.0521912
-0.106155
-0.00148774
-0.000373977
0.00346795
0.0107678
0.0234571
0.0371706
0.0498082
0.0675464
0.0839485
0.0984712
0.113177
0.121601
0.122832
0.114623
0.0945762
0.0573644
0.0110185
-0.0534568
-0.00170607
0.00146763
0.00492494
0.0120262
0.02316
0.0369947
0.0423409
0.0623053
0.0756204
0.0837223
0.102606
0.109611
0.113907
0.111725
0.103221
0.0794227
0.0535436
0.00893688
-0.00154046
0.00145934
0.00398344
0.0134799
0.0164675
0.0356788
0.0214249
0.0531197
0.0622821
0.0496852
0.0882029
0.0852661
0.0946429
0.0903929
0.100377
0.0705051
0.0818065
0.0717286
-0.000508665
-0.000174701
0.00466091
0.0174178
-0.00300114
0.0491717
-0.0198961
0.024444
0.0719785
-0.0256013
0.0806521
0.0621651
0.0880489
0.0485831
0.109668
0.0254103
0.111839
0.131467
-0.000116266
-0.000301955
-0.001334
0.0631231
-0.0886285
-0.0156813
0.181529
-0.744802
0.632308
-0.142128
-0.0622647
0.191001
-0.0949768
-0.15248
0.0738354
-0.263808
-0.270241
-0.0106646
-0.00421063
0.00656109
-0.095109
0.10548
-0.158635
0.449433
-0.47551
-0.415566
0.349691
-1.81387
-0.317034
0.125751
-2.52134
-1.32032
0.888894
-4.10706
-2.46881
0.282978
0.38376
0.0612162
-1.26733
-0.769067
-0.0531334
0.926207
0.743893
0.754409
0.845595
1.0958
1.67115
2.33969
3.20072
4.12989
5.09318
6.36488
8.00026
9.79528
-0.783323
-4.10782
-4.97675
-5.63498
-6.32461
-6.82354
-7.03499
-7.01675
-6.86437
-6.66098
-6.4561
-6.27138
-6.11586
-5.98997
-5.83455
-5.61722
-5.37869
-5.10817
-4.7948
-4.43041
-4.01294
-3.53669
-2.99428
-2.38005
-1.69201
-0.925047
-0.0798043
0.839613
1.82714
2.87897
3.98189
5.12547
6.29888
7.4677
8.631
9.76679
10.8475
11.8179
12.6626
13.36
13.8288
13.8803
15.0123
16.3401
17.5234
18.6215
19.722
20.7384
21.7638
21.9423
21.769
21.0172
20.1521
19.0149
17.7154
15.5982
12.9477
9.58572
5.41393
0.193786
-6.34748
-14.1579
-20.3546
-22.4567
-23.5739
-24.5324
-25.487
-26.4771
-27.5144
-28.6163
-29.7831
-31.0212
-32.372
-33.8237
-35.4128
-37.2393
-39.4055
-41.0577
-41.6715
-42.0601
-42.2632
-42.3535
-42.46
-42.4967
-42.2665
-41.799
-40.9913
-40.8821
-40.8667
-40.7602
-40.547
-40.1984
-39.7002
-39.1447
-38.6351
-38.2464
-38.0373
-37.8966
-37.6207
-37.1757
-36.6581
-36.1724
-35.7717
-35.5901
-35.6276
-35.6289
-35.4753
-35.3426
-35.324
-35.3724
-35.418
-35.3997
-35.3656
-35.327
-35.2666
-35.1444
-34.964
-34.8244
-34.8364
-34.9335
-34.8677
-34.5155
-33.6879
-32.5422
-31.6685
-31.1564
-30.9231
-30.821
-30.7953
-30.8301
-30.8764
-30.8757
-30.7592
-30.5681
-30.4246
-30.2618
-30.0619
-30.0121
-29.9657
-29.9344
-29.8837
-29.8321
-29.6254
-29.5211
-29.5068
-29.4926
-29.4378
-29.3722
-29.3239
-29.2735
-29.1958
-29.0971
-28.9893
-28.8824
-28.776
-28.6753
-28.5525
-28.4127
-28.2466
-28.0834
-27.9126
-27.7376
-27.5641
-27.3655
-27.1874
-26.9759
-26.794
-26.5953
-26.4252
-26.259
-26.0961
-25.9921
-25.8055
-25.8216
-25.5812
-25.6831
-25.5614
-25.4761
-24.847
-25.185
-0.925024
-3.57012
-9.72
-17.72
-24.9135
-29.8612
-32.4857
-33.3586
-33.1725
-32.521
-31.7277
-30.9732
-30.356
-29.902
-29.5682
-29.5705
-29.7026
-29.8658
-30.0351
-30.1858
-30.308
-30.3796
-30.378
-30.2761
-30.0583
-29.7027
-29.2038
-28.5526
-27.7438
-26.7651
-25.636
-24.3441
-22.918
-21.3319
-19.5785
-17.6005
-15.5052
-13.1231
-11.3635
-9.38083
-6.91816
-4.07527
-2.01117
0.344168
3.43048
5.20743
7.96247
11.3366
15.2037
19.6622
24.2947
28.172
31.5815
34.6307
37.3211
39.6796
41.6963
43.3956
44.6268
46.1736
47.1996
48.0759
48.8197
49.4365
49.9444
50.361
50.6997
50.9573
51.1273
51.2238
51.2493
51.1927
51.1033
51.0011
50.8934
50.8803
51.1151
50.6934
49.0942
47.2922
45.5195
44.0109
42.4636
39.8347
36.7093
33.5394
30.4662
28.4262
26.8362
25.6872
24.9655
24.6406
24.5104
24.2115
23.7825
23.844
24.9984
26.9232
27.9264
26.9364
24.8295
22.4471
19.8216
17.045
14.5693
12.4174
10.2699
8.41715
7.19528
6.35495
5.34393
4.09663
3.13113
2.55337
2.08229
1.6218
0.864478
0.0854808
0.0181347
0.270048
-0.00219004
-0.649529
-1.10282
-1.18852
-1.05066
-1.12044
-1.72101
-2.93947
-4.39645
-5.48331
-5.55766
-5.7117
-6.15302
-6.1614
-5.99888
-5.78765
-5.65132
-5.44431
-5.1119
-4.67254
-3.71045
-3.62331
-4.28478
-5.21244
-6.31541
-6.3361
-6.19829
-6.10876
-6.07384
-6.08822
-6.12691
-6.15828
-6.19874
-6.23811
-6.27636
-6.30614
-6.3347
-6.36261
-6.39297
-6.41465
-6.44132
-6.46575
-6.49125
-6.50908
-6.52862
-6.55259
-6.57739
-6.59936
-6.623
-6.63955
-6.65404
-6.659
-6.66702
-6.66857
-6.6247
-6.57683
-6.59133
-6.55287
-6.65113
-7.21204
-0.734737
1.04035
-0.816632
-8.85101
-15.8496
-19.8347
-21.5209
-21.7551
-21.4462
-20.6501
-19.5444
-18.2668
-16.9088
-15.5262
-14.0795
-12.8984
-11.8496
-10.8535
-9.86849
-8.87787
-7.87481
-6.85347
-5.81176
-4.74922
-3.66601
-2.56111
-1.43822
-0.308445
0.811314
1.90451
2.95491
3.94965
4.87469
5.7159
6.4677
7.07752
7.48688
7.72212
7.03627
6.65687
6.61081
7.13879
8.30533
10.403
13.702
17.6541
22.1118
26.2357
30.1591
33.7758
37.2623
40.4764
43.3197
45.8276
48.0094
49.8713
51.4714
52.4333
53.8915
54.7186
55.3574
55.8165
56.1168
56.2813
56.3236
56.2465
56.0545
56.0312
55.9642
55.8511
55.6886
55.4685
55.1849
54.8219
54.3671
53.8148
53.156
52.3803
51.5329
50.6328
49.6304
48.4617
47.1562
45.8437
44.4678
43.0373
41.6086
40.228
38.8939
37.5591
36.165
34.7933
33.6471
32.817
32.1219
31.1332
29.6044
27.9795
26.3831
24.4017
22.2471
20.1783
18.1583
16.0522
14.2098
12.5989
10.7197
9.2379
8.40095
7.55144
6.62844
5.68271
4.76289
3.96714
3.26502
2.52412
1.80019
1.2074
0.855563
0.645584
0.357954
-0.0599967
-0.464387
-0.831369
-1.24055
-1.73588
-2.27007
-2.78839
-3.30354
-3.79478
-4.17239
-4.3898
-4.59733
-4.8471
-5.07041
-5.26336
-5.5224
-5.87823
-6.17698
-6.38031
-6.61002
-6.96516
-7.37565
-7.81021
-8.20799
-8.42469
-8.54829
-8.715
-8.91552
-9.10172
-9.21148
-9.28014
-9.33353
-9.38275
-9.52185
-9.59127
-9.66572
-9.79429
-9.9277
-9.92092
-10.0147
-10.1767
-10.3408
-10.3529
-10.3713
-10.4177
-10.5466
-10.593
-10.7369
-10.8263
-10.9571
-10.9663
-11.1721
-11.2824
-11.5244
-11.5546
-11.5021
-11.3914
-11.2647
-10.8214
-0.588605
4.71241
7.88584
0.952588
-5.34659
-8.14198
-9.06933
-9.14722
-8.70223
-7.57021
-6.32302
-5.06286
-3.84172
-2.67712
-1.57439
-0.430642
0.713171
1.8555
3.01644
4.19225
5.37573
6.55996
7.73694
8.8966
10.0315
11.1354
12.2024
13.223
14.1829
15.0702
15.881
16.6158
17.28
17.8762
18.399
18.8481
19.2512
19.5813
20.2963
21.1134
22.074
23.1887
24.5363
26.3044
28.5646
31.8923
35.2816
38.7107
42.1217
45.3426
48.2247
50.8062
53.1021
55.0846
56.7518
58.1941
58.9237
60.3117
60.924
61.38
61.6665
61.808
61.825
61.7509
61.6044
61.3944
61.146
60.5871
59.975
59.3264
58.6493
57.951
57.2321
56.4757
55.6849
54.8354
53.9188
52.9406
51.8671
50.6973
49.5781
48.4456
47.2451
46.0023
44.7441
43.4453
42.1161
40.7954
39.5089
38.221
36.879
35.4813
34.1101
32.8496
31.7065
30.5456
29.036
27.1024
25.1136
23.3883
21.8345
20.3805
19.0037
17.6446
16.2478
14.9413
13.7711
12.6206
11.4961
10.3871
9.3158
8.31903
7.38002
6.53729
5.81317
5.03241
4.41849
4.01901
3.6579
3.34127
2.95332
2.47269
2.02359
1.57552
1.13489
0.748499
0.444106
0.204993
-0.028719
-0.292357
-0.580537
-0.882709
-1.22357
-1.6148
-2.01969
-2.42228
-2.84628
-3.28385
-3.69116
-4.0554
-4.42604
-4.81194
-5.16161
-5.48522
-5.77677
-5.97873
-6.1422
-6.30603
-6.38915
-6.53264
-6.69529
-6.74411
-6.79081
-6.88188
-6.97405
-7.00968
-7.02682
-7.16883
-7.16322
-7.22305
-7.36674
-7.3016
-7.27143
-7.2753
-7.32178
-7.37052
-7.43967
-7.48271
-7.56777
-7.63903
-7.72922
-7.7832
-7.88149
-7.95327
-8.06054
-8.17871
-8.25704
-8.20544
-8.30203
-9.10022
-0.677253
4.77542
10.4137
6.16335
0.741679
-1.36464
-2.15224
-2.45532
-1.58932
-0.332043
0.982984
2.26393
3.46832
4.59439
5.66528
6.69806
7.73478
8.80265
9.90218
11.0225
12.1499
13.2725
14.382
15.4723
16.5404
17.5865
18.6104
19.6148
20.6061
21.5938
22.5922
23.6221
24.7063
25.8593
27.0909
28.4012
29.8014
31.2905
32.8977
34.6839
36.6357
38.7473
41.1878
43.9321
46.937
50.0027
53.0591
56.0336
58.9083
61.606
64.0453
66.1519
67.9288
69.3326
70.2762
70.9989
72.0272
72.2077
72.2223
72.0386
71.693
71.2211
70.6259
69.9442
69.1919
68.3703
67.4863
66.5366
65.5168
64.4329
63.2948
62.1237
60.9409
59.7459
58.5653
57.3745
56.161
54.9821
53.7981
52.5666
51.1099
49.5326
47.9139
46.2584
44.6202
43.0813
41.5689
40.1142
38.705
37.3212
35.9313
34.4826
32.9611
31.4191
29.9316
28.5401
27.2297
25.9421
24.6176
23.2775
21.953
20.6684
19.4479
18.2888
17.1171
15.9719
14.9957
13.9912
12.857
11.7914
10.7913
9.86997
9.02967
8.2529
7.5726
6.99186
6.46218
5.96031
5.47114
5.00184
4.48979
3.90189
3.49555
3.17419
2.86003
2.6464
2.4957
2.36624
2.20723
1.98986
1.70793
1.36441
0.96247
0.512314
0.0398321
-0.437696
-0.915689
-1.38362
-1.8231
-2.23121
-2.62554
-2.99698
-3.33253
-3.64356
-3.89662
-4.11343
-4.28238
-4.3877
-4.43819
-4.45859
-4.48276
-4.50616
-4.51764
-4.58712
-4.79584
-4.8969
-4.95175
-5.01051
-5.05683
-5.08939
-5.12891
-5.17111
-5.2105
-5.25107
-5.28742
-5.32793
-5.36286
-5.40285
-5.43474
-5.47937
-5.5123
-5.55267
-5.59822
-5.61828
-5.67901
-5.70942
-5.81175
-5.86554
-5.95326
-6.25716
-0.939988
3.76898
9.61233
6.55899
2.49671
1.19077
0.98129
1.23401
2.27559
3.4689
4.62733
5.71767
6.73125
7.69711
8.6436
9.59675
10.577
11.5975
12.6576
13.7482
14.8575
15.9767
17.1022
18.2368
19.3795
20.5352
21.7131
22.9265
24.1955
25.5453
27.004
28.6044
30.3843
32.3738
34.5875
37.0465
39.7539
42.7057
45.9375
49.4471
53.0507
56.6742
60.4921
64.3505
68.042
71.5188
74.6746
77.4984
80.0222
82.1971
84.0843
85.5543
86.5716
86.9268
88.1869
88.1203
87.8932
87.507
86.9779
86.3449
85.6538
84.9587
84.2301
83.49
82.7624
82.0131
81.21
80.323
79.2118
77.8654
76.2249
74.2875
72.0819
69.7158
67.368
65.0743
62.7513
60.4901
58.2747
56.0977
53.9883
51.9394
49.9728
48.038
46.106
43.7977
41.8002
39.9328
38.5548
37.0266
35.4914
33.9308
32.3088
30.6571
29.0632
27.6202
26.3446
25.1372
23.8802
22.5115
21.2131
19.9902
18.8501
17.7975
16.7907
15.8065
14.8701
13.9846
13.1282
12.2759
11.4386
10.6365
9.89984
9.21987
8.61253
8.13159
7.65653
7.1091
6.53267
5.93199
5.38627
4.92509
4.54793
4.20374
3.94118
3.89304
3.83541
3.74915
3.60048
3.37776
3.0811
2.7167
2.29432
1.82857
1.33969
0.84455
0.355504
-0.117093
-0.563787
-0.981812
-1.37655
-1.73922
-2.06718
-2.36759
-2.62296
-2.84681
-2.99715
-3.03889
-3.08592
-3.09294
-3.09297
-3.23692
-3.34332
-3.43592
-3.51821
-3.58027
-3.62957
-3.67412
-3.71255
-3.74148
-3.76762
-3.7947
-3.82065
-3.84269
-3.86105
-3.87982
-3.89617
-3.91526
-3.93141
-3.95519
-3.97433
-3.99651
-4.02558
-4.03148
-4.06118
-4.09964
-4.1953
-4.21539
-4.21314
-4.41067
-1.35219
1.57146
6.52802
5.21606
2.01076
1.27087
1.42922
1.91184
3.11375
4.38944
5.54264
6.57077
7.50707
8.41409
9.33396
10.2947
11.3116
12.3846
13.5074
14.6668
15.8473
17.0371
18.2324
19.4369
20.6723
21.9664
23.3453
24.8378
26.4739
28.2765
30.2959
32.6235
35.3137
38.4252
42.0297
46.1673
50.7631
55.5686
60.2775
64.8191
69.1024
73.0086
76.4595
79.5921
82.5207
85.2389
87.7107
90.036
92.1698
94.1157
95.0933
97.3844
97.2737
97.1428
96.3882
95.1332
93.5657
91.8562
90.0735
88.3191
86.7729
85.4247
84.337
83.531
82.9637
82.5282
82.4905
84.451
86.3069
88.2093
89.9064
90.892
90.5752
88.2066
83.1947
80.1268
77.2542
73.9226
70.2087
66.4299
62.8378
59.3129
55.9783
52.844
49.8609
46.8153
44.3119
42.0838
39.7285
37.4767
35.3807
33.4089
31.5097
29.7849
28.2364
26.8218
25.5494
24.3171
23.0976
21.8557
20.6248
19.4451
18.3366
17.3115
16.3619
15.45
14.5639
13.7381
12.9515
12.2029
11.4802
10.7865
10.152
9.58025
9.06366
8.60774
8.17291
7.69869
7.13203
6.47739
5.88113
5.49967
5.26385
5.10951
4.94551
4.76921
4.68751
4.61841
4.4667
4.23592
3.93196
3.56478
3.14526
2.6889
2.21023
1.72442
1.24585
0.784222
0.345331
-0.0678793
-0.455088
-0.809913
-1.13103
-1.42091
-1.67125
-1.8894
-2.02009
-2.06434
-2.08016
-2.10697
-2.26127
-2.3867
-2.47796
-2.55224
-2.61352
-2.66405
-2.70633
-2.74249
-2.77204
-2.79418
-2.81224
-2.82832
-2.84222
-2.85238
-2.85991
-2.86682
-2.87293
-2.88096
-2.8884
-2.9008
-2.91192
-2.92383
-2.94263
-2.94489
-2.95892
-3.01218
-3.06618
-3.08748
-3.02655
-3.17705
-1.87022
-0.475718
2.65426
1.71684
-0.32561
-0.0766292
0.128513
0.584044
2.04136
3.63862
5.03183
6.19246
7.19063
8.11604
9.03522
9.98845
10.9925
12.0562
13.1715
14.3219
15.4912
16.6698
17.8565
19.0634
20.2865
21.5031
22.772
24.1929
25.8136
27.9361
30.8262
34.4974
39.0151
44.4535
50.4549
56.1876
61.1672
65.3323
68.3798
70.5045
72.3675
74.1161
76.1854
79.6244
84.5372
90.6791
98.0879
106.066
110.005
121.261
126.925
130.97
132.979
132.905
130.871
127.192
122.275
116.481
110.154
103.677
97.3498
91.4356
86.1314
81.6709
78.0932
75.5497
73.5975
70.3443
68.2511
66.9564
66.2916
68.2838
71.0445
75.859
83.2497
87.832
91.2806
92.2477
90.0587
83.181
79.319
75.0106
70.0735
65.1126
60.4139
55.901
51.6728
47.8083
44.1118
41.1001
38.4056
35.9508
33.694
31.4844
29.3243
27.3501
25.5829
24.0446
22.6588
21.3624
20.1406
18.992
17.9182
16.9237
16.0094
15.1546
14.333
13.5607
12.8303
12.1367
11.471
10.8503
10.2779
9.76397
9.29614
8.85167
8.4107
7.94458
7.4032
6.76402
6.11237
5.65047
5.55258
5.74761
5.86321
5.643
5.37581
5.18002
5.02256
4.7902
4.48821
4.13162
3.72877
3.29574
2.84205
2.37913
1.92235
1.48151
1.06034
0.661019
0.286316
-0.0587543
-0.372373
-0.652793
-0.895929
-1.10088
-1.26179
-1.33416
-1.34406
-1.41248
-1.60622
-1.70721
-1.78832
-1.85385
-1.90766
-1.95239
-1.98959
-2.02026
-2.0444
-2.06223
-2.07561
-2.08573
-2.09267
-2.09578
-2.09614
-2.09531
-2.0943
-2.09519
-2.09677
-2.102
-2.10751
-2.11387
-2.12666
-2.12852
-2.1383
-2.20465
-2.22288
-2.23497
-2.17417
-2.21336
-2.49519
-2.32412
-1.11332
-2.15592
-3.5238
-2.91556
-2.25749
-1.47508
-0.210109
1.82755
3.598
4.9769
6.05741
6.963
7.80602
8.65504
9.53848
10.449
11.3623
12.258
13.1319
13.9792
14.8484
15.6501
16.3331
17.1402
18.3383
20.0369
22.7034
26.5784
31.5835
38.0811
45.1845
51.4762
56.4515
59.9861
61.5485
61.1242
61.4527
62.582
66.3111
75.1426
89.9032
107.199
130.691
157.605
186.108
214.545
241.001
267.548
272.613
296.386
301.288
302.052
297.342
288.104
275.29
259.718
242.172
223.313
203.73
183.922
164.408
145.579
128.011
112.157
98.2977
86.9487
77.8895
71.1751
66.6425
61.3832
58.7463
56.2609
57.9958
58.1694
57.6472
62.8795
70.1619
81.4296
88.0156
92.0768
90.7631
83.095
78.442
73.1459
67.2552
61.5306
56.1397
51.1033
46.5202
42.415
38.7504
35.3098
32.491
30.0092
27.8123
25.8665
24.1323
22.5628
21.1303
19.819
18.615
17.509
16.498
15.5716
14.7073
13.899
13.1391
12.4262
11.7531
11.1364
10.5685
10.0557
9.5861
9.13027
8.66689
8.18233
7.654
7.05572
6.40927
5.86558
5.67771
5.92555
6.31528
6.44536
6.16132
5.75371
5.43014
5.19868
4.88813
4.55101
4.16964
3.76586
3.34649
2.91298
2.4819
2.06643
1.66995
1.29142
0.933381
0.600315
0.295144
0.0214227
-0.21689
-0.417138
-0.576721
-0.692906
-0.742035
-0.823802
-1.02515
-1.11489
-1.19052
-1.25164
-1.3016
-1.34292
-1.37693
-1.40445
-1.42582
-1.44159
-1.45289
-1.46035
-1.46391
-1.46317
-1.45894
-1.45262
-1.44579
-1.44075
-1.43774
-1.43828
-1.43904
-1.4408
-1.45026
-1.45258
-1.46684
-1.54129
-1.55132
-1.53263
-1.47337
-1.42749
-3.12223
-3.83638
-5.07015
-6.35473
-7.04269
-6.43404
-4.95054
-4.14043
-3.25653
-0.977043
1.18914
2.7917
3.89915
4.67937
5.2969
5.85262
6.37643
6.85745
7.27958
7.71606
7.90938
7.83048
7.51112
7.00767
6.9357
8.06355
10.9028
15.6524
23.002
31.2316
39.175
44.8407
49.6823
52.7648
54.7282
56.5087
61.6776
71.0076
77.4462
92.2413
113.649
142.872
180.385
228.94
289.339
355.19
420.684
481.003
533.48
575.26
591.317
627.276
626.416
624.724
613.742
595.255
572.126
545.391
516.231
484.997
452.365
418.525
383.763
347.704
310.574
273.006
235.582
199.773
166.382
136.527
111
89.698
72.9085
63.3608
54.7029
44.6625
37.7466
44.9371
46.0059
47.9577
50.5209
52.3919
62.1419
76.9275
86.4515
91.0499
87.7335
80.3855
75.1016
69.1177
62.9027
57.067
51.5587
46.4797
41.926
37.9032
34.4014
31.3577
28.7243
26.4209
24.3945
22.6095
21.0157
19.5857
18.3008
17.1526
16.1134
15.1646
14.2863
13.4706
12.7146
12.0189
11.3824
10.8037
10.2698
9.75428
9.23395
8.69939
8.14753
7.56766
6.95625
6.38711
6.0493
6.11788
6.52985
6.93578
6.97342
6.59957
6.04704
5.62527
5.23215
4.92637
4.55689
4.17384
3.80126
3.39976
2.99009
2.59748
2.23107
1.88021
1.54221
1.2223
0.925262
0.655898
0.418888
0.216408
0.0494429
-0.0867319
-0.206165
-0.270911
-0.460454
-0.55737
-0.63025
-0.688662
-0.735906
-0.774915
-0.806956
-0.832858
-0.853283
-0.868761
-0.880058
-0.887512
-0.890845
-0.889438
-0.883501
-0.874062
-0.862594
-0.85112
-0.842021
-0.839393
-0.837412
-0.831534
-0.83485
-0.841163
-0.86469
-0.95246
-0.967622
-0.942198
-0.855648
-0.796528
-3.85415
-5.1436
-8.11359
-9.53275
-10.8413
-10.5478
-9.0313
-7.5884
-6.38124
-4.75938
-2.44789
-0.736068
0.274086
0.756038
0.854721
0.65261
0.327401
-0.00724789
-0.409972
-1.24854
-2.87931
-4.50666
-5.39694
-4.88503
-1.56295
5.21837
14.9559
26.274
39.8195
49.1683
56.9777
62.8702
62.484
59.5082
61.0834
61.9059
65.6201
74.9337
89.5109
112.425
148.968
203.618
274.582
370.451
487.554
605.744
721.607
830.89
933.73
987.276
1055.03
1064.18
976.2
968.852
955.023
915.964
873.019
829.022
790.999
753.982
718.69
685.655
654.623
624.195
590.405
549.859
504.479
454.956
400.815
343.72
287.496
233.009
182.33
139.247
102.519
80.0941
64.5065
42.2701
24.5564
10.7514
19.6703
27.0672
31.4496
36.0232
39.3301
44.7607
59.8449
76.5693
86.6241
87.6678
80.468
75.9939
70.6295
64.537
58.5833
53.008
47.8731
43.2574
39.1779
35.5855
32.4198
29.6233
27.1395
24.9174
22.9298
21.1784
19.652
18.3065
17.0987
16.0032
15.0056
14.0971
13.2706
12.5172
11.8207
11.1571
10.5039
9.85297
9.21118
8.5851
7.97312
7.39841
6.95213
6.77996
6.97412
7.40658
7.73414
7.6629
7.20709
6.50658
5.9079
5.44079
4.9859
4.57929
4.29391
3.91478
3.5084
3.12397
2.79226
2.48056
2.16323
1.8538
1.56227
1.29494
1.05655
0.848801
0.670977
0.519699
0.387448
0.270371
0.135042
0.00564969
-0.0641912
-0.12069
-0.165196
-0.202127
-0.23307
-0.258578
-0.279416
-0.296303
-0.309748
-0.319917
-0.326507
-0.328497
-0.324923
-0.316099
-0.303238
-0.286127
-0.26512
-0.254381
-0.256241
-0.247499
-0.22156
-0.239423
-0.269247
-0.397266
-0.42079
-0.370456
-0.306777
-0.239759
-4.43642
-7.06616
-12.7746
-15.1608
-16.5467
-15.5123
-13.9568
-12.3403
-10.5476
-8.90786
-7.49791
-5.77922
-5.05964
-5.32183
-6.29242
-7.71803
-9.58818
-12.2146
-15.2897
-17.8805
-18.5898
-15.8272
-9.11958
1.98207
16.129
31.966
43.6745
48.9635
54.8329
58.0539
63.4834
65.4117
64.0498
62.4607
56.4666
52.9488
53.1298
62.7288
89.3185
127.853
168.743
196.675
202.611
184.428
139.706
96.9301
75.7434
93.9948
144.006
297.147
354.04
592.725
872.24
1038.78
1198.38
1217.06
1114.33
983.107
930.676
872.701
822.065
782.268
751.694
741.988
757.937
770.065
734.736
724.799
696.474
644.521
579.13
510.941
435.821
358.905
285.567
218.245
159.228
109.998
80.8258
60.4099
29.0395
3.10415
-17.5004
-9.48297
0.957233
10.2049
18.2426
24.6108
29.0902
43.9423
64.5252
78.7718
84.4986
82.1684
76.308
72.0526
66.9486
61.3486
55.994
51.0791
46.5258
42.3457
38.5651
35.1683
32.1085
29.3681
26.9513
24.8284
22.9528
21.2842
19.7903
18.4467
17.234
16.1317
15.1134
14.1495
13.2158
12.3056
11.4346
10.6284
9.90137
9.25514
8.70599
8.3173
8.19381
8.38013
8.73222
8.95176
8.79435
8.27124
7.53536
6.67865
5.99664
5.43835
5.01926
4.57348
4.12948
3.7219
3.41603
3.17496
2.86544
2.5532
2.25994
1.99168
1.75047
1.53646
1.34726
1.17991
1.03328
0.903208
0.771466
0.64437
0.561991
0.502794
0.462205
0.427793
0.397066
0.370184
0.346977
0.326302
0.307574
0.291112
0.277018
0.266076
0.261087
0.263786
0.271718
0.285103
0.315684
0.363222
0.352262
0.330069
0.314775
0.276266
0.237134
0.143781
0.129779
0.161698
0.247095
0.363601
-5.03775
-10.4196
-20.1617
-23.5254
-22.6648
-20.6364
-18.935
-17.47
-16.1809
-15.0796
-14.0672
-13.9645
-15.4402
-17.5288
-19.933
-22.5708
-25.3089
-26.7212
-25.4128
-20.6417
-11.3045
1.76795
16.5696
31.8691
41.436
50.1876
53.6631
64.397
65.8805
64.6911
60.875
57.2189
47.9543
38.0389
24.4819
21.9679
29.0683
40.4558
40.8103
16.5772
-48.1923
-100.85
-144.207
-221.027
-318.077
-410.899
-477.559
-501.915
-516.138
-492.532
-427.92
-278.695
-160.038
73.7918
175.83
299.555
621.265
901.138
1051.09
944.577
826.105
755.399
687.256
620.831
564.288
546.264
603.092
698.448
813.57
888.587
818.007
796.439
739.401
661.018
573.901
480.722
389.046
300.965
222.598
155.651
102.654
72.0878
53.7947
12.2357
-21.6571
-42.9941
-39.6054
-25.7645
-11.3383
0.594297
10.5947
14.4035
29.0366
48.8279
66.9154
78.1858
82.2909
80.3347
74.1927
70.2897
65.9476
61.0809
56.0977
51.4648
47.329
43.4851
39.8638
36.5179
33.4991
30.8094
28.416
26.2751
24.3516
22.6148
21.0287
19.5543
18.1614
16.8411
15.6091
14.4975
13.5304
12.7015
11.9807
11.3559
10.8768
10.6345
10.6639
10.8484
10.9494
10.7559
10.2014
9.41128
8.55879
7.67822
6.7436
6.07792
5.52132
5.00825
4.55662
4.1722
3.7745
3.41952
3.11057
2.83739
2.59225
2.37087
2.16957
1.98636
1.81946
1.66792
1.54114
1.43187
1.33413
1.2733
1.23056
1.19846
1.16556
1.13362
1.1032
1.07307
1.04246
1.01277
0.984697
0.957952
0.933038
0.920551
0.917879
0.912299
0.907027
0.912287
0.876937
0.80583
0.689961
0.650119
0.617177
0.724209
0.696902
0.728458
0.805902
0.946532
-6.1007
-16.9719
-30.9911
-30.2099
-27.8474
-26.0198
-24.9907
-24.5683
-24.7021
-25.4134
-26.8348
-29.0131
-31.2417
-32.9051
-33.4506
-31.9338
-28.7893
-21.5489
-11.215
1.20331
15.1719
26.0368
36.8929
43.2537
55.5797
65.327
69.9001
62.9245
60.6354
55.7257
44.5229
24.8097
1.60849
-25.2668
-23.3297
-17.0489
-23.9382
-40.4352
-85.5697
-138.893
-211.612
-295.036
-463.425
-720.917
-825.459
-1020.95
-1107.37
-1176.57
-1291.11
-1400.74
-1554.37
-1784.54
-1580.38
-1171.61
-974.039
-548.596
-293.436
72.9818
267.911
505.288
763.513
879.554
857.641
679.941
585.137
500.527
437.19
349.37
302.804
390.598
654.498
845.525
965.959
894.324
856.724
778.063
681.927
575.175
466.51
365.87
272.879
195.214
125.206
83.1091
54.0331
30.3762
1.87882
-47.728
-66.9726
-69.3074
-51.6152
-35.4214
-17.5091
-3.22643
7.64789
14.2156
27.0232
48.0851
64.5975
75.4295
80.071
81.0815
77.928
71.564
67.5895
63.6482
59.3828
54.9519
50.5866
46.4978
42.8483
39.5845
36.6066
33.879
31.3744
29.0593
26.9104
24.926
23.1199
21.5109
20.1113
18.9068
17.8422
16.849
15.9074
15.0808
14.477
14.1526
14.0368
13.9505
13.7142
13.2338
12.4956
11.5529
10.5485
9.61005
8.74585
7.90036
6.99043
6.12834
5.52968
5.06988
4.68568
4.34406
4.02974
3.73641
3.46132
3.20461
2.96823
2.75811
2.5782
2.42799
2.30638
2.21247
2.14376
2.0828
2.02439
1.96856
1.9154
1.86298
1.80972
1.75663
1.70557
1.66032
1.59354
1.55407
1.53263
1.49188
1.40901
1.27593
1.20026
1.12813
1.09166
1.1229
1.16198
1.27656
1.28949
1.39408
1.46461
1.53916
-8.36567
-29.9438
-36.9989
-35.8542
-34.3944
-33.7089
-33.8219
-34.7283
-36.1305
-37.5224
-38.4505
-38.5707
-37.7253
-35.4835
-31.2019
-23.817
-13.4407
-2.33088
8.85364
18.1582
27.1635
37.7169
55.9314
62.5883
64.7942
61.9922
61.6472
56.9635
47.5162
26.1107
-2.30306
-54.2316
-74.8068
-62.7823
-32.4509
-1.54288
26.3832
13.4123
12.4793
-3.03824
-91.8552
-263.022
-362.497
-358.084
-358.709
-392.674
-350.709
-291.905
-139.7
74.2996
279.067
354.103
-128.527
-1093.63
-1819.41
-2552.79
-2076.75
-1623.24
-1042.26
-460.513
-102.601
219.238
367.221
650.253
715.345
711.726
552.761
422.9
335.013
246.416
211.69
214.666
371.169
725.297
963.764
966.358
931.855
856.787
752.71
633.184
512.104
398.771
301.337
218.241
151.901
93.0826
59.0896
37.1708
14.1936
-13.4403
-63.8141
-85.8184
-92.6315
-73.9675
-56.4541
-34.7633
-17.9802
-3.78165
7.02696
13.5629
20.8806
38.0984
50.6187
63.3989
71.1818
75.5132
76.4903
75.1402
71.9639
67.147
61.9115
58.4524
55.1923
51.9304
48.6808
45.4481
42.2503
39.1521
36.2585
33.6696
31.4327
29.5149
27.8362
26.2704
24.7096
23.1427
21.6651
20.4134
19.4732
18.8245
18.3546
17.9087
17.3437
16.5987
15.7053
14.7239
13.6975
12.6476
11.6184
10.7094
9.90315
9.13627
8.40208
7.70992
7.06221
6.45808
5.8975
5.38238
4.91707
4.50731
4.15512
3.85861
3.61311
3.41051
3.23938
3.08657
2.94865
2.82443
2.71359
2.61264
2.52044
2.43288
2.34776
2.26162
2.17476
2.09397
2.0088
1.90612
1.80058
1.71847
1.67571
1.66735
1.7018
1.7847
1.84855
1.81598
2.04407
2.22437
2.25184
2.25853
-12.6888
-36.9236
-42.9832
-42.8027
-42.1786
-41.9224
-42.1374
-42.1575
-41.3703
-39.6398
-37.1997
-34.2976
-30.7468
-25.8235
-18.8886
-7.65935
1.36032
10.3141
21.0885
36.983
49.6265
56.6343
56.2654
57.8448
59.2172
56.7902
50.676
35.4283
6.94337
-55.6931
-99.8936
-102.763
-90.5112
-44.9891
44.4302
99.8735
127.719
184.071
289.477
297.749
153.673
-3.37992
-115.596
-165.372
-207.739
-262.477
-414.425
-524.231
-446.85
-196.78
235.938
743.133
1022.2
1247.48
1150.82
955.268
-719.647
-2296.27
-3032.02
-2424.11
-1848.01
-1282.91
-509.184
-83.9274
225.587
387.886
498.497
515.34
440.646
326.363
217.783
150.386
120.51
122.508
224.892
623.149
930.186
990.053
978.593
905.401
790.96
659.144
528.674
410.079
309.562
226.907
160.129
106.874
64.7486
39.5427
22.4548
6.59955
-20.0768
-63.5852
-87.5618
-101.336
-96.8405
-77.4469
-59.4116
-38.4298
-22.1642
-8.19784
3.19627
12.1117
18.5731
20.898
31.7645
39.7602
47.2432
54.4758
60.5241
63.7235
65.0273
64.7313
63.4887
61.5643
59.0555
55.9542
52.4463
48.8027
46.072
43.8163
41.7953
39.874
37.907
35.7991
33.5563
31.2947
29.1857
27.3772
25.9416
24.8509
23.9962
23.2567
22.5462
21.7941
20.948
20.0011