/*--------------------------------*- C++ -*----------------------------------*\
| =========                 |                                                 |
| \\      /  F ield         | OpenFOAM: The Open Source CFD Toolbox           |
|  \\    /   O peration     | Version:  2112                                  |
|   \\  /    A nd           | Website:  www.openfoam.com                      |
|    \\/     M anipulation  |                                                 |
\*---------------------------------------------------------------------------*/
FoamFile
{
    version     2.0;
    format      ascii;
    arch        "LSB;label=32;scalar=64";
    class       volVectorField;
    location    "0.01";
    object      ddtCorrDdt0(U);
}
// * * * * * * * * * * * * * * * * * * * * * * * * * * * * * * * * * * * * * //

dimensions      [0 1 -2 0 0 0 0];

internalField   nonuniform List<vector> 
12225
(
(-0.0485925 0.00799652 0)
(-0.151137 0.00996728 0)
(-0.464153 0.023916 0)
(-0.886649 0.02453 0)
(-1.42427 0.00779322 0)
(-1.90203 0.0183109 0)
(-2.51033 0.0583208 0)
(-3.18863 0.0991468 0)
(-3.85025 0.104945 0)
(-4.5608 0.134328 0)
(-5.12626 0.0924173 0)
(-5.66579 0.103761 0)
(-6.12419 0.0499341 0)
(-6.11705 0.122609 0)
(-7.53871 -0.216929 0)
(-3.57659 -0.298697 0)
(-8.4337 0.7599 0)
(-0.547996 -2.39073 0)
(0.0122912 0.0358427 0)
(-0.136796 0.0602401 0)
(-0.33966 0.0952054 0)
(-0.635964 0.141153 0)
(-0.952259 0.160994 0)
(-1.33692 0.196474 0)
(-1.77113 0.238847 0)
(-2.30865 0.252182 0)
(-2.93191 0.264646 0)
(-3.51124 0.249998 0)
(-4.12578 0.226856 0)
(-4.66543 0.271008 0)
(-5.51594 0.128152 0)
(-5.43041 0.120464 0)
(-5.77762 -0.04057 0)
(-6.2755 -0.0346372 0)
(-6.08738 -0.683026 0)
(-2.0668 -0.244922 0)
(0.00751936 0.0448504 0)
(-0.128812 0.124182 0)
(-0.372366 0.180126 0)
(-0.634319 0.232024 0)
(-0.925694 0.249483 0)
(-1.2712 0.290156 0)
(-1.6571 0.349347 0)
(-2.10088 0.398519 0)
(-2.56153 0.428298 0)
(-3.04262 0.443271 0)
(-3.58763 0.427519 0)
(-4.02372 0.432037 0)
(-4.57777 0.338184 0)
(-4.83916 0.253722 0)
(-5.26466 -0.011964 0)
(-5.34114 -0.277583 0)
(-4.64949 -0.236478 0)
(-4.56829 -1.21217 0)
(0.00049895 0.0616764 0)
(-0.13831 0.148768 0)
(-0.384501 0.254164 0)
(-0.647611 0.325064 0)
(-0.969365 0.365545 0)
(-1.3389 0.430932 0)
(-1.75465 0.510018 0)
(-2.19874 0.578657 0)
(-2.67508 0.624978 0)
(-3.17599 0.650292 0)
(-3.70594 0.653237 0)
(-4.21539 0.644817 0)
(-4.7301 0.550977 0)
(-5.16401 0.416649 0)
(-5.64067 0.180301 0)
(-5.98451 -0.212988 0)
(-5.3445 -0.615505 0)
(-5.45289 -1.4338 0)
(-0.000581963 0.0820979 0)
(-0.130222 0.197303 0)
(-0.392478 0.299733 0)
(-0.657473 0.377379 0)
(-1.02715 0.433145 0)
(-1.42106 0.571965 0)
(-1.84431 0.673469 0)
(-2.30667 0.763557 0)
(-2.80958 0.831738 0)
(-3.34962 0.879513 0)
(-3.91549 0.899803 0)
(-4.48732 0.896029 0)
(-5.06652 0.814632 0)
(-5.59783 0.670618 0)
(-6.11067 0.396644 0)
(-6.65261 -0.0556913 0)
(-6.67054 -0.634886 0)
(-6.79744 -1.71092 0)
(-0.00396633 0.0976918 0)
(-0.088983 0.266905 0)
(-0.349145 0.366979 0)
(-0.630092 0.470718 0)
(-1.03559 0.563159 0)
(-1.48551 0.670996 0)
(-1.90841 0.779562 0)
(-2.39353 0.887358 0)
(-2.92125 0.975008 0)
(-3.49133 1.04384 0)
(-4.09279 1.07804 0)
(-4.7073 1.08806 0)
(-5.33764 1.01571 0)
(-5.94316 0.878043 0)
(-6.52789 0.615755 0)
(-7.14197 0.14873 0)
(-7.5754 -0.594003 0)
(-7.81529 -1.55573 0)
(-0.00607846 0.108798 0)
(-0.0503339 0.315132 0)
(-0.268477 0.475255 0)
(-0.561078 0.608443 0)
(-0.936537 0.735031 0)
(-1.42245 0.811578 0)
(-1.8886 0.93946 0)
(-2.3902 1.07169 0)
(-2.93226 1.18573 0)
(-3.51523 1.28082 0)
(-4.1372 1.33766 0)
(-4.77797 1.36485 0)
(-5.4454 1.3109 0)
(-6.1193 1.18558 0)
(-6.7913 0.930567 0)
(-7.47744 0.450646 0)
(-8.23729 -0.277503 0)
(-8.83897 -1.19473 0)
(0.0017583 0.115573 0)
(-0.0242853 0.352428 0)
(-0.199168 0.555159 0)
(-0.48618 0.722498 0)
(-0.826174 0.891587 0)
(-1.26204 1.04584 0)
(-1.7491 1.19022 0)
(-2.26685 1.33989 0)
(-2.81904 1.47928 0)
(-3.41062 1.59911 0)
(-4.04276 1.68408 0)
(-4.70378 1.73094 0)
(-5.39881 1.70849 0)
(-6.12148 1.59414 0)
(-6.86674 1.34965 0)
(-7.66119 0.906255 0)
(-8.59132 0.211955 0)
(-9.607 -0.820145 0)
(0.0227596 0.109834 0)
(-0.0107436 0.386219 0)
(-0.14748 0.633005 0)
(-0.421311 0.835764 0)
(-0.748868 1.03431 0)
(-1.1388 1.22449 0)
(-1.60431 1.40111 0)
(-2.12076 1.57772 0)
(-2.67709 1.74658 0)
(-3.27454 1.89804 0)
(-3.91614 2.01638 0)
(-4.59656 2.09402 0)
(-5.32773 2.11211 0)
(-6.10259 2.0351 0)
(-6.91452 1.84106 0)
(-7.79679 1.48682 0)
(-8.81982 0.929048 0)
(-9.98034 0.0911083 0)
(0.0239615 0.111845 0)
(-0.0145685 0.414109 0)
(-0.111762 0.710919 0)
(-0.364747 0.956913 0)
(-0.688136 1.1815 0)
(-1.05834 1.4002 0)
(-1.49869 1.6152 0)
(-2.00223 1.82686 0)
(-2.55535 2.02985 0)
(-3.15502 2.21725 0)
(-3.80466 2.37539 0)
(-4.50381 2.49166 0)
(-5.2725 2.53737 0)
(-6.10654 2.53308 0)
(-6.99653 2.41231 0)
(-7.97935 2.15168 0)
(-9.09522 1.73955 0)
(-10.3154 1.1142 0)
(0.00246707 0.112649 0)
(-0.0242486 0.43495 0)
(-0.0911699 0.78121 0)
(-0.316839 1.08064 0)
(-0.631688 1.3376 0)
(-0.991957 1.59098 0)
(-1.41811 1.84664 0)
(-1.9109 2.09798 0)
(-2.4597 2.34025 0)
(-3.06112 2.56949 0)
(-3.72015 2.77568 0)
(-4.44915 2.94639 0)
(-5.23987 3.0555 0)
(-6.11196 3.12387 0)
(-7.09216 3.09174 0)
(-8.18452 2.94148 0)
(-9.42662 2.66449 0)
(-10.7886 2.20489 0)
(-0.00370896 0.117834 0)
(-0.0318926 0.450661 0)
(-0.0864063 0.840132 0)
(-0.279498 1.19241 0)
(-0.580922 1.48677 0)
(-0.933007 1.77699 0)
(-1.35067 2.07305 0)
(-1.8368 2.365 0)
(-2.38328 2.64866 0)
(-2.98785 2.92296 0)
(-3.65613 3.18228 0)
(-4.3973 3.41743 0)
(-5.21496 3.62183 0)
(-6.13143 3.75845 0)
(-7.16824 3.82567 0)
(-8.33538 3.80431 0)
(-9.67285 3.67982 0)
(-11.167 3.39194 0)
(-0.00478459 0.125403 0)
(-0.0381654 0.46773 0)
(-0.0889028 0.895932 0)
(-0.237209 1.29929 0)
(-0.520407 1.63457 0)
(-0.863649 1.96486 0)
(-1.27091 2.3035 0)
(-1.74757 2.63926 0)
(-2.28857 2.96847 0)
(-2.8927 3.29277 0)
(-3.56565 3.61 0)
(-4.31579 3.91479 0)
(-5.15475 4.19883 0)
(-6.10003 4.43778 0)
(-7.17067 4.62776 0)
(-8.38445 4.75391 0)
(-9.77292 4.80861 0)
(-11.3352 4.73064 0)
(-0.00426721 0.136857 0)
(-0.0495475 0.489225 0)
(-0.101201 0.93953 0)
(-0.183611 1.4239 0)
(-0.428056 1.80909 0)
(-0.76507 2.18823 0)
(-1.15946 2.57824 0)
(-1.62031 2.96796 0)
(-2.14921 3.35583 0)
(-2.7464 3.74493 0)
(-3.41654 4.13651 0)
(-4.16893 4.53023 0)
(-5.01682 4.91886 0)
(-5.9765 5.2899 0)
(-7.06299 5.63336 0)
(-8.29466 5.94445 0)
(-9.69484 6.22204 0)
(-11.2669 6.41034 0)
(-0.00349831 0.152511 0)
(-0.0482013 0.521818 0)
(-0.118589 0.970673 0)
(-0.154763 1.51251 0)
(-0.296377 1.98745 0)
(-0.617417 2.44896 0)
(-0.992051 2.90189 0)
(-1.42586 3.35596 0)
(-1.93236 3.81674 0)
(-2.51107 4.28744 0)
(-3.16481 4.77341 0)
(-3.90405 5.27928 0)
(-4.74225 5.80206 0)
(-5.69198 6.33166 0)
(-6.7636 6.86097 0)
(-7.97437 7.39199 0)
(-9.34068 7.92956 0)
(-10.868 8.42563 0)
(-0.00223634 0.168951 0)
(-0.0355761 0.561437 0)
(-0.0986715 1.01349 0)
(-0.12788 1.54651 0)
(-0.180147 2.17286 0)
(-0.416189 2.73419 0)
(-0.72929 3.2641 0)
(-1.11044 3.80023 0)
(-1.57319 4.35121 0)
(-2.11231 4.92148 0)
(-2.72763 5.52218 0)
(-3.42937 6.16579 0)
(-4.22865 6.85063 0)
(-5.13116 7.56505 0)
(-6.1419 8.3065 0)
(-7.2757 9.08631 0)
(-8.54377 9.91392 0)
(-9.95384 10.7504 0)
(-0.00101194 0.182077 0)
(-0.0196503 0.595672 0)
(-0.0521712 1.05447 0)
(-0.0981504 1.59765 0)
(-0.086338 2.26758 0)
(-0.119549 2.95438 0)
(-0.321364 3.60674 0)
(-0.601665 4.26894 0)
(-0.972289 4.94054 0)
(-1.42185 5.63331 0)
(-1.95518 6.37302 0)
(-2.58089 7.18058 0)
(-3.30009 8.04442 0)
(-4.10188 8.95146 0)
(-4.98659 9.91394 0)
(-5.96712 10.9533 0)
(-7.04921 12.0791 0)
(-8.24284 13.2637 0)
(4.75175e-06 0.187649 0)
(0.000114376 0.610925 0)
(0.00269805 1.07273 0)
(0.0112147 1.59821 0)
(0.0284269 2.2318 0)
(0.140679 2.97326 0)
(0.194064 3.76642 0)
(0.120111 4.64832 0)
(-0.0414522 5.47439 0)
(-0.281289 6.31408 0)
(-0.632101 7.22416 0)
(-1.10007 8.21735 0)
(-1.65194 9.24877 0)
(-2.26153 10.3154 0)
(-2.91798 11.4823 0)
(-3.64508 12.7709 0)
(-4.43475 14.1767 0)
(-5.29257 15.6852 0)
(0.00147645 0.179114 0)
(0.0252126 0.58466 0)
(0.073314 1.02406 0)
(0.149953 1.51477 0)
(0.259767 2.07961 0)
(0.413607 2.75732 0)
(0.617619 3.6103 0)
(0.901549 4.47798 0)
(1.16331 5.39502 0)
(1.28176 6.47945 0)
(1.292 7.71391 0)
(1.16337 9.076 0)
(1.01717 10.4382 0)
(0.726097 11.6591 0)
(0.459499 12.9213 0)
(0.173648 14.2573 0)
(-0.15962 15.7313 0)
(-0.523949 17.4257 0)
(0.00222698 0.157753 0)
(0.0443959 0.516551 0)
(0.128908 0.903569 0)
(0.25811 1.33437 0)
(0.431177 1.82614 0)
(0.648914 2.39855 0)
(0.923506 3.07863 0)
(1.25457 3.88945 0)
(1.65042 4.9123 0)
(2.06849 6.11662 0)
(2.50632 7.47263 0)
(2.92767 8.87805 0)
(3.37078 9.93276 0)
(3.67303 11.1303 0)
(3.76924 12.8265 0)
(3.91079 14.4887 0)
(3.9942 16.0756 0)
(4.18646 17.8101 0)
(0.00267917 0.132449 0)
(0.0574815 0.43855 0)
(0.167268 0.767698 0)
(0.334953 1.13683 0)
(0.557149 1.56378 0)
(0.830984 2.06569 0)
(1.15896 2.66105 0)
(1.54075 3.36695 0)
(1.98646 4.22667 0)
(2.50944 5.26516 0)
(3.12001 6.47812 0)
(3.8059 7.83307 0)
(4.45778 9.28575 0)
(5.11501 10.9236 0)
(5.61723 12.4989 0)
(5.99327 13.6326 0)
(6.45163 14.9173 0)
(6.90045 16.9202 0)
(0.00307277 0.104876 0)
(0.0666679 0.355986 0)
(0.1929 0.623338 0)
(0.38711 0.927326 0)
(0.643757 1.28697 0)
(0.958341 1.71872 0)
(1.33158 2.23586 0)
(1.76773 2.8545 0)
(2.27713 3.60737 0)
(2.87338 4.51539 0)
(3.5622 5.5835 0)
(4.33182 6.80198 0)
(5.12976 8.16217 0)
(5.94286 9.73555 0)
(6.74704 11.4917 0)
(7.4801 13.1406 0)
(7.98464 14.2223 0)
(8.52084 15.5159 0)
(0.00228182 0.0772173 0)
(0.0721129 0.274789 0)
(0.205527 0.483048 0)
(0.411053 0.7253 0)
(0.681609 1.02075 0)
(1.01291 1.38555 0)
(1.40683 1.82761 0)
(1.86858 2.35744 0)
(2.40837 3.00234 0)
(3.04101 3.7833 0)
(3.77416 4.71607 0)
(4.60448 5.81204 0)
(5.5098 7.08465 0)
(6.48031 8.56728 0)
(7.50746 10.2393 0)
(8.53086 11.9854 0)
(9.42139 13.616 0)
(9.96523 14.6606 0)
(-0.00568282 0.0512213 0)
(0.0743535 0.211805 0)
(0.207486 0.360982 0)
(0.405374 0.547255 0)
(0.668789 0.785658 0)
(0.994745 1.09047 0)
(1.38847 1.46545 0)
(1.85069 1.91529 0)
(2.3901 2.46311 0)
(3.02705 3.12739 0)
(3.77268 3.93025 0)
(4.63189 4.89264 0)
(5.59859 6.03427 0)
(6.67216 7.37856 0)
(7.85397 8.92162 0)
(9.11872 10.6018 0)
(10.4161 12.3224 0)
(11.4832 13.9556 0)
(-0.0153298 0.0388435 0)
(0.0581633 0.148886 0)
(0.197468 0.259372 0)
(0.369532 0.403825 0)
(0.614215 0.593077 0)
(0.924698 0.844568 0)
(1.31043 1.16122 0)
(1.76045 1.54477 0)
(2.28353 2.00926 0)
(2.90777 2.5692 0)
(3.64772 3.25015 0)
(4.51662 4.07865 0)
(5.51549 5.07593 0)
(6.65215 6.25898 0)
(7.93118 7.63593 0)
(9.34035 9.16759 0)
(10.8591 10.7875 0)
(12.3621 12.4017 0)
(-0.00609481 0.0301483 0)
(0.0370933 0.0818224 0)
(0.157224 0.183987 0)
(0.308054 0.295141 0)
(0.537484 0.441718 0)
(0.837966 0.644135 0)
(1.21907 0.909587 0)
(1.653 1.24089 0)
(2.15887 1.63298 0)
(2.76622 2.10015 0)
(3.50049 2.66511 0)
(4.38251 3.36614 0)
(5.41126 4.21693 0)
(6.61196 5.23411 0)
(7.98002 6.43656 0)
(9.50552 7.79185 0)
(11.195 9.25998 0)
(12.9612 10.783 0)
(0.00621669 0.0228038 0)
(0.0267288 0.0566196 0)
(0.102593 0.132806 0)
(0.234474 0.208705 0)
(0.456533 0.316114 0)
(0.770595 0.470065 0)
(1.15591 0.69216 0)
(1.57698 0.979178 0)
(2.07531 1.30571 0)
(2.66425 1.68422 0)
(3.41702 2.12868 0)
(4.33262 2.70815 0)
(5.41366 3.39853 0)
(6.74 4.24196 0)
(8.24024 5.27962 0)
(9.91519 6.43874 0)
(11.8269 7.69898 0)
(13.8707 9.10865 0)
(0.00528717 0.0163918 0)
(0.0245982 0.0501425 0)
(0.0545595 0.0973275 0)
(0.15487 0.12998 0)
(0.381886 0.190402 0)
(0.754456 0.291308 0)
(1.15395 0.48373 0)
(1.58252 0.730954 0)
(2.07156 0.993489 0)
(2.66267 1.29568 0)
(3.47787 1.59696 0)
(4.4447 2.0251 0)
(5.70771 2.56311 0)
(7.26647 3.17406 0)
(9.07747 4.00071 0)
(11.1063 5.00676 0)
(13.4587 6.00454 0)
(16.0825 7.16562 0)
(0.00392978 0.00964886 0)
(0.0208828 0.0404622 0)
(0.0019272 0.0709184 0)
(0.0798878 0.0483294 0)
(0.388264 0.0309678 0)
(0.755559 0.107739 0)
(1.29093 0.268912 0)
(1.65437 0.467818 0)
(2.26132 0.681535 0)
(3.27301 0.849972 0)
(3.97418 1.07318 0)
(5.5739 1.37181 0)
(7.58744 1.63282 0)
(9.19812 2.08037 0)
(12.091 2.7315 0)
(15.6974 3.27012 0)
(18.6501 4.03841 0)
(22.8794 5.02757 0)
(-0.0695168 -0.00693639 0)
(0.0433164 0.071341 0)
(0.462834 0.088343 0)
(0.579632 -0.0150872 0)
(0.510443 -0.110707 0)
(0.45941 -0.0808838 0)
(0.77905 0.134921 0)
(1.83178 0.333489 0)
(3.14566 0.412899 0)
(4.78523 0.537599 0)
(6.99219 0.504517 0)
(8.86024 0.409573 0)
(11.3586 0.624497 0)
(14.5834 0.717911 0)
(17.7955 0.773557 0)
(22.0583 1.34377 0)
(27.7627 1.75171 0)
(33.5294 1.9065 0)
(5.03719 -10.8401 -4.39563e-17)
(14.3362 -9.70018 2.7928e-17)
(21.0694 -6.79494 0)
(25.3024 -3.44464 0)
(26.7494 -1.70604 0)
(27.9645 -1.62749 -2.82134e-17)
(29.2754 -1.99762 0)
(30.8389 -2.2315 0)
(32.517 -2.32847 0)
(34.2184 -2.40019 0)
(35.9038 -2.4998 2.86229e-17)
(37.4918 -2.60313 0)
(38.8926 -2.6749 0)
(39.9845 -2.68501 0)
(40.707 -2.63413 0)
(41.1421 -2.47565 2.90318e-17)
(41.297 -2.13108 0)
(41.0377 -1.58989 0)
(40.1811 -0.863882 0)
(38.5514 0.0424226 0)
(35.975 1.12167 0)
(32.2814 2.37343 0)
(27.2945 3.79834 0)
(20.833 5.40137 2.96688e-17)
(12.7099 7.17284 -2.97454e-17)
(2.7439 9.10296 2.98215e-17)
(-9.24127 11.1738 2.98965e-17)
(-23.4193 13.3745 0)
(-39.9666 15.6866 0)
(-59.059 18.0909 -3.01123e-17)
(-80.8532 20.5403 -3.01803e-17)
(-105.483 23.0123 0)
(-133.064 25.7914 0)
(-163.772 28.5758 -3.03743e-17)
(-197.662 30.7109 0)
(-234.702 32.4673 0)
(-274.751 34.0189 3.05165e-17)
(-317.7 35.305 0)
(-362.792 36.2505 3.0591e-17)
(-409.207 36.7592 6.1187e-17)
(-458.303 37.0164 0)
(-505.18 38.9412 0)
(-548.109 38.2152 0)
(-591.111 37.3966 0)
(-631.511 36.5312 0)
(-669.826 35.2334 6.00243e-17)
(-706.39 32.8309 5.9619e-17)
(-740.222 28.8478 5.91709e-17)
(-770.344 23.4831 0)
(-796.136 17.2276 -5.80886e-17)
(-817.383 12.9984 0)
(-834.323 10.2013 5.6718e-17)
(-847.258 7.09859 5.6027e-17)
(-856.09 3.92154 0)
(-860.812 0.820982 0)
(-861.606 -2.0893 0)
(-858.774 -4.74156 5.29564e-17)
(-852.634 -7.13062 0)
(-843.564 -9.26638 0)
(-831.973 -11.1385 0)
(-818.392 -12.7452 0)
(-803.232 -14.045 0)
(-786.574 -14.9821 0)
(-768.686 -15.6339 0)
(-749.835 -16.0963 0)
(-730.2 -16.4246 -4.63116e-17)
(-709.94 -16.6563 0)
(-689.163 -16.8168 0)
(-667.952 -16.9215 4.48818e-17)
(-646.358 -16.9745 4.44773e-17)
(-624.426 -16.9552 0)
(-602.205 -16.8282 -4.37606e-17)
(-579.761 -16.5142 4.34488e-17)
(-557.204 -15.9066 0)
(-534.604 -15.0636 -4.29215e-17)
(-511.945 -16.1845 0)
(-488.919 -18.0599 0)
(-465.479 -18.4157 4.22957e-17)
(-442.174 -18.3959 0)
(-419.132 -18.5245 -4.19396e-17)
(-396.372 -18.9367 0)
(-373.703 -19.4961 4.16302e-17)
(-351.049 -19.2892 4.15102e-17)
(-329.571 -17.6025 4.13747e-17)
(-309.021 -16.0297 8.24938e-17)
(-289.555 -14.8579 -8.22479e-17)
(-271.029 -13.8548 0)
(-253.458 -12.86 0)
(-236.909 -11.941 0)
(-221.37 -11.2254 -8.13007e-17)
(-206.724 -10.701 -8.10621e-17)
(-192.853 -10.1694 8.08166e-17)
(-179.834 -9.36652 0)
(-167.994 -8.19018 -8.02972e-17)
(-157.803 -6.77824 -8.00194e-17)
(-149.659 -5.30655 -7.97372e-17)
(-143.328 -3.79953 0)
(-137.598 -2.31344 0)
(-131.51 -0.990188 0)
(-125.703 0.237165 -7.84397e-17)
(-121.403 1.43024 0)
(-118.854 2.35734 0)
(-117.653 2.90505 7.72809e-17)
(-117.358 3.05506 0)
(-117.543 2.91886 0)
(-117.828 2.7503 7.6017e-17)
(-118.288 2.74547 0)
(-119.171 2.65006 0)
(-120.21 2.25419 -7.46535e-17)
(-120.992 1.86368 -7.41775e-17)
(-121.535 1.62914 0)
(-121.955 1.4164 7.31953e-17)
(-122.251 1.16579 0)
(-122.464 0.969706 -7.21699e-17)
(-122.639 0.901941 0)
(-122.87 0.907567 -7.11011e-17)
(-123.177 0.757639 -7.055e-17)
(-123.244 0.374661 0)
(-122.744 0.0327253 0)
(-121.656 -0.0342548 0)
(-120.184 0.0758608 0)
(-118.581 0.184508 0)
(-116.959 0.239035 0)
(-115.859 0.261738 0)
(-115.761 0.659481 -6.58076e-17)
(-116.361 1.03161 6.51771e-17)
(-117.299 1.1134 0)
(-118.137 0.880559 0)
(-118.491 0.456686 0)
(-118.255 0.0996938 0)
(-117.644 0.00422267 1.2383e-16)
(-116.93 0.139896 0)
(-116.163 0.213314 -1.21112e-16)
(-115.342 0.192462 1.19738e-16)
(-114.522 0.137754 0)
(-113.782 0.151533 0)
(-113.179 0.198135 0)
(-112.698 0.209563 -1.14147e-16)
(-112.312 0.189071 -1.12725e-16)
(-112.014 0.20209 0)
(-111.863 0.308398 -1.09853e-16)
(-111.938 0.426734 -1.08403e-16)
(-112.102 0.416458 1.06944e-16)
(-112.204 0.283323 0)
(-112.172 0.15431 0)
(-112.059 0.110626 1.02514e-16)
(-111.943 0.103517 0)
(-111.798 0.0666139 0)
(-111.594 0.0204324 0)
(-111.348 0.00388991 0)
(-111.075 -0.00221536 -9.49704e-17)
(-110.753 -0.0320397 -9.34388e-17)
(-110.361 -0.0773619 0)
(-109.901 -0.110156 -9.03541e-17)
(-109.401 -0.121605 0)
(-108.873 -0.113403 0)
(-108.347 -0.095437 -8.56757e-17)
(-107.809 -0.0833889 0)
(-107.26 -0.092566 -8.25233e-17)
(-106.657 -0.114535 0)
(-106.036 -0.127072 0)
(-105.391 -0.12322 -7.7744e-17)
(-104.76 -0.109833 0)
(-104.122 -0.105371 -7.45233e-17)
(-103.479 -0.104945 0)
(-102.844 -0.102397 0)
(-102.21 -0.0902806 0)
(-101.643 -0.0585566 6.79977e-17)
(-101.133 -0.0292096 0)
(-100.738 0.0145183 -6.4714e-17)
(-100.442 0.0442929 0)
(-100.338 0.0970704 0)
(-100.313 0.113994 0)
(-100.65 0.197772 0)
(-100.937 0.246847 0)
(-101.993 0.352577 0)
(-102.154 0.153209 0)
(-103.675 0.282895 1.0407e-16)
(-101.164 -0.433285 0)
(-104.154 0.589139 0)
(4.22336 -30.5168 1.16393e-16)
(10.4866 -25.98 -7.77526e-17)
(14.7935 -16.2582 0)
(17.5855 -8.34674 5.13793e-17)
(19.4912 -4.87177 0)
(21.136 -4.26814 2.5607e-17)
(22.3074 -4.66088 -5.12427e-17)
(22.8248 -5.21463 -5.13067e-17)
(23.1585 -5.6635 0)
(23.7247 -5.81903 -5.14555e-17)
(24.5277 -5.63915 -2.57664e-17)
(25.4832 -5.11386 0)
(26.4427 -4.18289 0)
(27.1594 -2.7197 0)
(27.5589 -0.65972 0)
(27.2841 0.47217 -2.59424e-17)
(26.445 1.47303 0)
(25.0238 2.99114 5.20093e-17)
(22.8254 4.99358 0)
(19.713 7.4219 0)
(15.5564 10.2528 -5.22325e-17)
(10.2194 13.4799 0)
(3.56093 17.1053 5.23609e-17)
(-4.56265 21.1289 -2.62463e-17)
(-14.2974 25.5384 2.6262e-17)
(-25.7892 30.3118 -2.63077e-17)
(-39.1834 35.429 -2.63371e-17)
(-54.6234 40.8851 0)
(-72.2462 46.6814 0)
(-92.1766 52.7937 2.64169e-17)
(-114.529 59.166 -2.64796e-17)
(-139.391 65.7348 0)
(-166.761 72.4722 0)
(-196.574 79.4711 2.66792e-17)
(-228.843 86.8183 0)
(-263.661 94.4178 0)
(-301.031 101.787 -2.67653e-17)
(-341.286 109.001 0)
(-383.83 110.318 2.64816e-17)
(-427.731 110.249 -5.2928e-17)
(-470.726 109.38 0)
(-516.19 108.703 0)
(-564.135 104.864 -1.05198e-16)
(-608.723 98.1315 -1.04673e-16)
(-653.577 87.2577 -1.0389e-16)
(-693.486 80.3002 5.18499e-17)
(-730.628 74.0605 -5.12886e-17)
(-764.117 67.3166 -1.53045e-16)
(-793.699 59.7729 1.01294e-16)
(-820.377 51.5866 4.99436e-17)
(-846.036 42.7499 0)
(-866.495 33.3076 -4.87928e-17)
(-879.885 23.7577 4.84503e-17)
(-888.869 14.6545 0)
(-893.262 6.1533 0)
(-893.526 -1.61593 0)
(-890.088 -8.56267 -4.52544e-17)
(-883.36 -14.6592 0)
(-873.776 -19.8982 8.80547e-17)
(-861.795 -24.2488 0)
(-847.906 -27.8914 8.45581e-17)
(-832.041 -30.8534 0)
(-814.713 -33.1494 -8.14354e-17)
(-796.46 -34.88 0)
(-777.403 -36.1624 7.89034e-17)
(-757.677 -37.1085 -3.893e-17)
(-737.401 -37.808 0)
(-716.669 -38.3305 -7.56522e-17)
(-695.548 -38.7304 -3.73043e-17)
(-674.087 -39.0465 -3.68611e-17)
(-652.32 -39.3015 0)
(-630.268 -39.5014 -3.61798e-17)
(-607.938 -39.6352 -3.5719e-17)
(-585.309 -39.6674 0)
(-562.336 -39.5212 3.51203e-17)
(-539.301 -39.0506 -6.98229e-17)
(-516.446 -38.5146 0)
(-493.711 -37.9311 -3.43593e-17)
(-470.982 -37.1916 0)
(-448.458 -36.1751 1.01742e-16)
(-426.363 -34.7677 0)
(-405.149 -33.119 -1.00402e-16)
(-385.945 -32.1654 -3.32896e-17)
(-366.861 -31.4714 3.31824e-17)
(-347.099 -30.205 6.5941e-17)
(-327.65 -28.7899 -6.55263e-17)
(-308.82 -27.2882 0)
(-290.783 -25.6777 0)
(-273.675 -23.9621 0)
(-257.659 -22.2297 1.91672e-16)
(-242.87 -20.5841 6.34475e-17)
(-229.331 -19.0393 -6.31349e-17)
(-216.868 -17.455 0)
(-205.149 -15.5513 -6.25e-17)
(-193.925 -13.128 6.19586e-17)
(-183.248 -10.5552 6.13639e-17)
(-173.354 -9.24139 0)
(-164.03 -10.4836 0)
(-155.615 -11.8147 0)
(-148.543 -10.4371 5.99873e-17)
(-141.857 -8.15699 0)
(-135.762 -6.1528 -1.18077e-16)
(-130.134 -4.60447 -1.75491e-16)
(-124.987 -3.40867 1.15989e-16)
(-120.313 -2.7044 0)
(-116.001 -2.31488 5.70221e-17)
(-112.28 -1.64092 0)
(-109.242 -0.873803 1.11927e-16)
(-106.455 -0.563433 -5.54883e-17)
(-103.555 -0.619925 -5.49699e-17)
(-100.676 -0.69884 0)
(-98.0184 -0.717804 -1.61664e-16)
(-95.6924 -0.659976 1.06742e-16)
(-93.7017 -0.576104 5.28162e-17)
(-91.9219 -0.510868 0)
(-90.3225 -0.385963 5.17465e-17)
(-88.8939 -0.359076 1.53639e-16)
(-87.4869 -0.643549 0)
(-85.8485 -1.18316 1.0022e-16)
(-83.6516 -1.83974 9.91071e-17)
(-80.7562 -2.32 9.79841e-17)
(-77.5712 -2.33677 0)
(-75.0053 -1.88974 0)
(-73.3038 -1.1891 0)
(-72.1221 -0.328688 -4.67067e-17)
(-71.3096 0.220986 -4.6105e-17)
(-70.4057 0.296999 0)
(-69.1066 0.0253194 -8.98668e-17)
(-67.4577 -0.372425 -8.86791e-17)
(-65.6095 -0.721604 0)
(-63.4949 -0.991 -8.63116e-17)
(-61.1543 -1.23346 -1.70269e-16)
(-58.7248 -1.33822 8.39098e-17)
(-56.2999 -1.26837 8.27237e-17)
(-54.0874 -1.16287 0)
(-52.0759 -1.02908 0)
(-50.2212 -0.880803 0)
(-48.5284 -0.736554 7.78554e-17)
(-47.0221 -0.594588 -7.6654e-17)
(-45.7131 -0.454448 -1.50858e-16)
(-44.5105 -0.351897 7.4204e-17)
(-43.2629 -0.297714 -7.29924e-17)
(-42.021 -0.274451 -7.17537e-17)
(-40.8932 -0.266282 0)
(-39.9599 -0.25639 0)
(-39.1706 -0.253958 6.80826e-17)
(-38.4212 -0.265054 0)
(-37.6974 -0.284133 0)
(-37.0111 -0.306676 -1.28785e-16)
(-36.3463 -0.331293 0)
(-35.6707 -0.362614 -6.19307e-17)
(-34.9796 -0.400688 6.06903e-17)
(-34.2887 -0.437308 0)
(-33.5958 -0.465504 -5.82318e-17)
(-32.8922 -0.486238 0)
(-32.1588 -0.502296 0)
(-31.3983 -0.516253 5.45238e-17)
(-30.6049 -0.532561 -1.0658e-16)
(-29.7893 -0.552088 5.20481e-17)
(-28.9628 -0.566932 0)
(-28.1486 -0.572325 0)
(-27.3296 -0.573533 -4.83322e-17)
(-26.4999 -0.575852 0)
(-25.6479 -0.578594 -4.58453e-17)
(-24.7995 -0.574624 0)
(-23.9543 -0.563812 0)
(-23.1181 -0.539399 0)
(-22.2964 -0.501478 -4.08449e-17)
(-21.4782 -0.443955 0)
(-20.7393 -0.373273 3.8351e-17)
(-20.0236 -0.265982 0)
(-19.54 -0.168776 0)
(-19.0504 0.00834122 -6.93836e-17)
(-19.0786 0.111611 6.70348e-17)
(-18.8777 0.374135 0)
(-19.6121 0.346296 0)
(-19.4556 0.565725 0)
(-21.702 0.150307 -1.7347e-16)
(-19.9087 -0.261382 0)
(-27.0234 -1.15605 1.05533e-16)
(3.60875 -42.2947 -2.06733e-21)
(5.81278 -32.9532 1.03332e-16)
(9.2939 -20.7017 0)
(13.5192 -13.5361 -1.00665e-16)
(16.8732 -9.98042 0)
(19.5098 -7.72814 0)
(21.2764 -5.65986 3.09518e-21)
(22.4171 -3.11365 4.90919e-17)
(23.0743 -3.15014 4.90976e-17)
(23.6387 -3.94522 4.91759e-17)
(24.3085 -4.47298 0)
(25.0911 -4.50237 0)
(25.9802 -3.95699 -4.99103e-17)
(26.3586 -2.73376 -9.98804e-17)
(27.4819 -1.30122 9.96176e-17)
(29.4757 0.293775 0)
(30.1446 2.7471 9.92979e-17)
(29.6177 5.96778 -4.98224e-17)
(28.324 9.68656 0)
(26.0343 13.9255 1.00139e-16)
(22.678 18.7126 5.02313e-17)
(18.1412 24.0722 -1.007e-16)
(12.2857 30.0186 -5.04561e-17)
(4.9616 36.5549 0)
(-3.9912 43.6744 1.01294e-16)
(-14.7449 51.3635 1.01562e-16)
(-27.4832 59.6052 0)
(-42.3945 68.3781 1.01765e-16)
(-59.6565 77.6506 0)
(-79.4312 87.3708 1.02468e-16)
(-101.867 97.4599 5.15099e-17)
(-127.088 107.806 0)
(-155.168 118.257 0)
(-186.03 128.589 0)
(-219.789 138.472 0)
(-255.212 147.678 0)
(-294.44 155.24 0)
(-330.809 162.651 1.04059e-16)
(-366.91 170.095 -1.5401e-16)
(-409.722 174.947 0)
(-453.693 177.191 0)
(-500.025 175.007 0)
(-547.899 169.854 -4.66777e-19)
(-593.363 159.039 1.01748e-16)
(-641.074 151.861 2.0054e-16)
(-693.72 146.072 -2.00071e-16)
(-740.428 132.12 -1.00748e-16)
(-781.393 117.163 1.00484e-16)
(-816.905 102.966 4.61875e-19)
(-846.514 88.9389 1.00146e-16)
(-870.353 73.6533 0)
(-888.719 55.9499 9.82144e-17)
(-901.909 38.9692 3.79522e-19)
(-910.157 23.0987 0)
(-913.667 8.49442 0)
(-912.847 -4.68881 -9.27688e-17)
(-908.16 -16.3465 0)
(-900.116 -26.4237 0)
(-889.144 -34.9123 8.85518e-17)
(-875.86 -41.8832 1.74095e-16)
(-860.832 -47.4744 -8.49589e-17)
(-844.019 -51.8793 0)
(-825.935 -55.3016 8.17932e-17)
(-807.002 -57.9192 0)
(-787.37 -59.8732 7.94999e-17)
(-767.191 -61.3088 7.82095e-17)
(-746.575 -62.3576 -1.54496e-16)
(-725.592 -63.1286 -7.63644e-17)
(-704.285 -63.7034 0)
(-682.679 -64.1373 1.49107e-16)
(-660.789 -64.4639 0)
(-638.623 -64.6948 2.19117e-16)
(-616.185 -64.817 1.4482e-16)
(-593.473 -64.8072 1.43607e-16)
(-570.488 -64.6703 -1.42487e-16)
(-547.313 -64.5058 2.12108e-16)
(-524.113 -64.2542 0)
(-500.98 -63.7139 0)
(-477.968 -62.7981 -1.38799e-16)
(-455.165 -61.4576 -2.06982e-16)
(-432.598 -59.5884 0)
(-410.256 -57.1597 6.8242e-17)
(-388.276 -54.6 0)
(-366.64 -52.9399 -2.0305e-16)
(-345.677 -51.2582 1.17717e-19)
(-325.407 -49.2247 -1.1721e-19)
(-305.906 -46.8505 1.33745e-16)
(-287.278 -44.2016 0)
(-269.618 -41.3387 -1.3262e-16)
(-253.02 -38.369 1.20529e-19)
(-237.556 -35.4493 0)
(-223.219 -32.718 0)
(-209.874 -30.2262 0)
(-197.248 -27.8857 1.29602e-16)
(-185.011 -25.4845 0)
(-172.988 -22.8017 0)
(-161.258 -19.7151 0)
(-151.411 -16.6353 0)
(-145.632 -14.6085 0)
(-141.224 -12.9614 1.25339e-16)
(-135.957 -10.8941 0)
(-130.476 -9.06518 1.22932e-16)
(-124.978 -7.59772 1.21776e-16)
(-119.621 -6.444 -1.20628e-16)
(-114.582 -5.64262 0)
(-110.01 -4.96724 -1.18566e-16)
(-105.78 -3.88949 0)
(-101.534 -3.19882 -1.1617e-16)
(-97.3586 -3.75302 1.15568e-16)
(-94.0511 -3.7949 3.43378e-16)
(-91.1399 -3.51727 0)
(-88.613 -3.17575 3.36439e-16)
(-86.3783 -2.81781 1.11091e-16)
(-84.3248 -2.50476 0)
(-82.403 -2.23143 2.17365e-16)
(-80.6896 -1.87865 2.15024e-16)
(-79.0877 -1.78528 -3.18951e-16)
(-77.2887 -2.26137 0)
(-75.0602 -3.18801 -1.03896e-16)
(-72.3748 -4.24662 -1.02718e-16)
(-69.4054 -4.8674 -3.04709e-16)
(-66.5646 -4.54994 0)
(-64.187 -3.51891 0)
(-62.3078 -2.12786 0)
(-60.8717 -0.935198 -9.6754e-17)
(-59.5873 -0.475607 0)
(-58.0081 -0.732845 0)
(-55.9777 -1.39719 9.29893e-17)
(-53.5732 -2.13495 9.17536e-17)
(-50.9352 -2.73577 0)
(-48.2378 -3.12578 0)
(-45.5771 -3.34503 1.76112e-16)
(-42.8823 -3.31422 0)
(-40.3183 -3.09688 -1.71114e-16)
(-37.9811 -2.86835 -1.68642e-16)
(-35.7938 -2.60389 0)
(-33.7417 -2.33118 0)
(-31.8192 -2.07152 1.61134e-16)
(-30.0199 -1.82567 -2.78469e-20)
(-28.3275 -1.60224 -2.56917e-20)
(-26.7239 -1.4195 0)
(-25.2015 -1.28272 3.02235e-16)
(-23.7745 -1.18276 0)
(-22.4517 -1.10417 0)
(-21.2285 -1.03506 0)
(-20.0826 -0.977806 -1.41095e-16)
(-18.992 -0.94004 0)
(-17.9513 -0.92205 2.72247e-16)
(-16.9597 -0.917366 1.33606e-16)
(-16.0041 -0.922313 0)
(-15.067 -0.939169 1.28592e-16)
(-14.1417 -0.967635 0)
(-13.2271 -1.00084 0)
(-12.3161 -1.03222 3.63327e-16)
(-11.3958 -1.05847 -2.37245e-16)
(-10.4681 -1.07967 0)
(-9.52419 -1.09731 -2.27274e-16)
(-8.5701 -1.11392 1.11128e-16)
(-7.60934 -1.12964 0)
(-6.66044 -1.14106 0)
(-5.70831 -1.14449 0)
(-4.76119 -1.14263 3.03315e-16)
(-3.81054 -1.13914 0)
(-2.87312 -1.13542 9.60976e-17)
(-1.93412 -1.12687 0)
(-1.00261 -1.11108 0)
(-0.067875 -1.08046 0)
(0.846799 -1.03458 0)
(1.76565 -0.959169 0)
(2.61532 -0.858215 0)
(3.45296 -0.706717 1.57725e-16)
(4.12846 -0.540857 0)
(4.78707 -0.287478 7.42581e-17)
(5.12569 -0.0728125 -2.15855e-16)
(5.52067 0.272105 0)
(5.38373 0.393196 0)
(5.60393 0.616198 1.29584e-16)
(5.16554 0.195046 1.24269e-16)
(5.97753 0.178563 -1.19098e-16)
(4.01249 -0.930965 -1.12274e-16)
(2.43294 -48.913 -2.32637e-16)
(1.04507 -37.7202 -1.54643e-16)
(3.36841 -28.2393 -1.01458e-16)
(7.69584 -21.4647 -4.96446e-17)
(11.2912 -16.9332 0)
(14.4093 -13.0359 9.64887e-17)
(15.8096 -8.92328 -4.80853e-17)
(18.6443 -7.24148 0)
(22.9622 -7.07716 -4.74405e-17)
(25.7469 -7.11033 0)
(28.2912 -7.14727 9.59955e-17)
(30.6553 -7.0327 0)
(32.8015 -6.61506 4.84851e-17)
(34.6951 -5.85877 9.73916e-17)
(36.144 -4.73356 -9.77894e-17)
(37.0874 -2.1448 0)
(37.4974 1.85467 -9.84698e-17)
(37.4149 6.51665 0)
(36.7207 11.7821 0)
(35.2374 17.7322 -9.94029e-17)
(32.8162 24.4418 0)
(29.3027 31.965 -1.2332e-20)
(24.5368 40.3367 0)
(18.3507 49.5766 0)
(10.5667 59.695 2.34082e-20)
(0.997072 70.693 -1.01113e-16)
(-10.5547 82.5568 -1.01455e-16)
(-24.2886 95.2466 -1.01557e-16)
(-40.3995 108.689 0)
(-59.0696 122.775 -2.04332e-16)
(-80.4588 137.343 0)
(-104.688 152.164 -1.02616e-16)
(-131.819 166.914 0)
(-161.846 181.152 0)
(-194.758 194.327 1.04135e-16)
(-230.517 205.847 0)
(-269.403 215.717 -1.05892e-16)
(-310.427 222.494 4.66228e-19)
(-354.955 231.573 2.11878e-16)
(-401.101 238.176 -2.12677e-16)
(-448.663 241.34 0)
(-497.453 241.36 0)
(-548.728 240.842 -1.05555e-16)
(-603.249 238.492 0)
(-655.998 234.867 -1.02303e-16)
(-710.845 222.773 1.02024e-16)
(-761.174 203.367 1.01842e-16)
(-807.298 180.752 0)
(-847.625 156.346 -1.01062e-16)
(-880.91 130.954 -1.00324e-16)
(-907.142 105.047 2.00011e-16)
(-926.857 79.3646 -9.82781e-17)
(-940.413 54.5713 -9.69573e-17)
(-948.112 31.2686 0)
(-950.427 9.90658 0)
(-947.938 -9.25907 9.27526e-17)
(-941.267 -26.0305 0)
(-931.073 -40.3727 0)
(-917.931 -52.3692 -1.76782e-16)
(-902.461 -62.2331 -1.74093e-16)
(-885.345 -70.0426 0)
(-866.674 -76.0773 0)
(-846.916 -80.5917 0)
(-826.487 -83.9375 0)
(-805.534 -86.379 -1.58868e-16)
(-784.188 -88.1435 1.56799e-16)
(-762.526 -89.4227 1.54556e-16)
(-740.586 -90.3696 3.05406e-16)
(-718.382 -91.0952 0)
(-695.909 -91.6722 1.72007e-19)
(-673.156 -92.1397 0)
(-650.116 -92.5071 -1.46179e-16)
(-626.783 -92.7569 1.7554e-19)
(-603.16 -92.8568 -1.43622e-16)
(-579.27 -92.7813 1.42486e-16)
(-555.183 -92.5104 1.67005e-19)
(-531.005 -91.9852 0)
(-506.826 -91.1109 1.39731e-16)
(-482.71 -89.8304 1.38739e-16)
(-458.712 -88.1162 2.76035e-16)
(-434.846 -85.9668 0)
(-411.091 -83.4917 -1.36607e-16)
(-387.594 -80.9393 0)
(-364.768 -78.2783 2.70461e-16)
(-342.89 -75.2685 -1.34557e-16)
(-321.956 -71.8654 1.33939e-16)
(-301.958 -68.1286 -1.33342e-16)
(-282.916 -64.1095 -2.65588e-16)
(-264.853 -59.8583 1.32058e-16)
(-247.798 -55.4901 -1.31407e-16)
(-231.792 -51.2014 0)
(-216.868 -47.2027 2.60295e-16)
(-203.015 -43.6102 0)
(-190.169 -40.3574 2.57182e-16)
(-178.262 -37.1911 -2.55601e-16)
(-167.318 -33.7395 -2.53471e-16)
(-157.433 -29.5834 2.5236e-16)
(-148.996 -24.7002 2.50661e-16)
(-142.028 -20.2249 0)
(-135.612 -17.6799 1.2426e-16)
(-129.648 -15.8035 0)
(-123.924 -14.0959 0)
(-118.455 -12.5038 2.44652e-16)
(-113.349 -11.0547 0)
(-108.725 -9.84391 0)
(-104.601 -8.89289 2.40676e-16)
(-100.493 -7.94346 0)
(-95.9745 -6.84662 0)