/*--------------------------------*- C++ -*----------------------------------*\
| =========                 |                                                 |
| \\      /  F ield         | OpenFOAM: The Open Source CFD Toolbox           |
|  \\    /   O peration     | Version:  2112                                  |
|   \\  /    A nd           | Website:  www.openfoam.com                      |
|    \\/     M anipulation  |                                                 |
\*---------------------------------------------------------------------------*/
FoamFile
{
    version     2.0;
    format      ascii;
    arch        "LSB;label=32;scalar=64";
    class       volScalarField;
    location    "0.28";
    object      k;
}
// * * * * * * * * * * * * * * * * * * * * * * * * * * * * * * * * * * * * * //

dimensions      [0 2 -2 0 0 0 0];

internalField   nonuniform List<scalar> 
12225
(
1.49036
2.68102
3.97311
5.4525
7.1614
9.07888
11.1256
13.1907
15.1658
16.9739
18.5781
19.9746
21.1778
22.2112
23.0985
23.8795
24.47
24.6475
0.430372
0.53355
0.683247
0.891189
1.16863
1.52682
1.97838
2.53151
3.18732
3.93334
4.74886
5.61196
6.50039
7.38838
8.24796
9.06475
9.85411
10.4848
0.380723
0.388642
0.398549
0.414028
0.439722
0.480565
0.542462
0.632187
0.757424
0.924968
1.13999
1.40694
1.73029
2.11331
2.55426
3.04962
3.59354
4.15528
0.37641
0.377183
0.377427
0.377579
0.378221
0.379888
0.383327
0.389878
0.401436
0.420302
0.449052
0.490844
0.54932
0.628831
0.734168
0.871311
1.04514
1.25909
0.375623
0.375693
0.375372
0.37476
0.373966
0.37302
0.372024
0.37118
0.370782
0.371206
0.372942
0.37637
0.38211
0.391082
0.404515
0.42412
0.452073
0.490715
0.375356
0.375387
0.375147
0.374696
0.374084
0.373323
0.372439
0.371479
0.370515
0.369628
0.368881
0.368343
0.368113
0.368333
0.369198
0.371049
0.374223
0.378918
0.375229
0.375289
0.375155
0.374871
0.374471
0.373969
0.373374
0.37271
0.372004
0.371288
0.370584
0.36991
0.369289
0.368752
0.368344
0.368124
0.368158
0.368482
0.375154
0.37523
0.37518
0.375017
0.374771
0.374449
0.374063
0.373624
0.373149
0.372657
0.37216
0.371666
0.371185
0.370731
0.370322
0.369983
0.369737
0.3696
0.375104
0.375179
0.375183
0.37511
0.374971
0.374776
0.374534
0.374251
0.373942
0.373619
0.373289
0.372959
0.372634
0.372324
0.37204
0.371796
0.371605
0.371474
0.375065
0.375129
0.375164
0.375153
0.375094
0.374991
0.37485
0.374678
0.374488
0.374286
0.374079
0.373871
0.373667
0.373473
0.373295
0.373143
0.373023
0.37294
0.375032
0.375079
0.375125
0.375155
0.375156
0.375124
0.375059
0.374971
0.374867
0.374754
0.374636
0.374518
0.374403
0.374296
0.374201
0.374125
0.374069
0.374037
0.375006
0.375035
0.375079
0.375126
0.375164
0.375183
0.375177
0.375151
0.37511
0.37506
0.375006
0.374951
0.3749
0.374856
0.374824
0.374807
0.374806
0.37482
0.37498
0.374991
0.375028
0.375081
0.375139
0.375192
0.375233
0.375259
0.375273
0.375279
0.37528
0.375281
0.375284
0.375292
0.375309
0.375336
0.375375
0.375422
0.374953
0.37494
0.374966
0.375016
0.375084
0.375157
0.37523
0.375298
0.37536
0.375416
0.37547
0.375521
0.375574
0.375629
0.375689
0.375755
0.375825
0.375898
0.374926
0.374884
0.374894
0.374938
0.375003
0.375085
0.375174
0.375267
0.375361
0.375454
0.375546
0.375638
0.37573
0.375823
0.375918
0.376013
0.376109
0.376201
0.374902
0.374829
0.374818
0.374852
0.37491
0.374989
0.375081
0.375183
0.37529
0.375401
0.375515
0.37563
0.375745
0.37586
0.375975
0.376088
0.376199
0.376302
0.374882
0.374782
0.374748
0.374768
0.374819
0.37489
0.374977
0.375075
0.375182
0.375295
0.375412
0.375532
0.375653
0.375773
0.375892
0.376008
0.37612
0.376224
0.37487
0.374751
0.374699
0.374706
0.37475
0.374813
0.374891
0.37498
0.375079
0.375184
0.375292
0.375403
0.375515
0.375626
0.375734
0.375839
0.375938
0.37603
0.374869
0.374747
0.374689
0.37469
0.374729
0.374785
0.374854
0.374933
0.375019
0.375109
0.3752
0.375291
0.37538
0.375467
0.375549
0.375626
0.375697
0.37576
0.374882
0.374776
0.374731
0.374736
0.374772
0.374821
0.37488
0.374943
0.375008
0.37507
0.375128
0.375181
0.375228
0.375269
0.375302
0.375329
0.375349
0.375363
0.374903
0.374821
0.374791
0.374799
0.374826
0.374861
0.374898
0.374931
0.374955
0.37497
0.374975
0.374969
0.374954
0.374933
0.374905
0.374873
0.374835
0.374794
0.374931
0.374876
0.374856
0.374854
0.374857
0.374857
0.374845
0.374819
0.374776
0.374719
0.374649
0.374567
0.374477
0.374379
0.374276
0.374168
0.374057
0.373946
0.374965
0.374932
0.374905
0.374872
0.374825
0.374759
0.374669
0.374553
0.374414
0.374255
0.374082
0.373898
0.373706
0.373507
0.373302
0.373095
0.372886
0.37268
0.375006
0.374982
0.374922
0.374824
0.37469
0.374518
0.374311
0.374067
0.37379
0.373487
0.373164
0.372827
0.37248
0.372127
0.37177
0.371413
0.371059
0.370715
0.375056
0.37503
0.37491
0.374706
0.37443
0.374088
0.373688
0.373235
0.372737
0.372204
0.371646
0.371068
0.37048
0.369889
0.369302
0.368726
0.368171
0.367648
0.375154
0.375136
0.374934
0.374561
0.374043
0.373405
0.37267
0.37186
0.370999
0.370109
0.369201
0.36829
0.367401
0.366563
0.365812
0.365183
0.364712
0.364436
0.375441
0.375639
0.375454
0.374889
0.374045
0.373036
0.37197
0.370952
0.370099
0.369541
0.369423
0.369837
0.370944
0.372984
0.376225
0.380942
0.387399
0.395791
0.376977
0.379417
0.381331
0.382904
0.384925
0.388312
0.393996
0.402922
0.416061
0.434472
0.45934
0.491956
0.533745
0.586021
0.649868
0.726059
0.815089
0.916781
0.397374
0.430906
0.477116
0.54092
0.626005
0.734827
0.86951
1.03226
1.22552
1.45215
1.71517
2.01586
2.35535
2.73243
3.14339
3.58271
4.04395
4.51676
1.04546
1.73072
2.4185
3.14932
3.96013
4.87405
5.90011
7.03468
8.26311
9.56169
10.9006
12.2478
13.5723
14.8472
16.0522
17.1741
18.2052
19.1378
0.336509
0.338072
0.341542
0.346907
0.354231
0.363574
0.374959
0.388376
0.403779
0.421091
0.440443
0.462196
0.486354
0.512596
0.540729
0.57067
0.602368
0.635775
0.670853
0.707572
0.745912
0.785863
0.827421
0.870585
0.915359
0.961751
1.00977
1.05941
1.11069
1.1636
1.21814
1.27431
1.33209
1.39147
1.45243
1.51495
1.57897
1.64448
1.71142
1.77973
1.84937
1.92025
1.99231
2.06547
2.13963
2.21472
2.29062
2.36723
2.44445
2.52215
2.60023
2.67856
2.75702
2.83548
2.91382
2.99192
3.06964
3.14687
3.22349
3.29938
3.37444
3.44854
3.5216
3.59352
3.6642
3.73357
3.80155
3.86807
3.93307
3.99648
4.05826
4.11837
4.17674
4.23336
4.28818
4.34117
4.3923
4.44154
4.48888
4.53429
4.57774
4.61922
4.65871
4.69618
4.73163
4.76502
4.79634
4.82555
4.85264
4.87757
4.9003
4.92077
4.93892
4.95464
4.96833
4.98008
4.98987
4.9977
5.00356
5.00747
5.00943
5.00944
5.00754
5.00372
4.998
4.99041
4.98096
4.96966
4.95653
4.94159
4.92484
4.90632
4.88602
4.86396
4.84015
4.81461
4.78734
4.75836
4.72768
4.69531
4.66126
4.62554
4.58817
4.54918
4.50856
4.46636
4.42259
4.37729
4.33049
4.28224
4.23257
4.18154
4.12921
4.07563
4.02085
3.96494
3.90795
3.84993
3.79092
3.73098
3.67012
3.6084
3.54587
3.48264
3.4189
3.35498
3.29142
3.2294
3.17187
3.11824
3.07272
3.04089
3.02617
3.02931
3.04802
3.07761
3.10916
3.14474
3.18162
3.21854
3.25481
3.29001
3.32387
3.35625
3.38708
3.41634
3.44401
3.47011
3.49466
3.51772
3.53933
3.55957
3.57853
3.59626
3.61287
3.62844
3.64327
3.65792
3.67612
3.68946
0.338294
0.339025
0.341597
0.345906
0.351983
0.35985
0.369501
0.380908
0.394029
0.408821
0.425269
0.443402
0.46321
0.484594
0.507431
0.531616
0.557065
0.583707
0.611482
0.640342
0.670245
0.701159
0.733057
0.765916
0.799717
0.834443
0.870074
0.906595
0.943986
0.982228
1.0213
1.06117
1.10182
1.14321
1.18531
1.22809
1.2715
1.3155
1.36005
1.40509
1.45057
1.49645
1.54266
1.58915
1.63585
1.68271
1.72967
1.77666
1.82363
1.87051
1.91724
1.96378
2.01005
2.05602
2.10162
2.14681
2.19155
2.23579
2.2795
2.32264
2.36518
2.40711
2.44839
2.489
2.52894
2.56818
2.60673
2.64456
2.68168
2.71808
2.75376
2.78872
2.82295
2.85646
2.88926
2.92134
2.9527
2.98335
3.01329
3.04253
3.07107
3.09892
3.12607
3.15254
3.17832
3.20343
3.22785
3.2516
3.27467
3.29706
3.31878
3.33983
3.36022
3.38027
3.39982
3.41882
3.43728
3.45519
3.47256
3.48939
3.50568
3.52145
3.5367
3.55143
3.56564
3.57934
3.59252
3.60519
3.61734
3.62895
3.64004
3.65057
3.66054
3.66992
3.67869
3.68683
3.6943
3.70106
3.70707
3.71228
3.71663
3.72006
3.72251
3.7239
3.72416
3.72318
3.72089
3.71719
3.71198
3.70514
3.69658
3.68619
3.67386
3.65948
3.64296
3.62419
3.60308
3.57956
3.55355
3.525
3.49389
3.4602
3.42395
3.38525
3.34424
3.30123
3.2567
3.21159
3.16753
3.12548
3.08915
3.0626
3.04856
3.04769
3.0582
3.07641
3.09671
3.1182
3.13935
3.15917
3.17708
3.19269
3.20576
3.21615
3.22377
3.2286
3.23063
3.2299
3.2265
3.22053
3.21212
3.20143
3.18866
3.17402
3.15778
3.1403
3.12222
3.10495
3.09173
3.0911
0.342389
0.341571
0.342899
0.346013
0.350869
0.357446
0.365702
0.37558
0.387024
0.399978
0.414397
0.430242
0.447462
0.465979
0.485701
0.506536
0.528397
0.55121
0.57491
0.599441
0.624757
0.650819
0.677595
0.705054
0.733171
0.761924
0.791289
0.821244
0.851768
0.882836
0.914425
0.946509
0.979061
1.01205
1.04546
1.07924
1.11336
1.1478
1.18251
1.21746
1.25262
1.28794
1.3234
1.35894
1.39454
1.43017
1.46578
1.50134
1.53683
1.5722
1.60744
1.64252
1.67741
1.7121
1.74656
1.78078
1.81475
1.84846
1.88188
1.91503
1.9479
1.98047
2.01276
2.04476
2.07647
2.10789
2.13902
2.16987
2.20043
2.23072
2.26072
2.29044
2.31989
2.34905
2.37794
2.40656
2.4349
2.46297
2.49076
2.51829
2.54554
2.57253
2.59925
2.6257
2.65189
2.67782
2.70349
2.72891
2.75408
2.77902
2.80372
2.82823
2.85263
2.87691
2.90098
2.92483
2.94843
2.97179
2.9949
3.01776
3.04037
3.06272
3.08482
3.10665
3.12822
3.14952
3.17054
3.19128
3.21173
3.23187
3.2517
3.27121
3.29036
3.30914
3.32753
3.3455
3.36301
3.38003
3.39651
3.4124
3.42764
3.44217
3.45592
3.46881
3.48076
3.49166
3.50142
3.50992
3.51704
3.52266
3.52664
3.52885
3.52913
3.52735
3.52336
3.51701
3.50818
3.49674
3.48258
3.4656
3.44576
3.42301
3.39738
3.36895
3.3379
3.30455
3.26943
3.23338
3.1976
3.16326
3.13298
3.10978
3.0958
3.09143
3.09537
3.10498
3.1169
3.12974
3.14215
3.15313
3.16205
3.1685
3.17221
3.17302
3.17085
3.16564
3.15743
3.14627
3.13226
3.11553
3.09626
3.07465
3.05094
3.02539
2.99834
2.97024
2.94183
2.91463
2.89135
2.87849
0.347305
0.34453
0.344555
0.346458
0.350138
0.355542
0.362588
0.371193
0.381278
0.392771
0.405609
0.419728
0.435062
0.451535
0.469063
0.487561
0.506948
0.527149
0.548099
0.569742
0.592029
0.614922
0.638384
0.662386
0.686903
0.711911
0.737388
0.763313
0.789667
0.816429
0.843578
0.871095
0.898957
0.927144
0.955633
0.984402
1.01343
1.04269
1.07216
1.10183
1.13166
1.16164
1.19174
1.22195
1.25225
1.28263
1.31305
1.34353
1.37403
1.40455
1.43508
1.46562
1.49615
1.52667
1.55719
1.58769
1.61819
1.64867
1.67914
1.7096
1.74005
1.7705
1.80094
1.83137
1.8618
1.89222
1.92262
1.95301
1.98338
2.01371
2.04401
2.07426
2.10446
2.1346
2.16466
2.19465
2.22455
2.25435
2.28404
2.31363
2.34309
2.37243
2.40164
2.43071
2.45964
2.48843
2.51707
2.54557
2.57393
2.60216
2.63027
2.65828
2.6862
2.71396
2.74152
2.76888
2.796
2.82288
2.84951
2.87589
2.902
2.92784
2.95339
2.97866
3.00362
3.02828
3.05262
3.07663
3.1003
3.12363
3.1466
3.1692
3.19141
3.21323
3.23462
3.25556
3.27603
3.296
3.31544
3.3343
3.35253
3.3701
3.38694
3.40299
3.41817
3.43241
3.44563
3.45772
3.46857
3.47809
3.48614
3.4926
3.49732
3.50018
3.50102
3.4997
3.49608
3.49002
3.48141
3.47013
3.45612
3.43933
3.41977
3.39752
3.37275
3.34576
3.31706
3.28732
3.25738
3.22827
3.20188
3.18065
3.16609
3.15849
3.15687
3.15947
3.1643
3.17007
3.17553
3.17968
3.1819
3.18176
3.17901
3.17349
3.16511
3.15385
3.13973
3.12283
3.10326
3.08117
3.05674
3.03021
3.00181
2.97183
2.94064
2.90872
2.87686
2.84648
2.81969
2.80055
0.35341
0.347966
0.346546
0.34722
0.349785
0.35413
0.360131
0.367668
0.376639
0.386956
0.398538
0.411313
0.425205
0.440137
0.456029
0.472804
0.490383
0.508697
0.527683
0.547286
0.567459
0.588163
0.609365
0.631036
0.653153
0.675695
0.698643
0.721981
0.745692
0.769763
0.794178
0.818924
0.843988
0.869355
0.895014
0.920951
0.947155
0.973615
1.00032
1.02726
1.05442
1.08181
1.1094
1.1372
1.16521
1.1934
1.2218
1.25039
1.27917
1.30814
1.33732
1.36669
1.39626
1.42603
1.45602
1.48621
1.51662
1.54724
1.57808
1.60914
1.64041
1.6719
1.70359
1.73548
1.76757
1.79983
1.83226
1.86484
1.89756
1.93038
1.9633
1.9963
2.02934
2.06242
2.09551
2.1286
2.16166
2.19468
2.22765
2.26054
2.29334
2.32604
2.35863
2.39109
2.42342
2.4556
2.48763
2.51951
2.55124
2.58281
2.61424
2.64551
2.67656
2.70737
2.73791
2.76816
2.7981
2.82772
2.857
2.88593
2.91449
2.94268
2.97048
2.99787
3.02484
3.05139
3.07749
3.10315
3.12834
3.15305
3.17729
3.20102
3.22425
3.24696
3.26913
3.29075
3.31179
3.33223
3.35205
3.37121
3.38969
3.40744
3.42442
3.44059
3.4559
3.47027
3.48365
3.49597
3.50713
3.51705
3.52563
3.53276
3.53834
3.54223
3.54432
3.54448
3.54259
3.53851
3.53213
3.52337
3.51214
3.4984
3.48218
3.46353
3.44263
3.41975
3.39529
3.36978
3.34372
3.31796
3.29397
3.27354
3.25784
3.24709
3.24062
3.2373
3.23596
3.23564
3.2352
3.23371
3.23054
3.22528
3.21768
3.20757
3.19488
3.17959
3.16173
3.14136
3.11862
3.09364
3.06662
3.03777
3.00733
2.9756
2.94294
2.90986
2.87711
2.84599
2.81802
2.79562
0.360239
0.351552
0.348551
0.347983
0.349493
0.352882
0.357966
0.364589
0.372621
0.381957
0.392506
0.404187
0.416922
0.430632
0.445243
0.46068
0.476871
0.493752
0.511262
0.529352
0.547976
0.567098
0.586688
0.606719
0.627173
0.64803
0.669279
0.690906
0.712901
0.735256
0.757962
0.781014
0.804406
0.828133
0.85219
0.876575
0.901286
0.926322
0.951681
0.977365
1.00338
1.02971
1.05638
1.08339
1.11074
1.13843
1.16648
1.19489
1.22367
1.25282
1.28235
1.31227
1.34258
1.37329
1.40441
1.43593
1.46786
1.5002
1.53294
1.56608
1.59962
1.63354
1.66783
1.70248
1.73746
1.77275
1.80833
1.84417
1.88024
1.91651
1.95294
1.98951
2.02619
2.06293
2.09971
2.13651
2.1733
2.21005
2.24674
2.28335
2.31986
2.35625
2.39249
2.42858
2.46449
2.50022
2.53575
2.57108
2.6062
2.64111
2.67579
2.71017
2.74423
2.77794
2.81129
2.84425
2.8768
2.90892
2.94059
2.97179
3.0025
3.03271
3.0624
3.09155
3.12015
3.14817
3.17561
3.20245
3.22868
3.25428
3.27925
3.30358
3.32724
3.35025
3.37256
3.39419
3.4151
3.43527
3.4547
3.47336
3.49122
3.50825
3.52443
3.53972
3.55409
3.56748
3.57985
3.59115
3.60131
3.61027
3.61796
3.62428
3.62916
3.6325
3.6342
3.63416
3.63226
3.62842
3.62253
3.61452
3.60433
3.59192
3.57733
3.5606
3.54192
3.52152
3.49963
3.47671
3.45306
3.42925
3.40639
3.38586
3.36855
3.3547
3.34386
3.33536
3.32856
3.32278
3.31708
3.31062
3.30279
3.29319
3.28154
3.26772
3.25163
3.23326
3.21263
3.18981
3.16491
3.13807
3.10947
3.07931
3.04782
3.0153
2.98209
2.94869
2.91583
2.88461
2.8561
2.83169
0.367555
0.355043
0.350307
0.348474
0.348981
0.351504
0.355783
0.361611
0.368833
0.377328
0.386994
0.397747
0.409508
0.422201
0.435755
0.4501
0.465171
0.480907
0.497254
0.514166
0.531602
0.549528
0.567918
0.586751
0.606008
0.625679
0.645752
0.666222
0.687084
0.708334
0.729973
0.751999
0.774416
0.797225
0.82043
0.844037
0.868053
0.892483
0.917336
0.942622
0.968349
0.994528
1.02117
1.04829
1.07589
1.10399
1.13261
1.16174
1.19141
1.22162
1.25239
1.28372
1.31562
1.34809
1.38114
1.41476
1.44897
1.48374
1.51909
1.55499
1.59143
1.6284
1.66587
1.70383
1.74223
1.78105
1.82025
1.8598
1.89965
1.93975
1.98007
2.02056
2.06118
2.10188
2.14264
2.1834
2.22415
2.26485
2.30546
2.34597
2.38635
2.42656
2.4666
2.50644
2.54605
2.58542
2.62455
2.6634
2.70198
2.74028
2.77819
2.8157
2.85279
2.88944
2.92562
2.9613
2.99647
3.0311
3.06516
3.09863
3.13149
3.16371
3.19527
3.22616
3.25635
3.28582
3.31456
3.34255
3.36977
3.39621
3.42186
3.44672
3.47076
3.49398
3.51636
3.5379
3.55857
3.57837
3.59728
3.61527
3.63235
3.64847
3.66363
3.6778
3.69094
3.70304
3.71405
3.72395
3.73268
3.74021
3.74646
3.7514
3.75495
3.75705
3.75761
3.75656
3.75382
3.74931
3.74296
3.73471
3.72451
3.71236
3.69829
3.68233
3.66469
3.64554
3.62507
3.60351
3.58104
3.55804
3.53537
3.51405
3.49482
3.47789
3.46304
3.4499
3.43816
3.42737
3.41682
3.40576
3.39365
3.38007
3.36478
3.34762
3.32852
3.30744
3.28442
3.2595
3.23278
3.2044
3.17451
3.14331
3.11101
3.07789
3.04428
3.01068
2.97773
2.94635
2.91726
2.89126
0.375222
0.358261
0.351611
0.348482
0.348029
0.349763
0.353326
0.358456
0.364967
0.37272
0.381609
0.391547
0.402456
0.414266
0.426909
0.440323
0.454448
0.469229
0.484619
0.500573
0.517057
0.534042
0.551503
0.569424
0.587792
0.606598
0.625837
0.645507
0.665609
0.686145
0.70712
0.728541
0.750415
0.772753
0.795564
0.818862
0.842658
0.866968
0.891805
0.917186
0.943128
0.969645
0.996757
1.02448
1.05283
1.08182
1.11148
1.14181
1.17283
1.20455
1.23699
1.27015
1.30404
1.33866
1.37403
1.41013
1.44696
1.48451
1.52278
1.56175
1.6014
1.6417
1.68263
1.72416
1.76624
1.80883
1.85189
1.89536
1.9392
1.98334
2.02774
2.07233
2.11707
2.1619
2.20678
2.25166
2.29651
2.34129
2.38596
2.4305
2.47487
2.51904
2.56298
2.60668
2.6501
2.69323
2.73604
2.77853
2.82067
2.86239
2.90362
2.94434
2.98455
3.02422
3.06332
3.10182
3.1397
3.17692
3.21345
3.24927
3.28435
3.31866
3.35218
3.38488
3.41674
3.44773
3.47784
3.50705
3.53534
3.56269
3.5891
3.61456
3.63905
3.66256
3.68507
3.70659
3.72709
3.74657
3.76501
3.7824
3.79873
3.81397
3.82813
3.84117
3.85308
3.86385
3.87346
3.88187
3.88907
3.89502
3.89968
3.90302
3.90498
3.90554
3.90462
3.90217
3.89813
3.89246
3.8851
3.87599
3.86513
3.85253
3.83824
3.8223
3.80485
3.78605
3.766
3.74482
3.72259
3.69957
3.67639
3.65381
3.63244
3.6125
3.59392
3.57654
3.56026
3.54483
3.52972
3.51431
3.49812
3.48076
3.46199
3.44165
3.41966
3.39599
3.37065
3.34368
3.31519
3.28527
3.25407
3.22178
3.18859
3.15476
3.12061
3.0866
3.0533
3.02147
2.99156
2.96401
0.383155
0.361083
0.352326
0.347864
0.346485
0.347492
0.350412
0.354919
0.360792
0.367878
0.376064
0.385265
0.395406
0.406423
0.418256
0.430847
0.444145
0.4581
0.472669
0.487816
0.503508
0.519721
0.536435
0.553637
0.571317
0.58947
0.608097
0.627199
0.646781
0.66685
0.687418
0.708494
0.730093
0.75223
0.774922
0.798186
0.822042
0.84651
0.87161
0.897364
0.923793
0.95092
0.978765
1.00735
1.0367
1.06684
1.09777
1.12953
1.16213
1.19559
1.22991
1.26512
1.30121
1.33819
1.37606
1.41482
1.45446
1.49498
1.53635
1.57856
1.62158
1.66539
1.70995
1.75521
1.80113
1.84765
1.89472
1.94227
1.99024
2.03857
2.08718
2.13601
2.185
2.23409
2.28321
2.33234
2.38141
2.43038
2.47922
2.5279
2.57636
2.62459
2.67255
2.72021
2.76754
2.81452
2.86113
2.90734
2.95312
2.99831
3.04292
3.08694
3.13035
3.17312
3.21522
3.25661
3.29727
3.33716
3.37623
3.41447
3.45183
3.48829
3.52382
3.55839
3.59197
3.62454
3.65607
3.68655
3.71596
3.74428
3.77151
3.79762
3.82261
3.84647
3.86918
3.89073
3.91112
3.93034
3.94837
3.9652
3.98084
3.99526
4.00846
4.02041
4.03113
4.04059
4.0488
4.05572
4.06136
4.06569
4.06869
4.07033
4.0706
4.06945
4.06686
4.06278
4.05718
4.05004
4.04131
4.03097
4.01903
4.00551
3.99044
3.9739
3.95599
3.93681
3.91643
3.89489
3.8722
3.84854
3.82435
3.80021
3.7766
3.75375
3.7317
3.71044
3.69
3.67024
3.65083
3.63128
3.61116
3.59015
3.56799
3.54453
3.51969
3.49343
3.46575
3.43669
3.40634
3.37479
3.34217
3.30863
3.27437
3.23963
3.2047
3.17001
3.13605
3.10343
3.07241
3.04324
0.391298
0.363431
0.35237
0.34654
0.344264
0.344597
0.34693
0.350869
0.356158
0.362629
0.370167
0.378687
0.388121
0.39841
0.409502
0.421349
0.433903
0.447122
0.46097
0.475413
0.490425
0.505984
0.522074
0.538686
0.555813
0.573455
0.591614
0.610296
0.629511
0.64927
0.669588
0.69048
0.711966
0.734064
0.756799
0.780191
0.804267
0.829051
0.854569
0.880848
0.907916
0.935798
0.964522
0.994114
1.0246
1.05601
1.08836
1.12168
1.15599
1.19131
1.22764
1.26502
1.30343
1.3429
1.38341
1.42497
1.46756
1.51118
1.5558
1.6014
1.64794
1.6954
1.74373
1.79288
1.84278
1.89338
1.9446
1.99636
2.0486
2.10124
2.15419
2.20737
2.26072
2.31416
2.36764
2.42109
2.47448
2.52774
2.58084
2.63374
2.68638
2.73874
2.79079
2.84248
2.89379
2.94469
2.99516
3.04516
3.09451
3.14321
3.19123
3.23856
3.28519
3.33108
3.37619
3.42049
3.46393
3.50648
3.54809
3.58873
3.62836
3.66695
3.70447
3.74088
3.77615
3.81026
3.84318
3.87489
3.90538
3.93464
3.96265
3.98939
4.01485
4.03903
4.0619
4.08347
4.10372
4.12265
4.14025
4.15651
4.17144
4.18502
4.19723
4.20809
4.21758
4.22571
4.23248
4.23788
4.24192
4.24457
4.24583
4.24569
4.24415
4.24118
4.23677
4.23091
4.22356
4.21473
4.20439
4.19253
4.17917
4.16434
4.14809
4.13047
4.11157
4.09146
4.07017
4.04771
4.02406
3.99931
3.97377
3.94788
3.92202
3.89642
3.87118
3.84638
3.82212
3.79838
3.77494
3.75147
3.72761
3.70307
3.67762
3.65111
3.62346
3.5946
3.56456
3.53338
3.5011
3.46783
3.43367
3.39875
3.36326
3.32741
3.29148
3.25585
3.22096
3.18729
3.15494
3.12407
0.399626
0.365276
0.35172
0.344492
0.341345
0.341043
0.34283
0.34624
0.350983
0.356877
0.363805
0.371686
0.380457
0.39007
0.400477
0.411638
0.423514
0.436068
0.449267
0.463085
0.477497
0.492487
0.508041
0.524153
0.54082
0.558045
0.575833
0.594195
0.613142
0.632692
0.652862
0.673673
0.695147
0.717311
0.74019
0.763813
0.788209
0.81341
0.839446
0.86635
0.894154
0.922891
0.952592
0.98329
1.01502
1.0478
1.08167
1.11666
1.15279
1.19008
1.22856
1.26823
1.3091
1.3512
1.3945
1.43902
1.48472
1.53161
1.57965
1.62881
1.67905
1.73034
1.78261
1.83582
1.88987
1.94469
2.0002
2.05631
2.11294
2.16999
2.22737
2.28499
2.34277
2.40063
2.45852
2.51636
2.57411
2.63172
2.68912
2.74626
2.80312
2.85963
2.91577
2.9715
3.02679
3.08161
3.13593
3.18957
3.24245
3.29458
3.34595
3.39652
3.44628
3.4952
3.54323
3.59033
3.63644
3.68153
3.72555
3.76846
3.81022
3.8508
3.89016
3.92826
3.96506
4.00055
4.03469
4.06746
4.09887
4.1289
4.15754
4.18476
4.21053
4.23487
4.25776
4.27919
4.29916
4.31765
4.33468
4.35023
4.36432
4.37694
4.38805
4.39768
4.40583
4.41251
4.41774
4.4215
4.42381
4.42468
4.42409
4.42206
4.41859
4.41368
4.40732
4.3995
4.39024
4.37952
4.36734
4.35372
4.33867
4.32222
4.30443
4.28536
4.26506
4.24359
4.22098
4.19719
4.1722
4.14605
4.11896
4.09124
4.06319
4.03502
4.00688
3.97888
3.95118
3.92382
3.89669
3.86956
3.84217
3.81429
3.7857
3.75627
3.72587
3.69449
3.66213
3.62883
3.59463
3.55961
3.52386
3.4875
3.45067
3.41359
3.37652
3.33981
3.30381
3.2689
3.2351
3.2025
0.408147
0.366635
0.350407
0.341758
0.33776
0.336851
0.338119
0.341023
0.345244
0.350587
0.356934
0.36421
0.372359
0.381337
0.391109
0.401638
0.412892
0.424839
0.437453
0.45071
0.464589
0.479077
0.494164
0.509846
0.526124
0.543003
0.560493
0.578608
0.597365
0.616784
0.636887
0.657699
0.679249
0.701565
0.724679
0.748626
0.773439
0.799156
0.825813
0.853449
0.882101
0.911808
0.942609
0.974541
1.00764
1.04195
1.07749
1.1143
1.15242
1.19186
1.23265
1.27481
1.31836
1.3633
1.40962
1.45732
1.50639
1.55679
1.60849
1.66145
1.71563
1.77097
1.82741
1.88487
1.94326
2.00247
2.0624
2.12296
2.18406
2.24558
2.30744
2.36952
2.43174
2.49403
2.55631
2.61853
2.68063
2.74253
2.8042
2.86556
2.92656
2.98715
3.0473
3.10697
3.16613
3.22477
3.28267
3.33975
3.39598
3.45136
3.50586
3.55946
3.61212
3.66383
3.71453
3.76417
3.81269
3.86003
3.90616
3.95104
3.99464
4.0369
4.0778
4.11728
4.1553
4.19183
4.22686
4.26039
4.29239
4.32289
4.35188
4.37926
4.40505
4.42925
4.45185
4.47285
4.49225
4.51004
4.52623
4.5408
4.55378
4.56516
4.57494
4.58312
4.58973
4.59477
4.59825
4.6002
4.60062
4.59952
4.59692
4.59283
4.58727
4.58024
4.57175
4.56182
4.55045
4.53765
4.52344
4.50782
4.49084
4.47253
4.45293
4.4321
4.41011
4.38698
4.36272
4.33732
4.31074
4.28301
4.25424
4.22468
4.19454
4.16402
4.13327
4.10243
4.07167
4.04107
4.01061
3.98016
3.94954
3.91856
3.88705
3.85488
3.82191
3.78813
3.75357
3.71826
3.68222
3.64552
3.60823
3.57044
3.53227
3.49395
3.45571
3.41785
3.38068
3.34449
3.30922
3.27494
0.416924
0.36758
0.348517
0.338427
0.333592
0.332091
0.332851
0.33526
0.33897
0.34378
0.349571
0.356274
0.363838
0.372229
0.381415
0.391367
0.402057
0.413459
0.425549
0.438308
0.45172
0.465774
0.480463
0.495786
0.511746
0.528351
0.545617
0.563564
0.582214
0.601592
0.621727
0.642647
0.664386
0.686979
0.710463
0.734875
0.760257
0.786651
0.814101
0.842651
0.872346
0.903232
0.935353
0.968755
1.00348
1.03956
1.07705
1.11597
1.15637
1.19826
1.24169
1.28668
1.33323
1.38135
1.43106
1.48232
1.53511
1.58938
1.6451
1.7022
1.76063
1.82032
1.88118
1.94312
2.00602
2.06976
2.1342
2.19925
2.26481
2.33077
2.39703
2.46348
2.53004
2.59664
2.6632
2.72966
2.79595
2.86202
2.92779
2.99319
3.05816
3.12262
3.18655
3.24992
3.31274
3.37472
3.4358
3.49597
3.55519
3.61344
3.67068
3.72689
3.78203
3.83608
3.88902
3.94078
3.99121
4.04032
4.08807
4.13442
4.17935
4.2228
4.26474
4.30511
4.34384
4.38092
4.41635
4.45013
4.48225
4.51271
4.54149
4.56856
4.59391
4.61753
4.63942
4.65958
4.678
4.69468
4.70963
4.72286
4.73437
4.74417
4.75227
4.75869
4.76344
4.76654
4.76801
4.76787
4.76614
4.76285
4.758
4.75164
4.74377
4.73442
4.72362
4.71137
4.6977
4.68264
4.6662
4.6484
4.6293
4.60891
4.5873
4.56451
4.5406
4.51559
4.4895
4.46231
4.43399
4.40455
4.37406
4.34269
4.31059
4.27794
4.24488
4.21156
4.17813
4.14471
4.11133
4.07794
4.04443
4.01066
3.97652
3.94189
3.90659
3.87065
3.83411
3.79697
3.75928
3.72106
3.68237
3.64326
3.60387
3.5644
3.52507
3.48613
3.44785
3.41045
3.37382
3.338
0.426104
0.368242
0.34619
0.334639
0.328969
0.326875
0.327124
0.329037
0.332241
0.336532
0.341793
0.347958
0.354985
0.362842
0.371503
0.380944
0.391139
0.402068
0.413711
0.426052
0.439079
0.452785
0.46717
0.482235
0.49799
0.514439
0.531599
0.549499
0.568178
0.587669
0.608006
0.629226
0.651367
0.674469
0.698575
0.723728
0.749976
0.777367
0.805949
0.835775
0.866896
0.899366
0.933239
0.968564
1.00538
1.04374
1.08367
1.12522
1.16842
1.21331
1.25992
1.30826
1.35836
1.41023
1.46385
1.51922
1.57628
1.63495
1.69516
1.75684
1.8199
1.88425
1.94979
2.01639
2.08391
2.15219
2.2211
2.29052
2.36035
2.4305
2.50087
2.57138
2.64197
2.71262
2.78317
2.85353
2.92369
2.99357
3.0631
3.13219
3.20075
3.26869
3.33599
3.40261
3.46827
3.53298
3.5967
3.65938
3.72099
3.78148
3.84082
3.89898
3.95592
4.0116
4.066
4.11904
4.17066
4.22081
4.26945
4.31655
4.36207
4.40598
4.44823
4.48878
4.52755
4.56454
4.59976
4.63318
4.66481
4.69462
4.72262
4.74877
4.77308
4.79553
4.81613
4.83487
4.85175
4.86678
4.87997
4.89133
4.90088
4.90863
4.9146
4.91881
4.92129
4.92205
4.92112
4.91854
4.91432
4.90851
4.90112
4.8922
4.88177
4.86985
4.8565
4.84172
4.82556
4.80803
4.78918
4.76904
4.74764
4.72503
4.70126
4.67637
4.65041
4.62341
4.59539
4.56633
4.53621
4.50504
4.47286
4.43976
4.40588
4.37134
4.33628
4.30084
4.26516
4.22937
4.19353
4.15765
4.12167
4.08552
4.04911
4.01235
3.97507
3.93732
3.89909
3.86042
3.82132
3.78182
3.74197
3.70178
3.66138
3.62098
3.58075
3.54093
3.50173
3.46331
3.42553
3.38842
0.435969
0.368827
0.343629
0.330591
0.324072
0.321369
0.321087
0.322491
0.325192
0.328981
0.333746
0.339425
0.345977
0.353375
0.361596
0.370616
0.380416
0.390977
0.402284
0.414328
0.427104
0.44061
0.454852
0.469844
0.4856
0.502137
0.519468
0.537597
0.55658
0.576495
0.597385
0.619295
0.642269
0.666353
0.691597
0.718052
0.745769
0.774804
0.805212
0.837037
0.870335
0.905171
0.941611
0.979711
1.01951
1.06102
1.10428
1.14934
1.19622
1.24496
1.29559
1.34811
1.40254
1.45889
1.51716
1.57738
1.6394
1.70304
1.76826
1.83495
1.903
1.97224
2.04253
2.1137
2.18563
2.25816
2.33115
2.40448
2.47803
2.55176
2.62561
2.69954
2.77351
2.84747
2.92132
2.99497
3.06836
3.14141
3.21404
3.28615
3.35762
3.42838
3.49822
3.56702
3.63477
3.70142
3.76694
3.83129
3.8944
3.95624
4.01676
4.07592
4.13369
4.19004
4.24492
4.29828
4.35007
4.40024
4.44874
4.49555
4.54064
4.58396
4.62549
4.6652
4.70307
4.73909
4.77321
4.8054
4.83565
4.86396
4.89031
4.9147
4.93712
4.95758
4.97608
4.99262
5.0072
5.01984
5.03056
5.03937
5.0463
5.05138
5.05461
5.05605
5.05571
5.05362
5.04983
5.04436
5.03724
5.02853
5.01825
5.00644
4.99315
4.97841
4.96226
4.94474
4.92589
4.90574
4.88434
4.86172
4.83792
4.813
4.787
4.75997
4.73195
4.70296
4.67304
4.64216
4.61033
4.57753
4.54379
4.50917
4.47376
4.43767
4.40101
4.3639
4.32648
4.28886
4.25114
4.21334
4.17546
4.13745
4.09927
4.06085
4.02213
3.98308
3.94366
3.90391
3.86383
3.82346
3.78284
3.74193
3.70089
3.65989
3.61909
3.57868
3.53884
3.49971
3.46112
3.42304
0.44744
0.369685
0.341049
0.326432
0.319002
0.315628
0.314764
0.315627
0.317816
0.321123
0.325437
0.330697
0.336864
0.343911
0.351816
0.36056
0.370124
0.380495
0.391667
0.403642
0.416427
0.430034
0.444484
0.459806
0.476028
0.493179
0.511275
0.530328
0.550358
0.571425
0.593638
0.617095
0.641835
0.667911
0.695385
0.724319
0.754757
0.786794
0.820436
0.855632
0.892468
0.931045
0.971448
1.01378
1.05805
1.10412
1.15206
1.20192
1.25373
1.30749
1.36321
1.4209
1.48055
1.54214
1.60565
1.67104
1.73824
1.80711
1.87757
1.94945
2.02258
2.09671
2.1716
2.24691
2.32268
2.39887
2.47533
2.55193
2.62854
2.70508
2.7816
2.8581
2.93462
3.01114
3.08747
3.1635
3.23916
3.31435
3.38901
3.46305
3.5362
3.60824
3.67918
3.74896
3.81754
3.88486
3.95088
4.01554
4.07877
4.14054
4.2008
4.25951
4.31666
4.3722
4.42611
4.47833
4.52881
4.57752
4.62441
4.66946
4.71263
4.75391
4.79326
4.83066
4.86609
4.89952
4.93094
4.96031
4.98764
5.01292
5.03616
5.05736
5.07652
5.09366
5.10877
5.12188
5.13299
5.14213
5.14931
5.15457
5.15794
5.15945
5.15913
5.15702
5.15316
5.14757
5.14031
5.1314
5.1209
5.10885
5.09529
5.08027
5.06383
5.04602
5.02688
5.00647
4.98483
4.96199
4.938
4.91292
4.88677
4.85962
4.8315
4.80246
4.77255
4.74179
4.71022
4.67783
4.64462
4.61059
4.57575
4.54015
4.50384
4.46689
4.4294
4.39146
4.35318
4.31467
4.27601
4.23726
4.19842
4.1595
4.12045
4.08123
4.04179
4.0021
3.96215
3.92194
3.88149
3.84083
3.79999
3.759
3.71794
3.67692
3.6361
3.59563
3.55567
3.51631
3.47741
3.43887
0.460352
0.3713
0.339218
0.323017
0.314627
0.310522
0.309039
0.309364
0.311091
0.314013
0.318017
0.323038
0.329035
0.335983
0.343867
0.352672
0.36239
0.373018
0.384568
0.397061
0.410529
0.425015
0.440562
0.457208
0.474986
0.493951
0.514134
0.53545
0.557921
0.581733
0.606974
0.633728
0.662063
0.692045
0.723756
0.757332
0.7926
0.829611
0.868382
0.908946
0.951354
0.995656
1.04189
1.09008
1.14022
1.19227
1.24622
1.30206
1.35978
1.41936
1.48078
1.54403
1.60906
1.67586
1.74437
1.81456
1.88636
1.95968
2.03443
2.11046
2.18757
2.26543
2.34362
2.42167
2.49995
2.57846
2.6571
2.73571
2.8142
2.89253
2.97071
3.04878
3.12682
3.20463
3.28196
3.35873
3.43498
3.51046
3.58491
3.65812
3.73011
3.80084
3.87028
3.93838
4.00511
4.07042
4.13425
4.19654
4.25724
4.31631
4.37373
4.42946
4.48349
4.53579
4.58634
4.63507
4.68197
4.72698
4.77008
4.81126
4.85048
4.88774
4.92302
4.95628
4.98751
5.01671
5.04385
5.06892
5.09193
5.11287
5.13177
5.14863
5.16347
5.17629
5.18711
5.19595
5.20283
5.20778
5.21082
5.21198
5.21132
5.20886