/*--------------------------------*- C++ -*----------------------------------*\
| =========                 |                                                 |
| \\      /  F ield         | OpenFOAM: The Open Source CFD Toolbox           |
|  \\    /   O peration     | Version:  2112                                  |
|   \\  /    A nd           | Website:  www.openfoam.com                      |
|    \\/     M anipulation  |                                                 |
\*---------------------------------------------------------------------------*/
FoamFile
{
    version     2.0;
    format      ascii;
    arch        "LSB;label=32;scalar=64";
    class       volScalarField;
    location    "0.28";
    object      omega;
}
// * * * * * * * * * * * * * * * * * * * * * * * * * * * * * * * * * * * * * //

dimensions      [0 0 -1 0 0 0 0];

internalField   nonuniform List<scalar> 
12225
(
37527.3
40233
41980.6
42972.3
43468.5
43638.7
43610.4
43518.2
43340.1
43118.8
42906.5
42667.5
42472.3
42239.4
42082.9
41859.9
41750.6
41518.8
2590.11
6031.15
8563.09
10431.4
11778.3
12738.1
13397.3
13863.7
14196.4
14420.8
14585.4
14695.5
14770.4
14835.3
14854.8
14900.6
14893.4
14994.4
353.398
924.275
1440.53
1915.37
2329.56
2709.35
3023.62
3316.71
3546.37
3769.52
3937.89
4109.23
4229.77
4365.05
4439.65
4572.28
4621.61
4691.63
119.907
272.386
420.121
564.54
695.967
825.438
937.481
1051.95
1143.5
1242.12
1317.13
1401.96
1460.94
1534.59
1583
1643.75
1671.87
1748.48
66.3239
127.364
187.055
246.586
301.735
356.718
405.781
456.333
498.497
543.902
580.31
620.853
651.068
688.489
712.495
742.975
767.549
801.711
48.3342
78.7018
108.562
138.574
166.783
194.75
220.384
246.305
268.972
292.596
312.694
334.121
351.463
371.378
384.982
403.485
417.732
434.602
42.5791
57.9488
74.9569
92.0826
108.409
124.494
139.544
154.47
168.026
181.701
193.907
206.399
217.157
228.677
237.535
249.083
256.454
267.372
40.7426
48.2809
58.4291
68.8755
79.0378
89.0472
98.5676
107.895
116.593
125.172
133.088
140.947
148.022
155.242
161.388
168.494
173.36
180.37
40.0942
43.6627
49.6568
56.1994
62.765
69.2903
75.5935
81.7474
87.5901
93.2874
98.6536
103.887
108.742
113.555
117.896
122.478
126.027
130.671
39.8297
41.479
44.8362
48.9273
53.2138
57.5588
61.8327
66.0246
70.0614
73.9862
77.7326
81.3598
84.7887
88.1327
91.2439
94.3667
97.017
100.202
39.7089
40.4588
42.1972
44.6862
47.4497
50.342
53.2555
56.1485
58.9744
61.7324
64.3931
66.9687
69.4333
71.8202
74.0802
76.2951
78.2837
80.5302
39.6565
40.0161
40.9223
42.441
44.2493
46.2194
48.2605
50.3232
52.369
54.3826
56.3442
58.2513
60.0916
61.8733
63.5775
65.2337
66.7663
68.434
39.63
39.7903
40.2279
41.0861
42.2139
43.5089
44.9005
46.3424
47.8005
49.2549
50.6887
52.0938
53.4614
54.7902
56.0722
57.3158
58.49
59.736
39.616
39.6727
39.8524
40.2494
40.865
41.6247
42.4848
43.41
44.3731
45.3545
46.3392
47.3173
48.2807
49.2247
50.1443
51.0397
51.899
52.795
39.6077
39.62
39.6764
39.8188
40.093
40.4707
40.9314
41.4552
42.0241
42.6232
43.2406
43.8673
44.4957
45.1208
45.7379
46.3445
46.936
47.5471
39.6042
39.5974
39.6064
39.6426
39.7276
39.8758
40.0767
40.3237
40.609
40.9247
41.2634
41.6189
41.9856
42.3591
42.7357
43.1125
43.487
43.8736
39.604
39.5884
39.5795
39.5821
39.5968
39.6327
39.6979
39.7885
39.9036
40.0407
40.1972
40.3701
40.5565
40.7538
40.9594
41.1711
41.3873
41.6126
39.604
39.5866
39.5722
39.5626
39.5616
39.5666
39.5814
39.6112
39.6562
39.7156
39.7889
39.8754
39.9738
40.0829
40.2013
40.3275
40.4604
40.6
39.6039
39.5872
39.5743
39.5706
39.5755
39.5915
39.6246
39.6759
39.7443
39.829
39.9288
40.0423
40.1678
40.3037
40.4483
40.6001
40.7574
40.9163
39.6039
39.5966
39.6053
39.6393
39.7165
39.8478
40.024
40.2401
40.4901
40.7674
41.0663
41.3812
41.7077
42.0417
42.3801
42.7202
43.0597
43.3889
39.6102
39.6339
39.7208
39.9209
40.2583
40.6978
41.2181
41.7985
42.421
43.0708
43.7366
44.4092
45.0818
45.7492
46.4075
47.0536
47.6867
48.2867
39.6302
39.7855
40.1867
40.9423
41.9216
43.0516
44.2764
45.5537
46.8544
48.1573
49.4486
50.7178
51.959
53.1668
54.3398
55.4736
56.5758
57.6008
39.7085
40.3657
41.806
43.8387
46.1486
48.5903
51.0836
53.5692
56.0203
58.4116
60.7367
62.9831
65.1536
67.2394
69.2508
71.171
73.0422
74.7453
40.0218
42.355
46.3993
51.0063
55.8297
60.6507
65.4085
70.0194
74.4938
78.7834
82.9214
86.8676
90.669
94.2768
97.7655
101.037
104.276
107.133
41.2493
48.5879
58.1063
67.9274
77.7233
87.1727
96.3652
105.09
113.535
121.49
129.193
136.402
143.415
149.913
156.322
162.118
168.067
173.063
46.1933
66.7
88.942
110.646
131.826
151.755
171.141
189.109
206.676
222.739
238.603
252.881
267.216
279.817
292.852
303.845
315.863
325.216
65.9207
125.8
185.607
241.655
295.706
345.36
393.791
437.176
480.207
517.659
555.805
587.87
621.759
648.982
679.282
702.21
729.552
748.599
166.891
402.776
620.406
816.834
1000.94
1164.72
1319.88
1453.05
1582.09
1688.41
1795.83
1879.8
1969.92
2035.82
2112.26
2163.62
2229.42
2269.07
1158.11
2665.3
3852.31
4825.04
5631.77
6285.7
6819.86
7243.6
7590.24
7861.57
8088.55
8260.24
8415.18
8523
8633.66
8696.22
8782.2
8812.46
23121.7
24533.2
25613.9
26401.8
26955.7
27332.7
27578.8
27730.5
27813.4
27848.7
27843.6
27826.2
27788.3
27738.2
27681.4
27620.4
27557.3
27493.4
11463.4
2515.43
2518.94
2522.43
2525.63
2528.5
2531.15
2533.82
2536.68
2539.67
2542.64
2545.43
2548
2550.53
2553
2554.95
2556.02
2557.59
2559.01
2560.11
2561.34
2563.4
2565.94
2568.68
2571.52
2574.43
2577.55
2581.13
2585.78
2592.12
2598.42
2602.61
2604.8
2605.66
2609.27
2611.67
2614.56
2620.3
2629.23
2661.34
2790.2
2924
3035.08
3132.38
3218.6
3297.34
3369.94
3438.06
3502.47
3564.14
3623.47
3681.33
3737.9
3793.86
3849.36
3904.88
3960.64
4017.11
4074.52
4133.37
4193.78
4252.83
4312.69
4371.81
4431.33
4490.4
4549.61
4608.49
4667.33
4725.88
4784.26
4842.31
4900.09
4957.5
5014.55
5071.17
5127.36
5183.06
5238.25
5292.91
5347
5400.5
5453.39
5505.63
5557.19
5608.07
5658.21
5707.61
5756.22
5804.03
5850.99
5897.08
5942.26
5986.49
6029.76
6072.02
6113.26
6153.48
6192.7
6230.97
6268.45
6305.36
6341.42
6376.5
6410.62
6443.73
6475.85
6506.94
6537
6566
6593.95
6620.81
6646.59
6671.28
6694.86
6717.33
6738.68
6758.92
6778.03
6796.01
6812.88
6828.62
6843.25
6856.78
6869.22
6880.58
6890.88
6900.6
6908.66
6915.83
6921.97
6926.55
6929.87
6932.01
6933
6933.16
6932.36
6930.33
6927.32
6923.33
6918.39
6912.51
6905.73
6898.06
6889.54
6880.19
6870.04
6859.12
6847.47
6835.1
6822.03
6808.27
6793.87
6778.86
6763.3
6747.23
6730.74
6713.87
6696.67
6679.21
6661.51
6643.62
6625.55
6607.32
6588.95
6570.47
6551.93
6533.38
6514.86
6496.41
6478.01
6459.62
6441.13
6422.46
6402.91
6383.45
6358.1
6341.73
6318.53
6232.79
11463.9
2041.38
1119.36
954.791
828.849
675.421
547.419
529.372
536.591
543.867
551.103
555.012
556.082
556.701
558.883
564.33
574.758
612.014
691.542
786.554
861.321
895.826
890.194
859.678
784.859
643.476
546.819
480.532
457.531
462.967
484.282
521.697
548.444
601.091
746.855
1082.27
1653.38
1941.07
2027.78
2061.06
2071.98
2040.81
1994.1
1942.86
1895.38
1844.96
1800.59
1762.15
1731.87
1708.3
1691.08
1678.94
1672.05
1668.53
1667.18
1668.08
1672.15
1677.22
1684.08
1691.77
1700.38
1709.32
1718.75
1728.29
1738.03
1747.76
1757.51
1767.18
1776.77
1786.24
1795.59
1804.79
1813.86
1822.79
1831.58
1840.24
1848.78
1857.18
1865.47
1873.64
1881.7
1889.64
1897.47
1905.18
1912.77
1920.24
1927.58
1934.79
1941.87
1948.81
1955.61
1962.28
1968.82
1975.24
1981.57
1987.83
1994.08
2000.4
2006.91
2013.79
2021.3
2030.05
2038.69
2047.04
2055.19
2063.1
2070.78
2078.22
2085.43
2092.41
2099.14
2105.64
2111.9
2117.92
2123.7
2129.24
2134.55
2139.61
2144.44
2149.04
2153.41
2157.54
2161.45
2165.14
2168.61
2171.87
2174.9
2177.72
2180.21
2182.42
2184.15
2185.09
2185.59
2185.91
2185.94
2185.8
2185.44
2184.84
2184.01
2182.95
2181.67
2180.18
2178.48
2176.57
2174.47
2172.17
2169.69
2167.05
2164.21
2161.16
2157.94
2154.56
2151.04
2147.37
2143.57
2139.66
2135.63
2131.51
2127.29
2122.99
2118.61
2114.16
2109.64
2105.07
2100.45
2095.8
2091.11
2086.4
2081.69
2076.99
2072.3
2067.64
2063.04
2058.49
2054.05
2050.01
2045.83
2044.27
2044.18
2057.48
11463.5
2305.18
976.877
644.402
517.394
469.565
476.254
498.534
499.726
493.347
478.061
457.504
436.999
418.989
403.963
393.566
384.856
384.712
389.079
401.192
424.848
450.594
473.859
478.687
469.707
442.94
397.525
364.773
368.518
392.839
446.035
552.002
743.818
1052.88
1267.87
1372.09
1440.09
1443.78
1412.57
1391.79
1353.67
1307.23
1257.4
1209.5
1169.46
1136.99
1112.87
1094.76
1082.13
1073.45
1068.45
1066.01
1065.17
1065.5
1067.69
1070.63
1074.47
1078.78
1083.59
1088.66
1093.96
1099.38
1104.88
1110.41
1115.94
1121.45
1126.92
1132.33
1137.69
1142.98
1148.21
1153.38
1158.48
1163.54
1168.53
1173.48
1178.38
1183.23
1188.03
1192.79
1197.5
1202.17
1206.79
1211.37
1215.89
1220.36
1224.78
1229.14
1233.45
1237.7
1241.91
1246.07
1250.18
1254.26
1258.32
1262.38
1266.45
1270.57
1274.76
1279.04
1283.45
1287.91
1292.21
1296.39
1300.45
1304.37
1308.17
1311.84
1315.38
1318.79
1322.06
1325.2
1328.21
1331.08
1333.82
1336.42
1338.89
1341.22
1343.42
1345.48
1347.41
1349.21
1350.88
1352.41
1353.8
1355.06
1356.18
1357.14
1357.93
1358.54
1358.93
1359.09
1359.08
1358.99
1358.79
1358.42
1357.92
1357.3
1356.56
1355.69
1354.71
1353.6
1352.37
1351.04
1349.58
1348.02
1346.36
1344.59
1342.71
1340.72
1338.64
1336.48
1334.23
1331.89
1329.49
1327.01
1324.47
1321.86
1319.19
1316.46
1313.68
1310.85
1307.98
1305.07
1302.12
1299.14
1296.14
1293.12
1290.09
1287.06
1284.03
1281.04
1278.1
1275.27
1272.59
1270.28
1268.26
1267.92
1269.45
1280.95
11463.3
2075.76
865.209
626.112
625.032
648.595
637.403
599.144
549.233
502.576
458.563
419.773
387.83
362.907
343.887
329.752
319.705
313.181
310.818
311.915
316.032
324.78
336.422
346.496
349.613
351.623
364.888
418.019
526.98
661.509
836.321
1008.44
1094.55
1136.74
1168.66
1155.44
1105.38
1087.62
1054.78
1026.82
988.352
952.272
919.75
894.189
874.67
860.278
850.201
843.362
839.387
837.505
836.909
837.288
838.906
841.183
844.115
847.433
851.097
854.981
859.043
863.209
867.449
871.723
876.013
880.298
884.569
888.815
893.033
897.22
901.377
905.505
909.606
913.681
917.735
921.769
925.785
929.785
933.77
937.738
941.691
945.626
949.543
953.439
957.313
961.162
964.985
968.778
972.542
976.274
979.973
983.64
987.273
990.875
994.447
997.992
1001.51
1005.02
1008.5
1011.98
1015.44
1018.89
1022.3
1025.65
1028.9
1032.05
1035.1
1038.05
1040.91
1043.66
1046.3
1048.84
1051.28
1053.6
1055.82
1057.93
1059.93
1061.81
1063.59
1065.26
1066.81
1068.25
1069.57
1070.78
1071.88
1072.86
1073.72
1074.47
1075.09
1075.58
1075.93
1076.15
1076.22
1076.16
1075.98
1075.7
1075.31
1074.81
1074.2
1073.48
1072.66
1071.73
1070.71
1069.58
1068.35
1067.03
1065.61
1064.09
1062.49
1060.8
1059.02
1057.15
1055.2
1053.19
1051.1
1048.94
1046.72
1044.43
1042.09
1039.69
1037.24
1034.73
1032.18
1029.59
1026.96
1024.29
1021.6
1018.87
1016.13
1013.36
1010.59
1007.81
1005.03
1002.29
999.6
997.009
994.567
992.428
990.618
989.989
990.979
997.665
11463.4
1998.35
955.267
940.558
899.068
798.526
689.171
591.101
504.254
433.939
380.355
342.112
315.366
296.64
283.765
275.304
270.241
268.251
268.812
271.131
276.2
284.181
293.903
308.209
334.079
387.757
495.896
644.523
803.823
926.709
979.07
1001.51
1013.1
983.726
935.761
912.666
885.84
866.449
838.89
813.329
786.473
765.208
748.055
735.467
726.388
720.25
716.61
714.902
714.383
714.791
716.236
718.318
720.963
723.989
727.32
730.863
734.567
738.379
742.267
746.199
750.157
754.125
758.093
762.053
766.003
769.94
773.867
777.783
781.693
785.598
789.501
793.406
797.313
801.225
805.142
809.064
812.99
816.918
820.846
824.772
828.691
832.602
836.5
840.383
844.247
848.09
851.909
855.702
859.466
863.199
866.899
870.566
874.198
877.795
881.354
884.876
888.357
891.794
895.181
898.507
901.765
904.941
908.027
911.024
913.929
916.74
919.454
922.07
924.586
927
929.311
931.516
933.614
935.605
937.486
939.256
940.915
942.461
943.894
945.214
946.417
947.505
948.475
949.327
950.058
950.668
951.154
951.513
951.74
951.829
951.813
951.663
951.398
951.023
950.534
949.934
949.226
948.41
947.487
946.458
945.325
944.09
942.755
941.322
939.793
938.17
936.455
934.649
932.757
930.78
928.725
926.596
924.396
922.128
919.794
917.397
914.941
912.429
909.864
907.25
904.589
901.887
899.148
896.376
893.575
890.748
887.899
885.033
882.155
879.277
876.415
873.584
870.804
868.113
865.556
863.248
861.242
860.062
860.217
863.464
11463.6
2217.42
1484.8
1209.23
968.948
757.385
584.663
461.303
380.739
328.892
296.224
274.715
260.198
250.385
244.148
240.668
239.912
240.927
243.962
249.51
257.983
271.759
294.52
330.218
404.847
539.146
691.087
824.773
890.951
912.961
915.62
876.506
827.278
802.174
777.76
761.286
741.762
723.229
702.358
684.18
668.381
656.556
647.677
641.557
637.702
635.837
635.228
635.49
636.801
638.791
641.354
644.331
647.631
651.165
654.874
658.707
662.629
666.61
670.63
674.673
678.728
682.789
686.852
690.916
694.981
699.051
703.127
707.214
711.315
715.433
719.571
723.732
727.915
732.122
736.352
740.602
744.87
749.153
753.445
757.743
762.041
766.335
770.62
774.892
779.146
783.378
787.586
791.764
795.91
800.02
804.091
808.12
812.104
816.041
819.926
823.758
827.533
831.244
834.886
838.449
841.931
845.326
848.629
851.838
854.951
857.965
860.877
863.684
866.384
868.975
871.454
873.819
876.069
878.202
880.215
882.107
883.876
885.522
887.043
888.44
889.709
890.849
891.861
892.741
893.49
894.105
894.586
894.931
895.129
895.19
895.142
894.952
894.635
894.192
893.626
892.937
892.128
891.2
890.155
888.994
887.719
886.332
884.836
883.232
881.524
879.714
877.804
875.798
873.697
871.506
869.231
866.876
864.444
861.939
859.364
856.721
854.015
851.249
848.429
845.556
842.637
839.675
836.676
833.645
830.585
827.498
824.39
821.265
818.13
814.995
811.874
808.781
805.738
802.774
799.93
797.294
794.917
793.154
792.352
793.369
11463.6
3031.91
1785.31
1233.84
838.915
575.983
430.424
350.9
305.02
276.442
257.7
244.885
235.981
230.03
226.416
225.14
225.906
228.893
235.217
245.486
260.759
285.637
333.188
422.723
554.712
684.924
785.572
832.31
846.692
816.336
761.273
727.054
703.424
687.421
671.755
657.81
642.4
627.477
613.302
601.766
592.689
586.172
581.714
579.3
578.341
578.246
579.23
580.996
583.424
586.346
589.657
593.263
597.092
601.086
605.202
609.406
613.672
617.983
622.324
626.686
631.065
635.458
639.865
644.288
648.731
653.197
657.69
662.214
666.774
671.372
676.011
680.69
685.411
690.171
694.968
699.799
704.658
709.54
714.438
719.345
724.255
729.161
734.056
738.936
743.794
748.625
753.425
758.188
762.911
767.589
772.218
776.793
781.31
785.766
790.157
794.478
798.728
802.9
806.993
811.002
814.922
818.746
822.468
826.086
829.596
832.994
836.279
839.446
842.492
845.414
848.21
850.876
853.411
855.813
858.078
860.206
862.194
864.039
865.739
867.291
868.698
869.959
871.074
872.041
872.86
873.529
874.049
874.418
874.621
874.682
874.616
874.395
874.03
873.525
872.881
872.1
871.181
870.123
868.928
867.602
866.148
864.568
862.865
861.042
859.102
857.049
854.885
852.613
850.237
847.762
845.193
842.536
839.795
836.972
834.072
831.098
828.056
824.951
821.786
818.567
815.299
811.985
808.634
805.25
801.835
798.395
794.932
791.455
787.969
784.483
781.012
777.569
774.172
770.848
767.631
764.588
761.761
759.39
757.656
757.015
11464.6
3580.91
1803.34
1000.06
602.795
429.441
345.866
300.332
272.977
255.103
242.796
234.007
227.74
223.538
221.562
221.933
224.688
230.401
240.034
256.409
285.688
339.06
431.198
550.051
660.746
736.391
770.574
776.646
726.421
680.322
651.444
632.996
618.904
607.074
595.296
583.761
572.048
561.316
552.139
545.046
539.871
536.498
534.836
534.318
534.676
535.98
538.059
540.751
543.942
547.526
551.42
555.553
559.872
564.333
568.902
573.553
578.267
583.031
587.835
592.674
597.546
602.451
607.39
612.367
617.385
622.449
627.563
632.732
637.958
643.244
648.59
653.995
659.456
664.969
670.53
676.134
681.773
687.441
693.128
698.824
704.52
710.209
715.881
721.531
727.151
732.735
738.276
743.769
749.211
754.595
759.916
765.168
770.346
775.446
780.463
785.395
790.238
794.988
799.646
804.208
808.661
812.999
817.217
821.313
825.282
829.121
832.826
836.395
839.823
843.107
846.245
849.234
852.071
854.754
857.281
859.65
861.859
863.906
865.789
867.508
869.061
870.448
871.669
872.722
873.607
874.322
874.869
875.245
875.433
875.474
875.357
875.071
874.623
874.016
873.252
872.332
871.259
870.035
868.663
867.145
865.485
863.684
861.748
859.679
857.481
855.158
852.712
850.148
847.47
844.683
841.792
838.805
835.725
832.557
829.303
825.971
822.565
819.09
815.553
811.958
808.311
804.616
800.882
797.113
793.313
789.486
785.638
781.775
777.906
774.039
770.186
766.362
762.584
758.871
755.243
751.74
748.415
745.437
742.894
740.881
11474
3653.85
1469.23
730.596
472.254
364.532
311.332
281.157
262.123
248.939
239.17
232.092
227.299
224.703
224.222
226.248
231.54
241.804
260.126
292.737
351.196
437.888
537.842
628.268
684.382
709.041
704.784
658.031
618.659
593.931
578.185
566.583
556.653
547.395
538.186
529.2
520.722
513.398
507.553
503.296
500.582
499.319
499.016
499.616
501.081
503.292
506.128
509.481
513.26
517.387
521.794
526.429
531.246
536.211
541.295
546.479
551.746
557.086
562.491
567.957
573.483
579.069
584.717
590.432
596.215
602.071
608.001
614.01
620.099
626.27
632.52
638.842
645.233
651.684
658.188
664.735
671.318
677.935
684.567
691.203
697.832
704.444
711.03
717.581
724.091
730.55
736.951
743.286
749.544
755.721
761.821
767.837
773.766
779.6
785.335
790.968
796.493
801.907
807.205
812.379
817.423
822.331
827.1
831.725
836.203
840.529
844.7
848.713
852.562
856.246
859.759
863.101
866.267
869.257
872.067
874.695
877.14
879.399
881.471
883.354
885.049
886.554
887.869
888.993
889.927
890.67
891.223
891.577
891.727
891.715
891.514
891.126
890.556
889.807
888.88
887.779
886.506
885.064
883.455
881.684
879.753
877.666
875.428
873.042
870.513
867.846
865.043
862.11
859.052
855.872
852.58
849.18
845.679
842.081
838.391
834.615
830.761
826.835
822.842
818.787
814.676
810.517
806.315
802.077
797.807
793.51
789.192
784.862
780.528
776.197
771.883
767.598
763.359
759.182
755.092
751.127
747.317
743.784
740.568
737.487
11493
3202.31
1125.21
587.888
411.381
336.765
298.6
275.694
260.207
249.426
241.816
236.492
233.243
232.213
234.037
239.832
251.374
272.381
308.677
365.383
439.47
520.469
589.615
632.582
651.916
637.904
602.767
569.763
548.208
534.519
524.636
516.405
508.846
501.567
494.474
487.79
481.843
476.973
473.334
471.013
469.959
469.756
470.425
471.924
474.154
477.024
480.446
484.34
488.635
493.27
498.192
503.355
508.725
514.27
519.968
525.802
531.758
537.825
543.997
550.266
556.632
563.095
569.657
576.322
583.087
589.952
596.918
603.983
611.147
618.421
625.786
633.232
640.75
648.329
655.955
663.611
671.277
678.913
686.554
694.199
701.833
709.445
717.024
724.561
732.048
739.474
746.83
754.109
761.307
768.418
775.426
782.322
789.1
795.754
802.28
808.673
814.929
821.044
827.011
832.828
838.491
843.993
849.331
854.499
859.495
864.314
868.953
873.408
877.673
881.746
885.623
889.301
892.778
896.051
899.119
901.98
904.63
907.068
909.293
911.304
913.1
914.681
916.047
917.198
918.134
918.855
919.362
919.641
919.711
919.581
919.241
918.694
917.943
916.992
915.843
914.5
912.965
911.242
909.335
907.247
904.983
902.546
899.943
897.177
894.253
891.178
887.955
884.589
881.086
877.452
873.694
869.819
865.833
861.743
857.554
853.275
848.913
844.474
839.966
835.393
830.761
826.078
821.35
816.585
811.786
806.962
802.119
797.265
792.41
787.562
782.732
777.934
773.181
768.49
763.88
759.383
755.024
750.892
747.001
742.935
11510.7
2669.21
912.755
514.612
383.839
326.778
295.862
277.297
265.329
256.971
251.084
247.553
246.514
248.71
255.69
269.236
291.896
327.071
376.757
437.784
500.544
552.203
585.145
599.005
581.753
555.245
529.458
510.814
498.77
490.223
483.283
477.062
471.18
465.533
460.193
455.364
451.282
448.132
446.051
445.091
444.918
445.562
447.007
449.181
452.014
455.439
459.39
463.807
468.634
473.823
479.332
485.122
491.162
497.428
503.899
510.563
517.407
524.423
531.595
538.914
546.372
553.968
561.707
569.602
577.628
585.782
594.058
602.444
610.914
619.41
627.98
636.639
645.378
654.183
663.033
671.91
680.805
689.723
698.634
707.528
716.386
725.189
733.93
742.601
751.194
759.696
768.096
776.382
784.546
792.578
800.474
808.229
815.835
823.287
830.581
837.711
844.675
851.469
858.088
864.529
870.787
876.855
882.729
888.405
893.878
899.146
904.204
909.049
913.677
918.082
922.262
926.214
929.936
933.426
936.682
939.703
942.486
945.03
947.333
949.394
951.214
952.792
954.129
955.226
956.084
956.703
957.079
957.211
957.113
956.783
956.223
955.434
954.421
953.187
951.736
950.07
948.194
946.112
943.827
941.346
938.671
935.809
932.765
929.544
926.153
922.597
918.882
915.013
910.998
906.84
902.549
898.132
893.597
888.95
884.201
879.357
874.427
869.418
864.337
859.189
853.98
848.717
843.408
838.06
832.679
827.274
821.852
816.424
810.998
805.582
800.187
794.827
789.513
784.26
779.087
774.019
769.077
764.33
759.783
754.823
11523.4
2236.2
795.401
480.098
373.664
325.341
300.407
285.917
276.502
270.143
266.619
265.782
268.553
276.409
290.594
312.515
344.004
385.541
433.432
480.184
517.406
541.519
549.506
534.184
514.141
494.674
479.483
468.943
461.477
455.543
450.339
445.506
440.924
436.606
432.658
429.241
426.514
424.613
423.693
423.514
424.1
425.462
427.558
430.34
433.76
437.767
442.313
447.351
452.838
458.737
465.016
471.64
478.581
485.816
493.329
501.108
509.152
517.472
526.015
534.76
543.689
552.776
561.972
571.226
580.632
590.207
599.947
609.838
619.873
630.065
640.361
650.727
661.138
671.582
682.02
692.421
702.774
713.072
723.294
733.421
743.448
753.378
763.214
772.956
782.596
792.122
801.515
810.761
819.846
828.764
837.507
846.073
854.454
862.646
870.643
878.443
886.04
893.434
900.622
907.598
914.359
920.896
927.207
933.285
939.129
944.735
950.1
955.221
960.093
964.711
969.074
973.178
977.023
980.606
983.927
986.983
989.775
992.3
994.557
996.544
998.263
999.717
1000.9
1001.82
1002.48
1002.88
1003.01
1002.88
1002.5
1001.86
1000.96
999.824
998.44
996.817
994.958
992.868
990.55
988.01
985.252
982.282
979.105
975.727
972.154
968.392
964.448
960.329
956.041
951.592
946.987
942.233
937.338
932.309
927.155
921.886
916.512
911.043
905.486
899.848
894.138
888.359
882.519
876.623
870.679
864.696
858.681
852.644
846.596
840.546
834.502
828.473
822.469
816.502
810.583
804.726
798.95
793.277
787.722
782.341
777.148
771.353
11530.2
1970.87
740.32
466.32
372.038
331.023
310.709
299.284
292.322
288.834
288.052
290.893
298.647
311.979
331.418
357.583
389.941
425.264
458.175
484.857
501.655
504.831
493.481
478.509
464.225
452.467
443.673
437.18
432.052
427.628
423.583
419.789
416.234
412.974
410.113
407.774
406.073
405.207
405.036
405.602
406.931
409.014
411.829
415.351
419.54
424.353
429.749
435.689
442.139
449.076
456.502
464.368
472.634
481.282
490.296
499.653
509.298
519.118
529.22
539.606
550.26
561.162
572.31
583.719
595.34
607.157
619.158
631.308
643.582
655.979
668.414
680.818
693.138
705.317
717.333
729.181
740.86
752.372
763.724
774.926
785.975
796.88
807.658
818.322
828.872
839.286
849.539
859.608
869.473
879.123
888.555
897.767
906.756
915.518
924.045
932.336
940.387
948.197
955.764
963.086
970.155
976.967
983.517
989.799
995.813
1001.56
1007.03
1012.22
1017.14
1021.77
1026.12
1030.17
1033.94
1037.43
1040.62
1043.52
1046.13
1048.45
1050.47
1052.21
1053.65
1054.8
1055.66
1056.24
1056.53
1056.54
1056.28
1055.72
1054.89
1053.79
1052.42
1050.79
1048.9
1046.75
1044.35
1041.71
1038.83
1035.71
1032.36
1028.79
1025
1021
1016.79
1012.39
1007.8
1003.02
998.071
992.953
987.675
982.244
976.669
970.954
965.11
959.152
953.091
946.935
940.692
934.369
927.972
921.509
914.983
908.404
901.774
895.105
888.409
881.696
874.978
868.263
861.56
854.877
848.223
841.608
835.044
828.547
822.134
815.824
809.631
803.599
797.763
791.178
11533.4
1869.77
716.542
462.255
376.801
341.533
324.942
316.395
312.233
310.962
312.81
319.187
330.216
345.791
365.736
389.092
413.415
435.49
455.212
465.205
465.292
458.064
447.802
437.643
428.929
421.938
416.464
412.032
408.234
404.799
401.613
398.657
395.965
393.609
391.687
390.314
389.665
389.645
390.383
391.893
394.193
397.291
401.2
405.961
411.481
417.692
424.55
432.016
440.045
448.57
457.455
466.757
476.547
486.843
497.652
508.992
520.9
533.431
546.44
559.848
573.611
587.67
601.989
616.541
631.272
646.153
661.19
676.266
691.292
706.167
720.843
735.265
749.376
763.135
776.517
789.519
802.152
814.435
826.434
838.238
849.838
861.246
872.507
883.671
894.739
905.673
916.43
926.971
937.269
947.294
957.053
966.556
975.802
984.783
993.493
1001.93
1010.09
1017.97
1025.57
1032.89
1039.93
1046.68
1053.13
1059.29
1065.14
1070.7
1075.95
1080.91
1085.55
1089.89
1093.92
1097.63
1101.04
1104.13
1106.91
1109.38
1111.54
1113.39
1114.93
1116.15
1117.07
1117.68
1117.99
1117.98
1117.71
1117.12
1116.23
1115.05
1113.59
1111.84
1109.81
1107.51
1104.93
1102.1
1099
1095.65
1092.05
1088.21
1084.13
1079.82
1075.29
1070.55
1065.59
1060.43
1055.08
1049.54
1043.83
1037.95
1031.9
1025.71
1019.37
1012.89
1006.29
999.578
992.768
985.866
978.878
971.812
964.675
957.472
950.211
942.898
935.535
928.136
920.716
913.288
905.861
898.445
891.046
883.673
876.334
869.035
861.794
854.626
847.548
840.577
833.725
827.025
820.549
813.21
11534.2
1825.44
702.772
462.207
385.179
355.041
341.544
334.908
332.062
331.711
335.386
343.025
353.95
367.549
382.866
398.415
413.786
427.312
432.781
431.415
427.658
421.45
414.78
408.647
403.358
398.887
395.087
391.798
388.906
386.298
383.967
381.928
380.237
378.973
378.316
378.259
379.062
380.633
383.002
386.202
390.257
395.172
400.903
407.277
414.432
422.38
431.091
440.535
450.686
461.529
473.102
485.38
498.346
512.003
526.38
541.546
557.643
574.891
592.795
611.121
629.826
648.7
667.634
686.551
705.375
724.029
742.395
760.457
778.142
795.353
811.992
827.962
843.194
857.709
871.533
884.693
897.216
909.079
920.499
931.871
943.022
953.943
964.739
975.564
986.395
997.135
1007.7
1018.04
1028.11
1037.92
1047.46
1056.73
1065.71
1074.4
1082.79
1090.86
1098.62
1106.07
1113.21
1120.04
1126.56
1132.77
1138.65
1144.21
1149.44
1154.35
1158.94
1163.21
1167.15
1170.77
1174.05
1177.02
1179.65
1181.96
1183.95
1185.61
1186.94
1187.98
1188.68
1189.06
1189.1
1188.87
1188.31
1187.43
1186.26
1184.78
1183
1180.93
1178.57
1175.91
1172.98
1169.76
1166.28
1162.52
1158.51
1154.24
1149.73
1144.97
1139.98
1134.76
1129.31
1123.65
1117.78
1111.72
1105.46
1099.01
1092.4
1085.62
1078.68
1071.6
1064.39
1057.06
1049.63
1042.11
1034.49
1026.78
1018.99
1011.13
1003.2
995.202
987.155
979.063
970.925
962.758
954.582
946.407
938.241
930.092
921.967
913.873
905.82
897.809
889.865
882.004
874.243
866.595
859.071
851.693
844.575
836.52
11533.1
1783.44
693.669
466.48
395.355
367.709
355.099
348.784
346.192
345.861
349.194
355.295
363.212
372.51
382.808
393.941
401.218
403.333
403.077
401.03
397.888
393.999
390.073
386.439
383.201
380.381
377.983
376.024
374.567
373.638
373.179
373.114
373.531
374.5
376.077
378.232
380.799
384.156
388.44
393.724
400.061
407.508
416.153
426.211
437.618
450.015
463.314
477.482
492.511
508.409
525.208
542.905
561.475
580.874
601.098
622.255
644.639
668.076
691.712
715.269
738.581
761.643
784.388
806.737
828.61
849.942
870.668
890.736
910.085
928.639
946.303
962.933
978.4
992.878
1006.49
1019.3
1031.34
1042.66
1053.35
1063.54
1073.21
1082.51
1091.7
1101.29
1111.09
1120.84
1130.4
1139.69
1148.69
1157.43
1165.9
1174.08
1181.96
1189.52
1196.74
1203.62
1210.15
1216.36
1222.24
1227.8
1233.04
1237.94
1242.52
1246.75
1250.66
1254.23
1257.49
1260.42
1263.03
1265.32
1267.27
1268.9
1270.22
1271.2
1271.87
1272.22
1272.24
1272
1271.43
1270.52
1269.31
1267.8
1265.98
1263.87
1261.47
1258.77
1255.79
1252.52
1248.98
1245.15
1241.05
1236.68
1232.05
1227.17
1222.03
1216.66
1211.05
1205.2
1199.13
1192.85
1186.35
1179.64
1172.74
1165.65
1158.37
1150.92
1143.31
1135.54
1127.63
1119.58
1111.41
1103.14
1094.79
1086.34
1077.81
1069.2
1060.5
1051.74
1042.91
1034.03
1025.11
1016.15
1007.18
998.207
989.24
980.281
971.337
962.416
953.525
944.674
935.871
927.119
918.448
909.873
901.408
893.065
884.853
876.786
869.02
860.281
11528.9
1752.08
687.728
468.979
400.373
373.285
360.156
352.449
348.963
348.126
350.364
355.158
361.417
368.168
374.233
377.127
378.215
378.782
378.81
378.092
377.082
376.11
375.331
374.656
374.195
374.012
374.102
374.523
375.157
376.034
377.546
379.819
382.823
386.622
391.322
397.014
403.896
411.956
421.279
431.943
444.022
457.611
472.894
490.113
508.977
528.91
549.915
571.942
594.945
618.883
643.742
669.572
696.346
723.751
751.563
779.535
807.264
834.193
860.561
886.43
911.704
936.283
960.08
983.018
1005.05
1026.15
1046.28
1065.44
1083.63
1100.83
1117.05
1132.3
1146.5
1159.72
1172.15
1183.83
1194.82
1205.12
1214.72
1223.38
1231.38
1239.04
1246.63
1254.56
1262.43
1270.07
1277.39
1284.39
1291.05
1297.4
1303.47
1309.24
1314.72
1319.87
1324.71
1329.21
1333.4
1337.28
1340.88
1344.18
1347.2
1349.91
1352.34
1354.46
1356.27
1357.8
1359.05
1360.02
1360.71
1361.11
1361.2
1361.04
1360.6
1359.84
1358.82
1357.52
1355.94
1354.1
1351.98
1349.58
1346.89
1343.94
1340.72
1337.24
1333.51
1329.51
1325.25
1320.75
1315.99
1310.98
1305.72
1300.22
1294.49
1288.53
1282.35
1275.95
1269.33
1262.5
1255.47
1248.24
1240.82
1233.21
1225.42
1217.45
1209.32
1201.02
1192.57
1183.98
1175.25
1166.39
1157.41
1148.31
1139.12
1129.82
1120.44
1110.98
1101.43
1091.82
1082.15
1072.43
1062.66
1052.87
1043.07
1033.29
1023.51
1013.75
1004
994.281
984.598
974.964
965.393
955.916
946.537
937.265
928.111
919.088
910.203
901.468
893.07
883.713
11523.8
1728.56
684.343
468.106
400.399
372.636
358.492
350.167
346.355
345.303
346.548
349.413
352.444
355.564
358.6
361.883
364.912
367.856
370.591
373.043
375.254
376.998
378.362
379.947
381.928
384.416
387.495
391.282
395.931
401.639
408.557
416.898
426.439
437.278
449.589
463.494
479.135
496.519
515.703
536.723
559.589
584.291
610.758
638.652
667.62
697.949
729.607
762.298
795.749
829.706
863.969
898.604
932.894
966.561
999.363
1031.06
1061.36
1090.01
1116.97
1142.29
1165.96
1188.01
1208.49
1227.46
1245
1261.17
1276.06
1289.73
1302.27
1313.76
1324.29
1334.09
1343.49
1352.44
1360.85
1368.62
1375.76
1382.02
1387.78
1393.15
1398.29
1403.62
1409.11
1414.05
1418.44
1422.38
1425.96
1429.25
1432.28
1435.07
1437.64