/*--------------------------------*- C++ -*----------------------------------*\
| =========                 |                                                 |
| \\      /  F ield         | OpenFOAM: The Open Source CFD Toolbox           |
|  \\    /   O peration     | Version:  2112                                  |
|   \\  /    A nd           | Website:  www.openfoam.com                      |
|    \\/     M anipulation  |                                                 |
\*---------------------------------------------------------------------------*/
FoamFile
{
    version     2.0;
    format      ascii;
    arch        "LSB;label=32;scalar=64";
    class       surfaceScalarField;
    location    "0.28";
    object      phi;
}
// * * * * * * * * * * * * * * * * * * * * * * * * * * * * * * * * * * * * * //

dimensions      [0 3 -1 0 0 0 0];

oriented        oriented;

internalField   nonuniform List<scalar> 
24170
(
3.04172e-06
1.46686e-07
2.8699e-06
1.71824e-07
2.70949e-06
1.60406e-07
2.56875e-06
1.40739e-07
2.45558e-06
1.13168e-07
2.37301e-06
8.25718e-08
2.31752e-06
5.54913e-08
2.28227e-06
3.52489e-08
2.2588e-06
2.34726e-08
2.24106e-06
1.77394e-08
2.22592e-06
1.5139e-08
2.21248e-06
1.34366e-08
2.20089e-06
1.15952e-08
2.19109e-06
9.79544e-09
2.18249e-06
8.6084e-09
2.17066e-06
1.18262e-08
2.1434e-06
2.72547e-08
5.68972e-08
2.08651e-06
3.48303e-06
8.09073e-08
3.52183e-06
1.33026e-07
3.53369e-06
1.48537e-07
3.51606e-06
1.58369e-07
3.46978e-06
1.59449e-07
3.40004e-06
1.52313e-07
3.31445e-06
1.41083e-07
3.22107e-06
1.28627e-07
3.12786e-06
1.16688e-07
3.04086e-06
1.0473e-07
2.96376e-06
9.22434e-08
2.89794e-06
7.92596e-08
2.84317e-06
6.63624e-08
2.7981e-06
5.48639e-08
2.7611e-06
4.56074e-08
2.72992e-06
4.30062e-08
2.71069e-06
4.64883e-08
7.1664e-08
2.69592e-06
3.68098e-06
6.24488e-08
3.70059e-06
1.1341e-07
3.7189e-06
1.30226e-07
3.7364e-06
1.40868e-07
3.74942e-06
1.46429e-07
3.75506e-06
1.46677e-07
3.75174e-06
1.44407e-07
3.73856e-06
1.41799e-07
3.71562e-06
1.3963e-07
3.68329e-06
1.37064e-07
3.64232e-06
1.33213e-07
3.59383e-06
1.27747e-07
3.53937e-06
1.20829e-07
3.48101e-06
1.13223e-07
3.4211e-06
1.05518e-07
3.3633e-06
1.00797e-07
3.31229e-06
9.75033e-08
1.03978e-07
3.27998e-06
3.93591e-06
5.19226e-08
3.94828e-06
1.01041e-07
3.9586e-06
1.19907e-07
3.96904e-06
1.30435e-07
3.9792e-06
1.36269e-07
3.9883e-06
1.37572e-07
3.99616e-06
1.36544e-07
4.00272e-06
1.35246e-07
4.0079e-06
1.34448e-07
4.01124e-06
1.33718e-07
4.012e-06
1.32462e-07
4.00927e-06
1.30468e-07
4.00221e-06
1.27895e-07
3.99014e-06
1.25291e-07
3.97254e-06
1.23116e-07
3.95061e-06
1.22733e-07
3.92481e-06
1.233e-07
1.24695e-07
3.90409e-06
4.21521e-06
4.38443e-08
4.22561e-06
9.06355e-08
4.23451e-06
1.11003e-07
4.24291e-06
1.22043e-07
4.25095e-06
1.28224e-07
4.25826e-06
1.30266e-07
4.26487e-06
1.29933e-07
4.2711e-06
1.29018e-07
4.27728e-06
1.28267e-07
4.2835e-06
1.27491e-07
4.28966e-06
1.26305e-07
4.29552e-06
1.24608e-07
4.30082e-06
1.22601e-07
4.30538e-06
1.20728e-07
4.30912e-06
1.19375e-07
4.31275e-06
1.19107e-07
4.31668e-06
1.1937e-07
1.18491e-07
4.32288e-06
4.51577e-06
3.71613e-08
4.52522e-06
8.11869e-08
4.53382e-06
1.02405e-07
4.54181e-06
1.14046e-07
4.54942e-06
1.2062e-07
4.5564e-06
1.23278e-07
4.56279e-06
1.2355e-07
4.56882e-06
1.22987e-07
4.57479e-06
1.22292e-07
4.58085e-06
1.21434e-07
4.58697e-06
1.2018e-07
4.5931e-06
1.1848e-07
4.59919e-06
1.16511e-07
4.60533e-06
1.14591e-07
4.61174e-06
1.12961e-07
4.61908e-06
1.11768e-07
4.628e-06
1.10447e-07
1.07714e-07
4.63878e-06
4.83845e-06
3.14292e-08
4.84725e-06
7.23848e-08
4.85575e-06
9.39102e-08
4.86374e-06
1.06051e-07
4.87135e-06
1.13011e-07
4.87844e-06
1.16188e-07
4.88502e-06
1.16972e-07
4.89128e-06
1.1673e-07
4.89746e-06
1.1611e-07
4.9037e-06
1.15194e-07
4.91001e-06
1.1387e-07
4.91636e-06
1.1213e-07
4.92276e-06
1.10113e-07
4.92932e-06
1.08031e-07
4.93627e-06
1.06009e-07
4.94404e-06
1.03994e-07
4.95304e-06
1.01453e-07
9.74194e-08
4.96333e-06
5.18448e-06
2.65292e-08
5.19284e-06
6.40305e-08
5.20132e-06
8.54279e-08
5.20944e-06
9.7926e-08
5.21722e-06
1.05233e-07
5.22457e-06
1.08841e-07
5.23149e-06
1.10053e-07
5.23813e-06
1.10091e-07
5.24468e-06
1.09552e-07
5.25128e-06
1.08597e-07
5.25794e-06
1.07209e-07
5.26466e-06
1.05409e-07
5.27147e-06
1.03302e-07
5.27848e-06
1.01022e-07
5.28587e-06
9.86161e-08
5.29391e-06
9.59591e-08
5.30276e-06
9.26015e-08
8.78766e-08
5.3123e-06
5.55549e-06
2.23784e-08
5.56333e-06
5.6189e-08
5.57185e-06
7.69063e-08
5.58024e-06
8.95369e-08
5.58832e-06
9.7157e-08
5.59602e-06
1.01141e-07
5.60334e-06
1.02727e-07
5.61043e-06
1.03004e-07
5.61744e-06
1.02544e-07
5.62447e-06
1.01568e-07
5.63155e-06
1.00126e-07
5.6387e-06
9.82581e-08
5.64596e-06
9.6044e-08
5.65342e-06
9.35647e-08
5.6612e-06
9.08271e-08
5.66946e-06
8.77026e-08
5.67821e-06
8.38518e-08
7.88558e-08
5.68723e-06
5.95329e-06
1.88603e-08
5.96046e-06
4.9019e-08
5.96886e-06
6.85103e-08
5.97754e-06
8.08582e-08
5.9861e-06
8.85938e-08
5.99431e-06
9.29304e-08
6.00213e-06
9.49121e-08
6.00972e-06
9.54146e-08
6.01722e-06
9.50393e-08
6.02473e-06
9.40642e-08
6.03227e-06
9.25837e-08
6.03987e-06
9.06533e-08
6.04758e-06
8.83355e-08
6.05547e-06
8.56804e-08
6.06361e-06
8.26792e-08
6.07209e-06
7.92301e-08
6.08083e-06
7.51126e-08
7.00877e-08
6.08959e-06
6.37978e-06
1.58879e-08
6.38626e-06
4.25469e-08
6.39433e-06
6.04404e-08
6.40309e-06
7.20901e-08
6.41206e-06
7.96265e-08
6.42087e-06
8.41216e-08
6.42936e-06
8.64181e-08
6.43759e-06
8.7188e-08
6.44567e-06
8.69613e-08
6.4537e-06
8.6034e-08
6.46174e-06
8.45471e-08
6.46981e-06
8.25819e-08
6.47794e-06
8.01981e-08
6.4862e-06
7.74282e-08
6.49462e-06
7.42549e-08
6.50325e-06
7.06015e-08
6.51202e-06
6.6339e-08
6.13707e-08
6.52074e-06
5.74299e-06
1.37313e-08
5.74796e-06
3.75765e-08
5.75448e-06
5.39211e-08
5.76181e-06
6.47562e-08
5.76952e-06
7.1919e-08
5.77729e-06
7.63523e-08
5.78495e-06
7.87643e-08
5.79242e-06
7.97119e-08
5.79976e-06
7.96255e-08
5.80702e-06
7.87758e-08
5.81424e-06
7.73209e-08
5.82146e-06
7.53603e-08
5.8287e-06
7.29595e-08
5.83598e-06
7.01482e-08
5.84332e-06
6.69116e-08
5.85073e-06
6.31957e-08
5.85815e-06
5.89243e-08
5.40793e-08
5.86544e-06
7.00027e-06
1.16196e-08
7.00554e-06
3.23059e-08
7.01264e-06
4.68234e-08
7.02086e-06
5.65349e-08
7.02971e-06
6.30681e-08
7.03882e-06
6.72418e-08
7.04796e-06
6.96205e-08
7.05702e-06
7.06522e-08
7.06597e-06
7.06755e-08
7.07483e-06
6.99181e-08
7.08362e-06
6.8529e-08
7.09237e-06
6.66116e-08
7.10109e-06
6.42357e-08
7.10981e-06
6.14357e-08
7.11851e-06
5.82101e-08
7.12717e-06
5.45344e-08
7.13571e-06
5.03793e-08
4.5777e-08
7.14402e-06
8.53295e-06
9.51233e-09
8.53853e-06
2.67312e-08
8.54615e-06
3.9206e-08
8.5552e-06
4.74768e-08
8.56519e-06
5.30837e-08
8.57567e-06
5.67642e-08
8.58636e-06
5.89262e-08
8.59712e-06
5.98973e-08
8.60785e-06
5.99389e-08
8.61853e-06
5.92369e-08
8.62914e-06
5.7919e-08
8.63968e-06
5.60776e-08
8.65013e-06
5.37786e-08
8.66051e-06
5.10615e-08
8.67078e-06
4.79431e-08
8.68088e-06
4.44295e-08
8.69073e-06
4.05314e-08
3.63107e-08
8.70019e-06
1.04014e-05
7.36091e-09
1.04073e-05
2.0826e-08
1.04155e-05
3.09521e-08
1.04254e-05
3.7588e-08
1.04365e-05
4.19958e-08
1.04484e-05
4.49096e-08
1.04607e-05
4.66313e-08
1.04732e-05
4.73731e-08
1.04858e-05
4.73139e-08
1.04984e-05
4.65949e-08
1.0511e-05
4.53199e-08
1.05236e-05
4.3566e-08
1.05359e-05
4.1391e-08
1.05482e-05
3.88368e-08
1.05602e-05
3.59339e-08
1.05719e-05
3.27114e-08
1.05832e-05
2.92062e-08
2.5492e-08
1.0594e-05
1.2679e-05
5.1166e-09
1.26853e-05
1.45284e-08
1.26944e-05
2.18498e-08
1.27053e-05
2.67299e-08
1.27176e-05
2.97061e-08
1.27309e-05
3.15863e-08
1.27449e-05
3.2645e-08
1.27593e-05
3.2986e-08
1.27739e-05
3.2704e-08
1.27886e-05
3.18904e-08
1.28033e-05
3.06211e-08
1.28179e-05
2.89565e-08
1.28323e-05
2.69457e-08
1.28466e-05
2.46297e-08
1.28604e-05
2.20456e-08
1.28739e-05
1.92336e-08
1.28869e-05
1.624e-08
1.31355e-08
1.28992e-05
1.54556e-05
2.72418e-09
1.54623e-05
7.75926e-09
1.54725e-05
1.17387e-08
1.54848e-05
1.44156e-08
1.54987e-05
1.5806e-08
1.55137e-05
1.65219e-08
1.55296e-05
1.67508e-08
1.55461e-05
1.654e-08
1.55628e-05
1.59266e-08
1.55798e-05
1.49551e-08
1.55967e-05
1.36691e-08
1.56136e-05
1.21084e-08
1.56302e-05
1.03098e-08
1.56465e-05
8.30842e-09
1.56624e-05
6.13981e-09
1.56778e-05
3.84252e-09
1.56926e-05
1.45957e-09
-9.52953e-10
1.57067e-05
1.88403e-05
6.96765e-11
1.88478e-05
2.21292e-10
1.88593e-05
2.66877e-10
1.88736e-05
1.18634e-10
1.88897e-05
-3.03539e-10
1.89071e-05
-8.83714e-10
1.89255e-05
-1.59973e-09
1.89445e-05
-2.45429e-09
1.89638e-05
-3.45407e-09
1.89834e-05
-4.59935e-09
1.90029e-05
-5.88279e-09
1.90223e-05
-7.2902e-09
1.90415e-05
-8.80233e-09
1.90602e-05
-1.03968e-08
1.90783e-05
-1.20486e-08
1.90959e-05
-1.37303e-08
1.91128e-05
-1.54116e-08
-1.70553e-08
1.91289e-05
2.29665e-05
-3.07666e-09
2.29755e-05
-8.75996e-09
2.29892e-05
-1.34331e-08
2.30063e-05
-1.70149e-08
2.30256e-05
-1.9606e-08
2.30464e-05
-2.16925e-08
2.30683e-05
-2.34687e-08
2.30908e-05
-2.50042e-08
2.31137e-05
-2.63624e-08
2.31367e-05
-2.76053e-08
2.31596e-05
-2.87786e-08
2.31823e-05
-2.99072e-08
2.32045e-05
-3.09981e-08
2.32261e-05
-3.20431e-08
2.32471e-05
-3.30339e-08
2.32673e-05
-3.39611e-08
2.32867e-05
-3.48141e-08
-3.55803e-08
2.33052e-05
1.68132e-05
-5.61206e-09
1.68204e-05
-1.58745e-08
1.6831e-05
-2.40748e-08
1.68441e-05
-3.00768e-08
1.68587e-05
-3.42666e-08
1.68745e-05
-3.745e-08
1.68909e-05
-3.99363e-08
1.69078e-05
-4.1844e-08
1.69247e-05
-4.33026e-08
1.69416e-05
-4.44435e-08
1.69582e-05
-4.53723e-08
1.69744e-05
-4.61622e-08
1.69903e-05
-4.68432e-08
1.70056e-05
-4.73965e-08
1.70204e-05
-4.78338e-08
1.70346e-05
-4.81657e-08
1.70482e-05
-4.83968e-08
-4.85294e-08
1.70611e-05
1.46372e-05
-8.20248e-09
1.46443e-05
-2.29859e-08
1.46545e-05
-3.43279e-08
1.46668e-05
-4.23088e-08
1.46804e-05
-4.79194e-08
1.4695e-05
-5.20435e-08
1.47101e-05
-5.50432e-08
1.47253e-05
-5.70769e-08
1.47404e-05
-5.83809e-08
1.47552e-05
-5.91897e-08
1.47695e-05
-5.96864e-08
1.47833e-05
-5.99947e-08
1.47966e-05
-6.01696e-08
1.48095e-05
-6.02117e-08
1.48218e-05
-6.01418e-08
1.48336e-05
-5.99728e-08
1.48449e-05
-5.97018e-08
-5.93229e-08
1.48557e-05
1.2743e-05
-1.10553e-08
1.27504e-05
-3.0444e-08
1.27607e-05
-4.45462e-08
1.27725e-05
-5.41502e-08
1.27855e-05
-6.09057e-08
1.27991e-05
-6.5658e-08
1.28128e-05
-6.87846e-08
1.28264e-05
-7.06017e-08
1.28395e-05
-7.14953e-08
1.28521e-05
-7.18117e-08
1.28642e-05
-7.17854e-08
1.28758e-05
-7.15528e-08
1.28868e-05
-7.12054e-08
1.28974e-05
-7.08158e-08
1.29076e-05
-7.0364e-08
1.29175e-05
-6.98178e-08
1.29269e-05
-6.91577e-08
-6.83714e-08
1.2936e-05
1.10943e-05
-1.44159e-08
1.11023e-05
-3.84982e-08
1.11127e-05
-5.48741e-08
1.11242e-05
-6.5662e-08
1.11364e-05
-7.3116e-08
1.11488e-05
-7.80584e-08
1.11609e-05
-8.09047e-08
1.11726e-05
-8.22671e-08
1.11837e-05
-8.26617e-08
1.11944e-05
-8.24788e-08
1.12046e-05
-8.19851e-08
1.12144e-05
-8.13366e-08
1.12238e-05
-8.06198e-08
1.12329e-05
-7.9891e-08
1.12416e-05
-7.91218e-08
1.12501e-05
-7.82654e-08
1.12582e-05
-7.72849e-08
-7.6152e-08
1.1266e-05
9.65942e-06
-1.86171e-08
9.6681e-06
-4.71871e-08
9.67837e-06
-6.51396e-08
9.68927e-06
-7.65635e-08
9.7005e-06
-8.43474e-08
9.71172e-06
-8.92784e-08
9.7226e-06
-9.17786e-08
9.73293e-06
-9.25973e-08
9.74266e-06
-9.23959e-08
9.75184e-06
-9.16554e-08
9.76054e-06
-9.06841e-08
9.76885e-06
-8.96526e-08
9.77687e-06
-8.86407e-08
9.78465e-06
-8.76666e-08
9.79221e-06
-8.6681e-08
9.79955e-06
-8.5611e-08
9.80667e-06
-8.44024e-08
-8.30195e-08
9.81354e-06
8.41058e-06
-2.38457e-08
8.42001e-06
-5.66168e-08
8.43008e-06
-7.52131e-08
8.44032e-06
-8.67998e-08
8.45077e-06
-9.48013e-08
8.46116e-06
-9.96688e-08
8.47116e-06
-1.01769e-07
8.48053e-06
-1.01972e-07
8.48923e-06
-1.01098e-07
8.49731e-06
-9.97341e-08
8.50487e-06
-9.82467e-08
8.51204e-06
-9.68216e-08
8.51894e-06
-9.55345e-08
8.52565e-06
-9.43773e-08
8.53223e-06
-9.32606e-08
8.53868e-06
-9.2068e-08
8.54498e-06
-9.07021e-08
-8.90277e-08
8.55099e-06
7.32379e-06
-3.03535e-08
7.33421e-06
-6.70344e-08
7.3442e-06
-8.52077e-08
7.35402e-06
-9.66183e-08
7.3641e-06
-1.04883e-07
7.37413e-06
-1.09693e-07
7.3837e-06
-1.11345e-07
7.39262e-06
-1.10886e-07
7.40081e-06
-1.09285e-07
7.40831e-06
-1.07236e-07
7.41526e-06
-1.05195e-07
7.42181e-06
-1.03374e-07
7.42813e-06
-1.01856e-07
7.43434e-06
-1.00592e-07
7.44051e-06
-9.9429e-08
7.44664e-06
-9.81981e-08
7.45273e-06
-9.67913e-08
-9.52088e-08
7.45891e-06
6.3786e-06
-3.88872e-08
6.39074e-06
-7.91779e-08
6.40134e-06
-9.57996e-08
6.4119e-06
-1.07181e-07
6.42296e-06
-1.15946e-07
6.43403e-06
-1.20764e-07
6.44468e-06
-1.21994e-07
6.45464e-06
-1.20842e-07
6.46373e-06
-1.18377e-07
6.47191e-06
-1.15413e-07
6.47924e-06
-1.12526e-07
6.48584e-06
-1.09973e-07
6.4919e-06
-1.07921e-07
6.49755e-06
-1.06239e-07
6.50278e-06
-1.04662e-07
6.50756e-06
-1.02971e-07
6.51171e-06
-1.00942e-07
-9.81569e-08
6.51465e-06
5.55994e-06
-5.33623e-08
5.57774e-06
-9.69744e-08
5.59403e-06
-1.12098e-07
5.61164e-06
-1.24783e-07
5.6299e-06
-1.34206e-07
5.64738e-06
-1.38251e-07
5.66284e-06
-1.37452e-07
5.67518e-06
-1.33178e-07
5.68356e-06
-1.26763e-07
5.68756e-06
-1.19407e-07
5.687e-06
-1.11967e-07
5.68172e-06
-1.04696e-07
5.67195e-06
-9.81505e-08
5.6579e-06
-9.21885e-08
5.63979e-06
-8.65537e-08
5.61788e-06
-8.10633e-08
5.59267e-06
-7.57263e-08
-7.0586e-08
5.5651e-06
4.88478e-06
-1.10537e-07
4.9312e-06
-1.4339e-07
4.96631e-06
-1.47208e-07
4.9877e-06
-1.46176e-07
4.99267e-06
-1.39175e-07
4.98054e-06
-1.26122e-07
4.95196e-06
-1.08868e-07
4.9084e-06
-8.96187e-08
4.85201e-06
-7.03771e-08
4.78549e-06
-5.28877e-08
4.71191e-06
-3.83816e-08
4.63393e-06
-2.67176e-08
4.55443e-06
-1.86559e-08
4.47588e-06
-1.36332e-08
4.40024e-06
-1.09132e-08
4.32898e-06
-9.8032e-09
4.26297e-06
-9.72274e-09
-9.66909e-09
4.20206e-06
4.09214e-06
3.94875e-06
3.80154e-06
3.65537e-06
3.51619e-06
3.39007e-06
3.2812e-06
3.19158e-06
3.1212e-06
3.06832e-06
3.02993e-06
3.00322e-06
2.98456e-06
2.97093e-06
2.96001e-06
2.95021e-06
2.94049e-06
2.93082e-06
-9.31708e-09
9.31708e-09
-2.04718e-08
1.11548e-08
-3.27392e-08
1.22673e-08
-4.59804e-08
1.32412e-08
-6.00902e-08
1.41098e-08
-7.49797e-08
1.48895e-08
-9.0585e-08
1.56053e-08
-1.06889e-07
1.63043e-08
-1.23964e-07
1.7075e-08
-1.42046e-07
1.80817e-08
-1.613e-07
1.92543e-08
-1.81521e-07
2.02208e-08
-2.02374e-07
2.08526e-08
-2.23683e-07
2.13093e-08
-2.45391e-07
2.1708e-08
-2.67487e-07
2.20958e-08
-2.89975e-07
2.24884e-08
-3.12869e-07
2.28934e-08
-3.36184e-07
2.33158e-08
-3.59943e-07
2.37586e-08
-3.84166e-07
2.42227e-08
-4.08873e-07
2.47074e-08
-4.34084e-07
2.52112e-08
-4.59816e-07
2.57321e-08
-4.86084e-07
2.62681e-08
-5.12901e-07
2.6817e-08
-5.40278e-07
2.73767e-08
-5.68223e-07
2.79453e-08
-5.96744e-07
2.85207e-08
-6.25845e-07
2.9101e-08
-6.55529e-07
2.96841e-08
-6.85797e-07
3.02681e-08
-7.16648e-07
3.08508e-08
-7.48078e-07
3.14299e-08
-7.80081e-07
3.2003e-08
-8.12649e-07
3.25678e-08
-8.4577e-07
3.31216e-08
-8.79432e-07
3.36616e-08
-9.13617e-07
3.41851e-08
-9.48306e-07
3.46891e-08
-9.83477e-07
3.51705e-08
-1.0191e-06
3.56262e-08
-1.05516e-06
3.6053e-08
-1.0916e-06
3.64477e-08
-1.12841e-06
3.68069e-08
-1.16554e-06
3.71274e-08
-1.20294e-06
3.7406e-08
-1.24058e-06
3.76395e-08
-1.27841e-06
3.78248e-08
-1.31637e-06
3.79589e-08
-1.35441e-06
3.80391e-08
-1.39247e-06
3.80627e-08
-1.4305e-06
3.80274e-08
-1.46843e-06
3.79312e-08
-1.5062e-06
3.77723e-08
-1.54375e-06
3.75496e-08
-1.58101e-06
3.72621e-08
-1.61792e-06
3.69095e-08
-1.65441e-06
3.64919e-08
-1.69042e-06
3.60099e-08
-1.72589e-06
3.54648e-08
-1.76075e-06
3.48584e-08
-1.79494e-06
3.4193e-08
-1.82841e-06
3.34714e-08
-1.86111e-06
3.26967e-08
-1.89298e-06
3.18726e-08
-1.92398e-06
3.10029e-08
-1.95407e-06
3.00914e-08
-1.98322e-06
2.91421e-08
-2.01137e-06
2.81589e-08
-2.03852e-06
2.71455e-08
-2.06463e-06
2.61052e-08
-2.08967e-06
2.5041e-08
-2.11362e-06
2.39556e-08
-2.13647e-06
2.28513e-08
-2.1582e-06
2.17301e-08
-2.1788e-06
2.05934e-08
-2.19824e-06
1.94428e-08
-2.21652e-06
1.82791e-08
-2.23362e-06
1.71032e-08
-2.24954e-06
1.59156e-08
-2.26425e-06
1.47166e-08
-2.27776e-06
1.3506e-08
-2.29004e-06
1.22832e-08
-2.30109e-06
1.10473e-08
-2.31089e-06
9.79618e-09
-2.31941e-06
8.52735e-09
-2.32665e-06
7.23696e-09
-2.33257e-06
5.91978e-09
-2.33714e-06
4.56883e-09
-2.34032e-06
3.17551e-09
-2.34204e-06
1.72209e-09
-2.34214e-06
1.00207e-10
-2.3408e-06
-1.33607e-09
-2.33806e-06
-2.73908e-09
-2.33394e-06
-4.11971e-09
-2.32844e-06
-5.50093e-09
-2.32155e-06
-6.89269e-09
-2.31325e-06
-8.29801e-09
-2.30353e-06
-9.7177e-09
-2.29238e-06
-1.11514e-08
-2.27978e-06
-1.25983e-08
-2.26573e-06
-1.40571e-08
-2.2502e-06
-1.55267e-08
-2.23319e-06
-1.70057e-08
-2.2147e-06
-1.84929e-08
-2.19471e-06
-1.99874e-08
-2.17323e-06
-2.14885e-08
-2.15023e-06
-2.29955e-08
-2.12572e-06
-2.45079e-08
-2.0997e-06
-2.60251e-08
-2.07215e-06
-2.75463e-08
-2.04308e-06
-2.90704e-08
-2.01248e-06
-3.05965e-08
-1.98036e-06
-3.2123e-08
-1.94671e-06
-3.36484e-08
-1.91154e-06
-3.51708e-08
-1.87485e-06
-3.66883e-08
-1.83666e-06
-3.81984e-08
-1.79696e-06
-3.96986e-08
-1.75577e-06
-4.11859e-08
-1.71311e-06
-4.26572e-08
-1.669e-06
-4.41088e-08
-1.62347e-06
-4.55369e-08
-1.57653e-06
-4.69374e-08
-1.52822e-06
-4.83058e-08
-1.47859e-06
-4.96377e-08
-1.42766e-06
-5.09281e-08
-1.37549e-06
-5.2172e-08
-1.32212e-06
-5.33642e-08
-1.26762e-06
-5.44993e-08
-1.21205e-06
-5.55722e-08
-1.15547e-06
-5.65782e-08
-1.09796e-06
-5.75135e-08
-1.03958e-06
-5.83753e-08
-9.80422e-07
-5.9162e-08
-9.20548e-07
-5.98737e-08
-8.60035e-07
-6.05132e-08
-7.98949e-07
-6.10865e-08
-7.37345e-07
-6.16035e-08
-6.75268e-07
-6.20767e-08
-6.12747e-07
-6.25208e-08
-5.49798e-07
-6.29494e-08
-4.86432e-07
-6.33666e-08
-4.22686e-07
-6.37453e-08
-3.58709e-07
-6.39772e-08
-2.94939e-07
-6.37696e-08
-2.3267e-07
-6.22695e-08
-1.75485e-07
-5.71848e-08
-1.23533e-07
-5.19525e-08
-7.26202e-08
-5.09123e-08
-2.11201e-08
-5.15001e-08
3.00408e-08
-5.11609e-08
7.97245e-08
-4.96837e-08
1.26842e-07
-4.71173e-08
1.75341e-07
-4.84989e-08
2.27641e-07
-5.22999e-08
2.80661e-07
-5.30203e-08
3.33348e-07
-5.26866e-08
3.85266e-07
-5.19187e-08
4.36245e-07
-5.09792e-08
4.86244e-07
-4.99986e-08
5.3527e-07
-4.90258e-08
5.83349e-07
-4.8079e-08
6.30512e-07
-4.71629e-08
6.76786e-07
-4.62742e-08
7.22195e-07
-4.54092e-08
7.6676e-07
-4.45652e-08
8.10501e-07
-4.37409e-08
8.53436e-07
-4.29343e-08
8.95576e-07
-4.214e-08
9.36919e-07
-4.13431e-08
9.77432e-07
-4.05131e-08
1.01703e-06
-3.95977e-08
1.05553e-06
-3.85052e-08
1.09258e-06
-3.70457e-08
1.12729e-06
-3.4713e-08
1.15708e-06
-2.97883e-08
1.17184e-06
-1.47593e-08
3.03553e-08
1.14149e-06
-1.19057e-08
2.12228e-08
-2.43543e-08
2.36033e-08
-3.79546e-08
2.58676e-08
-5.25209e-08
2.78075e-08
-6.79779e-08
2.95668e-08
-8.4308e-08
3.12196e-08
-1.01505e-07
3.28027e-08
-1.19556e-07
3.43554e-08
-1.38411e-07
3.5929e-08
-1.57901e-07
3.75717e-08
-1.77909e-07
3.92627e-08
-1.98552e-07
4.08637e-08
-2.19968e-07
4.22688e-08
-2.42151e-07
4.34921e-08
-2.65033e-07
4.459e-08
-2.8855e-07
4.56131e-08
-3.12659e-07
4.65976e-08
-3.37335e-07
4.7569e-08
-3.62564e-07
4.85451e-08
-3.88343e-07
4.95378e-08
-4.14675e-07
5.05543e-08
-4.41566e-07
5.15981e-08
-4.69024e-07
5.26698e-08
-4.97061e-07
5.37686e-08
-5.25685e-07
5.48921e-08
-5.54905e-07
5.60374e-08
-5.8473e-07
5.7201e-08
-6.15163e-07
5.8379e-08
-6.4621e-07
5.95676e-08
-6.77872e-07
6.07624e-08
-7.10147e-07
6.1959e-08
-7.43031e-07
6.31528e-08
-7.76519e-07
6.4339e-08
-8.10602e-07
6.55125e-08
-8.45267e-07
6.66681e-08
-8.80499e-07
6.78001e-08
-9.16281e-07
6.89027e-08
-9.52589e-07
6.99701e-08
-9.894e-07
7.09959e-08
-1.02668e-06
7.19738e-08
-1.06441e-06
7.28971e-08
-1.10254e-06
7.37594e-08
-1.14105e-06
7.45537e-08
-1.17987e-06
7.52734e-08
-1.21898e-06
7.59118e-08
-1.25831e-06
7.64621e-08
-1.29782e-06
7.69181e-08
-1.33746e-06
7.72734e-08
-1.37715e-06
7.75221e-08
-1.41685e-06
7.76587e-08
-1.45649e-06
7.76781e-08
-1.49601e-06
7.75758e-08
-1.53533e-06
7.73479e-08
-1.57439e-06
7.69913e-08
-1.61312e-06
7.65035e-08
-1.65145e-06
7.58831e-08
-1.68932e-06
7.51294e-08
-1.72665e-06
7.42431e-08
-1.76339e-06
7.32256e-08
-1.79946e-06
7.20796e-08
-1.8348e-06
7.08088e-08
-1.86936e-06
6.94178e-08
-1.90308e-06
6.79125e-08
-1.93591e-06
6.62993e-08
-1.96779e-06
6.45855e-08
-1.9987e-06
6.2779e-08
-2.02859e-06
6.08877e-08
-2.05741e-06
5.89201e-08
-2.08516e-06
5.6884e-08
-2.11179e-06
5.47874e-08
-2.13728e-06
5.26373e-08
-2.16161e-06
5.04404e-08
-2.18477e-06
4.82024e-08
-2.20675e-06
4.59282e-08
-2.22752e-06
4.36222e-08
-2.24707e-06
4.12878e-08
-2.26541e-06
3.89278e-08
-2.28251e-06
3.65445e-08
-2.29837e-06
3.41397e-08
-2.31298e-06
3.17147e-08
-2.32634e-06
2.92703e-08
-2.33843e-06
2.68067e-08
-2.34925e-06
2.43237e-08
-2.35878e-06
2.18202e-08
-2.36703e-06
1.92946e-08
-2.37398e-06
1.67444e-08
-2.37962e-06
1.41667e-08
-2.38394e-06
1.15578e-08
-2.38693e-06
8.91419e-09
-2.3886e-06
6.23355e-09
-2.38894e-06
3.51666e-09
-2.38799e-06
7.7251e-10
-2.38589e-06
-2.00188e-09
-2.38248e-06
-4.74247e-09
-2.37773e-06
-7.49221e-09
-2.37159e-06
-1.02603e-08
-2.36404e-06
-1.30516e-08
-2.35506e-06
-1.58692e-08
-2.34464e-06
-1.87142e-08
-2.33278e-06
-2.15859e-08
-2.31944e-06
-2.4483e-08
-2.30464e-06
-2.74034e-08
-2.28835e-06
-3.03447e-08
-2.27057e-06
-3.33041e-08
-2.2513e-06
-3.62788e-08
-2.23053e-06
-3.92663e-08
-2.20825e-06
-4.22644e-08
-2.18447e-06
-4.52713e-08
-2.15918e-06
-4.82858e-08
-2.13238e-06
-5.13064e-08
-2.10407e-06
-5.43317e-08
-2.07426e-06
-5.73599e-08
-2.04294e-06
-6.0389e-08
-2.01012e-06
-6.34164e-08
-1.9758e-06
-6.64391e-08
-1.94e-06
-6.94537e-08
-1.90271e-06
-7.24564e-08
-1.86396e-06
-7.54428e-08
-1.82375e-06
-7.84082e-08
-1.7821e-06
-8.13472e-08
-1.73903e-06
-8.42539e-08
-1.69457e-06
-8.71217e-08
-1.64873e-06
-8.99434e-08
-1.60156e-06
-9.27112e-08
-1.55308e-06
-9.54171e-08
-1.50333e-06
-9.80522e-08
-1.45236e-06
-1.00608e-07
-1.40022e-06
-1.03074e-07
-1.34695e-06
-1.05441e-07
-1.29261e-06
-1.07699e-07
-1.23727e-06
-1.09839e-07
-1.181e-06
-1.11849e-07
-1.12385e-06
-1.13722e-07
-1.06592e-06
-1.1545e-07
-1.00726e-06
-1.17028e-07
-9.47971e-07
-1.18454e-07
-8.88119e-07
-1.19726e-07
-8.27782e-07
-1.2085e-07
-7.67036e-07
-1.21833e-07
-7.05949e-07
-1.22691e-07
-6.44587e-07
-1.23438e-07
-5.83016e-07
-1.24092e-07
-5.21307e-07
-1.24658e-07
-4.59558e-07
-1.25116e-07
-3.97921e-07
-1.25382e-07
-3.36666e-07
-1.25232e-07
-2.76327e-07
-1.24109e-07
-2.17877e-07
-1.2072e-07
-1.61299e-07
-1.13762e-07
-1.05953e-07
-1.07299e-07
-5.18274e-08
-1.05038e-07
1.32608e-09
-1.04654e-07
5.37954e-08
-1.0363e-07
1.05605e-07
-1.01494e-07
1.5748e-07
-9.89921e-08
2.09544e-07
-1.00563e-07
2.62554e-07
-1.0531e-07
3.1648e-07
-1.06946e-07
3.70279e-07
-1.06486e-07
4.23533e-07
-1.05173e-07
4.7609e-07
-1.03536e-07
5.27885e-07
-1.01793e-07
5.78901e-07
-1.00043e-07
6.29152e-07
-9.833e-08
6.78658e-07
-9.66685e-08
7.27439e-07
-9.5055e-08
7.75513e-07
-9.34833e-08
8.22896e-07
-9.19481e-08
8.696e-07
-9.04458e-08
9.15636e-07
-8.89701e-08
9.61003e-07
-8.75072e-08
1.00568e-06
-8.60235e-08
1.04962e-06
-8.44527e-08
1.09271e-06
-8.26801e-08
1.1347e-06
-8.05009e-08
1.17516e-06
-7.75017e-08
1.21313e-06
-7.26834e-08
1.24668e-06
-6.33435e-08
1.27202e-06
-4.00928e-08
1.20536e-08
1.29032e-06
-1.30591e-08
3.42819e-08
-2.72469e-08
3.77911e-08
-4.21547e-08
4.07753e-08
-5.7824e-08
4.34769e-08
-7.42815e-08
4.60243e-08
-9.15452e-08
4.84832e-08
-1.09621e-07
5.0878e-08
-1.28491e-07
5.32263e-08
-1.48107e-07
5.5545e-08
-1.68377e-07
5.7841e-08
-1.89209e-07
6.0095e-08
-2.10603e-07
6.22575e-08
-2.32619e-07
6.4285e-08
-2.55297e-07
6.61698e-08
-2.78639e-07
6.79325e-08
-3.0263e-07
6.96043e-08
-3.2725e-07
7.12167e-08
-3.52477e-07
7.27967e-08
-3.78299e-07
7.43663e-08
-4.04703e-07
7.59423e-08
-4.31685e-07
7.75361e-08
-4.59241e-07
7.91548e-08
-4.87373e-07
8.08019e-08
-5.16083e-07
8.2478e-08
-5.45372e-07
8.41817e-08
-5.75245e-07
8.59098e-08
-6.05702e-07
8.7658e-08
-6.36744e-07
8.94212e-08
-6.6837e-07
9.11938e-08
-7.00577e-07
9.29693e-08
-7.33359e-07
9.4741e-08
-7.66708e-07
9.65018e-08
-8.00613e-07
9.82442e-08
-8.35061e-07
9.99602e-08
-8.70034e-07
1.01641e-07
-9.05514e-07
1.0328e-07
-9.41477e-07
1.04865e-07
-9.77897e-07
1.0639e-07
-1.01474e-06
1.07844e-07
-1.05199e-06
1.09217e-07
-1.08959e-06
1.105e-07
-1.12751e-06
1.11682e-07
-1.16571e-06
1.12755e-07
-1.20415e-06
1.13707e-07
-1.24276e-06
1.1453e-07
-1.28152e-06
1.15213e-07
-1.32035e-06
1.15748e-07
-1.3592e-06
1.16127e-07
-1.39802e-06
1.1634e-07
-1.43674e-06
1.1638e-07
-1.4753e-06
1.16242e-07
-1.51364e-06
1.15918e-07
-1.5517e-06
1.15405e-07
-1.58941e-06
1.14698e-07
-1.6267e-06
1.13795e-07
-1.66351e-06
1.12695e-07
-1.69978e-06
1.11398e-07
-1.73544e-06
1.09905e-07
-1.77044e-06
1.08221e-07
-1.80471e-06
1.0635e-07
-1.8382e-06
1.04298e-07
-1.87085e-06
1.02072e-07
-1.90262e-06
9.96833e-08
-1.93346e-06
9.71406e-08
-1.96333e-06
9.44557e-08
-1.99219e-06
9.16403e-08
-2.02001e-06
8.87068e-08
-2.04676e-06
8.56675e-08
-2.07241e-06
8.25345e-08
-2.09694e-06
7.93191e-08
-2.12034e-06
7.60319e-08
-2.14258e-06
7.26822e-08
-2.16365e-06
6.92782e-08
-2.18355e-06
6.58269e-08
-2.20226e-06
6.23339e-08
-2.21978e-06
5.88042e-08
-2.23609e-06
5.52414e-08
-2.2512e-06
5.16485e-08
-2.26509e-06
4.80279e-08
-2.27775e-06
4.43812e-08
-2.28919e-06
4.07096e-08
-2.2994e-06
3.70136e-08
-2.30837e-06
3.32929e-08
-2.3161e-06
2.95467e-08
-2.32257e-06
2.57733e-08
-2.3278e-06
2.19704e-08
-2.33177e-06
1.81354e-08
-2.33448e-06
1.4266e-08
-2.33592e-06
1.03604e-08
-2.33611e-06
6.41929e-09
-2.33504e-06
2.44539e-09
-2.33271e-06
-1.55416e-09
-2.32914e-06
-5.57337e-09
-2.32427e-06
-9.61259e-09
-2.31808e-06
-1.36848e-08
-2.31054e-06
-1.77948e-08
-2.30165e-06
-2.19445e-08
-2.29138e-06
-2.61343e-08
-2.27974e-06
-3.03633e-08
-2.26669e-06
-3.46298e-08
-2.25224e-06
-3.89311e-08
-2.23638e-06
-4.32643e-08
-2.2191e-06
-4.76253e-08
-2.2004e-06
-5.20101e-08
-2.18026e-06
-5.64142e-08
-2.15869e-06
-6.08337e-08
-2.13569e-06
-6.52652e-08
-2.11126e-06
-6.9706e-08
-2.08539e-06
-7.41539e-08
-2.05809e-06
-7.86069e-08
-2.02936e-06
-8.3063e-08
-1.9992e-06
-8.75193e-08
-1.96761e-06
-9.19727e-08
-1.93461e-06
-9.64194e-08
-1.9002e-06
-1.00855e-07
-1.86438e-06
-1.05274e-07
-1.82716e-06
-1.09671e-07
-1.78856e-06
-1.1404e-07
-1.7486e-06
-1.18373e-07
-1.70728e-06
-1.22663e-07
-1.66463e-06
-1.26901e-07
-1.62068e-06
-1.31078e-07
-1.57544e-06
-1.35182e-07
-1.52895e-06
-1.39204e-07
-1.48123e-06
-1.4313e-07
-1.43234e-06
-1.46949e-07
-1.3823e-06
-1.50648e-07
-1.33116e-06
-1.54213e-07
-1.27897e-06
-1.5763e-07
-1.22578e-06
-1.60886e-07
-1.17165e-06
-1.63966e-07
-1.11665e-06
-1.66858e-07
-1.06082e-06
-1.69547e-07
-1.00425e-06
-1.72026e-07
-9.46988e-07
-1.74285e-07
-8.89119e-07
-1.76322e-07
-8.3071e-07
-1.78136e-07
-7.7183e-07
-1.7973e-07
-7.12549e-07
-1.81114e-07
-6.52936e-07
-1.82303e-07
-5.93062e-07
-1.83312e-07
-5.33005e-07
-1.84149e-07
-4.7286e-07
-1.84804e-07
-4.12753e-07
-1.85223e-07
-3.52873e-07
-1.85261e-07
-2.93502e-07
-1.84604e-07
-2.35007e-07
-1.82604e-07
-1.77549e-07
-1.78178e-07
-1.20346e-07
-1.70966e-07
-6.3354e-08
-1.64291e-07
-7.49112e-09
-1.60901e-07
4.71616e-08
-1.59306e-07
1.01068e-07
-1.57537e-07
1.54692e-07
-1.55117e-07
2.08648e-07
-1.52948e-07
2.62277e-07
-1.54192e-07
3.15179e-07
-1.58212e-07
3.68399e-07
-1.60166e-07
4.21825e-07
-1.59912e-07
4.7514e-07
-1.58488e-07
5.2813e-07
-1.56526e-07
5.80671e-07
-1.54334e-07
6.327e-07
-1.52072e-07
6.8419e-07
-1.4982e-07
7.35132e-07
-1.47611e-07
7.85524e-07
-1.45447e-07
8.35365e-07
-1.43324e-07
8.84655e-07
-1.41239e-07
9.33395e-07
-1.39186e-07
9.8158e-07
-1.37156e-07
1.0292e-06
-1.35126e-07
1.07622e-06
-1.33044e-07
1.12257e-06
-1.30806e-07
1.16813e-06
-1.28235e-07
1.21264e-06
-1.25016e-07
1.25568e-06
-1.2054e-07
1.29646e-06
-1.13465e-07
1.33379e-06
-1.00669e-07
1.36744e-06
-7.37413e-08
-2.19812e-08
1.40147e-06
-1.53752e-08
4.96571e-08
-3.09521e-08
5.3368e-08
-4.68591e-08
5.66823e-08
-6.3352e-08
5.99698e-08
-8.05405e-08
6.32128e-08
-9.84665e-08
6.64092e-08
-1.17139e-07
6.95502e-08
-1.3654e-07
7.26277e-08
-1.56632e-07
7.56367e-08
-1.77361e-07
7.85705e-08
-1.98681e-07
8.14148e-08
-2.20573e-07
8.41495e-08
-2.43047e-07
8.67589e-08
-2.66118e-07
8.92411e-08
-2.89795e-07
9.16088e-08
-3.14074e-07
9.38833e-08
-3.38946e-07
9.60896e-08
-3.64402e-07
9.82521e-08
-3.90428e-07
1.00393e-07
-4.17015e-07
1.02529e-07
-4.44154e-07
1.04675e-07
-4.71838e-07
1.06839e-07
-5.00063e-07
1.09027e-07
-5.28825e-07
1.1124e-07
-5.58122e-07
1.13478e-07
-5.8795e-07
1.15738e-07
-6.18306e-07
1.18014e-07
-6.49185e-07
1.203e-07
-6.80581e-07
1.2259e-07
-7.12486e-07
1.24874e-07
-7.4489e-07
1.27145e-07
-7.77781e-07
1.29392e-07
-8.11142e-07
1.31606e-07
-8.44958e-07
1.33776e-07
-8.79206e-07
1.3589e-07
-9.13865e-07
1.37938e-07
-9.48907e-07
1.39908e-07
-9.84305e-07
1.41787e-07
-1.02003e-06
1.43564e-07
-1.05603e-06
1.45226e-07
-1.0923e-06
1.4676e-07
-1.12877e-06
1.48154e-07
-1.16541e-06
1.49395e-07
-1.20217e-06
1.50471e-07
-1.23901e-06
1.5137e-07
-1.27588e-06
1.52081e-07
-1.31272e-06
1.52591e-07
-1.34949e-06
1.52891e-07
-1.38612e-06
1.52971e-07
-1.42256e-06
1.52823e-07
-1.45876e-06
1.52438e-07
-1.49465e-06
1.51811e-07
-1.53018e-06
1.50936e-07
-1.56529e-06
1.49809e-07
-1.59993e-06
1.48428e-07
-1.63402e-06
1.46792e-07
-1.66753e-06
1.44903e-07
-1.70039e-06
1.42764e-07
-1.73255e-06
1.4038e-07
-1.76395e-06
1.37757e-07
-1.79456e-06
1.34905e-07
-1.82432e-06
1.31834e-07
-1.8532e-06
1.28557e-07
-1.88114e-06
1.25087e-07
-1.90813e-06
1.21441e-07
-1.93412e-06
1.17633e-07
-1.95909e-06
1.13679e-07
-1.98302e-06
1.09597e-07
-2.00589e-06
1.05402e-07
-2.02768e-06
1.01108e-07
-2.04838e-06
9.67288e-08
-2.06797e-06
9.22766e-08
-2.08645e-06
8.77613e-08
-2.10382e-06
8.31911e-08
-2.12006e-06
7.8573e-08
-2.13516e-06
7.39122e-08
-2.14914e-06
6.92131e-08
-2.16197e-06
6.44788e-08
-2.17365e-06
5.97122e-08
-2.18419e-06
5.4915e-08
-2.19356e-06
5.00888e-08
-2.20179e-06
4.52343e-08
-2.20884e-06
4.03514e-08
-2.21474e-06
3.54395e-08
-2.21946e-06
3.04969e-08
-2.22301e-06
2.55215e-08
-2.22539e-06
2.05106e-08
-2.22658e-06
1.5462e-08
-2.2266e-06
1.03742e-08
-2.22542e-06
5.24717e-09
-2.22306e-06
8.18553e-11
-2.2195e-06
-5.11777e-09
-2.21472e-06
-1.03524e-08
-2.2087e-06
-1.56282e-08
-2.20143e-06
-2.09537e-08
-2.1929e-06
-2.63316e-08
-2.18308e-06
-3.17621e-08
-2.17197e-06
-3.72443e-08
-2.15956e-06
-4.27763e-08
-2.14583e-06
-4.83555e-08
-2.13078e-06
-5.39784e-08
-2.11441e-06
-5.96409e-08
-2.09669e-06
-6.53378e-08
-2.07764e-06
-7.10635e-08
-2.05724e-06
-7.68119e-08
-2.0355e-06
-8.25773e-08
-2.01241e-06
-8.8355e-08
-1.98797e-06