/*--------------------------------*- C++ -*----------------------------------*\
| =========                 |                                                 |
| \\      /  F ield         | OpenFOAM: The Open Source CFD Toolbox           |
|  \\    /   O peration     | Version:  2112                                  |
|   \\  /    A nd           | Website:  www.openfoam.com                      |
|    \\/     M anipulation  |                                                 |
\*---------------------------------------------------------------------------*/
FoamFile
{
    version     2.0;
    format      ascii;
    arch        "LSB;label=32;scalar=64";
    class       volScalarField;
    location    "0.03";
    object      pPrime2Mean;
}
// * * * * * * * * * * * * * * * * * * * * * * * * * * * * * * * * * * * * * //

dimensions      [0 4 -4 0 0 0 0];

internalField   nonuniform List<scalar> 
122250
(
1.38075e+07
1.35792e+07
1.33591e+07
1.31538e+07
1.29574e+07
1.27678e+07
1.25844e+07
1.24068e+07
1.22348e+07
1.20676e+07
1.19046e+07
1.17449e+07
1.15875e+07
1.1431e+07
1.12737e+07
1.11122e+07
1.09374e+07
1.07695e+07
1.42038e+07
1.39687e+07
1.3726e+07
1.34983e+07
1.32813e+07
1.30726e+07
1.28715e+07
1.26774e+07
1.249e+07
1.23085e+07
1.21321e+07
1.19599e+07
1.17908e+07
1.16232e+07
1.14556e+07
1.12849e+07
1.11046e+07
1.09246e+07
1.4289e+07
1.40532e+07
1.38055e+07
1.35718e+07
1.33491e+07
1.31353e+07
1.29295e+07
1.27312e+07
1.25399e+07
1.23549e+07
1.21752e+07
1.20001e+07
1.18283e+07
1.16584e+07
1.14889e+07
1.13174e+07
1.11388e+07
1.09612e+07
1.42305e+07
1.40017e+07
1.3758e+07
1.35264e+07
1.33058e+07
1.30941e+07
1.28905e+07
1.26943e+07
1.2505e+07
1.23218e+07
1.21441e+07
1.19708e+07
1.18011e+07
1.16338e+07
1.14676e+07
1.13007e+07
1.11294e+07
1.09645e+07
1.41897e+07
1.39664e+07
1.37246e+07
1.34929e+07
1.32741e+07
1.30645e+07
1.28628e+07
1.26687e+07
1.24813e+07
1.23001e+07
1.21243e+07
1.19531e+07
1.17857e+07
1.16212e+07
1.14584e+07
1.12961e+07
1.11321e+07
1.09792e+07
1.41661e+07
1.39464e+07
1.37023e+07
1.3471e+07
1.32539e+07
1.30459e+07
1.2846e+07
1.26535e+07
1.24679e+07
1.22883e+07
1.21142e+07
1.19448e+07
1.17795e+07
1.16175e+07
1.1458e+07
1.13002e+07
1.11428e+07
1.09998e+07
1.41496e+07
1.39323e+07
1.36844e+07
1.34554e+07
1.32401e+07
1.30337e+07
1.28353e+07
1.26441e+07
1.24597e+07
1.22815e+07
1.21089e+07
1.19412e+07
1.17779e+07
1.16184e+07
1.14622e+07
1.13089e+07
1.11576e+07
1.10231e+07
1.41373e+07
1.39204e+07
1.36713e+07
1.34447e+07
1.32305e+07
1.30254e+07
1.28281e+07
1.26381e+07
1.24549e+07
1.2278e+07
1.21068e+07
1.19409e+07
1.17797e+07
1.16228e+07
1.147e+07
1.13211e+07
1.11753e+07
1.10477e+07
1.41271e+07
1.39099e+07
1.36614e+07
1.34359e+07
1.32228e+07
1.30187e+07
1.28225e+07
1.26337e+07
1.24517e+07
1.22762e+07
1.21065e+07
1.19424e+07
1.17835e+07
1.16294e+07
1.14801e+07
1.13354e+07
1.11945e+07
1.10729e+07
1.4119e+07
1.39012e+07
1.36533e+07
1.34285e+07
1.32163e+07
1.30132e+07
1.28182e+07
1.26305e+07
1.24499e+07
1.22758e+07
1.21079e+07
1.19457e+07
1.17891e+07
1.16379e+07
1.1492e+07
1.13514e+07
1.12147e+07
1.10981e+07
1.41377e+07
1.39154e+07
1.36671e+07
1.34409e+07
1.32284e+07
1.30254e+07
1.28305e+07
1.26432e+07
1.24631e+07
1.22898e+07
1.21229e+07
1.19621e+07
1.18074e+07
1.16584e+07
1.15153e+07
1.13779e+07
1.12444e+07
1.11316e+07
1.41698e+07
1.39386e+07
1.36934e+07
1.34632e+07
1.32499e+07
1.30464e+07
1.28513e+07
1.26639e+07
1.24839e+07
1.2311e+07
1.21448e+07
1.19851e+07
1.18317e+07
1.16845e+07
1.15434e+07
1.14083e+07
1.12774e+07
1.1167e+07
1.41584e+07
1.39251e+07
1.36825e+07
1.34528e+07
1.32408e+07
1.30388e+07
1.28453e+07
1.26595e+07
1.24813e+07
1.23102e+07
1.21461e+07
1.19886e+07
1.18377e+07
1.16933e+07
1.15551e+07
1.14228e+07
1.12944e+07
1.11878e+07
1.41106e+07
1.38785e+07
1.36366e+07
1.34132e+07
1.3205e+07
1.30065e+07
1.28162e+07
1.26338e+07
1.2459e+07
1.22913e+07
1.21307e+07
1.19769e+07
1.18298e+07
1.16892e+07
1.1555e+07
1.14264e+07
1.13009e+07
1.12001e+07
1.40723e+07
1.38368e+07
1.35976e+07
1.33794e+07
1.31748e+07
1.29797e+07
1.27929e+07
1.26139e+07
1.24424e+07
1.22783e+07
1.21213e+07
1.19713e+07
1.18281e+07
1.16915e+07
1.15611e+07
1.14359e+07
1.1313e+07
1.12184e+07
1.4038e+07
1.37939e+07
1.35606e+07
1.33463e+07
1.31454e+07
1.29541e+07
1.27709e+07
1.25956e+07
1.24279e+07
1.22676e+07
1.21146e+07
1.19686e+07
1.18294e+07
1.16968e+07
1.15702e+07
1.14482e+07
1.13277e+07
1.12397e+07
1.3998e+07
1.37413e+07
1.35164e+07
1.33066e+07
1.31103e+07
1.29234e+07
1.27446e+07
1.25737e+07
1.24104e+07
1.22545e+07
1.21059e+07
1.19643e+07
1.18295e+07
1.17011e+07
1.15785e+07
1.14597e+07
1.13413e+07
1.12607e+07
1.39293e+07
1.36571e+07
1.34464e+07
1.32432e+07
1.30531e+07
1.28722e+07
1.26992e+07
1.2534e+07
1.23763e+07
1.22259e+07
1.20828e+07
1.19465e+07
1.18168e+07
1.16932e+07
1.15751e+07
1.14598e+07
1.13437e+07
1.12721e+07
1.38985e+07
1.36092e+07
1.34125e+07
1.32135e+07
1.30277e+07
1.28508e+07
1.26819e+07
1.25208e+07
1.23673e+07
1.22211e+07
1.20821e+07
1.19499e+07
1.18241e+07
1.17042e+07
1.15892e+07
1.1476e+07
1.13605e+07
1.12967e+07
1.39918e+07
1.37252e+07
1.35078e+07
1.33036e+07
1.31134e+07
1.29332e+07
1.27615e+07
1.25983e+07
1.2443e+07
1.22955e+07
1.21554e+07
1.20223e+07
1.18958e+07
1.17755e+07
1.16606e+07
1.15486e+07
1.14362e+07
1.13649e+07
1.40606e+07
1.3804e+07
1.3579e+07
1.33707e+07
1.3177e+07
1.29938e+07
1.28199e+07
1.26546e+07
1.24978e+07
1.23489e+07
1.22076e+07
1.20735e+07
1.19462e+07
1.18252e+07
1.17097e+07
1.15977e+07
1.14856e+07
1.14097e+07
1.40861e+07
1.38415e+07
1.36117e+07
1.34016e+07
1.32064e+07
1.3022e+07
1.28471e+07
1.26812e+07
1.25238e+07
1.23745e+07
1.2233e+07
1.20987e+07
1.19714e+07
1.18504e+07
1.1735e+07
1.16234e+07
1.15123e+07
1.14336e+07
1.4112e+07
1.38765e+07
1.36426e+07
1.34309e+07
1.32342e+07
1.30485e+07
1.28726e+07
1.27058e+07
1.25477e+07
1.23979e+07
1.22559e+07
1.21212e+07
1.19935e+07
1.18723e+07
1.17568e+07
1.16454e+07
1.1535e+07
1.14537e+07
1.4138e+07
1.39086e+07
1.36716e+07
1.34581e+07
1.32599e+07
1.30729e+07
1.28958e+07
1.27281e+07
1.25692e+07
1.24187e+07
1.2276e+07
1.21409e+07
1.20127e+07
1.18911e+07
1.17753e+07
1.1664e+07
1.1554e+07
1.14703e+07
1.41656e+07
1.39393e+07
1.37016e+07
1.34851e+07
1.32852e+07
1.30968e+07
1.29186e+07
1.27498e+07
1.259e+07
1.24386e+07
1.22952e+07
1.21593e+07
1.20306e+07
1.19084e+07
1.17923e+07
1.16808e+07
1.15711e+07
1.14851e+07
1.41991e+07
1.39723e+07
1.37383e+07
1.35166e+07
1.33138e+07
1.31236e+07
1.29438e+07
1.27737e+07
1.26127e+07
1.24602e+07
1.23158e+07
1.2179e+07
1.20494e+07
1.19265e+07
1.18096e+07
1.16977e+07
1.15881e+07
1.14998e+07
1.42508e+07
1.40192e+07
1.37859e+07
1.35648e+07
1.3359e+07
1.31659e+07
1.29835e+07
1.2811e+07
1.26476e+07
1.2493e+07
1.23467e+07
1.2208e+07
1.20766e+07
1.19519e+07
1.18335e+07
1.17206e+07
1.16103e+07
1.15195e+07
1.43366e+07
1.40944e+07
1.38547e+07
1.36314e+07
1.34231e+07
1.3227e+07
1.30417e+07
1.28665e+07
1.27008e+07
1.2544e+07
1.23957e+07
1.22553e+07
1.21223e+07
1.19957e+07
1.18749e+07
1.17595e+07
1.16471e+07
1.15534e+07
1.43173e+07
1.40702e+07
1.38303e+07
1.36095e+07
1.34033e+07
1.3209e+07
1.30253e+07
1.28516e+07
1.26873e+07
1.25317e+07
1.23846e+07
1.22452e+07
1.21132e+07
1.19878e+07
1.18685e+07
1.17546e+07
1.16436e+07
1.15515e+07
1.39947e+07
1.37471e+07
1.35242e+07
1.33209e+07
1.31305e+07
1.29507e+07
1.27805e+07
1.26193e+07
1.24666e+07
1.23219e+07
1.21848e+07
1.2055e+07
1.19318e+07
1.18149e+07
1.17037e+07
1.15973e+07
1.14928e+07
1.14104e+07
1.45403e+07
1.41763e+07
1.39554e+07
1.37171e+07
1.34854e+07
1.32626e+07
1.30483e+07
1.28421e+07
1.26433e+07
1.24513e+07
1.2265e+07
1.20837e+07
1.19061e+07
1.17308e+07
1.15561e+07
1.13791e+07
1.11945e+07
1.09894e+07
1.40465e+07
1.37338e+07
1.35357e+07
1.33243e+07
1.31181e+07
1.2919e+07
1.27267e+07
1.25408e+07
1.23609e+07
1.21865e+07
1.20167e+07
1.18507e+07
1.16875e+07
1.15259e+07
1.13641e+07
1.11998e+07
1.10299e+07
1.08467e+07
1.41124e+07
1.38032e+07
1.35993e+07
1.33843e+07
1.31748e+07
1.29726e+07
1.27775e+07
1.2589e+07
1.24067e+07
1.223e+07
1.20582e+07
1.18903e+07
1.17255e+07
1.15625e+07
1.13998e+07
1.12358e+07
1.10684e+07
1.08979e+07
1.41586e+07
1.38465e+07
1.36399e+07
1.3422e+07
1.32099e+07
1.30053e+07
1.2808e+07
1.26176e+07
1.24336e+07
1.22553e+07
1.2082e+07
1.1913e+07
1.17473e+07
1.1584e+07
1.14217e+07
1.12593e+07
1.1096e+07
1.09345e+07
1.41763e+07
1.38616e+07
1.36548e+07
1.34354e+07
1.32224e+07
1.30171e+07
1.28193e+07
1.26284e+07
1.24441e+07
1.22656e+07
1.20922e+07
1.19234e+07
1.17582e+07
1.15958e+07
1.14353e+07
1.12759e+07
1.11182e+07
1.09658e+07
1.41831e+07
1.38649e+07
1.36584e+07
1.34387e+07
1.32257e+07
1.30205e+07
1.28228e+07
1.26322e+07
1.24481e+07
1.227e+07
1.20972e+07
1.19291e+07
1.1765e+07
1.16042e+07
1.1446e+07
1.12904e+07
1.11386e+07
1.09945e+07
1.41848e+07
1.38621e+07
1.36565e+07
1.34377e+07
1.3225e+07
1.30202e+07
1.2823e+07
1.26329e+07
1.24493e+07
1.22719e+07
1.21e+07
1.1933e+07
1.17704e+07
1.16116e+07
1.14563e+07
1.13048e+07
1.11588e+07
1.10219e+07
1.41844e+07
1.38562e+07
1.36527e+07
1.34348e+07
1.32226e+07
1.30183e+07
1.28217e+07
1.26323e+07
1.24496e+07
1.22731e+07
1.21023e+07
1.19367e+07
1.17759e+07
1.16195e+07
1.14674e+07
1.13201e+07
1.11795e+07
1.10488e+07
1.4184e+07
1.38493e+07
1.36485e+07
1.34313e+07
1.32197e+07
1.30161e+07
1.28203e+07
1.26317e+07
1.245e+07
1.22746e+07
1.21052e+07
1.19412e+07
1.17824e+07
1.16286e+07
1.14799e+07
1.13367e+07
1.12011e+07
1.10758e+07
1.41853e+07
1.38438e+07
1.36451e+07
1.34288e+07
1.32179e+07
1.30151e+07
1.28201e+07
1.26324e+07
1.24517e+07
1.22776e+07
1.21096e+07
1.19475e+07
1.17909e+07
1.16398e+07
1.14943e+07
1.13551e+07
1.12239e+07
1.11032e+07
1.41883e+07
1.38396e+07
1.36425e+07
1.3427e+07
1.32169e+07
1.30149e+07
1.28208e+07
1.26342e+07
1.24547e+07
1.22819e+07
1.21155e+07
1.19553e+07
1.1801e+07
1.16527e+07
1.15104e+07
1.13749e+07
1.12476e+07
1.11308e+07
1.41883e+07
1.38343e+07
1.36386e+07
1.34235e+07
1.32143e+07
1.30133e+07
1.28203e+07
1.26348e+07
1.24566e+07
1.22853e+07
1.21206e+07
1.19623e+07
1.18103e+07
1.16646e+07
1.15252e+07
1.13929e+07
1.12688e+07
1.11553e+07
1.41887e+07
1.38194e+07
1.36297e+07
1.34161e+07
1.32082e+07
1.30085e+07
1.28168e+07
1.26328e+07
1.24562e+07
1.22866e+07
1.21239e+07
1.19677e+07
1.18181e+07
1.1675e+07
1.15386e+07
1.14092e+07
1.12883e+07
1.11781e+07
1.4182e+07
1.37901e+07
1.36093e+07
1.33994e+07
1.31936e+07
1.2996e+07
1.28065e+07
1.26247e+07
1.24503e+07
1.22832e+07
1.21231e+07
1.19697e+07
1.18232e+07
1.16833e+07
1.15502e+07
1.14242e+07
1.13069e+07
1.12006e+07
1.41707e+07
1.37489e+07
1.35804e+07
1.33749e+07
1.31721e+07
1.29774e+07
1.27907e+07
1.26118e+07
1.24405e+07
1.22764e+07
1.21196e+07
1.19697e+07
1.18266e+07
1.16904e+07
1.1561e+07
1.14388e+07
1.13253e+07
1.12234e+07
1.41585e+07
1.36987e+07
1.35456e+07
1.33455e+07
1.31464e+07
1.29551e+07
1.27719e+07
1.25965e+07
1.24288e+07
1.22684e+07
1.21153e+07
1.19693e+07
1.18302e+07
1.16979e+07
1.15724e+07
1.1454e+07
1.13446e+07
1.12474e+07
1.4144e+07
1.36384e+07
1.35039e+07
1.33103e+07
1.31156e+07
1.29286e+07
1.27495e+07
1.25782e+07
1.24146e+07
1.22585e+07
1.21096e+07
1.19679e+07
1.18331e+07
1.1705e+07
1.15835e+07
1.1469e+07
1.13638e+07
1.12717e+07
1.41225e+07
1.35641e+07
1.3453e+07
1.32672e+07
1.30779e+07
1.28958e+07
1.27215e+07
1.2555e+07
1.23961e+07
1.22448e+07
1.21006e+07
1.19635e+07
1.18332e+07
1.17095e+07
1.15922e+07
1.14816e+07
1.13808e+07
1.12943e+07
1.41325e+07
1.35184e+07
1.34316e+07
1.32519e+07
1.30661e+07
1.28874e+07
1.27165e+07
1.25535e+07
1.23983e+07
1.22505e+07
1.211e+07
1.19765e+07
1.18497e+07
1.17293e+07
1.16151e+07
1.15074e+07
1.14097e+07
1.13275e+07
1.41542e+07
1.36212e+07
1.34988e+07
1.33117e+07
1.31231e+07
1.29425e+07
1.27704e+07
1.26066e+07
1.24508e+07
1.23028e+07
1.21623e+07
1.20289e+07
1.19023e+07
1.17822e+07
1.16684e+07
1.15611e+07
1.1463e+07
1.13781e+07
1.4188e+07
1.3693e+07
1.35554e+07
1.33633e+07
1.3172e+07
1.29893e+07
1.28156e+07
1.26505e+07
1.24938e+07
1.23451e+07
1.22039e+07
1.20701e+07
1.19431e+07
1.18228e+07
1.17087e+07
1.1601e+07
1.1502e+07
1.1415e+07
1.42048e+07
1.37436e+07
1.3594e+07
1.33984e+07
1.32052e+07
1.30212e+07
1.28463e+07
1.26804e+07
1.25231e+07
1.23738e+07
1.22323e+07
1.20982e+07
1.1971e+07
1.18504e+07
1.17361e+07
1.16282e+07
1.15286e+07
1.14401e+07
1.42184e+07
1.37864e+07
1.36263e+07
1.34278e+07
1.3233e+07
1.30476e+07
1.28717e+07
1.2705e+07
1.25469e+07
1.23971e+07
1.22551e+07
1.21206e+07
1.19931e+07
1.18722e+07
1.17577e+07
1.16495e+07
1.15492e+07
1.14594e+07
1.42305e+07
1.38236e+07
1.36543e+07
1.3453e+07
1.32567e+07
1.30701e+07
1.28933e+07
1.27257e+07
1.25669e+07
1.24165e+07
1.2274e+07
1.2139e+07
1.20111e+07
1.18899e+07
1.1775e+07
1.16665e+07
1.15656e+07
1.14745e+07
1.42413e+07
1.38554e+07
1.36781e+07
1.34743e+07
1.32767e+07
1.30891e+07
1.29113e+07
1.2743e+07
1.25835e+07
1.24325e+07
1.22895e+07
1.2154e+07
1.20257e+07
1.19041e+07
1.17889e+07
1.16801e+07
1.15786e+07
1.14865e+07
1.42487e+07
1.38802e+07
1.3697e+07
1.34903e+07
1.32915e+07
1.31031e+07
1.29247e+07
1.27558e+07
1.25958e+07
1.24443e+07
1.23009e+07
1.21651e+07
1.20364e+07
1.19145e+07
1.17991e+07
1.16899e+07
1.1588e+07
1.1495e+07
1.42458e+07
1.38912e+07
1.37033e+07
1.34964e+07
1.32972e+07
1.31085e+07
1.29298e+07
1.27607e+07
1.26005e+07
1.24488e+07
1.23052e+07
1.21692e+07
1.20404e+07
1.19184e+07
1.18029e+07
1.16937e+07
1.15916e+07
1.14983e+07
1.42068e+07
1.38641e+07
1.36741e+07
1.34692e+07
1.32721e+07
1.30852e+07
1.29083e+07
1.27408e+07
1.25822e+07
1.2432e+07
1.22898e+07
1.21551e+07
1.20275e+07
1.19065e+07
1.17917e+07
1.1683e+07
1.15813e+07
1.14889e+07
1.41108e+07
1.37728e+07
1.35872e+07
1.33873e+07
1.31947e+07
1.30122e+07
1.28393e+07
1.26755e+07
1.25204e+07
1.23734e+07
1.22342e+07
1.21024e+07
1.19774e+07
1.1859e+07
1.17468e+07
1.16405e+07
1.15409e+07
1.14506e+07
1.46096e+07
1.4212e+07
1.40053e+07
1.37796e+07
1.35626e+07
1.33573e+07
1.31634e+07
1.29802e+07
1.28071e+07
1.26434e+07
1.24887e+07
1.23424e+07
1.2204e+07
1.20731e+07
1.19493e+07
1.18322e+07
1.17219e+07
1.16182e+07
1.4207e+07
1.39275e+07
1.3699e+07
1.34759e+07
1.32602e+07
1.30524e+07
1.2852e+07
1.26587e+07
1.24717e+07
1.22906e+07
1.21146e+07
1.19427e+07
1.1774e+07
1.16072e+07
1.14405e+07
1.12714e+07
1.10955e+07
1.09005e+07
1.41664e+07
1.38915e+07
1.36646e+07
1.34436e+07
1.32299e+07
1.30241e+07
1.28255e+07
1.26339e+07
1.24486e+07
1.2269e+07
1.20943e+07
1.19239e+07
1.17565e+07
1.15911e+07
1.1426e+07
1.12588e+07
1.1086e+07
1.08982e+07
1.41528e+07
1.38804e+07
1.36539e+07
1.34335e+07
1.32206e+07
1.30154e+07
1.28175e+07
1.26265e+07
1.24418e+07
1.22628e+07
1.20888e+07
1.1919e+07
1.17524e+07
1.15879e+07
1.14241e+07
1.12591e+07
1.10905e+07
1.09149e+07
1.41504e+07
1.38789e+07
1.36523e+07
1.3432e+07
1.32192e+07
1.30142e+07
1.28165e+07
1.26257e+07
1.24413e+07
1.22626e+07
1.2089e+07
1.19197e+07
1.17538e+07
1.15904e+07
1.14282e+07
1.1266e+07
1.11026e+07
1.09386e+07
1.41512e+07
1.38793e+07
1.36528e+07
1.34325e+07
1.32197e+07
1.30148e+07
1.28173e+07
1.26268e+07
1.24426e+07
1.22643e+07
1.20912e+07
1.19225e+07
1.17575e+07
1.15953e+07
1.14352e+07
1.12764e+07
1.11189e+07
1.0965e+07
1.41521e+07
1.38791e+07
1.36527e+07
1.34325e+07
1.32199e+07
1.30152e+07
1.2818e+07
1.26278e+07
1.2444e+07
1.22662e+07
1.20937e+07
1.19259e+07
1.17621e+07
1.16017e+07
1.1444e+07
1.12891e+07
1.11375e+07
1.09922e+07
1.4152e+07
1.38773e+07
1.36513e+07
1.34314e+07
1.32191e+07
1.30148e+07
1.2818e+07
1.26283e+07
1.24451e+07
1.2268e+07
1.20964e+07
1.19297e+07
1.17674e+07
1.16089e+07
1.14542e+07
1.13034e+07
1.11576e+07
1.10195e+07
1.41511e+07
1.38741e+07
1.36486e+07
1.34293e+07
1.32174e+07
1.30136e+07
1.28174e+07
1.26283e+07
1.24459e+07
1.22697e+07
1.20992e+07
1.19339e+07
1.17733e+07
1.16172e+07
1.14657e+07
1.1319e+07
1.11786e+07
1.10467e+07
1.41497e+07
1.38698e+07
1.36451e+07
1.34264e+07
1.32151e+07
1.30119e+07
1.28164e+07
1.26282e+07
1.24467e+07
1.22716e+07
1.21024e+07
1.19387e+07
1.17801e+07
1.16267e+07
1.14784e+07
1.13359e+07
1.12004e+07
1.10737e+07
1.41481e+07
1.38649e+07
1.36409e+07
1.34229e+07
1.32124e+07
1.301e+07
1.28154e+07
1.26281e+07
1.24477e+07
1.22739e+07
1.21062e+07
1.19443e+07
1.1788e+07
1.16373e+07
1.14923e+07
1.13538e+07
1.12228e+07
1.11006e+07
1.4146e+07
1.38591e+07
1.36358e+07
1.34186e+07
1.3209e+07
1.30076e+07
1.2814e+07
1.26278e+07
1.24488e+07
1.22764e+07
1.21104e+07
1.19505e+07
1.17966e+07
1.16487e+07
1.15071e+07
1.13724e+07
1.12454e+07
1.11271e+07
1.41426e+07
1.38517e+07
1.36292e+07
1.34129e+07
1.32043e+07
1.3004e+07
1.28116e+07
1.26267e+07
1.24491e+07
1.22782e+07
1.2114e+07
1.19562e+07
1.18046e+07
1.16594e+07
1.15208e+07
1.13893e+07
1.12657e+07
1.11507e+07
1.41377e+07
1.38403e+07
1.36196e+07
1.34048e+07
1.31975e+07
1.29985e+07
1.28075e+07
1.26241e+07
1.2448e+07
1.2279e+07
1.21167e+07
1.1961e+07
1.18119e+07
1.16694e+07
1.15338e+07
1.14054e+07
1.1285e+07
1.1173e+07
1.41285e+07
1.38212e+07
1.36035e+07
1.33911e+07
1.31858e+07
1.29886e+07
1.27996e+07
1.26182e+07
1.24443e+07
1.22776e+07
1.21178e+07
1.19649e+07
1.18187e+07
1.16794e+07
1.1547e+07
1.14221e+07
1.13052e+07
1.11966e+07
1.41143e+07
1.37934e+07
1.358e+07
1.3371e+07
1.31683e+07
1.29738e+07
1.27874e+07
1.26087e+07
1.24376e+07
1.22737e+07
1.21171e+07
1.19674e+07
1.18247e+07
1.16889e+07
1.15603e+07
1.1439e+07
1.13258e+07
1.12209e+07
1.40961e+07
1.37577e+07
1.35499e+07
1.33451e+07
1.31459e+07
1.29547e+07
1.27715e+07
1.25961e+07
1.24284e+07
1.22681e+07
1.2115e+07
1.19691e+07
1.18303e+07
1.16984e+07
1.15737e+07
1.14563e+07
1.13471e+07
1.12461e+07
1.40744e+07
1.37148e+07
1.35137e+07
1.33141e+07
1.31191e+07
1.29318e+07
1.27525e+07
1.25811e+07
1.24173e+07
1.2261e+07
1.21121e+07
1.19703e+07
1.18356e+07
1.17079e+07
1.15872e+07
1.14739e+07
1.13687e+07
1.12718e+07
1.40514e+07
1.36675e+07
1.34749e+07
1.32813e+07
1.30909e+07
1.2908e+07
1.2733e+07
1.25658e+07
1.24063e+07
1.22543e+07
1.21097e+07
1.19722e+07
1.18417e+07
1.17181e+07
1.16014e+07
1.14921e+07
1.13909e+07
1.12981e+07
1.40525e+07
1.36461e+07
1.34615e+07
1.32723e+07
1.30852e+07
1.29053e+07
1.27333e+07
1.25693e+07
1.24131e+07
1.22645e+07
1.21233e+07
1.19891e+07
1.18619e+07
1.17415e+07
1.16279e+07
1.15214e+07
1.14232e+07
1.13335e+07
1.40814e+07
1.3708e+07
1.35123e+07
1.33184e+07
1.31293e+07
1.29483e+07
1.27758e+07
1.26116e+07
1.24555e+07
1.23073e+07
1.21665e+07
1.2033e+07
1.19064e+07
1.17866e+07
1.16736e+07
1.15676e+07
1.14693e+07
1.13788e+07
1.41153e+07
1.37608e+07
1.35598e+07
1.33624e+07
1.3171e+07
1.29884e+07
1.28147e+07
1.26497e+07
1.2493e+07
1.23443e+07
1.22033e+07
1.20695e+07
1.19429e+07
1.1823e+07
1.17098e+07
1.16034e+07
1.15044e+07
1.14129e+07
1.41408e+07
1.38023e+07
1.35974e+07
1.33972e+07
1.32039e+07
1.302e+07
1.28452e+07
1.26793e+07
1.2522e+07
1.23728e+07
1.22314e+07
1.20974e+07
1.19705e+07
1.18503e+07
1.17368e+07
1.16301e+07
1.15305e+07
1.14382e+07
1.41614e+07
1.38367e+07
1.36284e+07
1.34259e+07
1.32311e+07
1.30458e+07
1.28701e+07
1.27034e+07
1.25455e+07
1.23957e+07
1.22539e+07
1.21195e+07
1.19922e+07
1.18717e+07
1.17579e+07
1.16507e+07
1.15506e+07
1.14574e+07
1.41785e+07
1.38654e+07
1.36542e+07
1.34495e+07
1.32533e+07
1.3067e+07
1.28903e+07
1.27229e+07
1.25643e+07
1.24141e+07
1.22717e+07
1.21369e+07
1.20093e+07
1.18885e+07
1.17743e+07
1.16667e+07
1.1566e+07
1.14721e+07
1.4192e+07
1.38886e+07
1.36748e+07
1.34683e+07
1.32709e+07
1.30837e+07
1.29063e+07
1.27382e+07
1.25791e+07
1.24283e+07
1.22856e+07
1.21504e+07
1.20224e+07
1.19013e+07
1.17868e+07
1.16789e+07
1.15777e+07
1.14831e+07
1.42012e+07
1.39054e+07
1.36896e+07
1.34816e+07
1.32833e+07
1.30954e+07
1.29175e+07
1.2749e+07
1.25895e+07
1.24384e+07
1.22953e+07
1.21598e+07
1.20316e+07
1.19102e+07
1.17955e+07
1.16873e+07
1.15857e+07
1.14908e+07
1.42056e+07
1.39153e+07
1.36979e+07
1.34892e+07
1.32905e+07
1.31022e+07
1.2924e+07
1.27552e+07
1.25955e+07
1.24442e+07
1.23009e+07
1.21653e+07
1.20369e+07
1.19154e+07
1.18005e+07
1.16921e+07
1.15904e+07
1.14952e+07
1.42078e+07
1.392e+07
1.37015e+07
1.34926e+07
1.32937e+07
1.31053e+07
1.2927e+07
1.27582e+07
1.25983e+07
1.2447e+07
1.23037e+07
1.21681e+07
1.20397e+07
1.19181e+07
1.18031e+07
1.16946e+07
1.15927e+07
1.14975e+07
1.42222e+07
1.39328e+07
1.37134e+07
1.35037e+07
1.33041e+07
1.31151e+07
1.29362e+07
1.27668e+07
1.26065e+07
1.24547e+07
1.2311e+07
1.2175e+07
1.20463e+07
1.19244e+07
1.18091e+07
1.17003e+07
1.15979e+07
1.15021e+07
1.42859e+07
1.39896e+07
1.37675e+07
1.35545e+07
1.33518e+07
1.31599e+07
1.29783e+07
1.28065e+07
1.26439e+07
1.249e+07
1.23443e+07
1.22065e+07
1.2076e+07
1.19525e+07
1.18357e+07
1.17255e+07
1.16216e+07
1.15236e+07
1.41566e+07
1.39023e+07
1.36684e+07
1.34455e+07
1.32314e+07
1.30254e+07
1.28269e+07
1.26351e+07
1.24497e+07
1.227e+07
1.20953e+07
1.19247e+07
1.17572e+07
1.15915e+07
1.14261e+07
1.12582e+07
1.10835e+07
1.089e+07
1.41517e+07
1.38979e+07
1.36642e+07
1.34416e+07
1.32278e+07
1.30221e+07
1.28237e+07
1.26323e+07
1.24471e+07
1.22676e+07
1.20932e+07
1.19228e+07
1.17556e+07
1.15904e+07
1.14256e+07
1.12587e+07
1.1086e+07
1.08978e+07
1.41468e+07
1.38936e+07
1.36602e+07
1.34378e+07
1.32243e+07
1.30188e+07
1.28208e+07
1.26296e+07
1.24448e+07
1.22656e+07
1.20915e+07
1.19216e+07
1.1755e+07
1.15905e+07
1.14267e+07
1.12618e+07
1.1093e+07
1.09161e+07
1.41433e+07
1.38905e+07
1.36572e+07
1.3435e+07
1.32217e+07
1.30165e+07
1.28188e+07
1.26279e+07
1.24434e+07
1.22647e+07
1.2091e+07
1.19216e+07
1.17557e+07
1.15923e+07
1.14302e+07
1.12681e+07
1.11044e+07
1.09392e+07
1.4141e+07
1.38881e+07
1.36549e+07
1.34329e+07
1.32199e+07
1.3015e+07
1.28176e+07
1.26271e+07
1.24429e+07
1.22647e+07
1.20915e+07
1.19229e+07
1.1758e+07
1.1596e+07
1.1436e+07
1.12773e+07
1.11196e+07
1.09647e+07
1.41393e+07
1.3886e+07
1.36529e+07
1.34311e+07
1.32184e+07
1.30138e+07
1.28167e+07
1.26266e+07
1.2443e+07
1.22653e+07
1.20929e+07
1.19252e+07
1.17615e+07
1.16012e+07
1.14438e+07
1.1289e+07
1.11374e+07
1.09913e+07
1.41376e+07
1.38835e+07
1.36505e+07
1.34291e+07
1.32167e+07
1.30125e+07
1.28159e+07
1.26263e+07
1.24434e+07
1.22664e+07
1.20949e+07
1.19283e+07
1.17662e+07
1.1608e+07
1.14535e+07
1.13028e+07
1.1157e+07
1.10183e+07
1.41355e+07
1.38804e+07
1.36476e+07
1.34265e+07
1.32146e+07
1.30109e+07
1.28149e+07
1.26261e+07
1.24438e+07
1.22678e+07
1.20974e+07
1.19322e+07
1.17719e+07
1.1616e+07
1.14647e+07
1.13182e+07
1.11778e+07
1.10453e+07
1.4133e+07
1.38765e+07
1.36439e+07
1.34234e+07
1.3212e+07
1.3009e+07
1.28137e+07
1.26257e+07
1.24444e+07
1.22694e+07
1.21004e+07
1.19368e+07
1.17785e+07
1.16252e+07
1.14772e+07
1.13349e+07
1.11994e+07
1.10721e+07
1.41299e+07
1.38716e+07
1.36393e+07
1.34194e+07
1.32087e+07
1.30065e+07
1.28121e+07
1.26251e+07
1.24449e+07
1.22713e+07
1.21037e+07
1.1942e+07
1.1786e+07
1.16355e+07
1.14908e+07
1.13526e+07
1.12215e+07
1.10987e+07
1.41258e+07
1.38655e+07
1.36333e+07
1.34142e+07
1.32045e+07
1.30032e+07
1.28099e+07
1.26241e+07
1.24452e+07
1.22731e+07
1.21073e+07
1.19477e+07
1.1794e+07
1.16464e+07
1.15052e+07
1.13707e+07
1.12437e+07
1.11248e+07
1.41206e+07
1.38579e+07
1.36261e+07
1.34078e+07
1.31991e+07
1.2999e+07
1.28069e+07
1.26224e+07
1.2445e+07
1.22744e+07
1.21104e+07
1.19529e+07
1.18016e+07
1.16567e+07
1.15185e+07
1.13873e+07
1.12637e+07
1.11481e+07
1.41138e+07
1.38479e+07
1.36167e+07
1.33996e+07
1.31922e+07
1.29934e+07
1.28027e+07
1.26196e+07
1.24438e+07
1.2275e+07
1.2113e+07
1.19576e+07
1.18088e+07
1.16667e+07
1.15314e+07
1.14034e+07
1.12829e+07
1.11702e+07
1.41034e+07
1.38326e+07
1.36025e+07
1.33871e+07
1.31815e+07
1.29845e+07
1.27957e+07
1.26146e+07
1.24409e+07
1.22744e+07
1.21148e+07
1.19621e+07
1.18162e+07
1.16772e+07
1.15453e+07
1.14207e+07
1.13036e+07
1.11941e+07
1.40882e+07
1.38107e+07
1.35821e+07
1.33693e+07
1.31661e+07
1.29716e+07
1.27852e+07
1.26067e+07
1.24357e+07
1.2272e+07
1.21155e+07
1.1966e+07
1.18235e+07
1.1688e+07
1.15597e+07
1.14388e+07
1.13253e+07
1.12192e+07
1.40681e+07
1.3782e+07
1.35555e+07
1.33459e+07
1.31459e+07
1.29545e+07
1.27712e+07
1.25959e+07
1.24282e+07
1.22679e+07
1.21149e+07
1.19691e+07
1.18304e+07
1.16988e+07
1.15744e+07
1.14574e+07
1.13477e+07
1.12452e+07
1.40442e+07
1.37476e+07
1.35236e+07
1.33181e+07
1.31219e+07
1.29342e+07
1.27547e+07
1.25831e+07
1.24192e+07
1.22629e+07
1.21139e+07
1.19721e+07
1.18375e+07
1.17099e+07
1.15896e+07
1.14765e+07
1.13708e+07
1.12718e+07
1.4021e+07
1.37127e+07
1.34919e+07
1.32908e+07
1.30988e+07
1.29151e+07
1.27396e+07
1.2572e+07
1.24121e+07
1.22598e+07
1.21149e+07
1.19773e+07
1.18467e+07
1.17232e+07
1.16068e+07
1.14975e+07
1.13955e+07
1.13001e+07
1.40189e+07
1.37011e+07
1.34831e+07
1.32851e+07
1.3096e+07
1.29151e+07
1.27425e+07
1.25779e+07
1.24212e+07
1.22722e+07
1.21306e+07
1.19961e+07
1.18688e+07
1.17484e+07
1.16349e+07
1.15286e+07
1.14293e+07
1.13365e+07
1.40496e+07
1.37459e+07
1.35248e+07
1.33242e+07
1.31336e+07
1.29521e+07
1.27793e+07
1.26149e+07
1.24586e+07
1.23102e+07
1.21693e+07
1.20357e+07
1.19092e+07
1.17896e+07
1.16769e+07
1.1571e+07
1.1472e+07
1.13792e+07
1.40835e+07
1.37895e+07
1.35668e+07
1.33638e+07
1.31714e+07
1.29886e+07
1.28148e+07
1.26497e+07
1.2493e+07
1.23443e+07
1.22033e+07
1.20697e+07
1.19432e+07
1.18236e+07
1.17107e+07
1.16047e+07
1.15052e+07
1.14118e+07
1.41121e+07
1.38263e+07
1.36025e+07
1.33975e+07
1.32035e+07
1.30194e+07
1.28446e+07
1.26788e+07
1.25215e+07
1.23723e+07
1.2231e+07
1.2097e+07
1.19703e+07
1.18504e+07
1.17373e+07
1.16308e+07
1.15309e+07
1.14369e+07
1.41355e+07
1.38568e+07
1.36322e+07
1.34255e+07
1.323e+07
1.30447e+07
1.28689e+07
1.27024e+07
1.25444e+07
1.23948e+07
1.2253e+07
1.21187e+07
1.19916e+07
1.18714e+07
1.17579e+07
1.1651e+07
1.15506e+07
1.1456e+07
1.41546e+07
1.38818e+07
1.36563e+07
1.34481e+07
1.32514e+07
1.3065e+07
1.28885e+07
1.27212e+07
1.25627e+07
1.24125e+07
1.22703e+07
1.21356e+07
1.20082e+07
1.18877e+07
1.17738e+07
1.16665e+07
1.15656e+07
1.14705e+07
1.41695e+07
1.39015e+07
1.36753e+07
1.34658e+07
1.3268e+07
1.30808e+07
1.29036e+07
1.27357e+07
1.25767e+07
1.24261e+07
1.22835e+07
1.21485e+07
1.20207e+07
1.18999e+07
1.17857e+07
1.16781e+07
1.15767e+07
1.14812e+07
1.41807e+07
1.39163e+07
1.36894e+07
1.34789e+07
1.32804e+07
1.30925e+07
1.29148e+07
1.27464e+07
1.2587e+07
1.24361e+07
1.22932e+07
1.21579e+07
1.20298e+07
1.19087e+07
1.17943e+07
1.16864e+07
1.15847e+07
1.14888e+07
1.41892e+07
1.39272e+07
1.36997e+07
1.34885e+07
1.32894e+07
1.31011e+07
1.29229e+07
1.27542e+07
1.25945e+07
1.24433e+07
1.23001e+07
1.21646e+07
1.20364e+07
1.1915e+07
1.18004e+07
1.16922e+07
1.15903e+07
1.14942e+07
1.41973e+07
1.39362e+07
1.37081e+07
1.34964e+07
1.32968e+07
1.31081e+07
1.29296e+07
1.27606e+07
1.26006e+07
1.24491e+07
1.23057e+07
1.217e+07
1.20416e+07
1.19201e+07
1.18052e+07
1.16968e+07
1.15946e+07
1.14983e+07
1.42076e+07
1.3946e+07
1.37174e+07
1.35051e+07
1.3305e+07
1.31158e+07
1.29369e+07
1.27675e+07
1.26071e+07
1.24553e+07
1.23117e+07
1.21756e+07
1.20469e+07
1.19252e+07
1.18101e+07
1.17014e+07
1.1599e+07
1.15022e+07
1.42189e+07
1.39564e+07
1.37272e+07
1.35143e+07
1.33136e+07
1.3124e+07
1.29445e+07
1.27747e+07
1.26139e+07
1.24618e+07
1.23177e+07
1.21814e+07
1.20524e+07
1.19304e+07
1.1815e+07
1.17061e+07
1.16033e+07
1.15062e+07
1.41438e+07
1.38982e+07
1.36627e+07
1.34393e+07
1.32254e+07
1.30198e+07
1.28216e+07
1.26302e+07
1.24452e+07
1.22657e+07
1.20913e+07
1.19209e+07
1.17537e+07
1.15884e+07
1.14232e+07
1.12556e+07
1.10811e+07
1.08878e+07
1.41426e+07
1.38971e+07
1.36616e+07
1.34383e+07
1.32245e+07
1.3019e+07
1.28208e+07
1.26296e+07
1.24446e+07
1.22653e+07
1.2091e+07
1.19208e+07
1.17538e+07
1.15888e+07
1.14241e+07
1.12575e+07
1.10848e+07
1.08965e+07
1.41406e+07
1.38953e+07
1.36599e+07
1.34367e+07
1.3223e+07
1.30176e+07
1.28197e+07
1.26286e+07
1.24439e+07
1.22648e+07
1.20908e+07
1.19209e+07
1.17544e+07
1.159e+07
1.14264e+07
1.12616e+07
1.10926e+07
1.09154e+07
1.41384e+07
1.38931e+07
1.36578e+07
1.34347e+07
1.32213e+07
1.30161e+07
1.28184e+07
1.26276e+07
1.24432e+07
1.22644e+07
1.20908e+07
1.19215e+07
1.17556e+07
1.15923e+07
1.14303e+07
1.12682e+07
1.11045e+07
1.09388e+07
1.41361e+07
1.38908e+07
1.36556e+07
1.34327e+07
1.32195e+07
1.30146e+07
1.28172e+07
1.26267e+07
1.24427e+07
1.22644e+07
1.20914e+07
1.19228e+07
1.17579e+07
1.15959e+07
1.1436e+07
1.12774e+07
1.11196e+07
1.09643e+07
1.41339e+07
1.38883e+07
1.36532e+07
1.34305e+07
1.32177e+07
1.30131e+07
1.28161e+07
1.2626e+07
1.24425e+07
1.22648e+07
1.20925e+07
1.19248e+07
1.17612e+07
1.1601e+07
1.14437e+07
1.1289e+07
1.11372e+07
1.09908e+07
1.41315e+07
1.38855e+07
1.36505e+07
1.34282e+07
1.32156e+07
1.30115e+07
1.28149e+07
1.26255e+07
1.24426e+07
1.22657e+07
1.20942e+07
1.19278e+07
1.17657e+07
1.16076e+07
1.14532e+07
1.13026e+07
1.11566e+07
1.10176e+07
1.4129e+07
1.38823e+07
1.36473e+07
1.34254e+07
1.32133e+07
1.30097e+07
1.28137e+07
1.2625e+07
1.24428e+07
1.22669e+07
1.20966e+07
1.19315e+07
1.17712e+07
1.16154e+07
1.14642e+07
1.13178e+07
1.11773e+07
1.10445e+07
1.41259e+07
1.38783e+07
1.36434e+07
1.3422e+07
1.32105e+07
1.30075e+07
1.28123e+07
1.26244e+07
1.24432e+07
1.22683e+07
1.20993e+07
1.19359e+07
1.17777e+07
1.16245e+07
1.14766e+07
1.13344e+07
1.11988e+07
1.10713e+07
1.41221e+07
1.38734e+07
1.36386e+07
1.34177e+07
1.32069e+07
1.30048e+07
1.28105e+07
1.26235e+07
1.24435e+07
1.22699e+07
1.21025e+07
1.19409e+07
1.17849e+07
1.16346e+07
1.14901e+07
1.13519e+07
1.12208e+07
1.10977e+07
1.41172e+07
1.38671e+07
1.36324e+07
1.34122e+07
1.32023e+07
1.30012e+07
1.2808e+07
1.26223e+07
1.24436e+07
1.22715e+07
1.21059e+07
1.19463e+07
1.17928e+07
1.16453e+07
1.15042e+07
1.13698e+07
1.12428e+07
1.11237e+07
1.41113e+07
1.38596e+07
1.3625e+07
1.34056e+07
1.31968e+07
1.29968e+07
1.28048e+07
1.26203e+07
1.24431e+07
1.22726e+07
1.21088e+07
1.19513e+07
1.18002e+07
1.16555e+07
1.15174e+07
1.13863e+07
1.12627e+07
1.11468e+07
1.41039e+07
1.38501e+07
1.36158e+07
1.33974e+07
1.31898e+07
1.29911e+07
1.28005e+07
1.26176e+07
1.24419e+07
1.22732e+07
1.21113e+07
1.19561e+07
1.18074e+07
1.16654e+07
1.15303e+07
1.14024e+07
1.12819e+07
1.11689e+07
1.4093e+07
1.38363e+07
1.36024e+07
1.33855e+07
1.31796e+07
1.29827e+07
1.27939e+07
1.26129e+07
1.24393e+07
1.22729e+07
1.21135e+07
1.19609e+07
1.18151e+07
1.16763e+07
1.15445e+07
1.142e+07
1.13028e+07
1.1193e+07
1.40776e+07
1.38167e+07
1.35835e+07
1.33688e+07
1.31651e+07
1.29705e+07
1.27842e+07
1.26057e+07
1.24348e+07
1.22712e+07
1.21147e+07
1.19653e+07
1.18229e+07
1.16875e+07
1.15594e+07
1.14386e+07
1.1325e+07
1.12183e+07
1.40571e+07
1.37908e+07
1.35587e+07
1.33467e+07
1.3146e+07
1.29544e+07
1.27712e+07
1.25958e+07
1.24281e+07
1.22679e+07
1.21149e+07
1.19691e+07
1.18305e+07
1.1699e+07
1.15748e+07