/*--------------------------------*- C++ -*----------------------------------*\
| =========                 |                                                 |
| \\      /  F ield         | OpenFOAM: The Open Source CFD Toolbox           |
|  \\    /   O peration     | Version:  2112                                  |
|   \\  /    A nd           | Website:  www.openfoam.com                      |
|    \\/     M anipulation  |                                                 |
\*---------------------------------------------------------------------------*/
FoamFile
{
    version     2.0;
    format      ascii;
    arch        "LSB;label=32;scalar=64";
    class       volScalarField;
    location    "0.1";
    object      omega;
}
// * * * * * * * * * * * * * * * * * * * * * * * * * * * * * * * * * * * * * //

dimensions      [0 0 -1 0 0 0 0];

internalField   nonuniform List<scalar> 
12225
(
16820.4
23921.8
26291.3
26695.3
26327
25659.4
24880.9
24076.4
23291.3
22551.9
21872.1
21256.4
20702.2
20201.2
19741.6
19312.8
18889.7
18400
1012.58
2342.75
3569.64
4610.52
5452.98
6118.44
6639.79
7046.45
7361.26
7601.67
7781.29
7911.47
8002.21
8062.77
8102.23
8130.85
8173.45
8273.62
78.3187
190.603
364.907
591.584
849.919
1118.95
1381.77
1626.61
1846.9
2040.6
2208.91
2355.56
2485.74
2605.37
2720.61
2838.49
2967.75
3113.95
41.4249
49.0974
64.3968
89.8351
126.831
175.287
233.426
298.529
367.377
436.966
505.244
571.098
634.428
695.887
756.802
819.114
885.548
957.428
39.6847
40.1933
41.4701
43.9772
48.2214
54.5838
63.1501
73.8709
86.5122
100.7
116.089
132.413
149.487
167.326
186.153
206.368
228.568
253.208
39.5903
39.5946
39.6697
39.88
40.3116
41.0501
42.151
43.6524
45.5683
47.888
50.5882
53.6484
57.0494
60.8027
64.9597
69.611
74.8838
80.8955
39.5812
39.5503
39.5259
39.5154
39.5307
39.5852
39.6916
39.8611
40.1028
40.4223
40.8227
41.3065
41.8771
42.5417
43.3129
44.2102
45.2595
46.4845
39.5774
39.542
39.5085
39.4782
39.4529
39.434
39.4226
39.42
39.4274
39.4462
39.4778
39.5237
39.5859
39.6671
39.771
39.9022
40.0664
40.2687
39.5748
39.5374
39.5018
39.4685
39.438
39.4104
39.3853
39.3621
39.3406
39.3205
39.3017
39.2847
39.2699
39.2582
39.2507
39.2489
39.254
39.2673
39.5728
39.534
39.4971
39.4625
39.4302
39.4003
39.3721
39.3452
39.319
39.2932
39.2677
39.2424
39.2176
39.1937
39.1713
39.1509
39.1331
39.118
39.5714
39.5313
39.4935
39.4579
39.4245
39.3932
39.3635
39.335
39.3072
39.2798
39.2528
39.2262
39.2002
39.1751
39.1513
39.1292
39.1091
39.0912
39.5703
39.5294
39.4908
39.4545
39.4204
39.3882
39.3577
39.3283
39.2997
39.2717
39.2444
39.2176
39.1916
39.1668
39.1434
39.1218
39.1022
39.0848
39.5695
39.5278
39.4885
39.4516
39.4169
39.3842
39.353
39.3231
39.2942
39.2661
39.2387
39.2121
39.1866
39.1623
39.1397
39.1189
39.1002
39.0837
39.5687
39.5263
39.4864
39.4489
39.4137
39.3805
39.349
39.3188
39.2898
39.2618
39.2347
39.2087
39.184
39.1606
39.139
39.1193
39.1017
39.0864
39.568
39.5249
39.4844
39.4465
39.4108
39.3773
39.3455
39.3153
39.2865
39.2589
39.2324
39.2073
39.1836
39.1615
39.1411
39.1228
39.1066
39.0926
39.5674
39.5237
39.4827
39.4443
39.4083
39.3746
39.3428
39.3128
39.2843
39.2574
39.2319
39.2079
39.1854
39.1647
39.1459
39.129
39.1143
39.1018
39.5668
39.5226
39.4812
39.4425
39.4063
39.3725
39.3409
39.3113
39.2835
39.2574
39.233
39.2103
39.1894
39.1702
39.1529
39.1376
39.1245
39.1133
39.5664
39.5218
39.4801
39.4412
39.405
39.3714
39.3402
39.3112
39.2843
39.2593
39.2363
39.215
39.1956
39.178
39.1624
39.1486
39.1367
39.1268
39.5661
39.5214
39.4795
39.4408
39.4049
39.3718
39.3414
39.3134
39.2876
39.264
39.2424
39.2228
39.205
39.1891
39.1749
39.1624
39.1516
39.1424
39.5661
39.5215
39.48
39.4418
39.4066
39.3744
39.345
39.3182
39.2939
39.2718
39.2518
39.2337
39.2174
39.2029
39.1899
39.1784
39.1683
39.1595
39.5664
39.5222
39.4813
39.4438
39.4096
39.3784
39.3502
39.3247
39.3018
39.2812
39.2627
39.2462
39.2313
39.2181
39.2062
39.1956
39.1861
39.1777
39.567
39.5235
39.4834
39.4469
39.4137
39.3838
39.3569
39.3329
39.3116
39.2926
39.2759
39.261
39.2478
39.2361
39.2256
39.2162
39.2076
39.1997
39.5679
39.5254
39.4865
39.4511
39.4192
39.3907
39.3654
39.3432
39.3238
39.3069
39.2924
39.2798
39.2689
39.2595
39.2511
39.2437
39.237
39.2307
39.5692
39.5282
39.4908
39.4568
39.4265
39.4003
39.3781
39.3598
39.3453
39.3345
39.3271
39.3229
39.3214
39.3223
39.3252
39.3298
39.3358
39.3428
39.5714
39.533
39.4994
39.4718
39.4528
39.4455
39.4529
39.4781
39.5238
39.5917
39.682
39.794
39.9266
40.0777
40.2447
40.4249
40.6159
40.8152
39.5782
39.5636
39.5975
39.7154
39.9529
40.3456
40.9272
41.7243
42.7534
44.0173
45.4959
47.169
49.0085
50.9821
53.057
55.2024
57.3878
59.5851
39.7731
40.5164
42.3614
45.7442
50.9559
58.1839
67.4374
78.6825
91.7641
106.42
122.328
139.113
156.396
173.822
191.092
207.973
224.272
239.862
48.165
72.2913
115.288
176.369
253.929
344.306
442.598
545.284
649.158
751.433
849.879
942.841
1029.22
1108.43
1180.28
1244.99
1303.07
1355.47
416.453
1021.09
1660.21
2271.12
2820.45
3297.29
3705.63
4052.95
4347.53
4597.05
4808.25
4986.76
5137.27
5263.68
5369.28
5457.01
5529.59
5589.54
11060.9
16800.8
19358.8
20325.5
20551.8
20440.2
20173.8
19836.8
19470
19094.9
18723.6
18363.8
18020.7
17697.6
17396.9
17119.6
16865.4
16635
413.747
407.934
419.571
434.021
451.966
473.76
499.222
528.144
560.339
595.597
633.642
674.201
717.225
762.971
811.837
864.145
919.975
979.093
1041
1104.96
1166.22
1216.79
1251.91
1266.35
1254.95
1214.17
1144.84
1057.81
977.656
934.409
956.415
1076.16
1332.25
1755.71
2359.93
3091.08
3710.92
4291.9
4830.6
5316.01
5741.72
6104.93
6405.51
6645.09
6826.59
6952.38
7025.2
7048.32
7024.82
6956.92
6846.2
6693.94
6501.42
6269.71
6016.99
5754.49
5481.98
5200.09
4910.09
4613.52
4312.14
4007.85
3702.65
3398.47
3097.47
2802.18
2515.85
2241.7
1982.95
1742.84
1524.59
1331.27
1165.74
1030.57
927.989
859.8
827.422
831.655
872.565
938.365
1026.59
1135.7
1262.39
1403.44
1556.38
1719.16
1890.39
2069.44
2254.79
2444.37
2635.68
2824.53
3002.23
3149.66
3239.87
3278.22
3271.17
3224.69
3148.54
3057.41
2968.54
2896.95
2850.48
2826.96
2815.25
2798.85
2759.16
2677.12
2542.2
2380.03
2286.89
2425.9
2909.54
3637.14
4261.37
4783.85
5198.42
5494.46
5672.01
5733.18
5682.69
5526.3
5268.22
4911.86
4494.96
4046.2
3577.03
3102.65
2641.03
2214.54
1845.57
1557.17
1372.71
1316.3
1428.82
1664.78
1996.99
2416.15
2902.63
3435.25
3994.14
4559.15
5111.47
5636.64
6123.09
6560.88
6944.17
7245.47
7416.27
7465.91
7401.25
7229.47
6959.49
6604.02
6180.86
5712.17
5221.28
4731.03
4262.69
3831.46
3443.6
3097.1
2784.96
2499.36
2234.98
1990.25
1766.85
1569.22
1404.86
1283.29
1209.98
1181.51
1188.65
1224.31
1288.7
1374.11
1466.99
1542.54
1565.08
1480.93
798.058
631.654
567.701
531.841
507.142
486.958
468.401
450.47
433.147
416.947
402.604
390.793
382.061
376.784
375.061
376.64
380.947
387.2
394.573
402.456
416.208
443.901
487.479
546.625
619.957
708.758
823.691
991.519
1246.96
1601.42
2024.74
2419.75
2695.18
2932.8
3128.98
3272.03
3351.15
3373.43
3340.58
3256.19
3126.05
2957.72
2760
2542
2310.11
2072.62
1839.23
1618.93
1419.45
1247.04
1106.68
1001.92
934.418
904.314
889.372
876.396
864.877
854.444
844.815
835.779
827.188
818.959
811.093
803.804
797.474
791.886
785.391
777.407
767.706
756.094
742.448
726.766
709.217
690.16
670.122
649.695
629.412
609.775
591.933
578.229
567.052
558.626
553.363
551.325
552.94
560.858
577.772
600.091
625.526
654.024
686.551
724.963
772.849
838.384
931.928
1031.25
1112.35
1167.28
1191.43
1183.28
1146.99
1093.63
1039.3
1000.28
987.54
1005.9
1059.71
1169.79
1374.03
1694.99
2115.24
2533.71
2786.18
2828.52
2745.25
2579.54
2361.46
2116.3
1853.16
1597.64
1372.72
1195.54
1079.18
1031.99
1016.64
1007.78
1005.53
1012.2
1027.61
1043.59
1059.14
1073.12
1083.87
1088.64
1084.92
1075.67
1063.55
1051.16
1046.68
1061.65
1089.79
1129.62
1182.35
1249.57
1333.17
1435.58
1561.02
1736.12
1981.26
2246.59
2498.53
2713.06
2870.78
2954.01
2946.54
2842.18
2661.59
2441.18
2204.32
1967.88
1746.41
1549.02
1378.04
1230.88
1103.37
991.823
893.791
808.1
734.877
675.352
631.422
604.844
595.744
600.339
612.446
629.318
648.256
666.678
693.01
743.341
1303.79
866.147
701.073
616.089
565.29
530.122
501.912
477.031
454.462
434.514
418.171
406.59
400.706
400.949
407.104
418.333
433.36
450.768
469.535
493.712
528.57
578.289
647.803
743.948
879.208
1073.85
1350.05
1709.6
2052.23
2280.4
2444.67
2545.03
2588.95
2588.46
2545.42
2461.99
2342.52
2193.84
2023.05
1838.57
1649.71
1465.7
1294.26
1141.93
1013
909.901
832.781
779.589
746.142
728.028
720.965
721.149
725.542
731.332
737.064
742.536
747.62
752.235
756.348
759.962
763.092
765.755
767.949
769.62
770.664
770.873
769.92
767.378
762.737
755.45
744.999
730.996
713.282
692.014
667.692
641.084
613.057
584.547
557.751
535.709
515.813
498.126
483.017
470.753
461.566
455.757
453.497
454.497
458.306
464.504
472.687
482.44
493.44
505.76
520.701
543.105
579.448
620.875
658.484
683.829
689.591
674.524
648.305
630.539
643.311
705.491
836.274
1061.43
1403.6
1837.16
2224.56
2357.02
2246
2030
1774.86
1522.41
1299.14
1119.41
988.154
904.431
860.179
843.863
843.909
852.226
861.984
872.874
884.833
897.888
911.995
926.844
941.826
955.564
965.6
967.812
961.512
949.245
932.764
913.627
893.177
872.607
852.605
833.641
816.207
800.847
788.082
778.501
773.059
774.515
805.787
885.693
1012.88
1178.7
1366.32
1553.32
1712.92
1821.56
1866.12
1838.85
1743.91
1597.84
1425.09
1250.12
1090.41
954.191
842.526
752.651
680.534
622.086
573.614
532.105
495.71
464.427
441.059
428.795
426.005
433.565
453.208
487.105
537.45
603.295
1786.73
1018.96
748.717
625.565
562.071
523.511
494.761
470.078
448.729
432.492
423.815
424.565
435.386
455.458
482.94
515.646
551.639
590.083
641.379
711.086
792.9
886.721
1001.69
1156.72
1376.28
1641.18
1874.1
2064.06
2180.85
2228.88
2225.85
2181.05
2102.95
1998.02
1871.08
1727.6
1574.16
1418.11
1266.94
1127.7
1006.05
905.489
827.057
769.724
730.879
707.077
694.647
690.19
690.89
694.683
700.148
706.37
712.738
718.628
723.831
728.207
731.667
734.198
735.872
736.849
737.353
737.648
738.007
738.695
739.876
741.542
743.471
745.187
745.954
744.81
740.659
732.413
719.189
700.525
676.566
648.128
616.561
583.419
552.222
525.396
500.5
477.7
457.18
439.18
424.072
412.292
404.267
400.238
400.112
403.617
410.401
419.973
431.643
444.544
457.752
470.556
483.167
497.865
513.336
527.673
538.67
545.185
551.343
569.201
617.173
717.161
894.817
1176.27
1559.42
1947.01
2116.68
1989.63
1746.77
1481.99
1242.76
1053.99
921.752
839.135
793.665
772.335
764.453
762.815
763.375
765.587
768.636
772.557
777.684
784.521
793.477
804.593
817.353
830.135
840.096
843.601
840.664
832.215
819.419
803.614
786.082
767.953
750.036
732.791
716.552
701.667
688.381
676.866
667.315
660.129
656.99
664.791
691.229
745.601
834.724
956.156
1098.22
1242.66
1368.76
1452.54
1475.08
1430.26
1327.93
1189.94
1041.4
902.74
785.626
693.374
623.702
571.692
531.875
499.553
471.58
446.719
425.608
410.112
401.689
402.962
417.017
446.665
493.83
556.571
2214.53
1094
731.939
593.608
536.211
506.319
483.778
463.321
447.612
442.495
452.481
478.419
517.859
566.496
620.269
677.076
737.469
819.467
912.838
1004.02
1104.68
1230.56
1385.14
1545.46
1709.4
1849.26
1943.1
1984.47
1974.47
1924.28
1844.6
1743.1
1626.09
1498.95
1366.98
1235.95
1111.83
999.998
904.551
827.696
769.609
728.726
702.368
687.416
680.847
680.064
683.041
688.316
694.9
702.141
709.593
716.922
723.586
729.337
733.924
737.117
738.731
738.656
736.89
733.575
729.029
723.724
718.258
713.312
709.552
707.521
707.506
709.422
712.721
716.37
718.893
718.506
713.358
701.91
683.312
657.729
626.447
591.485
558.673
528.58
500.307
474.136
450.156
428.432
409.167
392.74
379.707
370.622
365.751
365.078
368.456
375.607
386.042
399.008
413.47
428.19
441.904
453.754
464.016
472.285
480.736
492.979
514.665
555.859
633.152
769.208
989.053
1306.23
1677.74
1938.44
1885.1
1646.2
1379.18
1141.84
961.752
842.647
772.374
734.296
714.624
704.269
698.171
693.895
690.232
687.724
685.856
685.025
685.852
689.095
695.385
704.955
717.259
730.489
741.447
747.144
747.412
742.233
732.53
719.688
705.113
689.986
675.134
661.012
647.848
635.797
624.925
615.236
606.783
599.736
594.52
593.007
597.693
613.529
647.752
707.218
795.039
906.869
1030.9
1148.04
1234.58
1269.74
1243.89
1163.14
1046.47
917.843
797.911
698.836
623.694
569.354
530.096
500.291
475.804
454.323
435.054
418.591
406.898
403.058
411.079
434.752
476.479
534.114
2552.67
1116.05
681.936
554.755
518.823
503.756
488.97
473.977
469.122
485.736
526.734
585.951
654.513
726.64
800.671
880.642
981.31
1072.13
1160.57
1255.63
1355.74
1464.33
1572.63
1668.87
1741.8
1779.87
1779.14
1742.33
1676.12
1588.85
1487.41
1377.35
1263.66
1151.19
1044.74
948.766
866.739
800.606
750.628
715.591
693.281
681.048
676.289
676.755
680.688
686.822
694.302
702.567
711.23
719.988
728.564
736.679
744.136
750.742
756.171
760.067
762.072
761.843
759.089
753.675
745.713
735.563
723.871
711.583
699.866
689.955
682.918
679.435
679.593
682.794
687.714
692.336
694.11
690.392
679.035
658.97
630.852
597.343
564.872
532.996
502.543
474.167
448.091
424.29
402.732
383.569
367.259
354.465
345.73
341.327
341.352
345.759
354.27
366.292
380.857
396.632
412.069
425.731
436.906
446.104
455.385
470.746
501.024
558.309
659.943
828.223
1082.03
1412.4
1730.39
1837.32
1642.09
1373.4
1125.66
934.705
808.727
734.99
694.277
671.297
656.942
646.624
638.224
630.793
624.059
618.506
613.917
610.86
610.004
612.078
617.64
627.038
639.426
652.974
664.084
671.587
674.214
671.766
665.022
655.311
644.034
632.347
621.011
610.395
600.633
591.734
583.591
576.072
569.112
562.772
557.296
553.486
552.988
557.54
570.891
598.589
646.756
719.105
813.846
921.583
1025.2
1103.17
1135.87
1113.73
1042.37
939.774
828.421
727.129
645.849
585.751
542.761
511.34
486.822
466.189
447.86
431.369
418.212
411.335
414.905
433.341
469.585
521.541
2778.24
1109.43
624.581
530.912
522.64
521.273
512.499
505.062
519.872
569.181
643.103
726.379
811.014
896.146
985.978
1080.12
1154.56
1227.78
1302.87
1378.78
1452.97
1520.61
1574.45
1607.59
1614.97
1594.59
1548.54
1481.44
1398.97
1306.71
1209.53
1111.88
1018.04
931.985
856.996
795.234
747.467
713.117
690.589
677.714
672.185
671.892
675.116
680.584
687.444
695.163
703.431
712.05
720.868
729.719
738.409
746.817
755.135
763.082
770.327
776.491
781.144
783.794
783.866
780.752
774.007
763.448
749.261
732.182
713.553
695.223
679.195
667.157
660.078
658.084
660.41
665.386
670.439
672.244
667.446
653.456
629.744
600.459
568.938
536.394
504.543
474.497
446.795
421.542
398.628
377.978
359.794
344.636
333.169
325.907
323.212
325.306
332.185
343.487
358.383
375.506
393.048
409.115
422.418
433.425
444.968
463.46
499.798
568.888
689.99
884.247
1160.4
1481.84
1721.79
1696.21
1432.77
1168.17
953.313
805.838
717.854
668.65
640.033
621.201
606.981
595.094
584.435
574.466
566.035
559.109
553.829
550.671
550.132
552.825
559.041
569.295
581.908
595.085
607.022
615.794
620.148
619.843
615.583
608.643
600.383
591.899
583.857
576.542
569.991
564.054
558.479
553.047
547.631
542.22
536.949
532.227
529.261
529.137
533.783
546.496
572.039
615.599
680.41
764.726
859.671
949.506
1014.71
1037.98
1011.98
943.887
851.846
756.384
672.609
606.864
558.362
522.929
496.057
474.353
455.813
439.601
426.299
418.408
419.718
434.587
466.228
512.942
2887.95
1044.3
572.794
527.837
544.162
552.244
549.505
555.822
597.927
678.308
770.21
859.14
943.948
1025.24
1101.69
1167.21
1229.15
1288.37
1344.02
1393.97
1435.06
1463.34
1474.96
1467.38
1439.9
1393.87
1332.33
1259.22
1178.75
1095.08
1012.16
933.76
863.176
802.922
754.418
717.882
692.475
676.603
668.292
665.538
666.561
669.953
674.726
680.276
686.297
692.684
699.428
706.548
714.036
721.831
729.811
738.224
746.949
755.758
764.421
772.686
780.252
786.719
791.531
793.898
792.858
787.457
776.957
761.142
740.633
717.204
693.629
672.931
657.246
647.603
643.88
644.98
648.896
652.367
651.421
642.287
623.929
599.09
569.43
537.392
505.102
474.076
445.192
418.793
394.862
373.256
353.978
337.388
324.102
314.746
309.889
310.023
315.465
326.196
341.688
360.751
381.489
401.55
418.852
432.958
447.025
468.286
509.039
586.642
722.082
934.146
1219.12
1513.46
1669.59
1551.71
1269.6
1016.56
835.32
721.814
657.486
620.401
596.235
578.059
562.924
549.465
537.045
525.621
516.913
510.149
505.678
503.814
504.765
509.069
516.737
527.304
540.082
553.628
566.078
575.689
581.309
582.693
580.49
575.909
570.252
564.539
559.346
554.869
551.028
547.538
544.083
540.418
536.391
531.948
527.154
522.244
517.951
515.207
515.245
520.099
532.97
558.174
600.087
660.882
737.84
821.769
897.617
947.794
958.095
924.994
858.315
775.843
694.755
625.663
571.694
531.096
500.37
476.256
456.527
440.176
427.38
419.737
420.479
433.501
461.931
504.705
2887.89
948.82
541.588
540.768
573.343
588.631
596.058
623.577
687.088
773.308
862.376
945.904
1021.88
1089
1146.29
1198.1
1244.69
1285.49
1319.21
1344
1357.72
1358.38
1344.67
1316.35
1274.29
1220.42
1157.44
1088.51
1017.04
946.51
880.197
820.927
770.752
730.737
700.924
680.477
667.94
661.547
659.511
660.253
662.544
665.56
668.86
672.307
675.965
679.996
684.576
689.842
695.85
702.56
709.833
717.81
726.107
734.599
743.22
751.938
760.703
769.38
777.66
784.966
790.34
792.442
789.742
780.97
765.344
743.277
717.036
690.78
667.981
650.877
640.089
635.021
634.446
635.717
634.92
628.389
614.291
592.685
565.274
534.46
502.552
471.335
441.944
414.926
390.4
368.248
348.382
330.995
316.579
305.757
299.208
297.633
301.654
311.645
327.51
348.449
372.792
398.027
421.353
441.107
459.292
483.693
527.839
611.057
755.396
976.229
1256.99
1512.64
1593.4
1421.24
1143.47
912.477
756.161
664.155
613.344
581.89
559.115
540.666
524.649
510.04
496.594
485.2
477.313
471.807
468.922
468.904
471.693
477.342
485.936
497.283
510.571
524.44
537.241
547.446
554.021
556.722
556.142
553.438
549.866
546.382
543.486
541.273
539.547
537.969
536.223
534.057
531.289
527.818
523.639
518.88
513.955
509.664
506.911
507.098
512.419
526.085
552.046
593.759
651.997
722.644
795.756
856.74
890.193
886.177
845.873
781.08
707.728
638.75
580.78
534.983
499.601
472.112
450.411
433.286
420.714
413.86
414.979
427.342
454.036
494.452
2795.09
859.049
535.326
559.645
600.795
624.8
643.971
683.276
752.147
836.493
919.63
994.077
1057.22
1109.88
1154.81
1192.74
1223.7
1247.2
1262.38
1268.18
1263.67
1248.21
1221.72
1184.78
1138.58
1084.94
1026.21
965.119
904.62
847.576
796.461
753.076
718.378
692.445
674.587
663.549
657.763
655.606
655.612
656.64
657.942
659.171
660.301
661.521
663.116
665.361
668.466
672.532
677.543
683.403
690.057
696.95
703.861
710.795
717.853
725.212
733.09
741.665
750.962
760.715
770.254
778.382
783.185
782.861
775.604
760.291
737.4
711.061
685.26
663.31
646.658
635.159
628.513
624.983
621.559
614.821
602.077
582.404
556.752
527.206
496.053
465.187
435.884
408.819
384.208
361.977
342.002
324.356
309.399
297.684
289.911
286.908
289.542
298.558
314.339
336.611
364.168
394.713
425.091
452.499
477.147
506.123
553.587
640.191
788.299
1009.33
1275.29
1487.73
1509.21
1312.18
1049.55
839.854
703.475
625.495
580.719
550.897
528.009
508.976
492.279
477.044
463.598
453.577
447.253
443.503
442.277
443.606
447.594
454.366
463.973
476.142
490.022
504.283
517.438
528.146
535.46
539.12
539.682
538.299
536.232
534.394
533.207
532.675
532.546
532.491
532.195
531.38
529.82
527.361
523.934
519.576
514.5
509.316
504.769
501.917
502.369
508.514
523.555
550.963
593.045
648.908
712.827
774.046
818.775
834.811
817.304
771.468
709.508
644.32
584.798
534.832
494.772
463.331
438.938
420.456
407.567
401.063
402.846
415.473
441.657
480.827
2639.97
797.039
537.546
573.509
622.589
655.462
682.207
724.683
791.459
870.473
946.257
1011.14
1064.41
1107.41
1141.38
1167.21
1185.23
1195.38
1197.36
1190.89
1175.78
1152.09
1120.19
1080.86
1035.33
985.269
932.818
880.395
830.459
785.215
746.345
714.838
690.94
674.2
663.619
657.841
655.376
654.816
655.014
655.208
655.046
654.542
653.961
653.68
654.072
655.409
657.823
661.291
665.645
670.604
676.012
681.14
685.968
690.603
695.274
700.283
706.023
712.919
721.301
731.24
742.416
754.018
763.912
770.224
770.753
763.525
747.265
725.317
701.241
678.412
658.699
642.458
629.681
620.11
612.173
602.833
589.121
569.599
544.646
515.918
485.502
455.244
426.44
399.805
375.589
353.742
334.118
316.708
301.747
289.684
281.177
277.096
278.47
286.358
301.601
324.502
354.466
389.688
427.086
463.071
496.05
531.303
582.661
671.15
818.707
1032.8
1276.81
1447.41
1427.64
1225.68
982.352
791.373
668.976
598.36
555.8
526.069
502.731
483.309
466.488
451.672
439.429
430.96
425.944
423.409
423.225
425.46
430.3
437.956
448.485
461.525
476.121
490.921
504.536
515.734
523.584
527.8
528.97
528.317
527.157
526.399
526.395
527.094
528.233
529.47
530.453
530.86
530.427
528.972
526.39
522.653
517.832
512.278
506.614
501.692
498.785
499.755
507.164
524.083
553.249
595.513
648.113
703.737
751.236
778.646
778.021
749.344
700.255
641.756
583.422
531.099
487.143
451.742
424.177
403.66
389.855
383.263
385.46
398.62
424.628
463.055
2471.64
742.81
536.323
579.399
634.988
675.75
706.87
747.056
807.19
878.938
948.271
1007.6
1054.73
1090.35
1115.96
1132.8
1141.61
1142.8
1136.56
1123.08
1102.58
1075.42
1042.13
1003.55
960.873
915.678
869.881
825.54
784.61
748.707
718.927
695.757
679.069
668.191
662.03
659.252
658.478
658.49
658.389
657.693
656.333
654.564
652.824
651.584
651.23
651.982
653.852
656.645
660.013
663.547
666.926
669.818
672.278
674.494
676.779
679.458
682.98
687.888
694.706
703.748
714.96
728.019
740.726
751.148
757.057
756.262
747.71
732.239
712.459
691.448
671.067
651.834
634.175
618.797
605.446
592.063
575.83
554.96
529.534
500.945
471.035
441.472
413.445
387.616
364.209
343.165
324.315
307.585
293.102
281.198
272.445
267.682
268.017
274.735
289.081
311.927
343.356
382.244
425.944
470.546
512.923
555.844
611.803
701.176
844.813
1046.73
1265.1
1399.06
1354.33
1159.58
936.487
761.117
647.539
579.964
537.556
507.264
483.461
463.881
447.339
433.407
422.512
415.401
411.42
409.681
410.084
412.828
418.232
426.604
438.013
451.989
467.439
482.945
497.137
508.78
516.89
521.169
522.339
521.82
521.046
520.93
521.778
523.474
525.696
528.037
530.079
531.459
531.91
531.276
529.482
526.493
522.282
516.901
510.764
504.55
499.314
496.59
498.497
507.677
526.816
557.566
599.027
646.532
691.58
723.64
733.809
718.715
681.92
631.649
576.83
524.248
477.788
439.042
408.277
385.248
369.782
362.236
363.896
376.777
402.49
440.441
2298.5
692.972
531.268
576.648
635.799
683.055
717.412
752.812
803.25
867.147
932.692
989.202
1032.92
1064.13
1084.52
1095.76
1099.03
1095.1
1084.53
1067.78
1045.29
1017.55
985.17
948.991
910.154
870.098
830.47
792.953
759.076
730.038
706.595
688.998
676.988
669.844
666.489
665.639
666.001
666.461
666.253
665.043
662.91
660.235
657.543
655.35
654.04
653.794
654.55
655.956
657.554
658.959
659.904
660.42
660.606
660.79
661.232
662.229
664.207
667.723
673.371
681.596
692.473
705.486
719.424
732.434
742.172
746.322
743.403
733.547
718.511
700.515
680.824
659.813
638.31
617.87
599.232
581.173
561.366
538.144
511.423
482.409
452.768
423.944
396.926
372.232
350.002
330.135
312.434
296.773
283.183
271.888
263.345
258.312
257.891
263.498
276.697
298.882
330.831
372.208
421.075
473.695
525.822
577.448
638.66
728.258
865.534
1051.89
1243.84
1348.1
1291.27
1110.44
907.24
744.732
636.312
569.151
525.701
494.509
470.269
450.703
434.666
421.718
411.985
405.796
402.38
401.015
401.659
404.636
410.423
419.433
431.729
446.717
463.138
479.47
494.275
506.196
514.144
517.899
518.457
517.572
516.849
517.181
518.757
521.336
524.478
527.664
530.398
532.287
533.115
532.84
531.519
529.205
525.847
521.199
515.325
508.682
502.093
496.851
494.783
498.207
509.632
531.009
562.528
601.39
641.322
673.553
689.452
683.922
657.501
615.625
565.798
514.83
467.491
426.476
392.975
367.35
349.712
340.409
340.474
351.764
376.078
413.054
2119.66
646.212
523.943
566.569
624.842
676.149
713.985
745.301
785.149
841.025
902.793
958.269
1001.45
1031.5
1049.96
1058.83
1059.74
1053.8
1041.82
1024.45
1002.26
975.817
945.758
912.899
878.275
843.125
808.813
776.695
747.984
723.641
704.279
690.11
680.911
676.047
674.544
675.151
676.544
677.65
677.744
676.53
674.12
670.915
667.451
664.236
661.634
659.791
658.591
657.616
656.443
655.104
653.609
652.013
650.428
649.098
648.249
648.162
649.231
651.987
657.034
664.878
675.698
689.12
704.066
718.758
730.905
738.205
739.097
733.411
722.238
706.817
687.56
664.677
639.557
614.543
591.017
568.27
544.441
518.235
489.741
460.096
430.712
402.77
377.025
353.796
333.091
314.745
298.527
284.266
271.918
261.607
253.673
248.758
247.894
252.529
264.44
285.459
317.028
359.646
412.272
471.785
533.396
594.425
661.57
751.134
880.536
1049.63
1216.35
1298.02
1238.3
1074.71
890.624
739.075
633.664
565.415
520.147
487.748
463.008
443.487
427.954
415.81
406.856
401.1
397.787
396.414
397.053
400.14
406.27
415.936
429.179
445.259
462.731
479.932
495.256
507.118
514.332
516.911
516.341
514.794
514.011
514.772
517.065
520.451
524.304
527.947
530.786
532.445
532.844
532.162
530.699
528.709
526.219
522.758
517.945
511.904
505.126
498.61
493.932
493.194
498.759
512.683
535.779
566.517
600.359
630.192
648.204
648.674
630.198
595.895
551.606
503.561
456.818
414.769
379.335
351.429
331.479
319.92
317.65
326.294
347.779
382.418
1925.33
606.16
516.926
552.053
604.223
655.377
696.437
726.492
758.818
805.032
861.39
916.251
961.166
993.219
1013.01
1022.54
1023.82
1018.35
1007.19
991.156
970.902
947.047
920.231
891.189
860.764
829.842
799.546
771.782
747.006
725.967
709.222
697.016
689.235
685.393
684.655
685.89
687.901
689.642
690.357
689.668
687.575
684.363
680.469
676.333
672.287
668.479
664.848
661.171
657.378
653.616
649.921
646.418
643.255
640.62
638.738
637.894
638.485
641.037
646.146
654.314
665.719
679.98
696.011
712.01
725.706
734.879
738.073
735
726.122
711.619
691.167
665.221
636.052
606.649
578.578
551.302
523.399
494.103
463.816
433.661
404.814
378.115
354.01
332.608
313.776
297.269
282.827
270.24
259.41
250.375
243.368
238.908
237.906
241.76
252.34
271.802
302.176
344.782
399.574
464.394
534.601
605.349
679.214
769.028
890.012
1041.52
1185.38
1250.76
1194.14
1049.1
883.326
741.752
638.458
568.424
520.806
486.823
461.344
441.692
426.428
414.717
406.096
400.367
396.845
395.233
395.735
398.902
405.429
415.861
430.169
447.425
465.987
484.005
499.588
510.854
516.617
517.368
515.276
512.962
512.196
513.516
516.602
520.72
524.976
528.488
530.593
531.029
529.976
527.937
525.532
523.276
521.375
519.274
516.191
511.828
506.198
499.857
494.047
490.664
491.988
500.15
516.358
539.957
567.722
593.959
611.825
615.591
602.749
574.705
535.765
491.296
446.214
404.233
367.759
338.143
316.087
302.125
297.086
302.412
320
350.777
1702.37
584.127
512.911
536.767
578.243
623.797
665.034
696.638
725.588
762.432
810.648
862.919
909.989
946.467
970.893
984.29
988.652
985.871
977.346
964.011
946.491
926.018
903.149
878.45
852.615
826.419
800.937
777.091
755.46
736.695
721.333
709.705
701.875
697.59
696.264
697.021
698.853
700.788
702.031
702.064
700.686
697.966
694.153
689.561
684.478
679.098
673.505
667.717
661.85
655.961
650.28
645.011
640.356
636.525
633.762
632.387
632.836
635.66
641.446
650.639
663.315
678.95
696.294
713.414
728.021
738.044
742.205
740.04
731.193
714.855
690.589
659.866
626.029
592.289
559.902
528.307
496.581
464.581
433.025
402.956
375.227
350.305
328.319
309.148
292.527
278.15
265.727
255.025
245.904
238.346
232.494
228.745
227.873
231.154
240.444
258.081
286.562
327.963
383.233
451.38
528.604
608.907
690.45
781.449
894.263
1028.51
1151.83
1205.68
1156.03
1030.29
882.656
751.141
650.119
578.206
527.851
491.782
465.093
444.885
429.447
417.688
408.945
402.88
398.926
396.97
397.336
400.674
407.761
419.147
434.671
453.18
472.813
491.45
506.8
516.686
520.151
518.469
514.65
511.702
511.245
513.403
517.406
522.111
526.277
528.829
529.154
527.271
523.755
519.495
515.413
512.263
510.443
509.49
508.422
506.546
503.309
498.659
493.322
488.872
487.489
491.399
502.129
519.681
541.847
564.122
580.613
585.877
576.835
553.714
519.542
478.784
435.974
394.869
358.147
327.456
303.713
287.519
279.626
281.309
294.357
320.122
1438.33
572.301
513.782
523.945
551.633
587.614
625.765
660.625
691.033
723.33
764.031
811.474
858.576
899.008
929.286
948.53
957.622
958.556
953.453
943.557
929.886
913.369
894.6
874.17
852.683
830.8
809.262
788.649
769.48
752.293
737.583
725.735
716.956
711.217
708.208
707.354
707.902
709.04
710.01
710.221
709.301
707.106
703.676
699.171
693.796
687.75
681.209
674.331
667.269
660.131
653.195
646.74
641.047
636.409
633.167
631.743
632.664
636.529
643.899
655.093
669.955
687.654
706.612
724.673
739.544
749.348
752.853
749.03
736.515
714.181
682.76
645.449
606.324
568.096
531.375
495.668
460.712
426.958
395.266
366.404
340.784
318.471
299.28
282.883
268.916
257.031
246.921
238.338
231.122
225.219
220.711
217.888
217.375
220.283
228.349
243.958
269.935
309.019
363.13
432.491
514.529
603.235
692.993
786.794
893.55
1013.44
1120.45
1167.1
1125.75
1017.6
886.29
764.377
666.152
592.953
540.035
501.668
473.368
452.146
436.065
423.83
414.648
408.067
403.634
401.382
401.751
405.486
413.417
426.037
442.977
462.814
483.41
502.247
516.532
523.935
524.114
519.481
513.979
510.819
511.204
514.611
519.645
524.624
527.939
528.45
525.833
520.611
513.867
506.842
500.654
496.161
493.89
493.669
494.557
495.53
495.505
493.766
490.386
486.455
483.948
485.159
491.901
504.697
522.137
540.68
555.284
560.9
554.214
534.682
504.381
466.974
426.54
386.72
350.289
319.079
294.145
276.118
265.643
263.784
272.143
292.282
1185.1
569.781
521.565
519.274
533.982
559.517
591.667
626.543
659.15
690.795
726.633
768.589
813.309
855.722
890.899
914.694
928.69
934.55
933.932
928.22
918.594
905.989
891.12
874.608
857.016
838.887
820.731
802.966
785.991
770.226
756.086
743.946
734.085
726.624
721.483
718.362
716.78
716.142
715.825
715.264
714.02
711.814
708.525
704.16
698.821
692.658
685.852
678.608
671.077
663.477
656.126
649.357
643.519
638.992
636.224
635.753
638.199
644.191
654.205
668.34
686.082
706.156
726.577
744.975
759.094
767.102
767.34
757.891
737.077
705.084
664.887
621.018
577.204
535.102
494.843
456.308
419.851
386.191
355.987
329.563
306.894
287.697
271.557
258.039
246.738
237.288
229.382
222.78
217.32
212.938
209.685
207.779
207.717
210.432