/*--------------------------------*- C++ -*----------------------------------*\
| =========                 |                                                 |
| \\      /  F ield         | OpenFOAM: The Open Source CFD Toolbox           |
|  \\    /   O peration     | Version:  2112                                  |
|   \\  /    A nd           | Website:  www.openfoam.com                      |
|    \\/     M anipulation  |                                                 |
\*---------------------------------------------------------------------------*/
FoamFile
{
    version     2.0;
    format      ascii;
    arch        "LSB;label=32;scalar=64";
    class       volVectorField;
    location    "0.03";
    object      U;
}
// * * * * * * * * * * * * * * * * * * * * * * * * * * * * * * * * * * * * * //

dimensions      [0 1 -1 0 0 0 0];

internalField   nonuniform List<vector> 
12885
(
(1.24566 0.030995 0)
(0.482165 0.000844228 0)
(0.35511 0.000172604 0)
(0.308834 8.18888e-05 0)
(0.287256 4.99937e-05 0)
(0.273028 4.01179e-05 0)
(0.261815 3.81017e-05 0)
(0.251489 3.55684e-05 0)
(0.243726 3.96937e-05 0)
(0.233381 2.88562e-05 0)
(0.232337 1.06518e-05 0)
(0.226888 7.82584e-05 0)
(0.201899 9.24682e-05 0)
(0.20222 2.30456e-05 0)
(0.198878 1.62653e-05 0)
(0.19774 9.18986e-06 0)
(0.196347 1.77924e-05 0)
(0.19405 2.36298e-05 0)
(0.192365 1.53011e-05 0)
(0.191455 1.09721e-05 0)
(0.190686 1.2667e-05 0)
(0.189741 9.35542e-06 0)
(0.189571 -8.30282e-06 0)
(0.190457 -3.26242e-05 0)
(0.19254 -2.28544e-05 0)
(0.192079 -6.22221e-07 0)
(0.193544 -6.81565e-05 0)
(0.195592 -0.000141293 0)
(0.198806 -1.83407e-05 0)
(0.192953 0.000262681 0)
(0.189659 0.000575447 0)
(0.133042 -0.000148149 0)
(0.129133 0.000124771 0)
(0.124803 5.0807e-05 0)
(0.123318 1.76057e-05 0)
(0.123001 -2.18933e-06 0)
(0.123092 -1.36183e-05 0)
(0.123845 -6.64927e-05 0)
(0.127123 -0.000440171 0)
(0.125263 -0.014035 0)
(3.46375 0.0956861 0)
(1.584 0.00753208 0)
(1.16581 0.00169437 0)
(0.996019 0.000759423 0)
(0.914486 0.000449973 0)
(0.860896 0.000351777 0)
(0.819081 0.000327443 0)
(0.781006 0.000300352 0)
(0.752425 0.00032868 0)
(0.71496 0.000230709 0)
(0.710189 0.000128043 0)
(0.685872 0.000761434 0)
(0.593158 0.000651261 0)
(0.596416 9.83692e-05 0)
(0.587112 0.000130748 0)
(0.583167 8.28775e-05 0)
(0.577615 0.000134454 0)
(0.569671 0.000147698 0)
(0.563837 9.60533e-05 0)
(0.560381 7.45257e-05 0)
(0.557476 9.04624e-05 0)
(0.553887 6.60289e-05 0)
(0.552864 -4.56674e-05 0)
(0.555086 -0.000200527 0)
(0.561283 -0.000133361 0)
(0.559023 -2.09721e-05 0)
(0.562841 -0.000305553 0)
(0.564358 -0.00055035 0)
(0.564835 0.00022614 0)
(0.54618 0.00124291 0)
(0.540739 0.00513663 0)
(0.48644 0.00549479 0)
(0.478903 0.00172056 0)
(0.467486 0.000798421 0)
(0.462584 0.000297051 0)
(0.461352 1.86332e-05 0)
(0.461516 -0.000181814 0)
(0.463692 -0.000838806 0)
(0.469963 -0.0019485 0)
(0.465557 -0.0360062 0)
(5.9932 0.192046 0)
(3.43186 0.0306392 0)
(2.56912 0.00838508 0)
(2.18721 0.0040056 0)
(1.9957 0.00240898 0)
(1.87005 0.00187712 0)
(1.77312 0.00174605 0)
(1.68603 0.00160577 0)
(1.62085 0.00173726 0)
(1.53693 0.00124525 0)
(1.52362 0.000917667 0)
(1.4521 0.00472667 0)
(1.24071 0.00311395 0)
(1.25357 0.00017159 0)
(1.24142 0.000974054 0)
(1.23331 0.000498602 0)
(1.21912 0.000756917 0)
(1.20272 0.000673749 0)
(1.19079 0.000400149 0)
(1.18281 0.000391124 0)
(1.17618 0.000503311 0)
(1.1679 0.000385734 0)
(1.16485 -0.000110564 0)
(1.16736 -0.000837781 0)
(1.17773 -0.000476337 0)
(1.17115 -6.20979e-06 0)
(1.1766 -0.000413127 0)
(1.1623 0.000915059 0)
(1.14249 0.00376637 0)
(1.10337 0.00387784 0)
(1.10715 0.00801121 0)
(1.0874 0.00954688 0)
(1.07771 0.00718222 0)
(1.06438 0.0036904 0)
(1.0564 0.00153691 0)
(1.05383 0.000236966 0)
(1.05371 -0.000728824 0)
(1.0565 -0.00320037 0)
(1.0615 -0.00518002 0)
(1.05785 -0.0390682 0)
(8.34451 0.298023 0)
(6.23016 0.0903812 0)
(4.94817 0.0322452 0)
(4.25212 0.0162495 0)
(3.87043 0.00990224 0)
(3.6164 0.00767149 0)
(3.42284 0.00712817 0)
(3.25235 0.00653774 0)
(3.12552 0.00702062 0)
(2.9673 0.00505219 0)
(2.93574 0.00641957 0)
(2.73754 0.0165592 0)
(2.4482 0.0125958 0)
(2.39243 -3.08708e-05 0)
(2.38537 -0.00080902 0)
(2.36981 0.000927722 0)
(2.33636 0.00390323 0)
(2.31097 0.0050598 0)
(2.29273 0.00353814 0)
(2.27755 0.00265071 0)
(2.26472 0.00243491 0)
(2.24835 0.00185702 0)
(2.24132 -2.30099e-05 0)
(2.23902 -0.00347293 0)
(2.24674 -0.000637954 0)
(2.22641 0.00279479 0)
(2.22806 0.00365233 0)
(2.18014 0.00566571 0)
(2.1577 0.00782036 0)
(2.10718 0.0211957 0)
(2.0789 0.01897 0)
(2.09504 0.00338283 0)
(2.09677 0.00708436 0)
(2.09329 0.00607197 0)
(2.09007 0.00344952 0)
(2.08869 0.000735154 0)
(2.08851 -0.0016439 0)
(2.08947 -0.00593263 0)
(2.09053 -0.0105279 0)
(2.08617 -0.0242451 0)
(9.72135 0.357846 0)
(9.0693 0.178054 0)
(8.20156 0.0955895 0)
(7.43442 0.0609004 0)
(6.86879 0.0417395 0)
(6.44077 0.0316827 0)
(6.10869 0.0270921 0)
(5.82057 0.0232556 0)
(5.60655 0.0245066 0)
(5.35793 0.0185807 0)
(5.28099 0.0208172 0)
(4.95521 0.0450508 0)
(4.78851 0.0446285 0)
(4.58867 0.017261 0)
(4.4438 0.0102709 0)
(4.343 0.00773793 0)
(4.26424 0.00476799 0)
(4.24887 0.000848653 0)
(4.22628 0.000668011 0)
(4.20093 0.00328437 0)
(4.17731 0.00585567 0)
(4.14782 0.00596045 0)
(4.13485 0.00359786 0)
(4.1069 0.00219104 0)
(4.07497 0.00269612 0)
(4.05947 0.0115729 0)
(4.02585 0.0115577 0)
(3.99735 0.0167033 0)
(3.97528 0.032642 0)
(3.9806 0.0300389 0)
(3.94144 0.0224544 0)
(3.9381 0.0157485 0)
(3.92981 0.0117162 0)
(3.9191 0.0082786 0)
(3.91103 0.00492134 0)
(3.90441 0.00154612 0)
(3.90056 -0.0018914 0)
(3.89473 -0.00591506 0)
(3.89258 -0.0101694 0)
(3.88285 -0.0152272 0)
(10.0376 0.34079 0)
(10.2214 0.195969 0)
(10.0826 0.129093 0)
(9.81932 0.10458 0)
(9.60335 0.0921308 0)
(9.33204 0.0841182 0)
(9.08223 0.0791264 0)
(8.84149 0.0712081 0)
(8.64389 0.0689053 0)
(8.45725 0.0636182 0)
(8.26567 0.0662947 0)
(8.12103 0.0842772 0)
(7.98297 0.0829631 0)
(7.8857 0.0684374 0)
(7.76666 0.0545246 0)
(7.6581 0.04722 0)
(7.5489 0.0462537 0)
(7.46253 0.0401181 0)
(7.37033 0.0299712 0)
(7.32121 0.0269742 0)
(7.26326 0.0251571 0)
(7.22956 0.0265307 0)
(7.16974 0.0261208 0)
(7.13228 0.0192091 0)
(7.08359 0.0292535 0)
(7.06028 0.0372161 0)
(7.02301 0.0352402 0)
(7.00506 0.0419101 0)
(6.98153 0.0450083 0)
(6.96424 0.0449195 0)
(6.94961 0.0420347 0)
(6.93731 0.03704 0)
(6.9249 0.0321361 0)
(6.9117 0.0280299 0)
(6.90014 0.0244574 0)
(6.8887 0.0210502 0)
(6.88003 0.0177626 0)
(6.86937 0.0145229 0)
(6.86316 0.0116028 0)
(6.8512 0.00894358 0)
(10.0738 0.299302 0)
(10.3018 0.195793 0)
(10.2984 0.130234 0)
(10.2721 0.114449 0)
(10.2103 0.103227 0)
(10.1859 0.0958219 0)
(10.1508 0.0947258 0)
(10.1234 0.0952569 0)
(10.0721 0.0959599 0)
(10.0348 0.0933956 0)
(9.99134 0.0999658 0)
(9.96216 0.111991 0)
(9.93677 0.111776 0)
(9.91427 0.100447 0)
(9.89019 0.0907033 0)
(9.862 0.082536 0)
(9.83679 0.0786646 0)
(9.80383 0.0699341 0)
(9.78221 0.0707671 0)
(9.75159 0.073406 0)
(9.72531 0.0751112 0)
(9.69654 0.0699841 0)
(9.67918 0.0643205 0)
(9.66371 0.0640303 0)
(9.65667 0.0719035 0)
(9.63756 0.0775834 0)
(9.63154 0.0721747 0)
(9.62183 0.0723153 0)
(9.61843 0.0722959 0)
(9.61182 0.0715418 0)
(9.60634 0.0693009 0)
(9.60156 0.0659855 0)
(9.59718 0.0624132 0)
(9.59234 0.0590517 0)
(9.58777 0.0560809 0)
(9.58267 0.0533562 0)
(9.57861 0.0508557 0)
(9.57357 0.0486114 0)
(9.57055 0.0466797 0)
(9.56514 0.0449983 0)
(10.0426 0.234734 0)
(10.2887 0.189157 0)
(10.3068 0.13042 0)
(10.2877 0.115425 0)
(10.2856 0.107011 0)
(10.2917 0.102987 0)
(10.2964 0.0997606 0)
(10.3014 0.096979 0)
(10.304 0.0957925 0)
(10.308 0.0969348 0)
(10.3125 0.0996738 0)
(10.3177 0.102077 0)
(10.3247 0.100436 0)
(10.3313 0.0939545 0)
(10.3353 0.0864862 0)
(10.3353 0.0806343 0)
(10.3341 0.0767394 0)
(10.3321 0.074456 0)
(10.3311 0.0722217 0)
(10.3288 0.0706273 0)
(10.3275 0.0691849 0)
(10.3271 0.069284 0)
(10.327 0.0684451 0)
(10.3277 0.0688343 0)
(10.3256 0.0662493 0)
(10.3277 0.067134 0)
(10.3252 0.0620884 0)
(10.3324 0.0644747 0)
(10.3258 0.0651105 0)
(10.3364 0.0579187 0)
(10.3359 0.0560514 0)
(10.335 0.0544922 0)
(10.3349 0.0528683 0)
(10.335 0.0512541 0)
(10.335 0.0497492 0)
(10.3346 0.0483809 0)
(10.3343 0.0471663 0)
(10.3337 0.0460869 0)
(10.3334 0.0451516 0)
(10.3326 0.0443356 0)
(10.0178 0.141815 0)
(10.1773 0.156382 0)
(10.2681 0.120962 0)
(10.284 0.111373 0)
(10.289 0.106928 0)
(10.2955 0.100885 0)
(10.3029 0.0955992 0)
(10.3103 0.0922885 0)
(10.3175 0.0910922 0)
(10.3243 0.0908798 0)
(10.331 0.0907047 0)
(10.3376 0.0903596 0)
(10.3446 0.0890112 0)
(10.3514 0.0861127 0)
(10.357 0.0825258 0)
(10.3608 0.0792451 0)
(10.3632 0.0768381 0)
(10.3648 0.075111 0)
(10.3662 0.0737058 0)
(10.3675 0.0728432 0)
(10.3688 0.0719487 0)
(10.3696 0.0713235 0)
(10.37 0.0699437 0)
(10.3696 0.0692558 0)
(10.3693 0.067485 0)
(10.3684 0.067463 0)
(10.3683 0.0648568 0)
(10.3674 0.0655938 0)
(10.368 0.0569445 0)
(10.3675 0.0583476 0)
(10.368 0.0600847 0)
(10.3682 0.0594671 0)
(10.3682 0.058684 0)
(10.3681 0.0579116 0)
(10.3681 0.0571753 0)
(10.368 0.056484 0)
(10.3678 0.0558474 0)
(10.3676 0.0552614 0)
(10.3674 0.0547303 0)
(10.3672 0.0542433 0)
(10.0036 0.0610861 0)
(10.0666 0.102968 0)
(10.1315 0.0931687 0)
(10.1634 0.0841283 0)
(10.1754 0.0803289 0)
(10.1836 0.0786385 0)
(10.1925 0.0775536 0)
(10.2019 0.076866 0)
(10.2105 0.0764666 0)
(10.2181 0.0761898 0)
(10.2248 0.0758348 0)
(10.2309 0.0753501 0)
(10.2366 0.0744677 0)
(10.2418 0.0732369 0)
(10.2463 0.0715262 0)
(10.25 0.0699489 0)
(10.2528 0.0682293 0)
(10.255 0.0671394 0)
(10.2567 0.0656502 0)
(10.2582 0.065136 0)
(10.2595 0.0635248 0)
(10.2608 0.0637159 0)
(10.262 0.0616042 0)
(10.2633 0.0631259 0)
(10.2645 0.0598403 0)
(10.2656 0.0637981 0)
(10.2668 0.0576626 0)
(10.268 0.0530682 0)
(10.2681 0.0548895 0)
(10.2699 0.0579731 0)
(10.2689 0.059826 0)
(10.2686 0.0593225 0)
(10.2688 0.0586685 0)
(10.269 0.058065 0)
(10.2692 0.0575199 0)
(10.2692 0.0570268 0)
(10.2691 0.0565804 0)
(10.2691 0.0561778 0)
(10.269 0.0558146 0)
(10.269 0.0554913 0)
(9.99888 0.0179029 0)
(10.0222 0.0451704 0)
(10.0496 0.0531554 0)
(10.072 0.053999 0)
(10.0871 0.0543724 0)
(10.0976 0.0558063 0)
(10.1056 0.0568687 0)
(10.1135 0.0580462 0)
(10.1201 0.0578594 0)
(10.1266 0.0577206 0)
(10.1324 0.0575878 0)
(10.1375 0.0572482 0)
(10.1419 0.0569747 0)
(10.1459 0.056328 0)
(10.1493 0.0559405 0)
(10.1524 0.0550119 0)
(10.155 0.0548265 0)
(10.1573 0.0536765 0)
(10.1591 0.0540632 0)
(10.161 0.0524316 0)
(10.1622 0.053836 0)
(10.1639 0.0510284 0)
(10.1644 0.0543394 0)
(10.1663 0.048969 0)
(10.1657 0.0560738 0)
(10.168 0.0453088 0)
(10.1683 0.0473945 0)
(10.1683 0.0509038 0)
(10.1693 0.0489899 0)
(10.1696 0.0490977 0)
(10.1698 0.0503669 0)
(10.1703 0.0504709 0)
(10.1708 0.050482 0)
(10.1712 0.0504862 0)
(10.1715 0.050491 0)
(10.1718 0.0504996 0)
(10.172 0.0505136 0)
(10.1722 0.050532 0)
(10.1724 0.0505535 0)
(10.1726 0.0505786 0)
(9.99962 0.0039594 0)
(10.0063 0.014119 0)
(10.016 0.0203128 0)
(10.0276 0.023181 0)
(10.0373 0.0251259 0)
(10.047 0.0261472 0)
(10.0531 0.027883 0)
(10.0611 0.028282 0)
(10.0675 0.0282691 0)
(10.071 0.0288877 0)
(10.0762 0.0293155 0)
(10.081 0.029841 0)
(10.0851 0.0303921 0)
(10.0886 0.0309088 0)
(10.0916 0.0313611 0)
(10.0943 0.0317747 0)
(10.0968 0.032148 0)
(10.0989 0.0325206 0)
(10.1009 0.0328566 0)
(10.1025 0.03322 0)
(10.1042 0.0335143 0)
(10.1054 0.0338818 0)
(10.1068 0.0340967 0)
(10.1076 0.0345164 0)
(10.109 0.0345776 0)
(10.1093 0.0351311 0)
(10.1108 0.0346799 0)
(10.1101 0.0360295 0)
(10.1122 0.0346574 0)
(10.1123 0.0353515 0)
(10.1123 0.0360879 0)
(10.1135 0.036338 0)
(10.114 0.0365273 0)
(10.1143 0.0366962 0)
(10.1144 0.0368523 0)
(10.1147 0.0369965 0)
(10.1149 0.0371297 0)
(10.1152 0.0372523 0)
(10.1155 0.0373662 0)
(10.1157 0.0374733 0)
(9.99972 -0.00193677 0)
(10.005 -0.00654912 0)
(10.0134 -0.00915701 0)
(10.0247 -0.00922015 0)
(10.0344 -0.00888879 0)
(10.045 -0.00722598 0)
(10.0509 -0.00697851 0)
(10.0594 -0.00484194 0)
(10.0673 -0.00168017 0)
(10.0712 -0.00125268 0)
(10.0742 -0.00162624 0)
(10.0803 -0.000707961 0)
(10.0851 0.000354227 0)
(10.0887 0.00126968 0)
(10.0918 0.00228341 0)
(10.0945 0.0030397 0)
(10.0974 0.00404413 0)
(10.0997 0.00458375 0)
(10.1022 0.00567234 0)
(10.1039 0.0058749 0)
(10.1063 0.00723124 0)
(10.1071 0.00684229 0)
(10.1098 0.00876483 0)
(10.1093 0.00736332 0)
(10.1125 0.0106421 0)
(10.1132 0.0108599 0)
(10.1136 0.0105041 0)
(10.1147 0.0105288 0)
(10.1161 0.010732 0)
(10.1168 0.011307 0)
(10.1174 0.0116767 0)
(10.1179 0.0119905 0)
(10.1185 0.012275 0)
(10.119 0.0125391 0)
(10.1196 0.0127849 0)
(10.12 0.0130132 0)
(10.1204 0.013224 0)
(10.1208 0.0134184 0)
(10.1212 0.0135968 0)
(10.1215 0.013763 0)
(9.99923 -0.00856162 0)
(10.0136 -0.028879 0)
(10.033 -0.0372804 0)
(10.0515 -0.0375929 0)
(10.0658 -0.0351561 0)
(10.076 -0.0333374 0)
(10.0833 -0.0319362 0)
(10.0901 -0.0312269 0)
(10.0968 -0.0282309 0)
(10.1025 -0.025683 0)
(10.1078 -0.0249568 0)
(10.1131 -0.0237957 0)
(10.1177 -0.0226753 0)
(10.1214 -0.0217581 0)
(10.1249 -0.0207141 0)
(10.1279 -0.0199538 0)
(10.1308 -0.0188988 0)
(10.1333 -0.0183912 0)
(10.1359 -0.01724 0)
(10.1377 -0.0171381 0)
(10.1401 -0.0156609 0)
(10.142 -0.0146772 0)
(10.1432 -0.0149358 0)
(10.1447 -0.0143773 0)
(10.1463 -0.0140273 0)
(10.1475 -0.0133448 0)
(10.1487 -0.0128067 0)
(10.1498 -0.0123983 0)
(10.1508 -0.012046 0)
(10.1516 -0.0117256 0)
(10.1524 -0.0114278 0)
(10.1532 -0.011151 0)
(10.1538 -0.0108941 0)
(10.1545 -0.0106581 0)
(10.155 -0.01044 0)
(10.1556 -0.0102413 0)
(10.156 -0.010056 0)
(10.1565 -0.00988948 0)
(10.1569 -0.00973113 0)
(10.1572 -0.00959295 0)
(10 -0.029536 0)
(10.0364 -0.0684663 0)
(10.0784 -0.073186 0)
(10.1089 -0.0643741 0)
(10.1249 -0.0571035 0)
(10.1328 -0.0536579 0)
(10.139 -0.0515865 0)
(10.1458 -0.0498725 0)
(10.1529 -0.0474242 0)
(10.1593 -0.0447183 0)
(10.1652 -0.0429041 0)
(10.1703 -0.0412627 0)
(10.1746 -0.0398444 0)
(10.1785 -0.0385577 0)
(10.1821 -0.0373752 0)
(10.1853 -0.036264 0)
(10.1883 -0.0352565 0)
(10.1909 -0.0343021 0)
(10.1934 -0.0334656 0)
(10.1956 -0.0326365 0)
(10.1978 -0.0319562 0)
(10.1996 -0.0311986 0)
(10.2013 -0.0305563 0)
(10.2029 -0.0299808 0)
(10.2044 -0.0294596 0)
(10.2057 -0.0289842 0)
(10.2069 -0.0285499 0)
(10.208 -0.0281526 0)
(10.209 -0.027788 0)
(10.21 -0.027453 0)
(10.2108 -0.0271447 0)
(10.2116 -0.0268617 0)
(10.2123 -0.0266013 0)
(10.2129 -0.026363 0)
(10.2135 -0.0261433 0)
(10.2141 -0.0259435 0)
(10.2146 -0.0257576 0)
(10.215 -0.0255908 0)
(10.2154 -0.0254327 0)
(10.2158 -0.0252951 0)
(10.0033 -0.0702145 0)
(10.0825 -0.119303 0)
(10.1549 -0.101392 0)
(10.1905 -0.079193 0)
(10.2005 -0.0700801 0)
(10.2043 -0.0673654 0)
(10.2101 -0.0649396 0)
(10.218 -0.0617041 0)
(10.2261 -0.0584158 0)
(10.2327 -0.0555296 0)
(10.2383 -0.0532582 0)
(10.2432 -0.0514183 0)
(10.2475 -0.0498325 0)
(10.2514 -0.0484205 0)
(10.255 -0.0471435 0)
(10.2583 -0.0459883 0)
(10.2613 -0.0449426 0)
(10.264 -0.0439982 0)
(10.2665 -0.0431422 0)
(10.2688 -0.0423662 0)
(10.2709 -0.0416604 0)
(10.2728 -0.0410183 0)
(10.2745 -0.0404388 0)
(10.2761 -0.0399152 0)
(10.2776 -0.0394395 0)
(10.279 -0.0390056 0)
(10.2802 -0.0386085 0)
(10.2813 -0.0382453 0)
(10.2824 -0.037913 0)
(10.2833 -0.0376095 0)
(10.2842 -0.0373318 0)
(10.285 -0.0370783 0)
(10.2857 -0.0368459 0)
(10.2864 -0.0366338 0)
(10.287 -0.0364387 0)
(10.2876 -0.0362614 0)
(10.2881 -0.0360969 0)
(10.2886 -0.0359492 0)
(10.289 -0.0358096 0)
(10.2894 -0.0356879 0)
(10.0106 -0.131222 0)
(10.155 -0.166055 0)
(10.2505 -0.113869 0)
(10.2783 -0.0869044 0)
(10.2799 -0.0808337 0)
(10.2824 -0.0781327 0)
(10.2898 -0.0738854 0)
(10.2988 -0.0692184 0)
(10.3067 -0.0653149 0)
(10.3132 -0.0623289 0)
(10.3186 -0.060011 0)
(10.3234 -0.0580898 0)
(10.3277 -0.056423 0)
(10.3317 -0.0549514 0)
(10.3354 -0.0536446 0)
(10.3387 -0.0524798 0)
(10.3418 -0.0514398 0)
(10.3445 -0.0505097 0)
(10.3471 -0.0496751 0)
(10.3494 -0.0489223 0)
(10.3515 -0.0482402 0)
(10.3535 -0.0476211 0)
(10.3553 -0.0470585 0)
(10.3569 -0.0465472 0)
(10.3584 -0.0460823 0)
(10.3598 -0.0456593 0)
(10.3611 -0.0452759 0)
(10.3622 -0.0449271 0)
(10.3633 -0.0446134 0)
(10.3643 -0.0443294 0)
(10.3652 -0.0440674 0)
(10.366 -0.0438277 0)
(10.3667 -0.0436168 0)
(10.3674 -0.0434216 0)
(10.368 -0.0432441 0)
(10.3686 -0.0430834 0)
(10.3691 -0.0429371 0)
(10.3696 -0.0428048 0)
(10.3701 -0.0426843 0)
(10.3705 -0.0425749 0)
(10.0209 -0.199569 0)
(10.2349 -0.191162 0)
(10.3386 -0.117726 0)
(10.354 -0.0960066 0)
(10.3519 -0.0914334 0)
(10.3557 -0.0858507 0)
(10.3643 -0.0791902 0)
(10.3734 -0.0737192 0)
(10.381 -0.0698271 0)
(10.3872 -0.0669684 0)
(10.3925 -0.0646704 0)
(10.3971 -0.0627012 0)
(10.4014 -0.0609698 0)
(10.4052 -0.059454 0)
(10.4087 -0.0581154 0)
(10.4119 -0.0569264 0)
(10.4148 -0.0558724 0)
(10.4174 -0.0549428 0)
(10.4197 -0.0541139 0)
(10.4219 -0.0533683 0)
(10.4238 -0.0526867 0)
(10.4256 -0.0520714 0)
(10.4272 -0.0515068 0)
(10.4287 -0.0510043 0)
(10.43 -0.0505354 0)
(10.4313 -0.0501305 0)
(10.4323 -0.0497331 0)
(10.4334 -0.0494159 0)
(10.4342 -0.0491167 0)
(10.4351 -0.0488173 0)
(10.4358 -0.048567 0)
(10.4365 -0.0483175 0)
(10.4371 -0.0481073 0)
(10.4377 -0.0479179 0)
(10.4382 -0.0477462 0)
(10.4387 -0.0475908 0)
(10.4391 -0.0474659 0)
(10.4395 -0.0473386 0)
(10.4399 -0.0472128 0)
(10.4402 -0.0471124 0)
(10.0322 -0.261926 0)
(10.3052 -0.196084 0)
(10.4069 -0.122791 0)
(10.4131 -0.106248 0)
(10.4077 -0.0986755 0)
(10.408 -0.0893167 0)
(10.4111 -0.0812522 0)
(10.413 -0.0758329 0)
(10.413 -0.0722521 0)
(10.4113 -0.0695581 0)
(10.4085 -0.0672657 0)
(10.4051 -0.0652272 0)
(10.4013 -0.0634364 0)
(10.3974 -0.0618706 0)
(10.3934 -0.0604686 0)
(10.3893 -0.0592043 0)
(10.3853 -0.0580883 0)
(10.3814 -0.0571144 0)
(10.3777 -0.0562524 0)
(10.3741 -0.0554666 0)
(10.3707 -0.0547469 0)
(10.3676 -0.0540915 0)
(10.3645 -0.0534965 0)
(10.3617 -0.052961 0)
(10.3591 -0.0524761 0)
(10.3566 -0.0520416 0)
(10.3544 -0.0516455 0)
(10.3522 -0.051292 0)
(10.3503 -0.0509687 0)
(10.3485 -0.0506739 0)
(10.3468 -0.0504076 0)
(10.3453 -0.0501637 0)
(10.3439 -0.0499454 0)
(10.3425 -0.049741 0)
(10.3414 -0.0495578 0)
(10.3402 -0.0493804 0)
(10.3392 -0.0492241 0)
(10.3382 -0.0490697 0)
(10.3375 -0.048941 0)
(10.3364 -0.0488133 0)
(10.0497 -0.312417 0)
(10.3553 -0.196999 0)
(10.4224 -0.131889 0)
(10.3754 -0.11573 0)
(10.3082 -0.102496 0)
(10.2418 -0.0896885 0)
(10.1769 -0.0805339 0)
(10.112 -0.0745491 0)
(10.0478 -0.0703915 0)
(9.9853 -0.0670659 0)
(9.92571 -0.0641606 0)
(9.86954 -0.0615649 0)
(9.81721 -0.0593088 0)
(9.76864 -0.0573485 0)
(9.72376 -0.055554 0)
(9.68241 -0.0539238 0)
(9.64437 -0.0524847 0)
(9.60944 -0.0512499 0)
(9.57743 -0.0501375 0)
(9.54815 -0.0491311 0)
(9.52139 -0.0481817 0)
(9.4969 -0.0473538 0)
(9.4745 -0.0465883 0)
(9.45404 -0.0458832 0)
(9.43535 -0.0452636 0)
(9.41826 -0.0446754 0)
(9.40271 -0.0441689 0)
(9.38848 -0.0437144 0)
(9.37553 -0.0433154 0)
(9.36365 -0.0429521 0)
(9.35287 -0.0426213 0)
(9.34295 -0.0423122 0)
(9.33402 -0.0420287 0)
(9.32568 -0.0417587 0)
(9.31835 -0.0415146 0)
(9.31126 -0.0412717 0)
(9.30536 -0.0410558 0)
(9.29912 -0.0408296 0)
(9.29465 -0.0406391 0)
(9.2887 -0.0404254 0)
(10.0557 -0.348686 0)
(10.2098 -0.195542 0)
(10.0146 -0.132635 0)
(9.67887 -0.108821 0)
(9.34613 -0.0875981 0)
(9.05249 -0.0708113 0)
(8.79672 -0.0596735 0)
(8.57172 -0.0522049 0)
(8.37308 -0.0468218 0)
(8.19819 -0.042582 0)
(8.04421 -0.0391084 0)
(7.909 -0.0361885 0)
(7.78987 -0.0338432 0)
(7.68496 -0.031948 0)
(7.59236 -0.0302292 0)
(7.5104 -0.0287151 0)
(7.4377 -0.027453 0)
(7.37295 -0.0264387 0)
(7.31529 -0.0255576 0)
(7.26378 -0.0247261 0)
(7.21784 -0.0240077 0)
(7.17651 -0.0233518 0)
(7.13961 -0.0227693 0)
(7.10628 -0.0222523 0)
(7.07641 -0.0218164 0)
(7.04947 -0.0213845 0)
(7.0251 -0.020977 0)
(7.00317 -0.0206431 0)
(6.98326 -0.0203699 0)
(6.96523 -0.0201462 0)
(6.94901 -0.019935 0)
(6.93422 -0.0197654 0)
(6.92097 -0.0195937 0)
(6.9087 -0.0194199 0)
(6.89794 -0.0192443 0)
(6.88763 -0.0190709 0)
(6.87908 -0.0189063 0)
(6.87009 -0.0187378 0)
(6.86374 -0.0185864 0)
(6.85518 -0.0184057 0)
(9.82039 -0.358483 0)
(9.25852 -0.167858 0)
(8.40768 -0.0981384 0)
(7.6075 -0.0667426 0)
(7.0012 -0.0449966 0)
(6.56494 -0.03219 0)
(6.24064 -0.0254843 0)
(5.9894 -0.0217284 0)
(5.7871 -0.0192368 0)
(5.62067 -0.0173141 0)
(5.48168 -0.0157733 0)
(5.36448 -0.0144738 0)
(5.26457 -0.0135108 0)
(5.17874 -0.0128181 0)
(5.10458 -0.012075 0)
(5.04006 -0.0114011 0)
(4.98364 -0.0108664 0)
(4.93361 -0.0105118 0)
(4.88947 -0.0102099 0)
(4.85065 -0.00985943 0)
(4.81592 -0.00955398 0)
(4.78524 -0.00928658 0)
(4.75767 -0.00907133 0)
(4.73313 -0.00885543 0)
(4.71112 -0.00862977 0)
(4.69136 -0.00850884 0)
(4.67357 -0.00831701 0)
(4.65739 -0.00817719 0)
(4.64281 -0.00807507 0)
(4.62957 -0.00791045 0)
(4.61763 -0.00783611 0)
(4.6067 -0.00785868 0)
(4.59715 -0.0078968 0)
(4.58828 -0.00788619 0)
(4.58054 -0.00780556 0)
(4.57309 -0.00773015 0)
(4.56698 -0.00763963 0)
(4.56044 -0.00757462 0)
(4.55604 -0.00749909 0)
(4.54961 -0.00742225 0)
(8.96161 -0.32219 0)
(7.24994 -0.109344 0)
(5.9514 -0.0499032 0)
(5.1106 -0.0288342 0)
(4.60731 -0.0177089 0)
(4.2888 -0.0124743 0)
(4.06214 -0.0100851 0)
(3.88895 -0.00881105 0)
(3.74938 -0.00790297 0)
(3.63467 -0.00713852 0)
(3.53948 -0.0065057 0)
(3.45951 -0.00596612 0)
(3.39299 -0.00556217 0)
(3.33394 -0.00531744 0)
(3.28421 -0.00502854 0)
(3.24142 -0.00465741 0)
(3.20343 -0.00439643 0)
(3.17052 -0.00428144 0)
(3.14113 -0.0041905 0)
(3.11587 -0.00404237 0)
(3.09296 -0.00390405 0)
(3.07311 -0.00378326 0)
(3.05499 -0.00369 0)
(3.03915 -0.00360833 0)
(3.02487 -0.00352055 0)
(3.01197 -0.00342778 0)
(3.00045 -0.00335309 0)
(2.99005 -0.00327381 0)
(2.98091 -0.0031814 0)
(2.97249 -0.00313348 0)
(2.96479 -0.00310483 0)
(2.95779 -0.00305358 0)
(2.95145 -0.00312995 0)
(2.94581 -0.00326369 0)
(2.94086 -0.0032351 0)
(2.93609 -0.0031927 0)
(2.93212 -0.00313465 0)
(2.92791 -0.0031086 0)
(2.92507 -0.00307225 0)
(2.92083 -0.00304036 0)
(7.49801 -0.256256 0)
(5.03354 -0.0585413 0)
(3.86165 -0.0217354 0)
(3.24717 -0.0116662 0)
(2.91464 -0.00694152 0)
(2.71304 -0.0048703 0)
(2.57173 -0.00395995 0)
(2.46154 -0.00349268 0)
(2.37241 -0.00315363 0)
(2.29876 -0.00283957 0)
(2.23776 -0.00258412 0)
(2.18664 -0.00236676 0)
(2.1439 -0.0022116 0)
(2.10635 -0.00211992 0)
(2.07363 -0.0020014 0)
(2.04604 -0.00184605 0)
(2.02261 -0.00170515 0)
(2.00189 -0.00166549 0)
(1.98308 -0.00166625 0)
(1.96669 -0.00160117 0)
(1.95228 -0.00154991 0)
(1.93953 -0.00150349 0)
(1.9282 -0.00147408 0)
(1.91812 -0.00143899 0)
(1.90918 -0.00138173 0)
(1.90099 -0.00134524 0)
(1.89386 -0.00129761 0)
(1.88757 -0.00124686 0)
(1.88193 -0.00120393 0)
(1.87691 -0.00117353 0)
(1.8723 -0.00115497 0)
(1.86818 -0.00115834 0)
(1.86398 -0.00125265 0)
(1.86027 -0.00135062 0)
(1.85713 -0.00134127 0)
(1.85406 -0.00130183 0)
(1.85147 -0.00126194 0)
(1.84879 -0.00123887 0)
(1.84693 -0.00122957 0)
(1.84424 -0.00120242 0)
(5.78952 -0.186147 0)
(3.2569 -0.0277344 0)
(2.41517 -0.00877442 0)
(2.01457 -0.00454389 0)
(1.80777 -0.00265386 0)
(1.68498 -0.00184906 0)
(1.59881 -0.00150688 0)
(1.531 -0.00133985 0)
(1.47489 -0.0012116 0)
(1.4289 -0.00108941 0)
(1.39088 -0.000990433 0)
(1.35905 -0.000909949 0)
(1.33223 -0.000843305 0)
(1.30927 -0.00081231 0)
(1.28839 -0.000774985 0)
(1.27106 -0.000699705 0)
(1.25685 -0.000642694 0)
(1.24446 -0.000635821 0)
(1.23282 -0.000643795 0)
(1.22237 -0.000614147 0)
(1.21342 -0.00059537 0)
(1.20527 -0.000579233 0)
(1.19833 -0.000570581 0)
(1.19179 -0.000560671 0)
(1.18623 -0.000527272 0)
(1.18121 -0.000508021 0)
(1.17689 -0.000495795 0)
(1.17291 -0.000475098 0)
(1.16955 -0.000450072 0)
(1.16652 -0.000435198 0)
(1.1638 -0.000415019 0)
(1.16146 -0.000409312 0)
(1.15911 -0.000473789 0)
(1.15647 -0.000547058 0)
(1.15447 -0.000547716 0)
(1.15248 -0.000515849 0)
(1.15081 -0.000492007 0)
(1.14913 -0.000474315 0)
(1.14796 -0.000480076 0)
(1.14628 -0.000456261 0)
(4.13989 -0.125581 0)
(2.01344 -0.0118322 0)
(1.47027 -0.00330698 0)
(1.22167 -0.00167968 0)
(1.09691 -0.000967414 0)
(1.02352 -0.000671937 0)
(0.971665 -0.000547712 0)
(0.930816 -0.000489921 0)
(0.896419 -0.000444886 0)
(0.868426 -0.000398344 0)
(0.845304 -0.000362033 0)
(0.825951 -0.000332357 0)
(0.809676 -0.000307267 0)
(0.795782 -0.000295374 0)
(0.78321 -0.00028279 0)
(0.772649 -0.000256469 0)
(0.763973 -0.000232173 0)
(0.756669 -0.000228696 0)
(0.749632 -0.000234933 0)
(0.743259 -0.000224072 0)
(0.737871 -0.000218543 0)
(0.732839 -0.000213571 0)
(0.728607 -0.000212155 0)
(0.724486 -0.000208579 0)
(0.721094 -0.000191999 0)
(0.71809 -0.000185527 0)
(0.715439 -0.000183587 0)
(0.713 -0.00017372 0)
(0.711003 -0.000162639 0)
(0.709194 -0.000156656 0)
(0.707599 -0.000145472 0)
(0.706268 -0.000135859 0)
(0.705032 -0.000167322 0)
(0.703408 -0.00021049 0)
(0.702024 -0.000211882 0)
(0.700746 -0.000193892 0)
(0.699706 -0.00018268 0)
(0.698676 -0.000172647 0)
(0.697958 -0.000179388 0)
(0.696933 -0.000164204 0)
(2.72822 -0.0788507 0)
(1.18965 -0.00446846 0)
(0.862045 -0.00113727 0)
(0.714663 -0.000570634 0)
(0.642073 -0.000325595 0)
(0.599515 -0.000225979 0)
(0.569349 -0.000184605 0)
(0.545467 -0.000165355 0)
(0.525306 -0.000150375 0)
(0.50889 -0.000134676 0)
(0.495338 -0.000122364 0)
(0.484001 -0.000112197 0)
(0.474477 -0.000103699 0)
(0.466356 -9.92425e-05 0)
(0.459043 -9.49372e-05 0)
(0.452861 -8.68156e-05 0)
(0.447768 -7.87854e-05 0)
(0.443484 -7.72145e-05 0)
(0.439378 -7.9001e-05 0)
(0.435655 -7.49916e-05 0)
(0.432562 -7.35222e-05 0)
(0.42959 -7.25352e-05 0)
(0.427101 -7.22853e-05 0)
(0.424646 -7.11894e-05 0)
(0.422647 -6.50293e-05 0)
(0.420897 -6.29705e-05 0)
(0.419326 -6.26274e-05 0)
(0.417894 -5.88795e-05 0)
(0.416729 -5.49746e-05 0)
(0.415677 -5.26496e-05 0)
(0.414764 -4.80733e-05 0)
(0.414017 -4.29341e-05 0)
(0.413366 -5.21641e-05 0)
(0.412479 -7.28444e-05 0)
(0.411554 -7.67297e-05 0)
(0.410769 -6.69062e-05 0)
(0.41015 -6.24478e-05 0)
(0.409542 -5.80237e-05 0)
(0.409123 -6.16575e-05 0)
(0.408515 -5.45597e-05 0)
(1.62157 -0.0451597 0)
(0.654542 -0.00140829 0)
(0.472034 -0.000334133 0)
(0.390768 -0.000166258 0)
(0.351238 -9.42628e-05 0)
(0.328094 -6.54234e-05 0)
(0.311661 -5.35692e-05 0)
(0.298608 -4.80323e-05 0)
(0.28757 -4.36899e-05 0)
(0.27858 -3.91642e-05 0)
(0.271161 -3.55765e-05 0)
(0.264956 -3.25948e-05 0)
(0.259748 -3.01313e-05 0)
(0.255309 -2.8822e-05 0)
(0.251309 -2.75225e-05 0)
(0.247936 -2.52319e-05 0)
(0.245149 -2.29901e-05 0)
(0.242807 -2.24757e-05 0)
(0.240565 -2.28742e-05 0)
(0.238535 -2.16286e-05 0)
(0.236857 -2.12647e-05 0)
(0.235225 -2.11171e-05 0)
(0.233859 -2.10439e-05 0)
(0.232509 -2.07517e-05 0)
(0.231402 -1.8957e-05 0)
(0.230449 -1.83677e-05 0)
(0.229583 -1.82671e-05 0)
(0.228798 -1.71615e-05 0)
(0.228159 -1.60389e-05 0)
(0.227584 -1.5285e-05 0)
(0.227091 -1.3844e-05 0)
(0.226694 -1.20503e-05 0)
(0.226363 -1.42596e-05 0)
(0.225901 -2.12044e-05 0)
(0.225358 -2.3174e-05 0)
(0.224915 -1.97334e-05 0)
(0.224573 -1.82893e-05 0)
(0.224239 -1.67955e-05 0)
(0.224011 -1.81072e-05 0)
(0.223675 -1.56479e-05 0)
(0.808086 -0.0218472 0)
(0.309259 -0.000319026 0)
(0.222261 -7.12128e-05 0)
(0.183823 -3.51667e-05 0)
(0.165277 -1.98414e-05 0)
(0.15443 -1.37791e-05 0)
(0.146719 -1.1302e-05 0)
(0.14058 -1.01454e-05 0)
(0.135384 -9.22775e-06 0)
(0.13115 -8.27849e-06 0)
(0.127657 -7.51868e-06 0)
(0.124737 -6.88594e-06 0)
(0.122286 -6.36569e-06 0)
(0.120199 -6.0949e-06 0)
(0.118317 -5.80901e-06 0)
(0.116731 -5.3179e-06 0)
(0.115419 -4.86051e-06 0)
(0.114319 -4.75418e-06 0)
(0.113265 -4.81983e-06 0)
(0.112312 -4.55654e-06 0)
(0.111522 -4.48889e-06 0)
(0.110753 -4.46297e-06 0)
(0.110109 -4.43752e-06 0)
(0.109473 -4.3979e-06 0)
(0.108949 -4.02679e-06 0)
(0.108502 -3.88465e-06 0)
(0.108093 -3.86512e-06 0)
(0.107723 -3.63744e-06 0)
(0.107421 -3.40635e-06 0)
(0.10715 -3.22899e-06 0)
(0.106919 -2.90822e-06 0)
(0.106735 -2.4909e-06 0)
(0.106586 -2.87733e-06 0)
(0.106374 -4.4617e-06 0)
(0.106113 -5.00919e-06 0)
(0.105901 -4.21215e-06 0)
(0.105739 -3.88404e-06 0)
(0.105581 -3.53981e-06 0)
(0.105474 -3.84653e-06 0)
(0.105315 -3.24317e-06 0)
(0.236945 -0.00615626 0)
(0.0870669 -2.23719e-05 0)
(0.0623921 -4.36014e-06 0)
(0.0515664 -2.112e-06 0)
(0.0463729 -1.17923e-06 0)
(0.0433397 -8.21707e-07 0)
(0.0411806 -6.7741e-07 0)
(0.0394588 -6.09627e-07 0)
(0.0380001 -5.5421e-07 0)
(0.0368117 -4.98289e-07 0)
(0.0358312 -4.52288e-07 0)
(0.0350116 -4.13804e-07 0)
(0.0343241 -3.82519e-07 0)
(0.0337387 -3.6685e-07 0)
(0.0332106 -3.4794e-07 0)
(0.0327653 -3.17841e-07 0)
(0.0323971 -2.93184e-07 0)
(0.0320883 -2.86513e-07 0)
(0.0317929 -2.87143e-07 0)
(0.0315256 -2.70904e-07 0)
(0.031304 -2.68305e-07 0)
(0.0310881 -2.6842e-07 0)
(0.0309074 -2.65357e-07 0)
(0.0307289 -2.66296e-07 0)
(0.0305818 -2.45103e-07 0)
(0.0304562 -2.34234e-07 0)
(0.0303416 -2.32864e-07 0)
(0.0302377 -2.20167e-07 0)
(0.0301527 -2.07716e-07 0)
(0.0300766 -1.92812e-07 0)
(0.0300119 -1.72229e-07 0)
(0.0299603 -1.40557e-07 0)
(0.0299195 -1.45684e-07 0)
(0.0298612 -2.6593e-07 0)
(0.0297878 -3.22556e-07 0)
(0.0297277 -2.61112e-07 0)
(0.0296821 -2.3237e-07 0)
(0.0296376 -2.15497e-07 0)
(0.0296078 -2.24461e-07 0)
(0.0295628 -1.01928e-07 0)
(6.80263e-05 -3.94919e-05 0)
(0.000162019 -0.000101289 0)
(0.000506448 -0.000142326 8.36094e-26)
(0.000901896 -0.000159898 0)
(0.00137259 -0.000177111 -1.99039e-25)
(0.00194421 -0.000192051 2.05742e-25)
(0.00260804 -0.00020086 0)
(0.00335623 -0.000205271 -3.88514e-25)
(0.00418617 -0.000207125 0)
(0.00509798 -0.00020744 3.40269e-25)
(0.0060941 -0.000206905 0)
(0.00717933 -0.000205987 0)
(0.00836038 -0.000204934 0)
(0.00964527 -0.000203836 0)
(0.011043 -0.00020269 9.19515e-25)
(0.012563 -0.00020142 -8.53648e-25)
(0.0142146 -0.000199892 7.94925e-25)
(0.0160064 -0.000197913 0)
(0.0179451 -0.000195225 -1.39421e-24)
(0.020034 -0.000191513 1.31481e-24)
(0.0222711 -0.000186429 0)
(0.0246469 -0.000179658 0)
(0.0271433 -0.000171021 0)
(0.0297343 -0.000160462 0)
(0.0323836 -0.00014794 0)
(0.035041 -0.000133126 -2.76914e-24)
(0.0376267 -0.000115387 0)
(0.0400328 -9.51827e-05 0)
(0.0421906 -7.46319e-05 1.34065e-23)
(0.0441078 -5.59559e-05 -1.73344e-23)
(0.0458287 -4.0363e-05 -4.17718e-23)
(0.0474107 -2.83548e-05 0)
(0.0489285 -2.01046e-05 5.21267e-23)
(0.0505047 -1.57089e-05 0)
(0.0523194 -1.55645e-05 0)
(0.0546648 -1.92356e-05 0)
(0.0578218 -2.68088e-05 1.23507e-22)