/*--------------------------------*- C++ -*----------------------------------*\
| =========                 |                                                 |
| \\      /  F ield         | OpenFOAM: The Open Source CFD Toolbox           |
|  \\    /   O peration     | Version:  2112                                  |
|   \\  /    A nd           | Website:  www.openfoam.com                      |
|    \\/     M anipulation  |                                                 |
\*---------------------------------------------------------------------------*/
FoamFile
{
    version     2.0;
    format      ascii;
    arch        "LSB;label=32;scalar=64";
    class       volScalarField;
    location    "0.39";
    object      ddt0(omegaU);
}
// * * * * * * * * * * * * * * * * * * * * * * * * * * * * * * * * * * * * * //

dimensions      [0 0 -2 0 0 0 0];

internalField   nonuniform List<scalar> 
12225
(
-0.303282
-4.55616
-16.2444
-38.5135
-73.274
-121.332
-183.408
-260.708
-355.186
-470.098
-610.911
-784.962
-1003.03
-1279.6
-1644.41
-2125.28
-2784.18
-3582.79
3.49158
13.5085
26.7348
40.4929
53.4215
66.3563
80.5985
97.5778
118.722
146.009
181.919
229.406
293.768
379.364
494.421
694.038
1007.85
1690.03
0.453587
2.02046
5.93189
12.1917
20.4277
30.0778
41.0948
54.2708
70.1523
90.4371
117.505
154.132
204.802
276.046
379.644
538.429
777.609
1136
0.0773696
0.608311
1.14396
1.9982
3.54842
6.09328
9.80772
14.6095
21.0292
29.4689
42.0412
58.6881
81.1956
113.34
160.513
232.146
340.452
509.235
0.00905686
0.0844687
0.339473
0.787604
1.25485
1.82847
2.6004
3.6317
5.12049
7.23438
9.19183
12.1882
16.9891
28.1511
44.7156
67.7176
96.5186
140.184
0.00116499
0.00300392
0.043521
0.127853
0.324154
0.56702
0.864038
1.26112
1.81407
2.60618
3.49394
4.84788
6.91723
7.43711
8.62314
12.143
21.411
33.9538
0.0011254
-0.00246916
-0.0052455
-0.0026306
0.046063
0.110448
0.194668
0.317128
0.500604
0.778507
1.1909
1.80458
2.69952
3.14314
3.65321
4.5371
6.70361
9.29439
0.0014953
-0.00155764
-0.00757605
-0.0133233
-0.0119514
-0.0051272
0.00338037
0.0187528
0.048831
0.103115
0.1944
0.336799
0.546249
0.79247
1.07395
1.36676
1.679
1.99314
0.00173659
-0.000467858
-0.00593166
-0.0124495
-0.0180844
-0.0222212
-0.0273689
-0.0341813
-0.042129
-0.0481814
-0.0497124
-0.043467
-0.0267849
0.000840179
0.0360747
0.0740697
0.114944
0.170571
0.00185752
0.000373142
-0.00422153
-0.0102784
-0.0170098
-0.0232877
-0.0288822
-0.0347861
-0.044149
-0.0565764
-0.0705998
-0.0863499
-0.102067
-0.11468
-0.122359
-0.122997
-0.112182
-0.0818085
0.00188745
0.000984615
-0.00274612
-0.00795043
-0.0140947
-0.02093
-0.0274826
-0.0335123
-0.039493
-0.0459754
-0.0530084
-0.0635678
-0.0767226
-0.0893582
-0.0974026
-0.0965631
-0.0828315
-0.0520294
0.00183664
0.0013409
-0.00165973
-0.00601953
-0.0112371
-0.0172463
-0.0238666
-0.0306728
-0.0365875
-0.0418306
-0.046238
-0.0491039
-0.0507122
-0.053024
-0.0537592
-0.0483528
-0.0325522
-0.00336544
0.00173449
0.00153025
-0.000834753
-0.00440274
-0.0086829
-0.0136045
-0.0190468
-0.0248738
-0.0307276
-0.0361262
-0.0404881
-0.0422041
-0.0407179
-0.0357933
-0.0275167
-0.0158793
0.00136328
0.0268322
0.00156199
0.00159331
-0.000128441
-0.00284511
-0.00610359
-0.00978718
-0.0137846
-0.0179663
-0.0220306
-0.0255498
-0.0281933
-0.029335
-0.0278725
-0.0221484
-0.011781
0.00298047
0.0220471
0.0453696
0.0013041
0.00148426
0.000365731
-0.00148559
-0.00368795
-0.00609064
-0.00856834
-0.0109519
-0.0129747
-0.0142964
-0.0145759
-0.0133132
-0.00993158
-0.00375972
0.00592887
0.0196711
0.037708
0.0590582
0.00095525
0.00118846
0.00060388
-0.000410331
-0.00157022
-0.00272242
-0.00373248
-0.00442818
-0.00458443
-0.00393417
-0.00219346
0.000960203
0.00585742
0.0129877
0.0224954
0.034427
0.0485108
0.0647174
0.000521516
0.000717927
0.000580749
0.000328956
0.000132187
0.000112359
0.000387895
0.0010969
0.00242714
0.00452714
0.00755634
0.0116734
0.0170109
0.0235365
0.0313858
0.0405532
0.0509523
0.0623237
2.70107e-05
0.000122734
0.000356381
0.00077238
0.00141163
0.00233416
0.00361321
0.00532276
0.00750975
0.0102559
0.0136146
0.0176085
0.0222342
0.0274614
0.0332363
0.0394682
0.0460939
0.0529738
-0.000467539
-0.000483948
7.63067e-05
0.00106897
0.00238992
0.00401467
0.00594841
0.00818611
0.0107055
0.0134712
0.0164362
0.0195427
0.0227269
0.025925
0.0290807
0.0321417
0.0351025
0.0379174
-0.00080606
-0.000855959
8.73157e-08
0.00143946
0.00322269
0.00525251
0.00747816
0.00983233
0.0122283
0.0145722
0.0167691
0.0187287
0.0203747
0.0216536
0.0225409
0.0230376
0.0231978
0.0230425
-0.000975597
-0.000964885
0.000172969
0.00195109
0.00402418
0.00625532
0.00856158
0.0108352
0.0129522
0.0147897
0.0162322
0.0171811
0.0175672
0.01736
0.0165708
0.0152467
0.013488
0.0113611
-0.00104303
-0.000883417
0.000562848
0.00263105
0.00490288
0.00723599
0.00952933
0.011645
0.0134351
0.0147595
0.0154906
0.0155287
0.0148188
0.0133584
0.011197
0.00842747
0.00519576
0.00161231
-0.00102708
-0.000622591
0.00116112
0.00346867
0.00586005
0.00821095
0.0103984
0.0122595
0.0136382
0.0143917
0.0143958
0.0135691
0.0118943
0.0094223
0.00626664
0.00259115
-0.00138883
-0.00549834
-0.00093047
-0.000168638
0.0019584
0.0043864
0.00671461
0.00883704
0.010576
0.0117459
0.0122267
0.0119521
0.010913
0.00919027
0.0069713
0.00453536
0.00223479
0.000475692
-0.000290871
0.000314441
-0.000741645
0.000467862
0.00265704
0.00426915
0.00463646
0.00389389
0.00199529
-0.00100959
-0.00475693
-0.00860504
-0.011679
-0.0128955
-0.0110279
-0.00480072
0.00708908
0.025954
0.0530815
0.0894956
-0.000678415
-0.000416733
-0.002741
-0.0114473
-0.0345101
-0.0614614
-0.0908469
-0.122136
-0.151736
-0.173695
-0.18094
-0.166138
-0.122504
-0.045142
0.0704272
0.228563
0.433665
0.689202
-0.0081721
-0.0297362
-0.0907966
-0.209627
-0.449497
-0.695801
-0.925965
-1.12874
-1.27266
-1.31545
-1.21726
-0.948203
-0.491094
0.155214
0.986551
1.99732
3.18437
4.54498
-0.145496
-0.484437
-1.18633
-2.23144
-3.34411
-4.49801
-5.41328
-5.86266
-5.71051
-4.90782
-3.47593
-1.48446
0.977362
3.82558
6.98361
10.3925
14.0182
17.8607
-0.942312
-4.20079
-8.42304
-12.0727
-14.4117
-15.2208
-14.606
-12.6738
-9.55718
-5.42254
-0.467473
5.09102
11.0402
17.1832
23.346
29.3857
35.19
40.6724
0.0424279
1.60894
5.67685
12.6661
22.2915
33.8875
46.6305
59.6311
71.981
82.8471
91.5625
97.6797
100.975
101.419
99.1186
94.28
87.092
77.8471
92.6147
272.189
513.321
734.26
902.608
1018.93
1093.42
1138.78
1166.83
1187.1
1206.49
1229.65
1259.53
1302.48
1399.08
1507.62
1582
1650.22
1729.98
1821.96
1923.45
2032.99
2150.19
2274.88
2406.72
2545.23
2689.79
2839.77
2994.5
3153.33
3315.63
3480.76
3648.09
3817
3986.83
4156.92
4326.59
4495.12
4661.75
4825.69
4986.11
5142.12
5292.82
5437.22
5574.33
5703.12
5822.53
5931.48
6028.88
6113.68
6184.81
6241.28
6282.15
6306.54
6313.7
6302.99
6273.88
6226.03
6159.25
6073.53
5969.04
5846.15
5705.41
5547.55
5373.48
5184.26
4981.12
4765.4
4538.53
4302.07
4057.59
3806.72
3551.11
3292.36
3032.03
2771.61
2512.44
2255.71
2002.44
1753.44
1509.35
1270.69
1037.88
811.292
591.303
378.315
172.774
-24.8199
-213.914
-393.911
-564.191
-724.145
-873.223
-1010.99
-1137.17
-1251.7
-1354.73
-1446.62
-1527.92
-1599.42
-1662.05
-1716.94
-1765.29
-1808.4
-1847.52
-1883.88
-1918.6
-1952.7
-1987.03
-2022.28
-2058.97
-2097.48
-2138.29
-2181.9
-2229.53
-2283.43
-2333.2
-2384.89
-2473.17
-2523.45
-2582.51
-2642.95
-2704.13
-2765.95
-2828.18
-2890.49
-2952.55
-3013.97
-3074.38
-3133.37
-3190.59
-3245.7
-3298.49
-3348.83
-3396.7
-3442.19
-3485.52
-3526.94
-3566.81
-3605.52
-3643.42
-3680.81
-3717.9
-3754.88
-3791.86
-3828.84
-3865.69
-3901.97
-3936.9
-3969.27
-3997.49
-4019.73
-4034.04
-4038.35
-4030.48
-4008.23
-3969.49
-3912.25
-3834.78
-3735.7
-3614.11
-3469.69
-3302.8
-3114.61
-2907.1
-2683.09
-2446.18
-2200.72
-1951.97
-1706.04
-1469.82
-1251.04
-1058.06
-899.458
-784.338
-744.026
-744.484
-781.549
-889.549
-1026.34
102.91
318.192
558.383
773.172
934.855
1041.97
1102.11
1127
1128.76
1117.82
1102.21
1087.44
1076.68
1071.85
1067.45
1075.63
1091.46
1110.54
1133.48
1161.02
1192.87
1228.32
1266.66
1307.16
1349.11
1391.79
1434.55
1476.74
1517.81
1557.24
1594.56
1629.32
1661.12
1689.58
1714.33
1735.01
1751.3
1762.88
1769.43
1770.68
1766.36
1756.23
1740.09
1717.74
1689.05
1653.93
1612.3
1564.17
1509.59
1448.68
1381.6
1308.6
1230
1146.15
1057.52
964.602
867.965
768.226
666.043
562.112
457.152
351.898
247.088
143.455
41.7188
-57.4205
-153.289
-245.237
-332.639
-414.879
-491.34
-561.37
-624.247
-679.129
-725.002
-760.644
-784.651
-795.551
-792.048
-773.36
-739.592
-691.991
-632.99
-565.967
-494.793
-423.279
-354.696
-291.472
-235.086
-186.149
-144.586
-109.85
-81.1368
-57.5548
-38.239
-22.4193
-9.45179
1.1687
9.80767
16.7004
21.9735
25.6742
27.8003
28.324
27.2079
24.4161
19.9211
13.7113
5.79751
-3.78291
-14.9676
-27.6881
-41.8346
-57.0237
-73.3539
-94.6757
-132.26
-156.538
-150.427
-174.109
-199.021
-224.963
-252.042
-280.342
-309.949
-340.967
-373.521
-407.751
-443.802
-481.813
-521.908
-564.185
-608.704
-655.472
-704.422
-755.406
-808.173
-862.357
-917.455
-972.794
-1027.46
-1080.25
-1129.61
-1173.68
-1210.41
-1238.03
-1255.6
-1263.47
-1263.3
-1257.37
-1247.74
-1235.71
-1221.89
-1206.52
-1189.72
-1171.64
-1152.47
-1132.43
-1111.76
-1090.76
-1069.7
-1048.89
-1028.62
-1009.17
-990.752
-973.536
-957.614
-943.05
-929.86
-918.006
-907.407
-898.003
-889.478
-881.085
-872.37
-874.233
-894.348
-919.373
-958.423
-1000.63
194.47
383.241
592.31
776.142
917.394
1011.77
1062.33
1077.81
1069.06
1046.29
1017.76
989.337
964.619
945.542
932.916
927.047
927.25
932.303
941.47
954.179
969.765
987.483
1006.57
1026.27
1045.89
1064.79
1082.39
1098.19
1111.75
1122.7
1130.7
1135.47
1136.75
1134.31
1127.94
1117.45
1102.69
1083.5
1059.75
1031.36
998.248
960.378
917.746
870.386
818.373
761.827
700.916
635.857
566.919
494.421
418.735
340.281
259.525
176.975
93.1747
8.69515
-75.8713
-159.922
-242.851
-324.064
-402.983
-479.055
-551.766
-620.64
-685.25
-745.221
-800.229
-850.001
-894.316
-932.995
-965.895
-992.901
-1013.92
-1028.85
-1037.63
-1040.19
-1036.53
-1026.75
-1011.08
-989.971
-964.102
-934.385
-901.907
-867.848
-833.367
-799.511
-767.133
-736.856
-709.07
-683.957
-661.532
-641.698
-624.293
-609.135
-596.043
-584.856
-575.433
-567.655
-561.43
-556.69
-553.379
-551.435
-550.774
-551.284
-552.818
-555.205
-558.257
-561.791
-565.641
-569.693
-573.909
-578.374
-583.323
-589.029
-596.558
-613.722
-590.739
-596.012
-602.063
-608.817
-616
-623.484
-631.199
-639.088
-647.113
-655.251
-663.486
-671.813
-680.223
-688.707
-697.255
-705.859
-714.51
-723.194
-731.893
-740.58
-749.216
-757.748
-766.11
-774.211
-781.931
-789.118
-795.596
-801.175
-805.685
-809.026
-811.229
-812.487
-813.115
-813.458
-813.797
-814.317
-815.116
-816.258
-817.803
-819.818
-822.383
-825.586
-829.52
-834.283
-839.973
-846.682
-854.495
-863.471
-873.631
-884.947
-897.36
-910.822
-925.207
-940.279
-955.649
-971.173
-986.487
-1000.83
-1013.32
-1028.18
-1047.46
-1070.84
-1089.74
-1103.94
396.082
478.86
635.327
768.894
875.324
948.343
986.279
993.859
979.392
951.806
918.788
886
857.037
833.854
817.295
807.2
802.593
802.251
805.133
810.374
817.193
824.858
832.684
840.044
846.375
851.18
854.029
854.557
852.455
847.467
839.379
828.014
813.228
794.905
772.954
747.309
717.93
684.801
647.935
607.372
563.184
515.478
464.393
410.109
352.844
292.854
230.439
165.934
99.7163
32.1954
-36.1861
-104.959
-173.634
-241.708
-308.672
-374.02
-437.258
-497.916
-555.55
-609.759
-660.184
-706.52
-748.517
-785.983
-818.789
-846.864
-870.199
-888.84
-902.886
-912.484
-917.824
-919.132
-916.666
-910.711
-901.573
-889.58
-875.083
-858.451
-840.076
-820.359
-799.708
-778.512
-757.133
-735.883
-715.011
-694.701
-675.073
-656.187
-638.061
-620.685
-604.037
-588.107
-572.898
-558.441
-544.784
-531.981
-520.082
-509.134
-499.176
-490.242
-482.35
-475.494
-469.635
-464.707
-460.616
-457.258
-454.526
-452.329
-450.609
-449.37
-448.683
-448.683
-449.832
-454.634
-452.488
-442.536
-443.757
-445.931
-448.323
-451.077
-454.147
-457.477
-461.026
-464.76
-468.655
-472.697
-476.876
-481.188
-485.627
-490.191
-494.878
-499.696
-504.651
-509.756
-515.026
-520.475
-526.125
-531.997
-538.115
-544.503
-551.181
-558.17
-565.494
-573.173
-581.229
-589.69
-598.59
-607.977
-617.894
-628.379
-639.468
-651.195
-663.588
-676.679
-690.507
-705.116
-720.558
-736.88
-754.132
-772.351
-791.568
-811.805
-833.079
-855.388
-878.684
-902.85
-927.7
-953.228
-979.326
-1005.79
-1031.8
-1057.64
-1083.37
-1107.83
-1129.87
-1151.26
-1171.15
-1192.42
-1209.17
-1218.02
718.642
607.835
700.041
776.817
843.159
891.12
914.682
914.438
895.815
866.034
831.867
798.485
769.185
745.624
728.248
716.636
709.783
706.477
705.576
706.103
707.234
708.272
708.627
707.797
705.36
700.958
694.297
685.134
673.273
658.561
640.882
620.155
596.328
569.381
539.322
506.188
470.044
430.986
389.137
344.654
297.723
248.565
197.43
144.602
90.3955
35.1542
-20.7521
-76.9307
-132.97
-188.446
-242.926
-295.979
-347.178
-396.114
-442.398
-485.673
-525.624
-561.979
-594.518
-623.079
-647.555
-667.902
-684.133
-696.319
-704.582
-709.095
-710.07
-707.759
-702.444
-694.429
-684.038
-671.602
-657.457
-641.935
-625.357
-608.033
-590.25
-572.273
-554.34
-536.658
-519.399
-502.698
-486.651
-471.319
-456.728
-442.876
-429.739
-417.281
-405.464
-394.252
-383.625
-373.58
-364.141
-355.346
-347.239
-339.855
-333.212
-327.321
-322.187
-317.814
-314.191
-311.287
-309.053
-307.425
-306.337
-305.723
-305.527
-305.715
-306.275
-307.214
-308.581
-310.789
-311.805
-309.51
-311.819
-314.187
-316.91
-320.046
-323.395
-326.987
-330.811
-334.862
-339.131
-343.612
-348.301
-353.203
-358.325
-363.675
-369.265
-375.108
-381.222
-387.631
-394.357
-401.423
-408.854
-416.673
-424.905
-433.578
-442.72
-452.355
-462.508
-473.21
-484.496
-496.394
-508.931
-522.131
-536.02
-550.624
-565.955
-582.025
-598.86
-616.49
-634.941
-654.242
-674.424
-695.524
-717.586
-740.643
-764.73
-789.852
-815.985
-843.079
-871.09
-899.992
-929.709
-960.064
-990.515
-1021.17
-1052
-1083.12
-1112.6
-1141.51
-1170.73
-1197.82
-1222.23
-1242.83
-1261.11
-1280.96
-1297.9
-1307.13
1133.88
756.947
776.25
794.973
820.025
841.737
850.261
842.222
820.07
789.136
755.075
722.402
693.989
671.16
654.055
642.028
633.995
628.734
625.1
622.117
618.996
615.113
609.981
603.221
594.535
583.693
570.519
554.88
536.684
515.872
492.418
466.331
437.646
406.433
372.789
336.844
298.755
258.712
216.931
173.656
129.161
83.7423
37.7184
-8.57103
-54.7714
-100.517
-145.435
-189.156
-231.312
-271.551
-309.539
-344.964
-377.55
-407.054
-433.279
-456.076
-475.348
-491.053
-503.205
-511.872
-517.173
-519.275
-518.386
-514.749
-508.636
-500.338
-490.161
-478.416
-465.419
-451.476
-436.887
-421.933
-406.878
-391.96
-377.387
-363.34
-349.966
-337.38
-325.666
-314.878
-305.041
-296.152
-288.184
-281.091
-274.811
-269.273
-264.404
-260.128
-256.378
-253.099
-250.255
-247.832
-245.837
-244.296
-243.225
-242.615
-242.436
-242.657
-243.261
-244.235
-245.556
-247.181
-249.054
-251.116
-253.313
-255.596
-257.927
-260.269
-262.584
-264.833
-266.325
-267.981
-270.51
-273.061
-275.897
-278.83
-281.894
-285.199
-288.688
-292.384
-296.297
-300.435
-304.806
-309.413
-314.265
-319.378
-324.772
-330.471
-336.495
-342.868
-349.625
-356.8
-364.426
-372.531
-381.139
-390.273
-399.951
-410.195
-421.031
-432.466
-444.51
-457.192
-470.545
-484.596
-499.373
-514.902
-531.213
-548.347
-566.32
-585.127
-604.81
-625.408
-646.953
-669.47
-692.982
-717.506
-743.102
-769.764
-797.546
-826.456
-856.43
-887.381
-919.07
-951.531
-984.724
-1018.61
-1052.01
-1085.09
-1117.91
-1151.37
-1182.32
-1211.85
-1240.43
-1267.3
-1291.38
-1310.8
-1327.57
-1345.7
-1361.85
-1371.4
1627.75
915.79
856.793
819.433
804.406
800.228
793.842
778.212
752.865
721.182
687.616
655.953
628.6
606.563
589.75
577.371
568.287
561.287
555.266
549.307
542.695
534.901
525.541
514.346
501.132
485.776
468.205
448.383
426.311
402.016
375.557
347.023
316.531
284.228
250.289
214.917
178.343
140.819
102.623
64.0464
25.4002
-12.9957
-50.8141
-87.7268
-123.41
-157.55
-189.85
-220.037
-247.865
-273.123
-295.633
-315.258
-331.902
-345.513
-356.086
-363.663
-368.331
-370.224
-369.516
-366.417
-361.166
-354.027
-345.279
-335.211
-324.11
-312.261
-299.938
-287.404
-274.901
-262.653
-250.86
-239.701
-229.322
-219.847
-211.365
-203.939
-197.601
-192.359
-188.197
-185.082
-182.961
-181.765
-181.411
-181.809
-182.865
-184.482
-186.569
-189.037
-191.808
-194.818
-198.025
-201.413
-204.998
-208.815
-212.881
-217.151
-221.547
-226.009
-230.518
-235.076
-239.665
-244.228
-248.687
-252.957
-256.943
-260.572
-263.802
-266.581
-268.014
-270.66
-273.846
-276.129
-278.334
-280.509
-282.739
-285.037
-287.464
-290.081
-292.882
-295.894
-299.132
-302.611
-306.341
-310.333
-314.601
-319.17
-324.075
-329.353
-335.027
-341.131
-347.709
-354.808
-362.466
-370.714
-379.572
-389.057
-399.182
-409.966
-421.436
-433.59
-446.404
-459.915
-474.165
-489.185
-505.007
-521.66
-539.184
-557.653
-577.137
-597.503
-618.838
-641.201
-664.626
-689.146
-714.781
-741.492
-769.492
-798.511
-828.716
-860.148
-892.69
-926.703
-960.981
-995.913
-1031.46
-1067.49
-1104.16
-1138.97
-1173.09
-1206.54
-1238.12
-1268.23
-1296.77
-1323.4
-1347.03
-1366.03
-1382
-1398.54
-1413.23
-1422.23
2178.65
1073.94
934.689
845.592
793.23
764.428
743.7
720.799
692.484
660.204
627.191
596.483
570.031
548.558
531.804
518.897
508.686
500.001
491.806
483.27
473.773
462.884
450.322
435.917
419.583
401.29
381.051
358.917
334.963
309.295
282.043
253.361
223.432
192.461
160.675
128.324
95.6726
63.0011
30.5965
-1.24995
-32.2484
-62.1151
-90.5774
-117.379
-142.287
-165.097
-185.636
-203.77
-219.402
-232.477
-242.976
-250.916
-256.349
-259.358
-260.063
-258.616
-255.197
-250.016
-243.301
-235.295
-226.253
-216.433
-206.09
-195.473
-184.815
-174.331
-164.221
-154.662
-145.811
-137.804
-130.753
-124.748
-119.858
-116.124
-113.563
-112.167
-111.905
-112.728
-114.576
-117.378
-121.055
-125.512
-130.65
-136.367
-142.56
-149.131
-155.986
-163.034
-170.191
-177.385
-184.567
-191.721
-198.886
-206.147
-213.545
-220.991
-228.331
-235.46
-242.375
-249.13
-255.72
-262.043
-267.938
-273.226
-277.732
-281.28
-283.268
-286.39
-290.205
-292.246
-293.917
-295.306
-296.524
-297.654
-298.784
-299.974
-301.294
-302.804
-304.519
-306.467
-308.663
-311.121
-313.852
-316.87
-320.194
-323.858
-327.917
-332.43
-337.422
-342.919
-348.982
-355.671
-363.029
-371.086
-379.856
-389.345
-399.553
-410.498
-422.24
-434.815
-448.057
-462.036
-476.824
-492.462
-508.986
-526.423
-544.794
-564.217
-585.185
-606.896
-629.63
-653.487
-678.504
-704.721
-732.17
-760.62
-791.124
-822.237
-854.53
-888.086
-921.583
-960.248
-996.866
-1034.05
-1071.66
-1109.57
-1146.92
-1183.51
-1219.12
-1253.51
-1286.21
-1317.16
-1346.14
-1372.85
-1396.34
-1415.4
-1431.09
-1446.33
-1459.36
-1467.28
2763.53
1222.78
1004.88
870.062
784.102
732.519
698.287
668.502
637.393
604.554
572.018
542.093
516.299
495.118
478.177
464.571
453.178
442.895
432.775
422.085
410.306
397.103
382.289
365.782
347.577
327.722
306.302
283.431
259.25
233.919
207.62
180.554
152.939
125.012
97.021
69.2229
41.8796
15.2516
-10.4083
-34.8603
-57.8824
-79.2725
-98.8527
-116.472
-132.013
-145.392
-156.563
-165.522
-172.297
-176.952
-179.578
-180.281
-179.184
-176.423
-172.158
-166.563
-159.831
-152.166
-143.78
-134.886
-125.696
-116.42
-107.262
-98.4093
-90.0295
-82.2728
-75.2731
-69.1469
-63.9925
-59.8895
-56.8991
-55.0656
-54.4164
-54.9585
-56.6745
-59.5218
-63.4372
-68.3468
-74.1748
-80.8439
-88.2675
-96.3479
-104.982
-114.068
-123.509
-133.216
-143.101
-153.078
-163.058
-172.954
-182.693
-192.244
-201.673
-211.174
-220.873
-230.6
-240.041
-249.004
-257.528
-265.774
-273.758
-281.269
-287.974
-293.652
-298.293
-301.099
-305.707
-308.064
-309.705
-310.7
-311.238
-311.451
-311.445
-311.313
-311.163
-311.087
-311.166
-311.462
-312.002
-312.809
-313.896
-315.274
-316.95
-318.938
-321.257
-323.944
-327.093
-330.837
-335.198
-340.135
-345.733
-352.076
-359.216
-367.176
-375.961
-385.553
-395.915
-407.024
-419.011
-432.362
-446.192
-460.745
-476.159
-492.501
-509.819
-528.126
-547.337
-567.252
-590.61
-613.902
-638.187
-663.664
-690.368
-718.33
-747.585
-776.566
-811.26
-844.489
-878.827
-914.437
-951.232
-989.392
-1028.13
-1067.43
-1107.06
-1146.68
-1185.82
-1224.1
-1261.18
-1296.72
-1330.41
-1362.05
-1391.4
-1418.1
-1441.39
-1460.41
-1475.75
-1489.73
-1500.94
-1507.38
3360.8
1356.16
1063.98
890.478
775.236
703.066
656.331
620.085
586.327
552.918
520.746
491.422
466.073
444.983
427.707
413.345
400.834
389.156
377.462
365.119
351.705
336.974
320.82
303.234
284.276
264.053
242.704
220.389
197.289
173.598
149.525
125.288
101.115
77.2387
53.8951
31.3163
9.72559
-10.6695
-29.6838
-47.1598
-62.9689
-77.0094
-89.2049
-99.5066
-107.896
-114.388
-119.029
-121.898
-123.098
-122.757
-121.014
-117.994
-113.817
-108.602
-102.485
-95.6145
-88.151
-80.2631
-72.122
-63.8951
-55.7432
-47.8303
-40.3205
-33.3579
-27.0637
-21.5476
-16.9098
-13.2389
-10.6091
-9.07797
-8.68736
-9.46613
-11.4316
-14.5834
-18.893
-24.2995
-30.7168
-38.0522
-46.2249
-55.1633
-64.7844
-74.9871
-85.6642
-96.7164
-108.059
-119.621
-131.337
-143.141
-154.955
-166.674
-178.179
-189.37
-200.307
-211.416
-223.046
-234.881
-246.273
-256.835
-266.68
-276.225
-285.481
-294.246
-301.742
-306.929
-312.687
-318.314
-321.04
-322.505
-323.087
-322.948
-322.254
-321.203
-319.954
-318.553
-317.136
-315.835
-314.744
-313.924
-313.404
-313.199
-313.317
-313.759
-314.528
-315.634
-317.081
-318.873
-321.117
-324.336
-328.444
-333.156
-338.608
-344.939
-352.215
-360.453
-369.64
-379.729
-390.611
-402.066
-413.792
-429.17
-444.023
-459.449
-475.752
-493.04
-511.39
-530.84
-551.183
-568.633
-598.022
-623.087
-649.099
-676.352
-704.87
-734.655
-765.698
-797.904
-831.858
-866.793
-902.928
-940.312
-978.9
-1018.56
-1059.04
-1100.08
-1141.35
-1182.46
-1222.97
-1262.43
-1300.43
-1336.6
-1370.62
-1402.26
-1431.28
-1457.31
-1479.75
-1497.99
-1512.34
-1524.63
-1533.58
-1537.99
3949.85
1470.11
1110.04
905.395
765.441
675.06
616.919
574.661
538.388
504.386
472.469
443.604
418.563
397.471
379.841
364.807
351.38
338.634
325.82
312.397
298.029
282.547
265.909
248.164
229.418
209.82
189.539
168.763
147.687
126.517
105.46
84.7255
64.5221
45.0538
26.5176
9.09874
-7.0368
-21.7492
-34.9324
-46.5198
-56.4802
-64.804
-71.4956
-76.5766
-80.0902
-82.1048
-82.7115
-82.0208
-80.1601
-77.2779
-73.5181
-68.9725
-63.6936
-57.7417
-51.2028
-44.1854
-36.8155
-29.2316
-21.5768
-13.9855
-6.57893
0.501793
7.09674
13.0801
18.3577
22.8316
26.4034
28.9821
30.489
30.863
30.0607
28.0504
24.8074
20.3273
14.6423
7.83266
0.0188568
-8.67368
-18.1572
-28.3737
-39.2436
-50.6484
-62.4612
-74.5763
-86.9195
-99.4439
-112.123
-124.942
-137.876
-150.846
-163.69
-176.142
-188.068
-200.348
-213.864
-228.067
-241.636
-253.816
-264.741
-275.791
-284.609
-297.054
-308.452
-318.785
-324.806
-328.629
-330.584
-331.168
-330.653
-329.232
-327.111
-324.637
-322.344
-319.815
-317.269
-314.911
-312.856
-311.161
-309.844
-308.905
-308.334
-308.122
-308.267
-308.777
-309.632
-310.668
-311.41
-315.038
-319.555
-324.586
-330.398
-337.237
-345.194
-354.277
-364.449
-375.637
-387.696
-400.12
-405.327
-429.934
-446.2
-462.806
-480.256
-498.706
-518.267
-539.029
-560.987
-583.824
-609.461
-635.967
-663.654
-692.619
-722.856
-754.336
-787.02
-820.898
-856.026
-892.314
-929.779
-968.421
-1008.19
-1048.94
-1090.46
-1132.44
-1174.51
-1216.24
-1257.15
-1296.75
-1334.58
-1370.22
-1403.34
-1433.73
-1461.14
-1485.27
-1505.61
-1521.8
-1533.96
-1543.61
-1549.44
-1550.99
4512.01
1562.57
1142.26
914.063
753.987
647.834
579.43
531.623
492.974
458.366
426.636
398.155
373.384
352.318
334.451
318.965
304.95
291.57
278.165
264.276
249.636
234.136
217.781
200.659
182.908
164.693
146.199
127.616
109.136
90.9497
73.2439
56.1969
39.9763
24.7396
10.634
-2.20699
-13.6723
-23.6821
-32.1987
-39.2384
-44.8595
-49.1212
-52.0685
-53.748
-54.2205
-53.5663
-51.8813
-49.2661
-45.8294
-41.7313
-37.1225
-32.0121
-26.3213
-20.025
-13.1687
-5.84231
1.8353
9.72133
17.6682
25.5537
33.2899
40.7161
47.6278
53.8938
59.4451
64.1654
67.9282
70.6169
72.1309
72.3909
71.3374
68.9133
65.0616
59.8058
53.2043
45.3721
36.494
26.7649
16.2911
5.10453
-6.71318
-18.9937
-31.5577
-44.2749
-57.0766
-69.9274
-82.8253
-95.8252
-109.038
-122.495
-136.139
-149.633
-161.863
-174.562
-189.696
-206.423
-222.072
-236.048
-243.142
-260.505
-282.365
-299.081
-312.698
-323.261
-330.589
-334.421
-335.685
-335.144
-333.227
-330.165
-326.038
-320.992
-318.587
-315.263
-311.82
-308.682
-305.999
-303.815
-302.118
-300.873
-300.038
-299.583
-299.498
-299.806
-300.516
-301.161
-292.014
-305.161
-310.588
-316.443
-323.234
-331.266
-340.638
-351.33
-363.258
-376.295
-390.277
-404.928
-419.625
-436.873
-454.249
-472.121
-490.746
-510.313
-530.986
-552.906
-576.162
-600.811
-627.124
-654.885
-684.013
-714.458
-746.146
-778.994
-812.924
-847.893
-883.882
-920.868
-958.849
-997.816
-1037.72
-1078.44
-1119.76
-1161.34
-1202.79
-1243.64
-1283.38
-1321.49
-1357.46
-1390.83
-1421.27
-1448.58
-1472.59
-1493.04
-1509.56
-1521.94
-1530.27
-1535.88
-1537.39
-1534.9
5030.74
1632.85
1160.62
916.214
740.464
620.953
543.448
490.574
449.707
414.523
382.973
354.894
330.469
309.582
291.724
276.126
261.952
248.445
235.019
221.278
207.006
192.133
176.696
160.806
144.614
128.291
112.012
95.9502
80.2777
65.1585
50.7436
37.1678
24.5466
12.9839
2.58267
-6.56024
-14.3672
-20.7886
-25.8222
-29.5562
-32.1388
-33.6648
-34.1584
-33.638
-32.1456
-29.755
-26.5523
-22.5988
-17.9369
-12.7994
-7.39961
-1.61035
4.89868
12.2402
20.3544
29.1075
38.3057
47.682
57.0498
66.3722
75.6263
84.4981
92.7994
100.297
106.977
112.669
117.188
120.391
122.171
122.456
121.184
118.16
113.028
106.223
97.9176
88.2854
77.6044
66.1923
54.1965
41.6062
28.5113
15.1822
1.90167
-11.1688
-24.033
-36.6385
-48.8964
-60.8358
-72.8988
-85.0387
-97.2088
-111.778
-123.144
-134.504
-150.1
-168.749
-176.469
-198.272
-226.652
-246.74
-268.83
-290.646
-308.095
-321.552
-332.812
-337.135
-337.084
-334.503
-330.318
-324.965
-318.082
-301.706
-306.5
-302.874
-298.837
-295.349
-292.593
-290.558
-289.162
-288.294
-287.849
-287.754
-287.984
-288.574
-289.612
-291.126
-292.599
-296.559
-301.886
-308.612
-316.802
-326.579
-337.973
-350.906
-365.216
-380.688
-397.083
-414.138
-431.653
-449.844
-468.463
-487.511
-507.149
-527.585
-549.04
-571.716
-595.768
-621.318
-648.439
-677.087
-707.152
-738.511
-771.024
-804.548
-838.948
-874.131
-910.036
-946.63
-983.899
-1021.84
-1060.41
-1099.52
-1138.93
-1178.34
-1217.31
-1255.35
-1291.94
-1326.54
-1358.6
-1387.63
-1413.28
-1435.41
-1453.94
-1468.69
-1479.39
-1485.99
-1488.61
-1488.51
-1484.27
-1476.35
5491.57
1680.83
1165.53
911.847
724.63
594.111
508.674
451.248
408.375
372.716
341.444
313.907
290.035
269.616
252.135
236.865
223.03
209.938
197.054
184.028
170.673
156.939
142.876
128.603
114.28
100.077
86.1509
72.6376
59.6663
47.3723
35.8731
25.2629
15.6058
6.96072
-0.585486
-6.94085
-12.0363
-15.8101
-18.2374
-19.4937
-19.8513
-19.3973
-18.0242
-15.6589
-12.3182
-8.1383
-3.198
2.55089
9.2218
16.2083
23.4431
31.0092
39.7013
49.7025
60.8727
72.9999
85.5935
97.4376
108.399
119.255
129.913
138.877
148.009
156.163
163.058
168.457
172.162
174.046
174.093
172.45
169.392
164.527
153.895
142.44
129.783
116.129
101.761
87.0402
72.1473
57.0997
42.0237
27.3085
13.4135
0.584123
-11.6679
-23.3272
-33.8241
-42.6529
-51.9639
-60.1451
-54.9643
-79.4954
-88.4799
-75.1647
-92.8108
-117.587
-157.838
-181.046
-204.673
-227.348
-252.853
-281.427
-302.149
-316.585
-332.962
-336.263
-332.526
-325.502
-316.966
-307.819
-298.459
-288.796
-282.43
-276.929
-272.463
-269.225
-267.208
-266.261
-266.16
-266.662
-267.551
-268.672
-269.963
-271.467
-273.327
-275.746
-278.958
-283.472
-289.652
-297.687
-307.692
-319.721
-333.724
-349.531
-366.867
-385.391
-404.738
-424.547
-444.565
-464.671
-484.803
-505.004
-525.464
-546.453
-568.273
-591.214
-615.508
-641.325
-668.747
-697.738
-728.163
-759.842
-792.565
-826.123
-860.314
-894.98
-930.009
-965.336
-1000.93
-1036.77
-1072.85
-1109.07
-1145.22
-1180.98
-1215.89
-1249.46
-1281.15
-1310.43
-1336.72
-1359.49
-1378.37
-1393.33
-1404.37
-1411.43
-1414.32
-1413.1
-1408.03
-1400.38
-1388.73
-1373.64
5886.28
1706.43
1157.6
901.046
706.258
566.99
474.821
413.438
368.879
332.988
302.249
275.563
252.615
233.093
216.465
202.033
189.064
176.906
165.064
153.213
141.18
128.909
116.448
103.92
91.4863
79.3159
67.5558
56.3239
45.7159
35.8016
26.6671
18.3912
11.0032
4.57327
-0.73654
-4.82757
-7.70723
-9.23024
-9.27233
-8.26006
-6.48134
-4.10046
-0.681063
4.05471
10.0667
16.3605
23.3027
31.5938
40.9028
47.5157
57.6888
69.0263
81.8964
96.4206
112.486
129.95
148.024
160.853
170.956
180.831
190.06
198.513
206.07
211.098
214.446
215.696
214.572
210.997
205.085
197.381
189.998
203.719
160.387
138.734
117.723
96.4681
75.1984
54.4189
34.3232
14.6902
-4.41006
-22.3441
-38.2275
-51.1778
-62.8534
-73.5406
-81.9614
-87.6124
-94.5132
-99.8934
-62.7039
-73.9155
-86.08
-118.645
-131.592
-149.685
-171.083
-192.395
-222.881
-246.242
-268.878
-306.212
-327.67
-335.564
-332.536
-321.706
-307.485
-292.043
-276.652
-262.142
-249.077
-237.916
-229.371
-223.4
-219.886
-218.656
-219.41
-221.733
-225.147
-229.185
-233.44
-237.628
-241.617
-245.444
-249.314
-253.556
-258.606
-264.974
-273.151
-283.51
-296.28
-311.536
-329.18
-348.939
-370.399
-393.051
-416.352
-439.791
-462.975
-485.668
-507.785
-529.396
-550.748
-572.202
-594.172
-617.064
-641.215
-666.871
-694.153
-723.038
-753.37
-784.913
-817.387
-850.505
-883.989
-917.599
-951.154
-984.536
-1017.68
-1050.54
-1083.1
-1115.28
-1146.87
-1177.52
-1206.78
-1234.11
-1259.03
-1281.02
-1299.5
-1313.91
-1323.88
-1329.47
-1330.87
-1328.11
-1321.06
-1309.86
-1294.96
-1277.8
-1256.98
-1233.05
6226.02
1707.47
1135.13
882.501
683.943
538.086
440.397
375.78
330.069
294.449
264.779
239.519
218.097
200.077
184.898
171.875
160.298
149.542
139.147
128.818
118.376
107.728
96.911
86.0613
75.3493
64.9572
55.0135
45.6428
36.9899
29.0157
21.7588
15.2059
9.37607
4.78357
2.02385
0.941087
0.548219
2.0793
4.95769
6.19879
9.99569
14.6342
20.4683
28.2323
37.3592
41.4528
45.621
51.0653
56.7292
63.7644
74.4462
82.2524
92.3834
105.272
120.334
139.092
191.009
168.151
170.205
174.05
178.027
182.313
181.868
179.008
174.016
166.722
156.984
144.742