/*--------------------------------*- C++ -*----------------------------------*\
| =========                 |                                                 |
| \\      /  F ield         | OpenFOAM: The Open Source CFD Toolbox           |
|  \\    /   O peration     | Version:  2112                                  |
|   \\  /    A nd           | Website:  www.openfoam.com                      |
|    \\/     M anipulation  |                                                 |
\*---------------------------------------------------------------------------*/
FoamFile
{
    version     2.0;
    format      ascii;
    arch        "LSB;label=32;scalar=64";
    class       volVectorField;
    location    "0.39";
    object      ddtCorrDdt0(U);
}
// * * * * * * * * * * * * * * * * * * * * * * * * * * * * * * * * * * * * * //

dimensions      [0 1 -2 0 0 0 0];

internalField   nonuniform List<vector> 
12225
(
(-2.76128e-05 1.12498e-05 0)
(-0.000161507 2.78253e-05 0)
(-0.000417179 4.65009e-05 0)
(-0.000813407 6.87172e-05 0)
(-0.00135108 9.30987e-05 0)
(-0.00202694 0.000117812 0)
(-0.00283674 0.000141622 0)
(-0.0037697 0.00016382 0)
(-0.00480803 0.000186085 0)
(-0.00594961 0.000216376 0)
(-0.00721485 0.000261428 0)
(-0.00863011 0.000332146 0)
(-0.0102539 0.000455083 0)
(-0.0121874 0.00064787 0)
(-0.0143912 0.00101596 0)
(-0.0174879 0.0010632 0)
(-0.020894 0.00181101 0)
(-0.0260037 0.00404239 0)
(1.14483e-05 1.64652e-05 0)
(1.57319e-05 4.50786e-05 0)
(-2.54275e-05 7.92046e-05 0)
(-0.000107029 0.000129274 0)
(-0.000306711 0.000186461 0)
(-0.000625554 0.000248254 0)
(-0.00107904 0.000314877 0)
(-0.0016854 0.000379966 0)
(-0.00245389 0.000444999 0)
(-0.00339693 0.000519806 0)
(-0.0045382 0.000606627 0)
(-0.00589741 0.000710139 0)
(-0.0075083 0.000859202 0)
(-0.00943981 0.00107118 0)
(-0.011827 0.00138269 0)
(-0.0146269 0.0015828 0)
(-0.0182347 0.0018878 0)
(-0.0210216 0.00163438 0)
(-1.29878e-06 1.72714e-05 0)
(-4.37045e-05 5.27333e-05 0)
(-0.000120993 0.000100966 0)
(-0.000239192 0.000158689 0)
(-0.000351983 0.00022653 0)
(-0.000477587 0.00030745 0)
(-0.000639088 0.00039643 0)
(-0.000793308 0.000508893 0)
(-0.00106555 0.000635304 0)
(-0.00145045 0.000784267 0)
(-0.00195488 0.000961413 0)
(-0.00259669 0.0011723 0)
(-0.00338758 0.00145324 0)
(-0.00436606 0.00183091 0)
(-0.0055469 0.00231238 0)
(-0.00685334 0.00305971 0)
(-0.00827217 0.00392303 0)
(-0.00945143 0.0056334 0)
(-3.14394e-06 2.21762e-05 0)
(-3.52731e-05 7.12131e-05 0)
(-0.000121388 0.000122936 0)
(-0.000257902 0.000188065 0)
(-0.000431387 0.000267729 0)
(-0.00063654 0.000359003 0)
(-0.000873273 0.000466927 0)
(-0.00117996 0.000585389 0)
(-0.00148809 0.000720362 0)
(-0.00184272 0.000880235 0)
(-0.00215715 0.00108617 0)
(-0.00257433 0.00133383 0)
(-0.00306966 0.00165678 0)
(-0.00359387 0.00206815 0)
(-0.00419953 0.00260159 0)
(-0.00483952 0.00326165 0)
(-0.00557846 0.00406286 0)
(-0.00607368 0.0052737 0)
(-5.98198e-06 2.76674e-05 0)
(-4.05706e-05 8.52776e-05 0)
(-0.00011279 0.000153922 0)
(-0.000222701 0.000241431 0)
(-0.000386271 0.00032867 0)
(-0.000594502 0.000432108 0)
(-0.000845326 0.000550482 0)
(-0.00115659 0.00068675 0)
(-0.0015115 0.000847496 0)
(-0.00192744 0.00104768 0)
(-0.00246156 0.00127999 0)
(-0.00302244 0.00154745 0)
(-0.00368504 0.00187798 0)
(-0.00427072 0.00236302 0)
(-0.00498613 0.00295813 0)
(-0.00571164 0.00373968 0)
(-0.00678508 0.00454766 0)
(-0.00770212 0.00572183 0)
(-5.89417e-06 3.38394e-05 0)
(-4.6315e-05 9.9698e-05 0)
(-0.000122594 0.000182004 0)
(-0.000221689 0.000278168 0)
(-0.000358468 0.000380412 0)
(-0.0005528 0.000502602 0)
(-0.000790533 0.000643636 0)
(-0.00107531 0.000806283 0)
(-0.00141503 0.000990795 0)
(-0.00180948 0.00121099 0)
(-0.00229472 0.0014682 0)
(-0.00282515 0.00178206 0)
(-0.0034565 0.00219282 0)
(-0.00421571 0.00266723 0)
(-0.00497933 0.00323899 0)
(-0.00571009 0.00391641 0)
(-0.00637994 0.00479935 0)
(-0.00719897 0.0060207 0)
(-5.40921e-06 4.15461e-05 0)
(-4.71584e-05 0.000120356 0)
(-0.0001271 0.000206781 0)
(-0.000229491 0.000308117 0)
(-0.000345421 0.000442109 0)
(-0.000517201 0.000580444 0)
(-0.000733933 0.000740835 0)
(-0.000995491 0.000925884 0)
(-0.00130705 0.00113726 0)
(-0.0016666 0.00139345 0)
(-0.00208251 0.00169701 0)
(-0.00256144 0.00205144 0)
(-0.00308994 0.00248725 0)
(-0.00374429 0.00297551 0)
(-0.00440413 0.0035944 0)
(-0.00511387 0.00434199 0)
(-0.00569941 0.00534295 0)
(-0.00630472 0.00649766 0)
(-5.03107e-06 4.94493e-05 0)
(-4.56868e-05 0.000141058 0)
(-0.000123862 0.000240437 0)
(-0.000233111 0.000351989 0)
(-0.000350217 0.000492215 0)
(-0.000488737 0.000655936 0)
(-0.000681267 0.000832597 0)
(-0.000915097 0.00103931 0)
(-0.00119379 0.00127811 0)
(-0.00151425 0.00156409 0)
(-0.00188182 0.00189921 0)
(-0.00230113 0.0022903 0)
(-0.00275175 0.00277443 0)
(-0.0032383 0.00335102 0)
(-0.00375672 0.00401932 0)
(-0.00432064 0.0047865 0)
(-0.00488129 0.00569378 0)
(-0.00538732 0.00678417 0)
(-4.71402e-06 5.74125e-05 0)
(-4.32928e-05 0.000162488 0)
(-0.000118368 0.000274565 0)
(-0.000225913 0.000396842 0)
(-0.000358005 0.000537744 0)
(-0.000488642 0.000715258 0)
(-0.000645175 0.000919272 0)
(-0.000839769 0.00115803 0)
(-0.00108285 0.00141153 0)
(-0.00136237 0.00171718 0)
(-0.00168065 0.00207926 0)
(-0.00204154 0.00250253 0)
(-0.0024309 0.00300973 0)
(-0.00283774 0.00359767 0)
(-0.00325836 0.00427729 0)
(-0.00369017 0.00505734 0)
(-0.00410793 0.00597145 0)
(-0.00447114 0.00703067 0)
(-4.41703e-06 6.54064e-05 0)
(-4.04862e-05 0.000184298 0)
(-0.000111319 0.000309474 0)
(-0.000213231 0.000445557 0)
(-0.000343343 0.000599084 0)
(-0.000491651 0.0007756 0)
(-0.000648669 0.000997328 0)
(-0.000810956 0.00124549 0)
(-0.000994407 0.00153013 0)
(-0.00122592 0.00186981 0)
(-0.00147758 0.00226855 0)
(-0.00177814 0.00270506 0)
(-0.00210168 0.00322196 0)
(-0.00244083 0.00382107 0)
(-0.00278078 0.00451239 0)
(-0.00310873 0.0052988 0)
(-0.00340037 0.00619717 0)
(-0.00363433 0.00720706 0)
(-4.10221e-06 7.33921e-05 0)
(-3.73375e-05 0.000206144 0)
(-0.000102909 0.000344685 0)
(-0.000197357 0.000495133 0)
(-0.000318424 0.000662837 0)
(-0.000464241 0.000853337 0)
(-0.000627712 0.0010722 0)
(-0.000805072 0.00132453 0)
(-0.000979741 0.00163598 0)
(-0.00117646 0.00199223 0)
(-0.00136186 0.00239213 0)
(-0.00155891 0.00286373 0)
(-0.00178594 0.00342597 0)
(-0.00204522 0.00403072 0)
(-0.0022992 0.0047172 0)
(-0.00253458 0.00548764 0)
(-0.00272262 0.00635223 0)
(-0.00285109 0.00730712 0)
(-3.74375e-06 8.02853e-05 0)
(-3.40441e-05 0.000225474 0)
(-9.39629e-05 0.000376152 0)
(-0.000180259 0.000539362 0)
(-0.000290513 0.000720226 0)
(-0.000424133 0.000923996 0)
(-0.000577096 0.00115743 0)
(-0.000748449 0.00142159 0)
(-0.000931619 0.00172567 0)
(-0.0011216 0.00207808 0)
(-0.00131336 0.00248101 0)
(-0.00148288 0.00297551 0)
(-0.00162304 0.00352564 0)
(-0.00175683 0.00415104 0)
(-0.00190123 0.00486528 0)
(-0.00204688 0.00561171 0)
(-0.00214212 0.00643286 0)
(-0.00218066 0.00732978 0)
(-3.46263e-06 8.73496e-05 0)
(-3.08654e-05 0.000244513 0)
(-8.48078e-05 0.000406862 0)
(-0.000162321 0.000582146 0)
(-0.000260783 0.000775498 0)
(-0.000379441 0.000991968 0)
(-0.000515939 0.00123761 0)
(-0.00066905 0.00151447 0)
(-0.000835522 0.0018315 0)
(-0.0010083 0.00219401 0)
(-0.00118663 0.00260084 0)
(-0.00135864 0.00306263 0)
(-0.00150928 0.00359057 0)
(-0.00160621 0.00422522 0)
(-0.00164613 0.00490669 0)
(-0.00165408 0.00564033 0)
(-0.00164922 0.00644972 0)
(-0.00159502 0.0073074 0)
(-3.09707e-06 9.47396e-05 0)
(-2.68515e-05 0.000264792 0)
(-7.32323e-05 0.000439606 0)
(-0.000139591 0.000627542 0)
(-0.000223181 0.000833785 0)
(-0.00032278 0.00106323 0)
(-0.00043651 0.00132111 0)
(-0.000562425 0.00161083 0)
(-0.000697951 0.00193847 0)
(-0.00083797 0.00230824 0)
(-0.000979223 0.00272127 0)
(-0.00111493 0.00318604 0)
(-0.00123873 0.00370202 0)
(-0.00133392 0.00427194 0)
(-0.00138661 0.00490137 0)
(-0.00136407 0.00561906 0)
(-0.0012938 0.00638241 0)
(-0.00117029 0.00718019 0)
(-2.56128e-06 0.000102231 0)
(-2.16417e-05 0.000285371 0)
(-5.8482e-05 0.000472684 0)
(-0.000110762 0.000672981 0)
(-0.000175752 0.000891444 0)
(-0.000251785 0.00113276 0)
(-0.000336892 0.00140153 0)
(-0.000428643 0.00170142 0)
(-0.000524171 0.00203651 0)
(-0.000619269 0.00241028 0)
(-0.000709715 0.00282474 0)
(-0.000790338 0.00328356 0)
(-0.000855375 0.00378684 0)
(-0.000896559 0.00433762 0)
(-0.000908494 0.00493043 0)
(-0.00088136 0.00556372 0)
(-0.00080127 0.00623945 0)
(-0.000664397 0.00695349 0)
(-1.82045e-06 0.00010913 0)
(-1.50162e-05 0.000304131 0)
(-4.00576e-05 0.000502557 0)
(-7.49504e-05 0.000713408 0)
(-0.000117167 0.000941711 0)
(-0.000164753 0.00119178 0)
(-0.000215529 0.00146758 0)
(-0.000266801 0.00177236 0)
(-0.000315411 0.00210896 0)
(-0.000357502 0.00247979 0)
(-0.000388869 0.00288626 0)
(-0.000404847 0.00332961 0)
(-0.00040028 0.00380981 0)
(-0.000369473 0.00432649 0)
(-0.000306999 0.00487695 0)
(-0.000207334 0.00546051 0)
(-6.39292e-05 0.00607318 0)
(0.00012412 0.00671037 0)
(-8.92383e-07 0.000114339 0)
(-6.94574e-06 0.00031777 0)
(-1.78107e-05 0.000523545 0)
(-3.19032e-05 0.00074061 0)
(-4.71605e-05 0.000973647 0)
(-6.15733e-05 0.00122641 0)
(-7.28551e-05 0.00150211 0)
(-7.83379e-05 0.00180321 0)
(-7.48932e-05 0.00213156 0)
(-5.90399e-05 0.00248834 0)
(-2.70753e-05 0.00287399 0)
(2.49509e-05 0.00328835 0)
(0.000101079 0.00373041 0)
(0.000205361 0.0041984 0)
(0.000341687 0.00468965 0)
(0.000513305 0.00520095 0)
(0.000723696 0.00572814 0)
(0.000973664 0.00626916 0)
(8.81344e-08 0.000115593 0)
(2.05471e-06 0.000320653 0)
(7.40439e-06 0.000526945 0)
(1.70648e-05 0.000742754 0)
(3.22309e-05 0.00097212 0)
(5.46281e-05 0.00121806 0)
(8.6356e-05 0.00148294 0)
(0.000129824 0.0017683 0)
(0.000187601 0.00207499 0)
(0.000262476 0.00240311 0)
(0.000357399 0.00275217 0)
(0.000475286 0.00312104 0)
(0.000618954 0.00350793 0)
(0.000791041 0.00391051 0)
(0.00099385 0.0043259 0)
(0.00122931 0.00475082 0)
(0.00149877 0.00518168 0)
(0.00180382 0.00561734 0)
(1.50403e-06 0.000110049 0)
(1.30314e-05 0.000304667 0)
(3.6198e-05 0.000499431 0)
(7.12128e-05 0.000701452 0)
(0.000118274 0.000913867 0)
(0.000178513 0.00113882 0)
(0.000253502 0.00137777 0)
(0.000344919 0.00163139 0)
(0.000454506 0.00189962 0)
(0.00058406 0.00218184 0)
(0.000735349 0.00247687 0)
(0.000910004 0.00278304 0)
(0.00110944 0.00309822 0)
(0.00133481 0.00341991 0)
(0.00158688 0.00374533 0)
(0.00186626 0.0040715 0)
(0.00217243 0.00439526 0)
(0.00250815 0.0047159 0)
(2.48432e-06 9.92263e-05 0)
(2.10912e-05 0.000273723 0)
(5.77435e-05 0.00044726 0)
(0.000111841 0.000625946 0)
(0.000182503 0.000812183 0)
(0.000270134 0.00100744 0)
(0.000375645 0.00121252 0)
(0.00049995 0.00142754 0)
(0.000643949 0.00165198 0)
(0.000808539 0.00188484 0)
(0.000994531 0.00212474 0)
(0.00120255 0.00236994 0)
(0.00143299 0.00261842 0)
(0.00168597 0.00286792 0)
(0.00196123 0.00311605 0)
(0.00225851 0.00336035 0)
(0.00257619 0.0035983 0)
(0.00291762 0.00382944 0)
(3.05341e-06 8.70645e-05 0)
(2.6192e-05 0.000239806 0)
(7.16987e-05 0.000391385 0)
(0.000138241 0.000546947 0)
(0.000224054 0.000708309 0)
(0.000328942 0.000876465 0)
(0.000453268 0.00105181 0)
(0.000597347 0.00123411 0)
(0.000761463 0.0014226 0)
(0.000945886 0.00161617 0)
(0.00115078 0.00181342 0)
(0.00137614 0.00201273 0)
(0.00162168 0.00221226 0)
(0.00188688 0.0024101 0)
(0.00217086 0.00260423 0)
(0.0024728 0.00279263 0)
(0.00279045 0.00297323 0)
(0.00312738 0.00314574 0)
(3.48892e-06 7.44695e-05 0)
(3.00183e-05 0.000205012 0)
(8.20209e-05 0.000334553 0)
(0.000157491 0.000467305 0)
(0.000253957 0.000604633 0)
(0.000370709 0.000747198 0)
(0.000507612 0.000895085 0)
(0.000664485 0.00104781 0)
(0.000841143 0.00120448 0)
(0.00103742 0.00136394 0)
(0.00125304 0.00152486 0)
(0.00148757 0.00168579 0)
(0.00174034 0.00184517 0)
(0.00201041 0.00200145 0)
(0.0022965 0.00215302 0)
(0.00259741 0.00229831 0)
(0.00291054 0.00243569 0)
(0.00323948 0.00256495 0)
(3.8133e-06 6.21566e-05 0)
(3.29161e-05 0.000171192 0)
(8.97306e-05 0.000279669 0)
(0.000171623 0.000390924 0)
(0.00027556 0.000506052 0)
(0.000400358 0.000625448 0)
(0.000545411 0.000748911 0)
(0.000710133 0.000875761 0)
(0.000894005 0.00100502 0)
(0.00109657 0.00113553 0)
(0.00131732 0.00126604 0)
(0.0015556 0.00139527 0)
(0.00181055 0.00152196 0)
(0.00208102 0.00164494 0)
(0.00236548 0.001763 0)
(0.0026625 0.00187498 0)
(0.00296925 0.00197968 0)
(0.0032892 0.00207705 0)
(4.07659e-06 5.05077e-05 0)
(3.52113e-05 0.000139481 0)
(9.55584e-05 0.000228558 0)
(0.000181911 0.000320144 0)
(0.00029074 0.000415357 0)
(0.000420329 0.000514471 0)
(0.000569697 0.000616843 0)
(0.000738031 0.000721506 0)
(0.000924646 0.000827357 0)
(0.00112895 0.000933213 0)
(0.00135034 0.0010379 0)
(0.00158813 0.00114027 0)
(0.00184146 0.0012394 0)
(0.00210912 0.0013346 0)
(0.00238946 0.00142508 0)
(0.00268098 0.00150998 0)
(0.00298077 0.00158855 0)
(0.00329228 0.00166091 0)
(4.33389e-06 3.96369e-05 0)
(3.7021e-05 0.00011039 0)
(9.94898e-05 0.000182016 0)
(0.000188167 0.000255829 0)
(0.000298982 0.000332432 0)
(0.000429839 0.000413011 0)
(0.000579543 0.000496803 0)
(0.000747338 0.000582532 0)
(0.000932538 0.000668956 0)
(0.00113451 0.000754853 0)
(0.0013526 0.000839067 0)
(0.00158626 0.000920351 0)
(0.0018348 0.000997901 0)
(0.00209706 0.00107149 0)
(0.0023713 0.00114072 0)
(0.00265612 0.00120496 0)
(0.00294861 0.00126381 0)
(0.0032524 0.00131755 0)
(4.57242e-06 2.93838e-05 0)
(3.78031e-05 8.3355e-05 0)
(0.000100342 0.000139268 0)
(0.000188152 0.000198644 0)
(0.000295173 0.000263968 0)
(0.000423214 0.0003312 0)
(0.000570266 0.000400725 0)
(0.000735056 0.000471534 0)
(0.000916665 0.000542199 0)
(0.0011143 0.000611357 0)
(0.00132713 0.000677827 0)
(0.00155469 0.000740441 0)
(0.00179591 0.000798861 0)
(0.00205012 0.000852821 0)
(0.0023161 0.000901975 0)
(0.00259273 0.000946138 0)
(0.00287691 0.00098525 0)
(0.00317354 0.00102007 0)
(4.32713e-06 2.10808e-05 0)
(3.56693e-05 6.23599e-05 0)
(9.62567e-05 0.000107132 0)
(0.000180409 0.000154399 0)
(0.000279671 0.000205152 0)
(0.00040164 0.00026168 0)
(0.000542387 0.000318977 0)
(0.000699077 0.000376496 0)
(0.00087022 0.000433123 0)
(0.00105498 0.000487575 0)
(0.00125304 0.000538959 0)
(0.00146433 0.00058568 0)
(0.00168655 0.000627747 0)
(0.00192113 0.000666144 0)
(0.00216944 0.000700319 0)
(0.0024314 0.000729971 0)
(0.00270356 0.000755233 0)
(0.00299187 0.000777356 0)
(1.60423e-06 1.51589e-05 0)
(2.77451e-05 4.45675e-05 0)
(7.9769e-05 7.7456e-05 0)
(0.000150202 0.000117678 0)
(0.000255279 0.000157925 0)
(0.000355596 0.000200922 0)
(0.000462312 0.000248122 0)
(0.00058034 0.000296466 0)
(0.000712725 0.000344104 0)
(0.000863313 0.000389035 0)
(0.00103675 0.000429494 0)
(0.0012359 0.00046468 0)
(0.00146678 0.000493079 0)
(0.00172936 0.000514216 0)
(0.00202011 0.000528939 0)
(0.00233687 0.000538493 0)
(0.00267446 0.000543743 0)
(0.00303569 0.000546276 0)
(-4.60975e-06 1.29346e-05 0)
(-4.06561e-06 3.59395e-05 0)
(1.98318e-05 6.11576e-05 0)
(7.40191e-05 8.89902e-05 0)
(0.000150229 0.000123242 0)
(0.000282158 0.000160982 0)
(0.000466306 0.000198816 0)
(0.000703323 0.000234632 0)
(0.00099386 0.000266509 0)
(0.00133593 0.000292357 0)
(0.00172506 0.000310732 0)
(0.0021545 0.000320464 0)
(0.00261565 0.00032154 0)
(0.00309961 0.000315558 0)
(0.00359794 0.000304098 0)
(0.00410376 0.000288458 0)
(0.00460805 0.000269799 0)
(0.00511239 0.000250122 0)
(1.56451e-05 8.9735e-06 0)
(9.63933e-05 2.25104e-05 0)
(0.000246393 3.64959e-05 0)
(0.000467611 5.20869e-05 0)
(0.000755747 6.72697e-05 0)
(0.00110551 8.20838e-05 0)
(0.00151029 9.50618e-05 0)
(0.00195966 0.000104305 0)
(0.00243842 0.000108534 0)
(0.00292933 0.000107242 0)
(0.00341524 0.00010059 0)
(0.00388038 8.92223e-05 0)
(0.00431134 7.43042e-05 0)
(0.00469923 5.74797e-05 0)
(0.00503939 4.00796e-05 0)
(0.00533187 2.3215e-05 0)
(0.0055765 7.69816e-06 0)
(0.00578341 -5.58253e-06 0)
(-0.0057165 0.00765037 -1.49013e-21)
(-0.0095155 0.0114037 1.65843e-21)
(-0.021214 0.0130984 0)
(-0.0318446 0.0130604 0)
(-0.0424141 0.0119252 0)
(-0.0525407 0.0102497 -2.40656e-21)
(-0.0620068 0.00840872 0)
(-0.0707717 0.00668048 0)
(-0.0789002 0.00537189 0)
(-0.0865728 0.00501361 0)
(-0.0942327 0.00663592 2.12152e-21)
(-0.102927 0.0121447 0)
(-0.114275 0.0239307 0)
(-0.131018 0.0328603 0)
(-0.150569 0.0336343 0)
(-0.168641 0.0235637 1.44968e-21)
(-0.183654 0.0122353 0)
(-0.195792 0.0104093 0)
(-0.208176 0.0117343 0)
(-0.221127 0.0128933 0)
(-0.234428 0.0134096 0)
(-0.247958 0.013575 0)
(-0.261672 0.0136222 0)
(-0.275553 0.0136302 1.33566e-21)
(-0.289587 0.0136067 -1.32708e-21)
(-0.303756 0.013545 1.31854e-21)
(-0.318036 0.0134408 1.31003e-21)
(-0.332401 0.0132922 0)
(-0.346819 0.0130978 0)
(-0.361255 0.0128562 -1.28416e-21)
(-0.375671 0.0125658 -1.2753e-21)
(-0.390027 0.012225 0)
(-0.404277 0.0118325 0)
(-0.418374 0.0113868 -1.24753e-21)
(-0.432267 0.0108868 0)
(-0.445903 0.0103313 0)
(-0.459226 0.00971946 1.21741e-21)
(-0.472178 0.00905053 0)
(-0.4847 0.00832404 1.19582e-21)
(-0.496729 0.00753981 2.3691e-21)
(-0.508203 0.00669794 0)
(-0.519057 0.00579882 0)
(-0.529227 0.00484312 0)
(-0.538649 0.00383175 0)
(-0.547258 0.00276593 0)
(-0.554989 0.0016471 2.22154e-21)
(-0.561777 0.000477026 2.1951e-21)
(-0.567561 -0.000742191 2.16819e-21)
(-0.572277 -0.00200803 0)
(-0.575865 -0.00331742 -2.11292e-21)
(-0.578266 -0.00466664 0)
(-0.579423 -0.00605111 2.05557e-21)
(-0.579282 -0.00746526 2.026e-21)
(-0.577795 -0.00890232 0)
(-0.574915 -0.0103542 0)
(-0.570606 -0.0118116 0)
(-0.564837 -0.0132635 1.90001e-21)
(-0.557586 -0.0146977 0)
(-0.548842 -0.016101 0)
(-0.538606 -0.017459 0)
(-0.526894 -0.0187566 0)
(-0.513733 -0.0199783 0)
(-0.499168 -0.0211087 0)
(-0.483261 -0.0221323 0)
(-0.466088 -0.0230346 0)
(-0.447742 -0.0238021 -1.55251e-21)
(-0.428336 -0.0244228 0)
(-0.407994 -0.024887 0)
(-0.386857 -0.0251875 1.41896e-21)
(-0.365077 -0.0253207 1.37394e-21)
(-0.342814 -0.0252863 0)
(-0.320236 -0.0250885 -1.28492e-21)
(-0.297511 -0.0247356 1.24156e-21)
(-0.274803 -0.0242403 0)
(-0.252271 -0.0236194 -1.15863e-21)
(-0.230058 -0.0228935 0)
(-0.208294 -0.0220858 0)
(-0.187084 -0.0212211 1.04731e-21)
(-0.166511 -0.0203248 0)
(-0.146633 -0.0194205 -9.8319e-22)
(-0.127482 -0.0185297 0)
(-0.109066 -0.0176698 9.26549e-22)
(-0.0913717 -0.0168536 9.0046e-22)
(-0.0743683 -0.016089 8.7543e-22)
(-0.058013 -0.0153785 1.7022e-21)
(-0.0422562 -0.0147196 -1.65424e-21)
(-0.0270483 -0.0141045 0)
(-0.0123456 -0.0135211 0)
(0.00188335 -0.0129539 0)
(0.0156524 -0.0123849 -1.45711e-21)
(0.0289548 -0.0117961 -1.40457e-21)
(0.0417612 -0.0111712 1.35071e-21)
(0.0540214 -0.0104973 0)
(0.0656671 -0.00976664 -1.24112e-21)
(0.0766177 -0.00897693 -1.18685e-21)
(0.0867864 -0.00813183 -1.13395e-21)
(0.096087 -0.00724074 0)
(0.104442 -0.00631881 0)
(0.11179 -0.00538659 0)
(0.118094 -0.00446924 -9.49158e-22)
(0.123349 -0.00359482 0)
(0.127586 -0.00279207 0)
(0.130875 -0.00208796 8.47913e-22)
(0.133323 -0.00150532 0)
(0.135071 -0.00106089 0)
(0.136288 -0.000763964 7.73533e-22)
(0.137158 -0.000615675 0)
(0.137875 -0.000609234 0)
(0.138624 -0.000731109 -7.07529e-22)
(0.139576 -0.000963478 -6.83694e-22)
(0.140877 -0.00128868 0)
(0.142643 -0.00169772 6.29967e-22)
(0.144968 -0.00219166 0)
(0.147851 -0.00274148 -5.67131e-22)
(0.151237 -0.00323665 0)
(0.155229 -0.00340121 -4.96555e-22)
(0.159266 -0.00256337 -4.64699e-22)
(0.163372 -0.00206957 0)
(0.168739 -0.00146407 0)
(0.173833 -0.00192969 0)
(0.178778 -0.00233952 0)
(0.183804 -0.00262822 0)
(0.188944 -0.00288207 0)
(0.194258 -0.00314031 0)
(0.199819 -0.00341944 -2.15074e-22)
(0.205704 -0.00372368 1.89129e-22)
(0.211981 -0.00404592 0)
(0.218699 -0.00436971 0)
(0.225873 -0.00467198 0)
(0.233473 -0.00492631 0)
(0.241423 -0.00510639 1.17259e-22)
(0.249598 -0.00518946 0)
(0.257834 -0.0051593 -2.06908e-23)
(0.265937 -0.00500827 -2.00659e-23)
(0.2737 -0.00473813 0)
(0.280916 -0.00435867 0)
(0.287397 -0.00388066 0)
(0.292995 -0.00331288 8.89918e-23)
(0.297612 -0.00271287 7.63461e-23)
(0.301181 -0.00212348 0)
(0.303683 -0.00156402 1.34118e-23)
(0.305139 -0.00104783 -3.54727e-23)
(0.305604 -0.000582917 9.45093e-23)
(0.305152 -0.000172068 0)
(0.303866 0.000185536 0)
(0.30183 0.00049242 3.19427e-22)
(0.299126 0.000750486 0)
(0.295834 0.000958555 0)
(0.292038 0.00111048 0)
(0.287839 0.0011951 0)
(0.283365 0.00119768 -7.8379e-22)
(0.278776 0.00110258 -8.80431e-22)
(0.274272 0.0008967 0)
(0.270088 0.00057321 -1.06564e-21)
(0.266473 0.000135126 0)
(0.263678 -0.000402001 0)
(0.261917 -0.00100833 -1.29313e-21)
(0.261339 -0.00164172 0)
(0.261996 -0.00224825 -1.39279e-21)
(0.263812 -0.00276746 0)
(0.266573 -0.00313758 0)
(0.269915 -0.00330207 -1.4701e-21)
(0.273344 -0.00321544 0)
(0.27626 -0.00284887 -1.50707e-21)
(0.277997 -0.00219364 0)
(0.27788 -0.0012609 0)
(0.275266 -7.88892e-05 0)
(0.26959 0.00131021 1.70492e-21)
(0.260405 0.00285342 0)
(0.247407 0.00449115 -1.91841e-21)
(0.230458 0.00616549 0)
(0.209579 0.00782398 0)
(0.184954 0.00942855 0)
(0.156905 0.0109957 0)
(0.125534 0.0129285 0)
(0.0907576 0.0127343 0)
(0.0584578 0.00918679 0)
(0.0306102 0.00820959 7.8405e-21)
(0.00138062 0.00793113 0)
(-0.0204594 0.00677107 0)
(-0.00861727 0.0223796 4.59244e-21)
(-0.0148745 0.0288296 -5.19845e-21)
(-0.0269513 0.0314749 0)
(-0.038171 0.0319583 4.59834e-21)
(-0.0493476 0.0313126 0)
(-0.0606352 0.0300997 2.57011e-21)
(-0.0720079 0.0286711 -5.13397e-21)
(-0.083554 0.0272705 -5.00182e-21)
(-0.095425 0.0261226 0)
(-0.10777 0.0255182 -4.60271e-21)
(-0.120646 0.0258793 -2.18915e-21)
(-0.133807 0.0277949 0)
(-0.146262 0.0319381 0)
(-0.156923 0.0379054 0)
(-0.166785 0.0411387 0)
(-0.178899 0.0406741 -1.82351e-21)
(-0.193826 0.0383503 0)
(-0.20992 0.0367126 3.51332e-21)
(-0.225707 0.0361443 0)
(-0.241049 0.0361513 0)
(-0.256233 0.0363309 -3.35803e-21)
(-0.271459 0.036525 0)
(-0.286801 0.0366963 3.28468e-21)
(-0.302278 0.036837 -1.62066e-21)
(-0.317885 0.0369397 1.60573e-21)
(-0.333612 0.0369945 -1.5913e-21)
(-0.349437 0.0369908 -1.57705e-21)
(-0.365334 0.036919 0)
(-0.381267 0.0367706 0)
(-0.397198 0.0365379 1.53323e-21)
(-0.41308 0.0362142 -1.53011e-21)
(-0.428864 0.0357933 0)
(-0.444496 0.03527 0)
(-0.459917 0.0346396 1.46789e-21)
(-0.475067 0.0338981 0)
(-0.48988 0.0330423 0)
(-0.504288 0.0320696 -1.41204e-21)
(-0.518221 0.0309786 0)
(-0.531608 0.0297685 1.38438e-21)
(-0.544375 0.0284395 -2.70053e-21)
(-0.556448 0.0269926 0)
(-0.567753 0.0254297 0)
(-0.578217 0.0237536 -5.15712e-21)
(-0.587765 0.0219675 -5.06321e-21)
(-0.596327 0.0200753 -4.96759e-21)
(-0.603831 0.0180812 2.44655e-21)
(-0.610209 0.0159901 -2.37496e-21)
(-0.615396 0.0138071 -6.99795e-21)
(-0.619327 0.0115376 4.57205e-21)
(-0.621943 0.0091878 2.22503e-21)
(-0.623186 0.00676428 0)
(-0.623003 0.00427465 -2.12319e-21)
(-0.621346 0.00172764 2.09194e-21)
(-0.618173 -0.000866576 0)
(-0.613447 -0.00349611 0)
(-0.60714 -0.00614718 0)
(-0.599234 -0.00880397 -1.86439e-21)
(-0.589721 -0.0114486 0)
(-0.578604 -0.0140613 3.539e-21)
(-0.565899 -0.0166204 0)
(-0.551638 -0.0191029 3.32766e-21)
(-0.535868 -0.0214843 0)
(-0.51865 -0.0237398 -3.11512e-21)
(-0.500065 -0.0258438 0)
(-0.480208 -0.0277712 2.90246e-21)
(-0.459191 -0.0294977 -1.40667e-21)
(-0.437144 -0.0310009 0)
(-0.41421 -0.0322606 -2.58805e-21)
(-0.390546 -0.0332604 -1.23666e-21)
(-0.366319 -0.0339882 -1.18763e-21)
(-0.341704 -0.0344373 0)
(-0.31688 -0.0346072 -1.10231e-21)
(-0.292025 -0.0345042 -1.05076e-21)
(-0.267313 -0.0341418 0)
(-0.242909 -0.0335405 9.71147e-22)
(-0.21896 -0.0327276 -1.87327e-21)
(-0.1956 -0.0317363 0)
(-0.172935 -0.0306045 -8.74928e-22)
(-0.15105 -0.0293733 0)
(-0.129999 -0.0280848 2.48284e-21)
(-0.109809 -0.02678 0)
(-0.0904799 -0.0254963 -2.37955e-21)
(-0.0719854 -0.0242654 -7.79508e-22)
(-0.0542792 -0.0231106 7.67651e-22)
(-0.0373014 -0.0220461 1.51313e-21)
(-0.0209855 -0.0210757 -1.49059e-21)
(-0.00526729 -0.0201933 0)
(0.00990739 -0.0193835 0)
(0.0245759 -0.0186233 0)
(0.0387537 -0.0178846 4.09061e-21)
(0.0524317 -0.0171371 1.31945e-21)
(0.0655759 -0.016351 -1.27645e-21)
(0.0781297 -0.0155006 0)
(0.0900189 -0.0145668 -1.19302e-21)
(0.101158 -0.0135383 1.13636e-21)
(0.111457 -0.0124132 1.08909e-21)
(0.12083 -0.0111987 0)
(0.129205 -0.00991165 0)
(0.136525 -0.00857844 0)
(0.142766 -0.00723388 9.18808e-22)
(0.147936 -0.00591928 0)
(0.15208 -0.00467939 -1.69587e-21)
(0.155284 -0.0035588 -2.46015e-21)
(0.157674 -0.00259819 1.58579e-21)
(0.159404 -0.00183088 0)
(0.160655 -0.00127998 7.45758e-22)
(0.161621 -0.000956156 0)
(0.162498 -0.000856704 1.4125e-21)
(0.163475 -0.000965294 -6.8592e-22)
(0.164717 -0.00125292 -6.63997e-22)
(0.166356 -0.00167879 0)
(0.168481 -0.002194 -1.82593e-21)
(0.171153 -0.00273648 1.16007e-21)
(0.174361 -0.00316932 5.43772e-22)
(0.17807 -0.0034181 0)
(0.182797 -0.00449357 4.73318e-22)
(0.187286 -0.00580386 1.32627e-21)
(0.191466 -0.00552741 0)
(0.195819 -0.00509784 7.49868e-22)
(0.200727 -0.00509684 6.84211e-22)
(0.206014 -0.00510836 6.21667e-22)
(0.211386 -0.00514241 0)
(0.216855 -0.00521788 0)
(0.22247 -0.0053546 0)
(0.228305 -0.00556462 -2.08495e-22)
(0.234442 -0.00584886 -1.73037e-22)
(0.240952 -0.00619487 0)
(0.247884 -0.006577 -2.62719e-22)
(0.25525 -0.00695858 -2.14403e-22)
(0.263015 -0.00729571 0)
(0.271095 -0.00754244 -1.01837e-22)
(0.279353 -0.00765642 -1.44527e-22)
(0.287616 -0.00760416 1.5524e-23)
(0.295676 -0.00736521 7.84023e-24)
(0.303315 -0.00693465 0)
(0.310321 -0.00632362 0)
(0.316505 -0.0055553 0)
(0.321707 -0.00465772 -5.85032e-23)
(0.325814 -0.00368663 2.16057e-23)
(0.328771 -0.00269472 -1.08286e-23)
(0.33057 -0.00172274 4.6143e-23)
(0.331241 -0.000801318 -1.20672e-22)
(0.330842 4.88488e-05 -1.76766e-22)
(0.32945 0.000816557 0)
(0.327147 0.00149888 0)
(0.324019 0.00209817 4.58211e-22)
(0.320148 0.00261814 0)
(0.315621 0.00305954 0)
(0.310533 0.00341625 -1.51595e-21)
(0.304996 0.00367454 0)
(0.299147 0.00381377 -9.93917e-22)
(0.293154 0.00380856 1.06766e-21)
(0.287221 0.00363411 0)
(0.281584 0.00327286 -1.3289e-21)
(0.276495 0.00272143 0)
(0.272206 0.0019961 0)
(0.268934 0.00113737 1.54804e-21)
(0.266827 0.000207965 -3.32296e-21)
(0.265938 -0.000706829 1.68302e-21)
(0.266193 -0.00150808 0)
(0.267374 -0.00209177 0)
(0.269122 -0.00236122 -1.92854e-21)
(0.270946 -0.00223658 0)
(0.272252 -0.00166615 -2.02212e-21)
(0.272388 -0.000634811 0)
(0.270693 0.000834905 0)
(0.266549 0.00268746 0)
(0.259425 0.00483892 -2.26342e-21)
(0.248917 0.00718141 0)
(0.23478 0.00958899 2.57094e-21)
(0.21694 0.011936 0)
(0.195501 0.0140978 0)
(0.170743 0.0159608 -6.49826e-21)
(0.143043 0.0174799 6.97376e-21)
(0.113145 0.0186888 0)
(0.0812939 0.0189933 0)
(0.0480334 0.0187237 0)
(0.0168018 0.0172862 -2.80524e-20)
(-0.0174375 0.016973 0)
(-0.0457695 0.0148021 2.07568e-20)
(-0.00886234 0.051916 1.98476e-24)
(-0.0173142 0.0561983 7.04077e-21)
(-0.0294587 0.0573812 0)
(-0.0410113 0.0573942 -9.20072e-21)
(-0.0521263 0.0566315 0)
(-0.0633445 0.0554814 0)
(-0.0747245 0.0543356 2.50678e-24)
(-0.0863675 0.0535458 4.97965e-21)
(-0.0983839 0.0534226 4.78105e-21)
(-0.11084 0.0542489 4.56429e-21)
(-0.123718 0.0562602 0)
(-0.136868 0.0595523 0)
(-0.149896 0.0638462 -3.99089e-21)
(-0.162184 0.0680506 -7.69613e-21)
(-0.173804 0.0703458 7.4544e-21)
(-0.185877 0.0699738 0)
(-0.199221 0.068375 7.07906e-21)
(-0.213611 0.0670384 -3.46475e-21)
(-0.22853 0.0663163 0)
(-0.243721 0.066041 6.69593e-21)
(-0.259117 0.0660054 3.29776e-21)
(-0.274705 0.066077 -6.51277e-21)
(-0.290473 0.0661793 -3.21509e-21)
(-0.306405 0.0662625 0)
(-0.322477 0.0662886 6.28765e-21)
(-0.338659 0.0662267 6.21767e-21)
(-0.354918 0.0660509 0)
(-0.371216 0.0657395 6.07757e-21)
(-0.387509 0.065274 0)
(-0.403749 0.0646383 5.93235e-21)
(-0.419882 0.0638185 2.92795e-21)
(-0.435852 0.0628024 0)
(-0.451594 0.0615795 0)
(-0.467044 0.0601408 0)
(-0.482132 0.0584789 0)
(-0.496784 0.0565879 0)
(-0.510926 0.054464 0)
(-0.524481 0.0521051 5.25533e-21)
(-0.537372 0.0495112 -7.74285e-21)
(-0.549523 0.0466842 0)
(-0.560857 0.0436279 0)
(-0.5713 0.0403479 0)
(-0.58078 0.0368516 1.66278e-23)
(-0.58923 0.0331475 4.66535e-21)
(-0.596582 0.0292456 9.09977e-21)
(-0.602775 0.0251568 -8.88569e-21)
(-0.607751 0.020893 -4.3226e-21)
(-0.611456 0.0164669 4.24027e-21)
(-0.61384 0.011892 -2.85074e-23)
(-0.614857 0.00718308 3.99491e-21)
(-0.614464 0.00235604 0)
(-0.612624 -0.0025714 3.77738e-21)
(-0.609304 -0.00757929 -3.32836e-23)
(-0.604475 -0.012645 0)
(-0.598115 -0.0177426 0)
(-0.590207 -0.0228427 -3.34934e-21)
(-0.580745 -0.0279124 0)
(-0.56973 -0.0329152 0)
(-0.557174 -0.0378113 3.00029e-21)
(-0.543101 -0.0425581 5.86491e-21)
(-0.527548 -0.0471111 -2.86547e-21)
(-0.510565 -0.0514242 0)
(-0.492219 -0.0554505 2.66298e-21)
(-0.472591 -0.0591436 0)
(-0.451778 -0.0624583 2.39171e-21)
(-0.429892 -0.0653524 2.36736e-21)
(-0.407064 -0.0677873 -4.46936e-21)
(-0.383437 -0.0697306 -2.10318e-21)
(-0.359168 -0.0711569 0)
(-0.334426 -0.0720503 3.92321e-21)
(-0.309387 -0.0724051 0)
(-0.284233 -0.072228 5.42987e-21)
(-0.259144 -0.0715384 3.44297e-21)
(-0.234297 -0.0703691 3.30294e-21)
(-0.209856 -0.0687656 -3.17472e-21)
(-0.185974 -0.0667853 4.62625e-21)
(-0.162779 -0.0644959 0)
(-0.140376 -0.0619723 0)
(-0.118844 -0.0592937 -2.79188e-21)
(-0.0982262 -0.0565399 -4.12301e-21)
(-0.0785383 -0.0537873 0)
(-0.0597642 -0.0511043 1.34128e-21)
(-0.0418616 -0.0485475 0)
(-0.0247666 -0.0461579 -3.86113e-21)
(-0.00840105 -0.0439582 -3.43397e-23)
(0.00731882 -0.0419515 2.92583e-23)
(0.0224739 -0.0401211 2.45767e-21)
(0.0371332 -0.0384328 0)
(0.0513465 -0.0368381 -2.36477e-21)
(0.0651375 -0.0352794 -1.6038e-23)
(0.0785012 -0.0336959 0)
(0.0914022 -0.0320302 0)
(0.103778 -0.0302342 0)
(0.115544 -0.0282744 2.02169e-21)
(0.126601 -0.0261347 0)
(0.136845 -0.0238177 0)
(0.146175 -0.0213439 0)
(0.1545 -0.0187525 0)
(0.161751 -0.0161006 0)
(0.167889 -0.0134606 1.5294e-21)
(0.172913 -0.0109159 0)
(0.176864 -0.00855401 1.43277e-21)
(0.179832 -0.00645947 1.38364e-21)
(0.181946 -0.00470617 -1.34018e-21)
(0.183373 -0.00335115 0)
(0.184306 -0.00242971 -1.26592e-21)
(0.184953 -0.00195197 0)
(0.185525 -0.0019023 -1.19864e-21)
(0.186222 -0.00223961 1.16359e-21)
(0.187221 -0.00290134 3.38147e-21)
(0.188662 -0.00380842 0)
(0.190646 -0.00487147 3.12037e-21)
(0.193287 -0.00600997 9.94253e-22)
(0.196584 -0.00721526 0)
(0.199599 -0.00835257 1.74417e-21)
(0.202776 -0.00863971 1.62128e-21)
(0.207609 -0.00992179 -2.23041e-21)