/*--------------------------------*- C++ -*----------------------------------*\
| =========                 |                                                 |
| \\      /  F ield         | OpenFOAM: The Open Source CFD Toolbox           |
|  \\    /   O peration     | Version:  2112                                  |
|   \\  /    A nd           | Website:  www.openfoam.com                      |
|    \\/     M anipulation  |                                                 |
\*---------------------------------------------------------------------------*/
FoamFile
{
    version     2.0;
    format      ascii;
    arch        "LSB;label=32;scalar=64";
    class       surfaceScalarField;
    location    "0.06";
    object      phi;
}
// * * * * * * * * * * * * * * * * * * * * * * * * * * * * * * * * * * * * * //

dimensions      [0 3 -1 0 0 0 0];

oriented        oriented;

internalField   nonuniform List<scalar> 
24170
(
3.0413e-06
1.47103e-07
2.87e-06
1.71303e-07
2.70945e-06
1.6055e-07
2.56806e-06
1.4139e-07
2.45423e-06
1.13834e-07
2.37112e-06
8.31053e-08
2.31517e-06
5.5948e-08
2.27919e-06
3.59772e-08
2.25499e-06
2.42053e-08
2.23642e-06
1.85695e-08
2.22034e-06
1.60821e-08
2.20582e-06
1.45213e-08
2.19294e-06
1.28752e-08
2.18156e-06
1.13785e-08
2.17094e-06
1.06201e-08
2.15627e-06
1.46739e-08
2.12581e-06
3.04592e-08
6.79474e-08
2.05786e-06
3.48278e-06
8.15715e-08
3.5215e-06
1.3258e-07
3.53335e-06
1.48705e-07
3.5155e-06
1.59243e-07
3.46888e-06
1.60454e-07
3.39869e-06
1.53291e-07
3.31247e-06
1.42169e-07
3.21839e-06
1.30055e-07
3.12432e-06
1.18279e-07
3.03635e-06
1.06536e-07
2.95814e-06
9.42957e-08
2.89105e-06
8.16062e-08
2.83484e-06
6.9084e-08
2.78809e-06
5.81345e-08
2.74914e-06
4.95659e-08
2.71549e-06
4.83278e-08
2.69334e-06
5.26033e-08
8.56448e-08
2.67565e-06
3.68098e-06
6.31072e-08
3.70035e-06
1.13214e-07
3.71862e-06
1.30436e-07
3.73601e-06
1.41848e-07
3.74879e-06
1.47675e-07
3.75406e-06
1.48018e-07
3.75021e-06
1.46022e-07
3.73638e-06
1.43886e-07
3.71253e-06
1.42131e-07
3.67905e-06
1.40016e-07
3.63666e-06
1.3668e-07
3.58646e-06
1.3181e-07
3.52996e-06
1.25586e-07
3.46924e-06
1.18852e-07
3.40666e-06
1.12145e-07
3.34591e-06
1.09074e-07
3.29114e-06
1.07373e-07
1.19672e-07
3.25712e-06
3.93601e-06
5.24809e-08
3.9481e-06
1.01132e-07
3.9582e-06
1.20329e-07
3.96845e-06
1.316e-07
3.97832e-06
1.37812e-07
3.98703e-06
1.39298e-07
3.99445e-06
1.3861e-07
4.0005e-06
1.37833e-07
4.00505e-06
1.37579e-07
4.00762e-06
1.37449e-07
4.00739e-06
1.36905e-07
4.00343e-06
1.35773e-07
3.99477e-06
1.34243e-07
3.98069e-06
1.32941e-07
3.96051e-06
1.32318e-07
3.93546e-06
1.34128e-07
3.90561e-06
1.37218e-07
1.43311e-07
3.88198e-06
4.21527e-06
4.43352e-08
4.22543e-06
9.09763e-08
4.23408e-06
1.11682e-07
4.24227e-06
1.23411e-07
4.25002e-06
1.30053e-07
4.25694e-06
1.32379e-07
4.26309e-06
1.32469e-07
4.26878e-06
1.32138e-07
4.27433e-06
1.32031e-07
4.27981e-06
1.31968e-07
4.28509e-06
1.3162e-07
4.28994e-06
1.3093e-07
4.29404e-06
1.30136e-07
4.29723e-06
1.29752e-07
4.29935e-06
1.30205e-07
4.30116e-06
1.32311e-07
4.30296e-06
1.35417e-07
1.38437e-07
4.30784e-06
4.5158e-06
3.76191e-08
4.52504e-06
8.174e-08
4.53338e-06
1.03345e-07
4.54115e-06
1.15639e-07
4.54846e-06
1.22739e-07
4.55506e-06
1.25785e-07
4.56095e-06
1.2658e-07
4.56641e-06
1.26673e-07
4.57173e-06
1.26711e-07
4.57703e-06
1.26672e-07
4.58228e-06
1.26369e-07
4.58741e-06
1.25795e-07
4.59239e-06
1.25161e-07
4.5973e-06
1.2484e-07
4.60239e-06
1.25115e-07
4.60843e-06
1.2627e-07
4.61615e-06
1.27698e-07
1.28284e-07
4.6263e-06
4.83847e-06
3.18691e-08
4.84707e-06
7.31422e-08
4.8553e-06
9.51091e-08
4.86305e-06
1.07891e-07
4.87035e-06
1.15439e-07
4.87704e-06
1.19098e-07
4.88311e-06
1.20508e-07
4.88879e-06
1.20991e-07
4.89432e-06
1.21182e-07
4.89981e-06
1.21184e-07
4.90526e-06
1.20916e-07
4.91065e-06
1.20404e-07
4.916e-06
1.19819e-07
4.92142e-06
1.19411e-07
4.92721e-06
1.1933e-07
4.9339e-06
1.19584e-07
4.94199e-06
1.19604e-07
1.18411e-07
4.95186e-06
5.18449e-06
2.69624e-08
5.19265e-06
6.4976e-08
5.20087e-06
8.68894e-08
5.20871e-06
1.00051e-07
5.21616e-06
1.0799e-07
5.22309e-06
1.12166e-07
5.2295e-06
1.14102e-07
5.23556e-06
1.14929e-07
5.24147e-06
1.15275e-07
5.24732e-06
1.15329e-07
5.25315e-06
1.15089e-07
5.25895e-06
1.14602e-07
5.26477e-06
1.13999e-07
5.27075e-06
1.13434e-07
5.27712e-06
1.12958e-07
5.28424e-06
1.1246e-07
5.29238e-06
1.11463e-07
1.09214e-07
5.30158e-06
5.55549e-06
2.28099e-08
5.56319e-06
5.72799e-08
5.57145e-06
7.86282e-08
5.5795e-06
9.20013e-08
5.58721e-06
1.00281e-07
5.59446e-06
1.04914e-07
5.60127e-06
1.07289e-07
5.60778e-06
1.08417e-07
5.61414e-06
1.08917e-07
5.62044e-06
1.09035e-07
5.62671e-06
1.08819e-07
5.63298e-06
1.0833e-07
5.63931e-06
1.07667e-07
5.64583e-06
1.06919e-07
5.65271e-06
1.06075e-07
5.66017e-06
1.04995e-07
5.66831e-06
1.0333e-07
1.00546e-07
5.67698e-06
5.95329e-06
1.9291e-08
5.96036e-06
5.02166e-08
5.96853e-06
7.04573e-08
5.97689e-06
8.36413e-08
5.98503e-06
9.21383e-08
5.99271e-06
9.7233e-08
6e-06
1.00003e-07
6.007e-06
1.01413e-07
6.01384e-06
1.02075e-07
6.02062e-06
1.02262e-07
6.02737e-06
1.02065e-07
6.03414e-06
1.01559e-07
6.04099e-06
1.0082e-07
6.04801e-06
9.9899e-08
6.05532e-06
9.8761e-08
6.06304e-06
9.72759e-08
6.07118e-06
9.51942e-08
9.21763e-08
6.07955e-06
6.37979e-06
1.63118e-08
6.38618e-06
4.38321e-08
6.39405e-06
6.25804e-08
6.40256e-06
7.51377e-08
6.41115e-06
8.35495e-08
6.41945e-06
8.89236e-08
6.42738e-06
9.20808e-08
6.43495e-06
9.38352e-08
6.44232e-06
9.47067e-08
6.44961e-06
9.49726e-08
6.45688e-06
9.47973e-08
6.46416e-06
9.4276e-08
6.47151e-06
9.3472e-08
6.47899e-06
9.24184e-08
6.48666e-06
9.10893e-08
6.49457e-06
8.93687e-08
6.50274e-06
8.70274e-08
8.38948e-08
6.51102e-06
5.74299e-06
1.41591e-08
5.74789e-06
3.89244e-08
5.75427e-06
5.62018e-08
5.76141e-06
6.80017e-08
5.76885e-06
7.611e-08
5.77627e-06
8.15011e-08
5.78348e-06
8.48748e-08
5.79043e-06
8.68835e-08
5.79718e-06
8.79537e-08
5.80382e-06
8.83382e-08
5.81039e-06
8.82221e-08
5.81695e-06
8.77185e-08
5.82353e-06
8.68918e-08
5.83018e-06
8.57663e-08
5.83695e-06
8.43193e-08
5.84386e-06
8.24607e-08
5.85088e-06
8.00118e-08
7.68924e-08
5.85788e-06
7.00024e-06
1.20704e-08
7.00544e-06
3.37238e-08
7.0124e-06
4.92428e-08
7.02043e-06
5.99786e-08
7.02902e-06
6.75206e-08
7.03779e-06
7.27233e-08
7.0465e-06
7.61655e-08
7.05505e-06
7.83415e-08
7.06341e-06
7.95927e-08
7.07161e-06
8.01338e-08
7.07971e-06
8.01275e-08
7.08774e-06
7.96874e-08
7.09575e-06
7.88804e-08
7.10379e-06
7.77286e-08
7.11189e-06
7.62125e-08
7.12008e-06
7.42719e-08
7.12828e-06
7.18121e-08
6.88152e-08
7.13636e-06
8.53291e-06
1.00051e-08
8.53839e-06
2.82416e-08
8.54588e-06
4.17581e-08
8.55475e-06
5.11116e-08
8.56448e-06
5.77871e-08
8.57464e-06
6.25614e-08
8.58494e-06
6.58687e-08
8.59522e-06
6.806e-08
8.60541e-06
6.93983e-08
8.61549e-06
7.00599e-08
8.62544e-06
7.01727e-08
8.6353e-06
6.98304e-08
8.64509e-06
6.90912e-08
8.65484e-06
6.79781e-08
8.66457e-06
6.64829e-08
8.67426e-06
6.45785e-08
8.68384e-06
6.22365e-08
5.94865e-08
8.69317e-06
1.04013e-05
7.9064e-09
1.04071e-05
2.24494e-08
1.04152e-05
3.36434e-08
1.04249e-05
4.13993e-08
1.04358e-05
4.69248e-08
1.04474e-05
5.09877e-08
1.04593e-05
5.39163e-08
1.04715e-05
5.59343e-08
1.04836e-05
5.72192e-08
1.04958e-05
5.79045e-08
1.05079e-05
5.80872e-08
1.05199e-05
5.78365e-08
1.05318e-05
5.71967e-08
1.05435e-05
5.61899e-08
1.05552e-05
5.48218e-08
1.05667e-05
5.30938e-08
1.05779e-05
5.10169e-08
4.86475e-08
1.05888e-05
1.2679e-05
5.7149e-09
1.26852e-05
1.62707e-08
1.26941e-05
2.46874e-08
1.27048e-05
3.06854e-08
1.27169e-05
3.48127e-08
1.273e-05
3.78832e-08
1.27438e-05
4.01854e-08
1.27579e-05
4.18283e-08
1.27722e-05
4.2904e-08
1.27866e-05
4.34966e-08
1.2801e-05
4.3672e-08
1.28154e-05
4.34776e-08
1.28296e-05
4.29457e-08
1.28437e-05
4.20976e-08
1.28576e-05
4.09495e-08
1.28712e-05
3.95207e-08
1.28843e-05
3.7841e-08
3.59732e-08
1.2897e-05
1.54555e-05
3.36122e-09
1.54622e-05
9.58929e-09
1.54722e-05
1.46879e-08
1.54844e-05
1.84703e-08
1.54982e-05
2.10165e-08
1.55132e-05
2.29262e-08
1.5529e-05
2.43971e-08
1.55453e-05
2.54742e-08
1.5562e-05
2.61902e-08
1.5579e-05
2.65816e-08
1.55959e-05
2.66805e-08
1.56129e-05
2.65123e-08
1.56298e-05
2.60977e-08
1.56464e-05
2.54554e-08
1.56627e-05
2.46055e-08
1.56787e-05
2.3573e-08
1.56941e-05
2.2391e-08
2.1115e-08
1.5709e-05
1.88403e-05
7.1471e-10
1.88478e-05
2.06347e-09
1.88593e-05
3.22342e-09
1.88736e-05
4.16238e-09
1.88897e-05
4.86632e-09
1.89072e-05
5.4379e-09
1.89257e-05
5.91119e-09
1.89449e-05
6.27767e-09
1.89646e-05
6.52557e-09
1.89845e-05
6.6477e-09
1.90045e-05
6.64076e-09
1.90245e-05
6.50537e-09
1.90444e-05
6.24684e-09
1.9064e-05
5.87534e-09
1.90832e-05
5.40588e-09
1.91019e-05
4.85821e-09
1.912e-05
4.25786e-09
3.64421e-09
1.91375e-05
2.29665e-05
-2.47375e-09
2.29756e-05
-7.03206e-09
2.29895e-05
-1.06489e-08
2.30069e-05
-1.31956e-08
2.30265e-05
-1.47392e-08
2.30477e-05
-1.57712e-08
2.307e-05
-1.64716e-08
2.30932e-05
-1.69162e-08
2.31169e-05
-1.71745e-08
2.31409e-05
-1.7312e-08
2.31649e-05
-1.73788e-08
2.31888e-05
-1.74077e-08
2.32125e-05
-1.74164e-08
2.32358e-05
-1.74111e-08
2.32586e-05
-1.73899e-08
2.32808e-05
-1.73464e-08
2.33023e-05
-1.72703e-08
-1.71414e-08
2.33231e-05
1.68133e-05
-5.07078e-09
1.68206e-05
-1.43092e-08
1.68315e-05
-2.15238e-08
1.68448e-05
-2.65309e-08
1.68598e-05
-2.97697e-08
1.68761e-05
-3.20016e-08
1.68931e-05
-3.35133e-08
1.69106e-05
-3.44554e-08
1.69284e-05
-3.49689e-08
1.69463e-05
-3.51675e-08
1.6964e-05
-3.51471e-08
1.69816e-05
-3.49766e-08
1.69989e-05
-3.46994e-08
1.70158e-05
-3.43385e-08
1.70323e-05
-3.3904e-08
1.70484e-05
-3.33988e-08
1.70639e-05
-3.28216e-08
-3.21668e-08
1.7079e-05
1.46372e-05
-7.72919e-09
1.46445e-05
-2.15957e-08
1.4655e-05
-3.20191e-08
1.46675e-05
-3.90652e-08
1.46816e-05
-4.38488e-08
1.46968e-05
-4.71391e-08
1.47125e-05
-4.92553e-08
1.47285e-05
-5.04719e-08
1.47446e-05
-5.1031e-08
1.47605e-05
-5.1079e-08
1.47761e-05
-5.07837e-08
1.47914e-05
-5.02743e-08
1.48064e-05
-4.96304e-08
1.48209e-05
-4.88906e-08
1.48351e-05
-4.80688e-08
1.48488e-05
-4.71656e-08
1.48622e-05
-4.61782e-08
-4.51046e-08
1.48751e-05
1.2743e-05
-1.06453e-08
1.27506e-05
-2.91962e-08
1.27611e-05
-4.24376e-08
1.27733e-05
-5.12593e-08
1.27867e-05
-5.7336e-08
1.2801e-05
-6.13998e-08
1.28156e-05
-6.38096e-08
1.28301e-05
-6.49608e-08
1.28443e-05
-6.52311e-08
1.28581e-05
-6.4895e-08
1.28715e-05
-6.41971e-08
1.28845e-05
-6.33111e-08
1.28972e-05
-6.23246e-08
1.29096e-05
-6.12709e-08
1.29217e-05
-6.01524e-08
1.29335e-05
-5.8957e-08
1.2945e-05
-5.76717e-08
-5.62864e-08
1.29561e-05
1.10944e-05
-1.40757e-08
1.11025e-05
-3.73845e-08
1.11131e-05
-5.29643e-08
1.1125e-05
-6.31523e-08
1.11377e-05
-7.01003e-08
1.11509e-05
-7.4545e-08
1.1164e-05
-7.68961e-08
1.11767e-05
-7.76628e-08
1.11888e-05
-7.74079e-08
1.12006e-05
-7.66264e-08
1.12119e-05
-7.55696e-08
1.1223e-05
-7.43826e-08
1.12338e-05
-7.31417e-08
1.12444e-05
-7.18671e-08
1.12548e-05
-7.05423e-08
1.1265e-05
-6.9136e-08
1.12749e-05
-6.7621e-08
-6.59717e-08
1.12846e-05
9.65949e-06
-1.83519e-08
9.66833e-06
-4.62256e-08
9.67885e-06
-6.34831e-08
9.69016e-06
-7.44615e-08
9.70193e-06
-8.18686e-08
9.71378e-06
-8.63975e-08
9.72538e-06
-8.84999e-08
9.73656e-06
-8.88353e-08
9.74724e-06
-8.80865e-08
9.75744e-06
-8.68301e-08
9.76725e-06
-8.53763e-08
9.77675e-06
-8.38882e-08
9.78604e-06
-8.24329e-08
9.79518e-06
-8.10078e-08
9.80421e-06
-7.95645e-08
9.81311e-06
-7.80395e-08
9.82188e-06
-7.63876e-08
-7.45769e-08
9.83048e-06
8.41068e-06
-2.36841e-08
8.42022e-06
-5.57619e-08
8.43052e-06
-7.37781e-08
8.44115e-06
-8.50958e-08
8.45211e-06
-9.28306e-08
8.46306e-06
-9.73454e-08
8.47366e-06
-9.90955e-08
8.48374e-06
-9.8924e-08
8.49329e-06
-9.76328e-08
8.50231e-06
-9.58488e-08
8.51089e-06
-9.39581e-08
8.51915e-06
-9.215e-08
8.52721e-06
-9.04908e-08
8.53516e-06
-8.89582e-08
8.54306e-06
-8.74634e-08
8.55092e-06
-8.58949e-08
8.55868e-06
-8.41547e-08
-8.21028e-08
8.56621e-06
7.32395e-06
-3.03454e-08
7.3344e-06
-6.62181e-08
7.34455e-06
-8.39275e-08
7.35474e-06
-9.52876e-08
7.3653e-06
-1.03386e-07
7.37583e-06
-1.07877e-07
7.38596e-06
-1.09226e-07
7.39552e-06
-1.08485e-07
7.40447e-06
-1.06578e-07
7.41282e-06
-1.04205e-07
7.42071e-06
-1.01843e-07
7.42827e-06
-9.97165e-08
7.43567e-06
-9.78896e-08
7.44302e-06
-9.63077e-08
7.45038e-06
-9.48238e-08
7.45777e-06
-9.3277e-08
7.46518e-06
-9.15712e-08
-8.9714e-08
7.47279e-06
6.37878e-06
-3.90588e-08
6.39092e-06
-7.83615e-08
6.40166e-06
-9.46627e-08
6.41257e-06
-1.06197e-07
6.42402e-06
-1.14842e-07
6.43551e-06
-1.1936e-07
6.44662e-06
-1.20338e-07
6.45711e-06
-1.18974e-07
6.46681e-06
-1.1628e-07
6.47567e-06
-1.13068e-07
6.48377e-06
-1.09944e-07
6.49124e-06
-1.07185e-07
6.49825e-06
-1.04902e-07
6.50493e-06
-1.02981e-07
6.51127e-06
-1.01168e-07
6.51724e-06
-9.92445e-08
6.52265e-06
-9.69794e-08
-9.39947e-08
6.52693e-06
5.56002e-06
-5.36129e-08
5.57776e-06
-9.61007e-08
5.5943e-06
-1.11201e-07
5.61225e-06
-1.24151e-07
5.63085e-06
-1.33444e-07
5.64871e-06
-1.37219e-07
5.6646e-06
-1.3623e-07
5.67744e-06
-1.31815e-07
5.68641e-06
-1.25248e-07
5.69107e-06
-1.17725e-07
5.69127e-06
-1.10144e-07
5.68692e-06
-1.02839e-07
5.6782e-06
-9.61782e-08
5.66533e-06
-9.01172e-08
5.64856e-06
-8.43947e-08
5.62814e-06
-7.88264e-08
5.60458e-06
-7.34125e-08
-6.81733e-08
5.57876e-06
4.88451e-06
-1.10512e-07
4.93081e-06
-1.42405e-07
4.96611e-06
-1.46502e-07
4.98776e-06
-1.45802e-07
4.99309e-06
-1.38772e-07
4.98147e-06
-1.25593e-07
4.95352e-06
-1.0828e-07
4.91071e-06
-8.90078e-08
4.85519e-06
-6.97323e-08
4.78964e-06
-5.21766e-08
4.71708e-06
-3.75762e-08
4.64027e-06
-2.60286e-08
4.56198e-06
-1.78889e-08
4.48468e-06
-1.28172e-08
4.41033e-06
-1.00425e-08
4.34038e-06
-8.8789e-09
4.27571e-06
-8.74105e-09
-8.68763e-09
4.21622e-06
4.09216e-06
3.94976e-06
3.80326e-06
3.65746e-06
3.51868e-06
3.39309e-06
3.28481e-06
3.1958e-06
3.12607e-06
3.07389e-06
3.03632e-06
3.01029e-06
2.9924e-06
2.97958e-06
2.96954e-06
2.96066e-06
2.95192e-06
2.94323e-06
3.50243e-08
-3.50243e-08
7.54733e-08
-4.0449e-08
1.17997e-07
-4.25242e-08
1.61676e-07
-4.36783e-08
2.05905e-07
-4.42292e-08
2.50763e-07
-4.48579e-08
2.96434e-07
-4.56711e-08
3.42013e-07
-4.55791e-08
3.85828e-07
-4.38154e-08
4.26351e-07
-4.05223e-08
4.62372e-07
-3.60208e-08
4.92965e-07
-3.05936e-08
5.1742e-07
-2.44548e-08
5.35183e-07
-1.77632e-08
5.45813e-07
-1.06298e-08
5.48951e-07
-3.13842e-09
5.44378e-07
4.57306e-09
5.32128e-07
1.22505e-08
5.12403e-07
1.97252e-08
4.85428e-07
2.69749e-08
4.51314e-07
3.41137e-08
4.10056e-07
4.12577e-08
3.61957e-07
4.80989e-08
3.0869e-07
5.32672e-08
2.53608e-07
5.50824e-08
1.98309e-07
5.52992e-08
1.42421e-07
5.58874e-08
8.56882e-08
5.67331e-08
2.77238e-08
5.79644e-08
-3.20797e-08
5.98035e-08
-9.44803e-08
6.24006e-08
-1.60259e-07
6.57791e-08
-2.30167e-07
6.99073e-08
-3.04903e-07
7.47365e-08
-3.85115e-07
8.02114e-08
-4.71394e-07
8.62798e-08
-5.64287e-07
9.28926e-08
-6.64287e-07
9.99999e-08
-7.71836e-07
1.07549e-07
-8.87324e-07
1.15488e-07
-1.0111e-06
1.23771e-07
-1.14348e-06
1.32385e-07
-1.28485e-06
1.41374e-07
-1.43574e-06
1.50881e-07
-1.59697e-06
1.61231e-07
-1.76985e-06
1.72879e-07
-1.95344e-06
1.83595e-07
-2.14541e-06
1.91967e-07
-2.34486e-06
1.99448e-07
-2.5512e-06
2.06346e-07
-2.76361e-06
2.12406e-07
-2.98101e-06
2.17398e-07
-3.20218e-06
2.21172e-07
-3.4258e-06
2.23627e-07
-3.65051e-06
2.24708e-07
-3.87492e-06
2.24407e-07
-4.09768e-06
2.22763e-07
-4.31753e-06
2.1985e-07
-4.53331e-06
2.15779e-07
-4.74399e-06
2.10681e-07
-4.9487e-06
2.04702e-07
-5.14669e-06
1.97996e-07
-5.3374e-06
1.90712e-07
-5.5204e-06
1.82994e-07
-5.69536e-06
1.74967e-07
-5.8621e-06
1.6674e-07
-6.0205e-06
1.58395e-07
-6.17048e-06
1.49983e-07
-6.31201e-06
1.41527e-07
-6.44502e-06
1.33012e-07
-6.56941e-06
1.2439e-07
-6.685e-06
1.15584e-07
-6.7915e-06
1.06502e-07
-6.88855e-06
9.70538e-08
-6.97572e-06
8.71633e-08
-7.05249e-06
7.67728e-08
-7.11834e-06
6.58511e-08
-7.17274e-06
5.43974e-08
-7.21515e-06
4.24118e-08
-7.24498e-06
2.98318e-08
-7.26176e-06
1.6779e-08
-7.26645e-06
4.69056e-09
-7.25913e-06
-7.31603e-09
-7.24106e-06
-1.8077e-08
-7.21327e-06
-2.77854e-08
-7.17617e-06
-3.71005e-08
-7.12998e-06
-4.61921e-08
-7.07484e-06
-5.51355e-08
-7.01086e-06
-6.39853e-08
-6.93808e-06
-7.278e-08
-6.85652e-06
-8.15553e-08
-6.76617e-06
-9.03477e-08
-6.66697e-06
-9.92019e-08
-6.5588e-06
-1.08171e-07
-6.4415e-06
-1.17303e-07
-6.31487e-06
-1.26627e-07
-6.17872e-06
-1.36152e-07
-6.03275e-06
-1.4597e-07
-5.87653e-06
-1.56218e-07
-5.70953e-06
-1.66998e-07
-5.53113e-06
-1.78406e-07
-5.34056e-06
-1.90564e-07
-5.13697e-06
-2.03591e-07
-4.91942e-06
-2.17552e-07
-4.68696e-06
-2.32466e-07
-4.43864e-06
-2.4832e-07
-4.17361e-06
-2.6503e-07
-3.89118e-06
-2.82423e-07
-3.59131e-06
-2.99869e-07
-3.27362e-06
-3.17698e-07
-2.93784e-06
-3.35775e-07
-2.58437e-06
-3.5347e-07
-2.21447e-06
-3.69896e-07
-1.83085e-06
-3.83628e-07
-1.43861e-06
-3.92232e-07
-1.04673e-06
-3.91883e-07
-6.67976e-07
-3.78755e-07
-3.07094e-07
-3.60882e-07
5.34227e-08
-3.60516e-07
4.3389e-07
-3.80467e-07
8.30336e-07
-3.96446e-07
1.22565e-06
-3.95313e-07
1.60831e-06
-3.82663e-07
1.97365e-06
-3.65334e-07
2.31972e-06
-3.46071e-07
2.64586e-06
-3.26139e-07
2.95225e-06
-3.06395e-07
3.23748e-06
-2.85231e-07
3.50031e-06
-2.62829e-07
3.74078e-06
-2.40474e-07
3.9597e-06
-2.18914e-07
4.15739e-06
-1.97696e-07
4.33421e-06
-1.7682e-07
4.49118e-06
-1.56963e-07
4.62974e-06
-1.38558e-07
4.75121e-06
-1.21472e-07
4.85659e-06
-1.05378e-07
4.94676e-06
-9.01713e-08
5.02263e-06
-7.58712e-08
5.08513e-06
-6.24982e-08
5.13514e-06
-5.00172e-08
5.17348e-06
-3.83347e-08
5.20082e-06
-2.73448e-08
5.21754e-06
-1.67178e-08
5.22282e-06
-5.27578e-09
5.21652e-06
6.30017e-09
5.19963e-06
1.68892e-08
5.17324e-06
2.63906e-08
5.13831e-06
3.49294e-08
5.09547e-06
4.28375e-08
5.04527e-06
5.02014e-08
4.98822e-06
5.70502e-08
4.92483e-06
6.33897e-08
4.85562e-06
6.92133e-08
4.7811e-06
7.45106e-08
4.70184e-06
7.92686e-08
4.61836e-06
8.34736e-08
4.53125e-06
8.71143e-08
4.44106e-06
9.01844e-08
4.34838e-06
9.26811e-08
4.25378e-06
9.46058e-08
4.15781e-06
9.59634e-08
4.06105e-06
9.67637e-08
3.96403e-06
9.70208e-08
3.86728e-06
9.67537e-08
3.77129e-06
9.59862e-08
3.67654e-06
9.47472e-08
3.58347e-06
9.30719e-08
3.49247e-06
9.10025e-08
3.40388e-06
8.85917e-08
3.31797e-06
8.59071e-08
3.23493e-06
8.30402e-08
3.15481e-06
8.01206e-08
3.07746e-06
7.73472e-08
3.00242e-06
7.50453e-08
2.92858e-06
7.3832e-08
2.85353e-06
7.50525e-08
2.77172e-06
8.18061e-08
2.6638e-06
1.07925e-07
1.60092e-07
2.50371e-06
4.44796e-08
-7.95039e-08
9.15694e-08
-8.75388e-08
1.413e-07
-9.22548e-08
1.92359e-07
-9.4737e-08
2.43391e-07
-9.52613e-08
2.9267e-07
-9.41373e-08
3.38609e-07
-9.16101e-08
3.80509e-07
-8.74793e-08
4.18161e-07
-8.14671e-08
4.5124e-07
-7.36017e-08
4.79333e-07
-6.4113e-08
5.02039e-07
-5.32999e-08
5.19041e-07
-4.14566e-08
5.3012e-07
-2.88428e-08
5.35166e-07
-1.56758e-08
5.34156e-07
-2.12814e-09
5.27073e-07
1.16563e-08
5.13729e-07
2.55948e-08
4.93893e-07
3.95606e-08
4.67454e-07
5.34141e-08
4.34594e-07
6.69737e-08
3.95947e-07
7.99051e-08
3.52501e-07
9.15446e-08
3.04869e-07
1.009e-07
2.5255e-07
1.07401e-07
1.95858e-07
1.11991e-07
1.36051e-07
1.15695e-07
7.35756e-08
1.19208e-07
8.39794e-09
1.23142e-07
-5.98144e-08
1.28016e-07
-1.31637e-07
1.34223e-07
-2.07854e-07
1.41997e-07
-2.8937e-07
1.51423e-07
-3.77134e-07
1.625e-07
-4.72095e-07
1.75173e-07
-5.75174e-07
1.89359e-07
-6.87245e-07
2.04964e-07
-8.09139e-07
2.21894e-07
-9.41643e-07
2.40054e-07
-1.08551e-06
2.5935e-07
-1.24142e-06
2.79687e-07
-1.41e-06
3.00963e-07
-1.59168e-06
3.23057e-07
-1.78661e-06
3.45813e-07
-1.99438e-06
3.69001e-07
-2.2136e-06
3.92092e-07
-2.44377e-06
4.13768e-07
-2.68465e-06
4.32849e-07
-2.93459e-06
4.49388e-07
-3.19158e-06
4.63333e-07
-3.45357e-06
4.74402e-07
-3.7185e-06
4.82321e-07
-3.98424e-06
4.86919e-07
-4.24875e-06
4.88135e-07
-4.51006e-06
4.86019e-07
-4.76638e-06
4.80721e-07
-5.01609e-06
4.72479e-07
-5.25784e-06
4.61592e-07
-5.49046e-06
4.484e-07
-5.71303e-06
4.33259e-07
-5.92486e-06
4.16523e-07
-6.12538e-06
3.98521e-07
-6.31421e-06
3.79545e-07
-6.49106e-06
3.59842e-07
-6.6557e-06
3.39608e-07
-6.80795e-06
3.18987e-07
-6.94763e-06
2.98072e-07
-7.07455e-06
2.76911e-07
-7.18855e-06
2.55524e-07
-7.28947e-06
2.33929e-07
-7.37723e-06
2.12152e-07
-7.45187e-06
1.90227e-07
-7.51356e-06
1.68192e-07
-7.5626e-06
1.46097e-07
-7.59944e-06
1.23997e-07
-7.62462e-06
1.01958e-07
-7.63883e-06
8.00619e-08
-7.64283e-06
5.83934e-08
-7.63745e-06
3.70328e-08
-7.62359e-06
1.59704e-08
-7.60204e-06
-4.76945e-09
-7.5735e-06
-2.38543e-08
-7.53756e-06
-4.32554e-08
-7.49304e-06
-6.25966e-08
-7.43925e-06
-8.15723e-08
-7.37626e-06
-1.00088e-07
-7.30433e-06
-1.18123e-07
-7.22371e-06
-1.35758e-07
-7.1346e-06
-1.531e-07
-7.03715e-06
-1.70222e-07
-6.93151e-06
-1.87194e-07
-6.81777e-06
-2.04092e-07
-6.69596e-06
-2.2101e-07
-6.56608e-06
-2.38058e-07
-6.42801e-06
-2.55369e-07
-6.28158e-06
-2.73056e-07
-6.12662e-06
-2.91115e-07
-5.96284e-06
-3.09745e-07
-5.78974e-06
-3.29318e-07
-5.60666e-06
-3.50081e-07
-5.41289e-06
-3.72174e-07
-5.20777e-06
-3.9569e-07
-4.99065e-06
-4.2071e-07
-4.76089e-06
-4.47306e-07
-4.51783e-06
-4.75529e-07
-4.26076e-06
-5.05387e-07
-3.98901e-06
-5.36778e-07
-3.70197e-06
-5.69467e-07
-3.39928e-06
-6.0256e-07
-3.08094e-06
-6.36039e-07
-2.74714e-06
-6.69568e-07
-2.39876e-06
-7.01859e-07
-2.03728e-06
-7.3137e-07
-1.66489e-06
-7.56016e-07
-1.28411e-06
-7.73018e-07
-8.96195e-07
-7.79797e-07
-4.98425e-07
-7.76525e-07
-8.91616e-08
-7.70146e-07
3.2702e-07
-7.76698e-07
7.38616e-07
-7.92063e-07
1.14075e-06
-7.98576e-07
1.53448e-06
-7.89043e-07
1.91874e-06
-7.66928e-07
2.29036e-06
-7.36957e-07
2.64634e-06
-7.02051e-07
2.98417e-06
-6.63962e-07
3.30185e-06
-6.24078e-07
3.59854e-06
-5.81918e-07
3.8741e-06
-5.38395e-07
4.12888e-06
-4.95248e-07
4.36351e-06
-4.5355e-07
4.57839e-06
-4.12576e-07
4.77407e-06
-3.72493e-07
4.95128e-06
-3.34182e-07
5.11055e-06
-2.97819e-07
5.25201e-06
-2.62941e-07
5.37583e-06
-2.2919e-07
5.48232e-06
-1.96664e-07
5.57206e-06
-1.65614e-07
5.64573e-06
-1.36171e-07
5.70405e-06
-1.08335e-07
5.74777e-06
-8.20487e-08
5.77767e-06
-5.72475e-08
5.79481e-06
-3.3863e-08
5.80157e-06
-1.20294e-08
5.79861e-06
9.25489e-09
5.786e-06
2.95005e-08
5.76353e-06
4.88598e-08
5.73132e-06
6.71406e-08
5.68976e-06
8.43967e-08
5.6393e-06
1.00667e-07
5.58041e-06
1.15935e-07
5.51364e-06
1.30161e-07
5.43956e-06
1.43292e-07
5.3588e-06
1.55274e-07
5.27201e-06
1.66057e-07
5.17988e-06
1.75604e-07
5.08311e-06
1.83886e-07
4.98241e-06
1.90886e-07
4.87849e-06
1.96595e-07
4.77208e-06
2.01017e-07
4.66388e-06
2.04165e-07
4.55458e-06
2.06063e-07
4.44486e-06
2.06748e-07
4.33534e-06
2.06268e-07
4.22664e-06
2.04684e-07
4.11932e-06
2.02069e-07
4.01389e-06
1.98507e-07
3.91079e-06
1.94097e-07
3.81042e-06
1.88959e-07
3.71309e-06
1.83238e-07
3.61901e-06
1.77119e-07
3.52828e-06
1.70854e-07
3.44082e-06
1.64807e-07
3.35631e-06
1.59556e-07
3.27406e-06
1.56082e-07
3.19259e-06
1.56519e-07
3.10986e-06
1.6454e-07
3.02057e-06
1.97211e-07
2.63279e-07
2.91739e-06
4.83137e-08
-1.27818e-07
1.02202e-07
-1.41427e-07
1.57589e-07
-1.47642e-07
2.12962e-07
-1.5011e-07
2.66817e-07
-1.49116e-07
3.17657e-07
-1.44978e-07
3.64083e-07
-1.38035e-07
4.05154e-07
-1.28551e-07
4.40434e-07
-1.16747e-07
4.69732e-07
-1.029e-07
4.92959e-07
-8.73403e-08
5.10082e-07
-7.04227e-08
5.21111e-07
-5.24855e-08
5.26099e-07
-3.38303e-08
5.2513e-07
-1.47077e-08
5.18314e-07
4.68784e-09
5.05751e-07
2.42195e-08
4.8756e-07
4.37856e-08
4.63841e-07
6.32796e-08
4.34729e-07
8.25264e-08
4.00479e-07
1.01223e-07
3.61498e-07
1.18886e-07
3.18185e-07
1.34858e-07
2.70588e-07
1.48496e-07
2.18415e-07
1.59574e-07
1.61843e-07
1.68564e-07
1.01239e-07
1.76299e-07
3.67537e-08
1.83694e-07
-3.17411e-08
1.91637e-07
-1.04639e-07
2.00913e-07
-1.82536e-07
2.1212e-07
-2.66194e-07
2.25655e-07
-3.5651e-07
2.41739e-07
-4.54461e-07
2.60451e-07
-5.61053e-07
2.81766e-07
-6.77285e-07
3.0559e-07
-8.04112e-07
3.31791e-07
-9.42431e-07
3.60213e-07
-1.09305e-06
3.90675e-07
-1.25667e-06
4.22965e-07
-1.4338e-06
4.56814e-07
-1.6247e-06
4.91871e-07
-1.82931e-06
5.27665e-07
-2.04708e-06
5.63579e-07
-2.27689e-06
5.98813e-07
-2.51713e-06
6.32333e-07
-2.7663e-06
6.62938e-07
-3.02306e-06
6.89612e-07
-3.28545e-06
7.11769e-07
-3.55108e-06
7.2897e-07
-3.81753e-06
7.40851e-07
-4.0824e-06
7.47187e-07
-4.3434e-06
7.47926e-07
-4.59847e-06
7.43198e-07
-4.84574e-06
7.33292e-07
-5.08365e-06
7.18631e-07
-5.31091e-06
6.99739e-07
-5.52651e-06
6.77195e-07
-5.72972e-06
6.51604e-07
-5.92002e-06
6.23558e-07
-6.09711e-06
5.93616e-07
-6.26086e-06
5.62277e-07
-6.4113e-06
5.29976e-07
-6.54852e-06
4.97069e-07
-6.67276e-06
4.63844e-07
-6.7843e-06
4.30523e-07
-6.88349e-06
3.97271e-07
-6.97078e-06
3.64197e-07
-7.04664e-06
3.31379e-07
-7.11159e-06
2.98887e-07
-7.16622e-06
2.6678e-07
-7.21108e-06
2.35083e-07
-7.24668e-06
2.03793e-07
-7.27348e-06
1.72894e-07
-7.29185e-06
1.42371e-07
-7.30211e-06
1.12215e-07
-7.30449e-06
8.24494e-08
-7.29922e-06
5.31167e-08
-7.2864e-06
2.42166e-08
-7.26615e-06
-4.27894e-09
-7.23842e-06
-3.24962e-08
-7.2021e-06
-6.01817e-08
-7.15761e-06
-8.77459e-08
-7.10509e-06
-1.1511e-07
-7.04453e-06
-1.4214e-07
-6.97587e-06
-1.68746e-07
-6.89928e-06
-1.94715e-07
-6.81492e-06
-2.2011e-07
-6.72289e-06
-2.45139e-07
-6.62322e-06
-2.69885e-07
-6.51599e-06
-2.94423e-07
-6.40123e-06
-3.18855e-07
-6.27892e-06
-3.43319e-07
-6.149e-06
-3.67982e-07
-6.01131e-06
-3.93054e-07
-5.86559e-06
-4.18781e-07
-5.71145e-06
-4.45252e-07
-5.54846e-06
-4.72731e-07
-5.37607e-06
-5.01709e-07
-5.19373e-06
-5.32427e-07
-5.00094e-06
-5.6496e-07
-4.79723e-06
-5.99404e-07
-4.58205e-06
-6.35884e-07
-4.35483e-06
-6.74533e-07
-4.11492e-06
-7.15431e-07
-3.86172e-06
-7.5859e-07
-3.59456e-06
-8.03942e-07
-3.31251e-06
-8.51516e-07
-3.01423e-06
-9.00841e-07
-2.69987e-06
-9.50392e-07
-2.37007e-06
-9.99371e-07
-2.02551e-06
-1.04642e-06
-1.66709e-06
-1.08979e-06
-1.29564e-06
-1.12746e-06
-9.11368e-07
-1.15729e-06
-5.136e-07
-1.17757e-06
-1.01725e-07
-1.1884e-06
3.20307e-07
-1.19218e-06
7.39275e-07
-1.19567e-06
1.14459e-06
-1.19738e-06
1.53608e-06
-1.19006e-06
1.91742e-06
-1.17038e-06
2.2887e-06
-1.13821e-06
2.64774e-06
-1.096e-06
2.99185e-06
-1.04616e-06
3.31805e-06
-9.90163e-07
3.62439e-06
-9.3041e-07
3.9124e-06
-8.69936e-07
4.18305e-06
-8.09036e-07
4.43579e-06
-7.47996e-07
4.66991e-06
-6.87665e-07
4.88546e-06
-6.28123e-07
5.08329e-06
-5.70327e-07
5.26437e-06
-5.15266e-07
5.42918e-06
-4.62625e-07
5.57792e-06
-4.1168e-07
5.71075e-06
-3.62018e-07
5.82775e-06
-3.13663e-07
5.92892e-06
-2.66788e-07
6.01424e-06
-2.2149e-07
6.08374e-06
-1.77841e-07
6.13764e-06
-1.35941e-07
6.17629e-06
-9.59048e-08
6.20026e-06
-5.7826e-08
6.21005e-06
-2.18218e-08
6.20705e-06
1.2252e-08
6.1922e-06
4.43482e-08
6.16642e-06
7.46469e-08
6.13037e-06
1.0319e-07
6.08471e-06
1.30057e-07
6.03004e-06
1.5533e-07
5.96693e-06
1.79045e-07
5.8959e-06
2.01189e-07
5.81748e-06
2.21714e-07
5.73221e-06
2.40546e-07
5.64067e-06
2.57601e-07
5.54348e-06
2.72794e-07
5.44131e-06
2.86054e-07
5.33487e-06
2.97323e-07
5.2249e-06
3.06565e-07
5.11215e-06
3.13769e-07
4.99737e-06
3.18946e-07
4.8813e-06
3.22128e-07
4.76468e-06
3.23372e-07
4.64819e-06
3.22753e-07
4.53251e-06
3.20372e-07
4.41823e-06
3.16347e-07
4.30592e-06
3.1082e-07
4.19606e-06
3.03956e-07
4.08907e-06
2.9595e-07
3.98527e-06
2.87032e-07
3.8849e-06
2.77489e-07
3.78806e-06
2.67698e-07
3.69468e-06
2.58182e-07
3.60449e-06
2.49746e-07
3.5169e-06
2.43676e-07
3.43084e-06
2.4258e-07
3.34493e-06
2.50452e-07
3.26004e-06
2.82099e-07
3.44454e-07
3.17886e-06
5.35316e-08
-1.81349e-07
1.11183e-07
-1.99079e-07
1.68873e-07
-2.05331e-07
2.24953e-07
-2.0619e-07
2.77994e-07
-2.02158e-07
3.26815e-07
-1.93799e-07
3.70484e-07
-1.81704e-07
4.08358e-07
-1.66425e-07
4.40072e-07
-1.48461e-07
4.65454e-07
-1.28281e-07
4.84451e-07
-1.06338e-07
4.97089e-07
-8.30607e-08
5.0345e-07
-5.8846e-08
5.03667e-07
-3.4047e-08
4.97919e-07
-8.96058e-09
4.86427e-07
1.61803e-08
4.69445e-07
4.12016e-08
4.47251e-07
6.59793e-08
4.20145e-07
9.03858e-08
3.88445e-07
1.14227e-07
3.5248e-07
1.37188e-07
3.12545e-07
1.58822e-07
2.68779e-07
1.78624e-07
2.21067e-07
1.96207e-07
1.69113e-07
2.11528e-07
1.12674e-07
2.25003e-07
5.15657e-08
2.37407e-07
-1.44355e-08
2.49695e-07
-8.56643e-08
2.62866e-07
-1.62582e-07
2.77832e-07
-2.45796e-07
2.95334e-07
-3.36056e-07
3.15915e-07
-4.34229e-07
3.39911e-07
-5.4125e-07
3.67472e-07
-6.58079e-07
3.98594e-07
-7.85649e-07
4.3316e-07
-9.24826e-07
4.70967e-07
-1.07636e-06
5.11747e-07
-1.24084e-06
5.55155e-07
-1.41862e-06
6.0075e-07
-1.60977e-06
6.47963e-07
-1.81397e-06
6.96065e-07
-2.03045e-06
7.44144e-07
-2.25797e-06
7.91106e-07
-2.49485e-06
8.35696e-07
-2.73908e-06
8.7656e-07
-2.98851e-06
9.12365e-07
-3.24091e-06
9.42008e-07
-3.49383e-06
9.64692e-07
-3.74473e-06
9.79876e-07
-3.99115e-06
9.87264e-07
-4.23079e-06
9.86828e-07
-4.46167e-06
9.78803e-07
-4.68213e-06
9.63658e-07
-4.89089e-06
9.42056e-07
-5.08706e-06
9.148e-07
-5.27009e-06
8.82773e-07
-5.43978e-06
8.46884e-07
-5.5962e-06
8.08021e-07
-5.73965e-06
7.67011e-07
-5.87063e-06
7.24591e-07
-5.98974e-06
6.81389e-07
-6.09768e-06
6.37919e-07
-6.19518e-06
5.9457e-07
-6.28296e-06
5.51624e-07
-6.36171e-06
5.09268e-07
-6.43205e-06
4.67617e-07
-6.49455e-06
4.26692e-07
-6.54963e-06
3.86457e-07
-6.59762e-06
3.46882e-07
-6.63878e-06
3.07944e-07
-6.67328e-06
2.69577e-07
-6.70115e-06
2.31662e-07
-6.72234e-06
1.9409e-07
-6.73675e-06
1.56778e-07
-6.7442e-06
1.19662e-07
-6.74447e-06
8.27229e-08
-6.73741e-06
4.60611e-08
-6.72294e-06
9.74122e-09
-6.70091e-06
-2.6303e-08
-6.67129e-06
-6.21244e-08
-6.63375e-06
-9.77176e-08
-6.58839e-06
-1.33109e-07
-6.53528e-06
-1.68216e-07
-6.47448e-06
-2.02943e-07
-6.40593e-06
-2.37289e-07
-6.32965e-06
-2.71002e-07
-6.2456e-06
-3.04153e-07
-6.15369e-06
-3.37049e-07
-6.0539e-06
-3.69683e-07
-5.94622e-06
-4.02101e-07
-5.83066e-06
-4.34413e-07
-5.7072e-06
-4.66782e-07
-5.57577e-06
-4.99411e-07
-5.43626e-06
-5.32562e-07
-5.28843e-06
-5.6661e-07
-5.13186e-06
-6.01821e-07
-4.96626e-06
-6.38335e-07
-4.79146e-06
-6.76506e-07
-4.60723e-06
-7.16663e-07
-4.41317e-06
-7.59022e-07
-4.20876e-06
-8.03814e-07
-3.99336e-06
-8.51281e-07
-3.76623e-06
-9.01656e-07
-3.52655e-06
-9.55111e-07
-3.27342e-06
-1.01173e-06
-3.00588e-06
-1.07148e-06
-2.72331e-06
-1.13408e-06
-2.42551e-06
-1.19864e-06
-2.11262e-06
-1.26328e-06
-1.78487e-06
-1.32712e-06
-1.44264e-06
-1.38865e-06
-1.08657e-06
-1.44587e-06
-7.17464e-07
-1.49656e-06
-3.35971e-07
-1.53879e-06
5.65655e-08
-1.5701e-06