/*--------------------------------*- C++ -*----------------------------------*\
| =========                 |                                                 |
| \\      /  F ield         | OpenFOAM: The Open Source CFD Toolbox           |
|  \\    /   O peration     | Version:  2112                                  |
|   \\  /    A nd           | Website:  www.openfoam.com                      |
|    \\/     M anipulation  |                                                 |
\*---------------------------------------------------------------------------*/
FoamFile
{
    version     2.0;
    format      ascii;
    arch        "LSB;label=32;scalar=64";
    class       volScalarField;
    location    "0.07";
    object      kU_0;
}
// * * * * * * * * * * * * * * * * * * * * * * * * * * * * * * * * * * * * * //

dimensions      [0 2 -2 0 0 0 0];

internalField   nonuniform List<scalar> 
12225
(
0.124926
0.183541
0.219503
0.244097
0.261434
0.273871
0.284461
0.294729
0.305613
0.317799
0.331846
0.348232
0.367382
0.389696
0.4155
0.444318
0.473863
0.504944
0.0407708
0.0458998
0.0509635
0.0558141
0.0603603
0.0646296
0.0687682
0.0728819
0.0770001
0.0810853
0.0850478
0.0887577
0.0920573
0.0947684
0.0969463
0.0991003
0.101105
0.102973
0.0375906
0.0382157
0.0390748
0.0399689
0.0405463
0.0407086
0.0405342
0.040118
0.0395373
0.0388404
0.038048
0.03716
0.0361639
0.0350489
0.0339595
0.0330732
0.0323742
0.0318507
0.037312
0.0371631
0.0371076
0.0371756
0.0373426
0.0375504
0.037767
0.0379689
0.038142
0.0382806
0.0383858
0.0384644
0.038527
0.0385788
0.0386079
0.0386224
0.0386379
0.0386821
0.0373049
0.0371256
0.0369659
0.0368268
0.0367127
0.0366256
0.0365654
0.0365314
0.0365224
0.0365364
0.0365709
0.0366155
0.0366615
0.0367152
0.0367784
0.0368545
0.0369503
0.0370748
0.0373004
0.0371146
0.0369418
0.0367817
0.0366366
0.0365085
0.0363975
0.0363038
0.0362278
0.0361699
0.0361307
0.0361107
0.0361134
0.0361413
0.0361854
0.0362471
0.0363304
0.0364393
0.0372971
0.0371076
0.0369318
0.0367695
0.0366223
0.0364911
0.0363759
0.0362766
0.0361934
0.036127
0.0360781
0.036048
0.0360392
0.0360548
0.036092
0.0361454
0.036217
0.0363076
0.0372949
0.0371031
0.0369251
0.0367606
0.0366103
0.036475
0.0363549
0.03625
0.0361607
0.0360875
0.0360314
0.0359937
0.0359766
0.0359829
0.0360137
0.0360591
0.0361199
0.0361951
0.0372934
0.0370997
0.0369197
0.0367531
0.0366001
0.0364616
0.0363377
0.0362287
0.0361348
0.0360564
0.0359945
0.0359501
0.035925
0.0359214
0.0359417
0.0359798
0.0360303
0.036092
0.0372923
0.0370972
0.0369155
0.0367469
0.0365917
0.0364504
0.0363231
0.03621
0.0361113
0.0360274
0.0359592
0.0359075
0.0358736
0.0358594
0.0358667
0.0358956
0.0359362
0.0359859
0.0372916
0.0370953
0.0369122
0.036742
0.0365847
0.0364407
0.0363101
0.0361932
0.03609
0.0360011
0.0359269
0.0358682
0.0358261
0.0358016
0.0357962
0.0358106
0.0358422
0.0358818
0.0372911
0.037094
0.0369097
0.0367381
0.036579
0.0364327
0.0362993
0.036179
0.0360719
0.0359783
0.0358985
0.0358333
0.0357832
0.0357492
0.0357319
0.0357319
0.0357489
0.0357793
0.0372908
0.0370931
0.0369078
0.0367348
0.0365741
0.0364257
0.0362897
0.0361662
0.0360553
0.0359572
0.0358722
0.0358008
0.0357433
0.0357004
0.0356725
0.0356598
0.0356621
0.0356782
0.0372906
0.0370924
0.0369062
0.036732
0.0365695
0.036419
0.0362802
0.0361534
0.0360385
0.0359356
0.0358449
0.0357667
0.0357012
0.0356489
0.0356098
0.0355841
0.0355715
0.0355713
0.0372905
0.037092
0.036905
0.0367296
0.0365655
0.0364128
0.0362713
0.036141
0.0360219
0.0359139
0.0358172
0.0357319
0.0356581
0.0355959
0.0355455
0.0355067
0.0354795
0.0354634
0.0372906
0.0370919
0.0369043
0.0367279
0.0365624
0.0364075
0.0362633
0.0361296
0.0360062
0.0358931
0.0357903
0.0356977
0.0356154
0.0355435
0.0354818
0.0354304
0.0353893
0.035358
0.0372908
0.0370921
0.0369042
0.036727
0.0365601
0.0364034
0.0362566
0.0361195
0.035992
0.0358739
0.0357651
0.0356655
0.035575
0.0354937
0.0354214
0.0353581
0.0353039
0.0352584
0.0372911
0.0370926
0.0369046
0.0367267
0.0365588
0.0364004
0.0362512
0.0361112
0.0359798
0.0358571
0.0357427
0.0356366
0.0355385
0.0354486
0.0353665
0.0352924
0.0352262
0.0351677
0.0372916
0.0370934
0.0369053
0.036727
0.0365582
0.0363983
0.0362472
0.0361044
0.0359697
0.0358429
0.0357236
0.0356118
0.0355073
0.0354099
0.0353195
0.035236
0.0351595
0.0350899
0.037292
0.0370941
0.0369061
0.0367275
0.036558
0.0363971
0.0362444
0.0360997
0.0359627
0.035833
0.0357103
0.0355946
0.0354855
0.0353829
0.0352866
0.0351966
0.0351128
0.0350351
0.0372924
0.0370947
0.0369067
0.0367279
0.0365579
0.0363962
0.0362426
0.0360967
0.0359582
0.0358268
0.0357022
0.0355842
0.0354726
0.035367
0.0352674
0.0351735
0.0350854
0.0350029
0.0372928
0.0370954
0.0369074
0.0367283
0.0365579
0.0363956
0.0362413
0.0360944
0.0359549
0.0358223
0.0356963
0.0355768
0.0354633
0.0353557
0.0352537
0.0351571
0.0350659
0.03498
0.0372933
0.0370961
0.036908
0.0367287
0.0365578
0.0363951
0.0362402
0.0360927
0.0359524
0.0358191
0.0356923
0.0355718
0.0354573
0.0353484
0.0352449
0.0351466
0.0350533
0.0349651
0.0372939
0.0370969
0.0369087
0.036729
0.0365577
0.0363944
0.0362388
0.0360906
0.0359495
0.0358154
0.0356878
0.0355666
0.0354513
0.0353416
0.0352373
0.035138
0.0350436
0.034954
0.0372948
0.037098
0.0369094
0.0367294
0.0365577
0.0363942
0.0362385
0.0360905
0.03595
0.0358167
0.0356904
0.0355707
0.0354573
0.0353496
0.0352473
0.0351502
0.0350579
0.0349708
0.0372961
0.0371005
0.0369137
0.0367355
0.0365663
0.0364065
0.0362569
0.036118
0.0359903
0.035874
0.035769
0.035675
0.0355917
0.035519
0.0354569
0.0354054
0.0353647
0.0353338
0.0372984
0.0371055
0.0369343
0.0367929
0.0366909
0.0366376
0.0366335
0.0366741
0.0367502
0.0368488
0.0369532
0.0370502
0.0371246
0.037166
0.037168
0.0371283
0.0370485
0.0369333
0.0373486
0.0374896
0.0378066
0.0382442
0.0387487
0.0392582
0.0395882
0.0397434
0.0397591
0.0396861
0.0395802
0.0394962
0.0394826
0.0395788
0.0398132
0.0402036
0.0407575
0.0414764
0.0387481
0.0412873
0.0442707
0.0474719
0.0507086
0.0538294
0.0568577
0.0598772
0.0629767
0.0662318
0.069699
0.0734144
0.0773942
0.0816393
0.0861395
0.0908767
0.0958307
0.10097
0.0990004
0.14554
0.177484
0.200765
0.217896
0.228316
0.234996
0.239366
0.242102
0.243521
0.243766
0.242915
0.241032
0.238194
0.234508
0.230116
0.225169
0.21991
0.181137
0.179904
0.169163
0.152535
0.137464
0.125967
0.119342
0.117596
0.121062
0.129797
0.143653
0.162139
0.183802
0.207467
0.234219
0.264097
0.296531
0.33043
0.364368
0.396833
0.426465
0.45224
0.473543
0.490125
0.502074
0.509492
0.513134
0.513764
0.512125
0.508944
0.504957
0.501004
0.498052
0.497105
0.501949
0.514474
0.533412
0.558459
0.587823
0.618106
0.649397
0.685168
0.729533
0.788679
0.863051
0.925869
0.938172
0.857893
0.697667
0.529047
0.401266
0.320956
0.272332
0.243232
0.22636
0.216866
0.213646
0.221773
0.241629
0.271163
0.313792
0.364792
0.413031
0.460261
0.514752
0.567482
0.571775
0.520688
0.452172
0.401094
0.366033
0.337859
0.308518
0.288096
0.299453
0.35724
0.461436
0.597811
0.734865
0.852547
0.958359
1.04799
1.11841
1.16765
1.19453
1.19877
1.18429
1.15988
1.12658
1.08537
1.03713
0.982629
0.925279
0.867835
0.810675
0.754284
0.699175
0.645854
0.59483
0.546594
0.501637
0.460477
0.423705
0.392055
0.366517
0.348551
0.34047
0.345836
0.375116
0.422631
0.481955
0.545675
0.611247
0.680174
0.751204
0.822511
0.891828
0.955991
1.00976
1.04437
1.05251
1.0403
1.01347
0.976932
0.935272
0.892703
0.852915
0.818675
0.791493
0.771508
0.757665
0.748103
0.740656
0.73335
0.724828
0.714635
0.70332
0.692309
0.683606
0.679067
0.678809
0.683748
0.693631
0.706127
0.716992
0.718818
0.706111
0.680624
0.647867
0.616211
0.591498
0.574436
0.559636
0.555308
0.574967
0.615212
0.641456
0.612653
0.550354
0.560372
0.786667
1.14028
1.41217
1.57468
1.59805
1.54006
1.43287
1.28746
1.13517
0.991485
0.861858
0.752385
0.671673
0.636635
0.72291
1.00476
1.40657
1.93518
2.66209
3.54982
0.201804
0.140989
0.116514
0.098001
0.0934492
0.0995142
0.101189
0.104676
0.118188
0.142885
0.177329
0.218094
0.26106
0.302943
0.341816
0.376737
0.407384
0.433741
0.455941
0.474227
0.48895
0.500556
0.509559
0.516497
0.521894
0.527059
0.532084
0.536801
0.54091
0.544019
0.545696
0.545823
0.545169
0.54364
0.541054
0.537146
0.531627
0.52471
0.517398
0.509597
0.501231
0.492115
0.482319
0.473892
0.473282
0.495548
0.52411
0.528187
0.50833
0.488932
0.482833
0.47553
0.448827
0.395814
0.324854
0.259
0.213091
0.187218
0.179207
0.190293
0.217484
0.256191
0.297365
0.324374
0.329717
0.319505
0.310921
0.287798
0.253084
0.218548
0.210009
0.243645
0.321655
0.420078
0.502988
0.55315
0.574945
0.581972
0.575538
0.558878
0.534717
0.505067
0.47192
0.437282
0.403148
0.371397
0.343773
0.32143
0.305076
0.295154
0.291814
0.294921
0.300761
0.306396
0.311422
0.315449
0.318099
0.319036
0.318336
0.316358
0.313063
0.308449
0.302556
0.295484
0.287399
0.278526
0.26914
0.259511
0.250331
0.242275
0.234636
0.227491
0.220974
0.215269
0.210674
0.207622
0.206742
0.20898
0.215845
0.230232
0.253995
0.27838
0.298492
0.31299
0.322958
0.329359
0.332854
0.333897
0.33284
0.330004
0.325722
0.320323
0.314144
0.307521
0.300725
0.293858
0.286725
0.278745
0.269011
0.256741
0.242579
0.228415
0.215335
0.204071
0.196813
0.198801
0.211233
0.226046
0.23622
0.237896
0.23143
0.216663
0.193678
0.170783
0.161091
0.171633
0.212917
0.319641
0.501717
0.687319
0.753761
0.725058
0.64367
0.537334
0.433414
0.356716
0.317955
0.320726
0.337942
0.354985
0.369405
0.378376
0.383649
0.385013
0.381998
0.376969
0.371291
0.368017
0.375068
0.429802
0.236856
0.121118
0.109068
0.105216
0.117631
0.153999
0.194888
0.226229
0.257272
0.291682
0.328044
0.363434
0.394913
0.420845
0.440871
0.455385
0.465119
0.470904
0.473585
0.473994
0.472923
0.471079
0.469036
0.467207
0.466601
0.46718
0.46861
0.470511
0.472447
0.473914
0.474308
0.47385
0.472663
0.47072
0.467936
0.464112
0.45913
0.453084
0.44633
0.439854
0.434359
0.42975
0.42611
0.424261
0.42681
0.437261
0.453298
0.463602
0.454092
0.430614
0.410779
0.405159
0.415552
0.427971
0.414621
0.365983
0.298819
0.23512
0.189517
0.169376
0.179106
0.210235
0.253075
0.295408
0.312008
0.287153
0.245107
0.220142
0.217891
0.252272
0.334859
0.433704
0.497681
0.51728
0.508514
0.486097
0.456852
0.42523
0.393583
0.364062
0.33801
0.316297
0.29941
0.287497
0.280402
0.277713
0.27882
0.282972
0.289379
0.297279
0.305973
0.314838
0.323488
0.33167
0.339082
0.345366
0.350115
0.352897
0.353701
0.352825
0.350089
0.345326
0.338397
0.329231
0.317883
0.304584
0.28977
0.274053
0.259077
0.245833
0.23334
0.221657
0.210743
0.200471
0.19069
0.181285
0.172214
0.163542
0.155635
0.148675
0.142697
0.137847
0.134767
0.134283
0.135652
0.137986
0.140694
0.143354
0.145691
0.147577
0.149017
0.150118
0.151042
0.151947
0.152921
0.153939
0.154828
0.155255
0.154748
0.152835
0.149231
0.143873
0.137082
0.129026
0.120087
0.111084
0.102634
0.0955272
0.0897444
0.0844406
0.0792155
0.0756868
0.0759194
0.0850988
0.110028
0.156785
0.248205
0.41646
0.604578
0.635818
0.552783
0.4531
0.366166
0.307235
0.280294
0.278995
0.292361
0.31107
0.329832
0.346443
0.358997
0.368815
0.374506
0.374289
0.366786
0.355396
0.340497
0.323208
0.305438
0.290584
0.274361
0.109002
0.120246
0.166122
0.256842
0.312549
0.316694
0.32782
0.34908
0.372597
0.394347
0.412269
0.42515
0.432764
0.435665
0.434818
0.431314
0.426206
0.42043
0.414758
0.409784
0.405909
0.403323
0.401978
0.402287
0.403707
0.406055
0.40909
0.412511
0.415955
0.418993
0.421121
0.421721
0.420794
0.418778
0.415391
0.410508
0.404302
0.397138
0.38959
0.382028
0.375488
0.370065
0.365171
0.361213
0.360007
0.36399
0.374213
0.388334
0.397944
0.392491
0.377976
0.367927
0.370718
0.380182
0.37729
0.34842
0.299892
0.250286
0.215249
0.202542
0.219493
0.257764
0.305407
0.340335
0.325181
0.272427
0.243279
0.273912
0.370038
0.479295
0.514833
0.488845
0.453478
0.416992
0.382557
0.352215
0.327164
0.307957
0.294501
0.286072
0.281704
0.280467
0.281615
0.284593
0.288994
0.294499
0.300832
0.307732
0.314932
0.322188
0.329457
0.33719
0.3452
0.353247
0.361035
0.368208
0.374341
0.378844
0.381974
0.383422
0.382783
0.37963
0.373433
0.36373
0.350245
0.333055
0.31271
0.291961
0.272456
0.253637
0.236141
0.22036
0.206391
0.194049
0.182964
0.17269
0.163033
0.154008
0.145544
0.137639
0.130362
0.123809
0.118056
0.11317
0.109321
0.106393
0.104189
0.10251
0.101174
0.100044
0.0990201
0.0980471
0.0970951
0.0961444
0.0951589
0.0940528
0.0926569
0.0907134
0.0879418
0.0841906
0.0796044
0.0746675
0.0699959
0.0658178
0.0619146
0.0582179
0.0549362
0.05212
0.0499689
0.0491055
0.0511634
0.0597232
0.0814513
0.124324
0.199111
0.327862
0.503744
0.589186
0.508622
0.404281
0.323152
0.274683
0.256315
0.258544
0.271366
0.288052
0.305865
0.324432
0.341684
0.356825
0.36873
0.375673
0.375282
0.368274
0.356478
0.340457
0.320927
0.299165
0.277499
0.296254
0.104642
0.151673
0.258812
0.357201
0.378603
0.375483
0.378832
0.387781
0.397176
0.404417
0.408544
0.409282
0.406904
0.402066
0.395577
0.388227
0.380688
0.373465
0.366889
0.361157
0.356378
0.352607
0.349769
0.348867
0.349665
0.352023
0.355717
0.360451
0.365868
0.371558
0.37707
0.381914
0.385562
0.387443
0.386985
0.383712
0.377781
0.369318
0.359022
0.348056
0.338362
0.331392
0.326132
0.32226
0.319132
0.315858
0.312542
0.312296
0.320853
0.340305
0.355512
0.355798
0.348084
0.342383
0.340462
0.334324
0.316427
0.289117
0.262768
0.248737
0.255785
0.290831
0.342116
0.391459
0.392468
0.346363
0.331067
0.386277
0.473695
0.498115
0.457695
0.410484
0.371061
0.339486
0.31551
0.298925
0.288851
0.283648
0.281381
0.280487
0.280085
0.279884
0.279928
0.280374
0.281367
0.282989
0.285255
0.288131
0.291528
0.295333
0.300086
0.306036
0.313047
0.32098
0.329682
0.338976
0.348647
0.358407
0.367855
0.376432
0.383375
0.388613
0.391299
0.390381
0.384756
0.373494
0.356212
0.335629
0.31339
0.289732
0.265957
0.243283
0.222689
0.204725
0.189315
0.176294
0.165344
0.155899
0.147434
0.139596
0.132223
0.125304
0.118904
0.113102
0.107952
0.103488
0.0997068
0.0965322
0.093857
0.0915627
0.0895295
0.0876422
0.0857952
0.0838954
0.0818646
0.0796353
0.0771453
0.0743378
0.0711838
0.0677239
0.0640961
0.0605067
0.0571549
0.0541685
0.0515968
0.0494428
0.047718
0.0465129
0.0461393
0.0474518
0.0525924
0.0661571
0.096303
0.154003
0.253835
0.398983
0.532666
0.510416
0.40219
0.314794
0.261468
0.238467
0.235606
0.242968
0.254592
0.268239
0.284941
0.304602
0.325757
0.345676
0.359733
0.36711
0.366411
0.359956
0.348963
0.334123
0.315728
0.293127
0.269015
0.30621
0.11635
0.205564
0.335475
0.40492
0.407736
0.400021
0.396793
0.39622
0.39555
0.393361
0.389123
0.382701
0.374268
0.364226
0.353097
0.341437
0.329772
0.318559
0.308166
0.2989
0.291027
0.284784
0.280623
0.279225
0.28035
0.283782
0.289292
0.296613
0.305407
0.315243
0.325589
0.335834
0.345316
0.353335
0.359163
0.362128
0.36175
0.357534
0.349666
0.338777
0.326455
0.315442
0.30584
0.297783
0.291363
0.285947
0.280192
0.273462
0.268428
0.272289
0.292835
0.320568
0.335045
0.333118
0.322607
0.31141
0.301105
0.290393
0.280744
0.278968
0.294367
0.334453
0.395718
0.46248
0.483596
0.452274
0.434989
0.460084
0.467076
0.42809
0.379155
0.340384
0.312763
0.294493
0.284029
0.279152
0.277006
0.275143
0.272254
0.268111
0.263094
0.257768
0.252643
0.248087
0.24433
0.241496
0.239655
0.238875
0.239216
0.240677
0.243782
0.248218
0.253887
0.260708
0.268626
0.277607
0.287634
0.298688
0.31071
0.32355
0.336905
0.350246
0.362762
0.373245
0.380145
0.381542
0.375574
0.363813
0.347028
0.325724
0.30117
0.274928
0.248594
0.224133
0.202789
0.185028
0.170702
0.159238
0.149875
0.141883
0.134709
0.128025
0.121704
0.115748
0.110222
0.105196
0.100725
0.0968405
0.0935073
0.090657
0.0881995
0.0860316
0.0840453
0.0821352
0.0802071
0.0781867
0.0760275
0.0737171
0.0712802
0.0687742
0.066272
0.0638336
0.0614863
0.0592296
0.0570661
0.0550406
0.0532732
0.0520105
0.0517518
0.0536018
0.0601958
0.0774456
0.115268
0.187577
0.30498
0.44601
0.513178
0.427895
0.327522
0.261401
0.227294
0.215364
0.214917
0.219376
0.227208
0.239272
0.256186
0.276389
0.298191
0.318727
0.334096
0.340764
0.339184
0.332099
0.321275
0.307981
0.292672
0.275117
0.255373
0.324229
0.146696
0.263916
0.380322
0.421775
0.415325
0.404809
0.396793
0.389667
0.381725
0.371929
0.359801
0.345269
0.328658
0.310611
0.291951
0.273531
0.256119
0.240349
0.226713
0.21557
0.207164
0.201642
0.199411
0.199619
0.202061
0.206635
0.213326
0.222166
0.233162
0.246198
0.260932
0.276732
0.292717
0.307912
0.321406
0.332468
0.34054
0.344741
0.344254
0.338496
0.328259
0.316268
0.303596
0.290953
0.279288
0.269241
0.260474
0.251547
0.24158
0.233072
0.233424
0.252496
0.285748
0.309546
0.313482
0.30229
0.287617
0.277597
0.275633
0.285626
0.317469
0.376116
0.456245
0.547882
0.592938
0.547302
0.48149
0.443744
0.402803
0.356279
0.319066
0.294376
0.279946
0.273083
0.270345
0.268129
0.264107
0.257674
0.249334
0.239954
0.230343
0.221113
0.212672
0.205262
0.199018
0.194026
0.190368
0.188149
0.187512
0.188552
0.1912
0.194985
0.199775
0.205473
0.212033
0.219469
0.22786
0.237337
0.248055
0.260147
0.27366
0.288465
0.304221
0.320139
0.335124
0.347423
0.35484
0.356236
0.351468
0.340236
0.322917
0.300659
0.275269
0.248892
0.22359
0.200954
0.181877
0.16652
0.154468
0.144982
0.137252
0.130589
0.12452
0.118798
0.113345
0.108194
0.103412
0.0990873
0.0952605
0.0919284
0.0890516
0.0865642
0.0843842
0.0824229
0.0805941
0.0788235
0.0770562
0.0752625
0.0734373
0.0715912
0.0697359
0.0678706
0.0659816
0.0640553
0.062105
0.060201
0.0585046
0.0573313
0.0573044
0.0597556
0.0677774
0.0882648
0.133454
0.218657
0.346909
0.467319
0.47149
0.361671
0.27676
0.227175
0.203684
0.195323
0.193748
0.196229
0.203681
0.216871
0.234324
0.254433
0.275323
0.293507
0.304553
0.30637
0.301558
0.292564
0.281854
0.27107
0.260595
0.249511
0.236522
0.363972
0.186961
0.310619
0.400873
0.421984
0.411218
0.398641
0.386543
0.373476
0.358126
0.33983
0.318646
0.295255
0.270762
0.246411
0.223328
0.202389
0.184191
0.169094
0.157274
0.14874
0.143371
0.140946
0.141147
0.142657
0.145361
0.149265
0.154511
0.161402
0.170392
0.181996
0.196582
0.214057
0.23366
0.254049
0.273711
0.291539
0.307086
0.320176
0.329538
0.33333
0.330673
0.323076
0.311644
0.29743
0.281747
0.266246
0.252376
0.240112
0.227671
0.214031
0.202277
0.200125
0.217345
0.250903
0.277746
0.284701
0.275417
0.263871
0.262067
0.278207
0.323792
0.407793
0.512436
0.633359
0.68907
0.583275
0.459066
0.390248
0.34144
0.304527
0.281023
0.268621
0.263608
0.261422
0.257943
0.25125
0.241552
0.229974
0.217641
0.205388
0.19378
0.183186
0.173836
0.16587
0.159391
0.154495
0.151281
0.149818
0.150146
0.152316
0.155619
0.159676
0.164304
0.169369
0.174812
0.180654
0.187017
0.194112
0.20222
0.211652
0.222689
0.235489
0.250061
0.266041
0.282881
0.299265
0.312958
0.323194
0.329076
0.329471
0.3236
0.311289
0.293173
0.27072
0.246006
0.221279
0.198477
0.178878
0.16297
0.150555
0.140982
0.133431
0.127142
0.121549
0.116317
0.111308
0.106519
0.102016
0.0978832
0.0941743
0.0909044
0.0880528
0.0855714
0.0833952
0.0814521
0.0796724
0.0779949
0.0763716
0.0747672
0.0731556
0.0715145
0.0698229
0.0680658
0.0662479
0.0644139
0.0626698
0.0612118
0.0603971
0.0609313
0.0643245
0.0740506
0.0978455
0.149612
0.245604
0.377817
0.468928
0.427075
0.313152
0.241618
0.203008
0.185004
0.17782
0.176046
0.179238
0.188086
0.201681
0.218385
0.237373
0.256502
0.271612
0.278113
0.27652
0.26891
0.258081
0.246843
0.237042
0.229165
0.222335
0.214968
0.427699
0.225739
0.340649
0.406597
0.413705
0.400777
0.385955
0.369416
0.349916
0.326784
0.300347
0.271825
0.242899
0.215228
0.190107
0.168361
0.150397
0.136302
0.12593
0.118956
0.114921
0.113306
0.113597
0.115149
0.117236
0.119731
0.122515
0.125551
0.129005
0.133402
0.139713
0.149204
0.162917
0.181031
0.202507
0.22528
0.247156
0.266945
0.285706
0.302829
0.31655
0.324411
0.325821
0.320869
0.310078
0.294468
0.275726
0.256378
0.238754
0.222935
0.206659
0.189272
0.175113
0.172071
0.188336
0.218862
0.243122
0.24966
0.244463
0.243579
0.262464
0.317277
0.417681
0.548658
0.690277
0.71929
0.56168
0.40892
0.338312
0.296609
0.271888
0.259885
0.255751
0.253664
0.248842
0.239729
0.227363
0.213444
0.199248
0.18552
0.172706
0.161118
0.150988
0.142484
0.135724
0.130797
0.12776
0.126621
0.127304
0.129629
0.133414
0.13778
0.142445
0.147206
0.15191
0.156484
0.160949
0.165437
0.1702
0.175588
0.18201
0.189888
0.199576
0.21119
0.2248
0.240039
0.255416
0.270143
0.283704
0.295057
0.30305
0.306509
0.304411
0.296162
0.281894
0.262637
0.240223
0.216892
0.194759
0.175368
0.159466
0.147045
0.137558
0.130217
0.124241
0.119022
0.114177
0.109533
0.105061
0.100819
0.0968827
0.0933105
0.0901271
0.0873222
0.0848581
0.0826795
0.0807233
0.0789264
0.0772307
0.0755856
0.0739479
0.0722823
0.0705636
0.068785
0.0669715
0.0651967
0.0636004
0.0624134
0.0620351
0.0632449
0.0677018
0.0791836
0.106097
0.163673
0.267852
0.397689
0.458854
0.388121
0.280317
0.216955
0.184613
0.169739
0.163785
0.163347
0.168072
0.177257
0.189294
0.204145
0.221505
0.238677
0.250711
0.254716
0.251333
0.242479
0.231059
0.219856
0.210689
0.204063
0.199293
0.195096
0.512302
0.255892
0.354942
0.401794
0.401157
0.386903
0.36952
0.348279
0.322539
0.292794
0.260726
0.228618
0.198595
0.172158
0.1501
0.132649
0.119644
0.110659
0.105093
0.102249
0.101424
0.101998
0.103499
0.105765
0.108675
0.112025
0.115443
0.118428
0.120498
0.121548
0.122355
0.124839
0.131395
0.14366
0.161751
0.184029
0.207395
0.228798
0.24948
0.270052
0.290177
0.306956
0.318862
0.323916
0.321167
0.310635
0.29321
0.271126
0.24798
0.22682
0.20743
0.18728
0.167027
0.152514
0.151028
0.167752
0.193572
0.212085
0.217542
0.221134
0.242334
0.302205
0.408162
0.541508
0.684497
0.693915
0.511058
0.359015
0.297435
0.267061
0.253599
0.249896
0.248339
0.242795
0.231705
0.217002
0.201129
0.185572
0.170957
0.157558
0.1456
0.135319
0.126914
0.120515
0.116177
0.113888
0.113566
0.11505
0.118096
0.12238
0.127484
0.132736
0.137897
0.142766
0.147187
0.15107
0.154422
0.157368
0.160167
0.163212
0.166978
0.171947
0.178663
0.187166
0.198015
0.209911
0.222778
0.236144
0.249365
0.261757
0.272557
0.280853
0.28558
0.285632
0.280143
0.268853
0.252397
0.232314
0.210722
0.189775
0.171144
0.155734
0.143661
0.134469
0.127413
0.121731
0.116813
0.112268
0.107909
0.103697
0.0996768
0.0959203
0.0924841
0.0893947
0.0866454
0.0842024
0.0820141
0.0800203
0.0781595
0.0763742
0.074614
0.0728391
0.0710253
0.0691738
0.0673246
0.0655738
0.0640896
0.0631372
0.0631618
0.0650151
0.0704806
0.0835589
0.113132
0.175332
0.284703
0.408078
0.443979
0.358161
0.257963
0.200234
0.170803
0.157486
0.15336
0.154733
0.159981
0.167463
0.176741
0.189547
0.20534
0.220785
0.230967
0.234385
0.231
0.222657
0.212074
0.201765
0.193375
0.1874
0.183327
0.180208
0.614001
0.275816
0.357357
0.391479
0.386997
0.371968
0.352178
0.326728
0.295956
0.261735
0.226921
0.194298
0.165803
0.142366
0.124131
0.11074
0.101538
0.0957173
0.0924467
0.0909922
0.0908138
0.0915849
0.093162
0.0959632
0.100086
0.105357
0.111355
0.117306
0.122015
0.124066
0.122775
0.119748
0.118803
0.123437
0.135171
0.153655
0.176032
0.197649
0.217941
0.23854
0.260137
0.282321
0.302553
0.317832
0.325543
0.324026
0.312742
0.292604
0.266767
0.239994
0.215583
0.19264
0.169183
0.148161
0.136301
0.139104
0.156852
0.177622
0.190513
0.199274
0.222671
0.284117
0.38857
0.518988
0.654743
0.641298
0.454271
0.318433
0.267786
0.249176
0.245238
0.245468
0.240808
0.228549
0.211572
0.193576
0.176585
0.16117
0.147366
0.135238
0.12499
0.116848
0.110952
0.107319
0.10586
0.106407
0.108723
0.11251
0.117418
0.123077
0.128993
0.134748
0.140145
0.145
0.149154
0.152501
0.155017
0.1568
0.158096
0.159308
0.160973
0.163599
0.167833
0.173818
0.181438
0.190705
0.201261
0.212593
0.224144
0.235412
0.245961
0.255322
0.262853
0.267645
0.268602
0.264708
0.255441
0.241144
0.223106
0.203288
0.183782
0.166274
0.151713
0.140276
0.131556
0.124861
0.11947
0.114803
0.110491
0.106345
0.102332
0.0984931
0.0948921
0.0915811
0.0885829
0.085889
0.0834648
0.0812589
0.0792116
0.0772629
0.0753588
0.0734572
0.0715352
0.0696004
0.0677048
0.065963
0.0645678
0.0638165
0.0641976
0.0666273
0.0729836
0.0874009
0.119019
0.184395
0.296043
0.411332
0.428898
0.337525
0.24366
0.188658
0.160409
0.148388
0.145914
0.148583
0.15278
0.157074
0.163551
0.174679
0.189302
0.203154
0.213266
0.217495
0.215609
0.209192
0.200567
0.191829
0.184371
0.178718
0.174595
0.171297
0.731903
0.288946
0.35304
0.379501
0.373651
0.358571
0.337133
0.308566
0.274293
0.237456
0.201706
0.169883
0.143464
0.122758
0.107339
0.0963859
0.0889066
0.0839144
0.0805894
0.0784005
0.077169
0.0770381
0.0783328
0.0815262
0.0866556
0.0936497
0.102252
0.111875
0.121325
0.128388
0.130162
0.12588
0.119654
0.117339
0.122003
0.134728
0.153728
0.174469
0.19299
0.211691
0.23266
0.256296
0.280984
0.303858
0.321523
0.330728
0.329088
0.315621
0.291741
0.261969
0.231991
0.204618
0.178418
0.153374
0.134879
0.129001
0.137991
0.155583
0.170769
0.182648
0.207271
0.267476
0.366057
0.490704
0.613004
0.579071
0.403019
0.287509
0.247951
0.23962
0.242726
0.242174
0.230947
0.212023
0.191306
0.172237
0.155642
0.141274
0.128889
0.118563
0.110536
0.104982
0.101896
0.101113
0.102373
0.105369
0.109758
0.115166
0.1212
0.12749
0.133638
0.139464
0.144824
0.149553
0.153478
0.156459
0.158426
0.159431
0.159691
0.159591
0.159712
0.160646
0.162791
0.166523
0.172012
0.179201
0.187796
0.197311
0.207175
0.216876
0.22607
0.234559
0.242141
0.248405
0.252595
0.253647
0.250474
0.242413
0.229633
0.213255
0.195091
0.177118
0.160942
0.147466
0.136857
0.128732
0.122447
0.117345
0.112887
0.108737
0.104744
0.100879
0.0971833
0.0937127
0.0905111
0.087594
0.0849472
0.082533
0.0802986
0.0781855
0.0761384
0.0741141
0.0720908
0.0700806
0.0681459
0.0664168
0.0651075
0.0645434
0.0652506
0.068197
0.0753213
0.0907985
0.123799
0.19084
0.30229
0.409763
0.415999
0.325026
0.235666
0.181209
0.152994
0.141792
0.140557
0.143404
0.145522
0.146462
0.150857
0.160514
0.173632
0.187265
0.198196
0.204217
0.204866
0.201295
0.195322
0.188557
0.182073
0.176431
0.17172
0.167562
0.844207
0.324628
0.34508
0.36909
0.363652
0.349461
0.327535
0.297137
0.260586
0.222081
0.185859
0.154714
0.129702
0.110647
0.0967155
0.0867864
0.0796769
0.0743267
0.0699621
0.0662438
0.0633667
0.0620353
0.0633486
0.0670173
0.0728842
0.0809887
0.0912352
0.103267
0.116299
0.128433
0.135797
0.134667
0.127067
0.120291
0.119083
0.125863
0.139889
0.157186
0.174291
0.19128
0.210312
0.23285
0.258509
0.285327
0.310237
0.329374
0.338781
0.335419
0.318283
0.290037
0.256732
0.22421
0.194229
0.165953
0.142531
0.130384
0.132732
0.145927
0.160161
0.17278
0.197363
0.254425
0.345311
0.462865
0.567794
0.519066
0.361721
0.264961
0.234913
0.235267
0.242638
0.237883
0.219238
0.195331
0.172956
0.154214
0.138755
0.12583
0.115158
0.106915
0.101343
0.0984752
0.098089
0.0998158
0.103253
0.108007
0.113678
0.119859
0.126168
0.132281
0.13806
0.143569
0.148709
0.153312
0.157162
0.16005
0.161843
0.162505
0.162218
0.161339
0.160457
0.160133
0.160867
0.163056
0.166925
0.172493
0.179537
0.187616
0.19615
0.204557
0.21242
0.219571
0.226028
0.231802
0.236654
0.23993
0.240596
0.237545
0.230068
0.218276
0.203202
0.186535
0.170102
0.155361
0.143098
0.133419
0.125946
0.120094
0.115245
0.110943
0.106907
0.103018
0.0992613
0.0956767
0.0923127
0.089202
0.0863505
0.0837368
0.0813191
0.0790446
0.07686
0.0747222
0.0726104
0.0705408
0.0685835
0.0668817
0.0656681
0.0652917
0.0663091
0.0697255
0.0775054
0.0937776
0.127523
0.194811
0.304193
0.405152
0.406096
0.319044
0.2328
0.177447
0.148273
0.137128
0.136282
0.138409
0.1381
0.136502
0.139166
0.147536
0.159997
0.173846
0.186075
0.194438
0.198166
0.197885
0.194873
0.190263
0.184768
0.178881
0.173091
0.167564
0.929708
0.397346
0.345005
0.360157
0.357642
0.345392
0.324612
0.2944
0.257161
0.21765
0.180643
0.149161
0.124189
0.10535
0.0916189
0.081743
0.0744675
0.0686641
0.0633776
0.0579675
0.0529147
0.050685
0.0530711
0.0574855
0.0639041
0.0726405
0.083788
0.0970705
0.111829
0.126557
0.137733
0.14077
0.135342
0.126977
0.121784
0.123418
0.132523
0.146335
0.161243
0.176292
0.19308
0.21341
0.237804
0.265383
0.294072
0.32051
0.340166
0.348367
0.341684
0.319901
0.287624
0.251877
0.21758
0.185777
0.15802
0.140173
0.136726
0.145276
0.156999
0.168785
0.19246
0.245487
0.328691
0.438435
0.524575
0.467598
0.330802
0.249112
0.226341
0.233193
0.242412
0.232918
0.207278
0.180142
0.157464
0.13973
0.125699
0.114347
0.105486
0.0993997
0.0962562
0.0958515
0.0977056
0.101278
0.10609
0.1117
0.117676
0.123632
0.129284
0.134436
0.139348
0.1443
0.149195
0.153836
0.157943
0.161176
0.163324
0.16421
0.16393
0.162885
0.161578
0.160583
0.160446
0.161602
0.164325
0.168687
0.174542
0.181515
0.189053
0.196536
0.203443
0.2095
0.214717
0.219292
0.223385
0.226857
0.229101
0.229103
0.225772
0.218443
0.207254
0.193218
0.177917
0.163
0.149724
0.138713
0.129988
0.123181
0.117714
0.113073
0.108879
0.104914
0.101092
0.0974123
0.0939133
0.0906337
0.0875945
0.0847906
0.0821939
0.0797606
0.0774425
0.075199
0.0730113
0.0708987
0.068938
0.0672825
0.0661803
0.0659995
0.0673195
0.0711674
0.0795024
0.096333
0.130257
0.196572
0.302603
0.398654
0.399075
0.317998
0.234198
0.177149
0.146063
0.133957
0.132472
0.133221
0.130975
0.127947
0.129435
0.136847
0.148934
0.163264
0.176985
0.187861
0.194791
0.197838
0.197778
0.195364
0.190947
0.18477
0.17754
0.170136
0.896337
0.487079
0.369457
0.357195
0.35555
0.346255
0.32765
0.299369
0.263415
0.224245
0.186758
0.154317
0.128215
0.108248
0.0934618
0.0826441
0.0745931
0.0682475
0.0627602
0.0577047
0.0535136
0.0513544
0.0525591
0.0564394
0.0626972
0.0714614
0.0828719
0.0966981
0.112203
0.127903
0.140645
0.145841
0.141884
0.133146
0.125871
0.124274
0.129651
0.140065
0.152348
0.16524
0.179808
0.197675
0.219728
0.245913
0.275277
0.305629
0.333023
0.352134
0.357732
0.346605
0.320391
0.285652
0.24896
0.213703
0.181748
0.157936
0.147984
0.151179
0.159393
0.169473
0.191877
0.240645
0.317048
0.41836
0.486518
0.426981
0.309054
0.238419
0.220416
0.231283
0.240788
0.227165
0.197452
0.168178
0.145345
0.128563
0.115993
0.106184
0.0990689
0.0950186
0.094027
0.0955766
0.0989451
0.103497
0.108721
0.114134
0.119306
0.123968
0.128071
0.131693
0.135517
0.139899
0.144678
0.149597
0.15436
0.158454
0.161561
0.163337
0.163798
0.163215
0.16206
0.160938
0.160441
0.161045
0.163058
0.166602
0.171594
0.177737
0.184536
0.191382
0.19769
0.203057
0.20737
0.210804
0.213691
0.216275
0.218454
0.219627
0.218789
0.214915
0.207448
0.196626