/*--------------------------------*- C++ -*----------------------------------*\
| =========                 |                                                 |
| \\      /  F ield         | OpenFOAM: The Open Source CFD Toolbox           |
|  \\    /   O peration     | Version:  2112                                  |
|   \\  /    A nd           | Website:  www.openfoam.com                      |
|    \\/     M anipulation  |                                                 |
\*---------------------------------------------------------------------------*/
FoamFile
{
    version     2.0;
    format      ascii;
    arch        "LSB;label=32;scalar=64";
    class       volScalarField;
    location    "0.2";
    object      kU;
}
// * * * * * * * * * * * * * * * * * * * * * * * * * * * * * * * * * * * * * //

dimensions      [0 2 -2 0 0 0 0];

internalField   nonuniform List<scalar> 
12225
(
1.01627
1.74073
2.45414
3.22859
4.12042
5.16513
6.37864
7.75781
9.28098
10.9112
12.6009
14.3007
15.9666
17.5645
19.0688
20.4813
21.6877
22.5813
0.294818
0.353141
0.429818
0.526622
0.644724
0.784206
0.945357
1.13044
1.34541
1.59867
1.90153
2.26262
2.68459
3.16321
3.68832
4.25954
4.92229
5.61784
0.265427
0.270456
0.276044
0.282733
0.291616
0.303588
0.31946
0.34031
0.367708
0.403684
0.450859
0.511959
0.589323
0.68467
0.798741
0.934295
1.09733
1.28906
0.263235
0.263895
0.264474
0.26497
0.265442
0.265897
0.26632
0.266791
0.267568
0.269078
0.271902
0.276724
0.284265
0.295233
0.31025
0.330238
0.356097
0.388268
0.262824
0.26304
0.263136
0.263132
0.263045
0.262869
0.262568
0.262126
0.261561
0.260923
0.260287
0.259753
0.259434
0.259459
0.25999
0.261147
0.26307
0.26579
0.262685
0.262829
0.262899
0.262887
0.262822
0.262698
0.262499
0.262218
0.26186
0.261438
0.260973
0.260489
0.260011
0.259563
0.259165
0.258847
0.258642
0.258562
0.262612
0.262718
0.262795
0.262829
0.262829
0.262783
0.262686
0.262539
0.262345
0.262117
0.261867
0.261608
0.26135
0.261103
0.260877
0.260676
0.260518
0.26041
0.26256
0.262632
0.262705
0.262766
0.262811
0.262828
0.26281
0.262754
0.262663
0.262553
0.262435
0.262316
0.262205
0.262106
0.262025
0.261962
0.261926
0.261917
0.262518
0.262556
0.262613
0.262679
0.262747
0.262804
0.26284
0.262847
0.262831
0.262801
0.262766
0.262734
0.26271
0.262698
0.262701
0.262725
0.262771
0.262834
0.262476
0.262485
0.262522
0.262577
0.262646
0.262719
0.262786
0.262838
0.262875
0.262901
0.262923
0.262949
0.262984
0.263031
0.263093
0.263171
0.263263
0.263366
0.262438
0.262415
0.262432
0.262472
0.26253
0.2626
0.262675
0.262747
0.262815
0.262879
0.262941
0.263006
0.263079
0.26316
0.263253
0.263357
0.263472
0.263592
0.262409
0.262355
0.26235
0.262376
0.262421
0.262481
0.262551
0.262625
0.262702
0.26278
0.262861
0.262947
0.263038
0.263137
0.263244
0.263359
0.26348
0.263603
0.262385
0.262303
0.262273
0.262283
0.262315
0.262363
0.262424
0.262493
0.262568
0.262649
0.262735
0.262828
0.262926
0.263032
0.263143
0.263259
0.26338
0.263499
0.262363
0.262253
0.262195
0.262183
0.262201
0.262236
0.262284
0.262343
0.262411
0.262486
0.262568
0.262657
0.262752
0.262854
0.26296
0.263069
0.263181
0.26329
0.262345
0.262209
0.262123
0.262085
0.262083
0.262106
0.262141
0.262187
0.262243
0.262308
0.262379
0.262458
0.262542
0.262631
0.262724
0.26282
0.262916
0.263009
0.26233
0.262174
0.262063
0.261998
0.261973
0.261978
0.262002
0.262036
0.26208
0.262131
0.26219
0.262254
0.262324
0.262397
0.262472
0.262549
0.262626
0.2627
0.26232
0.262149
0.262019
0.261931
0.261883
0.261868
0.261877
0.261901
0.261932
0.261972
0.262017
0.262066
0.26212
0.262176
0.262233
0.262291
0.262349
0.262403
0.262315
0.262136
0.261993
0.26189
0.261824
0.26179
0.261784
0.261796
0.261818
0.261845
0.261878
0.261914
0.261953
0.261993
0.262033
0.262074
0.262114
0.262152
0.262316
0.262136
0.261991
0.261882
0.261809
0.261766
0.261749
0.261751
0.261765
0.261785
0.261808
0.261833
0.261859
0.261886
0.261912
0.261938
0.261963
0.261986
0.262324
0.262153
0.262017
0.261918
0.261852
0.261815
0.261801
0.261804
0.261817
0.261834
0.261853
0.261871
0.261889
0.261906
0.26192
0.261933
0.261944
0.261953
0.262336
0.262181
0.262063
0.261981
0.261931
0.261907
0.261904
0.261912
0.261927
0.261942
0.261955
0.261965
0.261969
0.26197
0.261966
0.261958
0.261949
0.261937
0.262355
0.262224
0.262129
0.26207
0.26204
0.262033
0.262039
0.26205
0.26206
0.262065
0.262062
0.262049
0.262028
0.262
0.261967
0.261929
0.26189
0.26185
0.262383
0.262282
0.262217
0.262179
0.262164
0.262162
0.262165
0.262164
0.262155
0.262134
0.262098
0.262048
0.261987
0.261917
0.26184
0.261759
0.261676
0.261594
0.262421
0.262358
0.262316
0.262287
0.262266
0.262248
0.262226
0.262192
0.262142
0.262073
0.261987
0.261884
0.261765
0.261635
0.261497
0.261352
0.261204
0.261056
0.262473
0.262444
0.262411
0.262369
0.262319
0.26226
0.262185
0.262091
0.261974
0.261833
0.261669
0.261482
0.261274
0.261048
0.260808
0.260558
0.2603
0.26004
0.262543
0.26255
0.262528
0.262471
0.262381
0.262261
0.262107
0.261916
0.261687
0.261418
0.26111
0.260762
0.260379
0.259962
0.259518
0.259053
0.258576
0.258099
0.262686
0.26287
0.263006
0.263045
0.262999
0.262881
0.262697
0.262445
0.262127
0.261746
0.261309
0.260832
0.260344
0.259889
0.259512
0.259262
0.2592
0.259395
0.263424
0.26527
0.267109
0.268665
0.270071
0.271539
0.273318
0.275663
0.278799
0.282897
0.288102
0.294562
0.302461
0.312032
0.323557
0.337346
0.353806
0.373361
0.275081
0.295644
0.322527
0.356573
0.398351
0.448065
0.505804
0.571453
0.64462
0.724762
0.811439
0.904589
1.00475
1.11319
1.23161
1.36169
1.50611
1.66543
0.731582
1.17601
1.58361
1.98444
2.40634
2.86817
3.38171
3.95423
4.58985
5.29011
6.05383
6.87718
7.75376
8.67496
9.63064
10.6098
11.6
12.5855
0.109441
0.114087
0.123343
0.136436
0.152696
0.171563
0.192598
0.215464
0.239892
0.265656
0.292906
0.321804
0.351932
0.382971
0.414788
0.447332
0.480589
0.51457
0.549312
0.584874
0.621327
0.658755
0.697242
0.736873
0.777727
0.819876
0.863383
0.908302
0.954673
1.00253
1.05189
1.10278
1.1552
1.20914
1.2646
1.32156
1.38
1.43991
1.50123
1.56395
1.62802
1.69338
1.76
1.82781
1.89676
1.96679
2.03782
2.10978
2.18261
2.25622
2.33054
2.40548
2.48097
2.55691
2.63322
2.7098
2.78658
2.86346
2.94035
3.01716
3.09379
3.17015
3.24615
3.3217
3.39671
3.47107
3.5447
3.6175
3.68938
3.76025
3.83002
3.8986
3.9659
4.03183
4.0963
4.15925
4.22058
4.28022
4.3381
4.39416
4.44832
4.50052
4.55072
4.59885
4.64486
4.68872
4.73037
4.76978
4.8069
4.84171
4.87417
4.90424
4.9319
4.95711
4.97985
5.00007
5.01775
5.03285
5.04533
5.05514
5.06221
5.06644
5.0677
5.06619
5.06235
5.05618
5.0477
5.03691
5.02384
5.00852
4.99096
4.97121
4.94929
4.92525
4.89911
4.87093
4.84074
4.80858
4.77451
4.73857
4.70079
4.66123
4.61992
4.5769
4.53221
4.48587
4.43792
4.38838
4.33727
4.28462
4.23042
4.17471
4.11748
4.05875
3.99852
3.93682
3.87364
3.80901
3.74293
3.67544
3.60656
3.53633
3.4648
3.39202
3.31805
3.24296
3.16681
3.08968
3.01164
2.93273
2.85304
2.77264
2.6917
2.61047
2.52954
2.45112
2.37726
2.30994
2.26349
2.24562
2.25938
2.301
2.36135
2.4232
2.49053
2.55951
2.62881
2.69786
2.76633
2.83407
2.90103
2.9672
3.03264
3.09738
3.16149
3.22502
3.28833
3.35161
3.42056
3.48205
0.111655
0.115547
0.123983
0.136064
0.151071
0.168396
0.187559
0.208192
0.230016
0.252825
0.276483
0.300896
0.325898
0.351318
0.377029
0.402953
0.429054
0.455328
0.481794
0.508494
0.535481
0.562815
0.59056
0.618775
0.647515
0.676825
0.706743
0.737294
0.768495
0.800354
0.83287
0.866036
0.899837
0.934255
0.969267
1.00485
1.04096
1.07758
1.11467
1.15219
1.19011
1.22839
1.26698
1.30585
1.34495
1.38424
1.42368
1.46322
1.50283
1.54246
1.58208
1.62163
1.66107
1.70038
1.7395
1.77841
1.81705
1.85541
1.89343
1.93109
1.96834
2.00517
2.04152
2.07738
2.11271
2.14748
2.18166
2.21523
2.24815
2.2804
2.31196
2.3428
2.3729
2.40225
2.43083
2.45863
2.48562
2.51181
2.53719
2.56174
2.58547
2.60838
2.63046
2.65171
2.67215
2.69176
2.71057
2.72857
2.74576
2.76216
2.77778
2.79261
2.80667
2.81997
2.83252
2.84432
2.85538
2.86572
2.87534
2.88427
2.89251
2.90011
2.9073
2.91429
2.92081
2.92685
2.93242
2.93754
2.94222
2.94648
2.95034
2.95381
2.95692
2.95968
2.9621
2.96421
2.96601
2.96753
2.96876
2.96973
2.97043
2.97087
2.97106
2.97098
2.97063
2.97
2.96907
2.96781
2.9662
2.9642
2.96177
2.95884
2.95537
2.95126
2.94644
2.94082
2.93429
2.92673
2.91801
2.908
2.89652
2.88343
2.86855
2.85169
2.83267
2.8113
2.78737
2.7607
2.73111
2.69842
2.6625
2.62324
2.5806
2.53466
2.48579
2.43513
2.38437
2.33757
2.30373
2.28904
2.29583
2.32133
2.35895
2.39793
2.43701
2.47431
2.50885
2.54016
2.56803
2.59242
2.61338
2.63104
2.64559
2.6573
2.66646
2.67349
2.67906
2.6847
2.69395
2.71771
0.115953
0.118906
0.12626
0.137275
0.151136
0.167185
0.184898
0.203877
0.223821
0.244499
0.265734
0.287378
0.309293
0.331352
0.353456
0.375537
0.39756
0.419521
0.441437
0.463344
0.485291
0.507331
0.52952
0.551909
0.574544
0.597462
0.620693
0.644255
0.668159
0.692407
0.716995
0.741913
0.767145
0.792673
0.818476
0.844531
0.870812
0.897294
0.923949
0.950752
0.977675
1.00469
1.03178
1.0589
1.08605
1.11318
1.14028
1.16734
1.19431
1.22119
1.24796
1.27459
1.30108
1.3274
1.35354
1.37949
1.40523
1.43075
1.45605
1.4811
1.5059
1.53044
1.55471
1.57871
1.60242
1.62583
1.64894
1.67175
1.69424
1.71641
1.73825
1.75977
1.78097
1.80183
1.82236
1.84256
1.86244
1.88199
1.90122
1.92013
1.93874
1.95705
1.97505
1.99278
2.01021
2.02738
2.04428
2.06092
2.07731
2.09345
2.10936
2.12504
2.1405
2.15576
2.17081
2.18568
2.20037
2.21491
2.22931
2.24362
2.25786
2.27213
2.28654
2.30091
2.31519
2.32935
2.34339
2.35733
2.37115
2.38486
2.39847
2.41197
2.42537
2.43866
2.45185
2.46493
2.47791
2.49078
2.50355
2.51619
2.52872
2.54113
2.5534
2.56553
2.57751
2.58932
2.60094
2.61235
2.62353
2.63444
2.64504
2.65528
2.66512
2.67448
2.68328
2.69145
2.69889
2.70549
2.71112
2.71564
2.7189
2.72073
2.72094
2.71934
2.7157
2.70981
2.70143
2.69033
2.67629
2.6591
2.63858
2.61461
2.58718
2.55642
2.52276
2.48705
2.45071
2.41675
2.39101
2.37822
2.37965
2.39347
2.41542
2.43943
2.46336
2.48547
2.5047
2.5205
2.53264
2.54107
2.54585
2.54713
2.54517
2.54024
2.53273
2.52312
2.51216
2.50154
2.49392
2.49777
0.121529
0.123064
0.12931
0.139292
0.152097
0.167022
0.183509
0.201137
0.219584
0.238608
0.258015
0.277649
0.297381
0.317102
0.33673
0.35621
0.375515
0.394644
0.413616
0.432468
0.451244
0.469995
0.488772
0.507622
0.526588
0.545703
0.564992
0.584474
0.604156
0.624043
0.64413
0.66441
0.684873
0.705504
0.726288
0.747208
0.768248
0.789392
0.810622
0.831923
0.85328
0.874678
0.896105
0.917549
0.938999
0.960447
0.981883
1.0033
1.0247
1.04606
1.0674
1.0887
1.10997
1.13121
1.15241
1.17357
1.19471
1.2158
1.23687
1.25791
1.27891
1.29989
1.32084
1.34176
1.36265
1.38351
1.40434
1.42514
1.44591
1.46663
1.48732
1.50798
1.52859
1.54916
1.56969
1.59018
1.61062
1.63102
1.65137
1.67168
1.69194
1.71216
1.73234
1.75247
1.77256
1.7926
1.8126
1.83255
1.85246
1.87233
1.89215
1.91193
1.93167
1.95137
1.97104
1.99068
2.01031
2.02994
2.04958
2.06926
2.08902
2.10887
2.12871
2.14849
2.16818
2.18776
2.20723
2.22657
2.24579
2.26485
2.28377
2.30254
2.32113
2.33956
2.3578
2.37584
2.39369
2.41133
2.42874
2.44593
2.46288
2.47958
2.49602
2.51219
2.52808
2.54369
2.55899
2.57398
2.58863
2.60292
2.61682
2.63031
2.64334
2.65586
2.66783
2.67919
2.68985
2.69975
2.70879
2.71686
2.72385
2.72963
2.73405
2.73695
2.73814
2.73745
2.73467
2.7296
2.72204
2.71181
2.69875
2.68279
2.66391
2.64231
2.61832
2.59244
2.56551
2.53967
2.5191
2.50688
2.50388
2.50886
2.51925
2.53187
2.54485
2.55653
2.56578
2.57207
2.57514
2.57494
2.57153
2.56507
2.55578
2.54394
2.52991
2.51421
2.49759
2.48168
2.46844
2.46323
0.128424
0.127851
0.132949
0.141949
0.15379
0.167717
0.183147
0.19964
0.216865
0.234566
0.252546
0.270647
0.288743
0.306738
0.324563
0.342173
0.35955
0.376698
0.39364
0.410411
0.427057
0.443626
0.460166
0.476722
0.493336
0.510037
0.526853
0.5438
0.56089
0.578127
0.595513
0.613044
0.630716
0.648521
0.666452
0.684502
0.702661
0.720923
0.739283
0.757736
0.776277
0.794904
0.813616
0.832414
0.851298
0.870273
0.88934
0.908507
0.927777
0.947159
0.966659
0.986285
1.00604
1.02595
1.046
1.0662
1.08658
1.10712
1.12783
1.14873
1.1698
1.19106
1.21251
1.23415
1.25597
1.27797
1.30015
1.32251
1.34503
1.36772
1.39057
1.41357
1.43671
1.45998
1.48337
1.50689
1.53051
1.55423
1.57804
1.60193
1.62589
1.64992
1.67399
1.69811
1.72227
1.74646
1.77067
1.7949
1.81914
1.84338
1.86762
1.89186
1.91608
1.9403
1.96451
1.98871
2.01291
2.03711
2.06133
2.08558
2.1098
2.13395
2.15799
2.18188
2.20562
2.22917
2.25253
2.27568
2.29861
2.32129
2.34372
2.36588
2.38776
2.40935
2.43062
2.45156
2.47217
2.49242
2.5123
2.5318
2.5509
2.5696
2.58787
2.60571
2.62312
2.64007
2.65656
2.67259
2.68812
2.70317
2.7177
2.73169
2.74511
2.75794
2.77014
2.78167
2.79247
2.80249
2.81167
2.81995
2.82722
2.83342
2.83842
2.84212
2.84438
2.84507
2.84402
2.8411
2.83615
2.82903
2.81966
2.80799
2.79403
2.778
2.76006
2.74041
2.71952
2.69877
2.681
2.66837
2.66151
2.65959
2.66117
2.66477
2.6691
2.67271
2.67454
2.67401
2.67085
2.665
2.65648
2.64542
2.63202
2.61652
2.59926
2.58073
2.56168
2.54355
2.52772
2.51735
0.136267
0.132976
0.136858
0.144912
0.155862
0.168887
0.183377
0.198881
0.215059
0.231652
0.248459
0.265323
0.282123
0.298772
0.315208
0.331397
0.347327
0.363009
0.378468
0.393741
0.408873
0.423912
0.438906
0.453899
0.468929
0.48403
0.499227
0.514539
0.529982
0.545565
0.561293
0.577169
0.593195
0.609372
0.625699
0.642178
0.65881
0.675598
0.692545
0.709655
0.726936
0.744395
0.762039
0.77988
0.797926
0.816191
0.834685
0.853422
0.872415
0.891676
0.911218
0.931054
0.951195
0.971653
0.992437
1.01356
1.03502
1.05683
1.07899
1.10151
1.12439
1.14762
1.17121
1.19515
1.21944
1.24407
1.26902
1.2943
1.31988
1.34576
1.37192
1.39836
1.42504
1.45197
1.47911
1.50646
1.534
1.56171
1.58957
1.61757
1.64568
1.6739
1.70219
1.73056
1.75898
1.78745
1.81594
1.84446
1.87299
1.90152
1.93004
1.95855
1.98704
2.0155
2.04394
2.07234
2.10072
2.12907
2.1574
2.18565
2.21371
2.24158
2.26926
2.29672
2.32394
2.35089
2.37756
2.40392
2.42996
2.45566
2.48099
2.50594
2.53049
2.55462
2.57832
2.60156
2.62432
2.64658
2.66834
2.68956
2.71023
2.73034
2.74987
2.76882
2.78716
2.80489
2.822
2.83848
2.85434
2.86955
2.88411
2.89799
2.9112
2.92369
2.93544
2.94643
2.95663
2.96599
2.97447
2.98204
2.98864
2.99419
2.99865
3.00192
3.00393
3.00456
3.00373
3.00131
2.99721
2.99134
2.98367
2.97419
2.96288
2.95003
2.93568
2.91977
2.90239
2.88442
2.8678
2.85409
2.84375
2.83629
2.83098
2.82725
2.82437
2.82121
2.81684
2.81068
2.80245
2.79204
2.77945
2.76479
2.7482
2.72991
2.71022
2.6896
2.66872
2.64883
2.63085
2.61653
0.144886
0.138267
0.140831
0.14795
0.158067
0.170261
0.183894
0.198504
0.213749
0.22937
0.245164
0.260978
0.276697
0.292236
0.307544
0.322594
0.33738
0.351918
0.366236
0.380373
0.394376
0.408292
0.422168
0.436049
0.449973
0.463976
0.478085
0.492322
0.506706
0.521251
0.535968
0.550866
0.565954
0.58124
0.596731
0.612437
0.628367
0.644531
0.660942
0.677611
0.694554
0.711784
0.729318
0.747171
0.76536
0.783902
0.802814
0.822113
0.841814
0.861933
0.882486
0.903485
0.924944
0.946873
0.969281
0.992176
1.01556
1.03944
1.06382
1.0887
1.11407
1.13994
1.16628
1.19311
1.22041
1.24816
1.27635
1.30497
1.33401
1.36344
1.39324
1.4234
1.45389
1.4847
1.5158
1.54716
1.57877
1.61059
1.64261
1.6748
1.70712
1.73956
1.7721
1.80471
1.83737
1.87008
1.9028
1.93554
1.96827
2.00099
2.03369
2.06635
2.09898
2.13156
2.16408
2.19655
2.22895
2.26128
2.29353
2.32549
2.35719
2.38863
2.41979
2.45066
2.4812
2.51139
2.54121
2.57062
2.59962
2.62817
2.65626
2.68385
2.71093
2.73747
2.76345
2.78885
2.81365
2.83781
2.86133
2.88417
2.90631
2.92775
2.94845
2.96842
2.98762
3.00607
3.02374
3.04063
3.05675
3.07207
3.08661
3.10034
3.11327
3.12536
3.1366
3.14697
3.15645
3.16501
3.17264
3.17931
3.18497
3.18959
3.19313
3.19555
3.19678
3.19675
3.19541
3.19268
3.18848
3.18276
3.17557
3.16691
3.15684
3.14548
3.13284
3.11872
3.10298
3.08616
3.06957
3.05432
3.0408
3.02876
3.01788
3.00806
2.999
2.98991
2.98003
2.96882
2.956
2.94144
2.9251
2.90706
2.88745
2.86644
2.84433
2.82154
2.79868
2.77677
2.75636
2.73838
0.154192
0.143608
0.144721
0.150901
0.16022
0.171633
0.184462
0.19824
0.212623
0.227355
0.242237
0.257118
0.271887
0.286469
0.300816
0.314908
0.328747
0.34235
0.35575
0.368989
0.382112
0.395168
0.408206
0.42127
0.4344
0.447634
0.461
0.474525
0.488232
0.502139
0.516263
0.53062
0.545223
0.560088
0.575228
0.59066
0.606399
0.622463
0.638869
0.655637
0.672784
0.690333
0.708302
0.726711
0.745581
0.764932
0.784782
0.805149
0.826051
0.847505
0.869525
0.892124
0.915314
0.939104
0.963501
0.988511
1.01414
1.04038
1.06723
1.0947
1.12278
1.15146
1.18073
1.21059
1.24101
1.272
1.30352
1.33557
1.36811
1.40114
1.43463
1.46855
1.50289
1.53761
1.57268
1.60808
1.64378
1.67974
1.71594
1.75234
1.78891
1.8256
1.86239
1.89926
1.93618
1.97313
2.01009
2.04704
2.08398
2.12088
2.15774
2.19456
2.23131
2.268
2.30461
2.34113
2.37757
2.4139
2.44987
2.48551
2.52084
2.55582
2.59046
2.62471
2.65856
2.69196
2.7249
2.75735
2.78928
2.82065
2.85146
2.88166
2.91123
2.94015
2.96839
2.99592
3.02272
3.04875
3.07399
3.09843
3.12202
3.14476
3.16662
3.18759
3.20765
3.22681
3.24503
3.26233
3.2787
3.29415
3.30866
3.32225
3.3349
3.34659
3.35731
3.36704
3.37578
3.38351
3.39021
3.39589
3.4005
3.40403
3.40646
3.40776
3.4079
3.40682
3.4045
3.40089
3.39596
3.3897
3.38213
3.3733
3.36328
3.35211
3.33975
3.32596
3.31051
3.29368
3.27633
3.25925
3.24278
3.22683
3.21131
3.19637
3.18194
3.16756
3.15265
3.13678
3.11965
3.10111
3.08114
3.05976
3.03708
3.01327
2.98858
2.96341
2.93828
2.914
2.89086
2.86929
0.164133
0.148923
0.148435
0.153656
0.162198
0.172858
0.184916
0.197896
0.211458
0.225348
0.239374
0.253391
0.267294
0.281013
0.294508
0.307763
0.320784
0.333594
0.346227
0.358727
0.37114
0.383518
0.395907
0.408355
0.420903
0.433588
0.446445
0.459502
0.472786
0.486321
0.500127
0.514226
0.528636
0.543379
0.558473
0.57394
0.5898
0.606076
0.62279
0.639964
0.657622
0.675787
0.694482
0.713729
0.733549
0.753964
0.774993
0.796655
0.818968
0.841948
0.86561
0.889965
0.915024
0.940795
0.967285
0.994494
1.02243
1.05108
1.08045
1.11053
1.14132
1.17281
1.20499
1.23786
1.27139
1.30558
1.3404
1.37583
1.41186
1.44846
1.48561
1.52328
1.56144
1.60006
1.63911
1.67857
1.71838
1.75851
1.79894
1.8396
1.88046
1.92147
1.96258
2.00378
2.04501
2.08627
2.12752
2.16874
2.20993
2.25107
2.29215
2.33315
2.37408
2.41492
2.45567
2.4963
2.53682
2.57697
2.6167
2.65604
2.69499
2.73353
2.77163
2.80925
2.84638
2.88297
2.919
2.95443
2.98923
3.02337
3.05682
3.08955
3.12154
3.15276
3.18318
3.21275
3.24145
3.26926
3.29613
3.32205
3.34699
3.37093
3.39384
3.41571
3.43654
3.45631
3.47499
3.4926
3.50913
3.52459
3.53899
3.55233
3.56461
3.57582
3.58591
3.5949
3.60277
3.60954
3.61519
3.61972
3.62311
3.62534
3.62642
3.62634
3.62508
3.62262
3.61893
3.61401
3.60782
3.6004
3.59176
3.58195
3.57104
3.55906
3.54592
3.53138
3.5152
3.49751
3.47883
3.45973
3.44047
3.42108
3.4016
3.38225
3.36313
3.34401
3.32451
3.30428
3.28306
3.26072
3.2372
3.21253
3.18677
3.1601
3.13273
3.10502
3.07741
3.05055
3.0245
2.99943
0.174678
0.154173
0.151922
0.156153
0.163922
0.173845
0.185147
0.197343
0.210098
0.223168
0.236367
0.249558
0.262644
0.27556
0.288272
0.30077
0.313063
0.325178
0.337151
0.349027
0.360853
0.372679
0.384556
0.396529
0.408642
0.420934
0.433441
0.446197
0.45923
0.472568
0.486236
0.50026
0.514663
0.529469
0.544702
0.560387
0.576549
0.593212
0.610403
0.628147
0.64647
0.665397
0.684952
0.705159
0.726041
0.747619
0.769913
0.792942
0.816725
0.841277
0.866613
0.892746
0.919685
0.947438
0.976009
1.0054
1.03561
1.06664
1.09847
1.13112
1.16457
1.19882
1.23385
1.26967
1.30625
1.34358
1.38165
1.42043
1.4599
1.50004
1.54082
1.58221
1.6242
1.66673
1.70979
1.75332
1.79728
1.84164
1.88635
1.93135
1.97658
2.022
2.06753
2.11314
2.15879
2.20443
2.25005
2.29563
2.34114
2.38657
2.43191
2.47715
2.5223
2.56734
2.61226
2.65705
2.70147
2.74538
2.78883
2.83183
2.87436
2.91638
2.95786
2.99876
3.03906
3.07872
3.11769
3.15596
3.19347
3.23021
3.26614
3.30122
3.33543
3.36875
3.40114
3.43255
3.46294
3.49229
3.52056
3.54774
3.57378
3.59867
3.62239
3.64493
3.66629
3.68644
3.70535
3.72302
3.73948
3.75473
3.76878
3.78164
3.79331
3.80383
3.81307
3.82107
3.82785
3.83341
3.83774
3.84087
3.84276
3.84343
3.84289
3.84114
3.83817
3.83398
3.82855
3.82188
3.81397
3.80485
3.79454
3.78311
3.7706
3.75702
3.74229
3.72622
3.70858
3.68938
3.66894
3.64765
3.62571
3.60321
3.58023
3.55703
3.53378
3.51041
3.48671
3.46242
3.43736
3.41138
3.38445
3.35656
3.32778
3.29826
3.26819
3.23789
3.20773
3.17822
3.14925
3.12087
0.185813
0.159345
0.155166
0.158368
0.16536
0.174545
0.18509
0.196499
0.208447
0.220698
0.233078
0.24546
0.257754
0.269904
0.281881
0.293679
0.305311
0.316805
0.328198
0.339535
0.350865
0.362238
0.373702
0.385305
0.397091
0.409101
0.421372
0.433941
0.446839
0.460097
0.473745
0.487809
0.502318
0.517299
0.532779
0.548786
0.565346
0.582489
0.600241
0.618632
0.637687
0.657434
0.6779
0.699108
0.721082
0.743846
0.767418
0.79182
0.81707
0.843185
0.870181
0.89807
0.926863
0.956569
0.987192
1.01873
1.05118
1.08455
1.11881
1.15399
1.19005
1.22701
1.26486
1.30359
1.34319
1.38365
1.42493
1.46703
1.50993
1.5536
1.59801
1.64315
1.68898
1.73546
1.78255
1.8302
1.87838
1.92702
1.97608
2.02549
2.07519
2.12509
2.17513
2.22525
2.27539
2.32551
2.37557
2.42555
2.47542
2.52518
2.57481
2.62431
2.67368
2.72292
2.77203
2.8207
2.8688
2.91637
2.96342
3.00994
3.05588
3.10119
3.14584
3.18979
3.23301
3.27547
3.31711
3.35792
3.39785
3.43686
3.47493
3.51202
3.54811
3.58318
3.61721
3.65008
3.68178
3.71229
3.74157
3.76961
3.79636
3.82181
3.84594
3.86875
3.89027
3.91046
3.9292
3.94657
3.96258
3.97725
3.99059
4.00261
4.01331
4.02271
4.03076
4.03746
4.04283
4.04688
4.0496
4.051
4.0511
4.04989
4.04741
4.04365
4.03863
4.03234
4.02479
4.01598
4.00593
3.99465
3.98219
3.9686
3.95392
3.93817
3.92129
3.9031
3.88343
3.86225
3.83971
3.81608
3.79151
3.7661
3.73996
3.71332
3.6864
3.65921
3.63168
3.60365
3.57497
3.54556
3.51537
3.4844
3.4527
3.42041
3.38771
3.35486
3.32218
3.29007
3.25831
3.22686
0.197545
0.164453
0.158182
0.160311
0.16651
0.174946
0.184719
0.195326
0.206449
0.217869
0.229426
0.241002
0.252519
0.263927
0.275204
0.286346
0.29737
0.308303
0.319183
0.330054
0.340963
0.35196
0.363093
0.374408
0.38595
0.397762
0.409881
0.422347
0.435192
0.448451
0.462156
0.476338
0.491026
0.506251
0.522044
0.538433
0.555448
0.573121
0.59148
0.610555
0.630376
0.650972
0.67237
0.694597
0.717678
0.741636
0.766495
0.792276
0.818998
0.846679
0.875338
0.904987
0.935641
0.967309
0.999993
1.03369
1.06841
1.10412
1.14084
1.17856
1.21727
1.25697
1.29766
1.33934
1.38199
1.42559
1.47014
1.51559
1.56195
1.60918
1.65728
1.7062
1.75592
1.8064
1.85758
1.90942
1.96186
2.01484
2.0683
2.12217
2.17637
2.23082
2.28543
2.34011
2.3948
2.44943
2.50396
2.55836
2.6126
2.66667
2.72056
2.77427
2.82782
2.8812
2.93401
2.9862
3.03777
3.08874
3.1391
3.18882
3.23785
3.2861
3.33353
3.38011
3.42582
3.47062
3.51448
3.55734
3.59919
3.63998
3.67967
3.71825
3.75568
3.79196
3.82716
3.86095
3.89341
3.92453
3.95427
3.98261
4.00952
4.03498
4.05898
4.08152
4.10259
4.1222
4.14028
4.15687
4.17198
4.18562
4.19782
4.20858
4.2179
4.22579
4.23224
4.23725
4.24082
4.24297
4.2437
4.24302
4.24096
4.23752
4.23274
4.22663
4.2192
4.21047
4.20044
4.18913
4.17655
4.16273
4.14773
4.13157
4.11432
4.09598
4.07652
4.0558
4.03371
4.01017
3.98528
3.95918
3.93198
3.90378
3.87471
3.84496
3.81472
3.78411
3.75309
3.72161
3.68959
3.65697
3.6237
3.5898
3.55534
3.52042
3.48519
3.44991
3.41481
3.38025
3.34589
3.31169
0.209913
0.16954
0.161017
0.162025
0.167404
0.175066
0.184039
0.193815
0.204088
0.214655
0.225375
0.236143
0.246892
0.25758
0.268188
0.278717
0.289183
0.299612
0.310041
0.320512
0.331071
0.341763
0.352637
0.363738
0.375109
0.386794
0.398833
0.411264
0.424125
0.437452
0.451279
0.46564
0.480569
0.496098
0.51226
0.529087
0.546613
0.564868
0.583887
0.603699
0.624337
0.645832
0.668214
0.691512
0.715755
0.740968
0.767179
0.794409
0.822682
0.852015
0.882426
0.913931
0.946545
0.98028
1.01514
1.05112
1.08821
1.12641
1.16571
1.20611
1.24761
1.29019
1.33387
1.37864
1.42448
1.47138
1.5193
1.56822
1.61815
1.66905
1.72092
1.77372
1.82742
1.88197
1.93732
1.99341
2.05017
2.10752
2.16538
2.22368
2.28235
2.3413
2.40046
2.45969
2.51888
2.57798
2.63693
2.69569
2.75422
2.81251
2.87053
2.92838
2.98582
3.04254
3.09858
3.15392
3.20853
3.26241
3.31554
3.36793
3.41956
3.47013
3.51971
3.56828
3.61581
3.66228
3.70765
3.75188
3.79493
3.83678
3.87738
3.91671
3.95474
3.99146
4.02685
4.06082
4.09333
4.12436
4.15388
4.18184
4.20824
4.23306
4.25628
4.27792
4.29797
4.31642
4.33327
4.34851
4.36217
4.37425
4.38478
4.39376
4.40122
4.40714
4.41152
4.41437
4.41571
4.41553
4.41385
4.4107
4.4061
4.40006
4.39262
4.38381
4.37364
4.36214
4.34931
4.33518
4.31977
4.30311
4.28524
4.26622
4.24609
4.22487
4.20254
4.17902
4.15422
4.12808
4.10063
4.07195
4.04212
4.01123
3.97938
3.94676
3.91353
3.87981
3.84565
3.81103
3.77594
3.74034
3.70421
3.6676
3.63054
3.59315
3.55558
3.51801
3.48068
3.44386
3.40717
3.37055
0.223007
0.174676
0.163749
0.163585
0.168106
0.174953
0.183085
0.191988
0.201374
0.211064
0.220932
0.230893
0.240888
0.250882
0.260861
0.270825
0.280789
0.290778
0.300824
0.310967
0.321248
0.331712
0.342404
0.353368
0.364647
0.376285
0.388321
0.400795
0.41375
0.427223
0.441253
0.455877
0.471131
0.487052
0.503677
0.521041
0.53918
0.558129
0.577925
0.5986
0.620189
0.642726
0.666244
0.690778
0.716357
0.743014
0.770779
0.799682
0.829746
0.860988
0.893419
0.927052
0.961903
0.997985
1.0353
1.07385
1.11361
1.15459
1.19679
1.2402
1.28481
1.33061
1.37761
1.4258
1.47515
1.52562
1.57717
1.6298
1.68351
1.73828
1.79409
1.85091
1.9087
1.96742
2.027
2.08738
2.14846
2.21014
2.27234
2.3349
2.39782
2.46108
2.52468
2.58828
2.65177
2.71511
2.77828
2.84119
2.90377
2.96607
3.02794
3.08904
3.14933
3.2088
3.26744
3.32521
3.3821
3.43807
3.49309
3.54715
3.6002
3.65214
3.70294
3.75257
3.80101
3.84822
3.89417
3.93883
3.98217
4.02416
4.06475
4.10393
4.14167
4.17794
4.21272
4.24598
4.27767
4.30776
4.33622
4.36299
4.38807
4.41146
4.43316
4.45317
4.47149
4.48812
4.50306
4.51631
4.52789
4.53781
4.54609
4.55275
4.55779
4.56122
4.56303
4.56325
4.56187
4.55893
4.55443
4.5484
4.54087
4.53188
4.52145
4.50962
4.4964
4.48184
4.46594
4.44872
4.43023
4.41048
4.38953
4.36743
4.34421
4.31992
4.29455
4.26805
4.24038
4.21148
4.18135
4.15002
4.11757
4.08406
4.0496
4.01432
3.97836
3.94186
3.90488
3.86744
3.82957
3.79127
3.75255
3.71345
3.67403
3.63439
3.59468
3.55505
3.51571
3.47689
3.43818
3.39951
0.237006
0.179976
0.166494
0.1651
0.16871
0.174683
0.181914
0.189891
0.198351
0.207138
0.21615
0.225315
0.234584
0.243929
0.253334
0.262799
0.272336
0.281965
0.291715
0.301619
0.311716
0.322048
0.332657
0.343588
0.354885
0.366591
0.378747
0.391391
0.404569
0.418326
0.432706
0.447749
0.463498
0.479992
0.497275
0.515387
0.534371
0.554266
0.575112
0.596947
0.619807
0.643732
0.668766
0.694943
0.722288
0.750841
0.780643
0.811731
0.844137
0.877878
0.912928
0.949286
0.986966
1.02598
1.06631
1.10798
1.15097
1.19528
1.24094
1.28792
1.3362
1.38577
1.43663
1.48876
1.54219
1.59663
1.65217
1.70884
1.76663
1.82553
1.88549
1.9465
2.00849
2.07142
2.13521
2.19979
2.26504
2.33086
2.39709
2.46354
2.53029
2.59728
2.66444
2.73161
2.7987
2.86562
2.93237
2.99892
3.06492
3.13003
3.19416
3.25731
3.31948
3.38064
3.44077
3.49984
3.55781
3.61466
3.67037
3.72491
3.77824
3.83033
3.88113
3.93062
3.97877
4.02555
4.07093
4.11488
4.15738
4.1984
4.2379
4.27587
4.31227
4.34707
4.38027
4.41184
4.44174
4.46994
4.4964
4.52107
4.54396
4.56507
4.58442
4.602
4.61783
4.6319
4.64422
4.65481
4.66365
4.67079
4.67622
4.67997
4.68205
4.68245
4.68119
4.67828
4.67374
4.66759
4.65987
4.6506
4.63981
4.62754
4.61382
4.5987
4.5822
4.56435
4.54516
4.52467
4.50291
4.47992
4.45574
4.43043
4.40403
4.37659
4.3481
4.31856
4.28795
4.25623
4.22338
4.18942
4.15441
4.1184
4.08149
4.04377
4.00536
3.96638
3.9269
3.88698
3.84667
3.80598
3.76497
3.72369
3.68219
3.64059
3.59902
3.55762
3.51656
3.47606
3.43571
3.3954
0.252873
0.185821
0.169523
0.166782
0.169369
0.17435
0.180568
0.187526
0.194991
0.202837
0.21098
0.219365
0.227948
0.236701
0.245607
0.254661
0.263871
0.27325
0.282823
0.292619
0.302674
0.313026
0.323718
0.334796
0.346306
0.358297
0.370815
0.383905
0.39761
0.411969
0.427043
0.442886
0.459531
0.477032
0.49544
0.514806
0.535181
0.556617
0.579164
0.602863
0.627742
0.653873
0.681329
0.710072
0.740066
0.771394
0.804122
0.838312
0.87403
0.911383
0.95011
0.990226
1.03175
1.07465
1.11889
1.1645
1.21152
1.25996
1.30982
1.36109
1.41375
1.46776
1.52307
1.57957
1.63718
1.69592
1.7558
1.8168
1.87889
1.94203
2.00618
2.07129
2.1373
2.20414
2.27173
2.33998
2.4088
2.47806
2.54767
2.61755
2.6876
2.75773
2.8278
2.89771
2.96763
3.03737
3.10649
3.17444
3.24129
3.30702
3.37161
3.43505
3.49731
3.55838
3.61821
3.67678
3.73407
3.79006
3.84473
3.89807
3.95005
4.00066
4.04986
4.09763
4.14395
4.18879
4.23213
4.27394
4.3142
4.35288
4.38996
4.42541
4.45921
4.49133
4.52175
4.55046
4.57742
4.60262
4.62602
4.64761
4.66739
4.68537
4.70153
4.7159
4.72849
4.73929
4.74833
4.7556
4.76111
4.76488
4.76692
4.76725
4.76586
4.76278
4.75802
4.75159
4.74353
4.73388
4.72265
4.70989
4.69563
4.67991
4.66277
4.64424
4.62436
4.60314
4.58061
4.55683
4.53181
4.5056
4.47826
4.44982
4.42035
4.38988
4.35844
4.32603
4.29264
4.25828
4.22287
4.18643
4.14901
4.11068
4.07152
4.0316
3.99102
3.94988
3.90826
3.86623
3.82385
3.78116
3.73824
3.69514
3.65195
3.60876
3.5657
3.52292
3.48055
3.43881
3.39728
3.35581
0.269161
0.191703
0.172721
0.16867
0.170194
0.174127
0.179292
0.185228
0.191737
0.198718
0.206104
0.213843
0.221895
0.230226
0.238816
0.247652
0.256737
0.266083
0.275713
0.285656
0.295949
0.306632
0.317752
0.329358
0.341502
0.35424
0.367634
0.381741
0.396616
0.412324
0.428961
0.446489
0.464864
0.484228
0.504661
0.526232
0.549007
0.573057
0.598482
0.625343
0.653483
0.683011
0.71398
0.746394
0.780283
0.815699
0.852691
0.891304
0.931574
0.973516
1.01705
1.06212
1.10864
1.15645
1.20545
1.25585
1.30765
1.36087
1.41548
1.47147
1.5288
1.58743
1.64729
1.70833
1.77056
1.83389
1.89826
1.96359
2.02983
2.09691
2.16477
2.23334
2.30256
2.37236
2.44265
2.51333
2.58431
2.6555
2.72679
2.79803
2.86916
2.94027
3.01113
3.08164
3.15135
3.22003
3.28749
3.35377
3.41885
3.48273
3.54539
3.60679
3.6669
3.72567
3.78307
3.83909
3.89371
3.94693