/*--------------------------------*- C++ -*----------------------------------*\
| =========                 |                                                 |
| \\      /  F ield         | OpenFOAM: The Open Source CFD Toolbox           |
|  \\    /   O peration     | Version:  2112                                  |
|   \\  /    A nd           | Website:  www.openfoam.com                      |
|    \\/     M anipulation  |                                                 |
\*---------------------------------------------------------------------------*/
FoamFile
{
    version     2.0;
    format      ascii;
    arch        "LSB;label=32;scalar=64";
    class       volScalarField;
    location    "0.31";
    object      p;
}
// * * * * * * * * * * * * * * * * * * * * * * * * * * * * * * * * * * * * * //

dimensions      [0 2 -2 0 0 0 0];

internalField   nonuniform List<scalar> 
12225
(
-801.296
-801.304
-799.099
-795.679
-791.54
-786.972
-782.2
-777.319
-772.355
-767.33
-762.277
-757.188
-752.016
-746.742
-741.274
-735.578
-729.536
-722.545
-801.642
-801.457
-799.171
-795.733
-791.583
-787.012
-782.241
-777.36
-772.394
-767.369
-762.317
-757.232
-752.07
-746.806
-741.374
-735.715
-729.769
-723.265
-802.602
-801.626
-799.276
-795.818
-791.663
-787.088
-782.311
-777.425
-772.458
-767.437
-762.388
-757.309
-752.16
-746.921
-741.548
-735.992
-730.235
-724.17
-802.169
-801.958
-799.55
-795.988
-791.798
-787.203
-782.412
-777.523
-772.557
-767.541
-762.498
-757.431
-752.308
-747.112
-741.819
-736.393
-730.842
-725.158
-803.853
-802.47
-799.79
-796.205
-791.984
-787.365
-782.559
-777.658
-772.688
-767.675
-762.643
-757.595
-752.509
-747.37
-742.168
-736.89
-731.555
-726.213
-802.709
-803.193
-800.316
-796.539
-792.246
-787.584
-782.751
-777.836
-772.865
-767.86
-762.846
-757.824
-752.782
-747.71
-742.612
-737.491
-732.378
-727.35
-806.02
-804.131
-800.82
-796.939
-792.578
-787.871
-783.006
-778.069
-773.088
-768.087
-763.09
-758.101
-753.113
-748.123
-743.142
-738.188
-733.3
-728.557
-809.526
-805.53
-801.646
-797.488
-792.991
-788.212
-783.313
-778.359
-773.377
-768.391
-763.418
-758.465
-753.534
-748.63
-743.771
-738.984
-734.31
-729.823
-811.707
-806.909
-802.46
-798.104
-793.497
-788.657
-783.709
-778.72
-773.722
-768.74
-763.792
-758.885
-754.024
-749.218
-744.49
-739.869
-735.401
-731.144
-815.756
-808.527
-803.535
-798.867
-794.097
-789.167
-784.167
-779.151
-774.149
-769.18
-764.259
-759.396
-754.604
-749.897
-745.297
-740.834
-736.548
-732.488
-816.372
-809.674
-804.599
-799.721
-794.803
-789.784
-784.723
-779.664
-774.643
-769.68
-764.79
-759.979
-755.26
-750.652
-746.176
-741.862
-737.744
-733.863
-814.475
-810.577
-805.706
-800.646
-795.567
-790.438
-785.31
-780.214
-775.18
-770.227
-765.362
-760.594
-755.941
-751.423
-747.059
-742.873
-738.891
-735.145
-815.091
-811.815
-806.876
-801.651
-796.422
-791.174
-785.97
-780.832
-775.778
-770.829
-765.99
-761.269
-756.682
-752.247
-747.984
-743.91
-740.048
-736.42
-815.464
-813.24
-808.385
-802.966
-797.553
-792.137
-786.822
-781.626
-776.549
-771.601
-766.788
-762.117
-757.602
-753.257
-749.096
-745.135
-741.391
-737.878
-824.456
-816.877
-810.602
-804.72
-798.978
-793.352
-787.914
-782.653
-777.551
-772.602
-767.807
-763.172
-758.724
-754.472
-750.417
-746.567
-742.932
-739.523
-824.332
-819.85
-813.313
-806.889
-800.747
-794.891
-789.304
-783.945
-778.784
-773.817
-769.05
-764.488
-760.12
-755.947
-751.977
-748.216
-744.67
-741.343
-838.809
-825.814
-816.81
-809.473
-802.877
-796.737
-790.978
-785.533
-780.338
-775.359
-770.592
-766.043
-761.723
-757.626
-753.739
-750.06
-746.588
-743.322
-841.306
-829.335
-819.642
-811.881
-805.123
-798.814
-792.903
-787.37
-782.122
-777.119
-772.363
-767.855
-763.583
-759.532
-755.694
-752.065
-748.643
-745.422
-837.845
-828.503
-820.664
-813.587
-807.109
-800.953
-795.077
-789.496
-784.201
-779.172
-774.399
-769.879
-765.607
-761.575
-757.765
-754.167
-750.773
-747.574
-829.527
-826.35
-821.223
-815.176
-808.905
-802.718
-796.785
-791.191
-785.899
-780.86
-776.071
-771.545
-767.273
-763.239
-759.428
-755.832
-752.437
-749.232
-831.086
-829.249
-823.181
-816.877
-810.542
-804.268
-798.226
-792.529
-787.138
-782.032
-777.201
-772.642
-768.345
-764.293
-760.474
-756.874
-753.48
-750.277
-842.238
-832.904
-825.297
-818.421
-811.748
-805.262
-799.211
-793.475
-788.043
-782.907
-778.064
-773.5
-769.192
-765.128
-761.302
-757.687
-754.276
-751.054
-845.864
-835.919
-827.477
-820.074
-813.113
-806.422
-800.138
-794.289
-788.786
-783.592
-778.692
-774.086
-769.756
-765.68
-761.83
-758.208
-754.79
-751.563
-847.068
-837.873
-829.142
-821.246
-813.903
-807.058
-800.735
-794.839
-789.305
-784.082
-779.168
-774.547
-770.205
-766.115
-762.266
-758.631
-755.202
-751.964
-846.545
-839.142
-830.46
-822.287
-814.815
-807.847
-801.28
-795.272
-789.669
-784.399
-779.457
-774.824
-770.468
-766.372
-762.508
-758.876
-755.448
-752.211
-850.671
-840.955
-831.506
-822.952
-815.225
-808.085
-801.576
-795.552
-789.936
-784.657
-779.699
-775.053
-770.689
-766.583
-762.714
-759.071
-755.635
-752.39
-855.319
-842.577
-832.346
-823.529
-815.622
-808.429
-801.828
-795.757
-790.105
-784.795
-779.815
-775.157
-770.791
-766.687
-762.822
-759.183
-755.749
-752.503
-859.274
-843.599
-832.859
-823.825
-815.834
-808.578
-801.944
-795.862
-790.208
-784.897
-779.91
-775.246
-770.875
-766.765
-762.896
-759.252
-755.816
-752.569
-857.914
-843.96
-833.141
-823.998
-815.969
-808.688
-802.03
-795.932
-790.272
-784.946
-779.945
-775.274
-770.903
-766.797
-762.933
-759.292
-755.856
-752.607
-856.279
-844.003
-833.234
-824.067
-816.023
-808.727
-802.058
-795.958
-790.3
-784.971
-779.961
-775.279
-770.902
-766.797
-762.937
-759.302
-755.87
-752.625
-673.24
-673.23
-673.218
-673.228
-673.268
-673.338
-673.438
-673.545
-673.622
-673.659
-673.652
-673.591
-673.453
-673.174
-672.876
-672.662
-672.297
-671.701
-670.903
-669.868
-668.601
-667.172
-665.531
-663.777
-662.925
-663.254
-664.383
-666.033
-668.045
-670.299
-672.693
-675.139
-677.551
-679.842
-681.926
-683.714
-685.125
-686.083
-686.531
-686.429
-685.741
-684.446
-682.532
-680.027
-676.977
-673.439
-669.472
-665.14
-660.502
-655.619
-650.54
-645.312
-639.969
-634.545
-629.067
-623.568
-618.083
-612.659
-607.347
-602.199
-597.265
-592.59
-588.212
-584.165
-580.478
-577.171
-574.279
-571.844
-569.951
-568.609
-567.651
-567.009
-566.838
-566.848
-566.328
-564.192
-560.389
-557.197
-555.98
-555.01
-553.922
-552.89
-550.996
-548.698
-547.027
-544.886
-541.96
-539.4
-537.119
-535.389
-533.252
-530.61
-530.488
-533.504
-538.337
-544.158
-550.277
-556.204
-561.555
-566.023
-569.365
-571.399
-572.014
-571.164
-568.871
-565.219
-560.346
-554.449
-547.734
-540.409
-532.663
-524.656
-516.517
-508.341
-500.199
-492.148
-484.23
-476.479
-468.928
-461.606
-454.55
-447.796
-441.386
-435.354
-429.725
-424.506
-419.691
-415.268
-411.209
-407.48
-404.036
-400.819
-397.755
-394.762
-391.755
-388.663
-385.42
-381.989
-378.384
-374.657
-370.826
-366.86
-362.825
-359.005
-355.639
-352.543
-349.338
-345.901
-342.4
-338.96
-335.615
-332.318
-328.977
-325.563
-322.083
-318.509
-314.789
-310.855
-306.815
-302.775
-298.473
-296.228
-299.113
-304.572
-309.555
-312.717
-313.372
-311.071
-305.809
-297.815
-287.837
-276.784
-265.52
-254.708
-244.746
-235.786
-227.911
-221.171
-215.573
-210.754
-673.272
-673.233
-673.221
-673.238
-673.293
-673.375
-673.471
-673.579
-673.695
-673.812
-673.909
-673.961
-673.978
-673.954
-674.029
-674.255
-674.007
-673.221
-671.971
-670.129
-668.172
-667.897
-667.437
-666.308
-665.796
-666.219
-667.31
-668.891
-670.818
-672.984
-675.288
-677.645
-679.97
-682.177
-684.177
-685.881
-687.205
-688.074
-688.421
-688.198
-687.373
-685.944
-683.926
-681.343
-678.229
-674.63
-670.603
-666.211
-661.518
-656.582
-651.459
-646.197
-640.832
-635.397
-629.917
-624.419
-618.936
-613.51
-608.191
-603.032
-598.084
-593.395
-589.008
-584.96
-581.282
-578
-575.148
-572.76
-570.88
-569.511
-568.575
-568.084
-568.203
-568.532
-568.597
-567.98
-564.63
-560.836
-557.872
-555.427
-554.122
-553.456
-551.915
-549.764
-548.288
-546.166
-542.507
-539.388
-537.214
-535.319
-533.827
-532.423
-533.333
-536.712
-541.581
-547.214
-553.054
-558.686
-563.783
-568.037
-571.198
-573.065
-573.51
-572.481
-570.009
-566.199
-561.199
-555.187
-548.37
-540.955
-533.135
-525.072
-516.894
-508.692
-500.536
-492.475
-484.55
-476.793
-469.231
-461.894
-454.816
-448.036
-441.594
-435.53
-429.868
-424.62
-419.782
-415.337
-411.256
-407.512
-404.061
-400.847
-397.796
-394.82
-391.834
-388.76
-385.524
-382.079
-378.447
-374.704
-370.865
-366.902
-362.913
-359.118
-355.779
-352.646
-349.322
-345.824
-342.352
-338.987
-335.678
-332.321
-328.92
-325.514
-322.082
-318.531
-314.822
-310.888
-306.853
-302.78
-298.45
-296.982
-300.481
-306.017
-310.744
-313.731
-314.278
-311.975
-306.533
-298.426
-288.333
-277.169
-265.818
-254.953
-244.967
-235.997
-228.085
-221.293
-215.627
-210.971
-673.379
-673.334
-673.348
-673.427
-673.55
-673.682
-673.799
-673.886
-673.921
-673.898
-673.886
-673.966
-674.248
-674.709
-675.124
-675.276
-675.066
-674.742
-674.136
-673.078
-671.731
-670.792
-670.371
-670.209
-670.402
-670.991
-671.979
-673.341
-675.021
-676.955
-679.064
-681.265
-683.465
-685.567
-687.478
-689.11
-690.378
-691.203
-691.505
-691.215
-690.314
-688.809
-686.713
-684.034
-680.807
-677.08
-672.914
-668.379
-663.544
-658.477
-653.239
-647.884
-642.452
-636.971
-631.464
-625.95
-620.455
-615.017
-609.684
-604.51
-599.553
-594.867
-590.497
-586.478
-582.836
-579.598
-576.791
-574.449
-572.597
-571.252
-570.436
-570.179
-570.562
-571.26
-571.531
-570.792
-569.026
-565.55
-561.194
-557.604
-555.892
-555.315
-553.738
-550.871
-548.259
-545.785
-542.251
-539.064
-536.937
-535.822
-535.595
-536.415
-538.601
-542.027
-546.445
-551.5
-556.854
-562.119
-566.933
-570.963
-573.936
-575.632
-575.906
-574.703
-572.056
-568.052
-562.841
-556.621
-549.609
-542.023
-534.063
-525.893
-517.641
-509.393
-501.21
-493.134
-485.199
-477.43
-469.852
-462.488
-455.37
-448.538
-442.035
-435.906
-430.182
-424.881
-419.992
-415.496
-411.37
-407.591
-404.123
-400.913
-397.884
-394.942
-391.99
-388.942
-385.73
-382.297
-378.638
-374.83
-370.93
-366.943
-362.951
-359.141
-355.669
-352.38
-349.082
-345.698
-342.273
-338.892
-335.576
-332.264
-328.916
-325.561
-322.149
-318.601
-314.87
-310.968
-307.042
-303.155
-299.739
-299.637
-303.389
-308.179
-312.456
-315.272
-315.745
-313.346
-307.859
-299.597
-289.292
-277.91
-266.387
-255.421
-245.395
-236.413
-228.451
-221.54
-215.771
-211.107
-673.696
-673.785
-674.005
-674.271
-674.485
-674.591
-674.566
-674.407
-674.125
-673.781
-673.529
-673.513
-673.689
-674.074
-674.894
-675.309
-675.28
-675.045
-674.743
-674.436
-674.149
-673.955
-673.954
-674.201
-674.737
-675.555
-676.672
-678.086
-679.78
-681.709
-683.811
-686.006
-688.202
-690.301
-692.207
-693.824
-695.063
-695.841
-696.086
-695.743
-694.79
-693.222
-691.024
-688.208
-684.808
-680.879
-676.49
-671.721
-666.652
-661.362
-655.925
-650.403
-644.843
-639.276
-633.713
-628.162
-622.634
-617.157
-611.777
-606.554
-601.56
-596.864
-592.519
-588.554
-584.984
-581.819
-579.073
-576.777
-574.971
-573.701
-573.023
-573.008
-573.72
-574.857
-575.59
-575.375
-573.977
-570.763
-566.012
-561.661
-559.222
-558.14
-556.046
-551.876
-547.757
-544.675
-541.473
-538.625
-537.17
-537.372
-538.709
-540.825
-543.658
-547.213
-551.5
-556.343
-561.477
-566.54
-571.167
-575.013
-577.791
-579.282
-579.344
-577.916
-575.019
-570.73
-565.217
-558.694
-551.4
-543.566
-535.402
-527.08
-518.724
-510.417
-502.204
-494.115
-486.173
-478.399
-470.806
-463.412
-456.242
-449.338
-442.749
-436.527
-430.711
-425.331
-420.359
-415.785
-411.588
-407.755
-404.26
-401.049
-398.044
-395.143
-392.239
-389.226
-386.024
-382.577
-378.883
-375.01
-371.04
-367.007
-362.984
-359.136
-355.606
-352.288
-348.987
-345.616
-342.225
-338.899
-335.63
-332.314
-328.95
-325.613
-322.233
-318.68
-314.928
-311.058
-307.22
-303.595
-301.624
-302.747
-306.388
-310.55
-314.641
-317.436
-317.916
-315.447
-309.838
-301.347
-290.724
-279.005
-267.215
-256.099
-246.038
-237.071
-229.063
-222.009
-216.061
-211.324
-674.418
-674.656
-675.028
-675.333
-675.502
-675.493
-675.299
-674.946
-674.454
-673.951
-673.543
-673.401
-673.545
-673.747
-674.073
-674.484
-674.855
-675.176
-675.476
-675.815
-676.211
-676.665
-677.198
-677.885
-678.795
-679.961
-681.394
-683.087
-685.017
-687.14
-689.394
-691.698
-693.966
-696.105
-698.026
-699.634
-700.838
-701.561
-701.762
-701.419
-700.471
-698.812
-696.457
-693.45
-689.838
-685.68
-681.046
-676.019
-670.687
-665.136
-659.452
-653.716
-647.99
-642.312
-636.687
-631.101
-625.54
-620.01
-614.547
-609.217
-604.112
-599.331
-594.95
-591.008
-587.51
-584.441
-581.792
-579.566
-577.817
-576.623
-576.079
-576.274
-577.272
-578.821
-579.975
-580.081
-578.953
-575.972
-571.021
-565.897
-562.268
-560.118
-557.334
-552.621
-547.747
-544.228
-541.014
-538.321
-538.342
-540.076
-542.47
-545.221
-548.468
-552.341
-556.834
-561.777
-566.907
-571.883
-576.36
-580.013
-582.567
-583.812
-583.618
-581.915
-578.704
-574.059
-568.17
-561.267
-553.609
-545.455
-537.032
-528.519
-520.042
-511.674
-503.443
-495.36
-487.431
-479.667
-472.073
-464.659
-457.443
-450.461
-443.769
-437.429
-431.496
-426.004
-420.927
-416.247
-411.951
-408.038
-404.498
-401.284
-398.308
-395.454
-392.594
-389.617
-386.431
-382.969
-379.219
-375.25
-371.167
-367.044
-362.97
-359.095
-355.526
-352.134
-348.811
-345.484
-342.147
-338.86
-335.62
-332.321
-328.99
-325.723
-322.393
-318.82
-315.029
-311.139
-307.382
-304.179
-303.827
-305.791
-309.296
-313.212
-317.442
-320.382
-320.916
-318.344
-312.538
-303.716
-292.65
-280.45
-268.264
-256.916
-246.817
-237.945
-229.97
-222.8
-216.601
-211.717
-675.235
-675.432
-675.66
-675.8
-675.819
-675.701
-675.441
-675.068
-674.593
-674.098
-673.743
-673.544
-673.526
-673.709
-674.058
-674.56
-675.189
-675.904
-676.666
-677.469
-678.323
-679.252
-680.284
-681.464
-682.835
-684.428
-686.252
-688.29
-690.509
-692.854
-695.26
-697.654
-699.964
-702.116
-704.033
-705.638
-706.854
-707.609
-707.833
-707.45
-706.395
-704.644
-702.19
-699.05
-695.264
-690.89
-686.005
-680.698
-675.074
-669.239
-663.299
-657.353
-651.482
-645.734
-640.111
-634.569
-629.053
-623.527
-618.002
-612.54
-607.253
-602.283
-597.752
-593.73
-590.226
-587.209
-584.642
-582.501
-580.82
-579.685
-579.227
-579.563
-580.75
-582.547
-584.016
-584.395
-583.405
-580.441
-575.157
-569.185
-564.303
-561.116
-557.912
-553.304
-548.398
-544.692
-541.513
-539.631
-541.072
-543.682
-546.607
-549.773
-553.476
-557.769
-562.585
-567.709
-572.867
-577.761
-582.094
-585.587
-587.975
-589.035
-588.607
-586.59
-583.03
-577.986
-571.643
-564.262
-556.144
-547.583
-538.83
-530.08
-521.457
-513.021
-504.785
-496.732
-488.848
-481.127
-473.566
-466.162
-458.922
-451.874
-445.074
-438.6
-432.527
-426.901
-421.699
-416.893
-412.471
-408.452
-404.848
-401.624
-398.681
-395.884
-393.085
-390.146
-386.954
-383.445
-379.619
-375.548
-371.35
-367.117
-362.949
-359.014
-355.376
-351.965
-348.659
-345.392
-342.121
-338.897
-335.713
-332.443
-329.134
-325.912
-322.599
-318.985
-315.143
-311.234
-307.542
-304.863
-306.244
-308.725
-312.202
-316.343
-320.935
-324.153
-324.801
-322.12
-316.119
-306.872
-295.205
-282.34
-269.57
-257.832
-247.62
-238.83
-231.013
-223.847
-217.431
-212.293
-675.854
-675.949
-676.011
-676.002
-675.898
-675.687
-675.396
-675.04
-674.641
-674.249
-673.945
-673.795
-673.855
-674.132
-674.62
-675.311
-676.176
-677.168
-678.247
-679.399
-680.634
-681.973
-683.44
-685.06
-686.854
-688.83
-690.982
-693.288
-695.711
-698.205
-700.721
-703.211
-705.623
-707.901
-709.978
-711.784
-713.241
-714.244
-714.66
-714.363
-713.303
-711.519
-708.983
-705.679
-701.636
-696.926
-691.648
-685.922
-679.875
-673.638
-667.335
-661.077
-654.965
-649.076
-643.444
-638.022
-632.692
-627.331
-621.88
-616.365
-610.899
-605.669
-600.874
-596.647
-593.018
-589.945
-587.37
-585.251
-583.591
-582.459
-581.995
-582.334
-583.544
-585.398
-587.039
-587.584
-586.606
-583.464
-577.782
-571.077
-565.257
-561.139
-557.843
-554.04
-549.924
-546.529
-543.68
-542.965
-545.124
-547.977
-551.126
-554.673
-558.836
-563.541
-568.653
-573.936
-579.145
-584.029
-588.332
-591.787
-594.116
-595.064
-594.44
-592.143
-588.145
-582.588
-575.673
-567.698
-559.006
-549.94
-540.783
-531.74
-522.931
-514.403
-506.145
-498.121
-490.293
-482.64
-475.146
-467.796
-460.579
-453.507
-446.621
-440.008
-433.782
-428.006
-422.667
-417.717
-413.14
-408.983
-405.294
-402.053
-399.152
-396.428
-393.708
-390.827
-387.646
-384.085
-380.143
-375.912
-371.561
-367.219
-362.972
-358.968
-355.26
-351.806
-348.507
-345.295
-342.103
-338.956
-335.83
-332.6
-329.33
-326.146
-322.85
-319.215
-315.326
-311.392
-307.798
-305.808
-308.614
-311.611
-315.251
-320.007
-325.141
-328.763
-329.609
-326.96
-320.684
-310.942
-298.582
-284.879
-271.302
-258.962
-248.498
-239.664
-231.998
-224.969
-218.485
-213.072
-676.305
-676.331
-676.313
-676.233
-676.066
-675.828
-675.526
-675.184
-674.829
-674.505
-674.289
-674.277
-674.483
-674.902
-675.55
-676.428
-677.5
-678.725
-680.072
-681.529
-683.095
-684.771
-686.565
-688.496
-690.575
-692.807
-695.18
-697.678
-700.277
-702.954
-705.694
-708.477
-711.272
-714.024
-716.645
-719.021
-721.012
-722.466
-723.233
-723.201
-722.301
-720.478
-717.726
-714.076
-709.591
-704.365
-698.521
-692.202
-685.561
-678.748
-671.902
-665.151
-658.613
-652.393
-646.557
-641.095
-635.91
-630.818
-625.635
-620.267
-614.752
-609.292
-604.171
-599.631
-595.759
-592.52
-589.834
-587.625
-585.877
-584.632
-584.014
-584.167
-585.16
-586.796
-588.357
-588.884
-587.775
-584.385
-578.513
-571.559
-565.216
-560.508
-557.727
-555.146
-552.367
-549.737
-547.536
-547.675
-549.889
-552.726
-556.01
-559.93
-564.501
-569.569
-574.946
-580.406
-585.738
-590.729
-595.133
-598.669
-601.026
-601.907
-601.088
-598.451
-593.99
-587.839
-580.243
-571.549
-562.165
-552.49
-542.855
-533.476
-524.463
-515.833
-507.544
-499.529
-491.734
-484.13
-476.704
-469.432
-462.287
-455.249
-448.329
-441.601
-435.223
-429.299
-423.824
-418.72
-413.961
-409.624
-405.817
-402.546
-399.691
-397.062
-394.454
-391.668
-388.525
-384.915
-380.844
-376.441
-371.895
-367.378
-363.03
-358.975
-355.216
-351.702
-348.383
-345.213
-342.097
-339.033
-335.993
-332.847
-329.634
-326.466
-323.16
-319.505
-315.599
-311.674
-308.253
-307.246
-310.659
-314.474
-318.5
-324.119
-329.893
-333.937
-334.975
-332.371
-325.884
-315.713
-302.657
-288.048
-273.534
-260.462
-249.549
-240.564
-232.944
-226.057
-219.631
-214.032
-676.783
-676.761
-676.684
-676.548
-676.343
-676.089
-675.808
-675.517
-675.23
-674.989
-674.897
-675.038
-675.392
-675.947
-676.738
-677.769
-679.013
-680.44
-682.018
-683.727
-685.544
-687.45
-689.45
-691.566
-693.82
-696.227
-698.792
-701.517
-704.407
-707.468
-710.698
-714.078
-717.556
-721.039
-724.391
-727.443
-730.015
-731.929
-733.032
-733.199
-732.342
-730.421
-727.44
-723.438
-718.493
-712.716
-706.253
-699.277
-691.969
-684.507
-677.048
-669.727
-662.661
-655.958
-649.704
-643.944
-638.641
-633.647
-628.725
-623.652
-618.308
-612.783
-607.389
-602.484
-598.271
-594.788
-591.92
-589.514
-587.565
-586.083
-585.15
-584.909
-585.41
-586.518
-587.625
-587.864
-586.509
-582.964
-577.387
-570.689
-564.253
-559.781
-558.044
-556.771
-555.246
-553.453
-552.045
-552.674
-554.773
-557.613
-561.089
-565.384
-570.319
-575.714
-581.342
-587.011
-592.546
-597.749
-602.368
-606.093
-608.571
-609.453
-608.48
-605.501
-600.55
-593.736
-585.349
-575.806
-565.589
-555.176
-544.958
-535.188
-525.964
-517.261
-508.98
-500.998
-493.226
-485.635
-478.229
-471.007
-463.943
-456.988
-450.099
-443.305
-436.794
-430.734
-425.145
-419.903
-414.947
-410.393
-406.431
-403.109
-400.292
-397.768
-395.308
-392.672
-389.623
-385.994
-381.781
-377.152
-372.375
-367.693
-363.241
-359.095
-355.278
-351.73
-348.388
-345.219
-342.142
-339.154
-336.214
-333.163
-330.011
-326.847
-323.535
-319.893
-316.001
-312.125
-308.922
-308.714
-312.775
-317.305
-321.871
-328.42
-334.799
-339.181
-340.365
-337.75
-331.198
-320.766
-307.149
-291.686
-276.185
-262.283
-250.802
-241.575
-233.92
-227.112
-220.767
-215.09
-677.437
-677.396
-677.294
-677.132
-676.919
-676.665
-676.4
-676.15
-675.931
-675.782
-675.811
-676.083
-676.558
-677.22
-678.114
-679.254
-680.628
-682.211
-683.968
-685.86
-687.842
-689.884
-691.998
-694.226
-696.614
-699.196
-701.999
-705.049
-708.37
-711.977
-715.862
-719.976
-724.222
-728.458
-732.507
-736.178
-739.281
-741.638
-743.076
-743.439
-742.648
-740.69
-737.556
-733.253
-727.859
-721.504
-714.367
-706.656
-698.596
-690.408
-682.286
-674.384
-666.817
-659.669
-652.998
-646.837
-641.188
-635.999
-631.083
-626.178
-621.067
-615.657
-610.149
-604.941
-600.364
-596.688
-593.516
-590.847
-588.61
-586.79
-585.422
-584.612
-584.403
-584.695
-585.007
-584.646
-582.975
-579.626
-574.715
-568.614
-562.749
-559.466
-558.752
-558.472
-557.859
-556.806
-555.993
-557.101
-559.301
-562.275
-566.078
-570.755
-576.04
-581.737
-587.629
-593.574
-599.418
-604.958
-609.914
-613.943
-616.65
-617.634
-616.583
-613.323
-607.826
-600.267
-590.996
-580.499
-569.334
-558.052
-547.12
-536.835
-527.325
-518.546
-510.334
-502.465
-494.775
-487.202
-479.771
-472.532
-465.507
-458.641
-451.844
-445.055
-438.438
-432.259
-426.593
-421.259
-416.115
-411.307
-407.151
-403.766
-400.986
-398.566
-396.279
-393.862
-390.987
-387.382
-383.03
-378.155
-373.094
-368.175
-363.593
-359.428
-355.572
-351.985
-348.595
-345.388
-342.306
-339.357
-336.497
-333.537
-330.451
-327.311
-324.011
-320.407
-316.567
-312.774
-309.796
-310.21
-314.842
-320.007
-325.191
-332.586
-339.469
-344.112
-345.424
-342.937
-336.295
-325.728
-311.745
-295.571
-279.118
-264.357
-252.229
-242.675
-234.92
-228.131
-221.854
-216.157
-678.341
-678.289
-678.174
-678.001
-677.785
-677.548
-677.316
-677.113
-676.96
-676.893
-677.014
-677.378
-677.935
-678.66
-679.606
-680.802
-682.248
-683.928
-685.8
-687.807
-689.887
-692.003
-694.183
-696.489
-698.998
-701.768
-704.845
-708.266
-712.062
-716.24
-720.772
-725.581
-730.537
-735.467
-740.182
-744.481
-748.161
-751.024
-752.879
-753.561
-752.951
-750.993
-747.671
-743.027
-737.165
-730.231
-722.419
-713.961
-705.112
-696.134
-687.274
-678.727
-670.628
-663.072
-656.101
-649.69
-643.777
-638.284
-633.105
-628.082
-622.999
-617.671
-612.179
-606.843
-602.065
-598.027
-594.599
-591.642
-589.065
-586.845
-584.983
-583.522
-582.519
-581.848
-581.329
-580.177
-578.245
-575.108
-570.972
-565.855
-561.391
-559.479
-559.331
-559.472
-559.252
-558.746
-558.925
-560.547
-563.101
-566.39
-570.659
-575.742
-581.392
-587.41
-593.63
-599.953
-606.214
-612.17
-617.506
-621.87
-624.851
-625.992
-624.91
-621.385
-615.381
-607.102
-596.953
-585.486
-573.335
-561.13
-549.405
-538.507
-528.6
-519.66
-511.493
-503.79
-496.272
-488.795
-481.36
-474.063
-466.996
-460.184
-453.512
-446.795
-440.113
-433.829
-428.124
-422.764
-417.484
-412.42
-408.033
-404.552
-401.79
-399.471
-397.383
-395.252
-392.649
-389.14
-384.648
-379.484
-374.11
-368.945
-364.208
-359.926
-356.135
-352.549
-349.105
-345.823
-342.68
-339.71
-336.883
-333.989
-330.966
-327.869
-324.6
-321.052
-317.291
-313.61
-310.834
-311.679
-316.747
-322.409
-328.331
-336.32
-343.575
-348.379
-349.754
-347.325
-340.737
-330.189
-316.058
-299.394
-282.109
-266.561
-253.791
-243.848
-235.932
-229.109
-222.869
-217.175
-679.549
-679.487
-679.358
-679.182
-678.976
-678.762
-678.566
-678.409
-678.312
-678.302
-678.467
-678.873
-679.463
-680.196
-681.135
-682.323
-683.771
-685.475
-687.393
-689.456
-691.589
-693.748
-695.966
-698.324
-700.929
-703.865
-707.189
-710.942
-715.153
-719.82
-724.897
-730.285
-735.833
-741.357
-746.652
-751.504
-755.686
-758.964
-761.125
-761.996
-761.459
-759.466
-756.011
-751.126
-744.918
-737.549
-729.227
-720.201
-710.739
-701.118
-691.623
-682.498
-673.891
-665.916
-658.679
-652.16
-646.201
-640.585
-635.153
-629.818
-624.489
-619.068
-613.552
-608.187
-603.29
-599.002
-595.282
-592.008
-589.072
-586.429
-584.066
-581.971
-580.189
-578.684
-577.233
-575.344
-572.827
-570.198
-566.974
-563.169
-560.314
-559.159
-559.04
-559.097
-559.023
-559.22
-560.531
-562.908
-565.952
-569.757
-574.582
-580.118
-586.17
-592.553
-599.163
-605.913
-612.596
-618.918
-624.572
-629.26
-632.585
-633.994
-632.974
-629.242
-622.812
-613.875
-602.879
-590.451
-577.325
-564.214
-551.716
-540.214
-529.875
-520.691
-512.49
-504.903
-497.588
-490.297
-482.938
-475.605
-468.449
-461.626
-455.068
-448.481
-441.788
-435.417
-429.695
-424.376
-419.043
-413.771
-409.161
-405.57
-402.783
-400.511
-398.621
-396.854
-394.615
-391.258
-386.662
-381.222
-375.517
-370.087
-365.218
-360.899
-357.098
-353.517
-350.012
-346.615
-343.349
-340.286
-337.423
-334.55
-331.569
-328.52
-325.305
-321.832
-318.166
-314.607
-311.991
-313.064
-318.397
-324.475
-331.066
-339.343
-346.86
-351.738
-353.127
-350.716
-344.277
-333.87
-319.782
-302.865
-284.906
-268.736
-255.384
-245.047
-236.936
-230.038
-223.798
-218.106
-681.118
-681.022
-680.841
-680.678
-680.492
-680.316
-680.16
-680.039
-679.974
-679.985
-680.141
-680.519
-681.075
-681.753
-682.62
-683.73
-685.102
-686.749
-688.639
-690.701
-692.854
-695.038
-697.278
-699.66
-702.315
-705.356
-708.849
-712.829
-717.323
-722.322
-727.766
-733.542
-739.487
-745.405
-751.083
-756.294
-760.795
-764.332
-766.682
-767.679
-767.21
-765.221
-761.687
-756.636
-750.187
-742.521
-733.866
-724.481
-714.655
-704.659
-694.779
-685.318
-676.425
-668.141
-660.628
-654.002
-648.131
-642.592
-637.069
-631.46
-625.786
-620.134
-614.552
-609.179
-604.2
-599.704
-595.69
-592.074
-588.778
-585.734
-582.916
-580.286
-577.85
-575.606
-573.333
-570.939
-568.318
-565.801
-563.417
-560.905
-559.051
-558.009
-557.517
-557.252
-557.398
-558.572
-561.122
-564.324
-567.843
-572.307
-577.711
-583.725
-590.2
-596.96
-603.959
-611.101
-618.132
-624.737
-630.666
-635.698
-639.458
-641.253
-640.393
-636.551
-629.706
-620.15
-608.382
-595.068
-581.019
-567.047
-553.852
-541.827
-531.123
-521.709
-513.392
-505.837
-498.682
-491.601
-484.404
-477.106
-469.871
-462.977
-456.498
-450.072
-443.435
-437.009
-431.281
-426.048
-420.752
-415.365
-410.588
-406.893
-404.038
-401.731
-399.996
-398.636
-396.793
-393.586
-388.939
-383.387
-377.526
-371.886
-366.868
-362.477
-358.603
-354.991
-351.408
-347.851
-344.396
-341.159
-338.177
-335.26
-332.29
-329.281
-326.122
-322.722
-319.156
-315.719
-313.211
-314.316
-319.705
-326.084
-333.129
-341.566
-349.189
-354.074
-355.475
-353.12
-346.835
-336.624
-322.71
-305.716
-287.395
-270.709
-256.885
-246.191
-237.88
-230.892
-224.626
-218.926
-683.045
-682.906
-682.652
-682.521
-682.383
-682.257
-682.132
-682.021
-681.94
-681.918
-682.005
-682.271
-682.706
-683.264
-683.988
-684.946
-686.16
-687.663
-689.444
-691.44
-693.578
-695.775
-698.035
-700.424
-703.082
-706.139
-709.685
-713.753
-718.359
-723.486
-729.067
-734.985
-741.076
-747.143
-752.969
-758.32
-762.945
-766.584
-769.009
-770.054
-769.609
-767.608
-764.019
-758.892
-752.36
-744.617
-735.889
-726.425
-716.521
-706.463
-696.493
-686.921
-677.982
-669.68
-662.022
-655.208
-649.301
-643.885
-638.429
-632.695
-626.787
-620.93
-615.256
-609.839
-604.77
-600.09
-595.817
-591.895
-588.273
-584.888
-581.691
-578.656
-575.731
-572.948
-570.159
-567.322
-564.4
-562.065
-560.451
-558.876
-557.325
-555.978
-554.984
-554.473
-555.028
-557.316
-560.969
-565.001
-568.835
-574.051
-579.98
-586.452
-593.322
-600.423
-607.75
-615.197
-622.48
-629.292
-635.439
-640.751
-644.849
-646.912
-646.083
-642.071
-634.851
-624.871
-612.636
-598.75
-584.033
-569.369
-555.642
-543.218
-532.245
-522.657
-514.227
-506.651
-499.585
-492.678
-485.671
-478.486
-471.23
-464.244
-457.796
-451.538
-445.02
-438.585
-432.858
-427.725
-422.536
-417.162
-412.329
-408.552
-405.555
-403.1
-401.429
-400.365
-398.834
-395.843
-391.373
-386.047
-380.401
-374.775
-369.598
-365.063
-360.968
-357.156
-353.396
-349.614
-345.892
-342.393
-339.202
-336.166
-333.157
-330.156
-327.039
-323.703
-320.228
-316.897
-314.441
-315.393
-320.598
-327.128
-334.414
-342.869
-350.475
-355.353
-356.787
-354.525
-348.401
-338.401
-324.726
-307.829
-289.378
-272.337
-258.176
-247.203
-238.715
-231.64
-225.339
-219.618
-685.284
-685.194
-685.016
-684.908
-684.798
-684.678
-684.532
-684.367
-684.2
-684.065
-684.003
-684.08
-684.31
-684.666
-685.17
-685.891
-686.867
-688.141
-689.726
-691.584
-693.651
-695.844
-698.125
-700.53
-703.166
-706.164
-709.632
-713.625
-718.156
-723.198
-728.68
-734.486
-740.459
-746.409
-752.121
-757.362
-761.881
-765.425
-767.772
-768.763
-768.326
-766.304
-762.732
-757.673
-751.264
-743.689
-735.175
-725.946
-716.27
-706.464
-696.746
-687.332
-678.511
-670.364
-662.76
-655.795
-649.703
-644.259
-638.884
-633.193
-627.23
-621.267
-615.494
-609.992
-604.812
-599.989
-595.536
-591.415
-587.567
-583.944
-580.485
-577.169
-573.958
-570.831
-567.794
-564.752
-561.691
-559.311
-557.979
-556.847
-555.248
-553.407
-551.985
-551.455
-552.56
-555.789
-560.207
-564.76
-569.465
-575.07
-581.388
-588.236
-595.431
-602.805
-610.366
-618
-625.42
-632.326
-638.545
-643.914
-648.028
-650.01
-648.988
-644.698
-637.242
-627.159
-614.908
-600.927
-585.934
-570.966
-556.93
-544.273
-533.145
-523.461
-514.966
-507.359
-500.332
-493.542
-486.701
-479.67
-472.465
-465.415
-458.959
-452.851
-446.498
-440.111
-434.397
-429.353
-424.296
-419.04
-414.28
-410.467
-407.25
-404.504
-402.722
-401.776
-400.497
-397.872
-393.979
-389.315
-384.273
-379.065
-373.889
-369.1
-364.573
-360.288
-356.132
-351.995
-347.901
-344.042
-340.548
-337.307
-334.193
-331.154
-328.049
-324.755
-321.349
-318.095
-315.635
-316.268
-321.044
-327.55
-334.888
-343.207
-350.7
-355.563
-357.061
-354.93
-348.978
-339.18
-325.772
-309.115
-290.721
-273.506
-259.159
-248.017
-239.399
-232.258
-225.925
-220.178
-688.211
-688.309
-688.321
-688.201
-687.977
-687.706
-687.413
-687.099
-686.764
-686.435
-686.144
-685.946
-685.882
-685.942
-686.134
-686.525
-687.173
-688.128
-689.426
-691.06
-692.987
-695.133
-697.428
-699.857
-702.469
-705.367
-708.661
-712.429
-716.698
-721.444
-726.595
-732.04
-737.628
-743.179
-748.49
-753.339