/*--------------------------------*- C++ -*----------------------------------*\
| =========                 |                                                 |
| \\      /  F ield         | OpenFOAM: The Open Source CFD Toolbox           |
|  \\    /   O peration     | Version:  2112                                  |
|   \\  /    A nd           | Website:  www.openfoam.com                      |
|    \\/     M anipulation  |                                                 |
\*---------------------------------------------------------------------------*/
FoamFile
{
    version     2.0;
    format      ascii;
    arch        "LSB;label=32;scalar=64";
    class       volVectorField;
    location    "0.49";
    object      UMean;
}
// * * * * * * * * * * * * * * * * * * * * * * * * * * * * * * * * * * * * * //

dimensions      [0 1 -1 0 0 0 0];

internalField   nonuniform List<vector> 
12225
(
(9.83955 0.0438336 0)
(9.54703 0.0603078 0)
(9.24779 0.0581381 0)
(8.94295 0.0568174 0)
(8.64226 0.0563558 0)
(8.35112 0.0557045 0)
(8.06996 0.0547145 0)
(7.79817 0.0539766 0)
(7.53304 0.053151 0)
(7.27487 0.0531868 0)
(7.0187 0.0528149 0)
(6.76801 0.0545362 0)
(6.51009 0.0549098 0)
(6.25741 0.0605696 0)
(5.97604 0.0622651 0)
(5.70557 0.0770551 0)
(5.35843 0.0808347 0)
(5.04252 0.115315 0)
(10.0098 0.052336 0)
(10.0713 0.0760251 0)
(10.1101 0.0749808 0)
(10.1229 0.0762542 0)
(10.1182 0.0798083 0)
(10.1027 0.0830807 0)
(10.0783 0.0858585 0)
(10.046 0.0885041 0)
(10.0053 0.0915204 0)
(9.95734 0.0948476 0)
(9.90034 0.0992042 0)
(9.8368 0.104183 0)
(9.76174 0.111752 0)
(9.67954 0.120419 0)
(9.57962 0.135488 0)
(9.46954 0.151807 0)
(9.3312 0.183032 0)
(9.17415 0.212505 0)
(9.99957 0.0293538 0)
(10.0321 0.0530287 0)
(10.0606 0.05582 0)
(10.0769 0.058332 0)
(10.0856 0.0632962 0)
(10.0917 0.0684818 0)
(10.0968 0.0729632 0)
(10.1003 0.0774462 0)
(10.1016 0.0820131 0)
(10.0999 0.087621 0)
(10.0955 0.0937336 0)
(10.0873 0.102108 0)
(10.0764 0.11176 0)
(10.0604 0.126048 0)
(10.0428 0.143676 0)
(10.0187 0.169903 0)
(9.99746 0.203696 0)
(9.97047 0.246111 0)
(10.0006 0.0293969 0)
(10.0235 0.0582221 0)
(10.0459 0.0644584 0)
(10.0592 0.0666821 0)
(10.0653 0.0709273 0)
(10.0685 0.0759433 0)
(10.0709 0.0806068 0)
(10.0724 0.085044 0)
(10.0726 0.0898895 0)
(10.0708 0.0954821 0)
(10.0673 0.102388 0)
(10.0617 0.110878 0)
(10.0546 0.122012 0)
(10.0457 0.13639 0)
(10.0367 0.155826 0)
(10.0284 0.181249 0)
(10.0242 0.213455 0)
(10.0271 0.250428 0)
(10.0032 0.0213311 0)
(10.0219 0.0466499 0)
(10.0416 0.0551909 0)
(10.0546 0.0583274 0)
(10.0609 0.0627352 0)
(10.0639 0.0683976 0)
(10.0657 0.0739862 0)
(10.0667 0.0793994 0)
(10.0663 0.085065 0)
(10.0643 0.0916264 0)
(10.0605 0.099405 0)
(10.0551 0.109025 0)
(10.0482 0.121022 0)
(10.0405 0.136361 0)
(10.0326 0.155895 0)
(10.0266 0.180353 0)
(10.0236 0.209212 0)
(10.0269 0.240409 0)
(10.0067 0.0190809 0)
(10.0211 0.0448317 0)
(10.0372 0.0559399 0)
(10.0491 0.060498 0)
(10.0557 0.0651174 0)
(10.059 0.0709427 0)
(10.0609 0.0769988 0)
(10.062 0.0829325 0)
(10.062 0.0891228 0)
(10.0605 0.09616 0)
(10.0574 0.104514 0)
(10.053 0.114708 0)
(10.0475 0.12723 0)
(10.0416 0.142826 0)
(10.0359 0.161896 0)
(10.0321 0.184871 0)
(10.0308 0.210681 0)
(10.0342 0.238321 0)
(10.0029 0.0145028 0)
(10.0149 0.0379751 0)
(10.0288 0.0501119 0)
(10.0402 0.0559991 0)
(10.0472 0.0610472 0)
(10.051 0.0670821 0)
(10.0531 0.0736096 0)
(10.0545 0.0802055 0)
(10.0548 0.0870839 0)
(10.0539 0.0948019 0)
(10.0517 0.103831 0)
(10.0485 0.114671 0)
(10.0444 0.127698 0)
(10.0404 0.143463 0)
(10.0367 0.162073 0)
(10.0349 0.183766 0)
(10.0352 0.207487 0)
(10.0394 0.23283 0)
(10.0082 0.0132448 0)
(10.017 0.0352247 0)
(10.0279 0.0481641 0)
(10.0376 0.0553899 0)
(10.0443 0.0610886 0)
(10.0482 0.0673388 0)
(10.0503 0.0741948 0)
(10.0516 0.0813025 0)
(10.0521 0.0887497 0)
(10.0517 0.097 0)
(10.0502 0.106504 0)
(10.048 0.117723 0)
(10.0454 0.130931 0)
(10.0429 0.146523 0)
(10.041 0.164444 0)
(10.0408 0.184806 0)
(10.0425 0.206707 0)
(10.0474 0.229901 0)
(10.0017 0.0103836 0)
(10.0083 0.0302789 0)
(10.0175 0.043605 0)
(10.0266 0.0519413 0)
(10.0336 0.0583339 0)
(10.0382 0.0648956 0)
(10.0411 0.0720639 0)
(10.043 0.0796496 0)
(10.0443 0.0876354 0)
(10.0447 0.0963924 0)
(10.0444 0.106321 0)
(10.0436 0.117843 0)
(10.0425 0.131139 0)
(10.0418 0.146495 0)
(10.0418 0.16374 0)
(10.0434 0.182954 0)
(10.0465 0.203289 0)
(10.0524 0.224691 0)
(9.99363 0.0104374 0)
(9.99925 0.0279059 0)
(10.0065 0.041159 0)
(10.014 0.0501771 0)
(10.0205 0.0571555 0)
(10.0251 0.0639877 0)
(10.0282 0.0713648 0)
(10.0305 0.0792765 0)
(10.0321 0.087686 0)
(10.0332 0.0968433 0)
(10.0339 0.107057 0)
(10.0342 0.118698 0)
(10.0344 0.131881 0)
(10.0351 0.146821 0)
(10.0365 0.163272 0)
(10.0394 0.18131 0)
(10.0436 0.200142 0)
(10.0503 0.219857 0)
(9.99659 0.00784634 0)
(10.0015 0.0243917 0)
(10.0073 0.0373349 0)
(10.0139 0.0468927 0)
(10.0199 0.0545382 0)
(10.0246 0.0618111 0)
(10.0279 0.0694617 0)
(10.0304 0.0776462 0)
(10.0324 0.0863753 0)
(10.034 0.0958386 0)
(10.0353 0.106256 0)
(10.0365 0.117936 0)
(10.0378 0.130934 0)
(10.0396 0.145413 0)
(10.0422 0.161079 0)
(10.0461 0.178013 0)
(10.0513 0.195462 0)
(10.0583 0.213658 0)
(9.99975 0.00775434 0)
(10.0036 0.0229873 0)
(10.0083 0.0351496 0)
(10.014 0.0447448 0)
(10.0198 0.0527651 0)
(10.0247 0.0603254 0)
(10.0285 0.0681402 0)
(10.0316 0.0764812 0)
(10.0342 0.0854037 0)
(10.0366 0.0950378 0)
(10.0389 0.105524 0)
(10.0412 0.117096 0)
(10.0436 0.129774 0)
(10.0467 0.143684 0)
(10.0505 0.158536 0)
(10.0555 0.174413 0)
(10.0616 0.190623 0)
(10.0693 0.207473 0)
(10.0016 0.00684474 0)
(10.0047 0.020987 0)
(10.0087 0.0326427 0)
(10.0137 0.0423303 0)
(10.0191 0.050689 0)
(10.024 0.0585181 0)
(10.0281 0.0664669 0)
(10.0315 0.0748928 0)
(10.0346 0.0838899 0)
(10.0377 0.0935737 0)
(10.0407 0.104021 0)
(10.044 0.115416 0)
(10.0475 0.127735 0)
(10.0516 0.14109 0)
(10.0564 0.155166 0)
(10.0623 0.17008 0)
(10.069 0.185148 0)
(10.0773 0.200784 0)
(10 0.00591504 0)
(10.0019 0.0185681 0)
(10.005 0.0296326 0)
(10.0094 0.039214 0)
(10.0144 0.0476918 0)
(10.0192 0.055682 0)
(10.0236 0.0637471 0)
(10.0275 0.0722297 0)
(10.0313 0.081245 0)
(10.0351 0.0908818 0)
(10.039 0.101176 0)
(10.0432 0.112262 0)
(10.0477 0.12407 0)
(10.0529 0.136705 0)
(10.0587 0.149853 0)
(10.0655 0.163666 0)
(10.073 0.177482 0)
(10.0818 0.191778 0)
(10.0028 0.00720931 0)
(10.0051 0.0173954 0)
(10.0078 0.0274488 0)
(10.0117 0.0366734 0)
(10.0166 0.0450538 0)
(10.0216 0.0530244 0)
(10.0265 0.0610175 0)
(10.0311 0.0693432 0)
(10.0357 0.0781294 0)
(10.0403 0.0874847 0)
(10.0452 0.0974067 0)
(10.0505 0.107983 0)
(10.0562 0.119106 0)
(10.0624 0.130865 0)
(10.0693 0.142945 0)
(10.077 0.155532 0)
(10.0853 0.167989 0)
(10.0946 0.180857 0)
(9.99742 0.00469227 0)
(10.0002 0.0142962 0)
(10.0032 0.0235726 0)
(10.0069 0.0322682 0)
(10.0115 0.0403696 0)
(10.0165 0.0481686 0)
(10.0218 0.0559931 0)
(10.027 0.0641042 0)
(10.0323 0.0726025 0)
(10.0378 0.0815627 0)
(10.0436 0.0909552 0)
(10.0498 0.100847 0)
(10.0564 0.111115 0)
(10.0636 0.121844 0)
(10.0713 0.132726 0)
(10.0798 0.143968 0)
(10.0887 0.154972 0)
(10.0985 0.166318 0)
(10.0007 0.00458053 0)
(10.0032 0.0131885 0)
(10.0059 0.0210548 0)
(10.0094 0.0285326 0)
(10.0141 0.0358195 0)
(10.0196 0.0430751 0)
(10.0254 0.050426 0)
(10.0314 0.0580064 0)
(10.0375 0.0658784 0)
(10.044 0.0741055 0)
(10.0508 0.0826475 0)
(10.058 0.0915492 0)
(10.0656 0.100678 0)
(10.0738 0.110116 0)
(10.0824 0.119581 0)
(10.0916 0.129294 0)
(10.1012 0.138711 0)
(10.1115 0.14841 0)
(9.99953 0.00190924 0)
(10.001 0.00895591 0)
(10.0034 0.0155795 0)
(10.0071 0.0220433 0)
(10.0121 0.02849 0)
(10.018 0.0349966 0)
(10.0244 0.041616 0)
(10.0311 0.0484115 0)
(10.0381 0.0554075 0)
(10.0454 0.0626561 0)
(10.0532 0.0701163 0)
(10.0614 0.0778201 0)
(10.07 0.0856393 0)
(10.079 0.0936459 0)
(10.0884 0.101591 0)
(10.0983 0.109683 0)
(10.1084 0.117448 0)
(10.1191 0.125425 0)
(9.99794 0.00543791 0)
(10.0001 0.00823646 0)
(10.0028 0.011895 0)
(10.0068 0.0161091 0)
(10.0123 0.0206494 0)
(10.0189 0.0254612 0)
(10.0261 0.0305396 0)
(10.0337 0.0359005 0)
(10.0416 0.0415083 0)
(10.0499 0.0473497 0)
(10.0586 0.053347 0)
(10.0676 0.0595053 0)
(10.077 0.0657071 0)
(10.0867 0.0720112 0)
(10.0967 0.0782146 0)
(10.1071 0.0844994 0)
(10.1176 0.0904806 0)
(10.1284 0.0966119 0)
(9.99963 0.00104645 0)
(10.0034 0.00298868 0)
(10.0078 0.00498856 0)
(10.0131 0.00750293 0)
(10.0195 0.0106441 0)
(10.0269 0.0143096 0)
(10.0347 0.0183231 0)
(10.0429 0.0225812 0)
(10.0515 0.0270158 0)
(10.0604 0.0316171 0)
(10.0697 0.0363307 0)
(10.0794 0.0411567 0)
(10.0893 0.0459953 0)
(10.0994 0.0508884 0)
(10.1098 0.0556729 0)
(10.1204 0.0604989 0)
(10.1311 0.065064 0)
(10.1419 0.0697388 0)
(9.99997 -0.000529324 0)
(10.0024 -0.000608776 0)
(10.0063 -0.000417757 0)
(10.0119 0.000475151 0)
(10.0191 0.00217873 0)
(10.0271 0.00453277 0)
(10.0354 0.00731293 0)
(10.044 0.0103827 0)
(10.053 0.0136661 0)
(10.0623 0.0171552 0)
(10.072 0.020792 0)
(10.082 0.0245569 0)
(10.0921 0.0283475 0)
(10.1025 0.0321851 0)
(10.1131 0.0359312 0)
(10.1238 0.0397043 0)
(10.1346 0.0432597 0)
(10.1455 0.0468939 0)
(9.99581 0.00083956 0)
(9.99974 -0.00349171 0)
(10.0051 -0.00528312 0)
(10.0121 -0.00539484 0)
(10.0203 -0.00444039 0)
(10.029 -0.00281413 0)
(10.038 -0.000782473 0)
(10.0472 0.00151476 0)
(10.0566 0.00402045 0)
(10.0664 0.00672056 0)
(10.0764 0.00955928 0)
(10.0867 0.0125112 0)
(10.0972 0.0154835 0)
(10.1078 0.0184874 0)
(10.1185 0.0214069 0)
(10.1293 0.0243367 0)
(10.1401 0.0270789 0)
(10.151 0.0298756 0)
(9.99446 -0.0033003 0)
(10.0006 -0.00915258 0)
(10.0079 -0.0128397 0)
(10.0161 -0.0142528 0)
(10.025 -0.0140648 0)
(10.0341 -0.0130964 0)
(10.0434 -0.0118239 0)
(10.0527 -0.0103502 0)
(10.0624 -0.00864646 0)
(10.0724 -0.00670071 0)
(10.0826 -0.00458577 0)
(10.0931 -0.00235866 0)
(10.1037 -0.000104362 0)
(10.1143 0.00218463 0)
(10.1251 0.004422 0)
(10.1359 0.00667842 0)
(10.1468 0.00879631 0)
(10.1576 0.0109554 0)
(9.99999 -0.0053994 0)
(10.0061 -0.0118664 0)
(10.0146 -0.0163869 0)
(10.0245 -0.0181316 0)
(10.0345 -0.0180377 0)
(10.0442 -0.0173482 0)
(10.0536 -0.0165867 0)
(10.0633 -0.0156956 0)
(10.0733 -0.0145398 0)
(10.0836 -0.013111 0)
(10.0942 -0.0115158 0)
(10.1048 -0.00983069 0)
(10.1155 -0.00813362 0)
(10.1263 -0.00641544 0)
(10.1371 -0.00474316 0)
(10.1479 -0.00306043 0)
(10.1588 -0.00149375 0)
(10.1696 9.59398e-05 0)
(9.99876 -0.00800699 0)
(10.006 -0.0199303 0)
(10.0162 -0.0261689 0)
(10.0274 -0.0280183 0)
(10.0379 -0.0281225 0)
(10.0476 -0.0280388 0)
(10.057 -0.0279811 0)
(10.0668 -0.0276646 0)
(10.077 -0.0269655 0)
(10.0874 -0.0259682 0)
(10.098 -0.0248206 0)
(10.1087 -0.023604 0)
(10.1194 -0.0223735 0)
(10.1302 -0.0211188 0)
(10.1411 -0.0198902 0)
(10.1519 -0.0186553 0)
(10.1628 -0.0175066 0)
(10.1736 -0.0163442 0)
(9.99979 -0.00872934 0)
(10.0103 -0.022023 0)
(10.024 -0.0271456 0)
(10.0373 -0.0279287 0)
(10.0484 -0.0280219 0)
(10.0582 -0.028542 0)
(10.0678 -0.0290672 0)
(10.0779 -0.0291611 0)
(10.0884 -0.0288214 0)
(10.099 -0.0282345 0)
(10.1097 -0.027552 0)
(10.1205 -0.026822 0)
(10.1312 -0.0260671 0)
(10.1421 -0.0252781 0)
(10.1529 -0.0244976 0)
(10.1638 -0.0237011 0)
(10.1747 -0.0229644 0)
(10.1855 -0.0222095 0)
(10.0011 -0.0165482 0)
(10.0148 -0.0356083 0)
(10.0309 -0.0404217 0)
(10.0447 -0.0402058 0)
(10.0555 -0.0403126 0)
(10.065 -0.0411837 0)
(10.0748 -0.0418543 0)
(10.0851 -0.041953 0)
(10.0959 -0.0416588 0)
(10.1068 -0.0412099 0)
(10.1176 -0.0407166 0)
(10.1286 -0.0401962 0)
(10.1395 -0.0396569 0)
(10.1505 -0.0391021 0)
(10.1616 -0.038564 0)
(10.1726 -0.0380348 0)
(10.1836 -0.0375588 0)
(10.1945 -0.0370844 0)
(9.99632 -0.0151078 0)
(10.0182 -0.0316922 0)
(10.0404 -0.0345159 0)
(10.0567 -0.0345274 0)
(10.0686 -0.0358052 0)
(10.0794 -0.0375194 0)
(10.0908 -0.0386761 0)
(10.1028 -0.0392393 0)
(10.1149 -0.0395001 0)
(10.127 -0.0396546 0)
(10.139 -0.0397338 0)
(10.151 -0.0397509 0)
(10.1629 -0.0396909 0)
(10.1747 -0.0395994 0)
(10.1865 -0.0394689 0)
(10.1981 -0.0393604 0)
(10.2096 -0.0392572 0)
(10.2208 -0.0392083 0)
(10.0123 -0.0358707 0)
(10.0535 -0.0539444 0)
(10.0874 -0.0521984 0)
(10.1092 -0.0510822 0)
(10.1233 -0.0522145 0)
(10.1339 -0.0534136 0)
(10.1426 -0.0539775 0)
(10.1495 -0.0541522 0)
(10.1546 -0.054191 0)
(10.158 -0.0541971 0)
(10.16 -0.054151 0)
(10.1609 -0.0540761 0)
(10.1608 -0.0539365 0)
(10.1601 -0.0537978 0)
(10.1585 -0.053605 0)
(10.1568 -0.0534604 0)
(10.154 -0.0532962 0)
(10.1516 -0.0532632 0)
(9.9143 -0.0308557 0)
(9.75663 -0.0468478 0)
(9.59396 -0.0460067 0)
(9.42685 -0.0449628 0)
(9.2626 -0.0449803 0)
(9.10529 -0.0448416 0)
(8.95579 -0.0442982 0)
(8.81371 -0.0435566 0)
(8.67844 -0.0427659 0)
(8.54969 -0.0419804 0)
(8.42705 -0.0411955 0)
(8.31058 -0.0404251 0)
(8.19966 -0.0396534 0)
(8.09466 -0.0389163 0)
(7.99433 -0.0381837 0)
(7.89986 -0.0375156 0)
(7.80869 -0.0368636 0)
(7.72397 -0.0363393 0)
(-0.189849 0.384091 -2.43801e-22)
(-0.42265 0.16719 2.6489e-22)
(-0.502015 -0.0183603 0)
(-0.425972 -0.190292 0)
(-0.210023 -0.322487 0)
(0.0965991 -0.400477 -2.78884e-22)
(0.459429 -0.435451 0)
(0.840026 -0.426532 0)
(1.2101 -0.38946 0)
(1.54825 -0.339925 0)
(1.84425 -0.28369 4.30176e-22)
(2.092 -0.227525 0)
(2.29255 -0.175415 0)
(2.44959 -0.124971 0)
(2.56336 -0.0842675 0)
(2.63598 -0.0509223 7.50901e-22)
(2.66375 -0.0211581 0)
(2.64808 0.0140871 0)
(2.58747 0.0630928 0)
(2.48183 0.113761 0)
(2.33698 0.146093 0)
(2.16808 0.162889 0)
(1.96333 0.175728 0)
(1.73515 0.173812 7.15418e-22)
(1.4893 0.172997 -6.9567e-22)
(1.23493 0.182394 6.80078e-22)
(0.962271 0.19268 6.71889e-22)
(0.68303 0.180964 0)
(0.409761 0.144153 0)
(0.148885 0.116052 -7.05925e-22)
(-0.0930424 0.115955 -7.33613e-22)
(-0.322445 0.132848 0)
(-0.545001 0.143582 0)
(-0.7582 0.139939 -8.63544e-22)
(-0.958393 0.132096 0)
(-1.14448 0.115706 0)
(-1.31028 0.0791976 1.02066e-21)
(-1.45898 0.0561811 0)
(-1.60038 0.0711046 1.12085e-21)
(-1.75413 0.0816175 2.33772e-21)
(-1.89644 0.0757693 0)
(-2.04093 0.0799559 0)
(-2.19113 0.0963662 0)
(-2.34726 0.0869999 0)
(-2.50406 0.0747448 0)
(-2.66454 0.0801313 2.88746e-21)
(-2.82533 0.0829105 2.94547e-21)
(-2.98041 0.072518 2.99129e-21)
(-3.11304 0.0711011 0)
(-3.23505 0.0673262 -3.05254e-21)
(-3.339 0.0510822 0)
(-3.42309 0.0428863 3.10524e-21)
(-3.49851 0.038285 3.12765e-21)
(-3.56444 0.0285755 0)
(-3.62091 0.0266678 0)
(-3.68017 0.0254024 0)
(-3.73341 0.0240173 3.0953e-21)
(-3.79447 0.0286921 0)
(-3.86466 0.0295639 0)
(-3.92725 0.0180463 0)
(-3.98136 0.00626213 0)
(-4.03789 0.00773367 0)
(-4.10352 0.000600287 0)
(-4.17968 0.0180496 0)
(-4.27353 0.0471615 0)
(-4.36868 0.0449506 -2.74345e-21)
(-4.4545 0.033531 0)
(-4.52555 0.0319193 0)
(-4.60193 0.0144849 2.77185e-21)
(-4.67063 -0.00214085 2.7855e-21)
(-4.74642 0.00593214 0)
(-4.83283 0.0172006 -2.79847e-21)
(-4.92963 0.0325342 2.80387e-21)
(-5.03933 0.0379611 0)
(-5.14705 0.055146 -2.82446e-21)
(-5.27338 0.074705 0)
(-5.38844 0.0633969 0)
(-5.47506 0.0484171 2.83472e-21)
(-5.53947 0.0359773 0)
(-5.57903 0.0202891 -2.81685e-21)
(-5.58756 0.00231525 0)
(-5.57226 -0.0129159 2.74561e-21)
(-5.5442 -0.0188262 2.68808e-21)
(-5.50832 -0.0185843 2.6134e-21)
(-5.46614 -0.0189401 5.04253e-21)
(-5.41343 -0.0258524 -4.82833e-21)
(-5.34617 -0.0345518 0)
(-5.26818 -0.0424013 0)
(-5.17471 -0.0499518 0)
(-5.08282 -0.0521883 -3.69963e-21)
(-4.99094 -0.0405649 -3.35947e-21)
(-4.90935 -0.0353336 3.0079e-21)
(-4.81834 -0.0399999 0)
(-4.72012 -0.0425851 -2.3094e-21)
(-4.61466 -0.0445281 -1.96567e-21)
(-4.50249 -0.047783 -1.62869e-21)
(-4.38217 -0.0535479 0)
(-4.25171 -0.0630183 0)
(-4.10047 -0.0722252 0)
(-3.94536 -0.0775336 -3.24855e-22)
(-3.79647 -0.0647324 0)
(-3.66615 -0.060486 0)
(-3.5237 -0.0678159 -5.88672e-22)
(-3.38657 -0.0561869 0)
(-3.27222 -0.0456015 0)
(-3.15705 -0.043646 -1.30093e-21)
(-3.04303 -0.0416978 0)
(-2.93049 -0.0397816 0)
(-2.82098 -0.0378929 1.86353e-21)
(-2.71001 -0.0433244 2.03001e-21)
(-2.59815 -0.0398842 0)
(-2.5005 -0.0367196 -2.33377e-21)
(-2.39527 -0.0391253 0)
(-2.28561 -0.0394134 2.59124e-21)
(-2.17233 -0.0397269 0)
(-2.05416 -0.0417004 2.8442e-21)
(-1.92809 -0.04532 2.98176e-21)
(-1.79297 -0.0486275 0)
(-1.64935 -0.0515797 0)
(-1.49745 -0.0542241 0)
(-1.33889 -0.056285 0)
(-1.17516 -0.0579887 0)
(-1.00566 -0.0600852 0)
(-0.829819 -0.0623344 0)
(-0.648827 -0.0634591 4.29838e-21)
(-0.466898 -0.062459 -4.42888e-21)
(-0.287631 -0.0595146 0)
(-0.114957 -0.0563892 0)
(0.0511635 -0.0532366 0)
(0.206305 -0.0509791 0)
(0.353914 -0.046893 -9.60138e-21)
(0.480336 -0.0393054 0)
(0.594071 -0.03418 9.55615e-21)
(0.694653 -0.0284894 -9.46601e-21)
(0.774184 -0.0217948 0)
(0.836542 -0.016164 0)
(0.886953 -0.0128863 0)
(0.933673 -0.0120268 8.86116e-21)
(0.980506 -0.0120798 8.66997e-21)
(1.03135 -0.0133719 0)
(1.09205 -0.0162808 8.30585e-21)
(1.16552 -0.0198213 8.16299e-21)
(1.25043 -0.0225868 -8.05874e-21)
(1.34241 -0.0238074 0)
(1.43669 -0.0235184 0)
(1.52949 -0.0223947 -7.92721e-21)
(1.61927 -0.0209314 0)
(1.70447 -0.019158 0)
(1.78332 -0.0169489 0)
(1.85516 -0.0148245 0)
(1.92302 -0.0134701 7.82435e-21)
(1.98861 -0.0122986 7.78748e-21)
(2.04882 -0.0104312 0)
(2.10046 -0.00805103 7.70931e-21)
(2.14078 -0.0055069 0)
(2.16884 -0.00324462 0)
(2.18545 -0.00146196 7.54107e-21)
(2.18981 -0.00036799 0)
(2.18474 0.00338193 7.34785e-21)
(2.1565 0.010999 0)
(2.10212 0.0184976 0)
(2.02289 0.0222832 6.93177e-21)
(1.9331 0.0198521 0)
(1.85151 0.0128502 6.61701e-21)
(1.78985 0.00399427 0)
(1.75631 -0.00250163 0)
(1.7434 -0.00319623 0)
(1.74201 -0.00242216 -6.3499e-21)
(1.74884 -0.00388153 0)
(1.76153 -0.00529222 6.40713e-21)
(1.77902 -0.00619951 0)
(1.79914 -0.00688312 0)
(1.82086 -0.00647549 0)
(1.83159 -0.00566709 0)
(1.83481 -0.00261078 0)
(1.82086 -0.00100872 0)
(1.80562 0.0104188 0)
(1.72704 0.00924521 -1.26769e-20)
(1.70065 0.0280685 0)
(1.55143 0.00575807 0)
(0.00413365 0.799454 8.2613e-22)
(0.0703557 0.437702 -8.80914e-22)
(0.197078 0.00124929 0)
(0.443629 -0.423687 7.42893e-22)
(0.753962 -0.788002 0)
(1.10887 -1.0258 2.76416e-22)
(1.46777 -1.13705 -8.80285e-22)
(1.80472 -1.14426 -9.53996e-22)
(2.10857 -1.07606 0)
(2.37193 -0.960982 -1.17636e-21)
(2.59141 -0.818547 -4.28804e-22)
(2.76724 -0.668646 0)
(2.90011 -0.532473 0)
(2.99281 -0.406483 0)
(3.03954 -0.280325 0)
(3.04648 -0.145308 -7.48641e-22)
(3.00957 -0.0101156 0)
(2.93617 0.118038 1.91998e-21)
(2.83409 0.232335 0)
(2.70551 0.326233 0)
(2.55313 0.404745 -1.85647e-21)
(2.36476 0.486401 0)
(2.14405 0.576558 1.75891e-21)
(1.90163 0.64219 -7.1121e-22)
(1.63864 0.679123 6.91253e-22)
(1.36121 0.705208 -6.75556e-22)
(1.0699 0.718708 -6.67319e-22)
(0.772228 0.728123 0)
(0.462148 0.725051 0)
(0.140858 0.697578 7.01888e-22)
(-0.179625 0.639261 -1.01685e-21)
(-0.476433 0.577671 0)
(-0.751037 0.528303 0)
(-0.9898 0.489302 8.60062e-22)
(-1.21668 0.446205 0)
(-1.42421 0.406357 0)
(-1.62957 0.379431 -1.01682e-21)
(-1.8295 0.354961 0)
(-2.01676 0.346011 1.48991e-21)
(-2.19954 0.334237 -2.32984e-21)
(-2.37187 0.319034 0)
(-2.56281 0.328851 0)
(-2.74062 0.332562 -6.02337e-21)
(-2.91768 0.343591 -6.20401e-21)
(-3.10367 0.363071 -6.36164e-21)
(-3.27666 0.359254 3.6128e-21)
(-3.42924 0.341675 -2.93818e-21)
(-3.5697 0.310346 -9.65232e-21)
(-3.68736 0.25964 6.7239e-21)
(-3.78486 0.214598 3.04577e-21)
(-3.86933 0.178242 0)
(-3.93483 0.14381 -3.09879e-21)
(-3.98997 0.120035 3.7513e-21)
(-4.04063 0.104796 0)
(-4.08827 0.100931 0)
(-4.14205 0.0994565 0)
(-4.19313 0.102191 -3.09042e-21)
(-4.24815 0.115339 0)
(-4.30569 0.115869 6.48693e-21)
(-4.38089 0.109706 0)
(-4.46482 0.113233 6.24956e-21)
(-4.56183 0.127172 0)
(-4.66206 0.158696 -6.09299e-21)
(-4.758 0.173795 0)
(-4.82661 0.157055 6.01016e-21)
(-4.88311 0.144904 -3.24863e-21)
(-4.93819 0.131774 0)
(-4.99779 0.119222 -5.99011e-21)
(-5.09067 0.135691 -2.76793e-21)
(-5.19252 0.152784 -2.78184e-21)
(-5.30912 0.158193 0)
(-5.42733 0.169885 -3.25213e-21)
(-5.53973 0.178659 -2.80058e-21)
(-5.64466 0.186954 0)
(-5.72645 0.186916 2.82096e-21)
(-5.79161 0.169319 -6.10955e-21)
(-5.83933 0.135892 0)
(-5.86792 0.0978787 -2.83138e-21)
(-5.88138 0.0568239 0)
(-5.87923 0.0154859 8.80882e-21)
(-5.8598 -0.0256457 0)
(-5.83493 -0.0499209 -8.56037e-21)
(-5.80079 -0.0635096 -2.68638e-21)
(-5.75029 -0.077736 2.91783e-21)
(-5.68623 -0.0944678 5.62962e-21)
(-5.61155 -0.113089 -5.39057e-21)
(-5.52678 -0.12879 0)
(-5.43451 -0.144458 0)
(-5.33686 -0.149483 0)
(-5.24458 -0.143103 1.15989e-20)
(-5.1346 -0.143577 3.35935e-21)
(-5.02006 -0.149282 -3.00791e-21)
(-4.89759 -0.157164 0)
(-4.77195 -0.165853 -2.77681e-21)
(-4.63807 -0.176501 1.96568e-21)
(-4.49972 -0.185012 1.62886e-21)
(-4.3565 -0.194083 0)
(-4.21218 -0.208813 0)
(-4.05954 -0.221341 0)
(-3.9267 -0.210066 3.26026e-22)
(-3.78973 -0.19771 0)
(-3.65103 -0.198884 2.33811e-22)
(-3.51432 -0.193019 1.38206e-21)
(-3.38373 -0.176449 -1.31117e-21)
(-3.24843 -0.169108 0)
(-3.10868 -0.16608 -9.19716e-22)
(-2.97142 -0.162096 0)
(-2.83728 -0.158784 -3.02594e-21)
(-2.70659 -0.157036 1.54064e-21)
(-2.58351 -0.151043 1.71897e-21)
(-2.46338 -0.141677 0)
(-2.34307 -0.140654 6.68837e-21)
(-2.216 -0.145014 -4.62679e-21)
(-2.08786 -0.149077 -2.58944e-21)
(-1.95332 -0.153367 0)
(-1.81332 -0.158892 -2.84243e-21)
(-1.66616 -0.166845 -8.68567e-21)
(-1.51146 -0.175528 0)
(-1.34842 -0.183612 -6.35508e-21)
(-1.17847 -0.190269 -6.71091e-21)
(-1.00308 -0.19539 -7.07777e-21)
(-0.822966 -0.200079 0)
(-0.637678 -0.204902 0)
(-0.448121 -0.208941 0)
(-0.256395 -0.209906 4.13405e-21)
(-0.0654095 -0.206753 4.42516e-21)
(0.122711 -0.200042 0)
(0.304759 -0.190674 9.12943e-21)
(0.477967 -0.178922 9.28606e-21)
(0.636992 -0.165659 0)
(0.782993 -0.149514 9.5926e-21)
(0.916194 -0.133005 1.89193e-20)
(1.04236 -0.116952 -9.54707e-21)
(1.15068 -0.0968267 -9.15951e-21)
(1.23867 -0.0769014 0)
(1.31065 -0.0620494 0)
(1.37276 -0.054223 0)
(1.43252 -0.0524244 -8.85203e-21)
(1.4946 -0.0549952 8.29387e-21)
(1.56516 -0.0622054 1.65783e-20)
(1.64827 -0.072742 -8.29735e-21)
(1.74343 -0.0833607 7.82186e-21)
(1.84713 -0.0911148 8.05027e-21)
(1.9561 -0.0948209 0)
(2.06745 -0.0949224 0)
(2.17899 -0.0925455 -7.63977e-21)
(2.2892 -0.0882672 0)
(2.39569 -0.0823432 0)
(2.49681 -0.0759517 1.54855e-20)
(2.59326 -0.0709022 0)
(2.68752 -0.0674753 7.57298e-21)
(2.77829 -0.0630792 -7.77849e-21)
(2.86155 -0.055921 0)
(2.93485 -0.0464443 7.47915e-21)
(2.99564 -0.0356533 0)
(3.04279 -0.0248029 0)
(3.07524 -0.0137767 -7.53277e-21)
(3.09034 -0.00256722 1.46639e-20)
(3.0885 0.010613 -7.33961e-21)
(3.06758 0.028941 0)
(3.03094 0.0471086 0)
(2.9806 0.0601067 6.63044e-21)
(2.92238 0.06228 0)
(2.86176 0.0538087 6.3177e-21)
(2.80745 0.0380975 0)
(2.76093 0.0199297 0)
(2.72195 0.00421697 0)
(2.69989 -0.00600261 6.34298e-21)
(2.68952 -0.0111368 0)
(2.68772 -0.0143202 -6.40035e-21)
(2.69199 -0.0164775 0)
(2.69962 -0.0178214 0)
(2.70722 -0.0130395 1.28238e-20)
(2.70478 -0.00622514 -1.28359e-20)
(2.69903 0.00351669 0)
(2.67901 0.00985177 0)
(2.65394 0.0279994 0)
(2.58679 0.0307159 3.75819e-20)
(2.56847 0.0602542 0)
(2.47133 0.0551989 -2.45535e-20)
(0.0996257 0.335533 1.24364e-23)
(0.340783 -0.136485 1.23821e-21)
(0.706845 -0.716558 0)
(1.11596 -1.25166 -1.5845e-21)
(1.50383 -1.62275 0)
(1.83229 -1.8066 0)
(2.09769 -1.82851 -4.03794e-22)
(2.30126 -1.72822 9.5128e-22)
(2.45563 -1.54634 1.57697e-21)
(2.56774 -1.32247 1.17475e-21)
(2.64781 -1.08221 0)
(2.70092 -0.850741 0)
(2.72066 -0.628852 -2.10278e-21)
(2.70649 -0.405555 -4.38968e-21)
(2.65998 -0.197347 4.53342e-21)
(2.58991 -0.0017044 0)
(2.49591 0.17728 4.6832e-21)
(2.38323 0.339409 -1.91896e-21)
(2.25318 0.491885 0)
(2.10118 0.62509 4.59838e-21)
(1.92417 0.763365 1.8543e-21)
(1.72421 0.894715 -4.40792e-21)
(1.51943 0.996555 -1.75538e-21)
(1.30431 1.07422 0)
(1.07422 1.13263 4.08874e-21)
(0.831156 1.18134 4.01226e-21)
(0.578858 1.21468 0)
(0.321817 1.23524 3.95576e-21)
(0.064969 1.23605 0)
(-0.187893 1.20774 4.04975e-21)
(-0.445508 1.15723 1.73921e-21)
(-0.697195 1.08333 0)
(-0.955063 0.995771 0)
(-1.2059 0.922763 0)
(-1.45583 0.859293 0)
(-1.68475 0.792346 0)
(-1.90806 0.732028 0)
(-2.11682 0.684444 5.756e-21)
(-2.31583 0.658801 -8.60926e-21)
(-2.50701 0.641403 0)
(-2.69775 0.636991 0)
(-2.89268 0.635858 0)
(-3.07511 0.638625 -9.18868e-22)
(-3.25928 0.63579 6.1977e-21)
(-3.41888 0.614894 1.36267e-20)
(-3.55905 0.577773 -1.38751e-20)
(-3.67932 0.523958 -7.47016e-21)
(-3.7838 0.459305 6.66586e-21)
(-3.87565 0.391494 8.42173e-22)
(-3.95608 0.326144 7.58915e-21)
(-4.02394 0.269006 0)
(-4.07636 0.221993 7.6211e-21)
(-4.12721 0.196421 7.50587e-22)
(-4.17988 0.186629 0)
(-4.23661 0.185797 0)
(-4.29861 0.184525 -7.49724e-21)
(-4.36044 0.184966 0)
(-4.42446 0.191217 0)
(-4.50208 0.214956 7.79928e-21)
(-4.59257 0.233587 1.4038e-20)
(-4.67962 0.242611 -6.25108e-21)
(-4.77009 0.254817 0)
(-4.84329 0.257136 6.09464e-21)
(-4.89416 0.241973 0)
(-4.93018 0.212271 7.30513e-21)
(-4.97609 0.185957 5.99075e-21)
(-5.03569 0.187904 -1.32318e-20)
(-5.12352 0.233136 -7.21275e-21)
(-5.22145 0.256389 0)
(-5.31815 0.279227 1.31891e-20)
(-5.4305 0.300613 0)
(-5.51928 0.298932 1.93159e-20)
(-5.59493 0.287949 1.33174e-20)
(-5.65183 0.269982 1.33613e-20)
(-5.68791 0.243483 -1.33795e-20)
(-5.70747 0.205206 1.94782e-20)
(-5.71639 0.157241 0)
(-5.71388 0.1043 0)
(-5.70552 0.0540621 -1.31332e-20)
(-5.68981 0.00413843 -1.89837e-20)
(-5.67108 -0.0423828 0)
(-5.64792 -0.0765167 5.82142e-21)
(-5.61063 -0.106108 0)
(-5.55723 -0.136375 -1.74565e-20)
(-5.49284 -0.165013 8.19863e-22)
(-5.4203 -0.191934 -7.86353e-22)
(-5.33691 -0.217313 1.04699e-20)
(-5.24753 -0.237243 0)
(-5.15309 -0.245427 -9.27199e-21)
(-5.04334 -0.255064 7.13713e-22)
(-4.91744 -0.266311 0)
(-4.78533 -0.277373 0)
(-4.64825 -0.287937 0)
(-4.50961 -0.299762 5.09241e-21)
(-4.36879 -0.312368 0)
(-4.22883 -0.321865 0)
(-4.08819 -0.329825 0)
(-3.94896 -0.342558 0)
(-3.81828 -0.341729 0)
(-3.69577 -0.328395 1.56293e-21)
(-3.56375 -0.32015 0)
(-3.42678 -0.320686 -2.28822e-22)
(-3.29421 -0.311515 -7.90044e-22)
(-3.15659 -0.298691 1.3069e-21)
(-3.00814 -0.294511 0)
(-2.86001 -0.289095 2.21564e-21)
(-2.71662 -0.280524 0)
(-2.57928 -0.270664 3.02229e-21)
(-2.44723 -0.261623 -3.3992e-21)
(-2.32115 -0.252209 -1.03077e-20)
(-2.19235 -0.245924 0)
(-2.05859 -0.247867 -1.21584e-20)
(-1.92417 -0.252526 -3.74537e-21)
(-1.79059 -0.258203 0)
(-1.65188 -0.265422 -9.46194e-21)
(-1.5069 -0.275072 -1.00344e-20)
(-1.35409 -0.288311 1.63511e-20)
(-1.19352 -0.302689 0)
(-1.02468 -0.31558 6.35055e-21)
(-0.849923 -0.325735 6.70606e-21)
(-0.670418 -0.3336 2.06051e-20)
(-0.48663 -0.340577 0)
(-0.298842 -0.346927 0)
(-0.108949 -0.351101 0)
(0.0808596 -0.350641 7.92774e-21)
(0.268495 -0.344594 0)
(0.452126 -0.332844 0)
(0.627785 -0.315808 -9.12396e-21)
(0.792032 -0.294359 -9.28029e-21)
(0.942193 -0.270895 0)
(1.08085 -0.247363 0)
(1.21171 -0.224514 -1.89071e-20)
(1.33257 -0.197628 0)
(1.43377 -0.164353 1.86037e-20)
(1.52004 -0.133397 1.78635e-20)
(1.59487 -0.110775 0)
(1.66384 -0.0989933 0)
(1.73183 -0.0969824 -1.67727e-20)
(1.80314 -0.102832 -5.61458e-22)
(1.88273 -0.115807 -5.51434e-22)
(1.97203 -0.132417 0)
(2.06913 -0.147807 -3.14249e-20)
(2.17155 -0.158594 0)
(2.27757 -0.163929 0)
(2.38583 -0.164573 0)
(2.49517 -0.161751 1.55476e-20)
(2.60441 -0.155886 0)
(2.71172 -0.147348 -3.01672e-20)
(2.81611 -0.138288 -1.54755e-20)
(2.91809 -0.130868 0)
(3.01777 -0.124528 -1.53785e-20)
(3.11225 -0.115685 0)
(3.19962 -0.103001 0)
(3.279 -0.0872497 -4.48067e-20)
(3.34839 -0.0695331 2.94664e-20)
(3.40612 -0.0511073 0)
(3.45102 -0.0316982 2.89699e-20)
(3.48022 -0.0104272 -1.46535e-20)
(3.49104 0.0133359 0)
(3.4817 0.0398965 0)
(3.45691 0.0639218 0)
(3.42604 0.0794267 -3.97994e-20)
(3.39799 0.0825595 0)
(3.36894 0.074198 -1.29175e-20)
(3.34251 0.0577442 0)
(3.31721 0.041159 0)
(3.29005 0.0270213 0)
(3.26279 0.0124273 0)
(3.23567 -0.000243749 0)
(3.21362 -0.0097853 0)
(3.20125 -0.0152366 -2.47181e-20)
(3.19097 -0.0170549 0)
(3.17829 -0.0116348 -1.28157e-20)
(3.15794 -0.00446944 3.78673e-20)
(3.14058 0.0071633 0)
(3.1163 0.0219453 0)
(3.08567 0.0491427 -2.45614e-20)
(3.02046 0.0585237 -2.49024e-20)
(2.99135 0.082477 2.40872e-20)
(2.89879 0.0955116 2.45389e-20)
(0.0913126 -0.190414 -1.93278e-21)
(0.482032 -0.958741 -2.07155e-21)
(0.961287 -1.6638 -1.73466e-21)
(1.36978 -2.11728 -1.27228e-21)
(1.66728 -2.29732 0)
(1.86072 -2.27679 2.97342e-21)
(1.97504 -2.11351 -2.10849e-21)
(2.03662 -1.86941 0)
(2.0694 -1.59249 -1.57798e-21)
(2.08194 -1.3103 0)
(2.0814 -1.03738 4.76323e-21)
(2.06327 -0.764778 0)
(2.02389 -0.498341 2.10436e-21)
(1.96975 -0.25119 4.39305e-21)
(1.89555 -0.0179098 -4.53688e-21)
(1.80492 0.203258 0)
(1.69755 0.407075 -4.68636e-21)
(1.57175 0.599809 0)
(1.43394 0.774596 0)
(1.27108 0.95059 -4.60021e-21)
(1.09352 1.11222 0)
(0.91236 1.24176 -9.22712e-22)
(0.726317 1.35196 0)
(0.531188 1.44812 0)
(0.32334 1.52812 9.17686e-22)
(0.109488 1.58248 -4.00793e-21)
(-0.107497 1.61579 -4.86349e-21)
(-0.324037 1.62725 -3.94961e-21)
(-0.535923 1.61385 0)
(-0.740524 1.57684 -8.92418e-21)
(-0.949409 1.52192 0)
(-1.15868 1.46137 -5.08557e-21)
(-1.38777 1.40378 0)
(-1.61827 1.33989 0)
(-1.84808 1.26295 5.69347e-21)
(-2.0718 1.18124 0)
(-2.29509 1.10779 -6.21958e-21)
(-2.50076 1.0399 7.50791e-22)
(-2.69892 0.997395 1.2786e-20)
(-2.88445 0.965039 -1.41471e-20)
(-3.0583 0.947285 0)
(-3.22244 0.937657 0)
(-3.36854 0.919942 -8.78276e-21)
(-3.50132 0.880866 0)
(-3.61525 0.82679 -7.2662e-21)
(-3.71713 0.758273 7.38329e-21)
(-3.80936 0.683292 7.46806e-21)
(-3.89565 0.605332 0)
(-3.97379 0.523077 -7.56423e-21)
(-4.04714 0.443147 -7.59031e-21)
(-4.10821 0.364249 1.69046e-20)
(-4.16001 0.305163 -7.6243e-21)
(-4.21073 0.276413 -7.62872e-21)
(-4.26383 0.268392 0)
(-4.3215 0.270281 0)
(-4.38722 0.272051 7.50152e-21)
(-4.45261 0.280099 0)
(-4.53166 0.308211 0)
(-4.61243 0.335553 -1.42948e-20)
(-4.68737 0.345291 -1.40444e-20)
(-4.7564 0.347646 0)
(-4.81749 0.343319 0)
(-4.85737 0.319287 0)
(-4.88135 0.282524 0)
(-4.91878 0.267446 -1.33268e-20)
(-4.98039 0.283801 1.46762e-20)
(-5.05507 0.313995 1.32404e-20)
(-5.13374 0.351476 2.77953e-20)
(-5.2167 0.381271 0)
(-5.2929 0.3983 1.33414e-21)
(-5.35997 0.395783 0)
(-5.40812 0.372029 -1.32761e-20)
(-5.44686 0.341473 1.28372e-21)
(-5.47099 0.306352 -1.33726e-20)
(-5.48139 0.263144 1.33911e-20)
(-5.48111 0.212903 1.22526e-21)
(-5.47517 0.155832 0)
(-5.46283 0.0962388 1.44481e-20)