/*--------------------------------*- C++ -*----------------------------------*\
| =========                 |                                                 |
| \\      /  F ield         | OpenFOAM: The Open Source CFD Toolbox           |
|  \\    /   O peration     | Version:  2112                                  |
|   \\  /    A nd           | Website:  www.openfoam.com                      |
|    \\/     M anipulation  |                                                 |
\*---------------------------------------------------------------------------*/
FoamFile
{
    version     2.0;
    format      ascii;
    arch        "LSB;label=32;scalar=64";
    class       volSymmTensorField;
    location    "0.49";
    object      UPrime2Mean;
}
// * * * * * * * * * * * * * * * * * * * * * * * * * * * * * * * * * * * * * //

dimensions      [0 2 -2 0 0 0 0];

internalField   nonuniform List<symmTensor> 
12225
(
(0.0233507 0.000500858 0 0.00217931 0 0)
(0.0162811 0.000144579 0 0.000959427 0 0)
(0.0150421 4.73804e-05 0 0.000657427 0 0)
(0.01444 1.8888e-05 0 0.00051538 0 0)
(0.0151681 -1.41124e-05 0 0.0004308 0 0)
(0.0174863 -9.16991e-05 0 0.00037643 0 0)
(0.0219821 -0.000263804 0 0.000344295 0 0)
(0.0291228 -0.000512129 0 0.000321444 0 0)
(0.0412171 -0.00104423 0 0.000325193 0 0)
(0.0587046 -0.00157011 0 0.000323703 0 0)
(0.0889475 -0.00317192 0 0.000392709 0 0)
(0.130211 -0.00423444 0 0.000421935 0 0)
(0.205835 -0.00954795 0 0.000730792 0 0)
(0.30694 -0.0115186 0 0.000853738 0 0)
(0.503015 -0.0309315 0 0.00234856 0 0)
(0.780596 -0.0337574 0 0.00287046 0 0)
(1.32559 -0.11467 0 0.0125732 0 0)
(2.23706 -0.104484 0 0.0101817 0 0)
(0.0234077 0.000157575 0 0.00265811 0 0)
(0.016525 0.000370101 0 0.0012971 0 0)
(0.0150974 0.000275452 0 0.000898815 0 0)
(0.0139507 0.000205024 0 0.000746294 0 0)
(0.0134352 0.000138643 0 0.000665821 0 0)
(0.0136474 7.48868e-06 0 0.000624439 0 0)
(0.0148058 -0.000224721 0 0.000603624 0 0)
(0.0171888 -0.000672547 0 0.000629948 0 0)
(0.0214524 -0.00133305 0 0.000673214 0 0)
(0.0284801 -0.00258972 0 0.000845775 0 0)
(0.0398462 -0.0042703 0 0.00104624 0 0)
(0.0581265 -0.00771808 0 0.0016385 0 0)
(0.0865428 -0.0121296 0 0.00233919 0 0)
(0.13378 -0.0221131 0 0.0043462 0 0)
(0.205048 -0.035076 0 0.00698695 0 0)
(0.334812 -0.0666969 0 0.0143849 0 0)
(0.521248 -0.111674 0 0.0254624 0 0)
(0.907338 -0.221058 0 0.0594526 0 0)
(0.0239639 0.000384791 0 0.00318838 0 0)
(0.0164966 0.000253726 0 0.00158313 0 0)
(0.0150952 0.000162948 0 0.00103329 0 0)
(0.0139585 5.50648e-05 0 0.000858463 0 0)
(0.0132662 -8.63452e-05 0 0.000789661 0 0)
(0.0131464 -0.000284517 0 0.000772108 0 0)
(0.0138296 -0.000605523 0 0.000807035 0 0)
(0.0155016 -0.00111844 0 0.000893345 0 0)
(0.0184269 -0.00196736 0 0.0010952 0 0)
(0.023021 -0.00322467 0 0.00139699 0 0)
(0.0298685 -0.00533215 0 0.00202782 0 0)
(0.0402098 -0.00837631 0 0.00291158 0 0)
(0.0548992 -0.0137554 0 0.00487841 0 0)
(0.0772272 -0.0214741 0 0.00769901 0 0)
(0.107723 -0.0358258 0 0.0144474 0 0)
(0.154339 -0.0570818 0 0.0247665 0 0)
(0.21393 -0.096501 0 0.0495881 0 0)
(0.29991 -0.1601 0 0.0937526 0 0)
(0.0216369 0.000316908 0 0.00355176 0 0)
(0.0144619 0.000197891 0 0.00187032 0 0)
(0.0130278 4.83094e-05 0 0.00122274 0 0)
(0.0118779 -7.75847e-05 0 0.00102964 0 0)
(0.0112867 -0.00024791 0 0.000977458 0 0)
(0.0113286 -0.000523347 0 0.00100426 0 0)
(0.012095 -0.000946653 0 0.00109076 0 0)
(0.0137426 -0.00161492 0 0.00127078 0 0)
(0.016484 -0.00261568 0 0.00156989 0 0)
(0.0207939 -0.00420336 0 0.0021069 0 0)
(0.0271456 -0.00657454 0 0.00296614 0 0)
(0.0365342 -0.0103541 0 0.00446868 0 0)
(0.0495823 -0.0160129 0 0.00697571 0 0)
(0.0680327 -0.0250156 0 0.0114413 0 0)
(0.0923305 -0.0386577 0 0.0193873 0 0)
(0.124209 -0.0599743 0 0.0338266 0 0)
(0.162188 -0.0921073 0 0.0604349 0 0)
(0.202607 -0.137141 0 0.105994 0 0)
(0.0211748 0.000258936 0 0.00395604 0 0)
(0.014135 0.000265816 0 0.00219101 0 0)
(0.012696 0.000102658 0 0.00140835 0 0)
(0.0114559 -0.000111277 0 0.00117449 0 0)
(0.0108466 -0.000375603 0 0.00114318 0 0)
(0.010935 -0.000736127 0 0.00122725 0 0)
(0.0117327 -0.00127005 0 0.001415 0 0)
(0.0133433 -0.00208416 0 0.00172551 0 0)
(0.0160007 -0.00333831 0 0.00223929 0 0)
(0.0200998 -0.00521895 0 0.00304406 0 0)
(0.02614 -0.00807621 0 0.00436477 0 0)
(0.0347565 -0.0123225 0 0.00645794 0 0)
(0.0466858 -0.018754 0 0.00996491 0 0)
(0.0627072 -0.0283001 0 0.0157519 0 0)
(0.0835522 -0.0425225 0 0.0256261 0 0)
(0.109005 -0.0632953 0 0.042513 0 0)
(0.138289 -0.0921575 0 0.0703591 0 0)
(0.16667 -0.130208 0 0.117309 0 0)
(0.021839 -9.22736e-05 0 0.00443991 0 0)
(0.0144626 -2.02269e-05 0 0.00261024 0 0)
(0.0130847 -7.59294e-05 0 0.0017379 0 0)
(0.0119456 -0.000225269 0 0.00146993 0 0)
(0.0113953 -0.000496478 0 0.00145727 0 0)
(0.0114941 -0.000920233 0 0.00159857 0 0)
(0.0122314 -0.00154586 0 0.0018695 0 0)
(0.013681 -0.00247817 0 0.00231042 0 0)
(0.0160588 -0.00388307 0 0.0030132 0 0)
(0.0196918 -0.00598938 0 0.00412563 0 0)
(0.0250289 -0.0091278 0 0.00588191 0 0)
(0.0325495 -0.0137525 0 0.00865725 0 0)
(0.0428405 -0.0205446 0 0.0130994 0 0)
(0.0562909 -0.0303698 0 0.0202526 0 0)
(0.073286 -0.0444178 0 0.0318162 0 0)
(0.0932027 -0.0638719 0 0.0504725 0 0)
(0.115121 -0.0895916 0 0.0797447 0 0)
(0.135642 -0.121128 0 0.125103 0 0)
(0.0218578 2.31522e-05 0 0.00471896 0 0)
(0.0141071 4.21701e-05 0 0.00298947 0 0)
(0.0126005 -6.71961e-05 0 0.00202115 0 0)
(0.0115398 -0.000309139 0 0.00175178 0 0)
(0.0110489 -0.000655443 0 0.00178761 0 0)
(0.0111321 -0.00113369 0 0.00201017 0 0)
(0.0118248 -0.00183633 0 0.00240718 0 0)
(0.0132333 -0.00289864 0 0.00303382 0 0)
(0.0155388 -0.00449914 0 0.00400613 0 0)
(0.0189985 -0.00687006 0 0.00550932 0 0)
(0.023946 -0.010327 0 0.00781946 0 0)
(0.0307102 -0.0152968 0 0.0113837 0 0)
(0.0396685 -0.0223538 0 0.0168763 0 0)
(0.050991 -0.0322352 0 0.0254316 0 0)
(0.0647357 -0.0457365 0 0.0385743 0 0)
(0.0801902 -0.0636102 0 0.0588342 0 0)
(0.0964146 -0.0859607 0 0.0888442 0 0)
(0.11108 -0.111861 0 0.132696 0 0)
(0.0229399 0.000335845 0 0.00506123 0 0)
(0.0150613 0.000141043 0 0.00334231 0 0)
(0.0135237 1.35013e-05 0 0.00230806 0 0)
(0.0123076 -0.000208263 0 0.00202882 0 0)
(0.0115721 -0.000567393 0 0.00212178 0 0)
(0.0114141 -0.0011132 0 0.00243817 0 0)
(0.0118938 -0.00190648 0 0.00296786 0 0)
(0.0130647 -0.00305709 0 0.00379009 0 0)
(0.0150285 -0.00474044 0 0.00504607 0 0)
(0.0179482 -0.00719236 0 0.0069504 0 0)
(0.0220715 -0.010717 0 0.00981584 0 0)
(0.027639 -0.0157053 0 0.0141384 0 0)
(0.0348839 -0.0226285 0 0.0206196 0 0)
(0.0438228 -0.0320369 0 0.0303746 0 0)
(0.0543131 -0.0444255 0 0.0448003 0 0)
(0.0657034 -0.0601358 0 0.066065 0 0)
(0.0771866 -0.0788699 0 0.0961974 0 0)
(0.0872931 -0.0995536 0 0.138202 0 0)
(0.0223901 0.000157863 0 0.00562266 0 0)
(0.01452 -7.93986e-05 0 0.00374959 0 0)
(0.0130429 -0.000229784 0 0.00264113 0 0)
(0.0119827 -0.000471564 0 0.00236746 0 0)
(0.0113672 -0.000848656 0 0.00249429 0 0)
(0.0111942 -0.00139911 0 0.00290104 0 0)
(0.0115394 -0.00220384 0 0.00359131 0 0)
(0.0124937 -0.00338905 0 0.00465613 0 0)
(0.014151 -0.0051237 0 0.0062533 0 0)
(0.0166506 -0.0076311 0 0.00862754 0 0)
(0.0201508 -0.0111788 0 0.0121184 0 0)
(0.0247656 -0.016087 0 0.0172486 0 0)
(0.0305742 -0.022713 0 0.0247132 0 0)
(0.0374721 -0.0314198 0 0.035569 0 0)
(0.045232 -0.0424481 0 0.0510361 0 0)
(0.0532753 -0.0558242 0 0.0729265 0 0)
(0.0610559 -0.0710348 0 0.102708 0 0)
(0.0676536 -0.0869926 0 0.142571 0 0)
(0.022266 -2.33712e-05 0 0.00599208 0 0)
(0.0143319 -0.000112547 0 0.00427869 0 0)
(0.0129104 -0.000308619 0 0.00309409 0 0)
(0.0119147 -0.000524116 0 0.00279196 0 0)
(0.0113627 -0.000880177 0 0.00297088 0 0)
(0.0112472 -0.00148205 0 0.00348933 0 0)
(0.0116091 -0.00238374 0 0.0043523 0 0)
(0.0124924 -0.0036634 0 0.0056618 0 0)
(0.0139476 -0.005458 0 0.00759428 0 0)
(0.0160279 -0.00795538 0 0.0104154 0 0)
(0.018815 -0.0113825 0 0.01448 0 0)
(0.0223494 -0.0159859 0 0.0203138 0 0)
(0.0266399 -0.0220082 0 0.0285789 0 0)
(0.0315405 -0.0296388 0 0.0402378 0 0)
(0.0368355 -0.0389416 0 0.0563132 0 0)
(0.0420878 -0.0497326 0 0.0782843 0 0)
(0.0469735 -0.0614347 0 0.107155 0 0)
(0.051001 -0.0730528 0 0.144561 0 0)
(0.0223705 0.000110301 0 0.00647501 0 0)
(0.0143692 -0.000161943 0 0.00470772 0 0)
(0.0128875 -0.000319269 0 0.00348776 0 0)
(0.0118262 -0.000511746 0 0.00320985 0 0)
(0.0112332 -0.0008356 0 0.00345446 0 0)
(0.0110136 -0.0013755 0 0.0040836 0 0)
(0.0111572 -0.00221194 0 0.00511508 0 0)
(0.0117112 -0.00342807 0 0.00666944 0 0)
(0.0127325 -0.00513936 0 0.00893669 0 0)
(0.014262 -0.0074954 0 0.0121989 0 0)
(0.016333 -0.0106677 0 0.0168135 0 0)
(0.0189189 -0.0148214 0 0.0232898 0 0)
(0.0219768 -0.0201032 0 0.0322296 0 0)
(0.0253561 -0.0265624 0 0.0444859 0 0)
(0.0288803 -0.0341384 0 0.0608712 0 0)
(0.0322598 -0.0425244 0 0.0825799 0 0)
(0.0353709 -0.0511803 0 0.110229 0 0)
(0.0379674 -0.0592184 0 0.145096 0 0)
(0.0239036 0.000132798 0 0.00681507 0 0)
(0.0157558 -0.000249839 0 0.0051519 0 0)
(0.0140592 -0.000429174 0 0.00384854 0 0)
(0.0127358 -0.000570906 0 0.00355633 0 0)
(0.011841 -0.000851737 0 0.00385566 0 0)
(0.0113561 -0.00138735 0 0.00460515 0 0)
(0.0113009 -0.00222849 0 0.00582018 0 0)
(0.0116588 -0.00341753 0 0.00762399 0 0)
(0.0123898 -0.00503849 0 0.010213 0 0)
(0.0134721 -0.00721006 0 0.0138676 0 0)
(0.0149142 -0.0100664 0 0.018931 0 0)
(0.0166927 -0.0137141 0 0.0258847 0 0)
(0.0187604 -0.0182328 0 0.0352631 0 0)
(0.0209811 -0.0235826 0 0.0478117 0 0)
(0.0232241 -0.029644 0 0.0641589 0 0)
(0.0252882 -0.0360608 0 0.0852779 0 0)
(0.0271887 -0.0423567 0 0.111501 0 0)
(0.028782 -0.0477266 0 0.143877 0 0)
(0.0226902 0.000214796 0 0.00709597 0 0)
(0.0149676 -0.000357117 0 0.0055603 0 0)
(0.0134387 -0.000523064 0 0.00417001 0 0)
(0.0122971 -0.000665543 0 0.00387655 0 0)
(0.011794 -0.000968112 0 0.00425997 0 0)
(0.011705 -0.00151923 0 0.00513484 0 0)
(0.0118326 -0.00236542 0 0.00650782 0 0)
(0.0121219 -0.0035374 0 0.00851833 0 0)
(0.0125971 -0.00509566 0 0.0113765 0 0)
(0.0133009 -0.0071246 0 0.0153618 0 0)
(0.0142513 -0.00971152 0 0.0207956 0 0)
(0.0154202 -0.0129098 0 0.0281178 0 0)
(0.0167473 -0.0167261 0 0.0377807 0 0)
(0.0181204 -0.0210566 0 0.0504214 0 0)
(0.01945 -0.0257163 0 0.066497 0 0)
(0.0206144 -0.0303552 0 0.0868094 0 0)
(0.0216855 -0.0344969 0 0.111461 0 0)
(0.0226395 -0.0375267 0 0.141351 0 0)
(0.0230633 0.000125045 0 0.00820852 0 0)
(0.0152431 -0.000460341 0 0.00676144 0 0)
(0.0135863 -0.000535843 0 0.00512904 0 0)
(0.0124655 -0.000650044 0 0.00470813 0 0)
(0.0118824 -0.000932921 0 0.00509238 0 0)
(0.0115631 -0.00138732 0 0.00606153 0 0)
(0.0114349 -0.00204725 0 0.00760889 0 0)
(0.0115064 -0.00296914 0 0.00985735 0 0)
(0.0117771 -0.00421049 0 0.0129949 0 0)
(0.0122284 -0.0058098 0 0.0172807 0 0)
(0.0128261 -0.00779331 0 0.0230037 0 0)
(0.0135077 -0.0101443 0 0.0305536 0 0)
(0.0142197 -0.0128165 0 0.0402945 0 0)
(0.0148981 -0.0156582 0 0.0527523 0 0)
(0.015518 -0.0184708 0 0.0682161 0 0)
(0.0160955 -0.0209162 0 0.0873231 0 0)
(0.0167513 -0.0226129 0 0.109979 0 0)
(0.01761 -0.0230452 0 0.13694 0 0)
(0.0233196 2.67828e-05 0 0.00945685 0 0)
(0.0157824 -0.000630789 0 0.00783621 0 0)
(0.014286 -0.000662092 0 0.00597491 0 0)
(0.0132446 -0.000763787 0 0.00555096 0 0)
(0.0125798 -0.00101229 0 0.00600441 0 0)
(0.0120956 -0.0014236 0 0.00708968 0 0)
(0.0118172 -0.00202052 0 0.00878155 0 0)
(0.0117639 -0.00281993 0 0.0111965 0 0)
(0.0118751 -0.00383128 0 0.0145207 0 0)
(0.0120722 -0.00505002 0 0.0189961 0 0)
(0.0123046 -0.00645899 0 0.0248637 0 0)
(0.012526 -0.00800407 0 0.0324401 0 0)
(0.0127099 -0.0096041 0 0.0419847 0 0)
(0.0128383 -0.0110981 0 0.0539031 0 0)
(0.0129338 -0.0122937 0 0.0683297 0 0)
(0.0130599 -0.0129051 0 0.0857672 0 0)
(0.0133839 -0.0126296 0 0.105957 0 0)
(0.0140378 -0.0110726 0 0.129558 0 0)
(0.0224115 -0.000100069 0 0.0107812 0 0)
(0.0155265 -0.000646365 0 0.00932507 0 0)
(0.014096 -0.000817759 0 0.00706156 0 0)
(0.0128652 -0.000908291 0 0.00648285 0 0)
(0.0120325 -0.00102063 0 0.0069702 0 0)
(0.0114022 -0.00122501 0 0.00817511 0 0)
(0.0109978 -0.0015602 0 0.0100092 0 0)
(0.010824 -0.00202099 0 0.01256 0 0)
(0.0107854 -0.00257336 0 0.0159942 0 0)
(0.01078 -0.00316341 0 0.0205182 0 0)
(0.0107617 -0.00373109 0 0.0263155 0 0)
(0.0107214 -0.00419385 0 0.0336252 0 0)
(0.0106778 -0.00445597 0 0.042609 0 0)
(0.0106667 -0.00436474 0 0.053559 0 0)
(0.010736 -0.00375223 0 0.0664922 0 0)
(0.011012 -0.00239772 0 0.081791 0 0)
(0.0116349 -7.00621e-05 0 0.0991059 0 0)
(0.0128054 0.00348791 0 0.118999 0 0)
(0.0235547 8.52443e-05 0 0.0116339 0 0)
(0.0164036 -0.000613815 0 0.0108209 0 0)
(0.0144721 -0.000602259 0 0.00835741 0 0)
(0.0129189 -0.000496105 0 0.00755562 0 0)
(0.0119789 -0.000405974 0 0.0079248 0 0)
(0.0112932 -0.000375237 0 0.00909498 0 0)
(0.010786 -0.0004053 0 0.0109289 0 0)
(0.0104436 -0.00044468 0 0.0134553 0 0)
(0.0101995 -0.000420923 0 0.0167893 0 0)
(0.0099919 -0.000257424 0 0.0210884 0 0)
(0.00980483 0.000108807 0 0.0264822 0 0)
(0.00967478 0.000763835 0 0.0331328 0 0)
(0.0096522 0.00178519 0 0.0411166 0 0)
(0.00982454 0.00331257 0 0.0506231 0 0)
(0.0102567 0.00544964 0 0.0615779 0 0)
(0.0110896 0.00837484 0 0.074269 0 0)
(0.0124455 0.0121857 0 0.0883131 0 0)
(0.0144813 0.0171057 0 0.104182 0 0)
(0.0229375 -0.000214221 0 0.0121347 0 0)
(0.0166822 -0.000457412 0 0.0114909 0 0)
(0.0145925 -0.000499076 0 0.00882014 0 0)
(0.0126652 -0.00052975 0 0.0079983 0 0)
(0.0115417 -0.000445019 0 0.00843304 0 0)
(0.010738 -0.000255996 0 0.0096223 0 0)
(0.0101356 1.13389e-05 0 0.0113882 0 0)
(0.00975286 0.000375906 0 0.0137397 0 0)
(0.00954395 0.000889412 0 0.0167619 0 0)
(0.00945063 0.00162182 0 0.0205719 0 0)
(0.00946547 0.00263871 0 0.0252515 0 0)
(0.00963351 0.00402472 0 0.030897 0 0)
(0.0100187 0.00584904 0 0.0375247 0 0)
(0.0107199 0.00822544 0 0.0452401 0 0)
(0.0118012 0.0112156 0 0.0539282 0 0)
(0.0134033 0.0149522 0 0.0637893 0 0)
(0.0156013 0.019451 0 0.0744786 0 0)
(0.0185508 0.024894 0 0.0863338 0 0)
(0.0223449 9.12649e-05 0 0.0118583 0 0)
(0.0168313 2.38956e-05 0 0.0117499 0 0)
(0.0149333 -6.81497e-05 0 0.00953392 0 0)
(0.0129155 9.06665e-05 0 0.00850906 0 0)
(0.0116496 0.000407624 0 0.00855046 0 0)
(0.0107311 0.000785661 0 0.0093564 0 0)
(0.0101286 0.00123654 0 0.0107285 0 0)
(0.00987373 0.0018271 0 0.0125966 0 0)
(0.00990953 0.00264154 0 0.0149754 0 0)
(0.0101722 0.00376492 0 0.0179267 0 0)
(0.0106487 0.00525945 0 0.0214902 0 0)
(0.0113854 0.00718729 0 0.0257108 0 0)
(0.0124541 0.00958623 0 0.0305699 0 0)
(0.0139548 0.0125229 0 0.0361202 0 0)
(0.0159467 0.0160107 0 0.0422441 0 0)
(0.0185431 0.0201232 0 0.0490814 0 0)
(0.0217904 0.0248272 0 0.0563691 0 0)
(0.0257959 0.0302399 0 0.0643246 0 0)
(0.0219131 0.000587497 0 0.0122813 0 0)
(0.0158787 0.000636783 0 0.0110069 0 0)
(0.0143204 0.000377672 0 0.00813426 0 0)
(0.0127397 0.000396571 0 0.00718375 0 0)
(0.011783 0.000663776 0 0.00733304 0 0)
(0.0112014 0.00105645 0 0.00805208 0 0)
(0.0109525 0.00159461 0 0.00911162 0 0)
(0.0110413 0.00234466 0 0.0104618 0 0)
(0.0114139 0.00335323 0 0.012145 0 0)
(0.0120233 0.00465213 0 0.0142254 0 0)
(0.0128767 0.00626753 0 0.0167325 0 0)
(0.0140381 0.00824341 0 0.0196845 0 0)
(0.0155875 0.0106131 0 0.0230505 0 0)
(0.0176266 0.0134316 0 0.0268469 0 0)
(0.0202028 0.0167059 0 0.0309818 0 0)
(0.0234124 0.0204769 0 0.0355378 0 0)
(0.0272831 0.024711 0 0.0403405 0 0)
(0.031879 0.029464 0 0.0455087 0 0)
(0.0235221 0.000413655 0 0.011352 0 0)
(0.0165891 0.000489186 0 0.0101693 0 0)
(0.0149224 0.00044047 0 0.00762621 0 0)
(0.0134807 0.000554947 0 0.00657999 0 0)
(0.0124305 0.000818794 0 0.00643684 0 0)
(0.0117166 0.00119134 0 0.00680898 0 0)
(0.011416 0.0017022 0 0.00751276 0 0)
(0.0115296 0.00241323 0 0.00848183 0 0)
(0.0120011 0.00337418 0 0.00971071 0 0)
(0.0127861 0.0046185 0 0.0112143 0 0)
(0.0138934 0.00616677 0 0.0129942 0 0)
(0.015388 0.00804671 0 0.0150546 0 0)
(0.0173412 0.0102737 0 0.0173765 0 0)
(0.0198431 0.012881 0 0.019975 0 0)
(0.0229202 0.0158596 0 0.0227821 0 0)
(0.0266622 0.0192349 0 0.0258692 0 0)
(0.031076 0.0229748 0 0.0291109 0 0)
(0.0362025 0.0271077 0 0.0325722 0 0)
(0.024148 -0.000235851 0 0.0103474 0 0)
(0.0165442 2.46252e-05 0 0.00889303 0 0)
(0.0147826 0.00021347 0 0.00656537 0 0)
(0.0134686 0.000545914 0 0.0056405 0 0)
(0.0125857 0.000877116 0 0.00546708 0 0)
(0.0120643 0.00120461 0 0.00567986 0 0)
(0.0119163 0.00164287 0 0.00612794 0 0)
(0.0121153 0.0022953 0 0.00676169 0 0)
(0.0126216 0.00319905 0 0.00757839 0 0)
(0.0134342 0.00435099 0 0.00859151 0 0)
(0.0146034 0.00574548 0 0.00980432 0 0)
(0.0162128 0.00739619 0 0.0112161 0 0)
(0.0183292 0.00931909 0 0.01281 0 0)
(0.021017 0.0115466 0 0.01459 0 0)
(0.0242863 0.0140752 0 0.0165038 0 0)
(0.0282018 0.0169254 0 0.0186028 0 0)
(0.0327655 0.0200724 0 0.0208045 0 0)
(0.0379931 0.0235271 0 0.0231275 0 0)
(0.0222104 1.89781e-05 0 0.00935047 0 0)
(0.0148908 -0.000212997 0 0.00768762 0 0)
(0.0132856 -8.82338e-05 0 0.00546585 0 0)
(0.0122211 0.000250187 0 0.00453706 0 0)
(0.0116347 0.000581973 0 0.00427772 0 0)
(0.0113242 0.000909446 0 0.00436949 0 0)
(0.0112622 0.00133606 0 0.00466894 0 0)
(0.0114832 0.00194456 0 0.00511241 0 0)
(0.0120392 0.0027577 0 0.00568057 0 0)
(0.0129865 0.00376697 0 0.00637507 0 0)
(0.0143761 0.00496734 0 0.00719732 0 0)
(0.0162496 0.0063761 0 0.00814978 0 0)
(0.0186298 0.00801443 0 0.00922262 0 0)
(0.0215557 0.009912 0 0.0104174 0 0)
(0.0250269 0.0120652 0 0.011698 0 0)
(0.0291109 0.0144845 0 0.0131004 0 0)
(0.0338212 0.0171422 0 0.0145661 0 0)
(0.0391651 0.0200453 0 0.0161071 0 0)
(0.0228773 0.000380043 0 0.00837181 0 0)
(0.0151993 0.000189533 0 0.00621368 0 0)
(0.0137635 0.000146625 0 0.00434622 0 0)
(0.0128213 0.000342387 0 0.00361961 0 0)
(0.0122803 0.00060143 0 0.00339469 0 0)
(0.0119936 0.000888235 0 0.0034162 0 0)
(0.0119601 0.00124269 0 0.00357748 0 0)
(0.0122027 0.00171604 0 0.0038351 0 0)
(0.0127621 0.00233557 0 0.00417927 0 0)
(0.0136984 0.0031152 0 0.00461305 0 0)
(0.015073 0.00406864 0 0.00513673 0 0)
(0.0169413 0.00521409 0 0.00574898 0 0)
(0.0193443 0.00656367 0 0.00644123 0 0)
(0.0223246 0.00813358 0 0.0072133 0 0)
(0.0258889 0.00991333 0 0.00804065 0 0)
(0.0300928 0.0119031 0 0.00895084 0 0)
(0.0349413 0.0140759 0 0.00990808 0 0)
(0.040405 0.0164245 0 0.0109092 0 0)
(0.0236108 0.00026051 0 0.00762672 0 0)
(0.0158704 -3.95218e-05 0 0.00551101 0 0)
(0.0140518 -5.60183e-05 0 0.00371959 0 0)
(0.0127842 0.00012665 0 0.00301116 0 0)
(0.0121344 0.000347249 0 0.00278397 0 0)
(0.011925 0.000598333 0 0.00277206 0 0)
(0.0120599 0.000929919 0 0.00285655 0 0)
(0.012493 0.00137439 0 0.00299698 0 0)
(0.0132131 0.00193072 0 0.00319107 0 0)
(0.0142477 0.00259441 0 0.00344632 0 0)
(0.015651 0.00337161 0 0.00376406 0 0)
(0.0174909 0.00428331 0 0.00414152 0 0)
(0.0198341 0.00534804 0 0.00457248 0 0)
(0.0227547 0.00658364 0 0.00505604 0 0)
(0.0262835 0.00798624 0 0.00557477 0 0)
(0.0304758 0.00955771 0 0.00615191 0 0)
(0.035337 0.0112805 0 0.00676089 0 0)
(0.0408244 0.0131504 0 0.00739294 0 0)
(0.0226299 -0.000192871 0 0.00658108 0 0)
(0.0153107 2.7849e-05 0 0.00453351 0 0)
(0.0138332 6.04485e-05 0 0.00307546 0 0)
(0.0127252 0.000163558 0 0.0025332 0 0)
(0.0120201 0.000296005 0 0.00234625 0 0)
(0.0116304 0.000473588 0 0.00229729 0 0)
(0.0115953 0.000732716 0 0.00229903 0 0)
(0.0120044 0.00108636 0 0.00233262 0 0)
(0.0128944 0.00153347 0 0.00240541 0 0)
(0.0142569 0.00207442 0 0.00252512 0 0)
(0.0160727 0.00271439 0 0.00269122 0 0)
(0.0183414 0.00346321 0 0.0028986 0 0)
(0.0210896 0.00432801 0 0.00314244 0 0)
(0.0243745 0.00532084 0 0.0034219 0 0)
(0.0282224 0.00644177 0 0.00372523 0 0)
(0.0326907 0.00769332 0 0.00406946 0 0)
(0.0377876 0.00906534 0 0.00443865 0 0)
(0.0434844 0.0105542 0 0.00481811 0 0)
(0.0238882 -0.000113715 0 0.00549831 0 0)
(0.0169727 -0.000228528 0 0.00360749 0 0)
(0.015778 -0.000145935 0 0.00245365 0 0)
(0.0148219 6.06966e-05 0 0.00203164 0 0)
(0.0141501 0.000270419 0 0.00188875 0 0)
(0.0136606 0.000450921 0 0.00184179 0 0)
(0.0134386 0.000629326 0 0.00182296 0 0)
(0.0136032 0.000848043 0 0.00182196 0 0)
(0.0142209 0.00113526 0 0.00184522 0 0)
(0.0153087 0.00150335 0 0.00189664 0 0)
(0.0168709 0.00195659 0 0.00197495 0 0)
(0.0189295 0.00249991 0 0.00207747 0 0)
(0.0215185 0.00313747 0 0.00220225 0 0)
(0.0246904 0.00387826 0 0.00234928 0 0)
(0.0284457 0.00472136 0 0.0025109 0 0)
(0.0328348 0.00566669 0 0.00270073 0 0)
(0.0378473 0.00670454 0 0.00290783 0 0)
(0.0434392 0.00783361 0 0.00312003 0 0)
(0.0226755 -0.000221159 0 0.00500014 0 0)
(0.0165478 -0.000272561 0 0.00297337 0 0)
(0.0153454 -0.000215661 0 0.00196377 0 0)
(0.0142695 -0.000120437 0 0.00162332 0 0)
(0.0135406 -3.65813e-05 0 0.00148223 0 0)
(0.013151 3.64377e-05 0 0.00139774 0 0)
(0.0131586 0.00011867 0 0.00132865 0 0)
(0.0135762 0.000239275 0 0.00127388 0 0)
(0.0143855 0.000414884 0 0.00123973 0 0)
(0.0155902 0.000649511 0 0.00122828 0 0)
(0.0172254 0.000943988 0 0.00123745 0 0)
(0.0193399 0.00130294 0 0.00126455 0 0)
(0.0219803 0.00173193 0 0.00130902 0 0)
(0.0251948 0.00223898 0 0.00137113 0 0)
(0.0289852 0.00282722 0 0.00144642 0 0)
(0.0333968 0.00349677 0 0.00154517 0 0)
(0.0384365 0.00424304 0 0.00165974 0 0)
(0.0440333 0.00506378 0 0.00177769 0 0)
(0.0244497 -0.000599344 0 0.0036427 0 0)
(0.0173824 -0.000607636 0 0.0019863 0 0)
(0.0161477 -0.000494466 0 0.00136115 0 0)
(0.0153318 -0.000415777 0 0.00113898 0 0)
(0.0147962 -0.000390384 0 0.00102812 0 0)
(0.0145249 -0.000372516 0 0.000956118 0 0)
(0.0146563 -0.000323123 0 0.000898817 0 0)
(0.0152399 -0.000233321 0 0.000854439 0 0)
(0.0162553 -0.000105342 0 0.000823845 0 0)
(0.0176938 6.41169e-05 0 0.000805829 0 0)
(0.0195917 0.000283959 0 0.000798201 0 0)
(0.0220234 0.000563918 0 0.000799384 0 0)
(0.0250822 0.000910603 0 0.000809187 0 0)
(0.0288632 0.00132678 0 0.000827086 0 0)
(0.033418 0.00181323 0 0.000850676 0 0)
(0.0388438 0.00236636 0 0.00088607 0 0)
(0.0451877 0.0029847 0 0.000928087 0 0)
(0.0523899 0.0036644 0 0.000968662 0 0)
(0.0233709 -0.000662755 0 0.00270948 0 0)
(0.0166764 -0.000184806 0 0.0013577 0 0)
(0.0154239 -0.000146956 0 0.000994135 0 0)
(0.0142232 -0.000106611 0 0.00083255 0 0)
(0.0135589 -7.47063e-05 0 0.000734474 0 0)
(0.0134648 -5.81135e-05 0 0.000668172 0 0)
(0.013934 -4.63087e-05 0 0.000618836 0 0)
(0.0149689 -2.20558e-05 0 0.000580311 0 0)
(0.0166224 2.44849e-05 0 0.000549579 0 0)
(0.0189995 9.58562e-05 0 0.000524955 0 0)
(0.0222283 0.000191351 0 0.000505126 0 0)
(0.0264511 0.000310354 0 0.000489131 0 0)
(0.0318118 0.000454435 0 0.000476644 0 0)
(0.0384716 0.000627221 0 0.000466269 0 0)
(0.046554 0.000835703 0 0.000457012 0 0)
(0.0562566 0.00108237 0 0.000454145 0 0)
(0.0676437 0.00136607 0 0.000451561 0 0)
(0.0807862 0.00169212 0 0.000441721 0 0)
(0.0164979 -0.0317671 7.60873e-23 0.0704493 -1.41139e-22 2.65332e-38)
(0.138571 -0.0834185 -1.49573e-22 0.0625031 3.16313e-23 2.61531e-38)
(0.38988 -0.13727 0 0.0718503 0 0)
(0.709792 -0.150532 0 0.0705584 0 0)
(0.992601 -0.121473 0 0.070084 0 0)
(1.219 -0.0905418 -2.48922e-22 0.0791379 1.16084e-22 2.46288e-38)
(1.39456 -0.0762181 0 0.0964247 0 0)
(1.56382 -0.0958742 0 0.113598 0 0)
(1.7836 -0.14506 0 0.127999 0 0)
(2.09527 -0.203027 0 0.130322 0 0)
(2.50971 -0.253155 7.09319e-22 0.123181 9.2707e-23 2.27933e-38)
(3.019 -0.284189 0 0.112544 0 0)
(3.58503 -0.289621 0 0.0990073 0 0)
(4.15431 -0.27513 0 0.086021 0 0)
(4.69696 -0.228707 0 0.0739708 0 0)
(5.18647 -0.158514 7.27522e-22 0.070252 1.60197e-22 2.10574e-38)
(5.62447 -0.082588 0 0.0785937 0 0)
(6.01306 -0.0276877 0 0.0925312 0 0)
(6.36877 -0.0205881 0 0.0963057 0 0)
(6.71761 -0.0380416 0 0.107436 0 0)
(7.05184 -0.0266761 0 0.116269 0 0)
(7.3286 -0.00192515 0 0.137527 0 0)
(7.61972 0.00816953 0 0.164144 0 0)
(7.89565 0.0282187 -8.42713e-22 0.191632 2.04495e-22 1.84893e-38)
(8.15488 0.0306754 1.17128e-21 0.205736 -1.90713e-22 1.81842e-38)
(8.41564 -0.00769961 -1.50567e-21 0.224877 1.73646e-22 1.78822e-38)
(8.73675 -0.0750859 -1.84502e-21 0.255723 1.41281e-22 1.75833e-38)
(9.13498 -0.147147 0 0.25943 0 0)
(9.63392 -0.217509 0 0.276829 0 0)
(10.2373 -0.295996 2.81475e-21 0.280585 -9.38324e-23 1.67055e-38)
(10.9343 -0.381096 3.17163e-21 0.279881 -1.21213e-22 1.64189e-38)
(11.7497 -0.455446 0 0.279784 0 0)
(12.6588 -0.510845 0 0.279093 0 0)
(13.6536 -0.539194 4.28919e-21 0.268856 -1.20749e-22 1.55793e-38)
(14.6995 -0.555375 0 0.274268 0 0)
(15.7817 -0.567447 0 0.268819 0 0)
(16.8694 -0.605261 -5.43053e-21 0.288916 1.68555e-22 1.47716e-38)
(17.9745 -0.626246 0 0.304627 0 0)
(19.0814 -0.600284 -6.26895e-21 0.308131 1.91978e-22 1.4251e-38)
(20.1721 -0.605075 -1.34234e-20 0.3111 4.2581e-22 5.59834e-38)
(21.31 -0.627826 0 0.322645 0 0)
(22.4624 -0.641093 0 0.325348 0 0)
(23.5431 -0.584391 0 0.305751 0 0)
(24.4979 -0.568408 0 0.287567 0 0)
(25.313 -0.547766 0 0.299038 0 0)
(25.9415 -0.479732 -1.93459e-20 0.294296 4.93392e-22 5.01445e-38)
(26.4011 -0.415873 -2.02673e-20 0.27932 5.10351e-22 4.92194e-38)
(26.7454 -0.394739 -2.10797e-20 0.273084 5.7237e-22 4.83077e-38)
(27.0871 -0.35705 0 0.265987 0 0)
(27.4161 -0.351797 2.24072e-20 0.266397 -5.1298e-22 4.65241e-38)
(27.8114 -0.388875 0 0.252982 0 0)
(28.2884 -0.394041 -2.34097e-20 0.243325 5.6002e-22 4.47914e-38)
(28.7771 -0.389271 -2.38831e-20 0.244908 5.78737e-22 4.39435e-38)
(29.2532 -0.380045 0 0.223788 0 0)
(29.6569 -0.314347 0 0.197466 0 0)
(29.8377 -0.238186 0 0.192309 0 0)
(29.8709 -0.164905 -2.56704e-20 0.19143 4.35926e-22 4.06823e-38)
(29.6813 -0.105234 0 0.211599 0 0)
(29.3729 -0.0968008 0 0.20477 0 0)
(29.1114 -0.153548 0 0.204464 0 0)
(28.9835 -0.218146 0 0.215355 0 0)
(28.897 -0.248793 0 0.22648 0 0)
(28.8561 -0.32777 0 0.223683 0 0)
(28.8354 -0.296189 0 0.241608 0 0)
(28.8537 -0.241467 0 0.252229 0 0)
(29.0779 -0.329788 2.84701e-20 0.251039 -3.02927e-22 3.40505e-38)
(29.5288 -0.421949 0 0.234998 0 0)
(30.1615 -0.434982 0 0.218207 0 0)
(30.7576 -0.515039 -2.98979e-20 0.224628 4.20209e-22 3.20392e-38)
(31.3725 -0.580494 -3.04471e-20 0.231836 4.93699e-22 3.13906e-38)
(31.902 -0.534415 0 0.236306 0 0)
(32.3642 -0.498471 3.12817e-20 0.255745 -3.87141e-22 3.01245e-38)
(32.7605 -0.443859 -3.15573e-20 0.266037 2.84656e-22 2.95068e-38)
(33.0953 -0.427486 0 0.247336 0 0)
(33.3966 -0.308233 3.20872e-20 0.207306 -3.48252e-22 2.83021e-38)
(33.5082 -0.201038 0 0.201193 0 0)
(33.7208 -0.242867 0 0.181629 0 0)
(34.1214 -0.266285 -3.31848e-20 0.160303 3.9738e-22 2.65709e-38)
(34.59 -0.270999 0 0.143334 0 0)
(35.1213 -0.283673 3.40345e-20 0.122536 -4.00389e-22 2.54667e-38)
(35.7621 -0.300061 0 0.110533 0 0)
(36.4172 -0.307811 -3.45889e-20 0.107861 4.08222e-22 2.44004e-38)
(36.9651 -0.265741 -3.46357e-20 0.103761 3.62526e-22 2.38809e-38)
(37.3433 -0.185669 -3.45064e-20 0.0950583 3.10486e-22 2.33703e-38)
(37.5394 -0.116184 -6.8444e-20 0.0958932 4.93397e-22 9.14743e-38)
(37.6126 -0.0872212 6.75606e-20 0.0918441 -4.03609e-22 8.95024e-38)
(37.5847 -0.0643282 0 0.0861235 0 0)
(37.4368 -0.0410516 0 0.0837328 0 0)
(37.2077 -0.020465 0 0.0857009 0 0)
(36.7578 0.0184524 6.20441e-20 0.0948844 -2.52458e-22 8.19559e-38)
(36.1379 0.115114 6.02764e-20 0.0869359 -1.82746e-22 8.01512e-38)
(35.3467 0.141006 -5.83955e-20 0.100346 1.2571e-22 7.83783e-38)
(34.5951 0.128407 0 0.0911393 0 0)
(33.8511 0.126354 5.47733e-20 0.0873117 -1.56073e-22 7.49267e-38)
(33.1397 0.125761 5.31461e-20 0.0840707 -1.57913e-22 7.32475e-38)
(32.4411 0.117908 5.1606e-20 0.0797954 -1.70695e-22 7.15988e-38)
(31.7965 0.0999506 0 0.0736462 0 0)
(31.1919 0.0714678 0 0.0660365 0 0)
(30.6986 0.0505341 0 0.0644661 0 0)
(30.1519 0.0395336 4.64764e-20 0.0750627 -3.40345e-22 6.52986e-38)
(29.5156 0.0911192 0 0.0716749 0 0)
(28.8664 0.0485484 0 0.0894021 0 0)
(28.4235 -0.00505756 -4.25625e-20 0.0863593 3.38593e-22 6.0866e-38)
(28.0439 0.00880674 0 0.0872255 0 0)
(27.6899 -0.00744581 0 0.0934925 0 0)
(27.4609 -0.0169973 -3.94518e-20 0.0814732 3.09484e-22 5.66726e-38)
(27.2749 -0.0130216 0 0.0740697 0 0)
(27.0844 -0.00223449 0 0.068389 0 0)
(26.867 0.00388439 3.81828e-20 0.0645801 -3.152e-22 5.27119e-38)
(26.6754 -0.0137567 3.79442e-20 0.0587269 -3.04299e-22 5.1441e-38)
(26.4904 -0.00157746 0 0.0640453 0 0)
(26.3324 -0.0277498 -3.7419e-20 0.0733779 3.2105e-22 4.89692e-38)
(26.2334 -0.0296185 0 0.0639368 0 0)
(26.1374 -0.0227582 3.67962e-20 0.0589999 -3.10239e-22 4.6589e-38)
(25.9948 -0.00437061 0 0.0541844 0 0)
(25.7688 0.0178105 3.56214e-20 0.0488519 -2.0971e-22 4.42975e-38)
(25.4258 0.0478979 3.47224e-20 0.0435053 -1.67969e-22 4.31842e-38)
(24.9341 0.0816417 0 0.0398946 0 0)
(24.2897 0.115093 0 0.037537 0 0)
(23.4986 0.14379 0 0.0360644 0 0)
(22.588 0.163757 0 0.0360009 0 0)
(21.6071 0.171335 0 0.0368732 0 0)
(20.609 0.16951 0 0.0367098 0 0)
(19.6261 0.164509 0 0.0353631 0 0)
(18.6692 0.158388 2.18393e-20 0.0337948 -4.68064e-23 3.50128e-38)
(17.7458 0.150884 -2.03503e-20 0.0322889 6.22028e-23 3.40798e-38)
(16.8703 0.140989 0 0.0314741 0 0)
(16.0567 0.12656 0 0.0313366 0 0)
(15.3287 0.108966 0 0.0316669 0 0)
(14.7121 0.0830328 0 0.0317338 0 0)
(14.2651 0.0511991 -3.07767e-20 0.0354095 2.88598e-22 1.18763e-37)
(14.0593 -0.000793512 0 0.0419238 0 0)
(14.096 -0.0363866 2.95642e-20 0.0389769 -3.59005e-22 1.1223e-37)
(14.2771 -0.056537 -2.96246e-20 0.0374037 3.85513e-22 1.09064e-37)
(14.6261 -0.0818291 0 0.0392746 0 0)
(15.1237 -0.10608 0 0.0413351 0 0)
(15.7705 -0.129083 0 0.0435573 0 0)
(16.5182 -0.143755 3.19484e-20 0.0448146 -4.05038e-22 9.70397e-38)
(17.317 -0.149023 3.24511e-20 0.0450523 -3.68058e-22 9.41886e-38)
(18.0974 -0.140541 0 0.043101 0 0)
(18.7525 -0.112474 3.25515e-20 0.0387737 -2.72758e-22 8.86653e-38)
(19.1903 -0.0694808 3.1909e-20 0.034192 -2.06914e-22 8.59912e-38)
(19.3702 -0.0239444 -3.06799e-20 0.0312544 1.42917e-22 8.33743e-38)
(19.3175 0.0141669 0 0.030106 0 0)
(19.089 0.0407947 0 0.0300891 0 0)
(18.7492 0.0570146 -2.45983e-20 0.0303356 4.00265e-23 7.58584e-38)
(18.3437 0.0668556 0 0.0303552 0 0)
(17.9026 0.0718372 0 0.030435 0 0)
(17.4581 0.0713821 0 0.0309473 0 0)
(17.037 0.0670915 0 0.0310264 0 0)
(16.6266 0.0676685 1.57275e-20 0.0293347 -1.60518e-22 6.44043e-38)
(16.1895 0.0745254 1.468e-20 0.0275942 -1.82956e-22 6.22662e-38)
(15.7294 0.0797331 0 0.0271814 0 0)
(15.2725 0.080326 1.30079e-20 0.0278038 -2.23591e-22 5.81347e-38)
(14.8594 0.0748189 0 0.0292712 0 0)
(14.5336 0.06316 0 0.0311476 0 0)