/*--------------------------------*- C++ -*----------------------------------*\
| =========                 |                                                 |
| \\      /  F ield         | OpenFOAM: The Open Source CFD Toolbox           |
|  \\    /   O peration     | Version:  2112                                  |
|   \\  /    A nd           | Website:  www.openfoam.com                      |
|    \\/     M anipulation  |                                                 |
\*---------------------------------------------------------------------------*/
FoamFile
{
    version     2.0;
    format      ascii;
    arch        "LSB;label=32;scalar=64";
    class       volScalarField;
    location    "0.11";
    object      yPlus;
}
// * * * * * * * * * * * * * * * * * * * * * * * * * * * * * * * * * * * * * //

dimensions      [0 0 0 0 0 0 0];

internalField   uniform 0;

boundaryField
{
    inlet
    {
        type            calculated;
        value           uniform 0;
    }
    outlet
    {
        type            calculated;
        value           uniform 0;
    }
    upperWall
    {
        type            calculated;
        value           nonuniform List<scalar> 
223
(
14.4346
14.3339
14.2276
14.1172
14.0098
13.908
13.8114
13.7195
13.632
13.5491
13.4703
13.3958
13.3251
13.2584
13.1948
13.1351
13.0777
13.0247
12.977
12.9344
12.8917
12.8491
12.8065
12.7639
12.7214
12.6789
12.6366
12.5943
12.5522
12.5103
12.4685
12.427
12.3857
12.3444
12.3033
12.2623
12.2213
12.1805
12.1398
12.0992
12.0587
12.0183
11.9782
11.9382
11.8984
11.8588
11.8194
11.7802
11.7413
11.7027
11.6643
11.6262
11.5884
11.5509
11.5137
11.4768
11.4402
11.404
11.3681
11.3325
11.2972
11.2622
11.2275
11.1931
11.159
11.1251
11.0914
11.0579
11.0246
10.9914
10.9584
10.9254
10.8926
10.8597
10.8268
10.7939
10.7609
10.7279
10.6947
10.6614
10.6279
10.5941
10.5601
10.5258
10.4912
10.4562
10.4208
10.3849
10.3486
10.3117
10.2742
10.236
10.1972
10.1576
10.1172
10.076
10.0338
9.99054
9.94625
9.90081
9.85411
9.80603
9.75646
9.70528
9.65234
9.59749
9.54056
9.48137
9.4197
9.35531
9.28794
9.21725
9.14291
9.0645
8.98154
8.89353
8.79982
8.6995
8.59193
8.4756
8.34952
8.21177
8.06028
7.89262
7.70549
7.49345
7.25377
6.97653
6.64664
6.27522
5.80737
5.17008
4.45628
3.82155
3.39195
3.15824
3.01256
2.81289
2.48902
2.13184
1.79697
1.51156
1.26157
1.03254
0.820119
0.62127
0.428317
0.237315
0.239387
0.273605
0.275561
0.244038
0.179607
0.209889
0.31563
0.409959
0.504163
0.59898
0.69051
0.777641
0.858024
0.932398
1.00299
1.07087
1.13738
1.20643
1.2876
1.39675
1.55179
1.76581
2.0407
2.36331
2.69832
2.97551
3.11157
3.08986
2.96408
2.82089
2.79065
2.90132
2.98701
2.88764
2.58798
2.18265
1.74833
1.27606
0.611997
0.894981
1.39712
1.76545
2.07724
2.35669
2.61391
2.85211
3.06526
3.24841
3.36336
3.26945
3.25612
3.54977
3.60999
3.62644
3.6078
3.56014
3.48328
3.37535
3.23151
3.04723
2.8129
2.51942
2.13542
1.62549
0.684846
1.29803
2.04893
2.52124
3.03159
3.30404
3.76842
3.85529
4.36209
4.23546
4.88265
)
;
    }
    lowerWall
    {
        type            calculated;
        value           nonuniform List<scalar> 
250
(
12.5296
12.363
12.1916
12.0193
11.8546
11.6998
11.5544
11.4172
11.289
11.1683
11.0573
10.9515
10.8579
10.7643
10.6891
10.6043
10.5497
10.4719
1.85653
2.3353
1.45741
1.72135
1.7146
1.43905
3.62974
4.56495
5.06955
5.32061
5.39074
5.30786
5.10677
4.77351
4.30676
3.64367
2.74282
1.52837
1.83246
2.75694
3.11183
3.62123
3.38116
3.98874
2.99988
4.27396
3.92782
1.27024
2.91049
3.34577
3.67871
3.72505
3.46572
3.05903
2.97956
3.61541
4.418
5.1438
5.75702
6.26327
6.67105
6.99302
7.2368
7.40988
7.51433
7.5568
7.53143
7.4352
7.26452
7.01294
6.67022
6.22266
5.65118
4.93317
4.04186
3.02521
2.55374
3.37702
3.97664
4.36032
4.24335
3.80369
3.18208
2.89292
3.07603
3.22945
3.12415
2.55948
1.94419
3.07064
5.25799
6.58035
11.5917
12.5458
13.2616
13.9036
14.4349
14.9119
15.3298
15.707
16.0491
16.3615
16.6512
16.9197
17.1727
17.4109
17.6381
17.8547
18.0632
18.2648
18.4605
18.6513
18.838
19.0212
19.2016
19.3795
19.5554
19.7295
19.9022
20.0737
20.244
20.4135
20.5821
20.75
20.9172
21.0837
21.2497
21.4151
21.58
21.7442
21.9079
22.071
22.2335
22.3953
22.5564
22.7168
22.8763
23.035
23.1926
23.3491
23.5043
23.658
23.8101
23.9604
24.1086
24.2545
24.3978
24.5383
24.6757
24.8098
24.9406
25.0684
25.1937
25.3179
25.4388
25.556
25.6693
25.7782
25.8824
25.9816
26.0753
26.1631
26.2447
26.3196
26.3873
26.4476
26.4999
26.544
26.5795
26.6059
26.6229
26.6304
26.6281
26.6156
26.5853
26.541
26.4844
26.4124
26.3272
26.2268
26.1114
25.9809
25.8365
25.6756
25.499
25.3061
25.0972
24.8723
24.6314
24.3746
24.102
23.8146
23.5231
23.286
23.2305
23.2252
23.2166
23.2006
23.1772
23.1461
23.1074
23.0608
23.0074
22.9479
22.8799
22.7976
22.7177
22.6392
22.5609
22.4818
22.4016
22.3212
22.2385
22.1559
22.0703
21.9845
21.8934
21.8055
21.704
21.6136
21.4943
21.3954
21.246
21.1257
20.9201
20.766
20.3194
20.0164
19.7524
19.5896
19.4732
19.3366
19.1939
19.0281
18.8095
18.5628
18.2757
17.9182
17.5077
16.9115
16.2423
15.6245
14.6817
12.9033
12.2904
11.8539
11.6685
11.7494
11.7029
11.8147
11.6641
11.831
)
;
    }
    frontAndBack
    {
        type            empty;
    }
}


// ************************************************************************* //
