/*--------------------------------*- C++ -*----------------------------------*\
| =========                 |                                                 |
| \\      /  F ield         | OpenFOAM: The Open Source CFD Toolbox           |
|  \\    /   O peration     | Version:  2112                                  |
|   \\  /    A nd           | Website:  www.openfoam.com                      |
|    \\/     M anipulation  |                                                 |
\*---------------------------------------------------------------------------*/
FoamFile
{
    version     2.0;
    format      ascii;
    arch        "LSB;label=32;scalar=64";
    class       surfaceScalarField;
    location    "0.26";
    object      ddtCorrDdt0(phi);
}
// * * * * * * * * * * * * * * * * * * * * * * * * * * * * * * * * * * * * * //

dimensions      [0 3 -2 0 0 0 0];

oriented        oriented;

internalField   nonuniform List<scalar> 
24170
(
3.68957e-10
-3.68977e-10
-7.65008e-11
4.4542e-10
-7.65598e-11
1.76741e-14
3.91401e-10
-4.68e-10
-2.77389e-10
6.68753e-10
1.00839e-09
-1.28582e-09
-6.08395e-10
1.61675e-09
2.14971e-09
-2.75814e-09
-2.34712e-10
2.38439e-09
-3.53718e-09
3.30243e-09
1.52819e-08
-1.88192e-08
-1.2767e-09
1.65586e-08
-2.45931e-08
2.33164e-08
6.77771e-08
-9.23702e-08
3.04647e-08
3.73124e-08
-1.65673e-07
1.96138e-07
-8.64013e-08
-7.92717e-08
-2.43333e-07
1.56932e-07
-3.60815e-10
-8.17677e-12
1.80749e-10
-9.61718e-11
3.58534e-10
-1.77801e-10
-4.08841e-10
2.99342e-10
-1.68835e-09
1.94823e-09
-1.12165e-11
-2.96299e-09
2.4222e-09
-8.167e-10
-1.41029e-09
1.07431e-09
2.6303e-09
-1.65624e-09
7.36788e-09
-1.43519e-09
-1.8312e-08
6.86073e-09
1.40651e-09
-3.16e-09
4.79154e-08
-2.31926e-08
-7.38113e-08
2.93564e-08
-3.73148e-08
8.15825e-10
1.64664e-07
-5.84081e-09
2.12753e-08
6.41166e-08
-2.12187e-08
-2.00839e-07
1.44201e-11
-2.26061e-11
1.13752e-10
-1.9552e-10
-5.06849e-11
-1.3386e-11
3.31443e-11
2.15489e-10
1.34693e-09
6.34417e-10
7.68867e-10
-2.38495e-09
-3.15959e-10
2.68097e-10
-4.93559e-10
1.25188e-09
1.04059e-09
-3.19042e-09
8.68643e-10
-1.26328e-09
1.63912e-09
6.09022e-09
3.94686e-09
-5.46777e-09
-1.15587e-09
-1.80899e-08
6.57317e-09
2.16274e-08
-4.83174e-08
5.57063e-08
1.36597e-09
-5.55242e-08
1.70708e-07
-1.05226e-07
7.6005e-08
7.34847e-08
4.98944e-11
-7.2508e-11
3.66285e-11
-1.82266e-10
-5.92111e-11
8.24409e-11
3.65056e-10
-2.08793e-10
6.28237e-10
3.71219e-10
-5.80596e-10
-1.17614e-09
3.26559e-10
-6.39078e-10
8.35544e-10
7.42875e-10
-7.7274e-10
-1.58216e-09
9.26078e-10
-2.96212e-09
4.5844e-09
2.43188e-09
-2.5303e-09
1.6469e-09
-3.51655e-09
-1.71037e-08
7.05788e-09
1.10529e-08
1.9096e-08
4.36682e-08
6.66221e-08
-1.0305e-07
2.52362e-08
-6.38401e-08
1.36798e-07
-3.55571e-08
2.0793e-11
-9.33079e-11
-2.76307e-11
-1.33851e-10
4.00638e-11
1.47371e-11
-6.01317e-12
-1.62725e-10
5.63456e-10
-1.98261e-10
1.52002e-10
-7.64697e-10
-5.73254e-12
-4.81357e-10
7.22067e-10
1.50611e-11
1.74603e-10
-1.03471e-09
-8.66478e-11
-2.70088e-09
2.14055e-09
2.04665e-10
2.52766e-09
1.25977e-09
-5.85722e-09
-8.7188e-09
5.76623e-09
-5.70556e-10
4.52268e-08
4.2076e-09
-2.05904e-08
-3.72331e-08
-6.2101e-08
-2.23295e-08
4.10576e-08
3.36396e-08
-9.15759e-12
-8.41571e-11
-3.06041e-11
-1.12414e-10
8.7434e-11
-1.0331e-10
-2.83152e-11
-4.69846e-11
4.69375e-10
-6.95959e-10
2.66213e-10
-5.61544e-10
-5.62177e-12
-2.09531e-10
6.32422e-10
-6.22993e-10
5.9242e-10
-9.94721e-10
-1.48999e-10
-1.95948e-09
7.84163e-10
-7.2851e-10
2.77826e-09
-7.34334e-10
-1.46919e-10
-5.79363e-09
3.028e-09
-3.74549e-09
1.09406e-08
-3.70506e-09
-2.74595e-09
-2.35465e-08
-1.67746e-08
-8.30094e-09
1.14985e-08
1.27846e-08
-1.39217e-11
-7.02419e-11
-9.86576e-12
-1.16479e-10
9.54747e-11
-2.0866e-10
1.20044e-10
-7.1563e-11
3.13062e-10
-8.88985e-10
1.93544e-10
-4.42035e-10
1.82169e-10
-1.98164e-10
5.01514e-10
-9.42346e-10
6.28768e-10
-1.12198e-09
3.77601e-11
-1.36848e-09
4.31315e-10
-1.12207e-09
2.1305e-09
-2.43353e-09
1.79418e-09
-5.45732e-09
6.29982e-10
-2.5813e-09
6.07784e-10
-3.68287e-09
3.83871e-09
-2.67775e-08
1.58162e-09
-6.04387e-09
5.47286e-09
7.60723e-09
-1.02138e-11
-6.00346e-11
6.70797e-12
-1.3341e-10
8.5111e-11
-2.87073e-10
2.22003e-10
-2.08464e-10
1.89613e-10
-8.56604e-10
1.56925e-10
-4.09356e-10
3.07513e-10
-3.48761e-10
4.03576e-10
-1.03842e-09
5.17814e-10
-1.23623e-09
2.34717e-10
-1.08539e-09
4.99795e-10
-1.38716e-09
1.46785e-09
-3.4016e-09
1.30902e-09
-5.29849e-09
2.21678e-10
-1.49397e-09
1.58415e-09
-5.04536e-09
6.74936e-10
-2.58683e-08
1.40521e-09
-6.77415e-09
2.4102e-10
6.63704e-09
-5.2227e-12
-5.48181e-11
2.09826e-11
-1.59624e-10
8.07863e-11
-3.46886e-10
2.19775e-10
-3.47463e-10
1.30796e-10
-7.67635e-10
1.62181e-10
-4.40751e-10
3.2745e-10
-5.1404e-10
3.20684e-10
-1.03166e-09
3.31325e-10
-1.24688e-09
3.27271e-10
-1.08134e-09
5.69311e-10
-1.62921e-09
9.13593e-10
-3.74588e-09
4.34604e-10
-4.81951e-09
5.1221e-10
-1.57158e-09
2.36706e-09
-6.90021e-09
-2.55668e-09
-2.09445e-08
-1.74064e-09
-7.5902e-09
-5.06882e-09
3.56919e-09
-1.73351e-12
-5.30905e-11
3.3457e-11
-1.94824e-10
7.34105e-11
-3.86849e-10
1.66503e-10
-4.40566e-10
1.05069e-10
-7.06211e-10
1.76076e-10
-5.11767e-10
2.95299e-10
-6.33273e-10
2.64421e-10
-1.00079e-09
2.19904e-10
-1.20237e-09
3.27648e-10
-1.18909e-09
4.7098e-10
-1.77255e-09
2.36438e-10
-3.51135e-09
-4.165e-10
-4.16658e-09
5.08969e-10
-2.49706e-09
1.25411e-09
-7.64536e-09
-4.2289e-09
-1.54615e-08
-3.64474e-09
-8.17437e-09
-8.6228e-09
-9.07696e-11
6.50414e-12
-5.96003e-11
4.07594e-11
-2.29087e-10
6.40141e-11
-4.10112e-10
1.18732e-10
-4.95294e-10
8.90173e-11
-6.76506e-10
1.61934e-10
-5.84694e-10
2.3375e-10
-7.05099e-10
2.00824e-10
-9.67877e-10
1.68926e-10
-1.17049e-09
2.6395e-10
-1.28413e-09
2.92257e-10
-1.80087e-09
-1.98988e-10
-3.02011e-09
-8.20852e-10
-3.54472e-09
-1.74775e-10
-3.14314e-09
-1.00974e-09
-6.8104e-09
-5.2786e-09
-1.11927e-08
-4.89121e-09
-8.56176e-09
-9.94204e-09
-3.57198e-09
1.01508e-11
-6.97566e-11
3.20706e-11
-2.51015e-10
4.76603e-11
-4.2571e-10
7.53866e-11
-5.23029e-10
6.66048e-11
-6.67733e-10
1.11419e-10
-6.29517e-10
1.43023e-10
-7.36713e-10
1.18016e-10
-9.42879e-10
9.41872e-11
-1.14667e-09
1.20872e-10
-1.31082e-09
4.46429e-11
-1.72464e-09
-3.75902e-10
-2.59958e-09
-7.84193e-10
-3.13644e-09
-7.15893e-10
-3.21145e-09
-2.0095e-09
-5.5168e-09
-4.85919e-09
-8.34297e-09
-5.36819e-09
-8.05277e-09
-9.66921e-09
-5.64103e-09
1.04119e-11
-8.01748e-11
3.1053e-11
-2.71665e-10
4.76698e-11
-4.42336e-10
7.02858e-11
-5.45654e-10
6.1374e-11
-6.5883e-10
9.14528e-11
-6.59605e-10
1.03646e-10
-7.48916e-10
7.28709e-11
-9.12113e-10
2.37738e-11
-1.09758e-09
-1.85213e-11
-1.26854e-09
-1.64862e-10
-1.57831e-09
-5.90168e-10
-2.17428e-09
-1.07663e-09
-2.64999e-09
-1.40552e-09
-2.88256e-09
-2.82739e-09
-4.09495e-09
-5.37411e-09
-5.79626e-09
-6.90714e-09
-6.51975e-09
-8.01957e-09
-8.55678e-09
1.05734e-11
-9.0756e-11
2.98309e-11
-2.90933e-10
4.30299e-11
-4.55546e-10
5.91498e-11
-5.61784e-10
4.90918e-11
-6.48782e-10
5.83096e-11
-6.68833e-10
4.88908e-11
-7.39507e-10
1.17375e-13
-8.63349e-10
-9.06257e-11
-1.00685e-09
-2.15652e-10
-1.14352e-09
-4.45033e-10
-1.34894e-09
-9.02455e-10
-1.71687e-09
-1.48496e-09
-2.06749e-09
-2.07982e-09
-2.28771e-09
-3.32459e-09
-2.85019e-09
-5.37998e-09
-3.74087e-09
-7.45858e-09
-4.44117e-09
-5.33085e-09
-1.01473e-08
9.25814e-12
-1.00024e-10
2.36039e-11
-3.05291e-10
3.23317e-11
-4.64286e-10
4.03506e-11
-5.69814e-10
2.59386e-11
-6.34382e-10
1.1367e-11
-6.54272e-10
-2.34627e-11
-7.04688e-10
-1.0295e-10
-7.83873e-10
-2.427e-10
-8.67106e-10
-4.4867e-10
-9.37561e-10
-7.67171e-10
-1.03045e-09
-1.28545e-09
-1.1986e-09
-1.97564e-09
-1.37732e-09
-2.76304e-09
-1.50032e-09
-3.88948e-09
-1.72375e-09
-5.53622e-09
-2.09415e-09
-7.56985e-09
-2.40755e-09
-2.63139e-09
-1.02693e-08
5.97193e-12
-1.06007e-10
1.07959e-11
-3.10129e-10
1.0924e-11
-4.64428e-10
3.79667e-12
-5.62701e-10
-2.10889e-11
-6.09509e-10
-6.02685e-11
-6.15105e-10
-1.24884e-10
-6.40086e-10
-2.4132e-10
-6.67449e-10
-4.29462e-10
-6.78978e-10
-7.02289e-10
-6.64747e-10
-1.09559e-09
-6.37162e-10
-1.67483e-09
-6.19371e-10
-2.45652e-09
-5.9564e-10
-3.41196e-09
-5.44885e-10
-4.62131e-09
-5.14413e-10
-6.19239e-09
-5.23087e-10
-8.11098e-09
-4.88965e-10
-3.52546e-10
-1.03898e-08
4.33929e-13
-1.06454e-10
-9.13595e-12
-3.00576e-10
-2.85778e-11
-4.45003e-10
-6.19886e-11
-5.29306e-10
-1.09274e-10
-5.6224e-10
-1.67955e-10
-5.56439e-10
-2.6259e-10
-5.45466e-10
-4.19038e-10
-5.11016e-10
-6.53619e-10
-4.44413e-10
-9.81245e-10
-3.37136e-10
-1.43103e-09
-1.87392e-10
-2.05174e-09
1.32741e-12
-2.87885e-09
2.31458e-10
-3.92397e-09
5.00222e-10
-5.21896e-09
7.80557e-10
-6.79508e-09
1.05302e-09
-8.63247e-09
1.34842e-09
1.80654e-09
-1.07916e-08
-7.15891e-12
-9.93121e-11
-3.47321e-11
-2.73023e-10
-7.94728e-11
-4.00283e-10
-1.43288e-10
-4.65511e-10
-2.22159e-10
-4.83388e-10
-3.15094e-10
-4.63524e-10
-4.50977e-10
-4.09602e-10
-6.51543e-10
-3.10468e-10
-9.31539e-10
-1.64435e-10
-1.3021e-09
3.34063e-11
-1.77788e-09
2.88368e-10
-2.38351e-09
6.06943e-10
-3.1538e-09
1.00173e-09
-4.1484e-09
1.49481e-09
-5.48666e-09
2.1188e-09
-7.34178e-09
2.90813e-09
-9.91499e-09
3.92161e-09
5.3702e-09
-1.34787e-08
-1.86495e-11
-8.0685e-11
-6.59518e-11
-2.25749e-10
-1.27417e-10
-3.38846e-10
-2.33752e-10
-3.59204e-10
-3.46075e-10
-3.71092e-10
-4.76001e-10
-3.33624e-10
-6.58619e-10
-2.27011e-10
-9.04334e-10
-6.47788e-11
-1.21576e-09
1.4697e-10
-1.59815e-09
4.15773e-10
-2.07007e-09
7.60261e-10
-2.67623e-09
1.21309e-09
-3.49499e-09
1.82047e-09
-4.62677e-09
2.62656e-09
-6.18086e-09
3.67288e-09
-8.24401e-09
4.97127e-09
-1.06902e-08
6.36775e-09
7.84461e-09
-1.31646e-08
-2.66898e-11
-5.40164e-11
-7.10645e-11
-1.814e-10
-8.11252e-11
-3.28812e-10
-1.76232e-10
-2.64124e-10
-2.62709e-10
-2.84642e-10
-3.56876e-10
-2.39484e-10
-4.88465e-10
-9.54476e-11
-6.59917e-10
1.06647e-10
-8.70202e-10
3.5723e-10
-1.12928e-09
6.74831e-10
-1.47111e-09
1.10207e-09
-1.9332e-09
1.67515e-09
-2.51665e-09
2.40391e-09
-3.17011e-09
3.28e-09
-3.67777e-09
4.18052e-09
-3.91187e-09
5.20535e-09
-3.83078e-09
6.28665e-09
7.531e-09
-3.51718e-09
-4.20061e-11
-1.20302e-11
-8.89314e-11
-1.345e-10
-9.21494e-11
-3.25619e-10
-1.13759e-10
-2.42539e-10
-2.03475e-10
-1.94952e-10
-3.0664e-10
-1.36345e-10
-4.24043e-10
2.19286e-11
-5.72506e-10
2.55083e-10
-7.66089e-10
5.50788e-10
-9.90037e-10
8.98754e-10
-1.25577e-09
1.36777e-09
-1.53513e-09
1.95449e-09
-1.65182e-09
2.52058e-09
-1.5197e-09
3.14787e-09
-1.04855e-09
3.70935e-09
-2.95526e-10
4.45231e-09
4.6428e-10
5.52683e-09
6.66688e-09
1.32839e-09
-1.76976e-11
5.64994e-12
-3.93269e-11
-1.12892e-10
-1.79167e-10
-1.85802e-10
-1.44904e-10
-2.76826e-10
-1.87447e-10
-1.52434e-10
-2.75053e-10
-4.87633e-11
-3.70491e-10
1.17341e-10
-4.9068e-10
3.75247e-10
-6.30642e-10
6.90726e-10
-7.11344e-10
9.79432e-10
-6.84067e-10
1.34048e-09
-4.81939e-10
1.75234e-09
-3.80693e-11
2.07669e-09
5.832e-10
2.52658e-09
1.09814e-09
3.19439e-09
1.65626e-09
3.89418e-09
2.41837e-09
4.76471e-09
5.68627e-09
3.39896e-09
3.77079e-11
-3.20725e-11
8.13778e-11
-1.56581e-10
-6.34153e-11
-4.10288e-11
-1.96923e-10
-1.43339e-10
-2.4534e-10
-1.04038e-10
-2.65355e-10
-2.87706e-11
-2.98123e-10
1.50086e-10
-3.22585e-10
3.99687e-10
-2.83859e-10
6.51979e-10
-1.59122e-10
8.54674e-10
1.13737e-10
1.0676e-09
5.16609e-10
1.34945e-09
8.33106e-10
1.76018e-09
1.17902e-09
2.18065e-09
1.62957e-09
2.74383e-09
2.18302e-09
3.34073e-09
2.92814e-09
4.01957e-09
4.75114e-09
3.86327e-09
5.11682e-11
-8.32528e-11
-8.4391e-12
-9.69898e-11
-1.80711e-11
-3.14137e-11
-1.11186e-10
-5.02423e-11
-1.47581e-10
-6.76608e-11
-1.97675e-10
2.13049e-11
-1.7068e-10
1.23073e-10
-9.53813e-11
3.2437e-10
5.1689e-11
5.04891e-10
2.28024e-10
6.78322e-10
4.04142e-10
8.91462e-10
6.17276e-10
1.1363e-09
8.72834e-10
1.5046e-09
1.18136e-09
1.87212e-09
1.60956e-09
2.31561e-09
2.14501e-09
2.80526e-09
2.81838e-09
3.34619e-09
3.9286e-09
3.64089e-09
-1.15943e-11
-7.16692e-11
-2.65075e-11
-8.20899e-11
-2.94822e-11
-2.84528e-11
-3.66063e-11
-4.31326e-11
-5.17272e-11
-5.25546e-11
-1.54337e-10
1.239e-10
-1.00652e-10
6.93732e-11
-3.9059e-12
2.27608e-10
8.81745e-11
4.12795e-10
2.54483e-10
5.11996e-10
4.0524e-10
7.40689e-10
5.55076e-10
9.8645e-10
7.84818e-10
1.27484e-09
1.08045e-09
1.57646e-09
1.46646e-09
1.92958e-09
1.94361e-09
2.3281e-09
2.52526e-09
2.76453e-09
3.23314e-09
3.22069e-09
-8.23137e-12
-6.34466e-11
-2.8569e-11
-6.17632e-11
-9.8401e-11
4.13672e-11
-2.26731e-11
-1.18874e-10
-3.53951e-11
-3.98469e-11
-1.10526e-10
1.99015e-10
4.83589e-13
-4.16517e-11
1.04997e-11
2.17576e-10
1.20694e-11
4.11207e-10
2.27402e-10
2.96644e-10
3.61347e-10
6.06724e-10
4.91125e-10
8.56654e-10
7.02299e-10
1.06365e-09
9.78484e-10
1.30026e-09
1.3268e-09
1.58125e-09
1.74751e-09
1.90736e-09
2.25395e-09
2.25807e-09
2.64035e-09
2.84671e-09
-1.59653e-11
-4.74882e-11
-7.21034e-12
-7.05295e-11
-9.6754e-11
1.30897e-10
-2.78473e-11
-1.87798e-10
6.00965e-11
-1.27809e-10
-1.52921e-10
4.12014e-10
5.84303e-11
-2.53023e-10
1.69823e-12
2.74287e-10
-9.08823e-11
5.03764e-10
1.84117e-10
2.16206e-11
2.83684e-10
5.07132e-10
4.22994e-10
7.17322e-10
6.39452e-10
8.47174e-10
9.05111e-10
1.03458e-09
1.23199e-09
1.25435e-09
1.61295e-09
1.52638e-09
2.07815e-09
1.79283e-09
2.11357e-09
2.60488e-09
-4.85716e-11
1.07142e-12
6.01624e-11
-1.79286e-10
3.04126e-11
1.6062e-10
-2.3539e-10
7.79738e-11
-1.49195e-10
-2.14033e-10
3.96247e-10
-1.33458e-10
-7.98222e-10
9.41416e-10
-1.95493e-10
-3.28474e-10
1.06707e-09
-7.58837e-10
4.19635e-11
1.0467e-09
-1.33824e-10
6.82887e-10
3.24939e-10
2.58531e-10
6.79876e-10
4.92213e-10
9.29129e-10
7.85303e-10
1.23442e-09
9.49033e-10
1.61652e-09
1.14424e-09
2.09779e-09
1.31152e-09
1.57965e-09
2.63167e-09
-3.69778e-10
3.70827e-10
-6.17557e-11
-4.87343e-10
8.79307e-10
-7.80481e-10
1.11375e-10
8.45863e-10
-7.14526e-10
6.11828e-10
-5.09578e-10
-3.38445e-10
8.46763e-10
-4.14964e-10
1.94122e-10
3.24126e-10
-8.98661e-10
3.33904e-10
3.11489e-10
-1.63493e-10
7.41847e-10
2.5249e-10
6.61525e-10
3.3882e-10
7.84203e-10
3.69506e-10
1.16623e-09
4.03248e-10
1.59118e-09
5.24041e-10
2.1136e-09
6.21776e-10
2.68417e-09
7.40891e-10
8.65625e-10
3.39814e-09
3.70825e-10
-1.16521e-10
-8.97006e-10
-5.11462e-11
5.60677e-10
2.22228e-10
-1.9274e-10
1.31381e-10
4.65279e-10
3.01781e-10
5.54266e-10
8.93082e-10
1.26258e-09
1.66582e-09
2.18986e-09
2.81162e-09
3.5525e-09
4.41811e-09
-4.50102e-07
4.50102e-07
-1.10692e-06
6.56816e-07
-1.96619e-06
8.59269e-07
-3.16787e-06
1.20168e-06
-4.34815e-06
1.18028e-06
-5.1837e-06
8.35556e-07
-5.56049e-06
3.76785e-07
-5.59407e-06
3.35845e-08
-5.42533e-06
-1.68747e-07
-5.18416e-06
-2.41169e-07
-4.93914e-06
-2.45014e-07
-4.70974e-06
-2.29404e-07
-4.49265e-06
-2.17088e-07
-4.26048e-06
-2.32173e-07
-3.9969e-06
-2.63582e-07
-3.70477e-06
-2.92129e-07
-3.38413e-06
-3.20639e-07
-3.04715e-06
-3.3698e-07
-2.72957e-06
-3.17585e-07
-2.46534e-06
-2.64229e-07
-2.34684e-06
-1.18493e-07
-2.45533e-06
1.08481e-07
-2.87037e-06
4.15042e-07
-3.63425e-06
7.63885e-07
-4.71754e-06
1.08329e-06
-5.99839e-06
1.28085e-06
-7.27254e-06
1.27415e-06
-8.29443e-06
1.02189e-06
-8.82763e-06
5.33205e-07
-8.68517e-06
-1.42458e-07
-7.75008e-06
-9.35097e-07
-5.97579e-06
-1.77429e-06
-3.39066e-06
-2.58512e-06
-2.83154e-07
-3.10751e-06
2.61704e-06
-2.90019e-06
4.62985e-06
-2.01282e-06
5.45614e-06
-8.26286e-07
5.21491e-06
2.41228e-07
4.73357e-06
4.81342e-07
4.8184e-06
-8.48294e-08
5.27483e-06
-4.56436e-07
5.20685e-06
6.79814e-08
3.56267e-06
1.64418e-06
4.41149e-08
3.51855e-06
-4.36155e-06
4.40567e-06
-8.2612e-06
3.89965e-06
-1.05489e-05
2.28768e-06
-1.09575e-05
4.08612e-07
-9.29738e-06
-1.66012e-06
-4.06072e-06
-5.23666e-06
2.83719e-06
-6.89791e-06
2.88356e-06
-4.63744e-08
-4.34994e-07
3.31856e-06
-3.5576e-06
3.1226e-06
-1.20555e-05
8.49787e-06
-1.87128e-05
6.65733e-06
-1.64962e-05
-2.21659e-06
-1.40389e-05
-2.45727e-06
-1.21319e-05
-1.90705e-06
-9.90122e-06
-2.23067e-06
-8.18752e-06
-1.7137e-06
-6.5972e-06
-1.59033e-06
-5.31029e-06
-1.28691e-06
-4.24415e-06
-1.06613e-06
-3.38106e-06
-8.63096e-07
-2.69547e-06
-6.85587e-07
-2.14346e-06
-5.52012e-07
-1.71328e-06
-4.30174e-07
-1.36825e-06
-3.45037e-07
-1.09558e-06
-2.72668e-07
-8.79515e-07
-2.16064e-07
-7.04575e-07
-1.74941e-07
-5.65142e-07
-1.39433e-07
-4.48506e-07
-1.16636e-07
-3.52527e-07
-9.598e-08
-2.69626e-07
-8.29008e-08
-1.97983e-07
-7.16427e-08
-1.3352e-07
-6.44631e-08
-7.50283e-08
-5.84923e-08
-2.01213e-08
-5.49072e-08
3.20135e-08
-5.2135e-08
8.25561e-08
-5.05428e-08
1.32267e-07
-4.97114e-08
1.81422e-07
-4.91544e-08
2.30684e-07
-4.92627e-08
2.79921e-07
-4.92367e-08
3.2961e-07
-4.96892e-08
3.79605e-07
-4.99948e-08
4.30217e-07
-5.06129e-08
4.81318e-07
-5.11002e-08
5.33035e-07
-5.17175e-08
5.85272e-07
-5.22372e-08
6.38037e-07
-5.27645e-08
6.91165e-07
-5.31288e-08
7.44595e-07
-5.34297e-08
7.98426e-07
-5.38316e-08
8.52677e-07
-5.42518e-08
9.07402e-07
-5.47252e-08
9.62591e-07
-5.51894e-08
1.01823e-06
-5.56359e-08
1.07429e-06
-5.6061e-08
1.13067e-06
-5.6388e-08
1.18732e-06
-5.6645e-08
1.24407e-06
-5.67576e-08
1.30085e-06
-5.67811e-08
1.35778e-06
-5.69222e-08
1.4151e-06
-5.73292e-08
1.47327e-06
-5.81675e-08
1.5319e-06
-5.86283e-08
1.59003e-06
-5.81351e-08
1.65041e-06
-6.03802e-08
1.69892e-06
-4.85098e-08
1.74954e-06
-5.06217e-08
1.7995e-06
-4.9954e-08
1.84609e-06
-4.65949e-08
1.89144e-06
-4.53484e-08
1.93497e-06
-4.35367e-08
1.97705e-06
-4.20787e-08
2.0181e-06
-4.1051e-08
2.05874e-06
-4.06388e-08
2.09984e-06
-4.10978e-08
2.14214e-06
-4.22991e-08
2.18686e-06
-4.47182e-08
2.23514e-06
-4.82835e-08
2.28829e-06
-5.31516e-08
2.34758e-06
-5.92916e-08
2.41523e-06
-6.76487e-08
2.49361e-06
-7.83803e-08
2.58261e-06
-8.90021e-08
2.6828e-06
-1.0019e-07
2.7949e-06
-1.12095e-07
2.92029e-06
-1.2539e-07
3.06116e-06
-1.4087e-07
3.21653e-06
-1.55373e-07
3.39088e-06
-1.74346e-07
3.58141e-06
-1.90535e-07
3.78461e-06
-2.03202e-07
4.0033e-06
-2.18687e-07
4.23512e-06
-2.31822e-07
4.47967e-06
-2.44549e-07
4.73551e-06
-2.55836e-07
5.00117e-06
-2.65662e-07
5.27509e-06
-2.73918e-07
5.55552e-06
-2.80428e-07
5.84075e-06
-2.85231e-07
6.12894e-06
-2.88186e-07
6.41832e-06
-2.89387e-07
6.70713e-06
-2.88808e-07
6.99363e-06
-2.86494e-07
7.27615e-06
-2.82519e-07
7.55305e-06
-2.76907e-07
7.82277e-06
-2.69714e-07
8.08373e-06
-2.60962e-07
8.33438e-06
-2.50647e-07
8.57311e-06
-2.38736e-07
8.79829e-06
-2.25176e-07
9.00819e-06
-2.09902e-07
9.20102e-06
-1.92831e-07
9.37491e-06
-1.73889e-07
9.5279e-06
-1.52992e-07
9.65796e-06
-1.30058e-07
9.76297e-06
-1.05012e-07
9.84077e-06
-7.77999e-08
9.88917e-06
-4.83964e-08
9.90597e-06
-1.68012e-08
9.88898e-06
1.69837e-08
9.83604e-06
5.29438e-08
9.74509e-06
9.09494e-08
9.61441e-06
1.30681e-07
9.44175e-06
1.72653e-07
9.22483e-06
2.16927e-07
8.96209e-06
2.62741e-07
8.6524e-06
3.09686e-07
8.29569e-06
3.56709e-07
7.89293e-06
4.02762e-07
7.4452e-06
4.47725e-07
6.95007e-06
4.95135e-07
6.40424e-06
5.45827e-07
5.81042e-06
5.93821e-07
7.61016e-07
5.0494e-06
3.32204e-07
1.17898e-07
2.43764e-07
7.45256e-07
-6.10738e-07
1.71377e-06
-1.99664e-06
2.58758e-06
-3.21642e-06
2.40006e-06
-3.9141e-06
1.53324e-06
-4.13038e-06
5.9307e-07
-4.05914e-06
-3.76574e-08
-3.89494e-06
-3.32952e-07
-3.73115e-06
-4.04957e-07
-3.61893e-06
-3.57233e-07
-3.56795e-06
-2.80381e-07
-3.5664e-06
-2.1864e-07
-3.60664e-06
-1.91933e-07
-3.66673e-06
-2.03491e-07
-3.71825e-06
-2.40614e-07
-3.74018e-06
-2.98705e-07
-3.71226e-06
-3.64903e-07
-3.62028e-06
-4.09557e-07
-3.44395e-06
-4.40565e-07
-3.18005e-06
-3.82392e-07
-2.85399e-06
-2.17576e-07
-2.51817e-06
7.92222e-08
-2.2463e-06
4.92014e-07
-2.12189e-06
9.58878e-07
-2.21913e-06
1.37809e-06
-2.57259e-06
1.62761e-06
-3.15719e-06
1.60648e-06
-3.87958e-06
1.25559e-06
-4.58889e-06
5.66853e-07
-5.1192e-06
-4.04789e-07
-5.34529e-06
-1.54819e-06
-5.20332e-06
-2.7271e-06
-4.54663e-06
-3.7642e-06
-2.99916e-06
-4.44767e-06
-3.59867e-07
-4.65211e-06
2.84947e-06
-4.03563e-06
5.81122e-06
-2.72052e-06
7.79871e-06
-1.50616e-06
8.93431e-06
-1.22043e-06
9.36783e-06
-8.89954e-07
8.50385e-06
9.31961e-07
5.3391e-06
4.80893e-06
5.14869e-07
8.34278e-06
-4.77609e-06
9.69663e-06
-8.55928e-06
7.68284e-06
-1.10931e-05
4.8215e-06
-1.08131e-05
1.2865e-07
-8.36136e-06
-4.1119e-06
-8.03273e-06
-5.56529e-06
-1.27044e-05
-2.22626e-06
-1.87734e-05
6.02267e-06
-2.32517e-05
7.79687e-06
-2.1107e-05
9.77823e-07
-1.33241e-05
7.15016e-07
-7.07051e-06
4.03737e-07
-6.19664e-06
-3.09046e-06
-5.60306e-06
-3.05085e-06
-4.30786e-06
-3.20224e-06
-3.45754e-06
-3.08099e-06
-2.61138e-06
-2.55986e-06
-1.95382e-06
-2.24788e-06
-1.42767e-06
-1.81307e-06
-1.00592e-06
-1.48788e-06
-6.86365e-07
-1.18265e-06
-4.28424e-07
-9.43527e-07
-2.33486e-07
-7.46951e-07
-7.91087e-08
-5.84551e-07
3.99904e-08
-4.64136e-07
1.34253e-07
-3.66931e-07
2.08077e-07
-2.89888e-07
2.68167e-07
-2.35031e-07
3.17137e-07
-1.88402e-07
3.57892e-07
-1.57392e-07
3.93434e-07
-1.31522e-07
4.24453e-07
-1.1392e-07
4.5326e-07
-1.0045e-07
4.80231e-07
-9.14342e-08
5.06632e-07
-8.48939e-08
5.32808e-07
-8.10833e-08
5.59324e-07
-7.86511e-08
5.86564e-07
-7.77831e-08
6.14631e-07
-7.77779e-08
6.43902e-07
-7.84255e-08
6.74266e-07
-7.96271e-08
7.05994e-07
-8.09654e-08
7.38921e-07
-8.26162e-08
7.73185e-07
-8.42588e-08
8.08642e-07
-8.60696e-08
8.45343e-07
-8.7801e-08
8.83168e-07
-8.95424e-08
9.22092e-07
-9.11617e-08
9.62078e-07
-9.27506e-08
1.00312e-06
-9.417e-08
1.04515e-06
-9.54647e-08
1.08802e-06
-9.66938e-08
1.13174e-06
-9.79726e-08
1.17624e-06
-9.92332e-08
1.22147e-06
-1.00421e-07
1.26738e-06
-1.0154e-07
1.31389e-06
-1.0258e-07
1.36099e-06
-1.03483e-07
1.40858e-06
-1.04241e-07
1.45665e-06
-1.04823e-07
1.50513e-06
-1.05262e-07
1.55384e-06
-1.0563e-07
1.60234e-06
-1.05839e-07
1.65e-06
-1.05826e-07
1.6966e-06
-1.05221e-07
1.7406e-06
-1.02138e-07
1.78777e-06
-1.07553e-07
1.8373e-06
-9.80439e-08
1.88315e-06
-9.6465e-08
1.92789e-06
-9.46977e-08
1.97243e-06
-9.11381e-08
2.01549e-06
-8.84064e-08
2.05724e-06
-8.5285e-08
2.09787e-06
-8.27145e-08
2.13781e-06
-8.0987e-08
2.17753e-06
-8.03646e-08
2.21774e-06
-8.13089e-08
2.25946e-06
-8.40109e-08
2.30374e-06
-8.89986e-08
2.3518e-06
-9.63464e-08
2.40511e-06
-1.0646e-07
2.46522e-06
-1.19402e-07
2.53325e-06
-1.35686e-07
2.60995e-06
-1.55074e-07
2.6974e-06
-1.76456e-07
2.79714e-06
-1.99929e-07
2.91049e-06
-2.25451e-07
3.03827e-06
-2.53162e-07
3.18041e-06
-2.83011e-07
3.33858e-06
-3.13543e-07
3.50965e-06
-3.4542e-07
3.6951e-06
-3.75985e-07
3.89685e-06
-4.04943e-07
4.11178e-06
-4.33625e-07
4.34004e-06
-4.60081e-07
4.58003e-06
-4.8454e-07
4.8305e-06
-5.06304e-07
5.08988e-06
-5.25043e-07
5.35649e-06
-5.40524e-07
5.62858e-06
-5.52516e-07
5.90429e-06
-5.60941e-07
6.1818e-06
-5.65702e-07
6.45926e-06
-5.66843e-07
6.73485e-06
-5.644e-07
7.00682e-06
-5.58457e-07
7.27343e-06
-5.49133e-07
7.53304e-06
-5.36522e-07
7.78405e-06
-5.20718e-07
8.02486e-06
-5.01774e-07
8.2539e-06
-4.79688e-07
8.46955e-06
-4.54382e-07
8.67012e-06
-4.25756e-07
8.85389e-06
-3.93665e-07
9.019e-06
-3.57942e-07
9.16356e-06
-3.18447e-07
9.28558e-06
-2.75014e-07
9.383e-06
-2.27485e-07
9.45373e-06
-1.75736e-07
9.49561e-06
-1.19685e-07
9.50654e-06
-5.93252e-08
9.48445e-06
5.28654e-09
9.42735e-06
7.40874e-08
9.33329e-06
1.47007e-07
9.20036e-06
2.23872e-07
9.02666e-06
3.04385e-07
8.81063e-06
3.88684e-07
8.55092e-06
4.76636e-07
8.24618e-06
5.67479e-07
7.89567e-06
6.60203e-07
7.49909e-06
7.53282e-07
7.05693e-06
8.44922e-07
6.56996e-06
9.34693e-07
6.03959e-06
1.02551e-06
5.46816e-06
1.11726e-06
4.85004e-06
1.21194e-06
1.41176e-06
4.1993e-06
6.49344e-07
-5.31447e-07
6.31525e-07
7.63075e-07
-6.99057e-07
3.04435e-06
-1.71828e-06
3.6068e-06
-2.15782e-06
2.8396e-06
-2.15895e-06
1.53437e-06
-2.04495e-06
4.79071e-07
-2.00954e-06
-7.30697e-08
-2.1021e-06
-2.40392e-07
-2.28127e-06
-2.25785e-07
-2.48582e-06
-1.52682e-07
-2.69005e-06
-7.61481e-08
-2.88907e-06
-1.96257e-08
-3.09039e-06
9.38421e-09
-3.29334e-06
-5.37304e-10
-3.48342e-06
-5.05384e-08
-3.6522e-06
-1.2992e-07
-3.79013e-06
-2.26977e-07
-3.86842e-06
-3.31266e-07
-3.88158e-06
-4.27408e-07
-3.78252e-06
-4.81448e-07
-3.5448e-06
-4.55297e-07
-3.15283e-06
-3.12744e-07
-2.62641e-06
-3.44119e-08
-2.02889e-06
3.61359e-07
-1.45202e-06
8.01224e-07
-9.98024e-07
1.17361e-06
-7.55637e-07
1.3641e-06
-7.6707e-07
1.26703e-06
-9.98443e-07
7.98226e-07
-1.34732e-06
-5.59152e-08
-1.66539e-06
-1.23012e-06
-1.77589e-06
-2.6166e-06
-1.48783e-06
-4.05226e-06
-6.01019e-07
-5.33447e-06
1.00259e-06
-6.25572e-06
3.53837e-06
-6.5714e-06
6.955e-06
-6.13715e-06
1.03552e-05
-4.90634e-06
1.27969e-05
-3.66211e-06
1.34541e-05
-1.54715e-06
1.09834e-05
3.40264e-06
6.15664e-06
9.63569e-06
1.17453e-06
1.33249e-05
-2.85236e-06
1.37235e-05
-7.1229e-06
1.19534e-05
-8.69038e-06
6.38897e-06
-9.19846e-06
6.3673e-07
-1.15384e-05
-1.77191e-06
-1.72715e-05
1.67757e-07
-2.19744e-05
2.47664e-06
-1.659e-05
6.38277e-07
-8.69115e-06
-1.01981e-07
-5.92458e-06
-1.78874e-06
-3.34802e-06
-1.86154e-06
-5.11254e-07
-2.43303e-06
1.28583e-09
-3.603e-06
1.69671e-07
-3.21924e-06
1.71498e-07
-3.20407e-06
-5.02356e-09
-2.90447e-06
-6.22162e-08
-2.50267e-06
-1.35365e-07
-2.17474e-06
-1.51545e-07
-1.79689e-06
-1.48039e-07
-1.49139e-06
-1.21697e-07
-1.209e-06
-8.5388e-08
-9.79837e-07
-4.67228e-08
-7.85616e-07
-4.41083e-09
-6.26863e-07
3.54217e-08
-5.03968e-07
7.04078e-08
-4.01917e-07
1.04494e-07
-3.23974e-07
1.33559e-07
-2.64096e-07
1.61272e-07
-2.16115e-07
1.86092e-07
-1.82212e-07
2.09874e-07
-1.55304e-07
2.32463e-07
-1.36509e-07
2.54829e-07
-1.22816e-07
2.77092e-07
-1.13697e-07
2.99909e-07
-1.07712e-07
3.23377e-07
-1.04551e-07
3.47831e-07
-1.03106e-07
3.73442e-07
-1.03394e-07
4.00259e-07
-1.04595e-07
4.28466e-07
-1.06633e-07
4.57988e-07
-1.09149e-07
4.88943e-07
-1.1192e-07
5.21217e-07
-1.1489e-07
5.54838e-07
-1.1788e-07
5.89683e-07
-1.20914e-07
6.25728e-07
-1.23846e-07
6.62875e-07
-1.2669e-07
7.01103e-07
-1.2939e-07
7.40331e-07
-1.31979e-07
7.80517e-07
-1.34356e-07
8.21591e-07
-1.3654e-07
8.6354e-07
-1.38643e-07
9.06274e-07
-1.40707e-07
9.49683e-07
-1.42643e-07
9.93739e-07
-1.44478e-07
1.03838e-06
-1.46177e-07
1.08353e-06
-1.47738e-07
1.12914e-06
-1.49091e-07
1.17513e-06
-1.50232e-07
1.22144e-06
-1.51133e-07
1.268e-06
-1.5182e-07
1.3147e-06
-1.52331e-07
1.36139e-06
-1.52535e-07
1.40785e-06
-1.52286e-07
1.45386e-06
-1.51233e-07
1.501e-06
-1.49274e-07
1.5417e-06
-1.48262e-07
1.58767e-06
-1.44009e-07
1.63183e-06
-1.40629e-07
1.67401e-06
-1.3688e-07
1.7152e-06
-1.32327e-07
1.75495e-06
-1.28156e-07
1.79356e-06
-1.23891e-07
1.83116e-06
-1.20314e-07
1.8681e-06
-1.17933e-07
1.9049e-06
-1.17161e-07
1.94221e-06
-1.18619e-07
1.98095e-06
-1.22758e-07
2.02217e-06
-1.30217e-07
2.0671e-06
-1.4127e-07
2.11709e-06
-1.56455e-07
2.1736e-06
-1.75913e-07
2.23789e-06
-1.99976e-07
2.3112e-06
-2.2838e-07
2.39521e-06
-2.60465e-07
2.49133e-06
-2.96051e-07
2.60076e-06
-3.34881e-07
2.72428e-06
-3.76681e-07
2.86222e-06
-4.20955e-07
3.01525e-06
-4.66567e-07
3.18273e-06
-5.129e-07
3.36511e-06
-5.58367e-07
3.56257e-06
-6.02401e-07
3.77377e-06
-6.44829e-07
3.99802e-06
-6.84331e-07
4.23398e-06
-7.20499e-07
4.48025e-06
-7.52578e-07
4.73525e-06
-7.80035e-07
4.99723e-06
-8.02508e-07
5.26441e-06
-8.1969e-07
5.53489e-06
-8.31427e-07
5.80682e-06
-8.37631e-07
6.07831e-06
-8.38333e-07
6.34753e-06
-8.33615e-07
6.61268e-06
-8.2361e-07
6.87203e-06
-8.08487e-07
7.12391e-06
-7.88405e-07
7.3667e-06
-7.63505e-07
7.5988e-06
-7.33874e-07
7.81863e-06
-6.99515e-07
8.02455e-06
-6.60308e-07
8.2149e-06
-6.16098e-07
8.38789e-06
-5.66656e-07
8.54167e-06
-5.11725e-07
8.67431e-06
-4.51091e-07
8.7838e-06
-3.84503e-07
8.86805e-06
-3.11729e-07
8.9249e-06
-2.3259e-07
8.9522e-06
-1.46983e-07
8.94781e-06
-5.49385e-08
8.90969e-06
4.34032e-08
8.8359e-06
1.47884e-07
8.72455e-06
2.58358e-07
8.57384e-06
3.74576e-07
8.38208e-06
4.96144e-07
8.14788e-06
6.22889e-07
7.87002e-06
7.54493e-07
7.54735e-06
8.90146e-07
7.17921e-06
1.02835e-06
6.76552e-06
1.16697e-06
6.307e-06
1.30344e-06
5.80482e-06
1.43687e-06
5.26108e-06
1.56925e-06
4.67816e-06
1.70018e-06
4.05513e-06
1.83497e-06
2.04817e-06
3.41871e-06
-9.92978e-08
-4.32149e-07
-1.32696e-06
1.99074e-06
-2.09277e-06
3.81016e-06
-1.93444e-06
3.44847e-06
-1.22562e-06
2.13079e-06
-6.45453e-07
9.542e-07
-5.12111e-07
3.45728e-07
-7.3633e-07
1.5115e-07
-1.11423e-06
1.37511e-07
-1.50525e-06
1.65227e-07
-1.84961e-06
1.91678e-07
-2.13536e-06
2.09611e-07
-2.37207e-06
2.17077e-07
-2.57269e-06
2.10005e-07
-2.7524e-06
1.7917e-07
-2.9241e-06
1.21164e-07
-3.09543e-06
4.14095e-08
-3.26602e-06
-5.63885e-08
-3.42686e-06
-1.70425e-07
-3.56137e-06
-2.92895e-07
-3.64154e-06
-4.01273e-07
-3.63168e-06
-4.65162e-07
-3.49471e-06
-4.49716e-07
-3.20632e-06
-3.22798e-07
-2.77096e-06
-7.39994e-08
-2.22898e-06
2.59243e-07
-1.6488e-06
5.93428e-07
-1.11283e-06
8.2813e-07
-6.92614e-07
8.46807e-07
-4.1023e-07
5.15843e-07
-2.30564e-07
-2.35582e-07
-7.39118e-08
-1.38677e-06
1.77828e-07
-2.86834e-06
6.95033e-07
-4.56946e-06
1.71204e-06
-6.35148e-06
3.48448e-06
-8.02816e-06
6.24669e-06
-9.33361e-06
1.0009e-05
-9.89949e-06
1.32446e-05
-8.14189e-06
1.76306e-05
-8.04812e-06
1.8368e-05
-2.28451e-06
1.53418e-05
6.42883e-06
1.12799e-05
1.36975e-05
7.75362e-06
1.68512e-05
5.71635e-06
1.57608e-05
4.88298e-06
1.27868e-05
3.31066e-06
7.96129e-06
-3.43664e-07
4.29105e-06
-4.94364e-06
2.82807e-06
-6.40608e-06
1.63019e-06
-3.92306e-06
-6.37388e-09
-1.68118e-06
-1.60361e-06
4.73805e-07
-2.25696e-06
1.51029e-06
-2.82523e-06
2.27702e-06
-2.62827e-06
2.62847e-06
-2.78449e-06
2.10307e-06
-3.0776e-06
1.72762e-06
-2.84379e-06
1.25915e-06
-2.7356e-06
8.40759e-07
-2.48607e-06
5.39528e-07
-2.20144e-06
2.90305e-07
-1.92551e-06
1.30466e-07
-1.63705e-06
1.96407e-08
-1.38056e-06
-4.42233e-08
-1.14513e-06
-7.96267e-08
-9.44433e-07
-9.4011e-08
-7.71232e-07
-9.39938e-08
-6.26881e-07
-8.69878e-08
-5.10974e-07
-7.46199e-08
-4.14285e-07
-5.90316e-08
-3.39563e-07
-4.30277e-08
-2.801e-07
-2.5239e-08
-2.33904e-07
-7.69104e-09
-1.9976e-07
1.06874e-08
-1.73683e-07
2.93213e-08
-1.55143e-07
4.87369e-08
-1.42232e-07
6.88848e-08
-1.33845e-07
9.0107e-08
-1.28934e-07
1.12372e-07
-1.26816e-07
1.35971e-07
-1.26705e-07
1.60857e-07
-1.2828e-07
1.87158e-07
-1.30896e-07
2.14882e-07
-1.34358e-07
2.44013e-07
-1.3828e-07
2.74563e-07
-1.42471e-07
3.06447e-07
-1.46774e-07
3.3963e-07
-1.51063e-07
3.73996e-07
-1.5528e-07
4.09485e-07
-1.59334e-07
4.45995e-07
-1.632e-07
4.83452e-07
-1.66847e-07
5.21743e-07
-1.7027e-07
5.60795e-07
-1.73408e-07
6.00546e-07
-1.76291e-07
6.40935e-07
-1.79033e-07
6.8189e-07
-1.81662e-07
7.23377e-07