/*--------------------------------*- C++ -*----------------------------------*\
| =========                 |                                                 |
| \\      /  F ield         | OpenFOAM: The Open Source CFD Toolbox           |
|  \\    /   O peration     | Version:  2112                                  |
|   \\  /    A nd           | Website:  www.openfoam.com                      |
|    \\/     M anipulation  |                                                 |
\*---------------------------------------------------------------------------*/
FoamFile
{
    version     2.0;
    format      ascii;
    arch        "LSB;label=32;scalar=64";
    class       volScalarField;
    location    "0.26";
    object      omegaU_0;
}
// * * * * * * * * * * * * * * * * * * * * * * * * * * * * * * * * * * * * * //

dimensions      [0 0 -1 0 0 0 0];

internalField   nonuniform List<scalar> 
12225
(
44768.1
52264
58690.7
62586.7
64693.6
65029.4
64762.2
64082.3
63022.1
61860.7
60729.3
59613
58607.3
57649.9
56795.6
56053.9
55279.4
54850.5
1898.21
5122.51
8316.03
11120.9
13473.3
15269.3
16565.5
17508.5
18148.8
18588.6
18870.3
19068.8
19173.8
19266.2
19282
19325.6
19294.8
19449.6
177.785
496.959
800.491
1253.33
1751.96
2297.82
2757.52
3235.41
3602.39
3990.46
4262.85
4574.22
4767.95
5022.9
5162.65
5356.69
5466.27
5674.71
53.8642
121.381
178.404
263.355
345.155
456.577
543.874
660.533
742.634
855.255
927.631
1031.82
1091.63
1187.61
1234.46
1316.31
1371.12
1440.3
41.334
56.3509
78.2216
104.246
126.482
158.295
182.198
215.928
239.503
273.044
295.157
327.357
347.141
377.161
394.13
423.952
437.007
463.175
39.8399
42.811
49.9858
62.2037
71.763
84.1364
93.7222
106.67
116.301
129.085
138.285
150.685
159.082
170.846
178.146
190.158
195.79
206.551
39.6523
40.2015
41.9958
46.5759
51.3532
57.7404
62.8967
68.9931
73.738
79.6585
84.3385
90.1078
94.4104
99.9634
103.73
109.404
112.351
117.726
39.6237
39.7307
40.1155
41.2716
43.0333
46.1262
49.025
52.4354
55.3908
58.6079
61.236
64.2376
66.6888
69.6535
71.8284
74.8429
76.5176
79.6083
39.6166
39.6411
39.7191
39.9694
40.414
41.4192
42.6323
44.3417
46.1189
48.0487
49.7676
51.6058
53.1319
54.8187
56.13
57.8341
58.9198
60.6991
39.6135
39.6185
39.6346
39.6935
39.785
40.0459
40.3892
40.9856
41.7111
42.6652
43.659
44.7954
45.7963
46.8878
47.7802
48.8109
49.5059
50.5557
39.6105
39.6097
39.6134
39.6267
39.6535
39.7149
39.7973
39.9649
40.1708
40.5004
40.8741
41.3853
41.9012
42.536
43.1129
43.7714
44.2734
44.9317
39.6092
39.6041
39.6044
39.6078
39.6189
39.6392
39.666
39.7206
39.7797
39.8897
40.01
40.1996
40.4004
40.6824
40.9618
41.3314
41.6513
42.0846
39.6082
39.6006
39.5973
39.598
39.6024
39.6113
39.6231
39.6452
39.6649
39.7031
39.7388
39.8013
39.8623
39.9611
40.0547
40.2035
40.3329
40.547
39.6073
39.5977
39.5917
39.5896
39.5908
39.5946
39.6007
39.6122
39.622
39.6381
39.6514
39.6732
39.6913
39.7218
39.747
39.7907
39.8262
39.8899
39.6066
39.595
39.5872
39.5825
39.5814
39.5824
39.5853
39.5913
39.5975
39.6061
39.6138
39.6238
39.6322
39.6434
39.6525
39.6655
39.6759
39.6919
39.606
39.5931
39.5832
39.5772
39.5735
39.5729
39.5737
39.576
39.5797
39.5845
39.5895
39.595
39.6001
39.6057
39.6104
39.6157
39.6199
39.6253
39.6057
39.5917
39.5806
39.5727
39.5682
39.5653
39.565
39.5656
39.567
39.5695
39.5722
39.5753
39.5783
39.5813
39.5838
39.5864
39.5882
39.5904
39.6055
39.591
39.579
39.5703
39.5644
39.5612
39.5593
39.5592
39.5595
39.5604
39.5618
39.5634
39.5649
39.5664
39.5676
39.5686
39.5693
39.5697
39.6056
39.5911
39.5792
39.5703
39.5642
39.5607
39.5587
39.558
39.5582
39.5587
39.5596
39.5607
39.5618
39.5628
39.5636
39.5642
39.5645
39.5643
39.6059
39.5923
39.5812
39.5734
39.5684
39.5655
39.5645
39.5647
39.5657
39.5674
39.57
39.5727
39.5761
39.5795
39.5838
39.5878
39.593
39.5972
39.6064
39.5943
39.5847
39.579
39.5755
39.5757
39.5776
39.581
39.5885
39.5976
39.6106
39.6257
39.646
39.6685
39.6982
39.7288
39.7664
39.8003
39.607
39.5975
39.5906
39.5911
39.5961
39.6062
39.6305
39.6642
39.7136
39.7767
39.8602
39.9578
40.0802
40.2104
40.3598
40.5053
40.6687
40.8152
39.6073
39.6057
39.6141
39.6385
39.7079
39.8178
39.9969
40.2218
40.5148
40.8647
41.266
41.6888
42.1511
42.604
43.0769
43.5261
44.016
44.4446
39.6138
39.6419
39.7583
40.0037
40.5508
41.2365
42.149
43.1203
44.2524
45.4087
46.6341
47.8091
49.03
50.186
51.4119
52.5276
53.7472
54.7775
39.6377
39.9479
40.8888
42.6285
45.1367
47.6714
50.6879
53.5159
56.7049
59.5916
62.8039
65.7174
68.9113
71.7338
74.8523
77.508
80.5426
82.9628
39.9111
42.6007
48.4401
55.2802
63.3797
70.5924
79.5479
87.4677
97.0758
105.235
114.966
122.976
132.536
140.154
149.385
156.457
165.302
171.728
43.5351
62.9467
86.5147
111.971
139.551
166.39
201.599
232.694
271.548
302.848
341.988
371.723
409.599
436.946
472.756
497.423
530.849
552.844
92.3738
212.344
337.708
483.526
629.527
803.124
1015.23
1215.35
1434.13
1616.27
1816.31
1972.18
2148.41
2277.44
2430.27
2535.88
2668.04
2754.79
855.417
2238.12
3643.55
5107.1
6540.47
7841.74
8964.55
9908.36
10695.9
11309.9
11832.8
12219.4
12558.4
12788.3
13014.4
13142.3
13304.2
13364.5
27706.2
32373.8
36805
40610
43367.8
45297.1
46353.9
46976.6
47007.8
46896.7
46627.1
46194.8
45699.3
45179.1
44647.8
44127.9
43619.2
43135
11465.5
2522.56
2530.38
2536.21
2541.35
2549.8
2564.31
2588.07
2618.59
2651.31
2684.35
2716.3
2745.81
2773.67
2797.85
2819.95
2839.18
2856.94
2870.97
2884.57
2894.56
2902.05
2903.3
2900.52
2891.1
2873.03
2846.97
2813.36
2773.52
2729.56
2684.78
2645.01
2621.21
2617.97
2623.1
2629.53
2632.7
2634.53
2637.6
2642.17
2644.99
2644.93
2644.67
2647.55
2654.87
2661.95
2664.39
2664.81
2660.7
2656.71
2658.03
2660.11
2666.52
2691.02
2734.61
2918.05
3259.38
3470.28
3618.99
3757.25
3860.13
3961.54
4046.83
4132.04
4212.65
4287.23
4357.31
4422.8
4486.03
4545.69
4604.19
4660.03
4715.1
4768.31
4820.77
4871.99
4922.37
4971.95
5020.58
5068.67
5115.76
5162.42
5208.06
5253.27
5297.51
5341.23
5384.05
5426.25
5467.58
5508.19
5547.97
5586.93
5625.05
5662.29
5698.66
5734.07
5768.56
5802.09
5834.64
5866.2
5896.76
5926.3
5954.82
5982.3
6008.77
6034.2
6058.62
6082.04
6104.5
6126.07
6146.86
6167.05
6186.63
6205.15
6222.82
6239.63
6255.49
6270.58
6284.76
6298.18
6310.76
6322.57
6333.65
6343.93
6353.58
6362.78
6371.38
6378.71
6385.4
6391.52
6397.2
6402.28
6406.66
6410.51
6413.75
6416.4
6418.48
6420.05
6421.11
6421.68
6421.81
6421.48
6420.77
6419.69
6418.25
6416.51
6414.48
6412.21
6409.73
6407.07
6404.27
6401.35
6398.37
6395.34
6392.3
6389.29
6386.34
6383.47
6380.71
6378.08
6375.61
6373.32
6371.23
6369.34
6367.69
6366.28
6365.13
6364.24
6363.54
6363.27
6364.57
6367.49
6372.52
6379.86
6389.33
6402.62
6421.79
6447.19
6465.19
6472.91
11473.5
2145.57
1176.47
937.646
966.342
1020.49
995.602
933.595
857.209
781.028
712.872
657.908
609.083
571.508
543.392
526.193
513.881
513.447
516.909
537.536
587.37
674.564
786.412
914.699
1050.17
1183.23
1305.62
1410.9
1494.92
1555.6
1591.86
1598.94
1577.44
1516.7
1386.94
1149.36
859.058
719.156
670.2
643.301
605.487
580.624
582.209
586.764
587.008
589.46
617.328
745.198
920.067
1056.56
1112.98
1447.12
2057.25
2306.84
2376.69
2408.53
2408.76
2269.15
2176.76
2049.1
1947.28
1855.99
1774.49
1714.6
1655.94
1616.87
1576.82
1551.46
1525.14
1508.08
1491.04
1479.13
1467.98
1459.22
1451.6
1444.83
1439.21
1433.7
1429.18
1424.47
1420.47
1416.27
1412.49
1408.58
1404.87
1401.12
1397.43
1393.74
1390.06
1386.41
1382.75
1379.14
1375.53
1372.03
1368.57
1365.18
1361.86
1358.63
1355.51
1352.52
1349.67
1346.98
1344.48
1342.15
1339.97
1337.97
1336.28
1334.98
1334.15
1333.94
1335.06
1337.35
1340.88
1343.26
1346.53
1349.02
1352.03
1354.64
1357.45
1360.11
1362.82
1365.47
1368.11
1370.74
1373.33
1375.92
1378.45
1380.96
1383.45
1385.93
1388.39
1390.83
1393.23
1395.6
1397.9
1400.18
1402.48
1404.76
1407.04
1409.33
1411.62
1413.92
1416.24
1418.56
1420.91
1423.27
1425.65
1428.06
1430.49
1432.95
1435.44
1437.95
1440.5
1443.07
1445.68
1448.31
1450.97
1453.66
1456.37
1459.11
1461.87
1464.66
1467.47
1470.3
1473.16
1476.06
1479
1482
1485.06
1488.25
1491.65
1495.22
1498.95
1502.72
1506.28
1509.31
1511.08
1511.08
1510.47
1519.83
11473.2
2317.12
1191.94
1258.97
1253.73
1151.44
994.216
830.677
688.627
563.501
470
398.633
353.516
324.366
305.016
292.818
284.425
281.188
281.758
284.794
292.242
307.853
334.038
372.479
424.197
488.733
564.22
647.22
733.289
818.09
897.473
967.166
1021.06
1053.66
1044.41
997.602
879.383
739.382
608.315
523.635
510.962
530.541
548.92
560.863
553.429
539.353
558.624
661.687
917.333
1271.72
1596.93
1708.9
1765.49
1706.2
1595.8
1512.12
1370.67
1260.87
1158.62
1078.04
1010.56
964.646
920.579
896.964
869.7
855.969
839.633
831.252
820.917
815.486
809.181
804.996
801.192
797.884
795.375
792.812
790.954
788.948
787.456
785.841
784.575
783.238
782.116
780.986
779.978
779.006
778.105
777.263
776.472
775.75
775.077
774.478
773.973
773.539
773.173
772.873
772.63
772.432
772.311
772.27
772.363
772.567
772.867
773.277
773.802
774.453
775.248
776.193
777.306
778.596
780.072
781.666
783.242
784.78
786.404
787.945
789.575
791.152
792.779
794.39
796.021
797.657
799.295
800.946
802.594
804.252
805.906
807.568
809.235
810.906
812.581
814.258
815.936
817.618
819.305
821.004
822.717
824.44
826.178
827.931
829.699
831.485
833.288
835.11
836.951
838.813
840.696
842.599
844.525
846.472
848.442
850.433
852.446
854.481
856.536
858.612
860.709
862.825
864.96
867.114
869.288
871.481
873.695
875.932
878.194
880.485
882.809
885.172
887.581
890.043
892.56
895.106
897.633
900.046
902.188
903.832
904.701
904.855
905.406
912.023
11471.9
2501.59
1858.14
1681.28
1396.59
1097.83
800.005
566.381
416.322
337.41
293.757
267.952
251.833
241.327
234.385
229.68
226.794
226.388
226.906
228.586
232.311
239.21
250.019
265.649
286.896
314.563
349.573
392.456
442.796
499.548
561.33
626.141
690.691
749.842
794.314
810.646
797.426
740.922
665.972
611.703
607.241
637.895
709.374
779.049
801.553
793.965
828.415
1065.96
1331.67
1441.72
1474.03
1410.08
1241.48
1170.77
1044.2
969.023
875.55
812.076
756.623
719.052
688.82
668.729
651.425
641.303
631.185
625.664
619.8
616.668
613.238
611.298
609.439
608.149
607.208
606.399
605.934
605.564
605.363
605.251
605.2
605.236
605.403
605.59
605.868
606.178
606.552
606.968
607.433
607.946
608.503
609.109
609.759
610.461
611.208
612.003
612.844
613.733
614.669
615.655
616.695
617.789
618.939
620.14
621.394
622.699
624.057
625.465
626.924
628.43
629.981
631.57
633.188
634.82
636.445
638.076
639.717
641.35
642.999
644.641
646.292
647.94
649.591
651.242
652.892
654.543
656.191
657.84
659.485
661.131
662.776
664.42
666.063
667.706
669.348
670.991
672.637
674.286
675.94
677.598
679.262
680.932
682.608
684.293
685.987
687.69
689.405
691.13
692.869
694.621
696.388
698.171
699.97
701.787
703.622
705.477
707.352
709.25
711.17
713.114
715.084
717.08
719.106
721.163
723.254
725.381
727.548
729.759
732.017
734.327
736.692
739.112
741.581
744.078
746.566
748.979
751.216
753.137
754.646
755.799
757.185
761.368
11470.6
3248.85
2356.22
1756.4
1210
730.918
468.982
349.09
290.857
260.423
243.072
232.201
224.849
219.65
215.938
213.33
211.885
211.692
211.981
212.977
215.27
219.875
226.984
236.806
249.347
264.672
283.266
305.974
333.591
366.799
406.384
453.003
506.278
563.816
620.485
666.777
691.442
695.128
683.487
686.914
740.114
877.446
975.721
1031.14
1047.75
1057.65
1123.64
1224.11
1265.55
1264.25
1088.62
973.889
886.217
820.444
741.901
687.937
643.743
605.994
584.645
564.532
553.152
543.149
537.013
532.301
529.036
526.918
525.325
524.524
524.074
523.919
523.898
524.215
524.672
525.246
525.96
526.743
527.622
528.562
529.57
530.64
531.767
532.939
534.163
535.427
536.738
538.089
539.482
540.916
542.389
543.901
545.45
547.038
548.661
550.32
552.014
553.742
555.503
557.296
559.12
560.974
562.855
564.761
566.692
568.645
570.618
572.607
574.612
576.629
578.657
580.693
582.736
584.777
586.812
588.844
590.87
592.888
594.899
596.899
598.89
600.868
602.835
604.788
606.728
608.656
610.57
612.473
614.363
616.241
618.109
619.966
621.812
623.648
625.474
627.29
629.099
630.9
632.693
634.48
636.26
638.035
639.806
641.574
643.339
645.103
646.869
648.636
650.407
652.184
653.968
655.762
657.568
659.387
661.222
663.077
664.952
666.851
668.777
670.732
672.72
674.744
676.808
678.916
681.071
683.277
685.541
687.866
690.257
692.719
695.255
697.867
700.549
703.291
706.065
708.829
711.512
714.008
716.21
718.17
720.158
723.199
11466.9
4206.37
2459.33
1418.14
723.921
444.207
329.201
278.479
253.409
239.197
229.986
223.374
218.384
214.576
211.749
209.796
208.739
208.548
208.754
209.607
211.74
215.509
220.893
228.179
237.219
247.755
259.848
273.921
290.588
310.835
336.369
369.442
411.908
463.751
522.393
581.766
633.091
675.946
718.259
790.754
961.449
1036.82
1039.83
1026.91
1031.05
1049
1088.45
1102.25
1010.48
881.77
794.135
722.169
674.646
619.359
580.843
545.818
526.438
506.721
496.939
487.375
482.62
478.524
476.502
475.355
474.905
474.825
475.247
476.025
476.979
478.109
479.368
480.759
482.232
483.785
485.413
487.099
488.849
490.651
492.508
494.415
496.37
498.371
500.417
502.506
504.638
506.811
509.024
511.277
513.569
515.898
518.263
520.661
523.09
525.547
528.031
530.54
533.07
535.62
538.186
540.767
543.358
545.958
548.565
551.177
553.79
556.401
559.008
561.611
564.21
566.807
569.402
571.974
574.527
577.059
579.568
582.054
584.514
586.946
589.351
591.725
594.07
596.386
598.672
600.93
603.161
605.366
607.545
609.701
611.834
613.943
616.031
618.097
620.142
622.166
624.171
626.156
628.123
630.071
632.002
633.917
635.816
637.701
639.574
641.436
643.289
645.136
646.977
648.817
650.657
652.5
654.35
656.21
658.082
659.971
661.88
663.814
665.775
667.769
669.8
671.872
673.991
676.161
678.387
680.675
683.03
685.459
687.968
690.561
693.244
696.019
698.887
701.839
704.859
707.918
710.964
713.924
716.76
719.399
721.886
724.028
11489.5
4486.53
2028.68
881.029
478.049
337.173
282.866
257.892
243.949
234.676
227.53
221.943
217.53
214.094
211.547
209.875
209.105
209.055
209.469
210.777
213.162
216.635
221.313
227.039
233.993
242.011
250.942
260.932
272.381
286.239
304.427
329.931
365.897
414.275
474.883
543.852
616.179
689.653
778
941.495
1009.02
1013.1
990.168
971.594
963.983
956.4
911.334
818.215
739.14
670.378
624.764
576.328
545.302
509.345
490.716
470.863
460.982
451.249
446.506
442.765
441.102
440.408
440.319
441.015
442.169
443.615
445.336
447.228
449.24
451.355
453.551
455.819
458.144
460.526
462.962
465.451
467.993
470.586
473.231
475.927
478.672
481.467
484.311
487.204
490.146
493.133
496.163
499.235
502.347
505.5
508.694
511.928
515.189
518.475
521.783
525.109
528.45
531.802
535.162
538.524
541.884
545.237
548.578
551.9
555.216
558.522
561.815
565.091
568.349
571.588
574.8
577.98
581.128
584.243
587.321
590.359
593.356
596.31
599.218
602.079
604.892
607.658
610.378
613.053
615.685
618.276
620.827
623.341
625.817
628.257
630.661
633.03
635.365
637.666
639.934
642.169
644.371
646.541
648.68
650.788
652.868
654.92
656.947
658.95
660.931
662.894
664.84
666.773
668.697
670.616
672.532
674.452
676.378
678.316
680.271
682.248
684.253
686.291
688.368
690.49
692.664
694.895
697.19
699.557
702.001
704.531
707.154
709.876
712.706
715.648
718.705
721.878
725.156
728.523
731.946
735.368
738.759
742.019
745.179
746.935
11585.1
4095.91
1419.78
603.841
373.321
299.712
269.878
253.616
242.803
235.127
229.425
224.798
220.943
217.802
215.388
213.722
212.821
212.651
213.059
214.324
216.432
219.344
223.133
227.934
233.527
239.809
246.762
254.439
263.197
274.099
289.341
312.274
346.442
394.257
457.127
535.967
623.824
717.056
850.539
945.131
964.615
927.932
863.218
835.512
803.104
751.483
693.594
637.098
591.062
551.347
519.191
487.917
467.786
447.7
437.057
426.391
421.122
416.864
414.988
414.24
414.18
415.114
416.61
418.569
420.84
423.328
425.988
428.763
431.625
434.557
437.549
440.593
443.688
446.835
450.034
453.288
456.599
459.968
463.395
466.882
470.427
474.029
477.688
481.41
485.203
489.048
492.942
496.883
500.866
504.881
508.911
512.948
517.032
521.154
525.308
529.489
533.692
537.913
542.145
546.386
550.629
554.863
559.085
563.294
567.474
571.623
575.735
579.807
583.835
587.815
591.75
595.641
599.486
603.28
607.021
610.704
614.327
617.887
621.381
624.807
628.163
631.451
634.671
637.826
640.918
643.951
646.927
649.847
652.714
655.528
658.291
661.003
663.665
666.277
668.84
671.353
673.818
676.235
678.604
680.928
683.206
685.441
687.634
689.788
691.906
693.99
696.043
698.07
700.075
702.062
704.036
706.003
707.968
709.937
711.916
713.913
715.933
717.984
720.073
722.208
724.396
726.645
728.963
731.358
733.839
736.412
739.089
741.876
744.784
747.82
750.99
754.297
757.74
761.308
764.983
768.715
772.5
776.204
780.079
781.6
11690.5
3378.71
1012.22
469.19
334.097
289.973
268.147
256.216
248.327
241.841
236.08
231.046
226.808
223.389
220.772
218.922
217.803
217.381
217.63
218.571
220.2
222.499
225.434
228.994
233.22
238.081
243.557
249.722
256.978
266.441
280.471
302.981
338.568
390.043
458.876
542.674
638.702
750.057
856.587
890.308
859.494
772.047
719.225
690.62
648.092
604.19
568.843
533.559
502.217
475.793
452.802
433.669
420.843
409.697
403.1
397.677
395.075
393.832
393.526
394.05
395.487
397.536
400.041
402.887
405.982
409.256
412.668
416.178
419.768
423.423
427.136
430.906
434.733
438.62
442.571
446.59
450.68
454.842
459.077
463.39
467.789
472.25
476.768
481.329
485.9
490.546
495.268
500.064
504.934
509.879
514.913
520.027
525.182
530.371
535.588
540.826
546.076
551.33
556.581
561.817
567.033
572.229
577.398
582.534
587.627
592.674
597.668
602.605
607.482
612.298
617.053
621.747
626.376
630.936
635.422
639.827
644.15
648.386
652.533
656.586
660.543
664.405
668.174
671.853
675.447
678.959
682.392
685.749
689.034
692.247
695.389
698.463
701.467
704.404
707.273
710.074
712.809
715.477
718.079
720.617
723.092
725.505
727.858
730.155
732.397
734.588
736.733
738.834
740.898
742.929
744.933
746.917
748.887
750.85
752.814
754.787
756.775
758.79
760.838
762.93
765.073
767.277
769.551
771.904
774.346
776.886
779.533
782.298
785.192
788.224
791.401
794.732
798.217
801.851
805.629
809.496
813.501
817.406
821.936
823.19
11759.7
2753.17
783.438
412.75
323.562
289.794
275.588
265.431
256.49
248.741
242.222
236.825
232.425
228.916
226.201
224.196
222.835
222.124
221.917
222.287
223.262
224.779
226.782
229.248
232.343
235.99
240.225
245.222
251.713
261.533
277.806
303.352
340.717
394.14
465.892
555.989
656.67
763.637
807.68
799.304
724.066
643.934
609.963
581.908
544.498
514.954
492.241
467.215
444.387
426.321
410.971
398.91
390.653
384.257
380.268
377.965
377.1
376.961
377.77
379.422
381.746
384.564
387.772
391.279
395.015
398.925
402.973
407.129
411.377
415.706
420.112
424.593
429.151
433.792
438.519
443.334
448.249
453.268
458.359
463.5
468.658
473.927
479.304
484.797
490.44
496.21
502.069
508.013
514.037
520.133
526.286
532.495
538.751
545.046
551.372
557.721
564.081
570.444
576.8
583.138
589.45
595.729
601.966
608.153
614.282
620.345
626.336
632.248
638.078
643.826
649.49
655.07
660.564
665.964
671.263
676.454
681.534
686.501
691.349
696.074
700.672
705.144
709.492
713.72
717.835
721.842
725.745
729.548
733.256
736.869
740.39
743.82
747.161
750.412
753.575
756.65
759.637
762.538
765.352
768.082
770.728
773.293
775.778
778.187
780.522
782.787
784.986
787.125
789.207
791.241
793.231
795.185
797.11
799.016
800.91
802.801
804.698
806.613
808.555
810.534
812.561
814.646
816.798
819.029
821.348
823.765
826.292
828.939
831.718
834.64
837.713
840.948
844.347
847.909
851.641
855.471
859.533
863.385
868.431
869.311
11790.9
2271.72
671.197
393.861
323.587
301.858
287.729
275.676
265.463
256.889
249.683
243.666
238.733
234.774
231.663
229.275
227.496
226.234
225.543
225.306
225.434
226.158
227.327
228.931
230.978
233.738
237.347
242.403
250.041
261.694
279.286
306.682
347.44
404.7
480.787
573.016
673.47
731.009
737.499
696.107
605.726
555.091
531.318
506.263
477.411
457.009
440.533
422.116
405.633
393.337
383.282
375.395
369.996
366.235
364.277
363.495
363.4
364.201
365.857
368.206
371.119
374.481
378.21
382.235
386.498
390.956
395.578
400.342
405.231
410.238
415.359
420.592
425.934
431.391
436.985
442.672
448.423
454.211
460.143
466.238
472.525
478.988
485.6
492.347
499.215
506.175
513.239
520.401
527.651
534.979
542.375
549.83
557.335
564.881
572.457
580.055
587.663
595.271
602.868
610.443
617.983
625.477
632.912
640.276
647.561
654.757
661.853
668.841
675.717
682.481
689.13
695.664
702.082
708.377
714.537
720.553
726.422
732.143
737.714
743.126
748.377
753.463
758.391
763.164
767.791
772.279
776.635
780.862
784.967
788.951
792.818
796.57
800.208
803.733
807.145
810.447
813.639
816.721
819.695
822.562
825.324
827.983
830.542
833.004
835.371
837.649
839.841
841.953
843.99
845.96
847.869
849.726
851.538
853.315
855.067
856.803
858.534
860.271
862.027
863.813
865.64
867.52
869.463
871.482
873.586
875.787
878.096
880.524
883.083
885.787
888.644
891.663
894.852
898.205
901.753
905.385
909.354
912.932
918.285
918.691
11799.3
2003.14
621.77
391.08
338.967
318.124
303.133
289.534
277.543
267.307
258.683
251.49
245.59
240.822
237
233.953
231.537
229.641
228.205
227.363
227.053
227.049
227.615
228.777
230.456
233.071
236.944
242.584
250.912
263.817
283.869
314.534
359.071
420.321
500.323
592.043
658.01
676.528
662.861
597.37
523.205
492.529
474.878
453.77
432.117
416.906
404.241
390.778
379.02
370.478
363.811
358.602
355.064
353.09
352.284
352.14
352.765
354.234
356.423
359.225
362.549
366.316
370.462
374.929
379.672
384.659
389.866
395.277
400.875
406.649
412.599
418.743
425.018
431.392
437.79
444.342
451.093
458.083
465.3
472.771
480.471
488.317
496.313
504.458
512.739
521.141
529.656
538.273
546.978
555.756
564.596
573.484
582.41
591.364
600.335
609.317
618.299
627.273
636.229
645.155
654.038
662.863
671.611
680.267
688.813
697.234
705.52
713.658
721.644
729.477
737.153
744.672
752.036
759.236
766.26
773.093
779.735
786.188
792.451
798.516
804.378
810.035
815.493
820.759
825.843
830.753
835.498
840.084
844.516
848.799
852.935
856.928
860.78
864.492
868.066
871.504
874.806
877.974
881.011
883.917
886.696
889.35
891.882
894.296
896.595
898.784
900.869
902.854
904.747
906.554
908.284
909.944
911.545
913.095
914.606
916.088
917.554
919.016
920.487
921.98
923.506
925.08
926.712
928.415
930.2
932.079
934.062
936.162
938.39
940.764
943.287
945.971
948.824
951.837
955.064
958.347
962.073
965.219
970.579
970.493
11789
1871.32
603.138
402.284
357.916
339.824
323.521
307.568
293.231
280.781
270.121
261.102
253.635
247.547
242.594
238.556
235.255
232.569
230.436
228.886
228.155
227.92
228.053
229.023
230.766
233.567
237.865
244.365
254.29
269.566
292.839
327.098
376.232
443.045
522.539
595.147
622.451
622.024
589.764
517.92
468.147
447.593
433.433
416.33
399.909
387.981
378.14
368.427
360.061
353.973
349.46
346.056
343.942
343.002
342.764
343.14
344.303
346.193
348.735
351.863
355.521
359.658
364.223
369.168
374.458
380.074
386.011
392.295
398.86
405.66
412.639
419.668
426.895
434.353
442.098
450.118
458.434
467.065
475.98
485.168
494.575
504.183
513.973
523.928
534.027
544.247
554.568
564.969
575.429
585.928
596.448
606.973
617.489
627.988
638.463
648.912
659.334
669.724
680.079
690.394
700.661
710.861
720.975
730.975
740.829
750.508
759.998
769.289
778.377
787.258
795.928
804.385
812.633
820.665
828.467
836.024
843.337
850.411
857.25
863.847
870.197
876.299
882.16
887.792
893.204
898.408
903.412
908.224
912.849
917.293
921.56
925.652
929.574
933.327
936.913
940.335
943.595
946.696
949.639
952.429
955.068
957.561
959.91
962.12
964.196
966.144
967.97
969.679
971.28
972.779
974.185
975.508
976.757
977.944
979.078
980.173
981.243
982.299
983.356
984.427
985.526
986.667
987.862
989.124
990.465
991.898
993.432
995.08
996.851
998.767
1000.83
1003.05
1005.44
1007.97
1010.74
1013.53
1016.84
1019.47
1024.4
1023.92
11767.5
1797.6
595.454
421.035
384.12
367.37
350.017
332.38
315.627
300.284
286.646
274.762
264.739
256.471
249.678
244.091
239.496
235.738
232.738
230.506
229.392
229.003
229.007
229.932
232.074
235.624
241.288
250.151
263.462
283.033
311.367
351.165
404.587
468.497
537.35
572.255
577.03
566.282
522.812
461.226
428.899
414.218
402.755
389.345
376.766
367.235
359.565
352.548
346.545
342.063
338.845
336.561
335.379
334.978
335.082
335.921
337.484
339.74
342.652
346.193
350.366
355.142
360.423
366.167
372.345
378.935
385.902
393.112
400.683
408.641
416.97
425.704
434.8
444.273
454.154
464.422
475.068
486.08
497.404
508.959
520.744
532.781
545.008
557.381
569.86
582.408
594.989
607.567
620.11
632.59
644.983
657.269
669.435
681.478
693.401
705.22
716.955
728.613
740.201
751.737
763.232
774.661
786.012
797.256
808.313
819.127
829.679
839.967
849.987
859.735
869.204
878.392
887.303
895.93
904.266
912.299
920.034
927.476
934.634
941.505
948.088
954.384
960.405
966.162
971.668
976.935
981.972
986.785
991.38
995.762
999.935
1003.9
1007.67
1011.24
1014.61
1017.79
1020.78
1023.58
1026.21
1028.65
1030.93
1033.03
1034.97
1036.76
1038.39
1039.88
1041.24
1042.46
1043.56
1044.55
1045.44
1046.23
1046.94
1047.57
1048.15
1048.68
1049.18
1049.65
1050.13
1050.61
1051.12
1051.67
1052.27
1052.94
1053.68
1054.52
1055.45
1056.5
1057.66
1058.97
1060.44
1062.05
1063.82
1065.73
1067.87
1070.03
1072.71
1074.77
1078.89
1078.03
11738.6
1713.62
593.189
446.413
416.257
401.277
384.078
366.031
347.776
329.91
312.977
297.217
283.212
271.291
261.279
252.947
246.157
240.676
236.355
233.168
231.628
231.081
231.053
232.182
235.207
240.335
248.498
260.566
277.756
301.519
333.668
375.502
427.138
486.821
525.915
536.594
536.618
519.683
475.093
425.082
402.851
391.405
381.5
370.52
360.257
352.146
345.738
340.299
335.762
332.321
329.945
328.698
328.308
328.707
329.801
331.592
334.082
337.263
341.118
345.61
350.634
356.118
362.171
368.803
376.004
383.787
392.208
401.403
411.376
422.062
433.383
445.304
457.757
470.711
484.164
498.077
512.414
527.231
542.362
557.685
573.131
588.612
604.11
619.585
634.989
650.274
665.396
680.313
694.988
709.391
723.497
737.287
750.752
763.894
776.743
789.347
801.789
814.088
826.262
838.378
850.502
862.574
874.617
886.636
898.408
909.882
921.037
931.848
942.305
952.406
962.151
971.541
980.585
989.279
997.628
1005.64
1013.31
1020.65
1027.65
1034.34
1040.72
1046.78
1052.55
1058.05
1063.27
1068.24
1072.95
1077.42
1081.65
1085.63
1089.38
1092.9
1096.18
1099.25
1102.09
1104.71
1107.12
1109.31
1111.31
1113.11
1114.72
1116.14
1117.39
1118.46
1119.37
1120.13
1120.73
1121.2
1121.54
1121.76
1121.87
1121.88
1121.81
1121.66
1121.45
1121.19
1120.89
1120.58
1120.26
1119.95
1119.67
1119.44
1119.25
1119.14
1119.11
1119.14
1119.29
1119.56
1119.95
1120.48
1121.16
1122.02
1123.01
1124.11
1125.44
1126.83
1128.65
1130.09
1133.01
1131.78
11704.4
1616.96
598.692
480.405
455.986
442.26
426.765
410.92
394.364
377.01
358.84
339.86
320.528
301.526
284.926
271.35
260.406
251.644
244.776
239.718
237.257
236.357
236.248
237.609
241.754
248.608
258.697
273.177
293.313
320.536
356.729
402.202
453.105
493.438
509.129
511.635
505.369
477.947
433.334
396.956
380.83
371.582
363.278
354.806
347.296
341.184
336.423
332.729
329.969
328.209
327.487
327.502
328.294
329.556
331.686
334.618
338.331
342.824
348.101
354.157
361.001
368.658
377.142
386.476
396.656
407.748
419.895
433.272
447.795
463.24
479.434
496.3
513.766
531.764
550.365
569.415
588.721
608.101
627.516
646.872
666.089
685.096
703.839
722.275
740.367
758.084
775.398
792.287
808.729
824.705
840.197
855.191
869.674
883.647
897.15
910.263
923.125
935.744
948.121
960.468
973.108
985.662
997.967
1009.87
1021.31
1032.33
1042.93
1053.1
1062.84
1072.15
1081.05
1089.54
1097.64
1105.42
1112.9
1120.04
1126.85
1133.3
1139.43
1145.24
1150.75
1155.97
1160.92
1165.59
1170.01
1174.16
1178.07
1181.71
1185.1
1188.24
1191.12
1193.75
1196.13
1198.28
1200.18
1201.85
1203.28
1204.48
1205.48
1206.27
1206.85
1207.23
1207.42
1207.42
1207.28
1206.98
1206.51
1205.91
1205.17
1204.32
1203.35
1202.29
1201.14
1199.92
1198.65
1197.33
1195.98
1194.62
1193.25
1191.91
1190.59
1189.32
1188.11
1186.98
1185.92
1184.96
1184.11
1183.39
1182.78
1182.31
1182
1181.89
1181.9
1181.99
1182.29
1182.7
1183.45
1184.11
1185.51
1183.9
11668.8
1524.74
614.559
518.423
497.178
483.687
468.389
452.345
437.478
423.006
408.498
392.697
375.766
357.787
338.706
319.268
301.03
285.168
271.949
261.536
255.206
252.755
252.137
252.96
257.785
267.278
281.358
300.63
325.768
357.219
393.185
430.985
464.547
478.188
480.189
478.838
467.999
443.869
412.335
387.918
375.91
367.994
360.934
354.326
348.098
343.046
339.34
336.808
335.458
335.172
336.004
337.814
340.63
344.661
350.068
356.493
363.934
372.424
381.987
392.648
404.452
417.487
431.795
447.308
463.971
481.845
500.898
520.914
541.639
562.904
584.636
606.973
629.825
652.896
675.829
698.553
721.068
743.308
765.211
786.709
807.748
828.286
848.299
867.772
886.697
905.072
922.898
940.182
956.929
973.146
988.839
1004.01
1018.67
1032.81
1046.5
1059.82
1073.3
1086.78
1100.11
1113.17
1125.66
1137.58
1148.87
1159.37
1169.23
1178.55
1187.38
1195.75
1203.67
1211.17
1218.26
1224.96
1231.29
1237.29
1243.02
1248.45
1253.56
1258.42
1263.07
1267.45
1271.59
1275.49
1279.15
1282.57
1285.75
1288.68
1291.36
1293.79
1295.96
1297.88
1299.53
1300.92
1302.07
1302.98
1303.62
1304.03
1304.18
1304.1
1303.85
1303.34
1302.63
1301.72
1300.62
1299.35
1297.9
1296.3
1294.55
1292.67
1290.66
1288.53
1286.3
1283.97
1281.57
1279.1
1276.58
1274.03
1271.45
1268.87
1266.3
1263.75
1261.23
1258.78
1256.38
1254.07
1251.84
1249.73
1247.72
1245.84
1244.09
1242.48
1241.02
1239.72
1238.59
1237.55
1236.78
1236.03
1235.63
1235.23
1235.16
1233.03
11631.1
1462.78
628.395
542.226
520.626
507.2
490.644
473
456.994
441.739
427.047
411.923
396.196
379.698
362.755
345.656
329.003
313.672
300.397
290.201
285.481
283.618
283.142
284.272
290.308
302.095
318.129
338.126
362.651
391.351
422.341
452.287
472.384
480.055
482.176
480.966
469.441
447.119
420.111
399.62
389.214
382.748
377.49
373.211
370.098
368.63
368.636
370.236
373.471
378.354
384.863
392.909
402.436
413.458
425.479
438.858
453.853
470.383
488.329
507.569
528.015
549.663
572.491
596.298
620.865
646.665
673.474
700.571
727.528
754.107
780.217
805.604
830.184
854.082
877.298
899.821
921.671
942.868
963.42
983.323
1002.57
1021.16
1039.12
1056.45
1073.19
1089.35
1104.96
1120.06
1134.68
1148.85