/*--------------------------------*- C++ -*----------------------------------*\
| =========                 |                                                 |
| \\      /  F ield         | OpenFOAM: The Open Source CFD Toolbox           |
|  \\    /   O peration     | Version:  2112                                  |
|   \\  /    A nd           | Website:  www.openfoam.com                      |
|    \\/     M anipulation  |                                                 |
\*---------------------------------------------------------------------------*/
FoamFile
{
    version     2.0;
    format      ascii;
    arch        "LSB;label=32;scalar=64";
    class       volScalarField;
    location    "0.13";
    object      k;
}
// * * * * * * * * * * * * * * * * * * * * * * * * * * * * * * * * * * * * * //

dimensions      [0 2 -2 0 0 0 0];

internalField   nonuniform List<scalar> 
12225
(
0.378477
0.376815
0.377465
0.380331
0.381147
0.380802
0.378364
0.375252
0.373835
0.373111
0.372606
0.372279
0.372102
0.372071
0.371985
0.371912
0.371453
0.37126
0.375091
0.369106
0.35867
0.34968
0.342499
0.336034
0.330525
0.325427
0.321477
0.318069
0.315226
0.31457
0.314828
0.31583
0.315961
0.316115
0.315831
0.315139
0.374936
0.0647975
0.0203143
0.0164221
0.0177486
0.0216351
0.027581
0.0338397
0.0387088
0.0463131
0.0527621
0.0639676
0.073843
0.0847753
0.0914345
0.0957122
0.0969865
0.0982751
0.375036
0.346312
0.253716
0.163578
0.077607
0.0248692
0.00863458
0.00810453
0.0111054
0.0127271
0.0118073
0.00823056
0.00745392
0.00807629
0.0102753
0.0122516
0.0129506
0.0129837
0.375005
0.342742
0.266493
0.281354
0.275327
0.225435
0.143252
0.0937869
0.0648648
0.0495368
0.0412094
0.0361871
0.0348406
0.0373108
0.0523115
0.0625062
0.0629212
0.0614821
0.375091
0.32695
0.295314
0.306126
0.306053
0.291637
0.237629
0.135954
0.0653327
0.0335467
0.0256516
0.0264067
0.0366592
0.0850255
0.145213
0.166408
0.16629
0.145514
0.375399
0.330196
0.323377
0.323693
0.314839
0.282747
0.198459
0.122133
0.0770959
0.0501136
0.0396169
0.0397807
0.0514365
0.0892616
0.114776
0.121422
0.119697
0.101281
0.375039
0.326892
0.319999
0.326441
0.323001
0.290675
0.257554
0.230606
0.17746
0.11368
0.0741248
0.0684703
0.0834755
0.112388
0.1233
0.12354
0.114034
0.0754341
0.375078
0.351386
0.292819
0.287312
0.292536
0.305859
0.308291
0.29806
0.241949
0.169821
0.142297
0.14394
0.163559
0.170052
0.166613
0.13947
0.0847881
0.0557244
0.375008
0.364572
0.296926
0.205644
0.218372
0.263925
0.270011
0.256502
0.239579
0.236869
0.233736
0.218804
0.1671
0.120664
0.0870062
0.0618038
0.0505894
0.0494339
0.375037
0.36869
0.33783
0.217729
0.171469
0.176546
0.194777
0.230398
0.253595
0.258159
0.252255
0.210456
0.119432
0.0665099
0.042539
0.0334586
0.0307678
0.0308788
0.37542
0.360168
0.318682
0.209945
0.170995
0.172828
0.178991
0.214614
0.238561
0.240187
0.230701
0.179268
0.11071
0.0717036
0.0473834
0.0315437
0.0229103
0.019886
0.376266
0.349135
0.263729
0.193453
0.207475
0.272663
0.290349
0.285488
0.273173
0.266586
0.252525
0.208082
0.156445
0.114232
0.0768356
0.0467892
0.0293864
0.0247086
0.375419
0.353427
0.312734
0.251099
0.254053
0.311219
0.335789
0.334196
0.308997
0.238631
0.183516
0.151837
0.140723
0.135093
0.122541
0.0919942
0.06658
0.05588
0.375528
0.328148
0.300225
0.289848
0.296012
0.330656
0.342121
0.338519
0.312521
0.261363
0.219127
0.183943
0.154582
0.123845
0.0926344
0.0680649
0.0552343
0.0524819
0.375107
0.329538
0.328884
0.316136
0.295147
0.292788
0.293494
0.288282
0.260275
0.231969
0.207821
0.178417
0.146693
0.116833
0.0928957
0.0770664
0.0694507
0.0672357
0.375209
0.356994
0.336338
0.325427
0.320923
0.321035
0.319417
0.317118
0.310367
0.288807
0.253517
0.213617
0.175559
0.143496
0.120915
0.109868
0.107602
0.108008
0.375107
0.358143
0.342722
0.323871
0.300656
0.281084
0.272441
0.27344
0.271444
0.250269
0.184222
0.134863
0.120236
0.122981
0.14381
0.178839
0.210608
0.233238
0.375069
0.361547
0.345542
0.299285
0.275339
0.276365
0.283856
0.281431
0.254121
0.196668
0.160004
0.135181
0.127036
0.132892
0.170982
0.226757
0.255327
0.263802
0.375113
0.365578
0.358776
0.344158
0.330756
0.324059
0.322599
0.32011
0.310554
0.283273
0.25751
0.244707
0.24341
0.246089
0.259226
0.271583
0.275037
0.274198
0.375413
0.358413
0.358257
0.351067
0.337673
0.321402
0.301455
0.292473
0.295776
0.306146
0.307687
0.300664
0.270785
0.249009
0.238957
0.225094
0.189183
0.155715
0.375007
0.367023
0.346843
0.289332
0.270775
0.283176
0.298366
0.294817
0.27776
0.274707
0.279142
0.282161
0.279489
0.261933
0.220706
0.188011
0.162546
0.14731
0.375217
0.364408
0.312187
0.21802
0.207748
0.236032
0.288436
0.304346
0.305071
0.302559
0.297052
0.287359
0.262352
0.197873
0.147808
0.125753
0.121147
0.122017
0.375078
0.354855
0.321375
0.218736
0.181034
0.19827
0.241891
0.25797
0.262874
0.268723
0.27372
0.27479
0.271769
0.252682
0.195757
0.148578
0.123923
0.117953
0.375118
0.332908
0.325618
0.287802
0.17646
0.16063
0.170681
0.190839
0.212289
0.228418
0.232634
0.230451
0.217005
0.200379
0.190458
0.186719
0.18688
0.192214
0.375231
0.350709
0.33825
0.276468
0.18007
0.167362
0.187387
0.22097
0.234718
0.235898
0.227261
0.197277
0.169989
0.148732
0.136999
0.13593
0.145224
0.187107
0.375013
0.354993
0.327219
0.279806
0.193322
0.170925
0.17254
0.159599
0.100638
0.0463498
0.0233195
0.0131442
0.00727074
0.00408924
0.00277088
0.00250323
0.00262867
0.00354659
0.374927
0.0318073
0.00542623
0.00385479
0.00406494
0.00577101
0.00672194
0.00956972
0.0151168
0.0195642
0.0226446
0.0243334
0.0246197
0.0244639
0.0238915
0.0234521
0.0234594
0.023454
0.375242
0.372482
0.368136
0.356922
0.340531
0.336271
0.337519
0.339303
0.339463
0.338559
0.335463
0.332463
0.329201
0.326365
0.323134
0.320492
0.317834
0.31562
0.378789
0.388285
0.389802
0.386871
0.379996
0.377274
0.376656
0.376572
0.376513
0.376244
0.375558
0.375123
0.374895
0.374777
0.374702
0.374621
0.374448
0.374196
0.293319
0.203061
0.199673
0.22732
0.263429
0.279851
0.280949
0.276603
0.270995
0.266212
0.25897
0.253928
0.249312
0.241169
0.23711
0.237243
0.23957
0.249117
0.260393
0.270958
0.309283
0.343899
0.323343
0.249558
0.223021
0.217103
0.211975
0.206234
0.203798
0.207856
0.218116
0.229168
0.235957
0.239123
0.242595
0.245772
0.253541
0.276477
0.336736
0.445064
0.532022
0.539636
0.551454
0.573553
0.624363
0.659811
0.632098
0.420098
0.272457
0.232564
0.224343
0.221015
0.220311
0.219997
0.220475
0.220935
0.221676
0.223653
0.225501
0.22824
0.230618
0.231966
0.232559
0.232601
0.231251
0.228658
0.225503
0.221141
0.216903
0.212104
0.204854
0.197598
0.188571
0.179146
0.169556
0.159969
0.150482
0.141641
0.133633
0.126887
0.120918
0.116244
0.113011
0.111202
0.110307
0.109976
0.109692
0.109441
0.10925
0.109187
0.10918
0.109229
0.109268
0.109351
0.109468
0.109602
0.109729
0.109902
0.110033
0.110289
0.110405
0.110582
0.11071
0.110778
0.110888
0.110867
0.110848
0.110807
0.110746
0.110675
0.110613
0.110579
0.110586
0.110658
0.110859
0.111203
0.111729
0.112766
0.114903
0.118156
0.123202
0.131254
0.140691
0.14815
0.151942
0.154314
0.159138
0.171826
0.211478
0.330352
0.435615
0.473894
0.474629
0.44576
0.356733
0.290039
0.261889
0.242985
0.222225
0.217046
0.232446
0.303827
0.551991
0.780608
1.13959
1.78504
2.04853
1.49225
0.47488
0.250285
0.209095
0.19456
0.185772
0.180264
0.177371
0.176011
0.174839
0.173759
0.172846
0.172118
0.171484
0.170925
0.170443
0.169921
0.169292
0.168256
0.167056
0.165679
0.164605
0.163693
0.163266
0.162973
0.16305
0.163969
0.166244
0.167067
0.167938
0.16791
0.168223
0.169153
0.188072
0.0888823
0.26728
0.330235
0.334772
0.332243
0.327101
0.315248
0.303849
0.294693
0.286382
0.278492
0.273768
0.268546
0.257215
0.229332
0.194052
0.160885
0.138097
0.13178
0.139473
0.203027
0.251412
0.241442
0.205937
0.18783
0.175091
0.164096
0.156983
0.154166
0.155265
0.156233
0.156016
0.155436
0.154183
0.147734
0.144141
0.148223
0.192122
0.267316
0.314301
0.304277
0.336663
0.343913
0.329836
0.336259
0.302868
0.216496
0.18212
0.172275
0.167318
0.163781
0.162254
0.161632
0.161626
0.162967
0.164232
0.166095
0.168017
0.169243
0.169926
0.170121
0.169167
0.166875
0.163899
0.159567
0.154778
0.148697
0.142712
0.135869
0.129333
0.122759
0.116526
0.110554
0.105553
0.100877
0.0969309
0.0938647
0.0912341
0.0896539
0.0883448
0.0877857
0.0875966
0.0877379
0.0886004
0.0892435
0.0905911
0.0913309
0.0923235
0.0927759
0.0934541
0.093778
0.0942419
0.0944509
0.0946859
0.0947816
0.094856
0.0948692
0.0948554
0.0948153
0.0947726
0.0947295
0.0946847
0.0946384
0.0945903
0.0945247
0.0943799
0.0941776
0.0938971
0.0934939
0.0929958
0.0924031
0.0917333
0.0910632
0.0905247
0.0901413
0.0896664
0.0884519
0.086309
0.0838402
0.0818706
0.0805375
0.0794625
0.0779593
0.0749075
0.0703399
0.0660573
0.064145
0.0650394
0.0740902
0.0992493
0.146118
0.211278
0.267842
0.281061
0.2677
0.201934
0.144294
0.116481
0.104876
0.105836
0.14357
0.264661
0.290482
0.343834
0.568666
1.30928
1.08643
0.348623
0.212386
0.187075
0.178547
0.174689
0.172718
0.170811
0.169394
0.168712
0.167565
0.164932
0.163482
0.162092
0.160067
0.159039
0.158276
0.1579
0.157242
0.155967
0.152965
0.148585
0.144304
0.139669
0.135001
0.129747
0.122424
0.115012
0.107157
0.102018
0.0981388
0.0973368
0.101228
0.224279
0.335858
0.367066
0.346091
0.296299
0.258214
0.241886
0.237423
0.238763
0.241413
0.245893
0.248954
0.254844
0.261931
0.263004
0.260949
0.254223
0.237471
0.183864
0.140823
0.129591
0.139487
0.198986
0.221595
0.210107
0.192196
0.180182
0.171808
0.167375
0.165715
0.165139
0.164059
0.161889
0.158927
0.155913
0.154816
0.162979
0.19895
0.267026
0.278822
0.239631
0.211704
0.201319
0.171115
0.148252
0.136499
0.112056
0.0975764
0.0904849
0.0860783
0.0835026
0.082311
0.0818955
0.0820485
0.0828063
0.0834529
0.0852123
0.086374
0.0874043
0.0878597
0.0879707
0.0871372
0.0851893
0.0825434
0.0785308
0.0741809
0.06879
0.0633529
0.0576161
0.0520187
0.0473163
0.0424713
0.0387417
0.0348002
0.0318293
0.0292896
0.027425
0.0265289
0.026163
0.0261932
0.0279919
0.0315077
0.0369311
0.0458418
0.0569359
0.068673
0.0781395
0.0864222
0.092546
0.0979583
0.101694
0.105168
0.107603
0.109814
0.111292
0.112536
0.113322
0.113847
0.114109
0.114229
0.114275
0.114322
0.114468
0.114809
0.115337
0.116119
0.117044
0.118053
0.118961
0.119538
0.119823
0.119469
0.118395
0.11647
0.113546
0.109464
0.10457
0.0996747
0.0957476
0.0922012
0.0890444
0.0864807
0.084298
0.0823104
0.0809635
0.0788371
0.0723278
0.0608643
0.0578836
0.0590003
0.0624389
0.0641613
0.0664866
0.0752334
0.115786
0.157158
0.161382
0.154637
0.125304
0.10065
0.0909349
0.0910482
0.105019
0.145218
0.307882
0.827088
1.11728
0.541627
0.214088
0.152959
0.133919
0.114085
0.0982847
0.0870575
0.0820591
0.0999045
0.144335
0.166702
0.174058
0.175493
0.174128
0.171677
0.168435
0.165974
0.164018
0.162954
0.162002
0.160825
0.159211
0.157558
0.154418
0.148398
0.138363
0.12417
0.105215
0.0874402
0.0713778
0.0618053
0.0566322
0.0556362
0.348739
0.395507
0.331544
0.210887
0.183111
0.187773
0.200503
0.214229
0.226915
0.234843
0.239608
0.241161
0.240446
0.239615
0.240283
0.24346
0.245606
0.243735
0.234684
0.201913
0.151737
0.143349
0.150653
0.182214
0.197158
0.192639
0.185798
0.178034
0.169941
0.165336
0.16505
0.168035
0.168369
0.165398
0.160421
0.16197
0.1768
0.22584
0.249466
0.204987
0.147256
0.127582
0.105605
0.0867788
0.0772146
0.068194
0.0606374
0.0571113
0.0547954
0.0531613
0.0526917
0.0525681
0.0525376
0.0527785
0.0535102
0.0545433
0.0555975
0.056089
0.056353
0.0564474
0.0563577
0.0554967
0.0541464
0.0527161
0.050869
0.0491724
0.0475997
0.0462014
0.0452513
0.0448023
0.0446713
0.0449998
0.0475892
0.0528501
0.0618123
0.0741939
0.0841537
0.0963426
0.105625
0.115435
0.122335
0.128666
0.131819
0.133512
0.134046
0.133515
0.133306
0.132813
0.132604
0.13242
0.132151
0.132051
0.132005
0.131994
0.131987
0.132021
0.132068
0.132134
0.132179
0.132211
0.132232
0.132251
0.132269
0.132291
0.132333
0.132403
0.132516
0.1327
0.132893
0.133151
0.133499
0.133907
0.134408
0.134952
0.135424
0.135817
0.135017
0.131847
0.124918
0.114682
0.102853
0.0933992
0.0876356
0.0849156
0.0841106
0.0844977
0.087109
0.092112
0.0965021
0.0978122
0.0970881
0.092156
0.0859461
0.0839469
0.0851051
0.0942966
0.109858
0.113537
0.108545
0.0972412
0.0971496
0.104114
0.118936
0.189045
0.495367
0.884245
0.747459
0.296945
0.169372
0.152487
0.148105
0.165723
0.185961
0.199316
0.204949
0.206394
0.20081
0.195326
0.19105
0.185062
0.180982
0.177089
0.172636
0.168999
0.165439
0.162771
0.160946
0.159689
0.158989
0.158469
0.158106
0.157746
0.157092
0.155585
0.152101
0.145682
0.139674
0.134983
0.133012
0.130784
0.364046
0.301087
0.163035
0.152781
0.167473
0.201313
0.246126
0.2774
0.301465
0.306512
0.303596
0.295225
0.282077
0.265858
0.25138
0.245099
0.243315
0.24194
0.237414
0.226555
0.206186
0.170958
0.148623
0.146374
0.153534
0.170908
0.17394
0.171309
0.163383
0.156929
0.158999
0.17104
0.176692
0.176059
0.169988
0.168516
0.186797
0.22864
0.220881
0.134831
0.0995356
0.0847538
0.0725173
0.0655456
0.0619849
0.0578192
0.0548568
0.0530176
0.0503283
0.0480676
0.0459434
0.0439196
0.043407
0.0433072
0.043389
0.0438781
0.0448592
0.0460953
0.0472827
0.048052
0.0483182
0.0483745
0.0483579
0.0483039
0.0482681
0.0483288
0.0486071
0.0498563
0.0527067
0.0579829
0.0669866
0.081478
0.0946178
0.108697
0.11767
0.124028
0.129364
0.132532
0.134263
0.135004
0.135175
0.13483
0.133693
0.133011
0.131702
0.130498
0.129563
0.128451
0.127613
0.126931
0.126492
0.126334
0.126351
0.126738
0.127006
0.127501
0.128001
0.128621
0.129127
0.129527
0.12975
0.129849
0.129812
0.129656
0.129395
0.129042
0.128602
0.12813
0.127757
0.127518
0.127458
0.127803
0.128695
0.130354
0.132845
0.136307
0.139567
0.142373
0.144179
0.144603
0.141563
0.129743
0.111132
0.0949761
0.0860117
0.081847
0.0805868
0.0808488
0.0834081
0.0901213
0.0944257
0.0949818
0.0946416
0.0931535
0.0895748
0.083392
0.0789807
0.0784733
0.0772048
0.0763138
0.0790149
0.0909526
0.12429
0.260459
0.633937
0.81167
0.468044
0.20875
0.168572
0.170016
0.198244
0.211657
0.215607
0.216238
0.213093
0.208178
0.202638
0.195989
0.191939
0.184588
0.180467
0.175849
0.172749
0.169435
0.166537
0.16342
0.161106
0.159394
0.158115
0.157161
0.156459
0.15597
0.155625
0.155203
0.15405
0.150349
0.143114
0.137118
0.133681
0.132286
0.269303
0.210612
0.118675
0.151796
0.233458
0.304227
0.345715
0.36774
0.380586
0.381141
0.378279
0.369662
0.347132
0.321844
0.296563
0.270656
0.253734
0.246316
0.242039
0.232707
0.215676
0.203471
0.173666
0.146521
0.133194
0.133456
0.136362
0.138814
0.137936
0.140187
0.155885
0.179815
0.19232
0.192561
0.180111
0.171945
0.199343
0.223754
0.180158
0.101799
0.0803565
0.0721068
0.0679018
0.064629
0.0622051
0.0594781
0.0573677
0.0556523
0.0527456
0.0503093
0.0475431
0.0439785
0.0427245
0.0423828
0.0423636
0.0426372
0.0434876
0.044947
0.0466877
0.048136
0.0489349
0.0495395
0.0503062
0.051496
0.053397
0.0566894
0.0625955
0.0726004
0.0841023
0.0977717
0.110105
0.119147
0.127238
0.131847
0.134673
0.135995
0.136524
0.136583
0.135821
0.134699
0.133805
0.132247
0.130934
0.129728
0.128349
0.127058
0.125439
0.123637
0.121863
0.120026
0.118117
0.116045
0.114759
0.113558
0.113139
0.113423
0.114636
0.116929
0.119615
0.122462
0.124519
0.126102
0.127172
0.127691
0.127842
0.12756
0.126956
0.126056
0.124937
0.123598
0.122098
0.12053
0.118979
0.117647
0.116817
0.117
0.120894
0.128507
0.137974
0.145041
0.149548
0.151015
0.148841
0.135187
0.111977
0.0949613
0.0855449
0.0814813
0.0806418
0.081307
0.0851688
0.0885624
0.088956
0.0890185
0.0885172
0.0847937
0.0777908
0.0741919
0.0733773
0.0737124
0.0777053
0.092489
0.137849
0.342384
0.662443
0.646419
0.31607
0.187234
0.176494
0.209581
0.221126
0.223003
0.223328
0.223723
0.221386
0.218416
0.212863
0.202968
0.19731
0.186885
0.180882
0.174509
0.171399
0.168806
0.166878
0.165588
0.163766
0.162059
0.160593
0.15919
0.157817
0.156571
0.155642
0.15491
0.153858
0.151554
0.145035
0.137598
0.132308
0.130313
0.251725
0.188578
0.108554
0.234563
0.318257
0.360603
0.383659
0.395455
0.399485
0.399391
0.397166
0.390598
0.373206
0.339462
0.315581
0.297356
0.276157
0.259599
0.251086
0.24314
0.233803
0.216574
0.180891
0.149651
0.133625
0.128834
0.12843
0.129159
0.13167
0.139299
0.164037
0.195661
0.208093
0.207584
0.18966
0.174694
0.200186
0.216345
0.147658
0.0874921
0.0754709
0.0718675
0.0701188
0.0697182
0.0710944
0.0714331
0.0710458
0.0689693
0.0660107
0.062681
0.0579935
0.0503133
0.0454996
0.0442273
0.0440229
0.0441625
0.044954
0.0467068
0.0493381
0.0522692
0.0550053
0.0578284
0.0617114
0.0676322
0.0744991
0.0840225
0.0942693
0.104194
0.113989
0.122894
0.129574
0.133896
0.136416
0.137465
0.137823
0.137855
0.13742
0.136751
0.135972
0.134996
0.1344
0.133549
0.133041
0.132527
0.131806
0.130709
0.129271
0.127122
0.124809
0.121691
0.119065
0.115615
0.113129
0.109799
0.107608
0.105033
0.102886
0.101216
0.100427
0.101335
0.104544
0.108965
0.113615
0.117477
0.120312
0.122105
0.122893
0.123014
0.122541
0.121558
0.120167
0.118473
0.116604
0.114601
0.112541
0.110262
0.107688
0.106231
0.10889
0.120804
0.137005
0.148997
0.154523
0.155241
0.150048
0.128951
0.105514
0.0913953
0.0845253
0.0821043
0.0819729
0.0823776
0.0815907
0.0795214
0.0795853
0.0794629
0.0770395
0.073533
0.0726064
0.0735831
0.0799812
0.0995656
0.155761
0.403732
0.644058
0.515842
0.245386
0.186626
0.201881
0.225623
0.229037
0.232532
0.237436
0.240437
0.242043
0.241972
0.23798
0.228214
0.215871
0.202526
0.189357
0.17762
0.171721
0.168396
0.16689
0.166365
0.166318
0.166947
0.166529
0.165339
0.163487
0.160949
0.158462
0.156627
0.155058
0.152347
0.145601
0.13689
0.130151
0.127092
0.248566
0.179685
0.114169
0.303507
0.350597
0.377111
0.391742
0.396094
0.393457
0.390523
0.385101
0.373288
0.347191
0.31966
0.300555
0.287821
0.279992
0.272434
0.259308
0.249442
0.242263
0.22917
0.196876
0.159846
0.141149
0.136473
0.136357
0.137816
0.143811
0.159562
0.186535
0.212154
0.22306
0.223073
0.209762
0.182586
0.202952
0.209704
0.121666
0.0819081
0.0759592
0.0747456
0.0780795
0.0792896
0.0791774
0.0772705
0.0756885
0.0731065
0.0711343
0.0685648
0.0659051
0.0625776
0.0590589
0.0540081
0.0517887
0.051534
0.0522661
0.055042
0.060369
0.067715
0.0745866
0.0803426
0.086417
0.0922423
0.0992171
0.106529
0.11479
0.121974
0.128628
0.133583
0.136609
0.137991
0.138566
0.13871
0.138699
0.138498
0.138243
0.138101
0.138279
0.139308
0.141145
0.14331
0.14518
0.146041
0.146309
0.145735
0.144913
0.143099
0.141505
0.138148
0.134607
0.129419
0.12408
0.11886
0.114172
0.109715
0.104924
0.100396
0.0970308
0.0943788
0.0928723
0.0921674
0.0930829
0.095313
0.097663
0.100191
0.10272
0.104872
0.106492
0.107405
0.107665
0.10756
0.10744
0.107612
0.107962
0.107282
0.104506
0.100399
0.0969252
0.0963313
0.102478
0.123645
0.144906
0.155876
0.15832
0.155968
0.140109
0.114113
0.0981569
0.0882365
0.0820793
0.0784707
0.0760504
0.0754162
0.0769401
0.077304
0.0748286
0.0712062
0.0705893
0.0733003
0.0893023
0.115121
0.178355
0.440757
0.596716
0.424056
0.214859
0.18836
0.219045
0.233268
0.238141
0.252363
0.263885
0.270885
0.273994
0.273416
0.27204
0.265583
0.251272
0.2341
0.21415
0.192926
0.177994
0.170458
0.167327
0.166714
0.167097
0.168973
0.173329
0.173701
0.172744
0.169822
0.165456
0.161782
0.159067
0.154881
0.145816
0.135891
0.128445
0.125036
0.247472
0.177088
0.167705
0.324588
0.357007
0.372933
0.36839
0.351106
0.335412
0.326799
0.318489
0.302678
0.293024
0.289153
0.287605
0.281814
0.272393
0.267139
0.266377
0.265537
0.266543
0.26866
0.262637
0.24563
0.23038
0.217228
0.207392
0.200993
0.201056
0.203675
0.211574
0.232327
0.250387
0.261782
0.260962
0.201709
0.208107
0.198304
0.106675
0.0812598
0.0784335
0.0812983
0.0825394
0.0811939
0.0794712
0.0766855
0.0742708
0.0703026
0.0672826
0.0647568
0.0624713
0.0614775
0.0613532
0.0632527
0.06831
0.070169
0.0706474
0.0735728
0.0814644
0.0882733
0.0943017
0.0996218
0.103607
0.108495
0.114225
0.119755
0.125992
0.131025
0.134731
0.137445
0.138633
0.13918
0.139421
0.139524
0.139645
0.139932
0.140657
0.142446
0.146026
0.151845
0.157839
0.16117
0.163178
0.164142
0.164369
0.163063
0.161004
0.158869
0.156368
0.155189
0.153706
0.152616
0.150426
0.146173
0.14064
0.134707
0.125579
0.114713
0.105669
0.0980809
0.0929995
0.0902658
0.0888255
0.0887549
0.0897115
0.0905126
0.0910053
0.0912006
0.0913056
0.0911251
0.0905861
0.0898167
0.089415
0.0896263
0.0908618
0.0935894
0.0954456
0.095222
0.092163
0.0880134
0.086602
0.0904433
0.112093
0.141994
0.15695
0.160335
0.158422
0.144223
0.121177
0.103331
0.0866431
0.0761071
0.0751353
0.0795271
0.0823563
0.0806797
0.0722721
0.0675718
0.0679671
0.0740354
0.104487
0.134925
0.201395
0.456923
0.556086
0.367199
0.203767
0.195215
0.228913
0.239838
0.259283
0.283246
0.297476
0.304888
0.307825
0.305299
0.30119
0.294807
0.286337
0.269741
0.25021
0.225323
0.196337
0.17863
0.170103
0.167574
0.167588
0.169358
0.175887
0.181708
0.182299
0.181165
0.176733
0.170768
0.166633
0.159681
0.147321
0.135
0.125857
0.122149
0.250553
0.178683
0.201708
0.323131
0.330868
0.311927
0.26764
0.240458
0.2358
0.243358
0.256299
0.261818
0.268416
0.278196
0.288971
0.301216
0.31721
0.330058
0.334337
0.33472
0.332453
0.321124
0.301002
0.286662
0.278203
0.269427
0.261148
0.256298
0.256266
0.262286
0.278498
0.325033
0.367379
0.363604
0.282762
0.204652
0.208004
0.177684
0.0952857
0.0825828
0.0830117
0.0839684
0.0825965
0.0799972
0.0780124
0.0751359
0.0711493
0.0662641
0.0639236
0.0626614
0.0617067
0.0614645
0.0617129
0.0635516
0.067687
0.0744501
0.0845957
0.0916198
0.0954945
0.101953
0.107203
0.111043
0.115124
0.118846
0.122868
0.127094
0.131125
0.134852
0.136926
0.138211
0.138992
0.139483
0.139852
0.140254
0.14105
0.142492
0.145479
0.150951
0.159777
0.1704
0.175846
0.179292
0.181092
0.181511
0.177719
0.175546
0.169623
0.167137
0.162798
0.160795
0.159311
0.158875
0.159812
0.161452
0.162115
0.161116
0.157623
0.149065
0.134466
0.118942
0.10361
0.0937919
0.0888125
0.0869618
0.0871264
0.0882839
0.0891534
0.0896162
0.0895768
0.0890571
0.0880459
0.0867924
0.0858148
0.0853927
0.0853541
0.0854574
0.0849911
0.0831471
0.0808933
0.0792409
0.077932
0.0775187
0.0821194
0.109791
0.144062
0.159057
0.161909
0.159245
0.144829
0.122427
0.0998086
0.0838882
0.081696
0.0862375
0.0885256
0.0861723
0.0752562
0.0691033
0.0697229
0.0775646
0.121025
0.157928
0.223799
0.459099
0.522484
0.333725
0.201178
0.20416
0.23929
0.254402
0.291847
0.314746
0.327854
0.333523
0.334539
0.332205
0.326115
0.316356
0.303267
0.291855
0.275316
0.257544
0.22882
0.196068
0.177787
0.170332
0.168869
0.169846
0.175758
0.184555
0.188461
0.188795
0.187574
0.182769
0.177421
0.168402
0.15142
0.134264
0.120945
0.115792
0.259585
0.176168
0.205411
0.291274
0.295089
0.273759
0.2041
0.168789
0.160882
0.171831
0.199583
0.220622
0.239923
0.258856
0.273991
0.283999
0.293126
0.299198
0.307925
0.325165
0.343188
0.355909
0.362796
0.362541
0.361485
0.363073
0.372947
0.399765
0.438663
0.472573
0.492199
0.486928
0.436665
0.363414
0.254775
0.201733
0.201075
0.131046
0.089886
0.0850482
0.0847685
0.0838007
0.0810295
0.0790729
0.0776256
0.0750041
0.0707462
0.0674406
0.0665751
0.0672835
0.0681893
0.0686069
0.0689517
0.0694783
0.0707627
0.0741233
0.0811479
0.0961204
0.10631
0.111691
0.116819
0.119694
0.121374
0.123843
0.127356
0.13107
0.133683
0.135645
0.136979
0.138183
0.138991
0.139878
0.140926
0.142072
0.144821
0.148983
0.156649
0.16909
0.185603
0.197402
0.205254
0.214746
0.21957
0.221265
0.215107
0.204084
0.186717
0.177521
0.169307
0.164511
0.161747
0.160448
0.160686
0.16396
0.166755
0.167699
0.16718
0.164683
0.157698
0.146133
0.131754
0.111288
0.0949525
0.0874615
0.0850572
0.0855116
0.0877976
0.0892441
0.0899467
0.090211
0.0899389
0.0890275
0.0880854
0.087496
0.0869571
0.0860779
0.0845986
0.0811476
0.0760932
0.0716437
0.0692812
0.0691101
0.0709567
0.0823179
0.120786
0.150724
0.162046
0.163224
0.158767
0.139564
0.114588
0.0971784
0.0910809
0.0913337
0.0924832
0.0916238
0.0843714
0.0763758
0.076704
0.0843079
0.133356
0.179125
0.242245
0.452251
0.495279
0.315463
0.20142
0.215648
0.244782
0.272468
0.316946
0.339256
0.349142
0.352311
0.350629
0.348144
0.345375
0.336274
0.321723
0.302382
0.286516
0.270546
0.255097
0.222871
0.192063
0.17648
0.171584
0.171463
0.175145
0.184602
0.189807
0.191111
0.190835
0.188907
0.184563
0.17607
0.15599
0.133468
0.114377
0.105591
0.262902
0.168219
0.192165
0.274903
0.285062
0.269168
0.197097
0.156442
0.149525
0.155195
0.181455
0.213811
0.239028
0.258671
0.276749
0.294
0.311198
0.326908
0.34647
0.370138
0.398107
0.429488
0.464321
0.499239
0.527317
0.548284
0.563378
0.575967
0.576426
0.561749
0.529065
0.48133
0.405032
0.294366
0.217194
0.19456
0.171682
0.104546
0.0881677
0.0853897
0.0844779
0.0821364
0.0805949
0.0793967
0.0783334
0.0765506
0.0751095
0.0763202
0.0820669
0.0896061
0.0931207
0.0946223
0.0950425
0.0944204
0.0918311
0.0898041
0.0892992
0.102374
0.112812
0.117529
0.12115
0.124401
0.126203
0.127712
0.129851
0.132424
0.134391
0.135522
0.136704
0.137913
0.138778
0.139804
0.141479
0.143788
0.147483
0.153606
0.165651
0.184839
0.206905
0.224183
0.240614
0.257427
0.265569
0.268719
0.265825
0.255954
0.236322
0.204548
0.182747
0.169958
0.163994
0.161239
0.160264
0.16321
0.167268
0.169027
0.169157
0.168132
0.163555
0.15304
0.143483
0.133581
0.115083
0.0951285
0.0856941
0.0826608
0.0830115
0.0866487
0.0893906
0.0907523
0.0913217
0.09147
0.0914847
0.0916478
0.0921188
0.0922056
0.0905514
0.085857
0.0787934
0.0720202
0.0679019
0.0668018
0.0673689
0.0721556
0.0966359
0.13637
0.158385
0.164842
0.164279
0.155826
0.129392
0.106455
0.0956862
0.0931043
0.0931425
0.0927209
0.0874715
0.0791484
0.0798303
0.0877099
0.144377
0.206569
0.277041
0.454071
0.474022
0.310159
0.20259
0.220153
0.255329
0.296057
0.337386
0.356315
0.364991
0.363643
0.359331
0.356206
0.355077
0.35013
0.337275
0.317177
0.294872
0.276975
0.262859
0.246868
0.211592
0.186542
0.175969
0.173964
0.17546
0.183292
0.189697
0.191415
0.191323
0.189944
0.186058
0.177656
0.15722
0.129968
0.109349
0.099048
0.264197
0.16316
0.186487
0.264699
0.276838
0.269186
0.207804
0.170454
0.167895
0.172955
0.193397
0.226307
0.247681
0.255559
0.258629
0.264189
0.283465
0.316999
0.347554
0.373805
0.408096
0.450279
0.494875
0.534188
0.561074
0.574154
0.579482
0.580344
0.564462
0.531994
0.476539
0.384037
0.288415
0.228911
0.197525
0.174157
0.120318
0.0939082
0.0870381
0.0847236
0.082987
0.0820093
0.0813819
0.0815887
0.0830153
0.0866161
0.0956698
0.10861
0.117854
0.122049
0.124375
0.125344
0.125536
0.124223
0.121395
0.119985
0.119245
0.121897
0.124606
0.126277
0.127589
0.128711
0.129405
0.130018
0.131053
0.132808
0.134303
0.135146
0.135897
0.137269
0.138255
0.139289
0.141234
0.143778
0.148299
0.155577
0.170352
0.195201
0.224029
0.246849
0.262872
0.275792
0.281696
0.284007
0.28163
0.27518
0.26202
0.238224
0.208679
0.182067
0.167979
0.161744
0.159789
0.160583
0.165884
0.169024
0.169492
0.168894
0.165054
0.154383
0.144477
0.137157
0.129212
0.11352
0.093966
0.0837877
0.0802867
0.0803853
0.0845798
0.0886304
0.0906462
0.0913941
0.0916824
0.0920884
0.093026
0.0943264
0.0952201
0.0947224
0.091009
0.0812339
0.07205
0.0677036
0.0672983
0.0695815
0.0807588
0.117881
0.150117
0.164313
0.166852
0.164428
0.148445
0.11893
0.101552
0.0944333
0.0930661
0.0921536
0.0870831
0.0793024
0.0809159
0.0902635
0.145612
0.256226
0.339066
0.460415
0.463531
0.311028
0.204982
0.223599
0.261791
0.311669
0.352314
0.370333
0.373815
0.37143
0.364652
0.361456
0.360901
0.357914
0.349702
0.33327
0.30723
0.282467
0.265675
0.253787
0.232592
0.199803
0.182039
0.176649
0.176688
0.18138
0.188672
0.190973
0.191
0.189751
0.185879
0.176928
0.153607
0.125629
0.106658
0.0976504
0.264442
0.156514
0.178897
0.243076
0.258601
0.263348
0.22781
0.184111
0.176069
0.179691
0.196876
0.209613
0.211033
0.211361
0.21517
0.226252
0.244178
0.266029
0.29207
0.318488
0.34219
0.368956
0.402312
0.43848
0.467428
0.482769
0.488151
0.471799
0.434865
0.381084
0.317771
0.263656
0.220781
0.192117
0.163712
0.128868
0.100877
0.0894379
0.0851367
0.0833573
0.0833642
0.0833917
0.0851665
0.0904569
0.102441
0.11913
0.133747
0.141092
0.145593
0.148692
0.150439
0.151084
0.1512
0.150665
0.14902
0.146883
0.144159
0.141286
0.13853
0.136313
0.134994
0.134346
0.133863
0.133446
0.133418
0.133779
0.134405
0.134862
0.135006
0.135585
0.137143
0.138394
0.14043
0.14319
0.147503
0.153818
0.166944
0.190499
0.219646
0.24446
0.261332
0.273719
0.282132
0.285668
0.284545
0.279651
0.26854
0.247529
0.218776
0.189274
0.170025
0.161759
0.158311
0.158081
0.162485
0.168202
0.169422
0.168834
0.164447
0.151601
0.139161
0.133542
0.129592
0.122377
0.107841
0.09095
0.0813123
0.0777952
0.0778545
0.0820484
0.0868125
0.0890352
0.0898601
0.0904897
0.0917182
0.0938292
0.0959918
0.0972503
0.0972261
0.0951739
0.0856383
0.0744412
0.0702787
0.0705415
0.0761495
0.100029
0.138261
0.160755
0.168102
0.168255
0.162291
0.136786
0.111337
0.0984164
0.0943528
0.0923613
0.0863353
0.0797952
0.081945
0.0922931
0.146981
0.305849
0.396608
0.469768
0.463302
0.314305
0.20934
0.223819
0.267876
0.323637
0.360982
0.380513
0.381926
0.377592
0.372697
0.36987
0.368096
0.364207
0.358148
0.346556
0.321665
0.289873
0.267519
0.254797
0.242854
0.214496
0.189985
0.179877
0.178411
0.180802
0.187033
0.189412
0.18936
0.187742
0.183095
0.171584
0.145756
0.12082
0.105135
0.097547
0.264101
0.151358
0.175063
0.229451
0.234727
0.246264
0.236956
0.189887
0.174058
0.172481
0.174445
0.18149
0.186766
0.188116
0.188487
0.189512
0.196529
0.212632
0.235096
0.258045
0.276464
0.290542
0.303991
0.315745
0.322397
0.32484
0.318365
0.305102
0.282657
0.255614
0.227229
0.203754
0.176066
0.151826
0.127228
0.102112
0.0895852
0.0840281
0.0815126
0.0845363
0.0861585
0.0899106
0.10014
0.117469
0.133388
0.143621
0.149853
0.152744
0.154489
0.15612
0.156953
0.15759
0.158641
0.159926
0.161662
0.162799
0.163111
0.163155
0.162568
0.159728
0.154229
0.148496
0.144083
0.141063
0.139177
0.137357
0.136175
0.13562
0.135262
0.135115
0.135363
0.136193
0.138162
0.141589
0.145844
0.150587
0.157782
0.17355
0.203491
0.230963
0.251019
0.263492
0.274324
0.276912
0.275487
0.270677
0.260231
0.246436
0.219936
0.190283
0.169092
0.158323
0.154784
0.154793
0.160838
0.167427
0.168641
0.166895
0.158099
0.142665
0.133314
0.126234
0.122866
0.120989
0.115474
0.100713
0.0862985
0.0781646
0.0752583
0.0755218
0.0796695
0.0838804
0.0854443
0.0860961
0.0872505
0.0904115
0.0951733
0.0982483
0.0993664