/*--------------------------------*- C++ -*----------------------------------*\
| =========                 |                                                 |
| \\      /  F ield         | OpenFOAM: The Open Source CFD Toolbox           |
|  \\    /   O peration     | Version:  2112                                  |
|   \\  /    A nd           | Website:  www.openfoam.com                      |
|    \\/     M anipulation  |                                                 |
\*---------------------------------------------------------------------------*/
FoamFile
{
    version     2.0;
    format      ascii;
    arch        "LSB;label=32;scalar=64";
    class       volVectorField;
    location    "0.13";
    object      U_0;
}
// * * * * * * * * * * * * * * * * * * * * * * * * * * * * * * * * * * * * * //

dimensions      [0 1 -1 0 0 0 0];

internalField   nonuniform List<vector> 
12225
(
(9.89241 0.000751626 0)
(9.55943 0.0405548 0)
(9.22766 0.0518186 0)
(8.93707 0.0546289 0)
(8.6833 0.0595752 0)
(8.4071 0.0676002 0)
(8.106 0.0714143 0)
(7.81069 0.0646071 0)
(7.57119 0.051801 0)
(7.35302 0.0445154 0)
(7.17782 0.049622 0)
(6.9189 0.0721187 0)
(6.67106 0.0821414 0)
(6.29646 0.107029 0)
(5.96899 0.0776714 0)
(5.6894 0.0916515 0)
(5.20774 0.0781283 0)
(5.35725 0.0558913 0)
(10.0155 0.14026 0)
(10.0429 0.122355 0)
(10.0442 0.080933 0)
(10.0763 0.0602969 0)
(10.1115 0.0609749 0)
(10.1142 0.0707656 0)
(10.1102 0.0798743 0)
(10.1159 0.0793452 0)
(10.1361 0.0754197 0)
(10.1156 0.070343 0)
(10.0605 0.0786192 0)
(9.93477 0.0918172 0)
(9.79774 0.114677 0)
(9.63453 0.136069 0)
(9.49139 0.13817 0)
(9.39291 0.158514 0)
(9.26778 0.147764 0)
(9.32949 0.173878 0)
(10.3086 0.0398405 0)
(10.3094 0.0901902 0)
(10.2222 0.0546269 0)
(10.1405 0.0409918 0)
(10.1033 0.0564616 0)
(10.0913 0.0730834 0)
(10.1001 0.0742441 0)
(10.1205 0.0610762 0)
(10.1467 0.0529926 0)
(10.1654 0.0660488 0)
(10.1748 0.100635 0)
(10.1655 0.151829 0)
(10.1372 0.186968 0)
(10.0969 0.21146 0)
(10.0532 0.201978 0)
(10.0164 0.177024 0)
(9.99841 0.156536 0)
(10.0279 0.139629 0)
(9.82959 0.102423 0)
(9.96539 0.142244 0)
(10.0344 0.110869 0)
(10.0612 0.0822099 0)
(10.0734 0.0697739 0)
(10.0599 0.0667571 0)
(10.0247 0.067034 0)
(9.98293 0.0637555 0)
(9.94672 0.0606558 0)
(9.92724 0.0648959 0)
(9.93291 0.0841953 0)
(9.96342 0.117581 0)
(10.0081 0.14943 0)
(10.0538 0.174306 0)
(10.0917 0.175617 0)
(10.1191 0.169376 0)
(10.1352 0.158887 0)
(10.1516 0.126482 0)
(10.0044 0.0501898 0)
(10.0558 0.0774656 0)
(9.96862 0.0435558 0)
(9.89374 0.0332487 0)
(9.90142 0.0582601 0)
(9.94603 0.0881042 0)
(9.98948 0.10027 0)
(10.0176 0.0918671 0)
(10.0246 0.0761781 0)
(10.0143 0.0718027 0)
(9.99641 0.0865072 0)
(9.98231 0.117085 0)
(9.98183 0.147708 0)
(9.98917 0.167585 0)
(10.0001 0.171478 0)
(10.0113 0.160114 0)
(10.0223 0.13831 0)
(10.0336 0.103555 0)
(9.86735 0.0755746 0)
(10.0107 0.123671 0)
(10.0711 0.147446 0)
(10.0923 0.107196 0)
(10.1047 0.0604987 0)
(10.1132 0.0380659 0)
(10.1245 0.0389233 0)
(10.1323 0.0480658 0)
(10.1219 0.0582055 0)
(10.0942 0.0723145 0)
(10.0673 0.0933454 0)
(10.056 0.12169 0)
(10.0607 0.148701 0)
(10.0747 0.167853 0)
(10.0914 0.174601 0)
(10.0978 0.165134 0)
(10.0957 0.144478 0)
(10.0901 0.109738 0)
(9.98679 0.0427538 0)
(9.86372 0.0565888 0)
(9.9821 0.026685 0)
(10.166 0.0187264 0)
(10.2778 0.0448048 0)
(10.2936 0.0765991 0)
(10.2563 0.0959369 0)
(10.2019 0.100263 0)
(10.1409 0.0969677 0)
(10.0784 0.0964899 0)
(10.0236 0.104467 0)
(9.98326 0.120853 0)
(9.9623 0.139639 0)
(9.95613 0.152729 0)
(9.96063 0.156675 0)
(9.97274 0.149887 0)
(9.98921 0.131283 0)
(10.0031 0.0999781 0)
(9.79766 0.127399 0)
(9.90027 0.110368 0)
(9.88044 0.0241733 0)
(9.91331 0.0114077 0)
(10.0145 0.0282577 0)
(10.1229 0.0491476 0)
(10.1939 0.069855 0)
(10.202 0.0893893 0)
(10.1475 0.106386 0)
(10.0606 0.121775 0)
(9.98055 0.136569 0)
(9.93103 0.150764 0)
(9.91649 0.162264 0)
(9.92912 0.167415 0)
(9.95612 0.164083 0)
(9.98626 0.150362 0)
(10.0118 0.12737 0)
(10.021 0.0963464 0)
(9.90696 0.00609879 0)
(9.9942 0.062304 0)
(9.97467 0.023103 0)
(10.0076 -0.0226155 0)
(10.0855 -0.0386216 0)
(10.1246 -0.00424308 0)
(10.1023 0.0630414 0)
(10.0444 0.128978 0)
(9.98746 0.169145 0)
(9.95794 0.17934 0)
(9.9633 0.169717 0)
(9.99583 0.15392 0)
(10.0404 0.14075 0)
(10.0849 0.131656 0)
(10.119 0.125135 0)
(10.1376 0.117089 0)
(10.1402 0.107044 0)
(10.1267 0.0923587 0)
(9.77123 0.175788 0)
(9.95304 0.0558878 0)
(10.0515 -0.00986443 0)
(10.0536 -0.024329 0)
(10.0098 -0.00409363 0)
(9.95472 0.049386 0)
(9.90841 0.106165 0)
(9.88345 0.136509 0)
(9.88434 0.136799 0)
(9.90951 0.121568 0)
(9.95083 0.106855 0)
(9.99802 0.10172 0)
(10.0405 0.106955 0)
(10.0723 0.117684 0)
(10.0886 0.128368 0)
(10.0906 0.133822 0)
(10.076 0.133681 0)
(10.0489 0.127371 0)
(10.0742 0.0353719 0)
(10.1948 -0.0210983 0)
(10.1396 0.000135436 0)
(10.0554 0.00429606 0)
(9.95314 0.00358849 0)
(9.87984 0.0352776 0)
(9.87897 0.0968263 0)
(9.94239 0.149058 0)
(10.0298 0.167029 0)
(10.1018 0.154857 0)
(10.1371 0.130084 0)
(10.1371 0.109285 0)
(10.1156 0.100756 0)
(10.0884 0.103988 0)
(10.0642 0.114656 0)
(10.0433 0.126777 0)
(10.0208 0.137841 0)
(9.99099 0.143725 0)
(9.80176 0.00144785 0)
(9.74267 0.0104705 0)
(9.83172 0.0247454 0)
(9.95064 0.0533509 0)
(9.97158 0.0798093 0)
(9.91895 0.0865415 0)
(9.88703 0.0734268 0)
(9.92733 0.0540839 0)
(10.024 0.0446479 0)
(10.1303 0.0548681 0)
(10.203 0.0807454 0)
(10.2231 0.110275 0)
(10.2 0.133924 0)
(10.1528 0.148746 0)
(10.0999 0.157731 0)
(10.0511 0.164054 0)
(10.0133 0.172253 0)
(9.98086 0.182146 0)
(10.0139 0.101656 0)
(9.92841 0.00199022 0)
(9.84149 -0.0702436 0)
(9.82951 -0.0500752 0)
(9.86575 0.0120853 0)
(9.90296 0.0668944 0)
(9.92178 0.0897617 0)
(9.93566 0.0816828 0)
(9.96129 0.0646395 0)
(9.99924 0.0618586 0)
(10.0368 0.080726 0)
(10.0609 0.112781 0)
(10.0669 0.145643 0)
(10.0581 0.16988 0)
(10.0431 0.183205 0)
(10.0275 0.187338 0)
(10.0151 0.188075 0)
(10.0028 0.190394 0)
(10.2728 -0.0759431 0)
(10.2217 0.0900502 0)
(10.055 0.0810324 0)
(9.84404 0.0376833 0)
(9.70738 0.050999 0)
(9.69285 0.0733444 0)
(9.76113 0.061294 0)
(9.84502 0.0233961 0)
(9.90421 -0.00578807 0)
(9.92774 -0.00196484 0)
(9.92343 0.0352866 0)
(9.90783 0.0872452 0)
(9.89664 0.133599 0)
(9.89913 0.163619 0)
(9.91637 0.179053 0)
(9.94058 0.186189 0)
(9.96467 0.19489 0)
(9.97773 0.210425 0)
(10.2232 0.125507 0)
(10.0924 0.197802 0)
(10.011 0.212336 0)
(9.93218 0.166853 0)
(9.90107 0.0985216 0)
(9.94247 0.0254708 0)
(10.0125 -0.0231607 0)
(10.0576 -0.0285374 0)
(10.0623 0.00625302 0)
(10.0419 0.061213 0)
(10.0168 0.112859 0)
(9.99968 0.146147 0)
(9.99423 0.158448 0)
(9.99623 0.153317 0)
(10.002 0.141562 0)
(10.0083 0.134173 0)
(10.014 0.141062 0)
(10.0178 0.167076 0)
(9.96717 0.232648 0)
(10.0944 0.213159 0)
(10.1246 0.121619 0)
(10.1194 0.0507325 0)
(10.0695 0.0113344 0)
(10.0209 -0.00638658 0)
(10.0043 -0.0126046 0)
(10.0165 -0.00818879 0)
(10.0491 0.00775907 0)
(10.0915 0.0330909 0)
(10.1294 0.0639586 0)
(10.1533 0.0972022 0)
(10.1617 0.127585 0)
(10.1556 0.150416 0)
(10.1346 0.166273 0)
(10.1028 0.179036 0)
(10.0635 0.193981 0)
(10.0271 0.217037 0)
(10.1434 -0.0269604 0)
(10.1807 0.110258 0)
(10.1443 0.262099 0)
(10.0843 0.297252 0)
(10.0342 0.228113 0)
(10.0122 0.101889 0)
(10.0142 -0.0244009 0)
(10.0246 -0.0964113 0)
(10.0281 -0.0950305 0)
(10.0185 -0.0391125 0)
(10.0027 0.0375881 0)
(9.9879 0.108936 0)
(9.97585 0.163283 0)
(9.96521 0.201322 0)
(9.9551 0.226691 0)
(9.94443 0.245354 0)
(9.93206 0.261748 0)
(9.91907 0.281002 0)
(9.89619 0.0321189 0)
(9.85294 0.24499 0)
(9.86147 0.19491 0)
(9.98735 0.0842541 0)
(10.1229 0.0171589 0)
(10.2027 -0.0153697 0)
(10.2243 -0.0203251 0)
(10.2018 0.00229949 0)
(10.1494 0.0444449 0)
(10.0896 0.0911051 0)
(10.044 0.128327 0)
(10.0219 0.150672 0)
(10.0207 0.162439 0)
(10.0317 0.172326 0)
(10.0473 0.185897 0)
(10.0615 0.20595 0)
(10.0733 0.230515 0)
(10.0812 0.255558 0)
(9.92509 0.090915 0)
(9.95518 0.0352875 0)
(10.0333 0.0147267 0)
(10.1046 0.016913 0)
(10.1177 -0.01361 0)
(10.0694 -0.042252 0)
(10.0058 -0.0298109 0)
(9.9583 0.0209805 0)
(9.93666 0.0798088 0)
(9.94091 0.120056 0)
(9.96271 0.135933 0)
(9.98868 0.137709 0)
(10.0081 0.138649 0)
(10.0187 0.147366 0)
(10.0246 0.165643 0)
(10.0317 0.190142 0)
(10.0446 0.215457 0)
(10.0652 0.237365 0)
(10.1493 -0.0646883 0)
(10.121 -0.0140068 0)
(10.0928 0.00266009 0)
(10.0852 0.00734689 0)
(10.1082 0.0601727 0)
(10.1101 0.130047 0)
(10.0737 0.158855 0)
(10.021 0.132771 0)
(9.96921 0.0833261 0)
(9.93141 0.0481546 0)
(9.92108 0.0449393 0)
(9.94201 0.0689039 0)
(9.98676 0.104881 0)
(10.0448 0.138205 0)
(10.1064 0.15843 0)
(10.163 0.163131 0)
(10.2085 0.155138 0)
(10.2395 0.145266 0)
(9.90344 0.0971761 0)
(9.82874 0.0876524 0)
(9.8155 0.043566 0)
(9.86086 -0.0027267 0)
(9.92488 -0.0112643 0)
(9.98329 0.0309523 0)
(10.0334 0.10815 0)
(10.06 0.176312 0)
(10.0518 0.197086 0)
(10.0217 0.163071 0)
(9.99625 0.0936545 0)
(9.99308 0.018747 0)
(10.0126 -0.0362937 0)
(10.0456 -0.0580188 0)
(10.0793 -0.0451817 0)
(10.1048 -0.00502926 0)
(10.1152 0.051812 0)
(10.1119 0.111454 0)
(9.96599 0.325582 0)
(9.98196 0.102487 0)
(10.0034 -0.0683952 0)
(10.0341 -0.0969249 0)
(10.0386 -0.066909 0)
(10.025 -0.00460389 0)
(10.0203 0.0737826 0)
(10.0366 0.137133 0)
(10.0683 0.160046 0)
(10.1041 0.139 0)
(10.1321 0.0905364 0)
(10.1441 0.0407163 0)
(10.1405 0.0110947 0)
(10.1272 0.0126464 0)
(10.1123 0.0424916 0)
(10.101 0.0881182 0)
(10.0974 0.137533 0)
(10.1023 0.178285 0)
(9.87365 0.156322 0)
(10.012 -0.00476747 0)
(9.99773 -0.0308242 0)
(9.95863 -0.0238834 0)
(9.90328 -0.00591669 0)
(9.85668 0.0322793 0)
(9.85375 0.0790267 0)
(9.90112 0.110709 0)
(9.98446 0.111742 0)
(10.0824 0.0854589 0)
(10.1713 0.0473398 0)
(10.2337 0.0133553 0)
(10.2642 -0.00666766 0)
(10.269 -0.00970828 0)
(10.2595 0.00288676 0)
(10.2483 0.0264016 0)
(10.2453 0.0546524 0)
(10.2551 0.081714 0)
(9.90403 -0.10282 0)
(9.86679 -0.080592 0)
(9.90608 -0.00884207 0)
(9.95708 0.00861072 0)
(9.98106 0.0220409 0)
(9.99078 0.0408141 0)
(10.0122 0.0469335 0)
(10.042 0.0299396 0)
(10.0634 -0.00536868 0)
(10.0732 -0.0428193 0)
(10.0795 -0.0644228 0)
(10.0911 -0.0604966 0)
(10.1116 -0.0318624 0)
(10.1397 0.0118924 0)
(10.1702 0.0574216 0)
(10.1981 0.0957329 0)
(10.2192 0.121258 0)
(10.2329 0.132858 0)
(10.0062 -0.0893634 0)
(9.86127 -0.0400613 0)
(9.87348 -0.0952732 0)
(9.93224 -0.0746219 0)
(9.97297 -0.0258031 0)
(9.99312 0.00730158 0)
(10.0031 0.0329475 0)
(10.0029 0.0558916 0)
(9.99425 0.066635 0)
(9.98483 0.0550357 0)
(9.97888 0.0221373 0)
(9.97846 -0.0182765 0)
(9.98881 -0.0492383 0)
(10.0149 -0.0587672 0)
(10.0566 -0.044483 0)
(10.1084 -0.0143032 0)
(10.1648 0.0227925 0)
(10.2195 0.0571331 0)
(9.95251 -0.0114011 0)
(9.98679 0.0286064 0)
(10.0269 -0.0443886 0)
(10.0215 -0.0544575 0)
(9.96946 -0.0193465 0)
(9.90673 0.0217472 0)
(9.88158 0.046657 0)
(9.91504 0.0436841 0)
(9.99342 0.0170552 0)
(10.0841 -0.0196682 0)
(10.1542 -0.0527151 0)
(10.1866 -0.0718144 0)
(10.1839 -0.0736655 0)
(10.1613 -0.0616541 0)
(10.1375 -0.0416148 0)
(10.1253 -0.0185306 0)
(10.1292 0.00454143 0)
(10.1495 0.0254982 0)
(9.71489 0.0118168 0)
(9.87291 -0.118129 0)
(10.0654 -0.12323 0)
(10.1278 -0.0482583 0)
(10.0491 0.0267681 0)
(9.966 0.0506189 0)
(9.95973 0.0268655 0)
(10.0181 -0.0134431 0)
(10.0966 -0.0419213 0)
(10.1606 -0.0504329 0)
(10.1949 -0.0450056 0)
(10.2019 -0.0346103 0)
(10.1949 -0.0249248 0)
(10.1879 -0.0178698 0)
(10.1896 -0.0125266 0)
(10.2026 -0.00743731 0)
(10.2259 -0.0015213 0)
(10.2585 0.00551847 0)
(10.175 0.0364886 0)
(10.0603 -0.12772 0)
(9.97394 -0.128441 0)
(9.97414 -0.0260585 0)
(10.0164 0.0597914 0)
(10.0818 0.0686191 0)
(10.1384 0.021605 0)
(10.1581 -0.0338836 0)
(10.1505 -0.0703867 0)
(10.1441 -0.0844914 0)
(10.1557 -0.0839158 0)
(10.1819 -0.0766321 0)
(10.2112 -0.0673387 0)
(10.2335 -0.058288 0)
(10.2449 -0.0499894 0)
(10.2481 -0.0422455 0)
(10.2486 -0.0348272 0)
(10.2527 -0.0276062 0)
(10.0269 -0.00536935 0)
(10.0301 -0.0990051 0)
(9.84225 -0.115692 0)
(9.76221 -0.0640993 0)
(9.84684 -0.0185891 0)
(10.0124 -0.000724131 0)
(10.1652 -0.00434632 0)
(10.2549 -0.0174383 0)
(10.2787 -0.0342138 0)
(10.2589 -0.0498673 0)
(10.221 -0.0591412 0)
(10.1844 -0.0589162 0)
(10.1602 -0.0503113 0)
(10.1525 -0.037608 0)
(10.1582 -0.0254119 0)
(10.1729 -0.0166882 0)
(10.1908 -0.0124209 0)
(10.2103 -0.0123718 0)
(10.0618 -0.0478663 0)
(9.87657 -0.0376649 0)
(9.59674 -0.0220911 0)
(9.40104 -0.0231469 0)
(9.2922 -0.0347727 0)
(9.21 -0.0516973 0)
(9.11124 -0.0675076 0)
(8.9848 -0.0740341 0)
(8.8411 -0.069965 0)
(8.69429 -0.0616524 0)
(8.55094 -0.0560277 0)
(8.4139 -0.0553173 0)
(8.28616 -0.057263 0)
(8.17265 -0.0584494 0)
(8.07462 -0.0570882 0)
(7.99281 -0.053369 0)
(7.92302 -0.0479845 0)
(7.86518 -0.0425818 0)
(-0.0325792 0.0425085 -4.27168e-20)
(-0.110309 0.0276458 4.24035e-20)
(-0.141341 -0.0129572 0)
(0.0473545 -0.16832 0)
(0.443944 -0.346246 0)
(0.941635 -0.462724 -4.0944e-20)
(1.47673 -0.507433 0)
(2.00597 -0.492479 0)
(2.49094 -0.437647 0)
(2.90163 -0.360206 0)
(3.22332 -0.273737 3.9822e-20)
(3.44873 -0.186383 0)
(3.58174 -0.0944773 0)
(3.61623 -0.00374265 0)
(3.55438 0.0710941 0)
(3.40952 0.131527 3.87598e-20)
(3.21445 0.171688 0)
(3.00701 0.207887 0)
(2.75443 0.231906 0)
(2.48532 0.237928 0)
(2.21607 0.31872 0)
(1.81579 0.422273 0)
(1.27932 0.449864 0)
(0.742393 0.432402 3.66859e-20)
(0.256342 0.390032 -3.65132e-20)
(-0.177425 0.332144 3.63108e-20)
(-0.53495 0.271989 3.60642e-20)
(-0.795009 0.204885 0)
(-0.968418 0.145849 0)
(-1.06631 0.102827 -3.53058e-20)
(-1.10719 0.07164 -3.50336e-20)
(-1.10922 0.0354439 0)
(-1.07943 -0.0193994 0)
(-1.01199 -0.0897721 -3.41422e-20)
(-0.909753 -0.155831 0)
(-0.77462 -0.193308 0)
(-0.603282 -0.190404 3.32829e-20)
(-0.400909 -0.147254 0)
(-0.204961 -0.067521 3.27789e-20)
(-0.0574588 -0.022257 6.51096e-20)
(0.0888519 -0.152484 0)
(0.39844 -0.454516 0)
(0.659708 -0.695772 0)
(0.769375 -0.952386 0)
(0.759636 -0.915252 0)
(0.743927 -0.464156 6.2338e-20)
(0.510969 0.345884 6.18033e-20)
(-0.199469 0.823614 6.12567e-20)
(-0.740675 0.359979 0)
(-0.930717 0.295505 -6.03539e-20)
(-1.28582 0.238167 0)
(-1.45055 0.128017 5.95483e-20)
(-1.6059 0.122781 5.91628e-20)
(-1.74451 0.0452008 0)
(-1.80907 0.0268831 0)
(-1.89402 -0.00694327 0)
(-1.9399 -0.0285728 5.76606e-20)
(-1.99634 -0.0318755 0)
(-2.06228 -0.0343805 0)
(-2.14369 -0.0160777 0)
(-2.26415 0.00813376 0)
(-2.4206 0.0461961 0)
(-2.63177 0.0922986 0)
(-2.89725 0.144112 0)
(-3.22258 0.199358 0)
(-3.60707 0.253761 -5.39545e-20)
(-4.04796 0.305166 0)
(-4.54057 0.34886 0)
(-5.07553 0.382677 5.2811e-20)
(-5.6432 0.405898 5.25043e-20)
(-6.23249 0.418723 0)
(-6.83342 0.421681 -5.20318e-20)
(-7.43596 0.416087 5.18648e-20)
(-8.03117 0.403071 0)
(-8.61032 0.383754 -5.16444e-20)
(-9.16535 0.359139 0)
(-9.68851 0.330089 0)
(-10.1724 0.297288 5.14384e-20)
(-10.6099 0.261399 0)
(-10.9942 0.223145 -5.12055e-20)
(-11.3196 0.183241 0)
(-11.5816 0.142401 5.07353e-20)
(-11.7772 0.10154 5.03753e-20)
(-11.9051 0.0619875 4.99198e-20)
(-11.9654 0.0252904 9.87305e-20)
(-11.9596 -0.00751577 -9.74172e-20)
(-11.8977 -0.0365498 0)
(-11.7818 -0.06303 0)
(-11.6172 -0.086767 0)
(-11.4075 -0.108106 -9.04736e-20)
(-11.157 -0.127026 -8.84202e-20)
(-10.869 -0.143875 8.62831e-20)
(-10.5468 -0.158814 0)
(-10.1932 -0.172041 -8.18379e-20)
(-9.81126 -0.183528 -7.95701e-20)
(-9.40445 -0.193138 -7.73008e-20)
(-8.97684 -0.20059 0)
(-8.53326 -0.205592 0)
(-8.07918 -0.207921 0)
(-7.62033 -0.207536 -6.86891e-20)
(-7.16225 -0.20463 0)
(-6.70981 -0.199642 0)
(-6.26678 -0.193202 6.3273e-20)
(-5.8355 -0.186044 0)
(-5.41675 -0.17888 0)
(-5.00979 -0.172351 5.89243e-20)
(-4.61259 -0.166967 0)
(-4.2223 -0.163035 0)
(-3.83565 -0.160656 -5.53787e-20)
(-3.44927 -0.15974 -5.43136e-20)
(-3.06012 -0.160059 0)
(-2.66581 -0.161237 5.22983e-20)
(-2.26477 -0.162771 0)
(-1.85623 -0.164171 -5.04022e-20)
(-1.44052 -0.164984 0)
(-1.01933 -0.164651 -4.86187e-20)
(-0.596011 -0.163211 -4.77753e-20)
(-0.176087 -0.158958 0)
(0.2341 -0.151431 0)
(0.627504 -0.139017 0)
(0.996104 -0.120574 0)
(1.33238 -0.0952885 0)
(1.63094 -0.0648358 0)
(1.88945 -0.0364142 0)
(2.11237 -0.0228554 -4.2186e-20)
(2.31493 -0.0281566 4.16219e-20)
(2.5102 -0.0313479 0)
(2.67956 -0.000233894 0)
(2.75487 0.0630271 0)
(2.69321 0.104974 0)
(2.55548 0.0810003 7.79485e-20)
(2.44082 0.00714978 0)
(2.39226 -0.0492147 -7.58806e-20)
(2.35641 -0.059498 7.47896e-20)
(2.2821 -0.0659927 0)
(2.23229 -0.0704043 0)
(2.24159 -0.0238332 0)
(2.21636 -3.86173e-05 -7.05586e-20)
(2.22175 -0.108661 -6.94248e-20)
(2.55561 -0.166513 0)
(3.03151 0.075262 -6.68229e-20)
(2.92867 0.28213 -6.56194e-20)
(2.50031 0.128544 6.46087e-20)
(2.4059 -0.127089 0)
(2.70502 -0.186222 0)
(3.09343 -0.0961186 6.11262e-20)
(3.1899 0.0146578 0)
(2.44809 0.3022 0)
(0.367925 0.684554 0)
(-2.05273 0.728091 0)
(-3.95433 0.565335 -6.44018e-20)
(-5.36959 0.408122 -6.76039e-20)
(-6.37605 0.281942 0)
(-7.05015 0.179412 -7.2294e-20)
(-7.43472 0.0921503 0)
(-7.5576 0.0217202 0)
(-7.45863 -0.0387135 -7.22252e-20)
(-7.16964 -0.0888051 0)
(-6.7158 -0.128983 -6.75358e-20)
(-6.13133 -0.159233 0)
(-5.44823 -0.180052 0)
(-4.69895 -0.191598 -5.70437e-20)
(-3.91109 -0.195726 0)
(-3.107 -0.194511 -5.00295e-20)
(-2.30321 -0.190064 0)
(-1.50921 -0.184895 0)
(-0.72926 -0.179703 0)
(0.0362763 -0.174919 3.92963e-20)
(0.786594 -0.167634 0)
(1.51467 -0.160168 -3.56893e-20)
(2.21397 -0.146718 0)
(2.85785 -0.132877 0)
(3.4413 -0.114731 0)
(3.94847 -0.0983727 0)
(4.37698 -0.0702602 0)
(4.7125 -0.068595 0)
(5.02875 -0.0497784 0)
(5.26817 -0.0557169 5.75722e-20)
(5.50403 0.00524963 0)
(5.57172 -0.0124449 0)
(-0.0521917 0.25972 1.28252e-19)
(-0.196236 0.193618 -1.27355e-19)
(0.0355468 -0.304491 0)
(0.592144 -0.993078 8.34066e-20)
(1.22916 -1.4482 0)
(1.86089 -1.64869 4.07456e-20)
(2.43797 -1.64777 -8.13937e-20)
(2.94325 -1.51242 -8.09772e-20)
(3.36638 -1.29577 0)
(3.70635 -1.02752 -8.03107e-20)
(3.95962 -0.736144 -3.97121e-20)
(4.1247 -0.451939 0)
(4.20822 -0.178757 0)
(4.20946 0.0806062 0)
(4.11117 0.329263 0)
(3.93459 0.530025 -3.86863e-20)
(3.70313 0.597407 0)
(3.40575 0.62517 7.66094e-20)
(3.07179 0.721233 0)
(2.7802 0.771832 0)
(2.56706 0.863282 -7.49579e-20)
(2.30966 1.14902 0)
(1.88145 1.39683 7.387e-20)
(1.34542 1.3854 -3.65793e-20)
(0.8178 1.21738 3.64151e-20)
(0.356522 1.01153 -3.62624e-20)
(-0.0117202 0.780878 -3.60802e-20)
(-0.284815 0.534621 0)
(-0.465583 0.306345 0)
(-0.566533 0.121496 3.53268e-20)
(-0.593086 -0.00932667 -3.5165e-20)
(-0.561963 -0.0947484 0)
(-0.500208 -0.152181 0)
(-0.444066 -0.201395 3.41845e-20)
(-0.409192 -0.246557 0)
(-0.382589 -0.309084 0)
(-0.331003 -0.418032 -3.32963e-20)
(-0.235951 -0.517321 0)
(-0.0840499 -0.507791 3.27183e-20)
(0.0999584 -0.459072 -6.50937e-20)
(0.150016 -0.57113 0)
(-0.180899 -0.520718 0)
(-0.709297 0.279721 -1.2711e-19)
(-1.33972 0.834982 -1.26049e-19)
(-2.16475 0.795414 -1.25233e-19)
(-2.58647 0.87602 6.21719e-20)
(-2.80118 0.952888 -6.15429e-20)
(-3.01289 0.871158 -1.82954e-19)
(-3.23846 0.682706 1.21155e-19)
(-3.44571 0.593666 6.00078e-20)
(-3.67667 0.463973 0)
(-3.85842 0.383476 -5.92255e-20)
(-4.0374 0.302131 5.9033e-20)
(-4.19626 0.246087 0)
(-4.34248 0.204471 0)
(-4.48578 0.181515 0)
(-4.62543 0.178142 -5.7342e-20)
(-4.76977 0.192184 0)
(-4.925 0.226608 1.13114e-19)
(-5.09372 0.277422 0)
(-5.28222 0.344429 1.11449e-19)
(-5.49151 0.422817 0)
(-5.72563 0.509212 -1.09748e-19)
(-5.98557 0.598403 0)
(-6.2718 0.685422 1.08066e-19)
(-6.58304 0.765407 -5.36386e-20)
(-6.91694 0.834369 0)
(-7.27065 0.889745 -1.05805e-19)
(-7.63985 0.930151 -5.25247e-20)
(-8.02054 0.955238 -5.22378e-20)
(-8.40909 0.965788 0)
(-8.80183 0.962887 -5.20378e-20)
(-9.19477 0.947505 -5.16626e-20)
(-9.58411 0.920229 0)
(-9.96594 0.881572 5.14843e-20)
(-10.3358 0.832054 -1.03186e-19)
(-10.6883 0.772022 0)
(-11.0175 0.701906 -5.13343e-20)
(-11.3172 0.622346 0)
(-11.5814 0.534306 1.53799e-19)
(-11.8045 0.439113 0)
(-11.982 0.338591 -1.52487e-19)
(-12.1101 0.235252 -5.03403e-20)
(-12.1868 0.132397 5.02975e-20)
(-12.2116 0.0335187 9.94544e-20)
(-12.1852 -0.0590395 -9.80854e-20)
(-12.1034 -0.14496 0)
(-11.9709 -0.223243 0)
(-11.7903 -0.293801 0)
(-11.5663 -0.356656 2.71758e-19)
(-11.3023 -0.412456 8.83668e-20)
(-11.0021 -0.461972 -8.62283e-20)
(-10.6685 -0.506006 0)
(-10.3042 -0.545018 -8.21285e-20)
(-9.91175 -0.57902 7.95142e-20)
(-9.49433 -0.607493 7.72455e-20)
(-9.05579 -0.629541 0)
(-8.601 -0.64416 0)
(-8.13558 -0.650625 0)
(-7.66565 -0.648778 6.86417e-20)
(-7.19714 -0.639215 0)
(-6.73533 -0.623286 -1.29832e-19)
(-6.28421 -0.602937 -1.89694e-19)
(-5.84622 -0.580448 1.23342e-19)
(-5.42202 -0.558051 0)
(-5.01065 -0.537737 5.89063e-20)
(-4.60975 -0.521084 0)
(-4.21609 -0.508972 1.12992e-19)
(-3.82609 -0.501662 -5.54323e-20)
(-3.43614 -0.49888 -5.43883e-20)
(-3.043 -0.499929 0)
(-2.64405 -0.503634 -1.56953e-19)
(-2.23761 -0.508516 1.02762e-19)
(-1.8231 -0.513224 5.03798e-20)
(-1.40109 -0.516232 0)
(-0.973365 -0.515398 4.85977e-20)
(-0.542621 -0.509872 1.43382e-19)
(-0.11366 -0.497965 0)
(0.308133 -0.478818 9.23894e-20)
(0.71718 -0.451872 9.08416e-20)
(1.1062 -0.41904 8.93881e-20)
(1.47022 -0.383892 0)
(1.81016 -0.349635 0)
(2.13215 -0.316828 0)
(2.43741 -0.286599 -4.21884e-20)
(2.70705 -0.261326 -4.15949e-20)
(2.91059 -0.233626 0)
(3.05525 -0.178363 -8.10381e-20)
(3.19869 -0.0800226 -7.99751e-20)
(3.37123 0.0293798 0)
(3.54636 0.0986845 -7.78644e-20)
(3.68822 0.108745 -1.53687e-19)
(3.77232 0.0928998 7.57677e-20)
(3.77226 0.118244 7.46988e-20)
(3.63015 0.167535 0)
(3.34777 0.117239 0)
(3.07642 0.0176812 0)
(2.9487 0.0112894 7.05017e-20)
(2.87782 -0.0896964 -6.94513e-20)
(2.84754 -0.374369 -1.36354e-19)
(3.12766 -0.365971 6.67852e-20)
(3.56944 0.032284 -6.56199e-20)
(3.73075 0.238243 -6.45283e-20)
(3.70301 0.00554091 0)
(3.71593 -0.261044 0)
(3.64711 -0.155602 6.12137e-20)
(2.88049 0.472737 0)
(0.781843 1.45476 0)
(-1.90125 1.99584 -1.19971e-19)
(-3.78376 1.75235 0)
(-5.09494 1.33578 -6.61817e-20)
(-6.07492 0.979147 6.7489e-20)
(-6.79242 0.681112 0)
(-7.2782 0.426255 -7.34781e-20)
(-7.55022 0.200648 0)
(-7.62121 0.0028872 0)
(-7.49108 -0.170323 7.22132e-20)
(-7.17296 -0.317622 -1.41278e-19)
(-6.69678 -0.438755 6.75075e-20)
(-6.08992 -0.5318 0)
(-5.38736 -0.595603 0)
(-4.62045 -0.631821 -5.73732e-20)
(-3.81589 -0.645465 0)
(-2.99609 -0.642395 -5.02043e-20)
(-2.17666 -0.629259 0)
(-1.36565 -0.612543 0)
(-0.566147 -0.595593 0)
(0.222137 -0.581024 -3.92724e-20)
(0.9982 -0.561542 0)
(1.76006 -0.537906 3.56622e-20)
(2.4934 -0.502332 0)
(3.18319 -0.454823 0)
(3.80862 -0.399331 -6.45007e-20)
(4.3571 -0.341716 6.29392e-20)
(4.82583 -0.277996 0)
(5.2168 -0.24034 0)
(5.55072 -0.194828 0)
(5.82885 -0.186807 -1.72829e-19)
(6.11977 -0.095136 0)
(6.34415 -0.0730953 1.09514e-19)
(-0.105291 0.496553 1.58027e-22)
(0.0996414 -0.125417 1.69875e-19)
(0.98341 -1.61557 0)
(1.80334 -2.60832 -1.66328e-19)
(2.49112 -3.04405 0)
(3.03715 -3.07459 0)
(3.46388 -2.85425 -9.26891e-22)
(3.79737 -2.49972 8.06688e-20)
(4.06265 -2.08313 8.13681e-20)
(4.2702 -1.64032 8.01104e-20)
(4.43344 -1.1744 0)
(4.55892 -0.722342 0)
(4.63497 -0.300344 -7.99826e-20)
(4.66082 0.168929 -1.58971e-19)
(4.6188 0.608171 1.57767e-19)
(4.49803 0.895029 0)
(4.29275 1.16597 1.55239e-19)
(3.94984 1.4309 -7.64315e-20)
(3.503 1.44587 0)
(3.06677 1.25018 1.51673e-19)
(2.72032 1.22362 7.48684e-20)
(2.49225 1.58515 -1.4943e-19)
(2.29058 2.05448 -7.37189e-20)
(2.00181 2.2358 0)
(1.61682 2.07887 1.46558e-19)
(1.21397 1.74595 1.45836e-19)
(0.867506 1.35968 0)
(0.581795 0.977661 1.4416e-19)
(0.343302 0.625686 0)
(0.149074 0.316747 1.42039e-19)
(0.00660742 0.0621514 7.03216e-20)
(-0.0713737 -0.123403 0)
(-0.0962866 -0.219772 0)
(-0.10766 -0.23131 0)
(-0.14312 -0.238129 0)
(-0.188714 -0.29296 0)
(-0.248485 -0.391962 0)
(-0.379349 -0.505836 1.3169e-19)
(-0.575694 -0.560214 -1.95998e-19)
(-0.857268 -0.311895 0)
(-1.43155 0.380751 0)
(-2.22992 0.920373 0)
(-2.59485 0.993748 -1.50103e-24)
(-2.89903 1.0443 1.25484e-19)
(-3.29279 1.02708 2.49497e-19)
(-3.51387 1.11047 -2.47925e-19)
(-3.71724 1.18237 -1.23e-19)
(-3.85095 1.11591 1.21839e-19)
(-3.96638 0.996586 3.68364e-22)
(-4.09417 0.866599 1.2047e-19)
(-4.21507 0.734341 0)
(-4.34566 0.62554 1.18834e-19)
(-4.48088 0.525796 2.93734e-22)
(-4.61789 0.45403 0)
(-4.76115 0.399192 0)
(-4.90812 0.370558 -1.1554e-19)
(-5.06266 0.364166 0)
(-5.2236 0.382144 0)
(-5.39177 0.423762 1.1301e-19)
(-5.56787 0.486806 2.24246e-19)
(-5.75287 0.569493 -1.11298e-19)
(-5.94623 0.666104 0)
(-6.14863 0.772097 1.09606e-19)
(-6.36007 0.88068 0)
(-6.58178 0.986297 1.07897e-19)
(-6.81501 1.08391 1.07154e-19)
(-7.06128 1.16963 -2.12922e-19)
(-7.32334 1.24136 -1.05915e-19)
(-7.6045 1.29789 0)
(-7.90744 1.3388 2.09552e-19)
(-8.23338 1.3642 0)
(-8.58208 1.3741 3.11962e-19)
(-8.95121 1.36786 2.07702e-19)
(-9.33602 1.34435 2.0741e-19)
(-9.72946 1.30263 -2.07242e-19)
(-10.1228 1.24226 3.10315e-19)
(-10.5065 1.1631 0)
(-10.8705 1.06543 0)
(-11.205 0.950087 -2.06822e-19)
(-11.5011 0.81871 -3.09078e-19)
(-11.7507 0.67393 0)
(-11.9469 0.519278 1.01775e-19)
(-12.0846 0.358899 0)
(-12.161 0.197198 -3.01838e-19)
(-12.1766 0.0382227 1.23081e-21)
(-12.1348 -0.114561 -1.1671e-21)
(-12.0385 -0.257521 1.9346e-19)
(-11.8918 -0.387746 0)
(-11.6996 -0.504332 -1.86144e-19)
(-11.4666 -0.607599 8.11089e-22)
(-11.197 -0.698876 0)
(-10.8941 -0.779818 0)
(-10.5602 -0.851992 0)
(-10.1971 -0.916297 1.63841e-19)
(-9.80666 -0.972742 0)
(-9.39095 -1.02032 0)
(-8.95326 -1.05726 0)
(-8.49821 -1.08154 0)
(-8.03168 -1.09165 0)
(-7.56029 -1.08719 1.3739e-19)
(-7.0907 -1.06915 0)
(-6.62883 -1.03995 1.29766e-19)
(-6.17921 -1.00304 1.26397e-19)
(-5.74446 -0.962571 -1.23284e-19)
(-5.32518 -0.922563 0)
(-4.92012 -0.886494 -1.17749e-19)
(-4.52631 -0.857163 0)
(-4.13979 -0.835997 -1.12943e-19)
(-3.75631 -0.823409 1.10738e-19)
(-3.37176 -0.818901 3.26221e-19)
(-2.98234 -0.821241 0)
(-2.58494 -0.828392 3.14322e-19)
(-2.17774 -0.837882 1.03173e-19)
(-1.76024 -0.847589 0)
(-1.33309 -0.855154 1.98528e-19)
(-0.898606 -0.857525 1.94989e-19)
(-0.461226 -0.852463 -2.8715e-19)
(-0.026893 -0.837939 0)
(0.399048 -0.810408 -9.23298e-20)
(0.811529 -0.768047 -9.07851e-20)
(1.2036 -0.710961 -2.68211e-19)
(1.56603 -0.64501 0)
(1.89038 -0.580032 0)
(2.18005 -0.521013 0)
(2.45389 -0.46049 -8.44311e-20)
(2.72455 -0.382856 0)
(2.96953 -0.289376 0)
(3.15469 -0.210382 8.10152e-20)
(3.2966 -0.163695 7.99525e-20)
(3.44776 -0.134738 0)
(3.61587 -0.121635 0)
(3.77557 -0.130865 1.53661e-19)
(3.95426 -0.115442 0)
(4.15943 0.0106405 -1.493e-19)
(4.28573 0.217072 -1.47217e-19)
(4.26809 0.310049 0)
(4.08681 0.217277 0)
(3.81207 0.129864 1.40909e-19)
(3.62653 0.00217267 -1.13277e-23)
(3.49993 -0.333267 -4.29261e-23)
(3.41825 -0.461466 0)
(3.53166 -0.0989186 2.62431e-19)
(3.67255 0.129374 0)
(3.78523 -0.105588 0)
(3.77175 -0.190402 0)
(3.16451 0.42531 -1.22302e-19)
(1.48346 1.68415 0)
(-0.989265 2.91536 2.40939e-19)
(-2.8764 3.0916 1.1968e-19)
(-3.9866 2.52485 0)
(-5.00622 1.95232 1.30278e-19)
(-5.90739 1.47593 0)
(-6.64569 1.05835 0)
(-7.1691 0.677655 4.40785e-19)
(-7.46754 0.327912 -2.98783e-19)
(-7.5414 0.00854313 0)
(-7.39921 -0.274046 -2.9361e-19)
(-7.06265 -0.518841 1.41237e-19)
(-6.56074 -0.720431 0)
(-5.9295 -0.875009 0)
(-5.2064 -0.981425 0)
(-4.42554 -1.04279 3.44172e-19)
(-3.61596 -1.06661 0)
(-2.80118 -1.06248 1.00149e-19)
(-1.99395 -1.04236 0)
(-1.20044 -1.01598 0)
(-0.419763 -0.990475 0)
(0.351081 -0.969041 0)
(1.11497 -0.938798 0)
(1.86821 -0.901034 0)
(2.59789 -0.845117 1.37498e-19)
(3.29006 -0.767742 0)
(3.91951 -0.678051 6.44635e-20)
(4.47691 -0.577812 -1.88957e-19)
(4.95199 -0.476205 0)
(5.3358 -0.400458 0)
(5.66521 -0.342014 1.18194e-19)
(5.9515 -0.300285 1.15255e-19)
(6.24566 -0.228495 -1.12796e-19)
(6.52603 -0.160647 -1.09481e-19)
(-0.0685107 0.35057 -2.57073e-19)
(1.01762 -2.08735 -2.54322e-19)
(1.94732 -3.71639 -1.68281e-19)
(2.58382 -4.30189 -8.43238e-20)
(2.96538 -4.22768 0)
(3.18188 -3.83455 1.66214e-19)
(3.32134 -3.32783 -8.38272e-20)
(3.43638 -2.80936 0)
(3.55232 -2.30473 -8.14824e-20)
(3.67149 -1.81542 0)
(3.7867 -1.34793 1.63526e-19)
(3.90641 -0.884317 0)
(4.00922 -0.409138 8.01086e-20)
(4.09025 0.0896536 1.59234e-19)
(4.18525 0.591081 -1.57946e-19)
(4.25135 1.04474 0)
(4.22113 1.47939 -1.55186e-19)
(4.12109 1.92716 0)
(3.92584 2.23457 0)
(3.54708 2.17657 -1.51325e-19)
(3.07549 1.8978 0)
(2.73795 1.89121 -9.98483e-22)
(2.60557 2.26382 0)
(2.53876 2.62612 0)
(2.39332 2.67952 7.63061e-22)
(2.15041 2.41681 -1.45363e-19)
(1.86156 1.9736 -1.45083e-19)
(1.55904 1.50109 -1.43706e-19)
(1.24969 1.07931 0)
(0.944852 0.705715 -2.83644e-19)
(0.67381 0.360004 0)
(0.46005 0.0774125 -1.3947e-19)
(0.314297 -0.0935203 0)
(0.229459 -0.134749 0)
(0.154955 -0.116067 1.35339e-19)
(0.0250164 -0.131287 0)
(-0.199642 -0.103152 -1.32687e-19)
(-0.487032 -0.0371819 -2.8726e-22)
(-0.970913 0.288288 2.60584e-19)
(-1.63484 0.86279 -2.58037e-19)
(-2.24301 1.31673 0)
(-2.69395 1.48331 0)
(-2.96501 1.49851 -1.26396e-19)
(-3.2271 1.52567 0)
(-3.43802 1.46585 -1.2458e-19)
(-3.55261 1.40069 1.23804e-19)
(-3.66516 1.33365 1.22973e-19)
(-3.73845 1.22235 0)
(-3.81819 1.11491 -1.21304e-19)
(-3.9058 0.996924 -1.20479e-19)
(-3.99267 0.88772 2.39995e-19)
(-4.09586 0.792975 -1.18848e-19)
(-4.20577 0.71033 -1.18037e-19)
(-4.3241 0.649708 0)
(-4.4529 0.606051 0)
(-4.58964 0.585118 1.15568e-19)
(-4.73429 0.584351 0)
(-4.88772 0.607293 0)
(-5.0474 0.651184 -2.26036e-19)
(-5.21396 0.715597 -2.24309e-19)
(-5.38733 0.798635 0)
(-5.56751 0.896138 0)
(-5.75708 1.0055 0)
(-5.95775 1.12158 0)
(-6.17321 1.24043 -2.15909e-19)
(-6.40724 1.35774 2.14451e-19)
(-6.66412 1.46955 2.12975e-19)
(-6.94846 1.57246 4.23541e-19)
(-7.26369 1.6633 0)
(-7.61124 1.73921 3.5888e-22)
(-7.98913 1.79668 0)
(-8.39222 1.83204 -2.08081e-19)
(-8.81229 1.84192 7.01486e-22)
(-9.23903 1.82375 -2.07302e-19)
(-9.66138 1.77602 2.07122e-19)
(-10.069 1.69822 1.08618e-21)
(-10.4526 1.59049 0)
(-10.8043 1.45377 2.08259e-19)
(-11.1167 1.29012 2.06724e-19)
(-11.3831 1.10289 4.1433e-19)
(-11.5975 0.896714 0)
(-11.7555 0.677177 -2.06543e-19)
(-11.8538 0.450385 0)
(-11.8912 0.222256 4.05182e-19)
(-11.8695 -0.00165933 -1.9948e-19)
(-11.7923 -0.214876 1.967e-19)
(-11.6638 -0.411026 -1.93527e-19)
(-11.4899 -0.588038 -3.82633e-19)
(-11.2764 -0.7448 1.86196e-19)
(-11.029 -0.882745 -1.82146e-19)