/*--------------------------------*- C++ -*----------------------------------*\
| =========                 |                                                 |
| \\      /  F ield         | OpenFOAM: The Open Source CFD Toolbox           |
|  \\    /   O peration     | Version:  2112                                  |
|   \\  /    A nd           | Website:  www.openfoam.com                      |
|    \\/     M anipulation  |                                                 |
\*---------------------------------------------------------------------------*/
FoamFile
{
    version     2.0;
    format      ascii;
    arch        "LSB;label=32;scalar=64";
    class       volScalarField;
    location    "0.05";
    object      ddt0(omegaU);
}
// * * * * * * * * * * * * * * * * * * * * * * * * * * * * * * * * * * * * * //

dimensions      [0 0 -2 0 0 0 0];

internalField   nonuniform List<scalar> 
12225
(
-91.4825
-2856.46
-11185.6
-27214.9
-52758
-89533.8
-138829
-200970
-275344
-360871
-456310
-560699
-673726
-796107
-930001
-1.07784e+06
-1.24463e+06
-1.42614e+06
2590.29
10829.6
23977.6
40941.4
60574.5
82600.9
106571
132048
158601
186007
213787
241591
269241
296998
325351
354644
389205
435647
274.529
1836.52
5803.96
13140.2
24531.9
40101.7
59478.4
82068.4
107310
135200
165351
197999
233665
273345
318386
370377
432905
509156
20.147
185.651
796.777
2171.77
4731.88
9089.5
15606.1
24494.1
35743.2
49009.2
64361.7
81738.4
101203
123106
148451
177545
211883
252734
1.44196
13.8891
78.6908
259.241
752.143
1620.58
2954.82
4913.85
7596.82
11016
15258
20368.6
26402.5
33457.8
41873.6
51712.8
63387
77285.9
0.537634
-1.38663
-0.589146
12.9829
70.6172
191.181
439.874
822.688
1357.65
2081.92
3026.55
4242.4
5753.01
7613.66
9440.24
11699.5
14439.4
17722.4
0.812267
-1.43762
-6.38451
-12.6412
-17.3984
-16.4982
2.51632
44.4613
123.846
241.199
401.141
598.241
855.957
1186.17
1527.81
1956.29
2483.8
3124.82
1.02858
-0.526048
-5.03447
-12.3356
-22.6733
-35.8556
-50.0342
-63.3683
-73.3007
-80.7249
-86.5472
-93.1543
-97.8559
-98.7898
-94.5027
-79.1258
-46.637
9.49463
1.15323
0.193418
-3.47889
-9.91334
-19.5361
-32.847
-49.9685
-70.2796
-92.548
-116.999
-144.366
-176.301
-214.37
-259.773
-312.184
-368.858
-425.959
-484.462
1.20807
0.710281
-2.20465
-7.68849
-16.1238
-28.0607
-43.8916
-63.8471
-87.8655
-115.478
-146.214
-180.15
-218.189
-261.54
-310.62
-364.895
-428.83
-507.275
1.20568
1.04814
-1.22033
-5.8353
-13.1323
-23.6092
-37.6982
-55.7656
-78.0366
-104.596
-135.333
-169.945
-208.16
-249.323
-292.577
-340.244
-400.382
-473.85
1.1623
1.2266
-0.540994
-4.43313
-10.7512
-19.9374
-32.4113
-48.5348
-68.6145
-92.9112
-121.547
-154.515
-191.666
-231.616
-273.564
-321.139
-377.132
-441.523
1.08479
1.28738
-0.0750641
-3.32895
-8.75346
-16.7401
-27.6825
-41.9246
-59.7763
-81.5261
-107.385
-137.532
-172.048
-209.895
-250.943
-298.267
-351.679
-410.991
0.959109
1.23169
0.223094
-2.40084
-6.89893
-13.6126
-22.8982
-35.0729
-50.4261
-69.2335
-91.7246
-118.113
-148.612
-182.649
-220.516
-264.807
-315.525
-371.532
0.77633
1.03951
0.300666
-1.75646
-5.34966
-10.7628
-18.3093
-28.2748
-40.9209
-56.4935
-75.1849
-97.0623
-122.604
-151.935
-185.575
-225.022
-270.194
-320.204
0.523684
0.669467
0.0937154
-1.44458
-4.14555
-8.25213
-14.021
-21.6731
-31.3877
-43.4244
-58.0446
-75.5553
-96.1223
-119.965
-147.567
-179.968
-217.102
-258.654
0.208843
0.157573
-0.359966
-1.50394
-3.42179
-6.28483
-10.3015
-15.6646
-22.5742
-31.1787
-41.6826
-54.3229
-69.3327
-87.1613
-108.144
-132.275
-160.415
-192.981
-0.172631
-0.480875
-0.993122
-1.81597
-3.07708
-4.87205
-7.28583
-10.4456
-14.5063
-19.6381
-26.0344
-33.9193
-43.5525
-55.2126
-69.3567
-86.1999
-105.948
-129.341
-0.567605
-1.16359
-1.74075
-2.29657
-2.85969
-3.48468
-4.24341
-5.23298
-6.57838
-8.43315
-10.9848
-14.4605
-19.1284
-25.2985
-33.3167
-43.5831
-56.512
-72.5302
-0.8619
-1.6279
-2.13451
-2.31639
-2.19056
-1.7881
-1.1519
-0.362104
0.459151
1.15164
1.51497
1.30405
0.228167
-2.04547
-5.88448
-11.6814
-19.8551
-30.6805
-1.01341
-1.79167
-2.09448
-1.84726
-1.06592
0.228622
1.99737
4.15344
6.56313
9.05304
11.4058
13.3534
14.5771
14.7132
13.3626
10.1056
4.49799
-3.77448
-1.0801
-1.7499
-1.70811
-0.918481
0.573469
2.75275
5.58376
8.96933
12.7638
16.7822
20.7902
24.4941
27.5433
29.537
30.0356
28.5789
24.6779
17.9674
-1.07418
-1.50485
-0.975722
0.459428
2.72865
5.83045
9.716
14.2563
19.2758
24.5529
29.794
34.6216
38.576
41.125
41.6768
39.6017
34.2226
24.9754
-0.997144
-1.04043
0.10454
2.23644
5.27004
9.17499
13.7455
18.5799
23.123
26.6388
28.1714
26.5451
20.3947
8.2057
-11.6147
-40.6801
-80.6144
-132.864
-0.839238
-0.31212
1.47826
3.75202
5.56912
5.5172
1.23733
-10.6792
-34.6783
-76.1802
-141.395
-237.006
-369.76
-546.154
-771.491
-1050.27
-1386.08
-1781.1
-0.669597
-0.510532
-2.80817
-14.6303
-50.0599
-123.082
-256.013
-476.753
-817.287
-1311.52
-1992.77
-2890.93
-4028.83
-5420.36
-7046.46
-8910.12
-10998.4
-13294.5
-3.74137
-29.1705
-121.36
-354.584
-865.018
-1715.99
-3053.79
-5019.87
-7741.11
-11314.4
-15795.1
-21188.3
-27439.6
-34431.7
-41916.8
-49810.2
-57955.9
-66224.4
-86.4983
-560.62
-1796.36
-4239.36
-8224.86
-13964.3
-21755
-31620.2
-43421.6
-56864.9
-71544.1
-86994.5
-102741
-118394
-133752
-148398
-162115
-174782
-1202.6
-5700.37
-13553.3
-24048
-36487.8
-50563.9
-65695.1
-81548.8
-97792.3
-114013
-129769
-144624
-158163
-170056
-180057
-187870
-193312
-196279
-40.0313
1332.19
5376.04
13026.5
24876.5
41345.6
63035.6
90439.7
123852
163262
208296
258240
312066
368575
426550
484718
541888
596927
-76294.9
-93426.6
-124785
-145989
-159492
-164909
-160665
-145777
-119797
-79488.3
-21915.7
53249.1
147551
268793
419966
593483
783778
987006
1.19543e+06
1.39947e+06
1.58939e+06
1.75668e+06
1.89484e+06
1.99919e+06
2.06672e+06
2.09482e+06
2.08228e+06
2.03967e+06
1.92219e+06
1.77633e+06
1.60569e+06
1.40985e+06
1.18916e+06
944048
674974
380330
60713.5
-287187
-678701
-1.00278e+06
-1.40241e+06
-1.84511e+06
-2.32311e+06
-2.77294e+06
-3.00931e+06
-2.73502e+06
-1.83145e+06
-958026
-127249
556401
1.07636e+06
1.45054e+06
1.62295e+06
1.55129e+06
1.29686e+06
975793
668991
394893
143011
-87752
-291591
-566122
-863917
-1.16123e+06
-1.45074e+06
-1.71535e+06
-1.83121e+06
-1.48159e+06
-350745
515541
898859
1.05637e+06
1.15757e+06
1.02418e+06
393190
-752139
-2.15083e+06
-3.42162e+06
-4.30159e+06
-4.58749e+06
-4.25837e+06
-4.14142e+06
-3.90898e+06
-3.59084e+06
-3.20856e+06
-2.78757e+06
-2.33329e+06
-1.85241e+06
-1.35141e+06
-835221
-319282
188418
688203
1.17454e+06
1.62296e+06
2.04038e+06
2.2471e+06
2.41948e+06
2.54939e+06
2.63342e+06
2.6716e+06
2.64721e+06
2.56835e+06
2.43795e+06
2.25951e+06
2.03856e+06
1.78332e+06
1.50367e+06
1.21043e+06
914210
621593
337713
74310.5
-126262
-207357
-271332
-287635
-260891
-195755
-99666.7
18194.1
148590
282837
410996
526350
624077
700535
753592
783200
792543
760005
706792
633882
548948
456213
358281
257517
155950
55594.8
-41091.1
-130953
-210800
-277910
-330042
-366427
-386828
-391743
-382116
-359634
-326101
-284536
-238871
-193492
-152724
-120201
-98188.1
-87103.1
-85799.3
-92037.6
-102826
-114986
-125855
-133711
-137802
-138139
-135267
-130060
-123499
-116516
-109931
-104427
-100468
-98214.7
-97465.6
-97703
-98147.7
-98047.7
-96528.5
-93564.6
-87853.6
-97049.7
-65315.9
-121331
-164225
-188939
-196766
-189733
-168332
-128106
-64840.6
21864.1
125833
238067
352821
464915
564113
638981
682452
692716
671765
623375
552701
465621
367989
265748
165285
71638.7
-17562.2
-59228.7
-91835.5
-116757
-134366
-144354
-145601
-138683
-122968
-96814.2
-59583.5
-10177.6
54888
135790
192268
234757
215089
74492.3
-250940
-761375
-946624
-950101
-865368
-769732
-550194
-158838
339042
788540
1.0349e+06
1.03254e+06
855555
601328
310283
-19140.8
-231432
-344912
-378663
-327840
-210108
-108496
-159739
-496905
-447533
-500562
-1.00753e+06
-1.8753e+06
-2.70843e+06
-3.11007e+06
-2.87187e+06
-2.20104e+06
-1.4327e+06
-838185
-391244
-5519.43
317326
591051
813820
979789
1.15039e+06
1.29271e+06
1.35725e+06
1.35305e+06
1.28145e+06
1.14934e+06
969855
751092
503922
271164
36186.7
8659.39
-16012.5
-41960.8
-76803.1
-121356
-117599
-108865
-98322.2
-85975.3
-71688.9
-55405.7
-37827.1
-19459.6
-672.749
18731.2
39776
59740.4
74559.2
88864.7
100994
110697
117522
120921
121165
119069
114903
106144
97422.2
90921.8
84942.7
79443.8
74909
71704.1
70042.5
87739.9
102741
115389
120994
118048
106601
87216.6
60968.4
29271.2
-5895.27
-40984.4
-73055
-103269
-129470
-147560
-154946
-151306
-137977
-117303
-92880.3
-67891.2
-45318.2
-28659.9
-19638.4
-17196.4
-19339.6
-23999.1
-29416.1
-34466.4
-38616.1
-41677.7
-43633.4
-44564.7
-44602.8
-43916.8
-42684.8
-41065.4
-39244.5
-37426.4
-35776.4
-34423.1
-33457.9
-32931.2
-32843.3
-33137.5
-33710.5
-34437.4
-35330.5
-36676.6
-38786.7
-91242.7
-64043.9
-144552
-202947
-220885
-197749
-142652
-64665.7
30252
131018
223091
290827
317678
301950
260184
205949
144036
76671.4
6364.95
-63926.9
-131315
-192773
-245241
-286729
-316474
-334103
-340159
-339509
-342908
-348816
-351849
-352484
-351794
-350936
-350321
-349962
-349868
-350164
-349967
-346887
-337714
-317869
-281299
-200804
-81705.4
66942.9
219214
308916
241622
35740.4
-183745
-375655
-495886
-483371
-302440
32815.8
420249
703665
775703
636021
360451
21683.7
-200831
-316583
-341334
-258857
-71679.2
101244
20668.8
-529050
-1.32407e+06
-2.28132e+06
-3.05594e+06
-3.15516e+06
-2.35184e+06
-1.01297e+06
-25098.7
471585
792496
991094
1.09354e+06
1.1227e+06
1.09444e+06
1.02107e+06
912684
782548
631645
470508
313098
169765
48061.4
-47644.6
-116850
-162547
-191784
-197267
-199592
-199367
-196831
-192273
-185956
-177970
-169089
-159657
-149827
-140342
-132548
-127180
-124741
-125344
-127361
-127748
-128829
-130228
-128553
-121673
-107961
-88400.6
-64911.7
-39547.9
-14360.6
8813.53
28629.5
44444.8
56428.8
65091.7
71063.3
75187.5
78342.1
81182.5
84070.5
96131.5
109650
125143
141712
158394
174218
187941
197598
199780
188206
156408
109689
54950.5
-2950
-58797.2
-107212
-143160
-164318
-170998
-165742
-152894
-132188
-103740
-72424.9
-43098.4
-19170.9
-2127.74
8064.53
12406
12385.9
9565.94
5279.57
517.09
-4095.03
-8204.14
-11631.1
-14352.9
-16412.6
-17870.9
-18807.7
-19341.4
-19638.1
-19889.7
-20270.9
-20907.3
-21847.8
-23108.4
-24634.4
-26553
-24928.6
-124883
-208115
-241686
-205076
-106296
3039.65
70205.5
88102.3
77900.7
68859.8
64990.3
46984.9
7953.73
-42378.6
-93554.3
-141009
-183013
-218552
-247165
-268987
-284432
-294011
-298693
-300065
-299910
-298692
-293883
-288259
-277061
-265300
-254173
-244926
-238921
-237752
-243169
-256850
-280322
-314424
-358602
-410323
-464777
-514733
-550946
-564891
-495718
-344318
-148361
68916.4
263839
357484
292864
122513
-79737.6
-234947
-272137
-157387
67280.6
285492
387410
359567
257913
41442.1
-151907
-297969
-367795
-297877
-153467
-250895
-894244
-1.87777e+06
-2.76114e+06
-2.90486e+06
-1.98122e+06
-421550
513050
927374
1.11626e+06
1.16418e+06
1.11642e+06
1.00579e+06
860682
702288
545136
398537
268084
156618
66062
-3943.03
-55501.5
-91947.3
-116941
-133712
-144714
-152415
-153402
-151641
-147126
-139842
-129777
-116961
-101504
-83485
-63276.4
-41803.4
-20662.1
-1679.81
12740.8
19538.3
15340.1
-3200.21
-34787.7
-70445.3
-113327
-159251
-202431
-237591
-261141
-271060
-266889
-249739
-222053
-186989
-148054
-108508
-70866.4
-36742.2
-6885.09
18672.3
40342.8
59282.7
75267.8
89732.1
103807
117892
131950
145749
158834
170455
179470
184106
182368
173313
155831
128485
90615.8
43029.6
-11420.5
-66730.5
-114763
-149799
-169364
-173158
-160454
-133568
-97801.7
-59132.2
-23083.2
6444.62
27553.1
40377.7
46353.2
47415.7
45438.9
41949.9
38085.1
34508.7
31486.9
29171.7
27656.5
26971.4
27069.1
27805.3
28934.6
30059.5
30853.9
30972.2
30109.1
27944.7
24141.4
39366.2
-218727
-256103
-195951
-79420.3
-11402
-19384.8
-40468.5
-51413.2
-64507.8
-76615.9
-85034
-98255.1
-119821
-144785
-167541
-185738
-199006
-207639
-212324
-213983
-213410
-211150
-207644
-203412
-199094
-195224
-191017
-176115
-157381
-136401
-113567
-89834
-66914.7
-47352.2
-34332.3
-31673.9
-43753.1
-74922.8
-128193
-203765
-298288
-404252
-510969
-607038
-681528
-724866
-593356
-423145
-219329
2023.98
214798
352686
350209
228210
66176.8
-56560.1
-87177
-30377
55246.1
104832
101171
45824.8
-96372
-282946
-483019
-583183
-551400
-717159
-1.29514e+06
-2.11582e+06
-2.51299e+06
-1.83202e+06
-291694
731037
1.07783e+06
1.18738e+06
1.1497e+06
1.0199e+06
843188
657081
486431
342981
228540
139697
71593.3
19592.5
-20154.6
-50778.6
-74521.3
-93159.3
-107788
-118952
-126915
-131954
-133777
-132601
-128419
-121104
-110383
-95743
-76489.7
-51842.8
-21213.1
14653.3
55475.9
100383
146716
190297
225314
235901
221491
198153
156227
97675.5
26860.6
-50362
-127631
-198677
-257921
-301078
-325630
-331175
-319361
-293356
-256941
-214184
-168785
-123723
-81045.3
-42001.7
-9766.15
18783
44305.4
67652.3
89429.3
109863
128891
146217
161339
173616
182313
186606
185538
177917
162489
138174
104514
62841
16563.9
-29942.4
-71450.5
-102129
-118028
-117669
-103117
-77446.9
-45003
-10781.9
19953.5
44338.7
61429.6
71817.9
76945.6
78480.6
77918.3
76411.6
74839.1
73805.3
73703
74742.5
76962
80222.4
84190.2
87761.3
90585.3
92131.2
92070.6
89924.1
86030.8
27158.5
-250202
-199865
-107834
-79003.8
-98080.9
-122573
-130457
-128655
-129535
-132200
-134721
-139849
-148769
-159276
-168954
-176926
-183307
-188468
-192820
-196615
-199835
-202269
-203417
-202527
-198687
-191508
-181194
-170060
-153479
-130837
-101489
-65500.1
-23473.5
23309.2
71992.4
117091
150930
164247
147419
92779.6
-1935.09
-130833
-280216
-433751
-575900
-694397
-782653
-723501
-568897
-387391
-179971
30415.3
221167
346528
358494
263768
137114
36495.5
-17076.7
-42448.9
-74778.4
-123031
-201514
-364927
-640051
-903915
-1.00819e+06
-1.20935e+06
-1.51527e+06
-1.94724e+06
-1.69357e+06
-442189
783149
1.11127e+06
1.19089e+06
1.11196e+06
938720
726417
522303
354159
229787
143887
85039
42373.5
8988.54
-19044
-43703.3
-65224.7
-84352.9
-100908
-114453
-124712
-131815
-136229
-138780
-139004
-137294
-133743
-128073
-119520
-106949
-88735.5
-62603.7
-27520.3
17776.8
74464.5
141933
217798
296927
357084
388501
409826
407626
380688
330615
261205
177718
86256.6
-6760.01
-95079.1
-173116
-236484
-282416
-310334
-319864
-312460
-290931
-258837
-219760
-176806
-134258
-93220.6
-54807
-19173.1
13814
44432.5
72806.7
98858.4
122341
142877
160012
173210
181872
185371
183051
174249
158433
135469
105917
71290.6
34332.4
-649.436
-29478.6
-48648.2
-55236.6
-49578
-33916.4
-11909
12210.2
34882.2
53663.3
67458
76348.6
81161.4
83037.8
83170
82564
81978.1
81909.9
82623
84170.1
86416.9
89081.1
91869.3
94379.7
96269.2
97317.9
97286.6
96277.1
-10325.6
-206653
-157483
-132465
-152329
-172839
-172853
-162341
-153586
-149985
-149902
-151779
-156159
-163235
-172200
-182098
-192497
-203349
-214589
-225996
-237165
-247551
-256565
-263678
-268332
-269380
-265163
-255081
-250107
-240487
-225385
-203558
-173174
-131744
-76429.3
-5681.4
78572.9
169571
255838
320112
340475
299369
192241
31723.4
-158240
-350559
-527496
-675582
-787408
-741026
-616709
-443242
-244946
-60092.3
98953.4
239426
345827
323129
221655
94425.7
-25941.4
-136210
-245592
-349228
-506327
-837551
-1.24456e+06
-1.46679e+06
-1.43205e+06
-1.49245e+06
-1.42951e+06
-638165
661281
1.11776e+06
1.18305e+06
1.09462e+06
900242
663655
444401
275984
164130
99800
63982.4
40096.6
19698.9
-824.144
-22275
-43455.5
-63404.8
-81887.1
-97819
-110428
-119418
-124880
-128028
-127668
-126706
-125946
-125759
-126044
-126157
-124995
-120687
-110445
-91294.9
-60221.6
-13712.5
50759.3
134551
236082
333756
413206
484187
533007
554323
546238
510167
450153
371901
281843
186402
91514.4
2346.34
-76920.5
-147006
-204850
-245661
-269678
-278114
-273145
-257076
-230282
-195313
-157377
-118652
-80254.2
-42759.4
-6699.13
27173
58468.9
86800.9
111766
132936
149854
162091
169262
171025
167082
157252
141611
120722
95874.7
69168.7
43252.2
20933
5105.44
-2736.58
-2516.09
4622.08
16569.6
30355.9
43469.3
54245.1
61976.3
66746.5
69125.2
69895.1
69806.1
69456.6
69267.2
69486
70203.5
71375
72858.4
74463.4
76009.3
77362.6
78495.7
79366.5
80058.7
-79759.6
-179864
-181183
-192735
-208743
-203403
-185121
-170392
-162685
-160749
-162502
-166465
-172270
-179703
-188373
-197659
-207198
-216920
-226748
-236478
-245706
-253916
-260689
-265816
-269430
-272295
-274550
-274842
-270136
-265708
-261320
-256555
-249834
-237765
-214516
-171827
-100711
4405.57
140537
291309
423777
495149
471856
350041
155535
-68691.6
-293130
-493831
-658729
-761805
-721745
-611661
-427696
-226904
-63270.3
54944.6
151880
274888
281874
188467
39631.5
-128850
-294445
-448474
-645764
-1.0496e+06
-1.57889e+06
-1.83997e+06
-1.59854e+06
-1.28151e+06
-732283
293642
1.1979e+06
1.20102e+06
1.10756e+06
909450
653230
412762
234230
125932
75591.8
58770.6
51423
42051.9
27427.2
7315.35
-15123
-37175.5
-58386.9
-76778.2
-90759.9
-99853.2
-104421
-105095
-102659
-97311.1
-93066.2
-90838.6
-91162.5
-94208
-99707
-106978
-114593
-120205
-120631
-111861
-88757.3
-46089.5
21538.4
117360
225174
335340
444600
540349
612381
653654
661371
636948
585059
512267
425722
332190
237473
146162
61945.2
-12553
-78686.8
-134158
-176078
-205251
-222289
-225926
-219361
-204140
-182148
-155086
-123730
-88890.5
-53414.8
-18466.8
15001.6
45994.3
73817.2
97876.6
117682
132856
143123
148281
148209
142924
132698
118231
100749
81956.1
63812.1
48207.2
36603.4
29775.5
27742.8
29820.5
34577.3
40407.5
45932.4
50268
53080
54472.1
54762
54368.8
53668.4
52954.9
52419.2
52150.6
52153.5
52375.6
52743.4
53197.8
53719.6
54339.3
55127.6
56112
-238025
-189871
-226837
-240329
-232943
-208420
-186303
-174612
-170294
-170270
-172259
-174758
-177190
-179444
-181527
-183566
-185970
-189125
-193035
-197271
-201178
-204222
-206197
-207146
-207090
-206102
-205028
-206476
-198694
-191210
-185162
-182309
-185230
-196186
-214331
-231893
-231805
-190976
-89206.4
80484.3
298742
507064
623342
601529
451558
227810
-25520.4
-271203
-486615
-655250
-722382
-703997
-578534
-371960
-154912
2177.67
84232.3
120372
196634
173998
56112.2
-121908
-315798
-503749
-770465
-1.26408e+06
-1.8721e+06
-2.0482e+06
-1.64779e+06
-951034
-44909.1
919237
1.34409e+06
1.23538e+06
966359
696562
425922
222365
104250
57902.7
56656.1
65900.2
67293.9
57327.8
37143.8
11227.8
-16040.4
-42730.6
-66212.7
-83608
-93845.2
-97194.6
-94874.9
-89086.2
-79789.4
-70465.6
-62718.3
-57449.8
-55322.1
-56701.5
-61896.6
-70765.8
-82614.9
-96278.5
-109096
-117766
-117366
-100878
-61214.6
8783.08
103161
216086
342040
468907
582962
671673
726362
743697
725562
677668
607678
523553
432435
340102
250840
167536
92164.7
25769.1
-32332.6
-82589.3
-123103
-153458
-173183
-182955
-183623
-176060
-161307
-140602
-115163
-86290.1
-54867.8
-23116.8
7668.82
36253.4
61703
83322.9
100630
113313
121192
124216
122508
116471
106904
95002.4
82208
69942.4
59361.4
51219.5
45837.1
43095.7
42473.1
43181.6
44384.2
45409.3
45869.8
45666.5
44890.8
43734
42405.6
41085.8
39901.3
38920.1
38160.8
37609.3
37241.4
37043.1
37024.3
37210.8
37661.2
38410.3
-502079
-214772
-264628
-264878
-237193
-205875
-186856
-178595
-175405
-173551
-171008
-166835
-161116
-154901
-149693
-147019
-147864
-152074
-158408
-165210
-171138
-175526
-178246
-179388
-179145
-177938
-175652
-169974
-163013
-150716
-131198
-105922
-80869.7
-67413.8
-78239.5
-119090
-179379
-231881
-240503
-162734
35939.8
331068
602496
729649
676092
490748
244390
-28053.3
-285771
-497027
-650153
-721751
-684492
-527752
-287736
-52857.7
94769.9
140327
115818
110429
23951.6
-136887
-331675
-541530
-866419
-1.44383e+06
-2.07113e+06
-2.20406e+06
-1.60972e+06
-586102
508041
1.26234e+06
1.36634e+06
1.13542e+06
832876
522720
250295
96977.2
41130.9
47493.6
74588.9
89994
86045.3
65608.7
34954.1
460.585
-34710.4
-66660.4
-90927.7
-105625
-111032
-108680
-100687
-88800.8
-77419.9
-65773.8
-54949.9
-46088.5
-40037.8
-37192
-38032.6
-42700.6
-51319.6
-63760.7
-78433.1
-93737
-106646
-108771
-96067
-54735.8
10507.2
105109
225608
362848
502934
629724
728492
789352
809042
790528
741043
669650
585217
495204
405209
319032
238969
166170
101077
43819
-6272.79
-50773.3
-87533.8
-116208
-137095
-149998
-154930
-152094
-141997
-125534
-104030
-78842.9
-51210.9
-23035.1
4177.55
29208
51159.1
69402.4
83536.4
93340.7
98761.6
99956.4
97383.8
91859.6
84479.5
76401.1
68604
61761.1
56242.6
52160.9
49397
47631.5
46430.1
45371.6
44158
42658.2
40884.6
38937.9
36950.5
35045.8
33315.2
31811.1
30550.2
29524.7
28716.6
28111.9
27710.6
27527.1
27591.8
27933.2
-858165
-236686
-285262
-270813
-233884
-203140
-187224
-179666
-173652
-165874
-155329
-142242
-128323
-116912
-111096
-112444
-120309
-132102
-144823
-156594
-167069
-176823
-186519
-196287
-205101
-210618
-211273
-234428
-251621
-254825
-236847
-190525
-113913
-22852.7
46095.3
52218.7
-9278.67
-101905
-194387
-252654
-193726
58476.9
424317
710803
798668
678930
475275
203424
-61339.4
-312370
-528088
-682387
-742345
-677304
-480533
-202315
49887.4
184244
188273
106390
4684.96
-148110
-337941
-570068
-953651
-1.58001e+06
-2.19804e+06
-2.26033e+06
-1.50283e+06
-255796
886054
1.41873e+06
1.33636e+06
1.03663e+06
692133
364390
131948
31979.4
26480.2
68865.1
104867
112590
95301
62044.1
20480.8
-23959
-65671.1
-98542.3
-119607
-129486
-130420
-124800
-114727
-102304
-88741.6
-73920.8
-59661.2
-47431.6
-38007.1
-31602.7
-28212.1
-27623.6
-30286.3
-36780.2
-46520.1
-59459.7
-75591.5
-85590.8
-88366.9
-75615
-39519.7
26746.8
125767
254213
401940
552843
688146
791188
851525
866746
841579
785202
708244
620474
529574
440848
357502
281138
212251
150640
95715
46955.4
3230.66
-35070.1
-67996.7
-94866.4
-115131
-128490
-134554
-133310
-125173
-111004
-92098.7
-69772.6
-45606.5
-21269.1
1930.39
22965.8
41100.1
55845.9
66919.4
74227.4
77909.8
78406.9
76457.1
72958.8
68750.4
64450.7
60439.9
56921.3
53962.8
51500.6
49358.1
47312.7
45180.2
42871.5
40397.7
37841.1
35313.8
32923.2
30751.2
28845.7
27222.5
25873.2
24776.3
23907.9
23251.3
22800.7
22562.3
22548.4
-1.27888e+06
-247769
-290986
-267661
-228357
-200617
-185529
-175307
-163711
-148188
-128982
-107818
-89184.3
-78591.3
-79048.5
-89721.8
-106508
-124559
-141106
-156011
-170307
-185210
-202410
-223843
-250349
-278836
-301354
-353995
-405443
-448920
-474899
-466351
-394153
-242208
-34526.9
131484
153506
69325.6
-31709.7
-149449
-243106
-148076
189694
570134
806584
773583
628068
407148
151674
-112109
-364865
-585042
-739923
-787860
-693550
-455023
-139356
125533
240107
197617
52999.9
-120045
-319420
-584031
-1.02024e+06
-1.66456e+06
-2.24132e+06
-2.23207e+06
-1.36588e+06
-3457.95
1.10547e+06
1.47342e+06
1.29379e+06
948070
572865
250753
56218.6
-808.943
44257.4
102941
133103
127212
96228.9
51028.7
-1330.8
-52842.8
-94822.6
-122595
-137135
-142218
-141288
-135913
-126037
-112219
-92918.4
-72380.7
-53701.6
-38712.1
-28075.4
-21078.6
-17151.9
-14511.5
-13351.1
-14630.5
-18000.3
-24882.1
-35071.6
-47351.9
-58268
-61714.5
-49927.7
-13515.7
55827.1
161424
299612
458460
618858
759135
861177
914840
919531
882473
815143
729695
636547
543333
454886
373753
300851
236032
178530
127294
80803.4
38733.3
882.251
-32863.9
-62163.3
-86355.2
-104696
-116548
-121561
-119826
-111874
-98671.9
-81411.3
-61607.1
-40725.9
-20049.2
-609.951
16820.8
31704
43692.6
52627.8
58583.2
61905.1
63161.2
62983.8
61903.4
60285.4
58369.4
56315.3
54204.8
52031.2
49725.4
47215.2
44478.6
41562.2
38565.7
35610.8
32811.8
30256.4
27998
26056.1
24423.9
23077.9
21988
21125.6
20469.6
20009.5
19741.7
-1.73339e+06
-252070
-287007
-262126
-223563
-197107
-180792
-166538
-148507
-125460
-98505
-71068.6
-50917.6
-44918.6
-54157.4
-73767.2
-96060.8
-115311
-129647
-138896
-143358
-145704
-151585
-167024
-196127
-242400
-309396
-371825
-440871
-517724
-597172
-670074
-689369
-606667
-379574
-55289.6
171786
183641
109822
23755.3
-118519
-181208
33245.8
402784
692679
792277
723291
548376
319449
69869.9
-184745
-434312
-657386
-813449
-852630
-735786
-465995
-125494
142079
235051
157342
-38227.1
-266986
-575243
-1.05113e+06
-1.6867e+06
-2.21007e+06
-2.14776e+06
-1.23464e+06
154968
1.20381e+06
1.47862e+06
1.25695e+06
882334
490609
179470
13201.5
-9543.68
59631.8
134713
167843
136963
93966.6
37153.9
-23936.1
-76684.5
-112744
-132137
-140706
-144329
-145158
-141351
-130335
-109480
-81271.5
-52239.4
-28360.7
-11093.3
-1432.27
2913.52
2709.54
2922.82
3810.56
5456.26
6928.51
6655.64
3064.85
-4645.08
-15722.2
-26797.3
-31473.1
-20292.2
18250
93428
208861
359620
530660
699046
840352
935784
976766
965604
912682
831886
736585
637403
541551
453162
374039
304421
243595
190331
142871
99978.3
60680.1
24410.6
-8926.9
-38871
-64801
-85882.3
-101303
-110505
-113338
-110104
-101531
-88693.2
-72852.9
-55281.3
-37131.4
-19361.6
-2718.51
12232.7
25077.8
35564.8
43651.1
49520
53508.5
55977.8
57225.4
57485.3
56958.8
55813.7
54160.1
52050.9
49517.7
46614.9
43441.2
40131.6
36832.8
33678.3
30771.1
28175.9
25921.2
24005.5
22407.3
21094.4
20033.2
19194.1
18555.6
18102.5
-2.19947e+06
-272457
-278697
-257491
-220794
-194229
-175629
-156964
-133448
-104461
-70485.3
-37150
-15600.5
-13876.9
-30951.4
-57744.8
-83667.4
-102948
-113329
-111565
-96708.9
-75575.2
-59258.8
-57945.5
-83054.6
-148863
-255871
-306847
-371673
-455980
-554879
-684936
-785917
-812070
-687845
-386257
-36537.6
150646
164834
140192
56902.2
-58990.4
3213.65
286124
595274
758911
750601
622543
428087
204262
-27194.5
-265277
-508313
-731588
-887756
-922481
-795674
-515076
-171407
87032.3
161549
56915
-194006
-543729
-1.0419e+06
-1.65233e+06
-2.12556e+06
-2.0377e+06
-1.13433e+06
222104
1.21616e+06
1.45942e+06
1.23379e+06
848687
449903
145360
-4578.1
-7161.51
75603.3
156437
179142
152164
100967
28946.2
-42150
-91251.2
-117920
-128733
-134109
-139937
-144597
-141868
-126957
-98172.7
-59729.9
-18919.2
12295.7
31799.6
39896.7
38690.1
32524.8
25874.7
21954.4
22101.9
25789.4
31051.5
35092.1
35017.3
28887.9
17033.9
3447.89
-3681.12
7526.92
50429.6
135568
265831
432999
617233
790972
927757
1.00986e+06
1.03202e+06
1.00055e+06
929314
834207
729238
624693
526970
439298
362672
296672
240072
191167
147905
108764
72539
38540.2
6617.29
-22895.6
-49302.1
-71713.3
-89219.9
-101135
-107139
-107382
-102415
-93110.5
-80513.9
-65697.5
-49649.8
-33213.7
-17088.5
-1868.31
11941.1
23955
33965.6
41951.9
48019.5
52324.7
55045.4
56384.6
56557.4
55756.2
54131.4
51807.9
48917.4
45617.6
42087.4
38507
35036.1
31797.9
28873.4
26303.1
24094
22229.7
20680.2
19410.5
18387.4
17583.5
16976.3
-2.58088e+06
-399278
-254534
-251662
-223020
-196410
-174919
-152113
-124152
-91309.5
-52951.4
-13742.9
12570.6
15348.1
-4331.16
-35231.8
-64951.3
-87399.1
-99052.5
-93813
-69701.3
-35202.4
-3056.38
17001.5
11695.5
-50107.4
-159381
-224664
-286817
-367204
-473502
-602925
-737417
-834292
-816447
-612908
-270265
15433.6
134888
180280
170956
86489.7
87225.8
283582
553540
725651
743268
643237
478158
283081
81306.7
-122842
-341705
-575214
-792733
-944132
-975245
-849088
-578768
-257728
-30513.9
6167.61
-158945
-510833
-1.007e+06
-1.58306e+06
-2.01501e+06
-1.92769e+06
-1.07827e+06
209137
1.1662e+06
1.42406e+06
1.22506e+06
849293
450348
145109
-2606.72
-711.607
84896.6
165950
190122
165171
105149
24663.4
-47154.7
-93835.5
-113087
-117045
-120763
-129924
-138770
-137552
-120371
-86150
-39095.3
11445.5
54376.3
81641.2
90958.3
85103.2
70347.2
53775.2
41152.5
35742.7
38071.9
46332.4
57029.7
65684.9
67879.1
60820.3
45115.8
26377.7
15653.1
28233.1
79834.1
181162
332198
518928
715042
889093
1.01425e+06
1.07602e+06
1.07403e+06
1.01927e+06
928841
820050
706864
598706
500803
415338
342431
280999
229332
185156
146315
111032
77974
46377.8
16102
-12477.9
-38634.2
-61460.5
-80034.8
-93614.6
-101756
-104467
-102154
-95497.5
-85340
-72556.2
-57959.1
-42276.2
-26185.5
-10356.7
4558.82
17998.4
29564.5
39045.9
46386.5
51651.2
55004.3
56676.9
56916.6
55951.4
53987.7
51230.5
47897.5
44215.4
40402
36646.7
33096.4
29851.1
26965.6
24457.6
22317.9
20520.7
19032.6
17819.4
16850.6
16099.1
-2.79628e+06
-581514
-259900
-241658
-226381
-204384
-181431
-155146
-124027
-88715.5
-49055.7
-7774.78
24441.3
35286.8
22462.6
-5230.14
-36126.9
-62975.5
-80871.4
-83357.5
-67214.4
-38202.1
-8139.86
11278.7
9431.15
-22285.6
-74999.5
-138814
-213433
-302251
-410910
-541211
-682398
-799792
-825830
-685932
-392827
-99835.8
78881.6
194181
247771
211160
213899
364799
581537
721176
728256
632023
481735
310960
138383
-29521.5
-205511
-406422
-625572
-829141
-968753
-993562
-874806
-635026
-369633
-214853
-262015
-527013
-976258
-1.50425e+06
-1.90061e+06
-1.83424e+06
-1.0727e+06
122616
1.06065e+06
1.36875e+06
1.22526e+06
881471
491700
179559
18870.7
8472.33
85517.2
165050
196071
175204
112639
30493.4
-42222.4
-86769.5
-101526
-101583
-103551
-112995
-124284
-128114
-115252
-81325.7
-29239.7
31820.4
87996.3
126488
141147
133637
111459
84372.7
61137.6
47498.1
45542.9
54047
69219
85502.3
96591.8
97022
84256.1
60793.4
35565.3
23538.9
43002.3
110597
234750
409867
614835
817410
983869
1.08939e+06
1.12446e+06
1.09466e+06
1.01583e+06
907418
787181
668409
559230
463578
382512
315214
259920
214233
175514
141518
110298
80425.1
51172
22498.7
-5085.52
-30758.6
-53597.6
-72712.5
-87351.4
-97006.7
-101544
-101201
-96481.4
-88034.4
-76534.5
-62635.3
-47003.7
-30381.7
-13603.5
2471.83
17083.8
29672
39910.9
47696
53110.7
56371.2
57757.7
57558.6
56051.2
53508.5
50207.3
46423
42412.9
38398.4
34552.6
30995.7
27798.7
24991.5
22573.3
20523.6
18812
17404.6
16269.1
15375.8
-2.77626e+06
-796230
-323978
-245381
-230391
-216048
-195829
-168957
-136726
-100627
-61314.8
-21114.5
13789.3
34243.3
34673
18180.4
-7085.1
-33750.7
-56056.1
-68423.5
-67364.2
-54835.9
-38202.1
-26979.6
-29565.8
-55762.3
-85474.4
-135384
-204436
-292613
-401783
-530488
-666096
-774416
-793769
-663293
-404234
-140399
63113.5
236733
334239
337366
368889
503439
663801
742934
709801
597405
450047
296445
151406
18351.1
-114503
-266215
-446256
-646703
-835382
-966045
-993360
-897696
-711316
-530434
-478478
-630333
-983329
-1.44662e+06
-1.81199e+06
-1.77741e+06
-1.1152e+06
-14865.7
918674
1.29601e+06
1.22444e+06
929510
560721
241747
58133.2
22118.8
80646.6
155455
193499
180420
123178
44298.4
-27740.1
-72455.6
-87855
-88206.1
-88795.5
-94810.7
-103590
-110268
-104755
-77886.3
-28557.4
37135.9
104370
155805
179890
175120
148894
113167
79811
57435.2