/*--------------------------------*- C++ -*----------------------------------*\
| =========                 |                                                 |
| \\      /  F ield         | OpenFOAM: The Open Source CFD Toolbox           |
|  \\    /   O peration     | Version:  2112                                  |
|   \\  /    A nd           | Website:  www.openfoam.com                      |
|    \\/     M anipulation  |                                                 |
\*---------------------------------------------------------------------------*/
FoamFile
{
    version     2.0;
    format      ascii;
    arch        "LSB;label=32;scalar=64";
    class       surfaceScalarField;
    location    "0.05";
    object      phi;
}
// * * * * * * * * * * * * * * * * * * * * * * * * * * * * * * * * * * * * * //

dimensions      [0 3 -1 0 0 0 0];

oriented        oriented;

internalField   nonuniform List<scalar> 
24170
(
3.0408e-06
1.47604e-07
2.86629e-06
1.7451e-07
2.69343e-06
1.72861e-07
2.52241e-06
1.71022e-07
2.3588e-06
1.63604e-07
2.2076e-06
1.51207e-07
2.07209e-06
1.35509e-07
1.95436e-06
1.17726e-07
1.85536e-06
9.9e-08
1.77486e-06
8.05031e-08
1.71161e-06
6.32537e-08
1.66355e-06
4.80536e-08
1.62815e-06
3.54004e-08
1.60261e-06
2.55457e-08
1.58409e-06
1.85193e-08
1.56955e-06
1.45376e-08
1.5527e-06
1.68484e-08
3.12825e-08
1.52142e-06
3.48878e-06
7.60686e-08
3.53917e-06
1.24126e-07
3.57079e-06
1.41236e-07
3.58378e-06
1.5804e-07
3.57896e-06
1.68417e-07
3.55888e-06
1.71294e-07
3.52643e-06
1.67955e-07
3.48462e-06
1.5954e-07
3.43626e-06
1.47351e-07
3.3838e-06
1.32964e-07
3.32913e-06
1.17932e-07
3.27353e-06
1.03647e-07
3.21781e-06
9.1122e-08
3.16234e-06
8.10147e-08
3.10718e-06
7.36788e-08
3.05216e-06
6.95577e-08
3.00007e-06
6.89461e-08
6.60388e-08
2.96531e-06
3.68043e-06
5.81603e-08
3.69899e-06
1.05566e-07
3.71841e-06
1.21808e-07
3.74061e-06
1.35848e-07
3.76332e-06
1.45706e-07
3.78495e-06
1.49658e-07
3.80415e-06
1.48759e-07
3.81968e-06
1.44012e-07
3.83087e-06
1.36159e-07
3.83761e-06
1.26221e-07
3.84008e-06
1.15463e-07
3.83868e-06
1.05042e-07
3.83396e-06
9.58476e-08
3.82644e-06
8.85341e-08
3.81656e-06
8.35619e-08
3.80511e-06
8.09987e-08
3.79321e-06
8.08514e-08
8.01259e-08
3.77912e-06
3.93626e-06
4.7285e-08
3.94787e-06
9.39606e-08
3.95761e-06
1.12062e-07
3.96811e-06
1.25348e-07
3.97939e-06
1.34425e-07
3.99128e-06
1.37774e-07
4.00359e-06
1.36448e-07
4.01591e-06
1.31688e-07
4.02763e-06
1.2444e-07
4.03821e-06
1.15643e-07
4.04738e-06
1.06298e-07
4.05505e-06
9.73696e-08
4.06129e-06
8.96016e-08
4.06634e-06
8.3493e-08
4.07052e-06
7.93814e-08
4.07421e-06
7.73072e-08
4.07778e-06
7.72803e-08
7.80448e-08
4.07986e-06
4.21535e-06
3.90666e-08
4.22563e-06
8.36733e-08
4.23457e-06
1.03126e-07
4.24368e-06
1.16234e-07
4.25313e-06
1.2498e-07
4.26264e-06
1.28262e-07
4.27208e-06
1.27009e-07
4.28128e-06
1.22485e-07
4.29002e-06
1.15705e-07
4.29807e-06
1.07589e-07
4.30533e-06
9.90374e-08
4.31179e-06
9.09061e-08
4.31755e-06
8.38503e-08
4.32271e-06
7.83275e-08
4.32748e-06
7.46113e-08
4.33204e-06
7.2745e-08
4.33671e-06
7.26163e-08
7.36947e-08
4.34106e-06
4.51557e-06
3.25804e-08
4.52507e-06
7.41815e-08
4.53399e-06
9.41999e-08
4.54315e-06
1.07074e-07
4.55263e-06
1.15497e-07
4.56211e-06
1.1879e-07
4.57133e-06
1.17787e-07
4.58015e-06
1.13668e-07
4.58843e-06
1.07421e-07
4.59608e-06
9.99417e-08
4.60304e-06
9.20725e-08
4.60937e-06
8.45805e-08
4.61515e-06
7.80629e-08
4.62052e-06
7.29581e-08
4.62564e-06
6.94931e-08
4.63067e-06
6.7714e-08
4.63574e-06
6.75479e-08
6.88989e-08
4.64054e-06
4.83796e-06
2.73408e-08
4.8467e-06
6.54443e-08
4.85549e-06
8.54098e-08
4.86471e-06
9.78526e-08
4.8744e-06
1.05802e-07
4.88419e-06
1.09002e-07
4.89377e-06
1.0821e-07
4.90292e-06
1.04515e-07
4.91151e-06
9.88359e-08
4.91945e-06
9.1997e-08
4.92674e-06
8.47845e-08
4.93343e-06
7.78922e-08
4.93963e-06
7.18619e-08
4.9455e-06
6.70905e-08
4.9512e-06
6.37853e-08
4.9569e-06
6.20143e-08
4.96268e-06
6.17718e-08
6.31537e-08
4.96843e-06
5.18389e-06
2.30354e-08
5.19193e-06
5.74047e-08
5.20053e-06
7.68015e-08
5.20973e-06
8.86561e-08
5.21951e-06
9.60198e-08
5.2295e-06
9.90139e-08
5.23939e-06
9.83186e-08
5.24895e-06
9.49528e-08
5.25801e-06
8.97791e-08
5.26647e-06
8.35422e-08
5.2743e-06
7.6948e-08
5.28158e-06
7.06151e-08
5.28842e-06
6.50265e-08
5.29498e-06
6.05263e-08
5.30146e-06
5.73079e-08
5.30801e-06
5.54579e-08
5.31477e-06
5.50199e-08
5.61927e-08
5.32173e-06
5.55493e-06
1.94476e-08
5.56233e-06
5.00009e-08
5.57075e-06
6.83812e-08
5.57989e-06
7.95105e-08
5.5897e-06
8.62122e-08
5.59981e-06
8.89103e-08
5.6099e-06
8.82268e-08
5.61976e-06
8.50916e-08
5.62922e-06
8.03158e-08
5.63818e-06
7.45824e-08
5.64661e-06
6.85155e-08
5.65457e-06
6.26553e-08
5.66218e-06
5.7423e-08
5.66959e-06
5.31144e-08
5.677e-06
4.98979e-08
5.6846e-06
4.78613e-08
5.69252e-06
4.70986e-08
4.78772e-08
5.70083e-06
5.95281e-06
1.64112e-08
5.95964e-06
4.31739e-08
5.96786e-06
6.01582e-08
5.97695e-06
7.04202e-08
5.98677e-06
7.63973e-08
5.99696e-06
7.87228e-08
6.0072e-06
7.7977e-08
6.01731e-06
7.49882e-08
6.02712e-06
7.0509e-08
6.03653e-06
6.51646e-08
6.04554e-06
5.95058e-08
6.0542e-06
5.40005e-08
6.06261e-06
4.90109e-08
6.07094e-06
4.47856e-08
6.07938e-06
4.14582e-08
6.08811e-06
3.91244e-08
6.09728e-06
3.79334e-08
3.80808e-08
6.10708e-06
6.37943e-06
1.37935e-08
6.38574e-06
3.68659e-08
6.39375e-06
5.2146e-08
6.40278e-06
6.139e-08
6.4126e-06
6.65799e-08
6.42286e-06
6.84581e-08
6.43326e-06
6.75745e-08
6.4436e-06
6.46532e-08
6.45373e-06
6.03772e-08
6.46358e-06
5.53126e-08
6.47315e-06
4.9942e-08
6.48248e-06
4.46674e-08
6.4917e-06
3.97957e-08
6.50095e-06
3.55301e-08
6.51044e-06
3.19741e-08
6.52031e-06
2.92468e-08
6.53076e-06
2.74832e-08
2.67368e-08
6.54211e-06
5.74281e-06
1.18152e-08
5.74778e-06
3.19021e-08
5.75438e-06
4.55452e-08
5.76196e-06
5.3808e-08
5.77025e-06
5.82855e-08
5.77898e-06
5.9728e-08
5.78789e-06
5.86636e-08
5.79681e-06
5.57359e-08
5.80563e-06
5.1562e-08
5.81429e-06
4.66542e-08
5.82279e-06
4.14406e-08
5.83118e-06
3.62708e-08
5.83957e-06
3.14082e-08
5.84808e-06
2.70192e-08
5.85686e-06
2.31937e-08
5.86605e-06
2.0061e-08
5.87585e-06
1.76789e-08
1.60399e-08
5.88655e-06
7.0002e-06
9.76557e-09
7.00555e-06
2.65553e-08
7.0129e-06
3.81963e-08
7.0215e-06
4.52081e-08
7.03099e-06
4.87955e-08
7.04105e-06
4.96704e-08
7.05139e-06
4.83263e-08
7.06181e-06
4.53163e-08
7.07219e-06
4.11787e-08
7.08248e-06
3.6363e-08
7.09268e-06
3.12367e-08
7.10286e-06
2.60937e-08
7.11312e-06
2.115e-08
7.1236e-06
1.65369e-08
7.13446e-06
1.23315e-08
7.14588e-06
8.64234e-09
7.15812e-06
5.44258e-09
2.71088e-09
7.17145e-06
8.53297e-06
7.64613e-09
8.53867e-06
2.08554e-08
8.54676e-06
3.01072e-08
8.55641e-06
3.55565e-08
8.56716e-06
3.80392e-08
8.57865e-06
3.81797e-08
8.59056e-06
3.64206e-08
8.60266e-06
3.32184e-08
8.61482e-06
2.90202e-08
8.62698e-06
2.42028e-08
8.63914e-06
1.90683e-08
8.65139e-06
1.38524e-08
8.66381e-06
8.72269e-09
8.67657e-06
3.77708e-09
8.68983e-06
-9.24039e-10
8.7038e-06
-5.32686e-09
8.71873e-06
-9.4927e-09
-1.34442e-08
8.73489e-06
1.04014e-05
5.44817e-09
1.04075e-05
1.48189e-08
1.04163e-05
2.12932e-08
1.0427e-05
2.48335e-08
1.04391e-05
2.59599e-08
1.04521e-05
2.5165e-08
1.04657e-05
2.282e-08
1.04796e-05
1.92817e-08
1.04937e-05
1.48969e-08
1.0508e-05
9.96104e-09
1.05223e-05
4.70688e-09
1.05369e-05
-6.88299e-10
1.05517e-05
-6.1041e-09
1.0567e-05
-1.14731e-08
1.05828e-05
-1.67607e-08
1.05994e-05
-2.19561e-08
1.06171e-05
-2.71292e-08
-3.22901e-08
1.06359e-05
1.26791e-05
3.15443e-09
1.26855e-05
8.42875e-09
1.2695e-05
1.17537e-08
1.27068e-05
1.30192e-08
1.27203e-05
1.25061e-08
1.27349e-05
1.05496e-08
1.27503e-05
7.42493e-09
1.27662e-05
3.38679e-09
1.27824e-05
-1.32166e-09
1.27989e-05
-6.49217e-09
1.28155e-05
-1.19623e-08
1.28325e-05
-1.76133e-08
1.28497e-05
-2.33672e-08
1.28674e-05
-2.91843e-08
1.28857e-05
-3.50489e-08
1.29047e-05
-4.09627e-08
1.29246e-05
-4.70094e-08
-5.31724e-08
1.29455e-05
1.54556e-05
7.29081e-10
1.54624e-05
1.61315e-09
1.54727e-05
1.43118e-09
1.54857e-05
5.86283e-11
1.55006e-05
-2.38895e-09
1.55169e-05
-5.73772e-09
1.55341e-05
-9.82767e-09
1.5552e-05
-1.45104e-08
1.55704e-05
-1.9646e-08
1.5589e-05
-2.5114e-08
1.56078e-05
-3.0822e-08
1.56269e-05
-3.67051e-08
1.56463e-05
-4.27233e-08
1.5666e-05
-4.8858e-08
1.5686e-05
-5.51069e-08
1.57065e-05
-6.14677e-08
1.57275e-05
-6.80047e-08
-7.47042e-08
1.57491e-05
1.88403e-05
-1.91288e-09
1.88477e-05
-5.81478e-09
1.8859e-05
-9.88998e-09
1.88733e-05
-1.42337e-08
1.88898e-05
-1.88729e-08
1.89079e-05
-2.37967e-08
1.8927e-05
-2.89727e-08
1.89469e-05
-3.4359e-08
1.89671e-05
-3.99145e-08
1.89876e-05
-4.56051e-08
1.90082e-05
-5.14063e-08
1.90288e-05
-5.73039e-08
1.90494e-05
-6.32928e-08
1.90699e-05
-6.93744e-08
1.90903e-05
-7.55539e-08
1.91107e-05
-8.1833e-08
1.91309e-05
-8.82321e-08
-9.47246e-08
1.91509e-05
2.29663e-05
-4.88984e-09
2.29747e-05
-1.42461e-08
2.29876e-05
-2.27043e-08
2.30037e-05
-3.03452e-08
2.30222e-05
-3.73638e-08
2.30423e-05
-4.3935e-08
2.30635e-05
-5.01634e-08
2.30853e-05
-5.61179e-08
2.31072e-05
-6.18589e-08
2.3129e-05
-6.74393e-08
2.31505e-05
-7.29036e-08
2.31715e-05
-7.82901e-08
2.31919e-05
-8.36328e-08
2.32114e-05
-8.89605e-08
2.32302e-05
-9.42955e-08
2.3248e-05
-9.96513e-08
2.32648e-05
-1.05033e-07
-1.10432e-07
2.32805e-05
1.6813e-05
-7.16541e-09
1.68193e-05
-2.05987e-08
1.68288e-05
-3.21731e-08
1.68405e-05
-4.20109e-08
1.68536e-05
-5.05308e-08
1.68678e-05
-5.8075e-08
1.68824e-05
-6.4834e-08
1.68973e-05
-7.0947e-08
1.6912e-05
-7.65442e-08
1.69263e-05
-8.1737e-08
1.694e-05
-8.66144e-08
1.69529e-05
-9.12511e-08
1.6965e-05
-9.57125e-08
1.69761e-05
-1.00053e-07
1.69861e-05
-1.04317e-07
1.6995e-05
-1.08534e-07
1.70027e-05
-1.12722e-07
-1.16891e-07
1.70092e-05
1.46368e-05
-9.39544e-09
1.46429e-05
-2.6705e-08
1.46517e-05
-4.09812e-08
1.46622e-05
-5.25401e-08
1.46739e-05
-6.21752e-08
1.46862e-05
-7.03959e-08
1.46988e-05
-7.74404e-08
1.47114e-05
-8.35064e-08
1.47236e-05
-8.87871e-08
1.47353e-05
-9.34382e-08
1.47463e-05
-9.75809e-08
1.47564e-05
-1.0132e-07
1.47654e-05
-1.04751e-07
1.47733e-05
-1.07955e-07
1.478e-05
-1.11001e-07
1.47854e-05
-1.1394e-07
1.47895e-05
-1.16812e-07
-1.19645e-07
1.47922e-05
1.27425e-05
-1.17636e-08
1.27487e-05
-3.29517e-08
1.27573e-05
-4.95173e-08
1.27671e-05
-6.23338e-08
1.27777e-05
-7.27706e-08
1.27887e-05
-8.14459e-08
1.27999e-05
-8.85977e-08
1.28109e-05
-9.44845e-08
1.28214e-05
-9.93574e-08
1.28314e-05
-1.03399e-07
1.28406e-05
-1.06751e-07
1.28488e-05
-1.09542e-07
1.28559e-05
-1.11892e-07
1.28619e-05
-1.13912e-07
1.28666e-05
-1.15695e-07
1.287e-05
-1.17321e-07
1.2872e-05
-1.18849e-07
-1.20332e-07
1.28727e-05
1.10936e-05
-1.44791e-08
1.11004e-05
-3.96591e-08
1.11088e-05
-5.7988e-08
1.11181e-05
-7.15895e-08
1.11279e-05
-8.25818e-08
1.1138e-05
-9.15471e-08
1.11481e-05
-9.86856e-08
1.11579e-05
-1.04328e-07
1.11673e-05
-1.0877e-07
1.11761e-05
-1.122e-07
1.11842e-05
-1.14769e-07
1.11912e-05
-1.16624e-07
1.11973e-05
-1.17907e-07
1.12021e-05
-1.18755e-07
1.12057e-05
-1.1929e-07
1.1208e-05
-1.19618e-07
1.1209e-05
-1.19822e-07
-1.19973e-07
1.12086e-05
9.65854e-06
-1.78089e-08
9.66596e-06
-4.70747e-08
9.67444e-06
-6.64721e-08
9.68328e-06
-8.04224e-08
9.69248e-06
-9.1789e-08
9.70184e-06
-1.00907e-07
9.71111e-06
-1.07949e-07
9.72011e-06
-1.13332e-07
9.72871e-06
-1.17366e-07
9.73673e-06
-1.20227e-07
9.74403e-06
-1.22063e-07
9.75044e-06
-1.23034e-07
9.75583e-06
-1.23301e-07
9.76011e-06
-1.23028e-07
9.76318e-06
-1.22366e-07
9.76501e-06
-1.21446e-07
9.76557e-06
-1.20382e-07
-1.19268e-07
9.76487e-06
8.40969e-06
-2.21431e-08
8.41797e-06
-5.53611e-08
8.42646e-06
-7.49566e-08
8.43498e-06
-8.89425e-08
8.44376e-06
-1.00576e-07
8.45259e-06
-1.0973e-07
8.46124e-06
-1.16606e-07
8.46963e-06
-1.21721e-07
8.47764e-06
-1.25376e-07
8.48513e-06
-1.27718e-07
8.49196e-06
-1.28888e-07
8.49798e-06
-1.2905e-07
8.50305e-06
-1.2838e-07
8.5071e-06
-1.27075e-07
8.51005e-06
-1.25313e-07
8.51184e-06
-1.23234e-07
8.51243e-06
-1.2098e-07
-1.18617e-07
8.51178e-06
7.3232e-06
-2.80617e-08
7.33258e-06
-6.47421e-08
7.34109e-06
-8.34605e-08
7.34941e-06
-9.72678e-08
7.35789e-06
-1.09053e-07
7.36631e-06
-1.18147e-07
7.37455e-06
-1.24853e-07
7.38259e-06
-1.2976e-07
7.39036e-06
-1.33144e-07
7.39775e-06
-1.35112e-07
7.40465e-06
-1.35788e-07
7.41094e-06
-1.35334e-07
7.41647e-06
-1.33913e-07
7.42115e-06
-1.3175e-07
7.42488e-06
-1.29049e-07
7.42761e-06
-1.25966e-07
7.42933e-06
-1.2269e-07
-1.19326e-07
7.43003e-06
6.3783e-06
-3.62925e-08
6.38929e-06
-7.57341e-08
6.39834e-06
-9.25107e-08
6.40742e-06
-1.0635e-07
6.41674e-06
-1.18368e-07
6.42606e-06
-1.27468e-07
6.43545e-06
-1.34247e-07
6.44498e-06
-1.39286e-07
6.45463e-06
-1.428e-07
6.46435e-06
-1.44825e-07
6.47401e-06
-1.45446e-07
6.48345e-06
-1.44783e-07
6.49251e-06
-1.42971e-07
6.50095e-06
-1.40184e-07
6.50854e-06
-1.36639e-07
6.51519e-06
-1.32616e-07
6.52078e-06
-1.28287e-07
-1.23868e-07
6.52533e-06
5.55905e-06
-4.98829e-08
5.57517e-06
-9.18493e-08
5.59021e-06
-1.07549e-07
5.60724e-06
-1.23379e-07
5.62601e-06
-1.37145e-07
5.64591e-06
-1.47366e-07
5.66645e-06
-1.54787e-07
5.68718e-06
-1.6001e-07
5.7075e-06
-1.63124e-07
5.72679e-06
-1.64115e-07
5.74443e-06
-1.63084e-07
5.75985e-06
-1.60209e-07
5.77261e-06
-1.55729e-07
5.78241e-06
-1.4998e-07
5.78909e-06
-1.43327e-07
5.79264e-06
-1.36164e-07
5.79314e-06
-1.28781e-07
-1.21935e-07
5.7912e-06
4.88747e-06
-1.0975e-07
4.94065e-06
-1.45026e-07
4.98501e-06
-1.51911e-07
5.01933e-06
-1.57698e-07
5.04174e-06
-1.59553e-07
5.05238e-06
-1.58008e-07
5.05198e-06
-1.54381e-07
5.04118e-06
-1.49215e-07
5.02079e-06
-1.42734e-07
4.99178e-06
-1.35103e-07
4.95522e-06
-1.26521e-07
4.91221e-06
-1.17204e-07
4.86387e-06
-1.07384e-07
4.81122e-06
-9.73289e-08
4.75519e-06
-8.73018e-08
4.69661e-06
-7.75885e-08
4.6362e-06
-6.83651e-08
-6.00448e-08
4.57431e-06
4.09293e-06
3.9479e-06
3.79599e-06
3.63829e-06
3.47874e-06
3.32073e-06
3.16635e-06
3.01714e-06
2.8744e-06
2.7393e-06
2.61278e-06
2.49557e-06
2.38819e-06
2.29086e-06
2.20356e-06
2.12597e-06
2.05761e-06
1.99756e-06
-1.46166e-07
1.46166e-07
-2.85635e-07
1.3947e-07
-4.01428e-07
1.15793e-07
-4.85603e-07
8.41752e-08
-5.38117e-07
5.25135e-08
-5.66076e-07
2.79594e-08
-5.80701e-07
1.46251e-08
-5.93615e-07
1.29141e-08
-6.1428e-07
2.06646e-08
-6.49054e-07
3.47747e-08
-7.01156e-07
5.21013e-08
-7.71096e-07
6.994e-08
-8.58572e-07
8.74763e-08
-9.6454e-07
1.05968e-07
-1.08905e-06
1.24507e-07
-1.23057e-06
1.41526e-07
-1.38722e-06
1.56649e-07
-1.55635e-06
1.6913e-07
-1.73446e-06
1.78107e-07
-1.91696e-06
1.825e-07
-2.0983e-06
1.81338e-07
-2.27227e-06
1.73969e-07
-2.43236e-06
1.60098e-07
-2.57201e-06
1.39649e-07
-2.68476e-06
1.12747e-07
-2.76455e-06
7.97938e-08
-2.80631e-06
4.17582e-08
-2.80658e-06
2.64505e-10
-2.76315e-06
-4.34297e-08
-2.67524e-06
-8.79117e-08
-2.54243e-06
-1.32804e-07
-2.36489e-06
-1.77545e-07
-2.14359e-06
-2.21293e-07
-1.88024e-06
-2.63353e-07
-1.5772e-06
-3.03035e-07
-1.23801e-06
-3.39192e-07
-8.6705e-07
-3.70962e-07
-4.69343e-07
-3.97707e-07
-5.14297e-08
-4.17913e-07
3.7678e-07
-4.28209e-07
8.02236e-07
-4.25456e-07
1.20915e-06
-4.06914e-07
1.57807e-06
-3.68925e-07
1.88522e-06
-3.0715e-07
2.10369e-06
-2.18461e-07
2.21179e-06
-1.08104e-07
2.20936e-06
2.43377e-09
2.12351e-06
8.58452e-08
1.99502e-06
1.2849e-07
1.85955e-06
1.35473e-07
1.73599e-06
1.23559e-07
1.62714e-06
1.08845e-07
1.52997e-06
9.71774e-08
1.44283e-06
8.71383e-08
1.36282e-06
8.00049e-08
1.28394e-06
7.88851e-08
1.20132e-06
8.26118e-08
1.11697e-06
8.43505e-08
1.0414e-06
7.55728e-08
9.92476e-07
4.8926e-08
9.95933e-07
-3.45743e-09
1.07674e-06
-8.08029e-08
1.26056e-06
-1.83822e-07
1.55565e-06
-2.95096e-07
1.93926e-06
-3.83606e-07
2.35054e-06
-4.11285e-07
2.69961e-06
-3.49063e-07
2.89954e-06
-1.9993e-07
2.92365e-06
-2.41117e-08
2.83458e-06
8.90643e-08
2.72766e-06
1.06923e-07
2.6439e-06
8.3759e-08
2.55876e-06
8.51427e-08
2.42644e-06
1.32315e-07
2.21766e-06
2.08788e-07
1.91761e-06
3.00045e-07
1.52133e-06
3.96279e-07
1.03849e-06
4.82848e-07
4.882e-07
5.50285e-07
-1.0797e-07
5.9617e-07
-7.29258e-07
6.21288e-07
-1.35723e-06
6.2797e-07
-1.97707e-06
6.19841e-07
-2.57768e-06
6.00607e-07
-3.15068e-06
5.73002e-07
-3.68947e-06
5.38797e-07
-4.1885e-06
4.99022e-07
-4.6427e-06
4.54205e-07
-5.04766e-06
4.04957e-07
-5.39844e-06
3.50781e-07
-5.69071e-06
2.92265e-07
-5.92181e-06
2.31108e-07
-6.08986e-06
1.68046e-07
-6.19397e-06
1.04114e-07
-6.23436e-06
4.03862e-08
-6.21643e-06
-1.79288e-08
-6.14601e-06
-7.04241e-08
-6.02652e-06
-1.19489e-07
-5.86046e-06
-1.66055e-07
-5.64999e-06
-2.10472e-07
-5.39727e-06
-2.52718e-07
-5.10461e-06
-2.92661e-07
-4.77452e-06
-3.30091e-07
-4.40979e-06
-3.64728e-07
-4.01349e-06
-3.96307e-07
-3.58896e-06
-4.24525e-07
-3.14026e-06
-4.48705e-07
-2.67229e-06
-4.67964e-07
-2.19121e-06
-4.81084e-07
-1.70502e-06
-4.86192e-07
-1.22342e-06
-4.81596e-07
-7.55503e-07
-4.67917e-07
-3.03312e-07
-4.5219e-07
1.36961e-07
-4.40273e-07
5.64123e-07
-4.27162e-07
9.70969e-07
-4.06847e-07
1.34999e-06
-3.79022e-07
1.69671e-06
-3.46719e-07
2.00926e-06
-3.12548e-07
2.28712e-06
-2.77864e-07
2.53059e-06
-2.43469e-07
2.74053e-06
-2.09937e-07
2.91836e-06
-1.7783e-07
3.06581e-06
-1.4745e-07
3.18474e-06
-1.18934e-07
3.27718e-06
-9.24393e-08
3.34522e-06
-6.80364e-08
3.39114e-06
-4.59184e-08
3.41711e-06
-2.59723e-08
3.42432e-06
-7.21246e-09
3.41549e-06
8.83222e-09
3.39295e-06
2.25363e-08
3.35913e-06
3.38203e-08
3.31669e-06
4.24459e-08
3.2677e-06
4.89889e-08
3.21394e-06
5.37589e-08
3.15698e-06
5.69559e-08
3.09825e-06
5.87284e-08
3.03906e-06
5.91941e-08
2.98054e-06
5.85184e-08
2.92356e-06
5.69768e-08
2.86863e-06
5.49355e-08
2.81596e-06
5.26723e-08
2.76557e-06
5.03878e-08
2.71718e-06
4.83904e-08
2.67038e-06
4.67982e-08
2.62489e-06
4.54951e-08
2.58033e-06
4.45533e-08
2.53627e-06
4.40639e-08
2.49217e-06
4.40982e-08
2.44745e-06
4.47185e-08
2.40182e-06
4.56319e-08
2.35523e-06
4.65913e-08
2.30788e-06
4.73472e-08
2.26036e-06
4.75179e-08
2.21359e-06
4.67705e-08
2.16861e-06
4.49806e-08
2.12644e-06
4.21685e-08
2.08803e-06
3.84102e-08
2.05412e-06
3.39146e-08
2.02506e-06
2.90596e-08
2.00079e-06
2.42683e-08
1.98089e-06
1.98957e-08
1.96471e-06
1.61887e-08
1.95143e-06
1.32712e-08
1.94026e-06
1.11711e-08
1.93043e-06
9.83185e-09
1.92131e-06
9.12602e-09
1.9124e-06
8.90785e-09
1.90335e-06
9.04405e-09
1.89394e-06
9.41857e-09
1.88398e-06
9.95445e-09
1.87335e-06
1.06318e-08
1.86181e-06
1.15424e-08
1.84895e-06
1.28597e-08
1.83385e-06
1.50944e-08
1.81504e-06
1.88079e-08
1.78822e-06
2.68295e-08
1.74083e-06
4.73896e-08
7.52151e-08
1.66561e-06
-1.37294e-07
2.8346e-07
-2.57856e-07
2.60031e-07
-3.5118e-07
2.09117e-07
-4.13396e-07
1.46392e-07
-4.5168e-07
9.07972e-08
-4.79349e-07
5.56278e-08
-5.10932e-07
4.62085e-08
-5.58197e-07
6.01786e-08
-6.28508e-07
9.09757e-08
-7.25629e-07
1.31896e-07
-8.51364e-07
1.77836e-07
-1.00516e-06
2.23732e-07
-1.18408e-06
2.66402e-07
-1.38435e-06
3.06234e-07
-1.60322e-06
3.43378e-07
-1.83783e-06
3.76136e-07
-2.08366e-06
4.02477e-07
-2.33498e-06
4.20449e-07
-2.5854e-06
4.28535e-07
-2.82851e-06
4.256e-07
-3.05797e-06
4.10798e-07
-3.26784e-06
3.83843e-07
-3.45294e-06
3.45198e-07
-3.60901e-06
2.9572e-07
-3.73262e-06
2.36357e-07
-3.82109e-06
1.68267e-07
-3.8722e-06
9.28607e-08
-3.8864e-06
1.44682e-08
-3.8546e-06
-7.52276e-08
-3.77755e-06
-1.64962e-07
-3.65404e-06
-2.56317e-07
-3.48364e-06
-3.47943e-07
-3.26652e-06
-4.38415e-07
-3.0034e-06
-5.26471e-07
-2.69598e-06
-6.10456e-07
-2.34671e-06
-6.88457e-07
-1.95877e-06
-7.5891e-07
-1.53631e-06
-8.20166e-07
-1.08425e-06
-8.69968e-07
-6.07522e-07
-9.0494e-07
-1.11745e-07
-9.21234e-07
3.95701e-07
-9.1436e-07
9.06335e-07
-8.79559e-07
1.41189e-06
-8.12702e-07
1.9057e-06
-7.1227e-07
2.37896e-06
-5.81365e-07
2.80689e-06
-4.255e-07
3.14884e-06
-2.56103e-07
3.36459e-06
-8.72571e-08
3.43388e-06
6.61757e-08
3.3641e-06
1.93344e-07
3.18891e-06
2.84036e-07
2.9534e-06
3.32682e-07
2.70022e-06
3.40321e-07
2.46001e-06
3.20217e-07
2.24718e-06
2.91709e-07
2.06092e-06
2.68872e-07
1.89313e-06
2.52139e-07
1.74099e-06
2.27714e-07
1.61589e-06
1.74031e-07
1.54051e-06
7.19228e-08
1.54166e-06
-8.19508e-08
1.63832e-06
-2.80487e-07
1.84233e-06
-4.99102e-07
2.14841e-06
-6.89693e-07
2.52401e-06
-7.86885e-07
2.91122e-06
-7.3627e-07
3.2459e-06
-5.34612e-07
3.46751e-06
-2.45721e-07
3.53182e-06
2.47582e-08
3.44555e-06
1.93189e-07
3.25892e-06
2.70396e-07
2.99447e-06
3.49588e-07
2.62016e-06
5.0663e-07
2.09603e-06
7.32911e-07
1.42588e-06
9.70194e-07
6.53443e-07
1.16872e-06
-1.68059e-07
1.30435e-06
-9.9141e-07
1.37364e-06
-1.78107e-06
1.38583e-06
-2.51453e-06
1.35475e-06
-3.18057e-06
1.29401e-06
-3.77574e-06
1.21501e-06
-4.30093e-06
1.1258e-06
-4.75908e-06
1.03116e-06
-5.15374e-06
9.33455e-07
-5.48838e-06
8.33659e-07
-5.76628e-06
7.32111e-07
-5.99035e-06
6.29023e-07
-6.16399e-06
5.24424e-07
-6.29051e-06
4.18784e-07
-6.37267e-06
3.13269e-07
-6.41326e-06
2.08636e-07
-6.41492e-06
1.05775e-07
-6.37992e-06
5.38238e-09
-6.30448e-06
-9.33644e-08
-6.18513e-06
-1.8978e-07
-6.02094e-06
-2.83672e-07
-5.81272e-06
-3.74274e-07
-5.56203e-06
-4.61164e-07
-5.27084e-06
-5.43908e-07
-4.94155e-06
-6.21948e-07
-4.57701e-06
-6.94634e-07
-4.18049e-06
-7.61247e-07
-3.75528e-06
-8.21516e-07
-3.30496e-06
-8.74846e-07
-2.83349e-06
-9.20179e-07
-2.34612e-06
-9.55337e-07
-1.84885e-06
-9.78353e-07
-1.34735e-06
-9.87691e-07
-8.46173e-07
-9.82771e-07
-3.48245e-07
-9.65845e-07
1.42026e-07
-9.42461e-07
6.16629e-07
-9.14876e-07
1.06828e-06
-8.78818e-07
1.4934e-06
-8.31966e-07
1.88887e-06
-7.74488e-07
2.25239e-06
-7.10233e-07
2.58235e-06
-6.42514e-07
2.8781e-06
-5.73614e-07
3.13984e-06
-5.05204e-07
3.36831e-06
-4.38409e-07
3.5645e-06
-3.74027e-07
3.72993e-06
-3.12875e-07
3.86644e-06
-2.55442e-07
3.97605e-06
-2.02054e-07
4.06087e-06
-1.52857e-07
4.12287e-06
-1.07913e-07
4.16395e-06
-6.70509e-08
4.18714e-06
-3.04088e-08
4.1962e-06
-2.2588e-10
4.18789e-06
3.08447e-08
4.16565e-06
5.60604e-08
4.1301e-06
7.80011e-08
4.0825e-06
9.65861e-08
4.02437e-06
1.11885e-07
3.95741e-06
1.23923e-07
3.8835e-06
1.32634e-07
3.80474e-06
1.37957e-07
3.72329e-06
1.39966e-07
3.64125e-06
1.39012e-07
3.56039e-06
1.35799e-07
3.48189e-06
1.31178e-07
3.40639e-06
1.25887e-07
3.33435e-06
1.20431e-07
3.26609e-06
1.15058e-07
3.20153e-06
1.10052e-07
3.14019e-06
1.05895e-07
3.08122e-06
1.03031e-07
3.02358e-06
1.01737e-07
2.96627e-06
1.02033e-07
2.9084e-06
1.03504e-07
2.84953e-06
1.05458e-07
2.78976e-06
1.07119e-07
2.72968e-06
1.0759e-07
2.67039e-06
1.06067e-07
2.61316e-06
1.02211e-07
2.55929e-06
9.60338e-08
2.51002e-06
8.7683e-08
2.46633e-06
7.76032e-08
2.42876e-06
6.66325e-08
2.39729e-06
5.57378e-08
2.37144e-06
4.57462e-08
2.35039e-06
3.72379e-08
2.33316e-06
3.05032e-08
2.31872e-06
2.56081e-08
2.30613e-06
2.24264e-08
2.29457e-06
2.06848e-08
2.28341e-06
2.00636e-08
2.27219e-06
2.02662e-08
2.26058e-06
2.10305e-08
2.24836e-06
2.21665e-08
2.23539e-06
2.36104e-08
2.22144e-06
2.54915e-08
2.20608e-06
2.82163e-08
2.18869e-06
3.24882e-08
2.16759e-06
3.99031e-08
2.14207e-06
5.23479e-08
2.1066e-06
8.2862e-08
1.25112e-07
2.0567e-06
-7.69904e-08
3.6045e-07
-1.48809e-07
3.3185e-07
-2.06294e-07
2.66602e-07
-2.50619e-07
1.90716e-07
-2.93062e-07
1.33241e-07
-3.48231e-07
1.10796e-07
-4.27904e-07
1.25882e-07
-5.38991e-07
1.71266e-07
-6.84198e-07
2.36182e-07
-8.63205e-07
3.10904e-07
-1.07461e-06
3.89236e-07
-1.31701e-06
4.66139e-07
-1.58767e-06
5.37059e-07
-1.88103e-06
5.99596e-07
-2.19059e-06
6.52934e-07
-2.51007e-06
6.95614e-07
-2.8331e-06
7.25507e-07
-3.15327e-06
7.40624e-07
-3.46428e-06
7.39547e-07
-3.76017e-06
7.21483e-07
-4.03551e-06
6.86145e-07
-4.28538e-06
6.33715e-07
-4.50511e-06
5.64928e-07
-4.69048e-06
4.8109e-07
-4.83783e-06
3.83702e-07
-4.94398e-06
2.74419e-07
-5.00647e-06
1.55354e-07
-5.02041e-06
2.84063e-08
-4.99148e-06
-1.04163e-07
-4.91615e-06
-2.40291e-07
-4.7949e-06
-3.77568e-07
-4.62859e-06
-5.14248e-07
-4.41851e-06
-6.48494e-07
-4.16654e-06
-7.78445e-07
-3.87474e-06
-9.02254e-07
-3.54501e-06
-1.01819e-06
-3.17935e-06
-1.12456e-06
-2.77999e-06
-1.21953e-06
-2.34911e-06
-1.30085e-06
-1.88829e-06
-1.36576e-06
-1.39871e-06
-1.41082e-06
-8.81094e-07
-1.43197e-06
-3.36004e-07
-1.42465e-06
2.35522e-07
-1.38423e-06
8.29927e-07
-1.30667e-06
1.43858e-06
-1.19002e-06
2.04571e-06
-1.03263e-06
2.62663e-06
-8.37022e-07
3.15051e-06
-6.1114e-07
3.58235e-06
-3.6566e-07
3.88828e-06
-1.12592e-07
4.04008e-06
1.32241e-07
4.03369e-06
3.39068e-07
3.88754e-06
4.86477e-07
3.64081e-06
5.66939e-07
3.34622e-06
5.86304e-07
3.05304e-06
5.62047e-07
2.7917e-06
5.13485e-07
2.57168e-06
4.47736e-07
2.39237e-06
3.53341e-07
2.25464e-06
2.09653e-07
2.17058e-06
2.10329e-09
2.15635e-06
-2.66259e-07
2.23354e-06
-5.76291e-07
2.41137e-06
-8.67518e-07
2.67221e-06
-1.04772e-06
2.96645e-06
-1.03051e-06
3.22699e-06
-7.95157e-07
3.39319e-06
-4.11926e-07
3.42386e-06
-5.90656e-09
3.29732e-06
3.19731e-07
3.0049e-06
5.6281e-07
2.53725e-06
8.17237e-07
1.89363e-06
1.15025e-06
1.11e-06
1.51655e-06
2.58921e-07
1.82127e-06
-5.85474e-07
2.01311e-06
-1.37182e-06
2.09069e-06
-2.07412e-06
2.07593e-06
-2.68565e-06
1.99735e-06
-3.21274e-06
1.88185e-06
-3.66847e-06
1.74974e-06
-4.06726e-06
1.6138e-06
-4.42171e-06
1.48025e-06
-4.74105e-06
1.35049e-06
-5.03078e-06
1.22319e-06
-5.29315e-06
1.09603e-06
-5.52787e-06
9.66829e-07
-5.73299e-06
8.34139e-07
-5.90589e-06
6.97322e-07
-6.04354e-06
5.56438e-07
-6.1425e-06
4.12228e-07
-6.19963e-06
2.65766e-07
-6.21225e-06
1.18395e-07
-6.17819e-06
-2.86782e-08
-6.09692e-06
-1.74634e-07
-5.96852e-06
-3.18182e-07
-5.79397e-06
-4.58213e-07
-5.57439e-06
-5.93859e-07
-5.31118e-06
-7.24371e-07
-5.0061e-06
-8.48995e-07
-4.66126e-06
-9.66788e-07
-4.27924e-06
-1.07665e-06
-3.86284e-06
-1.17765e-06
-3.41453e-06
-1.26982e-06
-2.93815e-06
-1.35123e-06
-2.43898e-06
-1.41935e-06
-1.92253e-06
-1.47178e-06
-1.39436e-06
-1.50653e-06
-8.59863e-07
-1.52219e-06
-3.24225e-07
-1.51841e-06
2.06229e-07
-1.4963e-06
7.22715e-07
-1.45895e-06
1.21596e-06
-1.40812e-06
1.68059e-06
-1.34345e-06
2.11376e-06
-1.26513e-06
2.5143e-06
-1.17503e-06
2.88085e-06
-1.07678e-06
3.21242e-06
-9.74084e-07
3.50879e-06
-8.69982e-07
3.77047e-06
-7.66883e-07
3.99856e-06
-6.665e-07
4.19465e-06
-5.70115e-07
4.36077e-06
-4.78999e-07
4.49926e-06
-3.9393e-07
4.61236e-06
-3.15153e-07
4.70217e-06
-2.42674e-07
4.77074e-06
-1.7648e-07
4.82013e-06
-1.1644e-07
4.85202e-06
-6.22949e-08
4.86476e-06
-1.29704e-08
4.86495e-06
3.06594e-08
4.85186e-06
6.91417e-08
4.82676e-06
1.03102e-07
4.79091e-06
1.32435e-07
4.74553e-06
1.57266e-07
4.69194e-06
1.77517e-07
4.63159e-06
1.92982e-07
4.56604e-06
2.03513e-07
4.49683e-06
2.09173e-07
4.42545e-06
2.10393e-07
4.3532e-06
2.08047e-07
4.28127e-06
2.03111e-07
4.21056e-06
1.96595e-07
4.14142e-06
1.89574e-07
4.0736e-06
1.82874e-07
4.00646e-06
1.77195e-07
3.93913e-06
1.73226e-07
3.87074e-06
1.71418e-07
3.80061e-06
1.71869e-07
3.72837e-06
1.74273e-07
3.65401e-06
1.77862e-07
3.57793e-06
1.81535e-07
3.50101e-06
1.84043e-07
3.42455e-06
1.84051e-07
3.35017e-06
1.80442e-07
3.27956e-06
1.72822e-07
3.21425e-06
1.61346e-07
3.15552e-06
1.46413e-07
3.1042e-06
1.28923e-07
3.06048e-06
1.10354e-07
3.02393e-06
9.22853e-08
2.99369e-06
7.599e-08
2.96861e-06
6.23112e-08
2.9475e-06
5.16192e-08
2.92924e-06
4.3869e-08
2.91293e-06
3.87336e-08
2.89784e-06
3.57709e-08
2.88338e-06
3.4531e-08
2.86906e-06
3.45853e-08
2.85452e-06
3.55676e-08
2.83945e-06
3.7238e-08
2.82349e-06
3.95697e-08
2.80618e-06
4.28055e-08
2.78672e-06
4.76724e-08
2.76408e-06
5.51267e-08
2.73616e-06
6.7823e-08
2.70155e-06
8.69614e-08
2.65731e-06
1.27101e-07
1.75896e-07
2.60652e-06
-2.1886e-08
3.82336e-07
-5.58348e-08
3.65799e-07
-9.58123e-08
3.06579e-07
-1.50238e-07
2.45142e-07
-2.33573e-07
2.16576e-07
-3.55212e-07
2.32436e-07
-5.16941e-07
2.8761e-07
-7.17576e-07
3.71901e-07
-9.56119e-07
4.74725e-07
-1.23085e-06
5.85632e-07
-1.53746e-06
6.95852e-07
-1.87062e-06
7.993e-07
-2.22492e-06
8.91357e-07
-2.59435e-06
9.69029e-07
-2.97191e-06
1.03049e-06
-3.35028e-06
1.07399e-06
-3.72243e-06
1.09766e-06
-4.08178e-06
1.09997e-06
-4.42227e-06
1.08004e-06
-4.73842e-06
1.03763e-06
-5.02532e-06
9.73042e-07
-5.27871e-06
8.8711e-07
-5.49496e-06
7.81178e-07
-5.67095e-06
6.57074e-07
-5.80412e-06
5.1688e-07
-5.89252e-06
3.62813e-07
-5.93462e-06
1.97453e-07
-5.93045e-06
2.42412e-08
-5.87909e-06
-1.55526e-07
-5.78217e-06
-3.37213e-07
-5.64089e-06
-5.18848e-07
-5.45723e-06
-6.97904e-07
-5.23391e-06
-8.71816e-07
-4.97413e-06
-1.03822e-06
-4.68131e-06
-1.19508e-06
-4.35876e-06
-1.34074e-06
-4.00951e-06
-1.47382e-06
-3.63602e-06
-1.59301e-06
-3.2399e-06
-1.69697e-06
-2.82155e-06
-1.7841e-06
-2.38002e-06
-1.85235e-06
-1.91303e-06
-1.89896e-06
-1.41729e-06
-1.92039e-06
-8.89224e-07
-1.91229e-06
-3.26136e-07
-1.86976e-06
2.71543e-07
-1.78769e-06
8.99405e-07
-1.66049e-06
1.54675e-06
-1.48437e-06
2.19492e-06
-1.25931e-06
2.81901e-06
-9.89753e-07
3.38797e-06
-6.81549e-07
3.8679e-06
-3.47687e-07
4.21988e-06
-1.29159e-08
4.41346e-06
2.92895e-07
4.44015e-06
5.40249e-07
4.31827e-06
7.08191e-07
4.09191e-06
7.88404e-07
3.8182e-06
7.87191e-07
3.54707e-06
7.18874e-07
3.30642e-06
5.93981e-07
3.10315e-06
4.12924e-07
2.93741e-06
1.67843e-07
2.81845e-06
-1.47296e-07
2.76184e-06
-5.1968e-07
2.78597e-06
-8.9165e-07
2.88995e-06
-1.1517e-06
3.0365e-06
-1.17706e-06
3.1609e-06
-9.19551e-07
3.19965e-06
-4.50681e-07
3.1094e-06
8.4348e-08
2.85671e-06
5.72415e-07
2.40855e-06
1.01097e-06
1.75755e-06
1.46824e-06
9.58214e-07
1.94959e-06
1.15893e-07
2.35887e-06
-6.7442e-07
2.61158e-06
-1.36339e-06
2.70209e-06
-1.93989e-06
2.66719e-06
-2.41683e-06
2.55287e-06
-2.81929e-06
2.39982e-06
-3.17391e-06
2.23647e-06
-3.5024e-06
2.07823e-06
-3.81912e-06
1.93051e-06
-4.13146e-06
1.79259e-06
-4.44054e-06
1.65957e-06
-4.74278e-06
1.52543e-06
-5.03174e-06
1.38499e-06
-5.29967e-06
1.23475e-06
-5.53887e-06
1.07334e-06
-5.74284e-06
9.01289e-07
-5.9062e-06
7.19805e-07
-6.02484e-06
5.30864e-07
-6.09591e-06
3.3684e-07
-6.1178e-06
1.40285e-07
-6.08963e-06
-5.68456e-08
-6.01172e-06
-2.52544e-07
-5.88474e-06
-4.4517e-07
-5.70965e-06
-6.33297e-07
-5.48765e-06
-8.15863e-07
-5.22001e-06
-9.92011e-07
-4.90813e-06
-1.16087e-06
-4.55356e-06
-1.32135e-06
-4.15807e-06
-1.47214e-06
-3.72387e-06
-1.61186e-06
-3.25408e-06
-1.7396e-06
-2.75286e-06
-1.85244e-06
-2.22488e-06
-1.94733e-06
-1.67519e-06
-2.02148e-06
-1.10951e-06
-2.07221e-06
-5.34241e-07
-2.09745e-06
4.35413e-08
-2.09619e-06
6.15767e-07
-2.06853e-06
1.17348e-06
-2.01666e-06
1.70812e-06
-1.94276e-06
2.21321e-06
-1.84855e-06
2.68431e-06
-1.73624e-06
3.11846e-06
-1.60917e-06