/*--------------------------------*- C++ -*----------------------------------*\
| =========                 |                                                 |
| \\      /  F ield         | OpenFOAM: The Open Source CFD Toolbox           |
|  \\    /   O peration     | Version:  2112                                  |
|   \\  /    A nd           | Website:  www.openfoam.com                      |
|    \\/     M anipulation  |                                                 |
\*---------------------------------------------------------------------------*/
FoamFile
{
    version     2.0;
    format      ascii;
    arch        "LSB;label=32;scalar=64";
    class       volScalarField;
    location    "0.07";
    object      p;
}
// * * * * * * * * * * * * * * * * * * * * * * * * * * * * * * * * * * * * * //

dimensions      [0 2 -2 0 0 0 0];

internalField   nonuniform List<scalar> 
12225
(
2.74167
1.66476
1.26219
1.24566
1.26243
1.28333
1.35005
1.47318
1.647
1.86834
2.1374
2.45298
2.80963
3.19631
3.59652
3.98556
4.3404
4.6148
1.87984
1.28899
1.09072
1.13392
1.1848
1.22754
1.30536
1.43338
1.60854
1.82854
2.09409
2.40466
2.75568
3.13723
3.53433
3.92327
4.28264
4.55331
1.75445
1.47655
1.25911
1.21764
1.22814
1.24974
1.3083
1.41756
1.57402
1.77345
2.01481
2.29637
2.61311
2.95569
3.31101
3.65924
3.98197
4.22317
1.6405
1.4236
1.17866
1.11336
1.13371
1.17042
1.23606
1.34604
1.49864
1.68908
1.91523
2.17445
2.46094
2.76497
3.07357
3.36932
3.6343
3.84202
1.51774
1.34748
1.14525
1.09096
1.11678
1.15555
1.21609
1.31587
1.45517
1.6291
1.83461
2.06839
2.32423
2.59247
2.86057
3.11335
3.33463
3.51347
1.39997
1.2754
1.11533
1.05791
1.072
1.10481
1.1592
1.24975
1.37707
1.53591
1.72223
1.93201
2.1589
2.39363
2.62471
2.83924
3.02384
3.16901
1.28798
1.19809
1.06989
1.01052
1.01668
1.04781
1.09949
1.1821
1.29694
1.43925
1.60453
1.78839
1.98455
2.18443
2.37778
2.55366
2.70133
2.81286
1.17937
1.11418
1.01263
0.956594
0.957412
0.985231
1.03162
1.10374
1.20362
1.32723
1.46978
1.62653
1.79138
1.95644
2.11268
2.25096
2.36287
2.44298
1.07236
1.02489
0.945582
0.894947
0.890526
0.912629
0.951923
1.01266
1.09682
1.20089
1.31994
1.44902
1.58229
1.71266
1.8323
1.93364
2.01017
2.05802
0.965581
0.930775
0.869085
0.824028
0.814753
0.830013
0.861124
0.909745
0.977249
1.06063
1.1551
1.25574
1.35709
1.45283
1.53627
1.60117
1.64234
1.65669
0.857853
0.831943
0.783533
0.743411
0.729706
0.737257
0.758812
0.794147
0.843907
0.905528
0.974579
1.04631
1.11565
1.17705
1.22483
1.25379
1.25968
1.23987
0.757246
0.736829
0.697144
0.660477
0.642759
0.642466
0.653992
0.676111
0.708803
0.749781
0.795008
0.839997
0.880087
0.91038
0.925975
0.922484
0.896274
0.844987
0.655464
0.638766
0.605184
0.570702
0.548742
0.540088
0.540738
0.548956
0.564142
0.584196
0.6055
0.623919
0.635219
0.635104
0.619374
0.584301
0.526743
0.444574
0.536181
0.522075
0.492573
0.458681
0.431201
0.4123
0.399475
0.390857
0.385399
0.38116
0.375002
0.363271
0.342248
0.308266
0.25782
0.187824
0.0955971
-0.0206991
0.396785
0.38397
0.35601
0.320333
0.285421
0.254009
0.224784
0.196076
0.166634
0.1347
0.0976568
0.0524365
-0.00408163
-0.0749043
-0.16285
-0.270377
-0.399682
-0.552218
0.234969
0.222011
0.1927
0.15216
0.107173
0.0605464
0.0117926
-0.0403584
-0.0970789
-0.159854
-0.230741
-0.312148
-0.406521
-0.516175
-0.643238
-0.789518
-0.956671
-1.14562
0.049869
0.0352796
0.00151891
-0.0475126
-0.105896
-0.170842
-0.242305
-0.32107
-0.407979
-0.504092
-0.610857
-0.729966
-0.863135
-1.01196
-1.17785
-1.36196
-1.56535
-1.78835
-0.155481
-0.173223
-0.21458
-0.27595
-0.351354
-0.437788
-0.534791
-0.642638
-0.761653
-0.892321
-1.03541
-1.19187
-1.36264
-1.54858
-1.75037
-1.96846
-2.2033
-2.45457
-0.36912
-0.392053
-0.444696
-0.522724
-0.6191
-0.730182
-0.855084
-0.993557
-1.14526
-1.30997
-1.48774
-1.67882
-1.88344
-2.10176
-2.33381
-2.57945
-2.83858
-3.11041
-0.518001
-0.546594
-0.611533
-0.706705
-0.822857
-0.955392
-1.10329
-1.26604
-1.4427
-1.63235
-1.83444
-2.04866
-2.27477
-2.51244
-2.76132
-3.02084
-3.29052
-3.56922
-0.596502
-0.63026
-0.706768
-0.817337
-0.949793
-1.09873
-1.26342
-1.44334
-1.6371
-1.84344
-2.06158
-2.29098
-2.53104
-2.78116
-3.04076
-3.30919
-3.58595
-3.87005
-0.629577
-0.669637
-0.759614
-0.886258
-1.03362
-1.19661
-1.37566
-1.5699
-1.77699
-1.99526
-2.22383
-2.46221
-2.70986
-2.96608
-3.23011
-3.50112
-3.77829
-4.06014
-0.626893
-0.67491
-0.781556
-0.925541
-1.08586
-1.25982
-1.45068
-1.65742
-1.87684
-2.10724
-2.3467
-2.59431
-2.8497
-3.11241
-3.38169
-3.65656
-3.93641
-4.22054
-0.595407
-0.654507
-0.781976
-0.944705
-1.11754
-1.30141
-1.50108
-1.71461
-1.93848
-2.1739
-2.41822
-2.66979
-2.9277
-3.1918
-3.46226
-3.73766
-4.01652
-4.29705
-0.540865
-0.617028
-0.769905
-0.946594
-1.12851
-1.32678
-1.54375
-1.77255
-2.00925
-2.25118
-2.50119
-2.75929
-3.02221
-3.28828
-3.55964
-3.83522
-4.11416
-4.39617
-0.465765
-0.568623
-0.762511
-0.946137
-1.11755
-1.31171
-1.53137
-1.764
-2.00382
-2.25032
-2.50468
-2.76568
-3.03294
-3.30557
-3.57981
-3.85566
-4.13313
-4.41247
-0.374026
-0.496868
-0.75513
-0.980043
-1.17083
-1.37677
-1.60289
-1.83789
-2.0785
-2.32598
-2.58079
-2.84188
-3.10833
-3.37865
-3.65095
-3.92525
-4.20191
-4.47946
-0.289638
-0.406986
-0.632043
-0.840081
-1.04883
-1.28221
-1.52934
-1.7797
-2.0333
-2.29214
-2.55624
-2.8246
-3.09631
-3.37038
-3.64569
-3.92183
-4.19869
-4.4771
-0.214555
-0.642248
-0.866809
-0.98578
-1.1506
-1.36751
-1.60224
-1.84214
-2.08876
-2.34338
-2.6047
-2.87098
-3.14094
-3.41336
-3.68702
-3.96069
-4.23414
-4.50608
0.644714
-0.213429
-0.663584
-0.854791
-1.06318
-1.31395
-1.57073
-1.82473
-2.08128
-2.34318
-2.60967
-2.87948
-3.15167
-3.42533
-3.69937
-3.97246
-4.24405
-4.51072
-19.2742
-19.5278
-19.7211
-19.2254
-17.997
-16.5754
-15.8462
-16.0895
-17.1962
-18.7468
-20.3122
-21.5923
-22.3829
-22.7226
-22.7599
-22.6386
-22.4631
-22.3351
-22.3253
-22.4297
-22.5728
-22.6627
-22.6456
-22.5107
-22.2944
-22.0153
-21.7277
-21.5416
-21.4757
-21.4785
-21.5471
-21.6235
-21.6345
-21.5327
-21.3443
-21.2846
-21.6468
-22.631
-24.2896
-26.5571
-29.281
-32.2641
-35.301
-38.2037
-40.816
-43.0221
-44.7492
-45.9638
-46.6572
-46.8154
-46.3999
-45.4001
-43.9126
-42.0139
-39.7716
-37.2441
-34.4835
-31.5356
-28.44
-25.2308
-21.937
-18.5838
-15.195
-11.7947
-8.40995
-5.07184
-1.81632
1.31701
4.28725
7.05567
9.58942
11.8646
13.868
15.5977
17.0612
18.2741
19.2579
20.038
20.6414
21.0933
21.425
21.6507
21.7894
21.8576
21.8695
21.8372
21.7708
21.679
21.5689
21.4466
21.3173
21.1852
21.0541
20.927
20.8068
20.6917
20.5711
20.4459
20.3243
20.2106
20.1058
20.0088
19.918
19.8331
19.7556
19.6933
19.6656
19.6921
19.794
19.9744
20.1983
20.3986
20.5208
20.5286
20.2121
19.1416
16.9641
13.4806
8.58289
2.61194
-3.64687
-9.50901
-14.5577
-18.5941
-21.5503
-23.4168
-24.2017
-23.9238
-22.5514
-20.1605
-16.8119
-12.5843
-7.59214
-1.99951
3.96899
10.027
15.8444
21.0971
25.538
29.0402
31.5357
32.9869
33.4682
33.1024
32.0336
30.4126
28.3922
26.1319
23.7972
21.5948
19.8011
18.2139
16.7413
15.188
13.4271
11.4401
9.40874
7.64369
6.42249
5.88915
6.05729
6.84079
8.02915
9.38912
10.6978
11.8602
12.8499
13.6669
14.3262
14.8511
15.2673
15.5987
15.8652
16.086
16.2717
16.4323
16.5775
16.7038
16.8449
16.8963
-20.4084
-20.9035
-21.2595
-20.873
-19.9217
-19.1058
-19.0183
-19.7272
-20.9898
-22.475
-23.8957
-25.0534
-25.8608
-26.1973
-26.0142
-25.4017
-24.5777
-23.7861
-23.2131
-22.9179
-22.8117
-22.7419
-22.6066
-22.4089
-22.1973
-21.9857
-21.7986
-21.7666
-21.8813
-21.8054
-21.5189
-21.355
-21.5729
-21.8852
-21.9736
-22.1724
-22.9397
-24.4698
-26.754
-29.6333
-32.87
-36.2092
-39.4221
-42.326
-44.7889
-46.7224
-48.0744
-48.8248
-48.9813
-48.5879
-47.7273
-46.4739
-44.8274
-42.8205
-40.4977
-37.9084
-35.1007
-32.1184
-29
-25.7775
-22.4778
-19.1233
-15.7345
-12.332
-8.93975
-5.58684
-2.30829
0.855674
3.8623
6.67023
9.24384
11.5569
13.5946
15.3543
16.8439
18.0796
19.0833
19.8803
20.498
20.9645
21.3053
21.5401
21.6877
21.7647
21.7851
21.7608
21.7022
21.6177
21.5145
21.3986
21.2752
21.1483
21.0215
20.8969
20.773
20.6471
20.5234
20.4035
20.2877
20.1798
20.0829
19.9955
19.9152
19.8402
19.7695
19.7076
19.667
19.6789
19.7712
19.9547
20.1929
20.4013
20.5037
20.4877
20.2389
19.2639
16.932
12.8455
7.20964
0.777702
-5.59456
-11.338
-16.1664
-19.9633
-22.6903
-24.3454
-24.9497
-24.5276
-23.1275
-20.744
-17.4158
-13.2121
-8.24119
-2.66157
3.30595
9.37647
15.2196
20.5083
25.0001
28.5468
31.0651
32.5422
33.0515
32.7154
31.6774
30.087
28.0945
25.8527
23.5291
21.2703
19.1175
17.2943
15.815
14.4363
12.9042
11.0958
9.1699
7.47284
6.31079
5.82759
6.03364
6.84236
8.07425
9.42979
10.7268
11.8814
12.8666
13.6803
14.3367
14.859
15.2729
15.6021
15.8677
16.0848
16.2683
16.4268
16.5696
16.6937
16.8306
16.8768
-20.668
-20.7482
-20.9742
-21.2833
-21.7018
-22.4047
-23.4932
-24.8788
-26.3772
-27.8073
-29.0208
-29.9054
-30.3917
-30.4605
-30.1135
-29.3913
-28.3574
-27.1004
-25.7457
-24.444
-23.3273
-22.4641
-21.8577
-21.4666
-21.2165
-21.1761
-21.3132
-21.3888
-21.4634
-21.7124
-21.9573
-22.2385
-22.9407
-24.0804
-25.5303
-27.2771
-29.3408
-31.6931
-34.2563
-36.9252
-39.5922
-42.1595
-44.542
-46.6642
-48.4592
-49.8687
-50.8419
-51.3342
-51.3143
-50.7933
-49.7867
-48.3444
-46.5118
-44.3363
-41.8679
-39.1569
-36.2515
-33.1948
-30.024
-26.7687
-23.4516
-20.0896
-16.6963
-13.2856
-9.87485
-6.48868
-3.1604
0.0683169
3.15041
6.03856
8.69095
11.0763
13.1768
14.9887
16.5203
17.7892
18.8191
19.637
20.2734
20.7574
21.1128
21.3611
21.5213
21.61
21.6413
21.6274
21.5783
21.5026
21.4075
21.2991
21.1822
21.061
20.9388
20.8178
20.6994
20.5837
20.471
20.361
20.2539
20.1508
20.053
19.9633
19.8829
19.8103
19.744
19.689
19.6584
19.6766
19.7712
19.9547
20.1968
20.4052
20.5436
20.5097
19.9515
18.2481
14.6447
9.30488
3.22926
-2.87
-8.56683
-13.6302
-17.9243
-21.3589
-23.8684
-25.4076
-25.9581
-25.5232
-24.1175
-21.7505
-18.4536
-14.2866
-9.34778
-3.78691
2.18146
8.2731
14.154
19.4971
24.0558
27.6682
30.2379
31.7618
32.3164
32.0261
31.0339
29.487
27.532
25.3163
22.9898
20.7031
18.5765
16.7242
15.0117
13.403
11.8027
10.1832
8.62052
7.29556
6.40519
6.0761
6.34334
7.14078
8.30057
9.58735
10.8382
11.9626
12.9246
13.7203
14.363
14.8749
15.2804
15.603
15.8625
16.0745
16.2525
16.4049
16.54
16.656
16.7764
16.8264
-20.3279
-20.3321
-21.0058
-22.5942
-24.4857
-26.3498
-28.1705
-29.911
-31.4851
-32.8099
-33.816
-34.4471
-34.6709
-34.4802
-33.881
-32.9131
-31.6177
-30.0242
-28.1815
-26.2104
-24.3101
-22.6924
-21.5058
-20.7799
-20.4316
-20.3033
-20.5212
-21.082
-21.705
-22.6145
-23.8535
-25.383
-27.2251
-29.331
-31.5993
-33.9425
-36.3143
-38.6955
-41.0758
-43.4385
-45.7498
-47.9566
-49.9903
-51.7745
-53.2339
-54.303
-54.9302
-55.0821
-54.7466
-53.9204
-52.6361
-50.9307
-48.8502
-46.4474
-43.7772
-40.8942
-37.8494
-34.6874
-31.4446
-28.1479
-24.8144
-21.4527
-18.0658
-14.6558
-11.2291
-7.80188
-4.40386
-1.07877
2.11917
5.13219
7.90763
10.4054
12.6025
14.4933
16.0871
17.4036
18.4694
19.3162
19.9783
20.4849
20.8599
21.1259
21.3024
21.4064
21.452
21.4514
21.4147
21.3505
21.2659
21.1667
21.058
20.9438
20.8272
20.7105
20.5951
20.4816
20.3712
20.265
20.1642
20.0701
19.9836
19.9046
19.8311
19.7632
19.7063
19.6674
19.6589
19.6986
19.8088
20.0034
20.2595
20.5013
20.5769
20.2386
18.6721
15.4211
10.4653
4.81348
-0.879339
-6.34202
-11.4245
-15.9932
-19.9168
-23.0822
-25.4031
-26.8196
-27.3032
-26.8463
-25.4445
-23.1056
-19.8542
-15.7399
-10.8486
-5.3182
0.64605
6.76259
12.6929
18.1121
22.7625
26.4573
29.0959
30.6804
31.2933
31.0619
30.1289
28.6377
26.7292
24.5459
22.2347
19.9352
17.7562
15.7835
14.0011
12.3728
10.8245
9.35285
8.04317
7.03037
6.43711
6.33335
6.72394
7.54146
8.64833
9.86485
11.0478
12.1143
13.0308
13.7927
14.4108
14.9048
15.297
15.6091
15.8597
16.0639
16.2336
16.3771
16.5015
16.6063
16.7068
16.7593
-20.7005
-21.032
-22.811
-25.369
-27.8282
-30.086
-32.1774
-34.0515
-35.6388
-36.8832
-37.7382
-38.1652
-38.1489
-37.7004
-36.8463
-35.6407
-34.1322
-32.3459
-30.3001
-28.0661
-25.8341
-23.8784
-22.4144
-21.4399
-20.9221
-20.949
-21.4588
-22.5125
-24.0004
-25.8757
-28.0501
-30.4124
-32.8649
-35.3334
-37.7777
-40.1907
-42.5817
-44.9586
-47.3162
-49.6302
-51.8558
-53.9323
-55.7894
-57.3542
-58.5573
-59.338
-59.6498
-59.4669
-58.7887
-57.6292
-56.017
-53.9936
-51.6111
-48.9289
-46.0093
-42.9137
-39.6984
-36.4119
-33.0916
-29.7622
-26.4343
-23.1056
-19.7641
-16.3938
-12.9832
-9.53363
-6.06675
-2.62745
0.71985
3.90115
6.84623
9.50065
11.8326
13.8331
15.5124
16.8937
18.0091
18.8978
19.596
20.132
20.5327
20.8219
21.0198
21.1435
21.2076
21.2242
21.2034
21.1537
21.0823
20.995
20.8967
20.7914
20.6824
20.5721
20.4625
20.355
20.2509
20.1513
20.0572
19.9694
19.8884
19.8143
19.7466
19.6853
19.6334
19.6012
19.6051
19.6624
19.7875
19.9899
20.2467
20.4534
20.3498
19.2817
16.4189
11.8265
6.41466
0.93406
-4.38409
-9.45674
-14.1819
-18.4292
-22.0712
-25.0037
-27.1462
-28.4397
-28.8535
-28.3734
-26.9837
-24.6866
-21.499
-17.4595
-12.64
-7.16366
-1.22344
4.90504
10.8865
16.3904
21.1405
24.9264
27.6434
29.2987
29.9807
29.82
28.9578
27.5324
25.6784
23.532
21.2337
18.9198
16.7079
14.6854
12.8731
11.2482
9.77868
8.46671
7.37718
6.61551
6.27337
6.38658
6.92743
7.81345
8.91922
10.0991
11.235
12.2576
13.1376
13.8701
14.4652
14.9411
15.3188
15.619
15.8594
16.0543
16.2148
16.3486
16.4617
16.5545
16.6356
16.6816
-22.4375
-23.4287
-25.8565
-28.4246
-30.8031
-33.0645
-35.1654
-37.0004
-38.4891
-39.5936
-40.2948
-40.5664
-40.4056
-39.8107
-38.8233
-37.5137
-35.9379
-34.1204
-32.0823
-29.9197
-27.8397
-25.9903
-24.5022
-23.5764
-23.3511
-23.768
-24.8125
-26.4443
-28.5209
-30.8851
-33.4047
-35.9857
-38.5715
-41.1351
-43.6722
-46.1906
-48.6953
-51.1786
-53.6166
-55.9687
-58.181
-60.19
-61.9273
-63.3244
-64.3162
-64.8454
-64.8684
-64.3664
-63.3476
-61.8293
-59.8446
-57.4445
-54.6929
-51.6608
-48.422
-45.0487
-41.6068
-38.1531
-34.7306
-31.3656
-28.0644
-24.8128
-21.5789
-18.3209
-14.9986
-11.5871
-8.0907
-4.55033
-1.04158
2.33901
5.49479
8.34849
10.8535
12.9949
14.7833
16.2482
17.4318
18.3771
19.1204
19.6942
20.1281
20.4469
20.6719
20.8206
20.9079
20.9458
20.9448
20.9131
20.8581
20.7855
20.7002
20.6063
20.5072
20.4054
20.3031
20.2021
20.1041
20.0104
19.9224
19.8409
19.7663
19.6987
19.6372
19.5818
19.5361
19.51
19.5188
19.5778
19.6988
19.8881
20.1154
20.2187
19.7131
17.7153
13.7521
8.46658
2.96456
-2.38519
-7.51053
-12.3607
-16.839
-20.8315
-24.2347
-26.9642
-28.9497
-30.1348
-30.4878
-29.9908
-28.6219
-26.3783
-23.2701
-19.3255
-14.6024
-9.20624
-3.31741
2.79946
8.8177
14.401
19.2445
23.1185
25.9144
27.6431
28.3988
28.3147
27.5292
26.1741
24.3766
22.2671
19.9831
17.6621
15.4266
13.3698
11.5384
9.93858
8.56515
7.42782
6.57082
6.06352
5.96248
6.27792
6.96526
7.93487
9.06876
10.2431
11.3593
12.3584
13.2155
13.9277
14.5057
14.9676
15.3338
15.6242
15.8559
16.0427
16.1949
16.3199
16.4227
16.5041
16.5681
16.6013
-25.3205
-26.7094
-28.734
-30.7548
-32.8034
-34.8383
-36.7129
-38.2955
-39.5293
-40.4157
-40.9616
-41.1536
-40.9752
-40.4017
-39.4785
-38.2704
-36.8401
-35.2337
-33.5017
-31.7287
-30.0354
-28.5821
-27.572
-27.1228
-27.2923
-28.1275
-29.583
-31.5148
-33.7656
-36.2078
-38.7531
-41.352
-43.9837
-46.6418
-49.323
-52.0201
-54.7174
-57.3878
-59.9924
-62.4803
-64.7902
-66.8526
-68.5937
-69.9396
-70.8204
-71.1755
-70.9617
-70.1643
-68.7883
-66.8574
-64.4231
-61.5538
-58.33
-54.8393
-51.1706
-47.4097
-43.6351
-39.9149
-36.3033
-32.8355
-29.5222
-26.3446
-23.2534
-20.1763
-17.0327
-13.7555
-10.3137
-6.73024
-3.08619
0.496131
3.88408
6.96648
9.67356
11.9805
13.8995
15.4697
16.7394
17.7527
18.5508
19.1712
19.6456
20.0008
20.2589
20.4381
20.5532
20.6169
20.6395
20.6294
20.5939
20.5389
20.4695
20.3896
20.3027
20.2118
20.1191
20.0268
19.9367
19.8503
19.7692
19.6943
19.6262
19.5648
19.5098
19.4611
19.4217
19.3997
19.407
19.4543
19.5523
19.7067
19.8691
19.7699
18.7034
15.8273
11.1174
5.50528
-0.0335504
-5.31869
-10.3297
-15.0188
-19.2993
-23.0816
-26.2855
-28.8452
-30.6999
-31.7958
-32.1016
-31.5967
-30.2558
-28.0734
-25.0542
-21.2189
-16.6133
-11.3253
-5.52132
0.552555
6.58388
12.2238
17.1401
21.0874
23.9516
25.7469
26.5729
26.5637
25.8535
24.5657
22.8196
20.7409
18.4662
16.137
13.8843
11.8134
9.99188
8.44705
7.18965
6.23606
5.61581
5.36663
5.50964
6.02898
6.86664
7.93076
9.11159
10.3015
11.4166
12.4071
13.2529
13.9539
14.5221
14.9758
15.3351
15.6195
15.8455
16.0265
16.1724
16.2901
16.3841
16.4554
16.5051
16.5242
-27.6898
-28.9335
-30.2779
-31.7774
-33.4333
-35.0986
-36.6051
-37.8466
-38.8116
-39.5281
-39.986
-40.1689
-40.0567
-39.6262
-38.9106
-37.968
-36.8699
-35.6789
-34.4398
-33.1998
-32.0696
-31.2178
-30.7547
-30.7859
-31.4088
-32.6106
-34.2885
-36.3157
-38.5848
-41.0206
-43.579
-46.2392
-48.9919
-51.8307
-54.7442
-57.7132
-60.7085
-63.6896
-66.6037
-69.385
-71.9558
-74.2294
-76.1154
-77.5245
-78.3758
-78.6014
-78.1581
-77.0412
-75.2635
-72.8651
-69.9149
-66.5004
-62.7208
-58.6805
-54.483
-50.2269
-46.0034
-41.8943
-37.9691
-34.2789
-30.848
-27.664
-24.6728
-21.7799
-18.8648
-15.8066
-12.5182
-8.98126
-5.26569
-1.51558
2.09457
5.41008
8.32936
10.8154
12.8836
14.5762
15.9418
17.0315
17.8928
18.5673
19.0894
19.4874
19.7844
19.999
20.1468
20.2404
20.2903
20.3051
20.2923
20.2578
20.2067
20.1434
20.0713
19.9935
19.9125
19.8307
19.75
19.6723
19.599
19.5316
19.4707
19.4166
19.3691
19.3284
19.2963
19.2779
19.2806
19.3109
19.3784
19.4846
19.5424
19.1567
17.4992
13.9068
8.70355
2.93661
-2.6139
-7.85664
-12.7881
-17.3541
-21.4779
-25.094
-28.139
-30.5638
-32.3157
-33.3429
-33.6149
-33.1095
-31.8003
-29.6817
-26.7561
-23.0387
-18.5671
-13.418
-7.73204
-1.73013
4.28159
9.94218
14.8999
18.8938
21.8049
23.6502
24.5338
24.5894
23.9442
22.7119
21.0034
18.9409
16.6637
14.3208
12.0552
9.98614
8.19887
6.73685
5.62026
4.86509
4.48741
4.50027
4.89496
5.63058
6.63455
7.81191
9.05985
10.284
11.4135
12.4078
13.2522
13.95
14.5149
14.9657
15.3226
15.6047
15.8281
16.0058
16.1474
16.2595
16.3463
16.4087
16.4468
16.4531
-28.4964
-29.3473
-30.2306
-31.352
-32.6603
-33.9653
-35.1349
-36.089
-36.8329
-37.4007
-37.7918
-37.9746
-37.9392
-37.695
-37.2782
-36.7362
-36.1118
-35.4303
-34.7143
-34.0252
-33.4668
-33.1545
-33.2157
-33.7592
-34.8036
-36.2846
-38.117
-40.2231
-42.546
-45.0516
-47.7237
-50.5554
-53.541
-56.6714
-59.93
-63.29
-66.7116
-70.1398
-73.5023
-76.7101
-79.6601
-82.2419
-84.346
-85.8687
-86.7181
-86.8211
-86.1387
-84.6803
-82.4669
-79.5591
-76.0479
-72.0453
-67.673
-63.0532
-58.3008
-53.52
-48.8041
-44.2395
-39.9076
-35.8805
-32.208
-28.8988
-25.907
-23.1293
-20.4162
-17.598
-14.5238
-11.1135
-7.40335
-3.54667
0.242804
3.76605
6.88647
9.55414
11.777
13.5923
15.0564
16.227
17.1571
17.8914
18.4668
18.913
19.2537
19.5085
19.693
19.8201
19.9007
19.9435
19.9561
19.9447
19.9146
19.8701
19.815
19.7525
19.6853
19.6159
19.5465
19.4789
19.4149
19.356
19.3032
19.2571
19.2179
19.1857
19.1612
19.1466
19.1453
19.1609
19.1999
19.252
19.1759
18.4697
16.2852
12.1601
6.64826
0.805761
-4.75523
-9.98068
-14.8561
-19.3245
-23.3222
-26.8143
-29.7384
-32.0621
-33.7371
-34.7143
-34.9644
-34.4644
-33.1892
-31.1362
-28.3094
-24.7214
-20.3978
-15.4033
-9.85547
-3.95594
1.99776
7.63753
12.5963
16.6004
19.5268
21.3964
22.3165
22.4178
21.8183
20.6199
18.9257
16.8565
14.5572
12.1886
9.90838
7.85209
6.12139
4.77115
3.82503
3.29205
3.17237
3.45722
4.11359
5.07941
6.26819
7.58036
8.91755
10.1959
11.3561
12.3667
13.2194
13.9215
14.4889
14.9416
15.3
15.5829
15.8063
15.9827
16.1216
16.2294
16.3101
16.3648
16.3934
16.3891
-27.5927
-28.108
-28.7725
-29.6708
-30.7294
-31.8065
-32.7699
-33.5479
-34.1439
-34.5955
-34.9241
-35.1489
-35.2565
-35.2624
-35.1838
-35.0338
-34.818
-34.548
-34.2604
-34.0241
-33.942
-34.1403
-34.7225
-35.7218
-37.1083
-38.8283
-40.8303
-43.0754
-45.5421
-48.2222
-51.1152
-54.2223
-57.5412
-61.0632
-64.7688
-68.6239
-72.5756
-76.5495
-80.4493
-84.1596
-87.5517
-90.4936
-92.861
-94.5393
-95.424
-95.4323
-94.5285
-92.7242
-90.0507
-86.5951
-82.4783
-77.8442
-72.8451
-67.6278
-62.3229
-57.0383
-51.8605
-46.8639
-42.1234
-37.7205
-33.7314
-30.198
-27.0994
-24.337
-21.7438
-19.1146
-16.2457
-12.9951
-9.34998
-5.4542
-1.54712
2.13952
5.43462
8.26313
10.6214
12.5493
14.1072
15.3582
16.3586
17.1558
17.7881
18.2862
18.6745
18.9729
19.1974
19.3611
19.4752
19.5486
19.5891
19.6031
19.596
19.5724
19.5363
19.491
19.4395
19.3842
19.3276
19.2716
19.2181
19.1689
19.1251
19.0877
19.0572
19.0337
19.0171
19.0076
19.0058
19.0129
19.0307
19.0291
18.8092
17.8009
15.2005
10.7163
5.02461
-0.863349
-6.45004
-11.6786
-16.5195
-20.92
-24.833
-28.2275
-31.0669
-33.3175
-34.9374
-35.8806
-36.1206
-35.6327
-34.396
-32.4104
-29.6805
-26.218
-22.0445
-17.211
-11.8172
-6.04709
-0.189112
5.38562
10.2994
14.2695
17.1721
19.0324
19.96
20.0799
19.4975
18.3021
16.5893
14.4815
12.1335
9.72103
7.41973
5.38258
3.72688
2.51532
1.77151
1.49244
1.65738
2.23413
3.16774
4.37903
5.77055
7.23848
8.68705
10.0403
11.2486
12.2891
13.1604
13.8743
14.4499
14.9087
15.2717
15.5579
15.7831
15.9596
16.0968
16.2011
16.2766
16.3246
16.3452
16.3323
-25.2178
-25.5571
-26.125
-26.9198
-27.8861
-28.9062
-29.8541
-30.6456
-31.2592
-31.7246
-32.0881
-32.3839
-32.6269
-32.8179
-32.9516
-33.0227
-33.036
-33.017
-33.0223
-33.1448
-33.497
-34.1687
-35.1959
-36.5667
-38.2481
-40.2057
-42.4144
-44.8623
-47.5494
-50.4828
-53.6721
-57.1254
-60.8453
-64.8248
-69.0416
-73.4523
-77.9884
-82.5549
-87.0327
-91.2828
-95.1538
-98.493
-101.16
-103.03
-103.984
-103.926
-102.831
-100.707
-97.5942
-93.5986
-88.871
-83.5908
-77.9474
-72.1207
-66.2651
-60.4988
-54.9029
-49.5327
-44.4412
-39.7013
-35.4025
-31.616
-28.3493
-25.5192
-22.9524
-20.4244
-17.6976
-14.5861
-11.0297
-7.1438
-3.16952
0.627459
4.0497
6.99829
9.46195
11.4821
13.1219
14.4468
15.5151
16.3751
17.0656
17.6175
18.0555
18.3998
18.6664
18.869
19.0186
19.1247
19.195
19.2362
19.254
19.2531
19.2376
19.2112
19.1768
19.1372
19.0948
19.0517
19.01
18.9713
18.9373
18.909
18.8874
18.8725
18.8642
18.8615
18.8636
18.8695
18.8746
18.8253
18.4731
17.2186
14.3264
9.62675
3.84156
-2.08515
-7.70927
-12.952
-17.7746
-22.1322
-25.9903
-29.3248
-32.1088
-34.3115
-35.8964
-36.8209
-37.0593
-36.587
-35.3885
-33.4671
-30.8286
-27.485
-23.4564
-18.7842
-13.5547
-7.93681
-2.20963
3.25559
8.07514
11.9623
14.7964
16.6083
17.5081
17.6117
17.0092
15.7763
14.0032
11.8177
9.38793
6.90865
4.57553
2.55963
0.99263
-0.05728
-0.567672
-0.557399
-0.0735306
0.824523
2.059
3.53557
5.14878
6.79248
8.37322
9.82115
11.0948
12.1793
13.0797
13.8133
14.4027
14.8714
15.2417
15.5329
15.7609
15.9383
16.0744
16.1758
16.2466
16.2886
16.3024
16.2826
-21.6866
-21.9895
-22.5023
-23.2474
-24.1958
-25.2548
-26.3051
-27.2444
-28.0143
-28.6165
-29.1006
-29.5005
-29.8297
-30.0913
-30.2861
-30.4228
-30.5299
-30.6664
-30.9212
-31.3926
-32.1553
-33.2402
-34.6407
-36.332
-38.2879
-40.4902
-42.9329
-45.6213
-48.5687
-51.7921
-55.3092
-59.1347
-63.2764
-67.7282
-72.4633
-77.4276
-82.5372
-87.6789
-92.7135
-97.4805
-101.806
-105.515
-108.453
-110.497
-111.533
-111.451
-110.248
-107.891
-104.419
-99.9557
-94.6807
-88.8108
-82.5742
-76.1855
-69.8254
-63.6272
-57.6717
-51.9988
-46.637
-41.6397
-37.0953
-33.0909
-29.6538
-26.7199
-24.1155
-21.6153
-18.9597
-15.9298
-12.4324
-8.55822
-4.5517
-0.696106
2.79318
5.80936
8.33886
10.4236
12.1274
13.5155
14.6456
15.5653
16.3126
16.9181
17.4064
17.7973
18.1072
18.3498
18.5363
18.6763
18.7778
18.8476
18.8916
18.9148
18.9213
18.915
18.8991
18.8763
18.8492
18.8201
18.791
18.7638
18.7401
18.7213
18.7085
18.7023
18.7025
18.7082
18.7177
18.7284
18.7282
18.6413
18.1856
16.7603
13.6976
8.90114
3.0854
-2.87046
-8.53554
-13.8026
-18.6251
-22.9642
-26.7939
-30.0954
-32.8462
-35.0195
-36.5838
-37.5001
-37.7438
-37.2901
-36.1292
-34.2673
-31.7131
-28.4805
-24.5895
-20.0757
-15.0161
-9.56826
-4.00305
1.30992
5.98546
9.73876
12.4565
14.1771
15.0088
15.0548
14.3871
13.0679
11.1853
8.87646
6.32757
3.75519
1.37653
-0.619404
-2.08825
-2.95797
-3.20706
-2.87266
-2.03236
-0.777337
0.788706
2.55579
4.41218
6.25145
7.98355
9.54436
10.8994
12.0412
12.9812
13.7421
14.3505
14.8326
15.2124
15.5098
15.7415
15.9201
16.0553
16.154
16.2207
16.2573
16.2651
16.2397
-17.4088
-17.6764
-18.1241
-18.788
-19.6717
-20.7152
-21.8159
-22.8689
-23.7955
-24.5673
-25.1982
-25.699
-26.0835
-26.3696
-26.5844
-26.7733
-27.0061
-27.3708
-27.9541
-28.8165
-29.9816
-31.4417
-33.1741
-35.1552
-37.3691
-39.8122
-42.4919
-45.4245
-48.6316
-52.1377
-55.9671
-60.1408
-64.6697
-69.5473
-74.7409
-80.1865
-85.7868
-91.4132
-96.9091
-102.095
-106.775
-110.759
-113.889
-116.056
-117.157
-117.071
-115.823
-113.309
-109.586
-104.789
-99.1211
-92.828
-86.166
-79.3737
-72.6509
-66.1429
-59.934
-54.057
-48.5247
-43.3701
-38.6694
-34.5144
-30.9485
-27.9164
-25.2574
-22.7333
-20.0737
-17.0464
-13.5488
-9.67054
-5.65839
-1.79745
1.6989
4.72852
7.2814
9.40023
11.1473
12.585
13.7682
14.7419
15.5425
16.1995
16.7368
17.1738
17.5269
17.8097
18.0335
18.2081
18.3416
18.441
18.5122
18.5603
18.5898
18.6046
18.6079
18.6029
18.592
18.5776
18.5618
18.5465
18.5335
18.5244
18.5204
18.5226
18.5313
18.546
18.5648
18.5838
18.5838
18.4725
17.9517
16.4378
13.3195
8.53095
2.7429
-3.22258
-8.92616
-14.2266
-19.066
-23.4084
-27.2322
-30.5217
-33.2568
-35.4142
-36.9675
-37.8824
-38.136
-37.7036
-36.5797
-34.7738
-32.2975
-29.168
-25.4063
-21.0461
-16.1587
-10.8944
-5.51817
-0.39708
4.08654
7.65574
10.2094
11.7941
12.5141
12.4556
11.6708
10.21
8.16331
5.68202
2.97432
0.280941
-2.15879
-4.13887
-5.50426
-6.18027
-6.14515
-5.45552
-4.22211
-2.57223
-0.639868
1.44703
3.57054
5.62558
7.52697
9.21691
10.6678
11.8788
12.8679
13.6631
14.2953
14.794
15.185
15.4897
15.7255
15.9056
16.0401
16.1363
16.1991
16.2309
16.2333
16.2032
-12.8237
-13.034
-13.3694
-13.8735
-14.5758
-15.4522
-16.4298
-17.4242
-18.3604
-19.1959
-19.9012
-20.4683
-20.9185
-21.2897
-21.639
-22.041
-22.5791
-23.3274
-24.3353
-25.62
-27.1735
-28.9746
-31.0013
-33.2392
-35.6849
-38.3462
-41.2399
-44.3889
-47.8202
-51.5634
-55.6476
-60.0974
-64.9254
-70.1232
-75.6524
-81.4394
-87.3779
-93.3276
-99.1184
-104.556
-109.435
-113.556
-116.764
-118.955
-120.044
-119.958
-118.668
-116.098
-112.296
-107.387
-101.595
-95.1611
-88.3438
-81.3956
-74.5272
-67.892
-61.5785
-55.6178
-50.0145
-44.7924
-40.0222
-35.7974
-32.1669
-29.0763
-26.359
-23.7696
-21.0368
-17.9372
-14.3852
-10.4871
-6.4928
-2.67467
0.773901
3.76754
6.30468
8.42883
10.1987
11.6716
12.8977
13.9182
14.767
15.4718
16.0554
16.5368
16.932
17.2544
17.5154
17.7246
17.8903
18.0196
18.1184
18.1921
18.2452
18.2817
18.305
18.3181
18.3239
18.3247
18.3226
18.3196
18.3175
18.3179
18.3224
18.3324
18.3489
18.3721
18.4002
18.4282
18.432
18.3098
17.764
16.2413
13.1735
8.49044
2.79308
-3.15061
-8.88143
-14.2184
-19.087
-23.4494
-27.285
-30.5786
-33.3118
-35.464
-37.014
-37.9325
-38.1996
-37.7909
-36.7042
-34.9517
-32.5481
-29.5143
-25.8741
-21.6618
-16.947
-11.8769
-6.71371
-1.82099
2.42614
5.76456
8.1093
9.51498
10.0779
9.86378
8.90467
7.24252
4.97439
2.27086
-0.634871
-3.47656
-5.99308
-7.96335
-9.22387
-9.69819
-9.36266
-8.29305
-6.63428
-4.55336
-2.21931
0.218388
2.6344
4.92562
7.01316
8.84662
10.4057
11.6962
12.7425
13.5781
14.2384
14.7563
15.1601
15.4729
15.7131
15.8949
16.0289
16.1228
16.182
16.2094
16.2071
16.1728
-8.44844
-8.58159
-8.7721
-9.06532
-9.50374
-10.0946
-10.8011
-11.573
-12.3545
-13.0956
-13.7657
-14.3656
-14.9223
-15.4841
-16.1144
-16.8806
-17.8408
-19.0321
-20.4666
-22.1365
-24.0231
-26.107
-28.375
-30.8233
-33.4586
-36.2967
-39.3596
-42.6735
-46.2675
-50.1737
-54.423
-59.0408
-64.0393
-69.4084
-75.1117
-81.0672
-87.1661
-93.2627
-99.1818
-104.726
-109.687
-113.87
-117.114
-119.314
-120.409
-120.353
-119.09
-116.54
-112.769
-107.911
-102.167
-95.786
-89.029
-82.1442
-75.3382
-68.7613
-62.4995
-56.5823
-51.0144
-45.8223
-41.08
-36.8786
-33.2572
-30.147
-27.3692
-24.6762
-21.81
-18.5782
-14.936
-11.0184
-7.07335
-3.34486
0.00808744
2.92475
5.41399
7.51916
9.29346
10.7877
12.0459
13.1049
13.9955
14.7432
15.3696
15.8928
16.3282
16.6889
16.9862
17.2295
17.4272
17.5863
17.713
17.8125
17.8894
17.9479
17.9914
18.0232
18.0458
18.0619
18.0737
18.083
18.0917
18.1015
18.1139
18.1308
18.1536
18.1834
18.2188
18.2543
18.263
18.1422
17.609
16.1489
13.2266
8.74209
3.20577
-2.67108
-8.4065
-13.7752
-18.6792
-23.0727
-26.9326
-30.2426
-32.9847
-35.1406
-36.6935
-37.6197
-37.9027
-37.5191
-36.4695
-34.768
-32.4323
-29.4874
-25.9609
-21.8902
-17.3469
-12.4799
-7.55156
-2.92152
1.04742
4.11223
6.20732
7.39337
7.7537
7.33027
6.13627
4.21074
1.66401
-1.30977
-4.45022
-7.46523
-10.0731
-12.0401
-13.197
-13.4667
-12.8215
-11.3548
-9.24565
-6.70296
-3.9351
-1.11712
1.61604
4.16301
6.45212
8.44155
10.119
11.4975
12.6077
13.4887
14.1805
14.7199
15.1378
15.4594
15.7045
15.8881
16.0218
16.1136
16.1695
16.1929
16.1864
16.1485
-4.61784
-4.67569
-4.73034
-4.82443
-5.00338
-5.29664
-5.69776
-6.18419
-6.72224
-7.28535
-7.8667
-8.48029
-9.1561
-9.93632
-10.8667
-11.9864
-13.3197
-14.8728
-16.6366
-18.5937
-20.7253
-23.0179
-25.4658
-28.0725
-30.85
-33.8174
-36.9989
-40.4207
-44.1115
-48.1026
-52.424
-57.0993
-62.1386
-67.5297
-73.2299
-79.1629
-85.2196
-91.2579
-97.1077
-102.579
-107.473
-111.602
-114.811
-116.99
-118.078
-118.039
-116.808
-114.35
-110.731
-106.084
-100.599
-94.512
-88.0668
-81.4926
-74.9792
-68.6634
-62.6227
-56.8862
-51.4692
-46.4156
-41.8095
-37.7331
-34.1973
-31.1024
-28.2524
-25.4062
-22.3406
-18.9231
-15.1734
-11.259
-7.41121
-3.8267
-0.617534
2.18427
4.59715
6.66187
8.42409
9.9265
11.2064
12.2958
13.2217
14.0075
14.673
15.2352
15.7089
16.1067
16.4395
16.7166
16.9462
17.1353
17.29
17.4156
17.5169
17.5978
17.6621
17.7128
17.7528
17.7845
17.8102
17.8319
17.8513
17.8701
17.8899
17.9125
17.9398
17.9736
18.0129
18.0523
18.0645
17.9515
17.4559
16.1115
13.4151
9.22206
3.93482
-1.80528
-7.50148
-12.8827
-17.8188
-22.2484
-26.1408
-29.4765
-32.2369
-34.4048
-35.967
-36.905
-37.2057
-36.8477
-35.8347
-34.1819
-31.9104
-29.049
-25.6299
-21.6954
-17.323
-12.6677
-7.99578
-3.66251
-0.0137464
2.73361
4.53641
5.45949
5.56845
4.8788
3.3875
1.13646
-1.74501
-5.03546
-8.44574
-11.658
-14.3712
-16.342
-17.3973
-17.4618
-16.5015
-14.6252
-12.0445
-9.0121
-5.77961
-2.55204
0.523175
3.34556
5.85127
8.00811
9.81281
11.2863
12.4657
13.3961
14.1223
14.685
15.1182
15.4492
15.6995
15.8852
16.0187
16.1087
16.1616
16.1814
16.171
16.1298
-1.7506
-1.77134
-1.75116
-1.72577
-1.73694
-1.82332
-1.99481
-2.24222
-2.55833
-2.94739
-3.42243
-4.00694