/*--------------------------------*- C++ -*----------------------------------*\
| =========                 |                                                 |
| \\      /  F ield         | OpenFOAM: The Open Source CFD Toolbox           |
|  \\    /   O peration     | Version:  2112                                  |
|   \\  /    A nd           | Website:  www.openfoam.com                      |
|    \\/     M anipulation  |                                                 |
\*---------------------------------------------------------------------------*/
FoamFile
{
    version     2.0;
    format      ascii;
    arch        "LSB;label=32;scalar=64";
    class       volScalarField;
    location    "0.1";
    object      epsilon;
}
// * * * * * * * * * * * * * * * * * * * * * * * * * * * * * * * * * * * * * //

dimensions      [0 2 -3 0 0 0 0];

internalField   nonuniform List<scalar> 
12225
(
3157.06
4901.61
5503.71
5504.32
5255.88
4925.59
4583.35
4256.56
3955.29
3682.23
3436.82
3216.99
3020.03
2842.84
2682.05
2533.97
2393.48
2252.64
209.375
382.558
459.615
476.56
465.042
442.288
417.066
393.221
372.085
353.932
338.663
326.073
315.961
308.19
302.746
299.874
300.842
309.772
37.9587
63.287
81.1576
91.785
96.7613
97.6644
95.9432
92.7167
88.7495
84.5352
80.3833
76.4831
72.9488
69.8534
67.2607
65.2641
64.0967
64.2079
19.4578
25.415
30.5664
34.5033
37.2598
38.9827
39.8738
40.1372
39.9474
39.4433
38.7321
37.8952
36.994
36.0753
35.1771
34.3336
33.5891
32.9933
15.7863
17.4548
19.1914
20.7314
21.987
22.9404
23.6117
24.0395
24.2667
24.3339
24.2772
24.1275
23.9108
23.6486
23.3591
23.0581
22.76
22.4779
14.8434
15.1743
15.6705
16.2018
16.697
17.1198
17.4558
17.7045
17.8723
17.9689
18.0051
17.9914
17.9379
17.8537
17.7468
17.6244
17.4924
17.3539
14.5899
14.4615
14.4497
14.5086
14.601
14.7005
14.7901
14.8605
14.9077
14.931
14.9314
14.9113
14.8735
14.8211
14.7571
14.6843
14.605
14.5199
14.5239
14.2448
14.0314
13.8733
13.7567
13.6685
13.5977
13.5363
13.4786
13.4212
13.3619
13.2998
13.2345
13.1665
13.096
13.0238
12.9504
12.8757
14.5078
14.1834
13.898
13.6499
13.4351
13.2485
13.085
12.9395
12.8082
12.6878
12.5758
12.4704
12.3704
12.2747
12.183
12.0946
12.0095
11.9274
14.504
14.1674
13.8593
13.5786
13.3237
13.0925
12.8825
12.6912
12.5162
12.3553
12.2067
12.0687
11.9399
11.8194
11.7061
11.5994
11.4987
11.404
14.5031
14.1635
13.849
13.558
13.289
13.0404
12.8107
12.5982
12.4014
12.2189
12.0493
11.8913
11.7439
11.6061
11.477
11.356
11.2423
11.1363
14.5029
14.1626
13.8465
13.5528
13.2798
13.0258
12.7894
12.5692
12.364
12.1726
11.9937
11.8266
11.6701
11.5234
11.3859
11.2567
11.1355
11.0226
14.5028
14.1623
13.8457
13.5512
13.2768
13.021
12.7822
12.5591
12.3504
12.1552
11.9722
11.8007
11.6397
11.4885
11.3465
11.2129
11.0873
10.9703
14.5027
14.1621
13.8454
13.5506
13.2758
13.0194
12.7797
12.5556
12.3457
12.149
11.9645
11.7912
11.6283
11.4751
11.331
11.1954
11.0677
10.9487
14.5027
14.162
13.8452
13.5503
13.2753
13.0187
12.7788
12.5544
12.3441
12.147
11.962
11.7882
11.6247
11.471
11.3263
11.19
11.0617
10.942
14.5026
14.1619
13.845
13.55
13.275
13.0182
12.7782
12.5537
12.3434
12.1461
11.961
11.7871
11.6235
11.4697
11.3249
11.1885
11.0601
10.9403
14.5026
14.1618
13.8449
13.5498
13.2747
13.0179
12.7779
12.5532
12.3428
12.1456
11.9604
11.7864
11.6229
11.469
11.3242
11.1878
11.0593
10.9395
14.5026
14.1618
13.8448
13.5497
13.2746
13.0177
12.7776
12.5529
12.3425
12.1452
11.96
11.786
11.6224
11.4685
11.3235
11.187
11.0585
10.9385
14.5026
14.1618
13.8448
13.5497
13.2745
13.0176
12.7775
12.5528
12.3424
12.145
11.9597
11.7856
11.6219
11.4679
11.3228
11.1861
11.0573
10.937
14.5026
14.1618
13.8449
13.5498
13.2747
13.0178
12.7777
12.5531
12.3426
12.1452
11.9599
11.7857
11.622
11.4678
11.3226
11.1856
11.0566
10.936
14.5026
14.1619
13.845
13.55
13.275
13.0182
12.7783
12.5538
12.3435
12.1463
11.9611
11.7872
11.6236
11.4697
11.3247
11.188
11.0592
10.9389
14.5027
14.162
13.8454
13.5507
13.2762
13.0202
12.7812
12.5579
12.349
12.1535
11.9702
11.7983
11.637
11.4854
11.3428
11.2087
11.0825
10.9648
14.5029
14.163
13.8479
13.556
13.2855
13.0349
12.8027
12.5873
12.3873
12.2013
12.0282
11.8669
11.7163
11.5754
11.4436
11.3201
11.2043
11.0968
14.5048
14.1714
13.8691
13.5967
13.3521
13.1326
12.9351
12.7567
12.5946
12.4464
12.3101
12.184
12.0667
11.9571
11.8544
11.7579
11.6671
11.5825
14.5228
14.2394
14.0184
13.8511
13.726
13.6316
13.5579
13.497
13.4432
13.3926
13.3428
13.2923
13.2404
13.1868
13.1317
13.0756
13.0188
12.9628
14.6645
14.6824
14.8519
15.104
15.3868
15.6641
15.9135
16.1236
16.2902
16.414
16.4979
16.5466
16.565
16.5582
16.5312
16.4884
16.4338
16.3719
15.6185
17.1451
18.8872
20.5718
22.0662
23.3045
24.2702
24.9792
25.4623
25.7553
25.8941
25.9114
25.8361
25.6928
25.5019
25.2805
25.0427
24.8017
22.0297
31.7322
40.8068
48.3365
54.0463
57.9142
60.159
61.1106
61.0971
60.4018
59.2536
57.8304
56.2654
54.6563
53.0739
51.571
50.1905
48.9742
86.578
166.519
230.699
272.655
293.986
299.465
294.766
284.527
271.832
258.525
245.644
233.726
223.014
213.588
205.444
198.562
193.137
189.257
1385.05
2302.27
2999.79
3406.8
3569.86
3565.52
3459.84
3299.73
3115.42
2925.01
2738.62
2561.41
2395.56
2241.59
2099.05
1967.18
1856.31
1764.42
3.59284
5.08062
12.7783
23.486
33.2187
39.9413
43.5585
44.5633
43.6483
41.7092
40.3592
39.8455
40.0028
40.6124
41.362
41.8239
41.9904
44.2336
57.1542
105.796
184.839
271.258
361.208
448.957
530.357
602.732
664.615
715.457
755.379
784.964
805.088
816.806
821.256
819.591
812.94
802.412
789.078
773.177
754.938
734.608
712.369
688.373
662.758
635.664
607.239
577.647
547.076
515.74
483.883
451.786
419.759
388.142
357.292
327.571
299.339
272.948
248.769
227.282
209.314
196.431
192.054
195.785
202.443
210.773
220.262
230.33
240.075
248.129
252.517
250.871
241.158
223.391
200.882
174.949
147.123
120.096
96.3654
77.3985
63.4968
54.183
48.6735
46.215
46.231
48.1967
51.6489
56.268
61.7249
67.6566
73.7879
80.0622
86.5966
93.3754
100.455
109.095
126.395
174.03
292.865
436.425
567.327
676.566
759.895
817.308
851.093
864.644
861.736
846.097
821.225
790.263
756.006
719.367
680.947
641.159
600.283
558.51
515.978
472.825
429.242
385.531
342.156
299.781
259.458
223.414
198.539
193.986
192.981
192.61
192.859
193.906
195.901
198.923
202.96
207.904
213.552
219.37
223.038
220.488
209.671
190.217
163.895
134.363
105.992
82.3381
65.194
54.3747
47.6493
43.3973
40.6302
38.7589
37.4456
36.5011
35.8207
35.3562
35.118
35.1426
35.5026
36.32
37.7631
40.0581
43.437
47.8009
51.9895
53.6666
52.6013
56.2879
96.8625
165.746
216.202
243.244
249.933
242.741
228.429
208.796
185.071
157.805
127.914
98.6267
86.1433
87.6878
91.4549
96.4365
24.4985
19.989
27.1251
33.597
38.0033
40.4641
41.3342
41.198
40.9532
42.2657
48.1731
60.2798
81.9593
117.8
169.544
225.048
254.873
271.27
282.865
295.374
307.35
316.516
321.659
322.292
318.513
310.79
299.824
286.45
271.571
256.103
240.933
226.88
214.671
204.931
198.163
194.689
195.001
195.819
196.647
197.318
197.687
197.621
197.005
195.742
193.756
190.992
187.418
183.03
177.85
171.938
165.387
158.326
150.917
143.343
135.803
128.499
121.631
115.397
110.001
105.638
102.384
100.257
98.8654
98.0001
97.5513
97.4106
97.4568
97.5696
97.6343
97.5248
97.0333
95.8043
93.8656
90.5019
86.13
81.6372
77.0775
71.4662
63.7702
53.981
43.3363
33.5733
26.0298
21.3631
19.4746
19.5257
20.7536
22.8289
26.166
32.5024
47.0674
80.4597
141.106
213.03
261.973
283.898
300.325
305.483
300.044
286.265
267.035
245.175
223.194
203.161
186.679
174.921
168.607
168.014
169.119
170.425
171.712
172.762
173.347
173.221
172.13
169.823
166.072
160.716
153.7
145.119
135.233
124.487
113.98
105.045
96.4664
88.2768
80.6157
73.5725
67.1909
61.4796
56.4176
51.9583
48.0647
44.7929
42.9824
44.1724
46.0152
47.0932
46.8409
45.4341
43.4846
41.6497
40.3348
39.5703
39.1234
38.6943
38.0205
36.9175
35.28
33.069
30.3032
27.0639
23.5109
19.8745
16.4103
13.3654
10.9456
9.34644
8.84902
9.82769
13.3533
23.735
47.3196
77.0046
91.2081
93.1187
87.0905
77.7104
69.576
65.8439
66.8849
67.8965
68.0662
66.3196
61.6884
54.1079
46.4418
40.1331
34.725
30.8348
83.8529
46.7527
49.97
56.0754
62.0886
67.5602
72.4727
78.0656
92.723
117.218
148.542
182.979
214.637
239.862
254.342
257.696
253.097
245.976
239.091
233.03
226.863
219.741
211.333
201.753
191.421
180.912
170.826
161.691
153.9
147.7
143.19
140.346
139.049
139.11
140.296
142.354
144.966
147.801
150.712
153.57
156.245
158.613
160.556
161.967
162.747
162.803
162.05
160.416
157.845
154.316
149.851
144.523
138.464
131.849
124.888
117.801
110.798
104.073
97.7919
92.0826
87.0607
83.1093
79.9621
77.5027
75.6962
74.5161
73.9326
73.9121
74.415
75.376
76.6446
77.8731
78.381
77.2202
73.9143
69.0911
64.098
59.806
55.7195
50.7404
44.3156
37.0228
30.1796
25.0481
22.3826
22.5047
25.2221
30.7332
41.131
64.3852
112.04
178.329
224.883
230.827
223.592
213.049
201.175
186.335
169.696
153.215
138.644
127.076
118.938
114.164
112.39
113.106
115.746
119.791
124.331
129.113
133.939
138.603
142.883
146.536
149.291
150.853
150.916
149.208
145.542
139.874
132.29
122.908
113.128
103.756
94.4673
85.4634
76.9137
68.9271
61.5656
54.8557
48.7981
43.3737
38.5559
34.3218
30.6644
27.6469
25.4992
24.0752
23.0451
22.1046
21.1037
20.0514
19.0285
18.1032
17.3013
16.6128
16.0057
15.4379
14.8667
14.254
13.5655
12.7663
11.8251
10.7297
9.50214
8.20866
7.00597
6.22751
6.42946
8.66832
15.5548
33.1317
60.8292
73.311
69.5379
63.086
56.2707
51.4562
49.6846
50.5818
52.8518
55.3606
57.3974
57.8222
55.3614
49.3412
42.1917
35.4395
29.4478
24.7139
165.993
76.0415
79.2202
91.0642
103.842
117.845
135.369
154.916
169.89
184.205
198.075
209.061
215.187
215.743
211.347
203.861
195.369
187.331
180.11
173.418
166.803
160.051
153.224
146.535
140.228
134.503
129.503
125.324
122.032
119.661
118.208
117.633
117.857
118.775
120.259
122.22
124.584
127.215
130.004
132.847
135.648
138.324
140.799
143
144.848
146.249
147.084
147.209
146.469
144.721
141.862
137.861
132.78
126.77
120.053
112.891
105.547
98.2604
91.2351
84.6179
78.7085
73.8323
69.7213
66.3413
63.6959
61.791
60.6228
60.1674
60.3695
61.131
62.3069
63.7075
65.0694
65.967
65.7309
63.6833
59.8898
55.3868
51.1449
47.0341
42.4657
37.3264
32.2726
28.3636
26.706
28.5322
35.1879
49.0227
77.7518
129.366
187.998
213.593
203.795
186.439
170.622
156.346
142.614
129.252
117.269
107.516
100.363
95.8067
93.6193
93.453
94.9145
97.6159
101.209
105.438
110.048
114.879
119.778
124.591
129.16
133.303
136.8
139.374
140.699
140.436
138.299
134.133
127.91
119.895
111.673
103.202
94.6386
86.2091
78.0822
70.3721
63.1514
56.4618
50.3226
44.7373
39.6965
35.1797
31.1594
27.6006
24.4828
21.8193
19.5763
17.6992
16.1122
14.7385
13.5219
12.4316
11.4538
10.5824
9.81192
9.13432
8.53895
8.01273
7.53979
7.0998
6.66802
6.22155
5.75189
5.28183
4.91448
4.97763
6.26878
10.4777
21.1734
42.3968
63.4738
63.8799
57.2868
51.6624
47.5301
45.4367
45.1156
45.8778
47.1987
48.8845
50.5215
51.1213
49.3502
44.5019
38.599
32.5627
27.0764
22.5918
243.636
110.756
123.824
142.733
158.059
169.198
174.429
176.221
177.723
178.989
179.412
178.255
175.228
170.572
164.903
158.965
153.306
148.133
143.355
138.791
134.305
129.844
125.407
121.016
116.732
112.653
108.912
105.647
102.97
100.951
99.6137
98.9437
98.8994
99.4223
100.442
101.978
103.86
105.967
108.193
110.452
112.688
114.877
117.03
119.177
121.344
123.524
125.641
127.529
128.936
129.561
129.102
127.332
124.151
119.617
113.932
107.397
100.35
93.1105
85.9392
79.037
72.9625
67.6558
63.0135
59.0399
55.7569
53.1881
51.352
50.2532
49.8729
50.1572
51.0095
52.29
53.8236
55.3904
56.6444
56.9777
55.696
52.5961
48.5799
44.523
40.6232
36.8829
33.6513
31.7703
32.5927
38.2559
52.8921
83.396
133.708
185.942
203.003
186.044
164.749
147.372
133.504
121.512
110.773
101.425
93.8081
88.1023
84.3182
82.3195
81.8663
82.6802
84.4974
87.0871
90.2468
93.8647
97.7858
101.879
106.032
110.152
114.157
117.956
121.411
124.303
126.316
127.064
126.181
123.399
118.605
112.655
106.11
99.0938
91.8539
84.5984
77.4792
70.602
64.0398
57.8426
52.044
46.6647
41.7126
37.1838
33.0655
29.3372
25.9747
22.9621
20.2877
17.9357
15.8885
14.1211
12.6005
11.2901
10.1547
9.16516
8.29911
7.53982
6.8745
6.29273
5.78506
5.34183
4.9528
4.61087
4.32272
4.12784
4.15415
4.79125
7.03508
13.0353
26.4141
47.2283
60.4037
56.2995
50.6998
46.9996
44.6633
43.5035
42.929
42.5235
42.4007
42.8126
43.6289
44.0312
42.694
39.168
34.4889
29.4079
24.6542
20.643
320.705
157.906
172.65
188.396
193.589
188.463
179.597
170.874
163.667
157.897
153.059
148.672
144.466
140.369
136.434
132.746
129.337
126.146
123.032
119.826
116.378
112.606
108.521
104.228
99.9064
95.7574
91.9688
88.687
86.0099
83.9921
82.6541
81.9922
81.9821
82.5804
83.7232
85.3494
87.193
89.0959
90.9133
92.5249
93.8578
94.9106
95.7699
96.6096
97.6617
99.1542
101.226
103.847
106.777
109.593
111.766
112.78
112.246
109.999
106.124
100.917
94.7818
88.129
81.2919
74.7532
68.8768
63.5369
58.7432
54.5212
50.8973
47.8982
45.5485
43.8659
42.8544
42.4981
42.7568
43.5637
44.8235
46.4055
48.1032
49.5188
49.9741
48.8011
45.9293
42.4077
39.1168
36.5548
35.2269
36.1344
41.3496
54.8433
82.7803
128.829
178.626
197.298
177.589
152.92
134.214
120.534
109.733
100.566
92.633
85.9387
80.626
76.7821
74.3578
73.191
73.0798
73.8403
75.3222
77.394
79.9233
82.8385
85.97
89.1947
92.4255
95.6194
98.7718
101.889
104.94
107.79
110.163
111.65
111.807
110.264
107.143
103.029
98.121
92.6719
86.9123
81.0194
75.119
69.2994
63.6252
58.1469
52.9058
47.9356
43.2614
38.8982
34.8518
31.1187
27.688
24.547
21.6966
19.1367
16.8623
14.8614
13.1148
11.5976
10.2825
9.14255
8.15355
7.29485
6.54918
5.90226
5.34235
4.86005
4.44886
4.10938
3.86087
3.76469
3.98845
4.99487
7.94724
15.3135
30.0935
48.4579
56.1004
51.186
47.1643
44.9248
43.555
42.5667
41.2884
39.6517
38.2167
37.4921
37.5325
37.6669
36.7053
34.2507
30.5886
26.3935
22.3339
18.8028
357.037
194.741
207.62
214.377
207.052
191.908
175.105
160.44
149.127
140.855
134.841
130.343
126.807
123.867
121.297
118.941
116.638
114.185
111.367
108.023
104.108
99.7054
95.0031
90.2386
85.6493
81.4396
77.7676
74.7462
72.4491
70.917
70.1609
70.1618
70.869
72.1986
74.035
76.262
78.6569
81.0247
83.1436
84.7795
85.7215
85.8358
85.1316
83.8208
82.3362
81.2665
81.1936
82.4798
85.1212
88.7367
92.6592
96.0812
98.2419
98.6093
96.9961
93.5842
88.7932
83.1107
77.0188
71.2236
65.7337
60.6225
55.9482
51.75
48.0561
44.8909
42.2766
40.2314
38.7639
37.8695
37.5331
37.7344
38.4475
39.6219
41.1375
42.7251
43.8777
43.9207
42.4068
39.877
37.4714
36.1662
36.8666
41.0107
51.5343
73.8332
113.475
163.31
192.219
178.051
148.87
127.412
112.972
102.547
94.2112
87.0559
80.8181
75.5824
71.4903
68.5614
66.6909
65.7272
65.5376
66.0264
67.1174
68.7248
70.7418
73.0786
75.5329
77.9763
80.332
82.5909
84.8128
87.0989
89.5289
92.0699
94.5144
96.4493
97.3765
96.9538
95.3298
92.7031
89.292
85.3289
81.0082
76.4708
71.811
67.0929
62.3666
57.6774
53.0706
48.5904
44.277
40.1628
36.2711
32.6159
29.2038
26.0316
23.1075
20.4422
18.0409
15.9008
14.0099
12.3494
10.8966
9.62817
8.52232
7.55972
6.72358
5.99939
5.37482
4.84016
4.38987
4.02778
3.78014
3.7238
4.06076
5.3195
8.79082
17.0624
32.1167
47.6726
52.0709
47.8498
45.1227
43.7493
42.8807
41.7849
39.8248
37.2419
34.8635
33.3142
32.7223
32.5569
31.9011
30.1478
27.291
23.8291
20.3501
17.2329
341.683
207.6
217.156
219.371
207.529
187.917
167.578
150.677
138.316
129.89
124.317
120.61
118.025
116.04
114.27
112.396
110.13
107.237
103.595
99.2316
94.3109
89.0776
83.7988
78.7198
74.0441
69.9317
66.5043
63.8498
62.0235
61.0455
60.8999
61.536
62.8735
64.8079
67.2142
70.1268
73.4058
76.8675
80.2554
83.2317
85.3879
86.288
85.5669
83.0968
79.188
74.6941
70.8399
68.7412
68.9484
71.3449
75.3031
79.8653
83.9507
86.6082
87.2368
85.7548
82.5069
78.0055
73.0828
68.0313
63.0715
58.3529
53.9677
49.9714
46.3982
43.2722
40.6129
38.4345
36.7425
35.5283
34.7734
34.4646
34.6095
35.2233
36.2684
37.5674
38.7309
39.2122
38.5883
37.0075
35.5541
35.4817
38.0941
45.3348
60.9717
91.016
136.708
177.944
182.298
152.79
126.002
109.163
98.158
90.0481
83.317
77.3652
72.1514
67.8282
64.4734
62.0312
60.383
59.4228
59.086
59.3366
60.1347
61.4088
63.0649
64.9536
66.8622
68.6572
70.2631
71.6871
73.0318
74.4738
76.1977
78.2721
80.5712
82.6906
84.1471
84.6196
84.1166
82.7232
80.6161
77.9866
74.9884
71.7225
68.2469
64.596
60.799
56.8908
52.9163
48.9286
44.9829
41.1305
37.4137
33.8648
30.5074
27.3452
24.3951
21.6737
19.1929
16.957
14.9611
13.1927
11.6336
10.2635
9.06253
8.01225
7.09645
6.30099
5.61388
5.02577
4.53212
4.13911
3.87728
3.83357
4.23574
5.66177
9.4756
18.2015
32.7972
45.9327
48.6699
45.4752
43.6348
42.7803
42.1385
40.8931
38.4757
35.3308
32.3803
30.2936
29.2115
28.7573
28.22
26.9291
24.6811
21.7951
18.7745
15.9881
356.571
204.23
210.966
212.738
200.495
180.316
159.603
142.787
130.989
123.469
118.975
116.363
114.747
113.451
111.944
109.814
106.796
102.807
97.9465
92.4461
86.5946
80.674
74.9255
69.5438
64.6869
60.4849
57.0412
54.4247
52.6624
51.7392
51.609
52.213
53.4941
55.4022
57.9318
61.179
65.0799
69.5278
74.3371
79.2184
83.7485
87.3338
89.2018
88.5154
84.7478
78.2782
70.7253
64.3101
60.6394
60.1592
62.4421
66.5563
71.2747
75.3384
77.713
77.924
76.1738
73.0962
69.2242
64.9687
60.6259
56.3929
52.3939
48.704
45.3681
42.4145
39.8628
37.7259
36.0069
34.6922
33.7518
33.1547
32.9007
33.0309
33.5749
34.4394
35.3204
35.7449
35.4126
34.4164
33.6966
34.6258
38.8204
48.7165
68.7359
104.012
148.792
175.581
163.277
131.093
109.008
96.0052
87.4261
80.8155
75.0696
69.905
65.4237
61.7492
58.8783
56.7178
55.1703
54.1806
53.7324
53.8196
54.4117
55.4376
56.7883
58.2883
59.7337
60.9964
62.0013
62.7558
63.3793
64.0917
65.1577
66.7402
68.7808
70.8802
72.6071
73.7025
74.0308
73.6222
72.6076
71.1352
69.3166
67.2117
64.8397
62.2006
59.2955
56.1407
52.774
49.2524
45.6456
42.0255
38.4578
34.9967
31.6843
28.5336
25.5686
22.8095
20.2715
17.9628
15.8838
14.0268
12.3785
10.922
9.63955
8.514
7.52961
6.6725
5.93082
5.29552
4.76282
4.3404
4.06119
4.01783
4.45433
5.97762
9.96795
18.7635
32.5179
43.7772
45.8183
43.574
42.281
41.6649
41.0274
39.6261
37.1104
33.9021
30.7522
28.2872
26.7685
26.018
25.4843
24.4953
22.6989
20.2526
17.5803
15.0445
359.764
192.15
197.006
200.242
190.165
171.817
152.488
136.848
126.24
119.993
116.794
115.368
114.656
113.807
112.185
109.402
105.354
100.184
94.1929
87.7265
81.0962
74.5473
68.2701
62.4266
57.1685
52.6315
48.9136
46.0544
44.0328
42.7847
42.235
42.3306
43.06
44.4573
46.712
49.8417
53.8584
58.7101
64.2753
70.3595
76.6845
82.8382
88.1283
91.3842
91.0392
85.9792
77.0285
67.1608
59.476
55.454
55.0609
57.5146
61.6008
65.9544
69.2746
70.6685
70.2338
68.3319
65.4323
61.9645
58.2601
54.5494
50.9828
47.6539
44.62
41.9162
39.5652
37.5815
35.9697
34.7176
33.79
33.1384
32.733
32.5986
32.7914
33.2846
33.8416
34.0446
33.5942
32.7633
32.4105
33.9795
39.3308
51.3313
74.6024
111.783
150.563
163.804
143.739
114.46
96.391
86.2084
79.2637
73.6115
68.5362
63.9816
60.0841
56.9005
54.3712
52.3988
50.9183
49.9132
49.3915
49.3517
49.7564
50.5284
51.5469
52.6507
53.664
54.4825
55.0379
55.3232
55.4479
55.6453
56.2144
57.4055
59.0933
61.0452
62.9105
64.3792
65.2868
65.6271
65.4908
64.986
64.186
63.1131
61.7502
60.0617
58.0158
55.6004
52.8338
49.7663
46.4748
43.0509
39.5877
36.1686
32.8609
29.6914
26.6919
23.886
21.2904
18.9149
16.7619
14.8267
13.0992
11.5653
10.2095
9.01586
7.96944
7.05668
6.26592
5.5884
5.02094
4.57217
4.27613
4.22771
4.67722
6.23782
10.2554
18.8273
31.5853
41.4555
43.3482
41.8724
40.9087
40.3561
39.636
38.1725
35.7579
32.6956
29.5471
26.879
25.0441
24.044
23.4813
22.7013
21.2386
19.1194
16.7021
14.3466
343.419
176.849
181.009
186.481
179.704
164.236
146.919
132.668
123.232
118.184
116.231
115.964
116.114
115.651
113.869
110.469
105.535
99.4126
92.5388
85.3021
77.9863
70.7874
63.8689
57.4063
51.5895
46.582
42.4707
39.2446
36.814
35.0521
33.8477
33.1657
33.0836
33.7813
35.577
38.4394
42.3876
47.375
53.288
59.9388
67.0926
74.5218
81.9258
88.5185
92.5107
91.381
84.0883
73.1326
62.7054
55.6049
52.4575
52.7698
55.4297
59.0902
62.4138
64.4594
64.8984
63.8806
61.7836
59.0132
55.9057
52.7058
49.5784
46.6301
43.928
41.5136
39.4137
37.6457
36.2183
35.1258
34.3398
33.8086
33.4816
33.3496
33.454
33.7963
34.1855
34.2128
33.5547
32.547
32.1906
34.0219
40.1223
53.6605
78.7723
114.716
145.348
148.776
126.729
101.875
87.099
78.6818
72.7905
67.7998
63.2548
59.2195
55.8064
53.0095
50.7404
48.9138
47.495
46.4893
45.9033
45.7195
45.899
46.3522
46.9769
47.6544
48.2481
48.6899
48.9315
48.9466
48.8058
48.7374
49.0273
49.8795
51.3037
53.1036
54.9743
56.6327
57.9142
58.7911
59.3229
59.585
59.6197
59.4215
58.9466
58.1316
56.9121
55.2409
53.1019
50.5201
47.5628
44.3311
40.9444
37.5238
34.1687
30.9282
27.8497
24.9637
22.289
19.835
17.604
15.5917
13.7887
12.1825
10.7584
9.50159
8.39749
7.43284
6.59618
5.87898
5.27855
4.80409
4.49015
4.43148
4.87586
6.42086
10.3382
18.48
30.2113
39.0832
41.1109
40.2293
39.4687
38.9035
38.1021
36.6582
34.431
31.5892
28.5354
25.7826
23.751
22.5898
22.0229
21.4061
20.189
18.3029
16.0622
13.8295
305.311
161.903
166.195
174.158
170.975
158.644
143.325
130.152
121.434
117.161
116.171
116.95
118.013
118.121
116.479
112.831
107.402
100.691
93.2275
85.4182
77.5117
69.6628
62.0311
54.8362
48.3406
42.7574
38.1658
34.4947
31.5713
29.1973
27.2167
25.6205
24.6413
24.7026
26.1861
28.901
32.7992
37.8348
43.9329
50.9197
58.5039
66.4202
74.576
82.7206
89.5604
92.1706
87.9444
78.2109
67.1124
58.2678
53.0324
51.242
52.1478
54.6543
57.4835
59.573
60.3843
59.8889
58.3534
56.1283
53.5273
50.7882
48.0764
45.502
43.1363
41.0251
39.1978
37.6738
36.4655
35.5753
34.988
34.6657
34.5597
34.6444
34.938
35.4396
35.9731
36.1014
35.3852
34.0804
33.4505
35.2198
41.7125
56.1772
81.5914
114.006
136.55
133.924
112.897
92.2181
79.9153
72.7536
67.5825
63.0854
58.9695
55.3657
52.3618
49.8817
47.8253
46.1258
44.7695
43.7693
43.1103
42.7357
42.6234
42.676
42.8915
43.1455
43.3523
43.4749
43.4909
43.3781
43.1706
43.031
43.2075
43.9028
45.151
46.8043
48.6151
50.344
51.8418
53.0718
54.0709
54.8891
55.5474
56.0268
56.2745
56.2159
55.7666
54.8451
53.3899
51.3781
48.8402
45.8631
42.5798
39.1567
35.7113
32.3434
29.1281
26.1114
23.318
20.758
18.4318
16.3331
14.4512
12.7727
11.2825
9.96544
8.80687
7.79333
6.9132
6.158
5.52516
5.02404
4.68903
4.61294
5.03395
6.5161
10.2293
17.8024
28.5369
36.7086
38.9983
38.5771
37.9534
37.3605
36.5095
35.1263
33.0951
30.4751
27.5528
24.801
22.6905
21.4802
20.9658
20.4915
19.4467
17.7111
15.5815
13.4277
260.484
153.652
154.048
163.463
163.965
155.176
142.073
129.73
121.087
116.813
116.128
117.58
119.532
120.518
119.547
116.275
110.944
104.132
96.451
88.3481
80.0574
71.6909
63.3771
55.3847
48.0749
41.7418
36.5149
32.3094
28.9315
26.1293
23.6646
21.3334
19.2107
18.9185
20.5489
23.3448
27.2067
32.1396
38.151
45.1543
52.8773
60.9693
69.276
77.7183
85.429
89.9968
88.6057
81.0346
70.5707
61.1157
54.6405
51.3872
50.8635
52.1893
54.2299
55.9427
56.7105
56.3944
55.1663
53.3109
51.1005
48.7487
46.4077
44.1813
42.1386
40.3255
38.7719
37.4976
36.5161
35.835
35.4517
35.3481
35.4956
35.8803
36.5241
37.4347
38.4487
39.0923
38.7561
37.3701
36.4039
37.9019
44.4648
59.1472
83.392
110.994
126.601
120.74
101.934
84.7169
74.2089
67.8823
63.2155
59.139
55.4552
52.2684
49.609
47.3913
45.5163
43.9341
42.6444
41.6556
40.9252
40.3521
39.8753
39.4747
39.2753
39.1434
39.0181
38.8918
38.7598
38.6039
38.4291
38.3402
38.5367
39.1954
40.3523
41.8932
43.6247
45.3539
46.9531
48.3822
49.6607
50.8186
51.8655
52.7841
53.5344
54.0556
54.2658
54.0648
53.3465
52.0231
50.0563
47.4816
44.4163
41.0488
37.5215
33.9966
30.5943
27.3917
24.4296
21.7236
19.2732
17.0692
15.0972
13.3409
11.7829
10.4062
9.19498
8.13483
7.21345
6.42191
5.75729
5.22845
4.86869
4.76701
5.14657
6.52506
9.95374
16.8679
26.656
34.3423
36.9428
36.8918
36.3707
35.7578
34.8872
33.5732
31.7074
29.2781
26.4983
23.8174
21.747
20.61
20.2128
19.8631
18.9192
17.2572
15.1844
13.0796
197.578
145.261
145.194
154.562
158.282
153.3
142.877
131.592
122.759
117.777
116.498
117.819
120.179
121.993
122.055
119.796
115.296
109.062
101.717
93.7534
85.4454
76.9106
68.2574
59.7376
51.7295
44.5958
38.557
33.6272
29.669
26.474
23.8567
21.7185
20.1622
19.863
20.9282
23.2292
26.6699
31.2092
36.8409
43.5114
51.0067
58.9805
67.1937
75.5262
83.2913
88.419
88.1756
81.8846
72.2519
62.9595
56.0757
52.0417
50.56
50.9216
52.1388
53.2669
53.7158
53.3156
52.18
50.5334
48.599
46.555
44.5306
42.6152
40.8703
39.3378
38.0455
37.0118
36.249
35.7658
35.5667
35.649
36.0063
36.648
37.6239
38.9885
40.6415
42.1193
42.6552
41.8598
40.8359
42.0863
48.452
62.5903
84.4662
106.827
116.946
109.645
93.2934
78.7934
69.5852
63.8263
59.5384
55.8351
52.5438
49.7198
47.3566
45.3655
43.6575
42.1945
40.9792
40.0028
39.1925
38.4369
37.6361
36.8418
36.246
35.7759
35.3856
35.0773
34.8519
34.6868
34.5714
34.577
34.8596
35.5559
36.6846
38.1518
39.8084
41.5011
43.1201
44.6222
46.0099
47.2964
48.4878
49.5826
50.5729
51.4364
52.1222
52.5391
52.5561
52.0224
50.8085
48.8571
46.2256
43.0566
39.5339
35.8784
32.2724
28.8433
25.6644
22.7674
20.1565
17.8204
15.7405
13.8955
12.2639
10.8255
9.56163
8.45614
7.49529
6.66909
5.97371
5.41678
5.0294
4.89478
5.21693
6.45922
9.54621
15.745
24.6327
31.9758
34.9085
35.1766
34.7375
34.1099
33.2331
31.9753
30.2306
27.9529
25.3221
22.7832
20.8771
19.9333
19.7039
19.4441
18.5217
16.8602
14.802
12.7313
125.735
133.689
139.648
148.109
153.867
152.681
145.368
135.491
126.487
120.388
117.764
118.085
120.129
122.399
123.544
122.716
119.687
114.738
108.388
101.138
93.3259
85.1232
76.6432
68.0808
59.7548
52.0319
45.2126
39.4453
34.7284
30.965
28.0378
25.8733
24.5057
24.3484
25.3291
27.3811
30.4905
34.6746
39.9473
46.2545
53.3905
61.0279
68.9129
76.8482
84.075
88.5935
87.9485
81.7318
72.5534
63.6828
56.8811
52.5677
50.5437
50.2019
50.6746
51.1501
51.1341
50.4866
49.2971
47.741
45.9914
44.1863
42.4263
40.7825
39.3048
38.0283
36.9768
36.1661
35.6061
35.3038
35.2652
35.4953
36.0016
36.8107
37.9979
39.6786
41.8707
44.2409
46.0156
46.4485
46.0869
47.4342
53.4482
66.3502
85.0488
102.318
108.286
100.561
86.4607
74.0515
65.8007
60.4424
56.4503
53.0725
50.1255
47.6131
45.503
43.7086
42.1514
40.7972
39.6411
38.6595
37.7661
36.8392
35.7975
34.7383
33.8553
33.1377
32.5598
32.122
31.8241
31.6477
31.5827
31.6843
32.0731
32.841
33.9798
35.4059
37.0023
38.642
40.2244
41.6987
43.0493
44.2755
45.387
46.4081
47.3738
48.3134
49.2278
50.0665
50.7105
50.9763
50.6505
49.5553
47.6197
44.8828
41.5504
37.8796
34.1186
30.463
27.0398
23.9141
21.1056
18.6069
16.3963
14.4472
12.7326
11.2273
9.90884
8.75791
7.75858
6.89913
6.1742
5.58951
5.17287
4.99989
5.25246
6.33565
9.04595
14.4984
22.5115
29.5892
32.873
33.4467
33.0797
32.4302
31.539
30.3106
28.6426
26.4858
24.0238
21.7134
20.0995
19.4485
19.4009
19.1649
18.1728
16.4462
14.3756
12.3387
65.315
118.902
138.907
147.646
153.039
153.987
149.612
141.569
132.702
125.392
120.89
119.362
120.158
122.126
123.974
124.636
123.516
120.523
115.924
110.12
103.476
96.2389
88.5666
80.6187
72.624
64.8796
57.692
51.3039
45.8563
41.3939
37.8981
35.3304
33.6873
33.2304
33.8752
35.6077
38.4281
42.3394
47.32
53.2686
59.9514
67.061
74.3608
81.543
87.6013
90.4424
88.0948
80.9694
71.8638
63.4546
56.9659
52.6795
50.4026
49.5571
49.3738
49.196
48.6642
47.7002
46.3867
44.8575
43.2372
41.6234
40.0872
38.68
37.4395
36.3928
35.5591
34.951
34.5757
34.4377
34.5416
34.8949
35.5114
36.4251
37.7203
39.5522
42.069
45.164
48.2321
50.4005
51.5232
53.5273
59.1853
70.3267
85.3634
97.8827
100.677
93.0254
80.8728
70.1113
62.604
57.548
53.7944
50.6991
48.0541
45.815
43.9293
42.3134
40.8954
39.6386
38.527
37.5272
36.5578
35.5124
34.3405
33.1466
32.0966
31.2211
30.5182
29.9901
29.6356
29.4426
29.4106
29.5934
30.0856
30.9358
32.1073
33.5211
35.0778
36.6606
38.1684
39.538
40.7367
41.7566
42.62
43.3812
44.1141
44.8937
45.7743
46.7651
47.8003
48.7191
49.273
49.1689
48.1397
46.1359
43.2765
39.8085
36.0289
32.21
28.5537
25.1811
22.1452
19.4531
17.0858
15.0132
13.2021
11.6215
10.2438
9.04531
8.00706
7.11484
6.36112
5.7491
5.3024
5.08744
5.26204
6.17125
8.48577
13.175
20.3068
27.1356
30.7975
31.7088
31.426
30.7416
29.8103
28.5761
26.9481
24.9051
22.6618
20.6871
19.4836
19.1798
19.2694
18.9515
17.7925
15.9502
13.859
11.8697
66.2421
101.676
140.903
157.962
162.884
161.966
157.185
149.553
140.656
132.354
126.075
122.47
121.434
122.285
124.009
125.543
126.05
125.073
122.538
118.628
113.628
107.809
101.383
94.5281
87.4305
80.3161
73.4402
67.0536
61.3653
56.5216
52.6066
49.6634
47.7617
47.0631
47.4552
48.939
51.507
55.1313
59.7377
65.1614
71.1367
77.3909
83.6849
89.4719
93.3145
93.1029
87.8853
79.3127
70.1795
62.2693
56.2267
52.1657
49.8073
48.5557
47.7555
46.9392
45.901
44.6281
43.1947
41.6911
40.1938
38.7605
37.4347
36.2493
35.2303
34.3978
33.7668
33.3469
33.1437
33.1598
33.3985
33.8675
34.5841
35.5859
36.9569
38.8648
41.5469
45.1323
49.321
53.2765
56.2842
59.3692
64.8093
74.1285
85.7402
94.3742
94.8999
87.4438
76.7287
67.1452
60.1738
55.3279
51.7402
48.8533
46.438
44.4116
42.7049
41.2352
39.9316
38.7518
37.6693
36.6463
35.6158
34.4994
33.2688
32.0179
30.8841
29.9199
29.1409
28.552
28.1522
27.9382
27.9266
28.1796
28.7716
29.7106
30.9355
32.3682
33.9113
35.4424
36.8508
38.0594
39.0254
39.7476
40.2724
40.6814
41.0712
41.5384
42.171
43.0342
44.1404
45.4087
46.6274
47.413
47.4089
46.3778
44.2807
41.2866
37.6993
33.8554
30.041
26.452
23.1932
20.3002
17.7655
15.5597
13.6454
11.9858
10.5475
9.30214
8.22682
7.30434
6.52459
5.88788
5.41321
5.15736
5.25444
5.99279
7.9273
11.8859
18.1401
24.6801
28.7233
30.0301
29.8747
29.1527
28.1495
26.8678
25.2464
23.3212
21.366
19.8387
19.1264
19.1484
19.2551
18.7143
17.2994
15.3174
13.2195
11.3033
55.7231
65.9172
132.131
171.971
183.149
179.245
170.132
159.824
149.615
140.304
132.695
127.385
124.553
123.92
124.839
126.457
127.919
128.553
127.976
126.086
122.985
118.868
113.952
108.44
102.526
96.4113
90.3125
84.4545
79.0533
74.296
70.3311
67.2746
65.3418
64.4039
64.5037
65.6533
67.8313
70.9752
74.9581
79.5629
84.5239
89.6027
94.4311
98.0056
98.4705
94.3031
86.1905
76.6499
67.7506
60.3686
54.8095
51.033
48.6332
47.0236
45.7024
44.3865
42.9882
41.5257
40.0501
38.6096
37.2415
35.9742
34.8309
33.8321
32.9958
32.3377
31.8701
31.6014
31.5365
31.6776
32.0274
32.5939
33.3965
34.4758
35.9146
37.8767
40.6374
44.4985
49.4848
54.9975
60.0373
64.5157
69.9889
77.6865
86.3174
91.8207
90.6445
83.3383
73.6446