/*--------------------------------*- C++ -*----------------------------------*\
| =========                 |                                                 |
| \\      /  F ield         | OpenFOAM: The Open Source CFD Toolbox           |
|  \\    /   O peration     | Version:  2112                                  |
|   \\  /    A nd           | Website:  www.openfoam.com                      |
|    \\/     M anipulation  |                                                 |
\*---------------------------------------------------------------------------*/
FoamFile
{
    version     2.0;
    format      ascii;
    arch        "LSB;label=32;scalar=64";
    class       volScalarField;
    location    "0.14";
    object      s;
}
// * * * * * * * * * * * * * * * * * * * * * * * * * * * * * * * * * * * * * //

dimensions      [0 0 0 0 0 0 0];

internalField   nonuniform List<scalar> 
12225
(
1
1
1
1
1
1
1
1
1
1
1
1
1
1
1
1
1
1
1
1
1
1
1
1
1
1
1
1
1
1
1
1
1
1
1
1
1
1
1
1
1
1
1
1
1
1
1
1
1
1
1
1
1
1
1
1
1
1
1
1
1
1
1
1
1
1
1
1
1
1
1
1
1
1
1
1
1
1
1
1
1
1
1
1
1
1
1
1
1
1
1
1
1
1
1
1
1
1
1
1
1
1
1
1
1
1
1
1
1
1
1
1
1
1
1
1
1
1
1
1
1
1
1
1
1
1
1
1
1
1
1
1
1
1
1
1
1
1
1
1
1
1
1
1
1
1
1
1
1
1
1
1
1
1
1
1
1
1
1
1
1
1
1
1
1
1
1
1
1
1
1
1
1
1
1
1
1
1
1
1
1
1
1
1
1
1
1
1
1
1
1
1
1
1
1
1
1
1
1
1
1
1
1
1
1
1
1
1
1
1
1
1
1
1
1
1
1
1
1
1
1
1
1
1
1
1
1
1
1
1
1
1
1
1
1
1
1
1
1
1
1
1
1
1
1
1
1
1
1
1
1
1
1
1
1
1
1
1
1
1
1
1
1
1
1
1
1
1
1
1
1
1
1
1
1
1
1
1
1
1
1
1
1
1
1
1
1
1
1
1
1
1
1
1
1
1
1
1
1
1
1
1
1
1
1
1
1
1
1
1
1
1
1
1
1
1
1
1
1
1
1
1
1
1
1
1
1
1
1
1
1
1
1
1
1
1
1
1
1
1
1
1
1
1
1
1
1
1
1
1
1
1
1
1
1
1
1
1
1
1
1
1
1
1
1
1
1
1
1
1
1
1
1
1
1
1
1
1
1
1
1
1
1
1
1
1
1
1
1
1
1
1
1
1
1
1
1
1
1
1
1
1
1
1
1
1
1
1
1
1
1
1
1
1
1
1
1
1
1
1
1
1
1
1
1
1
1
1
1
1
1
1
1
1
1
1
1
1
1
1
1
1
1
1
1
1
1
1
1
1
1
1
1
1
1
1
1
1
1
1
1
1
1
1
1
1
1
1
1
1
1
1
1
1
1
1
1
1
1
1
1
1
1
1
1
1
1
1
1
1
1
1
1
1
1
1
1
1
1
1
1
1
1
1
1
1
1
1
1
1
1
1
1
1
1
1
1
1
1
1
1
1
1
1
1
1
1
1
1
1
1
1
1
1
1
1
1
1
1
1
0.921537
0.920693
0.920221
0.920157
0.92041
0.921279
0.922585
0.92327
0.923953
0.924481
0.924589
0.924492
0.924292
0.924201
0.924316
0.924607
0.924694
0.924688
0.924575
0.924039
0.922465
0.920755
0.919506
0.918958
0.91894
0.919593
0.921698
0.919581
0.903007
0.892874
0.891465
0.891527
0.892385
0.894559
0.896632
0.898649
0.902289
0.910863
0.922847
0.933256
0.94022
0.944502
0.946503
0.947364
0.947435
0.947342
0.947331
0.947506
0.94805
0.948717
0.949416
0.949961
0.950239
0.950301
0.95024
0.949836
0.948622
0.947124
0.946775
0.945865
0.945081
0.949833
0.953874
0.954431
0.961086
0.976233
0.979671
0.979946
0.980133
0.980342
0.980631
0.981039
0.981543
0.98207
0.982507
0.98286
0.983125
0.983325
0.983497
0.983617
0.983719
0.983834
0.983945
0.984093
0.984234
0.984369
0.984532
0.98472
0.984907
0.985145
0.985295
0.985407
0.985491
0.985536
0.985558
0.985563
0.985522
0.985416
0.985242
0.985051
0.984828
0.984576
0.984303
0.984015
0.98372
0.983428
0.98317
0.982943
0.982721
0.982549
0.982379
0.982204
0.982049
0.981897
0.981756
0.981625
0.981498
0.981345
0.981201
0.981057
0.980917
0.980787
0.980678
0.980594
0.980536
0.980494
0.980452
0.980386
0.98026
0.980071
0.979768
0.979406
0.979012
0.978552
0.978055
0.977663
0.977481
0.977442
0.977462
0.977632
0.977891
0.97793
0.977778
0.976622
0.97043
0.95625
0.949538
0.948857
0.951721
0.960812
0.96638
0.968023
0.967948
0.965923
0.960106
0.957704
0.957711
0.959429
0.963977
0.966766
0.967938
0.968978
0.969311
0.969119
0.96707
0.96416
0.964022
0.965065
0.966234
0.967301
0.968429
0.969612
0.970693
0.971631
0.972294
0.9727
0.973358
0.973884
0.974416
0.974578
0.921527
0.921402
0.921094
0.920797
0.924812
0.929411
0.931879
0.932999
0.933225
0.933643
0.93392
0.933993
0.933991
0.933764
0.932409
0.930402
0.929945
0.930662
0.932861
0.93326
0.93284
0.930329
0.92515
0.921767
0.92042
0.920418
0.921689
0.921718
0.919479
0.907182
0.895381
0.889764
0.88919
0.891286
0.895499
0.899108
0.902312
0.907234
0.91859
0.934454
0.948494
0.958821
0.965677
0.970111
0.972908
0.974533
0.974785
0.974542
0.97383
0.972657
0.971181
0.969168
0.967541
0.965017
0.963093
0.95991
0.956669
0.951858
0.948986
0.948634
0.950883
0.960203
0.977113
0.977916
0.978401
0.97972
0.980171
0.980352
0.980666
0.98105
0.981598
0.982347
0.983312
0.984546
0.986016
0.987639
0.988604
0.989274
0.990295
0.990924
0.991264
0.991759
0.992232
0.992464
0.992678
0.992913
0.993027
0.993114
0.993164
0.993189
0.993226
0.993236
0.993243
0.993257
0.993297
0.993379
0.993498
0.993608
0.993691
0.993759
0.993826
0.993892
0.993925
0.993896
0.993764
0.993544
0.993273
0.992931
0.992433
0.991898
0.991352
0.99079
0.990289
0.989804
0.989344
0.988909
0.988445
0.987903
0.987264
0.986581
0.985778
0.984877
0.983968
0.983119
0.98238
0.981851
0.981594
0.981565
0.981765
0.982265
0.982787
0.983236
0.983527
0.983776
0.98402
0.984172
0.984221
0.984276
0.984395
0.984653
0.985092
0.98548
0.985513
0.985273
0.984157
0.980441
0.975185
0.972639
0.972572
0.973262
0.973969
0.9738
0.972201
0.9683
0.96698
0.967501
0.970102
0.973324
0.976099
0.978138
0.978853
0.978753
0.97786
0.974096
0.966623
0.963972
0.964454
0.966243
0.968623
0.971989
0.977
0.979888
0.982099
0.983066
0.98346
0.983574
0.98327
0.98322
0.983511
0.983594
0.919212
0.915038
0.919144
0.932022
0.937237
0.937674
0.937224
0.936374
0.935133
0.934617
0.934708
0.935075
0.935927
0.937621
0.939156
0.939657
0.939441
0.938847
0.93917
0.942081
0.943744
0.943005
0.936696
0.928267
0.925227
0.924979
0.926032
0.927833
0.927857
0.926456
0.920967
0.91219
0.902803
0.898309
0.897646
0.898533
0.902111
0.907087
0.917175
0.933426
0.948918
0.96017
0.967441
0.971661
0.97418
0.975812
0.976944
0.977621
0.978103
0.978258
0.978173
0.977827
0.977202
0.975833
0.974515
0.971893
0.96899
0.962817
0.955104
0.952766
0.973876
0.978495
0.979442
0.979889
0.980411
0.980696
0.98096
0.981303
0.981852
0.982759
0.984236
0.986525
0.989311
0.991173
0.992054
0.99256
0.992827
0.993015
0.993207
0.993282
0.993314
0.993326
0.993309
0.993218
0.993123
0.993006
0.992794
0.99252
0.992211
0.991922
0.991739
0.991598
0.991487
0.991441
0.991441
0.991633
0.992032
0.992453
0.992929
0.993406
0.993887
0.994387
0.994902
0.995415
0.995843
0.996245
0.996624
0.996971
0.997207
0.997405
0.997552
0.997592
0.997546
0.997446
0.99732
0.997174
0.996996
0.996825
0.996565
0.996244
0.995755
0.995007
0.993849
0.992154
0.989855
0.986985
0.984008
0.9818
0.980621
0.980164
0.980127
0.980385
0.981164
0.981871
0.982561
0.98334
0.984098
0.984627
0.984929
0.985192
0.985573
0.986073
0.986579
0.98693
0.987025
0.987008
0.986897
0.986343
0.985145
0.984615
0.984161
0.983411
0.9822
0.979266
0.975714
0.973634
0.973155
0.973443
0.975507
0.978815
0.980327
0.98045
0.979706
0.974555
0.965556
0.963982
0.965823
0.970458
0.977797
0.982381
0.98409
0.984457
0.984233
0.982588
0.980661
0.977899
0.975622
0.974437
0.973807
0.973416
0.905383
0.920117
0.938501
0.939667
0.938832
0.93684
0.932604
0.929213
0.926163
0.924236
0.924038
0.924365
0.925451
0.927862
0.933319
0.93803
0.940554
0.941624
0.94306
0.947746
0.953285
0.953882
0.951409
0.943552
0.940989
0.941324
0.943275
0.94537
0.946115
0.945625
0.943284
0.941049
0.937854
0.930338
0.925331
0.925155
0.926656
0.932348
0.947138
0.960377
0.967478
0.970719
0.972315
0.973543
0.974466
0.975138
0.975895
0.976675
0.97749
0.978111
0.97846
0.978729
0.978732
0.978512
0.977906
0.976484
0.973939
0.967192
0.95833
0.967571
0.978524
0.979777
0.980258
0.98064
0.981068
0.981382
0.982017
0.982774
0.984064
0.985969
0.988859
0.991481
0.992413
0.992734
0.992785
0.992664
0.99237
0.991948
0.991277
0.990506
0.989624
0.98857
0.987382
0.986234
0.985174
0.984297
0.983453
0.982565
0.981908
0.981298
0.980984
0.980729
0.980595
0.980545
0.980689
0.981059
0.981754
0.982594
0.983697
0.984848
0.986122
0.98739
0.988627
0.989967
0.991165
0.992453
0.993727
0.995003
0.996267
0.99707
0.997828
0.998328
0.998655
0.998867
0.999011
0.999119
0.9992
0.999249
0.999261
0.999242
0.999175
0.999042
0.998868
0.998608
0.998209
0.997523
0.996113
0.992849
0.988094
0.983609
0.980762
0.979482
0.979101
0.979076
0.979201
0.979594
0.980131
0.980685
0.981082
0.981309
0.981444
0.981541
0.9817
0.982162
0.983424
0.984857
0.986131
0.987284
0.988214
0.988542
0.988408
0.986931
0.983003
0.980218
0.978333
0.976899
0.975901
0.975592
0.975902
0.977966
0.980565
0.980964
0.980068
0.973548
0.96467
0.964371
0.969589
0.978699
0.983012
0.984161
0.984108
0.98269
0.978374
0.969491
0.957945
0.952362
0.949595
0.94866
0.948745
0.949444
0.907413
0.934963
0.938715
0.937076
0.93229
0.925273
0.922331
0.921104
0.92054
0.919975
0.919551
0.919318
0.919284
0.919481
0.920513
0.924585
0.934083
0.938875
0.941611
0.947484
0.953265
0.957502
0.9581
0.957168
0.95693
0.957533
0.95861
0.958693
0.9582
0.956119
0.953677
0.950957
0.947243
0.939718
0.939682
0.942725
0.952355
0.963592
0.969013
0.971326
0.972316
0.972848
0.973132
0.973213
0.973259
0.973337
0.973488
0.973822
0.97456
0.975772
0.977419
0.978353
0.978735
0.978776
0.978608
0.97785
0.975331
0.966566
0.964036
0.97604
0.979529
0.980156
0.980464
0.980882
0.981258
0.981758
0.982613
0.983798
0.985766
0.988557
0.991695
0.992699
0.992876
0.992753
0.992156
0.99093
0.988548
0.985075
0.982267
0.980835
0.979044
0.97796
0.977334
0.976706
0.976231
0.975777
0.975311
0.97485
0.974437
0.974083
0.973744
0.973528
0.973413
0.973382
0.973538
0.973881
0.974321
0.974991
0.975893
0.976948
0.978205
0.979623
0.981151
0.982756
0.984239
0.985606
0.986815
0.988029
0.989488
0.991314
0.993413
0.995525
0.99707
0.998037
0.998677
0.999067
0.999319
0.999488
0.999602
0.999681
0.999734
0.999768
0.999779
0.999757
0.999674
0.999493
0.999239
0.998842
0.998029
0.996015
0.991066
0.985839
0.982213
0.980262
0.97944
0.979209
0.979214
0.979421
0.97982
0.980045
0.980141
0.980176
0.980192
0.980218
0.980276
0.980399
0.980647
0.981176
0.982565
0.985414
0.988007
0.989082
0.988954
0.986762
0.982236
0.9795
0.977892
0.977248
0.977306
0.978803
0.981247
0.981496
0.980126
0.971551
0.964064
0.965574
0.975795
0.982374
0.983891
0.983883
0.981683
0.973837
0.955618
0.945378
0.9411
0.939506
0.939137
0.939497
0.940451
0.941971
0.93322
0.938769
0.935883
0.927313
0.92096
0.920026
0.920168
0.920573
0.920973
0.92089
0.920524
0.919712
0.919104
0.918875
0.91897
0.919737
0.922608
0.930439
0.937653
0.945149
0.951919
0.956837
0.959081
0.960864
0.962447
0.963661
0.964078
0.963483
0.960562
0.957712
0.954232
0.948258
0.938269
0.942173
0.953979
0.96588
0.97043
0.971912
0.972354
0.972522
0.972625
0.97269
0.972752
0.972806
0.972808
0.972828
0.972877
0.972994
0.97326
0.97375
0.974715
0.976594
0.978263
0.978695
0.978636
0.977995
0.97434
0.967615
0.969758
0.97832
0.97979
0.980153
0.980464
0.980875
0.981238
0.981749
0.982632
0.984001
0.986436
0.990031
0.992516
0.992977
0.992895
0.992084
0.989882
0.985336
0.979354
0.976702
0.975373
0.97438
0.973424
0.97297
0.972727
0.972556
0.972429
0.972294
0.972083
0.971718
0.97134
0.971021
0.970791
0.970708
0.970689
0.970729
0.970913
0.971183
0.971491
0.971919
0.97247
0.973233
0.974304
0.975678
0.97737
0.979323
0.981244
0.982925
0.984271
0.985341
0.986286
0.987042
0.98783
0.988997
0.991028
0.993448
0.995589
0.996991
0.997941
0.998604
0.999067
0.999393
0.999617
0.999762
0.99985
0.999897
0.999916
0.999917
0.999885
0.999798
0.999634
0.999288
0.998447
0.995875
0.990403
0.985762
0.982627
0.980811
0.979918
0.979592
0.979524
0.979547
0.979708
0.979925
0.980063
0.980196
0.980317
0.98041
0.980469
0.980521
0.980626
0.980952
0.982172
0.986109
0.989056
0.989515
0.9888
0.985859
0.982192
0.979782
0.979287
0.980083
0.981863
0.981835
0.979652
0.969308
0.963799
0.968785
0.979819
0.983386
0.983737
0.981972
0.973924
0.952505
0.941853
0.937729
0.936307
0.935917
0.935936
0.936551
0.937579
0.939341
0.942579
0.937279
0.922469
0.917106
0.918171
0.920447
0.924172
0.927592
0.929616
0.929325
0.928264
0.926008
0.923325
0.921096
0.920096
0.920082
0.92073
0.923174
0.929524
0.937036
0.946859
0.954215
0.958194
0.960747
0.963283
0.964873
0.964986
0.963245
0.959208
0.954525
0.944774
0.93778
0.947581
0.967559
0.971691
0.972417
0.972478
0.972447
0.97247
0.972594
0.972987
0.973484
0.973881
0.974121
0.974243
0.97417
0.973989
0.973628
0.973465
0.973618
0.974002
0.974971
0.976938
0.978418
0.978565
0.977768
0.972697
0.968777
0.973688
0.979048
0.979817
0.980095
0.98037
0.980789
0.981137
0.981673
0.982513
0.983841
0.986299
0.990227
0.992738
0.993063
0.992583
0.990373
0.985433
0.978351
0.974392
0.972808
0.971994
0.971273
0.970738
0.970505
0.970323
0.97013
0.969983
0.969868
0.969753
0.969674
0.969638
0.96963
0.969645
0.969719
0.969849
0.970033
0.970258
0.970494
0.970754
0.971035
0.971302
0.971626
0.971978
0.972467
0.973176
0.974266
0.97618
0.978817
0.981634
0.983706
0.985176
0.986133
0.986789
0.987245
0.987728
0.98858
0.990021
0.992102
0.994134
0.99581
0.997022
0.997951
0.998662
0.999187
0.999547
0.999769
0.999887
0.999939
0.999958
0.999961
0.999949
0.999899
0.999763
0.999401
0.998279
0.994279
0.988349
0.984235
0.981743
0.980362
0.979688
0.979435
0.979414
0.979488
0.979826
0.980408
0.980919
0.981257
0.981388
0.981361
0.981116
0.980946
0.981024
0.981713
0.985174
0.98941
0.99097
0.991239
0.990671
0.986674
0.983154
0.983038
0.98346
0.982854
0.978846
0.967101
0.96386
0.972225
0.981705
0.983436
0.982854
0.976906
0.955675
0.941589
0.936466
0.934807
0.934346
0.934215
0.934168
0.934425
0.935213
0.936934
0.937708
0.921938
0.913852
0.915539
0.922343
0.930094
0.935023
0.938913
0.941342
0.941718
0.940799
0.937485
0.932169
0.926922
0.923291
0.921769
0.921831
0.923377
0.927479
0.932187
0.938125
0.947019
0.955071
0.959994
0.963368
0.965086
0.964828
0.961216
0.953756
0.938366
0.944903
0.968008
0.97222
0.972459
0.972427
0.9723
0.972281
0.972437
0.973072
0.97402
0.974494
0.974672
0.974738
0.974782
0.974866
0.974932
0.974915
0.974759
0.974274
0.973886
0.974034
0.97458
0.975953
0.977605
0.978285
0.977182
0.97183
0.970237
0.976371
0.979306
0.979747
0.979927
0.980237
0.980734
0.981114
0.981678
0.982492
0.983707
0.985925
0.989837
0.992691
0.993057
0.992208
0.988712
0.982081
0.975317
0.972805
0.971763
0.97117
0.970516
0.970181
0.970007
0.969756
0.969511
0.969425
0.969387
0.969374
0.969373
0.969396
0.969439
0.969519
0.969628
0.969789
0.970039
0.970348
0.970641
0.97094
0.971236
0.971462
0.971665
0.971851
0.972072
0.972363
0.972724
0.973188
0.974001
0.975524
0.978479
0.981945
0.984702
0.986311
0.987106
0.987487
0.987779
0.988252
0.98899
0.990077
0.991479
0.993174
0.994889
0.996416
0.997655
0.998578
0.99922
0.999611
0.999824
0.999925
0.999965
0.999976
0.999977
0.999967
0.999921
0.999772
0.999257
0.997403
0.991583
0.985818
0.982309
0.980434
0.979609
0.979335
0.979324
0.979501
0.980179
0.981014
0.981651
0.982052
0.98222
0.982211
0.981882
0.981398
0.981387
0.982023
0.985633
0.990362
0.992467
0.992811
0.992053
0.98852
0.987179
0.986633
0.984519
0.97689
0.96551
0.964625
0.975052
0.982288
0.983269
0.980576
0.965311
0.944478
0.936593
0.934103
0.933365
0.933044
0.932593
0.932032
0.931542
0.931981
0.933693
0.935921
0.915919
0.912199
0.918235
0.928737
0.934338
0.939202
0.943234
0.945781
0.946847
0.946734
0.945914
0.943484
0.937682
0.932097
0.927727
0.925542
0.925805
0.928173
0.93246
0.936554
0.942363
0.950469
0.95839
0.96363
0.965217
0.962891
0.949837
0.945738
0.956737
0.970444
0.971792
0.972132
0.972425
0.972367
0.972348
0.972663
0.97349
0.97433
0.974617
0.974716
0.974697
0.974591
0.974498
0.974528
0.974782
0.975119
0.975126
0.974801
0.974305
0.974202
0.974647
0.975854
0.977383
0.977836
0.975702
0.971559
0.971916
0.977761
0.979281
0.979578
0.979738
0.980248
0.980818
0.981388
0.982149
0.98301
0.984088
0.985923
0.989178
0.992527
0.993112
0.992342
0.988789
0.981419
0.974778
0.972661
0.971758
0.971176
0.97071
0.970575
0.970554
0.970529
0.970402
0.970143
0.969848
0.969731
0.969649
0.969615
0.969604
0.969605
0.969671
0.969847
0.970199
0.970705
0.971315
0.972013
0.972665
0.973074
0.973235
0.973205
0.973007
0.97285
0.972827
0.972963
0.973241
0.973659
0.974335
0.975747
0.978969
0.983272
0.986271
0.987636
0.98812
0.988285
0.988566
0.989152
0.98986
0.990728
0.991873
0.993357
0.995014
0.996637
0.997996
0.99893
0.999471
0.999762
0.999901
0.999961
0.999981
0.999986
0.999984
0.999969
0.999901
0.999612
0.99854
0.994619
0.987389
0.982737
0.980414
0.979535
0.979305
0.979302
0.979433
0.979882
0.980791
0.981657
0.982217
0.982419
0.982415
0.982163
0.98175
0.981811
0.982986
0.987588
0.991252
0.992654
0.992719
0.99162
0.990353
0.988976
0.985257
0.974222
0.964583
0.965851
0.977012
0.98238
0.982714
0.975948
0.953017
0.938644
0.93408
0.932767
0.932297
0.931925
0.931066
0.929759
0.929139
0.929725
0.932097
0.935235
0.9135
0.911528
0.91963
0.929887
0.936024
0.941366
0.94571
0.947909
0.94868
0.948766
0.948577
0.948099
0.947221
0.944533
0.940778
0.936492
0.932955
0.931595
0.933767
0.937148
0.942637
0.951046
0.95957
0.964356
0.963123
0.95239
0.949758
0.957674
0.969185
0.971562
0.972569
0.972771
0.972497
0.972459
0.972646
0.973119
0.973953
0.974502
0.974609
0.974599
0.9745
0.974423
0.974437
0.974642
0.974995
0.975102
0.975073
0.974695
0.974398
0.974379
0.974888
0.976127
0.977125
0.977053
0.97343
0.971789
0.974025
0.978402
0.979216
0.979434
0.979749
0.980454
0.981506
0.983019
0.984539
0.985518
0.986284
0.987139
0.989109
0.992211
0.993231
0.992729
0.989431
0.98209
0.97502
0.972843
0.972065
0.971781
0.971767
0.972674
0.97365
0.974142
0.974323
0.974232
0.97328
0.972049
0.97067
0.969998
0.969678
0.969561
0.969537
0.969615
0.969954
0.970603
0.971375
0.972306
0.973332
0.974207
0.974899
0.975361
0.975592
0.97532
0.974739
0.974109
0.973769
0.973704
0.973911
0.974339
0.975059
0.976779
0.981002
0.985702
0.987991
0.988848
0.989165
0.989294
0.989677
0.990326
0.991162
0.99236
0.99376
0.995155
0.99648
0.997738
0.998761
0.999401
0.99973
0.999888
0.999957
0.999983
0.99999
0.999991
0.999985
0.99995
0.99977
0.99902
0.996283
0.988663
0.98311
0.980528
0.979599
0.979377
0.979366
0.979399
0.979564
0.9802
0.981218
0.982006
0.982369
0.982387
0.982147
0.981948
0.982193
0.984122
0.988477
0.991232
0.992217
0.992212
0.991749
0.990187
0.985141
0.971534
0.964148
0.966995
0.978039
0.982341
0.981718
0.968509
0.945419
0.935406
0.93248
0.931737
0.931508
0.930971
0.929711
0.928197
0.927397
0.928082
0.930758
0.934967
0.912525
0.910434
0.918868
0.92993
0.936975
0.942435
0.946926
0.948777
0.949269
0.949297
0.949089
0.948796
0.948712
0.947847
0.946342
0.9441
0.940897
0.937193
0.936776
0.93875
0.944634
0.955204
0.961998
0.962688
0.954455
0.951749
0.956649
0.968755
0.972128
0.973127
0.973232
0.972738
0.972565
0.972568
0.972724
0.973231
0.973976
0.974392
0.974549
0.974592
0.974596
0.97456
0.974557
0.974623
0.974743
0.974767
0.974717
0.974577
0.974546
0.974803
0.975734
0.976392
0.976574
0.974944
0.97262
0.972443
0.976071
0.97869
0.979213
0.979441
0.979986
0.981385
0.984302
0.986888
0.988093
0.989112
0.989648
0.989952
0.990353
0.992087
0.99345
0.993374
0.990888
0.983888
0.975867
0.97354
0.973153
0.973341
0.974261
0.975738
0.976719
0.977204
0.977439
0.977517
0.977359
0.976459
0.97463
0.971765
0.969909
0.969149
0.968876
0.968806
0.96896
0.969768
0.970881
0.972079
0.973267
0.974257
0.975066
0.975756
0.976362
0.976861
0.977149
0.977087
0.976361
0.97543
0.974844
0.974611
0.974764
0.975315
0.976357
0.979206
0.984562
0.988022
0.989423
0.990041
0.990374
0.990646
0.991176
0.992271
0.993602
0.994911
0.996092
0.997121
0.998031
0.998827
0.999412
0.999736
0.999889
0.999957
0.999984
0.999993
0.999994
0.999992
0.999971
0.999847
0.999282
0.997157
0.990119
0.983945
0.981145
0.980119
0.979898
0.97991
0.979987
0.980138
0.98047
0.981217
0.981906
0.982281
0.982309
0.982119
0.982093
0.982571
0.985094
0.989191
0.991434
0.991989
0.991856
0.990691
0.984854
0.969706
0.964143
0.967993
0.978327
0.982148
0.97946
0.961101
0.940742
0.933437
0.931403
0.930899
0.930778
0.930141
0.928297
0.926277
0.925588
0.926438
0.929607
0.935507
0.912139
0.907805
0.914094
0.927494
0.937369
0.942756
0.947326
0.949033
0.949466
0.949441
0.949029
0.948329
0.947935
0.947512
0.946296
0.94429
0.941179
0.939117
0.939133
0.942776
0.952912
0.959599
0.960847
0.955643
0.953382
0.956374
0.967899
0.971975
0.973379
0.973652
0.973514
0.972867
0.972609
0.972582
0.97265
0.972851
0.973229
0.97396
0.974418
0.974591
0.974659
0.974683
0.974693
0.974699
0.974724
0.974771
0.974797
0.974858
0.975121
0.975531
0.975797
0.975893
0.97464
0.973208
0.972857
0.974037
0.977737
0.978891
0.979257
0.979679
0.98097
0.984392
0.987765
0.989315
0.990313
0.991335
0.991966
0.992363
0.992514
0.99269
0.993814
0.994042
0.992733
0.98747
0.977861
0.974488
0.974344
0.97476
0.97578
0.977178
0.977847
0.978197
0.978493
0.978835
0.978972
0.97899
0.978533
0.976496
0.972004
0.968909
0.967821
0.967555
0.967508
0.968268
0.96985
0.971406
0.972743
0.973852
0.974739
0.975518
0.976265
0.976944
0.977526
0.97812
0.978648
0.978669
0.977775
0.976747
0.976001
0.975695
0.975918
0.976792
0.978712
0.98357
0.987837
0.989824
0.990766
0.991565
0.992316
0.993157
0.994221
0.995232
0.99619
0.997078
0.997874
0.998538
0.99908
0.999504
0.999771
0.999903
0.999961
0.999986
0.999994
0.999996
0.999995
0.999981
0.999891
0.999467
0.997916
0.992728
0.986315
0.983439
0.982744
0.982522
0.981994
0.981523
0.981419
0.981438
0.981604
0.98213
0.982358
0.982308
0.982143
0.982228
0.983082
0.986727
0.990415
0.991698
0.99175
0.990832
0.984527
0.96859
0.964287
0.968143
0.978273
0.981598
0.976333
0.955592
0.937774
0.931914
0.930444
0.93
0.930022
0.92905
0.926443
0.924803
0.924838
0.925974
0.929377
0.937437
0.912109
0.906803
0.911224
0.924498
0.935843
0.941228
0.946859
0.949047
0.949567
0.94959
0.948884
0.947694
0.946779
0.946322
0.945268
0.943705
0.942734
0.942698
0.946605
0.953532
0.957603
0.958703
0.955762
0.954386
0.956199
0.966208
0.971268
0.973583
0.974359
0.974443
0.974158
0.973184
0.972746
0.972678
0.972671
0.972702
0.972835
0.973041
0.973383
0.973934
0.974353
0.97455
0.974679
0.974728
0.974753
0.974808
0.974887
0.974976
0.975106
0.975167
0.974841
0.973968
0.973477
0.973348
0.973994
0.977049
0.978527
0.979118
0.97961
0.980755
0.984061
0.987526
0.989322
0.990291
0.991184
0.992154
0.992934
0.993624
0.994135
0.994254
0.994667
0.994813
0.99427
0.991368
0.98336
0.975931
0.974855
0.975214
0.976147
0.977287
0.977963
0.978261
0.978462
0.978661
0.978923
0.979682
0.979993
0.979649
0.976535
0.970223
0.967345
0.966289
0.966068
0.966559
0.968506
0.970358
0.971682
0.972756
0.973639
0.974467
0.975364
0.976343
0.977227
0.978073
0.978962
0.979867
0.980415
0.980128
0.979105
0.97802
0.977231
0.977042
0.977562
0.979094
0.983083
0.987633
0.990013
0.991513
0.992905
0.99445
0.995864
0.996827
0.997295
0.9976
0.99803
0.998533
0.998996
0.99936
0.999635
0.999822
0.999923
0.999969
0.999988
0.999996
0.999997
0.999997
0.999987
0.999924
0.999635
0.99853
0.995256
0.992767
0.992037
0.991004
0.98861
0.985922
0.984034
0.983022
0.982598
0.982512
0.982543
0.982525
0.982303
0.98224
0.98255
0.98474
0.989374
0.991419
0.991692
0.990943
0.984668
0.968448
0.964365
0.96802
0.97808
0.980397
0.973695
0.951359
0.935869
0.930998
0.929496
0.929023
0.928897
0.927713
0.924902
0.924296
0.92456
0.925893
0.929968
0.938881
0.913675
0.90625
0.909873
0.92248
0.933694
0.939093
0.944242
0.948246
0.949637
0.949963
0.949988
0.949339
0.948137
0.947535
0.947204
0.94715
0.948941
0.95112
0.953983
0.956106
0.956745
0.95536
0.954858
0.956387
0.963441
0.969868
0.972856
0.974972
0.975569
0.975668
0.975432
0.974261
0.973318
0.973071
0.972942
0.972823
0.972796
0.972799
0.972857
0.973008
0.973216
0.973406
0.973593
0.973852
0.974007
0.974083
0.974117
0.97412
0.974005
0.973807
0.973683
0.973641
0.973796
0.974533
0.976691
0.978336
0.979045
0.979806
0.98113
0.984039
0.98698
0.988637
0.989625
0.990412
0.991248
0.992191
0.993017
0.993829
0.994694
0.995152
0.995535
0.995687
0.995409
0.994091
0.989913
0.98032
0.976025
0.975556
0.976099
0.977035
0.97783
0.978153
0.978238
0.978105
0.978089
0.978595
0.980295
0.980777
0.979467
0.973428
0.967646
0.965497
0.965121
0.965555
0.967283
0.969143
0.970186
0.970822
0.971365
0.972119
0.973094
0.974414
0.975845
0.977219
0.978567
0.979881
0.981103
0.982052
0.98217
0.98158
0.980395
0.979278
0.978658
0.978753
0.979902
0.983133
0.987472
0.990362
0.992583
0.994523
0.99619
0.997483
0.998335
0.998746
0.99882
0.998862
0.999065
0.999347
0.999585
0.999757
0.999876
0.999944
0.999977
0.999991
0.999997
0.999998
0.999998
0.999991
0.999951
0.999767
0.999004
0.998306
0.998093
0.997775
0.996832
0.993664
0.989546
0.98654
0.984564
0.983549
0.983219
0.983031
0.982555
0.982327
0.982439
0.983677
0.988233
0.991142
0.991701
0.991104
0.985078
0.968641
0.964416
0.967648
0.977618
0.979105
0.971681
0.949076
0.93496
0.93017
0.928565
0.928043
0.927497
0.92579
0.924223
0.924077
0.924489
0.926271
0.932024
0.939924
0.91559
0.9052
0.9065
0.917013
0.93033
0.937742
0.940844
0.944971
0.948695
0.950064
0.950584
0.950816
0.950955
0.951045
0.95134
0.951785
0.952693
0.953493
0.954449
0.954945
0.954796
0.955203
0.956545
0.962198
0.968057
0.973032
0.976595
0.977892
0.978424
0.978773
0.978693
0.977202
0.975529
0.975187
0.975011
0.974635
0.974076
0.973757
0.973533
0.973336
0.97325
0.97322
0.973214
0.973256
0.973424
0.973565
0.973629
0.973731
0.973867
0.973966
0.974212
0.974729
0.975765
0.977359
0.978657
0.979486
0.980449
0.981962
0.984125
0.986254
0.987721
0.988708
0.989545
0.990265
0.99103
0.991911
0.992751
0.993648
0.994661
0.995303
0.995797
0.996211
0.996182
0.995727
0.993968
0.989263
0.979777
0.976746
0.976316
0.976711
0.977244
0.97763
0.977721
0.97774
0.977807
0.978118
0.979726
0.981002
0.980679
0.976235
0.968458
0.965285
0.964824
0.965184
0.966802
0.96825
0.968867
0.969032
0.968962
0.968539
0.968781
0.970352
0.972475
0.974801
0.977024
0.979089
0.980923
0.982542
0.983862
0.984218
0.98389
0.982853
0.981543
0.980513
0.980254
0.980938
0.983514
0.987862
0.991329
0.994006
0.996041
0.997489
0.998452
0.99905
0.99937
0.999473
0.999454
0.99946
0.99959
0.999742
0.999849
0.99992
0.999963
0.999984
0.999994
0.999998
0.999999
0.999998
0.999995
0.999972
0.999863
0.999738
0.99968
0.999582
0.999321
0.998535
0.995977
0.99133
0.987525
0.985135
0.984148
0.983774
0.983035
0.982529
0.982519
0.983201
0.987012
0.990777
0.991732
0.991315
0.985876
0.969262
0.964454
0.96698
0.976413
0.977327
0.969872
0.947601
0.934297
0.929651
0.927824
0.927111
0.926311
0.924524
0.923933
0.924
0.924658
0.927286
0.935591
0.941922
0.920936
0.904372
0.901948
0.905984
0.92128
0.934263
0.939149
0.941435
0.94454
0.948147
0.949721
0.950438
0.950929
0.951418
0.951814
0.952263
0.952759
0.953146
0.953633
0.954179
0.955138
0.956936
0.961416
0.966803
0.973554
0.980036
0.982332
0.983123
0.983497
0.983652
0.983327
0.981898
0.980563
0.980246
0.980087
0.979693
0.979241
0.978866
0.978189
0.977509
0.977075
0.976768
0.976385
0.976054
0.975836
0.975739
0.975723
0.975929
0.976345
0.976813
0.977557
0.978433
0.979385
0.980223
0.98108
0.981715
0.982798
0.984025
0.985276
0.986566
0.987651
0.988489
0.989145
0.989654
0.990067
0.990603
0.991488
0.992706
0.994189
0.995148
0.99575
0.996249
0.99655
0.996458
0.995927
0.994195
0.98979
0.981608
0.978049
0.977185
0.977257
0.977396
0.977547
0.977642
0.977765
0.97809
0.979699
0.981568
0.981456
0.97774
0.968859
0.965313
0.964766
0.965086
0.966646
0.967781
0.968375
0.968614
0.968483
0.967491
0.965021
0.963979
0.96578
0.96951
0.973311
0.976724
0.979641
0.982114
0.984235
0.985971
0.986625
0.986309
0.985278
0.98372
0.982301
0.981765
0.982159
0.984376
0.98903
0.992773
0.995431
0.997221
0.99836
0.999045
0.999436
0.999649
0.999747
0.999764
0.999748
0.999766
0.999845
0.99991
0.999952
0.999977
0.99999
0.999996
0.999998
0.999999
0.999999
0.999997
0.999987
0.999971
0.999957
0.999929
0.99986
0.999649
0.998939
0.996397
0.991116
0.987211
0.985286
0.984647
0.983732
0.982891
0.982709
0.983051
0.985829
0.990262
0.991713
0.991517
0.987145
0.970671
0.964589
0.966448
0.974611
0.975484
0.96875
0.947769
0.934458
0.929316
0.927174
0.926327
0.924993
0.924005
0.923862
0.924055
0.925158
0.928906
0.940726
0.944701
0.930588
0.907823
0.900642
0.900358
0.906552
0.924907
0.935993
0.940081
0.941907
0.944192
0.947253
0.948855
0.949627
0.950551
0.951348
0.95174
0.952351
0.952948
0.953634
0.954778
0.957028
0.961198
0.966458
0.973725
0.981444
0.985033
0.986047
0.986249
0.986253
0.985681
0.985049
0.983742
0.98299
0.982672
0.982256
0.981834
0.981653
0.981391
0.980891
0.980414
0.980055
0.979782
0.979659
0.979572
0.979499
0.979455
0.979352
0.979313
0.979307
0.979467
0.979891
0.980105
0.980509
0.981023
0.981484
0.982153
0.983017
0.984139
0.985183
0.986319
0.98719
0.987649
0.98773
0.987886
0.987866
0.988068
0.988723
0.990263
0.992642
0.994423
0.995412
0.996117
0.996544
0.996708
0.996614
0.996131
0.994679
0.991412
0.984828
0.980168
0.978525
0.978006
0.977904
0.977958
0.978145
0.978696
0.980869
0.982624
0.982409
0.977987
0.96904
0.965393
0.964795
0.965188
0.966698
0.967616
0.968259
0.968789
0.96884
0.968109
0.965018
0.96097
0.958884
0.960226
0.965906
0.971824
0.976545
0.980283
0.983416
0.98608
0.988164
0.989139
0.988885
0.987603
0.985524
0.983773
0.983165
0.983526
0.985972
0.9908
0.994246
0.996501
0.997947
0.998843
0.999365
0.999647
0.999792
0.999866
0.999894
0.999894
0.99989
0.99991
0.999948
0.999972
0.999987
0.999994
0.999998
0.999999
1
0.999999
0.999999
0.999997
0.999994
0.999987
0.999967
0.999897
0.999624
0.998544
0.994572
0.989532
0.986668
0.985666
0.984668
0.983473
0.982999
0.983124
0.984815
0.989528
0.991607
0.991656
0.988582
0.973127
0.964941
0.965806
0.972649
0.973869
0.968405
0.948629
0.93501
0.929451
0.926897
0.925568
0.92436
0.923889
0.923916
0.924373
0.926107
0.931518
0.947456
0.945461
0.935212
0.917249
0.900688
0.898431
0.898991
0.906389
0.926379
0.937029
0.940726
0.942295
0.94407
0.946982
0.949028
0.949879
0.950656
0.951555
0.952429
0.953385
0.954751
0.957431
0.961434
0.96634
0.971851
0.979892
0.985591
0.987368
0.987686
0.98754
0.986748
0.985997
0.985123
0.983749
0.982806
0.982231
0.981297
0.98028
0.979529
0.978733
0.97818
0.977938
0.977851
0.977841
0.978055
0.978265
0.978824
0.979519
0.980361
0.98096
0.981142
0.981218
0.980914
0.980568
0.980363
0.980218
0.980371
0.980791
0.981536
0.983048
0.984285
0.985314
0.985876
0.985977
0.985811
0.984689
0.984681
0.98498
0.985693
0.987281
0.989744
0.992556
0.994402
0.995604
0.996347
0.996685
0.996757
0.996678
0.996293
0.99523
0.9928
0.988424
0.98399
0.981352
0.97998
0.979829
0.980108
0.981232
0.983556
0.984279
0.983438
0.976979
0.968375