/*--------------------------------*- C++ -*----------------------------------*\
| =========                 |                                                 |
| \\      /  F ield         | OpenFOAM: The Open Source CFD Toolbox           |
|  \\    /   O peration     | Version:  2112                                  |
|   \\  /    A nd           | Website:  www.openfoam.com                      |
|    \\/     M anipulation  |                                                 |
\*---------------------------------------------------------------------------*/
FoamFile
{
    version     2.0;
    format      ascii;
    arch        "LSB;label=32;scalar=64";
    class       surfaceScalarField;
    location    "0.27";
    object      phi;
}
// * * * * * * * * * * * * * * * * * * * * * * * * * * * * * * * * * * * * * //

dimensions      [0 3 -1 0 0 0 0];

oriented        oriented;

internalField   nonuniform List<scalar> 
24170
(
3.17456e-06
1.19955e-07
3.03419e-06
1.40362e-07
2.91175e-06
1.22441e-07
2.80692e-06
1.04834e-07
2.71422e-06
9.27042e-08
2.6278e-06
8.64121e-08
2.54273e-06
8.50776e-08
2.45205e-06
9.06712e-08
2.35374e-06
9.83117e-08
2.25134e-06
1.024e-07
2.15507e-06
9.62734e-08
2.06586e-06
8.92076e-08
1.97929e-06
8.65712e-08
1.88691e-06
9.23848e-08
1.78294e-06
1.03963e-07
1.65841e-06
1.24529e-07
1.51864e-06
1.39779e-07
1.72785e-07
1.34585e-06
3.42672e-06
7.26149e-08
3.42393e-06
1.43151e-07
3.40886e-06
1.37514e-07
3.39774e-06
1.15951e-07
3.39663e-06
9.38201e-08
3.40623e-06
7.68114e-08
3.42046e-06
7.08412e-08
3.428e-06
8.31375e-08
3.42078e-06
1.0553e-07
3.39826e-06
1.24919e-07
3.36627e-06
1.28263e-07
3.33221e-06
1.23264e-07
3.29779e-06
1.20991e-07
3.26025e-06
1.2993e-07
3.21568e-06
1.48527e-07
3.15625e-06
1.83967e-07
3.07699e-06
2.19032e-07
2.61996e-07
2.98778e-06
3.72844e-06
1.44697e-07
3.69187e-06
1.79722e-07
3.68299e-06
1.46388e-07
3.69109e-06
1.07853e-07
3.69657e-06
8.83404e-08
3.6866e-06
8.67788e-08
3.66561e-06
9.18382e-08
3.64659e-06
1.02159e-07
3.63775e-06
1.14362e-07
3.63976e-06
1.22914e-07
3.64638e-06
1.21644e-07
3.65314e-06
1.165e-07
3.65618e-06
1.17952e-07
3.65322e-06
1.32885e-07
3.64216e-06
1.5959e-07
3.62569e-06
2.00438e-07
3.59875e-06
2.45969e-07
2.91913e-07
3.56884e-06
3.88613e-06
7.67195e-08
3.90749e-06
1.58362e-07
3.91702e-06
1.36863e-07
3.91794e-06
1.06929e-07
3.91392e-06
9.23634e-08
3.90416e-06
9.65428e-08
3.88909e-06
1.06904e-07
3.87551e-06
1.15737e-07
3.8703e-06
1.19575e-07
3.87555e-06
1.17667e-07
3.88594e-06
1.11247e-07
3.89567e-06
1.06775e-07
3.90044e-06
1.13182e-07
3.89843e-06
1.34895e-07
3.89002e-06
1.68001e-07
3.87827e-06
2.12187e-07
3.8644e-06
2.59836e-07
3.07543e-07
3.84877e-06
4.19065e-06
1.58611e-07
4.18039e-06
1.68621e-07
4.1777e-06
1.39555e-07
4.17262e-06
1.12008e-07
4.17785e-06
8.71336e-08
4.18471e-06
8.96819e-08
4.17877e-06
1.12849e-07
4.16029e-06
1.34208e-07
4.14137e-06
1.385e-07
4.13232e-06
1.26716e-07
4.13291e-06
1.10652e-07
4.137e-06
1.02688e-07
4.13984e-06
1.10347e-07
4.13926e-06
1.35477e-07
4.13462e-06
1.72636e-07
4.12743e-06
2.19376e-07
4.11881e-06
2.68453e-07
3.17254e-07
4.1091e-06
4.50873e-06
7.18233e-08
4.52941e-06
1.47949e-07
4.49941e-06
1.6955e-07
4.46841e-06
1.43008e-07
4.46367e-06
9.18788e-08
4.48355e-06
6.97932e-08
4.51258e-06
8.38213e-08
4.53845e-06
1.08343e-07
4.55442e-06
1.22523e-07
4.55631e-06
1.24827e-07
4.54307e-06
1.23892e-07
4.51797e-06
1.27792e-07
4.48636e-06
1.41954e-07
4.45344e-06
1.68402e-07
4.42362e-06
2.02456e-07
4.40068e-06
2.42313e-07
4.38517e-06
2.83959e-07
3.26587e-07
4.37584e-06
4.93495e-06
1.27319e-07
4.92425e-06
1.58642e-07
4.87186e-06
2.21938e-07
4.82267e-06
1.92202e-07
4.79982e-06
1.14729e-07
4.80651e-06
6.31064e-08
4.83242e-06
5.79065e-08
4.85987e-06
8.08953e-08
4.87424e-06
1.08157e-07
4.87084e-06
1.28226e-07
4.85332e-06
1.41413e-07
4.82744e-06
1.53664e-07
4.79901e-06
1.70388e-07
4.77367e-06
1.93736e-07
4.75455e-06
2.21579e-07
4.74348e-06
2.5338e-07
4.73985e-06
2.87593e-07
3.2419e-07
4.74225e-06
5.23802e-06
8.29297e-08
5.2506e-06
1.46065e-07
5.23651e-06
2.36029e-07
5.19793e-06
2.30783e-07
5.1557e-06
1.56952e-07
5.1308e-06
8.80053e-08
5.12803e-06
6.06807e-08
5.13898e-06
6.99404e-08
5.15082e-06
9.63248e-08
5.15504e-06
1.24001e-07
5.14874e-06
1.4771e-07
5.13372e-06
1.68688e-07
5.1156e-06
1.88513e-07
5.10039e-06
2.08938e-07
5.09078e-06
2.31197e-07
5.08757e-06
2.56583e-07
5.09119e-06
2.83976e-07
3.14238e-07
5.10114e-06
5.55495e-06
7.64725e-08
5.58195e-06
1.19067e-07
5.61217e-06
2.05802e-07
5.62437e-06
2.1859e-07
5.60262e-06
1.78695e-07
5.56584e-06
1.24788e-07
5.54095e-06
8.55698e-08
5.53522e-06
7.56756e-08
5.54009e-06
9.14493e-08
5.54444e-06
1.19648e-07
5.54282e-06
1.49337e-07
5.53583e-06
1.75674e-07
5.52588e-06
1.98465e-07
5.51507e-06
2.19751e-07
5.50615e-06
2.40119e-07
5.50139e-06
2.61335e-07
5.50193e-06
2.83434e-07
3.08705e-07
5.50747e-06
6.00623e-06
-2.39695e-08
6.02248e-06
1.02824e-07
6.00929e-06
2.18986e-07
5.98855e-06
2.39329e-07
5.95551e-06
2.11735e-07
5.91686e-06
1.6344e-07
5.88794e-06
1.14488e-07
5.87869e-06
8.493e-08
5.8876e-06
8.2534e-08
5.90414e-06
1.03115e-07
5.91668e-06
1.36798e-07
5.91841e-06
1.73938e-07
5.90784e-06
2.0904e-07
5.88765e-06
2.39938e-07
5.86333e-06
2.64441e-07
5.84053e-06
2.84128e-07
5.82698e-06
2.96987e-07
3.08638e-07
5.82705e-06
6.39363e-06
3.76232e-08
6.41274e-06
8.37126e-08
6.41677e-06
2.14959e-07
6.39826e-06
2.57838e-07
6.38327e-06
2.26728e-07
6.37545e-06
1.71255e-07
6.36352e-06
1.26413e-07
6.34186e-06
1.06599e-07
6.31568e-06
1.08713e-07
6.29382e-06
1.24971e-07
6.27961e-06
1.51006e-07
6.27033e-06
1.83222e-07
6.26229e-06
2.17084e-07
6.2552e-06
2.47021e-07
6.25175e-06
2.6789e-07
6.25609e-06
2.79794e-07
6.27068e-06
2.82395e-07
2.83225e-07
6.29609e-06
5.79408e-06
2.38904e-08
5.78024e-06
9.7549e-08
5.75585e-06
2.39358e-07
5.75741e-06
2.5627e-07
5.78863e-06
1.95509e-07
5.81842e-06
1.41467e-07
5.81891e-06
1.25924e-07
5.7874e-06
1.38113e-07
5.74183e-06
1.54275e-07
5.70404e-06
1.62768e-07
5.68596e-06
1.69083e-07
5.68658e-06
1.82602e-07
5.69812e-06
2.05545e-07
5.71223e-06
2.32907e-07
5.72414e-06
2.55986e-07
5.73324e-06
2.70695e-07
5.74023e-06
2.75405e-07
2.73629e-07
5.74982e-06
6.99776e-06
6.29285e-08
6.97609e-06
1.19223e-07
6.989e-06
2.26445e-07
7.02433e-06
2.20947e-07
7.06188e-06
1.5795e-07
7.08151e-06
1.21839e-07
7.07187e-06
1.35568e-07
7.03787e-06
1.72114e-07
6.99515e-06
1.96997e-07
6.96057e-06
1.97343e-07
6.94535e-06
1.84302e-07
6.95129e-06
1.76665e-07
6.97296e-06
1.83872e-07
7.00073e-06
2.05141e-07
7.02531e-06
2.31406e-07
7.04106e-06
2.54939e-07
7.04505e-06
2.71414e-07
2.77555e-07
7.04113e-06
8.75731e-06
-2.53208e-08
8.63955e-06
2.36985e-07
8.58409e-06
2.81903e-07
8.54467e-06
2.60371e-07
8.50245e-06
2.00167e-07
8.46972e-06
1.54573e-07
8.45561e-06
1.49683e-07
8.46136e-06
1.66355e-07
8.48096e-06
1.77405e-07
8.50569e-06
1.72604e-07
8.52974e-06
1.60254e-07
8.55179e-06
1.54617e-07
8.57245e-06
1.63216e-07
8.5908e-06
1.8679e-07
8.60383e-06
2.1837e-07
8.60868e-06
2.50089e-07
8.60408e-06
2.76016e-07
2.90588e-07
8.59105e-06
1.0289e-05
-5.75555e-08
1.04381e-05
8.78927e-08
1.04941e-05
2.25884e-07
1.04761e-05
2.78389e-07
1.04222e-05
2.54112e-07
1.03709e-05
2.05786e-07
1.03457e-05
1.74892e-07
1.03433e-05
1.68751e-07
1.03469e-05
1.73806e-07
1.0344e-05
1.75498e-07
1.03334e-05
1.70944e-07
1.03208e-05
1.67129e-07
1.03127e-05
1.7138e-07
1.03122e-05
1.8725e-07
1.03194e-05
2.11227e-07
1.03319e-05
2.3755e-07
1.03484e-05
2.59502e-07
2.7278e-07
1.03662e-05
1.2696e-05
1.87356e-07
1.25786e-05
2.05316e-07
1.25742e-05
2.30319e-07
1.25951e-05
2.57476e-07
1.26137e-05
2.35438e-07
1.26068e-05
2.12746e-07
1.25663e-05
2.15362e-07
1.25106e-05
2.24494e-07
1.24617e-05
2.22631e-07
1.24309e-05
2.06319e-07
1.24175e-05
1.84334e-07
1.24168e-05
1.67853e-07
1.24257e-05
1.6254e-07
1.24457e-05
1.67214e-07
1.24796e-05
1.77338e-07
1.25287e-05
1.88435e-07
1.25917e-05
1.96528e-07
2.02012e-07
1.26624e-05
1.54772e-05
1.24115e-07
1.53883e-05
2.94184e-07
1.52746e-05
3.44054e-07
1.52074e-05
3.24647e-07
1.51658e-05
2.77033e-07
1.51494e-05
2.29158e-07
1.51617e-05
2.03036e-07
1.51908e-05
1.95411e-07
1.52261e-05
1.87331e-07
1.52629e-05
1.69531e-07
1.53013e-05
1.45905e-07
1.5344e-05
1.25195e-07
1.53937e-05
1.12828e-07
1.54517e-05
1.092e-07
1.55166e-05
1.12458e-07
1.55852e-05
1.19821e-07
1.56528e-05
1.28955e-07
1.40971e-07
1.57138e-05
1.78199e-05
-9.9676e-08
1.80539e-05
6.01301e-08
1.82968e-05
1.01167e-07
1.85258e-05
9.57005e-08
1.87006e-05
1.02215e-07
1.88177e-05
1.11997e-07
1.88982e-05
1.22561e-07
1.89603e-05
1.33294e-07
1.90084e-05
1.3927e-07
1.9037e-05
1.40932e-07
1.90433e-05
1.39603e-07
1.90323e-05
1.36173e-07
1.90136e-05
1.31515e-07
1.89965e-05
1.26353e-07
1.89873e-05
1.21621e-07
1.89876e-05
1.195e-07
1.89961e-05
1.20451e-07
1.25493e-07
1.90116e-05
2.20215e-05
1.85872e-07
2.20475e-05
3.41695e-08
2.22204e-05
-7.1763e-08
2.24392e-05
-1.23112e-07
2.26177e-05
-7.62435e-08
2.27212e-05
8.47034e-09
2.27696e-05
7.4117e-08
2.28134e-05
8.95708e-08
2.28729e-05
7.97135e-08
2.29453e-05
6.85457e-08
2.30166e-05
6.83415e-08
2.30728e-05
7.99077e-08
2.31076e-05
9.67773e-08
2.31226e-05
1.1136e-07
2.31251e-05
1.19073e-07
2.31236e-05
1.20976e-07
2.31247e-05
1.19379e-07
1.17797e-07
2.31324e-05
1.67318e-05
1.36777e-07
1.67356e-05
3.03728e-08
1.66932e-05
-2.93072e-08
1.66243e-05
-5.42627e-08
1.65865e-05
-3.84483e-08
1.66046e-05
-9.56266e-09
1.66684e-05
1.03277e-08
1.67365e-05
2.1401e-08
1.67887e-05
2.75041e-08
1.68253e-05
3.19687e-08
1.68535e-05
4.01945e-08
1.68781e-05
5.52753e-08
1.68986e-05
7.62248e-08
1.6911e-05
9.90232e-08
1.6913e-05
1.17006e-07
1.69074e-05
1.26575e-07
1.69005e-05
1.26366e-07
1.19207e-07
1.6899e-05
1.44329e-05
-5.41646e-08
1.45977e-05
-1.34405e-07
1.46642e-05
-9.58342e-08
1.4634e-05
-2.4033e-08
1.45662e-05
2.93148e-08
1.45328e-05
2.3879e-08
1.45599e-05
-1.67818e-08
1.46389e-05
-5.76317e-08
1.47387e-05
-7.22643e-08
1.48241e-05
-5.34608e-08
1.48742e-05
-9.87692e-09
1.48861e-05
4.33521e-08
1.48723e-05
8.99937e-08
1.48509e-05
1.20427e-07
1.4837e-05
1.30937e-07
1.48384e-05
1.25173e-07
1.48561e-05
1.08724e-07
8.89221e-08
1.48863e-05
1.27543e-05
3.52545e-08
1.2653e-05
-3.3157e-08
1.26699e-05
-1.12731e-07
1.27675e-05
-1.2164e-07
1.28889e-05
-9.2071e-08
1.29702e-05
-5.73758e-08
1.29906e-05
-3.71858e-08
1.29684e-05
-3.5439e-08
1.29357e-05
-3.96034e-08
1.29158e-05
-3.3513e-08
1.29167e-05
-1.08343e-08
1.29372e-05
2.29063e-08
1.29704e-05
5.67848e-08
1.30091e-05
8.16517e-08
1.3046e-05
9.40897e-08
1.30752e-05
9.59674e-08
1.30926e-05
9.13274e-08
8.47493e-08
1.30968e-05
1.10888e-05
-1.43839e-07
1.10745e-05
-1.88357e-08
1.10036e-05
-4.18404e-08
1.09731e-05
-9.10693e-08
1.09909e-05
-1.0993e-07
1.10282e-05
-9.46861e-08
1.10562e-05
-6.5151e-08
1.10619e-05
-4.11887e-08
1.10505e-05
-2.81747e-08
1.10364e-05
-1.9343e-08
1.10326e-05
-7.09933e-09
1.10455e-05
1.00254e-08
1.1074e-05
2.82871e-08
1.11133e-05
4.23588e-08
1.11576e-05
4.98157e-08
1.12017e-05
5.17902e-08
1.12422e-05
5.08544e-08
5.01305e-08
1.12768e-05
9.556e-06
-1.36812e-07
9.58976e-06
-5.25968e-08
9.53554e-06
1.23779e-08
9.49771e-06
-5.32359e-08
9.5133e-06
-1.25527e-07
9.57242e-06
-1.53801e-07
9.64207e-06
-1.348e-07
9.69332e-06
-9.24399e-08
9.71576e-06
-5.06123e-08
9.71503e-06
-1.8613e-08
9.70463e-06
3.29796e-09
9.69725e-06
1.74091e-08
9.70062e-06
2.49176e-08
9.71547e-06
2.75006e-08
9.73773e-06
2.75573e-08
9.76209e-06
2.74343e-08
9.78411e-06
2.88328e-08
3.29649e-08
9.80128e-06
8.54265e-06
-5.21858e-08
8.54479e-06
-5.47346e-08
8.58353e-06
-2.63635e-08
8.58626e-06
-5.59706e-08
8.55451e-06
-9.37781e-08
8.49762e-06
-9.69091e-08
8.43358e-06
-7.07575e-08
8.38069e-06
-3.95539e-08
8.35067e-06
-2.05921e-08
8.34605e-06
-1.39849e-08
8.36146e-06
-1.21199e-08
8.38813e-06
-9.26276e-09
8.41731e-06
-4.25809e-09
8.44258e-06
2.22637e-09
8.46069e-06
9.45285e-09
8.47144e-06
1.6684e-08
8.4768e-06
2.34722e-08
2.9177e-08
8.48059e-06
7.39914e-06
1.11239e-07
7.31627e-06
2.81377e-08
7.34707e-06
-5.71596e-08
7.36927e-06
-7.81699e-08
7.32407e-06
-4.85766e-08
7.2525e-06
-2.53436e-08
7.21003e-06
-2.82841e-08
7.21565e-06
-4.51821e-08
7.25338e-06
-5.83156e-08
7.29879e-06
-5.94011e-08
7.33599e-06
-4.93148e-08
7.36024e-06
-3.35109e-08
7.37408e-06
-1.8099e-08
7.38241e-06
-6.107e-09
7.3894e-06
2.4689e-09
7.39789e-06
8.1855e-09
7.40887e-06
1.25002e-08
1.59392e-08
7.4221e-06
6.36662e-06
-2.94652e-08
6.43016e-06
-3.54056e-08
6.39058e-06
-1.75779e-08
6.31745e-06
-5.04074e-09
6.282e-06
-1.31267e-08
6.29287e-06
-3.62115e-08
6.32457e-06
-5.99886e-08
6.35197e-06
-7.25766e-08
6.36547e-06
-7.18228e-08
6.3681e-06
-6.20292e-08
6.3677e-06
-4.89129e-08
6.37061e-06
-3.64194e-08
6.37855e-06
-2.60462e-08
6.38993e-06
-1.74822e-08
6.40241e-06
-1.00104e-08
6.41446e-06
-3.86204e-09
6.42577e-06
1.18636e-09
5.04831e-09
6.43666e-06
5.37504e-06
-1.51805e-07
5.46354e-06
-1.23898e-07
5.51141e-06
-6.54525e-08
5.53121e-06
-2.4841e-08
5.53429e-06
-1.62016e-08
5.53643e-06
-3.83568e-08
5.54488e-06
-6.84324e-08
5.55852e-06
-8.62175e-08
5.57245e-06
-8.57591e-08
5.58229e-06
-7.18628e-08
5.586e-06
-5.26242e-08
5.5838e-06
-3.42197e-08
5.5771e-06
-1.93428e-08
5.56856e-06
-8.94758e-09
5.56234e-06
-3.79025e-09
5.56249e-06
-4.01507e-09
5.5717e-06
-8.01774e-09
-1.22606e-08
5.58901e-06
4.81136e-06
-1.22533e-07
4.77853e-06
-9.107e-08
4.78641e-06
-7.33338e-08
4.80822e-06
-4.66511e-08
4.8311e-06
-3.90788e-08
4.85115e-06
-5.84092e-08
4.86846e-06
-8.57424e-08
4.88319e-06
-1.00941e-07
4.89325e-06
-9.58224e-08
4.89501e-06
-7.36226e-08
4.88686e-06
-4.448e-08
4.87186e-06
-1.92175e-08
4.85713e-06
-4.61258e-09
4.85071e-06
-2.5236e-09
4.85748e-06
-1.05581e-08
4.87714e-06
-2.36838e-08
4.9059e-06
-3.6769e-08
-4.45731e-08
4.93821e-06
4.11911e-06
4.02804e-06
3.95471e-06
3.90806e-06
3.86898e-06
3.81057e-06
3.72483e-06
3.62389e-06
3.52806e-06
3.45444e-06
3.40996e-06
3.39074e-06
3.38613e-06
3.38361e-06
3.37305e-06
3.34937e-06
3.3126e-06
3.26802e-06
-1.16356e-07
1.16356e-07
2.32003e-08
-1.39557e-07
3.03851e-07
-2.8065e-07
5.88365e-07
-2.84514e-07
7.87501e-07
-1.99137e-07
8.50794e-07
-6.32925e-08
7.6432e-07
8.64741e-08
5.07768e-07
2.56552e-07
1.81691e-07
3.26077e-07
-4.18753e-08
2.23566e-07
-1.99883e-07
1.58008e-07
-3.30355e-07
1.30472e-07
-3.86983e-07
5.66282e-08
-3.11686e-07
-7.52976e-08
-1.7953e-07
-1.32156e-07
-5.80508e-08
-1.21479e-07
3.91977e-08
-9.72486e-08
8.70709e-08
-4.78732e-08
1.22119e-07
-3.5048e-08
7.03556e-08
5.17634e-08
-1.16922e-07
1.87277e-07
-4.11703e-07
2.94781e-07
-7.93586e-07
3.81883e-07
-1.26726e-06
4.73672e-07
-1.84271e-06
5.75449e-07
-2.50091e-06
6.58205e-07
-3.20513e-06
7.04222e-07
-3.91414e-06
7.09001e-07
-4.59869e-06
6.84554e-07
-5.25752e-06
6.58831e-07
-5.90463e-06
6.4711e-07
-6.54048e-06
6.35854e-07
-7.1371e-06
5.9662e-07
-7.6472e-06
5.101e-07
-8.03111e-06
3.83905e-07
-8.28019e-06
2.49084e-07
-8.41723e-06
1.37037e-07
-8.4761e-06
5.88728e-08
-8.48013e-06
4.02413e-09
-8.42923e-06
-5.08927e-08
-8.31525e-06
-1.13988e-07
-8.13035e-06
-1.84896e-07
-7.86956e-06
-2.60792e-07
-7.53421e-06
-3.35349e-07
-7.13331e-06
-4.00899e-07
-6.67962e-06
-4.53686e-07
-6.18583e-06
-4.9379e-07
-5.66024e-06
-5.25592e-07
-5.1031e-06
-5.57141e-07
-4.50524e-06
-5.9786e-07
-3.84862e-06
-6.56627e-07
-3.10737e-06
-7.41248e-07
-2.25367e-06
-8.537e-07
-1.28501e-06
-9.6866e-07
-2.77206e-07
-1.0078e-06
6.26445e-07
-9.03651e-07
1.3996e-06
-7.73153e-07
2.094e-06
-6.944e-07
2.68051e-06
-5.86511e-07
3.14106e-06
-4.60555e-07
3.44269e-06
-3.01624e-07
3.47266e-06
-2.99739e-08
3.13453e-06
3.38131e-07
2.57659e-06
5.57943e-07
2.04872e-06
5.27865e-07
1.56452e-06
4.842e-07
8.96812e-07
6.67711e-07
1.41132e-07
7.5568e-07
-4.42019e-07
5.83151e-07
-8.31811e-07
3.89792e-07
-9.37157e-07
1.05346e-07
-4.2074e-07
-5.16417e-07
8.12973e-07
-1.23371e-06
2.19762e-06
-1.38465e-06
3.00914e-06
-8.11521e-07
3.12249e-06
-1.13343e-07
2.76684e-06
3.55646e-07
2.42329e-06
3.43549e-07
2.35815e-06
6.51456e-08
2.12667e-06
2.31474e-07
1.13454e-06
9.92129e-07
-8.72912e-07
2.00746e-06
-3.04424e-06
2.17133e-06
-4.90724e-06
1.863e-06
-6.44512e-06
1.53788e-06
-7.68839e-06
1.24327e-06
-8.68355e-06
9.95154e-07
-9.47438e-06
7.9083e-07
-1.00982e-05
6.23872e-07
-1.0583e-05
4.84731e-07
-1.09481e-05
3.65131e-07
-1.12071e-05
2.58962e-07
-1.13696e-05
1.62509e-07
-1.14437e-05
7.4147e-08
-1.14366e-05
-7.14986e-09
-1.13582e-05
-7.8414e-08
-1.12125e-05
-1.45637e-07
-1.10052e-05
-2.07303e-07
-1.07417e-05
-2.63568e-07
-1.04276e-05
-3.14055e-07
-1.00684e-05
-3.59183e-07
-9.66981e-06
-3.98607e-07
-9.23743e-06
-4.32385e-07
-8.77691e-06
-4.6052e-07
-8.29397e-06
-4.82933e-07
-7.7942e-06
-4.99778e-07
-7.28287e-06
-5.1133e-07
-6.76481e-06
-5.18052e-07
-6.24418e-06
-5.20636e-07
-5.72422e-06
-5.19961e-07
-5.20708e-06
-5.17136e-07
-4.69356e-06
-5.1352e-07
-4.18287e-06
-5.10688e-07
-3.67281e-06
-5.10064e-07
-3.1602e-06
-5.12602e-07
-2.64184e-06
-5.18363e-07
-2.1153e-06
-5.26537e-07
-1.5799e-06
-5.35401e-07
-1.03858e-06
-5.41319e-07
-4.96986e-07
-5.41598e-07
3.68065e-08
-5.33792e-07
5.5544e-07
-5.18634e-07
1.04966e-06
-4.94224e-07
1.51313e-06
-4.63466e-07
1.94147e-06
-4.28345e-07
2.33227e-06
-3.90796e-07
2.6845e-06
-3.52228e-07
2.99794e-06
-3.1344e-07
3.27325e-06
-2.75309e-07
3.51144e-06
-2.38193e-07
3.7114e-06
-1.99955e-07
3.87326e-06
-1.61867e-07
4.00135e-06
-1.28085e-07
4.09092e-06
-8.95707e-08
4.13943e-06
-4.85077e-08
4.16122e-06
-2.17888e-08
4.14236e-06
1.88518e-08
4.08018e-06
6.21824e-08
4.0206e-06
5.95797e-08
3.92111e-06
9.94932e-08
3.77618e-06
1.44927e-07
3.69042e-06
8.57643e-08
3.52718e-06
1.63239e-07
3.27693e-06
2.50247e-07
3.14863e-06
1.28297e-07
2.64273e-06
5.059e-07
1.50272e-06
1.14002e-06
4.9654e-07
1.00618e-06
4.18397e-08
4.547e-07
-7.8393e-08
1.20233e-07
-1.33505e-07
5.51124e-08
-2.70912e-07
1.37406e-07
-4.5237e-07
1.81459e-07
-5.71422e-07
1.19051e-07
-5.35254e-07
-3.6168e-08
-3.5031e-07
-1.84944e-07
-8.56932e-08
-2.64616e-07
2.28116e-07
-3.13809e-07
5.49775e-07
-3.2166e-07
7.43672e-07
-1.93897e-07
9.63899e-07
-2.20227e-07
1.30199e-06
-3.38089e-07
1.36427e-06
-6.22781e-08
1.36111e-06
3.16094e-09
1.83705e-06
-4.75942e-07
2.27207e-06
-4.35024e-07
1.83921e-06
4.32859e-07
4.11942e-07
1.42727e-06
-1.4716e-06
1.88354e-06
-3.18643e-06
1.71482e-06
-4.47687e-06
1.29044e-06
-5.30085e-06
8.2398e-07
-5.6744e-06
3.73551e-07
-5.65411e-06
-2.02934e-08
-5.32167e-06
-3.3243e-07
-4.77182e-06
-5.49859e-07
-4.10115e-06
-6.70669e-07
-3.39143e-06
-7.09713e-07
-2.70617e-06
-6.85267e-07
-6.72521e-07
-2.03365e-06
2.18949e-07
-1.02592e-07
6.42161e-07
-5.62769e-07
1.02139e-06
-6.59884e-07
1.2987e-06
-5.61817e-07
1.46589e-06
-3.66331e-07
1.53322e-06
-1.30619e-07
1.49757e-06
1.22124e-07
1.38226e-06
3.71861e-07
1.11991e-06
5.88424e-07
6.79135e-07
6.64344e-07
3.22528e-07
5.14615e-07
1.46055e-07
3.06945e-07
9.52545e-08
1.07429e-07
1.62288e-07
-1.42331e-07
2.25318e-07
-1.95185e-07
1.1592e-07
-1.20809e-08
-1.26181e-07
1.44853e-07
-4.70961e-07
2.96907e-07
-9.09891e-07
4.03882e-07
-1.39847e-06
5.40347e-07
-1.9401e-06
7.28904e-07
-2.54471e-06
8.99392e-07
-3.21523e-06
1.0524e-06
-3.91177e-06
1.17021e-06
-4.58925e-06
1.25292e-06
-5.22893e-06
1.29789e-06
-5.82632e-06
1.30161e-06
-6.38363e-06
1.2663e-06
-6.90262e-06
1.20355e-06
-7.37104e-06
1.12724e-06
-7.76766e-06
1.04373e-06
-8.08145e-06
9.49644e-07
-8.32238e-06
8.37555e-07
-8.51643e-06
7.0415e-07
-8.68902e-06
5.5649e-07
-8.84832e-06
4.08387e-07
-8.98013e-06
2.68846e-07
-9.05503e-06
1.33771e-07
-9.04465e-06
-6.35539e-09
-8.9473e-06
-1.48239e-07
-8.77001e-06
-2.91275e-07
-8.52401e-06
-4.30894e-07
-8.22065e-06
-5.6416e-07
-7.86718e-06
-6.88816e-07
-7.46468e-06
-8.03394e-07
-7.01142e-06
-9.06946e-07
-6.50523e-06
-9.99986e-07
-5.94533e-06
-1.08549e-06
-5.33299e-06
-1.16948e-06
-4.67024e-06
-1.26061e-06
-3.95899e-06
-1.36788e-06
-3.20286e-06
-1.49738e-06
-2.41294e-06
-1.64362e-06
-1.60442e-06
-1.77719e-06
-7.7238e-07
-1.83984e-06
6.47557e-08
-1.74079e-06
8.44503e-07
-1.5529e-06
1.59734e-06
-1.44724e-06
2.28443e-06
-1.2736e-06
2.86614e-06
-1.04226e-06
3.31592e-06
-7.51399e-07
3.69715e-06
-4.11211e-07
3.96456e-06
7.0724e-08
3.75056e-06
7.71945e-07
2.99904e-06
1.27939e-06
2.12503e-06
1.3582e-06
1.33244e-06
1.4603e-06
4.08784e-07
1.67934e-06
-5.60333e-07
1.55227e-06
-1.32943e-06
1.15889e-06
-1.58164e-06
3.57556e-07
-1.16333e-06
-9.34724e-07
-9.53878e-08
-2.30166e-06
1.26843e-06
-2.74847e-06
2.3239e-06
-1.86699e-06
2.95182e-06
-7.41261e-07
3.19809e-06
1.09383e-07
2.8664e-06
6.75237e-07
1.55146e-06
1.38008e-06
-7.33308e-07
2.51624e-06
-3.19114e-06
3.44996e-06
-4.95025e-06
3.76656e-06
-6.22171e-06
3.44279e-06
-7.27882e-06
2.92011e-06
-8.15027e-06
2.40932e-06
-8.86651e-06
1.95951e-06
-9.45179e-06
1.58044e-06
-9.93387e-06
1.2729e-06
-1.03284e-05
1.01836e-06
-1.0643e-05
7.99399e-07
-1.08837e-05
6.05797e-07
-1.1054e-05
4.29255e-07
-1.11561e-05
2.64634e-07
-1.11919e-05
1.09934e-07
-1.11603e-05
-3.87061e-08
-1.10603e-05
-1.78456e-07
-1.08982e-05
-3.07779e-07
-1.06762e-05
-4.29225e-07
-1.03992e-05
-5.40576e-07
-1.00721e-05
-6.41224e-07
-9.70044e-06
-7.30801e-07
-9.28991e-06
-8.09138e-07
-8.84608e-06
-8.76212e-07
-8.37469e-06
-9.31913e-07
-7.88148e-06
-9.7614e-07
-7.3722e-06
-1.00906e-06
-6.85228e-06
-1.03125e-06
-6.32669e-06
-1.04364e-06
-5.79971e-06
-1.04762e-06
-5.2746e-06
-1.04507e-06
-4.7536e-06
-1.03813e-06
-4.2377e-06
-1.02942e-06
-3.72596e-06
-1.02243e-06
-3.21576e-06
-1.02026e-06
-2.70349e-06
-1.02488e-06
-2.18553e-06
-1.03632e-06
-1.65918e-06
-1.05289e-06
-1.12385e-06
-1.07073e-06
-5.82693e-07
-1.08247e-06
-4.24333e-08
-1.08186e-06
4.89088e-07
-1.06531e-06
1.00133e-06
-1.03087e-06
1.48738e-06
-9.80274e-07
1.94138e-06
-9.17463e-07
2.35998e-06
-8.46948e-07
2.74191e-06
-7.72728e-07
3.08745e-06
-6.97765e-07
3.39785e-06
-6.23844e-07
3.67378e-06
-5.51242e-07
3.91531e-06
-4.79717e-07
4.1248e-06
-4.0945e-07
4.30149e-06
-3.38552e-07
4.43948e-06
-2.66072e-07
4.54433e-06
-1.94425e-07
4.61575e-06
-1.1993e-07
4.64199e-06
-4.80275e-08
4.64585e-06
1.49958e-08
4.62086e-06
8.71645e-08
4.54194e-06
1.38507e-07
4.4671e-06
1.74325e-07
4.36225e-06
2.49785e-07
4.20042e-06
2.47596e-07
4.09652e-06
2.67131e-07
3.94093e-06
4.05844e-07
3.73952e-06
3.29707e-07
3.72447e-06
5.20947e-07
3.71628e-06
1.14821e-06
3.44414e-06
1.27832e-06
2.93481e-06
9.64028e-07
2.31833e-06
7.3671e-07
1.75744e-06
6.1601e-07
1.35389e-06
5.40947e-07
1.12412e-06
4.1123e-07
1.0501e-06
1.93072e-07
1.10504e-06
-9.11049e-08
1.23899e-06
-3.18896e-07
1.41066e-06
-4.36283e-07
1.55705e-06
-4.60204e-07
1.65094e-06
-4.15546e-07
1.71901e-06
-2.61971e-07
1.76066e-06
-2.61871e-07
1.8756e-06
-4.53032e-07
2.0225e-06
-2.09183e-07
2.15197e-06
-1.26305e-07
2.31596e-06
-6.39933e-07
2.08546e-06
-2.04525e-07
9.26426e-07
1.5919e-06
-9.30581e-07
3.28428e-06
-2.6823e-06
3.63526e-06
-4.01027e-06
3.0428e-06
-4.96009e-06
2.24026e-06
-5.54498e-06
1.40887e-06
-5.78061e-06
6.09183e-07
-5.69021e-06
-1.10696e-07
-5.31927e-06
-7.03368e-07
-4.73819e-06
-1.13095e-06
-4.03706e-06
-1.37179e-06
-3.29376e-06
-1.45302e-06
-2.56325e-06
-1.41578e-06
-1.35056e-06
-1.88521e-06
5.90193e-07
-6.92785e-07
1.1243e-06
-1.09688e-06
1.46487e-06
-1.00045e-06
1.64506e-06
-7.4201e-07
1.71087e-06
-4.32136e-07
1.688e-06
-1.07756e-07
1.58727e-06
2.22857e-07
1.44442e-06
5.14712e-07
1.26179e-06
7.71054e-07
9.93435e-07
9.32698e-07
6.57217e-07
8.50834e-07
3.74517e-07
5.89645e-07
2.59758e-07
2.22187e-07
1.22019e-07
-4.59188e-09
-2.29028e-07
1.55862e-07
-6.8303e-07
4.4192e-07
-1.14569e-06
6.07513e-07
-1.6257e-06
7.76919e-07
-2.22879e-06
1.00697e-06
-2.92166e-06
1.23321e-06
-3.63494e-06
1.44219e-06
-4.32517e-06
1.58962e-06
-4.96072e-06
1.68795e-06
-5.53366e-06
1.74315e-06
-6.04685e-06
1.76611e-06
-6.50817e-06
1.75921e-06
-6.9303e-06
1.72374e-06
-7.32709e-06
1.66309e-06
-7.70599e-06
1.58245e-06
-8.06466e-06
1.48591e-06
-8.39434e-06
1.37341e-06
-8.68677e-06
1.24208e-06
-8.93854e-06
1.08932e-06
-9.15069e-06
9.16303e-07
-9.32219e-06
7.27988e-07
-9.44448e-06
5.30681e-07
-9.50442e-06
3.28781e-07
-9.49597e-06
1.25324e-07
-9.42298e-06
-7.93425e-08
-9.28728e-06
-2.83939e-07
-9.0933e-06
-4.85263e-07
-8.84168e-06
-6.82515e-07
-8.53282e-06
-8.73012e-07
-8.16831e-06
-1.05333e-06
-7.75165e-06
-1.22005e-06
-7.28783e-06
-1.37077e-06
-6.78268e-06
-1.50514e-06
-6.24246e-06
-1.6257e-06
-5.67331e-06
-1.73864e-06
-5.08132e-06
-1.8526e-06
-4.474e-06
-1.97519e-06
-3.86183e-06
-2.10954e-06
-3.25243e-06
-2.25303e-06
-2.63609e-06
-2.39352e-06
-1.98481e-06
-2.49112e-06
-1.24868e-06
-2.47692e-06
-4.73424e-07
-2.32815e-06
2.84875e-07
-2.20554e-06
1.01015e-06
-1.99887e-06
1.70528e-06
-1.7374e-06
2.39267e-06
-1.43878e-06
3.03002e-06
-1.04856e-06
3.60149e-06
-5.00743e-07
4.07617e-06
2.9726e-07
4.13526e-06
1.2203e-06
3.52737e-06
1.9661e-06
2.56799e-06
2.41968e-06
1.61381e-06
2.63353e-06
6.74335e-07
2.49174e-06
-1.43532e-07
1.97676e-06
-6.13393e-07
8.27418e-07
-6.66856e-07
-8.81261e-07
-2.84568e-07
-2.68395e-06
5.3022e-07
-3.56326e-06
1.26478e-06
-2.60155e-06
1.43505e-06
-9.11534e-07
9.15011e-07
6.29421e-07
-4.42148e-07
2.0324e-06
-2.37341e-06
3.31134e-06
-4.1601e-06
4.30294e-06
-5.42237e-06
4.71222e-06
-6.17612e-06
4.52032e-06
-6.73265e-06
3.99932e-06
-7.28091e-06
3.46837e-06
-7.84051e-06
2.96893e-06
-8.39165e-06
2.51065e-06
-8.90803e-06
2.09682e-06
-9.36563e-06
1.73051e-06
-9.75541e-06
1.40813e-06
-1.00762e-05
1.1202e-06
-1.03273e-05
8.56885e-07
-1.0508e-05
6.09968e-07
-1.06182e-05
3.74803e-07
-1.06546e-05
1.46395e-07
-1.06229e-05
-7.04691e-08
-1.05265e-05
-2.7482e-07
-1.03643e-05
-4.70008e-07
-1.01417e-05
-6.51827e-07
-9.86374e-06
-8.18522e-07
-9.53544e-06
-9.69517e-07
-9.1619e-06
-1.10434e-06
-8.74834e-06
-1.2227e-06
-8.30007e-06
-1.32448e-06
-7.82251e-06
-1.40948e-06
-7.32123e-06
-1.47741e-06
-6.80195e-06
-1.52834e-06
-6.27032e-06
-1.56288e-06
-5.73185e-06
-1.58211e-06
-5.1917e-06
-1.58777e-06
-4.65425e-06
-1.58251e-06
-4.12274e-06
-1.56964e-06
-3.59883e-06
-1.55333e-06
-3.08184e-06
-1.53942e-06
-2.56866e-06
-1.53344e-06
-2.05431e-06
-1.53923e-06
-1.53292e-06
-1.55772e-06
-9.99583e-07
-1.58622e-06
-4.54206e-07
-1.61611e-06
9.96209e-08
-1.6363e-06
6.51993e-07
-1.63423e-06
1.1912e-06
-1.60452e-06
1.7048e-06
-1.54447e-06
2.18198e-06
-1.45746e-06
2.61533e-06
-1.3508e-06
3.00152e-06
-1.23315e-06
3.34099e-06
-1.1122e-06
3.63664e-06
-9.93413e-07
3.89257e-06
-8.79776e-07
4.11353e-06
-7.72199e-07
4.30354e-06
-6.69727e-07
4.46511e-06
-5.71016e-07
4.60168e-06
-4.75127e-07
4.7154e-06
-3.79787e-07
4.80468e-06
-2.83712e-07
4.86967e-06
-1.84913e-07
4.90475e-06
-8.31139e-08
4.90634e-06
1.34047e-08
4.8799e-06
1.13611e-07
4.81277e-06
2.05638e-07
4.7147e-06
2.72392e-07
4.60378e-06
3.607e-07
4.44585e-06
4.05528e-07
4.28325e-06
4.29737e-07
4.12318e-06
5.65905e-07
3.89593e-06
5.56958e-07
3.82931e-06
5.87576e-07
4.01326e-06
9.64253e-07
4.16794e-06
1.12364e-06
4.20247e-06
9.29493e-07
4.15196e-06
7.87223e-07
4.02786e-06
7.40109e-07
3.87921e-06
6.89592e-07
3.75136e-06
5.39086e-07
3.67354e-06
2.70888e-07
3.65377e-06
-7.13383e-08
3.66271e-06
-3.27834e-07
3.66767e-06
-4.4124e-07
3.64926e-06
-4.41792e-07
3.56437e-06
-3.30655e-07
3.39346e-06
-9.1059e-08
3.05953e-06
7.20553e-08
2.64878e-06
-4.22832e-08
2.42963e-06
9.97157e-09
2.40387e-06
-1.00544e-07
2.24191e-06
-4.7798e-07
1.48937e-06
5.48015e-07
3.31767e-08
3.04809e-06
-1.60745e-06
4.92491e-06
-2.93003e-06
4.95784e-06
-4.02748e-06
4.14025e-06
-4.90223e-06
3.115e-06
-5.47267e-06
1.97932e-06
-5.69867e-06
8.35186e-07
-5.5921e-06
-2.17272e-07
-5.20728e-06
-1.08818e-06
-4.62088e-06
-1.71735e-06
-3.91912e-06
-2.07356e-06
-3.171e-06
-2.20113e-06
-2.42142e-06
-2.16536e-06
-2.0426e-06
-1.72938e-06
5.43402e-07
-1.23619e-06
8.54809e-07
-1.40828e-06
9.72295e-07
-1.11794e-06
1.0051e-06
-7.74813e-07
9.87971e-07
-4.1501e-07
9.50762e-07
-7.0547e-08
8.75141e-07
2.98478e-07
7.49467e-07
6.40385e-07
5.99319e-07
9.21202e-07
4.26032e-07
1.10599e-06
2.25486e-07
1.05138e-06
8.18904e-08
7.33241e-07
-6.54141e-08
3.69492e-07
-4.82507e-07
4.12501e-07
-1.05411e-06
7.27469e-07
-1.57208e-06
9.59889e-07
-2.14914e-06
1.18457e-06
-2.8203e-06
1.44808e-06
-3.50665e-06
1.69332e-06
-4.17278e-06
1.89934e-06
-4.77891e-06
2.04833e-06
-5.3197e-06
2.13041e-06
-5.79936e-06
2.16761e-06
-6.22996e-06
2.17375e-06
-6.62542e-06
2.16158e-06
-6.99861e-06
2.1324e-06
-7.36058e-06
2.08571e-06
-7.71631e-06
2.01882e-06
-8.06351e-06
1.92966e-06
-8.3947e-06
1.8171e-06
-8.70128e-06
1.68e-06
-8.97698e-06
1.51778e-06
-9.21844e-06
1.33077e-06
-9.42325e-06
1.12112e-06
-9.5876e-06
8.92332e-07
-9.70526e-06
6.48347e-07
-9.76872e-06
3.92238e-07
-9.77047e-06
1.27071e-07
-9.70704e-06
-1.4277e-07
-9.57752e-06
-4.13456e-07
-9.38154e-06
-6.81244e-07
-9.12159e-06
-9.42465e-07
-8.80171e-06
-1.19289e-06
-8.42669e-06
-1.42835e-06
-8.00195e-06
-1.64479e-06
-7.53421e-06
-1.83851e-06
-7.03237e-06
-2.00698e-06
-6.50757e-06
-2.1505e-06
-5.97258e-06
-2.27363e-06
-5.43919e-06
-2.38599e-06
-4.91486e-06
-2.49953e-06
-4.39995e-06
-2.62445e-06
-3.88679e-06
-2.76619e-06
-3.36443e-06
-2.91587e-06
-2.81169e-06
-3.04386e-06
-2.18307e-06
-3.10554e-06
-1.46986e-06
-3.04137e-06
-7.86408e-07
-2.88899e-06
-1.29806e-07
-2.65548e-06
4.90851e-07
-2.35806e-06
1.14221e-06
-2.09015e-06
1.87733e-06
-1.78368e-06
2.67623e-06
-1.29964e-06
3.54107e-06
-5.67581e-07
4.3629e-06
3.98463e-07
4.85892e-06
1.47008e-06
4.8511e-06
2.4275e-06
4.41281e-06
3.07182e-06
3.69722e-06
3.20734e-06
2.90262e-06
2.77135e-06
2.04425e-06
1.68579e-06
1.11555e-06
4.74431e-08
3.85143e-07
-1.95355e-06
-2.87717e-08
-3.14935e-06
-3.23335e-07
-2.30698e-06
-1.01583e-06
-2.19044e-07
-2.03378e-06
1.64738e-06
-3.31167e-06
3.31029e-06
-4.54339e-06
4.54306e-06
-5.39476e-06
5.15431e-06
-5.85679e-06
5.17426e-06
-6.18132e-06
4.84485e-06
-6.59819e-06
4.4162e-06
-7.10426e-06
3.97443e-06
-7.6322e-06
3.49688e-06
-8.12655e-06
3.005e-06
-8.56527e-06
2.53553e-06
-8.94627e-06
2.11151e-06
-9.27295e-06
1.73482e-06
-9.5495e-06
1.39674e-06
-9.77491e-06
1.0823e-06
-9.94451e-06
7.7957e-07
-1.00523e-05
4.82623e-07
-1.00948e-05
1.88873e-07
-1.00734e-05
-9.19011e-08
-9.98204e-06
-3.66163e-07
-9.82459e-06
-6.2746e-07
-9.60812e-06
-8.68291e-07
-9.33838e-06
-1.08826e-06
-9.02059e-06
-1.28731e-06
-8.65988e-06
-1.46505e-06
-8.26165e-06
-1.62093e-06
-7.83132e-06
-1.7548e-06
-7.37427e-06
-1.86653e-06
-6.89584e-06
-1.95585e-06
-6.40084e-06
-2.02334e-06
-5.8933e-06
-2.07042e-06
-5.37653e-06
-2.09888e-06
-4.85389e-06
-2.11041e-06
-4.3291e-06
-2.1073e-06
-3.80572e-06
-2.09303e-06
-3.28656e-06
-2.07249e-06
-2.7721e-06
-2.05389e-06
-2.25917e-06
-2.04637e-06
-1.74156e-06
-2.05684e-06
-1.21046e-06