/*--------------------------------*- C++ -*----------------------------------*\
| =========                 |                                                 |
| \\      /  F ield         | OpenFOAM: The Open Source CFD Toolbox           |
|  \\    /   O peration     | Version:  2112                                  |
|   \\  /    A nd           | Website:  www.openfoam.com                      |
|    \\/     M anipulation  |                                                 |
\*---------------------------------------------------------------------------*/
FoamFile
{
    version     2.0;
    format      ascii;
    arch        "LSB;label=32;scalar=64";
    class       volScalarField;
    location    "0.5";
    object      ddt0(kU);
}
// * * * * * * * * * * * * * * * * * * * * * * * * * * * * * * * * * * * * * //

dimensions      [0 2 -3 0 0 0 0];

internalField   nonuniform List<scalar> 
12225
(
-0.000149145
-0.0046694
-0.0227152
-0.0640393
-0.138247
-0.255423
-0.427967
-0.671193
-1.00535
-1.45711
-2.06076
-2.86052
-3.91164
-5.28835
-7.09398
-9.46394
-12.5786
-16.636
0.00320982
0.0153182
0.0373008
0.0700169
0.114788
0.1751
0.257376
0.369868
0.526548
0.745056
1.04894
1.46948
2.04842
2.84584
3.93841
5.42324
7.47906
10.7522
-5.03744e-05
0.00131621
0.00486308
0.00810851
0.0156
0.0296763
0.0529359
0.0884573
0.140879
0.215828
0.32105
0.466745
0.666524
0.940303
1.31642
1.83496
2.56298
3.64203
-0.000334242
-0.00172358
-0.00173744
-0.0013315
-0.000370173
0.000759809
0.00267652
0.00579973
0.00434782
0.00535589
0.00979582
0.0192844
0.0361532
0.0642881
0.109359
0.179879
0.289553
0.457
-3.59574e-05
-0.00191876
-0.00475598
-0.0081241
-0.0117322
-0.0126862
-0.0138752
-0.0155648
-0.0176697
-0.0200808
-0.022854
-0.0261485
-0.0301712
-0.035347
-0.0519503
-0.0698894
-0.0893548
-0.107933
0.000206644
-0.0014575
-0.00444482
-0.00833522
-0.0131313
-0.0184104
-0.0241844
-0.0268754
-0.0302214
-0.0340974
-0.0385181
-0.043598
-0.0495911
-0.0571123
-0.0789828
-0.102986
-0.130198
-0.142766
0.000394433
-0.000812939
-0.00350211
-0.00736697
-0.0124542
-0.0185823
-0.025527
-0.0328337
-0.0407525
-0.0493826
-0.0587583
-0.0689659
-0.0802351
-0.0930821
-0.109564
-0.129008
-0.150857
-0.158881
0.00051555
-0.000298845
-0.00253659
-0.00599138
-0.0107518
-0.0168693
-0.0241598
-0.0321496
-0.040869
-0.050363
-0.0606548
-0.0718175
-0.0840761
-0.0976641
-0.113425
-0.131291
-0.150819
-0.158698
0.00059043
8.3961e-05
-0.00174152
-0.00474998
-0.00900298
-0.0145695
-0.0213937
-0.0293439
-0.0382761
-0.0480976
-0.0587801
-0.0703612
-0.0829753
-0.0966998
-0.111704
-0.128317
-0.146302
-0.162316
0.000631143
0.000369061
-0.00108525
-0.00366117
-0.00738585
-0.0123203
-0.0184444
-0.0256656
-0.0338795
-0.0430139
-0.0530335
-0.0639432
-0.0757982
-0.088654
-0.102555
-0.117735
-0.134561
-0.15164
0.000643606
0.000569172
-0.000555998
-0.00272052
-0.00592953
-0.0102268
-0.0155964
-0.0219606
-0.0292391
-0.0373721
-0.0463187
-0.0560612
-0.0666125
-0.0780058
-0.0902949
-0.103553
-0.11823
-0.134092
0.000634505
0.000689319
-0.000171103
-0.0019789
-0.00472983
-0.00845021
-0.0131228
-0.0186787
-0.0250419
-0.0321501
-0.0399541
-0.0484205
-0.0575378
-0.0673176
-0.0778033
-0.0890539
-0.101368
-0.114877
0.000608133
0.000751931
0.000115322
-0.00136412
-0.0036821
-0.00685075
-0.0108506
-0.0156179
-0.0210767
-0.0271598
-0.0338098
-0.0409809
-0.0486437
-0.05679
-0.0654427
-0.0746479
-0.0845581
-0.0953026
0.00055882
0.000760872
0.000330871
-0.000812269
-0.00266927
-0.00523983
-0.00850056
-0.0123918
-0.0168388
-0.0217698
-0.02712
-0.0328332
-0.0388647
-0.0451872
-0.0517978
-0.0587128
-0.0659979
-0.0737034
0.000481323
0.000703456
0.000447801
-0.000368928
-0.00175227
-0.00369267
-0.00616241
-0.00910598
-0.0124522
-0.0161278
-0.0200638
-0.0241986
-0.0284772
-0.0328583
-0.0373168
-0.0418418
-0.046441
-0.0510656
0.000370604
0.000567985
0.000440748
-7.82717e-05
-0.000994806
-0.0022934
-0.00394313
-0.00589354
-0.00808002
-0.0104338
-0.0128903
-0.0153878
-0.017869
-0.020287
-0.0225764
-0.0246721
-0.02663
-0.0284839
0.000223777
0.000350509
0.000300264
3.6475e-05
-0.000440062
-0.0011104
-0.0019434
-0.00289659
-0.00391862
-0.00494768
-0.00591378
-0.00678508
-0.00751764
-0.00807108
-0.00844137
-0.00864396
-0.00860084
-0.00832156
4.15974e-05
5.8033e-05
4.2041e-05
-4.16708e-06
-6.86535e-05
-0.000131768
-0.000168546
-0.00014937
-4.28148e-05
0.000175897
0.000524112
0.00104388
0.00175372
0.00266431
0.00378301
0.00510928
0.00664529
0.00836875
-0.000162197
-0.000275405
-0.000275136
-0.000121304
0.000205769
0.00071902
0.00142781
0.00233566
0.00344021
0.00473528
0.0062111
0.00785353
0.00964507
0.0115635
0.0135842
0.0156791
0.0178267
0.0199869
-0.000321774
-0.000518363
-0.000464968
-0.000101542
0.000584028
0.00158896
0.00290101
0.00449359
0.00632825
0.00836044
0.0105426
0.0128253
0.0151564
0.0174832
0.0197554
0.0219243
0.0239521
0.0257919
-0.000413596
-0.000623654
-0.000461373
0.000128258
0.00113542
0.00254015
0.004311
0.00639447
0.00872173
0.0112188
0.0138098
0.0164176
0.0189656
0.0213804
0.0235952
0.0255515
0.0272051
0.0285112
-0.000461494
-0.000625904
-0.000296719
0.000548859
0.00187098
0.00363737
0.00580127
0.00828595
0.0109989
0.013844
0.0167233
0.0195371
0.0221892
0.0245892
0.0266569
0.0283263
0.0295514
0.0302926
-0.000470314
-0.000524558
3.16673e-05
0.001161
0.00279914
0.00491075
0.00743292
0.0102659
0.0132995
0.0164225
0.0195198
0.0224734
0.0251745
0.0275226
0.0294253
0.0308084
0.0316247
0.0318422
-0.000440895
-0.00031166
0.000525813
0.0019481
0.00389419
0.00634761
0.00923293
0.0124267
0.0157989
0.0192177
0.0225419
0.0256264
0.0283406
0.0305524
0.0321744
0.0331459
0.03344
0.0330419
-0.000369492
4.18682e-05
0.00125496
0.00302345
0.005261
0.00794032
0.0109743
0.0142437
0.0176307
0.0210104
0.0242388
0.0271647
0.029654
0.0314897
0.0326491
0.0331131
0.0328801
0.0319489
-0.000242947
0.000488429
0.00205381
0.00413202
0.00656719
0.00928799
0.0121383
0.0149758
0.0176818
0.0201388
0.0222339
0.0238474
0.0248331
0.0230711
0.0211476
0.0191441
0.0170305
0.0148019
-1.88619e-05
0.000806373
0.00192324
0.00304044
0.00305237
0.00290986
0.0025717
0.00206418
0.00143269
0.000713152
-7.88635e-05
-0.000957047
-0.00194935
-0.00290351
-0.00413614
-0.00239263
-0.00171943
-0.00202411
0.000215768
3.89127e-05
-0.000989815
-0.00296607
-0.00564296
-0.00596956
-0.0077741
-0.0114338
-0.0173368
-0.0258223
-0.0371679
-0.0515776
-0.0690874
-0.0895611
-0.112933
-0.139031
-0.167149
-0.196654
-0.00163288
-0.00805017
-0.0195732
-0.0352612
-0.0539006
-0.0748921
-0.0975211
-0.121921
-0.148966
-0.179545
-0.214757
-0.255672
-0.302974
-0.357033
-0.418352
-0.486933
-0.561053
-0.638346
-7.61176e-05
0.0019648
0.0110163
0.0328859
0.0715677
0.128751
0.205159
0.300649
0.404021
0.521865
0.657529
0.815007
0.997881
1.20835
1.44734
1.71488
2.00907
2.32696
-3.26212
-3.51904
-3.77652
-3.96479
-3.95809
-3.67121
-3.47149
-2.8097
-1.94767
-0.972315
0.0340915
0.998389
1.84977
2.5093
2.8786
2.82346
2.1546
0.648646
-1.51685
-0.606853
0.548537
1.81884
3.52303
7.02718
14.7978
29.5056
52.0898
77.0379
97.0559
111.776
121.268
121.908
113.687
99.06
81.6477
64.6138
50.1208
39.4936
33.6507
33.6935
40.2851
48.9255
55.1548
56.2813
48.8854
30.5623
-37.8503
-144.413
-281.792
-444.599
-630.535
-696.739
-609.039
-545.139
-439.402
-303.383
-149.914
10.2381
168.013
312.692
429.752
520.409
561.912
592.816
614.027
627.144
635.12
640.899
645.461
626.138
609.167
593.338
577.883
562.452
546.637
530.192
513.402
494.958
474.985
453.384
430.033
404.779
377.412
347.586
314.686
277.636
234.489
181.962
116.062
19.8865
-68.3012
-109.867
-119.929
-140.567
-163.135
-190.324
-225.703
-272.342
-333.858
-409.798
-489.846
-530.155
-418.331
-287.773
-152.915
-3.99125
154.077
305.223
431.233
527.004
608.912
703.341
821.422
932.149
964.699
840.619
515.875
-344.662
-1464.48
-2418.89
-2271.3
-2080.16
-1638.46
-1056.95
-452.291
159.075
411.568
606.89
764.983
885.277
891.34
857.29
815.818
764.483
701.364
627.277
541.088
436.891
295.403
76.8485
-422.324
-524.504
-666.264
-789.479
-905.374
-1016.84
-1135.8
-1257.82
-1383.24
-1515
-1650.87
-1781.17
-1874.93
-1629.76
-1157.19
-577.752
111.298
865.476
1614.55
2271.53
2756.52
3025.77
3088.31
2999.83
2837.97
2675.28
2558.54
2497.71
2468.3
2428.63
2341.57
2187.15
1963.82
1684.94
1373.57
1057.74
764.051
510.962
303.629
154.056
-16.2763
-14.6884
-13.1146
-11.6144
-10.0943
-8.54536
-6.97052
-5.40149
-3.8889
-2.46837
-1.15835
0.0313697
1.09279
2.01561
2.78417
3.37454
3.75194
3.85923
3.41985
-0.644754
-5.30961
-10.1752
-14.8742
-18.8742
-21.225
-21.1034
-18.834
-15.3696
-11.1154
-6.54469
-2.68186
2.06806
6.48011
9.98134
10.1599
4.94944
-5.15763
-18.9017
-36.3288
-60.2001
-103.613
-144.392
-182.767
-225.802
-274.803
-323.755
-368.04
-304.54
-209.554
-145.12
-75.4861
4.02578
80.9186
149.743
210.653
260.442
296.602
317.604
322.97
313.287
290.141
256.645
216.942
174.19
130.748
89.404
52.1129
18.7392
-12.4369
-14.0703
-14.0133
-12.6581
-9.91397
-5.66651
0.323324
8.59821
12.0772
16.7694
22.6334
29.8279
38.384
48.2614
59.2814
71.0967
83.1799
94.8709
105.483
114.422
121.279
126.09
113.641
113.081
112.577
113.34
116.924
124.199
137.953
151.161
163.588
170.979
163.731
119.149
-28.2448
-125.805
-134.715
-87.7782
-5.2859
85.8884
146.126
135.833
44.1705
-99.6308
-247.049
-385.283
-541.524
-742.541
-961.465
-1099.19
-917.593
-384.927
-7.48306
290.264
503.707
620.854
644.187
592.944
480.712
339.554
177.542
11.6408
-29.4588
-31.0173
-29.1666
-25.036
-16.2837
-1.65057
9.33765
12.6475
14.984
15.9598
22.7008
28.7209
28.9948
27.4824
27.5311
31.0927
48.8015
58.9631
64.4104
66.2696
64.183
55.8708
28.4762
-201.811
-481.636
-630.451
-664.617
-598.911
-449.927
-246.737
-26.1021
180.635
354.979
486.37
570.309
611.195
628.605
650.448
693.385
750.899
800.33
818.384
791.888
720.789
614.908
492.738
374.463
273.574
192.604
125.825
-24.7701
-19.6157
-15.3105
-11.7042
-8.63611
-6.04571
-3.89599
-2.13632
-0.720999
0.395505
1.26097
1.92084
2.41302
2.76466
2.99094
3.09582
3.07571
2.92553
2.62287
2.08002
1.05838
-0.776284
-3.58915
-7.37747
-11.8856
-16.667
-21.281
-25.3328
-28.4736
-30.553
-31.4461
-29.8176
-22.2638
-12.8578
-12.361
-25.2676
-47.1275
-74.5675
-112.473
-160.11
-180.016
-213.93
-254.517
-259.497
-182.123
-121.765
-52.0616
25.3626
87.8045
136.446
173.653
200.709
217.012
223.656
221.156
209.708
189.953
163.228
131.683
98.0812
65.2784
35.6399
10.8614
-8.43807
-22.2804
-31.1826
-35.9724
-37.6629
-37.5253
-37.1735
-36.7312
-36.3836
-36.1266
-35.8498
-35.2176
-33.1835
-33.6078
-33.1184
-31.217
-27.3556
-21.0519
-11.9161
0.2429
15.32
32.817
51.7728
70.776
88.1665
102.086
110.549
97.9943
94.8388
89.3564
82.6577
76.6633
73.465
75.0018
82.6921
97.2986
119.41
147.952
177.593
200.093
197.817
150.391
94.734
55.6145
33.8494
12.6345
-37.5675
-142.068
-304.159
-507.787
-731.61
-938.491
-1042.17
-915.72
-477.304
102.917
397.171
533.703
556.757
500.395
396.36
275.29
160.181
66.5885
-0.00383979
-41.0476
-61.698
-71.6433
-78.7267
-79.8433
-70.8214
-74.6424
-75.917
-74.8741
-70.7248
-62.3054
-48.8731
-40.2274
-32.2981
-27.0676
-22.6208
-18.0704
-13.1161
-6.87945
0.223594
8.20784
17.2441
27.3246
38.2771
50.0689
60.5071
40.3704
-8.9653
-79.3669
-150.019
-200.528
-216.657
-192.272
-126.818
-24.755
101.598
228.966
330.685
392.682
423.735
444.699
467.907
489.293
496.481
479.864
437.581
375.659
305.763
239.746
184.031
138.568
99.3961
-19.0777
-12.4398
-7.0484
-2.98197
0.0707569
2.28665
3.80525
4.75821
5.27091
5.45976
5.42833
5.26355
5.03262
4.78096
4.53107
4.28248
4.0133
3.68393
3.23946
2.63716
1.78828
0.724398
-0.76107
-2.95538
-6.1645
-10.5904
-16.2303
-22.8479
-30.005
-37.0821
-42.8207
-43.7117
-37.0093
-31.7301
-49.1341
-80.452
-109.863
-137.36
-143.493
-149.81
-132.972
-124.198
-97.9811
-49.6033
9.68079
65.4694
112.729
147.704
167.832
176.171
175.408
167.721
154.497
136.973
116.112
93.1245
69.6556
47.5488
28.3965
13.1555
2.05283
-5.23461
-9.32674
-10.944
-10.7506
-9.31862
-7.13486
-4.58048
-1.78254
0.173108
0.955183
0.337218
-1.83675
-5.52546
-10.4896
-17.7703
-26.0923
-34.776
-43.0167
-49.8476
-54.1084
-54.5455
-49.9839
-39.5108
-22.7104
-0.0168128
26.8342
54.9701
80.4986
98.1834
94.2686
94.244
89.0487
79.5341
67.2272
54.3423
43.573
37.2158
37.3314
46.7129
67.7631
101.505
143.178
183.378
208.404
194.133
146.422
79.9794
-3.01826
-115.108
-272.106
-474.468
-701.139
-910.702
-1019.77
-891.1
-429.715
188.902
477.288
543.298
494.915
388.756
267.024
157.795
73.883
15.4207
-22.9497
-48.0506
-65.2053
-79.3308
-93.5207
-104.476
-107.069
-118.133
-126.404
-130.64
-130.398
-125.128
-115.029
-105.392
-96.1941
-89.1084
-84.2184
-80.6719
-77.8602
-75.3308
-72.6156
-69.6623
-66.2844
-62.1119
-55.8762
-47.7156
-35.3101
-17.8504
2.24239
21.7004
27.4494
14.4973
-15.7993
-55.8749
-93.6175
-114.378
-102.677
-47.0085
50.3417
168.651
276.341
350.582
389.183
401.834
397.188
378.545
347.014
304.736
256.361
208.166
165.359
129.582
99.8906
74.391
-2.30526
0.201445
4.13567
6.98788
8.75852
9.58349
9.64443
9.1408
8.26758
7.20081
6.08966
5.05242
4.17596
3.5147
3.09076
2.89261
2.87368
2.95173
3.00554
2.75639
2.2084
1.36928
0.216624
-1.38282
-3.72238
-7.22761
-12.3331
-19.2893
-27.9667
-37.4535
-45.6103
-45.2817
-39.097
-61.3868
-100.604
-110.691
-101.53
-76.0129
-74.9851
-65.6061
-46.4955
-19.319
15.4692
53.7809
88.4597
114.425
129.599
134.26
130.229
120.316
106.732
91.0994
74.6226
58.4402
43.6993
31.497
22.5855
17.1252
14.7205
14.7144
16.4913
19.5998
23.7179
28.5719
33.8737
39.2923
44.4607
50.2618
55.1731
59.1513
61.8569
62.8058
61.4743
57.5185
50.4894
40.585
27.718
12.1089
-5.70237
-24.7345
-43.4931
-59.9573
-71.8234
-76.657
-72.1267
-56.588
-30.3261
4.43598
42.3041
72.4766
84.3063
93.7606
95.6116
90.298
78.8037
62.8945
45.2258
28.5159
14.967
7.65265
12.9784
34.6402
72.1144
118.894
162.606
187.308
165.015
99.4825
-8.20704
-162.327
-366.887
-607.454
-837.303
-976.99
-915.486
-546.302
80.4125
480.235
533.797
461.653
339.622
216.897
119.964
54.4493
12.9852
-14.4937
-34.9356
-51.6557
-66.2754
-84.495
-99.1289
-108.719
-124.241
-137.765
-147.819
-152.716
-151.161
-142.936
-131.827
-119.533
-108.22
-99.319
-93.3151
-89.7892
-88.0953
-87.6379
-88.0595
-89.2403
-91.1798
-93.9267
-96.7916
-101.708
-106.538
-107.496
-99.7634
-75.4492
-42.6909
-10.4333
11.6959
16.0791
0.439219
-29.435
-58.7672
-66.5392
-33.8179
44.4279
151.395
254.465
325.964
356.952
352.702
324.245
282.832
237.116
193.165
154.906
123.984
99.5025
79.7084
62.928
18.427
11.5228
12.6556
13.7361
13.7679
12.7374
10.9046
8.58728
6.08177
3.63464
1.43499
-0.382824
-1.7334
-2.57195
-2.88897
-2.71079
-2.10272
-1.17688
-0.110283
0.688421
1.11709
1.10331
0.616171
-0.395012
-2.09446
-4.83336
-9.14088
-15.5904
-24.395
-34.78
-43.0757
-40.6756
-42.0115
-76.48
-76.867
-57.6869
-53.3534
-45.06
-33.2498
-16.5914
4.20311
27.256
49.9492
69.1188
81.9725
87.4181
85.9587
79.1761
69.0508
57.4512
45.8245
35.3475
27.0212
21.5936
19.3397
19.9641
22.7514
26.8967
31.7948
37.1384
42.8366
48.8707
55.1893
61.6735
68.1603
74.4643
80.3322
85.6367
90.9364
96.2215
101.311
105.774
109.082
109.58
107.906
103.219
94.5825
81.1426
62.3818
38.4123
10.2342
-19.9514
-49.2707
-74.2157
-90.6599
-94.0771
-81.6375
-52.3471
-10.6975
28.2056
57.003
79.0522
91.7134
95.0824
89.711
76.7729
58.6211
39.1622
16.4805
-3.65075
-13.7098
-7.56698
17.9246
60.1245
108.515
145.494
144.775
90.1336
-24.9138
-204.216
-442.797
-706.263
-912.811
-946.511
-704.283
-178.924
404.473
541.539
465.607
335.738
207.792
112.104
53.0945
19.9553
-0.189708
-15.7965
-30.7556
-45.8922
-59.6485
-76.0029
-87.7117
-104.891
-121.652
-137.405
-148.948
-154.822
-152.55
-142.85
-128.908
-113.384
-98.9186
-87.3792
-79.4865
-74.9601
-73.0396
-72.8949
-73.9037
-75.7738
-78.519
-82.3986
-85.9799
-94.5611
-108.148
-125.446
-142.826
-148.081
-135.337
-104.533
-61.3616
-17.2125
13.9409
21.581
5.50209
-20.7583
-33.0491
-7.76596
59.6647
152.928
244.53
301.745
316.093
295.269
254.363
207.597
164.516
129.782
104.218
85.9035
72.2411
60.8783
38.4458
19.621
17.849
16.9934
14.8769
11.529
7.44313
3.124
-1.02121
-4.70002
-7.72648
-10.0016
-11.4889
-12.19
-12.1314
-11.3589
-9.94648
-8.01506
-5.77689
-3.62668
-1.78881
-0.491028
0.133615
0.0317446
-0.871305
-2.80092
-6.39381
-12.1242
-20.2129
-29.4378
-34.5866
-28.7758
-51.2917
-48.3518
-47.9448
-44.2236
-37.0763
-26.6724
-13.9094
0.3247
14.7294
27.7136
37.7083
43.5413
44.7901
41.9498
36.1623
28.8584
21.4599
15.2266
11.1861
10.0455
12.0012
16.6209
22.9761
30.0164
36.9505
43.4089
49.3566
54.8975
60.1173
65.032
69.6268
73.9165
77.979
81.819
85.203
87.0514
89.4333
92.6678
97.104
103.189
107.966
113.517
119.421
124.814
128.208
127.605
120.626
105.275
80.4635
47.4429
8.81306
-31.3696
-68.3108
-95.2017
-105.509
-94.3466
-62.6001
-23.8438
15.4251
49.2062
73.6663
87.5656
90.9609
84.5306
70.2086
52.0099
24.3404
-4.19236
-25.9306
-33.44
-20.9594
12.7167
60.2461
103.613
115.903
68.2713
-48.7593
-242.629
-500.821
-767.645
-927.597
-844.6
-459.188
111.119
530.746
522.006
367.626
227.867
121.4
57.4133
24.7533
8.25395
-2.57446
-12.7832
-23.8427
-35.1029
-45.9945
-55.4935
-71.4333
-89.2715
-107.506
-125.638
-140.566
-148.672
-147.341
-137.533
-121.788
-103.365
-85.7509
-71.5208
-61.7751
-56.2879
-54.0681
-53.9266
-54.8833
-56.3579
-58.1258
-60.2034
-59.9209
-64.3014
-74.8534
-92.9036
-118.894
-148.111
-167.649
-168.194
-144.177
-97.6177
-40.2845
8.95568
32.8756
27.3789
6.63374
-2.96846
22.6278
85.0444
166.394
238.117
276.899
274.832
244.062
200.788
158.107
123.368
98.7066
82.5586
71.9769
63.8508
54.0633
24.9539
20.701
17.4348
12.5116
6.4168
-0.0195197
-6.14463
-11.521
-15.8963
-19.1706
-21.3528
-22.5092
-22.7215
-22.0639
-20.5998
-18.3972
-15.5573
-12.293
-8.84896
-5.64765
-3.0528
-1.26563
-0.349688
-0.310641
-1.28204
-3.57431
-8.24958
-14.0955
-18.4034
-20.1002
-13.6344
-23.9089
-34.1979
-39.5837
-37.8861
-31.3679
-22.586
-13.1875
-4.33569
2.98851
8.01349
10.3116
9.90545
7.28224
3.30655
-0.946358
-4.33655
-5.78995
-4.46966
-0.00797086
7.2989
16.509
26.3496
35.6781
43.8203
50.6196
56.2485
60.9568
64.9068
68.1432
70.6465
72.3816
73.3257
73.4043
72.351
70.4855
67.4432
64.8331
63.0674
62.7347
64.4886
66.9446
71.9017
79.782
90.6716
104.095
118.524
130.274
135.274
128.838
108.953
75.3478
32.4282
-15.7595
-61.7421
-94.3661
-107.42
-96.6198
-68.4996
-29.8548
10.2427
44.4122
68.5852
81.4003
82.8496
74.2525
58.8857
29.8465
-4.04544
-34.5355
-53.3926
-53.2332
-29.6918
14.087
62.0791
85.1379
45.3271
-71.0968
-271.917
-536.497
-788.982
-889.173
-702.635
-234.56
295.567
552.096
456.596
287.531
150.326
69.8204
28.7923
10.2463
1.24939
-5.06463
-10.8597
-15.7519
-18.8964
-21.3216
-32.7168
-48.0364
-68.3604
-88.7276
-109.139
-129.36
-139.682
-140.923
-132.389
-115.964
-95.4667
-75.2737
-58.8964
-47.9688
-42.2981
-40.5711
-41.1585
-42.6983
-44.349
-45.6894
-46.5035
-43.4075
-43.1269
-47.193
-57.5133
-76.7049
-109.824
-143.864
-172.423
-181.905
-162.32
-112.865
-46.6686
13.2787
45.2117
44.717
28.6804
24.5284
53.6266
112.44
180.99
235.379
254.359
239.801
204.962
164.573
128.953
102.723
85.8294
75.8017
69.22
57.3706
27.5303
21.6141
15.2674
7.0486
-1.7736
-10.1312
-17.3928
-23.2261
-27.5183
-30.3345
-31.8483
-32.2582
-31.727
-30.3642
-28.2377
-25.3999
-21.9217
-17.9617
-13.6799
-9.59012
-6.09638
-3.42608
-1.63597
-0.680971
-0.558928
-1.35835
-3.20286
-3.81076
-3.11669
0.197291
5.78435
-8.79126
-27.1995
-36.8835
-37.6368
-33.4955
-27.7467
-22.2443
-17.9893
-15.4919
-14.8797
-15.9292
-18.1122
-20.6653
-22.6633
-23.1015
-21.0254
-15.7596
-7.19712
4.01571
16.5854
28.9919
40.0093
49.0311
56.0578
61.4366
65.5616
68.6839
70.8654
72.0355
72.089
70.9582
68.6218
65.0726
60.7983
52.4016
44.9706
37.6817
31.3063
26.7028
22.2878
19.5194
18.8391
21.2846
28.1218
41.1586
61.7209
85.9679
110.165
128.04
133.447
118.56
88.0911
43.2383
-11.0768
-57.7412
-92.0926
-105.337
-95.7145
-67.3948
-29.0721
9.70518
41.7442
63.2179
72.6793
70.4723
58.8948
30.3202
-6.92003
-44.2247
-72.7166
-83.9277
-71.2971
-33.8366
16.7639
50.7175
22.9432
-87.4836
-287.321
-546.483
-771.942
-811.151
-549.792
-58.6306
388.449
521.274
389.837
222.99
105.565
39.8055
10.6068
-0.236855
-6.65362
-10.7161
-11.377
-6.087
7.36689
5.57168
-6.30027
-21.2748
-46.7676
-70.2067
-94.0869
-115.425
-130.339
-135.237
-128.757
-112.465
-90.5945
-68.4165
-50.5363
-39.2564
-34.3629
-34.0987
-36.3218
-39.3229
-42.0972
-44.2157
-45.3836
-43.6898
-40.8942
-40.9335
-44.2171
-52.9939
-73.7198
-104.941
-142.02
-174.102
-185.826
-164.375
-107.395
-35.8834
28.4521
60.6421
60.1909
47.9228
50.8147
83.0983
139.179
196.805
231.438
234.062
211.162
176.062
140.816
112.584
93.4242
82.0845
75.4835
64.3505
29.3275
20.8073
10.6593
-0.803183
-11.7497
-21.1769
-28.6742
-34.1246
-37.6168
-39.4222
-39.8954
-39.3485
-37.988
-35.9251
-33.2186
-29.9143
-26.085
-21.9293
-17.4293
-13.0813
-9.23768
-6.08423
-3.64973
-1.8443
-0.27921
2.42428
4.29318
6.31157
11.2328
19.4045
21.5231
0.244933
-23.93
-37.4352
-41.0941
-39.6261
-36.6216
-34.0009
-32.6055
-32.6359
-33.8666
-35.7624
-37.5605
-38.34
-37.0981
-32.8914
-25.09
-13.6953
0.459778
15.8321
30.6373
43.4442
53.5666
61.0685
66.4633
70.3321
73.0674
74.8165
75.5143
74.9485
72.8846
69.0626
63.1838
55.2744
45.9782
35.3454
24.4818
14.2479
5.10918
-2.5925
-8.45563
-14.6141
-20.4262
-25.7435
-28.9292
-24.7701
-7.74887
17.3003
48.0122
83.0442
113.607
121.008
112.153
83.0144
37.1903
-13.5651
-62.4499
-94.6198
-104.463
-91.5186
-61.7191
-24.4446
11.3009
39.2474
55.9038
60.0892
52.6865
25.9204
-13.1468
-56.0219
-93.2252
-115.229
-113.932
-85.0966
-34.8588
10.189
-0.47055
-97.2464
-286.944
-530.471
-722.178
-709.046
-407.062
62.4933
417.844
472.165
332.215
179.669
78.9601
25.1681
2.01698
-9.13748
-16.3225
-20.2992
-15.1883
3.4657
28.4136
30.5954
17.2264
-1.87203
-25.2058
-51.3021
-78.4188
-103.622
-122.611
-131.1
-126.83
-110.947
-88.0271
-64.236
-45.3212
-34.3924
-31.072
-32.9568
-37.3185
-42.2048
-46.6099
-50.2734
-53.01
-52.5716
-52.6253
-53.1172
-53.9883
-56.4221
-64.3122
-82.2566
-111.758
-147.857
-177.832
-184.33
-154.003
-88.8709
-10.0001
51.7169
77.5765
74.3192
66.423
77.081
113.974
164.853
206.817
223.678
213.915
186.776
154.148
124.956
103.361
89.7171
81.8235
65.1331
30.3546
18.2485
4.0829
-9.98567
-22.1245
-31.7029
-38.6451
-43.0997
-45.3748
-45.9436
-45.3043
-43.819
-41.6753
-38.9558
-35.7259
-32.0634
-28.0513
-24.6395
-20.582
-16.3698
-12.2984
-8.55046
-5.15849
-1.99926
1.28038
5.70437
10.9312
16.1883
24.394
35.2335
33.2636
6.79866
-21.7785
-38.9954
-45.6803
-46.6125
-45.5813
-44.6561
-44.6729
-45.7102
-47.3692
-48.9192
-49.3929
-47.6902
-42.7474
-33.8106
-20.7802
-4.46653
13.4579
30.905
46.0476
57.8696
66.3059
71.9657
75.6738
78.0709
79.4146
79.7403
78.9137
76.5562
72.3454
65.953
56.9538
44.8779
30.1722
16.9666
4.26581
-7.28578
-17.1077
-25.1275
-32.9269
-38.723
-44.0828
-54.645
-69.9494
-75.3
-64.6389
-44.7796
-12.1918
27.0028
65.2403
93.8008
105.43
95.9618
65.2998
17.8973
-35.8845
-77.9154
-102.249
-104.019
-85.3952
-53.9867
-18.8557
12.3991
34.4911
44.5097
41.3901
17.5388
-21.9122
-69.2556
-114.683
-147.445
-157.924
-139.589
-93.2726
-38.8847
-28.0156
-102.346
-271.787
-491.103
-647.574
-596.581
-285.561
135.919
410.06
421.103
287.755
152.991
65.2912
18.835
-3.14742
-15.0005
-22.0725
-22.8008
-10.9579
12.1329
37.2986
46.6792
35.8423
15.5244
-9.73294
-37.9807
-67.4145
-95.4791
-117.675
-129.093
-126.639
-110.908
-86.8055
-61.4934
-41.7589
-31.684
-30.4508
-34.7052
-41.0631
-47.5078
-53.2851
-58.2989
-62.7891
-65.7284
-69.4624
-72.7892
-74.9838
-76.279
-78.6685
-85.0512
-101.335
-128.627
-160.72
-182.983
-177.079
-131.953
-55.4356
24.3574
77.1163
93.1006
87.6824
86.0489
105.091
143.472
184.581
210.098
211.908
193.851
165.798
137.23
113.91
97.793
87.8386
59.3068
31.2728
13.9258
-3.77457
-19.4463
-31.8743
-40.919
-46.8279
-50.0269
-51.0319
-50.4589
-48.8582
-46.5585
-43.6886
-40.3296
-36.672
-33.0563
-29.7129
-26.2565
-22.1648
-18.0594
-14.0631
-10.1636
-6.23681
-2.04086
2.80336
8.81502
15.9675
23.909
35.0605
47.2224
42.7258
13.436
-18.5686
-39.5568
-49.4363
-52.5777
-52.926
-52.847
-53.3537
-54.5503
-55.9507
-56.6479
-55.4496
-51.0759
-42.4647
-29.1599
-11.6648
8.45565
28.8877
47.2556
61.8783
72.1982
78.6868
82.3648
84.2679
85.0861
84.7231
83.1576
80.5442
76.3077
69.9589
61.2099
49.5181
34.6672
14.3052
-0.599206
-14.4616
-26.5212
-35.7443
-42.2964
-49.7493
-52.6985
-61.4006
-73.6337
-86.3723
-94.5392
-92.8762
-78.3691
-51.1386
-14.724
24.4501
58.4687
79.8115
83.0935
66.0893
30.4539
-17.5523
-66.7544
-98.4206
-110.742
-102.004
-77.8125
-46.1537
-14.6542
10.5333
25.2109
26.155
6.0902
-32.2269
-82.6677
-135.732
-179.543
-202.576
-196.337
-157.52
-97.6362
-62.9894
-106.497
-245.315
-433.258
-556.491
-483.728
-188.147
173.948
383.858
374.855
255.651
138.061
60.2667
17.6061
-4.48017
-16.5868
-22.005
-18.1882
-1.83324
22.744
47.2969
49.8626
38.9444
22.8341
-2.4226
-31.671
-62.2395
-91.8541
-116.165
-129.602
-128.19
-111.897
-86.0237
-59.0494
-38.4652
-29.6604
-30.8211
-37.2514
-44.8917
-51.9268
-58.253
-63.0184
-69.2479
-76.4159
-83.8092
-90.2922
-94.7045
-96.7459
-97.9534
-100.071
-107.543
-124.312
-149.834
-175.517
-184.794
-160.205
-96.7521
-12.0363
61.3702
100.035
106.418
102.014
108.446
133.42
168.273
196.64
206.676
197.085
174.575
147.979
123.923
105.675
93.378
53.4129
27.9047
8.13369
-11.7309
-28.2461
-40.5406
-48.8377
-53.6744
-55.7462
-55.7333
-54.3076
-52.0048
-49.1017
-45.6826
-41.815
-37.6845
-33.5871
-29.7687
-26.2463
-22.6572
-18.9054
-15.0825
-11.1601
-6.95458
-2.15932
3.57386
10.4972
18.6573
28.5614
42.1887
55.6411
51.2298
21.7431
-12.6418
-37.4898
-50.9907
-56.5636
-58.1392
-58.4874
-58.9645
-59.8531
-60.6713
-60.3559
-57.4758
-50.6066
-38.7014
-21.5768
-0.267116
23.0289
45.4791
64.4822
78.4716
87.2479
91.7084
93.2108
92.9519
91.5758
89.1619
85.1041
79.7339
73.2097
65.1833
55.7828
42.2211
21.4003
0.504421
-15.0572
-29.5941
-42.267
-51.4587
-56.5685
-58.4003
-60.2115
-66.1067
-76.8145
-89.6427
-99.2762
-100.335
-89.6844
-67.4786
-36.9818
-3.55581
26.5642
47.436
54.4076
44.8867
19.042
-19.3718
-62.5708
-99.8068
-118.405
-115.035
-96.8266
-69.5542
-39.9072
-13.9089
3.8181
8.21055
-7.53801
-43.2048
-94.9594
-154.52
-209.483
-246.18
-253.707
-225.686
-165.458
-108.278
-114.72
-213.09
-363.336
-456.612
-376.39
-112.352
188.987
350.81
335.378
233.08
131.04
60.9279
20.2944
-2.00754
-13.7311
-16.8359
-9.30742
9.43495
34.2505
56.2776
54.3048
41.3075
21.4418
-3.44326
-32.3565
-63.1922
-92.758
-118.226
-132.74
-131.342
-113.38
-84.7657
-55.8403
-33.9961
-27.1224
-31.0147
-39.2065
-47.0637
-53.3571
-59.089
-65.6184
-73.6793
-83.1679
-93.3099
-102.59
-109.042
-111.299
-110.387
-111.802
-114.171
-125.017
-144.773
-168.963
-185.44
-176.576
-129.417
-49.6155
35.5446
95.116
118.349
118.942
119.209
133.115
159.515
186.311
200.806
197.895
180.844
156.962
133.001
113.119
98.5002
45.3212
23.48
1.89049
-19.4176
-36.2882
-48.2969
-55.9274
-59.9098
-61.1253
-60.3733
-58.3181
-55.483
-52.1258
-48.2998
-44.0177
-39.4002
-34.721
-30.3203
-26.433
-23.1161
-19.7019
-16.139
-12.3549
-8.16529
-3.29313
2.54864
9.57723
18.128
29.3788
44.9856
60.3609
58.8841
32.1668
-2.99577
-31.4616
-49.1342
-57.8297
-61.0285
-61.8877
-62.1368
-62.4757
-62.7767
-61.9229
-56.1902
-46.2705
-31.6208
-11.5474
12.5663
38.1467
62.084
81.6618
95.3511
103.084
105.918
105.356
102.69
98.6276
93.3996
86.4641
77.8732
67.8722
56.4354
43.4029
27.7503
9.85466
-8.16101
-24.9816
-41.0794
-55.4496
-65.7121
-70.0595
-69.4255
-67.9218
-70.4271
-78.645
-89.6658
-97.8191
-98.0941
-88.5544
-70.6098
-47.764
-24.1305
-3.56067
10.5613
15.3034
8.48187
-10.4932
-39.5463
-73.4641
-104.491
-124.52
-127.205
-112.225
-88.8375
-62.0451
-37.009
-17.8774
-11.0333
-22.3745
-54.079
-105.057
-169.192
-234.642
-286.005
-309.303
-295.255
-240.543
-163.462
-132.433
-182.309
-288.808
-354.581
-277.192
-53.148
191.308
317.489
302.552
217.189
129.059
65.3193
26.1304
3.79296
-7.29219
-8.53964
0.790714
19.2772
41.3053
58.9902
53.3029
39.9628
20.1265
-4.70022
-33.7511
-65.7191
-97.4156
-123.738
-138.406
-135.714
-114.559
-81.9552
-50.6386
-31.4078
-27.1352
-32.8966
-41.4819
-48.5876
-53.9365
-59.2438
-66.0627
-75.1034
-86.298
-98.9755
-111.58
-121.373
-125.113
-121.457
-115.922
-112.936
-118.764
-135.745
-159.97
-181.372
-184.265
-152.791
-83.467
5.05754
80.6726
122.067
132.998
133.081
139.78
158.058
180.808
196.589
198.155
185.74
164.705
141.33
120.236
103.427
36.7211
18.5047
-4.58067
-26.5718
-43.3726
-55.033
-62.1902
-65.6401
-66.299
-65.1235
-62.7063
-59.5789
-56.0181
-52.0833
-47.7264
-42.9387
-37.8591
-32.8201
-28.2894
-25.0277
-21.866
-18.6188
-15.1748
-11.3651
-6.95444
-1.66384
4.86696
13.3657
25.4035
42.4401
60.2725
64.1727
43.5011
10.0484
-20.9692
-42.986
-55.7698
-62.0048
-65.4045
-63.127
-61.7329
-60.5501
-57.2612
-50.0102
-38.8659
-22.3698
-0.477335
25.3644
52.5114
77.7736
98.3273
112.502
120.084
122.035
119.859
114.946
108.229
99.8507
89.8112
78.1155
64.7329
49.903
33.9287
17.0676
-0.378033
-18.059
-36.4958
-55.849
-73.9156
-86.5047
-90.3483
-86.5213
-80.7872
-79.4941
-84.4531
-91.837
-95.819
-93.0156
-83.9833
-71.6401
-58.9233
-47.5928
-38.4998
-32.541
-31.2965
-36.7327
-50.0761
-70.5092
-94.581
-116.868
-131.542
-134.498
-124.053
-103.671
-80.1088
-57.2293
-38.5407
-30.1238
-37.2898
-64.1284
-112.208
-178.278
-252.369
-318.527
-359.648
-362.909
-319.923
-234.483
-165.38
-161.306
-217.896
-256.123
-186.72
-4.97192
188.545
287.489
275.654
205.766
130.048
72.0521
34.3014
12.0856
1.4194
0.903188
9.95046
25.8647
43.1463
53.3076
46.6902
33.2927
13.7955
-10.6847
-39.7173
-71.9892
-104.197
-131.014
-145.362
-140.472
-115.345
-78.8063
-45.7613
-27.6457
-25.856
-33.3576
-42.0448
-48.2457
-52.7211
-57.6754
-64.6361
-74.1788
-86.4542
-101.365
-117.947
-133.388
-142.797
-141.148
-128.508
-113.495
-107.833
-118.511
-142.96
-170.08
-183.809
-167.162
-111.046
-25.6926
59.9503
118.015
142.177
146.806
150.412
162.407
180.392
195.334
199.349
190.421
171.937
149.323
127.287
108.427
28.6099
12.6124
-11.4698
-33.5863
-49.8038
-60.7776
-67.3867
-70.4925
-70.7508
-69.7085
-67.4747
-64.5448
-61.2227
-57.6189
-53.6948
-49.3826
-44.6659
-39.6071
-34.4143
-30.6057
-27.7414
-24.9801
-22.1598
-19.124
-15.6393
-11.354
-5.68899
2.40701
14.6458
32.3923
52.6095
63.4235
52.0565
23.3807
-8.10769
-33.7201
-52.2824
-53.9979
-57.1161
-56.6549
-55.4639
-52.6971
-47.6467
-39.4627
-27.2583
-9.94715
12.5105
38.8766
66.7451
93.0678
114.963
130.483