/*--------------------------------*- C++ -*----------------------------------*\
| =========                 |                                                 |
| \\      /  F ield         | OpenFOAM: The Open Source CFD Toolbox           |
|  \\    /   O peration     | Version:  2112                                  |
|   \\  /    A nd           | Website:  www.openfoam.com                      |
|    \\/     M anipulation  |                                                 |
\*---------------------------------------------------------------------------*/
FoamFile
{
    version     2.0;
    format      ascii;
    arch        "LSB;label=32;scalar=64";
    class       volScalarField;
    location    "0.5";
    object      nut;
}
// * * * * * * * * * * * * * * * * * * * * * * * * * * * * * * * * * * * * * //

dimensions      [0 2 -1 0 0 0 0];

internalField   nonuniform List<scalar> 
12225
(
3.9752e-06
6.29337e-06
8.18576e-06
9.96475e-06
1.18293e-05
1.38973e-05
1.62426e-05
1.89151e-05
2.19506e-05
2.53759e-05
2.92081e-05
3.34546e-05
3.81126e-05
4.31711e-05
4.86141e-05
5.44166e-05
6.05851e-05
6.71919e-05
3.68241e-05
1.8485e-05
1.40551e-05
1.25431e-05
1.21694e-05
1.24093e-05
1.30586e-05
1.402e-05
1.52341e-05
1.66563e-05
1.82466e-05
1.99682e-05
2.17892e-05
2.36865e-05
2.56509e-05
2.77005e-05
2.9979e-05
3.29366e-05
0.000273967
9.98506e-05
7.49322e-05
6.28162e-05
4.49004e-05
3.49277e-05
2.89725e-05
2.5274e-05
2.29474e-05
2.15009e-05
2.06461e-05
2.02028e-05
2.00565e-05
2.01353e-05
2.03977e-05
2.08271e-05
2.14341e-05
2.22321e-05
0.000814957
0.000690122
0.000404699
0.000263225
0.000188414
0.00014702
0.000123606
0.000110478
0.000102707
8.75641e-05
7.66587e-05
6.8567e-05
6.23838e-05
5.75192e-05
5.35731e-05
5.02825e-05
4.74747e-05
4.50916e-05
0.000849896
0.000838878
0.000813933
0.000770035
0.000706851
0.00058074
0.000476067
0.000395822
0.000336326
0.000295456
0.000268198
0.000250727
0.000240493
0.00023598
0.000220168
0.000203991
0.000189877
0.00017747
0.000851665
0.000850796
0.000848598
0.000843883
0.000835295
0.00082197
0.000803541
0.0007756
0.000721686
0.000678487
0.000646578
0.000625109
0.000612406
0.000605829
0.000582178
0.000557516
0.000534308
0.000500836
0.000851657
0.000851327
0.000850956
0.000850427
0.000849578
0.000848197
0.000846063
0.000843014
0.000839002
0.000834042
0.00082821
0.000821614
0.00081437
0.000806581
0.000798381
0.000789882
0.000781196
0.000732904
0.000851594
0.000851234
0.000850922
0.000850657
0.00085044
0.000850252
0.000850047
0.000849778
0.000849403
0.000848895
0.000848235
0.000847416
0.000846444
0.000845329
0.000844091
0.000842755
0.000841356
0.000824585
0.000851547
0.000851145
0.000850796
0.000850505
0.00085028
0.000850123
0.000850022
0.000849959
0.000849916
0.000849877
0.000849829
0.000849764
0.000849677
0.000849571
0.000849457
0.000849346
0.000849255
0.000849193
0.000851512
0.000851078
0.000850697
0.000850371
0.000850106
0.000849902
0.000849753
0.000849646
0.000849572
0.00084952
0.00084948
0.000849448
0.00084942
0.000849399
0.00084939
0.000849401
0.000849443
0.000849518
0.000851486
0.000851026
0.000850619
0.000850265
0.000849966
0.000849721
0.000849526
0.000849369
0.000849244
0.000849142
0.000849058
0.000848988
0.000848929
0.000848883
0.000848855
0.000848848
0.00084887
0.000848921
0.000851468
0.000850989
0.000850562
0.000850186
0.000849861
0.000849587
0.000849356
0.000849162
0.000848998
0.000848858
0.000848736
0.00084863
0.000848539
0.000848464
0.000848406
0.000848369
0.000848357
0.000848371
0.000851454
0.000850959
0.000850514
0.00085012
0.000849774
0.000849474
0.000849215
0.000848991
0.000848795
0.000848622
0.000848469
0.000848333
0.000848213
0.000848109
0.000848022
0.000847955
0.000847909
0.000847884
0.000851442
0.000850932
0.000850471
0.000850058
0.000849691
0.000849367
0.000849082
0.000848829
0.000848604
0.000848402
0.000848219
0.000848054
0.000847905
0.000847772
0.000847655
0.000847556
0.000847474
0.00084741
0.000851431
0.00085091
0.000850433
0.000850003
0.000849617
0.000849271
0.000848961
0.000848682
0.00084843
0.0008482
0.00084799
0.000847796
0.000847619
0.000847457
0.000847309
0.000847177
0.000847058
0.000846954
0.000851423
0.000850892
0.000850403
0.000849958
0.000849554
0.000849189
0.000848857
0.000848555
0.000848278
0.000848023
0.000847786
0.000847566
0.000847361
0.000847169
0.000846991
0.000846825
0.000846671
0.000846528
0.000851418
0.000850879
0.000850381
0.000849924
0.000849506
0.000849125
0.000848775
0.000848453
0.000848154
0.000847877
0.000847616
0.000847371
0.00084714
0.00084692
0.000846712
0.000846514
0.000846326
0.000846147
0.000851415
0.000850873
0.000850369
0.000849904
0.000849477
0.000849083
0.000848719
0.000848382
0.000848066
0.000847769
0.000847489
0.000847222
0.000846967
0.000846723
0.000846488
0.000846262
0.000846044
0.000845833
0.000851416
0.000850874
0.00085037
0.000849903
0.000849472
0.000849072
0.000848701
0.000848354
0.000848027
0.000847718
0.000847423
0.000847141
0.000846868
0.000846605
0.00084635
0.000846101
0.00084586
0.000845626
0.000851421
0.000850885
0.000850386
0.000849923
0.000849495
0.000849097
0.000848727
0.000848379
0.000848052
0.00084774
0.000847441
0.000847153
0.000846875
0.000846603
0.000846339
0.000846081
0.000845828
0.000845582
0.000851429
0.000850901
0.00085041
0.000849956
0.000849534
0.000849143
0.000848778
0.000848436
0.000848113
0.000847806
0.000847511
0.000847227
0.000846951
0.000846681
0.000846418
0.000846159
0.000845906
0.000845659
0.000851441
0.000850924
0.000850445
0.00085
0.000849588
0.000849206
0.000848851
0.000848519
0.000848207
0.00084791
0.000847626
0.000847353
0.000847087
0.000846828
0.000846573
0.000846324
0.000846078
0.000845837
0.000851457
0.000850956
0.00085049
0.000850058
0.000849657
0.000849288
0.000848947
0.00084863
0.000848332
0.000848051
0.000847783
0.000847523
0.00084727
0.000847021
0.000846774
0.000846528
0.000846282
0.000846036
0.00085148
0.000851
0.00085055
0.000850129
0.000849739
0.000849376
0.000849035
0.000848705
0.000848374
0.000848032
0.000847668
0.000847271
0.000846833
0.000846347
0.000845809
0.000845218
0.000844575
0.00084388
0.000851514
0.000851055
0.000850598
0.000850102
0.000849517
0.000848772
0.000847778
0.000846434
0.000844647
0.000842335
0.000839441
0.000835934
0.000831818
0.000827138
0.000821946
0.000816305
0.000810286
0.000803959
0.000851489
0.000850605
0.000848771
0.000845168
0.000838945
0.000829365
0.000815778
0.000797848
0.000775658
0.00074973
0.000720937
0.000690335
0.000658998
0.000609082
0.000563679
0.000526606
0.000495913
0.000473482
0.00084743
0.000830531
0.000792834
0.00073228
0.000594837
0.00044276
0.000349799
0.00028906
0.000247015
0.000217185
0.000195894
0.000180775
0.000170262
0.000163313
0.000159288
0.000151028
0.000139359
0.000129627
0.000656131
0.00022612
0.000150378
0.000122041
0.000109229
0.00010139
7.94224e-05
6.4782e-05
5.46295e-05
4.73779e-05
4.2084e-05
3.81582e-05
3.52162e-05
3.29978e-05
3.13217e-05
3.00572e-05
2.91093e-05
2.84071e-05
8.40216e-05
3.67074e-05
2.44299e-05
1.94121e-05
1.70094e-05
1.58312e-05
1.53307e-05
1.52602e-05
1.54895e-05
1.59417e-05
1.65696e-05
1.7341e-05
1.82315e-05
1.9221e-05
2.0292e-05
2.14292e-05
2.26196e-05
2.38514e-05
3.99106e-06
6.1412e-06
7.91396e-06
9.49848e-06
1.10152e-05
1.25482e-05
1.41512e-05
1.58575e-05
1.76703e-05
1.95781e-05
2.16381e-05
2.38579e-05
2.62406e-05
2.87862e-05
3.14928e-05
3.43561e-05
3.73723e-05
4.05268e-05
0.000217934
0.000218685
0.000224548
0.000233897
0.0002461
0.000260055
0.000245604
0.000225111
0.000209308
0.000197375
0.000188379
0.00018177
0.000177206
0.000174483
0.000173496
0.000174222
0.000176701
0.000181055
0.000187541
0.000195744
0.000205232
0.000216247
0.000228914
0.000243355
0.000259567
0.000276276
0.000289515
0.000294759
0.000290507
0.000276435
0.000251982
0.000218532
0.000182238
0.000149427
0.00012409
0.000107046
9.70717e-05
9.23429e-05
9.1254e-05
9.24985e-05
9.53808e-05
9.98141e-05
0.000106347
0.000115654
0.000128792
0.000147722
0.00014702
0.000143128
0.000145988
0.000155504
0.000170004
0.000187513
0.000202886
0.000215867
0.000226565
0.000234886
0.000240843
0.000244531
0.000246113
0.00024577
0.000243625
0.000234235
0.000223162
0.000213219
0.000204166
0.000195856
0.000188152
0.00018091
0.000173969
0.000167626
0.000162118
0.000157347
0.000153243
0.000149749
0.000146822
0.000144435
0.000142581
0.000141295
0.00014066
0.000140805
0.000141923
0.000144312
0.000148428
0.000154981
0.000165116
0.000180751
0.000205211
0.000244205
0.000304521
0.000372036
0.000358567
0.000348299
0.000328
0.000285888
0.000258742
0.000242134
0.000232896
0.000229508
0.000231371
0.000238429
0.000250868
0.000268663
0.000290071
0.000311789
0.000334724
0.000358532
0.000381823
0.000402515
0.000418198
0.000426418
0.000425088
0.000413677
0.000394316
0.000371429
0.000351127
0.000341752
0.000357685
0.000361776
0.000366469
0.000392254
0.000423476
0.000448134
0.000465137
0.000473573
0.000473382
0.000459535
0.000419457
0.000386385
0.0003581
0.000333202
0.000310646
0.000293215
0.000280631
0.000273167
0.000271835
0.000278839
0.000298655
0.000341171
0.000429454
0.000607164
0.000707866
0.000712862
0.000587043
0.000517551
0.000489657
0.000484854
0.000495207
0.000516923
0.00054799
0.000587772
0.000636508
0.000695109
0.000764829
0.000844304
0.000924386
0.00100555
0.00108711
0.00116756
0.00124555
0.00132012
0.00139106
0.0014592
0.00152596
0.00159241
0.00165804
0.00171996
0.00177294
0.00181052
0.00182629
0.00181462
0.00177117
0.0016938
0.001584
0.00144816
0.00129769
0.00114752
0.00101164
0.000903995
0.000824888
0.000788602
0.000260634
0.000253059
0.000254162
0.00026019
0.00026927
0.000279662
0.000290029
0.000299547
0.000307756
0.000314394
0.000319336
0.00032256
0.000324128
0.000324156
0.000322802
0.000320244
0.000316675
0.000312289
0.000307246
0.000300745
0.000292961
0.000285099
0.000278321
0.000273341
0.000270277
0.000268555
0.00026705
0.000264669
0.000260702
0.000254797
0.000246879
0.000237256
0.000226187
0.000213969
0.000202466
0.000193993
0.000188901
0.000185881
0.000183715
0.000182086
0.000181975
0.000183796
0.00018678
0.00019095
0.000196262
0.000202643
0.000210139
0.000218503
0.0002255
0.000231342
0.000236395
0.000240936
0.000245089
0.000248944
0.000252661
0.000256405
0.000260389
0.000264899
0.000270313
0.000277106
0.000286144
0.000298687
0.00031587
0.000338413
0.000366642
0.000399727
0.000434642
0.000465793
0.000486516
0.000500525
0.000513702
0.000525832
0.000536683
0.000546014
0.000553502
0.000558648
0.000530911
0.000506557
0.000486618
0.000469721
0.000455201
0.000442611
0.000431745
0.000422557
0.000415081
0.000409334
0.000405238
0.000402747
0.000402164
0.000404507
0.000411812
0.000424184
0.000438032
0.000450984
0.000462096
0.0004719
0.000478042
0.000449289
0.000411012
0.000371064
0.000330826
0.000292841
0.000263279
0.000249831
0.000249328
0.000254897
0.000261802
0.000267368
0.000270701
0.000273143
0.000278131
0.000289149
0.000305653
0.000321827
0.000337212
0.000353634
0.000371547
0.000390304
0.000408897
0.000422918
0.000431756
0.000436919
0.000439242
0.000439793
0.000440617
0.000447811
0.000464764
0.000493397
0.000532777
0.000576442
0.000609876
0.000638342
0.000659725
0.000668255
0.000671907
0.000673173
0.000640676
0.000605762
0.000583781
0.000569487
0.00056358
0.000570961
0.000585815
0.000606921
0.000632387
0.000660871
0.000663016
0.000630737
0.000595892
0.000560538
0.000526085
0.00049376
0.000465149
0.000446637
0.000458552
0.000494678
0.000543315
0.000597942
0.000655361
0.000714774
0.000777779
0.000848117
0.000929806
0.00102398
0.00112892
0.00124195
0.00135903
0.00147256
0.00157048
0.00163817
0.00166217
0.00163404
0.00155319
0.00142805
0.00127474
0.00111287
0.000959835
0.000826436
0.000717575
0.000635328
0.000291543
0.000272707
0.000269805
0.000275332
0.000285361
0.000297181
0.000308957
0.000319599
0.000328549
0.000335578
0.000340653
0.00034386
0.000345352
0.000345323
0.000343978
0.000341529
0.00033818
0.000334119
0.000329509
0.000324385
0.000318377
0.000311345
0.000303386
0.000294995
0.000286969
0.00028002
0.00027439
0.000269846
0.000265954
0.000262331
0.000258619
0.000253839
0.000246045
0.000235683
0.00022711
0.000223561
0.000222976
0.000222303
0.000220807
0.000220182
0.000220733
0.000222915
0.000227806
0.000234786
0.000241628
0.000247205
0.000251645
0.000255181
0.000258087
0.000260792
0.000263825
0.000267685
0.000272823
0.000279684
0.000288759
0.000300598
0.000315795
0.000334928
0.0003584
0.000386166
0.000417415
0.000450107
0.000481151
0.000507468
0.000527262
0.000540534
0.00054866
0.000553472
0.00055685
0.000560134
0.000563145
0.000565717
0.000567735
0.000569133
0.000569879
0.000550679
0.000521578
0.000499031
0.000480625
0.000465019
0.000451345
0.000439137
0.00042824
0.000418698
0.000410628
0.000404147
0.00039938
0.000396602
0.000396616
0.000400672
0.000409724
0.000423613
0.000441289
0.000461344
0.000481129
0.000498309
0.000511494
0.000520952
0.000528898
0.000536386
0.000522854
0.00049583
0.000462458
0.000420143
0.000367814
0.000321385
0.000289931
0.000272204
0.000264174
0.000263357
0.000269826
0.00028419
0.00030549
0.00033133
0.000359236
0.000386296
0.000409011
0.000425536
0.000435843
0.000442203
0.000449021
0.000459105
0.000475048
0.000499014
0.000531731
0.00057045
0.000608016
0.000637722
0.000657382
0.000669037
0.000676242
0.00068056
0.000681648
0.000679307
0.000611116
0.000560027
0.000523324
0.000497519
0.000480108
0.000470309
0.000471605
0.000481029
0.000497282
0.000517409
0.000540556
0.00056602
0.000592671
0.000619869
0.000646689
0.000671287
0.000687701
0.000687753
0.00068753
0.000687093
0.000680397
0.000661838
0.000641035
0.000628648
0.000629136
0.000642646
0.000668107
0.000704166
0.000748592
0.000800701
0.000860825
0.000929822
0.00100834
0.00109457
0.00118164
0.00125688
0.00130494
0.00131312
0.00127615
0.00119785
0.00108967
0.000966713
0.000843169
0.000729184
0.000631514
0.000555108
0.000314236
0.00028484
0.000279513
0.000286349
0.000298812
0.000312953
0.000326409
0.000337934
0.000347001
0.000353532
0.000357683
0.000359727
0.000359973
0.000358724
0.000356257
0.000352818
0.000348623
0.000343874
0.000338761
0.000333467
0.000327968
0.000322173
0.000315909
0.000309053
0.000301744
0.000294478
0.000287961
0.000282814
0.000279386
0.000277695
0.000277136
0.000275414
0.000268549
0.000259863
0.000258253
0.000261218
0.000260594
0.000255726
0.000250938
0.000248694
0.00024978
0.000252919
0.000257055
0.000261379
0.000265235
0.000268423
0.000271196
0.000274041
0.000277548
0.000282353
0.000289105
0.000298419
0.000310858
0.000326903
0.000346854
0.000370633
0.000397531
0.000426015
0.000453817
0.000478458
0.000498079
0.000512085
0.000521221
0.000527013
0.000531049
0.000534498
0.000537984
0.000541667
0.0005453
0.000548506
0.000551045
0.000552764
0.000553613
0.00055365
0.000539716
0.000511633
0.000491757
0.000477161
0.000465788
0.000456141
0.000447033
0.000437802
0.000428389
0.000419229
0.000410972
0.000404227
0.000399438
0.000396914
0.000397076
0.000400353
0.000408834
0.000423325
0.000443196
0.000467994
0.000496107
0.000524371
0.00054933
0.000569828
0.000584999
0.0005922
0.000574479
0.000552687
0.000527154
0.000496811
0.000459722
0.000413818
0.000366615
0.000327607
0.000302448
0.000292742
0.00029784
0.000315055
0.000339909
0.00036811
0.000396268
0.000420635
0.000437742
0.000447795
0.000454198
0.000463471
0.000480021
0.000506166
0.000541417
0.000581469
0.000619462
0.000649735
0.000671016
0.000685363
0.000695153
0.000701514
0.000704197
0.000703057
0.000676978
0.000606273
0.000551195
0.000509166
0.000478287
0.00045649
0.000443098
0.000438614
0.000442827
0.000454349
0.000471099
0.000491643
0.000515599
0.000542528
0.000572586
0.000605577
0.000640551
0.000676449
0.000696634
0.000696487
0.000695811
0.000695271
0.000695278
0.000694429
0.000690606
0.000683391
0.000675122
0.000670112
0.000672561
0.000684674
0.000706167
0.000735683
0.000771719
0.000813273
0.000860159
0.000912223
0.00096727
0.00101916
0.00105813
0.00107403
0.00106054
0.00101765
0.000951054
0.000869545
0.000782258
0.000697009
0.000620354
0.000557009
0.000335047
0.000296027
0.00029041
0.000300809
0.000317461
0.000334807
0.000349858
0.000361395
0.000369278
0.000373892
0.000375803
0.000375597
0.000373778
0.000370747
0.000366804
0.000362159
0.000356957
0.000351314
0.000345356
0.000339291
0.000333265
0.000327413
0.00032173
0.000316092
0.000310374
0.000304663
0.000299434
0.000295494
0.000293687
0.000291485
0.000289751
0.000295293
0.00028893
0.000289135
0.000298048
0.000298125
0.000287687
0.000278033
0.000272633
0.000270399
0.000270443
0.000271896
0.000274109
0.000276683
0.000279488
0.000282707
0.000286786
0.000292319
0.000299947
0.000310289
0.000323874
0.000341041
0.000361811
0.000385694
0.000411515
0.000437398
0.000461097
0.000480667
0.000495144
0.00050481
0.000510886
0.000514932
0.000518312
0.000521918
0.000526147
0.000531013
0.000536298
0.000541609
0.000546192
0.00054966
0.000551692
0.000552069
0.000550716
0.000511266
0.000481094
0.000460056
0.000445637
0.000436539
0.000431535
0.000429215
0.000427913
0.000425856
0.000421773
0.000415499
0.00040798
0.0004007
0.00039501
0.000391666
0.000391051
0.000393301
0.000400474
0.000413047
0.000431479
0.000456733
0.000489286
0.000527821
0.000568489
0.000605935
0.0006266
0.000611063
0.000592778
0.000572062
0.000548686
0.000522102
0.000491532
0.000455831
0.000415116
0.000375205
0.000344217
0.000329261
0.000332714
0.000350952
0.000376928
0.000404282
0.000428599
0.000446484
0.000456766
0.000463256
0.000472417
0.000490899
0.000521096
0.00056092
0.000603794
0.000642072
0.000671654
0.000692934
0.000708258
0.000719342
0.000726482
0.000728996
0.00072667
0.000689657
0.000617372
0.000558462
0.000511496
0.00047396
0.000445395
0.000425451
0.000413945
0.000410817
0.000415956
0.000428576
0.000447371
0.000471011
0.000498707
0.000530031
0.000564641
0.000601904
0.00064115
0.000681802
0.000706465
0.000705182
0.000703058
0.000700737
0.000698769
0.000697594
0.000697096
0.000696381
0.000694497
0.000691546
0.000689472
0.000691492
0.00070036
0.000717099
0.000740899
0.000769898
0.000802186
0.0008364
0.000871137
0.000903547
0.000928587
0.000940286
0.000934232
0.000909472
0.000868548
0.000816021
0.000756982
0.000696317
0.000638795
0.000588142
0.000352083
0.00030509
0.000302498
0.000319683
0.000342285
0.000362581
0.000377403
0.00038647
0.000390783
0.000391613
0.00039006
0.00038694
0.000382854
0.000378203
0.000373221
0.000368003
0.000362537
0.000356765
0.000350645
0.000344274
0.000337811
0.000331543
0.000325704
0.000320401
0.000315614
0.000311331
0.000307799
0.000295286
0.000276639
0.000270232
0.000278334
0.000296351
0.000304577
0.000319459
0.000326111
0.000315805
0.000303934
0.000295079
0.000289475
0.000286481
0.000285449
0.000285874
0.000287457
0.000290127
0.000294039
0.000299546
0.000307129
0.000317301
0.000330505
0.000347001
0.000366724
0.000389127
0.000413057
0.000436782
0.000458311
0.000475965
0.000488957
0.000497617
0.000503134
0.000507017
0.000510608
0.000514809
0.00052005
0.000526374
0.000533567
0.000541254
0.000548979
0.000556047
0.000561954
0.000566215
0.000568357
0.000567983
0.000524308
0.000487018
0.000459237
0.000438145
0.000422525
0.000411708
0.000405288
0.000402874
0.000403777
0.000406489
0.000408739
0.000408335
0.000404551
0.000398512
0.00039252
0.000388406
0.000387085
0.000389039
0.000395727
0.000407155
0.000423903
0.000447462
0.000480003
0.000522861
0.000574193
0.000626275
0.000632017
0.000617262
0.000599459
0.000579215
0.000556614
0.000531393
0.00050314
0.000471482
0.000436432
0.000401052
0.000372032
0.000357587
0.000361985
0.000381694
0.000408135
0.000433339
0.000452477
0.000463695
0.000469303
0.000476665
0.000492846
0.000522282
0.000563152
0.000608282
0.000649352
0.000682078
0.000706844
0.000725691
0.000739897
0.000749491
0.000753744
0.00075147
0.000706474
0.000633493
0.000572314
0.000521612
0.000479664
0.000445794
0.000420014
0.000402575
0.00039331
0.000392289
0.000399429
0.00041411
0.00043527
0.000461656
0.000492158
0.000525898
0.000562303
0.000600961
0.000641878
0.000685405
0.000715012
0.000713148
0.000710274
0.000707063
0.000704154
0.00070204
0.000701105
0.000701278
0.000701891
0.000702056
0.000701499
0.000701385
0.000704275
0.000712877
0.000724173
0.000734013
0.000754348
0.000788932
0.000827539
0.000850535
0.000867541
0.000875408
0.000871598
0.000855388
0.000828089
0.000792257
0.00075081
0.000706627
0.000662748
0.000621797
0.000362458
0.000310056
0.000316185
0.000344438
0.000373194
0.00039324
0.000403676
0.000406895
0.000405542
0.000401589
0.000396309
0.000390486
0.000384605
0.00037897
0.000373731
0.000368822
0.000364045
0.000359118
0.000353772
0.00034787
0.000341498
0.000335003
0.000328834
0.000323404
0.000318972
0.000315635
0.000308928
0.000285972
0.000273945
0.000278186
0.000300169
0.000313768
0.000323436
0.000341683
0.000339419
0.000328226
0.000317301
0.000309054
0.000303553
0.000300426
0.00029933
0.000300054
0.000302552
0.000306943
0.000313479
0.000322488
0.000334291
0.000349087
0.000366832
0.000387095
0.000408945
0.000430945
0.000451357
0.00046858
0.000481662
0.000490619
0.00049635
0.000500233
0.000503647
0.000507634
0.000512798
0.00051934
0.000527175
0.000536026
0.000545502
0.000555126
0.000564354
0.000572772
0.000580119
0.000585805
0.000589182
0.000570278
0.000527168
0.000495152
0.000470167
0.000450147
0.000433915
0.000420893
0.000410854
0.000403874
0.000400285
0.000399977
0.000401844
0.00040339
0.000402412
0.000398106
0.000392153
0.000387102
0.000384502
0.000385962
0.000392261
0.00040353
0.000419773
0.000441945
0.000472598
0.000515093
0.000570377
0.000632004
0.000633422
0.000620741
0.000604328
0.000584848
0.000562657
0.00053782
0.000510212
0.000479821
0.00044729
0.000415335
0.000389676
0.000377945
0.000384558
0.000405775
0.000432033
0.000454441
0.000468482
0.000474513
0.000478269
0.000489609
0.000514401
0.000552824
0.000598854
0.000643475
0.000681076
0.000711164
0.000735395
0.000754781
0.000769019
0.000776977
0.000777347
0.000730355
0.000657083
0.00059349
0.000540126
0.000495498
0.000458306
0.000428166
0.000405191
0.000389896
0.000382769
0.000384085
0.000393716
0.000411054
0.000435039
0.000464188
0.000496806
0.000531321
0.000566741
0.000602806
0.000640229
0.000680685
0.000719577
0.000717379
0.000714049
0.00071024
0.00070666
0.000703956
0.000702645
0.000703054
0.000704921
0.000707356
0.000709264
0.000710207
0.00071125
0.000714936
0.000723917
0.000739155
0.000745388
0.000755487
0.000779942
0.000817085
0.000838477
0.000845074
0.000842707
0.000831182
0.000811449
0.00078519
0.000754273
0.000720487
0.000685763
0.000651875
0.000363823
0.000310386
0.000334404
0.000376844
0.000407111
0.000420512
0.000422423
0.000418137
0.000410952
0.000402703
0.000394386
0.000386576
0.000379638
0.000373765
0.000368961
0.000365061
0.000361709
0.000358381
0.000354526
0.000349634
0.0003437
0.000337108
0.000330519
0.000324679
0.000320195
0.000317381
0.000316322
0.000301794
0.000300155
0.000318813
0.000321693
0.000320098
0.000340943
0.000353579
0.000349001
0.000338718
0.000329103
0.000321866
0.000317166
0.00031486
0.000314824
0.000317033
0.000321563
0.000328569
0.000338231
0.000350682
0.000365902
0.000383606
0.00040313
0.000423375
0.000442888
0.000460136
0.000473924
0.000483783
0.000490111
0.00049397
0.000496677
0.000499413
0.000502995
0.000507841
0.000514058
0.000521553
0.000530116
0.000539458
0.000549221
0.000558972
0.000568216
0.000577386
0.000586086
0.000593651
0.00059926
0.000564621
0.000532903
0.00050988
0.00049229
0.000478203
0.000466174
0.000455444
0.000445695
0.0004368
0.000429159
0.000423505
0.000420215
0.000417567
0.000413759
0.000407452
0.00039931
0.000391899
0.000386946
0.000386472
0.000391443
0.0004021
0.000418124
0.000439579
0.000468241
0.000508185
0.000563166
0.000630724
0.000632973
0.000623571
0.000609897
0.00059225
0.000570998
0.000546543
0.000519176
0.000489208
0.000457618
0.000427389
0.000403989
0.000394383
0.00040253
0.000424274
0.000449416
0.000468709
0.000478449
0.000481302
0.000485599
0.000501584
0.000534167
0.000578571
0.000625368
0.000667699
0.000703486
0.000733916
0.000759972
0.000781145
0.000795747
0.000801545
0.000773144
0.000698688
0.000630678
0.000572093
0.000523279
0.000482953
0.000449424
0.000421986
0.000400996
0.000387475
0.000382526
0.000386473
0.000399079
0.000419603
0.000446724
0.000478369
0.00051191
0.000544943
0.000576321
0.000606496
0.000637203
0.000671353
0.000711774
0.000718098
0.000714518
0.000710319
0.000706137
0.000702704
0.000700733
0.000700902
0.000703418
0.00070769
0.000712376
0.000715999
0.00071811
0.000719968
0.00072438
0.000733983
0.000749376
0.000768981
0.000773388
0.0007921
0.000822399
0.00083015
0.000829427
0.000821062
0.000806054
0.000785767
0.000761576
0.000734672
0.000706312
0.000677683
0.000335113
0.000307484
0.000362207
0.000415352
0.000437292
0.000439067
0.000431821
0.000421024
0.000409226
0.000397698
0.000387102
0.000377867
0.000370308
0.000364571
0.000360588
0.000358064
0.000356465
0.000355056
0.000352861
0.000349069
0.000343545
0.000336755
0.000329619
0.000323227
0.000318511
0.000315975
0.000315625
0.000316916
0.000319511
0.000320873
0.00031906
0.000328355
0.000351742
0.000361409
0.000357035
0.000348401
0.000340495
0.00033481
0.000331627
0.000330955
0.000332792
0.000337179
0.000344189
0.000353885
0.000366255
0.000381125
0.000398061
0.000416289
0.000434682
0.000451877
0.000466543
0.000477751
0.000485274
0.000489634
0.000491886
0.000493231
0.000494675
0.000496859
0.000500064
0.000504319
0.000509534
0.000515585
0.000522357
0.000529735
0.000537586
0.000545739
0.000554243
0.000563609
0.000573376
0.000582914
0.000585277
0.000554742
0.000534587
0.000522069
0.000514584
0.000509998
0.000506356
0.00050244
0.000497822
0.000491803
0.000483791
0.000474976
0.000466927
0.000458573
0.000448232
0.000435463
0.00042159
0.000408314
0.000398672
0.000394597
0.000396888
0.000405659
0.00042054
0.000441057
0.000467951
0.000504971
0.000557607
0.000627139
0.000630552
0.000625297
0.00061577
0.000601495
0.000582384
0.000558945
0.000531975
0.000502265
0.000471033
0.000441371
0.000418766
0.000409713
0.000417786
0.000438576
0.000461621
0.000477749
0.000484274
0.000485798
0.000492114
0.00051275
0.000549841
0.000595755
0.000641579
0.000682795
0.000718711
0.000751197
0.000780273
0.000803999
0.000819208
0.000822292
0.00076749
0.000694504
0.000627245
0.000569722
0.000523444
0.000485609
0.000454131
0.000427862
0.000407956
0.000396104
0.000393498
0.000400425
0.000416459
0.000440538
0.000470737
0.000503956
0.000536335
0.000564909
0.000589315
0.000611748
0.000635525
0.000664431
0.000701737
0.000715726
0.000712036
0.000707774
0.00070342
0.000699556
0.000696882
0.000696279
0.000698494
0.000703548
0.000710398
0.000717106
0.000715983
0.000724875
0.000727356
0.00073259
0.000743041
0.000758901
0.000777923
0.000796769
0.000811789
0.000820339
0.000821514
0.000815688
0.00080398
0.000787732
0.00076814
0.000746092
0.000722425
0.000697902
0.00030582
0.00031095
0.000403802
0.000452323
0.000458284
0.000449097
0.000434986
0.000419488
0.00040425
0.000390172
0.000377751
0.000367371
0.000359332
0.000353731
0.000350447
0.000349148
0.00034923
0.000349687
0.000348837
0.000345682
0.000340129
0.000332899
0.00032522
0.000318452
0.000313704
0.000311505
0.000311685
0.000313226
0.000314643
0.000314317
0.000316858
0.00033437
0.000358224
0.000367383
0.000364568
0.000358081
0.000352244
0.000348532
0.00034734
0.000348759
0.000352819
0.000359536
0.000368889
0.000380775
0.000394929
0.000410853
0.000427748
0.000444523
0.000459909
0.000472708
0.000482114
0.000487965
0.000490787
0.000491582
0.000491468
0.000491353
0.000491763
0.000492859
0.000494567
0.000496736
0.000499259
0.000502121
0.000505403
0.000509263
0.000513893
0.000519478
0.000526937
0.000535859
0.000546047
0.000557184
0.000568589
0.000555813
0.000544525
0.000540366
0.000541777
0.000546564
0.000552107
0.000556604
0.00055929
0.000550756
0.000529599
0.000507792
0.000488265
0.000473073
0.000463481
0.000460953
0.000461553
0.000439848
0.000422702
0.000412647
0.000410687
0.00041639
0.000429017
0.000447776
0.000472665
0.000506678
0.000555737
0.000623259
0.000626033
0.000625214
0.000620864
0.000611535
0.000596157
0.000574847
0.000548771
0.000519392
0.000488302
0.000458518
0.000435491
0.000425364
0.000431586
0.000449892
0.000469998
0.000483105
0.000487495
0.000489037
0.000497852
0.000521943
0.000560781
0.000605901
0.000649633
0.000689336
0.000726053
0.000761123
0.000793616
0.000820047
0.000835421
0.000836075
0.000791803
0.00071569
0.00064663
0.00058875
0.000542026
0.000504106
0.000472692
0.000446764
0.000427714
0.000417652
0.000417772
0.000428136
0.000448015
0.000475831
0.000508597
0.000541623
0.000569847
0.000590827
0.000606533
0.000621702
0.000641123
0.000668476
0.000704367
0.000709732
0.000705812
0.000701684
0.000697658
0.000694083
0.000691384
0.000690257
0.00069176
0.000696574
0.000704386
0.000713584
0.000721851
0.000727419
0.000730435
0.000733377
0.000739591
0.000751062
0.000767131
0.000784891
0.000800435
0.000810545
0.00081373
0.000810131
0.000800892
0.000787447
0.000771025
0.000752427
0.000732259
0.000710994
0.000280183
0.000338223
0.000453332
0.000479221
0.000471044
0.000454819
0.000436223
0.00041734
0.000399422
0.00038325
0.000369275
0.000357854
0.000349228
0.000343419
0.000340275
0.000339501
0.000340549
0.000342314
0.000342054
0.000338596
0.000332455
0.000324846
0.000317166
0.000310794
0.000306697
0.000305112
0.000305418
0.000306266
0.000306401
0.0003068
0.000314898
0.000337622
0.000362199
0.000372654
0.000372293
0.000368315
0.000364759
0.000363203
0.000364152
0.000367737
0.000373963
0.000382767
0.000393995
0.000407349
0.000422322
0.000438144
0.000453784
0.000468043
0.000479772
0.000488161
0.000492986
0.000494693
0.000494234
0.000492724
0.000491094
0.000489872
0.000489166
0.000488789
0.000488454
0.00048795
0.000487227
0.000486424
0.000485863
0.000486031
0.000487495
0.000490753
0.000496797
0.000504432
0.000513761
0.000524942
0.000537832
0.000551597
0.000563995
0.000573461
0.000579411
0.000580725
0.000576593
0.000567157
0.000553675
0.000537549
0.000519614
0.000501057
0.000483173
0.000467406
0.000455364
0.000448761
0.000449174
0.000457551
0.000458186
0.000440708
0.000432555
0.000433936
0.000443493
0.00045976
0.000482164
0.000512981
0.000557652
0.000614817
0.000619505
0.000622844
0.000624077
0.000620927
0.000610978
0.000593296
0.000568973
0.000540185
0.000509163
0.000478871