/*--------------------------------*- C++ -*----------------------------------*\
| =========                 |                                                 |
| \\      /  F ield         | OpenFOAM: The Open Source CFD Toolbox           |
|  \\    /   O peration     | Version:  2112                                  |
|   \\  /    A nd           | Website:  www.openfoam.com                      |
|    \\/     M anipulation  |                                                 |
\*---------------------------------------------------------------------------*/
FoamFile
{
    version     2.0;
    format      ascii;
    arch        "LSB;label=32;scalar=64";
    class       volScalarField;
    location    "0.12";
    object      nut;
}
// * * * * * * * * * * * * * * * * * * * * * * * * * * * * * * * * * * * * * //

dimensions      [0 2 -1 0 0 0 0];

internalField   nonuniform List<scalar> 
12225
(
1.01041e-05
1.763e-05
2.54595e-05
3.44522e-05
4.53032e-05
5.85088e-05
7.43542e-05
9.28818e-05
0.000113889
0.000136966
0.000161568
0.000187083
0.000212904
0.000238473
0.000263367
0.000286993
0.000310665
0.000328753
5.70154e-05
3.22737e-05
2.72703e-05
2.70644e-05
2.90345e-05
3.23434e-05
3.66397e-05
4.18037e-05
4.7905e-05
5.51322e-05
6.3786e-05
7.41127e-05
8.62172e-05
0.000100055
0.000115479
0.000132648
0.000153264
0.000176876
0.000522241
0.000192941
0.000111288
7.70804e-05
5.97867e-05
5.03463e-05
4.51473e-05
4.23805e-05
4.12096e-05
4.12599e-05
4.23822e-05
4.45259e-05
4.76667e-05
5.17786e-05
5.68171e-05
6.28732e-05
7.02211e-05
7.9094e-05
0.00184795
0.000912086
0.000557467
0.000380752
0.000279442
0.000215534
0.00017075
0.00013974
0.000117945
0.000102082
9.01926e-05
8.11675e-05
7.43624e-05
6.94011e-05
6.6124e-05
6.41517e-05
6.33061e-05
6.34986e-05
0.00244624
0.00220273
0.00157545
0.00118174
0.000920773
0.00073764
0.000599702
0.000497024
0.000420207
0.000361273
0.000314751
0.000277144
0.000246233
0.000220093
0.000195798
0.000174886
0.000157601
0.000143613
0.00276384
0.00288483
0.00276152
0.00227981
0.00191575
0.00163134
0.00140432
0.00122198
0.00107422
0.000953039
0.000852206
0.000767137
0.000694537
0.000631093
0.000571365
0.000518157
0.000472245
0.000433543
0.00322273
0.00318313
0.00307158
0.00301592
0.0029068
0.00261808
0.00236026
0.00214321
0.00195454
0.00179084
0.00164816
0.00152298
0.00141248
0.00131411
0.00122456
0.00114168
0.00106609
0.000999451
0.00383177
0.00364429
0.00333881
0.00314893
0.00299001
0.00292218
0.00297181
0.00302642
0.00283519
0.00266394
0.00250864
0.0023666
0.00223623
0.00211652
0.00199197
0.0017762
0.00157269
0.0014153
0.00455737
0.00419085
0.00373587
0.00339127
0.00312136
0.00297987
0.00296247
0.00301898
0.00306554
0.00303476
0.00291004
0.00271505
0.00248945
0.00226347
0.00205299
0.0018596
0.00168638
0.00155519
0.00463533
0.0046223
0.0041726
0.00374008
0.00339274
0.00316054
0.00304095
0.0029964
0.00298426
0.00294353
0.0028451
0.00269169
0.00250565
0.00230932
0.00211929
0.00194969
0.00180284
0.00169407
0.00463777
0.00463405
0.0046177
0.00411324
0.00370516
0.00341774
0.00323886
0.00312117
0.00302834
0.00293619
0.00282605
0.00269117
0.00253757
0.00237563
0.00221462
0.00206512
0.00193458
0.00183884
0.0046383
0.00463722
0.00463466
0.00445721
0.00400815
0.00367529
0.00345273
0.0032916
0.00315335
0.00301995
0.00288219
0.00273718
0.00258767
0.00243885
0.00229586
0.00216582
0.00205353
0.00197264
0.00463836
0.00463805
0.0046375
0.00463637
0.00431792
0.00394325
0.00367322
0.0034736
0.00330434
0.00314385
0.00298485
0.00282747
0.00267497
0.00253109
0.00239921
0.00228387
0.00218692
0.00211874
0.00463826
0.00463804
0.00463805
0.00463813
0.00463807
0.0042521
0.00393418
0.00369182
0.00349163
0.00331004
0.00313775
0.00297386
0.00282078
0.00268131
0.00255794
0.00245381
0.00236903
0.0023111
0.00463813
0.00463779
0.00463778
0.00463806
0.00463851
0.00455855
0.00422035
0.00394092
0.00371235
0.0035141
0.00333467
0.00317062
0.0030222
0.00289068
0.00277754
0.00268492
0.00261176
0.00256329
0.00463802
0.00463752
0.00463735
0.00463751
0.00463794
0.00463855
0.00449812
0.00420404
0.00395679
0.00374948
0.00356969
0.00341146
0.00327308
0.00315424
0.00305513
0.00297684
0.00291727
0.00287947
0.00463794
0.00463732
0.004637
0.00463698
0.00463726
0.00463776
0.00463841
0.00446199
0.00421246
0.00400647
0.00383558
0.00369074
0.00356823
0.00346665
0.00338523
0.00332404
0.00328039
0.00325501
0.0046379
0.00463721
0.00463678
0.00463664
0.00463677
0.00463713
0.00463767
0.00463832
0.00446777
0.0042763
0.00412449
0.00400244
0.00390318
0.00382413
0.00376406
0.00372244
0.00369655
0.00368395
0.00463791
0.00463721
0.00463676
0.00463657
0.00463663
0.00463691
0.00463735
0.00463791
0.00463853
0.0045119
0.0043946
0.004307
0.00424206
0.00419544
0.00416482
0.00414883
0.00414502
0.00414758
0.00463796
0.00463734
0.00463695
0.0046368
0.00463685
0.00463705
0.00463734
0.00463764
0.0046379
0.00460178
0.00453493
0.0044996
0.00448766
0.00449062
0.00450319
0.00452281
0.00454823
0.00457328
0.00463805
0.00463748
0.00463704
0.00463666
0.0046362
0.00463552
0.00463448
0.00463296
0.00463089
0.00458904
0.00458637
0.00462065
0.00461591
0.00461055
0.00460462
0.00459817
0.00459127
0.004584
0.00463803
0.00463699
0.00463522
0.00463221
0.00462752
0.00462081
0.0046119
0.0045864
0.00453008
0.0045503
0.00455384
0.00453448
0.00451366
0.00449164
0.00446863
0.00444487
0.00442055
0.00439603
0.00463684
0.00463117
0.00461973
0.00460112
0.00457479
0.00454098
0.00447029
0.00439299
0.0044032
0.00434882
0.0042921
0.00423394
0.00417508
0.00411613
0.00405754
0.00399966
0.00394278
0.00388747
0.00462714
0.00459337
0.00453439
0.00445183
0.00435034
0.00423553
0.00411263
0.00398609
0.00385974
0.0037357
0.00361564
0.00350055
0.00339092
0.00328683
0.00318811
0.00309453
0.00300585
0.00292227
0.00456816
0.00440892
0.00418686
0.00393262
0.00367067
0.00341653
0.00317859
0.00296053
0.00276323
0.00258598
0.00242726
0.00228517
0.00215761
0.00204217
0.00193688
0.00184039
0.00175172
0.00167034
0.00426359
0.00373746
0.00318807
0.00270984
0.00231661
0.00199886
0.00174262
0.00153505
0.00136573
0.00122644
0.0011108
0.00101379
0.000930972
0.000857597
0.000791691
0.000732978
0.000680893
0.000634678
0.00320946
0.00216846
0.00149425
0.00109077
0.000835621
0.000664476
0.000544402
0.000457178
0.000392037
0.000342241
0.000303364
0.000272388
0.000246979
0.00022485
0.000205229
0.00018816
0.000173465
0.000160856
0.00116199
0.000550905
0.000312285
0.000207819
0.000152688
0.000119899
9.88841e-05
8.4734e-05
7.48898e-05
6.78933e-05
6.28581e-05
5.92221e-05
5.66292e-05
5.48708e-05
5.37849e-05
5.32449e-05
5.31784e-05
5.35485e-05
0.000114749
5.52292e-05
3.97348e-05
3.39091e-05
3.1835e-05
3.16878e-05
3.27229e-05
3.45742e-05
3.70287e-05
3.99459e-05
4.32323e-05
4.68345e-05
5.07399e-05
5.49768e-05
5.95982e-05
6.46626e-05
7.02698e-05
7.64419e-05
9.55794e-06
1.55437e-05
2.12382e-05
2.70753e-05
3.34527e-05
4.06606e-05
4.89077e-05
5.83387e-05
6.90444e-05
8.10663e-05
9.43972e-05
0.000108982
0.000124721
0.00014148
0.000159095
0.000177389
0.000196192
0.000215246
0.000415457
0.00041853
0.000424641
0.000432961
0.000442864
0.000453671
0.0004646
0.000474727
0.000478463
0.000451528
0.000431909
0.000421608
0.000417854
0.000419025
0.000424516
0.000433965
0.000448388
0.0004713
0.000496816
0.000496417
0.000495088
0.000492866
0.000489873
0.000486318
0.000482559
0.000479267
0.000477924
0.000482138
0.00049798
0.000532778
0.000592151
0.000674678
0.000761183
0.000781198
0.000809015
0.000848072
0.000890701
0.000932026
0.00097032
0.00100533
0.00103716
0.00106596
0.00109189
0.00111513
0.00113584
0.00115416
0.0011702
0.00118409
0.0011959
0.00120572
0.00121363
0.00121973
0.0012241
0.00122687
0.00122813
0.00122803
0.00122669
0.00122426
0.00122088
0.0012167
0.00121185
0.00120646
0.00120067
0.0011946
0.00118835
0.00118202
0.00117569
0.00116945
0.00116335
0.00115746
0.0011518
0.00114643
0.00114136
0.0011366
0.00113218
0.00112808
0.00112432
0.00112088
0.00111776
0.00111493
0.00111238
0.00111009
0.00110804
0.0011062
0.00110455
0.00110306
0.0011017
0.00110044
0.00109925
0.00109809
0.00109693
0.00109574
0.00109447
0.00109311
0.0010916
0.00108992
0.00108804
0.00108591
0.00108352
0.00108082
0.0010778
0.00107443
0.00107069
0.00106656
0.00106202
0.00105707
0.00105169
0.00104589
0.00103967
0.00103303
0.00102597
0.00101852
0.00101068
0.00100247
0.000993909
0.000985016
0.000975809
0.000966308
0.00095653
0.000946498
0.000936252
0.000925823
0.00091517
0.000904259
0.0008933
0.000882349
0.000871446
0.000860636
0.000849971
0.000839511
0.000829322
0.000819487
0.000810101
0.000801281
0.000793171
0.000785959
0.00077989
0.000775281
0.000772563
0.000772341
0.000775481
0.00078321
0.000797347
0.000820734
0.000857963
0.000916743
0.00101158
0.00117399
0.00146813
0.00191507
0.00185574
0.00180735
0.00175823
0.00144881
0.00115615
0.000990827
0.000889513
0.000824862
0.000783692
0.000758677
0.000745455
0.000741293
0.00074442
0.000753692
0.000768377
0.000787985
0.00081198
0.000839619
0.000870039
0.000902412
0.000936059
0.000970507
0.00100544
0.00104062
0.0010759
0.00111138
0.00114639
0.00118108
0.00121436
0.00126222
0.000402968
0.000406553
0.000413868
0.000423507
0.000434509
0.00044609
0.000457593
0.000468474
0.000478302
0.000486823
0.000494026
0.000499946
0.000504654
0.000508238
0.000510786
0.000512339
0.000512981
0.000512887
0.000512216
0.000510962
0.000509119
0.000506653
0.000503562
0.000499911
0.000495906
0.00049209
0.000489864
0.000492776
0.0005069
0.00053964
0.000596782
0.000677675
0.000773956
0.00087415
0.000968882
0.00105249
0.00112304
0.00118118
0.00122881
0.00126809
0.00130092
0.0013288
0.00135283
0.00137379
0.00139221
0.00140846
0.00142282
0.0014355
0.00144666
0.00145643
0.00146494
0.00147229
0.00147859
0.00148395
0.00148845
0.00149219
0.00149529
0.00149782
0.00149987
0.00150153
0.00150287
0.00150396
0.00150486
0.0015056
0.00150624
0.0015068
0.0015073
0.00150775
0.00150818
0.00150856
0.00150892
0.00150924
0.00150951
0.00150973
0.00150989
0.00150998
0.00151
0.00150993
0.00150976
0.0015095
0.00150914
0.00150866
0.00150807
0.00150736
0.00150653
0.00150557
0.00150447
0.00150322
0.00150183
0.00150029
0.00149858
0.00149671
0.00149466
0.00149243
0.00149001
0.00148741
0.00148461
0.00148163
0.00147847
0.00147512
0.0014716
0.00146792
0.0014641
0.00146016
0.00145611
0.00145199
0.00144782
0.00144365
0.00143951
0.00143544
0.00143149
0.00142773
0.00142419
0.00142095
0.00141807
0.00141564
0.00141372
0.0014124
0.00141178
0.00141194
0.00141296
0.00141493
0.00141782
0.00142154
0.00142657
0.00143306
0.00144114
0.00145097
0.00146272
0.00147655
0.00149264
0.00151117
0.00153234
0.00155632
0.00158327
0.00161332
0.00164654
0.00168291
0.00172226
0.00176418
0.00180796
0.00185244
0.00189591
0.00193602
0.00196975
0.0019936
0.00200404
0.00199826
0.00197532
0.00193756
0.00190072
0.00187254
0.00184377
0.00180267
0.00175288
0.00169907
0.00164471
0.00159233
0.00154373
0.00150014
0.00146235
0.00143078
0.00140557
0.00138619
0.00136948
0.00134702
0.00131394
0.00127543
0.00123962
0.00121243
0.00119743
0.00119606
0.00120821
0.00123314
0.0012698
0.00131694
0.00137359
0.00143783
0.00150277
0.00156232
0.000395861
0.000401067
0.000411438
0.00042447
0.000438583
0.000452666
0.000465958
0.000477989
0.000488527
0.000497529
0.000505079
0.000511331
0.000516469
0.00052068
0.000524129
0.000526887
0.000528792
0.000529809
0.000529941
0.000529191
0.000527559
0.000525037
0.000521637
0.000517437
0.000512673
0.000507966
0.000504899
0.000507312
0.00052121
0.000553503
0.000609199
0.000687384
0.000780317
0.000877183
0.000968766
0.0010496
0.00111782
0.00117403
0.00121999
0.00125778
0.00128928
0.00131599
0.00133904
0.00135922
0.00137712
0.00139311
0.00140752
0.00142054
0.00143237
0.00144315
0.001453
0.00146205
0.00147039
0.00147813
0.00148535
0.00149215
0.00149861
0.00150481
0.00151081
0.00151668
0.00152247
0.00152821
0.00153394
0.00153966
0.00154538
0.0015511
0.00155679
0.00156244
0.00156801
0.00157347
0.00157879
0.00158392
0.00158885
0.00159353
0.00159794
0.00160206
0.00160588
0.00160939
0.00161258
0.00161546
0.00161805
0.00162034
0.00162237
0.00162415
0.00162571
0.00162707
0.00162826
0.00162931
0.00163024
0.00163109
0.00163188
0.00163264
0.0016334
0.00163418
0.00163502
0.00163595
0.00163697
0.00163814
0.00163946
0.00164097
0.0016427
0.00164466
0.0016469
0.00164943
0.00165228
0.00165548
0.00165906
0.00166304
0.00166744
0.00167231
0.00167765
0.0016835
0.00168989
0.00169683
0.00170436
0.00171249
0.00172126
0.00173067
0.00174075
0.00175149
0.00176291
0.00177463
0.00178671
0.00179955
0.00181326
0.00182785
0.00184332
0.00185967
0.00187685
0.00189482
0.00191352
0.00193284
0.00195265
0.00197277
0.00199297
0.00201297
0.00203242
0.00205088
0.00206784
0.00208267
0.00209468
0.00210309
0.00210706
0.0021058
0.00209867
0.00208532
0.00206583
0.00204104
0.00201202
0.00198122
0.00195466
0.00193354
0.00191247
0.00188778
0.00186023
0.0018311
0.00180134
0.0017717
0.00174281
0.00171524
0.00168946
0.00166588
0.00164479
0.00162605
0.00160818
0.00158755
0.00156113
0.00152922
0.00149431
0.00145774
0.00141674
0.00137133
0.001328
0.00129398
0.00127428
0.00127212
0.00129007
0.00132994
0.00138876
0.00146047
0.000340442
0.000401046
0.000417912
0.000436821
0.000455853
0.00047367
0.000489428
0.000502719
0.000513473
0.000521864
0.000528216
0.000532924
0.000536407
0.000539065
0.000541269
0.000543138
0.000544638
0.000545682
0.000546128
0.000545789
0.00054447
0.000542014
0.000538348
0.000533541
0.000527907
0.000522233
0.000518785
0.000521824
0.000536975
0.000570336
0.000625625
0.000701106
0.000789372
0.000880648
0.000966667
0.00104254
0.00110663
0.0011595
0.00120282
0.00123853
0.00126842
0.00129393
0.00131616
0.00133588
0.00135368
0.00136994
0.00138498
0.00139901
0.00141223
0.00142478
0.00143679
0.00144837
0.00145964
0.00147069
0.0014816
0.00149247
0.00150336
0.00151435
0.0015255
0.00153685
0.00154843
0.00156026
0.00157233
0.00158464
0.00159715
0.00160982
0.00162259
0.00163539
0.00164815
0.00166079
0.00167323
0.0016854
0.00169723
0.00170865
0.0017196
0.00173006
0.00173999
0.00174938
0.00175822
0.00176653
0.00177432
0.00178163
0.0017885
0.00179498
0.00180112
0.00180698
0.00181262
0.00181812
0.00182352
0.00182891
0.00183434
0.00183987
0.00184558
0.00185151
0.00185773
0.00186427
0.0018712
0.00187854
0.00188635
0.00189464
0.00190344
0.00191277
0.00192266
0.00193309
0.00194407
0.0019556
0.00196766
0.00198022
0.00199326
0.00200675
0.00202063
0.00203487
0.00204941
0.00206419
0.00207915
0.00209423
0.00210934
0.00212443
0.0021394
0.0021542
0.00216823
0.00218164
0.00219475
0.00220761
0.00222018
0.00223236
0.00224407
0.00225517
0.00226556
0.00227508
0.00228358
0.00229088
0.0022968
0.00230114
0.00230366
0.00230413
0.00230232
0.00229797
0.00229085
0.00228071
0.00226734
0.0022506
0.00223048
0.00220689
0.00218007
0.00215051
0.00211871
0.00208617
0.00205218
0.00202023
0.00199154
0.00196552
0.00194034
0.00191493
0.00188961
0.00186483
0.00184091
0.00181802
0.00179638
0.00177614
0.00175749
0.00174055
0.00172542
0.00171204
0.00169985
0.00168755
0.00167376
0.00165772
0.00163924
0.00161789
0.00159208
0.00156097
0.00152623
0.00149094
0.00145712
0.00142455
0.00139558
0.00137794
0.00137848
0.0014017
0.000297975
0.000408224
0.000433278
0.000459125
0.000483468
0.00050478
0.000522263
0.000535735
0.000545461
0.000551979
0.000555955
0.000558083
0.000559016
0.000559329
0.0005595
0.000559608
0.000559806
0.000560057
0.000560155
0.000559766
0.000558494
0.000555973
0.000551974
0.0005465
0.000539868
0.000533924
0.000531322
0.000536238
0.000553936
0.000589395
0.00064482
0.000717548
0.000800488
0.00088506
0.000964233
0.00103394
0.00109291
0.00114174
0.001182
0.00121546
0.00124378
0.0012683
0.00129003
0.00130973
0.00132791
0.00134498
0.00136123
0.00137688
0.00139211
0.00140708
0.00142193
0.00143677
0.00145171
0.00146686
0.0014823
0.00149813
0.00151443
0.00153126
0.00154868
0.00156672
0.00158541
0.00160473
0.00162467
0.00164517
0.00166616
0.00168756
0.00170924
0.0017311
0.001753
0.0017748
0.00179638
0.0018176
0.00183833
0.00185849
0.00187798
0.00189672
0.00191468
0.00193181
0.00194811
0.00196359
0.00197828
0.00199221
0.00200544
0.00201804
0.00203009
0.00204167
0.00205286
0.00206377
0.00207448
0.0020851
0.00209571
0.0021064
0.00211726
0.00212837
0.00213979
0.00215161
0.00216386
0.0021766
0.00218986
0.00220366
0.00221803
0.00223295
0.00224842
0.0022644
0.00228087
0.00229776
0.00231502
0.00233257
0.00235032
0.00236817
0.00238601
0.00240374
0.00242122
0.00243834
0.00245497
0.00247099
0.00248626
0.00250067
0.00251409
0.00252586
0.00253621
0.00254535
0.00255333
0.0025601
0.00256558
0.00256966
0.00257224
0.0025732
0.00257243
0.00256981
0.00256522
0.00255857
0.00254973
0.00253861
0.00252509
0.00250905
0.00249041
0.00246912
0.0024452
0.00241857
0.00238914
0.002357
0.00232263
0.00228591
0.00224692
0.0022066
0.00216454
0.00212363
0.00208333
0.00200555
0.00193094
0.00186553
0.00180986
0.00175994
0.00171175
0.00166962
0.00163717
0.00161457
0.00160101
0.00159574
0.00159822
0.00160793
0.00162432
0.00164707
0.00167618
0.00167725
0.0016691
0.00166088
0.00165229
0.00164291
0.00163205
0.00161905
0.00160374
0.00158641
0.00156725
0.00154587
0.00152247
0.00149849
0.00147794
0.0014643
0.000273803
0.000423212
0.000456788
0.000489233
0.000517788
0.000540893
0.000558079
0.000569689
0.000576565
0.000579767
0.000580377
0.000579379
0.000577598
0.000575667
0.000573995
0.000572618
0.000571718
0.000571233
0.000570884
0.000570224
0.000568706
0.000565693
0.000560935
0.000554878
0.00054838
0.000543358
0.000542845
0.000550929
0.000572191
0.000610253
0.000665805
0.000735429
0.000812518
0.000889781
0.000961512
0.00102454
0.00107801
0.0011226
0.00115973
0.00119104
0.00121799
0.00124179
0.00126336
0.00128338
0.00130234
0.00132061
0.00133847
0.00135615
0.00137382
0.00139165
0.00140978
0.00142833
0.00144744
0.00146721
0.00148775
0.00150916
0.00153152
0.00155491
0.00157937
0.00160494
0.0016316
0.00165934
0.00168808
0.00171773
0.00174816
0.00177924
0.00181078
0.00184259
0.00187449
0.00190628
0.00193775
0.00196874
0.00199907
0.00202859
0.00205719
0.00208477
0.00211126
0.00213661
0.0021608
0.00218384
0.00220575
0.00222658
0.00224638
0.00226524
0.00228324
0.00230049
0.00231707
0.00233311
0.00234871
0.00236399
0.00237905
0.002394
0.00240894
0.00242397
0.00243917
0.0024546
0.00247035
0.00248644
0.00250292
0.00251981
0.00253711
0.00255481
0.00257288
0.00259127
0.00260992
0.00262875
0.00264767
0.00266656
0.00268531
0.00270377
0.00272181
0.00273927
0.00275599
0.00277182
0.00278661
0.0028002
0.00281248
0.00282312
0.00283159
0.00283816
0.00284293
0.00284595
0.00284717
0.00284653
0.00284396
0.00283936
0.00283267
0.0028238
0.00281269
0.00279925
0.0027834
0.0027651
0.0027443
0.00272102
0.00269521
0.00266678
0.00263566
0.00260182
0.00256562
0.00252704
0.00248576
0.00244154
0.00239591
0.0023485
0.00229824
0.00222934
0.00212345
0.00201969
0.0019228
0.00183781
0.00176373
0.00169755
0.00163923
0.00158605
0.00153627
0.00149248
0.00145687
0.00142989
0.00141107
0.00139979
0.00139545
0.0013975
0.00140534
0.00141857
0.00143665
0.00145875
0.00148523
0.001516
0.00155066
0.00158905
0.0015963
0.00159175
0.0015865
0.00158056
0.00157388
0.00156639
0.00155804
0.00154813
0.00153676
0.00152481
0.000260226
0.000446279
0.000487555
0.000524873
0.000555229
0.000577438
0.000591757
0.000599352
0.00060179
0.000600688
0.000597496
0.000593396
0.000589259
0.000585643
0.000582738
0.00058056
0.000579138
0.000578221
0.000577421
0.000576225
0.000574082
0.000570552
0.000565561
0.000559708
0.000554292
0.000551494
0.000554396
0.000566718
0.000592066
0.000632621
0.00068776
0.000753649
0.000824389
0.000894026
0.000958143
0.00101443
0.00106243
0.00110287
0.00113704
0.00116639
0.0011922
0.00121553
0.00123718
0.00125777
0.00127774
0.00129743
0.00131712
0.00133702
0.00135732
0.00137818
0.00139977
0.00142222
0.00144568
0.00147027
0.00149611
0.0015233
0.00155194
0.0015821
0.0016138
0.00164707
0.00168185
0.00171809
0.00175566
0.00179442
0.00183417
0.00187472
0.00191581
0.0019572
0.00199863
0.00203987
0.00208067
0.0021208
0.00216008
0.00219832
0.00223539
0.00227118
0.00230559
0.00233858
0.00237011
0.00240019
0.00242883
0.00245608
0.00248199
0.00250664
0.00253011
0.00255251
0.00257394
0.00259452
0.00261435
0.00263356
0.00265225
0.00267056
0.00268857
0.0027064
0.00272413
0.00274184
0.00275961
0.00277749
0.00279552
0.00281371
0.00283208
0.00285061
0.00286927
0.00288801
0.00290677
0.00292545
0.00294396
0.00296216
0.00297994
0.00299714
0.00301361
0.00302917
0.00304366
0.00305689
0.00306872
0.00307893
0.00308704
0.00309285
0.00309643
0.00309785
0.00309713
0.00309425
0.00308912
0.00308168
0.00307187
0.00305963
0.00304491
0.00302767
0.00300786
0.00298542
0.00296028
0.00293239
0.00290172
0.00286837
0.00283244
0.00279384
0.00275234
0.00270759
0.00266055
0.00261152
0.0025599
0.00249686
0.00239391
0.00228919
0.0021831
0.00207727
0.00197462
0.00187717
0.00178794
0.00170925
0.00163814
0.0015735
0.00151512
0.00146179
0.00141292
0.00136975
0.00133359
0.00130482
0.0012831
0.00126783
0.00125837
0.00125409
0.0012544
0.001259
0.00126745
0.00128089
0.0012991
0.00132157
0.00134789
0.0013775
0.00140927
0.00144289
0.00147744
0.00151153
0.00153187
0.00153165
0.00153151
0.00153144
0.00153096
0.001519
0.0002551
0.000477967
0.000524528
0.000563572
0.000592464
0.000610924
0.000620212
0.000622404
0.000619721
0.000614191
0.000607468
0.00060077
0.00059487
0.000590115
0.000586468
0.000583913
0.000582226
0.000581019
0.000579802
0.000578074
0.000575418
0.000571656
0.000567025
0.000562382
0.00055928
0.00055999
0.000567373
0.000584478
0.000613768
0.000656085
0.000709862
0.00077124
0.000835217
0.000897147
0.000953785
0.00100358
0.00104638
0.00108293
0.00111441
0.00114203
0.00116691
0.00118994
0.00121182
0.0012331
0.00125416
0.00127533
0.00129687
0.00131899
0.00134188
0.00136572
0.00139069
0.00141693
0.00144459
0.00147383
0.00150475
0.00153748
0.00157209
0.00160864
0.00164714
0.00168756
0.00172983
0.00177382
0.00181937
0.00186627
0.00191428
0.00196312
0.00201251
0.00206216
0.00211178
0.00216109
0.00220982
0.00225775
0.00230465
0.00235035
0.00239469
0.00243755
0.00247885
0.00251852
0.00255653
0.00259286
0.00262753
0.00266056
0.00269202
0.00272196
0.00275045
0.0027776
0.00280348
0.00282821
0.00285189
0.00287464
0.00289658
0.0029178
0.00293842
0.00295855
0.00297827
0.00299768
0.00301684
0.00303581
0.00305465
0.00307337
0.003092
0.00311053
0.00312894
0.00314717
0.00316519
0.0031829
0.00320021
0.003217
0.00323315
0.00324851
0.00326292
0.0032762
0.00328822
0.00329869
0.00330723
0.00331351
0.00331747
0.00331904
0.00331822
0.003315
0.00330933
0.00330115
0.00329039
0.00327695
0.00326076
0.00324177
0.00321997
0.00319538
0.00316795
0.00313759
0.00310427
0.00306791
0.00302832
0.00298569
0.00294042
0.0028925
0.00284161
0.00278551
0.00268927
0.00258926
0.00248592
0.00237992
0.00227412
0.00216986
0.00206744
0.00196888
0.00187424
0.00178419
0.00169995
0.00162166
0.00154913
0.00148269
0.00142258
0.0013684
0.00131979
0.0012773
0.00124169
0.00121314
0.00119132
0.0011756
0.00116529
0.00115971
0.00115821
0.00116035
0.00116588
0.00117458
0.00118593
0.00119953
0.00121532
0.00123292
0.0012536
0.00127687
0.00130187
0.00132754
0.0013522
0.00137349
0.00138967
0.00139569
0.00139982
0.00139003
0.000258365
0.000518576
0.000566124
0.000602658
0.000626715
0.000639249
0.000642497
0.000639128
0.000631704
0.000622397
0.000612856
0.000604182
0.000596956
0.000591301
0.000587173
0.000584304
0.000582294
0.000580676
0.000578989
0.000576853
0.00057407
0.000570742
0.000567399
0.000565105
0.00056549
0.000570671
0.000583023
0.000604732
0.000637126
0.000679989
0.000731248
0.00078737
0.000844345
0.000898723
0.000948257
0.000991995
0.00103002
0.00106307
0.00109214
0.00111827
0.00114237
0.00116522
0.00118739
0.00120936
0.00123147
0.00125404
0.00127729
0.00130145
0.0013267
0.00135325
0.00138125
0.00141089
0.00144231
0.00147566
0.00151107
0.00154863
0.00158842
0.00163045
0.00167473
0.00172117
0.00176967
0.00182006
0.00187211
0.00192559
0.00198021
0.00203566
0.00209162
0.00214779
0.00220386
0.00225955
0.00231457
0.0023687
0.00242173
0.00247346
0.00252375
0.00257247
0.00261953
0.00266487
0.00270844
0.00275022
0.00279021
0.00282844
0.00286492
0.00289972
0.00293287
0.00296447
0.00299457
0.00302328
0.00305068
0.00307687
0.00310197
0.00312606
0.00314926
0.00317166
0.00319336
0.00321443
0.00323496
0.003255
0.0032746
0.00329381
0.00331264
0.00333109
0.00334916
0.00336681
0.00338401
0.00340068
0.00341673
0.00343207
0.00344659
0.00346018
0.00347261
0.00348366
0.00349297
0.00350031
0.00350546
0.00350825
0.00350856
0.00350634
0.00350151
0.00349403
0.00348382
0.00347079
0.00345486
0.00343593
0.00341389
0.00338863
0.00336015
0.00332872
0.00329419
0.0032564
0.00321537
0.00317112
0.00312314
0.00307143
0.00298633
0.00289551
0.00280013
0.00270041
0.00259844
0.00249596
0.00239326
0.00229186
0.00219213
0.00209387
0.00199722
0.00190181
0.00180765
0.00171629
0.00162922
0.00154747
0.00147187
0.00140313
0.00134163
0.00128721
0.00123948
0.00119852
0.0011646
0.00113769
0.00111738
0.00110307
0.00109407
0.00108969
0.00108929
0.0010923
0.00109836
0.00110692
0.00111722
0.00112862
0.00114077
0.0011534
0.00116627
0.00117893
0.00119142
0.00120367
0.0012161
0.00122801
0.00123832
0.00124395
0.00125264
0.00125362
0.000272961
0.00056712
0.000610593
0.000640875
0.000657916
0.000663644
0.000660831
0.000652368
0.00064086
0.000628417
0.000616558
0.000606206
0.000597747
0.000591264
0.000586536
0.000583148
0.000580632
0.000578546
0.000576539
0.00057441
0.00057219
0.000570219
0.000569208
0.000570284
0.000574951
0.000584952
0.000602003
0.000627395
0.000661513
0.000703465
0.000751088
0.000801406
0.000851385
0.000898603
0.000941601
0.000979875
0.00101366
0.00104361
0.00107058
0.00109543
0.00111889
0.0011416
0.00116405
0.00118664
0.00120969
0.00123345
0.00125817
0.00128405
0.00131129
0.00134007
0.00137058
0.00140297
0.00143742
0.00147406
0.001513
0.00155434
0.00159812
0.00164434
0.00169298
0.00174392
0.00179702
0.00185207
0.00190885
0.00196707
0.00202642
0.0020866
0.00214727
0.00220812
0.00226885
0.00232916
0.00238881
0.00244755
0.00250518
0.00256152
0.00261643
0.00266977
0.00272146
0.00277142
0.00281961
0.00286599
0.00291055
0.00295329
0.00299423
0.00303339
0.00307081
0.00310652
0.0031406
0.00317309
0.00320408
0.00323365
0.00326189
0.00328889
0.00331475
0.00333955
0.00336339
0.00338634
0.00340847
0.00342984
0.00345051
0.0034705
0.00348983
0.00350852
0.00352656
0.00354394
0.00356064
0.00357657
0.00359166
0.00360579
0.00361883
0.00363057
0.00364085
0.00364947
0.00365619
0.00366076
0.00366298
0.00366262
0.0036596
0.00365386
0.00364528
0.00363378
0.00361926
0.00360162
0.00358078
0.00355666
0.00352911
0.00349786
0.00346279
0.00342479
0.00338353
0.00333859
0.00326377
0.00318381
0.00309894
0.00300931
0.00291629
0.0028212
0.00272441
0.00262693
0.00252971
0.00243254
0.00233549
0.00223793
0.00213929
0.0020401
0.00194087
0.00184169
0.00174344
0.00164798
0.00155719
0.00147264
0.00139538
0.00132608
0.00126502
0.00121196
0.00116644
0.00112816
0.00109701
0.00107275
0.0010549
0.00104288
0.00103604
0.00103374
0.00103538
0.00104039
0.00104831
0.00105855
0.00107035
0.00108298
0.00109584
0.00110857
0.00112069
0.00113176
0.00114165
0.00115012
0.00115678
0.00116078
0.00116245
0.00116083
0.00116526
0.00116329
0.0003056
0.000621728
0.000655883
0.000676986
0.000685907
0.000684881
0.000676629
0.000663865
0.000649
0.000633962
0.000620105
0.0006082
0.000598584
0.000591224
0.000585759
0.000581744
0.000578751
0.000576428
0.00057456
0.00057312
0.000572334
0.000572654
0.000574813
0.000579836
0.000588926
0.000603326
0.00062407
0.000651686
0.000685911
0.000725564
0.000768688
0.000812967
0.000856242
0.00089691
0.000934094
0.000967596
0.000997711
0.00102503
0.00105023
0.001074
0.00109694
0.00111955
0.00114225
0.00116535
0.00118915
0.00121388
0.00123974
0.00126694
0.00129567
0.0013261
0.00135841
0.00139277
0.00142932
0.00146819
0.0015095
0.00155331
0.00159966
0.00164854
0.00169988
0.00175357
0.00180944
0.00186729
0.00192687
0.00198789
0.00205005
0.00211303
0.00217653
0.00224022
0.00230382
0.00236703
0.00242963
0.00249138
0.00255208
0.00261157
0.0026697
0.00272635
0.00278142
0.00283484
0.00288656
0.00293653
0.00298473
0.00303113
0.00307575
0.00311858
0.00315963
0.00319892
0.00323648
0.00327236
0.00330659
0.00333925
0.00337041
0.00340016
0.00342859
0.00345578
0.00348181
0.00350676
0.00353068
0.00355363
0.00357566
0.00359679
0.00361701
0.00363633
0.00365474
0.00367218
0.00368863
0.00370402
0.00371829
0.00373135
0.00374307
0.00375329
0.00376183
0.00376848
0.00377304
0.00377527
0.00377494
0.00377178
0.00376569
0.00375668
0.00374459
0.0037293
0.00371072
0.0036887
0.00366316
0.00363413
0.00360151
0.00356501
0.00350312
0.00343467
0.00336149
0.00328352
0.00320173
0.00311715
0.00303012
0.00294132
0.00285165
0.00276102
0.00266957
0.00257674
0.00248197
0.00238544
0.00228723
0.00218676
0.00208402
0.00197989
0.00187536
0.00177141
0.00166946
0.00157149
0.0014794
0.00139474
0.00131846
0.00125106
0.00119259
0.00114267
0.00110073
0.00106617
0.00103864
0.0010178
0.00100317
0.00099416
0.000990147
0.000990508
0.000994656
0.00100205
0.0010122
0.00102455
0.00103846
0.00105335
0.00106885
0.00108505
0.00110192
0.00111938
0.0011365
0.00115128
0.00116188
0.0011665
0.00116559
0.00115853
0.00115735
0.00114573
0.000373286
0.000677727
0.00069861
0.000709234
0.000710228
0.000703291
0.000690599
0.000674435
0.000656913
0.000639762
0.000624204
0.000610987
0.000600359
0.000592149
0.000586016
0.000581567
0.000578447
0.000576408
0.000575346
0.000575345
0.000576693
0.000579876
0.000585552
0.000594455
0.000607392
0.000625109
0.000648068
0.000676263
0.000709095
0.000745385
0.000783552
0.000821925
0.000859061
0.000893969
0.000926177
0.000955669
0.000982752
0.00100791
0.00103169
0.00105463
0.00107718
0.00109975
0.00112266
0.00114619
0.00117057
0.00119601
0.00122268
0.00125078
0.00128046
0.00131191
0.00134527
0.0013807
0.00141833
0.00145828
0.00150066
0.00154552
0.00159288
0.00164274
0.00169502
0.00174961
0.00180635
0.00186502
0.00192541
0.00198723
0.0020502
0.00211404
0.00217842
0.00224307
0.00230768
0.002372
0.00243578
0.00249882
0.00256094
0.00262196
0.00268176
0.00274021
0.00279723
0.00285274
0.00290667
0.00295897
0.0030096
0.00305854
0.00310576
0.00315124
0.00319497
0.00323694
0.00327715
0.00331562
0.00335236
0.00338742
0.00342089