/*--------------------------------*- C++ -*----------------------------------*\
| =========                 |                                                 |
| \\      /  F ield         | OpenFOAM: The Open Source CFD Toolbox           |
|  \\    /   O peration     | Version:  2112                                  |
|   \\  /    A nd           | Website:  www.openfoam.com                      |
|    \\/     M anipulation  |                                                 |
\*---------------------------------------------------------------------------*/
FoamFile
{
    version     2.0;
    format      ascii;
    arch        "LSB;label=32;scalar=64";
    class       volVectorField;
    location    "0.41";
    object      U;
}
// * * * * * * * * * * * * * * * * * * * * * * * * * * * * * * * * * * * * * //

dimensions      [0 1 -1 0 0 0 0];

internalField   nonuniform List<vector> 
12225
(
(9.75727 0.0598278 0)
(9.27814 0.0947139 0)
(8.79699 0.0989971 0)
(8.33648 0.0976277 0)
(7.92343 0.0932236 0)
(7.56927 0.0862179 0)
(7.27869 0.0794468 0)
(7.03117 0.0742887 0)
(6.82902 0.0689286 0)
(6.67579 0.0617494 0)
(6.57124 0.0525777 0)
(6.50978 0.0420502 0)
(6.48344 0.0342982 0)
(6.48099 0.0306086 0)
(6.48658 0.0301741 0)
(6.49591 0.0331747 0)
(6.45851 0.0589909 0)
(6.43512 0.0435802 0)
(10.1051 0.0738218 0)
(10.313 0.107065 0)
(10.4486 0.106799 0)
(10.518 0.105096 0)
(10.538 0.100465 0)
(10.5161 0.091287 0)
(10.4582 0.080384 0)
(10.3698 0.0694987 0)
(10.2543 0.056833 0)
(10.1133 0.0415544 0)
(9.94795 0.0248306 0)
(9.76152 0.00859735 0)
(9.55871 -0.0040282 0)
(9.34603 -0.0117411 0)
(9.13034 -0.0152306 0)
(8.92131 -0.0107214 0)
(8.71796 0.00255286 0)
(8.60222 0.072216 0)
(10.0112 0.0356358 0)
(10.0621 0.0538787 0)
(10.1159 0.058536 0)
(10.1653 0.0666704 0)
(10.2145 0.0739564 0)
(10.2618 0.0785694 0)
(10.303 0.0828746 0)
(10.3373 0.0882981 0)
(10.3646 0.0940332 0)
(10.3835 0.0998126 0)
(10.3922 0.106259 0)
(10.3898 0.113968 0)
(10.3753 0.122188 0)
(10.3483 0.130477 0)
(10.3084 0.138624 0)
(10.256 0.148613 0)
(10.1933 0.158454 0)
(10.1225 0.176867 0)
(10.0062 0.0297147 0)
(10.0349 0.058134 0)
(10.062 0.0677817 0)
(10.0812 0.0740779 0)
(10.0983 0.0777824 0)
(10.116 0.0783351 0)
(10.1328 0.0775887 0)
(10.1488 0.0768668 0)
(10.1648 0.0758377 0)
(10.1805 0.0741533 0)
(10.1955 0.0721874 0)
(10.2095 0.0706814 0)
(10.2227 0.0704417 0)
(10.2358 0.0727195 0)
(10.2493 0.078344 0)
(10.2647 0.0885154 0)
(10.2829 0.10243 0)
(10.3083 0.11779 0)
(10.0045 0.0247357 0)
(10.0272 0.0517593 0)
(10.0504 0.060256 0)
(10.0668 0.0649206 0)
(10.08 0.0684372 0)
(10.0926 0.0698812 0)
(10.1038 0.0703133 0)
(10.1136 0.0709855 0)
(10.1228 0.0719085 0)
(10.1316 0.0729017 0)
(10.1398 0.0743453 0)
(10.1474 0.0769109 0)
(10.1549 0.0810723 0)
(10.1629 0.0871218 0)
(10.1722 0.0949637 0)
(10.1844 0.104732 0)
(10.2005 0.115185 0)
(10.2256 0.124993 0)
(10.0032 0.0202237 0)
(10.021 0.0452396 0)
(10.0416 0.0550268 0)
(10.0575 0.0607018 0)
(10.0704 0.0651773 0)
(10.0824 0.067616 0)
(10.0933 0.0686869 0)
(10.1027 0.0695296 0)
(10.1113 0.0703533 0)
(10.1192 0.0710538 0)
(10.1265 0.0718813 0)
(10.1332 0.0733016 0)
(10.1397 0.0756502 0)
(10.1466 0.0791771 0)
(10.1546 0.0839528 0)
(10.1649 0.0900256 0)
(10.1786 0.0963703 0)
(10.1973 0.10151 0)
(10.0023 0.0166236 0)
(10.0163 0.0396705 0)
(10.0342 0.0504064 0)
(10.0492 0.0563921 0)
(10.0616 0.0607827 0)
(10.0731 0.0633374 0)
(10.0837 0.0645517 0)
(10.0931 0.0653999 0)
(10.1018 0.0662247 0)
(10.1098 0.0670352 0)
(10.1174 0.068041 0)
(10.1245 0.0696235 0)
(10.1315 0.0720863 0)
(10.139 0.0756096 0)
(10.1476 0.0801472 0)
(10.1582 0.0854123 0)
(10.1714 0.0904144 0)
(10.1879 0.0935307 0)
(10.0017 0.0137855 0)
(10.0127 0.0346184 0)
(10.0281 0.0456534 0)
(10.042 0.0517937 0)
(10.0538 0.0561615 0)
(10.0648 0.0589822 0)
(10.075 0.0605671 0)
(10.0844 0.0616628 0)
(10.093 0.0626581 0)
(10.1011 0.0636387 0)
(10.1089 0.0647699 0)
(10.1163 0.0663279 0)
(10.1238 0.0685217 0)
(10.1318 0.071412 0)
(10.1408 0.0748422 0)
(10.1514 0.0784208 0)
(10.1639 0.0813192 0)
(10.1786 0.0823734 0)
(10.0012 0.011509 0)
(10.01 0.0300377 0)
(10.0231 0.0409636 0)
(10.0359 0.0472544 0)
(10.0471 0.0516402 0)
(10.0575 0.0546344 0)
(10.0674 0.0564616 0)
(10.0766 0.0576925 0)
(10.0852 0.058732 0)
(10.0933 0.0597291 0)
(10.1011 0.0608248 0)
(10.1088 0.0622152 0)
(10.1167 0.0640361 0)
(10.125 0.0662842 0)
(10.1341 0.0687729 0)
(10.1445 0.0711205 0)
(10.1562 0.0726859 0)
(10.1694 0.0726438 0)
(10.0009 0.00965513 0)
(10.0079 0.0259383 0)
(10.019 0.0364316 0)
(10.0306 0.0427552 0)
(10.0412 0.0470966 0)
(10.0511 0.0501388 0)
(10.0607 0.0521068 0)
(10.0697 0.0534383 0)
(10.0782 0.0545126 0)
(10.0863 0.0555088 0)
(10.0942 0.0565472 0)
(10.1021 0.0577587 0)
(10.1101 0.0592186 0)
(10.1186 0.0608824 0)
(10.1277 0.0625567 0)
(10.1377 0.0639012 0)
(10.1487 0.0644256 0)
(10.1605 0.0635856 0)
(10.0007 0.00811913 0)
(10.0063 0.0222915 0)
(10.0158 0.0321029 0)
(10.0262 0.038302 0)
(10.0362 0.0425354 0)
(10.0456 0.0455442 0)
(10.0547 0.0475772 0)
(10.0635 0.0489679 0)
(10.0719 0.0500435 0)
(10.08 0.050989 0)
(10.088 0.0519094 0)
(10.096 0.0528887 0)
(10.1041 0.0539594 0)
(10.1125 0.0550574 0)
(10.1215 0.0560047 0)
(10.1311 0.0565248 0)
(10.1413 0.0562625 0)
(10.1519 0.0548823 0)
(10.0006 0.00690694 0)
(10.0053 0.0192657 0)
(10.0134 0.0282987 0)
(10.0229 0.0342555 0)
(10.0322 0.0383363 0)
(10.0411 0.0412534 0)
(10.0499 0.0432751 0)
(10.0585 0.0446651 0)
(10.0668 0.0456991 0)
(10.0748 0.0465544 0)
(10.0828 0.0473249 0)
(10.0908 0.0480651 0)
(10.0989 0.0487813 0)
(10.1073 0.0494049 0)
(10.116 0.0497836 0)
(10.1252 0.0497034 0)
(10.1347 0.0489103 0)
(10.1445 0.0472081 0)
(10.0005 0.00587839 0)
(10.0044 0.0165668 0)
(10.0114 0.0247068 0)
(10.02 0.0302917 0)
(10.0287 0.0341574 0)
(10.0372 0.0369261 0)
(10.0457 0.0388707 0)
(10.054 0.0402098 0)
(10.0622 0.0411688 0)
(10.0701 0.0419066 0)
(10.0781 0.0425058 0)
(10.086 0.043002 0)
(10.0941 0.0433867 0)
(10.1023 0.0435947 0)
(10.1108 0.0435027 0)
(10.1195 0.0429518 0)
(10.1284 0.0417645 0)
(10.1374 0.0398403 0)
(10.0004 0.00484837 0)
(10.0037 0.0137727 0)
(10.0097 0.0208202 0)
(10.0173 0.0258506 0)
(10.0253 0.0293849 0)
(10.0334 0.0319143 0)
(10.0414 0.033697 0)
(10.0495 0.0349141 0)
(10.0574 0.0357407 0)
(10.0653 0.036308 0)
(10.0731 0.0366856 0)
(10.081 0.0368965 0)
(10.0889 0.0369255 0)
(10.0969 0.036718 0)
(10.105 0.0361839 0)
(10.1132 0.0352177 0)
(10.1215 0.0337076 0)
(10.1296 0.0316252 0)
(10.0003 0.0038177 0)
(10.003 0.0109134 0)
(10.0082 0.0166863 0)
(10.0148 0.0209514 0)
(10.0222 0.0239927 0)
(10.0297 0.0261585 0)
(10.0373 0.0276674 0)
(10.0451 0.0286651 0)
(10.0528 0.0292805 0)
(10.0604 0.0296132 0)
(10.0681 0.029718 0)
(10.0757 0.0296107 0)
(10.0834 0.0292772 0)
(10.0911 0.0286788 0)
(10.0988 0.0277578 0)
(10.1065 0.0264548 0)
(10.114 0.0247082 0)
(10.1215 0.0225362 0)
(10.0003 0.00278321 0)
(10.0025 0.00799112 0)
(10.0069 0.0123175 0)
(10.0127 0.0155923 0)
(10.0194 0.0179443 0)
(10.0264 0.0195896 0)
(10.0336 0.0206881 0)
(10.0409 0.0213478 0)
(10.0483 0.0216567 0)
(10.0557 0.0216832 0)
(10.0631 0.0214668 0)
(10.0704 0.0210192 0)
(10.0778 0.020332 0)
(10.0851 0.0193833 0)
(10.0923 0.0181431 0)
(10.0994 0.0165867 0)
(10.1063 0.014685 0)
(10.1131 0.0124817 0)
(10.0002 0.00173008 0)
(10.0022 0.00497487 0)
(10.0059 0.00769111 0)
(10.0111 0.00975429 0)
(10.0171 0.0112038 0)
(10.0235 0.0121487 0)
(10.0303 0.0126834 0)
(10.0372 0.0128747 0)
(10.0443 0.0127751 0)
(10.0513 0.0124248 0)
(10.0584 0.011848 0)
(10.0654 0.011053 0)
(10.0723 0.0100367 0)
(10.0791 0.00879037 0)
(10.0858 0.00730315 0)
(10.0924 0.00557048 0)
(10.0987 0.00358443 0)
(10.1048 0.00139569 0)
(10.0002 0.000621536 0)
(10.0019 0.00177261 0)
(10.0053 0.00269543 0)
(10.0099 0.00332107 0)
(10.0154 0.0036447 0)
(10.0215 0.00369347 0)
(10.0278 0.00349809 0)
(10.0343 0.00308399 0)
(10.041 0.00247152 0)
(10.0477 0.00167587 0)
(10.0543 0.000706129 0)
(10.0609 -0.00043442 0)
(10.0674 -0.00174644 0)
(10.0738 -0.00323189 0)
(10.08 -0.00489225 0)
(10.086 -0.00672343 0)
(10.0917 -0.00872521 0)
(10.0972 -0.010851 0)
(10.0002 -0.000610844 0)
(10.0018 -0.00179368 0)
(10.005 -0.00289394 0)
(10.0095 -0.00392277 0)
(10.0147 -0.00492325 0)
(10.0205 -0.00594228 0)
(10.0265 -0.00700845 0)
(10.0328 -0.00813617 0)
(10.0391 -0.00933633 0)
(10.0455 -0.0106191 0)
(10.0517 -0.0119927 0)
(10.0579 -0.0134628 0)
(10.064 -0.0150337 0)
(10.0699 -0.0167085 0)
(10.0756 -0.0184888 0)
(10.0811 -0.0203713 0)
(10.0864 -0.0223578 0)
(10.0914 -0.0244145 0)
(10.0002 -0.00180026 0)
(10.002 -0.00522379 0)
(10.0054 -0.00822501 0)
(10.0101 -0.0107626 0)
(10.0155 -0.0129472 0)
(10.0213 -0.0149129 0)
(10.0273 -0.0167427 0)
(10.0334 -0.0184832 0)
(10.0397 -0.0201721 0)
(10.0458 -0.0218411 0)
(10.0519 -0.0235114 0)
(10.0579 -0.025196 0)
(10.0637 -0.0269045 0)
(10.0693 -0.0286455 0)
(10.0747 -0.0304276 0)
(10.0799 -0.0322558 0)
(10.0848 -0.0341386 0)
(10.0894 -0.0360578 0)
(10.0003 -0.0028811 0)
(10.0023 -0.00829293 0)
(10.0063 -0.0128607 0)
(10.0114 -0.0165307 0)
(10.0172 -0.019552 0)
(10.0232 -0.0221699 0)
(10.0293 -0.0245112 0)
(10.0355 -0.0266517 0)
(10.0417 -0.0286608 0)
(10.0479 -0.030592 0)
(10.0539 -0.0324727 0)
(10.0598 -0.0343142 0)
(10.0655 -0.0361246 0)
(10.071 -0.0379147 0)
(10.0763 -0.0396969 0)
(10.0813 -0.0414831 0)
(10.086 -0.0432875 0)
(10.0905 -0.0451061 0)
(10.0003 -0.00404553 0)
(10.0029 -0.0114959 0)
(10.0077 -0.0174611 0)
(10.0137 -0.0219975 0)
(10.0199 -0.025637 0)
(10.0262 -0.0287455 0)
(10.0325 -0.0314507 0)
(10.0389 -0.0338413 0)
(10.0452 -0.036024 0)
(10.0513 -0.0380763 0)
(10.0573 -0.0400288 0)
(10.0632 -0.0418885 0)
(10.0689 -0.043663 0)
(10.0743 -0.0453675 0)
(10.0795 -0.0470236 0)
(10.0844 -0.0486548 0)
(10.089 -0.0502887 0)
(10.0933 -0.0519393 0)
(10.0005 -0.00540094 0)
(10.0039 -0.0150384 0)
(10.01 -0.0221867 0)
(10.0169 -0.0272635 0)
(10.0236 -0.0312794 0)
(10.0303 -0.0347283 0)
(10.0369 -0.0377222 0)
(10.0435 -0.0403718 0)
(10.0499 -0.0428142 0)
(10.0562 -0.0451225 0)
(10.0622 -0.0472991 0)
(10.0682 -0.0493231 0)
(10.0739 -0.0511856 0)
(10.0794 -0.0528969 0)
(10.0846 -0.0544812 0)
(10.0894 -0.0559694 0)
(10.0939 -0.0573967 0)
(10.098 -0.0587846 0)
(10.0007 -0.00708202 0)
(10.0055 -0.0190753 0)
(10.0133 -0.0271255 0)
(10.0213 -0.0324793 0)
(10.0286 -0.0366512 0)
(10.0355 -0.0400949 0)
(10.0424 -0.0429188 0)
(10.0491 -0.0453656 0)
(10.0555 -0.0476713 0)
(10.0618 -0.0499186 0)
(10.0679 -0.0520736 0)
(10.074 -0.0540788 0)
(10.0799 -0.0559069 0)
(10.0855 -0.0575654 0)
(10.0908 -0.0590851 0)
(10.0958 -0.0605103 0)
(10.1003 -0.0619001 0)
(10.1046 -0.0633233 0)
(10.001 -0.00930355 0)
(10.008 -0.0236272 0)
(10.0179 -0.0319413 0)
(10.0271 -0.0374848 0)
(10.035 -0.0422948 0)
(10.0424 -0.0463635 0)
(10.0496 -0.0495965 0)
(10.0565 -0.052327 0)
(10.0629 -0.0548828 0)
(10.0692 -0.0573514 0)
(10.0753 -0.0596458 0)
(10.0814 -0.0616524 0)
(10.0874 -0.0633163 0)
(10.093 -0.0646389 0)
(10.0983 -0.0656532 0)
(10.1032 -0.0664068 0)
(10.1076 -0.0669569 0)
(10.1113 -0.0673216 0)
(10.0017 -0.0124411 0)
(10.0118 -0.0292246 0)
(10.0241 -0.0363549 0)
(10.0339 -0.0402517 0)
(10.0419 -0.0439355 0)
(10.0496 -0.0472138 0)
(10.0571 -0.0499413 0)
(10.0641 -0.0524853 0)
(10.0705 -0.0551749 0)
(10.0768 -0.0580549 0)
(10.0831 -0.0609503 0)
(10.0895 -0.0636648 0)
(10.0958 -0.066096 0)
(10.1019 -0.0682344 0)
(10.1077 -0.0701344 0)
(10.113 -0.0718733 0)
(10.118 -0.0735723 0)
(10.1227 -0.0753041 0)
(10.0029 -0.0162267 0)
(10.0178 -0.0370826 0)
(10.0335 -0.0464207 0)
(10.0442 -0.0522169 0)
(10.0526 -0.0566717 0)
(10.061 -0.0596137 0)
(10.0695 -0.0615112 0)
(10.0774 -0.0630717 0)
(10.085 -0.0647046 0)
(10.0928 -0.06642 0)
(10.1011 -0.0679737 0)
(10.1098 -0.0691248 0)
(10.1187 -0.0697381 0)
(10.1276 -0.0697631 0)
(10.1363 -0.0692107 0)
(10.1445 -0.0681404 0)
(10.1524 -0.0666505 0)
(10.159 -0.0646639 0)
(10.0046 -0.0188343 0)
(10.0291 -0.031052 0)
(10.0557 -0.034014 0)
(10.0784 -0.0394838 0)
(10.101 -0.0457992 0)
(10.1247 -0.0510068 0)
(10.1487 -0.0554974 0)
(10.1718 -0.0601116 0)
(10.1943 -0.065349 0)
(10.2167 -0.071079 0)
(10.2391 -0.0767883 0)
(10.2613 -0.0821464 0)
(10.2826 -0.0870795 0)
(10.3024 -0.091621 0)
(10.3201 -0.0958485 0)
(10.3355 -0.0998859 0)
(10.3483 -0.103894 0)
(10.3586 -0.107844 0)
(10.0549 -0.0494928 0)
(10.1822 -0.0761668 0)
(10.2841 -0.0772329 0)
(10.3595 -0.0782513 0)
(10.4163 -0.079538 0)
(10.4573 -0.0793838 0)
(10.4826 -0.0781414 0)
(10.4935 -0.0766945 0)
(10.4923 -0.0759635 0)
(10.481 -0.0759244 0)
(10.4605 -0.0755998 0)
(10.4308 -0.0741926 0)
(10.3917 -0.0713593 0)
(10.3435 -0.0670387 0)
(10.2864 -0.0613153 0)
(10.2209 -0.0545307 0)
(10.148 -0.0469835 0)
(10.0677 -0.0399593 0)
(9.86856 -0.0426419 0)
(9.60465 -0.0724698 0)
(9.32634 -0.0792926 0)
(9.04533 -0.0818641 0)
(8.77691 -0.0828236 0)
(8.52591 -0.0822603 0)
(8.29222 -0.0807224 0)
(8.07604 -0.0790171 0)
(7.87453 -0.0780493 0)
(7.6823 -0.0779567 0)
(7.49983 -0.07806 0)
(7.32865 -0.0776566 0)
(7.17059 -0.0763461 0)
(7.02763 -0.0739587 0)
(6.90137 -0.070464 0)
(6.79295 -0.0659857 0)
(6.7015 -0.0610633 0)
(6.62891 -0.0545674 0)
(-0.00579475 0.0105226 -2.60837e-21)
(-0.0102468 0.0119176 2.45628e-21)
(-0.0196868 0.0128508 0)
(-0.029402 0.0136058 0)
(-0.0394908 0.0141451 0)
(-0.0500341 0.014498 -2.39576e-21)
(-0.0609697 0.0147322 0)
(-0.0722312 0.0149131 0)
(-0.0837895 0.0150865 0)
(-0.095638 0.0152786 0)
(-0.107782 0.0155012 2.30348e-21)
(-0.120232 0.0157569 0)
(-0.133003 0.016044 0)
(-0.146113 0.0163588 0)
(-0.159581 0.0166983 0)
(-0.173425 0.0170608 2.22017e-21)
(-0.187666 0.0174482 0)
(-0.202327 0.0178691 0)
(-0.217433 0.0183459 0)
(-0.233026 0.0189282 0)
(-0.249176 0.0197182 0)
(-0.265978 0.0208945 0)
(-0.283544 0.0222264 0)
(-0.301917 0.0231893 2.11902e-21)
(-0.320992 0.023779 -2.11002e-21)
(-0.34069 0.0242898 2.10096e-21)
(-0.361024 0.0248484 2.09196e-21)
(-0.382032 0.0254717 0)
(-0.403743 0.0261488 0)
(-0.426181 0.0268608 -2.06606e-21)
(-0.449362 0.0275804 -2.05789e-21)
(-0.47329 0.0282788 0)
(-0.497956 0.0289331 0)
(-0.523343 0.0295306 -2.0347e-21)
(-0.549426 0.0300707 0)
(-0.57618 0.0305616 0)
(-0.603581 0.0310118 2.01313e-21)
(-0.631604 0.0314246 0)
(-0.660223 0.0318001 1.99954e-21)
(-0.689408 0.0321365 3.98592e-21)
(-0.719126 0.0324308 0)
(-0.74934 0.0326795 0)
(-0.780012 0.0328788 0)
(-0.811095 0.0330247 0)
(-0.842545 0.0331142 0)
(-0.874309 0.0331461 3.91217e-21)
(-0.906336 0.0331212 3.90045e-21)
(-0.938573 0.0330395 3.88877e-21)
(-0.970967 0.0329004 0)
(-1.00346 0.0327033 -3.86532e-21)
(-1.036 0.0324496 0)
(-1.06854 0.032141 3.84137e-21)
(-1.101 0.0317765 3.82904e-21)
(-1.13335 0.0313503 0)
(-1.16551 0.0308538 0)
(-1.19743 0.0302793 0)
(-1.22904 0.0296272 3.77592e-21)
(-1.26028 0.0289206 0)
(-1.29111 0.028223 0)
(-1.32152 0.0275918 0)
(-1.35151 0.0270052 0)
(-1.38106 0.0264136 0)
(-1.41015 0.0258021 0)
(-1.43874 0.0251703 0)
(-1.4668 0.0245191 0)
(-1.49429 0.023849 -3.61561e-21)
(-1.52119 0.0231609 0)
(-1.54746 0.0224563 0)
(-1.57309 0.0217373 3.5445e-21)
(-1.59805 0.021007 3.51844e-21)
(-1.62231 0.0202682 0)
(-1.64585 0.0195236 -3.46258e-21)
(-1.66865 0.0187747 3.43271e-21)
(-1.69069 0.0180223 0)
(-1.71196 0.0172654 -3.36901e-21)
(-1.73242 0.0165022 0)
(-1.75208 0.0157307 0)
(-1.7709 0.0149522 3.26326e-21)
(-1.78886 0.0141719 0)
(-1.80597 0.0133943 -3.18582e-21)
(-1.82221 0.0126208 0)
(-1.83756 0.0118512 3.10282e-21)
(-1.85203 0.0110854 3.05925e-21)
(-1.8656 0.0103234 3.01431e-21)
(-1.87828 0.00956564 5.93606e-21)
(-1.89005 0.00881226 -5.84084e-21)
(-1.90093 0.00806153 0)
(-1.91091 0.00730949 0)
(-1.91999 0.00655132 0)
(-1.92815 0.00578637 -5.43438e-21)
(-1.93541 0.0050294 -5.32666e-21)
(-1.94176 0.0043185 5.21661e-21)
(-1.94723 0.00366423 0)
(-1.95182 0.00301846 -4.98993e-21)
(-1.95549 0.0023487 -4.8735e-21)
(-1.95824 0.00168256 -4.75514e-21)
(-1.96002 0.00107246 0)
(-1.9609 0.000513852 0)
(-1.96096 -1.6995e-05 0)
(-1.96022 -0.000525218 -4.26315e-21)
(-1.95871 -0.00101247 0)
(-1.95644 -0.00147959 0)
(-1.95342 -0.00192689 3.87701e-21)
(-1.94967 -0.00235518 0)
(-1.94521 -0.00276644 0)
(-1.94003 -0.00316449 3.47885e-21)
(-1.93416 -0.0035533 0)
(-1.92761 -0.00393489 0)
(-1.92038 -0.00430944 -3.07099e-21)
(-1.91248 -0.00467632 -2.93326e-21)
(-1.90392 -0.00503484 0)
(-1.8947 -0.0053847 2.6556e-21)
(-1.88484 -0.00572612 0)
(-1.87433 -0.00605992 -2.3755e-21)
(-1.86318 -0.00638846 0)
(-1.85139 -0.00671658 -2.09354e-21)
(-1.83896 -0.0070534 -1.95203e-21)
(-1.82586 -0.00741474 0)
(-1.81209 -0.00781891 0)
(-1.79761 -0.00826662 0)
(-1.78242 -0.00870351 0)
(-1.76653 -0.00902765 0)
(-1.7501 -0.00925833 0)
(-1.73314 -0.00947305 0)
(-1.71567 -0.00967181 -8.15583e-22)
(-1.69769 -0.0098508 6.73694e-22)
(-1.67923 -0.0100099 0)
(-1.66031 -0.0101538 0)
(-1.64093 -0.0102883 0)
(-1.6211 -0.0104165 0)
(-1.60082 -0.0105391 -6.22361e-23)
(-1.58011 -0.0106569 0)
(-1.55896 -0.0107704 6.19864e-22)
(-1.53738 -0.0108785 -8.96971e-22)
(-1.51538 -0.0109803 0)
(-1.49295 -0.0110772 0)
(-1.47009 -0.0111729 0)
(-1.44681 -0.01127 1.99209e-21)
(-1.42308 -0.0113717 2.26214e-21)
(-1.3989 -0.0114834 0)
(-1.37424 -0.0116105 2.79721e-21)
(-1.34909 -0.0117555 3.06209e-21)
(-1.32341 -0.0119191 -3.3251e-21)
(-1.29718 -0.0121031 0)
(-1.27038 -0.0123114 0)
(-1.24296 -0.0125474 -4.10215e-21)
(-1.2149 -0.0128127 0)
(-1.18614 -0.0131089 0)
(-1.15664 -0.0134371 0)
(-1.12636 -0.0137964 0)
(-1.09526 -0.0141817 5.352e-21)
(-1.06329 -0.0145862 5.59431e-21)
(-1.03044 -0.0150061 0)
(-0.996666 -0.0154383 6.07034e-21)
(-0.961951 -0.01588 0)
(-0.926272 -0.0163309 0)
(-0.88961 -0.0167954 6.76065e-21)
(-0.851936 -0.0172775 0)
(-0.813229 -0.0177776 7.20271e-21)
(-0.773468 -0.0182949 0)
(-0.732639 -0.0188281 0)
(-0.690733 -0.0193755 7.83309e-21)
(-0.64775 -0.0199349 0)
(-0.603698 -0.0205046 8.22726e-21)
(-0.558589 -0.0210847 0)
(-0.512443 -0.0216792 0)
(-0.465269 -0.0222984 0)
(-0.41706 -0.0229623 -8.93258e-21)
(-0.36778 -0.023701 0)
(-0.317363 -0.0245501 9.22455e-21)
(-0.265711 -0.0255179 0)
(-0.212728 -0.0262521 0)
(-0.160594 -0.0245855 0)
(-0.112713 -0.0205294 0)
(-0.0673235 -0.0181971 0)
(-0.0210107 -0.0183104 0)
(0.0257558 -0.0179606 0)
(0.070867 -0.0174389 -2.01726e-20)
(0.116383 -0.0185054 0)
(0.150894 -0.016258 0)
(-0.00790689 0.0219267 7.73427e-21)
(-0.011596 0.0249602 -7.28437e-21)
(-0.0221448 0.0272798 0)
(-0.032549 0.0290135 4.80207e-21)
(-0.0432319 0.030352 0)
(-0.054416 0.031404 2.37209e-21)
(-0.0660767 0.0322543 -4.70572e-21)
(-0.0781536 0.032975 -4.66969e-21)
(-0.0906132 0.0336209 0)
(-0.103439 0.0342316 -4.59657e-21)
(-0.116626 0.0348345 -2.28243e-21)
(-0.130178 0.0354486 0)
(-0.14411 0.0360869 0)
(-0.158442 0.0367583 0)
(-0.173203 0.0374691 0)
(-0.188426 0.0382241 -2.19962e-21)
(-0.20415 0.0390276 0)
(-0.220415 0.0398852 4.33439e-21)
(-0.237268 0.0408055 0)
(-0.254751 0.0418016 0)
(-0.272894 0.0428925 -4.25084e-21)
(-0.291681 0.0441001 0)
(-0.311092 0.0454157 4.19876e-21)
(-0.331172 0.0467604 -2.09146e-21)
(-0.352011 0.0480757 2.07962e-21)
(-0.373656 0.04937 -2.06802e-21)
(-0.396108 0.0506657 -2.05666e-21)
(-0.419357 0.0519732 0)
(-0.443391 0.0532912 0)
(-0.468202 0.0546105 2.02405e-21)
(-0.493781 0.0559175 -2.00175e-21)
(-0.520117 0.057196 0)
(-0.547198 0.0584306 0)
(-0.575011 0.0596082 1.98408e-21)
(-0.603536 0.0607197 0)
(-0.632749 0.0617594 0)
(-0.662621 0.0627228 -1.95694e-21)
(-0.693116 0.0636053 0)
(-0.724196 0.0644019 1.92582e-21)
(-0.755818 0.065107 -3.86438e-21)
(-0.787938 0.065715 0)
(-0.820505 0.0662204 0)
(-0.853467 0.0666182 -7.6088e-21)
(-0.886771 0.0669041 -7.58031e-21)
(-0.92036 0.0670748 -7.5526e-21)
(-0.954175 0.0671287 3.74801e-21)
(-0.988158 0.0670653 -3.76429e-21)
(-1.02225 0.0668852 -1.12244e-20)
(-1.05638 0.0665897 7.44765e-21)
(-1.0905 0.0661807 3.72544e-21)
(-1.12454 0.0656604 0)
(-1.15844 0.0650314 -3.69978e-21)
(-1.19214 0.0642961 3.65969e-21)
(-1.22559 0.0634574 0)
(-1.25874 0.0625191 0)
(-1.29154 0.061487 0)
(-1.32395 0.0603702 -3.63262e-21)
(-1.35595 0.0591832 0)
(-1.38749 0.057947 7.1832e-21)
(-1.41855 0.0566779 0)
(-1.44906 0.0553757 7.12069e-21)
(-1.479 0.0540333 0)
(-1.50832 0.0526498 -7.05213e-21)
(-1.53702 0.0512275 0)
(-1.56504 0.0497701 6.97666e-21)
(-1.59238 0.0482811 -3.45881e-21)
(-1.61901 0.0467642 0)
(-1.64489 0.045223 -6.84877e-21)
(-1.67002 0.0436608 -3.4091e-21)
(-1.69436 0.0420808 -3.38415e-21)
(-1.71791 0.0404856 0)
(-1.74063 0.0388778 -3.3165e-21)
(-1.76252 0.0372596 -3.30212e-21)
(-1.78356 0.035633 0)
(-1.80373 0.0340003 3.24117e-21)
(-1.82301 0.0323638 -6.40624e-21)
(-1.84139 0.0307264 0)
(-1.85887 0.0290912 -3.13997e-21)
(-1.87543 0.0274616 0)
(-1.89107 0.0258406 9.18917e-21)
(-1.90577 0.0242315 0)
(-1.91954 0.0226373 -8.95215e-21)
(-1.93237 0.0210615 -2.94461e-21)
(-1.94426 0.0195073 2.89606e-21)
(-1.95521 0.0179778 5.7048e-21)
(-1.96523 0.0164754 -5.61491e-21)
(-1.97433 0.0150017 0)
(-1.9825 0.0135577 0)
(-1.98976 0.0121441 0)
(-1.99613 0.0107611 1.56974e-20)
(-2.00162 0.00940716 5.13003e-21)
(-2.00624 0.00807753 -5.02452e-21)
(-2.00998 0.00676385 0)
(-2.01286 0.00545693 -4.80963e-21)
(-2.01491 0.00415433 4.6954e-21)
(-2.01616 0.00287305 4.58171e-21)
(-2.01668 0.00164752 0)
(-2.01646 0.000496506 0)
(-2.01543 -0.00059786 0)
(-2.01358 -0.00164803 4.10838e-21)
(-2.01094 -0.002659 0)
(-2.0075 -0.00363346 -7.73359e-21)
(-2.00328 -0.00457308 -1.12205e-20)
(-1.9983 -0.00547927 7.23147e-21)
(-1.99257 -0.00635335 0)
(-1.9861 -0.00719657 3.36621e-21)
(-1.9789 -0.00801 0)
(-1.97099 -0.00879475 6.19901e-21)
(-1.96237 -0.00955212 -2.97561e-21)
(-1.95306 -0.0102838 -2.84365e-21)
(-1.94307 -0.0109917 0)
(-1.93241 -0.0116779 -7.69765e-21)
(-1.92107 -0.0123446 4.86884e-21)
(-1.90907 -0.0129942 2.29005e-21)
(-1.89642 -0.0136292 0)
(-1.8831 -0.0142524 2.01821e-21)
(-1.86914 -0.0148661 5.66635e-21)
(-1.85453 -0.0154715 0)
(-1.83928 -0.0160675 3.23895e-21)
(-1.82343 -0.0166476 2.96579e-21)
(-1.807 -0.0171925 2.69248e-21)
(-1.78999 -0.0176759 0)
(-1.77241 -0.0181076 0)
(-1.75427 -0.0185113 0)
(-1.7356 -0.0188906 -8.11985e-22)
(-1.7164 -0.0192477 -6.49255e-22)
(-1.69669 -0.0195852 0)
(-1.67648 -0.0199057 -7.80022e-22)
(-1.65577 -0.0202109 -5.08565e-22)
(-1.63457 -0.0205022 0)
(-1.61289 -0.0207808 5.99562e-23)
(-1.59074 -0.0210485 6.01253e-22)
(-1.56811 -0.0213066 -5.97022e-22)
(-1.54501 -0.021556 -8.05715e-22)
(-1.52143 -0.0217984 0)
(-1.49738 -0.0220361 0)
(-1.47286 -0.0222725 0)
(-1.44785 -0.0225111 -1.91705e-21)
(-1.42235 -0.0227547 2.11514e-21)
(-1.39634 -0.0230062 4.80602e-21)
(-1.36982 -0.0232677 -2.68973e-21)
(-1.34277 -0.0235401 2.87982e-21)
(-1.31516 -0.0238241 3.19514e-21)
(-1.28698 -0.0241213 0)
(-1.25821 -0.0244339 0)
(-1.22882 -0.024764 -3.86834e-21)
(-1.19879 -0.0251134 0)
(-1.1681 -0.0254835 0)
(-1.1367 -0.0258743 9.23604e-21)
(-1.10459 -0.0262846 0)
(-1.07173 -0.0267114 5.04124e-21)
(-1.03809 -0.0271515 -5.345e-21)
(-1.00367 -0.0276022 0)
(-0.968437 -0.0280613 5.70357e-21)
(-0.932373 -0.0285272 0)
(-0.89546 -0.0289992 0)
(-0.857681 -0.0294764 -6.41999e-21)
(-0.81902 -0.0299573 1.31466e-20)
(-0.779465 -0.0304384 -6.81684e-21)
(-0.739009 -0.0309149 0)
(-0.69765 -0.031382 0)
(-0.655389 -0.0318339 7.25621e-21)
(-0.612236 -0.0322633 0)
(-0.568208 -0.032663 7.5791e-21)
(-0.523328 -0.0330268 0)
(-0.477624 -0.0333521 0)
(-0.431127 -0.0336396 0)
(-0.383868 -0.0338942 8.26964e-21)
(-0.335879 -0.0341179 0)
(-0.287224 -0.0342865 -8.50775e-21)
(-0.238084 -0.0342649 0)
(-0.188811 -0.0336135 0)
(-0.140172 -0.0318533 1.74363e-20)
(-0.0924889 -0.0301317 -1.76249e-20)
(-0.0446278 -0.0300664 0)
(0.00340126 -0.0303254 0)
(0.0515983 -0.0298328 0)
(0.0989896 -0.0283683 5.60134e-20)
(0.148153 -0.0266963 0)
(0.190142 -0.022648 -3.8483e-20)
(-0.0089467 0.0431876 6.21355e-25)
(-0.012946 0.0475959 9.81446e-21)
(-0.0240709 0.051046 0)
(-0.0351439 0.0538671 -9.62186e-21)
(-0.0463241 0.0561774 0)
(-0.057994 0.0580772 0)
(-0.0701747 0.059666 -3.61349e-24)
(-0.0828137 0.0610411 4.68187e-21)
(-0.0958827 0.0622876 4.65034e-21)
(-0.109369 0.0634739 4.61175e-21)
(-0.12327 0.0646527 0)
(-0.13759 0.0658635 0)
(-0.152341 0.067136 -4.51328e-21)
(-0.167545 0.0684921 -8.96171e-21)
(-0.183228 0.0699487 8.89848e-21)
(-0.199419 0.0715192 0)
(-0.216154 0.0732151 8.77668e-21)
(-0.233466 0.0750474 -4.35487e-21)
(-0.251389 0.0770264 0)
(-0.269954 0.0791607 8.60433e-21)
(-0.289181 0.0814525 4.26992e-21)
(-0.309072 0.0838851 -8.4953e-21)
(-0.329622 0.0864024 -4.21567e-21)
(-0.350851 0.0889261 0)
(-0.372796 0.0914148 8.33926e-21)
(-0.395489 0.0938708 8.28919e-21)
(-0.418941 0.0963061 0)
(-0.443149 0.0987244 8.19189e-21)
(-0.468103 0.101118 0)
(-0.49379 0.103473 8.09845e-21)
(-0.520195 0.105766 4.01952e-21)
(-0.547299 0.107975 0)
(-0.575084 0.110079 0)
(-0.603529 0.11206 0)
(-0.632611 0.113904 0)
(-0.662302 0.115601 0)
(-0.692568 0.117143 0)
(-0.723372 0.11852 7.7695e-21)
(-0.75467 0.119724 -1.15923e-20)
(-0.786418 0.120745 0)
(-0.818565 0.121575 0)
(-0.851059 0.122207 0)
(-0.883846 0.122632 -1.73624e-23)
(-0.916869 0.122846 7.55363e-21)
(-0.950072 0.122845 1.5065e-20)
(-0.983394 0.122629 -1.50068e-20)
(-1.01678 0.122196 -7.48366e-21)
(-1.05016 0.121551 7.43816e-21)
(-1.08349 0.120697 1.73725e-23)
(-1.11671 0.119639 7.40054e-21)
(-1.14975 0.118384 0)
(-1.18257 0.116939 7.34586e-21)
(-1.21511 0.115312 1.64779e-23)
(-1.24734 0.113515 0)
(-1.27919 0.111558 0)
(-1.31064 0.109457 -7.23335e-21)
(-1.34166 0.107232 0)
(-1.3722 0.104906 0)
(-1.40225 0.102505 7.15545e-21)
(-1.43174 0.100044 1.42182e-20)
(-1.46065 0.0975241 -7.06235e-21)
(-1.48893 0.0949433 0)
(-1.51657 0.0923025 6.99069e-21)
(-1.54353 0.0896059 0)
(-1.5698 0.0868588 6.93408e-21)
(-1.59535 0.0840672 6.87026e-21)
(-1.62016 0.0812369 -1.36726e-20)
(-1.64423 0.0783738 -6.79943e-21)
(-1.66752 0.0754837 0)
(-1.69003 0.072572 1.33808e-20)
(-1.71173 0.0696437 0)
(-1.73262 0.0667032 1.97375e-20)
(-1.75269 0.0637542 1.3048e-20)
(-1.77191 0.0608004 1.29274e-20)
(-1.79029 0.057845 -1.28019e-20)
(-1.8078 0.0548914 1.90003e-20)
(-1.82444 0.0519439 0)
(-1.84019 0.0490071 0)
(-1.85506 0.0460866 -1.22491e-20)
(-1.86904 0.0431879 -1.81413e-20)
(-1.88212 0.0403162 0)
(-1.89429 0.0374767 5.88488e-21)
(-1.90555 0.0346747 0)
(-1.91592 0.0319151 -1.71586e-20)
(-1.92538 0.0292024 9.75488e-24)
(-1.93395 0.0265403 -9.52249e-24)
(-1.94163 0.0239314 1.08983e-20)
(-1.94843 0.0213776 0)
(-1.95437 0.0188804 -1.05119e-20)
(-1.95946 0.0164417 8.87991e-24)
(-1.9637 0.0140646 0)
(-1.96711 0.0117514 0)
(-1.96968 0.00950047 0)
(-1.97144 0.00730934 9.46139e-21)
(-1.97239 0.00518101 0)
(-1.97256 0.00311538 0)
(-1.97194 0.00110983 0)
(-1.97053 -0.000838059 0)
(-1.96832 -0.0027269 0)
(-1.96531 -0.0045559 8.09227e-21)
(-1.96153 -0.00632456 0)
(-1.95698 -0.00803226 7.59618e-21)
(-1.95167 -0.0096792 7.34945e-21)
(-1.94561 -0.0112665 -7.10025e-21)
(-1.93882 -0.0127963 0)
(-1.93131 -0.0142712 -6.59506e-21)
(-1.9231 -0.0156942 0)
(-1.9142 -0.017068 -6.08192e-21)
(-1.90461 -0.0183952 5.82276e-21)
(-1.89436 -0.0196785 1.67133e-20)
(-1.88345 -0.0209204 0)
(-1.87188 -0.0221239 1.51385e-20)
(-1.85968 -0.0232918 4.80119e-21)
(-1.84684 -0.0244275 0)
(-1.83337 -0.0255346 8.51171e-21)
(-1.81929 -0.0266167 7.97863e-21)
(-1.80459 -0.0276774 -1.11511e-20)
(-1.78931 -0.0287181 0)
(-1.77344 -0.0297363 -3.17098e-21)
(-1.75702 -0.0307203 -2.90298e-21)
(-1.74007 -0.0316453 -7.93704e-21)
(-1.72258 -0.0324867 0)
(-1.70455 -0.0332529 0)
(-1.68598 -0.0339659 0)
(-1.66689 -0.0346335 -1.59636e-21)
(-1.64729 -0.0352605 0)
(-1.62717 -0.0358513 0)
(-1.60656 -0.0364103 7.6236e-22)
(-1.58546 -0.0369415 4.96957e-22)
(-1.56387 -0.0374478 0)
(-1.5418 -0.037932 0)
(-1.51925 -0.0383966 -5.87211e-22)
(-1.49623 -0.0388434 0)
(-1.47273 -0.0392745 1.62995e-21)
(-1.44877 -0.0396922 2.10916e-21)
(-1.42434 -0.0401004 0)
(-1.39943 -0.0405038 0)
(-1.37405 -0.0409076 -3.64232e-21)
(-1.34818 -0.0413166 -3.9637e-23)
(-1.32182 -0.0417359 -3.99251e-23)
(-1.29497 -0.0421696 0)
(-1.26761 -0.0426204 -1.1316e-20)
(-1.23973 -0.0430903 0)
(-1.21133 -0.0435819 0)
(-1.18238 -0.044098 0)
(-1.15286 -0.0446415 7.60672e-21)
(-1.12278 -0.0452148 0)
(-1.0921 -0.0458194 -1.70017e-20)
(-1.06081 -0.0464548 -8.99911e-21)
(-1.0289 -0.0471184 0)
(-0.996333 -0.0478054 -9.89726e-21)
(-0.963106 -0.0485099 0)
(-0.929197 -0.0492265 0)
(-0.894589 -0.0499509 -3.35066e-20)
(-0.859267 -0.0506802 2.31488e-20)
(-0.823212 -0.0514129 0)
(-0.786406 -0.0521477 2.47681e-20)
(-0.748834 -0.0528821 -1.28066e-20)
(-0.710482 -0.053611 0)
(-0.671338 -0.0543278 0)
(-0.631395 -0.055026 0)
(-0.590646 -0.0556982 -4.27213e-20)
(-0.549088 -0.0563355 0)
(-0.506723 -0.05693 -1.49089e-20)
(-0.463556 -0.0574771 0)
(-0.419594 -0.0579779 0)
(-0.37485 -0.0584406 0)
(-0.32934 -0.0588794 0)
(-0.283097 -0.0593041 0)
(-0.236199 -0.0596876 0)
(-0.188832 -0.0598734 -3.36742e-20)
(-0.141253 -0.0593675 0)
(-0.0934517 -0.0575901 -1.73747e-20)
(-0.045031 -0.0555056 5.30085e-20)
(0.00411981 -0.0547444 0)
(0.0532941 -0.0546604 0)
(0.102741 -0.0539697 -3.68898e-20)
(0.151847 -0.0524488 -3.73435e-20)
(0.203492 -0.0508643 3.78328e-20)
(0.248428 -0.0466997 3.81946e-20)
(-0.00972782 0.0641434 -1.58561e-20)
(-0.0143885 0.0688726 -1.48483e-20)
(-0.0259789 0.0728147 -9.71745e-21)
(-0.0376545 0.0764241 -4.82572e-21)
(-0.0493339 0.0795927 0)
(-0.0614818 0.0823308 9.52436e-21)
(-0.074155 0.0847092 -4.73193e-21)
(-0.0873139 0.0868216 0)
(-0.100938 0.0887612 -4.66103e-21)
(-0.115019 0.0906105 0)
(-0.129555 0.0924376 9.1896e-21)
(-0.144551 0.0942976 0)
(-0.160018 0.0962332 4.52722e-21)
(-0.175971 0.0982773 8.99046e-21)
(-0.192432 0.100454 -8.92777e-21)
(-0.209424 0.102781 0)
(-0.226972 0.10527 -8.80598e-21)
(-0.245099 0.107927 0)
(-0.263828 0.110752 0)
(-0.283175 0.113742 -8.63121e-21)
(-0.303149 0.116883 0)
(-0.323754 0.12015 -4.23197e-24)
(-0.344994 0.123504 0)
(-0.366879 0.1269 0)
(-0.389426 0.1303 5.15189e-24)
(-0.412648 0.133683 -8.3055e-21)
(-0.43655 0.137037 -8.2602e-21)
(-0.461126 0.140345 -8.20417e-21)
(-0.486365 0.14359 0)
(-0.512248 0.146752 -1.62207e-20)
(-0.538757 0.149806 0)
(-0.565871 0.152731 -8.02181e-21)
(-0.593564 0.155502 0)
(-0.621812 0.158098 0)
(-0.650586 0.160502 7.89288e-21)
(-0.67985 0.162696 0)
(-0.709569 0.164664 -7.81316e-21)
(-0.739699 0.166392 1.08556e-23)
(-0.770196 0.167867 1.54652e-20)
(-0.80101 0.169075 -1.5405e-20)
(-0.832089 0.170006 0)
(-0.86338 0.170651 0)
(-0.894827 0.171001 -7.61433e-21)
(-0.926374 0.171052 0)
(-0.957964 0.170802 -7.52438e-21)