/*--------------------------------*- C++ -*----------------------------------*\
| =========                 |                                                 |
| \\      /  F ield         | OpenFOAM: The Open Source CFD Toolbox           |
|  \\    /   O peration     | Version:  2112                                  |
|   \\  /    A nd           | Website:  www.openfoam.com                      |
|    \\/     M anipulation  |                                                 |
\*---------------------------------------------------------------------------*/
FoamFile
{
    version     2.0;
    format      ascii;
    arch        "LSB;label=32;scalar=64";
    class       volScalarField;
    location    "0.14";
    object      ddt0(kU);
}
// * * * * * * * * * * * * * * * * * * * * * * * * * * * * * * * * * * * * * //

dimensions      [0 2 -3 0 0 0 0];

internalField   nonuniform List<scalar> 
12225
(
0.00963071
0.0930069
0.300838
0.666368
1.20986
1.95659
2.94664
4.23582
5.89218
7.9871
10.5783
13.6712
17.1948
20.8763
24.4133
27.0517
30.2871
28.644
-0.00313184
-0.0282946
-0.0771816
-0.144586
-0.229367
-0.335662
-0.470547
-0.642245
-0.858297
-1.12395
-1.44285
-1.82227
-2.2842
-2.86276
-3.57832
-4.18498
-4.49693
-5.29817
0.0019313
0.00927695
0.0293222
0.067913
0.125502
0.19773
0.27621
0.348385
0.396331
0.395419
0.314223
0.11653
-0.23544
-0.779194
-1.54325
-2.51744
-3.45706
-3.62155
0.000745836
0.00473151
0.0156375
0.0380336
0.0757475
0.13205
0.210712
0.316726
0.456201
0.634701
0.853031
1.10008
1.34484
1.53429
1.60054
1.48668
1.19399
0.777522
0.000174726
0.00277422
0.00948973
0.0221009
0.0427256
0.0738092
0.118384
0.180536
0.265718
0.380605
0.532127
0.725431
0.961178
1.23458
1.53492
1.854
2.19828
2.62247
-0.000143076
0.00144801
0.0053496
0.0121106
0.0229675
0.0394633
0.0633366
0.0968726
0.14329
0.206982
0.293505
0.409056
0.558955
0.745754
0.967886
1.22428
1.53097
1.95266
-0.000369384
0.000423448
0.00269415
0.00655295
0.0126354
0.0217669
0.0347853
0.0528045
0.0775008
0.111271
0.157315
0.219614
0.302518
0.410086
0.545167
0.709867
0.910333
1.17035
-0.000533771
-0.00032448
0.000899508
0.00302365
0.00623675
0.0109179
0.017454
0.02638
0.0385795
0.0553866
0.0786335
0.11066
0.154126
0.211685
0.28541
0.376676
0.486993
0.623035
-0.000653549
-0.000868919
-0.000396204
0.000550558
0.00190154
0.00377352
0.00629489
0.00965298
0.01425
0.0207992
0.030366
0.0443778
0.0645023
0.0924214
0.129453
0.176494
0.234544
0.306965
-0.00074409
-0.00127358
-0.00134978
-0.00119418
-0.00101017
-0.000862018
-0.000801544
-0.000865077
-0.000954973
-0.000750202
0.000333554
0.00315884
0.00880268
0.0184303
0.0331172
0.0539887
0.0828376
0.123604
-0.000815398
-0.0015804
-0.00206115
-0.00244016
-0.00297392
-0.00384395
-0.00522133
-0.00727957
-0.0101129
-0.0136586
-0.0176555
-0.0216182
-0.0248503
-0.0264761
-0.0254599
-0.0203471
-0.00869999
0.0137957
-0.000868722
-0.0017998
-0.00256353
-0.00329199
-0.00424041
-0.00564281
-0.00773138
-0.0107514
-0.0149058
-0.0202876
-0.0268349
-0.0342964
-0.0422108
-0.0498811
-0.056316
-0.059973
-0.0583434
-0.0476609
-0.000909364
-0.00196901
-0.0029591
-0.00396331
-0.00520815
-0.00694249
-0.00942821
-0.0129497
-0.0177759
-0.0241036
-0.032012
-0.041423
-0.052064
-0.0634176
-0.0746424
-0.0843881
-0.0905519
-0.0904273
-0.000942728
-0.00211134
-0.00330373
-0.00456013
-0.00605996
-0.00803729
-0.0107558
-0.0145091
-0.019595
-0.0262719
-0.034716
-0.0449818
-0.0569623
-0.0703431
-0.0845471
-0.0986614
-0.111364
-0.121328
-0.000962779
-0.00221313
-0.00357544
-0.0050607
-0.00679994
-0.00899546
-0.0118928
-0.0157729
-0.0209349
-0.027664
-0.0361967
-0.0466877
-0.0591809
-0.0735869
-0.0896739
-0.107092
-0.125404
-0.144493
-0.000958351
-0.00225035
-0.00373795
-0.00542281
-0.00739915
-0.00983358
-0.0129435
-0.0169861
-0.0222458
-0.0290137
-0.037562
-0.048123
-0.0608738
-0.0759394
-0.0934164
-0.11344
-0.136236
-0.162329
-0.00091308
-0.00218871
-0.00374152
-0.00558561
-0.0077969
-0.010512
-0.0139177
-0.0182415
-0.0237443
-0.0307085
-0.0394231
-0.050171
-0.0632246
-0.0788566
-0.0973706
-0.119155
-0.144709
-0.174587
-0.000806556
-0.00198972
-0.00353899
-0.00550379
-0.00796139
-0.0110273
-0.0148567
-0.0196403
-0.025603
-0.032999
-0.0421043
-0.0532076
-0.0666052
-0.0826054
-0.101546
-0.123813
-0.149837
-0.17983
-0.000616486
-0.00160628
-0.00306222
-0.00509315
-0.0077936
-0.0112645
-0.0156259
-0.0210173
-0.0276023
-0.0355739
-0.04515
-0.0565608
-0.0700398
-0.0858201
-0.104139
-0.125224
-0.149284
-0.17615
-0.000408561
-0.00118029
-0.00251065
-0.00457267
-0.00747758
-0.0113086
-0.0161506
-0.022088
-0.029215
-0.0376535
-0.047554
-0.0590707
-0.0723475
-0.0875177
-0.104707
-0.124004
-0.145455
-0.168712
-0.000240805
-0.00085475
-0.00212372
-0.00425839
-0.00737299
-0.0115364
-0.0167923
-0.0231407
-0.0306449
-0.0393871
-0.0494525
-0.0609208
-0.0738606
-0.0883302
-0.104384
-0.122036
-0.141249
-0.161605
-0.000112184
-0.000623586
-0.00189206
-0.00414363
-0.00746928
-0.0119524
-0.017707
-0.0245304
-0.0324271
-0.0415575
-0.0519858
-0.0636692
-0.0765991
-0.0907915
-0.106251
-0.122932
-0.140729
-0.159203
-2.25687e-05
-0.000506297
-0.00187764
-0.00434159
-0.00795201
-0.012662
-0.0185758
-0.025897
-0.0341514
-0.0435205
-0.0541977
-0.0660985
-0.0790411
-0.0929812
-0.107972
-0.12396
-0.140815
-0.158084
2.54735e-05
-0.000513562
-0.0020854
-0.00495917
-0.00933362
-0.0155534
-0.0231493
-0.0319723
-0.0421832
-0.0535203
-0.0654055
-0.0783451
-0.0922382
-0.106834
-0.122227
-0.138481
-0.155383
-0.172397
2.92171e-05
-0.000713354
-0.00266875
-0.00601102
-0.0110351
-0.0179286
-0.0267829
-0.0382221
-0.0519695
-0.0669532
-0.0796041
-0.0935493
-0.108769
-0.124659
-0.141051
-0.157922
-0.175214
-0.192475
-1.70788e-05
-0.00116636
-0.00428558
-0.00963939
-0.01741
-0.0276432
-0.0405185
-0.055698
-0.073008
-0.0925741
-0.117662
-0.14315
-0.168272
-0.181455
-0.198504
-0.216813
-0.234232
-0.251418
-0.000169469
-0.00125598
-0.00423411
-0.010542
-0.0211768
-0.036369
-0.0559309
-0.0794341
-0.105621
-0.133194
-0.162228
-0.192226
-0.223212
-0.26966
-0.31129
-0.347237
-0.353892
-0.362279
-0.000758599
-0.00334962
-0.00932927
-0.0212939
-0.0408384
-0.0679992
-0.101703
-0.140332
-0.18176
-0.223731
-0.2646
-0.303816
-0.342224
-0.379227
-0.413999
-0.44689
-0.506021
-0.55643
0.000620822
0.00685176
0.0198578
0.0379391
0.0578251
0.0775569
0.0963244
0.114081
0.127871
0.134381
0.13684
0.13966
0.144454
0.146574
0.141079
0.125186
0.103793
0.0801893
-0.00177711
-0.0396153
-0.14747
-0.344182
-0.627513
-0.983665
-1.39645
-1.85242
-2.33941
-2.84082
-3.34146
-3.83324
-4.31845
-4.7957
-5.26037
-5.69904
-6.10298
-6.47335
0.411099
0.626017
0.642071
0.680187
0.549383
0.307097
0.595359
-0.0495298
-0.00613129
-0.0871572
-0.216799
-0.451911
-0.817427
-1.34283
-2.05201
-3.05629
-2.61878
-1.72617
-0.169365
2.33458
6.21728
12.085
20.8755
32.8748
42.0926
28.6647
-4.25106
-6.35455
-5.86704
-6.37053
-9.45533
-15.3636
-8.81967
4.494
9.8498
10.3976
9.31012
6.95854
3.03345
0.420733
-0.78038
-10.7089
-60.145
-139.696
-106.533
-91.1639
-74.581
-58.1543
-42.7338
-28.7399
-16.3468
-5.59115
3.56568
11.2071
17.4448
22.4178
26.3125
29.3146
31.4581
33.1922
32.7698
32.3569
31.885
31.3369
30.7167
30.0334
29.2983
28.5245
27.7269
26.9222
26.1292
25.3674
24.6558
24.0106
23.4423
22.9528
22.5326
22.1604
21.8032
21.4206
20.9703
20.4145
19.7256
18.8886
17.9002
16.7599
15.4288
13.7303
8.15992
5.8248
5.25882
4.86226
4.49807
4.1491
3.81463
3.49669
3.19803
2.92129
2.66899
2.4454
2.26047
2.12889
2.06201
2.05838
2.12247
2.49666
3.64443
5.39518
7.39262
9.04931
9.73665
9.10791
7.31473
4.99
3.22618
1.97856
1.1672
0.689275
0.434952
0.308655
0.240708
0.187869
0.127467
0.0496707
-0.0474647
-0.130904
-0.181274
-0.211366
-0.230489
-0.24878
-0.273387
-0.300905
-0.305019
-0.231404
-0.109306
-0.0381969
-0.0871222
-0.286652
-0.676173
-1.35772
-2.47207
-4.06017
-6.06283
-7.7845
-8.37329
-8.3772
-8.59265
-9.69752
-11.812
-14.1267
-13.7424
-6.12961
-1.08835
-30.5179
-118.792
-98.6029
-70.3108
-43.7445
-21.9201
-5.35938
6.31136
13.5323
18.3965
22.074
24.8571
26.8724
28.0894
28.3166
27.1829
23.9025
15.5854
-7.57904
-12.3304
-15.8231
-19.3683
-22.9922
-26.1778
-23.7631
-7.75748
10.5238
0.430687
0.3778
0.069095
-13.6922
-6.59086
-1.68267
1.0908
2.36714
3.33285
4.12616
4.6243
4.83535
4.83143
4.67445
4.41944
4.06465
2.38317
0.503648
-1.47442
-3.24551
-4.51287
-4.93601
-3.98206
-1.33808
2.69984
12.9071
23.1473
25.2501
17.5765
1.23497
-27.2235
-38.6418
-24.9605
3.66398
21.4223
21.5443
-8.93989
-50.3607
-93.934
-84.5209
-5.8631
1.19604
-9.3896
-14.619
-6.42631
-0.597543
3.97614
7.17518
9.14079
10.0951
10.2768
9.90507
9.16552
8.20529
7.13549
6.02475
4.88609
3.74617
2.75046
1.50531
1.87982
2.24326
2.52758
2.72708
2.84136
2.88044
2.86523
2.82695
2.80661
2.85395
3.02549
3.38163
3.98223
4.8804
6.11461
7.69953
9.61706
11.8097
14.1796
16.5956
18.9087
20.972
22.6617
23.8941
24.6332
24.9143
24.8892
24.8711
22.1501
19.8597
18.3445
16.8963
15.4979
14.1626
12.9008
11.7187
10.6183
9.59928
8.6598
7.79584
6.99849
6.25937
5.58595
4.99065
4.45511
4.02646
3.75252
3.52392
2.98638
2.23878
1.15108
-0.326129
-2.08477
-3.87726
-5.43312
-6.57583
-7.2427
-7.46616
-7.32635
-6.90859
-6.2848
-5.51712
-4.66415
-3.77997
-2.90797
-2.11155
-1.41353
-0.779059
-0.181895
0.397449
0.968992
1.51919
1.99795
2.32362
2.35816
2.05066
1.46889
0.719344
-0.116601
-1.00833
-2.0619
-3.59183
-5.53032
-6.59843
-6.42822
-5.60534
-5.16287
-5.57645
-6.42793
-8.12882
-20.6424
-64.7279
-72.1399
-40.1967
-38.1747
-32.1726
-28.0069
-25.3862
-23.7188
-22.6572
-21.7123
-20.5958
-16.9409
-11.9067
-5.49436
2.10637
10.4278
18.6387
25.6216
30.2332
31.7577
25.9212
22.1343
19.1512
16.7393
14.7458
12.7246
12.1918
9.38999
2.95333
1.16113
-1.83747
-19.5436
-12.8678
-1.21839
3.40492
4.16579
3.80783
3.3919
3.13345
2.98539
2.88691
2.81002
2.74484
2.69444
2.6555
2.36737
1.88836
1.03867
-0.2433
-1.83381
-3.43716
-4.69355
-5.37482
-5.24758
-1.82645
5.91263
14.0071
15.848
5.08063
-30.6851
-57.0278
-49.2686
-12.0497
-2.52785
-41.3479
-78.3591
-34.38
3.06468
17.486
18.8612
11.4273
4.76519
1.96508
1.71472
1.16262
0.357891
-0.56732
-1.3823
-1.89468
-2.02311
-1.80556
-1.35647
-0.803587
-0.237134
0.302235
0.798654
1.26845
1.70275
2.11603
2.45406
2.65627
2.7034
2.5819
2.29534
1.86457
1.32627
0.731184
0.141965
-0.36927
-0.723696
-0.839045
-0.633833
-0.0332094
1.02296
2.56984
4.60635
7.08481
9.90499
12.918
15.9404
18.7746
21.2363
23.1863
24.5457
25.325
25.6584
25.7941
22.9255
21.3515
19.9548
18.5798
17.2243
15.9002
14.6205
13.3966
12.2367
11.1447
10.121
9.16308
8.26695
7.42892
6.64945
5.93065
5.25842
4.64683
4.15193
3.77268
3.57262
3.23893
2.66316
1.9425
1.12304
0.258367
-0.60672
-1.4426
-2.22923
-2.94987
-3.58835
-4.1287
-4.55528
-4.85403
-5.01591
-5.04139
-4.94412
-4.74305
-4.45581
-4.10634
-3.718
-3.30748
-2.87439
-2.39126
-1.81074
-1.10528
-0.391724
0.106262
0.228643
-0.043644
-0.652848
-1.50017
-2.46772
-3.5804
-4.91997
-6.33029
-6.82293
-6.36177
-6.0469
-6.92247
-10.2243
-23.6648
-73.4755
-91.4756
-25.2585
-20.5241
-35.3228
-37.045
-32.2699
-26.8152
-23.9845
-23.3367
-22.9336
-21.0293
-17.7531
-12.4087
-5.07612
4.03233
14.4312
25.1354
34.6785
41.5162
45.026
37.8903
33.9535
29.4822
25.1031
21.2037
17.812
15.3503
14.1715
14.8834
-1.09953
-28.8677
-10.0795
2.66628
5.80153
5.07248
3.71792
2.76289
2.25912
2.02207
1.90633
1.84148
1.79927
1.76575
1.73708
1.72106
1.75173
1.85153
1.79905
1.424
0.5713
-0.748999
-2.29572
-3.824
-5.2272
-5.57654
-3.45944
0.790086
0.908788
-15.2865
-51.6403
-98.0684
-83.6621
-76.426
33.546
17.8407
10.3956
21.2012
23.4976
17.8028
10.026
2.86103
-2.07863
-4.87757
-6.4843
-7.51829
-7.94659
-7.71959
-6.88395
-5.62936
-4.22555
-2.90466
-1.78105
-0.852468
-0.0563152
0.669545
1.37689
2.02127
2.54571
3.09776
3.48999
3.67136
3.622
3.3332
2.8129
2.08835
1.2049
0.223041
-0.785661
-1.7426
-2.56564
-3.17172
-3.47877
-3.40784
-2.8872
-1.85943
-0.291441
1.81309
4.40013
7.35872
10.526
13.6974
16.6578
19.216
21.2185
22.6118
23.3567
22.9005
20.9837
19.7477
18.555
17.4003
16.2935
15.229
14.1966
13.1897
12.2078
11.2547
10.3349
9.45146
8.60619
7.80077
7.03306
6.29604
5.58916
4.92357
4.31799
3.80507
3.38983
3.0314
2.68607
2.25215
1.75562
1.23307
0.71163
0.208179
-0.271033
-0.726816
-1.16126
-1.574
-1.96137
-2.31738
-2.63544
-2.90959
-3.135
-3.30761
-3.42638
-3.4974
-3.53608
-3.5637
-3.59286
-3.60568
-3.54613
-3.35537
-3.04295
-2.70166
-2.42123
-2.20557
-2.01571
-1.89616
-2.02133
-2.65389
-4.00515
-6.01845
-7.76776
-8.5181
-9.01606
-11.5827
-22.6398
-63.3758
-104.209
-41.6542
-1.56996
-33.6509
-44.1799
-35.1452
-22.3387
-15.8444
-15.6678
-17.5779
-18.4896
-17.095
-14.1592
-9.19145
-2.22321
6.78947
17.7005
29.7138
41.192
50.108
53.7769
47.7913
43.3331
37.8616
32.1527
26.7659
22.026
18.2054
15.8602
15.2017
-4.73446
-12.717
1.90706
4.60758
3.52302
2.26295
1.64499
1.49974
1.53148
1.5736
1.57321
1.52845
1.44552
1.32494
1.17084
1.00515
0.909789
1.16096
1.3687
1.48623
1.34506
0.711909
-0.492845
-2.11091
-4.10413
-6.42909
-8.54202
-10.7302
-22.2501
-62.1564
-126.563
-204.616
-68.0968
119.984
65.3984
38.5835
26.3701
19.7227
11.8815
3.72505
-3.07617
-7.975
-11.0087
-12.6094
-13.205
-12.9761
-12.0333
-10.6154
-9.04286
-7.58294
-6.36095
-5.37284
-4.55447
-3.84547
-3.2176
-2.65266
-2.2225
-1.85441
-0.823376
0.0394242
0.814148
1.45289
1.90576
2.13405
2.11758
1.85929
1.38566
0.743308
-0.00696927
-0.79703
-1.55755
-2.22184
-2.72615
-3.00743
-3.00084
-2.63962
-1.85787
-0.599151
1.16335
3.40458
6.04053
8.91908
11.865
14.6576
17.0836
19.0491
20.4236
19.5729
18.769
17.7801
16.6717
15.5611
14.5286
13.6044
12.7783
12.019
11.2939
10.5803
9.86806
9.15676
8.45057
7.7544
7.07106
6.40282
5.75369
5.12609
4.52469
3.96879
3.47842
3.05513
2.67871
2.31063
1.92295
1.51589
1.11223
0.72128
0.352225
0.00775315
-0.314508
-0.619324
-0.910801
-1.19055
-1.45748
-1.70868
-1.94036
-2.14853
-2.33024
-2.48555
-2.62022
-2.74716
-2.88179
-3.02895
-3.17175
-3.28366
-3.36425
-3.44956
-3.54883
-3.55085
-3.24929
-2.6051
-2.00903
-2.12709
-3.46972
-6.04634
-8.94085
-11.0867
-13.3015
-20.5847
-46.084
-101.115
-81.3104
7.56984
-16.2563
-48.7446
-42.5666
-21.1826
-7.52391
-5.71016
-9.1034
-12.279
-13.3716
-12.1578
-9.61023
-5.61718
-0.0630038
7.52967
17.6717
30.1465
43.4258
54.8228
58.7663
55.2736
50.9999
45.0445
38.5039
32.17
26.4598
21.6762
18.2063
16.303
-60.8211
-8.35221
1.72207
1.7163
0.914079
0.810277
1.11413
1.47705
1.71813
1.7945
1.74289
1.61064
1.42091
1.17577
0.874953
0.538745
0.570329
0.252278
0.228022
0.432532
0.722555
0.803785
0.266737
-1.11278
-3.42513
-7.2751
-13.5801
-26.0627
-66.3988
-141.964
-224.163
-58.0218
138.614
101.525
54.9012
30.122
15.6302
5.63904
-2.5226
-8.96444
-13.5623
-16.5027
-18.0888
-18.6069
-18.3011
-17.4366
-16.3237
-15.2367
-14.3336
-13.6543
-13.1682
-12.8234
-12.568
-12.3482
-12.0892
-11.7939
-11.4949
-10.9856
-9.4036
-7.64352
-5.75863
-3.84941
-2.02896
-0.405845
0.930571
1.92225
2.54988
2.83398
2.82896
2.61057
2.25895
1.8431
1.41553
1.01618
0.681905
0.45836
0.413161
0.643463
1.2588
2.34299
3.94182
5.98825
8.42216
10.9405
13.35
15.6727
16.4978
16.7986
16.6837
16.154
15.3061
14.2766
13.2084
12.2156
11.3606
10.6515
10.0569
9.52927
9.02503
8.51624
7.99141
7.45039
6.89771
6.33908
5.78084
5.22939
4.69335
4.18563
3.71649
3.28641
2.88693
2.50372
2.12485
1.7466
1.3681
1.00432
0.663938
0.347269
0.0552773
-0.214503
-0.46657
-0.705627
-0.934872
-1.15512
-1.36484
-1.56097
-1.74009
-1.8999
-2.04098
-2.16831
-2.29053
-2.41418
-2.53795
-2.66094
-2.80326
-3.00359
-3.2699
-3.4962
-3.42261
-2.87817
-2.24817
-2.40556
-4.0184
-7.15233
-10.8796
-14.2972
-19.2922
-34.4878
-78.9523
-110.053
-29.322
17.8651
-38.1518
-53.3394
-28.7759
-4.44258
2.7169
-0.65985
-5.62564
-8.41658
-8.7064
-7.14159
-4.84594
-2.07953
1.36783
6.36983
14.2687
25.854
40.2648
54.9641
58.6532
59.4572
56.4032
50.7236
43.888
37.0123
30.7554
25.4609
21.3207
18.3638
-50.8448
-2.05489
1.49441
0.469465
0.457164
0.968343
1.44866
1.79581
1.95806
1.90848
1.7329
1.51023
1.25984
0.966048
0.603315
0.186105
-0.352096
-0.886091
-1.1318
-0.999233
-0.470681
0.234794
0.375764
-0.829052
-3.77046
-9.74336
-22.5231
-59.4409
-133.951
-191.375
-122.52
118.458
119.453
68.7621
33.6814
13.495
0.892264
-7.7658
-14.1088
-18.6585
-21.71
-23.5201
-24.3393
-24.46
-24.1973
-23.8149
-23.4758
-23.2447
-23.1258
-23.1051
-23.1707
-23.3095
-23.4905
-23.6348
-23.6218
-23.2273
-21.7683
-19.8149
-16.8626
-13.4841
-9.76383
-5.86262
-1.97889
1.67386
4.88764
7.48214
9.32986
10.3826
10.6908
10.4013
9.71971
8.84137
7.90712
6.98821
6.09503
5.20854
4.32805
3.51659
2.90874
2.66305
3.01513
3.9823
5.75945
7.85591
10.1838
12.0354
13.2177
13.9784
14.3677
14.393
14.0597
13.4036
12.515
11.5254
10.5668
9.73294
9.06135
8.5377
8.11604
7.74309
7.37667
6.99309
6.58477
6.15416
5.70846
5.25589
4.80477
4.36409
3.94116
3.53857
3.1534
2.77847
2.40699
2.03655
1.66871
1.30929
0.961684
0.638219
0.338015
0.0614743
-0.193322
-0.429902
-0.652028
-0.862489
-1.06233
-1.25064
-1.42501
-1.58291
-1.72338
-1.84792
-1.95893
-2.05638
-2.13783
-2.21025
-2.30733
-2.47636
-2.72774
-2.9826
-3.04365
-2.77975
-2.57488
-3.27554
-5.43755
-9.04712
-13.2866
-18.0101
-27.1792
-52.6957
-103.416
-86.3582
13.0979
1.95154
-53.9398
-45.2642
-11.1609
6.76089
6.3411
0.0183075
-4.63717
-5.93015
-4.57886
-2.20936
0.100045
1.95046
3.36522
5.3357
9.88701
19.0285
33.1126
48.1398
56.0251
59.9599
58.9798
54.3884
47.8969
40.9408
34.4461
28.8766
24.3643
20.8048
-31.9723
3.05026
1.10675
0.378662
0.876856
1.13385
1.3286
1.56192
1.65385
1.5246
1.29402
1.10057
0.933189
0.71219
0.327184
-0.239177
-1.30168
-2.06541
-2.24154
-1.81288
-0.991341
-0.217227
-0.32326
-2.23663
-7.07402
-22.3163
-53.7906
-113.705
-158.294
-132.997
53.6368
115.278
77.4309
37.8773
12.8477
-2.18778
-11.8102
-18.4188
-23.1475
-26.4619
-28.6224
-29.8934
-30.5842
-30.973
-31.233
-31.4306
-31.5762
-31.6778
-31.7625
-31.8643
-31.9906
-32.0919
-32.0525
-31.7423
-31.0733
-29.7787
-28.5123
-23.1134
-18.5105
-13.2754
-7.46449
-1.28398
5.0007
11.0841
16.6298
21.2791
24.6732
26.5151
26.6741
25.297
22.8258
19.8195
16.7814
14.0405
11.693
9.65033
7.76211
5.93614
4.20918
2.65698
1.72644
1.40863
2.37046
3.90276
6.07275
7.96654
9.56316
10.7889
11.6493
12.1816
12.4052
12.3096
11.8903
11.1939
10.3287
9.43189
8.62059
7.96008
7.45844
7.08164
6.77739
6.49703
6.2081
5.8963
5.56066
5.20703
4.84357
4.47841
4.1176
3.76344
3.41441
3.06668
2.71665
2.36329
2.00838
1.65595
1.31094
0.977784
0.662011
0.36593
0.0899852
-0.166804
-0.406307
-0.630563
-0.841027
-1.03788
-1.21975
-1.38446
-1.53113
-1.66121
-1.77549
-1.86877
-1.93119
-1.96652
-2.01704
-2.14578
-2.36717
-2.60724
-2.73065
-2.72482
-3.04568
-4.46037
-7.27512
-11.2146
-15.7449
-22.2135
-37.066
-72.2762
-108.098
-46.5248
32.0591
-21.0781
-58.9
-30.1227
2.50934
11.0663
5.24125
-1.79782
-4.97676
-4.41943
-1.45751
1.38818
3.91416
5.4486
5.58227
5.06427
6.15098
11.9614
24.4798
38.1489
49.9208
57.1926
58.9174
56.0664
50.451
43.8006
37.3311
31.6811
27.0057
23.1374
-13.2079
4.85207
0.657029
0.746582
0.742727
0.528203
0.5636
0.756631
0.864003
0.8389
0.645734
0.613531
0.62012
0.472135
0.00861777
-0.796635
-2.14851
-2.42661
-2.26524
-2.09499
-2.21774
-2.83143
-5.19397
-10.134
-21.3893
-46.8176
-86.7509
-122.966
-115.969
-6.76592
83.1134
76.6334
41.1691
13.4938
-3.78632
-14.5161
-21.6489
-26.7038
-30.3324
-32.8398
-34.5072
-35.6279
-36.4177
-36.9683
-37.2883
-37.3805
-37.2936
-37.1225
-36.9688
-36.8898
-36.8619
-36.7671
-36.4051
-35.4985
-33.617
-30.8104
-26.796
-21.9279
-16.1855
-9.5341
-2.10892
5.87963
14.1781
22.5046
30.5348
37.8458
43.8426
47.7525
48.8073
46.653
41.7703
35.223
28.2651
21.9621
16.8195
12.7983
9.58411
6.81123
4.3306
1.89042
0.0802501
-1.42116
-1.37152
-0.701343
0.697407
2.53399
4.5056
6.35288
7.91584
9.1363
10.0168
10.5671
10.7764
10.631
10.158
9.44997
8.64405
7.87348
7.22622
6.73131
6.36945
6.09538
5.8606
5.62885
5.38117
5.11294
4.82777
4.53209
4.23143
3.92858
3.62357
3.31465
2.99975
2.67785
2.34957
2.01723
1.68437
1.3529
1.03228
0.722607
0.426395
0.145253
-0.120128
-0.369726
-0.603766
-0.822046
-1.02322
-1.20514
-1.36701
-1.51099
-1.63873
-1.74377
-1.8109
-1.83626
-1.86188
-1.96521
-2.17491
-2.42681
-2.63342
-2.87478
-3.66955
-5.74435
-9.16569
-13.28
-18.1313
-27.1726
-48.6517
-92.2005
-96.7063
-8.87432
32.3454
-40.5512
-54.3462
-14.9339
10.1293
10.5938
2.1236
-3.84976
-5.01832
-3.13644
0.411484
2.90774
5.65349
7.34777
7.01178
4.95099
3.18347
5.66136
14.6862
27.6222
41.3464
51.7439
56.5654
56.0112
51.7507
45.7374
39.4931
33.8836
29.1582
25.1489
0.780107
3.74406
0.668111
0.625178
0.0971741
-0.374033
-0.478741
-0.37779
-0.279
0.139496
-0.052026
-0.0334597
-0.0290891
-0.372387
-1.15162
-2.34493
-2.94784
-3.34536
-3.96343
-4.97769
-6.55624
-9.03864
-13.5161
-22.6529
-40.2718
-66.8089
-91.722
-92.4185
-33.4776
41.0829
61.8192
40.9702
14.6937
-3.95451
-15.7537
-23.5069
-28.9861
-32.9659
-35.7906
-37.7415
-39.0863
-39.9934
-40.5079
-40.6213
-40.3621
-39.8382
-39.2136
-38.647
-38.2325
-37.9661
-37.746
-37.3992
-36.7138
-35.4463
-33.5254
-30.3801
-24.6705
-19.3185
-13.1441
-6.06086
1.77251
10.1334
18.8132
27.6896
36.7544
46.0031
55.1251
63.1193
68.1795
68.3692
63.2202
53.8455
42.3803
31.2966
22.0974
15.1236
10.0553
6.18888
3.26331
0.529141
-1.39603
-2.97078
-3.9722
-4.28973
-3.85674
-2.72216
-1.05259
0.918349
2.95462
4.8655
6.52351
7.85607
8.82163
9.3892
9.54241
9.30713
8.7728
8.07838
7.36786
6.74605
6.25927
5.90217
5.63863
5.42435
5.22314
5.01376
4.78872
4.54902
4.29874
4.04134
3.77822
3.50899
3.23246
2.94755
2.65394
2.35227
2.04421
1.73213
1.41904
1.10828
0.802999
0.505857
0.219162
-0.0551655
-0.315619
-0.560683
-0.788015
-0.994563
-1.17887
-1.34337
-1.49085
-1.61528
-1.69936
-1.73401
-1.75734
-1.85286
-2.0626
-2.34703
-2.6719
-3.15965
-4.34009
-6.95889
-10.8905
-15.1101
-20.6178
-33.1023
-60.9758
-99.0341
-73.8353
18.0713
22.9163
-50.2637
-47.2493
-3.41078
12.894
7.89785
-0.814841
-4.56421
-3.8081
-1.51479
1.16212
3.21248
6.15256
8.15239
7.78153
4.87572
0.986596
0.547987
5.73983
16.9122
31.2242
44.098
52.0798
54.2729
51.8687
46.872
41.0809
35.6305
30.9295
26.8633
9.1959
1.72419
0.864332
0.481222
-0.443134
-1.21395
-1.56596
-1.63795
-1.59384
-1.48613
-1.3617
-1.31575
-1.48602
-2.01947
-3.08272
-4.98166
-5.33292
-6.27078
-7.56349
-9.34314
-11.9231
-16.1674
-23.6735
-35.9714
-52.549
-68.3571
-69.8326
-38.3732
10.9946
38.3325
34.2335
14.914
-3.13584
-15.5774
-23.9023
-29.8421
-34.226
-37.3883
-39.5807
-41.0432
-41.922
-42.2498
-42.0257
-41.3125
-40.272
-39.1259
-38.0809
-37.2655
-36.6992
-36.2937
-35.877
-35.2261
-34.1069
-32.336
-29.6214
-26.2526
-20.7224
-15.4012
-9.25356
-2.31627
5.15223
12.7682
20.1248
27.0041
33.6664
40.9771
49.981
60.925
71.9272
78.8679
78.558
70.6464
57.1406
42.1822
28.9022
18.5135
11.0805
5.6727
2.13232
-0.340351
-2.08638
-3.38038
-4.36773
-5.06944
-5.40273
-5.25112
-4.54699
-3.31271
-1.6532
0.274997
2.29387
4.22793
5.92396
7.26351
8.16736
8.60154
8.59091
8.22722
7.65214
7.01556
6.43247
5.96147
5.60882
5.34765
5.13967
4.9513
4.76121
4.56023
4.34725
4.12447
3.89419
3.65754
3.4144
3.16398
2.90531
2.63769
2.361
2.07582
1.78318
1.48575
1.18603
0.886633
0.590474
0.300664
0.0200902
-0.248414
-0.501228
-0.733903
-0.943661
-1.13242
-1.3036
-1.45181
-1.55902
-1.61329
-1.64992
-1.75349
-1.97339
-2.30204
-2.75985
-3.46905
-4.94509
-8.00452
-12.3715
-16.7426
-23.4175
-39.894
-72.5291
-98.7741
-47.5215
33.4831
10.6491
-53.7519
-37.5071
3.1125
12.7159
4.7869
-2.65215
-3.99947
-1.97668
0.141298
1.47217
3.50252
6.41587
8.54013
8.22436
4.91718
0.0612758
-3.20209
-1.42475
7.09075
20.6544
34.9571
45.7096
50.8276
50.7127
47.1612
42.1316
37.0215
32.4427
28.3811
11.8993
1.20489
0.942758
0.337377
-0.855348
-1.885
-2.4507
-2.65257
-2.70753
-2.76981
-2.91446
-3.19861
-3.67546
-4.39017
-5.37072
-7.02136
-8.05856
-9.39927
-11.2418
-13.8953
-17.8736
-23.8433
-32.2468
-42.4907
-51.5091
-51.4946
-33.9696
-5.11033
17.0259
21.8868
12.1412
-2.39251
-14.4596
-23.0797
-29.4149
-34.2258
-37.7859
-40.2746
-41.8907
-42.7718
-42.9573
-42.4601
-41.3673
-39.8779
-38.2584
-36.7592
-35.5452
-34.6608
-34.0316
-33.4928
-32.8309
-31.8296
-30.2881
-27.9454
-24.6543
-20.0705
-15.5205
-10.3626
-4.40985
2.32899
9.63263
16.9966
23.5876
28.4489
31.1686
32.7518
35.6864
43.2026
55.9437
69.8286
77.827
77.0024
66.782
51.7169
36.7122
23.9722
14.299
7.40362
2.77034
-0.0860794
-1.6114
-2.29728
-2.62774
-2.94801
-3.38125
-3.845
-4.14751
-4.09645
-3.56824
-2.53109
-1.043
0.759667
2.68412
4.51726
6.06707
7.19495
7.8345
7.99976
7.78046
7.31712
6.75917
6.22426
5.77719
5.43246
5.17141
4.96236
4.77585
4.59206
4.40149
4.20189
3.99438
3.78076
3.56207
3.33828
3.10847
2.87126
2.62531
2.36962
2.10363
1.82844
1.5455
1.25631
0.963639
0.670797
0.381157
0.0982576
-0.173366
-0.428021
-0.661437
-0.874414
-1.07031
-1.24431
-1.3782
-1.45827
-1.51808
-1.64136
-1.88091
-2.26125
-2.84667
-3.73379
-5.43545
-8.86334
-13.581
-18.2965
-26.6106
-47.1202
-82.0844
-92.486
-23.4209
39.9365
0.17621
-51.7529
-29.2366
5.72804
11.1356
2.23908
-3.5341
-3.17635
-0.599468
1.45248
2.65791
4.37309
6.56613
8.28383
8.0798
4.98248
-0.388382
-5.427
-6.51871
-1.00634
10.7715
25.3157
38.0474
45.8757
48.2531
46.5108
42.5851
38.0629
33.7595
29.7881
13.0515
2.15169
1.67571
0.66476
-0.953347
-2.35345
-3.18499
-3.53706
-3.67647
-3.86115
-4.24132
-4.87535
-5.76885
-6.81397
-7.77235
-9.01563
-10.4902
-12.3509
-14.8405
-18.2217
-22.7406
-28.4275
-34.6308
-39.1299
-37.8039
-27.7638
-12.077
2.00699
8.67251
5.97677
-3.12914
-13.2963
-21.6311
-28.1434
-33.3141
-37.3019
-40.1767
-42.0684
-43.0998
-43.3191
-42.7445
-41.4644
-39.6902
-37.7207
-35.8564
-34.3158
-33.1854
-32.4091
-31.7994
-31.0791
-29.9689
-28.2555
-25.8456
-22.7542
-18.8834
-14.115
-9.63106
-4.88681
0.321661
6.27997
13.0703
20.5222
27.8091
33.2199
34.8
32.0942
26.9477
25.6198
32.115
47.6367
59.997
67.4564
65.4119
55.6896
42.6136
29.8678
19.2284
11.0633
5.28028
1.73205
0.134014
-0.0515813
0.461141
0.998383
1.12556
0.722504
-0.0716702
-0.980625
-1.70848
-2.01699
-1.76413
-0.921426
0.422675
2.08004
3.80609
5.35837
6.54935
7.2789
7.54335
7.4229
7.04973
6.56512
6.0816
5.66389
5.33075
5.07003
4.85656
4.66572
4.48035
4.29172
4.09731
3.89773
3.69437
3.48801
3.27832
3.064
2.84317
2.6139
2.37463
2.12444
1.86338
1.59231
1.31308
1.02829
0.740959
0.454533
0.17379
-0.094925
-0.346247
-0.579812
-0.798425
-0.99762
-1.1595
-1.26929
-1.35902
-1.51039
-1.77764
-2.2128
-2.9079
-3.92939
-5.81536
-9.55917
-14.6014
-19.8584
-30.1209
-54.197
-88.9793
-81.8765
-4.09009
40.8236
-6.58316
-46.719
-23.0029
5.86214
8.72562
0.640837
-3.57933
-2.54311
0.330551
2.85587
4.42233
5.41526
6.41508
7.33646
7.03852
4.30883
-0.917247
-6.76077
-9.88168
-7.12114
2.36607
16.1669
29.9299
39.9213
44.6876
44.9357
42.3951
38.7221
34.8881
31.1282
13.1742
3.66357
3.0565
1.52473
-0.714308
-2.66928
-3.89563
-4.44793
-4.60922
-4.70235
-4.96597
-5.5016
-6.35222
-7.64087
-9.58464
-9.84305
-11.8013
-14.1546
-17.0213
-20.4601
-24.2913
-27.8299
-29.6786
-28.1714
-22.7713
-14.9814
-7.36571
-2.30167
-1.71088
-6.01971
-13.1259
-20.3659
-26.6748
-32.0185
-36.3747
-39.6777
-41.9594
-43.3079
-43.7718
-43.361
-42.1336
-40.2721
-38.0774
-35.8931
-34.0135
-32.6096
-31.6756
-31.0498
-30.4091
-29.3099
-27.3853
-24.4611
-20.5873
-16.0517
-11.5045
-6.11892
-1.73036
2.20623
6.1917
10.6699
15.8659
22.3315
29.8653
36.9367
40.5278
38.2671
28.4091
19.3958
16.7305
23.3095
36.3486
48.8487
54.4087
51.6224
43.3362
33.206
23.4757
15.087
8.557
4.28523
2.36046
2.39191
3.59846
5.08785
6.14519
6.39354
5.79912
4.57585
3.06189
1.61535
0.543378
0.0572696
0.24347
1.05116
2.30636
3.75752
5.1412
6.2447
6.94639
7.2267
7.15203
6.83965
6.41559
5.98055
5.59361
5.27412
5.01454
4.79553
4.59752
4.40657
4.21541
4.0218
3.82603
3.62902
3.43103
3.23123
3.02786
2.81869
2.60159
2.37415
2.13523
1.88505
1.62435
1.3547
1.0782
0.797603
0.517205
0.243272
-0.0183925
-0.266612
-0.503559
-0.724965
-0.913707
-1.05471
-1.17832
-1.36324
-1.66405
-2.1533
-2.93649
-4.05971
-6.10959
-10.1323
-15.4947
-21.4472
-33.7653
-60.6897
-91.9539
-69.694
9.96245
39.0889
-9.4693
-40.4221
-18.7473
4.5559
6.3981
-0.0318714
-3.07668
-1.83727
1.42525
4.67628
6.25508
6.37003
6.16248
5.98898
5.23247
2.74226
-2.0045
-7.88693
-12.1319
-11.494
-4.27773
8.19879
22.1579
33.6196
40.4199
42.6177
41.6094
38.9966
35.8266
32.4197
12.4704
5.9222
5.27497
3.11345
0.0428094
-2.77203
-4.72479
-5.76165
-6.13706
-6.2078
-6.29294
-6.57133
-7.08172
-7.91062
-9.16738
-10.7889
-12.7789
-15.0728
-17.5693
-20.0195
-21.9619
-22.7942
-22.0682
-19.8376
-16.6574
-13.2245
-10.2888
-8.96312
-10.3839
-14.5261
-20.0562
-25.7116
-30.9548
-35.5237
-39.2063
-41.9163
-43.6835
-44.5478
-44.5056
-43.5678
-41.839
-39.5621
-37.0776
-34.7394
-32.8341
-31.5049
-30.5853
-29.8971
-29.0285
-27.3575
-24.5108
-20.287
-14.8234
-8.40509
-1.24652
3.84536
7.57649
10.714
13.6296
16.9026
20.2651
25.0334
31.5484
39.0432
44.4832
43.8429
35.561
23.1996
13.2758
11.5019
18.8329
30.4725
39.577
42.3581
39.4065
33.1518
25.5255
17.7644
10.9643
6.10929
3.7309
3.69423
5.29076
7.5516
9.58848
10.8108
10.9818
10.1625
8.61212
6.68918
4.77028
3.18817
2.18365
1.87034
2.21901
3.0716
4.18735
5.30866
6.22409
6.80921
7.03709
6.96113
6.68033
6.30091
5.9072
5.54886
5.24305
4.98506
4.76054
4.55465
4.35676
4.16128
3.96638
3.77212
3.57884
3.38618
3.19279
2.99656
2.79509
2.58543
2.36563
2.13501
1.89343
1.64151
1.38035
1.11167
0.838752
0.567135
0.302414
0.0460873
-0.20364
-0.44279
-0.655383
-0.826719
-0.985346
-1.20631
-1.5439
-2.08412
-2.93643
-4.13968
-6.33997
-10.6094
-16.2876
-23.0172
-37.3318
-66.2131
-91.7142
-57.7185
19.4062
36.7339
-9.19333
-33.8684
-15.9638
2.69551
4.59233
0.0575433
-2.04836
-0.640336
2.9719
6.73263
8.20399
7.51695
6.12238
4.69525
3.13114
0.587072
-3.66264
-9.14935
-13.7826
-14.5396
-9.2387
1.72788
15.303
27.578
35.9313
39.8578
40.3779
38.9457
36.5979
33.6809
13.9303
9.09761
8.56156
5.86191
1.88364
-2.10243
-5.27253
-7.34042
-8.43004
-8.89068
-9.13171
-9.49034
-10.0359
-10.432
-11.1926
-12.3209
-13.7235
-15.2574
-16.747
-17.9833
-18.7796
-19.0498
-18.8304
-18.1933
-17.1675
-15.8872
-14.9091
-15.1791
-17.3512
-21.1866
-25.8812
-30.7487
-35.3303
-39.2733
-42.369
-44.5738
-45.9089
-46.3775
-45.8586
-44.4743
-42.3297
-39.6717
-36.8329
-34.1525
-31.9065
-30.1855
-28.9297
-28.0787
-26.1817
-23.6553
-19.9083
-14.5334
-7.21922
1.18028
8.82915
13.3289
16.4556
18.783
20.6929
22.7481
25.2866
28.8782
34.2972
41.5833
48.4815
50.5982
44.7572
32.3314
18.912
10.9459