/*--------------------------------*- C++ -*----------------------------------*\
| =========                 |                                                 |
| \\      /  F ield         | OpenFOAM: The Open Source CFD Toolbox           |
|  \\    /   O peration     | Version:  2112                                  |
|   \\  /    A nd           | Website:  www.openfoam.com                      |
|    \\/     M anipulation  |                                                 |
\*---------------------------------------------------------------------------*/
FoamFile
{
    version     2.0;
    format      ascii;
    arch        "LSB;label=32;scalar=64";
    class       volScalarField;
    location    "0.3";
    object      epsilon;
}
// * * * * * * * * * * * * * * * * * * * * * * * * * * * * * * * * * * * * * //

dimensions      [0 2 -3 0 0 0 0];

internalField   nonuniform List<scalar> 
12225
(
1634.5
2807.18
3722.98
4322.19
4658.26
4810.22
4845.35
4812
4742.2
4655.91
4564.9
4475.68
4391.63
4314.27
4243.96
4180.9
4123.17
4080.68
151.475
316.72
455.207
565.421
650.428
711.676
754.182
783.893
805.55
822.438
836.685
849.605
861.965
874.184
886.479
899.038
912.938
928.543
35.5725
66.5199
95.1589
119.714
140.386
156.966
169.677
179.135
186.074
191.168
194.979
197.95
200.414
202.613
204.711
206.867
209.172
211.681
19.4693
26.9907
34.922
42.4074
49.183
55.1038
60.1224
64.2755
67.6512
70.3563
72.5004
74.1873
75.51
76.549
77.3712
78.0359
78.5843
79.0355
15.9701
18.202
20.8692
23.6155
26.2699
28.7323
30.9506
32.9077
34.609
36.0707
37.3146
38.3648
39.2459
39.9813
40.5925
41.0992
41.5172
41.8532
15.0358
15.6599
16.5728
17.6288
18.7326
19.822
20.8576
21.8175
22.692
23.4787
24.1795
24.7988
25.3428
25.8181
26.2315
26.5896
26.8983
27.1582
14.778
14.8615
15.0969
15.4425
15.8571
16.3069
16.7659
17.2162
17.6466
18.0505
18.4244
18.767
19.0783
19.3594
19.6118
19.8373
20.0377
20.2116
14.7093
14.6163
14.5916
14.6305
14.7214
14.8507
15.0053
15.1742
15.349
15.5236
15.6937
15.8565
16.01
16.1533
16.2858
16.4075
16.5184
16.6167
14.692
14.546
14.4297
14.3453
14.2918
14.2657
14.2622
14.2765
14.3038
14.3404
14.383
14.4291
14.4766
14.5241
14.5706
14.6151
14.6572
14.6952
14.6879
14.5273
14.3821
14.2537
14.1427
14.0487
13.9705
13.9065
13.8548
13.8134
13.7807
13.755
13.7349
13.7193
13.7071
13.6975
13.6898
13.6831
14.6869
14.5226
14.3693
14.227
14.0959
13.976
13.8669
13.768
13.6788
13.5983
13.5258
13.4605
13.4015
13.3481
13.2996
13.2554
13.2151
13.1781
14.6866
14.5215
14.3661
14.2202
14.0833
13.9554
13.836
13.7247
13.6213
13.5251
13.4359
13.353
13.2761
13.2046
13.1381
13.0762
13.0185
12.965
14.6865
14.5211
14.3651
14.218
14.0793
13.9486
13.8254
13.7095
13.6003
13.4975
13.4008
13.3098
13.2242
13.1437
13.0679
12.9965
12.9293
12.8666
14.6864
14.5208
14.3646
14.2172
14.0779
13.9463
13.8219
13.7043
13.593
13.4877
13.388
13.2937
13.2044
13.1198
13.0397
12.9637
12.8918
12.8243
14.6864
14.5207
14.3643
14.2167
14.0772
13.9453
13.8205
13.7024
13.5905
13.4845
13.3839
13.2885
13.198
13.112
13.0303
12.9528
12.8791
12.8098
14.6863
14.5206
14.3641
14.2164
14.0768
13.9448
13.8198
13.7015
13.5894
13.4831
13.3823
13.2865
13.1956
13.1093
13.0272
12.9491
12.8749
12.805
14.6863
14.5205
14.364
14.2162
14.0765
13.9443
13.8193
13.7009
13.5886
13.4822
13.3812
13.2854
13.1943
13.1078
13.0256
12.9473
12.873
12.8029
14.6863
14.5205
14.3639
14.216
14.0763
13.9441
13.8189
13.7004
13.5881
13.4816
13.3806
13.2846
13.1935
13.1069
13.0245
12.9462
12.8718
12.8016
14.6863
14.5204
14.3639
14.216
14.0762
13.944
13.8188
13.7003
13.5879
13.4814
13.3803
13.2843
13.1931
13.1065
13.0241
12.9457
12.8712
12.8011
14.6863
14.5205
14.364
14.2161
14.0763
13.9441
13.819
13.7005
13.5882
13.4817
13.3806
13.2847
13.1936
13.107
13.0247
12.9464
12.872
12.802
14.6863
14.5206
14.3641
14.2163
14.0766
13.9446
13.8196
13.7013
13.5893
13.4831
13.3825
13.2871
13.1965
13.1106
13.029
12.9515
12.8779
12.8087
14.6864
14.5207
14.3645
14.2171
14.0781
13.947
13.8233
13.7068
13.5969
13.4934
13.3958
13.3038
13.2171
13.1353
13.0582
12.9854
12.9168
12.8527
14.6866
14.5217
14.3673
14.2233
14.0894
13.9656
13.8514
13.7464
13.65
13.5617
13.4807
13.4065
13.3384
13.2759
13.2185
13.1656
13.1168
13.0725
14.6886
14.5309
14.3915
14.2714
14.1708
14.0889
14.024
13.9739
13.9364
13.9096
13.8914
13.8801
13.8744
13.8729
13.8746
13.8787
13.8845
13.892
14.7066
14.6032
14.5584
14.568
14.6235
14.715
14.8326
14.9675
15.1129
15.2632
15.4144
15.5634
15.7079
15.8464
15.9781
16.1023
16.2187
16.3276
14.8437
15.0656
15.4759
16.0093
16.6142
17.2507
17.891
18.517
19.1174
19.6853
20.2166
20.7092
21.1629
21.5783
21.9571
22.3012
22.6129
22.8948
15.737
17.5738
19.8191
22.1488
24.448
26.6548
28.7316
30.6568
32.4197
34.0169
35.4502
36.7261
37.8541
38.8461
39.7145
40.4724
41.1329
41.7092
21.3827
31.3315
41.1927
50.2779
58.8296
66.7511
73.9351
80.3219
85.9071
90.719
94.8099
98.2505
101.121
103.502
105.473
107.108
108.473
109.637
67.2176
124.27
176.301
223.533
268.024
308.101
342.51
371.297
394.973
414.232
429.805
442.385
452.592
460.948
467.889
473.78
478.946
483.821
814.891
1236.62
1614.41
1922.69
2190.56
2411.07
2583.51
2711.3
2800.23
2856.99
2888.15
2899.6
2896.31
2882.32
2860.85
2834.37
2804.69
2773.29
0.183681
0.186754
0.297938
0.410068
0.514338
0.608288
0.692528
0.769237
0.841879
0.915545
1.00186
1.09756
1.20307
1.32007
1.44981
1.59172
1.74625
1.91485
2.10173
2.31853
2.59667
2.93886
3.33067
3.77102
4.26289
4.81084
5.41999
6.09562
6.84297
7.66709
8.5727
9.5641
10.6451
11.8189
13.0883
14.4555
15.9226
17.491
19.1625
20.9385
22.8211
24.8127
26.9168
29.1382
31.4838
33.9631
36.59
39.3835
42.3704
45.536
48.8551
52.3297
55.9635
59.7601
63.7232
67.8562
72.1625
76.6454
81.308
86.1533
91.184
96.4024
101.811
107.411
113.204
119.192
125.375
131.753
138.327
145.095
152.056
159.209
166.552
174.082
181.796
189.691
197.761
206.003
214.412
222.981
231.705
240.577
249.59
258.737
268.009
277.398
286.896
296.493
306.181
315.948
325.786
335.682
345.626
355.606
365.611
375.627
385.643
395.646
405.624
415.57
425.481
435.365
445.256
455.116
464.843
474.435
483.884
493.175
502.293
511.222
519.944
528.444
536.704
544.71
552.445
559.895
567.044
573.879
580.386
586.552
592.365
597.814
602.888
607.576
611.871
615.765
619.25
622.321
624.971
627.199
628.999
630.371
631.313
631.827
631.913
631.573
630.813
629.635
628.046
626.053
623.662
620.884
617.727
614.202
610.32
606.094
601.536
596.661
591.481
586.013
580.27
574.269
568.027
561.56
554.883
548.014
540.971
533.767
526.425
518.958
511.384
503.722
495.972
488.189
480.341
472.508
464.775
458.282
455.327
452.774
450.233
447.678
445.101
442.482
439.775
436.879
433.565
429.235
422.508
406.306
0.584536
0.356938
0.328612
0.340501
0.367736
0.404107
0.448
0.49965
0.560414
0.632151
0.716658
0.814421
0.926886
1.0564
1.20582
1.37242
1.55947
1.77017
2.0082
2.27788
2.58357
2.92663
3.30698
3.72507
4.18168
4.67748
5.21289
5.78799
6.40258
7.05626
7.74847
8.47864
9.24624
10.0509
10.8926
11.7713
12.6876
13.6423
14.6366
15.6719
16.7503
17.8738
19.045
20.2668
21.5422
22.8743
24.2662
25.7205
27.2388
28.82
30.4633
32.1699
33.9407
35.7772
37.6803
39.6512
41.691
43.8004
45.9804
48.2316
50.5547
52.9501
55.4181
57.9591
60.5731
63.2602
66.0201
68.8525
71.757
74.733
77.7798
80.8963
84.0815
87.3342
90.6531
94.0365
97.4828
100.99
104.556
108.18
111.857
115.587
119.367
123.193
127.063
130.974
134.922
138.905
142.919
146.96
151.024
155.108
159.207
163.317
167.435
171.554
175.672
179.784
183.888
187.982
192.07
196.159
200.271
204.408
208.507
212.556
216.552
220.486
224.355
228.15
231.866
235.496
239.035
242.475
245.811
249.037
252.147
255.136
257.998
260.728
263.321
265.773
268.078
270.234
272.236
274.081
275.765
277.287
278.643
279.832
280.852
281.702
282.381
282.888
283.224
283.389
283.384
283.21
282.868
282.362
281.692
280.862
279.876
278.736
277.446
276.011
274.436
272.724
270.882
268.914
266.825
264.623
262.312
259.9
257.391
254.793
252.111
249.353
246.525
243.634
240.685
237.688
234.638
231.566
228.437
225.322
222.265
219.496
217.394
215.463
213.568
211.686
209.81
207.938
206.066
204.185
202.269
200.298
198.135
196.538
1.17252
0.591478
0.480312
0.460939
0.474656
0.507178
0.554493
0.616209
0.692378
0.783093
0.889003
1.01182
1.15308
1.31418
1.49632
1.7004
1.92784
2.18025
2.45924
2.76625
3.10223
3.4674
3.86152
4.28421
4.73508
5.2137
5.71962
6.25245
6.8119
7.39788
8.01049
8.6501
9.31734
10.0131
10.7385
11.4949
12.2838
13.1067
13.9655
14.8618
15.7974
16.7741
17.7936
18.8575
19.9672
21.1242
22.3296
23.5841
24.8883
26.2424
27.6471
29.103
30.6108
32.1712
33.7849
35.4524
37.1744
38.9513
40.7835
42.6715
44.6155
46.6158
48.6725
50.7856
52.9552
55.1812
57.4634
59.8014
62.195
64.6436
67.1466
69.7034
72.3131
74.9749
77.6877
80.4503
83.2616
86.1202
89.0246
91.9732
94.9643
97.9961
101.067
104.174
107.316
110.49
113.694
116.925
120.182
123.461
126.759
130.074
133.403
136.743
140.092
143.447
146.805
150.166
153.528
156.892
160.258
163.628
167.004
170.364
173.694
176.986
180.234
183.433
186.578
189.664
192.685
195.637
198.514
201.312
204.025
206.648
209.178
211.608
213.936
216.156
218.265
220.259
222.134
223.888
225.517
227.018
228.388
229.627
230.731
231.699
232.529
233.222
233.775
234.189
234.464
234.6
234.598
234.459
234.183
233.774
233.232
232.559
231.76
230.835
229.789
228.625
227.346
225.957
224.461
222.862
221.166
219.377
217.499
215.538
213.498
211.385
209.203
206.957
204.656
202.3
199.897
197.456
194.96
192.46
189.937
187.415
184.927
182.563
180.435
178.411
176.428
174.468
172.526
170.605
168.708
166.845
165.031
163.322
161.791
161.186
1.79186
0.830074
0.651684
0.615504
0.62784
0.666513
0.725173
0.800242
0.891168
0.999029
1.12496
1.27013
1.43553
1.62201
1.8302
2.06064
2.31384
2.59027
2.8903
3.21415
3.56177
3.93291
4.3272
4.7443
5.18395
5.64604
6.13065
6.6381
7.16891
7.72385
8.30392
8.91029
9.54431
10.2074
10.9012
11.6271
12.3868
13.1817
14.0135
14.8834
15.7928
16.7429
17.735
18.7699
19.8487
20.9722
22.141
23.3557
24.617
25.9252
27.2812
28.6854
30.1386
31.6414
33.1945
34.7985
36.4539
38.1612
39.9211
41.7339
43.6001
45.52
47.494
49.5222
51.6048
53.742
55.9337
58.18
60.4806
62.8353
65.2438
67.7056
70.2202
72.7869
75.4049
78.0734
80.7912
83.5573
86.3704
89.229
92.1317
95.0767
98.0624
101.087
104.148
107.243
110.371
113.529
116.715
119.926
123.159
126.412
129.682
132.968
136.265
139.573
142.888
146.21
149.536
152.865
156.195
159.525
162.842
166.137
169.4
172.625
175.807
178.94
182.019
185.039
187.994
190.879
193.69
196.42
199.066
201.621
204.082
206.443
208.702
210.852
212.891
214.814
216.618
218.3
219.857
221.287
222.586
223.752
224.785
225.682
226.442
227.064
227.548
227.894
228.102
228.172
228.105
227.902
227.566
227.096
226.497
225.769
224.916
223.941
222.847
221.638
220.317
218.887
217.355
215.723
213.997
212.179
210.278
208.296
206.238
204.111
201.919
199.663
197.357
194.998
192.593
190.162
187.697
185.216
182.719
180.221
177.745
175.335
173.037
170.81
168.623
166.465
164.336
162.238
160.181
158.184
156.276
154.53
153.049
152.295
2.37591
1.0655
0.83597
0.788925
0.802531
0.848554
0.915641
1.00113
1.10479
1.22709
1.36871
1.53033
1.71243
1.91533
2.13917
2.38394
2.64958
2.93597
3.24297
3.57039
3.91804
4.28576
4.67347
5.08122
5.50928
5.95812
6.42843
6.92113
7.43732
7.97826
8.54534
9.14004
9.76389
10.4184
11.1052
11.8256
12.5812
13.3732
14.203
15.0717
15.9805
16.9304
17.9224
18.9573
20.0359
21.1591
22.3275
23.5418
24.8029
26.1113
27.4678
28.8732
30.3284
31.8341
33.3911
35.0003
36.6623
38.3781
40.1483
41.9736
43.8547
45.7922
47.7868
49.839
51.9492
54.1178
56.3452
58.6316
60.977
63.3816
65.8453
68.3678
70.9489
73.588
76.2846
79.0379
81.847
84.711
87.6284
90.5981
93.6185
96.6879
99.8045
102.966
106.171
109.417
112.701
116.021
119.375
122.759
126.171
129.608
133.067
136.546
140.041
143.551
147.071
150.599
154.133
157.669
161.206
164.732
168.238
171.716
175.16
178.564
181.92
185.223
188.468
191.649
194.759
197.793
200.746
203.611
206.384
209.059
211.631
214.095
216.446
218.681
220.794
222.781
224.64
226.366
227.956
229.409
230.72
231.889
232.913
233.791
234.522
235.106
235.541
235.827
235.967
235.959
235.805
235.507
235.066
234.485
233.767
232.913
231.926
230.812
229.572
228.212
226.735
225.145
223.448
221.649
219.751
217.759
215.681
213.522
211.282
208.974
206.603
204.16
201.675
199.145
196.574
193.972
191.342
188.693
186.032
183.369
180.72
178.112
175.567
173.075
170.623
168.206
165.824
163.486
161.204
158.999
156.909
155.004
153.371
152.275
2.88998
1.30194
1.0274
0.970493
0.98458
1.03311
1.10597
1.1995
1.31256
1.44497
1.59689
1.76851
1.9599
2.17101
2.40161
2.65141
2.9201
3.20739
3.51303
3.83688
4.17894
4.53931
4.9183
5.31641
5.73435
6.173
6.63346
7.11697
7.62488
8.15866
8.7198
9.30984
9.9303
10.5827
11.2685
11.989
12.7457
13.5399
14.3726
15.2452
16.1587
17.1141
18.1125
19.1548
20.2419
21.3747
22.5543
23.7814
25.0571
26.3822
27.7579
29.185
30.6648
32.1981
33.7863
35.4303
37.1312
38.8902
40.7083
42.5865
44.526
46.5278
48.5927
50.7217
52.9156
55.1752
57.5012
59.8941
62.3543
64.8823
67.4782
70.142
72.8738
75.6731
78.5396
81.4726
84.4714
87.5349
90.6619
93.8509
97.1005
100.409
103.774
107.193
110.665
114.186
117.754
121.366
125.019
128.71
132.435
136.192
139.978
143.787
147.618
151.466
155.328
159.201
163.079
166.959
170.836
174.695
178.528
182.328
186.089
189.804
193.466
197.069
200.605
204.068
207.452
210.75
213.956
217.064
220.067
222.959
225.735
228.39
230.918
233.314
235.574
237.693
239.667
241.492
243.166
244.685
246.048
247.251
248.293
249.173
249.889
250.442
250.83
251.056
251.118
251.018
250.758
250.339
249.764
249.037
248.158
247.133
245.964
244.655
243.213
241.64
239.941
238.12
236.186
234.142
231.994
229.744
227.406
224.983
222.472
219.893
217.252
214.548
211.794
208.995
206.157
203.286
200.39
197.475
194.548
191.62
188.703
185.813
182.967
180.164
177.4
174.677
171.998
169.373
166.817
164.355
162.022
159.882
157.998
156.517
3.30094
1.51964
1.21347
1.14671
1.15729
1.2073
1.28413
1.38292
1.50175
1.63989
1.79705
1.97306
2.16771
2.3807
2.61169
2.86029
3.12616
3.40907
3.70889
4.02568
4.35966
4.71126
5.08108
5.46993
5.87879
6.3088
6.76123
7.23747
7.73895
8.26718
8.82366
9.40993
10.0275
10.6778
11.3623
12.0824
12.8394
13.6348
14.4696
15.3453
16.263
17.2239
18.2292
19.28
20.3776
21.523
22.7174
23.9621
25.2583
26.6072
28.0103
29.4689
30.9844
32.5582
34.1918
35.8867
37.6445
39.4665
41.3544
43.3097
45.3337
47.4281
49.5941
51.8331
54.1465
56.5352
59.0006
61.5435
64.1647
66.8649
69.6447
72.5043
75.4439
78.4635
81.5626
84.7409
87.9975
91.3314
94.7414
98.2259
101.783
105.411
109.107
112.87
116.695
120.581
124.523
128.52
132.566
136.659
140.794
144.968
149.177
153.416
157.681
161.967
166.27
170.584
174.906
179.231
183.541
187.828
192.083
196.3
200.472
204.589
208.646
212.634
216.545
220.372
224.108
227.744
231.275
234.692
237.989
241.16
244.198
247.096
249.85
252.453
254.901
257.188
259.311
261.264
263.046
264.653
266.082
267.331
268.399
269.284
269.986
270.504
270.838
270.989
270.958
270.747
270.357
269.792
269.054
268.146
267.073
265.837
264.444
262.897
261.205
259.37
257.399
255.293
253.066
250.723
248.267
245.697
243.038
240.292
237.459
234.553
231.58
228.544
225.456
222.322
219.149
215.943
212.712
209.464
206.205
202.945
199.695
196.467
193.274
190.12
187.008
183.942
180.928
177.979
175.11
172.347
169.724
167.295
165.099
163.221
3.61232
1.71875
1.38485
1.30671
1.31363
1.36351
1.44193
1.54304
1.66423
1.80429
1.96258
2.13867
2.33217
2.54272
2.76994
3.0135
3.27316
3.54883
3.84057
4.14863
4.47346
4.81569
5.17615
5.5558
5.95579
6.37734
6.82181
7.2906
7.78518
8.30705
8.85771
9.43867
10.0514
10.6975
11.3784
12.0955
12.8503
13.6443
14.4788
15.3553
16.2751
17.2398
18.2507
19.3092
20.4169
21.5752
22.7856
24.0497
25.3692
26.7457
28.181
29.6768
31.235
32.8575
34.5463
36.3033
38.1305
40.03
42.0037
44.0538
46.1822
48.3909
50.6818
53.0568
55.5177
58.0661
60.7035
63.4314
66.251
69.1633
72.1692
75.2694
78.4641
81.7535
85.1374
88.6154
92.1867
95.8503
99.6047
103.448
107.379
111.394
115.491
119.668
123.92
128.244
132.637
137.094
141.612
146.185
150.809
155.48
160.193
164.941
169.721
174.525
179.35
184.188
189.033
193.877
198.697
203.487
208.239
212.945
217.597
222.185
226.702
231.137
235.483
239.731
243.873
247.899
251.802
255.574
259.207
262.694
266.027
269.201
272.208
275.043
277.7
280.173
282.458
284.551
286.448
288.146
289.642
290.935
292.023
292.905
293.58
294.048
294.31
294.367
294.221
293.873
293.326
292.584
291.649
290.528
289.224
287.74
286.082
284.256
282.271
280.131
277.842
275.404
272.837
270.146
267.337
264.412
261.387
258.269
255.062
251.777
248.421
245.002
241.527
238.006
234.445
230.853
227.236
223.603
219.962
216.321
212.69
209.08
205.502
201.964
198.471
195.029
191.649
188.342
185.128
182.029
179.078
176.318
173.77
171.489
4.12254
1.94758
1.55278
1.45328
1.45135
1.49751
1.57445
1.67491
1.79546
1.93438
2.0907
2.2638
2.45322
2.65855
2.87949
3.11582
3.36743
3.63438
3.91692
4.21544
4.53056
4.86303
5.21379
5.58391
5.97455
6.38701
6.82264
7.28285
7.7691
8.28289
8.82574
9.39918
10.0048
10.644
11.3186
12.03
12.7799
13.5698
14.4015
15.2764
16.1964
17.1631
18.1783
19.2436
20.3611
21.5325
22.7598
24.045
25.3902
26.7975
28.2692
29.8075
31.4149
33.0939
34.8468
36.6763
38.585
40.5755
42.6504
44.8124
47.0641
49.4081
51.8469
54.3829
57.0185
59.7558
62.597
65.5438
68.598
71.7609
75.0339
78.4177
81.913
85.52
89.2387
93.0685
97.0088
101.058
105.215
109.478
113.843
118.309
122.872
127.529
132.275
137.106
142.018
147.006
152.065
157.189
162.374
167.612
172.899
178.228
183.593
188.987
194.403
199.834
205.273
210.694
216.084
221.437
226.743
231.993
237.178
242.287
247.311
252.239
257.061
261.768
266.349
270.797
275.1
279.252
283.243
287.065
290.71
294.171
297.442
300.515
303.384
306.044
308.489
310.715
312.719
314.497
316.047
317.368
318.458
319.316
319.942
320.335
320.499
320.433
320.141
319.624
318.887
317.932
316.766
315.393
313.819
312.049
310.087
307.938
305.618
303.132
300.485
297.683
294.739
291.661
288.455
285.131
281.698
278.165
274.54
270.832
267.051
263.204
259.301
255.351
251.361
247.34
243.296
239.238
235.174
231.112
227.063
223.037
219.043
215.091
211.189
207.346
203.572
199.882
196.293
192.829
189.518
186.396
183.468
180.776
4.93257
2.20995
1.71504
1.5831
1.56719
1.60626
1.67897
1.77624
1.89375
2.02922
2.18138
2.34945
2.53291
2.73139
2.94465
3.17258
3.41522
3.67275
3.94553
4.23409
4.53912
4.86146
5.20208
5.56208
5.94265
6.34508
6.77072
7.22099
7.69735
8.20132
8.73445
9.29835
9.89463
10.525
11.1911
11.8948
12.6378
13.4219
14.2491
15.1213
16.0404
17.0086
18.0279
19.1006
20.2289
21.4151
22.6617
23.9712
25.3462
26.7895
28.3039
29.8922
31.5575
33.3029
35.1316
37.0468
39.0518
41.1499
43.3445
45.6389
48.0365
50.5404
53.1538
55.8799
58.7214
61.6813
64.762
67.966
71.2952
74.7516
78.3367
82.0515
85.8969
89.8731
93.9801
98.2174
102.584
107.078
111.698
116.442
121.305
126.286
131.38
136.582
141.889
147.294
152.792
158.377
164.043
169.784
175.594
181.465
187.391
193.365
199.378
205.423
211.491
217.574
223.655
229.703
235.711
241.67
247.572
253.405
259.158
264.82
270.379
275.825
281.145
286.328
291.365
296.245
300.958
305.494
309.845
314.001
317.953
321.695
325.219
328.518
331.585
334.414
336.999
339.336
341.422
343.255
344.831
346.15
347.21
348.011
348.553
348.837
348.865
348.638
348.162
347.438
346.471
345.261
343.822
342.157
340.273
338.176
335.871
333.368
330.677
327.806
324.762
321.555
318.194
314.689
311.05
307.286
303.406
299.421
295.341
291.174
286.931
282.622
278.255
273.84
269.387
264.904
260.401
255.886
251.367
246.855
242.359
237.888
233.454
229.065
224.732
220.465
216.275
212.179
208.194
204.341
200.646
197.136
193.809
190.703
5.73466
2.45568
1.8572
1.6904
1.65838
1.68831
1.7548
1.84701
1.95968
2.09005
2.23657
2.39832
2.57474
2.76548
2.97038
3.1894
3.42269
3.67052
3.93334
4.21174
4.50646
4.81837
5.14847
5.49784
5.86769
6.25931
6.67405
7.11335
7.5787
8.07168
8.5939
9.14708
9.73297
10.3534
11.0103
11.7055
12.4413
13.2196
14.0426
14.9128
15.8324
16.8039
17.8299
18.9131
20.0562
21.2622
22.5341
23.8749
25.2881
26.7769
28.3448
29.9956
31.7329
33.5606
35.4827
37.5032
39.6261
41.8556
44.1959
46.6511
49.2252
51.9222
54.746
57.7003
60.7886
64.0142
67.3801
70.8892
74.544
78.3466
82.2986
86.4014
90.6557
95.0617
99.6194
104.328
109.185
114.191
119.341
124.632
130.062
135.626
141.319
147.135
153.069
159.115
165.264
171.511
177.849
184.269
190.765
197.328
203.95
210.624
217.34
224.089
230.86
237.644
244.393
251.099
257.754
264.346
270.864
277.297
283.632
289.858
295.96
301.926
307.742
313.397
318.881
324.181
329.288
334.19
338.879
343.344
347.577
351.57
355.315
358.806
362.036
364.996
367.682
370.089
372.216
374.059
375.616
376.888
377.872
378.57
378.982
379.109
378.953
378.519
377.81
376.832
375.589
374.086
372.331
370.332
368.096
365.63
362.943
360.043
356.941
353.646
350.168
346.517
342.702
338.736
334.628
330.389
326.03
321.561
316.993
312.337
307.603
302.802
297.944
293.038
288.095
283.125
278.137
273.14
268.145
263.16
258.194
253.26
248.365
243.523
238.742
234.035
229.415
224.896
220.497
216.238
212.141
208.227
204.49
200.966
6.49822
2.67523
1.97519
1.77361
1.72466
1.74425
1.8032
1.889
1.9956
2.11978
2.25974
2.41445
2.58329
2.76594
2.96227
3.17231
3.39627
3.63447
3.88742
4.15574
4.4402
4.74168
5.06118
5.39981
5.75878
6.13938
6.54303
6.97118
7.42542
7.9074
8.41888
8.96171
9.53782
10.1493
10.7982
11.4868
12.2176
12.9929
13.8154
14.6877
15.6129
16.5937
17.6335
18.7354
19.9028
21.1394
22.4488
23.835
25.3019
26.8537
28.4947
30.2295
32.0626
33.9988
36.0429
38.1998
40.4746
42.8722
45.3976
48.0559
50.8519
53.7904
56.8759
60.1128
63.5049
67.0559
70.7694
74.6484
78.6957
82.9135
87.3035
91.8669
96.6042
101.515
106.6
111.856
117.282
122.875
128.631
134.548
140.619
146.839
153.203
159.705
166.336
173.089
179.955
186.926
193.993
201.148
208.383
215.688
223.055
230.474
237.936
245.429
252.943
260.424
267.858
275.233
282.539
289.763
296.894
303.917
310.821
317.591
324.216
330.675
336.957
343.05
348.941
354.621
360.076
365.298
370.274
374.997
379.456
383.644
387.553
391.176
394.511
397.543
400.267
402.682
404.786
406.576
408.053
409.214
410.061
410.595
410.816
410.728
410.333
409.637
408.643
407.359
405.789
403.941
401.823
399.443
396.809
393.931
390.817
387.479
383.926
380.17
376.221
372.09
367.789
363.329
358.722
353.979
349.112
344.133
339.053
333.883
328.636
323.321
317.95
312.534
307.083
301.608
296.119
290.626
285.138
279.665
274.218
268.807
263.442
258.136
252.898
247.742
242.681
237.73
232.907
228.232
223.721
219.395
215.241
211.3
7.21168
2.86658
2.06904
1.8337
1.7677
1.77634
1.82691
1.90547
2.00522
2.12259
2.25555
2.40296
2.56416
2.73882
2.92681
3.12821
3.34325
3.57231
3.81591
4.0747
4.34946
4.64111
4.95068
5.27929
5.62819
5.99875
6.39244
6.81084
7.25564
7.72866
8.23185
8.76726
9.33711
9.94372
10.5896
11.2774
12.0098
12.7899
13.6207
14.5055
15.4477
16.4511
17.5194
18.6566
19.8671
21.1552
22.5255
23.9828
25.532
27.1782
28.9266
30.7828
32.7523
34.8409
37.0545
39.3989
41.8802
44.5042
47.2768
50.204
53.2915
56.5447
59.9688
63.5684
67.3476
71.31
75.4592
79.7986
84.3306
89.0573
93.9801
99.0996
104.416
109.928
115.634
121.532
127.618
133.89
140.341
146.967
153.761
160.717
167.828
175.086
182.484
190.008
197.649
205.397
213.242
221.176
229.19
237.273
245.415
253.606
261.837
270.095
278.32
286.488
294.587
302.607
310.534
318.355
326.057
333.624
341.043
348.303
355.395
362.283
368.961
375.418
381.643
387.623
393.347
398.805
403.986
408.88
413.479
417.774
421.759
425.426
428.77
431.783
434.461
436.8
438.799
440.457
441.773
442.748
443.382
443.677
443.637
443.264
442.562
441.538
440.197
438.546
436.591
434.342
431.806
428.994
425.914
422.578
418.995
415.177
411.135
406.881
402.427
397.785
392.967
387.986
382.855
377.585
372.189
366.68
361.07
355.371
349.595
343.754
337.859
331.922
325.954
319.966
313.968
307.971
301.985
296.021
290.087
284.196
278.358
272.585
266.889
261.282
255.778
250.393
245.144
240.048
235.122
230.381
225.812
221.458
7.87314
3.03069
2.1406
1.87315
1.79048
1.788
1.82985
1.9008
1.99344
2.10388
2.22991
2.37028
2.52428
2.69155
2.87198
3.06565
3.27282
3.49389
3.72943
3.98011
4.24678
4.53039
4.83203
5.15293
5.49443
5.85802
6.24532
6.65809
7.09824
7.56786
8.06917
8.60458
9.17667
9.78822
10.4422
11.1418
11.8903
12.6914
13.5489
14.4667
15.4492
16.5008
17.6263
18.8308
20.1195
21.4979
22.9719
24.5473
26.2301
28.0264
29.9425
31.9851
34.161
36.477
38.94
41.5569
44.3346
47.2799
50.3994
53.6998
57.1873
60.8681
64.7481
68.8321
73.122
77.6211
82.3329
87.2603
92.4052
97.7687
103.351
109.152
115.17
121.403
127.848
134.5
141.356
148.408
155.651
163.077
170.679
178.448
186.376
194.454
202.676
211.026
219.483
228.041
236.692
245.425
254.231
263.099
272.019
280.978
289.971
298.916
307.792
316.586
325.285
333.876
342.344
350.675
358.854
366.867
374.699
382.336
389.764
396.964
403.922
410.626
417.065
423.225
429.097
434.67
439.933
444.878
449.495
453.777
457.718
461.311
464.551
467.433
469.953
472.107
473.896
475.318
476.373
477.064
477.392
477.359
476.97
476.229
475.141
473.714
471.953
469.866
467.463
464.751
461.741
458.444
454.869
451.028
446.933
442.596
438.029
433.245
428.257
423.078
417.72
412.198
406.524
400.712
394.774
388.725
382.576
376.341
370.031
363.661
357.24
350.782
344.298
337.799
331.295
324.798
318.319
311.867
305.453
299.089
292.785
286.552
280.404
274.353
268.414
262.601
256.93
251.42
246.083
240.934
235.957
231.202
8.49128
3.17071
2.19289
1.8953
1.79681
1.78358
1.81694
1.88054
1.96646
2.07053
2.1904
2.32474
2.47277
2.63411
2.80866
2.99653
3.198
3.41354
3.64378
3.8895
4.15163
4.43127
4.72964
5.04815
5.38836
5.752
6.14096
6.55735
7.00344
7.48175
7.995
8.54612
9.13831
9.775
10.4599
11.197
11.9906
12.8452
13.7658
14.7571
15.8247
16.9743
18.2119
19.5439
20.9771
22.5186
24.1757
25.956
27.8667
29.9142
32.1063
34.4509
36.9561
39.6296
42.4794
45.513
48.738
52.1615
55.7904
59.6313
63.6905
67.9741
72.4888
77.2438
82.2273
87.4445
92.8988
98.5917
104.524
110.694
117.1
123.741
130.612
137.708
145.025
152.557
160.295
168.232
176.359
184.667
193.146
201.785
210.575
219.503
228.56
237.731
247.002
256.362
265.799
275.305
284.868
294.481
304.136
313.8
323.39
332.897
342.303
351.595
360.757
369.776
378.636
387.322
395.82
404.115
412.192
420.038
427.638
434.977
442.041
448.818
455.296
461.464
467.311
472.828
478.005
482.833
487.305
491.415
495.156
498.522
501.51
504.116
506.336
508.17
509.617
510.677
511.351
511.642
511.552
511.086
510.249
509.045
507.482
505.567
503.308
500.714
497.793
494.557
491.015
487.179
483.061
478.673
474.027
469.137
464.015
458.675
453.131
447.396
441.484
435.408
429.184
422.824
416.342
409.753
403.068
396.301
389.466
382.574
375.638
368.67
361.683
354.686
347.692
340.712
333.755
326.833
319.956
313.136
306.383
299.709
293.126
286.649
280.289
274.064
267.988
262.076
256.343
250.8
245.433
240.292
9.10853
3.29648
2.23114
1.90461
1.79123
1.76809
1.79382
1.85111
1.93159
2.03086
2.14646
2.27697
2.4216
2.57998
2.75206
2.938
3.13823
3.35334
3.58413
3.8316
4.09691
4.38145
4.68677
5.01466
5.3671
5.7463
6.15475
6.59514
7.0705
7.58409
8.13952
8.74074
9.39201
10.0979
10.8632
11.6935
12.5946
13.5729
14.635
15.7869
17.0355
18.3886
19.8542
21.4405
23.1565
25.0112
27.0143
29.1769
31.508
34.009
36.6909
39.5633
42.6347
45.9137
49.408
53.1251
57.0715
61.2537
65.6772
70.347
75.2672
80.4417
85.8734
91.5639
97.5104
103.712
110.167
116.874
123.83
131.031
138.472
146.146
154.048
162.169
170.502
179.037
187.765
196.674
205.755
214.996
224.385
233.91
243.559
253.32
263.18
273.128
283.15
293.236
303.374
313.556
323.773
334.019
344.21
354.301
364.28
374.131
383.842
393.397
402.782
411.982
420.983
429.771
438.331
446.65
454.714
462.51
470.025
477.245
484.159
490.755
497.022
502.95
508.529
513.751
518.608
523.092
527.197
530.917
534.247
537.183
539.722
541.861
543.599
544.936
545.872
546.408
546.546
546.291
545.645
544.615
543.205
541.423
539.276
536.771
533.919
530.729
527.211
523.375
519.234
514.8
510.084
505.099
499.86
494.379
488.67
482.747
476.625
470.316
463.836
457.199
450.419
443.51
436.486
429.361
422.148
414.86
407.51
400.112
392.678
385.219
377.748
370.275
362.813
355.371
347.961
340.593
333.277
326.025
318.848
311.757
304.764
297.883
291.127
284.511
278.05
271.759
265.649
259.734
253.996
248.492
9.71268
3.40321
2.25648
1.90552
1.78076
1.7509
1.77231
1.82685
1.90584
2.00474
2.12102
2.25326
2.40076
2.56326
2.74087
2.93402
3.1434
3.36998
3.61497
3.87983
4.16631
4.4764
4.81241
5.17691
5.57285
6.00348
6.47244
6.98377
7.54195
8.15179
8.81865
9.54857
10.3481
11.2236
12.1818
13.2309
14.3798
15.6384
17.0189
18.5247
20.1651
21.9514
23.8944
26.005
28.2936
30.7712
33.4482
36.3349
39.4402
42.771
46.3353
50.1407
54.1942
58.5018
63.0684
67.8983
72.9944
78.359
83.9933
89.8974
96.0707
102.512
109.218
116.185
123.408
130.882
138.599
146.553
154.737
163.143
171.761
180.582
189.598
198.796
208.167
217.7
227.382
237.203
247.151
257.213
267.377
277.632
287.966
298.367
308.826
319.33
329.872
340.439
351.025
361.632
372.178
382.594
392.884
403.03
413.02
422.838
432.473
441.909
451.135
460.137
468.902
477.418
485.672
493.651
501.345
508.74
515.826
522.592
529.027
535.122
540.866
546.251
551.27
555.915
560.178
564.055
567.54
570.628
573.316
575.601
577.481
578.955
580.023
580.684
580.942
580.797
580.254
579.316
577.989
576.278
574.19
571.733
568.914
565.743
562.229
558.382
554.214
549.735
544.958
539.895
534.56
528.964
523.122
517.048
510.755
504.257
497.57
490.707
483.682
476.51
469.205
461.78
454.251
446.629
438.93
431.166
423.349
415.492
407.608
399.708
391.804
383.908
376.028
368.178
360.366
352.603
344.9
337.267
329.715
322.255
314.9
307.661
300.553
293.589
286.784
280.153
273.705
267.455
261.385
255.555
10.3215
3.49861
2.27624
1.90656
1.77575
1.74465
1.76763
1.82592
1.91064
2.0172
2.14317
2.28732
2.44925
2.62908
2.82744
3.04532
3.28413
3.54567
3.83211
4.146
4.49033
4.86857
5.28467
5.74301
6.24867
6.80732
7.42495
8.10862
8.86631
9.70566
10.6351
11.6653
12.8097
14.0761
15.4721
17.0115
18.7078
20.5743
22.6241
24.868
27.3178
29.9856
32.883
36.021
39.4094
43.0573
46.9725
51.1616
55.6293
60.3787
65.4118
70.7296
76.3318
82.2169
88.3823
94.8242
101.538
108.517
115.756
123.247
130.983
138.954
147.153
155.57
164.195
173.018
182.029
191.217
200.573
210.086
219.745
229.539
239.459
249.494
259.632
269.864
280.179
290.567
301.017
311.519
322.065
332.645