/*--------------------------------*- C++ -*----------------------------------*\
| =========                 |                                                 |
| \\      /  F ield         | OpenFOAM: The Open Source CFD Toolbox           |
|  \\    /   O peration     | Version:  2112                                  |
|   \\  /    A nd           | Website:  www.openfoam.com                      |
|    \\/     M anipulation  |                                                 |
\*---------------------------------------------------------------------------*/
FoamFile
{
    version     2.0;
    format      ascii;
    arch        "LSB;label=32;scalar=64";
    class       surfaceScalarField;
    location    "0.18";
    object      ddtCorrDdt0(phi);
}
// * * * * * * * * * * * * * * * * * * * * * * * * * * * * * * * * * * * * * //

dimensions      [0 3 -2 0 0 0 0];

oriented        oriented;

internalField   nonuniform List<scalar> 
24170
(
7.79478e-08
-7.79568e-08
-8.3322e-08
1.61252e-07
-9.00844e-09
-7.43342e-08
-1.43644e-08
5.33609e-09
5.68821e-09
-2.00727e-08
5.7856e-09
-1.16784e-10
2.54333e-09
3.223e-09
-9.63633e-10
3.48865e-09
-4.17858e-09
3.19686e-09
-1.89278e-09
-2.30307e-09
-7.68064e-09
5.77091e-09
-1.59983e-08
8.3015e-09
-1.49717e-08
-1.04193e-09
1.05175e-08
-2.55035e-08
3.94853e-08
-2.89812e-08
-2.46397e-08
6.41113e-08
-1.48803e-07
1.24146e-07
-1.72241e-07
2.34152e-08
1.77001e-07
-2.54964e-07
1.46311e-08
3.23609e-07
-2.23375e-09
-5.74856e-08
-1.05205e-08
1.36055e-08
1.06929e-08
-4.13047e-08
1.57619e-08
-5.20442e-09
5.18056e-09
1.37856e-08
-8.98882e-09
1.764e-08
5.41425e-09
-1.12241e-08
-8.42969e-09
1.15238e-08
-2.85828e-08
2.59073e-08
-1.68153e-08
-3.48186e-09
-3.99393e-08
2.20671e-08
-2.01743e-09
-6.34391e-08
7.3904e-08
-1.04916e-07
-1.62052e-07
3.00053e-07
-1.04338e-07
6.64156e-08
-3.73829e-07
9.72254e-08
-2.2394e-07
-3.10284e-08
8.53227e-08
1.43383e-08
4.75124e-08
-1.96847e-08
-1.08159e-08
7.19223e-08
-2.45738e-08
-2.75598e-08
-1.72031e-08
-1.2589e-08
-2.1409e-08
1.79769e-08
-1.28e-08
9.01601e-09
-5.84342e-09
-1.81957e-08
3.46996e-09
2.19557e-09
-5.13237e-09
3.4495e-08
-2.97256e-08
2.10972e-08
5.61524e-08
-6.38244e-08
-2.82683e-08
2.09691e-08
-3.40254e-07
2.07058e-07
2.198e-07
-2.60014e-07
7.16501e-07
-4.30301e-07
4.45721e-07
-1.03073e-07
-7.72793e-08
4.62469e-08
6.44384e-08
-1.27386e-07
-2.57946e-08
7.05417e-08
3.33039e-08
1.28163e-08
-6.34396e-09
1.20803e-08
-2.51167e-08
6.17559e-09
-2.18602e-08
1.47115e-08
-1.53536e-08
2.49998e-09
-1.14273e-08
-2.21316e-08
-3.18123e-09
-6.06063e-09
1.01989e-08
2.11046e-08
7.84315e-09
2.34428e-08
-2.76511e-08
-2.83398e-08
-2.22393e-08
1.55479e-08
1.11584e-07
7.32255e-08
-5.08601e-08
-9.75806e-08
-3.05828e-07
-1.75347e-07
1.45144e-07
-5.27153e-09
8.60233e-09
3.76405e-08
-5.3914e-09
-1.13398e-07
-8.96317e-09
7.41069e-08
1.10804e-08
-7.23364e-09
-2.7549e-09
2.59096e-08
-1.19122e-08
1.53271e-08
-9.44339e-09
1.22369e-08
-1.05272e-08
3.57827e-09
-1.81995e-08
-1.44651e-08
-1.60811e-08
-8.18499e-09
-1.55586e-09
6.57324e-09
4.24002e-09
1.76407e-08
-1.96888e-08
-4.41715e-09
-2.3978e-09
-1.74898e-09
5.11521e-08
1.96695e-08
-5.61759e-08
9.74019e-09
-1.76203e-07
-5.53301e-08
1.20886e-08
-4.31615e-08
1.94719e-08
1.81646e-08
-1.97187e-08
-7.42139e-08
4.67045e-09
4.97107e-08
4.37954e-09
-6.94957e-09
2.24188e-09
2.80407e-08
-5.37501e-09
2.29381e-08
-2.05335e-09
8.90992e-09
2.358e-09
-8.37748e-10
-1.15857e-08
-5.25881e-10
-1.75948e-08
-2.18008e-09
-1.09592e-08
-6.63801e-11
-4.15454e-11
6.71898e-09
-6.59405e-09
2.13138e-09
-1.15911e-08
3.24418e-09
-7.06587e-09
1.51402e-08
-5.54838e-09
8.21774e-09
-4.35057e-08
-1.73794e-08
1.72666e-09
-3.31531e-08
1.22791e-08
5.88135e-09
-1.75991e-08
-4.43422e-08
2.36055e-09
2.97438e-08
-2.62611e-09
-1.97034e-09
1.84566e-10
2.52227e-08
-1.11413e-09
2.42298e-08
-4.97566e-10
8.28705e-09
3.30062e-09
-4.64147e-09
-2.90189e-09
5.67171e-09
-9.59358e-09
4.50727e-09
-1.10801e-08
1.41626e-09
-3.53849e-09
-8.26226e-10
-6.28625e-09
4.87576e-09
-1.69679e-08
1.39226e-08
-1.10157e-08
9.18457e-09
9.2156e-09
-1.20176e-08
-1.23816e-08
4.21256e-09
1.0787e-08
-2.14493e-08
7.15318e-09
-1.27608e-09
-1.28025e-08
-2.43932e-08
-1.74065e-10
1.71079e-08
-4.93964e-09
2.78743e-09
-1.92885e-09
2.22039e-08
6.05802e-10
2.16874e-08
-8.51287e-10
9.73671e-09
-4.22314e-09
-1.27649e-09
-5.67542e-09
7.11776e-09
-8.1018e-09
6.92812e-09
-9.39771e-09
2.70726e-09
-7.73618e-09
-2.49212e-09
-9.83722e-09
6.97296e-09
-1.44666e-08
1.85485e-08
-5.06327e-09
-2.22305e-10
3.06851e-09
-2.01533e-08
-9.33681e-09
1.66129e-08
1.46666e-08
-1.32229e-08
3.64056e-09
-4.92101e-09
-8.66509e-09
-1.20943e-08
-2.81107e-09
1.12462e-08
-6.26887e-09
6.23715e-09
-2.61261e-09
1.85394e-08
2.60296e-11
1.90404e-08
-1.72535e-09
1.14799e-08
-6.81492e-09
3.80516e-09
-7.3593e-09
7.65459e-09
-8.56908e-09
8.13079e-09
-9.38834e-09
3.51991e-09
-1.12003e-08
-6.86222e-10
-1.16694e-08
7.43667e-09
-9.05066e-09
1.59249e-08
-4.37321e-09
-4.90437e-09
-7.87588e-09
-1.66555e-08
-9.92635e-09
1.86578e-08
1.45595e-08
-9.82592e-09
1.42706e-09
-6.35245e-09
-6.34102e-09
-4.33282e-09
-4.00182e-09
8.89939e-09
-5.87631e-09
8.10356e-09
-3.23667e-09
1.58913e-08
-1.22017e-09
1.70155e-08
-2.3649e-09
1.26161e-08
-6.19226e-09
7.62412e-09
-7.45622e-09
8.91025e-09
-8.27873e-09
8.94513e-09
-1.02158e-08
5.44897e-09
-1.36203e-08
2.71056e-09
-1.39209e-08
7.72985e-09
-8.43594e-09
1.04331e-08
-8.10398e-09
-5.24297e-09
-1.58834e-08
-8.88274e-09
-1.24685e-08
1.52358e-08
1.16161e-08
-9.53248e-09
2.59803e-10
-6.61633e-09
-4.46104e-09
3.81593e-10
-3.7923e-09
8.22315e-09
-4.96832e-09
9.27145e-09
-3.41115e-09
1.43256e-08
-2.03456e-09
1.56301e-08
-2.76845e-09
1.33412e-08
-5.48845e-09
1.03353e-08
-7.10005e-09
1.0513e-08
-8.3616e-09
1.01977e-08
-1.08858e-08
7.96405e-09
-1.44539e-08
6.26948e-09
-1.51943e-08
8.46104e-09
-1.34128e-08
8.64263e-09
-1.84984e-08
-1.66513e-10
-2.58353e-08
-1.55514e-09
-2.10149e-08
1.04058e-08
6.99428e-09
-1.64027e-08
-2.44967e-10
-6.37515e-09
-2.63199e-09
2.76241e-09
-2.86608e-09
8.44986e-09
-3.63178e-09
1.00291e-08
-2.92717e-09
1.36125e-08
-2.20338e-09
1.48976e-08
-2.58111e-09
1.37102e-08
-4.17875e-09
1.19241e-08
-5.54278e-09
1.1868e-08
-6.90259e-09
1.15483e-08
-9.0435e-09
1.00955e-08
-1.17065e-08
8.92279e-09
-1.30291e-08
9.77399e-09
-1.40287e-08
9.63245e-09
-1.93937e-08
5.18859e-09
-2.52434e-08
4.28445e-09
-2.43022e-08
9.45421e-09
5.87291e-09
-2.31911e-08
-7.36686e-10
-5.64282e-09
-2.38112e-09
4.39997e-09
-2.98978e-09
9.05036e-09
-3.76047e-09
1.07908e-08
-3.43997e-09
1.32825e-08
-2.96421e-09
1.44121e-08
-3.28452e-09
1.40206e-08
-4.65713e-09
1.32867e-08
-6.16797e-09
1.33687e-08
-7.86665e-09
1.32365e-08
-1.01731e-08
1.23911e-08
-1.2857e-08
1.15957e-08
-1.48853e-08
1.17912e-08
-1.71154e-08
1.18515e-08
-2.23002e-08
1.03623e-08
-2.80068e-08
9.97962e-09
-2.9823e-08
1.12589e-08
8.36046e-09
-3.23216e-08
-1.48186e-09
-4.16654e-09
-2.5927e-09
5.50267e-09
-3.50468e-09
9.95295e-09
-4.2883e-09
1.1564e-08
-4.2162e-09
1.31995e-08
-3.93625e-09
1.4121e-08
-4.22777e-09
1.43007e-08
-5.36504e-09
1.44124e-08
-6.8675e-09
1.48592e-08
-8.69275e-09
1.50493e-08
-1.10241e-08
1.47097e-08
-1.37105e-08
1.42694e-08
-1.62417e-08
1.431e-08
-1.89722e-08
1.45697e-08
-2.30021e-08
1.43801e-08
-2.72765e-08
1.4242e-08
-3.03057e-08
1.42762e-08
1.24873e-08
-3.44433e-08
-1.84208e-09
-2.33172e-09
-2.95822e-09
6.60896e-09
-3.97138e-09
1.09553e-08
-4.78229e-09
1.23632e-08
-4.88711e-09
1.32919e-08
-4.85025e-09
1.40713e-08
-5.20722e-09
1.46446e-08
-6.14693e-09
1.53387e-08
-7.45693e-09
1.61554e-08
-9.12383e-09
1.67021e-08
-1.12582e-08
1.68298e-08
-1.37935e-08
1.67907e-08
-1.64329e-08
1.6936e-08
-1.91325e-08
1.72563e-08
-2.22106e-08
1.74457e-08
-2.54769e-08
1.74963e-08
-2.86192e-08
1.74074e-08
1.62911e-08
-3.24329e-08
-1.93824e-09
-4.02641e-10
-3.41405e-09
8.07304e-09
-4.68261e-09
1.22115e-08
-5.52425e-09
1.31918e-08
-5.69714e-09
1.3451e-08
-5.73862e-09
1.40986e-08
-6.04281e-09
1.49342e-08
-6.69254e-09
1.59735e-08
-7.60123e-09
1.70488e-08
-8.80147e-09
1.78869e-08
-1.03966e-08
1.84097e-08
-1.23802e-08
1.87597e-08
-1.45937e-08
1.91355e-08
-1.69419e-08
1.95914e-08
-1.95377e-08
2.00293e-08
-2.24424e-08
2.03894e-08
-2.55891e-08
2.05437e-08
1.98491e-08
-2.91557e-08
-2.00243e-09
1.58884e-09
-4.31686e-09
1.03739e-08
-6.14764e-09
1.40284e-08
-6.98367e-09
1.40135e-08
-6.93042e-09
1.33828e-08
-6.59705e-09
1.37498e-08
-6.46101e-09
1.47825e-08
-6.55803e-09
1.60545e-08
-6.81991e-09
1.72946e-08
-7.26738e-09
1.83186e-08
-7.98317e-09
1.91102e-08
-9.01274e-09
1.97748e-08
-1.03305e-08
2.04397e-08
-1.19231e-08
2.11714e-08
-1.38537e-08
2.19482e-08
-1.62012e-08
2.27261e-08
-1.89546e-08
2.32875e-08
2.30901e-08
-2.22034e-08
-2.36757e-09
3.9438e-09
-6.36754e-09
1.43587e-08
-9.35696e-09
1.70026e-08
-9.95395e-09
1.45951e-08
-8.96272e-09
1.23757e-08
-7.4708e-09
1.22416e-08
-6.20761e-09
1.35028e-08
-5.29881e-09
1.51293e-08
-4.58581e-09
1.65655e-08
-3.97375e-09
1.76909e-08
-3.50309e-09
1.86247e-08
-3.26038e-09
1.95182e-08
-3.30177e-09
2.04683e-08
-3.65283e-09
2.15107e-08
-4.34061e-09
2.26251e-08
-5.36326e-09
2.37387e-08
-6.76894e-09
2.46843e-08
2.51017e-08
-8.78765e-09
-3.26073e-09
7.18934e-09
-1.18613e-08
2.29412e-08
-1.77659e-08
2.28893e-08
-1.69106e-08
1.37216e-08
-1.28739e-08
8.32053e-09
-8.56023e-09
7.90915e-09
-5.1602e-09
1.00841e-08
-2.59016e-09
1.25409e-08
-3.02933e-10
1.42605e-08
1.99735e-09
1.53737e-08
4.24405e-09
1.63621e-08
6.25094e-09
1.74965e-08
7.90478e-09
1.88007e-08
9.17159e-09
2.02312e-08
1.00488e-08
2.17362e-08
1.05141e-08
2.32626e-08
1.04131e-08
2.47756e-08
2.61326e-08
9.3745e-09
-2.44379e-09
9.62052e-09
-1.5321e-08
3.58033e-08
-2.2502e-08
3.00551e-08
-1.89879e-08
1.01917e-08
-1.19049e-08
1.22133e-09
-5.93191e-09
1.9196e-09
-1.99909e-09
6.13502e-09
8.00524e-10
9.72535e-09
3.56964e-09
1.14762e-08
6.61927e-09
1.23095e-08
9.58385e-09
1.33839e-08
1.20946e-08
1.49728e-08
1.40669e-08
1.68163e-08
1.55379e-08
1.87488e-08
1.65511e-08
2.07125e-08
1.71378e-08
2.26659e-08
1.72246e-08
2.46797e-08
2.67485e-08
1.66012e-08
-1.10903e-09
1.07186e-08
-2.31117e-08
5.77925e-08
-3.13585e-08
3.82876e-08
-2.30013e-08
1.81943e-09
-1.17224e-08
-1.00732e-08
-4.04223e-09
-5.77634e-09
-2.77585e-10
2.35482e-09
2.18071e-09
7.25209e-09
5.42232e-09
8.22015e-09
9.58914e-09
8.12888e-09
1.34702e-08
9.4896e-09
1.64107e-08
1.20198e-08
1.85065e-08
1.47086e-08
1.9892e-08
1.73522e-08
2.07038e-08
1.98902e-08
2.12225e-08
2.21374e-08
2.17829e-08
2.41103e-08
2.59783e-08
2.25455e-08
3.18604e-09
7.52293e-09
-3.17456e-08
9.27115e-08
-4.27649e-08
4.92931e-08
-2.62983e-08
-1.4662e-08
-9.25491e-09
-2.71317e-08
-5.77892e-12
-1.50407e-08
1.99607e-09
3.38203e-10
2.93297e-09
6.30085e-09
6.40109e-09
4.73826e-09
1.16478e-08
2.86892e-09
1.60365e-08
5.08824e-09
1.88394e-08
9.20475e-09
2.10464e-08
1.24903e-08
2.25374e-08
1.58506e-08
2.35386e-08
1.88791e-08
2.4775e-08
2.08919e-08
2.68371e-08
2.20399e-08
2.26566e-08
3.01516e-08
4.35425e-09
3.15964e-09
-4.34589e-08
1.40512e-07
-6.05705e-08
6.6391e-08
-3.12709e-08
-4.39762e-08
-5.97311e-09
-5.24444e-08
5.39779e-09
-2.64264e-08
5.383e-09
3.38636e-10
3.82663e-09
7.84344e-09
7.41338e-09
1.13831e-09
1.39099e-08
-3.64017e-09
1.76966e-08
1.28959e-09
1.89983e-08
7.89204e-09
2.12476e-08
1.02308e-08
2.36368e-08
1.34522e-08
2.60902e-08
1.64175e-08
2.90817e-08
1.78929e-08
3.26546e-08
1.84602e-08
1.85389e-08
3.67663e-08
2.55445e-08
-2.23937e-08
-6.2111e-08
2.28156e-07
-8.48692e-08
8.91355e-08
-4.2175e-08
-8.66847e-08
-6.19713e-09
-8.84367e-08
9.92371e-09
-4.25612e-08
9.98725e-09
2.6181e-10
9.55719e-09
8.26107e-09
1.15491e-08
-8.65259e-10
1.70816e-08
-9.18346e-09
1.89201e-08
-5.58931e-10
1.94933e-08
7.30998e-09
2.04775e-08
9.23849e-09
2.31098e-08
1.08128e-08
2.6826e-08
1.26949e-08
3.09179e-08
1.37949e-08
3.47685e-08
1.46036e-08
1.58512e-08
3.74503e-08
6.79905e-08
-9.03929e-08
-9.55128e-08
3.91647e-07
-9.77702e-08
9.13801e-08
-3.71072e-08
-1.47361e-07
-9.86588e-09
-1.15691e-07
9.88551e-09
-6.23246e-08
1.58319e-08
-5.69561e-09
2.21318e-08
1.95114e-09
2.15614e-08
-3.04169e-10
1.73194e-08
-4.9504e-09
1.6955e-08
-2.02954e-10
1.70279e-08
7.22926e-09
1.57441e-08
1.0515e-08
1.81628e-08
8.38724e-09
2.34906e-08
7.36045e-09
2.8897e-08
8.38165e-09
3.3069e-08
1.04243e-08
1.34191e-08
3.54935e-08
6.57922e-08
-1.56193e-07
3.4898e-08
4.22531e-07
-4.22179e-08
1.68485e-07
2.39958e-08
-2.13585e-07
2.40999e-09
-9.41157e-08
-4.87157e-09
-5.50537e-08
1.58682e-08
-2.64458e-08
2.76769e-08
-9.86729e-09
2.35921e-08
3.77081e-09
8.2398e-09
1.03918e-08
4.68017e-09
3.34623e-09
6.42256e-09
5.47675e-09
1.05246e-08
6.40311e-09
1.6222e-08
2.68007e-09
2.20307e-08
1.54199e-09
2.62525e-08
4.1495e-09
2.8751e-08
7.91461e-09
1.20193e-08
3.0138e-08
-2.54063e-07
9.78636e-08
2.54108e-07
-8.56489e-08
2.10841e-07
2.11741e-07
8.91078e-08
-9.18639e-08
1.60402e-08
-2.10607e-08
-2.98044e-08
-9.22254e-09
4.57804e-10
-5.67218e-08
2.23395e-08
-3.1763e-08
1.31062e-08
1.29895e-08
5.18351e-09
1.82992e-08
3.51427e-09
4.99964e-09
3.90791e-09
5.06785e-09
1.22722e-08
-1.97607e-09
1.92554e-08
-4.31772e-09
2.23199e-08
-1.53746e-09
2.25679e-08
3.88575e-09
2.17167e-08
8.74837e-09
1.13951e-08
2.23204e-08
-5.4277e-07
6.40624e-07
4.36348e-07
-1.06478e-06
4.15702e-07
2.32368e-07
1.41603e-07
1.82214e-07
-6.85127e-09
1.27371e-07
1.30846e-08
-2.91807e-08
2.95136e-08
-7.31736e-08
1.83712e-08
-2.06435e-08
9.50023e-09
2.18369e-08
6.00103e-09
2.17748e-08
1.03378e-08
6.38947e-10
2.17099e-08
-6.3266e-09
2.55893e-08
-5.87676e-09
2.04395e-08
8.11489e-10
1.4073e-08
4.80808e-09
1.08555e-08
7.08091e-09
1.12342e-08
8.34576e-09
4.65821e-09
1.79438e-08
2.02588e-07
4.38019e-07
-7.91232e-08
-7.83096e-07
-2.07698e-08
1.73986e-07
6.89751e-09
1.54516e-07
6.47368e-08
6.95015e-08
5.01648e-08
-1.46385e-08
4.84249e-09
-2.78806e-08
-9.49104e-09
-6.33928e-09
8.25534e-09
4.06097e-09
1.83943e-08
1.16062e-08
1.86684e-08
3.35729e-10
2.16828e-08
-9.36837e-09
1.61394e-08
-3.5921e-10
1.38119e-08
3.11372e-09
1.65799e-08
2.01433e-09
2.10048e-08
2.62898e-09
2.56699e-08
3.65202e-09
6.65049e-09
2.36464e-08
4.38017e-07
-3.45081e-07
-1.71098e-07
-1.65848e-08
5.29137e-08
3.8272e-08
1.0388e-08
4.04507e-09
8.10209e-09
1.9704e-08
2.00355e-08
1.06629e-08
1.02992e-08
1.34081e-08
1.5417e-08
1.804e-08
2.16852e-08
2.83276e-08
4.7921e-07
-4.79228e-07
1.23233e-06
-7.53143e-07
1.83503e-06
-6.02723e-07
2.07539e-06
-2.40375e-07
1.971e-06
1.04367e-07
1.74315e-06
2.27824e-07
1.7191e-06
2.40356e-08
2.03496e-06
-3.15886e-07
2.63928e-06
-6.04343e-07
3.4251e-06
-7.85835e-07
4.27441e-06
-8.49335e-07
5.07345e-06
-7.99057e-07
5.70222e-06
-6.28788e-07
6.0504e-06
-3.48208e-07
6.04148e-06
8.9069e-09
5.63407e-06
4.07383e-07
4.78064e-06
8.53414e-07
3.49338e-06
1.28723e-06
1.78191e-06
1.71145e-06
-2.93272e-07
2.07516e-06
-2.72097e-06
2.42767e-06
-5.47969e-06
2.7587e-06
-8.50792e-06
3.02821e-06
-1.17371e-05
3.22911e-06
-1.51097e-05
3.37264e-06
-1.85129e-05
3.4032e-06
-2.22065e-05
3.69354e-06
-2.5722e-05
3.51549e-06
-2.90816e-05
3.35956e-06
-3.21638e-05
3.08218e-06
-3.48784e-05
2.71456e-06
-3.70701e-05
2.19167e-06
-3.84311e-05
1.36101e-06
-3.85647e-05
1.33527e-07
-3.67773e-05
-1.78743e-06
-3.208e-05
-4.69736e-06
-2.27126e-05
-9.36733e-06
-9.11063e-06
-1.3602e-05
3.49459e-06
-1.26052e-05
1.34379e-05
-9.94334e-06
2.11897e-05
-7.75186e-06
1.95177e-05
1.67197e-06
1.15521e-05
7.96565e-06
4.01272e-06
7.53931e-06
-3.08055e-06
7.09324e-06
-9.38602e-06
6.30544e-06
-1.58666e-05
6.48054e-06
-1.90113e-05
3.14466e-06
-7.20065e-06
-1.18107e-05
4.67121e-06
-1.18719e-05
1.18824e-05
-7.21122e-06
2.02301e-05
-8.34772e-06
2.84947e-05
-8.26467e-06
3.7846e-05
-9.35126e-06
4.86741e-05
-1.08282e-05
5.89101e-05
-1.02361e-05
6.47108e-05
-5.80069e-06
6.13046e-05
3.40613e-06
4.61041e-05
1.52005e-05
2.16684e-05
2.44356e-05
-7.38051e-06
2.90489e-05
-3.75242e-05
3.01436e-05
-6.60737e-05
2.85495e-05
-9.11696e-05
2.50959e-05
-0.000113223
2.20531e-05
-0.000131162
1.79389e-05
-0.000144798
1.36358e-05
-0.000154448
9.65014e-06
-0.000160464
6.0164e-06
-0.000162939
2.47502e-06
-0.00016236
-5.79591e-07
-0.000160454
-1.90587e-06
-0.000159994
-4.60255e-07
-0.000159852
-1.41361e-07
-0.000156481
-3.37095e-06
-0.000144268
-1.22131e-05
-0.000124623
-1.96451e-05
-0.000101666
-2.29572e-05
-7.98419e-05
-2.18241e-05
-6.17299e-05
-1.8112e-05
-4.6679e-05
-1.50509e-05
-3.16382e-05
-1.50409e-05
-1.22871e-05
-1.93511e-05
1.15589e-05
-2.38461e-05
5.77377e-05
-4.61788e-05
0.000115567
-5.78292e-05
0.000179821
-6.42538e-05
0.000229883
-5.00621e-05
0.000258439
-2.85567e-05
0.000207127
5.13128e-05
0.000128984
7.81429e-05
0.000120078
8.906e-06
0.000148565
-2.84869e-05
0.000120111
2.84538e-05
-7.09612e-05
0.000191072
-0.000254591
0.00018363
-0.000314641
6.00503e-05
-0.000269542
-4.50991e-05
-0.000175746
-9.37961e-05
-4.75764e-05
-0.00012817
5.58007e-05
-0.000103377
0.000105633
-4.98323e-05
0.000140052
-3.44195e-05
6.78449e-05
7.22071e-05
2.51082e-05
4.27365e-05
0.00011428
-8.91721e-05
0.00026067
-0.00014639
0.000280668
-1.99977e-05
0.000111884
0.000168783
-1.72984e-05
0.000129182
-5.68623e-05
3.95638e-05
-3.37302e-05
-2.31322e-05
2.4051e-05
-5.77813e-05
9.43174e-05
-7.02665e-05
0.000163239
-6.89212e-05
0.00022192
-5.86811e-05
0.000266392
-4.44725e-05
0.000297779
-3.13867e-05
0.000309595
-1.18167e-05
0.000308572
1.02301e-06
0.000297737
1.08349e-05
0.000279121
1.86165e-05
0.000257181
2.19398e-05
0.000233293
2.38877e-05
0.000207568
2.57245e-05
0.000180949
2.66197e-05
0.0001541
2.68484e-05
0.000127866
2.62344e-05
0.000102797
2.5069e-05
7.88165e-05
2.39801e-05
5.56697e-05
2.31468e-05
3.28353e-05
2.28345e-05
9.5043e-06
2.3331e-05
-1.52126e-05
2.4717e-05
-4.15351e-05
2.63226e-05
-6.92921e-05
2.77571e-05
-9.87285e-05
2.94365e-05
-0.00013046
3.17315e-05
-0.000164417
3.39577e-05
-0.000199772
3.53542e-05
-0.000235157
3.5386e-05
-0.000268624
3.34668e-05
-0.000297884
2.92602e-05
-0.000320298
2.24135e-05
-0.000333211
1.29131e-05
-0.000335094
1.8839e-06
-0.000325121
-9.97312e-06
-0.000304808
-2.03134e-05
-0.000276716
-2.80917e-05
-0.000243483
-3.3233e-05
-0.000207061
-3.64224e-05
-0.00016879
-3.82703e-05
-0.000130491
-3.82992e-05
-9.32087e-05
-3.72821e-05
-5.74306e-05
-3.57781e-05
-2.3624e-05
-3.38066e-05
7.60655e-06
-3.12305e-05
3.62644e-05
-2.86578e-05
6.2359e-05
-2.60946e-05
8.59767e-05
-2.36176e-05
0.000107923
-2.19463e-05
0.000128977
-2.1054e-05
0.000149127
-2.01497e-05
0.000167921
-1.87937e-05
0.000184052
-1.61312e-05
0.000194009
-9.95749e-06
0.000197435
-3.4255e-06
0.000192809
4.62551e-06
0.000178861
1.39483e-05
0.000156099
2.27618e-05
0.000128044
2.80556e-05
9.87779e-05
2.9266e-05
7.12735e-05
2.75045e-05
4.71657e-05
2.41078e-05
2.68488e-05
2.0317e-05
9.63591e-06
1.72129e-05
-4.7724e-06
1.44083e-05
-1.76815e-05
1.29091e-05
-3.03519e-05
1.26704e-05
9.96558e-06
-4.03175e-05
-3.61854e-07
-1.174e-07
-5.76319e-07
-5.38706e-07
-6.66181e-07
-5.12888e-07
-4.26033e-07
-4.80551e-07
5.12314e-07
-8.34007e-07
1.98212e-06
-1.242e-06
3.6626e-06
-1.65647e-06
5.26135e-06
-1.91466e-06
6.58648e-06
-1.9295e-06
7.5442e-06
-1.74359e-06
8.12186e-06
-1.42702e-06
8.31354e-06
-9.90765e-07
8.12195e-06
-4.37219e-07
7.61589e-06
1.57824e-07
6.86581e-06
7.58967e-07
5.91226e-06
1.36091e-06
4.78685e-06
1.9788e-06
3.45666e-06
2.61741e-06
1.86423e-06
3.30385e-06
-6.4281e-08
4.00364e-06
-2.33451e-06
4.69787e-06
-4.92817e-06
5.35234e-06
-7.8026e-06
5.90261e-06
-1.0874e-05
6.30052e-06
-1.40158e-05
6.51441e-06
-1.71454e-05
6.5327e-06
-1.97273e-05
6.27548e-06
-2.22357e-05
6.02381e-06
-2.44637e-05
5.5875e-06
-2.64986e-05
5.11704e-06
-2.83651e-05
4.5811e-06
-3.00503e-05
3.87684e-06
-3.15165e-05
2.82715e-06
-3.26431e-05
1.26012e-06
-3.30479e-05
-1.38272e-06
-3.22163e-05
-5.529e-06
-2.99266e-05
-1.1657e-05
-2.43702e-05
-1.91585e-05
-1.16139e-05
-2.53615e-05
5.89403e-06
-2.74514e-05
1.71714e-05
-1.90293e-05
1.12974e-05
7.54593e-06
-2.3285e-06
2.15916e-05
-1.36479e-05
1.88587e-05
-2.30406e-05
1.64859e-05
-2.5484e-05
8.74874e-06
-1.59782e-05
-3.0252e-06
-4.10391e-06
-8.72971e-06
-2.63795e-06
-1.32767e-05
-9.29992e-07
-1.35799e-05
5.68705e-06
-1.38283e-05
1.39222e-05
-1.65829e-05
2.39026e-05
-1.82451e-05
3.35987e-05
-1.90473e-05
4.14228e-05
-1.86523e-05
4.53185e-05
-1.41318e-05
4.07878e-05
-1.27002e-06
2.49513e-05
1.92425e-05
-3.44547e-06
4.35973e-05
-3.76259e-05
5.8616e-05
-7.13403e-05
6.27633e-05
-0.000102562
6.13648e-05
-0.000127933
5.39206e-05
-0.000144862
4.20249e-05
-0.000158046
3.5237e-05
-0.000161463
2.13566e-05
-0.00015928
1.1453e-05
-0.000154073
4.44273e-06
-0.000147939
-1.1791e-07
-0.00014287
-2.59368e-06
-0.000140874
-2.57574e-06
-0.000143597
8.16836e-07
-0.000148575
4.51815e-06
-0.000147985
-7.31325e-07
-0.000133338
-1.80177e-05
-0.000114778
-3.07733e-05
-9.23398e-05
-4.20837e-05
-7.07127e-05
-4.45844e-05
-5.35228e-05
-3.9014e-05
-4.0664e-05
-3.09708e-05
-3.26585e-05
-2.30564e-05
-2.76538e-05
-2.00456e-05
-2.36785e-05
-2.33265e-05
-1.43497e-05
-3.3175e-05
-4.33493e-06
-5.61935e-05
1.83278e-05
-8.04919e-05
5.92816e-05
-0.000105208
0.000111807
-0.000102587
0.000172369
-8.91193e-05
0.000253671
-2.99883e-05
0.000270331
6.14828e-05
0.000230742
4.84949e-05
0.000230677
-2.84224e-05
0.000174231
8.49005e-05
8.7254e-06
0.000356577
-0.000114391
0.000306746
-0.00014721
9.28698e-05
-0.000119323
-7.29865e-05
-5.85563e-05
-0.000154563
1.44832e-05
-0.000201209
0.000103118
-0.000192012
0.000209259
-0.000155973
0.000210078
-3.52387e-05
0.000352174
-6.98888e-05
0.000612298
-0.000217388
0.000561221
-3.80953e-05
0.000341801
7.30295e-05
0.000156332
0.000165471
0.000108699
0.000216416
0.0001169
0.000120982
0.000143462
1.30015e-05
0.00017978
-5.94508e-05
0.000218321
-9.63219e-05
0.000252329
-0.000104275
0.000279065
-9.56577e-05
0.00029849
-7.81053e-05
0.00031083
-5.68128e-05
0.000317925
-3.84816e-05
0.000317279
-1.1171e-05
0.00030736
1.09423e-05
0.000288072
3.01222e-05
0.000264273
4.2416e-05
0.000237593
4.86195e-05
0.000209381
5.20998e-05
0.000180414
5.46909e-05
0.000151046
5.59877e-05
0.000122442
5.54525e-05
9.50793e-05
5.35972e-05
6.89625e-05
5.11858e-05
4.40999e-05
4.88428e-05
2.01054e-05
4.71413e-05
-3.44842e-06
4.63884e-05
-2.7047e-05
4.69297e-05
-5.12443e-05
4.89143e-05
-7.63621e-05
5.14405e-05
-0.00010283
5.42251e-05
-0.000131214
5.78207e-05
-0.000161738
6.22555e-05
-0.000194267
6.64865e-05
-0.00022831
6.93973e-05
-0.000262672
6.97486e-05
-0.000295355
6.61498e-05
-0.000323814
5.77197e-05
-0.000345515
4.41145e-05
-0.000358031
2.54294e-05
-0.000359352
3.20407e-06
-0.000348859
-2.04652e-05
-0.000327819
-4.13535e-05
-0.000298319
-5.75922e-05
-0.000263075
-6.84764e-05
-0.000223939
-7.5558e-05
-0.000182635
-7.95748e-05
-0.000140109
-8.08252e-05
-9.77384e-05
-7.96525e-05
-5.63902e-05
-7.71263e-05
-1.63804e-05
-7.38164e-05
2.15544e-05
-6.91653e-05
5.6673e-05
-6.37763e-05
8.8377e-05
-5.77986e-05
0.000115653
-5.08934e-05
0.000137837
-4.41305e-05
0.000154648
-3.78646e-05
0.000166494
-3.19965e-05
0.000174143
-2.64427e-05
0.000178217
-2.02043e-05
0.000181772
-1.35133e-05
0.000184073
-5.72611e-06
0.0001849
3.79892e-06
0.000183509
1.53392e-05
0.000179039
2.7231e-05
0.000170223
3.6872e-05
0.000156646
4.28425e-05
0.000139102
4.50484e-05
0.00011896
4.42504e-05
9.79304e-05
4.13464e-05
7.69837e-05
3.81596e-05
5.56429e-05
3.57491e-05
3.36463e-05
3.49057e-05
1.05188e-05
3.5798e-05
3.3136e-05
-1.26516e-05
-4.99018e-07
3.81591e-07
-8.25783e-07
-2.11969e-07
-1.62446e-08
-1.32245e-06
1.60327e-06
-2.1001e-06
3.60618e-06
-2.83694e-06
5.48218e-06
-3.11803e-06
6.88946e-06
-3.06377e-06
7.8199e-06
-2.84514e-06
8.39874e-06
-2.50836e-06
8.72274e-06
-2.06761e-06
8.80653e-06
-1.51083e-06
8.67679e-06
-8.61044e-07
8.44164e-06
-2.02098e-07
8.14707e-06
4.52377e-07
7.7942e-06
1.11181e-06
7.35879e-06
1.79629e-06
6.77413e-06
2.56343e-06
5.88897e-06
3.50255e-06
4.61432e-06
4.57848e-06
2.84902e-06
5.76891e-06
5.396e-07
7.00727e-06
-2.28801e-06
8.17992e-06
-5.54247e-06
9.15705e-06
-9.08876e-06
9.84678e-06
-1.27427e-05
1.01683e-05
-1.63332e-05
1.01232e-05
-1.95606e-05
9.50282e-06
-2.23226e-05
8.78583e-06
-2.44412e-05
7.706e-06
-2.58342e-05
6.51001e-06
-2.64923e-05
5.23921e-06
-2.66978e-05
4.08233e-06
-2.67916e-05
2.92092e-06
-2.67952e-05
1.26366e-06
-2.69333e-05
-1.24464e-06
-2.72439e-05
-5.21849e-06
-2.72997e-05
-1.16012e-05
-2.51894e-05
-2.12689e-05
-1.81568e-05
-3.23941e-05
-6.5946e-06
-3.90136e-05
-4.89796e-07
-2.51341e-05
-1.19258e-05
1.89819e-05
-2.1504e-05
3.11696e-05
-2.40386e-05
2.13934e-05
-1.82278e-05
1.0675e-05
-9.288e-06
-1.91085e-07
-4.32173e-06
-7.99151e-06
-2.59343e-06
-1.0458e-05
-3.69996e-06
-1.21702e-05
-3.04157e-06
-1.42383e-05
2.74033e-07
-1.71439e-05
4.78668e-06
-2.10956e-05
1.06044e-05
-2.40629e-05
1.60134e-05
-2.44564e-05
1.84652e-05
-2.11041e-05
1.29958e-05
-8.66239e-06
-5.95744e-06
1.76832e-05
-3.77712e-05
5.10563e-05
-7.16648e-05
7.74909e-05
-0.000101255
8.82058e-05
-0.000123016
8.45247e-05
-0.000133012
7.13608e-05
-0.000131657
5.2565e-05
-0.000122039
3.24078e-05
-0.000108819
2.20163e-05
-9.25251e-05
5.06283e-06
-8.0541e-05
-5.31136e-07
-7.35506e-05
-2.54766e-06
-7.14469e-05
-2.22158e-06
-7.3165e-05
-8.75663e-07
-7.71351e-05
1.39436e-06
-8.17069e-05
5.38861e-06
-8.08738e-05
3.68501e-06
-7.20572e-05
-9.54797e-06
-6.37394e-05
-2.63355e-05
-5.14676e-05
-4.30453e-05
-3.76805e-05
-5.58708e-05
-2.71539e-05
-5.5111e-05
-2.13197e-05
-4.48483e-05
-2.01617e-05
-3.21288e-05
-2.15567e-05
-2.16615e-05
-2.54122e-05
-1.61902e-05
-3.04154e-05
-1.83232e-05
-3.23135e-05
-3.1277e-05
-2.99155e-05
-5.85916e-05
-2.36833e-05
-8.67241e-05
-7.72107e-06
-0.00012117
2.28271e-05
-0.000133135
6.86296e-05
-0.000134922
0.000155892
-0.00011725
0.000242934
-2.55594e-05
0.000257925
3.35031e-05
0.000241112
-1.16093e-05
0.000171388
0.000154625
8.54839e-05
0.000442481
6.88484e-05
0.000323381
8.20326e-05
7.96855e-05
9.69097e-05
-8.78638e-05
0.000142294
-0.000199947
0.000190093
-0.000249008
0.000262422
-0.000264342
0.000263401
-0.000156952
0.000362601
-0.000134439
0.000492462
-0.00019975
0.000377529
-0.000102455
0.000252739
8.66942e-05
0.00012622
0.000199548
5.80635e-05
0.000233628
9.12216e-05
0.000183258
0.000141464
7.0739e-05
0.000176888
-2.24222e-05
0.000203904
-8.64672e-05
0.000225856
-0.000118274
0.000246672
-0.000125091
0.000264995
-0.000113981
0.000279751
-9.28615e-05
0.000289717
-6.67782e-05
0.000289584
-3.8349e-05
0.00028448
-6.06751e-06
0.000269504
2.59184e-05
0.00024721
5.24169e-05
0.00022127
6.83557e-05
0.00019339
7.64991e-05
0.000164549
8.09403e-05
0.000135663
8.3577e-05
0.000107451
8.41998e-05
8.0342e-05
8.25616e-05
5.4418e-05
7.95212e-05
2.96806e-05
7.59232e-05
6.09396e-06
7.24294e-05
-1.65539e-05
6.97891e-05
-3.84854e-05
6.83199e-05
-5.99913e-05
6.84356e-05
-8.14653e-05
7.03884e-05
-0.00010359
7.35653e-05
-0.000127196
7.78312e-05
-0.000152868
8.34924e-05
-0.000180877
9.0265e-05
-0.000211365
9.69743e-05
-0.000243968
0.000102001
-0.000277272
0.000103053
-0.000309106
9.79839e-05
-0.000336938
8.55517e-05
-0.000358205
6.53811e-05
-0.000370564
3.77891e-05
-0.000371991
4.63115e-06
-0.000361375
-3.10809e-05
-0.000340038
-6.26905e-05
-0.000310631
-8.69998e-05
-0.00027537
-0.000103737
-0.000236485
-0.000114444
-0.000195507
-0.000120552
-0.000153483
-0.000122849
-0.000110874
-0.000122262
-6.7599e-05
-0.000120401
-2.35498e-05
-0.000117866
2.01298e-05
-0.000112845
6.17283e-05
-0.000105375
0.000100025
-9.60957e-05
0.000133328
-8.4196e-05
0.000159987
-7.07894e-05
0.000178918
-5.67959e-05
0.000190088
-4.31658e-05
0.000194358
-3.07134e-05
0.000193623
-1.94684e-05
0.000189823
-9.71399e-06
0.000184836
-7.39113e-07
0.000179635
9.00071e-06
0.000174836
2.0138e-05
0.000170424
3.16426e-05
0.000165296
4.20006e-05
0.000158009
5.01293e-05
0.000147571
5.5486e-05
0.000133847
5.79749e-05
0.000116814
5.83793e-05
9.69503e-05
5.80233e-05
7.47972e-05
5.79022e-05
5.09547e-05
5.87482e-05
2.61896e-05
6.05631e-05
5.93715e-05
-4.58963e-08
-7.34009e-08
4.54965e-07
1.27665e-06
-1.56205e-06
3.29352e-06
-3.33935e-06
5.19398e-06
-4.00059e-06
6.47312e-06
-4.11611e-06
7.33949e-06
-3.98442e-06
7.96591e-06
-3.69021e-06
8.4055e-06
-3.28475e-06
8.68925e-06
-2.79213e-06
8.83205e-06
-2.21043e-06
8.90981e-06
-1.58861e-06
9.06608e-06
-1.01733e-06
9.35683e-06
-4.92869e-07
9.81109e-06
-1.90579e-09
1.05138e-05
4.09065e-07
1.13511e-05
9.58971e-07
1.20585e-05
1.85605e-06
1.21365e-05
3.42451e-06
1.1224e-05
5.49091e-06
9.25524e-06
7.73768e-06
6.36958e-06
9.89291e-06
2.71555e-06
1.18339e-05
-1.53209e-06
1.34047e-05
-6.14183e-06
1.44565e-05
-1.08745e-05
1.4901e-05
-1.54412e-05
1.46899e-05
-1.98699e-05
1.39315e-05
-2.36162e-05
1.25321e-05
-2.64821e-05
1.05719e-05
-2.81344e-05
8.16228e-06
-2.83727e-05
5.47748e-06
-2.76363e-05
3.34589e-06
-2.66665e-05
1.95104e-06
-2.58489e-05
4.46067e-07
-2.5308e-05
-1.78553e-06
-2.5377e-05
-5.14959e-06
-2.63108e-05
-1.06674e-05
-2.74276e-05
-2.01521e-05
-2.51424e-05
-3.46794e-05
-1.9339e-05
-4.48169e-05
-2.38562e-05
-2.0617e-05
-2.88274e-05
2.39531e-05
-2.72937e-05
2.96359e-05
-1.91882e-05
1.32879e-05
-1.02621e-05
1.74884e-06
-4.88267e-06
-5.57054e-06
-4.35198e-06
-8.52223e-06
-5.72808e-06
-9.08198e-06
-7.71994e-06
-1.01783e-05
-9.31236e-06
-1.26459e-05
-1.0428e-05
-1.60284e-05
-1.18025e-05
-1.97211e-05
-1.34918e-05
-2.23736e-05
-1.60912e-05
-2.18571e-05
-2.23776e-05
-1.48178e-05
-3.71651e-05
6.12509e-06
-6.0511e-05
4.1029e-05
-8.45883e-05
7.51335e-05
-0.000100281
9.31831e-05
-0.000103834
9.17596e-05
-9.55603e-05
7.62505e-05
-7.87224e-05
5.45229e-05
-5.94041e-05
3.32466e-05
-4.32977e-05
1.63014e-05
-2.86719e-05
7.39041e-06
-2.30721e-05
-5.36993e-07
-2.14144e-05
-2.18883e-06
-2.2465e-05
-1.49714e-06
-2.45252e-05
-1.61397e-07
-2.7026e-05
1.62516e-06
-2.98866e-05
4.2549e-06
-3.03604e-05
5.86241e-06
-2.58629e-05
-8.12518e-07
-2.03473e-05
-1.50636e-05
-1.61332e-05
-3.05496e-05
-9.92744e-06
-4.92511e-05
-5.44827e-06
-6.035e-05
-1.54611e-06
-5.90132e-05
-1.28266e-06
-4.51117e-05
-8.0054e-06
-2.54061e-05
-2.19506e-05
-7.71632e-06
-4.03554e-05
2.21454e-06
-5.88567e-05
1.78099e-07
-7.26303e-05
-1.75034e-05
-7.9852e-05
-5.13698e-05
-7.91971e-05
-8.73791e-05
-7.13984e-05
-0.000128968
-5.13084e-05
-0.000153225
-2.18836e-05
-0.000164347
4.40049e-05
-0.000183139
0.000141217
-0.000122771
0.000215926
-4.12062e-05
0.000224715
-2.03985e-05
0.000150107
0.000229233
0.000193071
0.000399517
0.000262766
0.000253685
0.000294149
4.83024e-05
0.000293413
-8.71271e-05
0.000268525
-0.00017506
0.000251911
-0.000232394
0.000191873
-0.000204304
0.000234833
-0.000199912
0.000320566
-0.000220173