/*--------------------------------*- C++ -*----------------------------------*\
| =========                 |                                                 |
| \\      /  F ield         | OpenFOAM: The Open Source CFD Toolbox           |
|  \\    /   O peration     | Version:  2112                                  |
|   \\  /    A nd           | Website:  www.openfoam.com                      |
|    \\/     M anipulation  |                                                 |
\*---------------------------------------------------------------------------*/
FoamFile
{
    version     2.0;
    format      ascii;
    arch        "LSB;label=32;scalar=64";
    class       volScalarField;
    location    "0.29";
    object      p;
}
// * * * * * * * * * * * * * * * * * * * * * * * * * * * * * * * * * * * * * //

dimensions      [0 2 -2 0 0 0 0];

internalField   nonuniform List<scalar> 
12225
(
-4.04288
-4.63819
-4.94591
-5.13459
-5.32672
-5.52159
-5.69746
-5.8533
-5.9942
-6.12423
-6.24374
-6.35645
-6.46113
-6.56631
-6.66358
-6.77276
-6.86669
-6.99294
-4.21322
-4.66661
-4.94571
-5.12986
-5.31823
-5.51059
-5.68575
-5.84228
-5.98433
-6.11517
-6.23543
-6.34799
-6.45343
-6.55675
-6.65632
-6.75753
-6.8608
-6.96104
-4.41116
-4.72057
-4.97134
-5.15345
-5.33678
-5.52149
-5.69102
-5.84358
-5.98225
-6.11026
-6.22776
-6.33839
-6.44171
-6.54294
-6.63952
-6.73837
-6.83628
-6.93435
-4.58605
-4.81142
-5.02397
-5.19234
-5.36428
-5.53685
-5.69794
-5.84457
-5.97899
-6.10365
-6.21863
-6.32723
-6.429
-6.52757
-6.62238
-6.71783
-6.81176
-6.90382
-4.72006
-4.90564
-5.09492
-5.24965
-5.40809
-5.56668
-5.71736
-5.85618
-5.98501
-6.10522
-6.21683
-6.32239
-6.42157
-6.51697
-6.6091
-6.70019
-6.78879
-6.87248
-4.83748
-4.97698
-5.15331
-5.30864
-5.45926
-5.60858
-5.74945
-5.87965
-6.0018
-6.11654
-6.22367
-6.32508
-6.42076
-6.51243
-6.60074
-6.68666
-6.76925
-6.84641
-4.94985
-5.04223
-5.19566
-5.34684
-5.49638
-5.64431
-5.78049
-5.90609
-6.0239
-6.13356
-6.23597
-6.33297
-6.42481
-6.51219
-6.59588
-6.67645
-6.7534
-6.82474
-5.05536
-5.11299
-5.23916
-5.37524
-5.51861
-5.6617
-5.79609
-5.92214
-6.03947
-6.14697
-6.24733
-6.34161
-6.42994
-6.51296
-6.59197
-6.66748
-6.7389
-6.80451
-5.15231
-5.18666
-5.28943
-5.40892
-5.53963
-5.67248
-5.80159
-5.9248
-6.04028
-6.14815
-6.24927
-6.34313
-6.42977
-6.51047
-6.58628
-6.65727
-6.72337
-6.78383
-5.23879
-5.26043
-5.34326
-5.4477
-5.5657
-5.6879
-5.80825
-5.92425
-6.03481
-6.14041
-6.23981
-6.33265
-6.41927
-6.49992
-6.57414
-6.642
-6.70453
-6.76124
-5.31249
-5.33041
-5.398
-5.4884
-5.59501
-5.70763
-5.81944
-5.928
-6.03234
-6.1324
-6.22726
-6.31711
-6.40214
-6.48151
-6.55427
-6.62074
-6.68118
-6.73495
-5.37006
-5.38675
-5.44664
-5.52616
-5.62293
-5.72749
-5.83244
-5.93496
-6.03383
-6.12871
-6.21905
-6.30489
-6.3863
-6.46277
-6.53388
-6.59961
-6.65872
-6.71054
-5.42092
-5.43561
-5.48978
-5.56271
-5.65046
-5.74746
-5.84628
-5.94347
-6.03761
-6.12813
-6.21448
-6.29654
-6.3743
-6.44757
-6.51615
-6.57979
-6.63763
-6.68878
-5.47352
-5.4862
-5.53285
-5.60046
-5.68023
-5.76938
-5.86184
-5.95354
-6.04284
-6.12898
-6.21136
-6.28969
-6.36387
-6.43376
-6.49926
-6.56023
-6.61632
-6.66649
-5.5255
-5.53662
-5.57581
-5.63645
-5.70959
-5.79126
-5.87758
-5.96398
-6.04841
-6.13011
-6.2085
-6.28316
-6.35386
-6.42044
-6.48283
-6.54101
-6.59487
-6.64362
-5.57328
-5.58326
-5.61651
-5.66957
-5.73584
-5.81068
-5.891
-5.97263
-6.05263
-6.13012
-6.20464
-6.27577
-6.3432
-6.40672
-6.46624
-6.52175
-6.57322
-6.6202
-5.61185
-5.62101
-5.64986
-5.69695
-5.75646
-5.82474
-5.89926
-5.97662
-6.05296
-6.12685
-6.19795
-6.26591
-6.33039
-6.39117
-6.44815
-6.50136
-6.55089
-6.59662
-5.63353
-5.64216
-5.66818
-5.71118
-5.76611
-5.82941
-5.89914
-5.9727
-6.04627
-6.11752
-6.18599
-6.25144
-6.31354
-6.37208
-6.42697
-6.47823
-6.52583
-6.56948
-5.62606
-5.63447
-5.65959
-5.70132
-5.75485
-5.81641
-5.88426
-5.95604
-6.02818
-6.09806
-6.16511
-6.22913
-6.28984
-6.34703
-6.40053
-6.45002
-6.49562
-6.53844
-5.58225
-5.59122
-5.61868
-5.66347
-5.71994
-5.78444
-5.85471
-5.92807
-6.001
-6.07154
-6.13924
-6.20387
-6.26514
-6.32277
-6.37633
-6.42554
-6.4715
-6.51587
-5.52308
-5.53311
-5.56479
-5.61498
-5.6767
-5.74604
-5.82063
-5.89718
-5.97242
-6.04529
-6.1154
-6.1822
-6.2453
-6.3043
-6.35874
-6.40952
-6.45825
-6.50503
-5.45047
-5.46252
-5.50081
-5.5581
-5.62632
-5.70234
-5.7833
-5.86488
-5.94456
-6.0216
-6.09554
-6.16534
-6.23041
-6.29085
-6.34767
-6.40168
-6.45275
-6.50037
-5.36823
-5.38291
-5.42971
-5.49628
-5.57368
-5.65886
-5.74797
-5.83646
-5.92189
-6.00312
-6.07978
-6.15161
-6.21881
-6.28176
-6.34073
-6.39579
-6.44713
-6.49497
-5.27395
-5.29197
-5.35395
-5.43539
-5.52512
-5.62027
-5.71635
-5.80976
-5.89872
-5.98274
-6.0614
-6.13476
-6.2033
-6.26741
-6.32725
-6.38327
-6.43555
-6.48431
-5.16077
-5.1936
-5.27969
-5.3747
-5.47346
-5.57566
-5.67624
-5.77267
-5.86371
-5.95
-6.03111
-6.10696
-6.17798
-6.24464
-6.30687
-6.36497
-6.41907
-6.46944
-5.03375
-5.09338
-5.19895
-5.3018
-5.40531
-5.51298
-5.61971
-5.72224
-5.81882
-5.91027
-5.99632
-6.07696
-6.15222
-6.22245
-6.28778
-6.3485
-6.40493
-6.45726
-4.89432
-4.97635
-5.10287
-5.21882
-5.33187
-5.44979
-5.5672
-5.67924
-5.78405
-5.88211
-5.97369
-6.05901
-6.1382
-6.21154
-6.27948
-6.34229
-6.40063
-6.45463
-4.71501
-4.85306
-5.0209
-5.15247
-5.27686
-5.40633
-5.53458
-5.65544
-5.76768
-5.87137
-5.96762
-6.05677
-6.13907
-6.21468
-6.28439
-6.34839
-6.40768
-6.46229
-4.50034
-4.77192
-4.97708
-5.11317
-5.24185
-5.37774
-5.51202
-5.63762
-5.75407
-5.86121
-5.96062
-6.05268
-6.13758
-6.21539
-6.28701
-6.35248
-6.41303
-6.46831
-4.31386
-4.72204
-4.96278
-5.10697
-5.24262
-5.38496
-5.52322
-5.65039
-5.76664
-5.8733
-5.97189
-6.06297
-6.14692
-6.22393
-6.29485
-6.35971
-6.41968
-6.4738
-7.52832
-7.53049
-7.53354
-7.53664
-7.53727
-7.53329
-7.52408
-7.5121
-7.50105
-7.49426
-7.49313
-7.49751
-7.50602
-7.51705
-7.52905
-7.54064
-7.55075
-7.5585
-7.56321
-7.5644
-7.56193
-7.55581
-7.54629
-7.53387
-7.51946
-7.50442
-7.49056
-7.47987
-7.47409
-7.4727
-7.47252
-7.47129
-7.46884
-7.46639
-7.46442
-7.46247
-7.46027
-7.45789
-7.45534
-7.45241
-7.44939
-7.448
-7.45017
-7.45633
-7.4654
-7.47504
-7.48337
-7.4878
-7.49141
-7.49712
-7.49061
-7.48387
-7.46682
-7.43933
-7.43227
-7.45317
-7.48957
-7.53759
-7.59083
-7.64566
-7.69921
-7.74984
-7.79668
-7.83929
-7.87749
-7.91142
-7.94142
-7.96781
-7.99095
-8.01113
-8.02856
-8.04346
-8.05602
-8.06637
-8.07461
-8.08082
-8.08504
-8.0873
-8.08762
-8.08597
-8.08234
-8.07671
-8.06904
-8.05927
-8.04737
-8.03326
-8.01689
-7.9982
-7.97713
-7.9536
-7.92755
-7.89892
-7.86764
-7.83366
-7.79692
-7.75737
-7.71496
-7.66964
-7.62138
-7.57014
-7.51588
-7.4586
-7.39826
-7.33485
-7.26835
-7.19876
-7.12606
-7.05025
-6.97133
-6.8893
-6.80416
-6.71588
-6.62455
-6.53011
-6.43257
-6.33193
-6.22822
-6.12146
-6.01167
-5.89885
-5.78304
-5.66425
-5.54248
-5.41775
-5.29006
-5.15941
-5.0258
-4.88922
-4.74967
-4.60714
-4.46161
-4.3131
-4.16157
-4.00696
-3.84929
-3.68854
-3.52472
-3.35783
-3.18787
-3.01484
-2.83876
-2.65964
-2.47752
-2.29244
-2.10443
-1.91355
-1.71988
-1.52349
-1.32446
-1.12292
-0.918957
-0.712718
-0.504341
-0.293978
-0.0817963
0.132033
0.347327
0.563899
0.781557
1.00011
1.21936
1.43912
1.65921
1.87946
2.09969
2.31975
2.5395
2.75881
2.97757
3.19566
3.413
3.6295
3.84513
4.05984
4.27364
4.4867
4.69932
4.91051
5.12616
5.34371
-7.54042
-7.54215
-7.54571
-7.54964
-7.55139
-7.54823
-7.54027
-7.5297
-7.52043
-7.51544
-7.51579
-7.52085
-7.52923
-7.53945
-7.55021
-7.56043
-7.56927
-7.5761
-7.58044
-7.58197
-7.58032
-7.57518
-7.5666
-7.55492
-7.54088
-7.52565
-7.51078
-7.498
-7.48876
-7.48225
-7.47522
-7.469
-7.46632
-7.46539
-7.46442
-7.46308
-7.4615
-7.45971
-7.4572
-7.45382
-7.45048
-7.44925
-7.45229
-7.46025
-7.4722
-7.48645
-7.50205
-7.50172
-7.49225
-7.47599
-7.46789
-7.49343
-7.50579
-7.48463
-7.48201
-7.50259
-7.5374
-7.58262
-7.63183
-7.68222
-7.73095
-7.77689
-7.81921
-7.85771
-7.89234
-7.92328
-7.95077
-7.97508
-7.99647
-8.01517
-8.0314
-8.04534
-8.0571
-8.06679
-8.07447
-8.0802
-8.08402
-8.08593
-8.08595
-8.08404
-8.08019
-8.07436
-8.06652
-8.05661
-8.04459
-8.03039
-8.01395
-7.9952
-7.97409
-7.95055
-7.92451
-7.8959
-7.86467
-7.83076
-7.79411
-7.75466
-7.71237
-7.66719
-7.61908
-7.568
-7.51394
-7.45685
-7.39672
-7.33353
-7.26727
-7.19793
-7.1255
-7.04997
-6.97133
-6.88961
-6.80485
-6.7169
-6.62577
-6.5316
-6.43435
-6.33403
-6.23065
-6.12421
-6.01475
-5.90226
-5.78678
-5.66832
-5.54689
-5.42251
-5.29516
-5.16487
-5.03161
-4.89539
-4.7562
-4.61401
-4.46882
-4.32061
-4.16937
-4.01513
-3.85785
-3.6975
-3.53409
-3.3676
-3.19805
-3.02543
-2.84976
-2.67105
-2.48934
-2.30466
-2.11705
-1.92658
-1.73329
-1.53728
-1.33864
-1.13746
-0.933858
-0.727969
-0.519931
-0.309898
-0.0980357
0.115483
0.330477
0.546758
0.764131
0.982404
1.20138
1.42088
1.6407
1.86067
2.08063
2.30042
2.51989
2.73891
2.95736
3.17514
3.39215
3.60831
3.82357
4.03788
4.25122
4.46367
4.6755
4.88536
5.09967
5.30176
-7.54059
-7.54088
-7.54187
-7.54365
-7.54587
-7.54681
-7.54554
-7.54365
-7.54324
-7.54555
-7.55059
-7.5578
-7.56653
-7.57602
-7.58542
-7.594
-7.60115
-7.60642
-7.60949
-7.61014
-7.60811
-7.60354
-7.5964
-7.58678
-7.57494
-7.56135
-7.54671
-7.5318
-7.51743
-7.50426
-7.49272
-7.48385
-7.47728
-7.47178
-7.46781
-7.46516
-7.4629
-7.4602
-7.45642
-7.45193
-7.44812
-7.44786
-7.45394
-7.46724
-7.48476
-7.49637
-7.49653
-7.49795
-7.51347
-7.51614
-7.50314
-7.50767
-7.52103
-7.53137
-7.54841
-7.57255
-7.60409
-7.64085
-7.68029
-7.72066
-7.76023
-7.79813
-7.83367
-7.86653
-7.89659
-7.92384
-7.94839
-7.97036
-7.98989
-8.00711
-8.02215
-8.03511
-8.04608
-8.05513
-8.06231
-8.06764
-8.07114
-8.07281
-8.07264
-8.07061
-8.06669
-8.06085
-8.05303
-8.04319
-8.03128
-8.01723
-8.00098
-7.98247
-7.96163
-7.93839
-7.91269
-7.88445
-7.85363
-7.82015
-7.78396
-7.74499
-7.70321
-7.65855
-7.61099
-7.56048
-7.50699
-7.4505
-7.39098
-7.32842
-7.26279
-7.1941
-7.12233
-7.04748
-6.96953
-6.88848
-6.80424
-6.71707
-6.62672
-6.53323
-6.43665
-6.33698
-6.23425
-6.12845
-6.01962
-5.90778
-5.79293
-5.67511
-5.55432
-5.43057
-5.30387
-5.17422
-5.04162
-4.90607
-4.76755
-4.62606
-4.48158
-4.33408
-4.18358
-4.03004
-3.87347
-3.71384
-3.55114
-3.38537
-3.21653
-3.04462
-2.86966
-2.69165
-2.51063
-2.32663
-2.13969
-1.94986
-1.75721
-1.56182
-1.36378
-1.16318
-0.960141
-0.754789
-0.547266
-0.337724
-0.126329
0.0867435
0.301313
0.517188
0.734173
0.952074
1.17069
1.38984
1.60931
1.82894
2.04856
2.26799
2.4871
2.70575
2.92382
3.1412
3.3578
3.57353
3.78834
4.00216
4.21498
4.42677
4.63789
4.84619
5.05996
5.25473
-7.53937
-7.5387
-7.53748
-7.53834
-7.54178
-7.54747
-7.55447
-7.56195
-7.56967
-7.57791
-7.5868
-7.59594
-7.60485
-7.61322
-7.62077
-7.6272
-7.63223
-7.63561
-7.63714
-7.6367
-7.63419
-7.62958
-7.62288
-7.61418
-7.60363
-7.5914
-7.57775
-7.56303
-7.54765
-7.53207
-7.51675
-7.50248
-7.49018
-7.48032
-7.47261
-7.46595
-7.4595
-7.4526
-7.44478
-7.43675
-7.43075
-7.42996
-7.43587
-7.44717
-7.46099
-7.48203
-7.49683
-7.49798
-7.50611
-7.51909
-7.53012
-7.54465
-7.55887
-7.57485
-7.59537
-7.6195
-7.64775
-7.67871
-7.7113
-7.74452
-7.77735
-7.80919
-7.83948
-7.86791
-7.89431
-7.91858
-7.94071
-7.96074
-7.97872
-7.99471
-8.00878
-8.02098
-8.03136
-8.03996
-8.04679
-8.05188
-8.05522
-8.05681
-8.05662
-8.05462
-8.05079
-8.04508
-8.03744
-8.02783
-8.01619
-8.00245
-7.98655
-7.96843
-7.94801
-7.92523
-7.90002
-7.87231
-7.84203
-7.80911
-7.7735
-7.73514
-7.69397
-7.64995
-7.60304
-7.55319
-7.50038
-7.44457
-7.38574
-7.32387
-7.25895
-7.19097
-7.11991
-7.04577
-6.96853
-6.8882
-6.80472
-6.71816
-6.62847
-6.53568
-6.43978
-6.34079
-6.23873
-6.1336
-6.02543
-5.91424
-5.80005
-5.68288
-5.56274
-5.43965
-5.31361
-5.18463
-5.05271
-4.91783
-4.78
-4.6392
-4.49542
-4.34864
-4.19885
-4.04604
-3.89018
-3.73126
-3.56928
-3.40423
-3.2361
-3.06489
-2.89062
-2.71331
-2.53296
-2.34962
-2.16332
-1.97412
-1.78208
-1.58728
-1.38979
-1.18973
-0.987206
-0.782341
-0.575277
-0.36617
-0.155185
0.0575024
0.271709
0.487242
0.703903
0.921494
1.13981
1.35867
1.57786
1.7972
2.01653
2.23567
2.45447
2.67279
2.89052
3.10755
3.32377
3.53911
3.75349
3.96686
4.17919
4.39035
4.60087
4.80776
5.02136
5.20812
-7.54184
-7.54115
-7.54016
-7.54262
-7.5501
-7.56126
-7.57353
-7.58582
-7.59778
-7.60878
-7.61861
-7.62755
-7.63575
-7.64317
-7.64966
-7.65503
-7.65907
-7.66162
-7.66253
-7.66168
-7.659
-7.65445
-7.64805
-7.63982
-7.62984
-7.6182
-7.60501
-7.59042
-7.57458
-7.55769
-7.54002
-7.52207
-7.50471
-7.48872
-7.47443
-7.46147
-7.44907
-7.43639
-7.42352
-7.41139
-7.40226
-7.39775
-7.39992
-7.41186
-7.42979
-7.45028
-7.47458
-7.49627
-7.51668
-7.53579
-7.55424
-7.57378
-7.59176
-7.6105
-7.63128
-7.65415
-7.67936
-7.70622
-7.73417
-7.76254
-7.79068
-7.81815
-7.84454
-7.86958
-7.89308
-7.91491
-7.93503
-7.9534
-7.97005
-7.98496
-7.99818
-8.00972
-8.01959
-8.02781
-8.03438
-8.0393
-8.04254
-8.0441
-8.04394
-8.04204
-8.03835
-8.03282
-8.02542
-8.01607
-8.00472
-7.99132
-7.97578
-7.95805
-7.93805
-7.91571
-7.89095
-7.86371
-7.83392
-7.80151
-7.76642
-7.72858
-7.68795
-7.64447
-7.5981
-7.5488
-7.49654
-7.44129
-7.38301
-7.32169
-7.25733
-7.18989
-7.11938
-7.04578
-6.96909
-6.88929
-6.80637
-6.72033
-6.63116
-6.53889
-6.44351
-6.34502
-6.24346
-6.13883
-6.03115
-5.92045
-5.80675
-5.69006
-5.57042
-5.44782
-5.32228
-5.1938
-5.06239
-4.92804
-4.79073
-4.65046
-4.50721
-4.36097
-4.21172
-4.05945
-3.90414
-3.74576
-3.58433
-3.41981
-3.25221
-3.08153
-2.90778
-2.73097
-2.55111
-2.36825
-2.18241
-1.99365
-1.80203
-1.60763
-1.41053
-1.21082
-1.00863
-0.804077
-0.597301
-0.388459
-0.177718
0.0347451
0.248744
0.464084
0.680565
0.897984
1.11614
1.33483
1.55385
1.77302
1.99216
2.21111
2.4297
2.64781
2.86529
3.08206
3.298
3.51303
3.72708
3.94008
4.15202
4.36263
4.57265
4.77832
4.99219
5.17142
-7.5483
-7.54607
-7.54819
-7.5549
-7.5669
-7.58107
-7.59563
-7.60924
-7.62127
-7.63204
-7.64189
-7.6509
-7.65905
-7.66625
-7.67239
-7.67733
-7.68094
-7.68311
-7.68373
-7.68272
-7.68003
-7.6756
-7.66945
-7.66156
-7.65194
-7.64063
-7.62763
-7.61302
-7.59685
-7.57921
-7.56025
-7.54026
-7.51977
-7.49951
-7.48014
-7.46174
-7.44381
-7.42615
-7.40911
-7.39323
-7.37995
-7.37149
-7.37357
-7.3885
-7.41454
-7.4453
-7.47598
-7.50466
-7.53108
-7.55439
-7.57578
-7.59673
-7.61684
-7.6373
-7.65854
-7.68076
-7.70413
-7.72838
-7.7532
-7.77819
-7.80297
-7.82723
-7.85064
-7.87302
-7.89418
-7.91401
-7.93244
-7.9494
-7.96487
-7.97884
-7.99131
-8.00226
-8.01168
-8.01957
-8.02591
-8.03069
-8.03387
-8.03543
-8.03533
-8.03353
-8.03
-8.02467
-8.01749
-8.00841
-7.99737
-7.98428
-7.96909
-7.95173
-7.93211
-7.91016
-7.88582
-7.85899
-7.82962
-7.79764
-7.76297
-7.72556
-7.68536
-7.6423
-7.59636
-7.54748
-7.49563
-7.44078
-7.38291
-7.32199
-7.25802
-7.19098
-7.12086
-7.04765
-6.97134
-6.89192
-6.80937
-6.7237
-6.6349
-6.54298
-6.44794
-6.34979
-6.24856
-6.14425
-6.0369
-5.92652
-5.81314
-5.69679
-5.57747
-5.45521
-5.33002
-5.2019
-5.07084
-4.93685
-4.79992
-4.66002
-4.51716
-4.3713
-4.22244
-4.07056
-3.91563
-3.75764
-3.59659
-3.43245
-3.26522
-3.09491
-2.92151
-2.74504
-2.56551
-2.38296
-2.19741
-2.00893
-1.81757
-1.62341
-1.42652
-1.22701
-1.02499
-0.820588
-0.613943
-0.405214
-0.194569
0.0178138
0.231744
0.447025
0.663454
0.880823
1.09893
1.31756
1.53652
1.75561
1.97466
2.1935
2.41197
2.62993
2.84726
3.06383
3.27956
3.49436
3.70815
3.92085
4.13244
4.34257
4.55218
4.75676
4.97131
5.14444
-7.558
-7.55596
-7.56117
-7.57237
-7.58648
-7.60097
-7.61453
-7.62702
-7.63862
-7.64938
-7.65926
-7.66824
-7.67627
-7.68329
-7.6892
-7.69392
-7.69733
-7.69935
-7.6999
-7.69892
-7.69635
-7.69213
-7.68626
-7.67872
-7.66948
-7.65852
-7.64582
-7.63138
-7.61522
-7.59741
-7.57811
-7.55753
-7.53604
-7.51414
-7.49236
-7.47103
-7.45032
-7.42992
-7.40901
-7.38938
-7.37395
-7.36701
-7.37363
-7.39482
-7.42549
-7.45892
-7.49077
-7.51997
-7.54685
-7.57135
-7.59417
-7.61602
-7.63715
-7.65821
-7.67948
-7.70116
-7.72332
-7.74587
-7.76862
-7.79133
-7.81377
-7.83574
-7.85699
-7.87738
-7.89677
-7.91505
-7.93214
-7.94797
-7.96251
-7.97573
-7.98758
-7.99806
-8.00712
-8.01476
-8.02093
-8.02562
-8.02877
-8.03037
-8.03035
-8.02869
-8.02533
-8.02021
-8.01328
-8.00446
-7.99371
-7.98094
-7.96608
-7.94906
-7.9298
-7.90821
-7.88422
-7.85776
-7.82875
-7.79711
-7.76279
-7.72573
-7.68585
-7.64312
-7.59748
-7.5489
-7.49734
-7.44277
-7.38518
-7.32454
-7.26084
-7.19406
-7.12421
-7.05125
-6.9752
-6.89603
-6.81372
-6.72828
-6.6397
-6.54798
-6.45314
-6.35519
-6.25415
-6.15003
-6.04287
-5.93268
-5.8195
-5.70335
-5.58424
-5.4622
-5.33723
-5.20935
-5.07853
-4.94479
-4.80812
-4.66849
-4.52589
-4.3803
-4.23171
-4.0801
-3.92544
-3.76773
-3.60694
-3.44306
-3.27608
-3.10601
-2.93285
-2.75659
-2.57727
-2.39491
-2.20954
-2.02121
-1.82999
-1.63593
-1.43914
-1.23971
-1.03774
-0.833365
-0.626732
-0.417999
-0.207337
0.00507505
0.219044
0.434367
0.650841
0.868252
1.08639
1.30504
1.52401
1.7431
1.96213
2.18092
2.39932
2.61718
2.83439
3.05083
3.26639
3.48099
3.69455
3.90698
4.11826
4.32795
4.53721
4.7409
4.95625
5.12447
-7.56366
-7.56545
-7.57421
-7.58749
-7.60112
-7.61427
-7.62686
-7.6388
-7.65003
-7.6605
-7.67017
-7.679
-7.68692
-7.69384
-7.69967
-7.70433
-7.70773
-7.70979
-7.71043
-7.7096
-7.70724
-7.70332
-7.69781
-7.69069
-7.68191
-7.67146
-7.6593
-7.64541
-7.62981
-7.6126
-7.59397
-7.57415
-7.55344
-7.53228
-7.51111
-7.49002
-7.46835
-7.4452
-7.42263
-7.40303
-7.38954
-7.38729
-7.39872
-7.42186
-7.45134
-7.48163
-7.51054
-7.53782
-7.56344
-7.58739
-7.61014
-7.63207
-7.65343
-7.67455
-7.69564
-7.71683
-7.73816
-7.75956
-7.78092
-7.8021
-7.82295
-7.84333
-7.86307
-7.88205
-7.90017
-7.91732
-7.93342
-7.94843
-7.96228
-7.97493
-7.98635
-7.99649
-8.00531
-8.01279
-8.01887
-8.02353
-8.02672
-8.02839
-8.0285
-8.027
-8.02383
-8.01895
-8.01227
-8.00373
-7.99326
-7.98079
-7.96624
-7.94952
-7.93057
-7.9093
-7.88563
-7.85949
-7.83079
-7.79946
-7.76543
-7.72864
-7.68903
-7.64654
-7.60113
-7.55276
-7.5014
-7.44702
-7.3896
-7.32913
-7.26559
-7.19897
-7.12926
-7.05645
-6.98053
-6.90149
-6.81931
-6.73398
-6.64549
-6.55387
-6.45912
-6.36125
-6.26028
-6.15625
-6.04917
-5.93907
-5.82598
-5.70993
-5.59094
-5.46903
-5.34419
-5.21645
-5.08579
-4.95222
-4.81571
-4.67625
-4.53383
-4.38843
-4.24002
-4.0886
-3.93412
-3.77659
-3.61597
-3.45227
-3.28546
-3.11554
-2.94251
-2.76639
-2.58718
-2.40491
-2.21962
-2.03135
-1.84017
-1.64613
-1.44934
-1.24988
-1.04787
-0.843436
-0.636723
-0.427896
-0.217126
-0.0045974
0.209494
0.42494
0.641531
0.859054
1.07729
1.29603
1.51506
1.73419
1.95324
2.17202
2.39039
2.60819
2.82531
3.04163
3.25705
3.47147
3.68482
3.89699
4.10798
4.31726
4.52622
4.7291
4.94549
5.10953
-7.56591
-7.57135
-7.58324
-7.59619
-7.60889
-7.62117
-7.63293
-7.64418
-7.65489
-7.66501
-7.67447
-7.68318
-7.69104
-7.69795
-7.70382
-7.70855
-7.71206
-7.71426
-7.71511
-7.71454
-7.71251
-7.70898
-7.70392
-7.6973
-7.6891
-7.67927
-7.66779
-7.65466
-7.64
-7.62404
-7.60706
-7.58941
-7.57135
-7.55303
-7.5343
-7.51456
-7.49345
-7.47169
-7.45077
-7.43345
-7.42412
-7.42503
-7.43661
-7.45701
-7.48144
-7.50642
-7.53122
-7.5555
-7.57895
-7.60155
-7.6235
-7.64497
-7.66607
-7.68698
-7.70781
-7.72859
-7.74931
-7.76994
-7.7904
-7.8106
-7.83043
-7.84977
-7.86851
-7.88655
-7.9038
-7.92019
-7.93564
-7.95009
-7.96349
-7.97579
-7.98694
-7.99689
-8.00561
-8.01303
-8.01912
-8.02384
-8.02713
-8.02894
-8.02921
-8.02789
-8.02493
-8.02026
-8.01382
-8.00556
-7.99538
-7.98322
-7.96898
-7.9526
-7.93397
-7.91301
-7.88965
-7.86381
-7.83539
-7.80433
-7.77054
-7.73397
-7.69456
-7.65225
-7.607
-7.55876
-7.50752
-7.45324
-7.3959
-7.33549
-7.272
-7.20544
-7.13578
-7.06302
-6.98715
-6.90814
-6.82598
-6.74066
-6.65218
-6.56055
-6.46579
-6.3679
-6.26692
-6.16287
-6.05578
-5.94569
-5.83262
-5.7166
-5.59765
-5.47579
-5.35102
-5.22336
-5.09279
-4.95931
-4.8229
-4.68356
-4.54125
-4.39597
-4.24768
-4.09638
-3.94202
-3.7846
-3.6241
-3.4605
-3.29379
-3.12396
-2.95101
-2.77495
-2.59578
-2.41354
-2.22826
-2.03998
-1.84877
-1.65468
-1.45782
-1.25826
-1.05614
-0.851572
-0.644709
-0.435718
-0.224769
-0.0120564
0.20222
0.417849
0.634616
0.852304
1.07069
1.28956
1.5087
1.72791
1.947
2.16581
2.38416
2.60193
2.81897
3.03519
3.25047
3.46473
3.67787
3.88979
4.1005
4.30939
4.51812
4.72025
4.93774
5.09821
-7.56874
-7.57548
-7.58711
-7.5986
-7.61001
-7.62113
-7.63197
-7.64257
-7.65284
-7.6627
-7.67203
-7.68073
-7.68866
-7.6957
-7.70173
-7.70665
-7.71038
-7.71285
-7.714
-7.71378
-7.71214
-7.70904
-7.70444
-7.69832
-7.69066
-7.68147
-7.67084
-7.65893
-7.64602
-7.63251
-7.6189
-7.60545
-7.59211
-7.57831
-7.56325
-7.54627
-7.52737
-7.50748
-7.48867
-7.47371
-7.46524
-7.46518
-7.47402
-7.48948
-7.50806
-7.52817
-7.54911
-7.57034
-7.59158
-7.61269
-7.63365
-7.65447
-7.67517
-7.6958
-7.71636
-7.73682
-7.75714
-7.77731
-7.79725
-7.81688
-7.83609
-7.85481
-7.87295
-7.89042
-7.90716
-7.92311
-7.93819
-7.95235
-7.96553
-7.97768
-7.98875
-7.99868
-8.00742
-8.01492
-8.02113
-8.02597
-8.02939
-8.03136
-8.03181
-8.03071
-8.028
-8.02361
-8.01748
-8.00954
-7.9997
-7.98788
-7.97399
-7.95793
-7.93964
-7.919
-7.89593
-7.87035
-7.84217
-7.81132
-7.77773
-7.74132
-7.70204
-7.65984
-7.61467
-7.56649
-7.51528
-7.46102
-7.40367
-7.34324
-7.27973
-7.21314
-7.14346
-7.07068
-6.99478
-6.91573
-6.83352
-6.74813
-6.65956
-6.56784
-6.47298
-6.375
-6.27392
-6.16979
-6.06262
-5.95246
-5.83934
-5.72329
-5.60433
-5.48247
-5.35773
-5.23009
-5.09956
-4.96613
-4.82978
-4.6905
-4.54826
-4.40305
-4.25484
-4.1036
-3.94932
-3.79198
-3.63154
-3.468
-3.30134
-3.13155
-2.95863
-2.78258
-2.60341
-2.42116
-2.23583
-2.04749
-1.85619
-1.66201
-1.46502
-1.26532
-1.06303
-0.858272
-0.651203
-0.441991
-0.230811
-0.0178653
0.196645
0.412507
0.629496
0.847391
1.06597
1.285
1.50428
1.7236
1.94277
2.16161
2.37997
2.59771
2.81469
3.03082
3.24597
3.46007
3.67301
3.88469
4.09513
4.30368
4.51223
4.71369
4.93223
5.08963
-7.56685
-7.57307
-7.5828
-7.59297
-7.60333
-7.61351
-7.62364
-7.63374
-7.64371
-7.65341
-7.66276
-7.6716
-7.67976
-7.68708
-7.69343
-7.69869
-7.70278
-7.7056
-7.70708
-7.70716
-7.70583
-7.70306
-7.69885
-7.69323
-7.68629
-7.67819
-7.66915
-7.65957
-7.65007
-7.64114
-7.63279
-7.62444
-7.61527
-7.60465
-7.59195
-7.57671
-7.55888
-7.5393
-7.52015
-7.50477
-7.49602
-7.49496
-7.50107
-7.51239
-7.52697
-7.54366
-7.56167
-7.58057
-7.60007
-7.61995
-7.64006
-7.66033
-7.6807
-7.7011
-7.72146
-7.74173
-7.76189
-7.78186
-7.80157
-7.82093
-7.83986
-7.85827
-7.87611
-7.89332
-7.90984
-7.92562
-7.94059
-7.9547
-7.96789
-7.9801
-7.99127
-8.00134
-8.01024
-8.0179
-8.02427
-8.02929
-8.03294
-8.03515
-8.0359
-8.03513
-8.03277
-8.02875
-8.023
-8.01543
-8.00595
-7.99446
-7.98088
-7.96513
-7.94711
-7.92673
-7.9039
-7.87854
-7.85056
-7.81988
-7.78643
-7.75014
-7.71095
-7.66881
-7.62367
-7.5755
-7.52427
-7.46996
-7.41254
-7.35201
-7.28839
-7.22171
-7.15195
-7.07908
-7.00309
-6.92393
-6.8416
-6.75607
-6.66734
-6.57544
-6.48042
-6.38228
-6.28105
-6.17675
-6.06945
-5.95918
-5.84597
-5.72985
-5.61083
-5.48894
-5.36418
-5.23654
-5.10601
-4.9726
-4.83627
-4.69702
-4.55482
-4.40965
-4.26148
-4.11029
-3.95605
-3.79874
-3.63834
-3.47483
-3.30819
-3.13841
-2.96549
-2.78942
-2.61022
-2.42791
-2.24251
-2.05407
-1.86265
-1.66833
-1.47117
-1.27128
-1.06879
-0.863809
-0.656491
-0.447019
-0.235571
-0.0223519
0.19243
0.408562
0.625808
0.843942
1.06273
1.28196
1.5014
1.72085
1.94011
2.15902
2.3774
2.59512
2.81205
3.02809
3.24312
3.45707
3.66982
3.88128
4.09148
4.29972
4.50815
4.70906
4.92854
5.08331
-7.55499
-7.56012
-7.56914
-7.57888
-7.58863
-7.59811
-7.60768
-7.61745
-7.62734
-7.63725
-7.64708
-7.65653
-7.66528
-7.67313
-7.67989
-7.68546
-7.68977
-7.69275
-7.69438
-7.69463
-7.69354
-7.69113
-7.68747
-7.68268
-7.67692
-7.67056
-7.66417
-7.6581
-7.6523
-7.64654
-7.64069
-7.63461
-7.62745
-7.61789
-7.60478
-7.58784
-7.56812
-7.54792
-7.53025
-7.51745
-7.51047
-7.50975
-7.51491
-7.52455
-7.53716
-7.55182
-7.56804
-7.58549
-7.60389
-7.62296
-7.64253
-7.66248
-7.68265
-7.70294
-7.72325
-7.74354
-7.76372
-7.78371
-7.80342
-7.82276
-7.84164
-7.85999
-7.87778
-7.89497
-7.91153
-7.92739
-7.94249
-7.95678
-7.9702
-7.98265
-7.99406
-8.00436
-8.0135
-8.02143
-8.0281
-8.03348
-8.03753
-8.04019
-8.04137
-8.041
-8.03903
-8.03539
-8.03
-8.02277
-8.01361
-8.00242
-7.98913
-7.97363
-7.95584
-7.93567
-7.91303
-7.88783
-7.85999
-7.82943
-7.79608
-7.75986
-7.72072
-7.6786
-7.63345
-7.58525
-7.53396
-7.47956
-7.42201
-7.3613
-7.2975
-7.23067
-7.16076
-7.08775
-7.01161
-6.9323
-6.84978
-6.76403
-6.67506
-6.58294
-6.4877
-6.38935
-6.28791
-6.18341
-6.07593
-5.96551
-5.85218
-5.73596
-5.61688
-5.49493
-5.37013
-5.24246
-5.11193
-4.97851
-4.84219
-4.70295
-4.56077
-4.41562
-4.26747
-4.11631
-3.9621
-3.80481
-3.64443
-3.48092
-3.31428
-3.1445
-2.97156
-2.79545
-2.61619
-2.43381
-2.24832
-2.05976
-1.86819
-1.67371
-1.47636
-1.27626
-1.07353
-0.868294
-0.660698
-0.450943
-0.239201
-0.0256769
0.189405
0.40583
0.62336
0.841757
1.06079
1.28022
1.49984
1.71944
1.93881
2.15778
2.37619
2.59391
2.81079
3.02676
3.24167
3.45548
3.66805
3.87933
4.08931
4.29729
4.50566
4.70614
4.92645
5.07901
-7.53305
-7.53738
-7.54647
-7.55675
-7.56634
-7.57542
-7.58494
-7.59531
-7.60612
-7.61681
-7.62725
-7.63726
-7.64649
-7.65467
-7.66165
-7.66739
-7.6719
-7.67509
-7.6768
-7.67712
-7.67626
-7.67429
-7.67127
-7.66742
-7.66311
-7.65852
-7.65374
-7.64892
-7.64428
-7.63974
-7.63451
-7.62754
-7.61791
-7.60516
-7.58943
-7.57173
-7.55385
-7.53764
-7.52443
-7.51522
-7.51116
-7.51256
-7.51847
-7.52778
-7.53955
-7.55324
-7.56859
-7.58532
-7.60314
-7.62182
-7.64116
-7.66099
-7.68114
-7.70148
-7.72192
-7.74239
-7.76277
-7.78296
-7.80287
-7.82239
-7.84142
-7.8599
-7.87782
-7.89523
-7.91207
-7.92827
-7.94373
-7.95837
-7.97213
-7.98493
-7.99671
-8.00741
-8.01699
-8.02542
-8.03264
-8.03861
-8.04324
-8.04642
-8.04802
-8.04801
-8.0464
-8.04314
-8.0381
-8.03118
-8.0223
-8.01136
-7.99828
-7.98295
-7.9653
-7.94524
-7.92268
-7.89755
-7.86975
-7.83923
-7.80591
-7.76971
-7.73057
-7.68845
-7.6433
-7.59506
-7.54372
-7.48923
-7.4315
-7.3705
-7.30641
-7.23937
-7.16928
-7.09608
-7.01973
-6.9402
-6.85744
-6.7714
-6.68211
-6.5897
-6.49421
-6.39563
-6.29396
-6.18923
-6.08156
-5.97097
-5.85752
-5.74121
-5.62205
-5.50005
-5.37521
-5.24752
-5.11697
-4.98354
-4.84723
-4.708
-4.56583
-4.4207
-4.27257
-4.12143
-3.96724
-3.80997
-3.6496
-3.4861
-3.31945
-3.14966
-2.97669
-2.80054
-2.62122
-2.43875
-2.25316
-2.06447
-1.87275
-1.67809
-1.48054
-1.2802
-1.07722
-0.871717
-0.663834
-0.453777
-0.241727
-0.0278821
0.187521
0.404255
0.622082
0.840755
1.06004
1.2797
1.4995
1.71925
1.93873
2.15778
2.37623
2.59395
2.81079
3.02669
3.24149
3.45519
3.66759
3.8787
4.08851
4.29629
4.50464
4.7048
4.92585
5.07665
-7.50333
-7.50746
-7.51762
-7.52886
-7.53892
-7.54859
-7.55862
-7.56932
-7.5807
-7.59222
-7.60337
-7.61384
-7.62337
-7.63182
-7.63904
-7.64511
-7.64991
-7.6532
-7.65499
-7.65559
-7.65511
-7.65358
-7.65118
-7.64808
-7.64438
-7.64026
-7.63594
-7.63131
-7.62593
-7.61936
-7.61121
-7.60118
-7.58918
-7.57547
-7.56072
-7.54582
-7.53171
-7.51942
-7.51025
-7.50533
-7.50485
-7.50829
-7.51502
-7.5244
-7.53591
-7.54928
-7.56432
-7.58078
-7.59839
-7.61694
-7.63626
-7.65614
-7.6764
-7.69695
-7.71769
-7.73849
-7.75924
-7.77985
-7.80018
-7.82013
-7.83951
-7.85817
-7.87627
-7.89404
-7.91138
-7.92811
-7.94411
-7.95931
-7.97363
-7.98703
-7.99947
-8.01088
-8.02119
-8.03034
-8.03826
-8.04487
-8.0501
-8.05378
-8.05574
-8.05596
-8.0546
-8.05162
-8.04684
-8.04011
-8.03136
-8.02049
-8.00742
-7.99207
-7.97436
-7.95421
-7.93155
-7.9063
-7.8784
-7.84778
-7.8144
-7.77817
-7.73904
-7.69695
-7.65184
-7.60367
-7.55239
-7.49793
-7.44012
-7.37879
-7.31436
-7.2471
-7.17679
-7.10336
-7.02676
-6.94697
-6.86391
-6.77745
-6.6877
-6.59492
-6.49918
-6.40037
-6.29844
-6.19348
-6.08562
-5.97491
-5.86136
-5.74499
-5.62579
-5.50377
-5.37891
-5.25122
-5.12067
-4.98726
-4.85096
-4.71176
-4.56962
-4.42452
-4.27643
-4.12533
-3.97117
-3.81394
-3.65359
-3.4901
-3.32346
-3.15366
-2.98068
-2.80449
-2.6251
-2.44256
-2.25688
-2.06806
-1.87617
-1.68134
-1.48359
-1.28302
-1.07977
-0.873992
-0.665829
-0.455457
-0.243083
-0.0289148
0.186817
0.403866
0.621992
0.840945
1.06048
1.28036
1.50036
1.72026
1.93986
2.15899
2.37748
2.5952
2.81201
3.02785
3.24256
3.45614
3.6684
3.87937
4.08904
4.29666
4.50503
4.70494
4.92663
5.07622
-7.46901
-7.47363
-7.48552
-7.498
-7.50828
-7.51808
-7.52872
-7.54013
-7.55199
-7.56389
-7.57545
-7.58634
-7.59634
-7.60525
-7.61314
-7.61982
-7.62501
-7.62858
-7.6308
-7.63182
-7.63168
-7.63054
-7.62849
-7.62561
-7.62204
-7.61778
-7.61264
-7.60648
-7.59926
-7.59087
-7.58127
-7.5704
-7.55838
-7.5455
-7.53226
-7.51952
-7.50838
-7.50003
-7.49508
-7.49357
-7.49522
-7.49981
-7.50701
-7.51644
-7.52785
-7.54112
-7.5561
-7.57252
-7.59014
-7.60881
-7.62836
-7.64854
-7.6692
-7.6902
-7.71145
-7.73282
-7.75419
-7.77541
-7.79636
-7.81683
-7.8365
-7.85489
-7.87258
-7.89049
-7.90838
-7.92582
-7.9426
-7.95863
-7.97381
-7.98808
-8.00136
-8.01359
-8.02468
-8.03455
-8.04311
-8.05028
-8.05596
-8.06007
-8.06249
-8.06316
-8.06203
-8.05906
-8.05415
-8.04722
-8.0382
-8.02701
-8.01359
-7.99787
-7.97977
-7.95924
-7.9362
-7.9106
-7.88237
-7.85147
-7.81785
-7.78145
-7.74219
-7.70003
-7.6549
-7.60678
-7.5556
-7.50131
-7.44385
-7.38315
-7.31919
-7.25202
-7.18165
-7.10808
-7.03131
-6.95132
-6.86803
-6.78116
-6.69088
-6.59774
-6.50181
-6.40279
-6.30054
-6.19529
-6.08728
-5.97651
-5.86295
-5.7466
-5.62743
-5.50544
-5.38063
-5.25299
-5.12249
-4.98914
-4.85291
-4.71377
-4.5717
-4.42668
-4.27867
-4.12763
-3.97354
-3.81637
-3.65609
-3.49264
-3.32604
-3.15626
-2.98329
-2.80708
-2.62765
-2.44504
-2.25928
-2.07035
-1.87832
-1.68331
-1.48536
-1.28457
-1.08106
-0.875014
-0.666569
-0.455886
-0.243186
-0.0286943
0.187359
0.404721
0.623143
0.842372
1.06216
1.28226
1.50244
1.72249
1.94221
2.16141
2.37994
2.59767
2.81445
3.03024
3.24486
3.45835
3.6705
3.88135
4.09091
4.29842
4.50683
4.70655
4.92871
5.07769
-7.43154
-7.43715
-7.451
-7.464
-7.47408
-7.48406
-7.49517
-7.50712
-7.5196
-7.53225
-7.54468
-7.55647
-7.56742
-7.57737
-7.58616
-7.59349
-7.59909
-7.60303
-7.60563
-7.60704
-7.6073
-7.60644
-7.60452
-7.60163
-7.59773
-7.59282
-7.58693
-7.58006
-7.57218
-7.56322
-7.55306
-7.54174
-7.5296
-7.51731
-7.50568
-7.49552
-7.48748
-7.48203
-7.47957
-7.47997
-7.483
-7.48852
-7.49635
-7.50619
-7.51787
-7.53135
-7.54652
-7.56305
-7.5806
-7.59902
-7.61825
-7.63814
-7.65853
-7.67932
-7.70042
-7.72174