/*--------------------------------*- C++ -*----------------------------------*\
| =========                 |                                                 |
| \\      /  F ield         | OpenFOAM: The Open Source CFD Toolbox           |
|  \\    /   O peration     | Version:  2112                                  |
|   \\  /    A nd           | Website:  www.openfoam.com                      |
|    \\/     M anipulation  |                                                 |
\*---------------------------------------------------------------------------*/
FoamFile
{
    version     2.0;
    format      ascii;
    arch        "LSB;label=32;scalar=64";
    class       volScalarField;
    location    "0.001";
    object      k;
}
// * * * * * * * * * * * * * * * * * * * * * * * * * * * * * * * * * * * * * //

dimensions      [0 2 -2 0 0 0 0];

internalField   nonuniform List<scalar> 
12225
(
4.0003e-05
3.23256e-05
0.000115578
0.000309171
0.000637968
0.00130645
0.00144254
0.00143588
0.000991326
0.000842354
0.000525075
0.000284627
0.00035272
0.000376125
0.000242207
0.0006213
0.00262835
0.0159297
2.009e-05
2.13784e-05
3.27642e-05
7.81725e-05
0.000129417
0.00014544
0.000142684
0.000130139
8.69437e-05
5.3868e-05
2.95098e-05
1.57437e-05
1.10357e-05
7.72554e-06
6.48292e-06
8.0416e-06
1.54e-05
0.000100861
2.00469e-05
1.71733e-05
1.78535e-05
2.07916e-05
2.35468e-05
2.37475e-05
2.33045e-05
2.0856e-05
1.40766e-05
8.47806e-06
4.65922e-06
2.46255e-06
1.32258e-06
6.60451e-07
3.55619e-07
3.31383e-07
3.36952e-07
1.11212e-06
2.00263e-05
2.00458e-05
2.07338e-05
2.62846e-05
4.45945e-05
5.40173e-05
6.06055e-05
6.07412e-05
5.10913e-05
2.93056e-05
1.50586e-05
7.52841e-06
3.68844e-06
1.55777e-06
8.57428e-07
7.78818e-07
3.87955e-07
3.75686e-07
2.01389e-05
2.06182e-05
2.35151e-05
3.96686e-05
8.50596e-05
0.00010716
0.000109703
0.000102812
6.97653e-05
3.65435e-05
1.80243e-05
8.47255e-06
3.84154e-06
1.69095e-06
7.22555e-07
3.07809e-07
1.29229e-07
5.76303e-08
2.02822e-05
2.03272e-05
2.26681e-05
3.67503e-05
6.83151e-05
8.18383e-05
8.31267e-05
7.71563e-05
5.10476e-05
2.68946e-05
1.33878e-05
6.36126e-06
2.91864e-06
1.30528e-06
5.74088e-07
2.51011e-07
1.09149e-07
4.89015e-08
2.32863e-05
2.12067e-05
2.5801e-05
5.12193e-05
8.59136e-05
0.000100083
0.000101484
9.41147e-05
6.20601e-05
3.27754e-05
1.6347e-05
7.77124e-06
3.56345e-06
1.59147e-06
6.96503e-07
3.01247e-07
1.27854e-07
5.54433e-08
2.04256e-05
2.06913e-05
2.5479e-05
5.32369e-05
0.000117161
0.000144369
0.000146605
0.000135262
8.74905e-05
4.48768e-05
2.16482e-05
9.93428e-06
4.38797e-06
1.8822e-06
7.89923e-07
3.26675e-07
1.33294e-07
5.35936e-08
2.08308e-05
2.07352e-05
2.51499e-05
4.99697e-05
9.15426e-05
0.000108005
0.000108677
9.87651e-05
6.21382e-05
3.22617e-05
1.5772e-05
7.33475e-06
3.27883e-06
1.42002e-06
5.995e-07
2.47949e-07
1.00153e-07
4.02376e-08
2.00169e-05
2.06348e-05
2.55338e-05
5.2079e-05
9.88535e-05
0.000116259
0.000116238
0.000103639
6.30149e-05
3.23733e-05
1.56113e-05
7.15397e-06
3.14861e-06
1.34094e-06
5.56103e-07
2.25661e-07
8.92667e-08
3.51805e-08
2.01053e-05
2.16533e-05
2.7198e-05
4.9703e-05
7.84063e-05
8.74071e-05
8.68286e-05
7.72338e-05
4.75021e-05
2.49336e-05
1.22607e-05
5.72017e-06
2.55904e-06
1.10618e-06
4.65479e-07
1.91225e-07
7.63988e-08
3.04109e-08
2.17209e-05
2.47031e-05
2.81574e-05
3.87404e-05
6.4438e-05
7.83706e-05
8.05641e-05
7.59665e-05
5.23359e-05
2.75373e-05
1.35642e-05
6.31745e-06
2.80999e-06
1.2031e-06
5.0085e-07
2.0203e-07
7.9545e-08
3.17508e-08
2.01317e-05
2.15448e-05
2.6363e-05
4.83972e-05
9.69858e-05
0.000116787
0.00011754
0.000105906
6.5154e-05
3.34277e-05
1.61108e-05
7.37107e-06
3.2334e-06
1.37023e-06
5.63946e-07
2.25814e-07
8.81999e-08
3.45658e-08
2.01606e-05
2.12321e-05
2.58979e-05
4.72595e-05
8.61227e-05
0.000103373
0.000104294
9.62058e-05
6.32155e-05
3.33318e-05
1.6438e-05
7.66434e-06
3.41513e-06
1.46508e-06
6.09078e-07
2.46232e-07
9.71812e-08
3.8186e-08
2.01183e-05
2.14228e-05
2.35526e-05
3.31476e-05
7.17956e-05
0.000110315
0.000122398
0.000121374
0.000100974
5.63576e-05
2.83669e-05
1.33394e-05
5.95056e-06
2.53871e-06
1.04181e-06
4.12997e-07
1.57813e-07
5.96448e-08
2.07072e-05
2.25337e-05
2.62525e-05
4.59617e-05
0.000126378
0.0001981
0.000215025
0.000210165
0.000166911
8.96636e-05
4.3432e-05
1.95901e-05
8.35775e-06
3.40336e-06
1.33167e-06
5.03407e-07
1.84027e-07
6.68348e-08
2.06911e-05
2.25702e-05
2.60185e-05
3.8517e-05
8.89206e-05
0.000142707
0.000155514
0.000152183
0.000121952
6.67459e-05
3.2804e-05
1.49447e-05
6.43012e-06
2.63629e-06
1.03675e-06
3.93242e-07
1.44029e-07
5.23114e-08
2.04522e-05
2.06356e-05
2.25801e-05
3.38839e-05
8.27068e-05
0.000138025
0.000154525
0.000153539
0.000132296
7.61408e-05
3.81378e-05
1.7674e-05
7.68855e-06
3.17019e-06
1.24795e-06
4.71899e-07
1.71726e-07
6.18019e-08
2.0391e-05
2.0299e-05
2.18194e-05
3.08604e-05
7.59291e-05
0.000161942
0.00019535
0.000197241
0.000177983
0.00010748
5.2606e-05
2.38162e-05
1.00835e-05
4.03712e-06
1.54149e-06
5.65267e-07
1.99591e-07
6.98023e-08
2.00759e-05
2.04354e-05
2.27499e-05
3.43738e-05
8.91596e-05
0.000175302
0.000198612
0.000195802
0.000160937
8.67372e-05
4.13223e-05
1.81386e-05
7.45841e-06
2.90337e-06
1.07863e-06
3.85017e-07
1.32397e-07
4.51315e-08
2.00826e-05
2.09888e-05
2.61891e-05
4.92477e-05
0.000136242
0.000199806
0.000206534
0.000195153
0.000137058
6.93537e-05
3.20074e-05
1.37239e-05
5.53356e-06
2.11794e-06
7.75193e-07
2.73031e-07
9.27646e-08
3.12864e-08
2.00471e-05
2.25523e-05
3.91994e-05
6.38155e-05
7.91933e-05
8.32194e-05
8.25581e-05
7.52591e-05
4.8829e-05
2.53072e-05
1.2009e-05
5.28918e-06
2.18963e-06
8.59532e-07
3.22253e-07
1.16132e-07
4.03301e-08
1.38813e-08
2.03608e-05
2.363e-05
3.16607e-05
5.38779e-05
0.000108667
0.000136465
0.000137773
0.000127786
8.43876e-05
4.25513e-05
1.9654e-05
8.41275e-06
3.39201e-06
1.29983e-06
4.76733e-07
1.68382e-07
5.74258e-08
1.94553e-08
3.04758e-05
3.55301e-05
3.22069e-05
4.37899e-05
9.8097e-05
0.000142531
0.000151107
0.000144547
0.000102841
5.16406e-05
2.36704e-05
1.00394e-05
4.01477e-06
1.52923e-06
5.59511e-07
1.97994e-07
6.79785e-08
2.34411e-08
2.24905e-05
2.59161e-05
3.02872e-05
4.72381e-05
0.000109853
0.000165319
0.000175377
0.000167039
0.000117549
5.87462e-05
2.68143e-05
1.13379e-05
4.52839e-06
1.73924e-06
6.48617e-07
2.35175e-07
8.54038e-08
3.28151e-08
2.00516e-05
2.18114e-05
2.77141e-05
4.85909e-05
0.000139539
0.000179667
0.000175114
0.000149502
8.69163e-05
4.35523e-05
1.99449e-05
8.48782e-06
3.43806e-06
1.35625e-06
5.30041e-07
2.08341e-07
8.68888e-08
3.95066e-08
2.0167e-05
2.23856e-05
2.53743e-05
3.23721e-05
5.32202e-05
6.47723e-05
6.56501e-05
6.03987e-05
3.86398e-05
1.9188e-05
8.76135e-06
3.71332e-06
1.47694e-06
5.56122e-07
2.00486e-07
7.00836e-08
2.41897e-08
8.45846e-09
2.00396e-05
1.84975e-05
1.83152e-05
2.02381e-05
2.48724e-05
2.58538e-05
2.48183e-05
1.88987e-05
1.06011e-05
5.4502e-06
2.59359e-06
1.15198e-06
4.82307e-07
1.93198e-07
7.66508e-08
3.2789e-08
1.88489e-08
1.6098e-08
2.00362e-05
2.2301e-05
4.34171e-05
0.000131534
0.000217434
0.000235975
0.000225209
0.000170757
9.66151e-05
5.00866e-05
2.39785e-05
1.06782e-05
4.49421e-06
1.87413e-06
8.72749e-07
5.4834e-07
4.91488e-07
5.11316e-07
2.74584e-05
4.95867e-05
0.000343215
0.00086941
0.00162246
0.00225767
0.00228055
0.00203506
0.00117657
0.0005909
0.000272306
0.000112151
4.39165e-05
1.95434e-05
1.22261e-05
1.09003e-05
1.12783e-05
1.37546e-05
9.06285e-07
4.52433e-07
1.31079e-07
5.67049e-08
2.31668e-08
1.1768e-08
8.68526e-09
6.82913e-09
5.09284e-09
4.0733e-09
3.32633e-09
2.64632e-09
2.02725e-09
1.49033e-09
1.05382e-09
7.27468e-10
4.81687e-10
3.41673e-10
2.72065e-10
2.30719e-10
1.99212e-10
1.71924e-10
1.47467e-10
1.25534e-10
1.0602e-10
8.88285e-11
7.38346e-11
6.08895e-11
4.98246e-11
4.04557e-11
3.25991e-11
2.60724e-11
2.07009e-11
1.63181e-11
1.27709e-11
9.92282e-12
7.65474e-12
5.86366e-12
4.46104e-12
3.37167e-12
2.53233e-12
1.89048e-12
1.40308e-12
1.03544e-12
7.59893e-13
5.54678e-13
4.02761e-13
2.90967e-13
2.09189e-13
1.49689e-13
1.06652e-13
7.56988e-14
5.35264e-14
3.77163e-14
2.65091e-14
1.86154e-14
1.30906e-14
9.2472e-15
6.58955e-15
4.76289e-15
3.51492e-15
2.66764e-15
2.09618e-15
1.71342e-15
1.45893e-15
1.29111e-15
1.18144e-15
1.11052e-15
1.06523e-15
1.03676e-15
1.01927e-15
1.00896e-15
1.00323e-15
1.00064e-15
1e-15
1e-15
1e-15
1e-15
1e-15
1e-15
1e-15
1e-15
1e-15
1e-15
1e-15
1e-15
1e-15
1e-15
1e-15
1e-15
1e-15
1e-15
1e-15
1e-15
1e-15
1e-15
1e-15
1e-15
1e-15
1e-15
1e-15
1e-15
1e-15
1e-15
1e-15
1e-15
1e-15
1e-15
1e-15
1e-15
1e-15
1e-15
1e-15
1e-15
1e-15
1e-15
1e-15
1e-15
1e-15
1e-15
1e-15
1e-15
1e-15
1e-15
1e-15
1e-15
1e-15
1e-15
1e-15
1e-15
1e-15
1e-15
1e-15
1e-15
1e-15
1e-15
1e-15
1e-15
1e-15
1e-15
1e-15
1e-15
1e-15
1e-15
1e-15
1e-15
1e-15
1e-15
1e-15
1e-15
1e-15
1e-15
1e-15
1e-15
1e-15
1e-15
1.0076e-15
3.63833e-15
2.64782e-13
2.88977e-12
1.28297e-11
3.86154e-11
9.61362e-11
2.03874e-10
3.91712e-10
7.14314e-10
1.26211e-09
2.18752e-09
3.74865e-09
6.41658e-09
1.09375e-08
1.91216e-08
3.32651e-08
6.128e-08
1.23013e-07
2.58764e-07
7.71095e-07
8.16424e-07
5.40486e-07
3.64145e-07
3.88707e-06
1.79527e-06
2.54305e-06
1.7626e-06
7.93301e-07
4.55934e-07
3.62506e-07
2.95032e-07
2.23496e-07
1.77422e-07
1.4686e-07
1.18608e-07
9.25768e-08
6.97484e-08
5.09195e-08
3.65976e-08
2.54738e-08
1.89492e-08
1.57451e-08
1.37287e-08
1.20958e-08
1.06308e-08
9.2873e-09
8.0584e-09
6.94324e-09
5.94044e-09
5.0469e-09
4.25799e-09
3.56774e-09
2.96895e-09
2.45402e-09
2.01494e-09
1.64371e-09
1.33233e-09
1.07307e-09
8.58735e-10
6.82819e-10
5.39518e-10
4.23654e-10
3.30658e-10
2.56562e-10
1.97953e-10
1.51906e-10
1.15955e-10
8.80511e-11
6.65199e-11
4.99984e-11
3.73916e-11
2.78252e-11
2.06029e-11
1.51814e-11
1.11304e-11
8.11556e-12
5.88283e-12
4.23929e-12
3.037e-12
2.16282e-12
1.53095e-12
1.07692e-12
7.5265e-13
5.22461e-13
3.60097e-13
2.46343e-13
1.67211e-13
1.12575e-13
7.51605e-14
4.9766e-14
3.26934e-14
2.13358e-14
1.38644e-14
9.01284e-15
5.91802e-15
3.93651e-15
2.74907e-15
2.05236e-15
1.63999e-15
1.39135e-15
1.23935e-15
1.14597e-15
1.0887e-15
1.05373e-15
1.0325e-15
1.01967e-15
1.01192e-15
1.00729e-15
1.00445e-15
1.00274e-15
1.00182e-15
1.00125e-15
1.00085e-15
1.00056e-15
1.00037e-15
1.00024e-15
1.00016e-15
1.0001e-15
1.00007e-15
1.00005e-15
1.00003e-15
1.00003e-15
1.00002e-15
1.00001e-15
1.00001e-15
1.00001e-15
1.00001e-15
1e-15
1e-15
1e-15
1e-15
1e-15
1e-15
1e-15
1e-15
1e-15
1e-15
1e-15
1e-15
1e-15
1e-15
1e-15
1e-15
1e-15
1e-15
1e-15
1e-15
1e-15
1e-15
1e-15
1e-15
1e-15
1e-15
1e-15
1e-15
1e-15
1e-15
1e-15
1e-15
1e-15
1e-15
1e-15
1e-15
1e-15
1e-15
1e-15
1e-15
1e-15
1e-15
1e-15
1e-15
1e-15
1e-15
1e-15
1e-15
1e-15
1e-15
1e-15
1e-15
1.00009e-15
1.01694e-15
2.04656e-15
1.04218e-14
4.43561e-14
1.49942e-13
3.988e-13
8.6229e-13
1.68707e-12
3.12445e-12
5.60323e-12
9.86562e-12
1.71949e-11
3.00657e-11
5.23337e-11
9.44813e-11
1.69936e-10
3.19906e-10
6.69289e-10
1.49763e-09
5.0057e-09
1.12267e-08
1.4683e-08
1.75254e-08
5.15333e-06
9.43865e-07
3.10257e-06
4.56732e-06
4.5931e-06
4.40511e-06
4.09333e-06
3.76159e-06
3.40063e-06
2.97813e-06
2.52733e-06
2.08392e-06
1.66896e-06
1.30028e-06
9.90766e-07
7.48586e-07
5.5616e-07
4.33877e-07
3.78088e-07
3.39306e-07
3.05222e-07
2.73418e-07
2.43543e-07
2.1564e-07
1.89783e-07
1.6602e-07
1.44359e-07
1.24775e-07
1.0721e-07
9.15767e-08
7.77694e-08
6.56659e-08
5.51355e-08
4.60399e-08
3.82364e-08
3.1583e-08
2.59434e-08
2.11943e-08
1.72225e-08
1.39213e-08
1.11936e-08
8.95364e-09
7.12717e-09
5.64686e-09
4.4534e-09
3.4962e-09
2.73228e-09
2.12566e-09
1.64632e-09
1.26929e-09
9.74284e-10
7.43957e-10
5.65059e-10
4.26856e-10
3.20699e-10
2.39607e-10
1.77997e-10
1.31439e-10
9.645e-11
7.03071e-11
5.08881e-11
3.65537e-11
2.60429e-11
1.83906e-11
1.28617e-11
8.90064e-12
6.08898e-12
4.11323e-12
2.74036e-12
1.79815e-12
1.1603e-12
7.36834e-13
4.54247e-13
2.85833e-13
1.8256e-13
1.17501e-13
7.57949e-14
4.88806e-14
3.1528e-14
2.03926e-14
1.32875e-14
8.77749e-15
5.92738e-15
4.1275e-15
2.99982e-15
2.27626e-15
1.8286e-15
1.59232e-15
1.43014e-15
1.29593e-15
1.19939e-15
1.13366e-15
1.08972e-15
1.06063e-15
1.04105e-15
1.02809e-15
1.02026e-15
1.01502e-15
1.01132e-15
1.00862e-15
1.00659e-15
1.00504e-15
1.00385e-15
1.00295e-15
1.00227e-15
1.00174e-15
1.00133e-15
1.00101e-15
1.00077e-15
1.00058e-15
1.00043e-15
1.00032e-15
1.00023e-15
1.00017e-15
1.00012e-15
1.00008e-15
1.00005e-15
1.00003e-15
1.00002e-15
1.00001e-15
1.00001e-15
1e-15
1e-15
1e-15
1e-15
1e-15
1e-15
1e-15
1e-15
1e-15
1e-15
1e-15
1e-15
1e-15
1e-15
1e-15
1e-15
1e-15
1e-15
1e-15
1e-15
1e-15
1e-15
1e-15
1e-15
1e-15
1e-15
1e-15
1e-15
1e-15
1e-15
1e-15
1e-15
1e-15
1e-15
1e-15
1e-15
1.00004e-15
1.00263e-15
1.0236e-15
1.11627e-15
1.45018e-15
2.2834e-15
3.84601e-15
6.67158e-15
1.16641e-14
2.03985e-14
3.56665e-14
6.2387e-14
1.10488e-13
1.95481e-13
3.62316e-13
6.74163e-13
1.30872e-12
2.82675e-12
6.80315e-12
2.40053e-11
9.01854e-11
1.80771e-10
3.1106e-10
6.8288e-06
8.28731e-07
1.53078e-06
4.57513e-06
5.14585e-06
5.14406e-06
5.0359e-06
4.88032e-06
4.72152e-06
4.55206e-06
4.37163e-06
4.181e-06
3.98131e-06
3.77396e-06
3.56056e-06
3.34293e-06
3.12289e-06
2.90255e-06
2.6838e-06
2.46851e-06
2.25847e-06
2.05533e-06
1.86055e-06
1.67536e-06
1.50072e-06
1.33734e-06
1.18566e-06
1.0459e-06
9.1805e-07
8.01911e-07
6.97126e-07
6.03193e-07
5.19525e-07
4.45455e-07
3.80275e-07
3.2325e-07
2.73612e-07
2.306e-07
1.93549e-07
1.61803e-07
1.34734e-07
1.11759e-07
9.23421e-08
7.60046e-08
6.23178e-08
5.09016e-08
4.14187e-08
3.35748e-08
2.7113e-08
2.18115e-08
1.74788e-08
1.39529e-08
1.10948e-08
8.78705e-09
6.93086e-09
5.4436e-09
4.25668e-09
3.31324e-09
2.56649e-09
1.97801e-09
1.51632e-09
1.15583e-09
8.75739e-10
6.59287e-10
4.92953e-10
3.6592e-10
2.69545e-10
1.96957e-10
1.4271e-10
1.0251e-10
7.2988e-11
5.15118e-11
3.60514e-11
2.50125e-11
1.72163e-11
1.17675e-11
7.99599e-12
5.40779e-12
3.64475e-12
2.45122e-12
1.64712e-12
1.10729e-12
7.45704e-13
5.03712e-13
3.41703e-13
2.33116e-13
1.60096e-13
1.10729e-13
7.72717e-14
5.45197e-14
3.8922e-14
2.81411e-14
2.06074e-14
1.53162e-14
1.15896e-14
8.88959e-15
6.87764e-15
5.37939e-15
4.27515e-15
3.46607e-15
2.87162e-15
2.4314e-15
2.1022e-15
1.85354e-15
1.66405e-15
1.51853e-15
1.40607e-15
1.31869e-15
1.25049e-15
1.19706e-15
1.15509e-15
1.12205e-15
1.096e-15
1.07545e-15
1.05924e-15
1.04645e-15
1.03635e-15
1.0284e-15
1.02215e-15
1.01723e-15
1.01338e-15
1.01036e-15
1.008e-15
1.00615e-15
1.00469e-15
1.00355e-15
1.00266e-15
1.00196e-15
1.00141e-15
1.00098e-15
1.00062e-15
1.00038e-15
1.00009e-15
1e-15
1e-15
1e-15
1e-15
1e-15
1e-15
1e-15
1e-15
1e-15
1e-15
1e-15
1e-15
1e-15
1e-15
1e-15
1e-15
1e-15
1e-15
1e-15
1e-15
1e-15
1e-15
1e-15
1e-15
1e-15
1e-15
1e-15
1.00018e-15
1.00114e-15
1.00417e-15
1.00999e-15
1.0206e-15
1.03956e-15
1.07347e-15
1.13493e-15
1.24829e-15
1.46833e-15
1.89972e-15
2.85502e-15
5.06917e-15
1.01815e-14
2.47429e-14
7.68353e-14
5.28422e-13
4.78287e-12
4.4064e-11
3.54883e-11
9.34255e-06
9.82628e-07
9.03607e-07
4.41766e-06
5.39268e-06
5.43509e-06
5.34713e-06
5.18684e-06
5.02496e-06
4.85137e-06
4.66484e-06
4.46589e-06
4.25555e-06
4.0353e-06
3.80694e-06
3.5726e-06
3.33454e-06
3.09523e-06
2.85711e-06
2.62257e-06
2.39382e-06
2.17287e-06
1.96143e-06
1.76093e-06
1.57243e-06
1.39671e-06
1.23421e-06
1.0851e-06
9.49274e-07
8.26441e-07
7.16115e-07
6.17658e-07
5.30341e-07
4.53362e-07
3.85891e-07
3.27077e-07
2.76098e-07
2.32165e-07
1.94476e-07
1.62279e-07
1.34901e-07
1.11726e-07
9.21969e-08
7.58107e-08
6.21179e-08
5.07218e-08
4.12741e-08
3.34721e-08
2.70528e-08
2.17909e-08
1.74936e-08
1.39964e-08
1.11603e-08
8.86844e-09
7.02308e-09
5.54245e-09
4.35878e-09
3.41578e-09
2.6672e-09
2.07509e-09
1.6084e-09
1.24192e-09
9.55186e-10
7.31691e-10
5.58156e-10
4.23939e-10
3.20553e-10
2.41249e-10
1.8068e-10
1.34626e-10
9.97716e-11
7.35214e-11
5.38516e-11
3.91914e-11
2.83264e-11
2.03221e-11
1.44628e-11
1.0203e-11
7.12891e-12
4.92834e-12
3.3668e-12
2.26953e-12
1.50678e-12
9.82905e-13
6.2814e-13
3.9179e-13
2.37056e-13
1.37961e-13
7.64785e-14
4.02271e-14
1.90131e-14
8.046e-15
3.49657e-15
1.80691e-15
1.2472e-15
1.08015e-15
1.03435e-15
1.02119e-15
1.01609e-15
1.01313e-15
1.01095e-15
1.00918e-15
1.0076e-15
1.00627e-15
1.00517e-15
1.00425e-15
1.00349e-15
1.00286e-15
1.00233e-15
1.0019e-15
1.00155e-15
1.00125e-15
1.00101e-15
1.00081e-15
1.00065e-15
1.00052e-15
1.00042e-15
1.00033e-15
1.00026e-15
1.00021e-15
1.00016e-15
1.00013e-15
1.0001e-15
1.00008e-15
1.00006e-15
1.00005e-15
1.00004e-15
1.00003e-15
1.00002e-15
1.00001e-15
1.00001e-15
1.00001e-15
1e-15
1e-15
1e-15
1e-15
1e-15
1e-15
1e-15
1e-15
1e-15
1e-15
1e-15
1e-15
1e-15
1e-15
1e-15
1e-15
1e-15
1e-15
1e-15
1e-15
1e-15
1e-15
1e-15
1.00007e-15
1.00053e-15
1.00185e-15
1.00505e-15
1.01251e-15
1.02971e-15
1.06856e-15
1.15337e-15
1.32976e-15
1.6785e-15
2.34374e-15
3.71397e-15
6.69429e-15
1.36747e-14
3.12441e-14
7.82524e-14
2.10494e-13
5.96319e-13
1.7473e-12
5.1027e-12
1.44213e-11
3.65158e-11
8.28948e-11
6.39723e-11
1.8776e-11
1.29711e-05
1.34788e-06
5.86782e-07
4.62029e-06
5.84216e-06
5.92417e-06
5.85017e-06
5.68639e-06
5.51885e-06
5.33673e-06
5.13787e-06
4.92248e-06
4.69168e-06
4.44725e-06
4.19154e-06
3.92736e-06
3.65779e-06
3.38612e-06
3.11558e-06
2.84935e-06
2.59026e-06
2.34083e-06
2.10317e-06
1.87894e-06
1.66934e-06
1.47515e-06
1.29675e-06
1.13415e-06
9.87066e-07
8.54973e-07
7.37148e-07
6.32719e-07
5.40737e-07
4.60185e-07
3.90034e-07
3.29257e-07
2.7685e-07
2.31929e-07
1.93579e-07
1.60987e-07
1.3341e-07
1.10174e-07
9.06736e-08
7.4374e-08
6.08016e-08
4.95428e-08
4.02369e-08
3.25733e-08
2.62842e-08
2.11411e-08
1.69496e-08
1.35452e-08
1.07896e-08
8.56657e-09
6.77919e-09
5.3469e-09
4.203e-09
3.29249e-09
2.57024e-09
1.9993e-09
1.54951e-09
1.19643e-09
9.20248e-10
7.05026e-10
5.37928e-10
4.08692e-10
3.09137e-10
2.32758e-10
1.74408e-10
1.30027e-10
9.64254e-11
7.11069e-11
5.2125e-11
3.79688e-11
2.74698e-11
1.97292e-11
1.40579e-11
9.93075e-12
6.94913e-12
4.81219e-12
3.29378e-12
2.22521e-12
1.48115e-12
9.69116e-13
6.21583e-13
3.89442e-13
2.36966e-13
1.38925e-13
7.7799e-14
4.14181e-14
2.01713e-14
8.65877e-15
3.76261e-15
1.89086e-15
1.25619e-15
1.06591e-15
1.01528e-15
1.00324e-15
1.00065e-15
1.00015e-15
1.00006e-15
1.00004e-15
1.00003e-15
1.00003e-15
1.00002e-15
1.00002e-15
1.00002e-15
1.00001e-15
1.00001e-15
1.00001e-15
1.00001e-15
1.00001e-15
1.00001e-15
1e-15
1e-15
1e-15
1e-15
1e-15
1e-15
1e-15
1e-15
1e-15
1e-15
1e-15
1e-15
1e-15
1e-15
1e-15
1e-15
1e-15
1e-15
1e-15
1e-15
1e-15
1e-15
1e-15
1e-15
1e-15
1e-15
1e-15
1e-15
1e-15
1e-15
1e-15
1e-15
1e-15
1e-15
1e-15
1e-15
1e-15
1e-15
1e-15
1e-15
1e-15
1e-15
1e-15
1.00038e-15
1.00236e-15
1.00792e-15
1.02038e-15
1.04597e-15
1.09606e-15
1.18561e-15
1.34551e-15
1.63912e-15
2.18941e-15
3.31799e-15
5.76605e-15
1.1465e-14
2.5637e-14
6.28622e-14
1.64867e-13
4.51075e-13
1.25845e-12
3.4197e-12
8.77013e-12
2.3724e-11
3.46147e-11
2.22501e-11
5.75576e-12
1.8105e-05
1.90788e-06
4.79233e-07
5.0111e-06
6.44463e-06
6.57224e-06
6.51618e-06
6.35783e-06
6.18884e-06
6.00064e-06
5.78899e-06
5.55368e-06
5.29595e-06
5.01821e-06
4.72379e-06
4.41678e-06
4.10167e-06
3.7832e-06
3.46593e-06
3.15427e-06
2.85203e-06
2.56252e-06
2.28835e-06
2.03148e-06
1.79321e-06
1.57426e-06
1.37479e-06
1.19457e-06
1.03298e-06
8.89125e-07
7.61903e-07
6.50094e-07
5.52418e-07
4.67558e-07
3.9421e-07
3.31083e-07
2.77106e-07
2.31119e-07
1.92105e-07
1.59144e-07
1.31407e-07
1.08156e-07
8.87374e-08
7.25782e-08
5.91782e-08
4.81046e-08
3.89839e-08
3.14966e-08
2.53702e-08
2.03734e-08
1.63109e-08
1.30184e-08
1.03584e-08
8.21635e-09
6.49667e-09
5.12047e-09
4.02266e-09
3.14975e-09
2.45791e-09
1.91141e-09
1.48114e-09
1.14354e-09
8.79577e-10
6.73925e-10
5.14279e-10
3.90816e-10
2.95707e-10
2.22734e-10
1.66975e-10
1.24554e-10
9.24256e-11
6.82064e-11
5.00396e-11
3.64831e-11
2.64223e-11
1.89989e-11
1.35554e-11
9.59002e-12
6.72214e-12
4.66405e-12
3.19962e-12
2.16729e-12
1.4471e-12
9.50377e-13
6.1236e-13
3.85837e-13
2.36485e-13
1.39948e-13
7.94331e-14
4.29459e-14
2.16716e-14
9.48316e-15
4.16377e-15
2.05879e-15
1.3163e-15
1.08441e-15
1.0202e-15
1.00436e-15
1.00086e-15
1.00015e-15
1.00003e-15
1e-15
1e-15
1e-15
1e-15
1e-15
1e-15
1e-15
1e-15
1e-15
1e-15
1e-15
1e-15
1e-15
1e-15
1e-15
1e-15
1e-15
1e-15
1e-15
1e-15
1e-15
1e-15
1e-15
1e-15
1e-15
1e-15
1e-15
1e-15
1e-15
1e-15
1e-15
1e-15
1e-15
1e-15
1e-15
1e-15
1e-15
1e-15
1e-15
1e-15
1e-15
1e-15
1e-15
1e-15
1e-15
1e-15
1e-15
1e-15
1e-15
1e-15
1e-15
1e-15
1e-15
1e-15
1e-15
1.00009e-15
1.00153e-15
1.00602e-15
1.01639e-15
1.03776e-15
1.08116e-15
1.15974e-15
1.29943e-15
1.55312e-15
2.02732e-15
2.97176e-15
4.9839e-15
9.5624e-15
2.06391e-14
4.88102e-14
1.22975e-13
3.20427e-13
8.38645e-13
2.09498e-12
4.93923e-12
1.15116e-11
1.13604e-11
6.18675e-12
1.6869e-12
2.52672e-05
2.72776e-06
4.69062e-07
5.53671e-06
7.23188e-06
7.43383e-06
7.41248e-06
7.27915e-06
7.11864e-06
6.93083e-06
6.70732e-06
6.44712e-06
6.15196e-06
5.82558e-06
5.47337e-06
5.10184e-06
4.71811e-06
4.32948e-06
3.94283e-06
3.56447e-06
3.19976e-06
2.85307e-06
2.52764e-06
2.22568e-06
1.94848e-06
1.69646e-06
1.46939e-06
1.2665e-06
1.08656e-06
9.28085e-07
7.89404e-07
6.68773e-07
5.6443e-07
4.74623e-07
3.97607e-07
3.32029e-07
2.76389e-07
2.29338e-07
1.89711e-07
1.5646e-07
1.28657e-07
1.05488e-07
8.62444e-08
7.03115e-08
5.71611e-08
4.63401e-08
3.74626e-08
3.02012e-08
2.42787e-08
1.94626e-08
1.55575e-08
1.24001e-08
9.8547e-09
7.8087e-09
6.16892e-09
4.8586e-09
3.81467e-09
2.9855e-09
2.32893e-09
1.81067e-09
1.4029e-09
1.0831e-09
8.33145e-10
6.38447e-10
4.87327e-10
3.70463e-10
2.80426e-10
2.11328e-10
1.58519e-10
1.18327e-10
8.78743e-11
6.49055e-11
4.76654e-11
3.4791e-11
2.52283e-11
1.81658e-11
1.29814e-11
9.20037e-12
6.46211e-12
4.49407e-12
3.09129e-12
2.10049e-12
1.40768e-12
9.28578e-13
6.01546e-13
3.81551e-13
2.35858e-13
1.41098e-13
8.13355e-14
4.47788e-14
2.34147e-14
1.07642e-14
4.77381e-15
2.3119e-15
1.40755e-15
1.11308e-15
1.02811e-15
1.0063e-15
1.00128e-15
1.00024e-15
1.00004e-15
1.00001e-15
1e-15
1e-15
1e-15
1e-15
1e-15
1e-15
1e-15
1e-15
1e-15
1e-15
1e-15
1e-15
1e-15
1e-15
1e-15
1e-15
1e-15
1e-15
1e-15
1e-15
1e-15
1e-15
1e-15
1e-15
1e-15
1e-15
1e-15
1e-15
1e-15
1e-15
1e-15
1e-15
1e-15
1e-15
1e-15
1e-15
1e-15
1e-15
1e-15
1e-15
1e-15
1e-15
1e-15
1e-15
1e-15
1e-15
1e-15
1e-15
1e-15
1e-15
1e-15
1e-15
1e-15
1e-15
1e-15
1.00076e-15
1.00383e-15
1.01173e-15
1.0288e-15
1.06353e-15
1.12957e-15
1.24729e-15
1.45917e-15
1.85264e-15
2.60929e-15
4.1907e-15
7.68334e-15
1.58459e-14
3.57996e-14
8.58305e-14
2.10895e-13
5.12475e-13
1.15967e-12
3.08431e-12
3.7189e-12
2.60754e-12
9.06777e-13
2.45008e-13
3.51461e-05
3.90578e-06
5.23912e-07
6.20878e-06
8.25461e-06
8.58719e-06
8.63842e-06
8.57081e-06
8.44395e-06
8.27252e-06
8.04164e-06
7.74922e-06
7.39844e-06
6.9963e-06
6.55258e-06
6.07881e-06
5.58712e-06
5.08945e-06
4.59665e-06
4.1181e-06
3.66132e-06
3.23204e-06
2.83411e-06
2.46976e-06
2.13981e-06
1.84399e-06
1.58116e-06
1.34952e-06
1.14681e-06
9.70585e-07
8.18328e-07
6.875e-07
5.75622e-07
4.80174e-07
3.9947e-07
3.31418e-07
2.74155e-07
2.26165e-07
1.86078e-07
1.52699e-07
1.24986e-07
1.02045e-07
8.31058e-08
6.75131e-08
5.47094e-08
4.42234e-08
3.56574e-08
2.86782e-08
2.3006e-08
1.8408e-08
1.46903e-08
1.16922e-08
9.28068e-09
7.34613e-09
5.79838e-09
4.56348e-09
3.58092e-09
2.80135e-09
2.18463e-09
1.69818e-09
1.31566e-09
1.0158e-09
7.815e-10
5.99027e-10
4.57404e-10
3.47873e-10
2.63468e-10
1.98679e-10
1.49144e-10
1.11425e-10
8.28268e-11
6.12424e-11
4.50289e-11
3.29106e-11
2.39005e-11
1.72384e-11
1.23417e-11
8.76543e-12
6.17133e-12
4.30357e-12
2.96957e-12
2.02518e-12
1.36307e-12
9.03777e-13
5.89139e-13
3.7658e-13
2.35055e-13
1.42396e-13
8.3459e-14
4.70341e-14
2.52574e-14
1.23632e-14
5.66789e-15
2.74622e-15
1.58559e-15
1.1748e-15
1.04645e-15
1.01104e-15
1.00236e-15
1.00046e-15
1.00008e-15
1.00001e-15
1e-15
1e-15
1e-15
1e-15
1e-15
1e-15
1e-15
1e-15
1e-15
1e-15
1e-15
1e-15
1e-15
1e-15
1e-15
1e-15
1e-15
1e-15
1e-15
1e-15
1e-15
1e-15
1e-15
1e-15
1e-15
1e-15
1e-15
1e-15
1e-15
1e-15
1e-15
1e-15
1e-15
1e-15
1e-15
1e-15
1e-15
1e-15
1e-15
1e-15
1e-15
1e-15
1e-15
1e-15
1e-15
1e-15
1e-15
1e-15
1e-15
1e-15
1e-15
1e-15
1e-15
1e-15
1e-15
1.00005e-15
1.00175e-15
1.00707e-15
1.01939e-15
1.04478e-15
1.09622e-15
1.19037e-15
1.35887e-15
1.66679e-15
2.24623e-15
3.41491e-15
5.89969e-15
1.1467e-14
2.44062e-14
5.48831e-14
1.25114e-13
2.76645e-13
6.27239e-13
1.13222e-12
8.61659e-13
3.47162e-13
1.07719e-13
2.87865e-14
4.85918e-05
5.5487e-06
6.51079e-07
7.05649e-06
9.5998e-06
1.01725e-05
1.03918e-05
1.04609e-05
1.04349e-05
1.03141e-05
1.00843e-05
9.74311e-06
9.29813e-06
8.76467e-06
8.16289e-06
7.51495e-06
6.84297e-06
6.16737e-06
5.5056e-06
4.8717e-06
4.27601e-06
3.72544e-06
3.2239e-06
2.77274e-06
2.37146e-06
2.01805e-06
1.7094e-06
1.44184e-06
1.21147e-06
1.01432e-06
8.4652e-07
7.04272e-07
5.83845e-07
4.83083e-07
3.98794e-07
3.28367e-07
2.6975e-07
2.21104e-07
1.80839e-07
1.47592e-07
1.20204e-07
9.76932e-08
7.92316e-08
6.41233e-08
5.17856e-08
4.17318e-08
3.35562e-08
2.69224e-08
2.15507e-08
1.72109e-08
1.37123e-08
1.08982e-08
8.63997e-09
6.83204e-09
5.38813e-09
4.23782e-09
3.32372e-09
2.59925e-09
2.0266e-09
1.57523e-09
1.22047e-09
9.4247e-10
7.2529e-10
5.56158e-10
4.24884e-10
3.23338e-10
2.45062e-10
1.84951e-10
1.38966e-10
1.03929e-10
7.73454e-11
5.72635e-11
4.21634e-11
3.08649e-11
2.24542e-11
1.6227e-11
1.16431e-11
8.28961e-12
5.85255e-12
4.09421e-12
2.8354e-12
1.94186e-12
1.3135e-12
8.76062e-13
5.75156e-13
3.7088e-13
2.34042e-13
1.4378e-13
8.58134e-14
4.96697e-14
2.74111e-14
1.43542e-14
6.83084e-15
3.35511e-15
1.85941e-15
1.27964e-15
1.08088e-15
1.02085e-15
1.00482e-15
1.00101e-15
1.00019e-15
1.00003e-15
1.00001e-15
1e-15
1e-15
1e-15
1e-15
1e-15
1e-15
1e-15
1e-15
1e-15
1e-15
1e-15
1e-15
1e-15
1e-15
1e-15
1e-15
1e-15
1e-15
1e-15
1e-15
1e-15
1e-15
1e-15
1e-15
1e-15
1e-15
1e-15
1e-15
1e-15
1e-15
1e-15
1e-15
1e-15
1e-15
1e-15
1e-15
1e-15
1e-15
1e-15
1e-15
1e-15
1e-15
1e-15
1e-15
1e-15
1e-15
1e-15
1e-15
1e-15
1e-15
1e-15
1e-15
1e-15
1e-15
1e-15
1.00027e-15
1.00281e-15
1.0103e-15
1.0271e-15
1.06114e-15
1.12971e-15
1.25401e-15
1.47806e-15
1.89243e-15
2.68271e-15
4.29405e-15
7.69815e-15
1.5081e-14
3.11156e-14
6.38093e-14
1.35599e-13
2.43592e-13
2.22424e-13
1.16538e-13
3.82723e-14
1.07556e-14
3.58366e-15
6.64918e-05
7.73109e-06
8.93353e-07
8.19561e-06
1.14625e-05
1.24963e-05
1.30894e-05
1.34735e-05
1.36747e-05
1.36827e-05
1.34672e-05
1.30215e-05
1.23851e-05
1.15914e-05
1.06864e-05
9.71542e-06
8.72058e-06
7.73762e-06
6.79438e-06
5.91088e-06
5.09983e-06
4.36776e-06
3.71637e-06
3.14398e-06
2.64639e-06
2.21766e-06
1.851e-06
1.53953e-06
1.27655e-06
1.05558e-06
8.7047e-07
7.15535e-07
5.87697e-07
4.81777e-07
3.94139e-07
3.21878e-07
2.6243e-07
2.13618e-07
1.7361e-07
1.40872e-07
1.14127e-07
9.2311e-08
7.4543e-08
6.00942e-08
4.83625e-08
3.8852e-08
3.11543e-08
2.49344e-08
1.99169e-08
1.58767e-08
1.26292e-08
1.00239e-08
7.93797e-09
6.27123e-09
4.94232e-09
3.88512e-09
3.046e-09
2.38157e-09
1.85677e-09
1.44334e-09
1.11852e-09
8.64037e-10
6.65235e-10
5.10401e-10
3.90197e-10
2.97179e-10
2.25443e-10
1.70319e-10
1.2812e-10
9.594e-11
7.14996e-11
5.30178e-11
3.91041e-11
2.86788e-11
2.09068e-11
1.51434e-11
1.08933e-11
7.77793e-12
5.50896e-12
3.86792e-12
2.6899e-12
1.85115e-12
1.25927e-12
8.45587e-13
5.59689e-13
3.64497e-13
2.32845e-13
1.45288e-13
8.83038e-14
5.27412e-14
2.99173e-14
1.67023e-14
9.06029e-15
4.6517e-15
2.49432e-15
1.54258e-15
1.17416e-15
1.0496e-15
1.01262e-15
1.00289e-15
1.0006e-15
1.00011e-15
1.00002e-15
1e-15
1e-15
1e-15
1e-15
1e-15
1e-15
1e-15
1e-15
1e-15
1e-15
1e-15
1e-15
1e-15
1e-15
1e-15
1e-15
1e-15
1e-15
1e-15
1e-15
1e-15
1e-15
1e-15
1e-15
1e-15
1e-15
1e-15
1e-15
1e-15
1e-15
1e-15
1e-15
1e-15
1e-15
1e-15
1e-15
1e-15
1e-15
1e-15
1e-15
1e-15
1e-15
1e-15
1e-15
1e-15
1e-15
1e-15
1e-15
1e-15
1e-15
1e-15
1e-15
1e-15
1e-15
1e-15
1e-15
1.00014e-15
1.00283e-15
1.01103e-15
1.02983e-15
1.06843e-15
1.14626e-15
1.29015e-15
1.54999e-15
2.02474e-15
2.93833e-15
4.65584e-15
8.34868e-15
1.43755e-14
2.84443e-14
4.114e-14
3.14779e-14
1.63667e-14
7.29587e-15
3.04134e-15
1.51952e-15
1.1689e-15
8.94291e-05
1.05107e-05
1.85243e-06
1.06826e-05
1.46464e-05
1.64919e-05
1.78347e-05
1.89092e-05
1.95986e-05
1.98429e-05
1.9622e-05
1.8895e-05
1.77961e-05
1.64202e-05
1.48778e-05
1.32594e-05
1.1647e-05
1.0103e-05
8.66941e-06
7.37025e-06
6.21618e-06
5.20776e-06
4.33742e-06
3.59456e-06
2.9666e-06
2.43994e-06
2.00104e-06
1.63697e-06
1.33677e-06
1.08928e-06
8.85398e-07
7.20025e-07
5.84727e-07
4.74235e-07
3.84244e-07
3.11045e-07
2.51565e-07
2.03278e-07
1.6411e-07
1.32363e-07
1.06651e-07
8.58432e-08
6.9017e-08
5.54221e-08
4.44479e-08
3.5598e-08
2.84684e-08
2.27316e-08
1.81208e-08
1.44201e-08
1.1454e-08
9.0804e-09
7.18395e-09
5.67137e-09
4.46718e-09
3.51039e-09
2.75173e-09
2.15146e-09
1.6776e-09
1.30444e-09
1.0113e-09
7.81634e-10
6.02196e-10
4.624e-10
3.53823e-10
2.69754e-10
2.04874e-10
1.54978e-10
1.16743e-10
8.75547e-11
6.53596e-11
4.8553e-11
3.58825e-11
2.63736e-11
1.92722e-11
1.39959e-11
1.00971e-11
7.23266e-12
5.1414e-12
3.62456e-12
2.5321e-12
1.75155e-12
1.19882e-12
8.10998e-13
5.41607e-13
3.56596e-13
2.30855e-13
1.46409e-13
9.09836e-14
5.57564e-14
3.25204e-14
1.9126e-14
1.18045e-14
6.17989e-15
3.17941e-15
1.79605e-15
1.25319e-15
1.07075e-15
1.01755e-15
1.0039e-15
1.00078e-15
1.00014e-15
1.00002e-15
1e-15
1e-15
1e-15
1e-15
1e-15
1e-15
1e-15
1e-15
1e-15
1e-15
1e-15
1e-15
1e-15
1e-15
1e-15
1e-15
1e-15
1e-15
1e-15
1e-15
1e-15
1e-15
1e-15
1e-15
1e-15
1e-15
1e-15
1e-15
1e-15
1e-15
1e-15
1e-15
1e-15
1e-15
1e-15
1e-15
1e-15
1e-15
1e-15
1e-15
1e-15
1e-15
1e-15
1e-15
1e-15
1e-15
1.00001e-15
1.00002e-15
1.00002e-15
1.00003e-15
1.00003e-15
1.00003e-15
1.00003e-15
1.00002e-15
1.00002e-15
1.00002e-15
1.00001e-15
1.00002e-15
1.00044e-15
1.00511e-15
1.01902e-15
1.05029e-15
1.11442e-15
1.24095e-15
1.45615e-15
1.85311e-15
2.43702e-15
3.56045e-15
4.96562e-15
4.63894e-15
3.45148e-15
2.31152e-15
1.59355e-15
1.22621e-15
1.07273e-15
1.01827e-15
1.00753e-15
0.000116709
1.52842e-05
9.57389e-06
2.4304e-05
2.46616e-05
2.6778e-05
2.86095e-05
3.065e-05
3.19845e-05
3.24021e-05
3.18092e-05
3.01771e-05
2.78623e-05
2.51001e-05
2.21652e-05
1.92059e-05
1.63698e-05
1.37701e-05
1.14603e-05
9.45544e-06
7.74654e-06
6.32295e-06
5.13179e-06
4.14749e-06
3.34193e-06
2.68715e-06
2.15838e-06
1.73171e-06
1.38553e-06
1.10932e-06
8.90366e-07
7.14235e-07
5.72807e-07
4.59389e-07
3.68448e-07
2.95517e-07
2.37019e-07
1.90087e-07
1.52425e-07
1.22194e-07