/*--------------------------------*- C++ -*----------------------------------*\
| =========                 |                                                 |
| \\      /  F ield         | OpenFOAM: The Open Source CFD Toolbox           |
|  \\    /   O peration     | Version:  2112                                  |
|   \\  /    A nd           | Website:  www.openfoam.com                      |
|    \\/     M anipulation  |                                                 |
\*---------------------------------------------------------------------------*/
FoamFile
{
    version     2.0;
    format      ascii;
    arch        "LSB;label=32;scalar=64";
    class       volScalarField;
    location    "0.12";
    object      omegaU_0;
}
// * * * * * * * * * * * * * * * * * * * * * * * * * * * * * * * * * * * * * //

dimensions      [0 0 -1 0 0 0 0];

internalField   nonuniform List<scalar> 
12225
(
56067
79727
87591.5
88872.3
87539.5
85161.2
82359.8
79413.4
76471
73619.6
70905.4
68342.1
65916.4
63594.2
61326.6
59067.1
56711.6
54038.3
3385.8
7853.47
11995.6
15531.5
18415.9
20718.9
22549.3
24005.2
25162.7
26079
26798.5
27357.6
27787.6
28116.5
28370.6
28580
28818.2
29187.1
262.191
642.969
1240.32
2025.95
2933.77
3894.38
4850.64
5762.35
6608.22
7380.76
8085.74
8738.62
9360.93
9977.43
10614
11300.7
12070.8
12958.9
138.167
164.44
218
308.605
443.447
624.577
847.814
1105.61
1387.59
1685.42
1993.3
2309.09
2634.68
2975.86
3342.28
3747.46
4210.07
4747.4
132.289
134.04
138.58
147.729
163.691
188.444
223.3
269.002
325.376
392.199
469.366
557.309
657.354
771.996
905.252
1063.49
1255.57
1489.87
131.971
131.98
132.242
133.017
134.678
137.644
142.329
149.114
158.317
170.225
185.158
203.569
226.152
253.968
288.625
332.633
389.342
462.769
131.942
131.832
131.738
131.69
131.74
131.955
132.418
133.221
134.468
136.267
138.745
142.067
146.46
152.252
159.919
170.102
183.855
202.592
131.93
131.809
131.686
131.567
131.46
131.372
131.313
131.301
131.356
131.506
131.79
132.257
132.973
134.03
135.537
137.666
140.698
145.019
131.922
131.797
131.67
131.545
131.424
131.306
131.193
131.087
130.992
130.916
130.872
130.876
130.952
131.127
131.437
131.935
132.695
133.812
131.916
131.788
131.661
131.535
131.413
131.293
131.176
131.062
130.954
130.855
130.774
130.719
130.704
130.744
130.858
131.07
131.409
131.903
131.912
131.782
131.654
131.529
131.407
131.289
131.174
131.062
130.957
130.861
130.782
130.727
130.706
130.731
130.818
130.983
131.244
131.617
131.908
131.777
131.649
131.524
131.404
131.288
131.176
131.068
130.968
130.879
130.806
130.757
130.741
130.769
130.853
131.007
131.247
131.583
131.906
131.772
131.644
131.52
131.402
131.288
131.179
131.077
130.983
130.9
130.835
130.794
130.784
130.815
130.899
131.047
131.273
131.584
131.903
131.768
131.639
131.516
131.399
131.289
131.184
131.088
131
130.926
130.87
130.837
130.834
130.869
130.953
131.094
131.304
131.589
131.9
131.763
131.634
131.512
131.397
131.29
131.19
131.1
131.02
130.955
130.908
130.884
130.889
130.928
131.011
131.144
131.337
131.592
131.898
131.759
131.628
131.507
131.394
131.29
131.196
131.112
131.042
130.986
130.949
130.934
130.946
130.99
131.071
131.195
131.369
131.593
131.895
131.754
131.623
131.501
131.39
131.29
131.201
131.125
131.063
131.016
130.989
130.983
131.002
131.049
131.128
131.243
131.397
131.59
131.892
131.749
131.616
131.495
131.386
131.29
131.207
131.138
131.085
131.048
131.03
131.033
131.058
131.107
131.183
131.286
131.42
131.582
131.89
131.744
131.61
131.49
131.384
131.292
131.216
131.155
131.11
131.084
131.075
131.085
131.115
131.165
131.236
131.328
131.442
131.575
131.888
131.741
131.608
131.49
131.388
131.301
131.231
131.178
131.143
131.124
131.123
131.139
131.173
131.224
131.291
131.374
131.473
131.585
131.887
131.741
131.61
131.496
131.398
131.317
131.254
131.209
131.181
131.171
131.177
131.199
131.237
131.29
131.356
131.434
131.524
131.624
131.888
131.744
131.617
131.507
131.415
131.34
131.285
131.248
131.228
131.226
131.239
131.268
131.311
131.367
131.434
131.511
131.596
131.688
131.891
131.751
131.628
131.524
131.438
131.371
131.324
131.296
131.285
131.291
131.314
131.35
131.4
131.461
131.531
131.609
131.693
131.782
131.895
131.761
131.645
131.547
131.469
131.413
131.378
131.364
131.369
131.392
131.432
131.487
131.554
131.632
131.718
131.809
131.903
132
131.903
131.779
131.678
131.602
131.558
131.555
131.597
131.688
131.827
132.015
132.248
132.522
132.83
133.165
133.519
133.885
134.257
134.63
131.926
131.88
131.99
132.357
133.061
134.19
135.808
137.928
140.556
143.671
147.22
151.132
155.324
159.708
164.202
168.735
173.252
177.713
132.565
134.962
140.819
151.374
167.207
188.825
216.002
248.422
285.448
326.19
369.609
414.626
460.219
505.492
549.727
592.412
633.206
671.931
160.262
239.106
378.374
574.132
820.308
1104.28
1409.74
1725.24
2040.95
2348.74
2642.33
2917.34
3171.15
3402.6
3611.74
3799.71
3968.24
4120.42
1384.15
3384.63
5488.99
7491.1
9283.17
10830.6
12148.6
13263.8
14204.9
14998.6
15667.8
16232
16707.4
17107.2
17442.7
17723.9
17959.6
18158.2
36869.4
56006.8
64547.5
67795.8
68589.4
68270.4
67450.3
66409.8
65284.1
64142.9
63024.8
61952.5
60940.3
59996.8
59126.6
58331.4
57607.9
56957.3
1816.18
2391.14
2958.61
3423.29
3813.94
4159.99
4481.91
4797.73
5121.08
5461.34
5824.35
6212.89
6627.42
7066.78
7528.6
8009.71
8506.63
9015.93
9534.67
10062
10579.7
11031.6
11410.8
11709.1
11917.5
12025.3
12021.7
11893.3
11624.7
11206.1
10636.1
9919.43
9070.8
8117.53
7099.57
6064.47
5057.8
4116.9
3278.78
2565.36
2120.54
1949.72
1909.65
1932.61
1986.61
2057.54
2132.74
2216.93
2317.94
2446.25
2594.69
2763.99
2960.11
3185.06
3438.71
3709.31
3946.67
4043.14
3996.74
3859.26
3679.34
3483.65
3324.56
3352.82
3842.43
5093.21
7402.72
10000.9
12221.3
14347.7
16321.6
18103.2
19670.6
21015.5
22139.3
23052.5
23764.7
24286.9
24629.1
24801.2
24813.4
24673.2
24384.3
23948.2
23363.1
22632.4
21847.3
21005.5
20107.6
19156.8
18158.1
17117.2
16040.4
14934.6
13807.4
12667.6
11525.3
10391.5
9278.05
8197.27
7166.21
6203.1
5326.45
4555.15
3907.88
3402.69
3056.91
2888.1
2912.4
3142.32
3505.35
3998.32
4607.91
5313.21
6091.01
6919.72
7774.58
8629.86
9463.59
10253.9
10978.6
11617.5
12155.1
12575.8
12831.7
12944.6
12940.9
12843.9
12671.6
12438.5
12157.3
11839.4
11494.9
11133
10761.8
10388.6
10018.8
9654.89
9297
8944.02
8595.21
8252.76
7924.93
7628.47
7387.6
7226.66
7156.39
7164.25
7244.06
7353.28
7385.11
7198.22
6757.67
6220.51
6079.64
6947.09
8601.28
9974.91
10935.8
11368.6
11255.9
10629.7
9561.66
8218.58
6835.61
5540.52
4481.28
3809.43
3669.21
4206.67
5188.77
6523.13
8109.09
9822.06
11546.6
13189.5
14686.4
15972
17090.3
17653.9
4809.62
4923.84
4992.37
4920.63
4769.1
4581.3
4383.38
4189.02
4004.44
3832.67
3675.11
3531.99
3402.97
3287.41
3184.55
3093.55
3013.66
2945.34
2893.4
2858.38
2856.88
2945.01
3113.74
3355.74
3658.77
4006.22
4377.78
4751.36
5105.88
5423.61
5684.28
5869.07
5963.13
5956.87
5846.71
5634.83
5328.41
4940.12
4490.67
4009.68
3543.13
3142.29
2831.56
2600.31
2419.29
2285.41
2198.51
2136.77
2091.96
2061.7
2043.78
2032.11
2016.97
1989.51
1948.06
1904.25
1894.62
1999.62
2197.32
2532.09
3163.71
4230.8
5769.24
7419.35
8461.87
9375.17
10142.5
10689.5
10998.9
11100.8
11007.5
10739.2
10322.1
9787.11
9165.17
8467.17
7719.62
6954.54
6201.68
5490.52
4846.22
4288.71
3834.78
3497.35
3286.5
3201.15
3124.59
3054.81
2990.52
2930.73
2874.68
2821.78
2771.58
2723.78
2678.2
2634.94
2594.54
2558.43
2530.26
2513.96
2499.59
2483.73
2466.14
2446.58
2424.78
2400.46
2373.01
2341.41
2303.54
2262.19
2224.01
2187.41
2156.82
2142.24
2168.29
2229.52
2308.17
2406.54
2530.05
2682.78
2867.08
3083.6
3331.91
3615.96
3949.33
4278.61
4573.14
4822.17
5021.19
5168.47
5264.11
5309.17
5305.55
5256.07
5164.79
5037.4
4880.33
4701.11
4507.3
4306.81
4107.82
3916.64
3735.9
3563.46
3393.55
3225.06
3074.35
2974.95
2937.33
2965.4
3068.52
3312.97
3764.39
4423.55
5252.87
5929.33
5964.4
5550.34
4916.91
4214.17
3520.79
2997.27
2734.57
2670.59
2677.63
2714.56
2751.76
2783.31
2801.97
2806.11
2817.68
2913.97
3125.39
3404.04
3759.26
4197.32
4721.32
5339.47
6085.82
7030.87
8425.48
7079.09
6235.3
5511.33
4903.29
4405.68
4003.34
3676.11
3407.87
3185.92
3000.73
2845.31
2714.4
2603.92
2510.59
2431.72
2365.07
2308.82
2261.6
2222.31
2190.17
2168.92
2164.56
2182.96
2232.5
2320.95
2453.53
2631.09
2849.11
3098.19
3364.25
3630.1
3877.39
4088.57
4248.22
4343.83
4366.19
4310.29
4177.04
3975.29
3723.92
3450.83
3184.17
2942.7
2733.52
2545.55
2371.48
2223.09
2106.34
2025.71
1984.2
1977.48
1991.17
2005.72
2011.84
2024.18
2187.01
2595.95
3349.43
4581.05
6149.33
7039.61
7719.25
8176.24
8386.71
8421.77
8292.94
8011.42
7601.19
7091.12
6509.77
5888.75
5261.04
4651.86
4087.87
3589.23
3171.93
2843.89
2605.49
2445.29
2349.17
2302.86
2292.55
2306.21
2331.46
2356.11
2379.14
2400.2
2418.94
2435.12
2448.59
2459.3
2467.23
2472.38
2474.84
2474.81
2472.55
2468.26
2462.13
2454.24
2444.51
2432.81
2418.85
2402.22
2382.38
2358.53
2329.24
2292.68
2246.52
2199.45
2150.94
2099.26
2045.3
1989.4
1931.59
1871.51
1809.37
1746.72
1685.5
1627.44
1574.22
1527.73
1490.68
1469.73
1486.73
1569.44
1702.12
1869.71
2057.33
2250.98
2438.72
2611.07
2759.91
2878.81
2963.23
3010.7
3021.38
2999.68
2954.31
2892.76
2818.21
2731.31
2630.1
2510.25
2368.26
2209
2055.01
1948.33
1923.37
2006.73
2233.93
2661.37
3326.16
4186.5
4937.78
4972.56
4392.25
3693.56
3089.84
2671.08
2446.1
2369.05
2367.77
2388.94
2420.47
2456.59
2488.46
2505.21
2492.78
2455.62
2403.23
2344.08
2286.01
2233.95
2193.28
2169.56
2178.51
2237.84
2363.85
2697.33
11968.7
8450.54
6539.15
5249.41
4369.62
3763.18
3333.34
3017.74
2777.61
2588.82
2436.95
2313.07
2211.44
2128.05
2059.85
2004.29
1959.2
1922.69
1893.19
1869.4
1850.31
1835.36
1828.98
1831.38
1844.47
1871.72
1917.94
1988.61
2088.52
2220.16
2382.25
2568.93
2770.06
2972.47
3161.67
3323.26
3444.14
3513.5
3524.24
3474.66
3370.02
3222.67
3049.25
2865.74
2683.82
2510.92
2351.46
2210.8
2099.82
2032.31
2022.81
2075.46
2173.34
2297.94
2485.62
2882.13
3476.4
4609.49
5645.67
6438
6976.22
7199.57
7235.46
7111.44
6854.01
6496.19
6059.06
5564.81
5038.93
4508.34
4000.09
3539.19
3144.91
2827.52
2589.23
2424.33
2322.01
2268.83
2251.14
2256.59
2275.7
2301.69
2330.11
2358.04
2384.15
2408.03
2429.37
2447.91
2463.39
2475.53
2484.13
2489.2
2490.85
2489.23
2484.59
2477.24
2467.54
2455.86
2442.55
2427.86
2411.92
2394.66
2375.77
2354.73
2330.93
2303.38
2270.46
2231.18
2187.55
2142.95
2095.32
2045.44
1993.89
1940.62
1885.16
1827.24
1766.81
1704.27
1640.57
1576.63
1513.33
1451.67
1392.72
1337.7
1288.65
1250
1230.88
1235.07
1264.62
1320.4
1399.99
1496.7
1603.53
1713.14
1818.39
1913.12
1992.45
2053.65
2096.59
2122.04
2129.58
2117.71
2084.14
2026.49
1944.64
1845.21
1745.94
1677.03
1677.61
1785.62
2050.3
2527.4
3242.67
4077.2
4571.57
4193.28
3480.65
2883.19
2499.87
2302.13
2215.49
2177.6
2160.16
2158.87
2170.33
2189.56
2208.49
2214.77
2197.57
2158.63
2102.12
2035.31
1965.11
1897.83
1837.94
1788.41
1751.92
1731.05
1728.52
1764.42
15249.3
9079.82
6161.51
4560.25
3663.39
3137.97
2805
2573.44
2398.53
2258.6
2143.01
2046.66
1966.87
1901.86
1850.02
1809.61
1778.77
1755.62
1738.35
1725.38
1715.33
1707.18
1702.17
1703.17
1710.58
1725.37
1749.26
1784.95
1836.04
1906.38
1998.99
2114.72
2250.99
2401.46
2556.55
2704.69
2833.8
2932.64
2992.22
3007.16
2976.92
2906.28
2804.29
2681.98
2550.01
2417.86
2296.23
2194.26
2125.95
2116.42
2193.51
2375.87
2623.27
3086.04
3721.08
4559.13
5216.96
5863.85
6291.29
6486.58
6479.31
6310.06
6036.58
5686.35
5282.16
4844.47
4391.53
3943.59
3522.33
3147.96
2835.85
2593.66
2420.56
2308.76
2246.61
2221.34
2221.3
2237.03
2261.59
2290.29
2320.26
2349.78
2377.82
2403.47
2426.72
2447.19
2464.48
2478.26
2488.43
2494.96
2497.85
2497.17
2493.05
2485.7
2475.38
2462.43
2447.26
2430.36
2412.21
2393.23
2373.55
2353.25
2332.01
2309.05
2284.15
2255.41
2221.53
2184.16
2144.07
2100.29
2053.4
2004.17
1953.33
1901.26
1848.11
1793.97
1738.59
1681.59
1623.01
1563.13
1502.46
1441.72
1381.84
1323.81
1268.63
1217.35
1171.83
1134.67
1108.3
1095.24
1097.35
1115.14
1147.96
1194.34
1251.58
1315.44
1381.54
1445.8
1504.94
1556.55
1598.2
1626.63
1638.02
1629.15
1599.4
1553.87
1506.76
1483.5
1521.02
1665.76
1969.13
2479.1
3198.01
3943.05
4205.59
3650.3
2954.86
2504.78
2263.89
2142.3
2070.49
2020.57
1988.92
1975
1976.04
1987.46
2001.52
2005.7
1991.02
1954.85
1899.68
1832.08
1760.41
1692.01
1631.74
1582.29
1544.58
1518.45
1503.6
1502.4
17984.4
9096.31
5416.88
3825.7
3116.29
2761.56
2546.57
2388.63
2257.81
2144.04
2044.42
1958.67
1887.18
1830.21
1787.25
1756.96
1737.42
1726.37
1721.4
1720.19
1720.54
1720.54
1719.28
1721.07
1726.72
1736.7
1751.72
1773.01
1802.59
1843.23
1898.02
1969.48
2058.48
2163.18
2278.57
2396.79
2508.29
2603.23
2672.94
2711.34
2715.9
2688.17
2633.39
2559.2
2474.26
2387.27
2307.34
2245.07
2234.44
2328.76
2558.5
3059.7
3830.12
4562.87
4996.87
5433.86
5747.15
5923.66
5924.98
5781.74
5533.3
5215.59
4857.44
4475.4
4083.74
3697.24
3332.1
3005.12
2730.38
2515.93
2362.4
2263.82
2210.07
2189.71
2192.19
2208.99
2233.96
2263.03
2293.71
2324.49
2354.42
2382.73
2408.7
2431.28
2450.18
2465.25
2476.48
2483.96
2487.81
2488.2
2485.3
2479.25
2470.22
2458.37
2443.91
2427.11
2408.31
2387.97
2366.71
2345.03
2322.96
2300.83
2278.37
2254.05
2228.96
2198.76
2167.71
2132.8
2093.89
2051.26
2005.52
1957.5
1908.03
1857.77
1807.17
1756.45
1705.44
1653.6
1600.5
1545.96
1490.01
1433
1375.59
1318.64
1263.16
1210.14
1160.53
1115.39
1075.68
1042.52
1017.09
1000.5
993.6
996.906
1010.37
1033.14
1063.75
1100.36
1140.71
1182.13
1221.82
1256.75
1283.55
1298.97
1301.92
1296.07
1292.8
1313.63
1391.87
1572.39
1906.43
2435.29
3135.77
3781.55
3882.74
3294.77
2661.84
2305.77
2133.53
2029.58
1951.94
1892.77
1854.19
1834.22
1830.11
1836.82
1846.32
1848.05
1834.42
1801.22
1749.45
1684.89
1615.68
1549.52
1491.95
1445.95
1411.85
1388.46
1374.74
1369.73
19965.8
8724.83
4595.1
3287.6
2841.74
2636.28
2494.32
2369.94
2254.11
2146.65
2049.34
1964.64
1894.88
1841.39
1804.21
1782.16
1773.05
1774.14
1782.48
1795.12
1809.16
1821.71
1831.07
1838.72
1845.31
1851.88
1859.87
1870.96
1887.1
1910.55
1943.75
1989.06
2048.1
2120.87
2204.99
2295.46
2385.23
2466.31
2531.15
2573.96
2591.63
2584.17
2554.45
2507.46
2449.7
2390.41
2348.33
2368.94
2536.24
2966.69
3700.78
4492.93
4867.47
5171.05
5370.79
5489.44
5492.92
5386.33
5183.33
4914.41
4605.27
4274.53
3935.19
3597.36
3272.84
2975.21
2717.72
2510.06
2355.98
2252.89
2193.41
2167.85
2166.4
2180.75
2204.61
2233.75
2265.51
2298.27
2330.94
2362.54
2391.98
2418.17
2439.61
2456.25
2468.09
2475.4
2478.59
2478.11
2474.41
2467.83
2458.65
2447.07
2433.25
2417.37
2399.66
2380.33
2359.5
2337.43
2314.8
2292.21
2269.2
2246.4
2223.83
2198.38
2173.42
2145.99
2115.34
2080.95
2042.68
2000.78
1955.86
1908.76
1860.41
1811.63
1763.06
1715.08
1667.66
1620.32
1572.38
1523.34
1472.81
1420.7
1367.26
1313.1
1259.11
1206.29
1155.64
1108.15
1064.58
1025.54
991.53
963.044
940.55
924.49
915.204
912.832
917.247
928.059
944.529
965.491
989.369
1014.19
1037.7
1057.9
1074.24
1089.85
1114.1
1165.34
1273.45
1480.8
1836.65
2374.19
3046.75
3605.1
3615.43
3058.95
2504.61
2202.46
2045.16
1936.84
1853.13
1790.63
1751.31
1729.91
1723.36
1726.17
1731.22
1730.89
1717.58
1686.64
1638.21
1577.22
1511.41
1448.54
1394.43
1351.95
1321.06
1300.32
1288.6
1284.18
21085.1
7891.77
3871.49
3016.15
2788.08
2662.01
2546.71
2431.74
2319.81
2213.6
2115.66
2029.36
1958.14
1904.45
1868.97
1850.59
1847.03
1855.37
1872.49
1895.6
1922.36
1949.76
1969.73
1975.64
1978.48
1981.94
1987.04
1994.77
2006.44
2023.61
2047.95
2081.17
2124.58
2178.53
2241.58
2310.25
2379.3
2442.43
2493.37
2527.01
2540.22
2532.4
2505.81
2466.29
2426.16
2415.43
2501.35
2799.15
3422.53
4238.86
4670.88
4968.25
5112.08
5176.4
5159.54
5068.82
4907.07
4689.7
4433.29
4154.21
3863.64
3569.9
3281.3
3007.91
2761.52
2553.03
2389.49
2272.54
2198.55
2160.37
2149.41
2157.51
2177.97
2205.92
2238.18
2272.7
2308.12
2343.31
2377.04
2407.89
2434.37
2455.19
2468.96
2476.61
2478.81
2476.33
2469.95
2460.4
2448.31
2434.21
2418.5
2401.43
2383.16
2363.83
2343.78
2323.22
2301.99
2279.88
2257.69
2235.98
2213.47
2191.09
2169.01
2145.82
2120.79
2093.14
2062.24
2027.69
1989.45
1947.84
1903.48
1857.23
1810.03
1762.75
1716.12
1670.6
1626.29
1582.81
1539.5
1495.67
1450.64
1403.91
1355.34
1305.18
1254.07
1202.9
1152.72
1104.55
1059.31
1017.71
980.191
947.049
918.445
894.493
875.288
860.912
851.408
846.764
846.852
851.378
859.82
871.411
885.234
900.613
918.062
940.958
977.804
1044.94
1169.51
1391.11
1756.44
2291.71
2932.46
3423.7
3399.59
2907.31
2422.15
2141.65
1982.02
1868.46
1780.04
1716.48
1678.16
1657.35
1648.89
1648.31
1650
1647.38
1633.75
1604.3
1558.43
1500.3
1437.23
1376.93
1325.21
1284.62
1255.1
1235.48
1224.76
1221.23
21277.8
6781.53
3404.52
2970.2
2855.68
2754.66
2646.63
2537.07
2430.34
2327.76
2231.01
2143.29
2068.4
2009.47
1968.19
1944.35
1935.83
1939.85
1953.17
1972.37
1994.06
2015.06
2033.3
2046.49
2058.11
2069.24
2080.85
2093.92
2109.46
2128.51
2152.15
2181.33
2216.73
2258.3
2304.82
2353.74
2401.29
2442.83
2473.7
2490.25
2490.43
2476.99
2460
2460.44
2527.46
2800.96
3314.19
3862.37
4354.87
4705.07
4867.44
4924.09
4895.27
4808.33
4671.91
4496.2
4290.06
4063.09
3822.5
3574.11
3323.15
3076.63
2843.94
2635.73
2461.41
2326.69
2232.43
2175.13
2148.43
2144.99
2157.93
2181.62
2211.94
2246.23
2282.8
2320.36
2357.73
2393.48
2425.88
2452.95
2472.83
2483.74
2486.85
2483.58
2475.06
2462.35
2446.4
2428.08
2408.18
2387.3
2365.89
2344.23
2322.5
2300.59
2279.31
2258.76
2238.6
2217.85
2197.76
2178.26
2158.65
2138.5
2117.22
2094.11
2068.49
2039.78
2007.61
1971.86
1932.74
1890.7
1846.45
1800.86
1754.81
1709.17
1664.64
1621.7
1580.49
1540.74
1501.87
1463.09
1423.52
1382.36
1339.13
1293.71
1246.45
1198.03
1149.42
1101.68
1055.85
1012.84
973.292
937.611
905.956
878.338
854.673
834.849
818.758
806.315
797.458
792.127
790.236
791.677
796.402
804.74
818.115
840.378
879.774
951.51
1080.74
1304.58
1667.01
2189.38
2797.21
3242.63
3223.47
2809.92
2383.46
2109.98
1941.04
1820.4
1729.64
1666.46
1629.19
1609.01
1599.53
1596.2
1594.63
1589.63
1575.3
1546.76
1502.64
1446.33
1384.72
1325.51
1274.33
1233.72
1204.03
1184.37
1173.77
1170.57
20562.6
5703.88
3231.02
3050.73
2970.57
2875.54
2773.97
2673.35
2576.1
2481.77
2390.95
2305.67
2228.63
2162.39
2108.83
2068.8
2042.07
2027.47
2023.17
2027.11
2037.42
2052.59
2070.01
2086.75
2103.45
2120.44
2138.11
2156.91
2177.3
2199.72
2224.58
2252.17
2282.55
2315.36
2349.69
2384.12
2417
2446.95
2474
2501.26
2537.17
2599.03
2715.24
2920.07
3237.15
3649.52
4057.76
4369.45
4567.32
4651.87
4641.34
4570.43
4456.36
4313.74
4150.4
3972.1
3781.99
3582.01
3373.91
3161.24
2950.28
2749.99
2570.33
2419.81
2303.56
2222.51
2173.86
2152.38
2151.84
2166.25
2190.55
2221.15
2255.55
2292.21
2329.92
2367.55
2403.69
2436.58
2464.05
2483.65
2492.87
2491.34
2482.73
2468.67
2450.58
2429.47
2406.04
2381.1
2355.51
2329.81
2304.45
2279.81
2256.19
2232.92
2211.94
2192.66
2174.69
2157.67
2141.17
2124.62
2107.42
2088.83
2068.06
2044.37
2017.21
1986.3
1951.65
1913.55
1872.5
1829.21
1784.48
1739.17
1694.14
1650.17
1607.88
1567.7
1529.75
1493.83
1459.39
1425.57
1391.37
1355.85
1318.2
1278.01
1235.29
1190.49
1144.41
1098.05
1052.5
1008.88
968.036
930.588
896.864
866.959
840.789
818.164
798.851
782.626
769.317
758.819
751.114
746.304
744.717
747.182
755.63
774.203
810.988
880.402
1006.03
1222.64
1571.53
2071.4
2645.95
3063.42
3073.48
2743.12
2370.53
2102.06
1922.91
1795.17
1701.65
1637.84
1601.21
1581.15
1570.12
1563.73
1558.71
1551.15
1535.81
1507.57
1464.21
1408.36
1346.65
1286.72
1234.31
1192.45
1161.85
1141.74
1131
1127.97
18985.9
4895.4
3281.41
3177.41
3103.8
3015.57
2924.06
2835.91
2752.28
2671.79
2593.69
2518.31
2446.58
2379.81
2319.48
2267.08
2223.92
2191.06
2169.21
2158.81
2159.5
2168.48
2177.98
2190.49
2205.69
2223.36
2243.42
2265.85
2290.7
2318.03
2347.98
2380.7
2416.38
2455.29
2497.84
2544.87
2597.99
2660.11
2736.19
2833.64
2961.98
3130.51
3342.98
3590.29
3847.05
4076.42
4242.21
4330.75
4349.54
4310.85
4230.42
4124.14
4001.42
3868.25
3726.51
3575.88
3415.06
3243.93
3065.02
2884.27
2710.22
2552.22
2418.27
2313.34
2238.78
2192.79
2171.42
2169.68
2182.31
2204.51
2232.74
2264.62
2298.48
2333.21
2367.83
2401.2
2431.88
2458.13
2477.64
2487.18
2481.5
2468.16
2450.01
2428.55
2404.72
2379.01
2351.35
2323.07
2294.71
2266.72
2239.63
2213.99
2190.25
2168.71
2149.52
2132.63
2117.65
2103.96
2090.77
2077.06
2061.86
2044.07
2022.73
1997.17
1967.11
1932.67
1894.34
1852.82
1808.97
1763.71
1717.94
1672.54
1628.3
1585.91
1545.89
1508.57
1474.02
1442.02
1411.98
1383.05
1354.2
1324.32
1292.42
1257.79
1220.15
1179.65
1136.91
1092.77
1048.36
1004.87
963.368
924.669
889.329
857.622
829.586
805.075
783.835
765.567
749.993
736.904
726.207
717.992
712.657
711.169
715.599
730.093
762.424
826.176
943.376
1146.35
1473.64
1943.08
2483.58
2885.52
2937.42
2689.4
2370.72
2112.68
1926.88
1792.99
1696.87
1632.07
1593.91
1571.5
1557.06
1546.54
1537.64
1527.35
1510.67
1481.9
1437.99
1380.94
1317.29
1254.91
1200.15
1156.57
1125
1104.62
1094.12
1091.7
16801
4399.5
3377.34
3312.5
3247.15
3168.32
3088.53
3014.41
2947.27
2885.84
2828.84
2775.61
2725.93
2679.96
2638.24
2601.51
2570.71
2546.76
2530.58
2522.92
2519.16
2515.1
2517.52
2525.85
2539.6
2558.38
2581.9
2609.91
2642.24
2678.78
2719.5
2764.49
2814.01
2868.5
2928.67
2995.55
3070.5
3155.11
3250.92
3358.81
3477.9
3604.45
3731.04
3847.02
3940.64
4002.05
4026.16
4014.78
3974.23
3911.66
3834.19
3747.18
3652.71
3550.34
3437.8
3312.71
3174.33
3024.92
2870.03
2717.65
2576.45
2453.97
2355.22
2282.16
2234.02
2207.94
2200.13
2206.66
2223.49
2246.59
2273.13
2301.32
2329.88
2357.82
2384.81
2409.14
2429.03
2443.49
2450.91
2446.16
2431.76
2413.23
2392.26
2369.38
2344.76
2318.56
2291.03
2262.6
2233.9
2205.67
2178.73
2153.79
2131.45
2112.08
2095.76
2082.2
2070.74
2060.42
2050.01
2038.14
2023.45
2004.67
1980.85
1951.59
1917.03
1877.77
1834.74
1789.04
1741.8
1694.09
1646.89
1601.08
1557.38
1516.4
1478.55
1444.07
1412.92
1384.83
1359.2
1335.19
1311.73
1287.6
1261.63
1232.87
1200.75
1165.16
1126.46
1085.31
1042.82
1000.23
958.711
919.282
882.712
849.492
819.836
793.728
770.975
751.287
734.339
719.843
707.616
697.661
690.308
686.47
688.133
699.221
726.991
784.014
890.555
1076.26
1376.68
1809.82
2314.75
2707.89
2805.93
2636.44
2373.54
2134.55
1948.79
1811.1
1712.28
1645.23
1603.38
1576.24
1556.48
1540.86
1527.89
1514.88
1496.47
1466.1
1419.93
1359.74
1292.33
1226.33
1168.79
1123.53
1091.39
1071.41
1062.05
1061.23
14361.5
4005.2
3477.98
3446.62
3393.12
3325.86
3257.9
3196.64
3144.63
3101.5
3066.18
3037.69
3015.21
2998.04
2985.57
2977.28
2972.67
2971.13
2972.4
2971.32
2970.78
2975.7
2985.92
3001.09
3020.82
3044.67
3072.15
3102.74
3135.9
3171.06
3207.71
3245.39
3283.72
3322.48
3361.52
3400.86
3440.57
3480.72
3521.28
3561.88
3601.63
3638.97
3671.66
3697
3712.4
3715.92
3706.92
3686.19
3655.35
3615.86
3568.52
3512.79
3446.68
3367.49
3272.94
3162.54
3038.48
2905.84
2771.71
2643.87
2529.23
2432.81
2357.24
2302.86
2268.15
2250.31
2246.02
2253.02
2267.39
2285.95
2306.28
2326.75
2346.22
2363.77
2378.66
2390.05
2396.92
2398.49
2394.06
2381.99
2367.01
2349.9
2330.81
2309.53
2286
2260.43
2233.28
2205.2
2177.09
2149.9
2124.6
2101.98
2082.63
2066.8
2054.31
2044.53
2036.45
2028.68
2019.63
2007.6
1991.02
1968.72
1940.08
1905.16
1864.6
1819.47
1771.08
1720.8
1669.89
1619.52
1570.69
1524.27
1480.95
1441.24
1405.48
1373.79
1346.06
1321.95
1300.83
1281.84
1263.86
1245.6
1225.75
1203.15
1176.97
1146.81
1112.77
1075.29
1035.47
994.505
953.643
914.045
876.676
842.238
811.151
783.565
759.411
738.465
720.419
704.958
691.832
680.962
672.572
667.446
667.376
675.934
699.726
750.144
845.485
1012.46
1283.35
1676.49
2143.79
2529.89
2672.74
2576.24
2370.36
2158.8
1981.11
1843.65
1742.7
1672.04
1624.44
1590.57
1564.27
1543.24
1526.43
1510.86
1490.19
1456.86
1406.54
1341.28
1268.77
1198.55
1138.24
1091.8
1059.95
1041.47
1034.49
1036.61
11827.8
3749.57
3568.71
3568.25
3531.41
3477.83
3420.66
3368.26
3324.78
3290.86
3265.72
3248.28
3237.44
3232
3230.7
3232.29
3235.82
3239.03
3240.58
3244.23
3250.56
3259.36
3270.32
3283.05
3297.08
3311.92
3326.99
3341.73
3355.57
3368.03
3378.72
3387.42
3394.08
3398.88
3402.23
3404.72
3407.13
3410.31
3415.11
3422.21
3431.95
3444.21
3458.29
3472.99
3486.76
3497.91
3504.88
3506.26
3500.66
3486.45
3461.6
3423.71
3370.37
3299.96
3212.38
3109.75
2996.32
2877.98
2761.21
2652.03
2555.2
2473.59
2407.53
2359.55
2329.94
2312.7
2305.26
2305.71
2311.57
2320.76
2331.36
2341.82
2350.99
2358.01
2362.22
2363.16
2360.51
2354.16
2343.74
2330.38
2314.93
2297.49
2277.95
2256.21
2232.32
2206.63
2179.76
2152.61
2126.2
2101.58
2079.67
2061.17
2046.39
2035.23
2027.08
2020.91
2015.23
2008.29
1998.19
1983.14
1961.76
1933.25
1897.55
1855.29
1807.63
1756.01
1701.97
1646.98
1592.36
1539.3
1488.83
1441.8
1398.88
1360.5
1326.93
1298.17
1274.03
1254.08
1237.63
1223.75
1211.3
1198.93
1185.25
1168.94
1148.95
1124.62
1095.68
1062.5
1026.03
987.387
947.838
908.649
870.951
835.642
803.346
774.4
748.891
726.703
707.591
691.257
677.43
665.971
657.011
651.191
650.075
656.839
677.371
721.804
806.347
954.615
1195.36
1546.98
1974.6
2351.68
2534.3
2504.17
2354.88
2176.81
2014.53
1882.23
1781.11
1706.82
1652.43
1610.72
1577.45
1551.3
1531.18
1513.11
1489.36
1451.39
1394.92
1322.95
1244.42
1169.84
1107.26
1060.61
1030.32
1014.79
1011.69
1018.2
9348.68
3672.74
3630.53
3662.19
3648.29
3611.83
3565.87
3519.52
3478.47
3444.24
3416.41
3394.19
3376.71
3363.13
3352.79
3343.53
3334.54
3326.69
3320.13
3314.51
3309.52
3304.86
3300.33
3295.77
3291.08
3286.26
3281.31
3276.33
3271.46
3266.9
3262.91
3259.78
3257.9
3257.68
3259.62
3264.24
3272.05
3283.53
3299
3318.58
3342.04
3368.79
3397.8
3427.63
3456.54
3482.55
3503.56
3517.44
3521.98
3514.95
3494.19
3457.88
3404.91
3335.36
3250.79
3154.25
3049.92
2942.46
2835.93
2731.73
2641.3
2567.65
2505.64
2457.54
2421.9
2396.12
2378.33
2366.98
2360.45
2357.22
2355.83
2354.96
2353.55
2350.78
2346.08
2339.13
2329.84
2318.24
2303.78
2287.61
2269.72
2250.09
2228.72
2205.69
2181.31
2156.09
2130.82
2106.44
2083.93
2064.18
2047.86
2035.3
2026.36
2020.41
2016.32
2012.52
2007.12
1998.09
1983.55
1962.01
1932.61
1895.27
1850.6
1799.82
1744.45
1686.1
1626.36
1566.7
1508.48
1452.89
1400.98
1353.6
1311.37
1274.68
1243.66
1218.23
1198.05
1182.58
1171.04
1162.42
1155.53
1148.99
1141.37
1131.27
1117.46
1099.09
1075.49
1047.07
1014.49
978.753
941.11
902.884
865.331
829.525
796.283
766.133
739.331
715.895
695.676
678.428
663.894
651.908
642.534
636.288
634.512
639.983
657.87
697.047
771.632
902.114
1113.63
1424.07
1810.53
2174.24
2389.1
2418.08
2323.4
2182.07
2040.38
1917.67
1819.02
1742.31
1681.7
1632.76
1593.5
1563.45
1540.88
1520.18
1492
1447.27
1382.56
1302.48
1217.46
1138.94
1075.18
1029.81
1002.75
991.845
994.208
1006.5
7110.86
3562.97
3639.27
3710.31
3726.91
3713.59
3683.63
3646.98
3610.72
3577.37
3547.26
3520.45
3496.63
3473.86
3452.12
3432.64
3415.6
3400.81
3388.02
3377.07
3367.85
3360.26
3354.25
3349.78
3346.78
3345.21
3345.02
3346.18
3348.72
3352.74
3358.42
3366.04
3375.89
3388.25
3403.35
3421.31
3442.12
3465.65
3491.64
3519.68
3549.17
3579.31
3609.07
3637.2
3662.26
3682.68
3696.81
3702.97
3699.48
3684.76
3657.44
3616.52
3561.6
3493.01
3411.76
3319.22
3215.89
3106.24
3006.78
2911.21
2824.58
2746.32
2676
2614.86
2562.86
2519.29
2483.26
2453.78
2429.73
2409.96
2393.3
2378.63
2364.93
2351.38
2337.37
2322.48
2306.46
2289.03
2270.41
2250.72
2229.95
2208.16
2185.54
2162.41
2139.22
2116.62
2095.38
2076.29
2060.1
2047.31
2038.09
2032.19
2028.84
2026.77
2024.3
2019.44
2010.16
1994.55
1971.2
1939.33
1898.93
1850.7
1795.87
1735.99
1672.69
1607.6
1542.27
1478.16
1416.64
1358.97
1306.18
1259.1
1218.29
1184.02
1156.31
1134.91
1119.33
1108.9
1102.68
1099.59
1098.37
1097.62
1095.87
1091.71
1083.85
1071.2
1052.95
1029.45
1001.08
968.679
933.411
896.613
859.628
823.672
789.737
758.538
730.504
705.804
684.405
666.142
650.799
638.212
628.405
621.793
619.512
623.96
639.611
674.111
739.55
853.371
1037.1
1307.56
1651.76
1996.5
2234.71
2315.69
2273.55
2170.74
2052.96
1943.09
1849.39
1772.04
1707.17
1653.31
1610.5
1578.53
1554.31
1530.21
1495.58
1441.65
1366.75
1277.65
1186.42
1105.13
1041.9
999.786
977.919
973.429
982.78
1002.02
5193.99
3389.25
3572.66
3692.98
3751.01
3770.9
3766.68
3749.18
3726.86
3703.65
3679.39
3653.57
3627.11
3602.77
3581.11
3562.69
3547.95
3537.33
3531.27
3530.18
3534.41
3544.25
3559.9
3581.39
3608.58
3641.14
3678.45
3719.64
3763.57
3808.79
3853.64
3896.35
3935.18
3968.66
3995.85
4016.48
4031.03
4040.58
4046.54
4050.23
4052.66
4054.33
4055.27
4055.12
4053.25
4048.93
4041.29
4029.37
4012.04
3988
3955.78
3913.77
3860.09
3792.48
3707.28
3612.47
3516.82
3418.13
3318.52
3218.58
3120.64
3025.82
2935.3
2850.58
2772.83
2702.74
2640.52
2585.94
2538.41
2497.1
2461.01
2429.09
2400.3
2373.73
2348.57
2324.18
2300.07
2276.38
2252.96
2229.7
2206.6
2183.8
2161.59
2140.37
2120.68
2103.1
2088.17
2076.36
2067.87
2062.56
2059.88
2058.79
2057.83
2055.18
2048.82
2036.78
2017.35
1989.36
1952.3
1906.39
1852.48
1791.86
1726.05
1656.65
1585.25
1513.43
1442.73
1374.67
1310.65
1251.93
1199.49
1154.08
1116.1
1085.69
1062.66
1046.59
1036.79
1032.38
1032.29
1035.31
1040.1
1045.25
1049.31
1050.85
1048.59
1041.16
1028.37
1009.93
986.015
957.282
924.788
889.845
853.851
818.139
783.855
751.882
722.814
696.97
674.439
655.148
638.941
625.679
615.369
608.353
605.604
609.188
622.961
653.478
711.019
810.292
969.487
1203.87
1507.56
1828.57
2079.4
2202.4
2207.97
2142.98
2050.15
1954.7
1867.71
1791.88
1726.08
1671.07
1627.96
1595.92
1570
1540.65
1496.75
1431.02
1344.45
1246.31
1150.05
1068.01
1007.71
971.23
956.718
960.456
978.158
1005.17
3898.91
3175.49
3431.72
3600.14
3704.61
3765.78
3797.44
3810.23
3812.6
3806.99
3796.01
3782.14
3767.03
3752.3
3739.46
3729.87
3724.78
3725.33
3732.53
3747.22
3770.03
3801.36
3841.32
3889.77
3946.26
4010.07
4080.21
4155.46
4234.41
4315.48
4396.99
4477.18
4554.19
4626.07
4690.76
4746.06
4789.77
4819.9
4835.15
4835.35
4821.73
4796.83
4763.79
4725.81
4685.68
4645.72
4607.42
4571.26
4536.66
4501.88
4463.91
4418.98
4364.21
4296.97
4223.8
4138.91
4041.75
3933.54
3816.5
3693.54
3567.88
3442.37
3319.33
3200.71
3088.25
2983.31
2886.85
2799.37
2720.9
2651.07
2589.15
2534.23
2485.27
2441.23
2401.13
2364.09
2330.38
2299.41
2270.79
2244.26
2219.73
2197.27
2177.06
2159.38
2144.52
2132.71
2124.04
2118.35
2115.14
2113.53
2112.26
2109.72