/*--------------------------------*- C++ -*----------------------------------*\
| =========                 |                                                 |
| \\      /  F ield         | OpenFOAM: The Open Source CFD Toolbox           |
|  \\    /   O peration     | Version:  2112                                  |
|   \\  /    A nd           | Website:  www.openfoam.com                      |
|    \\/     M anipulation  |                                                 |
\*---------------------------------------------------------------------------*/
FoamFile
{
    version     2.0;
    format      ascii;
    arch        "LSB;label=32;scalar=64";
    class       surfaceScalarField;
    location    "0.12";
    object      phi;
}
// * * * * * * * * * * * * * * * * * * * * * * * * * * * * * * * * * * * * * //

dimensions      [0 3 -1 0 0 0 0];

oriented        oriented;

internalField   nonuniform List<scalar> 
24170
(
3.03929e-06
1.49121e-07
2.86067e-06
1.78612e-07
2.68134e-06
1.79333e-07
2.50108e-06
1.80259e-07
2.32502e-06
1.76065e-07
2.15809e-06
1.66926e-07
2.00382e-06
1.54273e-07
1.86464e-06
1.39174e-07
1.74198e-06
1.22668e-07
1.63608e-06
1.05891e-07
1.54605e-06
9.00389e-08
1.46989e-06
7.6153e-08
1.40491e-06
6.49863e-08
1.34787e-06
5.70362e-08
1.29543e-06
5.24439e-08
1.24332e-06
5.21016e-08
1.18448e-06
5.88417e-08
8.36027e-08
1.10088e-06
3.48934e-06
7.70325e-08
3.53922e-06
1.28731e-07
3.56934e-06
1.49209e-07
3.57924e-06
1.70363e-07
3.56901e-06
1.86288e-07
3.54052e-06
1.95416e-07
3.49613e-06
1.98666e-07
3.43838e-06
1.96928e-07
3.3698e-06
1.91248e-07
3.29266e-06
1.83024e-07
3.20871e-06
1.73995e-07
3.11901e-06
1.6585e-07
3.02401e-06
1.59986e-07
2.92359e-06
1.57453e-07
2.8171e-06
1.58938e-07
2.70344e-06
1.6576e-07
2.58337e-06
1.78909e-07
1.99864e-07
2.46711e-06
3.6801e-06
5.94538e-08
3.69756e-06
1.11268e-07
3.71527e-06
1.31494e-07
3.73547e-06
1.50167e-07
3.75602e-06
1.65737e-07
3.77518e-06
1.76257e-07
3.79123e-06
1.82614e-07
3.8026e-06
1.85561e-07
3.80806e-06
1.85791e-07
3.80666e-06
1.84416e-07
3.79786e-06
1.82802e-07
3.78134e-06
1.82367e-07
3.75689e-06
1.84439e-07
3.72419e-06
1.90154e-07
3.6826e-06
2.0052e-07
3.63185e-06
2.16511e-07
3.57164e-06
2.39125e-07
2.65183e-07
3.50632e-06
3.93565e-06
4.91956e-08
3.94593e-06
1.00984e-07
3.95339e-06
1.24038e-07
3.96076e-06
1.42791e-07
3.96823e-06
1.58269e-07
3.97571e-06
1.68779e-07
3.98318e-06
1.75141e-07
3.99021e-06
1.78536e-07
3.99615e-06
1.79849e-07
4.00049e-06
1.80077e-07
4.0028e-06
1.80488e-07
4.00279e-06
1.8238e-07
4.00027e-06
1.86954e-07
3.99521e-06
1.95213e-07
3.98771e-06
2.08024e-07
3.97818e-06
2.26042e-07
3.96727e-06
2.50032e-07
2.78064e-07
3.95439e-06
4.21467e-06
4.16519e-08
4.22341e-06
9.22415e-08
4.22978e-06
1.17667e-07
4.23542e-06
1.37159e-07
4.2406e-06
1.53087e-07
4.24508e-06
1.64293e-07
4.24869e-06
1.71532e-07
4.25119e-06
1.7604e-07
4.25227e-06
1.78767e-07
4.25168e-06
1.80666e-07
4.24928e-06
1.82893e-07
4.24503e-06
1.86626e-07
4.23904e-06
1.92941e-07
4.23159e-06
2.02662e-07
4.22327e-06
2.16347e-07
4.21489e-06
2.34427e-07
4.20781e-06
2.57109e-07
2.83737e-07
4.20214e-06
4.51489e-06
3.58505e-08
4.52266e-06
8.44708e-08
4.5288e-06
1.11527e-07
4.53419e-06
1.31766e-07
4.53904e-06
1.48239e-07
4.54305e-06
1.60285e-07
4.54595e-06
1.68629e-07
4.54753e-06
1.74465e-07
4.54753e-06
1.78761e-07
4.54575e-06
1.82445e-07
4.54208e-06
1.86569e-07
4.53651e-06
1.92197e-07
4.52916e-06
2.00291e-07
4.52032e-06
2.11504e-07
4.51053e-06
2.26137e-07
4.50042e-06
2.44537e-07
4.49088e-06
2.66642e-07
2.91997e-07
4.48262e-06
4.83727e-06
3.12974e-08
4.84419e-06
7.75498e-08
4.85005e-06
1.05667e-07
4.85529e-06
1.26531e-07
4.86003e-06
1.43501e-07
4.86393e-06
1.56377e-07
4.86671e-06
1.65851e-07
4.86812e-06
1.73061e-07
4.86792e-06
1.7896e-07
4.86593e-06
1.84434e-07
4.86207e-06
1.90429e-07
4.85637e-06
1.97892e-07
4.849e-06
2.07668e-07
4.84028e-06
2.20219e-07
4.83072e-06
2.35703e-07
4.82076e-06
2.54489e-07
4.81104e-06
2.76361e-07
3.00905e-07
4.80214e-06
5.1832e-06
2.76769e-08
5.18937e-06
7.13821e-08
5.19496e-06
1.0008e-07
5.20003e-06
1.21461e-07
5.20465e-06
1.38875e-07
5.20849e-06
1.52538e-07
5.21123e-06
1.63113e-07
5.21262e-06
1.71667e-07
5.21246e-06
1.79128e-07
5.21056e-06
1.86328e-07
5.20688e-06
1.94113e-07
5.20146e-06
2.03313e-07
5.19451e-06
2.1461e-07
5.18643e-06
2.28303e-07
5.17755e-06
2.4458e-07
5.16835e-06
2.63698e-07
5.15933e-06
2.85378e-07
3.09276e-07
5.15096e-06
5.55424e-06
2.47697e-08
5.55974e-06
6.5884e-08
5.56509e-06
9.47332e-08
5.57003e-06
1.16519e-07
5.57457e-06
1.34337e-07
5.57837e-06
1.48735e-07
5.58112e-06
1.60361e-07
5.58259e-06
1.70198e-07
5.58259e-06
1.79133e-07
5.58097e-06
1.87941e-07
5.57772e-06
1.97369e-07
5.5729e-06
2.08132e-07
5.56677e-06
2.20742e-07
5.55973e-06
2.35335e-07
5.55212e-06
2.52192e-07
5.54436e-06
2.71459e-07
5.53691e-06
2.9283e-07
3.16012e-07
5.53017e-06
5.95214e-06
2.2407e-08
5.95705e-06
6.09758e-08
5.96218e-06
8.96027e-08
5.96704e-06
1.11655e-07
5.97155e-06
1.29827e-07
5.97539e-06
1.44898e-07
5.97824e-06
1.57504e-07
5.97991e-06
1.68537e-07
5.98021e-06
1.78828e-07
5.97906e-06
1.89088e-07
5.97647e-06
1.99967e-07
5.97253e-06
2.12069e-07
5.96753e-06
2.25736e-07
5.96184e-06
2.41025e-07
5.95582e-06
2.58218e-07
5.94988e-06
2.77401e-07
5.94444e-06
2.98269e-07
3.20587e-07
5.93986e-06
6.37877e-06
2.04519e-08
6.38317e-06
5.65752e-08
6.38811e-06
8.46623e-08
6.39294e-06
1.06819e-07
6.3975e-06
1.25274e-07
6.40147e-06
1.40929e-07
6.40455e-06
1.54417e-07
6.40656e-06
1.66533e-07
6.40735e-06
1.78034e-07
6.40688e-06
1.8956e-07
6.40518e-06
2.01668e-07
6.40239e-06
2.14856e-07
6.39881e-06
2.29318e-07
6.39477e-06
2.45071e-07
6.39062e-06
2.62362e-07
6.38679e-06
2.81231e-07
6.38367e-06
3.01386e-07
3.22639e-07
6.38162e-06
5.74226e-06
1.90226e-08
5.74565e-06
5.31891e-08
5.74971e-06
8.06046e-08
5.75382e-06
1.02704e-07
5.75777e-06
1.21325e-07
5.76131e-06
1.37389e-07
5.76421e-06
1.5152e-07
5.7663e-06
1.64436e-07
5.76751e-06
1.76825e-07
5.76782e-06
1.89259e-07
5.76727e-06
2.02217e-07
5.76601e-06
2.16114e-07
5.76429e-06
2.31038e-07
5.76237e-06
2.46992e-07
5.76054e-06
2.64185e-07
5.75916e-06
2.82616e-07
5.75854e-06
3.02006e-07
3.22201e-07
5.75898e-06
6.9996e-06
1.75761e-08
7.0032e-06
4.95879e-08
7.00774e-06
7.60632e-08
7.01253e-06
9.79212e-08
7.01724e-06
1.16612e-07
7.02161e-06
1.33021e-07
7.02538e-06
1.47751e-07
7.02838e-06
1.61429e-07
7.03055e-06
1.74655e-07
7.03189e-06
1.87923e-07
7.03248e-06
2.01627e-07
7.03251e-06
2.16087e-07
7.03225e-06
2.31298e-07
7.03198e-06
2.47261e-07
7.03203e-06
2.64135e-07
7.03278e-06
2.81868e-07
7.03458e-06
3.002e-07
3.19011e-07
7.03777e-06
8.53233e-06
1.60963e-08
8.53617e-06
4.57427e-08
8.54129e-06
7.09499e-08
8.54691e-06
9.23011e-08
8.55263e-06
1.10883e-07
8.55816e-06
1.27492e-07
8.56323e-06
1.42686e-07
8.56766e-06
1.56993e-07
8.57141e-06
1.70909e-07
8.5745e-06
1.84835e-07
8.57705e-06
1.99077e-07
8.57929e-06
2.13846e-07
8.58151e-06
2.29079e-07
8.584e-06
2.44764e-07
8.58714e-06
2.61004e-07
8.5913e-06
2.77701e-07
8.59689e-06
2.94617e-07
3.11666e-07
8.60423e-06
1.04008e-05
1.45379e-08
1.0405e-05
4.15499e-08
1.04108e-05
6.50835e-08
1.04176e-05
8.55492e-08
1.04247e-05
1.03724e-07
1.0432e-05
1.20268e-07
1.0439e-05
1.35663e-07
1.04457e-05
1.50333e-07
1.04519e-05
1.64657e-07
1.04578e-05
1.78932e-07
1.04635e-05
1.93379e-07
1.04693e-05
2.0808e-07
1.04754e-05
2.22958e-07
1.04822e-05
2.37981e-07
1.049e-05
2.53188e-07
1.04992e-05
2.68455e-07
1.05103e-05
2.83563e-07
2.98462e-07
1.05235e-05
1.26785e-05
1.28123e-08
1.26833e-05
3.6777e-08
1.26903e-05
5.81109e-08
1.26987e-05
7.71589e-08
1.27079e-05
9.44584e-08
1.27177e-05
1.10502e-07
1.27277e-05
1.25668e-07
1.27377e-05
1.40265e-07
1.27479e-05
1.54549e-07
1.27581e-05
1.68712e-07
1.27686e-05
1.8288e-07
1.27796e-05
1.97026e-07
1.27915e-05
2.11078e-07
1.28045e-05
2.2499e-07
1.2819e-05
2.38724e-07
1.28353e-05
2.5215e-07
1.28538e-05
2.65078e-07
2.77491e-07
1.28747e-05
1.54552e-05
1.07665e-08
1.5461e-05
3.09969e-08
1.54697e-05
4.93911e-08
1.54806e-05
6.62747e-08
1.54931e-05
8.20044e-08
1.55067e-05
9.68971e-08
1.55211e-05
1.11198e-07
1.55363e-05
1.25094e-07
1.55521e-05
1.3872e-07
1.55687e-05
1.52163e-07
1.55861e-05
1.65447e-07
1.56047e-05
1.78496e-07
1.56245e-05
1.91211e-07
1.5646e-05
2.03538e-07
1.56693e-05
2.15385e-07
1.56948e-05
2.26636e-07
1.57228e-05
2.3713e-07
2.46885e-07
1.57534e-05
1.88403e-05
8.14572e-09
1.88478e-05
2.34928e-08
1.88593e-05
3.78436e-08
1.88741e-05
5.15113e-08
1.88914e-05
6.46969e-08
1.89107e-05
7.75341e-08
1.89318e-05
9.01177e-08
1.89544e-05
1.02506e-07
1.89784e-05
1.14719e-07
1.90038e-05
1.26742e-07
1.90308e-05
1.38502e-07
1.90594e-05
1.49904e-07
1.90898e-05
1.6083e-07
1.91221e-05
1.71195e-07
1.91566e-05
1.80891e-07
1.91934e-05
1.89818e-07
1.92327e-05
1.97852e-07
2.05034e-07
1.92745e-05
2.2967e-05
4.4676e-09
2.29775e-05
1.30395e-08
2.29936e-05
2.1676e-08
2.30145e-05
3.06694e-08
2.30392e-05
4.00225e-08
2.3067e-05
4.96505e-08
2.30977e-05
5.94838e-08
2.31307e-05
6.94511e-08
2.3166e-05
7.94569e-08
2.32033e-05
8.93829e-08
2.32427e-05
9.91107e-08
2.32841e-05
1.08494e-07
2.33276e-05
1.17398e-07
2.33731e-05
1.25702e-07
2.34207e-05
1.33303e-07
2.34704e-05
1.40117e-07
2.35222e-05
1.46053e-07
1.51152e-07
2.3576e-05
1.68139e-05
1.25588e-09
1.68229e-05
4.04276e-09
1.68367e-05
7.89941e-09
1.68543e-05
1.30567e-08
1.68751e-05
1.92653e-08
1.68985e-05
2.6246e-08
1.69241e-05
3.38239e-08
1.69517e-05
4.18458e-08
1.69811e-05
5.01355e-08
1.70119e-05
5.85155e-08
1.70442e-05
6.68518e-08
1.70777e-05
7.49377e-08
1.71125e-05
8.2617e-08
1.71485e-05
8.976e-08
1.71855e-05
9.6263e-08
1.72236e-05
1.02044e-07
1.72626e-05
1.07023e-07
1.11232e-07
1.73025e-05
1.46378e-05
-2.00845e-09
1.46469e-05
-5.06899e-09
1.46606e-05
-5.78758e-09
1.46778e-05
-4.15366e-09
1.46979e-05
-8.25349e-10
1.47205e-05
3.72811e-09
1.4745e-05
9.26477e-09
1.47713e-05
1.5562e-08
1.47991e-05
2.23697e-08
1.48281e-05
2.94999e-08
1.48582e-05
3.67455e-08
1.48892e-05
4.38748e-08
1.49212e-05
5.07103e-08
1.49538e-05
5.71142e-08
1.49871e-05
6.29757e-08
1.50209e-05
6.82073e-08
1.50552e-05
7.27311e-08
7.6563e-08
1.50899e-05
1.27436e-05
-5.43107e-09
1.27529e-05
-1.44183e-08
1.27665e-05
-1.93418e-08
1.27831e-05
-2.07732e-08
1.28022e-05
-1.99885e-08
1.28236e-05
-1.75934e-08
1.28467e-05
-1.38354e-08
1.28712e-05
-9.01799e-09
1.2897e-05
-3.42996e-09
1.29238e-05
2.71993e-09
1.29514e-05
9.1363e-09
1.29797e-05
1.55808e-08
1.30086e-05
2.18666e-08
1.30378e-05
2.78438e-08
1.30674e-05
3.33877e-08
1.30972e-05
3.84002e-08
1.31272e-05
4.2798e-08
4.65788e-08
1.31572e-05
1.10947e-05
-9.1756e-09
1.11044e-05
-2.41682e-08
1.11178e-05
-3.27127e-08
1.11337e-05
-3.66542e-08
1.11518e-05
-3.80729e-08
1.11717e-05
-3.75551e-08
1.11932e-05
-3.53155e-08
1.12159e-05
-3.17343e-08
1.12396e-05
-2.71129e-08
1.12641e-05
-2.17506e-08
1.12892e-05
-1.59634e-08
1.13147e-05
-9.99223e-09
1.13406e-05
-4.03441e-09
1.13667e-05
1.74296e-09
1.13929e-05
7.19671e-09
1.14191e-05
1.22161e-08
1.14452e-05
1.67095e-08
2.06574e-08
1.14711e-05
9.65952e-06
-1.34802e-08
9.66983e-06
-3.4477e-08
9.68294e-06
-4.58292e-08
9.69802e-06
-5.17266e-08
9.71498e-06
-5.50322e-08
9.73352e-06
-5.60975e-08
9.75333e-06
-5.5123e-08
9.77412e-06
-5.25247e-08
9.79568e-06
-4.86814e-08
9.81789e-06
-4.39592e-08
9.84058e-06
-3.86508e-08
9.86359e-06
-3.29978e-08
9.88676e-06
-2.72121e-08
9.90999e-06
-2.14811e-08
9.93315e-06
-1.59668e-08
9.95617e-06
-1.07999e-08
9.97896e-06
-6.08694e-09
-1.86496e-09
1.00015e-05
8.4106e-06
-1.8724e-08
8.42159e-06
-4.54683e-08
8.43433e-06
-5.85753e-08
8.44859e-06
-6.59786e-08
8.46446e-06
-7.09104e-08
8.48162e-06
-7.32501e-08
8.49973e-06
-7.32363e-08
8.5186e-06
-7.13909e-08
8.53811e-06
-6.81986e-08
8.55816e-06
-6.40077e-08
8.57858e-06
-5.907e-08
8.59921e-06
-5.3628e-08
8.61991e-06
-4.79107e-08
8.64056e-06
-4.21269e-08
8.66105e-06
-3.64606e-08
8.68131e-06
-3.10603e-08
8.70127e-06
-2.60435e-08
-2.1436e-08
8.72084e-06
7.324e-06
-2.54425e-08
7.33588e-06
-5.7346e-08
7.34821e-06
-7.08997e-08
7.36157e-06
-7.93469e-08
7.37626e-06
-8.55922e-08
7.39193e-06
-8.89244e-08
7.40839e-06
-8.96982e-08
7.42559e-06
-8.8594e-08
7.44346e-06
-8.60659e-08
7.46183e-06
-8.23808e-08
7.48054e-06
-7.77777e-08
7.49942e-06
-7.25097e-08
7.51834e-06
-6.6823e-08
7.53716e-06
-6.09479e-08
7.55579e-06
-5.5092e-08
7.57416e-06
-4.94275e-08
7.59221e-06
-4.40992e-08
-3.91578e-08
7.60993e-06
6.37887e-06
-3.42482e-08
6.39203e-06
-7.05087e-08
6.40438e-06
-8.32483e-08
6.41768e-06
-9.26404e-08
6.43215e-06
-1.00067e-07
6.44758e-06
-1.04357e-07
6.46397e-06
-1.06083e-07
6.48126e-06
-1.05884e-07
6.4993e-06
-1.0411e-07
6.5179e-06
-1.00973e-07
6.53682e-06
-9.67044e-08
6.55587e-06
-9.15596e-08
6.57485e-06
-8.57988e-08
6.59358e-06
-7.968e-08
6.61193e-06
-7.34426e-08
6.62983e-06
-6.73217e-08
6.64716e-06
-6.14307e-08
-5.58534e-08
6.66385e-06
5.55952e-06
-4.83069e-08
5.57712e-06
-8.81102e-08
5.59451e-06
-1.00631e-07
5.6146e-06
-1.12731e-07
5.63706e-06
-1.22532e-07
5.661e-06
-1.28299e-07
5.68576e-06
-1.30842e-07
5.71084e-06
-1.30962e-07
5.73572e-06
-1.28988e-07
5.7599e-06
-1.25152e-07
5.78295e-06
-1.19762e-07
5.80456e-06
-1.13169e-07
5.8245e-06
-1.05739e-07
5.84266e-06
-9.78329e-08
5.859e-06
-8.9782e-08
5.87361e-06
-8.19374e-08
5.88668e-06
-7.45038e-08
-6.80852e-08
5.89892e-06
4.88769e-06
-1.08393e-07
4.94124e-06
-1.41661e-07
4.98666e-06
-1.46052e-07
5.02302e-06
-1.49091e-07
5.04876e-06
-1.48267e-07
5.06438e-06
-1.43919e-07
5.07104e-06
-1.37499e-07
5.06975e-06
-1.29673e-07
5.06155e-06
-1.20787e-07
5.04753e-06
-1.1114e-07
5.02881e-06
-1.01032e-07
5.00638e-06
-9.07443e-08
4.98118e-06
-8.05353e-08
4.95398e-06
-7.06389e-08
4.92545e-06
-6.1248e-08
4.89608e-06
-5.25724e-08
4.8663e-06
-4.47197e-08
-3.79745e-08
4.83619e-06
4.09428e-06
3.95262e-06
3.80657e-06
3.65748e-06
3.50921e-06
3.36529e-06
3.2278e-06
3.09812e-06
2.97734e-06
2.8662e-06
2.76516e-06
2.67442e-06
2.59388e-06
2.52325e-06
2.462e-06
2.40942e-06
2.3647e-06
2.32673e-06
7.647e-08
-7.647e-08
2.18059e-07
-1.41589e-07
4.27903e-07
-2.09845e-07
7.0533e-07
-2.77426e-07
1.04311e-06
-3.37784e-07
1.42686e-06
-3.83743e-07
1.83851e-06
-4.1165e-07
2.26041e-06
-4.21899e-07
2.67793e-06
-4.17527e-07
3.07983e-06
-4.01899e-07
3.45777e-06
-3.77943e-07
3.80602e-06
-3.48246e-07
4.12089e-06
-3.14866e-07
4.40011e-06
-2.79223e-07
4.6423e-06
-2.42191e-07
4.8465e-06
-2.04196e-07
5.01177e-06
-1.65276e-07
5.13687e-06
-1.25095e-07
5.21985e-06
-8.29811e-08
5.25803e-06
-3.81787e-08
5.24797e-06
1.00626e-08
5.18067e-06
6.73003e-08
5.05576e-06
1.24907e-07
4.87335e-06
1.82412e-07
4.63499e-06
2.38352e-07
4.34398e-06
2.91018e-07
4.00562e-06
3.38359e-07
3.62696e-06
3.78656e-07
3.2179e-06
4.09059e-07
2.79175e-06
4.26152e-07
2.36294e-06
4.28813e-07
1.94599e-06
4.16944e-07
1.55451e-06
3.91481e-07
1.1995e-06
3.55008e-07
8.87858e-07
3.11646e-07
6.21401e-07
2.66457e-07
3.97102e-07
2.24299e-07
2.08606e-07
1.88496e-07
4.80327e-08
1.60574e-07
-9.30438e-08
1.41076e-07
-2.20597e-07
1.27553e-07
-3.33992e-07
1.13395e-07
-4.26124e-07
9.21319e-08
-4.87574e-07
6.14506e-08
-5.08844e-07
2.12696e-08
-4.85993e-07
-2.28508e-08
-4.18398e-07
-6.75953e-08
-3.06049e-07
-1.12349e-07
-1.52087e-07
-1.53961e-07
3.74749e-08
-1.89562e-07
2.53914e-07
-2.16439e-07
4.84283e-07
-2.3037e-07
7.10582e-07
-2.26299e-07
9.10702e-07
-2.0012e-07
1.06258e-06
-1.51878e-07
1.15156e-06
-8.89755e-08
1.17551e-06
-2.39542e-08
1.1489e-06
2.66131e-08
1.10406e-06
4.484e-08
1.07078e-06
3.328e-08
1.05572e-06
1.5052e-08
1.03677e-06
1.89508e-08
9.78381e-07
5.8392e-08
8.5216e-07
1.26221e-07
6.40331e-07
2.11829e-07
3.31136e-07
3.09195e-07
-8.47577e-08
4.15894e-07
-6.0951e-07
5.24752e-07
-1.2334e-06
6.23888e-07
-1.93701e-06
7.03615e-07
-2.69547e-06
7.58461e-07
-3.48186e-06
7.86389e-07
-4.27017e-06
7.88309e-07
-5.03736e-06
7.6719e-07
-5.76445e-06
7.27084e-07
-6.43677e-06
6.72326e-07
-7.04384e-06
6.07064e-07
-7.57837e-06
5.34532e-07
-8.03519e-06
4.56822e-07
-8.41187e-06
3.76677e-07
-8.70847e-06
2.96602e-07
-8.92592e-06
2.17452e-07
-9.06612e-06
1.40195e-07
-9.13235e-06
6.62306e-08
-9.1292e-06
-3.15167e-09
-9.07266e-06
-5.65396e-08
-8.9693e-06
-1.03352e-07
-8.82412e-06
-1.45186e-07
-8.6409e-06
-1.83217e-07
-8.42259e-06
-2.18312e-07
-8.17175e-06
-2.50834e-07
-7.89078e-06
-2.80971e-07
-7.58196e-06
-3.08819e-07
-7.24745e-06
-3.34518e-07
-6.88898e-06
-3.58471e-07
-6.50811e-06
-3.80865e-07
-6.10623e-06
-4.01883e-07
-5.68452e-06
-4.21708e-07
-5.24409e-06
-4.40432e-07
-4.78604e-06
-4.5805e-07
-4.31147e-06
-4.74569e-07
-3.82152e-06
-4.89954e-07
-3.31773e-06
-5.0379e-07
-2.80237e-06
-5.15356e-07
-2.27879e-06
-5.23579e-07
-1.75197e-06
-5.2682e-07
-1.22861e-06
-5.23365e-07
-7.15245e-07
-5.13362e-07
-2.12181e-07
-5.03063e-07
2.83403e-07
-4.95584e-07
7.70352e-07
-4.86949e-07
1.2451e-06
-4.74747e-07
1.69983e-06
-4.54736e-07
2.1255e-06
-4.25665e-07
2.51576e-06
-3.90255e-07
2.86644e-06
-3.50686e-07
3.17605e-06
-3.09607e-07
3.44455e-06
-2.68502e-07
3.67042e-06
-2.2587e-07
3.85223e-06
-1.81809e-07
3.98978e-06
-1.37556e-07
4.08432e-06
-9.45335e-08
4.138e-06
-5.36807e-08
4.15094e-06
-1.2944e-08
4.13138e-06
1.95587e-08
4.08514e-06
4.62487e-08
4.02029e-06
6.48499e-08
3.94191e-06
7.83793e-08
3.85283e-06
8.90773e-08
3.75527e-06
9.75581e-08
3.65101e-06
1.0426e-07
3.54163e-06
1.09379e-07
3.42862e-06
1.13007e-07
3.31333e-06
1.1529e-07
3.1969e-06
1.1643e-07
3.07996e-06
1.16944e-07
2.96313e-06
1.16829e-07
2.84669e-06
1.16444e-07
2.73029e-06
1.164e-07
2.61356e-06
1.16724e-07
2.49667e-06
1.16895e-07
2.38104e-06
1.15629e-07
2.27009e-06
1.10947e-07
2.16949e-06
1.00598e-07
2.08675e-06
8.27397e-08
2.02984e-06
5.69106e-08
2.0049e-06
2.49473e-08
2.01444e-06
-9.5433e-09
2.05175e-06
-3.73093e-08
2.09687e-06
-4.51219e-08
2.11639e-06
-1.95165e-08
2.06989e-06
4.65e-08
1.92052e-06
1.49372e-07
1.6136e-06
3.06917e-07
1.07898e-06
5.34615e-07
2.84435e-07
7.94548e-07
-6.69288e-07
9.53723e-07
-1.64982e-06
9.80528e-07
-2.53077e-06
8.80952e-07
-3.23153e-06
7.00758e-07
-3.70676e-06
4.7523e-07
-3.93689e-06
2.30132e-07
-3.92783e-06
-9.05631e-09
-3.71308e-06
-2.14755e-07
-3.31409e-06
-3.98987e-07
-2.75128e-06
-5.62809e-07
-2.05269e-06
-6.98587e-07
-1.26225e-06
-7.90442e-07
-4.29808e-07
-8.32443e-07
4.09921e-07
-8.39729e-07
1.22646e-06
-8.16543e-07
1.987e-06
-7.60535e-07
2.66182e-06
-6.74817e-07
3.23637e-06
-5.74552e-07
3.71029e-06
-4.73924e-07
4.08882e-06
-3.78531e-07
4.37474e-06
-2.85915e-07
4.56294e-06
-1.88201e-07
4.60376e-06
-4.08248e-08
1.07255e-07
4.49651e-06
1.67229e-07
-2.43699e-07
4.16921e-07
-3.91281e-07
7.38948e-07
-5.31872e-07
1.11694e-06
-6.55418e-07
1.52872e-06
-7.49561e-07
1.95358e-06
-8.08608e-07
2.37577e-06
-8.33841e-07
2.78442e-06
-8.3055e-07
3.17184e-06
-8.04942e-07
3.53336e-06
-7.63417e-07
3.86679e-06
-7.11374e-07
4.17129e-06
-6.52743e-07
4.44669e-06
-5.90266e-07
4.69321e-06
-5.25742e-07
4.91124e-06
-4.60222e-07
5.10123e-06
-3.94186e-07
5.26366e-06
-3.27706e-07
5.39917e-06
-2.60611e-07
5.50881e-06
-1.92617e-07
5.59414e-06
-1.23508e-07
5.65709e-06
-5.28851e-08
5.70281e-06
2.15771e-08
5.72751e-06
1.00206e-07
5.72576e-06
1.84161e-07
5.69128e-06
2.72829e-07
5.61729e-06
3.65008e-07
5.4969e-06
4.58754e-07
5.32447e-06
5.51085e-07
5.09584e-06
6.37687e-07
4.80858e-06
7.13419e-07
4.46418e-06
7.73206e-07
4.06869e-06
8.1244e-07
3.63252e-06
8.27651e-07
3.17012e-06
8.17409e-07
2.69885e-06
7.82907e-07
2.23732e-06
7.27992e-07
1.80307e-06
6.58546e-07
1.41022e-06
5.81344e-07
1.06792e-06
5.02877e-07
7.80748e-07
4.2825e-07
5.49273e-07
3.59029e-07
3.70648e-07
2.92019e-07
2.40722e-07
2.22058e-07
1.56662e-07
1.4551e-07
1.16265e-07
6.1667e-08
1.20417e-07
-2.70032e-08
1.69053e-07
-1.16231e-07
2.59532e-07
-2.02828e-07
3.86507e-07
-2.80937e-07
5.4244e-07
-3.45494e-07
7.16751e-07
-3.9075e-07
8.94626e-07
-4.08245e-07
1.05746e-06
-3.89132e-07
1.187e-06
-3.2966e-07
1.27077e-06
-2.35651e-07
1.30445e-06
-1.2265e-07
1.29199e-06
-1.14993e-08
1.24108e-06
7.75282e-08
1.15289e-06
1.33031e-07
1.01743e-06
1.68733e-07
8.04748e-07
2.27737e-07
4.7744e-07
3.46259e-07
1.18672e-08
5.23964e-07
-6.0149e-07
7.39579e-07
-1.35091e-06
9.61244e-07
-2.21131e-06
1.1696e-06
-3.14496e-06
1.34954e-06
-4.10908e-06
1.48888e-06
-5.0633e-06
1.57811e-06
-5.97272e-06
1.61303e-06
-6.80975e-06
1.59549e-06
-7.55524e-06
1.53188e-06
-8.19839e-06
1.43146e-06
-8.73575e-06
1.30454e-06
-9.16973e-06
1.16107e-06
-9.50702e-06
1.00961e-06
-9.75689e-06
8.56937e-07
-9.93006e-06
7.07708e-07
-1.0038e-05
5.64723e-07
-1.00911e-05
4.29774e-07
-1.00985e-05
3.04049e-07
-1.00687e-05
1.87628e-07
-1.00088e-05
8.0285e-08
-9.92436e-06
-1.81847e-08
-9.81769e-06
-1.0982e-07
-9.67972e-06
-1.94512e-07
-9.50759e-06
-2.75481e-07
-9.30146e-06
-3.51321e-07
-9.06265e-06
-4.22025e-07
-8.79325e-06
-4.87708e-07
-8.49529e-06
-5.48791e-07
-8.17078e-06
-6.05482e-07
-7.82172e-06
-6.57879e-07
-7.45007e-06
-7.0617e-07
-7.05758e-06
-7.50958e-07
-6.64576e-06
-7.92692e-07
-6.21597e-06
-8.31666e-07
-5.76938e-06
-8.68302e-07
-5.3068e-06
-9.03006e-07
-4.82888e-06
-9.35972e-07
-4.33649e-06
-9.66962e-07
-3.831e-06
-9.95437e-07
-3.31403e-06
-1.02077e-06
-2.78741e-06
-1.04197e-06
-2.25337e-06
-1.05762e-06
-1.71421e-06
-1.06598e-06
-1.17195e-06
-1.06562e-06
-6.28193e-07
-1.05712e-06
-8.68197e-08
-1.04444e-06
4.45338e-07
-1.02774e-06
9.61749e-07
-1.00336e-06
1.45899e-06
-9.71991e-07
1.93391e-06
-9.29658e-07
2.38307e-06
-8.74826e-07
2.80418e-06
-8.11363e-07
3.1963e-06
-7.42798e-07
3.55668e-06
-6.69996e-07
3.88207e-06
-5.93888e-07
4.16951e-06
-5.13312e-07
4.4165e-06
-4.28793e-07
4.62113e-06
-3.4219e-07
4.7821e-06
-2.55501e-07
4.89939e-06
-1.70977e-07
4.97827e-06
-9.18216e-08
5.01923e-06
-2.14037e-08
5.01699e-06
4.84961e-08
4.97674e-06
1.05098e-07
4.90282e-06
1.523e-07
4.80215e-06
1.89743e-07
4.68144e-06
2.18273e-07
4.54654e-06
2.39159e-07
4.40243e-06
2.53491e-07
4.25314e-06
2.62296e-07
4.10187e-06
2.66561e-07
3.95112e-06
2.6718e-07
3.803e-06
2.6506e-07
3.65874e-06
2.61095e-07
3.51864e-06
2.56543e-07
3.38265e-06
2.52387e-07
3.2503e-06
2.49072e-07
3.12093e-06
2.46269e-07
2.99402e-06
2.42538e-07
2.86982e-06
2.35149e-07
2.75046e-06
2.19954e-07
2.64191e-06
1.91286e-07
2.55563e-06
1.43194e-07
2.50662e-06
7.39536e-08
2.50257e-06
-5.49015e-09
2.53817e-06
-7.29072e-08
2.58741e-06
-9.43592e-08
2.60959e-06
-4.17019e-08
2.55176e-06
1.04335e-07
2.31793e-06
3.83199e-07
1.79373e-06
8.31117e-07
9.04748e-07
1.4236e-06
-2.59206e-07
1.9585e-06
-1.45166e-06
2.14617e-06
-2.4592e-06
1.98807e-06
-3.19282e-06
1.61457e-06
-3.65375e-06
1.16168e-06
-3.88567e-06
7.07149e-07
-3.93671e-06
2.81175e-07
-3.83451e-06
-1.11255e-07
-3.57016e-06
-4.79104e-07
-3.14152e-06
-8.27631e-07
-2.56099e-06
-1.14334e-06
-1.84953e-06
-1.41005e-06
-1.03405e-06
-1.60592e-06
-1.51915e-07
-1.71458e-06
7.48287e-07
-1.73993e-06
1.6183e-06
-1.68656e-06
2.42627e-06
-1.5685e-06
3.15443e-06
-1.40298e-06
3.79456e-06
-1.21468e-06
4.34175e-06
-1.02112e-06
4.79395e-06
-8.30733e-07
5.14472e-06
-6.36686e-07
5.38814e-06
-4.31619e-07
5.52575e-06
-1.7844e-07
8.737e-08
5.54564e-06
2.32186e-07
-4.75885e-07
5.65661e-07
-7.24757e-07
9.58134e-07
-9.24345e-07
1.37686e-06
-1.07414e-06
1.79372e-06
-1.16642e-06
2.19075e-06
-1.20564e-06
2.55948e-06
-1.20257e-06
2.89769e-06
-1.16876e-06
3.20654e-06
-1.11379e-06
3.48828e-06
-1.04515e-06
3.74526e-06
-9.68351e-07
3.97962e-06
-8.87108e-07
4.19313e-06
-8.03778e-07
4.38709e-06
-7.19695e-07
4.56232e-06
-6.35451e-07
4.71925e-06
-5.51116e-07
4.85796e-06
-4.66422e-07
4.97827e-06
-3.80919e-07
5.07976e-06
-2.9411e-07
5.16181e-06
-2.05554e-07
5.22402e-06
-1.15098e-07
5.26869e-06
-2.30918e-08
5.29599e-06
7.29106e-08
5.30841e-06
1.71733e-07
5.30716e-06
2.7408e-07
5.29211e-06
3.80057e-07
5.2615e-06
4.89365e-07
5.21152e-06
6.01067e-07
5.13602e-06
7.13185e-07
5.02702e-06
8.22422e-07
4.87612e-06
9.24109e-07
4.67614e-06
1.01242e-06
4.42289e-06
1.08089e-06
4.11688e-06
1.12342e-06
3.76439e-06
1.1354e-06
3.37755e-06
1.11484e-06
2.97316e-06
1.06293e-06
2.57053e-06
9.83972e-07
2.1889e-06
8.84507e-07
1.84526e-06
7.71889e-07
1.55195e-06
6.52347e-07
1.31464e-06
5.29327e-07
1.13318e-06
4.03514e-07
1.00419e-06
2.74497e-07
9.23195e-07
1.42667e-07
8.86506e-07
9.68635e-09
8.89703e-07
-1.19427e-07
9.26483e-07
-2.39609e-07
9.89801e-07
-3.44254e-07
1.07168e-06
-4.27376e-07
1.16072e-06
-4.7979e-07
1.24003e-06
-4.87552e-07
1.28974e-06
-4.38843e-07
1.29259e-06
-3.32513e-07
1.23952e-06
-1.82574e-07
1.1323e-06
-1.54327e-08
9.74097e-07
1.46702e-07
7.655e-07
2.86125e-07
4.78344e-07
4.20186e-07
6.1453e-08
5.85624e-07
-5.23346e-07
8.12536e-07
-1.27168e-06
1.09459e-06
-2.1448e-06
1.39709e-06
-3.09184e-06
1.68662e-06
-4.06582e-06
1.93523e-06
-5.01988e-06
2.12366e-06
-5.91176e-06
2.24142e-06
-6.7087e-06
2.28582e-06
-7.3914e-06
2.2608e-06
-7.95417e-06
2.17581e-06
-8.40262e-06
2.04393e-06
-8.75023e-06
1.87949e-06
-9.01469e-06
1.69592e-06
-9.21441e-06
1.50427e-06
-9.36589e-06
1.31255e-06
-9.48201e-06
1.12574e-06
-9.57137e-06
9.46298e-07
-9.63862e-06
7.74952e-07
-9.68539e-06
6.11491e-07
-9.71098e-06
4.5537e-07
-9.713e-06
3.06066e-07
-9.68857e-06
1.63197e-07
-9.63431e-06
2.60278e-08
-9.5483e-06
-1.0419e-07
-9.42874e-06
-2.2938e-07
-9.27452e-06
-3.48732e-07
-9.08807e-06
-4.61935e-07
-8.87064e-06
-5.68752e-07
-8.62357e-06
-6.69091e-07
-8.34854e-06
-7.62742e-07
-8.04729e-06
-8.50038e-07
-7.72154e-06
-9.31237e-07
-7.37293e-06
-1.00648e-06
-7.00314e-06
-1.07596e-06
-6.61419e-06
-1.13991e-06
-6.20778e-06
-1.1991e-06
-5.78525e-06
-1.25419e-06
-5.34769e-06
-1.30587e-06
-4.89597e-06
-1.35472e-06
-4.43094e-06
-1.401e-06
-3.95343e-06
-1.44447e-06
-3.46426e-06
-1.4846e-06
-2.96444e-06
-1.52059e-06
-2.45527e-06
-1.55114e-06
-1.93834e-06
-1.57455e-06
-1.41534e-06
-1.58899e-06
-8.88093e-07
-1.59286e-06
-3.59332e-07
-1.58588e-06
1.65588e-07
-1.56936e-06
6.80588e-07
-1.54274e-06
1.1822e-06
-1.50497e-06
1.66604e-06
-1.45583e-06
2.13017e-06
-1.39378e-06
2.57385e-06
-1.31851e-06
2.99509e-06
-1.2326e-06
3.39064e-06
-1.13835e-06
3.75657e-06
-1.03593e-06
4.09019e-06
-9.27507e-07
4.39132e-06
-8.1444e-07
4.65972e-06
-6.97194e-07
4.89484e-06
-5.77316e-07
5.09618e-06
-4.56834e-07
5.26323e-06
-3.38033e-07
5.39475e-06
-2.23336e-07
5.48815e-06
-1.14806e-07
5.54595e-06
-9.30514e-09
5.57079e-06
8.02544e-08
5.55934e-06
1.63753e-07
5.51319e-06
2.35891e-07
5.4349e-06
2.96564e-07
5.32856e-06
3.45497e-07
5.19918e-06
3.82876e-07
5.05213e-06
4.09351e-07
4.89275e-06
4.25939e-07
4.72599e-06
4.33941e-07
4.55612e-06
4.34929e-07
4.38656e-06
4.30652e-07
4.22012e-06
4.22989e-07
4.05884e-06
4.13663e-07
3.90404e-06
4.03871e-07
3.75643e-06
3.93879e-07
3.61632e-06
3.8265e-07
3.48394e-06
3.67525e-07
3.36014e-06
3.43753e-07
3.24735e-06
3.0408e-07
3.15016e-06
2.40378e-07
3.07449e-06
1.49629e-07
3.02618e-06
4.28211e-08
3.00155e-06
-4.82841e-08
2.98462e-06
-7.74248e-08
2.9314e-06
1.1514e-08
2.75976e-06
2.75982e-07
2.36748e-06
7.75477e-07
1.65032e-06
1.54827e-06
6.05371e-07
2.46855e-06
-5.56257e-07
3.12013e-06
-1.57725e-06
3.16717e-06
-2.34181e-06
2.75263e-06
-2.86884e-06
2.1416e-06
-3.21135e-06
1.50419e-06
-3.40305e-06
8.98848e-07
-3.44906e-06
3.27194e-07
-3.34238e-06
-2.17942e-07
-3.07623e-06
-7.45256e-07
-2.65261e-06
-1.25125e-06
-2.07779e-06
-1.71816e-06
-1.36863e-06
-2.11921e-06
-5.54469e-07
-2.42008e-06
3.22305e-07
-2.59135e-06
1.21407e-06
-2.6317e-06
2.07774e-06
-2.55023e-06
2.88249e-06
-2.37325e-06
3.61415e-06
-2.13464e-06
4.26627e-06
-1.8668e-06
4.83756e-06
-1.59241e-06
5.32944e-06
-1.32261e-06
5.74365e-06
-1.0509e-06
6.08281e-06
-7.70778e-07
6.3398e-06
-4.35434e-07
-7.22432e-08
6.49941e-06
2.82602e-07
-7.58487e-07
6.61355e-07
-1.10351e-06
1.06689e-06
-1.32988e-06
1.45813e-06
-1.46538e-06
1.81443e-06
-1.52273e-06
2.13097e-06
-1.52218e-06
2.41105e-06
-1.48265e-06
2.66047e-06
-1.41818e-06
2.88505e-06
-1.33837e-06
3.08956e-06
-1.24966e-06
3.27755e-06
-1.15634e-06
3.45155e-06
-1.06111e-06
3.61327e-06
-9.65502e-07
3.76373e-06
-8.70159e-07
3.90337e-06
-7.7509e-07
4.03214e-06
-6.79883e-07
4.14963e-06
-5.83906e-07
4.25518e-06
-4.86475e-07
4.34805e-06
-3.86984e-07
4.42749e-06
-2.84992e-07
4.49265e-06
-1.80256e-07
4.54225e-06
-7.26907e-08
4.57731e-06
3.78474e-08
4.59789e-06
1.51158e-07
4.6053e-06
2.66664e-07
4.60141e-06
3.83948e-07
4.58827e-06
5.02507e-07
4.56752e-06
6.21813e-07
4.5395e-06
7.4121e-07
4.50234e-06
8.59584e-07
4.45154e-06
9.74911e-07
4.38017e-06
1.08379e-06
4.27994e-06
1.18112e-06
4.14305e-06
1.26031e-06
3.96437e-06
1.31408e-06
3.74342e-06
1.33579e-06
3.48538e-06
1.32097e-06
3.20091e-06
1.26844e-06
2.90475e-06
1.18067e-06
2.61346e-06
1.06318e-06
2.34264e-06
9.23163e-07
2.10424e-06
7.67731e-07
1.90498e-06
6.02767e-07
1.74655e-06
4.32927e-07
1.62667e-06
2.62553e-07
1.53961e-06
9.67478e-08
1.48037e-06
-6.01926e-08
1.44342e-06
-2.02659e-07
1.42178e-06
-3.2261e-07
1.40654e-06
-4.12142e-07
1.38256e-06
-4.55803e-07
1.32837e-06
-4.33368e-07
1.22384e-06
-3.34309e-07
1.05767e-06
-1.66347e-07
8.2891e-07
4.61904e-08
5.41569e-07
2.71908e-07
1.88519e-07
4.99751e-07
-2.6575e-07
7.40395e-07
-8.64247e-07
1.01868e-06
-1.62185e-06
1.34322e-06
-2.50448e-06
1.69517e-06
-3.44987e-06
2.03997e-06
-4.39556e-06
2.34278e-06
-5.28717e-06
2.57823e-06
-6.08337e-06
2.73143e-06
-6.75786e-06
2.79816e-06
-7.30026e-06
2.78382e-06
-7.71511e-06
2.70067e-06
-8.01914e-06
2.56483e-06
-8.23651e-06
2.39318e-06
-8.39344e-06
2.20086e-06
-8.51346e-06
1.99951e-06
-8.61435e-06
1.79681e-06
-8.70691e-06
1.59682e-06
-8.79542e-06
1.40106e-06
-8.87915e-06
1.20947e-06
-8.95423e-06
1.02138e-06
-9.01539e-06
8.36104e-07
-9.05726e-06
6.53365e-07
-9.07524e-06
4.73352e-07
-9.06573e-06
2.96556e-07
-9.02616e-06
1.23624e-07
-8.9555e-06
-4.46252e-08
-8.85262e-06
-2.07076e-07
-8.71829e-06
-3.63706e-07
-8.55297e-06
-5.1405e-07
-8.35759e-06
-6.5732e-07
-8.13307e-06
-7.93275e-07
-7.88043e-06
-9.21725e-07
-7.6012e-06
-1.04197e-06
-7.29752e-06
-1.15372e-06
-6.97156e-06
-1.2572e-06
-6.6255e-06
-1.35254e-06
-6.26144e-06
-1.44001e-06
-5.88125e-06
-1.52011e-06
-5.48648e-06
-1.59387e-06
-5.07839e-06
-1.66228e-06
-4.65796e-06
-1.72631e-06
-4.22587e-06
-1.78681e-06
-3.78263e-06
-1.84424e-06
-3.3286e-06
-1.89851e-06
-2.86412e-06
-1.94908e-06
-2.38984e-06
-1.99487e-06
-1.90684e-06
-2.03414e-06
-1.41666e-06
-2.06474e-06
-9.2118e-07
-2.08447e-06
-4.22917e-07
-2.09113e-06
7.48558e-08
-2.08365e-06
5.67313e-07
-2.06181e-06
1.04974e-06
-2.02517e-06
1.51845e-06
-1.97368e-06
1.97027e-06
-1.90765e-06
2.40366e-06
-1.82717e-06
2.81795e-06
-1.7328e-06
3.2116e-06
-1.62626e-06
3.58215e-06
-1.50889e-06
3.92708e-06
-1.38086e-06
4.24402e-06
-1.24444e-06
4.53253e-06
-1.10295e-06
4.79225e-06
-9.56919e-07
5.02269e-06