/*--------------------------------*- C++ -*----------------------------------*\
| =========                 |                                                 |
| \\      /  F ield         | OpenFOAM: The Open Source CFD Toolbox           |
|  \\    /   O peration     | Version:  2112                                  |
|   \\  /    A nd           | Website:  www.openfoam.com                      |
|    \\/     M anipulation  |                                                 |
\*---------------------------------------------------------------------------*/
FoamFile
{
    version     2.0;
    format      ascii;
    arch        "LSB;label=32;scalar=64";
    class       volScalarField;
    location    "0.17";
    object      omegaU;
}
// * * * * * * * * * * * * * * * * * * * * * * * * * * * * * * * * * * * * * //

dimensions      [0 0 -1 0 0 0 0];

internalField   nonuniform List<scalar> 
12225
(
52042.4
77158.1
93584.9
98606.6
98013.5
95957.3
92368.8
88772.8
85445.8
82429
79807.1
77450.3
75509.2
73687.8
72316.4
70950.3
69919.9
69221.7
1263.19
5764.06
11570.4
16779.2
20444.4
22908.5
24361.7
25174.6
25562.1
25746.2
25745.1
25710.5
25633.2
25537.6
25399.6
25335.3
25119.3
25160.2
84.3582
321.96
826.492
1573.32
2340.33
3179.63
3895.37
4595.05
5136.93
5667.11
6050.06
6443.41
6706.93
7006.32
7176.05
7428.19
7510.38
7699.34
41.7318
59.0904
113.059
203.259
291.549
425.26
526.719
679.607
784.76
934.921
1032.12
1169.3
1251.32
1370.6
1444.64
1542.93
1562.53
1703.97
39.4702
41.4579
46.0958
59.6086
75.1124
104.784
125.787
158.01
177.752
210.994
231.534
263.747
282.834
312.814
332.399
356.711
365.357
403.377
39.6218
39.8906
40.0884
41.9165
44.0435
50.7373
55.6425
66.427
73.3457
83.5744
89.7318
99.1291
105.12
114.174
120.29
127.874
131.449
142.726
39.647
39.7146
39.813
40.0049
40.4441
41.0181
42.3797
44.7615
46.9531
50.7364
53.7537
57.6166
60.155
63.6537
66.048
69.1013
70.9041
75.0222
39.6355
39.6868
39.7382
39.8444
39.9321
40.096
40.3391
40.5818
41.1424
41.9705
42.8708
44.396
45.5834
47.2642
48.3857
49.7858
50.721
52.4433
39.6267
39.6635
39.7024
39.7773
39.8368
39.9428
40.0137
40.1343
40.2492
40.3834
40.5402
40.8981
41.1689
41.787
42.1966
42.8973
43.3424
44.062
39.6213
39.6441
39.6728
39.7292
39.7739
39.8554
39.9113
40.0012
40.0593
40.1467
40.2065
40.2943
40.3459
40.4868
40.5811
40.7417
40.9326
41.1761
39.6172
39.6295
39.6493
39.6897
39.7259
39.7878
39.8353
39.9031
39.9529
40.0212
40.0697
40.1335
40.1772
40.2374
40.2676
40.3193
40.3655
40.4154
39.6147
39.6192
39.6351
39.6599
39.6907
39.7387
39.7792
39.8325
39.8751
39.9283
39.9695
40.0206
40.0595
40.1075
40.1412
40.1841
40.2097
40.2403
39.6118
39.6135
39.6215
39.6387
39.6628
39.7
39.7338
39.7766
39.8126
39.8552
39.8892
39.9294
39.9604
39.9979
40.0258
40.0609
40.0846
40.1147
39.6093
39.6074
39.6108
39.6209
39.6382
39.6662
39.693
39.7267
39.7559
39.79
39.8175
39.8491
39.8732
39.9017
39.9221
39.9477
39.9647
39.9879
39.6089
39.601
39.6018
39.6069
39.6174
39.6373
39.6577
39.6833
39.7065
39.7329
39.7551
39.7796
39.7989
39.8204
39.836
39.8542
39.8661
39.8816
39.6076
39.5973
39.5939
39.596
39.6023
39.6144
39.6294
39.6481
39.6661
39.6861
39.7038
39.7225
39.7379
39.7541
39.7664
39.7798
39.7887
39.7993
39.606
39.5954
39.5879
39.5885
39.5917
39.5989
39.6095
39.6232
39.6369
39.6522
39.666
39.6804
39.6925
39.705
39.7147
39.7248
39.7317
39.7396
39.6055
39.5941
39.5852
39.5841
39.5859
39.5903
39.5985
39.6089
39.6202
39.6322
39.6439
39.6553
39.6657
39.6753
39.6837
39.6913
39.6976
39.7031
39.6057
39.5945
39.5858
39.5846
39.5862
39.5905
39.5986
39.6084
39.6195
39.6309
39.6423
39.653
39.6631
39.6721
39.6802
39.6871
39.6932
39.6982
39.6067
39.5971
39.5904
39.5911
39.5944
39.6014
39.6125
39.625
39.6388
39.6525
39.6662
39.6787
39.6907
39.7011
39.711
39.7192
39.727
39.7333
39.609
39.6001
39.5988
39.6013
39.6081
39.6205
39.6367
39.6536
39.6722
39.6897
39.7076
39.7235
39.7394
39.7531
39.7666
39.778
39.7894
39.7983
39.6102
39.6075
39.6098
39.6162
39.6318
39.6493
39.674
39.696
39.7228
39.7453
39.7711
39.792
39.8154
39.8335
39.8534
39.8681
39.8847
39.8963
39.614
39.6163
39.6254
39.6382
39.6687
39.689
39.7322
39.7565
39.8034
39.8298
39.8769
39.9046
39.9563
39.9884
40.0456
40.09
40.1651
40.2252
39.6194
39.6317
39.6481
39.6755
39.7272
39.7616
39.8492
39.919
40.0268
40.1566
40.3585
40.531
40.8887
41.1756
41.5937
41.9593
42.453
42.8437
39.6254
39.6558
39.7083
39.7626
40.0498
40.2846
40.8184
41.5345
42.6893
43.6633
45.4651
46.8571
48.9497
50.5463
52.6003
54.1454
56.1306
57.6033
39.657
39.6641
40.5646
41.295
44.9186
47.7029
53.7434
58.5597
67.1429
73.2924
82.4192
88.5809
97.3036
103.187
111.682
117.382
125.549
130.929
40.0201
42.6002
53.8083
70.5411
103.825
131.271
175.069
205.889
253.459
285.703
335.117
367.438
415.673
446.363
491.941
520.339
562.632
588.407
53.1821
126.49
276.422
495.892
789.443
1076.6
1419.12
1715.38
2044.09
2307.22
2594.92
2812.84
3056.07
3230.68
3434.71
3573.06
3745.09
3854.5
687.857
2394.8
4881.1
7564.63
10164.3
12291.1
13961.8
15223.5
16144.4
16791.7
17252.5
17560.9
17780.3
17913.1
18014.4
18058.7
18106.8
18092
34200.2
47703.7
60499.5
68033.7
71763.5
72351.1
71916.2
70814.8
69151.8
67406.6
65687.7
64055.2
62526.1
61120.4
59820.9
58644.8
57557.5
56580.3
11467.4
2532.5
2540.94
2549.36
2560.45
2583.62
2622.85
2673.14
2730.13
2796.93
2880.83
2988.28
3125.01
3294.62
3488.08
3693.5
3907.28
4118.26
4393.62
4667.56
4901.89
5103.13
5256.63
5374.46
5463.77
5516.02
5532.8
5521.51
5485.28
5411.42
5345.13
5274.75
5189.15
5077.99
4929.99
4730.91
4456.52
4081.66
3588.23
3087.59
2948.8
2928.93
2913.47
2887.36
2841.39
2791.04
2754.04
2728.14
2788.31
3138.34
3819.73
4428.19
4844.4
5234.38
5598.48
5897.38
6184.25
6459.95
6729.43
6929.09
7073.95
7160.11
7220.6
7256.24
7261.85
7253.78
7219.45
7129.27
6969.42
6862.54
6873.74
6924.08
7026.78
7171.13
7389.81
7719.01
7958.94
8423.63
8721.93
9205.91
9661.37
10156.9
10780
11238.5
11724.9
11744.7
11539.8
10757.2
8147.59
4293.99
4455.44
4748.14
4809
4773.26
4682.12
4566.72
4254.3
4100.6
4231.08
4469.08
5121.71
5536.01
5593.42
5745.5
7884.63
11392.1
14040.2
15908.3
17244.2
18203.4
18893.1
19386.1
19736.3
19982.7
20155.2
20274.9
20357.7
20418.3
20456.5
20477.7
20478.3
20444.3
20378.9
20265.5
20114.5
19911.9
19672.3
19387.2
19080.1
18752.8
18404
18011.3
17600.3
17155.2
16689.9
16193.7
15673
15128.5
14553.7
13951
13314.1
12647
11955.4
11250.8
10555.9
9887.23
9337.37
9055.64
9020.84
9021.36
9048.95
9098.62
9164.45
9238.41
9316.39
9395.86
9474.3
9548.36
9618.53
9689.48
9767.61
9860.25
9976.93
10114.5
10269.6
10439.4
10627.3
10825.2
11042.3
11257.9
11500.6
11719.8
11992.2
12197.4
12511.2
12686.6
13010.6
13154.1
13467
13412.4
11465.1
2947.39
1519.77
1073.11
900.216
807.597
750.636
711.959
693.049
691.64
699.737
718.617
744.409
773.696
804.754
835.772
865.788
893.192
919.344
943.337
965.845
983.486
999.616
1011.22
1019.33
1023.32
1026.6
1030.72
1034.1
1058.03
1125.55
1262.73
1471.91
1749.32
2087.34
2460.76
2833.72
3132.14
3141.04
2904.3
2385.38
1482.08
1007.85
930.352
956.565
1237.36
1882.98
2380.91
2597.37
2813.48
2907.19
2838.57
2494.89
2149.76
1680.1
1417.76
1304.49
1274.51
1305.77
1343.04
1374.89
1424.73
1480.67
1546.05
1632.83
1738.07
1861.41
1983.84
2082.59
2133.56
2130.3
2115.28
2118.15
2134.51
2158.68
2180.74
2191.1
2189.38
2182.36
2164.12
2139.39
2083.43
2105.66
2324.52
2875.22
4156.73
5319.14
7791.25
7709.43
6736.3
5143.7
3549.45
2543.59
2337.82
2411.53
2415.34
2351.45
2452.94
2676.81
2877.43
3736.24
6268.22
7575.96
8223.18
9410.54
10049.8
10102.1
8752.89
7658.85
6454.26
5480.53
4681.43
4070.54
3641.94
3341.24
3158.87
3040.59
2972.99
2920.61
2869.67
2802.75
2723.39
2648.24
2597.78
2570.88
2558.62
2547.12
2536.53
2527.2
2518.84
2510.92
2503.18
2494.08
2482.95
2470.04
2455.43
2437.55
2416.07
2390.93
2361.64
2326.66
2286.77
2240.65
2188.69
2131.01
2068.67
2005.22
1948.86
1898.65
1854.55
1818.59
1791.2
1771.47
1758.05
1748.86
1743.56
1741.53
1739.96
1738.97
1738.52
1738.24
1738.21
1739.7
1743.07
1748.69
1757.08
1768.45
1782.82
1800.7
1820.85
1844.16
1867.87
1893.49
1919.96
1945.56
1970.92
2013.97
2044.11
2137.83
2751.8
11467.4
3144.21
1558.81
1059.49
838.797
720.538
653.752
627.765
624.184
633.684
653.389
678.594
706.593
735.581
765.129
792.603
817.691
840.474
861.133
879.204
896.044
907.415
919.886
920.132
916.999
909.407
897.013
882.657
866.338
854.046
842.944
846.917
864.953
910.196
1005.13
1171.24
1432.22
1812.83
2198.59
2527.23
2399.09
1966.3
1276.1
1073.22
1141.89
1478.16
1822.07
1969.92
2004.23
1927.83
1654.88
1465.55
1220.87
1072.66
1004.76
984.698
984.263
1013.25
1056.87
1102.19
1164.92
1236.82
1321.68
1421.83
1547.05
1686.7
1814.6
1901.71
1901.58
1845.46
1796.15
1818.14
1864.54
1916.55
1956.47
1985.79
1999.96
1999.94
1991
1971.77
1929.94
1888.89
1849.42
1777.47
1789.61
1917.31
2282.2
3157.27
5425.95
6106.39
5762.38
4747.41
3403.34
2790.6
2578.65
2446.28
2424.6
3044.9
4277.3
5621.09
6185.79
6984.15
7358.29
7521.38
7359.88
5451.2
4407.74
3339.63
2815.24
2373.92
2167.2
2051.91
1997.63
1974.89
1967.03
1964.49
1970.22
1975.15
1978.81
1983.15
1986.08
1988.92
1995.31
2001.36
2014.73
2025.13
2041.48
2056.69
2073.11
2091.15
2106.7
2122.23
2135.02
2146.41
2154.22
2159.62
2161.17
2161.2
2156.89
2148.89
2135.47
2117.19
2092.41
2060.64
2020.64
1971.91
1913.53
1845.84
1771.59
1692.83
1614.88
1545.64
1483.89
1429.17
1381.62
1340.57
1305
1273.96
1246.7
1222.82
1202.43
1185.15
1170.14
1156.89
1145.01
1134.53
1124.58
1115.56
1106.86
1099.49
1091.95
1085.7
1078.44
1072.94
1067.32
1063.23
1060.34
1060.86
1067.01
1140.85
11496.2
3005.34
1295.62
814.52
665.676
625.464
619.489
627.963
649.72
679.374
712.991
747.659
781.264
812.428
839.048
863.249
886.032
907.519
929.41
950.206
971.874
973.42
967.1
953.642
934.777
913.667
890.102
866.279
844.977
827.24
812.517
804.68
807.004
815.646
837.119
884.784
984.165
1190.86
1499.14
1945.28
2252.47
2115.21
1615.55
1224.67
1230.76
1455.45
1543.9
1531.84
1455.71
1283.8
1115.39
1018.32
944.97
918.969
912.464
916.438
942.965
981.486
1026.24
1084.72
1155.89
1241.91
1346.22
1471.56
1605.38
1704.75
1727.76
1712.83
1677.04
1671.15
1696.76
1756.17
1822.03
1867.27
1903.25
1927.86
1932.63
1923.47
1891.67
1845.41
1806.51
1776.48
1730.49
1705.83
1649.31
1647.08
1697.96
1922.89
2656.94
4367.11
5203.41
4893.6
4224.92
3562.93
3094.94
2773.54
3163.99
4820.92
5463.1
5704.13
6132.01
6350.16
6016.55
4935.85
3673.8
2835.01
2381.37
2110.41
2009.82
1978.97
1979.1
2001.62
2013.19
2030.42
2034.98
2035.75
2031.57
2022.31
2013.83
2005.52
1996.16
1990.82
1989.39
1989.08
1991.87
2004.99
2024.97
2043.5
2063.34
2084.51
2103.37
2119.9
2133.54
2143.61
2150.83
2154.56
2155.05
2154.94
2153.57
2153.53
2151.07
2144.04
2133.18
2118.83
2099.75
2075.01
2045.08
2009.38
1964.49
1908.97
1839.37
1753.38
1660.87
1570.74
1489.25
1417.48
1354.01
1298.79
1252.04
1213.28
1181.17
1154.69
1132.67
1114.14
1098.03
1083.85
1070.68
1058.32
1045.87
1033.69
1020.6
1007.23
992.236
977.367
960.803
946.937
933.089
914.625
899.953
909.761
11589.6
2004.71
824.293
639.914
609.524
609.982
627.766
657.065
692.545
729.77
765.322
797.361
825.603
850.841
874.926
899.445
925.398
954.12
995.388
1020.46
1012.63
992.038
960.707
918.224
868.134
817.497
773.205
740.444
716.513
702.205
701.614
705.697
715.692
734.449
759.314
790.42
837.149
938.115
1138.81
1505.82
1942.42
2094.99
1755.49
1255.27
1214.12
1292.39
1281.81
1228.02
1125.05
1005.88
931.301
893.942
876.52
872.362
874.691
893.623
927.244
967.015
1016.67
1080.63
1158.26
1251.53
1361.84
1488.13
1590.95
1626.96
1641.08
1642.31
1637.81
1648.72
1688.86
1749.98
1809.69
1851.41
1888.33
1911.95
1914.11
1895.99
1851.23
1791.23
1726.04
1668.19
1620.35
1592.6
1575.43
1540.27
1543.98
1595.85
1828.94
2529.16
3875.43
4474.51
4241.22
3839.64
3330.56
3126.73
4494.66
5222.55
5323.36
5383.81
5338.9
4582.71
3632.04
2869.22
2306.19
2059.74
1963.85
1941.26
1982.03
2017.37
2075.72
2100.54
2111.14
2112.6
2097.77
2073.48
2051.33
2026.68
1999.78
1977.56
1967.35
1964.03
1963.61
1969.53
1989.14
2018.42
2048.9
2078.82
2108.51
2136
2159.66
2175.21
2181.68
2183.44
2179.73
2168.12
2151.12
2131.27
2109.46
2087.02
2070.35
2060.73
2054.69
2052.05
2052.98
2049.49
2037.63
2018.18
1990.72
1955.27
1913.36
1864.15
1804.38
1733.38
1653.81
1570.79
1490.16
1414.72
1345.85
1284.79
1232.29
1188.29
1152.19
1123.16
1100.03
1081.68
1066.34
1052.6
1039.43
1026.49
1012.88
998.235
981.363
963.124
942.468
922.592
898.886
883.47
841.791
837.279
11671.3
1802.52
750.41
620.015
609.416
628.798
662.14
701.185
739.951
774.621
804.703
831.911
858.326
885.759
915.993
950.884
991.614
1049.96
1062.58
1042.93
991.883
889.124
789.477
709.671
650.49
612.367
587.953
572.458
563.3
564.001
568.93
581.073
604.671
635.111
674.434
717.999
763.195
828.865
963.768
1232.57
1665.05
2025.1
1803.18
1250.51
1135.27
1132.41
1102.73
1037.97
966.593
904.018
868.866
852.943
847.102
846.664
855.279
880.145
915.507
956.971
1009.82
1076.41
1156.59
1252.5
1363.17
1481.54
1569.19
1609.13
1627.07
1632.06
1632.88
1647.22
1690.83
1755.85
1818.63
1871.51
1926.94
1961.43
1965.54
1939.82
1880.33
1795.49
1710.33
1634.2
1570.76
1533.75
1513.93
1484.62
1473.13
1484.75
1563.23
1853.91
2671.9
3592.2
3902.6
3782.64
3390.53
3394.71
5057.4
5128.5
4866.11
4380.03
3776.82
3007.97
2404.27
2078.54
1927.1
1885.87
1914.02
1971.08
2063.12
2106.49
2125.83
2130.22
2126.52
2104.82
2080.25
2057.49
2037.29
2021.26
2009.53
2005.13
2005.1
2009.61
2027.96
2063.82
2110.5
2157.07
2202.79
2248.61
2289.76
2323.34
2349.26
2357.09
2357.32
2339.65
2309.28
2271.66
2228.66
2181.29
2134.12
2088.06
2050.08
2014.18
1982.89
1954.28
1928.94
1915.5
1916.3
1923.82
1927.14
1925.71
1910.27
1879.55
1838.85
1789.45
1730.64
1663.68
1592.12
1517.39
1441.99
1368.68
1300.01
1238.08
1184.21
1138.93
1101.89
1071.96
1047.72
1028.75
1012.74
998.21
984.569
970.706
954.275
936.655
912.017
893.478
855.593
835.358
787.338
766.025
11748.7
1783.51
750.856
631.104
627.485
660.42
701.039
740.199
774.384
804.251
832.709
862.036
893.67
929.634
972.797
1024.78
1085.09
1104.25
1063.27
929.863
768.153
684.402
629.541
588.205
560.449
542.683
530.986
523.621
519.122
519.411
522.19
529.842
546.347
572.533
611.524
658.055
707.665
760.82
866.118
1078.06
1473.23
1875.87
1802.13
1225.69
1037.37
1006.34
976.94
930.883
894.178
863.209
843.408
832.739
829.466
829.844
840.665
867.327
903.375
946.176
1000.43
1067.19
1148.74
1245.3
1353.92
1464.3
1557.35
1605.19
1627
1636.27
1644.52
1668.65
1724.33
1799.89
1871.99
1936.37
2003.47
2071.15
2121.51
2148.26
2106.44
1995.82
1834.38
1677.96
1560.79
1503.77
1484.35
1469.06
1461.89
1466.57
1500.4
1632.82
2048.76
2805.22
3381.1
3521.35
3191.65
3886.61
5032.18
4774.53
3871.99
3290.49
2719.34
2191.81
1949.65
1849.29
1823.36
1882.62
1950.94
2056.25
2101.14
2120.43
2127.4
2127.47
2110.07
2089.24
2085.5
2085.66
2087.24
2092.34
2099.52
2109.35
2127.39
2157.08
2202.86
2258.95
2315.4
2369.71
2421.43
2463.74
2492.84
2500.96
2498.6
2479.27
2445.51
2403.2
2353.89
2303.36
2252.42
2198.03
2144.54
2091.08
2043.28
1999.3
1961.04
1925.84
1890.4
1852.15
1810.31
1783.6
1780.98
1792.04
1808.3
1818.23
1817.67
1794.82
1751.76
1699.36
1638.99
1574.71
1508.34
1439.06
1368.07
1298.08
1232.17
1172.9
1121.45
1077.64
1039.56
1005.28
975.222
949.814
927.941
909.041
889.073
871.936
843.24
825.352
780.818
754.569
700.587
676.107
11905.3
1780.56
761.149
651.756
654.252
694.237
734.709
770.488
801.738
831.281
861.634
894.611
933.407
981.813
1041.56
1105.38
1131.86
1091.13
905.764
746.848
676.002
627.443
582.36
550.758
532.346
520.156
512.08
507.167
504.052
503.322
504.85
509.314
519.097
537.928
570.614
616.641
672.072
725.62
817.062
995.371
1361.91
1759.07
1769.51
1189.72
954.903
913.549
891.45
869.53
853.282
840.337
826.565
818.249
815.949
816.842
828.64
855.011
889.229
930.929
983.974
1049.51
1129.07
1221.04
1323.52
1431.22
1533.26
1607.17
1647.59
1674.22
1692.18
1712.58
1757.33
1822.91
1885.29
1950.84
2021.65
2097.22
2170.95
2244.47
2308.01
2340.15
2236.49
2026
1722.54
1538.25
1460.21
1449.66
1455.57
1467.31
1500.77
1595.76
1857.67
2417.99
2995.58
2995.8
3041.79
4553.12
4866.18
4042.8
3013.17
2557.49
2092.59
1869.48
1785.95
1766.57
1823.02
1908.18
2025.98
2077.15
2100.88
2110.86
2111.2
2092.66
2086.21
2092.88
2111.91
2139.21
2171.07
2201.73
2231.23
2261.73
2298.51
2344.49
2397.94
2452.39
2503.34
2544.75
2572.06
2583.37
2584.95
2571.55
2545.23
2509.29
2464.35
2411.4
2350.39
2282.32
2212.14
2145.03
2086.06
2033.21
1989.9
1953.06
1922.24
1894.41
1863.92
1826.83
1780.33
1725.63
1672.19
1653.38
1658.74
1682.39
1706.65
1721.42
1722.61
1703.85
1655.39
1599.34
1540.42
1480.27
1416.82
1349.23
1279.87
1212.65
1150.83
1095.93
1047.18
1002.56
960.404
920.043
881.232
845.888
811.318
784.456
746.267
724.288
672.967
645.557
590.661
565.593
12071.5
1787.44
777.937
673.285
681.005
723.458
761.974
794.98
824.444
853.452
885.14
923.218
972.228
1035.33
1107.9
1139.75
1130.11
988.315
802.436
709.843
659.111
608.972
562.475
537.225
522.471
511.25
504.701
500.794
497.821
496.733
498.141
503.137
512.131
527.885
553.883
591.899
641.072
693.389
780.835
952.355
1300.62
1660.46
1674.99
1150.7
886.648
845.332
832.661
826.888
824.479
819.99
811.062
804.481
802.823
804.276
816.236
839.672
870.275
911.17
964.671
1030.51
1107.75
1195.03
1292.61
1398.49
1505.06
1596.53
1656.7
1693.61
1723.73
1748.84
1776.96
1824.61
1883.45
1948.2
2017.96
2095.67
2175.32
2260.18
2353.93
2451.45
2514.31
2528.79
2343.8
1986.93
1643.41
1513.97
1486.86
1485.42
1517.44
1613.77
1868.43
2350.3
2683.16
2781.3
3493.72
4618.37
4473.87
3089.01
2405.14
2072.61
1819.24
1733.32
1714.04
1751.69
1840.69
1965.72
2040.23
2071.57
2082.67
2080.36
2054.67
2040.6
2045.06
2065.96
2101.54
2146.18
2196.6
2251.75
2307.99
2364.83
2421.11
2472.14
2514.46
2547.03
2575.55
2598.59
2610.71
2614.93
2604.54
2579.75
2545.84
2500.84
2441.12
2361.42
2267.05
2172.04
2085.33
2013.57
1954.42
1908.84
1876.21
1855.42
1845.11
1839.57
1827.84
1803.78
1762.08
1704.79
1637.28
1565.05
1522.74
1520.06
1553.02
1599.35
1629.75
1638.57
1635.46
1603.87
1552.63
1497.92
1442.56
1383.9
1319.13
1249.89
1180.67
1115.61
1057.26
1004.88
955.983
908.948
862.662
817.844
771.733
729.879
679.005
642.914
584.204
553.818
497.344
467.182
12263.1
1802.42
795.379
693.681
704.469
746.917
782.314
811.573
838.036
865.961
899.086
941.388
997.111
1069.92
1135.97
1153.15
1114.55
955.922
784.222
708.379
660.548
603.86
557.785
535.693
520.892
509.356
503.468
499.992
498.496
498.262
500.646
506.137
515.345
530.969
555.874
591.728
635.53
690.568
782.965
959.414
1304.53
1580.07
1574.84
1097.73
831.036
794.124
788.728
792.04
799.455
799.119
793.882
788.555
787.277
789.154
800.361
820.185
847.902
888.789
943.553
1009.63
1084.88
1168.41
1260.24
1359.14
1461.88
1561.11
1642.96
1694.36
1729.27
1759.91
1789.38
1821.29
1867.21
1915.46
1967.82
2034.42
2112.24
2204.62
2322.4
2446.07
2570.35
2680.18
2727.93
2724.18
2501.58
2069.95
1751.08
1649.5
1632.06
1710.5
1956.67
2373.42
2632.41
3082.72
4153.91
4442.05
3610.45
2431.63
2007.5
1793.81
1686.33
1661.6
1676.22
1758.74
1874.65
1983.4
2030.72
2045.45
2041.96
2017.53
1979.21
1967.98
1971.4
1990.97
2029.7
2078.28
2131.56
2192.78
2259.26
2329.16
2400.53
2465.62
2511.65
2539.36
2559.69
2573.74
2579.23
2575.93
2555.68
2519.88
2466.86
2401.34
2321.67
2231.33
2133.63
2031.98
1937.89
1858.74
1798.51
1756.15
1728.81
1718.3
1721.95
1744.92
1762.33
1765.88
1746.76
1687.55
1617.22
1540.2
1457.37
1396.93
1380.68
1404.78
1477.18
1535.64
1561.61
1564.04
1546.55
1500.78
1450.89
1399.11
1343.58
1280.62
1210.11
1136.78
1066.34
1002.95
946.705
895.892
848.181
801.608
753.375
705.441
653.213
607.199
551.681
509.73
454.592
415.456
12464.6
1818.1
810.207
709.949
721.45
761.771
793.341
819.268
843.699
870.719
904.276
948.226
1006.42
1081.9
1148.99
1167.11
1124.3
968.93
830.053
767.125
711.61
638.512
586.475
560.587
537.572
522.986
516.06
511.504
509.45
508.854
511.529
517.379
526.668
542.197
565.613
598.698
641.349
699.375
800.019
988.77
1328.36
1514.77
1480.24
1028.55
786.765
754.073
751.403
761.75
776.309
777.844
774.816
770.338
769.222
771.011
780.563
796.888
822.323
862.945
918.88
986.408
1062.32
1145.13
1233.55
1325.08
1417.25
1508.18
1593.88
1665.59
1717.62
1757.99
1792.62
1826.5
1862.73
1905.3
1946.15
1989.19
2036.27
2087.89
2153.51
2267.48
2426.51
2616.16
2794.29
2896.12
2923.76
2905.72
2709.26
2441.49
2272.74
2210.83
2349.08
2658.56
3121.92
3796.56
4096.35
3951.16
2628.4
2004.93
1761.02
1651.82
1614.87
1610.81
1669.1
1765.72
1892.34
1973.36
2001.61
2003.19
1990.31
1951.15
1908.64
1886.76
1884.28
1894.47
1921.92
1961.46
2008.49
2062
2120.79
2183.53
2249.14
2317.41
2382.36
2431.52
2456.42
2455.74
2444.28
2419.69
2383.89
2332.68
2262.44
2179.83
2099.62
2018.8
1932.14
1841.07
1758.16
1696.75
1656.61
1632.58
1619.59
1619.67
1638.23
1664.7
1684.7
1703.28
1707.8
1673.99
1582.77
1501.9
1426.55
1342.59
1276.25
1249.88
1258.09
1338.72
1425.61
1475.49
1486.13
1481.71
1446.46
1400.21
1351.82
1296.03
1229.9
1154.11
1074.48
997.884
929.448
871.073
821.644
777.49
733.692
687.91
638.89
590.38
538.551
491.451
438.761
394.439
12683
1839.16
821.307
719.009
727.358
764.686
792.872
815.213
835.585
860.506
894.635
940.819
1001.27
1076.47
1151.72
1176.52
1170.24
1080.35
919.321
834.018
784.971
717.521
647.076
606.766
575.343
552.645
542.236
536.435
533.96
533.348
536.388
542.846
551.586
566.895
586.797
616.751
660.473
727.057
845.055
1063.1
1359.84
1446.62
1376.35
951.809
749.83
722.102
720.912
736.097
754.477
756.967
754.598
750.076
748.794
749.845
757.305
771.124
794.767
834.295
890.34
959.622
1037.72
1121.8
1209.82
1298.59
1384.54
1466.06
1542.78
1613.66
1676.84
1731.8
1777.46
1819.13
1859.09
1900.62
1943.32
1981.98
2021.65
2060.75
2100
2144.25
2209.08
2310.24
2478.96
2703.04
2903.31
3018.67
3060.84
3054.85
3030.23
3028.45
3118.42
3306.91
3560.91
3745.55
3757.72
2872.07
2071.33
1750.99
1622.46
1572.37
1559.22
1591.33
1665.8
1769.59
1885.37
1947.8
1961.66
1962.07
1936.42
1890.45
1849.6
1820.77
1809.68
1811.78
1827.64
1856.02
1892.98
1935.1
1980.02
2027.12
2072.43
2115.35
2160.28
2194.66
2222.29
2219
2203.43
2167.23
2115.96
2055.1
1983.5
1906.71
1826.19
1748.88
1681.58
1630.13
1596.18
1577.77
1570.45
1568.53
1571.44
1578.84
1605.94
1638.88
1655.71
1661.51
1662.09
1649.37
1552.96
1438.25
1358.37
1293.67
1222.19
1154.49
1125.48
1125.25
1197.71
1305.91
1376.21
1401.13
1400.96
1382
1340.2
1294.02
1236.36
1162.89
1077.21
987.687
904.803
835.229
780.833
738.115
700.724
662.387
621.215
576.941
530.251
482.649
432.341
386.215
12886.9
1868.08
828.22
720.253
725.783
760.679
784.604
800.234
814.182
835.375
866.614
909.814
966.229
1036.39
1120.3
1174.23
1186.92
1162.19
1073.5
952.402
897.798
842.801
767.81
707.305
656.869
613.105
590.087
577.032
570.904
568.573
568.415
574.341
583.349
598.41
619.948
653.482
704.54
789.385
938.075
1204.94
1365.61
1397.69
1282.47
869.605
721.334
698.876
697.782
712.097
734.03
737.956
735.722
730.511
727.871
727.96
733.085
745.05
766.746
803.736
858.167
927.733
1007.08
1092.32
1181.37
1270.46
1356.87
1439.19
1516.51
1588.54
1655.86
1714.74
1762.93
1805.68
1846.14
1887.02
1927.58
1969.62
2007.03
2046.29
2081.52
2114.33
2150.31
2198.7
2271.77
2382.27
2553.61
2762.98
2934.28
3063.51
3121.12
3179.01
3262.8
3358.32
3453.15
3384.3
2872.21
2159.55
1770.63
1604.09
1541.49
1524.51
1535.93
1584.55
1659.68
1764.03
1862.59
1906.95
1924.46
1916.86
1887.42
1840.1
1799.6
1771.68
1756.98
1758.17
1766.53
1786.31
1816.07
1849.54
1882.41
1917.71
1948.17
1971.38
1992.61
1996.34
1991.37
1979.69
1955.72
1920.7
1875.42
1821.33
1764.41
1704.81
1654.86
1616.09
1587.31
1566.39
1552.31
1546.57
1546.96
1549.71
1557.03
1568.64
1599.34
1632.13
1646.94
1646.51
1638.9
1608.45
1493.31
1370.25
1266.87
1198.74
1152.41
1094.87
1035.8
1006.91
1005.35
1051.3
1176.89
1266.32
1304.83
1307.84
1299.22
1265.73
1218.27
1152.11
1064.79
964.747
867.176
785.024
724.203
682.008
651.521
623.408
593.317
557.93
519.333
475.522
428.535
382.214
13065
1907.78
833.566
717.74
718.3
747.648
763.393
771.434
780.936
797.129
823.647
862.246
913.038
975.136
1048.53
1133.78
1181.25
1192.11
1168.04
1105.82
1024.96
989.445
944.545
884.314
828.839
763.58
703.155
666.04
646.839
636.412
633.073
633.184
643.79
660.588
688.589
734.01
808.218
937.223
1142.56
1302.85
1357.15
1354.43
1156.64
791.34
694.592
678.213
677.249
691.051
713.271
718.36
716.471
711.139
706.64
705.563
708.509
718.776
737.72
770.056
819.165
885.688
965.802
1053.35
1144.26
1235.78
1324.71
1411.01
1495.15
1575.74
1650.18
1717.58
1772.96
1816.11
1853.13
1887.55
1924.25
1960.93
1994.53
2028.77
2059.93
2090.62
2120.24
2151.29
2191.69
2243.29
2320.98
2426.02
2564.46
2724.98
2886.81
2984.99
3031.07
3053.11
2919.11
2636.76
2207.97
1811.38
1627.35
1548.27
1520.58
1514.56
1535.4
1584.6
1658.76
1755.39
1826.96
1874.13
1883.11
1873.7
1841.82
1796.6
1758.33
1731.04
1720.95
1722.17
1729.27
1747.1
1772.69
1800.99
1827.13
1852.9
1874.32
1889.26
1899.42
1896.04
1885.06
1862.05
1831.35
1795.37
1752.39
1710.84
1667.14
1628.2
1599.52
1579.58
1565.12
1553.69
1545.86
1544.21
1546.4
1552.16
1565.22
1585.23
1619.78
1645.15
1651.61
1643.94
1620.36
1550.73
1385.76
1249.92
1153.69
1083.96
1040.8
1014.99
974.458
921.096
892.623
892.037
912.28
1030.54
1138.66
1188.35
1196.26
1190.58
1168.67
1113.91
1030.67
923.657
812.635
718.546
651.84
610.484
587.242
571.13
554.693
531.912
504.125
466.849
424.576
378.934
13210.5
1974.2
842.248
709.18
701.069
721.077
730.738
734.799
738.779
748.843
769.022
801.09
845.242
900.206
963.852
1036.13
1120.56
1177.41
1194.03
1184.9
1142.03
1083.03
1055.3
1035.74
1012.9
995.375
963.669
921.668
871.47
839.171
822.619
816.257
817.649
848.596
891.486
968.271
1070.58
1196.39
1289.54
1329.59
1336.7
1252
928.705
728.908
675.938
667.006
666.559
677.795
699.484
705.926
703.847
698.633
692.571
688.789
689.169
695.128
710.197
736.685
777.845
836.902
913.199
1000.62
1093.42
1188.82
1283.94
1377.9
1473.26
1570.4
1667.58
1756.59
1836.05
1902.77
1949.78
1977.53
1993.06
2005.75
2024.2
2045.03
2065.48
2090.08
2114.14
2136.55
2160.94
2183.65
2214.7
2259.53
2319.16
2385.43
2455.81
2505.18
2525.88
2484.71
2350.45
2146.02
1889.47
1702.93
1605.87
1551.23
1528.82
1523.29
1545.21
1592.83
1673.93
1745.66
1804.58
1838.15
1837.77
1826.05
1791.67
1751.5
1717.13
1696.97
1692.71
1694.3
1702.04
1720.63
1743.34
1768.09
1791.16
1811.2
1825.54
1833.8
1832.66
1827.84
1816.03
1794.57
1764.89
1729.92
1689.42
1652.12
1623.98
1603.11
1587.65
1575.99
1567.84
1563.54
1567.26
1572.51
1585.12
1601.83
1633.06
1666.67
1691.73
1688.5
1672.57
1638.46
1572.36
1421.81
1235.4
1077.82
983.674
942.015
914.913
899.228
889.983
865.725
815.019
783.079
781.003
793.457
864.265
985.336
1047.02
1057.23
1051.57
1029.03
967.724
858.834
738.316
635.3
565.905
528.051
512.102
507.632
505.764
500.169
486.495
458.462
420.654
376.191
13277.3
2063.49
854.63
690.351
675.702
685.782
691.272
692.056
691.837
694.725
706.523
730.289
766.202
813.411
870.377
934.574
1004.36
1082.19
1162.1
1196.21
1203.3
1181.83
1133.57
1102.66
1088.77
1082.79
1081.88
1091.41
1096.1
1100.09
1100.22
1103.65
1116.53
1135.93
1169.46
1209.78
1252.26
1288.09
1303.63
1306.34
1237.95
1009.01
786.32
697.27
672.792
667.485
667.011
675.593
687.219
690.851
688.721
683.663
677.639
672.562
671.37
673.982
683.449
704.756
737.524
786.079
855.096
941.392
1029.22
1116.6
1215.29
1323.68
1431.91
1541.03
1648.41
1752.51
1849.67
1938.73
2022.14
2101.1
2164.64
2197.09
2207.16
2186.99
2167.57
2159.32
2154.08
2160.83
2170.14
2179.26
2190
2204.29
2224.19
2243.15
2265.81
2277.26
2267.5
2212.59
2113.94
1983.65
1839.28
1711.77
1629.56
1583.94
1563.75
1559.06
1580.7
1636.11
1692.33
1739.49
1779.28
1786.71
1781.26
1762.99
1731.67
1700.44
1676.91
1668
1667.77
1670.99
1682.39
1701.4
1721.08
1742.22
1760.92
1774.18
1782.97
1782.43
1777.41
1764.3
1741.69
1712.03
1681.32
1656.95
1637.99
1624.23
1613.11
1603.64
1598.96
1602.31
1611.69
1624.41
1645.7
1670.56
1700.36
1729.65
1747.7
1736.14
1719.14
1699.82
1661.95
1577.2
1415.48
1191.49
1002.21
868.417
790.301
768.414
772.959
781.771
781.822
777.66
768.361
723.097
680.262
670.457
677.894
705.068
800.621
860.331
869.871
861.949
836.104
753.355
636.058
535.036
470.79
442.571
437.2
442.02
453.425
459.337
460.331
453.057
419.282
374.442
13253.7
2351.19
894.148
679.106
644.226
649.298
651.059
647.941
642.567
639.995
642.434
654.91
680.468
719.786
770.323
827.067
890.269
961.144
1035.29
1114.51
1185.56
1212.07
1214.36
1182.16
1133.51
1109.62
1098.19
1097.01
1111.28
1135.81
1152.5
1163.98
1183.61
1202.16
1218.36
1237.1
1248.94
1254.42
1230.4
1153.85
983.32
818.484
725.922
689.773
676.339
672.483
671.863
677.421
685.025
684.85
682.099
676.263
670.6
665.611
663.167
663.689
667.315
677.97
700.814
737.46
797.563
876.255
962.837
1056.46
1148.86
1244.93
1355.3
1476.34
1591.37
1699.14
1804.82
1910.09
2011.66
2109.82
2204.82
2298.36
2394.73
2454.16
2482.91
2433.31
2358.41
2296.11
2266.94
2251.63
2245.6
2240.07
2229.82
2229.36
2232.06
2229.54
2217.07
2175.91
2100.54
1992.66
1873.12
1771.58
1709.27
1674.41
1654.09
1648.35
1654.33
1674.89
1699.98
1725.43
1732.94
1730.21
1720.27
1700.79
1679.05
1659.84
1650.07
1648.92
1650.61
1656.23
1669.35
1686.83
1705.35
1721.9
1735.54
1739.75
1738.17
1730.96
1713.85
1690.01
1670.07
1655.69
1645.97
1638.1
1632.73
1632.38
1639.52
1653.03
1675.81
1708.06
1743.91
1783.39
1822.19
1855.21
1844.6
1821.21
1782.93
1744.21
1702.4
1648.08
1555.35
1358.52
1097.89
863.651
704.29
619.543
603.392
609.418
626.559
666.025
688.73
692.977
690.643
679.646
640.552
591.667
565.314
563.756
573.165
618.781
640.81
639.477
625.322
582.052
493.83
418.991
374.802
360.847
364.024
389.357
412.559
426.388
431.596
431.664
417.02
373.414
13140.6
3035.28
1020.09
693.653
625.167
615.001
616.871
614.065
607.029
599.322
594.739
596.56
607.988
631.871
670.345
722.252
780.583
845.916
916.092
986.414
1055.39
1126.21
1202.39
1243.3
1250.66
1217.03
1160.92
1123.59
1088.87
1071.84
1067.21
1071.52
1084.99
1092.63
1098.04
1100.24
1083.63
1048.29
983.447
899.739
814.82
751.064
715.95
695.227
686.814
684.285
682.899
684.468
688.305
687.608
684.779
679.15
673.754
669.001
666.243
666.26
668.207
673.913
686.76
706.036
742.608
815.652
897.846
976.974
1072.61
1176.23
1283.23
1396.47
1509.72
1621.61
1731.47
1831.4
1929.77
2041.19
2159.91
2282.21
2404.1
2519.38
2633.12
2723.69
2770.86
2703.44
2568.29
2438.66
2368.64
2329.65
2310.73
2293.74