/*--------------------------------*- C++ -*----------------------------------*\
| =========                 |                                                 |
| \\      /  F ield         | OpenFOAM: The Open Source CFD Toolbox           |
|  \\    /   O peration     | Version:  2112                                  |
|   \\  /    A nd           | Website:  www.openfoam.com                      |
|    \\/     M anipulation  |                                                 |
\*---------------------------------------------------------------------------*/
FoamFile
{
    version     2.0;
    format      ascii;
    arch        "LSB;label=32;scalar=64";
    class       surfaceScalarField;
    location    "0.19";
    object      ddtCorrDdt0(phi);
}
// * * * * * * * * * * * * * * * * * * * * * * * * * * * * * * * * * * * * * //

dimensions      [0 3 -2 0 0 0 0];

oriented        oriented;

internalField   nonuniform List<scalar> 
25468
(
-1.39562e-10
1.42948e-10
-3.82356e-10
2.55319e-10
-6.99576e-10
3.31219e-10
-1.07746e-09
3.92976e-10
-1.4525e-09
3.91005e-10
-1.83542e-09
3.99574e-10
-2.26291e-09
4.44848e-10
-2.73384e-09
4.88536e-10
-3.25275e-09
5.384e-10
-3.76247e-09
5.30214e-10
-4.26717e-09
5.29198e-10
-4.85979e-09
6.20125e-10
-5.39372e-09
5.66577e-10
-5.90213e-09
5.45695e-10
-6.5177e-09
6.59353e-10
-7.19641e-09
7.28466e-10
-7.8818e-09
7.42117e-10
-8.53435e-09
7.15024e-10
-9.16978e-09
7.02677e-10
-9.80376e-09
7.0359e-10
-1.04519e-08
7.16493e-10
-1.11145e-08
7.29212e-10
-1.17542e-08
7.01861e-10
-1.23598e-08
6.65252e-10
-1.30267e-08
7.25429e-10
-1.36518e-08
6.8285e-10
-1.43247e-08
7.31211e-10
-1.5155e-08
8.89172e-10
-1.60569e-08
9.62144e-10
-1.69129e-08
9.17967e-10
-1.75676e-08
7.19828e-10
-1.813e-08
6.34329e-10
-1.87988e-08
7.43065e-10
-1.94005e-08
6.73902e-10
-1.99959e-08
6.65389e-10
-2.06456e-08
7.14757e-10
-2.13362e-08
7.53237e-10
-2.22922e-08
1.01611e-09
-2.35032e-08
1.26976e-09
2.21722e-08
-4.56048e-08
-7.97262e-10
9.48685e-10
-2.25418e-09
1.73894e-09
-4.17809e-09
2.28489e-09
-6.4769e-09
2.72385e-09
-8.77673e-09
2.7247e-09
-1.11353e-08
2.79342e-09
-1.37587e-08
3.10502e-09
-1.66406e-08
3.40774e-09
-1.98115e-08
3.75083e-09
-2.29229e-08
3.68547e-09
-2.60591e-08
3.7177e-09
-2.96805e-08
4.30024e-09
-3.28365e-08
3.79211e-09
-3.58809e-08
3.66934e-09
-3.96057e-08
4.47646e-09
-4.36757e-08
4.90281e-09
-4.77176e-08
4.90185e-09
-5.15352e-08
4.66096e-09
-5.52677e-08
4.57126e-09
-5.89838e-08
4.55868e-09
-6.27641e-08
4.63103e-09
-6.65989e-08
4.69299e-09
-7.02956e-08
4.51799e-09
-7.38532e-08
4.33582e-09
-7.77616e-08
4.743e-09
-8.14086e-08
4.4355e-09
-8.56484e-08
5.0754e-09
-9.05172e-08
5.86088e-09
-9.53145e-08
5.86235e-09
-1.00008e-07
5.71441e-09
-1.05426e-07
6.24309e-09
-1.10895e-07
6.21429e-09
-1.15369e-07
5.32563e-09
-1.19086e-07
4.49324e-09
-1.22677e-07
4.35273e-09
-1.26543e-07
4.66853e-09
-1.30571e-07
4.86384e-09
-1.35794e-07
6.31681e-09
-1.42559e-07
8.10962e-09
3.75316e-08
-1.57833e-07
-2.52927e-09
3.49511e-09
-7.57143e-09
6.83123e-09
-1.44044e-08
9.17338e-09
-2.27836e-08
1.11629e-08
-3.12465e-08
1.12506e-08
-4.00356e-08
1.1648e-08
-4.98104e-08
1.29481e-08
-6.05524e-08
1.42188e-08
-7.23938e-08
1.5669e-08
-8.40698e-08
1.54425e-08
-9.60645e-08
1.58084e-08
-1.09979e-07
1.83222e-08
-1.21904e-07
1.58439e-08
-1.33296e-07
1.52042e-08
-1.47296e-07
1.864e-08
-1.62263e-07
2.00518e-08
-1.76864e-07
1.97054e-08
-1.90595e-07
1.86076e-08
-2.04074e-07
1.82732e-08
-2.17501e-07
1.82066e-08
-2.31103e-07
1.84416e-08
-2.44795e-07
1.85796e-08
-2.57909e-07
1.78114e-08
-2.70577e-07
1.71687e-08
-2.84604e-07
1.89245e-08
-2.98412e-07
1.83904e-08
-3.14441e-07
2.12439e-08
-3.3095e-07
2.25046e-08
-3.46808e-07
2.18511e-08
-3.63587e-07
2.26222e-08
-3.80932e-07
2.37118e-08
-3.9707e-07
2.24746e-08
-4.11829e-07
2.01991e-08
-4.24908e-07
1.76786e-08
-4.375e-07
1.70422e-08
-4.50691e-07
1.79488e-08
-4.64656e-07
1.89121e-08
-4.79851e-07
2.15899e-08
-5.01209e-07
2.95432e-08
4.38998e-08
-5.07493e-07
-5.4355e-09
8.96214e-09
-1.84151e-08
1.98988e-08
-3.7172e-08
2.80262e-08
-6.14199e-08
3.55139e-08
-8.63619e-08
3.63001e-08
-1.12895e-07
3.82913e-08
-1.42454e-07
4.2622e-08
-1.74968e-07
4.68481e-08
-2.10934e-07
5.1761e-08
-2.46838e-07
5.14792e-08
-2.84443e-07
5.35666e-08
-3.31689e-07
6.57379e-08
-3.70765e-07
5.51154e-08
-4.04452e-07
4.9107e-08
-4.47231e-07
6.16595e-08
-4.91843e-07
6.49241e-08
-5.33526e-07
6.16679e-08
-5.73109e-07
5.84796e-08
-6.12494e-07
5.79456e-08
-6.51903e-07
5.78904e-08
-6.91584e-07
5.83746e-08
-7.31321e-07
5.85447e-08
-7.69833e-07
5.65301e-08
-8.05725e-07
5.32482e-08
-8.47618e-07
6.09891e-08
-8.89383e-07
6.0316e-08
-9.338e-07
6.58095e-08
-9.83053e-07
7.18994e-08
-1.03805e-06
7.6978e-08
-1.08044e-06
6.51494e-08
-1.1108e-06
5.41955e-08
-1.14227e-06
5.40543e-08
-1.17798e-06
5.60246e-08
-1.21497e-06
5.47653e-08
-1.25197e-06
5.4144e-08
-1.2889e-06
5.49606e-08
-1.32598e-06
5.60835e-08
-1.36459e-06
6.02822e-08
-1.40059e-06
6.5623e-08
7.13401e-08
-1.42795e-06
-6.33551e-09
1.53519e-08
-2.68672e-08
4.05729e-08
-6.22364e-08
6.35468e-08
-1.15352e-07
8.87899e-08
-1.73409e-07
9.452e-08
-2.37819e-07
1.02868e-07
-3.10201e-07
1.15173e-07
-3.89753e-07
1.26567e-07
-4.78827e-07
1.41013e-07
-5.67074e-07
1.39911e-07
-6.7009e-07
1.56789e-07
-7.84868e-07
1.8074e-07
-9.04772e-07
1.75265e-07
-1.02387e-06
1.68467e-07
-1.13152e-06
1.696e-07
-1.23123e-06
1.64932e-07
-1.32367e-06
1.54418e-07
-1.41491e-06
1.50025e-07
-1.51043e-06
1.53763e-07
-1.60939e-06
1.5713e-07
-1.70889e-06
1.58125e-07
-1.80715e-06
1.57024e-07
-1.90433e-06
1.53919e-07
-2.0032e-06
1.52298e-07
-2.10013e-06
1.58095e-07
-2.20215e-06
1.62495e-07
-2.29853e-06
1.62336e-07
-2.38871e-06
1.62219e-07
-2.47507e-06
1.63475e-07
-2.56784e-06
1.58042e-07
-2.66664e-06
1.53124e-07
-2.75848e-06
1.46022e-07
-2.84594e-06
1.43597e-07
-2.93303e-06
1.41964e-07
-3.01824e-06
1.3946e-07
-3.10049e-06
1.37311e-07
-3.17959e-06
1.35284e-07
-3.25262e-06
1.3341e-07
-3.31726e-06
1.30353e-07
1.25982e-07
-3.37181e-06
-8.14059e-09
2.35813e-08
-2.17931e-08
5.4428e-08
-6.38126e-08
1.05772e-07
-1.29159e-07
1.54345e-07
-2.03034e-07
1.68606e-07
-2.91804e-07
1.9185e-07
-3.97998e-07
2.21574e-07
-5.18081e-07
2.46851e-07
-6.51118e-07
2.74258e-07
-8.04675e-07
2.93681e-07
-9.63615e-07
3.15958e-07
-1.13381e-06
3.51177e-07
-1.31929e-06
3.61007e-07
-1.51155e-06
3.60993e-07
-1.70836e-06
3.66697e-07
-1.90841e-06
3.65271e-07
-2.11009e-06
3.56385e-07
-2.30917e-06
3.49394e-07
-2.50364e-06
3.48505e-07
-2.69259e-06
3.46334e-07
-2.88278e-06
3.48558e-07
-3.07294e-06
3.47396e-07
-3.26602e-06
3.47203e-07
-3.45744e-06
3.43912e-07
-3.64085e-06
3.41677e-07
-3.81846e-06
3.40279e-07
-3.99197e-06
3.36007e-07
-4.1636e-06
3.34006e-07
-4.32793e-06
3.2796e-07
-4.49185e-06
3.22122e-07
-4.65223e-06
3.13655e-07
-4.81013e-06
3.04066e-07
-4.96297e-06
2.96577e-07
-5.10968e-06
2.88808e-07
-5.25052e-06
2.8043e-07
-5.38377e-06
2.70692e-07
-5.50888e-06
2.6051e-07
-5.62537e-06
2.50011e-07
-5.73422e-06
2.3931e-07
2.29985e-07
-5.83813e-06
-2.13225e-08
4.5038e-08
-4.84022e-08
8.17449e-08
-9.47163e-08
1.52315e-07
-1.57762e-07
2.17614e-07
-2.30712e-07
2.41785e-07
-3.19206e-07
2.80565e-07
-4.21573e-07
3.24155e-07
-5.40917e-07
3.66403e-07
-6.72157e-07
4.05708e-07
-8.20049e-07
4.41789e-07
-9.68537e-07
4.64672e-07
-1.11808e-06
5.0096e-07
-1.28582e-06
5.29e-07
-1.46061e-06
5.36039e-07
-1.63198e-06
5.38348e-07
-1.80817e-06
5.41741e-07
-1.99703e-06
5.45527e-07
-2.18932e-06
5.41964e-07
-2.38229e-06
5.41745e-07
-2.57541e-06
5.39718e-07
-2.76804e-06
5.4144e-07
-2.96218e-06
5.41778e-07
-3.15465e-06
5.39908e-07
-3.33836e-06
5.27852e-07
-3.52457e-06
5.28109e-07
-3.70393e-06
5.19846e-07
-3.87708e-06
5.09373e-07
-4.03776e-06
4.94886e-07
-4.19525e-06
4.85653e-07
-4.34754e-06
4.74606e-07
-4.50071e-06
4.67011e-07
-4.6504e-06
4.53937e-07
-4.79308e-06
4.39425e-07
-4.92753e-06
4.23425e-07
-5.05322e-06
4.06267e-07
-5.17076e-06
3.88377e-07
-5.28051e-06
3.70386e-07
-5.38273e-06
3.52349e-07
-5.47714e-06
3.33824e-07
3.18146e-07
-5.5652e-06
-3.08311e-08
7.60417e-08
-9.49066e-08
1.46047e-07
-1.76159e-07
2.3379e-07
-2.52167e-07
2.93837e-07
-3.52545e-07
3.42379e-07
-4.73686e-07
4.01915e-07
-6.0963e-07
4.60303e-07
-7.55641e-07
5.12617e-07
-9.07064e-07
5.5734e-07
-1.05437e-06
5.89319e-07
-1.20828e-06
6.18811e-07
-1.35723e-06
6.50162e-07
-1.50537e-06
6.77404e-07
-1.65867e-06
6.89616e-07
-1.81395e-06
6.93928e-07
-1.96885e-06
6.96954e-07
-2.12332e-06
7.00321e-07
-2.27824e-06
6.97213e-07
-2.43201e-06
6.95836e-07
-2.58182e-06
6.89845e-07
-2.72802e-06
6.87956e-07
-2.86569e-06
6.79762e-07
-2.9976e-06
6.72116e-07
-3.12969e-06
6.60232e-07
-3.26601e-06
6.64715e-07
-3.39514e-06
6.49237e-07
-3.544e-06
6.58489e-07
-3.66822e-06
6.19346e-07
-3.79484e-06
6.12497e-07
-3.8949e-06
5.74863e-07
-3.96831e-06
5.4061e-07
-4.02418e-06
5.09985e-07
-4.06978e-06
4.85188e-07
-4.10635e-06
4.60146e-07
-4.13542e-06
4.35482e-07
-4.15816e-06
4.11242e-07
-4.17531e-06
3.87653e-07
-4.18766e-06
3.64794e-07
-4.19589e-06
3.42145e-07
3.19349e-07
-4.19701e-06
-3.11245e-08
1.07357e-07
-1.52504e-07
2.67638e-07
-2.98248e-07
3.79746e-07
-4.45672e-07
4.41473e-07
-6.35678e-07
5.32596e-07
-8.44927e-07
6.11374e-07
-1.06697e-06
6.82559e-07
-1.29682e-06
7.42692e-07
-1.52746e-06
7.88216e-07
-1.76254e-06
8.24654e-07
-1.99885e-06
8.55392e-07
-2.22872e-06
8.80332e-07
-2.44889e-06
8.97895e-07
-2.66339e-06
9.04469e-07
-2.87295e-06
9.03846e-07
-3.07289e-06
8.97273e-07
-3.26389e-06
8.91712e-07
-3.44541e-06
8.79119e-07
-3.60766e-06
8.58471e-07
-3.74946e-06
8.32026e-07
-3.87104e-06
8.09915e-07
-3.97148e-06
7.80556e-07
-4.05597e-06
7.56949e-07
-4.11384e-06
7.18431e-07
-4.14183e-06
6.93011e-07
-4.13887e-06
6.46587e-07
-4.11136e-06
6.31289e-07
-4.07799e-06
5.86219e-07
-4.06683e-06
6.01459e-07
-4.06081e-06
5.68948e-07
-4.03705e-06
5.16996e-07
-4.01788e-06
4.90983e-07
-3.99246e-06
4.59937e-07
-3.96093e-06
4.28764e-07
-3.92484e-06
3.99522e-07
-3.88554e-06
3.72069e-07
-3.84392e-06
3.4615e-07
-3.80069e-06
3.21665e-07
-3.75657e-06
2.98109e-07
2.75645e-07
-3.71278e-06
-3.79465e-08
1.45507e-07
-1.72852e-07
4.02765e-07
-3.80753e-07
5.87877e-07
-6.55975e-07
7.16928e-07
-9.65925e-07
8.42787e-07
-1.30534e-06
9.51034e-07
-1.65955e-06
1.03703e-06
-2.021e-06
1.10441e-06
-2.38922e-06
1.15672e-06
-2.75706e-06
1.19281e-06
-3.11619e-06
1.21486e-06
-3.45836e-06
1.22285e-06
-3.78017e-06
1.22006e-06
-4.0812e-06
1.20588e-06
-4.35981e-06
1.18283e-06
-4.61185e-06
1.14968e-06
-4.8295e-06
1.10974e-06
-5.01436e-06
1.06433e-06
-5.17146e-06
1.01592e-06
-5.30652e-06
9.67412e-07
-5.41325e-06
9.16966e-07
-5.50132e-06
8.68922e-07
-5.55825e-06
8.14156e-07
-5.60824e-06
7.68682e-07
-5.62558e-06
7.10621e-07
-5.68086e-06
7.02116e-07
-5.69444e-06
6.45036e-07
-5.71844e-06
6.103e-07
-5.68731e-06
5.70382e-07
-5.64396e-06
5.25672e-07
-5.60591e-06
4.79039e-07
-5.54108e-06
4.26262e-07
-5.47659e-06
3.95549e-07
-5.41325e-06
3.65523e-07
-5.35129e-06
3.37641e-07
-5.29099e-06
3.11853e-07
-5.23269e-06
2.87921e-07
-5.17664e-06
2.65674e-07
-5.12317e-06
2.44691e-07
2.23253e-07
-5.07072e-06
-3.49998e-08
1.80741e-07
-2.45794e-07
6.13813e-07
-5.50269e-07
8.92617e-07
-9.40559e-07
1.10749e-06
-1.35895e-06
1.26146e-06
-1.82392e-06
1.41628e-06
-2.29503e-06
1.50844e-06
-2.8026e-06
1.61229e-06
-3.32299e-06
1.67743e-06
-3.82714e-06
1.69728e-06
-4.32633e-06
1.71437e-06
-4.81364e-06
1.71049e-06
-5.2861e-06
1.69285e-06
-5.74007e-06
1.66017e-06
-6.17595e-06
1.61904e-06
-6.5914e-06
1.56544e-06
-6.9889e-06
1.50754e-06
-7.36563e-06
1.44134e-06
-7.72527e-06
1.37584e-06
-8.06125e-06
1.30365e-06
-8.37951e-06
1.23546e-06
-8.67238e-06
1.16202e-06
-8.95286e-06
1.09487e-06
-9.20727e-06
1.02335e-06
-9.45249e-06
9.56032e-07
-9.64057e-06
8.90272e-07
-9.83239e-06
8.36927e-07
-9.97709e-06
7.55069e-07
-1.01289e-05
7.2221e-07
-1.02689e-05
6.65739e-07
-1.03962e-05
6.06423e-07
-1.0533e-05
5.63134e-07
-1.06565e-05
5.19196e-07
-1.07682e-05
4.77318e-07
-1.08691e-05
4.38575e-07
-1.09602e-05
4.0296e-07
-1.10424e-05
3.70184e-07
-1.11166e-05
3.39985e-07
-1.11838e-05
3.11929e-07
2.86508e-07
-1.1247e-05
-1.37113e-08
1.94718e-07
-1.39505e-07
7.3989e-07
-3.56128e-07
1.10953e-06
-6.54545e-07
1.40619e-06
-9.93298e-07
1.6005e-06
-1.38394e-06
1.80721e-06
-1.78676e-06
1.91154e-06
-2.24357e-06
2.06937e-06
-2.78109e-06
2.21522e-06
-3.3035e-06
2.21996e-06
-3.816e-06
2.22714e-06
-4.3111e-06
2.20585e-06
-4.80275e-06
2.18476e-06
-5.29193e-06
2.14958e-06
-5.77991e-06
2.10725e-06
-6.26405e-06
2.04979e-06
-6.74618e-06
1.98987e-06
-7.20535e-06
1.90071e-06
-7.65095e-06
1.82162e-06
-8.06875e-06
1.72162e-06
-8.47774e-06
1.64461e-06
-8.85217e-06
1.53658e-06
-9.22641e-06
1.46924e-06
-9.55433e-06
1.35138e-06
-9.89673e-06
1.29853e-06
-1.0211e-05
1.20458e-06
-1.05031e-05
1.12916e-06
-1.07795e-05
1.03153e-06
-1.10387e-05
9.81428e-07
-1.128e-05
9.0704e-07
-1.15076e-05
8.34087e-07
-1.17178e-05
7.73427e-07
-1.19146e-05
7.16012e-07
-1.20989e-05
6.6167e-07
-1.22711e-05
6.10824e-07
-1.24316e-05
5.63509e-07
-1.25809e-05
5.19508e-07
-1.27196e-05
4.78695e-07
-1.28483e-05
4.40671e-07
4.0549e-07
-1.29673e-05
4.41918e-08
1.50791e-07
1.77077e-07
6.0729e-07
3.23256e-07
9.63639e-07
4.98434e-07
1.23131e-06
6.72015e-07
1.42721e-06
8.72449e-07
1.60706e-06
1.04806e-06
1.73621e-06
1.25021e-06
1.86749e-06
1.48678e-06
1.97892e-06
1.69973e-06
2.00726e-06
1.89308e-06
2.03404e-06
2.00246e-06
2.09672e-06
2.42774e-06
1.75971e-06
2.68935e-06
1.8882e-06
2.9108e-06
1.88601e-06
3.11086e-06
1.84994e-06
3.29866e-06
1.80226e-06
3.46376e-06
1.73579e-06
3.61344e-06
1.67211e-06
3.74323e-06
1.59199e-06
3.86258e-06
1.52541e-06
3.9596e-06
1.4397e-06
4.05776e-06
1.37121e-06
4.13289e-06
1.27637e-06
4.20575e-06
1.22576e-06
4.26136e-06
1.14905e-06
4.32314e-06
1.06745e-06
4.36142e-06
9.93333e-07
4.4188e-06
9.24113e-07
4.46687e-06
8.59037e-07
4.50231e-06
7.98708e-07
4.53459e-06
7.41203e-07
4.56391e-06
6.86738e-07
4.59015e-06
6.35479e-07
4.61357e-06
5.87446e-07
4.63459e-06
5.42523e-07
4.65357e-06
5.00568e-07
4.67075e-06
4.61543e-07
4.68625e-06
4.25197e-07
3.91416e-07
4.70034e-06
1.61703e-08
1.34873e-07
1.56512e-07
4.67223e-07
3.99711e-07
7.2072e-07
7.17538e-07
9.13759e-07
1.07586e-06
1.06917e-06
1.48874e-06
1.19447e-06
1.89772e-06
1.3275e-06
2.35245e-06
1.41304e-06
2.85243e-06
1.47921e-06
3.3394e-06
1.52055e-06
3.83484e-06
1.53884e-06
4.39043e-06
1.54137e-06
4.62215e-06
1.52822e-06
4.99291e-06
1.51766e-06
5.38088e-06
1.49825e-06
5.76164e-06
1.46938e-06
6.13197e-06
1.43212e-06
6.48107e-06
1.38688e-06
6.81821e-06
1.33513e-06
7.13118e-06
1.27919e-06
7.43713e-06
1.2196e-06
7.71698e-06
1.15998e-06
7.99043e-06
1.0979e-06
8.23015e-06
1.03677e-06
8.47974e-06
9.76288e-07
8.71172e-06
9.17169e-07
8.92062e-06
8.58659e-07
9.11195e-06
8.02091e-07
9.28799e-06
7.48157e-07
9.45034e-06
6.96767e-07
9.60124e-06
6.47887e-07
9.74098e-06
6.01527e-07
9.87005e-06
5.57726e-07
9.98912e-06
5.16462e-07
1.00989e-05
4.77741e-07
1.02e-05
4.41471e-07
1.0293e-05
4.07562e-07
1.03786e-05
3.75965e-07
1.04573e-05
3.46555e-07
3.19092e-07
1.05297e-05
2.27286e-08
1.12351e-07
1.55481e-07
3.34699e-07
3.68617e-07
5.07824e-07
6.42742e-07
6.39879e-07
9.56572e-07
7.55591e-07
1.28743e-06
8.63867e-07
1.66172e-06
9.53479e-07
2.05299e-06
1.02205e-06
2.46002e-06
1.07244e-06
2.86748e-06
1.11335e-06
3.26755e-06
1.13903e-06
3.65647e-06
1.15271e-06
4.02905e-06
1.15589e-06
4.39565e-06
1.1513e-06
4.75521e-06
1.13891e-06
5.10709e-06
1.11772e-06
5.44966e-06
1.08977e-06
5.7801e-06
1.05665e-06
6.09607e-06
1.01937e-06
6.39688e-06
9.78575e-07
6.68123e-06
9.35446e-07
6.95066e-06
8.90746e-07
7.20374e-06
8.44994e-07
7.44171e-06
7.98977e-07
7.66487e-06
7.53292e-07
7.87383e-06
7.08371e-07
8.06812e-06
6.64514e-07
8.24839e-06
6.21966e-07
8.41572e-06
5.80953e-07
8.57097e-06
5.41642e-07
8.71483e-06
5.04142e-07
8.84795e-06
4.68515e-07
8.97097e-06
4.34805e-07
9.08454e-06
4.02984e-07
9.18929e-06
3.73071e-07
9.28582e-06
3.4501e-07
9.37473e-06
3.18726e-07
9.45656e-06
2.94191e-07
9.53183e-06
2.71343e-07
2.49853e-07
9.60112e-06
2.99662e-08
8.25434e-08
1.32469e-07
2.32372e-07
2.89173e-07
3.51317e-07
4.80958e-07
4.48289e-07
6.95533e-07
5.41231e-07
9.37629e-07
6.21996e-07
1.20345e-06
6.87896e-07
1.48234e-06
7.43409e-07
1.76624e-06
7.88795e-07
2.0549e-06
8.24948e-07
2.34334e-06
8.50845e-07
2.62904e-06
8.67258e-07
2.9099e-06
8.75277e-07
3.18584e-06
8.75607e-07
3.45611e-06
8.6889e-07
3.71826e-06
8.55818e-07
3.97084e-06
8.37434e-07
4.21309e-06
8.14641e-07
4.44454e-06
7.88146e-07
4.66467e-06
7.58682e-07
4.87337e-06
7.26978e-07
5.07062e-06
6.93728e-07
5.25633e-06
6.59501e-07
5.43067e-06
6.24848e-07
5.59402e-06
5.90158e-07
5.74673e-06
5.55853e-07
5.8893e-06
5.22147e-07
6.02206e-06
4.89386e-07
6.14558e-06
4.57608e-07
6.26033e-06
4.27058e-07
6.36683e-06
3.97809e-07
6.46552e-06
3.69968e-07
6.55688e-06
3.43587e-07
6.64135e-06
3.18642e-07
6.71937e-06
2.95165e-07
6.79136e-06
2.73133e-07
6.85773e-06
2.52458e-07
6.91887e-06
2.33139e-07
6.97514e-06
2.1515e-07
1.98137e-07
7.02693e-06
2.39153e-08
5.8755e-08
9.5e-08
1.61421e-07
1.99831e-07
2.46655e-07
3.24099e-07
3.24174e-07
4.70171e-07
3.95341e-07
6.35749e-07
4.5661e-07
8.13077e-07
5.10778e-07
9.98787e-07
5.57922e-07
1.18955e-06
5.98265e-07
1.3839e-06
6.30832e-07
1.57934e-06
6.5565e-07
1.77372e-06
6.73126e-07
1.96562e-06
6.8363e-07
2.15377e-06
6.87712e-07
2.33703e-06
6.85886e-07
2.51443e-06
6.78679e-07
2.68534e-06
6.66799e-07
2.84931e-06
6.50947e-07
3.00597e-06
6.31763e-07
3.15508e-06
6.09856e-07
3.29651e-06
5.85829e-07
3.43025e-06
5.60259e-07
3.55638e-06
5.33651e-07
3.67504e-06
5.06455e-07
3.78643e-06
4.79038e-07
3.89079e-06
4.51752e-07
3.98837e-06
4.24822e-07
4.07948e-06
3.98527e-07
4.16429e-06
3.7303e-07
4.24309e-06
3.48493e-07
4.31609e-06
3.25022e-07
4.38365e-06
3.02613e-07
4.4461e-06
2.81334e-07
4.50378e-06
2.61154e-07
4.557e-06
2.42116e-07
4.60606e-06
2.24232e-07
4.65125e-06
2.07409e-07
4.69287e-06
1.91658e-07
4.73116e-06
1.76972e-07
1.63061e-07
4.76635e-06
1.71273e-08
4.17342e-08
6.44856e-08
1.14164e-07
1.30988e-07
1.803e-07
2.12996e-07
2.42286e-07
3.10239e-07
2.98256e-07
4.18082e-07
3.48931e-07
5.33781e-07
3.95262e-07
6.54786e-07
4.37115e-07
7.80217e-07
4.7304e-07
9.08244e-07
5.03018e-07
1.03727e-06
5.26848e-07
1.16603e-06
5.44586e-07
1.29358e-06
5.56318e-07
1.41888e-06
5.62653e-07
1.54128e-06
5.63731e-07
1.66024e-06
5.59984e-07
1.77525e-06
5.5206e-07
1.88589e-06
5.40597e-07
1.99184e-06
5.26106e-07
2.09294e-06
5.09045e-07
2.18909e-06
4.89979e-07
2.28024e-06
4.69416e-07
2.36639e-06
4.47803e-07
2.44761e-06
4.2554e-07
2.52399e-06
4.02966e-07
2.59567e-06
3.80373e-07
2.66275e-06
3.58047e-07
2.72542e-06
3.36153e-07
2.78377e-06
3.14967e-07
2.83823e-06
2.94314e-07
2.88903e-06
2.74504e-07
2.93638e-06
2.55526e-07
2.98045e-06
2.37505e-07
3.02142e-06
2.20421e-07
3.05945e-06
2.04316e-07
3.09469e-06
1.89205e-07
3.12729e-06
1.74999e-07
3.15741e-06
1.61709e-07
3.1852e-06
1.49348e-07
1.37454e-07
3.21095e-06
1.15932e-08
3.02322e-08
4.17992e-08
8.40341e-08
8.48635e-08
1.37369e-07
1.39469e-07
1.87775e-07
2.04715e-07
2.33148e-07
2.78914e-07
2.74872e-07
3.60605e-07
3.13732e-07
4.49206e-07
3.48687e-07
5.44088e-07
3.78344e-07
6.43934e-07
4.03359e-07
7.47846e-07
4.23144e-07
8.54722e-07
4.37899e-07
9.63684e-07
4.47575e-07
1.07366e-06
4.52878e-07
1.1839e-06
4.53729e-07
1.29351e-06
4.50609e-07
1.40174e-06
4.44092e-07
1.50791e-06
4.34697e-07
1.61142e-06
4.22873e-07
1.71183e-06
4.0891e-07
1.8087e-06
3.93393e-07
1.90176e-06
3.76659e-07
1.99076e-06
3.59105e-07
2.07556e-06
3.41041e-07
2.15604e-06
3.22797e-07
2.23226e-06
3.04473e-07
2.30421e-06
2.86417e-07
2.372e-06
2.68685e-07
2.43578e-06
2.51515e-07
2.4955e-06
2.34913e-07
2.55133e-06
2.18989e-07
2.60336e-06
2.03799e-07
2.65178e-06
1.89378e-07
2.6968e-06
1.75691e-07
2.73857e-06
1.62813e-07
2.77732e-06
1.50718e-07
2.81324e-06
1.39318e-07
2.84651e-06
1.28654e-07
2.8773e-06
1.18752e-07
1.09278e-07
2.90567e-06
7.51578e-09
2.27941e-08
2.76697e-08
6.39373e-08
5.98233e-08
1.05331e-07
1.05308e-07
1.42366e-07
1.64902e-07
1.73673e-07
2.37985e-07
2.0191e-07
3.24318e-07
2.27538e-07
4.23285e-07
2.49872e-07
5.33767e-07
2.68027e-07
6.54234e-07
2.83052e-07
7.83251e-07
2.9432e-07
9.19016e-07
3.02294e-07
1.05995e-06
3.06847e-07
1.20439e-06
3.08609e-07
1.35093e-06
3.07399e-07
1.49797e-06
3.03792e-07
1.64423e-06
2.98061e-07
1.78858e-06
2.9059e-07
1.9301e-06
2.816e-07
2.06788e-06
2.71388e-07
2.20125e-06
2.60281e-07
2.32966e-06
2.4851e-07
2.45273e-06
2.36315e-07
2.57018e-06
2.23869e-07
2.68183e-06
2.1144e-07
2.78759e-06
1.99018e-07
2.8875e-06
1.86809e-07
2.98157e-06
1.74938e-07
3.06994e-06
1.63464e-07
3.15273e-06
1.52451e-07
3.23016e-06
1.41889e-07
3.30242e-06
1.31864e-07
3.36975e-06
1.22369e-07
3.43236e-06
1.134e-07
3.49051e-06
1.04973e-07
3.54443e-06
9.70928e-08
3.59432e-06
8.97122e-08
3.6403e-06
8.29341e-08
3.68262e-06
7.66599e-08
7.06839e-08
3.72145e-06
5.37847e-09
1.74805e-08
2.35109e-08
4.58475e-08
5.75515e-08
7.13896e-08
1.08912e-07
9.10664e-08
1.76511e-07
1.06176e-07
2.5894e-07
1.19583e-07
3.5502e-07
1.31577e-07
4.63277e-07
1.41746e-07
5.81687e-07
1.49763e-07
7.08687e-07
1.56188e-07
8.42473e-07
1.6071e-07
9.81169e-07
1.63731e-07
1.12319e-06
1.65017e-07
1.2669e-06
1.65049e-07
1.41101e-06
1.63482e-07
1.5541e-06
1.60888e-07
1.69511e-06
1.57265e-07
1.83311e-06
1.52809e-07
1.96733e-06
1.47602e-07
2.09709e-06
1.4186e-07
2.22188e-06
1.3572e-07
2.34134e-06
1.29296e-07
2.45521e-06
1.2269e-07
2.56334e-06
1.15994e-07
2.66567e-06
1.09371e-07
2.76218e-06
1.02777e-07
2.85301e-06
9.626e-08
2.93827e-06
8.99716e-08
3.01809e-06
8.39456e-08
3.09268e-06
7.8168e-08
3.16219e-06
7.26853e-08
3.22693e-06
6.74441e-08
3.28711e-06
6.25114e-08
3.34298e-06
5.78539e-08
3.39479e-06
5.34848e-08
3.44278e-06
4.94167e-08
3.48716e-06
4.56346e-08
3.52823e-06
4.21588e-08
3.56629e-06
3.88644e-08
3.556e-08
3.60168e-06
5.64315e-09
1.18904e-08
2.44245e-08
2.70979e-08
5.74506e-08
3.8446e-08
1.02439e-07
4.61255e-08
1.56547e-07
5.2153e-08
2.18226e-07
5.79892e-08
2.86601e-07
6.3303e-08
3.60753e-07
6.77047e-08
4.39594e-07
7.10492e-08
5.22213e-07
7.36825e-08
6.07678e-07
7.54018e-08
6.94947e-07
7.65733e-08
7.83235e-07
7.68988e-08
8.71676e-07
7.67379e-08
9.5961e-07
7.57182e-08
1.04631e-06
7.43645e-08
1.13125e-06
7.25044e-08
1.21395e-06
7.03149e-08
1.29395e-06
6.77984e-08
1.37097e-06
6.50486e-08
1.44477e-06
6.21295e-08
1.51517e-06
5.91114e-08
1.58208e-06
5.60024e-08
1.64545e-06
5.28542e-08
1.70527e-06
4.97823e-08
1.7616e-06
4.66964e-08
1.81449e-06
4.36269e-08
1.86406e-06
4.06627e-08
1.9104e-06
3.78686e-08
1.95364e-06
3.52119e-08
1.99392e-06
3.26922e-08
2.03131e-06
3.03428e-08
2.06604e-06
2.80866e-08
2.09826e-06
2.59403e-08
2.12811e-06
2.39376e-08
2.15575e-06
2.20747e-08
2.18133e-06
2.03553e-08
2.20504e-06
1.87504e-08
2.22697e-06
1.72136e-08
1.57434e-08
2.24707e-06
5.40192e-09
6.53135e-09
1.9259e-08
1.32646e-08
4.004e-08
1.77324e-08
6.54725e-08
2.07308e-08
9.4545e-08
2.31503e-08
1.2703e-07
2.55747e-08
1.62658e-07
2.77587e-08
2.00925e-07
2.95299e-08
2.41249e-07
3.08332e-08
2.83149e-07
3.18779e-08
3.26202e-07
3.24863e-08
3.69866e-07
3.30002e-08
4.13927e-07
3.29863e-08
4.5789e-07
3.28856e-08
5.01386e-07
3.23724e-08
5.44189e-07
3.17123e-08
5.85985e-07
3.08749e-08
6.26553e-07
2.99222e-08
6.65723e-07
2.88091e-08
7.03362e-07
2.75954e-08
7.39369e-07
2.63119e-08
7.7368e-07
2.49977e-08
8.06238e-07
2.36427e-08
8.37019e-07
2.22825e-08
8.66069e-07
2.0944e-08
8.934e-07
1.9588e-08
9.18995e-07
1.82605e-08
9.42912e-07
1.69825e-08
9.65264e-07
1.57618e-08
9.86111e-07
1.46158e-08
1.00555e-06
1.35168e-08
1.02362e-06
1.25383e-08
1.04037e-06
1.16059e-08
1.05592e-06
1.06707e-08
1.07033e-06
9.80332e-09
1.08368e-06
9.00312e-09
1.09604e-06
8.26932e-09
1.10748e-06
7.58263e-09
1.11804e-06
6.91922e-09
6.30021e-09
1.12777e-06
3.50265e-09
3.06283e-09
1.09744e-08
5.81054e-09
2.12613e-08
7.49977e-09
3.33578e-08
8.664e-09
4.69657e-08
9.59871e-09
6.20372e-08
1.05602e-08
7.84526e-08
1.14118e-08
9.59635e-08
1.20944e-08
1.14307e-07
1.25797e-08
1.33272e-07
1.29896e-08
1.52692e-07
1.31829e-08
1.7235e-07
1.34162e-08
1.9212e-07
1.33434e-08
2.11788e-07
1.33101e-08
2.31229e-07
1.30605e-08
2.50293e-07
1.27775e-08
2.68898e-07
1.24134e-08
2.86957e-07
1.20153e-08
3.04373e-07
1.15503e-08
3.21083e-07
1.10487e-08
3.37051e-07
1.05101e-08
3.52253e-07
9.97113e-09
3.66663e-07
9.40755e-09
3.80288e-07
8.8453e-09
3.93134e-07
8.28679e-09
4.05196e-07
7.72635e-09
4.16486e-07
7.17685e-09
4.27037e-07
6.64466e-09
4.36886e-07
6.13457e-09
4.46065e-07
5.66317e-09
4.54622e-07
5.19533e-09
4.62598e-07
4.8031e-09
4.70009e-07
4.44157e-09
4.76874e-07
4.05528e-09
4.8325e-07
3.67717e-09
4.89152e-07
3.35277e-09
4.94612e-07
3.05661e-09
4.99654e-07
2.7846e-09
5.04305e-07
2.50727e-09
2.24746e-09
5.08615e-07
1.80235e-09
1.28669e-09
5.27872e-09
2.34696e-09
9.86156e-09
2.9587e-09
1.51467e-08
3.40132e-09
2.10444e-08
3.74461e-09
2.75403e-08
4.10852e-09
3.45807e-08
4.42493e-09
4.20571e-08
4.67696e-09
4.98592e-08
4.84864e-09
5.79008e-08
5.00829e-09
6.61201e-08
5.05702e-09
7.44287e-08
5.16511e-09
8.27697e-08
5.10491e-09
9.10492e-08
5.10493e-09
9.92279e-08
4.98619e-09
1.0724e-07
4.87153e-09
1.15051e-07
4.71987e-09
1.22631e-07
4.56057e-09
1.29937e-07
4.37392e-09
1.36943e-07
4.17771e-09
1.43631e-07
3.96016e-09
1.49999e-07
3.75063e-09
1.56029e-07
3.52376e-09
1.61731e-07
3.30277e-09
1.67098e-07
3.07936e-09
1.7214e-07
2.85635e-09
1.76856e-07
2.63672e-09
1.81259e-07
2.4244e-09
1.85367e-07
2.21814e-09
1.89194e-07
2.03169e-09
1.92757e-07
1.83706e-09
1.96084e-07
1.68473e-09
1.99199e-07
1.54122e-09
2.02081e-07
1.39225e-09
2.04739e-07
1.23597e-09
2.07203e-07
1.108e-09
2.0948e-07
9.93843e-10
2.11582e-07
8.93681e-10
2.13515e-07
7.81131e-10
6.64293e-10
2.15318e-07
8.15311e-10
4.89863e-10
2.29721e-09
8.73618e-10
4.2044e-09
1.08085e-09
6.37924e-09
1.24208e-09
8.79558e-09
1.35905e-09
1.1447e-08
1.48838e-09
1.43116e-08
1.59834e-09
1.73447e-08
1.68578e-09
2.05024e-08
1.74204e-09
2.37513e-08
1.80211e-09
2.70686e-08
1.8076e-09
3.04174e-08
1.85716e-09
3.3777e-08
1.81997e-09
3.71085e-08
1.82724e-09
4.03974e-08
1.77377e-09
4.36163e-08
1.7302e-09
4.67528e-08
1.67008e-09
4.97963e-08
1.60959e-09
5.27277e-08
1.53887e-09
5.55399e-08
1.46658e-09
5.82195e-08
1.38357e-09
6.07747e-08
1.30617e-09
6.31889e-08
1.21997e-09
6.54752e-08
1.13728e-09
6.76229e-08
1.05288e-09
6.96418e-08
9.68328e-10
7.15287e-08
8.84915e-10
7.32892e-08
8.04536e-10
7.49309e-08
7.24444e-10
7.64599e-08
6.54061e-10
7.78808e-08
5.7582e-10
7.92102e-08
5.18572e-10
8.04585e-08
4.61003e-10
8.16156e-08
4.06718e-10
8.26755e-08
3.46388e-10
8.36589e-08
2.97578e-10
8.45651e-08
2.56192e-10
8.54035e-08
2.21945e-10
8.61667e-08
1.79512e-10
1.22225e-10
8.68802e-08
3.37509e-10
1.63894e-10
9.2672e-10
2.895e-10
1.674e-09
3.51767e-10
2.52001e-09
4.05663e-10
3.45754e-09
4.40659e-10
4.48358e-09
4.8188e-10
5.58973e-09
5.15961e-10
6.75873e-09
5.43005e-10
7.974e-09
5.5901e-10
9.22307e-09
5.7976e-10
1.04975e-08
5.76366e-10
1.1783e-08
5.97218e-10
1.30719e-08
5.78634e-10
1.43494e-08
5.8395e-10
1.561e-08
5.62165e-10
1.68433e-08
5.46744e-10
1.80442e-08
5.24948e-10
1.92098e-08
5.03722e-10
2.03315e-08
4.79478e-10
2.14091e-08
4.54658e-10
2.2433e-08
4.26676e-10
2.34124e-08
3.99243e-10
2.43339e-08
3.70758e-10
2.52098e-08
3.40975e-10
2.60298e-08
3.1279e-10
2.68022e-08
2.82735e-10
2.75231e-08
2.5386e-10
2.81955e-08
2.25911e-10
2.8822e-08
1.97091e-10
2.94053e-08
1.72442e-10
2.99455e-08
1.43469e-10
3.04516e-08
1.22905e-10
3.0925e-08
1.01651e-10
3.13663e-08
8.24436e-11
3.17671e-08
6.17719e-11
3.21388e-08
4.44355e-11
3.24793e-08
3.11551e-11
3.27953e-08
2.06282e-11
3.30783e-08
7.18866e-12
-1.93327e-11
3.33369e-08
1.27243e-10
4.36855e-11
3.42464e-10
7.72188e-11
6.1303e-10
9.21789e-11
9.1749e-10
1.06965e-10
1.2545e-09
1.15251e-10
1.62243e-09
1.25835e-10
2.01856e-09
1.34322e-10
2.43657e-09
1.40991e-10
2.87085e-09
1.44575e-10
3.31657e-09
1.50293e-10
3.77172e-09
1.4802e-10
4.22976e-09
1.54715e-10
4.68981e-09
1.48156e-10
5.14486e-09
1.50136e-10
5.59431e-09
1.43242e-10
6.03374e-09
1.38547e-10
6.4616e-09
1.32138e-10
6.87698e-09
1.25923e-10
7.27651e-09
1.19263e-10
7.6607e-09
1.12022e-10
8.0251e-09
1.04809e-10
8.37428e-09
9.62777e-11
8.7019e-09
8.92888e-11
9.01408e-09
7.99212e-11
9.30568e-09
7.26625e-11
9.58089e-09
6.36441e-11
9.83753e-09
5.55599e-11
1.00769e-08
4.75779e-11
1.02997e-08
3.9181e-11
1.05067e-08
3.20748e-11
1.06977e-08
2.35991e-11
1.08763e-08
1.74013e-11
1.10424e-08
1.13204e-11
1.11975e-08
5.56841e-12
1.13368e-08
7.14955e-14
1.14659e-08
-4.95433e-12
1.15831e-08
-8.24728e-12
1.16921e-08
-1.08576e-11
1.17881e-08
-1.39394e-11
-2.28615e-11
1.18708e-08
4.05391e-11
7.63241e-12
1.07335e-10
1.22912e-11
1.91078e-10
1.5413e-11
2.84629e-10
1.70763e-11
3.88287e-10
1.89647e-11
5.01112e-10
2.05681e-11
6.22512e-10
2.21308e-11
7.50401e-10
2.32675e-11
8.83362e-10
2.42255e-11
1.01933e-09
2.4656e-11
1.1589e-09
2.54872e-11
1.29828e-09
2.52056e-11
1.43943e-09
2.57981e-11
1.57798e-09
2.50758e-11
1.71556e-09
2.50687e-11
1.84963e-09
2.43232e-11
1.9803e-09
2.37416e-11
2.10709e-09
2.3014e-11
2.22916e-09
2.21773e-11
2.34633e-09
2.12575e-11
2.45787e-09
2.02942e-11
2.56423e-09
1.92886e-11
2.66457e-09
1.82689e-11
2.75971e-09
1.72662e-11
2.84886e-09
1.62097e-11
2.93289e-09
1.52586e-11
3.01127e-09
1.42403e-11
3.08433e-09
1.32499e-11
3.15236e-09
1.23617e-11
3.21536e-09
1.1405e-11
3.27356e-09
1.05579e-11
3.32758e-09
9.77088e-12
3.37786e-09
9.07762e-12
3.42456e-09
8.44569e-12
3.46634e-09
7.49491e-12
3.50496e-09
6.93881e-12
3.53979e-09
6.22277e-12
3.57221e-09
5.79111e-12
3.60054e-09
5.03371e-12
3.85211e-12
3.62369e-09
7.63243e-12
1.99237e-11
3.53368e-11
5.24131e-11
7.13778e-11
9.1946e-11
1.14077e-10
1.37344e-10
1.6157e-10
1.86226e-10
2.11713e-10
2.36919e-10
2.62717e-10
2.87793e-10
3.12862e-10
3.37186e-10
3.60928e-10
3.83943e-10
4.06121e-10
4.27379e-10
4.47675e-10
4.66965e-10
4.85236e-10
5.02505e-10
5.18718e-10
5.33981e-10
5.48226e-10
5.61483e-10
5.73853e-10
5.85268e-10
5.95839e-10
6.05626e-10
6.14723e-10
6.23192e-10
6.30716e-10
6.37688e-10
6.43951e-10
6.49788e-10
6.5488e-10
6.58832e-10
-9.3557e-11
9.41343e-11
1.21728e-09
-1.30955e-09
3.76102e-09
-2.54197e-09
7.11089e-09
-3.34781e-09
1.09871e-08
-3.87398e-09
1.49265e-08
-3.93712e-09
2.06073e-08
-5.67858e-09
2.64539e-08
-5.8445e-09
3.2568e-08
-6.11201e-09
4.22527e-08
-9.6828e-09
4.88403e-08
-6.58561e-09
6.23128e-08
-1.34707e-08
7.10255e-08
-8.711e-09
8.80844e-08
-1.70573e-08
1.00968e-07
-1.28817e-08
1.19348e-07
-1.83789e-08
1.38505e-07
-1.91559e-08
1.58402e-07
-1.98967e-08
1.80225e-07
-2.1822e-08
2.05076e-07
-2.48502e-08