/*--------------------------------*- C++ -*----------------------------------*\
| =========                 |                                                 |
| \\      /  F ield         | OpenFOAM: The Open Source CFD Toolbox           |
|  \\    /   O peration     | Version:  2112                                  |
|   \\  /    A nd           | Website:  www.openfoam.com                      |
|    \\/     M anipulation  |                                                 |
\*---------------------------------------------------------------------------*/
FoamFile
{
    version     2.0;
    format      ascii;
    arch        "LSB;label=32;scalar=64";
    class       volScalarField;
    location    "0.19";
    object      nut;
}
// * * * * * * * * * * * * * * * * * * * * * * * * * * * * * * * * * * * * * //

dimensions      [0 2 -1 0 0 0 0];

internalField   nonuniform List<scalar> 
12225
(
1.48148e-05
2.71508e-05
4.12086e-05
5.81386e-05
7.85712e-05
0.000102391
0.000128746
0.000156304
0.000183663
0.000209697
0.000233692
0.000255298
0.000274416
0.000291111
0.000305672
0.000318204
0.000330732
0.000335754
6.02343e-05
3.64658e-05
3.32102e-05
3.57033e-05
4.14796e-05
4.99536e-05
6.11291e-05
7.51796e-05
9.23788e-05
0.000113047
0.000137767
0.000167337
0.000202087
0.000241113
0.000282245
0.000322801
0.000360861
0.00039045
0.000453373
0.000162146
9.5376e-05
6.83326e-05
5.54779e-05
4.96586e-05
4.77351e-05
4.86674e-05
5.21147e-05
5.80118e-05
6.64637e-05
7.77513e-05
9.22806e-05
0.000110446
0.000132445
0.000158431
0.000188442
0.000221506
0.00165409
0.000700612
0.000417622
0.000287323
0.000212033
0.000158366
0.00012451
0.000102562
8.78309e-05
7.80654e-05
7.24634e-05
6.98234e-05
6.97514e-05
7.21746e-05
7.71291e-05
8.48008e-05
9.53698e-05
0.00010903
0.00342976
0.001843
0.00120242
0.000868863
0.000662045
0.000510348
0.000406699
0.000334172
0.000281059
0.000240203
0.000202097
0.000171932
0.000149267
0.00013218
0.000119374
0.00011052
0.000104891
0.000101875
0.00407496
0.00337098
0.00240235
0.00183523
0.00146385
0.00119406
0.000995114
0.000845469
0.000729812
0.000636905
0.00054991
0.000477172
0.000418618
0.000371012
0.000331517
0.000293492
0.000258018
0.000229113
0.00453296
0.00481241
0.00381706
0.00306715
0.00254469
0.00215609
0.00185844
0.00162532
0.00143884
0.00128593
0.00115292
0.00103751
0.000938339
0.000853125
0.000779122
0.000706428
0.000636766
0.000577208
0.00522696
0.00524128
0.0051664
0.00439171
0.00377353
0.00329384
0.0029146
0.00260794
0.00235588
0.00214511
0.00196399
0.00180626
0.00166822
0.00154693
0.00143955
0.00134098
0.00124933
0.00116733
0.00611003
0.00582786
0.00545442
0.00536376
0.005011
0.00448498
0.00405949
0.0037018
0.00340006
0.00314277
0.00291999
0.00272474
0.00255219
0.0023987
0.0022612
0.00213638
0.00202224
0.00192047
0.00717701
0.00666032
0.00591124
0.00552923
0.00534902
0.00529332
0.00519235
0.00480796
0.00447895
0.00419311
0.00394168
0.00371836
0.00351834
0.00333771
0.00317329
0.00302261
0.0028846
0.00276243
0.00850027
0.00762905
0.00659531
0.0058729
0.00546224
0.00527441
0.00521176
0.00515911
0.0050485
0.00488014
0.00467925
0.00446471
0.00423863
0.00399356
0.00372621
0.0034473
0.00317984
0.00296806
0.00938742
0.00862258
0.00729709
0.00636074
0.00575357
0.00538927
0.00519101
0.00507803
0.00496104
0.00481093
0.00463378
0.0044416
0.0042388
0.00402325
0.00379438
0.00356015
0.00333379
0.00315077
0.00942476
0.00930888
0.00808157
0.00692242
0.00615105
0.00566589
0.00535426
0.00513772
0.00496146
0.00479292
0.00462024
0.00444189
0.0042581
0.00406874
0.003876
0.00368697
0.0035082
0.00336351
0.00944701
0.00938947
0.00907498
0.00764351
0.00667234
0.00605483
0.00564062
0.0053358
0.00509255
0.00488389
0.00469388
0.00451325
0.00433681
0.00416271
0.00399313
0.00383453
0.00369097
0.00358056
0.00945865
0.00943404
0.0093937
0.00850578
0.00733813
0.00655392
0.00602753
0.00564066
0.00533324
0.00507729
0.00485676
0.00466064
0.0044816
0.00431602
0.00416435
0.00403067
0.00391616
0.00383492
0.00946386
0.00945507
0.00943965
0.00941789
0.00807102
0.00712738
0.00649382
0.00603214
0.00566964
0.00537357
0.0051257
0.00491377
0.00472987
0.00456969
0.00443219
0.00431885
0.0042277
0.00416848
0.00946575
0.00946319
0.0094586
0.00945168
0.00869059
0.00768324
0.00697611
0.00646014
0.00605837
0.00573564
0.00547202
0.00525358
0.00507124
0.00491984
0.00479708
0.00470242
0.00463196
0.00459067
0.00946619
0.00946526
0.00946378
0.00946133
0.00914305
0.00810771
0.0073695
0.0068355
0.00642318
0.00609624
0.00583491
0.00562456
0.00545524
0.00532094
0.00521821
0.00514508
0.00509706
0.00507424
0.00946577
0.00946345
0.00945938
0.00945301
0.00928118
0.00825712
0.00753468
0.00702622
0.00664365
0.00634767
0.00611749
0.00593745
0.00579732
0.00569207
0.00561851
0.00557413
0.00555479
0.00555389
0.00946273
0.0094507
0.00942937
0.00939855
0.00894
0.00799732
0.00734672
0.00690279
0.00658648
0.00635701
0.00618883
0.00606205
0.00596736
0.00590718
0.00587667
0.00587028
0.00588356
0.0059071
0.00945165
0.00940746
0.00933503
0.00923952
0.00833331
0.00748922
0.00694264
0.00661062
0.00641283
0.00629807
0.00623396
0.00620074
0.00618517
0.00617643
0.00617276
0.00617691
0.00619246
0.00621821
0.00941392
0.00927389
0.00907048
0.00861653
0.00764078
0.00700054
0.00665255
0.00648457
0.00641925
0.00641131
0.00643266
0.00647749
0.00650993
0.00631993
0.00614414
0.00598135
0.00583078
0.00569277
0.00929782
0.00891715
0.00844809
0.0077931
0.00712433
0.00672163
0.00656757
0.00621347
0.00588063
0.00558514
0.00532206
0.00508682
0.00487493
0.00468077
0.00450284
0.00433966
0.00419005
0.00405391
0.00897066
0.00809939
0.0072386
0.00647245
0.00581691
0.00526775
0.0048112
0.00442506
0.00409643
0.00381442
0.00356936
0.00335406
0.00316337
0.00299325
0.00284067
0.00270321
0.00257903
0.00246729
0.00729826
0.0065402
0.00534859
0.00446657
0.00380793
0.00330615
0.00291567
0.00260521
0.00235352
0.00214501
0.00196626
0.00181074
0.00167492
0.00155589
0.00145111
0.00135843
0.00127609
0.00120298
0.00599537
0.00425552
0.00309171
0.00237726
0.00190838
0.00158236
0.00134521
0.00116642
0.00102753
0.000915152
0.000814446
0.000727184
0.000653864
0.000592258
0.000540027
0.000495308
0.000456703
0.000423241
0.0035332
0.00190857
0.00119868
0.000840896
0.00063529
0.000504507
0.000415367
0.000351516
0.000303987
0.000266632
0.000232146
0.000202836
0.000179341
0.000160552
0.000145409
0.000133148
0.00012324
0.000115318
0.00107451
0.000469235
0.000263874
0.000176159
0.00013095
0.000104443
8.77073e-05
7.67168e-05
6.94215e-05
6.47196e-05
6.20984e-05
6.102e-05
6.11982e-05
6.25122e-05
6.48954e-05
6.83013e-05
7.26994e-05
7.80484e-05
0.000117695
5.8417e-05
4.37586e-05
3.91382e-05
3.86953e-05
4.06558e-05
4.43223e-05
4.93944e-05
5.57529e-05
6.33815e-05
7.23221e-05
8.25962e-05
9.42605e-05
0.000107335
0.00012181
0.000137677
0.000154964
0.000173604
1.36577e-05
2.287e-05
3.24237e-05
4.29488e-05
5.5011e-05
6.89983e-05
8.51103e-05
0.000103346
0.000123508
0.000145232
0.000168036
0.000191389
0.00021477
0.000237723
0.000259877
0.00028096
0.000300809
0.0003192
0.00114493
0.00114269
0.00113815
0.00113136
0.00112241
0.00111151
0.00109892
0.001085
0.00107009
0.00105451
0.000994102
0.000925952
0.000877562
0.000843093
0.000816194
0.000794154
0.000775885
0.000760713
0.000748088
0.000737554
0.000728747
0.000721379
0.000715219
0.00071008
0.000705809
0.000702283
0.000699395
0.000697058
0.000695197
0.000693749
0.000692657
0.000691874
0.000691358
0.000691072
0.000690982
0.000691061
0.000691281
0.000691621
0.000692059
0.000692577
0.00069316
0.000693792
0.000694461
0.000695155
0.000695866
0.000696584
0.000697302
0.000698015
0.000698718
0.000699406
0.000700078
0.000700731
0.000701364
0.000701978
0.000702572
0.000703147
0.000703706
0.00070425
0.000704783
0.000705307
0.000705825
0.00070634
0.000706856
0.000707376
0.000707902
0.000708439
0.000708987
0.00070955
0.000710128
0.000710725
0.000711341
0.000711977
0.000712635
0.000713315
0.000714018
0.000714745
0.000715498
0.000716277
0.000717085
0.000717921
0.000718789
0.00071969
0.000720625
0.000721598
0.00072261
0.000723665
0.000724764
0.000725912
0.000727112
0.000728368
0.000729686
0.000731067
0.000732509
0.000734017
0.000735641
0.000737382
0.000739254
0.000741269
0.000743439
0.000745777
0.000748297
0.000751015
0.000753945
0.000757105
0.000760513
0.000764188
0.00076815
0.000772422
0.000777028
0.000781993
0.000787347
0.000793121
0.000799348
0.000806067
0.000813319
0.000821151
0.000829612
0.000838761
0.00084866
0.00085938
0.000871001
0.000883614
0.000897319
0.000912233
0.000928491
0.000946243
0.000965668
0.000986971
0.00101039
0.00103622
0.00106478
0.00109647
0.00113179
0.0011713
0.00121573
0.00126595
0.00132309
0.00138856
0.00146421
0.00155246
0.00165663
0.00178128
0.00193297
0.00212136
0.0023612
0.00267594
0.00310812
0.00375486
0.00475617
0.00524747
0.00526976
0.00528155
0.00528692
0.00528634
0.00527722
0.00518393
0.00404599
0.00330205
0.00281163
0.0024567
0.00218718
0.00197583
0.00180559
0.00166538
0.00154774
0.00144748
0.00136088
0.00128524
0.00121851
0.00115913
0.00110589
0.00105786
0.0010143
0.000974668
0.00093854
0.000905696
0.000876005
0.000850266
0.000827296
0.000823919
0.00113886
0.00113686
0.00113297
0.00112703
0.00111897
0.00110891
0.00109712
0.00108396
0.00106987
0.00105531
0.00104074
0.00102671
0.00101373
0.00100221
0.000992363
0.000984239
0.00097778
0.00097286
0.00096932
0.000966989
0.000965698
0.000965296
0.000965648
0.00096664
0.000968176
0.000970178
0.000972582
0.000975335
0.000978392
0.000981719
0.000985285
0.000989064
0.000993034
0.000997177
0.00100148
0.00100592
0.00101048
0.00101517
0.00101997
0.00102486
0.00102985
0.00103493
0.00104008
0.00104532
0.00105063
0.001056
0.00106145
0.00106696
0.00107254
0.00107819
0.0010839
0.00108968
0.00109552
0.00110143
0.0011074
0.00111345
0.00111956
0.00112574
0.001132
0.00113832
0.00114472
0.0011512
0.00115775
0.00116437
0.00117107
0.00117785
0.00118471
0.00119165
0.00119867
0.00120578
0.00121298
0.00122027
0.00122765
0.00123514
0.00124274
0.00125046
0.0012583
0.00126627
0.00127438
0.00128266
0.00129109
0.00129971
0.00130852
0.00131755
0.00132681
0.00133631
0.00134609
0.00135617
0.00136656
0.0013773
0.00138842
0.00139993
0.00141186
0.00142403
0.00143663
0.00144972
0.00146334
0.00147752
0.00149232
0.00150777
0.00152392
0.00154083
0.00155854
0.00157713
0.00159665
0.00161717
0.00163878
0.00166155
0.00168558
0.00171096
0.0017378
0.00176622
0.00179634
0.00182831
0.00186227
0.00189838
0.00193682
0.00197778
0.00202147
0.00206811
0.00211795
0.00217124
0.00222826
0.00228932
0.00235471
0.00242478
0.00249987
0.00258032
0.00266649
0.00275872
0.00285733
0.0029626
0.00307476
0.00319394
0.00332018
0.00345331
0.00359302
0.00373869
0.00388944
0.00404399
0.00420067
0.00435735
0.0045114
0.00465973
0.00479884
0.00492493
0.00503411
0.00512252
0.00518656
0.00522555
0.00524728
0.00525916
0.0052647
0.00526439
0.00525599
0.00523327
0.00518487
0.00510938
0.00500886
0.00488621
0.0047448
0.00458836
0.00442071
0.00424549
0.00406605
0.00388534
0.00370588
0.00352976
0.00335863
0.00319374
0.00303599
0.00288599
0.0027441
0.00261046
0.0024851
0.00236794
0.0022588
0.00215742
0.00206235
0.00197392
0.000950408
0.00112293
0.00112135
0.00111788
0.00111224
0.00110443
0.00109468
0.00108341
0.00107111
0.00105835
0.00104568
0.00103364
0.00102266
0.00101309
0.0010051
0.000998748
0.000994007
0.000990769
0.000988892
0.00098822
0.000988596
0.000989877
0.000991933
0.000994654
0.000997949
0.00100174
0.00100597
0.00101058
0.00101554
0.00102081
0.00102637
0.0010322
0.00103827
0.00104457
0.0010511
0.00105783
0.00106477
0.00107191
0.00107924
0.00108676
0.00109446
0.00110235
0.00111042
0.00111867
0.00112711
0.00113573
0.00114453
0.00115352
0.0011627
0.00117207
0.00118162
0.00119137
0.00120131
0.00121144
0.00122176
0.00123228
0.00124299
0.00125389
0.00126497
0.00127624
0.00128769
0.00129932
0.00131112
0.00132309
0.00133523
0.00134752
0.00135997
0.00137257
0.00138531
0.0013982
0.00141123
0.0014244
0.00143772
0.00145117
0.00146476
0.00147851
0.0014924
0.00150645
0.00152066
0.00153504
0.0015496
0.00156434
0.00157929
0.00159445
0.00160984
0.00162547
0.00164136
0.00165751
0.00167395
0.0016907
0.00170775
0.00172513
0.00174268
0.00176047
0.00177865
0.00179727
0.00181636
0.00183597
0.00185612
0.00187686
0.00189823
0.00192026
0.00194301
0.00196652
0.00199086
0.00201607
0.00204223
0.00206941
0.00209768
0.00212713
0.00215785
0.00218993
0.00222349
0.00225863
0.00229547
0.00233416
0.00237482
0.00241761
0.0024627
0.00251025
0.00256046
0.00261351
0.00266962
0.002729
0.00279187
0.00285847
0.00292902
0.00300375
0.00308289
0.00316664
0.00325517
0.00334861
0.00344704
0.00355045
0.00365875
0.00377169
0.00388888
0.00400973
0.00413343
0.00425888
0.00438473
0.00450929
0.00463057
0.0047463
0.00485393
0.00495085
0.00503442
0.00510222
0.00515243
0.00518527
0.00520507
0.00521654
0.00522222
0.00522273
0.00521624
0.00519825
0.00516225
0.00510617
0.00503039
0.00493638
0.0048262
0.00470232
0.00456744
0.00442424
0.00427531
0.00412304
0.00396955
0.00381667
0.00366596
0.00351867
0.00337578
0.00323804
0.00310596
0.0029799
0.00286004
0.00274646
0.00263903
0.00253736
0.00243996
0.0023451
0.000664568
0.00109653
0.00110052
0.0011021
0.00110093
0.00109701
0.00109063
0.00108227
0.00107254
0.00106209
0.00105155
0.00104151
0.00103243
0.00102464
0.00101834
0.00101362
0.00101045
0.00100877
0.00100845
0.00100933
0.0010113
0.00101419
0.0010179
0.00102232
0.00102736
0.00103296
0.00103904
0.00104557
0.00105252
0.00105985
0.00106754
0.00107557
0.00108395
0.00109264
0.00110166
0.00111099
0.00112064
0.0011306
0.00114088
0.00115147
0.00116238
0.00117362
0.00118518
0.00119707
0.0012093
0.00122188
0.0012348
0.00124806
0.00126169
0.00127567
0.00129
0.0013047
0.00131976
0.00133518
0.00135095
0.00136708
0.00138356
0.00140037
0.00141752
0.00143499
0.00145277
0.00147085
0.00148922
0.00150785
0.00152674
0.00154587
0.00156523
0.00158479
0.00160455
0.00162449
0.00164459
0.00166485
0.00168526
0.00170581
0.00172649
0.00174729
0.00176821
0.00178925
0.0018104
0.00183167
0.00185305
0.00187456
0.00189618
0.00191793
0.0019398
0.0019618
0.00198394
0.00200621
0.00202863
0.00205118
0.00207386
0.00209665
0.00211937
0.00214224
0.00216535
0.00218876
0.00221249
0.00223658
0.00226103
0.00228589
0.00231118
0.00233694
0.00236321
0.00239001
0.0024174
0.00244542
0.00247413
0.00250359
0.00253384
0.00256498
0.00259705
0.00263015
0.00266436
0.00269977
0.00273647
0.00277457
0.00281417
0.0028554
0.00289838
0.00294323
0.0029901
0.00303913
0.00309047
0.00314428
0.00320071
0.00325991
0.00332205
0.00338727
0.00345571
0.00352748
0.00360267
0.00368132
0.00376344
0.00384896
0.00393774
0.00402951
0.00412392
0.00422044
0.0043184
0.00441693
0.00451498
0.00461127
0.00470434
0.00479258
0.0048742
0.00494744
0.0050106
0.00506217
0.00510129
0.00512824
0.00514562
0.00515619
0.00516203
0.00516356
0.00515942
0.00514653
0.00512094
0.00508073
0.00502548
0.0049557
0.00487249
0.00477738
0.00467215
0.00455869
0.00443892
0.00431465
0.00418759
0.00405927
0.00393105
0.00380407
0.0036793
0.00355749
0.00343926
0.00332505
0.00321516
0.00310975
0.00300878
0.00291185
0.00281766
0.00272478
0.000499979
0.00105648
0.00106949
0.00107887
0.00108435
0.00108605
0.00108437
0.00107994
0.0010735
0.00106585
0.00105775
0.00104985
0.0010427
0.00103667
0.00103202
0.00102886
0.00102722
0.00102704
0.00102822
0.00103063
0.00103415
0.00103866
0.00104403
0.00105017
0.001057
0.00106445
0.00107247
0.00108102
0.00109007
0.0010996
0.00110959
0.00112002
0.00113091
0.00114223
0.001154
0.00116621
0.00117887
0.00119199
0.00120557
0.00121962
0.00123415
0.00124917
0.00126468
0.0012807
0.00129723
0.00131428
0.00133186
0.00134997
0.00136862
0.00138781
0.00140754
0.00142781
0.00144861
0.00146994
0.0014918
0.00151416
0.00153702
0.00156036
0.00158416
0.0016084
0.00163306
0.00165811
0.00168352
0.00170927
0.00173533
0.00176166
0.00178823
0.00181503
0.001842
0.00186914
0.00189641
0.00192379
0.00195125
0.00197878
0.00200636
0.00203397
0.00206159
0.00208922
0.00211685
0.00214446
0.00217204
0.0021996
0.00222711
0.00225459
0.00228201
0.00230939
0.00233671
0.00236396
0.00239114
0.00241825
0.00244529
0.00247198
0.00249853
0.00252508
0.00255169
0.0025784
0.00260522
0.00263218
0.00265929
0.00268658
0.00271406
0.00274176
0.00276971
0.00279794
0.00282648
0.00285536
0.00288463
0.00291434
0.00294452
0.00297524
0.00300656
0.00303853
0.00307121
0.00310469
0.00313903
0.00317432
0.00321063
0.00324807
0.00328671
0.00332665
0.00336801
0.00341089
0.00345538
0.00350161
0.00354969
0.00359971
0.0036518
0.00370603
0.00376251
0.00382128
0.00388239
0.00394585
0.00401163
0.00407966
0.00414977
0.00422175
0.00429529
0.00436997
0.00444528
0.00452054
0.00459498
0.00466766
0.00473756
0.00480357
0.00486445
0.00491904
0.00496634
0.00500528
0.00503559
0.00505728
0.00507197
0.00508157
0.00508746
0.00508992
0.005088
0.00507966
0.00506244
0.00503477
0.00499591
0.00494583
0.00488498
0.00481418
0.00473453
0.0046473
0.0045538
0.00445538
0.00435334
0.00424889
0.00414313
0.00403707
0.00393156
0.00382734
0.00372501
0.00362506
0.00352783
0.00343357
0.00334232
0.00325378
0.00316694
0.00308086
0.000401001
0.00100463
0.00102911
0.00104845
0.00106242
0.00107123
0.00107545
0.00107586
0.00107341
0.00106905
0.0010637
0.00105814
0.00105302
0.00104881
0.00104581
0.00104421
0.00104407
0.00104536
0.00104802
0.00105195
0.00105702
0.00106314
0.00107018
0.00107807
0.00108672
0.00109608
0.0011061
0.00111675
0.00112799
0.00113981
0.00115221
0.00116518
0.00117871
0.00119281
0.00120749
0.00122276
0.00123861
0.00125508
0.00127216
0.00128988
0.00130824
0.00132725
0.00134692
0.00136728
0.00138832
0.00141005
0.00143249
0.00145563
0.00147947
0.00150402
0.00152927
0.00155521
0.00158183
0.00160912
0.00163706
0.00166563
0.0016948
0.00172455
0.00175483
0.00178563
0.00181689
0.00184858
0.00188066
0.00191308
0.0019458
0.00197876
0.00201193
0.00204526
0.00207871
0.00211223
0.00214578
0.00217934
0.00221285
0.00224631
0.00227967
0.00231291
0.00234601
0.00237896
0.00241173
0.0024443
0.00247667
0.00250882
0.00254073
0.00257241
0.00260383
0.00263499
0.00266588
0.00269648
0.0027268
0.0027568
0.00278642
0.00281554
0.00284439
0.00287305
0.00290158
0.00293
0.00295833
0.00298658
0.00301477
0.0030429
0.00307101
0.00309909
0.00312718
0.0031553
0.00318346
0.0032117
0.00324006
0.00326855
0.00329724
0.00332614
0.00335532
0.00338481
0.00341468
0.00344497
0.00347574
0.00350705
0.00353897
0.00357157
0.00360491
0.00363906
0.00367411
0.00371013
0.0037472
0.0037854
0.0038248
0.0038655
0.00390754
0.00395102
0.00399596
0.00404242
0.00409041
0.00413993
0.00419093
0.00424336
0.00429709
0.00435194
0.00440766
0.00446394
0.0045204
0.00457658
0.00463188
0.00468565
0.0047372
0.00478584
0.00483061
0.00487083
0.00490603
0.00493517
0.00495826
0.00497546
0.00498773
0.00499627
0.00500199
0.00500509
0.00500494
0.00500022
0.00498938
0.00497122
0.00494496
0.00491026
0.00486719
0.0048161
0.00475759
0.00469243
0.00462149
0.00454571
0.00446601
0.00438332
0.00429851
0.00421238
0.00412567
0.00403903
0.00395301
0.0038681
0.00378467
0.00370302
0.00362327
0.00354526
0.00346829
0.00339181
0.000335192
0.000944013
0.000981247
0.00101188
0.0010356
0.00105265
0.00106371
0.00106974
0.00107186
0.00107124
0.00106894
0.00106593
0.00106297
0.00106064
0.00105933
0.00105929
0.00106064
0.00106339
0.00106751
0.00107292
0.00107952
0.00108722
0.00109593
0.00110555
0.00111603
0.0011273
0.00113933
0.00115208
0.00116553
0.00117967
0.0011945
0.00121002
0.00122623
0.00124313
0.00126074
0.00127907
0.00129814
0.00131796
0.00133853
0.00135989
0.00138204
0.00140499
0.00142875
0.00145335
0.00147877
0.00150503
0.00153214
0.00156008
0.00158886
0.00161846
0.00164888
0.0016801
0.0017121
0.00174485
0.00177832
0.00181248
0.0018473
0.00188273
0.00191872
0.00195523
0.0019922
0.00202958
0.00206732
0.00210534
0.0021436
0.00218203
0.00222057
0.00225917
0.00229777
0.00233631
0.00237475
0.00241305
0.00245116
0.00248903
0.00252665
0.00256398
0.00260099
0.00263766
0.00267396
0.00270989
0.00274541
0.00278053
0.00281521
0.00284946
0.00288326
0.00291659
0.00294946
0.00298185
0.00301375
0.00304514
0.00307584
0.003106
0.00313575
0.00316517
0.00319428
0.00322311
0.00325167
0.00327997
0.00330802
0.00333583
0.00336341
0.00339077
0.00341793
0.0034449
0.00347171
0.00349837
0.00352491
0.00355136
0.00357775
0.0036041
0.00363047
0.00365687
0.00368337
0.00370998
0.00373677
0.00376378
0.00379106
0.00381865
0.00384662
0.00387502
0.00390391
0.00393333
0.00396336
0.00399405
0.00402545
0.00405764
0.00409065
0.00412453
0.00415934
0.00419508
0.00423176
0.00426938
0.00430792
0.00434732
0.00438749
0.00442831
0.00446957
0.00451106
0.00455251
0.00459364
0.00463399
0.00467308
0.0047105
0.00474592
0.00477844
0.00480771
0.0048334
0.00485505
0.00487256
0.00488606
0.00489612
0.00490352
0.00490883
0.0049122
0.00491324
0.00491111
0.00490485
0.00489357
0.00487658
0.00485344
0.00482396
0.00478822
0.00474648
0.00469916
0.00464678
0.00458995
0.00452931
0.00446551
0.0043992
0.00433102
0.00426155
0.00419133
0.00412087
0.0040506
0.00398091
0.00391211
0.0038444
0.00377777
0.00371176
0.00364601
0.000288715
0.000878172
0.000928261
0.000970634
0.00100472
0.00103068
0.00104922
0.00106142
0.00106858
0.00107205
0.00107309
0.00107281
0.00107213
0.00107175
0.00107216
0.00107368
0.00107649
0.00108067
0.0010862
0.00109305
0.00110113
0.00111037
0.00112067
0.00113197
0.00114421
0.00115733
0.00117129
0.00118608
0.00120167
0.00121805
0.00123523
0.0012532
0.00127197
0.00129155
0.00131195
0.00133319
0.00135528
0.00137825
0.00140209
0.00142683
0.00145248
0.00147904
0.00150654
0.00153497
0.00156434
0.00159464
0.00162588
0.00165804
0.00169112
0.00172509
0.00175994
0.00179564
0.00183216
0.00186946
0.00190751
0.00194625
0.00198564
0.00202563
0.00206616
0.00210717
0.00214859
0.00219036
0.00223241
0.00227467
0.00231706
0.00235953
0.00240199
0.00244439
0.00248665
0.00252871
0.00257052
0.00261203
0.00265319
0.00269396
0.0027343
0.00277418
0.00281357
0.00285245
0.00289079
0.00292858
0.00296579
0.00300242
0.00303845
0.00307386
0.00310866
0.00314283
0.00317637
0.00320927
0.00324153
0.00327303
0.00330379
0.00333396
0.00336362
0.00339281
0.00342157
0.00344991
0.00347784
0.00350538
0.00353252
0.00355927
0.00358564
0.00361164
0.00363729
0.00366258
0.00368755
0.0037122
0.00373655
0.00376063
0.00378445
0.00380806
0.00383147
0.00385471
0.00387783
0.00390084
0.00392379
0.00394671
0.00396965
0.00399264
0.00401572
0.00403894
0.00406234
0.00408597
0.00410986
0.00413407
0.00415863
0.0041836
0.00420902
0.00423492
0.00426133
0.00428828
0.00431575
0.00434376
0.00437228
0.0044013
0.00443076
0.00446057
0.00449055
0.00452056
0.00455046
0.0045801
0.0046091
0.00463707
0.00466379
0.00468902
0.00471231
0.00473339
0.00475203
0.00476798
0.00478114
0.00479159
0.00479966
0.00480585
0.00481053
0.00481381
0.00481547
0.004815
0.0048118
0.00480526
0.0047948
0.00477997
0.0047605
0.00473629
0.00470737
0.00467393
0.00463625
0.00459469
0.00454965
0.00450159
0.00445096
0.00439822
0.00434383
0.00428823
0.00423183
0.00417503
0.00411819
0.00406164
0.00400562
0.00395022
0.00389516
0.00384013
0.00025446
0.000810565
0.000872618
0.000926386
0.000970842
0.0010059
0.0010322
0.00105089
0.00106338
0.00107119
0.00107576
0.00107836
0.00108006
0.00108168
0.00108382
0.00108689
0.00109113
0.00109668
0.00110356
0.00111175
0.00112121
0.00113187
0.00114366
0.00115652
0.00117038
0.0011852
0.00120095
0.00121761
0.00123515
0.00125358
0.00127288
0.00129307
0.00131414
0.00133611
0.001359
0.0013828
0.00140755
0.00143325
0.00145991
0.00148754
0.00151616
0.00154578
0.00157638
0.00160798
0.00164058
0.00167416
0.00170871
0.00174422
0.00178067
0.00181804
0.00185629
0.00189539
0.0019353
0.00197597
0.00201737
0.00205943
0.0021021
0.00214532
0.00218903
0.00223315
0.00227763
0.00232237
0.00236732
0.00241238
0.00245749
0.00250256
0.00254752
0.00259229
0.00263681
0.00268099
0.00272479
0.00276814
0.002811
0.00285333
0.00289507
0.00293622
0.00297672
0.00301657
0.00305574
0.00309421
0.00313196
0.00316899
0.00320527
0.00324082
0.00327561
0.00330964
0.00334292
0.00337543
0.00340717
0.00343807
0.00346824
0.00349777
0.00352671
0.00355512
0.003583
0.00361037
0.00363724
0.00366361
0.00368948
0.00371487
0.00373977
0.0037642
0.00378815
0.00381164
0.00383468
0.00385728
0.00387946
0.00390123
0.00392262
0.00394365
0.00396434
0.00398471
0.00400479
0.00402461
0.0040442
0.00406358
0.00408279
0.00410186
0.00412083
0.00413972
0.00415858
0.00417744
0.00419632
0.00421526
0.00423431
0.0042535
0.00427286
0.00429243
0.00431224
0.00433231
0.00435261
0.00437317
0.00439397
0.00441502
0.00443631
0.0044578
0.00447924
0.00450061
0.00452181
0.00454273
0.00456316
0.00458286
0.00460169
0.00461946
0.00463594
0.00465096
0.00466435
0.00467597
0.00468572
0.00469365
0.00469995
0.00470492
0.00470883
0.00471175
0.00471357
0.00471401
0.00471269
0.00470922
0.00470313
0.00469405
0.00468166
0.00466578
0.00464633
0.00462333
0.00459691
0.00456724
0.00453456
0.00449916
0.00446133
0.00442141
0.00437973
0.00433663
0.00429244
0.00424751
0.00420216
0.00415671
0.00411143
0.00406646
0.00402163
0.0039766
0.000228353
0.000744114
0.000816542
0.000880735
0.000935031
0.00097896
0.00101298
0.00103821
0.00105614
0.00106841
0.00107661
0.00108217
0.00108629
0.00108993
0.00109378
0.00109836
0.00110396
0.00111077
0.00111887
0.00112828
0.00113896
0.00115087
0.00116395
0.00117815
0.0011934
0.00120968
0.00122695
0.00124519
0.00126438
0.00128451
0.00130558
0.00132759
0.00135055
0.00137446
0.00139933
0.00142518
0.001452
0.00147981
0.00150863
0.00153845
0.00156929
0.00160113
0.00163399
0.00166786
0.00170273
0.00173857
0.00177539
0.00181315
0.00185183
0.00189139
0.00193181
0.00197304
0.00201504
0.00205776
0.00210115
0.00214516
0.00218973
0.00223479
0.00228027
0.00232613
0.00237227
0.00241863
0.00246512
0.00251168
0.00255822
0.00260464
0.00265087
0.00269683
0.00274243
0.00278761
0.00283229
0.00287642
0.00291994
0.00296281
0.00300499
0.00304645
0.00308717
0.00312712
0.00316628
0.00320463
0.00324215
0.00327885
0.0033147
0.0033497
0.00338385
0.00341716
0.00344962
0.00348125
0.00351203
0.00354203
0.00357132
0.00359996
0.00362797
0.00365539
0.00368224
0.00370852
0.00373424
0.00375941
0.00378401
0.00380807
0.00383157
0.00385452
0.00387692
0.00389878
0.00392011
0.00394092
0.00396122
0.00398102
0.00400034
0.00401921
0.00403764
0.00405564
0.00407325
0.00409048
0.00410735
0.0041239
0.00414014
0.00415611
0.00417184
0.00418734
0.00420266
0.00421782
0.00423284
0.00424774
0.00426256
0.00427734
0.0042921
0.00430688
0.00432172
0.00433664
0.00435157
0.00436656
0.00438162
0.00439674
0.00441193
0.00442715
0.00444229
0.00445731
0.00447215
0.00448673
0.00450093
0.00451462
0.00452771
0.00454008
0.0045516
0.00456216
0.00457166
0.00457999
0.00458709
0.00459295
0.00459771
0.00460154
0.00460463
0.00460703
0.00460871
0.00460951
0.00460923
0.0046076
0.00460431
0.00459902
0.00459145
0.0045814
0.00456871
0.00455334
0.00453527
0.00451459
0.00449142
0.0044659
0.00443823
0.00440863
0.00437733
0.00434458
0.00431064
0.0042758
0.00424035
0.00420458
0.00416876
0.00413305
0.00409733
0.00406119
0.000207896
0.00068097
0.000761824
0.000835075
0.000898297
0.000950513
0.000991907
0.00102349
0.00104677
0.00106345
0.00107526
0.00108376
0.00109027
0.00109587
0.00110136
0.00110733
0.00111415
0.00112207
0.00113121
0.0011416
0.00115326
0.00116614
0.0011802
0.0011954
0.00121169
0.00122903
0.0012474
0.00126677
0.00128713
0.00130846
0.00133076
0.00135403
0.00137826
0.00140345
0.00142961
0.00145674
0.00148484
0.00151392
0.00154399
0.00157505
0.00160709
0.00164013
0.00167415
0.00170915
0.00174511
0.00178201
0.00181984
0.00185856
0.00189815
0.00193857
0.0019798
0.00202179
0.00206449
0.00210787
0.00215187
0.00219645
0.00224155
0.00228711
0.00233307
0.00237937
0.00242596
0.00247275
0.00251968
0.00256666
0.00261361
0.00266044
0.00270705
0.00275335
0.00279924
0.00284465
0.0028895
0.00293372
0.00297726
0.00302006
0.0030621
0.00310334
0.00314375
0.00318332
0.00322203
0.00325985
0.00329678
0.00333279
0.00336788
0.00340205
0.0034353
0.00346764
0.00349909
0.00352973
0.0035596
0.00358875
0.00361722
0.00364503
0.00367221
0.00369877
0.00372474
0.00375012
0.0037749
0.00379908
0.00382268
0.00384568
0.00386809
0.0038899
0.00391112
0.00393174
0.00395177
0.00397122
0.0039901
0.00400842
0.0040262
0.00404345
0.0040602
0.00407645
0.00409222
0.00410753
0.00412241
0.00413687
0.00415094
0.00416463
0.00417798
0.00419101
0.00420376
0.00421624
0.00422845
0.00424041
0.00425217
0.00426376
0.00427519
0.0042865
0.00429772
0.00430886
0.00431991
0.00433089
0.00434181
0.00435268
0.0043635
0.00437424
0.00438488
0.00439536
0.00440567
0.00441574
0.00442551
0.00443493
0.00444392
0.00445242
0.00446037
0.0044677
0.00447433
0.00448021
0.00448526
0.00448948
0.00449294
0.00449577
0.00449808
0.00449993
0.0045013
0.00450215
0.00450235
0.00450176
0.00450014
0.00449726
0.00449286
0.00448675
0.00447877
0.0044688
0.00445679
0.00444273
0.00442667
0.00440868
0.00438887
0.00436737
0.00434433
0.00431993
0.00429438
0.00426789
0.00424071
0.00421312
0.00418535
0.00415759
0.00412969
0.00410117
0.00019147
0.000622494
0.000709756
0.00079051
0.000861494
0.000921148
0.0009693
0.00100679
0.0010351
0.00105596
0.0010712
0.00108247
0.00109121
0.0010986
0.00110555
0.00111269
0.0011205
0.00112924
0.00113909
0.00115012
0.00116235
0.00117576
0.00119033
0.001206
0.00122275
0.00124054
0.00125935
0.00127916
0.00129996
0.00132175
0.00134449
0.00136819
0.00139283
0.0014184
0.00144489
0.00147229
0.00150061
0.00152983
0.00155996
0.00159101
0.001623
0.00165591
0.00168976
0.00172452
0.00176019
0.00179675
0.00183417
0.00187244
0.00191152
0.00195138
0.00199201
0.00203336
0.00207541
0.00211811
0.00216143
0.00220532
0.00224975
0.00229467
0.00234002
0.00238577
0.00243185
0.00247822
0.00252481
0.00257153
0.0026183
0.00266502
0.00271157
0.00275783
0.00280369
0.00284904
0.00289381
0.0029379
0.00298126
0.00302383
0.00306556
0.00310644
0.00314645
0.00318556
0.00322376
0.00326103
0.00329734
0.00333268
0.00336704
0.00340042
0.00343282
0.00346426
0.00349496
0.00352496
0.00355427
0.00358291
0.00361088
0.00363821
0.00366492
0.003691
0.00371648
0.00374134
0.0037656
0.00378923
0.00381226
0.00383466
0.00385645
0.00387761
0.00389813
0.00391803
0.00393728
0.00395591
0.00397391
0.00399131
0.00400812
0.00402436
0.00404005
0.00405517
0.00406977
0.00408384
0.00409742
0.00411051