/*--------------------------------*- C++ -*----------------------------------*\
| =========                 |                                                 |
| \\      /  F ield         | OpenFOAM: The Open Source CFD Toolbox           |
|  \\    /   O peration     | Version:  2112                                  |
|   \\  /    A nd           | Website:  www.openfoam.com                      |
|    \\/     M anipulation  |                                                 |
\*---------------------------------------------------------------------------*/
FoamFile
{
    version     2.0;
    format      ascii;
    arch        "LSB;label=32;scalar=64";
    class       surfaceScalarField;
    location    "0.19";
    object      phi;
}
// * * * * * * * * * * * * * * * * * * * * * * * * * * * * * * * * * * * * * //

dimensions      [0 3 -1 0 0 0 0];

oriented        oriented;

internalField   nonuniform List<scalar> 
24170
(
3.04172e-06
1.46686e-07
2.8699e-06
1.71824e-07
2.70949e-06
1.60406e-07
2.56875e-06
1.4074e-07
2.45558e-06
1.13168e-07
2.37301e-06
8.25724e-08
2.31752e-06
5.54919e-08
2.28227e-06
3.52497e-08
2.2588e-06
2.34734e-08
2.24105e-06
1.77404e-08
2.22591e-06
1.51403e-08
2.21248e-06
1.34381e-08
2.20088e-06
1.15971e-08
2.19108e-06
9.79796e-09
2.18247e-06
8.61183e-09
2.17064e-06
1.18317e-08
2.14338e-06
2.72602e-08
5.69334e-08
2.08644e-06
3.48303e-06
8.09074e-08
3.52183e-06
1.33026e-07
3.53369e-06
1.48538e-07
3.51606e-06
1.5837e-07
3.46978e-06
1.5945e-07
3.40004e-06
1.52314e-07
3.31445e-06
1.41084e-07
3.22107e-06
1.28629e-07
3.12785e-06
1.1669e-07
3.04086e-06
1.04732e-07
2.96375e-06
9.22461e-08
2.89793e-06
7.92629e-08
2.84316e-06
6.63663e-08
2.79809e-06
5.48689e-08
2.76109e-06
4.56138e-08
2.7299e-06
4.3016e-08
2.71066e-06
4.64977e-08
7.17039e-08
2.69589e-06
3.68098e-06
6.24489e-08
3.70059e-06
1.13411e-07
3.7189e-06
1.30226e-07
3.7364e-06
1.40869e-07
3.74942e-06
1.4643e-07
3.75506e-06
1.46678e-07
3.75174e-06
1.44409e-07
3.73856e-06
1.41802e-07
3.71562e-06
1.39633e-07
3.68328e-06
1.37067e-07
3.64231e-06
1.33217e-07
3.59382e-06
1.27753e-07
3.53935e-06
1.20835e-07
3.48099e-06
1.13231e-07
3.42108e-06
1.05529e-07
3.36328e-06
1.00812e-07
3.31226e-06
9.75206e-08
1.04014e-07
3.27995e-06
3.93591e-06
5.19228e-08
3.94828e-06
1.01041e-07
3.9586e-06
1.19908e-07
3.96903e-06
1.30436e-07
3.97919e-06
1.3627e-07
3.9883e-06
1.37574e-07
3.99616e-06
1.36546e-07
4.00271e-06
1.35248e-07
4.0079e-06
1.34451e-07
4.01124e-06
1.33723e-07
4.01199e-06
1.32467e-07
4.00927e-06
1.30475e-07
4.0022e-06
1.27904e-07
3.99013e-06
1.25302e-07
3.97253e-06
1.2313e-07
3.95059e-06
1.22752e-07
3.92478e-06
1.23325e-07
1.24731e-07
3.90407e-06
4.21521e-06
4.38445e-08
4.22561e-06
9.06362e-08
4.23451e-06
1.11004e-07
4.24291e-06
1.22044e-07
4.25095e-06
1.28226e-07
4.25826e-06
1.30268e-07
4.26487e-06
1.29936e-07
4.27109e-06
1.29021e-07
4.27727e-06
1.28272e-07
4.2835e-06
1.27496e-07
4.28966e-06
1.26311e-07
4.29552e-06
1.24616e-07
4.30081e-06
1.22611e-07
4.30537e-06
1.20741e-07
4.30911e-06
1.19391e-07
4.31273e-06
1.19129e-07
4.31666e-06
1.19397e-07
1.18526e-07
4.32286e-06
4.51577e-06
3.71616e-08
4.52522e-06
8.11877e-08
4.53382e-06
1.02407e-07
4.54181e-06
1.14048e-07
4.54942e-06
1.20622e-07
4.5564e-06
1.23281e-07
4.56279e-06
1.23554e-07
4.56882e-06
1.22991e-07
4.57479e-06
1.22297e-07
4.58085e-06
1.21441e-07
4.58697e-06
1.20187e-07
4.5931e-06
1.18489e-07
4.59918e-06
1.16523e-07
4.60532e-06
1.14606e-07
4.61173e-06
1.12979e-07
4.61907e-06
1.1179e-07
4.62799e-06
1.10475e-07
1.07749e-07
4.63877e-06
4.83845e-06
3.14295e-08
4.84725e-06
7.23857e-08
4.85575e-06
9.39116e-08
4.86374e-06
1.06053e-07
4.87135e-06
1.13013e-07
4.87844e-06
1.16191e-07
4.88502e-06
1.16976e-07
4.89128e-06
1.16734e-07
4.89746e-06
1.16115e-07
4.9037e-06
1.15201e-07
4.91001e-06
1.13879e-07
4.91635e-06
1.1214e-07
4.92275e-06
1.10126e-07
4.92931e-06
1.08047e-07
4.93626e-06
1.06028e-07
4.94403e-06
1.04018e-07
4.95303e-06
1.01482e-07
9.74534e-08
4.96332e-06
5.18448e-06
2.65295e-08
5.19284e-06
6.40315e-08
5.20132e-06
8.54295e-08
5.20944e-06
9.79281e-08
5.21722e-06
1.05236e-07
5.22457e-06
1.08844e-07
5.23149e-06
1.10057e-07
5.23812e-06
1.10096e-07
5.24468e-06
1.09558e-07
5.25128e-06
1.08605e-07
5.25794e-06
1.07218e-07
5.26466e-06
1.0542e-07
5.27147e-06
1.03316e-07
5.27848e-06
1.01039e-07
5.28587e-06
9.8636e-08
5.2939e-06
9.5983e-08
5.30275e-06
9.26298e-08
8.79096e-08
5.3123e-06
5.55549e-06
2.23788e-08
5.56333e-06
5.61901e-08
5.57185e-06
7.69081e-08
5.58024e-06
8.95393e-08
5.58832e-06
9.716e-08
5.59602e-06
1.01145e-07
5.60334e-06
1.02732e-07
5.61043e-06
1.0301e-07
5.61743e-06
1.02551e-07
5.62446e-06
1.01577e-07
5.63154e-06
1.00136e-07
5.63869e-06
9.82703e-08
5.64595e-06
9.60584e-08
5.65341e-06
9.3582e-08
5.6612e-06
9.08476e-08
5.66945e-06
8.77266e-08
5.6782e-06
8.38797e-08
7.88876e-08
5.68723e-06
5.95329e-06
1.88606e-08
5.96046e-06
4.90202e-08
5.96886e-06
6.85122e-08
5.97754e-06
8.08609e-08
5.9861e-06
8.85972e-08
5.99431e-06
9.29346e-08
6.00213e-06
9.49173e-08
6.00971e-06
9.54209e-08
6.01722e-06
9.50468e-08
6.02472e-06
9.40733e-08
6.03226e-06
9.25944e-08
6.03987e-06
9.06661e-08
6.04758e-06
8.83506e-08
6.05546e-06
8.56982e-08
6.06361e-06
8.27e-08
6.07208e-06
7.92541e-08
6.08082e-06
7.514e-08
7.01185e-08
6.08959e-06
6.37978e-06
1.58883e-08
6.38626e-06
4.25481e-08
6.39433e-06
6.04424e-08
6.40309e-06
7.2093e-08
6.41206e-06
7.96303e-08
6.42087e-06
8.41263e-08
6.42936e-06
8.64237e-08
6.43759e-06
8.71947e-08
6.44567e-06
8.69694e-08
6.4537e-06
8.60436e-08
6.46173e-06
8.45586e-08
6.4698e-06
8.25953e-08
6.47794e-06
8.02138e-08
6.48619e-06
7.74464e-08
6.49462e-06
7.42759e-08
6.50324e-06
7.06254e-08
6.51202e-06
6.63658e-08
6.14004e-08
6.52074e-06
5.74299e-06
1.37317e-08
5.74796e-06
3.75777e-08
5.75448e-06
5.39232e-08
5.76181e-06
6.47592e-08
5.76952e-06
7.1923e-08
5.77729e-06
7.63572e-08
5.78494e-06
7.87703e-08
5.79242e-06
7.97192e-08
5.79975e-06
7.9634e-08
5.80701e-06
7.87859e-08
5.81424e-06
7.73328e-08
5.82146e-06
7.53741e-08
5.8287e-06
7.29756e-08
5.83598e-06
7.01667e-08
5.84332e-06
6.69327e-08
5.85073e-06
6.32194e-08
5.85814e-06
5.89506e-08
5.41081e-08
5.86543e-06
7.00027e-06
1.162e-08
7.00554e-06
3.23071e-08
7.01264e-06
4.68256e-08
7.02086e-06
5.6538e-08
7.02971e-06
6.30722e-08
7.03882e-06
6.72471e-08
7.04796e-06
6.96268e-08
7.05702e-06
7.06598e-08
7.06597e-06
7.06846e-08
7.07483e-06
6.99287e-08
7.08362e-06
6.85413e-08
7.09237e-06
6.66259e-08
7.10109e-06
6.42521e-08
7.1098e-06
6.14543e-08
7.1185e-06
5.82311e-08
7.12717e-06
5.45577e-08
7.13571e-06
5.04048e-08
4.58046e-08
7.14401e-06
8.53295e-06
9.51275e-09
8.53853e-06
2.67325e-08
8.54615e-06
3.92083e-08
8.5552e-06
4.74801e-08
8.56519e-06
5.3088e-08
8.57567e-06
5.67696e-08
8.58636e-06
5.89328e-08
8.59711e-06
5.99053e-08
8.60785e-06
5.99483e-08
8.61853e-06
5.92479e-08
8.62914e-06
5.79317e-08
8.63967e-06
5.60921e-08
8.65013e-06
5.37951e-08
8.66051e-06
5.10801e-08
8.67077e-06
4.79637e-08
8.68088e-06
4.44521e-08
8.69073e-06
4.05559e-08
3.63369e-08
8.7002e-06
1.04014e-05
7.36138e-09
1.04073e-05
2.08274e-08
1.04155e-05
3.09544e-08
1.04254e-05
3.75914e-08
1.04365e-05
4.20003e-08
1.04484e-05
4.49153e-08
1.04607e-05
4.66382e-08
1.04732e-05
4.73812e-08
1.04858e-05
4.73235e-08
1.04984e-05
4.66061e-08
1.0511e-05
4.53327e-08
1.05236e-05
4.35805e-08
1.05359e-05
4.14074e-08
1.05482e-05
3.8855e-08
1.05602e-05
3.59538e-08
1.05719e-05
3.2733e-08
1.05832e-05
2.92293e-08
2.55166e-08
1.0594e-05
1.2679e-05
5.11712e-09
1.26853e-05
1.45298e-08
1.26944e-05
2.18523e-08
1.27053e-05
2.67334e-08
1.27176e-05
2.97107e-08
1.27309e-05
3.1592e-08
1.27449e-05
3.26519e-08
1.27593e-05
3.29943e-08
1.27739e-05
3.27137e-08
1.27886e-05
3.19015e-08
1.28033e-05
3.06338e-08
1.28179e-05
2.89707e-08
1.28323e-05
2.69614e-08
1.28466e-05
2.46469e-08
1.28604e-05
2.20644e-08
1.28739e-05
1.92537e-08
1.28869e-05
1.62614e-08
1.31579e-08
1.28993e-05
1.54556e-05
2.72475e-09
1.54623e-05
7.76073e-09
1.54725e-05
1.17412e-08
1.54848e-05
1.44191e-08
1.54987e-05
1.58105e-08
1.55137e-05
1.65276e-08
1.55296e-05
1.67576e-08
1.55461e-05
1.65481e-08
1.55628e-05
1.59361e-08
1.55798e-05
1.49659e-08
1.55967e-05
1.36812e-08
1.56136e-05
1.21218e-08
1.56302e-05
1.03245e-08
1.56465e-05
8.32441e-09
1.56625e-05
6.15697e-09
1.56778e-05
3.86075e-09
1.56926e-05
1.47874e-09
-9.32933e-10
1.57067e-05
1.88403e-05
7.02521e-11
1.88478e-05
2.22751e-10
1.88593e-05
2.69311e-10
1.88736e-05
1.22061e-10
1.88897e-05
-2.99089e-10
1.89071e-05
-8.78215e-10
1.89255e-05
-1.59315e-09
1.89445e-05
-2.4466e-09
1.89638e-05
-3.44524e-09
1.89834e-05
-4.58937e-09
1.90029e-05
-5.87167e-09
1.90223e-05
-7.27799e-09
1.90415e-05
-8.78908e-09
1.90602e-05
-1.03826e-08
1.90784e-05
-1.20335e-08
1.90959e-05
-1.37144e-08
1.91128e-05
-1.5395e-08
-1.70381e-08
1.91289e-05
2.29665e-05
-3.07613e-09
2.29755e-05
-8.75862e-09
2.29892e-05
-1.34309e-08
2.30063e-05
-1.70117e-08
2.30256e-05
-1.96019e-08
2.30464e-05
-2.16875e-08
2.30683e-05
-2.34628e-08
2.30908e-05
-2.49973e-08
2.31137e-05
-2.63546e-08
2.31367e-05
-2.75966e-08
2.31596e-05
-2.87689e-08
2.31823e-05
-2.98967e-08
2.32045e-05
-3.09868e-08
2.32261e-05
-3.20312e-08
2.32471e-05
-3.30213e-08
2.32673e-05
-3.3948e-08
2.32867e-05
-3.48006e-08
-3.55663e-08
2.33053e-05
1.68132e-05
-5.6116e-09
1.68204e-05
-1.58733e-08
1.6831e-05
-2.40727e-08
1.68441e-05
-3.00738e-08
1.68587e-05
-3.42629e-08
1.68745e-05
-3.74455e-08
1.68909e-05
-3.99309e-08
1.69078e-05
-4.18378e-08
1.69247e-05
-4.32957e-08
1.69416e-05
-4.44358e-08
1.69582e-05
-4.53638e-08
1.69744e-05
-4.6153e-08
1.69903e-05
-4.68335e-08
1.70056e-05
-4.73864e-08
1.70204e-05
-4.78232e-08
1.70346e-05
-4.81547e-08
1.70482e-05
-4.83856e-08
-4.85178e-08
1.70612e-05
1.46372e-05
-8.20209e-09
1.46443e-05
-2.29849e-08
1.46545e-05
-3.43261e-08
1.46668e-05
-4.23062e-08
1.46804e-05
-4.79161e-08
1.4695e-05
-5.20394e-08
1.47101e-05
-5.50384e-08
1.47253e-05
-5.70716e-08
1.47404e-05
-5.8375e-08
1.47552e-05
-5.91832e-08
1.47695e-05
-5.96793e-08
1.47833e-05
-5.99869e-08
1.47966e-05
-6.01615e-08
1.48095e-05
-6.02032e-08
1.48218e-05
-6.0133e-08
1.48336e-05
-5.99637e-08
1.48449e-05
-5.96924e-08
-5.93133e-08
1.48557e-05
1.2743e-05
-1.10549e-08
1.27504e-05
-3.04431e-08
1.27607e-05
-4.45445e-08
1.27725e-05
-5.41479e-08
1.27855e-05
-6.09028e-08
1.27991e-05
-6.56545e-08
1.28128e-05
-6.87805e-08
1.28264e-05
-7.05972e-08
1.28395e-05
-7.14903e-08
1.28521e-05
-7.18063e-08
1.28642e-05
-7.17796e-08
1.28758e-05
-7.15466e-08
1.28868e-05
-7.11988e-08
1.28974e-05
-7.08087e-08
1.29076e-05
-7.03566e-08
1.29175e-05
-6.98101e-08
1.29269e-05
-6.91499e-08
-6.83634e-08
1.2936e-05
1.10943e-05
-1.44156e-08
1.11023e-05
-3.84974e-08
1.11127e-05
-5.48727e-08
1.11242e-05
-6.566e-08
1.11364e-05
-7.31135e-08
1.11488e-05
-7.80556e-08
1.11609e-05
-8.09015e-08
1.11726e-05
-8.22634e-08
1.11838e-05
-8.26576e-08
1.11944e-05
-8.24742e-08
1.12046e-05
-8.19803e-08
1.12144e-05
-8.13316e-08
1.12238e-05
-8.06143e-08
1.12329e-05
-7.98851e-08
1.12417e-05
-7.91157e-08
1.12501e-05
-7.82591e-08
1.12582e-05
-7.72785e-08
-7.61454e-08
1.1266e-05
9.65942e-06
-1.86168e-08
9.6681e-06
-4.71864e-08
9.67837e-06
-6.51383e-08
9.68927e-06
-7.65618e-08
9.7005e-06
-8.43453e-08
9.71172e-06
-8.92761e-08
9.7226e-06
-9.17759e-08
9.73293e-06
-9.25943e-08
9.74266e-06
-9.23925e-08
9.75184e-06
-9.16517e-08
9.76054e-06
-9.06802e-08
9.76886e-06
-8.96484e-08
9.77688e-06
-8.86363e-08
9.78466e-06
-8.7662e-08
9.79222e-06
-8.66761e-08
9.79956e-06
-8.56059e-08
9.80668e-06
-8.43972e-08
-8.30142e-08
9.81355e-06
8.41058e-06
-2.38455e-08
8.42001e-06
-5.66162e-08
8.43008e-06
-7.52121e-08
8.44032e-06
-8.67984e-08
8.45078e-06
-9.47997e-08
8.46117e-06
-9.96669e-08
8.47116e-06
-1.01767e-07
8.48053e-06
-1.0197e-07
8.48924e-06
-1.01096e-07
8.49732e-06
-9.97311e-08
8.50488e-06
-9.82435e-08
8.51205e-06
-9.68182e-08
8.51894e-06
-9.5531e-08
8.52565e-06
-9.43736e-08
8.53224e-06
-9.32567e-08
8.53869e-06
-9.2064e-08
8.54499e-06
-9.0698e-08
-8.90236e-08
8.551e-06
7.32379e-06
-3.03534e-08
7.33421e-06
-6.70339e-08
7.3442e-06
-8.52069e-08
7.35402e-06
-9.66172e-08
7.36411e-06
-1.04881e-07
7.37413e-06
-1.09692e-07
7.38371e-06
-1.11343e-07
7.39262e-06
-1.10884e-07
7.40081e-06
-1.09283e-07
7.40831e-06
-1.07234e-07
7.41526e-06
-1.05192e-07
7.42181e-06
-1.03372e-07
7.42814e-06
-1.01853e-07
7.43435e-06
-1.00589e-07
7.44052e-06
-9.94259e-08
7.44665e-06
-9.81949e-08
7.45274e-06
-9.67881e-08
-9.52056e-08
7.45892e-06
6.3786e-06
-3.88871e-08
6.39074e-06
-7.91775e-08
6.40134e-06
-9.5799e-08
6.4119e-06
-1.07181e-07
6.42296e-06
-1.15945e-07
6.43403e-06
-1.20763e-07
6.44468e-06
-1.21993e-07
6.45464e-06
-1.2084e-07
6.46373e-06
-1.18375e-07
6.47191e-06
-1.15411e-07
6.47924e-06
-1.12524e-07
6.48584e-06
-1.09971e-07
6.49191e-06
-1.07919e-07
6.49755e-06
-1.06237e-07
6.50279e-06
-1.0466e-07
6.50756e-06
-1.02969e-07
6.51171e-06
-1.00939e-07
-9.81545e-08
6.51466e-06
5.55994e-06
-5.33622e-08
5.57774e-06
-9.69741e-08
5.59403e-06
-1.12097e-07
5.61164e-06
-1.24783e-07
5.6299e-06
-1.34205e-07
5.64738e-06
-1.3825e-07
5.66284e-06
-1.37451e-07
5.67518e-06
-1.33177e-07
5.68357e-06
-1.26762e-07
5.68756e-06
-1.19405e-07
5.687e-06
-1.11966e-07
5.68173e-06
-1.04695e-07
5.67196e-06
-9.81492e-08
5.65791e-06
-9.21871e-08
5.6398e-06
-8.65523e-08
5.61789e-06
-8.1062e-08
5.59268e-06
-7.5725e-08
-7.05847e-08
5.56511e-06
4.88478e-06
-1.10537e-07
4.9312e-06
-1.4339e-07
4.96631e-06
-1.47208e-07
4.9877e-06
-1.46175e-07
4.99267e-06
-1.39175e-07
4.98054e-06
-1.26122e-07
4.95196e-06
-1.08868e-07
4.9084e-06
-8.96181e-08
4.85201e-06
-7.03765e-08
4.7855e-06
-5.28872e-08
4.71191e-06
-3.83811e-08
4.63393e-06
-2.6717e-08
4.55444e-06
-1.86554e-08
4.47588e-06
-1.36327e-08
4.40024e-06
-1.09127e-08
4.32899e-06
-9.80267e-09
4.26298e-06
-9.72221e-09
-9.66856e-09
4.20207e-06
4.09214e-06
3.94875e-06
3.80154e-06
3.65537e-06
3.51619e-06
3.39007e-06
3.2812e-06
3.19158e-06
3.12121e-06
3.06832e-06
3.02994e-06
3.00322e-06
2.98457e-06
2.97093e-06
2.96002e-06
2.95022e-06
2.9405e-06
2.93083e-06
-9.41398e-09
9.41398e-09
-2.06982e-08
1.12842e-08
-3.31074e-08
1.24091e-08
-4.64971e-08
1.33897e-08
-6.07592e-08
1.42622e-08
-7.58046e-08
1.50454e-08
-9.15714e-08
1.57667e-08
-1.08049e-07
1.64774e-08
-1.25323e-07
1.72742e-08
-1.43659e-07
1.83357e-08
-1.63188e-07
1.95289e-08
-1.83646e-07
2.04579e-08
-2.04704e-07
2.10586e-08
-2.26199e-07
2.14948e-08
-2.48075e-07
2.18764e-08
-2.70323e-07
2.22473e-08
-2.92946e-07
2.26235e-08
-3.1596e-07
2.30135e-08
-3.39382e-07
2.34228e-08
-3.63237e-07
2.38544e-08
-3.87546e-07
2.43091e-08
-4.12332e-07
2.4786e-08
-4.37615e-07
2.52833e-08
-4.63414e-07
2.57988e-08
-4.89744e-07
2.633e-08
-5.16619e-07
2.68746e-08
-5.44049e-07
2.74302e-08
-5.72043e-07
2.79947e-08
-6.00609e-07
2.8566e-08
-6.29752e-07
2.91421e-08
-6.59473e-07
2.97209e-08
-6.89773e-07
3.03004e-08
-7.20651e-07
3.08783e-08
-7.52104e-07
3.14525e-08
-7.84124e-07
3.20206e-08
-8.16705e-07
3.25802e-08
-8.49833e-07
3.31287e-08
-8.83497e-07
3.36633e-08
-9.17678e-07
3.41813e-08
-9.52358e-07
3.46797e-08
-9.87513e-07
3.51555e-08
-1.02312e-06
3.56056e-08
-1.05915e-06
3.60268e-08
-1.09556e-06
3.64159e-08
-1.13233e-06
3.67697e-08
-1.16942e-06
3.70848e-08
-1.20677e-06
3.73581e-08
-1.24436e-06
3.75864e-08
-1.28213e-06
3.77666e-08
-1.32002e-06
3.78959e-08
-1.35799e-06
3.79714e-08
-1.39598e-06
3.79905e-08
-1.43394e-06
3.79509e-08
-1.47179e-06
3.78507e-08
-1.50947e-06
3.76882e-08
-1.54694e-06
3.7462e-08
-1.58411e-06
3.71714e-08
-1.62092e-06
3.68159e-08
-1.65732e-06
3.63958e-08
-1.69323e-06
3.59117e-08
-1.7286e-06
3.53648e-08
-1.76335e-06
3.4757e-08
-1.79744e-06
3.40905e-08
-1.83081e-06
3.33681e-08
-1.86341e-06
3.25931e-08
-1.89517e-06
3.1769e-08
-1.92607e-06
3.08995e-08
-1.95606e-06
2.99887e-08
-1.9851e-06
2.90404e-08
-2.01316e-06
2.80584e-08
-2.04021e-06
2.70465e-08
-2.06622e-06
2.60078e-08
-2.09116e-06
2.49455e-08
-2.11502e-06
2.38622e-08
-2.13778e-06
2.276e-08
-2.15942e-06
2.1641e-08
-2.17993e-06
2.05067e-08
-2.19929e-06
1.93585e-08
-2.21749e-06
1.81972e-08
-2.23451e-06
1.70237e-08
-2.25035e-06
1.58385e-08
-2.26499e-06
1.46419e-08
-2.27842e-06
1.34337e-08
-2.29064e-06
1.22133e-08
-2.30162e-06
1.09796e-08
-2.31135e-06
9.73078e-09
-2.31981e-06
8.46409e-09
-2.32699e-06
7.17573e-09
-2.33285e-06
5.86039e-09
-2.33736e-06
4.51114e-09
-2.34048e-06
3.11897e-09
-2.34214e-06
1.66539e-09
-2.34219e-06
4.39701e-11
-2.3408e-06
-1.38556e-09
-2.33802e-06
-2.78408e-09
-2.33386e-06
-4.16153e-09
-2.32832e-06
-5.54057e-09
-2.32139e-06
-6.93055e-09
-2.31305e-06
-8.33432e-09
-2.3033e-06
-9.75262e-09
-2.29211e-06
-1.11851e-08
-2.27948e-06
-1.26308e-08
-2.26539e-06
-1.40887e-08
-2.24984e-06
-1.55575e-08
-2.2328e-06
-1.70357e-08
-2.21428e-06
-1.85225e-08
-2.19426e-06
-2.00166e-08
-2.17274e-06
-2.15173e-08
-2.14972e-06
-2.30241e-08
-2.12518e-06
-2.45365e-08
-2.09913e-06
-2.60536e-08
-2.07156e-06
-2.75749e-08
-2.04246e-06
-2.90993e-08
-2.01183e-06
-3.06257e-08
-1.97968e-06
-3.21527e-08
-1.946e-06
-3.36787e-08
-1.9108e-06
-3.52019e-08
-1.87408e-06
-3.67202e-08
-1.83585e-06
-3.82313e-08
-1.79611e-06
-3.97326e-08
-1.75489e-06
-4.12211e-08
-1.7122e-06
-4.26937e-08
-1.66805e-06
-4.41467e-08
-1.62248e-06
-4.55763e-08
-1.5755e-06
-4.69783e-08
-1.52715e-06
-4.83484e-08
-1.47747e-06
-4.9682e-08
-1.42649e-06
-5.09742e-08
-1.37427e-06
-5.22199e-08
-1.32086e-06
-5.34141e-08
-1.26631e-06
-5.45511e-08
-1.21068e-06
-5.56261e-08
-1.15405e-06
-5.66343e-08
-1.09647e-06
-5.75719e-08
-1.03804e-06
-5.84362e-08
-9.78813e-07
-5.92257e-08
-9.18872e-07
-5.99405e-08
-8.58289e-07
-6.05834e-08
-7.97128e-07
-6.11607e-08
-7.35446e-07
-6.16822e-08
-6.73285e-07
-6.21606e-08
-6.10675e-07
-6.26102e-08
-5.47631e-07
-6.30443e-08
-4.84164e-07
-6.34664e-08
-4.20318e-07
-6.38465e-08
-3.56247e-07
-6.40705e-08
-2.92413e-07
-6.38339e-08
-2.30164e-07
-6.22498e-08
-1.73205e-07
-5.69591e-08
-1.21375e-07
-5.18295e-08
-7.03482e-08
-5.10269e-08
-1.87719e-08
-5.15763e-08
3.24002e-08
-5.11721e-08
8.20315e-08
-4.96314e-08
1.29279e-07
-4.72475e-08
1.78053e-07
-4.87743e-08
2.30525e-07
-5.24719e-08
2.83645e-07
-5.31202e-08
3.36399e-07
-5.27535e-08
3.88369e-07
-5.19697e-08
4.39391e-07
-5.10226e-08
4.89429e-07
-5.00374e-08
5.3849e-07
-4.90609e-08
5.866e-07
-4.81108e-08
6.33792e-07
-4.71913e-08
6.80091e-07
-4.62993e-08
7.25522e-07
-4.5431e-08
7.70105e-07
-4.45834e-08
8.1386e-07
-4.37551e-08
8.56804e-07
-4.29441e-08
8.98949e-07
-4.21447e-08
9.40291e-07
-4.13423e-08
9.80798e-07
-4.05062e-08
1.02038e-06
-3.9584e-08
1.05887e-06
-3.84835e-08
1.09588e-06
-3.70145e-08
1.13055e-06
-3.46695e-08
1.16028e-06
-2.9727e-08
1.17493e-06
-1.46562e-08
3.05553e-08
1.14438e-06
-1.206e-08
2.14739e-08
-2.46582e-08
2.38825e-08
-3.8418e-08
2.61688e-08
-5.31506e-08
2.81223e-08
-6.87796e-08
2.98912e-08
-8.52874e-08
3.15532e-08
-1.02668e-07
3.31474e-08
-1.20906e-07
3.47154e-08
-1.39943e-07
3.63107e-08
-1.59587e-07
3.79799e-08
-1.79746e-07
3.96879e-08
-2.00567e-07
4.12787e-08
-2.22169e-07
4.26613e-08
-2.44534e-07
4.3859e-08
-2.67588e-07
4.49306e-08
-2.91267e-07
4.5927e-08
-3.15529e-07
4.68851e-08
-3.40347e-07
4.78314e-08
-3.65708e-07
4.87843e-08
-3.9161e-07
4.97561e-08
-4.18055e-07
5.0754e-08
-4.4505e-07
5.17813e-08
-4.72606e-07
5.28385e-08
-5.00731e-07
5.39243e-08
-5.29437e-07
5.50359e-08
-5.58733e-07
5.61702e-08
-5.88626e-07
5.73232e-08
-6.19122e-07
5.84909e-08
-6.50225e-07
5.96692e-08
-6.81936e-07
6.08536e-08
-7.14255e-07
6.20396e-08
-7.47177e-07
6.32226e-08
-7.80697e-07
6.43978e-08
-8.14804e-07
6.55599e-08
-8.49487e-07
6.67038e-08
-8.84731e-07
6.7824e-08
-9.20517e-07
6.89146e-08
-9.56823e-07
6.99697e-08
-9.93625e-07
7.09832e-08
-1.03089e-06
7.19487e-08
-1.0686e-06
7.28598e-08
-1.1067e-06
7.37097e-08
-1.14517e-06
7.44918e-08
-1.18395e-06
7.51994e-08
-1.22301e-06
7.58259e-08
-1.26229e-06
7.63647e-08
-1.30174e-06
7.68093e-08
-1.34131e-06
7.71536e-08
-1.38093e-06
7.73918e-08
-1.42055e-06
7.75183e-08
-1.46011e-06
7.75281e-08
-1.49954e-06
7.74168e-08
-1.53877e-06
7.71804e-08
-1.57773e-06
7.68158e-08
-1.61636e-06
7.63208e-08
-1.6546e-06
7.56938e-08
-1.69236e-06
7.49343e-08
-1.72958e-06
7.40428e-08
-1.76621e-06
7.30209e-08
-1.80217e-06
7.18712e-08
-1.8374e-06
7.05975e-08
-1.87185e-06
6.92044e-08
-1.90546e-06
6.76976e-08
-1.93817e-06
6.60838e-08
-1.96995e-06
6.43701e-08
-2.00074e-06
6.25643e-08
-2.03052e-06
6.06746e-08
-2.05924e-06
5.8709e-08
-2.08688e-06
5.66756e-08
-2.1134e-06
5.45822e-08
-2.13879e-06
5.24357e-08
-2.16302e-06
5.02428e-08
-2.18609e-06
4.80091e-08
-2.20796e-06
4.57395e-08
-2.22864e-06
4.34383e-08
-2.24811e-06
4.11088e-08
-2.26636e-06
3.87538e-08
-2.28337e-06
3.63756e-08
-2.29915e-06
3.3976e-08
-2.31369e-06
3.1556e-08
-2.32696e-06
2.91167e-08
-2.33898e-06
2.66581e-08
-2.34973e-06
2.418e-08
-2.35919e-06
2.16814e-08
-2.36738e-06
1.91606e-08
-2.37426e-06
1.66152e-08
-2.37984e-06
1.4042e-08
-2.3841e-06
1.14375e-08
-2.38704e-06
8.79824e-09
-2.38865e-06
6.12183e-09
-2.38894e-06
3.40895e-09
-2.38794e-06
6.70055e-10
-2.3858e-06
-2.10021e-09
-2.38235e-06
-4.83465e-09
-2.37755e-06
-7.57988e-09
-2.37137e-06
-1.03439e-08
-2.36378e-06
-1.31315e-08
-2.35476e-06
-1.59458e-08
-2.34431e-06
-1.87877e-08
-2.33241e-06
-2.16566e-08
-2.31904e-06
-2.45511e-08
-2.3042e-06
-2.74693e-08
-2.28788e-06
-3.04086e-08
-2.27007e-06
-3.33663e-08
-2.25077e-06
-3.63395e-08
-2.22997e-06
-3.93258e-08
-2.20766e-06
-4.2323e-08
-2.18385e-06
-4.53293e-08
-2.15853e-06
-4.83433e-08
-2.1317e-06
-5.13636e-08
-2.10337e-06
-5.43889e-08
-2.07352e-06
-5.74173e-08
-2.04218e-06
-6.04467e-08
-2.00933e-06
-6.34747e-08
-1.97498e-06
-6.64982e-08
-1.93915e-06
-6.95139e-08
-1.90183e-06
-7.2518e-08
-1.86305e-06
-7.5506e-08
-1.8228e-06
-7.84731e-08
-1.78112e-06
-8.14142e-08
-1.73802e-06
-8.43231e-08
-1.69352e-06
-8.71933e-08
-1.64765e-06
-9.00175e-08
-1.60044e-06
-9.27882e-08
-1.55192e-06
-9.54969e-08
-1.50213e-06
-9.81351e-08
-1.45112e-06
-1.00694e-07
-1.39893e-06
-1.03163e-07
-1.34562e-06
-1.05534e-07
-1.29124e-06
-1.07796e-07
-1.23585e-06
-1.09939e-07
-1.17952e-06
-1.11953e-07
-1.12233e-06
-1.1383e-07
-1.06434e-06
-1.15563e-07
-1.00563e-06
-1.17146e-07
-9.46276e-07
-1.18576e-07
-8.86363e-07
-1.19854e-07
-8.25963e-07
-1.20984e-07
-7.6515e-07
-1.21974e-07
-7.03993e-07
-1.22839e-07
-6.42558e-07
-1.23595e-07
-5.80912e-07
-1.24257e-07
-5.19127e-07
-1.2483e-07
-4.57302e-07
-1.25291e-07
-3.95596e-07
-1.25552e-07
-3.34285e-07
-1.25382e-07
-2.73921e-07
-1.24198e-07
-2.15499e-07
-1.20672e-07
-1.58922e-07
-1.13536e-07
-1.03537e-07
-1.07214e-07
-4.94015e-08
-1.05162e-07
3.79539e-09
-1.04773e-07
5.63163e-08
-1.03693e-07
1.08215e-07
-1.0153e-07
1.60193e-07
-9.92257e-08
2.12411e-07
-1.00992e-07
2.65569e-07
-1.0563e-07
3.19598e-07
-1.07149e-07
3.73473e-07
-1.06628e-07
4.26789e-07
-1.05286e-07
4.79401e-07
-1.03634e-07
5.31244e-07
-1.01881e-07
5.82307e-07
-1.00123e-07
6.326e-07
-9.84039e-08
6.82144e-07
-9.67357e-08
7.30961e-07
-9.51158e-08
7.79067e-07
-9.35374e-08
8.26479e-07
-9.19951e-08
8.73209e-07
-9.04848e-08
9.19265e-07
-8.90002e-08
9.64647e-07
-8.75272e-08
1.00934e-06
-8.60323e-08
1.05328e-06
-8.44492e-08
1.09636e-06
-8.26628e-08
1.13834e-06
-8.04675e-08
1.17878e-06
-7.74492e-08
1.21672e-06
-7.26068e-08
1.25022e-06
-6.32348e-08
1.27549e-06
-3.99253e-08
1.23398e-08
1.29371e-06
-1.32374e-08
3.47113e-08
-2.7599e-08
3.82441e-08
-4.26741e-08
4.1244e-08
-5.85095e-08
4.39577e-08
-7.51338e-08
4.65155e-08
-9.25654e-08
4.89849e-08
-1.1081e-07
5.13915e-08
-1.29848e-07
5.37535e-08
-1.49624e-07
5.60874e-08
-1.70042e-07
5.83972e-08
-1.91012e-07
6.0658e-08
-2.12548e-07
6.28154e-08
-2.34714e-07
6.48273e-08
-2.57545e-07
6.66897e-08
-2.8104e-07
6.84258e-08
-3.05182e-07
7.00685e-08
-3.29947e-07
7.16504e-08
-3.55316e-07
7.32e-08
-3.81271e-07
7.47401e-08
-4.07803e-07
7.6288e-08
-4.34905e-07
7.78555e-08
-4.62573e-07
7.945e-08
-4.9081e-07
8.10746e-08
-5.19615e-07
8.27299e-08
-5.48993e-07
8.44139e-08
-5.78946e-07
8.61233e-08
-6.09477e-07
8.78535e-08
-6.40585e-07
8.9599e-08
-6.72269e-07
9.13539e-08
-7.04528e-07
9.31118e-08
-7.37354e-07
9.48657e-08
-7.70739e-07
9.66084e-08
-8.04674e-07
9.83324e-08
-8.39144e-07
1.0003e-07
-8.74132e-07
1.01692e-07
-9.09619e-07
1.03311e-07
-9.45582e-07
1.04878e-07
-9.81995e-07
1.06383e-07
-1.01883e-06
1.07817e-07
-1.05605e-06
1.0917e-07
-1.09362e-06
1.10434e-07
-1.13151e-06
1.11597e-07
-1.16967e-06
1.12651e-07
-1.20806e-06
1.13584e-07
-1.24662e-06
1.14389e-07
-1.28531e-06
1.15055e-07
-1.32407e-06
1.15573e-07
-1.36285e-06
1.15934e-07
-1.40159e-06
1.16132e-07
-1.44023e-06
1.16158e-07
-1.47871e-06
1.16005e-07
-1.51696e-06
1.15668e-07
-1.55492e-06
1.15143e-07
-1.59253e-06
1.14424e-07
-1.62972e-06
1.13511e-07
-1.66643e-06
1.12402e-07
-1.70259e-06
1.11097e-07
-1.73815e-06
1.09598e-07
-1.77303e-06
1.07908e-07
-1.80719e-06
1.06032e-07
-1.84057e-06
1.03976e-07
-1.87312e-06
1.01748e-07
-1.90478e-06
9.93579e-08
-1.93551e-06
9.6815e-08
-1.96527e-06
9.4131e-08
-1.99402e-06
9.13175e-08
-2.02173e-06
8.83868e-08
-2.04838e-06
8.53513e-08
-2.07392e-06
8.22228e-08
-2.09835e-06
7.90127e-08
-2.12165e-06
7.57313e-08
-2.14379e-06
7.2388e-08
-2.16478e-06
6.89908e-08
-2.18458e-06
6.55467e-08
-2.20321e-06
6.20612e-08
-2.22064e-06
5.8539e-08
-2.23687e-06
5.49839e-08
-2.25189e-06
5.13988e-08
-2.2657e-06
4.77859e-08
-2.27829e-06
4.4147e-08
-2.28966e-06
4.0483e-08
-2.29979e-06
3.67946e-08
-2.30869e-06
3.30814e-08
-2.31636e-06
2.93425e-08
-2.32277e-06
2.55763e-08
-2.32794e-06
2.17805e-08
-2.33185e-06
1.79525e-08
-2.3345e-06
1.40899e-08
-2.33589e-06
1.01912e-08
-2.33603e-06
6.25677e-09
-2.33491e-06
2.28965e-09
-2.33254e-06
-1.70266e-09
-2.32892e-06
-5.7151e-09
-2.32401e-06
-9.74772e-09
-2.31777e-06
-1.3814e-08
-2.3102e-06
-1.79185e-08
-2.30127e-06
-2.20631e-08
-2.29097e-06
-2.62481e-08
-2.27928e-06
-3.04725e-08
-2.2662e-06
-3.47348e-08
-2.25172e-06
-3.90324e-08
-2.23583e-06
-4.33621e-08
-2.21852e-06
-4.77201e-08
-2.19978e-06
-5.21023e-08
-2.17962e-06
-5.65043e-08
-2.15802e-06
-6.09221e-08
-2.13499e-06
-6.53522e-08
-2.11053e-06
-6.97919e-08
-2.08463e-06
-7.42391e-08
-2.0573e-06
-7.86918e-08
-2.02854e-06
-8.31477e-08
-1.99836e-06
-8.76042e-08
-1.96675e-06
-9.20582e-08
-1.93372e-06
-9.65057e-08
-1.89927e-06
-1.00942e-07
-1.86342e-06
-1.05363e-07
-1.82618e-06
-1.09762e-07
-1.78755e-06
-1.14133e-07
-1.74755e-06
-1.18469e-07
-1.70621e-06
-1.22762e-07
-1.66353e-06
-1.27003e-07
-1.61954e-06
-1.31183e-07
-1.57426e-06
-1.35291e-07
-1.52774e-06
-1.39316e-07
-1.47999e-06
-1.43247e-07
-1.43105e-06
-1.4707e-07
-1.38097e-06
-1.50774e-07
-1.32979e-06
-1.54344e-07
-1.27756e-06
-1.57766e-07
-1.22433e-06
-1.61027e-07
-1.17015e-06
-1.64113e-07
-1.11509e-06
-1.6701e-07
-1.05922e-06
-1.69705e-07
-1.00259e-06
-1.7219e-07
-9.45281e-07
-1.74457e-07
-8.87355e-07
-1.76501e-07
-8.28887e-07
-1.78322e-07
-7.69946e-07
-1.79925e-07
-7.10601e-07
-1.81319e-07
-6.50922e-07
-1.82518e-07
-5.9098e-07
-1.83537e-07
-5.30854e-07
-1.84383e-07
-4.70639e-07
-1.85044e-07
-4.10467e-07
-1.85464e-07
-3.50529e-07
-1.8549e-07
-2.91113e-07
-1.84798e-07
-2.3259e-07
-1.82721e-07
-1.75103e-07
-1.7816e-07
-1.17814e-07
-1.70825e-07
-6.07645e-08
-1.64264e-07
-4.89022e-09
-1.61037e-07
4.98015e-08
-1.59465e-07
1.03779e-07
-1.5767e-07
1.5751e-07
-1.55261e-07
2.1155e-07
-1.53266e-07
2.65241e-07
-1.54683e-07
3.18249e-07
-1.58638e-07
3.71576e-07
-1.60476e-07
4.25095e-07
-1.60147e-07
4.78489e-07
-1.58681e-07
5.31548e-07
-1.56693e-07
5.84152e-07
-1.54484e-07
6.36238e-07
-1.52209e-07
6.87781e-07
-1.49947e-07
7.38771e-07
-1.47726e-07
7.89208e-07
-1.45552e-07
8.3909e-07
-1.43419e-07
8.88417e-07
-1.41323e-07
9.3719e-07
-1.39258e-07
9.85404e-07
-1.37214e-07
1.03305e-06
-1.35169e-07
1.08008e-06
-1.3307e-07
1.12645e-06
-1.30813e-07
1.17201e-06
-1.28221e-07
1.21652e-06
-1.24979e-07
1.25954e-06
-1.20474e-07
1.3003e-06
-1.13364e-07
1.33759e-06
-1.00524e-07
1.37119e-06
-7.35278e-08
-2.16452e-08
1.40518e-06
-1.5571e-08
5.02823e-08
-3.13277e-08
5.40008e-08
-4.74023e-08
5.73185e-08
-6.40551e-08
6.06105e-08
-8.13987e-08
6.38592e-08
-9.94764e-08
6.70626e-08
-1.18297e-07
7.02122e-08
-1.37843e-07
7.32994e-08
-1.58074e-07
7.63181e-08
-1.78936e-07
7.92593e-08
-2.00384e-07
8.21059e-08
-2.22404e-07
8.48355e-08
-2.45008e-07
8.74319e-08
-2.68213e-07
8.98945e-08
-2.92025e-07
9.22372e-08
-3.16439e-07
9.44828e-08
-3.41446e-07
9.66574e-08
-3.67033e-07
9.87868e-08
-3.93186e-07
1.00894e-07
-4.19895e-07
1.02997e-07
-4.4715e-07
1.05111e-07
-4.74944e-07
1.07244e-07
-5.03272e-07
1.09402e-07
-5.32129e-07
1.11587e-07
-5.61512e-07
1.13797e-07
-5.91419e-07
1.1603e-07
-6.21846e-07
1.1828e-07
-6.52788e-07
1.20541e-07
-6.84239e-07
1.22805e-07
-7.16192e-07
1.25064e-07
-7.48635e-07
1.27309e-07
-7.81557e-07
1.2953e-07
-8.14943e-07
1.31718e-07
-8.48774e-07
1.33861e-07
-8.83031e-07
1.35949e-07
-9.1769e-07
1.3797e-07
-9.52726e-07
1.39913e-07
-9.8811e-07
1.41766e-07
-1.02381e-06
1.43516e-07
-1.05979e-06
1.45152e-07
-1.09602e-06
1.4666e-07
-1.13245e-06
1.48028e-07
-1.16904e-06
1.49243e-07
-1.20575e-06
1.50295e-07
-1.24253e-06
1.5117e-07
-1.27933e-06
1.51857e-07
-1.31611e-06
1.52345e-07
-1.35279e-06
1.52624e-07
-1.38935e-06
1.52684e-07
-1.42571e-06
1.52516e-07
-1.46181e-06
1.52114e-07
-1.49762e-06
1.5147e-07
-1.53305e-06
1.5058e-07
-1.56807e-06
1.49439e-07
-1.6026e-06
1.48045e-07
-1.6366e-06
1.46399e-07
-1.67e-06
1.445e-07
-1.70276e-06
1.42353e-07
-1.73481e-06
1.39962e-07
-1.76612e-06
1.37334e-07
-1.79662e-06
1.34478e-07
-1.82628e-06
1.31405e-07
-1.85505e-06
1.28128e-07
-1.88289e-06
1.24659e-07
-1.90977e-06
1.21014e-07
-1.93566e-06
1.17209e-07
-1.96054e-06
1.1326e-07
-1.98437e-06
1.09183e-07
-2.00714e-06
1.04994e-07
-2.02884e-06
1.00708e-07
-2.04944e-06
9.63369e-08
-2.06895e-06
9.18934e-08
-2.08734e-06
8.73873e-08
-2.10462e-06
8.28268e-08
-2.12078e-06
7.82185e-08
-2.13581e-06
7.35678e-08
-2.1497e-06
6.88789e-08
-2.16246e-06
6.41549e-08
-2.17407e-06
5.93984e-08
-2.18454e-06
5.46114e-08
-2.19385e-06
4.97951e-08
-2.202e-06
4.49505e-08
-2.209e-06
4.00773e-08
-2.21483e-06
3.5175e-08
-2.2195e-06
3.02418e-08
-2.22299e-06
2.52756e-08
-2.22532e-06
2.02739e-08
-2.22646e-06
1.52343e-08
-2.22642e-06
1.01554e-08
-2.2252e-06
5.03726e-09
-2.2228e-06
-1.19116e-10
-2.21919e-06
-5.31005e-09
-2.21437e-06
-1.05363e-08
-2.20831e-06
-1.58042e-08
-2.201e-06
-2.11224e-08
-2.19243e-06
-2.64932e-08
-2.18257e-06
-3.19172e-08
-2.17143e-06
-3.73932e-08
-2.15898e-06
-4.29194e-08
-2.14522e-06
-4.84932e-08
-2.13014e-06
-5.41112e-08
-2.11374e-06
-5.97692e-08
-2.096e-06
-6.54622e-08
-2.07691e-06
-7.11845e-08
-2.05649e-06
-7.69302e-08
-2.03472e-06
-8.26933e-08
-2.0116e-06