/*--------------------------------*- C++ -*----------------------------------*\
| =========                 |                                                 |
| \\      /  F ield         | OpenFOAM: The Open Source CFD Toolbox           |
|  \\    /   O peration     | Version:  2112                                  |
|   \\  /    A nd           | Website:  www.openfoam.com                      |
|    \\/     M anipulation  |                                                 |
\*---------------------------------------------------------------------------*/
FoamFile
{
    version     2.0;
    format      ascii;
    arch        "LSB;label=32;scalar=64";
    class       volScalarField;
    location    "0.4";
    object      k;
}
// * * * * * * * * * * * * * * * * * * * * * * * * * * * * * * * * * * * * * //

dimensions      [0 2 -2 0 0 0 0];

internalField   nonuniform List<scalar> 
12225
(
1.24917
1.83434
2.19018
2.42741
2.56919
2.64386
2.67645
2.67552
2.64306
2.57833
2.4797
2.34599
2.17758
1.97738
1.7516
1.50958
1.25758
1.07827
0.408436
0.462314
0.517594
0.57332
0.628647
0.684906
0.745099
0.812147
0.888325
0.975161
1.07369
1.18433
1.30683
1.44024
1.58287
1.73197
1.88512
2.04003
0.375807
0.3824
0.391763
0.401586
0.40743
0.409996
0.411078
0.413014
0.418303
0.429428
0.448832
0.478911
0.522037
0.580582
0.65692
0.753355
0.872165
1.01631
0.373118
0.371569
0.371028
0.371852
0.373919
0.376478
0.379106
0.381313
0.382252
0.381857
0.380589
0.379481
0.380138
0.384647
0.395441
0.415154
0.446541
0.493003
0.373062
0.371139
0.369324
0.36768
0.366271
0.365126
0.364255
0.363642
0.363215
0.362872
0.362493
0.361972
0.361275
0.360511
0.360042
0.360548
0.363198
0.369514
0.373033
0.371087
0.3692
0.367403
0.36571
0.364129
0.36267
0.361342
0.360136
0.359021
0.357936
0.356802
0.355537
0.354103
0.352531
0.350942
0.34956
0.348729
0.373012
0.371063
0.369175
0.367373
0.365663
0.364047
0.362535
0.361141
0.359877
0.358756
0.357778
0.356927
0.356158
0.355393
0.354527
0.353447
0.352084
0.350398
0.372999
0.371052
0.36917
0.367373
0.365669
0.364058
0.362548
0.361152
0.359882
0.358754
0.357785
0.356989
0.356378
0.35595
0.35569
0.355544
0.35537
0.355082
0.372989
0.371045
0.369171
0.367383
0.365687
0.364086
0.362586
0.361197
0.359932
0.358806
0.357834
0.357034
0.356425
0.356027
0.35586
0.355905
0.356059
0.356294
0.372982
0.371041
0.369175
0.367396
0.365709
0.364118
0.362628
0.361249
0.359993
0.358873
0.357904
0.357103
0.356489
0.356084
0.355911
0.355971
0.356166
0.35649
0.372977
0.371037
0.369179
0.367407
0.36573
0.364148
0.362669
0.361299
0.360051
0.358937
0.357971
0.357169
0.356549
0.356132
0.355943
0.355994
0.35618
0.356496
0.372972
0.371033
0.36918
0.367416
0.365745
0.364172
0.362701
0.361339
0.360098
0.358987
0.358022
0.357217
0.35659
0.356159
0.355948
0.355981
0.356149
0.356443
0.372968
0.371029
0.369179
0.367421
0.365757
0.364191
0.362727
0.361373
0.360137
0.35903
0.358065
0.357256
0.356619
0.356171
0.355934
0.355929
0.356077
0.356343
0.372964
0.371024
0.369177
0.367423
0.365765
0.364206
0.36275
0.361403
0.360173
0.35907
0.358104
0.357289
0.356639
0.356169
0.355898
0.355843
0.355969
0.356205
0.37296
0.371017
0.369171
0.367422
0.36577
0.364218
0.36277
0.361431
0.360207
0.359107
0.358141
0.357319
0.356654
0.356157
0.355845
0.355731
0.355833
0.356047
0.372954
0.371008
0.369162
0.367415
0.365768
0.364224
0.362784
0.361454
0.360238
0.359143
0.358177
0.357348
0.356666
0.35614
0.355782
0.3556
0.355611
0.355806
0.372947
0.370995
0.369147
0.367401
0.365759
0.364222
0.362791
0.36147
0.360262
0.359173
0.358208
0.357372
0.356673
0.356115
0.355707
0.355453
0.355363
0.355431
0.372938
0.370979
0.369126
0.367382
0.365744
0.364214
0.362794
0.361483
0.360286
0.359205
0.358242
0.357401
0.356684
0.356095
0.355636
0.355308
0.355116
0.355051
0.372926
0.370958
0.369101
0.367357
0.365724
0.364204
0.362795
0.361498
0.360314
0.359242
0.358282
0.357436
0.356703
0.356081
0.355572
0.355172
0.354883
0.354694
0.372915
0.37094
0.369082
0.367341
0.365716
0.364206
0.36281
0.361527
0.360355
0.359292
0.358337
0.357488
0.356743
0.356099
0.355552
0.3551
0.354741
0.354465
0.372909
0.370932
0.369076
0.367342
0.365727
0.36423
0.362847
0.361578
0.360417
0.359364
0.358413
0.357563
0.356809
0.356148
0.355574
0.355085
0.354676
0.354339
0.372907
0.370931
0.369082
0.367358
0.365755
0.364272
0.362905
0.361652
0.360508
0.359469
0.358531
0.357689
0.356938
0.356273
0.35569
0.355182
0.354745
0.354372
0.372908
0.370939
0.369101
0.367391
0.365802
0.364332
0.362978
0.361734
0.360597
0.359562
0.358625
0.357779
0.357021
0.356344
0.355744
0.355214
0.354749
0.354343
0.372914
0.370955
0.369132
0.367437
0.365869
0.364424
0.363099
0.361885
0.360778
0.359771
0.358858
0.358033
0.357291
0.356624
0.356028
0.355496
0.355022
0.354601
0.372925
0.370983
0.36917
0.367476
0.365901
0.364447
0.36311
0.361885
0.360766
0.359749
0.358826
0.357993
0.35724
0.356564
0.355956
0.35541
0.354922
0.354484
0.372945
0.371041
0.369292
0.367678
0.366193
0.364835
0.363601
0.362485
0.361483
0.360589
0.359796
0.359093
0.358474
0.357929
0.357451
0.357032
0.356667
0.356346
0.372972
0.371074
0.3694
0.368015
0.366994
0.36639
0.366214
0.366423
0.366959
0.367611
0.368319
0.369043
0.369756
0.370434
0.371064
0.371635
0.372143
0.372588
0.37353
0.374897
0.37784
0.381787
0.386232
0.390642
0.394564
0.396728
0.397274
0.396454
0.394554
0.391853
0.388607
0.385035
0.381322
0.377625
0.37407
0.370803
0.387127
0.41127
0.438798
0.467435
0.495508
0.521519
0.545575
0.568313
0.590393
0.612366
0.634645
0.65752
0.681181
0.705751
0.731307
0.757911
0.785632
0.81456
0.989984
1.45578
1.77706
2.01445
2.19846
2.3212
2.4132
2.48975
2.55861
2.62383
2.68759
2.75111
2.8151
2.87995
2.94583
3.01279
3.08056
3.14935
2.29612
2.60722
3.27807
4.42215
5.47526
5.68707
5.73594
5.76528
5.8214
5.93633
6.13976
6.41135
6.64806
6.83508
6.9316
6.75983
6.04931
4.63904
2.76243
1.56071
1.58274
2.03864
2.45552
2.60586
2.59529
2.32991
1.94585
1.70703
1.85853
2.73963
4.71756
7.57881
9.80678
11.7523
13.4395
14.8381
15.9318
16.7211
17.2201
17.4516
17.4413
17.2122
16.8888
16.4938
16.0396
15.5369
14.9946
14.4198
13.8185
13.2414
12.6834
12.1392
11.6054
11.0796
10.5605
10.0473
9.54003
9.03928
8.54634
8.06304
7.59148
7.13391
6.69253
6.26938
5.86627
5.48475
5.12621
4.79206
4.48395
4.20403
3.95544
3.7429
3.57387
3.46038
3.4227
3.49819
3.77857
4.19288
4.71792
5.26549
5.83763
6.44477
7.08318
7.74479
8.41955
9.09679
9.76647
10.4195
11.045
11.6239
12.1125
12.3894
12.3679
12.0225
11.3692
10.402
9.11699
7.56575
5.91438
4.43191
3.35453
2.74201
2.49545
2.47162
2.54026
2.58719
2.59124
2.57068
2.54866
2.54297
2.56821
2.63046
2.72853
2.85214
3.00618
3.21703
3.52956
3.99296
4.61057
5.21929
5.51698
5.52496
5.32575
4.96991
4.52595
4.13765
4.07063
4.42693
5.08191
5.7826
6.36413
6.76618
6.9257
6.83416
6.61913
6.31046
5.93289
5.50907
5.0966
4.72249
4.40175
4.15268
4.0011
3.98568
4.24694
4.95875
6.03266
7.43745
9.11644
10.9655
12.8701
14.8755
17.0851
19.5939
22.541
26.1456
30.5949
35.2229
38.2569
39.1363
37.1715
32.2008
25.2954
18.5758
13.3022
9.66407
7.39792
6.0539
5.17263
4.45667
3.83032
3.35073
3.07436
3.03517
3.18595
3.30511
3.29421
3.17364
3.01005
2.94439
2.20107
2.69901
5.64226
6.01609
5.69195
5.23623
4.78639
4.37115
4.00287
3.69087
3.44057
3.28358
3.28217
3.41999
3.65507
3.90302
4.02716
3.88638
3.46937
2.97138
2.45828
2.35036
2.75836
2.82371
3.0649
4.46881
6.44227
7.57669
8.023
8.27209
8.50043
8.67141
8.63796
8.42413
8.04995
7.5412
6.92927
6.24897
5.53618
4.82591
4.15032
3.53666
3.00688
2.57226
2.23824
2.00422
1.86354
1.80579
1.8199
1.8384
1.86005
1.88403
1.90972
1.93665
1.96442
1.99263
2.02074
2.04802
2.0734
2.09876
2.1239
2.14856
2.17274
2.19613
2.2185
2.23968
2.2596
2.27848
2.29673
2.315
2.33403
2.35399
2.37464
2.39551
2.41577
2.43467
2.44913
2.46021
2.4678
2.47149
2.46993
2.4618
2.45334
2.44826
2.44957
2.45983
2.4813
2.51615
2.5669
2.63704
2.73607
2.92357
3.21572
3.56333
3.91654
4.22681
4.44424
4.53142
4.48702
4.359
4.22481
4.15112
4.16419
4.23265
4.27249
4.24079
4.12874
3.93598
3.6654
3.33476
2.97662
2.62457
2.30175
2.02264
1.80145
1.65335
1.58267
1.56521
1.56165
1.59325
1.76218
2.0103
2.39384
2.92133
3.43273
3.75243
3.85061
3.79538
3.65966
3.46198
3.22097
2.96131
2.71049
2.49686
2.3397
2.24809
2.22415
2.2659
2.32568
2.38317
2.43125
2.46316
2.47365
2.46023
2.42996
2.39639
2.36658
2.34108
2.32218
2.31307
2.32032
2.34751
2.39733
2.47443
2.59258
2.80224
3.27941
4.60735
7.60695
11.1512
14.2373
16.661
18.5314
19.6125
18.8521
15.5608
10.9845
7.18034
4.89248
3.74976
3.22841
2.9898
2.86896
2.79169
2.72461
2.68086
2.68395
2.73289
2.79625
2.86272
2.21362
7.81822
7.88524
6.62182
5.45734
4.59299
3.9529
3.46173
3.07927
2.78506
2.56668
2.41265
2.3414
2.36195
2.48027
2.67653
2.89315
3.05315
3.10742
3.05834
3.13446
3.77042
5.50097
7.61122
7.80743
7.6518
7.59016
7.34558
6.96913
6.55276
6.11752
5.64167
5.11051
4.54332
3.96433
3.40081
2.8794
2.42235
2.04434
1.75084
1.53845
1.39698
1.31237
1.26962
1.25519
1.25823
1.27097
1.29021
1.3118
1.3355
1.36122
1.38893
1.41864
1.45039
1.48421
1.52006
1.55777
1.59699
1.63706
1.67692
1.71502
1.74908
1.78147
1.81117
1.83718
1.85873
1.8755
1.88775
1.89638
1.9031
1.91121
1.92254
1.93727
1.95478
1.97392
1.99341
2.00972
2.0249
2.03811
2.048
2.05312
2.05039
2.03728
2.01865
1.99804
1.97838
1.96206
1.95089
1.94623
1.94899
1.96003
1.98037
2.01289
2.07454
2.17598
2.31158
2.46914
2.62571
2.75493
2.83951
2.87814
2.88079
2.85967
2.82622
2.79326
2.77531
2.7728
2.77744
2.78034
2.77018
2.73264
2.64518
2.49489
2.28537
2.0435
1.82163
1.67564
1.61496
1.59355
1.58567
1.69007
2.05946
2.67925
3.29738
3.60737
3.54102
3.26131
2.96948
2.70918
2.48759
2.31531
2.1974
2.13329
2.11699
2.13854
2.18679
2.25134
2.32345
2.39559
2.46107
2.5119
2.53923
2.53466
2.49268
2.42493
2.3443
2.26739
2.19354
2.12638
2.06758
2.023
1.9959
1.98625
1.99288
2.01483
2.05351
2.11702
2.22866
2.46812
3.13464
4.39195
5.95514
7.75979
9.95387
12.389
14.0768
13.6319
10.8482
7.46685
5.07972
3.8359
3.25991
2.96644
2.75078
2.54938
2.38558
2.3152
2.3202
2.3422
2.36022
9.19936
9.95211
7.52098
5.68805
4.54763
3.78542
3.21571
2.76979
2.42029
2.15068
1.95173
1.82179
1.7748
1.80557
1.91816
2.11632
2.3876
2.70484
3.12533
4.00464
5.97255
8.85708
8.94087
8.01165
7.19772
6.53687
5.95818
5.39202
4.8443
4.32015
3.81322
3.31872
2.84392
2.40582
2.02106
1.70164
1.45213
1.26936
1.14431
1.06487
1.01868
0.995015
0.985716
0.985287
0.990458
0.999574
1.0123
1.02716
1.04392
1.0628
1.08405
1.10799
1.13493
1.16519
1.19909
1.23687
1.27868
1.32453
1.37419
1.42713
1.48243
1.53868
1.59396
1.64582
1.69149
1.72825
1.75391
1.76731
1.7685
1.75814
1.74366
1.73239
1.72751
1.7294
1.73644
1.74538
1.75578
1.76751
1.7803
1.79361
1.80627
1.81414
1.81603
1.81173
1.80206
1.78875
1.77417
1.76085
1.75109
1.7467
1.74889
1.75837
1.77551
1.80055
1.83499
1.88411
1.94632
2.0172
2.0892
2.15182
2.19566
2.2163
2.2157
2.20079
2.17972
2.15811
2.13796
2.11783
2.09404
2.06232
2.01943
1.96815
1.90804
1.83757
1.75984
1.69324
1.66639
1.68801
1.73809
1.81793
2.03398
2.48137
3.0493
3.3999
3.34875
3.04037
2.71983
2.48218
2.30883
2.19406
2.12985
2.10662
2.11503
2.147
2.19625
2.25805
2.32849
2.40395
2.48284
2.55862
2.6224
2.6636
2.67116
2.63638
2.55615
2.44277
2.32967
2.21808
2.11715
2.03422
1.97305
1.93482
1.91884
1.92335
1.94642
1.98675
2.04353
2.11545
2.19917
2.29322
2.43674
2.81864
3.61896
4.96871
6.94148
9.33665
11.4199
11.8598
9.94565
7.09544
4.97221
3.79321
3.16286
2.77062
2.4791
2.27187
2.18395
2.18253
2.1714
2.09341
16.5807
9.81115
6.29821
4.75308
3.8844
3.24721
2.74565
2.35075
2.03459
1.77508
1.56809
1.45052
1.4523
1.54177
1.69988
1.93543
2.30585
3.00544
4.43951
6.69162
8.63231
8.68767
7.51018
6.38281
5.50462
4.80391
4.20955
3.679
3.19675
2.75446
2.34996
1.98785
1.67651
1.42254
1.22697
1.08522
0.988741
0.927272
0.890859
0.871138
0.861873
0.858903
0.859762
0.86319
0.868681
0.876151
0.885342
0.895086
0.905692
0.917508
0.930935
0.946442
0.96456
0.985884
1.01105
1.04071
1.07548
1.1159
1.16234
1.21487
1.27318
1.33632
1.40254
1.46906
1.53213
1.58741
1.63068
1.65871
1.66991
1.66436
1.64603
1.62108
1.59922
1.58654
1.58218
1.58436
1.59011
1.5968
1.60329
1.60997
1.61777
1.62692
1.63649
1.64475
1.64988
1.6507
1.64722
1.64068
1.63312
1.62691
1.62424
1.62692
1.63622
1.65286
1.67694
1.70813
1.74713
1.79284
1.84043
1.88596
1.92557
1.95657
1.9784
1.99256
2.00127
2.00611
2.00722
2.00321
1.99184
1.971
1.93944
1.89752
1.8476
1.79595
1.75558
1.74549
1.7782
1.85269
1.96758
2.13947
2.41395
2.79313
3.12961
3.17943
2.94121
2.62879
2.40435
2.25639
2.16176
2.10685
2.08152
2.07898
2.095
2.12701
2.17333
2.23241
2.30239
2.38094
2.46946
2.5616
2.64792
2.71592
2.7506
2.73654
2.66181
2.53317
2.39317
2.25241
2.12359
2.01659
1.93655
1.88491
1.86061
1.86118
1.88351
1.92446
1.98119
2.05054
2.1269
2.20086
2.26452
2.33731
2.54854
3.12053
4.25951
6.04655
8.34688
10.4383
10.8035
8.9169
6.42928
4.65816
3.60162
2.97159
2.59326
2.38372
2.33439
2.36506
2.35314
2.22456
20.3909
8.22452
5.23214
4.26163
3.59591
3.047
2.60963
2.25578
1.95864
1.69676
1.53523
1.50976
1.5747
1.718
1.96697
2.41073
3.20621
4.52304
6.27835
7.67224
7.73251
6.74715
5.59445
4.67498
3.96796
3.40117
2.92211
2.50294
2.13333
1.81116
1.53822
1.31667
1.14618
1.02277
0.939408
0.887574
0.858754
0.845499
0.841949
0.84393
0.848764
0.85495
0.86183
0.869317
0.8777
0.887467
0.896175
0.903474
0.909361
0.913896
0.917283
0.919933
0.922491
0.925853
0.931165
0.93979
0.953262
0.97318
1.00107
1.0382
1.08542
1.14291
1.20977
1.28358
1.36006
1.43344
1.49759
1.54761
1.58079
1.59456
1.58888
1.56345
1.52724
1.49319
1.46923
1.45798
1.45819
1.46548
1.47472
1.48239
1.48772
1.4922
1.49787
1.5058
1.51542
1.52501
1.53262
1.537
1.53808
1.53687
1.53512
1.53484
1.53794
1.54593
1.55976
1.57972
1.60533
1.63571
1.67057
1.707
1.74153
1.77236
1.79864
1.82056
1.83893
1.85457
1.86777
1.87799
1.88395
1.88407
1.87719
1.86307
1.84243
1.82189
1.81676
1.84602
1.91877
2.04097
2.2261
2.46274
2.68365
2.88808
2.98251
2.85831
2.60054
2.37299
2.23063
2.13468
2.06759
2.02099
1.99153
1.97824
1.98113
2.00053
2.03682
2.09
2.1594
2.24319
2.34369
2.45586
2.57118
2.67713
2.75651
2.78786
2.74827
2.62693
2.47057
2.30468
2.14749
2.0142
1.9129
1.84593
1.81187
1.80721
1.82735
1.86737
1.92237
1.98749
2.05726
2.12506
2.185
2.23793
2.31482
2.53691
3.10726
4.23946
6.05246
8.38686
10.1896
9.91165
7.87116
5.77127
4.32669
3.39994
2.84432
2.56995
2.53915
2.60473
2.62258
2.49848
20.6006
6.35145
4.76157
4.22263
3.63618
3.13122
2.7405
2.41117
2.14072
1.95984
1.92414
1.93733
2.05788
2.31235
2.76171
3.48712
4.52681
5.72659
6.59802
6.6212
5.88214
4.90133
4.04196
3.37841
2.85818
2.43192
2.07103
1.76383
1.5072
1.30016
1.14103
1.0262
0.950108
0.905795
0.885866
0.88333
0.89215
0.907502
0.925844
0.944867
0.963369
0.981034
0.998095
1.01496
1.03188
1.04884
1.06197
1.07086
1.07465
1.07263
1.06441
1.05005
1.03013
1.00586
0.979072
0.952338
0.928851
0.912204
0.90594
0.91303
0.935588
0.974853
1.03094
1.10218
1.18418
1.26937
1.34817
1.41223
1.45846
1.4873
1.50334
1.50167
1.48397
1.45484
1.42181
1.39445
1.37935
1.37775
1.38604
1.39823
1.40884
1.41521
1.41801
1.41989
1.42335
1.42939
1.43733
1.44558
1.45257
1.45739
1.46008
1.46152
1.46308
1.46631
1.47262
1.48302
1.49793
1.51707
1.53957
1.56439
1.5907
1.61669
1.64079
1.66266
1.68241
1.70045
1.71721
1.73286
1.74709
1.75922
1.76845
1.77457
1.77941
1.78829
1.81703
1.88622
2.00853
2.19792
2.45821
2.69452
2.79741
2.81947
2.75447
2.57647
2.36754
2.21141
2.10547
2.01879
1.94473
1.88326
1.8362
1.80535
1.79216
1.79788
1.82367
1.87042
1.93843
2.0261
2.13536
2.26344
2.40422
2.54729
2.67629
2.76724
2.78855
2.707
2.55288
2.3709
2.18778
2.02707
1.90218
1.81762
1.77199
1.76053
1.7768
1.81362
1.86396
1.9216
1.98144
2.03933
2.09271
2.1435
2.20336
2.32142
2.6197
3.30358
4.59588
6.60933
8.89148
9.97539
8.96616
6.96763
5.21521
3.96284
3.1523
2.77531
2.73135
2.82387
2.8801
2.77919
19.1236
5.03241
4.80836
4.40385
3.82875
3.37284
3.04531
2.79315
2.60552
2.52902
2.49616
2.57592
2.7976
3.18967
3.77144
4.5068
5.23839
5.68526
5.61686
5.06848
4.30139
3.56557
2.9656
2.49421
2.11427
1.80142
1.54429
1.33828
1.1803
1.06658
0.992313
0.951786
0.938744
0.946785
0.969741
1.00198
1.03869
1.07617
1.11212
1.14571
1.17729
1.20782
1.23822
1.26887
1.29931
1.32538
1.34647
1.36068
1.36606
1.36096
1.34414
1.31494
1.27336
1.22014
1.15698
1.08701
1.01519
0.948287
0.893873
0.858323
0.845422
0.85672
0.892455
0.951918
1.03225
1.1262
1.22095
1.30108
1.35467
1.38167
1.39702
1.40574
1.4102
1.40582
1.39053
1.36801
1.34631
1.33317
1.33193
1.34073
1.35432
1.36697
1.37497
1.3778
1.37747
1.37677
1.37766
1.38067
1.38515
1.38996
1.39412
1.39717
1.39928
1.40115
1.4038
1.40829
1.41551
1.42595
1.43957
1.45591
1.47413
1.49341
1.51323
1.53252
1.55062
1.56747
1.58328
1.5985
1.61362
1.62907
1.64534
1.66342
1.68643
1.72155
1.78335
1.89469
2.07413
2.3369
2.65048
2.83005
2.79772
2.68373
2.54245
2.37081
2.20997
2.08384
1.97812
1.87782
1.78581
1.7067
1.64392
1.59951
1.57472
1.57053
1.58801
1.6283
1.6924
1.77998
1.89129
2.02622
2.18164
2.35074
2.52076
2.66979
2.7633
2.75095
2.62601
2.44337
2.24095
2.05368
1.90352
1.79917
1.74004
1.72018
1.73093
1.76258
1.80575
1.85292
1.89939
1.9434
1.98573
2.03046
2.08696
2.17868
2.36957
2.80505
3.70648
5.29637
7.50634
9.37602
9.52881
8.0542
6.1798
4.60812
3.52445
3.00548
2.91691
3.02134
3.11961
3.05816
17.1
4.51406
5.01373
4.62696
4.11566
3.71946
3.4497
3.27089
3.16814
3.13225
3.16443
3.32101
3.60765
4.00562
4.45019
4.81994
4.9706
4.8156
4.38483
3.80065
3.2018
2.67778
2.25198
1.91033
1.63518
1.41657
1.24876
1.12708
1.04664
1.00215
0.988134
0.99886
1.02841
1.07074
1.11996
1.1709
1.21985
1.26512
1.30704
1.34721
1.38743
1.42884
1.47146
1.51409
1.55462
1.58887
1.61743
1.63766
1.64695
1.64308
1.62449
1.5904
1.54072
1.47559
1.39505
1.29942
1.1911
1.07704
0.969593
0.882673
0.825849
0.802
0.809451
0.846582
0.912622
1.00448
1.11122
1.21477
1.28911
1.32422
1.33254
1.33328
1.33636
1.34228
1.34591
1.34267
1.33267
1.32085
1.31357
1.31465
1.32363
1.33667
1.34896
1.35689
1.35932
1.35731
1.3531
1.34882
1.34577
1.34424
1.34387
1.34406
1.34432
1.34451
1.34487
1.34598
1.34857
1.35333
1.36071
1.37082
1.3834
1.39787
1.4135
1.42973
1.44558
1.4604
1.47401
1.48668
1.49922
1.51299
1.53002
1.55347
1.58857
1.64508
1.73942
1.89502
2.13422
2.46407
2.7953
2.89628
2.74812
2.55041
2.38216
2.22957
2.09062
1.96073
1.83774
1.71901
1.61173
1.52133
1.45051
1.40014
1.37031
1.36115
1.3732
1.40762
1.46587
1.54889
1.65574
1.78821
1.94588
2.12572
2.31995
2.51219
2.67138
2.74162
2.67438
2.51182
2.30174
2.09182
1.91602
1.79008
1.71559
1.68573
1.68941
1.71403
1.74784
1.78228
1.81339
1.84159
1.8703
1.90494
1.9546
2.0354
2.18458
2.4952
3.14549
4.37211
6.3002
8.45314
9.55561
8.86765
7.12197
5.3175
3.96913
3.27667
3.10704
3.19528
3.32609
3.31725
14.748
4.68302
5.22834
4.87293
4.41828
4.07505
3.85651
3.73776
3.71056
3.70433
3.7818
3.9391
4.1456
4.34317
4.45641
4.4204
4.21072
3.85183
3.40019
2.92209
2.47557
2.09396
1.78338
1.53677
1.34638
1.20605
1.11
1.05253
1.02808
1.03126
1.05661
1.09836
1.1504
1.20658
1.2616
1.31208
1.35722
1.39848
1.43849
1.47968
1.52341
1.56962
1.61691
1.66296
1.705
1.74396
1.77864
1.80556
1.82093
1.82129
1.80425
1.7692
1.7176
1.65219
1.57491
1.48454
1.37702
1.25016
1.1116
0.979759
0.876139
0.813175
0.788849
0.797892
0.839022
0.91398
1.01674
1.13385
1.23166
1.29015
1.31271
1.31339
1.30864
1.30842
1.31385
1.32066
1.32425
1.32323
1.31984
1.31808
1.32094
1.32865
1.33882
1.34798
1.35329
1.35346
1.34884
1.34092
1.33151
1.3222
1.31395
1.30711
1.30161
1.2972
1.29374
1.2913
1.2902
1.29095
1.29405
1.29988
1.30848
1.31961
1.33267
1.34688
1.36143
1.37522
1.38756
1.3983
1.40806
1.41859
1.43317
1.4572
1.49895
1.57085
1.69254
1.8908
2.18752
2.57301
2.90009
2.92927
2.69824
2.45279
2.27589
2.13171
1.98902
1.83797
1.69319
1.56031
1.44525
1.35191
1.28101
1.23156
1.20224
1.19216
1.20138
1.23091
1.28248
1.3583
1.45665
1.5804
1.73104
1.90857
2.10984
2.32509
2.53108
2.67694
2.68615
2.56549
2.36355
2.13824
1.93827
1.78971
1.69833
1.65706
1.65235
1.66851
1.69147
1.71208
1.72759
1.74055
1.75618
1.78034
1.82066
1.89063
2.0177
2.2608
2.75751
3.71478
5.33016
7.45563
9.1651
9.31452
7.93963
6.04813
4.48004
3.60239
3.32118
3.36134
3.5004
3.54043
12.5208
4.87938
5.43294
5.13191
4.73385
4.43597
4.25818
4.17655
4.12094
4.1129
4.1439
4.18608
4.2003
4.1475
4.00351
3.76732
3.45617
3.09462
2.71003
2.33355
1.99461
1.71057
1.48497
1.31411
1.19212
1.11264
1.06932
1.05626
1.068
1.09921
1.1443
1.19722
1.25185
1.30297
1.34745
1.38498
1.4176
1.44846
1.48042
1.51525
1.5534
1.59438
1.63713
1.68021
1.7227
1.76879
1.81533
1.85796
1.89127
1.90931
1.9065
1.87928
1.82803
1.75825
1.67873
1.59499
1.504
1.39504
1.26273
1.11489
0.976956
0.877191
0.821216
0.801912
0.815445
0.866491
0.952866
1.06367
1.17381
1.25798
1.30531
1.32176
1.32174
1.31853
1.31929
1.32485
1.33233
1.33841
1.34152
1.34231
1.34273
1.34461
1.34844
1.35306
1.35642
1.35653
1.35222
1.34338
1.33086
1.31609
1.30065
1.28585
1.27253
1.26104
1.25149
1.24386
1.23826
1.23496
1.23435
1.23678
1.24245
1.25127
1.26279
1.27624
1.2907
1.30487
1.31767
1.32837
1.33707
1.34535
1.35708
1.37935
1.4233
1.50473
1.64626
1.87848
2.22437
2.65196
2.97739
2.95894
2.6767
2.40173
2.2153
2.06272
1.8997
1.72435
1.55718
1.41654
1.30094
1.21129
1.14579
1.10153
1.07591
1.06734
1.07552
1.10137
1.14674
1.21458
1.3031
1.41552
1.55445
1.72189
1.91812
2.13897
2.36997
2.57136
2.65811
2.59647
2.4199
2.18935
1.96862
1.79737
1.68802
1.63427
1.62017
1.62686
1.63821
1.64499
1.64616
1.64627
1.65157
1.66743
1.69915
1.75717
1.86563
2.06424
2.45995
3.22598
4.56655
6.51699
8.51424
9.38304
8.54475
6.73974
5.03192
3.98421
3.57936
3.54649
3.6608
3.72877
10.4187
5.00923
5.62618
5.40098
5.05436
4.77861
4.59149
4.45593
4.34616
4.26112
4.17504
4.06331
3.9079
3.70323
3.45565
3.17627
2.87403
2.55668
2.23775
1.93807
1.67776
1.46783
1.30956
1.19863
1.12859
1.09264
1.08443
1.0983
1.12897
1.17113
1.21907
1.26692
1.30953
1.34364
1.36874
1.38678
1.40096
1.41447
1.42967
1.44799
1.47027
1.49701
1.52846
1.56461
1.60997
1.66429
1.72506
1.7885
1.84919
1.8998
1.93161
1.93577
1.90594
1.84302
1.7592
1.67038
1.58422
1.49099
1.37804
1.23796
1.08693
0.961363
0.879279
0.835764
0.82596
0.85151
0.91652
1.01534
1.12748
1.22678
1.29604
1.33375
1.34936
1.35443
1.35704
1.36092
1.36664
1.37293
1.37808
1.38089
1.3811
1.37935
1.37669
1.3738
1.37053
1.36596
1.35883
1.34818
1.33364
1.31566
1.29536
1.27421
1.25361
1.23464
1.21795
1.20389
1.19267
1.18453
1.17977
1.17871
1.18159
1.1884
1.1988
1.21207
1.22723
1.2429
1.25768
1.27036
1.28039
1.28873
1.29908
1.31933
1.36273
1.44818
1.60147
1.85642
2.23783
2.70118
3.03845
3.00395
2.69663
2.39847
2.19284
2.01704
1.82529
1.62583
1.4445
1.29543
1.18405
1.10174
1.04414
1.00672
0.986034
0.98012
0.988459
1.01187
1.05219
1.11248
1.19144
1.29228
1.41829
1.57276
1.75814
1.97403
2.21289
2.44723
2.59736
2.60218
2.46605
2.24185
2.00545
1.81243
1.68453
1.61753
1.59335
1.59002
1.58959
1.58337
1.57234
1.56283
1.56131
1.57188
1.59725
1.64427
1.73321
1.89745
2.21773
2.84272
3.95985
5.68776
7.74115
9.12595
8.8826
7.32781
5.58465
4.40741
3.88623
3.76816
3.82778
3.89435
8.45753
5.04124
5.77258
5.64286
5.33456
5.04452
4.80153
4.57601
4.37857
4.18652
3.98262
3.75801
3.51372
3.25719
2.99532
2.72949
2.45775
2.18275
1.91671
1.67741
1.47929
1.32831
1.22283
1.15714
1.12419
1.11711
1.1298
1.1569
1.1934
1.23414
1.27375
1.30722
1.33094
1.34374
1.34695
1.34358
1.33695
1.32986
1.32438
1.32217
1.32487
1.3344
1.35282
1.3816
1.42645
1.48329
1.55057
1.62633
1.70685
1.78554
1.85337
1.89918
1.91066
1.87804
1.80701
1.71677
1.62743
1.53898
1.44077
1.31686
1.17351
1.03801
0.93477
0.870935
0.843571
0.853302
0.904144
0.992089
1.09947
1.20262
1.28433
1.33983
1.37396
1.39454
1.40758
1.41623
1.42215
1.42636
1.42925
1.43043
1.42904
1.42443
1.41663
1.40641
1.39475
1.38221
1.3686
1.35321
1.33522
1.31424
1.29051
1.26497
1.23891
1.2137
1.19046
1.16999
1.15281
1.13933
1.12993
1.12497
1.12472
1.12928
1.13839
1.15142
1.16743
1.185
1.20257
1.2186
1.23196
1.24282
1.2541
1.27341
1.31504
1.40027
1.55775
1.82418
2.22791
2.7219
3.08792
3.07119
2.76171
2.44187
2.20571
1.99585
1.77149
1.54855
1.35506
1.20504
1.09481
1.01935
0.969986
0.93951
0.924047
0.921427
0.930898
0.953025
0.989335
1.04268
1.11261
1.2024
1.31601
1.45759
1.63098
1.838
2.0751
2.32453
2.51735
2.5859
2.50001
2.29336
2.04743
1.83433
1.68775
1.60704
1.57239
1.55878
1.5468
1.52882
1.508
1.49207
1.48699
1.49481
1.51567
1.55319
1.62332
1.7577
2.01698
2.53015
3.46695
4.97365
6.94302
8.62956
8.9406
7.75816
6.09308
4.84486
4.22711
4.025
4.01184
4.05003
6.64975
4.92653
5.82152
5.80752
5.53323
5.21032
4.88094
4.57489
4.28482
4.00012
3.71597
3.43472
3.16265
2.90389
2.65627
2.41291
2.16937
1.9301
1.70809
1.51803
1.36943
1.26425
1.19871
1.16614
1.15909
1.17058
1.19466
1.22631
1.26094
1.29392
1.32061
1.33713
1.34146
1.33399
1.31722
1.29456
1.26923
1.2437
1.21982
1.19926
1.18411
1.17729
1.18298
1.20744
1.24914
1.30358
1.36913
1.44594
1.5328
1.62458
1.71284
1.78679
1.83382
1.838
1.79527
1.71847
1.62923
1.54218
1.45307
1.34621
1.21672
1.08301
0.971742
0.896791
0.859451
0.861458
0.906627
0.990079
1.09355
1.19467
1.27903
1.3435
1.39159
1.42792
1.45517
1.47409
1.48508
1.48947
1.48935
1.48633
1.48076
1.47202
1.45943
1.443
1.42359
1.40247
1.38056
1.35805
1.33451
1.30932
1.28213
1.25317
1.22324
1.19351
1.16519
1.13935
1.11683
1.09828
1.08425
1.07522
1.07157
1.0735
1.08091
1.09329
1.10978
1.12905
1.14948
1.16937
1.1872
1.20242
1.21686
1.23706
1.27694
1.35911
1.51447
1.78205
2.19481
2.71309
3.1239
3.15826
2.86987
2.5312
2.25583
2.00424
1.74459
1.49722
1.29131
1.13841
1.03118
0.961532
0.917783
0.892548
0.882464
0.883742
0.895205
0.916726
0.949295
0.995506
1.05657
1.13583
1.23811
1.36827
1.53097
1.72963
1.962
2.21467
2.43273
2.55509
2.52267
2.34266
2.0936
1.8627
1.69764
1.60298
1.55764
1.53367
1.51057
1.48211
1.45375
1.43414
1.428
1.43467
1.45163
1.48018
1.53325
1.64048
1.84914
2.26941
3.05711
4.3622
6.17719
7.98557
8.74457
7.99744
6.51665
5.26507
4.5787
4.30174
4.21119
4.2034
5.00662
4.61916
5.72466
5.85296
5.62688
5.27104
4.88676
4.50835
4.14324
3.79499
3.46799
3.16771
2.89687
2.65181
2.42308
2.201
1.98267
1.77459
1.58899
1.43734
1.32568
1.25394
1.21757
1.20953
1.22182
1.2468
1.27818
1.31117
1.34175
1.36611
1.38048
1.38204
1.36994
1.34567
1.3125
1.27415
1.23364
1.19289
1.15289
1.11452
1.08002
1.05555
1.05346
1.08242
1.1222
1.17358
1.23384
1.3048
1.38814
1.4805
1.5741
1.6581
1.72062
1.74972
1.73655
1.68288
1.6038
1.51709
1.42857
1.33026
1.21532
1.09387
0.987809
0.912455
0.872864
0.873706
0.919527
1.00401
1.10692
1.20571
1.28835
1.35465
1.40936
1.45601
1.49502
1.52463
1.54313
1.55059
1.54913
1.54169
1.5304
1.51588
1.49772
1.47551
1.44955
1.42095
1.39106
1.36087
1.33066
1.30014
1.26885
1.23658
1.20362
1.17068
1.1388
1.10903
1.08237
1.05963
1.04155
1.02874
1.02175
1.0209
1.02627
1.03753
1.05393
1.07434
1.09716
1.12069
1.14324
1.16374
1.18303
1.20607
1.24529
1.32308
1.47172
1.73192
2.1412
2.67471
3.14031
3.25583
3.01478
2.66585
2.34804
2.04953
1.75113
1.47616
1.25434
1.09478
0.988022
0.921694
0.882383
0.862165
0.856279
0.861587
0.875637
0.896219
0.924235
0.962574
1.0142
1.08333
1.17555
1.29639
1.45073
1.64372
1.87257
2.12078
2.35473
2.51859
2.53722
2.38973
2.14343
1.89724
1.71415
1.60543
1.54928
1.51497
1.48115
1.44331
1.40923
1.38809
1.38269
1.38899
1.40163
1.42051
1.45696
1.53932
1.70588
2.04841
2.70991
3.83675
5.4714
7.27268
8.34585
8.03677
6.82479
5.63969
4.91806
4.57842
4.41594
4.35542
3.555
4.08988
5.44741
5.74345
5.60528
5.27472
4.85968
4.42458
4.00251
3.61209
3.2639
2.96206
2.70321
2.47684
2.2693
2.07043
1.87837
1.69952
1.544
1.42052
1.33354
1.2832
1.26624
1.2766
1.30602
1.34523
1.38605
1.42217
1.45079
1.46922
1.47467
1.46514
1.44055
1.40311
1.35665
1.30534
1.25248
1.20003
1.14901
1.10061
1.05731
1.02459
1.01772
1.0386
1.07194
1.11343
1.16368
1.22513
1.29931
1.38454
1.47445
1.55861
1.62509
1.66266
1.66296
1.62496
1.55809
1.4767
1.38922
1.29406
1.18845
1.08038
0.986316
0.918541
0.883509
0.888758
0.939478
1.02769
1.13165
1.22926
1.31041
1.37674
1.43385
1.48518
1.53042
1.56674
1.591
1.60177
1.6002
1.58928
1.57221
1.55104
1.52641
1.49818
1.46638
1.43166
1.39522
1.35832
1.32176
1.28577
1.25011
1.2145
1.17888
1.14358
1.1093
1.07694
1.04742
1.02165
1.00044
0.984535
0.974586
0.971094
0.974303
0.984088
0.999883
1.02074
1.04522
1.0717
1.09852
1.12437
1.1493
1.17676
1.2169
1.2903
1.42918
1.6753
2.07
2.60685
3.12917
3.35266
3.1922
2.85049
2.49299
2.1437
1.80072
1.49146
1.2465
1.07396
0.962836
0.896816
0.860567
0.844522
0.842478
0.850699
0.86567
0.884713
0.906996
0.936448
0.978345
1.03793
1.12149
1.23543
1.38433
1.5745
1.79954
2.04445
2.28976
2.48421
2.54805
2.43558
2.19679
1.93778
1.73719
1.61439
1.54734
1.50269
1.45844
1.41202
1.37354
1.35249
1.34918
1.35554
1.36309
1.37106
1.39049
1.44897
1.57955
1.857
2.40998
3.37947
4.83139
6.54508
7.8031
7.88796
6.99881
5.94607
5.22627
4.83827
4.61326
4.50249
2.27386
3.29647
4.97453
5.48246
5.4963
5.24799
4.84388
4.38159
3.92253
3.50287
3.14022
2.83821
2.58932
2.37889
2.19102
2.01462
1.8468
1.69141
1.55675
1.4534
1.38133
1.34106
1.33174
1.35002
1.38902
1.4388
1.48904
1.53223
1.56449
1.58341
1.58711
1.57434
1.54537
1.50246
1.44946
1.39078
1.33029
1.2708
1.21437
1.1632
1.1201
1.08918
1.07738
1.0808
1.09583
1.12164
1.15919
1.20988
1.27424
1.35004
1.43089
1.50659
1.56563
1.59802
1.59738
1.56334
1.50272
1.42576
1.33957
1.24589
1.14688
1.05159
0.972114
0.916369
0.891134
0.905754
0.964391
1.05664
1.16066
1.25698
1.33797
1.40581
1.46521
1.51879
1.56602
1.6042
1.63012
1.64174
1.63924
1.62501
1.60238
1.57435
1.54265
1.50794
1.47037
1.43031
1.3886
1.34635
1.30456
1.26377
1.22409
1.18535
1.1474
1.1103
1.07445
1.0405
1.00923
0.981482
0.958091
0.939849
0.927497
0.921664
0.922768
0.930902
0.945732
0.966624
0.99229
1.02123
1.05185
1.08279
1.11364
1.14664
1.18968
1.26053
1.38977
1.61924
1.99283
2.52014
3.086
3.42345
3.37129
3.0622
2.67866
2.28346
1.89473
1.54631
1.27122
1.0787
0.957195
0.887567
0.852037
0.838463
0.83897
0.848538
0.862295
0.876489
0.890843
0.911082
0.943737
0.994747
1.07108
1.18022
1.32742
1.5134
1.73628
1.98491
2.23939
2.45705
2.55979
2.48258
2.25467
1.9848
1.76701
1.62988
1.55169
1.49652
1.44184
1.38718
1.34512
1.32542
1.32546
1.33244
1.33442
1.3304
1.33238
1.36726
1.46811
1.69316
2.15549
2.98931
4.27097
5.85612
7.18882
7.58584
7.03078
6.16123
5.48128
5.0627
4.78932
4.63921
1.43475
2.41834
4.36739
5.13063