/*--------------------------------*- C++ -*----------------------------------*\
| =========                 |                                                 |
| \\      /  F ield         | OpenFOAM: The Open Source CFD Toolbox           |
|  \\    /   O peration     | Version:  2112                                  |
|   \\  /    A nd           | Website:  www.openfoam.com                      |
|    \\/     M anipulation  |                                                 |
\*---------------------------------------------------------------------------*/
FoamFile
{
    version     2.0;
    format      ascii;
    arch        "LSB;label=32;scalar=64";
    class       volScalarField;
    location    "0.26";
    object      nut;
}
// * * * * * * * * * * * * * * * * * * * * * * * * * * * * * * * * * * * * * //

dimensions      [0 2 -1 0 0 0 0];

internalField   nonuniform List<scalar> 
12225
(
1.39865e-06
2.33677e-06
3.22098e-06
4.16379e-06
5.24998e-06
6.54378e-06
8.09991e-06
9.96814e-06
1.22012e-05
1.48489e-05
1.79601e-05
2.15798e-05
2.57455e-05
3.04836e-05
3.58089e-05
4.17172e-05
4.82228e-05
5.52369e-05
1.17954e-05
6.50327e-06
5.26511e-06
4.96938e-06
5.07843e-06
5.43622e-06
5.98669e-06
6.71336e-06
7.62156e-06
8.71451e-06
9.98828e-06
1.14319e-05
1.3027e-05
1.47492e-05
1.65695e-05
1.84652e-05
2.04715e-05
2.25853e-05
7.39172e-05
2.92905e-05
2.1856e-05
2.01769e-05
1.71175e-05
1.41634e-05
1.23166e-05
1.11361e-05
1.03928e-05
9.96487e-06
9.77752e-06
9.77725e-06
9.92341e-06
1.01839e-05
1.05333e-05
1.09549e-05
1.14416e-05
1.19542e-05
9.36539e-05
8.97454e-05
8.29388e-05
7.41011e-05
6.47678e-05
5.09978e-05
4.26904e-05
3.76791e-05
3.44686e-05
3.23962e-05
3.07391e-05
2.82591e-05
2.62769e-05
2.46858e-05
2.34013e-05
2.23581e-05
2.15093e-05
2.08393e-05
9.44932e-05
9.41735e-05
9.35718e-05
9.25454e-05
9.09905e-05
8.88888e-05
8.62814e-05
8.32932e-05
8.00529e-05
7.66937e-05
7.33496e-05
7.01398e-05
6.71384e-05
6.43864e-05
6.18982e-05
5.96695e-05
5.76891e-05
5.59757e-05
9.4513e-05
9.43634e-05
9.42062e-05
9.4025e-05
9.38018e-05
9.35207e-05
9.31683e-05
9.27363e-05
9.22206e-05
9.16233e-05
9.09532e-05
9.0225e-05
8.94567e-05
8.86667e-05
8.7873e-05
8.70914e-05
8.63369e-05
8.5632e-05
9.45104e-05
9.43641e-05
9.42249e-05
9.40907e-05
9.39603e-05
9.38323e-05
9.37046e-05
9.35747e-05
9.34411e-05
9.33026e-05
9.31589e-05
9.30101e-05
9.28569e-05
9.27007e-05
9.25435e-05
9.23875e-05
9.22356e-05
9.20912e-05
9.45083e-05
9.43599e-05
9.42193e-05
9.40856e-05
9.39586e-05
9.38381e-05
9.37237e-05
9.36144e-05
9.351e-05
9.34101e-05
9.33146e-05
9.32232e-05
9.31355e-05
9.30515e-05
9.29712e-05
9.28947e-05
9.28222e-05
9.27538e-05
9.45068e-05
9.43568e-05
9.42148e-05
9.40798e-05
9.39516e-05
9.383e-05
9.37147e-05
9.36052e-05
9.35012e-05
9.34024e-05
9.33088e-05
9.322e-05
9.31359e-05
9.3056e-05
9.29804e-05
9.29088e-05
9.28411e-05
9.27771e-05
9.45057e-05
9.43546e-05
9.42113e-05
9.40753e-05
9.3946e-05
9.38232e-05
9.37067e-05
9.3596e-05
9.34909e-05
9.3391e-05
9.32962e-05
9.32062e-05
9.31208e-05
9.30398e-05
9.29628e-05
9.28898e-05
9.28206e-05
9.27549e-05
9.45045e-05
9.43522e-05
9.42077e-05
9.40704e-05
9.394e-05
9.38161e-05
9.36984e-05
9.35866e-05
9.34802e-05
9.33791e-05
9.32831e-05
9.31918e-05
9.3105e-05
9.30226e-05
9.29441e-05
9.28696e-05
9.27986e-05
9.27311e-05
9.45029e-05
9.43489e-05
9.42028e-05
9.40641e-05
9.39322e-05
9.38069e-05
9.36879e-05
9.35747e-05
9.34671e-05
9.33647e-05
9.32673e-05
9.31747e-05
9.30866e-05
9.30027e-05
9.29229e-05
9.28468e-05
9.27744e-05
9.27052e-05
9.45011e-05
9.43453e-05
9.41974e-05
9.40569e-05
9.39234e-05
9.37965e-05
9.36759e-05
9.35612e-05
9.34521e-05
9.33483e-05
9.32495e-05
9.31554e-05
9.30659e-05
9.29805e-05
9.28992e-05
9.28217e-05
9.27477e-05
9.26771e-05
9.44993e-05
9.43417e-05
9.41919e-05
9.40497e-05
9.39145e-05
9.37859e-05
9.36637e-05
9.35474e-05
9.34368e-05
9.33314e-05
9.32311e-05
9.31355e-05
9.30444e-05
9.29575e-05
9.28746e-05
9.27955e-05
9.27199e-05
9.26477e-05
9.44979e-05
9.43388e-05
9.41875e-05
9.40438e-05
9.39071e-05
9.37771e-05
9.36535e-05
9.35357e-05
9.34236e-05
9.33169e-05
9.32151e-05
9.31181e-05
9.30255e-05
9.29371e-05
9.28528e-05
9.27722e-05
9.26951e-05
9.26215e-05
9.44969e-05
9.43368e-05
9.41844e-05
9.40396e-05
9.39017e-05
9.37706e-05
9.36458e-05
9.35269e-05
9.34136e-05
9.33056e-05
9.32026e-05
9.31043e-05
9.30105e-05
9.29208e-05
9.28352e-05
9.27533e-05
9.26749e-05
9.26e-05
9.44963e-05
9.43355e-05
9.41824e-05
9.40368e-05
9.38981e-05
9.37661e-05
9.36404e-05
9.35205e-05
9.34063e-05
9.32973e-05
9.31933e-05
9.3094e-05
9.29991e-05
9.29084e-05
9.28217e-05
9.27387e-05
9.26593e-05
9.25834e-05
9.44959e-05
9.43348e-05
9.41813e-05
9.40351e-05
9.38959e-05
9.37633e-05
9.36369e-05
9.35163e-05
9.34013e-05
9.32916e-05
9.31868e-05
9.30866e-05
9.29909e-05
9.28994e-05
9.28118e-05
9.2728e-05
9.26478e-05
9.2571e-05
9.4496e-05
9.4335e-05
9.41815e-05
9.40353e-05
9.38959e-05
9.37631e-05
9.36364e-05
9.35156e-05
9.34003e-05
9.32901e-05
9.31849e-05
9.30843e-05
9.29881e-05
9.28961e-05
9.2808e-05
9.27237e-05
9.2643e-05
9.25657e-05
9.44966e-05
9.43361e-05
9.41832e-05
9.40374e-05
9.38985e-05
9.37659e-05
9.36395e-05
9.35188e-05
9.34036e-05
9.32936e-05
9.31884e-05
9.30879e-05
9.29917e-05
9.28997e-05
9.28116e-05
9.27273e-05
9.26466e-05
9.25693e-05
9.44978e-05
9.43383e-05
9.41864e-05
9.40416e-05
9.39035e-05
9.37718e-05
9.3646e-05
9.3526e-05
9.34114e-05
9.33019e-05
9.31973e-05
9.30973e-05
9.30016e-05
9.29101e-05
9.28225e-05
9.27387e-05
9.26584e-05
9.25815e-05
9.44999e-05
9.43425e-05
9.41925e-05
9.40495e-05
9.39131e-05
9.37829e-05
9.36587e-05
9.354e-05
9.34267e-05
9.33185e-05
9.32151e-05
9.31163e-05
9.30218e-05
9.29314e-05
9.28449e-05
9.27621e-05
9.26828e-05
9.2607e-05
9.45028e-05
9.43483e-05
9.4201e-05
9.40605e-05
9.39264e-05
9.37984e-05
9.36762e-05
9.35594e-05
9.34479e-05
9.33413e-05
9.32395e-05
9.31421e-05
9.30491e-05
9.29601e-05
9.28749e-05
9.27934e-05
9.27154e-05
9.26407e-05
9.45046e-05
9.43517e-05
9.42059e-05
9.40667e-05
9.39337e-05
9.38068e-05
9.36855e-05
9.35697e-05
9.3459e-05
9.3353e-05
9.32517e-05
9.31546e-05
9.30615e-05
9.29722e-05
9.28864e-05
9.28038e-05
9.27243e-05
9.26476e-05
9.45055e-05
9.43535e-05
9.42084e-05
9.40693e-05
9.39356e-05
9.38065e-05
9.36815e-05
9.35596e-05
9.34398e-05
9.33213e-05
9.3203e-05
9.3084e-05
9.29634e-05
9.28403e-05
9.27139e-05
9.25838e-05
9.24495e-05
9.23111e-05
9.45065e-05
9.43506e-05
9.41921e-05
9.40226e-05
9.38323e-05
9.3611e-05
9.33498e-05
9.30405e-05
9.26751e-05
9.22467e-05
9.17499e-05
9.11818e-05
9.05412e-05
8.98264e-05
8.90388e-05
8.8186e-05
8.72789e-05
8.633e-05
9.44484e-05
9.39872e-05
9.31599e-05
9.18338e-05
8.99515e-05
8.75348e-05
8.46623e-05
8.14483e-05
7.79906e-05
7.43824e-05
7.07193e-05
6.70906e-05
6.35661e-05
6.01837e-05
5.6978e-05
5.39881e-05
5.1239e-05
4.87417e-05
9.00779e-05
6.85307e-05
4.65273e-05
3.8352e-05
3.40364e-05
3.17406e-05
3.08543e-05
2.75613e-05
2.43525e-05
2.18265e-05
1.98235e-05
1.82326e-05
1.6973e-05
1.59843e-05
1.5219e-05
1.46387e-05
1.42124e-05
1.39147e-05
2.47388e-05
1.24961e-05
8.83083e-06
7.29148e-06
6.57035e-06
6.25615e-06
6.18161e-06
6.26919e-06
6.48275e-06
6.80445e-06
7.22365e-06
7.73317e-06
8.32769e-06
9.00277e-06
9.75427e-06
1.05778e-05
1.1469e-05
1.24248e-05
1.35535e-06
2.14607e-06
2.85543e-06
3.5463e-06
4.26254e-06
5.03569e-06
5.88795e-06
6.83477e-06
7.88854e-06
9.05967e-06
1.03573e-05
1.17898e-05
1.33653e-05
1.50909e-05
1.69728e-05
1.90026e-05
2.11904e-05
2.35463e-05
0.000300128
0.000301801
0.000305228
0.000310025
0.000315939
0.000322695
0.000329999
0.000337553
0.000345054
0.000352193
0.000358663
0.000364171
0.00036848
0.000371486
0.00037322
0.000373757
0.000373215
0.000371729
0.000369436
0.000366482
0.000363027
0.000359252
0.000355346
0.000351507
0.000348314
0.000346416
0.000346654
0.000350045
0.000357627
0.000351693
0.00034671
0.000361822
0.000396675
0.000446048
0.000504066
0.000565418
0.00062613
0.000683664
0.000736575
0.000784156
0.000826209
0.000862884
0.000894561
0.000921755
0.000945044
0.000965009
0.000982198
0.000997108
0.00101016
0.00102173
0.00103208
0.00104146
0.00105005
0.00105797
0.00106533
0.0010722
0.00107862
0.00108463
0.00109026
0.0010955
0.00110038
0.0011049
0.00110905
0.00111284
0.00111628
0.00111935
0.00112207
0.00112444
0.00112647
0.00112815
0.00112951
0.00113055
0.00113128
0.00113172
0.00113187
0.00113175
0.00113139
0.00113079
0.00112997
0.00112894
0.00112773
0.00112635
0.00112481
0.00112313
0.00112132
0.0011194
0.00111738
0.00111527
0.00111308
0.00111083
0.00110851
0.00110615
0.00110373
0.00110127
0.00109877
0.00109623
0.00109365
0.00109102
0.00108836
0.00108564
0.00108288
0.00108006
0.00107718
0.00107425
0.00107124
0.00106817
0.00106502
0.0010618
0.0010585
0.00105512
0.00105165
0.00104809
0.00104444
0.00104069
0.00103683
0.00103286
0.00102878
0.0010246
0.00102027
0.00101577
0.00101117
0.00100648
0.00100171
0.000996855
0.000991922
0.00098691
0.000981821
0.000976661
0.000971435
0.000966151
0.000960816
0.000955442
0.00095004
0.000944624
0.000939209
0.000933815
0.000928466
0.000923185
0.000918004
0.000912955
0.000908079
0.000903421
0.000899035
0.000894982
0.000891333
0.000888167
0.000885572
0.000883649
0.000882516
0.00088231
0.000883193
0.000885357
0.000889038
0.00089454
0.000902256
0.000912705
0.000926602
0.000944958
0.000969256
0.00100172
0.00104584
0.00110742
0.00119642
0.00133237
0.00156258
0.00196773
0.00203978
0.00199866
0.00198147
0.00198174
0.00197121
0.00167484
0.00140463
0.00123669
0.0011249
0.00104731
0.000992322
0.000955633
0.000930015
0.000939464
0.000300953
0.000302499
0.000306151
0.000311263
0.000317355
0.000324012
0.000330899
0.000337769
0.000344442
0.000350782
0.000356673
0.000362002
0.000366662
0.000370584
0.000373662
0.00037583
0.000377062
0.000377368
0.000376779
0.00037534
0.000373101
0.000370109
0.000366325
0.000361783
0.000356955
0.000352432
0.00034914
0.000348448
0.000352251
0.000362959
0.000383282
0.000415536
0.000460165
0.000515305
0.000577578
0.000643273
0.000709132
0.000772642
0.000832054
0.000886298
0.000934857
0.000977647
0.0010149
0.00104706
0.00107469
0.00109842
0.00111887
0.00113663
0.00115223
0.00116612
0.00117868
0.00119023
0.00120099
0.00121116
0.00122087
0.00123022
0.00123928
0.00124808
0.00125666
0.00126502
0.00127317
0.00128109
0.00128878
0.00129623
0.00130342
0.00131034
0.00131698
0.00132333
0.00132939
0.00133515
0.0013406
0.00134575
0.00135059
0.00135514
0.00135939
0.00136336
0.00136704
0.00137045
0.0013736
0.00137649
0.00137914
0.00138156
0.00138376
0.00138574
0.00138752
0.0013891
0.0013905
0.00139172
0.00139277
0.00139366
0.00139439
0.00139497
0.00139541
0.00139571
0.00139588
0.00139591
0.00139583
0.00139562
0.0013953
0.00139487
0.00139433
0.00139368
0.00139294
0.0013921
0.00139117
0.00139015
0.00138905
0.00138788
0.00138663
0.00138532
0.00138396
0.00138255
0.00138111
0.00137965
0.00137817
0.00137669
0.00137522
0.00137377
0.00137234
0.00137088
0.00136951
0.00136826
0.00136717
0.00136626
0.00136555
0.00136508
0.00136488
0.00136498
0.00136543
0.00136628
0.00136756
0.00136934
0.00137168
0.00137463
0.00137827
0.00138267
0.00138791
0.00139408
0.00140127
0.00140958
0.00141912
0.00143
0.00144234
0.00145628
0.00147196
0.00148952
0.00150912
0.00153092
0.00155508
0.00158176
0.00161112
0.00164331
0.00167841
0.00171647
0.00175745
0.00180116
0.00184721
0.00189489
0.00194313
0.00199032
0.00203423
0.0020719
0.00209982
0.00211403
0.00211071
0.00208873
0.00205229
0.00202649
0.00201657
0.00201592
0.00200829
0.00197718
0.00193065
0.00187636
0.00181891
0.0017614
0.00170587
0.00165387
0.00160515
0.00156245
0.000308668
0.000310089
0.000314554
0.000320893
0.000328168
0.000335648
0.000342825
0.000349399
0.000355246
0.000360367
0.000364829
0.000368756
0.000372289
0.000375578
0.000378564
0.000381178
0.000383316
0.000384852
0.000385655
0.000385598
0.000384562
0.00038238
0.00037876
0.000373846
0.000367988
0.000361839
0.00035648
0.000353563
0.000355481
0.000365332
0.000386344
0.000420576
0.000467614
0.000524567
0.000587366
0.000652144
0.000715892
0.00077653
0.000832737
0.000883778
0.000929357
0.000969508
0.00100451
0.0010348
0.00106092
0.00108345
0.00110298
0.00112007
0.0011352
0.00114882
0.00116128
0.00117289
0.00118388
0.00119443
0.00120466
0.00121469
0.00122457
0.00123433
0.00124401
0.00125362
0.00126314
0.00127258
0.00128192
0.00129116
0.00130026
0.00130923
0.00131804
0.00132669
0.00133516
0.00134345
0.00135155
0.00135945
0.00136716
0.00137467
0.00138198
0.00138909
0.001396
0.00140272
0.00140925
0.00141559
0.00142175
0.00142772
0.00143352
0.00143914
0.00144459
0.00144986
0.00145498
0.00145993
0.00146472
0.00146936
0.00147385
0.00147819
0.00148239
0.00148646
0.0014904
0.00149421
0.00149791
0.00150151
0.001505
0.00150841
0.00151173
0.00151498
0.00151817
0.00152131
0.0015244
0.00152745
0.00153049
0.00153351
0.00153653
0.00153956
0.00154262
0.0015457
0.00154884
0.00155204
0.00155531
0.00155866
0.00156212
0.00156559
0.00156907
0.00157274
0.00157666
0.00158086
0.00158535
0.00159016
0.00159532
0.00160087
0.00160682
0.00161321
0.00162007
0.00162744
0.00163534
0.00164382
0.0016529
0.00166263
0.00167303
0.00168415
0.001696
0.00170864
0.00172207
0.00173635
0.00175147
0.00176748
0.00178438
0.00180219
0.0018209
0.00184051
0.001861
0.00188234
0.00190448
0.00192737
0.00195091
0.00197496
0.00199937
0.00202388
0.00204821
0.00207196
0.00209464
0.00211562
0.0021341
0.00214922
0.00215998
0.00216529
0.00216418
0.0021561
0.00214057
0.00211906
0.002095
0.00207809
0.00206987
0.00206567
0.00205875
0.00204363
0.00202178
0.00199533
0.00196581
0.00193443
0.00190215
0.00187
0.00183825
0.00180893
0.000319466
0.000321568
0.000327911
0.000336525
0.000345871
0.000354843
0.000362758
0.000369298
0.000374433
0.000378316
0.00038118
0.000383322
0.000385071
0.000386695
0.000388312
0.000389994
0.00039172
0.000393357
0.000394672
0.000395357
0.000395023
0.000393147
0.000389511
0.00038413
0.000377381
0.000370069
0.000363519
0.000359719
0.000361446
0.000372126
0.000395
0.000431644
0.000480825
0.000538911
0.000601472
0.000664677
0.000725815
0.000783195
0.000835872
0.00088341
0.000925722
0.000962969
0.000995489
0.00102374
0.00104824
0.00106956
0.00108822
0.00110476
0.00111963
0.00113323
0.0011459
0.00115791
0.0011695
0.00118082
0.00119199
0.00120312
0.00121426
0.00122546
0.00123672
0.00124807
0.0012595
0.00127101
0.00128259
0.00129423
0.00130591
0.00131763
0.00132937
0.00134111
0.00135285
0.00136458
0.0013763
0.00138798
0.00139964
0.00141125
0.00142282
0.00143435
0.00144581
0.00145722
0.00146856
0.00147982
0.00149101
0.00150211
0.00151312
0.00152402
0.00153481
0.00154549
0.00155605
0.00156648
0.00157677
0.00158692
0.00159694
0.00160681
0.00161653
0.00162612
0.00163556
0.00164488
0.00165406
0.00166311
0.00167206
0.00168089
0.00168963
0.00169828
0.00170685
0.00171535
0.00172379
0.00173217
0.00174052
0.00174883
0.00175711
0.00176536
0.0017736
0.00178183
0.00179004
0.00179826
0.00180647
0.00181464
0.00182261
0.00183053
0.00183855
0.00184672
0.00185506
0.00186359
0.00187233
0.00188129
0.00189049
0.00189993
0.00190961
0.00191956
0.00192977
0.00194025
0.001951
0.00196202
0.00197331
0.00198486
0.00199667
0.00200873
0.00202102
0.00203353
0.00204622
0.00205908
0.00207208
0.00208516
0.00209831
0.00211145
0.00212454
0.00213751
0.00215028
0.00216278
0.00217491
0.00218658
0.00219767
0.00220806
0.0022176
0.00222612
0.00223341
0.00223928
0.00224351
0.00224581
0.00224581
0.00224326
0.00223806
0.00222986
0.00221846
0.00220453
0.00218763
0.00216883
0.00215044
0.00213537
0.0021241
0.00211457
0.00210418
0.00209123
0.00207591
0.00205866
0.00203988
0.00202001
0.00199956
0.00197936
0.00195994
0.00194284
0.00033038
0.000334602
0.00034407
0.000355724
0.000367383
0.000377652
0.000385828
0.000391804
0.000395799
0.000398188
0.000399402
0.000399858
0.000399975
0.000399973
0.000400102
0.000400541
0.000401362
0.000402497
0.000403701
0.000404471
0.000404165
0.000402203
0.000398208
0.000392188
0.000384622
0.000376522
0.000369502
0.000365879
0.000368715
0.000381492
0.000407101
0.000446373
0.000497296
0.000555785
0.00061737
0.000678461
0.000736699
0.000790756
0.000840001
0.000884233
0.000923524
0.000958137
0.00098846
0.00101496
0.00103816
0.00105858
0.00107673
0.00109308
0.00110808
0.00112208
0.00113538
0.00114825
0.00116088
0.00117343
0.00118601
0.00119873
0.00121163
0.00122476
0.00123814
0.00125179
0.00126573
0.00127993
0.00129442
0.00130917
0.00132418
0.00133944
0.00135494
0.00137067
0.00138661
0.00140276
0.00141909
0.00143561
0.0014523
0.00146913
0.00148611
0.0015032
0.0015204
0.00153768
0.00155502
0.00157239
0.00158977
0.00160714
0.00162447
0.00164173
0.0016589
0.00167595
0.00169286
0.00170962
0.00172618
0.00174255
0.00175871
0.00177464
0.00179033
0.00180578
0.00182099
0.00183594
0.00185064
0.0018651
0.00187932
0.0018933
0.00190705
0.00192058
0.00193389
0.00194701
0.00195992
0.00197264
0.00198517
0.00199751
0.00200967
0.00202165
0.00203344
0.00204503
0.00205643
0.00206761
0.00207837
0.00208863
0.00209862
0.00210847
0.0021182
0.00212783
0.00213737
0.00214685
0.00215631
0.00216576
0.00217519
0.0021846
0.00219398
0.00220334
0.00221265
0.0022219
0.00223109
0.0022402
0.0022492
0.00225808
0.00226681
0.00227537
0.00228373
0.00229186
0.00229972
0.00230729
0.00231451
0.00232135
0.00232776
0.00233369
0.00233909
0.00234391
0.00234809
0.00235157
0.00235426
0.00235611
0.00235705
0.00235704
0.00235601
0.00235386
0.00235044
0.00234569
0.00233964
0.00233219
0.0023231
0.00231215
0.00229994
0.0022862
0.00227042
0.00225412
0.00223695
0.002219
0.00220089
0.00218393
0.00216849
0.00215372
0.0021386
0.00212277
0.00210638
0.00208949
0.00207217
0.00205465
0.00203727
0.00202077
0.00200566
0.00199278
0.000308257
0.000349308
0.000362828
0.000377474
0.000390718
0.000401156
0.000408472
0.000412957
0.000415144
0.000415684
0.00041519
0.000414175
0.000413037
0.000411908
0.000411055
0.000410654
0.000410786
0.000411358
0.00041207
0.000412387
0.0004116
0.000409048
0.00040433
0.000397527
0.000389278
0.00038083
0.000374074
0.000371595
0.000376582
0.000392322
0.00042108
0.000462832
0.000514906
0.000573035
0.00063296
0.000691463
0.000746544
0.000797286
0.000843362
0.000884683
0.000921409
0.000953866
0.00098248
0.00100773
0.0010301
0.0010501
0.0010682
0.00108481
0.00110035
0.00111515
0.00112949
0.00114361
0.00115769
0.00117187
0.00118628
0.00120099
0.00121608
0.00123159
0.00124756
0.001264
0.00128093
0.00129836
0.0013163
0.00133474
0.00135367
0.0013731
0.001393
0.00141335
0.00143413
0.00145533
0.00147693
0.00149893
0.00152128
0.00154398
0.00156697
0.00159022
0.00161369
0.00163733
0.00166111
0.00168496
0.00170883
0.00173268
0.00175645
0.00178009
0.00180355
0.00182678
0.00184975
0.0018724
0.0018947
0.00191663
0.00193814
0.00195923
0.00197987
0.00200004
0.00201974
0.00203897
0.00205771
0.00207598
0.00209377
0.0021111
0.00212797
0.00214438
0.00216036
0.00217591
0.00219105
0.00220577
0.00222009
0.00223402
0.00224755
0.0022607
0.00227346
0.00228585
0.00229783
0.00230916
0.00231999
0.00233041
0.00234047
0.0023502
0.00235956
0.00236853
0.00237707
0.00238519
0.00239305
0.00240069
0.0024081
0.00241528
0.00242221
0.00242888
0.00243529
0.00244141
0.00244723
0.00245273
0.0024579
0.0024627
0.00246712
0.00247113
0.00247471
0.00247783
0.00248047
0.00248259
0.00248418
0.0024852
0.00248561
0.00248536
0.00248444
0.00248281
0.00248045
0.00247733
0.00247338
0.00246853
0.00246273
0.00245598
0.00244837
0.0024398
0.0024301
0.00241913
0.00240712
0.00239426
0.00238017
0.00236426
0.0023478
0.00233066
0.00231267
0.00229426
0.00227532
0.0022557
0.00223556
0.00221559
0.0021961
0.00217677
0.00215724
0.00213756
0.00211802
0.00209867
0.00207958
0.00206092
0.00204299
0.0020264
0.00201157
0.00199875
0.000295559
0.000367784
0.000384651
0.000401015
0.000414218
0.00042335
0.000428598
0.000430639
0.000430469
0.000429027
0.000427027
0.000424959
0.00042304
0.000421372
0.000420105
0.000419324
0.000419026
0.000419069
0.000419108
0.000418593
0.000416848
0.000413273
0.000407586
0.000400001
0.000391353
0.000383116
0.000377405
0.000376949
0.000384873
0.000404031
0.000435902
0.000479631
0.000532089
0.000589064
0.00064665
0.000702137
0.000754111
0.00080186
0.000845072
0.000883811
0.000918342
0.000949047
0.00097637
0.00100078
0.00102275
0.00104274
0.00106118
0.00107847
0.00109494
0.00111091
0.00112664
0.00114234
0.00115819
0.00117433
0.00119087
0.0012079
0.00122549
0.00124369
0.00126256
0.00128211
0.00130238
0.00132338
0.00134512
0.00136759
0.00139081
0.00141475
0.00143941
0.00146475
0.00149077
0.00151742
0.00154468
0.0015725
0.00160084
0.00162964
0.00165883
0.00168835
0.00171812
0.00174807
0.00177812
0.00180818
0.00183817
0.00186802
0.00189763
0.00192694
0.00195587
0.00198435
0.00201232
0.00203973
0.00206652
0.00209265
0.00211809
0.00214281
0.00216679
0.00219002
0.00221249
0.00223419
0.00225514
0.00227534
0.0022948
0.00231352
0.00233154
0.00234886
0.0023655
0.00238149
0.00239683
0.00241156
0.00242567
0.0024392
0.00245213
0.00246451
0.00247634
0.0024875
0.00249792
0.00250778
0.00251717
0.00252616
0.00253472
0.00254281
0.00255039
0.00255746
0.00256397
0.00256991
0.0025754
0.00258051
0.00258526
0.00258963
0.00259361
0.0025972
0.00260037
0.00260313
0.00260545
0.00260732
0.00260874
0.00260967
0.00261009
0.00260999
0.00260935
0.00260814
0.00260636
0.00260398
0.002601
0.00259742
0.00259318
0.00258825
0.0025826
0.00257619
0.00256904
0.00256121
0.00255262
0.00254317
0.00253276
0.00252132
0.00250917
0.00249631
0.00248245
0.00246731
0.00245089
0.00243421
0.0024166
0.00239793
0.00237853
0.00235846
0.00233779
0.00231667
0.00229506
0.00227279
0.0022499
0.00222677
0.00220365
0.00218045
0.00215709
0.00213378
0.00211083
0.00208844
0.0020667
0.00204582
0.00202608
0.00200802
0.00199194
0.0019778
0.000294121
0.000390605
0.00040904
0.000425019
0.000436381
0.000442816
0.00044497
0.000444152
0.000441704
0.000438649
0.000435628
0.000432969
0.000430671
0.000428803
0.000427371
0.000426343
0.000425623
0.000425002
0.000424113
0.000422439
0.000419409
0.000414594
0.000407908
0.000399758
0.000391176
0.000383819
0.000379929
0.00038223
0.000393577
0.000416211
0.000450779
0.000495735
0.00054773
0.000602787
0.000657574
0.000710055
0.000759055
0.000803921
0.000844516
0.000881005
0.000913717
0.00094306
0.000969479
0.000993424
0.00101534
0.00103564
0.00105473
0.00107295
0.00109063
0.00110803
0.0011254
0.00114294
0.00116081
0.00117915
0.00119808
0.00121768
0.00123805
0.00125923
0.00128129
0.00130425
0.00132816
0.00135302
0.00137885
0.00140565
0.00143341
0.00146211
0.00149173
0.00152223
0.00155356
0.00158566
0.00161848
0.00165195
0.00168597
0.00172047
0.00175534
0.0017905
0.00182582
0.00186121
0.00189656
0.00193175
0.00196668
0.00200125
0.00203536
0.00206891
0.00210182
0.002134
0.0021654
0.00219593
0.00222556
0.00225424
0.00228193
0.00230862
0.00233429
0.00235893
0.00238255
0.00240515
0.00242675
0.00244737
0.00246703
0.00248576
0.00250357
0.00252049
0.00253656
0.00255181
0.00256625
0.00257991
0.00259282
0.00260499
0.00261644
0.00262717
0.00263705
0.00264615
0.00265458
0.00266241
0.00266968
0.00267641
0.00268258
0.00268819
0.00269323
0.00269774
0.00270168
0.00270519
0.00270826
0.00271088
0.00271304
0.00271474
0.00271596
0.00271669
0.00271693
0.00271666
0.00271587
0.00271456
0.00271272
0.00271035
0.00270742
0.00270391
0.0026998
0.00269506
0.00268969
0.00268367
0.00267701
0.00266978
0.00266193
0.00265339
0.00264411
0.00263404
0.00262312
0.00261161
0.0025995
0.0025866
0.00257279
0.00255774
0.00254187
0.00252568
0.00250863
0.0024906
0.00247169
0.00245205
0.00243156
0.00241022
0.00238811
0.00236531
0.00234191
0.002318
0.00229356
0.00226851
0.00224285
0.0022168
0.00219055
0.00216411
0.00213751
0.00211101
0.00208494
0.00205956
0.00203506
0.00201167
0.00198969
0.0019696
0.00195163
0.00193564
0.000304571
0.000417562
0.000434771
0.000448061
0.000456014
0.000458797
0.000457697
0.000454366
0.000450177
0.000446014
0.000442331
0.000439215
0.000436637
0.000434539
0.000432827
0.000431374
0.000430006
0.000428466
0.000426392
0.00042335
0.000418934
0.000412939
0.000405496
0.000397221
0.000389319
0.000383554
0.000382177
0.000387741
0.000402658
0.00042846
0.000465027
0.000510336
0.000561043
0.000613609
0.000665457
0.000714943
0.00076098
0.00080312
0.000841351
0.000875906
0.000907144
0.000935478
0.000961335
0.00098514
0.0010073
0.00102819
0.00104818
0.00106758
0.00108668
0.00110573
0.00112494
0.00114452
0.00116461
0.00118537
0.00120689
0.00122928
0.00125263
0.00127698
0.0013024
0.00132893
0.00135659
0.00138539
0.00141535
0.00144643
0.00147864
0.00151191
0.00154622
0.00158148
0.00161764
0.0016546
0.00169228
0.00173056
0.00176934
0.00180851
0.00184794
0.0018875
0.00192707
0.00196653
0.00200575
0.00204459
0.00208295
0.0021207
0.00215774
0.00219396
0.00222928
0.00226361
0.00229688
0.00232902
0.00235999
0.00238974
0.00241826
0.00244551
0.00247149
0.00249622
0.00251969
0.00254195
0.00256301
0.00258292
0.0026017
0.0026194
0.00263605
0.0026517
0.00266637
0.0026801
0.00269293
0.00270489
0.00271601
0.00272631
0.00273575
0.0027443
0.00275204
0.00275905
0.00276538
0.00277108
0.00277615
0.00278062
0.0027845
0.00278777
0.00279039
0.00279248
0.00279411
0.00279538
0.00279625
0.00279663
0.00279651
0.00279587
0.0027947
0.00279299
0.00279072
0.00278789
0.00278448
0.00278048
0.00277588
0.00277074
0.00276504
0.00275873
0.00275179
0.0027442
0.00273593
0.00272694
0.00271718
0.00270695
0.00269617
0.00268474
0.00267259
0.00265967
0.00264566
0.002631
0.00261603
0.00260033
0.00258382
0.00256643
0.00254831
0.0025295
0.0025099
0.00248945
0.00246816
0.00244605
0.00242313
0.0023994
0.00237493
0.00234976
0.00232394
0.00229752
0.00227054
0.00224297
0.00221485
0.00218632
0.00215749
0.0021284
0.00209914
0.00206997
0.00204123
0.00201319
0.0019861
0.00196025
0.00193594
0.00191361
0.00189347
0.00187536
0.000333495
0.000447271
0.000460603
0.000469571
0.000473227
0.000472235
0.000468222
0.000462823
0.000457224
0.000452095
0.000447677
0.000443962
0.000440878
0.000438279
0.000435988
0.000433809
0.000431514
0.00042883
0.00042544
0.000421032
0.000415399
0.000408558
0.000400839
0.00039305
0.000386514
0.000383005
0.000384653
0.000393689
0.00041197
0.000440325
0.000478023
0.000522797
0.000571499
0.000621286
0.000670127
0.000716543
0.000759692
0.000799289
0.000835408
0.000868318
0.000898386
0.00092601
0.000951593
0.000975525
0.000998176
0.00101989
0.00104099
0.00106176
0.00108246
0.00110332
0.00112454
0.00114631
0.00116878
0.00119207
0.0012163
0.00124157
0.00126795
0.0012955
0.00132426
0.00135427
0.00138554
0.00141806
0.00145183
0.00148681
0.00152295
0.0015602
0.00159849
0.00163772
0.0016778
0.00171861
0.00176003
0.00180195
0.00184422
0.00188673
0.00192932
0.00197187
0.00201424
0.00205628
0.00209787
0.00213888
0.00217918
0.00221865
0.00225718
0.00229467
0.00233102
0.00236614
0.00239998
0.00243246
0.00246354
0.00249317
0.00252134
0.00254804
0.00257326
0.00259701
0.00261933
0.00264025
0.00265982
0.00267809
0.00269512
0.00271098
0.00272572
0.00273939
0.00275204
0.0027637
0.00277442
0.00278423
0.00279319
0.00280131
0.0028086
0.00281509
0.00282081
0.00282583
0.00283019
0.0028339
0.00283696
0.00283938
0.00284122
0.0028425
0.00284321
0.00284347
0.00284335
0.00284282
0.0028418
0.00284027
0.00283823
0.00283565
0.00283251
0.00282879
0.00282449
0.00281959
0.00281406
0.00280787
0.00280099
0.00279354
0.00278557
0.002777
0.00276778
0.00275791
0.00274734
0.00273603
0.00272368
0.00271089
0.00269772
0.00268393
0.00266947
0.00265431
0.00263838
0.00262183
0.00260467
0.00258679
0.00256816
0.00254875
0.00252859
0.00250769
0.00248602
0.00246355
0.00244028
0.00241616
0.00239123
0.00236553
0.00233911
0.00231201
0.00228423
0.00225575
0.00222665
0.00219698
0.00216682
0.00213628
0.00210542
0.00207428
0.00204291
0.0020116
0.00198066
0.00195039
0.00192108
0.001893
0.00186649
0.00184196
0.00181962
0.00179935
0.000398117
0.000477478
0.000485082
0.000488911
0.000488212
0.000483881
0.000477423
0.000470218
0.000463216
0.000456896
0.000451427
0.000446806
0.000442882
0.000439446
0.000436263
0.000433093
0.000429686
0.000425786
0.000421156
0.000415628
0.000409189
0.000402036
0.000394679
0.000388066
0.00038354
0.000382787
0.000387697
0.000400081
0.000421208
0.000451292
0.000489195
0.000532611
0.000578851
0.000625687
0.000671403
0.000714765
0.000755154
0.000792409
0.000826657
0.000858183
0.000887342
0.000914508
0.00094005
0.000964324
0.00098766
0.00101037
0.00103273
0.00105501
0.00107743
0.00110021
0.00112354
0.00114757
0.00117244
0.00119829
0.00122521
0.00125329
0.00128257
0.00131313
0.00134497
0.00137811
0.00141255
0.00144827
0.00148523
0.00152338
0.00156265
0.00160295
0.0016442
0.00168629
0.00172909
0.00177248
0.00181633
0.00186048
0.00190482
0.0019492
0.00199348
0.00203752
0.00208118
0.00212433
0.00216683
0.00220856
0.00224939
0.00228921
0.00232791
0.00236538
0.00240153
0.00243629
0.00246956
0.00250129
0.00253144
0.00255996
0.00258683
0.00261206
0.00263563
0.00265757
0.00267791
0.00269669
0.00271399
0.00272988
0.00274444
0.00275778
0.00276997
0.00278111
0.00279123
0.00280041
0.00280868
0.00281626
0.00282316
0.00282931
0.00283472
0.00283941
0.00284339
0.00284671
0.0028494
0.00285147
0.00285291
0.00285377
0.00285411
0.00285396
0.0028534
0.00285239
0.00285092
0.00284893
0.00284639
0.00284334
0.0028398
0.00283572
0.00283107
0.00282583
0.00281999
0.00281354
0.00280644
0.00279866
0.00279002
0.00278068
0.00277098
0.00276066
0.00274969
0.00273806
0.00272575
0.00271274
0.002699
0.00268467
0.00266976
0.00265423
0.00263807
0.00262125
0.00260375
0.0025856
0.00256678
0.00254725
0.00252699
0.00250597
0.00248418
0.00246163
0.00243833
0.00241428
0.00238945
0.00236377
0.00233724
0.00230995
0.00228198
0.00225337
0.00222408
0.00219398
0.00216319
0.00213183
0.00210001
0.00206784
0.00203539
0.00200262
0.00196409
0.00192173
0.00187979
0.00183872
0.00179916
0.00176147
0.0017263
0.00169272
0.00166517
0.0016418
0.000502724
0.00050443
0.000506363
0.000505527
0.000501271
0.000494269
0.000485696
0.000476663
0.000467958
0.000460085
0.00045323
0.000447344
0.000442242
0.000437676
0.000433375
0.000429077
0.000424537
0.000419548
0.000413967
0.000407761
0.000401064
0.000394225
0.000387918
0.000383105
0.000381055
0.000383289
0.000391385
0.000406688
0.000429918
0.00046082
0.000498045
0.000539461
0.00058294
0.0006267
0.000669254
0.000709655
0.000747459
0.000782592
0.00081521
0.000845594
0.000874074
0.000900993
0.000926686
0.000951469
0.000975636
0.000999459
0.00102319
0.00104705
0.00107124
0.00109596