/*--------------------------------*- C++ -*----------------------------------*\
| =========                 |                                                 |
| \\      /  F ield         | OpenFOAM: The Open Source CFD Toolbox           |
|  \\    /   O peration     | Version:  2112                                  |
|   \\  /    A nd           | Website:  www.openfoam.com                      |
|    \\/     M anipulation  |                                                 |
\*---------------------------------------------------------------------------*/
FoamFile
{
    version     2.0;
    format      ascii;
    arch        "LSB;label=32;scalar=64";
    class       surfaceScalarField;
    location    "0.09";
    object      phi;
}
// * * * * * * * * * * * * * * * * * * * * * * * * * * * * * * * * * * * * * //

dimensions      [0 3 -1 0 0 0 0];

oriented        oriented;

internalField   nonuniform List<scalar> 
24170
(
2.88616e-06
3.02244e-07
2.69554e-06
1.90626e-07
2.54595e-06
1.49582e-07
2.42708e-06
1.18872e-07
2.32337e-06
1.03715e-07
2.23112e-06
9.22484e-08
2.14863e-06
8.24897e-08
2.074e-06
7.46333e-08
2.00565e-06
6.83484e-08
1.94215e-06
6.34984e-08
1.88251e-06
5.96403e-08
1.82543e-06
5.70762e-08
1.77039e-06
5.50431e-08
1.7162e-06
5.41856e-08
1.66162e-06
5.45854e-08
1.60695e-06
5.46646e-08
1.52996e-06
7.69892e-08
9.98037e-08
1.43016e-06
3.44118e-06
2.78315e-07
3.3338e-06
2.98002e-07
3.22518e-06
2.58204e-07
3.1095e-06
2.34551e-07
2.99759e-06
2.15626e-07
2.89625e-06
1.93587e-07
2.80602e-06
1.72715e-07
2.72534e-06
1.55318e-07
2.65241e-06
1.41276e-07
2.58545e-06
1.30459e-07
2.523e-06
1.22092e-07
2.46366e-06
1.1642e-07
2.40637e-06
1.12332e-07
2.34973e-06
1.1082e-07
2.29269e-06
1.11631e-07
2.23173e-06
1.15623e-07
2.18004e-06
1.28674e-07
1.36809e-07
2.14304e-06
3.71951e-06
2.21323e-07
3.72621e-06
2.91304e-07
3.72446e-06
2.59956e-07
3.71092e-06
2.48082e-07
3.68452e-06
2.4203e-07
3.64731e-06
2.30796e-07
3.60484e-06
2.15192e-07
3.55956e-06
2.00592e-07
3.5127e-06
1.88141e-07
3.46494e-06
1.78212e-07
3.41622e-06
1.7082e-07
3.36683e-06
1.65807e-07
3.31583e-06
1.63334e-07
3.2639e-06
1.62751e-07
3.20917e-06
1.66358e-07
3.15335e-06
1.71446e-07
3.09666e-06
1.85365e-07
2.04311e-07
3.02915e-06
3.97454e-06
1.72169e-07
4.00145e-06
2.64399e-07
4.01313e-06
2.48278e-07
4.02633e-06
2.34874e-07
4.03559e-06
2.32772e-07
4.03821e-06
2.28177e-07
4.03492e-06
2.18486e-07
4.02777e-06
2.07743e-07
4.01733e-06
1.98572e-07
4.00396e-06
1.91588e-07
3.98742e-06
1.87356e-07
3.96791e-06
1.85321e-07
3.94501e-06
1.86234e-07
3.91891e-06
1.88845e-07
3.88943e-06
1.95842e-07
3.85642e-06
2.0446e-07
3.82103e-06
2.20751e-07
2.37532e-07
3.78781e-06
4.24786e-06
1.31434e-07
4.27465e-06
2.37611e-07
4.28633e-06
2.36597e-07
4.29844e-06
2.2276e-07
4.31026e-06
2.20953e-07
4.3185e-06
2.19937e-07
4.32314e-06
2.13848e-07
4.32569e-06
2.05195e-07
4.32676e-06
1.97499e-07
4.32636e-06
1.91994e-07
4.32432e-06
1.89392e-07
4.32046e-06
1.89187e-07
4.31469e-06
1.92005e-07
4.30654e-06
1.96994e-07
4.29672e-06
2.05659e-07
4.28435e-06
2.1683e-07
4.27308e-06
2.32019e-07
2.46921e-07
4.26369e-06
4.53806e-06
1.02465e-07
4.56576e-06
2.09908e-07
4.58048e-06
2.21877e-07
4.59127e-06
2.1197e-07
4.6019e-06
2.10319e-07
4.61048e-06
2.11355e-07
4.616e-06
2.08327e-07
4.61929e-06
2.01904e-07
4.62123e-06
1.95565e-07
4.62199e-06
1.9123e-07
4.62161e-06
1.89769e-07
4.61988e-06
1.90915e-07
4.61697e-06
1.9492e-07
4.61261e-06
2.01356e-07
4.60756e-06
2.107e-07
4.60193e-06
2.2246e-07
4.59787e-06
2.36085e-07
2.50473e-07
4.59432e-06
4.8542e-06
8.09803e-08
4.88219e-06
1.81922e-07
4.89883e-06
2.05239e-07
4.90891e-06
2.0189e-07
4.91836e-06
2.0087e-07
4.92677e-06
2.02942e-07
4.93271e-06
2.02391e-07
4.93629e-06
1.98324e-07
4.93831e-06
1.93544e-07
4.93909e-06
1.90453e-07
4.93873e-06
1.90129e-07
4.93709e-06
1.92551e-07
4.93437e-06
1.97638e-07
4.93059e-06
2.05145e-07
4.92633e-06
2.14956e-07
4.92205e-06
2.26745e-07
4.9183e-06
2.39826e-07
2.53505e-07
4.91527e-06
5.19562e-06
6.49383e-08
5.22142e-06
1.56126e-07
5.23853e-06
1.88129e-07
5.24902e-06
1.91393e-07
5.25796e-06
1.91932e-07
5.26608e-06
1.94824e-07
5.27238e-06
1.96095e-07
5.27653e-06
1.94173e-07
5.27902e-06
1.91051e-07
5.2802e-06
1.89272e-07
5.28022e-06
1.9011e-07
5.27905e-06
1.93725e-07
5.27685e-06
1.9984e-07
5.27377e-06
2.08216e-07
5.27027e-06
2.18464e-07
5.26668e-06
2.30327e-07
5.26341e-06
2.43096e-07
2.56556e-07
5.26036e-06
5.56329e-06
5.29828e-08
5.58579e-06
1.33628e-07
5.60328e-06
1.70639e-07
5.61453e-06
1.80142e-07
5.62338e-06
1.83089e-07
5.63134e-06
1.86859e-07
5.63794e-06
1.89499e-07
5.6427e-06
1.89411e-07
5.64577e-06
1.87982e-07
5.64743e-06
1.87612e-07
5.64789e-06
1.89645e-07
5.64726e-06
1.94357e-07
5.6457e-06
2.01403e-07
5.64342e-06
2.10491e-07
5.64075e-06
2.21139e-07
5.63797e-06
2.33104e-07
5.6353e-06
2.45764e-07
2.58654e-07
5.6332e-06
5.95878e-06
4.39823e-08
5.97789e-06
1.14516e-07
5.9952e-06
1.53324e-07
6.00728e-06
1.68062e-07
6.01629e-06
1.74082e-07
6.02417e-06
1.78984e-07
6.03096e-06
1.82702e-07
6.03625e-06
1.84127e-07
6.0399e-06
1.84324e-07
6.04214e-06
1.85377e-07
6.0432e-06
1.88581e-07
6.04327e-06
1.94287e-07
6.04253e-06
2.02142e-07
6.04119e-06
2.11834e-07
6.03951e-06
2.22824e-07
6.03772e-06
2.34895e-07
6.03609e-06
2.47391e-07
2.60063e-07
6.03468e-06
6.38374e-06
3.7055e-08
6.39981e-06
9.84414e-08
6.41635e-06
1.36791e-07
6.42899e-06
1.55419e-07
6.43837e-06
1.647e-07
6.44629e-06
1.7107e-07
6.45328e-06
1.75707e-07
6.45907e-06
1.78335e-07
6.46342e-06
1.79975e-07
6.46641e-06
1.82387e-07
6.46828e-06
1.86717e-07
6.46923e-06
1.93331e-07
6.46948e-06
2.01893e-07
6.46922e-06
2.1209e-07
6.46869e-06
2.23361e-07
6.46808e-06
2.35501e-07
6.4676e-06
2.47875e-07
2.60427e-07
6.46723e-06
5.74559e-06
3.23002e-08
5.75716e-06
8.68729e-08
5.77018e-06
1.2377e-07
5.78105e-06
1.44546e-07
5.78941e-06
1.56341e-07
5.79635e-06
1.64133e-07
5.80249e-06
1.6956e-07
5.80778e-06
1.73049e-07
5.81202e-06
1.75737e-07
5.81521e-06
1.79192e-07
5.81753e-06
1.84404e-07
5.81915e-06
1.9171e-07
5.82026e-06
2.00783e-07
5.82102e-06
2.1133e-07
5.8216e-06
2.22776e-07
5.82215e-06
2.34955e-07
5.82279e-06
2.4723e-07
2.59652e-07
5.82357e-06
7.00269e-06
2.77695e-08
7.01404e-06
7.55198e-08
7.02775e-06
1.10056e-07
7.04016e-06
1.32135e-07
7.05024e-06
1.46267e-07
7.05864e-06
1.55729e-07
7.0661e-06
1.62108e-07
7.07267e-06
1.66474e-07
7.07822e-06
1.70183e-07
7.08274e-06
1.74681e-07
7.08635e-06
1.80792e-07
7.08927e-06
1.88791e-07
7.09171e-06
1.98345e-07
7.09383e-06
2.09202e-07
7.09584e-06
2.20774e-07
7.09783e-06
2.32957e-07
7.09999e-06
2.45077e-07
2.57324e-07
7.10231e-06
8.53512e-06
2.34957e-08
8.54609e-06
6.45526e-08
8.56023e-06
9.59125e-08
8.57411e-06
1.18255e-07
8.58615e-06
1.34224e-07
8.59644e-06
1.45443e-07
8.60558e-06
1.52971e-07
8.61381e-06
1.58235e-07
8.62113e-06
1.62868e-07
8.6275e-06
1.68309e-07
8.63305e-06
1.75245e-07
8.63796e-06
1.83874e-07
8.64248e-06
1.93833e-07
8.64676e-06
2.04916e-07
8.65101e-06
2.1653e-07
8.65533e-06
2.28639e-07
8.65989e-06
2.40512e-07
2.52485e-07
8.66473e-06
1.04033e-05
1.94585e-08
1.04138e-05
5.39847e-08
1.04283e-05
8.14748e-08
1.04436e-05
1.0291e-07
1.0458e-05
1.19863e-07
1.04707e-05
1.32663e-07
1.04822e-05
1.41542e-07
1.04926e-05
1.47802e-07
1.05022e-05
1.5324e-07
1.05112e-05
1.59391e-07
1.05195e-05
1.66916e-07
1.05274e-05
1.7598e-07
1.0535e-05
1.86178e-07
1.05426e-05
1.97342e-07
1.05503e-05
2.08867e-07
1.05581e-05
2.20781e-07
1.05664e-05
2.32283e-07
2.43815e-07
1.0575e-05
1.26807e-05
1.555e-08
1.26911e-05
4.3581e-08
1.2706e-05
6.65768e-08
1.27231e-05
8.58531e-08
1.27402e-05
1.02674e-07
1.27563e-05
1.16573e-07
1.2771e-05
1.26859e-07
1.27846e-05
1.34239e-07
1.27974e-05
1.40383e-07
1.28099e-05
1.46936e-07
1.28221e-05
1.54674e-07
1.28343e-05
1.63825e-07
1.28465e-05
1.73978e-07
1.28589e-05
1.84981e-07
1.28715e-05
1.96204e-07
1.28846e-05
2.07736e-07
1.28981e-05
2.18713e-07
2.29656e-07
1.29123e-05
1.54572e-05
1.15104e-08
1.5468e-05
3.27767e-08
1.5484e-05
5.06076e-08
1.55035e-05
6.6393e-08
1.55245e-05
8.16204e-08
1.55454e-05
9.57233e-08
1.55649e-05
1.07284e-07
1.55831e-05
1.16021e-07
1.56006e-05
1.22969e-07
1.56178e-05
1.29689e-07
1.56353e-05
1.37161e-07
1.56533e-05
1.45859e-07
1.56718e-05
1.55489e-07
1.56908e-05
1.65929e-07
1.57105e-05
1.76526e-07
1.57309e-05
1.87356e-07
1.5752e-05
1.97562e-07
2.07966e-07
1.57737e-05
1.88423e-05
6.85482e-09
1.88548e-05
2.0227e-08
1.88734e-05
3.20403e-08
1.88967e-05
4.3104e-08
1.89234e-05
5.49472e-08
1.89514e-05
6.77363e-08
1.89787e-05
7.99765e-08
1.90043e-05
9.0356e-08
1.90287e-05
9.86218e-08
1.90527e-05
1.0569e-07
1.90772e-05
1.12625e-07
1.91028e-05
1.20296e-07
1.91295e-05
1.28779e-07
1.91573e-05
1.3811e-07
1.91862e-05
1.47674e-07
1.92161e-05
1.57465e-07
1.92471e-05
1.66537e-07
1.75057e-07
1.928e-05
2.29696e-05
5.69284e-10
2.29869e-05
2.92565e-09
2.3012e-05
6.91782e-09
2.30426e-05
1.25136e-08
2.30774e-05
2.01925e-08
2.31152e-05
2.99187e-08
2.31541e-05
4.10476e-08
2.31921e-05
5.23798e-08
2.32281e-05
6.25965e-08
2.32625e-05
7.12893e-08
2.32964e-05
7.87573e-08
2.33309e-05
8.5771e-08
2.33669e-05
9.27991e-08
2.34047e-05
1.00315e-07
2.34443e-05
1.08094e-07
2.34854e-05
1.16305e-07
2.35278e-05
1.24196e-07
1.3252e-07
2.35703e-05
1.68162e-05
-4.9666e-09
1.68318e-05
-1.26407e-08
1.68546e-05
-1.58579e-08
1.6882e-05
-1.4926e-08
1.69117e-05
-9.49593e-09
1.69421e-05
-4.23755e-10
1.69745e-05
8.57979e-09
1.70079e-05
1.89608e-08
1.7041e-05
2.95014e-08
1.70728e-05
3.94994e-08
1.71031e-05
4.85313e-08
1.71321e-05
5.67425e-08
1.71606e-05
6.42579e-08
1.71895e-05
7.14784e-08
1.72192e-05
7.83875e-08
1.72502e-05
8.53172e-08
1.72826e-05
9.17e-08
9.77031e-08
1.73175e-05
1.46412e-05
-1.1568e-08
1.46592e-05
-3.06845e-08
1.46835e-05
-4.01486e-08
1.47095e-05
-4.09427e-08
1.47363e-05
-3.62498e-08
1.47646e-05
-2.87336e-08
1.47932e-05
-2.00679e-08
1.48233e-05
-1.10932e-08
1.48552e-05
-2.39334e-09
1.48866e-05
8.03777e-09
1.49173e-05
1.78659e-08
1.49472e-05
2.68899e-08
1.49762e-05
3.51847e-08
1.50047e-05
4.30068e-08
1.50329e-05
5.02105e-08
1.50611e-05
5.70651e-08
1.50896e-05
6.32036e-08
6.92908e-08
1.5118e-05
1.27478e-05
-1.9256e-08
1.27686e-05
-5.15091e-08
1.27972e-05
-6.87191e-08
1.28274e-05
-7.11622e-08
1.28568e-05
-6.56358e-08
1.28854e-05
-5.72799e-08
1.29137e-05
-4.8398e-08
1.29419e-05
-3.9264e-08
1.29692e-05
-2.96921e-08
1.29969e-05
-1.97235e-08
1.30244e-05
-9.57931e-09
1.30505e-05
8.07077e-10
1.30774e-05
8.23005e-09
1.31043e-05
1.60864e-08
1.3131e-05
2.3546e-08
1.31575e-05
3.0578e-08
1.31839e-05
3.68034e-08
4.24602e-08
1.32107e-05
1.11019e-05
-3.02072e-08
1.11257e-05
-7.52895e-08
1.11529e-05
-9.59617e-08
1.11795e-05
-9.77446e-08
1.12049e-05
-9.10503e-08
1.12302e-05
-8.26188e-08
1.1256e-05
-7.41818e-08
1.1282e-05
-6.52275e-08
1.13078e-05
-5.55166e-08
1.13334e-05
-4.53159e-08
1.13591e-05
-3.52388e-08
1.13856e-05
-2.57031e-08
1.14108e-05
-1.69787e-08
1.14358e-05
-8.98043e-09
1.14613e-05
-1.90639e-09
1.14861e-05
5.76656e-09
1.15105e-05
1.24363e-08
1.83982e-08
1.15345e-05
9.67205e-06
-4.70401e-08
9.70556e-06
-1.08802e-07
9.73785e-06
-1.28254e-07
9.76424e-06
-1.24132e-07
9.78784e-06
-1.14651e-07
9.81152e-06
-1.06294e-07
9.83555e-06
-9.82156e-08
9.85927e-06
-8.89512e-08
9.88235e-06
-7.85911e-08
9.90494e-06
-6.79041e-08
9.92731e-06
-5.76137e-08
9.94948e-06
-4.7871e-08
9.97134e-06
-3.88354e-08
9.99276e-06
-3.04074e-08
1.00134e-05
-2.25812e-08
1.00343e-05
-1.51171e-08
1.0055e-05
-8.26e-09
-1.68856e-09
1.00751e-05
8.42328e-06
-6.49688e-08
8.45837e-06
-1.43892e-07
8.4894e-06
-1.59279e-07
8.51395e-06
-1.48685e-07
8.53687e-06
-1.37572e-07
8.56031e-06
-1.29731e-07
8.58354e-06
-1.21449e-07
8.60583e-06
-1.11242e-07
8.62718e-06
-9.99422e-08
8.64794e-06
-8.86618e-08
8.66837e-06
-7.80401e-08
8.68853e-06
-6.80375e-08
8.70849e-06
-5.87907e-08
8.72816e-06
-5.00792e-08
8.74761e-06
-4.20263e-08
8.76678e-06
-3.42875e-08
8.78563e-06
-2.71095e-08
-2.06883e-08
8.80462e-06
7.35533e-06
-1.03018e-07
7.39378e-06
-1.82343e-07
7.41822e-06
-1.8371e-07
7.43825e-06
-1.68723e-07
7.45932e-06
-1.58641e-07
7.48057e-06
-1.5098e-07
7.50073e-06
-1.41612e-07
7.51976e-06
-1.30267e-07
7.53811e-06
-1.18292e-07
7.55627e-06
-1.06819e-07
7.5744e-06
-9.61717e-08
7.59212e-06
-8.57626e-08
7.60951e-06
-7.61794e-08
7.6267e-06
-6.72665e-08
7.64379e-06
-5.91161e-08
7.66076e-06
-5.12588e-08
7.67765e-06
-4.40015e-08
-3.68465e-08
7.69381e-06
6.41607e-06
-1.49019e-07
6.46282e-06
-2.29095e-07
6.4874e-06
-2.08291e-07
6.50891e-06
-1.90229e-07
6.53194e-06
-1.81677e-07
6.55294e-06
-1.71977e-07
6.57096e-06
-1.59634e-07
6.58772e-06
-1.4702e-07
6.60318e-06
-1.33753e-07
6.6179e-06
-1.21541e-07
6.63209e-06
-1.10368e-07
6.64579e-06
-9.94604e-08
6.65935e-06
-8.9737e-08
6.67214e-06
-8.00589e-08
6.68511e-06
-7.20843e-08
6.6974e-06
-6.35507e-08
6.71057e-06
-5.71673e-08
-4.95151e-08
6.72324e-06
5.60264e-06
-2.06191e-07
5.62511e-06
-2.51565e-07
5.64132e-06
-2.24506e-07
5.65563e-06
-2.04544e-07
5.66315e-06
-1.89197e-07
5.66591e-06
-1.74729e-07
5.66425e-06
-1.57982e-07
5.65921e-06
-1.41976e-07
5.65296e-06
-1.27506e-07
5.64587e-06
-1.14447e-07
5.63823e-06
-1.0273e-07
5.63066e-06
-9.18842e-08
5.62326e-06
-8.23378e-08
5.61652e-06
-7.33269e-08
5.6105e-06
-6.60613e-08
5.60514e-06
-5.81869e-08
5.60062e-06
-5.26472e-08
-4.42773e-08
5.59538e-06
4.91221e-06
-2.90796e-07
4.85613e-06
-1.95485e-07
4.79281e-06
-1.61183e-07
4.71423e-06
-1.25967e-07
4.6284e-06
-1.03363e-07
4.54302e-06
-8.93445e-08
4.46325e-06
-7.82132e-08
4.39036e-06
-6.90941e-08
4.32439e-06
-6.15347e-08
4.26505e-06
-5.51054e-08
4.21187e-06
-4.95534e-08
4.16444e-06
-4.44453e-08
4.12244e-06
-4.03464e-08
4.08458e-06
-3.54671e-08
4.05258e-06
-3.40561e-08
4.02192e-06
-2.75268e-08
4.00763e-06
-3.8362e-08
-2.73803e-08
3.99074e-06
3.91188e-06
3.71639e-06
3.55521e-06
3.42924e-06
3.32588e-06
3.23654e-06
3.15832e-06
3.08923e-06
3.02769e-06
2.97259e-06
2.92304e-06
2.87859e-06
2.83824e-06
2.80278e-06
2.76872e-06
2.74119e-06
2.70283e-06
2.67545e-06
-2.02324e-07
2.02324e-07
-2.09319e-07
6.99435e-09
6.21843e-08
-2.71503e-07
5.4183e-07
-4.79646e-07
1.13882e-06
-5.96986e-07
1.77404e-06
-6.35225e-07
2.38893e-06
-6.14889e-07
2.94857e-06
-5.59643e-07
3.43625e-06
-4.87675e-07
3.84737e-06
-4.11125e-07
4.18383e-06
-3.36452e-07
4.44887e-06
-2.65043e-07
4.64503e-06
-1.96159e-07
4.7731e-06
-1.28069e-07
4.83087e-06
-5.77702e-08
4.81176e-06
1.91028e-08
4.70231e-06
1.09449e-07
4.49383e-06
2.08481e-07
4.18113e-06
3.12701e-07
3.76202e-06
4.19111e-07
3.23726e-06
5.24765e-07
2.6399e-06
5.97354e-07
1.99128e-06
6.48625e-07
1.36731e-06
6.23969e-07
9.26093e-07
4.41214e-07
6.56785e-07
2.69308e-07
5.40445e-07
1.1634e-07
5.88762e-07
-4.83168e-08
7.21138e-07
-1.32376e-07
9.02755e-07
-1.81617e-07
1.16369e-06
-2.60935e-07
1.49384e-06
-3.30146e-07
1.6958e-06
-2.01964e-07
1.69193e-06
3.86659e-09
1.53721e-06
1.54727e-07
1.04581e-06
4.91397e-07
1.02765e-07
9.43044e-07
-1.08657e-06
1.18934e-06
-2.31739e-06
1.23081e-06
-3.52396e-06
1.20657e-06
-4.66978e-06
1.14582e-06
-5.73298e-06
1.06319e-06
-6.70145e-06
9.68476e-07
-7.56982e-06
8.68364e-07
-8.33717e-06
7.67353e-07
-9.00532e-06
6.68154e-07
-9.57762e-06
5.72294e-07
-1.00581e-05
4.80502e-07
-1.04512e-05
3.93086e-07
-1.07613e-05
3.10095e-07
-1.09928e-05
2.3148e-07
-1.11501e-05
1.57341e-07
-1.12381e-05
8.80028e-08
-1.1262e-05
2.38447e-08
-1.12286e-05
-3.33982e-08
-1.11442e-05
-8.43284e-08
-1.10151e-05
-1.29159e-07
-1.08467e-05
-1.68363e-07
-1.06446e-05
-2.02135e-07
-1.0414e-05
-2.30544e-07
-1.01602e-05
-2.53794e-07
-9.88814e-06
-2.72109e-07
-9.60222e-06
-2.85917e-07
-9.30646e-06
-2.95757e-07
-9.00408e-06
-3.02388e-07
-8.69728e-06
-3.068e-07
-8.38697e-06
-3.10302e-07
-8.07246e-06
-3.14512e-07
-7.75113e-06
-3.21331e-07
-7.41827e-06
-3.32862e-07
-7.06706e-06
-3.51209e-07
-6.68897e-06
-3.78096e-07
-6.27466e-06
-4.14303e-07
-5.81559e-06
-4.59068e-07
-5.30605e-06
-5.09545e-07
-4.74535e-06
-5.60695e-07
-4.13923e-06
-6.0612e-07
-3.49987e-06
-6.39367e-07
-2.84427e-06
-6.55602e-07
-2.19115e-06
-6.53114e-07
-1.55758e-06
-6.33573e-07
-9.57348e-07
-6.00231e-07
-4.00751e-07
-5.56596e-07
1.05838e-07
-5.06589e-07
5.61904e-07
-4.56066e-07
9.66725e-07
-4.04821e-07
1.32255e-06
-3.55822e-07
1.63312e-06
-3.10573e-07
1.90339e-06
-2.70273e-07
2.13862e-06
-2.35223e-07
2.34253e-06
-2.03913e-07
2.51479e-06
-1.72266e-07
2.65093e-06
-1.36137e-07
2.74862e-06
-9.76888e-08
2.81841e-06
-6.97917e-08
2.88598e-06
-6.75723e-08
2.9823e-06
-9.63108e-08
3.11788e-06
-1.35587e-07
3.26737e-06
-1.49488e-07
3.39304e-06
-1.25667e-07
3.47174e-06
-7.87083e-08
3.51153e-06
-3.97839e-08
3.56656e-06
-5.50354e-08
3.69269e-06
-1.26124e-07
3.84814e-06
-1.55456e-07
3.91649e-06
-6.83436e-08
3.83573e-06
8.07558e-08
3.65154e-06
1.84192e-07
3.52677e-06
1.24772e-07
3.59107e-06
-6.43044e-08
3.77626e-06
-1.85188e-07
3.92258e-06
-1.46322e-07
3.93462e-06
-1.20431e-08
3.7527e-06
1.81924e-07
3.3097e-06
4.43005e-07
2.56315e-06
7.46547e-07
1.56317e-06
9.99982e-07
4.23136e-07
1.14003e-06
-7.33846e-07
1.15698e-06
-1.85841e-06
1.12456e-06
-2.90999e-06
1.05158e-06
-3.86716e-06
9.57167e-07
-4.71512e-06
8.4796e-07
-5.44129e-06
7.26178e-07
-6.03398e-06
5.92686e-07
-6.48263e-06
4.48649e-07
-6.7785e-06
2.95867e-07
-6.91584e-06
1.37342e-07
-6.89944e-06
-1.63978e-08
-6.73531e-06
-1.64126e-07
-6.43659e-06
-2.98727e-07
-6.01857e-06
-4.1802e-07
-5.49987e-06
-5.18701e-07
-4.90064e-06
-5.99226e-07
-4.23938e-06
-6.61256e-07
-3.53003e-06
-7.09358e-07
-2.77913e-06
-7.50895e-07
-1.98403e-06
-7.95101e-07
-1.13511e-06
-8.48923e-07
-2.17989e-07
-9.1712e-07
7.65067e-07
-9.83055e-07
1.81868e-06
-1.05361e-06
2.91915e-06
-1.10048e-06
4.02767e-06
-1.10852e-06
5.09722e-06
-1.06954e-06
6.08494e-06
-9.87723e-07
6.96046e-06
-8.75519e-07
7.70797e-06
-7.47512e-07
8.32386e-06
-6.1589e-07
8.80808e-06
-4.84218e-07
9.15977e-06
-3.51689e-07
9.38104e-06
-2.21274e-07
9.46186e-06
-8.08213e-08
9.37998e-06
8.18766e-08
9.10154e-06
2.78446e-07
8.61541e-06
4.86129e-07
7.89961e-06
7.15796e-07
6.91338e-06
9.8623e-07
5.71139e-06
1.20199e-06
4.54551e-06
1.16589e-06
3.65982e-06
8.85682e-07
3.07931e-06
5.80511e-07
2.67206e-06
4.07251e-07
2.30429e-06
3.67777e-07
1.87941e-06
4.24876e-07
1.34719e-06
5.32217e-07
7.25125e-07
6.22067e-07
9.123e-08
6.33895e-07
-4.51737e-07
5.42967e-07
-8.6675e-07
4.15013e-07
-1.1029e-06
2.36152e-07
-1.14439e-06
4.14868e-08
-1.01325e-06
-1.31141e-07
-7.47287e-07
-2.6596e-07
-3.8977e-07
-3.57518e-07
1.66204e-08
-4.0639e-07
4.32117e-07
-4.15497e-07
9.03527e-07
-4.7141e-07
1.33728e-06
-4.3375e-07
-3.93087e-07
1.73036e-06
1.04862e-07
9.74622e-08
4.61133e-07
-3.49277e-07
9.90338e-07
-8.00708e-07
1.59598e-06
-1.08529e-06
2.19372e-06
-1.19473e-06
2.74629e-06
-1.18779e-06
3.23294e-06
-1.10154e-06
3.64694e-06
-9.73647e-07
3.99147e-06
-8.322e-07
4.27552e-06
-6.95175e-07
4.50918e-06
-5.70116e-07
4.69993e-06
-4.55791e-07
4.85284e-06
-3.49073e-07
4.97118e-06
-2.46403e-07
5.0546e-06
-1.41193e-07
5.10287e-06
-2.91709e-08
5.10624e-06
1.06081e-07
5.05774e-06
2.56981e-07
4.94906e-06
4.21383e-07
4.76686e-06
6.01308e-07
4.50786e-06
7.83766e-07
4.16989e-06
9.35324e-07
3.76539e-06
1.05312e-06
3.31693e-06
1.07243e-06
2.76232e-06
9.95823e-07
2.19853e-06
8.33102e-07
1.78472e-06
5.30153e-07
1.47251e-06
2.63889e-07
1.43962e-06
-9.94824e-08
1.68102e-06
-4.23016e-07
1.73797e-06
-3.17884e-07
1.39056e-06
1.72627e-08
6.81801e-07
5.06793e-07
-4.6051e-07
1.14618e-06
-1.88442e-06
1.57864e-06
-3.27057e-06
1.87755e-06
-4.4444e-06
2.11687e-06
-5.47954e-06
2.22447e-06
-6.4535e-06
2.20477e-06
-7.35629e-06
2.10937e-06
-8.17648e-06
1.96601e-06
-8.90999e-06
1.7967e-06
-9.55795e-06
1.61643e-06
-1.01238e-05
1.43418e-06
-1.0612e-05
1.25556e-06
-1.1027e-05
1.08321e-06
-1.1373e-05
9.18304e-07
-1.16535e-05
7.61016e-07
-1.18717e-05
6.11215e-07
-1.20303e-05
4.68713e-07
-1.21323e-05
3.33461e-07
-1.21803e-05
2.05423e-07
-1.21763e-05
8.394e-08
-1.21224e-05
-3.00351e-08
-1.20246e-05
-1.31185e-07
-1.18839e-05
-2.25029e-07
-1.17032e-05
-3.09858e-07
-1.14869e-05
-3.84675e-07
-1.124e-05
-4.49088e-07
-1.09674e-05
-5.03107e-07
-1.06742e-05
-5.47018e-07
-1.03649e-05
-5.81378e-07
-1.00439e-05
-6.06945e-07
-9.71485e-06
-6.24776e-07
-9.38099e-06
-6.36253e-07
-9.04454e-06
-6.43252e-07
-8.70656e-06
-6.48281e-07
-8.36651e-06
-6.54561e-07
-8.02189e-06
-6.65951e-07
-7.66793e-06
-6.86821e-07
-7.29748e-06
-7.21659e-07
-6.90125e-06
-7.7433e-07
-6.46855e-06
-8.47002e-07
-5.98882e-06
-9.38794e-07
-5.45462e-06
-1.04375e-06
-4.86439e-06
-1.15092e-06
-4.22411e-06
-1.24639e-06
-3.54791e-06
-1.31557e-06
-2.85597e-06
-1.34753e-06
-2.17036e-06
-1.33873e-06
-1.51003e-06
-1.2939e-06
-8.88983e-07
-1.22128e-06
-3.15251e-07
-1.13033e-06
2.09083e-07
-1.03092e-06
6.84415e-07
-9.31398e-07
1.11433e-06
-8.34739e-07
1.50227e-06
-7.43757e-07
1.85131e-06
-6.59616e-07
2.16472e-06
-5.83683e-07
2.44789e-06
-5.18387e-07
2.70833e-06
-4.64356e-07
2.95001e-06
-4.13951e-07
3.16318e-06
-3.493e-07
3.32268e-06
-2.57188e-07
3.40917e-06
-1.56282e-07
3.44308e-06
-1.01487e-07
3.48443e-06
-1.37658e-07
3.58079e-06
-2.31945e-07
3.70493e-06
-2.73632e-07
3.76939e-06
-1.90121e-07
3.74353e-06
-5.28561e-08
3.71811e-06
-1.43575e-08
3.83807e-06
-1.74994e-07
4.1929e-06
-4.8096e-07
4.66975e-06
-6.32302e-07
4.96465e-06
-3.63246e-07
4.89228e-06
1.53122e-07
4.59576e-06
4.80714e-07
4.4083e-06
3.12238e-07
4.49756e-06
-1.53571e-07
4.69417e-06
-3.8179e-07
4.71107e-06
-1.6323e-07
4.38229e-06
3.16741e-07
3.67503e-06
8.89185e-07
2.64409e-06
1.47395e-06
1.41472e-06
1.97591e-06
1.30892e-07
2.28381e-06
-1.09032e-06
2.36124e-06
-2.23052e-06
2.29718e-06
-3.26554e-06
2.15959e-06
-4.19426e-06
1.9803e-06
-5.01349e-06
1.77639e-06
-5.71862e-06
1.55309e-06
-6.30336e-06
1.31092e-06
-6.76024e-06
1.04957e-06
-7.08189e-06
7.70296e-07
-7.26282e-06
4.76797e-07
-7.29837e-06
1.72893e-07
-7.19096e-06
-1.23809e-07
-6.94529e-06
-4.098e-07
-6.56739e-06
-6.76622e-07
-6.07355e-06
-9.11862e-07
-5.48424e-06
-1.10801e-06
-4.82159e-06
-1.26187e-06
-4.10585e-06
-1.377e-06
-3.35294e-06
-1.46226e-06
-2.57116e-06
-1.53268e-06
-1.75928e-06
-1.60698e-06
-9.06462e-07
-1.70174e-06
3.4887e-09
-1.82707e-06
9.88176e-07
-1.96774e-06
2.05703e-06
-2.12247e-06
3.19181e-06
-2.23526e-06
4.35362e-06
-2.27033e-06
5.49348e-06
-2.2094e-06
6.5657e-06
-2.05995e-06
7.53824e-06
-1.84806e-06
8.3943e-06
-1.60358e-06
9.12625e-06
-1.34783e-06
9.73349e-06
-1.09146e-06
1.02187e-05
-8.36918e-07
1.05761e-05
-5.78634e-07
1.08027e-05
-3.07419e-07
1.09047e-05
-2.01896e-08
1.08693e-05
3.13918e-07
1.06696e-05
6.85788e-07
1.02819e-05
1.10348e-06
9.68341e-06
1.58475e-06
8.78703e-06
2.09836e-06
7.51421e-06
2.43871e-06
6.01439e-06
2.3855e-06
4.65857e-06
1.93632e-06
3.69851e-06
1.36732e-06
3.05854e-06
1.00774e-06
2.50854e-06
9.74879e-07
1.89842e-06
1.14233e-06
1.22489e-06
1.2956e-06
5.68173e-07
1.29062e-06
1.4588e-09
1.10968e-06
-4.0128e-07
8.17752e-07
-6.25586e-07
4.60457e-07
-6.59234e-07
7.51353e-08
-5.23123e-07
-2.67252e-07
-2.58698e-07
-5.30385e-07
8.01991e-08
-6.96414e-07
4.5556e-07
-7.81751e-07
8.35781e-07
-7.95717e-07
1.25685e-06
-8.92482e-07
1.73804e-06
-9.14932e-07
-8.95939e-07
2.24089e-06
4.07154e-07
-3.09692e-07
1.02035e-06
-9.62468e-07
1.63969e-06
-1.42005e-06
2.17645e-06
-1.62206e-06
2.60917e-06
-1.62744e-06
2.93469e-06
-1.51332e-06
3.17154e-06
-1.33839e-06
3.34404e-06
-1.14615e-06
3.47569e-06
-9.63852e-07
3.58652e-06
-8.05997e-07
3.68957e-06
-6.73174e-07
3.78951e-06
-5.55729e-07
3.88795e-06
-4.47516e-07
3.98489e-06
-3.43338e-07
4.07238e-06
-2.28679e-07
4.13686e-06
-9.36507e-08
4.18505e-06
5.78863e-08
4.21508e-06
2.26956e-07
4.20706e-06
4.29403e-07
4.14871e-06
6.5965e-07
4.03691e-06
8.95571e-07
3.8528e-06
1.11943e-06
3.60575e-06
1.30018e-06
3.28282e-06
1.39536e-06
2.89604e-06
1.38261e-06
2.53473e-06
1.19441e-06
2.12938e-06
9.35494e-07
1.84116e-06
5.52114e-07
1.63138e-06
1.10297e-07
1.09151e-06
1.16855e-07
1.02778e-07
6.70846e-07
-1.25259e-06
1.37264e-06
-2.66471e-06
1.91891e-06
-3.88772e-06
2.36918e-06
-5.00768e-06
2.6986e-06
-6.01947e-06
2.88934e-06
-6.86236e-06
2.95976e-06
-7.56666e-06
2.92878e-06
-8.18281e-06
2.82092e-06
-8.73455e-06
2.66111e-06
-9.23684e-06
2.4683e-06
-9.69745e-06
2.25731e-06
-1.01199e-05
2.0389e-06
-1.05049e-05
1.81916e-06
-1.08512e-05
1.60189e-06
-1.11567e-05
1.38864e-06
-1.14186e-05
1.18024e-06
-1.16345e-05
9.76889e-07
-1.18021e-05
7.78836e-07
-1.192e-05
5.866e-07
-1.19876e-05
4.01118e-07
-1.20056e-05
2.23353e-07
-1.19749e-05
5.32471e-08
-1.19e-05
-1.04868e-07
-1.17792e-05
-2.51998e-07
-1.16183e-05
-3.85925e-07
-1.14227e-05
-5.05496e-07
-1.11971e-05
-6.10269e-07
-1.09463e-05
-6.99908e-07
-1.06749e-05
-7.74489e-07
-1.03874e-05
-8.34467e-07
-1.00881e-05
-8.8074e-07
-9.78051e-06
-9.14524e-07
-9.46791e-06
-9.37374e-07
-9.15296e-06
-9.51203e-07
-8.83772e-06
-9.58489e-07
-8.52343e-06
-9.62574e-07
-8.20991e-06
-9.68083e-07
-7.89496e-06
-9.80903e-07
-7.57394e-06
-1.00783e-06
-7.23937e-06
-1.05623e-06
-6.8807e-06
-1.133e-06
-6.48479e-06
-1.24291e-06
-6.03752e-06
-1.38607e-06
-5.52639e-06
-1.55488e-06
-4.94475e-06
-1.73256e-06
-4.29664e-06
-1.89451e-06
-3.59832e-06
-2.01389e-06
-2.87579e-06
-2.07006e-06
-2.15862e-06
-2.0559e-06
-1.47205e-06
-1.98048e-06
-8.33843e-07
-1.85948e-06
-2.52825e-07
-1.71135e-06
2.6999e-07
-1.55374e-06
7.38396e-07
-1.3998e-06
1.15887e-06
-1.25521e-06
1.53844e-06
-1.12332e-06
1.88261e-06
-1.00379e-06
2.19453e-06
-8.95595e-07
2.47764e-06
-8.01504e-07
2.74187e-06
-7.28586e-07
3.00613e-06
-6.78209e-07
3.28737e-06
-6.30537e-07
3.57584e-06
-5.45664e-07
3.82234e-06
-4.02782e-07
3.97061e-06
-2.4975e-07
4.02205e-06
-1.891e-07
4.05716e-06
-2.67056e-07
4.15135e-06
-3.67822e-07
4.25484e-06
-2.93608e-07
4.22991e-06
-2.79313e-08
4.05423e-06
1.61323e-07
3.92363e-06
-4.43909e-08
4.09966e-06
-6.56987e-07
4.62639e-06
-1.15904e-06
5.16428e-06
-9.01137e-07
5.312e-06
5.40436e-09
5.10406e-06
6.88661e-07
4.89591e-06
5.20385e-07
4.84902e-06
-1.06683e-07
4.77015e-06
-3.02919e-07
4.41272e-06
1.94203e-07
3.68038e-06
1.04908e-06
2.64558e-06
1.92399e-06
1.45775e-06
2.66178e-06
2.68618e-07
3.16504e-06
-8.28271e-07
3.3807e-06
-1.83793e-06
3.3709e-06
-2.77249e-06
3.23174e-06
-3.6382e-06
3.0253e-06
-4.43422e-06
2.77632e-06
-5.15223e-06
2.4944e-06
-5.78043e-06
2.18129e-06
-6.30544e-06
1.83592e-06
-6.71341e-06
1.45755e-06
-6.991e-06
1.04788e-06
-7.12719e-06
6.12994e-07
-7.11614e-06
1.61843e-07
-6.95855e-06
-2.81407e-07
-6.65825e-06
-7.10092e-07
-6.22801e-06
-1.10686e-06
-5.68488e-06
-1.455e-06
-5.05079e-06
-1.7421e-06
-4.35055e-06
-1.96211e-06
-3.60719e-06
-2.12036e-06
-2.83929e-06
-2.23016e-06
-2.05807e-06
-2.3139e-06
-1.26475e-06
-2.4003e-06
-4.46609e-07
-2.51988e-06
4.11616e-07
-2.6853e-06
1.34901e-06
-2.90514e-06
2.37129e-06
-3.14475e-06
3.46862e-06
-3.33259e-06
4.60323e-06
-3.40493e-06
5.72393e-06
-3.33009e-06
6.78339e-06
-3.11941e-06
7.74919e-06
-2.81386e-06
8.60561e-06
-2.45999e-06
9.34911e-06
-2.09133e-06
9.98126e-06
-1.72361e-06
1.05048e-05
-1.36041e-06
1.09193e-05
-9.93135e-07
1.122e-05
-6.08157e-07
1.13958e-05
-1.96046e-07
1.14553e-05
2.54501e-07
1.13902e-05
7.50814e-07
1.12016e-05
1.29211e-06
1.08921e-05
1.8943e-06
1.04368e-05
2.55365e-06
9.67787e-06
3.1976e-06
8.44782e-06
3.61556e-06
6.85364e-06
3.53051e-06
5.29224e-06
2.92871e-06
4.09288e-06
2.2071e-06
3.24791e-06
1.81985e-06
2.55893e-06
1.83131e-06
1.90317e-06
1.95135e-06
1.27975e-06
1.91404e-06
7.34789e-07
1.65464e-06
3.26735e-07
1.22581e-06
9.95191e-08
6.87674e-07
5.79219e-08
1.16732e-07
1.75742e-07
-3.85073e-07
4.16546e-07
-7.71189e-07
7.36854e-07
-1.01672e-06
1.08062e-06
-1.12551e-06
1.39576e-06
-1.11086e-06
1.68276e-06
-1.17948e-06
2.04509e-06
-1.27727e-06
-1.35478e-06
2.50393e-06
5.45836e-07
-8.55528e-07
1.15843e-06
-1.57506e-06
1.65126e-06
-1.91287e-06
1.98218e-06
-1.95298e-06
2.18639e-06
-1.83165e-06
2.30942e-06
-1.63634e-06
2.38861e-06
-1.41758e-06
2.45684e-06
-1.21437e-06
2.5353e-06
-1.04232e-06
2.63079e-06
-9.01486e-07
2.73655e-06
-7.78929e-07
2.84022e-06
-6.59404e-07
2.93111e-06
-5.38411e-07
3.00531e-06
-4.17537e-07
3.05659e-06
-2.79952e-07
3.09002e-06
-1.27083e-07
3.12452e-06
2.3383e-08
3.16742e-06
1.84061e-07
3.20509e-06
3.91724e-07
3.19966e-06
6.65082e-07
3.12469e-06
9.70542e-07
2.98802e-06
1.25611e-06
2.8068e-06
1.48139e-06
2.57304e-06
1.62913e-06
2.2856e-06
1.67005e-06
1.88298e-06
1.59703e-06
1.50424e-06
1.31424e-06
1.18585e-06
8.70508e-07
4.02782e-07
8.93361e-07
-9.50474e-07
1.47011e-06
-2.39156e-06
2.11193e-06
-3.68296e-06
2.66403e-06
-4.83649e-06
3.07244e-06
-5.8117e-06
3.3444e-06
-6.60728e-06
3.49418e-06
-7.26298e-06
3.54504e-06
-7.80618e-06
3.50296e-06
-8.26616e-06
3.38876e-06
-8.66907e-06
3.22382e-06
-9.03438e-06
3.02643e-06
-9.37537e-06
2.80929e-06
-9.69876e-06
2.5807e-06
-1.0006e-05
2.34618e-06
-1.02953e-05
2.10842e-06
-1.05625e-05
1.86907e-06
-1.08025e-05
1.62866e-06
-1.10101e-05
1.38789e-06
-1.11805e-05
1.14728e-06
-1.13093e-05
9.07645e-07
-1.1393e-05
6.70271e-07
-1.14288e-05
4.36932e-07
-1.14158e-05
2.10364e-07
-1.13603e-05
-2.26253e-09
-1.12517e-05
-2.13473e-07
-1.10992e-05
-4.04524e-07
-1.09074e-05
-5.77738e-07
-1.06811e-05
-7.31732e-07
-1.04264e-05
-8.65022e-07
-1.01495e-05
-9.76754e-07
-9.85725e-06
-1.06678e-06
-9.55598e-06
-1.13573e-06
-9.25171e-06
-1.18501e-06
-8.94948e-06
-1.21676e-06
-8.65308e-06
-1.23377e-06
-8.36494e-06
-1.23934e-06
-8.08624e-06
-1.23719e-06
-7.81734e-06
-1.23147e-06
-7.55707e-06
-1.22835e-06
-7.30225e-06
-1.23573e-06
-7.04818e-06
-1.2619e-06
-6.78728e-06
-1.31713e-06
-6.50792e-06
-1.41236e-06
-6.19431e-06
-1.55652e-06
-5.82713e-06
-1.75324e-06
-5.38664e-06
-1.99537e-06
-4.85848e-06
-2.26073e-06
-4.24021e-06
-2.51277e-06
-3.54677e-06
-2.70733e-06
-2.80982e-06
-2.80702e-06
-2.06821e-06
-2.7975e-06
-1.35644e-06
-2.69225e-06
-6.9935e-07
-2.51657e-06
-1.09432e-07
-2.30126e-06
4.16632e-07
-2.0798e-06
8.7948e-07
-1.86265e-06
1.28826e-06
-1.66399e-06
1.65245e-06
-1.48752e-06
1.98077e-06
-1.33211e-06
2.27757e-06
-1.19239e-06
2.54096e-06
-1.06489e-06
2.76871e-06
-9.56337e-07
2.97036e-06
-8.79854e-07
3.17314e-06
-8.3332e-07
3.40945e-06
-7.8198e-07
3.68687e-06
-6.80194e-07
3.96599e-06
-5.28875e-07
4.18048e-06
-4.03585e-07
4.30048e-06
-3.87064e-07
4.37587e-06
-4.43213e-07
4.47403e-06
-3.91767e-07
4.56278e-06
-1.16682e-07
4.55575e-06
1.68356e-07
4.4801e-06
3.12649e-08
4.51155e-06
-6.88447e-07
4.78066e-06
-1.42815e-06
5.18619e-06
-1.30666e-06
5.43227e-06
-2.40678e-07
5.41564e-06
7.05292e-07
5.25777e-06
6.78252e-07
4.99474e-06
1.56351e-07
4.5396e-06
1.52224e-07
3.82146e-06
9.12343e-07
2.86163e-06
2.0089e-06
1.76788e-06
3.01774e-06
6.75413e-07
3.75425e-06
-3.2589e-07
4.16635e-06