/*--------------------------------*- C++ -*----------------------------------*\
| =========                 |                                                 |
| \\      /  F ield         | OpenFOAM: The Open Source CFD Toolbox           |
|  \\    /   O peration     | Version:  2112                                  |
|   \\  /    A nd           | Website:  www.openfoam.com                      |
|    \\/     M anipulation  |                                                 |
\*---------------------------------------------------------------------------*/
FoamFile
{
    version     2.0;
    format      ascii;
    arch        "LSB;label=32;scalar=64";
    class       surfaceScalarField;
    location    "0.09";
    object      phi;
}
// * * * * * * * * * * * * * * * * * * * * * * * * * * * * * * * * * * * * * //

dimensions      [0 3 -1 0 0 0 0];

oriented        oriented;

internalField   nonuniform List<scalar> 
24170
(
3.03168e-06
1.40227e-07
2.93832e-06
9.33565e-08
2.86547e-06
7.28522e-08
2.79536e-06
7.01066e-08
2.72594e-06
6.94215e-08
2.65001e-06
7.59327e-08
2.55297e-06
9.70411e-08
2.43519e-06
1.17779e-07
2.31563e-06
1.19552e-07
2.21436e-06
1.01275e-07
2.13788e-06
7.6478e-08
2.08272e-06
5.51639e-08
2.04003e-06
4.26837e-08
2.00198e-06
3.80585e-08
1.96288e-06
3.90975e-08
1.91584e-06
4.70356e-08
1.8604e-06
5.54384e-08
8.68166e-08
1.77359e-06
3.33417e-06
1.54439e-07
3.35048e-06
7.70424e-08
3.36624e-06
5.70954e-08
3.37358e-06
6.27637e-08
3.38134e-06
6.16645e-08
3.39808e-06
5.91913e-08
3.42012e-06
7.50036e-08
3.43481e-06
1.03082e-07
3.43228e-06
1.22086e-07
3.41201e-06
1.2154e-07
3.38042e-06
1.08073e-07
3.34628e-06
8.92975e-08
3.31623e-06
7.27385e-08
3.29328e-06
6.10091e-08
3.27522e-06
5.71581e-08
3.26006e-06
6.2195e-08
3.23987e-06
7.56314e-08
1.02478e-07
3.2242e-06
3.61709e-06
1.02093e-07
3.65205e-06
4.20809e-08
3.65939e-06
4.97615e-08
3.65506e-06
6.70971e-08
3.64487e-06
7.18458e-08
3.63901e-06
6.50534e-08
3.64298e-06
7.10396e-08
3.65198e-06
9.40777e-08
3.65754e-06
1.1653e-07
3.65602e-06
1.2306e-07
3.65065e-06
1.13435e-07
3.64577e-06
9.41806e-08
3.64449e-06
7.40191e-08
3.64583e-06
5.96659e-08
3.64811e-06
5.48803e-08
3.64943e-06
6.08764e-08
3.64976e-06
7.52992e-08
9.87066e-08
3.65353e-06
3.95464e-06
9.42181e-08
3.92868e-06
6.80339e-08
3.91459e-06
6.38574e-08
3.9144e-06
6.72885e-08
3.92468e-06
6.15647e-08
3.94184e-06
4.78869e-08
3.95665e-06
5.6234e-08
3.96257e-06
8.81622e-08
3.96045e-06
1.18646e-07
3.95592e-06
1.27586e-07
3.95433e-06
1.15033e-07
3.95685e-06
9.16556e-08
3.96124e-06
6.96262e-08
3.96423e-06
5.66746e-08
3.96379e-06
5.53262e-08
3.96098e-06
6.36829e-08
3.95752e-06
7.87592e-08
9.74902e-08
3.95874e-06
4.2147e-06
1.88432e-07
4.18284e-06
9.9894e-08
4.19349e-06
5.32048e-08
4.22209e-06
3.86846e-08
4.25014e-06
3.35138e-08
4.26377e-06
3.42629e-08
4.26398e-06
5.60221e-08
4.25956e-06
9.25872e-08
4.25775e-06
1.20457e-07
4.26153e-06
1.23799e-07
4.2706e-06
1.05969e-07
4.28156e-06
8.06947e-08
4.29027e-06
6.09156e-08
4.29382e-06
5.31222e-08
4.29177e-06
5.73794e-08
4.28609e-06
6.93625e-08
4.28005e-06
8.47956e-08
9.86708e-08
4.27887e-06
4.5042e-06
1.65936e-07
4.49095e-06
1.13144e-07
4.48262e-06
6.15312e-08
4.49683e-06
2.448e-08
4.52279e-06
7.54617e-09
4.53881e-06
1.8248e-08
4.54119e-06
5.36451e-08
4.54243e-06
9.13406e-08
4.55295e-06
1.09944e-07
4.5723e-06
1.04442e-07
4.59307e-06
8.52014e-08
4.6071e-06
6.66701e-08
4.61047e-06
5.75373e-08
4.60409e-06
5.95019e-08
4.59237e-06
6.90997e-08
4.5799e-06
8.18344e-08
4.57071e-06
9.39898e-08
1.02454e-07
4.56692e-06
4.76147e-06
1.53904e-07
4.81926e-06
5.53488e-08
4.87453e-06
6.25968e-09
4.90155e-06
-2.53142e-09
4.90002e-06
9.06952e-09
4.88334e-06
3.49359e-08
4.87022e-06
6.67634e-08
4.87054e-06
9.10221e-08
4.88121e-06
9.92713e-08
4.89212e-06
9.35262e-08
4.89479e-06
8.25315e-08
4.88684e-06
7.46199e-08
4.87126e-06
7.31187e-08
4.85305e-06
7.77139e-08
4.83616e-06
8.59939e-08
4.82327e-06
9.47174e-08
4.81617e-06
1.01091e-07
1.0376e-07
4.81486e-06
5.1422e-06
9.90584e-08
5.16284e-06
3.47078e-08
5.19193e-06
-2.28276e-08
5.202e-06
-1.26035e-08
5.18546e-06
2.56182e-08
5.15667e-06
6.37262e-08
5.13421e-06
8.92143e-08
5.13176e-06
9.34804e-08
5.15101e-06
8.00169e-08
5.18211e-06
6.24303e-08
5.21126e-06
5.33756e-08
5.22903e-06
5.68496e-08
5.23294e-06
6.92073e-08
5.22724e-06
8.34147e-08
5.21871e-06
9.45252e-08
5.21287e-06
1.0056e-07
5.21255e-06
1.01407e-07
9.91446e-08
5.21717e-06
5.38926e-06
7.66505e-08
5.47476e-06
-5.07944e-08
5.53057e-06
-7.86433e-08
5.52975e-06
-1.17777e-08
5.50467e-06
5.06931e-08
5.49532e-06
7.30769e-08
5.51376e-06
7.0781e-08
5.54694e-06
6.02993e-08
5.57697e-06
4.99869e-08
5.59357e-06
4.58277e-08
5.59578e-06
5.11636e-08
5.58842e-06
6.42152e-08
5.57763e-06
7.99983e-08
5.56864e-06
9.24004e-08
5.56486e-06
9.8303e-08
5.56802e-06
9.74049e-08
5.57794e-06
9.14831e-08
8.33977e-08
5.59369e-06
5.94569e-06
4.26042e-08
5.93532e-06
-4.04292e-08
5.89717e-06
-4.04923e-08
5.87968e-06
5.72009e-09
5.89124e-06
3.91272e-08
5.90658e-06
5.77357e-08
5.90982e-06
6.75469e-08
5.90094e-06
6.91801e-08
5.88828e-06
6.26424e-08
5.88142e-06
5.26918e-08
5.88672e-06
4.58616e-08
5.90563e-06
4.53061e-08
5.93578e-06
4.98473e-08
5.97203e-06
5.6147e-08
6.00898e-06
6.13582e-08
6.04172e-06
6.46607e-08
6.06687e-06
6.63297e-08
6.68396e-08
6.08343e-06
6.28166e-06
2.23261e-08
6.38453e-06
-1.43304e-07
6.40859e-06
-6.45492e-08
6.42337e-06
-9.06519e-09
6.42722e-06
3.52751e-08
6.4094e-06
7.556e-08
6.38038e-06
9.65723e-08
6.35461e-06
9.49472e-08
6.33708e-06
8.01683e-08
6.32696e-06
6.28183e-08
6.32343e-06
4.93828e-08
6.3266e-06
4.21443e-08
6.33599e-06
4.04574e-08
6.34959e-06
4.25445e-08
6.36478e-06
4.61626e-08
6.37903e-06
5.04129e-08
6.39161e-06
5.37506e-08
5.65941e-08
6.40186e-06
5.75093e-06
9.71745e-08
5.73752e-06
-1.29901e-07
5.74026e-06
-6.72849e-08
5.74543e-06
-1.42342e-08
5.75815e-06
2.25494e-08
5.7759e-06
5.78145e-08
5.79463e-06
7.78433e-08
5.80973e-06
7.98435e-08
5.81575e-06
7.41465e-08
5.80976e-06
6.88088e-08
5.79395e-06
6.51939e-08
5.77449e-06
6.16035e-08
5.75781e-06
5.7137e-08
5.74815e-06
5.22103e-08
5.74663e-06
4.7677e-08
5.75251e-06
4.4532e-08
5.7639e-06
4.23629e-08
4.17665e-08
5.77873e-06
7.02205e-06
-1.44865e-07
7.03607e-06
-1.43917e-07
7.01229e-06
-4.35071e-08
6.96834e-06
2.97114e-08
6.9169e-06
7.39933e-08
6.89011e-06
8.46042e-08
6.90013e-06
6.78269e-08
6.93778e-06
4.21937e-08
6.98444e-06
2.74788e-08
7.02388e-06
2.93746e-08
7.04838e-06
4.06935e-08
7.05783e-06
5.21554e-08
7.05718e-06
5.77807e-08
7.05264e-06
5.67572e-08
7.04991e-06
5.04012e-08
7.05185e-06
4.25899e-08
7.05917e-06
3.50466e-08
3.04611e-08
7.07047e-06
8.50853e-06
-3.43209e-08
8.40268e-06
-3.80656e-08
8.37672e-06
-1.75431e-08
8.35003e-06
5.63991e-08
8.33943e-06
8.45893e-08
8.36926e-06
5.47828e-08
8.42102e-06
1.60617e-08
8.46272e-06
4.9409e-10
8.47819e-06
1.20103e-08
8.47252e-06
3.50441e-08
8.4598e-06
5.34137e-08
8.45193e-06
6.00265e-08
8.45375e-06
5.59565e-08
8.46447e-06
4.6041e-08
8.47994e-06
3.49257e-08
8.49646e-06
2.60745e-08
8.51085e-06
2.06599e-08
1.86268e-08
8.52268e-06
1.04356e-05
-6.64395e-08
1.0385e-05
1.25837e-08
1.03425e-05
2.4996e-08
1.03398e-05
5.90414e-08
1.03542e-05
7.01937e-08
1.03597e-05
4.9335e-08
1.03484e-05
2.72839e-08
1.03264e-05
2.25059e-08
1.03083e-05
3.01689e-08
1.03066e-05
3.67084e-08
1.03262e-05
3.38676e-08
1.0363e-05
2.3208e-08
1.04081e-05
1.08101e-08
1.04526e-05
1.53613e-09
1.04912e-05
-3.62879e-09
1.05211e-05
-3.88972e-09
1.05424e-05
-6.37578e-10
4.43938e-09
1.05566e-05
1.24736e-05
-2.10105e-07
1.24902e-05
-3.95111e-09
1.2501e-05
1.41758e-08
1.25455e-05
1.45366e-08
1.25848e-05
3.08784e-08
1.25945e-05
3.96059e-08
1.25938e-05
2.79718e-08
1.26091e-05
7.28513e-09
1.26491e-05
-9.91693e-09
1.27027e-05
-1.68719e-08
1.27515e-05
-1.49311e-08
1.27816e-05
-6.86597e-09
1.27893e-05
3.08363e-09
1.27803e-05
1.05432e-08
1.2763e-05
1.36721e-08
1.27452e-05
1.39668e-08
1.2731e-05
1.35301e-08
1.46318e-08
1.27208e-05
1.5032e-05
-3.31227e-07
1.51558e-05
-1.27754e-07
1.51777e-05
-7.78014e-09
1.51747e-05
1.76224e-08
1.51956e-05
9.92271e-09
1.52479e-05
-1.27263e-08
1.53172e-05
-4.1322e-08
1.53777e-05
-5.31349e-08
1.54122e-05
-4.44358e-08
1.54176e-05
-2.22739e-08
1.54005e-05
2.17563e-09
1.53722e-05
2.14431e-08
1.53429e-05
3.2363e-08
1.53199e-05
3.34994e-08
1.53064e-05
2.7238e-08
1.53017e-05
1.86602e-08
1.53046e-05
1.06109e-08
6.76326e-09
1.53124e-05
1.8678e-05
-2.93201e-07
1.87951e-05
-2.44842e-07
1.88366e-05
-4.93217e-08
1.88048e-05
4.94798e-08
1.87604e-05
5.42827e-08
1.87481e-05
-4.11056e-10
1.87603e-05
-5.35566e-08
1.87745e-05
-6.72644e-08
1.87768e-05
-4.67458e-08
1.8769e-05
-1.45511e-08
1.87554e-05
1.58243e-08
1.87472e-05
2.96381e-08
1.87507e-05
2.88788e-08
1.87657e-05
1.8443e-08
1.87903e-05
2.70202e-09
1.8821e-05
-1.20847e-08
1.88586e-05
-2.69662e-08
-3.7887e-08
1.89032e-05
2.27856e-05
-1.98443e-07
2.26133e-05
-7.25934e-08
2.25591e-05
4.84922e-09
2.25949e-05
1.37338e-08
2.26819e-05
-3.27508e-08
2.27717e-05
-9.02025e-08
2.28486e-05
-1.30454e-07
2.29089e-05
-1.27541e-07
2.29657e-05
-1.03514e-07
2.30306e-05
-7.95284e-08
2.31076e-05
-6.11197e-08
2.31824e-05
-4.51692e-08
2.324e-05
-2.87337e-08
2.32697e-05
-1.12046e-08
2.32678e-05
4.52534e-09
2.32384e-05
1.72954e-08
2.31858e-05
2.57036e-08
2.66545e-08
2.31212e-05
1.71794e-05
-8.1135e-08
1.7069e-05
3.78446e-08
1.70061e-05
6.77444e-08
1.70113e-05
8.51724e-09
1.70346e-05
-5.60226e-08
1.70264e-05
-8.20093e-08
1.69889e-05
-9.29571e-08
1.69521e-05
-9.07382e-08
1.69287e-05
-8.00895e-08
1.69167e-05
-6.7524e-08
1.69101e-05
-5.45622e-08
1.69059e-05
-4.09915e-08
1.69036e-05
-2.64269e-08
1.69039e-05
-1.15084e-08
1.69048e-05
3.67078e-09
1.69065e-05
1.55556e-08
1.69086e-05
2.36439e-08
2.59824e-08
1.69093e-05
1.46803e-05
1.12558e-07
1.46158e-05
1.02326e-07
1.46985e-05
-1.49392e-08
1.47861e-05
-7.90644e-08
1.47882e-05
-5.81218e-08
1.47012e-05
4.97829e-09
1.45698e-05
3.84454e-08
1.44577e-05
2.13799e-08
1.44052e-05
-2.76457e-08
1.44125e-05
-7.47577e-08
1.44568e-05
-9.88531e-08
1.45138e-05
-9.79975e-08
1.45675e-05
-8.01831e-08
1.46119e-05
-5.59263e-08
1.46494e-05
-3.37745e-08
1.46835e-05
-1.85481e-08
1.47183e-05
-1.11648e-08
-1.02728e-08
1.47546e-05
1.2403e-05
-7.33018e-08
1.26003e-05
-9.5e-08
1.2724e-05
-1.38666e-07
1.27573e-05
-1.1234e-07
1.27415e-05
-4.22956e-08
1.27198e-05
2.67161e-08
1.27076e-05
5.06127e-08
1.2704e-05
2.49499e-08
1.26979e-05
-2.15608e-08
1.26883e-05
-6.50908e-08
1.26839e-05
-9.44867e-08
1.26901e-05
-1.04177e-07
1.27052e-05
-9.53527e-08
1.27234e-05
-7.40891e-08
1.27387e-05
-4.91015e-08
1.27478e-05
-2.76046e-08
1.27498e-05
-1.31209e-08
-7.07984e-09
1.27466e-05
1.08267e-05
-7.13098e-08
1.09352e-05
-2.03502e-07
1.09316e-05
-1.35088e-07
1.0875e-05
-5.56979e-08
1.0851e-05
-1.83215e-08
1.09064e-05
-2.87092e-08
1.10157e-05
-5.86041e-08
1.11244e-05
-8.37568e-08
1.12005e-05
-9.76673e-08
1.12352e-05
-9.98153e-08
1.12338e-05
-9.30404e-08
1.12088e-05
-7.92005e-08
1.11747e-05
-6.13215e-08
1.11437e-05
-4.30713e-08
1.11228e-05
-2.81772e-08
1.11135e-05
-1.83377e-08
1.11144e-05
-1.39819e-08
-1.49421e-08
1.11223e-05
9.6419e-06
-9.32796e-08
9.6638e-06
-2.25411e-07
9.68717e-06
-1.58451e-07
9.69359e-06
-6.21236e-08
9.69458e-06
-1.93039e-08
9.67569e-06
-9.82106e-09
9.63234e-06
-1.52597e-08
9.58601e-06
-3.74221e-08
9.56123e-06
-7.28917e-08
9.56931e-06
-1.0789e-07
9.60468e-06
-1.28411e-07
9.6524e-06
-1.26919e-07
9.69615e-06
-1.05073e-07
9.7235e-06
-7.04216e-08
9.72911e-06
-3.37906e-08
9.71545e-06
-4.67429e-09
9.68964e-06
1.18267e-08
1.56639e-08
9.65903e-06
8.4378e-06
-8.20916e-08
8.36299e-06
-1.50604e-07
8.35154e-06
-1.47006e-07
8.35316e-06
-6.37403e-08
8.34909e-06
-1.52308e-08
8.33825e-06
1.01875e-09
8.32958e-06
-6.59469e-09
8.32904e-06
-3.68746e-08
8.32998e-06
-7.38349e-08
8.32604e-06
-1.03954e-07
8.31719e-06
-1.19561e-07
8.30846e-06
-1.18186e-07
8.30617e-06
-1.02781e-07
8.31446e-06
-7.87189e-08
8.33217e-06
-5.14994e-08
8.35469e-06
-2.71868e-08
8.3761e-06
-9.5882e-09
-1.20919e-09
8.39297e-06
7.2234e-06
8.02648e-08
7.24346e-06
-1.70667e-07
7.31054e-06
-2.14087e-07
7.35751e-06
-1.10712e-07
7.3611e-06
-1.88126e-08
7.34026e-06
2.18505e-08
7.32097e-06
1.27021e-08
7.30847e-06
-2.43777e-08
7.29961e-06
-6.49739e-08
7.2901e-06
-9.44409e-08
7.27857e-06
-1.08037e-07
7.26662e-06
-1.06238e-07
7.25672e-06
-9.288e-08
7.25132e-06
-7.33142e-08
7.25242e-06
-5.25987e-08
7.26003e-06
-3.4799e-08
7.2723e-06
-2.186e-08
-1.49258e-08
7.28602e-06
6.43128e-06
1.74401e-07
6.37379e-06
-1.13173e-07
6.33524e-06
-1.75542e-07
6.32075e-06
-9.62226e-08
6.32305e-06
-2.1107e-08
6.33165e-06
1.32473e-08
6.33758e-06
6.77051e-09
6.33886e-06
-2.56497e-08
6.33696e-06
-6.30741e-08
6.33308e-06
-9.05678e-08
6.32693e-06
-1.01886e-07
6.31795e-06
-9.72603e-08
6.30668e-06
-8.1603e-08
6.29452e-06
-6.11605e-08
6.28335e-06
-4.14216e-08
6.27469e-06
-2.61411e-08
6.26965e-06
-1.68267e-08
-1.44084e-08
6.26914e-06
5.70256e-06
2.09164e-07
5.55524e-06
3.41512e-08
5.44271e-06
-6.30157e-08
5.42616e-06
-7.96755e-08
5.48242e-06
-7.73623e-08
5.5581e-06
-6.24377e-08
5.61296e-06
-4.80833e-08
5.6324e-06
-4.50949e-08
5.62241e-06
-5.30811e-08
5.598e-06
-6.61606e-08
5.57293e-06
-7.68122e-08
5.55476e-06
-7.90873e-08
5.545e-06
-7.18505e-08
5.54224e-06
-5.83926e-08
5.54477e-06
-4.3959e-08
5.5515e-06
-3.28704e-08
5.56238e-06
-2.77011e-08
-2.93794e-08
5.57735e-06
4.76034e-06
4.75139e-08
4.82443e-06
-2.99351e-08
4.8274e-06
-6.59894e-08
4.82964e-06
-8.19093e-08
4.83805e-06
-8.57738e-08
4.85085e-06
-7.52422e-08
4.8637e-06
-6.09238e-08
4.87073e-06
-5.21335e-08
4.86774e-06
-5.00901e-08
4.85393e-06
-5.23485e-08
4.83283e-06
-5.57116e-08
4.81172e-06
-5.79795e-08
4.79777e-06
-5.79022e-08
4.79445e-06
-5.50732e-08
4.80088e-06
-5.03855e-08
4.81316e-06
-4.51476e-08
4.82626e-06
-4.08073e-08
-3.93643e-08
4.83625e-06
4.1184e-06
4.08846e-06
4.02248e-06
3.94057e-06
3.85479e-06
3.77955e-06
3.71863e-06
3.66649e-06
3.6164e-06
3.56405e-06
3.50834e-06
3.45036e-06
3.39246e-06
3.33739e-06
3.287e-06
3.24185e-06
3.20105e-06
3.16168e-06
-3.87892e-07
3.87892e-07
-7.41881e-07
3.53988e-07
-1.0265e-06
2.84623e-07
-1.22594e-06
1.99437e-07
-1.32156e-06
9.56242e-08
-1.3172e-06
-4.36253e-09
-1.24608e-06
-7.11212e-08
-1.13121e-06
-1.14867e-07
-9.93294e-07
-1.37919e-07
-8.50119e-07
-1.43176e-07
-7.15374e-07
-1.34745e-07
-6.06812e-07
-1.08562e-07
-5.3864e-07
-6.81726e-08
-5.04019e-07
-3.46208e-08
-4.59404e-07
-4.46145e-08
-3.61163e-07
-9.82413e-08
-2.37454e-07
-1.23709e-07
-9.19758e-08
-1.45479e-07
1.38782e-07
-2.30758e-07
4.73755e-07
-3.34973e-07
8.79688e-07
-4.05932e-07
1.26217e-06
-3.82479e-07
1.59381e-06
-3.3164e-07
1.80627e-06
-2.12467e-07
1.85823e-06
-5.19553e-08
1.83594e-06
2.22885e-08
1.77702e-06
5.89238e-08
1.62514e-06
1.51879e-07
1.31669e-06
3.08451e-07
8.26256e-07
4.90431e-07
9.90149e-08
7.27241e-07
-8.37559e-07
9.36574e-07
-1.78506e-06
9.47505e-07
-2.72288e-06
9.37815e-07
-3.62145e-06
8.98576e-07
-4.47152e-06
8.50067e-07
-5.26771e-06
7.96192e-07
-6.01135e-06
7.43636e-07
-6.70406e-06
6.92711e-07
-7.3483e-06
6.44242e-07
-7.94553e-06
5.97232e-07
-8.49642e-06
5.50886e-07
-9.00013e-06
5.03714e-07
-9.45471e-06
4.5458e-07
-9.85726e-06
4.02544e-07
-1.02041e-05
3.46887e-07
-1.04911e-05
2.86948e-07
-1.07133e-05
2.22192e-07
-1.0866e-05
1.52691e-07
-1.09453e-05
7.93294e-08
-1.09478e-05
2.48348e-09
-1.0878e-05
-6.98388e-08
-1.07336e-05
-1.4437e-07
-1.0516e-05
-2.17572e-07
-1.02283e-05
-2.87709e-07
-9.87402e-06
-3.54285e-07
-9.45807e-06
-4.15941e-07
-8.98618e-06
-4.71894e-07
-8.46496e-06
-5.21226e-07
-7.90163e-06
-5.63322e-07
-7.30386e-06
-5.97773e-07
-6.67945e-06
-6.24405e-07
-6.03613e-06
-6.43323e-07
-5.38147e-06
-6.54658e-07
-4.72318e-06
-6.58292e-07
-4.06936e-06
-6.53822e-07
-3.42719e-06
-6.42167e-07
-2.80664e-06
-6.20557e-07
-2.21896e-06
-5.87673e-07
-1.67532e-06
-5.43643e-07
-1.18598e-06
-4.89336e-07
-7.58496e-07
-4.27487e-07
-3.94993e-07
-3.63503e-07
-9.32629e-08
-3.0173e-07
1.55122e-07
-2.48385e-07
3.56704e-07
-2.01583e-07
5.21886e-07
-1.65182e-07
6.68084e-07
-1.46198e-07
8.19079e-07
-1.50996e-07
1.00316e-06
-1.84078e-07
1.24738e-06
-2.44226e-07
1.57426e-06
-3.26878e-07
2.00501e-06
-4.30751e-07
2.5635e-06
-5.58491e-07
3.24495e-06
-6.81449e-07
3.92792e-06
-6.82965e-07
4.44928e-06
-5.21361e-07
4.85613e-06
-4.06849e-07
5.13864e-06
-2.82511e-07
4.89205e-06
2.46593e-07
4.03291e-06
8.59139e-07
3.15764e-06
8.75263e-07
2.77845e-06
3.79189e-07
2.67907e-06
9.93831e-08
2.31231e-06
3.66766e-07
1.84157e-06
4.70738e-07
1.98938e-06
-1.47813e-07
2.84109e-06
-8.51711e-07
3.53792e-06
-6.96832e-07
3.52591e-06
1.20197e-08
3.21637e-06
3.0953e-07
3.07263e-06
1.43747e-07
2.7306e-06
3.42026e-07
1.57438e-06
1.15622e-06
-2.31761e-07
1.80614e-06
-2.12821e-06
1.89645e-06
-3.87404e-06
1.74583e-06
-5.41042e-06
1.53638e-06
-6.73876e-06
1.32834e-06
-7.87799e-06
1.13922e-06
-8.84891e-06
9.70925e-07
-9.66859e-06
8.19683e-07
-1.03483e-05
6.79748e-07
-1.08943e-05
5.45933e-07
-1.13079e-05
4.13664e-07
-1.15868e-05
2.78833e-07
-1.17268e-05
1.39978e-07
-1.17232e-05
-3.50575e-09
-1.15827e-05
-1.40568e-07
-1.13018e-05
-2.80864e-07
-1.08821e-05
-4.19725e-07
-1.03289e-05
-5.53153e-07
-9.6528e-06
-6.76134e-07
-8.86912e-06
-7.83686e-07
-7.99728e-06
-8.71838e-07
-7.0587e-06
-9.3858e-07
-6.07495e-06
-9.83745e-07
-5.06703e-06
-1.00793e-06
-4.05501e-06
-1.01202e-06
-3.05705e-06
-9.97963e-07
-2.08817e-06
-9.68877e-07
-1.1603e-06
-9.27873e-07
-2.85222e-07
-8.75074e-07
5.36525e-07
-8.21748e-07
1.29739e-06
-7.60861e-07
1.99353e-06
-6.96139e-07
2.62363e-06
-6.30105e-07
3.18845e-06
-5.64823e-07
3.69037e-06
-5.01916e-07
4.13268e-06
-4.42309e-07
4.51879e-06
-3.86115e-07
4.85171e-06
-3.32914e-07
5.13319e-06
-2.81481e-07
5.36149e-06
-2.28302e-07
5.53402e-06
-1.72528e-07
5.65517e-06
-1.21147e-07
5.71987e-06
-6.47052e-08
5.69796e-06
2.19157e-08
5.55383e-06
1.44124e-07
5.28209e-06
2.71745e-07
4.9134e-06
3.6869e-07
4.50649e-06
4.06911e-07
4.11865e-06
3.87836e-07
3.78234e-06
3.36314e-07
3.50673e-06
2.75602e-07
3.28348e-06
2.23256e-07
3.09717e-06
1.86304e-07
2.93407e-06
1.63109e-07
2.78802e-06
1.46047e-07
2.65623e-06
1.31791e-07
2.53685e-06
1.19379e-07
2.43045e-06
1.064e-07
2.34038e-06
9.00706e-08
2.27165e-06
6.87256e-08
2.22789e-06
4.37604e-08
2.20949e-06
1.83988e-08
2.21448e-06
-4.98675e-09
2.23991e-06
-2.54338e-08
2.2806e-06
-4.06884e-08
2.33254e-06
-5.19409e-08
2.38819e-06
-5.56477e-08
2.4416e-06
-5.34084e-08
2.48606e-06
-4.44559e-08
2.51771e-06
-3.16501e-08
2.52286e-06
-5.15828e-09
2.51894e-06
3.92133e-09
2.49124e-06
2.76994e-08
2.47064e-06
2.06031e-08
2.3498e-06
1.20844e-07
1.69555e-07
2.18024e-06
-2.695e-07
6.57392e-07
-5.05904e-07
5.90393e-07
-6.69467e-07
4.48186e-07
-7.63691e-07
2.93661e-07
-7.65221e-07
9.71543e-08
-6.85828e-07
-8.37559e-08
-5.44697e-07
-2.12252e-07
-3.74339e-07
-2.85226e-07
-2.01739e-07
-3.10518e-07
-4.54276e-08
-2.99488e-07
7.72731e-08
-2.57445e-07
1.57944e-07
-1.89233e-07
1.94557e-07
-1.04786e-07
1.98671e-07
-3.87346e-08
1.80245e-07
-2.61881e-08
1.27617e-07
-4.56142e-08
6.19156e-08
-5.80067e-08
7.24053e-08
-1.55968e-07
2.05851e-07
-3.64204e-07
4.37298e-07
-5.66421e-07
6.86199e-07
-6.54833e-07
8.45651e-07
-5.4193e-07
9.12246e-07
-3.98235e-07
9.03349e-07
-2.0357e-07
7.65651e-07
8.5743e-08
4.45539e-07
3.424e-07
-8.53806e-08
5.89844e-07
-8.34862e-07
9.0136e-07
-1.7154e-06
1.18899e-06
-2.62108e-06
1.39611e-06
-3.43891e-06
1.54507e-06
-4.12737e-06
1.62504e-06
-4.79875e-06
1.61888e-06
-5.43983e-06
1.5789e-06
-6.04723e-06
1.50597e-06
-6.6222e-06
1.42504e-06
-7.16634e-06
1.34033e-06
-7.68261e-06
1.2599e-06
-8.1725e-06
1.1826e-06
-8.63648e-06
1.10822e-06
-9.07419e-06
1.03494e-06
-9.48418e-06
9.60878e-07
-9.8637e-06
8.83234e-07
-1.02093e-05
8.00141e-07
-1.05168e-05
7.10064e-07
-1.07817e-05
6.1185e-07
-1.09995e-05
5.04715e-07
-1.11657e-05
3.88341e-07
-1.1276e-05
2.63055e-07
-1.13267e-05
1.30005e-07
-1.1316e-05
-8.26491e-09
-1.12324e-05
-1.53374e-07
-1.1078e-05
-2.98793e-07
-1.08529e-05
-4.42654e-07
-1.05586e-05
-5.82041e-07
-1.0199e-05
-7.13884e-07
-9.77912e-06
-8.35803e-07
-9.30533e-06
-9.45681e-07
-8.78465e-06
-1.0419e-06
-8.2247e-06
-1.12328e-06
-7.6334e-06
-1.18908e-06
-7.01854e-06
-1.23926e-06
-6.38739e-06
-1.27448e-06
-5.74647e-06
-1.29558e-06
-5.10136e-06
-1.3034e-06
-4.45665e-06
-1.29854e-06
-3.81757e-06
-1.28125e-06
-3.18708e-06
-1.25105e-06
-2.56751e-06
-1.20724e-06
-1.96157e-06
-1.14958e-06
-1.37187e-06
-1.07904e-06
-8.05499e-07
-9.93855e-07
-2.72861e-07
-8.96141e-07
2.16894e-07
-7.91486e-07
6.4847e-07
-6.79961e-07
1.02057e-06
-5.73678e-07
1.33537e-06
-4.79986e-07
1.60273e-06
-4.13556e-07
1.84051e-06
-3.88774e-07
2.0707e-06
-4.14268e-07
2.31431e-06
-4.87839e-07
2.59321e-06
-6.05781e-07
2.9297e-06
-7.67237e-07
3.33191e-06
-9.60707e-07
3.78991e-06
-1.13945e-06
4.32112e-06
-1.21417e-06
4.96475e-06
-1.16499e-06
5.55562e-06
-9.97727e-07
5.89595e-06
-6.22841e-07
6.25842e-06
-1.15869e-07
6.60839e-06
5.09169e-07
6.2232e-06
1.26045e-06
5.0129e-06
1.58949e-06
3.82394e-06
1.28834e-06
2.99684e-06
1.19387e-06
2.41598e-06
1.0516e-06
2.44073e-06
-1.72561e-07
3.17182e-06
-1.5828e-06
4.01089e-06
-1.5359e-06
4.44667e-06
-4.23763e-07
4.29662e-06
4.59586e-07
3.27717e-06
1.1632e-06
1.25982e-06
2.35938e-06
-1.09308e-06
3.50912e-06
-3.08598e-06
3.79904e-06
-4.69142e-06
3.50189e-06
-6.01713e-06
3.07153e-06
-7.12483e-06
2.64408e-06
-8.06275e-06
2.26626e-06
-8.86596e-06
1.94243e-06
-9.55688e-06
1.66185e-06
-1.01472e-05
1.40998e-06
-1.06414e-05
1.17399e-06
-1.10397e-05
9.44183e-07
-1.13386e-05
7.12621e-07
-1.15334e-05
4.73585e-07
-1.1617e-05
2.23617e-07
-1.1583e-05
-3.74872e-08
-1.14162e-05
-3.07443e-07
-1.11121e-05
-5.84903e-07
-1.06705e-05
-8.61345e-07
-1.00959e-05
-1.12771e-06
-9.39882e-06
-1.37326e-06
-8.59515e-06
-1.58736e-06
-7.70528e-06
-1.76171e-06
-6.75155e-06
-1.89231e-06
-5.75605e-06
-1.97924e-06
-4.74003e-06
-2.02395e-06
-3.72341e-06
-2.02864e-06
-2.72399e-06
-1.99739e-06
-1.75609e-06
-1.93677e-06
-8.32098e-07
-1.85186e-06
3.76905e-08
-1.74486e-06
8.57075e-07
-1.64113e-06
1.61229e-06
-1.51608e-06
2.30298e-06
-1.38682e-06
2.9287e-06
-1.25583e-06
3.49071e-06
-1.12684e-06
3.99193e-06
-1.00313e-06
4.43616e-06
-8.86543e-07
4.8272e-06
-7.77154e-07
5.16768e-06
-6.7339e-07
5.45919e-06
-5.72994e-07
5.70593e-06
-4.75042e-07
5.91312e-06
-3.79717e-07
6.07756e-06
-2.85587e-07
6.20121e-06
-1.88358e-07
6.30226e-06
-7.91316e-08
6.39184e-06
5.45454e-08
6.45173e-06
2.1185e-07
6.44249e-06
3.77933e-07
6.32135e-06
5.28048e-07
6.07432e-06
6.34872e-07
5.73917e-06
6.71458e-07
5.38133e-06
6.33444e-07
5.04609e-06
5.58491e-07
4.74213e-06
4.90269e-07
4.46163e-06
4.4361e-07
4.20186e-06
4.05818e-07
3.96336e-06
3.70289e-07
3.74746e-06
3.35277e-07
3.55765e-06
2.9621e-07
3.39908e-06
2.48644e-07
3.27652e-06
1.91278e-07
3.19207e-06
1.28215e-07
3.14501e-06
6.54613e-08
3.13203e-06
7.98978e-09
3.1468e-06
-4.02035e-08
3.18372e-06
-7.76043e-08
3.2361e-06
-1.04329e-07
3.29613e-06
-1.15678e-07
3.35576e-06
-1.13033e-07
3.40598e-06
-9.46784e-08
3.44287e-06
-6.85372e-08
3.46119e-06
-2.34833e-08
3.46291e-06
2.20246e-09
3.44498e-06
4.5634e-08
3.40807e-06
5.75136e-08
3.37103e-06
1.57878e-07
2.2e-07
3.32059e-06
-4.52657e-08
7.02658e-07
-1.23619e-07
6.68746e-07
-2.07798e-07
5.32365e-07
-2.47076e-07
3.32939e-07
-2.02989e-07
5.30676e-08
-9.13724e-08
-1.95372e-07
5.78564e-08
-3.61481e-07
2.19801e-07
-4.4717e-07
3.81696e-07
-4.72413e-07
5.40086e-07
-4.57878e-07
6.96559e-07
-4.13919e-07
8.53993e-07
-3.46667e-07
1.0149e-06
-2.65688e-07
1.1456e-06
-1.69437e-07
1.19371e-06
-7.42987e-08
1.12365e-06
2.44443e-08
9.51838e-07
1.13806e-07
7.16684e-07
7.91858e-08
4.7102e-07
-1.1854e-07
2.88715e-07
-3.84116e-07
1.11237e-07
-4.77355e-07
-1.1518e-07
-3.15514e-07
-4.08382e-07
-1.05033e-07
-7.76383e-07
1.64431e-07
-1.2322e-06
5.41565e-07
-1.82977e-06
9.39964e-07
-2.5326e-06
1.29268e-06
-3.21185e-06
1.58061e-06
-3.81877e-06
1.7959e-06
-4.36325e-06
1.9406e-06
-4.83908e-06
2.0209e-06
-5.25504e-06
2.041e-06
-5.65497e-06
2.01881e-06
-6.04702e-06
1.97095e-06
-6.4458e-06
1.90476e-06
-6.85557e-06
1.83481e-06
-7.28002e-06
1.76478e-06
-7.71692e-06
1.69681e-06
-8.16107e-06
1.62675e-06
-8.60513e-06
1.55228e-06
-9.04063e-06
1.47044e-06
-9.45943e-06
1.37968e-06
-9.85416e-06
1.27796e-06
-1.02179e-05
1.16384e-06
-1.05439e-05
1.03614e-06
-1.08261e-05
8.93984e-07
-1.10582e-05
7.36829e-07
-1.12344e-05
5.64573e-07
-1.13491e-05
3.77697e-07
-1.13967e-05
1.77612e-07
-1.13725e-05
-3.23854e-08
-1.12787e-05
-2.47216e-07
-1.11136e-05
-4.63915e-07
-1.08778e-05
-6.78384e-07
-1.05738e-05
-8.86046e-07
-1.02052e-05
-1.08254e-06
-9.7768e-06
-1.26418e-06
-9.29468e-06
-1.42781e-06
-8.76569e-06
-1.57089e-06
-8.1977e-06
-1.69127e-06
-7.59928e-06
-1.78749e-06
-6.97946e-06
-1.85908e-06
-6.34731e-06
-1.90662e-06
-5.71139e-06
-1.9315e-06
-5.07958e-06
-1.93521e-06
-4.45892e-06
-1.9192e-06
-3.85503e-06
-1.88513e-06
-3.27106e-06
-1.83501e-06
-2.70714e-06
-1.77116e-06
-2.1602e-06
-1.69652e-06
-1.62645e-06
-1.6128e-06
-1.10062e-06
-1.51969e-06
-5.79282e-07
-1.41748e-06
-6.29532e-08
-1.30781e-06
4.50817e-07
-1.19373e-06
9.53475e-07
-1.07634e-06
1.43825e-06
-9.6476e-07
1.89293e-06
-8.68236e-07
2.30156e-06
-7.97404e-07
2.65153e-06
-7.64238e-07
2.94593e-06
-7.82243e-07
3.20255e-06
-8.62396e-07
3.44682e-06
-1.0115e-06
3.72499e-06
-1.23888e-06
4.10628e-06
-1.52074e-06
4.59345e-06
-1.70134e-06
5.08861e-06
-1.66015e-06
5.57755e-06
-1.48667e-06
6.0409e-06
-1.08619e-06
6.33576e-06
-4.10729e-07
6.62563e-06
2.19305e-07
6.92866e-06
9.57413e-07
6.63314e-06
1.88501e-06
5.48932e-06
2.43216e-06
4.19636e-06
2.48683e-06
3.25478e-06
1.99318e-06
2.8612e-06
2.21016e-07
3.18548e-06
-1.90708e-06
3.83112e-06
-2.18155e-06
3.99941e-06
-5.9205e-07
3.14628e-06
1.31272e-06
1.20981e-06
3.09967e-06
-1.07237e-06
4.64156e-06
-2.85892e-06
5.29567e-06
-4.12298e-06
5.0631e-06
-5.13306e-06
4.51197e-06
-6.01182e-06
3.9503e-06
-6.81613e-06
3.4484e-06
-7.57032e-06
3.02045e-06
-8.27881e-06
2.65092e-06
-8.93474e-06
2.31778e-06
-9.52652e-06
2.00177e-06
-1.00421e-05
1.68953e-06
-1.04702e-05
1.37234e-06
-1.08005e-05
1.04284e-06
-1.10218e-05
6.9492e-07
-1.11246e-05
3.26452e-07
-1.10969e-05
-6.51889e-08
-1.09307e-05
-4.73631e-07
-1.06244e-05
-8.91261e-07
-1.01759e-05
-1.30985e-06
-9.58931e-06
-1.71427e-06
-8.87547e-06
-2.0871e-06
-8.05184e-06
-2.41098e-06
-7.14104e-06
-2.67251e-06
-6.1676e-06
-2.86575e-06
-5.15519e-06
-2.99165e-06
-4.12626e-06
-3.05287e-06
-3.10179e-06
-3.05311e-06
-2.1002e-06
-2.99898e-06
-1.13662e-06
-2.90035e-06
-2.26814e-07
-2.76167e-06
6.33403e-07
-2.60508e-06
1.42294e-06
-2.43067e-06
2.14525e-06
-2.23839e-06
2.79735e-06
-2.03893e-06
3.38024e-06
-1.83871e-06
3.8972e-06
-1.64379e-06
4.35355e-06
-1.45948e-06
4.75563e-06
-1.28862e-06
5.10914e-06
-1.13067e-06
5.41755e-06
-9.81801e-07
5.68082e-06
-8.36269e-07
5.89612e-06
-6.90335e-07
6.06239e-06
-5.4599e-07
6.1841e-06
-4.07297e-07
6.27014e-06
-2.744e-07
6.33414e-06
-1.43124e-07
6.39317e-06
-4.49043e-09
6.46149e-06
1.43534e-07
6.53545e-06
3.03969e-07
6.5941e-06
4.69398e-07
6.60132e-06
6.27654e-07
6.5106e-06
7.62178e-07
6.28558e-06
8.5846e-07
5.93931e-06
9.04767e-07
5.54021e-06
8.89361e-07
5.16762e-06
8.16203e-07
4.85546e-06
7.17976e-07
4.59461e-06
6.31139e-07
4.36513e-06
5.6476e-07
4.15999e-06
5.01351e-07
3.98465e-06
4.23984e-07
3.84703e-06
3.28903e-07
3.75057e-06
2.24668e-07
3.69297e-06
1.23061e-07
3.66874e-06
3.2218e-08
3.67126e-06
-4.27189e-08
3.69412e-06
-1.00463e-07
3.72995e-06
-1.4016e-07
3.77294e-06
-1.58668e-07
3.81484e-06
-1.54935e-07
3.84582e-06
-1.2566e-07
3.85801e-06
-8.07193e-08
3.84979e-06
-1.5268e-08
3.81579e-06
3.62037e-08
3.76683e-06
9.45923e-08
3.69804e-06
1.26304e-07
3.64759e-06
2.08324e-07
2.70162e-07
3.59743e-06
1.30816e-07
5.71841e-07
1.64732e-07
6.3483e-07
1.69256e-07
5.27841e-07
2.38895e-07
2.63301e-07
3.63701e-07
-7.1739e-08
5.13208e-07
-3.44879e-07
6.59015e-07
-5.07288e-07
7.93966e-07
-5.82121e-07
9.20321e-07
-5.98768e-07
1.03827e-06
-5.75826e-07
1.14468e-06
-5.20334e-07
1.23308e-06
-4.35058e-07
1.29183e-06
-3.24445e-07
1.31813e-06
-1.95737e-07
1.30398e-06
-6.01454e-08
1.26059e-06
6.78301e-08
1.1685e-06
2.05903e-07
9.30794e-07
3.16889e-07
5.40207e-07
2.72047e-07
1.0536e-07
5.07312e-08
-3.18831e-07
-5.31646e-08
-7.39324e-07
1.04979e-07
-1.21475e-06
3.70396e-07
-1.80543e-06
7.55104e-07
-2.43879e-06
1.17493e-06
-3.03921e-06
1.54039e-06
-3.57752e-06
1.83099e-06
-4.03971e-06
2.0428e-06
-4.43138e-06
2.18756e-06
-4.77503e-06
2.28425e-06
-5.09573e-06
2.3416e-06
-5.41635e-06
2.36161e-06
-5.74938e-06
2.35184e-06
-6.10101e-06
2.32257e-06
-6.48052e-06
2.28427e-06
-6.89076e-06
2.24505e-06
-7.32973e-06
2.20375e-06
-7.78699e-06
2.15407e-06
-8.24955e-06
2.08932e-06
-8.70403e-06
2.00676e-06
-9.13911e-06
1.90552e-06
-9.54618e-06
1.78675e-06
-9.91947e-06
1.65125e-06
-1.02551e-05
1.4995e-06
-1.05499e-05
1.33089e-06
-1.08003e-05
1.14436e-06
-1.10021e-05
9.38699e-07
-1.11509e-05
7.13307e-07
-1.12418e-05
4.68637e-07
-1.12697e-05
2.05546e-07
-1.123e-05
-7.21285e-08
-1.11287e-05
-3.4852e-07
-1.09619e-05
-6.30713e-07
-1.07299e-05
-9.10328e-07
-1.04354e-05
-1.1806e-06
-1.00813e-05
-1.43661e-06
-9.67108e-06
-1.67442e-06
-9.20807e-06
-1.89082e-06
-8.696e-06
-2.08296e-06
-8.13937e-06
-2.2479e-06
-7.54402e-06
-2.38284e-06
-6.91738e-06
-2.48572e-06
-6.2681e-06
-2.5559e-06
-5.6053e-06
-2.5943e-06
-4.93873e-06
-2.60179e-06
-4.27909e-06
-2.57884e-06
-3.63669e-06
-2.52753e-06
-3.02037e-06
-2.45133e-06
-2.43718e-06
-2.35435e-06
-1.89135e-06
-2.24236e-06
-1.38186e-06
-2.12229e-06
-9.0247e-07
-1.99907e-06
-4.42968e-07
-1.87698e-06
1.09215e-08
-1.7617e-06
4.74212e-07
-1.65702e-06
9.54704e-07
-1.55683e-06
1.44841e-06
-1.45847e-06
1.9415e-06
-1.36132e-06
2.41296e-06
-1.26887e-06
2.83812e-06
-1.18939e-06
3.19885e-06
-1.14297e-06
3.49567e-06
-1.15922e-06
3.74668e-06
-1.26252e-06
3.97464e-06
-1.46684e-06
4.22631e-06
-1.77241e-06
4.58786e-06
-2.06289e-06
5.03267e-06
-2.10495e-06
5.42971e-06
-1.88372e-06
5.81481e-06
-1.47129e-06
6.1729e-06
-7.68816e-07
6.40708e-06
-1.48759e-08
6.70379e-06
6.60704e-07
7.00661e-06
1.58219e-06
6.84256e-06
2.59621e-06
6.07542e-06
3.25397e-06
4.98405e-06
3.08454e-06
3.95856e-06
1.24651e-06
3.44466e-06
-1.39318e-06
3.16583e-06
-1.90272e-06
2.43879e-06
1.34994e-07
1.03603e-06
2.71548e-06
-8.26601e-07
4.9623e-06
-2.40551e-06
6.22047e-06
-3.43718e-06
6.32733e-06
-4.19213e-06
5.81806e-06
-4.88914e-06
5.20897e-06
-5.58812e-06
4.64928e-06
-6.3065e-06
4.16677e-06
-7.03654e-06
3.7505e-06
-7.75689e-06
3.37126e-06
-8.44063e-06
3.00152e-06
-9.06334e-06
2.62448e-06
-9.60684e-06
2.23303e-06