/*--------------------------------*- C++ -*----------------------------------*\
| =========                 |                                                 |
| \\      /  F ield         | OpenFOAM: The Open Source CFD Toolbox           |
|  \\    /   O peration     | Version:  2112                                  |
|   \\  /    A nd           | Website:  www.openfoam.com                      |
|    \\/     M anipulation  |                                                 |
\*---------------------------------------------------------------------------*/
FoamFile
{
    version     2.0;
    format      ascii;
    arch        "LSB;label=32;scalar=64";
    class       volScalarField;
    location    "0.09";
    object      pMean;
}
// * * * * * * * * * * * * * * * * * * * * * * * * * * * * * * * * * * * * * //

dimensions      [0 2 -2 0 0 0 0];

internalField   nonuniform List<scalar> 
12225
(
12.2266
11.2824
10.4434
10.0059
9.66745
9.33842
9.02952
8.75223
8.50848
8.29507
8.10717
7.94094
7.79187
7.6594
7.53087
7.41687
7.27807
7.15504
14.4433
11.5149
10.2794
9.78732
9.44606
9.13636
8.84937
8.59024
8.36158
8.16088
7.98371
7.82619
7.68515
7.55905
7.44155
7.31692
7.12765
6.70591
12.8712
11.237
10.2454
9.7887
9.4952
9.20263
8.91557
8.6522
8.41897
8.21351
8.03135
7.86899
7.72297
7.58981
7.46151
7.32473
7.15762
6.94501
12.9045
11.5028
10.4085
9.84244
9.51616
9.22156
8.9246
8.65115
8.41271
8.20506
8.0208
7.85519
7.70515
7.56637
7.43252
7.29056
7.12838
6.90777
12.3986
11.2661
10.3137
9.77818
9.4705
9.19998
8.92165
8.65632
8.42028
8.21347
8.03002
7.86366
7.71018
7.56449
7.4218
7.27021
7.09946
6.8857
12.0758
11.2296
10.4083
9.85421
9.50807
9.23025
8.95619
8.69023
8.4491
8.23675
8.04783
7.87526
7.71414
7.55961
7.40635
7.24494
7.06588
6.85882
11.784
11.1049
10.3788
9.83101
9.47188
9.19996
8.94075
8.68455
8.44612
8.23308
8.04264
7.86785
7.70287
7.54268
7.38224
7.21445
7.03212
6.82897
11.5206
10.9664
10.3481
9.84074
9.48094
9.20701
8.95442
8.70501
8.4681
8.25231
8.05715
7.8771
7.70618
7.53927
7.37158
7.19777
7.01227
6.81082
11.2872
10.8262
10.3049
9.84033
9.48106
9.19991
8.94866
8.70492
8.47104
8.25442
8.05629
7.87244
7.69718
7.52549
7.35289
7.1753
6.98839
6.78902
11.0809
10.6875
10.2466
9.82677
9.47584
9.19157
8.94222
8.7049
8.47603
8.26039
8.06026
7.87307
7.69393
7.51818
7.34177
7.1614
6.97369
6.77624
10.8979
10.5532
10.1769
9.8021
9.46686
9.18366
8.93565
8.70297
8.4785
8.26424
8.06254
7.87223
7.68951
7.5103
7.33097
7.14885
6.96138
6.76705
10.7487
10.4363
10.1072
9.77134
9.45479
9.17598
8.92902
8.69912
8.47804
8.26551
8.06326
7.87092
7.68575
7.50434
7.32352
7.14103
6.9549
6.7641
10.6151
10.3274
10.0364
9.73549
9.43905
9.16698
8.92161
8.69374
8.47557
8.26508
8.06306
7.86954
7.6827
7.49988
7.3184
7.13638
6.95225
6.7654
10.4804
10.214
9.95688
9.68995
9.41624
9.1542
8.91202
8.6863
8.47095
8.26293
8.06195
7.8681
7.68035
7.49687
7.31561
7.13506
6.95403
6.77219
10.3495
10.1006
9.87226
9.63614
9.38589
9.13668
8.89987
8.67696
8.46441
8.25911
8.05996
7.86685
7.67931
7.49628
7.31637
7.13851
6.96182
6.78612
10.2296
9.99418
9.78854
9.57836
9.35
9.11487
8.88532
8.66617
8.45655
8.25413
8.05751
7.86634
7.68042
7.49929
7.32213
7.14826
6.97712
6.80866
10.1305
9.90442
9.71505
9.52432
9.31376
9.09159
8.86985
8.65514
8.44863
8.24915
8.05551
7.86726
7.68431
7.50657
7.33367
7.16522
7.00081
6.84045
10.067
9.84611
9.66572
9.48603
9.28633
9.07304
8.85759
8.64708
8.44367
8.24697
8.05621
7.87106
7.6916
7.51795
7.35001
7.18759
7.03032
6.87788
10.0649
9.84337
9.66189
9.48109
9.28079
9.06789
8.85396
8.64598
8.44584
8.25295
8.06646
7.88609
7.71201
7.5444
7.38326
7.22845
7.07979
6.93726
10.1495
9.91885
9.72228
9.52366
9.30666
9.08036
8.85669
8.64175
8.43654
8.24009
8.05166
7.87112
7.69863
7.5342
7.37761
7.22847
7.0863
6.95042
10.2783
10.032
9.80958
9.58306
9.34655
9.11266
8.88952
8.67749
8.47392
8.27721
8.0877
7.90646
7.73411
7.57062
7.41543
7.26787
7.12757
6.99451
10.4521
10.1813
9.9176
9.6434
9.36418
9.09921
8.85665
8.63301
8.42222
8.22129
8.03035
7.85037
7.6815
7.52283
7.3734
7.23262
7.10021
6.9755
10.6632
10.3521
10.0376
9.72808
9.4372
9.17473
8.93577
8.71039
8.49343
8.28541
8.0886
7.9039
7.73073
7.56791
7.41439
7.26941
7.13262
7.00389
10.9241
10.5286
10.0951
9.68955
9.3547
9.08654
8.85315
8.62972
8.41077
8.20127
8.00592
7.82526
7.65744
7.50052
7.35354
7.21614
7.08831
6.96966
11.2505
10.802
10.301
9.84855
9.49068
9.20678
8.95373
8.7089
8.47245
8.25128
8.04848
7.86239
7.68994
7.52851
7.37687
7.23452
7.1018
6.97916
11.4993
10.7978
10.1212
9.64803
9.3442
9.10639
8.87111
8.63038
8.39812
8.18447
7.98967
7.80968
7.64236
7.48592
7.33911
7.20061
7.07045
6.94941
12.2413
11.3175
10.4126
9.82086
9.46803
9.1937
8.92496
8.66012
8.41147
8.18716
7.98531
7.80004
7.62686
7.46324
7.31049
7.16656
7.03252
6.90387
11.9846
10.8807
10.0979
9.67362
9.40104
9.15247
8.89302
8.63872
8.40739
8.19743
8.00318
7.82148
7.65032
7.48954
7.33797
7.19504
7.06355
6.94777
13.9864
11.4474
10.2001
9.7118
9.39979
9.09856
8.81224
8.5534
8.32109
8.10947
7.91398
7.73225
7.56337
7.4047
7.25843
7.10958
6.96281
6.75619
11.7072
10.9934
10.2768
9.86655
9.57909
9.28894
8.99972
8.73215
8.49062
8.271
8.06797
7.88007
7.70338
7.54172
7.38683
7.2578
7.13694
7.08761
2.25077
2.18939
2.13944
2.12319
2.13697
2.14882
2.12096
2.01051
1.79327
1.4661
1.0407
0.540551
-0.00122909
-0.549451
-1.07247
-1.54318
-1.94093
-2.25327
-2.47525
-2.60861
-2.66014
-2.6422
-2.57133
-2.46377
-2.33604
-2.20452
-2.08504
-1.99554
-1.95232
-1.97057
-2.06262
-2.23245
-2.47508
-2.7774
-3.13021
-3.53279
-3.98873
-4.50082
-5.0615
-5.65203
-6.24853
-6.82515
-7.35699
-7.82239
-8.20223
-8.48028
-8.64742
-8.70153
-8.64034
-8.46426
-8.18388
-7.80876
-7.34384
-6.79412
-6.17447
-5.50554
-4.8056
-4.08891
-3.36948
-2.66173
-1.97598
-1.30461
-0.638211
0.0147298
0.625978
1.16477
1.62194
2.01263
2.36235
2.69616
3.03554
3.39524
3.78351
4.20323
4.65713
5.15206
5.69863
6.30754
6.98682
7.74052
8.56907
9.4697
10.4366
11.4615
12.5334
13.6401
14.7673
15.8996
17.019
18.1045
19.1336
20.084
20.9366
21.678
22.3018
22.8096
23.2082
23.5087
23.723
23.8578
23.918
23.9184
23.8827
23.8322
23.7837
23.7499
23.7378
23.7486
23.7811
23.8341
23.9141
24.0368
24.2139
24.4434
24.7104
24.9925
25.2642
25.5031
25.6942
25.8327
25.922
25.9718
25.9941
26.0009
26.0005
25.9961
25.9856
25.9642
25.9264
25.8691
25.791
25.6923
25.5739
25.4367
25.2817
25.1099
24.9218
24.7183
24.5012
24.2732
24.0379
23.7991
23.5621
23.3318
23.1122
22.9063
22.715
22.538
22.3738
22.2205
22.0746
21.9304
21.7834
21.6475
21.5517
21.5156
21.5407
21.612
21.7051
21.7962
21.8677
21.9096
21.9184
21.8966
21.8503
21.7874
21.7166
21.6466
21.585
21.5377
21.5078
21.4964
21.5026
21.5229
21.5518
21.5844
21.6207
21.664
21.7437
21.9008
1.94377
1.87838
1.81083
1.74894
1.70759
1.6589
1.56764
1.39084
1.11332
0.739587
0.288249
-0.216866
-0.748071
-1.27663
-1.77253
-2.2107
-2.57533
-2.85769
-3.0542
-3.16713
-3.20422
-3.17845
-3.10496
-3.00077
-2.88233
-2.76638
-2.67189
-2.61653
-2.61596
-2.68343
-2.82758
-3.04987
-3.34478
-3.7016
-4.11113
-4.57039
-5.08366
-5.64712
-6.24698
-6.86319
-7.47171
-8.04749
-8.56662
-9.01175
-9.36704
-9.61394
-9.74407
-9.75808
-9.65657
-9.44036
-9.12613
-8.72158
-8.22882
-7.66794
-7.04565
-6.36856
-5.65223
-4.90936
-4.15395
-3.40348
-2.6748
-1.96918
-1.286
-0.636898
-0.0387702
0.490154
0.946734
1.34579
1.70991
2.06109
2.41801
2.79451
3.19902
3.63576
4.10823
4.62316
5.19062
5.82011
6.51882
7.29063
8.13603
9.05194
10.0319
11.0668
12.1466
13.2591
14.3909
15.5269
16.6501
17.7403
18.7756
19.7339
20.5954
21.3454
21.9766
22.4891
22.8899
23.1903
23.4032
23.5378
23.6011
23.6089
23.5829
23.5414
23.4999
23.4703
23.4599
23.4694
23.4966
23.543
23.6198
23.7455
23.9308
24.1704
24.4455
24.7319
25.006
25.2482
25.4456
25.5938
25.6963
25.7615
25.8006
25.824
25.8398
25.8508
25.855
25.847
25.8212
25.774
25.7042
25.6122
25.4994
25.3669
25.2154
25.0457
24.8586
24.6554
24.4382
24.2097
23.9739
23.7349
23.4978
23.2672
23.0468
22.8395
22.6464
22.4669
22.2988
22.1391
21.9833
21.8264
21.6691
21.5302
21.4391
21.4114
21.4447
21.5236
21.6236
21.7205
21.7967
21.8419
21.8535
21.8344
21.7905
21.7293
21.6596
21.5904
21.5292
21.4821
21.453
21.4432
21.4517
21.4741
21.5049
21.5369
21.5726
21.6057
21.6673
21.7122
1.95095
1.88824
1.7306
1.50607
1.24734
0.961532
0.639326
0.26241
-0.168716
-0.644306
-1.14695
-1.65897
-2.1617
-2.63742
-3.06977
-3.44231
-3.74571
-3.97513
-4.13014
-4.21396
-4.23559
-4.20844
-4.14589
-4.06285
-3.97432
-3.89558
-3.84491
-3.84033
-3.89793
-4.0281
-4.23568
-4.52157
-4.8802
-5.30915
-5.80564
-6.3615
-6.96321
-7.59474
-8.24075
-8.8858
-9.51098
-10.0931
-10.6088
-11.0385
-11.3664
-11.5779
-11.6644
-11.6242
-11.4612
-11.1871
-10.8185
-10.3666
-9.83923
-9.24429
-8.58231
-7.86216
-7.0992
-6.30382
-5.49012
-4.68006
-3.89914
-3.15688
-2.45339
-1.79887
-1.20665
-0.679868
-0.212473
0.207094
0.59404
0.965522
1.33851
1.72682
2.14075
2.58734
3.07282
3.60493
4.19289
4.84441
5.56488
6.35699
7.22071
8.15356
9.1497
10.2
11.2935
12.4187
13.5628
14.7108
15.8459
16.9487
17.9985
18.9737
19.8536
20.621
21.2662
21.7887
22.1961
22.5023
22.7219
22.8671
22.9507
22.9878
22.9927
22.9769
22.9507
22.9243
22.9055
22.8983
22.9052
22.9352
23.008
23.1428
23.344
23.5995
23.8877
24.1843
24.4669
24.7187
24.9297
25.0963
25.221
25.3101
25.3735
25.4219
25.4634
25.5007
25.5312
25.5486
25.5463
25.5201
25.4687
25.3925
25.2924
25.1696
25.0256
24.8616
24.6786
24.4782
24.2625
24.0351
23.8005
23.5633
23.3278
23.0979
22.8774
22.6688
22.4734
22.2901
22.1158
21.945
21.7713
21.5928
21.4222
21.2857
21.2063
21.1915
21.2377
21.3287
21.44
21.5468
21.631
21.6824
21.6986
21.6829
21.6412
21.5816
21.5131
21.4448
21.3848
21.3393
21.3128
21.3069
21.3207
21.3481
21.3833
21.417
21.4522
21.4754
21.518
21.5111
1.73181
1.62629
1.34899
0.96834
0.512857
0.010039
-0.522528
-1.07698
-1.64542
-2.20942
-2.74955
-3.25595
-3.72346
-4.14753
-4.52094
-4.8382
-5.09459
-5.28765
-5.4203
-5.49919
-5.53307
-5.53236
-5.50821
-5.47267
-5.43911
-5.42298
-5.44151
-5.51146
-5.6459
-5.85192
-6.13106
-6.48424
-6.90979
-7.40296
-7.95688
-8.56203
-9.20651
-9.87653
-10.5568
-11.2297
-11.8752
-12.4715
-12.9974
-13.432
-13.7563
-13.9546
-14.0176
-13.9438
-13.7392
-13.4171
-12.9924
-12.4769
-11.8797
-11.2096
-10.4734
-9.67997
-8.84141
-7.97176
-7.08846
-6.21265
-5.36698
-4.56706
-3.82151
-3.13786
-2.52373
-1.97762
-1.49199
-1.05668
-0.658311
-0.281186
0.0908588
0.472783
0.877562
1.31643
1.7997
2.33704
2.93645
3.60456
4.34468
5.1575
6.04147
6.99286
8.00631
9.0738
10.1847
11.3267
12.4866
13.6492
14.7981
15.9155
16.9819
17.9764
18.8769
19.6642
20.327
20.8651
21.288
21.6118
21.8531
22.0266
22.1451
22.2191
22.2566
22.2645
22.2491
22.2191
22.1835
22.1498
22.1283
22.1409
22.2146
22.3645
22.5871
22.8631
23.1668
23.4723
23.7602
24.0186
24.2413
24.4256
24.5721
24.6859
24.7762
24.8539
24.9271
24.9986
25.0647
25.1177
25.1494
25.154
25.1294
25.0754
24.9933
24.8848
24.7515
24.5948
24.4168
24.2197
24.0068
23.7826
23.5517
23.3182
23.0854
22.8569
22.6361
22.4258
22.2271
22.0385
21.8555
21.6703
21.4758
21.2766
21.0983
20.9669
20.8967
20.8917
20.9466
21.0456
21.165
21.2807
21.3745
21.4357
21.4612
21.4534
21.4178
21.3624
21.2968
21.231
21.1737
21.1319
21.1108
21.112
21.1338
21.1682
21.2087
21.2438
21.2754
21.2873
21.3047
21.2636
1.26301
1.09422
0.717221
0.217964
-0.369468
-1.00418
-1.66176
-2.32063
-2.9662
-3.58263
-4.15456
-4.67335
-5.13835
-5.55463
-5.92231
-6.23796
-6.49639
-6.69977
-6.85451
-6.96823
-7.04944
-7.10717
-7.15152
-7.19327
-7.24547
-7.32307
-7.44206
-7.61648
-7.85564
-8.16485
-8.54454
-8.99064
-9.49621
-10.0522
-10.6486
-11.2749
-11.9215
-12.5787
-13.2354
-13.8786
-14.4923
-15.0581
-15.5559
-15.9643
-16.262
-16.4305
-16.4573
-16.3399
-16.0858
-15.708
-15.2207
-14.6368
-13.9683
-13.2249
-12.415
-11.5472
-10.6336
-9.68931
-8.73376
-7.79078
-6.88429
-6.03048
-5.23954
-4.52054
-3.87903
-3.31297
-2.81507
-2.3746
-1.97812
-1.61059
-1.25593
-0.898304
-0.522112
-0.111994
0.348234
0.8732
1.47332
2.15339
2.91368
3.75093
4.65993
5.63537
6.672
7.76318
8.89815
10.0634
11.2442
12.4251
13.5901
14.7222
15.8031
16.8131
17.7307
18.5364
19.2185
19.7777
20.225
20.5768
20.8505
21.0611
21.2191
21.3299
21.3962
21.4209
21.4085
21.3666
21.3064
21.2407
21.1912
21.1929
21.2746
21.4438
21.6889
21.9843
22.2996
22.6079
22.8944
23.1542
23.385
23.5851
23.754
23.8949
24.0161
24.1278
24.2383
24.3501
24.4586
24.5545
24.6273
24.6695
24.6779
24.6516
24.5919
24.5005
24.3796
24.2319
24.0603
23.8683
23.6605
23.4414
23.2156
22.9864
22.7564
22.529
22.3076
22.0951
21.8924
21.6973
21.5039
21.3031
21.089
20.8756
20.696
20.5707
20.5076
20.5086
20.5692
20.6737
20.7991
20.9225
21.0268
21.1011
21.1411
21.147
21.1229
21.0763
21.0173
20.9567
20.9044
20.8684
20.8544
20.8637
20.8935
20.9341
20.9779
21.0126
21.0384
21.0388
21.0316
20.9634
0.566296
0.337235
-0.115893
-0.686739
-1.33819
-2.03013
-2.73404
-3.43341
-4.11429
-4.76164
-5.36385
-5.91696
-6.42328
-6.887
-7.30686
-7.67764
-7.99598
-8.26539
-8.49334
-8.68701
-8.85405
-9.00346
-9.14565
-9.29264
-9.45815
-9.65732
-9.90379
-10.2069
-10.5725
-11.001
-11.4872
-12.0217
-12.5937
-13.1922
-13.8076
-14.4319
-15.0583
-15.6808
-16.2923
-16.884
-17.444
-17.9563
-18.4011
-18.7557
-18.9973
-19.107
-19.0736
-18.8948
-18.5752
-18.1247
-17.5571
-16.8879
-16.1318
-15.3016
-14.4088
-13.4649
-12.4818
-11.4743
-10.4613
-9.46571
-8.51042
-7.61395
-6.78976
-6.04669
-5.38757
-4.80946
-4.30487
-3.86309
-3.47121
-3.11497
-2.77922
-2.44871
-2.10578
-1.72883
-1.29306
-0.778169
-0.172945
0.524172
1.30842
2.17257
3.10942
4.11245
5.17669
6.29661
7.4615
8.65617
9.86414
11.0687
12.2532
13.4013
14.4963
15.5201
16.4533
17.2767
17.9783
18.5611
19.0381
19.4248
19.7377
19.9897
20.1871
20.3313
20.4205
20.4546
20.4371
20.3772
20.2895
20.1939
20.1249
20.1263
20.2232
20.4144
20.6813
20.9939
21.3169
21.6233
21.9041
22.1624
22.3999
22.6157
22.8085
22.979
23.1332
23.281
23.4309
23.5853
23.7387
23.8803
23.9978
24.0818
24.1274
24.1331
24.0995
24.0282
23.922
23.7848
23.6208
23.435
23.2325
23.0185
22.7971
22.5714
22.3442
22.1184
21.8972
21.6832
21.4766
21.2749
21.0715
20.8581
20.6324
20.415
20.2395
20.1194
20.0594
20.0635
20.127
20.2337
20.3624
20.4918
20.6064
20.6961
20.7548
20.7798
20.7728
20.7401
20.6918
20.6393
20.5939
20.5643
20.5567
20.5723
20.6074
20.652
20.6967
20.73
20.7489
20.7387
20.7089
20.6225
-0.242356
-0.495559
-0.959301
-1.53
-2.1769
-2.87128
-3.59052
-4.31434
-5.02509
-5.71016
-6.36301
-6.98398
-7.57614
-8.1377
-8.66197
-9.1414
-9.57317
-9.96072
-10.309
-10.6238
-10.9133
-11.1878
-11.4597
-11.7429
-12.0508
-12.3954
-12.7851
-13.2244
-13.7128
-14.2444
-14.8097
-15.3988
-16.0032
-16.6162
-17.2333
-17.8517
-18.4695
-19.0842
-19.6908
-20.2799
-20.8366
-21.3412
-21.7705
-22.0996
-22.3047
-22.367
-22.274
-22.0196
-21.6072
-21.0486
-20.3609
-19.5634
-18.6757
-17.7173
-16.7055
-15.656
-14.5832
-13.5017
-12.4284
-11.3823
-10.3833
-9.44848
-8.59021
-7.81629
-7.12929
-6.52653
-6.0014
-5.54515
-5.14647
-4.79225
-4.46879
-4.16048
-3.84547
-3.49188
-3.0658
-2.5446
-1.92085
-1.19856
-0.386709
0.505498
1.46999
2.49993
3.59049
4.73718
5.93017
7.15331
8.38834
9.61723
10.8232
11.9915
13.1064
14.1492
15.0995
15.9402
16.6609
17.2668
17.7733
18.1959
18.5486
18.8405
19.074
19.2454
19.3497
19.3851
19.3558
19.2743
19.1609
19.0426
18.9641
18.973
19.0879
19.3003
19.5869
19.9133
20.2404
20.5424
20.8169
21.0737
21.3176
21.5488
21.7658
21.967
22.1555
22.3401
22.5293
22.7253
22.922
23.1077
23.2692
23.3958
23.4807
23.521
23.5162
23.4675
23.3778
23.2521
23.0961
22.9159
22.7178
22.5074
22.2896
22.0676
21.8442
21.6217
21.4027
21.1889
20.9806
20.7751
20.5665
20.3485
20.122
19.9093
19.7405
19.624
19.5655
19.5715
19.6357
19.7418
19.8712
20.0055
20.1314
20.2389
20.3201
20.3687
20.3832
20.3681
20.3333
20.2911
20.2532
20.2295
20.2265
20.2456
20.2827
20.328
20.371
20.4006
20.4117
20.3915
20.344
20.2451
-0.922281
-1.15982
-1.58168
-2.10488
-2.71534
-3.39142
-4.1121
-4.8579
-5.6091
-6.35469
-7.09224
-7.82315
-8.54544
-9.25088
-9.92818
-10.5675
-11.164
-11.7147
-12.2211
-12.6894
-13.1303
-13.5573
-13.9845
-14.4241
-14.8856
-15.3753
-15.8966
-16.449
-17.028
-17.6268
-18.2386
-18.8587
-19.486
-20.1217
-20.7688
-21.4294
-22.1037
-22.7868
-23.4687
-24.133
-24.7575
-25.3162
-25.7805
-26.1207
-26.3084
-26.3203
-26.143
-25.7746
-25.2239
-24.5074
-23.6478
-22.6713
-21.6053
-20.4754
-19.3055
-18.1163
-16.9257
-15.7497
-14.6038
-13.5023
-12.4591
-11.4864
-10.5933
-9.7848
-9.06241
-8.42473
-7.86785
-7.38559
-6.96879
-6.60563
-6.28375
-5.98596
-5.68489
-5.33664
-4.8999
-4.35263
-3.69435
-2.93542
-2.0893
-1.16698
-0.176819
0.875869
1.9871
3.15353
4.36735
5.61282
6.87048
8.12197
9.35014
10.5403
11.6775
12.7443
13.7183
14.5795
15.3196
15.9461
16.4787
16.9332
17.3208
17.6463
17.9085
18.0993
18.2113
18.2421
18.197
18.094
17.9607
17.8291
17.7498
17.7705
17.9038
18.1348
18.4378
18.7749
19.1046
19.4027
19.672
19.9276
20.1771
20.4228
20.6634
20.8953
21.1178
21.3378
21.5637
21.7976
22.0332
22.2586
22.4607
22.6277
22.7511
22.8263
22.8511
22.8254
22.7527
22.6382
22.4892
22.313
22.1172
21.9088
21.6939
21.4764
21.2589
21.0429
20.8299
20.6212
20.4165
20.2136
20.0076
19.7942
19.5762
19.3736
19.2127
19.0999
19.0439
19.052
19.1153
19.2185
19.3467
19.4855
19.6236
19.7509
19.8569
19.9315
19.97
19.9748
19.9552
19.9239
19.8935
19.8743
19.8736
19.8932
19.9289
19.9714
20.0098
20.0337
20.0366
20.0076
19.948
19.8413
-1.28811
-1.49216
-1.86377
-2.34664
-2.93269
-3.60201
-4.33125
-5.10184
-5.89828
-6.71449
-7.55174
-8.40981
-9.2807
-10.1499
-11.0038
-11.8329
-12.6252
-13.3706
-14.0662
-14.7174
-15.3348
-15.9326
-16.5242
-17.1194
-17.7242
-18.342
-18.9733
-19.6163
-20.2672
-20.9234
-21.5852
-22.2569
-22.946
-23.6603
-24.4057
-25.1834
-25.9885
-26.809
-27.626
-28.4152
-29.1473
-29.7896
-30.3065
-30.6621
-30.825
-30.7729
-30.4957
-29.9948
-29.2818
-28.3784
-27.3144
-26.1239
-24.8418
-23.5026
-22.138
-20.7753
-19.4374
-18.142
-16.9034
-15.732
-14.6357
-13.6203
-12.6894
-11.8444
-11.0855
-10.4123
-9.82278
-9.31223
-8.87304
-8.49458
-8.16477
-7.86405
-7.55913
-7.19562
-6.72776
-6.13739
-5.43219
-4.62811
-3.74273
-2.78773
-1.77087
-0.696157
0.433869
1.61716
2.84744
4.1102
5.38612
6.6565
7.904
9.11416
10.2731
11.3633
12.3605
13.2443
14.006
14.6511
15.2011
15.6774
16.0892
16.438
16.7189
16.9213
17.0363
17.0609
17.0021
16.883
16.7389
16.6033
16.5273
16.5596
16.7072
16.9525
17.2673
17.6121
17.9435
18.2385
18.5031
18.7571
19.0122
19.2717
19.5346
19.7946
20.0478
20.2993
20.5582
20.8257
21.0946
21.3539
21.5913
21.7942
21.9527
22.0598
22.112
22.1074
22.0495
21.9443
21.7999
21.6252
21.4297
21.2226
21.0117
20.8019
20.5953
20.392
20.1921
19.9956
19.8019
19.6088
19.4127
19.2112
19.0072
18.8178
18.6663
18.5602
18.5093
18.5205
18.5829
18.6823
18.8081
18.9508
19.101
19.2485
19.3798
19.4814
19.5449
19.5708
19.5675
19.5476
19.5245
19.5089
19.5084
19.5258
19.5573
19.5943
19.626
19.6428
19.638
19.602
19.5353
19.4254
-1.32209
-1.49363
-1.83221
-2.29277
-2.86956
-3.54568
-4.30043
-5.11692
-5.98087
-6.88815
-7.84115
-8.83681
-9.86322
-10.9024
-11.9394
-12.9589
-13.9419
-14.8739
-15.7513
-16.5792
-17.3676
-18.1298
-18.8775
-19.6187
-20.3578
-21.0968
-21.8356
-22.5735
-23.3111
-24.0517
-24.8024
-25.5736
-26.3771
-27.222
-28.1122
-29.0439
-30.0063
-30.9814
-31.9448
-32.8672
-33.7141
-34.4465
-35.0227
-35.4027
-35.5527
-35.4492
-35.0811
-34.4507
-33.5736
-32.4776
-31.1995
-29.7814
-28.2679
-26.7023
-25.1246
-23.5695
-22.0648
-20.631
-19.2816
-18.0235
-16.8594
-15.7891
-14.8114
-13.9249
-13.1283
-12.4202
-11.7985
-11.2588
-10.794
-10.3936
-10.0444
-9.72529
-9.39787
-9.00104
-8.48686
-7.84229
-7.08256
-6.22888
-5.30073
-4.31136
-3.26702
-2.16982
-1.02107
0.178639
1.42408
2.70171
3.99354
5.28047
6.54454
7.77051
8.94604
10.0547
11.0716
11.9739
12.7506
13.408
13.9692
14.4584
14.884
15.2448
15.5347
15.7428
15.8599
15.8823
15.8178
15.6925
15.5464
15.4144
15.3447
15.385
15.5407
15.7931
16.1136
16.4616
16.7932
17.0858
17.3473
17.6019
17.8638
18.1362
18.4175
18.7003
18.9789
19.2575
19.5443
19.8396
20.1351
20.421
20.6861
20.9181
21.1051
21.2379
21.3113
21.3227
21.275
21.1749
21.0315
20.8561
20.6608
20.4574
20.2553
20.0597
19.8714
19.6888
19.5096
19.3323
19.1555
18.9775
18.7964
18.6114
18.4251
18.2514
18.1119
18.0162
17.9736
17.9894
18.052
18.1488
18.273
18.4193
18.5806
18.7466
18.9016
19.0287
19.1169
19.1646
19.1787
19.1713
19.1557
19.1431
19.1417
19.1552
19.1809
19.2109
19.2348
19.2438
19.2321
19.1909
19.1215
19.0117
-1.10897
-1.25157
-1.57341
-2.03084
-2.62046
-3.32845
-4.135
-5.02385
-5.9808
-7.00147
-8.08461
-9.22217
-10.3978
-11.5906
-12.7841
-13.9595
-15.0964
-16.1806
-17.2096
-18.1897
-19.1318
-20.0483
-20.9487
-21.8381
-22.7182
-23.5882
-24.4466
-25.2938
-26.1338
-26.9744
-27.828
-28.7098
-29.6341
-30.6109
-31.6419
-32.7203
-33.8305
-34.9502
-36.0513
-37.1003
-38.0585
-38.8813
-39.5209
-39.9312
-40.0738
-39.9234
-39.4705
-38.7213
-37.6956
-36.426
-34.9558
-33.3345
-31.6139
-29.8445
-28.0731
-26.3404
-24.6784
-23.1106
-21.6504
-20.3025
-19.0647
-17.9326
-16.9019
-15.969
-15.1313
-14.3862
-13.7296
-13.1563
-12.6587
-12.226
-11.8435
-11.4883
-11.1195
-10.6746
-10.1049
-9.40127
-8.58552
-7.68225
-6.71295
-5.69247
-4.62383
-3.50544
-2.33797
-1.12131
0.139441
1.43154
2.7377
4.03898
5.31631
6.5528
7.73534
8.84834
9.86935
10.7765
11.5589
12.223
12.7919
13.2894
13.723
14.0899
14.3841
14.5961
14.7172
14.744
14.6853
14.5675
14.4307
14.3102
14.2505
14.2953
14.4513
14.7015
15.0177
15.3609
15.6888
15.9793
16.2411
16.499
16.768
17.0507
17.3446
17.6431
17.9405
18.24
18.5481
18.864
19.1786
19.4826
19.7667
20.0185
20.2247
20.3745
20.4607
20.4806
20.4368
20.337
20.1922
20.0163
19.8243
19.6301
19.444
19.2703
19.1077
18.9518
18.7983
18.6442
18.488
18.3291
18.1672
18.0025
17.8368
17.6817
17.5576
17.476
17.4445
17.4667
17.5323
17.6299
17.755
17.9054
18.0763
18.2578
18.4327
18.5818
18.6925
18.7615
18.7939
18.8004
18.7934
18.7845
18.7825
18.792
18.8112
18.8333
18.8493
18.851
18.8336
18.7892
18.72
18.6125
-0.74263
-0.862593
-1.18378
-1.6577
-2.28207
-3.048
-3.93622
-4.92867
-6.00719
-7.15967
-8.37675
-9.64533
-10.9481
-12.2661
-13.5837
-14.8827
-16.144
-17.3552
-18.5152
-19.6309
-20.7126
-21.7704
-22.8105
-23.8341
-24.8384
-25.8193
-26.7738
-27.7038
-28.6183
-29.5322
-30.4653
-31.4373
-32.4637
-33.5519
-34.699
-35.8934
-37.1164
-38.3433
-39.545
-40.6863
-41.7247
-42.6096
-43.2879
-43.7104
-43.8383
-43.6486
-43.134
-42.3023
-41.1746
-39.7862
-38.1828
-36.4186
-34.5503
-32.6344
-30.7223
-28.8581
-27.0775
-25.4059
-23.8575
-22.4353
-21.1345
-19.948
-18.8689
-17.892
-17.0133
-16.2289
-15.5335
-14.9208
-14.3824
-13.9065
-13.4773
-13.0705
-12.646
-12.1446
-11.5191
-10.7623
-9.90027
-8.95571
-7.9501
-6.89929
-5.807
-4.6672
-3.48004
-2.24592
-0.970386
0.334698
1.65247
2.96416
4.24938
5.48927
6.66893
7.77311
8.78172
9.6765
10.4505
11.1128
11.6869
12.191
12.6296
12.9998
13.2961
13.511
13.6382
13.6769
13.6376
13.5439
13.4302
13.3292
13.282
13.3288
13.4774
13.7142
14.0139
14.3414
14.6593
14.9473
15.2122
15.4756
15.7505
16.0388
16.3387
16.645
16.954
17.2674
17.5895
17.9176
18.2428
18.5564
18.8498
19.1109
19.3258
19.482
19.5716
19.5922
19.5472
19.4454
19.3
19.1271
18.9438
18.7653
18.6016
18.4551
18.322
18.1954
18.0694
17.9404
17.8075
17.671
17.5315
17.3897
17.2476
17.1146
17.0097
16.9453
16.9276
16.9592
17.0313
17.1337
17.2632
17.4194
17.5989
17.7923
17.982
18.1483
18.2778
18.3659
18.4165
18.438
18.4417
18.4387
18.438
18.4445
18.4577
18.4724
18.4811
18.4767
18.4551
18.4094
18.3417
18.2375
-0.257098
-0.368202
-0.703291
-1.21705
-1.90361
-2.75813
-3.75972
-4.88444
-6.10527
-7.39917
-8.74798
-10.136
-11.5484
-12.9712
-14.3922
-15.7962
-17.1662
-18.4904
-19.7645
-20.9905
-22.1743
-23.3226
-24.44
-25.5273
-26.5829
-27.6054
-28.5962
-29.5624
-30.5173
-31.4784
-32.4654
-33.4957
-34.5811
-35.7253
-36.9237
-38.1645
-39.4303
-40.6976
-41.9375
-43.1129
-44.1794
-45.085
-45.7766
-46.2049
-46.3312
-46.1325
-45.601
-44.7447
-43.5841
-42.1535
-40.4996
-38.6783
-36.7491
-34.7706
-32.7959
-30.8708
-29.0329
-27.3092
-25.7144
-24.2511
-22.9133
-21.6929
-20.5812
-19.5715
-18.6585
-17.8377
-17.1036
-16.4487
-15.864
-15.3371
-14.8517
-14.3844
-13.8981
-13.3398
-12.6654
-11.8658
-10.9675
-9.99226
-8.95885
-7.88458
-6.77316
-5.6168
-4.41353
-3.16509
-1.87734
-0.562616
0.762157
2.07717
3.3612
4.59417
5.75975
6.84327
7.82765
8.69862
9.45493
10.1093
10.6824
11.1873
11.626
11.9959
12.2927
12.5112
12.6486
12.7077
12.6992
12.6424
12.5631
12.4893
12.4569
12.5022
12.6366
12.8501
13.122
13.4245
13.7268
14.0111
14.2794
14.5472
14.8247
15.1137
15.4133
15.721
16.0346
16.3548
16.6828
17.0147
17.3417
17.6553
17.9475
18.2066
18.4185
18.5706
18.6555
18.6717
18.624
18.5222
18.3807
18.2164
18.0476
17.8895
17.7512
17.6333
17.5295
17.4318
17.333
17.2301
17.1224
17.0103
16.8948
16.7776
16.6614
16.5542
16.4724
16.4278
16.4264
16.4706
16.5534
16.6653
16.8036
16.9677
17.1549
17.3564
17.5558
17.7343
17.8783
17.9826
18.0497
18.0868
18.1034
18.109
18.1122
18.1181
18.1273
18.1362
18.1391
18.1302
18.1061
18.0603
17.9946
17.8933
0.356594
0.236223
-0.127232
-0.698888
-1.47151
-2.44019
-3.5799
-4.85777
-6.2351
-7.67719
-9.15846
-10.6626
-12.1781
-13.6945
-15.2019
-16.6873
-18.1334
-19.5256
-20.8555
-22.1215
-23.3278
-24.483
-25.5955
-26.6711
-27.7128
-28.7223
-29.7029
-30.6613
-31.6091
-32.5615
-33.5363
-34.5491
-35.6118
-36.73
-37.9017
-39.1177
-40.3613
-41.6099
-42.8341
-43.9959
-45.0527
-45.9551
-46.6513
-47.0921
-47.2395
-47.0694
-46.5736
-45.7578
-44.6403
-43.2545
-41.6457
-39.8682
-37.9804
-36.0388
-34.0948
-32.1937
-30.3725
-28.6591
-27.0691
-25.6054
-24.2623
-23.0316
-21.9057
-20.8776
-19.9416
-19.0928
-18.3255
-17.6323
-17.0033
-16.4255
-15.8829
-15.3538
-14.8063
-14.1945
-13.4781
-12.6473
-11.7251
-10.7343
-9.69056
-8.60766
-7.48794
-6.32396
-5.11328
-3.85843
-2.56598
-1.24931
0.0738242
1.38211
2.65371
3.86807
5.00891
6.06223
7.01406
7.8553
8.58926
9.23057
9.79629
10.295
10.7279
11.0938
11.3905
11.616
11.7702
11.8573
11.8864
11.8722
11.8334
11.7919
11.7762
11.8194
11.9358
12.1204
12.359
12.6317
12.9151
13.192
13.4596
13.7273
14.0024
14.2867
14.5803
14.8833
15.1947
15.5137
15.8389
16.1651
16.484
16.7877
17.0679
17.3136
17.5121
17.6521
17.7276
17.7385
17.6905
17.5936
17.4621
17.3125
17.1623
17.0268
16.914
16.8231
16.7464
16.675
16.6019
16.524
16.4408
16.3529
16.2619
16.1707
16.083
16.0047
15.9489
15.9269
15.9442
16.0041
16.1012
16.227
16.3776
16.5516
16.7456
16.9522
17.1571
17.3433
17.498
17.6159
17.6983
17.7508
17.7812
17.7977
17.8077
17.8162
17.8244
17.8301
17.8295
17.8179
17.7928
17.7473
17.6833
17.5835
1.13216
0.989593
0.583307
-0.0584865
-0.931904
-2.02975
-3.32097
-4.7629
-6.30527
-7.90245
-9.5223
-11.1461
-12.7625
-14.3629
-15.9363
-17.467
-18.9359
-20.328
-21.6342
-22.8535
-23.9937
-25.0698
-26.0983
-27.0903
-28.05
-28.9783
-29.8765
-30.7494
-31.6081
-32.4697
-33.3534
-34.2778
-35.2556
-36.2931
-37.3903
-38.5368
-39.7163
-40.9067
-42.079
-43.1984
-44.2238
-45.1095
-45.8076
-46.2723
-46.4668
-46.3664
-45.96
-45.2506
-44.2544
-43.0012
-41.5317
-39.8959
-38.1466
-36.3357
-34.5109
-32.7145
-30.9823
-29.342
-27.8104
-26.3917
-25.0805
-23.869
-22.7502
-21.7192
-20.7719
-19.9046
-19.1125
-18.3885
-17.7226
-17.1014
-16.5089
-15.925
-15.3235
-14.668
-13.9224
-13.076
-12.1463
-11.1561
-10.1193
-9.0434
-7.92846
-6.76859
-5.56234
-4.313
-3.02829
-1.72233
-0.414296
0.873821
2.11998
3.30433
4.4111
5.4274
6.34262
7.1524
7.86314
8.48883
9.04244
9.5298
9.95261
10.3123
10.6096
10.8456
11.0216
11.1408
11.2098
11.2391
11.2429
11.2368
11.2416
11.2844
11.3833
11.5395
11.7452
11.9874
12.2478
12.5103
12.7693
13.0293
13.2949
13.5679
13.8495
14.1412
14.4425
14.7509
15.0629
15.3731
15.6742
15.9581
16.2168
16.4404
16.6185
16.7424
16.8077
16.8154
16.7711
16.6847
16.5686
16.438
16.3099
16.1986
16.1103
16.0431
15.9892
15.9395
15.8878
15.8314
15.7699
15.7047
15.6382
15.5741
15.5166
15.4697
15.4427
15.4458
15.4846
15.5627
15.6767
15.819
15.9843
16.1693
16.3694
16.5784
16.7851
16.9756
17.1388
17.2689
17.366
17.4339
17.4788
17.5078
17.5271
17.5413
17.5518
17.5572
17.5556
17.543
17.5177
17.4724
17.4087
17.3083
2.09881
1.92181
1.46219
0.742533
-0.238863
-1.47305
-2.92345
-4.53787
-6.25347
-8.01203
-9.77174
-11.5096
-13.2123
-14.8676
-16.4591
-17.9699
-19.3851
-20.6929
-21.8867
-22.9678
-23.946
-24.8421
-25.6798
-26.4775
-27.2457
-27.9913
-28.7202
-29.4397
-30.1625
-30.9023
-31.6759
-32.4973
-33.3764
-34.3178
-35.3206
-36.3761
-37.4705
-38.5831
-39.6878
-40.753
-41.7415
-42.6116
-43.32
-43.8256
-44.0937
-44.1001
-43.8321
-43.2899
-42.4853
-41.442
-40.1941
-38.783
-37.2537
-35.6515
-34.0191
-32.3953
-30.8142
-29.3032
-27.8797
-26.5496
-25.3087
-24.1496
-23.066
-22.054
-21.112
-20.2387
-19.4319
-18.6867
-17.9939
-17.3401
-16.7088
-16.0811
-15.436
-14.7478
-13.9874
-13.1419
-12.2227
-11.2504
-10.2361
-9.18174
-8.08562
-6.94422
-5.75707
-4.52842
-3.26781
-1.9905
-0.715693
0.535282
1.74137
2.88419
3.94897
4.92398
5.8018
6.58213
7.27212
7.88255
8.42233
8.89627
9.30821
9.66276
9.96355
10.2127
10.4119
10.5635
10.6717
10.744
10.7908
10.8227
10.8522
10.8994
10.9846
11.115
11.2888
11.4981
11.7292
11.9687
12.2097
12.4528
12.7007
12.9552
13.218
13.4904
13.7717
14.0582
14.3459
14.6298
14.9037
15.1601
15.3909
15.5877
15.7429
15.8502
15.9069
15.9141
15.8774
15.8056
15.7096
15.6027
15.5001
15.4132
15.3467
15.2984
15.2614
15.2279
15.1925
15.1531
15.11
15.0657
15.0236
14.9879
14.962
14.9488
14.9541
14.9861
15.0503
15.15
15.2835
15.444
15.6247
15.8202
16.0255
16.2348
16.4403
16.632
16.8012
16.9422
17.0537
17.1378
17.1987
17.2416
17.2721
17.2941
17.3097
17.3179
17.3176
17.3053
17.2801
17.234
17.1688
17.0653
3.12103
2.89569
2.38208
1.58668
0.504888
-0.853995
-2.44834
-4.2148
-6.07703
-7.96266
-9.81632
-11.6042
-13.3077
-14.9125
-16.4058
-17.7775
-19.0189
-20.1207
-21.0821
-21.9123
-22.626
-23.2485
-23.8178
-24.3647
-24.9083
-25.459
-26.0228
-26.6067
-27.2196
-27.8706
-28.5701
-29.3263
-30.1441
-31.0247
-31.9651
-32.957
-33.988
-35.0401
-36.0907
-37.1118
-38.0711
-38.9323
-39.6584
-40.2134
-40.5673
-40.6972
-40.5897
-40.2416
-39.6595
-38.8606
-37.8706
-36.7215
-35.4501
-34.095
-32.6933
-31.2797
-29.8855
-28.5373
-27.2534
-26.0415
-24.8992
-23.82
-22.7977
-21.8292
-20.9143
-20.0548
-19.2507
-18.4991
-17.7924
-17.1186
-16.4616
-15.8045
-15.1313
-14.4251
-13.6659
-12.8389
-11.9476
-11.007
-10.0258
-9.0042
-7.94002
-6.83123
-5.67854
-4.48792
-3.27058
-2.04189
-0.819697
0.37698
1.5296
2.62149
3.63879
4.5716