/*--------------------------------*- C++ -*----------------------------------*\
| =========                 |                                                 |
| \\      /  F ield         | OpenFOAM: The Open Source CFD Toolbox           |
|  \\    /   O peration     | Version:  2112                                  |
|   \\  /    A nd           | Website:  www.openfoam.com                      |
|    \\/     M anipulation  |                                                 |
\*---------------------------------------------------------------------------*/
FoamFile
{
    version     2.0;
    format      ascii;
    arch        "LSB;label=32;scalar=64";
    class       volScalarField;
    location    "0.11";
    object      ddt0(kU);
}
// * * * * * * * * * * * * * * * * * * * * * * * * * * * * * * * * * * * * * //

dimensions      [0 2 -3 0 0 0 0];

internalField   nonuniform List<scalar> 
12225
(
-2.90575e-07
2.19234e-06
1.54763e-05
5.1716e-05
0.000126787
0.000262719
0.000493903
0.000891414
0.00159746
0.00287973
0.00517941
0.00916932
0.0156981
0.0213362
0.0288098
0.0485172
0.0735139
0.0954833
-3.09007e-06
-1.77968e-05
-5.49892e-05
-0.000131751
-0.000274781
-0.000522896
-0.000924063
-0.0015315
-0.00239852
-0.00357714
-0.00509267
-0.00695497
-0.00930897
-0.00978547
-0.0108902
-0.0199416
-0.0320978
-0.0741477
7.92215e-08
-1.90702e-06
-8.24162e-06
-2.11279e-05
-4.80191e-05
-9.79219e-05
-0.000183215
-0.000321336
-0.000534624
-0.000852286
-0.00131372
-0.00198189
-0.0029683
-0.00430826
-0.00628664
-0.00992852
-0.0161783
-0.032067
4.33942e-08
1.76718e-07
-2.98916e-07
-1.96444e-06
-5.86237e-06
-1.32747e-05
-2.60844e-05
-4.68677e-05
-7.95574e-05
-0.000129833
-0.000205829
-0.000322245
-0.000504295
-0.000791503
-0.00125825
-0.00208612
-0.00356036
-0.00662719
-7.20069e-09
3.86849e-07
1.01037e-06
1.65407e-06
2.11003e-06
2.10214e-06
1.26836e-06
-7.71899e-07
-4.60031e-06
-1.10651e-05
-2.17635e-05
-3.81468e-05
-6.34938e-05
-0.000103407
-0.000168284
-0.000281436
-0.000484554
-0.000878087
-4.21131e-08
2.76482e-07
8.33788e-07
1.49945e-06
2.25738e-06
3.07941e-06
3.90625e-06
4.70348e-06
5.43705e-06
6.02671e-06
6.26565e-06
6.02953e-06
5.0108e-06
2.66638e-06
-2.1131e-06
-1.18728e-05
-3.13889e-05
-7.12913e-05
-7.02054e-08
1.6195e-07
6.40506e-07
1.27191e-06
2.0561e-06
2.99589e-06
4.06872e-06
5.27029e-06
6.61316e-06
8.09524e-06
9.69453e-06
1.13892e-05
1.31552e-05
1.49573e-05
1.67242e-05
1.82576e-05
1.9128e-05
1.80513e-05
-8.90149e-08
7.46412e-08
4.82992e-07
1.05517e-06
1.77451e-06
2.6447e-06
3.65387e-06
4.79976e-06
6.09792e-06
7.5624e-06
9.20034e-06
1.10264e-05
1.30725e-05
1.53877e-05
1.80249e-05
2.10027e-05
2.42671e-05
2.75547e-05
-1.00303e-07
6.32866e-09
3.42215e-07
8.44041e-07
1.48893e-06
2.28348e-06
3.22495e-06
4.31082e-06
5.55116e-06
6.9591e-06
8.54378e-06
1.03181e-05
1.23073e-05
1.4548e-05
1.70808e-05
1.99302e-05
2.30986e-05
2.65035e-05
-1.0593e-07
-4.5666e-08
2.21447e-07
6.53358e-07
1.22634e-06
1.94545e-06
2.81181e-06
3.82205e-06
4.98052e-06
6.29674e-06
7.7792e-06
9.43855e-06
1.12945e-05
1.33773e-05
1.57254e-05
1.83753e-05
2.13608e-05
2.4672e-05
-1.071e-07
-8.23622e-08
1.23458e-07
4.87602e-07
9.88582e-07
1.62858e-06
2.41098e-06
3.33393e-06
4.39919e-06
5.61371e-06
6.98544e-06
8.52417e-06
1.02465e-05
1.21785e-05
1.43553e-05
1.68147e-05
1.95982e-05
2.27195e-05
-1.05103e-07
-1.05323e-07
5.06032e-08
3.54478e-07
7.89057e-07
1.35454e-06
2.05529e-06
2.89108e-06
3.86246e-06
4.97411e-06
6.23294e-06
7.64795e-06
9.23378e-06
1.10133e-05
1.30185e-05
1.52851e-05
1.78546e-05
2.07486e-05
-1.00717e-07
-1.18458e-07
-4.34154e-09
2.4407e-07
6.15108e-07
1.10816e-06
1.7276e-06
2.47448e-06
3.34909e-06
4.35469e-06
5.49734e-06
6.78568e-06
8.23321e-06
9.86059e-06
1.16965e-05
1.3774e-05
1.61307e-05
1.87896e-05
-9.3026e-08
-1.23008e-07
-4.72054e-08
1.4419e-07
4.45951e-07
8.57704e-07
1.38345e-06
2.02552e-06
2.7848e-06
3.66381e-06
4.66785e-06
5.80511e-06
7.08804e-06
8.53479e-06
1.01699e-05
1.20212e-05
1.41196e-05
1.64856e-05
-8.15104e-08
-1.17829e-07
-7.43675e-08
6.24346e-08
2.931e-07
6.17518e-07
1.039e-06
1.56092e-06
2.18525e-06
2.91455e-06
3.75357e-06
4.70987e-06
5.79454e-06
7.02286e-06
8.41455e-06
9.99144e-06
1.17765e-05
1.37867e-05
-6.54462e-08
-1.01832e-07
-8.41203e-08
1.10065e-09
1.59997e-07
3.92636e-07
7.01199e-07
1.0893e-06
1.55976e-06
2.11531e-06
2.76029e-06
3.50143e-06
4.34811e-06
5.3125e-06
6.40929e-06
7.65482e-06
9.06463e-06
1.06516e-05
-4.36064e-08
-7.09174e-08
-6.72965e-08
-2.29868e-08
6.67917e-08
2.0411e-07
3.90864e-07
6.31163e-07
9.28417e-07
1.28533e-06
1.70561e-06
2.19493e-06
2.76083e-06
3.41263e-06
4.16022e-06
5.01395e-06
5.9762e-06
7.06387e-06
-1.69948e-08
-2.89754e-08
-3.31859e-08
-2.57582e-08
-1.88096e-09
4.21435e-08
1.02208e-07
1.82094e-07
2.85784e-07
4.16056e-07
5.75944e-07
7.69677e-07
1.0028e-06
1.28179e-06
1.61437e-06
2.00798e-06
2.47353e-06
3.01417e-06
1.51933e-08
2.30028e-08
1.82973e-08
-2.54431e-09
-4.21005e-08
-1.00314e-07
-1.71727e-07
-2.5731e-07
-3.57042e-07
-4.68685e-07
-5.89011e-07
-7.14293e-07
-8.40062e-07
-9.6097e-07
-1.07113e-06
-1.1642e-06
-1.23513e-06
-1.27632e-06
4.12491e-08
6.31267e-08
4.9171e-08
-8.34254e-09
-1.10319e-07
-2.57041e-07
-4.48465e-07
-6.85449e-07
-9.67626e-07
-1.29331e-06
-1.66034e-06
-2.06605e-06
-2.50672e-06
-2.97734e-06
-3.47197e-06
-3.98385e-06
-4.50707e-06
-5.03316e-06
5.86369e-08
8.42023e-08
5.16948e-08
-4.69448e-08
-2.11468e-07
-4.40211e-07
-7.33648e-07
-1.09185e-06
-1.5135e-06
-1.99712e-06
-2.5415e-06
-3.14471e-06
-3.80324e-06
-4.51178e-06
-5.26372e-06
-6.05142e-06
-6.86759e-06
-7.70301e-06
6.9321e-08
8.66167e-08
2.0946e-08
-1.29362e-07
-3.57049e-07
-6.61605e-07
-1.04614e-06
-1.5112e-06
-2.05572e-06
-2.67973e-06
-3.38389e-06
-4.16717e-06
-5.02551e-06
-5.95195e-06
-6.93745e-06
-7.9712e-06
-9.04215e-06
-1.01363e-05
7.41294e-08
7.09074e-08
-4.21268e-08
-2.53234e-07
-5.4713e-07
-9.22737e-07
-1.38156e-06
-1.92137e-06
-2.54129e-06
-3.24495e-06
-4.03719e-06
-4.91978e-06
-5.88996e-06
-6.94123e-06
-8.06463e-06
-9.24945e-06
-1.04843e-05
-1.17593e-05
7.24852e-08
3.48988e-08
-1.36009e-07
-4.13708e-07
-7.86897e-07
-1.26156e-06
-1.8366e-06
-2.50371e-06
-3.26017e-06
-4.11138e-06
-5.06303e-06
-6.11419e-06
-7.25632e-06
-8.47518e-06
-9.75271e-06
-1.10674e-05
-1.23975e-05
-1.37125e-05
6.22743e-08
-2.94919e-08
-2.59718e-07
-5.64726e-07
-9.34617e-07
-1.38592e-06
-1.92041e-06
-2.53148e-06
-3.22346e-06
-4.01225e-06
-4.9117e-06
-5.9249e-06
-7.04475e-06
-8.2572e-06
-9.54429e-06
-1.08852e-05
-1.22544e-05
-1.36301e-05
4.42893e-08
-1.36151e-07
-5.13826e-07
-1.00066e-06
-1.56303e-06
-2.18177e-06
-2.81546e-06
-3.41693e-06
-3.95036e-06
-4.37402e-06
-4.61097e-06
-4.61479e-06
-4.29736e-06
-3.52315e-06
-2.1422e-06
6.6484e-09
3.08652e-06
7.27996e-06
2.15822e-08
-9.50519e-08
-1.85421e-07
-1.36796e-07
1.64825e-07
8.31958e-07
2.13104e-06
4.35067e-06
7.84787e-06
1.3142e-05
2.09341e-05
3.1702e-05
4.62432e-05
6.56019e-05
9.08572e-05
0.000123169
0.000163809
0.000214139
-1.46517e-07
2.17786e-07
1.71372e-06
5.09552e-06
1.14022e-05
2.03793e-05
3.5186e-05
5.86533e-05
9.46371e-05
0.000148063
0.000224676
0.000331387
0.000475208
0.000663
0.000901571
0.00119784
0.00155929
0.00199468
1.52156e-06
8.68987e-06
2.57443e-05
5.78616e-05
0.000112145
0.000198405
0.000329187
0.000519935
0.000788606
0.00115593
0.00164394
0.00227475
0.00306876
0.00404298
0.00520973
0.00657653
0.00814401
0.00990599
3.17176e-07
-4.08665e-07
-5.35073e-06
-1.91088e-05
-4.65715e-05
-9.28059e-05
-0.000163687
-0.000265924
-0.000406508
-0.000571608
-0.000776238
-0.00103983
-0.00138861
-0.00186271
-0.0025228
-0.0034564
-0.00478381
-0.00667628
-0.126834
-0.0804533
0.0806943
0.443013
1.23368
2.78514
5.0951
7.59871
9.63944
11.0162
11.7857
12.0297
11.8392
11.3139
10.544
9.60028
8.53437
7.38348
6.1749
4.92924
3.66229
2.38613
1.1097
-0.161008
-1.4228
-2.67518
-3.91986
-5.16006
-6.39943
-7.641
-8.88711
-10.1399
-11.4014
-12.6737
-13.9597
-15.2618
-16.5815
-17.919
-19.2732
-20.6423
-22.0237
-23.4144
-24.8109
-26.2096
-27.607
-28.9996
-30.3845
-31.7587
-33.1194
-34.4642
-35.7912
-37.0993
-38.3872
-39.6542
-40.9004
-42.127
-43.3367
-44.534
-45.7291
-46.9262
-48.1166
-49.2973
-50.4697
-51.6361
-52.8002
-53.9657
-55.1367
-56.3176
-57.5122
-58.7247
-59.9582
-61.2155
-62.4988
-63.8093
-65.1478
-66.5148
-67.9104
-69.3354
-70.7907
-72.2759
-73.7899
-75.3311
-76.898
-78.4895
-80.1049
-81.7436
-83.4054
-85.0904
-86.799
-88.5334
-90.2984
-92.1038
-93.9377
-95.7785
-97.621
-99.4642
-101.309
-103.156
-105.011
-106.879
-108.769
-110.678
-112.585
-114.087
-115.485
-116.827
-118.116
-119.358
-120.552
-121.698
-122.795
-123.838
-124.823
-125.746
-126.599
-127.379
-128.08
-128.703
-129.251
-129.741
-130.204
-130.665
-131.032
-131.284
-131.407
-131.387
-131.206
-130.844
-130.281
-129.501
-128.485
-127.214
-125.667
-123.819
-121.645
-119.123
-116.226
-112.932
-109.215
-105.055
-100.431
-95.3238
-89.7172
-83.5942
-76.9411
-69.7482
-62.0102
-53.727
-44.9026
-35.5471
-25.6796
-15.3296
-4.54947
6.57834
17.9307
29.3305
40.5293
51.2037
60.9554
69.3129
75.7081
79.4824
79.8134
75.4846
64.8877
43.9992
17.6897
-62.4897
-148.703
-208.113
-228.35
-265.063
-301.271
-340.573
-382.626
-426.782
-472.336
-518.202
-565.404
-611.699
-0.150288
-0.14717
-0.0462984
0.242375
0.941137
2.32797
4.42747
6.7328
8.59024
9.75945
10.3241
10.4222
10.1606
9.61915
8.86168
7.94078
6.89974
5.77381
4.59147
3.37574
2.1451
0.914123
-0.306116
-1.5078
-2.68611
-3.83887
-4.96619
-6.06988
-7.15255
-8.2169
-9.26542
-10.3008
-11.3261
-12.3441
-13.3572
-14.3668
-15.3737
-16.3775
-17.3771
-18.3711
-19.3575
-20.3342
-21.299
-22.2498
-23.1845
-24.101
-24.9977
-25.873
-26.7261
-27.5563
-28.3635
-29.1479
-29.9101
-30.651
-31.3715
-32.0727
-32.7555
-33.4192
-34.0605
-34.6833
-35.2986
-35.91
-36.5202
-37.1317
-37.7474
-38.3698
-39.001
-39.643
-40.2971
-40.9641
-41.6446
-42.3387
-43.0461
-43.7665
-44.4991
-45.2433
-45.9981
-46.7623
-47.5343
-48.3127
-49.0961
-49.8833
-50.6729
-51.4637
-52.2547
-53.0448
-53.8333
-54.6196
-55.4032
-56.1836
-56.9595
-57.7289
-58.4888
-59.2377
-59.9759
-60.706
-61.4316
-62.1565
-62.8829
-63.6097
-64.3267
-65.004
-65.3043
-65.6913
-66.0391
-66.3429
-66.6009
-66.8108
-66.9705
-67.0769
-67.1266
-67.1156
-67.0397
-66.8949
-66.6775
-66.3838
-66.0098
-65.5501
-64.9951
-64.3258
-63.5071
-62.5046
-61.3943
-60.176
-58.8471
-57.4067
-55.8567
-54.2006
-52.4414
-50.5818
-48.625
-46.5748
-44.4368
-42.217
-39.9241
-37.5687
-35.1619
-32.714
-30.236
-27.7382
-25.2293
-22.7161
-20.2041
-17.6982
-15.2015
-12.716
-10.2423
-7.78075
-5.33132
-2.89503
-0.477594
1.90901
4.24696
6.51218
8.67404
10.6937
12.5247
14.1115
15.39
16.2719
16.6429
16.3297
15.0355
12.1995
6.80015
-3.57274
-25.7232
-63.3131
-88.9012
-100.017
-89.1544
-88.4666
-92.7611
-100.591
-111.883
-126.768
-145.375
-167.78
-194.727
-227.839
-0.104444
-0.154466
-0.0937017
0.144055
0.760654
2.00837
3.91926
6.04571
7.77338
8.84152
9.31465
9.33575
9.02196
8.45614
7.69874
6.7969
5.78911
4.70742
3.57863
2.42508
1.26517
0.113653
-1.01819
-2.12236
-3.19389
-4.23083
-5.23372
-6.20463
-7.1465
-8.06258
-8.95597
-9.82975
-10.6868
-11.5294
-12.3588
-13.1755
-13.9794
-14.7694
-15.5444
-16.3025
-17.0421
-17.7614
-18.4587
-19.1326
-19.7816
-20.405
-21.0021
-21.5728
-22.1174
-22.6362
-23.1296
-23.5985
-24.0442
-24.4684
-24.8729
-25.2596
-25.6303
-25.9872
-26.3327
-26.6711
-27.0068
-27.3427
-27.6809
-28.0233
-28.3715
-28.7269
-29.0901
-29.4614
-29.8408
-30.2276
-30.6214
-31.0212
-31.4263
-31.8357
-32.2487
-32.6642
-33.0809
-33.4967
-33.9096
-34.3179
-34.7203
-35.1157
-35.5029
-35.8808
-36.248
-36.6031
-36.9447
-37.2715
-37.5816
-37.8725
-38.14
-38.3775
-38.5903
-38.7891
-38.9771
-39.1576
-39.3334
-39.5057
-39.6719
-39.8214
-39.932
-39.7204
-39.645
-39.5875
-39.5089
-39.3977
-39.2505
-39.0649
-38.8387
-38.5694
-38.2548
-37.8932
-37.4831
-37.0234
-36.5137
-35.9534
-35.3423
-34.68
-33.9652
-33.1957
-32.3716
-31.5005
-30.5973
-29.6685
-28.7208
-27.7622
-26.8019
-25.85
-24.9155
-24.0068
-23.1321
-22.3004
-21.5195
-20.7967
-20.1385
-19.5499
-19.0342
-18.5924
-18.2229
-17.9209
-17.6792
-17.4889
-17.3399
-17.2216
-17.1229
-17.0327
-16.9395
-16.8324
-16.702
-16.5413
-16.3473
-16.1193
-15.8588
-15.5683
-15.2516
-14.9153
-14.5652
-14.217
-13.8914
-13.6399
-13.4982
-13.6156
-14.2199
-15.3974
-17.5156
-21.0321
-27.7375
-34.3259
-35.6034
-31.3809
-22.4624
-17.1047
-14.1149
-13.0111
-14.0659
-17.627
-24.0882
-33.8424
-47.7862
-67.0755
-0.0502096
-0.153349
-0.117391
0.0927172
0.656021
1.79982
3.55532
5.52336
7.13723
8.13251
8.55218
8.53097
8.18859
7.61153
6.86126
5.98341
5.01379
3.98172
2.9118
1.82483
0.738222
-0.333937
-1.38083
-2.39502
-3.37233
-4.31133
-5.21286
-6.07931
-6.91382
-7.71949
-8.4993
-9.25604
-9.99189
-10.7082
-11.4054
-12.0831
-12.7406
-13.3765
-13.9893
-14.5772
-15.1386
-15.6719
-16.1759
-16.6494
-17.0919
-17.5029
-17.8825
-18.2312
-18.5499
-18.8396
-19.102
-19.339
-19.5528
-19.7462
-19.9217
-20.0822
-20.2305
-20.3695
-20.5024
-20.6321
-20.7612
-20.8916
-21.0249
-21.1622
-21.3041
-21.451
-21.6029
-21.7594
-21.9202
-22.0846
-22.252
-22.4216
-22.5928
-22.7644
-22.9357
-23.1052
-23.2718
-23.4337
-23.5896
-23.7381
-23.8779
-24.008
-24.1274
-24.2351
-24.3304
-24.4126
-24.4811
-24.5355
-24.5754
-24.6005
-24.6105
-24.6054
-24.5933
-24.5834
-24.5786
-24.5797
-24.5852
-24.589
-24.5773
-24.5293
-24.3096
-24.2492
-24.2315
-24.2248
-24.2126
-24.1877
-24.1477
-24.0919
-24.0202
-23.9328
-23.8308
-23.7153
-23.5883
-23.4515
-23.3071
-23.157
-23.0036
-22.8492
-22.6968
-22.5501
-22.414
-22.2941
-22.1963
-22.1254
-22.0862
-22.0838
-22.1229
-22.2077
-22.3418
-22.5279
-22.7678
-23.0625
-23.4111
-23.8118
-24.2614
-24.7556
-25.2886
-25.8531
-26.4402
-27.04
-27.642
-28.2353
-28.8081
-29.3484
-29.8454
-30.2883
-30.6656
-30.965
-31.1739
-31.2803
-31.2739
-31.1461
-30.8904
-30.4984
-29.9585
-29.2556
-28.3515
-27.2332
-25.8969
-24.4038
-22.6236
-20.6496
-18.7207
-16.437
-13.2355
-9.58611
-6.08331
-2.85205
2.63816
10.4809
17.8416
23.0121
27.4143
30.9418
33.1498
33.7306
32.4113
28.9443
22.7523
13.0807
0.0146902
-0.150892
-0.13777
0.0521688
0.574246
1.63184
3.25338
5.08359
6.60233
7.55605
7.95724
7.91552
7.55972
6.98022
6.24166
5.38975
4.45864
3.47535
2.46221
1.43816
0.419141
-0.581844
-1.55491
-2.4932
-3.39283
-4.25266
-5.07394
-5.85922
-6.61141
-7.33319
-8.0269
-8.69467
-9.33803
-9.95762
-10.5533
-11.1241
-11.669
-12.1864
-12.6746
-13.1321
-13.5574
-13.9494
-14.3071
-14.6302
-14.9185
-15.1725
-15.3931
-15.5816
-15.7397
-15.8696
-15.9736
-16.0544
-16.115
-16.1583
-16.1873
-16.205
-16.2142
-16.2178
-16.2183
-16.2179
-16.2183
-16.2209
-16.2267
-16.2363
-16.2499
-16.2675
-16.289
-16.3138
-16.3416
-16.3717
-16.4037
-16.4371
-16.4714
-16.5058
-16.54
-16.573
-16.6041
-16.6325
-16.6573
-16.6777
-16.693
-16.7029
-16.707
-16.7055
-16.6989
-16.6881
-16.6748
-16.661
-16.6496
-16.6437
-16.6471
-16.6636
-16.7003
-16.7633
-16.853
-16.9666
-17.0984
-17.2429
-17.3763
-17.5124
-17.7327
-17.9932
-18.2742
-18.5657
-18.861
-19.1565
-19.451
-19.7443
-20.0369
-20.33
-20.625
-20.9241
-21.2295
-21.5439
-21.8699
-22.2099
-22.5657
-22.9388
-23.3305
-23.7419
-24.1738
-24.6273
-25.1032
-25.6026
-26.1266
-26.6761
-27.2518
-27.8538
-28.4817
-29.1346
-29.8111
-30.5087
-31.2241
-31.9525
-32.6882
-33.4249
-34.1555
-34.8723
-35.5667
-36.2291
-36.8495
-37.417
-37.9194
-38.3429
-38.6748
-38.9006
-39.0039
-38.965
-38.7622
-38.3707
-37.7648
-36.9155
-35.806
-34.4252
-32.7651
-30.8243
-28.5098
-25.7743
-22.6101
-19.2551
-15.4296
-11.0879
-6.31901
-1.39535
4.96073
11.8924
19.2004
25.782
33.1465
42.1235
52.1842
58.0263
62.2459
65.1836
66.7521
66.9079
65.6481
63.0401
58.9602
53.271
0.0876581
-0.150906
-0.160552
0.0139621
0.502328
1.48424
2.98419
4.68676
6.11842
7.02735
7.43014
7.41032
7.05387
6.4715
5.7467
4.92259
4.03079
3.0957
2.13727
1.17241
0.215492
-0.72159
-1.62958
-2.50203
-3.3355
-4.12927
-4.88452
-5.60346
-6.28856
-6.94197
-7.56547
-8.16065
-8.72847
-9.26901
-9.78169
-10.2654
-10.7189
-11.1407
-11.5293
-11.8833
-12.202
-12.4845
-12.7308
-12.9411
-13.1164
-13.2579
-13.3673
-13.4469
-13.4993
-13.5271
-13.5335
-13.5216
-13.4946
-13.4557
-13.4079
-13.3541
-13.2971
-13.2391
-13.1822
-13.1281
-13.0779
-13.0324
-12.9921
-12.9571
-12.927
-12.9015
-12.8801
-12.862
-12.8468
-12.8339
-12.8232
-12.8146
-12.808
-12.8037
-12.8017
-12.8019
-12.8043
-12.8085
-12.8143
-12.8215
-12.8301
-12.8403
-12.8525
-12.8679
-12.8881
-12.9157
-12.9539
-13.0073
-13.0809
-13.1806
-13.3125
-13.482
-13.6949
-13.9543
-14.2577
-14.5963
-14.9546
-15.4244
-15.9535
-16.4742
-17.015
-17.572
-18.1405
-18.716
-19.2952
-19.8758
-20.457
-21.0385
-21.6208
-22.2047
-22.7911
-23.3817
-23.9785
-24.5841
-25.201
-25.831
-26.4749
-27.1325
-27.8027
-28.4841
-29.1748
-29.8731
-30.5774
-31.2867
-31.9998
-32.7158
-33.4334
-34.1516
-34.8686
-35.5822
-36.2897
-36.9878
-37.6725
-38.3386
-38.9799
-39.589
-40.1584
-40.6795
-41.1426
-41.5365
-41.8502
-42.072
-42.1888
-42.1845
-42.0437
-41.7441
-41.2663
-40.5861
-39.6762
-38.507
-37.0524
-35.2568
-33.0887
-30.5399
-27.6098
-24.3733
-20.7344
-16.5387
-11.6947
-6.44345
-1.01585
4.91261
11.4778
18.4422
26.9047
35.6032
46.0937
58.2734
67.4915
75.8975
82.8185
87.7481
90.9031
92.4391
92.4087
90.9304
88.1685
84.371
79.6548
74.2367
0.163874
-0.156212
-0.189269
-0.0271763
0.432523
1.34642
2.73553
4.32171
5.67803
6.55444
6.94241
6.92322
6.58974
6.03164
5.32799
4.5347
3.68355
2.79669
1.89166
0.983375
0.0847352
-0.793357
-1.64225
-2.45599
-3.23148
-3.96794
-4.66628
-5.32828
-5.95583
-6.55054
-7.11385
-7.64689
-8.15012
-8.62332
-9.06577
-9.4764
-9.85397
-10.1973
-10.5053
-10.7773
-11.0129
-11.2122
-11.3761
-11.5057
-11.6027
-11.6693
-11.7082
-11.7224
-11.715
-11.6894
-11.6491
-11.5977
-11.5385
-11.4746
-11.4091
-11.3446
-11.2832
-11.2268
-11.1767
-11.134
-11.0991
-11.0719
-11.052
-11.0389
-11.0314
-11.0285
-11.029
-11.032
-11.0366
-11.0424
-11.0494
-11.0579
-11.0687
-11.0828
-11.1009
-11.1236
-11.1512
-11.1838
-11.2216
-11.2648
-11.3136
-11.3687
-11.4311
-11.5022
-11.5846
-11.6815
-11.7976
-11.9387
-12.1118
-12.3247
-12.5849
-12.899
-13.2713
-13.7023
-14.1894
-14.7317
-15.4765
-16.2061
-16.9268
-17.6498
-18.3833
-19.1276
-19.8801
-20.6371
-21.3957
-22.1535
-22.9094
-23.6626
-24.4132
-25.1616
-25.9078
-26.6523
-27.3965
-28.1428
-28.894
-29.652
-30.4169
-31.1875
-31.9613
-32.7352
-33.5055
-34.2689
-35.0225
-35.7635
-36.4894
-37.1978
-37.8865
-38.5535
-39.1963
-39.8116
-40.3959
-40.9451
-41.4548
-41.92
-42.3341
-42.6891
-42.9761
-43.1848
-43.304
-43.3209
-43.2229
-42.9978
-42.6339
-42.1179
-41.4397
-40.5638
-39.471
-38.135
-36.5205
-34.5882
-32.3373
-29.6919
-26.6059
-23.0669
-19.0358
-14.5359
-9.78784
-4.45062
1.43264
7.7761
14.6869
22.149
30.4862
39.4296
52.991
65.1852
76.4561
87.0223
96.467
104.388
110.247
113.661
114.966
114.421
112.217
108.592
103.818
98.2274
92.029
85.5533
0.23922
-0.168106
-0.225077
-0.073384
0.361152
1.21265
2.49852
3.97428
5.25648
6.10058
6.47718
6.45911
6.1406
5.61145
4.94445
4.19164
3.38616
2.54985
1.69885
0.846489
0.00436075
-0.817511
-1.61105
-2.37071
-3.09345
-3.77829
-4.42569
-5.03682
-5.61304
-6.15566
-6.66576
-7.14409
-7.59086
-8.00576
-8.38811
-8.73703
-9.05161
-9.33112
-9.57509
-9.78348
-9.95676
-10.0959
-10.2026
-10.2788
-10.3272
-10.3508
-10.3529
-10.3371
-10.3071
-10.2669
-10.2201
-10.1704
-10.1211
-10.0753
-10.0353
-10.0033
-9.98059
-9.9683
-9.96688
-9.9763
-9.99601
-10.025
-10.0617
-10.1045
-10.1515
-10.2007
-10.2504
-10.299
-10.3451
-10.3883
-10.4284
-10.4665
-10.5041
-10.5431
-10.5851
-10.6312
-10.6819
-10.7377
-10.7988
-10.8658
-10.9395
-11.0207
-11.1109
-11.212
-11.3267
-11.4591
-11.6146
-11.8
-12.0239
-12.2955
-12.6238
-13.0166
-13.4798
-14.0182
-14.6358
-15.4781
-16.2817
-17.0826
-17.8848
-18.6971
-19.5231
-20.3623
-21.2116
-22.0673
-22.9255
-23.7831
-24.6377
-25.4879
-26.3334
-27.174
-28.0086
-28.8358
-29.6553
-30.4692
-31.2811
-32.0938
-32.9076
-33.7202
-34.5278
-35.326
-36.1099
-36.875
-37.617
-38.3322
-39.0167
-39.6666
-40.2783
-40.8483
-41.3751
-41.8537
-42.279
-42.6461
-42.9499
-43.1852
-43.3462
-43.4256
-43.4152
-43.3008
-43.0728
-42.7165
-42.217
-41.5598
-40.7313
-39.7211
-38.5424
-37.1355
-35.4967
-33.5995
-31.402
-28.8298
-25.8695
-22.4437
-18.5867
-14.2639
-9.47541
-4.25906
1.39259
7.67911
14.4933
22.1017
30.3226
39.4652
51.952
65.1861
77.9549
90.6749
102.667
113.182
121.658
127.916
131.655
132.92
132.021
129.22
124.777
119.014
112.29
105.001
97.3951
89.8367
0.308985
-0.187547
-0.268399
-0.125702
0.286133
1.07936
2.26705
3.6341
4.83768
5.64396
6.00886
5.99594
5.69788
5.20217
4.57757
3.87244
3.11852
2.33673
1.54208
0.746664
-0.0389675
-0.805573
-1.54563
-2.25382
-2.92701
-3.56379
-4.16406
-4.72846
-5.25791
-5.7534
-6.21574
-6.64546
-7.04268
-7.40715
-7.73841
-8.0359
-8.29918
-8.52808
-8.72281
-8.88405
-9.01307
-9.11166
-9.18219
-9.2275
-9.25085
-9.25585
-9.24635
-9.22636
-9.19995
-9.17117
-9.14386
-9.12156
-9.1073
-9.10349
-9.11186
-9.13347
-9.16878
-9.21774
-9.27988
-9.35417
-9.439
-9.53218
-9.63115
-9.73314
-9.83536
-9.93518
-10.0301
-10.1181
-10.1973
-10.2667
-10.326
-10.3765
-10.4209
-10.4625
-10.504
-10.5468
-10.5915
-10.6385
-10.6885
-10.7424
-10.8016
-10.8678
-10.9431
-11.0298
-11.1313
-11.2518
-11.3973
-11.5753
-11.7952
-12.0677
-12.4035
-12.8132
-13.3066
-13.8905
-14.6987
-15.48
-16.2648
-17.0595
-17.8697
-18.7
-19.5516
-20.4229
-21.3105
-22.2104
-23.1181
-24.0291
-24.9395
-25.8467
-26.7501
-27.6499
-28.5436
-29.427
-30.2965
-31.1529
-32.0003
-32.8437
-33.685
-34.5204
-35.3445
-36.1514
-36.9351
-37.69
-38.4112
-39.094
-39.7339
-40.3259
-40.8641
-41.3386
-41.7557
-42.1078
-42.3876
-42.5887
-42.7047
-42.7293
-42.6572
-42.4824
-42.2039
-41.7885
-41.2482
-40.5625
-39.7154
-38.6901
-37.4683
-36.0273
-34.4152
-32.5049
-30.3811
-27.9958
-25.32
-22.2835
-18.8271
-14.8834
-10.435
-5.50746
-0.0850459
5.82212
12.272
19.4026
27.2526
36.095
46.6097
60.5209
73.8042
87.4996
101.369
114.235
125.401
134.36
140.997
145.228
146.88
146.003
142.843
137.723
131.027
123.167
114.597
105.806
96.999
88.5444
0.367909
-0.215444
-0.319363
-0.184643
0.206269
0.94442
2.03745
3.29542
4.41376
5.17455
5.52585
5.52173
5.24978
4.79305
4.21623
3.56448
2.86745
2.14455
1.40951
0.673293
-0.0544934
-0.765374
-1.45233
-2.11013
-2.73535
-3.32612
-3.88178
-4.40247
-4.88875
-5.34127
-5.76066
-6.14731
-6.50139
-6.82279
-7.11136
-7.36693
-7.58958
-7.77967
-7.93805
-8.06607
-8.16561
-8.23913
-8.28954
-8.3202
-8.33478
-8.33723
-8.3316
-8.32204
-8.31268
-8.30753
-8.31033
-8.3244
-8.35233
-8.39581
-8.45555
-8.53143
-8.62273
-8.7284
-8.8472
-8.97748
-9.11678
-9.26186
-9.40902
-9.55453
-9.6949
-9.82698
-9.94801
-10.0556
-10.1474
-10.2218
-10.2775
-10.3156
-10.3402
-10.3569
-10.3697
-10.3799
-10.3878
-10.3934
-10.3977
-10.4023
-10.4096
-10.4226
-10.4445
-10.4787
-10.5291
-10.6004
-10.6985
-10.8311
-11.008
-11.2405
-11.5414
-11.9239
-12.3987
-13.0861
-13.7724
-14.4738
-15.194
-15.9369
-16.7083
-17.51
-18.3415
-19.2007
-20.0844
-20.9885
-21.9084
-22.8389
-23.7747
-24.7111
-25.6478
-26.5862
-27.5239
-28.453
-29.3653
-30.2581
-31.1352
-31.9993
-32.8637
-33.7205
-34.5613
-35.3783
-36.1645
-36.9137
-37.6203
-38.2794
-38.8866
-39.4381
-39.9318
-40.3183
-40.6451
-40.8955
-41.0581
-41.1248
-41.088
-40.94
-40.674
-40.2844
-39.8017
-39.0926
-38.2783
-37.3071
-36.1627
-34.8306
-33.2961
-31.5416
-29.5688
-27.3367
-24.8381
-22.0651
-19.0078
-15.6061
-11.7378
-7.34498
-2.39088
3.0492
9.05306
15.5468
22.8125
30.828
39.9601
52.8561
65.7228
79.5773
94.2489
108.702
122.086
133.802
143.474
150.783
155.573
157.724
157.11
153.829
148.162
140.561
131.619
121.757
111.52
101.361
91.6204
82.5975
0.410203
-0.25284
-0.378112
-0.250535
0.120915
0.80673
1.80794
2.95599
3.98258
4.68993
5.02413
5.0304
4.78863
4.37576
3.85181
3.25859
2.62333
1.96366
1.29186
0.617705
-0.0500746
-0.703729
-1.33671
-1.94389
-2.52154
-3.06734
-3.5801
-4.0595
-4.50568
-4.91904
-5.30002
-5.64894
-5.96602
-6.25137
-6.5051
-6.72744
-6.91887
-7.08024
-7.21285
-7.31851
-7.39956
-7.45883
-7.49954
-7.52529
-7.53985
-7.54714
-7.55112
-7.55573
-7.56489
-7.58241
-7.61197
-7.65683
-7.71934
-7.80056
-7.90007
-8.01638
-8.14737
-8.29107
-8.44609
-8.61098
-8.78293
-8.95766
-9.13027
-9.29604
-9.45083
-9.59132
-9.71488
-9.81939
-9.9027
-9.96225
-9.99515
-10.0005
-9.98374
-9.95441
-9.91829
-9.8757
-9.82539
-9.7668
-9.701
-9.63067
-9.55972
-9.49279
-9.4348
-9.39075
-9.36566
-9.36477
-9.394
-9.46079
-9.574
-9.74481
-9.98637
-10.3119
-10.8312
-11.3776
-11.9543
-12.5599
-13.193
-13.8517
-14.5519
-15.2933
-16.0727
-16.887
-17.7331
-18.6075
-19.5063
-20.4249
-21.3569
-22.295
-23.239
-24.1933
-25.1569
-26.1188
-27.066
-27.9941
-28.9095
-29.7745
-30.6559
-31.5329
-32.3906
-33.2192
-34.0106
-34.7582
-35.4562
-36.0995
-36.6839
-37.2097
-37.719
-38.0014
-38.2577
-38.4306
-38.5033
-38.4661
-38.31
-38.0267
-37.609
-37.0501
-36.3484
-35.4789
-34.4532
-33.2572
-31.8801
-30.3117
-28.5419
-26.5542
-24.3329
-21.8465
-19.0676
-15.9873
-12.6061
-8.88214
-4.65279
0.138694
5.55464
11.4565
18.0427
25.1389
33.2397
42.984
55.747
68.9333
83.3007
98.428
113.302
127.155
139.456
149.832
157.943
163.44
166.063
165.707
162.334
156.235
147.824
137.69
126.504
114.949
103.536
92.6049
82.4839
73.3574
0.429653
-0.300982
-0.444959
-0.323667
0.0297685
0.666013
1.57828
2.61603
3.54541
4.1919
4.50428
4.52021
4.31069
3.94521
3.47833
2.948
2.37877
1.78629
1.18127
0.57216
-0.0333755
-0.628085
-1.20535
-1.76046
-2.28999
-2.79118
-3.26226
-3.70241
-4.11135
-4.48919
-4.83616
-5.15252
-5.4385
-5.69436
-5.92041
-6.11713
-6.28529
-6.426
-6.54082
-6.63177
-6.70137
-6.75257
-6.78865
-6.81313
-6.82962
-6.84171
-6.85291
-6.86664
-6.88624
-6.91524
-6.95742
-7.01661
-7.09566
-7.19531
-7.31405
-7.44888
-7.59578
-7.75146
-7.91521
-8.08729
-8.26533
-8.44382
-8.61632
-8.77695
-8.92102
-9.04518
-9.1474
-9.22664
-9.28204
-9.31137
-9.30931
-9.26956
-9.19683
-9.10873
-9.01406
-8.90926
-8.79061
-8.65681
-8.50937
-8.35219
-8.19093
-8.03221
-7.88301
-7.75014
-7.64014
-7.55925
-7.51362
-7.51067
-7.55679
-7.65887
-7.8288
-8.1682
-8.5547
-8.98671
-9.46135
-9.97628
-10.5278
-11.0734
-11.6736
-12.3334
-13.039
-13.7847
-14.5668
-15.3826
-16.2295
-17.1048
-18.0026
-18.9125
-19.8344
-20.776
-21.7389
-22.7089
-23.6683
-24.6192
-25.6251
-26.431
-27.3168
-28.2048
-29.0712
-29.904
-30.695
-31.4374
-32.1254
-32.7537
-33.3172
-33.8112
-34.234
-34.5388
-34.7585
-34.8806
-34.893
-34.7851
-34.5474
-34.1705
-33.6465
-32.9672
-32.1253
-31.1124
-29.9238
-28.5526
-26.992
-25.236
-23.2792
-21.1098
-18.7083
-16.0401
-13.0641
-9.75101
-6.09511
-2.06225
2.52488
7.69844
13.5634
19.9
27.0616
35.0632
46.128
57.8527
71.0149
85.5993
100.821
115.908
130.143
143.006
154.054
162.874
169.026
172.135
171.926
168.496
161.875
152.601
141.43
129.132
116.333
103.75
91.7931
80.7575
70.8005
62.0205
0.419807
-0.361427
-0.520447
-0.404283
-0.0671571
0.522539
1.34913
2.27715
3.10539
3.68459
3.96985
3.99296
3.81577
3.4995
3.09245
2.62817
2.12823
1.60613
1.0709
0.529645
-0.0110913
-0.544872
-1.06554
-1.56774
-2.04782
-2.50375
-2.93382
-3.33638
-3.71066
-4.05636
-4.37345
-4.66205
-4.92235
-5.15459
-5.35917
-5.53664
-5.68782
-5.81389
-5.91637
-5.99723
-6.05889
-6.10417
-6.13616
-6.1581
-6.1732
-6.18458
-6.19512
-6.20735
-6.22365
-6.24678
-6.28076
-6.33119
-6.40264
-6.49581
-6.60699
-6.73391
-6.86987
-7.00853
-7.15053
-7.29947
-7.45461
-7.60858
-7.75318
-7.88155
-7.98866
-8.07135
-8.12826
-8.15992
-8.16827
-8.15465
-8.11486
-8.03374
-7.9004
-7.737
-7.5792
-7.40968
-7.22129
-7.01281
-6.78645
-6.54725
-6.30228
-6.0598
-5.82838
-5.61626
-5.43107
-5.27994
-5.16894
-5.10517
-5.09604
-5.13076
-5.31245
-5.54778
-5.83329
-6.16775
-6.55106
-6.99141
-7.50999
-7.96976
-8.39661
-8.96111
-9.58003
-10.2412
-10.9401
-11.6743
-12.4426
-13.2449
-14.0778
-14.9289
-15.8003
-16.6983
-17.6274
-18.5695
-19.5018
-20.4227
-21.3441
-22.2297
-23.1217
-24.0031
-24.8588
-25.6784
-26.4543
-27.1802
-27.8504
-28.4593
-29.0013
-29.4697
-29.8566
-30.1477
-30.3413
-30.4291
-30.4008
-30.2455
-29.9529
-29.5128
-28.916
-28.153
-27.2146
-26.0923
-24.7799
-23.2719
-21.5636
-19.6516
-17.5341
-15.2054
-12.6508
-9.8393
-6.72065
-3.236
0.645202
4.99819
9.96168
15.5149
21.8149
28.7413
38.1117
48.1037
59.571
72.6063
87.0105
102.085
117.143
131.583
144.856
156.452
165.835
172.509
175.953
175.941
172.209
165.051
155.087
142.993
129.635
115.846
102.253
89.3595
77.5084
66.8973
57.5906
49.5853
0.374169
-0.436151
-0.605361
-0.492538
-0.169499
0.377035
1.12162
1.94156
2.66648
3.17344
3.42648
3.45331
3.3069
3.03985
2.69365
2.29701
1.86819
1.41841
0.954992
0.483684
0.00987539
-0.4609
-0.923108
-1.37174
-1.80281
-2.21348
-2.6023
-2.96813
-3.30972
-3.6261
-3.91688
-4.18188
-4.42111
-4.63467
-4.82282
-4.986
-5.12485
-5.24031
-5.33364
-5.40645
-5.46079
-5.49917
-5.52429
-5.53873
-5.54504
-5.5461
-5.54465
-5.54234
-5.5401
-5.53892
-5.5427
-5.56105
-5.60282
-5.66889
-5.7325
-5.81649
-5.91104
-6.00343
-6.09606
-6.19049
-6.29074
-6.38753
-6.47214
-6.53801
-6.58046
-6.59656
-6.58505
-6.54671
-6.48534
-6.40853
-6.32733
-6.24477
-6.14667
-5.7951
-5.56043
-5.32602
-5.07538
-4.80749
-4.52381
-4.22948
-3.93182
-3.63945
-3.36131
-3.10585
-2.88019
-2.69187
-2.5427
-2.42228
-2.38326
-2.4551
-2.57874
-2.74909
-2.96296
-3.21912
-3.51641
-3.85469
-4.23464
-4.61272
-5.03592
-5.51631
-6.0424
-6.60817
-7.20994
-7.84522
-8.51328
-9.21578
-9.95284
-10.7153
-11.5129
-12.3359
-13.1941
-14.0698
-14.9402
-15.8096
-16.6824
-17.5541
-18.4175
-19.261
-20.0757
-20.8541
-21.5901
-22.2783
-22.9132
-23.489
-23.9995
-24.4373
-24.7938
-25.0591
-25.2253
-25.2829
-25.2214
-25.0295
-24.6958
-24.2093
-23.5592
-22.7347
-21.7248
-20.5193
-19.1106
-17.4922
-15.6593
-13.6086
-11.3396
-8.85077
-6.13531
-3.17293
0.0821079
3.70778
7.78655
12.4864
17.8812
23.9211
31.5468
40.3641
50.1643
61.342
74.0878
88.0393
102.706
117.504
131.89
145.336
157.253
167.042
174.029
177.741
177.622
173.59
165.977
155.257
142.409
128.202
113.488
99.033
85.4109
72.9807
61.9279
52.3112
44.0975
37.2047
0.286238
-0.527728
-0.700808
-0.588447
-0.276474
0.230604
0.897035
1.61139
2.23263
2.66429
2.88101
2.90789
2.78967
2.57026
2.2841
1.95482
1.59719
1.22007
0.829078
0.42859
0.0228578
-0.383556
-0.785881
-1.17961
-1.56096
-1.92708
-2.27585
-2.60569
-2.91568
-3.20486
-3.4721
-3.71682
-3.93864
-4.13738
-4.31292
-4.46533
-4.59486
-4.70193
-4.78717
-4.85161
-4.89683
-4.92517
-4.93919
-4.93984
-4.92767
-4.90281
-4.8742
-4.84254
-4.80729
-4.7666
-4.72359
-4.69568
-4.70195
-4.79564
-4.70553
-4.68086
-4.68625
-4.69775