/*--------------------------------*- C++ -*----------------------------------*\
| =========                 |                                                 |
| \\      /  F ield         | OpenFOAM: The Open Source CFD Toolbox           |
|  \\    /   O peration     | Version:  2112                                  |
|   \\  /    A nd           | Website:  www.openfoam.com                      |
|    \\/     M anipulation  |                                                 |
\*---------------------------------------------------------------------------*/
FoamFile
{
    version     2.0;
    format      ascii;
    arch        "LSB;label=32;scalar=64";
    class       volScalarField;
    location    "0.11";
    object      kU_0;
}
// * * * * * * * * * * * * * * * * * * * * * * * * * * * * * * * * * * * * * //

dimensions      [0 2 -2 0 0 0 0];

internalField   nonuniform List<scalar> 
12225
(
0.161146
0.300207
0.463581
0.671447
0.946435
1.31259
1.79483
2.41493
3.19035
4.1296
5.2271
6.46094
7.79474
9.17924
10.5621
11.9182
13.1696
14.1405
0.0429124
0.0539737
0.0697233
0.0916853
0.121467
0.16093
0.213318
0.283499
0.376155
0.495949
0.648557
0.841397
1.08203
1.38054
1.74418
2.17328
2.69791
3.35104
0.0376588
0.0386962
0.0404258
0.0426573
0.0454924
0.0491462
0.0540077
0.0607223
0.0699683
0.0824889
0.0992697
0.121759
0.151959
0.192845
0.248229
0.323482
0.426235
0.571311
0.0373152
0.0371945
0.0372046
0.0373591
0.0376742
0.038147
0.0387646
0.0395266
0.0404884
0.0417175
0.0433042
0.0453939
0.0482193
0.0521698
0.0578223
0.0661059
0.0783502
0.0969432
0.0373037
0.0371197
0.0369542
0.0368091
0.036691
0.0366056
0.0365532
0.0365297
0.0365395
0.0365884
0.0366878
0.0368544
0.0371085
0.037471
0.0379875
0.0387494
0.0398973
0.0416549
0.0372996
0.03711
0.0369306
0.0367597
0.0365982
0.0364466
0.0363049
0.0361727
0.0360506
0.035939
0.0358391
0.0357529
0.0356826
0.0356294
0.035597
0.035595
0.0356382
0.035749
0.0372968
0.037104
0.0369213
0.0367477
0.0365829
0.0364267
0.0362781
0.0361366
0.0360017
0.0358732
0.0357506
0.0356338
0.0355229
0.0354182
0.0353206
0.0352316
0.0351537
0.03509
0.0372948
0.0371002
0.0369158
0.0367406
0.0365741
0.036416
0.0362655
0.036122
0.0359851
0.0358545
0.0357298
0.0356106
0.0354969
0.0353889
0.0352869
0.0351917
0.0351043
0.0350254
0.0372935
0.0370976
0.0369119
0.0367354
0.0365677
0.0364083
0.0362565
0.036112
0.0359742
0.0358428
0.0357174
0.0355978
0.0354838
0.0353756
0.0352732
0.0351771
0.0350877
0.0350049
0.0372926
0.0370957
0.036909
0.0367316
0.036563
0.0364027
0.0362502
0.0361049
0.0359664
0.0358344
0.0357085
0.0355885
0.0354743
0.0353658
0.0352631
0.0351663
0.0350756
0.0349907
0.037292
0.0370944
0.0369069
0.0367288
0.0365595
0.0363985
0.0362453
0.0360995
0.0359605
0.035828
0.0357017
0.0355815
0.035467
0.0353583
0.0352553
0.0351579
0.035066
0.0349795
0.0372916
0.0370934
0.0369054
0.0367267
0.0365569
0.0363954
0.0362416
0.0360953
0.0359558
0.035823
0.0356964
0.0355759
0.0354612
0.0353521
0.0352486
0.0351506
0.0350578
0.0349699
0.0372912
0.0370927
0.0369042
0.0367251
0.0365548
0.0363928
0.0362386
0.0360919
0.0359521
0.0358189
0.035692
0.0355712
0.0354562
0.0353468
0.0352429
0.0351442
0.0350505
0.0349616
0.0372909
0.037092
0.0369031
0.0367236
0.0365529
0.0363905
0.0362359
0.0360888
0.0359486
0.0358151
0.035688
0.0355668
0.0354515
0.0353417
0.0352373
0.035138
0.0350436
0.0349537
0.0372907
0.0370915
0.0369023
0.0367224
0.0365513
0.0363885
0.0362337
0.0360862
0.0359457
0.0358119
0.0356845
0.0355631
0.0354474
0.0353372
0.0352323
0.0351324
0.0350372
0.0349465
0.0372905
0.0370911
0.0369016
0.0367214
0.0365501
0.036387
0.0362318
0.0360841
0.0359434
0.0358093
0.0356816
0.0355599
0.0354438
0.0353333
0.0352279
0.0351274
0.0350315
0.0349401
0.0372904
0.0370909
0.0369012
0.0367208
0.0365492
0.0363859
0.0362305
0.0360825
0.0359415
0.0358072
0.0356791
0.0355571
0.0354407
0.0353298
0.0352239
0.0351229
0.0350264
0.0349344
0.0372903
0.0370907
0.0369009
0.0367203
0.0365485
0.036385
0.0362294
0.0360812
0.03594
0.0358054
0.0356771
0.0355547
0.035438
0.0353266
0.0352203
0.0351188
0.0350219
0.0349293
0.0372903
0.0370907
0.0369008
0.0367202
0.0365483
0.0363848
0.036229
0.0360806
0.0359392
0.0358045
0.0356759
0.0355533
0.0354363
0.0353247
0.035218
0.0351162
0.0350189
0.0349259
0.0372904
0.0370909
0.0369011
0.0367205
0.0365487
0.0363852
0.0362294
0.0360811
0.0359397
0.0358048
0.0356762
0.0355536
0.0354365
0.0353247
0.0352179
0.0351159
0.0350184
0.0349252
0.0372905
0.0370912
0.0369015
0.0367212
0.0365495
0.0363861
0.0362305
0.0360822
0.0359409
0.0358061
0.0356776
0.0355549
0.0354379
0.0353261
0.0352193
0.0351173
0.0350197
0.0349265
0.0372908
0.0370916
0.0369023
0.0367222
0.0365508
0.0363876
0.0362322
0.0360842
0.0359431
0.0358086
0.0356803
0.0355579
0.035441
0.0353295
0.0352229
0.0351211
0.0350238
0.0349307
0.0372911
0.0370923
0.0369034
0.0367237
0.0365527
0.0363898
0.0362347
0.036087
0.0359461
0.0358119
0.0356838
0.0355617
0.0354451
0.0353338
0.0352276
0.035126
0.035029
0.0349362
0.0372916
0.0370933
0.0369049
0.0367257
0.0365551
0.0363929
0.0362384
0.0360913
0.035951
0.0358173
0.0356899
0.0355683
0.0354523
0.0353415
0.0352356
0.0351345
0.0350377
0.0349452
0.0372924
0.0370949
0.0369071
0.0367282
0.0365577
0.0363955
0.0362412
0.0360942
0.0359542
0.0358209
0.0356941
0.0355734
0.0354587
0.0353495
0.0352456
0.0351468
0.0350527
0.0349632
0.0372938
0.0370983
0.0369137
0.0367386
0.0365725
0.0364154
0.0362671
0.0361275
0.0359966
0.0358746
0.0357621
0.0356593
0.0355652
0.0354795
0.0354023
0.0353334
0.0352729
0.0352207
0.037296
0.0371049
0.0369376
0.0367995
0.0366917
0.0366143
0.0365668
0.0365485
0.0365604
0.0366062
0.0366925
0.0368213
0.0369885
0.0371973
0.0374509
0.0377525
0.0381059
0.0385148
0.0373548
0.0375019
0.0378285
0.0383137
0.0389282
0.0396
0.040338
0.0411827
0.042205
0.0434967
0.0451492
0.0472528
0.0498964
0.0531502
0.0570746
0.0617287
0.0671798
0.0735159
0.0390963
0.0423176
0.0467007
0.0524781
0.0599077
0.0692294
0.0807552
0.0949477
0.11252
0.134261
0.16085
0.192847
0.230729
0.2749
0.325712
0.38355
0.448949
0.522347
0.108994
0.183336
0.260737
0.347002
0.447884
0.568386
0.712973
0.885859
1.09106
1.3312
1.61032
1.93186
2.2984
2.71163
3.17219
3.67947
4.23123
4.82189
0.0583959
0.0581032
0.0586151
0.0598655
0.0632495
0.0715188
0.0883288
0.116208
0.154888
0.202257
0.255999
0.31408
0.374805
0.436899
0.499501
0.562091
0.624402
0.686338
0.747916
0.809229
0.870415
0.931641
0.993083
1.05492
1.11731
1.18042
1.24435
1.30918
1.37486
1.44129
1.50837
1.57605
1.64438
1.71344
1.78338
1.85434
1.92638
1.99951
2.07371
2.14891
2.22505
2.30203
2.37976
2.45814
2.53707
2.61649
2.69632
2.77646
2.85685
2.9374
3.01808
3.09884
3.17963
3.26037
3.34102
3.4216
3.50218
3.58295
3.66445
3.74664
3.82855
3.90968
3.98983
4.06886
4.14666
4.22318
4.29834
4.37211
4.44446
4.51537
4.58479
4.65268
4.71896
4.78356
4.84638
4.90734
4.96639
5.02355
5.07888
5.13238
5.18401
5.23373
5.28153
5.32742
5.37146
5.41373
5.45431
5.49332
5.53089
5.56725
5.60282
5.6383
5.67295
5.70542
5.73542
5.76288
5.78776
5.81008
5.82992
5.84739
5.86256
5.87547
5.88608
5.89455
5.90122
5.90608
5.90919
5.91066
5.91063
5.90927
5.90669
5.90299
5.89823
5.89246
5.8857
5.87799
5.86937
5.85994
5.85007
5.84055
5.83287
5.82844
5.82398
5.81898
5.81328
5.80669
5.7989
5.78953
5.77826
5.76489
5.74923
5.73106
5.71014
5.68621
5.65892
5.62783
5.59249
5.55248
5.50734
5.45661
5.39994
5.3371
5.26785
5.19195
5.10914
5.01928
4.92223
4.8179
4.7062
4.5871
4.46063
4.32663
4.18491
4.03531
3.87772
3.71218
3.53901
3.3591
3.17386
2.98528
2.79596
2.6093
2.4296
2.2623
2.11467
1.99798
1.91643
1.92501
2.06302
2.3002
2.59128
2.90445
3.25544
3.64368
4.07105
4.53826
5.04664
5.59409
6.20427
6.85509
0.0617649
0.059334
0.058009
0.0572436
0.0583564
0.0638197
0.0770024
0.100379
0.133742
0.174844
0.22117
0.270738
0.322115
0.374289
0.426564
0.478485
0.529784
0.580331
0.630096
0.679113
0.727461
0.775248
0.822595
0.869634
0.916494
0.963306
1.0102
1.05729
1.1047
1.15251
1.20078
1.24953
1.29878
1.34855
1.39881
1.44957
1.5008
1.55249
1.6046
1.65707
1.70984
1.76285
1.81604
1.86932
1.92262
1.97584
2.02892
2.08177
2.13433
2.18656
2.23838
2.28976
2.34062
2.39093
2.44061
2.48956
2.53766
2.58465
2.63006
2.67397
2.71701
2.75923
2.80059
2.84107
2.88068
2.91939
2.95722
2.99413
3.03013
3.06518
3.09924
3.13231
3.16434
3.19534
3.22529
3.25421
3.2821
3.30898
3.33482
3.35963
3.38343
3.40625
3.42811
3.44905
3.46907
3.48822
3.50651
3.52398
3.54064
3.55652
3.57155
3.58552
3.59831
3.6099
3.62024
3.62935
3.63725
3.64397
3.6495
3.65383
3.65693
3.6588
3.65965
3.6597
3.65889
3.65722
3.65473
3.65143
3.64733
3.64242
3.6367
3.63016
3.62277
3.61452
3.60543
3.59551
3.58478
3.57321
3.56068
3.54673
3.53022
3.50976
3.48811
3.46532
3.44137
3.41622
3.38994
3.36262
3.33435
3.30516
3.27508
3.24411
3.21225
3.17951
3.14597
3.11178
3.07709
3.04202
3.0067
2.9713
2.9359
2.90058
2.86536
2.83029
2.79537
2.76054
2.72568
2.69066
2.6553
2.61936
2.58255
2.54469
2.50567
2.46541
2.42388
2.38117
2.33739
2.29263
2.247
2.20069
2.15406
2.10772
2.06265
2.02048
1.98415
1.95977
1.95575
2.00032
2.09479
2.21526
2.33683
2.44807
2.56204
2.68432
2.81906
2.97061
3.14345
3.34516
3.58775
3.9102
0.0678478
0.0625924
0.0599112
0.0580656
0.0580725
0.062118
0.0732313
0.093709
0.12343
0.160284
0.201794
0.245988
0.291489
0.337367
0.38301
0.428028
0.472196
0.515408
0.557641
0.598934
0.639363
0.679029
0.71805
0.756551
0.794658
0.832498
0.870204
0.9079
0.945696
0.983676
1.02188
1.06032
1.09897
1.1378
1.17677
1.21583
1.25495
1.29409
1.33318
1.37218
1.41104
1.44969
1.48807
1.52614
1.56384
1.60112
1.63795
1.6743
1.71013
1.7454
1.78005
1.81403
1.8473
1.87985
1.91164
1.94264
1.97279
2.00207
2.03047
2.0581
2.08511
2.11153
2.13737
2.16263
2.18731
2.21142
2.23493
2.25784
2.28012
2.30174
2.32269
2.34296
2.36257
2.38153
2.39986
2.41759
2.43474
2.45127
2.46716
2.48239
2.497
2.511
2.5244
2.5372
2.54938
2.5609
2.57172
2.58179
2.59102
2.59927
2.60627
2.61163
2.61561
2.61878
2.62122
2.62297
2.62407
2.62451
2.62428
2.62332
2.62156
2.61919
2.6164
2.613
2.60899
2.6044
2.59926
2.59353
2.58717
2.58012
2.57234
2.5638
2.55449
2.54439
2.53352
2.52187
2.50945
2.49627
2.48224
2.4672
2.45096
2.43356
2.41549
2.39687
2.37777
2.35828
2.33855
2.31878
2.29912
2.27968
2.26058
2.24196
2.22397
2.20676
2.19048
2.1753
2.16136
2.14883
2.13787
2.12862
2.12118
2.11557
2.11178
2.10976
2.10941
2.11059
2.11308
2.11665
2.12104
2.12596
2.13113
2.13631
2.14132
2.14598
2.15016
2.15372
2.15658
2.15856
2.15954
2.15945
2.1583
2.1563
2.154
2.15231
2.15246
2.15672
2.16853
2.19294
2.22605
2.26022
2.28754
2.30785
2.32538
2.34298
2.36338
2.39001
2.42663
2.4807
2.56159
2.6984
0.0745196
0.0662796
0.0623698
0.0597567
0.0591401
0.0624421
0.0723794
0.0910358
0.118314
0.152237
0.190419
0.23092
0.272388
0.313935
0.355003
0.395257
0.434516
0.472709
0.509835
0.545945
0.58112
0.615463
0.649085
0.682108
0.714652
0.746835
0.778767
0.810544
0.842238
0.873886
0.905495
0.937053
0.968531
0.999887
1.03107
1.06205
1.09276
1.12316
1.15319
1.18282
1.21198
1.24064
1.26874
1.29626
1.32316
1.34942
1.37502
1.39994
1.42418
1.44772
1.47058
1.49276
1.51428
1.53517
1.55546
1.57517
1.59434
1.613
1.6312
1.64901
1.66647
1.6836
1.70041
1.71692
1.73312
1.74902
1.7646
1.77988
1.79485
1.80952
1.82392
1.83805
1.85194
1.8656
1.87905
1.89228
1.9053
1.91808
1.93061
1.94288
1.95487
1.96658
1.97797
1.98901
1.99967
2.00987
2.01956
2.02866
2.03707
2.04466
2.0513
2.05683
2.06157
2.06591
2.06994
2.07365
2.07704
2.08012
2.08286
2.08526
2.08747
2.08951
2.09119
2.09245
2.09328
2.09371
2.09372
2.09331
2.09247
2.09118
2.08944
2.08726
2.08464
2.08161
2.07818
2.07436
2.07017
2.06564
2.06076
2.05557
2.05012
2.04454
2.03898
2.03356
2.02836
2.02348
2.01906
2.01521
2.01205
2.00967
2.00819
2.0077
2.00831
2.01013
2.01324
2.01772
2.02365
2.03109
2.04005
2.05055
2.06257
2.07606
2.09094
2.1071
2.12444
2.1428
2.16203
2.18196
2.20241
2.22316
2.24401
2.26476
2.28518
2.30506
2.32418
2.3423
2.35917
2.37448
2.38799
2.39953
2.40891
2.41592
2.42067
2.42342
2.42333
2.41986
2.41321
2.40504
2.39438
2.37802
2.35468
2.32646
2.29499
2.26126
2.22677
2.19387
2.16521
2.14628
2.14301
2.17186
0.0820104
0.0705447
0.0654381
0.0621662
0.0610917
0.0638912
0.0730107
0.0903424
0.115807
0.147534
0.18326
0.221098
0.259674
0.298117
0.335903
0.372737
0.408481
0.443094
0.476598
0.509055
0.540551
0.571188
0.601072
0.630311
0.659006
0.687253
0.715141
0.742743
0.770099
0.797218
0.824086
0.850682
0.876978
0.902939
0.928522
0.953683
0.978379
1.00257
1.0262
1.04925
1.07168
1.09347
1.11458
1.13502
1.15478
1.17386
1.1923
1.21011
1.22731
1.24396
1.26008
1.27573
1.29095
1.3058
1.32032
1.33457
1.34859
1.36243
1.37615
1.38977
1.40333
1.41687
1.43039
1.44392
1.45747
1.47105
1.48469
1.49839
1.51216
1.52603
1.54
1.55408
1.56828
1.5826
1.59703
1.61156
1.62617
1.64085
1.65557
1.67031
1.68504
1.69973
1.71434
1.72883
1.74317
1.75729
1.77115
1.7847
1.79786
1.81059
1.82283
1.83452
1.84586
1.85708
1.8682
1.87922
1.89011
1.90088
1.91154
1.92208
1.93241
1.94245
1.95215
1.96151
1.97052
1.97918
1.98749
1.99547
2.00311
2.01041
2.0174
2.02409
2.0305
2.03665
2.04257
2.04828
2.05383
2.05924
2.06457
2.06987
2.07519
2.08062
2.08623
2.09209
2.0983
2.10493
2.11207
2.1198
2.1282
2.13733
2.14728
2.15812
2.1699
2.18268
2.19649
2.21136
2.22729
2.24429
2.26236
2.28149
2.30164
2.32277
2.34481
2.36767
2.39122
2.41532
2.43983
2.46455
2.4893
2.51388
2.53807
2.56162
2.58424
2.60563
2.62548
2.64348
2.65927
2.67232
2.68218
2.68861
2.69152
2.69031
2.68449
2.67457
2.65926
2.63725
2.6082
2.57327
2.53281
2.48531
2.4301
2.36959
2.30632
2.24169
2.17716
2.11462
2.05604
2.00473
1.96386
1.9402
0.0901517
0.0751501
0.0687839
0.0648933
0.0634553
0.0658933
0.0744045
0.0907032
0.114723
0.144716
0.178456
0.214136
0.250454
0.286503
0.321756
0.355957
0.389001
0.420876
0.451624
0.481314
0.510036
0.537884
0.564952
0.591332
0.617113
0.642375
0.667189
0.691604
0.715644
0.739307
0.762575
0.785429
0.807848
0.829801
0.851256
0.872178
0.892537
0.912304
0.931455
0.949974
0.967853
0.985092
1.0017
1.01771
1.03314
1.04804
1.06246
1.07645
1.09007
1.10338
1.11644
1.12932
1.14209
1.1548
1.16753
1.18032
1.19324
1.20632
1.21963
1.23319
1.24704
1.2612
1.27569
1.29054
1.30576
1.32136
1.33735
1.35373
1.37051
1.38769
1.40528
1.42325
1.4416
1.46031
1.47936
1.49873
1.51839
1.5383
1.55845
1.57879
1.59928
1.6199
1.6406
1.66135
1.68211
1.70284
1.7235
1.74406
1.76447
1.7847
1.80472
1.8245
1.84414
1.86374
1.88329
1.90277
1.92216
1.94142
1.96032
1.97886
1.99703
2.01481
2.03219
2.04917
2.06574
2.08192
2.0977
2.1131
2.12813
2.14279
2.15711
2.17111
2.18481
2.19823
2.21141
2.22437
2.23715
2.24979
2.26231
2.27477
2.28721
2.29968
2.31223
2.32492
2.33782
2.35099
2.36448
2.37836
2.39269
2.40751
2.42288
2.43884
2.45543
2.47267
2.4906
2.50923
2.52855
2.54856
2.56925
2.59057
2.61249
2.63494
2.65785
2.68114
2.7047
2.7284
2.75206
2.77549
2.79849
2.8208
2.84218
2.86231
2.88074
2.89707
2.91088
2.92185
2.92976
2.93393
2.93368
2.92833
2.91833
2.90308
2.88218
2.85522
2.8212
2.77898
2.728
2.66694
2.59767
2.52138
2.4394
2.35388
2.26685
2.18006
2.09524
2.01427
1.93897
1.87177
1.81442
1.77038
0.098939
0.0800357
0.0723067
0.067799
0.0660452
0.0681958
0.0762072
0.0916236
0.114382
0.142866
0.174948
0.208824
0.243195
0.277207
0.310352
0.342384
0.373221
0.402869
0.431382
0.458836
0.485318
0.510915
0.535712
0.559788
0.583222
0.606083
0.628428
0.650294
0.671699
0.692637
0.713098
0.733068
0.752534
0.771477
0.789877
0.807717
0.824983
0.841667
0.857769
0.873299
0.888277
0.902734
0.916712
0.930262
0.943445
0.956328
0.968982
0.981483
0.993908
1.00634
1.01885
1.03152
1.04442
1.05762
1.0712
1.0852
1.09968
1.11469
1.13026
1.14642
1.1632
1.18062
1.19867
1.21736
1.23671
1.2567
1.27732
1.29857
1.32044
1.34291
1.36595
1.38955
1.41368
1.43831
1.4634
1.48891
1.51482
1.54107
1.56764
1.59446
1.62152
1.64876
1.67616
1.70366
1.73125
1.75888
1.78652
1.81414
1.84171
1.8692
1.89656
1.92379
1.95093
1.97799
2.00493
2.03171
2.0582
2.08404
2.10936
2.13418
2.15851
2.18233
2.20564
2.22844
2.25074
2.27253
2.29384
2.31466
2.33501
2.3549
2.37435
2.39338
2.41202
2.43028
2.4482
2.46581
2.48313
2.5002
2.51703
2.53368
2.55017
2.56653
2.58282
2.59908
2.61536
2.6317
2.64816
2.66478
2.68161
2.69868
2.71602
2.73367
2.75165
2.76997
2.78865
2.80771
2.82712
2.84688
2.86695
2.88729
2.90783
2.92849
2.9492
2.96988
2.99041
3.01067
3.03045
3.04954
3.06772
3.08472
3.10027
3.11411
3.12566
3.13439
3.13975
3.14119
3.13871
3.1317
3.11953
3.10172
3.07796
3.04764
3.01032
2.9653
2.91086
2.84424
2.76744
2.68138
2.58726
2.48648
2.38101
2.27337
2.16595
2.06083
1.95995
1.86517
1.77813
1.70071
1.63397
1.58014
0.108356
0.0851555
0.0759433
0.0708063
0.0687642
0.0706715
0.0782461
0.0928684
0.114473
0.141562
0.172112
0.204344
0.236969
0.269153
0.30042
0.330548
0.359466
0.387193
0.413789
0.439331
0.463906
0.487592
0.510465
0.5326
0.554067
0.574928
0.595231
0.615008
0.634274
0.653032
0.671279
0.689012
0.706227
0.722922
0.739091
0.754737
0.769866
0.784495
0.798648
0.812361
0.825681
0.838664
0.851379
0.863898
0.876304
0.888682
0.901122
0.913713
0.926547
0.939713
0.953298
0.967382
0.982042
0.997346
1.01335
1.03012
1.04768
1.06607
1.08531
1.10541
1.12638
1.14822
1.1709
1.19443
1.21878
1.24393
1.26986
1.29654
1.32394
1.35203
1.38079
1.41018
1.44016
1.47069
1.50173
1.53323
1.56513
1.59741
1.63
1.66286
1.69595
1.72922
1.76264
1.79617
1.82977
1.86342
1.89707
1.93071
1.96429
1.99778
2.03114
2.06437
2.09746
2.13039
2.16307
2.19527
2.22664
2.25735
2.28745
2.31694
2.34583
2.37411
2.40177
2.42881
2.45524
2.48106
2.50627
2.5309
2.55494
2.57842
2.60134
2.62372
2.64559
2.66697
2.6879
2.70839
2.72847
2.74817
2.76751
2.78651
2.80522
2.82365
2.84185
2.85985
2.8777
2.89542
2.91306
2.93065
2.94822
2.9658
2.9834
3.00105
3.01875
3.03651
3.05432
3.0722
3.09012
3.10806
3.12598
3.1438
3.16147
3.17888
3.19594
3.21255
3.22867
3.24412
3.25871
3.27221
3.28438
3.2949
3.30343
3.30976
3.31323
3.31333
3.30954
3.30141
3.28855
3.27041
3.24635
3.21574
3.17802
3.13241
3.07765
3.01074
2.93263
2.84319
2.74292
2.63313
2.51577
2.39305
2.26745
2.14162
2.01805
1.89892
1.78619
1.68157
1.58646
1.50222
1.42943
1.36948
0.118375
0.0904822
0.0796649
0.0738824
0.0715693
0.0732616
0.0804396
0.0943222
0.114831
0.140573
0.169628
0.200268
0.231226
0.261688
0.291204
0.319572
0.346737
0.372724
0.397598
0.421436
0.444318
0.46632
0.487512
0.507964
0.527742
0.546902
0.565487
0.583529
0.601047
0.618052
0.634552
0.650557
0.666075
0.681118
0.695701
0.709844
0.723576
0.736934
0.749967
0.762732
0.775297
0.787741
0.800147
0.812608
0.82522
0.83808
0.85129
0.864948
0.879151
0.893994
0.909561
0.925932
0.943174
0.961347
0.980497
1.00066
1.02186
1.04411
1.06741
1.09175
1.11712
1.14349
1.17083
1.19912
1.22831
1.25837
1.28927
1.32097
1.35342
1.38661
1.42048
1.455
1.49013
1.52582
1.56202
1.59868
1.63574
1.67316
1.71087
1.74884
1.78701
1.82533
1.86378
1.9023
1.94086
1.97943
2.01797
2.05644
2.09481
2.13304
2.17109
2.20895
2.24661
2.28399
2.32077
2.35662
2.3917
2.42608
2.45977
2.49278
2.52509
2.55669
2.58759
2.61778
2.64725
2.676
2.70405
2.7314
2.75807
2.78406
2.80938
2.83405
2.85809
2.88152
2.90438
2.92669
2.94846
2.96973
2.99052
3.01084
3.03074
3.05024
3.06936
3.08814
3.10661
3.12481
3.14275
3.16045
3.17792
3.19519
3.21226
3.22914
3.24582
3.26228
3.27852
3.29452
3.31029
3.32575
3.34086
3.35555
3.36974
3.38333
3.3962
3.40824
3.41944
3.42957
3.43841
3.44578
3.45145
3.45513
3.45649
3.45511
3.45045
3.44196
3.42908
3.41133
3.38814
3.35895
3.32297
3.27945
3.22734
3.16371
3.08813
3.00038
2.90021
2.78808
2.6654
2.53426
2.39708
2.25636
2.11477
1.97504
1.83973
1.71109
1.59099
1.48093
1.38196
1.29488
1.21982
1.15741
0.128955
0.0960004
0.0834641
0.0770183
0.0744441
0.0759401
0.0827497
0.0959291
0.115373
0.139776
0.167327
0.196366
0.225665
0.25444
0.28226
0.30894
0.334441
0.358794
0.382065
0.404331
0.425668
0.446147
0.465837
0.484804
0.503109
0.520803
0.53793
0.554522
0.570607
0.586205
0.601335
0.616019
0.630278
0.644141
0.657639
0.67081
0.683701
0.696369
0.708879
0.721307
0.733736
0.746257
0.758967
0.771968
0.785364
0.799261
0.813764
0.828975
0.844989
0.861899
0.879783
0.898711
0.918738
0.939905
0.962244
0.98577
1.01049
1.0364
1.06348
1.09171
1.12106
1.15147
1.18291
1.21533
1.24868
1.28293
1.31803
1.35394
1.39061
1.42802
1.46612
1.50487
1.54425
1.58419
1.62464
1.66555
1.70686
1.7485
1.79044
1.83262
1.87499
1.9175
1.96011
2.00276
2.04542
2.08804
2.13058
2.173
2.21526
2.2573
2.29908
2.34059
2.38184
2.42246
2.4621
2.50089
2.53892
2.57619
2.61271
2.64846
2.68343
2.71761
2.751
2.78359
2.81536
2.84633
2.87649
2.90585
2.93443
2.96224
2.98927
3.01553
3.04104
3.06583
3.08994
3.11337
3.13616
3.15832
3.17988
3.20087
3.22132
3.24126
3.2607
3.27969
3.29824
3.31638
3.33414
3.3515
3.36843
3.38498
3.40113
3.41688
3.4322
3.44706
3.46144
3.47531
3.48873
3.50149
3.51354
3.52485
3.53535
3.54491
3.55344
3.56082
3.56694
3.57166
3.57476
3.57604
3.57526
3.57217
3.56638
3.55742
3.54469
3.52764
3.50568
3.47826
3.44472
3.40435
3.35618
3.29831
3.22837
3.14604
3.05054
2.94157
2.81984
2.6868
2.54442
2.39508
2.24147
2.08637
1.93269
1.78329
1.6408
1.5074
1.38471
1.27388
1.17553
1.08996
1.01683
0.956026
0.14004
0.101707
0.0873509
0.0802212
0.0773893
0.0787009
0.0851633
0.0976672
0.116064
0.13912
0.165134
0.192531
0.22014
0.247213
0.273345
0.298364
0.322242
0.345017
0.366759
0.387542
0.407438
0.426514
0.444838
0.462473
0.479476
0.495897
0.511779
0.52716
0.542072
0.556546
0.570611
0.5843
0.597649
0.610697
0.623492
0.636085
0.648539
0.660923
0.673314
0.6858
0.698472
0.71143
0.724776
0.738616
0.753058
0.768206
0.784166
0.801037
0.818912
0.837875
0.857995
0.879331
0.901921
0.92579
0.95095
0.977402
1.00514
1.03414
1.06439
1.09584
1.12845
1.16215
1.19691
1.23266
1.26936
1.30696
1.34543
1.38471
1.42477
1.46558
1.50709
1.54928
1.5921
1.63552
1.67947
1.72389
1.76872
1.81391
1.85941
1.90516
1.9511
1.9972
2.04339
2.08961
2.13582
2.18197
2.22798
2.27382
2.31942
2.36472
2.40967
2.45427
2.49827
2.54133
2.58349
2.62481
2.66531
2.70499
2.74382
2.78178
2.81887
2.85508
2.89041
2.92486
2.95841
2.99105
3.02278
3.05361
3.08356
3.11264
3.14083
3.16814
3.19458
3.2202
3.24506
3.26911
3.29237
3.3149
3.33671
3.35786
3.37836
3.39825
3.41755
3.43629
3.45449
3.47217
3.48939
3.50614
3.52222
3.53773
3.55269
3.56705
3.5808
3.59388
3.60624
3.61784
3.62865
3.63856
3.64752
3.65544
3.66223
3.6678
3.67203
3.67481
3.676
3.67546
3.67297
3.66829
3.66119
3.6514
3.63851
3.62199
3.6012
3.57553
3.54438
3.50711
3.46293
3.41078
3.34781
3.27299
3.18526
3.08355
2.96769
2.83833
2.69688
2.54526
2.3858
2.22121
2.05453
1.88893
1.72754
1.57333
1.42876
1.29581
1.17573
1.06912
0.975966
0.895959
0.828314
0.772363
0.151566
0.107612
0.0913497
0.0835108
0.080418
0.081553
0.0876863
0.0995389
0.116901
0.138597
0.163032
0.188732
0.214597
0.239929
0.264349
0.287702
0.309969
0.331196
0.351453
0.370815
0.389351
0.407123
0.424187
0.440607
0.456445
0.471752
0.486569
0.500938
0.514895
0.52848
0.54173
0.554687
0.567398
0.579914
0.59229
0.60459
0.616885
0.629253
0.641777
0.654549
0.667666
0.681228
0.695338
0.7101
0.725619
0.741998
0.759335
0.777726
0.797258
0.81801
0.840043
0.863405
0.888118
0.914191
0.941616
0.970383
1.00048
1.03188
1.06457
1.0985
1.13361
1.16985
1.20716
1.24549
1.28479
1.32503
1.36618
1.40819
1.45102
1.49464
1.53901
1.5841
1.62987
1.67628
1.72327
1.77076
1.81871
1.86705
1.91574
1.96471
2.01392
2.06329
2.11278
2.16231
2.21181
2.26121
2.31044
2.35943
2.40811
2.45641
2.50426
2.5514
2.59763
2.64299
2.68745
2.73101
2.77367
2.81541
2.85614
2.89587
2.93462
2.9724
3.00919
3.04501
3.07983
3.11366
3.14646
3.17826
3.20908
3.23891
3.26775
3.29557
3.32242
3.34836
3.37348
3.39773
3.42097
3.44336
3.46494
3.48575
3.50584
3.52523
3.54394
3.56201
3.57944
3.59626
3.61246
3.62803
3.64292
3.65712
3.67062
3.68338
3.69535
3.70647
3.71669
3.72592
3.73411
3.74116
3.74699
3.75151
3.75461
3.75618
3.75612
3.75431
3.75061
3.74486
3.73684
3.72629
3.71293
3.69643
3.67638
3.65216
3.62311
3.58858
3.54793
3.50033
3.44393
3.37672
3.29766
3.2053
3.09857
2.97721
2.8418
2.6936
2.53442
2.36662
2.19296
2.01664
1.84111
1.66987
1.50613
1.35278
1.21199
1.08508
0.97265
0.874621
0.79039
0.719082
0.659551
0.610737
0.163487
0.113745
0.0954963
0.0869188
0.0835571
0.0845202
0.0903413
0.101565
0.117905
0.138226
0.161039
0.184981
0.20904
0.232575
0.255244
0.276911
0.297564
0.317255
0.336055
0.35404
0.371278
0.387827
0.403739
0.419059
0.433843
0.448157
0.462059
0.475586
0.488776
0.501672
0.514317
0.526761
0.539056
0.551261
0.563437
0.575654
0.587987
0.600518
0.613331
0.626517
0.640174
0.654397
0.669287
0.684942
0.701459
0.718935
0.737462
0.757131
0.778024
0.800217
0.823773
0.848733
0.875108
0.902884
0.932036
0.962539
0.994378
1.02754
1.06203
1.0978
1.13479
1.17295
1.21221
1.25256
1.29396
1.33637
1.37979
1.42417
1.46948
1.51569
1.56274
1.6106
1.65922
1.7085
1.75842
1.8089
1.85988
1.91131
1.96313
2.01527
2.06766
2.12024
2.17294
2.22566
2.27834
2.33087
2.38317
2.43515
2.48673
2.53788
2.58815
2.63738
2.6857
2.73312
2.77958
2.82505
2.86951
2.913
2.95519
2.9962
3.0361
3.0749
3.11262
3.14926
3.18481
3.21927
3.2526
3.2848
3.31591
3.34592
3.37482
3.40259
3.42927
3.45492
3.4796
3.50329
3.52599
3.54774
3.5686
3.58861
3.60783
3.62627
3.64397
3.66094
3.67721
3.69276
3.70761
3.72172
3.73506
3.74762
3.75935
3.77021
3.78013
3.78905
3.79689
3.80357
3.80898
3.81304
3.81563
3.81664
3.81595
3.81345
3.80899
3.80248
3.79375
3.78265
3.76895
3.75238
3.73261
3.70923
3.68172
3.64944
3.61171
3.5678
3.51658
3.45579
3.38459
3.3015
3.20496
3.09392
2.96807
2.82783
2.67428
2.50914
2.33471
2.15385
1.96992
1.7866
1.60768
1.43681
1.27708
1.13079
0.999426
0.883513
0.78289
0.69685
0.624302
0.56395
0.514377
0.474263
0.175788
0.120149
0.0998428
0.0904939
0.0868509
0.0876436
0.0931668
0.103781
0.119107
0.138036
0.159185
0.18131
0.2035
0.225181
0.246056
0.266009
0.285039
0.303201
0.320567
0.337211
0.3532
0.36859
0.383432
0.397768
0.411642
0.425101
0.438211
0.451038
0.463631
0.476023
0.488261
0.500395
0.512481
0.52458
0.536759
0.549087
0.56164
0.574498
0.587746
0.601471
0.615764
0.630718
0.646425
0.662978
0.680465
0.698968
0.718575
0.739367
0.761425
0.784828
0.809649
0.835936
0.863696
0.892899
0.923493
0.955407
0.988643
1.02321
1.05912
1.09636
1.13489
1.17466
1.21564
1.2578
1.30115
1.34566
1.39132
1.43811
1.486
1.53496
1.58493
1.63588
1.68781
1.74031
1.79339
1.84708
1.90132
1.95603
2.01113
2.06654
2.12217
2.17793
2.23373
2.28949
2.34511
2.40049
2.45553
2.51013
2.56427
2.61743
2.66945
2.72034
2.77024
2.81916
2.867
2.9137
2.9592
3.00339
3.04628
3.08789
3.12827
3.16744
3.20541
3.24219
3.27779
3.31218
3.34537
3.37734
3.40809
3.43762
3.46593
3.49302
3.51893
3.54373
3.56745
3.59009
3.61168
3.63226
3.6519
3.67062
3.68849
3.70553
3.72176
3.73721
3.75188
3.76576
3.77884
3.7911
3.80252
3.81304
3.82263
3.83122
3.83874
3.84512
3.85026
3.85406
3.85642
3.85721
3.8563
3.85356
3.84885
3.84201
3.83291
3.8214
3.80732
3.7905
3.77072
3.7477
3.72107
3.6903
3.65475
3.61369
3.56623
3.51041
3.44555
3.37028
3.2831
3.18257
3.06767
2.93804
2.79394
2.63628
2.46665
2.28729
2.10111
1.91162
1.7227
1.53852
1.36293
1.19923
1.0499
0.916381
0.799267
0.698332
0.612706
0.541099
0.482001
0.433841
0.395061
0.364247
0.18852
0.126899
0.104469
0.0943134
0.0903709
0.0909886
0.096221
0.106235
0.120544
0.138057
0.157496
0.177749
0.19801
0.217787
0.236826
0.255042
0.272441
0.289081
0.305036
0.320377
0.335169
0.349469
0.363326
0.376781
0.389877
0.402661
0.415182
0.427493
0.439667
0.451768
0.463835
0.475914
0.488059
0.500332
0.512796
0.525524
0.538589
0.552068
0.566039
0.580584
0.59579
0.611745
0.628541
0.646269
0.665014
0.684806
0.705729
0.727862
0.751276
0.776051
0.802274
0.830005
0.859273
0.890104
0.922546
0.956091
0.990945
1.02716
1.06475
1.10368
1.14399
1.18567
1.22871
1.27311
1.31886
1.36595
1.41436
1.46406
1.515
1.56714
1.62039
1.67462
1.72962
1.78523
1.84146
1.89826
1.95557
2.0133
2.07135
2.1296
2.18797
2.24634
2.30462
2.36274
2.42059
2.47811
2.53526
2.59178
2.64718
2.70143
2.75447
2.80633
2.85712
2.90681
2.9553
3.0025
3.04824
3.09235
3.13501
3.17627
3.21617
3.25474
3.292
3.32795
3.36263
3.39604
3.42819
3.45908
3.48868
3.51696
3.54397
3.56971
3.59424
3.61758
3.63975
3.66079
3.68073
3.69963
3.71755
3.73452
3.7506
3.76579
3.78013
3.79362
3.80626
3.81804
3.82894
3.83894
3.848
3.85606
3.86308
3.86898
3.87369
3.87711
3.87914
3.87966
3.87856
3.87568
3.87088
3.86399
3.85486
3.84329
3.8291
3.81212
3.79215
3.76898
3.74238
3.71209
3.67768
3.6385
3.59365
3.54147
3.48129
3.41202
3.33239
3.24095
3.13647
3.01801
2.8851
2.73791
2.57718
2.40438
2.22167
2.03201
1.83898
1.6468
1.45979
1.282
1.1169
0.966994
0.833829
0.717916
0.618894
0.535732
0.466951
0.410866
0.36574
0.329912
0.301837
0.280136
0.20239
0.134409
0.109697
0.0986616
0.0943805
0.0948007
0.0997218
0.109096
0.122317
0.13831
0.155914
0.17416
0.192367
0.210125
0.227235
0.243639
0.259357
0.27445
0.28899
0.303049
0.316693
0.32998
0.342962
0.355684
0.368189
0.380527
0.392747
0.404903
0.417046
0.429242
0.441559
0.454057
0.466785
0.479796
0.493149
0.506915
0.521171
0.535998
0.551457
0.567596
0.58451
0.602298
0.621047
0.640894
0.662105
0.684248
0.707507
0.732008
0.757821
0.785011
0.813643
0.843709
0.875225
0.908231
0.942719
0.978603
1.0159
1.05457
1.09449
1.1356
1.1781
1.22203
1.26742
1.31427
1.36258
1.41233
1.46347
1.51596
1.56972
1.62469
1.68076
1.7378
1.79569
1.85427
1.91341
1.97299
2.03289
2.09305
2.15334
2.2136
2.27374
2.33367
2.39331
2.45259
2.51153
2.56993
2.62733
2.68353
2.73845
2.79212
2.84451
2.89567
2.94562
2.99431
3.04168
3.08765
3.13219
3.17533
3.21704
3.25731
3.29615
3.33357
3.36958
3.40422
3.4375
3.46947
3.50013
3.5295
3.55743
3.58388
3.60898
3.63282
3.65542
3.67677
3.69691
3.71589
3.73377
3.7506
3.76643
3.78129
3.79521
3.8082
3.82028
3.83144
3.84167
3.85096
3.85928
3.86661
3.87289
3.87806
3.88208
3.88484
3.88628
3.88627
3.88471
3.88147
3.8764
3.86933
3.8601
3.84851
3.83435
3.81741
3.79746
3.77426
3.74755
3.71707
3.68254
3.64361
3.59982
3.55017
3.49332
3.42835
3.35425
3.26979
3.17383
3.06532
2.94339
2.80752
2.65776
2.49474
2.31983
2.13517
1.94372
1.74931
1.55622
1.36893
1.19167
1.0279
0.880185
0.750023
0.637781
0.542891
0.464124
0.399862
0.348257
0.307402
0.27565
0.251434
0.233305
0.220013
0.215979
0.141755
0.114917
0.10304
0.0984017
0.0986041
0.103215
0.11198
0.124172
0.138733
0.154605
0.170988
0.187319
0.203244
0.218613
0.233398
0.247642
0.261412
0.274786
0.287836
0.300634
0.313248
0.325739
0.338163