/*--------------------------------*- C++ -*----------------------------------*\
| =========                 |                                                 |
| \\      /  F ield         | OpenFOAM: The Open Source CFD Toolbox           |
|  \\    /   O peration     | Version:  2112                                  |
|   \\  /    A nd           | Website:  www.openfoam.com                      |
|    \\/     M anipulation  |                                                 |
\*---------------------------------------------------------------------------*/
FoamFile
{
    version     2.0;
    format      ascii;
    arch        "LSB;label=32;scalar=64";
    class       volScalarField;
    location    "0.08";
    object      omegaU;
}
// * * * * * * * * * * * * * * * * * * * * * * * * * * * * * * * * * * * * * //

dimensions      [0 0 -1 0 0 0 0];

internalField   nonuniform List<scalar> 
12225
(
56303.8
79797.4
86527.5
86157.8
83197.7
79547.8
75964.8
72722.1
69870.3
67348.1
65053.2
62891.1
60790.6
58700.8
56572.4
54377.5
51977.8
49228.3
4518.86
10657.4
15920.1
19947.5
22812.1
24754.6
26022
26815.2
27286.8
27549.1
27676.4
27713.5
27688.3
27621.2
27530
27437.1
27427.8
27561.5
305.246
1103.12
2248.12
3566.51
4875.98
6057.99
7067.38
7916.89
8648.26
9310.85
9945.5
10579
11228.4
11906.3
12623.8
13396
14242.7
15177.2
54.9977
129.3
279.767
512.681
812.678
1146.66
1488.57
1823.46
2152.09
2482.27
2822.8
3181.33
3565.94
3986.66
4456.17
4991.98
5614.44
6345.35
40.6923
47.1993
63.8823
95.4365
144.167
208.024
283.891
368.871
459.892
558.407
668.769
793.669
936.482
1101.96
1296.96
1531.26
1819.38
2177.71
39.8561
40.5464
42.3932
46.3308
53.2209
63.5333
77.3863
94.8033
115.43
139.489
167.334
200.157
239.46
287.587
347.783
424.121
522.893
652.235
39.7584
39.9442
40.2483
40.7983
41.7664
43.3215
45.6182
48.8246
53.1899
59.236
66.2885
74.653
84.9753
97.6816
113.512
134.069
161.6
199.168
39.7142
39.8262
39.955
40.1088
40.3068
40.5755
40.9555
41.519
42.4185
43.8113
45.565
47.7336
50.3351
53.4677
57.3601
62.4738
69.464
79.249
39.6844
39.7658
39.8538
39.9448
40.0363
40.1256
40.2141
40.3184
40.4912
40.7624
41.1476
41.6729
42.266
42.9944
43.9494
45.2538
47.0855
49.687
39.6632
39.724
39.79
39.8574
39.9218
39.9785
40.0225
40.0527
40.0839
40.1292
40.2029
40.3168
40.4579
40.6562
40.9472
41.3781
42.0127
42.9232
39.6479
39.6931
39.7437
39.7961
39.8459
39.8894
39.9224
39.9405
39.9484
39.9558
39.9713
40.0023
40.0562
40.1502
40.3063
40.5526
40.9247
41.4538
39.6377
39.6719
39.7116
39.7537
39.7943
39.8299
39.8572
39.8727
39.8787
39.8828
39.892
39.9142
39.9595
40.0424
40.1809
40.3962
40.7145
41.155
39.6299
39.6551
39.686
39.7199
39.7534
39.7831
39.8059
39.8204
39.8287
39.8363
39.8503
39.8787
39.9316
40.022
40.1651
40.3781
40.6811
41.0868
39.6231
39.6402
39.6628
39.6895
39.7169
39.7419
39.7618
39.7771
39.7913
39.8085
39.8347
39.8764
39.9427
40.0452
40.1964
40.4096
40.7001
41.0757
39.6174
39.627
39.6425
39.6629
39.6855
39.7076
39.7277
39.7474
39.7711
39.8026
39.8455
39.9041
39.9858
40.0999
40.2561
40.4644
40.7356
41.0739
39.6131
39.6164
39.626
39.6418
39.6615
39.6835
39.7076
39.7358
39.7717
39.8184
39.878
39.9538
40.0506
40.1746
40.3325
40.5309
40.777
41.0724
39.6101
39.6088
39.6141
39.6269
39.6461
39.671
39.7019
39.7406
39.7891
39.8494
39.9232
40.0126
40.1204
40.25
40.4052
40.5895
40.8069
41.0571
39.6077
39.6032
39.6062
39.6179
39.6385
39.668
39.7067
39.7555
39.8151
39.8865
39.9704
40.0679
40.18
40.3081
40.4535
40.6174
40.8014
41.0043
39.6058
39.5998
39.6027
39.6162
39.6412
39.6776
39.7256
39.7851
39.8556
39.9368
40.0284
40.1299
40.2413
40.3622
40.4927
40.6324
40.7812
40.9379
39.6056
39.6006
39.6068
39.6267
39.6609
39.709
39.7702
39.8432
39.9265
40.0185
40.1179
40.2234
40.334
40.4488
40.567
40.6879
40.811
40.9352
39.607
39.6056
39.6189
39.6502
39.6987
39.7631
39.8416
39.9316
40.0304
40.1354
40.2447
40.3564
40.469
40.5815
40.693
40.8028
40.9104
41.0151
39.6101
39.6165
39.6428
39.6912
39.7596
39.8457
39.9464
40.0578
40.1761
40.298
40.4208
40.5423
40.6609
40.7753
40.8849
40.9893
41.0885
41.1823
39.6162
39.6367
39.6833
39.7555
39.8505
39.9654
40.0956
40.2356
40.3806
40.5267
40.6708
40.8105
40.9441
41.0705
41.1893
41.3008
41.4056
41.5041
39.6297
39.6738
39.7508
39.8584
39.9953
40.1608
40.3503
40.558
40.7793
41.0109
41.2496
41.4922
41.7363
41.9808
42.2258
42.4726
42.7227
42.9771
39.6558
39.747
39.9027
40.1445
40.5107
41.0376
41.7451
42.6384
43.7117
44.9468
46.3208
47.8131
49.4097
51.104
52.8973
54.8
56.8007
58.8612
39.7291
40.1975
41.3859
43.761
47.776
53.7111
61.6148
71.3364
82.5998
94.9351
107.935
121.321
134.916
148.627
162.428
176.345
190.282
204.048
41.0851
50.4388
71.8834
109.309
163.751
233.779
315.926
405.875
499.329
592.026
681.315
765.921
845.386
919.831
989.715
1055.7
1118.76
1180.11
89.7178
291.569
625.423
1071.16
1585
2123.35
2650.32
3141.57
3583.8
3974.06
4314.37
4609.74
4867.03
5093.55
5296.19
5481.14
5653.77
5818.81
1847.74
4817.16
7807.86
10493.5
12737.6
14524.1
15908.8
16962.9
17753.5
18338.5
18764.4
19067.7
19277.1
19415.5
19501
19548.1
19569.4
19573.6
36984.3
56270.6
64502
67036.4
66922.9
65664.8
63969.4
62174.7
60445.6
58857.5
57437.3
56186.6
55094.2
54142
53309.1
52575.6
51920.1
51330
2320.19
2271.68
2354.25
2585.53
3040.56
3569.57
4025.59
4425.34
4796.56
5155.78
5516.32
5887.88
6277.01
6687.42
7120.33
7575.09
8049.8
8541.77
9048.23
9567.05
10097.2
10613.5
11065
11444.1
11741.7
11947.7
12048.8
12027.4
11865.8
11543
11032
10298.6
9299.2
7978.84
6276.83
4209.41
2521.69
2293.78
2349.44
2513.34
2696.49
2869.57
3035.15
3201.32
3389.39
3612.79
3893.87
4150.97
4390.14
4652.03
4976.99
5368.75
5629.63
5601.33
5310.39
4895.37
4499.45
4177.92
3988.56
4097.6
4751.06
6139.43
8296.62
10863
12987.6
14987.5
16835.8
18502.1
19971.1
21238.5
22307.2
23185.4
23881
24402.9
24759
24955.3
24996.3
24886.4
24628.4
24222.8
23669
22965.3
22148.4
21270.7
20331.5
19333.6
18282
17183.2
16044.5
14874.5
13682.7
12480.2
11279.3
10094.3
8940.03
7833
6792.83
5839.39
4992.83
4273.1
3699.52
3290.94
3066.36
3042.84
3238.77
3591.3
4075.6
4682.25
5389.04
6171.78
7003.51
7859.66
8714.18
9544.56
10330.6
11053.6
11697.5
12251.9
12706.5
13011.2
13182
13245.8
13223
13129
12975.3
12770.8
12522.7
12237.2
11919.6
11575.3
11209.6
10828.7
10439.3
10046.9
9655.27
9266.87
8883.88
8509.92
8151.69
7820.12
7530.85
7302.95
7153.96
7090.86
7105.03
7207.18
7383.45
7581.98
7720.42
7697.02
7439.01
6952.99
6310.83
5760.17
5765.52
6790.36
8593.68
10137.5
11238.4
11724.5
11555.2
10784.4
9515.66
8038.8
6588.21
5299.25
4318.03
3789.19
3863.03
4592.46
5699.91
7142.32
8800.78
10546.9
12261.8
13840.4
15202.6
16281.1
17013.6
17151.8
2359.13
2214.38
2774.63
3544.31
4105.03
4425.72
4568.2
4594.56
4548.22
4458.25
4344.01
4218.17
4089.23
3962.81
3842.36
3730.03
3627.09
3534.29
3452.19
3382.61
3328.59
3314.05
3381.16
3531.77
3764.85
4073.88
4446.68
4864.15
5304.58
5744.68
6151.79
6488.03
6711.9
6782.87
6670.83
6358.47
5847.71
5188.78
4397.91
3584.82
2914.51
2659.81
2705.25
2852.26
2993.67
3139.42
3266.68
3346.21
3338.39
3225.27
3032.54
2836.83
2829.9
2974.5
3136.51
3383.33
3936.17
4944.86
6341.6
7935.32
9085.37
9952.04
10635.3
11088.3
11289.8
11283.4
11089.5
10733.6
10245.4
9655.63
8992.84
8271.61
7518.93
6762.48
6026.64
5333.22
4702.82
4153.27
3699.08
3352.08
3119.63
3005.46
2959.35
2919.23
2883.86
2852.39
2824.13
2798.55
2775.23
2753.84
2734.15
2716.09
2699.85
2686.23
2676.98
2670.71
2662.12
2650.43
2635.03
2615.28
2590.44
2559.49
2520.83
2471.8
2413.55
2357.99
2302.54
2248.71
2199.43
2163.85
2156.72
2169.45
2197.86
2243.28
2307.44
2391.31
2495.14
2619.21
2771.48
2991.22
3249.69
3508.69
3751.65
3971.01
4163.02
4325.97
4459.1
4561.9
4633.71
4673.6
4680.57
4653.93
4593.62
4500.34
4377.4
4230.25
4065.51
3889.19
3705.03
3514.1
3315.7
3110.46
2908.27
2734.56
2623.01
2570.82
2573.16
2625.55
2721.12
2856.43
3031.73
3277.91
3646.09
4205.68
4992.91
5754.24
5925.01
5581.88
4935.71
4158.55
3424.07
2928.48
2781.78
2797.33
2848.71
2904.6
2950.72
2985.14
3004.07
3006.99
3021.45
3098.01
3233.24
3435.45
3717.14
4087.16
4550.87
5109.01
5822.68
6626.93
2891.34
4124.88
5040.06
5388.45
5361.85
5146.22
4857.51
4552.96
4260.77
3993.32
3754.7
3544.92
3362.13
3203.77
3067.14
2949.64
2848.84
2762.63
2689.17
2626.93
2574.67
2531.38
2502.56
2491.57
2506.38
2557.42
2656.16
2812.64
3032.89
3316.55
3653.99
4025.43
4402.22
4750.51
5037.14
5233.63
5314.38
5253.51
5018.33
4611.33
4119.59
3704.9
3404.44
3196.88
3111.39
3113.89
3180.82
3281.34
3351.92
3321.34
3172.95
2979.45
2950.14
3218.92
3877.01
4991.26
6460.91
7626.27
8284.41
8703.8
8853.79
8799.51
8570.94
8190
7688.28
7103.09
6468.81
5819.71
5184.28
4586.98
4049.08
3584.53
3201.79
2902.25
2681.83
2532.41
2439.72
2390.94
2374.12
2378.67
2395.97
2416.33
2436
2454.51
2471.56
2486.92
2500.43
2511.98
2521.54
2529.13
2534.81
2538.68
2540.95
2541.8
2541.3
2539.42
2535.85
2530.1
2521.43
2508.82
2490.92
2465.86
2430.85
2382.24
2326.2
2269
2207.55
2143.33
2077.16
2009.39
1940.36
1870.74
1802.51
1737.94
1678.25
1624.06
1575.91
1534.32
1499.94
1475.16
1475.1
1505.85
1565.77
1649.94
1752.78
1869.34
1995.04
2125.41
2255.87
2381.62
2497.79
2599.84
2684.31
2748.92
2791.8
2811.64
2807.99
2780.92
2730.36
2655.69
2555.7
2430.21
2283.55
2128.36
1987.44
1880.65
1824.45
1830.67
1906.95
2066.02
2330.59
2722.24
3274.12
3981.94
4657.5
4804.75
4361.37
3720.18
3131.5
2736.06
2564.34
2548.74
2588.59
2634.4
2679.51
2718.62
2746.45
2756.14
2739.96
2708.22
2664.6
2616.05
2569.13
2528.3
2497.92
2483.67
2493
2542.39
2698.97
3071.59
6480.19
7093.1
6876.06
6266.65
5571.96
4930.07
4383.69
3934.67
3570.65
3276.63
3038.95
2846.25
2689.43
2561.28
2456.1
2369.47
2297.94
2238.87
2190.26
2150.61
2118.77
2093.85
2078.02
2070.57
2072
2084.63
2113.26
2165.5
2251.2
2380.73
2561.87
2796.04
3075.44
3382.84
3694.41
3984.03
4225.5
4391.7
4452.63
4387.95
4213.28
3988.96
3772.81
3561.08
3391.83
3312.39
3344.6
3482.55
3649.5
3725.7
3675.54
3720.87
3982.8
4703.57
5898.09
6865.57
7493.98
7744.1
7725.88
7526.76
7180.81
6730.47
6206.76
5639.93
5061.49
4501.57
3986.34
3536.06
3162.6
2869.57
2653.08
2503.61
2408.79
2355.59
2331.97
2327.86
2335.44
2349.33
2366
2383.32
2400.22
2416.26
2431.06
2444.28
2455.55
2464.51
2470.83
2474.28
2474.81
2472.52
2467.66
2460.59
2451.8
2441.79
2431.08
2420.07
2408.85
2397.2
2384.53
2369.71
2351.42
2327.6
2295.95
2254.71
2210.5
2161.56
2108.25
2051.47
1991.77
1929.56
1865.04
1798.48
1731.06
1664.87
1601.47
1541.64
1485.78
1434.13
1386.81
1343.9
1305.94
1275.62
1254.48
1244.18
1246.1
1261.19
1289.92
1332.21
1387.41
1454.17
1530.33
1612.91
1698.6
1784.02
1865.61
1939.57
2002.03
2049.15
2077.13
2082.11
2060.59
2010.72
1934.68
1840.96
1744.92
1666.34
1621.89
1632.33
1713.4
1883.53
2168.13
2595.14
3179.46
3845.9
4276.09
4037.64
3460.93
2919.91
2571.33
2417.16
2375.68
2369.71
2372.25
2384.57
2400.23
2414.23
2421.35
2413.64
2390.51
2353.55
2306.95
2256.96
2208.11
2163.27
2124.22
2092.43
2069.61
2059.79
2072.12
2165.67
11498.5
9230.46
7425.65
5979.29
4903.99
4129.95
3574.81
3172.39
2875.53
2652.13
2480.57
2346.52
2240.06
2154.19
2083.9
2025.61
1976.78
1935.68
1901.12
1872.39
1849.03
1830.78
1819.01
1815.06
1818.46
1829.07
1847.62
1876.36
1919.9
1985.34
2081.55
2216.79
2395.29
2613.96
2861.3
3119.23
3366.22
3579.55
3736.23
3817.31
3818.58
3757.61
3664.22
3568.41
3496.16
3485.76
3590.96
3842.1
4150.23
4362.59
4615.14
4932.34
5472.61
6122.65
6701.73
6987.04
6994.03
6782.36
6433.6
5998.46
5509.76
4996.93
4485.05
3998.43
3559.22
3184.39
2883.24
2656.46
2497.28
2394.21
2334.02
2304.16
2294.19
2296.32
2305.23
2317.61
2331.6
2346.27
2361.13
2375.87
2390.69
2405.05
2418.38
2430.08
2439.57
2446.28
2449.77
2449.69
2445.84
2438.21
2426.96
2412.5
2395.4
2376.4
2356.36
2336.13
2316.21
2296.87
2278.16
2258.85
2238.3
2213.9
2183.66
2149.56
2111.21
2068.02
2020.52
1969.31
1914.85
1857.59
1798.05
1736.63
1673.77
1610.64
1548.91
1489.72
1433.73
1381.34
1332.79
1288.18
1247.5
1210.95
1178.78
1150.98
1128.15
1111.05
1100.59
1097.72
1103.37
1118.3
1142.94
1177.21
1220.47
1271.52
1328.54
1389.04
1449.86
1507.14
1556.42
1592.76
1611.24
1608.28
1583.77
1543.15
1498.17
1465.98
1465.41
1510.84
1619.16
1811.66
2112.8
2549.32
3116.75
3687.63
3904.04
3494.64
2943.95
2547.99
2344.16
2257.35
2210.32
2176.07
2160.23
2156.37
2157.61
2159.39
2156.93
2144.81
2120.04
2082.53
2035.41
1984.32
1934.82
1890.64
1853.58
1824.68
1804.31
1792.95
1791.17
1815.42
16028
10038.8
6863.45
5028.6
3959.29
3315.85
2908.71
2636.28
2443.79
2301.21
2191.53
2104.51
2033.59
1974.36
1923.84
1880.03
1841.63
1807.78
1778
1752.02
1729.74
1711.17
1696.85
1689.8
1689.83
1696.67
1710.2
1730.82
1760.1
1801.47
1860.6
1944.8
2061.12
2213.29
2398.81
2607.96
2825.33
3032.91
3212.99
3351.38
3441.98
3490.54
3513.97
3537.03
3577.66
3671.83
3914
4351.99
4843.67
5331.57
5549.11
5781.91
6088.23
6332
6406.67
6278
5993.09
5607.81
5170.29
4710.87
4252.18
3814.7
3417
3074.82
2798.09
2589.04
2442.41
2347.78
2292.56
2264.7
2254.31
2254.16
2259.62
2268.05
2278.19
2289.61
2302.22
2315.99
2330.82
2346.61
2362.61
2378.18
2392.64
2405.34
2415.6
2422.82
2426.51
2426.2
2421.58
2412.44
2398.77
2380.78
2358.95
2333.93
2306.68
2278.51
2250.21
2222.23
2195.95
2169.56
2143.82
2114.99
2085.33
2052.63
2016.23
1976.17
1932.72
1886.23
1836.96
1785.14
1731.13
1675.26
1617.68
1558.9
1500.31
1443.2
1388.45
1336.65
1288.2
1243.33
1202.15
1164.66
1131
1100.73
1073.75
1050.05
1029.78
1013.27
1001.01
993.662
991.93
996.513
1007.96
1026.53
1052.1
1083.97
1120.76
1160.29
1199.55
1234.77
1261.89
1277.58
1281.06
1275.81
1270.42
1278.03
1314.87
1397.85
1541.9
1761.55
2077.41
2510.56
3040.18
3509.2
3580
3138.44
2638.62
2351.23
2211.34
2129.06
2063.35
2016.33
1992.57
1979.56
1972.26
1965.36
1956.04
1940.13
1913.87
1876.3
1829.97
1780.22
1732.77
1691.71
1659.11
1635.46
1619.7
1610.78
1608.41
1616.49
19580
9702.43
5734.89
4024.3
3236.56
2825.04
2576.4
2407.12
2281.45
2182.92
2103.02
2036.56
1979.95
1930.43
1886.54
1847.36
1812.29
1780.94
1753.01
1728.25
1706.41
1687.38
1671.55
1661.87
1658.19
1660.47
1668.72
1683.05
1704.07
1733.54
1774.94
1833.63
1916.02
2027.58
2170.25
2340.26
2528.09
2720.55
2904.22
3068.82
3210.17
3331.83
3445.07
3564.73
3697.81
3904.15
4355.39
5102.98
5706.17
5788.06
5836.36
5905.61
5936.54
5866.12
5670.73
5368.23
4997.75
4593.99
4182.99
3783.33
3411.45
3082.42
2807.88
2593.59
2438.2
2334.27
2270.89
2236.51
2221.02
2216.76
2218.69
2223.9
2231.06
2239.74
2249.98
2261.91
2275.56
2290.79
2307.25
2324.44
2341.46
2357.67
2372.48
2385.29
2395.47
2402.58
2406.2
2405.9
2401.33
2392.16
2378.19
2359.39
2336.01
2308.41
2277.12
2243.77
2209.41
2173.72
2140.2
2106.12
2073.15
2040.79
2007.12
1971.46
1933.49
1893.24
1850.93
1806.8
1761.01
1713.57
1664.5
1613.9
1561.73
1508.03
1453.63
1399.7
1347.2
1296.86
1249.21
1204.64
1163.38
1125.55
1091.3
1060.36
1032.52
1007.57
985.303
965.615
948.503
934.105
922.71
914.738
910.698
911.106
916.378
926.698
941.862
961.128
983.108
1005.78
1026.78
1044.14
1057.58
1069.95
1088.16
1123.32
1189.57
1301.74
1472.65
1713.59
2039.01
2461
2945.25
3325.09
3312.56
2893.68
2471.95
2236.69
2115.87
2025.57
1950.55
1900.56
1871.4
1851.12
1836.18
1822.77
1808.23
1789.41
1762.45
1725.7
1681.09
1633.72
1589.41
1552.58
1525.34
1507.24
1496.19
1490.13
1487.87
1489.76
21843.5
8627.02
4585.33
3356.95
2903.35
2663.95
2498.62
2371.41
2268.74
2183.94
2112.73
2051.68
1998.18
1949.97
1906.93
1868.83
1835.28
1806.01
1780.57
1758.32
1738.59
1720.94
1706.19
1696.86
1693
1694.57
1701.14
1712.24
1728.11
1750.13
1781.3
1826.17
1890.34
1979.14
2095.7
2239.14
2404.05
2581.7
2762.79
2940.39
3111.94
3280.31
3452.55
3630.77
3865.03
4363.33
5190.17
5747.3
5797.95
5741.23
5667.66
5567.14
5410.06
5181.59
4888.23
4550.58
4191.74
3830.71
3483.19
3163.26
2883.86
2654.49
2478.93
2354.53
2273.61
2225.96
2201.38
2191.32
2189.63
2192.44
2197.7
2204.63
2213.08
2223.2
2235.09
2248.74
2263.91
2280.21
2297.11
2313.75
2329.45
2343.78
2356.26
2366.33
2373.68
2378.18
2379.64
2377.86
2372.59
2363.53
2350.28
2332.47
2310.16
2283.43
2251.81
2216.77
2180.09
2139.69
2100.69
2062.27
2023.92
1985.35
1946.05
1905.64
1864.02
1821.34
1777.9
1734
1689.76
1645.08
1599.74
1553.55
1506.27
1457.63
1407.87
1357.85
1308.42
1260.32
1214.18
1170.48
1129.59
1091.74
1057.14
1025.74
997.412
971.962
949.153
928.742
910.515
894.32
880.103
867.922
857.955
850.483
845.843
844.359
846.236
851.445
859.621
870.041
881.797
894.286
908.111
926.208
954.819
1003.87
1086.31
1215.91
1404.33
1659.9
1990.18
2396.93
2835.93
3146.05
3096.92
2727.72
2371.46
2167.86
2049.41
1951.31
1872.03
1819.7
1785.97
1760.21
1738.66
1719.63
1701.22
1680.6
1653.78
1618.45
1576
1531.26
1490.11
1457.12
1434.07
1420.1
1413.09
1410.62
1410.82
1412.01
22744.5
7110.72
3764.44
3103.04
2859.8
2685.88
2541.68
2423.26
2325.3
2243.18
2172.93
2111.37
2056.48
2006.26
1962.11
1924.37
1892.37
1865.68
1843.44
1824.33
1807.14
1792.12
1784.53
1783.84
1786.91
1791.49
1797.46
1805.5
1816.86
1833.67
1859.07
1897.11
1952.41
2029.64
2134.94
2263.97
2412.05
2575.92
2750.07
2930.86
3118.68
3316.06
3514.58
3738.54
4199.98
5037.28
5548.56
5642.52
5555.1
5410.78
5239.76
5038.01
4799.25
4525.3
4225.08
3910.92
3595.57
3291.55
3011.55
2767.37
2567.67
2415.69
2308.86
2240.15
2200.42
2180.66
2173.39
2173.28
2177.03
2182.95
2190.38
2199.24
2209.66
2221.74
2235.43
2250.45
2266.3
2282.31
2297.82
2311.67
2323.45
2333.01
2340.02
2344.32
2346.03
2345.3
2342.29
2337.07
2329.66
2319.91
2307.33
2291.15
2271.16
2247.51
2218.67
2184.93
2149.08
2110.44
2069.68
2027.38
1984.01
1939.81
1894.85
1849.19
1803.09
1756.97
1711.31
1666.48
1622.63
1579.63
1537.08
1494.53
1451.52
1407.58
1362.51
1316.75
1270.94
1225.74
1181.76
1139.52
1099.5
1062.03
1027.37
995.658
966.898
940.994
917.771
897
878.43
861.813
846.936
833.646
821.871
811.635
803.048
796.292
791.572
789.06
788.832
790.862
795.134
801.982
812.724
830.562
861.493
914.883
1003.13
1139.78
1336.22
1598.85
1929.08
2318.74
2716.99
2977.45
2923.11
2612.98
2309.9
2123.04
2002.1
1902.85
1823.97
1767.72
1727.92
1696.07
1668.83
1645.28
1624.28
1602.96
1577.01
1543.46
1503.13
1460.53
1421.55
1390.61
1369.44
1357.58
1353.38
1354.42
1358.42
1362.4
22331.8
5607.76
3420.37
3127.78
2947.62
2782.83
2641.06
2524.02
2426.38
2343.13
2270.3
2205.36
2147.26
2095.93
2051.72
2014.87
1985.27
1962.39
1945.49
1933.85
1927.09
1925.46
1928.1
1930.4
1934.67
1940.53
1948.07
1958.05
1971.85
1991.52
2019.62
2059.06
2112.95
2184.31
2275.68
2386.53
2516.92
2665.95
2831.97
3013.48
3207.97
3409.74
3663.71
4131.87
4751.33
5217.15
5361.28
5298.17
5141.95
4948.86
4735.08
4503.12
4253.94
3990.33
3717.21
3441.88
3173.97
2924.82
2705.7
2525.15
2386.85
2289.09
2225.97
2189.55
2171.77
2165.86
2166.85
2171.64
2178.52
2186.82
2196.4
2207.35
2219.74
2233.52
2248.45
2264.06
2279.66
2294.28
2306.59
2315.61
2321.16
2323.36
2322.44
2318.82
2312.92
2305.17
2296.08
2285.91
2275.09
2263.69
2251.19
2236.52
2219.05
2199.01
2175.2
2147.13
2114.57
2077.69
2036.91
1992.76
1945.95
1897.21
1847.16
1796.41
1745.71
1695.86
1647.55
1601.31
1557.34
1515.47
1475.21
1435.89
1396.82
1357.32
1316.91
1275.59
1233.78
1191.97
1150.69
1110.48
1071.84
1035.18
1000.83
969.053
939.991
913.667
890.003
868.84
849.966
833.136
818.095
804.605
792.466
781.537
771.75
763.113
755.707
749.672
745.19
742.505
742.021
744.561
751.857
767.272
796.661
849.027
936.449
1072.52
1268.9
1531.2
1856.43
2228.24
2592.15
2820.43
2779.75
2529.07
2270.41
2093.94
1971.4
1873.52
1795.29
1735.47
1689.52
1651.49
1619.2
1592.27
1569.76
1548.56
1523.84
1491.92
1453.03
1411.38
1372.71
1341.57
1320.27
1308.99
1306.46
1310.37
1318.3
1326.74
20732.5
4596.99
3448.65
3260.55
3087.93
2925.28
2784.93
2667.46
2567.95
2481.59
2404.91
2336.2
2275.2
2222.42
2178.53
2143.95
2118.74
2102.49
2094.34
2093.01
2097.22
2105.93
2112
2119.52
2128.69
2139.55
2152.45
2168.14
2187.82
2213.12
2246.02
2288.75
2343.74
2413.38
2499.83
2604.43
2727.92
2869.7
3028
3201.86
3398.38
3650.16
4015.45
4464.53
4829.8
5000.2
4983.89
4858.86
4682.65
4483.96
4273.19
4053.22
3824.62
3588.42
3348.07
3110.56
2885.87
2684.81
2516.25
2384.79
2290.11
2227.82
2191.21
2173.12
2167.21
2168.65
2174.19
2181.95
2191.06
2201.23
2212.51
2225.01
2238.75
2253.59
2269.12
2284.59
2298.99
2311.01
2318.44
2320.97
2318.63
2312
2302.1
2289.71
2275.49
2260.2
2244.65
2229.04
2214.48
2201.06
2188.21
2175.29
2161.38
2145.36
2126.13
2102.61
2073.96
2039.73
1999.91
1954.89
1905.54
1853.04
1798.53
1743.12
1688.06
1634.57
1583.64
1535.94
1491.72
1450.83
1412.69
1376.46
1341.23
1306.1
1270.36
1233.66
1196.15
1158.13
1120.03
1082.35
1045.57
1010.18
976.507
944.966
915.812
889.179
865.095
843.496
824.241
807.129
791.925
778.379
766.244
755.3
745.372
736.346
728.18
720.917
714.704
709.828
706.824
706.697
711.322
724.07
750.581
799.47
882.428
1012.98
1203.22
1458.8
1774.28
2127.81
2463.89
2673.6
2656.47
2461.8
2242.29
2075.66
1953.4
1857.05
1779.41
1716.78
1665.18
1621.42
1584.88
1555.58
1532.43
1511.8
1488.18
1457.15
1418.34
1375.76
1335.36
1302.36
1279.73
1268.05
1266.26
1272.22
1283.51
1296.54
18134.4
4355.42
3604.05
3428.37
3259.24
3101.71
2964.76
2848.56
2748.92
2661.41
2583.05
2512.75
2450.82
2398.14
2355.48
2323.29
2301.68
2290.49
2289.24
2297.31
2308.61
2318.79
2331.82
2347.62
2366.01
2387.01
2410.91
2438.34
2470.2
2507.64
2552.02
2604.75
2667.25
2740.78
2826.22
2923.93
3033.97
3156.79
3295.32
3458.5
3662.46
3918.89
4206.62
4459.47
4609.79
4637.56
4565.68
4434.33
4272.44
4095.28
3908.77
3714.15
3511.32
3301.77
3090.43
2885.8
2698.08
2536.48
2406.82
2310.47
2244.83
2204.65
2183.69
2176.02
2176.77
2182.38
2190.59
2200.13
2210.45
2221.45
2233.22
2245.91
2259.58
2274.11
2289.14
2303.87
2316.73
2323.93
2324.5
2319.18
2308.52
2293.52
2275.29
2254.89
2233.3
2211.52
2190.48
2171
2153.64
2138.59
2125.63
2114.05
2102.76
2090.32
2075.11
2055.55
2030.23
1998.17
1958.98
1912.95
1861.09
1804.96
1746.21
1686.49
1627.43
1570.63
1517.36
1468.43
1424.17
1384.4
1348.47
1315.4
1284.09
1253.42
1222.47
1190.59
1157.64
1123.77
1089.25
1054.51
1020.04
986.308
953.686
922.702
893.702
866.924
842.503
820.472
800.773
783.277
767.796
754.104
741.957
731.111
721.341
712.462
704.344
696.944
690.331
684.746
680.71
679.232
682.16
692.731
716.275
760.907
837.751
960
1139.95
1383.78
1685.32
2020.06
2333.79
2534.45
2544.91
2401.53
2218.35
2063.68
1943.68
1848.43
1770.52
1705
1648.89
1601.07
1561.83
1531.42
1508.38
1488.42
1465.26
1433.78
1393.22
1347.74
1304.06
1268.2
1243.57
1230.97
1229.46
1237.01
1251.13
1268.27
15298
4221.58
3775.58
3615.08
3457.12
3310.89
3182.93
3074
2980.92
2899.67
2827.36
2762.9
2706.94
2661.15
2627.24
2606.29
2598.9
2604.59
2611.94
2620.43
2633.18
2651.67
2674.96
2702.24
2732.86
2766.35
2802.42
2840.96
2882.05
2925.89
2972.8
3023.19
3077.52
3136.3
3200.15
3270.12
3348.13
3437.51
3543.15
3670.02
3819.18
3981.77
4135.49
4249.94
4301.23
4284.24
4210.76
4099.44
3964.74
3814.87
3653.11
3480.36
3297.84
3109.24
2921.52
2743.95
2585.79
2453.97
2351.73
2278.51
2230.83
2203.64
2191.54
2189.66
2194.33
2202.35
2211.88
2222
2232.31
2242.75
2253.41
2264.43
2275.89
2287.74
2299.64
2310.7
2318.63
2318.92
2312.59
2300.56
2283.64
2262.72
2238.8
2212.98
2186.42
2160.24
2135.55
2113.33
2094.29
2078.72
2066.43
2056.61
2047.96
2038.67
2026.7
2009.96
1986.58
1955.21
1915.26
1867.09
1811.97
1751.77
1688.61
1624.65
1561.92
1502.24
1447.1
1397.44
1353.58
1315.33
1281.94
1252.32
1225.17
1199.19
1173.22
1146.41
1118.29
1088.85
1058.25
1026.8
994.977
963.252
932.002
901.863
873.261
846.524
821.881
799.46
779.294
761.331
745.449
731.469
719.175
708.33
698.698
690.06
682.24
675.129
668.724
663.198
659
657.06
659.103
668.143
689.119
729.545
799.801
912.443
1079.66
1308.18
1592.4
1907.64
2202.89
2400.41
2438.88
2341.88
2193.52
2053.65
1938.03
1843.76
1764.87
1696.68
1637.46
1587.39
1547.19
1516.88
1494.46
1474.89
1451.14
1417.5
1373.23
1323.22
1275.18
1235.85
1209.01
1195.59
1194.61
1203.95
1220.95
1242.03
12394.2
4174.07
3948.9
3812.84
3676.87
3551.64
3442.73
3352.59
3280
3222.47
3177.89
3144.63
3121.76
3109.24
3106.74
3105.21
3103.52
3102.09
3109.23
3123.93
3145.01
3171.16
3200.91
3232.87
3265.67
3298.12
3329.2
3358.11
3384.34
3407.73
3428.48
3447.2
3464.95
3483.26
3503.96
3529.08
3561.02
3602.75
3657.32
3726.48
3808.93
3897.94
3980.36
4039.57
4061.68
4041.24
3981.74
3891.34
3777.65
3645.82
3498.75
3338.72
3169.03
2995.36
2825.55
2668.31
2531.14
2418.54
2331.19
2273.23
2236.79
2216.86
2209.09
2209.56
2215.25
2223.58
2232.96
2242.44
2251.56
2260.16
2268.26
2275.93
2283.21
2289.99
2295.9
2300.08
2300.07
2294.28
2282.75
2265.92
2244.56
2219.61
2192.11
2163.21
2134.07
2105.94
2080.01
2057.35
2038.75
2024.5
2014.32
2007.19
2001.46
1994.94
1985.11
1969.46
1945.82
1912.73
1869.7
1817.37
1757.44
1692.3
1624.46
1556.29
1490.16
1428.13
1371.78
1322.07
1279.32
1243.23
1212.96
1187.27
1164.7
1143.76
1123.08
1101.6
1078.6
1053.83
1027.36
999.46
970.528
941.03
911.388
882.332
854.34
827.812
803.061
780.307
759.672
741.187
724.8
710.391
697.786
686.779
677.142
668.653
661.112
654.373
648.382
643.243
639.327
637.452
639.179
647.25
666.165
702.773
766.588
869.289
1022.6
1233.68
1498.16
1793.08
2072.07
2269.33
2334.14
2278.77
2164.14
2041.8
1932.92
1840.32
1760.65
1690.75
1630.17
1579.64
1539.8
1510.25
1488.38
1468.44
1442.64
1404.94
1355.09
1299.14
1245.98
1203.09
1174.5
1161.04
1161.48
1173.43
1193.97
1219.37
9634.37
4223.22
4107.33
4006.86
3905.14
3811.74
3732.25
3670.35
3625.45
3595.02
3576.89
3568.99
3564.58
3558.69
3551.55
3550.56
3556.58
3569.01
3587.39
3610.7
3637.71
3667.07
3697.36
3727.15
3755.1
3779.97
3800.66
3816.32
3826.36
3830.41
3828.34
3820.75
3804.78
3781.98
3756
3731.92
3716.07
3715.38
3736.26
3778.8
3831.48
3888.72
3941.23
3977.4
3986.8
3963.51
3907.31
3821.91
3712.24
3582.94
3437.8
3280.72
3116.22
2948.8
2782.6
2641.1
2520.22
2421.35
2345.73
2293.59
2259.83
2240.47
2231.95
2231.07
2235.12
2241.84
2249.6
2257.3
2264.27
2270.18
2274.9
2278.38
2280.6
2281.4
2280.43
2277.04
2269.21
2257.03
2240.47
2219.76
2195.47
2168.36
2139.39
2109.65
2080.33
2052.69
2028
2007.33
1991.41
1980.39
1973.69
1969.94
1967.01
1962.22
1952.64
1935.5
1908.58
1870.65
1821.67
1762.85
1696.46
1625.34
1552.38
1480.15
1411.08
1347.4
1290.73
1241.95
1201.28
1168.28
1141.95
1120.9
1103.49
1088.05
1073.03
1057.15
1039.52
1019.65
997.464
973.2
947.26
920.022
892.145
864.321
837.065
810.845
786.059
763.008
741.9
722.844
705.861
690.893
677.82
666.47
656.646
648.134
640.734
634.281
628.691
624.015
620.55
619
620.75
628.257
645.562
678.821
736.62
829.615
968.8
1161.49
1404.8
1678.66
1942.25
2139.84
2227.94
2209.63
2127.64
2025.16
1925.63
1836.37
1757.25
1687.29
1627.12
1577.52
1538.74
1510
1488.16
1466.67
1437.01
1393.15
1335.9
1272.96
1214.56
1168.75
1139.54
1127.37
1130.57
1146.35
1171.37
1201.67
7238.85
4238.36
4224.5
4169.9
4109.66
4051.49
4001.41
3964.22
3939.94
3924.92
3910.53
3896.19
3885.53
3881.51
3883.6
3891.9
3906.27
3926.52
3952.39
3983.51
4019.43
4059.55
4103.13
4149.32
4197.09
4245.33
4292.85
4338.32
4380.29
4417.25
4446.96
4460.45
4460.24
4446.46
4419.16
4379.09
4328.08
4269.49
4208.72
4156.59
4130.14
4135.84
4150.74
4152.18
4131.76
4083.66
4006.26
3901.97
3774.71
3628.89
3463.42
3290.75
3126.17
2963.32
2810.35
2677.23
2563.11
2468.46
2393.99
2338.9
2300.33
2275.28
2260.89
2254.48
2253.6
2256.11
2260.26
2264.72
2268.56
2271.16
2272.18
2271.39
2268.66
2263.83
2256.62
2246.33
2232.27
2214.94
2194.38
2170.85
2144.79
2116.86
2087.93
2059.07
2031.48
2006.44
1985.15
1968.59
1957.24
1950.86
1948.39
1947.86
1946.58
1941.37
1929.05
1906.84
1872.91
1826.63
1768.75
1701.27
1627.02
1549.23
1471
1395.06
1323.85
1259.61
1203.85
1157.3
1119.99
1091.28
1069.97
1054.48
1042.98
1033.63
1024.68
1014.68
1002.57
987.728
969.898
949.239
926.197
901.157
874.99
848.315
821.724
795.756
770.876
747.462
725.796
706.063
688.353
672.671
658.949
647.062
636.842
628.102
620.65
614.321
609.012
604.739
601.736
600.601
602.544
609.731
625.739
656.025
708.216
791.866
917.052
1091.01
1312.31
1564.36
1812.34
2009.25
2117.08
2131.76
2081.51
2001.1
1913.96
1830.69
1754.48
1686.53
1628.16
1580.1
1542.43
1514.13
1491.48
1466.94
1431.29
1379.11
1313.05
1242.81
1179.85
1132.52
1104.42
1095.32
1102.89
1123.78
1154.18
1189.74
5329.54
4189.39
4276.64
4277.61
4264.08
4241.26
4216.86
4194.71
4174.11
4154.47
4141.15
4133.28
4131.11
4135.08
4145.72
4163.72
4189.87
4224.94
4269.59
4324.19
4388.73
4462.69
4544.97
4633.96
4727.56
4823.25
4918.24
5009.69
5095.24
5173.4
5234.92
5285.78
5326.33
5356.86
5377.1
5385.61
5379.07
5352.05
5297.35
5207.48
5077.33
4908.38
4739.79
4615.96
4524.3
4415.84
4285.89
4130.26
3945.37
3767.39
3581.71
3400.01
3226.54
3060.87
2908.21
2772.82
2655.17
2555.34
2473.37
2408.53
2359.13
2323.08
2298.15
2282.07
2272.66
2267.89
2265.94
2265.31
2264.77
2263.44
2260.67
2256.04
2249.23
2240.02
2228.17
2212.8
2194.54
2173.53
2150.04
2124.46
2097.37
2069.52
2041.84
2015.41
1991.44
1971.12
1955.46
1945.06
1939.88
1939
1940.55
1941.82
1939.49
1930.06
1910.4
1878.27
1832.68
1774.08
1704.25
1626.01
1542.74
1457.93
1374.78
1296
1224.04
1160.93
1107.95
1065.56
1033.5
1010.85
996.179
987.652
983.243
980.896
978.695
975.02
968.659
958.882
945.395
928.247
907.813
884.824
860.224
834.645
808.713
783.018
758.085
734.355
712.174
691.79
673.354
656.925
642.487
629.957
619.204
610.067
602.376
595.973
590.753
586.712
584.037
583.242
585.382
592.359
607.323
635.081
682.362
757.641
870.014
1026.41
1226.61
1457.36
1689.58
1883.75
2006.29
2048.28
2026.96
1969.2
1896.78
1822.24
1751.51
1687.42
1631.71
1585.33
1548.54
1520.22
1495.72
1466.24
1422.25
1359.82
1284.2
1207.25
1141.34
1094.63
1069.88
1065.93
1079.63
1106.93
1143.4
1184.23
4212.42
4059.65
4225.12
4282.98
4318.57
4336.82
4341.66
4341.25
4340.64
4340.85
4343.01
4348.2
4357.82
4373.41
4396.77
4429.85
4474.57
4532.61
4605.04
4692.07
4792.75
4904.93
5025.36
5149.99
5274.37
5394.22
5505.79
5605.9
5691.63
5759.22
5812.64
5855.18
5889.08
5918.09
5947.38
5982.42
6026.95
6080.41
6135.72
6178.04
6184.83
6127.1
5971.33
5682.74
5307.87
5003.54
4731.2
4494.76
4263.47
4039.78
3821.06
3613.42
3419.06
3238.45
3073.62
2926.13
2796.22
2683.61
2587.86
2508.25
2443.59
2392.39
2352.92
2323.33
2301.73
2286.26
2275.14
2266.77
2259.78
2253.03
2245.62
2236.88
2226.32
2213.56
2198.19
2179.95
2159.39
2136.72
2112.33
2086.74
2060.63
2034.86
2010.44
1988.47
1970.09
1956.27
1947.62
1944.12
1944.92
1948.2
1951.23
1950.59
1942.62
1923.97
1892.14
1845.91