/*--------------------------------*- C++ -*----------------------------------*\
| =========                 |                                                 |
| \\      /  F ield         | OpenFOAM: The Open Source CFD Toolbox           |
|  \\    /   O peration     | Version:  2112                                  |
|   \\  /    A nd           | Website:  www.openfoam.com                      |
|    \\/     M anipulation  |                                                 |
\*---------------------------------------------------------------------------*/
FoamFile
{
    version     2.0;
    format      ascii;
    arch        "LSB;label=32;scalar=64";
    class       volScalarField;
    location    "0.31";
    object      omega_0;
}
// * * * * * * * * * * * * * * * * * * * * * * * * * * * * * * * * * * * * * //

dimensions      [0 0 -1 0 0 0 0];

internalField   nonuniform List<scalar> 
12885
(
32916.1
68232
81845.1
86499.3
87507.5
87245.7
86537.8
85652.4
84870.4
84098.9
83082
81716.4
80254.8
78936.5
77838.1
76979.1
76312
75627.5
74701.1
73585.2
72469.3
71424.2
70467.1
69642.9
68968.7
68421.1
67919.3
67392
66822.4
66229.3
65628.3
65041.7
64454.2
63906.6
63336.3
62873.2
62296.2
61971.9
61605.1
60486.5
2065.18
7158.8
10587.2
13704.9
17899.8
21596.7
24013.9
25289.9
26015.4
26653.9
27614.8
29771.6
31886.6
33313.9
34053.1
34346.6
34530.3
34797.1
35371.4
36393
37323
37850.1
37869.1
37733.2
37354.2
36919.1
36596.8
36331.3
36068.3
35713.9
35232.6
34594.1
33836.8
33012.6
32206.9
31452.6
30885
30342.8
30361.7
30627.3
269.458
832.384
1310.33
1785.61
2272.6
3257.01
4176.46
4778.21
5229.84
5603.41
6008.94
6813.9
8148.72
9439.06
10358.6
11057.4
11571.7
11983.7
12457.5
13192.7
14213
15353.9
16433.6
17340.1
18018.9
18477.6
18822.3
19107.1
19412
19724.2
20073.6
20402.9
20730.8
20990.4
21220.9
21359
21482.6
21523.3
21564.2
21684.8
87.5504
223.104
343.675
460.891
580.203
779.007
978.013
1142.82
1285.78
1386.2
1470.49
1627.47
1853.42
2106.64
2344.98
2527.19
2711.62
2876.28
3017.54
3262.31
3542.86
3960.57
4397.57
4917.79
5349.87
5785.33
6103.14
6426.83
6670.06
6964.78
7209.55
7541.95
7830.95
8240.57
8595.45
9080.91
9472.12
9994.97
10372.4
10889.7
51.1659
104.081
149.891
194.698
241.67
301.861
363.412
421.686
475.256
514.399
546.149
591.776
649.452
716.928
787.672
846.757
907.251
969.596
1017.15
1080.86
1135.8
1216.17
1294.37
1397.03
1489.41
1593.84
1676.2
1770.85
1835.24
1926.09
1988.03
2105.81
2192.02
2340.64
2448.21
2628.86
2757.27
2973.03
3121.89
3368.88
42.9097
64.8922
88.456
110.614
133.817
159.911
186.691
213.27
238.21
258.086
274.858
294.399
316.824
342.543
369.869
395.257
420.389
446.56
468.304
490.055
508.293
530.316
552.31
578.965
605.739
635.091
661.645
690.451
713.72
741.511
763.562
794.516
820.348
855.714
883.599
923.943
953.357
1000.65
1030.4
1086.21
40.7099
49.3381
63.3555
75.7772
88.8235
102.703
116.91
131.159
144.664
156.216
166.405
177.028
188.454
200.984
214.137
227.035
239.769
252.615
264.288
275.129
284.633
294.268
303.852
314.264
325.066
336.423
347.555
358.938
369.547
380.394
390.378
400.893
410.847
421.71
431.931
443.546
454.053
466.927
477.061
492.384
40.0291
43.3957
51.037
58.8212
66.752
75.0226
83.4716
91.9435
100.043
107.327
113.98
120.586
127.394
134.557
141.953
149.338
156.651
163.883
170.707
177.051
182.834
188.363
193.753
199.226
204.798
210.482
216.163
221.854
227.415
232.926
238.282
243.6
248.798
254.015
259.162
264.421
269.572
274.998
280.125
286.538
39.788
41.1666
44.7942
49.8574
54.851
60.0697
65.4223
70.7977
75.993
80.8401
85.3956
89.8333
94.2734
98.8101
103.422
108.037
112.613
117.108
121.419
125.485
129.283
132.883
136.348
139.755
143.141
146.522
149.889
153.234
156.543
159.826
163.079
166.311
169.494
172.72
176.04
179.417
182.788
186.122
189.265
192.746
39.6923
40.2821
41.8857
44.8886
48.118
51.4728
54.9653
58.506
61.9819
65.326
68.5677
71.6967
74.7409
77.8031
80.8793
83.9507
86.9991
89.9995
92.9089
95.6923
98.333
100.844
103.249
105.58
107.861
110.109
112.334
114.536
116.74
118.99
121.28
123.593
125.898
128.146
130.327
132.464
134.555
136.578
138.441
140.411
39.6512
39.9168
40.6389
42.1714
44.1949
46.3852
48.688
51.0632
53.4506
55.8032
58.1094
60.3821
62.6045
64.7721
66.9146
69.0468
71.1758
73.2933
75.3752
77.3933
79.3276
81.1723
82.9346
84.6302
86.278
87.8963
89.4992
91.0919
92.6665
94.2195
95.7614
97.2951
98.8171
100.27
101.613
102.864
104.043
105.161
106.216
107.34
39.6313
39.7567
40.0947
40.8317
41.9712
43.3341
44.8195
46.3831
47.9812
49.5766
51.1576
52.7719
54.4128
56.0198
57.5965
59.1486
60.6805
62.1925
63.679
65.1308
66.5391
67.8985
69.2087
70.4734
71.6992
72.8941
74.0655
75.2176
76.3346
77.3884
78.3819
79.3236
80.2219
81.0768
81.8855
82.6494
83.3724
84.0598
84.7175
85.4154
39.6197
39.6707
39.8138
40.1315
40.6798
41.3905
42.2162
43.1173
44.0552
45.0048
45.9756
46.9985
48.0775
49.1865
50.2974
51.3862
52.4384
53.4505
54.4279
55.3791
56.3121
57.2314
58.1372
59.0261
59.8926
60.7311
61.5375
62.3089
63.0415
63.7298
64.3721
64.97
65.5278
66.0517
66.5475
67.0194
67.4705
67.9035
68.3226
68.7634
39.6134
39.6263
39.6715
39.7792
39.9897
40.2862
40.6444
41.0488
41.4871
41.9508
42.4435
42.9752
43.5501
44.1604
44.7889
45.4158
46.0258
46.6118
47.1751
47.722
48.26
48.7947
49.3285
49.8599
50.3843
50.8961
51.3892
51.8591
52.3035
52.7215
53.1134
53.4803
53.8239
54.1467
54.4515
54.7411
55.0176
55.2832
55.5412
55.8069
39.6092
39.6079
39.6147
39.6383
39.6919
39.7839
39.904
40.0429
40.1985
40.3717
40.5634
40.775
41.0069
41.2572
41.5205
41.7902
42.0603
42.3267
42.588
42.8447
43.0983
43.3506
43.6026
43.854
44.1041
44.3509
44.5925
44.8269
45.0527
45.269
45.4755
45.6721
45.8592
46.0372
46.207
46.3692
46.5247
46.6742
46.8195
46.9659
39.6083
39.5998
39.5942
39.5946
39.6
39.6143
39.6408
39.6754
39.716
39.7631
39.8172
39.8784
39.9464
40.0208
40.1005
40.1843
40.2708
40.3589
40.448
40.5377
40.6278
40.7182
40.809
40.9001
40.9912
41.082
41.1723
41.2615
41.3493
41.4354
41.5194
41.6012
41.6807
41.7578
41.8325
41.9049
41.975
42.0431
42.1095
42.1759
39.6079
39.5977
39.5888
39.5817
39.5768
39.5748
39.5757
39.5791
39.5857
39.5948
39.6062
39.6201
39.6361
39.6543
39.6744
39.6962
39.7195
39.744
39.7695
39.796
39.8233
39.8512
39.8798
39.9088
39.9383
39.9681
39.9981
40.0282
40.0584
40.0885
40.1183
40.148
40.1773
40.2062
40.2347
40.2627
40.2903
40.3174
40.3444
40.3719
39.6078
39.5974
39.5882
39.5807
39.5752
39.5724
39.5729
39.5756
39.5816
39.5907
39.602
39.6157
39.6315
39.6493
39.6689
39.6902
39.7131
39.7372
39.7626
39.789
39.8164
39.8446
39.8736
39.9033
39.9336
39.9643
39.9954
40.0268
40.0584
40.0902
40.122
40.1538
40.1855
40.2172
40.2487
40.28
40.3111
40.3419
40.3722
40.4019
39.608
39.5995
39.5948
39.5963
39.6041
39.6228
39.6557
39.7017
39.7596
39.8259
39.8989
39.9791
40.0661
40.1593
40.2579
40.3611
40.4679
40.5778
40.69
40.8044
40.9207
41.0389
41.1587
41.2799
41.4019
41.5244
41.6468
41.7689
41.8902
42.0106
42.13
42.2483
42.3654
42.4813
42.596
42.7093
42.8213
42.9318
43.0405
43.147
39.6089
39.609
39.6181
39.6462
39.7051
39.7992
39.9266
40.0849
40.2678
40.4657
40.6776
40.9044
41.1451
41.3982
41.6608
41.9299
42.2025
42.4768
42.7522
43.0292
43.3083
43.5893
43.8713
44.1533
44.4339
44.7119
44.9861
45.256
45.521
45.781
46.036
46.2861
46.5315
46.7724
47.0087
47.2406
47.4679
47.6905
47.9079
48.1195
39.6147
39.6373
39.7037
39.8456
40.0778
40.3917
40.7765
41.2176
41.6974
42.2041
42.7372
43.2925
43.8675
44.4594
45.0616
45.6657
46.2649
46.8561
47.4402
48.0201
48.5973
49.1671
49.7271
50.2765
50.8144
51.3404
51.8542
52.3554
52.8438
53.3192
53.7816
54.2308
54.6667
55.0893
55.4988
55.8954
56.2792
56.6504
57.009
57.3547
39.6306
39.7472
40.0246
40.5262
41.2141
42.058
43.0167
44.0482
45.1184
46.2142
47.3274
48.4525
49.5915
50.7397
51.8861
53.0197
54.1327
55.2205
56.2821
57.3175
58.3243
59.2999
60.2486
61.1741
62.0786
62.9632
63.8279
64.6719
65.494
66.2925
67.0661
67.8134
68.5338
69.227
69.8934
70.5337
71.1491
71.7407
72.3091
72.8537
39.6874
40.1386
41.1005
42.5007
44.2142
46.1651
48.2587
50.4084
52.5487
54.64
56.684
58.7183
60.7617
62.8056
64.8342
66.8321
68.784
70.6748
72.4921
74.2299
75.8933
77.5064
79.0872
80.6458
82.1856
83.7049
85.1994
86.6638
88.0921
89.4793
90.8213
92.1153
93.3602
94.5563
95.7049
96.8085
97.8704
98.8939
99.8812
100.827
39.8767
41.4515
44.2744
47.6599
51.4687
55.6175
59.9178
64.2013
68.3523
72.2587
75.9496
79.6087
83.3587
87.1808
91.0024
94.7553
98.3814
101.831
105.08
108.136
111.053
113.9
116.733
119.584
122.456
125.323
128.166
130.963
133.69
136.333
138.878
141.32
143.661
145.905
148.06
150.131
152.129
154.062
155.946
157.741
40.5097
45.7778
52.9945
60.6458
68.8347
77.6921
86.7178
95.5211
103.96
111.554
118.337
125.256
132.909
141.043
149.224
157.178
164.735
171.743
178.148
183.982
189.522
195.084
200.846
206.919
213.264
219.62
225.955
232.182
238.202
243.988
249.506
254.751
259.825
264.77
269.625
274.361
279.023
283.562
288.154
292.462
42.9801
59.8173
78.0147
95.7709
114.681
135.888
157.277
177.554
197.178
213.775
226.926
241.75
261.637
284.05
306.184
326.853
345.771
362.536
377.267
390.036
402.487
416.167
431.382
448.588
467.612
485.598
503.567
520.903
537.109
552.584
567.229
581.289
596.669
612.774
629.886
646.774
664.292
680.965
698.895
715.256
55.3979
112.238
165.337
214.339
269.329
335.407
400.827
459.199
516.335
560.825
591.844
635.929
717.543
811.647
897.822
970.177
1031.4
1081.64
1123.86
1159.98
1202.01
1257.05
1323.26
1400.85
1489.11
1560.81
1630.81
1693.31
1746.79
1796.86
1845.57
1893.34
1960.96
2039.41
2132.9
2227.62
2331.35
2431.33
2540.27
2641.8
133.336
399.413
634.075
838.245
1097.28
1421.64
1727.84
1972.91
2187.43
2337.96
2479.6
2706.67
3201.62
3783.35
4255.7
4577.58
4807.33
4989.39
5132.15
5300.18
5590.37
5993.74
6484.73
7014.49
7517.97
7927.88
8227.38
8449.58
8632.2
8769.21
8922.75
9111.74
9354.98
9631.9
9948.11
10266.2
10601.1
10917.9
11233.8
11512.9
918.383
3675.32
5751.64
7387.17
9720.36
12308.1
14297.1
15545.8
16198.4
16624.6
17166.1
18159.1
19502.7
20698.8
21534.6
21996.6
22218.3
22383
22588
22904.6
23622.5
24470.7
25229.7
25829.1
26260.3
26525.1
26639
26668.9
26692.9
26751.8
26892.5
27178.8
27501.8
27824
28106.2
28329.7
28504.3
28628.9
28663.6
28652.4
18306.6
43956.4
57131.9
63289.5
65911.6
66812.1
66860.3
66740.6
66482.4
66225.2
65916.7
65414.8
64732.9
64027.7
63394.4
62861.5
62448
62162.9
61922.6
61553.6
60977
60296.4
59629.4
59030.8
58505.2
58042.8
57663.9
57414.6
57284.6
57168.8
56960.2
56635.9
56232.9
55804
55385.3
54995.1
54635
54302
53991.8
53713.9
95.2617
95.2998
95.3822
95.5139
95.7013
95.951
96.2699
96.6649
97.1428
97.7095
98.3699
99.1514
100.087
101.179
102.434
103.861
105.475
107.288
109.315
111.574
114.089
116.885
119.997
123.467
127.346
131.692
136.546
141.934
148.063
155.212
163.546
173.316
184.843
198.531
214.877
234.474
257.962
286.71
322.812
367.963
424.247
494.542
582.574
693.086
831.962
1021.84
1279.51
1594.36
1969.82
2406.65
2902.19
3450.94
4045.3
4676.46
5335.3
6013.1
6702.02
7395.23
8087.07
8772.87
9448.93
10112.3
10760.6
11392.1
12005.3
12599.3
13173.1
13726.2
14258.2
14768.8
15257.9
15725.4
16171.4
16596
16999.4
17381.7
17743.2
18084.1
18404.6
18704.9
18985.3
19245.8
19486.8
19708.3
19910.6
20093.9
20258.2
20403.8
20530.8
20639.2
20729.3
20801.3
20856.3
20889.3
20904.4
20904.9
20884.3
20846.9
20791.3
20718.4
20628
20520.4
20395.7
20254
20095.6
19920.6
19729.1
19521.4
19297.4
19057.4
18801.5
18529.7
18242
17938.5
17619.2
17283.9
16932.5
16564.8
16180
15778.1
15358.8
14920.3
14462.3
13983.3
13481.9
12956.3
12404.3
11824
11214.4
10571.9
9896.05
9185.98
8442.61
7669.01
6871.47
6060.48
5251.43
4464.51
3723.1
3050.43
2465.1
1977.13
1586.45
1284.58
1058.07
892.359
774.173
692.944
640.912
613.658
603.72
608.016
627.598
663.799
715.835
784.204
869.71
973.316
1095.89
1238.06
1400.1
1581.87
1782.75
2001.74
2237.51
2488.45
2752.89
3029.06
3315.42
3610.01
3912.15
4218.29
4531.63
4839.24
5163.47
5445.52
5797.05
5972.64
6383.84
6285.89
95.3388
95.3742
95.4527
95.5794
95.7603
96.0019
96.311
96.6948
97.1607
97.7166
98.3725
99.1462
100.057
101.117
102.335
103.725
105.3
107.075
109.07
111.304
113.801
116.592
119.71
123.199
127.109
131.494
136.409
141.914
148.178
155.432
163.87
173.737
185.344
199.073
215.397
234.877
258.186
286.501
321.434
364.438
417.205
481.921
561.281
658.506
777.325
934.541
1139.29
1378.23
1649.84
1950.72
2275.69
2618.75
2973.72
3334.8
3697.01
4056.37
4409.83
4755.18
5090.9
5415.98
5729.8
6032
6322.41
6601
6867.81
7122.95
7366.59
7598.9
7820.1
8030.41
8230.06
8419.29
8598.34
8767.43
8926.81
9076.68
9217.25
9348.71
9471.25
9585.03
9690.19
9786.9
9875.28
9955.47
10027.6
10091.8
10148.2
10196.8
10237.9
10271.4
10297.5
10316.3
10328.1
10331.1
10328.5
10320.7
10305
10282.5
10253.5
10217.8
10175.8
10127.4
10072.9
10012.3
9945.73
9873.33
9795.23
9711.5
9622.25
9527.56
9427.5
9322.13
9211.5
9095.63
8974.51
8848.1
8716.31
8579.02
8436.06
8287
8131.43
7969.17
7799.23
7620.99
7433.28
7234.85
7024.08
6799.21
6557.64
6297.42
6015.48
5709.1
5375.64
5013.23
4621.53
4202.7
3762.48
3310.95
2862.38
2433.59
2041.06
1697.47
1409.37
1176.97
995.656
858.343
757.426
686.203
639.378
613.705
603.919
607.595
624.857
656.523
701.802
760.795
833.78
921.066
1022.8
1138.85
1268.72
1411.55
1566.07
1730.73
1903.76
2083.28
2267.48
2454.58
2643.13
2831.57
3019.28
3204.13
3388.03
3563.85
3744.58
3898.27
4086.78
4181.94
4394.14
4405.89
95.529
95.5592
95.6321
95.7523
95.9259
96.1593
96.4592
96.833
97.2887
97.8353
98.4836
99.2475
100.142
101.181
102.377
103.745
105.299
107.056
109.037
111.263
113.761
116.562
119.701
123.223
127.179
131.627
136.632
142.276
148.708
156.129
164.74
174.786
186.569
200.458
216.905
236.454
259.783
287.925
322.227
363.992
414.663
475.995
550.023
639.013
745.337
882.292
1054.52
1247.68
1458.17
1681.37
1912.11
2145.49
2377.34
2604.44
2824.49
3036.11
3238.57
3431.61
3615.28
3789.81
3955.52
4112.76
4261.9
4403.28
4537.25
4664.1
4784.15
4897.65
5004.86
5106.03
5201.38
5291.11
5375.43
5454.5
5528.51
5597.58
5661.87
5721.5
5776.58
5827.22
5873.52
5915.57
5953.47
5987.31
6017.17
6043.13
6065.27
6083.67
6098.39
6109.51
6117.1
6121.1
6121.66
6118.72
6113.08
6104.94
6093.18
6078.49
6061.1
6040.69
6017.78
5992.12
5964.04
5933.46
5900.59
5865.42
5828.1
5788.65
5747.18
5703.74
5658.39
5611.18
5562.16
5511.37
5458.8
5404.48
5348.37
5290.42
5230.63
5168.62
5104.17
5037.47
4967.69
4894.62
4817.48
4735.58
4647.93
4553.03
4448.82
4333.96
4205.43
4060.54
3896.01
3708.64
3495.7
3255.77
2989.74
2701.92
2400.62
2097.76
1807
1541.05
1308.99
1115.09
959.163
838.044
747.167
681.946
638.46
614.063
604.454
607.527
623.175
652.03
693.279
746.78
812.495
890.352
980.079
1081.11
1192.53
1313.08
1441.17
1575
1712.67
1852.26
1992.01
2130.33
2266
2397.87
2525.54
2647.74
2765.91
2875.92
2986.09
3077.75
3188.14
3244.18
3364.6
3404.33
95.8769
95.8989
95.9637
96.0759
96.2413
96.4662
96.7574
97.1225
97.5698
98.1086
98.7498
99.5058
100.39
101.417
102.601
103.957
105.503
107.257
109.24
111.477
113.995
116.829
120.017
123.603
127.643
132.199
137.344
143.176
149.834
157.498
166.375
176.71
188.799
203.008
219.774
239.634
263.254
291.561
325.704
366.86
416.303
475.437
545.755
628.79
725.867
847.733
995.813
1155.49
1322.26
1491.43
1658.66
1820.52
1974.7
2119.94
2255.72
2382.16
2499.75
2609.12
2710.97
2805.97
2894.71
2977.76
3055.56
3128.52
3197
3261.28
3321.65
3378.33
3431.53
3481.43
3528.21
3571.99
3612.93
3651.13
3686.7
3719.73
3750.3
3778.48
3804.34
3827.95
3849.35
3868.61
3885.78
3900.93
3914.08
3925.31
3934.64
3942.13
3947.82
3951.76
3953.96
3954.32
3953.29
3950.57
3946.62
3941.4
3934.52
3926.36
3917
3906.28
3894.51
3881.53
3867.55
3852.51
3836.54
3819.64
3801.88
3783.29
3763.91
3743.79
3722.97
3701.48
3679.35
3656.6
3633.26
3609.34
3584.83
3559.74
3534.09
3507.69
3480.42
3452.43
3423.22
3392.74
3360.54
3326.22
3289.16
3248.4
3202.64
3150.95
3091.11
3021.03
2937.95
2838.9
2720.81
2581.12
2418.51
2233.92
2031.38
1818.26
1604.5
1400.71
1215.94
1056.13
923.654
818.047
737.081
677.928
637.872
614.848
605.442
607.866
621.825
647.789
684.928
732.899
791.405
860.072
938.319
1025.29
1119.8
1220.42
1325.46
1433.12
1541.59
1649.17
1754.37
1855.96
1953.06
2044.97
2131.57
2212.27
2288.22
2357.23
2424.64
2479.82
2545.04
2579.1
2648.61
2697.97
96.4413
96.4516
96.5059
96.6085
96.7648
96.9812
97.2646
97.6226
98.0639
98.598
99.2357
99.9891
100.872
101.897
103.082
104.442
105.997
107.767
109.774
112.047
114.616
117.515
120.788
124.483
128.657
133.38
138.733
144.823
151.785
159.796
169.062
179.831
192.402
207.139
224.48
244.955
269.22
298.125
332.682
373.939
422.971
480.907
548.909
627.785
717.725
827.532
956.049
1088.75
1221.01
1348.8
1469.09
1580.08
1681.1
1772.31
1854.42
1928.39
1995.26
2056.02
2111.51
2162.47
2209.5
2253.08
2293.61
2331.41
2366.75
2399.83
2430.84
2459.95
2487.27
2512.92
2536.99
2559.57
2580.74
2600.54
2619.03
2636.27
2652.27
2667.08
2680.73
2693.24
2704.64
2714.96
2724.23
2732.47
2739.71
2745.96
2751.25
2755.61
2759.05
2761.59
2763.24
2764.02
2764.06
2763.31
2761.92
2759.83
2756.95
2753.45
2749.34
2744.57
2739.3
2733.44
2727.1
2720.26
2712.99
2705.27
2697.16
2688.66
2679.82
2670.65
2661.18
2651.42
2641.4
2631.15
2620.66
2609.97
2599.09
2588.01
2576.75
2565.21
2553.38
2541.32
2528.78
2515.74
2501.95
2487.2
2471.09
2453.06
2432.34
2408.26
2379.35
2344.14
2300.6
2246.38
2178.86
2095.5
1994.28
1874.53
1737.69
1587.82
1431.48
1276.65
1131.11
1000.96
889.784
798.803
727.478
674.38
637.808
616.242
607.063
608.792
620.995
644.013
677.003
719.466
770.907
830.731
898.149
972.127
1051.39
1134.45
1219.7
1305.49
1390.24
1472.58
1551.34
1625.66
1695.02
1759.07
1817.91
1871.41
1920.49
1964.14
2005.77
2039.53
2078.65
2100.34
2141.42
2190.53
97.2924
97.2906
97.3336
97.4256
97.5725
97.7808
98.0577
98.4112
98.8503
99.3847
100.026
100.785
101.677
102.716
103.919
105.304
106.891
108.703
110.766
113.109
115.767
118.777
122.186
126.047
130.423
135.39
141.039
147.483
154.863
163.354
173.168
184.561
197.839
213.37
231.599
253.057
278.389
308.383
343.944
385.989
435.398
492.956
559.207
634.356
718.194
816.745
927.05
1035.3
1137.53
1231.01
1314.35
1387.33
1450.61
1505.3
1552.77
1594.26
1630.92
1663.67
1693.26
1720.28
1745.17
1768.27
1789.83
1810.05
1829.09
1847.06
1864.05
1880.16
1895.44
1909.93
1923.69
1936.75
1949.13
1960.86
1971.95
1982.41
1992.26
2001.51
2010.16
2018.22
2025.7
2032.6
2038.95
2044.73
2049.98
2054.68
2058.86
2062.52
2065.66
2068.3
2070.45
2072.13
2073.37
2074.18
2074.61
2074.62
2074.2
2073.43
2072.3
2070.81
2069.02
2066.9
2064.51
2061.83
2058.9
2055.71
2052.31
2048.69
2044.87
2040.87
2036.7
2032.39
2027.93
2023.35
2018.67
2013.89
2009.03
2004.09
1999.08
1993.95
1988.73
1983.43
1977.92
1972.19
1966.12
1959.56
1952.29
1943.96
1934.11
1922.28
1907.52
1888.82
1864.77
1833.65
1793.45
1742.05
1677.5
1598.54
1505.26
1399.61
1285.59
1168.77
1055.25
950.456
858.287
780.864
718.77
671.62
638.536
618.488
609.551
610.547
620.944
640.986
669.833
706.876
751.479
802.906
860.248
922.406
988.101
1055.93
1124.45
1192.23
1258
1320.68
1379.46
1433.79
1483.4
1528.21
1568.43
1604.2
1636.25
1664.23
1690.32
1711.45
1735.39
1749.92
1775.16
1819
98.5313
98.5164
98.5465
98.6265
98.7632
98.964
99.2366
99.5895
100.032
100.575
101.229
102.007
102.925
103.996
105.241
106.677
108.328
110.219
112.378
114.838
117.636
120.817
124.43
128.535
133.201
138.514
144.572
151.499
159.443
168.588
179.154
191.407
205.666
222.31
241.791
264.641
291.488
323.053
360.118
403.423
453.566
510.898
575.36
646.348
722.539
809.059
900.405
984.872
1059.89
1124.41
1178.65
1223.63
1260.81
1291.72
1317.77
1340.11
1359.67
1377.13
1393.02
1407.7
1421.44
1434.41
1446.74
1458.53
1469.83
1480.71
1491.19
1501.3
1511.05
1520.47
1529.55
1538.32
1546.76
1554.89
1562.69
1570.18
1577.34
1584.17
1590.67
1596.83
1602.67
1608.17
1613.34
1618.18
1622.69
1626.88
1630.74
1634.28
1637.5
1640.4
1643
1645.3
1647.32
1649.06
1650.54
1651.75
1652.68
1653.39
1653.85
1654.09
1654.11
1653.93
1653.55
1652.98
1652.24
1651.33
1650.26
1649.05
1647.7
1646.22
1644.62
1642.92
1641.12
1639.24
1637.29
1635.26
1633.19
1631.06
1628.88
1626.64
1624.35
1622.01
1619.56
1616.99
1614.22
1611.17
1607.7
1603.58
1598.54
1592.25
1584.11
1573.42
1559.21
1540.28
1515.16
1482.23
1439.85
1386.73
1322.37
1247.5
1164.4
1076.71
988.913
905.44
829.939
764.864
711.455
670.059
640.403
621.902
613.214
613.443
622.005
639.076
663.831
695.603
733.673
777.231
825.329
876.878
930.681
985.482
1040.03
1093.18
1143.93
1191.5
1235.33
1275.11
1310.75
1342.32
1370.09
1394.29
1415.52
1433.77
1450.41
1463.99
1478.98
1489.17
1505.67
1542.01
100.319
100.272
100.279
100.341
100.465
100.658
100.929
101.287
101.742
102.304
102.986
103.801
104.766
105.897
107.213
108.737
110.494
112.51
114.819
117.457
120.466
123.895
127.8
132.25
137.322
143.109
149.722
157.297
165.993
176.006
187.57
200.964
216.52
234.627
255.741
280.379
309.123
342.592
381.382
425.953
476.494
532.786
594.075
658.984
725.519
797.787
869.018
930.616
981.783
1023.07
1055.79
1081.59
1102.09
1118.7
1132.54
1144.46
1155.07
1164.79
1173.91
1182.62
1191.03
1199.21
1207.22
1215.08
1222.79
1230.38
1237.84
1245.16
1252.36
1259.42
1266.34
1273.11
1279.72
1286.16
1292.44
1298.53
1304.44
1310.15
1315.65
1320.95
1326.03
1330.9
1335.56
1339.99
1344.21
1348.2
1351.98
1355.53
1358.85
1361.96
1364.85
1367.53
1370.01
1372.29
1374.37
1376.25
1377.94
1379.46
1380.8
1381.96
1382.97
1383.82
1384.52
1385.07
1385.48
1385.76
1385.91
1385.95
1385.87
1385.68
1385.4
1385.02
1384.56
1384.02
1383.41
1382.74
1382.01
1381.22
1380.38
1379.48
1378.53
1377.53
1376.43
1375.24
1373.9
1372.36
1370.52
1368.24
1365.35
1361.6
1356.62
1349.91
1340.82
1328.52
1311.96
1289.95
1261.23
1224.68
1179.62
1126.18
1065.52
999.935
932.52
866.684
805.546
751.515
706.135
670.185
643.85
626.89
618.447
617.878
624.607
638.728
659.5
686.209
718.118
754.4
794.127
836.283
879.795
923.587
966.629
1008.01
1046.99
1083
1115.7
1144.93
1170.69
1193.14
1212.53
1229.15
1243.44
1255.56
1266.39
1275.34
1284.96
1292.35
1303.88
1332.51
102.812
102.71
102.684
102.722
102.831
103.019
103.294
103.666
104.146
104.744
105.474
106.352
107.394
108.619
110.048
111.707
113.622
115.826
118.355
121.249
124.558
128.336
132.649
137.57
143.191
149.614
156.963
165.388
175.062
186.196
199.036
213.876
231.053
250.956
274.019
300.711
331.507
366.841
407.02
452.088
501.698
555.005
610.631
666.745
721.647
777.513
828.841
870.165
902.265
926.642
945.008
958.974
969.878
978.75
986.331
993.133
999.497
1005.64
1011.68
1017.69
1023.71
1029.75
1035.82
1041.9
1047.99
1054.08
1060.16
1066.22
1072.24
1078.21
1084.12
1089.97
1095.73
1101.4
1106.97
1112.43
1117.76
1122.96
1128.02
1132.93
1137.7
1142.31
1146.77
1151.06
1155.19
1159.15
1162.94
1166.56
1170.02
1173.3
1176.41
1179.36
1182.15
1184.78
1187.25
1189.55
1191.71
1193.72
1195.58
1197.31
1198.89
1200.34
1201.66
1202.85
1203.93
1204.88
1205.72
1206.45
1207.07
1207.59
1208.02
1208.35
1208.6
1208.77
1208.86
1208.87
1208.82
1208.69
1208.5
1208.23
1207.9
1207.5
1207.01
1206.4
1205.66
1204.74
1203.58
1202.09
1200.13
1197.56
1194.1
1189.43
1183.1
1174.53
1162.98
1147.62
1127.5
1101.74
1069.69
1031.2
986.794
937.835
886.379
834.915
785.94
741.607
703.526
672.617
649.428
633.966
625.748
624.358
629.278
640.505
657.454
679.354
705.521
735.158
767.4
801.336
836.041
870.624
904.257
936.243
966.033
993.246
1017.66
1039.2
1057.95
1074.06
1087.76
1099.32
1109.09
1117.27
1124.44
1130.45
1136.76
1142.23
1150.65
1172.53
106.12
105.967
105.911
105.931
106.033
106.226
106.52
106.923
107.448
108.108
108.916
109.891
111.05
112.415
114.011
115.865
118.009
120.478
123.315
126.566
130.287
134.54
139.399
144.95
151.293
158.544
166.842
176.347
187.249
199.769
214.163
230.724
249.78
271.684
296.804
325.487
358.012
394.516
434.894
478.685
524.994
572.492
619.523
664.68
707.121
745.841
779.774
805.205
823.845
837.364
847.281
854.816
860.873
866.085
870.872
875.5
880.126
884.833
889.663
894.624
899.713
904.917
910.22
915.605
921.056
926.558
932.094
937.651
943.214
948.769
954.304
959.805
965.261
970.658
975.985
981.23
986.384
991.438
996.384
1001.22
1005.93
1010.52
1014.98
1019.31
1023.51
1027.57
1031.48
1035.25
1038.88
1042.36
1045.7
1048.89
1051.95
1054.86
1057.64
1060.28
1062.78
1065.15
1067.38
1069.49
1071.47
1073.33
1075.06
1076.67
1078.16
1079.54
1080.81
1081.96
1083.01
1083.95
1084.8
1085.54
1086.2
1086.76
1087.23
1087.61
1087.91
1088.12
1088.25
1088.28
1088.22
1088.08
1087.83
1087.45
1086.93
1086.24
1085.32
1084.13
1082.57
1080.52
1077.81
1074.21
1069.41
1063.02
1054.52
1043.33
1028.77
1010.17
987
958.991
926.346
889.828
850.74
810.821
771.994
736.077
704.379
678.081
657.809
643.76
635.736
633.508
636.668
645.087
658.385
675.822
696.686
720.309
745.926
772.736
799.965
826.897
852.875
877.374
899.996
920.479
938.682
954.589
968.28
979.902
989.658
997.769
1004.51
1010.08
1014.86
1018.93
1023.11
1027.16
1033.43
1049.74
110.38
110.202
110.136
110.158
110.276
110.498
110.835
111.299
111.901
112.658
113.586
114.704
116.033
117.598
119.428
121.553
124.011
126.843
130.096
133.825
138.093
142.97
148.541
154.902
162.163
170.453
179.921
190.739
203.102
217.232
233.376
251.8
272.779
296.579
323.422
353.441
386.614
422.691
461.117
500.992
541.091
579.995
617.029
651.381
679.003
704.333
724.962
739.613
750.005
757.48
763.118
767.691
771.729
775.572
779.425
783.405
787.568
791.933
796.496
801.243
806.154
811.209
816.386
821.667
827.033
832.468
837.957
843.484
849.034
854.592
860.147
865.683
871.188
876.649
882.053
887.39
892.649
897.82
902.896
907.872
912.743
917.503
922.15
926.678
931.084
935.363
939.51
943.523
947.401
951.145
954.756
958.233
961.578
964.789
967.868
970.816
973.634
976.322
978.881
981.312
983.616
985.794
987.848
989.779
991.587
993.276
994.847
996.301
997.641
998.87
999.987
1001
1001.9
1002.7
1003.39
1003.98
1004.47
1004.85
1005.13
1005.3
1005.35
1005.31
1005.13
1004.81
1004.34
1003.68
1002.82
1001.71
1000.28
998.448
996.103
993.082
989.174
984.107
977.539
969.055
958.181
944.437
927.397
906.799
882.676
855.431
825.861
795.18
764.713
735.714
709.619
687.423
669.791
657.036
649.161
646.084
647.552
653.286
663.143
676.416
692.514
710.76
730.519
751.184
772.094
792.683
812.429
830.941
847.932
863.218
876.702
888.389
898.353
906.719
913.646
919.316
923.939
927.696
930.843
933.548
936.284
939.203
943.828
955.647
115.785
115.636
115.597
115.658
115.828
116.117
116.537
117.102
117.826
118.728
119.827
121.145
122.709
124.546
126.689
129.176
132.049
135.355
139.149
143.493
148.457
154.122
160.579
167.933
176.304
185.825
196.65
208.947
222.901
238.709
256.573
276.685
299.207
324.237
351.772
381.652
413.512
446.749
480.515
513.781
545.374
575.6
602.589
623.785
641.489
656.907
668.875
677.267
683.351
688.022
691.939
695.534
699.082
702.747
706.614
710.721
715.076
719.668
724.477
729.482
734.658
739.982
745.434
750.996
756.649
762.379
768.17
774.005
779.87
785.75
791.631
797.499
803.34
809.141
814.888
820.569
826.173
831.691
837.114
842.439
847.658
852.77
857.769
862.653
867.415
872.051
876.556
880.925
885.154
889.248
893.209
897.034
900.725
904.282
907.704
910.992
914.146
917.166
920.052
922.803
925.42
927.903
930.253
932.47
934.555
936.509
938.334
940.031
941.602
943.049
944.373
945.574
946.654
947.613
948.45
949.167
949.761
950.232
950.579
950.796
950.869
950.834
950.644
950.3
949.79
949.095
948.194
947.054
945.636
943.879
941.703
939
935.627
931.402
926.096
919.43
911.089
900.729
888.029
872.759
854.877
834.575
812.285
788.665
764.698
741.553
720.231
701.598
686.294
674.685
666.906
662.983
662.825
666.054
672.686
682.135
693.88
707.403
722.137
737.484
753.003
768.283
782.919
796.594
809.098
820.294
830.105
838.54
845.662
851.565
856.369
860.217
863.274
865.683
867.624
869.287
870.955
872.921
876.18
884.393
122.665
122.622
122.674
122.832
123.105
123.509
124.058
124.77
125.663
126.758
128.081
129.659
131.522
133.703
136.243
139.184
142.574
146.467
150.925
156.017
161.819
168.417
175.907
184.396
194.002
204.853
217.086
230.843
246.266
263.486
282.607
303.689
326.715
351.563
377.968
405.504
433.572
461.428
488.195
513.656
538.168
558.559
574.687
588.103
598.91
608.147
615.352
620.71
625.009
628.778
632.377
636.031
639.869
643.959
648.328
652.979
657.897
663.061
668.448
674.031
679.787
685.694
691.733
697.884
704.131
710.459
716.85
723.289
729.76
736.245
742.731
749.204
755.648
762.049
768.391
774.66
780.844
786.933
792.919
798.796
804.56
810.208
815.735
821.139
826.415
831.558
836.562
841.419
846.128
850.696
855.122
859.406
863.546
867.543
871.397
875.106
878.67
882.089
885.36
888.484
891.458
894.284
896.96
899.487
901.865
904.095
906.179
908.116
909.91
911.56
913.069
914.437
915.664
916.75
917.695
918.499
919.16
919.678
920.051
920.268
920.333
920.262
920.022
919.612
919.023
918.244
917.257
916.042
914.573
912.81
910.698
908.168
905.124
901.449
896.993
891.573
884.977
876.969
867.317
855.828
842.346
826.903
809.846
791.671
773.012
754.62
737.264
721.649
708.34
697.713
689.974
685.229
683.477
684.474
688.08
694.053
701.881
711.169
721.469
732.356
743.423
754.24
764.587
774.24
783.043
790.891
797.727
803.552
808.4
812.335
815.442
817.832
819.636
820.952
821.914
822.701
823.493
824.587
826.642
831.924
132.088
132.148
132.303
132.562
132.943
133.463
134.143
135.004
136.071
137.372
138.936
140.798
142.993
145.563
148.551
152.008
155.987
160.547
165.753
171.678
178.397
185.996
194.563
204.194
214.987
227.04
240.445
255.282
271.607
289.439
308.742
329.404
351.222
373.881
396.958
419.933
442.2
463.587
484.354
503.166
517.878
530.155
540.4
548.794
555.591
561.598
566.682
570.969
574.905
578.78
582.784
587.024
591.56
596.412
601.581
607.053
612.806
618.816
625.058
631.504
638.132
644.919
651.845
658.889
666.034
673.261
680.555
687.896
695.265
702.645
710.021
717.378
724.702
731.974
739.176
746.292
753.306
760.206
766.983
773.632
780.148
786.53
792.774
798.878
804.837
810.649
816.31
821.822
827.182
832.377
837.405
842.268
846.964
851.495
855.861
860.061
864.095
867.961
871.658
875.184
878.539
881.722
884.732
887.57
890.236
892.732
895.057
897.214
899.205
901.031
902.693
904.193
905.531
906.706
907.72
908.571
909.26
909.784
910.143
910.323
910.347
910.205
909.882
909.376
908.681
907.789
906.688
905.367
903.807
901.985
899.864
897.398
894.527
891.174
887.242
882.611
877.14
870.667
863.031
854.086
843.754
832.043
819.07
805.11
790.566
775.942
761.794
748.663
737.016
727.199
719.449
713.92