/*--------------------------------*- C++ -*----------------------------------*\
| =========                 |                                                 |
| \\      /  F ield         | OpenFOAM: The Open Source CFD Toolbox           |
|  \\    /   O peration     | Version:  2112                                  |
|   \\  /    A nd           | Website:  www.openfoam.com                      |
|    \\/     M anipulation  |                                                 |
\*---------------------------------------------------------------------------*/
FoamFile
{
    version     2.0;
    format      ascii;
    arch        "LSB;label=32;scalar=64";
    class       volScalarField;
    location    "0.31";
    object      p;
}
// * * * * * * * * * * * * * * * * * * * * * * * * * * * * * * * * * * * * * //

dimensions      [0 2 -2 0 0 0 0];

internalField   nonuniform List<scalar> 
12885
(
0.104913
-0.490091
-0.848832
-1.01474
-1.08942
-1.14206
-1.23127
-1.32412
-1.37899
-1.41964
-1.51043
-1.6599
-1.79945
-1.88875
-1.93735
-1.96257
-1.99141
-2.06667
-2.20065
-2.3294
-2.4026
-2.4358
-2.44981
-2.45375
-2.45724
-2.47548
-2.51804
-2.57862
-2.6411
-2.69159
-2.72229
-2.72983
-2.71312
-2.66992
-2.5988
-2.48747
-2.32584
-2.04246
-1.60632
-0.701984
-0.16536
-0.543443
-0.847542
-0.98397
-1.01727
-1.06234
-1.16646
-1.28008
-1.34965
-1.36927
-1.35495
-1.36937
-1.46926
-1.61351
-1.74191
-1.82618
-1.85876
-1.84531
-1.81627
-1.83255
-1.91003
-2.01474
-2.1246
-2.2257
-2.30304
-2.34775
-2.36578
-2.37221
-2.37936
-2.391
-2.40561
-2.41854
-2.42472
-2.41903
-2.39918
-2.36433
-2.32638
-2.32299
-2.48926
-3.11419
-0.400339
-0.608082
-0.848352
-0.990729
-1.06915
-1.13737
-1.22753
-1.31919
-1.37792
-1.40855
-1.45381
-1.54463
-1.66326
-1.77437
-1.85722
-1.90777
-1.93521
-1.96619
-2.02169
-2.09342
-2.16069
-2.21547
-2.26489
-2.31208
-2.35221
-2.38249
-2.40686
-2.42946
-2.44922
-2.46255
-2.46755
-2.46442
-2.4546
-2.44051
-2.42853
-2.42987
-2.46257
-2.55664
-2.73361
-2.99733
-0.596756
-0.707066
-0.889304
-1.02409
-1.10436
-1.16719
-1.24556
-1.32931
-1.39626
-1.44649
-1.49191
-1.54808
-1.62604
-1.71663
-1.80116
-1.87042
-1.92508
-1.96808
-2.00054
-2.03312
-2.07717
-2.13316
-2.19633
-2.26102
-2.32096
-2.37202
-2.41258
-2.44303
-2.46497
-2.48106
-2.4934
-2.50454
-2.51782
-2.5385
-2.56974
-2.61789
-2.69091
-2.79899
-2.94749
-3.15165
-0.7531
-0.824068
-0.952966
-1.06482
-1.13955
-1.20294
-1.27786
-1.35704
-1.42395
-1.47443
-1.51901
-1.57653
-1.65646
-1.74632
-1.82928
-1.89689
-1.94763
-1.98598
-2.02385
-2.07266
-2.13225
-2.19549
-2.25761
-2.31661
-2.36991
-2.41486
-2.45124
-2.48191
-2.51022
-2.53808
-2.56627
-2.59623
-2.63025
-2.67135
-2.7222
-2.78694
-2.86997
-2.97692
-3.11425
-3.28972
-0.885433
-0.929604
-1.0263
-1.11479
-1.18447
-1.2485
-1.31958
-1.39229
-1.45576
-1.50844
-1.56
-1.62257
-1.69873
-1.77914
-1.85324
-1.9158
-1.96753
-2.01417
-2.06243
-2.11523
-2.171
-2.22717
-2.28262
-2.33644
-2.38707
-2.4333
-2.47556
-2.51523
-2.55344
-2.59093
-2.6288
-2.66879
-2.7131
-2.76416
-2.8245
-2.89669
-2.98334
-3.08681
-3.20815
-3.34487
-1.00463
-1.02029
-1.09913
-1.17194
-1.23652
-1.2991
-1.36573
-1.43294
-1.49448
-1.55018
-1.6062
-1.66901
-1.73931
-1.8117
-1.88005
-1.94132
-1.99626
-2.04783
-2.09882
-2.15093
-2.20458
-2.25923
-2.31399
-2.36785
-2.41974
-2.46901
-2.5157
-2.56044
-2.6042
-2.64816
-2.69374
-2.74242
-2.79581
-2.85547
-2.92285
-2.99906
-3.08497
-3.18078
-3.28581
-3.3981
-1.11194
-1.10622
-1.166
-1.23171
-1.29129
-1.35148
-1.41436
-1.47784
-1.53833
-1.59571
-1.65346
-1.71518
-1.78122
-1.84856
-1.9135
-1.97403
-2.03034
-2.08391
-2.13652
-2.18964
-2.2438
-2.29864
-2.35338
-2.40735
-2.45995
-2.51092
-2.56044
-2.60915
-2.65798
-2.70792
-2.75995
-2.81505
-2.87424
-2.93849
-3.00844
-3.08433
-3.16615
-3.25362
-3.34581
-3.44082
-1.20792
-1.19073
-1.23052
-1.29007
-1.34621
-1.40386
-1.46389
-1.52488
-1.5846
-1.64284
-1.70151
-1.76241
-1.82552
-1.88931
-1.95164
-2.01119
-2.06801
-2.12302
-2.17731
-2.23172
-2.2865
-2.34138
-2.39601
-2.45007
-2.50336
-2.55586
-2.60787
-2.65993
-2.71275
-2.76701
-2.82324
-2.88197
-2.9438
-3.00929
-3.07859
-3.15119
-3.2266
-3.30489
-3.38558
-3.46675
-1.29383
-1.27286
-1.29746
-1.34607
-1.39915
-1.45447
-1.51245
-1.57174
-1.63096
-1.68988
-1.74926
-1.80962
-1.87075
-1.93194
-1.99218
-2.05083
-2.10796
-2.16408
-2.2197
-2.27514
-2.33047
-2.38558
-2.44036
-2.49475
-2.54874
-2.60245
-2.6561
-2.7101
-2.76495
-2.82103
-2.87848
-2.93721
-2.99749
-3.0602
-3.12568
-3.19307
-3.2614
-3.33035
-3.39954
-3.46809
-1.36896
-1.35135
-1.3666
-1.40285
-1.44974
-1.50175
-1.55726
-1.61487
-1.67324
-1.73208
-1.79153
-1.85143
-1.91136
-1.97095
-2.03004
-2.08829
-2.14573
-2.20257
-2.25896
-2.31499
-2.37064
-2.42589
-2.48073
-2.53522
-2.58942
-2.64341
-2.6972
-2.75095
-2.80519
-2.86045
-2.91672
-2.97381
-3.03179
-3.09086
-3.15101
-3.21198
-3.27339
-3.33493
-3.3962
-3.45641
-1.43164
-1.42142
-1.43317
-1.46121
-1.49995
-1.54604
-1.59726
-1.65179
-1.7081
-1.76559
-1.82409
-1.88313
-1.94212
-2.00077
-2.05908
-2.11692
-2.17427
-2.23115
-2.28757
-2.34351
-2.39892
-2.45379
-2.50815
-2.56209
-2.61569
-2.66908
-2.72235
-2.77564
-2.8292
-2.88327
-2.93796
-2.99328
-3.04923
-3.10577
-3.16275
-3.21983
-3.2767
-3.33304
-3.38845
-3.44235
-1.49148
-1.48738
-1.49849
-1.5225
-1.55511
-1.59462
-1.64016
-1.69037
-1.74374
-1.79913
-1.85593
-1.91341
-1.97087
-2.02809
-2.08501
-2.1416
-2.19794
-2.25406
-2.30991
-2.36537
-2.42032
-2.47472
-2.52855
-2.58188
-2.63482
-2.68755
-2.74024
-2.79307
-2.84616
-2.89957
-2.95323
-3.00706
-3.06095
-3.11472
-3.16814
-3.22094
-3.27289
-3.32379
-3.37337
-3.42125
-1.55901
-1.55757
-1.56734
-1.58867
-1.61764
-1.65228
-1.6926
-1.73859
-1.7889
-1.84178
-1.8961
-1.9511
-2.00624
-2.06128
-2.11615
-2.17091
-2.2257
-2.28051
-2.33525
-2.38976
-2.44389
-2.49754
-2.55068
-2.60335
-2.65562
-2.7076
-2.75941
-2.81109
-2.86265
-2.91404
-2.96515
-3.01586
-3.06603
-3.11553
-3.16419
-3.21187
-3.25841
-3.30372
-3.34763
-3.38984
-1.63317
-1.63294
-1.64138
-1.65968
-1.68547
-1.71673
-1.75288
-1.79465
-1.84165
-1.89173
-1.94312
-1.99518
-2.04771
-2.10053
-2.15351
-2.20658
-2.25966
-2.31268
-2.36555
-2.41816
-2.47043
-2.52232
-2.57379
-2.62484
-2.67545
-2.72561
-2.77531
-2.82452
-2.87317
-2.92118
-2.96848
-3.01498
-3.06058
-3.10519
-3.14872
-3.19109
-3.23222
-3.27208
-3.31056
-3.34746
-1.70743
-1.70778
-1.71526
-1.7312
-1.75409
-1.78237
-1.81501
-1.8521
-1.89453
-1.94143
-1.9904
-2.04005
-2.09016
-2.14072
-2.19157
-2.24252
-2.2934
-2.34412
-2.39457
-2.44469
-2.49443
-2.54374
-2.59257
-2.64088
-2.68862
-2.73572
-2.78211
-2.82773
-2.87251
-2.91638
-2.95927
-3.00114
-3.04193
-3.08158
-3.12007
-3.15736
-3.19342
-3.22826
-3.26184
-3.294
-1.76895
-1.76956
-1.77643
-1.79081
-1.81159
-1.83751
-1.86761
-1.90125
-1.93902
-1.98194
-2.02858
-2.07644
-2.12454
-2.17286
-2.22139
-2.26994
-2.31835
-2.3665
-2.41429
-2.46163
-2.50844
-2.55467
-2.60024
-2.64509
-2.68916
-2.7324
-2.77474
-2.81614
-2.85655
-2.89594
-2.93426
-2.97149
-3.00761
-3.04261
-3.07648
-3.10921
-3.14082
-3.17132
-3.20071
-3.22888
-1.79191
-1.79242
-1.79875
-1.8122
-1.83177
-1.85629
-1.88485
-1.91675
-1.95196
-1.99155
-2.03553
-2.08157
-2.1278
-2.17398
-2.2202
-2.26634
-2.31224
-2.35776
-2.40281
-2.4473
-2.49114
-2.53427
-2.57662
-2.61814
-2.65876
-2.69845
-2.73717
-2.77489
-2.81158
-2.84724
-2.88184
-2.91538
-2.94786
-2.97929
-3.00966
-3.039
-3.06731
-3.09462
-3.12095
-3.14626
-1.75316
-1.75366
-1.76066
-1.77526
-1.79607
-1.82173
-1.85123
-1.88377
-1.91949
-1.95949
-2.00343
-2.04903
-2.09473
-2.14038
-2.18599
-2.23143
-2.27652
-2.32115
-2.3652
-2.40858
-2.45123
-2.49305
-2.534
-2.57401
-2.61305
-2.65109
-2.6881
-2.72408
-2.75901
-2.79288
-2.8257
-2.85746
-2.88817
-2.91785
-2.94651
-2.97417
-3.00084
-3.02657
-3.05138
-3.07526
-1.70633
-1.70657
-1.71418
-1.73021
-1.75279
-1.78028
-1.81153
-1.8456
-1.88267
-1.92371
-1.96808
-2.01368
-2.05933
-2.10491
-2.15041
-2.19572
-2.24069
-2.28519
-2.32911
-2.37235
-2.4148
-2.45637
-2.497
-2.53664
-2.57527
-2.61289
-2.6495
-2.68509
-2.71966
-2.75321
-2.78571
-2.81718
-2.84761
-2.87701
-2.9054
-2.93278
-2.95918
-2.98462
-3.00915
-3.03278
-1.64652
-1.64655
-1.65547
-1.67395
-1.6993
-1.72958
-1.76362
-1.80045
-1.84
-1.88288
-1.92849
-1.97512
-2.02178
-2.06823
-2.11442
-2.1603
-2.20579
-2.25079
-2.29514
-2.33866
-2.38124
-2.42279
-2.46328
-2.50267
-2.54097
-2.57819
-2.61435
-2.64946
-2.68353
-2.71654
-2.74849
-2.77937
-2.80919
-2.83794
-2.86565
-2.89233
-2.91801
-2.94273
-2.96652
-2.98941
-1.577
-1.57663
-1.58769
-1.60957
-1.63822
-1.67156
-1.70869
-1.74879
-1.79126
-1.83586
-1.8822
-1.92966
-1.97759
-2.02532
-2.07249
-2.11907
-2.16503
-2.21031
-2.25474
-2.2981
-2.34036
-2.38172
-2.4222
-2.46161
-2.49985
-2.53686
-2.57265
-2.60725
-2.64069
-2.67303
-2.70431
-2.73459
-2.7639
-2.79227
-2.81972
-2.84626
-2.87189
-2.89661
-2.92043
-2.94341
-1.49972
-1.49776
-1.51226
-1.53865
-1.57071
-1.60679
-1.6465
-1.68893
-1.73306
-1.7784
-1.82472
-1.87191
-1.91981
-1.96795
-2.01576
-2.06278
-2.10871
-2.15352
-2.19729
-2.24019
-2.2824
-2.32397
-2.36478
-2.40454
-2.443
-2.48002
-2.51553
-2.54957
-2.58223
-2.61362
-2.64388
-2.6731
-2.70134
-2.72862
-2.75496
-2.78038
-2.8049
-2.82854
-2.85134
-2.87326
-1.41211
-1.40741
-1.42843
-1.46159
-1.49745
-1.53618
-1.57878
-1.62384
-1.66943
-1.71485
-1.76053
-1.80735
-1.8557
-1.90497
-1.954
-2.00179
-2.04786
-2.09231
-2.13561
-2.17828
-2.2207
-2.26304
-2.30512
-2.34651
-2.38669
-2.42523
-2.46189
-2.49663
-2.52964
-2.56127
-2.59191
-2.62194
-2.6516
-2.68098
-2.71002
-2.73859
-2.76654
-2.79371
-2.81999
-2.84542
-1.3091
-1.30538
-1.33649
-1.38037
-1.42097
-1.46235
-1.50904
-1.55862
-1.60693
-1.65244
-1.69658
-1.7424
-1.79212
-1.84486
-1.89755
-1.94759
-1.99393
-2.03715
-2.07904
-2.12149
-2.16533
-2.21
-2.25434
-2.29732
-2.33831
-2.3769
-2.41291
-2.44641
-2.47779
-2.5075
-2.53594
-2.56331
-2.58975
-2.61541
-2.64042
-2.66488
-2.68885
-2.71232
-2.73522
-2.75733
-1.18666
-1.18892
-1.23935
-1.30127
-1.34833
-1.39157
-1.4431
-1.49941
-1.55252
-1.59917
-1.64042
-1.68141
-1.7296
-1.78672
-1.84689
-1.90341
-1.95276
-1.99431
-2.03035
-2.06648
-2.10879
-2.15908
-2.21396
-2.26863
-2.31976
-2.36549
-2.40483
-2.43775
-2.46569
-2.49156
-2.51855
-2.5486
-2.58182
-2.6171
-2.65304
-2.6885
-2.72272
-2.75523
-2.78588
-2.81476
-1.03931
-1.05724
-1.14665
-1.23292
-1.28728
-1.33256
-1.38986
-1.45293
-1.50923
-1.55699
-1.59927
-1.63852
-1.68214
-1.73647
-1.79752
-1.85706
-1.91018
-1.9559
-1.9944
-2.02538
-2.05282
-2.08486
-2.12535
-2.17226
-2.22196
-2.27101
-2.31635
-2.35564
-2.3873
-2.41092
-2.42827
-2.44319
-2.45935
-2.47864
-2.50156
-2.52787
-2.55693
-2.58782
-2.61945
-2.65045
-0.853198
-0.93347
-1.07903
-1.18088
-1.23236
-1.28222
-1.35518
-1.43101
-1.4873
-1.5224
-1.55278
-1.60026
-1.67281
-1.75756
-1.83514
-1.89492
-1.93489
-1.95973
-1.98463
-2.02878
-2.09776
-2.17973
-2.25834
-2.32458
-2.37773
-2.41817
-2.44518
-2.46049
-2.47137
-2.488
-2.51636
-2.55509
-2.59909
-2.64324
-2.68443
-2.72118
-2.75313
-2.78047
-2.80434
-2.82592
-0.623462
-0.843885
-1.05754
-1.16527
-1.18364
-1.20725
-1.28604
-1.38111
-1.45294
-1.49301
-1.50419
-1.49711
-1.5193
-1.59726
-1.69885
-1.79113
-1.85622
-1.88551
-1.88118
-1.85436
-1.84013
-1.87527
-1.95192
-2.04377
-2.13666
-2.22129
-2.28684
-2.32254
-2.32384
-2.29842
-2.26802
-2.25445
-2.26452
-2.29405
-2.33755
-2.39036
-2.44858
-2.50873
-2.56772
-2.62214
-0.36044
-0.780949
-1.05438
-1.16712
-1.20064
-1.24994
-1.33761
-1.42047
-1.47281
-1.50136
-1.53403
-1.60457
-1.70853
-1.80928
-1.88534
-1.93361
-1.9576
-1.96873
-1.99395
-2.06917
-2.1918
-2.31409
-2.40495
-2.46396
-2.49801
-2.51303
-2.51208
-2.50103
-2.49686
-2.52194
-2.58249
-2.66367
-2.74646
-2.81895
-2.8757
-2.91604
-2.94211
-2.9571
-2.96376
-2.96395
-5.35297
-5.35164
-5.35149
-5.35155
-5.35157
-5.3516
-5.35167
-5.35177
-5.35186
-5.35189
-5.35179
-5.35186
-5.35226
-5.35282
-5.35346
-5.35419
-5.35501
-5.35592
-5.35692
-5.35802
-5.35922
-5.36051
-5.36192
-5.36342
-5.36504
-5.36676
-5.36847
-5.36992
-5.37149
-5.37355
-5.3759
-5.37847
-5.38128
-5.38438
-5.38781
-5.39168
-5.39642
-5.40173
-5.40713
-5.41301
-5.41968
-5.42729
-5.43607
-5.44626
-5.45814
-5.47333
-5.49275
-5.51523
-5.5411
-5.57055
-5.60366
-5.64036
-5.68041
-5.7234
-5.76879
-5.81593
-5.86412
-5.91261
-5.96065
-6.00753
-6.05254
-6.09503
-6.13439
-6.17008
-6.20156
-6.22836
-6.25008
-6.26631
-6.27673
-6.28102
-6.27892
-6.2702
-6.25467
-6.23215
-6.2025
-6.16562
-6.12141
-6.0698
-6.01073
-5.94416
-5.87007
-5.78845
-5.69928
-5.60259
-5.49839
-5.38674
-5.26768
-5.14127
-5.00757
-4.86668
-4.71866
-4.56362
-4.40168
-4.23295
-4.05753
-3.87552
-3.68718
-3.4926
-3.29197
-3.08548
-2.87331
-2.65569
-2.43282
-2.20494
-1.97227
-1.73505
-1.49352
-1.24793
-0.998528
-0.745563
-0.489288
-0.229958
0.0321701
0.296842
0.563803
0.832801
1.10359
1.37592
1.64956
1.92425
2.19979
2.47595
2.7525
3.02923
3.30593
3.58239
3.85841
4.1337
4.40809
4.68135
4.95314
5.22321
5.49127
5.75704
6.02026
6.28072
6.5383
6.79298
7.04486
7.29411
7.54085
7.78501
8.02621
8.26364
8.49632
8.72289
8.94274
9.15274
9.34788
9.48905
9.64716
9.88259
10.0946
10.267
10.4315
10.5895
10.7422
10.8897
11.0325
11.1709
11.305
11.4352
11.5615
11.6841
11.8031
11.9187
12.0309
12.1398
12.2456
12.3483
12.4483
12.5451
12.64
12.731
12.8226
12.9065
13.001
13.0715
13.1938
13.2294
-5.35446
-5.35314
-5.35306
-5.35314
-5.35317
-5.35321
-5.35327
-5.35336
-5.3535
-5.35371
-5.3541
-5.35454
-5.35489
-5.35522
-5.3556
-5.35606
-5.35658
-5.35718
-5.35786
-5.35862
-5.35947
-5.3604
-5.36142
-5.36255
-5.36377
-5.3651
-5.36662
-5.36844
-5.37038
-5.37234
-5.37448
-5.37684
-5.37944
-5.38232
-5.38553
-5.38912
-5.39296
-5.39725
-5.40228
-5.40807
-5.41464
-5.42214
-5.43078
-5.44081
-5.4525
-5.46743
-5.48655
-5.50873
-5.53431
-5.56349
-5.59638
-5.63291
-5.67284
-5.71576
-5.76112
-5.8083
-5.85656
-5.90515
-5.95332
-6.00034
-6.04552
-6.08818
-6.12773
-6.1636
-6.19528
-6.22229
-6.24421
-6.26065
-6.27128
-6.27578
-6.27389
-6.26539
-6.25006
-6.22775
-6.19832
-6.16165
-6.11765
-6.06624
-6.00738
-5.94102
-5.86713
-5.78571
-5.69674
-5.60026
-5.49627
-5.38482
-5.26596
-5.13976
-5.00627
-4.86558
-4.71777
-4.56295
-4.40121
-4.23265
-4.05746
-3.87575
-3.68762
-3.49326
-3.29286
-3.08661
-2.87469
-2.65731
-2.4347
-2.20708
-1.97467
-1.73773
-1.49648
-1.25118
-1.00207
-0.749409
-0.493452
-0.234455
0.0273269
0.291634
0.558211
0.8268
1.09715
1.36901
1.64214
1.91629
2.19122
2.4667
2.74249
3.01838
3.29411
3.56946
3.84419
4.11804
4.39074
4.66196
4.9314
5.19867
5.46339
5.72517
5.98357
6.23821
6.48869
6.73472
6.9761
7.21274
7.4447
7.67211
7.89517
8.11399
8.32869
8.53882
8.74436
8.94186
9.13629
9.32176
9.51713
9.71376
9.91132
10.1024
10.2859
10.4612
10.6298
10.7918
10.9476
11.0975
11.2416
11.3803
11.5139
11.6426
11.7668
11.8866
12.0024
12.1144
12.2228
12.3278
12.4297
12.5282
12.6246
12.7168
12.81
12.8948
12.9918
13.0626
13.1907
13.2282
-5.3544
-5.35303
-5.35291
-5.353
-5.35305
-5.35311
-5.35319
-5.35331
-5.35347
-5.35369
-5.35402
-5.35441
-5.35479
-5.35519
-5.35562
-5.35611
-5.35665
-5.35725
-5.35792
-5.35866
-5.35948
-5.36039
-5.36139
-5.36249
-5.3637
-5.36503
-5.36654
-5.36829
-5.37016
-5.3721
-5.37422
-5.37655
-5.37912
-5.38196
-5.38511
-5.38864
-5.39248
-5.3967
-5.40155
-5.40712
-5.41349
-5.42081
-5.42925
-5.43908
-5.45056
-5.46526
-5.48415
-5.5061
-5.53148
-5.56051
-5.59327
-5.62971
-5.66959
-5.71248
-5.75784
-5.80503
-5.8533
-5.90192
-5.95012
-5.99718
-6.04239
-6.0851
-6.12469
-6.16061
-6.19234
-6.21941
-6.24139
-6.2579
-6.2686
-6.27318
-6.27137
-6.26295
-6.24772
-6.22551
-6.19617
-6.1596
-6.1157
-6.06441
-6.00566
-5.93942
-5.86565
-5.78436
-5.69552
-5.59917
-5.49532
-5.38401
-5.2653
-5.13924
-5.0059
-4.86536
-4.71772
-4.56306
-4.40148
-4.23312
-4.05808
-3.87653
-3.68859
-3.49442
-3.29421
-3.08815
-2.87642
-2.65924
-2.43683
-2.20941
-1.9772
-1.74046
-1.49942
-1.25433
-1.00543
-0.752984
-0.497243
-0.238465
0.0230939
0.287175
0.55352
0.821873
1.09198
1.36359
1.63645
1.91033
2.18497
2.46013
2.73559
3.01111
3.28644
3.56134
3.83555
4.10882
4.38083
4.65126
4.91976
5.18591
5.44928
5.7094
5.96578
6.21791
6.4653
6.7075
6.94417
7.17511
7.40032
7.62004
7.83474
8.04505
8.25185
8.45557
8.6574
8.85583
9.0618
9.28239
9.48437
9.66033
9.84083
10.0312
10.219
10.4003
10.5754
10.744
10.9059
11.0614
11.2104
11.3534
11.4906
11.6223
11.749
11.871
11.9886
12.102
12.2117
12.3177
12.4205
12.5197
12.6169
12.7097
12.8036
12.8887
12.9869
13.0579
13.1886
13.2255
-5.35432
-5.35295
-5.35281
-5.35289
-5.35295
-5.353
-5.35308
-5.3532
-5.35337
-5.35358
-5.35386
-5.35419
-5.35455
-5.35496
-5.35541
-5.35591
-5.35647
-5.35709
-5.35778
-5.35854
-5.35938
-5.3603
-5.36132
-5.36244
-5.36366
-5.36501
-5.36651
-5.36818
-5.36998
-5.37191
-5.37402
-5.37632
-5.37886
-5.38166
-5.38476
-5.38821
-5.39201
-5.39621
-5.40097
-5.40639
-5.4126
-5.41973
-5.42799
-5.43762
-5.4489
-5.4634
-5.48209
-5.50389
-5.52916
-5.55813
-5.59088
-5.62735
-5.66727
-5.71024
-5.75567
-5.80292
-5.85125
-5.89991
-5.94814
-5.99522
-6.04044
-6.08315
-6.12275
-6.15867
-6.19041
-6.21749
-6.23948
-6.25601
-6.26673
-6.27134
-6.26958
-6.2612
-6.24603
-6.22387
-6.19461
-6.15811
-6.1143
-6.0631
-6.00445
-5.93832
-5.86467
-5.7835
-5.6948
-5.59859
-5.49488
-5.38373
-5.26518
-5.13929
-5.00613
-4.86578
-4.71833
-4.56387
-4.40249
-4.23435
-4.05952
-3.87818
-3.69047
-3.49654
-3.29657
-3.09074
-2.87926
-2.66232
-2.44016
-2.21298
-1.98103
-1.74454
-1.50375
-1.25891
-1.01027
-0.758077
-0.50259
-0.244063
0.0172439
0.281074
0.547169
0.815272
1.08513
1.35649
1.6291
1.90271
2.1771
2.452
2.72718
3.00241
3.27744
3.55203
3.82592
4.09884
4.37049
4.64054
4.90864
5.17438
5.43733
5.69705
5.95304
6.20485
6.45202
6.69417
6.93104
7.16252
7.38868
7.60978
7.82628
8.03869
8.24777
8.45383
8.65807
8.85949
9.06728
9.28656
9.486
9.66362
9.84326
10.0305
10.2158
10.3955
10.5694
10.737
10.8984
11.0534
11.2023
11.3452
11.4824
11.6143
11.7412
11.8634
11.9812
12.0948
12.2047
12.3109
12.4139
12.5133
12.6107
12.7037
12.7979
12.8832
12.9818
13.0531
13.1842
13.2211
-5.35427
-5.35288
-5.35272
-5.35279
-5.35284
-5.3529
-5.35298
-5.35311
-5.35327
-5.35348
-5.35374
-5.35405
-5.35441
-5.3548
-5.35525
-5.35575
-5.35631
-5.35693
-5.35762
-5.35838
-5.35922
-5.36014
-5.36116
-5.36227
-5.36349
-5.36482
-5.36629
-5.36791
-5.36967
-5.37156
-5.37363
-5.37589
-5.37837
-5.3811
-5.38411
-5.38746
-5.39116
-5.39527
-5.3999
-5.40516
-5.41118
-5.41811
-5.42615
-5.43556
-5.44663
-5.46093
-5.47945
-5.50114
-5.52636
-5.55534
-5.58816
-5.62472
-5.66475
-5.70782
-5.75334
-5.80065
-5.84901
-5.89767
-5.94589
-5.99292
-6.0381
-6.08076
-6.1203
-6.15618
-6.18787
-6.21492
-6.23689
-6.25342
-6.26415
-6.26878
-6.26705
-6.25873
-6.24362
-6.22155
-6.19238
-6.156
-6.11231
-6.06125
-6.00276
-5.93679
-5.86333
-5.78235
-5.69386
-5.59787
-5.4944
-5.38349
-5.26519
-5.13957
-5.00669
-4.86662
-4.71947
-4.56531
-4.40427
-4.23643
-4.06194
-3.88094
-3.69357
-3.49998
-3.30036
-3.09489
-2.88377
-2.6672
-2.44539
-2.21858
-1.98698
-1.75085
-1.51042
-1.26593
-1.01764
-0.765799
-0.510656
-0.252472
0.00849862
0.271996
0.537762
0.80554
1.07508
1.34611
1.61841
1.89171
2.16577
2.44036
2.71522
2.99012
3.26481
3.53906
3.81259
4.08514
4.35642
4.6261
4.89382
5.15921
5.42185
5.6813
5.93714
6.18893
6.43631
6.67898
6.91678
7.1497
7.3779
7.60165
7.8213
8.0372
8.24978
8.45908
8.66598
8.86961
9.07663
9.28969
9.48696
9.66819
9.84931
10.0343
10.2168
10.3941
10.5659
10.7318
10.8917
11.0456
11.1937
11.336
11.473
11.6047
11.7315
11.8537
11.9717
12.0855
12.1955
12.3019
12.4051
12.5048
12.6024
12.6957
12.7901
12.8758
12.9748
13.0467
13.1774
13.2148
-5.35427
-5.35264
-5.35246
-5.35256
-5.35263
-5.35269
-5.35278
-5.35291
-5.35308
-5.35329
-5.35355
-5.35385
-5.3542
-5.35459
-5.35504
-5.35554
-5.35609
-5.35671
-5.35739
-5.35815
-5.35898
-5.35989
-5.36089
-5.36198
-5.36318
-5.36449
-5.36592
-5.36749
-5.36919
-5.37104
-5.37304
-5.37524
-5.37764
-5.38027
-5.38318
-5.3864
-5.38997
-5.39392
-5.39838
-5.40344
-5.40924
-5.41594
-5.42374
-5.43293
-5.4438
-5.45793
-5.47634
-5.49801
-5.5233
-5.55242
-5.58542
-5.62217
-5.66237
-5.70557
-5.75117
-5.7985
-5.84682
-5.89541
-5.94351
-5.99041
-6.03543
-6.07795
-6.11735
-6.1531
-6.18468
-6.21164
-6.23355
-6.25003
-6.26074
-6.26539
-6.26369
-6.25543
-6.24041
-6.21844
-6.18941
-6.15318
-6.10967
-6.05881
-6.00054
-5.93482
-5.86162
-5.78092
-5.69273
-5.59705
-5.49391
-5.38335
-5.26542
-5.14017
-5.00767
-4.86801
-4.72127
-4.56754
-4.40693
-4.23954
-4.06551
-3.88497
-3.69806
-3.50494
-3.3058
-3.1008
-2.89015
-2.67405
-2.45272
-2.22637
-1.99524
-1.75957
-1.5196
-1.27556
-1.02772
-0.776312
-0.521601
-0.26384
-0.00328564
0.259804
0.52517
0.792556
1.06171
1.33237
1.60428
1.87722
2.15091
2.42513
2.69962
2.97415
3.24847
3.52233
3.79548
4.06765
4.33854
4.60783
4.8752
5.14026
5.40263
5.66189
5.91765
6.16952
6.41721
6.66048
6.89925
7.13358
7.36366
7.58974
7.81208
8.03084
8.24622
8.45805
8.66694
8.87211
9.07849
9.28773
9.48377
9.66646
9.84775
10.0308
10.2111
10.3864
10.5565
10.721
10.8798
11.0329
11.1805
11.3226
11.4595
11.5913
11.7183
11.8407
11.9589
12.0731
12.1835
12.2902
12.3937
12.4937
12.5917
12.6852
12.78
12.8662
12.9655
13.0382
13.1681
13.2062
-5.35422
-5.35218
-5.35198
-5.35214
-5.35224
-5.35232
-5.35243
-5.35257
-5.35275
-5.35296
-5.35322
-5.35352
-5.35387
-5.35426
-5.3547
-5.3552
-5.35575
-5.35637
-5.35704
-5.35779
-5.35861
-5.35951
-5.36049
-5.36156
-5.36273
-5.364
-5.36539
-5.3669
-5.36854
-5.37032
-5.37225
-5.37435
-5.37665
-5.37917
-5.38195
-5.38502
-5.38841
-5.39219
-5.39644
-5.40128
-5.40684
-5.4133
-5.42088
-5.42987
-5.44059
-5.45467
-5.47311
-5.49493
-5.52046
-5.54989
-5.58321
-5.62026
-5.6607
-5.70404
-5.7497
-5.79699
-5.84519
-5.89359
-5.94146
-5.98811
-6.03287
-6.07512
-6.11428
-6.14981
-6.18121
-6.20801
-6.2298
-6.2462
-6.25687
-6.26151
-6.25984
-6.25165
-6.23672
-6.21489
-6.18602
-6.14998
-6.1067
-6.0561
-5.99811
-5.9327
-5.85983
-5.7795
-5.69169
-5.59641
-5.4937
-5.38357
-5.26609
-5.14132
-5.00931
-4.87015
-4.72392
-4.57073
-4.41065
-4.24382
-4.07034
-3.89037
-3.70402
-3.51148
-3.31291
-3.10848
-2.8984
-2.68286
-2.46209
-2.2363
-2.00573
-1.7706
-1.53116
-1.28765
-1.04032
-0.789427
-0.535214
-0.27794
-0.017861
0.244764
0.509676
0.776619
1.04534
1.31557
1.58708
1.8596
2.13289
2.40671
2.68081
2.95495
3.22888
3.50235
3.77512
4.04691
4.31744
4.58641
4.85349
5.11832
5.38055
5.63979
5.89569
6.14791
6.39621
6.64041
6.88047
7.11649
7.34863
7.5771
7.80203
8.02344
8.24129
8.45526
8.66575
8.87211
9.07799
9.28457
9.47941
9.66238
9.84293
10.0239
10.2019
10.3752
10.5436
10.7067
10.8645
11.017
11.1641
11.306
11.4429
11.5748
11.7021
11.8249
11.9434
12.058
12.1688
12.2759
12.3798
12.4803
12.5786
12.6726
12.7677
12.8545
12.9538
13.0276
13.1557
13.1948
-5.35362
-5.3516
-5.35138
-5.35156
-5.35169
-5.35179
-5.35191
-5.35206
-5.35225
-5.35247
-5.35273
-5.35303
-5.35338
-5.35377
-5.35422
-5.35471
-5.35526
-5.35587
-5.35654
-5.35727
-5.35808
-5.35895
-5.35991
-5.36095
-5.36208
-5.36331
-5.36464
-5.36608
-5.36765
-5.36934
-5.37118
-5.37318
-5.37535
-5.37774
-5.38035
-5.38324
-5.38644
-5.39002
-5.39405
-5.39866
-5.40399
-5.41024
-5.41766
-5.42656
-5.43727
-5.45147
-5.47018
-5.4924
-5.51842
-5.54835
-5.58215
-5.61959
-5.6603
-5.70378
-5.74943
-5.79659
-5.84457
-5.89266
-5.94018
-5.98645
-6.03083
-6.07271
-6.11154
-6.14676
-6.1779
-6.20448
-6.22611
-6.24239
-6.25299
-6.25761
-6.25597
-6.24784
-6.23302
-6.21133
-6.18265
-6.14684
-6.10382
-6.05352
-5.99586
-5.93081
-5.85834
-5.77843
-5.69107
-5.59627
-5.49404
-5.38443
-5.26748
-5.14326
-5.01182
-4.87324
-4.72761
-4.57502
-4.41557
-4.24937
-4.07653
-3.89719
-3.7115
-3.51961
-3.32168
-3.1179
-2.90845
-2.69356
-2.47341
-2.24825
-2.01828
-1.78376
-1.54491
-1.30199
-1.05523
-0.804896
-0.551231
-0.294491
-0.0349331
0.227184
0.491603
0.758065
1.02631
1.29609
1.56715
1.83924
2.11211
2.38551
2.6592
2.93294
3.20648
3.47957
3.75197
4.02343
4.29365
4.56237
4.82926
5.09401
5.35628
5.61574
5.87206
6.12498
6.37428
6.61985
6.86166
7.0998
7.3344
7.56555
7.79326
8.01734
8.23757
8.45352
8.66536
8.87257
9.07777
9.28175
9.4751
9.65783
9.83726
10.0159
10.1914
10.3625
10.529
10.6905
10.8471
10.9987
11.1453
11.287
11.4237
11.5558
11.6833
11.8064
11.9254
12.0404
12.1516
12.2592
12.3636
12.4645
12.5632
12.6578
12.7531
12.8407
12.9397
13.0149
13.1401
13.1803
-5.3523
-5.35087
-5.35068
-5.35082
-5.35095
-5.35105
-5.35118
-5.35134
-5.35154
-5.35177
-5.35203
-5.35234
-5.35269
-5.35308
-5.35352
-5.35401
-5.35456
-5.35516
-5.35582
-5.35654
-5.35732
-5.35817
-5.3591
-5.3601
-5.36118
-5.36235
-5.36362
-5.36498
-5.36646
-5.36805
-5.36977
-5.37164
-5.37367
-5.37589
-5.37833
-5.38102
-5.38401
-5.38737
-5.3912
-5.39561
-5.40077
-5.40692
-5.41431
-5.42328
-5.43422
-5.44881
-5.46811
-5.49103
-5.5178
-5.54844
-5.58284
-5.62074
-5.66172
-5.70529
-5.75086
-5.79779
-5.84542
-5.89309
-5.94014
-5.98592
-6.02981
-6.07123
-6.10963
-6.14448
-6.17529
-6.20161
-6.22303
-6.23916
-6.24966
-6.25423
-6.2526
-6.24453
-6.22982
-6.20829
-6.17981
-6.14424
-6.10151
-6.05152
-5.99423
-5.92958
-5.85754
-5.7781
-5.69123
-5.59694
-5.49526
-5.38621
-5.26984
-5.14622
-5.0154
-4.87746
-4.73249
-4.58056
-4.42179
-4.25627
-4.08413
-3.90549
-3.7205
-3.5293
-3.33207
-3.12898
-2.92023
-2.70602
-2.48655
-2.26205
-2.03274
-1.79886
-1.56065
-1.31834
-1.0722
-0.822453
-0.569368
-0.313193
-0.0541862
0.207396
0.471295
0.737252
1.00501
1.27431
1.54491
1.81655
2.08898
2.36196
2.63524
2.90859
3.18175
3.45448
3.72656
3.99772
4.26772
4.53628
4.80312
5.06794
5.33045
5.59036
5.8474
6.10135
6.35204
6.59938
6.84337
7.08403
7.32141
7.55549
7.78608
8.01283
8.23535
8.45307
8.666
8.87369
9.07794
9.27925
9.47085
9.65294
9.83095
10.0071
10.1799
10.3485
10.5129
10.6727
10.8279
10.9784
11.1243
11.2655
11.4022
11.5343
11.662
11.7855
11.9049
12.0203
12.1321
12.2402
12.3451
12.4465
12.5456
12.6407
12.7363
12.8247
12.9231
12.9999
13.1212
13.1625
-5.35039
-5.3498
-5.34972
-5.34981
-5.34992
-5.35003
-5.35017
-5.35034
-5.35054
-5.35077
-5.35105
-5.35136
-5.35171
-5.35211
-5.35255
-5.35304
-5.35358
-5.35417
-5.35481
-5.35551
-5.35627
-5.35709
-5.35798
-5.35893
-5.35995
-5.36106
-5.36224
-5.36351
-5.36488
-5.36635
-5.36794
-5.36966
-5.37153
-5.37358
-5.37582
-5.37832
-5.38112
-5.3843
-5.38797
-5.39227
-5.39741
-5.40362
-5.41122
-5.42054
-5.43201
-5.44736
-5.46759
-5.49152
-5.51927
-5.55078
-5.58587
-5.62424
-5.66547
-5.70907
-5.75447
-5.80108
-5.84827
-5.89541
-5.94188
-5.98707
-6.03039
-6.07128
-6.10918
-6.14359
-6.17403
-6.20003
-6.22119
-6.23713
-6.2475
-6.252
-6.25036
-6.24233
-6.22772
-6.20633
-6.17804
-6.14271
-6.10026
-6.0506
-5.99368
-5.92944
-5.85785
-5.77889
-5.69253
-5.59879
-5.49766
-5.3892
-5.27345
-5.15045
-5.02028
-4.88301
-4.73871
-4.58749
-4.42942
-4.26462
-4.0932
-3.91529
-3.73102
-3.54055
-3.34405
-3.14168
-2.93363
-2.72012
-2.50135
-2.27753
-2.04889
-1.81567
-1.57811
-1.33644
-1.09092
-0.841784
-0.589292
-0.333694
-0.0752478
0.18579
0.44916
0.714606
0.981868
1.25069
1.52082
1.79202
2.06402
2.33659
2.60947
2.88244
3.15526
3.42769
3.69949
3.97044
4.2403
4.50882
4.77575
5.04082
5.30378
5.56439
5.82243
6.07772
6.33014
6.5796
6.82606
7.06951
7.30988
7.54697
7.78044
8.00976
8.23436
8.45361
8.66732
8.87514
9.07824
9.27691
9.46658
9.64759
9.82393
9.99743
10.1675
10.3335
10.4955
10.6533
10.8069
10.9563
11.1013
11.242
11.3784
11.5106
11.6385
11.7623
11.8821
11.998
12.1102
12.2189
12.3243
12.4263
12.5258
12.6216
12.7173
12.8066
12.904
12.9825
13.0991
13.1412
-5.34779
-5.34833
-5.34841
-5.34844
-5.34852
-5.34863
-5.34878
-5.34896
-5.34917
-5.34941
-5.3497
-5.35002
-5.35037
-5.35078
-5.35122
-5.3517
-5.35224
-5.35282
-5.35344
-5.35412
-5.35484
-5.35562
-5.35646
-5.35735
-5.35831
-5.35933
-5.36042
-5.36159
-5.36284
-5.36418
-5.36563
-5.3672
-5.3689
-5.37078
-5.37286
-5.3752
-5.37786
-5.38095
-5.3846
-5.38898
-5.39432
-5.40088
-5.40899
-5.41902
-5.4314
-5.44785
-5.46934
-5.49454
-5.52343
-5.5559
-5.59171
-5.63054
-5.67197
-5.71553
-5.76069
-5.80689
-5.85356
-5.9001
-5.94593
-5.99048
-6.03317
-6.07345
-6.11081
-6.14474
-6.17475
-6.2004
-6.22127
-6.23698
-6.24719
-6.25159
-6.2499
-6.24188
-6.22733
-6.20606
-6.17793
-6.14282
-6.10063
-6.05129
-5.99472
-5.93088
-5.85974
-5.78125
-5.6954
-5.60219
-5.50163
-5.39375
-5.2786
-5.15623
-5.02671
-4.8901
-4.74649
-4.59595
-4.4386
-4.27451
-4.10381
-3.92663
-3.74308
-3.55333
-3.35754
-3.15588
-2.94854
-2.73572
-2.51762
-2.29448
-2.06651
-1.83394
-1.59701
-1.35597
-1.11105
-0.862515
-0.610602
-0.355569
-0.0976702
0.162837
0.425693
0.690641
0.957424
1.22579
1.49547
1.76624
2.03784
2.31002
2.58255
2.85519
3.12772
3.3999
3.67151
3.94235
4.21219
4.48081
4.74798
5.01349
5.27712
5.53867
5.79796
6.05487
6.30927
6.56108
6.81023
7.0566
7.29999
7.54006
7.77627
8.00795
8.23438
8.45485
8.66907
8.87671
9.07852
9.27468
9.46232
9.64191
9.81636
9.98719
10.1544
10.3177
10.4773
10.633
10.7848
10.9328
11.0769
11.2169
11.353
11.485
11.6131
11.7371
11.8573
11.9737
12.0865
12.1957
12.3017
12.4042
12.5042
12.6007
12.6964
12.7866
12.8827
12.9628
13.0739
13.1166
-5.34436
-5.34615
-5.34644
-5.34642
-5.34648
-5.34662
-5.3468
-5.347
-5.34723
-5.3475
-5.34781
-5.34815
-5.34853
-5.34894
-5.34939
-5.34988
-5.35041
-5.35098
-5.35159
-5.35224
-5.35293
-5.35366
-5.35444
-5.35527
-5.35615
-5.35708
-5.35807
-5.35913
-5.36026
-5.36148
-5.36279
-5.36422
-5.3658
-5.36755
-5.36954
-5.37182
-5.37449
-5.37768
-5.38153
-5.38627
-5.39213
-5.39939
-5.40839
-5.41951
-5.43311
-5.45096
-5.47397
-5.50058
-5.5307
-5.56414
-5.60065
-5.6399
-5.68149
-5.72496
-5.76983
-5.81559
-5.86169
-5.9076
-5.95277
-5.99664
-6.03867
-6.07835
-6.11515
-6.14857
-6.17814
-6.20342
-6.22397
-6.23942
-6.24943
-6.25369
-6.25192
-6.24388
-6.22935
-6.20815
-6.18015
-6.14521
-6.10324
-6.05417
-5.99792
-5.93445
-5.86371
-5.78567
-5.7003
-5.60758
-5.50755
-5.40021
-5.28563
-5.16385
-5.03494
-4.89896
-4.756
-4.60613
-4.44945
-4.28604
-4.11603
-3.93952
-3.75666
-3.56759
-3.37246
-3.17147
-2.96479
-2.75261
-2.53516
-2.31264
-2.08529
-1.85332
-1.61699
-1.37653
-1.13218
-0.884197
-0.632823
-0.378313
-0.120921
0.139095
0.401477
0.665968
0.932311
1.20025
1.46954
1.73992
2.01116
2.28302
2.55524
2.82762
3.09993
3.37194
3.64347
3.9143
4.18425
4.45312
4.72072
4.98685
5.25134
5.51404
5.7748
6.03351
6.29007
6.54437
6.79626
7.04553
7.29183
7.53468
7.77339
8.00713
8.23509
8.45651
8.67097
8.87821
9.07869
9.27254
9.45815
9.63609
9.80854
9.97678
10.1412
10.3018
10.4588
10.6124
10.7624
10.9088
11.0517
11.191
11.3266
11.4584
11.5865
11.7107
11.8313