/*--------------------------------*- C++ -*----------------------------------*\
| =========                 |                                                 |
| \\      /  F ield         | OpenFOAM: The Open Source CFD Toolbox           |
|  \\    /   O peration     | Version:  2112                                  |
|   \\  /    A nd           | Website:  www.openfoam.com                      |
|    \\/     M anipulation  |                                                 |
\*---------------------------------------------------------------------------*/
FoamFile
{
    version     2.0;
    format      ascii;
    arch        "LSB;label=32;scalar=64";
    class       volVectorField;
    location    "0.01";
    object      U;
}
// * * * * * * * * * * * * * * * * * * * * * * * * * * * * * * * * * * * * * //

dimensions      [0 1 -1 0 0 0 0];

internalField   nonuniform List<vector> 
12225
(
(9.88296 0.0794483 0)
(9.75659 0.0203673 0)
(9.54814 0.0261887 0)
(9.24814 0.0442046 0)
(8.87446 0.0583244 0)
(8.47288 0.0593017 0)
(8.11208 0.0469557 0)
(7.83587 0.0314594 0)
(7.61249 0.0247614 0)
(7.39882 0.03081 0)
(7.14216 0.041923 0)
(6.87299 0.0470864 0)
(6.58265 0.0438803 0)
(6.36508 0.0373402 0)
(6.09808 0.0362415 0)
(5.98803 0.0334942 0)
(5.66107 0.0553141 0)
(5.62691 0.0490546 0)
(9.9879 0.00058214 0)
(10.0762 0.0545909 0)
(10.1457 0.0846311 0)
(10.2309 0.104674 0)
(10.3009 0.122895 0)
(10.3157 0.127276 0)
(10.2828 0.116256 0)
(10.236 0.10133 0)
(10.1859 0.0949341 0)
(10.1329 0.102327 0)
(10.065 0.115697 0)
(9.99002 0.127907 0)
(9.89951 0.126623 0)
(9.81983 0.124484 0)
(9.71746 0.113387 0)
(9.64487 0.113651 0)
(9.52658 0.126447 0)
(9.4489 0.132937 0)
(9.82262 0.0751714 0)
(9.93647 0.00207203 0)
(10.0115 -0.0124819 0)
(10.0696 0.00934287 0)
(10.1225 0.0411 0)
(10.1535 0.065611 0)
(10.1605 0.0713145 0)
(10.1559 0.0640105 0)
(10.1467 0.0608459 0)
(10.1384 0.0720355 0)
(10.1334 0.0911921 0)
(10.1315 0.106122 0)
(10.1268 0.108109 0)
(10.1174 0.103959 0)
(10.1064 0.100333 0)
(10.0965 0.104501 0)
(10.096 0.124858 0)
(10.1048 0.148453 0)
(9.89205 -0.0848502 0)
(9.96843 0.00472253 0)
(9.89169 0.0541998 0)
(9.86141 0.0788987 0)
(9.91193 0.101432 0)
(10.0081 0.114134 0)
(10.1018 0.110319 0)
(10.1547 0.0989121 0)
(10.1598 0.0933171 0)
(10.1433 0.0999653 0)
(10.1368 0.113363 0)
(10.1533 0.124932 0)
(10.1844 0.127817 0)
(10.2136 0.125902 0)
(10.2312 0.123467 0)
(10.2355 0.123698 0)
(10.2303 0.133373 0)
(10.2255 0.141041 0)
(10.1665 0.0538149 0)
(9.99855 0.014489 0)
(9.94424 0.0195499 0)
(9.91579 0.00714316 0)
(9.93206 -0.00151003 0)
(9.98779 0.00474669 0)
(10.0455 0.0251314 0)
(10.0714 0.0500702 0)
(10.0605 0.0730034 0)
(10.0344 0.089011 0)
(10.0215 0.0950231 0)
(10.0349 0.0933232 0)
(10.0656 0.0887699 0)
(10.0963 0.088439 0)
(10.1127 0.0947693 0)
(10.1151 0.107185 0)
(10.105 0.124695 0)
(10.1002 0.141964 0)
(9.84501 0.0837201 0)
(9.97254 0.0566045 0)
(10.1156 0.065528 0)
(10.1753 0.078148 0)
(10.1672 0.0808624 0)
(10.1098 0.0793779 0)
(10.0292 0.0823374 0)
(9.94554 0.0919214 0)
(9.87958 0.10135 0)
(9.85375 0.105043 0)
(9.87373 0.102546 0)
(9.92418 0.0984355 0)
(9.98375 0.0972197 0)
(10.0328 0.10243 0)
(10.0611 0.113573 0)
(10.0683 0.128071 0)
(10.059 0.142137 0)
(10.0408 0.149601 0)
(9.95495 0.0270049 0)
(10.0346 -0.0391097 0)
(10.0741 -0.0418927 0)
(10.1152 -0.000524395 0)
(10.1353 0.0309739 0)
(10.1194 0.0552126 0)
(10.0784 0.0834413 0)
(10.0425 0.107795 0)
(10.0318 0.114346 0)
(10.0477 0.0994964 0)
(10.0785 0.0735393 0)
(10.1105 0.0517828 0)
(10.132 0.0444114 0)
(10.1388 0.0546537 0)
(10.1317 0.0779768 0)
(10.1193 0.106804 0)
(10.1101 0.133892 0)
(10.1141 0.152715 0)
(10.0286 -0.0421488 0)
(10.0133 0.0321087 0)
(9.87973 0.0336165 0)
(9.82158 0.0454474 0)
(9.86964 0.0697529 0)
(9.95111 0.093328 0)
(10.0198 0.107614 0)
(10.0728 0.107375 0)
(10.1193 0.0940621 0)
(10.1596 0.076739 0)
(10.1878 0.0654006 0)
(10.1975 0.0659723 0)
(10.1869 0.0786712 0)
(10.1581 0.100508 0)
(10.1177 0.124388 0)
(10.0744 0.143534 0)
(10.0354 0.151978 0)
(10.0082 0.148503 0)
(9.78497 -0.00534051 0)
(9.76888 0.0185733 0)
(9.79663 0.0326338 0)
(9.80879 0.0138133 0)
(9.83127 -0.0046233 0)
(9.87304 0.00231974 0)
(9.93302 0.0332089 0)
(9.99695 0.06552 0)
(10.0472 0.079624 0)
(10.0771 0.0742889 0)
(10.0897 0.0624661 0)
(10.0907 0.0594648 0)
(10.0836 0.0720027 0)
(10.0715 0.0975559 0)
(10.0613 0.126997 0)
(10.0577 0.152762 0)
(10.0662 0.167955 0)
(10.0831 0.169127 0)
(9.92782 0.11758 0)
(9.84824 0.0370346 0)
(9.88758 0.00642756 0)
(9.95995 0.0168375 0)
(9.98356 0.0356978 0)
(9.96757 0.0444204 0)
(9.9644 0.0494886 0)
(9.99859 0.0524426 0)
(10.0535 0.0516568 0)
(10.0994 0.0494785 0)
(10.1184 0.0515426 0)
(10.1134 0.0630202 0)
(10.0974 0.0839173 0)
(10.0838 0.109285 0)
(10.0768 0.130904 0)
(10.0787 0.141749 0)
(10.0886 0.13882 0)
(10.1089 0.123541 0)
(10.0011 0.00566081 0)
(10.0231 0.0417443 0)
(10.0291 -0.00606529 0)
(10.0339 -0.0131259 0)
(10.0127 0.00330518 0)
(9.96663 0.0168653 0)
(9.93408 0.0203299 0)
(9.93652 0.0215548 0)
(9.96389 0.0294152 0)
(9.99385 0.0435601 0)
(10.0094 0.0601209 0)
(10.0058 0.0777929 0)
(9.98798 0.0969085 0)
(9.96459 0.116955 0)
(9.94783 0.133915 0)
(9.94704 0.144462 0)
(9.96121 0.144764 0)
(9.98853 0.137178 0)
(10.0361 0.0673483 0)
(10.0957 0.0379559 0)
(10.1625 -0.0160245 0)
(10.1422 0.0165204 0)
(10.058 0.0558998 0)
(9.96682 0.0678215 0)
(9.90285 0.0560655 0)
(9.87782 0.0351237 0)
(9.89153 0.0204137 0)
(9.92967 0.022175 0)
(9.97183 0.0415683 0)
(10.002 0.0724221 0)
(10.0163 0.105031 0)
(10.0184 0.12956 0)
(10.0174 0.137695 0)
(10.0181 0.129336 0)
(10.0272 0.106973 0)
(10.0415 0.0789677 0)
(9.86099 -0.0123135 0)
(9.99822 -0.0330402 0)
(9.97549 -0.00999721 0)
(9.95212 0.0485427 0)
(9.96744 0.10468 0)
(10.0028 0.113117 0)
(10.0305 0.0764646 0)
(10.0311 0.0300873 0)
(10.0028 0.00106672 0)
(9.96341 -0.00163497 0)
(9.93615 0.018809 0)
(9.93399 0.0530571 0)
(9.95614 0.0898729 0)
(9.99418 0.120347 0)
(10.0386 0.137848 0)
(10.0803 0.141502 0)
(10.1162 0.131625 0)
(10.1413 0.113118 0)
(9.85221 -0.0263231 0)
(9.76085 0.0199837 0)
(9.73612 0.0101761 0)
(9.78674 -0.00544569 0)
(9.90964 -0.0111832 0)
(10.0279 -0.00275096 0)
(10.0824 0.0216481 0)
(10.0776 0.0499948 0)
(10.0491 0.0692936 0)
(10.0211 0.0742687 0)
(10.0043 0.069237 0)
(10.0008 0.0631669 0)
(10.008 0.0616803 0)
(10.0212 0.0632718 0)
(10.0394 0.0624416 0)
(10.0614 0.0560387 0)
(10.0887 0.0430087 0)
(10.1181 0.0270041 0)
(10.063 0.173188 0)
(10.0277 0.0234855 0)
(10.0399 -0.0667863 0)
(10.0122 -0.0651197 0)
(9.97162 -0.0233028 0)
(9.92577 0.0324406 0)
(9.89111 0.0640732 0)
(9.88139 0.0583997 0)
(9.89526 0.0351981 0)
(9.92176 0.018704 0)
(9.95254 0.0215065 0)
(9.98589 0.0427124 0)
(10.0226 0.0716736 0)
(10.0628 0.096349 0)
(10.1027 0.107359 0)
(10.1403 0.103051 0)
(10.1706 0.0846513 0)
(10.195 0.0602079 0)
(9.90544 0.186621 0)
(9.856 0.109322 0)
(9.82598 0.051387 0)
(9.78023 0.0646176 0)
(9.78943 0.0712726 0)
(9.85332 0.0582025 0)
(9.91638 0.0425779 0)
(9.95247 0.0348168 0)
(9.95729 0.0318539 0)
(9.93571 0.0251579 0)
(9.90398 0.0108321 0)
(9.88165 -0.00829996 0)
(9.87831 -0.0263091 0)
(9.8942 -0.037847 0)
(9.92332 -0.0425255 0)
(9.95878 -0.0413432 0)
(9.99589 -0.0388684 0)
(10.0297 -0.0368576 0)
(9.86238 0.0405969 0)
(9.88146 0.041724 0)
(9.90292 -0.0315782 0)
(9.95139 -0.0947346 0)
(10.0069 -0.118646 0)
(10.0676 -0.0959268 0)
(10.1094 -0.0433719 0)
(10.1203 0.0155356 0)
(10.1086 0.0617707 0)
(10.0894 0.0876225 0)
(10.0753 0.0942705 0)
(10.0744 0.086939 0)
(10.0877 0.0722362 0)
(10.1122 0.0538604 0)
(10.1429 0.0332819 0)
(10.175 0.0103992 0)
(10.2045 -0.0142183 0)
(10.2265 -0.0380306 0)
(10.2281 -0.12949 0)
(10.1659 -0.0912272 0)
(10.1812 -0.00393829 0)
(10.1122 0.020328 0)
(10.0444 -0.0069058 0)
(10.0269 -0.0255569 0)
(10.0311 -0.00335726 0)
(10.0382 0.0415223 0)
(10.0431 0.0713323 0)
(10.0436 0.0632493 0)
(10.0408 0.018075 0)
(10.0398 -0.0470791 0)
(10.0441 -0.109925 0)
(10.0547 -0.154115 0)
(10.0697 -0.172223 0)
(10.0863 -0.166814 0)
(10.0982 -0.142129 0)
(10.1031 -0.105027 0)
(9.76843 -0.147191 0)
(9.77059 0.0346941 0)
(9.80962 0.0852351 0)
(9.88019 0.0196329 0)
(9.91803 -0.0687405 0)
(9.91598 -0.11013 0)
(9.90583 -0.0832089 0)
(9.91977 -0.0154719 0)
(9.96676 0.0521998 0)
(10.0294 0.0973749 0)
(10.0808 0.115326 0)
(10.1023 0.106171 0)
(10.0915 0.074062 0)
(10.0587 0.0309421 0)
(10.018 -0.00776055 0)
(9.98139 -0.0317583 0)
(9.95577 -0.0374727 0)
(9.9432 -0.0254358 0)
(9.93579 -0.224328 0)
(9.92088 -0.161027 0)
(9.96038 -0.131217 0)
(10.023 -0.103102 0)
(10.0666 -0.0415583 0)
(10.0735 0.0097441 0)
(10.0608 -5.51777e-05 0)
(10.0422 -0.0600481 0)
(10.0266 -0.118965 0)
(10.024 -0.137042 0)
(10.0381 -0.109917 0)
(10.0623 -0.0571845 0)
(10.0854 -0.00689563 0)
(10.1 0.0183878 0)
(10.1032 0.0140658 0)
(10.0965 -0.00894354 0)
(10.0831 -0.0371849 0)
(10.07 -0.0563923 0)
(9.92909 -0.0268665 0)
(9.87509 -0.0471478 0)
(9.8702 -0.135981 0)
(9.88072 -0.160809 0)
(9.91618 -0.139108 0)
(9.97708 -0.091724 0)
(10.0332 -0.032505 0)
(10.0496 0.014613 0)
(10.0191 0.0328682 0)
(9.96253 0.0257208 0)
(9.9055 0.00894947 0)
(9.8638 -0.00434327 0)
(9.8471 -0.00872269 0)
(9.85643 -0.00532166 0)
(9.88468 0.00119174 0)
(9.92087 0.00605464 0)
(9.95857 0.00640288 0)
(9.99189 -7.27578e-05 0)
(10.0994 0.0289346 0)
(10.0907 -0.0511696 0)
(10.0341 -0.0942649 0)
(9.98125 -0.12401 0)
(9.9499 -0.136691 0)
(9.92813 -0.116095 0)
(9.90918 -0.0742218 0)
(9.90157 -0.0300799 0)
(9.91641 0.00666566 0)
(9.9525 0.0309542 0)
(9.99748 0.0399821 0)
(10.0377 0.031039 0)
(10.0641 0.0039863 0)
(10.0749 -0.0361705 0)
(10.075 -0.080397 0)
(10.0721 -0.118606 0)
(10.0713 -0.143179 0)
(10.0774 -0.148189 0)
(10.25 0.0128883 0)
(10.2451 -0.0100353 0)
(10.1016 -0.0653092 0)
(9.96579 -0.107167 0)
(9.87712 -0.105725 0)
(9.83726 -0.0621708 0)
(9.84224 -0.0156802 0)
(9.88514 -0.00401895 0)
(9.95068 -0.0295928 0)
(10.017 -0.065951 0)
(10.0659 -0.086614 0)
(10.0896 -0.0810575 0)
(10.0888 -0.056217 0)
(10.0692 -0.0287538 0)
(10.0369 -0.0130644 0)
(10.0003 -0.0136009 0)
(9.96549 -0.0291744 0)
(9.93923 -0.05155 0)
(9.98092 0.0940684 0)
(9.97417 0.125923 0)
(10.0034 0.11254 0)
(9.99243 0.0484143 0)
(9.94564 -0.0211179 0)
(9.92158 -0.0696033 0)
(9.94274 -0.101197 0)
(9.98321 -0.117514 0)
(10.0197 -0.111946 0)
(10.0453 -0.0837005 0)
(10.0629 -0.0430461 0)
(10.0774 -0.00446148 0)
(10.0921 0.0206848 0)
(10.1055 0.0260489 0)
(10.1135 0.0122756 0)
(10.1115 -0.0140648 0)
(10.0989 -0.0453112 0)
(10.0769 -0.0728694 0)
(9.88431 0.160007 0)
(9.98188 -0.016526 0)
(10.113 -0.0824735 0)
(10.1622 -0.0523763 0)
(10.1344 -0.0502763 0)
(10.0909 -0.0697925 0)
(10.0481 -0.0832374 0)
(10.0004 -0.089368 0)
(9.95542 -0.0977956 0)
(9.92939 -0.108656 0)
(9.92911 -0.111855 0)
(9.94851 -0.0994668 0)
(9.97666 -0.0735278 0)
(10.0035 -0.0424822 0)
(10.0238 -0.0158543 0)
(10.0372 0.000229737 0)
(10.0457 0.00345163 0)
(10.0532 -0.0046191 0)
(9.98386 0.114169 0)
(10.1232 -0.00143714 0)
(10.2265 0.00584825 0)
(10.2361 0.0315544 0)
(10.1585 0.0183492 0)
(10.0616 -0.00987875 0)
(10.0021 -0.0317352 0)
(9.99387 -0.0444922 0)
(10.0178 -0.0552135 0)
(10.0438 -0.0641789 0)
(10.0524 -0.0643138 0)
(10.042 -0.0527967 0)
(10.022 -0.0356604 0)
(10.003 -0.0225453 0)
(9.99081 -0.0211009 0)
(9.98779 -0.0319826 0)
(9.99252 -0.0526762 0)
(10.0033 -0.0772177 0)
(10.0882 -0.0174905 0)
(10.0317 -0.12358 0)
(10.023 -0.113993 0)
(10.1014 -0.0110308 0)
(10.1789 0.0396267 0)
(10.2173 0.0158672 0)
(10.2358 -0.0455386 0)
(10.2478 -0.100007 0)
(10.2442 -0.126237 0)
(10.2192 -0.124604 0)
(10.1806 -0.103365 0)
(10.1426 -0.0720955 0)
(10.116 -0.040736 0)
(10.1045 -0.0170032 0)
(10.1057 -0.00562589 0)
(10.1129 -0.00710235 0)
(10.1211 -0.0196372 0)
(10.1222 -0.040039 0)
(9.95936 -0.00664842 0)
(10.0276 -0.00320423 0)
(9.90668 -0.0420758 0)
(9.85815 -0.0334999 0)
(9.91962 -0.0264249 0)
(10.0096 -0.0317293 0)
(10.0749 -0.0420017 0)
(10.1047 -0.0490485 0)
(10.0998 -0.0483251 0)
(10.0712 -0.0410356 0)
(10.0383 -0.0305189 0)
(10.019 -0.0203511 0)
(10.0227 -0.0139161 0)
(10.0488 -0.0145004 0)
(10.0916 -0.0226602 0)
(10.1409 -0.0361326 0)
(10.1892 -0.0519773 0)
(10.2292 -0.065467 0)
(10.046 -0.11041 0)
(9.88218 -0.0948432 0)
(9.8811 -0.0307551 0)
(9.99577 -0.0167766 0)
(10.0825 -0.0330522 0)
(10.1015 -0.0629662 0)
(10.075 -0.0919748 0)
(10.0289 -0.104103 0)
(9.97567 -0.0962097 0)
(9.9302 -0.0786583 0)
(9.90711 -0.0628223 0)
(9.90939 -0.0545096 0)
(9.92638 -0.0537309 0)
(9.94277 -0.0579011 0)
(9.94543 -0.0645071 0)
(9.93171 -0.0717786 0)
(9.90299 -0.0796085 0)
(9.86987 -0.0867577 0)
(9.70357 -0.00638232 0)
(9.60125 0.00565562 0)
(9.44511 -0.0734549 0)
(9.23792 -0.0883612 0)
(9.07549 -0.0551187 0)
(8.93724 -0.0273677 0)
(8.78194 -0.0188679 0)
(8.61576 -0.0188529 0)
(8.45947 -0.0207193 0)
(8.32369 -0.0252341 0)
(8.20557 -0.0311672 0)
(8.0973 -0.0342955 0)
(7.99473 -0.031712 0)
(7.89972 -0.0247211 0)
(7.81065 -0.0180746 0)
(7.72495 -0.0165798 0)
(7.63282 -0.0229392 0)
(7.52952 -0.0341255 0)
(0.00258262 -0.0593056 -1.56235e-19)
(-0.00625281 -0.0588955 1.55119e-19)
(-0.0179383 -0.0488005 0)
(-0.0395156 -0.0350079 0)
(-0.0725787 -0.0189556 0)
(-0.118372 -0.000750494 -1.50546e-19)
(-0.178124 0.0188363 0)
(-0.252476 0.0387814 0)
(-0.341574 0.0585697 0)
(-0.445485 0.0781205 0)
(-0.564277 0.0974385 1.44829e-19)
(-0.697992 0.116418 0)
(-0.846583 0.135022 0)
(-1.00998 0.153151 0)
(-1.18808 0.1707 0)
(-1.38074 0.187535 1.39152e-19)
(-1.58768 0.203554 0)
(-1.80855 0.218533 0)
(-2.0428 0.232235 0)
(-2.28949 0.244551 0)
(-2.54731 0.255253 0)
(-2.81476 0.264029 0)
(-3.09014 0.270549 0)
(-3.37147 0.274523 1.30369e-19)
(-3.6565 0.27574 -1.29314e-19)
(-3.94267 0.274029 1.2827e-19)
(-4.22713 0.269211 1.27236e-19)
(-4.5067 0.261127 0)
(-4.77789 0.249671 0)
(-5.03693 0.234801 -1.24174e-19)
(-5.27984 0.216536 -1.23161e-19)
(-5.50253 0.19498 0)
(-5.70088 0.170383 0)
(-5.87094 0.143093 -1.20103e-19)
(-6.00919 0.113562 0)
(-6.11233 0.0824887 0)
(-6.17744 0.0506771 1.16956e-19)
(-6.2029 0.0188709 0)
(-6.18672 -0.0122672 1.14767e-19)
(-6.13173 -0.0422049 2.27279e-19)
(-6.03731 -0.0710269 0)
(-5.90473 -0.0983884 0)
(-5.73573 -0.12392 0)
(-5.53237 -0.147336 0)
(-5.29724 -0.168354 0)
(-5.03335 -0.186755 2.13267e-19)
(-4.744 -0.202356 2.10914e-19)
(-4.43274 -0.215042 2.08577e-19)
(-4.10332 -0.224784 0)
(-3.75966 -0.231598 -2.0398e-19)
(-3.40573 -0.235528 0)
(-3.04536 -0.236679 1.99522e-19)
(-2.6821 -0.235253 1.97354e-19)
(-2.31933 -0.231594 0)
(-1.96026 -0.226105 0)
(-1.60758 -0.218793 0)
(-1.26366 -0.210219 1.89116e-19)
(-0.930013 -0.200651 0)
(-0.60823 -0.190702 0)
(-0.299596 -0.180064 0)
(-0.00713132 -0.168862 0)
(0.269548 -0.157598 0)
(0.533365 -0.146803 0)
(0.7828 -0.136566 0)
(1.018 -0.126631 0)
(1.23924 -0.117033 -1.7175e-19)
(1.44697 -0.107828 0)
(1.6417 -0.0990491 0)
(1.82394 -0.0907212 1.66299e-19)
(1.99422 -0.0828575 1.64533e-19)
(2.15307 -0.0754602 0)
(2.30104 -0.0685218 -1.61064e-19)
(2.43868 -0.0620298 1.5936e-19)
(2.56654 -0.0559707 0)
(2.68513 -0.0503295 -1.56004e-19)
(2.79496 -0.0450912 0)
(2.89654 -0.040246 0)
(2.99034 -0.0357869 1.5109e-19)
(3.07686 -0.0316955 0)
(3.15656 -0.027947 -1.47885e-19)
(3.22986 -0.0245247 0)
(3.29719 -0.021414 1.44732e-19)
(3.35896 -0.0185964 1.43173e-19)
(3.41554 -0.0160522 1.41627e-19)
(3.4673 -0.0137636 2.80184e-19)
(3.51458 -0.0117132 -2.77136e-19)
(3.55771 -0.00988223 0)
(3.597 -0.00825213 0)
(3.63274 -0.00680574 0)
(3.66521 -0.00552754 -2.65158e-19)
(3.69466 -0.00440237 -2.62215e-19)
(3.72133 -0.00341587 2.59292e-19)
(3.74544 -0.00255464 0)
(3.76722 -0.00180627 -2.53505e-19)
(3.78684 -0.00115895 -2.50641e-19)
(3.8045 -0.000601548 -2.47795e-19)
(3.82035 -0.000124871 0)
(3.83456 0.000279409 0)
(3.84727 0.000618831 0)
(3.85861 0.000899726 -2.366e-19)
(3.86871 0.00112846 0)
(3.87769 0.00131224 0)
(3.88565 0.00145732 2.28394e-19)
(3.8927 0.00156953 0)
(3.89891 0.00165252 0)
(3.90438 0.00171619 2.20349e-19)
(3.90916 0.00176267 0)
(3.91334 0.00179413 0)
(3.91692 0.00181835 -2.12459e-19)
(3.91997 0.00183368 -2.09863e-19)
(3.92252 0.00184394 0)
(3.92463 0.00184788 2.04722e-19)
(3.92634 0.00184391 0)
(3.9277 0.00184315 -1.99648e-19)
(3.92872 0.00183645 0)
(3.92943 0.00182652 -1.9464e-19)
(3.92987 0.00181585 -1.9216e-19)
(3.93005 0.00180148 0)
(3.92999 0.00178804 0)
(3.9297 0.0017877 0)
(3.92919 0.00180749 0)
(3.92845 0.00184187 0)
(3.92748 0.0018752 0)
(3.92633 0.00188982 0)
(3.92502 0.00187531 -1.72894e-19)
(3.92362 0.00183163 1.70555e-19)
(3.92216 0.00176646 0)
(3.92067 0.00168969 0)
(3.91918 0.00161003 0)
(3.91769 0.00153273 0)
(3.91621 0.00146013 3.18169e-19)
(3.91471 0.00139239 0)
(3.91321 0.00132914 -3.09196e-19)
(3.9117 0.00126981 3.04752e-19)
(3.91018 0.00121425 0)
(3.90865 0.00116231 0)
(3.90711 0.00111412 0)
(3.90556 0.00106963 -2.87255e-19)
(3.90399 0.00102884 -2.8295e-19)
(3.90241 0.000991533 0)
(3.90082 0.000957555 -2.74419e-19)
(3.89922 0.000926634 -2.70193e-19)
(3.89761 0.000898605 2.65993e-19)
(3.89598 0.000873288 0)
(3.89433 0.000850546 0)
(3.89267 0.000830216 2.53547e-19)
(3.89099 0.000812172 0)
(3.8893 0.000796286 0)
(3.88758 0.000782501 0)
(3.88584 0.000770804 0)
(3.88408 0.000761232 -2.33303e-19)
(3.88229 0.000753863 -2.29326e-19)
(3.88047 0.000748756 0)
(3.87862 0.000746194 -2.21443e-19)
(3.87672 0.000746195 0)
(3.87478 0.000749554 0)
(3.87278 0.000755995 -2.0979e-19)
(3.87071 0.000767555 0)
(3.86856 0.000782754 -2.02133e-19)
(3.86632 0.000806088 0)
(3.86395 0.000834277 0)
(3.86146 0.00087519 -1.90809e-19)
(3.85873 0.000924354 0)
(3.85587 0.000991379 -1.83365e-19)
(3.85256 0.00107743 0)
(3.84914 0.00118266 0)
(3.84486 0.0013381 0)
(3.84058 0.00149369 1.68719e-19)
(3.83464 0.00179586 0)
(3.82894 0.00199844 -1.61514e-19)
(3.82011 0.00264043 0)
(3.81185 0.00281867 0)
(3.79806 0.00432609 0)
(3.7843 0.00414177 0)
(3.76241 0.00810888 0)
(3.73403 0.00632855 0)
(3.70049 0.0180205 0)
(3.62523 0.0110365 2.66851e-19)
(3.57953 0.0527128 0)
(3.32907 0.0420159 0)
(-0.0412394 0.0707879 4.68631e-19)
(-0.163419 0.104495 -4.65139e-19)
(-0.281935 0.126319 0)
(-0.405457 0.158064 3.05337e-19)
(-0.534393 0.192628 0)
(-0.668387 0.229412 1.50245e-19)
(-0.807194 0.267159 -2.98163e-19)
(-0.95176 0.304853 -2.95805e-19)
(-1.10282 0.341994 0)
(-1.26057 0.37857 -2.91147e-19)
(-1.42513 0.414427 -1.44387e-19)
(-1.5968 0.449384 0)
(-1.77561 0.483348 0)
(-1.96156 0.516216 0)
(-2.15449 0.547807 0)
(-2.35415 0.577834 -1.38702e-19)
(-2.56018 0.605905 0)
(-2.77219 0.631624 2.73047e-19)
(-2.98979 0.654601 0)
(-3.2126 0.674472 0)
(-3.44015 0.690819 -2.66527e-19)
(-3.67177 0.703187 0)
(-3.90652 0.711088 2.62295e-19)
(-4.14328 0.714004 -1.30033e-19)
(-4.38066 0.711369 1.28999e-19)
(-4.61708 0.70256 -1.27977e-19)
(-4.85066 0.686923 -1.26964e-19)
(-5.07921 0.663805 0)
(-5.30014 0.632672 0)
(-5.51056 0.593095 1.2397e-19)
(-5.70725 0.544814 -1.23221e-19)
(-5.8868 0.487814 0)
(-6.04567 0.422384 0)
(-6.18036 0.349124 1.19985e-19)
(-6.2876 0.268972 0)
(-6.36457 0.183316 0)
(-6.4087 0.0938511 -1.16894e-19)
(-6.41772 0.00227589 0)
(-6.39036 -0.0895768 1.14983e-19)
(-6.32204 -0.179906 -2.27157e-19)
(-6.21432 -0.267415 0)
(-6.0679 -0.3507 0)
(-5.88432 -0.428534 -4.40821e-19)
(-5.66583 -0.499918 -4.36071e-19)
(-5.41508 -0.564016 -4.31308e-19)
(-5.13515 -0.620179 2.13444e-19)
(-4.82951 -0.667908 -2.1075e-19)
(-4.50191 -0.70687 -6.25515e-19)
(-4.15622 -0.736904 4.12447e-19)
(-3.79639 -0.758015 2.03825e-19)
(-3.42654 -0.770381 0)
(-3.05065 -0.774333 -1.99379e-19)
(-2.67244 -0.770477 1.97351e-19)
(-2.29544 -0.759674 0)
(-1.9227 -0.742814 0)
(-1.55677 -0.720803 0)
(-1.20031 -0.694996 -1.89019e-19)
(-0.854958 -0.665719 0)
(-0.521963 -0.634953 3.70376e-19)
(-0.202568 -0.602634 0)
(0.100513 -0.570317 3.62682e-19)
(0.388904 -0.537457 0)
(0.665352 -0.504806 -3.54735e-19)
(0.927494 -0.472909 0)
(1.17552 -0.442167 3.47051e-19)
(1.41003 -0.412843 -1.71672e-19)
(1.63145 -0.385119 0)
(1.84035 -0.358833 -3.35989e-19)
(2.03733 -0.33389 -1.66189e-19)
(2.22296 -0.310289 -1.64423e-19)
(2.39779 -0.288024 0)
(2.5624 -0.267064 -1.6098e-19)
(2.71732 -0.247365 -1.59251e-19)
(2.86308 -0.228878 0)
(3.00018 -0.211553 1.55895e-19)
(3.12911 -0.195336 -3.085e-19)
(3.25033 -0.180183 0)
(3.36425 -0.166051 -1.50978e-19)
(3.47129 -0.152888 0)
(3.57184 -0.140635 4.43326e-19)
(3.66623 -0.129241 0)
(3.75482 -0.118657 -4.33856e-19)
(3.83795 -0.108835 -1.43055e-19)
(3.91592 -0.0997292 1.41517e-19)
(3.98903 -0.0912966 2.79961e-19)
(4.05755 -0.0834979 -2.76909e-19)
(4.12173 -0.0762938 0)
(4.18183 -0.0696455 0)
(4.23807 -0.0635168 0)
(4.29067 -0.0578738 7.94727e-19)
(4.33983 -0.0526834 2.6196e-19)
(4.38576 -0.0479138 -2.59036e-19)
(4.42864 -0.0435356 0)
(4.46865 -0.0395208 -2.53257e-19)
(4.50596 -0.0358434 2.50382e-19)
(4.54074 -0.0324784 2.47536e-19)
(4.57313 -0.0294031 0)
(4.60329 -0.0265962 0)
(4.63135 -0.0240381 0)
(4.65744 -0.0217105 2.36342e-19)
(4.68169 -0.0195956 0)
(4.70422 -0.0176758 -4.61716e-19)
(4.72513 -0.0159349 -6.84424e-19)
(4.74453 -0.0143565 4.50888e-19)
(4.76252 -0.0129265 0)
(4.77919 -0.011629 2.20103e-19)
(4.79463 -0.0104513 0)
(4.80893 -0.00938344 4.29657e-19)
(4.82219 -0.00841235 -2.1222e-19)
(4.83449 -0.00753152 -2.09626e-19)
(4.8459 -0.00673572 0)
(4.85648 -0.00601768 -6.13467e-19)
(4.86627 -0.00536875 4.03894e-19)
(4.87534 -0.00478944 1.9942e-19)
(4.88372 -0.00425656 0)
(4.89148 -0.00376287 1.94417e-19)
(4.89865 -0.00331323 5.75823e-19)
(4.90528 -0.00290448 0)
(4.91141 -0.0025311 3.74073e-19)
(4.91707 -0.00218502 3.69215e-19)
(4.92231 -0.00186184 3.6439e-19)
(4.92717 -0.00156291 0)
(4.9317 -0.0012947 0)
(4.93591 -0.00106656 0)
(4.93984 -0.000884052 -1.727e-19)
(4.94351 -0.000745817 -1.70364e-19)
(4.94695 -0.000643957 0)
(4.95017 -0.000568048 -3.31476e-19)
(4.95319 -0.000507133 -3.26894e-19)
(4.95603 -0.000452851 0)
(4.95867 -0.000399905 -3.17818e-19)
(4.96113 -0.000346662 -6.26648e-19)
(4.9634 -0.000293197 3.08858e-19)
(4.96549 -0.000240906 3.04421e-19)
(4.9674 -0.000190812 0)
(4.96914 -0.000144008 0)
(4.97071 -0.000100694 0)
(4.97214 -6.10788e-05 2.86949e-19)
(4.97342 -2.48057e-05 -2.8265e-19)
(4.97457 8.22744e-06 -5.56754e-19)
(4.9756 3.84384e-05 2.74131e-19)
(4.97651 6.60365e-05 -2.69911e-19)
(4.97732 9.13866e-05 -2.65717e-19)
(4.97803 0.000114786 0)
(4.97865 0.000136564 0)
(4.97919 0.000157005 2.5329e-19)
(4.97964 0.000176431 0)
(4.98003 0.000195149 0)
(4.98034 0.000213525 -4.82174e-19)
(4.98059 0.000231954 0)
(4.98078 0.000250919 -2.33074e-19)
(4.98091 0.000270966 2.29102e-19)
(4.98099 0.000292721 0)
(4.981 0.000316977 -2.2123e-19)
(4.98096 0.000344564 0)
(4.98086 0.000376719 0)
(4.9807 0.000414612 2.09592e-19)
(4.98048 0.000460389 -4.11515e-19)
(4.98018 0.0005157 2.01945e-19)
(4.97979 0.000583739 0)
(4.97932 0.000668122 0)
(4.97872 0.000771705 -1.90635e-19)
(4.978 0.000905599 0)
(4.97709 0.00106427 -1.832e-19)
(4.97599 0.00128594 0)
(4.9746 0.00152728 0)
(4.97293 0.001912 0)
(4.97074 0.00226942 -1.68571e-19)
(4.96815 0.00297893 0)
(4.96461 0.00347358 1.61374e-19)
(4.9605 0.00488774 0)
(4.95448 0.00545416 0)
(4.94787 0.00854658 -3.01435e-19)
(4.93691 0.00882281 2.94405e-19)
(4.92614 0.0162467 0)
(4.90439 0.0151551 0)
(4.8866 0.0350474 0)
(4.83887 0.0313144 -7.99879e-19)
(4.81233 0.0948173 0)
(4.70713 0.102088 5.06115e-19)
(-0.0570383 0.373984 1.34401e-22)
(-0.218063 0.436367 6.19991e-19)
(-0.367931 0.452004 0)
(-0.519579 0.481137 -6.10345e-19)
(-0.669773 0.512489 0)
(-0.819859 0.546363 0)
(-0.970074 0.582366 -1.29392e-22)
(-1.12086 0.620648 2.9562e-19)
(-1.2729 0.659891 2.93414e-19)
(-1.42708 0.699666 2.9096e-19)
(-1.58395 0.739853 0)
(-1.74404 0.780062 0)
(-1.90771 0.819885 -2.84212e-19)
(-2.07549 0.858983 -5.63897e-19)
(-2.24797 0.897058 5.59403e-19)
(-2.42585 0.933819 0)
(-2.60976 0.968912 5.50518e-19)
(-2.80019 1.0019 -2.72901e-19)
(-2.9975 1.03229 0)
(-3.2019 1.05946 5.37477e-19)
(-3.4135 1.08275 2.66417e-19)
(-3.63235 1.10139 -5.28998e-19)
(-3.85831 1.11448 -2.62198e-19)
(-4.09097 1.12096 0)
(-4.32955 1.11965 5.16624e-19)
(-4.5727 1.10928 5.12589e-19)
(-4.81844 1.08855 0)
(-5.06417 1.05618 5.04627e-19)
(-5.30667 1.01101 0)
(-5.54205 0.952028 4.9678e-19)
(-5.76587 0.878493 2.46053e-19)
(-5.97334 0.790067 0)
(-6.15941 0.686927 0)
(-6.31906 0.56989 0)
(-6.4476 0.440426 0)
(-6.54084 0.300541 0)
(-6.59522 0.152706 0)
(-6.60835 -8.60183e-05 4.64606e-19)
(-6.5784 -0.154647 -6.89633e-19)
(-6.50469 -0.307934 0)
(-6.38819 -0.456548 0)
(-6.23046 -0.597784 0)
(-6.0337 -0.72944 -7.66493e-22)
(-5.80063 -0.849781 4.35691e-19)
(-5.53436 -0.957471 8.62489e-19)
(-5.23832 -1.05147 -8.52899e-19)
(-4.91626 -1.131 -4.21944e-19)
(-4.57215 -1.19556 4.1671e-19)
(-4.21012 -1.24483 4.15771e-22)
(-3.83448 -1.27876 4.07845e-19)
(-3.44977 -1.29765 0)
(-3.06043 -1.30224 3.98817e-19)
(-2.67045 -1.29369 2.28902e-22)
(-2.28353 -1.27345 0)
(-1.90282 -1.24304 0)
(-1.53099 -1.2043 -3.81908e-19)
(-1.1704 -1.15942 0)
(-0.822715 -1.1094 0)
(-0.488967 -1.05639 3.70297e-19)
(-0.170213 -1.00135 7.32852e-19)
(0.131143 -0.947896 -3.62429e-19)
(0.416709 -0.893677 0)
(0.68883 -0.840239 3.54481e-19)
(0.946613 -0.788015 0)
(1.19056 -0.73765 3.46987e-19)
(1.42118 -0.689396 3.43136e-19)
(1.63875 -0.643465 -6.79064e-19)
(1.84368 -0.599998 -3.35967e-19)
(2.03675 -0.558975 0)
(2.21862 -0.52033 6.57627e-19)
(2.38991 -0.483988 0)
(2.55122 -0.449864 9.65624e-19)
(2.70313 -0.41786 6.36968e-19)
(2.84616 -0.387882 6.30229e-19)
(2.98083 -0.359836 -6.23557e-19)
(3.10764 -0.333612 9.25392e-19)
(3.22704 -0.309118 0)
(3.33948 -0.286276 0)
(3.44535 -0.264969 -5.97472e-19)
(3.54505 -0.245094 -8.8661e-19)
(3.63894 -0.22661 0)
(3.72735 -0.209437 2.89215e-19)
(3.81061 -0.193481 0)
(3.88901 -0.178656 -8.49045e-19)
(3.96281 -0.164887 3.1418e-23)
(4.03228 -0.152104 -2.9096e-23)
(4.09765 -0.140242 5.47738e-19)
(4.15916 -0.129238 0)
(4.217 -0.119038 -5.35751e-19)
(4.27138 -0.109586 2.13359e-23)
(4.32249 -0.100833 0)
(4.37051 -0.0927316 0)
(4.41559 -0.0852368 0)
(4.45791 -0.0783083 5.06484e-19)
(4.49761 -0.0719073 0)
(4.53484 -0.0659974 0)
(4.56973 -0.0605448 0)
(4.60241 -0.0555179 0)
(4.63301 -0.0508869 0)
(4.66164 -0.0466237 4.72681e-19)
(4.68842 -0.0427021 0)
(4.71344 -0.0390969 4.61698e-19)
(4.73681 -0.0357838 4.56266e-19)
(4.75862 -0.0327416 -4.5087e-19)
(4.77897 -0.0299491 0)
(4.79795 -0.0273867 -4.40184e-19)
(4.81562 -0.0250348 0)
(4.83208 -0.0228765 -4.29638e-19)
(4.8474 -0.0208994 4.24417e-19)
(4.86165 -0.0190885 1.2577e-18)
(4.87489 -0.0174317 0)
(4.8872 -0.0159173 1.22689e-18)
(4.89862 -0.014531 4.03881e-19)
(4.90921 -0.0132658 0)
(4.91907 -0.0120948 7.87614e-19)
(4.92821 -0.0110076 7.77642e-19)
(4.93669 -0.0100087 -1.1516e-18)
(4.94456 -0.00910037 0)
(4.95186 -0.00827045 -3.74054e-19)
(4.95862 -0.00750818 -3.69196e-19)
(4.9649 -0.00680726 -1.09311e-18)
(4.97072 -0.00616346 0)
(4.97612 -0.00557906 0)
(4.98114 -0.00506271 0)
(4.98578 -0.00462154 -3.45381e-19)
(4.99007 -0.00425415 0)
(4.99403 -0.00394902 0)
(4.99768 -0.00368813 3.31456e-19)
(5.00104 -0.00345254 3.26875e-19)
(5.00413 -0.00322761 0)
(5.00697 -0.00300529 0)
(5.00959 -0.00278381 6.26611e-19)
(5.012 -0.0025652 0)
(5.01421 -0.00235313 -6.08805e-19)
(5.01625 -0.0021509 -5.99988e-19)
(5.01812 -0.0019609 0)
(5.01984 -0.00178415 0)
(5.02141 -0.00162089 5.73865e-19)
(5.02286 -0.00147067 -3.82424e-25)
(5.02418 -0.00133281 -3.50049e-25)
(5.02538 -0.00120644 0)
(5.02649 -0.00109066 1.07958e-18)
(5.02749 -0.000984529 0)
(5.0284 -0.000887155 0)
(5.02924 -0.000797664 0)
(5.02999 -0.000715209 -5.0655e-19)
(5.03067 -0.000638922 0)
(5.03129 -0.000567954 9.80463e-19)
(5.03184 -0.000501409 4.82146e-19)
(5.03234 -0.000438385 0)
(5.03278 -0.000377863 4.66119e-19)
(5.03317 -0.000318834 0)
(5.0335 -0.000260022 0)
(5.03379 -0.000200233 1.3273e-18)
(5.03403 -0.000137629 -8.69261e-19)
(5.03422 -7.08226e-05 0)
(5.03435 3.27331e-06 -8.3832e-19)
(5.03443 8.59444e-05 4.11491e-19)
(5.03444 0.000183081 0)
(5.03438 0.000294502 0)
(5.03424 0.000433081 0)
(5.034 0.000592762 1.14374e-18)
(5.03365 0.000803617 0)
(5.03313 0.00104112 3.66378e-19)
(5.03246 0.00137938 0)
(5.03151 0.00173866 0)
(5.03035 0.00230754 0)
(5.0287 0.00285264 0)
(5.02676 0.00385723 0)
(5.02391 0.0046763 0)
(5.02069 0.00655631 6.31175e-19)
(5.01573 0.00774726 0)
(5.01032 0.0115376 3.01415e-19)
(5.00148 0.0132123 -8.83159e-19)
(4.99214 0.021497 0)
(4.97607 0.0241809 0)
(4.95955 0.0443795 5.47006e-19)
(4.93134 0.052236 5.33209e-19)
(4.90469 0.10856 -5.1955e-19)
(4.87039 0.142566 -5.06021e-19)
(-0.0535241 0.663397 -9.37356e-19)
(-0.210329 0.755729 -9.30203e-19)
(-0.354046 0.763565 -6.15459e-19)
(-0.499867 0.787849 -3.05539e-19)
(-0.642865 0.814226 0)
(-0.785109 0.845241 6.01149e-19)
(-0.926623 0.879019 -2.98422e-19)
(-1.06817 0.915464 0)
(-1.21044 0.954702 -2.93346e-19)
(-1.35436 0.996337 0)
(-1.50052 1.03942 5.77861e-19)
(-1.6499 1.08343 0)
(-1.80366 1.12836 2.84168e-19)
(-1.96302 1.17425 5.63816e-19)
(-2.12901 1.22086 -5.59323e-19)
(-2.30239 1.26767 0)
(-2.48376 1.31407 -5.50429e-19)
(-2.67371 1.35937 0)
(-2.87289 1.40276 0)
(-3.08208 1.44333 -5.37348e-19)
(-3.30201 1.48004 0)
(-3.53314 1.51165 -5.364e-22)
(-3.77552 1.53669 0)
(-4.02863 1.55352 0)
(-4.29129 1.56026 6.71281e-22)
(-4.56157 1.5548 -5.12272e-19)
(-4.83686 1.53487 -5.09042e-19)
(-5.11386 1.49806 -5.04254e-19)
(-5.38857 1.44198 0)
(-5.65632 1.36457 -9.93772e-19)
(-5.91182 1.26427 0)
(-6.14924 1.14035 -4.89748e-19)
(-6.36244 0.993018 0)
(-6.54525 0.823501 0)
(-6.69201 0.634146 4.78091e-19)
(-6.79803 0.428437 0)
(-6.85956 0.210827 -4.69989e-19)
(-6.87377 -0.0136002 1.42482e-21)
(-6.83921 -0.239464 9.2078e-19)
(-6.75581 -0.461762 -9.12705e-19)
(-6.62486 -0.676182 0)
(-6.44897 -0.878904 0)
(-6.23131 -1.06695 -4.42933e-19)
(-5.97543 -1.23807 0)
(-5.68509 -1.39053 -4.31009e-19)
(-5.36425 -1.523 4.26189e-19)
(-5.017 -1.63452 4.21397e-19)
(-4.64762 -1.72442 0)
(-4.26059 -1.79225 -4.11964e-19)
(-3.86073 -1.83781 -4.07351e-19)
(-3.453 -1.86138 8.06556e-19)
(-3.04226 -1.86413 -3.9839e-19)
(-2.63312 -1.84787 -3.94054e-19)
(-2.22971 -1.81474 0)
(-1.83543 -1.76737 0)
(-1.45306 -1.70865 3.81634e-19)
(-1.08468 -1.64113 0)
(-0.731446 -1.56737 0)
(-0.394183 -1.48976 -7.40002e-19)
(-0.0752976 -1.41064 -7.32379e-19)
(0.225537 -1.33241 0)
(0.510835 -1.25432 0)
(0.780494 -1.1783 0)
(1.03495 -1.10499 0)
(1.27486 -1.03477 -6.93342e-19)
(1.50095 -0.967748 6.86091e-19)
(1.714 -0.903921 6.78596e-19)
(1.91474 -0.843507 1.34293e-18)
(2.10382 -0.786573 0)
(2.28185 -0.733027 1.34627e-22)