/*--------------------------------*- C++ -*----------------------------------*\
| =========                 |                                                 |
| \\      /  F ield         | OpenFOAM: The Open Source CFD Toolbox           |
|  \\    /   O peration     | Version:  2112                                  |
|   \\  /    A nd           | Website:  www.openfoam.com                      |
|    \\/     M anipulation  |                                                 |
\*---------------------------------------------------------------------------*/
FoamFile
{
    version     2.0;
    format      ascii;
    arch        "LSB;label=32;scalar=64";
    class       volScalarField;
    location    "0.059";
    object      k_0;
}
// * * * * * * * * * * * * * * * * * * * * * * * * * * * * * * * * * * * * * //

dimensions      [0 2 -2 0 0 0 0];

internalField   nonuniform List<scalar> 
12225
(
0.000191636
0.000209237
0.000104873
5.18564e-05
4.92839e-05
5.81055e-05
6.37537e-05
6.44984e-05
6.3867e-05
6.12057e-05
5.36175e-05
4.12952e-05
3.14518e-05
2.59121e-05
2.39138e-05
2.37026e-05
2.37272e-05
3.01826e-05
2.63614e-05
2.84108e-05
2.52361e-05
2.29618e-05
2.35981e-05
2.77927e-05
3.14095e-05
3.33622e-05
3.47833e-05
3.54098e-05
3.53642e-05
3.47677e-05
3.30679e-05
2.93982e-05
2.63225e-05
2.46855e-05
2.40516e-05
2.4396e-05
2.00759e-05
1.79697e-05
1.75783e-05
1.76921e-05
1.81675e-05
1.9058e-05
1.93971e-05
1.93502e-05
1.87031e-05
1.71874e-05
1.60738e-05
1.58862e-05
1.59133e-05
1.58014e-05
1.56439e-05
1.56446e-05
1.57786e-05
1.60389e-05
2.00021e-05
1.99712e-05
2.01147e-05
2.15715e-05
2.6086e-05
2.79205e-05
2.78897e-05
2.62899e-05
2.12179e-05
1.73123e-05
1.58465e-05
1.55177e-05
1.54523e-05
1.53001e-05
1.46685e-05
1.36268e-05
1.31168e-05
1.30225e-05
2.00389e-05
2.1314e-05
3.22726e-05
3.90731e-05
3.44956e-05
2.62745e-05
2.32721e-05
2.18159e-05
2.09047e-05
2.03785e-05
2.02158e-05
2.02658e-05
2.03775e-05
2.02942e-05
1.98263e-05
1.82016e-05
1.6748e-05
1.61936e-05
2.08554e-05
2.54294e-05
2.80506e-05
2.59961e-05
2.25037e-05
2.13914e-05
2.10229e-05
2.0866e-05
2.07948e-05
2.07607e-05
2.0761e-05
2.0827e-05
2.11751e-05
2.16257e-05
2.16293e-05
2.12956e-05
2.085e-05
2.04153e-05
2.0328e-05
2.24454e-05
2.29328e-05
2.23788e-05
2.22955e-05
2.29556e-05
2.48257e-05
2.50775e-05
2.46482e-05
2.3517e-05
2.27837e-05
2.25909e-05
2.26527e-05
2.32715e-05
2.6676e-05
3.26078e-05
3.47948e-05
3.48408e-05
2.26542e-05
2.26467e-05
2.1221e-05
2.11788e-05
2.19477e-05
2.48242e-05
3.69537e-05
4.44782e-05
4.26378e-05
3.31793e-05
2.64578e-05
2.39138e-05
2.33068e-05
2.33862e-05
2.42066e-05
2.74248e-05
3.02351e-05
3.12419e-05
2.18381e-05
2.16043e-05
2.24572e-05
2.64356e-05
2.88009e-05
3.09762e-05
3.14059e-05
2.94103e-05
2.64638e-05
2.42563e-05
2.31039e-05
2.28022e-05
2.29553e-05
2.42395e-05
2.62613e-05
2.70935e-05
2.70673e-05
2.67457e-05
2.07133e-05
2.07918e-05
2.15905e-05
2.81931e-05
4.70454e-05
5.3683e-05
5.08049e-05
3.80246e-05
3.10069e-05
3.00074e-05
3.08297e-05
3.12742e-05
3.10036e-05
2.96459e-05
2.65065e-05
2.41164e-05
2.26258e-05
2.19372e-05
2.00112e-05
2.04566e-05
2.37822e-05
3.6633e-05
4.18537e-05
3.6039e-05
2.75997e-05
2.43998e-05
2.40037e-05
2.5101e-05
3.10279e-05
3.59463e-05
3.67371e-05
3.56561e-05
3.03273e-05
2.57832e-05
2.3823e-05
2.2835e-05
2.00088e-05
2.01347e-05
2.07165e-05
2.30465e-05
2.47012e-05
2.45483e-05
2.31904e-05
2.27722e-05
2.2964e-05
2.45149e-05
2.66592e-05
2.70539e-05
2.69071e-05
2.57601e-05
2.40606e-05
2.31888e-05
2.29817e-05
2.31665e-05
2.21065e-05
2.33938e-05
2.27527e-05
2.21356e-05
2.37679e-05
2.9197e-05
3.12213e-05
2.97848e-05
2.5379e-05
2.31547e-05
2.20844e-05
2.15136e-05
2.11819e-05
2.09905e-05
2.09206e-05
2.09315e-05
2.10999e-05
2.18094e-05
2.21807e-05
2.3913e-05
2.55061e-05
2.89954e-05
3.2773e-05
3.31394e-05
2.91501e-05
2.4522e-05
2.24598e-05
2.1581e-05
2.12099e-05
2.1097e-05
2.11047e-05
2.13876e-05
2.18609e-05
2.19151e-05
2.19497e-05
2.25258e-05
2.17986e-05
2.19313e-05
2.15131e-05
2.24426e-05
2.47587e-05
2.49756e-05
2.36111e-05
2.31295e-05
2.32087e-05
2.34853e-05
2.38237e-05
2.46565e-05
2.58294e-05
2.60878e-05
2.53512e-05
2.39431e-05
2.35871e-05
2.38482e-05
2.26251e-05
2.13345e-05
2.23506e-05
2.62957e-05
2.69008e-05
2.46195e-05
2.18662e-05
2.14157e-05
2.17667e-05
2.39949e-05
2.90244e-05
3.31732e-05
3.53902e-05
3.56267e-05
3.36015e-05
2.85268e-05
2.587e-05
2.49916e-05
2.0139e-05
2.18067e-05
2.28496e-05
2.28585e-05
2.20218e-05
2.13886e-05
2.15363e-05
2.32271e-05
2.55364e-05
2.61819e-05
2.60068e-05
2.46221e-05
2.31952e-05
2.26348e-05
2.2374e-05
2.22483e-05
2.22434e-05
2.24024e-05
2.09546e-05
2.14473e-05
2.14427e-05
2.13153e-05
2.11509e-05
2.13634e-05
2.31517e-05
2.59605e-05
2.67501e-05
2.65373e-05
2.45342e-05
2.2523e-05
2.18204e-05
2.16875e-05
2.1597e-05
2.15875e-05
2.1682e-05
2.20826e-05
2.2053e-05
2.32321e-05
2.21976e-05
2.11869e-05
2.10741e-05
2.12252e-05
2.19854e-05
2.27006e-05
2.28847e-05
2.28527e-05
2.26263e-05
2.24765e-05
2.23613e-05
2.21594e-05
2.19436e-05
2.18009e-05
2.17452e-05
2.17404e-05
2.11551e-05
2.12312e-05
2.17274e-05
2.2049e-05
2.12716e-05
2.07921e-05
2.081e-05
2.0935e-05
2.09777e-05
2.09872e-05
2.09987e-05
2.10436e-05
2.12458e-05
2.19351e-05
2.23004e-05
2.22835e-05
2.21122e-05
2.20247e-05
2.04763e-05
2.12343e-05
2.12918e-05
2.10469e-05
2.046e-05
2.03112e-05
2.03223e-05
2.04987e-05
2.10589e-05
2.15907e-05
2.20822e-05
2.2504e-05
2.2782e-05
2.29902e-05
2.32329e-05
2.32992e-05
2.26802e-05
2.19763e-05
2.01142e-05
2.06838e-05
2.10194e-05
2.10348e-05
2.06792e-05
2.03678e-05
2.03098e-05
2.03507e-05
2.06472e-05
2.18874e-05
2.68329e-05
4.40169e-05
5.67629e-05
5.85928e-05
5.57672e-05
4.45962e-05
3.51193e-05
3.00529e-05
2.01487e-05
2.12212e-05
2.28539e-05
2.46302e-05
2.38676e-05
2.16543e-05
2.11576e-05
2.1325e-05
2.25195e-05
2.69452e-05
3.73181e-05
4.66586e-05
5.17627e-05
5.24381e-05
5.03928e-05
4.22208e-05
3.42993e-05
2.93736e-05
2.01084e-05
2.04195e-05
2.1784e-05
2.36652e-05
2.40916e-05
2.3299e-05
2.27283e-05
2.29217e-05
2.41506e-05
2.51533e-05
2.55506e-05
2.56679e-05
2.56348e-05
2.54949e-05
2.53988e-05
2.53124e-05
2.51406e-05
2.45567e-05
2.31132e-05
2.18176e-05
2.09954e-05
2.09674e-05
2.11503e-05
2.12094e-05
2.11893e-05
2.13148e-05
2.2086e-05
2.3022e-05
2.34002e-05
2.3455e-05
2.33615e-05
2.27833e-05
2.1878e-05
2.12649e-05
2.08883e-05
2.06977e-05
2.02891e-05
2.04806e-05
2.07159e-05
2.13057e-05
2.42744e-05
2.74916e-05
2.74958e-05
2.59057e-05
2.4204e-05
2.31747e-05
2.2536e-05
2.21666e-05
2.19799e-05
2.19044e-05
2.18882e-05
2.18969e-05
2.19123e-05
2.19169e-05
2.00047e-05
2.00356e-05
2.00474e-05
2.01065e-05
2.04484e-05
2.09944e-05
2.11931e-05
2.11775e-05
2.09772e-05
2.05878e-05
2.03547e-05
2.02051e-05
1.99753e-05
1.96943e-05
1.93053e-05
1.89791e-05
1.8702e-05
1.8539e-05
2.00028e-05
1.80499e-05
1.49809e-05
1.23543e-05
1.1007e-05
1.0609e-05
1.05857e-05
1.07363e-05
1.15238e-05
1.32046e-05
1.43661e-05
1.50021e-05
1.52691e-05
1.53274e-05
1.5292e-05
1.51034e-05
1.49427e-05
1.4785e-05
2.06149e-05
2.05596e-05
2.0596e-05
2.14037e-05
2.18845e-05
2.18536e-05
2.14554e-05
2.12295e-05
2.1249e-05
2.15125e-05
2.25768e-05
2.56726e-05
2.89253e-05
3.13763e-05
3.28512e-05
3.33894e-05
3.34156e-05
3.32464e-05
6.29591e-05
4.41651e-05
3.32809e-05
3.74934e-05
4.10098e-05
3.99405e-05
3.39221e-05
3.04122e-05
3.00958e-05
3.1591e-05
3.98489e-05
5.21006e-05
5.92099e-05
6.21163e-05
6.26225e-05
6.21026e-05
5.8453e-05
5.08632e-05
0.0754077
0.0980047
0.101003
0.101943
0.100811
0.0976866
0.090852
0.0870295
0.0865222
0.0851803
0.0813901
0.0782042
0.0742365
0.0865991
0.0968502
0.0827896
0.0765482
0.0821333
0.0724723
0.0421048
0.0794529
0.248157
0.229298
0.167596
0.131424
0.0931023
0.0753376
0.0672332
0.0620221
0.0575429
0.0530682
0.0501912
0.0448949
0.0420091
0.0373
0.0347549
0.031139
0.0295033
0.0269794
0.0255285
0.0246695
0.0241928
0.0240821
0.0245703
0.0251056
0.0259025
0.0270242
0.0284715
0.0299075
0.0316052
0.0335233
0.0355005
0.0373643
0.0394601
0.0420252
0.0448907
0.0479324
0.0512773
0.0550481
0.0592376
0.0632118
0.0656708
0.0675758
0.0688284
0.0697101
0.0708055
0.071793
0.0734102
0.0748401
0.0752285
0.0752658
0.0752661
0.0753456
0.0761117
0.0768394
0.0786021
0.0848154
0.0970469
0.144863
0.169257
0.171439
0.174308
0.215596
0.463382
0.771447
0.789966
0.763513
0.742167
0.207973
0.115684
0.075671
0.059504
0.0476121
0.0375561
0.0324178
0.0291083
0.0278678
0.0276694
0.0274495
0.0270395
0.0267154
0.0261344
0.0257668
0.0250845
0.0246655
0.0239238
0.0235346
0.0229264
0.0226274
0.0220905
0.0218511
0.0217638
0.0217617
0.022016
0.0225159
0.0231153
0.0234162
0.0236786
0.0238646
0.0239967
0.0240837
0.0241148
0.0239923
0.0236353
0.0238262
0.0243076
0.0243671
0.0239517
0.0227031
0.0211114
0.0198002
0.0192803
0.0191855
0.0192276
0.0194088
0.0200106
0.020942
0.0217657
0.0224971
0.0231401
0.023658
0.0240717
0.0243806
0.0245639
0.0246165
0.0245291
0.0237136
0.0193413
0.0112178
0.00709944
0.00582794
0.00428749
0.00200581
0.000708799
0.00071289
0.00198071
0.00269552
0.00287468
0.00312416
0.00266501
0.00167242
0.00151082
0.00182299
0.00215522
0.00187334
0.00117753
0.000824019
0.000719792
0.000671064
0.000630182
0.000569649
0.000491791
0.000390721
0.000304492
0.000218872
0.000157263
0.000114343
8.18232e-05
9.41578e-05
3.4538e-05
0.0575437
0.116671
0.0996776
0.0738177
0.0612537
0.0593981
0.0601005
0.0618717
0.0632738
0.0668439
0.0706887
0.0733686
0.0734516
0.0755485
0.0843076
0.0793822
0.0920344
0.167407
0.198331
0.208006
0.210855
0.208122
0.13991
0.109218
0.0731759
0.0538219
0.043556
0.0335693
0.0285793
0.0224592
0.0194733
0.0154848
0.0131551
0.0105265
0.00924745
0.00773378
0.00673223
0.00620291
0.00575211
0.00557602
0.00551877
0.00559064
0.00595659
0.00631964
0.00690788
0.00747891
0.00825789
0.0092173
0.01027
0.0117894
0.0136238
0.016219
0.0196908
0.0239063
0.0287454
0.0345825
0.0415383
0.0491302
0.0559676
0.0633619
0.0688231
0.072632
0.0774943
0.0815508
0.083987
0.0876874
0.0920614
0.101334
0.107327
0.107012
0.105268
0.101385
0.0960302
0.0923514
0.0911909
0.089764
0.0885312
0.0911837
0.108632
0.150964
0.166546
0.166552
0.173568
0.237232
0.396757
0.455206
0.363942
0.219345
0.112042
0.0686181
0.0503047
0.0447979
0.0427307
0.0422248
0.0432432
0.0436759
0.0438373
0.0436236
0.042645
0.0418323
0.0403855
0.0391294
0.0375505
0.0357936
0.0342803
0.0320486
0.0295214
0.0270682
0.0245682
0.0224638
0.0200203
0.0185847
0.017217
0.0161043
0.0153136
0.0149494
0.0148544
0.0151416
0.0156244
0.0160857
0.0165237
0.016785
0.0168369
0.0165855
0.0160126
0.0155833
0.0152099
0.0147183
0.0141367
0.0138371
0.0138578
0.0139231
0.0139848
0.0141152
0.0144229
0.0152525
0.0169569
0.0187605
0.0203779
0.0217093
0.0227931
0.0236058
0.0241095
0.0243549
0.0245376
0.0249069
0.0263239
0.0285914
0.0293201
0.0293358
0.0287733
0.0259889
0.0210394
0.0130686
0.0072459
0.00471277
0.00370883
0.00343119
0.00366051
0.00401086
0.00389703
0.00332514
0.0031331
0.00323377
0.0033589
0.00322745
0.00259926
0.00220024
0.00208161
0.00195682
0.00179574
0.00162677
0.00148054
0.00138484
0.0013309
0.00130005
0.00127423
0.00122533
0.00116979
0.00101672
0.0789029
0.0762789
0.0536138
0.0427739
0.0445948
0.0494808
0.0564764
0.0618234
0.0661472
0.0700537
0.072183
0.0724587
0.0726427
0.0737063
0.0821078
0.120362
0.179406
0.187595
0.189794
0.178468
0.140738
0.0915746
0.0612166
0.0414693
0.0268259
0.0200221
0.0140775
0.0103621
0.00836584
0.00636903
0.00544984
0.00447612
0.00403554
0.00365046
0.00348096
0.00335658
0.00331086
0.0033002
0.0033342
0.00340656
0.00348692
0.00363669
0.00375529
0.00390294
0.00410633
0.00428669
0.00444557
0.00456889
0.00466004
0.00477434
0.00499686
0.00543924
0.00603714
0.00693556
0.00839721
0.0107352
0.0144135
0.0203911
0.03039
0.0426708
0.0572449
0.0671575
0.0793758
0.0873387
0.0969083
0.111097
0.127156
0.141041
0.147591
0.149418
0.148806
0.144094
0.127192
0.108144
0.0999792
0.0976964
0.0941036
0.0933092
0.097038
0.113938
0.145904
0.156635
0.16169
0.17836
0.292444
0.326056
0.18133
0.0979533
0.0649427
0.0529291
0.0496125
0.0490452
0.0526106
0.0563185
0.0579954
0.0591783
0.0596745
0.0597697
0.058564
0.0567826
0.0543954
0.0513383
0.0486581
0.0452194
0.0424412
0.0396405
0.0369113
0.0339593
0.0309014
0.0274386
0.0239103
0.0207124
0.0179043
0.0159767
0.0141009
0.0123445
0.0111306
0.0104709
0.0101981
0.0103848
0.010791
0.0113185
0.0117467
0.0119517
0.011963
0.0117294
0.0112768
0.0111704
0.0112395
0.0119189
0.01309
0.0138249
0.0142797
0.0145299
0.0147734
0.0152536
0.016459
0.0181906
0.0198168
0.0209065
0.0214054
0.0216827
0.0222201
0.023128
0.023692
0.0232778
0.0231356
0.0234541
0.0243372
0.0272426
0.0300339
0.0302068
0.0293675
0.0258728
0.0178324
0.0109066
0.00727399
0.00539854
0.00467633
0.00444121
0.0041193
0.00357116
0.00321349
0.00309968
0.00303851
0.00290791
0.00279326
0.00281038
0.00283375
0.00273399
0.00243913
0.00213124
0.00182485
0.00154691
0.00132921
0.00118766
0.00112294
0.00110029
0.00109501
0.00109272
0.0433108
0.0404138
0.0331134
0.0363824
0.0471985
0.0659771
0.0782193
0.0873257
0.0872636
0.0846125
0.0777118
0.073112
0.0721032
0.0744988
0.0969278
0.161344
0.17638
0.175718
0.150631
0.0996607
0.0691144
0.042968
0.0254529
0.0169482
0.0112537
0.00871345
0.00660335
0.00555445
0.00487098
0.004301
0.00406026
0.00391691
0.00387988
0.00387926
0.00407972
0.00431918
0.00460497
0.00494691
0.00529039
0.0056277
0.00583472
0.00592707
0.00595354
0.00589338
0.00567399
0.00551558
0.00526197
0.00489085
0.00464535
0.0044006
0.00423165
0.00416673
0.00414279
0.00415356
0.00430276
0.00464897
0.00532792
0.00667715
0.00927656
0.0142675
0.0242255
0.0440913
0.0638741
0.0833166
0.098746
0.117883
0.136591
0.146573
0.151958
0.156625
0.15976
0.159662
0.154407
0.130303
0.107103
0.0991501
0.0966042
0.0957669
0.096533
0.10153
0.116587
0.143637
0.15682
0.166078
0.256228
0.248682
0.11021
0.0681363
0.056669
0.0543513
0.0559603
0.0664063
0.071247
0.0739741
0.0755383
0.0761302
0.0762061
0.0749363
0.0727486
0.0697002
0.0651376
0.060222
0.0545765
0.0498679
0.0446982
0.0405146
0.0368885
0.0334972
0.0303302
0.0269062
0.0231644
0.0196472
0.0171991
0.0150642
0.013076
0.0110648
0.00923206
0.00805404
0.00757971
0.0075557
0.00765649
0.00795929
0.0084935
0.00897927
0.00920966
0.00924267
0.00920895
0.00930154
0.00989515
0.0113955
0.0135264
0.0156093
0.0175474
0.0185837
0.0189121
0.0189589
0.0189298
0.019223
0.0204912
0.0220401
0.0233961
0.0250197
0.0279434
0.0326236
0.0372385
0.0389785
0.0384446
0.0340422
0.0284107
0.0279092
0.028604
0.0321126
0.0341476
0.0333904
0.0287719
0.0225485
0.0163243
0.0110679
0.00787384
0.0060547
0.00500681
0.004303
0.00375691
0.00340346
0.00326035
0.0032767
0.00355197
0.00378929
0.00386329
0.00382414
0.00355407
0.00313744
0.00269421
0.00227954
0.00187793
0.00152716
0.00126162
0.00109786
0.00101164
0.000948348
0.0345111
0.0355536
0.0290256
0.040682
0.0631562
0.0784853
0.0879011
0.0955742
0.0970193
0.0946015
0.0853846
0.0728713
0.0713256
0.0791751
0.125745
0.163252
0.165649
0.136489
0.0835022
0.0592135
0.0365769
0.020153
0.0125631
0.00895754
0.00718767
0.00636454
0.00579703
0.00528207
0.00486516
0.00468745
0.00466951
0.00486749
0.00532343
0.00594541
0.0067775
0.00762614
0.00843401
0.00927255
0.010035
0.0106968
0.0110844
0.0112588
0.0113122
0.0111941
0.0106689
0.0101573
0.0093956
0.00852028
0.00778122
0.00685953
0.00604046
0.00543088
0.00480878
0.00437713
0.00416739
0.00407844
0.00405414
0.00420092
0.00449797
0.00538223
0.00749482
0.0122415
0.0225325
0.0450927
0.0747363
0.0995277
0.113218
0.118555
0.126736
0.140479
0.151829
0.156578
0.154526
0.1369
0.105176
0.0932015
0.0927638
0.0941913
0.0956707
0.0991906
0.109067
0.133822
0.148837
0.153412
0.234833
0.207841
0.0836315
0.0604599
0.0574243
0.0595983
0.0720595
0.0778162
0.0802718
0.0816544
0.0822378
0.0824136
0.0823696
0.0815847
0.0806393
0.0789595
0.076423
0.0724822
0.0662749
0.0577084
0.0492279
0.0412622
0.0356041
0.0300491
0.0241572
0.0198591
0.0152302
0.012243
0.0108476
0.00993415
0.00914062
0.00830259
0.00758804
0.00713789
0.00686571
0.00676655
0.00677251
0.00680265
0.00688712
0.00702965
0.00716897
0.00735592
0.00767205
0.0083095
0.0097791
0.0129657
0.0169043
0.0203695
0.0220854
0.0226981
0.0227452
0.0225961
0.0218535
0.0202078
0.0193857
0.0192925
0.0196505
0.0203194
0.0214257
0.0239771
0.0312507
0.0394573
0.0430693
0.0430433
0.0395662
0.0316499
0.0301578
0.0313221
0.0356345
0.0370366
0.0358947
0.0305768
0.026016
0.0225352
0.0161769
0.0105571
0.00744689
0.0059503
0.00505764
0.00435206
0.00396784
0.00390641
0.00401871
0.0041582
0.00422307
0.00421449
0.00403381
0.00377226
0.00345239
0.00305393
0.00276235
0.00250763
0.00235074
0.00212266
0.0019822
0.0016521
0.0336164
0.0343683
0.0260152
0.0497735
0.0681272
0.0835863
0.0927229
0.0999452
0.101922
0.0990177
0.0841497
0.0719753
0.0720453
0.09031
0.142434
0.157603
0.140374
0.0820929
0.0516225
0.0364681
0.0194038
0.0115238
0.00843518
0.00722581
0.00672749
0.00644169
0.00624895
0.0061638
0.00625376
0.00674028
0.00748685
0.00876269
0.0101515
0.0119542
0.0137671
0.0157157
0.0175388
0.01902
0.0201832
0.0209569
0.0213395
0.0214763
0.0214752
0.0210236
0.0202097
0.0194077
0.018231
0.0169798
0.0155574
0.0140245
0.0124253
0.0107578
0.00901278
0.00747404
0.00606718
0.00520916
0.00446913
0.00412307
0.00397117
0.00391241
0.00396683
0.00449815
0.006338
0.0114294
0.0228365
0.0445573
0.0611834
0.0686348
0.0779449
0.0943652
0.116639
0.131507
0.13648
0.128571
0.107909
0.0860328
0.0813665
0.083155
0.0877561
0.0923183
0.0981596
0.114065
0.129669
0.138337
0.223568
0.195699
0.0738228
0.0602259
0.05994
0.070997
0.0793436
0.081666
0.0824458
0.0827665
0.0828376
0.0828111
0.0825952
0.0822804
0.0817007
0.080669
0.0792765
0.0768948
0.0729858
0.0667052
0.057789
0.0466747
0.0364431
0.0295692
0.0222472
0.0166041
0.0122125
0.00991765
0.00875369
0.0082464
0.00790494
0.00759603
0.00731233
0.00705964
0.00690436
0.00692508
0.0070246
0.00713323
0.00723073
0.00730953
0.0074577
0.00778536
0.00847159
0.00993838
0.0134801
0.0183959
0.0216097
0.023013
0.0234927
0.0235192
0.0234413
0.023145
0.0223294
0.0199428
0.0170325
0.0150951
0.0142366
0.0140716
0.0142122
0.0148843
0.0169852
0.0253387
0.0397268
0.04587
0.0460494
0.0416079
0.0334893
0.0323232
0.0341854
0.0369836
0.0370983
0.0356036
0.0308035
0.0279305
0.0247684
0.0183886
0.0128033
0.00942046
0.00705466
0.00535361
0.00442381
0.00416529
0.00416376
0.00419743
0.00426194
0.00425775
0.00406651
0.00386961
0.00369665
0.00340631
0.00313474
0.002898
0.00278277
0.00258517
0.00239625
0.00210273
0.0336844
0.0328258
0.0243256
0.0531313
0.069354
0.0855807
0.0945726
0.100932
0.102615
0.0981788
0.081355
0.0713508
0.0741533
0.102696
0.140561
0.144363
0.104985
0.0526437
0.0335197
0.0226724
0.0120737
0.00851349
0.00745208
0.00719113
0.00711317
0.00754731
0.0085156
0.0100453
0.0109286
0.0124982
0.0141339
0.0161495
0.0183367
0.0210069
0.0233259
0.0254184
0.0265659
0.0273442
0.0277821
0.0279925
0.0280774
0.0280996
0.0279735
0.0276409
0.0270211
0.0264701
0.0256964
0.0246956
0.0236604
0.0223502
0.0209146
0.0194366
0.0172831
0.0147571
0.012175
0.00929634
0.00732841
0.00560857
0.00469706
0.00404998
0.00373497
0.00340497
0.00320141
0.00387568
0.00664871
0.0139956
0.0280936
0.041233
0.0469852
0.0521487
0.0624255
0.0840058
0.101155
0.108464
0.110369
0.108169
0.0949419
0.0858931
0.0857842
0.086518
0.0888523
0.0969478
0.108942
0.124162
0.209714
0.198834
0.0700606
0.0607317
0.0650067
0.077277
0.0809605
0.0816377
0.0817787
0.0807665
0.0793914
0.0787955
0.0787236
0.0799266
0.080186
0.0802266
0.0796049
0.0778103
0.0750724
0.0699326
0.0616501
0.0496006
0.0380776
0.0291313
0.0211785
0.0147918
0.0111135
0.00927211
0.0083872
0.00804054
0.00778402
0.0075465
0.00733761
0.0072686
0.00747773
0.00801903
0.00868577
0.00927166
0.00991265
0.0103677
0.0109482
0.0121412
0.013982
0.0176948
0.0206769
0.0224668
0.0232672
0.0236031
0.0236037
0.0234662
0.0230172
0.0220953
0.0204336
0.0174938
0.0140337
0.0109615
0.00855703
0.00743446
0.00726114
0.00739006
0.00800951
0.0102018
0.0204181
0.0407078
0.0487267
0.0486548
0.0421064
0.0344231
0.0336212
0.035214
0.0365504
0.0361378
0.0339873
0.030041
0.026971
0.0242661
0.0194444
0.0138812
0.00949249
0.00647952
0.00493158
0.00441759
0.00430587
0.00430942
0.00435665
0.00429447
0.00387368
0.00366842
0.00362652
0.00353936
0.00334844
0.00311061
0.00296899
0.00282847
0.00260593
0.00231413
0.0345623
0.03229
0.0238249
0.0536011
0.0660392
0.0849753
0.0932759
0.100434
0.101823
0.0956526
0.0774771
0.0705119
0.0758352
0.110292
0.134848
0.127238
0.0748117
0.0358591
0.0227331
0.0149907
0.00913043
0.00761645
0.00735458
0.00752783
0.00851527
0.011085
0.0138211
0.0151814
0.0164895
0.0184037
0.0206748
0.0231493
0.0261682
0.0286205
0.0301523
0.0308759
0.0312011
0.0313196
0.0313488
0.0313334
0.0313452
0.0312933
0.0312394
0.0311777
0.0307682
0.0301546
0.029592
0.0286589
0.0275961
0.0263336
0.0250129
0.0238719
0.0225407
0.020955
0.0190473
0.0167043
0.0133134
0.0098097
0.00751115
0.00563165
0.00471127
0.0036477
0.00285836
0.00252266
0.00276137
0.00507109
0.0133389
0.029285
0.0358524
0.0388224
0.0414369
0.0493611
0.0691394
0.0902553
0.10839
0.122728
0.126609
0.118108
0.0992364
0.0901061
0.0891296
0.0914809
0.0977284
0.112432
0.186628
0.209876
0.0703585
0.0618157
0.0698526
0.0793005
0.080664
0.0805266
0.0773897
0.0693904
0.0654413
0.064107
0.0662643
0.0732019
0.0759603
0.0771349
0.0774196
0.0773921
0.075515
0.0711981
0.0633598
0.0506452
0.0383049
0.0268884
0.0178242
0.0120828
0.00983468
0.00879936
0.00829757
0.00802994
0.00781213
0.0076539
0.00765426
0.0079478
0.00875846
0.0104346
0.0121344
0.0136321
0.0150839
0.0162489
0.0174123
0.0188416
0.0203861
0.0216586
0.022526
0.0231495
0.0233459
0.0232267
0.0227883
0.0217676
0.0197058
0.0167885
0.0133715
0.0106757
0.00822204
0.00616414
0.0049185
0.00444488
0.00443083
0.00450202
0.00473755
0.00545811
0.00831377
0.0234481
0.0463899
0.0530687
0.051659
0.0414025
0.034587
0.033535
0.034509
0.0350843
0.0342095
0.0313302
0.0276588
0.0248773
0.0228199
0.0194583
0.0130515
0.00818286
0.00571322
0.00480263
0.00455076
0.00451931
0.00452072
0.00435323
0.00364558
0.00314885
0.00313086
0.0032701
0.00337689
0.00335322
0.00318983
0.00298486
0.00273362
0.00243396
0.0377075
0.0320865
0.0236021
0.0487117
0.0644651
0.0840754
0.0915814
0.0982458
0.100142
0.0915945
0.0738401
0.0689255
0.0755009
0.109872
0.129789
0.117923
0.0581613
0.0260876
0.016174
0.0107882
0.00791345
0.00735287
0.00745393
0.00849978
0.0115673
0.0153588
0.0176718
0.0189181
0.0205655
0.023437
0.0260965
0.029322
0.031682
0.0327556
0.0331571
0.0332429
0.0332114
0.033177
0.0332281
0.0334696
0.0337888
0.033988
0.0342048
0.0343512
0.034428
0.034462
0.0343469
0.0339922
0.0334935
0.0323359
0.0308203
0.0286249
0.0262952
0.0241386
0.0222562
0.0205539
0.0186396
0.0158488
0.0117594
0.00870019
0.00683454
0.00531164
0.00344719
0.00234413
0.00192746
0.00204801
0.00440443
0.0151083
0.0282664
0.0332128
0.0347139
0.0378
0.0550469
0.0846219
0.114557
0.145812
0.170995
0.181727
0.161458
0.122099
0.10005
0.0939011
0.0965296
0.105541
0.160941
0.237847
0.0716727
0.0626794
0.0720038
0.0792464
0.0798595
0.077337
0.0659468
0.0578425
0.0550998
0.0544561
0.0570075
0.0624962
0.0695219
0.0741646
0.0752671
0.0753136
0.0743218
0.0715013
0.0637554
0.0500309
0.0361153
0.0246926
0.0157408
0.0111888
0.00933829
0.00857063
0.00828588
0.00808411
0.00798431
0.00802935
0.00830791
0.00916671
0.010903
0.0126614
0.0141345
0.0154525
0.0167505
0.0179953
0.0191401
0.0201823
0.0211956
0.0219064
0.0224257
0.022354
0.0220097
0.0211377
0.0192523
0.0156409
0.0110043
0.00721479
0.00515757
0.00410982
0.00359721
0.00342362
0.00345258
0.00354862
0.00382378
0.00403256
0.00421263
0.00458154
0.00572333
0.0110748
0.0355901
0.0561562
0.05896
0.0540311
0.0395725
0.0338744
0.0320379
0.0323138
0.0324739
0.0311693
0.0276923
0.0246961
0.0227153
0.0211866
0.0177771
0.0110886
0.00710758
0.00543841
0.00490518
0.0047849
0.00471018
0.00444735
0.00366552
0.0029613
0.00269899
0.00274583
0.00305793
0.00327651
0.00329738
0.00320942
0.00284795
0.00244265
0.045327
0.0325192
0.0230987
0.0456166
0.0582888
0.0808551
0.0890591
0.0937982
0.0969764
0.0905753
0.0721246
0.0672359
0.0736058
0.10753
0.124898
0.109454
0.0472116
0.0205272
0.0124892
0.00880991
0.00734474
0.00716388
0.00779104
0.0100884
0.0139402
0.0184099
0.0208113
0.0221469
0.0255544
0.0287802
0.0313786
0.033504
0.0344744
0.0348018
0.0349003
0.0350706
0.0355574
0.0361612
0.0371498
0.0383089
0.0395863
0.0406646
0.0413824
0.0417767
0.0419391
0.041795
0.0411295
0.0401229
0.0394103
0.0387681
0.0382652
0.0369336
0.0346612
0.0312563
0.0273422
0.0240142
0.0214304
0.0193186
0.016664
0.0127886
0.00965397
0.00715671
0.00511688
0.00289209
0.0018016
0.00139606
0.00144917
0.00337248
0.0129872
0.0267763
0.0312617
0.032378
0.0435479
0.0757317
0.116719
0.158327
0.202629
0.246897
0.256258
0.229902
0.166548
0.112419
0.100189
0.105249
0.141899
0.25028
0.0774013
0.0629323
0.0726879
0.0787983
0.0779501
0.070148
0.0571753
0.0522347
0.0507775
0.0506431
0.0534718
0.0577001
0.0645701
0.0712484
0.0738464
0.0742798
0.0733275
0.0697514
0.0616322
0.0469719
0.0325995
0.0201582
0.012587
0.010134
0.00890248
0.00844687
0.00829091
0.00825958
0.00839081
0.00865148
0.00928201
0.0104161
0.0117213
0.0130601
0.0143137
0.0155024
0.0166974
0.0178861
0.0188665
0.0196739
0.0203449
0.0203854
0.0201625
0.0195362
0.0181709
0.0154144
0.0101999
0.00589867
0.00378427
0.0028739
0.00257636
0.00264008
0.00281777
0.00315746
0.00343914
0.00397979
0.00491992
0.00536412
0.00539748
0.00540975
0.00575129
0.00798299
0.0213765
0.0547158
0.0673698
0.0665543
0.0531792
0.0376307
0.0324644
0.0300815
0.0294717
0.0289227
0.0262288
0.0230824
0.0216697
0.020878
0.019573
0.0154465
0.00952657
0.00652321
0.00546134
0.00521794
0.00509772
0.00480373
0.00399636
0.00307267
0.00255955
0.0024528
0.00256167
0.00293051
0.0030869
0.00308269
0.00290521
0.0024007
0.0612604
0.0354511
0.023073
0.0419646
0.0555794
0.079061
0.0875618
0.0900196
0.0922884
0.0895462
0.0715064
0.0657358
0.0700864
0.102375
0.122144
0.109376
0.0453107
0.0169064
0.0103851
0.00782773
0.0070306
0.0070269
0.00798059
0.0108259
0.0156824
0.0203252
0.0226635
0.0253919
0.0289063
0.0312122
0.0331598
0.034665
0.0358346
0.0364783
0.0372938
0.0388468
0.0413802
0.0450867
0.049131
0.052263
0.0548464
0.0563867
0.0571617
0.0575766
0.0577504
0.0574983
0.0567347
0.0552544
0.0529697
0.0502759
0.0474972
0.0451848
0.0434301
0.0411754
0.037599
0.0327216
0.0273474
0.0236801
0.0213456
0.0183077
0.0144517
0.00984204
0.00629831
0.00387066
0.00212701
0.00130676
0.000983743
0.00100707
0.00253868
0.0114646
0.024932
0.0284491
0.0306297
0.0470625
0.0968983
0.151204
0.204547
0.257824
0.278069
0.274165
0.248187
0.180644
0.115268
0.108596
0.13595
0.249206
0.0946095
0.0631784
0.072345
0.0776726
0.0755221
0.0662201
0.0547315
0.0507747
0.049725
0.0498876
0.0525547
0.0561006
0.0629685
0.0696882
0.0724151
0.0727192
0.0718852
0.0686854
0.0591278
0.0429514
0.0270223
0.0158325
0.0112851
0.00921042
0.00847717
0.00831505
0.00834191
0.00857247
0.00906304
0.00951874
0.00996498
0.0106534
0.0116596
0.0127393
0.0138495
0.0148531
0.0158437
0.0167638
0.0172235
0.017495
0.0172722
0.0167571
0.0157887
0.0137399
0.00999992
0.00553315
0.00313182
0.00213341
0.00185135
0.0019796
0.00223587
0.00262971
0.00356578
0.00494645
0.00631158
0.00786436
0.0101037
0.0109763
0.010847
0.0100794
0.00927868
0.0097383
0.0151794
0.0451247
0.0738492
0.0785733
0.0728926
0.0492627
0.0353192
0.0305993
0.0281949
0.026071
0.0231546
0.0209457
0.0202919
0.0202054
0.0199449
0.0184742
0.0132961
0.00857806
0.00652705
0.00594482
0.0058337
0.00563263
0.00491115
0.00357043
0.00262803
0.00229576
0.00229262
0.00250755
0.00276813
0.00281308
0.00273924
0.00235346
0.0915818
0.0440367
0.0242948
0.0373103
0.049766
0.0763071
0.08735
0.0886868
0.0892252
0.0869782
0.0719307
0.0648564
0.0672181
0.095372
0.121471
0.111427
0.04792
0.0164737
0.00954564
0.00747532
0.00688331
0.00691151
0.00789871
0.0107757
0.0157169
0.0209889
0.0243329
0.0276886
0.0308196
0.0337388
0.0357449
0.037146
0.0387127
0.0402487
0.0428955
0.0480836
0.0531623
0.0571861
0.0599405
0.0615035
0.062283
0.0626109
0.0627404
0.0628817
0.0629594
0.0629026
0.0626217
0.0620013
0.0609665
0.0592894
0.0567868
0.0536373
0.0505017
0.0478991
0.0449691
0.0414189
0.0370419
0.0312297
0.0269436
0.0246836
0.021151
0.0151066
0.00883841
0.00463271
0.00248145
0.00141547
0.000929021
0.000701265
0.000705655
0.00193437
0.0104136
0.0240451
0.0260028
0.0297693
0.0507842
0.109698
0.17274
0.244992
0.275227
0.280658
0.270328
0.23399
0.15541
0.118391
0.138659
0.248631
0.103005
0.0638032
0.0714707
0.0765066
0.074865
0.0666634
0.0554195
0.0512151
0.0501458
0.0509369
0.0539167
0.057332
0.0642078
0.0692696
0.0716744
0.0717236
0.070506
0.0657583
0.0530721
0.0354531
0.0212213
0.013838
0.0102848
0.00878159
0.00829409
0.00825697
0.00842989
0.00901185
0.00958372
0.00988916
0.0101205
0.0105591
0.0109688
0.0117053
0.0128528
0.0138544
0.0146234
0.0149939
0.014848
0.0143248
0.013086
0.0114749
0.00890295
0.00491024
0.00274936
0.00169634
0.00125583
0.0013157
0.00153708
0.00220754
0.00312842
0.00481175
0.00815033
0.0118576
0.0158037
0.0186306
0.0218698
0.0229529
0.0226184
0.0214431
0.018212
0.0164483
0.0182728
0.0344981
0.0757479
0.0907928
0.0900147
0.0732221
0.0446783
0.033147
0.0286504
0.0252523
0.0219516
0.0200324
0.0197145
0.0199735
0.0200233
0.0195653
0.0170854
0.0115578
0.00826775
0.00711336
0.00694935
0.00681199
0.00621667
0.00446806
0.00289575
0.0021458
0.0020075
0.00207768
0.00231518
0.00238853
0.0023601
0.00215115
0.123233
0.0629735
0.0305527
0.0356525
0.0434534
0.0705285
0.0877635
0.0893435
0.0883695
0.0853724
0.0731787
0.0648535
0.0646944
0.0856971
0.120727
0.116444
0.0553187
0.017246
0.00960279
0.00749308
0.00686072
0.00682669
0.00764015
0.0104935
0.015377
0.020738
0.0253099
0.029667
0.0328691
0.0349997
0.0365355
0.0382067
0.040275
0.0437136
0.0496929
0.0558673
0.0603909
0.0632522
0.0646022
0.0650622
0.0650493
0.0646832
0.064533
0.0644911
0.0647021
0.0647655
0.0647079
0.0644503
0.0638948
0.0628491
0.060842
0.0575001
0.0535702
0.0503596
0.0474457
0.0441488
0.0404149
0.0362294
0.0312087
0.0275256
0.0250535
0.0209782
0.0133569
0.00688006
0.00317528
0.00156893
0.000946996
0.000671841
0.000527866
0.00052806
0.00154785
0.011721
0.0229224
0.0248142
0.0304508
0.0660785
0.131734
0.202952
0.260731
0.273043
0.270015
0.243281
0.191415
0.145285
0.162333
0.252084
0.100447
0.0639537
0.0699285