/*--------------------------------*- C++ -*----------------------------------*\
| =========                 |                                                 |
| \\      /  F ield         | OpenFOAM: The Open Source CFD Toolbox           |
|  \\    /   O peration     | Version:  2112                                  |
|   \\  /    A nd           | Website:  www.openfoam.com                      |
|    \\/     M anipulation  |                                                 |
\*---------------------------------------------------------------------------*/
FoamFile
{
    version     2.0;
    format      ascii;
    arch        "LSB;label=32;scalar=64";
    class       volVectorField;
    location    "0.04";
    object      U;
}
// * * * * * * * * * * * * * * * * * * * * * * * * * * * * * * * * * * * * * //

dimensions      [0 1 -1 0 0 0 0];

internalField   nonuniform List<vector> 
12225
(
(9.83699 0.0197505 0)
(9.54624 0.0410471 0)
(9.25272 0.0451976 0)
(8.95052 0.0461385 0)
(8.65296 0.0463793 0)
(8.37085 0.0459049 0)
(8.10043 0.0452186 0)
(7.83943 0.0446293 0)
(7.58445 0.0443229 0)
(7.33709 0.0441425 0)
(7.09123 0.0445469 0)
(6.8526 0.0448905 0)
(6.60672 0.0467771 0)
(6.36979 0.0475548 0)
(6.10821 0.0532754 0)
(5.86173 0.0533529 0)
(5.55647 0.071583 0)
(5.27543 0.0672309 0)
(10.0179 0.0482305 0)
(10.0806 0.0745136 0)
(10.1138 0.0763577 0)
(10.1165 0.0780788 0)
(10.1011 0.0809942 0)
(10.075 0.0834766 0)
(10.0395 0.0855911 0)
(9.99523 0.088011 0)
(9.94202 0.0905701 0)
(9.88155 0.093877 0)
(9.81263 0.0973628 0)
(9.73728 0.102271 0)
(9.65198 0.107592 0)
(9.55984 0.115447 0)
(9.45386 0.124969 0)
(9.3384 0.138592 0)
(9.20301 0.160271 0)
(9.051 0.189097 0)
(10.0029 0.0374881 0)
(10.0361 0.0613753 0)
(10.0627 0.0624295 0)
(10.075 0.0645126 0)
(10.0803 0.0689957 0)
(10.0835 0.0733093 0)
(10.0848 0.0772671 0)
(10.083 0.0815074 0)
(10.0778 0.0862267 0)
(10.0687 0.0916713 0)
(10.0561 0.0979499 0)
(10.039 0.105449 0)
(10.018 0.114694 0)
(9.99078 0.126036 0)
(9.95946 0.141476 0)
(9.91952 0.16097 0)
(9.87732 0.191128 0)
(9.82807 0.231082 0)
(10.0021 0.0293028 0)
(10.0265 0.0544697 0)
(10.0483 0.0593266 0)
(10.0584 0.0634099 0)
(10.0613 0.0694172 0)
(10.0621 0.0751346 0)
(10.0616 0.080214 0)
(10.0589 0.085396 0)
(10.0538 0.0910625 0)
(10.0461 0.0975089 0)
(10.0359 0.104953 0)
(10.0228 0.113735 0)
(10.0069 0.124573 0)
(9.98756 0.137712 0)
(9.96518 0.155291 0)
(9.93969 0.177181 0)
(9.91279 0.208515 0)
(9.8881 0.247188 0)
(10.0014 0.0237206 0)
(10.0203 0.0498364 0)
(10.0394 0.0579488 0)
(10.0493 0.0629361 0)
(10.0523 0.0691688 0)
(10.0526 0.0753418 0)
(10.0517 0.0809625 0)
(10.0487 0.0866778 0)
(10.0433 0.0930006 0)
(10.0354 0.100241 0)
(10.025 0.108678 0)
(10.0121 0.118637 0)
(9.99652 0.130812 0)
(9.97824 0.145595 0)
(9.95727 0.164571 0)
(9.93464 0.188104 0)
(9.91097 0.218782 0)
(9.88991 0.255478 0)
(10.001 0.0196823 0)
(10.0155 0.0453215 0)
(10.0317 0.0556601 0)
(10.0412 0.0614185 0)
(10.0444 0.0679108 0)
(10.0448 0.0747423 0)
(10.0439 0.0812739 0)
(10.0411 0.0879353 0)
(10.0361 0.0952826 0)
(10.0287 0.103649 0)
(10.0189 0.113354 0)
(10.0069 0.124706 0)
(9.99255 0.13836 0)
(9.97594 0.15476 0)
(9.95722 0.175053 0)
(9.93744 0.199746 0)
(9.9172 0.229967 0)
(9.89925 0.265562 0)
(10.0007 0.0166389 0)
(10.0117 0.04093 0)
(10.0251 0.0529309 0)
(10.0341 0.059819 0)
(10.0375 0.0668797 0)
(10.038 0.0744733 0)
(10.0372 0.0819633 0)
(10.0347 0.089585 0)
(10.0301 0.0978948 0)
(10.0233 0.107285 0)
(10.0144 0.118097 0)
(10.0035 0.130662 0)
(9.9906 0.145543 0)
(9.97592 0.163222 0)
(9.95965 0.184478 0)
(9.94282 0.209827 0)
(9.92597 0.23969 0)
(9.91118 0.274152 0)
(10.0005 0.0143065 0)
(10.0088 0.0369449 0)
(10.0198 0.0501493 0)
(10.0279 0.0583089 0)
(10.0316 0.0660381 0)
(10.0323 0.0742808 0)
(10.0315 0.0825953 0)
(10.0293 0.0910967 0)
(10.0253 0.100305 0)
(10.0192 0.110661 0)
(10.0113 0.122514 0)
(10.0017 0.136208 0)
(9.99034 0.152202 0)
(9.97767 0.170967 0)
(9.96388 0.193006 0)
(9.94991 0.218766 0)
(9.9362 0.248304 0)
(9.92433 0.281647 0)
(10.0004 0.0125094 0)
(10.0067 0.0334916 0)
(10.0155 0.0474373 0)
(10.0228 0.0567771 0)
(10.0265 0.0651997 0)
(10.0274 0.0740181 0)
(10.0269 0.0830784 0)
(10.0251 0.0924391 0)
(10.0216 0.102544 0)
(10.0165 0.113845 0)
(10.0096 0.126688 0)
(10.0013 0.141411 0)
(9.99172 0.158376 0)
(9.98113 0.178009 0)
(9.96981 0.200611 0)
(9.9586 0.226544 0)
(9.94782 0.255659 0)
(9.93871 0.287977 0)
(10.0003 0.0111146 0)
(10.0051 0.0305645 0)
(10.0122 0.0448469 0)
(10.0185 0.05517 0)
(10.0222 0.0642967 0)
(10.0235 0.073674 0)
(10.0233 0.0834254 0)
(10.0219 0.0936058 0)
(10.0191 0.104569 0)
(10.0149 0.116751 0)
(10.0093 0.130481 0)
(10.0025 0.146087 0)
(9.99464 0.163844 0)
(9.98618 0.18412 0)
(9.97732 0.207072 0)
(9.96877 0.232981 0)
(9.96078 0.261592 0)
(9.95433 0.292963 0)
(10.0002 0.0100133 0)
(10.0039 0.0280979 0)
(10.0096 0.042424 0)
(10.0151 0.0535089 0)
(10.0187 0.0633149 0)
(10.0203 0.0732346 0)
(10.0205 0.0836057 0)
(10.0197 0.094522 0)
(10.0177 0.106261 0)
(10.0145 0.119221 0)
(10.0102 0.133708 0)
(10.005 0.15003 0)
(9.99902 0.168388 0)
(9.99272 0.189089 0)
(9.98628 0.21218 0)
(9.98032 0.237891 0)
(9.97501 0.265897 0)
(9.97115 0.296323 0)
(10.0002 0.00918271 0)
(10.0031 0.0261458 0)
(10.0078 0.0403342 0)
(10.0126 0.0519312 0)
(10.0162 0.0623075 0)
(10.0181 0.0727008 0)
(10.0188 0.0835753 0)
(10.0185 0.0950824 0)
(10.0173 0.107448 0)
(10.0152 0.121026 0)
(10.0122 0.13609 0)
(10.0085 0.152926 0)
(10.0043 0.17167 0)
(9.99994 0.192581 0)
(9.99568 0.215622 0)
(9.99204 0.241004 0)
(9.98909 0.268339 0)
(9.98755 0.297843 0)
(10.0001 0.00851523 0)
(10.0026 0.0244975 0)
(10.0065 0.0384027 0)
(10.0108 0.050298 0)
(10.0142 0.0611388 0)
(10.0165 0.0719547 0)
(10.0177 0.0832552 0)
(10.0181 0.0952488 0)
(10.0178 0.108131 0)
(10.0167 0.12221 0)
(10.015 0.137716 0)
(10.0129 0.154909 0)
(10.0104 0.17387 0)
(10.0081 0.194822 0)
(10.0059 0.217658 0)
(10.0045 0.242587 0)
(10.0039 0.269158 0)
(10.0046 0.297691 0)
(10.0001 0.00787016 0)
(10.0021 0.0228458 0)
(10.0054 0.0363239 0)
(10.0092 0.0483533 0)
(10.0127 0.0595755 0)
(10.0154 0.0707859 0)
(10.0172 0.0824767 0)
(10.0185 0.0949003 0)
(10.0192 0.108232 0)
(10.0195 0.12273 0)
(10.0194 0.13857 0)
(10.019 0.155981 0)
(10.0186 0.174987 0)
(10.0185 0.195783 0)
(10.0187 0.218187 0)
(10.0198 0.242429 0)
(10.0216 0.267981 0)
(10.0248 0.295287 0)
(10.0001 0.00723123 0)
(10.0018 0.0211614 0)
(10.0047 0.0340664 0)
(10.0082 0.0460206 0)
(10.0118 0.0574526 0)
(10.015 0.068943 0)
(10.0177 0.0809166 0)
(10.02 0.0936387 0)
(10.0221 0.107265 0)
(10.0239 0.122005 0)
(10.0256 0.137976 0)
(10.0273 0.155368 0)
(10.0291 0.174146 0)
(10.0314 0.194488 0)
(10.0343 0.216138 0)
(10.038 0.239363 0)
(10.0425 0.263546 0)
(10.0483 0.289274 0)
(10.0001 0.00656806 0)
(10.0016 0.01936 0)
(10.0043 0.0315012 0)
(10.0078 0.0431059 0)
(10.0117 0.0544746 0)
(10.0156 0.0660156 0)
(10.0193 0.0780583 0)
(10.0229 0.0908445 0)
(10.0265 0.104501 0)
(10.0302 0.119195 0)
(10.0339 0.134979 0)
(10.0379 0.152006 0)
(10.0423 0.170182 0)
(10.0472 0.189673 0)
(10.0528 0.21016 0)
(10.0593 0.231949 0)
(10.0666 0.25434 0)
(10.0752 0.278053 0)
(10.0001 0.0058178 0)
(10.0016 0.017262 0)
(10.0044 0.0283536 0)
(10.0081 0.0392451 0)
(10.0126 0.0501625 0)
(10.0174 0.0613852 0)
(10.0224 0.0731396 0)
(10.0276 0.0856146 0)
(10.033 0.0988966 0)
(10.0387 0.113108 0)
(10.0447 0.128243 0)
(10.0512 0.144417 0)
(10.0582 0.161486 0)
(10.0659 0.179603 0)
(10.0742 0.198406 0)
(10.0835 0.218226 0)
(10.0936 0.238311 0)
(10.1049 0.259471 0)
(10.0001 0.0048663 0)
(10.0018 0.0145435 0)
(10.0049 0.0241289 0)
(10.0093 0.033803 0)
(10.0146 0.0437409 0)
(10.0206 0.0541203 0)
(10.0272 0.0650682 0)
(10.0341 0.0767041 0)
(10.0416 0.0890647 0)
(10.0495 0.102225 0)
(10.0579 0.116133 0)
(10.067 0.130859 0)
(10.0766 0.146229 0)
(10.087 0.162373 0)
(10.0981 0.178913 0)
(10.11 0.19618 0)
(10.1227 0.213421 0)
(10.1364 0.231463 0)
(10.0001 0.00352898 0)
(10.0022 0.0106727 0)
(10.006 0.0179957 0)
(10.0114 0.0256998 0)
(10.018 0.033909 0)
(10.0256 0.0426973 0)
(10.0339 0.0520921 0)
(10.0429 0.0621391 0)
(10.0525 0.0728276 0)
(10.0627 0.0841847 0)
(10.0736 0.0961227 0)
(10.0851 0.108671 0)
(10.0973 0.121643 0)
(10.1102 0.135138 0)
(10.1237 0.148804 0)
(10.138 0.162929 0)
(10.1528 0.176837 0)
(10.1685 0.191272 0)
(10.0002 0.00201648 0)
(10.0028 0.00627388 0)
(10.0075 0.0109952 0)
(10.0141 0.016415 0)
(10.0221 0.0225933 0)
(10.0312 0.0294823 0)
(10.041 0.0370137 0)
(10.0517 0.0451775 0)
(10.063 0.0539337 0)
(10.075 0.0632699 0)
(10.0877 0.0730777 0)
(10.101 0.083351 0)
(10.115 0.0939144 0)
(10.1295 0.104832 0)
(10.1446 0.115802 0)
(10.1603 0.127053 0)
(10.1765 0.138023 0)
(10.1933 0.149325 0)
(10.0002 0.000539773 0)
(10.0034 0.00200652 0)
(10.0091 0.00427899 0)
(10.0168 0.00764466 0)
(10.026 0.0120426 0)
(10.0363 0.0172626 0)
(10.0473 0.0231577 0)
(10.0591 0.0296952 0)
(10.0717 0.0368197 0)
(10.085 0.0444847 0)
(10.0989 0.0525662 0)
(10.1133 0.0610359 0)
(10.1284 0.0697332 0)
(10.1439 0.078699 0)
(10.16 0.0876721 0)
(10.1766 0.0968358 0)
(10.1935 0.105718 0)
(10.2109 0.114822 0)
(10.0002 -0.00108748 0)
(10.0041 -0.00257894 0)
(10.0109 -0.00266217 0)
(10.02 -0.00109743 0)
(10.0304 0.00175972 0)
(10.0416 0.0054877 0)
(10.0536 0.00991291 0)
(10.0665 0.0150173 0)
(10.08 0.0207256 0)
(10.0943 0.0269464 0)
(10.109 0.0335403 0)
(10.1243 0.0404641 0)
(10.1401 0.0475753 0)
(10.1564 0.0548972 0)
(10.1731 0.0622086 0)
(10.1902 0.0696516 0)
(10.2076 0.0768395 0)
(10.2254 0.0841804 0)
(10.0003 -0.00292125 0)
(10.0051 -0.00755958 0)
(10.0134 -0.00977804 0)
(10.0239 -0.00963263 0)
(10.0354 -0.00805037 0)
(10.0475 -0.00566118 0)
(10.0603 -0.00255691 0)
(10.074 0.00129525 0)
(10.0884 0.00578418 0)
(10.1033 0.010767 0)
(10.1188 0.0160937 0)
(10.1347 0.021714 0)
(10.151 0.0274988 0)
(10.1678 0.0334533 0)
(10.185 0.0393916 0)
(10.2024 0.0454195 0)
(10.2201 0.051223 0)
(10.2381 0.0571217 0)
(10.0004 -0.00501846 0)
(10.0066 -0.0129632 0)
(10.0169 -0.0169484 0)
(10.0289 -0.0177753 0)
(10.0412 -0.0172162 0)
(10.054 -0.0159999 0)
(10.0675 -0.0140326 0)
(10.082 -0.0112482 0)
(10.097 -0.00781816 0)
(10.1125 -0.00392483 0)
(10.1285 0.000295509 0)
(10.1448 0.00479388 0)
(10.1616 0.00946339 0)
(10.1787 0.014293 0)
(10.1962 0.0191241 0)
(10.2139 0.0240377 0)
(10.2318 0.0287869 0)
(10.2499 0.0336171 0)
(10.0005 -0.00755033 0)
(10.0088 -0.0188819 0)
(10.0215 -0.0240828 0)
(10.035 -0.0255323 0)
(10.048 -0.0258664 0)
(10.0612 -0.0256164 0)
(10.0754 -0.0244834 0)
(10.0905 -0.0224812 0)
(10.1061 -0.0198836 0)
(10.122 -0.0168995 0)
(10.1383 -0.0136406 0)
(10.1551 -0.0101559 0)
(10.1722 -0.00653112 0)
(10.1896 -0.00279301 0)
(10.2073 0.000941082 0)
(10.2252 0.0047201 0)
(10.2433 0.00835404 0)
(10.2616 0.0120479 0)
(10.0007 -0.0108024 0)
(10.0119 -0.0251414 0)
(10.0275 -0.0306899 0)
(10.0422 -0.0326973 0)
(10.0556 -0.0341488 0)
(10.0694 -0.0348692 0)
(10.0842 -0.0343977 0)
(10.0998 -0.0329493 0)
(10.1157 -0.0309045 0)
(10.132 -0.0284794 0)
(10.1486 -0.0257657 0)
(10.1655 -0.0228293 0)
(10.1828 -0.0197504 0)
(10.2004 -0.0165799 0)
(10.2182 -0.0134042 0)
(10.2362 -0.0102141 0)
(10.2543 -0.00714442 0)
(10.2726 -0.00402336 0)
(10.0011 -0.0153911 0)
(10.0164 -0.0315917 0)
(10.0349 -0.0359507 0)
(10.0504 -0.0382433 0)
(10.064 -0.04098 0)
(10.0784 -0.0428745 0)
(10.0939 -0.0433876 0)
(10.1101 -0.0429514 0)
(10.1265 -0.0419768 0)
(10.1431 -0.0406428 0)
(10.1601 -0.0390023 0)
(10.1774 -0.037129 0)
(10.195 -0.0350792 0)
(10.2128 -0.0329194 0)
(10.2309 -0.0307145 0)
(10.2491 -0.0284873 0)
(10.2674 -0.0263343 0)
(10.2859 -0.0241512 0)
(10.0018 -0.0224766 0)
(10.0235 -0.0397283 0)
(10.0454 -0.0413628 0)
(10.0618 -0.0425801 0)
(10.0766 -0.0450268 0)
(10.0927 -0.0465702 0)
(10.1102 -0.0467607 0)
(10.128 -0.0461791 0)
(10.1459 -0.0452097 0)
(10.1638 -0.0439984 0)
(10.1818 -0.0425738 0)
(10.2001 -0.041014 0)
(10.2184 -0.0393177 0)
(10.2368 -0.0375977 0)
(10.2552 -0.035797 0)
(10.2736 -0.034109 0)
(10.2921 -0.0324174 0)
(10.3105 -0.0310585 0)
(10.0094 -0.0329465 0)
(10.0542 -0.054637 0)
(10.0887 -0.0580685 0)
(10.1101 -0.0609317 0)
(10.1256 -0.0643569 0)
(10.1388 -0.0665111 0)
(10.1494 -0.067213 0)
(10.157 -0.0670728 0)
(10.162 -0.066406 0)
(10.1651 -0.0654394 0)
(10.1668 -0.0641753 0)
(10.1677 -0.0628258 0)
(10.1679 -0.0612419 0)
(10.1679 -0.0597588 0)
(10.1676 -0.0580258 0)
(10.1676 -0.0565886 0)
(10.1671 -0.0549807 0)
(10.168 -0.0539035 0)
(9.90666 -0.0119297 0)
(9.75264 -0.028789 0)
(9.58617 -0.0350415 0)
(9.39887 -0.0390328 0)
(9.208 -0.0417957 0)
(9.02364 -0.0430367 0)
(8.84857 -0.0431627 0)
(8.68239 -0.0426188 0)
(8.52584 -0.0416437 0)
(8.37936 -0.040419 0)
(8.24255 -0.0390817 0)
(8.11558 -0.0376418 0)
(7.99708 -0.03624 0)
(7.88799 -0.034735 0)
(7.78534 -0.0334655 0)
(7.69251 -0.0318719 0)
(7.60256 -0.0310943 0)
(7.52477 -0.0292719 0)
(-0.260699 0.300885 -3.83307e-20)
(-0.586586 0.0624094 3.81126e-20)
(-0.53236 -0.271833 0)
(-0.258612 -0.538741 0)
(0.205582 -0.697702 0)
(0.779965 -0.767036 -3.13548e-20)
(1.37014 -0.76348 0)
(1.95958 -0.716863 0)
(2.52138 -0.645906 0)
(3.02626 -0.561646 0)
(3.46516 -0.468739 3.52849e-20)
(3.82584 -0.370377 0)
(4.10372 -0.268715 0)
(4.28856 -0.164724 0)
(4.38412 -0.0597285 0)
(4.38001 0.04762 3.77017e-20)
(4.27234 0.154535 0)
(4.0596 0.261022 0)
(3.75115 0.361223 0)
(3.3419 0.452214 0)
(2.85358 0.53429 0)
(2.27166 0.588883 0)
(1.65221 0.628354 0)
(0.968341 0.609025 3.4112e-20)
(0.26074 0.280564 -3.57965e-20)
(-0.0657729 -0.249535 3.73484e-20)
(-0.287998 -0.364757 3.72297e-20)
(-0.367193 -0.368121 0)
(-0.288969 -0.407825 0)
(-0.0859689 -0.469325 -3.4633e-20)
(0.265388 -0.548563 -3.33854e-20)
(0.683259 -0.772991 0)
(1.07758 -0.504983 0)
(1.26006 -0.7303 -2.86231e-20)
(1.03578 -1.54223 0)
(1.28565 -0.853192 0)
(-0.022971 0.90519 2.65858e-20)
(-1.60676 1.12183 0)
(-2.77767 1.03164 2.53021e-20)
(-3.90674 0.93938 5.67867e-20)
(-4.88293 0.83237 0)
(-5.75472 0.726622 0)
(-6.51708 0.628476 0)
(-7.18328 0.539015 0)
(-7.758 0.458739 0)
(-8.24997 0.386614 8.36905e-20)
(-8.6656 0.321668 8.74196e-20)
(-9.01064 0.262937 9.05643e-20)
(-9.2902 0.20966 0)
(-9.50857 0.161212 -9.50801e-20)
(-9.66979 0.117329 0)
(-9.77776 0.0780179 9.72757e-20)
(-9.83618 0.0434459 9.75238e-20)
(-9.84894 0.0136251 0)
(-9.82323 -0.012001 0)
(-9.76324 -0.0338612 0)
(-9.67429 -0.0522317 9.21305e-20)
(-9.56021 -0.0672841 0)
(-9.42607 -0.0790694 0)
(-9.27584 -0.087887 0)
(-9.11387 -0.0939211 0)
(-8.94382 -0.0975536 0)
(-8.76908 -0.0991414 0)
(-8.59241 -0.0991315 0)
(-8.41599 -0.0979898 0)
(-8.24127 -0.0962162 -6.39888e-20)
(-8.06895 -0.0943464 0)
(-7.89884 -0.0929506 0)
(-7.72978 -0.0926365 5.31879e-20)
(-7.5596 -0.0940486 4.94417e-20)
(-7.38491 -0.0978437 0)
(-7.20103 -0.104663 -4.13553e-20)
(-7.00182 -0.115093 3.67818e-20)
(-6.77956 -0.129609 0)
(-6.52536 -0.148407 -2.56387e-20)
(-6.23001 -0.171074 0)
(-5.88585 -0.196363 0)
(-5.48941 -0.221879 -2.65822e-22)
(-5.04277 -0.244219 0)
(-4.55848 -0.261048 2.35806e-20)
(-4.04718 -0.270646 0)
(-3.52287 -0.272304 -4.67134e-20)
(-2.99911 -0.26662 -5.72027e-20)
(-2.48772 -0.254976 -6.66018e-20)
(-1.99799 -0.239054 -1.49541e-19)
(-1.53651 -0.220477 1.63337e-19)
(-1.10712 -0.200569 0)
(-0.711321 -0.180426 0)
(-0.349827 -0.161251 0)
(-0.0237035 -0.143868 1.94113e-19)
(0.27029 -0.126977 1.93169e-19)
(0.536062 -0.111745 -1.90294e-19)
(0.774361 -0.0980615 0)
(0.98749 -0.0857675 1.83586e-19)
(1.17789 -0.0747609 1.80026e-19)
(1.34776 -0.0649187 1.76449e-19)
(1.49909 -0.0560903 0)
(1.63366 -0.0481799 0)
(1.7531 -0.0411317 0)
(1.85886 -0.0348513 1.62854e-19)
(1.95229 -0.0292488 0)
(2.03457 -0.0242507 0)
(2.10678 -0.0197944 -1.53942e-19)
(2.16989 -0.0158266 0)
(2.22481 -0.0123006 0)
(2.27235 -0.00917462 -1.46219e-19)
(2.31325 -0.00641177 0)
(2.3482 -0.00397915 0)
(2.37782 -0.00184755 1.39567e-19)
(2.4027 9.19151e-06 1.3756e-19)
(2.42336 0.00161485 0)
(2.4403 0.00299094 -1.33823e-19)
(2.45396 0.00415682 0)
(2.46478 0.00513027 1.30418e-19)
(2.47312 0.00592784 0)
(2.47935 0.00656404 1.27303e-19)
(2.48379 0.0070505 1.25842e-19)
(2.48671 0.00738793 0)
(2.48835 0.00766525 0)
(2.48901 0.00784589 0)
(2.4889 0.00793901 0)
(2.48824 0.00796093 0)
(2.48719 0.00792097 0)
(2.48592 0.00784015 0)
(2.48454 0.00773487 1.15994e-19)
(2.48316 0.00762113 -1.14954e-19)
(2.48184 0.00751421 0)
(2.48062 0.00742883 0)
(2.47952 0.00737229 0)
(2.47855 0.00734302 0)
(2.4777 0.00733302 -2.20498e-19)
(2.47698 0.0073292 0)
(2.47642 0.00731686 2.17145e-19)
(2.47604 0.00728414 -2.15547e-19)
(2.47589 0.00722218 0)
(2.47602 0.00713128 0)
(2.4765 0.00701851 0)
(2.47735 0.00688915 2.09626e-19)
(2.47862 0.00675596 2.08255e-19)
(2.48032 0.00662859 0)
(2.48243 0.00651111 2.0563e-19)
(2.48495 0.00640707 2.04374e-19)
(2.48783 0.00632912 -2.03153e-19)
(2.49104 0.0062816 0)
(2.49454 0.0062627 0)
(2.49828 0.00627235 -1.99686e-19)
(2.50221 0.00628895 0)
(2.50627 0.00631216 0)
(2.5104 0.0063426 0)
(2.51453 0.00638075 0)
(2.5186 0.00641315 1.94499e-19)
(2.52254 0.0064457 1.9354e-19)
(2.52632 0.00649689 0)
(2.52992 0.00653382 1.91682e-19)
(2.53341 0.00649858 0)
(2.53686 0.00637364 0)
(2.54036 0.00617363 1.8904e-19)
(2.54399 0.00592452 0)
(2.54777 0.00565418 1.87359e-19)
(2.55167 0.00538908 0)
(2.55564 0.00514413 0)
(2.55957 0.0049284 1.84934e-19)
(2.56332 0.0047407 0)
(2.56671 0.00459074 1.8337e-19)
(2.56957 0.00448452 0)
(2.5716 0.00443867 0)
(2.57269 0.00446675 0)
(2.5722 0.00457897 -1.8038e-19)
(2.57038 0.00483484 0)
(2.56561 0.00519527 1.79e-19)
(2.55945 0.00583826 0)
(2.54727 0.00653266 0)
(2.53507 0.00799064 0)
(2.50875 0.00922012 0)
(2.48912 0.0126312 0)
(2.43273 0.0145197 0)
(2.40768 0.0230708 0)
(2.279 0.0253042 -3.53808e-19)
(2.26686 0.049304 0)
(1.94383 0.0515371 0)
(-0.152426 0.819911 1.1809e-19)
(-0.117651 0.622299 -1.21983e-19)
(0.339827 -0.454933 0)
(0.861083 -1.26772 7.11225e-20)
(1.39854 -1.70952 0)
(1.9319 -1.88367 2.71939e-20)
(2.44766 -1.88285 -6.52595e-20)
(2.93972 -1.77464 -6.25159e-20)
(3.39706 -1.60577 0)
(3.80926 -1.40078 -6.36281e-20)
(4.16585 -1.17288 -2.76445e-20)
(4.45972 -0.928569 0)
(4.68195 -0.673219 0)
(4.83284 -0.410606 0)
(4.90593 -0.145266 0)
(4.90628 0.119982 -3.32374e-20)
(4.83731 0.382396 0)
(4.69581 0.636143 7.14576e-20)
(4.48966 0.871815 0)
(4.21392 1.09014 0)
(3.89339 1.26073 -6.47864e-20)
(3.50587 1.41427 0)
(3.11071 1.46449 6.48085e-20)
(2.6485 1.46693 -2.91133e-20)
(2.19416 1.37047 3.00776e-20)
(1.82169 1.02011 -3.18287e-20)
(1.49198 0.686739 -3.3195e-20)
(1.25786 0.316374 0)
(1.09629 -0.134794 0)
(1.32175 -0.918545 3.07235e-20)
(1.47827 -0.882901 -2.76217e-20)
(1.53297 -1.41251 0)
(1.07559 -0.687372 0)
(-0.80354 1.23783 2.78103e-20)
(-2.55039 2.05299 0)
(-3.59418 2.42265 0)
(-4.62791 2.70604 -1.42612e-20)
(-5.38776 2.54302 0)
(-6.08625 2.36999 2.67874e-20)
(-6.70844 2.1229 -3.13696e-20)
(-7.28708 1.88268 0)
(-7.79556 1.64617 0)
(-8.25394 1.4279 -1.2208e-19)
(-8.65248 1.22903 -1.33969e-19)
(-9.00218 1.04813 -1.45213e-19)
(-9.30136 0.884008 8.36679e-20)
(-9.55483 0.733747 -7.71928e-20)
(-9.76328 0.595582 -2.54729e-19)
(-9.92891 0.467745 1.79794e-19)
(-10.053 0.349207 8.88051e-20)
(-10.137 0.239468 0)
(-10.1829 0.138472 -9.29931e-20)
(-10.1926 0.0467179 9.97191e-20)
(-10.1689 -0.0352413 0)
(-10.1116 -0.10728 0)
(-10.024 -0.169367 0)
(-9.90898 -0.221577 -8.89922e-20)
(-9.77153 -0.264113 0)
(-9.61524 -0.297261 1.70528e-19)
(-9.44472 -0.321636 0)
(-9.26373 -0.33795 1.58126e-19)
(-9.0761 -0.347186 0)
(-8.88502 -0.350446 -1.44845e-19)
(-8.69326 -0.348991 0)
(-8.50295 -0.344179 1.31265e-19)
(-8.31557 -0.337469 -6.23344e-20)
(-8.13186 -0.330427 0)
(-7.95173 -0.324732 -1.10937e-19)
(-7.77417 -0.322179 -5.17719e-20)
(-7.59711 -0.324668 -4.81202e-20)
(-7.41733 -0.334187 0)
(-7.23023 -0.352756 -4.21557e-20)
(-7.02968 -0.382296 -3.55803e-20)
(-6.80773 -0.424432 0)
(-6.55477 -0.480054 2.45167e-20)
(-6.26028 -0.548413 -4.047e-20)
(-5.91464 -0.625984 0)
(-5.51194 -0.705631 2.48572e-22)
(-5.05309 -0.777046 0)
(-4.54576 -0.830518 -6.37899e-20)
(-4.00995 -0.860672 0)
(-3.46075 -0.866111 1.33529e-19)
(-2.914 -0.848748 5.60642e-20)
(-2.38276 -0.813202 -6.30734e-20)
(-1.8765 -0.764824 -1.43344e-19)
(-1.40154 -0.70851 1.5787e-19)
(-0.960988 -0.64848 0)
(-0.555451 -0.588414 0)
(-0.18602 -0.530055 0)
(0.148355 -0.477167 -5.7032e-19)
(0.451713 -0.426796 -1.88837e-19)
(0.726449 -0.380932 1.86316e-19)
(0.974155 -0.339563 0)
(1.19728 -0.302343 1.79068e-19)
(1.3982 -0.268926 -1.76855e-19)
(1.57908 -0.238961 -1.73474e-19)
(1.74183 -0.21212 0)
(1.88821 -0.188087 0)
(2.01979 -0.166563 0)
(2.13797 -0.147289 -1.60394e-19)
(2.24401 -0.130031 0)
(2.33906 -0.114584 3.08487e-19)
(2.42416 -0.100768 4.54643e-19)
(2.50025 -0.0884214 -2.97685e-19)
(2.5682 -0.077403 0)
(2.62882 -0.0675853 -1.43772e-19)
(2.68282 -0.0588544 0)
(2.73088 -0.0511081 -2.78856e-19)
(2.77362 -0.0442541 1.37234e-19)
(2.81162 -0.0382092 1.3525e-19)
(2.84539 -0.0328981 0)
(2.87542 -0.0282525 3.94948e-19)
(2.90218 -0.0242101 -2.59767e-19)
(2.92605 -0.0207145 -1.28285e-19)
(2.94744 -0.017715 0)
(2.96667 -0.0151655 -1.2515e-19)
(2.98408 -0.0130246 -3.70934e-19)
(2.99996 -0.0112585 0)
(3.01462 -0.00977763 -2.41714e-19)
(3.02827 -0.00858504 -2.39097e-19)
(3.04114 -0.00765625 -2.36578e-19)
(3.0534 -0.00695971 0)
(3.06523 -0.00646856 0)
(3.0768 -0.00615078 0)
(3.08825 -0.00597707 1.13661e-19)
(3.09971 -0.00591941 1.12659e-19)
(3.1113 -0.00595047 0)
(3.12314 -0.00604459 2.21261e-19)
(3.13533 -0.00618094 2.19352e-19)
(3.14796 -0.00634559 0)
(3.16111 -0.0065313 2.15743e-19)
(3.17486 -0.00673789 4.27933e-19)
(3.18926 -0.00697111 -2.12308e-19)
(3.20437 -0.00723808 -2.10606e-19)
(3.22025 -0.00754552 0)
(3.23693 -0.00789591 0)
(3.25446 -0.0082844 0)
(3.27286 -0.00870403 -2.04541e-19)
(3.29216 -0.00914238 2.03072e-19)
(3.31238 -0.00958465 4.03412e-19)
(3.33353 -0.0100181 -2.00375e-19)
(3.35563 -0.0104319 1.99022e-19)
(3.37866 -0.0108086 1.97776e-19)
(3.40261 -0.0111346 0)
(3.42747 -0.0114037 0)
(3.45322 -0.0116117 -1.94088e-19)
(3.47982 -0.0117724 0)
(3.50727 -0.0118851 0)
(3.53553 -0.0119481 3.81401e-19)
(3.56457 -0.0119608 0)
(3.59438 -0.0119158 1.88546e-19)
(3.62489 -0.0117959 -1.87532e-19)
(3.6561 -0.011615 0)
(3.68798 -0.0114212 1.8549e-19)
(3.72051 -0.0112588 0)
(3.75366 -0.0111377 0)
(3.7874 -0.011045 -1.82615e-19)
(3.82166 -0.0109604 3.63352e-19)
(3.85639 -0.010855 -1.80767e-19)
(3.8915 -0.0107006 0)
(3.92689 -0.0104633 0)
(3.96236 -0.0101298 1.78093e-19)
(3.9978 -0.00966833 0)
(4.0329 -0.00908764 1.76383e-19)
(4.06755 -0.00832507 0)
(4.10118 -0.00743088 0)
(4.13393 -0.00625862 0)
(4.16462 -0.00497171 1.73174e-19)
(4.19411 -0.00322053 0)
(4.21986 -0.00148083 -1.71702e-19)
(4.2447 0.00125685 0)
(4.26207 0.00364623 0)
(4.28056 0.00820161 3.39409e-19)
(4.28371 0.0113329 -3.38354e-19)
(4.29572 0.0196387 0)
(4.27297 0.0237335 0)
(4.28179 0.0407368 0)
(4.2056 0.0469325 1.01077e-18)
(4.22448 0.085934 0)
(4.02935 0.102284 -6.76765e-19)
(-0.161945 1.10437 -1.68421e-22)
(0.460435 -0.264392 1.55462e-19)
(1.16247 -1.73431 0)
(1.73942 -2.56041 -1.33115e-19)
(2.20079 -2.87667 0)
(2.59615 -2.89436 0)
(2.96478 -2.76204 -1.25095e-20)
(3.31933 -2.55585 5.20993e-20)
(3.65764 -2.30487 6.79326e-20)
(3.9701 -2.01621 5.74791e-20)
(4.24448 -1.69333 0)
(4.46933 -1.34067 0)
(4.6374 -0.965998 -8.37032e-20)
(4.745 -0.575752 -1.76235e-19)
(4.79091 -0.180386 1.84918e-19)
(4.7774 0.21456 0)
(4.70061 0.602414 1.75116e-19)
(4.56324 0.974635 -7.0848e-20)
(4.36785 1.31872 0)
(4.12556 1.62604 1.50947e-19)
(3.83939 1.8828 6.09955e-20)
(3.5227 2.06251 -1.36942e-19)
(3.19704 2.20307 -5.76604e-20)
(2.88524 2.20247 0)
(2.58166 1.97653 1.24094e-19)
(2.16096 1.8414 1.15566e-19)
(1.93916 1.04524 0)
(1.47044 0.618408 1.06369e-19)
(1.44576 0.252124 0)
(1.55377 -1.18086 1.0621e-19)
(0.416895 -0.2845 5.99372e-20)
(-1.58368 1.85007 0)
(-2.86788 2.70069 0)
(-4.10022 3.41828 0)
(-4.96024 3.61895 0)
(-5.65796 3.72624 0)
(-6.18588 3.69767 0)
(-6.58731 3.49177 8.75237e-20)
(-6.97157 3.22639 -1.29268e-19)
(-7.31393 2.90826 0)
(-7.66559 2.59247 0)
(-7.99613 2.2866 0)
(-8.31961 2.0014 -2.1083e-20)
(-8.61964 1.73739 1.30065e-19)
(-8.89713 1.49326 3.02438e-19)
(-9.14537 1.26672 -3.24046e-19)
(-9.36217 1.05519 -1.78944e-19)
(-9.54468 0.856577 1.73895e-19)
(-9.69081 0.669475 1.2214e-20)
(-9.79947 0.493132 1.99818e-19)
(-9.87004 0.327539 0)
(-9.9028 0.173113 2.07491e-19)
(-9.89859 0.0305531 9.04935e-21)
(-9.8599 -0.0988126 0)
(-9.78997 -0.213562 0)
(-9.69219 -0.312841 -1.95922e-19)
(-9.57049 -0.39625 0)
(-9.4289 -0.463765 0)
(-9.27147 -0.51592 1.80545e-19)
(-9.10218 -0.553504 3.39806e-19)
(-8.92477 -0.577793 -1.60541e-19)
(-8.74267 -0.590296 0)
(-8.55891 -0.592862 1.46862e-19)
(-8.37606 -0.587546 0)
(-8.19616 -0.576608 1.33509e-19)
(-8.02071 -0.56246 1.25986e-19)
(-7.8506 -0.547697 -2.38414e-19)
(-7.68597 -0.535084 -1.12775e-19)
(-7.52609 -0.527557 0)
(-7.36925 -0.528282 1.98047e-19)
(-7.21254 -0.5407 0)
(-7.05164 -0.568463 2.52363e-19)
(-6.88041 -0.615216 1.55052e-19)
(-6.69047 -0.684222 1.38101e-19)
(-6.47076 -0.777691 -1.18535e-19)
(-6.20773 -0.895477 1.34132e-19)
(-5.88705 -1.03276 0)
(-5.4975 -1.17767 0)
(-5.03626 -1.31096 1.0362e-20)
(-4.51255 -1.41111 1.00145e-19)
(-3.94479 -1.46506 0)
(-3.36364 -1.47288 -8.59237e-20)
(-2.78838 -1.43958 0)
(-2.23481 -1.37462 3.70297e-19)
(-1.71309 -1.28822 6.5233e-21)
(-1.22896 -1.18934 -5.41345e-21)
(-0.784481 -1.08566 -3.3342e-19)
(-0.378471 -0.983421 0)
(-0.0119226 -0.886407 3.64938e-19)
(0.31823 -0.7954 3.21261e-21)
(0.618123 -0.711376 0)
(0.888826 -0.635129 0)
(1.13292 -0.566378 0)
(1.35306 -0.50458 -3.5292e-19)
(1.55165 -0.449132 0)
(1.7308 -0.399416 0)
(1.8924 -0.354828 0)
(2.03812 -0.314837 0)
(2.16942 -0.278964 0)
(2.28761 -0.246783 -3.15483e-19)
(2.39387 -0.217917 0)
(2.48927 -0.192034 -3.05196e-19)
(2.57475 -0.168841 -2.99886e-19)
(2.6512 -0.148077 2.94798e-19)
(2.71942 -0.129516 0)
(2.78013 -0.112953 2.85276e-19)
(2.83401 -0.0982077 0)
(2.88169 -0.0851171 2.76589e-19)
(2.92375 -0.0735348 -2.72538e-19)
(2.96073 -0.0633277 -8.0535e-19)
(2.99316 -0.0543742 0)
(3.02151 -0.0465629 -7.83788e-19)
(3.04623 -0.0397911 -2.57572e-19)
(3.06776 -0.0339635 0)
(3.08648 -0.028992 -5.03056e-19)
(3.10278 -0.024794 -4.97148e-19)
(3.117 -0.0212913 7.37383e-19)
(3.12948 -0.0184033 0)
(3.14052 -0.0160921 2.40528e-19)
(3.15039 -0.0142786 2.37988e-19)
(3.15936 -0.0129062 7.06383e-19)
(3.16767 -0.0119234 0)
(3.17553 -0.0112772 0)
(3.18315 -0.0109216 0)
(3.19072 -0.0108115 2.26396e-19)
(3.19841 -0.0109049 0)
(3.20638 -0.0111627 0)
(3.21476 -0.0115522 -2.20581e-19)
(3.22371 -0.0120465 -2.18706e-19)
(3.23334 -0.0126259 0)
(3.24376 -0.0132796 0)
(3.25507 -0.0140035 -4.26799e-19)
(3.26734 -0.0147981 0)
(3.28063 -0.0156645 4.20205e-19)
(3.29499 -0.0165999 4.16946e-19)
(3.31047 -0.0175972 0)
(3.32708 -0.0186448 0)
(3.34484 -0.0197254 -4.07956e-19)
(3.3638 -0.0208214 -7.75451e-23)
(3.38395 -0.0219149 -7.44365e-23)
(3.40532 -0.0229884 0)
(3.42793 -0.0240265 -7.94079e-19)
(3.45179 -0.0250204 0)
(3.47693 -0.0259631 0)
(3.50334 -0.0268487 0)
(3.53103 -0.0276756 3.87139e-19)
(3.56 -0.0284362 0)
(3.59026 -0.02913 -7.64881e-19)
(3.6218 -0.0297565 -3.80252e-19)
(3.65462 -0.0303152 0)
(3.68871 -0.0308007 -3.7589e-19)
(3.72407 -0.0312176 0)
(3.76068 -0.0315926 0)
(3.7985 -0.0319635 -1.10879e-18)
(3.8375 -0.0323548 7.3513e-19)
(3.8776 -0.0327715 0)
(3.91874 -0.0331964 7.2725e-19)
(3.96084 -0.0336026 -3.61739e-19)
(4.00382 -0.0339447 0)
(4.0476 -0.0341863 0)
(4.09208 -0.0342703 0)
(4.13711 -0.034173 -1.06289e-18)
(4.1826 -0.0338193 0)
(4.22827 -0.0332205 -3.50778e-19)
(4.27407 -0.0322558 0)
(4.3195 -0.0310175 0)
(4.36465 -0.0292551 0)
(4.40858 -0.027243 0)
(4.4519 -0.0244209 0)
(4.49263 -0.0215135 0)
(4.53268 -0.017096 -6.78872e-19)
(4.56812 -0.0130298 0)
(4.60405 -0.00596661 -3.36907e-19)
(4.63117 -0.000472608 1.00649e-18)
(4.66174 0.0114221 0)
(4.67483 0.0192581 0)
(4.69974 0.0412862 -6.64805e-19)
(4.68942 0.0548349 -6.6563e-19)
(4.71162 0.0997386 6.62168e-19)
(4.66777 0.13353 6.66644e-19)
(0.199248 0.305747 -2.3954e-19)
(0.982256 -1.95404 -2.19569e-19)
(1.58927 -3.1501 -1.47077e-19)
(2.00559 -3.52663 -7.99171e-20)
(2.30275 -3.5443 0)
(2.57447 -3.44882 1.43167e-19)
(2.86455 -3.31216 -8.74627e-20)
(3.1685 -3.12949 0)
(3.46311 -2.87922 -6.65949e-20)
(3.72645 -2.55188 0)
(3.94183 -2.15556 1.85627e-19)
(4.10393 -1.70938 0)
(4.2115 -1.23147 8.95735e-20)
(4.27003 -0.736251 1.93219e-19)
(4.27916 -0.235458 -2.07297e-19)
(4.24754 0.26671 0)
(4.16469 0.762796 -1.91458e-19)
(4.03013 1.24411 0)
(3.84519 1.69482 0)
(3.61856 2.09228 -1.58798e-19)
(3.35785 2.4226 0)
(3.06757 2.63361 -2.15005e-20)
(2.75021 2.69833 0)
(2.41424 2.71913 0)
(2.02763 2.64802 8.70603e-21)
(1.81949 2.10803 -1.17024e-19)
(1.22208 1.95464 -1.10254e-19)
(1.03643 0.800954 -1.09902e-19)
(0.942754 -0.324178 0)
(-0.958485 1.5346 -2.03941e-19)
(-2.55547 2.98479 0)
(-3.83605 3.91038 -7.52107e-20)
(-4.67246 4.27749 0)
(-5.36614 4.52237 0)
(-5.82583 4.50088 8.1722e-20)
(-6.23816 4.41924 0)
(-6.54101 4.23362 -9.6005e-20)
(-6.82607 3.9781 2.24829e-20)
(-7.0832 3.68206 2.05868e-19)
(-7.32843 3.35813 -2.50791e-19)
(-7.57055 3.03111 0)
(-7.804 2.70752 0)
(-8.0318 2.39586 -1.81493e-19)
(-8.24801 2.09793 0)
(-8.45007 1.81419 -1.6353e-19)
(-8.63357 1.5437 1.75358e-19)
(-8.79418 1.2851 1.86361e-19)
(-8.92826 1.03735 0)
(-9.03201 0.799901 -2.05344e-19)
(-9.10286 0.573135 -2.13115e-19)
(-9.1389 0.358353 4.66688e-19)
(-9.13993 0.156969 -2.24797e-19)
(-9.10653 -0.0298215 -2.25614e-19)
(-9.04172 -0.198762 0)
(-8.94846 -0.348609 0)
(-8.83153 -0.477938 2.11342e-19)
(-8.6956 -0.585975 0)
(-8.54572 -0.6726 0)
(-8.38678 -0.738424 -3.81806e-19)
(-8.22314 -0.784684 -3.66413e-19)
(-8.05859 -0.813097 0)
(-7.89611 -0.825785 0)
(-7.73797 -0.825187 0)
(-7.58566 -0.814043 0)
(-7.44013 -0.795332 -2.85506e-19)
(-7.30189 -0.772216 2.69281e-19)
(-7.17115 -0.748047 2.54137e-19)
(-7.04777 -0.726417 4.77866e-19)
(-6.93124 -0.711322 0)
(-6.82057 -0.707243 2.57946e-21)
(-6.71391 -0.719295 0)
(-6.60803 -0.753106 -1.76867e-19)
(-6.49768 -0.81445 1.08108e-20)
(-6.37472 -0.908886 -1.4034e-19)
(-6.22699 -1.04112 1.187e-19)
(-6.03712 -1.21311 2.37583e-20)
(-5.78296 -1.42053 0)
(-5.44218 -1.64819 6.03626e-20)
(-5.00209 -1.86605 -9.63349e-21)
(-4.47064 -2.03416 -8.35745e-20)
(-3.87595 -2.12284 0)
(-3.25215 -2.13094 1.36166e-19)
(-2.64038 -2.07338 0)
(-2.05756 -1.9688 -4.68159e-19)
(-1.51657 -1.83427 2.75136e-19)
(-1.02203 -1.68448 -3.05061e-19)