/*--------------------------------*- C++ -*----------------------------------*\
| =========                 |                                                 |
| \\      /  F ield         | OpenFOAM: The Open Source CFD Toolbox           |
|  \\    /   O peration     | Version:  2112                                  |
|   \\  /    A nd           | Website:  www.openfoam.com                      |
|    \\/     M anipulation  |                                                 |
\*---------------------------------------------------------------------------*/
FoamFile
{
    version     2.0;
    format      ascii;
    arch        "LSB;label=32;scalar=64";
    class       surfaceScalarField;
    location    "0.042";
    object      phi_0;
}
// * * * * * * * * * * * * * * * * * * * * * * * * * * * * * * * * * * * * * //

dimensions      [0 3 -1 0 0 0 0];

oriented        oriented;

internalField   nonuniform List<scalar> 
24170
(
3.08969e-06
1.19723e-07
2.96722e-06
1.22473e-07
2.88466e-06
8.25534e-08
2.81628e-06
6.83883e-08
2.75213e-06
6.41486e-08
2.68618e-06
6.59466e-08
2.62104e-06
6.51397e-08
2.56939e-06
5.16533e-08
2.53493e-06
3.44583e-08
2.51465e-06
2.0279e-08
2.4942e-06
2.04464e-08
2.47945e-06
1.47585e-08
2.4645e-06
1.49474e-08
2.47119e-06
-6.68728e-09
2.52957e-06
-5.83897e-08
2.60517e-06
-7.55956e-08
2.85239e-06
-2.47217e-07
-3.30745e-07
3.18313e-06
3.41685e-06
1.11434e-07
3.42506e-06
1.14269e-07
3.43979e-06
6.78179e-08
3.47491e-06
3.32645e-08
3.51368e-06
2.53816e-08
3.53819e-06
4.14362e-08
3.54068e-06
6.26511e-08
3.52641e-06
6.59282e-08
3.51071e-06
5.01576e-08
3.50791e-06
2.30729e-08
3.52601e-06
2.35048e-09
3.56662e-06
-2.58535e-08
3.62415e-06
-4.25824e-08
3.70437e-06
-8.69073e-08
3.79069e-06
-1.44709e-07
3.93615e-06
-2.21057e-07
4.06505e-06
-3.76113e-07
-5.77873e-07
4.31217e-06
3.67049e-06
1.39833e-07
3.70731e-06
7.74536e-08
3.72473e-06
5.03897e-08
3.72156e-06
3.644e-08
3.724e-06
2.29405e-08
3.739e-06
2.64387e-08
3.75907e-06
4.25804e-08
3.77482e-06
5.01783e-08
3.78622e-06
3.87528e-08
3.79695e-06
1.23405e-08
3.81927e-06
-1.99636e-08
3.85296e-06
-5.95409e-08
3.91217e-06
-1.01794e-07
3.98137e-06
-1.56114e-07
4.07295e-06
-2.36281e-07
4.18483e-06
-3.32937e-07
4.29744e-06
-4.88731e-07
-7.19307e-07
4.43888e-06
3.84629e-06
6.86249e-08
3.87863e-06
4.51099e-08
3.88446e-06
4.45596e-08
3.90631e-06
1.4585e-08
3.94653e-06
-1.72741e-08
3.99305e-06
-2.00788e-08
4.03056e-06
5.07085e-09
4.0531e-06
2.76325e-08
4.0675e-06
2.43548e-08
4.08615e-06
-6.31512e-09
4.11662e-06
-5.04293e-08
4.16104e-06
-1.03957e-07
4.21919e-06
-1.59946e-07
4.28818e-06
-2.2511e-07
4.36465e-06
-3.12749e-07
4.45529e-06
-4.23572e-07
4.5465e-06
-5.79941e-07
-8.0397e-07
4.63116e-06
4.14824e-06
1.96453e-08
4.16115e-06
3.22054e-08
4.18428e-06
2.14283e-08
4.19922e-06
-3.57151e-10
4.21262e-06
-3.06727e-08
4.24211e-06
-4.95701e-08
4.28836e-06
-4.11834e-08
4.33657e-06
-2.0573e-08
4.37607e-06
-1.51436e-08
4.40665e-06
-3.68994e-08
4.43708e-06
-8.08564e-08
4.47459e-06
-1.41468e-07
4.5239e-06
-2.0926e-07
4.58422e-06
-2.85426e-07
4.64963e-06
-3.78161e-07
4.72166e-06
-4.95601e-07
4.78831e-06
-6.46592e-07
-8.52063e-07
4.83641e-06
4.46685e-06
5.51386e-08
4.46732e-06
3.17335e-08
4.49123e-06
-2.48562e-09
4.51734e-06
-2.64668e-08
4.54082e-06
-5.41474e-08
4.55448e-06
-6.32332e-08
4.5632e-06
-4.99045e-08
4.57705e-06
-3.44189e-08
4.60162e-06
-3.97136e-08
4.6378e-06
-7.30833e-08
4.68255e-06
-1.25609e-07
4.73136e-06
-1.90279e-07
4.78218e-06
-2.60072e-07
4.83453e-06
-3.37784e-07
4.88785e-06
-4.31475e-07
4.94425e-06
-5.52e-07
4.99894e-06
-7.01284e-07
-8.9405e-07
5.04093e-06
4.8611e-06
8.0425e-08
4.85563e-06
3.7206e-08
4.85322e-06
-7.70885e-11
4.85579e-06
-2.9036e-08
4.86325e-06
-6.16077e-08
4.8744e-06
-7.43845e-08
4.88985e-06
-6.53534e-08
4.91155e-06
-5.61198e-08
4.93982e-06
-6.79888e-08
4.97317e-06
-1.06426e-07
5.0097e-06
-1.62144e-07
5.04829e-06
-2.28868e-07
5.09068e-06
-3.02465e-07
5.13885e-06
-3.85953e-07
5.19175e-06
-4.84376e-07
5.24645e-06
-6.06693e-07
5.29601e-06
-7.50849e-07
-9.25161e-07
5.32712e-06
5.26166e-06
8.64565e-08
5.2013e-06
9.75659e-08
5.13741e-06
6.381e-08
5.11995e-06
-1.15784e-08
5.14192e-06
-8.35704e-08
5.18337e-06
-1.15841e-07
5.23301e-06
-1.14988e-07
5.28693e-06
-1.10046e-07
5.34174e-06
-1.228e-07
5.39307e-06
-1.57747e-07
5.43821e-06
-2.07284e-07
5.4765e-06
-2.67167e-07
5.50981e-06
-3.3577e-07
5.54054e-06
-4.16687e-07
5.56877e-06
-5.12607e-07
5.59287e-06
-6.30784e-07
5.60893e-06
-7.66917e-07
-9.24901e-07
5.60867e-06
5.50468e-06
1.56499e-07
5.51348e-06
8.87611e-08
5.53688e-06
4.04139e-08
5.55546e-06
-3.01611e-08
5.55885e-06
-8.69554e-08
5.55263e-06
-1.09622e-07
5.55541e-06
-1.17776e-07
5.58075e-06
-1.35385e-07
5.62808e-06
-1.70124e-07
5.68649e-06
-2.16158e-07
5.74431e-06
-2.65109e-07
5.79424e-06
-3.17096e-07
5.83521e-06
-3.76733e-07
5.87037e-06
-4.51853e-07
5.90205e-06
-5.44281e-07
5.92972e-06
-6.5846e-07
5.94827e-06
-7.85467e-07
-9.26366e-07
5.94974e-06
5.91892e-06
2.02094e-07
5.97172e-06
3.59562e-08
6.00491e-06
7.22826e-09
5.99637e-06
-2.16201e-08
5.986e-06
-7.65824e-08
5.99448e-06
-1.18103e-07
6.02176e-06
-1.45057e-07
6.05732e-06
-1.70946e-07
6.09312e-06
-2.05924e-07
6.12757e-06
-2.50608e-07
6.16339e-06
-3.00928e-07
6.20323e-06
-3.56939e-07
6.24731e-06
-4.20808e-07
6.29232e-06
-4.96863e-07
6.3316e-06
-5.83563e-07
6.35651e-06
-6.83375e-07
6.35786e-06
-7.86817e-07
-8.96055e-07
6.32755e-06
6.2649e-06
3.07354e-08
6.33009e-06
-2.9238e-08
6.34333e-06
-6.00896e-09
6.37048e-06
-4.87754e-08
6.39528e-06
-1.01375e-07
6.41106e-06
-1.33885e-07
6.41964e-06
-1.53644e-07
6.42743e-06
-1.78728e-07
6.44058e-06
-2.19081e-07
6.46403e-06
-2.74053e-07
6.50033e-06
-3.37229e-07
6.54774e-06
-4.04352e-07
6.59966e-06
-4.72724e-07
6.64609e-06
-5.43294e-07
6.67669e-06
-6.14165e-07
6.68197e-06
-6.88657e-07
6.65732e-06
-7.62162e-07
-8.4017e-07
6.60144e-06
5.69049e-06
1.24323e-07
5.66786e-06
-6.60557e-09
5.70431e-06
-4.24627e-08
5.75486e-06
-9.93232e-08
5.8038e-06
-1.50317e-07
5.83578e-06
-1.65866e-07
5.84425e-06
-1.62106e-07
5.84081e-06
-1.75296e-07
5.84253e-06
-2.20795e-07
5.85823e-06
-2.89758e-07
5.88561e-06
-3.6461e-07
5.91527e-06
-4.3401e-07
5.93678e-06
-4.94229e-07
5.9426e-06
-5.49117e-07
5.92994e-06
-6.01511e-07
5.89939e-06
-6.58102e-07
5.85526e-06
-7.18032e-07
-7.86114e-07
5.8012e-06
6.97493e-06
1.53847e-07
6.89733e-06
7.09953e-08
6.9051e-06
-5.02332e-08
6.96378e-06
-1.58e-07
7.01701e-06
-2.03547e-07
7.04506e-06
-1.93915e-07
7.05396e-06
-1.71008e-07
7.06109e-06
-1.82424e-07
7.07795e-06
-2.37654e-07
7.10315e-06
-3.14962e-07
7.12652e-06
-3.87977e-07
7.13819e-06
-4.45685e-07
7.134e-06
-4.90033e-07
7.11595e-06
-5.31074e-07
7.0892e-06
-5.74755e-07
7.05788e-06
-6.26781e-07
7.02341e-06
-6.83571e-07
-7.46139e-07
6.98344e-06
8.76318e-06
1.77636e-08
8.77369e-06
6.04788e-08
8.68319e-06
4.02726e-08
8.58731e-06
-6.21202e-08
8.52076e-06
-1.36999e-07
8.49528e-06
-1.68436e-07
8.50074e-06
-1.76466e-07
8.51814e-06
-1.99828e-07
8.53582e-06
-2.55328e-07
8.54998e-06
-3.29121e-07
8.56056e-06
-3.98565e-07
8.56796e-06
-4.53085e-07
8.57199e-06
-4.94059e-07
8.57091e-06
-5.29996e-07
8.56172e-06
-5.6556e-07
8.54076e-06
-6.05821e-07
8.50392e-06
-6.46735e-07
-6.90438e-07
8.44822e-06
1.05922e-05
8.05662e-08
1.05273e-05
1.25353e-07
1.04326e-05
1.35048e-07
1.03448e-05
2.56791e-08
1.03396e-05
-1.31871e-07
1.04227e-05
-2.51462e-07
1.05397e-05
-2.93529e-07
1.06235e-05
-2.83572e-07
1.06343e-05
-2.66189e-07
1.05777e-05
-2.72445e-07
1.04892e-05
-3.10073e-07
1.0407e-05
-3.70921e-07
1.03527e-05
-4.39782e-07
1.03265e-05
-5.038e-07
1.03153e-05
-5.54326e-07
1.03016e-05
-5.92124e-07
1.02717e-05
-6.16844e-07
-6.37673e-07
1.02189e-05
1.27168e-05
-5.23306e-08
1.28e-05
4.21516e-08
1.28417e-05
9.32993e-08
1.2841e-05
2.64029e-08
1.28297e-05
-1.20578e-07
1.28235e-05
-2.45282e-07
1.2839e-05
-3.08982e-07
1.28704e-05
-3.15004e-07
1.29005e-05
-2.96221e-07
1.2915e-05
-2.86997e-07
1.29076e-05
-3.0265e-07
1.28761e-05
-3.39473e-07
1.28206e-05
-3.84263e-07
1.27424e-05
-4.25563e-07
1.26461e-05
-4.58072e-07
1.25382e-05
-4.8419e-07
1.24269e-05
-5.05535e-07
-5.28404e-07
1.23176e-05
1.5432e-05
-2.24532e-07
1.54187e-05
5.54379e-08
1.53673e-05
1.4474e-07
1.53284e-05
6.52731e-08
1.52851e-05
-7.72789e-08
1.52461e-05
-2.0623e-07
1.52261e-05
-2.88969e-07
1.52437e-05
-3.32687e-07
1.53036e-05
-3.56109e-07
1.5385e-05
-3.68391e-07
1.5452e-05
-3.69603e-07
1.54734e-05
-3.60859e-07
1.54373e-05
-3.48235e-07
1.53543e-05
-3.42533e-07
1.52474e-05
-3.51165e-07
1.51391e-05
-3.75914e-07
1.5045e-05
-4.11414e-07
-4.49576e-07
1.49662e-05
1.82245e-05
-1.02847e-07
1.82316e-05
4.83265e-08
1.83469e-05
2.94232e-08
1.84344e-05
-2.22806e-08
1.84452e-05
-8.80004e-08
1.84243e-05
-1.85393e-07
1.84114e-05
-2.76009e-07
1.84179e-05
-3.39211e-07
1.84344e-05
-3.72592e-07
1.84441e-05
-3.78084e-07
1.84368e-05
-3.62327e-07
1.84147e-05
-3.38746e-07
1.83889e-05
-3.2244e-07
1.83713e-05
-3.24928e-07
1.83677e-05
-3.47614e-07
1.83746e-05
-3.82746e-07
1.83825e-05
-4.19382e-07
-4.44801e-07
1.83778e-05
2.24278e-05
-3.02721e-07
2.28111e-05
-3.34926e-07
2.29871e-05
-1.46573e-07
2.30439e-05
-7.90928e-08
2.30676e-05
-1.11699e-07
2.3055e-05
-1.72796e-07
2.30075e-05
-2.28455e-07
2.29399e-05
-2.71621e-07
2.28649e-05
-2.97651e-07
2.27952e-05
-3.08352e-07
2.27393e-05
-3.06425e-07
2.26973e-05
-2.96778e-07
2.26621e-05
-2.87243e-07
2.26215e-05
-2.84309e-07
2.25637e-05
-2.89792e-07
2.24818e-05
-3.00886e-07
2.23747e-05
-3.12251e-07
-3.19073e-07
2.2249e-05
1.65445e-05
-2.94745e-07
1.65325e-05
-3.22966e-07
1.65588e-05
-1.72897e-07
1.65834e-05
-1.03596e-07
1.66081e-05
-1.36454e-07
1.66623e-05
-2.26943e-07
1.67331e-05
-2.99336e-07
1.67815e-05
-3.20028e-07
1.67826e-05
-2.98728e-07
1.67356e-05
-2.61357e-07
1.66602e-05
-2.3099e-07
1.65822e-05
-2.18805e-07
1.65192e-05
-2.24217e-07
1.64738e-05
-2.38943e-07
1.64366e-05
-2.52572e-07
1.63944e-05
-2.58633e-07
1.63361e-05
-2.54047e-07
-2.41448e-07
1.62585e-05
1.46683e-05
-1.62974e-07
1.45473e-05
-2.01998e-07
1.45526e-05
-1.78226e-07
1.46129e-05
-1.63838e-07
1.46491e-05
-1.72711e-07
1.46203e-05
-1.98112e-07
1.45499e-05
-2.28938e-07
1.44738e-05
-2.43959e-07
1.44087e-05
-2.33552e-07
1.4357e-05
-2.09686e-07
1.43179e-05
-1.91899e-07
1.42894e-05
-1.90309e-07
1.42666e-05
-2.0146e-07
1.42424e-05
-2.14736e-07
1.4211e-05
-2.21162e-07
1.417e-05
-2.17635e-07
1.41214e-05
-2.05416e-07
-1.88561e-07
1.40685e-05
1.29717e-05
-6.30657e-08
1.28145e-05
-4.47521e-08
1.27319e-05
-9.56639e-08
1.27071e-05
-1.39011e-07
1.26957e-05
-1.61291e-07
1.26732e-05
-1.75683e-07
1.26227e-05
-1.78384e-07
1.25557e-05
-1.76937e-07
1.25006e-05
-1.7854e-07
1.24746e-05
-1.83647e-07
1.24721e-05
-1.89443e-07
1.24741e-05
-1.92294e-07
1.24623e-05
-1.89654e-07
1.24291e-05
-1.81502e-07
1.23791e-05
-1.71143e-07
1.23236e-05
-1.62125e-07
1.22748e-05
-1.56613e-07
-1.54809e-07
1.2241e-05
1.10041e-05
-6.30055e-08
1.10836e-05
-1.24251e-07
1.11258e-05
-1.37878e-07
1.10867e-05
-9.99171e-08
1.10368e-05
-1.1133e-07
1.10209e-05
-1.59844e-07
1.1027e-05
-1.84408e-07
1.10234e-05
-1.73385e-07
1.09941e-05
-1.4925e-07
1.09447e-05
-1.34232e-07
1.08907e-05
-1.35433e-07
1.08455e-05
-1.47097e-07
1.08148e-05
-1.58955e-07
1.07973e-05
-1.63974e-07
1.07867e-05
-1.60546e-07
1.07755e-05
-1.50996e-07
1.07566e-05
-1.37719e-07
-1.23391e-07
1.07252e-05
9.32658e-06
-2.04251e-08
9.43846e-06
-2.36135e-07
9.49929e-06
-1.98706e-07
9.51513e-06
-1.15759e-07
9.50326e-06
-9.94604e-08
9.46425e-06
-1.20834e-07
9.41018e-06
-1.30337e-07
9.35302e-06
-1.1622e-07
9.3026e-06
-9.88363e-08
9.26703e-06
-9.86582e-08
9.25015e-06
-1.18555e-07
9.24934e-06
-1.46287e-07
9.25791e-06
-1.67526e-07
9.26784e-06
-1.73901e-07
9.27239e-06
-1.65096e-07
9.26754e-06
-1.46153e-07
9.25252e-06
-1.22692e-07
-1.00813e-07
9.22994e-06
8.3326e-06
-2.97075e-07
8.38964e-06
-2.93172e-07
8.37201e-06
-1.81082e-07
8.37861e-06
-1.22352e-07
8.36487e-06
-8.57213e-08
8.30524e-06
-6.12106e-08
8.23096e-06
-5.60483e-08
8.18542e-06
-7.06853e-08
8.18242e-06
-9.58391e-08
8.20355e-06
-1.19785e-07
8.22019e-06
-1.35191e-07
8.21366e-06
-1.3976e-07
8.18151e-06
-1.35376e-07
8.13288e-06
-1.25269e-07
8.08043e-06
-1.12644e-07
8.0341e-06
-9.9831e-08
7.99922e-06
-8.78077e-08
-7.77224e-08
7.97613e-06
7.39875e-06
-1.51146e-07
7.3197e-06
-2.14131e-07
7.30227e-06
-1.63652e-07
7.26677e-06
-8.68496e-08
7.22442e-06
-4.33647e-08
7.20218e-06
-3.89724e-08
7.21399e-06
-6.78586e-08
7.2551e-06
-1.11799e-07
7.30533e-06
-1.4607e-07
7.3416e-06
-1.56053e-07
7.34875e-06
-1.42345e-07
7.32502e-06
-1.16022e-07
7.27996e-06
-9.03186e-08
7.22846e-06
-7.37733e-08
7.18333e-06
-6.75084e-08
7.15133e-06
-6.7836e-08
7.1337e-06
-7.01787e-08
-7.04462e-08
7.12643e-06
6.51666e-06
-8.70968e-08
6.49639e-06
-1.93863e-07
6.49509e-06
-1.62345e-07
6.45905e-06
-5.08166e-08
6.39581e-06
1.98771e-08
6.34691e-06
9.92437e-09
6.3254e-06
-4.63402e-08
6.31935e-06
-1.05754e-07
6.31531e-06
-1.42028e-07
6.30814e-06
-1.48884e-07
6.29861e-06
-1.32818e-07
6.28856e-06
-1.05969e-07
6.27809e-06
-7.98532e-08
6.26635e-06
-6.20316e-08
6.25314e-06
-5.4292e-08
6.23907e-06
-5.37653e-08
6.22583e-06
-5.69455e-08
-5.93817e-08
6.21477e-06
5.517e-06
-1.0669e-07
5.5179e-06
-1.94771e-07
5.52665e-06
-1.71088e-07
5.55473e-06
-7.89032e-08
5.57921e-06
-4.59584e-09
5.58393e-06
5.19982e-09
5.57235e-06
-3.4761e-08
5.55336e-06
-8.67625e-08
5.53171e-06
-1.20372e-07
5.51031e-06
-1.27485e-07
5.49275e-06
-1.15257e-07
5.48208e-06
-9.53044e-08
5.47847e-06
-7.62404e-08
5.47927e-06
-6.28358e-08
5.48091e-06
-5.59308e-08
5.48063e-06
-5.34865e-08
5.47704e-06
-5.33523e-08
-5.25186e-08
5.47018e-06
4.76774e-06
-2.0554e-07
4.77865e-06
-2.05684e-07
4.70665e-06
-9.90858e-08
4.682e-06
-5.42622e-08
4.721e-06
-4.35908e-08
4.78763e-06
-6.14307e-08
4.84307e-06
-9.02037e-08
4.86387e-06
-1.07558e-07
4.84595e-06
-1.02459e-07
4.80016e-06
-8.16902e-08
4.74413e-06
-5.92277e-08
4.69394e-06
-4.51117e-08
4.65884e-06
-4.11453e-08
4.64004e-06
-4.40359e-08
4.63316e-06
-4.90517e-08
4.63219e-06
-5.25146e-08
4.63164e-06
-5.28011e-08
-4.95405e-08
4.62866e-06
4.22749e-06
4.02181e-06
3.92272e-06
3.86846e-06
3.82487e-06
3.76344e-06
3.67323e-06
3.56567e-06
3.46322e-06
3.38153e-06
3.3223e-06
3.27719e-06
3.23604e-06
3.192e-06
3.14295e-06
3.09044e-06
3.03764e-06
2.9881e-06
-4.86713e-07
4.86713e-07
-8.60726e-07
3.74013e-07
-1.11015e-06
2.49429e-07
-1.09738e-06
-1.2771e-08
-7.6622e-07
-3.31164e-07
-1.61434e-07
-6.04786e-07
6.0867e-07
-7.70104e-07
1.45689e-06
-8.48224e-07
2.30669e-06
-8.49795e-07
3.1057e-06
-7.99014e-07
3.82767e-06
-7.21972e-07
4.4617e-06
-6.3403e-07
5.00635e-06
-5.44649e-07
5.46504e-06
-4.58691e-07
5.84249e-06
-3.77443e-07
6.14244e-06
-2.99952e-07
6.36655e-06
-2.24111e-07
6.51294e-06
-1.46391e-07
6.57479e-06
-6.18544e-08
6.54104e-06
3.37547e-08
6.39494e-06
1.46099e-07
6.11818e-06
2.76761e-07
5.69703e-06
4.21153e-07
5.11435e-06
5.8268e-07
4.36171e-06
7.52634e-07
3.46324e-06
8.98474e-07
2.40193e-06
1.06131e-06
1.43948e-06
9.62448e-07
9.19769e-07
5.19709e-07
6.61727e-07
2.58042e-07
3.04128e-07
3.57599e-07
-3.47222e-07
6.51349e-07
-1.16769e-06
8.2047e-07
-1.83633e-06
6.68636e-07
-2.14297e-06
3.06637e-07
-1.97064e-06
-1.72328e-07
-1.10171e-06
-8.68926e-07
5.27273e-07
-1.62898e-06
2.27931e-06
-1.75204e-06
3.63184e-06
-1.35253e-06
4.31128e-06
-6.79435e-07
4.27422e-06
3.70572e-08
3.5659e-06
7.08318e-07
2.5197e-06
1.0462e-06
1.50192e-06
1.01778e-06
7.82942e-07
7.18982e-07
7.27857e-07
5.50853e-08
5.94413e-07
1.33443e-07
-5.57847e-07
1.15226e-06
-2.35023e-06
1.79239e-06
-3.85073e-06
1.5005e-06
-5.26264e-06
1.41191e-06
-6.4562e-06
1.19355e-06
-7.51489e-06
1.05869e-06
-8.41297e-06
8.98079e-07
-9.19255e-06
7.7958e-07
-9.85437e-06
6.61824e-07
-1.04203e-05
5.65902e-07
-1.08957e-05
4.75394e-07
-1.12916e-05
3.95898e-07
-1.16127e-05
3.21092e-07
-1.18647e-05
2.52064e-07
-1.20517e-05
1.86979e-07
-1.2178e-05
1.26257e-07
-1.2248e-05
7.00121e-08
-1.22667e-05
1.87539e-08
-1.22427e-05
-2.40015e-08
-1.21825e-05
-6.02415e-08
-1.20926e-05
-8.99034e-08
-1.19802e-05
-1.12384e-07
-1.18529e-05
-1.27326e-07
-1.17183e-05
-1.34539e-07
-1.15843e-05
-1.3399e-07
-1.14586e-05
-1.25724e-07
-1.13487e-05
-1.09906e-07
-1.12623e-05
-8.64092e-08
-1.12067e-05
-5.56185e-08
-1.11891e-05
-1.76171e-08
-1.12171e-05
2.8088e-08
-1.12938e-05
7.6699e-08
-1.14144e-05
1.20547e-07
-1.15626e-05
1.48222e-07
-1.17078e-05
1.45182e-07
-1.18022e-05
9.4386e-08
-1.1789e-05
-1.31527e-08
-1.16368e-05
-1.52214e-07
-1.13214e-05
-3.15448e-07
-1.08458e-05
-4.75596e-07
-1.02408e-05
-6.04931e-07
-9.55227e-06
-6.88577e-07
-8.82949e-06
-7.22775e-07
-8.1161e-06
-7.13388e-07
-7.44212e-06
-6.73986e-07
-6.82526e-06
-6.16858e-07
-6.27281e-06
-5.5245e-07
-5.78361e-06
-4.89203e-07
-5.35093e-06
-4.32677e-07
-4.96505e-06
-3.85876e-07
-4.6157e-06
-3.49357e-07
-4.29259e-06
-3.23107e-07
-3.98537e-06
-3.07223e-07
-3.68416e-06
-3.01208e-07
-3.37946e-06
-3.04699e-07
-3.06264e-06
-3.16821e-07
-2.7264e-06
-3.36237e-07
-2.36562e-06
-3.6078e-07
-1.97782e-06
-3.878e-07
-1.56325e-06
-4.14573e-07
-1.12655e-06
-4.36697e-07
-6.74467e-07
-4.52083e-07
-2.15519e-07
-4.58947e-07
2.41162e-07
-4.56681e-07
6.85981e-07
-4.44819e-07
1.11144e-06
-4.2546e-07
1.51228e-06
-4.00838e-07
1.88572e-06
-3.73442e-07
2.2313e-06
-3.4558e-07
2.55042e-06
-3.19123e-07
2.84575e-06
-2.95321e-07
3.12044e-06
-2.74693e-07
3.37755e-06
-2.57111e-07
3.61949e-06
-2.41941e-07
3.84752e-06
-2.2803e-07
4.06142e-06
-2.13895e-07
4.25989e-06
-1.98478e-07
4.4413e-06
-1.81404e-07
4.60328e-06
-1.61986e-07
4.74246e-06
-1.39175e-07
4.85613e-06
-1.13671e-07
4.94306e-06
-8.69335e-08
4.99879e-06
-5.57329e-08
5.01462e-06
-1.58234e-08
4.9866e-06
2.80146e-08
4.92216e-06
6.44486e-08
4.83425e-06
8.79056e-08
4.73648e-06
9.77718e-08
4.63998e-06
9.64977e-08
4.55103e-06
8.89469e-08
4.47098e-06
8.00516e-08
4.39737e-06
7.36063e-08
4.326e-06
7.13788e-08
4.25317e-06
7.28258e-08
4.17736e-06
7.58108e-08
4.09951e-06
7.78447e-08
4.02229e-06
7.72298e-08
3.94858e-06
7.37019e-08
3.88026e-06
6.83187e-08
3.81748e-06
6.27882e-08
3.75871e-06
5.87667e-08
3.70138e-06
5.73282e-08
3.64258e-06
5.88015e-08
3.5796e-06
6.29796e-08
3.51012e-06
6.94803e-08
3.43233e-06
7.77884e-08
3.34544e-06
8.68907e-08
3.25035e-06
9.50879e-08
3.15004e-06
1.00315e-07
3.04914e-06
1.00897e-07
2.95283e-06
9.63072e-08
2.86543e-06
8.74067e-08
2.78926e-06
7.61722e-08
2.72456e-06
6.46948e-08
2.6701e-06
5.44635e-08
2.62398e-06
4.61217e-08
2.58422e-06
3.97593e-08
2.54918e-06
3.50317e-08
2.51742e-06
3.1768e-08
2.48793e-06
2.94839e-08
2.45941e-06
2.8518e-08
2.43126e-06
2.81556e-08
2.40154e-06
2.97156e-08
2.37046e-06
3.10871e-08
2.3341e-06
3.63536e-08
2.29471e-06
3.93961e-08
2.24267e-06
5.20339e-08
2.18651e-06
5.61614e-08
2.0998e-06
8.67088e-08
2.01069e-06
8.91161e-08
1.84235e-06
1.68337e-07
1.58178e-07
1.68417e-06
-1.81478e-08
5.04861e-07
-1.04254e-07
4.60119e-07
1.35069e-08
1.31667e-07
4.86941e-07
-4.86206e-07
1.22961e-06
-1.07383e-06
2.08536e-06
-1.46054e-06
2.94536e-06
-1.6301e-06
3.73737e-06
-1.64023e-06
4.44587e-06
-1.5583e-06
5.06604e-06
-1.41918e-06
5.59973e-06
-1.25566e-06
6.05492e-06
-1.08923e-06
6.44151e-06
-9.31237e-07
6.76873e-06
-7.85909e-07
7.04418e-06
-6.52899e-07
7.27329e-06
-5.29052e-07
7.45913e-06
-4.09959e-07
7.60306e-06
-2.90322e-07
7.70648e-06
-1.6527e-07
7.77183e-06
-3.15963e-08
7.77741e-06
1.40519e-07
7.72028e-06
3.33893e-07
7.5862e-06
5.55236e-07
7.36741e-06
8.01461e-07
7.0419e-06
1.07815e-06
6.60591e-06
1.33446e-06
6.05985e-06
1.60737e-06
5.29087e-06
1.73143e-06
4.00964e-06
1.80094e-06
2.64462e-06
1.62306e-06
1.83165e-06
1.17057e-06
1.39733e-06
1.08567e-06
1.04634e-06
1.17145e-06
7.41782e-07
9.73199e-07
5.83684e-07
4.64735e-07
6.63963e-07
-2.52607e-07
1.27806e-06
-1.48302e-06
2.29468e-06
-2.6456e-06
3.31708e-06
-2.77444e-06
3.95676e-06
-1.99221e-06
4.07686e-06
-7.99533e-07
3.65716e-06
4.56751e-07
2.90915e-06
1.45633e-06
1.86132e-06
2.09404e-06
9.71698e-07
1.9074e-06
3.47373e-07
1.34331e-06
-1.53441e-06
1.93687e-06
-3.97934e-06
2.57837e-06
-5.43584e-06
2.60877e-06
-6.39009e-06
2.74664e-06
-7.32159e-06
2.432e-06
-8.13767e-06
2.22799e-06
-8.8569e-06
1.91279e-06
-9.48231e-06
1.6841e-06
-1.00266e-05
1.44239e-06
-1.05015e-05
1.25442e-06
-1.0914e-05
1.07439e-06
-1.12715e-05
9.2337e-07
-1.15766e-05
7.80543e-07
-1.1833e-05
6.52301e-07
-1.20414e-05
5.2944e-07
-1.22033e-05
4.13992e-07
-1.23197e-05
3.03336e-07
-1.23925e-05
1.99035e-07
-1.24239e-05
1.01486e-07
-1.24163e-05
1.11701e-08
-1.23718e-05
-6.85334e-08
-1.22944e-05
-1.37654e-07
-1.21897e-05
-1.94642e-07
-1.2064e-05
-2.37999e-07
-1.19247e-05
-2.66663e-07
-1.17793e-05
-2.79985e-07
-1.16357e-05
-2.77545e-07
-1.15022e-05
-2.59233e-07
-1.1387e-05
-2.25147e-07
-1.12975e-05
-1.75833e-07
-1.12408e-05
-1.12381e-07
-1.12228e-05
-3.55989e-08
-1.1243e-05
4.83381e-08
-1.12999e-05
1.33542e-07
-1.13854e-05
2.0603e-07
-1.14872e-05
2.50072e-07
-1.15837e-05
2.4165e-07
-1.16412e-05
1.51919e-07
-1.16184e-05
-3.59724e-08
-1.1447e-05
-3.23566e-07
-1.10959e-05
-6.66611e-07
-1.0571e-05
-1.00044e-06
-9.91076e-06
-1.26521e-06
-9.1695e-06
-1.42984e-06
-8.40611e-06
-1.48617e-06
-7.66861e-06
-1.45089e-06
-6.98731e-06
-1.35528e-06
-6.37693e-06
-1.22724e-06
-5.84097e-06
-1.08841e-06
-5.37399e-06
-9.56188e-07
-4.9652e-06
-8.4147e-07
-4.60183e-06
-7.49242e-07
-4.27204e-06
-6.79152e-07
-3.96537e-06
-6.29776e-07
-3.67147e-06
-6.01117e-07
-3.38034e-06
-5.92342e-07
-3.08303e-06
-6.02003e-07
-2.77145e-06
-6.28408e-07
-2.43855e-06
-6.69134e-07
-2.07933e-06
-7.20001e-07
-1.69153e-06
-7.75594e-07
-1.27584e-06
-8.30269e-07
-8.36865e-07
-8.75671e-07
-3.8199e-07
-9.06958e-07
7.91811e-08
-9.20118e-07
5.36544e-07
-9.14044e-07
9.81252e-07
-8.89527e-07
1.40577e-06
-8.4998e-07
1.805e-06
-8.00066e-07
2.17636e-06
-7.44806e-07
2.5196e-06
-6.88817e-07
2.83626e-06
-6.35786e-07
3.1291e-06
-5.88152e-07
3.40139e-06
-5.46989e-07
3.65637e-06
-5.12089e-07
3.8966e-06
-4.82169e-07
4.12379e-06
-4.55226e-07
4.339e-06
-4.29098e-07
4.54244e-06
-4.0192e-07
4.73332e-06
-3.72281e-07
4.91089e-06
-3.39555e-07
5.07595e-06
-3.04241e-07
5.22902e-06
-2.66736e-07
5.36712e-06
-2.25036e-07
5.48628e-06
-1.74892e-07
5.58404e-06
-1.13582e-07
5.6548e-06
-4.2748e-08
5.69188e-06
2.73717e-08
5.69359e-06
8.61966e-08
5.66438e-06
1.26982e-07
5.61153e-06
1.49344e-07
5.54346e-06
1.57013e-07
5.46904e-06
1.54474e-07
5.39701e-06
1.45639e-07
5.33457e-06
1.3382e-07
5.28551e-06
1.21886e-07
5.24927e-06
1.12052e-07
5.22149e-06
1.05622e-07
5.19581e-06
1.02909e-07
5.16622e-06
1.03287e-07
5.12912e-06
1.05419e-07
5.08419e-06
1.07725e-07
5.03388e-06
1.09075e-07
4.98193e-06
1.0928e-07
4.93174e-06
1.08986e-07
4.88551e-06
1.09216e-07
4.84411e-06
1.1088e-07
4.80755e-06
1.14344e-07
4.77532e-06
1.19124e-07
4.74653e-06
1.23876e-07
4.72014e-06
1.26701e-07
4.69505e-06
1.25987e-07
4.67031e-06
1.2105e-07
4.64556e-06
1.12153e-07
4.62091e-06
1.00829e-07
4.5966e-06
8.90012e-08
4.57274e-06
7.83243e-08
4.54915e-06
6.97096e-08
4.52537e-06
6.35399e-08
4.50095e-06
5.94557e-08
4.47539e-06
5.73227e-08
4.44862e-06
5.62603e-08
4.42032e-06
5.6809e-08
4.39088e-06
5.76044e-08
4.35964e-06
6.09498e-08
4.32743e-06
6.32962e-08
4.29237e-06
7.14145e-08
4.25608e-06
7.56872e-08
4.21366e-06
9.44576e-08
4.16864e-06
1.01178e-07
4.11023e-06
1.45122e-07
4.04416e-06
1.55187e-07
3.95107e-06
2.61426e-07
2.82032e-07
3.82721e-06
6.65735e-08
4.38287e-07
2.93286e-07
2.33407e-07
1.07192e-06
-6.46965e-07
2.08434e-06
-1.49862e-06
3.04074e-06
-2.03023e-06
3.82936e-06
-2.24916e-06
4.44344e-06
-2.24419e-06
4.90749e-06
-2.10428e-06
5.24793e-06
-1.89873e-06
5.5013e-06
-1.67255e-06
5.69942e-06
-1.45378e-06
5.86821e-06
-1.25801e-06
6.02381e-06
-1.08684e-06
6.17518e-06
-9.37278e-07
6.32742e-06
-8.05142e-07
6.48235e-06
-6.83975e-07
6.63906e-06
-5.66674e-07
6.7946e-06
-4.45866e-07
6.94212e-06
-3.12782e-07
7.06881e-06
-1.58293e-07
7.18339e-06
2.59377e-08
7.28476e-06
2.32526e-07
7.35424e-06
4.85759e-07
7.38135e-06
7.74348e-07
7.35393e-06
1.10557e-06
7.24555e-06
1.44284e-06
7.05356e-06
1.79937e-06
6.67908e-06
2.10591e-06
6.13772e-06
2.3423e-06
5.28835e-06
2.47243e-06
4.10937e-06
2.34955e-06
3.20992e-06
1.98512e-06
2.7522e-06
1.62917e-06
2.50908e-06
1.21632e-06
2.41901e-06
5.54806e-07
2.4649e-06
-2.98499e-07
2.80631e-06
-1.82443e-06
3.22657e-06
-3.06586e-06
3.39487e-06
-2.94274e-06
3.14069e-06
-1.73803e-06
2.58608e-06
-2.44932e-07
1.83354e-06
1.20929e-06
9.95483e-07
2.29438e-06
1.75699e-07
2.91382e-06
-9.68128e-07
3.05123e-06
-2.97099e-06
3.34617e-06
-4.8092e-06
3.77508e-06
-5.98346e-06
3.75263e-06
-6.90241e-06
3.52772e-06
-7.45188e-06
3.29611e-06
-7.95155e-06
2.93166e-06
-8.38407e-06
2.66051e-06
-8.81954e-06
2.34826e-06
-9.23931e-06
2.10386e-06
-9.65107e-06
1.85415e-06
-1.00422e-05
1.64559e-06
-1.04093e-05
1.44145e-06
-1.07445e-05
1.25857e-06
-1.10432e-05
1.07922e-06
-1.13003e-05
9.09419e-07
-1.15125e-05
7.41687e-07
-1.16777e-05
5.79105e-07
-1.17945e-05
4.20191e-07
-1.18634e-05
2.67943e-07
-1.18855e-05
1.23586e-07
-1.18639e-05
-1.04359e-08
-1.18026e-05
-1.29822e-07
-1.17066e-05
-2.33633e-07
-1.15823e-05
-3.18942e-07
-1.14366e-05
-3.83694e-07
-1.12768e-05
-4.26545e-07
-1.11101e-05
-4.46663e-07
-1.09441e-05
-4.43552e-07
-1.07862e-05
-4.1708e-07
-1.0644e-05
-3.67383e-07
-1.05249e-05
-2.94908e-07
-1.04368e-05
-2.00535e-07
-1.03859e-05
-8.64902e-08
-1.03819e-05
4.43812e-08
-1.04268e-05
1.78456e-07
-1.05292e-05
3.08356e-07
-1.06861e-05
4.0699e-07
-1.08736e-05
4.29157e-07
-1.10371e-05
3.15426e-07
-1.10895e-05
1.64431e-08
-1.0954e-05
-4.59063e-07
-1.05902e-05
-1.03045e-06
-1.0021e-05
-1.56965e-06
-9.29969e-06
-1.98649e-06
-8.48945e-06
-2.24008e-06
-7.65924e-06
-2.31638e-06
-6.86732e-06
-2.24281e-06
-6.14708e-06
-2.07552e-06
-5.51379e-06
-1.86053e-06
-4.97156e-06
-1.63064e-06
-4.51362e-06
-1.41413e-06
-4.12553e-06
-1.22956e-06
-3.78945e-06
-1.08533e-06
-3.49017e-06
-9.78432e-07
-3.21587e-06
-9.04072e-07
-2.95345e-06
-8.63542e-07
-2.69275e-06
-8.53041e-07
-2.42451e-06
-8.70239e-07
-2.1397e-06
-9.13225e-07
-1.8305e-06
-9.78327e-07
-1.49167e-06
-1.05883e-06
-1.12103e-06
-1.14624e-06
-7.19854e-07
-1.23144e-06
-2.93077e-07
-1.30245e-06
1.46433e-07
-1.34647e-06
5.89666e-07
-1.36335e-06
1.02522e-06
-1.3496e-06
1.44355e-06
-1.30786e-06
1.83785e-06
-1.24428e-06
2.20454e-06
-1.16675e-06
2.54297e-06
-1.08324e-06
2.85474e-06
-1.00059e-06
3.14284e-06
-9.23885e-07
3.41088e-06
-8.56194e-07
3.6623e-06
-7.98409e-07
3.89947e-06
-7.49263e-07
4.12297e-06
-7.05666e-07
4.3313e-06
-6.63557e-07
4.52175e-06
-6.19553e-07
4.69234e-06
-5.72509e-07
4.84339e-06
-5.23327e-07
4.97731e-06
-4.73472e-07
5.09768e-06
-4.24617e-07
5.20958e-06
-3.78636e-07
5.3201e-06
-3.35559e-07
5.43588e-06
-2.90665e-07
5.55647e-06
-2.34174e-07
5.66984e-06
-1.56119e-07
5.75374e-06
-5.65234e-08
5.78945e-06
5.04791e-08
5.77441e-06
1.42025e-07
5.72089e-06
2.02868e-07
5.64582e-06
2.32079e-07
5.56265e-06
2.37643e-07
5.48038e-06
2.27907e-07
5.40635e-06
2.07848e-07
5.34755e-06
1.80693e-07
5.30895e-06
1.50651e-07
5.29083e-06
1.23737e-07
5.28729e-06
1.06453e-07
5.28747e-06
1.03103e-07
5.27973e-06
1.13167e-07
5.25655e-06
1.30903e-07
5.2173e-06
1.48323e-07
5.16705e-06
1.59533e-07
5.11299e-06
1.63041e-07
5.06126e-06
1.60946e-07
5.01562e-06
1.56521e-07
4.97782e-06
1.52143e-07
4.94848e-06
1.48467e-07
4.92757e-06
1.44791e-07
4.91429e-06
1.39981e-07
4.90702e-06
1.33256e-07
4.90359e-06
1.24474e-07
4.90189e-06
1.13856e-07
4.90027e-06
1.02449e-07
4.89776e-06
9.15078e-08
4.89387e-06
8.22195e-08
4.88828e-06
7.52953e-08
4.88065e-06
7.11761e-08
4.87063e-06
6.94758e-08
4.8579e-06
7.00462e-08
4.84243e-06
7.17355e-08
4.82423e-06
7.50073e-08
4.80363e-06
7.82068e-08
4.78081e-06
8.37642e-08
4.75594e-06
8.81726e-08
4.72923e-06
9.81169e-08
4.70013e-06
1.04795e-07
4.66972e-06
1.24866e-07
4.63482e-06
1.36078e-07
4.6007e-06
1.79238e-07
4.55502e-06
2.00865e-07
4.51979e-06
2.96659e-07
3.47346e-07
4.45448e-06
6.03746e-09
4.3225e-07
9.46699e-07
-7.07255e-07
2.18992e-06
-1.89018e-06
3.17752e-06
-2.48622e-06
3.80216e-06
-2.65487e-06
4.12761e-06
-2.57462e-06
4.26619e-06
-2.38277e-06
4.30981e-06
-2.1479e-06
4.32211e-06
-1.91103e-06
4.34219e-06
-1.69263e-06
4.39109e-06
-1.50269e-06
4.47597e-06
-1.34289e-06
4.59629e-06
-1.20716e-06
4.74562e-06
-1.08661e-06
4.91447e-06
-9.73993e-07
5.09508e-06
-8.64587e-07
5.28239e-06
-7.5398e-07
5.4736e-06
-6.37075e-07
5.66859e-06
-5.07772e-07
5.86818e-06
-3.57888e-07
6.0694e-06
-1.7528e-07
6.25378e-06
4.81511e-08
6.42183e-06
3.17701e-07
6.56183e-06
6.34349e-07
6.67351e-06
9.93896e-07
6.73829e-06
1.37806e-06
6.76128e-06
1.77637e-06
6.69524e-06
2.17195e-06
6.52868e-06
2.50886e-06
6.21487e-06
2.78624e-06
5.63578e-06
2.92864e-06
4.84848e-06
2.77243e-06
4.1194e-06
2.35825e-06
3.59091e-06
1.74481e-06
3.20619e-06
9.39522e-07
2.99224e-06
-8.45485e-08
2.90669e-06
-1.73888e-06
2.5864e-06
-2.74558e-06
1.96041e-06
-2.31675e-06
1.06768e-06
-8.45292e-07
1.02591e-07
7.20152e-07
-7.99041e-07
2.11092e-06
-1.71342e-06
3.20877e-06
-2.77072e-06
3.97112e-06
-4.10211e-06
4.38261e-06
-5.40433e-06
4.64839e-06
-6.20428e-06
4.57502e-06
-6.70343e-06
4.25178e-06
-7.13753e-06
3.96182e-06
-7.46992e-06
3.6285e-06
-7.82697e-06
3.28871e-06
-8.16599e-06
2.99953e-06
-8.53089e-06
2.71317e-06
-8.89644e-06
2.46941e-06
-9.2682e-06
2.2259e-06
-9.62878e-06
2.00618e-06
-9.97376e-06
1.78643e-06
-1.02921e-05
1.57688e-06
-1.05779e-05
1.36506e-06
-1.08238e-05
1.1553e-06
-1.10248e-05
9.42668e-07
-1.11766e-05
7.30905e-07
-1.1277e-05
5.20658e-07
-1.13257e-05
3.16587e-07
-1.13241e-05
1.22047e-07
-1.12754e-05
-5.91888e-08
-1.11818e-05
-2.23387e-07
-1.10508e-05
-3.64666e-07
-1.08897e-05
-4.80003e-07
-1.07065e-05
-5.66972e-07
-1.05089e-05
-6.24062e-07
-1.03051e-05
-6.50485e-07
-1.01027e-05
-6.4599e-07
-9.90917e-06
-6.10588e-07
-9.73219e-06
-5.44367e-07
-9.57983e-06
-4.47268e-07
-9.46151e-06
-3.18855e-07
-9.38952e-06
-1.58473e-07
-9.37881e-06
3.36681e-08
-9.44937e-06
2.49012e-07
-9.61228e-06
4.71269e-07
-9.86362e-06
6.58333e-07
-1.0165e-05
7.30499e-07
-1.0429e-05
5.79424e-07
-1.05316e-05
1.19105e-07
-1.03913e-05
-5.99437e-07
-1.00047e-05
-1.417e-06
-9.4139e-06
-2.16045e-06
-8.67428e-06
-2.72611e-06
-7.84765e-06
-3.0667e-06
-7.00685e-06
-3.15717e-06
-6.20968e-06
-3.03999e-06
-5.48418e-06
-2.80102e-06
-4.84031e-06
-2.50439e-06
-4.28162e-06
-2.18933e-06
-3.80569e-06
-1.89006e-06
-3.40307e-06
-1.63218e-06
-3.055e-06
-1.4334e-06
-2.74509e-06
-1.28834e-06
-2.4662e-06
-1.18296e-06
-2.20821e-06
-1.12154e-06
-1.95905e-06
-1.1022e-06
-1.70641e-06
-1.12288e-06
-1.43788e-06
-1.18175e-06
-1.14258e-06
-1.27363e-06
-8.11957e-07
-1.38946e-06
-4.41336e-07
-1.51686e-06