/*--------------------------------*- C++ -*----------------------------------*\
| =========                 |                                                 |
| \\      /  F ield         | OpenFOAM: The Open Source CFD Toolbox           |
|  \\    /   O peration     | Version:  2112                                  |
|   \\  /    A nd           | Website:  www.openfoam.com                      |
|    \\/     M anipulation  |                                                 |
\*---------------------------------------------------------------------------*/
FoamFile
{
    version     2.0;
    format      ascii;
    arch        "LSB;label=32;scalar=64";
    class       volSymmTensorField;
    location    "0.011";
    object      UPrime2Mean;
}
// * * * * * * * * * * * * * * * * * * * * * * * * * * * * * * * * * * * * * //

dimensions      [0 2 -2 0 0 0 0];

internalField   nonuniform List<symmTensor> 
12225
(
(0.116726 -0.000388632 0 0.00179326 0 0)
(0.0268834 -0.000966163 0 0.00104063 0 0)
(0.041351 -0.00223121 0 0.000855928 0 0)
(0.0481324 -0.00283028 0 0.000770392 0 0)
(0.0738741 -0.00370606 0 0.000721471 0 0)
(0.12557 -0.00511999 0 0.000707763 0 0)
(0.202919 -0.00718346 0 0.000757331 0 0)
(0.304761 -0.00915562 0 0.000683838 0 0)
(0.43672 -0.0138683 0 0.000914866 0 0)
(0.600932 -0.0133952 0 0.000672327 0 0)
(0.820598 -0.0273885 0 0.00138112 0 0)
(1.07688 -0.0139821 0 0.0007505 0 0)
(1.46155 -0.0633637 0 0.00364847 0 0)
(1.86416 0.00493696 0 0.00235188 0 0)
(2.63632 -0.187254 0 0.0188256 0 0)
(3.43751 0.113462 0 0.0192995 0 0)
(5.47085 -0.805186 0 0.179136 0 0)
(8.62589 0.340426 0 0.0810483 0 0)
(0.119133 0.00407229 0 0.00273792 0 0)
(0.0179682 0.00136532 0 0.0017597 0 0)
(0.0185215 0.00054388 0 0.00143072 0 0)
(0.0143183 0.000862391 0 0.00136279 0 0)
(0.0129783 0.000670286 0 0.00148087 0 0)
(0.0143061 -0.000508481 0 0.00169836 0 0)
(0.0186226 -0.00218174 0 0.00190645 0 0)
(0.0283013 -0.00493233 0 0.00241967 0 0)
(0.0428571 -0.00727436 0 0.00253161 0 0)
(0.0708755 -0.0130317 0 0.0038011 0 0)
(0.104952 -0.0159004 0 0.00355622 0 0)
(0.177275 -0.0310622 0 0.00684281 0 0)
(0.250145 -0.0327484 0 0.00580417 0 0)
(0.439852 -0.0783244 0 0.016071 0 0)
(0.597197 -0.0742752 0 0.0130228 0 0)
(1.15725 -0.241701 0 0.0566891 0 0)
(1.56852 -0.30822 0 0.0654448 0 0)
(3.19032 -1.20158 0 0.511192 0 0)
(0.111295 0.00153217 0 0.00327573 0 0)
(0.015616 4.93719e-05 0 0.00124177 0 0)
(0.0176466 -0.000888917 0 0.000870729 0 0)
(0.0128117 -0.000921593 0 0.000858815 0 0)
(0.0115644 -0.00120335 0 0.00100413 0 0)
(0.0130856 -0.00198351 0 0.00126426 0 0)
(0.0169898 -0.003508 0 0.00174576 0 0)
(0.0230375 -0.00546414 0 0.00212432 0 0)
(0.0326934 -0.00894807 0 0.00328379 0 0)
(0.0470694 -0.0121994 0 0.00379674 0 0)
(0.072157 -0.0205469 0 0.00659645 0 0)
(0.108286 -0.0263082 0 0.00719099 0 0)
(0.171881 -0.0495327 0 0.0151891 0 0)
(0.261425 -0.0611133 0 0.0158375 0 0)
(0.427352 -0.136303 0 0.0453841 0 0)
(0.664617 -0.190581 0 0.0568439 0 0)
(1.0749 -0.472163 0 0.22274 0 0)
(1.58678 -0.932017 0 0.600903 0 0)
(0.105402 0.00127069 0 0.00380489 0 0)
(0.0194399 -0.00076013 0 0.00224165 0 0)
(0.0233039 -0.0018395 0 0.00179055 0 0)
(0.0171582 -0.00149607 0 0.00182126 0 0)
(0.0145549 -0.00169568 0 0.00213744 0 0)
(0.0155218 -0.00299377 0 0.00270498 0 0)
(0.0196137 -0.0051341 0 0.00343039 0 0)
(0.0265444 -0.00817252 0 0.00456046 0 0)
(0.0362809 -0.0118669 0 0.00577979 0 0)
(0.051091 -0.0177112 0 0.00808389 0 0)
(0.0733421 -0.0252127 0 0.0105481 0 0)
(0.109199 -0.0388966 0 0.0158086 0 0)
(0.163401 -0.0573937 0 0.022223 0 0)
(0.249908 -0.0934288 0 0.0369779 0 0)
(0.382065 -0.15089 0 0.0618933 0 0)
(0.579472 -0.262865 0 0.123207 0 0)
(0.857932 -0.485214 0 0.286797 0 0)
(1.14587 -0.819825 0 0.633382 0 0)
(0.104495 0.000933026 0 0.00435058 0 0)
(0.0134741 -0.000716604 0 0.00237318 0 0)
(0.0169107 -0.00192452 0 0.00190193 0 0)
(0.0123424 -0.00173404 0 0.00195163 0 0)
(0.0114692 -0.00203459 0 0.00226586 0 0)
(0.0134981 -0.0034086 0 0.00285972 0 0)
(0.0179365 -0.00581802 0 0.00384908 0 0)
(0.0249609 -0.00908841 0 0.00515016 0 0)
(0.0354192 -0.0138788 0 0.00725293 0 0)
(0.051094 -0.0204074 0 0.00994095 0 0)
(0.0749534 -0.0309145 0 0.0145624 0 0)
(0.110576 -0.0459804 0 0.0209821 0 0)
(0.16377 -0.0713706 0 0.0329405 0 0)
(0.241219 -0.110469 0 0.0524234 0 0)
(0.354369 -0.178169 0 0.091917 0 0)
(0.505285 -0.293763 0 0.174801 0 0)
(0.694503 -0.478988 0 0.342993 0 0)
(0.852479 -0.755783 0 0.739561 0 0)
(0.113473 0.00401908 0 0.00363015 0 0)
(0.0159446 0.000512227 0 0.00196055 0 0)
(0.0176514 -0.00201475 0 0.00175445 0 0)
(0.0127202 -0.00220526 0 0.00214286 0 0)
(0.0120011 -0.00261538 0 0.00286856 0 0)
(0.0142769 -0.00427692 0 0.00397608 0 0)
(0.0190271 -0.00718331 0 0.00553289 0 0)
(0.02626 -0.0112495 0 0.00766925 0 0)
(0.0366711 -0.0168616 0 0.0106191 0 0)
(0.051891 -0.0248969 0 0.0148574 0 0)
(0.0746159 -0.0369312 0 0.021224 0 0)
(0.107587 -0.0550032 0 0.0310884 0 0)
(0.155431 -0.0831309 0 0.0474988 0 0)
(0.221491 -0.126384 0 0.0753765 0 0)
(0.312166 -0.195973 0 0.127162 0 0)
(0.421672 -0.302192 0 0.223966 0 0)
(0.542513 -0.459904 0 0.411146 0 0)
(0.628869 -0.656221 0 0.7574 0 0)
(0.11817 0.00355543 0 0.00587669 0 0)
(0.0118871 -0.000365722 0 0.00464589 0 0)
(0.0120204 -0.00192258 0 0.0043875 0 0)
(0.00748714 -0.00157726 0 0.00447414 0 0)
(0.00678621 -0.00165483 0 0.00489702 0 0)
(0.0081342 -0.00293705 0 0.00588573 0 0)
(0.0110412 -0.00552559 0 0.00763004 0 0)
(0.0159047 -0.00945325 0 0.0102721 0 0)
(0.0235732 -0.0151396 0 0.0141348 0 0)
(0.0354754 -0.0234428 0 0.0198269 0 0)
(0.0537376 -0.0359184 0 0.0283589 0 0)
(0.0802356 -0.054736 0 0.0417088 0 0)
(0.117938 -0.0831822 0 0.0629806 0 0)
(0.167979 -0.126132 0 0.0989221 0 0)
(0.232807 -0.190052 0 0.159856 0 0)
(0.304601 -0.281663 0 0.268475 0 0)
(0.375891 -0.402543 0 0.451298 0 0)
(0.417353 -0.534134 0 0.752688 0 0)
(0.106917 0.0036755 0 0.00551613 0 0)
(0.0154158 -0.00136801 0 0.00342472 0 0)
(0.0215849 -0.00410317 0 0.00312236 0 0)
(0.0182923 -0.00391754 0 0.00378177 0 0)
(0.0165202 -0.00412596 0 0.00491775 0 0)
(0.0165744 -0.00600539 0 0.00665084 0 0)
(0.019293 -0.00961427 0 0.00919711 0 0)
(0.0251388 -0.0148113 0 0.0128047 0 0)
(0.0342328 -0.0218526 0 0.0179266 0 0)
(0.0469367 -0.0315187 0 0.0253518 0 0)
(0.0644395 -0.0452699 0 0.0363708 0 0)
(0.0877919 -0.0650664 0 0.0532729 0 0)
(0.118773 -0.0937722 0 0.0796179 0 0)
(0.157134 -0.134854 0 0.122193 0 0)
(0.20303 -0.192388 0 0.190724 0 0)
(0.248926 -0.268146 0 0.303282 0 0)
(0.288982 -0.358955 0 0.477175 0 0)
(0.305466 -0.446846 0 0.740071 0 0)
(0.111589 0.00318307 0 0.00543426 0 0)
(0.0192062 -0.000799295 0 0.0046054 0 0)
(0.0258172 -0.00317462 0 0.00413294 0 0)
(0.022416 -0.00295437 0 0.00463688 0 0)
(0.0207396 -0.0032564 0 0.00579462 0 0)
(0.0208249 -0.00525991 0 0.00775153 0 0)
(0.0229662 -0.00893842 0 0.0107661 0 0)
(0.0273087 -0.0141335 0 0.0151526 0 0)
(0.0339209 -0.0211168 0 0.0214163 0 0)
(0.0432331 -0.0307086 0 0.0304982 0 0)
(0.0562387 -0.0442658 0 0.0438522 0 0)
(0.0735623 -0.0635068 0 0.0640662 0 0)
(0.0960184 -0.09055 0 0.0947952 0 0)
(0.122479 -0.127524 0 0.142545 0 0)
(0.151982 -0.176174 0 0.21546 0 0)
(0.178137 -0.235311 0 0.327264 0 0)
(0.197017 -0.29991 0 0.488261 0 0)
(0.198841 -0.35473 0 0.71345 0 0)
(0.107123 0.00237949 0 0.0061129 0 0)
(0.0111796 -0.00145185 0 0.00444076 0 0)
(0.0152786 -0.00357024 0 0.00420619 0 0)
(0.0104266 -0.00276072 0 0.00523792 0 0)
(0.00840394 -0.0024896 0 0.0069984 0 0)
(0.00899638 -0.00420748 0 0.0095295 0 0)
(0.0118863 -0.00780268 0 0.0132031 0 0)
(0.0166029 -0.0129552 0 0.0185091 0 0)
(0.0227861 -0.0198604 0 0.026084 0 0)
(0.0306932 -0.0292051 0 0.036985 0 0)
(0.0411419 -0.0421073 0 0.0527636 0 0)
(0.0543915 -0.0598204 0 0.0760412 0 0)
(0.0705592 -0.0837252 0 0.110291 0 0)
(0.0880503 -0.114623 0 0.161276 0 0)
(0.105579 -0.152655 0 0.23535 0 0)
(0.118493 -0.194838 0 0.342418 0 0)
(0.125212 -0.236238 0 0.487615 0 0)
(0.120941 -0.264284 0 0.679515 0 0)
(0.118263 0.00166293 0 0.00603669 0 0)
(0.0181269 -0.00228226 0 0.00452131 0 0)
(0.0194433 -0.00501776 0 0.00424929 0 0)
(0.0146804 -0.00430962 0 0.00552529 0 0)
(0.0141231 -0.00414892 0 0.00773305 0 0)
(0.0158292 -0.00609686 0 0.0109298 0 0)
(0.0188467 -0.00996642 0 0.0154328 0 0)
(0.0228811 -0.0153315 0 0.0217691 0 0)
(0.0279379 -0.0222594 0 0.0306851 0 0)
(0.0343321 -0.0313107 0 0.0433444 0 0)
(0.0425467 -0.0434094 0 0.0613292 0 0)
(0.0524145 -0.0593887 0 0.0871417 0 0)
(0.0635855 -0.0799858 0 0.12388 0 0)
(0.0744988 -0.105029 0 0.176357 0 0)
(0.0841594 -0.133694 0 0.249129 0 0)
(0.0894429 -0.162355 0 0.349061 0 0)
(0.0903101 -0.186823 0 0.477762 0 0)
(0.0847306 -0.197283 0 0.640324 0 0)
(0.124129 0.00829412 0 0.0063657 0 0)
(0.0146831 0.000962397 0 0.00634055 0 0)
(0.0143744 -0.00284026 0 0.00655088 0 0)
(0.0109313 -0.00225006 0 0.00793626 0 0)
(0.0107689 -0.00184493 0 0.0104023 0 0)
(0.0121012 -0.00352393 0 0.0140214 0 0)
(0.0146785 -0.00715539 0 0.0190628 0 0)
(0.0182686 -0.0122427 0 0.0261028 0 0)
(0.0224145 -0.0187623 0 0.0359795 0 0)
(0.0270031 -0.0270749 0 0.0498931 0 0)
(0.0323531 -0.0378182 0 0.0693495 0 0)
(0.0384389 -0.0513971 0 0.0966029 0 0)
(0.0450515 -0.0680291 0 0.134232 0 0)
(0.0509693 -0.0868671 0 0.186079 0 0)
(0.0554459 -0.106692 0 0.255235 0 0)
(0.0566471 -0.12382 0 0.346393 0 0)
(0.0549601 -0.135158 0 0.459251 0 0)
(0.0504453 -0.132935 0 0.597034 0 0)
(0.115531 0.00566471 0 0.00736465 0 0)
(0.015505 -0.00265039 0 0.00785084 0 0)
(0.0163486 -0.00579818 0 0.00750616 0 0)
(0.0109051 -0.00455731 0 0.00896375 0 0)
(0.00896062 -0.00387904 0 0.0119209 0 0)
(0.00899331 -0.00553455 0 0.0161219 0 0)
(0.0104362 -0.00925074 0 0.0219204 0 0)
(0.0128556 -0.0142232 0 0.0299693 0 0)
(0.0157301 -0.0201262 0 0.0410585 0 0)
(0.0189454 -0.0272123 0 0.0563107 0 0)
(0.0226483 -0.0360047 0 0.0770884 0 0)
(0.0266252 -0.0467267 0 0.105323 0 0)
(0.0304941 -0.0592925 0 0.14303 0 0)
(0.0333883 -0.0726771 0 0.193207 0 0)
(0.0349366 -0.0854805 0 0.257797 0 0)
(0.0342523 -0.0944641 0 0.340126 0 0)
(0.0320456 -0.0971543 0 0.438706 0 0)
(0.0291038 -0.0877079 0 0.556006 0 0)
(0.124617 0.0043597 0 0.0071465 0 0)
(0.0206989 -0.00138947 0 0.0069354 0 0)
(0.0216535 -0.00459465 0 0.00692079 0 0)
(0.0173838 -0.00332941 0 0.00863741 0 0)
(0.0162988 -0.00248881 0 0.0117185 0 0)
(0.0159716 -0.00388833 0 0.0162266 0 0)
(0.0156302 -0.00700408 0 0.0224949 0 0)
(0.0153879 -0.0108645 0 0.0310775 0 0)
(0.0153253 -0.0150819 0 0.0427158 0 0)
(0.0156015 -0.0197893 0 0.0584667 0 0)
(0.0164033 -0.0253314 0 0.0795803 0 0)
(0.017533 -0.0316792 0 0.107719 0 0)
(0.018618 -0.0385237 0 0.144436 0 0)
(0.0190072 -0.0446445 0 0.19183 0 0)
(0.0185436 -0.0488358 0 0.250717 0 0)
(0.0171633 -0.0482675 0 0.322981 0 0)
(0.0156621 -0.0416127 0 0.406353 0 0)
(0.0156405 -0.0242836 0 0.502403 0 0)
(0.114353 0.0111154 0 0.0120111 0 0)
(0.0149437 -0.00358338 0 0.0114119 0 0)
(0.01608 -0.00693856 0 0.0104935 0 0)
(0.0114728 -0.00443677 0 0.0126521 0 0)
(0.0102412 -0.00272237 0 0.0164952 0 0)
(0.0103355 -0.00356383 0 0.0215187 0 0)
(0.0109285 -0.00631404 0 0.0280626 0 0)
(0.0117507 -0.00987199 0 0.0369258 0 0)
(0.0123978 -0.0136638 0 0.0490182 0 0)
(0.0127089 -0.0175773 0 0.0652871 0 0)
(0.0127887 -0.0216648 0 0.0866504 0 0)
(0.0126184 -0.0256548 0 0.114258 0 0)
(0.0121798 -0.029016 0 0.148966 0 0)
(0.0113327 -0.0304855 0 0.192013 0 0)
(0.0103216 -0.0289909 0 0.243361 0 0)
(0.0094931 -0.0223487 0 0.304144 0 0)
(0.00964412 -0.00997577 0 0.371855 0 0)
(0.0123752 0.011295 0 0.448103 0 0)
(0.101198 0.0054915 0 0.0111954 0 0)
(0.0196068 -0.00253937 0 0.00874903 0 0)
(0.0248804 -0.00590859 0 0.00784132 0 0)
(0.0184638 -0.00444417 0 0.0103542 0 0)
(0.0151519 -0.00322404 0 0.0143851 0 0)
(0.0140055 -0.00394885 0 0.019725 0 0)
(0.0141047 -0.00597119 0 0.0268089 0 0)
(0.0146683 -0.00810315 0 0.0361989 0 0)
(0.0148953 -0.00971478 0 0.0484271 0 0)
(0.0144636 -0.0106407 0 0.0640905 0 0)
(0.0135993 -0.010865 0 0.0837643 0 0)
(0.012637 -0.0100708 0 0.108226 0 0)
(0.0118978 -0.00781832 0 0.137947 0 0)
(0.0116581 -0.00312116 0 0.173688 0 0)
(0.012223 0.00464465 0 0.215048 0 0)
(0.0142431 0.0170083 0 0.262599 0 0)
(0.0181085 0.0339004 0 0.313993 0 0)
(0.0255314 0.0575932 0 0.370553 0 0)
(0.114562 0.00385271 0 0.01027 0 0)
(0.0169187 -0.00361555 0 0.00962331 0 0)
(0.0186095 -0.00643443 0 0.0108169 0 0)
(0.0128843 -0.00550694 0 0.0138307 0 0)
(0.0104478 -0.00404139 0 0.0180692 0 0)
(0.00910728 -0.00351859 0 0.0232986 0 0)
(0.00803816 -0.00357126 0 0.0296972 0 0)
(0.00715883 -0.00343376 0 0.0378485 0 0)
(0.00636946 -0.00273286 0 0.048487 0 0)
(0.00570769 -0.00131078 0 0.0622705 0 0)
(0.00536024 0.000993655 0 0.0796086 0 0)
(0.00549835 0.0046117 0 0.10086 0 0)
(0.00625768 0.0099838 0 0.126045 0 0)
(0.00793375 0.0178657 0 0.155357 0 0)
(0.0108065 0.0285598 0 0.188103 0 0)
(0.0156196 0.0429757 0 0.224441 0 0)
(0.0225251 0.060734 0 0.262392 0 0)
(0.0330791 0.0832326 0 0.302921 0 0)
(0.125221 0.00500341 0 0.00956313 0 0)
(0.0193975 -0.00139654 0 0.0109719 0 0)
(0.015008 -0.00344173 0 0.0116586 0 0)
(0.010568 -0.00104489 0 0.0134725 0 0)
(0.0100888 0.00164975 0 0.0166326 0 0)
(0.0102371 0.00294081 0 0.0212991 0 0)
(0.0102845 0.00374844 0 0.027529 0 0)
(0.010327 0.00536105 0 0.0354772 0 0)
(0.0104287 0.00816415 0 0.0453703 0 0)
(0.0108093 0.0120106 0 0.0573965 0 0)
(0.0118171 0.0168116 0 0.0716472 0 0)
(0.0137563 0.0228602 0 0.088277 0 0)
(0.0168213 0.0305158 0 0.107209 0 0)
(0.021377 0.0403376 0 0.128473 0 0)
(0.0276919 0.0524592 0 0.151411 0 0)
(0.0364017 0.0673737 0 0.176093 0 0)
(0.0475119 0.0845468 0 0.20103 0 0)
(0.0621055 0.104802 0 0.226968 0 0)
(0.120681 0.00667559 0 0.0128582 0 0)
(0.0161244 -0.00174474 0 0.0151746 0 0)
(0.0159143 -0.00423517 0 0.0149002 0 0)
(0.0114153 -0.00170089 0 0.0155494 0 0)
(0.0105359 0.00143534 0 0.0177018 0 0)
(0.0101239 0.00335454 0 0.0214184 0 0)
(0.0099859 0.00480971 0 0.0265774 0 0)
(0.0106195 0.00707588 0 0.0329515 0 0)
(0.012202 0.0106699 0 0.040297 0 0)
(0.0148298 0.015492 0 0.0486431 0 0)
(0.018545 0.0213459 0 0.0582143 0 0)
(0.0233889 0.0283049 0 0.0692369 0 0)
(0.0294331 0.0365712 0 0.0816377 0 0)
(0.0370382 0.0464909 0 0.0953271 0 0)
(0.0463795 0.0581128 0 0.10981 0 0)
(0.0580535 0.0716628 0 0.125062 0 0)
(0.0718958 0.0866827 0 0.140157 0 0)
(0.0888176 0.103514 0 0.155524 0 0)
(0.115159 0.00662738 0 0.0133506 0 0)
(0.0148637 0.000684889 0 0.0131128 0 0)
(0.0153549 0.000257826 0 0.0104729 0 0)
(0.0136709 0.00190459 0 0.010222 0 0)
(0.0132023 0.00450165 0 0.0116797 0 0)
(0.0122668 0.00694662 0 0.0142138 0 0)
(0.0120542 0.00923912 0 0.0175127 0 0)
(0.0133403 0.0119498 0 0.0215277 0 0)
(0.0160914 0.0155364 0 0.0263502 0 0)
(0.0201766 0.0202356 0 0.0320467 0 0)
(0.025527 0.0261166 0 0.0385732 0 0)
(0.0321882 0.0331875 0 0.0458079 0 0)
(0.0402566 0.0413325 0 0.0535058 0 0)
(0.0500531 0.0505388 0 0.0615165 0 0)
(0.0616487 0.0606301 0 0.0695871 0 0)
(0.0754379 0.0717699 0 0.0778983 0 0)
(0.0911237 0.0836214 0 0.086103 0 0)
(0.109397 0.0965564 0 0.0945838 0 0)
(0.104214 0.00340483 0 0.0108508 0 0)
(0.0122148 0.000971458 0 0.010316 0 0)
(0.0113701 -0.000194182 0 0.0082205 0 0)
(0.00850847 0.000863208 0 0.00820282 0 0)
(0.00833561 0.00293273 0 0.00930765 0 0)
(0.00850703 0.00491789 0 0.0110816 0 0)
(0.00934549 0.00677204 0 0.0133942 0 0)
(0.0111853 0.00900067 0 0.0162226 0 0)
(0.013925 0.0119423 0 0.0195878 0 0)
(0.017528 0.0156852 0 0.0234765 0 0)
(0.0221394 0.0202523 0 0.0278303 0 0)
(0.0280122 0.0257065 0 0.0326083 0 0)
(0.0354266 0.032076 0 0.0377256 0 0)
(0.0446721 0.039371 0 0.0431297 0 0)
(0.0557796 0.0474308 0 0.0485975 0 0)
(0.0688896 0.0561854 0 0.0541043 0 0)
(0.0837922 0.0653489 0 0.0593019 0 0)
(0.100725 0.0750051 0 0.0643344 0 0)
(0.154223 0.00291235 0 0.00818543 0 0)
(0.0324577 0.00136699 0 0.0069769 0 0)
(0.0226554 0.001322 0 0.00622684 0 0)
(0.0200619 0.00325657 0 0.00629036 0 0)
(0.0212924 0.00580529 0 0.00687285 0 0)
(0.0227327 0.00799252 0 0.00783982 0 0)
(0.0246262 0.00987435 0 0.00916347 0 0)
(0.0276646 0.012081 0 0.0108698 0 0)
(0.032138 0.0150299 0 0.0129675 0 0)
(0.0381366 0.0187956 0 0.0154212 0 0)
(0.0456307 0.0232787 0 0.0181684 0 0)
(0.0545389 0.0283809 0 0.0211638 0 0)
(0.064833 0.0340291 0 0.0243549 0 0)
(0.0766601 0.0402386 0 0.0277135 0 0)
(0.0900858 0.0469601 0 0.0311124 0 0)
(0.105347 0.0542255 0 0.0345522 0 0)
(0.122328 0.0618522 0 0.0378038 0 0)
(0.141228 0.0698702 0 0.0409204 0 0)
(0.113358 0.00885042 0 0.0106585 0 0)
(0.0132539 -0.000194881 0 0.0117785 0 0)
(0.0113954 -0.000771446 0 0.0106093 0 0)
(0.0108868 0.00185944 0 0.00953424 0 0)
(0.0130246 0.00434764 0 0.00902661 0 0)
(0.0145682 0.00583782 0 0.00926178 0 0)
(0.0159213 0.00666124 0 0.0100997 0 0)
(0.017713 0.00769276 0 0.0112836 0 0)
(0.0204188 0.0094736 0 0.0126368 0 0)
(0.0244751 0.0120934 0 0.0141057 0 0)
(0.0301226 0.0154159 0 0.0156909 0 0)
(0.0374487 0.0192969 0 0.017409 0 0)
(0.0464834 0.0236547 0 0.0192478 0 0)
(0.0573534 0.0285034 0 0.0211599 0 0)
(0.0700762 0.0337813 0 0.0230229 0 0)
(0.0847317 0.039438 0 0.0248655 0 0)
(0.101126 0.0452729 0 0.0265531 0 0)
(0.119281 0.0512537 0 0.0281151 0 0)
(0.109627 0.00444119 0 0.00987593 0 0)
(0.0125591 -0.00137279 0 0.0082609 0 0)
(0.0107823 -0.000947784 0 0.00617612 0 0)
(0.00991132 0.000968438 0 0.00529544 0 0)
(0.0120382 0.00250498 0 0.00517293 0 0)
(0.0137658 0.00358396 0 0.00548083 0 0)
(0.0157275 0.00458202 0 0.00607109 0 0)
(0.0186009 0.00598957 0 0.00682567 0 0)
(0.0226087 0.00795403 0 0.00759064 0 0)
(0.0279576 0.0103432 0 0.00830486 0 0)
(0.0348267 0.0130213 0 0.00902263 0 0)
(0.043289 0.0159492 0 0.00982682 0 0)
(0.0533789 0.0191427 0 0.0107478 0 0)
(0.0651282 0.02264 0 0.0117782 0 0)
(0.0785258 0.0264499 0 0.012858 0 0)
(0.093584 0.030564 0 0.0139832 0 0)
(0.110207 0.0348952 0 0.015066 0 0)
(0.128328 0.0394385 0 0.0161039 0 0)
(0.111819 0.0034226 0 0.00721679 0 0)
(0.0120219 -0.000201254 0 0.00569133 0 0)
(0.0107026 -0.00106475 0 0.00427207 0 0)
(0.01112 0.000190139 0 0.0039043 0 0)
(0.0137525 0.00179034 0 0.00386027 0 0)
(0.0155518 0.00297833 0 0.00398785 0 0)
(0.0179705 0.00386275 0 0.00422457 0 0)
(0.022042 0.00483707 0 0.00454129 0 0)
(0.0278898 0.00611526 0 0.00491831 0 0)
(0.0352932 0.00772425 0 0.00534826 0 0)
(0.043971 0.00962753 0 0.00583173 0 0)
(0.0537958 0.0118225 0 0.00636056 0 0)
(0.0648282 0.0143202 0 0.00691893 0 0)
(0.0772856 0.0171061 0 0.007495 0 0)
(0.0912982 0.0201083 0 0.00804934 0 0)
(0.10701 0.0232606 0 0.00859504 0 0)
(0.124362 0.0264473 0 0.00909502 0 0)
(0.143334 0.0296655 0 0.00954698 0 0)
(0.115794 -0.000358398 0 0.00675404 0 0)
(0.0167042 -0.000931934 0 0.00405173 0 0)
(0.015223 -0.00151421 0 0.00272661 0 0)
(0.0147462 -0.000932238 0 0.00227077 0 0)
(0.0161254 0.000142691 0 0.00204956 0 0)
(0.0168174 0.00116358 0 0.00200954 0 0)
(0.0187647 0.00201185 0 0.00209815 0 0)
(0.0230094 0.00288794 0 0.00227253 0 0)
(0.0290353 0.00394112 0 0.00250714 0 0)
(0.0359296 0.00517069 0 0.00276949 0 0)
(0.0432487 0.00653051 0 0.00302086 0 0)
(0.051241 0.00802337 0 0.00324669 0 0)
(0.0605197 0.00967799 0 0.00345637 0 0)
(0.0716605 0.0115032 0 0.00366129 0 0)
(0.0848373 0.0134629 0 0.00385791 0 0)
(0.100048 0.0155215 0 0.00406432 0 0)
(0.117001 0.0176062 0 0.00425289 0 0)
(0.135471 0.0197339 0 0.00442519 0 0)
(0.126245 -0.000123445 0 0.00673512 0 0)
(0.0214418 -0.000805036 0 0.00462822 0 0)
(0.0153595 -0.000700916 0 0.00352801 0 0)
(0.0151801 -0.000257721 0 0.00303524 0 0)
(0.0192548 0.000240083 0 0.00277978 0 0)
(0.0224525 0.000472987 0 0.00264733 0 0)
(0.0252547 0.000553092 0 0.00260446 0 0)
(0.0286314 0.00079932 0 0.00259439 0 0)
(0.033116 0.00137146 0 0.00258642 0 0)
(0.0391115 0.00223084 0 0.00260826 0 0)
(0.046838 0.00324605 0 0.00266409 0 0)
(0.0563006 0.0042791 0 0.00269917 0 0)
(0.0674143 0.00525205 0 0.0026788 0 0)
(0.0800978 0.00616923 0 0.00262944 0 0)
(0.094184 0.00708229 0 0.00258712 0 0)
(0.10955 0.00803954 0 0.00259197 0 0)
(0.126051 0.00906262 0 0.00262514 0 0)
(0.143544 0.0101741 0 0.00265375 0 0)
(0.106118 0.000443597 0 0.00478238 0 0)
(0.013407 -0.00130885 0 0.00296701 0 0)
(0.0138803 -0.00128337 0 0.00209922 0 0)
(0.014114 -0.000548237 0 0.00181159 0 0)
(0.0164575 6.62111e-05 0 0.00159932 0 0)
(0.018018 0.000353552 0 0.00144639 0 0)
(0.0200428 0.000541153 0 0.00136301 0 0)
(0.0234625 0.000832285 0 0.00132669 0 0)
(0.0285372 0.00124047 0 0.00131473 0 0)
(0.0352509 0.00167921 0 0.00131375 0 0)
(0.0434912 0.00209477 0 0.00131581 0 0)
(0.0532238 0.00250039 0 0.00131866 0 0)
(0.0645143 0.00293626 0 0.00132745 0 0)
(0.077421 0.00344128 0 0.00134329 0 0)
(0.0918104 0.00402734 0 0.00136389 0 0)
(0.107593 0.00465682 0 0.0014001 0 0)
(0.124647 0.00529098 0 0.00143651 0 0)
(0.142892 0.00589123 0 0.00144775 0 0)
(0.11809 -0.00309405 0 0.00358812 0 0)
(0.0199432 -0.00123874 0 0.00196852 0 0)
(0.0168196 -0.000532799 0 0.0014009 0 0)
(0.0157051 -0.000667887 0 0.00116386 0 0)
(0.0176149 -0.0010458 0 0.00105753 0 0)
(0.0180466 -0.00132943 0 0.0010182 0 0)
(0.0185518 -0.0014392 0 0.000994018 0 0)
(0.0207904 -0.00148026 0 0.000970194 0 0)
(0.025026 -0.00154002 0 0.000951888 0 0)
(0.0307537 -0.00162405 0 0.000938524 0 0)
(0.0373216 -0.00171384 0 0.00092027 0 0)
(0.0443885 -0.00180058 0 0.000897029 0 0)
(0.0519315 -0.00186558 0 0.000878075 0 0)
(0.0602113 -0.00190069 0 0.000867077 0 0)
(0.0692957 -0.00191257 0 0.000858509 0 0)
(0.0795328 -0.00194654 0 0.000856441 0 0)
(0.0905863 -0.00202295 0 0.000855922 0 0)
(0.102728 -0.00215491 0 0.000848166 0 0)
(0.113597 -0.00185422 0 0.0024095 0 0)
(0.0132819 0.000132579 0 0.00122017 0 0)
(0.0137513 0.000549185 0 0.000877022 0 0)
(0.0100979 0.000311197 0 0.000749048 0 0)
(0.0104808 0.000264293 0 0.000680965 0 0)
(0.0142156 0.000509454 0 0.0006271 0 0)
(0.0201536 0.000814238 0 0.000573974 0 0)
(0.0266731 0.00102767 0 0.000526021 0 0)
(0.0333182 0.00115967 0 0.000491123 0 0)
(0.0407164 0.00127912 0 0.000465739 0 0)
(0.0494583 0.00141838 0 0.000445595 0 0)
(0.0595394 0.00156597 0 0.000429861 0 0)
(0.0707053 0.0017001 0 0.000419006 0 0)
(0.0826126 0.00180777 0 0.000414626 0 0)
(0.0952115 0.0018998 0 0.000415798 0 0)
(0.108194 0.00199057 0 0.000421255 0 0)
(0.121899 0.0020959 0 0.00042869 0 0)
(0.135771 0.00223666 0 0.000432586 0 0)
(0.00107508 -0.00242585 1.45235e-21 0.00573757 -2.78471e-21 1.00378e-36)
(0.0104955 -0.00788898 -4.36444e-21 0.00630124 2.74051e-21 9.89759e-37)
(0.0306384 -0.0133558 0 0.00618276 0 0)
(0.0616904 -0.0189261 0 0.00607682 0 0)
(0.103808 -0.0246126 0 0.00599823 0 0)
(0.15792 -0.0305865 1.60454e-20 0.00600194 -2.917e-21 9.32315e-37)
(0.224664 -0.0369466 0 0.00612245 0 0)
(0.305173 -0.0438135 0 0.00637112 0 0)
(0.400555 -0.051272 0 0.00674298 0 0)
(0.512261 -0.059386 0 0.00722415 0 0)
(0.641744 -0.0682057 -3.11004e-20 0.0078019 3.12104e-21 8.63617e-37)
(0.79071 -0.0777803 0 0.00846632 0 0)
(0.96092 -0.088157 0 0.00920995 0 0)
(1.15426 -0.0993794 0 0.010028 0 0)
(1.37275 -0.111493 0 0.0109185 0 0)
(1.61835 -0.124504 -4.57817e-20 0.0118691 3.0207e-21 7.98279e-37)
(1.89315 -0.138395 0 0.0128636 0 0)
(2.19911 -0.153098 0 0.013879 0 0)
(2.53808 -0.168507 0 0.0148901 0 0)
(2.91166 -0.184412 0 0.0158551 0 0)
(3.32085 -0.200569 0 0.0167475 0 0)
(3.76618 -0.216596 0 0.0175098 0 0)
(4.24745 -0.232076 0 0.0181085 0 0)
(4.76322 -0.246473 -6.53395e-20 0.0184926 2.25311e-21 7.0062e-37)
(5.31128 -0.25921 6.72032e-20 0.0186272 -2.10419e-21 6.89005e-37)
(5.8879 -0.269687 -6.88954e-20 0.0184888 1.94397e-21 6.77523e-37)
(6.48797 -0.277227 -7.04021e-20 0.0180529 1.77361e-21 6.66171e-37)
(7.10486 -0.28122 0 0.0173262 0 0)
(7.73037 -0.281055 0 0.0163146 0 0)
(8.35479 -0.27623 7.36735e-20 0.0150509 -1.20817e-21 6.32907e-37)
(8.96695 -0.266363 7.43037e-20 0.0135769 -1.00629e-21 6.22081e-37)
(9.5548 -0.251239 0 0.0119514 0 0)
(10.1054 -0.230895 0 0.0102515 0 0)
(10.6058 -0.205564 7.46501e-20 0.00854936 -3.86729e-22 5.90391e-37)
(11.0434 -0.175765 0 0.0069285 0 0)
(11.4064 -0.142238 0 0.00546019 0 0)
(11.6852 -0.105935 -7.25618e-20 0.0042071 -2.01011e-22 5.59876e-37)
(11.8719 -0.0679641 0 0.00321348 0 0)
(11.9615 -0.0294633 -6.98532e-20 0.00250166 -5.39613e-22 5.40181e-37)
(11.9524 0.0084951 -1.36287e-19 0.00207096 -1.37333e-21 2.12211e-36)
(11.8457 0.0449556 0 0.00190278 0 0)
(11.6454 0.0790925 0 0.00196857 0 0)
(11.3568 0.110227 0 0.00223006 0 0)
(10.9879 0.137695 0 0.00264294 0 0)
(10.5482 0.160984 0 0.00316219 0 0)
(10.0485 0.179747 -1.08893e-19 0.00374172 -2.42031e-21 1.90113e-36)
(9.50094 0.193744 -1.03717e-19 0.00432774 -2.47473e-21 1.86607e-36)
(8.91802 0.203044 -9.85195e-20 0.00488313 -2.49966e-21 1.8315e-36)
(8.31235 0.207683 0 0.00535913 0 0)
(7.69594 0.20805 8.82645e-20 0.00572969 2.46574e-21 1.76385e-36)
(7.0805 0.204621 0 0.00597536 0 0)
(6.47599 0.197898 -7.84703e-20 0.00608196 -2.34389e-21 1.69815e-36)
(5.89109 0.188602 -7.38249e-20 0.00605752 -2.25856e-21 1.66603e-36)
(5.33255 0.177297 0 0.00590717 0 0)
(4.80551 0.164689 0 0.00565453 0 0)
(4.31351 0.151353 0 0.00532228 0 0)
(3.85901 0.137762 -5.73114e-20 0.00493179 -1.82756e-21 1.54226e-36)
(3.44229 0.124305 0 0.00450507 0 0)
(3.06277 0.111445 0 0.00407383 0 0)
(2.71988 0.0991347 0 0.0036334 0 0)
(2.4117 0.0878265 0 0.00321972 0 0)
(2.13618 0.0773679 0 0.00282382 0 0)
(1.8908 0.0679428 0 0.00246324 0 0)
(1.67285 0.0594362 0 0.0021332 0 0)
(1.47935 0.0518148 0 0.0018355 0 0)
(1.30813 0.0450489 3.22545e-20 0.00157106 9.09059e-22 1.29035e-36)
(1.157 0.039075 0 0.00133824 0 0)
(1.0238 0.0338239 0 0.00113482 0 0)
(0.906564 0.0292254 -2.68651e-20 0.000958238 -6.9361e-22 1.21413e-36)
(0.803482 0.0252108 -2.53167e-20 0.000805818 -6.31945e-22 1.18955e-36)
(0.712916 0.0217151 0 0.000674914 0 0)
(0.633394 0.0186784 2.25435e-20 0.000563007 5.22382e-22 1.14158e-36)
(0.563602 0.0160457 -2.13042e-20 0.000467753 -4.7396e-22 1.11819e-36)
(0.502367 0.0137675 0 0.000387016 0 0)
(0.448651 0.0117993 1.90867e-20 0.000318865 3.88544e-22 1.07257e-36)
(0.401532 0.0101015 0 0.000261576 0 0)
(0.3602 0.00863901 0 0.000213619 0 0)
(0.323937 0.00738088 -1.63261e-20 0.000173644 -2.85328e-22 1.00697e-36)
(0.292114 0.00629977 0 0.000140465 0 0)
(0.264177 0.00537178 1.48032e-20 0.000113051 2.30515e-22 9.65065e-37)
(0.239641 0.00457593 0 9.05014e-05 0 0)
(0.21808 0.00389398 -1.34931e-20 7.20427e-05 -1.8504e-22 9.24582e-37)
(0.199124 0.00331003 -1.29084e-20 5.70065e-05 -1.65362e-22 9.0486e-37)
(0.182445 0.00281031 -1.2366e-20 4.48225e-05 -1.47509e-22 8.8548e-37)
(0.167761 0.00238287 -2.37254e-20 3.50031e-05 -2.62664e-22 3.46574e-36)
(0.154824 0.00201742 2.27913e-20 2.71362e-05 2.33391e-22 3.39089e-36)
(0.143416 0.00170505 0 2.08725e-05 0 0)
(0.13335 0.00143816 0 1.59194e-05 0 0)
(0.12446 0.00121014 0 1.20309e-05 0 0)
(0.116603 0.00101538 1.96744e-20 9.00276e-06 1.42189e-22 3.10438e-36)
(0.109654 0.00084906 1.90273e-20 6.66537e-06 1.24788e-22 3.03589e-36)
(0.103503 0.00070709 -1.84249e-20 4.87919e-06 -1.09169e-22 2.96861e-36)
(0.0980545 0.00058598 0 3.52969e-06 0 0)
(0.0932259 0.000482874 1.73407e-20 2.52447e-06 8.26193e-23 2.83763e-36)
(0.0889432 0.000395337 1.68527e-20 1.78795e-06 7.13761e-23 2.7739e-36)
(0.085142 0.000321175 1.63967e-20 1.25812e-06 6.12967e-23 2.71132e-36)
(0.081766 0.000258406 0 8.84489e-07 0 0)
(0.0787658 0.000205348 0 6.26854e-07 0 0)
(0.0760982 0.000160528 0 4.53779e-07 0 0)
(0.0737253 0.000122646 1.48467e-20 3.4104e-07 3.05054e-23 2.47212e-36)
(0.0716143 9.06442e-05 0 2.70105e-07 0 0)
(0.0697363 6.35888e-05 0 2.27063e-07 0 0)
(0.068066 4.07129e-05 -1.3915e-20 2.01714e-07 -1.49618e-23 2.30395e-36)
(0.0665812 2.13715e-05 0 1.86698e-07 0 0)
(0.0652623 4.82906e-06 0 1.77329e-07 0 0)
(0.0640927 -9.46865e-06 -1.31325e-20 1.70157e-07 -3.79861e-24 2.14492e-36)
(0.0630575 -2.19848e-05 0 1.63939e-07 0 0)
(0.0621443 -3.30872e-05 0 1.575e-07 0 0)
(0.0613412 -4.35115e-05 1.24663e-20 1.52023e-07 -4.37459e-24 1.99463e-36)
(0.0606419 -5.36256e-05 1.22656e-20 1.48107e-07 -6.65355e-24 1.9464e-36)
(0.0600344 -6.41665e-05 0 1.48944e-07 0 0)
(0.0595242 -7.5345e-05 -1.18918e-20 1.57502e-07 1.07725e-23 1.85266e-36)
(0.0591042 -8.69905e-05 0 1.75551e-07 0 0)
(0.0587673 -9.84922e-05 1.15508e-20 2.01279e-07 -1.41542e-23 1.76245e-36)
(0.0585072 -0.000109444 0 2.32583e-07 0 0)
(0.0583181 -0.000119639 1.12368e-20 2.67861e-07 -1.66074e-23 1.67565e-36)
(0.0581942 -0.000128761 1.10883e-20 3.03876e-07 -1.74943e-23 1.63351e-36)
(0.0581301 -0.000137007 0 3.40442e-07 0 0)
(0.0581214 -0.000144463 0 3.77054e-07 0 0)
(0.0581637 -0.000151049 0 4.12188e-07 0 0)
(0.0582525 -0.000156784 0 4.45029e-07 0 0)
(0.0583836 -0.000161694 0 4.75023e-07 0 0)
(0.0585527 -0.000165669 0 5.00898e-07 0 0)
(0.0587555 -0.000168439 0 5.20302e-07 0 0)
(0.0589869 -0.000169643 1.00427e-20 5.30223e-07 -1.88224e-23 1.32457e-36)
(0.0592414 -0.000169022 -9.92401e-21 5.28123e-07 1.83892e-23 1.28929e-36)
(0.0595132 -0.000166571 0 5.13376e-07 0 0)
(0.0597971 -0.000162585 0 4.87831e-07 0 0)
(0.0600887 -0.00015754 0 4.5521e-07 0 0)
(0.0603853 -0.000151955 0 4.19651e-07 0 0)
(0.0606853 -0.000146252 -1.87008e-20 3.8448e-07 3.06927e-23 4.49308e-36)
(0.0609879 -0.000140709 0 3.51658e-07 0 0)
(0.0612932 -0.000135465 1.82551e-20 3.21987e-07 -2.84063e-23 4.24591e-36)
(0.0616014 -0.000130569 -1.80345e-20 2.95532e-07 2.73731e-23 4.12612e-36)
(0.0619125 -0.000126022 0 2.72061e-07 0 0)
(0.0622268 -0.000121811 0 2.51252e-07 0 0)
(0.0625445 -0.00011792 0 2.32826e-07 0 0)
(0.0628655 -0.000114337 1.71656e-20 2.16526e-07 -2.39437e-23 3.67125e-36)
(0.0631899 -0.000111057 1.69514e-20 2.02159e-07 -2.32441e-23 3.56341e-36)
(0.0635177 -0.000108063 0 1.89505e-07 0 0)
(0.063849 -0.000105347 1.65264e-20 1.78398e-07 -2.1998e-23 3.35454e-36)
(0.064184 -0.000102887 1.63154e-20 1.68638e-07 -2.14418e-23 3.25342e-36)
(0.0645227 -0.00010067 -1.61055e-20 1.60076e-07 2.09209e-23 3.15448e-36)
(0.0648653 -9.86754e-05 0 1.52557e-07 0 0)
(0.0652119 -9.68934e-05 0 1.45971e-07 0 0)
(0.0655627 -9.53063e-05 -1.54816e-20 1.40199e-07 1.95314e-23 2.87029e-36)
(0.0659178 -9.39059e-05 0 1.3516e-07 0 0)
(0.0662773 -9.26777e-05 0 1.30766e-07 0 0)
(0.0666414 -9.16149e-05 0 1.26959e-07 0 0)
(0.0670104 -9.0708e-05 0 1.23679e-07 0 0)
(0.0673845 -8.99529e-05 1.44599e-20 1.20886e-07 -1.76779e-23 2.43684e-36)
(0.067764 -8.93474e-05 1.4258e-20 1.18552e-07 -1.737e-23 2.35589e-36)
(0.0681491 -8.88857e-05 0 1.1664e-07 0 0)