/*--------------------------------*- C++ -*----------------------------------*\
| =========                 |                                                 |
| \\      /  F ield         | OpenFOAM: The Open Source CFD Toolbox           |
|  \\    /   O peration     | Version:  2112                                  |
|   \\  /    A nd           | Website:  www.openfoam.com                      |
|    \\/     M anipulation  |                                                 |
\*---------------------------------------------------------------------------*/
FoamFile
{
    version     2.0;
    format      ascii;
    arch        "LSB;label=32;scalar=64";
    class       volScalarField;
    location    "0.07";
    object      s;
}
// * * * * * * * * * * * * * * * * * * * * * * * * * * * * * * * * * * * * * //

dimensions      [0 0 0 0 0 0 0];

internalField   nonuniform List<scalar> 
12225
(
1
1
1
1
1
1
1
1
1
1
1
1
1
1
1
1
1
1
1
1
1
1
1
1
1
1
1
1
1
1
1
1
1
1
1
1
1
1
1
1
1
1
1
1
1
1
1
1
1
1
1
1
1
1
1
1
1
1
1
1
1
1
1
1
1
1
1
1
1
1
1
1
1
1
1
1
1
1
1
1
1
1
1
1
1
1
1
1
1
1
1
1
1
1
1
1
1
1
1
1
1
1
1
1
1
1
1
1
1
1
1
1
1
1
1
1
1
1
1
1
1
1
1
1
1
1
1
1
1
1
1
1
1
1
1
1
1
1
1
1
1
1
1
1
1
1
1
1
1
1
1
1
1
1
1
1
1
1
1
1
1
1
1
1
1
1
1
1
1
1
1
1
1
1
1
1
1
1
1
1
1
1
1
1
1
1
1
1
1
1
1
1
1
1
1
1
1
1
1
1
1
1
1
1
1
1
1
1
1
1
1
1
1
1
1
1
1
1
1
1
1
1
1
1
1
1
1
1
1
1
1
1
1
1
1
1
1
1
1
1
1
1
1
1
1
1
1
1
1
1
1
1
1
1
1
1
1
1
1
1
1
1
1
1
1
1
1
1
1
1
1
1
1
1
1
1
1
1
1
1
1
1
1
1
1
1
1
1
1
1
1
1
1
1
1
1
1
1
1
1
1
1
1
1
1
1
1
1
1
1
1
1
1
1
1
1
1
1
1
1
1
1
1
1
1
1
1
1
1
1
1
1
1
1
1
1
1
1
1
1
1
1
1
1
1
1
1
1
1
1
1
1
1
1
1
1
1
1
1
1
1
1
1
1
1
1
1
1
1
1
1
1
1
1
1
1
1
1
1
1
1
1
1
1
1
1
1
1
1
1
1
1
1
1
1
1
1
1
1
1
1
1
1
1
1
1
1
1
1
1
1
1
1
1
1
1
1
1
1
1
1
1
1
1
1
1
1
1
1
1
1
1
1
1
1
1
1
1
1
1
1
1
1
1
1
1
1
1
1
1
1
1
1
1
1
1
1
1
1
1
1
1
1
1
1
1
1
1
1
1
1
1
1
1
1
1
1
1
1
1
1
1
1
1
1
1
1
1
1
1
1
1
1
1
1
1
1
1
1
1
1
1
1
1
1
1
1
1
1
1
1
1
1
1
1
1
1
1
1
1
1
1
1
1
1
1
1
1
1
1
1
1
1
1
1
1
1
1
1
1
0.741263
0.766583
0.768558
0.768636
0.767711
0.765779
0.76503
0.763156
0.76216
0.759283
0.757966
0.758235
0.758408
0.75825
0.757681
0.757128
0.756498
0.755951
0.755003
0.754205
0.753112
0.751575
0.749583
0.747537
0.745063
0.739177
0.735375
0.735027
0.70046
0.670276
0.670298
0.673511
0.679645
0.68394
0.685799
0.684789
0.683733
0.684261
0.686993
0.694354
0.736561
0.852187
0.853428
0.828424
0.817397
0.811058
0.80904
0.808189
0.807665
0.807192
0.806966
0.806721
0.806351
0.806052
0.805796
0.805265
0.803937
0.80159
0.799036
0.795843
0.7923
0.789037
0.785702
0.782953
0.780622
0.778973
0.777624
0.7766
0.775337
0.774115
0.772826
0.771639
0.770527
0.769299
0.768051
0.765984
0.761268
0.751892
0.744225
0.743004
0.743352
0.745896
0.751968
0.761588
0.771883
0.780305
0.789111
0.800626
0.810868
0.817444
0.824338
0.831727
0.834232
0.837641
0.838732
0.836394
0.826126
0.818346
0.817347
0.817842
0.819332
0.823055
0.826884
0.82553
0.813923
0.803798
0.802104
0.801937
0.802119
0.802916
0.80454
0.80688
0.809454
0.811681
0.813522
0.816049
0.819666
0.823854
0.827177
0.830189
0.833159
0.836242
0.838678
0.839856
0.84025
0.83895
0.836824
0.835456
0.834654
0.833965
0.833598
0.833676
0.834119
0.834817
0.835657
0.83639
0.836757
0.836722
0.835758
0.830402
0.825794
0.824875
0.825376
0.82857
0.835482
0.842712
0.849646
0.855507
0.859833
0.862594
0.864066
0.864645
0.864738
0.864603
0.863771
0.860828
0.85759
0.855703
0.854976
0.85492
0.855305
0.857727
0.868367
0.893636
0.917542
0.935918
0.94549
0.948023
0.948564
0.949846
0.952698
0.95311
0.951162
0.940824
0.907018
0.860782
0.73775
0.45751
0.373557
0.427736
0.713963
0.735583
0.762201
0.755588
0.747477
0.737288
0.734087
0.730016
0.732876
0.739249
0.747144
0.757413
0.765486
0.77342
0.78452
0.794058
0.800606
0.808131
0.811198
0.810897
0.809141
0.80504
0.796097
0.784743
0.772086
0.758232
0.74481
0.740485
0.732274
0.714746
0.707152
0.700774
0.699359
0.711979
0.720513
0.720384
0.712444
0.7029
0.791151
0.848283
0.843072
0.847432
0.833844
0.828052
0.826096
0.828084
0.836289
0.84324
0.847444
0.851691
0.853737
0.854698
0.854886
0.853237
0.849277
0.84411
0.836007
0.827967
0.818942
0.807616
0.796806
0.787402
0.780404
0.777911
0.776997
0.776506
0.775875
0.774703
0.772764
0.770151
0.767178
0.765102
0.764239
0.763259
0.760588
0.757127
0.756736
0.759821
0.767698
0.775914
0.783255
0.795919
0.820148
0.838351
0.842415
0.842912
0.842295
0.840558
0.838641
0.837307
0.83571
0.832341
0.8273
0.823081
0.821669
0.821482
0.821997
0.825637
0.828725
0.828876
0.82766
0.824525
0.820555
0.81288
0.79448
0.774963
0.767467
0.764091
0.762744
0.762425
0.763617
0.767966
0.772899
0.776745
0.782363
0.789836
0.796166
0.802681
0.811739
0.820975
0.830969
0.840597
0.850629
0.861047
0.870222
0.878091
0.882739
0.882916
0.878177
0.870671
0.861434
0.852802
0.846271
0.843737
0.843298
0.843809
0.844555
0.845537
0.849183
0.852978
0.852345
0.843062
0.824363
0.813504
0.808841
0.807441
0.80736
0.808222
0.812321
0.821296
0.831136
0.840363
0.846879
0.849909
0.850515
0.850388
0.849687
0.849348
0.849445
0.850144
0.852119
0.855583
0.863542
0.886888
0.916375
0.940207
0.953331
0.956832
0.957329
0.957661
0.95912
0.960479
0.960292
0.956307
0.939816
0.908043
0.874978
0.78012
0.624943
0.588986
0.706031
0.761913
0.745235
0.699448
0.668412
0.651529
0.657499
0.675375
0.704351
0.730778
0.767122
0.803327
0.839591
0.866351
0.88197
0.890863
0.896704
0.900468
0.902159
0.901981
0.900887
0.897995
0.892908
0.881097
0.864377
0.841226
0.792956
0.762426
0.746753
0.732358
0.72389
0.722169
0.724047
0.727294
0.739763
0.75301
0.835549
0.841048
0.85387
0.853734
0.849041
0.84847
0.846199
0.857602
0.873935
0.884404
0.891981
0.894789
0.896019
0.896373
0.895666
0.892862
0.889787
0.884921
0.877999
0.870309
0.859626
0.846861
0.83282
0.816276
0.799348
0.785018
0.776341
0.772419
0.770044
0.768075
0.766232
0.764036
0.761576
0.76076
0.760656
0.760865
0.76179
0.76416
0.769673
0.78254
0.806256
0.833227
0.843701
0.847699
0.850124
0.853252
0.854175
0.853952
0.851759
0.847036
0.839596
0.830009
0.821608
0.817704
0.815995
0.815569
0.815757
0.816466
0.818819
0.824414
0.831116
0.83275
0.832383
0.828507
0.820572
0.81152
0.799276
0.776859
0.752724
0.743472
0.739963
0.738783
0.738487
0.738626
0.740028
0.741241
0.741696
0.742622
0.744315
0.745425
0.747325
0.750639
0.754827
0.760865
0.769591
0.782071
0.797394
0.817285
0.842215
0.870103
0.894137
0.912206
0.923655
0.931591
0.936814
0.937073
0.931231
0.920013
0.912099
0.906869
0.898347
0.878086
0.850699
0.845247
0.858206
0.873702
0.873323
0.861951
0.83702
0.823649
0.817178
0.813724
0.811387
0.809852
0.809172
0.809025
0.809226
0.81105
0.817453
0.823586
0.827409
0.830044
0.833536
0.840675
0.859188
0.881572
0.898809
0.914081
0.932128
0.948024
0.954277
0.95399
0.95143
0.951288
0.954283
0.959821
0.96179
0.961586
0.958858
0.949049
0.923168
0.88802
0.831181
0.796384
0.750598
0.737938
0.66835
0.613364
0.6069
0.615065
0.638021
0.675687
0.74087
0.818566
0.867975
0.890979
0.900709
0.906352
0.908504
0.908542
0.908066
0.907263
0.906935
0.906108
0.903893
0.901625
0.900222
0.898055
0.894522
0.8872
0.870227
0.82197
0.777529
0.753305
0.736685
0.729848
0.72889
0.729842
0.792268
0.853898
0.861527
0.862103
0.862192
0.860861
0.861699
0.872594
0.89269
0.90371
0.910629
0.914151
0.916495
0.917635
0.918708
0.92
0.921292
0.92227
0.922616
0.922601
0.92097
0.916682
0.909495
0.898221
0.8816
0.858623
0.832153
0.806602
0.784853
0.772259
0.766627
0.763558
0.761255
0.760496
0.760393
0.760629
0.761789
0.764612
0.770054
0.779777
0.795855
0.818815
0.845391
0.857265
0.861058
0.862991
0.865818
0.867501
0.867588
0.865459
0.858981
0.848928
0.836359
0.820735
0.809665
0.806933
0.806682
0.807189
0.808601
0.811214
0.816133
0.825258
0.835088
0.837206
0.836208
0.829172
0.813492
0.791462
0.769222
0.748469
0.73589
0.731756
0.730469
0.730185
0.730178
0.73071
0.731596
0.731913
0.732211
0.733068
0.734061
0.734714
0.73569
0.736929
0.738339
0.740364
0.743167
0.747153
0.752459
0.75902
0.768757
0.785153
0.815691
0.861189
0.906494
0.929294
0.9449
0.956459
0.965302
0.970083
0.970755
0.96995
0.966206
0.954824
0.923294
0.860625
0.840561
0.846487
0.878013
0.895505
0.8956
0.885249
0.862324
0.850353
0.845948
0.845132
0.845199
0.845176
0.844806
0.845018
0.845946
0.848288
0.85259
0.859613
0.875879
0.904898
0.929166
0.940614
0.941494
0.941204
0.944354
0.951633
0.953161
0.949983
0.94752
0.947662
0.950057
0.957612
0.96329
0.964586
0.964268
0.961787
0.953201
0.927081
0.886464
0.864967
0.731345
0.660273
0.595191
0.591498
0.599719
0.627224
0.687025
0.798959
0.868002
0.893756
0.902264
0.905284
0.904746
0.902385
0.897601
0.887735
0.879191
0.872575
0.86304
0.860487
0.861705
0.865253
0.873259
0.884998
0.890225
0.889605
0.885564
0.868707
0.818432
0.765244
0.738285
0.729913
0.729396
0.778771
0.860785
0.870899
0.871402
0.870994
0.873225
0.880871
0.897769
0.913633
0.921537
0.928089
0.931783
0.934008
0.936965
0.939058
0.942134
0.94477
0.947693
0.949944
0.951855
0.953411
0.954279
0.954482
0.953641
0.949596
0.942174
0.929773
0.909785
0.878957
0.841146
0.804278
0.781147
0.770768
0.765772
0.763816
0.763267
0.763296
0.764636
0.768455
0.775125
0.785019
0.799258
0.819541
0.846415
0.865909
0.872333
0.875302
0.877026
0.87759
0.877592
0.8765
0.872849
0.865373
0.853481
0.835496
0.811969
0.802224
0.800241
0.800181
0.801173
0.803811
0.808943
0.818401
0.833554
0.841876
0.842521
0.837033
0.819833
0.793511
0.762813
0.737882
0.729739
0.727532
0.727077
0.727071
0.727524
0.728625
0.729865
0.730716
0.7316
0.732767
0.733912
0.73474
0.735387
0.736129
0.737072
0.738421
0.740305
0.743044
0.747335
0.752159
0.756886
0.763414
0.773763
0.792867
0.836054
0.886245
0.921539
0.946352
0.964067
0.975039
0.979976
0.980794
0.978986
0.966124
0.947527
0.911166
0.85454
0.839099
0.847483
0.884027
0.908438
0.912089
0.907221
0.88504
0.869424
0.865735
0.866499
0.873822
0.892049
0.90732
0.920328
0.932385
0.944823
0.957839
0.969399
0.976857
0.979414
0.97897
0.97319
0.959234
0.954092
0.953823
0.951938
0.947707
0.946665
0.947031
0.949383
0.956481
0.963781
0.967082
0.967424
0.966834
0.96383
0.953599
0.920994
0.891248
0.615713
0.582597
0.579073
0.592466
0.642632
0.750388
0.86412
0.900199
0.907652
0.906752
0.902977
0.894497
0.881354
0.863847
0.846283
0.831684
0.819286
0.809728
0.807094
0.807858
0.810595
0.817706
0.825086
0.839418
0.86487
0.882072
0.883331
0.871003
0.815735
0.760023
0.734188
0.728646
0.74619
0.852794
0.881418
0.884147
0.884757
0.887938
0.896922
0.911653
0.925623
0.933645
0.939923
0.944056
0.94673
0.94973
0.952443
0.954487
0.957772
0.95953
0.962047
0.963288
0.965109
0.966454
0.967456
0.967806
0.967877
0.967382
0.965613
0.9626
0.95764
0.948972
0.934331
0.910741
0.874622
0.83166
0.801704
0.78749
0.779627
0.776029
0.774775
0.77459
0.776171
0.782006
0.793028
0.810616
0.837336
0.866182
0.876077
0.87882
0.879594
0.879803
0.879875
0.879909
0.879729
0.878238
0.874068
0.86557
0.848104
0.818697
0.801091
0.797044
0.796517
0.797011
0.799752
0.806698
0.820542
0.841384
0.849118
0.848499
0.836773
0.808065
0.770894
0.740272
0.729632
0.726682
0.726146
0.726226
0.727044
0.728759
0.730905
0.733383
0.736192
0.739133
0.741033
0.741787
0.741628
0.739616
0.7388
0.738633
0.740034
0.742241
0.74631
0.751739
0.756189
0.761298
0.768414
0.779745
0.804838
0.857016
0.904632
0.939586
0.961799
0.975921
0.983238
0.985107
0.984108
0.971298
0.937802
0.92121
0.87912
0.840809
0.835174
0.849682
0.894625
0.919518
0.924284
0.920392
0.900075
0.884447
0.881336
0.883239
0.896357
0.925489
0.949166
0.9666
0.97841
0.985695
0.989642
0.991265
0.991504
0.990832
0.985912
0.97098
0.961329
0.955898
0.950479
0.947196
0.946694
0.947306
0.950813
0.958301
0.964722
0.969099
0.970422
0.970363
0.96931
0.964925
0.948873
0.912818
0.596292
0.56906
0.580784
0.653483
0.813658
0.900369
0.919614
0.916662
0.90884
0.894187
0.871799
0.850142
0.830579
0.813013
0.802115
0.79222
0.783038
0.78099
0.782136
0.785917
0.790794
0.795667
0.804353
0.826145
0.860374
0.879515
0.8806
0.863154
0.795966
0.739056
0.726852
0.735267
0.811538
0.884827
0.895828
0.897967
0.900238
0.90711
0.918284
0.930817
0.940874
0.947096
0.95205
0.954487
0.957277
0.96004
0.962214
0.96453
0.966547
0.968331
0.969665
0.970381
0.971297
0.971704
0.971901
0.971964
0.971965
0.971781
0.971491
0.971041
0.970171
0.968746
0.966052
0.961342
0.953147
0.939663
0.918845
0.889221
0.855583
0.834739
0.823381
0.816983
0.814378
0.813531
0.813888
0.820443
0.837971
0.864373
0.87497
0.87727
0.877632
0.877651
0.877811
0.878886
0.880454
0.88085
0.880703
0.879152
0.874987
0.864515
0.842147
0.810294
0.797981
0.795397
0.7952
0.796917
0.803916
0.821082
0.847434
0.856511
0.855191
0.838389
0.799725
0.753794
0.732796
0.727182
0.726109
0.726099
0.727052
0.729699
0.73464
0.742155
0.751776
0.760148
0.764778
0.766439
0.763082
0.75471
0.746437
0.742922
0.741786
0.742338
0.746101
0.753352
0.759513
0.762956
0.768236
0.777558
0.795305
0.841325
0.896027
0.937704
0.964797
0.980046
0.986798
0.988373
0.987702
0.978737
0.928677
0.89996
0.886389
0.848598
0.829171
0.830426
0.857725
0.906587
0.927943
0.931185
0.926078
0.907485
0.898338
0.897764
0.902548
0.924878
0.953129
0.972008
0.983385
0.989465
0.99224
0.993161
0.993236
0.992773
0.989823
0.978509
0.966291
0.95742
0.950676
0.94776
0.947686
0.948741
0.953887
0.962281
0.966878
0.969981
0.971876
0.97227
0.972032
0.970367
0.963279
0.936494
0.594491
0.566177
0.614405
0.797903
0.907883
0.928769
0.925379
0.90996
0.877246
0.858392
0.841047
0.825236
0.804864
0.785129
0.762838
0.742076
0.739075
0.742126
0.749095
0.765443
0.78361
0.795867
0.810765
0.839028
0.866687
0.877318
0.872051
0.823537
0.738207
0.721387
0.73018
0.768876
0.872941
0.9024
0.907862
0.910021
0.91417
0.922355
0.932338
0.942415
0.951017
0.956359
0.959322
0.961578
0.964229
0.966144
0.968403
0.970203
0.971248
0.972017
0.972383
0.972544
0.972601
0.972591
0.972516
0.972491
0.972429
0.972332
0.972264
0.972201
0.972076
0.971936
0.971702
0.971243
0.970328
0.968589
0.965405
0.959873
0.951086
0.938352
0.921553
0.901773
0.88687
0.87854
0.873817
0.872374
0.872809
0.875824
0.876206
0.876415
0.876558
0.876605
0.87656
0.876778
0.878381
0.880481
0.881049
0.881124
0.880691
0.879272
0.875389
0.865387
0.84318
0.811843
0.797883
0.795154
0.795373
0.800382
0.818095
0.850164
0.862409
0.861981
0.843738
0.800034
0.749436
0.731
0.726706
0.726249
0.727672
0.733447
0.745356
0.762133
0.775385
0.784513
0.788382
0.789147
0.785034
0.7763
0.761374
0.75035
0.745916
0.745486
0.747121
0.755035
0.766096
0.771049
0.773744
0.77916
0.793519
0.832298
0.890721
0.936702
0.96776
0.984706
0.991042
0.99196
0.990925
0.982575
0.933032
0.872532
0.864994
0.853659
0.82763
0.821347
0.828707
0.872785
0.917993
0.933435
0.934232
0.926705
0.915537
0.913294
0.915075
0.927267
0.95377
0.972653
0.98392
0.989837
0.9925
0.993369
0.993437
0.993046
0.990921
0.982692
0.969895
0.959004
0.951428
0.949153
0.949344
0.951161
0.95788
0.965138
0.968501
0.970281
0.972023
0.973011
0.973137
0.972688
0.969733
0.955624
0.594248
0.568572
0.663357
0.869544
0.929194
0.931603
0.918357
0.878818
0.859251
0.845575
0.828358
0.801159
0.762224
0.718159
0.683375
0.684981
0.694621
0.723519
0.75283
0.771378
0.787458
0.803683
0.825969
0.84975
0.865801
0.862878
0.814638
0.732139
0.711072
0.722768
0.751083
0.850063
0.901911
0.914255
0.917645
0.919951
0.924723
0.932298
0.941301
0.950792
0.958233
0.96172
0.963916
0.966311
0.968234
0.96983
0.97159
0.972281
0.972581
0.972679
0.97268
0.972529
0.972387
0.972277
0.972229
0.972207
0.972198
0.972198
0.972207
0.972197
0.972153
0.972114
0.972066
0.972034
0.972015
0.971973
0.971864
0.971548
0.970783
0.969158
0.966272
0.961481
0.954164
0.943806
0.929226
0.91263
0.900864
0.892336
0.889398
0.888723
0.888728
0.888838
0.888052
0.885608
0.883866
0.883169
0.883016
0.882317
0.881195
0.880572
0.88038
0.879723
0.877177
0.868874
0.848053
0.815577
0.798984
0.795692
0.797487
0.811217
0.84703
0.865755
0.867763
0.852731
0.811493
0.753594
0.732504
0.727447
0.727471
0.731486
0.74309
0.760235
0.778972
0.789484
0.793634
0.793506
0.789667
0.781807
0.766945
0.755482
0.749844
0.749056
0.750564
0.756845
0.77049
0.778934
0.78349
0.787696
0.796965
0.830047
0.889895
0.937252
0.968967
0.98659
0.994002
0.995599
0.994921
0.987874
0.944003
0.861472
0.842395
0.840489
0.827198
0.815197
0.816229
0.837294
0.897132
0.930369
0.939258
0.938724
0.93293
0.930238
0.930925
0.937071
0.95712
0.974786
0.985243
0.990743
0.993201
0.993945
0.99395
0.9934
0.991162
0.98421
0.972384
0.960653
0.953087
0.951397
0.951948
0.955528
0.964057
0.968015
0.969607
0.970302
0.971395
0.97267
0.973257
0.973254
0.972287
0.965372
0.594365
0.581511
0.709727
0.900998
0.935909
0.930635
0.89538
0.867891
0.854603
0.83892
0.807151
0.75693
0.698442
0.645987
0.629309
0.639598
0.664769
0.68044
0.707391
0.739876
0.768221
0.793395
0.817363
0.833844
0.827589
0.774714
0.716887
0.698525
0.711446
0.738828
0.818319
0.895087
0.917052
0.922711
0.924825
0.927098
0.932054
0.93933
0.948065
0.956954
0.962333
0.964809
0.966905
0.969075
0.970393
0.971713
0.972471
0.97266
0.972692
0.972628
0.972408
0.972313
0.972291
0.972356
0.972461
0.972612
0.972725
0.972759
0.97276
0.972659
0.972467
0.972287
0.97208
0.971964
0.971923
0.971926
0.972016
0.972077
0.972161
0.972183
0.972168
0.971895
0.971204
0.969621
0.966788
0.9622
0.955771
0.947874
0.941272
0.938257
0.936733
0.936172
0.935019
0.931211
0.924794
0.91745
0.909917
0.901862
0.893871
0.886647
0.882548
0.880497
0.880352
0.879969
0.878753
0.870543
0.848288
0.815847
0.800297
0.798773
0.80597
0.836488
0.865708
0.870015
0.860495
0.829536
0.768318
0.739065
0.730207
0.730926
0.7347
0.746236
0.769331
0.782048
0.787386
0.789017
0.786607
0.778895
0.765689
0.756489
0.75338
0.75377
0.756366
0.765915
0.780196
0.787309
0.791107
0.795823
0.805609
0.834231
0.896708
0.943058
0.972338
0.988805
0.995945
0.997575
0.997025
0.990474
0.950016
0.856245
0.826416
0.825586
0.822227
0.810613
0.80923
0.819001
0.86971
0.923437
0.946145
0.952157
0.952449
0.952032
0.952396
0.955253
0.966856
0.98071
0.989119
0.993587
0.995566
0.996068
0.995963
0.994959
0.991519
0.983537
0.972778
0.961563
0.955138
0.954401
0.95584
0.962935
0.967549
0.969033
0.969533
0.969794
0.97008
0.970755
0.972394
0.973015
0.972801
0.969752
0.595376
0.598798
0.766395
0.921276
0.938133
0.92368
0.885917
0.865476
0.853407
0.832006
0.790027
0.728648
0.652946
0.599817
0.585914
0.585699
0.58969
0.601792
0.621868
0.65109
0.68803
0.721965
0.738391
0.740052
0.712457
0.691834
0.685289
0.698503
0.726821
0.796074
0.88412
0.916876
0.92599
0.928738
0.930095
0.932346
0.937088
0.944302
0.95339
0.961316
0.964903
0.966796
0.968733
0.970483
0.971396
0.972304
0.972589
0.972642
0.972587
0.972379
0.972313
0.972341
0.97258
0.972954
0.973132
0.973201
0.973218
0.973215
0.973165
0.97314
0.973074
0.972987
0.972878
0.972712
0.972424
0.972206
0.972024
0.971796
0.971679
0.971656
0.971793
0.972123
0.972261
0.972334
0.972354
0.971695
0.971088
0.969902
0.968541
0.967284
0.966276
0.965483
0.964929
0.96436
0.963463
0.961911
0.95928
0.954747
0.947003
0.933074
0.916258
0.898035
0.885634
0.880267
0.878861
0.879226
0.878283
0.870998
0.847685
0.814335
0.805247
0.808258
0.82603
0.860544
0.868483
0.864604
0.84674
0.800919
0.754244
0.738023
0.73582
0.737391
0.742585
0.752856
0.765287
0.766216
0.763896
0.75889
0.756246
0.755308
0.755771
0.757757
0.763842
0.779656
0.794978
0.801148
0.802637
0.805335
0.813841
0.846075
0.910164
0.954442
0.979076
0.991677
0.997131
0.998436
0.997873
0.991383
0.951801
0.853016
0.813979
0.812286
0.812591
0.806674
0.803949
0.809109
0.845248
0.912642
0.95148
0.968519
0.974269
0.975761
0.976386
0.977594
0.981552
0.989214
0.994606
0.997432
0.998459
0.998623
0.998396
0.997084
0.992458
0.982996
0.971791
0.96157
0.95787
0.958373
0.963323
0.968242
0.968904
0.968735
0.967969
0.967829
0.968036
0.968504
0.969646
0.971924
0.972414
0.971287
0.598652
0.618096
0.820487
0.93255
0.93875
0.917743
0.88322
0.8661
0.8557
0.829889
0.783631
0.715586
0.632956
0.586807
0.573873
0.571952
0.574274
0.584464
0.601581
0.620894
0.637889
0.651526
0.66194
0.666435
0.666549
0.673174
0.687071
0.716387
0.785368
0.875632
0.914712
0.927681
0.931424
0.932767
0.933698
0.936272
0.94126
0.948798
0.957901
0.963682
0.966152
0.967856
0.969855
0.971078
0.971749
0.972339
0.972505
0.972481
0.97229
0.972205
0.972197
0.972271
0.972512
0.972664
0.97268
0.972588
0.972452
0.972376
0.972362
0.972599
0.97272
0.972884
0.972946
0.972952
0.972908
0.972904
0.972882
0.972867
0.972854
0.972491
0.971863
0.97124
0.971042
0.970992
0.971318
0.971519
0.971528
0.971355
0.970852
0.970242
0.969594
0.968995
0.968604
0.968457
0.968432
0.968521
0.968719
0.968913
0.968776
0.967682
0.964371
0.956487
0.938877
0.91471
0.89132
0.879213
0.8765
0.877056
0.876007
0.867885
0.841772
0.816653
0.816271
0.823523
0.845711
0.862969
0.863873
0.856611
0.83421
0.785986
0.757397
0.745284
0.744355
0.74522
0.745901
0.74764
0.751033
0.753605
0.755381
0.758251
0.763301
0.769649
0.78202
0.802495
0.811552
0.812678
0.812927
0.815073
0.824795
0.861787
0.924311
0.964865
0.985475
0.994586
0.99828
0.999094
0.99855
0.99265
0.956384
0.854622
0.804253
0.800398
0.802072
0.800427
0.799055
0.802659
0.829577
0.900782
0.949746
0.974847
0.985405
0.988947
0.989929
0.990635
0.992406
0.995963
0.998278
0.999267
0.999531
0.999507
0.999125
0.997606
0.992481
0.980164
0.96833
0.962703
0.96281
0.967119
0.970194
0.969765
0.968141
0.965562
0.965507
0.966141
0.967391
0.968094
0.968556
0.96959
0.971402
0.971182
0.605321
0.638761
0.852016
0.93819
0.940846
0.915235
0.883717
0.874223
0.864158
0.837676
0.786973
0.714029
0.631297
0.587939
0.575126
0.572754
0.57476
0.584768
0.601826
0.618447
0.627865
0.634164
0.64293
0.653225
0.664437
0.68066
0.713658
0.787503
0.873113
0.91336
0.929073
0.934056
0.935471
0.936027
0.937014
0.939561
0.944576
0.952378
0.961226
0.965235
0.967123
0.968515
0.97028
0.971233
0.971752
0.972234
0.972319
0.972313
0.97211
0.97195
0.97187
0.971747
0.971468
0.970767
0.969811
0.969017
0.968473
0.968252
0.968579
0.969298
0.970559
0.971394
0.972265
0.972665
0.972853
0.972928
0.972961
0.973043
0.973377
0.974095
0.97458
0.97465
0.973338
0.971543
0.970613
0.970016
0.96968
0.969432
0.969146
0.96887
0.968376
0.967843
0.967464
0.96733
0.967373
0.967792
0.968557
0.969461
0.970409
0.971214
0.971739
0.971207
0.969428
0.965411
0.955604
0.93013
0.898354
0.876395
0.872022
0.873225
0.871741
0.863634
0.84028
0.827194
0.828293
0.835669
0.85437
0.8616
0.860246
0.852508
0.834884
0.801631
0.776289
0.764415
0.757732
0.757803
0.759124
0.762507
0.767001
0.775019
0.784835
0.795899
0.814494
0.824822
0.823826
0.820692
0.820118
0.822563
0.837104
0.889355
0.944223
0.974347
0.989119
0.995922
0.998759
0.999506
0.999262
0.995321
0.967499
0.866145
0.801139
0.790174
0.792266
0.793633
0.793956
0.79748
0.820699
0.890526
0.945103
0.97425
0.987999
0.993432
0.995029
0.996042
0.997526
0.998836
0.999544
0.999793
0.99982
0.999719
0.999195
0.997163
0.990413
0.980143
0.974689
0.974261
0.975133
0.974359
0.971884
0.965771
0.963233
0.963519
0.964482
0.967048
0.969136
0.969495
0.969361
0.969513
0.970119
0.97043
0.614123
0.657515
0.87073
0.942582
0.942658
0.915174
0.888926
0.879698
0.872657
0.854765
0.815629
0.760043
0.691011
0.625623
0.598388
0.588679
0.586915
0.594049
0.61263
0.626083
0.63225
0.637468
0.648157
0.663983
0.687052
0.730169
0.807635
0.878185
0.914593
0.930481
0.936215
0.937778
0.938204
0.938405
0.939454
0.942307
0.947553
0.955847
0.962907
0.965843
0.967368
0.968933
0.970407
0.971194
0.97168
0.972002
0.972031
0.971902
0.971661
0.971329
0.970943
0.970034
0.967667
0.963494
0.960083
0.957831
0.956513
0.956072
0.957617
0.959843
0.963309
0.966396
0.969077
0.971136
0.972223
0.972736
0.972892
0.97292
0.972887
0.973308
0.974762
0.976408
0.977683
0.978369
0.976804
0.973945
0.971495
0.96995
0.968815
0.96782
0.966945
0.966126
0.965489
0.965147
0.96517
0.965546
0.96647
0.967919
0.969576
0.971121
0.972423
0.973329
0.973376
0.972661
0.971135
0.96847
0.96302
0.946408
0.899397
0.866161
0.860662
0.863309
0.862991
0.858475
0.844104
0.838194
0.839483
0.844653
0.855935
0.858868
0.857986
0.854283
0.84652
0.833739
0.820453
0.810617
0.807279
0.808469
0.81198
0.819184
0.825935
0.831975
0.835206
0.833643
0.828254
0.82398
0.824473
0.831067
0.857786
0.921958
0.965127
0.986245
0.994722
0.998024
0.999355
0.999783
0.999722
0.997917
0.980123
0.889606
0.804404
0.782741
0.782693
0.78516
0.787588
0.793805
0.82078
0.890367
0.942929
0.973048
0.988002
0.994479
0.997033
0.998279
0.999122
0.999634
0.999859
0.999911
0.99989
0.999732
0.998996
0.996003
0.991448
0.987894
0.98559
0.983309
0.978953
0.969445
0.961683
0.960833
0.961617
0.963548
0.967973
0.972002
0.973809
0.973844
0.973198
0.970981
0.970393
0.970205
0.624241
0.675154
0.885159
0.946513
0.945722
0.919047
0.896608
0.890478
0.886555
0.874823
0.846291
0.802319
0.757673
0.712971
0.670296
0.650854
0.643237
0.642886
0.656394
0.659663
0.661164
0.671304
0.695011
0.732824
0.782437
0.84387
0.890738
0.919244
0.932781
0.938302
0.940061
0.940474
0.940047
0.940125
0.941016
0.943751
0.949575
0.958106
0.963918
0.966357
0.967598
0.969011
0.970357
0.971088
0.971493
0.971743
0.971811
0.971689
0.971359
0.970775
0.969497
0.965961
0.9594
0.953898
0.949865
0.946912
0.944992
0.944281
0.944627
0.946356
0.94989
0.955804
0.961109
0.966014
0.969565
0.971741
0.972697
0.972986
0.972857
0.972586
0.972515
0.97451
0.977583
0.98016
0.982302
0.98342
0.982312
0.979626
0.976654
0.973736
0.971539
0.969795
0.968431
0.967486
0.967012
0.966945
0.967168
0.968099
0.969543
0.971028
0.972496
0.973973
0.97477
0.974839
0.974437
0.973078
0.970486
0.968369
0.965867
0.957364
0.915747
0.874272
0.860788
0.858081
0.855677
0.853041
0.847076
0.846195
0.847127
0.849811
0.854971
0.857202
0.857399
0.857053
0.85644
0.854801
0.851896
0.849374
0.847762
0.846412
0.844607
0.842948
0.840663
0.835803
0.829291
0.828609
0.831681
0.846837
0.896832
0.954291
0.983388
0.993988
0.997826
0.999233
0.99976
0.999917
0.999895
0.999138
0.989556
0.921283
0.816668
0.780944
0.776145
0.776973
0.779931
0.789394
0.825169
0.894919
0.94495
0.973842
0.988412
0.995014
0.997797
0.999
0.999576
0.999842
0.999931
0.999936
0.999892
0.999628
0.998534
0.994827
0.988738
0.981219
0.976033
0.967339
0.959945
0.957584
0.95803
0.959789
0.964493
0.970987
0.974198
0.97586
0.976557
0.976565
0.976274
0.974807
0.971677
0.970613
0.636068
0.693125
0.894637
0.951414
0.951299
0.928405
0.903981
0.898396
0.896941
0.894928
0.882816
0.85516
0.822311
0.800514
0.780691
0.764051
0.756537
0.754049
0.757554
0.757497
0.765778
0.787869
0.814186
0.847884
0.877999
0.907302
0.926638
0.936267
0.94076
0.942467
0.942907
0.942076
0.941718
0.941808
0.942789
0.945603
0.951693
0.959245
0.964256
0.966426
0.967943
0.969283
0.970308
0.970856
0.971152
0.971313
0.971332
0.971224
0.970733
0.96938
0.966078
0.959728
0.952625
0.947452
0.943957
0.941641
0.940637
0.940432
0.940714
0.94161
0.943714
0.948058
0.954248
0.960462
0.965535
0.968891
0.971326
0.972719
0.973122
0.97287
0.972045
0.971384
0.97296
0.977813
0.982203
0.985459
0.987745
0.988806
0.988752
0.987417
0.985175
0.982918
0.981013
0.979448
0.977962
0.976904
0.976168
0.975487
0.974999
0.974897
0.975108
0.975555
0.976097
0.976157
0.975902
0.97514
0.973926
0.970829
0.968497
0.967643
0.966756
0.959951
0.930671
0.887891
0.868268
0.859415
0.854639
0.851355
0.850002
0.8502
0.850813
0.852349
0.854662
0.855922
0.856281
0.856264
0.856045
0.855279
0.853291
0.850708
0.847374
0.844503
0.841122
0.834879
0.833295
0.835481
0.84606
0.880373
0.948286
0.980682
0.992942
0.997442
0.999082
0.999677
0.999898
0.999967
0.999961
0.999661
0.995416
0.955118
0.842215
0.786375
0.773776
0.773324
0.776436
0.789924
0.838787
0.905509
0.950643
0.976604
0.989733
0.99571
0.998242
0.999294
0.999738
0.999908
0.999947
0.999936
0.999811
0.999118
0.995682
0.983643
0.966943
0.959201
0.956032
0.954678
0.954918
0.955917
0.958913
0.966765
0.972558
0.975136
0.976288
0.976867
0.97723
0.977302
0.97724
0.97679
0.974598
0.971802
0.649581
0.714035
0.904311
0.956368
0.956878
0.938294
0.91184
0.904807
0.9044
0.906113
0.906804
0.896947
0.876869
0.862216
0.854394
0.847674
0.844572
0.84347
0.847017
0.850528
0.863957
0.875002
0.887876
0.909363
0.921575
0.93252
0.93988
0.943168
0.944643
0.945068
0.944529
0.94349
0.94324
0.943325
0.944191
0.947442
0.953533
0.959886
0.964111
0.966299
0.967895
0.969306
0.970266
0.970724
0.970939
0.971033
0.970992
0.970793
0.970335
0.969157
0.966118
0.95978
0.952707
0.947436
0.943917
0.941592
0.940252
0.939799
0.939888
0.940492
0.94201
0.945487
0.951401
0.958355
0.964205
0.967864
0.970067
0.971557
0.97282
0.973183
0.972982
0.971387
0.969799
0.970354
0.976692
0.983778
0.988086
0.990623
0.99219
0.99303
0.993137
0.992586
0.991403
0.990161
0.988902
0.987374
0.985361
0.982911
0.980563
0.978843
0.97788
0.977392
0.977139
0.976977
0.976487
0.975206
0.974585
0.97415
0.972946
0.968304
0.965682
0.965753
0.964906
0.958945
0.93623
0.895751
0.873634
0.861597
0.855334
0.852327
0.851437
0.851359
0.851466
0.852121
0.852877
0.852934
0.852739
0.852211
0.851246
0.849448
0.845608
0.841631
0.83815
0.836396
0.838593
0.848295
0.876301
0.943061
0.97901
0.992475
0.997319
0.999041
0.999658
0.999879
0.999961
0.999988
0.999987
0.999881
0.998261
0.980148
0.886848
0.805379
0.779074
0.775445
0.778883
0.799162
0.862143
0.921344
0.959671
0.981238
0.991891
0.996651
0.998657
0.999484
0.99982
0.999934
0.999948
0.999897
0.999507
0.997107
0.984184
0.964186
0.956198
0.953739
0.953353
0.953616
0.954841
0.958967
0.968395
0.972999
0.975136
0.976079
0.976595
0.976875
0.977104
0.97721
0.977201
0.977026
0.97623
0.973504
0.663929
0.737923
0.913643
0.960268
0.96219
0.952137
0.925844
0.910605
0.908335
0.910382
0.91707
0.919568
0.91464
0.903093
0.898727
0.896784
0.896345
0.899478
0.902015
0.90493
0.911457
0.915633
0.924901
0.934123
0.938402
0.942634
0.945146
0.946162
0.946514
0.946523
0.945632
0.944534
0.944233
0.944195
0.945151
0.948411
0.953955
0.959707
0.963773
0.966024
0.967717
0.969221
0.970195
0.970662
0.970863
0.970928
0.970891
0.970718
0.970329
0.969325
0.966803
0.961113
0.954287
0.948838
0.945154
0.942764
0.941165
0.940815
0.941028
0.941726
0.943235
0.945701
0.951036
0.958183
0.964162
0.967859
0.969901
0.971272
0.972186
0.972991
0.973168
0.972909
0.970537
0.968236
0.968441
0.97503
0.983807
0.988988
0.992023
0.993872
0.995031
0.995728
0.996114
0.996162
0.995829
0.994767
0.99238
0.988272
0.983814
0.980811
0.979152
0.978123
0.977327