/*--------------------------------*- C++ -*----------------------------------*\
| =========                 |                                                 |
| \\      /  F ield         | OpenFOAM: The Open Source CFD Toolbox           |
|  \\    /   O peration     | Version:  2112                                  |
|   \\  /    A nd           | Website:  www.openfoam.com                      |
|    \\/     M anipulation  |                                                 |
\*---------------------------------------------------------------------------*/
FoamFile
{
    version     2.0;
    format      ascii;
    arch        "LSB;label=32;scalar=64";
    class       surfaceScalarField;
    location    "0.58";
    object      ddtCorrDdt0(phi);
}
// * * * * * * * * * * * * * * * * * * * * * * * * * * * * * * * * * * * * * //

dimensions      [0 3 -2 0 0 0 0];

oriented        oriented;

internalField   nonuniform List<scalar> 
24170
(
-6.12629e-08
6.12638e-08
-2.14107e-07
1.52846e-07
-4.71647e-07
2.57542e-07
-8.40568e-07
3.68924e-07
-1.312e-06
4.71429e-07
-1.87508e-06
5.63089e-07
-2.51651e-06
6.41429e-07
-3.22884e-06
7.12337e-07
-4.01035e-06
7.81514e-07
-4.86213e-06
8.51774e-07
-5.79185e-06
9.29729e-07
-6.81286e-06
1.02101e-06
-7.94646e-06
1.13361e-06
-9.22014e-06
1.27368e-06
-1.06635e-05
1.44336e-06
-1.22947e-05
1.63121e-06
-1.42411e-05
1.9464e-06
2.39048e-06
-1.66316e-05
1.12413e-08
5.00233e-08
-5.53078e-09
1.6962e-07
-6.37098e-08
3.15723e-07
-1.88733e-07
4.93949e-07
-4.07353e-07
6.90052e-07
-7.42426e-07
8.98165e-07
-1.2039e-06
1.1029e-06
-1.79679e-06
1.30523e-06
-2.5269e-06
1.51163e-06
-3.39971e-06
1.72459e-06
-4.42296e-06
1.95298e-06
-5.60422e-06
2.20227e-06
-6.95464e-06
2.48403e-06
-8.49441e-06
2.81346e-06
-1.0256e-05
3.20497e-06
-1.23206e-05
3.69583e-06
-1.46692e-05
4.29497e-06
4.97603e-06
-1.72548e-05
-1.25634e-08
6.25877e-08
-5.69186e-08
2.13977e-07
-1.25977e-07
3.84783e-07
-2.1127e-07
5.79245e-07
-3.12352e-07
7.91136e-07
-4.44321e-07
1.03014e-06
-6.19704e-07
1.27829e-06
-8.45153e-07
1.53068e-06
-1.13882e-06
1.80529e-06
-1.52573e-06
2.1115e-06
-2.02262e-06
2.44987e-06
-2.64354e-06
2.82319e-06
-3.40414e-06
3.24464e-06
-4.32493e-06
3.73425e-06
-5.44844e-06
4.32848e-06
-6.7912e-06
5.03859e-06
-8.38956e-06
5.89333e-06
6.89444e-06
-1.0308e-05
-2.02641e-08
8.28528e-08
-7.7111e-08
2.70826e-07
-1.70687e-07
4.78361e-07
-3.05465e-07
7.14025e-07
-4.82413e-07
9.68087e-07
-6.93763e-07
1.24149e-06
-9.39868e-07
1.5244e-06
-1.22136e-06
1.81218e-06
-1.53832e-06
2.12225e-06
-1.89776e-06
2.47095e-06
-2.3108e-06
2.86291e-06
-2.7828e-06
3.29519e-06
-3.31337e-06
3.77521e-06
-3.90809e-06
4.32898e-06
-4.55553e-06
4.97592e-06
-5.24704e-06
5.73009e-06
-5.99336e-06
6.63965e-06
7.7512e-06
-6.85013e-06
-2.39218e-08
1.06776e-07
-8.92739e-08
3.3618e-07
-1.94366e-07
5.83456e-07
-3.318e-07
8.51461e-07
-5.08968e-07
1.14526e-06
-7.29775e-07
1.4623e-06
-1.01068e-06
1.80531e-06
-1.35658e-06
2.15808e-06
-1.75192e-06
2.51759e-06
-2.20641e-06
2.92544e-06
-2.72816e-06
3.38466e-06
-3.31838e-06
3.88541e-06
-3.97242e-06
4.42926e-06
-4.68843e-06
5.04498e-06
-5.48753e-06
5.77503e-06
-6.36142e-06
6.60398e-06
-7.26828e-06
7.54652e-06
8.65974e-06
-8.17681e-06
-2.54362e-08
1.32213e-07
-9.72123e-08
4.07958e-07
-2.12557e-07
6.98802e-07
-3.65959e-07
1.00487e-06
-5.58013e-07
1.33731e-06
-7.86557e-07
1.69084e-06
-1.05257e-06
2.07132e-06
-1.38569e-06
2.49121e-06
-1.78846e-06
2.92036e-06
-2.25165e-06
3.38864e-06
-2.78262e-06
3.91564e-06
-3.39219e-06
4.49498e-06
-4.07774e-06
5.11481e-06
-4.82894e-06
5.79618e-06
-5.64562e-06
6.59171e-06
-6.51775e-06
7.47611e-06
-7.43282e-06
8.4616e-06
9.58291e-06
-8.35599e-06
-2.60728e-08
1.58287e-07
-1.01466e-07
4.83353e-07
-2.23652e-07
8.2099e-07
-3.9178e-07
1.173e-06
-6.02038e-07
1.54757e-06
-8.51851e-07
1.94066e-06
-1.13124e-06
2.35071e-06
-1.44208e-06
2.80206e-06
-1.81742e-06
3.29569e-06
-2.25372e-06
3.82494e-06
-2.74599e-06
4.40791e-06
-3.31317e-06
5.06216e-06
-3.98284e-06
5.78448e-06
-4.7474e-06
6.56075e-06
-5.55912e-06
7.40343e-06
-6.41035e-06
8.32734e-06
-7.29383e-06
9.34507e-06
1.047e-05
-8.18088e-06
-2.64051e-08
1.84693e-07
-1.04061e-07
5.61011e-07
-2.30815e-07
9.47746e-07
-4.06237e-07
1.34842e-06
-6.27533e-07
1.76887e-06
-8.94319e-07
2.20745e-06
-1.20761e-06
2.664e-06
-1.55061e-06
3.14506e-06
-1.93269e-06
3.67777e-06
-2.36184e-06
4.2541e-06
-2.83032e-06
4.87639e-06
-3.32935e-06
5.5612e-06
-3.88764e-06
6.34277e-06
-4.57416e-06
7.24726e-06
-5.35868e-06
8.18796e-06
-6.18808e-06
9.15675e-06
-7.04488e-06
1.02019e-05
1.13295e-05
-7.90445e-06
-2.65934e-08
2.11288e-07
-1.05669e-07
6.40089e-07
-2.35222e-07
1.0773e-06
-4.1467e-07
1.52787e-06
-6.42422e-07
1.99663e-06
-9.1875e-07
2.48378e-06
-1.24553e-06
2.99079e-06
-1.62308e-06
3.52261e-06
-2.04314e-06
4.09783e-06
-2.50438e-06
4.71535e-06
-3.00108e-06
5.37309e-06
-3.52109e-06
6.08122e-06
-4.04404e-06
6.86572e-06
-4.5795e-06
7.78272e-06
-5.20984e-06
8.81831e-06
-5.93908e-06
9.88599e-06
-6.71773e-06
1.09805e-05
1.2128e-05
-7.51621e-06
-2.66132e-08
2.37903e-07
-1.06286e-07
7.19764e-07
-2.37078e-07
1.2081e-06
-4.1824e-07
1.70904e-06
-6.48608e-07
2.227e-06
-9.28317e-07
2.76349e-06
-1.25881e-06
3.32128e-06
-1.6413e-06
3.90511e-06
-2.06945e-06
4.52597e-06
-2.54082e-06
5.18672e-06
-3.05358e-06
5.88585e-06
-3.6038e-06
6.63144e-06
-4.18422e-06
7.44614e-06
-4.73337e-06
8.33188e-06
-5.24379e-06
9.32874e-06
-5.80261e-06
1.04448e-05
-6.434e-06
1.16119e-05
1.27961e-05
-7.10205e-06
-2.64105e-08
2.64315e-07
-1.05676e-07
7.99032e-07
-2.35968e-07
1.33839e-06
-4.163e-07
1.88937e-06
-6.45515e-07
2.45622e-06
-9.23349e-07
3.04133e-06
-1.25015e-06
3.64808e-06
-1.62584e-06
4.2808e-06
-2.04667e-06
4.94681e-06
-2.50992e-06
5.64997e-06
-3.01424e-06
6.39017e-06
-3.55614e-06
7.17335e-06
-4.12491e-06
8.01492e-06
-4.70782e-06
8.9148e-06
-5.24051e-06
9.86143e-06
-5.6897e-06
1.0894e-05
-6.14475e-06
1.2067e-05
1.32784e-05
-6.62713e-06
-2.20434e-08
2.8636e-07
-8.76396e-08
8.64631e-07
-1.95698e-07
1.44645e-06
-3.45089e-07
2.03876e-06
-5.34621e-07
2.64575e-06
-7.63618e-07
3.27033e-06
-1.03154e-06
3.91601e-06
-1.3375e-06
4.58676e-06
-1.67875e-06
5.28806e-06
-2.05238e-06
6.02361e-06
-2.45645e-06
6.79425e-06
-2.88761e-06
7.6045e-06
-3.33676e-06
8.46407e-06
-3.794e-06
9.37205e-06
-4.2505e-06
1.03179e-05
-4.65765e-06
1.13012e-05
-4.97106e-06
1.23804e-05
1.34956e-05
-5.18821e-06
-2.432e-08
3.10682e-07
-9.69995e-08
9.37313e-07
-2.16396e-07
1.56585e-06
-3.81024e-07
2.2034e-06
-5.89334e-07
2.85406e-06
-8.3996e-07
3.52096e-06
-1.1314e-06
4.20746e-06
-1.46171e-06
4.91707e-06
-1.82746e-06
5.65382e-06
-2.22463e-06
6.42078e-06
-2.64966e-06
7.21929e-06
-3.09743e-06
8.05227e-06
-3.55781e-06
8.92446e-06
-4.02008e-06
9.83433e-06
-4.47763e-06
1.07755e-05
-4.92186e-06
1.17454e-05
-5.29153e-06
1.27501e-05
1.37548e-05
-5.55071e-06
-2.58689e-08
3.36553e-07
-1.03145e-07
1.01459e-06
-2.29676e-07
1.69238e-06
-4.03374e-07
2.3771e-06
-6.22101e-07
3.0728e-06
-8.83521e-07
3.78238e-06
-1.18488e-06
4.50882e-06
-1.5228e-06
5.25499e-06
-1.89267e-06
6.0237e-06
-2.28895e-06
6.81706e-06
-2.70576e-06
7.6361e-06
-3.1355e-06
8.48202e-06
-3.56713e-06
9.35609e-06
-3.98897e-06
1.02562e-05
-4.39021e-06
1.11767e-05
-4.75995e-06
1.21151e-05
-5.07594e-06
1.30661e-05
1.40221e-05
-5.34329e-06
-2.57802e-08
3.62336e-07
-1.02529e-07
1.09135e-06
-2.27546e-07
1.81741e-06
-3.97915e-07
2.54747e-06
-6.10573e-07
3.28546e-06
-8.61927e-07
4.03374e-06
-1.14766e-06
4.79455e-06
-1.46262e-06
5.56997e-06
-1.80052e-06
6.3616e-06
-2.15386e-06
7.17041e-06
-2.5142e-06
7.99644e-06
-2.87142e-06
8.83925e-06
-3.213e-06
9.69767e-06
-3.52559e-06
1.05688e-05
-3.79641e-06
1.14476e-05
-4.01062e-06
1.23293e-05
-4.15207e-06
1.32075e-05
1.40783e-05
-4.20826e-06
-2.235e-08
3.8469e-07
-8.93143e-08
1.15831e-06
-1.97252e-07
1.92535e-06
-3.42287e-07
2.69251e-06
-5.20093e-07
3.46327e-06
-7.25575e-07
4.23923e-06
-9.52722e-07
5.0217e-06
-1.19435e-06
5.81159e-06
-1.44214e-06
6.6094e-06
-1.68651e-06
7.41479e-06
-1.91662e-06
8.22656e-06
-2.12019e-06
9.04283e-06
-2.28338e-06
9.86087e-06
-2.39135e-06
1.06767e-05
-2.42912e-06
1.14853e-05
-2.38108e-06
1.22813e-05
-2.2317e-06
1.30581e-05
1.38135e-05
-1.96686e-06
-1.4063e-08
3.98756e-07
-5.58572e-08
1.20011e-06
-1.20985e-07
1.99048e-06
-2.04885e-07
2.77642e-06
-3.01886e-07
3.56028e-06
-4.05117e-07
4.34246e-06
-5.07089e-07
5.12368e-06
-5.98853e-07
5.90336e-06
-6.70453e-07
6.681e-06
-7.1064e-07
7.45498e-06
-7.06993e-07
8.22291e-06
-6.45955e-07
8.98179e-06
-5.1303e-07
9.72795e-06
-2.93279e-07
1.0457e-05
2.81206e-08
1.11639e-05
4.65816e-07
1.18436e-05
1.03404e-06
1.24899e-05
1.31019e-05
1.74563e-06
-2.54548e-09
4.01306e-07
2.50316e-09
1.19507e-06
1.74828e-08
1.9755e-06
4.75824e-08
2.74632e-06
9.89196e-08
3.50894e-06
1.78509e-07
4.26288e-06
2.95125e-07
5.00707e-06
4.58299e-07
5.74019e-06
6.78729e-07
6.46058e-06
9.67899e-07
7.16581e-06
1.33804e-06
7.85278e-06
1.80189e-06
8.51794e-06
2.37239e-06
9.15744e-06
3.06227e-06
9.76711e-06
3.88365e-06
1.03426e-05
4.84778e-06
1.08795e-05
5.96472e-06
1.1373e-05
1.18234e-05
7.24316e-06
2.89228e-08
3.72386e-07
1.17623e-07
1.10637e-06
2.6885e-07
1.82428e-06
4.86791e-07
2.52838e-06
7.77029e-07
3.21871e-06
1.1462e-06
3.89371e-06
1.6017e-06
4.55157e-06
2.15144e-06
5.19045e-06
2.80388e-06
5.80813e-06
3.56787e-06
6.40183e-06
4.45225e-06
6.96839e-06
5.46566e-06
7.50454e-06
6.61607e-06
8.00703e-06
7.9105e-06
8.47269e-06
9.35464e-06
8.89843e-06
1.09527e-05
9.28147e-06
1.2707e-05
9.61869e-06
9.91164e-06
1.46188e-05
3.86852e-08
3.33703e-07
1.51799e-07
9.9326e-07
3.40192e-07
1.63589e-06
6.05036e-07
2.26354e-06
9.48191e-07
2.87555e-06
1.37196e-06
3.46995e-06
1.87888e-06
4.04465e-06
2.47167e-06
4.59766e-06
3.1531e-06
5.1267e-06
3.92582e-06
5.62911e-06
4.79222e-06
6.10199e-06
5.75424e-06
6.54252e-06
6.81312e-06
6.94815e-06
7.96926e-06
7.31655e-06
9.22199e-06
7.6457e-06
1.05696e-05
7.93385e-06
1.20092e-05
8.17908e-06
8.38333e-06
1.35375e-05
4.26376e-08
2.91067e-07
1.69245e-07
8.66654e-07
3.7883e-07
1.4263e-06
6.70808e-07
1.97156e-06
1.04505e-06
2.50131e-06
1.50162e-06
3.01337e-06
2.0407e-06
3.50557e-06
2.6625e-06
3.97586e-06
3.36711e-06
4.42209e-06
4.15446e-06
4.84176e-06
5.02415e-06
5.2323e-06
5.97532e-06
5.59135e-06
7.00648e-06
5.91699e-06
8.11528e-06
6.20776e-06
9.2984e-06
6.46259e-06
1.05517e-05
6.68053e-06
1.18703e-05
6.86045e-06
7.00436e-06
1.32493e-05
4.33337e-08
2.47735e-07
1.72279e-07
7.37711e-07
3.84499e-07
1.21409e-06
6.78176e-07
1.67789e-06
1.05184e-06
2.12765e-06
1.504e-06
2.56122e-06
2.03325e-06
2.97632e-06
2.63826e-06
3.37085e-06
3.31764e-06
3.74271e-06
4.06982e-06
4.08959e-06
4.89294e-06
4.40917e-06
5.78475e-06
4.69955e-06
6.74256e-06
4.95918e-06
7.76287e-06
5.18745e-06
8.84109e-06
5.38437e-06
9.97202e-06
5.54961e-06
1.11502e-05
5.68231e-06
5.78433e-06
1.23702e-05
4.19947e-08
2.05743e-07
1.66659e-07
6.13049e-07
3.70717e-07
1.01003e-06
6.51769e-07
1.39684e-06
1.0074e-06
1.77202e-06
1.43498e-06
2.13364e-06
1.93211e-06
2.47919e-06
2.49669e-06
2.80628e-06
3.1266e-06
3.1128e-06
3.81963e-06
3.39656e-06
4.57336e-06
3.65545e-06
5.38492e-06
3.88799e-06
6.25148e-06
4.09262e-06
7.16875e-06
4.27018e-06
8.1316e-06
4.42152e-06
9.13472e-06
4.54649e-06
1.01728e-05
4.64423e-06
4.71644e-06
1.12407e-05
3.96145e-08
1.66131e-07
1.56501e-07
4.96166e-07
3.46764e-07
8.19773e-07
6.08014e-07
1.13559e-06
9.36709e-07
1.44333e-06
1.32917e-06
1.74118e-06
1.78257e-06
2.02579e-06
2.29469e-06
2.29416e-06
2.86348e-06
2.54401e-06
3.48673e-06
2.77331e-06
4.1618e-06
2.98039e-06
4.88562e-06
3.16417e-06
5.6575e-06
3.32075e-06
6.47114e-06
3.45655e-06
7.31962e-06
3.57304e-06
8.19892e-06
3.66719e-06
9.10503e-06
3.73812e-06
3.78793e-06
1.00335e-05
3.69256e-08
1.29209e-07
1.44136e-07
3.8896e-07
3.17555e-07
6.46358e-07
5.55265e-07
8.97885e-07
8.52295e-07
1.1463e-06
1.20385e-06
1.38964e-06
1.60729e-06
1.62234e-06
2.06089e-06
1.84057e-06
2.56331e-06
2.04159e-06
3.11282e-06
2.2238e-06
3.70643e-06
2.38678e-06
4.33933e-06
2.53127e-06
5.0098e-06
2.65028e-06
5.71512e-06
2.75123e-06
6.44817e-06
2.84e-06
7.20764e-06
2.90772e-06
7.99109e-06
2.95467e-06
2.98489e-06
8.79414e-06
3.43021e-08
9.49103e-08
1.30116e-07
2.9315e-07
2.83993e-07
4.92485e-07
4.92175e-07
6.89707e-07
7.50255e-07
8.88228e-07
1.05466e-06
1.08524e-06
1.40375e-06
1.27326e-06
1.7956e-06
1.44873e-06
2.22914e-06
1.60805e-06
2.70307e-06
1.74988e-06
3.2146e-06
1.87525e-06
3.75917e-06
1.98671e-06
4.32685e-06
2.0826e-06
4.92197e-06
2.15612e-06
5.5459e-06
2.21608e-06
6.19455e-06
2.25907e-06
6.86482e-06
2.28441e-06
2.29829e-06
7.55141e-06
2.95911e-08
6.53223e-08
1.10635e-07
2.1211e-07
2.4139e-07
3.61736e-07
4.13992e-07
5.17109e-07
6.26841e-07
6.75384e-07
8.79937e-07
8.32147e-07
1.16951e-06
9.8369e-07
1.49129e-06
1.12695e-06
1.84323e-06
1.25612e-06
2.22395e-06
1.36916e-06
2.63213e-06
1.46709e-06
3.0673e-06
1.55154e-06
3.53247e-06
1.61743e-06
4.02452e-06
1.66407e-06
4.54017e-06
1.70043e-06
5.0739e-06
1.72534e-06
5.61957e-06
1.73875e-06
1.74395e-06
6.17391e-06
1.79274e-08
4.73991e-08
7.75865e-08
1.52456e-07
1.73622e-07
2.65706e-07
3.02409e-07
3.88327e-07
4.60313e-07
5.17485e-07
6.37492e-07
6.54974e-07
8.29833e-07
7.91354e-07
1.04358e-06
9.13207e-07
1.2879e-06
1.01181e-06
1.56951e-06
1.08755e-06
1.89193e-06
1.14467e-06
2.25798e-06
1.1855e-06
2.66706e-06
1.20836e-06
3.11743e-06
1.21371e-06
3.60687e-06
1.211e-06
4.13078e-06
1.20144e-06
4.68808e-06
1.18145e-06
1.15577e-06
5.27627e-06
-8.35783e-09
5.5762e-08
9.27897e-09
1.34826e-07
6.23354e-08
2.12656e-07
1.63223e-07
2.87446e-07
3.19125e-07
3.6159e-07
5.38675e-07
4.35431e-07
8.31961e-07
4.98074e-07
1.2034e-06
5.41772e-07
1.6514e-06
5.63821e-07
2.17026e-06
5.687e-07
2.75225e-06
5.62681e-07
3.38855e-06
5.49204e-07
4.06808e-06
5.28833e-07
4.77883e-06
5.02968e-07
5.51288e-06
4.76952e-07
6.26205e-06
4.52271e-07
7.017e-06
4.26495e-07
4.00511e-07
7.77226e-06
5.57625e-08
1.90589e-07
4.03245e-07
6.90692e-07
1.05228e-06
1.48771e-06
1.98579e-06
2.52756e-06
3.09138e-06
3.66008e-06
4.22277e-06
4.77197e-06
5.30081e-06
5.80378e-06
6.28073e-06
6.733e-06
7.1595e-06
7.56001e-06
-2.75484e-06
2.75483e-06
-5.96485e-06
3.21001e-06
-9.35714e-06
3.39228e-06
-1.26888e-05
3.33163e-06
-1.57296e-05
3.04084e-06
-1.84612e-05
2.7316e-06
-2.06497e-05
2.18848e-06
-2.19151e-05
1.26534e-06
-2.2201e-05
2.85917e-07
-2.15962e-05
-6.04825e-07
-2.02182e-05
-1.37803e-06
-1.81606e-05
-2.05754e-06
-1.54831e-05
-2.67751e-06
-1.22075e-05
-3.27559e-06
-8.30919e-06
-3.89836e-06
-3.71075e-06
-4.59845e-06
1.58216e-06
-5.29292e-06
7.50067e-06
-5.91852e-06
1.41474e-05
-6.64672e-06
2.15483e-05
-7.40094e-06
2.9571e-05
-8.0227e-06
3.88602e-05
-9.28921e-06
5.01006e-05
-1.12404e-05
6.32161e-05
-1.31156e-05
7.82679e-05
-1.50518e-05
9.54889e-05
-1.7221e-05
0.000115271
-1.97823e-05
0.000137798
-2.25271e-05
0.000162553
-2.47546e-05
0.000195739
-3.31864e-05
0.000229983
-3.42438e-05
0.000268397
-3.84139e-05
0.000308214
-3.98172e-05
0.000346291
-3.80774e-05
0.000383061
-3.67692e-05
0.000419717
-3.66561e-05
0.000457561
-3.78439e-05
0.000497567
-4.00067e-05
0.000539644
-4.20764e-05
0.000582475
-4.28312e-05
0.000623792
-4.13173e-05
0.0006605
-3.67079e-05
0.000689071
-2.8571e-05
0.000706067
-1.69959e-05
0.00070852
-2.45265e-06
0.000694271
1.42483e-05
0.000662357
3.19144e-05
0.00061197
5.03866e-05
0.000543208
6.8762e-05
0.000456633
8.65754e-05
0.000354165
0.000102468
0.000238047
0.000116118
0.000110618
0.000127428
-2.56582e-05
0.000136277
-0.000169421
0.000143763
-0.000317455
0.000148034
-0.000462181
0.000144726
-0.000605626
0.000143445
-0.000729184
0.000123558
-0.000841774
0.00011259
-0.000945612
0.000103838
-0.00104148
9.58713e-05
-0.0011277
8.62191e-05
-0.00120346
7.57619e-05
-0.00127114
6.76803e-05
-0.00132828
5.71331e-05
-0.00137345
4.51772e-05
-0.00140564
3.21858e-05
-0.001424
1.83564e-05
-0.00142793
3.92899e-06
-0.00141704
-1.08908e-05
-0.00139115
-2.58888e-05
-0.00135058
-4.05635e-05
-0.00129704
-5.35406e-05
-0.0012366
-6.04402e-05
-0.00117587
-6.07306e-05
-0.00110745
-6.84184e-05
-0.00102684
-8.06157e-05
-0.000937242
-8.95959e-05
-0.000836286
-0.000100956
-0.000725846
-0.00011044
-0.000612983
-0.000112864
-0.00050279
-0.000110192
-0.000398739
-0.000104051
-0.000303289
-9.545e-05
-0.000219482
-8.38071e-05
-0.000147872
-7.161e-05
-8.54233e-05
-6.24487e-05
-3.007e-05
-5.53533e-05
2.69118e-05
-5.69818e-05
0.000100663
-7.37509e-05
0.000177413
-7.67501e-05
0.000234527
-5.7114e-05
0.000253284
-1.87571e-05
0.000237226
1.6058e-05
0.000209994
2.72312e-05
0.000207971
2.02328e-06
0.000263132
-5.51612e-05
0.000383931
-0.000120799
0.000555065
-0.000171134
0.000754877
-0.000199812
0.000978601
-0.000223724
0.00122258
-0.000243976
0.00145257
-0.000229997
0.00163993
-0.000187361
0.00177381
-0.000133875
0.00185777
-8.39575e-05
0.00187653
-1.87602e-05
0.00183691
3.96191e-05
0.00174701
8.9894e-05
0.0016157
0.000131317
0.00145029
0.000165405
0.0012584
0.000191891
0.00104299
0.000215409
0.000810743
0.000232248
0.000570125
0.000240618
0.000324676
0.00024545
8.53898e-05
0.000239286
-0.000144128
0.000229518
-0.000337261
0.000193133
-0.000504445
0.000167184
-0.00065328
0.000148835
-0.000785645
0.000132365
-0.000901824
0.000116178
-0.00100224
0.000100415
-0.00108812
8.58778e-05
-0.00115884
7.07203e-05
-0.00121459
5.57533e-05
-0.00125082
3.62252e-05
-0.00126531
1.44938e-05
-0.00125604
-9.27086e-06
-0.00124065
-1.53857e-05
-0.00122485
-1.58046e-05
-0.00119356
-3.1291e-05
-0.00114322
-5.03358e-05
-0.00106441
-7.88091e-05
-0.000955449
-0.000108964
-0.000825313
-0.000130136
-0.000681827
-0.000143486
-0.000530723
-0.000151104
-0.000374004
-0.000156718
-0.000212141
-0.000161863
-4.49607e-05
-0.00016718
0.000124919
-0.00016988
0.000299516
-0.000174597
0.00042169
-0.000122174
0.000509185
-8.7495e-05
0.00055237
-4.31855e-05
0.000568741
-1.63709e-05
0.000566724
2.0164e-06
0.000551724
1.49996e-05
0.000527369
2.43552e-05
0.000495999
3.13694e-05
0.000459195
3.68043e-05
0.000418134
4.1061e-05
0.000373979
4.41547e-05
0.000328138
4.58413e-05
0.000282281
4.58578e-05
0.000238144
4.41368e-05
0.000197246
4.08978e-05
0.000160735
3.65117e-05
0.000129291
3.14442e-05
0.000102967
2.6323e-05
8.12994e-05
2.16679e-05
6.36275e-05
1.76717e-05
4.9831e-05
1.37964e-05
3.86915e-05
1.11393e-05
3.0469e-05
8.22235e-06
2.51689e-05
5.29993e-06
2.27453e-05
2.42358e-06
2.26132e-05
1.32076e-07
2.29505e-05
-3.37298e-07
2.03106e-05
2.63998e-06
1.024e-05
1.00707e-05
-9.33589e-06
1.95759e-05
-3.64258e-05
2.709e-05
-7.06878e-05
3.4262e-05
-0.000104076
3.33884e-05
-0.000128802
2.47257e-05
5.46774e-06
-0.00013427
-3.07969e-06
5.83451e-06
-7.05151e-06
7.18182e-06
-1.13969e-05
7.73765e-06
-1.57056e-05
7.64028e-06
-1.9627e-05
6.96231e-06
-2.2771e-05
5.87559e-06
-2.51318e-05
4.54921e-06
-2.68778e-05
3.01131e-06
-2.80064e-05
1.41458e-06
-2.84871e-05
-1.24191e-07
-2.83064e-05
-1.55872e-06
-2.74657e-05
-2.89831e-06
-2.59623e-05
-4.18088e-06
-2.37832e-05
-5.45472e-06
-2.09116e-05
-6.76999e-06
-1.73485e-05
-8.16153e-06
-1.28785e-05
-9.76288e-06
-7.21587e-06
-1.15812e-05
-1.96799e-07
-1.36658e-05
8.42744e-06
-1.60252e-05
1.91512e-05
-1.87465e-05
3.20044e-05
-2.21424e-05
4.69646e-05
-2.62006e-05
6.45484e-05
-3.06994e-05
8.49529e-05
-3.54563e-05
0.000108331
-4.05986e-05
0.000135556
-4.70075e-05
0.000167462
-5.44334e-05
0.000205246
-6.25383e-05
0.000244136
-7.20767e-05
0.00029058
-8.06874e-05
0.000337339
-8.51735e-05
0.000383737
-8.62149e-05
0.000430921
-8.52619e-05
0.000477969
-8.38172e-05
0.000523261
-8.19473e-05
0.00056421
-7.87928e-05
0.000597243
-7.30402e-05
0.00061874
-6.35731e-05
0.000625744
-4.98354e-05
0.0006162
-3.17732e-05
0.000589091
-9.59944e-06
0.000544537
1.59831e-05
0.000483727
4.38142e-05
0.000408794
7.2481e-05
0.000322633
0.000100408
0.000228224
0.000126324
0.000129061
0.00014955
2.8107e-05
0.000169716
-7.17183e-05
0.000186401
-0.000168796
0.000199546
-0.000261748
0.000209069
-0.000349517
0.000215198
-0.000431804
0.000218564
-0.000508065
0.000220023
-0.000579779
0.000219748
-0.000651299
0.000216245
-0.0007277
0.000219846
-0.000814543
0.000210401
-0.000908027
0.000206074
-0.00100124
0.000197047
-0.00109027
0.000184905
-0.00117405
0.00017
-0.0012518
0.000153513
-0.0013198
0.000135675
-0.00137629
0.00011363
-0.00142112
9.00031e-05
-0.00145392
6.49815e-05
-0.00147466
3.90981e-05
-0.00148375
1.30206e-05
-0.00148212
-1.25229e-05
-0.00147121
-3.67983e-05
-0.00145278
-5.89952e-05
-0.00142819
-7.81222e-05
-0.00139521
-9.34241e-05
-0.00135148
-0.000104461
-0.00129669
-0.000123212
-0.00123388
-0.000143426
-0.00115925
-0.000164226
-0.0010727
-0.000187503
-0.000972936
-0.000210204
-0.000859148
-0.000226651
-0.000734934
-0.000234406
-0.00060736
-0.000231626
-0.000483502
-0.000219308
-0.000365851
-0.000201457
-0.000256131
-0.000181331
-0.000155235
-0.000163344
-6.81057e-05
-0.000142482
-7.56289e-06
-0.000117525
1.84583e-05
-9.97722e-05
4.03446e-05
-9.86364e-05
9.90218e-05
-0.000115791
0.000198507
-0.000118242
0.000311133
-9.65678e-05
0.000403455
-6.50912e-05
0.00047993
-7.44516e-05
0.000594199
-0.000169431
0.000802938
-0.000329537
0.00111215
-0.000480347
0.00148071
-0.000568374
0.00184715
-0.000590167
0.00214918
-0.000546002
0.00235007
-0.000430886
0.00243422
-0.000271509
0.0024066
-0.000106257
0.00227973
4.29155e-05
0.00208847
0.000172492
0.00185402
0.00027407
0.00159579
0.00034813
0.00132898
0.00039812
0.00106562
0.000428766
0.000813084
0.000444429
0.000578546
0.000449946
0.000364199
0.000446595
0.000170981
0.000433837
1.22197e-06
0.000415208
-0.000151281
0.000391789
-0.000290335
0.000368571
-0.000434801
0.000337599
-0.000578944
0.000311327
-0.00071118
0.000281071
-0.000828872
0.000250057
-0.000932171
0.000219477
-0.00102083
0.000189074
-0.00109563
0.000160674
-0.00115713
0.000132224
-0.00120688
0.000105507
-0.0012491
7.84417e-05
-0.00127946
4.48552e-05
-0.00130074
1.20049e-05
-0.00130756
-8.55948e-06
-0.00128928
-3.40852e-05
-0.00124809
-7.24868e-05
-0.00118941
-0.000109016
-0.00111218
-0.000156035
-0.00101863
-0.000202517
-0.000917403
-0.00023136
-0.000809069
-0.000251819
-0.000685608
-0.000274564
-0.000544962
-0.000297364
-0.000388763
-0.000318062
-0.000219076
-0.000336867
-4.30839e-05
-0.000345872
0.000124612
-0.000342293
0.00028312
-0.000280681
0.000460417
-0.000264793
0.00060623
-0.000188998
0.000706511
-0.000116652
0.000760165
-5.16382e-05
0.000773467
1.69776e-06
0.000755273
4.25487e-05
0.000714489
7.2153e-05
0.000658558
9.27355e-05
0.000593257
0.000106362
0.000523096
0.000114316
0.000451755
0.000117182
0.000382329
0.000115285
0.000317333
0.000109132
0.000258577
9.96536e-05
0.000207147
8.79425e-05
0.000163461
7.513e-05
0.00012723
6.25534e-05
9.76534e-05
5.12449e-05
7.37767e-05
4.15482e-05
5.43239e-05
3.32491e-05
3.89983e-05
2.64647e-05
2.71495e-05
2.0071e-05
1.86032e-05
1.38461e-05
1.32523e-05
7.77444e-06
1.0772e-05
2.61242e-06
1.00328e-05
4.01959e-07
8.52886e-06
4.14393e-06
2.30193e-06
1.62977e-05
-1.31258e-05
3.50037e-05
-4.1642e-05
5.56063e-05
-7.66549e-05
6.92749e-05
-0.000114232
7.09657e-05
-0.000140184
5.06773e-05
1.11302e-05
-0.000145846
-3.35746e-06
9.19196e-06
-7.29987e-06
1.11242e-05
-1.12717e-05
1.17094e-05
-1.48652e-05
1.12339e-05
-1.78472e-05
9.94422e-06
-2.01503e-05
8.1787e-06
-2.18253e-05
6.2242e-06
-2.30674e-05
4.25343e-06
-2.40157e-05
2.36289e-06
-2.47252e-05
5.85233e-07
-2.51858e-05
-1.09814e-06
-2.53465e-05
-2.73755e-06
-2.51288e-05
-4.39862e-06
-2.44299e-05
-6.15359e-06
-2.31218e-05
-8.07817e-06
-2.10372e-05
-1.02462e-05
-1.80378e-05
-1.27622e-05
-1.39486e-05
-1.56705e-05
-8.54087e-06
-1.90735e-05
-1.52168e-06
-2.30444e-05
7.43706e-06
-2.77053e-05
1.85222e-05
-3.32276e-05
3.19891e-05
-3.96675e-05
4.80629e-05
-4.67732e-05
6.71386e-05
-5.4532e-05
8.98197e-05
-6.32797e-05
0.000116879
-7.40666e-05
0.000149045
-8.66e-05
0.000186477
-9.99699e-05
0.000226296
-0.000111896
0.000265174
-0.000119565
0.000299863
-0.000119863
0.000329981
-0.000116334
0.000355678
-0.000110958
0.0003762
-0.00010434
0.000390094
-9.5841e-05
0.000395125
-8.38235e-05
0.000389004
-6.69192e-05
0.000370423
-4.49918e-05
0.00033954
-1.89525e-05
0.000297878
9.88867e-06
0.000248067
4.02109e-05
0.000193434
7.06168e-05
0.000137353
9.98946e-05
8.26109e-05
0.000127223
3.18085e-05
0.000151211
-1.45286e-05
0.000172661
-5.68985e-05
0.00019192
-9.66216e-05
0.000209439
-0.000135943
0.000225722
-0.000177591
0.000241195
-0.000224239
0.000255717
-0.000278543
0.000269502
-0.00034225
0.00028227
-0.000415772
0.000293545
-0.000498883
0.00030286
-0.000592447
0.000309808
-0.000686629
0.000314029
-0.000788417
0.000312188
-0.00088804
0.000305698
-0.000984593
0.0002936
-0.00107619
0.000276506
-0.00116127
0.000255072
-0.0012381
0.000230346
-0.00130344
0.000201018
-0.00135653
0.000166718
-0.00139653
0.000130003
-0.00142286
9.13079e-05
-0.0014355
5.17386e-05
-0.00143517
1.26922e-05
-0.00142347
-2.42219e-05
-0.00140287
-5.73976e-05
-0.00137643
-8.54404e-05
-0.00134705
-0.000107499
-0.00131661
-0.000123859
-0.00128447
-0.000136607
-0.00125716
-0.000150522
-0.001233
-0.000167585
-0.0012058
-0.000191421
-0.00117112
-0.00022219
-0.00112299
-0.000258332
-0.00105425
-0.000295393
-0.000960848
-0.000327804
-0.000843125
-0.000349349
-0.000707382
-0.000355051
-0.000564384
-0.000344455
-0.000425278
-0.000320438
-0.000295548
-0.000293074
-0.000173935
-0.000264096
-6.8013e-05
-0.000223446
1.45371e-05
-0.000182322
7.87128e-05
-0.000162812
0.000141183
-0.000178261
0.000239362
-0.000216422
0.000385758
-0.000242964
0.000568843
-0.000248176
0.000779229
-0.000284838
0.00103449
-0.000424688
0.00135794
-0.000652992
0.001733
-0.000855405
0.00209541
-0.000930786
0.00236852
-0.000863273
0.002502
-0.000679484
0.00249124
-0.000420126
0.00236862
-0.000148894
0.00217238
8.99904e-05
0.00193669
0.000278597
0.00169317
0.000416015
0.0014591
0.000508146
0.00124256
0.000564663
0.0010449
0.000595779
0.000863521
0.000610148
0.000693899
0.000614052
0.000532313
0.000611532
0.000374855
0.000604054
0.000217149
0.000591542
5.88391e-05
0.000573519
-0.000101243
0.000551871
-0.000254074
0.000521402
-0.00040243
0.000485955
-0.000536389
0.000445286
-0.000657049
0.000401731
-0.000762925
0.000355933
-0.000854709
0.000311261
-0.000933091
0.000267456
-0.000999004
0.000226587
-0.00105587
0.000189095
-0.00110156
0.000151192
-0.00113698
0.000113859
-0.00116441
7.22928e-05
-0.00118294
3.05288e-05
-0.00118408
-7.41663e-06
-0.00116468
-5.34885e-05
-0.00113161
-0.000105557
-0.0010815
-0.000159123
-0.00102127
-0.00021627
-0.000955504
-0.000268279
-0.000881889
-0.000304975
-0.000798304
-0.000335404
-0.000702207
-0.000370661
-0.000591934
-0.000407638
-0.000469515
-0.000440481
-0.000334868
-0.000471513
-0.000185316
-0.000495424
-2.6696e-05
-0.000500914
0.000163064
-0.000470442
0.000333172
-0.000434901
0.000504488
-0.000360314
0.000651106
-0.000263271
0.00075736
-0.000157892
0.000815713
-5.66562e-05
0.000827561
3.07011e-05
0.000800505
9.9209e-05
0.000744956
0.000148284
0.000671473
0.000179845
0.000589236
0.000196552
0.000505451
0.000200968
0.000425246
0.00019549
0.000351809
0.00018257
0.000286645
0.000164818
0.000230033
0.000144554
0.000181597
0.000123566
0.000140645
0.000103506
0.000106442
8.54474e-05
7.83088e-05
6.96812e-05
5.52925e-05
5.62652e-05
3.66663e-05
4.50907e-05
2.16402e-05
3.5097e-05
9.85316e-06
2.5633e-05
1.07942e-06
1.65481e-05
-5.04361e-06
8.73544e-06
-9.41406e-06
4.77244e-06
-1.38282e-05
8.55809e-06
-2.07674e-05
2.3237e-05
-3.29856e-05
4.72219e-05
-5.1402e-05
7.40228e-05
-7.61132e-05
9.39862e-05
-0.000100975
9.58276e-05
-0.000121789
7.14913e-05
1.68924e-05
-0.000127551
-3.14074e-06
1.23327e-05
-6.17199e-06
1.41554e-05
-8.64867e-06
1.41861e-05
-1.03395e-05
1.29247e-05
-1.13163e-05
1.0921e-05
-1.18466e-05
8.70896e-06
-1.2227e-05
6.60456e-06
-1.26821e-05
4.70857e-06
-1.33151e-05
2.99583e-06
-1.4123e-05
1.39311e-06
-1.50404e-05
-1.80749e-07
-1.59758e-05
-1.80213e-06
-1.68301e-05
-3.54429e-06
-1.74993e-05
-5.48439e-06
-1.78675e-05
-7.71003e-06
-1.77934e-05
-1.03203e-05
-1.70913e-05
-1.34643e-05
-1.55942e-05
-1.71676e-05
-1.30473e-05
-2.16205e-05
-9.19474e-06
-2.68969e-05
-3.78485e-06
-3.31152e-05
3.37585e-06
-4.03883e-05
1.2262e-05
-4.85537e-05
2.31234e-05
-5.76346e-05
3.74584e-05
-6.8867e-05
5.6575e-05
-8.23963e-05
7.9307e-05
-9.67987e-05
0.000104782
-0.000112075
0.000132282
-0.000127469
0.000159784
-0.000139398
0.000181309
-0.00014109
0.000196351
-0.000134904
0.000205149
-0.000125132
0.000207793
-0.000113603
0.000204319
-0.000100866
0.000194807
-8.63284e-05
0.000179477
-6.84935e-05
0.000159003
-4.64451e-05
0.000134774
-2.07637e-05
0.000108894
6.92755e-06
8.40555e-05
3.47275e-05
6.27696e-05
6.14969e-05
4.7056e-05
8.63304e-05
3.70519e-05
0.000109899
3.16992e-05
0.000132576
2.90111e-05
0.000153899
2.58024e-05
0.000175869
1.82513e-05
0.000199471
2.89255e-06
0.000224798
-2.31808e-05
0.000251795
-6.17398e-05
0.000279753
-0.00011354
0.000307517
-0.000178259
0.000334222
-0.000254935
0.000358946
-0.000341782
0.000380392
-0.000436854
0.000397932
-0.000537822
0.000410776
-0.000641564
0.000417771
-0.000747436
0.00041806
-0.000853518
0.000411779
-0.000958737
0.000398819
-0.00106099
0.00037876
-0.00115668
0.000350761
-0.001243
0.000316665
-0.00131596
0.00027398
-0.0013751
0.000225859
-0.00141868
0.000173586
-0.00144497
0.000117595
-0.0014531
5.98638e-05
-0.00144316
2.7576e-06
-0.00141644
-5.09404e-05
-0.00137546
-9.83766e-05
-0.00132386
-0.000137045
-0.00126602
-0.000165337
-0.00120681
-0.000183069
-0.0011516
-0.000191821
-0.001107
-0.000195123
-0.0010764
-0.000198182
-0.00106116
-0.000206657
-0.00105746
-0.000225888
-0.00105724
-0.000258551
-0.00104914
-0.000303497
-0.00102115
-0.000355797
-0.000963321
-0.000407176
-0.000870857
-0.000447515
-0.000747406
-0.000467906
-0.000603973
-0.000463871
-0.000455309
-0.000441738
-0.000307848
-0.000411557
-0.000164891
-0.000366403
-3.15999e-05
-0.000315614
8.97244e-05
-0.000284137
0.000208678
-0.000297215
0.000344473
-0.000352216
0.000524941
-0.000423432
0.000767391
-0.000490627
0.00107459
-0.000592036
0.00143565
-0.000785752
0.00181946
-0.0010368
0.00216626
-0.0012022
0.0024044
-0.00116893
0.00248691
-0.000945785
0.00241307
-0.000605648
0.00223539
-0.000242444
0.0020143
7.21967e-05
0.00179026
0.000314033
0.00158575
0.000483107
0.00140901
0.00059275
0.00125533
0.000661832
0.00111624
0.000703753
0.000982655
0.000729359
0.000847521
0.000745282
0.000706696
0.000754877
0.000559114
0.000759114
0.000405735
0.000757432
0.00024864
0.000748637
9.11397e-05
0.000731018
-6.29349e-05
0.000705946
-0.000208883