/*--------------------------------*- C++ -*----------------------------------*\
| =========                 |                                                 |
| \\      /  F ield         | OpenFOAM: The Open Source CFD Toolbox           |
|  \\    /   O peration     | Version:  2112                                  |
|   \\  /    A nd           | Website:  www.openfoam.com                      |
|    \\/     M anipulation  |                                                 |
\*---------------------------------------------------------------------------*/
FoamFile
{
    version     2.0;
    format      ascii;
    arch        "LSB;label=32;scalar=64";
    class       volScalarField;
    location    "0.19";
    object      nut;
}
// * * * * * * * * * * * * * * * * * * * * * * * * * * * * * * * * * * * * * //

dimensions      [0 2 -1 0 0 0 0];

internalField   nonuniform List<scalar> 
12225
(
5.44253e-06
8.85186e-06
1.18525e-05
1.48662e-05
1.8186e-05
2.20046e-05
2.64549e-05
3.16351e-05
3.76146e-05
4.44381e-05
5.2124e-05
6.06647e-05
7.003e-05
8.01719e-05
9.10343e-05
0.000102522
0.000114722
0.000127474
4.55003e-05
2.36358e-05
1.84992e-05
1.70033e-05
1.6988e-05
1.78045e-05
1.9193e-05
2.10168e-05
2.31774e-05
2.55904e-05
2.8182e-05
3.08954e-05
3.36973e-05
3.65866e-05
3.95926e-05
4.28156e-05
4.67305e-05
5.2008e-05
0.000378518
0.000141353
0.00010825
7.44868e-05
5.44634e-05
4.33956e-05
3.6889e-05
3.29398e-05
3.05484e-05
2.91604e-05
2.84506e-05
2.82247e-05
2.83677e-05
2.88136e-05
2.95259e-05
3.0495e-05
3.17372e-05
3.32013e-05
0.00124168
0.000933136
0.00053089
0.000355426
0.000261117
0.00020969
0.000182543
0.00014901
0.000124532
0.00010731
9.47136e-05
8.51811e-05
7.77447e-05
7.17931e-05
6.69397e-05
6.29355e-05
5.96319e-05
5.70002e-05
0.00146214
0.00142022
0.0012412
0.00108066
0.000892096
0.000731884
0.000611958
0.000529185
0.000473088
0.000437329
0.000387818
0.000346042
0.000312411
0.000284678
0.000261415
0.000241657
0.000224769
0.00021064
0.00151266
0.00150333
0.00148305
0.00144864
0.00130666
0.0011659
0.00106338
0.000989552
0.000935574
0.000898865
0.000879019
0.000869232
0.000845366
0.000793067
0.000746232
0.000704227
0.000649786
0.000567622
0.00151436
0.00151333
0.0015107
0.00150541
0.00144673
0.00132685
0.00124837
0.00119864
0.00116957
0.00115725
0.00115812
0.00116156
0.00115596
0.00112853
0.00106961
0.000981364
0.000877684
0.000789611
0.00151437
0.00151409
0.00151375
0.00151314
0.00151209
0.00144771
0.00136711
0.00131502
0.00128562
0.0012736
0.00127006
0.00126469
0.00124779
0.00121096
0.00114885
0.00106581
0.000973802
0.00089891
0.00151427
0.00151396
0.00151375
0.00151365
0.00151361
0.00151356
0.0014853
0.00142995
0.00139393
0.0013728
0.00135901
0.00134246
0.00131434
0.00126903
0.00120671
0.00113296
0.00105554
0.000992615
0.00151418
0.00151379
0.00151352
0.00151338
0.00151336
0.00151344
0.00151357
0.00151372
0.00149895
0.00147348
0.0014534
0.0014304
0.00139598
0.00134615
0.00128355
0.00121434
0.00114546
0.00109138
0.00151412
0.00151366
0.00151332
0.0015131
0.00151299
0.00151299
0.00151307
0.0015132
0.00151336
0.00151352
0.00151369
0.0015137
0.00147944
0.00143175
0.00137258
0.00130907
0.00124823
0.00120184
0.00151407
0.00151357
0.00151318
0.00151289
0.00151271
0.00151263
0.00151262
0.00151268
0.00151277
0.00151289
0.00151302
0.00151317
0.00151334
0.00150653
0.00145747
0.00140406
0.00135272
0.00131393
0.00151404
0.0015135
0.00151306
0.00151272
0.00151248
0.00151232
0.00151224
0.00151222
0.00151224
0.00151229
0.00151237
0.00151247
0.00151259
0.00151273
0.00151289
0.00149254
0.00145324
0.00142366
0.00151401
0.00151344
0.00151295
0.00151256
0.00151226
0.00151204
0.00151189
0.00151179
0.00151174
0.00151172
0.00151173
0.00151176
0.00151182
0.0015119
0.001512
0.00151212
0.00151224
0.00151238
0.00151399
0.00151338
0.00151286
0.00151243
0.00151207
0.00151179
0.00151158
0.00151141
0.00151129
0.0015112
0.00151113
0.0015111
0.00151108
0.00151108
0.00151111
0.00151115
0.0015112
0.00151125
0.00151397
0.00151334
0.00151279
0.00151231
0.00151191
0.00151158
0.00151131
0.00151108
0.0015109
0.00151074
0.00151061
0.0015105
0.00151042
0.00151034
0.00151029
0.00151024
0.00151021
0.00151018
0.00151396
0.00151331
0.00151273
0.00151223
0.00151179
0.00151142
0.0015111
0.00151082
0.00151058
0.00151037
0.00151018
0.00151001
0.00150985
0.00150971
0.00150958
0.00150946
0.00150934
0.00150924
0.00151395
0.0015133
0.0015127
0.00151218
0.00151172
0.00151131
0.00151096
0.00151064
0.00151035
0.00151009
0.00150985
0.00150963
0.00150942
0.00150921
0.00150902
0.00150883
0.00150865
0.00150848
0.00151396
0.0015133
0.00151271
0.00151218
0.0015117
0.00151128
0.0015109
0.00151056
0.00151025
0.00150995
0.00150967
0.00150941
0.00150915
0.00150891
0.00150866
0.00150843
0.00150819
0.00150797
0.00151397
0.00151333
0.00151275
0.00151222
0.00151176
0.00151134
0.00151096
0.00151061
0.00151029
0.00150999
0.0015097
0.00150942
0.00150914
0.00150887
0.00150861
0.00150834
0.00150808
0.00150783
0.00151399
0.00151337
0.0015128
0.0015123
0.00151185
0.00151144
0.00151108
0.00151075
0.00151044
0.00151014
0.00150986
0.00150959
0.00150931
0.00150904
0.00150877
0.0015085
0.00150823
0.00150797
0.00151402
0.00151342
0.00151288
0.0015124
0.00151198
0.0015116
0.00151126
0.00151096
0.00151067
0.0015104
0.00151015
0.00150989
0.00150964
0.00150938
0.00150911
0.00150885
0.00150857
0.0015083
0.00151405
0.0015135
0.00151299
0.00151254
0.00151215
0.0015118
0.00151149
0.0015112
0.00151092
0.00151065
0.00151036
0.00151004
0.0015097
0.00150931
0.00150889
0.00150842
0.0015079
0.00150735
0.00151411
0.00151359
0.00151311
0.00151264
0.00151216
0.00151163
0.001511
0.00151021
0.00150921
0.00150794
0.00150637
0.00150448
0.00150225
0.00149968
0.00149678
0.00149357
0.00149006
0.00148628
0.00151415
0.00151348
0.0015124
0.00151055
0.00150757
0.00150309
0.00149678
0.00148839
0.00147777
0.00146491
0.00144994
0.00143306
0.00141457
0.00139479
0.00137405
0.00135264
0.0013308
0.00130877
0.00151289
0.00150707
0.00149383
0.00147026
0.00143596
0.00139092
0.00133596
0.00127302
0.00120479
0.00113425
0.00106411
0.000996491
0.000933082
0.000874673
0.000821342
0.000772883
0.000728974
0.000689252
0.00148116
0.00139613
0.00124967
0.00107007
0.000787263
0.000601317
0.000485525
0.000408059
0.000354309
0.000316875
0.000291223
0.0002745
0.000251284
0.000226591
0.000206475
0.000189836
0.000175895
0.000164088
0.000885917
0.000319549
0.000214701
0.000175176
0.000157443
0.000118599
9.4178e-05
7.79322e-05
6.66866e-05
5.86799e-05
5.28657e-05
4.85868e-05
4.54082e-05
4.30382e-05
4.12754e-05
3.99751e-05
3.90326e-05
3.83703e-05
9.9667e-05
4.48526e-05
3.05049e-05
2.47274e-05
2.21007e-05
2.0958e-05
2.06591e-05
2.09094e-05
2.15547e-05
2.25027e-05
2.36912e-05
2.50727e-05
2.66081e-05
2.82632e-05
3.00075e-05
3.18152e-05
3.3667e-05
3.55494e-05
5.37152e-06
8.39344e-06
1.09997e-05
1.34367e-05
1.58725e-05
1.83002e-05
2.09157e-05
2.37871e-05
2.69504e-05
3.0429e-05
3.4239e-05
3.83906e-05
4.28883e-05
4.77312e-05
5.29127e-05
5.84203e-05
6.4241e-05
7.03425e-05
0.000317413
0.000320108
0.000326241
0.000334549
0.000344659
0.000355752
0.00036657
0.000344379
0.000320447
0.000304096
0.000293395
0.000286603
0.000282827
0.000281643
0.000282866
0.00028644
0.000292445
0.000301068
0.000312031
0.000324765
0.000340049
0.000360061
0.000383967
0.000384727
0.00038399
0.000381719
0.000377922
0.000372649
0.000365983
0.000358047
0.000348996
0.000339015
0.000328315
0.000317128
0.000305636
0.000293668
0.000281943
0.000271446
0.00026257
0.000255712
0.000251102
0.00024866
0.000247915
0.000248059
0.000248089
0.000242822
0.000230663
0.000217808
0.000204652
0.000190987
0.000177084
0.000163462
0.000150689
0.000139297
0.000129795
0.000122783
0.000119188
0.000120623
0.000129681
0.000149736
0.000183914
0.000233692
0.000297937
0.000373108
0.000454529
0.000537783
0.0006195
0.000697514
0.000770708
0.000838746
0.000901801
0.000960326
0.00101489
0.00106607
0.00111441
0.00116036
0.00120427
0.0012463
0.00128649
0.00132467
0.00136053
0.00139367
0.00142364
0.00144999
0.0014724
0.00149064
0.00150468
0.0015146
0.00152063
0.00152311
0.00152245
0.00151908
0.00151346
0.00150603
0.00149722
0.00148742
0.00147697
0.00146616
0.00145523
0.00144435
0.0014336
0.00142305
0.00141271
0.00140259
0.00139267
0.00138295
0.00137342
0.00136407
0.00135486
0.00134577
0.00133675
0.00132774
0.00131868
0.0013095
0.00130013
0.00129048
0.00128048
0.00127006
0.00125915
0.00124768
0.0012356
0.00122287
0.00120946
0.00119534
0.00118049
0.00116486
0.00114843
0.00113128
0.00111334
0.00109451
0.0010747
0.00105425
0.00103359
0.00101272
0.000991586
0.000970153
0.000948406
0.000926366
0.000904091
0.000881688
0.000859305
0.000837111
0.000815236
0.000793707
0.000772545
0.00075196
0.000732355
0.000714306
0.000698643
0.000686545
0.000679747
0.000681039
0.000695053
0.000729841
0.000801278
0.000948182
0.00125305
0.00130434
0.00130732
0.00132422
0.00131792
0.00111286
0.00097689
0.000902233
0.000861578
0.000842493
0.000838428
0.000845694
0.000862318
0.000886762
0.000917402
0.000952828
0.00099212
0.0010348
0.00108073
0.00113053
0.0011846
0.00124615
0.00130533
0.00138736
0.000320579
0.000321113
0.00032615
0.000333348
0.000341581
0.00034987
0.000357526
0.000364105
0.000369569
0.00037399
0.00037745
0.00038005
0.000381912
0.000383177
0.000383987
0.00038449
0.000384828
0.000385145
0.000385422
0.000385405
0.000385121
0.000384659
0.000384112
0.000383277
0.000381962
0.000379967
0.000377132
0.000373335
0.000368496
0.000362573
0.000355557
0.000347465
0.000338336
0.000328212
0.00031705
0.000304259
0.000290597
0.000277056
0.000264098
0.00025225
0.000241973
0.000233539
0.000226914
0.000221754
0.000217505
0.000213542
0.000209323
0.000204668
0.000199626
0.000194333
0.000188933
0.000183547
0.000178287
0.000173345
0.000169177
0.000166778
0.000167943
0.000175291
0.000191914
0.000220706
0.000263589
0.000320853
0.000390826
0.000470164
0.000554697
0.000640427
0.000724217
0.00080402
0.000878766
0.000948098
0.0010121
0.00107108
0.00112544
0.00117556
0.0012218
0.00126443
0.00130363
0.00133945
0.00137187
0.00140075
0.00142589
0.00144709
0.00146419
0.00147713
0.00148593
0.00149076
0.00149185
0.00148951
0.00148406
0.00147579
0.00146495
0.00145172
0.00143619
0.00141842
0.00139836
0.00137593
0.00135102
0.00132349
0.00129319
0.00126011
0.00122457
0.00118734
0.00114951
0.00111216
0.00107617
0.00104207
0.00101015
0.000980432
0.000952847
0.000927228
0.000903377
0.0008811
0.000860222
0.000840604
0.000822151
0.000804817
0.0007886
0.000773549
0.000759752
0.00074733
0.000736422
0.000727176
0.000719741
0.000714299
0.000711088
0.000710401
0.000712574
0.000718011
0.00072719
0.000740344
0.000757569
0.000778461
0.000802625
0.000830215
0.000861475
0.000896672
0.000936055
0.000979781
0.00102778
0.00107949
0.00113336
0.00118613
0.00123203
0.00126447
0.00128366
0.00129935
0.00131603
0.00133353
0.00135124
0.00136832
0.00138382
0.00139663
0.0014056
0.00140979
0.00140864
0.00140259
0.00139418
0.00139323
0.00140062
0.00140792
0.00140839
0.00140108
0.00138971
0.00137647
0.00136288
0.00135023
0.00133933
0.00132719
0.00128538
0.00119949
0.00110098
0.00101136
0.000937155
0.000878647
0.000834358
0.000802797
0.000782776
0.000776336
0.000800671
0.000870724
0.000330401
0.000329234
0.00033539
0.000344454
0.000354065
0.000362767
0.000369891
0.000375287
0.000379114
0.000381645
0.00038315
0.000383864
0.000383979
0.000383659
0.000383045
0.000382268
0.000381451
0.000380724
0.000380246
0.00038007
0.000380197
0.000380569
0.000381088
0.000381601
0.000381902
0.000381744
0.000380878
0.00037907
0.000376124
0.000371891
0.000366272
0.000359215
0.000350702
0.000340698
0.000328853
0.000314733
0.000299646
0.000284203
0.000268987
0.00025454
0.000241307
0.000229565
0.000219374
0.000210619
0.000203111
0.000196684
0.000191237
0.000186728
0.000183134
0.000180388
0.000178357
0.000176879
0.000175875
0.00017553
0.000176511
0.000180143
0.000188424
0.000203738
0.000228316
0.000263648
0.000310049
0.000366451
0.000430525
0.000499199
0.000569385
0.000638565
0.000705024
0.000767788
0.000826429
0.000880867
0.000931215
0.000977681
0.0010205
0.00105991
0.0010961
0.00112924
0.00115939
0.00118657
0.0012107
0.00123166
0.00124928
0.00126339
0.00127386
0.0012806
0.0012836
0.00128289
0.00127857
0.00127072
0.00125943
0.00124477
0.00122676
0.00120544
0.00118083
0.00115302
0.00112214
0.00108847
0.00105243
0.00101471
0.000976305
0.000938463
0.000902459
0.000869368
0.000839925
0.00081449
0.000793102
0.000775586
0.000761656
0.000750995
0.000743307
0.000738337
0.000735885
0.000735802
0.000737989
0.000742382
0.000748938
0.00075761
0.000768325
0.000780957
0.000795317
0.000811191
0.000828448
0.000847203
0.000867853
0.000890813
0.000916205
0.000943888
0.000973606
0.0010047
0.00103603
0.00106803
0.0011013
0.0011356
0.00117059
0.001206
0.00124153
0.00127685
0.00131148
0.00134487
0.0013763
0.00140495
0.00142995
0.00145048
0.00146611
0.00147716
0.00148502
0.00149131
0.00149646
0.00150036
0.00150282
0.00150374
0.00150305
0.00150074
0.00149686
0.00149185
0.00148599
0.00147973
0.00147373
0.00146958
0.00146698
0.00146418
0.0014599
0.00145403
0.0014473
0.00144004
0.00143249
0.00142498
0.00141776
0.00141031
0.0013982
0.00137664
0.00134584
0.00130854
0.00126768
0.00122559
0.00118396
0.00114407
0.00110665
0.00107248
0.00103221
0.000999471
0.000324061
0.00033524
0.000345742
0.000358324
0.000369669
0.000378305
0.000384063
0.000387408
0.000388965
0.000389297
0.000388834
0.000387877
0.000386631
0.000385231
0.000383772
0.000382324
0.000380943
0.000379692
0.000378671
0.000378013
0.000377812
0.000378118
0.000378929
0.00038016
0.000381624
0.000383034
0.000384023
0.000384191
0.00038315
0.000380574
0.000376222
0.000369943
0.000361623
0.000350897
0.000337418
0.000322177
0.000305761
0.000288919
0.000272332
0.000256577
0.000242102
0.000229202
0.000218029
0.000208642
0.000201075
0.000195349
0.000191416
0.000189089
0.000188031
0.000187819
0.000188077
0.000188619
0.000189589
0.000191593
0.000195779
0.000203797
0.000217559
0.000238794
0.000268544
0.000306814
0.000352516
0.000403701
0.000457998
0.000513125
0.000567286
0.000619305
0.000668551
0.000714765
0.000757895
0.000798006
0.000835219
0.000869691
0.000901597
0.000931111
0.000958385
0.000983528
0.00100658
0.00102751
0.0010462
0.00106248
0.00107614
0.00108696
0.00109477
0.00109941
0.00110082
0.00109899
0.00109397
0.00108585
0.00107482
0.00106108
0.00104496
0.00102683
0.0010072
0.00098666
0.000965886
0.000945607
0.000926553
0.000909402
0.000894721
0.000882909
0.000874158
0.000868455
0.000865628
0.00086541
0.000867509
0.00087166
0.00087766
0.00088538
0.000894761
0.000905804
0.00091855
0.000933068
0.000949433
0.000967712
0.000987949
0.00101015
0.00103428
0.00106023
0.00108787
0.00111699
0.00114737
0.00117879
0.00121099
0.00124367
0.00127639
0.00130865
0.00133924
0.00136812
0.00139596
0.00142281
0.00144861
0.00147321
0.00149636
0.00151788
0.00153758
0.00155531
0.00157092
0.00158431
0.0015954
0.00160414
0.00161056
0.00161473
0.00161683
0.00161708
0.00161575
0.001613
0.00160889
0.00160347
0.00159668
0.00158854
0.00157921
0.00156889
0.00155741
0.00154569
0.00153423
0.0015221
0.00151045
0.00149894
0.00148811
0.00147769
0.00146737
0.0014575
0.00144839
0.00143995
0.00143204
0.00142464
0.00141774
0.00141122
0.0014045
0.00139675
0.00138731
0.00137594
0.00136269
0.00134774
0.00133136
0.00131396
0.00129585
0.00127787
0.00125491
0.00122595
0.00028698
0.000340605
0.000358165
0.000374424
0.000385925
0.000392296
0.000394768
0.000394823
0.000393597
0.000391807
0.000389862
0.000387976
0.000386253
0.000384733
0.000383421
0.000382307
0.000381375
0.000380626
0.000380119
0.00037993
0.000380108
0.000380701
0.000381747
0.000383241
0.0003851
0.000387125
0.000388985
0.000390231
0.000390349
0.000388822
0.000385188
0.000379
0.000369528
0.00035737
0.000342698
0.000326168
0.000308598
0.000290822
0.000273587
0.000257522
0.000243137
0.000230838
0.00022093
0.000213605
0.000208877
0.000206498
0.000205939
0.000206505
0.000207527
0.000208553
0.000209449
0.000210463
0.000212244
0.000215852
0.000222682
0.000234266
0.000251939
0.000276439
0.000307629
0.000344478
0.000385311
0.000428217
0.000471437
0.000513633
0.000553974
0.000592054
0.000627752
0.000661091
0.000692158
0.000721069
0.000747971
0.00077304
0.000796477
0.000818488
0.000839252
0.00085889
0.000877444
0.000894857
0.000910989
0.000925635
0.000938563
0.000949552
0.000958432
0.000965115
0.000969611
0.000972045
0.000972658
0.000971805
0.00096995
0.000967652
0.000965537
0.000964263
0.000964462
0.000966681
0.00097132
0.00097858
0.000988442
0.00100068
0.00101488
0.00103054
0.00104709
0.001064
0.00108083
0.00109728
0.00111318
0.00112852
0.0011434
0.00115801
0.00117261
0.00118747
0.00120287
0.00121909
0.00123635
0.00125486
0.00127474
0.00129609
0.00131892
0.0013432
0.00136884
0.00139568
0.0014235
0.00145205
0.00148099
0.00150996
0.00153809
0.00156452
0.0015897
0.00161364
0.00163623
0.00165728
0.00167658
0.00169394
0.00170917
0.00172214
0.00173275
0.00174095
0.00174675
0.00175019
0.00175132
0.00175023
0.00174705
0.00174192
0.001735
0.00172645
0.00171629
0.00170459
0.00169146
0.00167726
0.00166175
0.00164484
0.00162668
0.00160839
0.00158861
0.00156797
0.00154924
0.00153075
0.00151177
0.00149268
0.00147453
0.00145754
0.00144176
0.00142753
0.00141512
0.00140446
0.00139544
0.00138792
0.00138174
0.00137667
0.00137235
0.00136832
0.001364
0.00135911
0.00135348
0.00134703
0.00133976
0.00133181
0.00132332
0.00131495
0.00130624
0.00129648
0.000261874
0.000349695
0.000374168
0.000391881
0.000400498
0.000402282
0.000400428
0.000397201
0.000393796
0.000390738
0.00038822
0.000386283
0.0003849
0.000384005
0.000383516
0.000383345
0.000383415
0.000383683
0.000384201
0.000384919
0.00038582
0.000386914
0.000388239
0.000389836
0.000391706
0.000393747
0.000395704
0.000397151
0.000397498
0.000395797
0.000391388
0.000383981
0.000373276
0.000359579
0.000343533
0.000325935
0.000307707
0.000289747
0.000272871
0.00025781
0.000245214
0.00023561
0.000229297
0.000226181
0.000225695
0.000226912
0.000228831
0.000230672
0.00023203
0.000232904
0.000233658
0.000234974
0.00023782
0.000243361
0.000252811
0.000267181
0.000286997
0.000312098
0.000341617
0.000374189
0.000408281
0.000442504
0.000475811
0.00050755
0.000537411
0.000565313
0.000591296
0.000615452
0.000637896
0.000658777
0.000678284
0.000696651
0.000714145
0.000731036
0.000747559
0.000763879
0.000780064
0.00079608
0.000811807
0.000827071
0.000841688
0.000855515
0.00086849
0.000880664
0.000892228
0.000903511
0.000914975
0.000927187
0.000940775
0.000956366
0.000974513
0.000995611
0.00101983
0.00104708
0.00107698
0.00110892
0.00114211
0.00117569
0.00120883
0.00124078
0.00127095
0.00129893
0.0013245
0.00134762
0.00136839
0.00138705
0.00140389
0.0014193
0.00143365
0.00144737
0.00146086
0.00147448
0.00148858
0.00150347
0.00151941
0.00153658
0.00155513
0.00157512
0.00159655
0.00161935
0.00164335
0.00166828
0.00169368
0.00171832
0.00174203
0.00176487
0.00178665
0.00180714
0.00182604
0.00184302
0.00185779
0.00187009
0.00187972
0.00188653
0.00189044
0.00189145
0.00188963
0.00188509
0.00187797
0.00186837
0.00185647
0.00184248
0.00182667
0.00180958
0.00179093
0.00177067
0.00174868
0.00172628
0.00170296
0.00167815
0.00165101
0.00162539
0.00159867
0.00157139
0.00154458
0.00151833
0.00149138
0.00144092
0.00139426
0.00135373
0.0013206
0.00129328
0.0012711
0.00125553
0.00124737
0.00124648
0.00125233
0.00126437
0.00128198
0.001304
0.00130958
0.00130882
0.0013078
0.00130639
0.0013045
0.00130212
0.00129929
0.00129643
0.00129363
0.0012912
0.000243443
0.000363518
0.000393094
0.00040877
0.000411924
0.000408486
0.000402987
0.00039759
0.000393055
0.000389566
0.000387118
0.000385633
0.000384992
0.00038505
0.000385644
0.000386619
0.000387834
0.000389213
0.00039075
0.000392232
0.000393637
0.000394998
0.000396382
0.000397869
0.00039952
0.000401223
0.000402665
0.000403361
0.000402617
0.000399574
0.000393527
0.000384244
0.000371787
0.000356628
0.000339586
0.000321601
0.00030366
0.000286728
0.000271723
0.000259488
0.000250701
0.000245672
0.000244145
0.00024526
0.000247811
0.000250648
0.000252993
0.000254539
0.000255397
0.000255998
0.000257013
0.000259288
0.000263776
0.000271415
0.000282958
0.000298783
0.000318751
0.000342201
0.000368092
0.000395243
0.000422571
0.00044924
0.00047471
0.000498703
0.00052112
0.000541968
0.000561304
0.000579215
0.000595823
0.000611301
0.00062588
0.000639854
0.00065355
0.0006673
0.000681394
0.000696054
0.000711402
0.000727466
0.000744198
0.00076151
0.00077932
0.0007976
0.000816416
0.000835954
0.000856532
0.000878584
0.000902627
0.000929204
0.000958806
0.000991788
0.00102829
0.00106817
0.00111102
0.00115613
0.00120262
0.00124953
0.00129589
0.00134083
0.00138365
0.00142382
0.00146101
0.00149503
0.00152588
0.00155362
0.00157843
0.00160056
0.00162029
0.00163795
0.00165389
0.0016685
0.00168216
0.00169528
0.00170825
0.00172145
0.00173521
0.00174985
0.00176562
0.0017827
0.00180116
0.00182098
0.00184205
0.00186319
0.00188377
0.001904
0.0019237
0.00194261
0.0019604
0.00197672
0.00199119
0.00200341
0.00201304
0.00201978
0.0020234
0.00202372
0.00202068
0.00201427
0.00200466
0.00199215
0.00197704
0.00195937
0.00193928
0.00191693
0.00189239
0.00186765
0.00184174
0.00181438
0.00178441
0.00175454
0.00172467
0.00169339
0.00166145
0.00162938
0.00159369
0.00152831
0.00146224
0.00139824
0.00133859
0.00128484
0.00123704
0.00119546
0.00116029
0.00113052
0.00110587
0.00108723
0.00107518
0.00106976
0.00107076
0.00107785
0.00109061
0.00110804
0.00112906
0.00115306
0.00117905
0.00120562
0.00123135
0.00124487
0.00124718
0.00124924
0.00125121
0.0012535
0.000230552
0.000382147
0.000412969
0.000423215
0.000420301
0.000412813
0.000405101
0.000398575
0.000393525
0.000389949
0.000387771
0.000386863
0.000387038
0.000388069
0.000389713
0.00039175
0.000393977
0.000396233
0.000398223
0.000399935
0.000401401
0.000402691
0.000403877
0.000405017
0.0004061
0.00040696
0.000407224
0.000406335
0.000403595
0.000398307
0.00039001
0.000378681
0.00036468
0.000348686
0.000331608
0.00031445
0.000298244
0.000284016
0.000272713
0.000265049
0.000261275
0.000260984
0.00026315
0.000266464
0.000269773
0.000272366
0.000274026
0.000274928
0.000275519
0.000276415
0.000278335
0.000282033
0.000288221
0.000297448
0.000309984
0.000325729
0.000344216
0.000364697
0.000386305
0.000408226
0.000429805
0.000450597
0.000470345
0.00048893
0.000506317
0.000522514
0.000537558
0.000551521
0.00056452
0.000576742
0.00058844
0.000599935
0.000611583
0.000623749
0.000636765
0.000650901
0.000666346
0.000683211
0.000701542
0.000721355
0.000742673
0.000765565
0.000790177
0.00081675
0.00084561
0.000877147
0.000911763
0.000949799
0.00099146
0.00103674
0.00108539
0.00113688
0.00119045
0.00124519
0.00130015
0.00135441
0.00140718
0.00145784
0.00150595
0.00155125
0.00159359
0.00163294
0.00166934
0.00170285
0.00173359
0.00176167
0.00178725
0.00181051
0.00183165
0.00185092
0.00186858
0.00188498
0.00190044
0.00191535
0.00193007
0.00194495
0.00196028
0.00197631
0.0019932
0.00201005
0.00202626
0.00204223
0.0020579
0.00207313
0.00208768
0.00210125
0.00211349
0.00212401
0.00213243
0.00213836
0.00214147
0.00214151
0.00213823
0.00213148
0.00212115
0.00210717
0.00208961
0.00206906
0.00204648
0.00202166
0.00199468
0.0019656
0.00193274
0.00190142
0.00186958
0.00183655
0.00180238
0.0017679
0.00173278
0.00168027
0.00161387
0.00154572
0.00147666
0.00140822
0.00134236
0.00128026
0.00122324
0.00117233
0.0011264
0.00108546
0.00104952
0.0010182
0.000991465
0.000969827
0.000953636
0.000942911
0.000937469
0.000937044
0.000941385
0.000949883
0.000962615
0.000978848
0.000997738
0.00101828
0.00103941
0.00105941
0.00107783
0.00109093
0.00110411
0.00110983
0.000222685
0.000404526
0.000431308
0.000434636
0.00042713
0.000417354
0.000408458
0.000401204
0.000395724
0.000392021
0.000390022
0.000389551
0.000390338
0.000392059
0.000394375
0.000396966
0.000399554
0.000401894
0.000403818
0.000405384
0.000406637
0.000407622
0.000408366
0.000408845
0.000408946
0.000408414
0.000406838
0.000403695
0.000398448
0.000390693
0.00038031
0.000367548
0.000352968
0.000337358
0.000321656
0.000306881
0.00029406
0.000284132
0.000277755
0.000275087
0.00027563
0.00027833
0.000281925
0.00028535
0.000287986
0.000289677
0.000290624
0.000291251
0.000292102
0.000293772
0.000296851
0.000301867
0.000309217
0.000319094
0.000331436
0.000345933
0.000362075
0.000379261
0.000396903
0.000414513
0.00043174
0.000448363
0.000464262
0.000479379
0.000493689
0.000507188
0.000519892
0.000531852
0.000543171
0.000554018
0.00056463
0.000575306
0.000586383
0.000598213
0.000611131
0.000625434
0.000641361
0.000659094
0.000678769
0.000700493
0.00072437
0.000750533
0.000779156
0.000810465
0.000844725
0.000882214
0.000923169
0.000967726
0.00101586
0.00106734
0.0011217
0.00117828
0.00123626
0.00129476
0.00135294
0.00141007
0.00146558
0.00151908
0.00157035
0.00161928
0.00166587
0.00171016
0.0017522
0.00179202
0.00182965
0.00186511
0.00189838
0.00192946
0.00195836
0.00198512
0.00200983
0.00203265
0.00205377
0.00207345
0.00209196
0.00210965
0.00212652
0.00214218
0.00215632
0.00216955
0.00218192
0.00219349
0.00220423
0.00221405
0.00222274
0.00223006
0.00223573
0.00223941
0.00224073
0.00223934
0.00223496
0.00222758
0.00221702
0.00220313
0.00218588
0.00216517
0.00214068
0.00211222
0.00208315
0.00205237
0.00201994
0.00198599
0.00195057
0.00191474
0.00187845
0.00184107
0.00178316
0.00171866
0.0016522
0.00158415
0.00151601
0.00144874
0.00138302
0.00132016
0.00125992
0.00120289
0.00114968
0.00110024
0.00105438
0.00101253
0.000975089
0.000942109
0.000913685
0.000890098
0.000871529
0.000857901
0.000848913
0.000844207
0.000843409
0.000846028
0.000851445
0.000858951
0.000868018
0.000878102
0.000888668
0.000899062
0.000909574
0.000917476
0.000928496
0.000933624
0.000222377
0.000429287
0.000448138
0.000445074
0.000434455
0.000423162
0.000413213
0.000405075
0.00039891
0.000394774
0.000392581
0.000392096
0.00039297
0.0003948
0.000397169
0.000399683
0.00040198
0.000403873
0.000405404
0.000406575
0.000407373
0.000407776
0.000407726
0.000407116
0.00040576
0.000403379
0.000399623
0.000394138
0.000386655
0.000377091
0.000365617
0.000352669
0.000338907
0.000325147
0.000312308
0.000301327
0.000293032
0.00028797
0.000286206
0.000287228
0.000290066
0.000293597
0.000296895
0.000299431
0.000301087
0.00030206
0.000302728
0.000303561
0.000305044
0.000307635
0.000311728
0.000317608
0.000325413
0.000335114
0.000346515
0.000359288
0.000373037
0.000387366
0.000401931
0.000416478
0.000430838
0.000444916
0.000458659
0.000472037
0.000485028
0.000497611
0.000509785
0.00052157
0.000533031
0.000544284
0.0005555
0.000566902
0.000578752
0.000591335
0.000604937
0.000619835
0.000636278
0.000654489
0.000674661
0.000696971
0.000721589
0.000748691
0.000778471
0.000811137
0.000846903
0.000885963
0.000928453
0.000974406
0.0010237
0.00107605
0.00113097
0.00118781
0.00124583
0.00130428
0.00136245
0.00141974
0.00147573
0.00153016
0.0015829
0.00163396
0.00168339
0.00173129
0.00177774
0.00182276
0.00186637
0.0019085
0.00194903
0.00198779
0.00202461
0.00205931
0.00209176
0.0021219
0.00214972
0.00217524
0.00219834
0.00221878
0.00223667
0.00225236
0.00226594
0.00227761
0.00228751
0.00229569
0.0023022
0.00230709
0.00231031
0.00231167
0.00231101
0.00230812
0.00230275
0.00229455
0.00228302
0.00226836
0.00225116
0.00223094
0.00220775
0.00218168
0.0021528
0.00212152
0.00208844
0.00205382
0.00201795
0.00198093
0.00194167
0.00188148
0.00181957
0.00175618
0.00169158
0.00162696
0.00156246
0.00149907
0.00143679
0.00137576
0.00131611
0.00125759
0.00120017
0.0011446
0.00109157
0.00104145
0.000994608
0.000951711
0.000913311
0.000879636
0.000850793
0.000826877
0.000807929
0.000793792
0.000784154
0.00077857
0.000776496
0.000777299
0.00078015
0.000784193
0.000788753
0.000793228
0.000797185
0.000799936
0.000802
0.000801498
0.000805433
0.000801791
0.000234124
0.000455085
0.000463647
0.00045532
0.000442554
0.000429968
0.000418783
0.000409419
0.000402139
0.000397046
0.000394037
0.000392829
0.000393028
0.000394182
0.000395826
0.000397507
0.000399003
0.000400311
0.000401287
0.000401844
0.000401915
0.000401424
0.000400258
0.000398276
0.000395293
0.000391101
0.000385499
0.000378351
0.000369643
0.00035953
0.000348359
0.00033666
0.000325107
0.000314465
0.000305509
0.000298907
0.000295066
0.000293989
0.000295214
0.000297923
0.000301187
0.00030424
0.000306641
0.000308292
0.000309362
0.000310178
0.000311129
0.000312608
0.000314972
0.000318514
0.000323441
0.000329856
0.000337751
0.000347012
0.000357444
0.000368802
0.000380839
0.000393339
0.000406137
0.000419127
0.000432252
0.000445484
0.000458807
0.0004722
0.000485633
0.000499072
0.00051248
0.000525834
0.000539131
0.000552406
0.000565729
0.000579214
0.000593005
0.000607276
0.000622222
0.00063805
0.000654975
0.000673215
0.000692983
0.000714493
0.000737962
0.000763614
0.000791676
0.000822376
0.000855929
0.000892518
0.000932268
0.000975214
0.00102127
0.00107021
0.00112165
0.00117508
0.00122991
0.0012855
0.00134126
0.00139668
0.00145138
0.00150512
0.00155779
0.00160936
0.00165991
0.00170953
0.00175831
0.00180633
0.00185357
0.00189994
0.00194524
0.00198919
0.00203141
0.00207153
0.0021093
0.00214439
0.00217681
0.00220625
0.00223256
0.00225551
0.00227528
0.00229205
0.00230597
0.00231715
0.00232571
0.00233173
0.00233525
0.00233629
0.00233526
0.00233197
0.00232633
0.00231827
0.0023077
0.00229448
0.00227851
0.00225987
0.00223854
0.00221451
0.00218787
0.00215875
0.00212744
0.0020942
0.00205913
0.00201431
0.0019573
0.0018988
0.00183903
0.0017787
0.0017188
0.00165918
0.00160057
0.00154251
0.00148507
0.00142797
0.00137068
0.00131335
0.00125612
0.00119888
0.00114198
0.00108628
0.00103272
0.000982066
0.00093498
0.000892168
0.000854142
0.000821141
0.000793226
0.000770407
0.000752588
0.000739501
0.000730805
0.000726023
0.000724586
0.000725832
0.000728926
0.000732943
0.000737042
0.000740408
0.000742424
0.000742222
0.000740319
0.000734645
0.000733304
0.000721479
0.000267326
0.000478781
0.000477189
0.00046532
0.000451162
0.000437309
0.00042461
0.0004136
0.00040467
0.000397954
0.000393332
0.000390514
0.000389117
0.000388709
0.000388822
0.000389276
0.000389962
0.000390514
0.000390727
0.000390464
0.000389619
0.00038809
0.000385775
0.000382553
0.000378301
0.000372928
0.000366392
0.000358737
0.000350119
0.000340826
0.000331275