/*--------------------------------*- C++ -*----------------------------------*\
| =========                 |                                                 |
| \\      /  F ield         | OpenFOAM: The Open Source CFD Toolbox           |
|  \\    /   O peration     | Version:  2112                                  |
|   \\  /    A nd           | Website:  www.openfoam.com                      |
|    \\/     M anipulation  |                                                 |
\*---------------------------------------------------------------------------*/
FoamFile
{
    version     2.0;
    format      ascii;
    arch        "LSB;label=32;scalar=64";
    class       volVectorField;
    location    "0.1";
    object      U;
}
// * * * * * * * * * * * * * * * * * * * * * * * * * * * * * * * * * * * * * //

dimensions      [0 1 -1 0 0 0 0];

internalField   nonuniform List<vector> 
12225
(
(9.81515 0.0474441 0)
(9.60166 0.0206905 0)
(9.26655 0.0288041 0)
(8.93861 0.0215727 0)
(8.67537 0.0225843 0)
(8.43513 0.0389412 0)
(8.1768 0.058314 0)
(7.90108 0.067536 0)
(7.63952 0.0631696 0)
(7.41086 0.0515694 0)
(7.22738 0.0393781 0)
(7.06556 0.0330356 0)
(6.93036 0.03226 0)
(6.75936 0.0389236 0)
(6.62534 0.0379775 0)
(6.42826 0.0508038 0)
(6.28892 0.0352281 0)
(6.12813 0.0578299 0)
(10.4004 0.092701 0)
(10.2358 0.112239 0)
(10.0919 0.116757 0)
(10.019 0.111358 0)
(9.98186 0.095284 0)
(9.9792 0.0823466 0)
(10.0145 0.0770623 0)
(10.0759 0.0748096 0)
(10.1361 0.0718331 0)
(10.1603 0.0665484 0)
(10.1358 0.0630739 0)
(10.0659 0.0595233 0)
(9.98234 0.0640864 0)
(9.89621 0.0684826 0)
(9.84167 0.0744669 0)
(9.7993 0.0809813 0)
(9.79452 0.0754211 0)
(9.79698 0.050883 0)
(9.88031 0.00891265 0)
(10.0148 0.102886 0)
(9.99789 0.0915874 0)
(9.96022 0.0513448 0)
(10.0071 0.0299799 0)
(10.1115 0.0282491 0)
(10.192 0.0324294 0)
(10.2125 0.0362872 0)
(10.1898 0.0434345 0)
(10.1546 0.0577023 0)
(10.13 0.0760208 0)
(10.123 0.0898155 0)
(10.1327 0.0948959 0)
(10.156 0.0906346 0)
(10.1876 0.0760835 0)
(10.2246 0.0618894 0)
(10.2652 0.0391784 0)
(10.3008 0.0132373 0)
(9.91878 0.00407945 0)
(10.0281 0.0734523 0)
(10.0306 0.127439 0)
(9.96854 0.105279 0)
(9.96072 0.0507352 0)
(10.0207 0.0276615 0)
(10.0938 0.0456191 0)
(10.1365 0.0738662 0)
(10.1471 0.0871596 0)
(10.15 0.0813228 0)
(10.1669 0.0662938 0)
(10.1996 0.0513615 0)
(10.2345 0.0442767 0)
(10.2578 0.0450538 0)
(10.2636 0.0479359 0)
(10.2553 0.0513786 0)
(10.2419 0.0463399 0)
(10.2285 0.029656 0)
(10.0225 -0.0139946 0)
(10.0618 0.0745319 0)
(10.0957 0.12933 0)
(10.1404 0.0807682 0)
(10.1559 0.0142018 0)
(10.1296 -0.0130554 0)
(10.0998 -0.00295021 0)
(10.1003 0.021552 0)
(10.1345 0.0420598 0)
(10.1841 0.0544119 0)
(10.2273 0.0632001 0)
(10.2508 0.0712098 0)
(10.2526 0.0788875 0)
(10.2416 0.0832559 0)
(10.2302 0.0791837 0)
(10.2284 0.067511 0)
(10.2397 0.0458819 0)
(10.2629 0.0190764 0)
(9.91546 -0.0394976 0)
(10.0921 0.0379421 0)
(10.2545 0.0980285 0)
(10.3265 0.0848326 0)
(10.2647 0.0559011 0)
(10.139 0.0484039 0)
(10.0432 0.0562286 0)
(10.0256 0.0606546 0)
(10.0718 0.0540214 0)
(10.1427 0.0418855 0)
(10.2065 0.033699 0)
(10.2476 0.0339901 0)
(10.2617 0.0412051 0)
(10.2552 0.0500899 0)
(10.2374 0.0526129 0)
(10.2192 0.0466649 0)
(10.2052 0.0301793 0)
(10.1997 0.00752877 0)
(10.0661 -0.0806052 0)
(10.0682 -0.0117613 0)
(10.0666 0.0716158 0)
(10.1057 0.0811927 0)
(10.1499 0.0721716 0)
(10.1616 0.0573006 0)
(10.1437 0.0333617 0)
(10.1113 0.00902123 0)
(10.0787 -0.00346317 0)
(10.0559 0.0016737 0)
(10.0467 0.0227493 0)
(10.0494 0.0525153 0)
(10.062 0.081167 0)
(10.0821 0.0992666 0)
(10.1098 0.100479 0)
(10.1418 0.0849315 0)
(10.1771 0.0561361 0)
(10.2073 0.0217987 0)
(10.2299 -0.0597669 0)
(10.282 0.038908 0)
(10.2745 0.0820184 0)
(10.2743 0.0572927 0)
(10.2876 0.0423653 0)
(10.3043 0.0566328 0)
(10.3076 0.0814372 0)
(10.2851 0.0932212 0)
(10.2414 0.0825982 0)
(10.1939 0.0582299 0)
(10.1609 0.0357126 0)
(10.1523 0.0232313 0)
(10.1683 0.0195884 0)
(10.1993 0.0185324 0)
(10.2327 0.0136999 0)
(10.26 0.00360222 0)
(10.275 -0.0120431 0)
(10.2817 -0.0290406 0)
(9.97843 -0.12361 0)
(10.0166 -0.00474017 0)
(10.0353 0.069888 0)
(10.0427 0.0749367 0)
(10.0574 0.0558976 0)
(10.086 0.0382482 0)
(10.1484 0.0288388 0)
(10.2362 0.0284299 0)
(10.3102 0.0323644 0)
(10.3389 0.0367063 0)
(10.3218 0.0421693 0)
(10.2787 0.0502039 0)
(10.2291 0.0605321 0)
(10.1866 0.0701915 0)
(10.1576 0.0728283 0)
(10.1421 0.0659194 0)
(10.1408 0.0474436 0)
(10.1469 0.0214558 0)
(10.0503 -0.0786782 0)
(9.98822 0.0476181 0)
(9.99718 0.0740045 0)
(10.0581 0.054712 0)
(10.1076 0.0358655 0)
(10.1338 0.0278388 0)
(10.166 0.0245254 0)
(10.2106 0.0280048 0)
(10.2467 0.039863 0)
(10.2559 0.0563929 0)
(10.2369 0.0699897 0)
(10.2037 0.0753887 0)
(10.1739 0.0710605 0)
(10.1615 0.0571478 0)
(10.1707 0.0354475 0)
(10.1985 0.00829429 0)
(10.2358 -0.021082 0)
(10.2751 -0.0487477 0)
(9.96733 -0.00529277 0)
(9.9799 0.0125763 0)
(9.99783 0.0151859 0)
(10.0302 0.0233692 0)
(10.0568 0.0198427 0)
(10.0788 -0.000288682 0)
(10.1119 -0.0190767 0)
(10.1544 -0.0207802 0)
(10.1917 0.000682858 0)
(10.2133 0.0351423 0)
(10.219 0.0654637 0)
(10.2146 0.0825181 0)
(10.2049 0.0837736 0)
(10.1935 0.0715785 0)
(10.1796 0.0496372 0)
(10.1684 0.0235687 0)
(10.1561 -0.00445453 0)
(10.1518 -0.0284935 0)
(9.94581 -0.00753244 0)
(10.0925 0.0329721 0)
(10.0885 0.0564447 0)
(10.0771 0.0410187 0)
(10.0704 0.0275211 0)
(10.0504 0.0077066 0)
(10.0167 -0.00998666 0)
(9.99075 -0.00771718 0)
(9.99236 0.0170477 0)
(10.0227 0.0497024 0)
(10.0718 0.0766375 0)
(10.1254 0.0906517 0)
(10.1687 0.089801 0)
(10.1936 0.0770496 0)
(10.1996 0.0542389 0)
(10.1893 0.0253863 0)
(10.1711 -0.00798848 0)
(10.1446 -0.0424766 0)
(10.0385 -0.160176 0)
(10.1052 -0.0270079 0)
(10.0806 0.00643522 0)
(10.0195 0.0216288 0)
(9.99968 0.027617 0)
(10.008 0.018554 0)
(10.0273 0.00144441 0)
(10.0605 -0.0142912 0)
(10.1076 -0.0235557 0)
(10.1624 -0.0219547 0)
(10.2153 -0.00753713 0)
(10.2576 0.0124381 0)
(10.2861 0.0316003 0)
(10.3029 0.0444993 0)
(10.3146 0.0482572 0)
(10.3216 0.0418828 0)
(10.3277 0.0279661 0)
(10.3226 0.00648797 0)
(10.0141 -0.0410151 0)
(10.142 0.0385875 0)
(10.1024 0.106355 0)
(10.0542 0.0927004 0)
(10.0533 0.0460309 0)
(10.0732 -0.00347654 0)
(10.1015 -0.0395804 0)
(10.1301 -0.0511871 0)
(10.1473 -0.0368628 0)
(10.144 -0.00494251 0)
(10.1184 0.0319607 0)
(10.0794 0.0616145 0)
(10.0421 0.0744074 0)
(10.0211 0.0673633 0)
(10.0255 0.0453199 0)
(10.0555 0.0159093 0)
(10.1014 -0.0135287 0)
(10.1542 -0.0335725 0)
(10.0057 -0.124138 0)
(10.0155 -0.0210935 0)
(10.0448 0.0558759 0)
(10.0739 0.0382791 0)
(10.0574 0.00336745 0)
(10.0032 -0.0195131 0)
(9.95846 -0.0414559 0)
(9.94437 -0.0529278 0)
(9.95052 -0.0404505 0)
(9.96022 -0.00497209 0)
(9.96721 0.0373449 0)
(9.97372 0.0675349 0)
(9.98488 0.0719054 0)
(10.0033 0.0479094 0)
(10.0276 0.00532695 0)
(10.0556 -0.0422836 0)
(10.0831 -0.0826541 0)
(10.1062 -0.105908 0)
(10.218 0.0809174 0)
(10.2184 0.0280983 0)
(10.2747 0.0271187 0)
(10.2914 0.0747797 0)
(10.2683 0.111579 0)
(10.2412 0.0890261 0)
(10.2377 0.0248302 0)
(10.2455 -0.031595 0)
(10.2453 -0.0458538 0)
(10.2369 -0.0198651 0)
(10.23 0.0196636 0)
(10.231 0.0454563 0)
(10.2389 0.0456271 0)
(10.2471 0.0232199 0)
(10.2491 -0.00968352 0)
(10.2404 -0.0401609 0)
(10.2223 -0.0607611 0)
(10.1986 -0.0675918 0)
(9.91549 -0.122651 0)
(9.88241 -0.0892445 0)
(9.92564 -0.00136668 0)
(10.0056 0.0682822 0)
(10.0888 0.0608856 0)
(10.1375 -0.00414505 0)
(10.1469 -0.0621353 0)
(10.1319 -0.0700677 0)
(10.1101 -0.0338408 0)
(10.092 0.013415 0)
(10.0833 0.0461867 0)
(10.0835 0.0572 0)
(10.0891 0.0514216 0)
(10.097 0.0363113 0)
(10.1069 0.0169736 0)
(10.119 -0.00325834 0)
(10.134 -0.0232023 0)
(10.1495 -0.0399008 0)
(9.7921 0.0523227 0)
(9.80225 -0.010223 0)
(9.81281 -0.10606 0)
(9.87403 -0.130796 0)
(9.95975 -0.0608151 0)
(10.0015 0.0181815 0)
(10.0002 0.0454808 0)
(9.99092 0.0304126 0)
(9.98836 0.0128333 0)
(9.99025 0.0147727 0)
(9.994 0.0290071 0)
(9.99897 0.0360984 0)
(10.0057 0.0230371 0)
(10.0163 -0.0111471 0)
(10.0318 -0.0560453 0)
(10.0538 -0.0978514 0)
(10.0792 -0.127041 0)
(10.1078 -0.135579 0)
(9.94791 -0.0493818 0)
(10.0247 -0.100593 0)
(10.0176 -0.0999804 0)
(9.95392 -0.0746634 0)
(9.92355 -0.0631365 0)
(9.94327 -0.0636784 0)
(9.97892 -0.0655863 0)
(9.99653 -0.0576916 0)
(9.99249 -0.0340848 0)
(9.97964 1.51117e-05 0)
(9.97183 0.0289852 0)
(9.97363 0.0377534 0)
(9.97761 0.0211905 0)
(9.97488 -0.0148755 0)
(9.9609 -0.0611078 0)
(9.94017 -0.106061 0)
(9.91693 -0.143974 0)
(9.90131 -0.16897 0)
(9.9249 0.0236638 0)
(9.95542 -0.0535348 0)
(9.86897 -0.0226354 0)
(9.83078 -0.0182012 0)
(9.84773 -0.0708954 0)
(9.88616 -0.0976335 0)
(9.92087 -0.0633403 0)
(9.95234 -0.00275568 0)
(9.9844 0.0383618 0)
(10.0185 0.0454376 0)
(10.0528 0.0336752 0)
(10.0824 0.0234194 0)
(10.1013 0.0225954 0)
(10.1068 0.0266978 0)
(10.0999 0.024725 0)
(10.0836 0.00844993 0)
(10.0617 -0.0266313 0)
(10.0371 -0.0783588 0)
(10.1098 -0.0330855 0)
(10.0839 -0.0368879 0)
(10.0468 -0.0119148 0)
(10.0146 -0.0318215 0)
(9.9791 -0.0774622 0)
(9.93772 -0.116595 0)
(9.91803 -0.126985 0)
(9.92801 -0.115871 0)
(9.95126 -0.0989731 0)
(9.97267 -0.0820314 0)
(9.98647 -0.0625118 0)
(9.99457 -0.0393938 0)
(10.0031 -0.0178763 0)
(10.0177 -0.0043782 0)
(10.0386 -0.00320466 0)
(10.06 -0.0152481 0)
(10.0768 -0.0371908 0)
(10.0801 -0.0663375 0)
(9.94437 0.0354776 0)
(9.98902 0.0118407 0)
(9.97813 0.0452598 0)
(9.94582 0.032394 0)
(9.91873 -0.0291175 0)
(9.90336 -0.0761242 0)
(9.90518 -0.0856418 0)
(9.91456 -0.0686134 0)
(9.92241 -0.0429756 0)
(9.9321 -0.0209669 0)
(9.95137 -0.00805535 0)
(9.98247 -0.00602494 0)
(10.0218 -0.0141203 0)
(10.0619 -0.028222 0)
(10.0939 -0.0422452 0)
(10.1114 -0.0523808 0)
(10.1128 -0.0563011 0)
(10.1011 -0.0582031 0)
(9.85883 -0.037098 0)
(9.93211 -0.00988963 0)
(9.9913 0.0361517 0)
(10.0552 0.0393504 0)
(10.059 -0.00910613 0)
(9.97658 -0.0702365 0)
(9.87305 -0.108248 0)
(9.81663 -0.115717 0)
(9.82047 -0.110258 0)
(9.86932 -0.108608 0)
(9.93953 -0.114409 0)
(10.0049 -0.120346 0)
(10.0469 -0.117388 0)
(10.0602 -0.101205 0)
(10.0512 -0.0752992 0)
(10.0309 -0.0483602 0)
(10.0105 -0.0288986 0)
(9.99882 -0.025541 0)
(9.98665 -0.131412 0)
(10.0609 -0.0465647 0)
(10.1059 -0.0423418 0)
(10.1658 -0.0400435 0)
(10.1898 0.0167927 0)
(10.1513 0.0578311 0)
(10.087 0.0380828 0)
(10.0292 -0.0271396 0)
(9.98571 -0.0966598 0)
(9.95975 -0.140058 0)
(9.95217 -0.147793 0)
(9.95858 -0.125105 0)
(9.97351 -0.0849988 0)
(9.99383 -0.0430347 0)
(10.0184 -0.012986 0)
(10.0451 -0.00171247 0)
(10.0719 -0.00968265 0)
(10.0953 -0.0329001 0)
(9.82294 -0.0742283 0)
(9.80833 -0.073608 0)
(9.7738 -0.0394506 0)
(9.80185 -0.00676082 0)
(9.8943 0.0136321 0)
(9.9805 0.0185266 0)
(10.0298 0.00260463 0)
(10.0437 -0.0297848 0)
(10.0292 -0.0659344 0)
(9.99742 -0.0983306 0)
(9.95986 -0.124318 0)
(9.92387 -0.140467 0)
(9.89445 -0.143667 0)
(9.87704 -0.134114 0)
(9.87494 -0.116633 0)
(9.88682 -0.0981155 0)
(9.90783 -0.083789 0)
(9.93059 -0.0778363 0)
(10.2993 -0.0324004 0)
(10.2285 0.00723161 0)
(10.1134 -0.0471555 0)
(10.0645 -0.100561 0)
(10.0981 -0.0858762 0)
(10.1594 -0.0366805 0)
(10.2084 -0.00717648 0)
(10.2304 -0.0176451 0)
(10.2279 -0.0500108 0)
(10.2164 -0.0772163 0)
(10.2099 -0.0858082 0)
(10.2102 -0.0767243 0)
(10.2106 -0.0593164 0)
(10.206 -0.0444013 0)
(10.1961 -0.0390037 0)
(10.1812 -0.0444267 0)
(10.1631 -0.0575326 0)
(10.1404 -0.0750469 0)
(9.90978 -0.0348604 0)
(10.0589 0.0337066 0)
(10.1597 0.023565 0)
(10.1662 -0.0244122 0)
(10.1178 -0.0527337 0)
(10.077 -0.0530041 0)
(10.0829 -0.0423757 0)
(10.1211 -0.0437903 0)
(10.1541 -0.0637886 0)
(10.1601 -0.0927463 0)
(10.1423 -0.117181 0)
(10.1152 -0.128018 0)
(10.0905 -0.123052 0)
(10.0722 -0.106266 0)
(10.0618 -0.0844061 0)
(10.0584 -0.0644182 0)
(10.0609 -0.0494573 0)
(10.0677 -0.0409922 0)
(10.0217 -0.0436423 0)
(10.0498 -0.0587889 0)
(10.1243 -0.0661818 0)
(10.2106 -0.0496757 0)
(10.2746 -0.0276538 0)
(10.2762 -0.0214771 0)
(10.2402 -0.0307947 0)
(10.2079 -0.0476252 0)
(10.1945 -0.0627528 0)
(10.193 -0.0692995 0)
(10.1904 -0.0665391 0)
(10.1767 -0.0576174 0)
(10.1495 -0.0472886 0)
(10.1144 -0.0403327 0)
(10.0835 -0.0400857 0)
(10.0659 -0.047259 0)
(10.0651 -0.0613299 0)
(10.0783 -0.0787041 0)
(10.0053 -0.0593106 0)
(10.0434 -0.0157003 0)
(10.1017 -0.0713763 0)
(10.1442 -0.0981766 0)
(10.1725 -0.0791363 0)
(10.1873 -0.0405133 0)
(10.1995 -0.0196692 0)
(10.2085 -0.0317795 0)
(10.2007 -0.0630385 0)
(10.1704 -0.0903677 0)
(10.1303 -0.0994307 0)
(10.1011 -0.0902367 0)
(10.0927 -0.0721453 0)
(10.1035 -0.0563517 0)
(10.1245 -0.0494885 0)
(10.1448 -0.052106 0)
(10.1545 -0.0611197 0)
(10.1471 -0.070959 0)
(9.94478 0.0022688 0)
(9.89906 -0.0433972 0)
(9.68763 -0.0676248 0)
(9.38968 -0.063248 0)
(9.14864 -0.0479644 0)
(8.99827 -0.0374331 0)
(8.90595 -0.035188 0)
(8.8199 -0.0362528 0)
(8.70056 -0.0377802 0)
(8.54067 -0.041346 0)
(8.36129 -0.0467642 0)
(8.18852 -0.0527622 0)
(8.03467 -0.0576602 0)
(7.89946 -0.060332 0)
(7.77536 -0.0607406 0)
(7.65773 -0.0595536 0)
(7.53825 -0.0574022 0)
(7.4193 -0.054255 0)
(-0.221032 0.519121 3.10716e-20)
(-0.63024 0.392328 -3.07798e-20)
(-0.842945 0.168761 0)
(-0.875877 -0.0391658 0)
(-0.760692 -0.19975 0)
(-0.559235 -0.313263 2.98821e-20)
(-0.259663 -0.416664 0)
(0.100343 -0.459723 0)
(0.506099 -0.479278 0)
(0.911149 -0.470997 0)
(1.30331 -0.438368 -2.87314e-20)
(1.66868 -0.385209 0)
(1.98728 -0.316742 0)
(2.24594 -0.238575 0)
(2.43619 -0.156858 0)
(2.5529 -0.0764269 -2.74849e-20)
(2.59568 0.00156414 0)
(2.56334 0.0767828 0)
(2.46242 0.146229 0)
(2.2969 0.208797 0)
(2.0724 0.264812 0)
(1.79473 0.314678 0)
(1.4685 0.358768 0)
(1.0975 0.397434 -2.66502e-20)
(0.684562 0.430516 2.65939e-20)
(0.228073 0.457041 -2.65282e-20)
(-0.26398 0.476282 -2.64217e-20)
(-0.778262 0.475513 0)
(-1.30157 0.440691 0)
(-1.80849 0.39172 2.58381e-20)
(-2.28201 0.365197 2.56027e-20)
(-2.72686 0.335645 0)
(-3.13483 0.239524 0)
(-3.46296 0.111761 2.48481e-20)
(-3.70274 0.0538718 0)
(-3.90978 0.0806753 0)
(-4.13626 0.116517 -2.41373e-20)
(-4.38876 0.129509 0)
(-4.64482 0.134223 -2.36944e-20)
(-4.87242 0.11921 -4.7016e-20)
(-5.04388 0.0795142 0)
(-5.14057 0.029639 0)
(-5.13979 -0.0292239 0)
(-5.02969 -0.096899 0)
(-4.81373 -0.168445 0)
(-4.48735 -0.239708 -4.65926e-20)
(-4.05913 -0.304986 -4.67489e-20)
(-3.54983 -0.356737 -4.68993e-20)
(-2.98648 -0.391733 0)
(-2.39326 -0.413473 4.70865e-20)
(-1.7928 -0.422981 0)
(-1.20356 -0.428111 -4.70343e-20)
(-0.620315 -0.458913 -4.6913e-20)
(0.0333202 -0.543825 0)
(0.86223 -0.684081 0)
(1.88924 -0.834216 0)
(3.09552 -0.948922 -4.56266e-20)
(4.41662 -0.939812 0)
(5.67765 -0.75057 0)
(6.70068 -0.540913 0)
(7.50707 -0.194532 0)
(7.69802 0.326212 0)
(7.26979 0.567513 0)
(6.41304 1.01463 0)
(4.68895 1.41112 0)
(2.86039 0.763127 3.95028e-20)
(1.66228 0.0717215 0)
(0.846472 -0.0942065 0)
(0.444294 -0.215246 -3.75997e-20)
(0.69612 -0.567323 -3.71844e-20)
(1.54589 -0.854556 0)
(2.64989 -0.695476 3.67465e-20)
(3.58856 -0.168007 -3.61628e-20)
(3.97781 0.348541 0)
(3.7763 0.446494 3.52897e-20)
(3.35944 0.0678435 0)
(2.95792 -0.12081 0)
(2.01253 0.50347 -3.46047e-20)
(0.381698 0.977714 0)
(-1.12659 0.913619 3.33338e-20)
(-2.46024 0.807227 0)
(-3.61524 0.700093 -3.08496e-20)
(-4.62126 0.599875 -2.94912e-20)
(-5.49148 0.508491 -2.8129e-20)
(-6.24715 0.431626 -5.35823e-20)
(-6.90647 0.36964 5.09852e-20)
(-7.48748 0.321335 0)
(-8.00524 0.283412 0)
(-8.47074 0.252318 0)
(-8.89013 0.224469 4.15762e-20)
(-9.2651 0.197346 3.94995e-20)
(-9.59444 0.169831 -3.75507e-20)
(-9.87565 0.141651 0)
(-10.1059 0.112723 3.40815e-20)
(-10.2826 0.0834195 3.25808e-20)
(-10.4049 0.0553248 3.12453e-20)
(-10.4744 0.0304041 0)
(-10.4948 0.00903211 0)
(-10.4726 -0.00954967 0)
(-10.4125 -0.0255325 2.75939e-20)
(-10.3189 -0.0400727 0)
(-10.1919 -0.0542576 0)
(-10.0325 -0.0682037 -2.66796e-20)
(-9.83921 -0.0826221 0)
(-9.61021 -0.0976185 0)
(-9.34331 -0.113218 -2.74104e-20)
(-9.03648 -0.129275 0)
(-8.68819 -0.145498 0)
(-8.29776 -0.161474 2.96881e-20)
(-7.86553 -0.176734 3.07242e-20)
(-7.39302 -0.190785 0)
(-6.88305 -0.203154 -3.30609e-20)
(-6.33978 -0.213385 0)
(-5.76854 -0.22105 3.55356e-20)
(-5.17565 -0.225798 0)
(-4.56855 -0.227339 3.78813e-20)
(-3.95572 -0.225401 3.89303e-20)
(-3.34548 -0.220041 0)
(-2.74605 -0.211904 0)
(-2.16654 -0.201171 0)
(-1.61427 -0.188176 0)
(-1.09778 -0.17316 0)
(-0.624139 -0.156703 0)
(-0.1974 -0.141837 0)
(0.178048 -0.126892 4.24128e-20)
(0.502467 -0.109942 -4.22323e-20)
(0.778981 -0.0929208 0)
(1.00765 -0.0752007 0)
(1.19153 -0.0567944 0)
(1.33469 -0.0393537 0)
(1.44185 -0.0251615 -8.04167e-20)
(1.51784 -0.0151242 0)
(1.56781 -0.00851756 7.81845e-20)
(1.59724 -0.00404758 -7.70066e-20)
(1.61144 -0.000519145 0)
(1.61545 0.00287671 0)
(1.61382 0.00537358 0)
(1.61002 0.00599073 7.21336e-20)
(1.60703 0.00512148 7.09163e-20)
(1.60759 0.00289809 0)
(1.6139 -0.00034379 6.85272e-20)
(1.62781 -0.00351284 6.7364e-20)
(1.65111 -0.00651643 -6.62263e-20)
(1.6851 -0.00949702 0)
(1.7305 -0.0124765 0)
(1.78745 -0.0153479 -6.29812e-20)
(1.85552 -0.0179836 0)
(1.93386 -0.0202685 0)
(2.02124 -0.0221419 0)
(2.11626 -0.0236228 0)
(2.21754 -0.0247636 5.80494e-20)
(2.32391 -0.025634 5.71118e-20)
(2.43449 -0.0264295 0)
(2.54893 -0.0273217 5.52683e-20)
(2.66725 -0.028036 0)
(2.78945 -0.0286575 0)
(2.91665 -0.0306363 5.25698e-20)
(3.05146 -0.0327051 0)
(3.19196 -0.0316386 5.08156e-20)
(3.33417 -0.033136 0)
(3.48413 -0.039713 0)
(3.6451 -0.0358256 4.82218e-20)
(3.79938 -0.0302672 0)
(3.96089 -0.0478931 4.65035e-20)
(4.16597 -0.0474883 0)
(4.35082 -0.0219051 0)
(4.51378 -0.0494538 0)
(4.76814 -0.0551688 -4.31301e-20)
(4.94276 0.00560552 0)
(5.03174 -0.0454857 4.14429e-20)
(5.34479 -0.0635561 0)
(5.4065 0.0891406 0)
(5.20796 0.00939286 0)
(5.54089 -0.0304458 0)
(5.21672 0.454352 0)
(3.62909 0.42547 0)
(2.77187 -0.290732 0)
(2.57083 -0.327727 -6.88445e-20)
(2.44788 0.170332 0)
(1.96095 0.212217 0)
(0.029784 1.10496 -9.32579e-20)
(0.0721336 0.835221 9.25471e-20)
(0.161042 0.336957 0)
(0.34339 -0.111639 -6.07204e-20)
(0.597836 -0.484961 0)
(0.947971 -0.780989 -2.98182e-20)
(1.33516 -0.999147 5.90398e-20)
(1.72563 -1.13557 5.84749e-20)
(2.1032 -1.19308 0)
(2.44737 -1.17541 5.73307e-20)
(2.74716 -1.09402 2.8583e-20)
(2.99526 -0.962272 0)
(3.18322 -0.793001 0)
(3.30552 -0.599389 0)
(3.36242 -0.394631 0)
(3.35871 -0.189979 2.7422e-20)
(3.29694 0.00564848 0)
(3.18562 0.188348 -5.38498e-20)
(3.02643 0.354839 0)
(2.82669 0.504462 0)
(2.59275 0.638494 5.32595e-20)
(2.32767 0.759233 0)
(2.0324 0.870157 -5.29901e-20)
(1.70631 0.975179 2.65833e-20)
(1.34685 1.07703 -2.65213e-20)
(0.949846 1.17609 2.64525e-20)
(0.511244 1.26795 2.63806e-20)
(0.0215998 1.33143 0)
(-0.520454 1.34231 0)
(-1.09975 1.29045 -2.58603e-20)
(-1.6752 1.19278 2.53812e-20)
(-2.19086 1.07341 0)
(-2.62793 0.937133 0)
(-3.00453 0.783797 -2.48532e-20)
(-3.34682 0.656222 0)
(-3.68416 0.61067 0)
(-4.0507 0.641393 2.41269e-20)
(-4.41793 0.671262 0)
(-4.72768 0.620814 -2.34177e-20)
(-4.96262 0.493044 4.69878e-20)
(-5.10601 0.328725 0)
(-5.1227 0.124008 0)
(-5.00508 -0.122901 9.22643e-20)
(-4.76375 -0.380173 9.22691e-20)
(-4.39902 -0.628756 9.24351e-20)
(-3.9264 -0.860941 -4.61041e-20)
(-3.36966 -1.05528 4.67657e-20)
(-2.76083 -1.19283 1.40231e-19)
(-2.13324 -1.2763 -9.35174e-20)
(-1.49298 -1.32759 -4.7115e-20)
(-0.837593 -1.32484 0)
(-0.204757 -1.26224 4.70657e-20)
(0.34905 -1.29331 -4.61295e-20)
(0.885879 -1.51444 0)
(1.55562 -1.93988 0)
(2.43386 -2.40892 0)
(3.48867 -2.68921 4.54807e-20)
(4.59365 -2.66518 0)
(5.66454 -2.32818 -8.53197e-20)
(6.61103 -1.77336 0)
(7.33213 -1.01743 -8.07944e-20)
(7.87026 0.0242922 0)
(8.06144 1.02821 7.79373e-20)
(7.77982 1.88204 0)
(7.03801 2.60675 -7.73585e-20)
(6.18262 2.81282 3.77412e-20)
(5.04662 2.36328 0)
(3.70922 1.49006 7.57115e-20)
(2.75636 0.485184 3.74078e-20)
(2.51641 -0.801834 3.70478e-20)
(2.76581 -1.9013 0)
(3.23022 -2.01981 3.63593e-20)
(3.64832 -1.34913 3.61257e-20)
(3.75251 -0.44971 0)
(3.39132 0.227928 -3.52809e-20)
(2.19855 0.937312 6.97736e-20)
(0.328707 1.86343 0)
(-1.4706 2.44738 3.45863e-20)
(-2.91405 2.4215 0)
(-3.9999 2.15586 -9.81207e-20)
(-4.91323 1.87261 0)
(-5.66364 1.60336 9.10772e-20)
(-6.31135 1.36988 2.93726e-20)
(-6.87371 1.17427 -2.7313e-20)
(-7.37473 1.01518 -5.22411e-20)
(-7.82571 0.886489 4.98764e-20)
(-8.23833 0.782443 0)
(-8.61853 0.696747 0)
(-8.96916 0.622835 0)
(-9.28971 0.554509 -1.23999e-19)
(-9.57823 0.487123 -3.94644e-20)
(-9.83184 0.418035 3.75243e-20)
(-10.0473 0.346186 0)
(-10.2217 0.271666 3.35636e-20)
(-10.3534 0.195852 -3.25733e-20)
(-10.442 0.121854 -3.1242e-20)
(-10.4879 0.0530021 0)
(-10.4934 -0.00945274 0)
(-10.4606 -0.0650004 0)
(-10.3922 -0.114168 -2.75927e-20)
(-10.2898 -0.159405 0)
(-10.156 -0.202714 5.31275e-20)
(-9.98961 -0.245874 7.95376e-20)
(-9.78942 -0.290285 -5.29674e-20)
(-9.55299 -0.336616 0)
(-9.27781 -0.384969 -2.68906e-20)
(-8.96143 -0.434926 0)
(-8.60195 -0.485634 -5.70331e-20)
(-8.19829 -0.535888 2.91923e-20)
(-7.75046 -0.584255 3.02499e-20)
(-7.25968 -0.629189 0)
(-6.72848 -0.66909 9.874e-20)
(-6.16083 -0.702347 -6.82069e-20)
(-5.56197 -0.727501 -3.55193e-20)
(-4.93814 -0.743412 0)
(-4.29646 -0.749238 -3.78659e-20)
(-3.64488 -0.744336 -1.16573e-19)
(-2.9915 -0.728634 0)
(-2.34432 -0.702981 -8.12259e-20)
(-1.71229 -0.667665 -8.25897e-20)
(-1.10337 -0.623149 -8.36528e-20)
(-0.525769 -0.570718 0)
(0.0100654 -0.511603 0)
(0.499212 -0.451227 0)
(0.937336 -0.389547 4.24175e-20)
(1.31705 -0.326691 4.21772e-20)
(1.63475 -0.268009 0)
(1.88845 -0.215659 8.31611e-20)
(2.08177 -0.170983 8.23293e-20)
(2.22297 -0.133419 0)
(2.32215 -0.100911 8.03322e-20)
(2.38918 -0.0717416 1.58552e-19)
(2.43235 -0.0459258 -7.81094e-20)
(2.45758 -0.0251962 -7.69709e-20)
(2.46893 -0.011213 0)
(2.46909 -0.00397558 0)
(2.46093 -0.00140768 0)
(2.4489 -0.00167783 -7.20709e-20)
(2.43724 -0.00398944 7.08513e-20)
(2.42893 -0.00792256 1.39301e-19)
(2.4267 -0.0135708 -6.84716e-20)
(2.43242 -0.0212478 6.72924e-20)
(2.44737 -0.0306497 6.61733e-20)
(2.47301 -0.0413289 0)
(2.51052 -0.0524213 0)
(2.56036 -0.0631348 -6.29092e-20)
(2.62235 -0.0729379 0)
(2.69579 -0.0814608 0)
(2.77955 -0.0884905 1.19818e-19)
(2.8722 -0.0940147 0)
(2.97231 -0.0982288 5.79875e-20)
(3.07863 -0.101472 -5.7067e-20)
(3.1903 -0.104057 0)
(3.30672 -0.106232 5.52107e-20)
(3.42725 -0.108492 0)
(3.55225 -0.111553 0)
(3.68484 -0.115354 -5.25286e-20)
(3.82389 -0.119365 1.0328e-19)
(3.96609 -0.123246 -5.07756e-20)
(4.11908 -0.125473 0)
(4.27714 -0.127294 0)
(4.42211 -0.131742 4.81688e-20)
(4.58638 -0.134803 0)
(4.77405 -0.142334 4.64489e-20)
(4.93628 -0.156888 0)
(5.13949 -0.153534 0)
(5.37902 -0.15625 0)
(5.56266 -0.170117 4.30943e-20)
(5.79488 -0.136336 0)
(6.02431 -0.130789 -4.14073e-20)
(6.19567 -0.145128 0)
(6.40733 -0.0472555 0)
(6.54174 0.00129734 7.78804e-20)
(6.73801 0.0274768 -7.62252e-20)
(6.68467 0.31833 0)
(6.6444 0.68499 0)
(6.78172 0.805011 0)
(5.00003 0.444004 2.06106e-19)
(3.37924 0.11454 0)
(2.98143 0.187914 -1.27739e-19)
(0.12757 0.496872 -1.3991e-22)
(0.330308 0.287788 -1.23474e-19)
(0.702586 -0.252387 0)
(1.17837 -0.826562 1.21068e-19)
(1.69445 -1.30159 0)
(2.20679 -1.64059 0)
(2.68254 -1.84028 -2.5382e-22)
(3.09956 -1.90891 -5.81577e-20)
(3.44782 -1.86371 -5.70853e-20)
(3.72516 -1.72381 -5.70648e-20)
(3.93304 -1.50886 0)
(4.07433 -1.2393 0)
(4.15081 -0.934697 5.47868e-20)
(4.16193 -0.612571 1.08704e-19)
(4.10875 -0.288366 -1.0797e-19)
(3.99495 0.0246789 0)
(3.8252 0.315405 -1.06792e-19)
(3.60697 0.576136 5.37618e-20)
(3.34886 0.804747 0)
(3.05937 1.00271 -1.05673e-19)
(2.74669 1.17368 -5.31999e-20)
(2.41902 1.32319 1.05179e-19)
(2.08397 1.45822 5.29376e-20)
(1.74766 1.58713 0)
(1.41299 1.71696 -1.04393e-19)
(1.07619 1.84906 -1.04069e-19)
(0.725006 1.98274 0)
(0.34689 2.11331 -1.03307e-19)
(-0.0683768 2.20806 0)
(-0.524601 2.2051 -1.02093e-19)
(-1.0151 2.08325 -5.10518e-20)
(-1.51292 1.87902 0)
(-1.99018 1.63667 0)
(-2.44484 1.39464 0)
(-2.90129 1.24584 0)
(-3.3943 1.25983 0)
(-3.90419 1.30619 0)
(-4.34901 1.21146 -9.42448e-20)
(-4.68061 1.00595 1.40316e-19)
(-4.88879 0.74124 0)
(-4.94729 0.3695 0)
(-4.84318 -0.0838752 0)
(-4.59224 -0.536829 -9.04507e-22)
(-4.20992 -0.97072 -9.23038e-20)
(-3.722 -1.37841 -1.84073e-19)
(-3.16051 -1.72857 1.84615e-19)
(-2.54635 -1.99513 9.21586e-20)
(-1.9136 -2.15074 -9.33507e-20)
(-1.29835 -2.21099 9.7319e-22)
(-0.690483 -2.2814 -9.26848e-20)
(-0.0565107 -2.30842 0)
(0.609679 -2.10097 -9.22667e-20)
(1.18849 -1.92591 9.77106e-22)
(1.6716 -2.12718 0)
(2.24454 -2.7873 0)
(3.0154 -3.56447 8.89767e-20)
(3.89452 -4.00632 0)
(4.76612 -3.95569 0)
(5.54903 -3.48411 -8.04087e-20)
(6.23228 -2.72386 -1.60964e-19)
(6.77388 -1.75085 8.07989e-20)
(7.22396 -0.49046 0)
(7.56338 0.925351 -7.80016e-20)
(7.54544 2.20342 0)
(7.23164 3.172 -7.30172e-20)
(6.81909 3.67147 -7.67099e-20)
(6.20996 3.43891 1.50957e-19)
(5.38287 2.65706 7.56937e-20)
(4.5964 1.62856 0)
(4.17002 -0.203672 -1.50264e-19)
(3.76232 -1.79475 0)
(3.25424 -1.74836 -2.2005e-19)
(2.54153 -0.570689 -1.44551e-19)
(1.58315 0.803925 -1.42074e-19)
(0.333851 2.10702 1.40036e-19)
(-1.19762 3.17807 -2.07951e-19)
(-2.5924 3.75533 0)
(-3.5543 3.75531 0)
(-4.19849 3.41583 1.30192e-19)
(-4.71654 2.98784 1.91415e-19)
(-5.18652 2.57383 0)
(-5.64211 2.21656 -6.03169e-20)
(-6.103 1.92315 0)
(-6.5659 1.68452 1.64215e-19)
(-7.02238 1.48956 1.50471e-21)
(-7.46352 1.32852 -1.29219e-21)
(-7.88565 1.19483 -9.48025e-20)
(-8.28758 1.08122 0)
(-8.66823 0.979225 8.58522e-20)
(-9.02428 0.88079 8.64167e-22)
(-9.35107 0.779923 0)
(-9.64284 0.673228 0)
(-9.89364 0.559846 0)
(-10.0982 0.441294 -6.76286e-20)
(-10.2524 0.320734 0)
(-10.3549 0.202027 0)
(-10.4079 0.0892091 0)
(-10.4162 -0.0140641 0)
(-10.3854 -0.105863 0)
(-10.3217 -0.187474 -5.39913e-20)
(-10.2284 -0.262099 0)
(-10.1062 -0.333448 -5.31195e-20)
(-9.95402 -0.405224 -5.28507e-20)
(-9.76925 -0.479616 5.29524e-20)
(-9.54861 -0.557855 0)
(-9.28865 -0.640028 5.42705e-20)
(-8.98624 -0.725361 0)
(-8.63886 -0.812357 5.70005e-20)
(-8.24496 -0.898968 -5.88313e-20)
(-7.80419 -0.982776 -1.81181e-19)
(-7.31752 -1.06118 0)
(-6.78726 -1.1315 -1.95556e-19)
(-6.21725 -1.19107 -6.69121e-20)
(-5.61272 -1.2375 0)
(-4.97985 -1.26892 -1.45286e-19)
(-4.32561 -1.28399 -1.50093e-19)
(-3.65753 -1.28201 2.32122e-19)
(-2.98364 -1.26285 0)
(-2.31221 -1.22688 8.11623e-20)
(-1.65053 -1.17541 8.25305e-20)
(-1.00648 -1.1098 2.50643e-19)
(-0.387818 -1.03131 0)
(0.195487 -0.943059 0)
(0.741415 -0.846747 0)
(1.25077 -0.743593 8.47809e-20)
(1.7193 -0.634155 0)
(2.14537 -0.521501 0)
(2.52497 -0.409948 -8.30702e-20)
(2.85069 -0.305599 -8.22333e-20)
(3.11244 -0.215103 0)
(3.30224 -0.143131 0)
(3.42028 -0.0906767 -1.58354e-19)
(3.47707 -0.0548992 0)
(3.48982 -0.0303758 1.53726e-19)
(3.47608 -0.0117527 1.51348e-19)
(3.44909 0.00418479 0)
(3.41635 0.0156969 0)
(3.38007 0.0204193 -1.43992e-19)
(3.34213 0.0179331 -7.80404e-24)
(3.30518 0.00934439 -1.492e-23)
(3.27148 -0.00308071 0)
(3.24391 -0.0181802 -2.68951e-19)
(3.22562 -0.0351232 0)
(3.21868 -0.0526944 0)
(3.22422 -0.0706143 0)
(3.24231 -0.088049 1.25747e-19)
(3.27245 -0.104406 0)
(3.31383 -0.119124 -2.43344e-19)
(3.3654 -0.131683 -1.19739e-19)
(3.42586 -0.141913 0)
(3.49403 -0.150038 -1.15921e-19)
(3.56913 -0.156423 0)
(3.65057 -0.16161 0)
(3.73772 -0.166204 -3.31094e-19)
(3.83077 -0.170549 2.17091e-19)
(3.93086 -0.176079 0)
(4.03894 -0.184129 2.09939e-19)
(4.15727 -0.191555 -1.03235e-19)
(4.2867 -0.196615 0)
(4.42267 -0.20204 0)
(4.56356 -0.204931 0)
(4.70907 -0.207011 -2.88897e-19)
(4.85849 -0.21519 0)
(5.02173 -0.228906 -9.28801e-20)
(5.19535 -0.248977 0)
(5.38177 -0.25238 0)
(5.5963 -0.254251 0)
(5.79835 -0.280348 0)
(5.99355 -0.238062 0)
(6.2085 -0.21514 0)
(6.40355 -0.261019 -1.62069e-19)
(6.56322 -0.127458 0)
(6.75422 -0.0685066 -7.78614e-20)
(6.99273 -0.0679802 2.28292e-19)
(7.01569 0.311566 0)
(7.20006 0.57011 0)
(7.64249 0.653284 -1.40259e-19)
(7.26051 1.01679 -1.37083e-19)
(6.2283 1.0606 1.3235e-19)
(4.27415 0.64645 1.27497e-19)
(-0.0324255 0.0324388 1.87041e-19)
(0.30503 -0.582153 1.8535e-19)
(0.98611 -1.51391 1.22063e-19)
(1.66332 -2.23428 6.00365e-20)
(2.26749 -2.6735 0)
(2.77698 -2.87611 -1.17086e-19)
(3.19204 -2.89606 5.71697e-20)
(3.52372 -2.77594 0)
(3.78314 -2.54603 5.69751e-20)
(3.97874 -2.22968 0)
(4.11552 -1.84729 -1.09703e-19)
(4.19631 -1.41928 0)
(4.22208 -0.966673 -5.47762e-20)
(4.1932 -0.508733 -1.08704e-19)
(4.1114 -0.0617422 1.07981e-19)
(3.97895 0.358353 0)
(3.79727 0.741308 1.06734e-19)
(3.57238 1.07878 0)
(3.31004 1.36646 0)
(3.01566 1.60526 1.05599e-19)
(2.69593 1.79961 0)
(2.35782 1.95628 -1.25899e-21)
(2.00815 2.08355 0)
(1.65395 2.19221 0)
(1.30331 2.30095 1.15027e-21)
(0.96414 2.43089 1.04007e-19)
(0.639664 2.58228 1.02477e-19)
(0.321857 2.73431 1.03219e-19)
(-0.00877702 2.86251 0)
(-0.373847 2.92348 2.02922e-19)
(-0.788354 2.8674 0)
(-1.24497 2.69177 9.9378e-20)
(-1.72741 2.45358 0)
(-2.24143 2.24441 0)
(-2.80806 2.14283 -9.64727e-20)
(-3.3914 2.12851 0)
(-3.90189 2.06442 9.40626e-20)
(-4.30046 1.83197 1.26754e-21)
(-4.57533 1.42125 -1.85151e-19)
(-4.69838 0.878949 1.82304e-19)
(-4.65907 0.254785 0)
(-4.45356 -0.406303 0)
(-4.0912 -1.07263 8.89577e-20)
(-3.63531 -1.6881 0)
(-3.1491 -2.20356 9.16073e-20)
(-2.64639 -2.62212 -9.18529e-20)
(-2.12608 -2.93258 -9.21198e-20)
(-1.61336 -3.0789 0)
(-1.10479 -3.06487 9.25116e-20)
(-0.595749 -3.1129 9.25893e-20)
(-0.117231 -3.23825 -1.8245e-19)
(0.466395 -3.0161 9.2165e-20)
(1.05936 -2.65072 9.16841e-20)
(1.60767 -2.79999 0)
(2.26024 -3.6771 0)
(3.07441 -4.64188 -8.88039e-20)
(3.90057 -5.05788 0)
(4.60437 -4.85749 0)
(5.17337 -4.21885 1.65526e-19)
(5.63732 -3.29851 1.61001e-19)
(5.9881 -2.20476 0)
(6.29148 -0.905008 0)
(6.611 0.683467 0)
(6.75081 2.2626 0)
(6.63063 3.45206 1.50374e-19)
(6.33432 4.113 -1.48015e-19)
(5.98379 4.00195 -1.50849e-19)
(5.42517 3.45224 -3.01812e-19)
(4.72427 2.34545 0)
(4.118 0.255099 -2.28262e-21)
(3.17874 -1.00243 0)
(1.95997 -0.508345 1.47534e-19)
(0.700869 0.905063 -1.42131e-21)
(-0.652067 2.4702 1.41967e-19)
(-1.98831 3.78176 -1.3944e-19)
(-3.06258 4.51542 1.08673e-21)
(-3.70358 4.62558 0)
(-4.04326 4.31888 -1.30489e-19)
(-4.31104 3.87514 -1.30081e-19)
(-4.61602 3.42959 -2.50214e-19)
(-4.97993 3.03908 0)
(-5.41347 2.71389 1.15725e-19)
(-5.8873 2.43739 0)
(-6.37212 2.19398 -2.15738e-19)