/*--------------------------------*- C++ -*----------------------------------*\
| =========                 |                                                 |
| \\      /  F ield         | OpenFOAM: The Open Source CFD Toolbox           |
|  \\    /   O peration     | Version:  2112                                  |
|   \\  /    A nd           | Website:  www.openfoam.com                      |
|    \\/     M anipulation  |                                                 |
\*---------------------------------------------------------------------------*/
FoamFile
{
    version     2.0;
    format      ascii;
    arch        "LSB;label=32;scalar=64";
    class       volVectorField;
    location    "0.16";
    object      UMean;
}
// * * * * * * * * * * * * * * * * * * * * * * * * * * * * * * * * * * * * * //

dimensions      [0 1 -1 0 0 0 0];

internalField   nonuniform List<vector> 
12225
(
(9.38529 0.535271 0)
(8.69209 0.258475 0)
(8.20977 0.108227 0)
(7.80939 0.0417984 0)
(7.46645 0.0157268 0)
(7.17031 0.00554042 0)
(6.91078 0.00108809 0)
(6.68023 -0.000965557 0)
(6.4731 -0.00195944 0)
(6.28612 -0.0025029 0)
(6.1149 -0.00280338 0)
(5.95962 -0.00300193 0)
(5.81103 -0.00307518 0)
(5.6807 -0.00328287 0)
(5.53666 -0.00246961 0)
(5.43468 -0.00495704 0)
(5.251 0.0138991 0)
(5.17156 0.0192362 0)
(9.99774 -0.032067 0)
(9.93299 0.0213122 0)
(9.64776 0.0709076 0)
(9.29334 0.101403 0)
(8.95307 0.1118 0)
(8.64933 0.111421 0)
(8.38313 0.107051 0)
(8.14956 0.101952 0)
(7.94279 0.0969947 0)
(7.75857 0.0927598 0)
(7.5922 0.0889527 0)
(7.44199 0.0866348 0)
(7.30225 0.0842206 0)
(7.17442 0.0845633 0)
(7.04993 0.083848 0)
(6.93392 0.0887207 0)
(6.82391 0.101123 0)
(6.72451 0.129303 0)
(10.0112 0.263127 0)
(10.1438 0.319768 0)
(10.2043 0.277522 0)
(10.1857 0.252621 0)
(10.1225 0.230524 0)
(10.0376 0.206441 0)
(9.94028 0.185055 0)
(9.83479 0.167999 0)
(9.72531 0.154108 0)
(9.61395 0.142777 0)
(9.50412 0.133256 0)
(9.39476 0.126124 0)
(9.2896 0.120709 0)
(9.18265 0.117884 0)
(9.0827 0.11795 0)
(8.97295 0.121272 0)
(8.87972 0.130747 0)
(8.75215 0.134516 0)
(10.005 0.0798665 0)
(10.1226 0.108757 0)
(10.2195 0.10046 0)
(10.2689 0.105901 0)
(10.2918 0.117814 0)
(10.3052 0.12456 0)
(10.3126 0.127412 0)
(10.3118 0.129189 0)
(10.303 0.130735 0)
(10.2859 0.131938 0)
(10.2638 0.133019 0)
(10.2345 0.133999 0)
(10.2033 0.136004 0)
(10.1636 0.138659 0)
(10.1263 0.144584 0)
(10.0754 0.151059 0)
(10.0356 0.163707 0)
(9.97017 0.174 0)
(10.0025 0.103664 0)
(10.0955 0.19358 0)
(10.1789 0.201562 0)
(10.2264 0.19565 0)
(10.2527 0.194718 0)
(10.2742 0.193305 0)
(10.2956 0.188336 0)
(10.315 0.18186 0)
(10.3313 0.176038 0)
(10.3434 0.171333 0)
(10.3529 0.167803 0)
(10.3586 0.165299 0)
(10.3629 0.164621 0)
(10.3628 0.165675 0)
(10.3631 0.16989 0)
(10.358 0.176571 0)
(10.3565 0.187345 0)
(10.3485 0.200971 0)
(9.99974 0.0728882 0)
(10.0675 0.135547 0)
(10.1386 0.135675 0)
(10.1866 0.126237 0)
(10.2151 0.12655 0)
(10.2363 0.129897 0)
(10.2567 0.130644 0)
(10.276 0.129245 0)
(10.293 0.127756 0)
(10.3072 0.126982 0)
(10.3191 0.12731 0)
(10.329 0.128585 0)
(10.3377 0.131488 0)
(10.3452 0.13591 0)
(10.3521 0.142945 0)
(10.3592 0.15225 0)
(10.3671 0.164585 0)
(10.3772 0.178997 0)
(9.99834 0.0563145 0)
(10.0508 0.121743 0)
(10.1123 0.141133 0)
(10.1589 0.143597 0)
(10.1879 0.146803 0)
(10.2082 0.150937 0)
(10.2267 0.152611 0)
(10.2448 0.151658 0)
(10.2612 0.14983 0)
(10.2751 0.148358 0)
(10.2868 0.147845 0)
(10.2969 0.148365 0)
(10.3057 0.150268 0)
(10.3141 0.153741 0)
(10.3219 0.159231 0)
(10.3308 0.166879 0)
(10.34 0.176465 0)
(10.3525 0.187796 0)
(9.99744 0.0448716 0)
(10.0381 0.105289 0)
(10.0894 0.127823 0)
(10.1319 0.130007 0)
(10.1606 0.129161 0)
(10.1809 0.130253 0)
(10.1988 0.131243 0)
(10.2162 0.13071 0)
(10.2324 0.12938 0)
(10.2466 0.128389 0)
(10.2586 0.128367 0)
(10.2693 0.129545 0)
(10.2788 0.131991 0)
(10.288 0.13602 0)
(10.2968 0.141577 0)
(10.3066 0.14911 0)
(10.3168 0.157771 0)
(10.3297 0.168175 0)
(9.99686 0.0360102 0)
(10.0285 0.089115 0)
(10.0706 0.113182 0)
(10.1088 0.118795 0)
(10.1372 0.119859 0)
(10.158 0.1222 0)
(10.1756 0.124959 0)
(10.1924 0.126539 0)
(10.2082 0.127005 0)
(10.2225 0.127316 0)
(10.2349 0.128191 0)
(10.246 0.130007 0)
(10.2561 0.132824 0)
(10.266 0.13689 0)
(10.2757 0.142099 0)
(10.2863 0.148743 0)
(10.2972 0.156178 0)
(10.3106 0.164747 0)
(9.99653 0.0292274 0)
(10.0216 0.0749898 0)
(10.056 0.0998067 0)
(10.0898 0.108655 0)
(10.1172 0.111504 0)
(10.138 0.114074 0)
(10.1554 0.116789 0)
(10.1716 0.118637 0)
(10.1869 0.119441 0)
(10.2011 0.119925 0)
(10.2138 0.120761 0)
(10.2254 0.12245 0)
(10.2361 0.125017 0)
(10.2467 0.128721 0)
(10.2571 0.133275 0)
(10.2685 0.139048 0)
(10.2801 0.1452 0)
(10.2938 0.152388 0)
(9.99635 0.0239813 0)
(10.0166 0.063098 0)
(10.0447 0.0873661 0)
(10.0742 0.0983005 0)
(10.0999 0.102523 0)
(10.1205 0.105214 0)
(10.1377 0.107815 0)
(10.1535 0.10994 0)
(10.1685 0.111317 0)
(10.1827 0.112368 0)
(10.1957 0.113616 0)
(10.2077 0.115543 0)
(10.219 0.118187 0)
(10.2302 0.121752 0)
(10.2413 0.125925 0)
(10.2532 0.130992 0)
(10.2653 0.136186 0)
(10.2791 0.14207 0)
(9.99627 0.0200865 0)
(10.0133 0.053684 0)
(10.0369 0.0764907 0)
(10.0626 0.0884159 0)
(10.0864 0.0937018 0)
(10.1065 0.0966865 0)
(10.1236 0.0992987 0)
(10.1391 0.101648 0)
(10.1539 0.103476 0)
(10.168 0.104982 0)
(10.1812 0.106526 0)
(10.1936 0.108553 0)
(10.2053 0.111102 0)
(10.2169 0.114375 0)
(10.2285 0.118026 0)
(10.2407 0.12234 0)
(10.2531 0.12654 0)
(10.2668 0.131255 0)
(9.99621 0.016963 0)
(10.0108 0.0456888 0)
(10.0307 0.066416 0)
(10.053 0.0785103 0)
(10.0748 0.084582 0)
(10.0943 0.088001 0)
(10.1112 0.0907287 0)
(10.1266 0.0932195 0)
(10.1412 0.0953305 0)
(10.1552 0.0971495 0)
(10.1685 0.0988979 0)
(10.1811 0.100958 0)
(10.1933 0.103361 0)
(10.2053 0.106314 0)
(10.2172 0.109468 0)
(10.2296 0.113103 0)
(10.2421 0.116457 0)
(10.2558 0.120196 0)
(9.99616 0.0139816 0)
(10.0087 0.0377496 0)
(10.0252 0.0558022 0)
(10.0442 0.067388 0)
(10.0639 0.0739399 0)
(10.0824 0.0777985 0)
(10.099 0.080673 0)
(10.1142 0.0832262 0)
(10.1286 0.0854814 0)
(10.1425 0.0874954 0)
(10.1559 0.0893715 0)
(10.1688 0.0914041 0)
(10.1813 0.0936006 0)
(10.1936 0.0961662 0)
(10.2058 0.0987635 0)
(10.2184 0.101674 0)
(10.2309 0.104166 0)
(10.2443 0.106927 0)
(9.99613 0.0111636 0)
(10.0069 0.0299949 0)
(10.0206 0.0449323 0)
(10.0366 0.0553079 0)
(10.0541 0.0618051 0)
(10.0713 0.0658849 0)
(10.0875 0.0688401 0)
(10.1025 0.0713689 0)
(10.1168 0.0736306 0)
(10.1306 0.0756988 0)
(10.144 0.0775962 0)
(10.1571 0.0795259 0)
(10.1697 0.0814563 0)
(10.1823 0.0835808 0)
(10.1946 0.0855867 0)
(10.2072 0.0877597 0)
(10.2196 0.0894217 0)
(10.2326 0.0912611 0)
(9.99613 0.00849095 0)
(10.0056 0.0224248 0)
(10.0171 0.033877 0)
(10.0306 0.0423559 0)
(10.0459 0.048133 0)
(10.0619 0.0520236 0)
(10.0774 0.0548701 0)
(10.0922 0.0572501 0)
(10.1064 0.0593729 0)
(10.1201 0.061336 0)
(10.1334 0.0631228 0)
(10.1465 0.0648602 0)
(10.1593 0.0664773 0)
(10.1719 0.0681405 0)
(10.1842 0.0695683 0)
(10.1966 0.0710418 0)
(10.2087 0.07196 0)
(10.2211 0.0729887 0)
(9.99622 0.00589027 0)
(10.0048 0.0148788 0)
(10.0146 0.0224891 0)
(10.0263 0.0284438 0)
(10.04 0.0328213 0)
(10.0548 0.0359996 0)
(10.0697 0.0384181 0)
(10.0842 0.0404423 0)
(10.0982 0.0422381 0)
(10.1118 0.0439064 0)
(10.125 0.045419 0)
(10.138 0.0468577 0)
(10.1507 0.0481239 0)
(10.1632 0.0493555 0)
(10.1753 0.0502944 0)
(10.1873 0.0512128 0)
(10.1991 0.0515788 0)
(10.2107 0.052037 0)
(9.99644 0.0032072 0)
(10.0045 0.0069668 0)
(10.0135 0.0103027 0)
(10.0241 0.0131473 0)
(10.0368 0.0155074 0)
(10.0508 0.0174657 0)
(10.0653 0.0191188 0)
(10.0795 0.0205675 0)
(10.0933 0.0218485 0)
(10.1068 0.0230077 0)
(10.12 0.0240115 0)
(10.1329 0.0249073 0)
(10.1454 0.0256065 0)
(10.1577 0.0262028 0)
(10.1695 0.0265035 0)
(10.1811 0.0267154 0)
(10.1922 0.0264514 0)
(10.2032 0.0261907 0)
(9.99678 0.000119616 0)
(10.0049 -0.00217359 0)
(10.014 -0.00385117 0)
(10.0248 -0.00476692 0)
(10.0377 -0.0049575 0)
(10.0518 -0.00457396 0)
(10.0662 -0.00381187 0)
(10.0803 -0.00281644 0)
(10.094 -0.0017075 0)
(10.1073 -0.000534602 0)
(10.1202 0.00061226 0)
(10.1328 0.00172212 0)
(10.1449 0.00267348 0)
(10.1567 0.00351605 0)
(10.168 0.00406584 0)
(10.1788 0.00450022 0)
(10.1893 0.00448973 0)
(10.1993 0.00446763 0)
(9.99716 -0.00317059 0)
(10.0062 -0.0117514 0)
(10.0169 -0.0184671 0)
(10.0295 -0.0229577 0)
(10.0441 -0.0255522 0)
(10.0596 -0.0269529 0)
(10.0751 -0.0277835 0)
(10.09 -0.0283603 0)
(10.1043 -0.0287702 0)
(10.118 -0.0289879 0)
(10.1311 -0.02904 0)
(10.1438 -0.0289592 0)
(10.1559 -0.0288633 0)
(10.1673 -0.0287695 0)
(10.1783 -0.0288108 0)
(10.1887 -0.0289041 0)
(10.1986 -0.0292423 0)
(10.208 -0.0296005 0)
(9.99741 -0.00662636 0)
(10.008 -0.0214924 0)
(10.0213 -0.032809 0)
(10.0366 -0.0398554 0)
(10.0531 -0.0431411 0)
(10.0694 -0.0439301 0)
(10.085 -0.0434551 0)
(10.0998 -0.042449 0)
(10.114 -0.0411964 0)
(10.1279 -0.0397595 0)
(10.1412 -0.0382273 0)
(10.154 -0.0366747 0)
(10.1662 -0.0352601 0)
(10.1776 -0.0340011 0)
(10.1885 -0.0330352 0)
(10.1987 -0.032247 0)
(10.2085 -0.0318575 0)
(10.2175 -0.0315874 0)
(9.99773 -0.0107307 0)
(10.0108 -0.0323666 0)
(10.0283 -0.0480235 0)
(10.0484 -0.0578104 0)
(10.0692 -0.0635293 0)
(10.0886 -0.0670881 0)
(10.106 -0.0695938 0)
(10.1218 -0.0713533 0)
(10.1367 -0.0723789 0)
(10.1509 -0.0727283 0)
(10.1644 -0.0725954 0)
(10.1771 -0.0721832 0)
(10.1889 -0.0716622 0)
(10.1999 -0.0710996 0)
(10.2102 -0.0705763 0)
(10.2198 -0.0700789 0)
(10.2289 -0.0696946 0)
(10.2372 -0.0693519 0)
(9.99808 -0.0164272 0)
(10.0151 -0.0459572 0)
(10.0374 -0.0629832 0)
(10.061 -0.0686168 0)
(10.083 -0.068259 0)
(10.1024 -0.0666403 0)
(10.1198 -0.0655721 0)
(10.1361 -0.0647992 0)
(10.1518 -0.0637256 0)
(10.1669 -0.062179 0)
(10.1812 -0.0603829 0)
(10.1945 -0.0585647 0)
(10.2069 -0.0568928 0)
(10.2183 -0.055356 0)
(10.2291 -0.0540289 0)
(10.2391 -0.0528278 0)
(10.2486 -0.0519265 0)
(10.2572 -0.0511502 0)
(9.99866 -0.0241725 0)
(10.024 -0.067368 0)
(10.0578 -0.0946444 0)
(10.0906 -0.107781 0)
(10.117 -0.113291 0)
(10.1371 -0.116163 0)
(10.154 -0.117913 0)
(10.17 -0.118384 0)
(10.1859 -0.117505 0)
(10.2011 -0.115671 0)
(10.2151 -0.113409 0)
(10.228 -0.111051 0)
(10.2397 -0.108761 0)
(10.2506 -0.10657 0)
(10.2608 -0.104498 0)
(10.2701 -0.102539 0)
(10.2788 -0.100741 0)
(10.2866 -0.0991384 0)
(9.99898 -0.0309055 0)
(10.0296 -0.0693114 0)
(10.0703 -0.0779464 0)
(10.108 -0.0739581 0)
(10.137 -0.0709498 0)
(10.1589 -0.0716193 0)
(10.1779 -0.0732994 0)
(10.1962 -0.0739327 0)
(10.2139 -0.0733863 0)
(10.2303 -0.0723205 0)
(10.2452 -0.0712653 0)
(10.2587 -0.0702527 0)
(10.2711 -0.0692912 0)
(10.2826 -0.0683386 0)
(10.2933 -0.0674758 0)
(10.3032 -0.0665831 0)
(10.3124 -0.0657235 0)
(10.3206 -0.0647018 0)
(10.0012 -0.0634189 0)
(10.055 -0.146465 0)
(10.1121 -0.173379 0)
(10.1525 -0.174022 0)
(10.1774 -0.171318 0)
(10.1958 -0.16993 0)
(10.2137 -0.167641 0)
(10.2323 -0.163632 0)
(10.2503 -0.158456 0)
(10.2667 -0.152967 0)
(10.2816 -0.147748 0)
(10.2951 -0.142803 0)
(10.3076 -0.138185 0)
(10.319 -0.133545 0)
(10.3298 -0.129117 0)
(10.3396 -0.124662 0)
(10.3489 -0.120466 0)
(10.3571 -0.116134 0)
(10.0027 -0.0382353 0)
(10.0778 -0.0618522 0)
(10.1559 -0.0589046 0)
(10.2072 -0.0599957 0)
(10.2365 -0.0672623 0)
(10.2577 -0.0748148 0)
(10.2775 -0.0796556 0)
(10.2966 -0.0820581 0)
(10.3138 -0.0839122 0)
(10.3283 -0.0859319 0)
(10.3403 -0.0879266 0)
(10.3503 -0.0896206 0)
(10.3588 -0.0909453 0)
(10.3661 -0.0917342 0)
(10.3722 -0.0922152 0)
(10.3772 -0.0921597 0)
(10.3812 -0.0919753 0)
(10.3846 -0.0916872 0)
(10.0056 -0.197498 0)
(10.0981 -0.283677 0)
(10.1665 -0.257355 0)
(10.1965 -0.234475 0)
(10.2034 -0.222057 0)
(10.1997 -0.208263 0)
(10.1905 -0.192247 0)
(10.1761 -0.176779 0)
(10.1562 -0.163873 0)
(10.1322 -0.152927 0)
(10.1053 -0.143754 0)
(10.0769 -0.134854 0)
(10.0475 -0.127624 0)
(10.0178 -0.119874 0)
(9.98825 -0.114947 0)
(9.95868 -0.107921 0)
(9.9301 -0.104054 0)
(9.89993 -0.0938303 0)
(10.0264 0.0261548 0)
(10.1182 -0.00493769 0)
(10.0399 -0.0440839 0)
(9.86638 -0.0723435 0)
(9.6708 -0.0914916 0)
(9.48045 -0.100994 0)
(9.30129 -0.103882 0)
(9.13439 -0.104223 0)
(8.98002 -0.103274 0)
(8.83811 -0.101611 0)
(8.70825 -0.0992629 0)
(8.58932 -0.0969159 0)
(8.48119 -0.0942183 0)
(8.38125 -0.0921364 0)
(8.29193 -0.0899064 0)
(8.20711 -0.0887062 0)
(8.1374 -0.0899465 0)
(8.06809 -0.0937373 0)
(9.57208 -0.480537 0)
(9.0301 -0.28244 0)
(8.63269 -0.161853 0)
(8.30196 -0.0913213 0)
(8.02213 -0.0499267 0)
(7.78507 -0.0274092 0)
(7.57971 -0.0148 0)
(7.39724 -0.00704394 0)
(7.2322 -0.00203062 0)
(7.08235 0.00135559 0)
(6.94469 0.00334588 0)
(6.81973 0.00515487 0)
(6.70244 0.00530943 0)
(6.59791 0.00796728 0)
(6.4949 0.00434675 0)
(6.40636 0.0128153 0)
(6.31094 -0.0100025 0)
(6.21716 0.0172156 0)
(-0.126324 0.271873 5.90446e-22)
(-0.262956 0.111229 -5.75098e-22)
(-0.291395 -0.0471477 0)
(-0.172736 -0.179689 0)
(0.0382129 -0.27494 0)
(0.31619 -0.332438 5.45952e-22)
(0.625415 -0.356402 0)
(0.947131 -0.348314 0)
(1.25628 -0.319698 0)
(1.53792 -0.282827 0)
(1.7863 -0.247134 -3.09438e-22)
(2.00164 -0.211995 0)
(2.18305 -0.173129 0)
(2.32985 -0.132339 0)
(2.44083 -0.0923624 0)
(2.51606 -0.0545243 7.8791e-23)
(2.55544 -0.0198178 0)
(2.55889 0.0116458 0)
(2.52738 0.0399355 0)
(2.46204 0.0660444 0)
(2.3645 0.0895044 0)
(2.23563 0.11036 0)
(2.07587 0.129283 0)
(1.88505 0.147499 2.06524e-22)
(1.66499 0.167421 -1.92498e-22)
(1.41761 0.187412 1.77782e-22)
(1.14758 0.203066 1.64756e-22)
(0.860875 0.214595 0)
(0.562781 0.222058 0)
(0.25809 0.224225 -1.56894e-22)
(-0.0513974 0.223377 -1.70449e-22)
(-0.363709 0.219876 0)
(-0.675963 0.20799 0)
(-0.977479 0.181574 -2.65227e-22)
(-1.26127 0.167828 0)
(-1.53532 0.179346 0)
(-1.79985 0.188375 4.02923e-22)
(-2.05526 0.188052 0)
(-2.30012 0.182717 5.02138e-22)
(-2.53146 0.172633 1.09828e-21)
(-2.7458 0.158301 0)
(-2.94104 0.142392 0)
(-3.11748 0.12606 0)
(-3.27554 0.108182 0)
(-3.41449 0.0893601 0)
(-3.53533 0.0696775 1.41293e-21)
(-3.6356 0.0522931 1.41544e-21)
(-3.72111 0.043389 1.40446e-21)
(-3.7962 0.0403887 0)
(-3.8648 0.0359528 -1.33877e-21)
(-3.92796 0.0232732 0)
(-3.97989 0.0119357 1.21854e-21)
(-4.02332 0.00938306 1.14338e-21)
(-4.05642 0.00785219 0)
(-4.08367 0.00406606 0)
(-4.10933 0.00148634 0)
(-4.13238 0.00770471 7.83125e-22)
(-4.14968 0.00862389 0)
(-4.15871 -0.000219171 0)
(-4.16936 -0.00934416 0)
(-4.18924 0.00160202 0)
(-4.22676 0.0303034 0)
(-4.27775 0.0368573 0)
(-4.31953 0.0334855 0)
(-4.35411 0.0320275 0)
(-4.38046 0.0294341 -9.31474e-23)
(-4.39657 0.024591 0)
(-4.40186 0.0190344 0)
(-4.39716 0.014046 2.94387e-23)
(-4.38327 0.00975591 3.1035e-24)
(-4.36047 0.00553103 0)
(-4.32798 0.00061497 8.15159e-23)
(-4.28522 -0.0046868 -1.45237e-22)
(-4.23152 -0.0103402 0)
(-4.16577 -0.0168999 3.21845e-22)
(-4.08672 -0.0242129 0)
(-3.99374 -0.0316573 0)
(-3.88677 -0.0388158 -7.10721e-22)
(-3.76623 -0.0455458 0)
(-3.63258 -0.0518229 1.04449e-21)
(-3.48632 -0.0576555 0)
(-3.32815 -0.0629429 -1.42006e-21)
(-3.15893 -0.0676183 -1.61645e-21)
(-2.98 -0.0716903 -1.81424e-21)
(-2.79273 -0.0751526 -4.02033e-21)
(-2.5987 -0.0778664 4.40213e-21)
(-2.39965 -0.0797134 0)
(-2.19775 -0.080582 0)
(-1.99524 -0.0803711 0)
(-1.7943 -0.0791018 5.72228e-21)
(-1.59704 -0.0769719 5.98112e-21)
(-1.4056 -0.0742413 -6.20728e-21)
(-1.22251 -0.0706795 0)
(-1.05104 -0.0655518 6.56291e-21)
(-0.894739 -0.0582147 6.69475e-21)
(-0.757874 -0.0491717 6.79609e-21)
(-0.642698 -0.0388224 0)
(-0.549489 -0.0287574 0)
(-0.473842 -0.0207981 0)
(-0.412285 -0.0135043 6.8503e-21)
(-0.362719 -0.0075054 0)
(-0.320298 -0.00333969 0)
(-0.279773 -0.00225792 -6.61619e-21)
(-0.231888 -0.00549038 0)
(-0.171478 -0.0106635 0)
(-0.0977192 -0.0160483 -6.40844e-21)
(-0.011207 -0.0208436 0)
(0.0862967 -0.0249596 0)
(0.193671 -0.0283443 6.43462e-21)
(0.309615 -0.0312227 6.49169e-21)
(0.434374 -0.0342286 0)
(0.568002 -0.0372409 -6.65208e-21)
(0.709359 -0.0396786 0)
(0.856219 -0.0412152 6.84652e-21)
(1.00642 -0.0418614 0)
(1.15823 -0.0419151 7.03171e-21)
(1.3109 -0.041792 7.10876e-21)
(1.46456 -0.0419381 0)
(1.62003 -0.0424285 0)
(1.77785 -0.0430354 0)
(1.93723 -0.0432406 0)
(2.0961 -0.0425244 0)
(2.25174 -0.0406922 0)
(2.40149 -0.0376808 0)
(2.54246 -0.0337127 7.0986e-21)
(2.67211 -0.0289651 -7.00377e-21)
(2.78891 -0.0237607 0)
(2.89177 -0.0183575 0)
(2.98033 -0.0130121 0)
(3.05483 -0.00792758 0)
(3.11618 -0.00319489 -1.26261e-20)
(3.16488 0.00144546 0)
(3.2005 0.00632848 1.20117e-20)
(3.22219 0.0112138 -1.17244e-20)
(3.23089 0.0152604 0)
(3.2294 0.017991 0)
(3.2202 0.0196923 0)
(3.20549 0.0205252 1.07863e-20)
(3.18706 0.0207727 1.06141e-20)
(3.16589 0.0207199 0)
(3.14256 0.0205276 1.03395e-20)
(3.11749 0.0202234 1.02278e-20)
(3.09081 0.0198057 -1.01265e-20)
(3.06265 0.0193071 0)
(3.03315 0.018775 0)
(3.00209 0.0182551 -9.86087e-21)
(2.9689 0.0179579 0)
(2.9326 0.0179971 0)
(2.89187 0.0185478 0)
(2.8451 0.0197999 0)
(2.79018 0.0219731 9.45292e-21)
(2.72489 0.0249376 9.35297e-21)
(2.64995 0.0273707 0)
(2.57201 0.0277443 9.12814e-21)
(2.49722 0.026531 0)
(2.42691 0.025128 0)
(2.35986 0.0247381 8.81563e-21)
(2.29253 0.0254974 0)
(2.22652 0.0251835 8.63251e-21)
(2.17003 0.0223741 0)
(2.12742 0.0184395 0)
(2.09698 0.0149636 8.42927e-21)
(2.07545 0.0124093 0)
(2.05972 0.0109516 8.35975e-21)
(2.04721 0.0104293 0)
(2.03676 0.0101899 0)
(2.0298 0.00954971 0)
(2.02788 0.00851286 -8.18758e-21)
(2.03123 0.00734018 0)
(2.03889 0.00638179 8.08274e-21)
(2.05043 0.00563659 0)
(2.06398 0.00518947 0)
(2.07925 0.00516351 0)
(2.09253 0.00551611 0)
(2.10424 0.0070019 0)
(2.10536 0.00787303 0)
(2.10533 0.0118819 0)
(2.07123 0.0105874 -1.51179e-20)
(2.06117 0.0264903 0)
(1.93864 0.0176917 0)
(-0.000693265 0.485485 -1.71772e-21)
(0.0895096 0.214292 1.67404e-21)
(0.238492 -0.153666 0)
(0.486225 -0.497117 -9.96637e-22)
(0.773747 -0.753981 0)
(1.09402 -0.904479 -5.48474e-22)
(1.40919 -0.961581 7.90247e-22)
(1.70445 -0.949001 6.8227e-22)
(1.96875 -0.887469 0)
(2.19589 -0.792654 3.99657e-22)
(2.38087 -0.683026 3.09827e-22)
(2.52615 -0.572369 0)
(2.63607 -0.4684 0)
(2.7145 -0.368103 0)
(2.76114 -0.266784 0)
(2.77755 -0.165519 -7.91228e-23)
(2.76291 -0.0643989 0)
(2.71763 0.0364557 6.16238e-22)
(2.6409 0.133205 0)
(2.53331 0.225323 0)
(2.39461 0.312372 -6.96491e-22)
(2.22332 0.398424 0)
(2.01973 0.486568 6.79182e-22)
(1.78637 0.569485 -2.03602e-22)
(1.52892 0.640834 1.88916e-22)
(1.25236 0.697736 -1.7363e-22)
(0.961349 0.738993 -1.6014e-22)
(0.660658 0.765047 0)
(0.35248 0.777657 0)
(0.0351994 0.783969 1.51503e-22)
(-0.291524 0.788202 -4.79949e-22)
(-0.625507 0.78681 0)
(-0.965213 0.776043 0)
(-1.30736 0.751694 2.60125e-22)
(-1.65076 0.712105 0)
(-1.98842 0.661706 0)
(-2.30138 0.61413 -4.00517e-22)
(-2.5883 0.575027 0)
(-2.85076 0.536234 8.60374e-22)
(-3.08912 0.493957 -1.09833e-21)
(-3.30375 0.448851 0)
(-3.49625 0.402749 0)
(-3.66878 0.358721 -3.36614e-21)
(-3.82428 0.318646 -3.45163e-21)
(-3.96222 0.278918 -3.50387e-21)
(-4.08542 0.238761 2.10403e-21)
(-4.19633 0.203282 -1.4206e-21)
(-4.3013 0.177039 -4.87378e-21)
(-4.40031 0.156906 3.38967e-21)
(-4.49131 0.141559 1.34466e-21)
(-4.57591 0.126634 0)
(-4.65125 0.108516 -1.22442e-21)
(-4.72001 0.0844169 1.68188e-21)
(-4.78202 0.0648476 0)
(-4.83655 0.0573431 0)
(-4.88421 0.0514914 0)
(-4.91315 0.0353982 -7.8789e-22)
(-4.93636 0.012443 0)
(-4.9614 0.0148658 1.64219e-21)
(-5.00003 0.0426898 0)
(-5.03285 0.0642469 1.26574e-21)
(-5.05227 0.0729183 0)
(-5.06706 0.0656713 -9.44697e-22)
(-5.06969 0.0503904 0)
(-5.0634 0.0316002 7.23413e-22)
(-5.04611 0.0109575 -5.45456e-22)
(-5.0193 -0.00945449 0)
(-4.9831 -0.0282009 -5.28715e-22)
(-4.93872 -0.0450646 -3.89787e-23)
(-4.8857 -0.0609259 -1.31243e-23)
(-4.82379 -0.076825 0)
(-4.75256 -0.0932981 -2.69751e-22)
(-4.67187 -0.110585 1.34331e-22)
(-4.58125 -0.129038 0)
(-4.48018 -0.148773 -3.10953e-22)
(-4.36831 -0.169357 5.63284e-22)
(-4.24539 -0.190252 0)
(-4.11125 -0.210888 7.01059e-22)
(-3.96572 -0.230827 0)
(-3.80875 -0.24979 -2.8625e-21)
(-3.64073 -0.267556 0)
(-3.46226 -0.283851 4.00948e-21)
(-3.27406 -0.298263 1.61014e-21)
(-3.07685 -0.31032 -1.5947e-21)
(-2.872 -0.319672 -3.59797e-21)
(-2.66126 -0.326044 3.99608e-21)
(-2.44667 -0.32914 0)
(-2.23031 -0.328821 0)
(-2.01436 -0.325233 0)
(-1.80096 -0.318392 -1.68045e-20)
(-1.59238 -0.307946 -5.9747e-21)
(-1.39146 -0.293376 6.20107e-21)
(-1.20193 -0.274012 0)
(-1.02846 -0.249602 6.24395e-21)
(-0.875383 -0.220678 -6.68866e-21)
(-0.745141 -0.188382 -6.7899e-21)
(-0.635513 -0.156401 0)
(-0.542178 -0.129413 0)
(-0.461276 -0.107573 0)
(-0.389338 -0.0898837 -6.84387e-21)
(-0.322336 -0.0781276 0)
(-0.254522 -0.0746953 1.29965e-20)
(-0.1796 -0.0810192 1.94319e-20)
(-0.0923291 -0.0945773 -1.26598e-20)
(0.0073952 -0.1104 0)
(0.118381 -0.125881 -6.05241e-21)
(0.238907 -0.139741 0)
(0.367646 -0.151624 -1.24749e-20)
(0.503079 -0.161801 6.13318e-21)
(0.645481 -0.171338 6.20471e-21)
(0.795895 -0.180767 0)
(0.954379 -0.189152 1.9691e-20)
(1.1192 -0.195422 -1.32463e-20)
(1.28868 -0.199217 -6.84413e-21)
(1.46117 -0.200794 0)
(1.63579 -0.200871 -7.02967e-21)
(1.81221 -0.200419 -2.11071e-20)
(1.99063 -0.200318 0)
(2.17142 -0.200742 -1.42298e-20)
(2.35428 -0.200963 -1.42984e-20)
(2.53767 -0.199544 -1.43322e-20)
(2.7189 -0.195178 0)
(2.8947 -0.187353 0)
(3.06213 -0.176436 0)
(3.21876 -0.163181 6.94017e-21)
(3.36283 -0.148234 6.99974e-21)
(3.49352 -0.132357 0)
(3.61016 -0.116184 1.33775e-20)
(3.71257 -0.100299 1.30968e-20)
(3.80094 -0.0851539 0)
(3.87587 -0.0708677 1.26204e-20)
(3.93767 -0.0568184 2.43538e-20)
(3.98608 -0.0426217 -1.20065e-20)
(4.02127 -0.0291134 -1.14645e-20)
(4.04465 -0.0175401 0)
(4.0579 -0.00827517 0)
(4.06268 -0.00120658 0)
(4.06113 0.00381361 -1.07819e-20)
(4.05517 0.00732188 1.03819e-20)
(4.04591 0.00983295 2.07014e-20)
(4.03422 0.0117351 -1.03346e-20)
(4.02026 0.0134357 1.00098e-20)
(4.00344 0.0151839 1.01212e-20)
(3.98312 0.0171275 0)
(3.95867 0.0193085 0)
(3.92924 0.0218857 -9.64921e-21)
(3.89363 0.0251825 0)
(3.85053 0.0293992 0)
(3.79844 0.0347855 1.9035e-20)
(3.73576 0.0416712 0)
(3.66059 0.0500609 9.23868e-21)
(3.57265 0.0581698 -9.34641e-21)
(3.4765 0.0624961 0)
(3.37926 0.0618492 8.91688e-21)
(3.28326 0.0586485 0)
(3.18769 0.0553207 0)
(3.09235 0.0531079 -8.81013e-21)
(3.00019 0.0504625 1.72408e-20)
(2.91991 0.0438139 -8.62745e-21)
(2.85839 0.033435 0)
(2.81282 0.0231493 0)
(2.77775 0.0150923 8.25436e-21)
(2.74975 0.00943463 0)
(2.72635 0.00581165 8.19263e-21)
(2.70613 0.00335032 0)
(2.68955 0.000652694 0)
(2.67817 -0.00277003 0)
(2.67215 -0.00656025 8.18356e-21)
(2.67072 -0.0100919 0)
(2.67278 -0.0130716 -8.07883e-21)
(2.6786 -0.0151473 0)
(2.68602 -0.0164819 0)
(2.69571 -0.0160972 1.56835e-20)
(2.70213 -0.0150063 -1.55517e-20)
(2.70884 -0.0101864 0)
(2.70275 -0.00661228 0)
(2.69879 0.00598069 0)
(2.6599 0.00922892 4.5089e-20)
(2.64678 0.0449746 0)
(2.55006 0.049384 -2.95084e-20)
(0.0791799 0.142747 4.28665e-23)
(0.332334 -0.319217 -2.15402e-21)
(0.662189 -0.820875 0)
(1.01827 -1.23431 1.8511e-21)
(1.35239 -1.49831 0)
(1.6534 -1.61471 0)
(1.9057 -1.60097 -3.86678e-22)
(2.10886 -1.49795 -6.84833e-22)
(2.26206 -1.33438 -7.24027e-23)
(2.37049 -1.13331 -4.01249e-22)
(2.44011 -0.928348 0)
(2.47547 -0.73952 0)
(2.48016 -0.564974 -5.52234e-22)
(2.45514 -0.396252 -1.35106e-21)
(2.4018 -0.230723 1.56314e-21)
(2.32584 -0.0723862 0)
(2.22957 0.0801949 1.87635e-21)
(2.11379 0.228685 -6.1597e-22)
(1.97638 0.371425 0)
(1.81605 0.510157 2.08582e-21)
(1.63125 0.648665 6.9451e-22)
(1.42453 0.783197 -2.09386e-21)
(1.20125 0.907069 -6.75745e-22)
(0.965753 1.01542 0)
(0.721489 1.10547 2.01239e-21)
(0.470557 1.17599 1.98532e-21)
(0.214926 1.22664 0)
(-0.0444286 1.25953 1.97378e-21)
(-0.310576 1.28477 0)
(-0.58477 1.3077 2.05687e-21)
(-0.865474 1.32469 6.36424e-22)
(-1.15093 1.33211 0)
(-1.43982 1.32666 0)
(-1.73047 1.30514 0)
(-2.02122 1.26553 0)
(-2.3105 1.20698 0)
(-2.59218 1.13121 0)
(-2.85972 1.04487 3.39848e-21)
(-3.10574 0.954743 -4.97561e-21)
(-3.3286 0.863723 0)
(-3.52932 0.773129 0)
(-3.70869 0.685652 0)
(-3.86641 0.603891 -9.38444e-22)
(-4.00607 0.52972 3.44746e-21)
(-4.12746 0.458265 7.93645e-21)
(-4.23595 0.394179 -7.96711e-21)
(-4.33872 0.347661 -4.4209e-21)
(-4.43777 0.318883 3.46445e-21)
(-4.53207 0.296806 8.65875e-22)
(-4.61746 0.270823 4.12087e-21)
(-4.69442 0.23595 0)
(-4.76198 0.200962 3.77154e-21)
(-4.82097 0.174751 7.40864e-22)
(-4.87189 0.152631 0)
(-4.91064 0.129855 0)
(-4.93475 0.098038 -2.93403e-21)
(-4.94666 0.0665416 0)
(-4.97064 0.0621487 0)
(-4.9948 0.0670251 2.90624e-21)
(-5.01154 0.0699147 4.15016e-21)
(-5.01197 0.0675001 -1.27416e-21)
(-4.99432 0.0572203 0)
(-4.96497 0.0361588 9.54861e-22)
(-4.92735 0.0107141 0)
(-4.88544 -0.0155975 1.93321e-21)
(-4.83862 -0.0417578 6.58507e-22)
(-4.78876 -0.0671848 -2.32312e-21)
(-4.73491 -0.0917381 -1.63121e-21)
(-4.67652 -0.11581 0)
(-4.61182 -0.140235 1.84254e-21)
(-4.53994 -0.165761 0)
(-4.46014 -0.192569 1.58997e-21)
(-4.37211 -0.220645 1.06635e-21)
(-4.27541 -0.249993 6.9369e-22)
(-4.16981 -0.280533 -2.56965e-22)
(-4.05498 -0.311916 -7.95651e-22)
(-3.93055 -0.343579 0)
(-3.79604 -0.374991 0)
(-3.65131 -0.405584 2.12378e-21)
(-3.49629 -0.434764 4.67522e-21)
(-3.33118 -0.461919 0)
(-3.15652 -0.486591 -2.58779e-21)
(-2.97319 -0.508483 0)
(-2.78213 -0.526967 9.50281e-21)
(-2.58433 -0.54098 6.60267e-22)
(-2.38124 -0.549776 -6.35373e-22)
(-2.17481 -0.553105 -8.51489e-21)
(-1.96717 -0.550887 0)
(-1.76045 -0.543257 9.91973e-21)
(-1.55674 -0.530103 5.46163e-22)
(-1.3584 -0.510754 0)
(-1.16847 -0.484083 0)
(-0.990885 -0.448548 0)
(-0.82991 -0.403605 -1.27923e-20)
(-0.688717 -0.352243 0)
(-0.567158 -0.300378 0)
(-0.459695 -0.254121 0)
(-0.360726 -0.216325 0)
(-0.268129 -0.185474 0)
(-0.179825 -0.162078 -1.27125e-20)
(-0.0926625 -0.149664 0)
(-0.00247736 -0.150586 -1.29881e-20)
(0.0952234 -0.164389 -1.28136e-20)
(0.201671 -0.18592 1.26516e-20)
(0.315733 -0.209161 0)
(0.437198 -0.231314 1.24471e-20)
(0.56534 -0.250921 0)
(0.699304 -0.267658 1.2467e-20)
(0.839014 -0.282565 -1.25558e-20)
(0.986049 -0.297312 -3.71678e-20)
(1.1416 -0.311918 0)
(1.3049 -0.3246 -3.82947e-20)
(1.47436 -0.334012 -1.24645e-20)
(1.64823 -0.339857 0)
(1.82497 -0.34252 -2.65912e-20)
(2.00333 -0.342875 -2.698e-20)
(2.18284 -0.34228 4.13085e-20)
(2.36384 -0.342042 0)
(2.54704 -0.342503 1.4226e-20)
(2.73239 -0.342377 1.42939e-20)
(2.91864 -0.339147 4.23582e-20)
(3.10332 -0.330482 0)
(3.28316 -0.315715 0)
(3.45518 -0.295887 0)
(3.61726 -0.272476 1.34945e-20)
(3.76794 -0.246656 0)
(3.90648 -0.219515 0)
(4.032 -0.191847 -1.3372e-20)
(4.1438 -0.164413 -1.30919e-20)
(4.2416 -0.138036 0)
(4.32574 -0.11299 0)
(4.39669 -0.0886793 -2.43464e-20)
(4.4548 -0.064777 0)
(4.50088 -0.0423992 2.3178e-20)
(4.53616 -0.0230739 2.223e-20)
(4.56202 -0.00738104 0)
(4.58081 0.00448592 0)
(4.59527 0.0127739 -2.0936e-20)
(4.60665 0.0184235 -3.78982e-22)
(4.61565 0.0223937 -3.68879e-22)
(4.62258 0.0255779 0)
(4.62666 0.029007 -4.01014e-20)
(4.62659 0.0332401 0)
(4.62151 0.0382007 0)
(4.61089 0.0437678 0)
(4.59392 0.0502023 1.94957e-20)
(4.56938 0.0579964 0)
(4.53578 0.0674988 -3.76782e-20)
(4.49151 0.0790185 -1.9026e-20)
(4.43477 0.092939 0)
(4.3642 0.108421 -1.86754e-20)
(4.28152 0.121793 0)
(4.19223 0.128247 0)
(4.09949 0.128 -5.33918e-20)
(4.00077 0.125227 3.49513e-20)
(3.89521 0.122041 0)
(3.78537 0.117865 3.41769e-20)
(3.67961 0.108897 -1.72319e-20)
(3.58999 0.0918612 0)
(3.51974 0.0710566 0)
(3.46298 0.0530882 0)
(3.41627 0.0395833 -4.94394e-20)
(3.37763 0.0299604 0)
(3.34602 0.0234221 -1.65422e-20)
(3.32123 0.0185959 0)
(3.30328 0.0135671 0)
(3.29164 0.00788282 0)
(3.28443 0.00192304 0)
(3.28041 -0.00346861 0)
(3.27868 -0.00812268 0)
(3.27986 -0.0114117 -3.13648e-20)
(3.28174 -0.0134534 0)
(3.28501 -0.0126729 -1.56798e-20)
(3.28389 -0.0105693 4.62271e-20)
(3.28242 -0.00326396 0)
(3.26855 0.00371123 0)
(3.256 0.0206286 -2.98474e-20)
(3.21353 0.032334 -2.99728e-20)
(3.1918 0.0695226 2.92926e-20)
(3.10086 0.0941231 2.9504e-20)
(0.125934 -0.406546 3.0039e-21)
(0.464946 -1.10046 2.86193e-21)
(0.856648 -1.64373 1.54833e-21)
(1.19039 -1.97347 3.56134e-22)
(1.4531 -2.10201 0)
(1.64178 -2.06958 -4.02913e-22)
(1.76198 -1.91696 -4.1589e-22)
(1.82961 -1.68163 0)
(1.85836 -1.40982 7.08146e-23)
(1.86068 -1.13108 0)
(1.84164 -0.867016 1.47278e-21)
(1.79923 -0.624084 0)
(1.73497 -0.402695 5.55363e-22)
(1.64723 -0.192006 1.35737e-21)
(1.54241 0.00488808 -1.56925e-21)
(1.42702 0.182875 0)
(1.29972 0.354575 -1.88135e-21)
(1.15631 0.528076 0)
(0.993932 0.702758 0)
(0.813722 0.874771 -2.08826e-21)
(0.61946 1.0383 0)
(0.4152 1.18854 -8.53862e-22)
(0.204713 1.32118 0)
(-0.00948875 1.43355 0)
(-0.226116 1.52468 9.34111e-22)
(-0.444278 1.59388 -1.98133e-21)
(-0.664221 1.64338 -2.95664e-21)
(-0.889347 1.68209 -1.96728e-21)
(-1.1209 1.71561 0)
(-1.35636 1.7419 -5.15564e-21)
(-1.59325 1.75848 0)
(-1.8294 1.76287 -3.3234e-21)
(-2.06282 1.75227 0)
(-2.29229 1.72426 0)
(-2.51681 1.67722 3.80408e-21)
(-2.73639 1.61027 0)
(-2.95053 1.52316 -4.20005e-21)
(-3.15755 1.41873 1.0232e-21)
(-3.35345 1.30278 8.22815e-21)
(-3.53473 1.18147 -9.63514e-21)
(-3.6992 1.05989 0)
(-3.84617 0.941371 0)
(-3.97485 0.829242 -6.2578e-21)
(-4.08671 0.726045 0)
(-4.18245 0.632287 -4.43506e-21)
(-4.26939 0.555563 4.4481e-21)
(-4.3521 0.50025 4.4235e-21)
(-4.42748 0.45808 0)
(-4.49312 0.41672 -4.26217e-21)
(-4.54749 0.373403 -4.12694e-21)
(-4.59095 0.326918 9.66408e-21)
(-4.6239 0.278834 -3.7787e-21)
(-4.64492 0.233654 -3.5827e-21)
(-4.65413 0.190812 0)
(-4.64892 0.14258 0)
(-4.63393 0.0976542 2.94414e-21)
(-4.62742 0.0811705 0)
(-4.62447 0.0778833 0)
(-4.61417 0.0725645 -4.58158e-21)
(-4.59258 0.0595528 -4.17791e-21)
(-4.55923 0.0396745 0)
(-4.51656 0.0142514 0)
(-4.4689 -0.0142598 0)
(-4.41969 -0.0423932 0)
(-4.37023 -0.0700011 -2.69762e-21)
(-4.3202 -0.0976395 3.75339e-21)
(-4.26964 -0.125804 2.35213e-21)
(-4.21643 -0.15467 5.58885e-21)
(-4.1588 -0.184635 0)
(-4.09472 -0.216245 1.13251e-21)
(-4.0233 -0.249667 0)
(-3.94413 -0.284666 -1.40405e-21)
(-3.85746 -0.321027 1.06653e-21)
(-3.76338 -0.358842 -7.18466e-22)
(-3.66165 -0.398256 2.80797e-22)
(-3.55169 -0.438918 1.01783e-21)
(-3.43308 -0.48006 0)
(-3.30547 -0.520942 -4.36846e-22)
(-3.16872 -0.560901 -2.10505e-21)
(-3.02285 -0.599258 -4.74141e-21)
(-2.86801 -0.635255 0)
(-2.70454 -0.668072 3.53408e-21)