/*--------------------------------*- C++ -*----------------------------------*\
| =========                 |                                                 |
| \\      /  F ield         | OpenFOAM: The Open Source CFD Toolbox           |
|  \\    /   O peration     | Version:  2112                                  |
|   \\  /    A nd           | Website:  www.openfoam.com                      |
|    \\/     M anipulation  |                                                 |
\*---------------------------------------------------------------------------*/
FoamFile
{
    version     2.0;
    format      ascii;
    arch        "LSB;label=32;scalar=64";
    class       volScalarField;
    location    "0.17";
    object      p;
}
// * * * * * * * * * * * * * * * * * * * * * * * * * * * * * * * * * * * * * //

dimensions      [0 2 -2 0 0 0 0];

internalField   nonuniform List<scalar> 
12885
(
0.693908
-4.73289
-5.03729
-4.79697
-4.70325
-4.67371
-4.66218
-4.63263
-4.57253
-4.4946
-4.34757
-4.31891
-4.49456
-4.56325
-4.4593
-4.30702
-4.17586
-4.03486
-3.86991
-3.70846
-3.54879
-3.39236
-3.23925
-3.09735
-2.9759
-2.87444
-2.763
-2.69833
-2.70474
-2.74547
-2.70424
-2.65332
-2.63476
-2.56573
-2.49648
-2.43123
-2.37043
-2.31397
-2.26174
-2.22702
0.674362
-4.72807
-5.03575
-4.79605
-4.70266
-4.67323
-4.6617
-4.63217
-4.57201
-4.49419
-4.34724
-4.31745
-4.49342
-4.56309
-4.45885
-4.30662
-4.17532
-4.03428
-3.86938
-3.70791
-3.54817
-3.39174
-3.23879
-3.09709
-2.97541
-2.87374
-2.76214
-2.69667
-2.70182
-2.74268
-2.711
-2.66237
-2.63323
-2.56491
-2.49586
-2.43071
-2.36994
-2.3135
-2.26187
-2.21947
0.615742
-4.71789
-5.03294
-4.79435
-4.70155
-4.67233
-4.66083
-4.63132
-4.57107
-4.49342
-4.34629
-4.31452
-4.49187
-4.56317
-4.45838
-4.30606
-4.17433
-4.03319
-3.86841
-3.70693
-3.54711
-3.39067
-3.23797
-3.09657
-2.97431
-2.87196
-2.75865
-2.69087
-2.69703
-2.73993
-2.72969
-2.67906
-2.63146
-2.56352
-2.49472
-2.42972
-2.36899
-2.31253
-2.26013
-2.20876
0.504729
-4.69213
-5.02724
-4.79094
-4.69927
-4.67059
-4.65924
-4.62987
-4.56949
-4.49214
-4.34365
-4.31439
-4.49004
-4.56111
-4.46059
-4.30585
-4.17326
-4.03137
-3.86683
-3.70553
-3.54565
-3.38902
-3.23616
-3.09569
-2.97212
-2.8678
-2.75675
-2.69577
-2.70357
-2.733
-2.74539
-2.70585
-2.63552
-2.56223
-2.49282
-2.42801
-2.3674
-2.31056
-2.25633
-2.20213
0.317485
-4.62643
-5.01213
-4.78117
-4.6916
-4.66535
-4.65563
-4.62737
-4.56688
-4.48947
-4.34822
-4.33021
-4.48477
-4.53654
-4.4483
-4.30292
-4.17723
-4.03837
-3.87058
-3.70733
-3.54578
-3.38716
-3.23066
-3.08698
-2.97491
-2.87309
-2.78222
-2.74242
-2.74019
-2.73113
-2.72396
-2.69818
-2.63299
-2.55819
-2.48855
-2.42497
-2.36526
-2.30879
-2.25465
-2.20447
0.0202326
-4.49364
-4.97922
-4.77091
-4.68428
-4.65986
-4.65039
-4.62376
-4.56495
-4.48271
-4.3837
-4.3725
-4.47493
-4.51515
-4.4317
-4.29185
-4.15286
-4.0071
-3.86074
-3.71071
-3.55259
-3.38806
-3.23197
-3.10365
-3.00933
-2.92582
-2.85733
-2.80906
-2.76664
-2.73809
-2.71563
-2.68293
-2.62768
-2.56068
-2.49409
-2.43273
-2.37577
-2.32326
-2.27385
-2.22995
-0.457563
-4.28152
-4.91086
-4.74384
-4.67762
-4.66922
-4.65917
-4.6284
-4.5729
-4.50861
-4.45125
-4.43349
-4.46686
-4.48065
-4.41357
-4.28747
-4.13826
-3.99577
-3.86451
-3.72591
-3.58359
-3.44926
-3.33599
-3.23844
-3.14002
-3.05876
-2.99699
-2.93745
-2.87758
-2.82179
-2.77516
-2.73097
-2.68293
-2.63076
-2.57815
-2.52905
-2.48454
-2.44532
-2.41002
-2.37985
-1.18755
-4.009
-4.77995
-4.69935
-4.67802
-4.68159
-4.66809
-4.63482
-4.59142
-4.5515
-4.51241
-4.47739
-4.46023
-4.44039
-4.38302
-4.2836
-4.16062
-4.03856
-3.91593
-3.79687
-3.69109
-3.6022
-3.51962
-3.43163
-3.34057
-3.26304
-3.20343
-3.15146
-3.10312
-3.0545
-3.00696
-2.96636
-2.93194
-2.90125
-2.87281
-2.84652
-2.82254
-2.8011
-2.7819
-2.76509
-2.13677
-3.78991
-4.60883
-4.66864
-4.65466
-4.65267
-4.65109
-4.64187
-4.62431
-4.59989
-4.56811
-4.53261
-4.49785
-4.46215
-4.41426
-4.34798
-4.2675
-4.18195
-4.09797
-4.01923
-3.94499
-3.87287
-3.79941
-3.72623
-3.65559
-3.59273
-3.5379
-3.50045
-3.49523
-3.48736
-3.46249
-3.43526
-3.41364
-3.39711
-3.38345
-3.37113
-3.35964
-3.34908
-3.33965
-3.33145
-3.08803
-3.79426
-4.35838
-4.58898
-4.6391
-4.65086
-4.66889
-4.68938
-4.70036
-4.69777
-4.68455
-4.6654
-4.64362
-4.61985
-4.59239
-4.55997
-4.52333
-4.48507
-4.44799
-4.41402
-4.38395
-4.35858
-4.33828
-4.32335
-4.3128
-4.30581
-4.30023
-4.16808
-4.06488
-4.09947
-4.11889
-4.12319
-4.12189
-4.11939
-4.11809
-4.11834
-4.11959
-4.12125
-4.123
-4.12478
-3.91513
-4.15541
-4.41879
-4.61838
-4.73661
-4.80146
-4.84342
-4.8779
-4.90784
-4.93322
-4.9546
-4.97278
-4.98887
-5.00373
-5.01801
-5.03194
-5.04587
-5.06
-5.07483
-5.0902
-5.10643
-5.12273
-5.13951
-5.15503
-5.16992
-5.17983
-5.17527
-5.21952
-5.25794
-5.27257
-5.28373
-5.29645
-5.30856
-5.31951
-5.32945
-5.33868
-5.34738
-5.35561
-5.36335
-5.37059
-4.65726
-4.72549
-4.82804
-4.94121
-5.04666
-5.13719
-5.2153
-5.28349
-5.34305
-5.40688
-5.4754
-5.54081
-5.60078
-5.65606
-5.70815
-5.75804
-5.80598
-5.85183
-5.89545
-5.93686
-5.97613
-6.01345
-6.04877
-6.08233
-6.11385
-6.14373
-6.17114
-6.19718
-6.21589
-6.21609
-6.2563
-6.29471
-6.31929
-6.33537
-6.34874
-6.36217
-6.37593
-6.38934
-6.40181
-6.41316
-4.94821
-5.00506
-5.10587
-5.22994
-5.3564
-5.47192
-5.57467
-5.6638
-5.73641
-5.81309
-5.91415
-6.01326
-6.09752
-6.16966
-6.23509
-6.29738
-6.35741
-6.41499
-6.46935
-6.52053
-6.56801
-6.61248
-6.65273
-6.68983
-6.71989
-6.73765
-6.7728
-6.81679
-6.85225
-6.87924
-6.9013
-6.92116
-6.93999
-6.95792
-6.97469
-6.99015
-7.00429
-7.01723
-7.0291
-7.03997
-4.7478
-4.90539
-5.11669
-5.32601
-5.49801
-5.63032
-5.73919
-5.83923
-5.93788
-6.03932
-6.14074
-6.23452
-6.3181
-6.39351
-6.4633
-6.52906
-6.59105
-6.64933
-6.70333
-6.75352
-6.79918
-6.84024
-6.88079
-6.92071
-6.95727
-6.99042
-7.02077
-7.04854
-7.07391
-7.09715
-7.11853
-7.13825
-7.15643
-7.17318
-7.18857
-7.2027
-7.21567
-7.22756
-7.23849
-7.24849
-4.2662
-4.65882
-5.10939
-5.4444
-5.6323
-5.73897
-5.83215
-5.93689
-6.04798
-6.15599
-6.25564
-6.34546
-6.42706
-6.50252
-6.57307
-6.63918
-6.70093
-6.75846
-6.81209
-6.86181
-6.90785
-6.95072
-6.99069
-7.02753
-7.06131
-7.09226
-7.12071
-7.14693
-7.17112
-7.19341
-7.21389
-7.23271
-7.24997
-7.26581
-7.28034
-7.29366
-7.30588
-7.31708
-7.32735
-7.33674
-3.60935
-4.46663
-5.24219
-5.62519
-5.73829
-5.79537
-5.88567
-6.00356
-6.12236
-6.229
-6.32347
-6.4091
-6.48869
-6.56344
-6.63361
-6.69917
-6.76018
-6.81683
-6.86939
-6.9181
-6.96321
-7.00494
-7.04348
-7.07904
-7.11184
-7.14207
-7.16992
-7.19554
-7.21911
-7.24076
-7.26064
-7.27889
-7.29564
-7.31099
-7.32507
-7.33798
-7.34981
-7.36064
-7.37058
-7.37966
-2.8659
-4.47133
-5.49574
-5.77149
-5.7811
-5.82272
-5.92878
-6.05502
-6.17156
-6.2726
-6.36239
-6.44536
-6.52357
-6.59741
-6.66672
-6.73141
-6.79156
-6.84735
-6.89907
-6.947
-6.99137
-7.0324
-7.07028
-7.10522
-7.1374
-7.16703
-7.1943
-7.21938
-7.24243
-7.2636
-7.28305
-7.3009
-7.31729
-7.33234
-7.34615
-7.35882
-7.37043
-7.38107
-7.39084
-7.39977
-2.17578
-4.63527
-5.7322
-5.83686
-5.79885
-5.85252
-5.96795
-6.09157
-6.20181
-6.2982
-6.38558
-6.46735
-6.54469
-6.61772
-6.68629
-6.7503
-6.80979
-6.86496
-6.91616
-6.96366
-7.00769
-7.04839
-7.08595
-7.12056
-7.15242
-7.18172
-7.20864
-7.23331
-7.25597
-7.27686
-7.29605
-7.31368
-7.32981
-7.34455
-7.35803
-7.37036
-7.38165
-7.39202
-7.40156
-7.4103
-1.63117
-4.85244
-5.87817
-5.86576
-5.81967
-5.88283
-5.99659
-6.1135
-6.21881
-6.31297
-6.39949
-6.48074
-6.5575
-6.62993
-6.69805
-6.76161
-6.82056
-6.8752
-6.92602
-6.9733
-7.01713
-7.0576
-7.09489
-7.12924
-7.16085
-7.18995
-7.21669
-7.24127
-7.26382
-7.28447
-7.30342
-7.3208
-7.33674
-7.35139
-7.36477
-7.37701
-7.38809
-7.39821
-7.40732
-7.41581
-1.23688
-5.0531
-5.95585
-5.88636
-5.84255
-5.90681
-6.01475
-6.12601
-6.22839
-6.32155
-6.40776
-6.48871
-6.56503
-6.63714
-6.70511
-6.76843
-6.82696
-6.8812
-6.93181
-6.97903
-7.02277
-7.06311
-7.10024
-7.1344
-7.16582
-7.19472
-7.22128
-7.24565
-7.26801
-7.28862
-7.30754
-7.3249
-7.3408
-7.35548
-7.36894
-7.38138
-7.39258
-7.40292
-7.41191
-7.42045
-0.959606
-5.20855
-5.99677
-5.90224
-5.86048
-5.92138
-6.02424
-6.1323
-6.23308
-6.32561
-6.41152
-6.49213
-6.56809
-6.64008
-6.70809
-6.77131
-6.82957
-6.88359
-6.93419
-6.98146
-7.02522
-7.06554
-7.10261
-7.13673
-7.16813
-7.19691
-7.22335
-7.24761
-7.26986
-7.29041
-7.30933
-7.32682
-7.34287
-7.35767
-7.37128
-7.38394
-7.39537
-7.40606
-7.41542
-7.42449
-0.761791
-5.31313
-6.01617
-5.91181
-5.86988
-5.92817
-6.02883
-6.13579
-6.23602
-6.32831
-6.41401
-6.4944
-6.57004
-6.64193
-6.70999
-6.77308
-6.83111
-6.88495
-6.93557
-6.98286
-7.0266
-7.06686
-7.10388
-7.13797
-7.16929
-7.19806
-7.22446
-7.24872
-7.27091
-7.29119
-7.30989
-7.32738
-7.34362
-7.35861
-7.37238
-7.38509
-7.39659
-7.40728
-7.41679
-7.42592
-0.619295
-5.37135
-6.02489
-5.91731
-5.8743
-5.9309
-6.03054
-6.13702
-6.23702
-6.32919
-6.41481
-6.49513
-6.57061
-6.64246
-6.71062
-6.77368
-6.83164
-6.88541
-6.93603
-6.98337
-7.0271
-7.06733
-7.10432
-7.13842
-7.1697
-7.19849
-7.22496
-7.2493
-7.27147
-7.2916
-7.31013
-7.32735
-7.34356
-7.35884
-7.37281
-7.38553
-7.39704
-7.40768
-7.41723
-7.42628
-0.520288
-5.39937
-6.02866
-5.91976
-5.87596
-5.93196
-6.0313
-6.13763
-6.23755
-6.32967
-6.41525
-6.49552
-6.57096
-6.64276
-6.71093
-6.77404
-6.83198
-6.88567
-6.93626
-6.98364
-7.02736
-7.06758
-7.10457
-7.13866
-7.16995
-7.19876
-7.22526
-7.24963
-7.27181
-7.29191
-7.31041
-7.32742
-7.34344
-7.35888
-7.37304
-7.38578
-7.39728
-7.4079
-7.41745
-7.42647
-0.455114
-5.412
-6.03068
-5.92105
-5.87678
-5.93253
-6.03176
-6.138
-6.23788
-6.32997
-6.41553
-6.49577
-6.5712
-6.64298
-6.71112
-6.77425
-6.8322
-6.88586
-6.93642
-6.9838
-7.02752
-7.06774
-7.10471
-7.13879
-7.17012
-7.19892
-7.22541
-7.24979
-7.272
-7.29209
-7.3106
-7.32758
-7.34345
-7.35889
-7.37316
-7.38593
-7.39743
-7.40804
-7.41758
-7.4266
-0.414163
-5.41804
-6.03205
-5.92186
-5.87727
-5.93287
-6.03204
-6.13824
-6.23809
-6.33017
-6.4157
-6.49593
-6.57135
-6.64313
-6.71126
-6.77438
-6.83232
-6.88598
-6.93653
-6.98391
-7.02763
-7.06783
-7.10479
-7.13888
-7.17021
-7.19902
-7.2255
-7.24989
-7.27209
-7.29218
-7.31071
-7.32769
-7.34353
-7.35892
-7.37322
-7.38602
-7.39752
-7.40814
-7.41766
-7.42668
-0.389043
-5.42153
-6.03302
-5.92239
-5.87759
-5.93309
-6.03222
-6.1384
-6.23823
-6.33029
-6.41582
-6.49604
-6.57145
-6.64322
-6.71135
-6.77446
-6.8324
-6.88606
-6.93661
-6.98399
-7.0277
-7.0679
-7.10486
-7.13894
-7.17027
-7.19907
-7.22555
-7.24994
-7.27215
-7.29224
-7.31076
-7.32775
-7.3436
-7.35897
-7.37326
-7.38608
-7.39757
-7.40819
-7.41772
-7.42673
-0.373627
-5.42392
-6.0337
-5.92274
-5.87779
-5.93323
-6.03233
-6.1385
-6.23832
-6.33037
-6.41589
-6.4961
-6.57151
-6.64328
-6.71141
-6.77451
-6.83244
-6.8861
-6.93666
-6.98403
-7.02774
-7.06794
-7.1049
-7.13898
-7.17031
-7.19911
-7.22559
-7.24998
-7.27218
-7.29227
-7.31079
-7.32778
-7.34364
-7.35901
-7.37329
-7.38612
-7.39761
-7.40823
-7.41775
-7.42676
-0.363971
-5.42567
-6.03415
-5.92296
-5.87792
-5.93332
-6.0324
-6.13856
-6.23838
-6.33043
-6.41594
-6.49615
-6.57155
-6.64332
-6.71144
-6.77454
-6.83247
-6.88613
-6.93669
-6.98406
-7.02777
-7.06797
-7.10493
-7.13901
-7.17034
-7.19913
-7.22561
-7.25
-7.2722
-7.29229
-7.31081
-7.3278
-7.34366
-7.35904
-7.37332
-7.38614
-7.39763
-7.40826
-7.41778
-7.42678
-0.358239
-5.42677
-6.03442
-5.9231
-5.87799
-5.93337
-6.03244
-6.1386
-6.23841
-6.33046
-6.41596
-6.49617
-6.57157
-6.64334
-6.71146
-6.77456
-6.83249
-6.88615
-6.9367
-6.98408
-7.02778
-7.06798
-7.10494
-7.13902
-7.17035
-7.19915
-7.22562
-7.25001
-7.27221
-7.2923
-7.31082
-7.32781
-7.34367
-7.35906
-7.37334
-7.38616
-7.39765
-7.40827
-7.41779
-7.42679
-9.17168
-9.18842
-9.18934
-9.1948
-9.19461
-9.19369
-9.19205
-9.18973
-9.18671
-9.18294
-9.17831
-9.1727
-9.16596
-9.1579
-9.14838
-9.13713
-9.12416
-9.11437
-9.09826
-9.07231
-9.05039
-9.02825
-9.01131
-9.01572
-9.02435
-9.02714
-9.02758
-9.03119
-9.04436
-9.07392
-9.15596
-9.35884
-9.75722
-10.4018
-11.3139
-12.4876
-13.8955
-15.4868
-17.1895
-18.8886
-20.4353
-21.6009
-22.1568
-21.8773
-21.0322
-20.4658
-20.1905
-19.9534
-19.6443
-19.286
-19.32
-20.4889
-22.7991
-23.2826
-21.3966
-18.244
-14.2341
-12.8187
-13.7857
-14.8122
-15.5732
-15.8404
-15.7369
-15.958
-15.5526
-15.28
-15.4031
-15.7287
-16.6075
-18.591
-21.905
-26.0893
-30.2352
-33.8623
-36.8173
-38.9667
-40.2702
-40.7221
-40.3746
-39.3922
-37.7599
-35.5165
-32.7122
-29.4038
-25.655
-21.5393
-17.1387
-12.5458
-7.86325
-3.20158
1.32561
5.60821
9.54771
13.065
16.1066
18.6472
20.6886
22.2665
23.4535
24.2112
24.6075
24.7758
24.7448
24.575
24.3102
23.9871
23.6344
23.2736
22.9195
22.5814
22.2634
21.9663
21.6875
21.4238
21.1722
20.9315
20.7007
20.4804
20.2697
20.069
19.8812
19.7129
19.5718
19.4632
19.3889
19.3462
19.3228
19.2947
19.2201
19.0384
18.7192
18.3192
17.9654
17.7912
17.8518
18.0765
18.3506
18.5986
18.7966
18.9485
19.0655
19.1582
19.2373
19.3138
19.3942
19.4839
19.6005
19.7712
19.9916
20.1947
20.3224
20.4916
20.8068
20.862
20.3498
19.3501
18.1099
16.8376
15.6306
14.6504
13.8601
12.6113
10.0617
5.77086
0.175915
-5.73013
-10.9373
-15.0116
-17.8024
-19.1311
-19.0231
-17.7539
-15.3333
-11.9544
-7.82187
-3.20068
1.63074
6.41712
10.9474
15.0131
-9.16204
-9.17837
-9.17444
-9.17601
-9.17661
-9.17724
-9.17716
-9.1765
-9.17527
-9.17347
-9.17107
-9.16802
-9.16424
-9.15964
-9.15422
-9.14788
-9.14099
-9.13481
-9.13078
-9.1117
-9.09625
-9.08053
-9.06919
-9.08576
-9.10109
-9.10141
-9.09514
-9.08217
-9.06985
-9.08599
-9.16227
-9.36271
-9.75987
-10.4037
-11.3153
-12.4886
-13.8961
-15.4872
-17.1897
-18.8885
-20.435
-21.6002
-22.1557
-21.8755
-21.0288
-20.4596
-20.1895
-19.9512
-19.6539
-19.2915
-19.3193
-20.4265
-22.795
-23.2805
-21.3967
-18.2469
-14.2746
-12.8205
-13.7857
-14.8107
-15.5716
-15.8402
-15.7371
-15.958
-15.5534
-15.2811
-15.4039
-15.7293
-16.6077
-18.5903
-21.9015
-26.0357
-30.2296
-33.8597
-36.8155
-38.9654
-40.2692
-40.7213
-40.374
-39.3917
-37.7595
-35.5162
-32.7121
-29.4038
-25.6551
-21.5395
-17.1389
-12.5461
-7.86373
-3.20216
1.32493
5.60744
9.54683
13.064
16.1055
18.6459
20.6868
22.2622
23.3772
24.2056
24.6058
24.7748
24.7442
24.5746
24.3099
23.9869
23.6343
23.2735
22.9195
22.5814
22.2635
21.9664
21.6877
21.424
21.1724
20.9317
20.7009
20.4805
20.2699
20.0692
19.8814
19.7131
19.572
19.4633
19.3889
19.3462
19.3227
19.2946
19.22
19.0385
18.7195
18.3197
17.9661
17.7917
17.8519
18.0762
18.3502
18.5983
18.7964
18.9484
19.0655
19.1582
19.2373
19.3139
19.3943
19.4839
19.6004
19.771
19.9913
20.1944
20.322
20.4909
20.806
20.8613
20.3494
19.3499
18.1098
16.8376
15.6307
14.6503
13.8599
12.6111
10.062
5.77188
0.178923
-5.65205
-10.9347
-15.0099
-17.8012
-19.1303
-19.0226
-17.7536
-15.3331
-11.9545
-7.82211
-3.2011
1.63016
6.41637
10.9465
15.0118
-9.15999
-9.17485
-9.17111
-9.16976
-9.16901
-9.16902
-9.16889
-9.1686
-9.16808
-9.1673
-9.16622
-9.16482
-9.16306
-9.16086
-9.15823
-9.15502
-9.15127
-9.14446
-9.14139
-9.13844
-9.13171
-9.12312
-9.11757
-9.13836
-9.1501
-9.14994
-9.14311
-9.12896
-9.10786
-9.10725
-9.17358
-9.36958
-9.76443
-10.4069
-11.3175
-12.4902
-13.8972
-15.4879
-17.19
-18.8885
-20.4345
-21.5993
-22.1541
-21.8729
-21.024
-20.4457
-20.1851
-19.9443
-19.682
-19.3028
-19.3183
-20.376
-22.7901
-23.2776
-21.3972
-18.2521
-14.3213
-12.8231
-13.7856
-14.8083
-15.5691
-15.84
-15.7376
-15.9582
-15.5547
-15.2827
-15.405
-15.73
-16.6077
-18.5884
-21.8893
-25.9802
-30.2276
-33.8565
-36.8131
-38.9636
-40.2678
-40.7203
-40.3732
-39.3911
-37.759
-35.5158
-32.7119
-29.4038
-25.6552
-21.5398
-17.1393
-12.5467
-7.86447
-3.20306
1.32388
5.60623
9.54547
13.0625
16.1037
18.6437
20.6833
22.2534
23.3388
24.1968
24.6029
24.7733
24.7433
24.574
24.3095
23.9866
23.6341
23.2734
22.9195
22.5815
22.2636
21.9666
21.6879
21.4242
21.1727
20.932
20.7012
20.4808
20.2702
20.0695
19.8817
19.7133
19.5722
19.4634
19.389
19.3462
19.3226
19.2944
19.2199
19.0386
18.72
18.3206
17.9673
17.7926
17.8519
18.0756
18.3495
18.5978
18.7961
18.9483
19.0655
19.1583
19.2375
19.314
19.3944
19.4839
19.6003
19.7706
19.9908
20.1938
20.3214
20.49
20.8049
20.8604
20.3488
19.3496
18.1097
16.8376
15.6307
14.6502
13.8597
12.611
10.0625
5.77381
0.18862
-5.60396
-10.9327
-15.0077
-17.7997
-19.1293
-19.0219
-17.7532
-15.333
-11.9546
-7.82249
-3.20174
1.62929
6.41524
10.945
15.0096
-9.16059
-9.1737
-9.17193
-9.1705
-9.16967
-9.16936
-9.16901
-9.16857
-9.16797
-9.16716
-9.1661
-9.16476
-9.16308
-9.161
-9.15851
-9.15542
-9.15174
-9.14491
-9.14102
-9.13966
-9.13405
-9.12636
-9.12175
-9.13436
-9.14129
-9.14178
-9.13718
-9.1306
-9.12478
-9.12689
-9.18824
-9.3799
-9.77163
-10.4119
-11.3211
-12.4927
-13.8989
-15.489
-17.1906
-18.8886
-20.4341
-21.5982
-22.1521
-21.8698
-21.0192
-20.4321
-20.1755
-19.9329
-19.7113
-19.3164
-19.3162
-20.3739
-22.7851
-23.2748
-21.3991
-18.2628
-14.3425
-12.8268
-13.7851
-14.8051
-15.5658
-15.84
-15.7383
-15.9586
-15.5564
-15.2848
-15.4065
-15.7308
-16.607
-18.582
-21.8577
-25.9972
-30.2275
-33.8533
-36.8106
-38.9616
-40.2663
-40.7191
-40.3723
-39.3904
-37.7585
-35.5156
-32.7118
-29.4039
-25.6555
-21.5403
-17.14
-12.5476
-7.86553
-3.20432
1.32241
5.60455
9.54353
13.0602
16.1009
18.6398
20.6767
22.2382
23.3484
24.1896
24.5994
24.7714
24.742
24.5732
24.3089
23.9863
23.6339
23.2733
22.9194
22.5815
22.2638
21.9668
21.6882
21.4246
21.1731
20.9324
20.7016
20.4812
20.2706
20.0699
19.882
19.7137
19.5724
19.4636
19.389
19.3461
19.3224
19.2942
19.2199
19.0389
18.7209
18.3221
17.9689
17.7935
17.8516
18.0747
18.3487
18.5972
18.7957
18.9481
19.0655
19.1584
19.2376
19.3142
19.3945
19.4838
19.6
19.7701
19.9901
20.1932
20.3205
20.4887
20.8034
20.8592
20.348
19.3493
18.1095
16.8375
15.6307
14.6501
13.8595
12.6112
10.0637
5.77849
0.215199
-5.63781
-10.9312
-15.0055
-17.7982
-19.1282
-19.0213
-17.7528
-15.333
-11.9549
-7.82312
-3.20268
1.62803
6.41358
10.9426
15.0055
-9.16111
-9.17265
-9.17262
-9.17152
-9.17091
-9.17055
-9.17013
-9.16958
-9.16886
-9.16794
-9.16675
-9.16526
-9.16341
-9.16114
-9.15841
-9.15505
-9.15109
-9.14473
-9.14029
-9.13738
-9.13128
-9.12317
-9.11932
-9.12769
-9.13444
-9.13433
-9.12893
-9.12336
-9.12522
-9.13864
-9.20406
-9.39436
-9.78326
-10.4207
-11.3275
-12.4973
-13.9022
-15.4912
-17.192
-18.8894
-20.434
-21.5973
-22.1499
-21.8661
-21.0147
-20.4264
-20.1639
-19.9242
-19.7224
-19.3279
-19.309
-20.3848
-22.7792
-23.2727
-21.4063
-18.2856
-14.3483
-12.8349
-13.7842
-14.8007
-15.5618
-15.8403
-15.7395
-15.9594
-15.5585
-15.2875
-15.4083
-15.7312
-16.6042
-18.5618
-21.8182
-26.0493
-30.225
-33.8502
-36.8082
-38.9598
-40.265
-40.7182
-40.3717
-39.39
-37.7583
-35.5156
-32.7122
-29.4044
-25.6562
-21.5412
-17.1412
-12.5491
-7.86726
-3.20636
1.32003
5.60173
9.54015
13.056
16.0954
18.6319
20.6639
22.2171
23.3529
24.1858
24.5948
24.7687
24.7403
24.572
24.3081
23.9857
23.6335
23.2731
22.9194
22.5816
22.264
21.9671
21.6886
21.4251
21.1737
20.933
20.7022
20.4818
20.2711
20.0704
19.8825
19.7141
19.5728
19.4638
19.3891
19.346
19.3222
19.294
19.22
19.0396
18.7223
18.3241
17.9709
17.7942
17.851
18.0737
18.3477
18.5965
18.7953
18.9479
19.0655
19.1586
19.2379
19.3143
19.3945
19.4837
19.5996
19.7695
19.9893
20.1923
20.3194
20.487
20.8015
20.8577
20.3472
19.3488
18.1093
16.8374
15.6306
14.65
13.8595
12.612
10.0667
5.79267
0.25882
-5.68949
-10.9288
-15.0034
-17.7966
-19.1272
-19.0208
-17.7527
-15.3334
-11.9556
-7.82423
-3.20425
1.62592
6.4106
10.9379
14.9968
-9.16145
-9.17177
-9.17288
-9.17205
-9.17155
-9.17123
-9.17082
-9.17026
-9.16952
-9.16856
-9.16734
-9.16582
-9.16393
-9.16161
-9.15881
-9.15539
-9.15134
-9.14553
-9.14091
-9.13693
-9.13055
-9.12228
-9.12045
-9.12841
-9.13479
-9.13311
-9.12606
-9.12055
-9.12449
-9.14572
-9.21925
-9.41244
-9.80088
-10.4362
-11.3402
-12.5072
-13.9096
-15.4966
-17.1957
-18.8917
-20.4353
-21.5974
-22.1482
-21.8624
-21.01
-20.4266
-20.1556
-19.9234
-19.7207
-19.3358
-19.2893
-20.4026
-22.7714
-23.2698
-21.4292
-18.3245
-14.3508
-12.8542
-13.7839
-14.7956
-15.5573
-15.8411
-15.7416
-15.961
-15.5614
-15.2912
-15.4105
-15.73
-16.5908
-18.5214
-21.8243
-26.0759
-30.2197
-33.8484
-36.8074
-38.9595
-40.265
-40.7185
-40.372
-39.3905
-37.7591
-35.5167
-32.7137
-29.406
-25.6581
-21.5435
-17.1439
-12.5522
-7.871
-3.21082
1.31469
5.59533
9.53239
13.0465
16.0833
18.6159
20.6424
22.1947
23.3513
24.1831
24.5883
24.7644
24.7375
24.5701
24.3068
23.9848
23.6329
23.2727
22.9192
22.5816
22.2641
21.9675
21.6891
21.4257
21.1744
20.9338
20.703
20.4826
20.2719
20.0712
19.8832
19.7147
19.5732
19.464
19.3891
19.3459
19.322
19.294
19.2204
19.0408
18.7244
18.3268
17.9728
17.7944
17.8499
18.0722
18.3464
18.5956
18.7948
18.9477
19.0656
19.1588
19.2381
19.3146
19.3946
19.4835
19.5991
19.7686
19.9883
20.1912
20.3178
20.4846
20.7987
20.8555
20.346
19.3482
18.1089
16.8372
15.6305
14.65
13.8601
12.6141
10.0763
5.82617
0.273698
-5.7168
-10.9251
-15.0018
-17.7957
-19.1269
-19.0209
-17.7534
-15.3346
-11.9573
-7.82657
-3.20753
1.62132
6.40382
10.9273
14.9793
-9.16209
-9.17152
-9.17335
-9.17281
-9.17236
-9.17206
-9.17168
-9.17112
-9.17037
-9.16942
-9.1682
-9.16669
-9.16482
-9.16252
-9.15973
-9.15634
-9.15229
-9.14698
-9.14215
-9.13749
-9.13089
-9.12289
-9.12344
-9.12996
-9.13414
-9.13033
-9.12287
-9.11982
-9.12643
-9.15281
-9.23352
-9.43228
-9.82386
-10.4599
-11.3628
-12.5272
-13.9264
-15.5101
-17.2061
-18.8994
-20.4406
-21.6012
-22.1495
-21.8605
-21.0054
-20.4271
-20.1511
-19.9257
-19.715
-19.342
-19.2548
-20.4216
-22.7627
-23.2592
-21.4806
-18.3689
-14.3589
-12.891
-13.7874
-14.7912
-15.5527
-15.8419
-15.745
-15.9639
-15.5652
-15.2958
-15.4127
-15.7234
-16.5557
-18.4975
-21.8647
-26.0753
-30.218
-33.8529
-36.8128
-38.9646
-40.2697
-40.7226
-40.3754
-39.3936
-37.7627
-35.5207
-32.7175
-29.4106
-25.6637
-21.5502
-17.1519
-12.5616
-7.88196
-3.22343
1.30034
5.57907
9.51396
13.0256
16.0595
18.5894
20.6151
22.1769
23.3537
24.1778
24.5785
24.7571
24.7322
24.5664
24.3042
23.983
23.6316
23.2718
22.9186
22.5814
22.2642
21.9678
21.6897
21.4266
21.1754
20.9349
20.7042
20.4838
20.273
20.0722
19.8841
19.7154
19.5737
19.4643
19.3892
19.3457
19.3219
19.2942
19.2214
19.0429
18.7277
18.33
17.9743
17.7936
17.848
18.0703
18.3448
18.5944
18.7941
18.9475
19.0656
19.1591
19.2384
19.3148
19.3947
19.4833
19.5985
19.7676
19.9871
20.1898
20.3157
20.4812
20.7943
20.8519
20.3438
19.3471
18.1083
16.8367
15.6303
14.6503
13.8621
12.6216
10.1018
5.86332
0.232982
-5.72217
-10.9224
-15.0021
-17.7968
-19.1285
-19.0228
-17.7558
-15.3375
-11.9617
-7.83278
-3.21607
1.60989
6.3883
10.9061
14.9516
-9.16283
-9.17254
-9.17484
-9.17439
-9.1739
-9.17358
-9.17319
-9.17263
-9.17188
-9.17092
-9.16971
-9.1682
-9.16634
-9.16407
-9.1613
-9.15794
-9.15389
-9.14892
-9.14381
-9.13849
-9.1315
-9.12452
-9.12579
-9.13001
-9.13053
-9.12505
-9.11958
-9.12045
-9.13079
-9.16207
-9.24817
-9.4528
-9.84992
-10.4901
-11.3951
-12.5598
-13.9579
-15.5386
-17.2313
-18.92
-20.4572
-21.6147
-22.1616
-21.8666
-21.0051
-20.4253
-20.1472
-19.9234
-19.7065
-19.3474
-19.2216
-20.4304
-22.7596
-23.2454
-21.549
-18.4131
-14.3913
-12.9382
-13.804
-14.7921
-15.5487
-15.8435
-15.7499
-15.9701
-15.5704
-15.3007
-15.4136
-15.7009
-16.5252
-18.5342
-21.892
-26.0784
-30.2376
-33.8794
-36.8365
-38.9839
-40.2857
-40.7361
-40.386
-39.4037
-37.7737
-35.5326
-32.7317
-29.4269
-25.6824
-21.5714
-17.1756
-12.5879
-7.91053
-3.25404
1.26801
5.54545
9.47952
12.991
16.0258
18.5582
20.5904
22.1669
23.3641
24.1668
24.564
24.7441
24.7218
24.5584
24.2981
23.9784
23.6283
23.2694
22.917
22.5803
22.2637
21.9678
21.6902
21.4275
21.1766
20.9363
20.7057
20.4853
20.2745
20.0736
19.8854
19.7164
19.5744
19.4648
19.3894
19.3458
19.322
19.2949
19.2234
19.0465
18.7319
18.3332
17.9747
17.7916
17.8452
18.0674
18.3424
18.5927
18.793
18.9469
19.0655
19.1592
19.2387
19.315
19.3947
19.483
19.5978
19.7665
19.9858
20.1882
20.3131
20.4763
20.7867
20.844
20.3383
19.3441
18.1067
16.8359
15.6301
14.6518
13.8688
12.6427
10.1429
5.85568
0.19666
-5.71983
-10.9249
-15.008
-17.8031
-19.1346
-19.0288
-17.763
-15.3472
-11.9745
-7.84926
-3.23657
1.58538
6.35958
10.8746
14.9209
-9.1645
-9.17475
-9.17769
-9.17721
-9.17657
-9.17616
-9.17574
-9.17516
-9.1744
-9.17343
-9.17222
-9.17072
-9.16887
-9.16661
-9.16385
-9.16048
-9.15641
-9.15154
-9.14614
-9.14014
-9.13273
-9.12715
-9.12699
-9.12794
-9.12494
-9.12021
-9.11895
-9.12372
-9.13789
-9.17428
-9.26587
-9.47694
-9.88008
-10.5254
-11.4345
-12.6021
-14.0019
-15.5832
-17.2755
-18.9617
-20.4976
-21.6474
-22.1995
-21.8968
-21.0243
-20.425
-20.1404
-19.9149
-19.6899
-19.3448
-19.2015
-20.4249
-22.789
-23.3216
-21.6157
-18.4923
-14.4786
-12.994
-13.8494
-14.8073
-15.5461
-15.8397
-15.7551
-15.987
-15.576
-15.3042
-15.4071
-15.6792
-16.5549
-18.5802
-21.918
-26.1485
-30.3224
-33.9582
-36.8977
-39.0297
-40.3222
-40.7675
-40.4131
-39.4317
-37.8057
-35.5693
-32.7719
-29.4707
-25.7293
-21.6208
-17.2267
-12.6395
-7.9619
-3.30425
1.2198
5.49999
9.43755
12.9533
15.9935
18.5332
20.5754
22.1665
23.3763
24.1485
24.5449
24.7238
24.7032
24.5421
24.2846
23.9674
23.6195
23.2624
22.9115
22.5763
22.2608
21.9661
21.6895
21.4277
21.1776
20.9378
20.7075
20.4873
20.2765
20.0754
19.887
19.7177
19.5755
19.4656
19.39
19.3463
19.3228
19.2967
19.2268
19.0514
18.7368
18.3355
17.9735
17.7882
17.841
18.0632
18.3386
18.5897
18.7908
18.9456
19.0649
19.1591
19.2388
19.3152
19.3947
19.4828
19.5972
19.7656
19.9846
20.1867
20.3104
20.4696
20.7738
20.8275
20.3238
19.3342
18.1008
16.8338
15.6309
14.6582
13.8881
12.6825
10.1613
5.81616
0.181626
-5.72961
-10.9409
-15.026
-17.8193
-19.1501
-19.0445
-17.7823
-15.3721
-12.0045
-7.88386
-3.27398
1.54726
6.32282
10.8432
14.8979
-9.17238
-9.17936
-9.18183
-9.18154
-9.18099
-9.18057
-9.18011
-9.17951
-9.17871
-9.17771
-9.17647
-9.17494
-9.17305
-9.17074
-9.16792
-9.16449
-9.16041
-9.15556
-9.14975
-9.14283
-9.13434
-9.12864
-9.12613
-9.12358
-9.12014
-9.1194
-9.12295
-9.13096
-9.14887
-9.19141
-9.29223
-9.51374
-9.92475
-10.575
-11.487
-12.6567
-14.0581
-15.642
-17.3364
-19.0255
-20.5626
-21.7135
-22.2765
-21.985
-21.0963
-20.4469
-20.1323
-19.9026
-19.6594
-19.3182
-19.1748
-20.4286
-22.9105
-23.5498
-21.743
-18.6639
-14.6621
-13.1006
-13.9326
-14.8516
-15.5454
-15.8379
-15.7612
-15.9438
-15.5733
-15.298
-15.3657
-15.7212
-16.6011
-18.6502
-22.1217
-26.3924
-30.5294
-34.1162
-37.0082
-39.1068
-40.381
-40.8214
-40.4755
-39.4998
-37.8823
-35.6462
-32.8486
-29.5459
-25.8024
-21.6911
-17.2936
-12.7028
-8.02092
-3.35836
1.17114
5.4572
9.40097
12.9232
15.9704
18.5178
20.57
22.1733
23.3789
24.125
24.5235
24.6989
24.6774
24.5167
24.2606
23.9455
23.6001
23.2456
22.8971
22.564
22.251
21.9585
21.6839
21.4241
21.176
20.938
20.7088
20.4893
20.2789
20.0778
19.8892
19.7196
19.5772
19.4672
19.3916
19.348
19.3249
19.2998
19.2316
19.0572
18.7412
18.3363
17.9708
17.7833
17.8352
18.0572
18.3329
18.5846
18.7866
18.9423
19.0627
19.1578
19.2382
19.3151
19.3948
19.4828
19.597
19.7652
19.9842
20.1864
20.3087
20.4619
20.7543
20.7991
20.2941
19.3094
18.0823
16.8245
15.6361
14.6756
13.924
12.7099
10.129
5.77214
0.143962
-5.77479
-10.9831
-15.0619
-17.8487
-19.1817
-19.0795
-17.8259
-15.4211
-12.0554
-7.9339
-3.32053
1.50606
6.28924
10.8203
14.8842
-9.18662
-9.18625
-9.18608
-9.18603
-9.18593
-9.18573
-9.18542
-9.18495
-9.18431
-9.18345
-9.18234
-9.1809
-9.17909
-9.17686
-9.17421
-9.17123
-9.16779
-9.16284
-9.15464
-9.14344
-9.13242
-9.12611
-9.12275
-9.12062
-9.12139
-9.12588
-9.13275
-9.14338
-9.16657
-9.22038
-9.33965
-9.58085
-10.0062
-10.6642
-11.5786
-12.7473
-14.1463
-15.7292
-17.424
-19.1192
-20.6613
-21.8301
-22.4082
-22.1753
-21.2866
-20.5386
-20.1294
-19.8941
-19.6257
-19.2628
-19.1169
-20.4871
-23.201
-23.8878
-22.0154
-18.9896
-14.9989
-13.3409
-14.0673
-14.9502
-15.5476
-15.7803
-15.757
-16.2495
-15.5958
-15.2423
-15.5189
-15.7352
-16.7441
-19.0827
-22.707
-26.8894
-30.8959
-34.3805
-37.1906
-39.2327
-40.4744
-40.8974
-40.5972
-39.6162
-37.9946
-35.7512
-32.9467
-29.6374
-25.8879
-21.7709
-17.368
-12.7718
-8.08445
-3.41612
1.11953
5.41209
9.3627
12.8921
15.9471
18.5034
20.5663
22.1766
23.3643
24.0989
24.5019
24.6738
24.6503
24.4878
24.2306
23.9152
23.5701
23.2165
22.8693
22.5379
22.2269
21.9367
21.6669
21.4101
21.1656
20.9312
20.7052
20.4885
20.2801
20.0802
19.8921
19.7226
19.5801
19.4702
19.395
19.3518
19.329
19.3043
19.237
19.0627
18.7442
18.3353
17.9665
17.7769
17.828
18.0499
18.3257
18.5774
18.7796
18.936
19.0574
19.1539
19.2357
19.314
19.395
19.4835
19.5975
19.7657
19.9857
20.1891
20.3103
20.4546
20.7296
20.7643
20.2558
19.2688
18.0431
16.7957
15.6484
14.7017
13.9445
12.6844
10.0661
5.68955
0.0225564
-5.88489
-11.0647
-15.122
-17.8947
-19.2341
-19.1469
-17.8975
-15.4901
-12.1188
-7.98989
-3.36831
1.46644
6.25842
10.8002
14.871
-9.20944
-9.20245
-9.19963
-9.19957
-9.19968
-9.19947
-9.19904
-9.19848
-9.19775
-9.19682
-9.19569
-9.19442
-9.19311
-9.19185
-9.19047
-9.18812
-9.18209
-9.16757
-9.14708
-9.13287
-9.12674
-9.12411
-9.12447
-9.12804
-9.13404
-9.14083
-9.14913
-9.16501
-9.20153
-9.27995
-9.43372
-9.71028
-10.1627
-10.836
-11.7552
-12.9212
-14.314
-15.891
-17.5832
-19.2818
-20.8325
-22.0281
-22.6407
-22.49
-21.6469
-20.8106
-20.2498
-19.8708
-19.5933
-19.187
-19.0132
-20.6806
-23.7197
-24.3639
-22.4304
-19.4878
-15.6032
-13.8062
-14.3533
-15.0872
-15.541
-15.8675
-15.7798
-15.5336
-15.5368
-15.6048
-15.3293
-16.0053
-17.4928
-20.1675
-23.7458
-27.7016
-31.5012
-34.8303
-37.5231
-39.4831
-40.6707
-41.0517
-40.7831
-39.7771
-38.1465
-35.8921
-33.0797
-29.765
-26.0117
-21.8917
-17.4856
-12.8851
-8.19209
-3.51642
1.02821
5.33115
9.29311
12.8346
15.9023
18.4717
20.5471
22.1614
23.3307
24.0671
24.4773
24.6484
24.6245
24.4604
24.2012
23.8838
23.5369
23.182
22.8338
22.5017
22.1903
21.9002
21.6292
21.3783
21.1378
20.9089
20.6883
20.4769
20.2734
20.0778
19.8932
19.7262
19.5851
19.4759
19.4012
19.3584
19.3351
19.3093
19.2411
19.0658
18.7449
18.3328
17.9611
17.7689
17.8196
18.0421
18.3183
18.5696
18.7712
18.9272
19.0488
19.1462
19.2301
19.3112
19.3951
19.4851
19.5985
19.7662
19.9893
20.1969
20.3184
20.4502
20.7021
20.731
20.2235
19.2316
17.9965
16.7499
15.646
14.6954
13.9051
12.6118
9.93607
5.451
-0.252819
-6.09561
-11.2147
-15.2333
-17.9806
-19.3084
-19.2517
-17.9954
-15.5782
-12.1965
-8.05936
-3.43008
1.41224
6.21343
10.7671
14.8456
-9.23541
-9.21727
-9.21203
-9.21243
-9.2131
-9.21323
-9.2132
-9.21322
-9.21332
-9.21344
-9.21349
-9.21334
-9.21249
-9.20851
-9.19638