/*--------------------------------*- C++ -*----------------------------------*\
| =========                 |                                                 |
| \\      /  F ield         | OpenFOAM: The Open Source CFD Toolbox           |
|  \\    /   O peration     | Version:  2112                                  |
|   \\  /    A nd           | Website:  www.openfoam.com                      |
|    \\/     M anipulation  |                                                 |
\*---------------------------------------------------------------------------*/
FoamFile
{
    version     2.0;
    format      ascii;
    arch        "LSB;label=32;scalar=64";
    class       volVectorField;
    location    "0.11";
    object      ddt0(U);
}
// * * * * * * * * * * * * * * * * * * * * * * * * * * * * * * * * * * * * * //

dimensions      [0 1 -2 0 0 0 0];

internalField   nonuniform List<vector> 
12225
(
(0.00924667 -0.00383729 0)
(0.0588741 -0.0087327 0)
(0.140616 -0.0111528 0)
(0.237769 -0.0107503 0)
(0.328947 -0.00687535 0)
(0.400847 -0.00146483 0)
(0.453809 0.00251842 0)
(0.499246 0.00226897 0)
(0.55799 -0.00479437 0)
(0.65665 -0.0200133 0)
(0.82238 -0.0443733 0)
(1.08364 -0.0803503 0)
(1.46933 -0.131597 0)
(2.00728 -0.20506 0)
(2.73966 -0.310966 0)
(3.71492 -0.449449 0)
(5.15817 -0.592368 0)
(7.12164 -0.997157 0)
(-0.00201208 -0.00683437 0)
(0.0104126 -0.0176094 0)
(0.0543022 -0.0263685 0)
(0.132426 -0.0323641 0)
(0.242742 -0.0334773 0)
(0.376353 -0.031604 0)
(0.524613 -0.0296142 0)
(0.680945 -0.0305925 0)
(0.843349 -0.0389329 0)
(1.01639 -0.0578236 0)
(1.21014 -0.0901308 0)
(1.4422 -0.140551 0)
(1.73841 -0.212743 0)
(2.12941 -0.314361 0)
(2.66872 -0.459575 0)
(3.40282 -0.673283 0)
(4.50804 -1.00222 0)
(5.73213 -1.65478 0)
(-3.72172e-05 -0.00839188 0)
(0.0236527 -0.0253211 0)
(0.0697508 -0.0421282 0)
(0.137309 -0.0562698 0)
(0.225629 -0.0652745 0)
(0.337608 -0.0716678 0)
(0.477966 -0.0780727 0)
(0.644852 -0.0870039 0)
(0.839494 -0.103593 0)
(1.06058 -0.13114 0)
(1.30907 -0.173712 0)
(1.5923 -0.238569 0)
(1.92628 -0.330128 0)
(2.33205 -0.457864 0)
(2.84232 -0.640005 0)
(3.49415 -0.930451 0)
(4.34146 -1.38692 0)
(5.38918 -2.26727 0)
(0.00117895 -0.0109934 0)
(0.0209061 -0.0349578 0)
(0.0719018 -0.0556675 0)
(0.147671 -0.0754309 0)
(0.245105 -0.0929536 0)
(0.36057 -0.108945 0)
(0.49518 -0.126145 0)
(0.651787 -0.146637 0)
(0.832527 -0.17463 0)
(1.02523 -0.215839 0)
(1.2449 -0.275925 0)
(1.49385 -0.362807 0)
(1.78089 -0.48596 0)
(2.11247 -0.658701 0)
(2.49402 -0.907386 0)
(2.92123 -1.27831 0)
(3.35991 -1.83766 0)
(3.76991 -2.7014 0)
(0.00280109 -0.0142288 0)
(0.0237906 -0.0438299 0)
(0.0684248 -0.0730993 0)
(0.134776 -0.103503 0)
(0.228515 -0.125729 0)
(0.343324 -0.147887 0)
(0.478677 -0.172712 0)
(0.634555 -0.201782 0)
(0.810757 -0.241054 0)
(1.01146 -0.292505 0)
(1.23642 -0.357463 0)
(1.45489 -0.460432 0)
(1.70019 -0.60008 0)
(1.97918 -0.789802 0)
(2.2883 -1.05184 0)
(2.61107 -1.42312 0)
(2.91807 -1.95357 0)
(3.11657 -2.68993 0)
(0.00309698 -0.0177708 0)
(0.0270121 -0.0531404 0)
(0.0727317 -0.0900822 0)
(0.133289 -0.126067 0)
(0.214965 -0.155255 0)
(0.324101 -0.186312 0)
(0.454226 -0.220135 0)
(0.603308 -0.258333 0)
(0.769675 -0.306703 0)
(0.957742 -0.368316 0)
(1.16649 -0.451981 0)
(1.40964 -0.556068 0)
(1.62827 -0.712273 0)
(1.86757 -0.923303 0)
(2.1114 -1.21022 0)
(2.37637 -1.56746 0)
(2.60374 -2.06242 0)
(2.72255 -2.71406 0)
(0.00285449 -0.0221514 0)
(0.0277081 -0.064862 0)
(0.0753246 -0.10545 0)
(0.136196 -0.145547 0)
(0.206151 -0.190842 0)
(0.30534 -0.229309 0)
(0.425292 -0.271082 0)
(0.564393 -0.318262 0)
(0.718909 -0.376688 0)
(0.891051 -0.450313 0)
(1.07749 -0.543315 0)
(1.30875 -0.66208 0)
(1.54712 -0.816124 0)
(1.76885 -1.01803 0)
(1.96115 -1.28695 0)
(2.12816 -1.65104 0)
(2.28241 -2.13167 0)
(2.35904 -2.73005 0)
(0.00264879 -0.0267717 0)
(0.0270516 -0.0773567 0)
(0.0740427 -0.125068 0)
(0.138406 -0.170584 0)
(0.20685 -0.220601 0)
(0.290871 -0.271351 0)
(0.394542 -0.326717 0)
(0.520535 -0.379233 0)
(0.660628 -0.444769 0)
(0.814304 -0.527157 0)
(0.979739 -0.634672 0)
(1.15869 -0.770697 0)
(1.37205 -0.921189 0)
(1.57622 -1.12394 0)
(1.76446 -1.38759 0)
(1.89989 -1.75449 0)
(1.98994 -2.20335 0)
(2.00251 -2.73424 0)
(0.00248737 -0.0314367 0)
(0.0258608 -0.0903269 0)
(0.0713683 -0.145464 0)
(0.135071 -0.196935 0)
(0.210393 -0.248046 0)
(0.292819 -0.308321 0)
(0.38129 -0.369302 0)
(0.482315 -0.43571 0)
(0.603301 -0.513807 0)
(0.734532 -0.60624 0)
(0.875088 -0.723117 0)
(1.01361 -0.873409 0)
(1.1706 -1.04185 0)
(1.33181 -1.24809 0)
(1.48866 -1.4997 0)
(1.61061 -1.81777 0)
(1.66929 -2.21147 0)
(1.64207 -2.67436 0)
(0.00234053 -0.0361423 0)
(0.0244108 -0.10362 0)
(0.0677518 -0.166431 0)
(0.128493 -0.225322 0)
(0.203144 -0.283605 0)
(0.287467 -0.343591 0)
(0.379334 -0.407702 0)
(0.473047 -0.486446 0)
(0.577574 -0.57253 0)
(0.689568 -0.671538 0)
(0.807869 -0.791876 0)
(0.912523 -0.936774 0)
(1.01534 -1.11472 0)
(1.12691 -1.33205 0)
(1.23697 -1.57096 0)
(1.31346 -1.86209 0)
(1.33288 -2.20984 0)
(1.27426 -2.60701 0)
(0.00218481 -0.0408487 0)
(0.0227354 -0.117035 0)
(0.0632678 -0.187687 0)
(0.119942 -0.254295 0)
(0.189797 -0.319621 0)
(0.269721 -0.386779 0)
(0.35836 -0.456766 0)
(0.45289 -0.533347 0)
(0.551417 -0.621246 0)
(0.652418 -0.723384 0)
(0.75365 -0.84328 0)
(0.849789 -0.985884 0)
(0.926955 -1.1708 0)
(0.981687 -1.37922 0)
(1.02517 -1.60788 0)
(1.0516 -1.87814 0)
(1.02795 -2.18206 0)
(0.936069 -2.51451 0)
(0.00202561 -0.0451621 0)
(0.0209739 -0.129256 0)
(0.0583829 -0.207047 0)
(0.110557 -0.280485 0)
(0.174512 -0.352027 0)
(0.247729 -0.424676 0)
(0.328562 -0.499971 0)
(0.414754 -0.582326 0)
(0.503215 -0.674799 0)
(0.591502 -0.779813 0)
(0.676751 -0.90025 0)
(0.75635 -1.03838 0)
(0.822714 -1.20109 0)
(0.859699 -1.38941 0)
(0.861946 -1.61789 0)
(0.849287 -1.86319 0)
(0.790394 -2.12462 0)
(0.671148 -2.40022 0)
(0.00186427 -0.0493151 0)
(0.0190523 -0.141091 0)
(0.0529417 -0.225815 0)
(0.1001 -0.305729 0)
(0.157494 -0.383145 0)
(0.222861 -0.460824 0)
(0.294278 -0.540825 0)
(0.369527 -0.626715 0)
(0.445593 -0.721142 0)
(0.519498 -0.826443 0)
(0.587967 -0.945094 0)
(0.647807 -1.07898 0)
(0.692778 -1.23245 0)
(0.717456 -1.40568 0)
(0.702268 -1.60787 0)
(0.656504 -1.82394 0)
(0.5755 -2.04699 0)
(0.441758 -2.27067 0)
(0.00166161 -0.0537709 0)
(0.0166225 -0.153896 0)
(0.0459846 -0.246074 0)
(0.0866989 -0.332777 0)
(0.135787 -0.416235 0)
(0.191102 -0.498948 0)
(0.250596 -0.58315 0)
(0.311959 -0.671592 0)
(0.372314 -0.766655 0)
(0.428546 -0.87038 0)
(0.47726 -0.984655 0)
(0.514886 -1.11087 0)
(0.536705 -1.25078 0)
(0.538447 -1.403 0)
(0.512582 -1.57044 0)
(0.447059 -1.75496 0)
(0.345942 -1.93807 0)
(0.207214 -2.11198 0)
(0.00138325 -0.0583313 0)
(0.0135204 -0.167029 0)
(0.0371464 -0.266765 0)
(0.0696786 -0.360135 0)
(0.108371 -0.449294 0)
(0.151187 -0.536461 0)
(0.196097 -0.623764 0)
(0.240784 -0.713381 0)
(0.282549 -0.807225 0)
(0.318427 -0.906824 0)
(0.345203 -1.01337 0)
(0.359438 -1.12754 0)
(0.357205 -1.24969 0)
(0.334498 -1.37884 0)
(0.28679 -1.51459 0)
(0.207971 -1.65414 0)
(0.0938911 -1.7913 0)
(-0.0555555 -1.91478 0)
(0.00100273 -0.0625873 0)
(0.00958679 -0.179223 0)
(0.0260789 -0.285828 0)
(0.0484509 -0.384984 0)
(0.0744139 -0.478711 0)
(0.102148 -0.568917 0)
(0.129796 -0.657447 0)
(0.155243 -0.745971 0)
(0.176118 -0.835843 0)
(0.189847 -0.928003 0)
(0.193689 -1.02296 0)
(0.184754 -1.12067 0)
(0.159976 -1.22057 0)
(0.116283 -1.32121 0)
(0.0504341 -1.4206 0)
(-0.0400186 -1.51559 0)
(-0.157424 -1.60177 0)
(-0.305023 -1.67408 0)
(0.000520333 -0.0658691 0)
(0.00475358 -0.188421 0)
(0.0125994 -0.299871 0)
(0.0227383 -0.402676 0)
(0.0336143 -0.498655 0)
(0.0438226 -0.589377 0)
(0.0518795 -0.67631 0)
(0.056121 -0.760647 0)
(0.0547334 -0.843216 0)
(0.0458054 -0.924423 0)
(0.0273692 -1.00423 0)
(-0.0025189 -1.08208 0)
(-0.0457251 -1.15688 0)
(-0.103975 -1.22689 0)
(-0.178513 -1.28978 0)
(-0.271177 -1.34242 0)
(-0.381922 -1.38169 0)
(-0.51159 -1.40388 0)
(-1.36756e-05 -0.0668641 0)
(-0.000799901 -0.191183 0)
(-0.00299249 -0.303678 0)
(-0.00696488 -0.406433 0)
(-0.0132103 -0.500969 0)
(-0.0224522 -0.588515 0)
(-0.0355637 -0.670165 0)
(-0.0535065 -0.746717 0)
(-0.0772981 -0.818605 0)
(-0.107968 -0.885891 0)
(-0.146488 -0.948255 0)
(-0.193723 -1.005 0)
(-0.250332 -1.05502 0)
(-0.316717 -1.09685 0)
(-0.39288 -1.12867 0)
(-0.478538 -1.14848 0)
(-0.572295 -1.15364 0)
(-0.67481 -1.1423 0)
(-0.000798664 -0.0638304 0)
(-0.00754643 -0.182395 0)
(-0.0208316 -0.289134 0)
(-0.0399898 -0.385655 0)
(-0.0643217 -0.473124 0)
(-0.0936711 -0.552457 0)
(-0.128098 -0.624458 0)
(-0.167676 -0.689685 0)
(-0.21248 -0.748407 0)
(-0.262567 -0.800623 0)
(-0.317919 -0.846076 0)
(-0.378388 -0.884277 0)
(-0.443647 -0.914525 0)
(-0.513166 -0.93595 0)
(-0.586135 -0.947568 0)
(-0.661595 -0.948352 0)
(-0.737884 -0.937302 0)
(-0.81541 -0.913765 0)
(-0.00134089 -0.0576061 0)
(-0.0126137 -0.164109 0)
(-0.0345579 -0.259346 0)
(-0.0655547 -0.344688 0)
(-0.103831 -0.421094 0)
(-0.148467 -0.489307 0)
(-0.198846 -0.550008 0)
(-0.254345 -0.603692 0)
(-0.314345 -0.650652 0)
(-0.378236 -0.691002 0)
(-0.445374 -0.724701 0)
(-0.515034 -0.751579 0)
(-0.586389 -0.771362 0)
(-0.658504 -0.783713 0)
(-0.730296 -0.788274 0)
(-0.800653 -0.784729 0)
(-0.867974 -0.772841 0)
(-0.932721 -0.752615 0)
(-0.00164679 -0.0504277 0)
(-0.0158288 -0.143474 0)
(-0.0435059 -0.226412 0)
(-0.0823264 -0.300342 0)
(-0.129749 -0.366015 0)
(-0.184345 -0.424053 0)
(-0.245064 -0.475058 0)
(-0.310846 -0.519512 0)
(-0.380653 -0.557764 0)
(-0.453491 -0.590048 0)
(-0.528368 -0.616498 0)
(-0.604264 -0.637164 0)
(-0.680128 -0.652031 0)
(-0.754888 -0.661061 0)
(-0.827429 -0.664228 0)
(-0.896712 -0.661567 0)
(-0.961341 -0.65321 0)
(-1.02201 -0.639479 0)
(-0.00188167 -0.0429566 0)
(-0.018207 -0.122123 0)
(-0.0500349 -0.192549 0)
(-0.0944332 -0.255046 0)
(-0.148327 -0.310191 0)
(-0.209953 -0.358513 0)
(-0.277973 -0.400556 0)
(-0.351056 -0.436805 0)
(-0.427918 -0.467676 0)
(-0.507335 -0.493521 0)
(-0.588109 -0.51462 0)
(-0.66905 -0.531182 0)
(-0.748989 -0.543361 0)
(-0.826807 -0.55128 0)
(-0.901422 -0.555079 0)
(-0.971904 -0.55495 0)
(-1.03705 -0.551166 0)
(-1.09776 -0.54414 0)
(-0.00205226 -0.0356532 0)
(-0.0199451 -0.101325 0)
(-0.0547354 -0.159712 0)
(-0.103018 -0.211323 0)
(-0.161371 -0.25659 0)
(-0.227826 -0.295938 0)
(-0.300885 -0.329822 0)
(-0.379092 -0.358728 0)
(-0.46105 -0.383152 0)
(-0.54542 -0.403559 0)
(-0.630881 -0.420353 0)
(-0.716126 -0.433871 0)
(-0.799896 -0.444355 0)
(-0.881046 -0.451994 0)
(-0.958532 -0.456991 0)
(-1.03152 -0.459576 0)
(-1.09893 -0.460048 0)
(-1.16184 -0.458814 0)
(-0.00218708 -0.0287641 0)
(-0.0212471 -0.0818684 0)
(-0.0580843 -0.129149 0)
(-0.108922 -0.170743 0)
(-0.170142 -0.20701 0)
(-0.239667 -0.238273 0)
(-0.315989 -0.264806 0)
(-0.397693 -0.287051 0)
(-0.483384 -0.305589 0)
(-0.571661 -0.321026 0)
(-0.661111 -0.33391 0)
(-0.750308 -0.34472 0)
(-0.837892 -0.353739 0)
(-0.922688 -0.36116 0)
(-1.00368 -0.367211 0)
(-1.08011 -0.3721 0)
(-1.15101 -0.376071 0)
(-1.21757 -0.3795 0)
(-0.00231803 -0.0223585 0)
(-0.0222098 -0.0640865 0)
(-0.060197 -0.101353 0)
(-0.112338 -0.13381 0)
(-0.174948 -0.161595 0)
(-0.246005 -0.185156 0)
(-0.324141 -0.204717 0)
(-0.408117 -0.22073 0)
(-0.496595 -0.233878 0)
(-0.588129 -0.244909 0)
(-0.681236 -0.254505 0)
(-0.774348 -0.263301 0)
(-0.866026 -0.27151 0)
(-0.955103 -0.279131 0)
(-1.04058 -0.28635 0)
(-1.12171 -0.293309 0)
(-1.19758 -0.300187 0)
(-1.26947 -0.307403 0)
(-0.0024483 -0.0163677 0)
(-0.0225312 -0.0478288 0)
(-0.0603955 -0.0762881 0)
(-0.112194 -0.101158 0)
(-0.174039 -0.123059 0)
(-0.245274 -0.140842 0)
(-0.324529 -0.154718 0)
(-0.410476 -0.165344 0)
(-0.50175 -0.173517 0)
(-0.596915 -0.18009 0)
(-0.694551 -0.185855 0)
(-0.792967 -0.19152 0)
(-0.890986 -0.197473 0)
(-0.986902 -0.203997 0)
(-1.07974 -0.211058 0)
(-1.16879 -0.218548 0)
(-1.25306 -0.226453 0)
(-1.33418 -0.235272 0)
(-0.00219777 -0.011548 0)
(-0.0209955 -0.0348872 0)
(-0.057531 -0.0564899 0)
(-0.107734 -0.0750006 0)
(-0.167247 -0.0900684 0)
(-0.238124 -0.101993 0)
(-0.318619 -0.110057 0)
(-0.40725 -0.115116 0)
(-0.502791 -0.118229 0)
(-0.604091 -0.120432 0)
(-0.709874 -0.122568 0)
(-0.81852 -0.125929 0)
(-0.929589 -0.130134 0)
(-1.03963 -0.135149 0)
(-1.14731 -0.141732 0)
(-1.25178 -0.149511 0)
(-1.35192 -0.158138 0)
(-1.44916 -0.167708 0)
(-0.000509589 -0.0083053 0)
(-0.0162084 -0.0247212 0)
(-0.0496032 -0.0398394 0)
(-0.0965186 -0.0531212 0)
(-0.159135 -0.061969 0)
(-0.232071 -0.0665101 0)
(-0.316748 -0.0673223 0)
(-0.41423 -0.0650194 0)
(-0.52423 -0.0605734 0)
(-0.645011 -0.0552908 0)
(-0.773276 -0.0505825 0)
(-0.90559 -0.0475274 0)
(-1.03541 -0.0473428 0)
(-1.16173 -0.0499577 0)
(-1.28174 -0.0551252 0)
(-1.39382 -0.0622626 0)
(-1.49629 -0.0708571 0)
(-1.59136 -0.0803321 0)
(0.00115515 -0.00618868 0)
(-0.00692564 -0.0166291 0)
(-0.0345729 -0.0247144 0)
(-0.0845299 -0.0295709 0)
(-0.154009 -0.0309258 0)
(-0.24125 -0.0285215 0)
(-0.341197 -0.0224289 0)
(-0.446874 -0.0135064 0)
(-0.551066 -0.0032942 0)
(-0.647713 0.00635732 0)
(-0.732541 0.0137174 0)
(-0.803457 0.0171718 0)
(-0.860351 0.0161769 0)
(-0.90423 0.0110535 0)
(-0.936689 0.00220103 0)
(-0.96047 -0.00966435 0)
(-0.977102 -0.0236199 0)
(-0.992925 -0.0387474 0)
(-0.00638483 -0.00373885 0)
(-0.0419355 -0.0086909 0)
(-0.100942 -0.0112721 0)
(-0.17077 -0.0111231 0)
(-0.236606 -0.00779396 0)
(-0.287251 -0.00164554 0)
(-0.315494 0.00652967 0)
(-0.318143 0.0151447 0)
(-0.296612 0.0222888 0)
(-0.256756 0.0262657 0)
(-0.207535 0.0259448 0)
(-0.159486 0.0208802 0)
(-0.122773 0.0114954 0)
(-0.105277 -0.00119884 0)
(-0.111947 -0.0161833 0)
(-0.145731 -0.0323555 0)
(-0.205374 -0.0485885 0)
(-0.293189 -0.0641728 0)
(-1.34338 2.09707 6.73997e-19)
(-3.14568 2.91601 -6.46487e-19)
(-6.34588 3.54904 0)
(-10.0044 4.27226 0)
(-13.8104 5.57683 0)
(-18.1977 6.3462 6.20024e-19)
(-23.1127 6.26941 0)
(-27.7133 5.87989 0)
(-31.986 5.25373 0)
(-35.7701 4.45866 0)
(-38.9424 3.55547 -6.13278e-19)
(-41.4382 2.58633 0)
(-43.2141 1.58566 0)
(-44.2406 0.588084 0)
(-44.5116 -0.371868 0)
(-44.0466 -1.31191 -6.03204e-19)
(-42.7653 -2.31142 0)
(-40.5321 -3.37596 0)
(-37.3063 -4.47102 0)
(-33.1082 -5.59979 0)
(-27.9389 -6.80714 0)
(-21.7707 -8.16719 0)
(-14.5221 -9.82077 0)
(-5.75259 -12.0178 -5.57526e-19)
(3.48596 -15.2967 5.45916e-19)
(17.1064 -18.3573 -5.30202e-19)
(31.4102 -19.8595 -5.31964e-19)
(46.467 -19.8723 0)
(62.1608 -19.0066 0)
(78.0513 -17.3434 5.21456e-19)
(93.6676 -14.962 5.1745e-19)
(108.707 -12.1143 0)
(122.422 -7.17843 0)
(132.169 2.44891 5.13422e-19)
(137.647 10.5311 0)
(139.496 12.5974 0)
(138.311 13.1258 -5.23514e-19)
(134.815 13.1056 0)
(129.257 12.6909 -5.37983e-19)
(122.16 11.4745 -1.09489e-18)
(114.399 8.56979 0)
(107.247 3.26857 0)
(101.866 -3.89147 0)
(99.4716 -10.5017 0)
(99.4732 -14.3474 0)
(100.886 -13.8566 -1.26282e-18)
(102.49 -10.4781 -1.29848e-18)
(103.795 -6.31 -1.33465e-18)
(105.104 -3.65588 0)
(107.522 -3.25015 1.4135e-18)
(112.278 -4.56148 0)
(120.091 -6.62585 -1.50089e-18)
(130.925 -8.58904 -1.54622e-18)
(143.358 -9.95305 0)
(157.996 -9.13374 0)
(169.473 -6.14539 0)
(177.884 -3.04125 -1.65003e-18)
(183.4 -1.31418 0)
(186.481 -0.979964 0)
(187.513 -0.999652 0)
(186.807 -0.0446978 0)
(185.669 1.89702 0)
(181.856 4.02293 0)
(183.449 0.633783 0)
(191.597 -5.85717 0)
(197.524 -4.89788 1.59408e-18)
(201.458 -2.90583 0)
(203.346 -1.42185 0)
(202.378 0.471075 -1.38885e-18)
(196.764 2.56794 -1.30735e-18)
(184.943 5.31804 0)
(166.301 13.2188 1.12888e-18)
(138.687 20.987 -1.02084e-18)
(99.7706 23.4629 0)
(51.7909 22.4931 7.81889e-19)
(-2.56358 20.0016 0)
(-60.5512 22.191 0)
(-122.422 31.1066 -3.57848e-19)
(-188.972 40.82 0)
(-258.639 46.354 3.01767e-20)
(-328.442 48.2334 0)
(-395.837 48.3449 3.00233e-19)
(-458.716 47.2157 4.53513e-19)
(-514.751 44.6871 5.90613e-19)
(-561.426 40.9762 1.41091e-18)
(-596.675 36.7348 -1.58178e-18)
(-619.649 32.628 0)
(-630.492 28.1645 0)
(-629.525 21.2371 0)
(-616.315 9.89053 -1.48524e-18)
(-589.311 -5.0012 -1.25526e-18)
(-548.375 -19.4879 9.56367e-19)
(-495.926 -30.2142 0)
(-435.591 -36.9552 -1.86204e-19)
(-370.582 -41.0928 2.6612e-19)
(-303.639 -43.309 7.39014e-19)
(-236.599 -44.3762 0)
(-169.737 -45.4058 0)
(-107.309 -41.5528 0)
(-47.3394 -43.0834 2.32303e-18)
(10.0542 -44.4597 0)
(72.2689 -35.8234 0)
(129.51 -27.0595 -3.11949e-18)
(169.565 -20.8878 0)
(201.359 -16.9402 0)
(227.966 -13.8881 -3.58227e-18)
(249.329 -11.076 0)
(265.876 -8.42616 0)
(277.88 -5.85285 3.7084e-18)
(285.46 -3.32882 3.6787e-18)
(288.751 -0.867199 0)
(287.876 1.52315 -3.5201e-18)
(282.96 3.83288 0)
(274.114 6.04467 3.24351e-18)
(261.391 8.14936 0)
(244.819 10.2082 2.86682e-18)
(224.432 12.2455 2.64659e-18)
(200.237 14.277 0)
(172.238 16.3077 0)
(140.435 18.3559 0)
(104.859 20.4313 0)
(65.6958 22.501 0)
(23.2516 24.5245 0)
(-21.9159 26.2705 0)
(-69.2945 27.6061 5.28253e-19)
(-118.033 28.2258 -2.92961e-19)
(-166.239 27.3948 0)
(-211.904 24.4175 0)
(-253.552 18.4439 0)
(-280.729 7.92537 0)
(-305.403 2.44655 4.87717e-19)
(-338.54 10.0354 0)
(-355.719 15.9019 1.71237e-19)
(-374.365 13.1786 -4.1192e-19)
(-392.831 1.94584 0)
(-394.094 -7.5708 0)
(-385.125 -13.0016 0)
(-369.568 -16.9286 1.34483e-18)
(-350.803 -18.2138 1.55059e-18)
(-330.225 -18.2088 0)
(-308.298 -18.4939 1.81821e-18)
(-285.135 -18.8841 1.86767e-18)
(-259.366 -18.9762 -1.85756e-18)
(-229.608 -19.3455 0)
(-195.069 -19.726 0)
(-155.402 -18.5265 -1.4383e-18)
(-110.717 -14.3701 0)
(-52.7905 -14.0455 0)
(12.5002 -24.4502 0)
(67.4109 -17.5077 0)
(115.711 -11.655 9.0358e-19)
(156.075 -8.5594 1.02383e-18)
(188.257 -5.9632 0)
(211.754 -3.08243 1.12749e-18)
(226.479 -0.0997735 0)
(233.196 2.63606 0)
(233.104 5.01861 1.26795e-18)
(227.381 7.16557 0)
(217.058 9.13491 1.31748e-18)
(203.129 10.8597 0)
(186.496 12.2366 0)
(168.211 12.9435 1.23843e-18)
(149.456 12.1065 0)
(131.081 10.1356 1.13573e-18)
(112.819 8.36975 0)
(92.7714 7.77674 0)
(68.0389 8.62031 0)
(37.2169 9.65433 -1.03112e-18)
(3.75426 8.38168 0)
(-22.429 3.55236 1.04802e-18)
(-27.4778 -3.49595 0)
(-1.17989 -13.1212 0)
(55.4194 -23.8749 0)
(133.471 -31.1945 0)
(221.248 -35.333 0)
(308.659 -36.1378 0)
(383.228 -29.1167 0)
(429.545 -11.1579 -5.73196e-18)
(472.224 5.61834 0)
(465.197 8.16213 0)
(-2.07961 7.07519 -1.99788e-18)
(-4.40917 9.18854 1.91268e-18)
(-8.49822 10.6109 0)
(-12.7626 11.6871 -1.24632e-18)
(-17.0287 12.5099 0)
(-21.1917 13.243 -6.0638e-19)
(-25.2037 13.3431 1.20668e-18)
(-28.9956 12.6977 1.19686e-18)
(-32.4747 11.3524 0)
(-35.5442 9.69619 1.18208e-18)
(-38.1381 7.87182 5.85426e-19)
(-40.2028 5.92828 0)
(-41.6786 3.91186 0)
(-42.5031 1.8795 0)
(-42.6455 -0.0946902 0)
(-42.0167 -2.11349 5.75472e-19)
(-40.5693 -4.60445 0)
(-38.3282 -7.18535 -1.1445e-18)
(-35.3545 -9.65929 0)
(-31.7446 -11.9853 0)
(-27.5918 -14.2085 1.12628e-18)
(-22.9601 -16.4248 0)
(-17.9169 -18.7672 -1.11425e-18)
(-12.7664 -21.3819 5.43027e-19)
(-6.73014 -24.671 -5.33412e-19)
(-2.91454 -28.3046 5.18917e-19)
(2.53868 -31.5423 5.20206e-19)
(9.687 -34.2406 0)
(18.862 -36.5269 0)
(30.4491 -38.218 -5.07681e-19)
(44.5229 -38.8815 5.07723e-19)
(60.7912 -37.949 0)
(78.7781 -34.6164 0)
(98.4043 -28.6444 -4.97598e-19)
(118.844 -21.2708 0)
(138.379 -13.1487 0)
(154.647 -4.95886 5.08246e-19)
(166.673 2.47338 0)
(174.186 8.54841 -5.16409e-19)
(177.309 12.844 1.07057e-18)
(176.58 15.109 0)
(172.701 15.4404 0)
(166.419 14.412 2.28438e-18)
(158.22 12.6124 2.34598e-18)
(149.676 10.0294 2.41068e-18)
(141.029 6.75797 -1.23243e-18)
(134.035 3.91878 1.28274e-18)
(129.987 0.919203 3.93821e-18)
(128.132 -2.79364 -2.69554e-18)
(129.149 -7.76926 -1.39464e-18)
(134.076 -13.9011 0)
(143.276 -20.1146 1.47961e-18)
(155.895 -24.8923 -1.53752e-18)
(170.851 -27.1796 0)
(185.076 -26.5764 0)
(201.124 -22.8698 0)
(216.601 -17.5174 1.61882e-18)
(229.317 -11.5691 0)
(237.839 -5.58937 -3.32187e-18)
(241.59 -0.0556826 0)
(241.087 3.61953 -3.39471e-18)
(238.203 4.32468 0)
(234.624 -0.0288843 3.42153e-18)
(230.066 -8.50918 0)
(224.865 -9.82897 -3.3653e-18)
(218.782 -6.10724 1.65001e-18)
(211.688 -2.4028 0)
(202.586 2.31806 2.95385e-18)
(189.356 9.84565 1.38138e-18)
(169.687 20.341 1.30035e-18)
(142.203 32.2416 0)
(106.714 45.3375 1.13759e-18)
(61.6642 62.5362 1.00711e-18)
(7.58609 81.4931 0)
(-54.3897 97.5569 -7.76079e-19)
(-121.954 107.101 1.25352e-18)
(-192.737 110.952 0)
(-264.679 112.637 3.55003e-19)
(-336.682 113.52 0)
(-408.043 112.544 -6.73136e-21)
(-477.15 108.599 0)
(-541.017 101.087 -9.72664e-19)
(-595.982 89.524 -4.32863e-19)
(-638.559 73.733 7.01244e-19)
(-666.14 54.333 1.63315e-18)
(-677.21 32.7757 -1.80133e-18)
(-671.036 10.8362 0)
(-647.456 -10.4234 0)
(-606.853 -30.7695 0)
(-550.78 -49.6356 4.67915e-18)
(-483.387 -66.1156 1.26873e-18)
(-409.798 -79.3215 -9.80348e-19)
(-333.926 -88.3776 0)
(-258.416 -93.1662 -3.31928e-19)
(-185.131 -94.175 -2.21525e-19)
(-116.408 -91.6662 -6.92317e-19)
(-53.3207 -87.6577 0)
(10.0693 -88.3645 0)
(60.6388 -91.4159 0)
(98.4096 -82.0496 -2.28839e-18)
(138.928 -73.313 0)
(164.95 -61.5594 5.98777e-18)
(185.322 -51.1105 9.04616e-18)
(213.113 -41.8429 -6.39733e-18)
(238.968 -34.403 0)
(260.507 -28.0793 -3.59008e-18)
(278.044 -22.1199 0)
(291.276 -16.4579 -7.38441e-18)
(300.236 -11.0446 3.73079e-18)
(305.067 -5.83993 3.6994e-18)
(305.888 -0.836331 0)
(302.833 3.97392 1.04765e-17)
(296.025 8.59893 -6.75576e-18)
(285.576 13.0438 -3.19185e-18)
(271.601 17.3191 0)
(254.171 21.4817 -2.81595e-18)
(233.315 25.5627 -7.86072e-18)
(209.065 29.5625 0)
(181.448 33.474 -4.29196e-18)
(150.459 37.2544 -3.76781e-18)
(116.067 40.7286 -3.22655e-18)
(78.289 43.6486 0)
(37.4195 45.9454 0)
(-5.50923 47.3112 0)
(-50.8579 48.4819 5.61262e-19)
(-97.0768 48.1706 2.81269e-19)
(-143.269 45.9237 0)
(-188.247 41.4045 -1.7205e-19)
(-231.607 34.7086 -3.90946e-19)
(-272.479 29.9972 0)
(-313.542 34.3971 -4.56254e-19)
(-344.949 25.1196 -3.89184e-19)
(-367.915 15.1146 -8.64795e-20)
(-383.944 15.43 -3.30669e-19)
(-389.164 9.46539 0)
(-387.504 0.0105043 0)
(-380.628 -6.7603 0)
(-371.029 -10.6123 -1.221e-18)
(-360.157 -13.1692 1.38042e-18)
(-346.1 -15.0233 3.13605e-18)
(-328.581 -16.6532 -1.70755e-18)
(-308.277 -18.6635 1.75318e-18)
(-283.987 -22.2077 1.78256e-18)
(-257.472 -25.7965 0)
(-228.334 -29.2952 0)
(-194.357 -34.4565 -1.46599e-18)
(-151.516 -42.1472 0)
(-112.27 -52.0255 0)
(-62.1775 -55.0369 3.04903e-19)
(10.1523 -48.1631 0)
(82.7497 -42.5202 1.13053e-18)
(153.717 -35.2707 -1.08098e-18)
(216.089 -27.2701 0)
(263.962 -19.3887 1.17671e-18)
(294.729 -12.0953 0)
(308.786 -5.66411 0)
(308.45 -0.230818 -1.28202e-18)
(296.89 4.17984 2.67122e-18)
(277.404 7.58515 -1.29763e-18)
(252.98 10.0488 0)
(225.94 11.7611 0)
(197.894 12.7751 1.23022e-18)
(170.374 12.8531 0)
(144.703 12.6964 1.0664e-18)
(121.038 13.5455 0)
(97.9551 16.0929 0)
(72.7872 19.8758 0)
(42.925 22.661 9.25171e-19)
(9.1114 20.9346 0)
(-20.5956 11.6699 -1.00571e-18)
(-32.3734 -5.40153 0)
(-12.2699 -26.6081 0)
(47.0264 -45.8874 2.6303e-18)
(138.807 -56.9202 -2.99959e-18)
(244.376 -58.0011 0)
(345.463 -50.2086 0)
(432.043 -38.0476 0)
(498.641 -27.8583 1.667e-17)
(537.145 -19.6712 0)
(522.96 10.4152 -1.41884e-17)
(-2.19961 14.1555 -3.93194e-21)
(-4.52331 17.6701 -2.53015e-18)
(-8.64525 19.8345 0)
(-12.6762 21.3161 2.47068e-18)
(-16.5982 22.0676 0)
(-20.3418 22.0794 0)
(-23.8536 21.3527 4.45478e-21)
(-26.9668 19.8874 -1.18537e-18)
(-29.9251 17.7499 -1.18542e-18)
(-32.7385 15.249 -1.17713e-18)
(-35.1008 12.4163 0)
(-36.9906 9.32653 0)
(-38.326 6.02123 1.17199e-18)
(-38.9891 2.54014 2.33435e-18)
(-38.9875 -1.07132 -2.32157e-18)
(-37.8367 -4.86651 0)
(-36.076 -8.72236 -2.30019e-18)
(-34.0553 -12.374 1.14176e-18)
(-31.4447 -15.7903 0)
(-28.4093 -18.9735 -2.27336e-18)
(-24.9853 -21.9709 -1.12472e-18)
(-21.1649 -24.858 2.25462e-18)
(-16.9688 -27.6905 1.11122e-18)
(-12.461 -30.4855 0)
(-7.59533 -33.1035 -2.25314e-18)
(-2.69084 -36.1202 -2.27573e-18)
(1.99228 -40.2122 0)
(6.74424 -44.9904 -2.16493e-18)
(11.7458 -50.1995 0)
(17.3892 -55.4127 -2.07952e-18)
(24.2121 -60.0437 -1.00594e-18)
(32.8443 -63.2761 0)
(43.9879 -64.0537 0)
(58.4234 -61.4428 0)
(76.3532 -55.3519 0)
(96.9347 -46.1871 0)
(118.64 -34.4354 0)
(139.743 -21.0384 -1.98388e-18)
(158.436 -7.41113 3.04061e-18)
(173.117 4.8199 0)
(182.746 14.1485 0)
(186.984 19.5625 0)
(186.295 20.8754 -2.1791e-20)
(181.755 18.8315 -2.31953e-18)
(174.563 15.0906 -4.76233e-18)
(166.676 11.2937 4.91224e-18)
(158.157 8.827 2.51396e-18)
(149.08 5.84599 -2.60578e-18)
(142.613 -0.00441462 1.50443e-20)
(141.653 -10.0898 -2.74707e-18)
(147.831 -23.2513 0)
(160.698 -36.2396 -2.89567e-18)
(178.039 -45.9329 1.30821e-19)
(196.252 -50.842 0)
(213.965 -50.6825 0)
(229.77 -46.151 3.14182e-18)
(242.229 -37.7602 0)
(251.631 -26.9622 0)
(257.897 -15.4158 -3.35106e-18)
(261.548 -4.50936 -6.75317e-18)
(262.338 4.28497 3.37787e-18)
(259.69 8.95836 0)
(254.091 9.45878 -3.41882e-18)
(244.467 7.11642 0)
(232.845 5.75749 -3.51583e-18)
(221.665 8.10496 -3.24781e-18)
(209.892 13.3026 6.29869e-18)
(195.023 22.502 3.07954e-18)
(175.135 36.7114 0)
(149.249 55.475 -5.35307e-18)
(116.342 77.5654 0)
(73.9889 102.657 -6.73853e-18)
(22.601 129.301 -4.02917e-18)
(-34.5855 152.81 -3.51278e-18)
(-95.6083 170.048 2.9477e-18)
(-160.123 181.281 -3.56804e-18)
(-228.314 189.065 0)
(-298.505 194.775 0)
(-367.734 197.08 2.3038e-19)
(-433.007 193.65 -5.52737e-19)
(-491.325 182.969 0)
(-539.396 164.461 7.04361e-19)
(-574.059 138.272 0)
(-592.961 105.387 -4.44761e-18)
(-594.961 67.6914 5.93537e-19)
(-580.092 27.6487 -5.80195e-19)
(-549.307 -12.4993 4.13627e-18)
(-504.544 -51.2449 0)
(-448.963 -87.321 -3.94207e-18)
(-387.069 -118.683 3.55147e-19)
(-323.881 -142.84 0)
(-262.794 -158.552 0)
(-205.079 -166.307 0)
(-150.521 -167.686 5.34417e-19)
(-98.1013 -164.644 0)
(-49.0162 -159.018 0)
(-8.57172 -151.627 0)
(27.3017 -139.191 0)
(71.068 -134.455 0)
(113.738 -117.46 -4.35003e-18)
(147.541 -101.037 0)
(178.814 -90.0952 -5.90855e-18)
(207.519 -79.8775 -5.87641e-18)
(234.64 -69.7465 6.30946e-18)
(258.24 -58.8938 0)
(278.053 -47.8327 7.03725e-18)
(294.126 -37.187 0)
(306.27 -27.0337 7.28752e-18)
(314.486 -17.3714 -7.29774e-18)
(318.821 -8.19669 -2.19324e-17)
(319.337 0.508624 0)
(316.118 8.76493 -2.09679e-17)
(309.247 16.6053 -6.86814e-18)
(298.803 24.0816 0)
(284.861 31.2637 -1.22379e-17)
(267.471 38.2046 -1.14504e-17)
(246.655 44.9492 1.57947e-17)
(222.447 51.5114 0)
(194.908 57.9157 4.25112e-18)
(164.117 64.2049 3.73284e-18)
(130.199 70.3535 9.7351e-18)
(93.2439 76.1218 0)
(53.6301 81.3241 0)
(10.8644 84.9215 0)
(-34.6313 86.8198 1.1071e-18)
(-80.904 87.2619 0)
(-127.903 85.067 0)
(-174.68 79.9092 2.49066e-19)
(-220.575 72.2707 4.79749e-19)
(-266.114 64.083 0)
(-303.442 56.4315 0)
(-330.048 46.6936 2.98156e-19)
(-350.104 34.3787 0)
(-360.259 21.4342 4.5059e-19)
(-360.963 6.29449 8.95e-19)
(-357.495 -7.52001 0)
(-350.572 -16.932 0)
(-340.204 -21.5744 -2.43613e-18)
(-325.089 -25.0196 3.22623e-20)
(-306.585 -28.729 3.73621e-20)
(-286.577 -32.6511 0)
(-265.115 -36.2543 -7.11506e-18)
(-244.288 -39.9986 0)
(-226.153 -45.2051 0)
(-207.391 -52.8328 0)
(-187.151 -62.0973 2.71859e-18)
(-164.469 -71.1567 0)
(-133.691 -79.0746 -8.12659e-18)
(-90.1526 -77.0999 -1.11691e-19)
(-35.6452 -89.9169 0)
(34.7132 -92.4181 -2.05614e-18)
(120.79 -84.3338 0)
(209.978 -68.0481 0)
(289.668 -47.051 -6.88303e-18)
(348.819 -25.2782 4.73472e-18)
(381.351 -5.94632 0)
(387.536 9.23825 5.09845e-18)
(372.256 20.1221 -2.58992e-18)
(342.342 27.2339 0)
(304.513 31.2536 0)
(263.879 33.0706 0)
(223.562 33.1234 -7.24384e-18)
(185.635 31.6389 0)
(151.482 29.6174 -2.15873e-18)
(121.339 28.6432 0)
(94.2859 30.2978 0)
(68.4726 34.8999 0)
(41.9939 39.7853 0)
(15.206 38.5006 0)
(-6.46411 23.1851 0)
(-11.4269 -9.26585 -4.29852e-18)
(13.5078 -50.6446 0)
(74.9119 -87.282 -2.75744e-18)
(165.864 -109.087 9.38851e-18)
(268.099 -112.759 0)
(364.314 -101.169 0)
(448.007 -80.8875 -9.53362e-18)
(513.813 -56.6274 -1.06461e-17)
(548.435 -19.3939 1.26488e-17)
(531.65 27.5186 1.36428e-17)
(-2.09028 20.5705 3.96e-18)
(-4.11485 25.0744 3.77877e-18)
(-7.59922 27.4241 2.49491e-18)
(-10.7604 28.7 1.23836e-18)
(-13.7054 29.0058 0)
(-16.5001 28.487 -2.41454e-18)
(-19.1748 27.236 1.20346e-18)
(-21.5606 25.3062 0)
(-23.9062 22.9878 1.18083e-18)
(-26.2085 20.0656 0)
(-28.137 16.3662 -2.36553e-18)
(-29.6858 12.2401 0)
(-30.761 7.7246 -1.17209e-18)
(-31.2764 2.85053 -2.33698e-18)
(-31.2165 -2.28388 2.32715e-18)
(-30.4714 -7.52843 0)
(-29.2494 -12.1753 2.31205e-18)
(-27.7681 -16.3903 0)
(-25.8928 -20.3515 0)
(-23.73 -24.1063 2.2904e-18)
(-21.3222 -27.6759 0)
(-18.6816 -31.0987 6.55844e-21)
(-15.8292 -34.4314 0)
(-12.7857 -37.7422 0)
(-9.52333 -41.0812 -3.32348e-21)
(-5.99926 -44.5733 2.29631e-18)
(-1.87212 -48.1783 2.29571e-18)
(2.44416 -52.3849 2.17804e-18)
(6.47165 -57.082 0)
(10.5788 -62.2607 4.18651e-18)
(14.9249 -67.8281 0)
(19.8214 -73.4211 2.02975e-18)
(25.8626 -78.3182 0)
(33.9168 -81.492 0)
(44.8807 -81.8429 -1.95798e-18)
(59.2927 -78.3224 0)
(77.0888 -70.1728 1.94101e-18)
(97.4701 -57.4006 2.00372e-20)
(118.913 -41.0069 -3.96618e-18)
(139.431 -22.874 4.00672e-18)
(157.021 -5.35719 0)
(170.126 9.34519 0)
(177.925 19.8636 2.13026e-18)
(180.365 26.0444 0)
(177.977 28.8585 2.35553e-18)
(171.914 29.5906 -2.4348e-18)
(163.876 27.5022 -2.4978e-18)
(157.108 20.7969 0)
(156.426 6.39635 2.6492e-18)
(165.006 -15.9065 2.7292e-18)
(182.176 -41.2382 -5.6074e-18)
(204.179 -62.868 2.87874e-18)
(226.811 -76.1809 2.90603e-18)
(247.845 -79.2871 0)
(264.472 -73.1464 0)
(276.24 -61.9677 -3.10617e-18)
(284.839 -48.3258 0)
(290.899 -33.8546 0)
(294.951 -19.6607 6.59326e-18)
(297.146 -6.45634 6.70666e-18)
(298 5.80531 0)
(295.683 15.7497 0)
(288.697 20.7089 0)
(279.274 21.1776 0)
(268.156 21.1431 6.68292e-18)
(255.624 24.1606 -6.64677e-18)
(240.57 32.141 -6.24636e-18)
(221.394 46.1688 -1.21413e-17)
(197.305 66.4635 0)
(167.283 92.9023 -1.25935e-19)
(129.595 124.826 0)
(82.7005 159.964 4.43785e-18)
(29.6396 193.354 2.8027e-20)
(-26.6996 221.178 3.45833e-18)
(-85.9757 241.713 -2.89622e-18)
(-148.238 255.904 2.54581e-19)
(-212.768 265.037 0)
(-277.026 268.897 -5.1055e-19)
(-337.441 265.72 -2.02942e-19)
(-390.395 253.356 1.62371e-18)
(-432.568 230.342 0)
(-461.203 196.361 -2.64364e-18)
(-474.608 152.442 0)
(-472.568 100.989 7.10591e-18)
(-456.419 45.5113 -3.65247e-18)
(-428.747 -10.0301 3.98149e-18)