/*--------------------------------*- C++ -*----------------------------------*\
| =========                 |                                                 |
| \\      /  F ield         | OpenFOAM: The Open Source CFD Toolbox           |
|  \\    /   O peration     | Version:  2112                                  |
|   \\  /    A nd           | Website:  www.openfoam.com                      |
|    \\/     M anipulation  |                                                 |
\*---------------------------------------------------------------------------*/
FoamFile
{
    version     2.0;
    format      ascii;
    arch        "LSB;label=32;scalar=64";
    class       volSymmTensorField;
    location    "0.095";
    object      UPrime2Mean;
}
// * * * * * * * * * * * * * * * * * * * * * * * * * * * * * * * * * * * * * //

dimensions      [0 2 -2 0 0 0 0];

internalField   nonuniform List<symmTensor> 
12225
(
(0.0330447 0.000842021 0 0.00229095 0 0)
(0.0174228 9.50213e-05 0 0.00108944 0 0)
(0.0182061 -0.000206775 0 0.00078495 0 0)
(0.0186971 -0.000300257 0 0.000641148 0 0)
(0.0220326 -0.000433675 0 0.000554216 0 0)
(0.0297191 -0.000705708 0 0.000499643 0 0)
(0.0429561 -0.00122082 0 0.000478395 0 0)
(0.0622338 -0.00178248 0 0.000445794 0 0)
(0.0907274 -0.00299714 0 0.000481675 0 0)
(0.128348 -0.00350318 0 0.000439602 0 0)
(0.186364 -0.00696325 0 0.000607308 0 0)
(0.259149 -0.00632799 0 0.000513853 0 0)
(0.383269 -0.0179546 0 0.00120387 0 0)
(0.531873 -0.0107115 0 0.000943778 0 0)
(0.818469 -0.0540091 0 0.00447658 0 0)
(1.17892 -0.0157477 0 0.00390039 0 0)
(1.93331 -0.21118 0 0.0323354 0 0)
(3.18714 -0.0670544 0 0.0161644 0 0)
(0.0321198 0.000584137 0 0.00279821 0 0)
(0.0166903 0.000675271 0 0.00154414 0 0)
(0.0159098 0.000533297 0 0.00109046 0 0)
(0.0148764 0.000514783 0 0.000918738 0 0)
(0.0146401 0.000429247 0 0.000837498 0 0)
(0.0153432 9.6814e-05 0 0.00081319 0 0)
(0.0175001 -0.000437948 0 0.000811506 0 0)
(0.0217618 -0.00135284 0 0.000897533 0 0)
(0.0288678 -0.00237973 0 0.000946299 0 0)
(0.0406838 -0.00448438 0 0.00127599 0 0)
(0.0580736 -0.00656171 0 0.00142698 0 0)
(0.0873517 -0.0120797 0 0.00243964 0 0)
(0.127357 -0.0166408 0 0.0028786 0 0)
(0.20057 -0.0323571 0 0.00605338 0 0)
(0.293961 -0.0440307 0 0.00778237 0 0)
(0.492081 -0.0953205 0 0.0200217 0 0)
(0.72684 -0.147636 0 0.0317868 0 0)
(1.28512 -0.369489 0 0.120285 0 0)
(0.0300988 -1.73455e-05 0 0.00348246 0 0)
(0.0152074 -5.31697e-06 0 0.00163664 0 0)
(0.0147167 -0.000158001 0 0.00111433 0 0)
(0.0136661 -0.000267538 0 0.0009589 0 0)
(0.0135485 -0.00041954 0 0.000904338 0 0)
(0.0142835 -0.000730861 0 0.000910138 0 0)
(0.0159522 -0.00133584 0 0.00100385 0 0)
(0.018807 -0.00221696 0 0.00113525 0 0)
(0.0235408 -0.00366866 0 0.00148953 0 0)
(0.0308734 -0.00548446 0 0.00185267 0 0)
(0.0422249 -0.00888411 0 0.00285251 0 0)
(0.0589408 -0.0128442 0 0.00375737 0 0)
(0.0839334 -0.0215259 0 0.00665896 0 0)
(0.120613 -0.0310102 0 0.00928075 0 0)
(0.175694 -0.0552441 0 0.0192007 0 0)
(0.257646 -0.084518 0 0.0303726 0 0)
(0.374399 -0.160598 0 0.0747102 0 0)
(0.52918 -0.286702 0 0.168391 0 0)
(0.0315595 2.71799e-05 0 0.00374372 0 0)
(0.0160299 -9.90505e-05 0 0.00204393 0 0)
(0.0151226 -0.000300139 0 0.00136251 0 0)
(0.0137063 -0.000370272 0 0.00117566 0 0)
(0.0131402 -0.000541371 0 0.00116091 0 0)
(0.0135943 -0.000958269 0 0.00125887 0 0)
(0.0151686 -0.00166519 0 0.00144002 0 0)
(0.0180009 -0.00277825 0 0.00177023 0 0)
(0.0224136 -0.00434564 0 0.00222885 0 0)
(0.0292709 -0.00682869 0 0.00306485 0 0)
(0.0394854 -0.0103605 0 0.00423741 0 0)
(0.0548639 -0.0161723 0 0.00638824 0 0)
(0.0768023 -0.0245936 0 0.00962218 0 0)
(0.108827 -0.038717 0 0.0157683 0 0)
(0.153568 -0.0606603 0 0.0265146 0 0)
(0.215136 -0.0979309 0 0.0483652 0 0)
(0.294232 -0.161374 0 0.0954341 0 0)
(0.377036 -0.254681 0 0.187124 0 0)
(0.0280017 0.000668745 0 0.00395958 0 0)
(0.0138153 0.000577072 0 0.00237889 0 0)
(0.0132225 0.000267308 0 0.00168608 0 0)
(0.0114803 4.33916e-05 0 0.00149998 0 0)
(0.0106004 -0.000258189 0 0.00152149 0 0)
(0.0108143 -0.000775258 0 0.00168815 0 0)
(0.0121559 -0.00162316 0 0.0020187 0 0)
(0.0147014 -0.00290073 0 0.00252404 0 0)
(0.0187855 -0.00484381 0 0.00334393 0 0)
(0.0250599 -0.00767658 0 0.00453662 0 0)
(0.0344834 -0.0120417 0 0.00648874 0 0)
(0.0482278 -0.0184675 0 0.00944374 0 0)
(0.0679651 -0.0284925 0 0.0144653 0 0)
(0.0954623 -0.0436418 0 0.022748 0 0)
(0.133251 -0.0674628 0 0.0375693 0 0)
(0.181486 -0.104805 0 0.0653018 0 0)
(0.239517 -0.160344 0 0.11534 0 0)
(0.293278 -0.238791 0 0.214204 0 0)
(0.0312579 0.000211667 0 0.00453016 0 0)
(0.0152395 2.00786e-05 0 0.00277557 0 0)
(0.0145425 -0.000258615 0 0.00203776 0 0)
(0.0134118 -0.000428702 0 0.00183006 0 0)
(0.0130931 -0.000773336 0 0.00189358 0 0)
(0.0136305 -0.00143884 0 0.00217107 0 0)
(0.0150817 -0.00249862 0 0.00265894 0 0)
(0.0175971 -0.00405715 0 0.00341381 0 0)
(0.0215319 -0.00631458 0 0.00454722 0 0)
(0.0274604 -0.00960668 0 0.00626354 0 0)
(0.0362107 -0.0144757 0 0.00889792 0 0)
(0.0486703 -0.0216792 0 0.0130045 0 0)
(0.0661098 -0.0324599 0 0.0196063 0 0)
(0.0894788 -0.0484615 0 0.0304448 0 0)
(0.120095 -0.0724214 0 0.0488259 0 0)
(0.1568 -0.107243 0 0.0805086 0 0)
(0.197602 -0.155867 0 0.1348 0 0)
(0.233038 -0.217011 0 0.226574 0 0)
(0.0319957 0.000767995 0 0.00502856 0 0)
(0.0155269 0.000328003 0 0.00359884 0 0)
(0.0143735 0.000106248 0 0.00273372 0 0)
(0.0126997 -2.25768e-05 0 0.00252155 0 0)
(0.0119412 -0.000350307 0 0.00265454 0 0)
(0.0120686 -0.000977369 0 0.00304015 0 0)
(0.013013 -0.0020165 0 0.00370282 0 0)
(0.0149347 -0.00363836 0 0.00472795 0 0)
(0.0182237 -0.00608482 0 0.00627327 0 0)
(0.0234049 -0.00970833 0 0.00860405 0 0)
(0.0311306 -0.0150455 0 0.0121306 0 0)
(0.0419776 -0.0228424 0 0.0175721 0 0)
(0.0567469 -0.0341398 0 0.0260163 0 0)
(0.0758044 -0.0504099 0 0.0395585 0 0)
(0.0995818 -0.073388 0 0.0611362 0 0)
(0.126462 -0.104942 0 0.0964494 0 0)
(0.154342 -0.145539 0 0.151742 0 0)
(0.176817 -0.192314 0 0.237184 0 0)
(0.0331808 0.000938606 0 0.00500697 0 0)
(0.0164318 0.000199881 0 0.00334794 0 0)
(0.0153363 -4.4775e-05 0 0.00251309 0 0)
(0.0136446 -0.000100617 0 0.0023922 0 0)
(0.0126991 -0.000427912 0 0.0026529 0 0)
(0.0127945 -0.00119616 0 0.00322399 0 0)
(0.0139506 -0.00246731 0 0.00414681 0 0)
(0.0160562 -0.0043415 0 0.00553524 0 0)
(0.0191612 -0.00702753 0 0.00757886 0 0)
(0.0235895 -0.010867 0 0.0105908 0 0)
(0.0299274 -0.0163726 0 0.0150509 0 0)
(0.0386955 -0.0242365 0 0.0217712 0 0)
(0.0504719 -0.035385 0 0.0319393 0 0)
(0.065261 -0.0509272 0 0.04764 0 0)
(0.0830113 -0.072022 0 0.0716313 0 0)
(0.101956 -0.0993819 0 0.108631 0 0)
(0.120501 -0.132443 0 0.163106 0 0)
(0.134188 -0.167905 0 0.241913 0 0)
(0.0317404 0.00100391 0 0.0057704 0 0)
(0.0156192 0.000133335 0 0.00445833 0 0)
(0.0150712 -0.000245732 0 0.00338969 0 0)
(0.0140701 -0.000504562 0 0.00319901 0 0)
(0.013753 -0.0010798 0 0.00349552 0 0)
(0.0141985 -0.00205053 0 0.00419735 0 0)
(0.0154212 -0.00343482 0 0.00534705 0 0)
(0.0174321 -0.00537527 0 0.00708385 0 0)
(0.0203554 -0.0081618 0 0.00963753 0 0)
(0.0244811 -0.0121822 0 0.0133914 0 0)
(0.0302144 -0.01791 0 0.0188886 0 0)
(0.0378468 -0.0259002 0 0.0270236 0 0)
(0.0476412 -0.0368223 0 0.0390067 0 0)
(0.0593507 -0.0513828 0 0.0568366 0 0)
(0.0726539 -0.0701763 0 0.0828908 0 0)
(0.0859722 -0.0931928 0 0.120951 0 0)
(0.0982289 -0.119415 0 0.173985 0 0)
(0.106617 -0.145795 0 0.24637 0 0)
(0.0319135 0.000383309 0 0.00580693 0 0)
(0.0145196 -0.00018389 0 0.00437298 0 0)
(0.0135991 -0.000457587 0 0.00351497 0 0)
(0.0125541 -0.000605642 0 0.00345255 0 0)
(0.0120665 -0.00104087 0 0.00388946 0 0)
(0.0119889 -0.00195706 0 0.0047984 0 0)
(0.0125037 -0.00341616 0 0.00626073 0 0)
(0.0139012 -0.00550289 0 0.00843089 0 0)
(0.0163837 -0.00841422 0 0.0115526 0 0)
(0.0200361 -0.0124509 0 0.0160345 0 0)
(0.0249264 -0.0179986 0 0.0224527 0 0)
(0.0310576 -0.0254978 0 0.0317245 0 0)
(0.0384164 -0.0354091 0 0.0450294 0 0)
(0.0467137 -0.0481167 0 0.0641815 0 0)
(0.0555339 -0.0637638 0 0.0911335 0 0)
(0.063853 -0.0819137 0 0.128814 0 0)
(0.0709327 -0.101302 0 0.179039 0 0)
(0.0754868 -0.119443 0 0.24472 0 0)
(0.0316701 0.000859901 0 0.0067507 0 0)
(0.0146308 -0.00016503 0 0.00480131 0 0)
(0.0136722 -0.000557806 0 0.00371397 0 0)
(0.0124479 -0.000742785 0 0.00372472 0 0)
(0.0120873 -0.00117587 0 0.00428949 0 0)
(0.0123966 -0.00205984 0 0.00538371 0 0)
(0.0132581 -0.00349793 0 0.0071203 0 0)
(0.0146705 -0.0055778 0 0.00968664 0 0)
(0.0166565 -0.00844676 0 0.0133625 0 0)
(0.0192682 -0.0123257 0 0.0185865 0 0)
(0.0226129 -0.0175109 0 0.0259549 0 0)
(0.0267224 -0.0242976 0 0.0363586 0 0)
(0.0315967 -0.0329615 0 0.050868 0 0)
(0.0369637 -0.0435749 0 0.0710537 0 0)
(0.0425258 -0.0559966 0 0.0984228 0 0)
(0.0475199 -0.0694666 0 0.135197 0 0)
(0.0516884 -0.0828485 0 0.182316 0 0)
(0.054218 -0.09391 0 0.241852 0 0)
(0.0346101 0.000670764 0 0.00701532 0 0)
(0.017011 -4.63186e-05 0 0.00574593 0 0)
(0.0160375 -0.000483584 0 0.00468884 0 0)
(0.0147086 -0.000716018 0 0.00471844 0 0)
(0.0139541 -0.00121695 0 0.00542166 0 0)
(0.0137751 -0.00217757 0 0.00675724 0 0)
(0.0142279 -0.00364513 0 0.00881873 0 0)
(0.0153436 -0.00566128 0 0.0117889 0 0)
(0.0170803 -0.00835189 0 0.0159522 0 0)
(0.0193687 -0.0119143 0 0.0217621 0 0)
(0.0221577 -0.0165894 0 0.0298094 0 0)
(0.025321 -0.0225804 0 0.0409402 0 0)
(0.0287376 -0.0300195 0 0.0560916 0 0)
(0.0321562 -0.0388072 0 0.0765935 0 0)
(0.0353194 -0.0486431 0 0.103546 0 0)
(0.0378698 -0.0587276 0 0.138635 0 0)
(0.0396874 -0.0680214 0 0.182211 0 0)
(0.0406889 -0.0748187 0 0.235822 0 0)
(0.0329105 0.000292577 0 0.00744973 0 0)
(0.0166229 -0.000532857 0 0.00590702 0 0)
(0.015803 -0.000935448 0 0.00482577 0 0)
(0.0143391 -0.000948859 0 0.00490876 0 0)
(0.0135313 -0.00112257 0 0.00575223 0 0)
(0.0132472 -0.00178702 0 0.00724414 0 0)
(0.013339 -0.00303979 0 0.00949211 0 0)
(0.0137516 -0.00484671 0 0.0127447 0 0)
(0.0144751 -0.00721777 0 0.0173246 0 0)
(0.0155403 -0.0102463 0 0.0236747 0 0)
(0.016977 -0.0140742 0 0.0323244 0 0)
(0.0187276 -0.0187977 0 0.0440166 0 0)
(0.0206819 -0.0244377 0 0.0595412 0 0)
(0.0226049 -0.0307818 0 0.0800034 0 0)
(0.0243075 -0.0374869 0 0.106194 0 0)
(0.0255183 -0.0437679 0 0.139415 0 0)
(0.0263627 -0.0488131 0 0.17964 0 0)
(0.0268154 -0.0511947 0 0.228102 0 0)
(0.0345956 0.000459077 0 0.0085201 0 0)
(0.0177003 -0.000529183 0 0.00706873 0 0)
(0.0167539 -0.00108439 0 0.00593836 0 0)
(0.0154726 -0.00126883 0 0.00602662 0 0)
(0.0148716 -0.00167402 0 0.0069438 0 0)
(0.0147213 -0.00252508 0 0.00862273 0 0)
(0.0149012 -0.0038241 0 0.0111771 0 0)
(0.0153209 -0.00551848 0 0.0148252 0 0)
(0.0159012 -0.00762632 0 0.0198504 0 0)
(0.0166176 -0.010217 0 0.0266623 0 0)
(0.0174829 -0.0133748 0 0.0357453 0 0)
(0.018438 -0.0170985 0 0.0477581 0 0)
(0.0194617 -0.0213174 0 0.0633244 0 0)
(0.0204079 -0.0257175 0 0.0833143 0 0)
(0.021262 -0.0299317 0 0.108186 0 0)
(0.0219285 -0.0332052 0 0.138903 0 0)
(0.0225872 -0.0349674 0 0.175115 0 0)
(0.0234204 -0.0339881 0 0.217835 0 0)
(0.0325371 0.00144493 0 0.010067 0 0)
(0.0155162 -0.000435035 0 0.00869412 0 0)
(0.0144797 -0.000887356 0 0.007192 0 0)
(0.0134311 -0.000851704 0 0.00720377 0 0)
(0.0128762 -0.000955464 0 0.00821369 0 0)
(0.0124321 -0.00147724 0 0.010048 0 0)
(0.0121432 -0.00245016 0 0.0127782 0 0)
(0.0121073 -0.00378379 0 0.0166226 0 0)
(0.0123006 -0.00540887 0 0.0218807 0 0)
(0.0126404 -0.00729425 0 0.0289395 0 0)
(0.0130526 -0.00943186 0 0.0382005 0 0)
(0.0134388 -0.0117452 0 0.0501877 0 0)
(0.0137541 -0.0141029 0 0.0653238 0 0)
(0.01397 -0.0161808 0 0.0842354 0 0)
(0.0141197 -0.0176452 0 0.107094 0 0)
(0.0143524 -0.0178762 0 0.13461 0 0)
(0.0148779 -0.0164777 0 0.166197 0 0)
(0.0160481 -0.0125385 0 0.202769 0 0)
(0.0284636 -0.000227137 0 0.0106677 0 0)
(0.0147658 -0.00179527 0 0.00977877 0 0)
(0.0143196 -0.00270734 0 0.00812469 0 0)
(0.0126511 -0.00293935 0 0.00817755 0 0)
(0.011604 -0.00307637 0 0.00933272 0 0)
(0.0110012 -0.0035213 0 0.0113929 0 0)
(0.0108197 -0.00436543 0 0.0143923 0 0)
(0.0109641 -0.00547536 0 0.0185062 0 0)
(0.0111953 -0.00668008 0 0.0239702 0 0)
(0.0113366 -0.00785581 0 0.0310847 0 0)
(0.0113675 -0.00893158 0 0.0401445 0 0)
(0.0113298 -0.00980302 0 0.0515445 0 0)
(0.0112834 -0.0103236 0 0.0655537 0 0)
(0.0112999 -0.010211 0 0.0826263 0 0)
(0.0114444 -0.00917676 0 0.102744 0 0)
(0.011919 -0.00676877 0 0.126424 0 0)
(0.0128951 -0.00270223 0 0.152971 0 0)
(0.0147886 0.0036209 0 0.183167 0 0)
(0.0332883 0.000296809 0 0.0119267 0 0)
(0.016465 -0.00150956 0 0.0113161 0 0)
(0.0146213 -0.00204714 0 0.00946382 0 0)
(0.0126394 -0.00190811 0 0.00918395 0 0)
(0.0117156 -0.00164031 0 0.0101531 0 0)
(0.0111835 -0.00159584 0 0.0121516 0 0)
(0.0107996 -0.00175878 0 0.0150897 0 0)
(0.0105136 -0.00191918 0 0.0190624 0 0)
(0.0102554 -0.00189046 0 0.0242613 0 0)
(0.0100113 -0.00157726 0 0.0309297 0 0)
(0.00985438 -0.000942168 0 0.0392738 0 0)
(0.00988267 0.000107472 0 0.0495403 0 0)
(0.0101686 0.00171869 0 0.0618322 0 0)
(0.0108185 0.00415379 0 0.0764063 0 0)
(0.0118901 0.00765797 0 0.0931006 0 0)
(0.0136095 0.0125452 0 0.112296 0 0)
(0.0160932 0.0189867 0 0.133305 0 0)
(0.019693 0.0272953 0 0.156835 0 0)
(0.0327916 0.00117449 0 0.0127288 0 0)
(0.0170922 0.000260228 0 0.0129451 0 0)
(0.0147959 -0.00013276 0 0.0104866 0 0)
(0.0126528 9.90432e-05 0 0.00973066 0 0)
(0.011747 0.000652305 0 0.0105326 0 0)
(0.0112884 0.00124128 0 0.0124632 0 0)
(0.0109407 0.00187204 0 0.0152897 0 0)
(0.0107183 0.00267431 0 0.0189974 0 0)
(0.0106726 0.00375322 0 0.0237015 0 0)
(0.0108362 0.00519931 0 0.0295842 0 0)
(0.0112351 0.00708948 0 0.0367801 0 0)
(0.0119356 0.00956571 0 0.0454264 0 0)
(0.012993 0.0127543 0 0.0555232 0 0)
(0.0145511 0.01687 0 0.0671789 0 0)
(0.0166756 0.0219944 0 0.0801908 0 0)
(0.0196375 0.0283676 0 0.094819 0 0)
(0.0234751 0.0359082 0 0.110507 0 0)
(0.028602 0.0449637 0 0.12777 0 0)
(0.031399 0.000606463 0 0.0110192 0 0)
(0.0157674 -0.000617447 0 0.0104493 0 0)
(0.013636 -0.000694702 0 0.00880001 0 0)
(0.0113625 -4.21812e-05 0 0.00840841 0 0)
(0.010203 0.000680979 0 0.00906072 0 0)
(0.00941091 0.00127659 0 0.010588 0 0)
(0.00893532 0.0019147 0 0.0128676 0 0)
(0.00886672 0.00282207 0 0.015861 0 0)
(0.00921228 0.00413295 0 0.019599 0 0)
(0.00992734 0.00592202 0 0.0241633 0 0)
(0.0109494 0.00823711 0 0.0296094 0 0)
(0.0122817 0.0111663 0 0.0360077 0 0)
(0.0139958 0.0147829 0 0.0433272 0 0)
(0.0162626 0.019222 0 0.0516266 0 0)
(0.0191884 0.0245114 0 0.0607285 0 0)
(0.0230066 0.030794 0 0.0707867 0 0)
(0.0277542 0.0379585 0 0.0813999 0 0)
(0.0337193 0.046241 0 0.0929217 0 0)
(0.0296601 0.000819308 0 0.0120802 0 0)
(0.0141385 0.000472678 0 0.0108532 0 0)
(0.0131933 0.000104051 0 0.00822013 0 0)
(0.0121312 0.000535799 0 0.00759231 0 0)
(0.0115481 0.0014578 0 0.00817504 0 0)
(0.0111567 0.00246024 0 0.00949569 0 0)
(0.0111224 0.00349058 0 0.0113236 0 0)
(0.0115751 0.00472708 0 0.0135949 0 0)
(0.0125345 0.00635915 0 0.016344 0 0)
(0.0139639 0.00850951 0 0.0196386 0 0)
(0.0158308 0.0112352 0 0.0235107 0 0)
(0.0181749 0.0145845 0 0.0279877 0 0)
(0.0210947 0.0185715 0 0.0330303 0 0)
(0.0247458 0.0232502 0 0.0386598 0 0)
(0.0292283 0.0285982 0 0.0447455 0 0)
(0.0347041 0.0346844 0 0.0513952 0 0)
(0.0412051 0.041408 0 0.0583433 0 0)
(0.0488864 0.0489063 0 0.0658063 0 0)
(0.0324028 0.00121928 0 0.0116404 0 0)
(0.0163499 0.000929527 0 0.011002 0 0)
(0.0142929 0.000607287 0 0.0084505 0 0)
(0.0127865 0.000864911 0 0.00741238 0 0)
(0.0120271 0.00144067 0 0.0074589 0 0)
(0.0116773 0.00212681 0 0.00819563 0 0)
(0.0117442 0.0029155 0 0.0094014 0 0)
(0.0121873 0.00393444 0 0.0109833 0 0)
(0.0129689 0.00531898 0 0.0129224 0 0)
(0.0141211 0.00716185 0 0.015236 0 0)
(0.0157373 0.0095009 0 0.0179268 0 0)
(0.0179627 0.0123598 0 0.021 0 0)
(0.0209345 0.0157352 0 0.0244253 0 0)
(0.024801 0.0196642 0 0.0282208 0 0)
(0.0295854 0.0241105 0 0.0322936 0 0)
(0.0354257 0.0291443 0 0.0367439 0 0)
(0.0422531 0.034674 0 0.0413864 0 0)
(0.0502138 0.0408092 0 0.0463344 0 0)
(0.0378369 0.000508827 0 0.0103697 0 0)
(0.0184678 0.000712192 0 0.00923108 0 0)
(0.0154929 0.000855125 0 0.00720481 0 0)
(0.0138503 0.00120609 0 0.00659221 0 0)
(0.0131183 0.00168649 0 0.00662159 0 0)
(0.0128644 0.00222951 0 0.00703741 0 0)
(0.0130424 0.00292862 0 0.00778023 0 0)
(0.013616 0.00392129 0 0.00882448 0 0)
(0.0145825 0.00527482 0 0.0101553 0 0)
(0.0160197 0.00699819 0 0.0117681 0 0)
(0.0180503 0.00908364 0 0.0136467 0 0)
(0.0207925 0.0115477 0 0.0157811 0 0)
(0.0243294 0.0144129 0 0.0181467 0 0)
(0.0287252 0.0177268 0 0.02075 0 0)
(0.0339803 0.0214834 0 0.0235193 0 0)
(0.0401627 0.0257229 0 0.0265348 0 0)
(0.0472666 0.030394 0 0.0296692 0 0)
(0.0553267 0.035517 0 0.0329693 0 0)
(0.0309112 0.00180014 0 0.00952986 0 0)
(0.014311 0.000677909 0 0.00842294 0 0)
(0.0129744 0.000524837 0 0.0063141 0 0)
(0.0122206 0.000923945 0 0.00542971 0 0)
(0.0119475 0.00140437 0 0.00526394 0 0)
(0.0117611 0.0018602 0 0.00550072 0 0)
(0.0117758 0.00242055 0 0.00600481 0 0)
(0.0121928 0.00325861 0 0.00671664 0 0)
(0.0131797 0.00443101 0 0.00759985 0 0)
(0.0148335 0.00591695 0 0.0086474 0 0)
(0.0171978 0.00770266 0 0.0098644 0 0)
(0.0203018 0.00981329 0 0.0112575 0 0)
(0.0241794 0.0122796 0 0.0128086 0 0)
(0.0289007 0.0151424 0 0.0145141 0 0)
(0.0345083 0.0183906 0 0.0163222 0 0)
(0.0410979 0.0220259 0 0.0182827 0 0)
(0.0487056 0.0259938 0 0.0203147 0 0)
(0.0573378 0.030289 0 0.0224537 0 0)
(0.0322468 0.000618114 0 0.00860022 0 0)
(0.0159279 0.000172045 0 0.00629621 0 0)
(0.0144128 0.000223694 0 0.00449636 0 0)
(0.013476 0.000631635 0 0.0038762 0 0)
(0.0133518 0.0011388 0 0.00376206 0 0)
(0.0135163 0.00167977 0 0.0039163 0 0)
(0.0139451 0.00229102 0 0.00423029 0 0)
(0.0147565 0.00305119 0 0.00466913 0 0)
(0.0160798 0.00402016 0 0.00522601 0 0)
(0.0180284 0.00523208 0 0.00590023 0 0)
(0.0206827 0.0067111 0 0.00668634 0 0)
(0.0241058 0.00848287 0 0.00758194 0 0)
(0.0283535 0.0105589 0 0.00857841 0 0)
(0.0335003 0.0129514 0 0.00967841 0 0)
(0.0395759 0.0156332 0 0.0108493 0 0)
(0.0466601 0.0186018 0 0.012125 0 0)
(0.0547586 0.0218142 0 0.0134554 0 0)
(0.0638405 0.0252791 0 0.0148506 0 0)
(0.0305936 0.000494398 0 0.00780524 0 0)
(0.0144088 0.000125571 0 0.00600375 0 0)
(0.0128741 -1.96239e-05 0 0.00422148 0 0)
(0.0120774 0.000154498 0 0.00352195 0 0)
(0.0120709 0.000454879 0 0.00335106 0 0)
(0.0123632 0.000851039 0 0.00341015 0 0)
(0.0130475 0.0013668 0 0.00356044 0 0)
(0.0142178 0.00202601 0 0.00377263 0 0)
(0.0158839 0.00283758 0 0.00405371 0 0)
(0.0180684 0.00381438 0 0.00441507 0 0)
(0.0208374 0.00497905 0 0.00485774 0 0)
(0.0242947 0.0063642 0 0.00537792 0 0)
(0.028552 0.00799197 0 0.00596988 0 0)
(0.0337284 0.00987799 0 0.0066324 0 0)
(0.0398684 0.0120038 0 0.00733971 0 0)
(0.0470371 0.0143666 0 0.0081219 0 0)
(0.0552069 0.0169228 0 0.00893971 0 0)
(0.0643645 0.0196809 0 0.00978664 0 0)
(0.0324049 -0.000396693 0 0.00684494 0 0)
(0.0169675 -0.000106626 0 0.00467388 0 0)
(0.0160387 -0.000142608 0 0.00323772 0 0)
(0.0152515 -7.8895e-05 0 0.00272059 0 0)
(0.014672 0.000132732 0 0.00253269 0 0)
(0.0142542 0.000475553 0 0.00249194 0 0)
(0.0144194 0.000920761 0 0.00252221 0 0)
(0.0153719 0.00145763 0 0.00261038 0 0)
(0.0170775 0.00209631 0 0.00276145 0 0)
(0.0194252 0.00286241 0 0.00296885 0 0)
(0.0223541 0.0037766 0 0.00322032 0 0)
(0.0259033 0.0048513 0 0.00351243 0 0)
(0.0301781 0.00609176 0 0.00384835 0 0)
(0.0353076 0.00751252 0 0.00423457 0 0)
(0.0413455 0.00911042 0 0.00465497 0 0)
(0.0483765 0.010895 0 0.00512437 0 0)
(0.0563816 0.0128436 0 0.00562154 0 0)
(0.0653426 0.0149592 0 0.00613618 0 0)
(0.0353195 0.000249843 0 0.00565401 0 0)
(0.0177575 -0.000110474 0 0.00363315 0 0)
(0.0156972 -0.000163042 0 0.00264159 0 0)
(0.0146402 4.9689e-05 0 0.00227464 0 0)
(0.0142313 0.000298514 0 0.00214304 0 0)
(0.0139917 0.000484196 0 0.00210099 0 0)
(0.0141443 0.000655111 0 0.00209422 0 0)
(0.0148682 0.000903646 0 0.002112 0 0)
(0.0162182 0.00128418 0 0.00215813 0 0)
(0.0182354 0.00180942 0 0.00223484 0 0)
(0.0209747 0.00246871 0 0.00234004 0 0)
(0.024498 0.00324985 0 0.00247138 0 0)
(0.0288623 0.0041478 0 0.0026289 0 0)
(0.0341398 0.00517507 0 0.00281554 0 0)
(0.0403302 0.00633223 0 0.0030218 0 0)
(0.0474826 0.00762281 0 0.00326284 0 0)
(0.0555784 0.00903161 0 0.00352332 0 0)
(0.0645561 0.0105577 0 0.00379102 0 0)
(0.0327109 -0.000246218 0 0.00475678 0 0)
(0.0182992 -0.000383902 0 0.00290522 0 0)
(0.0172681 -0.000427264 0 0.00200315 0 0)
(0.0162478 -0.000295068 0 0.0017158 0 0)
(0.0158106 -0.000122133 0 0.00158493 0 0)
(0.0156907 1.33862e-06 0 0.00149121 0 0)
(0.0160834 0.000121958 0 0.00141576 0 0)
(0.0171054 0.000310203 0 0.0013629 0 0)
(0.0187841 0.000592323 0 0.00133424 0 0)
(0.0211429 0.000961028 0 0.00132632 0 0)
(0.0242092 0.00140111 0 0.00133646 0 0)
(0.0280068 0.00191052 0 0.00136571 0 0)
(0.0325724 0.00250134 0 0.0014177 0 0)
(0.03798 0.00319692 0 0.00149504 0 0)
(0.0442687 0.00401156 0 0.00159221 0 0)
(0.0515355 0.00494609 0 0.00171628 0 0)
(0.0598246 0.0059888 0 0.00185807 0 0)
(0.06906 0.00712727 0 0.00200676 0 0)
(0.0328642 -0.00104586 0 0.00344897 0 0)
(0.0169275 -0.000858731 0 0.00179807 0 0)
(0.0158381 -0.00053017 0 0.00120278 0 0)
(0.015493 -0.00038183 0 0.00100687 0 0)
(0.0157959 -0.000349055 0 0.000917746 0 0)
(0.016244 -0.000324115 0 0.000858943 0 0)
(0.0170372 -0.00026627 0 0.000815769 0 0)
(0.0183773 -0.000162545 0 0.000791173 0 0)
(0.0204222 -2.95851e-06 0 0.000781674 0 0)
(0.0232663 0.000223227 0 0.00078202 0 0)
(0.0269204 0.000525086 0 0.000789516 0 0)
(0.0313775 0.000906552 0 0.000803815 0 0)
(0.0366617 0.00136597 0 0.000826226 0 0)
(0.0428673 0.001896 0 0.000857123 0 0)
(0.05007 0.00248955 0 0.000894068 0 0)
(0.0584535 0.00314171 0 0.000943373 0 0)
(0.0680687 0.0038523 0 0.000999403 0 0)
(0.0789607 0.00462477 0 0.00105293 0 0)
(0.0326756 -0.00107081 0 0.00251928 0 0)
(0.0174301 -0.000413413 0 0.00131445 0 0)
(0.0162375 -0.000309663 0 0.00101721 0 0)
(0.0145551 -0.000224245 0 0.00087485 0 0)
(0.0137791 -0.000130582 0 0.000781508 0 0)
(0.0139059 -2.61854e-05 0 0.000714326 0 0)
(0.0148432 7.91442e-05 0 0.000658524 0 0)
(0.0164036 0.000164887 0 0.00061173 0 0)
(0.0185641 0.000227197 0 0.00057103 0 0)
(0.0214871 0.00028781 0 0.000536436 0 0)
(0.0253938 0.000378351 0 0.000509104 0 0)
(0.030509 0.000516556 0 0.000487586 0 0)
(0.0370188 0.000700109 0 0.000470367 0 0)
(0.0450727 0.000918377 0 0.000456144 0 0)
(0.0547654 0.00116407 0 0.000444885 0 0)
(0.0662285 0.00143378 0 0.000441389 0 0)
(0.0794988 0.00172566 0 0.000439198 0 0)
(0.0946065 0.00205399 0 0.000431312 0 0)
(0.0192827 -0.0416209 4.3353e-22 0.0996158 -8.88629e-22 1.19938e-37)
(0.145178 -0.0897674 -1.02769e-21 0.0613447 4.04788e-22 1.18256e-37)
(0.359743 -0.110164 0 0.0465026 0 0)
(0.605232 -0.0971023 0 0.0456692 0 0)
(0.803863 -0.0654215 0 0.0533412 0 0)
(0.96918 -0.0447857 5.0458e-22 0.0689185 5.39749e-22 1.11383e-37)
(1.11166 -0.0464148 0 0.0881611 0 0)
(1.2813 -0.0767661 0 0.103664 0 0)
(1.52265 -0.127142 0 0.115072 0 0)
(1.86551 -0.187518 0 0.121916 0 0)
(2.32547 -0.247779 1.56873e-21 0.124103 -1.79971e-22 1.03155e-37)
(2.90042 -0.29165 0 0.115009 0 0)
(3.5502 -0.283004 0 0.0921313 0 0)
(4.19864 -0.260162 0 0.084466 0 0)
(4.84864 -0.230875 0 0.0794355 0 0)
(5.44661 -0.174274 1.62794e-21 0.0682589 2.96788e-22 9.53422e-38)
(5.96799 -0.136368 0 0.0734934 0 0)
(6.46705 -0.11636 0 0.0852375 0 0)
(6.9451 -0.0955181 0 0.0989411 0 0)
(7.41545 -0.0747501 0 0.113377 0 0)
(7.84492 -0.0401993 0 0.105434 0 0)
(8.22841 -0.0322262 0 0.136716 0 0)
(8.61961 -0.0477406 0 0.170071 0 0)
(8.98984 -0.0844598 -3.18042e-21 0.201167 5.8271e-22 8.36862e-38)
(9.42485 -0.149265 4.118e-21 0.219549 -6.29084e-22 8.23001e-38)
(9.89338 -0.209556 -5.09836e-21 0.23784 5.7832e-22 8.09295e-38)
(10.4629 -0.289532 -6.07771e-21 0.276845 5.04785e-22 7.95743e-38)
(11.1337 -0.399106 0 0.299531 0 0)
(11.9132 -0.51062 0 0.309487 0 0)
(12.7538 -0.544164 9.15155e-21 0.279294 -4.45894e-22 7.55988e-38)
(13.6229 -0.513543 1.01927e-20 0.250781 -6.40673e-22 7.43036e-38)
(14.5196 -0.534958 0 0.253518 0 0)
(15.507 -0.583087 0 0.255705 0 0)
(16.592 -0.634439 1.34188e-20 0.26352 -6.11703e-22 7.05136e-38)
(17.741 -0.657949 0 0.26721 0 0)
(18.9079 -0.682949 0 0.27925 0 0)
(20.074 -0.728058 -1.63033e-20 0.307233 4.71402e-22 6.68668e-38)
(21.2431 -0.772504 0 0.353177 0 0)
(22.452 -0.754659 -1.80469e-20 0.368492 4.27082e-22 6.45141e-38)
(23.6354 -0.67757 -3.77888e-20 0.338078 1.04853e-21 2.53443e-37)
(24.6952 -0.578209 0 0.283729 0 0)
(25.4957 -0.44721 0 0.251267 0 0)
(25.9599 -0.327159 0 0.242278 0 0)
(26.1195 -0.271573 0 0.224932 0 0)
(26.501 -0.393621 0 0.240088 0 0)
(26.8367 -0.387698 -4.63002e-20 0.306199 8.32331e-22 2.27056e-37)
(27.0955 -0.53161 -4.70857e-20 0.27791 6.31857e-22 2.22869e-37)
(27.1862 -0.613368 -4.76676e-20 0.358989 6.13915e-22 2.18742e-37)
(27.3445 -0.314921 0 0.206467 0 0)
(27.1315 -0.104578 4.87707e-20 0.272336 -9.20048e-22 2.10663e-37)
(27.1767 -0.240478 0 0.233319 0 0)
(27.5172 -0.320208 -4.94867e-20 0.20637 7.39884e-22 2.02818e-37)
(27.9872 -0.365381 -4.97932e-20 0.185107 6.78021e-22 1.98983e-37)
(28.4918 -0.363293 0 0.1693 0 0)
(28.9876 -0.363813 0 0.156826 0 0)
(29.4551 -0.357574 0 0.147866 0 0)
(29.8111 -0.363912 -5.10924e-20 0.141774 4.24443e-22 1.84214e-37)
(30.096 -0.294677 0 0.151447 0 0)
(30.2011 -0.203692 0 0.187678 0 0)
(30.3916 -0.247651 0 0.171722 0 0)
(30.7989 -0.3079 0 0.14178 0 0)
(31.3438 -0.353004 0 0.113391 0 0)
(31.937 -0.326261 0 0.0859063 0 0)
(32.4264 -0.230363 0 0.0727745 0 0)
(32.7298 -0.101734 0 0.0812059 0 0)
(32.8171 -0.00838231 5.03519e-20 0.0900138 -1.7047e-22 1.5415e-37)
(32.7345 0.0266085 0 0.0939404 0 0)
(32.5821 -0.0147104 0 0.0932272 0 0)
(32.5141 -0.0658299 -4.88207e-20 0.110692 2.78472e-22 1.45054e-37)
(32.4721 -0.109001 -4.80988e-20 0.134983 2.47592e-22 1.42119e-37)
(32.558 -0.169867 0 0.129464 0 0)
(32.5331 -0.152422 4.62424e-20 0.123548 -2.39335e-22 1.3639e-37)
(32.1936 -0.0266358 -4.50243e-20 0.102536 9.40749e-23 1.33597e-37)
(31.615 0.135655 0 0.127965 0 0)
(30.7927 0.145345 4.2141e-20 0.137806 1.78223e-22 1.28147e-37)
(29.9469 0.0481177 0 0.15817 0 0)
(29.4581 -0.0938126 0 0.196874 0 0)
(29.356 -0.1747 -3.78799e-20 0.20005 -2.87226e-22 1.20307e-37)
(29.4765 -0.209545 0 0.174063 0 0)
(29.6806 -0.23395 3.64692e-20 0.138384 -1.25668e-24 1.15299e-37)
(29.9211 -0.199591 0 0.112196 0 0)
(30.0683 -0.109729 -3.58419e-20 0.097616 7.80881e-23 1.10462e-37)
(30.0485 -0.0169456 -3.57648e-20 0.0965154 1.34586e-22 1.08106e-37)
(29.8054 -0.00809406 -3.5728e-20 0.0906188 1.51768e-22 1.05791e-37)
(29.7869 -0.0785944 -7.13409e-20 0.078195 2.74574e-22 4.14066e-37)
(29.8949 -0.108772 7.10598e-20 0.0765763 -2.0213e-22 4.05126e-37)
(30.0594 -0.0764997 0 0.109725 0 0)
(29.822 -0.233202 0 0.185732 0 0)
(29.8339 -0.111352 0 0.151724 0 0)
(29.7296 -0.2679 7.02482e-20 0.284209 -1.35132e-22 3.70899e-37)
(30.4523 -0.426901 7.07243e-20 0.21309 -4.08905e-22 3.62716e-37)
(31.6037 -0.499374 -7.22822e-20 0.167082 8.17929e-22 3.54681e-37)
(33.1162 -0.549455 0 0.143318 0 0)
(34.821 -0.594571 7.78484e-20 0.12497 -1.25344e-21 3.39041e-37)
(36.6644 -0.588539 8.10755e-20 0.102608 -1.25394e-21 3.31432e-37)
(38.4115 -0.539834 8.40818e-20 0.0836164 -1.15763e-21 3.2396e-37)
(39.9598 -0.453765 0 0.0704282 0 0)
(41.163 -0.35444 0 0.0618552 0 0)
(42.0007 -0.246719 0 0.0555514 0 0)
(42.4168 -0.126462 8.81275e-20 0.0504232 -2.96858e-22 2.9539e-37)
(42.4024 -0.024636 0 0.0481306 0 0)
(42.0386 0.0460646 0 0.0485874 0 0)
(41.4372 0.101864 -8.05297e-20 0.052196 -2.41591e-22 2.75284e-37)
(40.6936 0.138867 0 0.050784 0 0)
(39.8747 0.157568 0 0.047248 0 0)
(38.998 0.165367 -6.84574e-20 0.0444372 -2.382e-22 2.56264e-37)
(38.0874 0.166509 0 0.0417778 0 0)
(37.1725 0.161209 0 0.039151 0 0)
(36.291 0.151388 5.78872e-20 0.0363886 6.33801e-23 2.38297e-37)
(35.4689 0.141409 5.52961e-20 0.0334807 -2.13149e-24 2.32535e-37)
(34.7063 0.135007 0 0.0304735 0 0)
(33.9792 0.134984 -5.1416e-20 0.0273645 8.63789e-23 2.21339e-37)
(33.2465 0.143264 0 0.0240589 0 0)
(32.4538 0.161435 4.82691e-20 0.0204787 -5.41612e-23 2.10567e-37)
(31.539 0.190548 0 0.0171432 0 0)
(30.4554 0.228378 4.43137e-20 0.0147255 7.89766e-23 2.002e-37)
(29.1652 0.269407 4.17183e-20 0.0134784 1.52449e-22 1.95164e-37)
(27.6691 0.307205 0 0.0133104 0 0)
(25.9962 0.336161 0 0.0139823 0 0)
(24.1899 0.352677 0 0.0151475 0 0)
(22.3205 0.354361 0 0.0164202 0 0)
(20.4632 0.341073 0 0.0174051 0 0)
(18.6984 0.314263 0 0.0178138 0 0)
(17.0953 0.277066 0 0.0174999 0 0)
(15.6992 0.233954 1.89115e-20 0.0165263 4.73211e-23 1.58247e-37)
(14.5263 0.190087 -1.76246e-20 0.0151867 -7.27299e-24 1.54034e-37)
(13.5743 0.148933 0 0.0137316 0 0)
(12.8263 0.113171 0 0.0123883 0 0)
(12.254 0.0836791 0 0.011155 0 0)
(11.8222 0.0619844 0 0.010106 0 0)
(11.4905 0.0492251 -2.86229e-20 0.00918765 1.06848e-22 5.3681e-37)
(11.2102 0.0451948 0 0.00820219 0 0)
(10.9268 0.0492896 2.6098e-20 0.00724485 -3.94203e-23 5.07275e-37)
(10.5928 0.0605659 -2.43285e-20 0.00647275 -1.18567e-23 4.92959e-37)
(10.1744 0.0760811 0 0.00598688 0 0)
(9.66066 0.0933028 0 0.0058289 0 0)
(9.04587 0.109905 0 0.00600256 0 0)
(8.34201 0.123173 1.37241e-20 0.00644683 1.37139e-22 4.38593e-37)
(7.57444 0.131063 1.08289e-20 0.00704137 1.17298e-22 4.25706e-37)
(6.77786 0.132635 0 0.00766741 0 0)
(5.9914 0.127912 5.99254e-21 0.00820752 2.70883e-23 4.00747e-37)
(5.25158 0.117972 4.26636e-21 0.00859155 -2.49289e-23 3.88667e-37)
(4.58714 0.104336 -3.02548e-21 0.00878526 7.23843e-23 3.76846e-37)
(4.01582 0.0888092 0 0.00881095 0 0)
(3.54526 0.0730582 0 0.0087295 0 0)
(3.17558 0.058435 -1.69054e-21 0.00861572 1.79839e-22 3.42899e-37)
(2.90036 0.0457759 0 0.00854398 0 0)
(2.70826 0.035595 0 0.0085973 0 0)
(2.58489 0.027564 0 0.00878691 0 0)
(2.51547 0.0219658 0 0.00921997 0 0)
(2.48681 0.0187791 2.90804e-21 0.00993948 -1.70026e-22 2.91118e-37)
(2.486 0.0178801 3.21359e-21 0.0108985 -1.66631e-22 2.81448e-37)
(2.5021 0.0193586 0 0.012051 0 0)
(2.52514 0.0232218 3.84461e-21 0.0134864 -1.26802e-22 2.62764e-37)
(2.54735 0.0290315 0 0.0153975 0 0)
(2.56328 0.0365017 0 0.017523 0 0)
(2.56766 0.0460712 4.63561e-21 0.0193367 -2.66573e-23 2.36329e-37)
(2.55317 0.0565506 0 0.0209319 0 0)
(2.51673 0.0644174 5.05726e-21 0.0215983 2.58631e-24 2.19726e-37)
(2.45534 0.0647708 0 0.0203543 0 0)