/*--------------------------------*- C++ -*----------------------------------*\
| =========                 |                                                 |
| \\      /  F ield         | OpenFOAM: The Open Source CFD Toolbox           |
|  \\    /   O peration     | Version:  2112                                  |
|   \\  /    A nd           | Website:  www.openfoam.com                      |
|    \\/     M anipulation  |                                                 |
\*---------------------------------------------------------------------------*/
FoamFile
{
    version     2.0;
    format      ascii;
    arch        "LSB;label=32;scalar=64";
    class       volScalarField;
    location    "0.34";
    object      ddt0(omegaU);
}
// * * * * * * * * * * * * * * * * * * * * * * * * * * * * * * * * * * * * * //

dimensions      [0 0 -2 0 0 0 0];

internalField   nonuniform List<scalar> 
12225
(
189.446
3602.98
12391.5
27342.1
48028.1
73698.9
103624
137588
176002
219291
267519
321261
381934
449933
524056
602483
684299
769778
-2650.92
-9193.38
-17311.6
-25085.8
-32116.7
-38603.5
-44683.1
-50788.5
-57081.9
-63252.1
-69088
-74921.8
-80650.1
-84890.7
-86253.9
-83622.8
-74605.6
-56707.9
-389.02
-2388.77
-6478.22
-12609.9
-20202
-28838.3
-38064.3
-48117.3
-59351.4
-71907.4
-86085.2
-102466
-121433
-142385
-164639
-187742
-210659
-230566
-44.1697
-407.287
-1341.91
-3172.7
-6061.49
-9895.03
-14717.7
-20557.1
-27894.2
-36566.2
-46515.3
-58063.3
-71759
-87583.5
-105458
-125283
-146590
-168383
-4.20548
-55.6681
-225.556
-612.407
-1315.41
-2378.65
-3874.93
-5846.03
-8133.85
-10995.7
-14394.7
-18378.8
-24299.1
-31300.8
-39388.2
-48505.6
-58523
-69066.7
-1.4283
-3.67463
-21.8149
-81.2238
-211.412
-443.426
-810.558
-1350.97
-2043.29
-2980.63
-4222.99
-5835.01
-7046.76
-8549.8
-10397.1
-12631.8
-15264.7
-18228.5
-1.53254
0.808532
5.74532
8.14055
1.17967
-24.0715
-79.5548
-181.431
-348.403
-610.754
-1009.43
-1598.26
-2148.46
-2807.58
-3569.34
-4425.56
-5365.97
-6382.59
-1.62129
0.024021
5.94751
15.3298
27.243
40.1624
51.2985
56.3487
49.997
24.7006
-30.8911
-132.847
-284.505
-489.965
-745.108
-1040.8
-1364.95
-1711.69
-1.60446
-0.851111
3.64673
11.7813
23.6156
39.1387
57.7962
78.5321
100.321
122.383
143.592
161.777
175.923
185.746
190.972
192.026
191.128
188.901
-1.51156
-1.46486
1.63063
7.89002
17.4715
30.5593
46.9949
66.3735
88.3743
113.033
140.72
171.691
206.952
248.652
298.91
359.253
430.972
513.806
-1.38533
-1.8363
0.0962432
4.69935
12.1297
22.5609
35.9065
51.9073
70.379
91.3827
115.276
142.538
174.035
211.358
256.511
311.268
376.894
453.324
-1.28808
-1.99098
-0.871756
2.47266
8.20166
16.4521
27.1528
40.085
55.0838
72.1534
91.4912
113.445
138.645
168.178
203.468
245.803
295.997
353.937
-1.06398
-1.93396
-1.4154
0.944049
5.27329
11.6663
20.0644
30.2744
42.1164
55.5052
70.4581
87.1023
105.785
127.185
152.227
181.728
216.128
255.394
-0.686157
-1.62599
-1.6144
-0.144116
2.87235
7.48193
13.6354
21.1712
29.9012
39.6603
50.3023
61.7119
73.8909
87.0475
101.541
117.582
135.079
154.039
-0.521383
-1.26635
-1.48722
-0.792536
0.97688
3.89031
7.91542
12.9202
18.7249
25.1307
31.914
38.8298
45.6484
52.1653
58.1506
63.4713
68.8531
75.9435
-0.399998
-0.88081
-1.12203
-0.974318
-0.2401
1.18553
3.30208
6.01325
9.16744
12.5833
16.0509
19.3282
22.1334
24.1362
25.1416
25.6646
27.0005
28.0178
-0.23543
-0.514661
-0.697051
-0.771615
-0.657123
-0.293027
0.322384
1.12462
2.00714
2.84303
3.49625
3.8344
3.74877
3.20153
2.3654
1.46817
-0.44143
-4.36951
-0.0336973
-0.0905658
-0.157053
-0.272069
-0.473418
-0.793069
-1.27354
-1.9701
-2.94006
-4.23342
-5.88812
-7.93106
-10.3924
-13.3551
-17.0933
-22.2842
-29.9093
-40.5984
0.195622
0.409388
0.456318
0.274711
-0.250324
-1.24274
-2.80733
-5.02551
-7.96407
-11.6966
-16.3247
-21.9952
-28.9145
-37.3531
-47.6207
-59.9691
-74.4315
-90.8502
0.379717
0.790186
0.873606
0.457982
-0.66891
-2.68824
-5.75609
-9.98
-15.4346
-22.1878
-30.306
-39.8419
-50.8129
-63.1751
-76.8011
-91.4687
-106.839
-122.503
0.524043
1.07556
1.06226
0.147234
-1.94466
-5.39891
-10.3554
-16.8698
-24.921
-34.4274
-45.2397
-57.1309
-69.8025
-82.9066
-96.0778
-108.975
-121.292
-132.801
0.766365
1.48349
1.15116
-0.638739
-4.08239
-9.32441
-16.4186
-25.2599
-35.609
-47.1263
-59.3904
-71.9322
-84.2897
-96.0579
-106.926
-116.703
-125.279
-132.608
1.00897
1.5367
0.516243
-2.40292
-7.36594
-14.4557
-23.5418
-34.2245
-45.9582
-58.1511
-70.1903
-81.5048
-91.6418
-100.3
-107.328
-112.734
-116.593
-118.986
1.08204
1.04145
-1.03472
-5.21028
-11.3914
-19.3171
-28.3079
-37.344
-45.4383
-51.7975
-55.7618
-56.828
-54.7337
-49.4674
-41.2137
-30.4129
-17.4888
-3.06626
1.11492
0.470648
-1.78882
-3.79138
-3.37452
1.72265
13.9564
35.5131
67.4371
110.234
163.446
225.819
295.435
369.854
446.265
517.074
584.723
646.364
1.1354
4.95372
20.7751
60.5809
136.553
257.895
429.51
651.487
909.417
1201.54
1516.79
1841.84
2162.2
2463.33
2731.79
2931.23
3086.21
3184.21
5.77492
78.8152
270.19
621.186
1182.73
1965.2
2938.23
4044.21
5173.94
6322.51
7430.03
8447.06
9333.68
10059.2
10609.2
10999.5
11140.3
11006.6
100.692
707.105
2059.68
4112.96
6797.2
9787.08
12742
15447
17851.4
19740.4
21097.8
21940.6
22285.8
22159.4
21590
20586
19110.4
17138.4
1236.88
4789.42
9551.07
14340.5
18155.9
20750.1
22125.8
22506.3
22153.4
21084.6
19387.7
17157.5
14447.7
11324.6
7838.26
4005.9
-189.553
-4739.71
-16.3922
-1633.58
-5819.62
-12601.9
-21632.6
-32343.9
-44055.4
-56178
-68336.6
-80165.8
-91351
-101750
-111282
-119879
-127534
-134251
-139979
-144596
37444.9
34050.7
29692.5
23901.2
17616.1
11657.2
6331.43
1719.18
-2166.65
-5408.15
-8027
-10027.1
-11541.3
-12773.5
-13871.4
-14910.8
-15930.4
-16946.5
-17922
-18609.3
-18737.6
-19120.7
-21182.5
-26386
-35274
-47817.1
-63713.5
-84089.9
-110877
-143326
-180372
-221933
-267449
-315241
-362730
-406891
-444617
-473226
-491032
-497670
-494040
-481955
-463654
-443006
-417169
-393484
-371289
-349897
-329500
-311720
-296766
-284584
-274965
-267390
-261252
-257504
-258897
-266019
-277000
-292858
-316053
-346726
-383024
-420902
-451090
-443721
-315463
-105231
79261.3
191085
178139
-16451.8
-455116
-1.14377e+06
-1.97358e+06
-2.76688e+06
-3.18566e+06
-2.90624e+06
-2.87916e+06
-2.75776e+06
-2.56113e+06
-2.30932e+06
-2.02017e+06
-1.70927e+06
-1.39119e+06
-1.0697e+06
-749154
-434666
-127653
173630
464224
742968
1.01779e+06
1.30222e+06
1.60631e+06
1.71918e+06
1.82598e+06
1.92081e+06
1.99725e+06
2.0519e+06
2.08255e+06
2.0878e+06
2.067e+06
2.02003e+06
1.94478e+06
1.83735e+06
1.70033e+06
1.53413e+06
1.34123e+06
1.12536e+06
891258
643539
386091
128578
-125945
-275460
-385909
-464543
-501751
-501949
-467629
-403594
-325216
-239742
-155204
-78796
-17762.2
24199.8
46780.4
53127.5
45502.9
34144.7
28284.8
32509.7
48972.8
76786.4
113945
157503
203682
249259
291044
323332
337121
320443
261290
157488
31864
-83823.6
-200274
-157635
191118
734955
1.19528e+06
1.24544e+06
633419
-474242
-1.53191e+06
-1.78296e+06
-1.53395e+06
-1.08023e+06
-455445
239663
893457
1.41015e+06
1.67631e+06
1.62382e+06
1.37372e+06
918739
263872
-600670
-1.36426e+06
-1.87137e+06
-2.29915e+06
-2.52528e+06
-2.53648e+06
-2.36591e+06
-2.06379e+06
-1.69546e+06
-1.19101e+06
-797548
53253.9
30397.1
12084.4
-2074.26
-12517.3
-19617
-23783.4
-25587.8
-25654.6
-24713.3
-23375.4
-22001.8
-20764.2
-19801.5
-19205.2
-18980.6
-19084.7
-19294.8
-19102.8
-18878.3
-18617.6
-16681.3
-11906.4
-3164.69
9052.11
23257.1
37815.8
51530.9
62321.8
68838.5
72935.6
73295.7
68831.4
58914.4
43350.4
22469.5
-2865.31
-31237.5
-60776.8
-89417.8
-115243
-136781
-153334
-164849
-171711
-175495
-179230
-180499
-178206
-172374
-163490
-152144
-138939
-124445
-109106
-93374.1
-78338.5
-65861
-57744.6
-54862.6
-57213.6
-63789.8
-73108.2
-85212
-105570
-154079
-311561
-531460
-764907
-1.06281e+06
-1.40246e+06
-1.69223e+06
-1.87258e+06
-1.84163e+06
-1.33181e+06
-1.09382e+06
-779435
-443645
-130235
169165
441478
676952
869228
1.01725e+06
1.14672e+06
1.22047e+06
1.24075e+06
1.21161e+06
1.14087e+06
1.03278e+06
893119
732258
556536
361168
128173
114930
104607
96200.8
89408.7
83919.8
79352.8
74883.9
68532.1
56853.4
52664.9
59884.5
67992.7
77161.4
87415
98626.6
110563
122999
136011
150920
162503
160249
161990
160204
154617
143412
119699
74340.4
45684.6
27203.1
12671.7
1190.51
-7764.12
-15297.9
-23025.7
-32734.3
-43837.8
-61728
-90593.3
-121002
-145514
-159151
-158876
-143589
-114037
-70630.6
-15919.3
47088
115270
184914
247071
277850
236682
107322
-34058.1
-187096
-351821
-500571
-518156
-502155
-520550
-475521
-180201
235333
530825
699230
799062
729329
498537
196904
-19673.2
-95855.5
-101470
-97520.2
-83941.9
-63279.5
-52694.2
-130210
-198240
-289169
-404384
-525105
-634031
-716111
-826198
-721114
19741.6
395.458
-15910.6
-26529.2
-31683.3
-32027.7
-28497.7
-22572.9
-15564
-8454.38
-2130.41
2859.83
6418.36
8520.88
9137.82
8365.69
6399.54
3489.04
-83.9808
-4040.8
-8105.66
-11996.2
-15263
-16960.5
-16484.5
-13206.2
-6601.19
3600.94
17134.3
33253.5
51256.7
70076.3
88196.3
103871
115409
121393
120853
113459
99647
80585.4
57948.5
33570
9080.25
-14283.7
-35654.5
-52612.3
-66342.7
-75957.8
-81724.3
-84196.3
-83941
-81428.2
-77020
-71057.2
-63960.6
-56472.5
-49920.2
-46255
-47738
-56187.7
-72354
-96188.1
-127998
-171254
-245244
-434458
-691076
-997752
-1.32767e+06
-1.58345e+06
-1.65101e+06
-1.31441e+06
-858287
-534757
-202247
79025.1
338465
555553
723143
837990
898734
908268
876203
806433
707938
588663
462023
342757
237246
149532
81752.9
33446.7
1741.37
-17614.4
-16609.6
-14552
-12225.2
-9549.43
-6566.78
-3407.42
-188.875
3245.43
7001.9
10967.2
15189
19506.6
24103.5
29338.4
35539.4
43015.9
52244.3
64001.5
79973.5
103299
106193
116336
125981
134344
142714
151012
158263
163083
164112
160596
152720
140971
126293
110053
93535.9
77509
61986.4
46017.9
30172.7
2942.4
-33873.2
-76572.4
-119173
-155141
-178742
-186587
-176976
-148834
-102183
-39237.6
32431.3
93682.7
110727
48169.7
-74484.2
-250976
-459027
-645543
-724330
-647894
-391569
38983.1
492902
639949
647091
524106
337574
138461
-6471.13
-73761.3
-87148.7
-91400.1
-90436.8
-78880
-48541.2
1068.21
43312.1
80020
107870
119235
113439
90874
49577.9
-16386.5
-138030
-306490
-34873.6
-10703.6
-8064.5
-9175.47
-7356.08
-768.663
9578.49
21756.1
34173.7
45476.3
54625.6
61131.5
64797.8
65561.3
63607.7
59291.7
53033.9
45275.5
36443.5
26933.2
17110.1
7328.65
-2153.66
-10470.5
-17210.7
-21890.1
-24004.2
-23013.1
-18400.7
-9817.76
2844.1
19377
38941.8
59923
80250.3
97770.2
110490
116893
116245
108756
95502.9
78160.4
58626.3
38687.1
19817.1
2170.94
-7771.39
-11557.2
-11220.3
-8462.26
-4500.88
-78.3932
4334.3
8235.07
10917.9
11323.5
7929.33
-1422.86
-19275.4
-48145.2
-89734.2
-146858
-228560
-351039
-585546
-781046
-993591
-1.22619e+06
-1.38752e+06
-1.13975e+06
-742896
-393730
-99259.2
152681
364825
530554
649170
714885
728731
696035
626950
534466
431403
328567
234860
156230
95455.7
52278.9
24002.5
7327.51
-1215.9
-4723.55
-5261.87
-3568.76
-1827.67
131.963
2409.5
5189.99
8509.38
12211.7
16125.8
20066.2
24036.6
27437.6
29904.5
31444.2
32333.3
33007.5
33947.9
35708.3
39033.2
44247.2
52854.2
58702.7
60860.7
66004.1
70171.9
73770.6
77664.8
82354.8
88537.1
96892.2
107768
120970
134498
145450
151088
149971
142440
130164
115246
99508.8
83914.8
68695.9
51041.4
28946.1
1668.55
-29839.2
-62766.7
-93045.3
-116039
-127195
-122951
-102103
-68458.4
-35054.9
-26141.9
-70918.1
-188562
-354746
-547078
-699950
-732067
-552443
-140861
370440
668564
582158
440018
257690
102908
7815.9
-31212
-41686.8
-47902
-55184.1
-60707.2
-60784.7
-44583.1
-9958.46
25768.5
61984.2
91915.3
111506
120992
121793
114224
98374
69149
-12891.2
-52073.1
29873.7
48586.3
48196.4
49210.8
57139
70583.1
86444.1
101747
114526
123731
128642
129208
125899
119402
110441
99669.5
87612.1
74652.4
61047.7
46968.3
32569
18510.7
4815.84
-7920.63
-19019.1
-27809.9
-33739.3
-36282.5
-34919
-29482.7
-19901.1
-5926.6
11723.3
31315.9
50793.4
67956.6
80840.8
88121.6
89433.4
85468.9
77781.6
68328.3
58884.3
50786.5
41085.4
45354.4
56653.3
70968.7
85504.8
98471.4
108767
116008
119437
117938
110233
94706.6
68713.2
28836
-29670.4
-110606
-218221
-379765
-633822
-748601
-877221
-1.02963e+06
-941799
-719357
-425559
-154452
84756.3
273124
420939
524517
582479
594289
563072
498184
412805
320936
234082
159598
100950
58432.2
30158.7
13064.8
3816.13
-528.587
-2127.71
-2383.46
-2263.99
-2592.62
-2192.01
-1586.91
-109.532
2529.17
6461.72
11616.1
17932.8
25413.8
33210.4
40616.1
46999.6
51736.2
54444.8
55132.4
54221.4
52270.4
50791
50291.3
50925.4
54157.7
52426.2
55104
57626.7
59579.2
60866.1
61422.4
60761.8
58389.5
54658.5
51568.5
52551.3
60499.2
75986.9
96567.2
117409
133498
141726
141613
134697
123295
109603
95233.7
79829.3
62744.5
43107.7
20522
-4379.24
-29682.1
-52413.3
-69307.8
-78238.4
-80624.8
-84767.2
-107905
-172472
-293123
-459072
-628033
-735356
-695593
-422875
55979.8
508824
640907
451793
269820
126096
39798.8
2272.1
-7696.17
-8608.34
-13954.7
-25703.8
-41700.4
-54701.7
-47959.6
-28655.4
935.076
34566.3
63795.5
84530.8
97067.5
102387
100643
94247
84664.2
59799.9
7237.18
116045
127752
111442
104018
111076
127530
146789
163436
174376
178663
176737
169794
159253
146475
132547
118221
103932
89851
75950
62050.9
48381.2
33711.5
18862.1
3992.2
-10529.1
-23907.6
-35095.6
-43138.8
-47576.2
-47945.7
-43703.4
-34587.4
-20881.2
-3589.18
15592.2
34505
51290.9
64645.5
74106.9
80142.9
83886.6
86649.4
89901.2
93901.9
104333
136752
176065
211920
241042
262075
274804
280082
277296
265463
243742
209828
159527
88621.5
-7992.26
-140589
-339801
-557829
-605057
-718432
-677110
-626384
-459204
-260747
-46118.7
135199
282408
388982
457696
485977
474704
428912
359099
278843
200662
133195
80437.8
42653.3
17845.4
2984.27
-5089.56
-9112.75
-11127.3
-12457.8
-13812.1
-15279.1
-16442.3
-16933.1
-18071
-18050
-16503.2
-13138.8
-7769.02
-235.822
9705.47
21451.5
34431.2
47819.7
60490.3
71148.4
78512.2
81813.3
81766
77766.7
74394.7
68665.7
66146.5
60619.6
59711
60173.9
61473.4
63194
65066
66895
68191.8
68023.7
65073.5
58077.7
47192.2
36061.1
29826.3
33046.7
47176.3
69410
93943.1
114732
127857
132338
129474
121047
109628
96332.3
81559.5
65158.2
46835
26630.7
5214.07
-16290.9
-37201
-59070.1
-88127.7
-136907
-222098
-354990
-524511
-683374
-754972
-652187
-315307
172258
532987
548855
357567
173584
76662.8
31064.3
16025.3
18255.9
21205.4
11823.1
-6712.67
-32125.7
-47579.8
-50944.5
-40200.8
-16861.4
11692.1
38167.2
58219.5
71028.3
76770.6
76317.9
72951.1
68103.6
61300.1
154249
211112
191085
150647
138646
151163
173869
195069
207808
209980
202675
188534
170486
151013
131855
114020
97937.5
83630.6
70867.4
59271.7
48400.2
38282.9
27345
14609.5
421.558
-14439.3
-29024.6
-42178.1
-52656.1
-59412.3
-61746.7
-59139.2
-51175
-37734.2
-21294.5
815.489
29194.7
52000.4
72618.9
90847.7
108311
128306
153344
192819
225871
267054
321622
363425
395235
419187
436440
446833
445516
430632
405614
367524
312753
235466
131082
-12461.9
-221976
-381296
-395100
-474535
-493375
-429754
-328634
-178922
-23694.6
122167
239131
325510
377894
395515
378456
332363
267790
197494
132401
79120.6
39818.4
13486.4
-2513.24
-11270.4
-15623.2
-17803.4
-19324.2
-21009.4
-23119.5
-25586.8
-28182.6
-30507.4
-32086.2
-33531.1
-33776.4
-32566.8
-29570.8
-24439
-16641.4
-5446.76
8846.55
26123.3
45688.3
65959.2
84922.2
100397
109244
113892
109421
106912
94646.8
86798.3
79715.8
74012.5
70006.8
67796.6
67275.2
68224.9
70417.8
73559.3
77202.3
80544
81625.4
77320
66270.8
50261.2
33867.1
23130.1
22965.2
34599.8
54918.1
77136.4
96823.2
110347
116462
115833
110069
100768
88981.3
75120.1
59171.1
40990.8
20389.7
-3310.24
-32450.2
-72774.5
-134780
-232423
-375407
-552489
-711892
-763547
-617632
-246059
220420
502966
466604
284558
137014
64954.3
36539.1
35189
46114.4
41965
24434.5
1112.12
-23935.2
-43623.8
-51108
-45287.6
-27292.8
-3452.17
19638.5
37621.8
48998.3
53729.1
53947.9
52224.2
49487.1
46020
373347
329594
223943
162512
159972
185340
213322
229740
229593
214731
190093
161080
132018
105622
83149.3
64824.9
50261.2
38779.7
29608.8
22008.8
16571.5
8272.02
-996.005
-11050.7
-22264.6
-34918.6
-48382.2
-61123.1
-71104.3
-76344.7
-77433.7
-73781
-57729.4
-37237.1
-12080.5
17700.5
49187.8
82502.3
121570
170553
226803
285738
337746
370911
379405
388079
399616
406633
414116
424807
439385
452224
456556
448668
424690
378898
307429
202104
70276.1
-137990
-279492
-316392
-371019
-378760
-345076
-266827
-162120
-40850.9
75615.8
176546
252909
301333
318692
305106
265356
209382
148958
93946
50051.6
18830.6
-999.47
-12081.2
-17334.6
-19335.4
-20031.4
-20674.2
-21890.6
-23837.2
-26345.7
-29019.8
-31390.8
-32953.3
-35425.7
-36921.3
-37900.2
-38213.3
-37562.3
-35479.2
-31020.7
-22961.1
-10290.3
7617.62
30643
57323.2
84729.4
111077
127566
140398
140070
134655
126481
116703
106578
96913
88342.4
81406.4
76448.9
73612.1
72921.4
74342.2
77821.3
83332.6
90158.1
95737.7
96244.1
89265.5
74598.8
55021.4
35951.6
23459.1
21332.3
29530.1
44667
62585.3
79105.3
91172.7
97452.6
98119.1
94112.5
86369.8
75390
61167.5
43227.1
20378.3
-10092.2
-53754.5
-120220
-222265
-369322
-551450
-715695
-762012
-595987
-215050
219706
451469
403043
243772
124584
67591.8
51173.1
59465.3
66776.4
51857.7
31121.6
6303.95
-19103.9
-39417
-49191.1
-46534.3
-32766.5
-12913.7
7166.27
22952.7
32525.5
36235.7
36825.3
35755.7
33737.7
31242
637878
393503
212591
160639
182452
220164
244645
245003
222315
184603
141039
99088.4
63113.7
34718.3
13724.6
-928.047
-10595.2
-16622.2
-20161.2
-21963.6
-27309.9
-31553.4
-36392.9
-43187.3
-52376.3
-63788.5
-76634.6
-87403.5
-94569.2
-97926.7
-90376.9
-75938.5
-52989.4
-22845
14502.4
57823.4
105363
156559
208816
256147
289323
305093
306905
296760
277680
251360
227369
212494
208116
213815
227205
243522
255544
253598
226978
164459
57085.1
-82071.9
-192796
-264479
-300036
-330509
-336321
-309615
-253595
-172262
-77103.5
21265.4
110780
183530
233165
255770
250094
219809
173443
121765
74074
35985.6
9251.82
-7111.6
-15461.5
-18489.5
-18602
-17620.1
-16697.5
-16384.5
-16772
-17685.6
-18863.9
-20022.3
-21013
-21821.7
-22641.5
-23840.4
-25731.1
-28378.5
-31538.6
-34609.2
-36511.3
-35697.4
-29799.2
-16736.6
4615.4
34258
67452
104588
131007
149959
159437
160023
154348
144985
133871
122153
110683
100247
91436.2
84592.9
79896.2
77487.3
77593.3
80721.1
87360.8
96692.3
105679
110735
108507
97347.3
78504.8
56175.2
36917.1
24554.6
21001.6
25837.3
36761.9
50442.2
63519.6
73483.1
79051.4
79935.3
76240.4
67930.2
54517.4
34759.6
6009.9
-36896.5
-102753
-203479
-348733
-530932
-699576
-750875
-585723
-215541
186262
392264
355877
225336
126171
79709.2
71361.5
79994.9
79409.2
58517.7
34195.7
8659.29
-15950.1
-35611.6
-46204.8
-45930.4
-35591.4
-18896.3
-1177.17
12935.5
21278.5
24776.5
25320.4
23990.8
21744
19239.6
891288
377178
174087
165458
212640
251575
258919
232203
181285
120626
62225.3
13703.6
-22557.2
-47353.3
-62802.3
-71192.3
-74509.8
-74384.5
-71988.9
-69126.8
-68848.9
-70849.7
-73961.3
-78932.1
-86607.5
-95679.2
-107506
-121186
-123584
-114183
-96748.1
-74030.1
-44116.5
-7468.71
33349.5
74177.5
109945
135886
147327
140725
116400
80606.7
46025.6
17055.4
-5296.39
-15354.9
-42703.9
-57077.3
-59858.1
-52123.1
-36517.4
-17750.6
-3098.25
-1779.87
-21930.8
-66169.9
-128445
-195786
-253911
-293692
-310824
-311511
-291167
-247852
-184699
-107226
-23999.3
56431.1
125805
177516
206401
210026
190258
153732
109842
67471.5
32570.4
7590.3
-7743.66
-15251.4
-17306.8
-16183.8
-13685.2
-10987.1
-8655.47
-6791.94
-5236.22
-3757.76
-2221.32
-602.593
1027.58
2022.2
3255.16
3001.33
698.339
-4017.84
-11102.7
-20053.6
-29728
-38205.2
-42541
-38911.3
-24948.6
2570.52
38033.7
77633.9
115481
146139
166112
174748
174133
167397
157103
144862
131855
119215
107823
98173.3
90448.6
84697.7
81065.8
80134.9
83056.8
90545.4
101458
113124
121726
123310
115419
98323.1
75845.3
52938.3
33860.3
21520.5
17112.4
20073.7
28395.9
39275.2
49910.7
58092.3
62318.1
61509.1
54593.4
40064.7
15343.8
-24226.5
-86476
-182299
-321359
-498599
-668707
-730668
-582680
-238447
131964
329466
318627
219367
137061
98297.2
92609.2
95978.4
87111.8
61190.4
34639.8
9177.35
-14053
-32515
-43433.6
-45114.5
-37397.1
-22807
-6444.65
6938.46
15002.7
18274.1
17965.3
15580.1
12500.3
9532.05
1.08056e+06
293533
143143
186222
244298
268709
247190
188470
111525
34550
-29866.7
-76488.5
-106702
-124161
-132630
-135004
-133198
-128579
-122381
-118687
-115167
-114207
-114306
-115935
-125228
-134853
-146097
-152305
-147431
-130918
-108709
-84760.4
-59657.6
-34486.9
-12349
2363.57
5658.15
-4260.19
-26749.9
-57566.8
-91599.4
-123427
-150009
-171402
-187788
-197290
-208232
-212537
-207475
-192808
-168665
-136230
-98943.4
-63698
-40833.3
-41427
-71276
-124506
-183695
-230323
-258094
-245533
-216154
-169787
-109820
-41830.7
27207.9
90275.2
140835
173470
184735
174582
147337
110518
72242.6
38767.5
13414.4
-3117.74
-11844.4
-14621
-13508.1
-10338.7
-6443.17
-2544.99
1163.25
4815.07
8629.84
12741.5
17145.7
21624.2
25940.6
29727.3
33325.7
34661.3
32867.9
27234.5
17548.9
4060.83
-12436.8
-29952
-45306.3
-52677.2
-48903.5
-31064.5
783.552
42653.5
87767.2
128641
159505
177754
184270
182120
174372
163064
149608
135595
122377
110769
101080
93258.4
87151.1
82968
81765.9
85038.1
93364.2
105713
119469
130495
134522
128782
113181
90793.2
65781
42325.7
23832.2
12432.1
8725.34
11797.3
19560.2
29324.9
38344.4
44091.7
44235.3
36384.8
17572.1
-16632
-73188.5
-161824
-291747
-460028
-627918
-702330
-582109
-274535
65394.4
263437
284034
217482
152004
118693
111368
108646
91663.1
61730.1
34121.5
9106.79
-12862.7
-30400.2
-41814.4
-45122.1
-38996.2
-25134.2
-8712.81
4857.29
12794.3
14957.8
12979.7
9007.34
4748.23
1115.4
1.16373e+06
194290
141649
215998
265715
263573
209595
123500
30441.8
-52564.7
-113100
-151478
-172909
-183036
-186356
-185659
-182173
-176267
-169934
-168828
-165946
-161572
-159399
-160689
-166776
-174086
-181376
-182642
-174692
-158769
-140453
-123911
-110353
-99916.9
-93134.9
-91351.6
-95836.9
-106500
-121643
-138736
-155741
-171498
-185849
-199013
-210762
-219758
-223829
-225608
-221478
-209908
-188864
-156192
-110659
-53707.9
8259.59
62173.9
89681.7
75000.7
18889.5
-53459.7
-107924
-129520
-104572
-65231.9
-15988.1
37664.6
89619.8
133838
165048
179399
175563
155276
124005
88765
55549.2
28337
8747.37
-3325.8
-8980.39
-9793.4
-7473.06
-3548.61
900.405
5372.69
9859.55
14599.5
19820.2
25591.7
31859.1
38593
45276
52268.5
57964.7
61103
60353.3
55141.3
44713.7
29041.7
8538.63
-15133.5
-38640.6
-57145.6
-65018.6
-57350.9
-32290
7621.52
55802.2
103726
143768
171316
185703
189194
185163
175986
163131
148462
133893
120712
109546
100441
93058.4
87133.5
83152
82511.2
86706.7
96170.2
110048
125330
137655
142756
137668
122545
99830.6
73238.5
46802
24138.2
7905.1
-576.339
-1483.15
3623.96
12148.6
20887.5
26374.6
25028.6
12993.9
-14443.5
-63767.3
-143648
-262540
-419085
-581339
-667270
-579973
-315690
-6865.6
193980
246308
212691
165162
136363
124961
114863
92507.5
61955.5
33993.2
9222.47
-12129.6
-29595.9
-41946.7
-46335.6
-40294.2
-25487.7
-7855.78
6146.14
13140.7
13327.5
9100.69
3148.66
-2530.01
-6923.81
1.08859e+06
168496
171242
244096
272913
239665
157198
54157.2
-43023.2
-119203
-170566
-200583
-215597
-221763
-223581
-223584
-222759
-221437
-220494
-216066
-210437
-205331
-202377
-202649
-206259
-211429
-215706
-215206
-208245
-196194
-182630
-169855
-157873
-145815
-133361
-121811
-113421
-109798
-111174
-116883
-126042
-137712
-150856
-164369
-177510
-190091
-199462
-209594
-217631
-222377
-221279
-210182
-183642
-136088
-63989.4
30965.6
137698
231330
274994
240716
147981
67183.6
39731.2
64533.3
99010.9
135453
168629
193274
205210
202237
186509
153212
118193
85125.3
55787.2
32300.5
15257.4
4350.77
-1185.48
-2408.36
-587.008
2973.85
7211.22
11543.7
15909.5
20557.1
25736
31520.2
38079.6
45717.1
54668.8
63297.2
70492
75413
76796.1
73399
64196
48575.3
26704.1
-128.962
-29020.6
-55089.6
-71986.6
-73490
-55993.8
-20424.6
27451.9
78867
125038
159908
181303
190501
190600
183886
172246
157505
141977
127469
115015
104927
96891.4
90337.9
85130.1
82073.2
82701.8
88279.1
99387.1
114679
130786
143317
147873
142170
126414
102811
74797.1
46275.9
20948.9
1752.28
-9595.26
-12878.5
-9449.14
-2053.95
5515.56
8823.11
3032
-17234
-58449.4
-128564
-235266
-378335
-532219
-627191
-573583
-355591
-79512.8
121862
202119
199947
171488
147952
132802
116456
90701.9
60568.7
33079.8
8797.73
-12469.2
-30719.2
-44152.9
-48516.7
-40697.2
-23377.3
-4105.25
9773.96
14959.7
12448.9
5424.91
-2855.38
-10106.5
-15253.6
951216
164081
198236
262754
270920
214705
115833
6276.83
-89518.6
-160441
-205902
-231089
-242989
-247876
-250121
-251979
-253971
-255505
-255749
-251119
-246289
-242059
-239507
-239408
-241658
-244957
-247030
-245144
-237706
-224843
-207777
-187241
-163391
-137001
-110391
-87389.5
-71837
-65758.1
-68848.8
-79309
-94843
-113267
-132937
-152714
-171245
-187307
-201700
-212684
-226285
-243974
-265122
-286013
-299400
-295448
-264037
-196960
-87678
68996.7
263777
442118
504609
408307
249069
219720
235461
255506
275904
265263
258053
239371
211573
172912
135692
101639
72455.7
49067.9
31427.2
19068.1
11420.2
7819.73
7419.12
9203.49
12173.1
15599
19173.7
22937.5
27074.7
31832.3
37636.6
45025.6
54713.9
64626.2
73811.1
80953
84508.2
82949.2
75023.6
59987.7
37882.1
9836.89
-21448.8
-51283.4
-73245.2
-80650.2
-68933
-37825.8
7932.31
59987.5
109222
148631
174934
188744
192483
188033
177426
162764
146519
130864
117251
106306
97867.9
91269
85928.1
81978.5
80467.2
82868.9
90369.3
103231
119516
135653
146987
149827
142429
125168
100184
70802
40871.9
14130.3
-6380.03
-18817.8
-22932.1
-20254
-14014.3
-8787.6
-10028.7
-23794.9
-56848.3
-116793
-210743
-339392
-482907
-583804
-561638
-389951
-148350
48988.8
150882
176619
167458
151044
134680
115089
87650.4
58305.2
31489.2
7361.62
-14671.6
-34325.4
-48281.7
-50794.2
-39244.2
-18394.6
2367.02
15226.1
17580
11500.3
1114.12
-9737.36
-18547.6
-24265.8
768787
161211
220972
276705
271413
203855
98663.9
-12920.4
-108544
-178757
-223603
-248291
-259756
-264366
-266665
-269032
-272032
-275197
-277946
-274958
-271838
-269175
-267584
-267405
-268293
-269015
-267463
-261090
-247808
-226702
-198163
-163653
-126003
-89727.9
-60390.5
-43014.4
-40193.1
-51115.2
-72215.7
-98788.8
-126418
-151777
-172969
-189681
-202828
-211776
-213032
-208145
-208824
-220186
-246614
-288409
-339149
-385450
-411488
-408132
-377006
-314241
-182050
74883.2
450664
730231
729252
444158
379491
378360
373748
356258
332881
301083
262614
218699
176145
137756
105079
78502.7
57619.8
41768.5
30355.1
22866.5
18727.3
17206.1
17474.6
18790.6
20678.3
22980.1
25803.1
29485.9
34586.7
41922.3
52121.2
63558.7
74578.2
83392.5
88204.9
87379.7
79667.2
64439.9
41914.2
13385.8
-18400.8
-48890.6
-71950.1
-81182.7
-72029.7
-43736.9
-219.657
50857.3
100616
141815
170594
186778
192467
189633
179489
164534
147538
130845
116206
104528
95830.2
89467.9
84613.9
80872.6
78647.6
79168.7
83724.9
93363
107668
124397
139244
148265
148492
138617
119227
92564.1
61988.7
31357.7
4394.27
-15916.4
-27895.5
-31640.4
-29265.6
-24790.8
-23703.2
-32437.4
-58062.9
-108082
-189283
-303181
-434955
-538572
-543874
-416355
-210382
-22137
94218.4
142758
151746
144214
129733
109700
82725.3
55249.9
29248.2
4587.99
-19207.1
-40408.9
-53381.9
-51607.6
-34527.1
-9850.16
11468.6
21873.7
20049.8
9485.32
-4677.33
-18103.6
-28203.9
-34071.8
553438
166698
238604
290859
282914
215714
111506
-1212.4
-100686
-176281
-226339
-254786
-268059
-272804
-274314
-275845
-278685
-282736
-287329
-286016
-284697
-283581
-282751
-281993
-280565
-277036
-269260
-254719
-231367
-198690
-158499
-115165
-75303.1
-46470.7
-34882.4
-43130.5
-69120.5
-106877
-148791
-188058
-220168
-243154
-256861
-261880
-259493
-254675
-227959
-198698
-170030
-151807
-155132
-187861
-250497
-330673
-401285
-435475
-436711
-446121
-485779
-492661
-301936
177113
667520
938526
702753
588436
526370
480981
438455
392743
343246
291463
241281
195686
156353
123680
97188.6
76058.1
59530.3
47027.3
38057.4
32083.4
28485.5
26645.9
26089.2
26581.3
28153.3
31073.6
35843.1
43709.7
55183.4
67650.7
79169.2
87786.1
91696.7
89409.3
79932.9
62992
39219.5
10328
-20655.6
-49231.1
-69814.9
-76934.1
-66827.9
-38917.8
3330.68
52911.4
101449
141953
170588
186875
192514
189479
178866
163063
145080
127384
111890
99680.1
90907.7
84984.7
80970.5
78116.6
76267.6
76134
78961.3
85814
97279.2
112916
128217
140788
146874
143909
131058
109267
80988.6
49676.8
19190.1
-6848.97
-25707.5
-36176.4
-39067.6
-37390.8
-36107.3
-41573.6
-60958
-101714
-170474
-269554
-388527
-491830
-520178
-433993
-264634
-90262
33906.8
99881.2
124922
127256
117228
99278.2
75824.2
50776.4
25351.7
-798.904
-26881.3
-48433.2
-57587.2
-48830
-25234.5
2415.78
22450.1
28491.3
21083.2
5323.37
-12710.1
-28380.6
-39191.3
-44505.6
308712
159284
246438
305211
309458
256407
161395
48840.1
-58984.5
-147504
-210671
-249416
-268815
-275585
-276062
-274941
-274602
-274779
-273262
-283465
-282864
-282415
-281791
-280218
-276493
-268906
-255290
-233427
-202007
-161933
-117315
-75462.9
-45527.2
-35721.7
-50090.8
-86581.2
-137476
-192304
-241774
-280764
-308880
-328513
-341921
-348815
-344178
-318970
-276592
-217613
-148728
-85602.7
-47834.5
-46267.7
-84684.6
-163472
-262035
-332120
-337493
-310632
-343150
-456251
-609738
-665004
-453523
91572.2
759959
881714
808454
703123
608232
526950
454622
387678
325685
269790
221154
180170
146401
118930
96778.8
79147.1
65432.9
55138.3
47785.1
42912.9
40144.7
39261
40230.6
43178.8
48391.7
57581.4
68903.2
80099.4
89293.7
94580.5
94448.7
87863.3
74362.8
54230.5
28673.1
-44.1608
-28524.6
-52403.5
-67006.1
-68330.5
-53941.4
-23878.6
18452.8
66477.5
112422
149961
175800
189661
193119
187970
175492
158102
138823
120155
104044
91617.7
83083.8
77891.9
75047.4
73561.5
72872.9
73105.2
75224.3
80323.8
89155.8
101572
116279
130230
139947
142374
135630
119446
95208.3
65663.3
34402.6
5233.31
-18504.2
-34644.3
-42841.8
-44978.9
-45152.2
-49226.3
-64153.1
-97225.8
-154947
-240288
-346366
-446512
-492144
-442033
-308273
-151248
-25010.8
53061
91127.9
103038
98958.4
85063.9
65938.5
43334
17620.1
-10691.9
-38041
-56695.9
-58194.2
-40382.6
-10760.4
17692.6
33870.5
33462.5
19262.6
-2022.56
-23604.4
-40799.7
-51387.3
-55130.8
89453.9
134580
237588
308593
337185
312316
238757
134224
19887.4
-84812.2
-167675
-224799