/*--------------------------------*- C++ -*----------------------------------*\
| =========                 |                                                 |
| \\      /  F ield         | OpenFOAM: The Open Source CFD Toolbox           |
|  \\    /   O peration     | Version:  2112                                  |
|   \\  /    A nd           | Website:  www.openfoam.com                      |
|    \\/     M anipulation  |                                                 |
\*---------------------------------------------------------------------------*/
FoamFile
{
    version     2.0;
    format      ascii;
    arch        "LSB;label=32;scalar=64";
    class       volScalarField;
    location    "0.38";
    object      omegaU;
}
// * * * * * * * * * * * * * * * * * * * * * * * * * * * * * * * * * * * * * //

dimensions      [0 0 -1 0 0 0 0];

internalField   nonuniform List<scalar> 
12225
(
56301.5
79822.4
86623.8
86371.6
83572.3
80122.4
76773.9
73798.1
71252.4
69095.2
67249.8
65640.1
64202.4
62890.9
61666.9
60528.9
59357.1
57994.4
4498.12
10590.6
15792.2
19758.1
22566.2
24455.7
25671.2
26409.5
26817.2
27000.6
27035.2
26974.7
26855.9
26702.4
26531.8
26365
26300.6
26400.1
302.227
1085.65
2200.05
3471.19
4721.49
5835.98
6772.16
7540.11
8174.52
8714.57
9194.04
9638.87
10066.3
10486.9
10907
11334
11773.5
12196.6
54.6596
126.227
269.699
488.633
766.376
1070.26
1373.72
1661.1
1927.98
2178.25
2416.14
2645.56
2870.06
3092.61
3315.73
3542.4
3774.41
4006.7
40.6592
46.7607
62.1172
90.6566
133.95
189.521
253.642
322.929
394.398
465.648
536.365
607.055
679.163
752.909
828.581
906.487
986.902
1068.12
39.8441
40.5135
42.1994
45.6243
51.4154
59.7994
70.6678
83.7981
98.8364
115.302
133.184
152.133
171.333
190.922
211.081
232.004
253.814
276.171
39.7454
39.9479
40.2803
40.8212
41.6786
42.9337
44.6276
46.7869
49.4418
52.6372
56.4593
60.903
65.7606
70.9994
76.5521
82.3383
88.2954
94.3713
39.7004
39.8243
39.9924
40.2024
40.4622
40.7775
41.1482
41.5778
42.0772
42.6627
43.3573
44.1876
45.1719
46.316
47.6041
49.0014
50.4704
51.9919
39.6705
39.7573
39.875
40.0162
40.1764
40.3499
40.5283
40.7064
40.8849
41.0668
41.2566
41.4601
41.6825
41.928
42.1991
42.4963
42.8174
43.1583
39.6498
39.7109
39.7973
39.9027
40.0219
40.1492
40.2771
40.4005
40.5177
40.6293
40.7373
40.8444
40.9531
41.0652
41.1816
41.3033
41.431
41.5634
39.6354
39.6771
39.7402
39.8201
39.9116
40.0101
40.1099
40.2066
40.2985
40.3855
40.4688
40.5501
40.6314
40.7149
40.802
40.8937
40.9907
41.0918
39.626
39.6542
39.7006
39.7624
39.8349
39.9139
39.9949
40.0743
40.1506
40.2236
40.2939
40.3626
40.4314
40.5018
40.5753
40.6532
40.7363
40.8239
39.619
39.6367
39.6701
39.7176
39.7752
39.8389
39.9052
39.9711
40.0351
40.0971
40.1574
40.2169
40.2766
40.3377
40.4013
40.4685
40.5399
40.6153
39.6137
39.6224
39.6445
39.6794
39.7238
39.7741
39.8275
39.8814
39.9346
39.9867
40.038
40.089
40.1406
40.1934
40.2484
40.3061
40.3671
40.4312
39.6104
39.6121
39.6247
39.649
39.6819
39.7206
39.7626
39.806
39.8496
39.8929
39.9359
39.979
40.0227
40.0676
40.1141
40.1627
40.2137
40.2672
39.608
39.6049
39.6107
39.6261
39.6495
39.6786
39.7112
39.7457
39.7811
39.8167
39.8524
39.8883
39.9246
39.9617
39.9999
40.0394
40.0805
40.1233
39.6062
39.6
39.6014
39.6107
39.6271
39.6488
39.6743
39.7021
39.731
39.7605
39.79
39.8197
39.8494
39.8793
39.9096
39.9404
39.9718
40.0039
39.6053
39.5975
39.5966
39.6027
39.6153
39.6328
39.6541
39.6776
39.7024
39.7276
39.7527
39.7776
39.802
39.8258
39.8493
39.8723
39.895
39.9174
39.6056
39.5982
39.5975
39.6038
39.6165
39.6341
39.6553
39.6785
39.7027
39.7269
39.7505
39.7731
39.7945
39.8146
39.8333
39.8507
39.8669
39.882
39.6073
39.6026
39.6052
39.6158
39.6335
39.6564
39.6826
39.7105
39.7386
39.766
39.7918
39.8158
39.8376
39.8571
39.8745
39.8899
39.9032
39.9148
39.6101
39.6099
39.6185
39.6369
39.663
39.6945
39.7291
39.7648
39.7999
39.8333
39.8641
39.8919
39.9165
39.9379
39.9563
39.9719
39.9851
39.9962
39.6145
39.6226
39.6415
39.6713
39.7093
39.7532
39.8002
39.8477
39.8938
39.937
39.9763
40.0112
40.0418
40.0681
40.0907
40.1101
40.1268
40.1412
39.6231
39.6442
39.6782
39.7243
39.78
39.8428
39.9095
39.9768
40.0425
40.1051
40.1641
40.2191
40.2705
40.3191
40.3661
40.4129
40.461
40.5118
39.6381
39.679
39.7367
39.8107
39.9017
40.0109
40.1382
40.2833
40.4473
40.6318
40.8381
41.0675
41.3222
41.6057
41.9231
42.2796
42.6816
43.1369
39.6639
39.7471
39.8827
40.106
40.4706
41.0304
41.8265
42.8849
44.2168
45.8167
47.6711
49.7654
52.089
54.6382
57.4204
60.3738
63.4948
66.7867
39.737
40.2283
41.5202
44.1669
48.7258
55.5797
64.862
76.4746
90.1281
105.29
121.559
138.6
156.164
174.084
192.269
210.272
228.068
245.668
41.131
51.011
73.8452
113.886
172.7
249.168
339.846
440.191
545.39
650.661
753.289
851.616
944.865
1032.89
1116.08
1195.69
1272.32
1346.59
90.4939
297.091
641.26
1102.82
1638.58
2203.49
2759.65
3280.97
3753.35
4173.01
4540.67
4861.02
5140.84
5387.52
5608.3
5809.76
5997.19
6175.09
1857.6
4855.36
7882.98
10606.8
12886.3
14704.1
16114.7
17189.9
17997.7
18596.1
19031.2
19339.5
19549.8
19685
19763.8
19801
19808.8
19795.8
36980.7
56254.4
64455.6
66939.8
66757.5
65414.5
63621.6
61720
59877.6
58172.6
56634.7
55268
54063.2
53003.4
52068
51236.8
50487.8
49808.9
1171.33
1237.65
1329.73
1423.92
1519.66
1619.92
1729.71
1849.74
1978.93
2118.24
2268.88
2431.8
2607.54
2796.25
2997.56
3210.71
3434.55
3667.61
3908.12
4153.96
4403.08
4653.46
4902.97
5149.44
5390.79
5625.18
5851.1
6067.59
6274.28
6469.37
6639
6778.73
6890.33
6975.46
7035.55
7071.87
7085.47
7077.1
7047.17
6995.84
6923.04
6828.54
6712.12
6574.17
6416.28
6241.56
6054.21
5858.59
5657.99
5454.05
5247.08
5036.84
4824.23
4613.49
4413.76
4237.65
4095.94
3991.11
3913.7
3836.66
3747
3638.38
3525.87
3448.49
3443.15
3519.28
3651.28
3765.07
3743.42
3621.53
3595.77
3880.42
4580.71
5722.55
7358.17
9358.26
11232
13075.2
14808.4
16370.7
17726.2
18858.8
19768.3
20462.6
20954
21258.2
21389.2
21359.7
21183.7
20872.4
20433.8
19874.7
19246.8
18587.1
17894.6
17170.5
16416.2
15632.7
14820.7
13980.8
13113.6
12220.6
11304.7
10370.5
9424.72
8476.5
7536.82
6619.67
5743.24
4926.45
4188.99
3550.09
3028.73
2642.71
2408.5
2339.32
2446
2703.61
3061.07
3515.11
4043.01
4621.07
5227.5
5841.29
6449.88
7040.5
7600.62
8121.14
8594.64
9011.82
9346.25
9543.66
9614.8
9567.19
9408.72
9158.05
8853.87
8551.28
8293.91
8071.9
7800.98
7355.74
6673.44
5865.52
5213.2
4974.09
5181.36
5651.63
6114.65
6468.79
6643.13
6594.53
6314.84
5832.77
5197.18
4540.96
3957.45
3524.5
3318.8
3404.18
3830.95
4512.5
5396.39
6446.56
7599.84
8787.05
9954.39
11064.3
12092.2
13022.9
13846.6
14554.3
15136.1
15584.5
15889.4
16001.8
15939.5
15704.3
15320.3
14653.8
2123.58
1970.85
1909.98
1866.56
1828.18
1789.74
1749.93
1709.5
1669.57
1630.88
1593.76
1558.33
1524.72
1493.03
1463.36
1435.77
1410.32
1387
1366.08
1349.13
1336.7
1328.05
1322.57
1319.89
1319.84
1322.35
1327.41
1335.11
1345.83
1362.13
1398.26
1458.1
1538.1
1632.5
1736.55
1846.39
1958.69
2070.61
2179.69
2283.76
2380.9
2469.2
2546.59
2610.65
2658.83
2688.86
2699.33
2690.4
2664.31
2624.27
2572.53
2510.16
2436.72
2350.47
2249.81
2135.74
2014.44
1898.51
1804.26
1748.11
1717.27
1699.29
1683.97
1674.9
1692.2
1757.85
1890.31
2180.05
2740.97
3539.21
4540.97
5726.95
6984.01
7940.69
8707.4
9260.02
9571.03
9652.52
9516.81
9188.72
8703.16
8100.34
7410.3
6665.17
5911.23
5187.08
4524.43
3949.92
3482.07
3130.32
2897.24
2779.51
2712.27
2650.65
2593.09
2538.61
2486.63
2436.86
2389.23
2343.83
2300.88
2260.65
2223.52
2189.9
2160.53
2137.03
2123.13
2116.75
2109.85
2101.34
2090.15
2074.98
2054.87
2029.25
1997.5
1958.55
1911.39
1864.44
1817.88
1773.37
1734.35
1705.12
1696.71
1726.33
1779.96
1849.12
1934.27
2038.52
2166.73
2327.33
2540.89
2832.19
3137.47
3404.67
3597.08
3685.34
3657.08
3533.47
3380.33
3288.48
3318.45
3470.48
3660.09
3798.5
3855.28
3832.57
3716.69
3502.04
3230.6
2920.45
2610.07
2328.05
2112.24
1995.96
2000.23
2039.47
2082.66
2124.67
2161.62
2191.54
2220.12
2261.54
2346.43
2471.84
2624.74
2813.63
3040.54
3303.89
3601.29
3930.34
4288.53
4674.96
5085.95
5510.46
5929.33
6322.59
6659.15
6918.64
7098.1
7159.51
3122.22
2557.74
2272.52
2069.52
1910.97
1781.58
1672.65
1579.34
1498.92
1429.46
1369.16
1316.59
1270.76
1230.88
1196.28
1166.41
1140.74
1118.76
1099.97
1083.9
1070.09
1058.07
1047.45
1037.88
1029.09
1020.86
1013.01
1005.44
998.109
991.029
984.349
978.29
973.473
972.766
977.813
989.398
1007.81
1033.25
1065.74
1105.21
1151.22
1202.81
1258.56
1316.65
1374.96
1431.2
1483.2
1529.23
1567.97
1598.16
1618.42
1627.25
1623
1603.9
1568.68
1517.49
1452.86
1380.28
1307.73
1246.74
1210.27
1205.29
1242.9
1346.88
1557.32
1929.67
2523.7
3263.63
4111.98
5104.26
6077.73
6758.41
7209.27
7405.16
7380.62
7156.28
6764.81
6247.02
5647.28
5012.48
4383.75
3798.06
3285.54
2866.55
2549.55
2331.1
2194.35
2119.57
2088.27
2084.29
2095.02
2106.63
2114.95
2119.88
2121.61
2120.52
2117.11
2112.02
2105.93
2099.54
2093.54
2088.53
2085
2083.27
2083.48
2085.51
2089.06
2093.42
2097.44
2099.88
2099.39
2094.49
2083.52
2064.48
2034.82
1991.28
1937.31
1880.82
1819.09
1754
1687.85
1622.13
1558.46
1499.08
1445.53
1398.46
1358.58
1327.02
1305.64
1297.77
1309.79
1355.47
1463.42
1626.92
1820.58
2010.42
2162.47
2258.64
2318.3
2401.23
2570.04
2838.53
3147.06
3377.68
3416.19
3233.65
2900.44
2553.6
2268.36
2047.59
1904.18
1834.69
1824.63
1852.22
1896.82
1947.37
1997.79
2041.04
2068.33
2070.78
2049.1
2011.36
1962.59
1908.68
1856.16
1810.58
1775.43
1753.1
1745.59
1755.83
1789.54
1851.64
1947.35
2086.38
2291.7
2598.2
2979.07
3406.91
3849.33
4252.1
4099.19
2948.95
2388.16
2027.62
1776.12
1591.77
1451.14
1340.64
1252.17
1180.5
1122.23
1075
1037.08
1007.18
984.295
967.524
956.007
948.942
945.525
944.976
946.563
949.62
953.55
957.836
962.041
965.804
968.84
970.927
971.899
971.623
970.018
967.065
962.812
957.38
950.917
943.67
936.435
930.096
926.14
925.415
928.496
935.9
948.039
965.127
987.097
1013.55
1043.79
1076.83
1111.44
1146.09
1178.94
1207.81
1230.25
1243.79
1246.39
1237.14
1217.02
1189.62
1161.28
1140.8
1140.85
1182.18
1305.72
1578.28
2083.01
2823.2
3640.74
4454.51
5230.82
5802.8
6183.23
6335.03
6275.78
6033.56
5649.89
5166.5
4628.24
4079.93
3563.11
3111.52
2746.34
2475.68
2295.06
2190.44
2142.75
2132.58
2143.4
2163.43
2185.21
2204.55
2218.43
2227.48
2231.81
2231.6
2227.05
2218.51
2206.48
2191.58
2174.62
2156.55
2138.41
2121.18
2105.76
2092.82
2082.73
2075.53
2070.89
2068.17
2066.41
2064.32
2060.41
2053.28
2041.3
2022.49
1994.64
1955.65
1911.09
1859.73
1801.83
1739.25
1673.99
1607.68
1541.85
1478.23
1418.42
1363.2
1312.91
1267.97
1229.06
1197.2
1174.08
1162.89
1170.6
1211.35
1290.28
1403.04
1536.57
1678.59
1833.37
2028.71
2296.26
2631.9
2965.13
3163.12
3106.96
2812.52
2430.18
2117.87
1919.04
1799.09
1741.75
1728.1
1741.9
1772.47
1813.9
1862.22
1912.19
1956.78
1986.31
1990.31
1968.18
1924.35
1864.02
1794.99
1724.89
1658.82
1599.69
1548.9
1506.86
1473.55
1449.16
1434.09
1429.57
1439.07
1472.75
1562.91
1732.77
1996.25
2353.29
2776.49
4990.8
3118.72
2283.24
1818.27
1534.86
1347.95
1216.24
1119.09
1045.68
989.918
947.97
917.182
895.716
882.362
876.231
876.352
881.755
891.573
904.973
921.141
939.305
958.751
978.822
998.923
1018.52
1037.14
1054.39
1069.89
1083.35
1094.48
1103.01
1108.69
1111.3
1110.65
1106.59
1099.07
1088.12
1073.86
1055.83
1034.41
1011.54
990.031
971.119
955.896
945.27
939.908
940.197
946.218
957.712
974.051
994.204
1016.71
1039.7
1061.09
1078.89
1091.9
1100.45
1107.36
1118.51
1143.65
1201.02
1329.25
1605.5
2125.88
2893.49
3759.73
4544.12
5082.91
5431.6
5612.21
5613.24
5443.64
5135.57
4729.61
4268.37
3793.08
3342.44
2948.96
2634.66
2408.03
2264.33
2189.43
2164.73
2171.74
2195.18
2224.17
2252.07
2275.43
2292.9
2304.33
2312.02
2316.62
2318.03
2315.99
2310.24
2300.55
2287.03
2270.03
2250.13
2228.11
2204.99
2181.85
2159.81
2139.77
2122.32
2107.62
2095.37
2084.89
2075.24
2065.17
2052.98
2037.26
2017.13
1990.48
1956.76
1917.98
1874.79
1826.1
1771.79
1712.09
1647.89
1580.92
1513.58
1448.39
1387.56
1332.39
1282.89
1238.58
1199.15
1164.7
1135.86
1113.89
1101.28
1103.27
1128.44
1183.23
1271.54
1397.07
1571.05
1814.06
2138.65
2515.84
2850.69
3000.74
2870.96
2531.5
2171.03
1917.18
1778.2
1705.62
1673.22
1666.85
1678.82
1704.86
1741.92
1786.88
1835.61
1881.61
1915.11
1925.28
1908.87
1867.7
1806.7
1734.09
1658.25
1585.42
1519.32
1461.65
1412.65
1371.79
1338.35
1311.63
1291.13
1277.02
1270.99
1280.62
1328.2
1436.66
1630.17
1922.42
5679.93
3065.78
2024.05
1546.33
1296.47
1145.95
1045.18
973.967
923.098
887.462
863.57
848.991
842.461
843.209
850.323
862.834
880.095
901.492
926.303
953.775
983.208
1013.97
1045.49
1077.2
1108.59
1139.17
1168.49
1196.16
1221.81
1245.14
1265.97
1283.85
1298.43
1309.39
1316.15
1318.17
1314.94
1305.97
1290.9
1269.44
1240.73
1203.61
1161.93
1120.5
1081.3
1045.99
1016
992.43
976.024
967.098
965.522
970.725
981.724
997.251
1016.02
1037.28
1061.58
1091.91
1134.99
1204.56
1331.45
1582.14
2053.88
2795.06
3684.08
4456.16
4874.37
5081.57
5144.85
5066.28
4855.94
4541.3
4158.51
3745.43
3338.06
2968.43
2661.5
2431.33
2279.29
2195.67
2164.05
2166.27
2186.23
2211.95
2236.05
2255.06
2268.31
2276.72
2281.81
2286.06
2290.52
2294.73
2297.96
2299.46
2298.49
2294.43
2287.05
2276.39
2262.78
2246.76
2229.14
2210.87
2192.92
2176.08
2160.84
2147.2
2134.64
2122.18
2108.48
2092.63
2072.63
2046.82
2016.45
1977.36
1935.74
1889.95
1840.79
1788.94
1734.49
1676.9
1615.37
1549.72
1481.1
1412.19
1346.6
1287.71
1236.96
1194.04
1157.83
1127.22
1101.58
1081.05
1066.67
1060.95
1069.15
1098.84
1159.41
1263.41
1429.99
1682.36
2027.67
2421.87
2749.55
2862.77
2694.25
2352.53
2030.62
1823.95
1712.36
1656.25
1628.6
1620.18
1627.28
1647.46
1678.52
1717.92
1762.97
1808.13
1844.29
1860.13
1851.06
1815.63
1757.4
1684.33
1605.58
1528.66
1458.42
1397.2
1345.51
1302.77
1267.94
1239.87
1217.54
1200.27
1188.01
1182.14
1189.83
1224.26
1307.22
1466.61
6066.32
2848.75
1718.02
1319.87
1138.91
1032.5
961.053
911.529
878.03
856.738
844.836
840.558
843.083
851.513
865.116
883.416
906.138
932.597
961.949
993.546
1026.95
1061.88
1098.11
1135.42
1173.59
1212.51
1252.05
1292.08
1332.48
1373.05
1414.06
1453.52
1489.94
1522.74
1549.93
1570.1
1582.39
1586.16
1580.99
1566.74
1543.54
1511.67
1468.97
1413.93
1356.13
1297.44
1240.29
1187.14
1140.16
1101
1070.8
1050.17
1039.27
1037.91
1045.82
1063.2
1091.54
1134.97
1202.9
1316.78
1525.86
1919.73
2583.36
3460.49
4268.26
4660.34
4792.13
4785.66
4665.53
4444.53
4144.64
3795.81
3429.85
3077.27
2764.8
2512.3
2329.5
2214.77
2157.1
2140.3
2147.48
2164.47
2181.52
2193.66
2199.85
2201.69
2201.88
2202.99
2206.57
2213.49
2222.17
2231.57
2240.64
2248.4
2254
2256.82
2256.49
2253.07
2246.91
2238.62
2229
2218.89
2209.01
2199.76
2191.15
2182.65
2173.27
2161.48
2144.9
2123.68
2096.05
2059.18
2018.16
1971.54
1920.31
1865.68
1808.98
1751.45
1693.85
1636.05
1576.9
1514.82
1448.78
1379.47
1309.87
1244.59
1187.69
1141.02
1104.46
1076.72
1056.18
1041.64
1032.73
1030.39
1037.64
1060.78
1109.85
1200.09
1353.96
1597.83
1940.33
2333.07
2650.23
2743.08
2565.19
2242.39
1955.37
1776.4
1678.7
1624.28
1595.73
1584.66
1587.17
1601.16
1625.11
1657.46
1696.78
1739.14
1774.29
1794.84
1792.69
1763.71
1709.9
1638.55
1559.12
1480.14
1407.49
1344.24
1291.28
1248.1
1213.43
1185.89
1164.18
1147.28
1134.57
1126.1
1123.66
1133.46
1165.95
1242.2
6073.99
2534.77
1468.95
1197
1074.54
995.851
940.853
903.604
879.573
865.621
859.744
860.713
867.674
879.589
895.817
916.332
940.845
968.569
999.007
1032.11
1068.05
1107.1
1149.54
1195.66
1245.68
1299.67
1357.41
1418.4
1481.79
1546.62
1614.41
1679.78
1737.24
1789.37
1832.32
1864.26
1885.62
1896.15
1895.89
1885.26
1864.84
1835.17
1796.83
1749.47
1686.15
1617.02
1543.88
1469.61
1397.34
1330.07
1270.46
1220.73
1182.57
1157.33
1146.22
1150.98
1174.73
1223.8
1312.23
1473.04
1776.35
2320.82
3129.53
3990.51
4450.31
4561.19
4517.89
4376.35
4156.6
3877.14
3561.25
3234.8
2923.15
2648.91
2428.91
2271.09
2173.35
2125.25
2111.73
2117.25
2128.96
2138.47
2142.24
2140.68
2136.61
2133.49
2134.07
2139.72
2150.41
2164
2178.99
2194.38
2209.21
2222.63
2233.85
2242.27
2247.55
2249.81
2249.56
2247.6
2244.86
2242.15
2239.9
2237.99
2235.56
2231.17
2223.12
2209.68
2187.07
2156.39
2117.78
2071.26
2018.05
1959.68
1897.82
1834.13
1770.15
1707.28
1646.46
1587.9
1530.69
1472.91
1412.3
1347.39
1278.88
1210.31
1146.87
1092.89
1050.72
1020.68
1001.68
991.993
990.108
995.46
1009.09
1035.64
1083.81
1168.33
1311.62
1540.89
1867.64
2246.32
2551.52
2638.53
2472.12
2177.75
1917.58
1752.29
1658.31
1603.28
1571.66
1556.51
1554.35
1562.91
1580.62
1606.46
1639.37
1676.37
1711.58
1735.84
1739.34
1716.05
1666.41
1597.05
1517.66
1437.51
1363.34
1298.9
1245.41
1202.48
1168.77
1142.69
1122.72
1107.59
1096.3
1088.32
1083.8
1085.59
1098.29
1133.55
5661.46
2137.38
1345.78
1168.51
1070.08
1002.37
955.254
923.042
902.212
890.804
887.529
891.236
900.943
915.866
935.451
959.479
987.888
1020.64
1057.84
1099.81
1146.96
1199.71
1258.3
1322.72
1392.62
1467.26
1545.44
1625.57
1705.76
1784.02
1858.39
1927.13
1989.08
2044.22
2090.43
2121.04
2140.67
2149.39
2147.39
2135.37
2114.09
2083.96
2045.32
1998.6
1943.36
1872.18
1795.16
1713.82
1630.93
1549.61
1473.03
1404.29
1346.32
1301.95
1274.14
1266.57
1284.75
1338.49
1449.1
1665.1
2074.11
2753.02
3610.75
4219.06
4371.15
4320.06
4169.39
3954.97
3695.23
3408.1
3113.56
2832.25
2583.4
2382.04
2235.89
2143.89
2097.22
2082.52
2085.48
2094.03
2100.23
2100.88
2096.81
2091.28
2087.99
2089.63
2097.06
2109.58
2125.86
2143.62
2162.1
2180.72
2198.94
2216.17
2231.71
2244.87
2255.18
2262.67
2267.9
2271.8
2275.32
2279.16
2283.54
2287.7
2289.68
2287.07
2276.74
2257.24
2226.79
2185.29
2133.37
2072.68
2005.39
1933.97
1860.75
1787.82
1716.9
1649.39
1586.25
1527.73
1473.08
1420.35
1366.72
1309.42
1247.04
1180.85
1115.12
1055.18
1005.57
969.082
946.538
937.192
939.5
951.628
973.716
1008.22
1061.71
1146.85
1284.05
1498.94
1804.6
2161.91
2454.35
2545.82
2404.23
2142.38
1903.05
1743.2
1647.6
1589.69
1554.54
1535.34
1528.12
1530.43
1541.67
1561.48
1589.43
1623.71
1658.88
1685.89
1694.09
1675.76
1629.74
1561.92
1482.24
1400.82
1325.24
1259.84
1206.16
1163.83
1131.52
1107.51
1090.06
1077.64
1068.94
1062.94
1059.09
1058.39
1063.23
1079.53
4874.44
1861.56
1335.77
1185.36
1091.67
1026.11
979.722
948.036
928.339
919.096
919.145
927.167
942.017
962.982
989.675
1021.97
1059.93
1103.68
1153.42
1209.38
1271.69
1340.3
1414.88
1494.7
1578.65
1665.21
1752.55
1838.67
1921.54
1999.27
2070.26
2133.26
2187.38
2232.11
2267.24
2292.8
2309
2316.01
2313.79
2302.27
2282.53
2254.94
2219.26
2175.48
2123.58
2062.48
1983.11
1898.68
1810.97
1723.04
1638.09
1559.43
1490.52
1435.09
1397.41
1382.95
1399.85
1463.02
1604.75
1890.48
2409.02
3170.74
3911.03
4189.25
4168.83
4021.92
3814.14
3571.14
3307.99
3039.42
2781.39
2549.98
2358.91
2216.45
2123.38
2073.29
2054.88
2055.2
2062.59
2068.85
2070.17
2066.87
2061.98
2059.28
2061.5
2069.5
2082.43
2098.54
2116.16
2134.25
2152.74
2171.68
2191.05
2210.57
2229.61
2247.29
2262.82
2275.81
2286.71
2296.43
2305.96
2315.59
2325.21
2333.38
2336.67
2332
2316.75
2288.52
2246.66
2191.63
2125.12
2049.81
1968.81
1885.25
1801.94
1721.18
1644.73
1573.91
1509.61
1452.12
1400.84
1353.95
1308.42
1260.71
1207.88
1149.09
1086.63
1025.24
970.371
926.789
897.627
884.14
885.961
901.316
929.877
972.561
1033.78
1123.54
1259.09
1462.79
1747.22
2080.37
2359.74
2461.6
2352.35
2125.12
1903.64
1745.28
1645.04
1582.27
1542.6
1518.45
1505.56
1502.26
1508.59
1524.21
1548.94
1581.2
1616.18
1645.17
1657.16
1643.08
1600.2
1533.51
1453.15
1370.09
1292.84
1226.37
1172.5
1130.95
1100.35
1078.9
1064.69
1055.86
1050.75
1047.93
1046.27
1045.54
1047.23
1054.42
3997.32
1679.15
1355.18
1214.01
1118.5
1050.55
1002.45
970.989
953.739
948.741
954.22
968.456
990.29
1019.06
1054.38
1096.07
1144.12
1198.56
1259.47
1326.8
1400.3
1479.41
1563.17
1650.22
1738.86
1827.23
1913.45
1995.8
2072.79
2143.24
2206.25
2261.17
2307.6
2345.4
2374.62
2395.52
2408.46
2413.85
2412.01
2403.1
2387.15
2363.98
2333.26
2294.56
2247.45
2191.29
2125.64
2035.37
1945.31
1854.92
1765.98
1681.94
1607.04
1545.93
1504.02
1488.56
1511.19
1594.52
1784.32
2154.87
2763.26
3511.24
3966.92
4034.02
3914.08
3716.95
3487.42
3243.48
2996.22
2757.08
2538.74
2353.44
2210.05
2111.54
2054.31
2029.61
2026.18
2032.88
2040.94
2045.32
2045.01
2042.17
2040.41
2042.83
2050.66
2063.1
2078.21
2094.14
2109.82
2125.39
2141.53
2158.88
2177.9
2198.67
2220.64
2242.75
2263.73
2282.41
2298.97
2314.18
2329.23
2343.66
2356.4
2365.06
2365.96
2355.35
2330.18
2289.08
2232.51
2162.07
2080.65
1991.77
1899.14
1806.21
1715.86
1630.3
1551.11
1479.37
1415.77
1360.61
1313.48
1272.84
1235.85
1198.66
1157.35
1109.38
1054.96
997.308
941.521
893.247
857.415
837.427
834.419
848.793
880.07
928.47
996.774
1092.45
1229.31
1425.59
1691.71
2001.48
2268.22
2382.91
2309.16
2118.14
1914.55
1756.59
1649.96
1580.55
1535.1
1505.46
1487.29
1479.4
1482.27
1495.32
1518.04
1548.81
1583.39
1613.63
1628.42
1617.65
1577.15
1511.03
1429.52
1344.43
1265.23
1197.49
1143.37
1102.75
1074.29
1056.06
1045.9
1041.65
1041.25
1042.8
1044.65
1045.68
1046.38
1048.83
3155.78
1619.98
1388.46
1244.23
1141.93
1069.7
1021.04
991.84
978.554
978.505
989.383
1009.33
1037.28
1072.58
1114.85
1163.93
1219.76
1282.27
1351.2
1426.01
1505.82
1589.4
1675.25
1761.8
1847.53
1931.08
2011.33
2087.32
2158.23
2223.29
2281.81
2333.2
2377.05
2413.16
2441.57
2462.51
2476.26
2483.12
2483.18
2476.36
2462.36
2440.71
2410.89
2372.43
2324.93
2268.11
2201.69
2125.42
2037.83
1949.55
1863.95
1779.39
1701.75
1640
1600.44
1592.07
1632.39
1753.97
2011.06
2463.76
3104.94
3665.4
3874.36
3822
3649.8
3433.69
3204.57
2974.43
2751.16
2543.76
2362.36
2215.92
2109.35
2041.98
2008.02
1998.35
2002.86
2012.54
2021.02
2025.39
2026.2
2026.33
2029.24
2036.98
2049.29
2064
2078.56
2091.52
2103.05
2114.34
2126.78
2141.51
2159.34
2180.65
2204.96
2231.04
2257.52
2282
2304.23
2324.82
2344.11
2361.52
2374.88
2380.48
2373.99
2351.68
2311.44
2253.29
2179
2091.91
1996.01
1895.48
1794.16
1695.37
1601.67
1514.89
1436.23
1366.4
1305.84
1254.7
1212.69
1178.63
1150.09
1123.37
1094.16
1058.76
1015.57
966.012
913.994
864.977
824.766
798.388
789.04
798.918
828.695
878.879
951.448
1051.9
1190.9
1382.6
1634.43
1924.09
2179.59
2307.4
2269.22
2115.44
1932.04
1776.2
1663.09
1585.79
1533.43
1497.94
1474.9
1463.29
1463.84
1475.41
1496.87
1526.54
1560.59
1591.41
1607.95
1599.34
1560.11
1493.57
1410.17
1322.5
1240.92
1171.71
1117.46
1078.24
1052.66
1038.6
1033.58
1035.07
1040.56
1047.66
1054.19
1058.43
1059.69
1059.67
2455.39
1607.83
1424.22
1270.9
1160.99
1086.21
1038.47
1012.03
1002.18
1005.8
1020.52
1044.62
1077.13
1117.44
1165.14
1219.9
1281.32
1348.8
1421.5
1498.35
1578.19
1659.81
1742.14
1824.3
1905.56
1985.32
2062.97
2137.77
2208.88
2275.3
2336.05
2390.28
2437.38
2477.06
2509.37
2534.59
2553.11
2565.23
2571.05
2570.32
2562.48
2546.68
2521.94
2487.36
2442.27
2386.49
2320.44
2245.21
2162.34
2073.82
1982.59
1897.24
1824.03
1765.9
1730.65
1736.01
1809.57
1987.5
2314.08
2802.44
3320.26
3652.03
3712.54
3595.92
3402.73
3186.96
2969.92
2759.53
2561.73
2383.91
2234.13
2118.5
2039.01
1992.86
1973.54
1972.6
1981.5
1993.1
2002.74
2008.75
2012.35
2016.68
2024.87
2038.06
2054.33
2069.77
2081.41
2089.21
2095.25
2101.43
2109.64
2121.45
2137.88
2159.49
2185.78
2215.29
2245.97
2275.96
2304.18
2330.15
2353.26
2371.7
2381.94
2379.28
2359.26
2319.11
2258.55
2179.66
2086.22
1982.84
1874.25
1764.83
1658.19
1557.11
1463.56
1378.8
1303.53
1238.11
1182.67
1137.2
1101.37
1074.28
1053.93
1037.07
1019.46
996.89
966.472
927.863
883.491
837.869
796.744
765.923
750.346
754.015
779.194
827.344
900.459
1002.89
1142.85
1331.12
1572.24
1846.19
2092.92
2233.26
2228.77
2112.33
1952.34
1802.5
1684.84
1599.7
1539.85
1498.21
1470.45
1455.54
1454.18
1464.62
1485.16
1513.97
1547.44
1578.4
1595.8
1588.01
1548.52
1480.13
1393.64
1302.52
1218.08
1147.44
1093.61
1056.73
1035.19
1026.57
1027.98
1036.39
1048.79
1062.3
1074.35
1082.82
1086.01
1085.16
1972.82
1602.45
1454.05
1294.97
1179.89
1103.72
1056.82
1032.16
1024.38
1030.15
1047.28
1074.11
1109.55
1152.86
1203.34
1260.29
1322.92
1390.35
1461.67
1536.02
1612.68
1691.1
1770.91
1851.87
1933.68
2015.96
2098.03
2178.95
2257.48
2332.24
2401.81
2465.02
2521.03
2569.47
2610.47
2644.55
2672.43
2694.84
2712.28
2724.88
2732.3
2733.71
2727.91
2713.45
2688.78
2652.48
2603.44
2541.1
2465.71
2378.64
2282.88
2183.81
2089.73
2016.29
1983.49
2008.55
2108.22
2311.42
2632.99
3030.43
3381.8
3554.82
3530.78
3384.83
3189.33
2983.55
2782.7
2592.49
2417.95
2265.39
2140.99
2048.26
1987.86
1956.28
1946.05
1949.85
1960.89
1973.76
1985.06
1993.81
2001.36
2010.59
2024.07
2041.78
2060.23
2074.51
2082.3
2085.04
2085.99
2087.52
2091.64
2100.28
2115.06
2136.71
2164.89
2198.04
2233.77
2269.6
2303.54
2334.01
2358.95
2374.86
2376.76
2359.45
2319.37
2255.88
2171.33
2070.27
1958.22
1840.72
1722.62
1607.82
1499.36
1399.26
1308.75
1228.5
1158.78
1099.6
1050.82
1012.21
983.389
963.547
951.058
943.178
936.086
925.52
907.915
881.563
847.358
808.542
770.094
737.783
717.686
715.103
733.923
776.982
846.952
947.812
1086.19
1270.38
1502.92
1765.36
2006.51
2158.95
2185.39
2105.31
1971.68
1832.69
1714.23
1622.98
1556.04
1508.3
1475.95
1457.86
1454.59
1463.72
1483.08
1510.75
1543.42
1574.13
1591.52
1583.01
1541.34
1469.24
1378.14
1282.68
1195.27
1123.72
1071.3
1038.05
1022.02
1020.27
1029.37
1045.67
1065.6
1085.86
1103.62
1116.65
1122.93
1122.42
1773.06
1592.47
1473.56
1319.42
1203.41
1125.65
1078.34
1053.81
1046.34
1052.51
1070.09
1097.28
1132.74
1175.57
1224.91
1279.99
1340.06
1404.5
1472.79
1544.58
1619.71
1698.13
1779.87
1864.97
1953.34
2044.54
2137.76
2231.76
2324.94
2415.43
2501.31
2580.93
2653.03
2717.03
2773
2821.66
2864.17
2901.89
2936.06
2967.54
2996.61
3022.84
3045.03
3061.26
3068.96
3065.15
3046.63
3010.47
2954.53
2878.24
2783.59
2676.14
2565.71
2466.78
2398.11
2386.28
2465.46
2631.03
2874.32
3147.58
3360.48
3433.45
3364.79
3209.3
3019.86
2826.34
2640.09
2462.65
2308.71
2178.29
2075.15
2000.76
1953.73
1930.31
1924.22
1929.47
1940.83
1954.25
1967.27
1979.18
1991
2004.77
2021.87
2041.3
2059.35
2071.98
2077.19
2076.39
2073.38
2071.1
2072.11
2078.72
2092.82
2115.43
2146.3
2183.7
2224.77
2266.27
2305.14
2338.25
2361.6
2369.72
2356.56
2317.55
2251.5
2161
2051.48
1929.59
1801.9
1674.05
1550.36
1433.94
1326.93
1230.51
1145.27
1071.37
1008.71
957
915.843
884.812
863.397
850.819
845.707
845.784
847.767
847.712
841.869
827.712
804.779
774.973
742.172
711.493
689.297
681.641
693.762
729.901
793.759
889.556
1023.12
1201.22
1425.46
1679.27
1918
2082.76
2137.52
2092.01
1986.63
1863.22
1748.81
1654.76
1582.47
1529.44
1492.91
1471.82
1466.24
1473.33
1490.78
1516.84
1548.42
1578.38
1594.57
1583.43
1537.26
1459.28
1362.15
1261.82
1171.74
1100.18
1050.51
1022.45
1013.52
1020.09
1037.98
1062.82
1090.41
1117.09
1139.94
1156.93
1166.31
1167.04
2041.59
1575.25
1460.87
1330.68
1228.03
1155.08
1108.94
1084.15
1075.87
1080.86
1096.73
1121.56
1154.08
1193.41
1238.82
1289.73
1345.74
1406.6
1472.26
1542.81
1618.51
1699.71
1786.77
1879.9
1979.04
2083.82
2193.45
2306.71
2422.02
2536.98
2648.87
2755.33
2854.44
2944.97
3026.57
3099.78
3165.95
3226.88
3284.54
3340.61
3396.17
3451.37
3505.25
3555.63
3599.1
3631.09
3646.14
3638.37
3602.29
3534.06
3433.23
3304.56
3159.43
3015.93
2896.78
2825.23
2819.18
2905.36
3050.06
3209.36
3320.06
3329.71
3236.81
3078.74
2887.36
2704.23
2531.74
2371.18
2233.61
2120.27
2032.64
1970.47
1931.43
1911.79
1906.61
1911.21
1921.62
1934.87
1949.07
1963.53
1978.69
1995.42
2013.94
2032.73
2048.83
2059.31
2062.64
2060.28
2055.49
2051.48
2051.29
2057.69
2072.89
2098.13
2133.08
2175.7
2222.49
2269.22
2311.35
2343.75
2360.05
2353.08
2316.97
2249.61
2153.62
2035.37
1902.9
1764.05
1625.38
1491.81
1366.68
1252.17
1149.42
1058.92
980.712
914.603
860.151
816.759
783.792
760.62
746.601
740.945
742.465
749.29
758.695
767.25
771.382
768.235
756.43
736.582
711.349
684.83
662.98
652.047
658.069
686.445
742.001
829.589
954.869
1123.85
1338.18
1584.04
1822.62
2000.82
2082.72
2070.52
1994.7
1890.99
1785.79
1693.29
1618.58
1561.93
1522.05
1497.96
1489.11
1493.01
1507.75
1531.92
1562.39
1591.17
1604.72
1588.52
1535.06
1448.89
1344.42
1238.99
1146.87
1076.64
1031.44
1010.42
1010.31
1026.6
1054.16
1087.76
1122.54
1154.52
1180.96
1200.29
1211.56
1213.55
2551.94
1556.84
1430.3
1323.49
1242.06
1185.5
1150.63
1133.51
1130.4
1138.31
1155.03
1179.08
1209.46
1245.44
1286.53
1332.51
1383.39
1439.4
1500.97
1568.67
1643.23
1725.52
1816.45
1916.88
2027.45
2148.34
2279.09
2418.35
2563.75
2712.94
2863.19
3011.44
3154.9
3291.46
3420.03
3539.65
3650.82
3755.2
3854.95
3952.15
4048.38
4144.22
4238.93
4330.24
4414.25
4485.42
4536.61
4559.27
4544.06
4482.1
4367.02
4198.1
3983.72
3744.22
3511.46
3322.1
3204.75
3168.22
3218.44
3288.03
3326.45
3292.97
3170.24
3005.86
2819.67
2641.18
2475.96
2325.89
2197.96
2094.11
2014.61
1958.19
1922.11
1902.83
1896.34
1898.93
1907.48
1919.64
1933.84
1949.27
1965.76
1983.27
2001.23
2018.03
2031.37
2039.18
2040.5
2037.28
2032.26
2028.66
2029.75
2038.57
2057.58
2088.02
2129.29
2178.68
2231.65
2282.49
2324.58
2350.12
2350.45
2318.05
2249.6
2147.62
2019.55
1875.09
1723.65
1572.93
1428.49
1294
1171.67
1062.56
967.003
884.875
815.8
759.249
714.436
680.392
656.249
641.203
634.504
635.357
642.735
655.131
670.374
685.639
697.78
703.949
702.285
692.423
675.709
655.287
636.341
624.715
626.67
648.334
695.45
773.581
888.562
1046.17
1248.65
1485.58
1724.18
1915.81
2023.19
2041.78
1994.41
1911.92
1819.44
1732.58
1658.93
1601.1
1559.27
1532.8
1520.73
1521.19
1533.19
1555.85
1585.51
1612.48
1621.31
1596.81
1532.73
1435.92
1322.97
1212.64
1119.76
1052.81
1014.36
1002.64
1013.29
1040.64
1078.42
1120.42
1161.15
1196.5
1224.15
1243.41
1254.45
1256.63
3128.63
1544.8
1394.64
1308.63
1248.09
1210.97
1193.93
1193.18
1204.91
1225.85
1253.53
1286.31
1323.05
1362.93
1405.49
1450.66
1498.75
1550.37
1606.37
1667.79
1735.84
1811.96
1897.69
1994.71
2104.62
2228.89
2368.53
2523.91
2694.45
2878.48
3073.21
3274.78
3478.69
3680.36
3875.78
4063.18
4241.76
4412
4575.7
4736.27
4893.94
5046.55
5193.02
5331.1
5457.34
5567.08
5654.06
5710.12
5725.03
5686.92
5583.37
5403.61
5142.48
4807.17
4425.93
4051.6
3746.09
3546.53
3453.43
3436.36
3406.93
3316.37
3171.49
2997.46
2810.26
2630.33
2465.65
2319.07
2194.63
2093.96
2016.75
1961.21
1924.5
1903.28
1894.08
1893.78
1899.76
1910.01
1923.07
1937.99
1954.11
1970.79
1987
2001.21
2011.61
2016.81
2016.69
2013.45
2009.69
2008.53
2013.3
2027.16