/*--------------------------------*- C++ -*----------------------------------*\
| =========                 |                                                 |
| \\      /  F ield         | OpenFOAM: The Open Source CFD Toolbox           |
|  \\    /   O peration     | Version:  2112                                  |
|   \\  /    A nd           | Website:  www.openfoam.com                      |
|    \\/     M anipulation  |                                                 |
\*---------------------------------------------------------------------------*/
FoamFile
{
    version     2.0;
    format      ascii;
    arch        "LSB;label=32;scalar=64";
    class       volVectorField;
    location    "0.03";
    object      U;
}
// * * * * * * * * * * * * * * * * * * * * * * * * * * * * * * * * * * * * * //

dimensions      [0 1 -1 0 0 0 0];

internalField   nonuniform List<vector> 
12225
(
(9.88058 0.0460269 0)
(9.47086 0.105046 0)
(8.93922 0.130925 0)
(8.39234 0.125301 0)
(7.88538 0.109461 0)
(7.42735 0.0923625 0)
(7.02444 0.0757555 0)
(6.67339 0.0614306 0)
(6.37001 0.0494742 0)
(6.1068 0.0397173 0)
(5.88148 0.0317035 0)
(5.68431 0.025201 0)
(5.51902 0.0200254 0)
(5.36668 0.0156458 0)
(5.2506 0.0124921 0)
(5.12023 0.00963652 0)
(5.05502 0.00703471 0)
(4.91126 0.00837605 0)
(10.0181 0.0532537 0)
(10.0634 0.0975012 0)
(10.0768 0.117639 0)
(10.0458 0.127526 0)
(9.98002 0.130611 0)
(9.88616 0.128847 0)
(9.77684 0.124155 0)
(9.6577 0.117866 0)
(9.53646 0.110943 0)
(9.41472 0.103742 0)
(9.2979 0.0969265 0)
(9.18324 0.0899221 0)
(9.07746 0.0842157 0)
(8.9718 0.0776626 0)
(8.88002 0.0737611 0)
(8.78046 0.0673801 0)
(8.7057 0.0656636 0)
(8.6062 0.0607096 0)
(10.013 0.0479661 0)
(10.0508 0.0917392 0)
(10.0816 0.114099 0)
(10.1061 0.128186 0)
(10.1233 0.134187 0)
(10.1331 0.135115 0)
(10.1355 0.132251 0)
(10.131 0.127409 0)
(10.1213 0.121528 0)
(10.1065 0.11526 0)
(10.0893 0.109026 0)
(10.0682 0.102835 0)
(10.0466 0.0974248 0)
(10.0212 0.0919271 0)
(9.99789 0.0878014 0)
(9.96866 0.0834472 0)
(9.94588 0.0805701 0)
(9.91206 0.0789297 0)
(10.0079 0.0421252 0)
(10.0426 0.0852386 0)
(10.0732 0.108791 0)
(10.0984 0.121836 0)
(10.1193 0.127164 0)
(10.1358 0.128367 0)
(10.1482 0.126562 0)
(10.1575 0.122997 0)
(10.1636 0.118302 0)
(10.1677 0.113218 0)
(10.1696 0.108015 0)
(10.17 0.102951 0)
(10.1689 0.0984393 0)
(10.1663 0.0940669 0)
(10.1631 0.0907588 0)
(10.158 0.087424 0)
(10.1532 0.0854767 0)
(10.1455 0.0830112 0)
(10.0053 0.0353764 0)
(10.035 0.077579 0)
(10.0657 0.102527 0)
(10.0922 0.115899 0)
(10.1141 0.122424 0)
(10.1313 0.124225 0)
(10.1448 0.122794 0)
(10.1553 0.119639 0)
(10.1633 0.115653 0)
(10.1696 0.111178 0)
(10.1742 0.106494 0)
(10.1777 0.101947 0)
(10.18 0.0978071 0)
(10.1814 0.0939835 0)
(10.182 0.0908989 0)
(10.1817 0.0881783 0)
(10.1808 0.0863241 0)
(10.1785 0.0848199 0)
(10.0041 0.0300945 0)
(10.0283 0.0687738 0)
(10.057 0.0932474 0)
(10.0843 0.108574 0)
(10.1079 0.116799 0)
(10.1269 0.11962 0)
(10.1416 0.119154 0)
(10.1527 0.11669 0)
(10.1612 0.11306 0)
(10.1679 0.108941 0)
(10.1731 0.104678 0)
(10.1773 0.100508 0)
(10.1804 0.0966808 0)
(10.1828 0.0932117 0)
(10.1844 0.0903771 0)
(10.1854 0.0880594 0)
(10.1857 0.0865307 0)
(10.1852 0.0857165 0)
(10.0032 0.0258242 0)
(10.0229 0.0610492 0)
(10.0485 0.084314 0)
(10.0746 0.0995548 0)
(10.0987 0.108589 0)
(10.1196 0.113151 0)
(10.1366 0.114373 0)
(10.1496 0.113061 0)
(10.1591 0.110232 0)
(10.1662 0.106611 0)
(10.1716 0.102639 0)
(10.176 0.0988141 0)
(10.1795 0.0952942 0)
(10.1823 0.0921354 0)
(10.1844 0.0895639 0)
(10.1859 0.0875739 0)
(10.1867 0.0863598 0)
(10.187 0.0859342 0)
(10.0026 0.0221262 0)
(10.0186 0.054123 0)
(10.0411 0.0760552 0)
(10.065 0.0907456 0)
(10.088 0.0999627 0)
(10.109 0.105181 0)
(10.1275 0.107488 0)
(10.1429 0.107743 0)
(10.155 0.106426 0)
(10.1636 0.103736 0)
(10.1698 0.100412 0)
(10.1744 0.0969051 0)
(10.1782 0.0936574 0)
(10.1812 0.0907937 0)
(10.1836 0.088492 0)
(10.1854 0.0868047 0)
(10.1867 0.0858812 0)
(10.1875 0.0857538 0)
(10.0021 0.0189162 0)
(10.0152 0.047695 0)
(10.0348 0.0681207 0)
(10.0563 0.0822629 0)
(10.0776 0.0914804 0)
(10.0976 0.0969511 0)
(10.1159 0.09978 0)
(10.1323 0.100857 0)
(10.1464 0.100733 0)
(10.1578 0.0995608 0)
(10.1662 0.097455 0)
(10.1719 0.0946387 0)
(10.1761 0.0917948 0)
(10.1794 0.0891875 0)
(10.1821 0.0871463 0)
(10.1843 0.085745 0)
(10.186 0.085096 0)
(10.1872 0.0852246 0)
(10.0018 0.016137 0)
(10.0125 0.0417829 0)
(10.0295 0.0605455 0)
(10.0487 0.0739716 0)
(10.0682 0.0830584 0)
(10.0868 0.0887148 0)
(10.1042 0.0918729 0)
(10.1201 0.0933463 0)
(10.1346 0.0937939 0)
(10.1475 0.0935619 0)
(10.1584 0.0927985 0)
(10.1668 0.0913829 0)
(10.1726 0.0893544 0)
(10.1767 0.0872602 0)
(10.1798 0.0854823 0)
(10.1824 0.0843397 0)
(10.1845 0.0839454 0)
(10.1863 0.084302 0)
(10.0015 0.0137007 0)
(10.0103 0.0363977 0)
(10.025 0.0534136 0)
(10.0421 0.0659224 0)
(10.0599 0.0747019 0)
(10.0772 0.0804375 0)
(10.0936 0.0838638 0)
(10.1087 0.0856625 0)
(10.1227 0.0864247 0)
(10.1354 0.0865737 0)
(10.1471 0.0864659 0)
(10.1575 0.0861948 0)
(10.1659 0.0855724 0)
(10.172 0.0844945 0)
(10.1762 0.0833308 0)
(10.1794 0.0824779 0)
(10.1821 0.0823125 0)
(10.1845 0.0828744 0)
(10.0012 0.0116951 0)
(10.0087 0.0318784 0)
(10.0214 0.0472586 0)
(10.0368 0.058787 0)
(10.0531 0.0671262 0)
(10.0693 0.0727963 0)
(10.0848 0.0763875 0)
(10.0994 0.0784676 0)
(10.1128 0.0795217 0)
(10.1251 0.079927 0)
(10.1365 0.0800433 0)
(10.147 0.0801444 0)
(10.1565 0.080315 0)
(10.1647 0.0804235 0)
(10.171 0.080314 0)
(10.1754 0.0800903 0)
(10.1789 0.0802057 0)
(10.182 0.0809465 0)
(10.0008 0.00995172 0)
(10.0073 0.0277058 0)
(10.0183 0.0414491 0)
(10.0321 0.0519127 0)
(10.0471 0.0596962 0)
(10.0623 0.0651845 0)
(10.077 0.0688397 0)
(10.091 0.0711363 0)
(10.104 0.0724796 0)
(10.116 0.073185 0)
(10.127 0.0735411 0)
(10.1372 0.0738172 0)
(10.1468 0.0742343 0)
(10.1556 0.0749085 0)
(10.1635 0.0757944 0)
(10.17 0.0766382 0)
(10.1747 0.0773803 0)
(10.1786 0.0784145 0)
(10.0004 0.00829965 0)
(10.006 0.0234794 0)
(10.0155 0.0352094 0)
(10.0277 0.0443387 0)
(10.0413 0.051348 0)
(10.0553 0.0564868 0)
(10.0692 0.0600795 0)
(10.0825 0.0625029 0)
(10.0951 0.0640972 0)
(10.1068 0.0651308 0)
(10.1177 0.065825 0)
(10.1277 0.0663711 0)
(10.137 0.066955 0)
(10.1457 0.0677714 0)
(10.1539 0.069006 0)
(10.1615 0.0706885 0)
(10.1682 0.0725355 0)
(10.1737 0.0742393 0)
(10.0003 0.00659903 0)
(10.005 0.0190757 0)
(10.0133 0.0286711 0)
(10.0238 0.0361374 0)
(10.036 0.0420853 0)
(10.0489 0.0466513 0)
(10.0618 0.0500116 0)
(10.0744 0.0524285 0)
(10.0865 0.0541692 0)
(10.0979 0.055461 0)
(10.1086 0.0564862 0)
(10.1186 0.0573844 0)
(10.1279 0.0582754 0)
(10.1365 0.059295 0)
(10.1445 0.0606161 0)
(10.1522 0.0624075 0)
(10.1594 0.0646894 0)
(10.1662 0.0673023 0)
(10.0002 0.00489462 0)
(10.0044 0.0143025 0)
(10.0116 0.0217799 0)
(10.0208 0.0273633 0)
(10.0317 0.0319358 0)
(10.0434 0.0356442 0)
(10.0553 0.0385406 0)
(10.0672 0.0407682 0)
(10.0787 0.0425084 0)
(10.0898 0.0439325 0)
(10.1003 0.0451873 0)
(10.1103 0.0463903 0)
(10.1196 0.0476356 0)
(10.1283 0.0490065 0)
(10.1364 0.0505878 0)
(10.144 0.0524725 0)
(10.1513 0.0547429 0)
(10.1582 0.0574319 0)
(10.0002 0.00311584 0)
(10.0038 0.00916978 0)
(10.0104 0.0142034 0)
(10.0189 0.0178115 0)
(10.0286 0.0208052 0)
(10.0394 0.0233772 0)
(10.0505 0.0255307 0)
(10.0616 0.0273279 0)
(10.0727 0.0288724 0)
(10.0834 0.0302709 0)
(10.0937 0.0316211 0)
(10.1036 0.0330096 0)
(10.1129 0.034513 0)
(10.1218 0.0361954 0)
(10.1301 0.0381009 0)
(10.138 0.0402526 0)
(10.1454 0.0426625 0)
(10.1525 0.0453424 0)
(10.0002 0.00118543 0)
(10.0035 0.00351564 0)
(10.0097 0.00550754 0)
(10.0178 0.00698535 0)
(10.027 0.0082674 0)
(10.0371 0.00946903 0)
(10.0477 0.0106059 0)
(10.0585 0.01171 0)
(10.0692 0.0128296 0)
(10.0798 0.0140148 0)
(10.09 0.0153108 0)
(10.0999 0.0167582 0)
(10.1093 0.0183931 0)
(10.1183 0.0202445 0)
(10.1269 0.0223279 0)
(10.1351 0.0246408 0)
(10.143 0.0271635 0)
(10.1505 0.029869 0)
(10.0002 -0.00103408 0)
(10.0035 -0.00303714 0)
(10.0097 -0.00469752 0)
(10.0178 -0.00575354 0)
(10.027 -0.00648732 0)
(10.0373 -0.00695105 0)
(10.048 -0.00711252 0)
(10.0589 -0.00695771 0)
(10.0698 -0.0064887 0)
(10.0806 -0.00571278 0)
(10.0911 -0.00463989 0)
(10.1012 -0.00328297 0)
(10.111 -0.0016586 0)
(10.1204 0.00021218 0)
(10.1295 0.00230325 0)
(10.1382 0.00458488 0)
(10.1465 0.00702524 0)
(10.1546 0.00959425 0)
(10.0002 -0.00328179 0)
(10.004 -0.00963442 0)
(10.0107 -0.0148759 0)
(10.0193 -0.0184884 0)
(10.0295 -0.0213035 0)
(10.0406 -0.0234638 0)
(10.0522 -0.0249254 0)
(10.064 -0.0257108 0)
(10.0758 -0.0258873 0)
(10.0873 -0.0255276 0)
(10.0985 -0.0247009 0)
(10.1093 -0.0234746 0)
(10.1198 -0.0219145 0)
(10.1298 -0.0200833 0)
(10.1394 -0.0180391 0)
(10.1486 -0.0158322 0)
(10.1575 -0.0135035 0)
(10.1661 -0.0110801 0)
(10.0003 -0.00539581 0)
(10.0047 -0.0156446 0)
(10.0123 -0.0236091 0)
(10.0219 -0.0295995 0)
(10.0335 -0.0343828 0)
(10.0461 -0.0379981 0)
(10.059 -0.0404693 0)
(10.0719 -0.041922 0)
(10.0847 -0.0425145 0)
(10.0971 -0.0423885 0)
(10.1091 -0.041671 0)
(10.1206 -0.0404811 0)
(10.1317 -0.0389245 0)
(10.1423 -0.0370912 0)
(10.1524 -0.0350573 0)
(10.1622 -0.0328833 0)
(10.1715 -0.0306135 0)
(10.1805 -0.0282708 0)
(10.0005 -0.00770812 0)
(10.0059 -0.0216097 0)
(10.0148 -0.0323336 0)
(10.0265 -0.0408341 0)
(10.04 -0.0474498 0)
(10.0542 -0.0522621 0)
(10.0686 -0.0554612 0)
(10.0828 -0.0573299 0)
(10.0966 -0.0581394 0)
(10.11 -0.0581039 0)
(10.1228 -0.0573967 0)
(10.1351 -0.0561768 0)
(10.1468 -0.0545747 0)
(10.158 -0.0526952 0)
(10.1686 -0.0506261 0)
(10.1787 -0.0484418 0)
(10.1884 -0.0461864 0)
(10.1976 -0.0438718 0)
(10.001 -0.0102248 0)
(10.0078 -0.0279362 0)
(10.019 -0.0417303 0)
(10.0331 -0.0524104 0)
(10.0487 -0.0604672 0)
(10.0647 -0.0661382 0)
(10.0807 -0.0697848 0)
(10.0963 -0.0718475 0)
(10.1112 -0.0727377 0)
(10.1255 -0.0727428 0)
(10.1391 -0.0720168 0)
(10.1519 -0.0707065 0)
(10.1639 -0.0689553 0)
(10.1751 -0.0668885 0)
(10.1856 -0.0646224 0)
(10.1954 -0.0622587 0)
(10.2047 -0.0598274 0)
(10.2133 -0.0573231 0)
(10.0017 -0.0134073 0)
(10.0108 -0.0352433 0)
(10.0248 -0.0516085 0)
(10.0416 -0.0640634 0)
(10.0594 -0.073327 0)
(10.0774 -0.0797111 0)
(10.0949 -0.0836722 0)
(10.1115 -0.085791 0)
(10.1271 -0.0866363 0)
(10.1417 -0.0865044 0)
(10.1551 -0.0855041 0)
(10.1673 -0.0838275 0)
(10.1785 -0.0816719 0)
(10.1887 -0.0791989 0)
(10.1982 -0.0765402 0)
(10.2068 -0.0738008 0)
(10.2149 -0.0709554 0)
(10.2223 -0.0680036 0)
(10.0023 -0.0173219 0)
(10.0147 -0.0433921 0)
(10.0322 -0.0621356 0)
(10.0518 -0.0762151 0)
(10.0717 -0.0864541 0)
(10.091 -0.0932004 0)
(10.109 -0.0970936 0)
(10.1255 -0.0989167 0)
(10.1404 -0.0992887 0)
(10.1536 -0.0983053 0)
(10.1654 -0.0962618 0)
(10.1761 -0.0937035 0)
(10.1859 -0.0908124 0)
(10.1949 -0.0877652 0)
(10.2032 -0.084594 0)
(10.2109 -0.0814086 0)
(10.2179 -0.0782571 0)
(10.2245 -0.0751831 0)
(10.0032 -0.0222818 0)
(10.0203 -0.0529738 0)
(10.0413 -0.0736962 0)
(10.0626 -0.0887615 0)
(10.083 -0.0988347 0)
(10.1018 -0.104528 0)
(10.1189 -0.10715 0)
(10.1342 -0.107863 0)
(10.1476 -0.107147 0)
(10.1592 -0.105523 0)
(10.1697 -0.103171 0)
(10.1795 -0.100319 0)
(10.1884 -0.097186 0)
(10.1967 -0.0939069 0)
(10.2044 -0.0905246 0)
(10.2115 -0.0870934 0)
(10.2181 -0.0837498 0)
(10.2244 -0.0806248 0)
(10.0053 -0.0290609 0)
(10.0276 -0.0627419 0)
(10.0505 -0.0829866 0)
(10.0719 -0.0973538 0)
(10.0916 -0.107113 0)
(10.1094 -0.112563 0)
(10.1255 -0.114801 0)
(10.1397 -0.114847 0)
(10.1521 -0.113259 0)
(10.1629 -0.110967 0)
(10.1726 -0.108481 0)
(10.1812 -0.105576 0)
(10.1891 -0.102484 0)
(10.1961 -0.099203 0)
(10.2025 -0.0958843 0)
(10.2083 -0.0925217 0)
(10.2137 -0.0892231 0)
(10.2187 -0.0860365 0)
(10.0095 -0.0358277 0)
(10.0359 -0.0699742 0)
(10.0591 -0.0903301 0)
(10.0805 -0.104705 0)
(10.1 -0.114617 0)
(10.1168 -0.120316 0)
(10.1306 -0.123133 0)
(10.141 -0.123399 0)
(10.1489 -0.122172 0)
(10.1543 -0.119703 0)
(10.1577 -0.116731 0)
(10.1592 -0.113226 0)
(10.1591 -0.109493 0)
(10.1578 -0.105598 0)
(10.1554 -0.10164 0)
(10.1525 -0.0977825 0)
(10.1485 -0.0939435 0)
(10.1449 -0.0904713 0)
(10.0125 -0.0427445 0)
(10.0467 -0.076851 0)
(10.0691 -0.0948366 0)
(10.0761 -0.107159 0)
(10.0657 -0.11499 0)
(10.0405 -0.119381 0)
(10.0011 -0.120923 0)
(9.95149 -0.12038 0)
(9.89443 -0.118306 0)
(9.83377 -0.115303 0)
(9.77034 -0.111771 0)
(9.70675 -0.1079 0)
(9.64281 -0.103789 0)
(9.58089 -0.0996366 0)
(9.5197 -0.095426 0)
(9.46205 -0.091383 0)
(9.40489 -0.0874239 0)
(9.35312 -0.0839011 0)
(9.91243 -0.0350732 0)
(9.67616 -0.0799061 0)
(9.3469 -0.110625 0)
(8.97755 -0.126329 0)
(8.6045 -0.126686 0)
(8.25036 -0.116474 0)
(7.92076 -0.104976 0)
(7.61739 -0.0933638 0)
(7.34218 -0.0821833 0)
(7.0939 -0.0720799 0)
(6.87049 -0.0631848 0)
(6.66982 -0.0553683 0)
(6.48941 -0.0485433 0)
(6.32781 -0.0425694 0)
(6.1822 -0.0373444 0)
(6.05257 -0.0328009 0)
(5.93435 -0.0285785 0)
(5.83095 -0.0247943 0)
(0.0126815 -0.0249372 -1.26395e-20)
(0.0392749 -0.0233775 1.258e-20)
(0.0547414 -0.01799 0)
(0.0595836 -0.015064 0)
(0.0617815 -0.0151716 0)
(0.0636766 -0.0158285 -1.23079e-20)
(0.0659662 -0.0154423 0)
(0.0679882 -0.0146217 0)
(0.0706461 -0.0142821 0)
(0.0748477 -0.0149707 0)
(0.0818241 -0.0168516 1.21637e-20)
(0.0928849 -0.0199479 0)
(0.109368 -0.0243223 0)
(0.132817 -0.030074 0)
(0.16485 -0.0372638 0)
(0.207344 -0.0460916 1.22607e-20)
(0.262439 -0.0568752 0)
(0.333024 -0.0702866 0)
(0.422215 -0.0865926 0)
(0.533482 -0.106019 0)
(0.670287 -0.128373 0)
(0.8357 -0.153123 0)
(1.03213 -0.179563 0)
(1.26027 -0.206366 1.38852e-20)
(1.51866 -0.230675 -1.44656e-20)
(1.80249 -0.249537 1.51906e-20)
(2.1045 -0.260982 1.60628e-20)
(2.41546 -0.263182 0)
(2.72432 -0.254031 0)
(3.01714 -0.232766 -1.93435e-20)
(3.27962 -0.197944 -2.04819e-20)
(3.49387 -0.149616 0)
(3.64476 -0.088394 0)
(3.7165 -0.0162575 -2.27881e-20)
(3.69638 0.0628251 0)
(3.57273 0.145196 0)
(3.34205 0.224409 2.17345e-20)
(3.01726 0.28949 0)
(2.61353 0.331367 1.93942e-20)
(2.15379 0.344427 3.62013e-20)
(1.67956 0.305572 0)
(1.15399 0.324086 0)
(0.760694 0.396177 0)
(0.73095 0.14828 0)
(0.786204 -0.424178 0)
(0.74335 -0.883328 2.75704e-20)
(0.66845 -0.439031 2.77433e-20)
(-0.0468041 0.519444 2.64871e-20)
(-1.14894 0.825267 0)
(-2.17238 0.822072 -2.59688e-20)
(-3.12718 0.768751 0)
(-3.99316 0.689164 3.08737e-20)
(-4.7677 0.605887 3.43185e-20)
(-5.44634 0.524149 0)
(-6.03683 0.449435 0)
(-6.54222 0.381418 0)
(-6.97223 0.321222 4.74114e-20)
(-7.33133 0.266773 0)
(-7.62789 0.217287 0)
(-7.86574 0.17233 0)
(-8.05174 0.132388 0)
(-8.18902 0.0963038 0)
(-8.28291 0.0645241 0)
(-8.33665 0.0364385 0)
(-8.35421 0.0118598 0)
(-8.34051 -0.00962551 -5.22385e-20)
(-8.30319 -0.0274516 0)
(-8.24271 -0.042529 0)
(-8.16448 -0.0546919 4.73647e-20)
(-8.07083 -0.0644578 4.53798e-20)
(-7.96558 -0.0719857 0)
(-7.85119 -0.0775846 -4.11181e-20)
(-7.73052 -0.0815226 3.89093e-20)
(-7.60565 -0.0841286 0)
(-7.47861 -0.0856655 -3.44652e-20)
(-7.35085 -0.0864759 0)
(-7.22353 -0.086891 0)
(-7.09723 -0.0872935 2.79484e-20)
(-6.9721 -0.0880624 0)
(-6.8476 -0.0896896 -2.37471e-20)
(-6.7226 -0.0925956 0)
(-6.59524 -0.0972382 1.95721e-20)
(-6.46281 -0.104161 1.74416e-20)
(-6.32167 -0.11387 1.5241e-20)
(-6.16728 -0.126789 2.58619e-20)
(-5.9939 -0.143478 -2.09288e-20)
(-5.79475 -0.164143 0)
(-5.56232 -0.188641 0)
(-5.28894 -0.216456 0)
(-4.96755 -0.246535 3.83924e-21)
(-4.59329 -0.277287 1.15424e-20)
(-4.16388 -0.306249 -1.9736e-20)
(-3.68134 -0.331786 0)
(-3.15205 -0.353255 3.67412e-20)
(-2.5864 -0.367996 4.48728e-20)
(-1.99825 -0.374343 5.22838e-20)
(-1.40298 -0.372099 0)
(-0.816208 -0.3622 0)
(-0.252003 -0.343693 0)
(0.279458 -0.320345 6.98163e-20)
(0.771063 -0.294233 0)
(1.21898 -0.266754 0)
(1.62142 -0.235919 -6.93852e-20)
(1.97876 -0.202944 0)
(2.29497 -0.173805 0)
(2.57429 -0.149148 -6.55571e-20)
(2.81984 -0.127659 0)
(3.03383 -0.108376 0)
(3.21895 -0.0910239 6.08408e-20)
(3.37802 -0.0754373 5.92927e-20)
(3.51368 -0.0615443 0)
(3.62813 -0.0492404 -5.63643e-20)
(3.72359 -0.038286 0)
(3.80153 -0.0282314 5.3713e-20)
(3.86316 -0.0188061 0)
(3.90963 -0.0100349 5.13586e-20)
(3.94178 -0.00235085 5.02885e-20)
(3.96165 0.00458507 0)
(3.9695 0.0108092 0)
(3.96562 0.015844 0)
(3.95188 0.0197266 0)
(3.93036 0.0221891 0)
(3.90301 0.0232102 0)
(3.87176 0.023039 0)
(3.83811 0.0218907 4.37561e-20)
(3.80364 0.019984 -4.31213e-20)
(3.76964 0.0177841 0)
(3.73668 0.0156 0)
(3.70539 0.0134212 0)
(3.67642 0.0114183 0)
(3.64983 0.00992843 -8.0828e-20)
(3.62555 0.0089543 0)
(3.60363 0.00826499 7.91019e-20)
(3.5838 0.00815265 -7.8336e-20)
(3.56491 0.00962731 0)
(3.54467 0.0134419 0)
(3.52048 0.0190886 0)
(3.49137 0.0252264 7.5961e-20)
(3.45752 0.0305513 7.55137e-20)
(3.42034 0.0341865 0)
(3.38156 0.0359422 7.47187e-20)
(3.34252 0.0360204 7.43455e-20)
(3.30417 0.0346192 -7.39806e-20)
(3.26708 0.0319431 0)
(3.23142 0.0283393 0)
(3.19739 0.0242707 -7.2872e-20)
(3.16544 0.0199219 0)
(3.13623 0.0153484 0)
(3.11039 0.0108715 0)
(3.08822 0.00695271 0)
(3.06957 0.00384985 7.08543e-20)
(3.05424 0.00152524 7.04413e-20)
(3.04196 -0.000268221 0)
(3.03278 -0.00167755 6.96327e-20)
(3.0264 -0.00261138 0)
(3.02252 -0.00296605 0)
(3.0204 -0.00292719 6.8473e-20)
(3.02008 -0.00270426 0)
(3.02105 -0.00237468 6.77527e-20)
(3.02332 -0.00192166 0)
(3.02615 -0.00135732 0)
(3.0294 -0.000673462 6.67857e-20)
(3.03206 6.76506e-05 0)
(3.03407 0.000864418 6.62049e-20)
(3.03447 0.00164032 0)
(3.03349 0.00241477 0)
(3.03055 0.00304847 0)
(3.026 0.00360527 -6.51295e-20)
(3.0197 0.00403503 0)
(3.01105 0.00458555 6.46395e-20)
(3.00078 0.00521769 0)
(2.98538 0.00610632 0)
(2.96935 0.00741369 0)
(2.94065 0.00900778 0)
(2.91605 0.0121035 0)
(2.85823 0.014747 0)
(2.82266 0.0229038 0)
(2.69481 0.0251654 -1.28515e-19)
(2.65864 0.0504658 0)
(2.34003 0.0492633 0)
(0.0139182 -0.0857339 3.78178e-20)
(0.0325108 -0.0664792 -3.76408e-20)
(0.0336653 -0.0231864 0)
(0.0262972 0.000468094 2.47341e-20)
(0.0148577 0.00685397 0)
(0.00139794 0.00722574 1.23034e-20)
(-0.0121525 0.00703061 -2.43914e-20)
(-0.0252276 0.00548294 -2.42892e-20)
(-0.0367114 0.00117291 0)
(-0.0455985 -0.0065105 -2.41381e-20)
(-0.0505604 -0.0178917 -1.20996e-20)
(-0.050553 -0.0333853 0)
(-0.0443788 -0.0530273 0)
(-0.0304271 -0.0768656 0)
(-0.00708707 -0.10531 0)
(0.0275978 -0.139092 -1.21441e-20)
(0.0756715 -0.17926 0)
(0.140841 -0.227237 2.43497e-20)
(0.225972 -0.284044 0)
(0.333713 -0.348759 0)
(0.468452 -0.422149 -2.51905e-20)
(0.633459 -0.502236 0)
(0.831055 -0.585911 2.64735e-20)
(1.06077 -0.667069 -1.36375e-20)
(1.31859 -0.738962 1.42126e-20)
(1.59893 -0.794258 -1.49338e-20)
(1.89491 -0.826362 -1.58031e-20)
(2.19791 -0.830829 0)
(2.49827 -0.802274 0)
(2.78244 -0.735686 1.90582e-20)
(3.03449 -0.627156 -2.23552e-20)
(3.23967 -0.478408 0)
(3.38069 -0.291988 0)
(3.45007 -0.0786324 2.26945e-20)
(3.43294 0.15447 0)
(3.33157 0.394407 0)
(3.14084 0.622706 -2.15831e-20)
(2.86113 0.823401 0)
(2.50896 0.994112 2.17722e-20)
(2.10968 1.1132 -3.57785e-20)
(1.73306 1.17278 0)
(1.44663 1.0977 0)
(1.22307 0.401746 -5.89462e-20)
(0.857328 -0.238424 -5.67892e-20)
(-0.193238 0.473049 -5.41161e-20)
(-1.74741 1.37939 2.73107e-20)
(-2.91727 1.80893 -2.53019e-20)
(-3.8451 2.04408 -7.76747e-20)
(-4.68641 2.02881 5.47129e-20)
(-5.37809 1.9071 2.36501e-20)
(-5.995 1.72916 0)
(-6.52381 1.53346 -2.86494e-20)
(-6.98105 1.33636 4.09792e-20)
(-7.37128 1.14957 0)
(-7.70298 0.978051 0)
(-7.98287 0.822885 0)
(-8.21551 0.684012 -4.48877e-20)
(-8.40657 0.559904 0)
(-8.55835 0.448743 1.01572e-19)
(-8.67519 0.349026 0)
(-8.75846 0.259104 1.04576e-19)
(-8.81167 0.178322 0)
(-8.83636 0.105718 -1.04408e-19)
(-8.83489 0.041275 0)
(-8.80997 -0.0154785 1.01435e-19)
(-8.76262 -0.0648748 -5.03229e-20)
(-8.69183 -0.1068 0)
(-8.60294 -0.141648 -9.28415e-20)
(-8.4976 -0.169546 -4.41041e-20)
(-8.37939 -0.191086 -4.22393e-20)
(-8.25064 -0.207025 0)
(-8.11419 -0.217961 -3.88286e-20)
(-7.97195 -0.224669 -3.61915e-20)
(-7.82607 -0.227753 0)
(-7.67813 -0.227816 3.2046e-20)
(-7.52965 -0.225535 -6.0271e-20)
(-7.38166 -0.221705 0)
(-7.2349 -0.217179 -2.59533e-20)
(-7.08957 -0.212919 0)
(-6.9453 -0.209976 6.64228e-20)
(-6.80122 -0.209434 0)
(-6.65584 -0.212487 -5.4905e-20)
(-6.50674 -0.22057 -1.61386e-20)
(-6.35074 -0.23504 1.49191e-20)
(-6.18369 -0.25726 2.593e-20)
(-6.00031 -0.288697 -2.17938e-20)
(-5.79425 -0.330464 0)
(-5.55794 -0.383089 0)
(-5.28324 -0.446134 0)
(-4.96218 -0.517632 -6.20072e-21)
(-4.58837 -0.593365 -1.05596e-20)
(-4.15661 -0.669991 1.80789e-20)
(-3.66465 -0.740849 0)
(-3.11896 -0.798918 2.95851e-20)
(-2.53394 -0.837911 -4.15379e-20)
(-1.92499 -0.853805 -4.84048e-20)
(-1.30956 -0.845999 0)
(-0.703883 -0.816964 0)
(-0.12236 -0.77075 0)
(0.423943 -0.712206 -6.35743e-20)
(0.928102 -0.64654 0)
(1.38464 -0.579546 1.24494e-19)
(1.79241 -0.516162 1.84742e-19)
(2.15778 -0.458388 -1.20585e-19)
(2.48458 -0.406333 0)
(2.77323 -0.357251 -5.71925e-20)
(3.02838 -0.310594 0)
(3.25429 -0.268597 -1.10971e-19)
(3.45358 -0.231324 5.3785e-20)
(3.62884 -0.198155 5.26541e-20)
(3.78245 -0.1686 0)
(3.91652 -0.142199 1.52755e-19)
(4.0329 -0.118466 -9.95088e-20)
(4.13317 -0.0970034 -4.89945e-20)
(4.21893 -0.0775434 0)
(4.29155 -0.0598878 -4.71174e-20)
(4.35236 -0.0440031 -1.38505e-19)
(4.40199 -0.0296156 0)
(4.44178 -0.0167246 -8.92361e-20)
(4.4736 -0.0054195 -8.79187e-20)
(4.49797 0.00440867 -8.67185e-20)
(4.51482 0.0126228 0)
(4.52439 0.0192756 0)
(4.52709 0.0243053 0)
(4.5236 0.0277868 4.11215e-20)
(4.51448 0.0300103 4.0664e-20)
(4.50033 0.031019 0)
(4.4824 0.0308153 7.92355e-20)
(4.46192 0.0296904 7.82658e-20)
(4.43988 0.0279606 0)
(4.41736 0.0257957 7.64096e-20)
(4.39555 0.0232599 1.51108e-19)
(4.37553 0.0204803 -7.47081e-20)
(4.35829 0.0179447 -7.39515e-20)
(4.34463 0.0162711 0)
(4.33571 0.0155908 0)
(4.33309 0.0156634 0)
(4.33755 0.0159924 -7.16923e-20)
(4.34923 0.0160475 7.11981e-20)
(4.36744 0.0156835 1.41953e-19)
(4.39102 0.0150357 -7.0806e-20)
(4.41857 0.0144059 7.03937e-20)
(4.44846 0.0140512 7.03389e-20)
(4.47886 0.0142642 0)
(4.508 0.0150209 0)
(4.5344 0.0159191 -6.95687e-20)
(4.55668 0.0166289 0)
(4.5735 0.0170409 0)
(4.58385 0.0169974 1.37861e-19)
(4.58743 0.0164651 0)
(4.58497 0.0153548 6.83724e-20)
(4.57786 0.0137034 -6.80556e-20)
(4.56747 0.0117303 0)
(4.55484 0.00967724 6.7392e-20)
(4.54105 0.00763477 0)
(4.52741 0.00555917 0)
(4.51546 0.00346728 -6.62635e-20)
(4.50622 0.00143601 1.31804e-19)
(4.5004 -0.000404583 -6.55154e-20)
(4.49806 -0.00191339 0)
(4.49912 -0.00298502 0)
(4.50303 -0.0035649 6.44732e-20)
(4.50945 -0.00360345 0)
(4.51744 -0.00313183 6.3858e-20)
(4.52669 -0.00229091 0)
(4.53613 -0.00129202 0)
(4.54609 -0.00018644 0)
(4.55507 0.000973201 6.28722e-20)
(4.56394 0.00235629 0)
(4.57002 0.00389676 -6.24443e-20)
(4.57607 0.0060266 0)
(4.57627 0.00835429 0)
(4.57786 0.0121328 1.23855e-19)
(4.56659 0.0159621 -1.23644e-19)
(4.56196 0.0234897 0)
(4.52734 0.029797 0)
(4.51622 0.0464501 0)
(4.43077 0.0557275 3.73616e-19)
(4.41989 0.0973489 0)
(4.22423 0.113952 -2.5264e-19)
(0.0113772 -0.1266 -1.5823e-22)
(0.0114146 -0.0638519 4.98225e-20)
(0.00531393 -0.00638423 0)
(-0.00164224 0.0226891 -4.8833e-20)
(-0.0108954 0.0347615 0)
(-0.0223157 0.0377781 0)
(-0.034135 0.0371453 1.7124e-22)
(-0.045132 0.0331144 2.39759e-20)
(-0.0545792 0.02457 2.36593e-20)
(-0.0618616 0.0110211 2.37149e-20)
(-0.0666728 -0.00789023 0)
(-0.0682951 -0.0326432 0)
(-0.0656995 -0.0637373 -2.32281e-20)
(-0.0579522 -0.101762 -4.63686e-20)
(-0.0436639 -0.147688 4.63574e-20)
(-0.0209689 -0.203044 0)
(0.0124199 -0.269684 4.65901e-20)
(0.0588912 -0.349252 -2.36134e-20)
(0.122419 -0.442804 0)
(0.206357 -0.551011 4.7921e-20)
(0.315544 -0.675397 2.46534e-20)
(0.453751 -0.811962 -5.02943e-20)
(0.621714 -0.95257 -2.6139e-20)
(0.816233 -1.08498 0)
(1.02971 -1.19597 5.75405e-20)
(1.25554 -1.27676 6.1296e-20)
(1.49162 -1.32481 0)
(1.735 -1.33425 7.14632e-20)
(1.97689 -1.29301 0)
(2.20577 -1.19027 8.45373e-20)
(2.40589 -1.01785 4.3103e-20)
(2.56151 -0.776948 0)
(2.65559 -0.471498 0)
(2.68396 -0.120087 0)
(2.63411 0.254621 0)
(2.50377 0.631563 0)
(2.29016 0.980333 0)
(2.01219 1.26603 9.71466e-20)
(1.70721 1.45688 -1.31428e-19)
(1.3651 1.4824 0)
(0.945252 1.33247 0)
(0.354417 1.26396 0)
(-0.756366 1.58331 -4.96942e-21)
(-2.11767 2.17596 5.27276e-20)
(-3.30898 2.67466 1.06159e-19)
(-4.31945 2.93164 -1.05717e-19)
(-5.04741 2.99969 -5.84919e-20)
(-5.61339 2.97603 5.07508e-20)
(-6.03823 2.82089 1.15871e-20)
(-6.37938 2.59731 6.66711e-20)
(-6.67143 2.33031 0)
(-6.93288 2.05836 7.49632e-20)
(-7.17107 1.79259 1.0267e-20)
(-7.39166 1.54545 0)
(-7.59276 1.31797 0)
(-7.77454 1.11196 -9.20328e-20)
(-7.93464 0.924859 0)
(-8.07153 0.755387 0)
(-8.1836 0.601056 1.05704e-19)
(-8.26979 0.460516 2.05188e-19)
(-8.32954 0.33215 -9.96914e-20)
(-8.36265 0.215303 0)
(-8.3698 0.109227 1.00349e-19)
(-8.35229 0.0138016 0)
(-8.31201 -0.0710237 1.03095e-19)
(-8.25063 -0.145115 9.59257e-20)
(-8.17096 -0.208664 -1.90576e-19)
(-8.07532 -0.261648 -9.36944e-20)
(-7.96706 -0.304372 0)
(-7.84836 -0.337699 1.69501e-19)
(-7.72148 -0.363128 0)
(-7.58839 -0.381068 2.29847e-19)
(-7.45071 -0.39211 1.45686e-19)
(-7.31022 -0.397564 1.3752e-19)
(-7.1684 -0.398358 -1.29297e-19)
(-7.02641 -0.395577 1.81456e-19)
(-6.88522 -0.390361 0)
(-6.74518 -0.384183 0)
(-6.60659 -0.378421 -9.75005e-20)
(-6.46909 -0.374778 -1.34648e-19)
(-6.33216 -0.374867 0)
(-6.19459 -0.380203 3.70973e-20)
(-6.05444 -0.392861 0)
(-5.90934 -0.415183 -8.97505e-20)
(-5.75596 -0.449261 2.28175e-21)
(-5.58995 -0.497586 -2.87411e-21)
(-5.40567 -0.562389 3.55848e-20)
(-5.19595 -0.644961 0)
(-4.95205 -0.745719 -1.4973e-20)
(-4.66498 -0.863118 5.56334e-21)
(-4.32372 -0.991865 0)
(-3.91894 -1.12407 0)
(-3.4506 -1.24799 0)
(-2.92342 -1.34815 -6.40803e-20)
(-2.34944 -1.41366 0)
(-1.74703 -1.43779 0)
(-1.13651 -1.42048 0)
(-0.53636 -1.36683 0)
(0.038314 -1.28545 0)
(0.576957 -1.18473 -1.22291e-19)
(1.07402 -1.07349 0)
(1.52677 -0.959417 -1.23737e-19)
(1.93527 -0.849935 -1.21366e-19)
(2.30055 -0.74967 1.18225e-19)
(2.62075 -0.658938 0)
(2.89931 -0.579176 1.10946e-19)
(3.14523 -0.507597 0)
(3.36459 -0.442201 1.05593e-19)
(3.56023 -0.38382 -1.03103e-19)
(3.73419 -0.331768 -3.00575e-19)
(3.88826 -0.285283 0)
(4.0242 -0.243755 -2.86898e-19)
(4.14362 -0.206459 -9.28389e-20)
(4.24801 -0.172748 0)
(4.33872 -0.142145 -1.78809e-19)
(4.41689 -0.114317 -1.75194e-19)
(4.48348 -0.0890391 2.57922e-19)
(4.53918 -0.0661671 0)
(4.58485 -0.0456716 8.28815e-20)
(4.62137 -0.0275296 8.13587e-20)
(4.6494 -0.0118352 2.3944e-19)
(4.66963 0.00169596 0)
(4.68264 0.013193 0)
(4.68883 0.02267 0)
(4.68872 0.0302572 7.49012e-20)
(4.68285 0.0361252 0)
(4.67185 0.0402596 0)
(4.65662 0.0426103 -7.20957e-20)
(4.63809 0.0433388 -7.1169e-20)
(4.61722 0.0426695 0)
(4.59514 0.0407032 0)
(4.57314 0.0375155 -1.36977e-19)
(4.55241 0.033359 0)
(4.5341 0.0287309 1.33661e-19)
(4.5194 0.024129 1.32071e-19)
(4.50971 0.0197734 0)
(4.50632 0.0155901 0)
(4.50997 0.0113213 -1.28238e-19)
(4.52082 0.00673496 -1.62293e-22)
(4.53858 0.00198075 -1.89872e-22)
(4.56257 -0.00254249 0)
(4.59164 -0.00646458 -2.513e-19)
(4.62441 -0.00919274 0)
(4.65948 -0.0104388 0)
(4.69525 -0.0101046 0)
(4.73012 -0.00830972 1.25471e-19)
(4.76255 -0.00559774 0)
(4.79105 -0.00241377 -2.516e-19)
(4.81463 0.00116016 -1.26192e-19)
(4.83291 0.00471024 0)
(4.8457 0.00776789 -1.26572e-19)
(4.85314 0.00996976 0)
(4.85579 0.0112034 0)
(4.85461 0.0114916 -3.78029e-19)
(4.85075 0.0108358 2.51147e-19)
(4.8455 0.00922848 0)
(4.84023 0.00678415 2.48704e-19)
(4.83591 0.00373999 -1.23542e-19)
(4.83348 0.00041395 0)
(4.83359 -0.00283177 0)
(4.83667 -0.00566802 0)
(4.84269 -0.00786299 -3.60377e-19)
(4.85157 -0.00926846 0)
(4.86278 -0.00995397 -1.18773e-19)
(4.87608 -0.00998074 0)
(4.89079 -0.00947922 0)
(4.90656 -0.00855914 0)
(4.92232 -0.00727887 0)
(4.9383 -0.00554941 0)
(4.95302 -0.00336788 0)
(4.96764 -0.000340274 -2.32437e-19)
(4.97915 0.00329532 0)
(4.99072 0.00871909 -1.16189e-19)
(4.99559 0.0148504 3.4853e-19)
(5.00235 0.0251298 0)
(4.99436 0.0356229 0)
(4.995 0.0566597 -2.34246e-19)
(4.96201 0.0743025 -2.37036e-19)
(4.95899 0.121173 2.38087e-19)
(4.8862 0.156251 2.43644e-19)
(0.00426141 -0.135124 -7.44307e-20)
(-0.00451602 -0.0490333 -7.33446e-20)
(-0.0121148 0.00575145 -4.74213e-20)
(-0.0189942 0.0357821 -2.31414e-20)
(-0.0269798 0.0521532 0)
(-0.0362095 0.0580323 4.62495e-20)
(-0.0459423 0.0567989 -2.26676e-20)
(-0.0552183 0.0501456 0)
(-0.063602 0.0381534 -2.25667e-20)
(-0.0708764 0.0205867 0)
(-0.0768344 -0.00286312 4.36029e-20)
(-0.0812322 -0.0326256 0)
(-0.0838101 -0.0696885 2.17341e-20)
(-0.0840596 -0.115445 4.33726e-20)
(-0.0811186 -0.171588 -4.34226e-20)
(-0.0737951 -0.240361 0)
(-0.060479 -0.324573 -4.3961e-20)
(-0.0389771 -0.426969 0)
(-0.00614649 -0.549344 0)
(0.039862 -0.694151 -4.6577e-20)
(0.105775 -0.861594 0)
(0.194193 -1.04427 9.65569e-22)
(0.299231 -1.22559 0)
(0.413993 -1.38373 0)
(0.532046 -1.5068 -7.6553e-22)
(0.655225 -1.59991 -6.20948e-20)
(0.78503 -1.66247 -6.67116e-20)
(0.918634 -1.67846 -7.27876e-20)
(1.04832 -1.62781 0)
(1.16527 -1.49325 -1.74759e-19)
(1.25655 -1.26588 0)
(1.31207 -0.946324 -1.04634e-19)
(1.31855 -0.546333 0)
(1.26565 -0.093673 0)
(1.11976 0.392401 1.18528e-19)
(0.936709 0.867001 0)
(0.674488 1.29158 -1.13124e-19)
(0.320696 1.65407 7.35422e-21)
(-0.138275 1.9716 1.88692e-19)
(-0.765007 2.27887 -1.76707e-19)
(-1.58567 2.64288 0)
(-2.54358 3.08125 0)
(-3.55251 3.49749 -7.73571e-20)
(-4.40943 3.76622 0)
(-5.04237 3.85119 -5.37489e-20)
(-5.49931 3.79552 5.41077e-20)
(-5.8198 3.65225 5.57962e-20)
(-6.06024 3.45228 0)
(-6.24402 3.19685 -6.04796e-20)
(-6.40365 2.91482 -6.35926e-20)
(-6.55047 2.6198 1.55983e-19)
(-6.69611 2.32912 -7.14694e-20)
(-6.84058 2.04892 -7.58328e-20)
(-6.98414 1.78579 0)
(-7.12215 1.53948 0)
(-7.25088 1.31081 8.81969e-20)
(-7.36603 1.09748 0)
(-7.46401 0.898591 0)
(-7.54183 0.712458 -1.93144e-19)
(-7.59687 0.538378 -1.96454e-19)
(-7.62753 0.375923 0)
(-7.63285 0.225129 0)
(-7.61289 0.0865044 0)
(-7.56866 -0.0394697 0)
(-7.50144 -0.152044 -1.93011e-19)
(-7.41351 -0.250643 1.93924e-19)
(-7.30735 -0.335126 1.83413e-19)
(-7.18608 -0.405341 3.59566e-19)
(-7.05271 -0.460727 0)
(-6.91152 -0.501204 3.2108e-21)
(-6.76446 -0.530739 0)
(-6.61512 -0.550366 -1.53034e-19)
(-6.46584 -0.560723 1.94441e-21)
(-6.319 -0.563465 -1.38505e-19)