/*--------------------------------*- C++ -*----------------------------------*\
| =========                 |                                                 |
| \\      /  F ield         | OpenFOAM: The Open Source CFD Toolbox           |
|  \\    /   O peration     | Version:  2112                                  |
|   \\  /    A nd           | Website:  www.openfoam.com                      |
|    \\/     M anipulation  |                                                 |
\*---------------------------------------------------------------------------*/
FoamFile
{
    version     2.0;
    format      ascii;
    arch        "LSB;label=32;scalar=64";
    class       volVectorField;
    location    "0.13";
    object      UMean;
}
// * * * * * * * * * * * * * * * * * * * * * * * * * * * * * * * * * * * * * //

dimensions      [0 1 -1 0 0 0 0];

internalField   nonuniform List<vector> 
122250
(
(9.82466 0.0359628 -0.096614)
(9.50801 0.0520072 -0.0890717)
(9.18242 0.0496276 -0.0850619)
(8.86117 0.052923 -0.0780036)
(8.54578 0.0530523 -0.0741829)
(8.24616 0.0527605 -0.0721778)
(7.96137 0.0517646 -0.0707314)
(7.68997 0.0507926 -0.0694221)
(7.43012 0.0497344 -0.068195)
(7.18077 0.0492073 -0.0670732)
(6.9409 0.04853 -0.0660632)
(6.70491 0.0490636 -0.0651583)
(6.48191 0.0484646 -0.0643734)
(6.24698 0.0522566 -0.0636474)
(6.03592 0.0504262 -0.063)
(5.77936 0.0647355 -0.0621019)
(5.56085 0.0423866 -0.0609742)
(5.31043 0.0672467 -0.057944)
(10.0097 0.0599771 -0.097057)
(10.074 0.0872763 -0.0896493)
(10.1007 0.0837471 -0.085692)
(10.1076 0.0847706 -0.0781622)
(10.098 0.0866358 -0.0742541)
(10.0814 0.0878803 -0.0723773)
(10.0578 0.0885584 -0.0709664)
(10.0278 0.0890674 -0.0696767)
(9.99193 0.0901127 -0.0684691)
(9.95129 0.0907944 -0.0673642)
(9.905 0.0932172 -0.0663674)
(9.85471 0.0942565 -0.0654773)
(9.79895 0.0993664 -0.0646882)
(9.73793 0.101537 -0.06398)
(9.67058 0.112046 -0.0632825)
(9.59409 0.117115 -0.0625094)
(9.50356 0.129481 -0.061317)
(9.41269 0.122567 -0.0594131)
(9.99159 0.0358897 -0.102241)
(10.0312 0.0642489 -0.0965046)
(10.0553 0.0622365 -0.0927822)
(10.0713 0.0642728 -0.0802933)
(10.081 0.0662707 -0.0748562)
(10.0919 0.0697228 -0.0726251)
(10.1018 0.072406 -0.071197)
(10.1105 0.0748285 -0.0699016)
(10.118 0.0771552 -0.0686887)
(10.124 0.0801339 -0.0675746)
(10.1285 0.0832254 -0.0665698)
(10.1313 0.0877384 -0.065657)
(10.1327 0.0923565 -0.0648406)
(10.1327 0.100564 -0.0640678)
(10.1318 0.108572 -0.0633191)
(10.1312 0.122899 -0.0624454)
(10.1292 0.131011 -0.0613751)
(10.1247 0.136041 -0.0594511)
(9.98671 0.03061 -0.105072)
(10.0197 0.0622811 -0.102671)
(10.0409 0.0670542 -0.0994227)
(10.0523 0.0703852 -0.0827655)
(10.061 0.0727595 -0.0756712)
(10.0702 0.0758383 -0.0728313)
(10.078 0.0783662 -0.0713738)
(10.0853 0.0803126 -0.0700799)
(10.092 0.0824652 -0.0688565)
(10.098 0.0847717 -0.0677281)
(10.1031 0.0880666 -0.066699)
(10.1078 0.0917602 -0.0657598)
(10.1119 0.0972074 -0.0648882)
(10.1166 0.103826 -0.0640615)
(10.1223 0.112873 -0.0632165)
(10.131 0.123413 -0.0622965)
(10.143 0.132622 -0.0612054)
(10.157 0.138162 -0.0593233)
(9.98494 0.0246395 -0.104166)
(10.0136 0.0538893 -0.103161)
(10.0314 0.0597036 -0.100388)
(10.0432 0.0642531 -0.0834786)
(10.0516 0.0649616 -0.0758675)
(10.0599 0.0682861 -0.0728457)
(10.067 0.071195 -0.0713658)
(10.0736 0.073703 -0.0700744)
(10.0798 0.0761016 -0.0688443)
(10.0852 0.0788987 -0.0676998)
(10.09 0.0822493 -0.0666476)
(10.0942 0.0865413 -0.0656725)
(10.0982 0.0918109 -0.0647568)
(10.1028 0.0985853 -0.0638682)
(10.1086 0.106634 -0.0629622)
(10.1168 0.115432 -0.0619897)
(10.1277 0.123594 -0.0608924)
(10.1412 0.128118 -0.0590609)
(9.98415 0.0212333 -0.102392)
(10.0087 0.0493853 -0.101934)
(10.0254 0.0568398 -0.0996574)
(10.0355 0.0630803 -0.0824304)
(10.043 0.0637532 -0.0752417)
(10.0522 0.0669897 -0.0727064)
(10.0592 0.0702829 -0.0712676)
(10.0657 0.0731365 -0.0699763)
(10.0718 0.0758723 -0.0687414)
(10.0775 0.0788484 -0.067582)
(10.0825 0.0824178 -0.0665044)
(10.0872 0.0867422 -0.0654976)
(10.0918 0.0919879 -0.0645388)
(10.0969 0.0983253 -0.0635989)
(10.103 0.10547 -0.0626413)
(10.111 0.11301 -0.0616269)
(10.1208 0.11972 -0.0605203)
(10.1326 0.124279 -0.0587122)
(9.98344 0.0180424 -0.100703)
(10.0047 0.0436672 -0.100706)
(10.0184 0.0523675 -0.0988514)
(10.0273 0.0596341 -0.0816293)
(10.0348 0.0613109 -0.0750828)
(10.044 0.0641291 -0.0725896)
(10.0511 0.0673692 -0.0711582)
(10.0576 0.0703467 -0.0698708)
(10.0639 0.0731729 -0.0686325)
(10.0698 0.0762158 -0.0674582)
(10.0753 0.0797714 -0.0663565)
(10.0804 0.0840265 -0.065317)
(10.0855 0.0890757 -0.0643173)
(10.0911 0.0949162 -0.063331)
(10.0976 0.101341 -0.0623279)
(10.1055 0.107883 -0.061278)
(10.1148 0.113774 -0.0601542)
(10.1254 0.118366 -0.058361)
(9.98285 0.0152789 -0.0990073)
(10.0019 0.0393877 -0.099492)
(10.0125 0.048071 -0.0979647)
(10.0205 0.0569367 -0.0812626)
(10.0273 0.0580534 -0.0750163)
(10.037 0.0610988 -0.07246)
(10.0442 0.0643491 -0.0710447)
(10.0506 0.0674851 -0.06976)
(10.057 0.0705235 -0.0685162)
(10.0631 0.073738 -0.0673261)
(10.0688 0.0773737 -0.0661985)
(10.0743 0.0816159 -0.0651256)
(10.0798 0.0864829 -0.0640869)
(10.0859 0.0919565 -0.0630583)
(10.0926 0.0977809 -0.0620147)
(10.1005 0.103647 -0.0609326)
(10.1093 0.108951 -0.0597905)
(10.1193 0.11341 -0.0580083)
(9.98237 0.0133243 -0.0974101)
(9.99967 0.0355559 -0.0983662)
(10.0071 0.0435541 -0.0970177)
(10.0136 0.0545918 -0.0812494)
(10.0198 0.0555263 -0.074823)
(10.0298 0.0586353 -0.0723202)
(10.0372 0.0616924 -0.0709175)
(10.0436 0.0648039 -0.0696325)
(10.0501 0.067918 -0.0683832)
(10.0564 0.0711781 -0.067178)
(10.0625 0.0747699 -0.0660261)
(10.0684 0.0788582 -0.0649216)
(10.0743 0.0834366 -0.0638467)
(10.0807 0.0884785 -0.0627803)
(10.0876 0.0937146 -0.0617016)
(10.0955 0.0989769 -0.0605917)
(10.104 0.103728 -0.0594338)
(10.1135 0.107965 -0.0576609)
(9.98148 0.0122776 -0.0960416)
(9.99737 0.0320948 -0.0971588)
(10.0038 0.0403695 -0.0960583)
(10.009 0.0497377 -0.081515)
(10.0114 0.0520978 -0.0746347)
(10.0225 0.0549677 -0.0721696)
(10.0302 0.0579483 -0.0707715)
(10.0369 0.0611761 -0.0694872)
(10.0435 0.0644568 -0.0682329)
(10.0501 0.0678356 -0.0670147)
(10.0565 0.0714401 -0.065841)
(10.0628 0.0754234 -0.0647078)
(10.0691 0.0797581 -0.0636005)
(10.0758 0.0844395 -0.062501)
(10.0829 0.0892076 -0.0613922)
(10.0907 0.0939912 -0.0602589)
(10.099 0.0983228 -0.0590887)
(10.1082 0.102337 -0.0573248)
(9.98228 0.010493 -0.0948668)
(9.99558 0.0289081 -0.096204)
(9.99791 0.0355148 -0.0952214)
(10.0022 0.0451405 -0.0809188)
(10.0078 0.0494839 -0.0742579)
(10.018 0.0521054 -0.0720177)
(10.0254 0.0550596 -0.0706303)
(10.032 0.0582125 -0.0693423)
(10.0386 0.0614385 -0.0680844)
(10.0451 0.0647579 -0.0668562)
(10.0516 0.068241 -0.0656654)
(10.058 0.0720181 -0.0645102)
(10.0645 0.0760473 -0.0633784)
(10.0713 0.0803416 -0.062255)
(10.0784 0.0846414 -0.0611258)
(10.0862 0.0889567 -0.0599793)
(10.0943 0.0928498 -0.0588061)
(10.1032 0.0965594 -0.0570572)
(9.98382 0.00978313 -0.0949004)
(9.99455 0.0256745 -0.0962888)
(9.99553 0.0328063 -0.0954535)
(9.99881 0.0424391 -0.0812177)
(10.0024 0.0462665 -0.0743007)
(10.0125 0.0488647 -0.0719136)
(10.0199 0.0516689 -0.0705188)
(10.0265 0.0547447 -0.0692276)
(10.0331 0.0579471 -0.0679631)
(10.0398 0.0612341 -0.0667243)
(10.0465 0.0646245 -0.0655169)
(10.0532 0.0682269 -0.0643404)
(10.06 0.0719956 -0.0631859)
(10.067 0.0759607 -0.062041)
(10.0744 0.0798641 -0.0608941)
(10.0823 0.0837783 -0.0597361)
(10.0906 0.0872648 -0.0585596)
(10.0994 0.0906606 -0.056822)
(9.9835 0.00960846 -0.0926043)
(9.99246 0.0229034 -0.0943627)
(9.99143 0.0320539 -0.0936636)
(9.99328 0.040364 -0.0801239)
(9.99805 0.0432554 -0.0738369)
(10.0079 0.0462163 -0.0717023)
(10.0155 0.0488941 -0.0703115)
(10.0224 0.0518238 -0.0690107)
(10.0292 0.0549149 -0.0677349)
(10.0362 0.0580925 -0.0664811)
(10.0431 0.0613201 -0.065254)
(10.0502 0.064676 -0.0640525)
(10.0574 0.0681006 -0.0628692)
(10.0648 0.0716521 -0.0616948)
(10.0725 0.0750911 -0.0605204)
(10.0806 0.078539 -0.0593393)
(10.089 0.081557 -0.0581473)
(10.0979 0.0845642 -0.0564045)
(9.98025 0.00858856 -0.0904764)
(9.99313 0.0193668 -0.0924751)
(9.9926 0.0273459 -0.0921586)
(9.99365 0.0355818 -0.0797971)
(9.99352 0.0391558 -0.0737051)
(10.0043 0.0413276 -0.0715119)
(10.0121 0.0440929 -0.0701301)
(10.0194 0.0468897 -0.068811)
(10.0267 0.0497691 -0.0675173)
(10.034 0.0526973 -0.0662507)
(10.0413 0.0556502 -0.0650096)
(10.0488 0.0586988 -0.0637905)
(10.0563 0.0617758 -0.062588)
(10.0641 0.0649374 -0.0613957)
(10.072 0.067971 -0.0602075)
(10.0802 0.0710092 -0.0590191)
(10.0887 0.0736566 -0.057828)
(10.0974 0.0763169 -0.0560969)
(9.97882 0.00833468 -0.0885807)
(9.99501 0.01777 -0.0910266)
(9.99144 0.0247247 -0.0909903)
(9.99158 0.0296917 -0.0787898)
(9.99533 0.0353274 -0.0734076)
(10.0046 0.0367429 -0.0713297)
(10.0127 0.0392748 -0.0699588)
(10.02 0.0420144 -0.0686061)
(10.0273 0.0447301 -0.0672853)
(10.0346 0.0474328 -0.0660073)
(10.042 0.050129 -0.0647547)
(10.0494 0.0528774 -0.0635211)
(10.057 0.0555982 -0.0623034)
(10.0647 0.058356 -0.0610982)
(10.0726 0.060952 -0.059902)
(10.0806 0.0635425 -0.0587122)
(10.0887 0.0657514 -0.0575275)
(10.0971 0.0679963 -0.0558133)
(9.9773 0.00793745 -0.0871322)
(9.99597 0.0150213 -0.0896691)
(9.99052 0.020451 -0.0900528)
(9.99062 0.0251259 -0.07824)
(9.99497 0.0289046 -0.0732456)
(10.0026 0.0313801 -0.0711617)
(10.0107 0.0336767 -0.0696936)
(10.0181 0.0358546 -0.0683535)
(10.0253 0.0380487 -0.0670473)
(10.0326 0.0403192 -0.0657629)
(10.0401 0.0426096 -0.064499)
(10.0476 0.0449247 -0.0632538)
(10.0552 0.0471723 -0.0620255)
(10.0628 0.0494234 -0.0608126)
(10.0706 0.0515022 -0.0596137)
(10.0784 0.0535765 -0.0584278)
(10.0863 0.0552989 -0.0572545)
(10.0943 0.0570839 -0.0555611)
(9.97602 0.00694633 -0.0860037)
(9.99695 0.0124044 -0.0886957)
(9.98926 0.0162826 -0.0894279)
(9.98874 0.0186902 -0.07799)
(9.9922 0.0216177 -0.0726603)
(10.0004 0.0237743 -0.0708606)
(10.0078 0.0261397 -0.0695104)
(10.0149 0.0278637 -0.0681427)
(10.0224 0.0296669 -0.0667985)
(10.0299 0.0315941 -0.0655002)
(10.0376 0.0335297 -0.0642296)
(10.0452 0.0354487 -0.0629794)
(10.0529 0.0372711 -0.0617471)
(10.0605 0.0390734 -0.060533)
(10.0683 0.0407094 -0.0593374)
(10.076 0.0423352 -0.0581609)
(10.0839 0.043649 -0.0570035)
(10.0917 0.0450196 -0.0553343)
(9.97468 0.00651737 -0.0852265)
(9.99767 0.00836724 -0.0881219)
(9.98959 0.0114041 -0.0891032)
(9.98775 0.0100209 -0.0778482)
(9.99164 0.0157682 -0.0726806)
(9.99842 0.0165928 -0.070781)
(10.0059 0.0183501 -0.0693014)
(10.0129 0.0191536 -0.0679029)
(10.0207 0.0203761 -0.0665419)
(10.0286 0.0218328 -0.0652389)
(10.0365 0.023279 -0.0639689)
(10.0442 0.0246716 -0.0627201)
(10.052 0.0259538 -0.0614899)
(10.0598 0.0272065 -0.0602804)
(10.0676 0.0283061 -0.0590943)
(10.0753 0.0293952 -0.0579332)
(10.0831 0.0302085 -0.0567972)
(10.0908 0.0310784 -0.0551563)
(9.97145 0.00532809 -0.0849676)
(9.99896 0.00268072 -0.0882108)
(9.98485 0.00357051 -0.0891428)
(9.98542 0.000846847 -0.078842)
(9.9975 0.00358339 -0.0726447)
(10.0017 0.0044494 -0.0706564)
(10.0082 0.00543203 -0.0691919)
(10.0148 0.00609483 -0.0677812)
(10.0235 0.00693672 -0.0663759)
(10.0319 0.00787408 -0.0650584)
(10.0397 0.00879722 -0.0637888)
(10.0474 0.00969966 -0.0625444)
(10.0552 0.010525 -0.0613205)
(10.0629 0.0113192 -0.0601207)
(10.0706 0.0119867 -0.0589491)
(10.0782 0.0126394 -0.057808)
(10.0857 0.0130803 -0.0566974)
(10.093 0.0135598 -0.0550884)
(9.97789 0.00312946 -0.0853243)
(9.99808 -0.00053398 -0.0883203)
(9.9879 -0.0027143 -0.0887972)
(9.98902 -0.000568752 -0.0785188)
(10.0001 -0.00356891 -0.0725623)
(10.005 -0.00386084 -0.070518)
(10.0119 -0.00434831 -0.0690757)
(10.0187 -0.00359972 -0.0676738)
(10.027 -0.00322266 -0.0662813)
(10.0351 -0.00299767 -0.0649619)
(10.0429 -0.00272961 -0.0636881)
(10.0506 -0.00236355 -0.0624447)
(10.0582 -0.00197585 -0.0612277)
(10.0657 -0.00157782 -0.0600393)
(10.0732 -0.00127459 -0.058882)
(10.0805 -0.00101283 -0.0577573)
(10.0878 -0.000939093 -0.0566663)
(10.0948 -0.000875063 -0.0550817)
(9.97735 0.000723753 -0.0862294)
(9.99719 -0.00329567 -0.0888628)
(9.99334 -0.00793719 -0.0893406)
(9.99181 -0.00771166 -0.0778139)
(9.99797 -0.0125482 -0.0725661)
(10.0049 -0.012822 -0.0705374)
(10.0134 -0.0131646 -0.0690556)
(10.0211 -0.0129611 -0.0676493)
(10.0291 -0.0130209 -0.0662718)
(10.0372 -0.0131556 -0.064948)
(10.0453 -0.013203 -0.0636649)
(10.0532 -0.013127 -0.062416)
(10.061 -0.0129709 -0.0611998)
(10.0686 -0.0127507 -0.0600177)
(10.076 -0.0125373 -0.0588717)
(10.0832 -0.0122982 -0.0577613)
(10.0903 -0.0121759 -0.0566859)
(10.0971 -0.0121339 -0.0551193)
(9.97793 -0.000744353 -0.0872099)
(9.99732 -0.00867532 -0.0897209)
(9.99439 -0.0141852 -0.0899263)
(9.99544 -0.0161485 -0.0779239)
(10.0026 -0.0190614 -0.0723996)
(10.0116 -0.0196797 -0.0705073)
(10.02 -0.020154 -0.0691037)
(10.0275 -0.0207097 -0.067687)
(10.0355 -0.0212001 -0.0662986)
(10.0438 -0.0215503 -0.0649678)
(10.052 -0.0217781 -0.0636785)
(10.06 -0.0218656 -0.0624261)
(10.068 -0.0218934 -0.0612088)
(10.0757 -0.0218578 -0.0600274)
(10.0833 -0.0218613 -0.0588805)
(10.0906 -0.0220044 -0.0577696)
(10.0975 -0.0223407 -0.0566954)
(10.1041 -0.022852 -0.055134)
(9.97869 -0.00245297 -0.0884963)
(9.99796 -0.013191 -0.090725)
(9.99849 -0.0188775 -0.0906244)
(10.0008 -0.0237443 -0.0781525)
(10.0083 -0.0256284 -0.072517)
(10.0181 -0.0262457 -0.0705702)
(10.0267 -0.0276903 -0.069169)
(10.0342 -0.028521 -0.067732)
(10.0424 -0.029186 -0.0663338)
(10.0507 -0.0298145 -0.0649949)
(10.059 -0.0302282 -0.0637003)
(10.0671 -0.0306156 -0.0624467)
(10.0751 -0.0306565 -0.0612358)
(10.0825 -0.0307012 -0.0600653)
(10.0899 -0.0302619 -0.0589347)
(10.0963 -0.0295975 -0.0578236)
(10.1029 -0.0288715 -0.056748)
(10.1091 -0.0298363 -0.0552309)
(9.98066 -0.00458161 -0.0900003)
(9.99962 -0.0184046 -0.0920539)
(10.003 -0.0252954 -0.0915163)
(10.0063 -0.0291587 -0.0783638)
(10.0149 -0.0316153 -0.07276)
(10.0247 -0.031624 -0.0706645)
(10.0335 -0.033261 -0.0692231)
(10.0415 -0.03416 -0.067795)
(10.0496 -0.0348854 -0.0663932)
(10.0583 -0.0354113 -0.065045)
(10.0663 -0.0359397 -0.06374)
(10.0752 -0.0361494 -0.0624784)
(10.0826 -0.0364013 -0.0612455)
(10.0919 -0.0360003 -0.0600416)
(10.0983 -0.0355634 -0.0588163)
(10.1071 -0.0367474 -0.0576472)
(10.1111 -0.0355963 -0.0565585)
(10.1158 -0.0382466 -0.0550816)
(9.98131 -0.00721435 -0.0918476)
(10.0016 -0.0252954 -0.0933679)
(10.0105 -0.0311262 -0.092474)
(10.0152 -0.0374298 -0.0787694)
(10.0219 -0.037361 -0.0727666)
(10.033 -0.0383369 -0.0706854)
(10.0418 -0.0403428 -0.069222)
(10.05 -0.0418341 -0.0678092)
(10.0585 -0.0428926 -0.0664189)
(10.0669 -0.0437342 -0.0650657)
(10.0756 -0.044509 -0.0637591)
(10.0838 -0.0449748 -0.0624973)
(10.0926 -0.045523 -0.0612742)
(10.1006 -0.0452481 -0.0600627)
(10.1088 -0.0443035 -0.0589571)
(10.1151 -0.0433099 -0.057987)
(10.1195 -0.0438932 -0.0570476)
(10.1206 -0.043086 -0.0553285)
(9.9814 -0.00997511 -0.0939937)
(10.0055 -0.0303394 -0.0950229)
(10.015 -0.0361842 -0.0934335)
(10.023 -0.0399639 -0.0797215)
(10.0348 -0.038984 -0.0730472)
(10.0437 -0.0403629 -0.0708057)
(10.0517 -0.0420121 -0.0692923)
(10.0603 -0.0433314 -0.067871)
(10.0685 -0.0442162 -0.0664738)
(10.0775 -0.0451347 -0.0651178)
(10.0854 -0.0459119 -0.0638066)
(10.0947 -0.0471978 -0.062539)
(10.1027 -0.0481411 -0.061275)
(10.1121 -0.0497122 -0.0600719)
(10.1195 -0.051985 -0.0589911)
(10.1252 -0.053948 -0.0580941)
(10.129 -0.0546926 -0.0572001)
(10.131 -0.0548382 -0.0555982)
(9.98198 -0.0145634 -0.0960534)
(10.0105 -0.0410589 -0.095916)
(10.0254 -0.0460934 -0.093915)
(10.0308 -0.0496278 -0.0791604)
(10.0427 -0.0497625 -0.0728639)
(10.0524 -0.0514791 -0.0707795)
(10.0612 -0.0531911 -0.0693048)
(10.0699 -0.0544917 -0.067869)
(10.0787 -0.0551796 -0.0664673)
(10.0874 -0.0561994 -0.0651162)
(10.0958 -0.0565965 -0.0638206)
(10.1042 -0.0584342 -0.0625698)
(10.1123 -0.0587133 -0.0613538)
(10.1207 -0.0626409 -0.0601472)
(10.1269 -0.0635217 -0.0589321)
(10.1345 -0.0645074 -0.057777)
(10.14 -0.0658997 -0.0567248)
(10.1441 -0.0655054 -0.0552469)
(9.98701 -0.0177781 -0.0960052)
(10.0195 -0.0407934 -0.0929302)
(10.0336 -0.0414656 -0.0900726)
(10.0423 -0.0435437 -0.0775019)
(10.0549 -0.0443184 -0.0725863)
(10.0647 -0.0463941 -0.0707146)
(10.0743 -0.0480572 -0.0692677)
(10.0839 -0.0493515 -0.0678186)
(10.0934 -0.0505845 -0.0664029)
(10.1023 -0.0518964 -0.0650452)
(10.111 -0.0533707 -0.0637464)
(10.1191 -0.054826 -0.0624984)
(10.1272 -0.0566113 -0.0612951)
(10.1344 -0.0583344 -0.0601314)
(10.1413 -0.0604295 -0.0590134)
(10.1467 -0.0627665 -0.0579033)
(10.1515 -0.0641313 -0.0568321)
(10.1561 -0.0644008 -0.0553278)
(10.0005 -0.0412858 -0.0931026)
(10.0496 -0.0691019 -0.0877846)
(10.0738 -0.0654671 -0.0843398)
(10.0889 -0.0631539 -0.0757595)
(10.097 -0.0646169 -0.0722853)
(10.1001 -0.065969 -0.0705085)
(10.101 -0.0661723 -0.0690648)
(10.1 -0.066246 -0.0676318)
(10.0966 -0.0664126 -0.0662249)
(10.0911 -0.0668896 -0.0648731)
(10.0835 -0.0673255 -0.0635793)
(10.0743 -0.0680839 -0.0623375)
(10.0632 -0.0687636 -0.06114)
(10.0508 -0.069957 -0.0599877)
(10.0365 -0.0711268 -0.0588733)
(10.0211 -0.072135 -0.0578011)
(10.0037 -0.0730335 -0.0567666)
(9.9862 -0.0736581 -0.0552475)
(9.8978 -0.0229964 -0.0925933)
(9.72374 -0.0372469 -0.0859701)
(9.53299 -0.0371991 -0.0822586)
(9.34627 -0.0429505 -0.0753953)
(9.16195 -0.0434027 -0.0723331)
(8.98404 -0.0437041 -0.0704478)
(8.8157 -0.0434744 -0.0689531)
(8.65565 -0.0430317 -0.067506)
(8.50275 -0.0426641 -0.0660862)
(8.35613 -0.0422945 -0.0647204)
(8.2153 -0.0419937 -0.0634121)
(8.08018 -0.0416962 -0.0621567)
(7.95001 -0.0414826 -0.0609476)
(7.82483 -0.0413594 -0.059783)
(7.70353 -0.0411832 -0.0586608)
(7.58703 -0.0410348 -0.0575822)
(7.47349 -0.0406551 -0.0565318)
(7.3661 -0.0400781 -0.0550547)
(9.82649 0.0566394 -0.000565986)
(9.50787 0.0787614 -0.00110774)
(9.1883 0.072985 -0.000789097)
(8.86737 0.0603706 -0.00107603)
(8.55861 0.0564339 -0.00108028)
(8.26378 0.0543385 -0.00107693)
(7.98266 0.05238 -0.00105212)
(7.71532 0.0508741 -0.00101337)
(7.45982 0.0494482 -0.000971532)
(7.21547 0.0487233 -0.000919857)
(6.98047 0.0474561 -0.00086139)
(6.75255 0.0479012 -0.000796758)
(6.53276 0.0464113 -0.000727263)
(6.31291 0.0499116 -0.000676689)
(6.0994 0.0467967 -0.000656372)
(5.87574 0.0582869 -0.000825327)
(5.6517 0.0490393 -0.00121113)
(5.40707 0.0790483 -0.0018146)
(10.0138 0.0600591 -0.000857587)
(10.0608 0.0731916 -0.00150337)
(10.0963 0.07568 -0.00116732)
(10.1074 0.0782318 -0.00119963)
(10.104 0.0823127 -0.00110796)
(10.0888 0.0851734 -0.00108073)
(10.0652 0.0865 -0.00105296)
(10.0358 0.0872843 -0.00101582)
(10.0008 0.0885042 -0.000974205)
(9.96171 0.0893622 -0.000925985)
(9.91708 0.091303 -0.000869124)
(9.86923 0.0922933 -0.000810108)
(9.81534 0.0960238 -0.000743967)
(9.75828 0.0977871 -0.000702143)
(9.69305 0.105454 -0.000692706)
(9.6235 0.109269 -0.000849998)
(9.54151 0.124089 -0.00122837)
(9.45136 0.131753 -0.00168259)
(10.0122 0.0445812 -0.000242575)
(10.033 0.070611 -0.000924244)
(10.0632 0.0677534 -0.000557248)
(10.0836 0.0644521 -0.00103899)
(10.0985 0.067824 -0.00105153)
(10.1092 0.0716469 -0.00106356)
(10.1186 0.0738328 -0.00104631)
(10.1277 0.0758013 -0.00101058)
(10.1363 0.0777526 -0.000968843)
(10.1436 0.0803902 -0.000922203)
(10.1496 0.0828244 -0.00086989)
(10.1537 0.0865876 -0.000817848)
(10.1566 0.089992 -0.000767659)
(10.1567 0.0964506 -0.000743051)
(10.1561 0.102345 -0.000766571)
(10.1517 0.113949 -0.000909273)
(10.1487 0.125506 -0.00120522)
(10.1413 0.142076 -0.00155823)
(10.0207 0.0432704 0.000317265)
(10.0356 0.0622799 -0.000148043)
(10.0615 0.0661355 0.000374879)
(10.0785 0.0671253 -0.00087139)
(10.0925 0.0703073 -0.000959284)
(10.1013 0.0746 -0.00102241)
(10.1091 0.0772601 -0.0010127)
(10.1173 0.0792003 -0.000982847)
(10.1254 0.0812614 -0.000947295)
(10.133 0.0833466 -0.000907824)
(10.1397 0.0860965 -0.000863624)
(10.1457 0.089109 -0.000821099)
(10.1509 0.0934794 -0.000786925)
(10.1555 0.0987266 -0.000779207)
(10.1595 0.106227 -0.000822894)
(10.1636 0.115799 -0.000950926)
(10.1684 0.127625 -0.00118377)
(10.1753 0.141943 -0.00147403)
(10.0238 0.0326368 0.000405424)
(10.0383 0.0638984 0.000178193)
(10.0598 0.0661262 0.000622376)
(10.0773 0.0641367 -0.000721326)
(10.0905 0.0661742 -0.00092068)
(10.0988 0.0709385 -0.00100703)
(10.1059 0.0729046 -0.00101173)
(10.1135 0.0749962 -0.000984179)
(10.121 0.0770952 -0.000948908)
(10.1278 0.079484 -0.000912246)
(10.1338 0.082212 -0.000874343)
(10.1392 0.0857348 -0.000840581)
(10.1437 0.0899924 -0.000818495)
(10.1478 0.0956199 -0.000823339)
(10.1515 0.102642 -0.000874109)
(10.1554 0.111514 -0.000988504)
(10.1597 0.121961 -0.001177)
(10.1655 0.133027 -0.00141956)
(10.0233 0.0281832 0.000410062)
(10.0347 0.0532 0.00014353)
(10.0542 0.0604685 0.000623551)
(10.0705 0.0611505 -0.000962742)
(10.0865 0.0633514 -0.000939459)
(10.095 0.0680918 -0.000991652)
(10.1014 0.0705175 -0.00100054)
(10.1091 0.073079 -0.00097621)
(10.1166 0.0755582 -0.00094549)
(10.1235 0.0781558 -0.000914832)
(10.1296 0.0811892 -0.000884776)
(10.135 0.0848241 -0.000859725)
(10.1398 0.0892303 -0.000848334)
(10.1442 0.0947709 -0.000861884)
(10.1483 0.101442 -0.000914384)
(10.1527 0.109625 -0.00101716)
(10.1571 0.118606 -0.00117438)
(10.1624 0.128365 -0.00137766)
(10.0225 0.0230201 0.000425352)
(10.0307 0.0480866 0.000169761)
(10.0474 0.0571508 0.000685764)
(10.0639 0.0601671 -0.000949221)
(10.0804 0.0622589 -0.000920495)
(10.089 0.0660673 -0.000979545)
(10.0954 0.0689471 -0.000997122)
(10.103 0.0716471 -0.000976559)
(10.1104 0.0742234 -0.000949131)
(10.1173 0.0769378 -0.000922555)
(10.1235 0.0800093 -0.000898352)
(10.1291 0.083673 -0.000881035)
(10.1342 0.0880459 -0.000877873)
(10.1391 0.0933799 -0.000897386)
(10.1436 0.0996439 -0.000949431)
(10.1484 0.107032 -0.00104178)
(10.1531 0.115021 -0.00117552)
(10.1586 0.123828 -0.00134701)
(10.022 0.0193942 0.00044933)
(10.027 0.0415011 0.000211959)
(10.0415 0.0523527 0.000762006)
(10.0568 0.0557919 -0.00095126)
(10.0741 0.0588123 -0.000885703)
(10.0829 0.0628833 -0.000969181)
(10.0888 0.0660479 -0.000992421)
(10.0962 0.0688807 -0.000974589)
(10.1035 0.0716032 -0.000950249)
(10.1104 0.0744427 -0.000928615)
(10.1167 0.0776071 -0.000911143)
(10.1226 0.0813255 -0.000901031)
(10.1281 0.0856546 -0.000904463)
(10.1334 0.0907976 -0.000928183)
(10.1385 0.0966528 -0.000978862)
(10.1437 0.103401 -0.00106166)
(10.149 0.110614 -0.00117636)
(10.1547 0.118547 -0.00132229)
(10.0219 0.0166738 0.000468241)
(10.0235 0.0357501 0.000249995)
(10.0364 0.047416 0.000828729)
(10.0496 0.0519962 -0.000968034)
(10.0677 0.0559061 -0.000866)
(10.0767 0.0598795 -0.000960556)
(10.0825 0.0631603 -0.000986408)
(10.0899 0.0662462 -0.000973592)
(10.0972 0.069194 -0.000953891)
(10.1042 0.0722271 -0.000936904)
(10.1108 0.0755092 -0.000924758)
(10.1171 0.079253 -0.000920662)
(10.123 0.0834936 -0.00092946)
(10.1287 0.0884039 -0.000956075)
(10.1344 0.0938538 -0.00100484)
(10.1402 0.100028 -0.00107879)
(10.1459 0.106525 -0.00117734)
(10.1521 0.113688 -0.00130222)
(10.0228 0.0150649 0.000515733)
(10.023 0.0308899 0.000270502)
(10.0329 0.043256 0.000901258)
(10.043 0.0496498 -0.00100941)
(10.0618 0.0532929 -0.000851932)
(10.071 0.0570946 -0.000957512)
(10.0769 0.0603152 -0.000982297)
(10.0843 0.0634631 -0.000973267)
(10.0917 0.0664978 -0.000957787)
(10.0989 0.0695898 -0.000945137)
(10.1057 0.0728813 -0.000938108)
(10.1122 0.0765534 -0.000939372)
(10.1185 0.0806213 -0.000952396)
(10.1247 0.0852354 -0.000980707)
(10.1307 0.0902577 -0.00102712)
(10.1369 0.0958735 -0.00109325)
(10.143 0.101697 -0.00117828)
(10.1495 0.108118 -0.00128576)
(10.0237 0.0124717 0.000509177)
(10.0226 0.0261069 0.000194333)
(10.0298 0.0386507 0.000934152)
(10.0386 0.0463441 -0.000912043)
(10.0565 0.0501357 -0.000875298)
(10.0658 0.0538196 -0.000948127)
(10.0716 0.0572802 -0.000979282)
(10.0791 0.0604626 -0.000975891)
(10.0865 0.0635496 -0.000963877)
(10.0938 0.0666678 -0.000954765)
(10.1008 0.0699389 -0.000951598)
(10.1076 0.0735277 -0.000956473)
(10.1141 0.077425 -0.000972027)
(10.1206 0.0817647 -0.00100094)
(10.1269 0.0863948 -0.00104476)
(10.1334 0.0915132 -0.0011041)
(10.1398 0.0967301 -0.00117805)
(10.1466 0.102468 -0.00127113)
(10.0226 0.0111084 0.000450198)
(10.0168 0.0242547 9.38045e-05)
(10.0246 0.0351051 0.0009028)
(10.0322 0.0419223 -0.000879299)
(10.0495 0.0467132 -0.000856677)
(10.059 0.050621 -0.000940949)
(10.065 0.0540245 -0.000972859)
(10.0725 0.057249 -0.000970961)
(10.0801 0.060381 -0.000962451)
(10.0876 0.0635527 -0.000957364)
(10.0948 0.0668107 -0.000958402)
(10.1019 0.0703001 -0.000967214)
(10.1089 0.0740075 -0.000985494)
(10.1157 0.0780612 -0.00101483)
(10.1225 0.082295 -0.00105644)
(10.1295 0.0869275 -0.0011106)
(10.1363 0.0915634 -0.00117631)
(10.1435 0.0966628 -0.00125878)
(10.0243 0.010896 0.000509015)
(10.0191 0.0247012 0.000200819)
(10.0245 0.0330679 0.00103291)
(10.0305 0.0378631 -0.000880251)
(10.0474 0.0433804 -0.000839407)
(10.0562 0.0473665 -0.000915541)
(10.0619 0.0503298 -0.00095831)
(10.0695 0.053376 -0.000963698)
(10.0771 0.056532 -0.000959335)
(10.0846 0.0597466 -0.000958006)
(10.092 0.0629837 -0.000962742)
(10.0993 0.0663651 -0.000974631)
(10.1066 0.0698844 -0.00099491)
(10.1138 0.0736759 -0.00102455)
(10.121 0.0775718 -0.0010643)
(10.1283 0.0817874 -0.00111426)
(10.1356 0.085942 -0.00117344)
(10.1431 0.0904933 -0.00124749)
(10.0253 0.00880645 0.000663714)
(10.0224 0.0226551 0.000511033)
(10.0262 0.0296049 0.00125396)
(10.0303 0.0356937 -0.0010317)
(10.0482 0.0406696 -0.000786084)
(10.0563 0.0436184 -0.000904832)
(10.0617 0.0477922 -0.000944369)
(10.0694 0.0502838 -0.000951767)
(10.0772 0.0532105 -0.000952392)
(10.0848 0.0562596 -0.000956796)
(10.0923 0.0592909 -0.000966618)
(10.0998 0.0624092 -0.000982374)
(10.1072 0.0655984 -0.00100479)
(10.1147 0.0689939 -0.0010345)
(10.1221 0.0724215 -0.0010721)
(10.1296 0.0761009 -0.00111775)
(10.1371 0.079643 -0.00117055)
(10.1446 0.0835331 -0.00123637)
(10.0247 0.00824041 0.000723287)
(10.0225 0.0185694 0.000707751)
(10.0246 0.025895 0.00146217)
(10.0294 0.031186 -0.000969321)
(10.0465 0.0356696 -0.000773848)
(10.0554 0.0383493 -0.000878747)
(10.0611 0.0414862 -0.000937772)
(10.0678 0.0443609 -0.000951875)
(10.076 0.0472111 -0.000953629)
(10.0838 0.0500518 -0.000959907)
(10.0915 0.0528607 -0.000973013)
(10.0991 0.0557229 -0.000991622)
(10.1067 0.0586017 -0.00101518)
(10.1143 0.0616162 -0.00104383)
(10.1219 0.0646026 -0.00107811)
(10.1295 0.0677669 -0.0011184)
(10.137 0.0707433 -0.00116421)
(10.1446 0.0739932 -0.00122158)
(10.0253 0.00754991 0.000784868)
(10.0238 0.0151931 0.000813339)
(10.0246 0.0213879 0.0016718)
(10.03 0.0261593 -0.000858809)
(10.0458 0.0300202 -0.000779413)
(10.0525 0.0329425 -0.000852855)
(10.0583 0.0356365 -0.000921121)
(10.0663 0.0384006 -0.000937109)
(10.0743 0.0411065 -0.000941246)
(10.0821 0.0437541 -0.00095171)
(10.0898 0.046329 -0.000969277)
(10.0976 0.048904 -0.000990994)
(10.1053 0.0514315 -0.00101569)
(10.113 0.0540261 -0.00104337)
(10.1207 0.0565254 -0.00107471)
(10.1284 0.0591353 -0.00111028)
(10.1359 0.0614985 -0.0011501)
(10.1435 0.0640791 -0.00120039)
(10.026 0.00665628 0.000835329)
(10.0247 0.0116576 0.000898551)
(10.0241 0.0166102 0.00184926)
(10.0272 0.019308 -0.000949561)
(10.0437 0.0232144 -0.000826822)
(10.0521 0.0249603 -0.000872964)
(10.0579 0.0279722 -0.000918402)
(10.0646 0.0299115 -0.000922848)
(10.0731 0.0321591 -0.000931347)
(10.081 0.0344169 -0.00094845)
(10.0887 0.0365639 -0.000970908)
(10.0964 0.0386741 -0.000994999)
(10.1042 0.0407094 -0.00102014)
(10.1119 0.0427683 -0.00104676)
(10.1196 0.0446984 -0.00107551)
(10.1272 0.0466885 -0.00110698)
(10.1347 0.048419 -0.00114132)
(10.1422 0.0503179 -0.00118523)
(10.0265 0.00602388 0.000891557)
(10.0256 0.00913361 0.00101502)
(10.0251 0.0126921 0.00206075)
(10.0281 0.0151066 -0.000986117)
(10.0448 0.0162836 -0.000778935)
(10.05 0.0174805 -0.000846433)
(10.0563 0.0187219 -0.000915156)
(10.0636 0.0203842 -0.000899918)
(10.0722 0.0221983 -0.00091413)
(10.08 0.0239595 -0.000939077)
(10.0877 0.0256259 -0.000965504)
(10.0955 0.0272604 -0.000990295)
(10.1033 0.0288156 -0.0010149)
(10.111 0.0303633 -0.00104036)
(10.1187 0.0317636 -0.00106697)
(10.1264 0.0331796 -0.00109483)
(10.1339 0.0343407 -0.00112404)
(10.1412 0.0356204 -0.00116135)
(10.0252 0.00371696 0.000969905)
(10.0286 0.00470854 0.00119704)
(10.0276 0.00379055 0.00231286)
(10.0345 0.00811556 0.000201963)
(10.0447 0.0066548 -0.000878875)
(10.0532 0.00741357 -0.00087811)
(10.0593 0.00812714 -0.00093033)
(10.067 0.00900832 -0.000871093)
(10.0758 0.00994765 -0.000913748)
(10.0836 0.0109133 -0.000951218)
(10.0913 0.0118655 -0.000977321)
(10.099 0.012811 -0.000998824)
(10.1067 0.0136824 -0.00102076)
(10.1144 0.014529 -0.00104422)
(10.122 0.0152375 -0.0010683)
(10.1294 0.0159478 -0.0010923)
(10.1367 0.0164391 -0.00111609)
(10.1438 0.0170261 -0.00114673)
(10.0244 0.00297279 0.00081168)
(10.0257 -0.00144709 0.00110469)
(10.0259 -0.00244307 0.00201742)
(10.0333 -0.00793774 9.36935e-05)
(10.0437 -0.00572819 -0.000864895)
(10.0526 -0.00558052 -0.00087668)
(10.0591 -0.00488401 -0.000928386)
(10.0668 -0.00437892 -0.000888918)
(10.0756 -0.00399346 -0.000919259)
(10.0835 -0.00349895 -0.000951643)
(10.0912 -0.00294858 -0.000978142)
(10.0989 -0.0023906 -0.00100068)
(10.1066 -0.00190707 -0.0010221)
(10.1141 -0.00146882 -0.00104383)
(10.1215 -0.00115919 -0.0010658)
(10.1288 -0.000861912 -0.00108744)
(10.1359 -0.000724696 -0.00110813)
(10.1428 -0.000508884 -0.00113454)
(10.0258 0.000895247 0.000833119)
(10.0253 -0.00414741 0.000975845)
(10.0266 -0.00903169 0.00181914)
(10.0312 -0.01204 -0.00086525)
(10.0481 -0.0122666 -0.000813174)
(10.055 -0.0121832 -0.000845539)
(10.0621 -0.0123067 -0.000902477)
(10.0693 -0.0123811 -0.000906691)
(10.0781 -0.0123708 -0.000918879)
(10.0863 -0.0122443 -0.000942931)
(10.0941 -0.0120676 -0.00097173)
(10.1017 -0.0118932 -0.000999549)
(10.1093 -0.0118073 -0.00102479)
(10.1167 -0.0117951 -0.00104687)
(10.1241 -0.0119418 -0.00106473)
(10.1312 -0.0121294 -0.00107882)
(10.1383 -0.0124511 -0.00109115)
(10.1451 -0.0125916 -0.00111)
(10.025 -0.00107586 0.000847073)
(10.0248 -0.00894345 0.000948927)
(10.0272 -0.0154389 0.00172989)
(10.0337 -0.0183871 -0.000785838)
(10.0511 -0.0214252 -0.000821453)