/*--------------------------------*- C++ -*----------------------------------*\
| =========                 |                                                 |
| \\      /  F ield         | OpenFOAM: The Open Source CFD Toolbox           |
|  \\    /   O peration     | Version:  2112                                  |
|   \\  /    A nd           | Website:  www.openfoam.com                      |
|    \\/     M anipulation  |                                                 |
\*---------------------------------------------------------------------------*/
FoamFile
{
    version     2.0;
    format      ascii;
    arch        "LSB;label=32;scalar=64";
    class       volScalarField;
    location    "0.13";
    object      p;
}
// * * * * * * * * * * * * * * * * * * * * * * * * * * * * * * * * * * * * * //

dimensions      [0 2 -2 0 0 0 0];

internalField   nonuniform List<scalar> 
12225
(
-3.33966
-3.99814
-4.32799
-4.46433
-4.56984
-4.67988
-4.78297
-4.87423
-4.9568
-5.03542
-5.11039
-5.18431
-5.25366
-5.32582
-5.39018
-5.46689
-5.52493
-5.61365
-3.50548
-4.01825
-4.32104
-4.45823
-4.56456
-4.67403
-4.77672
-4.868
-4.95094
-5.02948
-5.10472
-5.17758
-5.24795
-5.31683
-5.38527
-5.4512
-5.52215
-5.57163
-3.67881
-4.04278
-4.31965
-4.46222
-4.57081
-4.67872
-4.77949
-4.86968
-4.95169
-5.02943
-5.10342
-5.17541
-5.24428
-5.31242
-5.37849
-5.44351
-5.5083
-5.56337
-3.84584
-4.09006
-4.33403
-4.47456
-4.58172
-4.68588
-4.78348
-4.87177
-4.95266
-5.02928
-5.10236
-5.17319
-5.24133
-5.30806
-5.37305
-5.43633
-5.49866
-5.55888
-3.9836
-4.15659
-4.36092
-4.49274
-4.59645
-4.69642
-4.79059
-4.87669
-4.95622
-5.03158
-5.1036
-5.17316
-5.24029
-5.30553
-5.36925
-5.43073
-5.49172
-5.55012
-4.09517
-4.22941
-4.39592
-4.51632
-4.61538
-4.71085
-4.80125
-4.88478
-4.96257
-5.03641
-5.10707
-5.1752
-5.24102
-5.30473
-5.36685
-5.42666
-5.48538
-5.54066
-4.19734
-4.29915
-4.43535
-4.5442
-4.63784
-4.72849
-4.81483
-4.89548
-4.97119
-5.04327
-5.11234
-5.1789
-5.24319
-5.30529
-5.36564
-5.4236
-5.47986
-5.53276
-4.29382
-4.36334
-4.47666
-4.57467
-4.66255
-4.74827
-4.83048
-4.90809
-4.98153
-5.05168
-5.11901
-5.18388
-5.24649
-5.30689
-5.36534
-5.42136
-5.47535
-5.52608
-4.38015
-4.42363
-4.51821
-4.60613
-4.68825
-4.76915
-4.84735
-4.92191
-4.99298
-5.06111
-5.1266
-5.18971
-5.25055
-5.30917
-5.36566
-5.41973
-5.47154
-5.52011
-4.45248
-4.48069
-4.55881
-4.63741
-4.71394
-4.79023
-4.86462
-4.93621
-5.00489
-5.07097
-5.13458
-5.19588
-5.25492
-5.31171
-5.36627
-5.41838
-5.4681
-5.5146
-4.51237
-4.53323
-4.59757
-4.6678
-4.73894
-4.81081
-4.88158
-4.95029
-5.01662
-5.08065
-5.14238
-5.20187
-5.25911
-5.31409
-5.36676
-5.41697
-5.46471
-5.50926
-4.56061
-4.57719
-4.63126
-4.69455
-4.76087
-4.82882
-4.89641
-4.96255
-5.02676
-5.08893
-5.14895
-5.20681
-5.26244
-5.31579
-5.3668
-5.41534
-5.4614
-5.50429
-4.60401
-4.61738
-4.66272
-4.71982
-4.78154
-4.84568
-4.91019
-4.97383
-5.03597
-5.09632
-5.15468
-5.21095
-5.26503
-5.31684
-5.36629
-5.41328
-5.45778
-5.4992
-4.64853
-4.65928
-4.69648
-4.74714
-4.80379
-4.86368
-4.92471
-4.98551
-5.04528
-5.10355
-5.16004
-5.21454
-5.26691
-5.31704
-5.36482
-5.41018
-5.45305
-5.49299
-4.6925
-4.70131
-4.73155
-4.77578
-4.82708
-4.88234
-4.9395
-4.99709
-5.05414
-5.11005
-5.16441
-5.21695
-5.26745
-5.31578
-5.36183
-5.40551
-5.44676
-5.48525
-4.73375
-4.74122
-4.76597
-4.80426
-4.85027
-4.90081
-4.95387
-5.00796
-5.062
-5.11528
-5.16728
-5.21766
-5.26616
-5.31261
-5.35687
-5.39887
-5.43855
-5.47567
-4.76923
-4.77581
-4.7966
-4.82997
-4.87127
-4.91746
-4.96657
-5.01717
-5.06812
-5.11865
-5.16818
-5.2163
-5.26272
-5.30725
-5.34974
-5.39012
-5.42832
-5.46417
-4.79411
-4.8002
-4.81857
-4.84862
-4.88652
-4.92937
-4.97532
-5.02297
-5.07122
-5.11926
-5.16648
-5.21247
-5.25693
-5.29963
-5.34045
-5.37931
-5.41616
-5.4509
-4.80044
-4.80643
-4.8242
-4.85328
-4.88998
-4.93147
-4.97593
-5.022
-5.06864
-5.11504
-5.16065
-5.20506
-5.248
-5.28927
-5.32876
-5.36642
-5.40221
-5.43611
-4.78047
-4.78738
-4.80749
-4.83917
-4.87792
-4.92082
-4.96617
-5.01266
-5.05931
-5.10542
-5.15052
-5.19427
-5.23647
-5.27697
-5.3157
-5.35264
-5.38777
-5.42114
-4.74633
-4.75519
-4.77967
-4.81597
-4.85842
-4.90415
-4.95158
-4.99949
-5.047
-5.09354
-5.13875
-5.18241
-5.22437
-5.26456
-5.30295
-5.33955
-5.37437
-5.4075
-4.69924
-4.71222
-4.74381
-4.78657
-4.83378
-4.88306
-4.93313
-4.98288
-5.03158
-5.07883
-5.12443
-5.16826
-5.21026
-5.2504
-5.28871
-5.32521
-5.35996
-5.39305
-4.64013
-4.66064
-4.70245
-4.75308
-4.80553
-4.85869
-4.91174
-4.96361
-5.01374
-5.06194
-5.10819
-5.15247
-5.19478
-5.23516
-5.27366
-5.31032
-5.34523
-5.37849
-4.56849
-4.60061
-4.65666
-4.71675
-4.77477
-4.83215
-4.8886
-4.94299
-4.99488
-5.04433
-5.09152
-5.13654
-5.17945
-5.22032
-5.25923
-5.29626
-5.3315
-5.36508
-4.48293
-4.52994
-4.60729
-4.6795
-4.74355
-4.80558
-4.86595
-4.92326
-4.97715
-5.02806
-5.07639
-5.12233
-5.16601
-5.20752
-5.24697
-5.28447
-5.32013
-5.35408
-4.3817
-4.44777
-4.55751
-4.64496
-4.71529
-4.78215
-4.84668
-4.90696
-4.96281
-5.01511
-5.06453
-5.11138
-5.1558
-5.19793
-5.23791
-5.27587
-5.31195
-5.34624
-4.25158
-4.3627
-4.51486
-4.61727
-4.69301
-4.76449
-4.83302
-4.89596
-4.95341
-5.00681
-5.0571
-5.10466
-5.14966
-5.19225
-5.2326
-5.27084
-5.30722
-5.34182
-4.08585
-4.29483
-4.48916
-4.59915
-4.67731
-4.75263
-4.82475
-4.88994
-4.94869
-5.003
-5.05409
-5.10232
-5.14788
-5.19087
-5.23155
-5.26997
-5.3065
-5.34116
-3.90598
-4.25577
-4.48626
-4.5942
-4.6698
-4.74612
-4.81981
-4.88577
-4.94482
-4.99938
-5.05085
-5.09949
-5.14547
-5.18882
-5.22986
-5.26851
-5.30523
-5.33986
-3.73678
-4.22504
-4.48916
-4.59865
-4.67411
-4.75176
-4.82651
-4.89271
-4.95152
-5.00572
-5.05688
-5.10531
-5.1511
-5.19426
-5.23516
-5.27365
-5.31013
-5.34373
-6.55633
-6.56558
-6.57865
-6.5911
-6.59333
-6.57749
-6.54329
-6.50165
-6.46491
-6.44236
-6.43656
-6.4459
-6.46533
-6.48902
-6.51197
-6.52973
-6.53874
-6.53639
-6.52209
-6.49646
-6.46134
-6.4198
-6.37633
-6.33666
-6.3071
-6.29287
-6.29635
-6.30718
-6.3184
-6.32623
-6.32344
-6.30716
-6.28714
-6.28266
-6.29609
-6.31343
-6.32285
-6.32262
-6.30468
-6.27473
-6.24915
-6.24541
-6.29448
-6.38382
-6.49935
-6.63049
-6.76694
-6.9023
-7.03169
-7.15299
-7.26504
-7.36777
-7.46151
-7.54691
-7.6247
-7.69563
-7.7604
-7.81964
-7.87391
-7.92368
-7.96937
-8.01129
-8.04971
-8.08484
-8.1168
-8.14573
-8.17166
-8.19464
-8.21465
-8.23168
-8.24567
-8.25655
-8.26424
-8.26866
-8.26969
-8.26724
-8.26119
-8.25143
-8.23784
-8.22033
-8.19876
-8.17305
-8.14307
-8.10874
-8.06995
-8.0266
-7.97862
-7.9259
-7.86837
-7.80595
-7.73856
-7.66613
-7.5886
-7.50589
-7.41794
-7.3247
-7.2261
-7.1221
-7.01262
-6.89764
-6.77711
-6.65094
-6.51893
-6.38129
-6.23784
-6.08845
-5.93301
-5.77142
-5.60353
-5.42921
-5.24828
-5.06058
-4.86589
-4.664
-4.45467
-4.23764
-4.01263
-3.77934
-3.53746
-3.28662
-3.02648
-2.75665
-2.47673
-2.18634
-1.88507
-1.57254
-1.24839
-0.912275
-0.563912
-0.203149
0.170179
0.556901
0.957381
1.3713
1.79861
2.2391
2.69253
3.15853
3.63659
4.12606
4.6261
5.13572
5.6538
6.17907
6.71009
7.24526
7.78276
8.32064
8.85688
9.38941
9.9161
10.4347
10.9431
11.4389
11.9198
12.3838
12.8287
13.2525
13.6538
14.0312
14.3835
14.7097
15.0092
15.2818
15.5275
15.7467
15.9404
16.1095
16.2557
16.3819
16.4906
16.582
16.6612
16.7302
16.7991
16.8668
16.9582
17.0698
17.277
17.5881
-6.60571
-6.61342
-6.62529
-6.63736
-6.64149
-6.62512
-6.59395
-6.55704
-6.52724
-6.51143
-6.51051
-6.52166
-6.54037
-6.56203
-6.58216
-6.59673
-6.6029
-6.59927
-6.58485
-6.5593
-6.52388
-6.48126
-6.43555
-6.392
-6.35675
-6.33497
-6.32826
-6.32737
-6.32897
-6.34167
-6.35
-6.33896
-6.32117
-6.31807
-6.33481
-6.35066
-6.34242
-6.31136
-6.30176
-6.32527
-6.328
-6.33793
-6.3951
-6.48299
-6.59359
-6.71534
-6.84039
-6.96342
-7.08104
-7.19167
-7.29446
-7.38941
-7.47675
-7.55695
-7.63056
-7.69814
-7.76023
-7.81733
-7.86989
-7.91832
-7.96294
-8.00402
-8.04178
-8.07639
-8.10798
-8.13662
-8.16237
-8.18523
-8.20521
-8.22224
-8.23629
-8.24728
-8.25512
-8.25971
-8.26095
-8.25873
-8.25294
-8.24346
-8.23018
-8.21298
-8.19176
-8.16641
-8.13681
-8.10287
-8.06448
-8.02156
-7.97401
-7.92174
-7.86468
-7.80273
-7.73583
-7.6639
-7.58687
-7.50469
-7.41727
-7.32458
-7.22654
-7.12311
-7.01423
-6.89985
-6.77995
-6.65455
-6.52341
-6.38634
-6.24348
-6.09477
-5.94008
-5.77929
-5.61226
-5.43884
-5.25888
-5.0722
-4.87859
-4.67785
-4.46974
-4.254
-4.03037
-3.79855
-3.55822
-3.30906
-3.05069
-2.78274
-2.50482
-2.21653
-1.91747
-1.60723
-1.28545
-0.951715
-0.605655
-0.246876
0.12493
0.509484
0.90696
1.3178
1.74185
2.17899
2.62899
3.09149
3.566
4.0519
4.54835
5.05438
5.56888
6.09061
6.61818
7.15001
7.68431
8.21914
8.7525
9.28233
9.80654
10.323
10.8294
11.3237
11.8034
12.2666
12.7111
13.1352
13.5372
13.9155
14.2691
14.5971
14.8987
15.1737
15.4222
15.6445
15.8414
16.0142
16.1645
16.2926
16.4021
16.4963
16.5802
16.654
16.7283
16.7999
16.8965
17.0022
17.1939
17.3884
-6.59881
-6.59996
-6.60244
-6.60914
-6.61734
-6.6188
-6.61237
-6.60529
-6.604
-6.61091
-6.62535
-6.64488
-6.66663
-6.68762
-6.7047
-6.71521
-6.71742
-6.71036
-6.69332
-6.66713
-6.63253
-6.59095
-6.54466
-6.49655
-6.44996
-6.40801
-6.37339
-6.34703
-6.32966
-6.31944
-6.30749
-6.29127
-6.28376
-6.29299
-6.31097
-6.32245
-6.33758
-6.34815
-6.35465
-6.3828
-6.42319
-6.4749
-6.54581
-6.63
-6.7261
-6.82832
-6.93304
-7.03699
-7.1379
-7.23434
-7.32544
-7.41087
-7.49053
-7.56457
-7.63324
-7.69687
-7.7558
-7.81038
-7.86093
-7.90774
-7.95107
-7.99113
-8.02809
-8.06209
-8.09321
-8.12153
-8.14706
-8.1698
-8.18974
-8.20681
-8.22096
-8.23209
-8.24013
-8.24497
-8.2465
-8.2446
-8.23916
-8.23007
-8.2172
-8.20044
-8.17968
-8.15481
-8.12572
-8.09231
-8.05448
-8.01213
-7.96517
-7.91351
-7.85707
-7.79576
-7.72952
-7.65827
-7.58194
-7.50046
-7.41377
-7.32182
-7.22453
-7.12187
-7.01377
-6.90018
-6.78099
-6.65617
-6.52596
-6.38996
-6.24812
-6.10041
-5.94672
-5.78697
-5.62102
-5.44874
-5.26998
-5.08455
-4.89228
-4.69294
-4.48632
-4.27216
-4.05021
-3.82017
-3.58175
-3.33461
-3.0784
-2.81275
-2.53726
-2.25155
-1.95521
-1.64786
-1.32912
-0.998635
-0.656056
-0.30102
0.0667943
0.447408
0.840994
1.24776
1.66763
2.10049
2.5461
3.00414
3.47417
3.95557
4.44755
4.94913
5.45924
5.97666
6.50006
7.0279
7.55843
8.08972
8.61977
9.14656
9.66805
10.1821
10.6866
11.1792
11.6578
12.12
12.5641
12.9883
13.3909
13.7704
14.1256
14.4556
14.7597
15.0376
15.2893
15.5152
15.7161
15.8931
16.0477
16.1811
16.2964
16.396
16.4849
16.5635
16.642
16.7174
16.8145
16.9147
17.0797
17.2058
-6.59707
-6.59506
-6.59396
-6.60061
-6.61557
-6.63621
-6.65909
-6.68296
-6.70809
-6.7345
-6.76119
-6.78654
-6.80892
-6.8269
-6.83914
-6.84442
-6.84178
-6.83056
-6.81053
-6.78188
-6.74506
-6.70092
-6.65064
-6.59562
-6.53743
-6.47783
-6.41865
-6.36161
-6.30869
-6.26239
-6.22563
-6.20544
-6.20844
-6.22317
-6.25206
-6.2838
-6.31936
-6.36417
-6.41207
-6.46594
-6.52546
-6.59222
-6.66728
-6.74839
-6.83507
-6.92477
-7.01571
-7.10601
-7.19423
-7.27932
-7.36055
-7.43753
-7.51006
-7.57811
-7.64179
-7.70129
-7.75682
-7.80859
-7.85684
-7.90177
-7.94358
-7.98242
-8.01842
-8.05166
-8.08223
-8.11014
-8.1354
-8.15799
-8.17786
-8.19496
-8.20921
-8.22052
-8.22877
-8.23388
-8.23571
-8.23415
-8.22909
-8.2204
-8.20796
-8.19166
-8.17137
-8.147
-8.11842
-8.08554
-8.04826
-8.00647
-7.9601
-7.90904
-7.85322
-7.79255
-7.72696
-7.65638
-7.58073
-7.49994
-7.41397
-7.32275
-7.22621
-7.12432
-7.01701
-6.90424
-6.78595
-6.66203
-6.53253
-6.39734
-6.2564
-6.10963
-5.95694
-5.79823
-5.63339
-5.46227
-5.28474
-5.10062
-4.90973
-4.71186
-4.50679
-4.29428
-4.07408
-3.84591
-3.60947
-3.36445
-3.11049
-2.84721
-2.57425
-2.29119
-1.99765
-1.69322
-1.37755
-1.05028
-0.711062
-0.359575
0.00448778
0.381303
0.771071
1.17393
1.58981
2.01861
2.46011
2.91401
3.37991
3.85723
4.34519
4.84283
5.34907
5.86275
6.38257
6.90708
7.43452
7.96294
8.49036
9.01479
9.53421
10.0465
10.5496
11.0413
11.5192
11.9811
12.4251
12.8495
13.2527
13.6333
13.9899
14.3217
14.628
14.9083
15.1627
15.3917
15.5958
15.7762
15.9344
16.0718
16.1914
16.2952
16.3878
16.4702
16.5514
16.6285
16.7228
16.8138
16.9519
17.0286
-6.60352
-6.59759
-6.60222
-6.61918
-6.65154
-6.69227
-6.73538
-6.77781
-6.81734
-6.85258
-6.88333
-6.90965
-6.93122
-6.94735
-6.95724
-6.96004
-6.95504
-6.94178
-6.91993
-6.88948
-6.85065
-6.80383
-6.74962
-6.68868
-6.62175
-6.54983
-6.47435
-6.39734
-6.32204
-6.25401
-6.20109
-6.18027
-6.18363
-6.2
-6.23315
-6.28414
-6.34673
-6.41491
-6.48412
-6.5545
-6.62527
-6.69801
-6.77358
-6.85149
-6.93149
-7.01248
-7.0935
-7.17356
-7.2518
-7.32756
-7.4003
-7.46972
-7.53561
-7.59792
-7.65669
-7.712
-7.76399
-7.81279
-7.85856
-7.90144
-7.94156
-7.97903
-8.01393
-8.04631
-8.07622
-8.10364
-8.12856
-8.15093
-8.1707
-8.18778
-8.20209
-8.21351
-8.22194
-8.22726
-8.22935
-8.22808
-8.22334
-8.21499
-8.20292
-8.18699
-8.16711
-8.14315
-8.11501
-8.08259
-8.04577
-8.00447
-7.9586
-7.90805
-7.85276
-7.79264
-7.7276
-7.65759
-7.58253
-7.50235
-7.41699
-7.3264
-7.23051
-7.12927
-7.02264
-6.91056
-6.79298
-6.66983
-6.54108
-6.40668
-6.26656
-6.12065
-5.96888
-5.81113
-5.64731
-5.47728
-5.3009
-5.118
-4.92841
-4.73191
-4.5283
-4.31734
-4.09878
-3.87236
-3.63779
-3.39474
-3.14287
-2.88181
-2.61118
-2.33056
-2.03957
-1.73779
-1.42488
-1.10047
-0.764237
-0.415835
-0.0549644
0.318609
0.705107
1.10466
1.51721
1.94264
2.38077
2.83131
3.2939
3.76802
4.25289
4.74752
5.25085
5.76175
6.27896
6.80111
7.32645
7.85294
8.37861
8.9015
9.41963
9.93095
10.4334
10.9247
11.4024
11.8642
12.3084
12.7333
13.1372
13.5187
13.8766
14.2097
14.5176
14.7997
15.0561
15.2872
15.4936
15.6764
15.837
15.977
16.0992
16.2056
16.3003
16.3846
16.4661
16.5425
16.6312
16.7106
16.8236
16.8607
-6.62124
-6.61993
-6.63577
-6.67174
-6.71987
-6.77293
-6.82473
-6.87178
-6.91374
-6.95109
-6.98391
-7.01185
-7.03431
-7.0506
-7.06001
-7.06191
-7.05579
-7.04122
-7.01805
-6.98622
-6.94581
-6.89705
-6.84028
-6.77588
-6.70435
-6.6265
-6.54386
-6.45893
-6.37547
-6.30076
-6.24675
-6.22759
-6.2285
-6.24636
-6.28668
-6.34757
-6.41994
-6.49534
-6.57054
-6.64548
-6.71966
-6.79356
-6.86761
-6.94183
-7.01621
-7.09032
-7.1637
-7.23582
-7.3062
-7.37441
-7.44013
-7.50312
-7.56325
-7.62047
-7.67479
-7.72624
-7.7749
-7.82088
-7.86427
-7.90516
-7.94364
-7.97977
-8.0136
-8.04514
-8.0744
-8.10135
-8.12593
-8.1481
-8.16776
-8.18482
-8.19916
-8.21068
-8.21926
-8.22477
-8.22707
-8.22605
-8.22157
-8.2135
-8.20173
-8.18612
-8.16656
-8.14295
-8.11516
-8.0831
-8.04667
-8.00576
-7.96029
-7.91016
-7.8553
-7.79562
-7.73105
-7.66151
-7.58693
-7.50724
-7.4224
-7.33232
-7.23697
-7.13629
-7.03022
-6.91872
-6.80174
-6.67923
-6.55115
-6.41745
-6.27807
-6.13294
-5.982
-5.82514
-5.66226
-5.49324
-5.31793
-5.13617
-4.94779
-4.75258
-4.55033
-4.34081
-4.12379
-3.89901
-3.66617
-3.42496
-3.17504
-2.91603
-2.64755
-2.36917
-2.08049
-1.78111
-1.47066
-1.14882
-0.815221
-0.469535
-0.111438
0.259345
0.64306
1.03984
1.44962
1.87227
2.30763
2.75545
3.2154
3.68704
4.16955
4.66189
5.16302
5.67184
6.18717
6.70768
7.2316
7.75679
8.28127
8.80315
9.32047
9.8312
10.3333
10.8246
11.3023
11.7642
12.2087
12.634
13.0385
13.4208
13.7795
14.1137
14.4228
14.7062
14.9641
15.1966
15.4046
15.589
15.7511
15.8928
16.0165
16.1243
16.2199
16.3046
16.385
16.4587
16.5402
16.6075
16.6981
16.7034
-6.6264
-6.64271
-6.68224
-6.7351
-6.79162
-6.84647
-6.89801
-6.94612
-6.99049
-7.03058
-7.06574
-7.09536
-7.11879
-7.13543
-7.14471
-7.14617
-7.13941
-7.12419
-7.10035
-7.06786
-7.02681
-6.97739
-6.91993
-6.85482
-6.78258
-6.7042
-6.62149
-6.53754
-6.4561
-6.38568
-6.33996
-6.32248
-6.32344
-6.34324
-6.38518
-6.44541
-6.51508
-6.58767
-6.66099
-6.73415
-6.80655
-6.87816
-6.94905
-7.01924
-7.0887
-7.15724
-7.22461
-7.29054
-7.35474
-7.41697
-7.47702
-7.53477
-7.59013
-7.64307
-7.69358
-7.7417
-7.78748
-7.83099
-7.87228
-7.91143
-7.94847
-7.98344
-8.01634
-8.04717
-8.07589
-8.10245
-8.12678
-8.1488
-8.16839
-8.18545
-8.19985
-8.21148
-8.22019
-8.22586
-8.22835
-8.22753
-8.22326
-8.21542
-8.20388
-8.18852
-8.16922
-8.14587
-8.11836
-8.08658
-8.05044
-8.00984
-7.96469
-7.91489
-7.86037
-7.80103
-7.73682
-7.66765
-7.59346
-7.51417
-7.42973
-7.34009
-7.24517
-7.14494
-7.03935
-6.92834
-6.81187
-6.68991
-6.56241
-6.42932
-6.29061
-6.1462
-5.99602
-5.83998
-5.67799
-5.50991
-5.33562
-5.15495
-4.96772
-4.77374
-4.57278
-4.36464
-4.14908
-3.92585
-3.69467
-3.45522
-3.20715
-2.95008
-2.68362
-2.40734
-2.12081
-1.82363
-1.51546
-1.19595
-0.864773
-0.521556
-0.165957
0.202333
0.5836
0.977993
1.38541
1.80568
2.23866
2.68417
3.14191
3.61153
4.09214
4.58261
5.08192
5.58905
6.10285
6.62214
7.14505
7.66919
8.19264
8.71362
9.23021
9.7404
10.2423
10.7337
11.2115
11.6734
12.118
12.5436
12.9486
13.3314
13.6907
14.0257
14.3355
14.6199
14.8787
15.1122
15.3212
15.5066
15.6697
15.8123
15.9368
16.0453
16.1411
16.2252
16.3035
16.3734
16.4472
16.5025
16.574
16.5543
-6.67314
-6.70062
-6.75142
-6.80486
-6.85759
-6.90951
-6.95995
-7.00797
-7.05272
-7.09337
-7.12912
-7.15923
-7.18299
-7.19977
-7.20903
-7.21033
-7.20337
-7.18797
-7.16407
-7.1317
-7.091
-7.04222
-6.98574
-6.92208
-6.852
-6.77668
-6.69817
-6.61969
-6.54599
-6.48506
-6.4479
-6.4332
-6.43507
-6.45483
-6.49433
-6.549
-6.61155
-6.67785
-6.74594
-6.81454
-6.88289
-6.95063
-7.0176
-7.08368
-7.14874
-7.21264
-7.27522
-7.33629
-7.39567
-7.45323
-7.50887
-7.56251
-7.61409
-7.66361
-7.71108
-7.75653
-7.8
-7.84153
-7.88117
-7.91895
-7.95487
-7.98895
-8.02117
-8.05149
-8.07985
-8.10618
-8.13037
-8.15233
-8.17193
-8.18904
-8.20353
-8.21527
-8.22412
-8.22994
-8.23259
-8.23193
-8.22783
-8.22017
-8.20881
-8.19362
-8.1745
-8.15134
-8.12402
-8.09245
-8.05652
-8.01614
-7.97122
-7.92166
-7.86738
-7.80831
-7.74437
-7.67548
-7.60158
-7.5226
-7.43848
-7.34917
-7.25461
-7.15475
-7.04954
-6.93894
-6.82291
-6.70142
-6.57443
-6.44191
-6.3038
-6.16005
-6.01059
-5.85533
-5.69418
-5.52701
-5.3537
-5.17407
-4.98796
-4.79516
-4.59546
-4.38864
-4.1745
-3.95278
-3.7232
-3.48545
-3.23917
-2.98397
-2.71945
-2.44518
-2.1607
-1.86559
-1.55953
-1.24223
-0.913313
-0.572401
-0.219125
0.146866
0.525903
0.91817
1.32347
1.74159
2.17243
2.61585
3.07164
3.53956
4.01859
4.50736
5.00496
5.51047
6.02286
6.54118
7.06348
7.58679
8.10923
8.62932
9.14515
9.65475
10.1563
10.648
11.1265
11.589
12.0343
12.4606
12.8663
13.2497
13.6095
13.9449
14.2551
14.5397
14.7987
15.0324
15.2414
15.4267
15.5897
15.7322
15.8562
15.9643
16.0593
16.1422
16.2177
16.2833
16.3495
16.3935
16.449
16.4101
-6.7513
-6.77841
-6.81836
-6.86185
-6.90787
-6.95523
-7.00259
-7.04875
-7.09252
-7.13282
-7.16861
-7.19903
-7.22319
-7.24036
-7.25
-7.25164
-7.24498
-7.22996
-7.20661
-7.17505
-7.13549
-7.0883
-7.03396
-6.97315
-6.90684
-6.8365
-6.76429
-6.69355
-6.62915
-6.57892
-6.54922
-6.53675
-6.53894
-6.55763
-6.59327
-6.64119
-6.69637
-6.75598
-6.81814
-6.88153
-6.9453
-7.00889
-7.07197
-7.13426
-7.19557
-7.25572
-7.31454
-7.37188
-7.42764
-7.48174
-7.5341
-7.58469
-7.63349
-7.68051
-7.72576
-7.76928
-7.8111
-7.85124
-7.88974
-7.9266
-7.96182
-7.99537
-8.02721
-8.05729
-8.08552
-8.11179
-8.13601
-8.15803
-8.17772
-8.19495
-8.20957
-8.22144
-8.23043
-8.23638
-8.23915
-8.23862
-8.23465
-8.22709
-8.21584
-8.20076
-8.18175
-8.15869
-8.13149
-8.10004
-8.06425
-8.024
-7.97922
-7.92981
-7.8757
-7.8168
-7.75305
-7.68436
-7.61067
-7.53191
-7.44803
-7.35898
-7.26469
-7.16513
-7.06023
-6.94997
-6.83431
-6.71323
-6.5867
-6.45468
-6.31714
-6.17401
-6.02523
-5.87072
-5.71038
-5.54409
-5.37173
-5.19313
-5.00812
-4.81648
-4.61799
-4.41246
-4.19969
-3.97944
-3.75144
-3.51536
-3.27083
-3.01746
-2.75483
-2.4825
-2.19998
-1.90682
-1.60277
-1.28756
-0.960806
-0.622091
-0.27102
0.0927982
0.469774
0.860151
1.26351
1.67954
2.1083
2.54969
3.00363
3.47016
3.948
4.43528
4.93122
5.43513
5.94612
6.46356
6.9858
7.50934
8.03185
8.55218
9.06837
9.57835
10.0801
10.5712
11.0499
11.5135
11.9601
12.3877
12.7943
13.1785
13.539
13.8747
14.1849
14.4694
14.728
14.9612
15.1694
15.3539
15.5158
15.6571
15.7796
15.8855
15.9778
16.0578
16.1296
16.1902
16.2488
16.2822
16.3232
16.2683
-6.80293
-6.82376
-6.85479
-6.89132
-6.93185
-6.97494
-7.01918
-7.06319
-7.10565
-7.14538
-7.18146
-7.21287
-7.2382
-7.2564
-7.26683
-7.26906
-7.26285
-7.2484
-7.22593
-7.1956
-7.15768
-7.1126
-7.06098
-7.00367
-6.94182
-6.87709
-6.81184
-6.74942
-6.69467
-6.65402
-6.62946
-6.61844
-6.62088
-6.63838
-6.67012
-6.71224
-6.7614
-6.81534
-6.87233
-6.93113
-6.99084
-7.05084
-7.11063
-7.16987
-7.22827
-7.28561
-7.34171
-7.39644
-7.44971
-7.50146
-7.55163
-7.60022
-7.64723
-7.69266
-7.73654
-7.77891
-7.81978
-7.85918
-7.89711
-7.93357
-7.96853
-8.00194
-8.03376
-8.06389
-8.09223
-8.11867
-8.14306
-8.16527
-8.18515
-8.20255
-8.21732
-8.22933
-8.23844
-8.24449
-8.24735
-8.24689
-8.24298
-8.23547
-8.22424
-8.20919
-8.1902
-8.16717
-8.14
-8.10859
-8.07284
-8.03265
-7.98793
-7.9386
-7.88457
-7.82577
-7.76212
-7.69355
-7.61999
-7.54139
-7.45767
-7.3688
-7.27472
-7.17538
-7.07073
-6.96074
-6.84538
-6.72465
-6.59853
-6.46698
-6.32997
-6.18743
-6.03931
-5.88552
-5.72598
-5.56056
-5.38913
-5.21155
-5.02762
-4.83713
-4.63983
-4.43554
-4.22411
-4.00533
-3.77889
-3.54445
-3.30165
-3.05008
-2.78932
-2.51888
-2.23825
-1.94691
-1.64473
-1.33157
-1.00693
-0.67038
-0.321478
0.040218
0.415275
0.804136
1.20587
1.61992
2.04663
2.48601
2.93813
3.40345
3.8808
4.36757
4.86287
5.36629
5.87687
6.39326
6.91394
7.43715
7.96068
8.4824
9
9.51124
10.0137
10.5047
10.9829
11.4469
11.8939
12.3217
12.7284
13.1126
13.4729
13.8084
14.1184
14.4025
14.6606
14.8931
15.1007
15.2844
15.4454
15.5855
15.7064
15.81
15.8988
15.9748
16.0418
16.0961
16.1465
16.1689
16.1966
16.1294
-6.80893
-6.82612
-6.85273
-6.88559
-6.92271
-6.96277
-7.00462
-7.04731
-7.09011
-7.13136
-7.16867
-7.20077
-7.22691
-7.24608
-7.25757
-7.2608
-7.25549
-7.24195
-7.2206
-7.19173
-7.15564
-7.11285
-7.06408
-7.01034
-6.95298
-6.89382
-6.83533
-6.78079
-6.73472
-6.70104
-6.67969
-6.66996
-6.67297
-6.68965
-6.71855
-6.75677
-6.80185
-6.85181
-6.90512
-6.96063
-7.01745
-7.07489
-7.13242
-7.18961
-7.24614
-7.30172
-7.35619
-7.40941
-7.46129
-7.51178
-7.56083
-7.60844
-7.65462
-7.69939
-7.74276
-7.78477
-7.82543
-7.86474
-7.9027
-7.93929
-7.97445
-8.00814
-8.04028
-8.07075
-8.09946
-8.12625
-8.15097
-8.17346
-8.19357
-8.21115
-8.22606
-8.23817
-8.24733
-8.25343
-8.25632
-8.25588
-8.25195
-8.24441
-8.23313
-8.21801
-8.19896
-8.17587
-8.14866
-8.11722
-8.08144
-8.04123
-7.9965
-7.94716
-7.89314
-7.83436
-7.77074
-7.70222
-7.62872
-7.55019
-7.46657
-7.37781
-7.28387
-7.1847
-7.08024
-6.97045
-6.85534
-6.73492
-6.60917
-6.47807
-6.34156
-6.1996
-6.05212
-5.89904
-5.74028
-5.57572
-5.40523
-5.22865
-5.0458
-4.85644
-4.66028
-4.45718
-4.24708
-4.02976
-3.80488
-3.57209
-3.33102
-3.08125
-2.82234
-2.5538
-2.27498
-1.98517
-1.68461
-1.37341
-1.05084
-0.716399
-0.369626
-0.0100213
0.363193
0.750904
1.15176
1.56455
1.99007
2.42835
2.8793
3.3425
3.81744
4.30318
4.79863
5.30257
5.81357
6.32944
6.84854
7.37069
7.89419
8.41599
8.9336
9.44471
9.94697
10.4379
10.9157
11.3787
11.8245
12.251
12.6565
13.0394
13.3986
13.733
14.0419
14.325
14.5822
14.8139
15.0207
15.2035
15.3636
15.5026
15.6221
15.7239
15.8104
15.8828
15.9449
15.9925
16.0344
16.0465
16.0628
15.9885
-6.76752
-6.78333
-6.80993
-6.84269
-6.87892
-6.9179
-6.95982
-7.0039
-7.0479
-7.09006
-7.12866
-7.16185
-7.18877
-7.20879
-7.22134
-7.22575
-7.22175
-7.20969
-7.18993
-7.16275
-7.12854
-7.08792
-7.04176
-6.99123
-6.93788
-6.88367
-6.83111
-6.78338
-6.74397
-6.71465
-6.69552
-6.68743
-6.69169
-6.70848
-6.73621
-6.77263
-6.81567
-6.86358
-6.91497
-6.96876
-7.02411
-7.08031
-7.1368
-7.19311
-7.2489
-7.30387
-7.35784
-7.41068
-7.46228
-7.51259
-7.56157
-7.60921
-7.65553
-7.70053
-7.74423
-7.78665
-7.82779
-7.86765
-7.90622
-7.94345
-7.97926
-8.01359
-8.04634
-8.07739
-8.10662
-8.13387
-8.15899
-8.18181
-8.20216
-8.2199
-8.2349
-8.24704
-8.25621
-8.26228
-8.26514
-8.26463
-8.26061
-8.25295
-8.24152
-8.22622
-8.207
-8.18377
-8.15644
-8.12489
-8.08902
-8.0487
-8.00387
-7.95445
-7.90036
-7.84153
-7.77788
-7.70934
-7.63584
-7.55731
-7.47373
-7.38504
-7.29119
-7.19215
-7.08783
-6.97818
-6.86326
-6.74313
-6.61775
-6.48708
-6.35107
-6.20969
-6.06285
-5.9105
-5.75252
-5.58883
-5.41929
-5.24375
-5.062
-4.87376
-4.67861
-4.47651
-4.26765
-4.05177
-3.82846
-3.59731
-3.35794
-3.10995
-2.85288
-2.58622
-2.30918
-2.02062
-1.72117
-1.41147
-1.09044
-0.757479
-0.412171
-0.0540786
0.317249
0.701989
1.10027
1.51193
1.93688
2.37477
2.82512
3.28654
3.75886
4.24291
4.73753
5.24079
5.75108
6.26656
6.78553
7.30688
7.82885
8.34887
8.86461
9.37376
9.87408
10.3633
10.8394
11.3004
11.7442
12.1687
12.5722
12.9532
13.3105
13.6431
13.9503
14.2318
14.4875
14.7177
14.923
15.1044
15.263
15.4003
15.5181
15.6178
15.7019
15.7709
15.8286
15.8701
15.9046
15.9085
15.9149
15.8373
-6.68562
-6.70245
-6.73205
-6.7672
-6.80444
-6.84425
-6.88721
-6.93255
-6.97824
-7.02169
-7.06116
-7.09551
-7.12393
-7.1457
-7.16012
-7.16632
-7.164
-7.15352
-7.1353
-7.10957
-7.07683
-7.03784
-6.99365
-6.9456
-6.89542
-6.8452
-6.79746
-6.75489
-6.71975
-6.69326
-6.67645
-6.67077
-6.6772
-6.69536
-6.72368
-6.76023
-6.80314
-6.85081
-6.902
-6.95566
-7.01099
-7.06729
-7.12401
-7.18068
-7.23693
-7.29246
-7.34708
-7.40065
-7.45306
-7.50424
-7.55417
-7.60283
-7.65022
-7.69633
-7.74115
-7.78469
-7.82694
-7.86789
-7.90751
-7.94574
-7.98252
-8.01776
-8.05136
-8.08318
-8.11308
-8.14089
-8.16644
-8.18955
-8.21008
-8.22788
-8.24286
-8.25492
-8.26398
-8.26991
-8.27261
-8.27192
-8.2677
-8.25978
-8.24804
-8.23243
-8.21292
-8.18947
-8.16196
-8.13025
-8.0942
-8.05372
-8.00872
-7.95916
-7.90495
-7.84603
-7.78231
-7.71372
-7.64019
-7.56165
-7.47807
-7.38943
-7.29568
-7.19675
-7.09253
-6.9829
-6.86805
-6.74818
-6.62317
-6.49295
-6.35747
-6.21668
-6.0705
-5.91887
-5.7617
-5.59889
-5.43032
-5.25583
-5.07521
-4.88812
-4.69387
-4.49251
-4.28462
-4.06996
-3.84791
-3.61805
-3.37999
-3.13335
-2.8777
-2.61256
-2.33735
-2.05159
-1.75485
-1.4468
-1.12696
-0.79504
-0.450706
-0.0936684
0.276039
0.657889
1.0533
1.46332
1.88691
2.32353
2.77268
3.23341
3.70523
4.18817
4.6811
5.18242
5.69069
6.20437
6.72178
7.24126
7.76089
8.27838
8.79148
9.29793
9.79555
10.2821
10.7556
11.214
11.655
12.0769
12.4778
12.8563
13.211
13.5411
13.8459
14.1249
14.3783
14.6062
14.8093
14.9886
15.1451
15.2802
15.3956
15.4926
15.5738
15.6392
15.6924
15.7285
15.7563
15.7536
15.751
15.6724
-6.57165
-6.59162
-6.62607
-6.66494
-6.70355
-6.74393
-6.78845
-6.83595
-6.88334
-6.92852
-6.97006
-7.00677
-7.0377
-7.06192
-7.07836
-7.08628
-7.08557
-7.07647
-7.05934
-7.03448
-7.0025
-6.96433
-6.92116
-6.87457
-6.82649
-6.77917
-6.73484
-6.69555
-6.66318
-6.63931
-6.62554
-6.62323
-6.63284
-6.65361
-6.68398
-6.72217
-6.76646
-6.81539
-6.86779
-6.92268
-6.97929
-7.03697
-7.09516
-7.1534
-7.21129
-7.26853
-7.32491
-7.38028
-7.43452
-7.48756
-7.53935
-7.58985
-7.63906
-7.68697
-7.73357
-7.77883
-7.82274
-7.86525
-7.90631
-7.94588
-7.98389
-8.02025
-8.05485
-8.08755
-8.11817
-8.14653
-8.17241
-8.19565
-8.21609
-8.23367
-8.24834
-8.26008
-8.26882
-8.27446
-8.27687
-8.2759
-8.27136
-8.26306
-8.25082
-8.23464
-8.21472
-8.19102
-8.16333
-8.13146
-8.09522
-8.05453
-8.00934
-7.95962
-7.9053
-7.84631
-7.78255
-7.71393
-7.64036
-7.5618
-7.47824
-7.38967
-7.29606
-7.19732
-7.09321
-6.98343
-6.86846
-6.74876
-6.62405
-6.49418
-6.3591
-6.21876
-6.07308
-5.92201
-5.76544
-5.6033
-5.43547
-5.26182
-5.08217
-4.89628
-4.70386
-4.50466
-4.29848
-4.08506
-3.86409
-3.63523
-3.39814
-3.15248
-2.89786
-2.63392
-2.36033
-2.0773
-1.78336
-1.47711
-1.15881
-0.828343
-0.48549
-0.129966
0.238384
0.619499
1.01403
1.42254
1.84442
2.27923
2.72653
3.18572
3.65625
4.13754
4.6284
5.12742
5.63322
6.14428
6.65897
7.17563
7.69232
8.20678
8.71674
9.21999
9.7143
10.1975
10.6677
11.1226
11.5602
11.9786
12.376
12.751
13.1023
13.429
13.7304
14.0062
14.2565
14.4814
14.6816
14.858
15.0118
15.1442
15.2567
15.3508
15.4286
15.4902
15.5389
15.57
15.5914
15.5834
15.5725
15.4942
-6.43707
-6.46134
-6.50164
-6.5426
-6.58088
-6.62296
-6.67038
-6.72024
-6.77012
-6.81811
-6.86262
-6.90233
-6.93628
-6.96303
-6.98151
-6.99083
-6.99115
-6.98285
-6.96603
-6.94111
-6.90887
-6.87039
-6.82716
-6.7811
-6.73436
-6.68894
-6.64662
-6.60947
-6.57963
-6.55895
-6.54899
-6.55076
-6.56422
-6.58837
-6.62166
-6.66245
-6.70918
-6.76048
-6.81521
-6.87245
-6.93146
-6.99159
-7.05229
-7.11307
-7.17356
-7.23345
-7.29253
-7.35061
-7.40757
-7.4633
-7.51773
-7.57081
-7.62251
-7.67281
-7.7217
-7.76913
-7.81507
-7.85945
-7.90223
-7.94333
-7.98269
-8.0202
-8.05573
-8.08914
-8.12025
-8.14885
-8.17471
-8.19764
-8.21751
-8.23431
-8.24824
-8.25937
-8.26764
-8.27292
-8.27505
-8.27382
-8.26899
-8.26024
-8.24724
-8.23013
-8.20956
-8.18558
-8.15775
-8.1257
-8.0892
-8.04817
-8.00267
-7.95273
-7.89825
-7.83916
-7.77533
-7.70664
-7.63296
-7.55428
-7.47064
-7.38209
-7.28861
-7.19017
-7.08667
-6.97799
-6.8641
-6.745
-6.62068
-6.49117
-6.35644
-6.21645
-6.07114
-5.92046
-5.76432
-5.60264
-5.43534
-5.2623
-5.08341
-4.89857
-4.70791
-4.5109
-4.3065
-4.09444
-3.8747
-3.64703
-3.41115
-3.1667
-2.91334
-2.65069
-2.37837
-2.09615
-1.80307
-1.49815
-1.18138
-0.852509
-0.511263
-0.157351
0.209516
0.589507
0.982914
1.38992
1.81016
2.24319
2.68855
3.14569
3.61403
4.0929
4.58117
5.07747
5.58036
6.08831
6.59971
7.11292
7.62599
8.13673
8.64286
9.14214
9.63237
10.1114
10.5772
11.0278
11.461
11.8749
12.2679
12.6384
12.9853
13.3076
13.6048
13.8764
14.1228
14.3441
14.5408
14.7139
14.8645
14.9938
15.1033
15.1942
15.2686
15.3263
15.3707
15.3971
15.4127
15.4003
15.3819
15.3048
-6.28898
-6.31846
-6.36271
-6.40331
-6.4424
-6.48715
-6.53741
-6.59027
-6.64324
-6.69437
-6.74202
-6.78482
-6.82134
-6.85058
-6.87073
-6.88117
-6.88214
-6.87393
-6.85667
-6.83094
-6.79774
-6.75851
-6.71503
-6.66932
-6.62325
-6.57858
-6.53746
-6.50241
-6.47561
-6.45871
-6.45298
-6.45898
-6.47634
-6.50401
-6.54052
-6.58434
-6.63403
-6.68831
-6.74612
-6.80655
-6.86879
-6.93218
-6.99617
-7.06028
-7.12416
-7.1875
-7.25005
-7.31161
-7.37201
-7.43113
-7.48886
-7.54512
-7.59984
-7.65297
-7.70446
-7.75426
-7.80233
-7.8486
-7.89301
-7.93549
-7.97594
-8.01429
-8.0504
-8.08415
-8.11535
-8.14378
-8.16906
-8.19098
-8.20934
-8.22425
-8.23641
-8.24627
-8.25372
-8.25852
-8.26039
-8.25904
-8.25409
-8.24529
-8.23265
-8.21633
-8.19629
-8.1724
-8.14449
-8.11227
-8.07548
-8.03409
-7.98828
-7.93808
-7.88337
-7.82406
-7.76003
-7.69115
-7.61728
-7.53842
-7.45468
-7.36612
-7.27275
-7.17459
-7.07173
-6.96429
-6.85165
-6.7333
-6.60957
-6.48061