/*--------------------------------*- C++ -*----------------------------------*\
| =========                 |                                                 |
| \\      /  F ield         | OpenFOAM: The Open Source CFD Toolbox           |
|  \\    /   O peration     | Version:  2112                                  |
|   \\  /    A nd           | Website:  www.openfoam.com                      |
|    \\/     M anipulation  |                                                 |
\*---------------------------------------------------------------------------*/
FoamFile
{
    version     2.0;
    format      ascii;
    arch        "LSB;label=32;scalar=64";
    class       surfaceScalarField;
    location    "0.11";
    object      phi;
}
// * * * * * * * * * * * * * * * * * * * * * * * * * * * * * * * * * * * * * //

dimensions      [0 3 -1 0 0 0 0];

oriented        oriented;

internalField   nonuniform List<scalar> 
24170
(
3.09989e-06
8.8518e-08
2.9951e-06
1.04793e-07
2.89731e-06
9.77872e-08
2.80283e-06
9.44779e-08
2.71097e-06
9.18622e-08
2.622e-06
8.89652e-08
2.53573e-06
8.62698e-08
2.45151e-06
8.42212e-08
2.36889e-06
8.26244e-08
2.28683e-06
8.20562e-08
2.20473e-06
8.2099e-08
2.12087e-06
8.38629e-08
2.034e-06
8.68717e-08
1.94122e-06
9.27821e-08
1.83853e-06
1.02681e-07
1.72132e-06
1.17211e-07
1.57353e-06
1.47792e-07
1.89627e-07
1.38391e-06
3.442e-06
6.37697e-08
3.45091e-06
9.58822e-08
3.45398e-06
9.47165e-08
3.45232e-06
9.61412e-08
3.44545e-06
9.87269e-08
3.43415e-06
1.00265e-07
3.41926e-06
1.01157e-07
3.40106e-06
1.02423e-07
3.3797e-06
1.0399e-07
3.35501e-06
1.06745e-07
3.32687e-06
1.10237e-07
3.29463e-06
1.161e-07
3.25769e-06
1.23817e-07
3.21443e-06
1.36037e-07
3.16337e-06
1.53747e-07
3.10047e-06
1.80107e-07
3.02378e-06
2.24478e-07
2.82144e-07
2.93127e-06
3.67532e-06
5.09671e-08
3.68198e-06
8.92232e-08
3.68559e-06
9.11019e-08
3.68877e-06
9.29623e-08
3.69057e-06
9.69255e-08
3.69076e-06
1.00076e-07
3.68949e-06
1.02427e-07
3.68681e-06
1.05107e-07
3.68246e-06
1.08342e-07
3.67636e-06
1.1284e-07
3.66802e-06
1.1858e-07
3.6574e-06
1.26714e-07
3.64356e-06
1.37659e-07
3.6265e-06
1.53097e-07
3.60489e-06
1.75356e-07
3.57867e-06
2.06334e-07
3.55017e-06
2.52973e-07
3.12381e-07
3.51993e-06
3.93487e-06
4.14806e-08
3.94194e-06
8.2153e-08
3.94471e-06
8.83387e-08
3.94656e-06
9.11063e-08
3.94741e-06
9.60752e-08
3.94689e-06
1.00599e-07
3.94508e-06
1.04235e-07
3.94212e-06
1.08076e-07
3.93784e-06
1.12621e-07
3.93218e-06
1.18494e-07
3.92482e-06
1.25946e-07
3.91567e-06
1.35857e-07
3.90427e-06
1.49059e-07
3.89057e-06
1.66797e-07
3.87452e-06
1.91413e-07
3.85661e-06
2.24244e-07
3.84023e-06
2.69353e-07
3.26405e-07
3.8262e-06
4.21431e-06
3.42983e-08
4.22168e-06
7.47821e-08
4.22467e-06
8.535e-08
4.22619e-06
8.95848e-08
4.22684e-06
9.54289e-08
4.22619e-06
1.01244e-07
4.22419e-06
1.06234e-07
4.22095e-06
1.11317e-07
4.21639e-06
1.17185e-07
4.21042e-06
1.2446e-07
4.20284e-06
1.33529e-07
4.19353e-06
1.45165e-07
4.18234e-06
1.60253e-07
4.1692e-06
1.79928e-07
4.1547e-06
2.05915e-07
4.13942e-06
2.39527e-07
4.12618e-06
2.82591e-07
3.35708e-07
4.11688e-06
4.51452e-06
2.88651e-08
4.52156e-06
6.77404e-08
4.52482e-06
8.20877e-08
4.5262e-06
8.82053e-08
4.52673e-06
9.48994e-08
4.52611e-06
1.01866e-07
4.52416e-06
1.08189e-07
4.52093e-06
1.14542e-07
4.51641e-06
1.2171e-07
4.51052e-06
1.30349e-07
4.50314e-06
1.40909e-07
4.4942e-06
1.54104e-07
4.48373e-06
1.7072e-07
4.47184e-06
1.91817e-07
4.45929e-06
2.18464e-07
4.44688e-06
2.51938e-07
4.43699e-06
2.92484e-07
3.40888e-07
4.43181e-06
4.83682e-06
2.47636e-08
4.84317e-06
6.13912e-08
4.84664e-06
7.86167e-08
4.84802e-06
8.68303e-08
4.84846e-06
9.44567e-08
4.84787e-06
1.02451e-07
4.84602e-06
1.10042e-07
4.84291e-06
1.17656e-07
4.83854e-06
1.26073e-07
4.8329e-06
1.3599e-07
4.82595e-06
1.47866e-07
4.81768e-06
1.62372e-07
4.80828e-06
1.80118e-07
4.79804e-06
2.0206e-07
4.78779e-06
2.28715e-07
4.77855e-06
2.6117e-07
4.77232e-06
2.98717e-07
3.42092e-07
4.77112e-06
5.18268e-06
2.16656e-08
5.18819e-06
5.58808e-08
5.19175e-06
7.50579e-08
5.19321e-06
8.53634e-08
5.19363e-06
9.40453e-08
5.1931e-06
1.02979e-07
5.1914e-06
1.11737e-07
5.1885e-06
1.20559e-07
5.18443e-06
1.30146e-07
5.17921e-06
1.4121e-07
5.17288e-06
1.5419e-07
5.16555e-06
1.69702e-07
5.15751e-06
1.88159e-07
5.1492e-06
2.10373e-07
5.14149e-06
2.36428e-07
5.13551e-06
2.67145e-07
5.1329e-06
3.01328e-07
3.39541e-07
5.13545e-06
5.55369e-06
1.93111e-08
5.55836e-06
5.12153e-08
5.56187e-06
7.15493e-08
5.56347e-06
8.37565e-08
5.56393e-06
9.35866e-08
5.56351e-06
1.03403e-07
5.56205e-06
1.13199e-07
5.55948e-06
1.23131e-07
5.55585e-06
1.33773e-07
5.55124e-06
1.45815e-07
5.54578e-06
1.59651e-07
5.53965e-06
1.7583e-07
5.53324e-06
1.94573e-07
5.52709e-06
2.1652e-07
5.52209e-06
2.41432e-07
5.51935e-06
2.6988e-07
5.52026e-06
3.00421e-07
3.33466e-07
5.52633e-06
5.95159e-06
1.74995e-08
5.95548e-06
4.73198e-08
5.95883e-06
6.82005e-08
5.9606e-06
8.1993e-08
5.9612e-06
9.29868e-08
5.96096e-06
1.03639e-07
5.95982e-06
1.14334e-07
5.95772e-06
1.25235e-07
5.95471e-06
1.36781e-07
5.95093e-06
1.49598e-07
5.94656e-06
1.6402e-07
5.94188e-06
1.80511e-07
5.93733e-06
1.99124e-07
5.93353e-06
2.20322e-07
5.93132e-06
2.43639e-07
5.93176e-06
2.69441e-07
5.936e-06
2.96176e-07
3.24181e-07
5.94529e-06
6.37823e-06
1.608e-08
6.38147e-06
4.40774e-08
6.38461e-06
6.50674e-08
6.38653e-06
8.00686e-08
6.38737e-06
9.21486e-08
6.38743e-06
1.03579e-07
6.38673e-06
1.1503e-07
6.38525e-06
1.26724e-07
6.38304e-06
1.38987e-07
6.38029e-06
1.52349e-07
6.37724e-06
1.67069e-07
6.37423e-06
1.83519e-07
6.37174e-06
2.01612e-07
6.37041e-06
2.21654e-07
6.37103e-06
2.43023e-07
6.37452e-06
2.65948e-07
6.38185e-06
2.8885e-07
3.12085e-07
6.39394e-06
5.74182e-06
1.50905e-08
5.74416e-06
4.17373e-08
5.74664e-06
6.25889e-08
5.7484e-06
7.83106e-08
5.74937e-06
9.11821e-08
5.74974e-06
1.03204e-07
5.74959e-06
1.15178e-07
5.74893e-06
1.27389e-07
5.74783e-06
1.4009e-07
5.74645e-06
1.5372e-07
5.74505e-06
1.68468e-07
5.74394e-06
1.84629e-07
5.74354e-06
2.02019e-07
5.74436e-06
2.20835e-07
5.74701e-06
2.40372e-07
5.75217e-06
2.60789e-07
5.76049e-06
2.80529e-07
3.00019e-07
5.77255e-06
6.99912e-06
1.41293e-08
7.00145e-06
3.93996e-08
7.00414e-06
5.9908e-08
7.00631e-06
7.61336e-08
7.00778e-06
8.9715e-08
7.00868e-06
1.023e-07
7.00913e-06
1.14729e-07
7.00918e-06
1.27345e-07
7.00893e-06
1.40339e-07
7.0086e-06
1.5405e-07
7.00848e-06
1.68584e-07
7.00896e-06
1.84148e-07
7.0105e-06
2.00478e-07
7.01366e-06
2.17677e-07
7.01904e-06
2.34991e-07
7.02729e-06
2.52544e-07
7.03897e-06
2.68852e-07
2.84435e-07
7.05455e-06
8.53179e-06
1.31883e-08
8.53415e-06
3.70345e-08
8.5371e-06
5.6961e-08
8.53985e-06
7.3386e-08
8.54209e-06
8.74751e-08
8.54389e-06
1.005e-07
8.54538e-06
1.13238e-07
8.54666e-06
1.2606e-07
8.54789e-06
1.39111e-07
8.54932e-06
1.52623e-07
8.55129e-06
1.66616e-07
8.55422e-06
1.81212e-07
8.55861e-06
1.96092e-07
8.565e-06
2.11285e-07
8.57395e-06
2.26044e-07
8.586e-06
2.40487e-07
8.60159e-06
2.53267e-07
2.65004e-07
8.62102e-06
1.04002e-05
1.22318e-08
1.04027e-05
3.45273e-08
1.04061e-05
5.35698e-08
1.04097e-05
6.9796e-08
1.04131e-05
8.405e-08
1.04163e-05
9.7255e-08
1.04195e-05
1.10047e-07
1.04228e-05
1.22774e-07
1.04264e-05
1.3554e-07
1.04305e-05
1.48485e-07
1.04356e-05
1.61552e-07
1.0442e-05
1.74785e-07
1.04503e-05
1.87848e-07
1.04608e-05
2.00727e-07
1.04741e-05
2.12742e-07
1.04906e-05
2.24024e-07
1.05104e-05
2.33434e-07
2.41654e-07
1.05338e-05
1.26778e-05
1.1178e-08
1.26807e-05
3.16384e-08
1.26849e-05
4.93772e-08
1.26898e-05
6.48922e-08
1.26951e-05
7.88137e-08
1.27005e-05
9.17731e-08
1.27064e-05
1.04228e-07
1.27127e-05
1.16452e-07
1.27197e-05
1.28511e-07
1.27277e-05
1.40465e-07
1.27371e-05
1.52208e-07
1.27481e-05
1.6373e-07
1.27613e-05
1.74715e-07
1.27769e-05
1.85139e-07
1.27952e-05
1.94443e-07
1.28164e-05
2.02777e-07
1.28406e-05
2.09262e-07
2.14571e-07
1.28677e-05
1.54545e-05
9.87828e-09
1.54582e-05
2.7956e-08
1.54638e-05
4.37719e-08
1.54708e-05
5.79066e-08
1.54787e-05
7.08372e-08
1.54875e-05
8.29615e-08
1.54972e-05
9.45532e-08
1.55079e-05
1.05783e-07
1.55197e-05
1.1667e-07
1.5533e-05
1.27223e-07
1.55479e-05
1.37315e-07
1.55647e-05
1.4691e-07
1.55836e-05
1.55746e-07
1.5605e-05
1.63812e-07
1.56287e-05
1.70702e-07
1.56549e-05
1.76576e-07
1.56834e-05
1.80822e-07
1.84044e-07
1.57139e-05
1.88394e-05
8.08372e-09
1.88446e-05
2.28175e-08
1.88526e-05
3.57909e-08
1.88628e-05
4.7669e-08
1.88748e-05
5.87981e-08
1.88884e-05
6.9375e-08
1.89035e-05
7.9493e-08
1.892e-05
8.92093e-08
1.89382e-05
9.84974e-08
1.89581e-05
1.07335e-07
1.89798e-05
1.15601e-07
1.90035e-05
1.2325e-07
1.90291e-05
1.30093e-07
1.90568e-05
1.36141e-07
1.90864e-05
1.41128e-07
1.91177e-05
1.45218e-07
1.91505e-05
1.48023e-07
1.5004e-07
1.91845e-05
2.29661e-05
5.36429e-09
2.29737e-05
1.51337e-08
2.29856e-05
2.39265e-08
2.30008e-05
3.24255e-08
2.30188e-05
4.08378e-08
2.30391e-05
4.91183e-08
2.30614e-05
5.71576e-08
2.30857e-05
6.49037e-08
2.31119e-05
7.2295e-08
2.314e-05
7.92841e-08
2.31698e-05
8.57532e-08
2.32014e-05
9.16578e-08
2.32346e-05
9.6866e-08
2.32694e-05
1.01402e-07
2.33054e-05
1.05109e-07
2.33425e-05
1.08129e-07
2.33803e-05
1.10235e-07
1.11778e-07
2.34185e-05
1.68132e-05
2.85921e-09
1.68201e-05
8.19901e-09
1.68306e-05
1.34471e-08
1.68438e-05
1.92173e-08
1.68591e-05
2.5531e-08
1.68762e-05
3.20617e-08
1.68948e-05
3.85464e-08
1.69148e-05
4.48956e-08
1.69361e-05
5.10338e-08
1.69585e-05
5.68835e-08
1.69819e-05
6.23154e-08
1.70063e-05
6.72784e-08
1.70315e-05
7.16676e-08
1.70574e-05
7.5508e-08
1.70838e-05
7.86891e-08
1.71106e-05
8.13308e-08
1.71376e-05
8.32767e-08
8.4797e-08
1.71645e-05
1.46372e-05
2.36659e-10
1.46444e-05
9.75587e-10
1.46551e-05
2.77478e-09
1.46682e-05
6.1439e-09
1.4683e-05
1.07166e-08
1.46993e-05
1.57563e-08
1.47169e-05
2.09112e-08
1.47357e-05
2.61195e-08
1.47554e-05
3.12921e-08
1.4776e-05
3.63037e-08
1.47973e-05
4.10059e-08
1.48193e-05
4.53402e-08
1.48417e-05
4.92188e-08
1.48646e-05
5.26612e-08
1.48877e-05
5.55811e-08
1.49109e-05
5.80772e-08
1.49342e-05
6.00326e-08
6.16602e-08
1.49573e-05
1.27429e-05
-2.51604e-09
1.27505e-05
-6.59422e-09
1.27613e-05
-8.0836e-09
1.2774e-05
-6.56091e-09
1.27881e-05
-3.34314e-09
1.28034e-05
4.33768e-10
1.28198e-05
4.48056e-09
1.28371e-05
8.80254e-09
1.28552e-05
1.3262e-08
1.28738e-05
1.76676e-08
1.2893e-05
2.18554e-08
1.29125e-05
2.57653e-08
1.29324e-05
2.93213e-08
1.29526e-05
3.25337e-08
1.29728e-05
3.53316e-08
1.29931e-05
3.7792e-08
1.30133e-05
3.98266e-08
4.16056e-08
1.30334e-05
1.1094e-05
-5.59853e-09
1.11022e-05
-1.47922e-08
1.11131e-05
-1.90124e-08
1.11252e-05
-1.86677e-08
1.11384e-05
-1.64787e-08
1.11526e-05
-1.38023e-08
1.11677e-05
-1.06504e-08
1.11835e-05
-6.97371e-09
1.11998e-05
-3.0187e-09
1.12165e-05
9.52643e-10
1.12336e-05
4.78068e-09
1.1251e-05
8.40423e-09
1.12685e-05
1.17563e-08
1.12862e-05
1.48346e-08
1.1304e-05
1.75796e-08
1.13217e-05
2.00519e-08
1.13394e-05
2.21778e-08
2.4086e-08
1.13569e-05
9.65886e-06
-9.2483e-09
9.66794e-06
-2.38674e-08
9.67874e-06
-2.98167e-08
9.69001e-06
-2.99322e-08
9.70216e-06
-2.86283e-08
9.7153e-06
-2.69418e-08
9.72911e-06
-2.44639e-08
9.74336e-06
-2.12238e-08
9.75796e-06
-1.76207e-08
9.77287e-06
-1.39581e-08
9.78803e-06
-1.03793e-08
9.80338e-06
-6.94232e-09
9.81885e-06
-3.71078e-09
9.83438e-06
-7.02588e-10
9.84993e-06
2.03353e-09
9.86544e-06
4.54247e-09
9.88084e-06
6.77793e-09
8.84388e-09
9.89608e-06
8.4099e-06
-1.37952e-08
8.41998e-06
-3.39458e-08
8.43035e-06
-4.01856e-08
8.44066e-06
-4.02408e-08
8.45187e-06
-3.98417e-08
8.46392e-06
-3.89909e-08
8.4764e-06
-3.69477e-08
8.48916e-06
-3.39826e-08
8.50217e-06
-3.06321e-08
8.51541e-06
-2.71969e-08
8.52882e-06
-2.37917e-08
8.54236e-06
-2.04812e-08
8.55598e-06
-1.73246e-08
8.56963e-06
-1.43533e-08
8.58326e-06
-1.16026e-08
8.59686e-06
-9.05182e-09
8.61038e-06
-6.74669e-09
-4.60946e-09
8.62384e-06
7.32323e-06
-1.97426e-08
7.33405e-06
-4.4769e-08
7.3436e-06
-4.9735e-08
7.35306e-06
-4.96927e-08
7.36347e-06
-5.02525e-08
7.37445e-06
-4.99774e-08
7.38564e-06
-4.81361e-08
7.39699e-06
-4.53315e-08
7.40852e-06
-4.21564e-08
7.42019e-06
-3.88768e-08
7.43198e-06
-3.55815e-08
7.44386e-06
-3.23518e-08
7.45576e-06
-2.92338e-08
7.46769e-06
-2.62798e-08
7.47959e-06
-2.35049e-08
7.49146e-06
-2.09166e-08
7.50322e-06
-1.8506e-08
-1.6254e-08
7.51486e-06
6.37821e-06
-2.78851e-08
6.38892e-06
-5.54793e-08
6.39731e-06
-5.81244e-08
6.40613e-06
-5.85124e-08
6.41583e-06
-5.99581e-08
6.42581e-06
-5.99491e-08
6.43584e-06
-5.81721e-08
6.446e-06
-5.54859e-08
6.45628e-06
-5.24401e-08
6.46667e-06
-4.92681e-08
6.47713e-06
-4.60403e-08
6.48764e-06
-4.28666e-08
6.49817e-06
-3.97566e-08
6.5087e-06
-3.68115e-08
6.51918e-06
-3.39858e-08
6.52964e-06
-3.13811e-08
6.54005e-06
-2.89105e-08
-2.66561e-08
6.55045e-06
5.55703e-06
-3.94463e-08
5.56667e-06
-6.51261e-08
5.57436e-06
-6.58068e-08
5.58334e-06
-6.74925e-08
5.59293e-06
-6.95556e-08
5.60255e-06
-6.95631e-08
5.61217e-06
-6.77969e-08
5.62186e-06
-6.51784e-08
5.63158e-06
-6.21561e-08
5.64129e-06
-5.8977e-08
5.65095e-06
-5.57003e-08
5.66056e-06
-5.24797e-08
5.67007e-06
-4.92662e-08
5.6795e-06
-4.62407e-08
5.68877e-06
-4.32596e-08
5.69796e-06
-4.05674e-08
5.70705e-06
-3.8001e-08
-3.5624e-08
5.71602e-06
4.85019e-06
-6.20339e-08
4.8632e-06
-7.8133e-08
4.87392e-06
-7.65219e-08
4.884e-06
-7.75804e-08
4.892e-06
-7.75533e-08
4.89787e-06
-7.54274e-08
4.90205e-06
-7.1984e-08
4.90491e-06
-6.80297e-08
4.90665e-06
-6.38996e-08
4.90752e-06
-5.98442e-08
4.90772e-06
-5.5909e-08
4.90744e-06
-5.21937e-08
4.90681e-06
-4.8635e-08
4.90592e-06
-4.53555e-08
4.90489e-06
-4.22237e-08
4.90371e-06
-3.93882e-08
4.90257e-06
-3.68655e-08
-3.49056e-08
4.90185e-06
4.14064e-06
4.06251e-06
3.98599e-06
3.90841e-06
3.83085e-06
3.75543e-06
3.68344e-06
3.61541e-06
3.55151e-06
3.49167e-06
3.43576e-06
3.38357e-06
3.33493e-06
3.28958e-06
3.24735e-06
3.20796e-06
3.1711e-06
3.13619e-06
-4.60828e-07
4.60828e-07
-8.40915e-07
3.80086e-07
-1.08975e-06
2.48831e-07
-1.25519e-06
1.65441e-07
-1.26811e-06
1.29276e-08
-1.08135e-06
-1.86765e-07
-6.73169e-07
-4.08181e-07
-6.94215e-08
-6.03748e-07
6.56148e-07
-7.25569e-07
1.45455e-06
-7.98398e-07
2.25772e-06
-8.03177e-07
3.01681e-06
-7.59092e-07
3.70099e-06
-6.84175e-07
4.29352e-06
-5.92535e-07
4.78691e-06
-4.9339e-07
5.17217e-06
-3.85253e-07
5.4452e-06
-2.73028e-07
5.6016e-06
-1.56407e-07
5.64079e-06
-3.91879e-08
5.55301e-06
8.7782e-08
5.33865e-06
2.14356e-07
4.9923e-06
3.46354e-07
4.51369e-06
4.78613e-07
3.90096e-06
6.12729e-07
3.15186e-06
7.49095e-07
2.30401e-06
8.47851e-07
1.28566e-06
1.01835e-06
3.65771e-07
9.19891e-07
-3.3653e-07
7.02301e-07
-9.47451e-07
6.10922e-07
-1.44651e-06
4.99058e-07
-1.77766e-06
3.31147e-07
-1.937e-06
1.59348e-07
-1.97505e-06
3.80443e-08
-1.85896e-06
-1.16088e-07
-1.55048e-06
-3.08479e-07
-9.62981e-07
-5.875e-07
-1.82001e-07
-7.8098e-07
5.66149e-07
-7.4815e-07
8.65677e-07
-2.99528e-07
9.58961e-07
-9.32843e-08
1.41008e-06
-4.51116e-07
1.56924e-06
-1.59166e-07
1.51821e-06
5.10291e-08
1.06976e-06
4.4845e-07
-2.43763e-07
1.31353e-06
-1.78018e-06
1.53642e-06
-3.23204e-06
1.45185e-06
-4.56439e-06
1.33235e-06
-5.75043e-06
1.18604e-06
-6.79365e-06
1.04322e-06
-7.70819e-06
9.14542e-07
-8.50846e-06
8.00268e-07
-9.20786e-06
6.99402e-07
-9.81778e-06
6.09921e-07
-1.03476e-05
5.29808e-07
-1.08046e-05
4.56999e-07
-1.11944e-05
3.89828e-07
-1.15213e-05
3.26913e-07
-1.17885e-05
2.67164e-07
-1.19983e-05
2.09779e-07
-1.21524e-05
1.54174e-07
-1.22524e-05
9.99648e-08
-1.22996e-05
4.71758e-08
-1.2296e-05
-3.62151e-09
-1.22443e-05
-5.16666e-08
-1.21464e-05
-9.79264e-08
-1.2003e-05
-1.43371e-07
-1.18147e-05
-1.88333e-07
-1.15814e-05
-2.33315e-07
-1.13026e-05
-2.78777e-07
-1.09774e-05
-3.2513e-07
-1.06047e-05
-3.72701e-07
-1.01833e-05
-4.21428e-07
-9.7126e-06
-4.70724e-07
-9.19337e-06
-5.19223e-07
-8.6287e-06
-5.64674e-07
-8.02453e-06
-6.04175e-07
-7.38971e-06
-6.34815e-07
-6.73552e-06
-6.5419e-07
-6.07574e-06
-6.59784e-07
-5.42511e-06
-6.50624e-07
-4.79414e-06
-6.30975e-07
-4.18969e-06
-6.04451e-07
-3.61687e-06
-5.72818e-07
-3.07827e-06
-5.38603e-07
-2.57474e-06
-5.03523e-07
-2.10597e-06
-4.68771e-07
-1.67068e-06
-4.35297e-07
-1.26737e-06
-4.03302e-07
-8.94137e-07
-3.73237e-07
-5.4911e-07
-3.45026e-07
-2.30891e-07
-3.18219e-07
6.28351e-08
-2.93726e-07
3.3302e-07
-2.70184e-07
5.81072e-07
-2.48052e-07
8.083e-07
-2.27228e-07
1.01585e-06
-2.07551e-07
1.20478e-06
-1.88928e-07
1.37604e-06
-1.71259e-07
1.53048e-06
-1.54437e-07
1.66884e-06
-1.38362e-07
1.79176e-06
-1.22923e-07
1.8998e-06
-1.08044e-07
1.99357e-06
-9.3762e-08
2.07367e-06
-8.01062e-08
2.14039e-06
-6.67165e-08
2.19319e-06
-5.27967e-08
2.23158e-06
-3.83953e-08
2.25781e-06
-2.62322e-08
2.27764e-06
-1.98293e-08
2.29377e-06
-1.61243e-08
2.29757e-06
-3.80057e-09
2.27353e-06
2.40362e-08
2.21507e-06
5.84595e-08
2.13526e-06
7.9811e-08
2.06013e-06
7.51339e-08
2.01043e-06
4.97018e-08
1.99493e-06
1.54976e-08
2.00869e-06
-1.37652e-08
2.05133e-06
-4.26415e-08
2.12354e-06
-7.22064e-08
2.2217e-06
-9.81589e-08
2.329e-06
-1.07304e-07
2.43141e-06
-1.0241e-07
2.54195e-06
-1.10533e-07
2.66374e-06
-1.21798e-07
2.66653e-06
-2.78153e-09
2.26227e-06
4.04261e-07
1.19715e-06
1.06512e-06
-3.29493e-07
1.52664e-06
-1.91499e-06
1.58549e-06
-3.34536e-06
1.43037e-06
-4.579e-06
1.23364e-06
-5.62522e-06
1.04621e-06
-6.49683e-06
8.71619e-07
-7.19681e-06
6.99979e-07
-7.71959e-06
5.22773e-07
-8.05567e-06
3.36082e-07
-8.19696e-06
1.41295e-07
-8.15123e-06
-4.57368e-08
-7.92342e-06
-2.27806e-07
-7.52322e-06
-4.00197e-07
-6.96933e-06
-5.53894e-07
-6.28988e-06
-6.79445e-07
-5.5213e-06
-7.68586e-07
-4.7029e-06
-8.18399e-07
-3.87198e-06
-8.30915e-07
-3.05968e-06
-8.12301e-07
-2.28933e-06
-7.7035e-07
-1.57602e-06
-7.13316e-07
-9.27879e-07
-6.48139e-07
-3.47722e-07
-5.80156e-07
1.71445e-07
-5.19167e-07
6.33024e-07
-4.61578e-07
1.0455e-06
-4.1248e-07
1.41992e-06
-3.74413e-07
1.76869e-06
-3.48778e-07
2.1036e-06
-3.34902e-07
2.43705e-06
-3.3345e-07
2.78663e-06
-3.49582e-07
3.16712e-06
-3.80496e-07
3.59121e-06
-4.24087e-07
4.07517e-06
-4.83959e-07
4.60911e-06
-5.33936e-07
5.1579e-06
-5.48789e-07
5.70858e-06
-5.50687e-07
6.21524e-06
-5.06654e-07
6.59594e-06
-3.80705e-07
6.86378e-06
-2.6784e-07
6.8894e-06
-2.56174e-08
6.22071e-06
6.68692e-07
4.82085e-06
1.39985e-06
3.4021e-06
1.41876e-06
2.68311e-06
7.18983e-07
2.62917e-06
5.39431e-08
2.58903e-06
4.01406e-08
1.935e-06
6.54027e-07
6.85057e-07
1.24995e-06
1.34918e-06
-6.64119e-07
1.86181e-08
4.4221e-07
4.44346e-08
3.5427e-07
5.86197e-08
2.34646e-07
1.31591e-07
9.24702e-08
4.28815e-07
-2.84296e-07
9.79597e-07
-7.37546e-07
1.67238e-06
-1.10096e-06
2.43138e-06
-1.36275e-06
3.20781e-06
-1.502e-06
3.9456e-06
-1.53619e-06
4.62885e-06
-1.48643e-06
5.24516e-06
-1.3754e-06
5.78486e-06
-1.22387e-06
6.24018e-06
-1.04785e-06
6.60509e-06
-8.58305e-07
6.88049e-06
-6.60648e-07
7.06695e-06
-4.59487e-07
7.16644e-06
-2.55905e-07
7.18573e-06
-5.84701e-08
7.12257e-06
1.50936e-07
6.97995e-06
3.56983e-07
6.75911e-06
5.67193e-07
6.45743e-06
7.80285e-07
6.07819e-06
9.91976e-07
5.62007e-06
1.20721e-06
5.07631e-06
1.39162e-06
4.52447e-06
1.57019e-06
3.79468e-06
1.64968e-06
2.87203e-06
1.62495e-06
1.96791e-06
1.51504e-06
1.20165e-06
1.26532e-06
6.4411e-07
8.88687e-07
2.74657e-07
5.28801e-07
1.38776e-07
1.73925e-07
2.00398e-07
-1.7771e-07
4.40124e-07
-5.48205e-07
9.28368e-07
-1.07574e-06
1.31367e-06
-1.16628e-06
1.51204e-06
-9.46522e-07
1.89926e-06
-6.86746e-07
1.88873e-06
-8.27494e-08
1.15471e-06
2.82898e-07
-4.05701e-07
1.40125e-06
-2.52371e-06
2.16904e-06
-4.36278e-06
2.28753e-06
-5.51606e-06
2.4668e-06
-6.41343e-06
2.43379e-06
-7.25316e-06
2.29158e-06
-8.0113e-06
2.0905e-06
-8.6986e-06
1.87333e-06
-9.31684e-06
1.66147e-06
-9.86928e-06
1.46698e-06
-1.03607e-05
1.29169e-06
-1.0796e-05
1.13473e-06
-1.11794e-05
9.93257e-07
-1.15141e-05
8.6451e-07
-1.18027e-05
7.45674e-07
-1.20473e-05
6.34416e-07
-1.22492e-05
5.28798e-07
-1.24094e-05
4.27332e-07
-1.25286e-05
3.28962e-07
-1.26073e-05
2.32955e-07
-1.26462e-05
1.38789e-07
-1.26452e-05
4.61733e-08
-1.26041e-05
-4.46891e-08
-1.25213e-05
-1.34458e-07
-1.2396e-05
-2.23182e-07
-1.22286e-05
-3.10844e-07
-1.20189e-05
-3.97977e-07
-1.17669e-05
-4.85373e-07
-1.14716e-05
-5.74032e-07
-1.11317e-05
-6.65011e-07
-1.07453e-05
-7.59102e-07
-1.03103e-05
-8.56425e-07
-9.82516e-06
-9.55901e-07
-9.28963e-06
-1.05475e-06
-8.70613e-06
-1.14817e-06
-8.08077e-06
-1.22954e-06
-7.42385e-06
-1.29173e-06
-6.74911e-06
-1.32893e-06
-6.07084e-06
-1.33806e-06
-5.40162e-06
-1.31985e-06
-4.75465e-06
-1.27794e-06
-4.13796e-06
-1.22114e-06
-3.55538e-06
-1.15539e-06
-3.00955e-06
-1.08443e-06
-2.50025e-06
-1.01282e-06
-2.02672e-06
-9.42306e-07
-1.58718e-06
-8.7483e-07
-1.17964e-06
-8.1084e-07
-8.02109e-07
-7.50772e-07
-4.52892e-07
-6.94243e-07
-1.29817e-07
-6.41294e-07
1.69808e-07
-5.9335e-07
4.4641e-07
-5.46787e-07
7.01735e-07
-5.03378e-07
9.37222e-07
-4.62715e-07
1.15418e-06
-4.2451e-07
1.35382e-06
-3.88563e-07
1.53723e-06
-3.54668e-07
1.7054e-06
-3.22616e-07
1.85922e-06
-2.92175e-07
1.99945e-06
-2.63154e-07
2.12682e-06
-2.35411e-07
2.24175e-06
-2.08692e-07
2.34423e-06
-1.82594e-07
2.43436e-06
-1.56843e-07
2.51311e-06
-1.31548e-07
2.58168e-06
-1.06966e-07
2.63868e-06
-8.32258e-08
2.67983e-06
-6.09868e-08
2.70513e-06
-4.14219e-08
2.72388e-06
-2.25532e-08
2.74574e-06
2.17493e-09
2.7726e-06
3.16068e-08
2.8017e-06
5.07081e-08
2.83185e-06
4.49862e-08
2.86285e-06
1.87032e-08
2.89611e-06
-1.77638e-08
2.92875e-06
-4.64034e-08
2.95957e-06
-7.34654e-08
2.99998e-06
-1.12613e-07
3.06547e-06
-1.63656e-07
3.15807e-06
-1.99896e-07
3.24888e-06
-1.9322e-07
3.24822e-06
-1.09881e-07
2.96925e-06
1.57175e-07
2.16534e-06
8.0113e-07
7.66313e-07
1.80329e-06
-8.58826e-07
2.69026e-06
-2.31946e-06
2.98728e-06
-3.52623e-06
2.79226e-06
-4.53273e-06
2.43687e-06
-5.38974e-06
2.09066e-06
-6.12659e-06
1.78306e-06
-6.75166e-06
1.49669e-06
-7.25933e-06
1.20765e-06
-7.63752e-06
9.00961e-07
-7.87346e-06
5.72027e-07
-7.95627e-06
2.24106e-07
-7.87264e-06
-1.29367e-07
-7.61395e-06
-4.86499e-07
-7.18589e-06
-8.28255e-07
-6.60537e-06
-1.13442e-06
-5.90113e-06
-1.38368e-06
-5.10987e-06
-1.55984e-06
-4.27123e-06
-1.65704e-06
-3.4229e-06
-1.67924e-06
-2.59613e-06
-1.63907e-06
-1.81405e-06
-1.55243e-06
-1.09163e-06
-1.43573e-06
-4.37646e-07
-1.30212e-06
1.51564e-07
-1.16937e-06
6.74285e-07
-1.04189e-06
1.13852e-06
-9.25812e-07
1.55417e-06
-8.28128e-07
1.93052e-06
-7.50764e-07
2.27945e-06
-6.9771e-07
2.61427e-06
-6.69723e-07
2.94673e-06
-6.65911e-07
3.29312e-06
-6.95966e-07
3.67356e-06
-7.60935e-07
4.10319e-06
-8.53726e-07
4.59159e-06
-9.72355e-07
5.13737e-06
-1.07972e-06
5.71672e-06
-1.12813e-06
6.29058e-06
-1.12455e-06
6.83651e-06
-1.05258e-06
7.30679e-06
-8.50992e-07
7.63552e-06
-5.96565e-07
7.8938e-06
-2.83898e-07
8.12405e-06
4.38437e-07
8.06099e-06
1.46292e-06
7.33491e-06
2.14484e-06
5.98329e-06
2.0706e-06
4.63118e-06
1.40605e-06
3.58012e-06
1.0912e-06
2.46849e-06
1.76565e-06
1.11167e-06
2.60677e-06
2.65656e-06
-1.95714e-07
1.97756e-07
2.44454e-07
2.51212e-07
3.00814e-07
4.61788e-07
2.40701e-08
1.07856e-06
-5.24298e-07
1.91188e-06
-1.11762e-06
2.78378e-06
-1.60944e-06
3.62563e-06
-1.94281e-06
4.37645e-06
-2.11357e-06
5.02093e-06
-2.14647e-06
5.56051e-06
-2.07577e-06
6.00685e-06
-1.93277e-06
6.37426e-06
-1.74281e-06
6.67476e-06
-1.52437e-06
6.91646e-06
-1.28955e-06
7.10419e-06
-1.04603e-06
7.24123e-06
-7.97694e-07
7.32914e-06
-5.47397e-07
7.36858e-06
-2.95348e-07
7.35409e-06
-4.39726e-08
7.2934e-06
2.11621e-07
7.18377e-06
4.66612e-07
7.02986e-06
7.21107e-07
6.83562e-06
9.74521e-07
6.60548e-06
1.22211e-06
6.34731e-06
1.46538e-06
6.05285e-06
1.68608e-06
5.74107e-06
1.88197e-06
5.36127e-06
2.02947e-06
4.90447e-06
2.08176e-06
4.3941e-06
2.02541e-06
3.86071e-06
1.79871e-06
3.33018e-06
1.41921e-06
2.88804e-06
9.70949e-07
2.6329e-06
4.2906e-07
2.51947e-06
-6.42735e-08
2.67095e-06
-6.99691e-07
2.91071e-06
-1.3155e-06
3.1134e-06
-1.36898e-06
2.58408e-06
-4.17196e-07
1.37114e-06
5.26186e-07
-6.24132e-07
1.91253e-06
-3.06606e-06
2.72483e-06
-4.70448e-06
3.03967e-06
-5.76199e-06
3.22655e-06
-6.669e-06
3.19453e-06
-7.31734e-06
3.11515e-06
-7.82717e-06
2.94361e-06
-8.28019e-06
2.7446e-06
-8.71176e-06
2.52207e-06
-9.13562e-06
2.29719e-06
-9.55155e-06
2.0774e-06
-9.95382e-06
1.86924e-06
-1.03364e-05
1.67427e-06
-1.06943e-05
1.49262e-06
-1.10238e-05
1.32281e-06
-1.13223e-05
1.16299e-06
-1.15877e-05
1.0111e-06
-1.18185e-05
8.65176e-07
-1.20133e-05
7.23561e-07
-1.21709e-05
5.84933e-07
-1.22903e-05
4.48397e-07
-1.23708e-05
3.13485e-07
-1.24121e-05
1.80007e-07
-1.24128e-05
4.69324e-08
-1.23745e-05
-8.30366e-08
-1.22972e-05
-2.11689e-07
-1.21817e-05
-3.387e-07
-1.20283e-05
-4.64253e-07
-1.18371e-05
-5.89225e-07
-1.16074e-05
-7.15002e-07
-1.1338e-05
-8.43453e-07
-1.10263e-05
-9.76754e-07
-1.06685e-05
-1.11687e-06
-1.02601e-05
-1.2648e-06
-9.7964e-06
-1.41963e-06
-9.2738e-06
-1.57735e-06
-8.69201e-06
-1.72996e-06
-8.05616e-06
-1.86539e-06
-7.37842e-06
-1.96947e-06
-6.67681e-06
-2.03054e-06
-5.97075e-06
-2.04411e-06
-5.27762e-06
-2.01298e-06
-4.61074e-06
-1.94482e-06
-3.9801e-06
-1.85178e-06
-3.3894e-06
-1.7461e-06
-2.84014e-06
-1.63369e-06
-2.33109e-06
-1.52188e-06
-1.85988e-06
-1.41351e-06
-1.42425e-06
-1.31046e-06
-1.02137e-06
-1.21372e-06
-6.49075e-07
-1.12307e-06
-3.04829e-07
-1.03849e-06
1.32727e-08
-9.59396e-07
3.05976e-07
-8.86053e-07
5.75786e-07
-8.16597e-07
8.23881e-07
-7.51473e-07
1.05162e-06
-6.90449e-07
1.26034e-06
-6.33238e-07
1.45141e-06
-5.79625e-07
1.62613e-06
-5.29398e-07
1.78584e-06
-4.8232e-07
1.93176e-06
-4.381e-07
2.06505e-06
-3.96442e-07
2.18673e-06
-3.57085e-07
2.29771e-06
-3.19675e-07
2.39886e-06
-2.83742e-07
2.49088e-06
-2.48862e-07
2.57409e-06
-2.14764e-07
2.64832e-06
-1.81189e-07
2.71305e-06
-1.47958e-07
2.76786e-06
-1.15802e-07
2.81277e-06
-8.63315e-08
2.84894e-06
-5.87149e-08
2.87924e-06
-2.81293e-08
2.90644e-06
4.40864e-09
2.93102e-06
2.61282e-08
2.95482e-06
2.11847e-08
2.97841e-06
-4.88889e-09
2.99654e-06
-3.58879e-08
3.01005e-06
-5.99153e-08
3.02881e-06
-9.22293e-08
3.0712e-06
-1.54998e-07
3.14312e-06
-2.35578e-07
3.21478e-06
-2.71558e-07
3.19843e-06
-1.76872e-07
2.92316e-06
1.65396e-07
2.19333e-06
8.86997e-07
9.73254e-07
2.02121e-06
-4.60479e-07
3.23702e-06
-1.69889e-06
3.92867e-06
-2.63595e-06
3.92434e-06
-3.41115e-06
3.56746e-06
-4.14088e-06
3.1666e-06
-4.85751e-06
2.80728e-06
-5.54753e-06
2.47308e-06
-6.1787e-06
2.12786e-06
-6.71546e-06
1.74441e-06
-7.12598e-06
1.31147e-06
-7.38537e-06
8.31418e-07
-7.47418e-06
3.12919e-07
-7.38787e-06
-2.15677e-07
-7.12301e-06
-7.51357e-07
-6.68539e-06
-1.26588e-06
-6.0918e-06
-1.72801e-06
-5.37162e-06
-2.10386e-06
-4.56439e-06
-2.36707e-06
-3.7126e-06
-2.50883e-06
-2.85596e-06
-2.53589e-06
-2.0264e-06
-2.46863e-06
-1.24704e-06
-2.3318e-06
-5.33058e-07
-2.14971e-06
1.14519e-07
-1.9497e-06
6.90176e-07
-1.74502e-06
1.19797e-06
-1.54969e-06
1.64662e-06
-1.37446e-06
2.04474e-06
-1.22624e-06
2.40331e-06
-1.10933e-06
2.73314e-06
-1.02754e-06
3.04656e-06
-9.83143e-07
3.35803e-06
-9.77387e-07
3.6811e-06
-1.01904e-06
4.03544e-06
-1.11527e-06
4.44244e-06
-1.26073e-06
4.91188e-06
-1.4418e-06
5.4408e-06
-1.60863e-06
6.00772e-06
-1.69506e-06
6.57245e-06
-1.68928e-06
7.09709e-06
-1.57722e-06
7.56499e-06
-1.31889e-06
7.92641e-06
-9.57986e-07
8.15501e-06
-5.125e-07
8.40529e-06
1.88163e-07
8.71676e-06
1.15145e-06
8.73523e-06
2.12637e-06
7.97308e-06
2.83275e-06
6.44961e-06
2.92952e-06
4.818e-06
2.72281e-06
3.42768e-06
3.15597e-06
2.12194e-06
3.91251e-06
4.00099e-06
7.77503e-07
4.89067e-08
1.95547e-07
3.43398e-07
6.32321e-09
1.18772e-06
-8.20255e-07
2.26893e-06
-1.6055e-06
3.29332e-06
-2.14201e-06
4.1363e-06
-2.45243e-06
4.77121e-06
-2.57772e-06
5.22663e-06
-2.56899e-06
5.55044e-06
-2.47028e-06
5.78889e-06
-2.31422e-06
5.97706e-06
-2.12094e-06
6.13587e-06
-1.90162e-06
6.27437e-06
-1.66287e-06
6.39394e-06
-1.40913e-06
6.49213e-06
-1.14422e-06
6.56533e-06
-8.70894e-07
6.61036e-06
-5.92423e-07
6.6252e-06
-3.10188e-07
6.60936e-06
-2.81321e-08
6.56462e-06
2.5636e-07
6.49163e-06
5.39598e-07
6.3931e-06
8.19637e-07
6.27192e-06
1.09571e-06
6.13253e-06
1.3615e-06
5.98016e-06
1.61775e-06
5.81415e-06
1.85209e-06
5.63716e-06
2.05896e-06
5.44444e-06
2.22218e-06
5.22184e-06
2.30436e-06
4.95086e-06
2.29639e-06
4.62016e-06
2.12941e-06
4.21301e-06
1.82636e-06
3.88313e-06
1.30082e-06
3.51578e-06
7.96412e-07
3.32152e-06
1.29985e-07
3.52502e-06
-9.03191e-07
3.06907e-06
-8.59544e-07
1.57278e-06
1.27309e-07
-6.52595e-07
1.80818e-06
-3.01381e-06
2.8874e-06
-4.60952e-06
3.50824e-06
-5.671e-06
3.78631e-06
-6.45937e-06
3.82804e-06
-7.00256e-06
3.76974e-06
-7.45444e-06
3.6464e-06
-7.82477e-06
3.48549e-06
-8.16753e-06
3.28637e-06
-8.49401e-06
3.07109e-06
-8.81741e-06
2.84547e-06
-9.13907e-06
2.61884e-06
-9.4569e-06
2.39524e-06
-9.76609e-06
2.17843e-06
-1.0062e-05
1.97022e-06
-1.03407e-05
1.77129e-06
-1.05991e-05
1.58117e-06
-1.08347e-05
1.3986e-06
-1.10455e-05
1.22195e-06
-1.12299e-05
1.04949e-06
-1.13859e-05
8.79653e-07
-1.15123e-05
7.11244e-07
-1.16074e-05
5.43586e-07
-1.16705e-05
3.76516e-07
-1.17011e-05
2.10616e-07
-1.1698e-05
4.38333e-08
-1.16642e-05
-1.1683e-07
-1.15992e-05
-2.76724e-07
-1.15044e-05
-4.33421e-07
-1.13814e-05
-5.87315e-07
-1.12307e-05
-7.3994e-07
-1.10521e-05
-8.9356e-07
-1.08441e-05
-1.05143e-06
-1.06032e-05
-1.2177e-06
-1.03232e-05
-1.39682e-06
-9.99558e-06
-1.59244e-06
-9.60948e-06
-1.80573e-06
-9.15371e-06
-2.03312e-06
-8.61984e-06
-2.26382e-06
-8.00692e-06
-2.47831e-06
-7.3261e-06
-2.65029e-06
-6.60146e-06
-2.75519e-06
-5.86331e-06
-2.78226e-06
-5.13795e-06
-2.73833e-06
-4.44385e-06
-2.63893e-06
-3.79399e-06
-2.50163e-06
-3.19262e-06
-2.34747e-06
-2.63884e-06
-2.18747e-06
-2.13046e-06
-2.03026e-06
-1.66314e-06
-1.88083e-06
-1.23299e-06
-1.74061e-06
-8.36157e-07
-1.61055e-06
-4.6953e-07
-1.4897e-06
-1.3088e-07
-1.37714e-06
1.83232e-07
-1.27351e-06
4.72663e-07
-1.17548e-06
7.39632e-07
-1.08357e-06
9.85354e-07
-9.97195e-07
1.21089e-06
-9.15982e-07
1.41725e-06
-8.39604e-07
1.60543e-06
-7.67806e-07
1.7764e-06
-7.00367e-07
1.93117e-06
-6.37082e-07
2.0708e-06
-5.77732e-07
2.19645e-06
-5.22098e-07
2.30933e-06
-4.69957e-07
2.41061e-06
-4.20961e-07
2.50153e-06
-3.74663e-07
2.58341e-06
-3.30742e-07
2.65763e-06
-2.8898e-07
2.72515e-06
-2.48705e-07
2.78614e-06
-2.08953e-07
2.8405e-06
-1.70162e-07
2.88842e-06
-1.34251e-07
2.93021e-06
-1.00506e-07
2.96651e-06
-6.44325e-08
2.99843e-06
-2.7504e-08
3.02798e-06
-3.42928e-09
3.05376e-06
-4.59224e-09
3.07135e-06