/*--------------------------------*- C++ -*----------------------------------*\
| =========                 |                                                 |
| \\      /  F ield         | OpenFOAM: The Open Source CFD Toolbox           |
|  \\    /   O peration     | Version:  2112                                  |
|   \\  /    A nd           | Website:  www.openfoam.com                      |
|    \\/     M anipulation  |                                                 |
\*---------------------------------------------------------------------------*/
FoamFile
{
    version     2.0;
    format      ascii;
    arch        "LSB;label=32;scalar=64";
    class       volScalarField;
    location    "0.06";
    object      p;
}
// * * * * * * * * * * * * * * * * * * * * * * * * * * * * * * * * * * * * * //

dimensions      [0 2 -2 0 0 0 0];

internalField   nonuniform List<scalar> 
122250
(
0.978813
-0.44056
-1.19617
-1.45702
-1.54525
-1.58471
-1.58963
-1.5447
-1.44138
-1.27905
-1.05986
-0.774925
-0.421817
0.0238795
0.542904
1.19093
1.90989
2.7973
0.771494
-0.439448
-1.18239
-1.46409
-1.55508
-1.59294
-1.5996
-1.55787
-1.4575
-1.29829
-1.0824
-0.803227
-0.456363
-0.0271374
0.480953
1.08482
1.75785
2.39557
0.417243
-0.492916
-1.1851
-1.48351
-1.57472
-1.60571
-1.6096
-1.56895
-1.47085
-1.31503
-1.10458
-0.834322
-0.501318
-0.0958116
0.379255
0.917253
1.47961
1.96007
0.143272
-0.553773
-1.17887
-1.49028
-1.58885
-1.61576
-1.61729
-1.57911
-1.48618
-1.33753
-1.1363
-0.879825
-0.566441
-0.193008
0.234047
0.69603
1.15386
1.52893
-0.119581
-0.647979
-1.19443
-1.50776
-1.61598
-1.64056
-1.63883
-1.60233
-1.51494
-1.37461
-1.18461
-0.944647
-0.654981
-0.317477
0.0580742
0.449065
0.821521
1.11892
-0.36175
-0.760659
-1.22595
-1.53022
-1.64696
-1.67128
-1.66681
-1.63208
-1.55113
-1.42086
-1.24459
-1.02396
-0.761244
-0.461886
-0.137755
0.190088
0.491277
0.727988
-0.586672
-0.888027
-1.27536
-1.56056
-1.68323
-1.70999
-1.70474
-1.67254
-1.599
-1.48041
-1.3202
-1.12144
-0.888277
-0.62816
-0.353529
-0.082862
0.158631
0.344801
-0.797075
-1.02555
-1.34245
-1.60172
-1.72698
-1.75813
-1.75408
-1.72518
-1.65978
-1.55426
-1.41209
-1.23733
-1.03542
-0.814647
-0.587189
-0.368763
-0.179017
-0.0361048
-0.995854
-1.17028
-1.42655
-1.65616
-1.77993
-1.81602
-1.81501
-1.79059
-1.73432
-1.64323
-1.52088
-1.37187
-1.20222
-1.02039
-0.83767
-0.667076
-0.523513
-0.419672
-1.18587
-1.32022
-1.52606
-1.72512
-1.8436
-1.88432
-1.8881
-1.86978
-1.8239
-1.74854
-1.64742
-1.52535
-1.38842
-1.24479
-1.10447
-0.978108
-0.876875
-0.809554
-1.36977
-1.47414
-1.63908
-1.80898
-1.91949
-1.96413
-1.97416
-1.96365
-1.9295
-1.871
-1.79216
-1.69779
-1.59369
-1.4873
-1.38727
-1.30222
-1.2405
-1.20831
-1.53507
-1.61905
-1.75397
-1.89961
-2.00147
-2.04892
-2.0656
-2.06373
-2.04157
-1.99949
-1.94177
-1.87311
-1.79882
-1.72549
-1.66058
-1.6112
-1.58387
-1.58326
-1.69757
-1.76573
-1.8764
-2.00075
-2.09384
-2.14351
-2.16727
-2.17499
-2.1657
-2.14057
-2.10413
-2.06094
-2.01573
-1.97421
-1.94273
-1.9272
-1.93274
-1.96294
-1.88259
-1.9368
-2.0258
-2.13003
-2.21403
-2.266
-2.2982
-2.31784
-2.32422
-2.31912
-2.3072
-2.29282
-2.28004
-2.27353
-2.27848
-2.29964
-2.34103
-2.40536
-2.0933
-2.13558
-2.20611
-2.29274
-2.36863
-2.42358
-2.46571
-2.49967
-2.52475
-2.54292
-2.55878
-2.57631
-2.59881
-2.62992
-2.67373
-2.7339
-2.81352
-2.9146
-2.33342
-2.3657
-2.42105
-2.49395
-2.56412
-2.62367
-2.67747
-2.72809
-2.77471
-2.81918
-2.86563
-2.9175
-2.97735
-3.04779
-3.13188
-3.23234
-3.35144
-3.4906
-2.60658
-2.63053
-2.67238
-2.73761
-2.80559
-2.87233
-2.93989
-3.00919
-3.07959
-3.1526
-3.23154
-3.31909
-3.41703
-3.52704
-3.65126
-3.79156
-3.94949
-4.12586
-2.91484
-2.93351
-2.97392
-3.02675
-3.09496
-3.17181
-3.2552
-3.34463
-3.44
-3.54251
-3.65429
-3.77708
-3.91187
-4.05952
-4.22129
-4.39822
-4.59113
-4.80027
-3.2527
-3.2656
-3.29833
-3.35073
-3.42504
-3.51592
-3.61711
-3.72712
-3.84715
-3.97819
-4.12105
-4.27633
-4.44432
-4.62509
-4.81896
-5.02603
-5.24616
-5.47869
-3.5248
-3.53345
-3.56234
-3.61517
-3.69705
-3.80123
-3.91672
-4.04159
-4.17897
-4.32998
-4.49403
-4.67062
-4.85958
-5.06064
-5.27359
-5.49803
-5.73337
-5.97887
-3.70825
-3.71375
-3.74093
-3.7949
-3.8834
-3.99761
-4.12261
-4.25654
-4.40458
-4.56812
-4.74534
-4.93473
-5.13576
-5.34815
-5.57148
-5.80515
-6.0483
-6.30014
-3.8398
-3.84308
-3.87023
-3.92741
-4.023
-4.14532
-4.27671
-4.41654
-4.57216
-4.74486
-4.93141
-5.12952
-5.33857
-5.55832
-5.78818
-6.02733
-6.27468
-6.52934
-3.92962
-3.93195
-3.96099
-4.02399
-4.12771
-4.25603
-4.39065
-4.53404
-4.69554
-4.8756
-5.06914
-5.27324
-5.4875
-5.71186
-5.94564
-6.1879
-6.43745
-6.69294
-3.98579
-3.98951
-4.02339
-4.09436
-4.20609
-4.33821
-4.47358
-4.6194
-4.786
-4.97246
-5.17143
-5.3799
-5.59796
-5.82571
-6.06232
-6.30659
-6.55739
-6.81367
-4.01417
-4.02255
-4.06707
-4.14898
-4.26506
-4.39538
-4.52938
-4.67757
-4.84858
-5.04026
-5.24303
-5.45477
-5.67576
-5.90608
-6.14485
-6.39087
-6.64269
-6.89835
-4.0202
-4.03594
-4.09571
-4.19437
-4.31691
-4.44508
-4.57806
-4.73011
-4.90644
-5.0978
-5.30069
-5.51367
-5.73649
-5.96855
-6.20872
-6.45612
-6.70904
-6.96538
-4.01059
-4.03892
-4.10958
-4.21538
-4.33634
-4.46135
-4.59675
-4.7541
-4.9339
-5.12802
-5.33323
-5.5485
-5.77349
-6.00775
-6.25081
-6.50098
-6.75599
-7.01407
-3.98538
-4.06452
-4.15931
-4.26295
-4.3709
-4.488
-4.62362
-4.78372
-4.96504
-5.16004
-5.36547
-5.58084
-5.80611
-6.04065
-6.2832
-6.53285
-6.78798
-7.04691
-3.87649
-4.00308
-4.14263
-4.26284
-4.37253
-4.49233
-4.6327
-4.7966
-4.98062
-5.17878
-5.38733
-5.60553
-5.83276
-6.06898
-6.31221
-6.56445
-6.82264
-7.09539
-4.04219
-4.07481
-4.17472
-4.28008
-4.37995
-4.49554
-4.63524
-4.79849
-4.98158
-5.17871
-5.38661
-5.60395
-5.83098
-6.0662
-6.31011
-6.55931
-6.81426
-7.06704
0.803859
-0.534443
-1.25231
-1.50306
-1.5822
-1.60808
-1.59853
-1.5392
-1.42011
-1.23805
-0.994208
-0.676066
-0.285204
0.200339
0.76322
1.46632
2.23542
3.18815
0.599118
-0.538537
-1.24369
-1.51328
-1.59458
-1.61919
-1.61105
-1.55447
-1.43809
-1.25932
-1.01921
-0.708998
-0.326809
0.141533
0.693648
1.34715
2.06707
2.72456
0.264988
-0.58971
-1.24719
-1.53421
-1.6164
-1.63406
-1.62288
-1.56733
-1.4535
-1.27873
-1.045
-0.745984
-0.379909
0.0623683
0.577095
1.15391
1.74619
2.21641
0.0049729
-0.648413
-1.24084
-1.54016
-1.63006
-1.64396
-1.63065
-1.57789
-1.4697
-1.303
-1.07975
-0.796773
-0.452733
-0.0460402
0.414972
0.906512
1.38131
1.73653
-0.245262
-0.739778
-1.25693
-1.55795
-1.65822
-1.67066
-1.65448
-1.60352
-1.50111
-1.34337
-1.13246
-0.867759
-0.549906
-0.182711
0.221986
0.638476
1.02058
1.30292
-0.474912
-0.848715
-1.28833
-1.57989
-1.68872
-1.70164
-1.68318
-1.63414
-1.53846
-1.39151
-1.19556
-0.951951
-0.6636
-0.337466
0.0123273
0.361086
0.672408
0.902683
-0.689117
-0.97186
-1.33709
-1.60946
-1.72408
-1.74033
-1.72195
-1.67596
-1.58814
-1.45368
-1.27502
-1.05503
-0.798478
-0.514065
-0.21657
0.0727443
0.326105
0.514144
-0.890042
-1.10462
-1.40292
-1.64973
-1.76685
-1.78828
-1.77208
-1.73002
-1.65083
-1.53014
-1.37065
-1.17625
-0.952862
-0.709955
-0.461443
-0.224814
-0.021198
0.129794
-1.08037
-1.24435
-1.48522
-1.70315
-1.81873
-1.84568
-1.83344
-1.7966
-1.72711
-1.62157
-1.483
-1.31581
-1.12641
-0.924161
-0.721496
-0.532608
-0.373201
-0.255871
-1.26281
-1.38934
-1.58241
-1.77087
-1.88121
-1.91323
-1.90663
-1.87672
-1.81831
-1.72928
-1.61297
-1.47404
-1.31884
-1.15614
-0.996706
-0.851885
-0.733042
-0.648392
-1.4398
-1.53767
-1.69274
-1.85324
-1.95583
-1.99214
-1.99254
-1.97129
-1.92537
-1.85398
-1.76093
-1.65091
-1.52982
-1.40551
-1.28705
-1.18344
-1.10292
-1.05115
-1.59922
-1.67818
-1.80487
-1.94226
-2.03659
-2.07601
-2.08366
-2.07176
-2.03856
-1.98434
-1.91326
-1.82993
-1.73969
-1.64936
-1.56662
-1.49881
-1.45228
-1.43131
-1.75614
-1.82038
-1.92429
-2.04154
-2.1276
-2.16961
-2.18486
-2.18323
-2.16361
-2.12708
-2.0781
-2.02115
-1.96094
-1.90331
-1.85469
-1.82109
-1.80752
-1.81736
-1.93513
-1.98643
-2.07012
-2.16838
-2.24598
-2.29077
-2.31506
-2.32606
-2.32291
-2.30726
-2.28373
-2.25662
-2.22989
-2.20824
-2.19692
-2.20075
-2.22364
-2.26824
-2.13936
-2.17977
-2.2464
-2.32812
-2.3983
-2.44666
-2.48154
-2.50759
-2.52395
-2.53251
-2.5378
-2.54371
-2.55345
-2.57058
-2.59921
-2.64314
-2.70545
-2.78819
-2.37246
-2.40408
-2.45708
-2.52583
-2.59095
-2.64459
-2.69187
-2.73532
-2.77406
-2.80986
-2.84686
-2.88836
-2.93675
-2.99455
-3.0649
-3.15066
-3.25417
-3.37681
-2.63798
-2.66279
-2.70522
-2.76548
-2.82895
-2.89053
-2.95236
-3.01534
-3.07871
-3.14399
-3.21454
-3.29299
-3.38098
-3.47996
-3.5921
-3.71942
-3.86361
-4.02538
-2.93781
-2.95841
-2.99566
-3.04898
-3.114
-3.1866
-3.26519
-3.34916
-3.4384
-3.5341
-3.63851
-3.75334
-3.87953
-4.01777
-4.16931
-4.33515
-4.51625
-4.71284
-3.26729
-3.28557
-3.32093
-3.37001
-3.44022
-3.52731
-3.62455
-3.72999
-3.84479
-3.97
-4.10648
-4.25487
-4.41542
-4.58808
-4.77317
-4.97092
-5.18134
-5.40398
-3.53381
-3.54865
-3.58059
-3.63154
-3.70977
-3.81067
-3.92287
-4.04385
-4.17667
-4.32251
-4.48078
-4.65106
-4.83323
-5.02701
-5.23221
-5.44847
-5.67533
-5.91214
-3.71362
-3.72622
-3.75707
-3.80957
-3.89475
-4.00607
-4.12807
-4.25825
-4.40189
-4.56056
-4.73241
-4.91591
-5.11056
-5.31608
-5.53208
-5.75806
-5.99326
-6.2369
-3.84295
-3.85421
-3.88554
-3.94115
-4.03322
-4.15281
-4.28141
-4.4176
-4.56888
-4.7368
-4.91807
-5.1104
-5.31322
-5.52627
-5.749
-5.98065
-6.22025
-6.46708
-3.932
-3.94284
-3.97607
-4.03702
-4.13693
-4.26259
-4.39458
-4.53432
-4.69146
-4.86679
-5.05495
-5.25317
-5.46115
-5.67887
-5.90561
-6.14046
-6.38241
-6.63009
-3.98898
-4.00112
-4.0384
-4.10662
-4.21433
-4.34402
-4.47672
-4.61874
-4.78108
-4.96325
-5.15669
-5.35923
-5.57099
-5.79203
-6.02152
-6.25835
-6.50158
-6.75039
-4.0196
-4.03563
-4.08206
-4.16005
-4.2722
-4.39985
-4.53047
-4.6739
-4.83993
-5.02876
-5.22599
-5.43189
-5.64664
-5.87014
-6.10162
-6.34014
-6.58431
-6.83213
-4.02937
-4.05084
-4.11056
-4.20531
-4.32472
-4.45067
-4.58059
-4.72827
-4.89975
-5.08406
-5.28258
-5.49014
-5.70668
-5.93186
-6.16428
-6.40386
-6.64879
-6.89712
-4.02518
-4.05521
-4.12286
-4.2241
-4.34158
-4.46378
-4.59554
-4.74799
-4.92246
-5.11136
-5.3122
-5.52218
-5.74099
-5.96836
-6.20434
-6.44644
-6.6929
-6.94244
-4.0072
-4.08101
-4.17041
-4.27011
-4.37517
-4.48974
-4.62194
-4.77726
-4.95324
-5.14302
-5.34364
-5.55354
-5.77262
-6.00015
-6.23486
-6.47546
-6.72102
-6.96998
-3.91499
-4.02586
-4.1549
-4.26953
-4.3754
-4.49216
-4.62923
-4.78854
-4.96788
-5.16128
-5.36505
-5.57788
-5.79904
-6.02833
-6.26381
-6.50705
-6.75534
-7.01672
-4.05945
-4.08414
-4.17874
-4.28091
-4.37889
-4.49242
-4.62823
-4.78723
-4.96623
-5.15917
-5.36265
-5.57493
-5.79613
-6.02463
-6.26083
-6.50103
-6.74587
-6.98729
0.632788
-0.657595
-1.35159
-1.5956
-1.6719
-1.69385
-1.68053
-1.61951
-1.50132
-1.32289
-1.08544
-0.777358
-0.400162
0.0669391
0.60589
1.28473
2.03098
2.96373
0.438829
-0.66044
-1.3426
-1.60517
-1.68365
-1.70438
-1.69249
-1.63422
-1.51868
-1.34345
-1.10966
-0.809292
-0.440632
0.00962655
0.538477
1.1681
1.86388
2.49791
0.112434
-0.711685
-1.34683
-1.62592
-1.70515
-1.71905
-1.70414
-1.64685
-1.53385
-1.36248
-1.13488
-0.84528
-0.492398
-0.0673351
0.425683
0.979869
1.54822
1.99238
-0.140311
-0.768466
-1.34016
-1.63119
-1.71819
-1.72863
-1.7117
-1.65712
-1.54958
-1.38602
-1.16861
-0.894555
-0.563107
-0.172271
0.269077
0.739731
1.19142
1.52211
-0.382464
-0.857657
-1.35626
-1.64869
-1.74585
-1.75498
-1.73518
-1.68228
-1.58031
-1.42544
-1.22
-0.963635
-0.657426
-0.304708
0.0824311
0.479005
0.841073
1.1036
-0.605242
-0.964
-1.38731
-1.67015
-1.77554
-1.78531
-1.76334
-1.71226
-1.61679
-1.47238
-1.28144
-1.04549
-0.767707
-0.454753
-0.120559
0.211192
0.505443
0.719893
-0.812639
-1.08382
-1.43521
-1.69904
-1.80999
-1.82322
-1.80148
-1.75334
-1.66544
-1.53311
-1.35891
-1.1458
-0.898668
-0.625957
-0.341873
-0.066604
0.172892
0.34896
-1.00692
-1.21278
-1.4997
-1.73844
-1.85167
-1.8702
-1.8508
-1.80648
-1.72687
-1.60786
-1.45219
-1.2638
-1.0486
-0.815731
-0.578481
-0.353347
-0.160359
-0.0173587
-1.19091
-1.34838
-1.58014
-1.79071
-1.90226
-1.92639
-1.91114
-1.87195
-1.80169
-1.69731
-1.56185
-1.3997
-1.21716
-1.02324
-0.829768
-0.649946
-0.49822
-0.385783
-1.36729
-1.48882
-1.67491
-1.85689
-1.96322
-1.99247
-1.98305
-1.95074
-1.89122
-1.80276
-1.68877
-1.55385
-1.40417
-1.24813
-1.09589
-0.957875
-0.844262
-0.762112
-1.53851
-1.63318
-1.78233
-1.93731
-2.03607
-2.06964
-2.06739
-2.04373
-1.99636
-1.92495
-1.83339
-1.72632
-1.60942
-1.49015
-1.37701
-1.2782
-1.20094
-1.14994
-1.69271
-1.76916
-1.89143
-2.02418
-2.11493
-2.15168
-2.15679
-2.14249
-2.10759
-2.05278
-1.98241
-1.90106
-1.81382
-1.72714
-1.64818
-1.58364
-1.53899
-1.51774
-1.84455
-1.90698
-2.00761
-2.12102
-2.20381
-2.24322
-2.25605
-2.25205
-2.23048
-2.19283
-2.14379
-2.08787
-2.02955
-1.97431
-1.92813
-1.89651
-1.88377
-1.89266
-2.01784
-2.068
-2.1494
-2.24464
-2.31939
-2.36173
-2.38371
-2.39238
-2.38706
-2.36973
-2.34533
-2.31821
-2.2922
-2.27167
-2.26147
-2.26605
-2.28889
-2.33218
-2.21567
-2.25552
-2.32076
-2.40025
-2.46806
-2.5142
-2.5469
-2.57069
-2.5847
-2.59106
-2.59461
-2.59944
-2.60868
-2.62569
-2.65426
-2.69792
-2.75948
-2.84074
-2.44154
-2.47314
-2.52564
-2.59279
-2.65603
-2.70775
-2.75304
-2.79432
-2.8306
-2.86378
-2.89822
-2.93758
-2.98433
-3.0409
-3.11015
-3.19478
-3.29697
-3.41808
-2.69883
-2.72406
-2.76705
-2.82606
-2.88813
-2.94816
-3.00826
-3.06913
-3.12996
-3.19237
-3.2599
-3.33539
-3.42061
-3.51725
-3.62737
-3.75288
-3.89536
-4.0555
-2.9892
-3.00988
-3.04453
-3.10108
-3.16578
-3.23733
-3.31443
-3.39637
-3.48305
-3.57575
-3.67691
-3.78843
-3.9113
-4.04633
-4.19484
-4.35809
-4.53692
-4.73138
-3.30837
-3.32759
-3.36658
-3.41381
-3.48322
-3.56939
-3.66535
-3.7689
-3.88123
-4.00348
-4.13665
-4.28157
-4.43856
-4.60769
-4.78937
-4.98387
-5.19128
-5.41129
-3.56528
-3.58138
-3.61482
-3.66633
-3.74434
-3.84471
-3.95587
-4.07508
-4.20551
-4.34851
-4.50361
-4.6705
-4.84917
-5.03942
-5.24104
-5.45376
-5.67721
-5.91074
-3.73734
-3.75143
-3.78413
-3.83763
-3.92285
-4.03388
-4.15509
-4.28375
-4.42525
-4.58128
-4.7501
-4.93028
-5.12149
-5.32353
-5.53608
-5.75859
-5.9904
-6.23069
-3.85968
-3.87254
-3.9062
-3.96341
-4.05586
-4.17555
-4.3037
-4.43858
-4.58785
-4.75324
-4.93162
-5.12086
-5.3205
-5.53034
-5.74979
-5.9781
-6.21437
-6.45781
-3.9423
-3.95486
-3.99096
-4.05392
-4.15515
-4.28133
-4.41315
-4.55182
-4.70709
-4.88003
-5.06553
-5.26089
-5.46588
-5.68047
-5.90398
-6.13555
-6.37416
-6.61827
-3.99312
-4.0075
-4.04854
-4.11977
-4.22926
-4.35974
-4.49257
-4.63373
-4.79428
-4.97401
-5.16505
-5.36496
-5.5738
-5.79177
-6.01812
-6.25174
-6.49155
-6.7369
-4.018
-4.03706
-4.08841
-4.17038
-4.28459
-4.4134
-4.54447
-4.6873
-4.85193
-5.03768
-5.23279
-5.43623
-5.6481
-5.86855
-6.0969
-6.33212
-6.57273
-6.81681
-4.02198
-4.04787
-4.11413
-4.21344
-4.33487
-4.46202
-4.5924
-4.73941
-4.90924
-5.09272
-5.28871
-5.49364
-5.70728
-5.92936
-6.15871
-6.3948
-6.63597
-6.88051
-4.01145
-4.04829
-4.12494
-4.23151
-4.35095
-4.47433
-4.6067
-4.75869
-4.93187
-5.11913
-5.31756
-5.5249
-5.74087
-5.9653
-6.19789
-6.43646
-6.67917
-6.92466
-3.98678
-4.07013
-4.17069
-4.27634
-4.38342
-4.49937
-4.63234
-4.78723
-4.96212
-5.15038
-5.34882
-5.55614
-5.77237
-5.99697
-6.22886
-6.46616
-6.70792
-6.95278
-3.88815
-4.01437
-4.15583
-4.27553
-4.38316
-4.50149
-4.63944
-4.79834
-4.97604
-5.1675
-5.369
-5.57923
-5.79763
-6.02411
-6.25664
-6.49628
-6.74047
-6.99745
-4.02121
-4.07124
-4.18056
-4.28734
-4.38705
-4.50256
-4.63974
-4.79829
-4.97568
-5.16673
-5.36799
-5.57774
-5.79621
-6.0219
-6.2551
-6.49181
-6.73265
-6.96976
0.443335
-0.810402
-1.48855
-1.73057
-1.80933
-1.83441
-1.82554
-1.77166
-1.66346
-1.49801
-1.27677
-0.990712
-0.642796
-0.218433
0.26735
0.871048
1.53821
2.36909
0.260287
-0.811558
-1.47912
-1.73956
-1.82063
-1.8447
-1.83731
-1.7861
-1.68043
-1.51802
-1.30016
-1.02125
-0.68094
-0.271716
0.20491
0.766277
1.38784
1.95265
-0.0589625
-0.862946
-1.48409
-1.76
-1.84161
-1.85902
-1.84863
-1.79828
-1.69493
-1.53604
-1.32395
-1.05497
-0.728966
-0.342215
0.102492
0.59776
1.10278
1.50533
-0.305059
-0.917549
-1.47667
-1.76419
-1.85365
-1.86793
-1.85564
-1.80787
-1.70971
-1.55823
-1.35583
-1.10131
-0.794865
-0.438564
-0.040094
0.381792
0.786381
1.08309
-0.540429
-1.00426
-1.49231
-1.78106
-1.88039
-1.89348
-1.87839
-1.83212
-1.73921
-1.59595
-1.40487
-1.16665
-0.883209
-0.561058
-0.211089
0.145271
0.470174
0.711229
-0.757049
-1.1079
-1.52249
-1.80157
-1.90878
-1.9226
-1.90545
-1.86085
-1.7741
-1.64075
-1.46336
-1.24402
-0.986668
-0.700276
-0.397674
-0.0988496
0.166305
0.361533
-0.958748
-1.22442
-1.56897
-1.82931
-1.94176
-1.95903
-1.94219
-1.90035
-1.82078
-1.69888
-1.53729
-1.33922
-1.11013
-0.859946
-0.602226
-0.353746
-0.13714
0.0249897
-1.14752
-1.3497
-1.63155
-1.86733
-1.9818
-2.00422
-1.98972
-1.95151
-1.8798
-1.77051
-1.62642
-1.4515
-1.25201
-1.03772
-0.822051
-0.618525
-0.443531
-0.311375
-1.32615
-1.48132
-1.7096
-1.91786
-2.03049
-2.05831
-2.04787
-2.01457
-1.95175
-1.85634
-1.73132
-1.58108
-1.41199
-1.23298
-1.0568
-0.894216
-0.756548
-0.652311
-1.49722
-1.61757
-1.80152
-1.98191
-2.08928
-2.12198
-2.11719
-2.09049
-2.03789
-1.95761
-1.85293
-1.72837
-1.58982
-1.44563
-1.30685
-1.18232
-1.07959
-1.00363
-1.66313
-1.75767
-1.90565
-2.05977
-2.15962
-2.1964
-2.19853
-2.18013
-2.13912
-2.0751
-1.99171
-1.89346
-1.78566
-1.67568
-1.57252
-1.48397
-1.41505
-1.36878
-1.81241
-1.88907
-2.0113
-2.14387
-2.23583
-2.27557
-2.28478
-2.27539
-2.2463
-2.19815
-2.13495
-2.06108
-1.98135
-1.90207
-1.83027
-1.7734
-1.73523
-1.71771
-1.95928
-2.02253
-2.12376
-2.23758
-2.32175
-2.36397
-2.3806
-2.38111
-2.36481
-2.33308
-2.29027
-2.24062
-2.18841
-2.13876
-2.09764
-2.07138
-2.06351
-2.07538
-2.12674
-2.17826
-2.26097
-2.35718
-2.43348
-2.47848
-2.50391
-2.5166
-2.51591
-2.50369
-2.48453
-2.46246
-2.44111
-2.42462
-2.41778
-2.42533
-2.45135
-2.49696
-2.31769
-2.35941
-2.42666
-2.50764
-2.5772
-2.62584
-2.66162
-2.68888
-2.70682
-2.71742
-2.72521
-2.73393
-2.74652
-2.76621
-2.79664
-2.84151
-2.90443
-2.98722
-2.53545
-2.56939
-2.62456
-2.69363
-2.75881
-2.81292
-2.86094
-2.90514
-2.94459
-2.98111
-3.01881
-3.06103
-3.11004
-3.16818
-3.2383
-3.32307
-3.42502
-3.54643
-2.78311
-2.81111
-2.85756
-2.9187
-2.98289
-3.04524
-3.10774
-3.17103
-3.23436
-3.29928
-3.36914
-3.4466
-3.53332
-3.63079
-3.74107
-3.86614
-4.00765
-4.16676
-3.06195
-3.0857
-3.12592
-3.18347
-3.25055
-3.32448
-3.40383
-3.48787
-3.57653
-3.67109
-3.77382
-3.88652
-4.01018
-4.14558
-4.29397
-4.45654
-4.63429
-4.82752
-3.36746
-3.38954
-3.43068
-3.48345
-3.55609
-3.6449
-3.74316
-3.84868
-3.9627
-4.08639
-4.22066
-4.36628
-4.52361
-4.6927
-4.87395
-5.06768
-5.27408
-5.49273
-3.61192
-3.63176
-3.6697
-3.72571
-3.80707
-3.91028
-4.02392
-4.14518
-4.27731
-4.42164
-4.57767
-4.74508
-4.92389
-5.11388
-5.31486
-5.52656
-5.74863
-5.98058
-3.77398
-3.79245
-3.83078
-3.88908
-3.97805
-4.09232
-4.21631
-4.34722
-4.49048
-4.64783
-4.81752
-4.99818
-5.18949
-5.39122
-5.60299
-5.8243
-6.05453
-6.29303
-3.88742
-3.9053
-3.94549
-4.00884
-4.10524
-4.22848
-4.35966
-4.497
-4.64817
-4.81496
-4.9943
-5.18401
-5.38367
-5.59306
-5.81161
-6.03854
-6.27308
-6.51465
-3.96202
-3.98042
-4.02398
-4.09301
-4.19983
-4.33007
-4.46523
-4.60655
-4.76378
-4.93805
-5.1246
-5.32049
-5.52548
-5.73962
-5.96226
-6.19249
-6.42933
-6.67153
-4.00539
-4.02662
-4.07663
-4.15542
-4.27059
-4.40529
-4.54173
-4.68574
-4.84824
-5.02904
-5.22154
-5.42211
-5.63098
-5.84849
-6.07393
-6.30617
-6.54435
-6.78784
-4.02291
-4.05038
-4.11255
-4.20335
-4.32317
-4.45641
-4.59157
-4.73775
-4.90452
-5.0898
-5.28728
-5.49147
-5.70337
-5.92339
-6.15089
-6.38476
-6.62378
-6.86622
-4.01952
-4.05622
-4.13547
-4.24418
-4.37108
-4.50265
-4.63718
-4.78751
-4.95995
-5.14747
-5.34287
-5.54782
-5.76138
-5.98301
-6.21159
-6.44632
-6.68576
-6.92832
-4.00126
-4.05232
-4.14499
-4.26169
-4.38643
-4.51431
-4.65101
-4.80645
-4.98231
-5.17192
-5.37075
-5.57827
-5.79422
-6.01825
-6.24974
-6.48707
-6.72817
-6.97158
-3.9688
-4.06982
-4.18903
-4.30518
-4.41754
-4.53832
-4.67593
-4.83438
-5.01182
-5.20208
-5.40134
-5.609
-5.82524
-6.04948
-6.28054
-6.51668
-6.7568
-6.99955
-3.86281
-4.01372
-4.17512
-4.30426
-4.4168
-4.54011
-4.6828
-4.84521
-5.02539
-5.21868
-5.42108
-5.6317
-5.85016
-6.07638
-6.30815
-6.54654
-6.78896
-7.0437
-3.9833
-4.06801
-4.1996
-4.31543
-4.4202
-4.54096
-4.68298
-4.84505
-5.02488
-5.21769
-5.4199
-5.63007
-5.84864
-6.07409
-6.30657
-6.54204
-6.78115
-7.01605
0.240021
-0.980887
-1.64693
-1.89093
-1.97634
-2.00903
-2.00919
-1.96673
-1.87209
-1.72117
-1.51452
-1.24128
-0.902582
-0.479296
0.00898359
0.625146
1.29893
2.1344
0.0677336
-0.980134
-1.63698
-1.89931
-1.98716
-2.01901
-2.0207
-1.98087
-1.88872
-1.74084
-1.5377
-1.2718
-0.941341
-0.534065
-0.0545682
0.514659
1.1426
1.70702
-0.244271
-1.03163
-1.64268
-1.91946
-2.00762
-2.03292
-2.0316
-1.99252
-1.90255
-1.75807
-1.56065
-1.30481
-0.989599
-0.6055
-0.158367
0.344293
0.862069
1.25984
-0.483673
-1.08395
-1.63447
-1.92257
-2.01862
-2.04108
-2.03794
-2.0013
-1.91632
-1.77909
-1.59118
-1.34994
-1.05484
-0.701981
-0.30102
0.127657
0.54019
0.851172
-0.712213
-1.16797
-1.64952
-1.93877
-2.04444
-2.06575
-2.0598
-2.02448
-1.9445
-1.81523
-1.63834
-1.41348
-1.14153
-0.823278
-0.470606
-0.107047
0.229219
0.480203
-0.922491
-1.26873
-1.67866
-1.95826
-2.07146
-2.09354
-2.08559
-2.05176
-1.97761
-1.85792
-1.69433
-1.48825
-1.24217
-0.96
-0.654416
-0.347362
-0.0690105
0.146283
-1.11839
-1.3818
-1.72355
-1.9847
-2.10287
-2.12837
-2.12073
-2.08945
-2.0221
-1.91343
-1.76516
-1.57992
-1.36155
-1.11588
-0.854865
-0.597133
-0.365901
-0.183856
-1.30145
-1.50313
-1.784
-2.02112
-2.14108
-2.1716
-2.16624
-2.13836
-2.07842
-1.98186
-1.8505
-1.68768
-1.49809
-1.28867
-1.06954
-0.855987
-0.665401
-0.511854
-1.47461
-1.63054
-1.85939
-2.06964
-2.18763
-2.22334
-2.22192
-2.19869
-2.14716
-2.06387
-1.9509
-1.81184
-1.65171
-1.47788
-1.29834
-1.12535
-0.971683
-0.846085
-1.6403
-1.76237
-1.94818
-2.13124
-2.24392
-2.28428
-2.28832
-2.27138
-2.22954
-2.1607
-2.06731
-1.95299
-1.82283
-1.68354
-1.54183
-1.40698
-1.28836
-1.19178
-1.80085
-1.8978
-2.04871
-2.20617
-2.31135
-2.35554
-2.36623
-2.35723
-2.32646
-2.27314
-2.20025
-2.11135
-2.01115
-1.90552
-1.80036
-1.70213
-1.61794
-1.55224
-1.94516
-2.025
-2.15062
-2.28711
-2.38447
-2.43139
-2.44888
-2.44853
-2.42915
-2.39102
-2.33756
-2.27227
-2.19928
-2.12372
-2.05112
-1.98572
-1.93323
-1.89767
-2.08695
-2.15347
-2.25903
-2.3773
-2.46696
-2.51615
-2.54075
-2.54989
-2.54277
-2.5204
-2.48657
-2.44478
-2.39855
-2.35246
-2.31111
-2.27791
-2.25706
-2.25235
-2.24841
-2.30371
-2.39127
-2.49239
-2.57428
-2.62601
-2.65902
-2.67987
-2.68775
-2.68417
-2.67315
-2.65815
-2.64212
-2.62875
-2.62191
-2.62492
-2.64015
-2.67106
-2.43226
-2.4782
-2.55085
-2.63712
-2.71234
-2.76748
-2.81041
-2.84527
-2.87109
-2.88954
-2.90461
-2.91957
-2.93688
-2.95932
-2.99021
-3.03243
-3.08779
-3.15853
-2.64159
-2.68014
-2.74123
-2.81592
-2.88679
-2.94714
-3.00184
-3.05304
-3.09965
-3.14322
-3.18739
-3.23506
-3.28823
-3.34892
-3.41967
-3.50298
-3.60078
-3.71395
-2.87915
-2.91218
-2.96511
-3.03203
-3.10194
-3.17031
-3.23906
-3.30873
-3.37853
-3.44971
-3.52525
-3.60748
-3.69786
-3.79775
-3.90899
-4.03341
-4.17265
-4.32752
-3.14586
-3.17508
-3.22286
-3.28593
-3.35876
-3.43855
-3.52382
-3.61371
-3.70815
-3.80827
-3.91599
-4.0329
-4.15988
-4.29761
-4.44723
-4.60985
-4.78644
-4.97733
-3.43685
-3.46429
-3.51121
-3.57226
-3.65145
-3.74625
-3.85026
-3.96131
-4.08061
-4.20925
-4.34792
-4.49728
-4.65761
-4.82894
-5.01157
-5.20577
-5.41177
-5.6292
-3.66833
-3.69488
-3.74153
-3.80412
-3.8917
-4.00094
-4.12033
-4.247
-4.38419
-4.53316
-4.69327
-4.86414
-5.04574
-5.23782
-5.44011
-5.65234
-5.87417
-6.10508
-3.81992
-3.84553
-3.89276
-3.95898
-4.05473
-4.1753
-4.30523
-4.4416
-4.58985
-4.75169
-4.92529
-5.10926
-5.30329
-5.50708
-5.72018
-5.94208
-6.1722
-6.40991
-3.92416
-3.94992
-3.99989
-4.07246
-4.17576
-4.30555
-4.44284
-4.58575
-4.74194
-4.91318
-5.09637
-5.28928
-5.49153
-5.70293
-5.92285
-6.15049
-6.38513
-6.62624
-3.9904
-4.0176
-4.07212
-4.15041
-4.2656
-4.4027
-4.5441
-4.69109
-4.85334
-5.03202
-5.22245
-5.42157
-5.62915
-5.84525
-6.06925
-6.30018
-6.53699
-6.77847
-4.02598
-4.05717
-4.11976
-4.20937
-4.33289
-4.47459
-4.61745
-4.76729
-4.93486
-5.11992
-5.31641
-5.52018
-5.73162
-5.95114
-6.17797
-6.41097
-6.64933
-6.89264
-4.03603
-4.07502
-4.15173
-4.25465
-4.38292
-4.52312
-4.66506
-4.81745
-4.98953
-5.17868
-5.38001
-5.58728
-5.80174
-6.02387
-6.25285
-6.4875
-6.72686
-6.96945
-4.02503
-4.07581
-4.17189
-4.29328
-4.42841
-4.56695
-4.7084
-4.86487
-5.04245
-5.23503
-5.43411
-5.64213
-5.85829
-6.08204
-6.3122
-6.54765
-6.78738
-7.02988
-3.99885
-4.06761
-4.18013
-4.31022
-4.44298
-4.57785
-4.72161
-4.8833
-5.06445
-5.25869
-5.46095
-5.67157
-5.89012
-6.11618
-6.34907
-6.58753
-6.82902
-7.07211
-3.95833
-4.08099
-4.22246
-4.35234
-4.47268
-4.60081
-4.74579
-4.91058
-5.0933
-5.28802
-5.4909
-5.70169
-5.92052
-6.14687
-6.37956
-6.61684
-6.85734
-7.09976
-3.84481
-4.02458
-4.20952
-4.35128
-4.47143
-4.60227
-4.75239
-4.92114
-5.10655
-5.30425
-5.51029
-5.724
-5.94508
-6.1735
-6.40695
-6.64635
-6.88907
-7.14337
-3.95263
-4.07631
-4.23373
-4.36182
-4.47433
-4.60289
-4.75246
-4.92086
-5.10591
-5.3031
-5.50895
-5.72221
-5.94341
-6.1711
-6.40526
-6.64176
-6.88118
-7.11566
0.0469879
-1.14022
-1.79346
-2.0394
-2.13156
-2.1721
-2.18211
-2.15321
-2.07615
-1.94711
-1.76718
-1.52845
-1.23454
-0.872539
-0.463919
0.0435227
0.583761
1.24648
-0.114739
-1.13734
-1.78293
-2.04717
-2.14191
-2.18178
-2.19332
-2.16695
-2.09223
-1.96604
-1.78932
-1.55725
-1.27048
-0.922816
-0.521005
-0.0538775
0.450423
0.875706
-0.419437
-1.18912
-1.78945
-2.06707
-2.16187
-2.19528
-2.20379
-2.17801
-2.10519
-1.98198
-1.81046
-1.58746
-1.31418
-0.986614
-0.612278
-0.200623
0.209273
0.506554
-0.652357
-1.2394
-1.78053
-2.06916
-2.1719
-2.20274
-2.20947
-2.18594
-2.11777
-2.00133
-1.83867
-1.629
-1.37351
-1.07298
-0.737844
-0.387408
-0.0602891
0.170416
-0.874293
-1.32068
-1.79504
-2.08479
-2.19686
-2.2266
-2.23049
-2.20802
-2.14447
-2.0354
-1.88294
-1.68801
-1.45296
-1.18238
-0.888079
-0.591171
-0.324294
-0.131502
-1.0775
-1.41826
-1.8232
-2.1034
-2.22265
-2.25318
-2.25508
-2.23386
-2.1757
-2.07553
-1.93535
-1.75738
-1.54533
-1.30592
-1.0514
-0.80064
-0.578493
-0.412236
-1.26764
-1.52795
-1.86663
-2.12869
-2.25264
-2.28655
-2.28876
-2.26981
-2.21792
-2.12799
-2.00195
-1.84291
-1.65561
-1.44769
-1.23083
-1.02047
-0.835195
-0.691695
-1.4453
-1.64567
-1.92518
-2.1637
-2.28924
-2.32804
-2.33244
-2.31657
-2.27153
-2.19282
-2.0824
-1.94383
-1.78234
-1.60574
-1.42442
-1.25071
-1.09796
-0.975921
-1.61311
-1.76909
-1.99812
-2.21045
-2.33391
-2.37771
-2.3859
-2.37435
-2.33708
-2.2707
-2.17728
-2.06049
-1.92559
-1.77995
-1.63254
-1.49303
-1.37069
-1.27101
-1.77354
-1.89669
-2.08399
-2.26986
-2.38801
-2.43624
-2.44968
-2.44404
-2.41579
-2.36285
-2.28757
-2.19355
-2.0857
-1.97067
-1.85603
-1.74928
-1.65682
-1.58196
-1.92885
-2.02768
-2.18119
-2.34218
-2.4529
-2.50474
-2.52456
-2.52644
-2.50853
-2.4701
-2.41387
-2.34331
-2.26278
-2.17806
-2.09543
-2.02074
-1.95861
-1.91148
-2.06836
-2.15068
-2.27968
-2.42031
-2.52334
-2.57771
-2.60405
-2.61415
-2.60696
-2.58275
-2.54466
-2.496
-2.44058
-2.38337
-2.32964
-2.28419
-2.25074
-2.23153
-2.20534
-2.27499
-2.38438
-2.50735
-2.60283
-2.65931
-2.69245
-2.71159
-2.71598
-2.70659
-2.68689
-2.66013
-2.62959
-2.59944
-2.57413
-2.5577
-2.55331
-2.56315
-2.3611
-2.41968
-2.51203
-2.61841
-2.7063
-2.76514
-2.80637
-2.83665
-2.85527
-2.86362
-2.86542
-2.86379
-2.86148
-2.86185
-2.86857
-2.88509
-2.91412
-2.95785
-2.53827
-2.58805
-2.66605
-2.75804
-2.83941
-2.90151
-2.95228
-2.99594
-3.03164
-3.06092
-3.08743
-3.1141
-3.14322
-3.17736
-3.21952
-3.27258
-3.33893
-3.42061
-2.73974
-2.78261
-2.84963
-2.93044
-3.0076
-3.07476
-3.13691
-3.19624
-3.25184
-3.30508
-3.3593
-3.41711
-3.48033
-3.55084
-3.63101
-3.72317
-3.8294
-3.95128
-2.96802
-3.00587
-3.06528
-3.13864
-3.21496
-3.29001
-3.36586
-3.44301
-3.52091
-3.60064
-3.6849
-3.77581
-3.87468
-3.98276
-4.10177
-4.23342
-4.37931
-4.54047
-3.22357
-3.25825
-3.31321
-3.38291
-3.46227
-3.54871
-3.64083
-3.73772
-3.83938
-3.94701
-4.06223
-4.18648
-4.32058
-4.46513
-4.62114
-4.78962
-4.97154
-5.16726
-3.50132
-3.53459
-3.58811
-3.65737
-3.74365
-3.84527
-3.95598
-4.0737
-4.19968
-4.33494
-4.47999
-4.63557
-4.80188
-4.9789
-5.16682
-5.36583
-5.57618
-5.79764
-3.72077
-3.7542
-3.81003
-3.87965
-3.97421
-4.09032
-4.21648
-4.34967
-4.49325
-4.64843
-4.81446
-4.99095
-5.17787
-5.3749
-5.58168
-5.79796
-6.02337
-6.25732
-3.86276
-3.89597
-3.95243
-4.027
-4.13021
-4.25783
-4.3946
-4.53753
-4.69204
-4.85983
-5.03906
-5.22835
-5.42736
-5.63578
-5.85308
-6.07869
-6.31206
-6.55252
-3.95845
-3.99256
-4.05279
-4.13392
-4.2457
-4.38274
-4.52694
-4.67644
-4.83887
-5.016
-5.20468
-5.40272
-5.60973
-5.82553
-6.04945
-6.28062
-6.51838
-6.76238
-4.01677
-4.05328
-4.11948
-4.20873
-4.33155
-4.47591
-4.62425
-4.77787
-4.94635
-5.13082
-5.32666
-5.53083
-5.74311
-5.96348
-6.19131
-6.42557
-6.66518
-6.90882
-4.04489
-4.08653
-4.16241
-4.26367
-4.39581
-4.54494
-4.69482
-4.85136
-5.02512
-5.21578
-5.41764
-5.62638
-5.84244
-6.06619
-6.29682
-6.53308
-6.77417
-7.01958
-4.04798
-4.09872
-4.19064
-4.30637
-4.44359
-4.59123
-4.74053
-4.89983
-5.07816
-5.27285
-5.47923
-5.6912
-5.91022
-6.13662
-6.36943
-6.60726
-6.84936
-7.0944
-4.0298
-4.09462
-4.2082
-4.34299
-4.48694
-4.63302
-4.78204
-4.94544
-5.12915
-5.3275
-5.532
-5.74484
-5.96534
-6.19317
-6.42735
-6.66577
-6.90821
-7.15307
-3.99575
-4.08233
-4.21524
-4.35944
-4.50082
-4.64323
-4.79466
-4.96335
-5.15068
-5.35067
-5.5579
-5.77324
-5.99612
-6.22615
-6.4624
-6.70437
-6.94858
-7.19396
-3.94722
-4.09178
-4.25594
-4.40025
-4.5292
-4.66525
-4.8182
-4.99009
-5.17898
-5.3793
-5.58729
-5.80275
-6.02589
-6.25626
-6.49256
-6.7332
-6.97647
-7.22114
-3.82619
-4.03514
-4.24398
-4.39908
-4.52747
-4.66639
-4.82459
-5.00041
-5.19196
-5.3952
-5.60633
-5.82468
-6.05007
-6.28259
-6.51975
-6.76246
-7.00784
-7.26422
-3.9214
-4.08439
-4.26793
-4.40899
-4.52988
-4.66681
-4.82457
-5.00005
-5.19121
-5.39392
-5.60484
-5.82274
-6.04828
-6.2801
-6.51799
-6.75776
-6.99987
-7.23644
-0.112503
-1.26088
-1.89406
-2.13477
-2.22635
-2.2664
-2.27693
-2.25252
-2.18455
-2.07018