/*--------------------------------*- C++ -*----------------------------------*\
| =========                 |                                                 |
| \\      /  F ield         | OpenFOAM: The Open Source CFD Toolbox           |
|  \\    /   O peration     | Version:  2112                                  |
|   \\  /    A nd           | Website:  www.openfoam.com                      |
|    \\/     M anipulation  |                                                 |
\*---------------------------------------------------------------------------*/
FoamFile
{
    version     2.0;
    format      ascii;
    arch        "LSB;label=32;scalar=64";
    class       volVectorField;
    location    "0.22";
    object      ddt0(U);
}
// * * * * * * * * * * * * * * * * * * * * * * * * * * * * * * * * * * * * * //

dimensions      [0 1 -2 0 0 0 0];

internalField   nonuniform List<vector> 
12225
(
(0.00166967 -0.000304654 0)
(0.00140969 0.00114752 0)
(-0.00445635 0.000189904 0)
(-0.000361495 -0.00119572 0)
(0.00213948 -0.00208155 0)
(0.0177627 0.00321747 0)
(-0.0115566 0.00262028 0)
(-0.021254 -0.0128472 0)
(0.0942233 0.0114853 0)
(-0.0796847 0.00619194 0)
(0.0167915 -0.0270857 0)
(0.118506 0.0299031 0)
(-0.170242 0.00118397 0)
(0.0912532 -0.0414879 0)
(0.0780402 0.0508921 0)
(-0.100325 0.000151566 0)
(0.182687 -0.127844 0)
(0.181338 0.098358 0)
(-0.000379698 -0.000469339 0)
(0.000871576 0.000369569 0)
(0.00350572 0.000576939 0)
(0.000331887 -0.00126522 0)
(0.00304516 0.000394031 0)
(-0.0180807 -0.000922916 0)
(0.0275517 -0.00144715 0)
(0.0276223 0.00789826 0)
(-0.117259 -0.011169 0)
(0.143091 -0.00730544 0)
(0.00486237 0.0219503 0)
(-0.151867 -0.0225106 0)
(0.25998 0.00482695 0)
(-0.1341 0.023811 0)
(-0.0128617 -0.0929147 0)
(0.592331 0.0384375 0)
(-0.506074 0.195933 0)
(-0.919835 -0.133524 0)
(-1.18231e-05 -0.000303579 0)
(-0.00082095 -0.000217276 0)
(0.00327256 0.000813393 0)
(0.000589808 -0.000761705 0)
(-0.00313451 -0.000840222 0)
(0.00549682 -0.000686726 0)
(0.000724642 -0.000171506 0)
(-0.000838732 0.000705237 0)
(0.0167275 -0.00221508 0)
(-0.00645466 -0.00595546 0)
(0.00435845 0.00351104 0)
(0.0244142 0.0113481 0)
(-0.0457549 -0.0310742 0)
(0.146565 -0.0270673 0)
(0.145689 0.106788 0)
(-0.704259 -0.0261268 0)
(0.223778 -0.279314 0)
(1.40236 0.186897 0)
(0.000226633 -0.000392337 0)
(-0.000776433 -0.000339574 0)
(0.00121142 0.000824525 0)
(0.000864419 -0.000596439 0)
(-0.000490914 -0.000756714 0)
(0.00377617 -0.00117951 0)
(-0.00164867 -0.00178187 0)
(0.00211664 0.00331288 0)
(0.0186729 -0.00426137 0)
(-0.0112572 -0.00821075 0)
(-0.00186144 0.00940432 0)
(0.0260185 -0.00622204 0)
(0.0315811 -0.0227012 0)
(0.0116153 0.00940237 0)
(-0.129265 0.0126762 0)
(0.130663 -0.0276919 0)
(0.361858 -0.0476011 0)
(-0.0944783 -0.0397014 0)
(0.000239561 -0.000316127 0)
(-0.00079404 -0.000233251 0)
(7.5127e-05 0.000426988 0)
(0.0012337 -0.00061252 0)
(0.000834191 -0.000843776 0)
(0.00180998 -0.00149916 0)
(0.00019444 -0.00117051 0)
(0.00294194 0.0014512 0)
(0.00939829 -0.00410323 0)
(-0.00160807 -0.00610575 0)
(0.00127292 0.00322785 0)
(0.0201805 -0.00206878 0)
(0.0226544 -0.023743 0)
(-0.0256296 -0.00889626 0)
(-0.0198362 0.05294 0)
(0.196208 -0.0224962 0)
(-0.0162374 -0.177477 0)
(-0.188349 0.018036 0)
(4.16851e-05 -0.000171117 0)
(-0.000709049 -0.0001457 0)
(-0.000181627 -2.45427e-05 0)
(0.0013771 -0.000710187 0)
(0.00116459 -0.000913508 0)
(0.00116133 -0.00156104 0)
(0.00109646 -0.00080902 0)
(0.00231421 -0.000128234 0)
(0.00574362 -0.00458838 0)
(0.00337015 -0.00451113 0)
(0.00307066 0.00221035 0)
(0.0122842 -0.00693764 0)
(0.012265 -0.0256975 0)
(-0.00360741 0.0110961 0)
(0.0100529 0.0384972 0)
(0.0677233 -0.087839 0)
(-0.0248313 -0.105947 0)
(-0.050177 0.074875 0)
(-3.93554e-05 -0.00013038 0)
(-0.000493032 -5.09745e-05 0)
(1.04806e-05 -0.000382536 0)
(0.00129626 -0.000829533 0)
(0.00112736 -0.000949237 0)
(0.0009689 -0.00148358 0)
(0.00121354 -0.000845737 0)
(0.00213723 -0.00140331 0)
(0.00473203 -0.00494043 0)
(0.0043202 -0.00300073 0)
(0.0032726 0.000198553 0)
(0.00902574 -0.0120462 0)
(0.00979536 -0.0177903 0)
(0.00206981 0.0175602 0)
(0.00966973 0.0054302 0)
(0.0224488 -0.0881881 0)
(0.0216158 -0.0434058 0)
(-0.00650319 0.0511831 0)
(-8.75397e-05 -8.6193e-05 0)
(-0.000226485 -0.00014623 0)
(0.000305158 -0.000650093 0)
(0.00109608 -0.000924034 0)
(0.000975609 -0.000963717 0)
(0.000859916 -0.00142334 0)
(0.00123881 -0.00114344 0)
(0.0023797 -0.00239957 0)
(0.00405381 -0.00483901 0)
(0.00365348 -0.00242133 0)
(0.00390786 -0.00255529 0)
(0.00802651 -0.012964 0)
(0.00603131 -0.0106273 0)
(0.002315 0.0116832 0)
(0.0138156 -0.0132445 0)
(0.0200033 -0.0696093 0)
(0.0183715 -0.0243485 0)
(-0.00364652 0.0338837 0)
(-4.72851e-05 -4.60913e-05 0)
(5.83003e-06 -0.000312697 0)
(0.000410792 -0.000829933 0)
(0.000848029 -0.000980298 0)
(0.000806344 -0.000992126 0)
(0.000818626 -0.00144766 0)
(0.0013795 -0.00157464 0)
(0.00253354 -0.00306925 0)
(0.00325189 -0.00457767 0)
(0.00307433 -0.00271021 0)
(0.00458942 -0.00460781 0)
(0.00640058 -0.0117898 0)
(0.00300269 -0.00731651 0)
(0.00497719 0.00333019 0)
(0.0174008 -0.0212354 0)
(0.0147911 -0.052808 0)
(0.000743776 -0.0161708 0)
(-0.00813088 0.0212263 0)
(-1.58792e-05 -4.30534e-05 0)
(0.000119607 -0.000355899 0)
(0.00039465 -0.000933928 0)
(0.000615644 -0.00101991 0)
(0.00067666 -0.0010621 0)
(0.000856415 -0.00156073 0)
(0.0015247 -0.00202291 0)
(0.00241656 -0.00346263 0)
(0.0025716 -0.00437509 0)
(0.0028559 -0.00337978 0)
(0.00456365 -0.00582021 0)
(0.0045928 -0.0103107 0)
(0.00236679 -0.00667487 0)
(0.00740323 -0.00386894 0)
(0.0150265 -0.0233596 0)
(0.00577394 -0.0383382 0)
(-0.00888993 -0.0116175 0)
(-0.00674008 0.00894328 0)
(2.57625e-06 -6.79748e-05 0)
(0.000159595 -0.000452818 0)
(0.000319614 -0.000998907 0)
(0.000436292 -0.00107336 0)
(0.000606776 -0.00118849 0)
(0.00092607 -0.00174574 0)
(0.00156534 -0.00242214 0)
(0.00212792 -0.00368105 0)
(0.00212798 -0.00431005 0)
(0.00271652 -0.00411262 0)
(0.00396643 -0.00646057 0)
(0.00339306 -0.00920626 0)
(0.00285581 -0.00736996 0)
(0.00739753 -0.00876344 0)
(0.00948698 -0.0218679 0)
(-0.00033469 -0.0270481 0)
(-0.00880452 -0.0101902 0)
(-0.00231045 -0.00176564 0)
(1.00376e-05 -9.52985e-05 0)
(0.000151205 -0.00052322 0)
(0.000241552 -0.00102656 0)
(0.000332417 -0.00113627 0)
(0.000577903 -0.00134066 0)
(0.000955252 -0.00194607 0)
(0.00148867 -0.00270756 0)
(0.00183177 -0.00379192 0)
(0.00186221 -0.00436958 0)
(0.0024926 -0.00469018 0)
(0.00328803 -0.00673506 0)
(0.00278477 -0.00867116 0)
(0.00302834 -0.00832231 0)
(0.00586887 -0.0109992 0)
(0.00517046 -0.0191533 0)
(-0.00213479 -0.0204564 0)
(-0.0056579 -0.0110062 0)
(0.000452399 -0.0088105 0)
(1.30442e-05 -0.000126576 0)
(0.000124844 -0.000575507 0)
(0.000177811 -0.00105024 0)
(0.000273651 -0.00122234 0)
(0.000552482 -0.00151026 0)
(0.0009258 -0.00214023 0)
(0.0013338 -0.00292274 0)
(0.00155061 -0.00387148 0)
(0.00164641 -0.00448887 0)
(0.00217236 -0.00513135 0)
(0.00263365 -0.00685947 0)
(0.00236641 -0.00842472 0)
(0.00274012 -0.00906145 0)
(0.00394383 -0.0117657 0)
(0.00239059 -0.0165356 0)
(-0.00194216 -0.0167724 0)
(-0.00291655 -0.0124918 0)
(0.0010279 -0.0130948 0)
(1.23382e-05 -0.000152885 0)
(9.10331e-05 -0.000615688 0)
(0.000129759 -0.0010727 0)
(0.000235073 -0.00133034 0)
(0.000501388 -0.0017006 0)
(0.000820629 -0.0023359 0)
(0.0011082 -0.00309857 0)
(0.00125637 -0.00394626 0)
(0.00137938 -0.00464592 0)
(0.00173357 -0.00547444 0)
(0.00197068 -0.00691714 0)
(0.00184457 -0.00832194 0)
(0.00199943 -0.00946702 0)
(0.00217104 -0.0116312 0)
(0.000813676 -0.0143473 0)
(-0.00138192 -0.0148332 0)
(-0.00162832 -0.0137803 0)
(6.18392e-05 -0.0152566 0)
(9.55041e-06 -0.000178704 0)
(6.00415e-05 -0.000654141 0)
(9.46749e-05 -0.00111048 0)
(0.000196094 -0.00145554 0)
(0.000410348 -0.00189388 0)
(0.000644063 -0.00251865 0)
(0.000826864 -0.00324682 0)
(0.000924274 -0.00403091 0)
(0.00101997 -0.00479062 0)
(0.00119701 -0.00569783 0)
(0.00126651 -0.00693192 0)
(0.00114429 -0.00820364 0)
(0.00104092 -0.00946709 0)
(0.000748584 -0.011133 0)
(-0.000199464 -0.0128363 0)
(-0.00130866 -0.0136616 0)
(-0.00161973 -0.0141454 0)
(-0.0014034 -0.0157255 0)
(6.29092e-06 -0.000198876 0)
(3.45768e-05 -0.000684644 0)
(6.07711e-05 -0.00115299 0)
(0.000133852 -0.00157077 0)
(0.000268912 -0.00205452 0)
(0.000403484 -0.00265996 0)
(0.000491546 -0.00334766 0)
(0.000526407 -0.00408849 0)
(0.000547184 -0.00486764 0)
(0.000564698 -0.00576707 0)
(0.000492367 -0.0068374 0)
(0.000295723 -0.00796905 0)
(1.90131e-05 -0.0091441 0)
(-0.000420754 -0.0104474 0)
(-0.00111174 -0.0117156 0)
(-0.00184534 -0.0127211 0)
(-0.00236939 -0.0136958 0)
(-0.00284057 -0.0150501 0)
(3.45375e-06 -0.000211471 0)
(1.13857e-05 -0.000702219 0)
(1.55104e-05 -0.00118258 0)
(3.84052e-05 -0.00164392 0)
(8.19947e-05 -0.00214786 0)
(0.000112449 -0.0027272 0)
(0.000104029 -0.00337051 0)
(5.364e-05 -0.00406652 0)
(-2.86146e-05 -0.00481698 0)
(-0.00015064 -0.00565115 0)
(-0.000348313 -0.00657691 0)
(-0.000638505 -0.0075553 0)
(-0.00101803 -0.0085715 0)
(-0.00150765 -0.00962787 0)
(-0.00211094 -0.0106688 0)
(-0.00276418 -0.0116483 0)
(-0.00341171 -0.0126339 0)
(-0.00410816 -0.0137235 0)
(1.0821e-06 -0.000212749 0)
(-1.31226e-05 -0.000693251 0)
(-4.45408e-05 -0.00116932 0)
(-8.47358e-05 -0.00163821 0)
(-0.000134025 -0.0021325 0)
(-0.000207514 -0.00267306 0)
(-0.000318046 -0.00326091 0)
(-0.00046966 -0.00389383 0)
(-0.000663394 -0.00457364 0)
(-0.00090692 -0.00530689 0)
(-0.00121399 -0.0060908 0)
(-0.0015922 -0.00691035 0)
(-0.00204345 -0.0077546 0)
(-0.00256964 -0.00861431 0)
(-0.00316464 -0.00947116 0)
(-0.0038121 -0.0103143 0)
(-0.00449596 -0.0111562 0)
(-0.00522889 -0.0120193 0)
(-1.26138e-06 -0.000196943 0)
(-3.96945e-05 -0.000637007 0)
(-0.000113428 -0.00107597 0)
(-0.000219357 -0.00151071 0)
(-0.000355053 -0.00195987 0)
(-0.000524838 -0.00243748 0)
(-0.0007339 -0.00294773 0)
(-0.000985131 -0.00349117 0)
(-0.00128065 -0.00406776 0)
(-0.00162415 -0.00467677 0)
(-0.00202007 -0.00531424 0)
(-0.00247066 -0.00597304 0)
(-0.00297528 -0.00664614 0)
(-0.00353222 -0.00732641 0)
(-0.00413742 -0.00800642 0)
(-0.00478522 -0.00868134 0)
(-0.00546527 -0.00935126 0)
(-0.00617932 -0.0100245 0)
(-2.33641e-06 -0.000165993 0)
(-5.78606e-05 -0.000543213 0)
(-0.000162529 -0.000920195 0)
(-0.000312622 -0.00129359 0)
(-0.000502101 -0.00167785 0)
(-0.000730185 -0.00208245 0)
(-0.000998603 -0.00251063 0)
(-0.0013087 -0.00296343 0)
(-0.00166129 -0.00343998 0)
(-0.00205763 -0.00393792 0)
(-0.00249887 -0.0044539 0)
(-0.00298495 -0.00498358 0)
(-0.00351442 -0.00552212 0)
(-0.00408485 -0.00606517 0)
(-0.00469278 -0.0066083 0)
(-0.00533465 -0.00714844 0)
(-0.00600176 -0.00768426 0)
(-0.00669229 -0.0082211 0)
(-2.73788e-06 -0.000134686 0)
(-6.8145e-05 -0.000449944 0)
(-0.000189759 -0.000767729 0)
(-0.000361861 -0.00108445 0)
(-0.000576421 -0.00141249 0)
(-0.000830641 -0.00175712 0)
(-0.00112521 -0.00211954 0)
(-0.00146099 -0.00250145 0)
(-0.00183784 -0.00290161 0)
(-0.00225577 -0.00331676 0)
(-0.00271482 -0.00374421 0)
(-0.00321375 -0.00418133 0)
(-0.00375075 -0.00462393 0)
(-0.00432345 -0.00506915 0)
(-0.00492892 -0.00551404 0)
(-0.00556441 -0.00595681 0)
(-0.00622122 -0.00639774 0)
(-0.00689431 -0.0068399 0)
(-2.98681e-06 -0.000103582 0)
(-7.32487e-05 -0.000359862 0)
(-0.000201055 -0.00062313 0)
(-0.000380054 -0.000887838 0)
(-0.000602704 -0.00116572 0)
(-0.000865958 -0.00145773 0)
(-0.00116975 -0.00176209 0)
(-0.00151507 -0.00208219 0)
(-0.00190159 -0.00241695 0)
(-0.00232803 -0.00276199 0)
(-0.00279423 -0.00311511 0)
(-0.00329744 -0.00347665 0)
(-0.00383546 -0.0038402 0)
(-0.00440698 -0.00420467 0)
(-0.00500964 -0.00456805 0)
(-0.00564346 -0.00492945 0)
(-0.00629757 -0.00529735 0)
(-0.00695707 -0.00566946 0)
(-2.82248e-06 -7.52636e-05 0)
(-7.24881e-05 -0.000280078 0)
(-0.000197813 -0.000496847 0)
(-0.000373184 -0.000715713 0)
(-0.000593579 -0.000949086 0)
(-0.000858398 -0.00119486 0)
(-0.00116399 -0.0014476 0)
(-0.00151131 -0.00171294 0)
(-0.00190217 -0.00199071 0)
(-0.00233217 -0.00227542 0)
(-0.00280279 -0.0025636 0)
(-0.00330815 -0.00286441 0)
(-0.00384374 -0.00316118 0)
(-0.00441199 -0.00345555 0)
(-0.00501109 -0.00374775 0)
(-0.00565469 -0.00402839 0)
(-0.00632579 -0.00434457 0)
(-0.00697337 -0.00468406 0)
(-1.34691e-06 -5.18813e-05 0)
(-6.4809e-05 -0.000213865 0)
(-0.000183614 -0.000392034 0)
(-0.00035093 -0.000570801 0)
(-0.000563744 -0.00076304 0)
(-0.000829993 -0.00096718 0)
(-0.00113618 -0.00117447 0)
(-0.00148194 -0.00139053 0)
(-0.00187743 -0.00161757 0)
(-0.00230904 -0.00185077 0)
(-0.0027861 -0.00207661 0)
(-0.00329584 -0.00233544 0)
(-0.00382431 -0.00257882 0)
(-0.00438586 -0.00280501 0)
(-0.00496511 -0.00303979 0)
(-0.00563846 -0.00320429 0)
(-0.00639314 -0.00348307 0)
(-0.00702701 -0.00388027 0)
(2.35524e-06 -3.44557e-05 0)
(-5.09232e-05 -0.000161534 0)
(-0.000163824 -0.000306604 0)
(-0.000324569 -0.000451 0)
(-0.000527732 -0.000603422 0)
(-0.00079866 -0.000768903 0)
(-0.00110666 -0.00093831 0)
(-0.00144889 -0.00110899 0)
(-0.00185287 -0.00128985 0)
(-0.00228107 -0.00148445 0)
(-0.00277289 -0.00163525 0)
(-0.00329734 -0.00187599 0)
(-0.00380277 -0.00209542 0)
(-0.00436593 -0.00223858 0)
(-0.00486714 -0.00245731 0)
(-0.00555718 -0.00238184 0)
(-0.00659484 -0.00263954 0)
(-0.00726097 -0.00327999 0)
(7.7257e-06 -2.65267e-05 0)
(-3.49836e-05 -0.000121049 0)
(-0.000144823 -0.000235314 0)
(-0.00030185 -0.000352513 0)
(-0.000499227 -0.000464981 0)
(-0.000777127 -0.000593821 0)
(-0.00108563 -0.000735004 0)
(-0.00142761 -0.000861698 0)
(-0.0018476 -0.000998128 0)
(-0.00225286 -0.00117716 0)
(-0.00277419 -0.00121561 0)
(-0.00335057 -0.001491 0)
(-0.00379201 -0.00171409 0)
(-0.00437423 -0.00168975 0)
(-0.00472586 -0.00219946 0)
(-0.00533888 -0.00122059 0)
(-0.00695126 -0.00163262 0)
(-0.00780822 -0.00336488 0)
(1.04022e-05 -2.10509e-05 0)
(-2.48508e-05 -8.86122e-05 0)
(-0.000134405 -0.000173307 0)
(-0.000283913 -0.000269474 0)
(-0.000493775 -0.000341956 0)
(-0.000774972 -0.000437497 0)
(-0.00107226 -0.000558354 0)
(-0.00143441 -0.000640823 0)
(-0.00187318 -0.000741331 0)
(-0.00222378 -0.000943693 0)
(-0.00280925 -0.000701506 0)
(-0.00343802 -0.00120791 0)
(-0.00383742 -0.00160877 0)
(-0.00443616 -0.000887044 0)
(-0.00435276 -0.00270009 0)
(-0.00503006 0.000299543 0)
(-0.00795567 0.000765212 0)
(-0.00820597 -0.00447536 0)
(1.06119e-05 -1.80187e-05 0)
(-2.97438e-05 -6.09905e-05 0)
(-0.0001418 -0.000119654 0)
(-0.000267568 -0.000188978 0)
(-0.000527112 -0.000229938 0)
(-0.000788599 -0.000298879 0)
(-0.00105267 -0.000392562 0)
(-0.00151334 -0.000428224 0)
(-0.00187657 -0.000488141 0)
(-0.00212701 -0.000896746 0)
(-0.00311037 -0.000289794 0)
(-0.00329237 -0.000292888 0)
(-0.00402406 -0.00135445 0)
(-0.00508764 -0.00136917 0)
(-0.003361 -0.00116472 0)
(-0.00621445 -0.000866462 0)
(-0.00497636 -0.000183959 0)
(-0.0101096 -0.0004271 0)
(8.08436e-06 -1.54729e-05 0)
(-5.27057e-05 -3.44072e-05 0)
(-0.000155009 -7.05223e-05 0)
(-0.000258897 -0.000109882 0)
(-0.000566066 -0.000129722 0)
(-0.000755031 -0.000183379 0)
(-0.00106511 -0.000235805 0)
(-0.00172709 -0.000252911 0)
(-0.00176284 -0.000293946 0)
(-0.00201109 0.000104443 0)
(-0.00490646 -0.00197627 0)
(0.00116961 -0.000878835 0)
(-0.00784059 0.00164648 0)
(-0.00847347 0.00140779 0)
(0.00395714 -0.00800159 0)
(-0.0431128 0.00606975 0)
(0.0437722 0.00477702 0)
(-0.00200722 -0.0119766 0)
(-1.20555e-05 -2.16642e-06 0)
(-6.3602e-05 -1.08534e-05 0)
(-0.000194793 -3.41021e-05 0)
(-0.000473632 -2.55124e-05 0)
(-0.000654319 -5.32382e-05 0)
(-0.0010905 -7.78423e-05 0)
(-0.00154737 -2.3956e-05 0)
(-0.00175986 -0.000164296 0)
(-0.00276063 -6.41888e-05 0)
(-0.00382526 -0.0021689 0)
(-0.0014809 0.00608106 0)
(-0.00965598 -0.000154423 0)
(-0.000882471 -0.00919155 0)
(-0.00176849 0.00145019 0)
(-0.021704 0.00831104 0)
(0.0306913 -0.0102136 0)
(-0.0620545 -0.00915762 0)
(-0.00608163 0.0141648 0)
(0.24702 -0.666866 -2.14492e-21)
(0.879858 -0.627826 2.3113e-21)
(1.37731 -0.503173 0)
(1.73516 -0.310618 0)
(1.95203 -0.127022 0)
(2.02302 0.0438424 -2.11875e-21)
(1.96019 0.205369 0)
(1.7655 0.344103 0)
(1.43244 0.466958 0)
(0.999012 0.532771 0)
(0.495969 0.55907 2.6953e-21)
(-0.0225923 0.531255 0)
(-0.527658 0.468166 0)
(-0.953193 0.376768 0)
(-1.29393 0.27644 0)
(-1.51378 0.147469 3.68292e-21)
(-1.61494 0.00403538 0)
(-1.58101 -0.157309 0)
(-1.40497 -0.330811 0)
(-1.0938 -0.66742 0)
(-0.488536 -0.962582 0)
(0.157087 -0.387483 0)
(0.561572 0.0438824 0)
(1.00513 -0.129505 3.21289e-21)
(1.43135 -0.224364 -3.15669e-21)
(1.67149 -0.100562 3.05107e-21)
(1.63882 0.164259 3.07258e-21)
(1.37357 0.46722 0)
(0.768413 0.738357 0)
(0.0291495 0.789991 -3.19496e-21)
(-0.663466 0.616618 -3.16516e-21)
(-1.08925 0.241858 0)
(-1.18505 -0.0266796 0)
(-1.20246 -0.154559 -2.93291e-21)
(-0.835271 -0.262328 0)
(-0.18044 0.49977 0)
(0.390574 0.491821 2.70933e-21)
(0.637187 -1.19582 0)
(1.80774 -2.801 3.44504e-21)
(3.10114 -1.01732 7.66781e-21)
(2.86766 -0.05231 0)
(2.90146 0.00816472 0)
(2.75125 0.107661 0)
(2.61997 0.133481 0)
(2.45496 0.147927 0)
(2.29761 0.149262 2.56651e-21)
(2.14116 0.141755 2.20486e-21)
(1.99772 0.131127 1.93627e-21)
(1.86591 0.121392 0)
(1.74757 0.106734 -1.6345e-21)
(1.64136 0.0935823 0)
(1.54787 0.0822819 1.48924e-21)
(1.46394 0.0723226 1.44747e-21)
(1.38933 0.063885 0)
(1.32184 0.05662 0)
(1.26143 0.0501947 0)
(1.20703 0.044292 1.38071e-21)
(1.15709 0.0381252 0)
(1.10838 0.0320868 0)
(1.07248 0.0288943 0)
(1.03313 0.0263978 0)
(1.00016 0.0242521 0)
(0.966463 0.0229886 0)
(0.935777 0.0216077 0)
(0.905151 0.0208442 0)
(0.876029 0.0199506 -1.57454e-21)
(0.847141 0.0194346 0)
(0.819057 0.0188369 0)
(0.791203 0.0184578 1.70646e-21)
(0.763817 0.01803 1.75851e-21)
(0.736629 0.0177227 0)
(0.709752 0.0173838 -1.87408e-21)
(0.683062 0.0171059 1.93723e-21)
(0.656624 0.0168038 0)
(0.630389 0.0165284 -2.07305e-21)
(0.604402 0.0162322 0)
(0.578652 0.0159448 0)
(0.553176 0.0156414 2.2962e-21)
(0.527975 0.0153408 0)
(0.503077 0.015032 -2.45427e-21)
(0.478487 0.0147274 0)
(0.454219 0.0144214 2.61693e-21)
(0.430277 0.0141201 2.69928e-21)
(0.406666 0.0138187 2.782e-21)
(0.383387 0.0135205 5.72971e-21)
(0.36044 0.0132258 -5.89535e-21)
(0.337819 0.012941 0)
(0.315513 0.01267 0)
(0.293508 0.0124141 0)
(0.271793 0.012166 -6.55119e-21)
(0.25036 0.0119176 -6.71195e-21)
(0.229207 0.0116648 6.87061e-21)
(0.208327 0.0114128 0)
(0.187712 0.0111694 -7.17948e-21)
(0.167355 0.0109365 -7.32842e-21)
(0.14725 0.010703 -7.47271e-21)
(0.127342 0.0104416 0)
(0.107471 0.0101297 0)
(0.0875037 0.00994667 0)
(0.0678971 0.0106459 -7.97817e-21)
(0.0499494 0.0121886 0)
(0.0346691 0.00903208 0)
(0.01717 0.00906666 8.30357e-21)
(0.00129061 0.00805032 0)
(-0.0146933 0.00792682 0)
(-0.0299234 0.00749028 8.55806e-21)
(-0.0449014 0.007283 0)
(-0.0594033 0.00699608 0)
(-0.0735658 0.00676995 -8.7509e-21)
(-0.0873342 0.00653315 -8.80252e-21)
(-0.100751 0.00631539 0)
(-0.113808 0.00610204 8.88844e-21)
(-0.126523 0.00589919 0)
(-0.1389 0.00570285 -8.95351e-21)
(-0.15095 0.00551433 0)
(-0.162682 0.00533264 -9.0003e-21)
(-0.174103 0.00515718 -9.01759e-21)
(-0.185223 0.00498773 0)
(-0.196048 0.0048232 0)
(-0.206586 0.0046626 0)
(-0.21684 0.00450321 0)
(-0.226815 0.00434133 0)
(-0.236512 0.00416918 0)
(-0.245928 0.00397185 0)
(-0.255048 0.00371924 -9.03662e-21)
(-0.263856 0.00334425 9.02618e-21)
(-0.272315 0.00264409 0)
(-0.280262 0.00168445 0)
(-0.287454 -5.31927e-05 0)
(-0.293632 -0.00298468 0)
(-0.30065 0.000824855 1.78653e-20)
(-0.308901 0.00372635 0)
(-0.315757 0.00190324 -1.7779e-20)
(-0.322253 0.00234406 1.77305e-20)
(-0.328301 0.00187753 0)
(-0.333921 0.00176461 0)
(-0.339088 0.00150511 0)
(-0.343783 0.00131922 -1.75097e-20)
(-0.348016 0.00108906 -1.74473e-20)
(-0.35167 0.000842813 0)
(-0.354768 0.000593339 -1.73126e-20)
(-0.357228 0.00031949 -1.72392e-20)
(-0.359006 3.02094e-05 1.7161e-20)
(-0.360049 -0.000278392 0)
(-0.360291 -0.000609794 0)
(-0.359672 -0.000968002 1.68899e-20)
(-0.358126 -0.00136674 0)
(-0.355557 -0.00181506 0)
(-0.351726 -0.00230464 0)
(-0.346672 -0.00284882 0)
(-0.339892 -0.00348854 -1.62649e-20)
(-0.331346 -0.0041676 -1.61032e-20)
(-0.320715 -0.00489569 0)
(-0.307936 -0.00562951 -1.57342e-20)
(-0.292915 -0.00636802 0)
(-0.275604 -0.00710755 0)
(-0.255958 -0.00784955 -1.50618e-20)
(-0.233914 -0.00860054 0)
(-0.209392 -0.00936792 -1.45326e-20)
(-0.182283 -0.0101649 0)
(-0.152433 -0.011008 0)
(-0.119605 -0.0119188 -1.3608e-20)
(-0.0834943 -0.0128955 0)
(-0.0438373 -0.0139146 -1.28953e-20)
(-0.000432804 -0.0149573 0)
(0.0468592 -0.0160083 0)
(0.0981357 -0.0170646 0)
(0.153488 -0.0181298 1.12352e-20)
(0.213004 -0.0191996 0)
(0.276791 -0.0202575 -1.03074e-20)
(0.344863 -0.0212761 0)
(0.417135 -0.0222068 0)
(0.493579 -0.0229932 0)
(0.573143 -0.0237624 0)
(0.657755 -0.0236348 0)
(0.738766 -0.0245431 0)
(0.830673 -0.0205941 0)
(0.920932 -0.0162998 1.32466e-20)
(0.989856 -0.0276236 0)
(1.0354 0.011417 0)
(-0.0695775 -1.61107 6.05948e-21)
(0.194618 -1.6417 -6.18358e-21)
(0.388127 -1.18829 0)
(0.512055 -0.784402 3.46128e-21)
(0.509568 -0.38703 0)
(0.457016 0.00143009 1.56907e-21)
(0.308005 0.384537 -3.1084e-21)
(0.0591227 0.780994 -3.40524e-21)
(-0.2963 1.13166 0)
(-0.730558 1.37758 -5.57021e-21)
(-1.15875 1.50567 -3.58121e-21)
(-1.5804 1.49352 0)
(-1.9524 1.34193 0)
(-2.25581 1.0771 0)
(-2.46978 0.754673 0)
(-2.58631 0.429346 -5.21869e-21)
(-2.61936 0.0851021 0)
(-2.57045 -0.267824 9.65021e-21)
(-2.43223 -0.619468 0)
(-2.23236 -0.970902 0)
(-1.99826 -1.33295 -8.32688e-21)
(-1.72581 -1.52493 0)
(-1.19604 -1.52876 6.96134e-21)
(-0.487617 -1.3458 -3.24562e-21)
(0.0449023 -0.945286 2.85632e-21)
(0.420912 -0.341036 -2.49168e-21)
(0.718617 0.393666 -2.38475e-21)
(0.714605 1.11019 0)
(0.427629 1.72358 0)
(0.114245 1.79357 3.50015e-21)
(-0.123636 1.3893 -3.07818e-21)
(-0.0926741 0.674315 0)
(0.174931 0.212962 0)
(0.983724 -0.302916 2.43799e-21)
(1.39235 -1.62699 0)
(1.92768 -2.48949 0)
(3.17633 -1.78098 -3.65389e-21)
(2.73011 -1.20824 0)
(1.97683 -0.892491 3.16623e-21)
(1.88008 -0.278899 -7.62375e-21)
(1.68366 0.0503607 0)
(1.69659 0.191308 0)
(1.5734 0.293448 -9.15289e-21)
(1.50771 0.324253 -8.16366e-21)
(1.4058 0.331201 -7.43886e-21)
(1.33051 0.315804 3.63458e-21)
(1.25433 0.292196 -3.02955e-21)
(1.1914 0.262274 -9.00973e-21)
(1.13488 0.233179 5.85738e-21)
(1.08618 0.206008 2.63174e-21)
(1.04258 0.181124 0)
(1.00397 0.159537 -2.49144e-21)
(0.969149 0.140971 2.68618e-21)
(0.937657 0.125299 0)
(0.908959 0.112055 0)
(0.882465 0.101002 0)
(0.858089 0.0914583 -2.29229e-21)
(0.835016 0.0825972 0)
(0.812362 0.0742136 4.61494e-21)
(0.790064 0.0678674 0)
(0.767918 0.0631475 4.55368e-21)
(0.746452 0.0592845 0)
(0.725145 0.0564211 -4.53279e-21)
(0.704276 0.0540281 0)
(0.683477 0.0521936 4.54745e-21)
(0.66287 0.0506469 -2.29963e-21)
(0.642254 0.0494133 0)
(0.621675 0.0483532 -4.63262e-21)
(0.601033 0.0474637 -2.33047e-21)
(0.580352 0.0466678 -2.35867e-21)
(0.559591 0.045954 0)
(0.538772 0.0452776 -2.42962e-21)
(0.517888 0.0446274 -2.46338e-21)
(0.496965 0.0439775 0)
(0.476018 0.0433208 2.54811e-21)
(0.455075 0.0426443 -5.1812e-21)
(0.434162 0.0419463 0)
(0.413307 0.0412231 -2.69276e-21)
(0.392535 0.0404784 0)
(0.371873 0.039715 8.37776e-21)
(0.351342 0.0389392 0)
(0.330962 0.0381566 -8.70354e-21)
(0.310749 0.0373731 -2.96373e-21)
(0.290715 0.0365936 2.99767e-21)
(0.270868 0.0358227 6.10617e-21)
(0.251213 0.0350643 -6.21748e-21)
(0.231756 0.0343221 0)
(0.2125 0.0335986 0)
(0.193451 0.0328947 0)
(0.174615 0.0322079 2.01091e-20)
(0.155998 0.0315336 6.83487e-21)
(0.137609 0.0308677 -6.94492e-21)
(0.119459 0.03021 0)
(0.101569 0.0295658 -7.09241e-21)
(0.083972 0.0289429 7.25966e-21)
(0.066703 0.0283407 7.357e-21)
(0.0497477 0.0277433 0)
(0.0331238 0.0271675 0)
(0.0174245 0.0267523 0)
(0.00368184 0.0263794 7.67481e-21)
(-0.0115171 0.0248191 0)
(-0.0292974 0.0236559 -1.56155e-20)
(-0.0442283 0.0227375 -2.36445e-20)
(-0.0595301 0.0217534 1.58684e-20)
(-0.0744332 0.0210124 0)
(-0.0890714 0.0202503 8.01059e-21)
(-0.103383 0.0195677 0)
(-0.11735 0.0188887 1.62567e-20)
(-0.13099 0.0182433 -8.13363e-21)
(-0.144298 0.0176134 -8.16482e-21)
(-0.157288 0.0170067 0)
(-0.169965 0.0164187 -2.4759e-20)
(-0.182341 0.0158512 1.65226e-20)
(-0.194423 0.0153028 8.30431e-21)
(-0.206222 0.0147735 0)
(-0.217747 0.0142624 8.32247e-21)
(-0.229007 0.013769 2.49269e-20)
(-0.240011 0.0132922 0)
(-0.250768 0.0128311 1.6605e-20)
(-0.261285 0.0123843 1.66006e-20)
(-0.27157 0.0119496 1.6592e-20)
(-0.281627 0.0115261 0)
(-0.291458 0.0111134 0)
(-0.301066 0.0107121 0)
(-0.310449 0.0103247 -8.23739e-21)
(-0.31962 0.00995693 -8.26787e-21)
(-0.328622 0.00962951 0)
(-0.337508 0.0094364 -1.64342e-20)
(-0.346425 0.00944019 -1.64027e-20)
(-0.355605 0.00943346 0)
(-0.364452 0.00907425 -1.63476e-20)
(-0.371915 0.00812583 -3.25435e-20)
(-0.37957 0.00738734 1.62607e-20)
(-0.387191 0.0069196 1.61508e-20)
(-0.394451 0.00641549 0)
(-0.401541 0.00597358 0)
(-0.408246 0.00548923 0)
(-0.414659 0.00496483 1.60088e-20)
(-0.420693 0.00441455 -1.59135e-20)
(-0.426329 0.00384485 -3.17589e-20)
(-0.431535 0.0032387 1.5838e-20)
(-0.436262 0.00259347 -1.57519e-20)
(-0.440471 0.00190934 -1.57109e-20)
(-0.444111 0.00118451 0)
(-0.447134 0.000417362 0)
(-0.44949 -0.000398318 1.54888e-20)
(-0.451127 -0.00127874 0)
(-0.451967 -0.00222694 0)
(-0.451908 -0.00331197 -3.04419e-20)
(-0.450846 -0.00458194 0)
(-0.448494 -0.00603164 -1.50237e-20)
(-0.444659 -0.00765708 1.48468e-20)
(-0.439113 -0.00940322 0)
(-0.431738 -0.011202 -1.46244e-20)
(-0.422442 -0.0130214 0)
(-0.411168 -0.0148473 0)
(-0.397862 -0.0166831 1.39845e-20)
(-0.382457 -0.0185423 -2.7667e-20)
(-0.364869 -0.0204436 1.35383e-20)
(-0.344989 -0.0224173 0)
(-0.322671 -0.0245048 0)
(-0.297696 -0.0267675 -1.29309e-20)
(-0.269762 -0.0292212 0)
(-0.238588 -0.0318174 -1.23462e-20)
(-0.203953 -0.0345017 0)
(-0.165696 -0.0372254 0)
(-0.123707 -0.0399619 0)
(-0.0779067 -0.0427055 -1.06842e-20)
(-0.0282287 -0.0454629 0)
(0.0254603 -0.0482134 9.85891e-21)
(0.0831756 -0.0508982 0)
(0.144913 -0.0534479 0)
(0.210686 -0.0557411 -1.75644e-20)
(0.279898 -0.0577931 1.66353e-20)
(0.353032 -0.058658 0)
(0.427279 -0.0597415 0)
(0.503594 -0.0576666 0)
(0.585304 -0.0529438 -3.90947e-20)
(0.647453 -0.0506352 0)
(0.720928 -0.0189364 2.16824e-20)
(-0.207608 -1.06153 1.77579e-23)
(-0.433675 -1.66532 8.38788e-21)
(-0.543644 -1.33988 0)
(-0.603808 -0.739154 -7.38281e-21)
(-0.682084 -0.147204 0)
(-0.83219 0.35931 0)
(-1.12066 0.887953 -2.36699e-22)
(-1.493 1.44816 4.65077e-21)
(-1.89167 1.90257 5.50697e-21)
(-2.25844 2.17053 6.96114e-21)
(-2.55832 2.21819 0)
(-2.7741 2.08494 0)
(-2.9045 1.80872 -8.3601e-21)
(-2.97291 1.41926 -1.77475e-20)
(-2.9841 0.965562 1.89429e-20)
(-2.96036 0.494472 0)
(-2.89869 0.0205298 1.97628e-20)
(-2.80284 -0.445436 -1.13094e-20)
(-2.68127 -0.898856 0)
(-2.53852 -1.33061 1.95498e-20)
(-2.38274 -1.71919 1.01871e-20)
(-2.21204 -1.99707 -1.74036e-20)
(-1.97956 -2.15792 -8.38652e-21)
(-1.68125 -2.1596 0)
(-1.3389 -1.8902 1.38414e-20)
(-0.960937 -1.27457 1.27518e-20)
(-0.567972 -0.447214 0)
(-0.325953 0.700899 1.18598e-20)
(-0.135797 1.63763 0)
(0.230371 1.69018 1.25734e-20)
(0.828993 0.977103 4.94951e-21)
(1.54251 -0.515373 0)
(2.04785 -2.01258 0)
(2.77062 -2.09634 0)
(2.42918 -1.71975 0)
(1.82902 -1.40161 0)
(1.64327 -0.919185 0)
(1.29258 -0.698646 1.31996e-20)
(1.02276 -0.528806 -2.06845e-20)
(0.837192 -0.158531 0)
(0.741762 0.0928009 0)
(0.724967 0.248125 0)
(0.71589 0.338746 1.08351e-22)
(0.737004 0.37079 1.13347e-20)
(0.750889 0.374829 2.15962e-20)
(0.769007 0.356995 -2.0334e-20)
(0.780454 0.330677 -9.8125e-21)
(0.788612 0.299311 8.85326e-21)
(0.791455 0.268098 3.89329e-22)
(0.790544 0.238719 8.44204e-21)
(0.786308 0.21209 0)
(0.779395 0.188894 7.80184e-21)
(0.770398 0.168899 2.28524e-22)
(0.760033 0.151769 0)
(0.748563 0.137175 0)
(0.736293 0.124977 -6.87931e-21)
(0.723386 0.114564 0)
(0.709747 0.105648 0)
(0.695231 0.0980227 6.51543e-21)
(0.68007 0.0918766 1.26186e-20)
(0.664499 0.0869254 -6.14375e-21)
(0.648619 0.082954 0)
(0.632443 0.0798255 6.00047e-21)
(0.616039 0.0773155 0)
(0.599369 0.0753368 5.95093e-21)
(0.58246 0.073738 5.85742e-21)
(0.565281 0.0724549 -1.1685e-20)
(0.547843 0.0713893 -5.82625e-21)
(0.530133 0.0704924 0)
(0.512166 0.0696989 1.15748e-20)
(0.493943 0.0689722 0)
(0.475489 0.0682693 1.73754e-20)
(0.456822 0.0675648 1.16043e-20)
(0.437973 0.0668322 1.16414e-20)
(0.418974 0.0660573 -1.16904e-20)
(0.399861 0.0652276 1.76408e-20)
(0.38067 0.0643397 0)
(0.361439 0.0633928 0)
(0.342203 0.0623926 -1.19873e-20)
(0.322996 0.0613463 -1.81446e-20)
(0.303846 0.060264 0)
(0.28478 0.0591554 6.16908e-21)
(0.26582 0.0580306 0)
(0.246983 0.0568989 -1.87982e-20)
(0.228283 0.0557689 -5.69678e-23)
(0.209731 0.0546484 5.93096e-23)
(0.191331 0.0535438 1.28738e-20)
(0.17309 0.0524587 0)
(0.155012 0.0513927 -1.31224e-20)
(0.1371 0.0503418 -6.71666e-23)
(0.119358 0.0492993 0)
(0.101794 0.048258 0)
(0.0844166 0.0472125 0)
(0.0672454 0.0461602 1.3812e-20)
(0.0503073 0.045098 0)
(0.0336287 0.0440152 0)
(0.0172366 0.042898 0)
(0.00121541 0.041804 0)
(-0.0144675 0.0409213 0)
(-0.0307093 0.0400165 1.43867e-20)
(-0.0466729 0.0377766 0)
(-0.0616505 0.0368337 1.46166e-20)
(-0.0765602 0.0358004 1.46814e-20)
(-0.0912249 0.0347177 -1.4746e-20)
(-0.105591 0.033643 0)
(-0.119648 0.0325489 -1.48485e-20)
(-0.133407 0.031492 0)
(-0.146854 0.0304519 -1.49204e-20)
(-0.160001 0.0294464 1.49452e-20)
(-0.172851 0.0284697 4.47664e-20)
(-0.185413 0.0275268 0)
(-0.197696 0.0266159 4.48203e-20)
(-0.20971 0.0257379 1.48606e-20)
(-0.221464 0.0248918 0)
(-0.232968 0.0240774 2.98171e-20)
(-0.244233 0.0232936 2.97929e-20)
(-0.255268 0.0225396 -4.47001e-20)
(-0.266085 0.021814 0)
(-0.276693 0.0211149 -1.48968e-20)
(-0.287102 0.0204399 -1.48723e-20)
(-0.29732 0.0197848 -4.44284e-20)
(-0.307356 0.0191458 0)
(-0.317216 0.0185191 0)
(-0.326907 0.0178993 0)
(-0.336435 0.01728 -1.46202e-20)
(-0.345814 0.0166523 0)
(-0.355068 0.0160133 0)
(-0.364204 0.0153904 1.46121e-20)
(-0.373283 0.0147852 1.45762e-20)
(-0.382402 0.014283 0)
(-0.391171 0.014132 0)
(-0.399414 0.0136577 2.88908e-20)
(-0.407668 0.0128787 0)
(-0.415873 0.0122662 -2.87214e-20)
(-0.423885 0.0115828 -2.85687e-20)
(-0.431744 0.010933 0)
(-0.439367 0.0102336 0)
(-0.446792 0.00949059 2.83294e-20)