/*--------------------------------*- C++ -*----------------------------------*\
| =========                 |                                                 |
| \\      /  F ield         | OpenFOAM: The Open Source CFD Toolbox           |
|  \\    /   O peration     | Version:  2112                                  |
|   \\  /    A nd           | Website:  www.openfoam.com                      |
|    \\/     M anipulation  |                                                 |
\*---------------------------------------------------------------------------*/
FoamFile
{
    version     2.0;
    format      ascii;
    arch        "LSB;label=32;scalar=64";
    class       surfaceScalarField;
    location    "0.22";
    object      ddtCorrDdt0(phi);
}
// * * * * * * * * * * * * * * * * * * * * * * * * * * * * * * * * * * * * * //

dimensions      [0 3 -2 0 0 0 0];

oriented        oriented;

internalField   nonuniform List<scalar> 
24170
(
5.94916e-10
-5.94931e-10
-5.27931e-10
1.12282e-09
-1.04349e-09
5.1553e-10
5.42496e-10
-1.58602e-09
3.24627e-09
-2.70381e-09
3.35065e-10
2.91117e-09
-3.86415e-09
4.19919e-09
1.06667e-08
-1.45309e-08
9.29836e-10
9.73682e-09
-6.4557e-09
7.38551e-09
1.79864e-08
-2.44421e-08
-8.25764e-09
2.6244e-08
-6.79454e-09
-1.46312e-09
2.26028e-08
-2.93974e-08
-1.24871e-08
3.50899e-08
1.47752e-08
-2.72623e-08
8.85109e-08
-7.37357e-08
8.37676e-08
4.74323e-09
9.30033e-11
-6.87948e-10
8.03361e-10
4.12435e-10
3.90399e-10
9.28463e-10
6.33592e-10
-1.82924e-09
-2.42764e-09
3.57399e-10
1.71885e-09
-1.23535e-09
9.00207e-09
-3.08407e-09
-1.50055e-08
9.47662e-09
4.68164e-09
-9.9503e-09
2.37646e-08
-1.16975e-08
-2.28265e-08
2.2149e-08
1.70205e-08
-1.36031e-08
2.06785e-08
-5.12114e-09
-1.68508e-08
8.13185e-09
8.47978e-08
-6.65587e-08
3.4622e-09
5.40733e-08
-2.02753e-07
1.32479e-07
-1.28516e-07
9.53075e-09
-1.55421e-10
-5.32535e-10
5.74708e-10
-3.17714e-10
4.5857e-10
1.04458e-09
-4.47672e-10
-9.23026e-10
6.03431e-10
-6.93731e-10
1.16824e-09
-1.80019e-09
-4.91579e-10
-1.42427e-09
3.68338e-09
5.30163e-09
1.27852e-09
-7.54547e-09
-1.25018e-09
-9.16884e-09
7.76558e-09
1.31332e-08
-5.89751e-09
5.99796e-11
2.07e-08
-3.17187e-08
4.90045e-08
-2.01726e-08
-1.06811e-07
8.92567e-08
-6.63449e-08
1.36072e-08
2.86086e-07
-2.19952e-07
2.30146e-08
1.34556e-07
-6.27331e-11
-4.69809e-10
1.08832e-10
-4.89293e-10
3.02781e-10
8.50612e-10
1.05945e-10
-7.26209e-10
6.20027e-10
-1.20783e-09
4.74341e-10
-1.65452e-09
2.04913e-10
-1.15487e-09
3.85096e-09
1.65556e-09
1.10411e-09
-4.79865e-09
-1.97323e-09
-6.09152e-09
5.4292e-09
5.73076e-09
1.03462e-08
-4.857e-09
6.65408e-09
-2.80267e-08
-2.39923e-08
1.04737e-08
1.04371e-08
5.48273e-08
9.85617e-08
-7.45175e-08
2.06388e-08
-1.42029e-07
8.87384e-08
-4.50851e-08
-6.70102e-11
-4.02804e-10
-1.97066e-10
-3.59246e-10
2.87527e-10
3.66007e-10
4.28378e-10
-8.67074e-10
4.847e-10
-1.26417e-09
5.78981e-10
-1.74882e-09
7.0354e-10
-1.27945e-09
2.21583e-09
1.43251e-10
1.67038e-09
-4.25323e-09
5.74712e-10
-4.99587e-09
4.8402e-09
1.46525e-09
6.85259e-09
-6.86941e-09
-2.1116e-09
-1.90625e-08
-8.80302e-10
9.24237e-09
3.57222e-08
1.82247e-08
2.41531e-08
-6.29484e-08
-4.55414e-08
-7.23346e-08
4.99597e-08
-6.7627e-09
-1.13561e-10
-2.89248e-10
-2.54362e-10
-2.18454e-10
3.23249e-10
-2.11614e-10
5.2664e-10
-1.07048e-09
5.09097e-10
-1.24664e-09
6.51586e-10
-1.89133e-09
6.37166e-10
-1.26504e-09
1.67743e-09
-8.97024e-10
2.30248e-09
-4.8783e-09
1.66275e-09
-4.35616e-09
3.07872e-09
4.92597e-11
4.62838e-09
-8.4191e-09
3.14702e-09
-1.75812e-08
4.78852e-09
7.60086e-09
1.22835e-08
1.07297e-08
7.14324e-09
-5.78081e-08
-1.58293e-08
-4.93621e-08
3.26825e-08
1.44793e-09
-1.12593e-10
-1.76661e-10
-1.42075e-10
-1.88978e-10
3.6138e-10
-7.15078e-10
5.276e-10
-1.23671e-09
5.48156e-10
-1.26721e-09
5.77472e-10
-1.92065e-09
6.39047e-10
-1.32663e-09
1.78472e-09
-2.04271e-09
2.37735e-09
-5.47094e-09
1.49626e-09
-3.47508e-09
2.7439e-09
-1.1984e-09
5.51112e-09
-1.11863e-08
2.83961e-09
-1.49097e-08
5.50226e-10
9.89022e-09
9.88215e-09
1.39779e-09
1.25771e-08
-6.05031e-08
-2.44598e-09
-3.4339e-08
2.74396e-08
2.79692e-09
-8.80365e-11
-8.86292e-11
2.92661e-11
-3.06288e-10
3.85602e-10
-1.07142e-09
4.88104e-10
-1.33922e-09
5.34155e-10
-1.31327e-09
5.14397e-10
-1.90091e-09
8.37379e-10
-1.64962e-09
1.91319e-09
-3.11854e-09
1.95379e-09
-5.51154e-09
1.45496e-09
-2.97627e-09
3.54536e-09
-3.28881e-09
4.78463e-09
-1.24256e-08
6.81299e-11
-1.01932e-08
2.23751e-09
7.72083e-09
1.51993e-08
-1.1564e-08
9.30281e-09
-5.46066e-08
-3.52667e-09
-2.15096e-08
2.15367e-08
2.37616e-09
-2.47111e-11
-6.39231e-11
1.3753e-10
-4.68537e-10
3.56897e-10
-1.2908e-09
4.2503e-10
-1.40736e-09
4.99049e-10
-1.3873e-09
5.51946e-10
-1.95381e-09
1.07428e-09
-2.17197e-09
1.82495e-09
-3.86922e-09
1.54207e-09
-5.22867e-09
1.82247e-09
-3.25667e-09
3.8135e-09
-5.27986e-09
2.95928e-09
-1.15714e-08
-1.8748e-10
-7.04642e-09
6.41876e-09
1.11457e-09
1.44585e-08
-1.96037e-08
1.71032e-09
-4.18585e-08
-7.19008e-09
-1.26092e-08
1.3148e-08
1.19866e-09
2.21892e-11
-8.61175e-11
1.73608e-10
-6.19964e-10
3.00331e-10
-1.41753e-09
3.61373e-10
-1.46841e-09
4.8742e-10
-1.51335e-09
6.57989e-10
-2.12439e-09
1.21004e-09
-2.72403e-09
1.6152e-09
-4.27439e-09
1.37787e-09
-4.99136e-09
2.13934e-09
-4.01815e-09
3.34112e-09
-6.48166e-09
1.83535e-09
-1.00656e-08
1.3493e-09
-6.56039e-09
7.8913e-09
-5.42744e-09
9.25145e-09
-2.09639e-08
-3.54241e-09
-2.90647e-08
-7.53781e-09
-8.61381e-09
3.78551e-09
1.82462e-09
4.49271e-11
-1.3105e-10
1.72071e-10
-7.47116e-10
2.35933e-10
-1.4814e-09
3.17362e-10
-1.54985e-09
5.07989e-10
-1.70399e-09
7.63928e-10
-2.38034e-09
1.22372e-09
-3.18383e-09
1.41391e-09
-4.46459e-09
1.37366e-09
-4.95111e-09
2.17554e-09
-4.82004e-09
2.68938e-09
-6.99551e-09
1.64589e-09
-9.02215e-09
2.57561e-09
-7.49012e-09
6.47717e-09
-9.32902e-09
4.17049e-09
-1.86572e-08
-4.67783e-09
-2.02164e-08
-4.92796e-09
-8.3637e-09
-4.05411e-09
2.91163e-09
4.26067e-11
-1.73663e-10
1.25158e-10
-8.29676e-10
1.59499e-10
-1.51575e-09
2.54038e-10
-1.6444e-09
4.50619e-10
-1.90058e-09
6.89716e-10
-2.61945e-09
9.80673e-10
-3.4748e-09
1.07686e-09
-4.56079e-09
1.17066e-09
-5.04492e-09
1.70329e-09
-5.35269e-09
1.87247e-09
-7.16469e-09
1.47983e-09
-8.62952e-09
2.34892e-09
-8.35922e-09
3.69273e-09
-1.06728e-08
1.22373e-09
-1.61882e-08
-3.02355e-09
-1.59691e-08
-1.98102e-09
-9.40624e-09
-8.4841e-09
2.44897e-09
4.54877e-11
-2.19158e-10
1.18458e-10
-9.02656e-10
1.50399e-10
-1.5477e-09
2.83598e-10
-1.77761e-09
5.27194e-10
-2.14418e-09
7.84071e-10
-2.87633e-09
1.03395e-09
-3.72468e-09
1.12202e-09
-4.64886e-09
1.27943e-09
-5.20234e-09
1.72911e-09
-5.80239e-09
1.82149e-09
-7.25708e-09
1.64304e-09
-8.45108e-09
2.26966e-09
-8.98586e-09
2.5774e-09
-1.09806e-08
2.64996e-10
-1.38758e-08
-2.22638e-09
-1.34777e-08
-9.11974e-10
-1.07207e-08
-1.12488e-08
1.85271e-09
4.28435e-11
-2.6201e-10
1.04948e-10
-9.64773e-10
1.47147e-10
-1.58991e-09
3.10983e-10
-1.94146e-09
5.7266e-10
-2.40587e-09
8.21489e-10
-3.12518e-09
1.02665e-09
-3.92985e-09
1.11936e-09
-4.74159e-09
1.29554e-09
-5.37853e-09
1.61885e-09
-6.12571e-09
1.65763e-09
-7.29587e-09
1.55491e-09
-8.34837e-09
1.78066e-09
-9.21162e-09
1.46456e-09
-1.06645e-08
-2.54794e-10
-1.21565e-08
-1.56685e-09
-1.21657e-08
-7.75407e-10
-1.15121e-08
-1.23615e-08
3.37272e-10
3.62904e-11
-2.98313e-10
8.7729e-11
-1.01623e-09
1.4429e-10
-1.64649e-09
3.14381e-10
-2.11156e-09
5.55337e-10
-2.64684e-09
7.66829e-10
-3.33668e-09
9.20803e-10
-4.08384e-09
1.00521e-09
-4.82601e-09
1.13905e-09
-5.51239e-09
1.3046e-09
-6.29128e-09
1.26388e-09
-7.25515e-09
1.09749e-09
-8.182e-09
9.41998e-10
-9.05614e-09
3.60462e-10
-1.0083e-08
-8.12524e-10
-1.09835e-08
-1.64601e-09
-1.13322e-08
-1.62703e-09
-1.15311e-08
-1.22668e-08
-1.72174e-09
2.68002e-11
-3.25127e-10
6.43576e-11
-1.0538e-09
1.19165e-10
-1.70132e-09
2.55635e-10
-2.24805e-09
4.31243e-10
-2.82247e-09
5.70126e-10
-3.47558e-09
6.5001e-10
-4.16374e-09
6.76926e-10
-4.85294e-09
7.00576e-10
-5.53605e-09
6.81028e-10
-6.27174e-09
5.00981e-10
-7.07512e-09
1.82751e-10
-7.86378e-09
-2.50057e-10
-8.62335e-09
-9.50075e-10
-9.38297e-09
-1.89412e-09
-1.00395e-08
-2.72412e-09
-1.05022e-08
-3.34098e-09
-1.09143e-08
-1.14601e-08
-4.14772e-09
1.28118e-11
-3.37956e-10
2.25582e-11
-1.06357e-09
3.96266e-11
-1.7184e-09
9.34812e-11
-2.30192e-09
1.53152e-10
-2.88216e-09
1.69219e-10
-3.49167e-09
1.23303e-10
-4.11784e-09
1.71732e-11
-4.74683e-09
-1.40281e-10
-5.37861e-09
-3.83271e-10
-6.02877e-09
-7.65619e-10
-6.69279e-09
-1.2889e-09
-7.34052e-09
-1.95368e-09
-7.95858e-09
-2.79621e-09
-8.54045e-09
-3.78185e-09
-9.05383e-09
-4.79969e-09
-9.48439e-09
-5.84257e-09
-9.8714e-09
-1.02597e-08
-7.04291e-09
-9.25681e-12
-3.28719e-10
-5.35327e-11
-1.01932e-09
-1.2322e-10
-1.64874e-09
-2.06476e-10
-2.21869e-09
-3.21147e-10
-2.76751e-09
-4.95126e-10
-3.31771e-09
-7.4314e-10
-3.86985e-09
-1.07021e-09
-4.41978e-09
-1.48248e-09
-4.96636e-09
-2.00121e-09
-5.51006e-09
-2.64949e-09
-6.04453e-09
-3.4323e-09
-6.55773e-09
-4.3531e-09
-7.03779e-09
-5.41044e-09
-7.48313e-09
-6.5856e-09
-7.87869e-09
-7.84605e-09
-8.22395e-09
-9.19008e-09
-8.52738e-09
-8.80242e-09
-1.06474e-08
-4.37187e-11
-2.85025e-10
-1.7561e-10
-8.87457e-10
-3.84547e-10
-1.43983e-09
-6.61974e-10
-1.94129e-09
-1.01264e-09
-2.41687e-09
-1.44841e-09
-2.88197e-09
-1.97818e-09
-3.3401e-09
-2.60732e-09
-3.79067e-09
-3.34206e-09
-4.23165e-09
-4.19215e-09
-4.65999e-09
-5.16571e-09
-5.07099e-09
-6.26451e-09
-5.45895e-09
-7.48361e-09
-5.81871e-09
-8.82033e-09
-6.14643e-09
-1.02604e-08
-6.43866e-09
-1.17897e-08
-6.69464e-09
-1.3401e-08
-6.91613e-09
-7.11057e-09
-1.50928e-08
-4.82469e-11
-2.36801e-10
-1.85717e-10
-7.50015e-10
-4.01899e-10
-1.22368e-09
-6.87789e-10
-1.65543e-09
-1.03901e-09
-2.06568e-09
-1.45685e-09
-2.46416e-09
-1.94399e-09
-2.85298e-09
-2.50188e-09
-3.23281e-09
-3.1321e-09
-3.60145e-09
-3.83694e-09
-3.95518e-09
-4.61733e-09
-4.29062e-09
-5.47179e-09
-4.60451e-09
-6.39711e-09
-4.89341e-09
-7.38846e-09
-5.15509e-09
-8.43922e-09
-5.38792e-09
-9.54203e-09
-5.59184e-09
-1.06899e-08
-5.76827e-09
-5.92237e-09
-1.18781e-08
-4.9909e-11
-1.86913e-10
-1.89559e-10
-6.1039e-10
-4.06156e-10
-1.00711e-09
-6.89792e-10
-1.37182e-09
-1.03305e-09
-1.72246e-09
-1.43482e-09
-2.06241e-09
-1.89696e-09
-2.39087e-09
-2.41921e-09
-2.71058e-09
-3.00126e-09
-3.01944e-09
-3.64358e-09
-3.31288e-09
-4.34545e-09
-3.58876e-09
-5.10395e-09
-3.84604e-09
-5.91664e-09
-4.08074e-09
-6.77925e-09
-4.2925e-09
-7.68715e-09
-4.48004e-09
-8.63488e-09
-4.64413e-09
-9.6135e-09
-4.78966e-09
-4.91805e-09
-1.06178e-08
-4.71714e-11
-1.3976e-10
-1.75818e-10
-4.81767e-10
-3.72265e-10
-8.10687e-10
-6.29132e-10
-1.11498e-09
-9.38913e-10
-1.4127e-09
-1.29984e-09
-1.70151e-09
-1.71435e-09
-1.97639e-09
-2.18145e-09
-2.2435e-09
-2.69952e-09
-2.50139e-09
-3.26838e-09
-2.74404e-09
-3.88736e-09
-2.9698e-09
-4.55038e-09
-3.18303e-09
-5.25771e-09
-3.37343e-09
-6.00634e-09
-3.5439e-09
-6.7928e-09
-3.69359e-09
-7.61568e-09
-3.82126e-09
-8.45799e-09
-3.94737e-09
-4.06741e-09
-9.30865e-09
-4.10093e-11
-9.87659e-11
-1.51129e-10
-3.71667e-10
-3.18091e-10
-6.43745e-10
-5.38756e-10
-8.94338e-10
-8.08427e-10
-1.14305e-09
-1.12387e-09
-1.38608e-09
-1.487e-09
-1.61328e-09
-1.89758e-09
-1.83293e-09
-2.35294e-09
-2.04606e-09
-2.85133e-09
-2.24568e-09
-3.39622e-09
-2.42494e-09
-3.97187e-09
-2.60741e-09
-4.58349e-09
-2.76183e-09
-5.23291e-09
-2.8945e-09
-5.91798e-09
-3.00853e-09
-6.65182e-09
-3.08744e-09
-7.39046e-09
-3.20875e-09
-3.35661e-09
-8.10128e-09
-3.1715e-11
-6.70631e-11
-1.21078e-10
-2.82321e-10
-2.59039e-10
-5.05803e-10
-4.43319e-10
-7.10077e-10
-6.75982e-10
-9.10409e-10
-9.51112e-10
-1.11098e-09
-1.26642e-09
-1.29799e-09
-1.62589e-09
-1.47349e-09
-2.02635e-09
-1.64562e-09
-2.46005e-09
-1.812e-09
-2.94583e-09
-1.93918e-09
-3.44333e-09
-2.10994e-09
-3.96552e-09
-2.23965e-09
-4.5234e-09
-2.33664e-09
-5.10995e-09
-2.42201e-09
-5.82083e-09
-2.37658e-09
-6.50532e-09
-2.52429e-09
-2.81022e-09
-7.05173e-09
-2.0467e-11
-4.6606e-11
-9.08809e-11
-2.11922e-10
-2.06317e-10
-3.90385e-10
-3.58799e-10
-5.57615e-10
-5.60263e-10
-7.08965e-10
-8.02819e-10
-8.68442e-10
-1.0755e-09
-1.02533e-09
-1.39066e-09
-1.15835e-09
-1.74485e-09
-1.29146e-09
-2.11646e-09
-1.44041e-09
-2.56804e-09
-1.48763e-09
-2.99258e-09
-1.68542e-09
-3.42292e-09
-1.80934e-09
-3.91294e-09
-1.84665e-09
-4.32194e-09
-2.01303e-09
-5.12597e-09
-1.57258e-09
-5.91377e-09
-1.73651e-09
-2.53684e-09
-6.18719e-09
-1.02664e-11
-3.63481e-11
-6.54831e-11
-1.5672e-10
-1.64689e-10
-2.91198e-10
-2.93096e-10
-4.2923e-10
-4.68728e-10
-5.33356e-10
-6.84271e-10
-6.52924e-10
-9.202e-10
-7.89426e-10
-1.19965e-09
-8.78921e-10
-1.51397e-09
-9.77166e-10
-1.81096e-09
-1.14345e-09
-2.27487e-09
-1.02375e-09
-2.64129e-09
-1.31904e-09
-2.92129e-09
-1.52936e-09
-3.45097e-09
-1.31699e-09
-3.51504e-09
-1.94899e-09
-4.49542e-09
-5.92242e-10
-5.63339e-09
-5.98575e-10
-2.59636e-09
-5.57391e-09
-4.96538e-12
-3.13913e-11
-4.95821e-11
-1.12121e-10
-1.33891e-10
-2.06912e-10
-2.48702e-10
-3.14446e-10
-4.03484e-10
-3.78601e-10
-5.92241e-10
-4.64195e-10
-7.9835e-10
-5.83346e-10
-1.05203e-09
-6.25267e-10
-1.33614e-09
-6.93087e-10
-1.52631e-09
-9.53318e-10
-2.05852e-09
-4.9157e-10
-2.40319e-09
-9.74393e-10
-2.4091e-09
-1.52348e-09
-3.17184e-09
-5.54283e-10
-2.49081e-09
-2.63005e-09
-4.26425e-09
1.18117e-09
-5.67097e-09
8.08097e-10
-3.87762e-09
-4.38975e-09
-5.24039e-12
-2.61677e-11
-4.54405e-11
-7.19528e-11
-1.13198e-10
-1.39191e-10
-2.23151e-10
-2.04534e-10
-3.61396e-10
-2.40394e-10
-5.15446e-10
-3.10183e-10
-7.10711e-10
-3.88119e-10
-9.33313e-10
-4.02704e-10
-1.18202e-09
-4.44417e-10
-1.26156e-09
-8.73818e-10
-1.94777e-09
1.94596e-10
-2.21134e-09
-7.10861e-10
-1.90853e-09
-1.82632e-09
-3.45272e-09
9.89877e-10
-1.22297e-09
-4.85984e-09
-3.38278e-09
3.34094e-09
-5.96511e-09
3.39038e-09
-6.93825e-09
-2.90453e-09
-1.04004e-11
-1.57955e-11
-4.67312e-11
-3.5666e-11
-9.86427e-11
-8.73272e-11
-2.02652e-10
-1.00576e-10
-3.15475e-10
-1.27619e-10
-4.41487e-10
-1.84218e-10
-6.77453e-10
-1.522e-10
-8.15136e-10
-2.65069e-10
-1.05651e-09
-2.03092e-10
-1.39698e-09
-5.33397e-10
-1.0097e-09
-1.92733e-10
-1.95097e-09
2.30374e-10
-3.44118e-09
-3.36154e-10
-1.46934e-09
-9.82003e-10
-9.26209e-09
2.93287e-09
6.73246e-10
-6.59444e-09
8.94658e-09
-4.88301e-09
7.80207e-09
-5.79381e-09
-1.57987e-11
-5.14686e-11
-1.388e-10
-2.39381e-10
-3.67005e-10
-5.51228e-10
-7.03434e-10
-9.68509e-10
-1.17161e-09
-1.70501e-09
-1.89775e-09
-1.66738e-09
-2.00354e-09
-2.98556e-09
-5.26969e-11
-6.64715e-09
-1.15302e-08
-3.72812e-09
6.2823e-07
-6.2823e-07
1.26035e-06
-6.32121e-07
1.74409e-06
-4.83743e-07
2.06971e-06
-3.25619e-07
2.23533e-06
-1.65622e-07
2.23964e-06
-4.30835e-09
2.10034e-06
1.39302e-07
1.8077e-06
2.92638e-07
1.3777e-06
4.29998e-07
8.514e-07
5.26304e-07
2.71088e-07
5.80312e-07
-3.07809e-07
5.78896e-07
-8.34347e-07
5.26538e-07
-1.26486e-06
4.30509e-07
-1.57642e-06
3.11565e-07
-1.75612e-06
1.797e-07
-1.78784e-06
3.17231e-08
-1.66798e-06
-1.19866e-07
-1.38957e-06
-2.78413e-07
-8.99303e-07
-4.90263e-07
-1.97595e-07
-7.01708e-07
4.0282e-07
-6.00415e-07
8.71992e-07
-4.69173e-07
1.34043e-06
-4.68436e-07
1.72726e-06
-3.86832e-07
1.84396e-06
-1.16702e-07
1.6913e-06
1.52659e-07
1.21938e-06
4.71918e-07
4.5439e-07
7.64994e-07
-3.62912e-07
8.17302e-07
-9.97328e-07
6.34416e-07
-1.26854e-06
2.71212e-07
-1.31367e-06
4.51278e-08
-1.16959e-06
-1.44077e-07
-5.21436e-07
-6.48157e-07
1.05706e-07
-6.27141e-07
5.46616e-07
-4.4091e-07
1.45928e-06
-9.12664e-07
2.76811e-06
-1.30883e-06
3.20719e-06
-4.39083e-07
3.19388e-06
1.3313e-08
3.11557e-06
7.83077e-08
2.96952e-06
1.46057e-07
2.80213e-06
1.6739e-07
2.6247e-06
1.77431e-07
2.44919e-06
1.75507e-07
2.28256e-06
1.66632e-07
2.12914e-06
1.53415e-07
1.98923e-06
1.39909e-07
1.8642e-06
1.25032e-07
1.75305e-06
1.11152e-07
1.65413e-06
9.89133e-08
1.56597e-06
8.81581e-08
1.487e-06
7.89703e-08
1.41591e-06
7.10905e-08
1.35149e-06
6.44216e-08
1.29279e-06
5.87034e-08
1.23965e-06
5.31423e-08
1.1925e-06
4.71495e-08
1.1496e-06
4.28917e-08
1.10973e-06
3.9873e-08
1.07237e-06
3.73659e-08
1.03666e-06
3.5709e-08
1.00246e-06
3.41978e-08
9.69264e-07
3.31942e-08
9.36996e-07
3.22676e-08
9.05362e-07
3.16334e-08
8.74317e-07
3.10455e-08
8.43695e-07
3.06219e-08
8.13473e-07
3.02219e-08
7.83565e-07
2.9907e-08
7.53969e-07
2.95961e-08
7.24649e-07
2.93203e-08
6.95615e-07
2.9033e-08
6.66864e-07
2.87507e-08
6.38417e-07
2.84472e-08
6.10284e-07
2.81332e-08
5.82487e-07
2.7796e-08
5.55043e-07
2.74445e-08
5.27967e-07
2.70752e-08
5.01271e-07
2.6696e-08
4.74963e-07
2.63073e-08
4.49048e-07
2.59145e-08
4.2353e-07
2.55183e-08
3.98407e-07
2.51228e-08
3.73676e-07
2.47301e-08
3.49329e-07
2.43469e-08
3.25352e-07
2.39773e-08
3.01729e-07
2.36219e-08
2.78452e-07
2.32774e-08
2.55512e-07
2.2939e-08
2.32908e-07
2.26038e-08
2.10632e-07
2.2275e-08
1.88671e-07
2.19601e-08
1.67003e-07
2.16677e-08
1.45596e-07
2.14058e-08
1.24406e-07
2.11891e-08
1.03402e-07
2.10036e-08
8.26318e-08
2.07691e-08
6.11574e-08
2.14733e-08
4.52047e-08
1.59516e-08
2.74606e-08
1.77429e-08
9.73724e-09
1.77221e-08
-7.03443e-09
1.67704e-08
-2.34305e-08
1.63948e-08
-3.92578e-08
1.58261e-08
-5.46758e-08
1.54169e-08
-6.96343e-08
1.49573e-08
-8.41766e-08
1.45414e-08
-9.82982e-08
1.41207e-08
-1.12016e-07
1.37169e-08
-1.25337e-07
1.332e-08
-1.38272e-07
1.29351e-08
-1.50832e-07
1.25594e-08
-1.63027e-07
1.2194e-08
-1.74866e-07
1.18382e-08
-1.86358e-07
1.14917e-08
-1.97512e-07
1.11542e-08
-2.08337e-07
1.08247e-08
-2.1884e-07
1.05023e-08
-2.29025e-07
1.01845e-08
-2.38895e-07
9.86961e-09
-2.4845e-07
9.55445e-09
-2.57684e-07
9.23347e-09
-2.6658e-07
8.89598e-09
-2.75098e-07
8.51754e-09
-2.83103e-07
8.00498e-09
-2.90597e-07
7.49361e-09
-2.9748e-07
6.88321e-09
-3.03121e-07
5.64078e-09
-3.10466e-07
7.34568e-09
-3.18285e-07
7.81901e-09
-3.24403e-07
6.11866e-09
-3.30436e-07
6.03295e-09
-3.35839e-07
5.40324e-09
-3.40863e-07
5.02492e-09
-3.45393e-07
4.53059e-09
-3.49427e-07
4.03473e-09
-3.52915e-07
3.48814e-09
-3.55823e-07
2.90894e-09
-3.58114e-07
2.29133e-09
-3.59732e-07
1.61871e-09
-3.60629e-07
8.96499e-10
-3.60748e-07
1.19664e-10
-3.60032e-07
-7.15576e-10
-3.58415e-07
-1.61658e-09
-3.55808e-07
-2.60699e-09
-3.52105e-07
-3.70295e-09
-3.47151e-07
-4.95388e-09
-3.40738e-07
-6.41343e-09
-3.32631e-07
-8.10645e-09
-3.2263e-07
-1.00013e-08
-3.10567e-07
-1.20624e-08
-2.96365e-07
-1.42025e-08
-2.79971e-07
-1.6394e-08
-2.61349e-07
-1.86214e-08
-2.4046e-07
-2.08888e-08
-2.17248e-07
-2.32127e-08
-1.91632e-07
-2.5616e-08
-1.63495e-07
-2.81366e-08
-1.32668e-07
-3.08269e-08
-9.89052e-08
-3.37626e-08
-6.19416e-08
-3.69635e-08
-2.15685e-08
-4.03729e-08
2.23617e-08
-4.39301e-08
6.99409e-08
-4.75791e-08
1.21235e-07
-5.12943e-08
1.76311e-07
-5.50757e-08
2.3523e-07
-5.89185e-08
2.98023e-07
-6.27933e-08
3.64653e-07
-6.66299e-08
4.3497e-07
-7.03167e-08
5.08654e-07
-7.36832e-08
5.85536e-07
-7.68822e-08
6.63624e-07
-7.80878e-08
7.44261e-07
-8.06365e-08
8.1961e-07
-7.53486e-08
8.86745e-07
-6.71352e-08
9.63901e-07
-7.71558e-08
-6.72912e-09
9.7063e-07
7.07185e-08
-6.98949e-07
3.121e-07
-8.73503e-07
4.97258e-07
-6.68902e-07
5.71501e-07
-3.99861e-07
5.38513e-07
-1.32634e-07
4.32809e-07
1.01396e-07
2.07119e-07
3.64992e-07
-1.34254e-07
6.34011e-07
-5.66799e-07
8.62542e-07
-1.05152e-06
1.01102e-06
-1.53543e-06
1.06423e-06
-1.98316e-06
1.02662e-06
-2.36379e-06
9.07173e-07
-2.65368e-06
7.20393e-07
-2.83727e-06
4.9516e-07
-2.9185e-06
2.60928e-07
-2.90724e-06
2.04663e-08
-2.79785e-06
-2.29263e-07
-2.59828e-06
-4.77976e-07
-2.36521e-06
-7.23333e-07
-2.11089e-06
-9.56031e-07
-1.61455e-06
-1.09675e-06
-9.24684e-07
-1.15904e-06
-2.75604e-07
-1.11752e-06
2.44043e-07
-9.06478e-07
6.38915e-07
-5.11575e-07
7.98465e-07
-6.89067e-09
6.63258e-07
6.07126e-07
3.1516e-07
1.11309e-06
-1.42271e-08
1.14669e-06
-1.61623e-07
7.81812e-07
3.7699e-08
7.189e-08
6.53921e-07
-5.71094e-07
1.34469e-06
-8.34843e-07
1.94503e-06
-1.2485e-06
2.70847e-06
-1.39058e-06
3.17118e-06
-9.03619e-07
2.86869e-06
-6.10175e-07
2.10715e-06
-5.47283e-07
1.88372e-06
-2.15655e-07
1.87107e-06
2.59572e-08
1.79692e-06
1.52463e-07
1.70689e-06
2.36089e-07
1.60871e-06
2.65566e-07
1.51304e-06
2.73096e-07
1.4265e-06
2.62051e-07
1.34919e-06
2.43941e-07
1.2815e-06
2.21109e-07
1.2229e-06
1.98508e-07
1.17096e-06
1.76966e-07
1.12483e-06
1.57286e-07
1.08363e-06
1.4011e-07
1.04647e-06
1.25319e-07
1.01271e-06
1.12733e-07
9.81757e-07
1.02043e-07
9.53083e-07
9.30951e-08
9.26409e-07
8.53769e-08
9.0106e-07
7.84916e-08
8.75769e-07
7.24401e-08
8.50829e-07
6.78312e-08
8.26473e-07
6.42295e-08
8.02488e-07
6.13509e-08
7.7899e-07
5.92066e-08
7.55693e-07
5.74947e-08
7.32651e-07
5.62355e-08
7.09675e-07
5.52435e-08
6.8679e-07
5.45183e-08
6.63886e-07
5.39497e-08
6.40981e-07
5.35261e-08
6.18023e-07
5.31797e-08
5.95035e-07
5.28957e-08
5.72e-07
5.26309e-08
5.48947e-07
5.23723e-08
5.25887e-07
5.20932e-08
5.02852e-07
5.17852e-08
4.79865e-07
5.14342e-08
4.5696e-07
5.10379e-08
4.34163e-07
5.05927e-08
4.11505e-07
5.01024e-08
3.89009e-07
4.95707e-08
3.667e-07
4.90051e-08
3.44595e-07
4.84119e-08
3.2271e-07
4.77987e-08
3.01057e-07
4.71717e-08
2.79642e-07
4.65374e-08
2.5847e-07
4.59018e-08
2.37546e-07
4.52706e-08
2.16875e-07
4.46476e-08
1.96464e-07
4.4033e-08
1.76318e-07
4.34232e-08
1.56445e-07
4.28116e-08
1.36855e-07
4.21924e-08
1.17567e-07
4.15628e-08
9.86026e-08
4.09238e-08
7.99911e-08
4.02785e-08
6.1779e-08
3.96171e-08
4.40714e-08
3.88959e-08
2.6937e-08
3.8137e-08
9.95779e-09
3.77473e-08
-2.46626e-09
3.38963e-08
-2.21964e-08
3.56805e-08
-3.87606e-08
3.4306e-08
-5.45736e-08
3.35339e-08
-7.04417e-08
3.26374e-08
-8.58787e-08
3.18305e-08
-1.01008e-07
3.09544e-08
-1.15725e-07
3.01324e-08
-1.30071e-07
2.9303e-08
-1.44033e-07
2.85021e-08
-1.57627e-07
2.7714e-08
-1.70859e-07
2.6948e-08
-1.83741e-07
2.62012e-08
-1.96282e-07
2.54758e-08
-2.08494e-07
2.47702e-08
-2.20385e-07
2.40852e-08
-2.31968e-07
2.34202e-08
-2.43251e-07
2.27747e-08
-2.54245e-07
2.21478e-08
-2.64959e-07
2.15382e-08
-2.75401e-07
2.09437e-08
-2.85577e-07
2.03601e-08
-2.95491e-07
1.97837e-08
-3.05148e-07
1.92104e-08
-3.14549e-07
1.86341e-08
-3.23699e-07
1.80466e-08
-3.32615e-07
1.74329e-08
-3.41388e-07
1.67778e-08
-3.50042e-07
1.61472e-08
-3.58647e-07
1.54881e-08
-3.67817e-07
1.48106e-08
-3.75557e-07
1.50859e-08
-3.82467e-07
1.47301e-08
-3.8998e-07
1.36318e-08
-3.96937e-07
1.29896e-08
-4.03709e-07
1.21765e-08
-4.10133e-07
1.14485e-08
-4.16226e-07
1.06251e-08
-4.21932e-07
9.74046e-09
-4.27231e-07
8.78834e-09
-4.32095e-07
7.77269e-09
-4.36478e-07
6.67526e-09
-4.40344e-07
5.48461e-09
-4.43645e-07
4.19864e-09
-4.46337e-07
2.81209e-09
-4.48373e-07
1.31988e-09
-4.49699e-07
-2.90155e-10
-4.50257e-07
-2.04926e-09
-4.49973e-07
-3.98678e-09
-4.48728e-07
-6.19849e-09
-4.46338e-07
-8.80297e-09
-4.42591e-07
-1.18533e-08
-4.37261e-07
-1.53315e-08
-4.30196e-07
-1.91278e-08
-4.21291e-07
-2.31075e-08
-4.10486e-07
-2.71984e-08
-3.97737e-07
-3.13705e-08
-3.82995e-07
-3.56314e-08
-3.66196e-07
-4.0011e-08
-3.47259e-07
-4.45531e-08
-3.26068e-07
-4.93278e-08
-3.02461e-07
-5.4434e-08
-2.76201e-07
-6.00222e-08
-2.47018e-07
-6.61466e-08
-2.14682e-07
-7.27083e-08
-1.79026e-07
-7.95862e-08
-1.39938e-07
-8.66666e-08
-9.735e-08
-9.38825e-08
-5.12095e-08
-1.01216e-07
-1.44762e-09
-1.0868e-07
5.19797e-08
-1.16221e-07
1.09068e-07
-1.23718e-07
1.69763e-07
-1.31012e-07
2.33898e-07
-1.37818e-07
3.0102e-07
-1.44003e-07
3.70758e-07
-1.47826e-07
4.41327e-07
-1.51205e-07
5.14038e-07
-1.48059e-07
5.85799e-07
-1.38896e-07
6.3971e-07
-1.31067e-07
-6.74661e-08
7.00447e-07
-3.63009e-07
-3.35941e-07
-5.60198e-07
-6.76313e-07
-6.51329e-07
-5.77771e-07
-7.28732e-07
-3.22459e-07
-8.52969e-07
-8.39663e-09
-1.10601e-06
3.54436e-07
-1.46823e-06
7.2721e-07
-1.89594e-06
1.06172e-06
-2.3247e-06
1.29131e-06
-2.70215e-06
1.38848e-06
-2.99362e-06
1.3557e-06
-3.18881e-06
1.22181e-06
-3.2987e-06
1.01706e-06
-3.34289e-06
7.64579e-07
-3.33644e-06
4.88716e-07
-3.28427e-06
2.08752e-07
-3.19276e-06
-7.10438e-08
-3.06927e-06
-3.5275e-07
-2.91944e-06
-6.27806e-07
-2.75043e-06
-8.92346e-07
-2.5693e-06
-1.13716e-06
-2.33655e-06
-1.3295e-06
-2.0456e-06
-1.44999e-06
-1.69799e-06
-1.46512e-06
-1.2879e-06
-1.31657e-06
-8.4612e-07
-9.53357e-07
-4.90656e-07
-3.62355e-07
-2.44454e-07
3.60924e-07
4.61173e-08
8.2252e-07
5.64796e-07
6.2801e-07
1.3244e-06
2.22089e-08
2.04126e-06
-6.44974e-07
2.61842e-06
-1.14825e-06
2.85343e-06
-1.06985e-06
2.49974e-06
-8.94815e-07
1.90042e-06
-7.91261e-07
1.55289e-06
-5.56091e-07
1.33221e-06
-3.89493e-07
1.03139e-06
-2.4646e-07
8.62902e-07
-4.71711e-08
8.07542e-07
8.13163e-08
7.90839e-07
1.69166e-07
8.02864e-07
2.24064e-07
8.20676e-07
2.47754e-07
8.39534e-07
2.54237e-07
8.54618e-07
2.46967e-07
8.65121e-07
2.33438e-07
8.70195e-07
2.16035e-07
8.70703e-07
1.98001e-07
8.67241e-07
1.80428e-07
8.60444e-07
1.64083e-07
8.51098e-07
1.49456e-07
8.39876e-07
1.36542e-07
8.27305e-07
1.25303e-07
8.137e-07
1.15647e-07
7.9933e-07
1.07465e-07
7.84281e-07
1.00426e-07
7.68403e-07
9.43696e-08
7.516e-07
8.92424e-08
7.34287e-07
8.51446e-08
7.1662e-07
8.18959e-08
6.9861e-07
7.9361e-08
6.80372e-07
7.74443e-08
6.61859e-07
7.6007e-08
6.43117e-07
7.49779e-08
6.24105e-07
7.42553e-08
6.04841e-07
7.37817e-08
5.85306e-07
7.34849e-08
5.65514e-07
7.33179e-08
5.45466e-07
7.32279e-08
5.25184e-07
7.31777e-08
5.04686e-07
7.31287e-08
4.84004e-07
7.30537e-08
4.6317e-07
7.2927e-08
4.42223e-07
7.2732e-08
4.21202e-07
7.24554e-08
4.00148e-07
7.20918e-08
3.791e-07
7.16402e-08
3.58096e-07
7.11057e-08
3.37171e-07
7.04962e-08
3.16353e-07
6.98224e-08
2.95669e-07
6.90953e-08
2.75141e-07
6.83266e-08
2.54786e-07
6.75271e-08
2.34615e-07
6.67078e-08
2.14638e-07
6.58785e-08
1.94861e-07
6.50474e-08
1.75289e-07
6.42195e-08
1.55925e-07
6.33959e-08
1.36775e-07
6.25728e-08
1.17844e-07
6.17426e-08
9.91402e-08
6.08957e-08
8.06787e-08
6.00236e-08
6.24821e-08
5.91199e-08
4.45818e-08
5.81781e-08
2.70135e-08
5.71846e-08
9.78049e-09
5.6128e-08
-7.12813e-09
5.50448e-08
-2.33168e-08
5.39351e-08
-4.13754e-08
5.19539e-08
-5.69495e-08
5.12536e-08
-7.28253e-08
5.01808e-08
-8.83166e-08
4.90242e-08
-1.03512e-07
4.78314e-08
-1.18331e-07
4.66487e-08
-1.32819e-07
4.5441e-08
-1.46944e-07
4.42567e-08
-1.60723e-07
4.30818e-08
-1.74156e-07
4.1934e-08
-1.87254e-07
4.0811e-08
-2.00025e-07
3.97183e-08
-2.1248e-07
3.86559e-08
-2.2463e-07
3.7625e-08
-2.36485e-07
3.66251e-08
-2.48057e-07
3.56567e-08
-2.59357e-07
3.47194e-08
-2.70396e-07
3.38129e-08
-2.81184e-07
3.2936e-08
-2.91733e-07
3.20869e-08
-3.02053e-07
3.1263e-08
-3.12152e-07
3.04592e-08
-3.22039e-07
2.96703e-08
-3.31721e-07
2.8892e-08
-3.41205e-07
2.8118e-08
-3.50501e-07
2.7342e-08
-3.59625e-07
2.65568e-08
-3.68613e-07
2.57658e-08
-3.77468e-07
2.50017e-08
-3.86225e-07
2.42455e-08
-3.94979e-07
2.35645e-08
-4.03111e-07
2.32179e-08
-4.10918e-07
2.2537e-08
-4.18813e-07
2.15278e-08
-4.26461e-07
2.06373e-08
-4.33949e-07
1.96656e-08
-4.41201e-07
1.87007e-08
-4.48214e-07
1.76383e-08
-4.54953e-07
1.64802e-08
-4.61393e-07
1.52287e-08
-4.67504e-07
1.38845e-08
-4.73254e-07
1.24252e-08
-4.78606e-07
1.08378e-08
-4.83523e-07
9.11507e-09
-4.87961e-07
7.25075e-09
-4.9188e-07
5.23942e-09
-4.9524e-07
3.06965e-09
-4.98003e-07
7.14245e-10
-5.00121e-07
-1.86911e-09
-5.01502e-07
-4.81778e-09
-5.01997e-07
-8.30723e-09
-5.0141e-07
-1.2441e-08
-4.99526e-07
-1.72149e-08
-4.96194e-07
-2.24601e-08
-4.91305e-07
-2.79966e-08
-4.84791e-07
-3.37117e-08
-4.76601e-07
-3.95606e-08
-4.6668e-07
-4.55527e-08
-4.54962e-07
-5.17286e-08
-4.41367e-07
-5.81484e-08
-4.25787e-07
-6.49075e-08
-4.08075e-07
-7.21458e-08
-3.88008e-07
-8.00893e-08
-3.65321e-07
-8.88337e-08
-3.39785e-07
-9.82443e-08
-3.11225e-07
-1.08146e-07
-2.79519e-07
-1.18372e-07
-2.44589e-07
-1.28813e-07
-2.0638e-07
-1.39425e-07
-1.64823e-07
-1.50237e-07
-1.19879e-07
-1.61164e-07
-7.15232e-08
-1.72074e-07
-1.97574e-08
-1.82777e-07
3.53124e-08
-1.92888e-07
9.33336e-08
-2.02024e-07
1.54127e-07
-2.08619e-07
2.16307e-07
-2.13386e-07
2.80434e-07
-2.12186e-07
3.44688e-07
-2.03149e-07
4.01821e-07
-1.882e-07
-1.32553e-07
4.66908e-07
-2.28969e-07
-1.06972e-07
-4.94222e-07
-4.1106e-07
-6.92438e-07
-3.79556e-07
-9.71485e-07
-4.34115e-08
-1.39662e-06
4.16734e-07
-1.92694e-06
8.84755e-07
-2.46292e-06
1.2632e-06
-2.89854e-06
1.49733e-06
-3.18068e-06
1.57345e-06
-3.30458e-06
1.51238e-06
-3.30185e-06
1.35297e-06
-3.215e-06
1.13495e-06
-3.08542e-06
8.8748e-07
-2.94721e-06
6.26376e-07
-2.81833e-06
3.59829e-07
-2.70076e-06
9.11834e-08
-2.59254e-06
-1.79257e-07
-2.49283e-06
-4.52462e-07
-2.39419e-06
-7.26447e-07
-2.29142e-06
-9.95115e-07
-2.17888e-06
-1.24971e-06
-2.03429e-06
-1.47409e-06
-1.84087e-06
-1.6434e-06
-1.58606e-06
-1.71994e-06
-1.24991e-06
-1.65272e-06
-8.40082e-07
-1.36318e-06
-4.47214e-07
-7.55223e-07
1.84545e-08
-1.04745e-07
7.42407e-07
9.85669e-08
1.55805e-06
-1.87632e-07
2.17421e-06
-5.93955e-07
2.28437e-06
-7.55128e-07
1.90646e-06
-7.70345e-07
1.51798e-06
-6.81371e-07
1.19859e-06
-5.75422e-07
8.77855e-07
-4.70531e-07
6.51298e-07
-3.29534e-07
4.89715e-07
-2.27911e-07
3.71499e-07
-1.28244e-07
3.39177e-07
-1.48497e-08
3.53524e-07
6.69695e-08
3.95059e-07
1.27631e-07
4.51491e-07
1.67631e-07
5.09057e-07
1.90189e-07
5.62675e-07
2.00618e-07
6.08073e-07
2.01569e-07
6.44661e-07
1.9685e-07
6.72271e-07
1.88425e-07
6.91934e-07
1.78338e-07
7.04786e-07
1.67576e-07
7.11958e-07
1.56911e-07
7.14601e-07
1.46812e-07
7.13603e-07
1.3754e-07
7.09688e-07
1.29218e-07
7.03435e-07
1.219e-07
6.95345e-07
1.15555e-07
6.857e-07
1.10071e-07
6.7468e-07
1.05389e-07
6.6245e-07
1.01472e-07
6.49279e-07
9.83159e-08
6.35337e-07
9.5838e-08
6.20737e-07
9.39603e-08
6.05579e-07
9.26028e-08
5.89906e-07
9.16791e-08
5.73767e-07
9.11171e-08
5.5718e-07
9.0842e-08
5.40171e-07
9.07911e-08
5.22754e-07
9.09018e-08
5.04951e-07
9.11203e-08
4.86784e-07
9.13947e-08
4.68281e-07
9.16803e-08
4.49474e-07
9.19361e-08
4.30399e-07
9.21282e-08
4.11098e-07
9.22284e-08
3.91614e-07
9.22157e-08
3.71993e-07
9.20756e-08
3.52283e-07
9.18015e-08
3.32529e-07
9.13943e-08
3.12773e-07
9.08619e-08
2.93051e-07
9.02173e-08
2.73398e-07
8.94755e-08
2.53841e-07
8.86521e-08
2.34405e-07
8.77627e-08
2.15108e-07
8.68229e-08
1.95968e-07
8.58483e-08
1.76993e-07
8.48534e-08
1.58189e-07
8.38506e-08
1.3956e-07
8.28481e-08
1.21107e-07
8.1849e-08
1.0283e-07
8.085e-08
8.47299e-08
7.98418e-08
6.68144e-08
7.88107e-08
4.90948e-08
7.77426e-08
3.15886e-08
7.66256e-08
1.43175e-08
7.54484e-08
-2.69816e-09
7.41996e-08
-1.94463e-08
7.28754e-08
-3.58933e-08