/*--------------------------------*- C++ -*----------------------------------*\
| =========                 |                                                 |
| \\      /  F ield         | OpenFOAM: The Open Source CFD Toolbox           |
|  \\    /   O peration     | Version:  2112                                  |
|   \\  /    A nd           | Website:  www.openfoam.com                      |
|    \\/     M anipulation  |                                                 |
\*---------------------------------------------------------------------------*/
FoamFile
{
    version     2.0;
    format      ascii;
    arch        "LSB;label=32;scalar=64";
    class       volScalarField;
    location    "0.22";
    object      nut;
}
// * * * * * * * * * * * * * * * * * * * * * * * * * * * * * * * * * * * * * //

dimensions      [0 2 -1 0 0 0 0];

internalField   nonuniform List<scalar> 
12225
(
5.32134e-06
8.10062e-06
1.009e-05
1.13572e-05
1.21019e-05
1.24772e-05
1.2615e-05
1.26718e-05
1.26142e-05
1.24964e-05
1.23754e-05
1.2216e-05
1.20935e-05
1.19235e-05
1.18242e-05
1.16554e-05
1.15843e-05
1.14052e-05
0.000146081
6.40029e-05
4.56819e-05
3.7822e-05
3.36685e-05
3.12605e-05
2.98121e-05
2.89731e-05
2.8456e-05
2.83684e-05
2.83131e-05
2.86563e-05
2.89265e-05
2.95449e-05
3.00197e-05
3.08712e-05
3.14675e-05
3.19665e-05
0.00106147
0.000405187
0.000258486
0.000192363
0.000156136
0.00013218
0.000116505
0.000104591
9.61247e-05
8.91639e-05
8.4195e-05
7.96788e-05
7.66612e-05
7.37071e-05
7.1868e-05
6.96709e-05
6.90014e-05
6.74018e-05
0.00312732
0.00137563
0.000888779
0.000657907
0.000530198
0.000443136
0.000386474
0.000341625
0.000310369
0.000283176
0.000264231
0.000245768
0.000233511
0.000219808
0.00021173
0.000202831
0.000196468
0.000186222
0.00425192
0.00294373
0.00199997
0.00151309
0.00123219
0.00103703
0.000906911
0.000803178
0.000729372
0.00066547
0.000619678
0.000576075
0.000544867
0.000512228
0.000493694
0.000470449
0.000449104
0.000430039
0.00479193
0.00476488
0.00344937
0.00269826
0.0022369
0.00190963
0.00168242
0.00150154
0.00136798
0.00125427
0.00116902
0.00109005
0.00103025
0.000972747
0.000936264
0.000888322
0.000850641
0.000818351
0.00555091
0.00647153
0.00499847
0.00406499
0.0034474
0.00299581
0.00266756
0.00240531
0.00220407
0.00203464
0.0019016
0.00178156
0.00168714
0.00160031
0.00153694
0.0014601
0.00141015
0.0013538
0.00668275
0.00767765
0.00641428
0.00543777
0.00473321
0.0041953
0.00378503
0.00345282
0.00318858
0.00296608
0.00278448
0.00262381
0.00249286
0.00237453
0.00227948
0.00217729
0.00211066
0.00202774
0.00824436
0.00858807
0.00754847
0.0066663
0.00596397
0.00539703
0.00494212
0.00456498
0.00425455
0.00399042
0.00376817
0.00357299
0.00340855
0.00326084
0.00313583
0.00301285
0.00292388
0.00281775
0.00941488
0.00903953
0.00836035
0.00765823
0.00703701
0.00650118
0.00604725
0.00565847
0.00532725
0.00504023
0.00479235
0.00457374
0.00438424
0.00421404
0.00406556
0.0039261
0.00381513
0.00369079
0.00944297
0.00926662
0.00888287
0.00838545
0.00789346
0.00743605
0.00702516
0.00665886
0.00633525
0.00604795
0.00579352
0.0055662
0.00536439
0.00518208
0.00501957
0.00486954
0.00474217
0.00460632
0.00945502
0.00936826
0.0091589
0.00882883
0.00846504
0.00810092
0.00775478
0.00743312
0.0071388
0.00687056
0.0066273
0.00640627
0.00620615
0.00602355
0.00585806
0.00570541
0.00557082
0.00543139
0.00946096
0.00942053
0.00931608
0.00911939
0.00887328
0.00860644
0.00833673
0.00807414
0.00782446
0.00758998
0.00737171
0.00716929
0.00698232
0.00680938
0.00665005
0.00650217
0.00636813
0.00623173
0.00946395
0.00944752
0.00940269
0.00930793
0.00916565
0.00899615
0.00881165
0.00862126
0.0084314
0.00824609
0.00806787
0.00789804
0.00773733
0.00758577
0.00744343
0.00730962
0.00718534
0.00706007
0.00946565
0.00945919
0.00944309
0.0094072
0.00934098
0.009252
0.00914598
0.00902844
0.00890412
0.00877671
0.00864901
0.00852298
0.00840002
0.00828099
0.0081665
0.00805677
0.00795236
0.0078472
0.00946628
0.00946384
0.0094585
0.00944744
0.00942531
0.00938862
0.00934002
0.00928127
0.00921448
0.00914171
0.00906487
0.00898553
0.008905
0.00882431
0.00874427
0.00866547
0.0085884
0.00851016
0.0094662
0.00946543
0.00946391
0.00946046
0.00945475
0.00944444
0.00942747
0.00940467
0.00937627
0.00934283
0.00930506
0.00926371
0.0092195
0.00917314
0.00912524
0.00907634
0.00902686
0.00897583
0.00946613
0.00946552
0.00946498
0.0094641
0.00946182
0.00945864
0.00945348
0.00944496
0.00943296
0.0094176
0.00939895
0.00937721
0.00935267
0.00932567
0.00929657
0.00926572
0.00923346
0.00919978
0.00946614
0.00946532
0.00946431
0.00946186
0.00945795
0.00945187
0.00944206
0.00942813
0.0094103
0.00938873
0.00936367
0.0093355
0.00930464
0.00927151
0.00923653
0.0092001
0.00916262
0.00912505
0.00946619
0.00946334
0.00945736
0.00944598
0.0094248
0.00939124
0.00934759
0.00929513
0.00923553
0.00917045
0.00910144
0.00902985
0.0089568
0.00888322
0.00880984
0.00873723
0.00866584
0.0085976
0.00946484
0.0094549
0.00943057
0.0093801
0.00929851
0.0091952
0.00907622
0.00894728
0.00881301
0.00867701
0.00854186
0.00840938
0.00828079
0.00815687
0.00803803
0.00792455
0.00781626
0.00771611
0.00946031
0.00941957
0.0093221
0.0091467
0.00892961
0.00869171
0.0084476
0.00820701
0.00797535
0.00775572
0.00754931
0.00735652
0.00717695
0.0070101
0.00685503
0.00671124
0.00657689
0.00645635
0.00944205
0.00928503
0.00896168
0.00854237
0.00811071
0.00769884
0.00731863
0.00697451
0.00666478
0.00638737
0.00613833
0.00591493
0.0057135
0.00553199
0.00536714
0.00521827
0.00508064
0.00496109
0.00936865
0.00884967
0.00807462
0.00734097
0.006702
0.00616432
0.00571088
0.00532974
0.00500458
0.00472713
0.00448636
0.00427782
0.00409385
0.00393272
0.00378807
0.00366124
0.00354348
0.00344515
0.00909039
0.00771478
0.00644708
0.00551027
0.00481065
0.00428399
0.00387007
0.0035436
0.00327492
0.00305555
0.00286855
0.00271231
0.00257518
0.00245925
0.00235428
0.00226615
0.00218209
0.00211553
0.00811781
0.00561969
0.00421061
0.00338011
0.00283205
0.00245527
0.00217221
0.00196109
0.00178972
0.00165619
0.00154173
0.00145057
0.00136875
0.00130334
0.00124168
0.00119337
0.00114461
0.00110865
0.00568883
0.00297912
0.00201621
0.00154482
0.0012583
0.00107347
0.000937395
0.000840622
0.000761522
0.000702948
0.000651255
0.000612581
0.000576081
0.000549082
0.000521801
0.000502267
0.000480936
0.000466506
0.00224775
0.000930464
0.000602492
0.000455339
0.000369056
0.000314842
0.000275369
0.000247947
0.000225476
0.00020931
0.000194813
0.000184393
0.000174261
0.000167146
0.000159677
0.000154625
0.000148909
0.000145228
0.000325466
0.000142513
9.90141e-05
7.90388e-05
6.76315e-05
6.04385e-05
5.54613e-05
5.19991e-05
4.94016e-05
4.75266e-05
4.60569e-05
4.50116e-05
4.41602e-05
4.36237e-05
4.3132e-05
4.29016e-05
4.26977e-05
4.26686e-05
6.00632e-06
8.01633e-06
9.67434e-06
1.09722e-05
1.1948e-05
1.26605e-05
1.3168e-05
1.35221e-05
1.37604e-05
1.39159e-05
1.39988e-05
1.4056e-05
1.40755e-05
1.40683e-05
1.40461e-05
1.40118e-05
1.39716e-05
1.39246e-05
9.17752e-09
2.69687e-07
4.46943e-07
5.68413e-07
6.46752e-07
6.96366e-07
7.35894e-07
7.87437e-07
8.65296e-07
9.49706e-07
1.03698e-06
1.09978e-06
1.13534e-06
1.15412e-06
1.14185e-06
1.06868e-06
8.667e-07
7.16072e-07
5.84531e-07
4.1176e-07
2.32362e-07
1.69696e-07
1.92509e-07
2.52709e-07
3.01879e-07
3.3424e-07
3.78677e-07
4.89255e-07
7.16343e-07
1.02143e-06
1.15889e-06
1.10344e-06
9.25305e-07
7.68285e-07
5.98403e-07
4.54654e-07
4.70158e-07
5.90929e-07
1.38671e-06
5.03134e-06
8.80782e-06
1.18157e-05
1.43453e-05
1.65125e-05
1.8432e-05
2.01546e-05
2.17307e-05
2.24035e-05
2.3013e-05
2.35863e-05
2.4142e-05
2.46861e-05
2.52304e-05
2.57776e-05
2.63355e-05
2.69069e-05
2.75004e-05
2.8119e-05
2.87729e-05
2.94553e-05
3.01081e-05
3.07729e-05
3.14217e-05
3.2074e-05
3.27166e-05
3.33586e-05
3.39939e-05
3.46267e-05
3.52542e-05
3.58784e-05
3.6498e-05
3.71139e-05
3.77257e-05
3.83338e-05
3.8938e-05
3.95387e-05
4.01359e-05
4.07296e-05
4.13199e-05
4.1907e-05
4.24909e-05
4.30717e-05
4.36494e-05
4.4224e-05
4.47955e-05
4.53641e-05
4.59295e-05
4.64918e-05
4.70509e-05
4.76067e-05
4.81591e-05
4.87079e-05
4.92531e-05
4.97945e-05
5.03321e-05
5.0866e-05
5.13966e-05
5.19247e-05
5.24516e-05
5.29794e-05
5.35129e-05
5.4057e-05
5.46024e-05
5.51489e-05
5.56993e-05
5.62515e-05
5.68083e-05
5.73683e-05
5.79332e-05
5.85027e-05
5.90779e-05
5.96589e-05
6.02466e-05
6.08415e-05
6.14444e-05
6.20559e-05
6.2677e-05
6.33085e-05
6.39514e-05
6.46067e-05
6.52756e-05
6.59594e-05
6.66593e-05
6.73771e-05
6.81143e-05
6.88729e-05
6.96604e-05
7.04717e-05
7.13041e-05
7.21724e-05
7.3006e-05
7.27835e-05
7.25425e-05
7.22794e-05
7.20002e-05
7.17041e-05
7.13904e-05
7.10545e-05
7.07044e-05
7.03355e-05
6.99511e-05
6.955e-05
6.91335e-05
6.87016e-05
6.8255e-05
6.77939e-05
6.7319e-05
6.68306e-05
6.63296e-05
6.58159e-05
6.52898e-05
6.4752e-05
6.4203e-05
6.36436e-05
6.30748e-05
6.24974e-05
6.19123e-05
6.13204e-05
6.07225e-05
6.01192e-05
5.9511e-05
5.88983e-05
5.82813e-05
5.76604e-05
5.7036e-05
5.64089e-05
5.57797e-05
5.51493e-05
5.45184e-05
5.38871e-05
5.32555e-05
5.26228e-05
5.19873e-05
5.13479e-05
5.06941e-05
5.0042e-05
4.92996e-05
4.87072e-05
4.80319e-05
4.63722e-05
3.04476e-08
1.94198e-07
5.76299e-07
7.83211e-07
1.04882e-06
1.60613e-06
2.47879e-06
3.60799e-06
5.45212e-06
7.98324e-06
1.08162e-05
1.36248e-05
1.65057e-05
1.96159e-05
2.1695e-05
2.30122e-05
2.29331e-05
2.09473e-05
1.68146e-05
1.14625e-05
6.96773e-06
3.9675e-06
2.28681e-06
1.3811e-06
1.01904e-06
1.1837e-06
2.11864e-06
5.04541e-06
1.11962e-05
1.86624e-05
2.0938e-05
1.94201e-05
1.57244e-05
1.17895e-05
4.44909e-06
2.53971e-06
4.29178e-06
7.00363e-06
1.0663e-05
1.66346e-05
2.30077e-05
2.96613e-05
3.68e-05
4.43997e-05
5.27109e-05
6.1457e-05
7.06074e-05
7.99576e-05
8.93623e-05
9.84841e-05
0.000107442
0.00011608
0.000124492
0.000132717
0.000140822
0.000148582
0.000156296
0.000163805
0.000171258
0.000178606
0.000185934
0.000193226
0.000200526
0.00020783
0.000215161
0.000222518
0.000229911
0.000237339
0.000244803
0.0002523
0.000259828
0.000267382
0.000274955
0.000282542
0.000290135
0.000297727
0.00030531
0.000312878
0.000320422
0.000327938
0.000335418
0.000342856
0.000350247
0.000357585
0.000364865
0.000372083
0.000379233
0.000386309
0.000393308
0.000400223
0.000407047
0.000413774
0.000420394
0.000426896
0.000433268
0.000439491
0.000445542
0.000451389
0.000456986
0.000462274
0.000467176
0.000471551
0.000476035
0.000480299
0.000484498
0.000488554
0.000492499
0.000496314
0.000500003
0.000503561
0.000506986
0.000510276
0.000513427
0.000516439
0.000519309
0.000522034
0.000524612
0.000527043
0.000529325
0.000531455
0.000533433
0.000535258
0.00053693
0.000538448
0.000539813
0.000541028
0.000542098
0.000543037
0.000543864
0.000544607
0.000545346
0.000546184
0.000546802
0.000547264
0.000547567
0.000547767
0.000547889
0.000547803
0.000547598
0.000547258
0.000546791
0.000546197
0.000545478
0.000544639
0.00054368
0.000542604
0.000541413
0.000540106
0.000538704
0.0005372
0.000535591
0.000533881
0.00053207
0.000530165
0.000528172
0.000526098
0.000523951
0.000521738
0.000519467
0.000517144
0.000514773
0.00051236
0.000509905
0.00050741
0.000504878
0.000502314
0.000499724
0.000497115
0.000494493
0.000491861
0.000489219
0.000486558
0.000483864
0.000481126
0.000478248
0.000475258
0.000471681
0.000468076
0.000461106
0.000445275
1.59254e-08
5.18529e-08
2.15059e-07
4.47863e-07
6.32893e-07
9.47937e-07
1.69871e-06
3.22647e-06
6.02803e-06
9.80521e-06
1.44465e-05
1.98332e-05
2.51223e-05
3.05969e-05
3.60647e-05
3.99833e-05
4.27516e-05
4.30093e-05
4.17321e-05
3.83452e-05
3.21763e-05
2.50531e-05
1.81369e-05
1.24512e-05
8.56293e-06
6.40857e-06
7.37119e-06
1.12414e-05
2.04838e-05
3.10093e-05
3.26005e-05
2.24843e-05
1.44596e-05
1.08213e-05
9.92506e-06
1.35199e-05
2.10599e-05
3.14894e-05
4.33857e-05
5.79574e-05
7.50446e-05
9.49376e-05
0.000117059
0.000140401
0.000164219
0.000187666
0.000210459
0.000232158
0.000252824
0.000272644
0.000291597
0.000309909
0.000327797
0.000344935
0.000361686
0.000378001
0.00039408
0.000409899
0.000425587
0.000441157
0.000456685
0.000472188
0.00048771
0.000503265
0.000518875
0.000534545
0.000550285
0.000566093
0.000581966
0.000597898
0.00061388
0.000629899
0.000645944
0.000661999
0.00067805
0.00069408
0.000710076
0.000726021
0.000741902
0.000757705
0.000773417
0.000789026
0.000804521
0.00081989
0.000835123
0.000850209
0.000865138
0.000879898
0.000894479
0.000908868
0.000923051
0.000937014
0.00095074
0.000964212
0.000977407
0.0009903
0.00100287
0.00101507
0.00102689
0.00103829
0.00104928
0.00105995
0.00107046
0.00108067
0.00109066
0.00110038
0.00110983
0.001119
0.0011279
0.0011365
0.00114482
0.00115283
0.00116054
0.00116795
0.00117503
0.00118181
0.00118826
0.00119438
0.00120018
0.00120564
0.00121078
0.00121557
0.00122004
0.00122417
0.00122797
0.00123144
0.0012346
0.00123747
0.00124005
0.00124237
0.00124448
0.00124636
0.00124785
0.00124895
0.00124969
0.00125027
0.00125054
0.00125043
0.00125
0.00124928
0.00124825
0.00124692
0.00124531
0.00124342
0.00124125
0.00123881
0.00123611
0.00123315
0.00122995
0.0012265
0.00122282
0.0012189
0.00121475
0.00121038
0.0012058
0.00120103
0.0011961
0.001191
0.00118577
0.00118041
0.00117494
0.00116936
0.00116369
0.00115792
0.00115207
0.00114614
0.00114015
0.00113411
0.00112803
0.00112193
0.00111581
0.00110964
0.00110339
0.00109703
0.00109042
0.00108348
0.00107566
0.00106686
0.001053
0.00102367
1.48835e-09
1.26626e-08
7.28648e-08
2.2362e-07
6.74089e-07
1.81352e-06
4.38288e-06
8.66999e-06
1.46262e-05
2.19267e-05
3.05706e-05
3.99976e-05
4.9373e-05
5.78342e-05
6.46002e-05
6.93027e-05
7.12504e-05
7.13271e-05
6.90533e-05
6.48415e-05
5.86674e-05
5.0574e-05
4.18771e-05
3.35849e-05
2.71085e-05
2.34323e-05
2.50565e-05
3.20325e-05
3.97543e-05
3.62159e-05
2.9948e-05
2.28335e-05
2.04255e-05
2.35683e-05
3.32412e-05
4.97222e-05
6.74137e-05
8.87002e-05
0.000112984
0.000141814
0.000173758
0.000207879
0.000242682
0.000277363
0.000311356
0.00034425
0.000375942
0.000406314
0.000435366
0.000463436
0.000490807
0.000517117
0.000542746
0.000567698
0.00059218
0.000616252
0.00064004
0.000663603
0.000687033
0.000710379
0.000733702
0.00075704
0.000780429
0.000803892
0.000827446
0.0008511
0.000874858
0.000898716
0.000922666
0.000946697
0.000970792
0.000994932
0.0010191
0.00104326
0.0010674
0.00109149
0.00111552
0.00113945
0.00116326
0.00118693
0.00121045
0.00123379
0.00125694
0.00127988
0.00130259
0.00132505
0.00134727
0.00136921
0.00139086
0.0014122
0.00143323
0.00145391
0.00147424
0.0014942
0.00151376
0.00153292
0.00155164
0.00156992
0.00158775
0.00160514
0.0016221
0.00163869
0.00165492
0.00167076
0.00168622
0.00170126
0.0017159
0.00173011
0.00174389
0.00175723
0.00177013
0.00178257
0.00179455
0.00180605
0.00181709
0.00182764
0.00183771
0.00184729
0.00185637
0.00186496
0.00187304
0.00188063
0.00188772
0.00189432
0.00190042
0.00190603
0.00191117
0.00191584
0.00192006
0.00192384
0.00192718
0.00193006
0.00193242
0.00193419
0.00193547
0.00193647
0.00193693
0.00193688
0.00193636
0.00193538
0.00193395
0.00193207
0.00192976
0.00192703
0.00192388
0.00192032
0.00191637
0.00191203
0.00190731
0.00190223
0.00189678
0.00189098
0.00188483
0.00187834
0.00187153
0.00186444
0.00185708
0.00184947
0.00184164
0.00183362
0.00182541
0.00181704
0.00180851
0.00179983
0.00179101
0.00178206
0.00177301
0.00176387
0.00175468
0.00174544
0.00173615
0.00172679
0.00171733
0.0017077
0.00169775
0.00168734
0.00167594
0.00166281
0.00164419
0.00160905
1.95694e-09
1.9321e-08
2.10387e-07
7.98306e-07
2.36267e-06
6.13199e-06
1.2671e-05
2.18959e-05
3.42261e-05
4.98141e-05
6.68875e-05
8.32633e-05
9.7286e-05
0.000107846
0.00011426
0.000116734
0.000116
0.000111748
0.000105429
9.7165e-05
8.74898e-05
7.66838e-05
6.57508e-05
4.97493e-05
3.76005e-05
3.33482e-05
3.85387e-05
4.8915e-05
4.79682e-05
4.30579e-05
3.62393e-05
3.48793e-05
4.4149e-05
6.27631e-05
8.55463e-05
0.000110752
0.000139696
0.000173291
0.000210439
0.00025137
0.000293554
0.000336325
0.00037872
0.000420365
0.000460933
0.000500266
0.000538128
0.000574843
0.000610746
0.000645417
0.00067919
0.000712086
0.000744299
0.00077592
0.000807085
0.000837886
0.000868425
0.000898779
0.000929025
0.000959225
0.000989431
0.00101968
0.00105002
0.00108046
0.00111102
0.00114171
0.00117252
0.00120345
0.00123449
0.00126561
0.0012968
0.00132803
0.00135926
0.00139047
0.00142163
0.00145269
0.00148364
0.00151444
0.00154506
0.00157546
0.00160563
0.00163554
0.00166517
0.0016945
0.00172351
0.00175217
0.00178047
0.0018084
0.00183594
0.00186306
0.00188976
0.00191602
0.00194181
0.00196714
0.00199197
0.00201631
0.00204014
0.00206347
0.00208628
0.0021086
0.00213043
0.00215177
0.00217262
0.00219296
0.00221279
0.00223209
0.00225085
0.00226905
0.0022867
0.00230379
0.00232029
0.00233621
0.00235154
0.00236627
0.0023804
0.00239392
0.00240682
0.0024191
0.00243076
0.00244179
0.0024522
0.00246199
0.00247114
0.00247968
0.0024876
0.00249491
0.00250162
0.00250774
0.00251327
0.00251823
0.00252256
0.0025263
0.00252943
0.00253181
0.00253366
0.00253507
0.00253581
0.00253595
0.0025355
0.00253449
0.00253291
0.00253078
0.00252811
0.00252492
0.0025212
0.00251698
0.00251227
0.00250707
0.0025014
0.00249527
0.00248868
0.00248164
0.00247416
0.00246626
0.00245797
0.00244929
0.00244028
0.00243095
0.00242132
0.00241144
0.00240131
0.00239095
0.00238038
0.00236961
0.00235864
0.0023475
0.00233621
0.0023248
0.00231328
0.00230166
0.00228997
0.00227819
0.00226629
0.00225418
0.00224175
0.00222883
0.00221495
0.00219917
0.00217796
0.00214243
7.26158e-09
6.77999e-08
4.85526e-07
2.00709e-06
6.58984e-06
1.64271e-05
3.25554e-05
5.5261e-05
8.14604e-05
0.000106078
0.000126716
0.00014251
0.000153476
0.00015984
0.000162383
0.000161261
0.000156199
0.000148536
0.0001383
0.00012608
0.000112841
9.12375e-05
7.05233e-05
5.47283e-05
4.7709e-05
5.43697e-05
6.25865e-05
6.15038e-05
5.68847e-05
5.17186e-05
5.35441e-05
7.14582e-05
9.51704e-05
0.000122961
0.000154658
0.000189928
0.000229602
0.000273393
0.000319732
0.000367679
0.000415682
0.000463468
0.000510531
0.000556684
0.000601548
0.000645294
0.000688254
0.000730073
0.000770882
0.000810716
0.000849727
0.000888004
0.00092567
0.000962826
0.000999578
0.00103602
0.00107224
0.00110831
0.0011443
0.00118028
0.00121629
0.00125236
0.00128855
0.00132485
0.00136129
0.00139786
0.00143457
0.00147139
0.00150832
0.00154533
0.00158239
0.00161946
0.00165651
0.0016935
0.00173039
0.00176714
0.00180371
0.00184007
0.00187616
0.00191197
0.00194746
0.00198259
0.00201736
0.00205172
0.00208567
0.00211918
0.00215223
0.0021848
0.00221689
0.00224847
0.00227953
0.00231005
0.00234002
0.00236944
0.00239828
0.00242655
0.00245424
0.00248135
0.00250788
0.00253383
0.0025592
0.00258398
0.00260816
0.00263173
0.00265469
0.00267701
0.00269869
0.00271972
0.0027401
0.0027598
0.00277884
0.00279719
0.00281485
0.00283183
0.0028481
0.00286368
0.00287855
0.00289271
0.00290617
0.00291891
0.00293093
0.00294225
0.00295286
0.00296277
0.00297198
0.00298049
0.00298832
0.00299547
0.003002
0.00300779
0.00301289
0.00301733
0.00302107
0.003024
0.00302638
0.00302819
0.00302928
0.0030297
0.00302948
0.00302861
0.00302713
0.00302502
0.00302232
0.00301903
0.00301515
0.00301071
0.00300572
0.00300017
0.0029941
0.0029875
0.00298039
0.00297277
0.00296465
0.00295605
0.00294699
0.00293751
0.00292762
0.00291736
0.00290676
0.00289584
0.00288462
0.00287313
0.00286137
0.00284936
0.00283711
0.00282464
0.00281198
0.00279916
0.0027862
0.00277311
0.00275992
0.00274663
0.00273319
0.00271954
0.00270559
0.00269117
0.00267588
0.00265889
0.00263705
0.00260357
7.75848e-09
1.44913e-07
1.23572e-06
5.72794e-06
1.9935e-05
4.59336e-05
7.9247e-05
0.000111486
0.000138535
0.000159738
0.000175648
0.000186943
0.000194044
0.000197341
0.000197121
0.000192826
0.000185266
0.000174606
0.000160951
0.00014499
0.000123701
9.91305e-05
7.96682e-05
7.03044e-05
7.00954e-05
7.01688e-05
7.09681e-05
6.95247e-05
6.78221e-05
7.64364e-05
9.76387e-05
0.000125828
0.000158081
0.000194382
0.00023447
0.000278423
0.000326134
0.00037648
0.00042795
0.000479732
0.00053115
0.000582032
0.00063205
0.000680994
0.0007292
0.000776677
0.000823125
0.000868636
0.000913285
0.00095714
0.00100029
0.00104283
0.00108485
0.00112643
0.00116767
0.00120865
0.00124944
0.00129012
0.00133074
0.00137137
0.00141205
0.0014528
0.00149367
0.00153466
0.00157579
0.00161705
0.00165844
0.00169993
0.00174151
0.00178315
0.00182481
0.00186645
0.00190803
0.00194951
0.00199084
0.00203197
0.00207285
0.00211343
0.00215369
0.00219358
0.00223305
0.00227209
0.00231067
0.00234876
0.00238633
0.00242338
0.00245988
0.00249582
0.00253118
0.00256595
0.00260012
0.00263367
0.0026666
0.0026989
0.00273056
0.00276157
0.00279193
0.00282162
0.00285065
0.002879
0.00290669
0.0029337
0.00296003
0.00298567
0.00301062
0.00303486
0.00305839
0.0030812
0.00310329
0.00312464
0.00314525
0.00316511
0.00318423
0.0032026
0.00322022
0.00323708
0.00325318
0.00326852
0.00328311
0.00329695
0.00331004
0.00332237
0.00333394
0.00334477
0.00335485
0.00336419
0.00337279
0.00338067
0.0033879
0.00339429
0.00339997
0.00340495
0.00340918
0.00341256
0.00341542
0.00341759
0.00341908
0.00341988
0.00342
0.00341945
0.00341825
0.00341641
0.00341394
0.00341085
0.00340715
0.00340286
0.00339798
0.00339253
0.00338652
0.00337994
0.00337282
0.00336516
0.00335697
0.00334826
0.00333907
0.0033294
0.0033193
0.0033088
0.0032979
0.00328665
0.00327506
0.00326316
0.00325094
0.00323844
0.00322566
0.00321262
0.00319934
0.00318587
0.00317222
0.00315842
0.00314448
0.00313042
0.00311621
0.00310179
0.00308712
0.00307205
0.00305631
0.00303917
0.00301826
0.00298783
1.95446e-08
4.13577e-07
3.67454e-06
1.9543e-05
5.35317e-05
9.2761e-05
0.000127975
0.000156601
0.000178939
0.000195955
0.000208341
0.000216581
0.000220936
0.000221864
0.000218829
0.000211931
0.000201481
0.000187542
0.000170808
0.000151508
0.00013001
0.000110979
9.39566e-05
8.04512e-05
7.61642e-05
7.93477e-05
8.1261e-05
8.34026e-05
9.68335e-05
0.00012084
0.000152173
0.000188073
0.000227745
0.000271058
0.000317871
0.000367979
0.000420621
0.000474553
0.000528748
0.000582724
0.000636191
0.00068883
0.000740645
0.00079206
0.000842691
0.000892502
0.000941494
0.000989716
0.00103722
0.00108408
0.00113034
0.00117609
0.0012214
0.00126633
0.00131097
0.00135539
0.00139965
0.00144381
0.00148794
0.00153207
0.00157626
0.00162053
0.0016649
0.00170939
0.001754
0.00179874
0.00184358
0.00188851
0.00193351
0.00197853
0.00202354
0.00206851
0.00211338
0.0021581
0.00220262
0.00224688
0.00229084
0.00233443
0.00237762
0.00242036
0.00246262
0.00250436
0.00254555
0.00258617
0.00262621
0.00266563
0.00270444
0.00274261
0.00278012
0.00281698
0.00285318
0.00288871
0.00292355
0.00295771
0.00299116
0.00302392
0.00305597
0.0030873
0.00311788
0.00314774
0.00317689
0.00320532
0.00323303
0.00326
0.00328624
0.00331174
0.00333649
0.00336048
0.0033837
0.00340616
0.00342784
0.00344874
0.00346887
0.00348821
0.00350677
0.00352454
0.00354153
0.00355772
0.00357314
0.00358776
0.0036016
0.00361466
0.00362694
0.00363845
0.00364919
0.00365917
0.00366838
0.00367689
0.0036847
0.00369164
0.00369787
0.00370338
0.00370812
0.00371204
0.00371541
0.00371807
0.00372
0.00372122
0.00372176
0.00372162
0.00372082
0.00371936
0.00371726
0.00371452
0.00371117
0.00370721
0.00370265
0.0036975
0.00369177
0.00368546
0.00367859
0.00367116
0.00366319
0.00365468
0.00364565
0.00363614
0.00362617
0.00361577
0.00360495
0.00359375
0.00358217
0.00357025
0.00355799
0.0035454
0.0035325
0.00351931
0.00350585
0.00349216
0.00347826
0.00346417
0.00344993
0.00343553
0.00342099
0.00340635
0.00339156
0.00337647
0.00336088
0.00334423
0.00332469
0.00329798
1.95593e-07
1.31384e-06
1.24553e-05
4.71257e-05
9.07069e-05
0.000130635
0.00016284
0.000187629
0.000206263
0.000219962
0.000229582
0.000235323
0.000237276
0.000235292
0.000229541
0.000220138
0.000201835
0.000184349
0.000168598
0.0001496
0.00012756
0.00010717
9.00049e-05
8.27881e-05
8.55019e-05
9.14227e-05
9.75425e-05
0.00011369
0.000139962
0.000173651
0.000212001
0.000254034
0.00029937
0.000347839
0.000399214
0.000452973
0.000508198
0.000563912
0.000619491
0.000674659
0.000729013
0.000782686
0.000836186
0.000888954
0.000941015
0.000992382
0.00104307
0.00109312
0.00114257
0.00119147
0.00123986
0.00128781
0.00133537
0.00138259
0.00142955
0.0014763
0.0015229
0.00156941
0.00161588
0.00166235
0.00170886
0.00175544
0.00180211
0.00184889
0.00189577
0.00194276
0.00198984
0.00203699
0.00208418
0.00213137
0.00217853
0.00222562
0.00227259
0.00231939
0.00236597
0.00241225
0.00245818
0.00250368
0.00254873
0.00259327
0.00263726
0.00268067
0.00272346
0.00276563
0.00280714
0.00284799
0.00288816
0.00292765
0.00296649
0.00300463
0.00304204
0.00307872
0.00311467
0.00314987
0.00318433
0.00321805
0.00325101
0.00328323
0.0033147
0.00334543
0.00337542
0.00340467
0.00343316
0.00346089
0.00348786
0.00351407
0.0035395
0.00356415
0.00358802
0.0036111
0.00363339
0.00365489
0.0036756
0.00369551
0.00371463
0.00373295
0.00375048
0.00376721
0.00378315
0.0037983
0.00381265
0.00382623
0.00383903
0.00385105
0.00386229
0.00387278
0.00388251
0.00389155
0.00389983
0.0039073
0.00391405
0.00392009
0.00392535
0.00392986
0.00393378
0.00393697
0.00393946
0.00394126
0.00394238
0.00394283
0.00394263
0.00394178
0.00394029
0.00393818
0.00393546
0.00393214
0.00392822
0.00392372
0.00391864
0.00391298
0.00390676
0.00389998
0.00389264
0.00388476
0.00387637
0.00386748
0.00385812
0.00384831
0.00383807
0.00382743
0.00381639
0.00380498
0.00379321
0.00378108
0.00376861
0.00375582
0.00374274
0.00372939
0.0037158
0.00370199
0.003688
0.00367383
0.0036595
0.00364499
0.00363031
0.0036154
0.00360013
0.00358406
0.00356576
0.00354225
4.84377e-07
3.56323e-06
2.82168e-05
7.42298e-05
0.000120778
0.000158421
0.00018674
0.00020776
0.000223589
0.000234638
0.00024137
0.00024412
0.000243247
0.000234958
0.000217419
0.000201369
0.000188314
0.00017758
0.000161947
0.000139099
0.000117443
9.89162e-05
8.98953e-05
9.15871e-05
9.9162e-05
0.000109458
0.000127585
0.000155338
0.0001905
0.000230401
0.000273751
0.000320132
0.000369282
0.000420991
0.000474907
0.000530404
0.000586683
0.000643062
0.000699145
0.000754505
0.000809237
0.000863857
0.000917871
0.000971259
0.00102403
0.0010762
0.00112779
0.00117882
0.00122931
0.00127931
0.00132885
0.00137797
0.00142672
0.00147515
0.00152331
0.00157125
0.00161901
0.00166665
0.00171423
0.00176179
0.00180937
0.00185701
0.00190471
0.0019525
0.00200039
0.00204839
0.00209648
0.00214464
0.00219283
0.00224101
0.00228917
0.00233727
0.00238525
0.00243307
0.00248069
0.00252805
0.00257517
0.00262197
0.00266825
0.00271395
0.00275903
0.00280345
0.00284718
0.0028902
0.0029325
0.00297406
0.00301488
0.00305495
0.00309424
0.00313277
0.00317058
0.00320766
0.00324401
0.00327962
0.00331449
0.00334863
0.00338202
0.00341468
0.00344661
0.0034778
0.00350823
0.0035379
0.00356682
0.00359497
0.00362235
0.00364895
0.00367478
0.00369982
0.00372408
0.00374755
0.00377023
0.00379213
0.00381322
0.00383353
0.00385305
0.00387177
0.0038897
0.00390685
0.00392321
0.00393879
0.00395359
0.00396762
0.00398088
0.00399336
0.00400509
0.00401607
0.00402631
0.00403588
0.00404464
0.00405267
0.00405998
0.0040666
0.00407246
0.00407763
0.00408217
0.004086
0.00408915
0.00409163
0.00409346
0.00409463
0.00409517
0.00409507
0.00409436
0.00409305
0.00409114
0.00408864
0.00408556
0.00408191
0.0040777
0.00407292
0.00406758
0.00406168
0.00405523
0.00404825
0.00404075
0.00403276
0.00402429
0.00401537
0.00400601
0.00399624
0.00398606
0.00397548
0.00396452
0.00395319
0.00394148
0.00392944
0.00391708
0.00390442
0.00389149
0.00387832
0.00386493
0.00385133
0.00383756
0.00382361
0.0038095
0.0037952
0.00378066
0.00376554
0.00374868
0.0037287
6.83725e-07
7.03783e-06
4.37546e-05
9.61864e-05
0.000141965
0.000176236
0.000201337
0.000219224
0.000231126
0.000238567
0.000242354
0.000236448
0.000222497
0.000209818
0.000199534
0.000191313
0.000183273
0.000167858
0.000145452
0.000124761
0.000106904
9.7224e-05
9.79688e-05
0.000106172
0.000119249
0.000139456
0.000167962
0.000203763
0.000244317
0.000288154
0.000334697
0.000383698
0.000434948
0.000488199
0.000543054
0.000598939
0.000655238
0.000711471
0.000767153
0.000822213
0.000877186
0.000931632
0.000985514
0.00103882
0.00109156
0.00114374
0.00119537
0.00124646
0.00129704
0.00134713
0.00139675
0.00144595
0.00149475
0.0015432
0.00159133
0.00163918
0.00168678
0.0017342
0.00178152
0.00182878
0.00187606
0.00192339
0.00197075
0.00201819
0.00206576
0.00211346
0.00216131
0.00220934
0.00225765
0.00230624
0.00235487
0.00240346
0.00245194
0.00250025
0.00254833
0.00259613
0.00264351
0.00269041
0.00273679
0.00278256
0.00282772
0.00287224
0.00291607
0.00295919
0.00300159
0.00304327
0.00308422
0.00312444
0.00316394
0.00320273
0.00324079
0.00327812
0.00331473
0.00335062
0.00338577
0.00342018
0.00345386
0.00348681
0.00351903
0.0035505
0.00358123
0.0036112
0.00364042
0.00366888
0.00369658
0.0037235
0.00374966
0.00377504
0.00379964
0.00382347
0.00384652
0.00386878
0.00389026
0.00391096
0.00393089
0.00395003
0.00396839
0.00398599
0.00400281
0.00401886
0.00403415
0.00404868
0.00406245
0.00407547
0.00408775
0.00409929
0.00411013
0.00412025
0.00412963
0.0041383
0.00414628
0.00415357
0.00416015
0.00416607
0.00417134
0.00417593
0.00417986
0.00418315
0.0041858
0.00418782
0.00418923
0.00419003
0.00419024
0.00418986
0.00418891
0.00418739
0.00418531
0.00418268
0.0041795
0.00417577
0.00417149
0.00416665
0.00416128
0.00415537
0.00414896
0.00414206
0.00413468
0.00412685
0.00411859
0.0041099
0.0041008
0.00409129
0.00408138
0.00407107
0.00406038
0.00404933
0.00403793
0.00402621
0.0040142
0.00400192
0.00398938
0.00397662
0.00396365
0.00395049
0.00393717
0.00392369
0.00391004
0.00389599
0.00388052
0.00386369
7.84577e-07
1.13063e-05
5.65252e-05
0.000111481
0.000155297
0.000186529
0.000207367
0.0002207
0.000229264
0.000223255
0.000213219
0.00020558
0.000199866
0.000195412
0.000191003
0.000184375
0.000168614
0.000148321
0.000129702
0.000113688
0.000104579
0.000104902
0.00011335
0.000128273
0.000149993
0.000179088
0.000214766
0.000255173
0.000298724
0.00034471
0.000392836
0.000442929
0.000494807
0.000548221
0.000602799
0.000658074
0.000713578
0.00076883
0.000823518
0.000878056
0.00093216
0.000985723
0.0010387
0.00109106
0.00114285
0.00119406
0.0012447
0.00129477
0.00134428
0.00139323
0.00144166
0.0014896
0.00153709
0.00158416
0.00163085
0.00167717
0.00172306