/*--------------------------------*- C++ -*----------------------------------*\
| =========                 |                                                 |
| \\      /  F ield         | OpenFOAM: The Open Source CFD Toolbox           |
|  \\    /   O peration     | Version:  2112                                  |
|   \\  /    A nd           | Website:  www.openfoam.com                      |
|    \\/     M anipulation  |                                                 |
\*---------------------------------------------------------------------------*/
FoamFile
{
    version     2.0;
    format      ascii;
    arch        "LSB;label=32;scalar=64";
    class       volVectorField;
    location    "0.22";
    object      U_0;
}
// * * * * * * * * * * * * * * * * * * * * * * * * * * * * * * * * * * * * * //

dimensions      [0 1 -1 0 0 0 0];

internalField   nonuniform List<vector> 
12225
(
(9.84751 0.0346913 0)
(9.58729 0.0550905 0)
(9.32339 0.0583222 0)
(9.06174 0.0579824 0)
(8.81526 0.0563574 0)
(8.58667 0.0537123 0)
(8.37469 0.0504357 0)
(8.17732 0.0472344 0)
(7.99509 0.04376 0)
(7.82541 0.0408955 0)
(7.6713 0.0374035 0)
(7.52584 0.0355283 0)
(7.39868 0.0311067 0)
(7.27292 0.0317214 0)
(7.1735 0.0232996 0)
(7.06235 0.0314965 0)
(6.99337 0.00871484 0)
(6.89549 0.0401657 0)
(10.0151 0.0444813 0)
(10.06 0.0637813 0)
(10.0738 0.0617014 0)
(10.063 0.0602238 0)
(10.041 0.0603822 0)
(10.0122 0.0604326 0)
(9.9782 0.0601148 0)
(9.9389 0.0593437 0)
(9.89689 0.0587418 0)
(9.85191 0.0575855 0)
(9.80679 0.0569613 0)
(9.7597 0.0550743 0)
(9.71458 0.0545901 0)
(9.66741 0.0515742 0)
(9.62478 0.0514087 0)
(9.57929 0.0467418 0)
(9.541 0.0457521 0)
(9.49848 0.038137 0)
(10.0115 0.0362314 0)
(10.0432 0.0546481 0)
(10.0646 0.0563651 0)
(10.0743 0.0583242 0)
(10.0799 0.0610005 0)
(10.0841 0.062813 0)
(10.0866 0.0635823 0)
(10.0869 0.0637292 0)
(10.0856 0.063564 0)
(10.0828 0.0631075 0)
(10.0791 0.0623855 0)
(10.0742 0.0614019 0)
(10.0689 0.060042 0)
(10.0625 0.0586449 0)
(10.0566 0.0563191 0)
(10.0492 0.0543147 0)
(10.0436 0.0500445 0)
(10.0339 0.0458794 0)
(10.0092 0.0306127 0)
(10.0327 0.0490442 0)
(10.0512 0.0532771 0)
(10.0617 0.0561804 0)
(10.0697 0.0590067 0)
(10.0772 0.0608554 0)
(10.0838 0.0617183 0)
(10.0895 0.0619881 0)
(10.0944 0.0619752 0)
(10.0987 0.0616563 0)
(10.1026 0.0611314 0)
(10.1061 0.0602668 0)
(10.1093 0.0591633 0)
(10.1122 0.0577616 0)
(10.1151 0.055752 0)
(10.1175 0.0536039 0)
(10.1202 0.0498986 0)
(10.1217 0.046644 0)
(10.0066 0.0259773 0)
(10.0265 0.0441919 0)
(10.0422 0.0499611 0)
(10.0524 0.0535127 0)
(10.0607 0.0564845 0)
(10.0685 0.0584453 0)
(10.0758 0.0594581 0)
(10.0824 0.0598686 0)
(10.0884 0.0599422 0)
(10.0941 0.0596962 0)
(10.0995 0.0591949 0)
(10.1047 0.0583647 0)
(10.1097 0.0572508 0)
(10.1145 0.0557983 0)
(10.1193 0.0538451 0)
(10.1238 0.0515028 0)
(10.1282 0.0483172 0)
(10.132 0.0447132 0)
(10.0049 0.0216163 0)
(10.022 0.0395885 0)
(10.0356 0.0465357 0)
(10.0454 0.0506895 0)
(10.0537 0.0538334 0)
(10.0615 0.055896 0)
(10.0689 0.0570229 0)
(10.0756 0.0575266 0)
(10.0819 0.0576425 0)
(10.0879 0.0574162 0)
(10.0937 0.0568983 0)
(10.0993 0.0560547 0)
(10.1047 0.0548995 0)
(10.11 0.0534014 0)
(10.1151 0.0514397 0)
(10.12 0.0490715 0)
(10.1246 0.0460581 0)
(10.1287 0.0424854 0)
(10.004 0.0177914 0)
(10.0183 0.0352978 0)
(10.0303 0.0430892 0)
(10.0398 0.047735 0)
(10.048 0.0510353 0)
(10.0558 0.0531821 0)
(10.063 0.0543973 0)
(10.0698 0.05497 0)
(10.0762 0.0551136 0)
(10.0823 0.0548918 0)
(10.0881 0.0543536 0)
(10.0938 0.0534877 0)
(10.0993 0.0523007 0)
(10.1046 0.0507685 0)
(10.1097 0.0488172 0)
(10.1146 0.0464697 0)
(10.1191 0.0436103 0)
(10.1231 0.0403046 0)
(10.0032 0.0145193 0)
(10.015 0.0312743 0)
(10.0259 0.0396185 0)
(10.035 0.0446361 0)
(10.0431 0.048072 0)
(10.0508 0.0502955 0)
(10.058 0.051586 0)
(10.0648 0.0522168 0)
(10.0711 0.0523845 0)
(10.0772 0.052166 0)
(10.0831 0.051613 0)
(10.0887 0.0507301 0)
(10.0942 0.049525 0)
(10.0995 0.047981 0)
(10.1045 0.0460616 0)
(10.1092 0.0437761 0)
(10.1135 0.0410898 0)
(10.1174 0.0380592 0)
(10.0023 0.0117844 0)
(10.0119 0.0274852 0)
(10.022 0.036103 0)
(10.0308 0.0413837 0)
(10.0388 0.0449348 0)
(10.0464 0.0472301 0)
(10.0536 0.0485874 0)
(10.0603 0.0492695 0)
(10.0666 0.0494612 0)
(10.0727 0.0492494 0)
(10.0785 0.0486903 0)
(10.0841 0.047801 0)
(10.0895 0.0465937 0)
(10.0947 0.0450623 0)
(10.0995 0.0431957 0)
(10.1041 0.0410042 0)
(10.1082 0.0384962 0)
(10.112 0.0357246 0)
(10.0013 0.00956931 0)
(10.0093 0.023934 0)
(10.0186 0.03254 0)
(10.0271 0.0379787 0)
(10.035 0.0416191 0)
(10.0424 0.0439776 0)
(10.0495 0.0453933 0)
(10.0562 0.0461212 0)
(10.0625 0.0463379 0)
(10.0686 0.0461382 0)
(10.0744 0.045583 0)
(10.0799 0.0447 0)
(10.0852 0.0435078 0)
(10.0902 0.0420115 0)
(10.095 0.0402171 0)
(10.0994 0.0381415 0)
(10.1034 0.0358142 0)
(10.107 0.0332891 0)
(10.0007 0.00781547 0)
(10.0072 0.020617 0)
(10.0156 0.0289601 0)
(10.0237 0.0344382 0)
(10.0314 0.0381266 0)
(10.0387 0.0405316 0)
(10.0457 0.0419946 0)
(10.0524 0.0427626 0)
(10.0587 0.0430056 0)
(10.0647 0.0428241 0)
(10.0705 0.0422835 0)
(10.076 0.0414204 0)
(10.0812 0.0402604 0)
(10.0861 0.038819 0)
(10.0907 0.0371138 0)
(10.095 0.0351691 0)
(10.0989 0.0330238 0)
(10.1025 0.0307319 0)
(10.0004 0.00647876 0)
(10.0057 0.0178086 0)
(10.0132 0.0257083 0)
(10.0209 0.0310947 0)
(10.0284 0.0347697 0)
(10.0356 0.0371894 0)
(10.0425 0.0386799 0)
(10.0491 0.0394766 0)
(10.0554 0.0397432 0)
(10.0614 0.0395828 0)
(10.0671 0.0390646 0)
(10.0725 0.0382318 0)
(10.0777 0.0371159 0)
(10.0825 0.0357403 0)
(10.0871 0.03413 0)
(10.0913 0.0323148 0)
(10.0951 0.0303361 0)
(10.0986 0.0282474 0)
(10.0003 0.00537879 0)
(10.0046 0.0152478 0)
(10.0112 0.0225517 0)
(10.0184 0.0277285 0)
(10.0256 0.0313272 0)
(10.0326 0.0337279 0)
(10.0395 0.0352264 0)
(10.046 0.0360418 0)
(10.0522 0.0363294 0)
(10.0582 0.0361927 0)
(10.0639 0.0357034 0)
(10.0693 0.0349098 0)
(10.0744 0.0338483 0)
(10.0792 0.0325488 0)
(10.0836 0.0310412 0)
(10.0878 0.029359 0)
(10.0916 0.0275434 0)
(10.095 0.0256463 0)
(10.0002 0.00434806 0)
(10.0036 0.0126163 0)
(10.0093 0.0190906 0)
(10.0159 0.0238738 0)
(10.0227 0.0272861 0)
(10.0295 0.0296063 0)
(10.0362 0.031079 0)
(10.0426 0.0318964 0)
(10.0488 0.0322005 0)
(10.0547 0.0320916 0)
(10.0603 0.0316417 0)
(10.0657 0.0309026 0)
(10.0707 0.029915 0)
(10.0755 0.0287134 0)
(10.0799 0.0273312 0)
(10.084 0.0258039 0)
(10.0877 0.0241708 0)
(10.0912 0.0224791 0)
(10.0001 0.0033815 0)
(10.0029 0.00996714 0)
(10.0076 0.0153843 0)
(10.0135 0.0195518 0)
(10.0198 0.0226159 0)
(10.0263 0.0247507 0)
(10.0327 0.0261328 0)
(10.039 0.0269157 0)
(10.0451 0.02722 0)
(10.0509 0.0271366 0)
(10.0565 0.0267341 0)
(10.0618 0.0260649 0)
(10.0668 0.0251716 0)
(10.0715 0.0240909 0)
(10.0759 0.0228576 0)
(10.0799 0.0215065 0)
(10.0837 0.0200739 0)
(10.0871 0.0186003 0)
(10.0001 0.00246587 0)
(10.0023 0.00733372 0)
(10.0062 0.0114957 0)
(10.0113 0.0148122 0)
(10.0171 0.0173244 0)
(10.0231 0.0191191 0)
(10.0293 0.0203035 0)
(10.0353 0.0209831 0)
(10.0413 0.0212486 0)
(10.047 0.0211738 0)
(10.0525 0.0208178 0)
(10.0577 0.0202286 0)
(10.0627 0.0194465 0)
(10.0673 0.018507 0)
(10.0717 0.0174432 0)
(10.0757 0.0162869 0)
(10.0794 0.0150696 0)
(10.0829 0.0138247 0)
(10.0001 0.00157505 0)
(10.0019 0.00470456 0)
(10.0052 0.00745196 0)
(10.0096 0.00969833 0)
(10.0148 0.0114383 0)
(10.0203 0.0127015 0)
(10.0261 0.0135382 0)
(10.0319 0.0140063 0)
(10.0376 0.0141614 0)
(10.0432 0.0140527 0)
(10.0486 0.0137229 0)
(10.0537 0.013209 0)
(10.0586 0.0125436 0)
(10.0632 0.0117562 0)
(10.0675 0.0108745 0)
(10.0715 0.00992443 0)
(10.0752 0.00893134 0)
(10.0787 0.00792121 0)
(10.0001 0.000664573 0)
(10.0016 0.00199512 0)
(10.0045 0.00318324 0)
(10.0085 0.0041663 0)
(10.0132 0.00492624 0)
(10.0183 0.00546147 0)
(10.0237 0.0057817 0)
(10.0292 0.00590425 0)
(10.0347 0.0058493 0)
(10.04 0.0056376 0)
(10.0452 0.00528958 0)
(10.0502 0.00482506 0)
(10.055 0.0042633 0)
(10.0595 0.00362295 0)
(10.0637 0.00292216 0)
(10.0677 0.00217862 0)
(10.0714 0.0014097 0)
(10.0749 0.000633495 0)
(10.0001 -0.000337605 0)
(10.0016 -0.000984911 0)
(10.0044 -0.00154489 0)
(10.0082 -0.00201333 0)
(10.0127 -0.00241323 0)
(10.0176 -0.0027709 0)
(10.0228 -0.00311017 0)
(10.0281 -0.00345135 0)
(10.0333 -0.00381005 0)
(10.0384 -0.00419664 0)
(10.0434 -0.00461669 0)
(10.0482 -0.00507165 0)
(10.0528 -0.00555969 0)
(10.0571 -0.00607653 0)
(10.0613 -0.00661606 0)
(10.0651 -0.00717089 0)
(10.0688 -0.00773264 0)
(10.0723 -0.00829147 0)
(10.0001 -0.00135845 0)
(10.0018 -0.00397562 0)
(10.005 -0.0062072 0)
(10.0091 -0.00800025 0)
(10.0138 -0.00941135 0)
(10.0188 -0.0105152 0)
(10.024 -0.011384 0)
(10.0292 -0.0120836 0)
(10.0343 -0.0126684 0)
(10.0393 -0.0131798 0)
(10.0441 -0.0136471 0)
(10.0487 -0.0140899 0)
(10.0531 -0.0145206 0)
(10.0573 -0.014946 0)
(10.0612 -0.0153689 0)
(10.065 -0.0157893 0)
(10.0686 -0.0162048 0)
(10.0719 -0.0166108 0)
(10.0001 -0.00236964 0)
(10.0023 -0.00679905 0)
(10.0061 -0.0104058 0)
(10.0107 -0.0131701 0)
(10.0157 -0.015252 0)
(10.021 -0.0168072 0)
(10.0262 -0.0179677 0)
(10.0314 -0.0188461 0)
(10.0364 -0.0195306 0)
(10.0412 -0.0200858 0)
(10.0459 -0.020556 0)
(10.0504 -0.0209716 0)
(10.0546 -0.0213523 0)
(10.0587 -0.0217107 0)
(10.0625 -0.022054 0)
(10.0662 -0.0223856 0)
(10.0696 -0.0227065 0)
(10.0729 -0.0230144 0)
(10.0002 -0.00356051 0)
(10.0032 -0.00988137 0)
(10.0078 -0.0146709 0)
(10.013 -0.0181267 0)
(10.0184 -0.0206234 0)
(10.0238 -0.0224245 0)
(10.0291 -0.0237221 0)
(10.0343 -0.0246694 0)
(10.0392 -0.0253811 0)
(10.044 -0.0259362 0)
(10.0485 -0.0263871 0)
(10.0528 -0.0267688 0)
(10.0569 -0.0271043 0)
(10.0609 -0.0274087 0)
(10.0646 -0.0276913 0)
(10.0681 -0.0279576 0)
(10.0715 -0.0282098 0)
(10.0747 -0.028447 0)
(10.0004 -0.00505543 0)
(10.0045 -0.0133419 0)
(10.0101 -0.0190163 0)
(10.016 -0.0228411 0)
(10.0217 -0.0255187 0)
(10.0273 -0.0274077 0)
(10.0326 -0.0287341 0)
(10.0377 -0.0296786 0)
(10.0426 -0.0303726 0)
(10.0472 -0.0309027 0)
(10.0517 -0.0313227 0)
(10.0559 -0.0316683 0)
(10.0599 -0.0319627 0)
(10.0637 -0.032222 0)
(10.0673 -0.032456 0)
(10.0708 -0.0326714 0)
(10.074 -0.032871 0)
(10.0771 -0.0330542 0)
(10.0007 -0.00697749 0)
(10.0064 -0.0172115 0)
(10.0132 -0.0233711 0)
(10.0196 -0.0272428 0)
(10.0256 -0.0299226 0)
(10.0313 -0.0317986 0)
(10.0366 -0.0330879 0)
(10.0417 -0.0339857 0)
(10.0465 -0.0346359 0)
(10.0511 -0.0351275 0)
(10.0554 -0.0355111 0)
(10.0595 -0.0358201 0)
(10.0634 -0.036076 0)
(10.0671 -0.0362954 0)
(10.0706 -0.0364877 0)
(10.074 -0.0366608 0)
(10.0772 -0.0368175 0)
(10.0802 -0.036957 0)
(10.0013 -0.00943717 0)
(10.0091 -0.021443 0)
(10.0172 -0.0276389 0)
(10.0241 -0.0312811 0)
(10.0302 -0.0338461 0)
(10.036 -0.0356513 0)
(10.0414 -0.0368625 0)
(10.0464 -0.0376841 0)
(10.0511 -0.0382732 0)
(10.0556 -0.0387181 0)
(10.0598 -0.0390619 0)
(10.0638 -0.0393337 0)
(10.0676 -0.0395519 0)
(10.0711 -0.0397339 0)
(10.0745 -0.0398876 0)
(10.0777 -0.0400225 0)
(10.0808 -0.0401411 0)
(10.0837 -0.0402419 0)
(10.0028 -0.0127673 0)
(10.0126 -0.0259811 0)
(10.0224 -0.0317297 0)
(10.0299 -0.0349381 0)
(10.036 -0.0373289 0)
(10.0417 -0.0390312 0)
(10.0471 -0.0401318 0)
(10.0521 -0.040849 0)
(10.0567 -0.041359 0)
(10.061 -0.0417457 0)
(10.065 -0.0420425 0)
(10.0688 -0.042271 0)
(10.0724 -0.0424473 0)
(10.0758 -0.0425886 0)
(10.0789 -0.0427024 0)
(10.0819 -0.0427995 0)
(10.0847 -0.0428811 0)
(10.0874 -0.0429438 0)
(10.0049 -0.0167275 0)
(10.0176 -0.0307277 0)
(10.0297 -0.0355254 0)
(10.0376 -0.0381818 0)
(10.0436 -0.0404187 0)
(10.0492 -0.0420227 0)
(10.0545 -0.0429926 0)
(10.0592 -0.0435756 0)
(10.0635 -0.0439791 0)
(10.0673 -0.0442796 0)
(10.0709 -0.0445006 0)
(10.0741 -0.0446557 0)
(10.0772 -0.0447593 0)
(10.0799 -0.0448311 0)
(10.0825 -0.0448744 0)
(10.0848 -0.0449122 0)
(10.087 -0.0449326 0)
(10.089 -0.0449614 0)
(10.0069 -0.0216746 0)
(10.0258 -0.0361985 0)
(10.0408 -0.0389524 0)
(10.0488 -0.0407146 0)
(10.0541 -0.0428153 0)
(10.0588 -0.0444254 0)
(10.063 -0.0453773 0)
(10.0662 -0.0459245 0)
(10.0687 -0.0463004 0)
(10.0706 -0.046573 0)
(10.072 -0.0467568 0)
(10.073 -0.046858 0)
(10.0735 -0.0468884 0)
(10.0737 -0.0468774 0)
(10.0735 -0.0468165 0)
(10.0731 -0.0467552 0)
(10.0723 -0.0466588 0)
(10.0714 -0.0466051 0)
(10.0092 -0.028635 0)
(10.0403 -0.0450702 0)
(10.0559 -0.0448302 0)
(10.0577 -0.0439538 0)
(10.0539 -0.0441747 0)
(10.0479 -0.0444369 0)
(10.0397 -0.0443913 0)
(10.0292 -0.0441969 0)
(10.0169 -0.0439965 0)
(10.0032 -0.0438335 0)
(9.98855 -0.0436749 0)
(9.97314 -0.0435136 0)
(9.95707 -0.0433188 0)
(9.94067 -0.0431371 0)
(9.92384 -0.0429025 0)
(9.90707 -0.042719 0)
(9.88991 -0.0424693 0)
(9.87323 -0.0423509 0)
(9.91548 -0.0239369 0)
(9.77756 -0.0399558 0)
(9.63295 -0.0435651 0)
(9.48406 -0.044716 0)
(9.34029 -0.0451545 0)
(9.205 -0.044862 0)
(9.07749 -0.0439652 0)
(8.95703 -0.042717 0)
(8.84308 -0.0413263 0)
(8.73571 -0.0398855 0)
(8.63439 -0.0384378 0)
(8.53911 -0.0370622 0)
(8.44907 -0.0357022 0)
(8.36459 -0.0344186 0)
(8.28444 -0.0331636 0)
(8.20963 -0.0320276 0)
(8.13798 -0.0308879 0)
(8.072 -0.0299572 0)
(-0.0121634 0.0417974 -1.14919e-20)
(-0.0576289 0.0504863 1.14243e-20)
(-0.103711 0.0490719 0)
(-0.140873 0.0407702 0)
(-0.168643 0.029024 0)
(-0.184909 0.0158445 -1.10789e-20)
(-0.189272 0.00216391 0)
(-0.181538 -0.0108438 0)
(-0.163135 -0.0219898 0)
(-0.134911 -0.0304924 0)
(-0.100174 -0.0352846 1.06668e-20)
(-0.0622049 -0.0361547 0)
(-0.0247739 -0.0333539 0)
(0.00887759 -0.027364 0)
(0.0357986 -0.0187483 0)
(0.0542222 -0.00803547 1.02639e-20)
(0.0621139 0.00426737 0)
(0.0591161 0.0183122 0)
(0.0448002 0.0331762 0)
(0.0192514 0.0442917 0)
(-0.0153616 0.0350434 0)
(-0.0461853 0.00932403 0)
(-0.0716225 -0.000835874 0)
(-0.095784 0.00228639 9.686e-21)
(-0.115434 0.00121027 -9.61651e-21)
(-0.123096 -0.00741005 9.5493e-21)
(-0.113962 -0.0214371 9.47863e-21)
(-0.0879001 -0.0371349 0)
(-0.0434021 -0.0515589 0)
(0.0108992 -0.0557057 -9.26932e-21)
(0.0625271 -0.0473337 -9.19394e-21)
(0.102119 -0.0290673 0)
(0.121455 -0.00078146 0)
(0.125656 0.0195364 -8.99913e-21)
(0.131861 0.0283705 0)
(0.12952 -0.00749375 0)
(0.107495 -0.0908654 8.79677e-21)
(0.0755056 -0.11138 0)
(0.0222831 0.00127749 8.68692e-21)
(-0.115029 0.111548 1.71607e-20)
(-0.267595 0.129615 0)
(-0.412152 0.127029 0)
(-0.550593 0.119991 0)
(-0.678215 0.110136 0)
(-0.795715 0.0998774 0)
(-0.902584 0.089885 1.65436e-20)
(-0.999802 0.080827 1.65234e-20)
(-1.08808 0.0722914 1.65097e-20)
(-1.16848 0.0647017 0)
(-1.24193 0.0582947 -1.64846e-20)
(-1.30953 0.0528216 0)
(-1.37207 0.0482218 1.64498e-20)
(-1.43039 0.04434 1.64273e-20)
(-1.48511 0.041072 0)
(-1.53681 0.0383075 0)
(-1.58595 0.0359628 0)
(-1.63292 0.0339737 1.63037e-20)
(-1.67807 0.0322875 0)
(-1.72164 0.0308835 0)
(-1.76382 0.0297216 0)
(-1.80498 0.0287147 0)
(-1.84514 0.0278225 0)
(-1.88447 0.0270218 0)
(-1.92301 0.0262783 0)
(-1.96085 0.025583 0)
(-1.99799 0.024914 -1.5864e-20)
(-2.03447 0.0242659 0)
(-2.07028 0.0236257 0)
(-2.10542 0.0229899 1.56702e-20)
(-2.13988 0.0223516 1.55994e-20)
(-2.17365 0.0217087 0)
(-2.20668 0.0210583 -1.54475e-20)
(-2.23897 0.0203997 1.53659e-20)
(-2.27049 0.0197323 0)
(-2.3012 0.0190565 -1.51907e-20)
(-2.33108 0.0183729 0)
(-2.36011 0.0176827 0)
(-2.38826 0.016987 1.48948e-20)
(-2.41551 0.016287 0)
(-2.44184 0.015584 -1.46735e-20)
(-2.46722 0.0148791 0)
(-2.49165 0.0141732 1.44319e-20)
(-2.5151 0.0134671 1.43032e-20)
(-2.53755 0.0127615 1.4169e-20)
(-2.55901 0.012057 2.80589e-20)
(-2.57944 0.0113538 -2.77687e-20)
(-2.59883 0.0106523 0)
(-2.61718 0.00995288 0)
(-2.63447 0.00925562 0)
(-2.65069 0.00856058 -2.64957e-20)
(-2.66582 0.00786778 -2.61491e-20)
(-2.67984 0.00717713 2.57911e-20)
(-2.69275 0.00648856 0)
(-2.70453 0.00580201 -2.50411e-20)
(-2.71516 0.00511758 -2.46491e-20)
(-2.72462 0.00443551 -2.42459e-20)
(-2.7329 0.00375607 0)
(-2.73997 0.00308093 0)
(-2.74581 0.00241527 0)
(-2.75038 0.00175523 -2.25229e-20)
(-2.75361 0.00105862 0)
(-2.75556 0.000329601 0)
(-2.75639 -0.000317039 2.1117e-20)
(-2.75597 -0.000965872 0)
(-2.75433 -0.00158638 0)
(-2.75145 -0.00220434 1.96179e-20)
(-2.74733 -0.00281003 0)
(-2.74196 -0.00340964 0)
(-2.73533 -0.00400051 -1.80318e-20)
(-2.72744 -0.00458363 -1.7485e-20)
(-2.71829 -0.00515825 0)
(-2.70787 -0.00572415 1.63665e-20)
(-2.69618 -0.00628096 0)
(-2.68322 -0.00682818 -1.52169e-20)
(-2.669 -0.00736548 0)
(-2.65351 -0.00789237 -1.40395e-20)
(-2.63675 -0.0084085 -1.34415e-20)
(-2.61875 -0.00891345 0)
(-2.59949 -0.00940686 0)
(-2.57899 -0.00988833 0)
(-2.55726 -0.0103575 0)
(-2.5343 -0.0108137 0)
(-2.51013 -0.0112563 0)
(-2.48477 -0.0116839 0)
(-2.45822 -0.0120943 -8.49586e-21)
(-2.43051 -0.0124824 7.86515e-21)
(-2.40165 -0.0128348 0)
(-2.37167 -0.0131337 0)
(-2.3406 -0.0133481 0)
(-2.30851 -0.0134003 0)
(-2.27548 -0.0132315 9.41501e-21)
(-2.24144 -0.0133734 0)
(-2.20628 -0.0137428 -6.90668e-21)
(-2.17012 -0.013968 5.65963e-21)
(-2.13298 -0.0142226 0)
(-2.0949 -0.0144421 0)
(-2.05591 -0.0146516 0)
(-2.01603 -0.0148428 -7.43672e-22)
(-1.9753 -0.0150203 4.62316e-22)
(-1.93375 -0.0151814 0)
(-1.89141 -0.0153288 2.8401e-21)
(-1.84831 -0.0154611 4.01016e-21)
(-1.80448 -0.0155798 -5.16657e-21)
(-1.75995 -0.0156846 0)
(-1.71475 -0.0157765 0)
(-1.6689 -0.0158557 -8.5464e-21)
(-1.62244 -0.0159228 0)
(-1.5754 -0.0159784 0)
(-1.52779 -0.0160225 0)
(-1.47966 -0.0160544 0)
(-1.43102 -0.0160742 1.38424e-20)
(-1.3819 -0.0160818 1.4846e-20)
(-1.33235 -0.0160774 0)
(-1.28239 -0.0160621 1.6794e-20)
(-1.23205 -0.0160374 0)
(-1.18136 -0.0160049 0)
(-1.13034 -0.0159664 1.95625e-20)
(-1.07899 -0.0159237 0)
(-1.02735 -0.0158784 2.13031e-20)
(-0.975399 -0.0158314 0)
(-0.923155 -0.0157836 0)
(-0.870615 -0.0157348 2.37541e-20)
(-0.817782 -0.0156843 0)
(-0.764659 -0.0156317 2.5281e-20)
(-0.711252 -0.0155773 0)
(-0.657563 -0.015522 0)
(-0.603594 -0.0154671 0)
(-0.549339 -0.015414 -2.80765e-20)
(-0.494789 -0.0153633 0)
(-0.439935 -0.0153141 2.93453e-20)
(-0.384771 -0.0152636 0)
(-0.329311 -0.015204 0)
(-0.273561 -0.0151244 0)
(-0.217732 -0.0150066 0)
(-0.161494 -0.014786 0)
(-0.106866 -0.0145726 0)
(-0.0488604 -0.0135793 0)
(-0.00384891 -0.0137764 -6.71039e-20)
(0.0643876 -0.00983289 0)
(0.0708635 -0.00365927 0)
(0.00437954 0.101754 3.45112e-20)
(-0.0125788 0.139462 -3.43264e-20)
(-0.0329148 0.120151 0)
(-0.0476219 0.0899076 2.25671e-20)
(-0.0531022 0.0569887 0)
(-0.050212 0.0229515 1.11314e-20)
(-0.0378904 -0.0108702 -2.2109e-20)
(-0.0167125 -0.0446316 -2.19298e-20)
(0.0148099 -0.0747613 0)
(0.0522432 -0.0974119 -2.14756e-20)
(0.0923619 -0.110138 -1.06029e-20)
(0.131743 -0.112225 0)
(0.16747 -0.104073 0)
(0.197232 -0.0876832 0)
(0.219731 -0.0654808 0)
(0.234129 -0.0393987 -1.00868e-20)
(0.240662 -0.0116325 0)
(0.239799 0.0161823 1.99328e-20)
(0.232088 0.0424723 0)
(0.219028 0.0663409 0)
(0.199806 0.0841558 -1.96353e-20)
(0.171633 0.091436 0)
(0.132969 0.0877991 1.94451e-20)
(0.0942484 0.0727512 -9.67321e-21)
(0.0633471 0.0449437 9.62356e-21)
(0.0431953 0.00456627 -9.56806e-21)
(0.0332513 -0.0423767 -9.49221e-21)
(0.0408449 -0.0885219 0)
(0.0629652 -0.122949 0)
(0.0885141 -0.12946 9.17879e-21)
(0.109345 -0.108609 -9.12075e-21)
(0.120533 -0.0715199 0)
(0.11684 -0.0392023 0)
(0.0891939 -0.0408524 8.9742e-21)
(0.0153266 -0.0378776 0)
(-0.0727476 0.0628228 0)
(-0.235716 0.180248 -8.72707e-21)
(-0.431989 0.254521 0)
(-0.576624 0.300794 8.56176e-21)
(-0.69428 0.323811 -1.67526e-20)
(-0.796492 0.316121 0)
(-0.890863 0.299866 0)
(-0.978253 0.277136 -3.28452e-20)
(-1.0582 0.25281 -3.26644e-20)
(-1.13148 0.22872 -3.25121e-20)
(-1.19848 0.206235 1.62894e-20)
(-1.2601 0.185969 -1.60429e-20)
(-1.3171 0.168155 -4.81366e-20)
(-1.3702 0.152725 3.20227e-20)
(-1.42 0.139516 1.59121e-20)
(-1.467 0.128279 0)
(-1.51162 0.118763 -1.58186e-20)
(-1.55423 0.110707 1.57998e-20)
(-1.59515 0.103876 0)
(-1.63463 0.0980702 0)
(-1.67289 0.093107 0)
(-1.71012 0.0888378 -1.55476e-20)
(-1.74646 0.0851432 0)
(-1.78203 0.0819407 3.08342e-20)
(-1.81691 0.0791564 0)
(-1.85115 0.0766908 3.05712e-20)
(-1.88479 0.0744619 0)
(-1.91787 0.0724129 -3.02967e-20)
(-1.95041 0.0704911 0)
(-1.98243 0.0686604 3.00091e-20)
(-2.01393 0.0668883 -1.49118e-20)
(-2.0449 0.0651516 0)
(-2.07533 0.063431 -2.95489e-20)
(-2.1052 0.0617125 -1.4712e-20)
(-2.13449 0.0599856 -1.46283e-20)
(-2.16318 0.0582432 0)
(-2.19123 0.0564809 -1.44155e-20)
(-2.21863 0.0546966 -1.43598e-20)
(-2.24533 0.0528901 0)
(-2.27132 0.0510626 1.41647e-20)
(-2.29656 0.0492161 -2.80896e-20)
(-2.32103 0.0473538 0)
(-2.34471 0.0454787 -1.38449e-20)
(-2.36757 0.0435945 0)
(-2.38958 0.0417043 4.08063e-20)
(-2.41074 0.0398113 0)
(-2.43103 0.037918 -4.00602e-20)
(-2.45041 0.0360268 -1.32312e-20)
(-2.46889 0.0341394 1.30713e-20)
(-2.48644 0.0322574 2.58655e-20)
(-2.50305 0.0303818 -2.55794e-20)
(-2.5187 0.0285135 0)
(-2.53338 0.026653 0)
(-2.54709 0.0248009 0)
(-2.55979 0.0229574 7.30859e-20)
(-2.57149 0.0211224 2.40351e-20)
(-2.58217 0.0192959 -2.369e-20)
(-2.59182 0.0174774 0)
(-2.60043 0.0156664 -2.29614e-20)
(-2.60798 0.0138624 2.25988e-20)
(-2.61447 0.0120647 2.22166e-20)
(-2.61989 0.0102726 0)
(-2.62423 0.00848531 0)
(-2.62749 0.00670801 0)
(-2.62972 0.00496391 2.05999e-20)
(-2.6309 0.0032768 0)
(-2.63099 0.00156979 -3.95055e-20)
(-2.62984 -0.000112934 -5.79183e-20)
(-2.62752 -0.00178609 3.77225e-20)
(-2.62399 -0.00343547 0)
(-2.61926 -0.00506899 1.79581e-20)
(-2.6133 -0.00668199 0)
(-2.6061 -0.00827565 3.39518e-20)
(-2.59767 -0.00984772 -1.65145e-20)
(-2.58799 -0.0113975 -1.60177e-20)
(-2.57707 -0.0129233 0)
(-2.56489 -0.014424 -4.48594e-20)
(-2.55146 -0.0158981 2.88906e-20)
(-2.53678 -0.0173445 1.38774e-20)
(-2.52085 -0.0187617 0)
(-2.50366 -0.0201484 1.28024e-20)
(-2.48523 -0.0215036 3.68653e-20)
(-2.46556 -0.022826 0)
(-2.44466 -0.0241145 2.24052e-20)
(-2.42252 -0.025368 2.12907e-20)
(-2.39917 -0.0265855 2.01688e-20)
(-2.37462 -0.0277659 0)
(-2.34886 -0.0289082 0)
(-2.32193 -0.0300116 0)
(-2.29382 -0.0310757 -7.87327e-21)
(-2.26457 -0.0321003 -7.17642e-21)
(-2.23419 -0.0330863 0)
(-2.20269 -0.0340367 -1.21803e-20)
(-2.17008 -0.0349611 -1.10303e-20)
(-2.13637 -0.0358745 0)
(-2.10153 -0.0367759 -8.59813e-21)
(-2.06561 -0.0376353 -1.51735e-20)
(-2.02871 -0.0384069 6.30901e-21)
(-1.99084 -0.0391058 5.44622e-21)
(-1.95201 -0.0397574 0)
(-1.91223 -0.0403647 0)
(-1.87153 -0.040929 0)
(-1.82996 -0.0414471 6.79889e-22)
(-1.78753 -0.0419204 1.37339e-22)
(-1.74428 -0.0423514 2.74502e-21)
(-1.70024 -0.0427407 -2.59824e-21)
(-1.65543 -0.043089 3.382e-21)
(-1.60989 -0.0433976 4.72899e-21)
(-1.56364 -0.0436675 0)
(-1.51673 -0.0439004 0)
(-1.46917 -0.0440977 -7.54263e-21)
(-1.42099 -0.0442611 0)
(-1.37222 -0.0443917 0)
(-1.3229 -0.0444905 2.13161e-20)
(-1.27303 -0.0445579 0)
(-1.22266 -0.0445933 1.2421e-20)
(-1.1718 -0.0445954 -1.36266e-20)
(-1.1205 -0.0445647 0)
(-1.06878 -0.044503 1.51521e-20)
(-1.01666 -0.0444138 0)
(-0.964183 -0.0443015 0)
(-0.911361 -0.0441707 -1.79888e-20)
(-0.858212 -0.0440262 3.73491e-20)
(-0.804747 -0.0438722 -1.96045e-20)
(-0.750975 -0.0437125 0)
(-0.696899 -0.0435495 0)
(-0.642519 -0.0433841 2.16339e-20)
(-0.587837 -0.0432152 0)
(-0.532854 -0.0430414 2.30646e-20)
(-0.477573 -0.042863 0)
(-0.421998 -0.0426819 0)
(-0.366126 -0.0425014 0)
(-0.309953 -0.0423247 2.59283e-20)
(-0.25347 -0.0421536 0)
(-0.196668 -0.041987 -2.71205e-20)
(-0.139537 -0.0418182 0)
(-0.0820907 -0.0416326 0)
(-0.0243289 -0.0414025 5.73031e-20)
(0.0335835 -0.0411 -5.82914e-20)
(0.0918629 -0.0405915 0)
(0.149232 -0.0400136 0)
(0.208347 -0.0383527 0)
(0.260672 -0.0374598 1.8548e-19)
(0.323809 -0.0320096 0)
(0.355568 -0.021715 -1.26881e-19)
(0.0102472 0.0637723 -8.8735e-25)
(0.031531 0.130854 4.57511e-20)
(0.0447558 0.127923 0)
(0.0545741 0.0898331 -4.51045e-20)
(0.067335 0.0410475 0)
(0.0887669 -0.00902972 0)
(0.122126 -0.0607787 1.3642e-23)
(0.164578 -0.111127 2.1782e-20)
(0.210993 -0.152914 2.15357e-20)
(0.256173 -0.179794 2.12592e-20)
(0.296409 -0.189162 0)
(0.329318 -0.181964 0)
(0.353999 -0.161089 -2.05709e-20)
(0.370513 -0.129826 -4.07144e-20)
(0.379368 -0.0919965 4.03176e-20)
(0.381342 -0.050931 0)
(0.377391 -0.00925651 3.96481e-20)
(0.368164 0.0306369 -1.96021e-20)
(0.354256 0.0669966 0)
(0.336796 0.0977006 3.88454e-20)
(0.316521 0.120372 1.93016e-20)
(0.293552 0.133226 -3.85206e-20)
(0.267722 0.135253 -1.91853e-20)
(0.240755 0.123575 0)
(0.214113 0.0945985 3.80492e-20)
(0.190248 0.0482341 3.78503e-20)
(0.169723 -0.011045 0)
(0.157278 -0.07772 3.72121e-20)
(0.147938 -0.126818 0)
(0.127207 -0.13427 3.64563e-20)
(0.0877806 -0.104358 1.81625e-20)
(0.0147586 -0.0443413 0)
(-0.0857748 0.0635389 0)
(-0.224701 0.193744 0)
(-0.40224 0.29935 0)
(-0.546489 0.375601 0)
(-0.668691 0.420185 0)
(-0.771117 0.438008 3.38634e-20)
(-0.851625 0.447912 -5.0114e-20)
(-0.916522 0.445245 0)
(-0.970075 0.426872 0)
(-1.01825 0.40095 0)
(-1.0628 0.370499 -2.91031e-22)
(-1.10565 0.339349 3.13953e-20)
(-1.14737 0.309314 6.24858e-20)
(-1.18831 0.281601 -6.19633e-20)
(-1.22853 0.256715 -3.0826e-20)
(-1.26803 0.234775 3.04537e-20)
(-1.30681 0.215701 1.07223e-22)
(-1.34481 0.199279 3.01634e-20)
(-1.38202 0.18521 0)
(-1.41847 0.173189 2.97776e-20)
(-1.45416 0.162918 2.67886e-23)
(-1.48915 0.154133 0)
(-1.52349 0.1466 0)
(-1.55723 0.140107 -2.90705e-20)
(-1.59044 0.134472 0)
(-1.62315 0.129546 0)
(-1.6554 0.125202 2.85419e-20)
(-1.68722 0.121329 5.67993e-20)
(-1.71861 0.117826 -2.82646e-20)
(-1.7496 0.114606 0)
(-1.78019 0.111598 2.79327e-20)
(-1.81038 0.10874 0)
(-1.84017 0.105985 2.7514e-20)
(-1.86955 0.103291 2.74197e-20)
(-1.89849 0.100628 -5.44058e-20)
(-1.92698 0.0979704 -2.69827e-20)
(-1.95499 0.0952994 0)
(-1.9825 0.0926018 5.33106e-20)
(-2.00946 0.0898689 0)
(-2.03585 0.0870956 7.88556e-20)
(-2.06164 0.0842803 5.21481e-20)
(-2.08679 0.0814238 5.17427e-20)
(-2.11128 0.0785291 -5.13274e-20)
(-2.13506 0.0756005 7.6388e-20)
(-2.15812 0.0726434 0)
(-2.18043 0.0696635 0)
(-2.20197 0.0666669 -4.95566e-20)
(-2.22271 0.063659 -7.36572e-20)
(-2.24262 0.060645 0)
(-2.2617 0.0576292 2.40785e-20)
(-2.27993 0.0546156 0)
(-2.29728 0.0516071 -7.06241e-20)
(-2.31374 0.0486063 -4.53975e-23)
(-2.3293 0.0456153 4.185e-23)
(-2.34393 0.0426357 4.54105e-20)
(-2.35764 0.0396685 0)
(-2.37039 0.0367149 -4.42358e-20)
(-2.38219 0.0337757 -2.64428e-23)
(-2.39301 0.0308512 0)
(-2.40285 0.027942 0)
(-2.41168 0.0250482 0)
(-2.4195 0.0221697 4.10561e-20)
(-2.4263 0.0193065 0)
(-2.43206 0.0164587 0)
(-2.43678 0.0136269 0)
(-2.44043 0.0108111 0)
(-2.44301 0.00800986 0)
(-2.44448 0.00522538 3.67488e-20)
(-2.44486 0.00247991 0)
(-2.44414 -0.000230924 3.51727e-20)
(-2.44225 -0.00293387 3.43715e-20)
(-2.4392 -0.00562183 -3.35564e-20)
(-2.43498 -0.0082882 0)
(-2.42959 -0.0109302 -3.18842e-20)
(-2.423 -0.0135434 0)
(-2.41522 -0.0161259 -3.01583e-20)
(-2.40623 -0.0186746 2.92761e-20)
(-2.39603 -0.0211875 8.52774e-20)
(-2.38462 -0.0236623 0)
(-2.37199 -0.0260967 7.98228e-20)
(-2.35814 -0.0284884 2.57882e-20)
(-2.34307 -0.0308354 0)
(-2.32678 -0.0331354 4.76577e-20)
(-2.30927 -0.0353864 4.57495e-20)
(-2.29055 -0.0375865 -6.56392e-20)
(-2.27061 -0.0397336 0)
(-2.24947 -0.0418261 -1.98581e-20)
(-2.22713 -0.043862 -1.88689e-20)
(-2.2036 -0.0458397 -5.38439e-20)
(-2.1789 -0.0477572 0)
(-2.15302 -0.0496128 0)
(-2.12598 -0.0514044 0)
(-2.0978 -0.0531302 -1.40943e-20)
(-2.0685 -0.0547879 0)
(-2.03808 -0.0563752 0)
(-2.00656 -0.0578905 1.07963e-20)
(-1.97396 -0.0593328 9.77799e-21)
(-1.94029 -0.0607015 0)
(-1.90556 -0.0620053 0)
(-1.8698 -0.0632711 1.3456e-20)
(-1.83306 -0.0644751 0)
(-1.79537 -0.0655911 -9.41821e-21)
(-1.75673 -0.066634 -7.70435e-21)
(-1.71716 -0.0676054 0)
(-1.67671 -0.0685068 0)
(-1.63538 -0.0693354 1.75822e-21)
(-1.59322 -0.0700921 -3.00181e-22)
(-1.55024 -0.0707796 -3.01319e-22)
(-1.50649 -0.0713992 0)
(-1.46198 -0.0719523 -1.22322e-20)
(-1.41675 -0.0724406 0)
(-1.37082 -0.0728661 0)
(-1.32424 -0.0732311 0)
(-1.27702 -0.0735382 1.36802e-20)
(-1.22919 -0.0737899 0)
(-1.18078 -0.0739888 -3.38926e-20)
(-1.13181 -0.0741366 -1.89911e-20)
(-1.08232 -0.0742344 0)
(-1.03232 -0.0742814 -2.23995e-20)
(-0.981845 -0.0742761 0)
(-0.93092 -0.0742184 0)
(-0.879574 -0.0741112 -8.13152e-20)
(-0.827836 -0.0739596 5.71681e-20)
(-0.77573 -0.0737704 0)
(-0.723278 -0.0735511 6.32837e-20)
(-0.670495 -0.073309 -3.34022e-20)
(-0.617395 -0.073051 0)
(-0.563986 -0.0727832 0)
(-0.510271 -0.0725102 0)
(-0.456251 -0.0722336 -1.16441e-19)
(-0.401927 -0.0719522 0)
(-0.347298 -0.0716642 -4.15886e-20)
(-0.292369 -0.0713699 0)
(-0.237138 -0.0710723 0)
(-0.181605 -0.0707764 0)
(-0.125764 -0.0704869 0)
(-0.0696044 -0.0702068 0)
(-0.0131168 -0.0699346 0)
(0.0437089 -0.0696602 -9.86743e-20)
(0.100867 -0.069362 0)
(0.158357 -0.0690004 -5.14684e-20)
(0.216065 -0.0685276 1.56619e-19)
(0.274126 -0.0677993 0)
(0.331719 -0.0668313 0)
(0.390455 -0.0648232 -1.09287e-19)
(0.445237 -0.0627346 -1.11239e-19)
(0.506708 -0.0566848 1.1258e-19)
(0.55029 -0.0449925 1.14543e-19)
(0.000374666 0.0153185 -6.90807e-20)
(0.0179683 0.0672944 -6.86782e-20)
(0.0367562 0.0752986 -4.54078e-20)
(0.0632759 0.0460217 -2.25093e-20)
(0.106791 -0.0125498 0)
(0.166155 -0.0883019 4.41861e-20)
(0.23243 -0.163475 -2.18408e-20)
(0.296163 -0.222922 0)
(0.349989 -0.258657 -2.12834e-20)
(0.39033 -0.269236 0)
(0.416819 -0.257431 4.15939e-20)
(0.431127 -0.228271 0)
(0.435829 -0.187325 2.02206e-20)
(0.433465 -0.139478 4.00007e-20)
(0.426042 -0.0885096 -3.9614e-20)
(0.41504 -0.0371917 0)
(0.401008 0.0125148 -3.89862e-20)
(0.384455 0.0588833 0)
(0.365797 0.100363 0)
(0.345045 0.135319 -3.82594e-20)
(0.322251 0.161919 0)
(0.297458 0.17822 -5.39501e-23)
(0.270737 0.182063 0)
(0.24259 0.169706 0)
(0.213672 0.137708 -6.24405e-23)
(0.18437 0.0855222 -3.75189e-20)
(0.158304 0.0158999 -3.71764e-20)
(0.12847 -0.0497345 -3.69334e-20)
(0.074816 -0.0715694 0)
(-0.0142806 -0.0257304 -7.27629e-20)
(-0.139929 0.0894718 0)
(-0.29686 0.233326 -3.57878e-20)
(-0.449168 0.354976 0)
(-0.577366 0.441757 0)
(-0.686649 0.495076 3.45107e-20)
(-0.768948 0.527135 0)
(-0.83414 0.540251 -3.35579e-20)
(-0.88411 0.536751 2.02657e-22)
(-0.923613 0.524926 6.50268e-20)
(-0.955333 0.505144 -6.42779e-20)
(-0.983087 0.478748 0)
(-1.00955 0.449 0)
(-1.03597 0.417703 -3.09733e-20)
(-1.06329 0.38678 0)
(-1.09169 0.357338 -2.97496e-20)
(-1.12116 0.330114 2.94209e-20)
(-1.15149 0.305447 2.91207e-20)
(-1.18244 0.283435 0)
(-1.21377 0.264005 -2.85891e-20)