/*--------------------------------*- C++ -*----------------------------------*\
| =========                 |                                                 |
| \\      /  F ield         | OpenFOAM: The Open Source CFD Toolbox           |
|  \\    /   O peration     | Version:  2112                                  |
|   \\  /    A nd           | Website:  www.openfoam.com                      |
|    \\/     M anipulation  |                                                 |
\*---------------------------------------------------------------------------*/
FoamFile
{
    version     2.0;
    format      ascii;
    arch        "LSB;label=32;scalar=64";
    class       surfaceScalarField;
    location    "0.26";
    object      phi;
}
// * * * * * * * * * * * * * * * * * * * * * * * * * * * * * * * * * * * * * //

dimensions      [0 3 -1 0 0 0 0];

oriented        oriented;

internalField   nonuniform List<scalar> 
24170
(
3.0404e-06
1.48006e-07
2.86442e-06
1.75975e-07
2.6895e-06
1.74928e-07
2.51559e-06
1.73901e-07
2.34786e-06
1.67732e-07
2.19126e-06
1.566e-07
2.04927e-06
1.41997e-07
1.92425e-06
1.25018e-07
1.81753e-06
1.06719e-07
1.72931e-06
8.82185e-08
1.65873e-06
7.05825e-08
1.60402e-06
5.47132e-08
1.56278e-06
4.12392e-08
1.53223e-06
3.05438e-08
1.50948e-06
2.27536e-08
1.49111e-06
1.837e-08
1.47025e-06
2.08577e-08
4.02078e-08
1.43004e-06
3.48929e-06
7.59635e-08
3.53965e-06
1.25617e-07
3.57106e-06
1.43516e-07
3.58344e-06
1.61522e-07
3.57736e-06
1.73812e-07
3.55508e-06
1.78878e-07
3.51933e-06
1.77747e-07
3.473e-06
1.71355e-07
3.4189e-06
1.60816e-07
3.35957e-06
1.47547e-07
3.29706e-06
1.33095e-07
3.23284e-06
1.18933e-07
3.16786e-06
1.06221e-07
3.10263e-06
9.57694e-08
3.03731e-06
8.80796e-08
2.97175e-06
8.39262e-08
2.90833e-06
8.42808e-08
8.63646e-08
2.86217e-06
3.68038e-06
5.81013e-08
3.69877e-06
1.07225e-07
3.71789e-06
1.24395e-07
3.73981e-06
1.396e-07
3.76238e-06
1.51245e-07
3.78395e-06
1.57307e-07
3.80307e-06
1.58625e-07
3.81842e-06
1.56006e-07
3.82917e-06
1.50069e-07
3.83498e-06
1.4174e-07
3.83585e-06
1.32221e-07
3.83211e-06
1.22672e-07
3.82425e-06
1.14081e-07
3.81282e-06
1.07202e-07
3.79829e-06
1.02605e-07
3.78162e-06
1.00604e-07
3.76441e-06
1.0149e-07
1.0203e-07
3.74874e-06
3.93605e-06
4.74426e-08
3.9475e-06
9.57701e-08
3.95681e-06
1.1509e-07
3.96667e-06
1.29741e-07
3.97719e-06
1.40725e-07
3.98824e-06
1.46252e-07
3.99975e-06
1.47111e-07
4.01133e-06
1.44426e-07
4.02236e-06
1.39046e-07
4.03228e-06
1.31812e-07
4.04081e-06
1.23697e-07
4.04781e-06
1.15671e-07
4.05338e-06
1.08514e-07
4.05779e-06
1.02788e-07
4.06149e-06
9.89013e-08
4.06515e-06
9.69459e-08
4.06981e-06
9.68322e-08
9.69605e-08
4.07488e-06
4.21515e-06
3.94206e-08
4.22521e-06
8.5706e-08
4.23365e-06
1.06656e-07
4.24204e-06
1.21348e-07
4.25064e-06
1.32128e-07
4.25916e-06
1.37724e-07
4.26747e-06
1.3881e-07
4.27537e-06
1.36519e-07
4.28267e-06
1.31749e-07
4.28917e-06
1.25312e-07
4.29479e-06
1.18077e-07
4.29957e-06
1.10894e-07
4.30362e-06
1.04464e-07
4.30714e-06
9.92632e-08
4.31052e-06
9.55267e-08
4.31424e-06
9.32245e-08
4.31913e-06
9.19449e-08
9.04692e-08
4.32562e-06
4.5154e-06
3.31041e-08
4.52461e-06
7.64997e-08
4.53298e-06
9.82848e-08
4.54134e-06
1.12987e-07
4.54986e-06
1.23605e-07
4.55824e-06
1.29351e-07
4.56622e-06
1.30825e-07
4.57364e-06
1.291e-07
4.58034e-06
1.25047e-07
4.58621e-06
1.19445e-07
4.5912e-06
1.13087e-07
4.59538e-06
1.06718e-07
4.59889e-06
1.00948e-07
4.60199e-06
9.61688e-08
4.605e-06
9.25163e-08
4.60835e-06
8.98736e-08
4.61255e-06
8.77447e-08
8.51768e-08
4.61784e-06
4.8378e-06
2.80201e-08
4.84622e-06
6.80802e-08
4.85443e-06
9.00813e-08
4.86279e-06
1.04629e-07
4.87141e-06
1.14984e-07
4.87995e-06
1.20806e-07
4.88813e-06
1.22645e-07
4.89573e-06
1.21498e-07
4.90259e-06
1.18193e-07
4.90858e-06
1.13454e-07
4.91368e-06
1.07988e-07
4.91795e-06
1.02441e-07
4.92158e-06
9.73229e-08
4.9248e-06
9.29431e-08
4.92794e-06
8.93797e-08
4.93134e-06
8.64762e-08
4.9353e-06
8.37818e-08
8.05833e-08
4.9399e-06
5.18374e-06
2.38612e-08
5.19144e-06
6.03796e-08
5.19944e-06
8.20836e-08
5.20773e-06
9.63371e-08
5.21636e-06
1.06348e-07
5.225e-06
1.12176e-07
5.23332e-06
1.14323e-07
5.24111e-06
1.13708e-07
5.24819e-06
1.11111e-07
5.25445e-06
1.07196e-07
5.25985e-06
1.02587e-07
5.26445e-06
9.78358e-08
5.26842e-06
9.3358e-08
5.27197e-06
8.93918e-08
5.27538e-06
8.59731e-08
5.27891e-06
8.29414e-08
5.28277e-06
7.99267e-08
7.64185e-08
5.28693e-06
5.55479e-06
2.04125e-08
5.56183e-06
5.33336e-08
5.56962e-06
7.42962e-08
5.57783e-06
8.81292e-08
5.58643e-06
9.77463e-08
5.59508e-06
1.03523e-07
5.60347e-06
1.05933e-07
5.61138e-06
1.058e-07
5.61864e-06
1.03855e-07
5.62513e-06
1.00705e-07
5.63082e-06
9.68943e-08
5.63577e-06
9.28893e-08
5.6401e-06
8.90272e-08
5.644e-06
8.54882e-08
5.64769e-06
8.22834e-08
5.65136e-06
7.92695e-08
5.65513e-06
7.61617e-08
7.26092e-08
5.65894e-06
5.95268e-06
1.75106e-08
5.95913e-06
4.68817e-08
5.9667e-06
6.67282e-08
5.97482e-06
8.00062e-08
5.98338e-06
8.91887e-08
5.99203e-06
9.48684e-08
6.00047e-06
9.74998e-08
6.00846e-06
9.7807e-08
6.01585e-06
9.64639e-08
6.02253e-06
9.402e-08
6.02848e-06
9.09485e-08
6.03373e-06
8.76401e-08
6.03839e-06
8.43687e-08
6.0426e-06
8.12727e-08
6.04653e-06
7.83536e-08
6.05031e-06
7.54973e-08
6.05397e-06
7.24975e-08
6.91251e-08
6.05745e-06
6.3793e-06
1.50251e-08
6.38521e-06
4.09645e-08
6.39255e-06
5.93929e-08
6.40058e-06
7.19715e-08
6.4091e-06
8.0677e-08
6.41775e-06
8.62119e-08
6.42623e-06
8.90203e-08
6.43431e-06
8.97277e-08
6.44184e-06
8.89401e-08
6.44871e-06
8.71504e-08
6.45489e-06
8.47668e-08
6.46041e-06
8.21156e-08
6.46536e-06
7.94204e-08
6.46984e-06
7.67915e-08
6.47396e-06
7.42321e-08
6.4778e-06
7.16614e-08
6.48135e-06
6.89408e-08
6.59319e-08
6.48455e-06
5.7427e-06
1.31584e-08
5.74732e-06
3.63416e-08
5.75334e-06
5.338e-08
5.76006e-06
6.52505e-08
5.76722e-06
7.35193e-08
5.77453e-06
7.88938e-08
5.78174e-06
8.18102e-08
5.78865e-06
8.28203e-08
5.79512e-06
8.24668e-08
5.80108e-06
8.11931e-08
5.80649e-06
7.93573e-08
5.81137e-06
7.72393e-08
5.81576e-06
7.50285e-08
5.81973e-06
7.28192e-08
5.82334e-06
7.06204e-08
5.82663e-06
6.83792e-08
5.82956e-06
6.60038e-08
6.34154e-08
5.83208e-06
7.00008e-06
1.12366e-08
7.00502e-06
3.13939e-08
7.01169e-06
4.67192e-08
7.01928e-06
5.76557e-08
7.02744e-06
6.53617e-08
7.03583e-06
7.05031e-08
7.04414e-06
7.34943e-08
7.05216e-06
7.48055e-08
7.05972e-06
7.49056e-08
7.06673e-06
7.41814e-08
7.07315e-06
7.29387e-08
7.07898e-06
7.14113e-08
7.08425e-06
6.97573e-08
7.08901e-06
6.80591e-08
7.0933e-06
6.63344e-08
7.09712e-06
6.45583e-08
7.10044e-06
6.26814e-08
6.06735e-08
7.10318e-06
8.53282e-06
9.26231e-09
8.53806e-06
2.61541e-08
8.54536e-06
3.94229e-08
8.55385e-06
4.91591e-08
8.56307e-06
5.61428e-08
8.57263e-06
6.0949e-08
8.58217e-06
6.39533e-08
8.59143e-06
6.55404e-08
8.60024e-06
6.60953e-08
8.60848e-06
6.59414e-08
8.61609e-06
6.53306e-08
8.62305e-06
6.44526e-08
8.62937e-06
6.34368e-08
8.63507e-06
6.2356e-08
8.64017e-06
6.12371e-08
8.64465e-06
6.00791e-08
8.64847e-06
5.8866e-08
5.7603e-08
8.65154e-06
1.04013e-05
7.22725e-09
1.04068e-05
2.06346e-08
1.04147e-05
3.14979e-08
1.04241e-05
3.97285e-08
1.04345e-05
4.57892e-08
1.04453e-05
5.01222e-08
1.04562e-05
5.30422e-08
1.04669e-05
5.48472e-08
1.04772e-05
5.58325e-08
1.04869e-05
5.6251e-08
1.04959e-05
5.62998e-08
1.05042e-05
5.6126e-08
1.05118e-05
5.58316e-08
1.05187e-05
5.54794e-08
1.05248e-05
5.51017e-08
1.05302e-05
5.47133e-08
1.05348e-05
5.43189e-08
5.39452e-08
1.05384e-05
1.26789e-05
5.10881e-09
1.26847e-05
1.47977e-08
1.26933e-05
2.29065e-08
1.27038e-05
2.92899e-08
1.27154e-05
3.41757e-08
1.27277e-05
3.78515e-08
1.27402e-05
4.05469e-08
1.27525e-05
4.24709e-08
1.27645e-05
4.38271e-08
1.2776e-05
4.47933e-08
1.27868e-05
4.55093e-08
1.27968e-05
4.6079e-08
1.28061e-05
4.65758e-08
1.28145e-05
4.70483e-08
1.28221e-05
4.75258e-08
1.28288e-05
4.80276e-08
1.28345e-05
4.85648e-08
4.91724e-08
1.28393e-05
1.54554e-05
2.8591e-09
1.54617e-05
8.51847e-09
1.54711e-05
1.3491e-08
1.54828e-05
1.76423e-08
1.54959e-05
2.10392e-08
1.55099e-05
2.38144e-08
1.55244e-05
2.60912e-08
1.55389e-05
2.79848e-08
1.55531e-05
2.96072e-08
1.55668e-05
3.10574e-08
1.55799e-05
3.24129e-08
1.55923e-05
3.37311e-08
1.56038e-05
3.50515e-08
1.56145e-05
3.64e-08
1.56242e-05
3.77922e-08
1.5633e-05
3.92389e-08
1.56408e-05
4.07434e-08
4.23373e-08
1.56476e-05
1.88401e-05
3.77863e-10
1.88471e-05
1.50332e-09
1.88578e-05
2.83889e-09
1.88711e-05
4.29046e-09
1.88864e-05
5.80411e-09
1.89028e-05
7.35836e-09
1.892e-05
8.95488e-09
1.89373e-05
1.06082e-08
1.89546e-05
1.23363e-08
1.89715e-05
1.41539e-08
1.89879e-05
1.60704e-08
1.90035e-05
1.80884e-08
1.90183e-05
2.02048e-08
1.90323e-05
2.24125e-08
1.90454e-05
2.47017e-08
1.90576e-05
2.70625e-08
1.90689e-05
2.94803e-08
3.19738e-08
1.90792e-05
2.29663e-05
-2.57036e-09
2.29747e-05
-6.9089e-09
2.29875e-05
-9.99344e-09
2.30037e-05
-1.18755e-08
2.30223e-05
-1.27592e-08
2.30425e-05
-1.28492e-08
2.30637e-05
-1.22801e-08
2.30855e-05
-1.11467e-08
2.31073e-05
-9.53467e-09
2.3129e-05
-7.52321e-09
2.31503e-05
-5.18131e-09
2.31709e-05
-2.57121e-09
2.31909e-05
2.53109e-10
2.321e-05
3.23744e-09
2.32284e-05
6.33547e-09
2.3246e-05
9.50713e-09
2.32627e-05
1.27129e-08
1.59517e-08
2.32788e-05
1.68131e-05
-4.95804e-09
1.68198e-05
-1.36339e-08
1.683e-05
-2.01286e-08
1.68426e-05
-2.45108e-08
1.6857e-05
-2.72005e-08
1.68728e-05
-2.85727e-08
1.68893e-05
-2.88488e-08
1.69064e-05
-2.81942e-08
1.69236e-05
-2.67697e-08
1.69408e-05
-2.47205e-08
1.69578e-05
-2.21698e-08
1.69744e-05
-1.92248e-08
1.69907e-05
-1.59819e-08
1.70064e-05
-1.25276e-08
1.70217e-05
-8.9376e-09
1.70365e-05
-5.27612e-09
1.70508e-05
-1.60154e-09
2.06833e-09
1.70647e-05
1.4637e-05
-7.36943e-09
1.46437e-05
-2.03363e-08
1.46535e-05
-2.99802e-08
1.46656e-05
-3.65364e-08
1.46792e-05
-4.08e-08
1.46939e-05
-4.33207e-08
1.47094e-05
-4.43668e-08
1.47254e-05
-4.41626e-08
1.47416e-05
-4.29391e-08
1.47577e-05
-4.08958e-08
1.47738e-05
-3.81971e-08
1.47895e-05
-3.49878e-08
1.48049e-05
-3.13991e-08
1.482e-05
-2.75494e-08
1.48346e-05
-2.35422e-08
1.48488e-05
-1.94648e-08
1.48626e-05
-1.53938e-08
-1.13631e-08
1.4876e-05
1.27427e-05
-9.96072e-09
1.27497e-05
-2.73174e-08
1.27595e-05
-3.9785e-08
1.27711e-05
-4.81243e-08
1.2784e-05
-5.37247e-08
1.2798e-05
-5.72542e-08
1.28126e-05
-5.89717e-08
1.28276e-05
-5.91617e-08
1.28427e-05
-5.81225e-08
1.28579e-05
-5.60925e-08
1.2873e-05
-5.32659e-08
1.28878e-05
-4.9818e-08
1.29024e-05
-4.59108e-08
1.29165e-05
-4.16913e-08
1.29302e-05
-3.72894e-08
1.29436e-05
-3.28156e-08
1.29566e-05
-2.83654e-08
-2.39908e-08
1.29692e-05
1.10939e-05
-1.29149e-08
1.11014e-05
-3.48322e-08
1.11112e-05
-4.9637e-08
1.11224e-05
-5.93056e-08
1.11347e-05
-6.60218e-08
1.11479e-05
-7.04216e-08
1.11616e-05
-7.27081e-08
1.11757e-05
-7.32382e-08
1.119e-05
-7.23642e-08
1.12042e-05
-7.03442e-08
1.12183e-05
-6.73922e-08
1.12322e-05
-6.37066e-08
1.12458e-05
-5.94775e-08
1.1259e-05
-5.48808e-08
1.12718e-05
-5.00732e-08
1.12841e-05
-4.51887e-08
1.12961e-05
-4.03434e-08
-3.5605e-08
1.13077e-05
9.65878e-06
-1.64827e-08
9.66703e-06
-4.30811e-08
9.67692e-06
-5.95265e-08
9.6877e-06
-7.00804e-08
9.6994e-06
-7.77283e-08
9.71183e-06
-8.2847e-08
9.72471e-06
-8.55934e-08
9.73789e-06
-8.64138e-08
9.75121e-06
-8.5686e-08
9.76453e-06
-8.36683e-08
9.77773e-06
-8.05926e-08
9.79069e-06
-7.66631e-08
9.80331e-06
-7.20926e-08
9.81552e-06
-6.70904e-08
9.82729e-06
-6.18454e-08
9.83862e-06
-5.65173e-08
9.84952e-06
-5.12436e-08
-4.61122e-08
9.86002e-06
8.40991e-06
-2.10448e-08
8.41904e-06
-5.22109e-08
8.42888e-06
-6.93609e-08
8.43926e-06
-8.04584e-08
8.45044e-06
-8.8911e-08
8.46218e-06
-9.45918e-08
8.47427e-06
-9.76767e-08
8.48657e-06
-9.87163e-08
8.49897e-06
-9.80899e-08
8.51134e-06
-9.60316e-08
8.52352e-06
-9.27792e-08
8.53542e-06
-8.85621e-08
8.54695e-06
-8.3617e-08
8.55805e-06
-7.8189e-08
8.5687e-06
-7.24952e-08
8.5789e-06
-6.67196e-08
8.58867e-06
-6.10138e-08
-5.54287e-08
8.59798e-06
7.32336e-06
-2.71195e-08
7.3336e-06
-6.24506e-08
7.34336e-06
-7.91172e-08
7.35335e-06
-9.04572e-08
7.36397e-06
-9.95305e-08
7.375e-06
-1.05615e-07
7.3863e-06
-1.08976e-07
7.39781e-06
-1.10227e-07
7.40944e-06
-1.09726e-07
7.42107e-06
-1.0766e-07
7.43254e-06
-1.04251e-07
7.44377e-06
-9.97854e-08
7.45468e-06
-9.45266e-08
7.46522e-06
-8.87304e-08
7.47535e-06
-8.26296e-08
7.48507e-06
-7.64333e-08
7.49439e-06
-7.03397e-08
-6.44121e-08
7.50338e-06
6.37829e-06
-3.53386e-08
6.39007e-06
-7.42317e-08
6.40024e-06
-8.92908e-08
6.41075e-06
-1.00971e-07
6.42187e-06
-1.10652e-07
6.43338e-06
-1.17119e-07
6.44529e-06
-1.20883e-07
6.45758e-06
-1.22521e-07
6.47019e-06
-1.22334e-07
6.48299e-06
-1.2046e-07
6.49585e-06
-1.17115e-07
6.50863e-06
-1.12568e-07
6.52117e-06
-1.07063e-07
6.53331e-06
-1.00871e-07
6.54494e-06
-9.42544e-08
6.55598e-06
-8.74814e-08
6.56636e-06
-8.07136e-08
-7.41092e-08
6.57606e-06
5.55919e-06
-4.90667e-08
5.57572e-06
-9.07545e-08
5.59145e-06
-1.05024e-07
5.60941e-06
-1.18931e-07
5.62935e-06
-1.30594e-07
5.65047e-06
-1.38241e-07
5.67215e-06
-1.42564e-07
5.6939e-06
-1.44271e-07
5.71517e-06
-1.436e-07
5.73541e-06
-1.40703e-07
5.75416e-06
-1.35865e-07
5.77104e-06
-1.2945e-07
5.78582e-06
-1.21836e-07
5.79837e-06
-1.13424e-07
5.80871e-06
-1.04595e-07
5.817e-06
-9.5771e-08
5.82352e-06
-8.72354e-08
-7.96516e-08
5.82906e-06
4.88791e-06
-1.09368e-07
4.94109e-06
-1.43933e-07
4.98559e-06
-1.49529e-07
5.02034e-06
-1.53677e-07
5.04367e-06
-1.53927e-07
5.056e-06
-1.50574e-07
5.0584e-06
-1.4496e-07
5.05184e-06
-1.37714e-07
5.03741e-06
-1.29165e-07
5.0163e-06
-1.19593e-07
4.98974e-06
-1.09311e-07
4.95893e-06
-9.86345e-08
4.92495e-06
-8.78545e-08
4.88877e-06
-7.72437e-08
4.85121e-06
-6.70407e-08
4.81294e-06
-5.75026e-08
4.77449e-06
-4.87811e-08
-4.11821e-08
4.73602e-06
4.09331e-06
3.94937e-06
3.79985e-06
3.64617e-06
3.49224e-06
3.34167e-06
3.19671e-06
3.05899e-06
2.92983e-06
2.81024e-06
2.70093e-06
2.60229e-06
2.51444e-06
2.43719e-06
2.37015e-06
2.31265e-06
2.26387e-06
2.22269e-06
5.63095e-08
-5.63095e-08
1.5066e-07
-9.43509e-08
2.89044e-07
-1.38384e-07
4.7651e-07
-1.87466e-07
7.14058e-07
-2.37548e-07
9.96482e-07
-2.82423e-07
1.31261e-06
-3.16129e-07
1.64887e-06
-3.36255e-07
1.99246e-06
-3.43593e-07
2.33251e-06
-3.40052e-07
2.65995e-06
-3.27436e-07
2.96726e-06
-3.07313e-07
3.24829e-06
-2.81035e-07
3.49834e-06
-2.50047e-07
3.7139e-06
-2.15559e-07
3.89227e-06
-1.7837e-07
4.0312e-06
-1.38931e-07
4.12863e-06
-9.74265e-08
4.18249e-06
-5.38659e-08
4.19116e-06
-8.67079e-09
4.14927e-06
4.18969e-08
4.0604e-06
8.88664e-08
3.93102e-06
1.29384e-07
3.77021e-06
1.60811e-07
3.58875e-06
1.81459e-07
3.39831e-06
1.90433e-07
3.21068e-06
1.87634e-07
3.03623e-06
1.74446e-07
2.88267e-06
1.53568e-07
2.75421e-06
1.28451e-07
2.65167e-06
1.02544e-07
2.57304e-06
7.86268e-08
2.51454e-06
5.85021e-08
2.47144e-06
4.31007e-08
2.43863e-06
3.28075e-08
2.4108e-06
2.78291e-08
2.38289e-06
2.79183e-08
2.35023e-06
3.26545e-08
2.30859e-06
4.16397e-08
2.25443e-06
5.41621e-08
2.18502e-06
6.94095e-08
2.0985e-06
8.6521e-08
1.99394e-06
1.04558e-07
1.87147e-06
1.22473e-07
1.73212e-06
1.3935e-07
1.57803e-06
1.54091e-07
1.41237e-06
1.65661e-07
1.23892e-06
1.73445e-07
1.06254e-06
1.76381e-07
8.89077e-07
1.73464e-07
7.22767e-07
1.66309e-07
5.65229e-07
1.57538e-07
4.17058e-07
1.4817e-07
2.78981e-07
1.38077e-07
1.52268e-07
1.26713e-07
3.85841e-08
1.13684e-07
-5.99958e-08
9.85799e-08
-1.4086e-07
8.08642e-08
-2.01264e-07
6.04035e-08
-2.38643e-07
3.73798e-08
-2.51832e-07
1.31883e-08
-2.43288e-07
-8.5437e-09
-2.19046e-07
-2.42425e-08
-1.87036e-07
-3.20099e-08
-1.55513e-07
-3.15228e-08
-1.30535e-07
-2.49778e-08
-1.15166e-07
-1.53689e-08
-1.1029e-07
-4.87578e-09
-1.14995e-07
4.70472e-09
-1.31796e-07
1.68014e-08
-1.67263e-07
3.54663e-08
-2.33963e-07
6.67006e-08
-3.46715e-07
1.12752e-07
-5.14213e-07
1.67497e-07
-7.42344e-07
2.28131e-07
-1.03902e-06
2.96675e-07
-1.40806e-06
3.69046e-07
-1.84638e-06
4.38313e-07
-2.34499e-06
4.98612e-07
-2.89029e-06
5.45302e-07
-3.46547e-06
5.7518e-07
-4.05233e-06
5.86858e-07
-4.63304e-06
5.80714e-07
-5.19153e-06
5.58486e-07
-5.71427e-06
5.22744e-07
-6.19071e-06
4.76431e-07
-6.6128e-06
4.22096e-07
-6.97441e-06
3.61613e-07
-7.27213e-06
2.97713e-07
-7.5053e-06
2.3317e-07
-7.67441e-06
1.69115e-07
-7.78093e-06
1.06514e-07
-7.82735e-06
4.64209e-08
-7.81936e-06
-7.98665e-09
-7.77002e-06
-4.93425e-08
-7.68739e-06
-8.26328e-08
-7.57578e-06
-1.1161e-07
-7.43822e-06
-1.37556e-07
-7.27683e-06
-1.61391e-07
-7.09325e-06
-1.83584e-07
-6.88879e-06
-2.04454e-07
-6.66453e-06
-2.24264e-07
-6.42131e-06
-2.43216e-07
-6.15989e-06
-2.61422e-07
-5.88066e-06
-2.79228e-07
-5.58382e-06
-2.96839e-07
-5.26947e-06
-3.14355e-07
-4.9376e-06
-3.31867e-07
-4.5882e-06
-3.49403e-07
-4.22123e-06
-3.66965e-07
-3.83668e-06
-3.84548e-07
-3.43472e-06
-4.01962e-07
-3.0159e-06
-4.18822e-07
-2.58133e-06
-4.34569e-07
-2.13316e-06
-4.48173e-07
-1.67545e-06
-4.57708e-07
-1.21492e-06
-4.60527e-07
-7.5944e-07
-4.55484e-07
-3.10787e-07
-4.48653e-07
1.33502e-07
-4.44289e-07
5.71139e-07
-4.37637e-07
1.00093e-06
-4.29796e-07
1.41914e-06
-4.18203e-07
1.81667e-06
-3.97528e-07
2.18571e-06
-3.6904e-07
2.5219e-06
-3.36194e-07
2.82396e-06
-3.02059e-07
3.092e-06
-2.68047e-07
3.32597e-06
-2.33964e-07
3.52502e-06
-1.99051e-07
3.68871e-06
-1.63686e-07
3.817e-06
-1.28299e-07
3.91032e-06
-9.33163e-08
3.96946e-06
-5.91389e-08
3.99448e-06
-2.50158e-08
3.98592e-06
8.55225e-09
3.95028e-06
3.56426e-08
3.89116e-06
5.91245e-08
3.81355e-06
7.76069e-08
3.72033e-06
9.32144e-08
3.61423e-06
1.06106e-07
3.49797e-06
1.16261e-07
3.37427e-06
1.23693e-07
3.24578e-06
1.28496e-07
3.1148e-06
1.30978e-07
2.98319e-06
1.31611e-07
2.85203e-06
1.3116e-07
2.72212e-06
1.29909e-07
2.59353e-06
1.28592e-07
2.46604e-06
1.27489e-07
2.34013e-06
1.25915e-07
2.21798e-06
1.22146e-07
2.10436e-06
1.13618e-07
2.0066e-06
9.77662e-08
1.93314e-06
7.34586e-08
1.89056e-06
4.25787e-08
1.88134e-06
9.21955e-09
1.89874e-06
-1.74067e-08
1.92644e-06
-2.76951e-08
1.93555e-06
-9.10912e-09
1.88394e-06
5.16114e-08
1.73865e-06
1.45284e-07
1.46607e-06
2.72581e-07
1.04225e-06
4.23824e-07
4.67458e-07
5.7479e-07
-2.14791e-07
6.82248e-07
-9.2651e-07
7.11719e-07
-1.59631e-06
6.69804e-07
-2.16217e-06
5.65852e-07
-2.57157e-06
4.09401e-07
-2.79055e-06
2.18988e-07
-2.80539e-06
1.48358e-08
-2.64013e-06
-1.65264e-07
-2.31874e-06
-3.2139e-07
-1.86836e-06
-4.50376e-07
-1.32613e-06
-5.42235e-07
-7.34717e-07
-5.91408e-07
-1.24584e-07
-6.10133e-07
4.56159e-07
-5.80743e-07
-4.96242e-07
9.52401e-07
1.04813e-07
-1.61122e-07
2.64435e-07
-2.53973e-07
4.82154e-07
-3.56103e-07
7.54275e-07
-4.59587e-07
1.06816e-06
-5.51438e-07
1.40814e-06
-6.22403e-07
1.76039e-06
-6.68376e-07
2.11393e-06
-6.89789e-07
2.45947e-06
-6.89138e-07
2.78934e-06
-6.69925e-07
3.09769e-06
-6.35787e-07
3.38096e-06
-5.90575e-07
3.63732e-06
-5.374e-07
3.8655e-06
-4.78227e-07
4.06443e-06
-4.14485e-07
4.23338e-06
-3.47318e-07
4.37213e-06
-2.77688e-07
4.4812e-06
-2.06489e-07
4.56206e-06
-1.34727e-07
4.61698e-06
-6.35953e-08
4.65169e-06
7.19099e-09
4.66434e-06
7.62169e-08
4.65141e-06
1.42314e-07
4.60999e-06
2.02227e-07
4.53874e-06
2.52706e-07
4.4385e-06
2.90674e-07
4.31239e-06
3.13749e-07
4.16585e-06
3.20984e-07
4.00617e-06
3.13247e-07
3.8415e-06
2.93123e-07
3.67967e-06
2.64375e-07
3.52712e-06
2.31171e-07
3.38824e-06
1.97381e-07
3.26521e-06
1.66136e-07
3.15832e-06
1.39692e-07
3.06661e-06
1.19546e-07
2.98786e-06
1.06666e-07
2.91892e-06
1.01594e-07
2.85605e-06
1.04514e-07
2.79491e-06
1.153e-07
2.7308e-06
1.33513e-07
2.65896e-06
1.58367e-07
2.57482e-06
1.88699e-07
2.47431e-06
2.22977e-07
2.35442e-06
2.59246e-07
2.21329e-06
2.95223e-07
2.05064e-06
3.28308e-07
1.86831e-06
3.55778e-07
1.66974e-06
3.74951e-07
1.45929e-06
3.83911e-07
1.24294e-06
3.82659e-07
1.02789e-06
3.72587e-07
8.20817e-07
3.55244e-07
6.27233e-07
3.31661e-07
4.51551e-07
3.02396e-07
2.97259e-07
2.67976e-07
1.67133e-07
2.28706e-07
6.32123e-08
1.84785e-07
-1.33615e-08
1.36977e-07
-6.3356e-08
8.73744e-08
-9.0238e-08
4.00704e-08
-9.98081e-08
1.02642e-09
-9.86472e-08
-2.54035e-08
-9.76772e-08
-3.29798e-08
-1.06339e-07
-2.28611e-08
-1.32692e-07
1.37563e-09
-1.83155e-07
3.50935e-08
-2.69164e-07
8.11332e-08
-4.04577e-07
1.40118e-07
-6.04129e-07
2.16354e-07
-8.82626e-07
3.13963e-07
-1.24871e-06
4.32781e-07
-1.70367e-06
5.67717e-07
-2.24437e-06
7.08198e-07
-2.86066e-06
8.44413e-07
-3.53317e-06
9.69188e-07
-4.23792e-06
1.0738e-06
-4.94923e-06
1.14963e-06
-5.64155e-06
1.19092e-06
-6.2917e-06
1.19546e-06
-6.8809e-06
1.16438e-06
-7.39576e-06
1.10172e-06
-7.82852e-06
1.01347e-06
-8.17665e-06
9.06611e-07
-8.44212e-06
7.88215e-07
-8.6304e-06
6.64713e-07
-8.74946e-06
5.41153e-07
-8.80904e-06
4.21193e-07
-8.81918e-06
3.07859e-07
-8.78931e-06
2.03299e-07
-8.72842e-06
1.08222e-07
-8.64501e-06
2.31079e-08
-8.54608e-06
-5.25157e-08
-8.43493e-06
-1.19132e-07
-8.30504e-06
-1.79238e-07
-8.15263e-06
-2.35034e-07
-7.97802e-06
-2.86221e-07
-7.78219e-06
-3.3339e-07
-7.56643e-06
-3.7715e-07
-7.33194e-06
-4.18074e-07
-7.07974e-06
-4.56656e-07
-6.81067e-06
-4.9333e-07
-6.52541e-06
-5.28483e-07
-6.22449e-06
-5.62337e-07
-5.90834e-06
-5.95378e-07
-5.57717e-06
-6.28007e-07
-5.23115e-06
-6.60382e-07
-4.87029e-06
-6.92721e-07
-4.49456e-06
-7.25132e-07
-4.10404e-06
-7.57492e-07
-3.69906e-06
-7.89526e-07
-3.28016e-06
-8.20862e-07
-2.84819e-06
-8.50792e-07
-2.40443e-06
-8.78327e-07
-1.95064e-06
-9.01964e-07
-1.48882e-06
-9.19531e-07
-1.02044e-06
-9.28907e-07
-5.45994e-07
-9.29925e-07
-6.78608e-08
-9.26786e-07
4.07473e-07
-9.19622e-07
8.73567e-07
-9.03731e-07
1.32555e-06
-8.81783e-07
1.75894e-06
-8.51584e-07
2.17041e-06
-8.09004e-07
2.55845e-06
-7.5708e-07
2.92147e-06
-6.99209e-07
3.25725e-06
-6.37838e-07
3.56381e-06
-5.74613e-07
3.83961e-06
-5.09761e-07
4.08396e-06
-4.434e-07
4.29617e-06
-3.75896e-07
4.47536e-06
-3.07493e-07
4.6205e-06
-2.38451e-07
4.73045e-06
-1.69095e-07
4.8061e-06
-1.00666e-07
4.84963e-06
-3.49701e-08
4.85358e-06
3.1692e-08
4.81816e-06
9.45424e-08
4.74568e-06
1.50087e-07
4.6412e-06
1.97691e-07
4.51097e-06
2.3634e-07
4.36122e-06
2.66004e-07
4.19805e-06
2.86869e-07
4.02702e-06
2.99529e-07
3.85292e-06
3.05069e-07
3.67962e-06
3.04914e-07
3.51004e-06
3.00745e-07
3.34571e-06
2.94239e-07
3.18712e-06
2.87179e-07
3.03408e-06
2.80533e-07
2.8861e-06
2.7389e-07
2.74325e-06
2.64998e-07
2.60733e-06
2.49534e-07
2.48355e-06
2.21544e-07
2.38151e-06
1.75505e-07
2.31328e-06
1.10808e-07
2.28534e-06
3.71557e-08
2.29509e-06
-2.7159e-08
2.32222e-06
-5.48172e-08
2.33011e-06
-1.70049e-08
2.28089e-06
1.00831e-07
2.10023e-06
3.25942e-07
1.72389e-06
6.48927e-07
1.12061e-06
1.0271e-06
3.342e-07
1.3612e-06
-5.2031e-07
1.53676e-06
-1.322e-06
1.51341e-06
-1.98334e-06
1.33114e-06
-2.45926e-06
1.04177e-06
-2.74319e-06
6.93323e-07
-2.84975e-06
3.25549e-07
-2.80268e-06
-3.22298e-08
-2.60405e-06
-3.63895e-07
-2.26274e-06
-6.62698e-07
-1.80093e-06
-9.12192e-07
-1.24647e-06
-1.0967e-06
-6.29591e-07
-1.20828e-06
1.65074e-08
-1.25623e-06
6.46274e-07
-1.21051e-06
-1.07683e-06
1.22686e-06
1.48833e-07
-3.09956e-07
3.7484e-07
-4.79979e-07
6.62966e-07
-6.44229e-07
9.95049e-07
-7.9167e-07
1.34825e-06
-9.04637e-07
1.70266e-06
-9.76813e-07
2.04533e-06
-1.01105e-06
2.36922e-06
-1.01368e-06
2.67102e-06
-9.90935e-07
2.94982e-06
-9.48723e-07
3.20623e-06
-8.92204e-07
3.44082e-06
-8.2516e-07
3.65367e-06
-7.50252e-07
3.84468e-06
-6.69233e-07
4.01355e-06
-5.83353e-07
4.15982e-06
-4.93593e-07
4.28298e-06
-4.00848e-07
4.38253e-06
-3.06041e-07
4.45807e-06
-2.10262e-07
4.50949e-06
-1.15019e-07
4.53953e-06
-2.28468e-08
4.54782e-06
6.79293e-08
4.53757e-06
1.5256e-07
4.50978e-06
2.30013e-07
4.46465e-06
2.97844e-07
4.40189e-06
3.53429e-07
4.32136e-06
3.94275e-07
4.22383e-06
4.18519e-07
4.11156e-06
4.25515e-07
3.98848e-06
4.16205e-07
3.85972e-06
3.93131e-07
3.73083e-06
3.60069e-07
3.60679e-06
3.21415e-07
3.49136e-06
2.81568e-07
3.38659e-06
2.44463e-07
3.29279e-06
2.13345e-07
3.20875e-06
1.90703e-07
3.13207e-06
1.78277e-07
3.05946e-06
1.77125e-07
2.98713e-06
1.87624e-07
2.9112e-06
2.09445e-07
2.82801e-06
2.41559e-07
2.73439e-06
2.82319e-07
2.62777e-06
3.29596e-07
2.50614e-06
3.80875e-07
2.36812e-06
4.33242e-07
2.21317e-06
4.83261e-07
2.04174e-06
5.27206e-07
1.85529e-06
5.61405e-07
1.65647e-06
5.8273e-07
1.44975e-06
5.89374e-07
1.24115e-06
5.81192e-07
1.03717e-06
5.59223e-07
8.43863e-07
5.24969e-07
6.66248e-07
4.80011e-07
5.08084e-07
4.26139e-07
3.71738e-07
3.65052e-07
2.58162e-07
2.9836e-07
1.66694e-07
2.28445e-07
9.41058e-08
1.59963e-07
3.31723e-08
1.01004e-07
-2.58933e-08
6.0092e-08
-9.40286e-08
4.27319e-08
-1.80533e-07
5.35251e-08
-2.9719e-07
9.37952e-08
-4.55397e-07
1.59583e-07
-6.69776e-07
2.49472e-07
-9.56263e-07
3.6762e-07
-1.32995e-06
5.13808e-07
-1.79776e-06
6.84161e-07
-2.35518e-06
8.71383e-07
-2.98696e-06
1.06456e-06
-3.67033e-06
1.25109e-06
-4.37964e-06
1.41751e-06
-5.08678e-06
1.55155e-06
-5.762e-06
1.64441e-06
-6.37889e-06
1.69069e-06
-6.91802e-06
1.68876e-06
-7.36819e-06
1.64109e-06
-7.72648e-06
1.55375e-06
-7.9973e-06
1.4352e-06
-8.19049e-06
1.29491e-06
-8.31902e-06
1.142e-06
-8.39666e-06
9.8425e-07
-8.43607e-06
8.27631e-07
-8.44743e-06
6.76076e-07
-8.43795e-06
5.31673e-07
-8.41211e-06
3.95349e-07
-8.37183e-06
2.67582e-07
-8.3172e-06
1.48663e-07
-8.24742e-06
3.84478e-08
-8.16076e-06
-6.3553e-08
-8.05524e-06
-1.58035e-07
-7.92852e-06
-2.45854e-07
-7.78032e-06
-3.27442e-07
-7.61213e-06
-4.03217e-07
-7.4247e-06
-4.73651e-07
-7.21881e-06
-5.3928e-07
-6.99535e-06
-6.00614e-07
-6.75517e-06
-6.5825e-07
-6.49906e-06
-7.12769e-07
-6.22764e-06
-7.64748e-07
-5.94132e-06
-8.14805e-07
-5.6403e-06
-8.63359e-07
-5.32503e-06
-9.10647e-07
-4.99586e-06
-9.57177e-07
-4.65295e-06
-1.00329e-06
-4.2964e-06
-1.04927e-06
-3.92629e-06
-1.09524e-06
-3.5428e-06
-1.14098e-06
-3.14621e-06
-1.18612e-06
-2.73683e-06
-1.23024e-06
-2.31528e-06
-1.27235e-06
-1.88246e-06
-1.31115e-06
-1.43948e-06
-1.34495e-06
-9.87482e-07
-1.37153e-06
-5.2755e-07
-1.38884e-06
-6.16414e-08
-1.39583e-06
4.04968e-07
-1.3934e-06
8.65896e-07
-1.38055e-06
1.31777e-06
-1.3556e-06
1.7552e-06
-1.31922e-06
2.17395e-06
-1.27034e-06
2.57291e-06
-1.20796e-06
2.95055e-06
-1.13472e-06
3.30439e-06
-1.05305e-06
3.63143e-06
-9.64876e-07
3.93007e-06
-8.73248e-07
4.20115e-06
-7.80846e-07
4.44582e-06
-6.88067e-07
4.66491e-06
-5.94989e-07
4.85921e-06
-5.01792e-07
5.02935e-06
-4.08596e-07
5.17545e-06
-3.15189e-07
5.29613e-06
-2.21343e-07
5.38794e-06
-1.26786e-07
5.4496e-06
-2.99661e-08
5.47979e-06
6.43486e-08
5.47154e-06
1.58342e-07
5.42208e-06
2.4715e-07
5.33101e-06
3.27408e-07
5.20164e-06
3.95374e-07
5.04022e-06
4.48296e-07
4.85472e-06
4.85024e-07
4.65371e-06
5.06082e-07
4.44522e-06
5.13406e-07
4.23603e-06
5.09933e-07
4.03126e-06
4.99009e-07
3.83458e-06
4.8386e-07
3.64829e-06
4.66818e-07
3.47362e-06
4.48559e-07
3.3112e-06
4.27426e-07
3.16185e-06
3.98879e-07
3.02773e-06
3.55666e-07
2.91285e-06
2.90384e-07
2.82218e-06
2.01473e-07
2.75938e-06
9.99578e-08
2.72176e-06
1.04618e-08
2.69283e-06
-2.58902e-08
2.6445e-06
3.13306e-08
2.51857e-06
2.2676e-07
2.24848e-06
5.96028e-07
1.77142e-06
1.12599e-06
1.07864e-06
1.71987e-06
2.51308e-07
2.18854e-06
-5.66488e-07
2.35455e-06
-1.28126e-06
2.22818e-06
-1.84342e-06
1.8933e-06
-2.24378e-06
1.44214e-06
-2.4889e-06
9.38441e-07
-2.58252e-06
4.19173e-07
-2.52423e-06
-9.05224e-08
-2.31642e-06
-5.71707e-07
-1.97195e-06
-1.00716e-06
-1.50783e-06
-1.37632e-06
-9.45058e-07
-1.65946e-06
-3.13338e-07
-1.84e-06
3.48469e-07
-1.91804e-06
1.00745e-06
-1.86949e-06
-1.7021e-06
1.63272e-06
1.96986e-07
-5.06941e-07
4.81061e-07
-7.64055e-07
8.13606e-07
-9.76774e-07
1.16105e-06
-1.13911e-06
1.49757e-06
-1.24116e-06
1.80977e-06
-1.28901e-06
2.09384e-06
-1.29513e-06
2.35129e-06
-1.27113e-06
2.58587e-06
-1.22551e-06
2.80127e-06
-1.16413e-06
3.00018e-06
-1.09111e-06
3.1841e-06
-1.00909e-06
3.35364e-06
-9.19789e-07
3.50877e-06
-8.2436e-07
3.64906e-06
-7.23649e-07
3.77388e-06
-6.18409e-07
3.88247e-06
-5.09438e-07
3.97411e-06
-3.97683e-07
4.04817e-06
-2.84323e-07
4.10398e-06
-1.70829e-07
4.14018e-06
-5.9042e-08
4.15833e-06
4.97792e-08
4.15835e-06
1.52537e-07
4.14166e-06
2.46709e-07
4.10996e-06
3.29541e-07
4.06507e-06
3.98316e-07
4.00869e-06
4.5066e-07
3.94237e-06
4.8484e-07
3.86776e-06
5.00121e-07
3.78689e-06
4.97071e-07
3.7023e-06
4.77723e-07
3.61685e-06
4.45517e-07
3.53332e-06
4.04953e-07
3.45382e-06
3.6106e-07
3.37945e-06
3.18838e-07
3.30996e-06
2.82838e-07
3.2438e-06
2.56863e-07
3.17828e-06
2.43796e-07
3.1099e-06
2.45504e-07
3.03481e-06
2.62715e-07
2.94937e-06
2.94879e-07
2.85082e-06
3.40115e-07
2.73766e-06
3.95475e-07
2.60978e-06
4.57473e-07
2.46807e-06
5.22585e-07
2.31392e-06
5.87399e-07
2.14878e-06
6.48396e-07
1.97416e-06
7.01825e-07
1.79175e-06
7.43818e-07
1.6036e-06
7.70877e-07
1.41239e-06
7.80587e-07
1.22157e-06
7.72015e-07
1.03512e-06
7.45676e-07
8.56796e-07
7.03288e-07
6.89571e-07
6.47236e-07
5.35681e-07
5.8003e-07
3.96132e-07
5.04601e-07
2.69976e-07
4.24517e-07
1.53609e-07
3.44812e-07
3.99477e-08
2.73624e-07
-8.17702e-08
2.22722e-07
-2.23923e-07
2.02245e-07
-3.98778e-07
2.17587e-07
-6.16022e-07
2.70769e-07
-8.8981e-07
3.67583e-07
-1.23597e-06
5.05748e-07
-1.66589e-06
6.79388e-07
-2.18105e-06
8.82779e-07
-2.7728e-06
1.10555e-06
-3.42249e-06
1.33385e-06
-4.10372e-06
1.55262e-06
-4.7858e-06
1.74664e-06
-5.43724e-06
1.90252e-06
-6.02973e-06
2.01e-06
-6.54141e-06
2.06323e-06
-6.95862e-06
2.06163e-06
-7.27729e-06
2.00935e-06
-7.50274e-06
1.91421e-06
-7.64793e-06
1.78628e-06
-7.73029e-06
1.63611e-06
-7.76841e-06
1.47332e-06
-7.77896e-06
1.30546e-06
-7.77452e-06
1.13756e-06
-7.76276e-06
9.72486e-07
-7.74672e-06
8.11598e-07
-7.72613e-06
6.55478e-07
-7.69861e-06
5.04159e-07
-7.66088e-06
3.57619e-07
-7.60952e-06
2.16223e-07
-7.54158e-06
8.07226e-08
-7.45557e-06
-4.75672e-08
-7.35047e-06
-1.68654e-07
-7.22577e-06
-2.82732e-07
-7.08181e-06
-3.89814e-07
-6.91923e-06
-4.90023e-07
-6.73901e-06
-5.83439e-07
-6.54204e-06
-6.70625e-07
-6.32912e-06
-7.52195e-07
-6.10097e-06
-8.28764e-07
-5.8582e-06
-9.01018e-07
-5.60134e-06
-9.69632e-07
-5.33082e-06
-1.03527e-06
-5.04707e-06
-1.09855e-06
-4.75052e-06
-1.15991e-06
-4.44151e-06
-1.21966e-06
-4.12028e-06
-1.2784e-06
-3.78703e-06
-1.33654e-06
-3.44184e-06
-1.39446e-06
-3.08473e-06
-1.45236e-06
-2.71573e-06
-1.50998e-06
-2.33498e-06
-1.56687e-06
-1.94274e-06
-1.62248e-06
-1.53945e-06
-1.67563e-06
-1.12597e-06
-1.72463e-06
-7.03389e-07
-1.76753e-06
-2.73023e-07
-1.80189e-06
1.63378e-07
-1.82524e-06
6.031e-07
-1.83556e-06
1.04164e-06
-1.83193e-06