/*--------------------------------*- C++ -*----------------------------------*\
| =========                 |                                                 |
| \\      /  F ield         | OpenFOAM: The Open Source CFD Toolbox           |
|  \\    /   O peration     | Version:  2112                                  |
|   \\  /    A nd           | Website:  www.openfoam.com                      |
|    \\/     M anipulation  |                                                 |
\*---------------------------------------------------------------------------*/
FoamFile
{
    version     2.0;
    format      ascii;
    arch        "LSB;label=32;scalar=64";
    class       volScalarField;
    location    "0.03";
    object      kU;
}
// * * * * * * * * * * * * * * * * * * * * * * * * * * * * * * * * * * * * * //

dimensions      [0 2 -2 0 0 0 0];

internalField   nonuniform List<scalar> 
12225
(
1.28927
1.94193
2.37019
2.68352
2.95593
3.22373
3.50683
3.82118
4.16411
4.53378
4.92606
5.33618
5.75947
6.19195
6.62979
7.07233
7.50475
7.90019
0.428722
0.518719
0.611565
0.702893
0.791321
0.876786
0.959109
1.03779
1.11212
1.182
1.24802
1.31124
1.37298
1.4344
1.49672
1.56226
1.64867
1.75261
0.379411
0.391134
0.401585
0.409416
0.415919
0.422132
0.4289
0.437011
0.447223
0.46028
0.476771
0.497116
0.521567
0.550227
0.580845
0.613628
0.649274
0.685471
0.376121
0.378423
0.381523
0.384654
0.387146
0.387721
0.386392
0.383652
0.380094
0.376283
0.372718
0.369822
0.367945
0.367363
0.368199
0.370561
0.374471
0.379889
0.37576
0.376804
0.378132
0.379636
0.381197
0.382543
0.38345
0.383795
0.383459
0.382383
0.380797
0.378877
0.376745
0.374505
0.372251
0.370069
0.36803
0.366182
0.375599
0.37639
0.377297
0.378278
0.379329
0.38038
0.381343
0.382145
0.382728
0.383049
0.38311
0.382931
0.382522
0.381963
0.381314
0.380617
0.379916
0.379233
0.375458
0.376096
0.376828
0.377611
0.378435
0.379274
0.380087
0.38084
0.381506
0.382062
0.382503
0.382831
0.383056
0.383205
0.383307
0.383393
0.383494
0.383628
0.375344
0.375853
0.376455
0.37711
0.3778
0.378504
0.379193
0.379847
0.380458
0.381024
0.381542
0.382013
0.382435
0.382817
0.383175
0.383529
0.383902
0.384309
0.375253
0.37566
0.376156
0.376705
0.377287
0.377885
0.378473
0.379037
0.379573
0.380084
0.380572
0.381044
0.381503
0.381955
0.382403
0.382858
0.383331
0.383832
0.375179
0.375501
0.375908
0.376369
0.376862
0.377371
0.377876
0.378364
0.378829
0.379275
0.379706
0.380129
0.380552
0.380982
0.381424
0.381883
0.382368
0.382882
0.37512
0.375366
0.375697
0.376083
0.376502
0.376937
0.377373
0.377796
0.378202
0.378593
0.378971
0.379342
0.379715
0.380095
0.38049
0.380906
0.381349
0.38182
0.375075
0.37526
0.375529
0.375855
0.376216
0.376594
0.376975
0.377348
0.377709
0.378056
0.378393
0.378724
0.379055
0.379391
0.379738
0.380102
0.380487
0.380895
0.375038
0.375169
0.375382
0.375655
0.375965
0.376293
0.376627
0.376956
0.377276
0.377585
0.377885
0.37818
0.378473
0.378768
0.37907
0.379383
0.379711
0.380054
0.375004
0.37508
0.375238
0.375459
0.375717
0.375996
0.376284
0.376569
0.376848
0.377119
0.377382
0.377639
0.377892
0.378144
0.378398
0.378656
0.378922
0.379194
0.374963
0.374989
0.375094
0.375263
0.375472
0.375704
0.375946
0.376189
0.376428
0.376661
0.376886
0.377104
0.377315
0.377521
0.377723
0.377923
0.378121
0.378318
0.374932
0.374894
0.374954
0.375076
0.375238
0.375424
0.375624
0.375828
0.376029
0.376226
0.376414
0.376594
0.376764
0.376924
0.377074
0.377214
0.377346
0.37747
0.37491
0.374823
0.37485
0.374932
0.375054
0.375202
0.375365
0.375533
0.3757
0.375863
0.376019
0.376164
0.376298
0.376419
0.376526
0.376621
0.376703
0.376768
0.374901
0.374788
0.374789
0.374849
0.374946
0.375068
0.375204
0.375346
0.375488
0.375626
0.375756
0.375875
0.375984
0.376079
0.376161
0.376226
0.376266
0.376272
0.374908
0.374804
0.374808
0.374866
0.374961
0.375078
0.375208
0.375342
0.375475
0.375603
0.375721
0.375828
0.375921
0.375999
0.376058
0.376095
0.376108
0.376092
0.374934
0.374877
0.374911
0.374995
0.375114
0.375253
0.375402
0.375554
0.375701
0.375839
0.375964
0.376076
0.376171
0.376249
0.376312
0.376363
0.376407
0.376448
0.374973
0.374989
0.375064
0.375188
0.375345
0.37552
0.375702
0.375884
0.376059
0.376222
0.376371
0.376505
0.376625
0.376734
0.376836
0.376936
0.377038
0.377147
0.375021
0.375098
0.37523
0.375409
0.375616
0.37584
0.376071
0.3763
0.376519
0.376727
0.376921
0.377104
0.377276
0.377442
0.377606
0.377772
0.377942
0.378118
0.375072
0.375222
0.375425
0.37567
0.375942
0.376232
0.376528
0.376821
0.377105
0.377377
0.377637
0.377888
0.37813
0.378366
0.378598
0.37883
0.379062
0.379296
0.375141
0.37538
0.375669
0.375996
0.376351
0.376724
0.377106
0.377484
0.377854
0.378215
0.378567
0.378906
0.379233
0.379547
0.379848
0.380137
0.380413
0.380678
0.375236
0.375584
0.375978
0.376403
0.376862
0.377355
0.377869
0.378393
0.378916
0.379427
0.379915
0.380372
0.380793
0.381173
0.38151
0.381803
0.382052
0.38226
0.375361
0.375824
0.376371
0.377006
0.377728
0.378525
0.379364
0.380206
0.381012
0.381726
0.382316
0.382764
0.383063
0.383213
0.383222
0.383086
0.382782
0.382355
0.375539
0.376342
0.377584
0.379178
0.38092
0.382615
0.38408
0.385178
0.385791
0.38557
0.384676
0.383259
0.381462
0.379414
0.377229
0.375003
0.372805
0.370698
0.376606
0.381434
0.387765
0.393405
0.397167
0.399504
0.400874
0.4017
0.402329
0.403037
0.404014
0.405408
0.40734
0.409915
0.41322
0.417334
0.422331
0.428251
0.398937
0.44417
0.495164
0.547667
0.599144
0.648766
0.696698
0.743054
0.787941
0.83142
0.873364
0.913553
0.95173
0.987774
1.02172
1.05374
1.08426
1.11355
1.00529
1.50159
1.84473
2.08824
2.2797
2.44804
2.60575
2.75729
2.91354
3.08085
3.26271
3.4597
3.66668
3.88268
4.10639
4.33638
4.57093
4.80874
0.341141
0.364484
0.401533
0.449896
0.52662
0.618753
0.721228
0.785198
0.821292
0.853706
0.886038
0.920223
0.957578
0.999105
1.04559
1.09818
1.15852
1.22902
1.30891
1.38406
1.45271
1.51172
1.5558
1.57496
1.53119
1.38985
1.13688
0.793082
0.421021
0.202359
0.1725
0.20981
0.272849
0.356806
0.443185
0.507742
0.543183
0.552771
0.548419
0.528668
0.488957
0.441681
0.423894
0.494109
0.703211
1.0842
1.64953
2.38784
3.1201
3.82761
4.52246
5.18176
5.78773
6.32805
6.79531
7.18628
7.50101
7.74166
7.91196
8.01666
8.06108
8.05039
7.98769
7.89885
7.7885
7.65859
7.51037
7.34465
7.1617
6.96126
6.74276
6.50543
6.25479
5.99599
5.72877
5.45364
5.1718
4.88496
4.59529
4.30527
4.01756
3.73487
3.45974
3.19436
2.94042
2.69945
2.47269
2.26094
2.06499
1.886
1.72617
1.58986
1.4861
1.4332
1.46098
1.53977
1.6463
1.76781
1.89574
2.02331
2.14536
2.25779
2.35694
2.43982
2.50423
2.54873
2.57281
2.57692
2.56246
2.53175
2.48805
2.43175
2.36037
2.27994
2.19593
2.11329
2.03612
1.96748
1.90915
1.86161
1.82425
1.79573
1.77439
1.75856
1.74674
1.73775
1.73068
1.7249
1.72
1.7157
1.71186
1.70835
1.70511
1.70207
1.69922
1.69659
1.69422
1.69215
1.69037
1.6889
1.68773
1.68685
1.6862
1.68572
1.68535
1.68503
1.68472
1.6844
1.68404
1.68365
1.68324
1.68281
1.68239
1.682
1.68166
1.68139
1.68121
1.68115
1.68121
1.68139
1.68169
1.68209
1.68257
1.68308
1.68358
1.684
1.68428
1.68431
1.68397
1.6831
1.68151
1.67894
1.67504
1.66933
1.66125
1.64893
1.62937
1.59446
1.55599
1.46013
0.328112
0.248622
0.285675
0.432955
0.580724
0.65713
0.692415
0.699355
0.694278
0.683468
0.66978
0.654651
0.638886
0.622941
0.604973
0.586414
0.568692
0.553142
0.54396
0.555424
0.586758
0.636771
0.702026
0.77636
0.847819
0.899772
0.916756
0.892324
0.823021
0.711199
0.568732
0.418622
0.305719
0.297959
0.366809
0.461084
0.513908
0.49724
0.445011
0.462575
0.610957
0.923128
1.38304
1.90978
2.34187
2.65539
2.91391
3.11065
3.23576
3.29624
3.29816
3.248
3.15378
3.02441
2.86898
2.69616
2.51379
2.32861
2.14634
1.97164
1.80813
1.65853
1.5245
1.40725
1.30683
1.2228
1.15468
1.10197
1.06425
1.04134
1.03362
1.04104
1.05645
1.0733
1.09158
1.11125
1.1323
1.15463
1.17802
1.20205
1.22604
1.24895
1.26933
1.28512
1.29974
1.31283
1.32382
1.33222
1.33767
1.34002
1.3393
1.33556
1.32829
1.31504
1.29732
1.27997
1.26281
1.24584
1.22804
1.20606
1.17925
1.14932
1.11705
1.08295
1.04754
1.01134
0.97475
0.938065
0.901504
0.865273
0.829636
0.797462
0.773718
0.753478
0.733502
0.712274
0.689445
0.665407
0.640876
0.616588
0.593139
0.570945
0.550247
0.531153
0.513683
0.497814
0.483505
0.470713
0.459382
0.449444
0.440835
0.433559
0.427631
0.422984
0.419482
0.416977
0.415342
0.414477
0.414293
0.414692
0.415567
0.416835
0.418432
0.420289
0.422326
0.424464
0.42662
0.428726
0.430725
0.432575
0.434247
0.435723
0.436999
0.438076
0.438963
0.439676
0.440238
0.440679
0.441031
0.44133
0.441611
0.441905
0.442246
0.442662
0.443184
0.44384
0.444664
0.445695
0.446983
0.448587
0.450588
0.45309
0.456233
0.460217
0.465333
0.471981
0.480717
0.49234
0.509556
0.533442
0.308421
0.244062
0.444064
0.646011
0.712779
0.711386
0.685939
0.655688
0.62667
0.600003
0.575399
0.552386
0.530642
0.510047
0.490646
0.472642
0.456329
0.442041
0.430179
0.422598
0.42131
0.429615
0.450583
0.485605
0.53259
0.585168
0.634374
0.672095
0.690599
0.680497
0.634943
0.560027
0.479999
0.423825
0.46207
0.595199
0.732243
0.788938
0.92618
1.17126
1.57477
1.99103
2.28247
2.46555
2.54553
2.55386
2.50793
2.41653
2.29119
2.14296
1.98152
1.81564
1.65307
1.50016
1.36163
1.24048
1.13815
1.05471
0.989169
0.939782
0.904374
0.880617
0.866213
0.859039
0.857247
0.859303
0.863992
0.870382
0.877808
0.885912
0.894288
0.90273
0.911381
0.920482
0.930337
0.94129
0.953682
0.967804
0.983822
1.00168
1.02096
1.04073
1.06051
1.08108
1.10186
1.12209
1.14094
1.15762
1.17136
1.18161
1.18801
1.1904
1.18847
1.18052
1.16919
1.15644
1.14333
1.13036
1.11713
1.10274
1.08497
1.06221
1.03659
1.00919
0.980731
0.951737
0.922543
0.893361
0.864307
0.835403
0.806633
0.777855
0.748695
0.718723
0.68768
0.655598
0.622763
0.589593
0.55656
0.524133
0.492721
0.462657
0.434186
0.407478
0.382639
0.359721
0.338739
0.319677
0.302499
0.287149
0.273502
0.261222
0.250173
0.2404
0.231907
0.224658
0.218593
0.213631
0.209681
0.206637
0.204409
0.202909
0.202054
0.201764
0.201957
0.202551
0.203467
0.204624
0.205946
0.207363
0.208813
0.210243
0.211609
0.212878
0.214025
0.215035
0.215901
0.216626
0.217221
0.217704
0.218099
0.218432
0.21873
0.219022
0.219336
0.219699
0.220139
0.220684
0.221369
0.222233
0.223328
0.224717
0.226491
0.228769
0.231729
0.23562
0.24086
0.248019
0.258617
0.273917
0.240084
0.45986
0.744718
0.807833
0.769547
0.705897
0.646847
0.598556
0.55941
0.526688
0.498292
0.472902
0.449804
0.428695
0.409497
0.392258
0.377108
0.364222
0.353818
0.346711
0.343005
0.34363
0.350261
0.365043
0.389574
0.423408
0.46336
0.504635
0.541895
0.568713
0.578189
0.568472
0.551739
0.553567
0.650221
0.908004
1.23793
1.54751
1.70191
1.88537
2.08548
2.21339
2.24509
2.2002
2.10266
1.97432
1.82864
1.67579
1.52444
1.38156
1.25247
1.14085
1.04867
0.976161
0.922123
0.884307
0.859889
0.8459
0.839529
0.83832
0.840247
0.843719
0.847544
0.85087
0.853126
0.853959
0.853158
0.851483
0.84934
0.846951
0.844425
0.841959
0.8398
0.838237
0.837605
0.838288
0.840714
0.845336
0.852598
0.862879
0.876414
0.893206
0.912968
0.935125
0.958866
0.98321
1.00709
1.02943
1.04897
1.06474
1.07564
1.08139
1.08184
1.0773
1.07025
1.06156
1.05199
1.04205
1.0318
1.02081
1.00784
0.990211
0.969796
0.947674
0.924586
0.901051
0.877425
0.853932
0.830697
0.807756
0.785057
0.762474
0.73981
0.716815
0.693198
0.668578
0.642754
0.61571
0.587555
0.558502
0.528826
0.49884
0.468863
0.43921
0.410174
0.38202
0.354978
0.329238
0.304951
0.28223
0.261145
0.241722
0.223967
0.20787
0.193404
0.180523
0.169161
0.159235
0.150654
0.143314
0.137037
0.131678
0.127148
0.123359
0.120226
0.117666
0.115602
0.113958
0.112662
0.11165
0.11086
0.110238
0.109737
0.109315
0.108939
0.108585
0.108234
0.107875
0.107503
0.107118
0.106724
0.106332
0.105952
0.105601
0.105293
0.105044
0.104871
0.104791
0.104825
0.104997
0.105338
0.105888
0.106701
0.107853
0.109454
0.111658
0.114732
0.119003
0.125356
0.134232
0.31057
0.787236
0.864082
0.803513
0.718634
0.647687
0.592868
0.548669
0.510764
0.476952
0.446336
0.418597
0.393587
0.371153
0.351136
0.33343
0.318039
0.305085
0.294768
0.287645
0.284003
0.283971
0.288093
0.297361
0.313103
0.336323
0.366809
0.402921
0.442334
0.482662
0.521556
0.559579
0.612599
0.751767
1.10909
1.69966
2.06895
2.03269
2.01776
2.03527
2.03043
1.97352
1.87062
1.73971
1.59687
1.45371
1.31758
1.19385
1.08628
0.997101
0.92696
0.875014
0.83921
0.816727
0.804481
0.799534
0.799351
0.801898
0.80564
0.809462
0.81258
0.814457
0.814733
0.813162
0.809915
0.805711
0.800671
0.795264
0.789516
0.78337
0.776967
0.770498
0.764215
0.758435
0.753541
0.749984
0.748266
0.748935
0.752556
0.759667
0.770708
0.785905
0.805146
0.827893
0.85323
0.88014
0.907508
0.934353
0.9589
0.97996
0.995338
1.00477
1.00819
1.00709
1.00322
0.997361
0.990163
0.982106
0.973477
0.964245
0.953913
0.939862
0.922845
0.904081
0.884344
0.864165
0.843903
0.823793
0.803974
0.784507
0.765385
0.74654
0.727862
0.709188
0.690326
0.671053
0.651072
0.630155
0.608171
0.585058
0.560833
0.535578
0.509439
0.482612
0.455333
0.427863
0.40048
0.37346
0.347072
0.321561
0.297142
0.273999
0.252271
0.232065
0.213445
0.196441
0.181046
0.167221
0.154899
0.143989
0.134384
0.125966
0.118618
0.112221
0.106667
0.101852
0.097683
0.0940752
0.0909532
0.0882493
0.0859029
0.0838595
0.0820706
0.0804936
0.0790896
0.0778249
0.0766573
0.0755652
0.0745366
0.0735636
0.072642
0.0717712
0.0709527
0.0701899
0.0694875
0.0688505
0.0682846
0.0677956
0.0673903
0.0670767
0.0668653
0.0667701
0.0668112
0.0670181
0.067435
0.0681287
0.0692117
0.0708449
0.073384
0.0771154
0.773352
0.949707
0.848009
0.734465
0.655719
0.600748
0.555322
0.513085
0.473239
0.436701
0.404099
0.375391
0.350087
0.327551
0.307256
0.288961
0.272766
0.259012
0.248118
0.240537
0.236888
0.237165
0.241557
0.250431
0.26446
0.284441
0.310865
0.343727
0.383065
0.429969
0.487358
0.563501
0.692513
1.0034
1.6555
2.27137
2.26781
2.09929
1.97354
1.86525
1.74838
1.61733
1.47944
1.34363
1.21656
1.10251
1.00405
0.922634
0.858516
0.810717
0.777199
0.755261
0.742016
0.734813
0.731498
0.730503
0.730807
0.731812
0.733211
0.734847
0.736615
0.738383
0.739955
0.741056
0.741335
0.740383
0.738218
0.734493
0.729597
0.723904
0.717492
0.710517
0.703234
0.695994
0.689261
0.683594
0.679626
0.678023
0.679457
0.684568
0.693899
0.707795
0.726273
0.748861
0.774503
0.802233
0.831003
0.860544
0.888552
0.913719
0.932601
0.945097
0.951006
0.952837
0.951546
0.947971
0.942776
0.936448
0.929345
0.921604
0.913035
0.90179
0.887536
0.871498
0.854436
0.83687
0.819149
0.801504
0.784078
0.766947
0.750132
0.733609
0.717321
0.701174
0.685054
0.66882
0.652302
0.635282
0.617572
0.599009
0.579463
0.558855
0.537158
0.514403
0.490681
0.466139
0.44097
0.415408
0.389714
0.36416
0.339019
0.314553
0.290995
0.26855
0.247385
0.227626
0.209358
0.192621
0.177416
0.163709
0.151432
0.140497
0.130799
0.122227
0.114665
0.108
0.102119
0.0969192
0.092316
0.0882383
0.0846248
0.0814216
0.0785802
0.0760541
0.0738005
0.0717811
0.0699618
0.0683137
0.0668125
0.0654388
0.0641773
0.0630168
0.0619489
0.060968
0.0600703
0.0592535
0.0585163
0.0578579
0.0572781
0.0567776
0.0563579
0.056022
0.0557752
0.0556271
0.0555928
0.0556992
0.0559794
0.0564819
0.057315
0.0586341
1.24487
0.990006
0.782275
0.677939
0.622228
0.577058
0.530247
0.483451
0.440744
0.403828
0.372317
0.345046
0.32072
0.298204
0.276843
0.256664
0.238277
0.222576
0.210404
0.202308
0.198839
0.200098
0.206006
0.21654
0.231929
0.252605
0.278948
0.31142
0.351542
0.403519
0.476368
0.59194
0.823623
1.35709
2.14213
2.37541
2.16353
1.93415
1.74731
1.58584
1.43763
1.30006
1.17463
1.0631
0.966628
0.885822
0.820696
0.770506
0.733635
0.707765
0.690271
0.678642
0.670798
0.665234
0.661019
0.65769
0.65511
0.653326
0.652456
0.652603
0.653806
0.656013
0.659075
0.662766
0.666773
0.670568
0.673178
0.67404
0.673152
0.670594
0.666507
0.661095
0.654632
0.647499
0.640219
0.63349
0.628142
0.625062
0.625106
0.629016
0.637353
0.650428
0.668314
0.690727
0.716177
0.743629
0.772239
0.80296
0.833319
0.861191
0.882644
0.897005
0.905815
0.910067
0.910822
0.909013
0.905368
0.900419
0.89456
0.888022
0.880792
0.871779
0.8599
0.846275
0.831608
0.816376
0.800896
0.785383
0.769969
0.754734
0.73971
0.724902
0.710286
0.695818
0.681436
0.667059
0.652587
0.637881
0.622792
0.607162
0.590832
0.573658
0.555522
0.536342
0.516084
0.494767
0.472468
0.44932
0.425502
0.401238
0.376777
0.352388
0.328337
0.30488
0.282253
0.26066
0.24027
0.221207
0.203554
0.187351
0.172599
0.159263
0.147282
0.136574
0.127045
0.118577
0.111057
0.104385
0.0984688
0.0932213
0.0885644
0.0844286
0.0807526
0.077486
0.0745842
0.0720024
0.0697001
0.0676411
0.0657939
0.0641309
0.062629
0.0612689
0.0600351
0.058915
0.0578989
0.0569792
0.0561498
0.0554059
0.0547437
0.05416
0.0536524
0.0532193
0.0528599
0.0525758
0.0523705
0.0522534
0.0522378
0.0523543
0.0526322
0.0531205
1.59449
0.944678
0.72193
0.653925
0.612494
0.563167
0.509125
0.459387
0.417735
0.383386
0.354289
0.32857
0.304484
0.280613
0.256503
0.232829
0.210945
0.192335
0.178265
0.169552
0.167407
0.171418
0.180686
0.194567
0.212906
0.235913
0.263857
0.297431
0.339414
0.397453
0.490079
0.665652
1.05754
1.79933
2.27752
2.18293
1.9124
1.6701
1.47503
1.31409
1.17776
1.06108
0.96156
0.877843
0.809162
0.754832
0.713803
0.684433
0.664593
0.651983
0.644488
0.640418
0.638591
0.638302
0.639213
0.641215
0.644299
0.648454
0.653588
0.659504
0.665896
0.672389
0.678573
0.683981
0.688041
0.68907
0.687186
0.682426
0.675033
0.665435
0.654231
0.642143
0.629959
0.618467
0.608401
0.600406
0.595027
0.592729
0.593864
0.598582
0.606809
0.618209
0.632429
0.649656
0.670845
0.697682
0.725609
0.756521
0.788922
0.817453
0.841025
0.858369
0.869686
0.875941
0.8783
0.877822
0.875334
0.871436
0.866561
0.861002
0.854849
0.84766
0.837882
0.826445
0.813971
0.800877
0.787442
0.773851
0.760227
0.746643
0.73314
0.719737
0.706433
0.693215
0.680057
0.666923
0.653761
0.640496
0.627022
0.613232
0.598991
0.584152
0.568572
0.552117
0.534681
0.516193
0.496629
0.476015
0.454436
0.432029
0.408978
0.385505
0.361859
0.338301
0.315091
0.292478
0.270686
0.24991
0.230304
0.211983
0.195018
0.179443
0.165253
0.152417
0.140875
0.13054
0.12132
0.113122
0.10585
0.0994105
0.0937123
0.0886702
0.0842063
0.0802519
0.0767471
0.0736439
0.070896
0.0684601
0.0662975
0.0643741
0.0626595
0.0611275
0.0597558
0.0585255
0.0574213
0.0564304
0.0555426
0.0547496
0.0540445
0.0534216
0.052876
0.0524039
0.052002
0.0516688
0.0514038
0.0512099
0.0510924
0.051066
0.0511435
0.0513617
1.74614
0.857976
0.691054
0.656885
0.613609
0.554694
0.496258
0.44725
0.408211
0.376259
0.348809
0.323814
0.299066
0.272921
0.245369
0.217867
0.192351
0.170632
0.154354
0.145758
0.147783
0.156514
0.169702
0.186629
0.207358
0.23222
0.261526
0.296401
0.341801
0.413388
0.553498
0.861158
1.4215
1.98708
2.10338
1.88624
1.62023
1.40144
1.23053
1.09474
0.984436
0.893657
0.819121
0.759174
0.712872
0.679219
0.656766
0.643601
0.637599
0.63674
0.639351
0.644228
0.650636
0.658237
0.666954
0.676832
0.687903
0.700088
0.71315
0.726678
0.740106
0.752726
0.763775
0.77277
0.777128
0.777577
0.773792
0.765655
0.753291
0.737085
0.717705
0.696118
0.673563
0.651474
0.631381
0.614698
0.602419
0.595207
0.593295
0.596203
0.602991
0.612256
0.622298
0.63263
0.644537
0.661842
0.686466
0.717156
0.749302
0.780285
0.806826
0.826875
0.840365
0.848276
0.851897
0.852421
0.850789
0.847684
0.843587
0.838836
0.833591
0.82777
0.820029
0.810669
0.800262
0.789172
0.777638
0.765818
0.75382
0.741716
0.729553
0.717358
0.705151
0.692938
0.680721
0.668492
0.656236
0.64392
0.631481
0.618859
0.605955
0.592652
0.578816
0.564309
0.548995
0.532756
0.515501
0.497177
0.477781
0.457363
0.436025
0.41392
0.391245
0.368227
0.345116
0.322169
0.299638
0.277757
0.256735
0.236747
0.21793
0.200379
0.184153
0.169276
0.15574
0.143507
0.132514
0.122691
0.113956
0.106223
0.0993965
0.0933833
0.0880903
0.0834309
0.0793265
0.0757088
0.0725223
0.0697161
0.0672432
0.0650625
0.0631375
0.0614356
0.0599285
0.0585917
0.0574044
0.0563491
0.0554113
0.0545791
0.0538426
0.0531934
0.0526248
0.0521308
0.0517069
0.0513494
0.051056
0.0508268
0.0506637
0.0505745
0.0505671
0.0506612
1.70962
0.775185
0.695437
0.675513
0.622507
0.556372
0.496304
0.448303
0.410719
0.380007
0.353611
0.329158
0.303852
0.275953
0.245983
0.216046
0.188465
0.16521
0.149136
0.145659
0.151078
0.161229
0.175384
0.193264
0.215096
0.241373
0.273342
0.315386
0.38049
0.499292
0.728786
1.13211
1.62741
1.90342
1.82172
1.58202
1.35345
1.17528
1.0393
0.933216
0.848528
0.780455
0.726788
0.686559
0.658958
0.64271
0.635953
0.636455
0.641981
0.650614
0.660976
0.672283
0.684277
0.697056
0.710878
0.725988
0.74249
0.760287
0.779057
0.798261
0.817182
0.835022
0.85091
0.862499
0.869436
0.871426
0.868074
0.859263
0.845115
0.825954
0.802298
0.774949
0.74508
0.714161
0.684159
0.657533
0.635951
0.620767
0.612927
0.611662
0.615282
0.621565
0.627449
0.631491
0.635114
0.641893
0.656189
0.681057
0.715338
0.749048
0.778556
0.801048
0.816328
0.825503
0.830033
0.831261
0.830243
0.827744
0.824292
0.820248
0.815814
0.811028
0.805197
0.797852
0.789443
0.780265
0.77052
0.760346
0.749839
0.739071
0.728098
0.716962
0.705695
0.694323
0.682867
0.671343
0.659759
0.648112
0.636381
0.624523
0.61249
0.600195
0.587534
0.574382
0.560606
0.54607
0.530652
0.514248
0.496792
0.478259
0.458675
0.438118
0.416718
0.39465
0.372124
0.349379
0.326662
0.304226
0.282308
0.261125
0.240864
0.221678
0.20368
0.186949
0.17153
0.15744
0.144657
0.133142
0.122841
0.11369
0.105608
0.0985051
0.0922841
0.0868451
0.0820915
0.0779349
0.0742971
0.0711146
0.0683294
0.0658907
0.0637543
0.0618816
0.0602384
0.058795
0.0575253
0.0564075
0.0554229
0.0545557
0.0537931
0.053124
0.0525395
0.0520321
0.0515953
0.0512244
0.0509156
0.0506671
0.0504789
0.0503552
0.0503009
0.0503277
1.60155
0.72938
0.725098
0.702966
0.641352
0.570701
0.509054
0.460475
0.42281
0.39264
0.36722
0.343607
0.318714
0.29101
0.261363
0.232227
0.206429
0.186432
0.174055
0.170551
0.173739
0.182403
0.195938
0.214285
0.238062
0.268994
0.311279
0.374716
0.479263
0.657665
0.945455
1.32557
1.6359
1.69348
1.53432
1.32064
1.14034
1.00392
0.900393
0.819632
0.755736
0.706133
0.669982
0.646732
0.635256
0.633612
0.63929
0.64968
0.662541
0.676326
0.690278
0.70433
0.718863
0.734443
0.751605
0.770705
0.791848
0.814853
0.839249
0.864288
0.888936
0.911896
0.931988
0.946508
0.955547
0.9583
0.954391
0.943896
0.92726
0.905112
0.878029
0.846704
0.812274
0.775872
0.738883
0.704747
0.675921
0.65371
0.640021
0.634411
0.634202
0.636333
0.637454
0.635655
0.632098
0.63101
0.637691
0.655922
0.685801
0.722992
0.755577
0.780127
0.796645
0.806556
0.811566
0.813178
0.812552
0.810514
0.807626
0.804249
0.800589
0.796714
0.792519
0.787089
0.780601
0.773255
0.765203
0.756564
0.747429
0.737874
0.727965
0.71776
0.707309
0.696654
0.685836
0.674886
0.663833
0.652695
0.641478
0.63016
0.618722
0.60711
0.59525
0.583042
0.570369
0.557101
0.543104
0.528251
0.512436
0.495581
0.477651
0.458655
0.438655
0.417765
0.396142
0.373985
0.351519
0.328986
0.306634
0.284702
0.263412
0.242957
0.2235
0.205169
0.188057
0.172235
0.157724
0.144522
0.132609
0.121951
0.112495
0.10417
0.0968897
0.0905539
0.0850563
0.0802911
0.0761592
0.0725734
0.0694607
0.0667558
0.0644038
0.0623575
0.0605764
0.059025
0.0576726
0.0564927
0.0554626
0.0545631
0.0537778
0.0530933
0.0524981
0.0519828
0.0515397
0.0511625
0.0508463
0.050588
0.0503865
0.0502432
0.0501617
0.0501483
1.46004
0.728079
0.765263
0.736783
0.670451
0.597861
0.533833
0.482804
0.443676
0.413414
0.388923
0.367003
0.344613
0.320089
0.293805
0.267659
0.244095
0.225429
0.213563
0.209901
0.212558
0.221197
0.235927
0.257461
0.287572
0.329911
0.391436
0.484322
0.626707
0.837793
1.11485
1.38487
1.51608
1.45668
1.29004
1.1192
0.983753
0.881717
0.803223
0.741576
0.693941
0.65971
0.638723
0.630088
0.631811
0.64107
0.654826
0.670456
0.686205
0.701314
0.715883
0.730559
0.746209
0.763662
0.783554
0.806245
0.831785
0.859877
0.889855
0.920657
0.950887
0.978892
1.00204
1.01987
1.03113
1.03456
1.02958
1.01634
0.995713
0.969111
0.937511
0.901577
0.862584
0.822574
0.781295
0.74145
0.708752
0.682992
0.665453
0.655876
0.652151
0.650544
0.647067
0.639693
0.6301
0.623322
0.625263
0.639764
0.666752
0.702157
0.737897
0.763732
0.780651
0.790609
0.795598
0.797261
0.796824
0.795142
0.792776
0.790065
0.787185
0.78419
0.781047
0.777499
0.772863
0.767291
0.760858
0.75366
0.745793
0.737343
0.728391
0.719012
0.709275
0.699244
0.688973
0.678512
0.667903
0.65718
0.646368
0.635467
0.624472
0.613358
0.602074
0.590549
0.578685
0.566369
0.553471
0.539858
0.525405
0.51
0.493562
0.476049
0.45746
0.437848
0.417315
0.396007
0.374112
0.351847
0.32945
0.307163
0.285226
0.263863
0.243274
0.223628
0.205061
0.18769
0.171586
0.156778
0.143284
0.131098
0.120202
0.110553
0.102088
0.0947229
0.0883564
0.0828759
0.0781671
0.074121
0.0706422
0.0676475
0.0650655
0.0628369
0.0609121
0.0592487
0.0578107
0.0565669
0.0554906
0.054559
0.0537526
0.053055
0.0524525
0.0519337
0.0514889
0.0511107
0.0507931
0.0505318
0.0503246
0.0501716
0.0500746
0.0500377
1.29966
0.760033
0.810238
0.78016
0.711366
0.635888
0.568098
0.513277
0.471592
0.440467
0.416694
0.397116
0.378852
0.359959
0.339981
0.319811
0.301121
0.285858
0.275987
0.273322
0.276971
0.287687
0.306219
0.334066
0.373942
0.430413
0.5106
0.624341
0.781701
0.982136
1.19139
1.33432
1.34825
1.24762
1.10441
0.975211
0.874737
0.797459
0.736644
0.689208
0.654808
0.633838
0.625881
0.629098
0.64047
0.656523
0.674155
0.691237
0.706829
0.721032
0.734626
0.748673
0.764218
0.782125
0.803
0.827176
0.854683
0.885215
0.918072
0.952075
0.985469
1.01613
1.04291
1.065
1.08012
1.0863
1.08241
1.06823
1.04449
1.01366
0.977869
0.93775
0.893277
0.850052
0.807445
0.767132
0.73155
0.70306
0.683157
0.671497
0.665434
0.660546
0.652568
0.640039
0.62577
0.615719
0.615942
0.629661
0.655945
0.690189
0.725831
0.751464
0.767634
0.776846
0.781307
0.782726
0.782332
0.780954
0.779114
0.777098
0.775029
0.772916
0.770709
0.768315
0.765492
0.761598
0.756715
0.75089
0.744212
0.736783
0.728704
0.720071
0.710974
0.701496
0.69171
0.68168
0.671463
0.661106
0.650645
0.640097
0.62947
0.618755
0.607925
0.596928
0.585691
0.574115
0.562087
0.549479
0.536156
0.521993
0.506879
0.490731
0.473501
0.455187
0.435835
0.415539
0.394441
0.372721
0.350591
0.328284
0.30604
0.284101
0.262692
0.242016
0.222251
0.203546
0.186023
0.169749
0.154768
0.141108
0.128777
0.117764
0.108035
0.0995316
0.0921718
0.085852
0.0804551
0.0758589
0.071947
0.0686154
0.0657723
0.0633412
0.0612592
0.0594746
0.0579439
0.0566308
0.0555042
0.0545375
0.0537082
0.0529971
0.0523879
0.051867
0.0514232
0.0510474
0.0507323
0.0504727
0.0502653
0.0501089
0.0500044
0.0499542
1.14364
0.793441
0.857846
0.829966
0.761519
0.684383
0.612935
0.553517
0.50795
0.474541
0.450288
0.432253
0.417901
0.405314
0.393464
0.382261
0.372329
0.364726
0.360749
0.361823
0.368933
0.383617
0.407114
0.441303
0.489048
0.554506
0.643087
0.7599
0.904109
1.05812
1.18176
1.23008
1.18858
1.08756
0.974664
0.878107
0.801793
0.741011
0.69259
0.656335
0.633277
0.623777
0.626529
0.638606
0.656209
0.675664
0.694238
0.710526
0.724376
0.736508
0.748046
0.760152
0.773816
0.789786
0.808575
0.830482
0.855599
0.883775
0.914548
0.946969
0.979521
1.01052
1.04042
1.06673
1.08679
1.0978
1.09809
1.08695
1.06409
1.0313
0.993694
0.95205
0.908075
0.863196
0.81893
0.777317
0.740869
0.711999
0.692003
0.679989
0.672474
0.664448
0.652003
0.635065
0.618013
0.607483
0.608977
0.624413
0.651586
0.685217
0.7187
0.742356
0.756599
0.764349
0.767883
0.768872
0.76847
0.767421
0.76616
0.764894
0.763673
0.762451
0.761136
0.759627
0.757818
0.755547
0.752138
0.747635
0.742099
0.735638
0.728376
0.720436
0.71193
0.70296
0.69362
0.683988
0.674135
0.664119
0.653985
0.643764
0.633472
0.623113
0.612675
0.602125
0.591407
0.580442
0.569132
0.557357
0.54499
0.531897
0.517952
0.503045
0.487094
0.47005
0.45191
0.432719
0.412567
0.391593
0.369974
0.347919
0.32566
0.303438
0.281496
0.260063
0.239347
0.21953
0.200781
0.183204
0.166873
0.151843
0.138147
0.125799
0.114793
0.105097
0.0966557
0.0893868
0.0831852
0.0779295
0.0734923
0.0697517
0.0665949
0.0639248
0.0616609
0.0597378
0.0581021
0.05671
0.055525
0.0545167
0.053659
0.05293
0.052311
0.0517864
0.0513429
0.0509698
0.0506586
0.0504028
0.0501981
0.0500423
0.0499353
0.0498781
0.990716
0.820087
0.900988
0.881519
0.818595
0.743547
0.670733
0.607204
0.556907
0.519666
0.493095
0.47454
0.46179
0.453176
0.447587
0.444451
0.443629
0.445292
0.449818
0.457757
0.471163
0.491195
0.519349
0.557603
0.608583
0.675396
0.76055
0.862953
0.973034
1.06967
1.12563
1.12252
1.0648
0.978232
0.891003
0.816636
0.755659
0.705724
0.666601
0.639808
0.62668
0.626881
0.638056
0.656405
0.67773
0.698501
0.716518
0.731051
0.742523
0.752001
0.760712
0.769745
0.779931
0.791841
0.805842
0.822147
0.840888
0.862179
0.886027
0.912017
0.939548
0.969228
0.999098
1.02715
1.05083
1.06615
1.07143
1.06572
1.04876
1.02173
0.98678
0.946384
0.902819
0.858062
0.814085
0.773222
0.738135
0.711135
0.69298
0.681773
0.673012
0.661553
0.644803
0.624839
0.607571
0.59959
0.604986
0.623829
0.652531
0.685309
0.715512
0.735188
0.746443
0.7522
0.754594
0.755124
0.754782
0.754167
0.753584
0.753136
0.752792
0.752453
0.751989
0.751278
0.750219
0.748721
0.746668
0.743455
0.739042
0.73353
0.72706
0.719785
0.711842
0.703356
0.69444
0.685189
0.675686
0.666
0.656186
0.646285
0.636317
0.626298
0.616228
0.606085
0.595829
0.585398
0.574707
0.563651
0.55211
0.539954
0.527048
0.513268
0.498506
0.482679
0.465743
0.447696
0.428582
0.408494
0.387569
0.365984
0.34395
0.321701
0.299482
0.277538
0.256104
0.235393
0.215607
0.196895
0.179363
0.163091
0.148138
0.134537
0.122303
0.111426
0.101875
0.0935922
0.086495
0.0804764
0.0754127
0.0711734
0.0676303
0.0646665
0.0621817
0.0600928
0.0583328
0.0568475
0.0555931
0.0545336
0.0536393
0.052885
0.0522498
0.0517159
0.0512682
0.0508946
0.050585
0.0503319
0.0501297
0.0499751
0.0498673
0.0498063
0.841833
0.83085
0.931189
0.926637
0.877117
0.811713
0.743708
0.679206
0.62503
0.583439
0.553257
0.532312
0.518669
0.510862
0.507901
0.509185
0.514354
0.523127
0.5352
0.550292
0.570672
0.596166
0.628059
0.668004
0.717808
0.778717
0.849903
0.926314
0.997168
1.04733
1.06276
1.03817
0.981621
0.91076
0.841695
0.781324
0.730108
0.688078
0.656897
0.638736
0.635025
0.643892
0.661678
0.684259
0.707573
0.728513
0.745408
0.757989
0.766989
0.773601