/*--------------------------------*- C++ -*----------------------------------*\
| =========                 |                                                 |
| \\      /  F ield         | OpenFOAM: The Open Source CFD Toolbox           |
|  \\    /   O peration     | Version:  2112                                  |
|   \\  /    A nd           | Website:  www.openfoam.com                      |
|    \\/     M anipulation  |                                                 |
\*---------------------------------------------------------------------------*/
FoamFile
{
    version     2.0;
    format      ascii;
    arch        "LSB;label=32;scalar=64";
    class       volScalarField;
    location    "0.03";
    object      p;
}
// * * * * * * * * * * * * * * * * * * * * * * * * * * * * * * * * * * * * * //

dimensions      [0 2 -2 0 0 0 0];

internalField   nonuniform List<scalar> 
12225
(
2.7976
1.16104
0.438604
0.0155679
-0.459062
-0.913387
-1.26237
-1.5088
-1.68633
-1.82358
-1.94137
-2.05637
-2.179
-2.31171
-2.45322
-2.59605
-2.74186
-2.76171
2.15887
1.11547
0.472034
0.0668664
-0.375047
-0.80575
-1.14326
-1.38571
-1.56376
-1.70315
-1.82334
-1.94089
-2.0661
-2.20052
-2.34391
-2.49982
-2.67384
-3.00489
1.78874
1.10452
0.463956
0.0327978
-0.396029
-0.809073
-1.13964
-1.38579
-1.57507
-1.72863
-1.86195
-1.99023
-2.12311
-2.2641
-2.41469
-2.57856
-2.7659
-3.02173
1.47881
0.981893
0.394142
-0.0206549
-0.412682
-0.789329
-1.10043
-1.34053
-1.53188
-1.69114
-1.8304
-1.96446
-2.1028
-2.2494
-2.40661
-2.57889
-2.77105
-3.00164
1.20979
0.831413
0.310957
-0.0827319
-0.444214
-0.792216
-1.08899
-1.32479
-1.51466
-1.67568
-1.82205
-1.96607
-2.11405
-2.26841
-2.43284
-2.61306
-2.81378
-3.05084
0.975434
0.695042
0.235496
-0.139622
-0.479375
-0.806998
-1.09179
-1.32279
-1.51112
-1.6754
-1.82989
-1.98154
-2.13485
-2.29597
-2.46847
-2.65713
-2.86735
-3.10982
0.762021
0.56433
0.164465
-0.189408
-0.509568
-0.816965
-1.08838
-1.31452
-1.50509
-1.67521
-1.83484
-1.98843
-2.14403
-2.31073
-2.49001
-2.68441
-2.89864
-3.13977
0.566622
0.431269
0.0889677
-0.238738
-0.537732
-0.824531
-1.08214
-1.30226
-1.4922
-1.66315
-1.82321
-1.97763
-2.13489
-2.30137
-2.47921
-2.6715
-2.88264
-3.11651
0.38875
0.298786
0.00856599
-0.290975
-0.568221
-0.834837
-1.0784
-1.29113
-1.47795
-1.64749
-1.80689
-1.96158
-2.11804
-2.28136
-2.45478
-2.64171
-2.84621
-3.07011
0.227035
0.169992
-0.0744828
-0.345648
-0.601499
-0.848669
-1.07805
-1.28254
-1.46521
-1.63277
-1.79114
-1.94516
-2.09998
-2.26014
-2.42896
-2.6093
-2.80434
-3.01443
0.0796707
0.0464497
-0.158595
-0.401778
-0.636654
-0.865155
-1.08038
-1.27601
-1.45366
-1.61828
-1.7746
-1.92675
-2.07899
-2.23514
-2.39803
-2.5698
-2.75266
-2.9457
-0.0438479
-0.0614897
-0.235422
-0.453825
-0.669962
-0.882043
-1.08442
-1.27142
-1.44354
-1.60439
-1.75767
-1.90686
-2.05545
-2.20653
-2.3624
-2.52462
-2.69457
-2.87044
-0.154872
-0.164271
-0.309487
-0.504507
-0.703064
-0.899629
-1.08952
-1.26773
-1.43379
-1.59009
-1.73946
-1.88465
-2.02844
-2.17326
-2.32089
-2.4724
-2.6284
-2.78665
-0.265273
-0.274436
-0.390345
-0.560221
-0.740008
-0.920057
-1.09627
-1.26434
-1.42296
-1.57329
-1.71723
-1.85673
-1.99375
-2.13002
-2.26678
-2.40465
-2.54364
-2.68142
-0.366419
-0.380773
-0.472946
-0.618295
-0.778987
-0.942221
-1.10403
-1.26083
-1.41069
-1.55367
-1.69066
-1.82274
-1.951
-2.07641
-2.19968
-2.32108
-2.44029
-2.55526
-0.453681
-0.46975
-0.547283
-0.672163
-0.815478
-0.962883
-1.1105
-1.25557
-1.39585
-1.53044
-1.65934
-1.78279
-1.90101
-2.0142
-2.12243
-2.22551
-2.3229
-2.41353
-0.521693
-0.534935
-0.601418
-0.711669
-0.841348
-0.975503
-1.11063
-1.2448
-1.3757
-1.50178
-1.62234
-1.73693
-1.84514
-1.94649
-2.04064
-2.12739
-2.20673
-2.27918
-0.5538
-0.564784
-0.622989
-0.723442
-0.843825
-0.9691
-1.09555
-1.2216
-1.34501
-1.46384
-1.57698
-1.68376
-1.78365
-1.87624
-1.9612
-2.03767
-2.1038
-2.15912
-0.524307
-0.53504
-0.590387
-0.687008
-0.804328
-0.927133
-1.05112
-1.17446
-1.29473
-1.40984
-1.51855
-1.62012
-1.71396
-1.79942
-1.87535
-1.93991
-1.99363
-2.04041
-0.422218
-0.434561
-0.495626
-0.599019
-0.723111
-0.852872
-0.983461
-1.11206
-1.23569
-1.35217
-1.46022
-1.55907
-1.64815
-1.7271
-1.79588
-1.85492
-1.90559
-1.95017
-0.293009
-0.301795
-0.372481
-0.492175
-0.630284
-0.772691
-0.914853
-1.05285
-1.18312
-1.30353
-1.41304
-1.51115
-1.5978
-1.67352
-1.73937
-1.79696
-1.84826
-1.89547
-0.129153
-0.135138
-0.226891
-0.371988
-0.530165
-0.689963
-0.847691
-0.998133
-1.13727
-1.26348
-1.37641
-1.47621
-1.56362
-1.64
-1.70708
-1.76664
-1.8204
-1.87013
0.0645026
0.0509522
-0.0744732
-0.250167
-0.430643
-0.610611
-0.786764
-0.951933
-1.10184
-1.2357
-1.354
-1.4575
-1.54752
-1.62588
-1.69454
-1.75534
-1.81009
-1.86051
0.280577
0.244777
0.0747364
-0.133592
-0.336884
-0.538917
-0.73515
-0.916095
-1.07779
-1.22067
-1.34557
-1.45329
-1.54554
-1.62468
-1.69302
-1.75267
-1.80663
-1.85739
0.516729
0.438861
0.212787
-0.0248317
-0.24853
-0.473617
-0.690807
-0.887634
-1.0605
-1.212
-1.34369
-1.45545
-1.54896
-1.62718
-1.69259
-1.74663
-1.79413
-1.8402
0.774381
0.631529
0.341558
0.0842428
-0.154952
-0.404506
-0.645373
-0.860613
-1.04549
-1.20355
-1.33957
-1.45337
-1.54666
-1.62307
-1.68635
-1.74008
-1.78743
-1.83155
1.06474
0.847064
0.478095
0.197244
-0.0603322
-0.336003
-0.600838
-0.835103
-1.03741
-1.20863
-1.35021
-1.46406
-1.55415
-1.62537
-1.68304
-1.73303
-1.77693
-1.81422
1.39339
1.05246
0.615185
0.309052
0.0160768
-0.294963
-0.58743
-0.843988
-1.06781
-1.25787
-1.41053
-1.52984
-1.62228
-1.69386
-1.75031
-1.79652
-1.83629
-1.87205
1.76931
1.08963
0.639466
0.372177
0.0723182
-0.255095
-0.559883
-0.827324
-1.05873
-1.25212
-1.40407
-1.51861
-1.60296
-1.66393
-1.70792
-1.7405
-1.76691
-1.78961
2.50794
1.21545
0.662686
0.388402
0.0566726
-0.305257
-0.634425
-0.918804
-1.16249
-1.36465
-1.52324
-1.6417
-1.72764
-1.78925
-1.83339
-1.86544
-1.8907
-1.90852
-5.86193
-5.98816
-6.05925
-6.03566
-5.7672
-5.21116
-4.5228
-3.92369
-3.63887
-3.72938
-4.20932
-5.02692
-6.08615
-7.27591
-8.48857
-9.62401
-10.5888
-11.302
-11.6978
-11.8512
-11.8327
-11.6999
-11.5107
-11.3421
-11.2669
-11.3254
-11.5074
-11.7352
-11.9433
-12.1391
-12.3038
-12.3671
-12.2719
-11.9882
-11.5364
-11.1677
-11.1004
-11.3401
-11.6697
-11.9111
-12.0904
-12.2652
-12.4833
-12.7781
-13.185
-13.7378
-14.4653
-15.3865
-16.5117
-17.846
-19.3857
-21.1124
-22.9932
-24.9832
-27.029
-29.0726
-31.0566
-32.9272
-34.6374
-36.1481
-37.4296
-38.4593
-39.2203
-39.7065
-39.9207
-39.8692
-39.5613
-39.0088
-38.2268
-37.2337
-36.0416
-34.6446
-33.0251
-31.1809
-29.1142
-26.8178
-24.2795
-21.4855
-18.4241
-15.0902
-11.4921
-7.65824
-3.63936
0.4954
4.65995
8.74903
12.6501
16.2566
19.4794
22.257
24.5609
26.398
27.805
28.8299
29.5176
29.9154
30.0741
30.0428
29.8605
29.561
29.1727
28.7203
28.2286
27.7175
27.2017
26.6923
26.1975
25.7232
25.2737
24.852
24.4617
24.1091
23.7631
23.4324
23.1172
22.8187
22.5389
22.2793
22.0403
21.8219
21.6231
21.4427
21.279
21.1301
20.9946
20.871
20.7581
20.6547
20.5601
20.4736
20.3947
20.3229
20.2569
20.196
20.1399
20.0884
20.0414
19.9988
19.9601
19.9251
19.8937
19.8653
19.8395
19.8158
19.7939
19.7735
19.754
19.7354
19.7173
19.6995
19.6819
19.6644
19.6468
19.6293
19.6117
19.5941
19.5766
19.5591
19.5419
19.5248
19.5082
19.4921
19.4766
19.4619
19.448
19.4354
19.4241
19.4146
19.4071
19.4024
19.401
19.4039
19.4123
19.4276
19.4522
19.4875
19.542
19.6045
19.732
19.7713
-6.4333
-6.64303
-6.86446
-6.92577
-6.61983
-6.12002
-5.57206
-5.17993
-5.08321
-5.33006
-5.9104
-6.76855
-7.82084
-8.9779
-10.1552
-11.2732
-12.2642
-13.0819
-13.7055
-14.0329
-14.034
-13.7398
-13.2469
-12.6924
-12.2208
-11.9414
-11.879
-11.9459
-12.0355
-12.1746
-12.4139
-12.6259
-12.6724
-12.4933
-12.1107
-11.7503
-11.6833
-11.9064
-12.182
-12.3137
-12.2731
-12.2256
-12.2962
-12.5115
-12.8734
-13.4016
-14.1269
-15.0753
-16.2645
-17.7034
-19.3835
-21.276
-23.3341
-25.498
-27.701
-29.8759
-31.9594
-33.8958
-35.639
-37.1534
-38.4132
-39.4024
-40.1162
-40.5538
-40.7164
-40.6111
-40.2495
-39.6447
-38.8092
-37.7519
-36.4827
-35.0177
-33.373
-31.5436
-29.5143
-27.2712
-24.7979
-22.0768
-19.0913
-15.8301
-12.2934
-8.50304
-4.50811
-0.377941
3.80068
7.92247
11.8687
15.5281
18.8083
21.6464
24.0141
25.916
27.3798
28.4405
29.1313
29.5161
29.6633
29.6309
29.4578
29.1761
28.8155
28.3963
27.9376
27.4582
26.9723
26.4903
26.02
25.567
25.1351
24.7266
24.341
23.9718
23.6378
23.3238
23.032
22.7555
22.4952
22.2516
22.0253
21.8165
21.6249
21.4494
21.2889
21.1421
21.0076
20.8843
20.7711
20.6671
20.5718
20.4843
20.4046
20.3323
20.2658
20.204
20.1471
20.0949
20.0473
20.004
19.9648
19.9294
19.8975
19.8687
19.8424
19.8183
19.7961
19.7754
19.7557
19.7369
19.7186
19.7006
19.6829
19.6653
19.6477
19.63
19.6124
19.5948
19.5772
19.5597
19.5424
19.5253
19.5087
19.4925
19.4769
19.4621
19.4483
19.4355
19.4241
19.4145
19.4069
19.4019
19.4003
19.4029
19.4108
19.4255
19.4491
19.4826
19.5336
19.5914
19.7059
19.7261
-6.68121
-6.74477
-6.81951
-6.84792
-6.78632
-6.66013
-6.59009
-6.69666
-7.04219
-7.63532
-8.45079
-9.44312
-10.5544
-11.7216
-12.8795
-13.9649
-14.9221
-15.7057
-16.2823
-16.6282
-16.7421
-16.6289
-16.31
-15.8145
-15.1855
-14.4849
-13.7891
-13.1747
-12.7091
-12.4422
-12.3464
-12.2995
-12.1995
-12.0052
-11.6991
-11.5008
-11.6076
-11.9192
-12.2063
-12.3429
-12.3474
-12.3414
-12.4611
-12.7607
-13.2786
-14.0588
-15.1246
-16.4759
-18.0945
-19.9451
-21.9775
-24.1332
-26.3506
-28.5693
-30.7334
-32.7936
-34.7075
-36.4401
-37.9627
-39.2534
-40.2958
-41.0794
-41.6001
-41.8593
-41.8622
-41.618
-41.1391
-40.4396
-39.534
-38.4335
-37.1451
-35.6766
-34.0353
-32.2214
-30.2264
-28.0359
-25.6303
-22.9866
-20.0813
-16.8953
-13.4219
-9.67525
-5.69309
-1.53781
2.7008
6.90802
10.9581
14.7293
18.1199
21.0598
23.5163
25.4907
27.0088
28.1101
28.8385
29.2533
29.4227
29.4048
29.242
28.9691
28.6175
28.2099
27.763
27.2964
26.824
26.3552
25.8973
25.4561
25.035
24.6362
24.2602
23.9067
23.5785
23.2696
22.9762
22.703
22.4479
22.2097
21.9886
21.7845
21.5967
21.4243
21.2663
21.1215
20.9889
20.8673
20.7557
20.6533
20.5593
20.473
20.3938
20.3211
20.2543
20.1932
20.1371
20.0858
20.0389
19.9964
19.9579
19.9233
19.8924
19.8644
19.8388
19.8152
19.7935
19.7731
19.7538
19.7353
19.7173
19.6995
19.682
19.6645
19.6469
19.6293
19.6117
19.5941
19.5764
19.5589
19.5414
19.5243
19.5075
19.4912
19.4755
19.4605
19.4465
19.4335
19.4218
19.4118
19.4037
19.3982
19.3958
19.3974
19.4039
19.4167
19.4378
19.4678
19.5133
19.5641
19.6586
19.6603
-6.54366
-6.48532
-6.54382
-6.72676
-7.01792
-7.41805
-7.94011
-8.59869
-9.39896
-10.3344
-11.3871
-12.5289
-13.722
-14.9223
-16.0832
-17.1581
-18.1031
-18.8795
-19.4556
-19.8066
-19.9197
-19.7948
-19.4432
-18.8802
-18.1215
-17.1861
-16.1074
-14.9473
-13.7996
-12.7692
-11.9268
-11.2845
-10.8111
-10.4583
-10.2851
-10.3653
-10.7743
-11.2115
-11.6308
-11.9517
-12.2201
-12.5399
-13.018
-13.7323
-14.7269
-16.0136
-17.5707
-19.3564
-21.3185
-23.4009
-25.5498
-27.7169
-29.8598
-31.9411
-33.9277
-35.7892
-37.4973
-39.0261
-40.3523
-41.4561
-42.3215
-42.9372
-43.2978
-43.4044
-43.2648
-42.8887
-42.2879
-41.4791
-40.4769
-39.2973
-37.9561
-36.4639
-34.8265
-33.0432
-31.1061
-28.9995
-26.7006
-24.1806
-21.4076
-18.3521
-14.9949
-11.3346
-7.39572
-3.23493
1.05917
5.36633
9.54849
13.4682
17.0077
20.0846
22.6586
24.7283
26.3211
27.4834
28.2699
28.7422
28.9648
28.9933
28.8717
28.6359
28.3143
27.9334
27.5123
27.0696
26.6191
26.1703
25.7307
25.3058
24.8994
24.5135
24.1491
23.8057
23.4837
23.1815
22.8982
22.6345
22.3884
22.1593
21.9469
21.7508
21.57
21.4036
21.2506
21.1101
20.9808
20.862
20.7526
20.6519
20.5591
20.4736
20.3948
20.3219
20.2552
20.1943
20.1384
20.0872
20.0405
19.9979
19.9592
19.924
19.8921
19.8631
19.8369
19.813
19.7909
19.7704
19.751
19.7324
19.7144
19.6967
19.6793
19.6619
19.6445
19.6271
19.6096
19.5922
19.5749
19.5575
19.5402
19.5231
19.5063
19.49
19.4741
19.459
19.4446
19.4313
19.4191
19.4084
19.3995
19.3929
19.3891
19.3889
19.393
19.4025
19.419
19.4429
19.4788
19.5175
19.5848
19.5792
-6.69802
-6.5886
-6.72126
-7.15028
-7.83193
-8.68272
-9.64274
-10.6886
-11.814
-13.0118
-14.2669
-15.5549
-16.8448
-18.1028
-19.2934
-20.3806
-21.3285
-22.1017
-22.6685
-23.0024
-23.0853
-22.9052
-22.4652
-21.7766
-20.8527
-19.7059
-18.3481
-16.8006
-15.1151
-13.3942
-11.7854
-10.4366
-9.44477
-8.86046
-8.73529
-8.99862
-9.45313
-10.1365
-10.823
-11.5283
-12.2925
-13.1862
-14.2753
-15.5954
-17.1463
-18.9005
-20.8143
-22.8392
-24.9302
-27.0482
-29.1611
-31.2415
-33.2648
-35.2072
-37.0444
-38.7513
-40.3022
-41.6724
-42.839
-43.782
-44.4862
-44.9412
-45.143
-45.0941
-44.8028
-44.28
-43.5391
-42.6001
-41.4868
-40.2189
-38.8134
-37.2841
-35.6397
-33.8817
-32.0034
-29.9894
-27.8146
-25.4455
-22.8424
-19.9635
-16.7736
-13.2527
-9.40626
-5.27557
-0.945306
3.45815
7.78159
11.8682
15.5798
18.8176
21.5326
23.7215
25.4107
26.6596
27.5229
28.0666
28.3537
28.4396
28.3699
28.1822
27.9049
27.5637
27.1802
26.7717
26.3527
25.9329
25.5196
25.1182
24.7326
24.3651
24.0168
23.6881
23.3791
23.0891
22.8171
22.5626
22.3248
22.1035
21.8983
21.7084
21.5333
21.3719
21.2234
21.0867
20.9609
20.8451
20.7383
20.6399
20.549
20.4653
20.3879
20.3165
20.2509
20.1907
20.1353
20.0845
20.038
19.9956
19.957
19.9217
19.8894
19.8603
19.834
19.81
19.7879
19.7673
19.7478
19.7292
19.7113
19.6937
19.6763
19.6591
19.6418
19.6245
19.6072
19.5898
19.5724
19.555
19.5378
19.5208
19.5041
19.4877
19.4717
19.4564
19.4417
19.428
19.4152
19.4038
19.394
19.3861
19.3806
19.3782
19.3793
19.3849
19.3959
19.4125
19.4373
19.4624
19.5032
19.4904
-7.22446
-7.12065
-7.47832
-8.23645
-9.21452
-10.323
-11.5251
-12.8021
-14.1413
-15.5253
-16.929
-18.3248
-19.6867
-20.9907
-22.212
-23.3218
-24.2864
-25.0691
-25.6347
-25.9541
-26.0001
-25.7596
-25.2316
-24.4233
-23.3456
-22.0121
-20.436
-18.6295
-16.619
-14.4808
-12.3734
-10.5211
-9.14023
-8.39618
-8.27595
-8.5461
-9.05133
-9.78425
-10.7288
-11.8595
-13.1673
-14.6555
-16.3194
-18.1385
-20.0801
-22.107
-24.1841
-26.282
-28.3775
-30.4528
-32.4921
-34.4798
-36.3988
-38.2293
-39.9492
-41.5341
-42.9588
-44.1985
-45.2301
-46.0337
-46.5942
-46.9021
-46.9548
-46.756
-46.3138
-45.6419
-44.7608
-43.6956
-42.47
-41.1071
-39.6285
-38.0522
-36.3902
-34.6473
-32.8192
-30.8917
-28.8391
-26.6254
-24.205
-21.5264
-18.539
-15.2027
-11.4998
-7.45092
-3.12838
1.3408
5.78832
10.035
13.9194
17.3242
20.1902
22.5096
24.3155
25.6624
26.6159
27.2431
27.607
27.7628
27.7568
27.6275
27.4043
27.1125
26.7746
26.4077
26.0268
25.6419
25.2601
24.887
24.5267
24.1816
23.8532
23.5424
23.2492
22.9735
22.7145
22.4719
22.2453
22.0342
21.838
21.6561
21.4879
21.3326
21.1894
21.0574
20.9358
20.8236
20.72
20.6244
20.5361
20.4545
20.3791
20.3094
20.245
20.1858
20.1313
20.0812
20.0352
19.9932
19.9549
19.9199
19.8881
19.8592
19.833
19.8089
19.7868
19.7661
19.7466
19.7281
19.7101
19.6925
19.6752
19.658
19.6408
19.6236
19.6062
19.5888
19.5712
19.5538
19.5365
19.5194
19.5026
19.486
19.4699
19.4542
19.4392
19.4249
19.4115
19.3992
19.3883
19.3791
19.3718
19.367
19.3651
19.3665
19.372
19.381
19.3946
19.4061
19.4235
19.3991
-8.10846
-8.10605
-8.74638
-9.71645
-10.8172
-12.0311
-13.3516
-14.7575
-16.2208
-17.7082
-19.1882
-20.6376
-22.0414
-23.3858
-24.6514
-25.8076
-26.8136
-27.6228
-28.191
-28.4846
-28.4869
-28.1778
-27.5608
-26.6456
-25.4439
-23.9734
-22.2561
-20.3116
-18.1627
-15.8699
-13.5812
-11.5417
-10.0373
-9.25899
-9.06339
-9.22445
-9.7154
-10.5786
-11.7838
-13.2717
-14.9851
-16.8681
-18.8683
-20.9393
-23.0443
-25.1566
-27.2586
-29.3394
-31.3916
-33.4085
-35.3817
-37.2999
-39.1477
-40.9063
-42.553
-44.0626
-45.4083
-46.5631
-47.5018
-48.2027
-48.6491
-48.8312
-48.7472
-48.4025
-47.8094
-46.9873
-45.9633
-44.7617
-43.4102
-41.9374
-40.3703
-38.7311
-37.036
-35.2929
-33.5002
-31.6448
-29.7017
-27.6327
-25.3877
-22.9073
-20.1283
-16.9932
-13.4639
-9.5413
-5.28204
-0.802524
3.72675
8.10319
12.1399
15.6984
18.7084
21.158
23.0794
24.5312
25.582
26.3002
26.749
26.9833
27.0496
26.9868
26.8254
26.5907
26.3056
25.987
25.6502
25.3054
24.9599
24.6194
24.2881
23.9689
23.6637
23.3735
23.0988
22.8396
22.5957
22.3669
22.1527
21.9527
21.7666
21.5936
21.4334
21.2851
21.1481
21.0215
20.9047
20.7967
20.6969
20.6046
20.5192
20.4402
20.367
20.2992
20.2366
20.1787
20.1253
20.0761
20.031
19.9895
19.9516
19.917
19.8854
19.8567
19.8306
19.8067
19.7846
19.7641
19.7448
19.7264
19.7086
19.6913
19.6741
19.6571
19.64
19.6229
19.6056
19.5882
19.5707
19.5533
19.5359
19.5187
19.5016
19.4848
19.4683
19.4523
19.4367
19.4218
19.4077
19.3945
19.3824
19.3716
19.3624
19.355
19.3499
19.3471
19.3469
19.3484
19.3515
19.3505
19.3477
19.3099
-9.31277
-9.48138
-10.2567
-11.2421
-12.3405
-13.5749
-14.936
-16.3887
-17.8903
-19.4012
-20.8944
-22.3581
-23.788
-25.176
-26.4996
-27.7185
-28.7779
-29.6174
-30.1811
-30.4248
-30.3871
-30.0065
-29.3023
-28.2938
-27
-25.4457
-23.6621
-21.6807
-19.5324
-17.2761
-15.0566
-13.1264
-11.7739
-11.0596
-10.7863
-10.8854
-11.4207
-12.4085
-13.7885
-15.4734
-17.3713
-19.3999
-21.4941
-23.6093
-25.7185
-27.8082
-29.8734
-31.9129
-33.9259
-35.9095
-37.8573
-39.7582
-41.5962
-43.3503
-44.9947
-46.4998
-47.834
-48.9651
-49.8631
-50.5024
-50.864
-50.9374
-50.7216
-50.2251
-49.4663
-48.4719
-47.2713
-45.8986
-44.3887
-42.7758
-41.0912
-39.3614
-37.6062
-35.8365
-34.053
-32.2443
-30.3854
-28.4371
-26.3457
-24.0451
-21.4617
-18.5232
-15.1744
-11.3976
-7.23462
-2.79471
1.75477
6.2043
10.3542
14.0351
17.1646
19.7266
21.7546
23.3084
24.4571
25.2691
25.8067
26.1245
26.2688
26.2782
26.1844
26.0115
25.7834
25.5186
25.2306
24.9299
24.6243
24.3196
24.0205
23.7301
23.4505
23.1832
22.9291
22.6883
22.4612
22.2475
22.0469
21.8594
21.6843
21.5214
21.37
21.2297
21.0996
20.9792
20.8678
20.7647
20.6692
20.5807
20.4987
20.4226
20.3521
20.2866
20.2259
20.1697
20.1177
20.0697
20.0254
19.9847
19.9473
19.9132
19.882
19.8535
19.8276
19.8039
19.782
19.7617
19.7425
19.7243
19.7067
19.6895
19.6725
19.6556
19.6387
19.6217
19.6046
19.5873
19.5698
19.5524
19.535
19.5176
19.5004
19.4833
19.4666
19.4501
19.4341
19.4186
19.4036
19.3894
19.376
19.3636
19.3523
19.3424
19.3339
19.3268
19.321
19.3153
19.3089
19.2967
19.2772
19.2267
-10.5533
-10.8729
-11.602
-12.4952
-13.5375
-14.7402
-16.079
-17.5082
-18.9792
-20.4546
-21.9163
-23.3625
-24.7955
-26.2069
-27.5671
-28.8245
-29.9136
-30.7678
-31.3331
-31.5808
-31.4504
-30.9929
-30.219
-29.15
-27.812
-26.2376
-24.466
-22.5366
-20.49
-18.4045
-16.4459
-14.8448
-13.7679
-13.1416
-12.8764
-13.0231
-13.6408
-14.7131
-16.1631
-17.8902
-19.7958
-21.7999
-23.8468
-25.9034
-27.9541
-29.9941
-32.0245
-34.0473
-36.0636
-38.0707
-40.061
-42.021
-43.9307
-45.7633
-47.4863
-49.0623
-50.4513
-51.6136
-52.5126
-53.118
-53.4086
-53.3745
-53.0175
-52.3531
-51.4054
-50.2065
-48.7962
-47.2172
-45.5123
-43.7224
-41.8845
-40.0293
-38.18
-36.3504
-34.5431
-32.7478
-30.9394
-29.0776
-27.1068
-24.9551
-22.5406
-19.7789
-16.5988
-12.9653
-8.90698
-4.52724
0.000497582
4.46419
8.65802
12.4142
15.6284
18.2767
20.393
22.0375
23.278
24.181
24.8073
25.2099
25.4346
25.5194
25.4962
25.3879
25.2193
25.0116
24.7757
24.5219
24.2587
23.9925
23.7278
23.4683
23.2164
22.9739
22.742
22.5214
22.3123
22.1149
21.9293
21.7551
21.5921
21.44
21.2984
21.1667
21.0443
20.9308
20.8255
20.7278
20.6371
20.5529
20.4747
20.402
20.3344
20.2715
20.213
20.1587
20.1083
20.0616
20.0184
19.9786
19.942
19.9084
19.8776
19.8495
19.8239
19.8004
19.7787
19.7586
19.7397
19.7217
19.7043
19.6874
19.6706
19.6539
19.6372
19.6203
19.6033
19.5861
19.5688
19.5513
19.5338
19.5164
19.499
19.4817
19.4646
19.4478
19.4312
19.415
19.3993
19.384
19.3693
19.3553
19.342
19.3294
19.3176
19.3062
19.2949
19.2824
19.2672
19.2446
19.2116
19.1504
-11.4496
-11.8424
-12.4504
-13.2365
-14.2027
-15.3388
-16.612
-17.9725
-19.3704
-20.7725
-22.1672
-23.5582
-24.9491
-26.3291
-27.6635
-28.8952
-29.9541
-30.7715
-31.2928
-31.487
-31.3381
-30.8577
-30.0646
-28.9932
-27.6759
-26.1521
-24.4675
-22.6713
-20.8258
-19.0356
-17.461
-16.2564
-15.4397
-14.9387
-14.7828
-15.0462
-15.7587
-16.8827
-18.3351
-20.0203
-21.8533
-23.7705
-25.732
-27.717
-29.7183
-31.7362
-33.7742
-35.8355
-37.9204
-40.0245
-42.1366
-44.2379
-46.3011
-48.2909
-50.1648
-51.8752
-53.3723
-54.6073
-55.5364
-56.1242
-56.3473
-56.1971
-55.6816
-54.8229
-53.6537
-52.2174
-50.564
-48.7457
-46.8139
-44.8162
-42.7948
-40.7849
-38.8127
-36.8943
-35.0339
-33.2217
-31.4314
-29.6209
-27.7331
-25.6898
-23.4037
-20.7821
-17.7431
-14.2385
-10.2817
-5.96938
-1.48185
2.95938
7.14018
10.9045
14.1565
16.8596
19.0401
20.758
22.0789
23.0657
23.7762
24.2616
24.566
24.7266
24.7745
24.7327
24.6247
24.4744
24.2926
24.0876
23.8685
23.6422
23.4136
23.1866
22.9639
22.7476
22.5394
22.3401
22.1503
21.9704
21.8005
21.6406
21.4906
21.3501
21.219
21.0966
20.9827
20.8767
20.7781
20.6863
20.6009
20.5214
20.4474
20.3784
20.314
20.254
20.198
20.1459
20.0973
20.0521
20.0102
19.9714
19.9356
19.9027
19.8724
19.8448
19.8194
19.7962
19.7748
19.755
19.7364
19.7187
19.7016
19.6849
19.6684
19.652
19.6355
19.6188
19.6019
19.5848
19.5675
19.5501
19.5326
19.515
19.4975
19.48
19.4626
19.4453
19.4282
19.4114
19.3948
19.3785
19.3624
19.3468
19.3314
19.3162
19.301
19.2855
19.269
19.25
19.2268
19.1949
19.1506
19.0803
-11.7144
-12.1064
-12.6104
-13.3064
-14.1948
-15.2568
-16.4518
-17.7281
-19.0374
-20.3483
-21.651
-22.9491
-24.2458
-25.5297
-26.7671
-27.9033
-28.8723
-29.6096
-30.0642
-30.2078
-30.0315
-29.5435
-28.7659
-27.7316
-26.4811
-25.0621
-23.5303
-21.9507
-20.4058
-19.0011
-17.8445
-16.9891
-16.3993
-16.0806
-16.1012
-16.5168
-17.3329
-18.5
-19.9399
-21.573
-23.3343
-25.1794
-27.0831
-29.035
-31.034
-33.084
-35.19
-37.3553
-39.5787
-41.852
-44.1589
-46.4729
-48.7577
-50.9676
-53.049
-54.9431
-56.5892
-57.9286
-58.9091
-59.4896
-59.6445
-59.3671
-58.6739
-57.5949
-56.1753
-54.4717
-52.5464
-50.4624
-48.2796
-46.052
-43.8267
-41.6418
-39.5261
-37.4972
-35.5601
-33.7057
-31.9048
-30.1121
-28.2758
-26.2986
-24.0975
-21.5721
-18.6325
-15.2225
-11.3502
-7.10985
-2.68071
1.71044
5.84286
9.55977
12.7922
15.5125
17.7313
19.5022
20.8884
21.9482
22.7355
23.2988
23.68
23.9149
24.0331
24.0583
24.0106
23.9147
23.7868
23.6323
23.4583
23.2727
23.0811
22.8876
22.6952
22.5064
22.3229
22.1459
21.9764
21.8149
21.6617
21.5169
21.3806
21.2525
21.1324
21.0201
20.9152
20.8172
20.7258
20.6404
20.5608
20.4864
20.417
20.352
20.2912
20.2343
20.1811
20.1313
20.0847
20.0413
20.0008
19.9632
19.9283
19.8961
19.8665
19.8393
19.8144
19.7915
19.7705
19.7509
19.7326
19.7153
19.6985
19.6822
19.666
19.6498
19.6335
19.6171
19.6003
19.5834
19.5662
19.5488
19.5312
19.5135
19.4958
19.4781
19.4604
19.4427
19.4251
19.4076
19.3902
19.3728
19.3555
19.3381
19.3207
19.3029
19.2846
19.2651
19.2436
19.2186
19.1881
19.1479
19.094
19.0161
-11.2315
-11.5743
-12.0231
-12.6587
-13.4884
-14.4873
-15.6133
-16.8147
-18.0425
-19.2629
-20.4623
-21.6406
-22.7992
-23.9288
-25.0019
-25.974
-26.79
-27.3947
-27.7437
-27.811
-27.5902
-27.0894
-26.3337
-25.3597
-24.2145
-22.9555
-21.6499
-20.3728
-19.2019
-18.2049
-17.4205
-16.8468
-16.484
-16.3862
-16.6159
-17.2065
-18.1432
-19.3719
-20.8253
-22.4421
-24.1767
-26.001
-27.9022
-29.8781
-31.933
-34.0741
-36.3079
-38.6373
-41.0587
-43.5597
-46.1174
-48.6974
-51.2541
-53.7312
-56.064
-58.1816
-60.0116
-61.4842
-62.5377
-63.1224
-63.2079
-62.7925
-61.9035
-60.5808
-58.8851
-56.8889
-54.6694
-52.3017
-49.8545
-47.3869
-44.9502
-42.5832
-40.3152
-38.1642
-36.1347
-34.2215
-32.3863
-30.5877
-28.7595
-26.8142
-24.6549
-22.1779
-19.2898
-15.9338
-12.1202
-7.94769
-3.59712
0.707906
4.75748
8.39608
11.5656
14.2617
16.4902
18.2933
19.7281
20.8482
21.7029
22.3372
22.7904
23.0962
23.283
23.374
23.3875
23.3437
23.2646
23.1596
23.0319
22.8876
22.7334
22.574
22.4127
22.252
22.0941
21.9403
21.792
21.6496
21.5138
21.3849
21.2628
21.1477
21.0394
20.9376
20.8422
20.7528
20.669
20.5906
20.5171
20.4482
20.3836
20.323
20.266
20.2125
20.1622
20.115
20.0707
20.0291
19.9902
19.9539
19.9201
19.8888
19.8599
19.8332
19.8088
19.7863
19.7656
19.7465
19.7285
19.7115
19.6952
19.6792
19.6634
19.6475
19.6315
19.6152
19.5987
19.5819
19.5647
19.5474
19.5298
19.512
19.4941
19.4762
19.4582
19.4401
19.422
19.4038
19.3855
19.3671
19.3485
19.3295
19.3101
19.2898
19.2684
19.2451
19.219
19.1884
19.1512
19.1037
19.0418
18.9573
-10.0139
-10.3171
-10.7493
-11.353
-12.1463
-13.1045
-14.186
-15.3386
-16.5106
-17.6622
-18.7718
-19.8321
-20.8404
-21.7889
-22.6583
-23.4169
-24.0251
-24.442
-24.6342
-24.5822
-24.2833
-23.7488
-23.0097
-22.1097
-21.104
-20.0561
-19.0326
-18.0942
-17.285
-16.6278
-16.127
-15.7914
-15.664
-15.8082
-16.2698
-17.0582
-18.142
-19.4676
-20.9797
-22.6331
-24.398
-26.2598
-28.2155
-30.2702
-32.4333
-34.7151
-37.1237
-39.6613
-42.3219
-45.0887
-47.933
-50.8133
-53.6754
-56.4536
-59.072
-61.4472
-63.4933
-65.1275
-66.2763
-66.8794
-66.8988
-66.3414
-65.2432
-63.659
-61.6675
-59.3602
-56.8322
-54.1724
-51.4584
-48.75
-46.1071
-43.5642
-41.148
-38.875
-36.7498
-34.7619
-32.879
-31.0513
-29.207
-27.2557
-25.0946
-22.6177
-19.7328
-16.3899
-12.6099
-8.50123
-4.24673
-0.0605201
3.86487
7.39658
10.4805
13.1194
15.33
17.1451
18.6122
19.7792
20.6909
21.3883
21.9075
22.2799
22.5319
22.6859
22.7604
22.7712
22.7368
22.6747
22.5916
22.4895
22.3733
22.2482
22.1182
21.9863
21.8546
21.7248
21.5981
21.4756
21.3579
21.2454
21.1382
21.0367
20.9406
20.8499
20.7644
20.684
20.6083
20.5371
20.4701
20.407
20.3476
20.2915
20.2387
20.1888
20.1417
20.0973
20.0553
20.0158
19.9786
19.9438
19.9112
19.8808
19.8527
19.8267
19.8027
19.7807
19.7604
19.7416
19.7241
19.7075
19.6916
19.676
19.6606
19.645
19.6293
19.6133
19.597
19.5803
19.5633
19.5459
19.5283
19.5105
19.4924
19.4742
19.4559
19.4374
19.4188
19.4
19.3809
19.3614
19.3415
19.321
19.2996
19.277
19.2526
19.2257
19.1953
19.1596
19.1165
19.0626
18.9938
18.9037
-8.20656
-8.53561
-8.95844
-9.54241
-10.3168
-11.2565
-12.3204
-13.4553
-14.6068
-15.7277
-16.7858
-17.7633
-18.6504
-19.4379
-20.1113
-20.65
-21.0296
-21.2248
-21.217
-21.0015
-20.5858
-19.9907
-19.2547
-18.4274
-17.565
-16.7236
-15.9509
-15.2791
-14.7236
-14.2908
-13.9951
-13.8763
-13.9945
-14.4013
-15.1179
-16.1283
-17.3896
-18.8509
-20.4672
-22.2067
-24.0525
-26.0005
-28.0562
-30.2312
-32.5394
-34.9944
-37.6052
-40.3739
-43.2922
-46.3401
-49.4844
-52.6782
-55.8607
-58.9575
-61.882
-64.5378
-66.8245
-68.6436
-69.9048
-70.5353
-70.495
-69.8069
-68.5005
-66.6508
-64.3595
-61.7385
-58.9044
-55.9619
-52.9999
-50.0524
-47.2272
-44.5267
-41.977
-39.5926
-37.3764
-35.3149
-33.3745
-31.4998
-29.614
-27.622
-25.4176
-22.8955
-19.9709
-16.608
-12.8453
-8.80371
-4.66518
-0.62719
3.14297
6.53914
9.51907
12.0829
14.2536
16.0624
17.5469
18.7484
19.7071
20.4594
21.0381
21.4718
21.785
21.9988
22.1311
22.1973
22.2111
22.1879
22.1422
22.0801
22.0025
21.9123
21.814
21.7111
21.6061
21.5006
21.3963
21.2941
21.195
21.0994
21.0077
20.9201
20.8367
20.7575
20.6824
20.6113
20.544
20.4804
20.4202
20.3632
20.3092
20.258
20.2094
20.1634
20.1196
20.0781
20.0387
20.0014
19.9661
19.9329
19.9016
19.8723
19.845
19.8197
19.7963
19.7748
19.7549
19.7365
19.7194
19.7033
19.6878
19.6726
19.6576
19.6425
19.6271
19.6114
19.5953
19.5787
19.5618
19.5445
19.5268
19.5089
19.4907
19.4723
19.4537
19.4348
19.4157
19.3962
19.3763
19.3559
19.3348
19.3127
19.2894
19.2645
19.2374
19.2072
19.1727
19.1324
19.084
19.0244
18.9498
18.8549
-6.11578
-6.4631
-6.87766
-7.44514
-8.20547
-9.13648
-10.1975
-11.3348
-12.4925
-13.6185
-14.6698
-15.6168
-16.4395
-17.123
-17.6531
-18.0149
-18.194
-18.1779
-17.9631
-17.5612
-16.9955
-16.3001
-15.5202
-14.7063
-13.9079
-13.1667
-12.5118
-11.9598
-11.5226
-11.2203
-11.093
-11.1973
-11.5853
-12.2822
-13.2782
-14.535
-16.0018
-17.6313
-19.3877
-21.2504
-23.2127
-25.2796
-27.4637
-29.782
-32.2529
-34.8921
-37.71
-40.7084
-43.878
-47.1967
-50.6288
-54.1237
-57.6155
-61.0225
-64.2481
-67.1832
-69.7119
-71.7194
-73.0997
-73.7685
-73.6848
-72.8789
-71.379
-69.2851
-66.7221
-63.8206
-60.719
-57.5289
-54.3436
-51.2284
-48.2411
-45.409
-42.7504
-40.2747
-37.9806
-35.8513
-33.8489
-31.913
-29.9613
-27.8952
-25.6082
-23.0011
-20.0038
-16.6018
-12.8551
-8.89507
-4.89613
-1.03205
2.56044
5.80409
8.66548
11.1397
13.2552
15.0433
16.5329
17.7584
18.7549
19.5545
20.1861
20.6755
21.0452
21.315
21.5018
21.6206
21.6845
21.7046
21.6934
21.6642
21.6224
21.5678
21.5017
21.4281
21.35
21.2693
21.1877
21.1063
21.0262
20.948
20.8721
20.7989
20.7285
20.6612
20.5968
20.5353
20.4767
20.4209
20.3677
20.317
20.2687
20.2225
20.1784
20.1364
20.0961
20.0577
20.021
19.9861
19.9528
19.9212
19.8914
19.8633
19.8369
19.8124
19.7896
19.7686
19.7492
19.7312
19.7145
19.6988
19.6837
19.6691
19.6545
19.6398
19.6248
19.6094
19.5935
19.5772
19.5603
19.5431
19.5254
19.5074
19.4891
19.4704
19.4515
19.4322
19.4126
19.3925
19.3719
19.3505
19.3282
19.3047
19.2797
19.2526
19.2229
19.1895
19.1514
19.1069
19.0538
18.9892
18.9097
18.8108
-3.9908
-4.33035
-4.7224
-5.26214
-5.99429
-6.90377
-7.95151
-9.08389
-10.2479
-11.3913
-12.4634
-13.4215
-14.2328
-14.8718
-15.3182
-15.556
-15.5741
-15.3688
-14.9487
-14.3372
-13.5736
-12.7046
-11.7826
-10.8599
-9.98324
-9.18967
-8.50651
-7.95682
-7.56882
-7.3839
-7.45457
-7.82907
-8.5319
-9.55354
-10.8546
-12.3801
-14.0757
-15.8986
-17.8219
-19.8344
-21.9372
-24.1436
-26.4718
-28.9433
-31.5797
-34.3986
-37.4115
-40.6201
-44.0148
-47.5726
-51.2565
-55.0136
-58.7741
-62.4505
-65.9374
-69.1149
-71.8544
-74.0274
-75.5178
-76.2364
-76.1436
-75.2335
-73.5809
-71.2979
-68.5266
-65.4182
-62.1168
-58.7467
-55.4059
-52.1646
-49.0699
-46.149
-43.4162
-40.8769
-38.5252
-36.3393
-34.2753
-32.2664
-30.225
-28.0505
-25.6409
-22.9104
-19.8131
-16.3637
-12.6451
-8.79367
-4.96651
-1.30552
2.08942
5.16751
7.89128
10.2594
12.3101
14.0668
15.5512
16.7918
17.8185
18.6588
19.3378
19.8783
20.3009
20.6236
20.8627
21.0321
21.1445
21.2107
21.2398
21.2422
21.2303
21.2093
21.1769
21.1336
21.0831
21.0279
20.9698
20.91
20.8496
20.7894
20.7299
20.6717
20.615
20.5599
20.5067
20.4553
20.4058
20.3582
20.3123
20.2682
20.2257
20.1849
20.1455
20.1076
20.0711
20.0359
20.0021
19.9697
19.9385
19.9088
19.8805
19.8537
19.8284
19.8047
19.7826
19.7621
19.7432
19.7257
19.7094
19.6941
19.6795
19.6653
19.6512
19.637
19.6224
19.6073
19.5917
19.5756
19.5589
19.5417
19.524
19.5059
19.4874
19.4686
19.4494
19.4297
19.4096
19.389
19.3676
19.3453
19.3219
19.2971
19.2704
19.2413
19.2091
19.173
19.1316
19.0833
19.026
18.9571
18.8732
18.7709
-2.33354
-2.64979
-3.0026
-3.49118
-4.15859