/*--------------------------------*- C++ -*----------------------------------*\
| =========                 |                                                 |
| \\      /  F ield         | OpenFOAM: The Open Source CFD Toolbox           |
|  \\    /   O peration     | Version:  2112                                  |
|   \\  /    A nd           | Website:  www.openfoam.com                      |
|    \\/     M anipulation  |                                                 |
\*---------------------------------------------------------------------------*/
FoamFile
{
    version     2.0;
    format      ascii;
    arch        "LSB;label=32;scalar=64";
    class       surfaceScalarField;
    location    "0.03";
    object      phi_0;
}
// * * * * * * * * * * * * * * * * * * * * * * * * * * * * * * * * * * * * * //

dimensions      [0 3 -1 0 0 0 0];

oriented        oriented;

internalField   nonuniform List<scalar> 
24170
(
2.94914e-06
2.3927e-07
2.66888e-06
2.80251e-07
2.4095e-06
2.59387e-07
2.17923e-06
2.30272e-07
1.9873e-06
1.91924e-07
1.83676e-06
1.50545e-07
1.72482e-06
1.11938e-07
1.64528e-06
7.95413e-08
1.59061e-06
5.46652e-08
1.55364e-06
3.69695e-08
1.52851e-06
2.5135e-08
1.5108e-06
1.77067e-08
1.49742e-06
1.33777e-08
1.48637e-06
1.10556e-08
1.47638e-06
9.98392e-09
1.46575e-06
1.06361e-08
1.44662e-06
1.91328e-08
2.52405e-08
1.42137e-06
3.5105e-06
1.46023e-07
3.55526e-06
2.35485e-07
3.55699e-06
2.57659e-07
3.52209e-06
2.6517e-07
3.45941e-06
2.54606e-07
3.37966e-06
2.30295e-07
3.29158e-06
2.00014e-07
3.20102e-06
1.70104e-07
3.11146e-06
1.44232e-07
3.02481e-06
1.23619e-07
2.94212e-06
1.07822e-07
2.86387e-06
9.59532e-08
2.79021e-06
8.70436e-08
2.72092e-06
8.03393e-08
2.65561e-06
7.52924e-08
2.59415e-06
7.21019e-08
2.54174e-06
7.15374e-08
6.45541e-08
2.50243e-06
3.69807e-06
1.10466e-07
3.73431e-06
1.99252e-07
3.76583e-06
2.26132e-07
3.79275e-06
2.38254e-07
3.81108e-06
2.36277e-07
3.81954e-06
2.2183e-07
3.81831e-06
2.01245e-07
3.80858e-06
1.79833e-07
3.79206e-06
1.60757e-07
3.77049e-06
1.45183e-07
3.7454e-06
1.32914e-07
3.71783e-06
1.23525e-07
3.68843e-06
1.1644e-07
3.65792e-06
1.10853e-07
3.6268e-06
1.06413e-07
3.59597e-06
1.0293e-07
3.56659e-06
1.00917e-07
9.61628e-08
3.53498e-06
3.94662e-06
8.92307e-08
3.97146e-06
1.74411e-07
3.99322e-06
2.04379e-07
4.01429e-06
2.17186e-07
4.03296e-06
2.17608e-07
4.04759e-06
2.07198e-07
4.0579e-06
1.90931e-07
4.06438e-06
1.73356e-07
4.06814e-06
1.5699e-07
4.07022e-06
1.43109e-07
4.07111e-06
1.32024e-07
4.07115e-06
1.23485e-07
4.07058e-06
1.1701e-07
4.06963e-06
1.11807e-07
4.06852e-06
1.07522e-07
4.06757e-06
1.03874e-07
4.06725e-06
1.01243e-07
9.71236e-08
4.06629e-06
4.223e-06
7.33612e-08
4.24422e-06
1.53191e-07
4.26342e-06
1.85176e-07
4.28162e-06
1.98983e-07
4.29823e-06
2.01003e-07
4.31217e-06
1.93258e-07
4.32319e-06
1.79911e-07
4.33155e-06
1.64996e-07
4.33764e-06
1.50894e-07
4.34217e-06
1.38581e-07
4.3459e-06
1.28299e-07
4.34952e-06
1.1986e-07
4.35355e-06
1.12977e-07
4.35812e-06
1.07238e-07
4.36331e-06
1.02338e-07
4.36921e-06
9.79724e-08
4.37635e-06
9.4104e-08
8.963e-08
4.38384e-06
4.52168e-06
6.0769e-08
4.54083e-06
1.34046e-07
4.55921e-06
1.66795e-07
4.57659e-06
1.81595e-07
4.59264e-06
1.84954e-07
4.60665e-06
1.79253e-07
4.61835e-06
1.68209e-07
4.62792e-06
1.55426e-07
4.63565e-06
1.43161e-07
4.64205e-06
1.32185e-07
4.6477e-06
1.22653e-07
4.65299e-06
1.14565e-07
4.65837e-06
1.076e-07
4.66417e-06
1.01434e-07
4.67064e-06
9.58672e-08
4.67797e-06
9.06452e-08
4.6865e-06
8.5574e-08
8.00109e-08
4.69612e-06
4.84294e-06
5.05531e-08
4.8603e-06
1.16684e-07
4.87799e-06
1.49102e-07
4.89508e-06
1.64505e-07
4.91103e-06
1.69003e-07
4.92522e-06
1.65065e-07
4.93743e-06
1.55999e-07
4.94788e-06
1.44974e-07
4.95699e-06
1.34055e-07
4.9651e-06
1.24071e-07
4.97254e-06
1.15219e-07
4.97951e-06
1.07588e-07
4.9863e-06
1.00811e-07
4.99325e-06
9.44917e-08
5.00066e-06
8.84501e-08
5.00882e-06
8.2491e-08
5.01801e-06
7.63788e-08
6.96483e-08
5.02837e-06
5.18799e-06
4.21419e-08
5.2037e-06
1.00978e-07
5.22059e-06
1.32206e-07
5.23733e-06
1.47769e-07
5.2532e-06
1.53134e-07
5.26755e-06
1.50712e-07
5.28015e-06
1.43395e-07
5.29119e-06
1.33935e-07
5.30108e-06
1.2417e-07
5.31018e-06
1.14971e-07
5.31878e-06
1.06617e-07
5.32716e-06
9.92109e-08
5.33545e-06
9.25161e-08
5.34379e-06
8.61574e-08
5.35237e-06
7.98652e-08
5.36145e-06
7.34096e-08
5.37131e-06
6.65259e-08
5.88762e-08
5.38208e-06
5.55834e-06
3.51407e-08
5.57253e-06
8.67872e-08
5.58857e-06
1.1617e-07
5.60483e-06
1.31501e-07
5.62052e-06
1.37445e-07
5.63496e-06
1.36275e-07
5.64787e-06
1.30487e-07
5.65935e-06
1.22453e-07
5.66973e-06
1.13791e-07
5.67937e-06
1.05335e-07
5.68857e-06
9.74144e-08
5.69764e-06
9.01415e-08
5.70677e-06
8.33874e-08
5.71605e-06
7.68693e-08
5.72561e-06
7.03134e-08
5.73555e-06
6.3464e-08
5.74605e-06
5.60324e-08
4.77381e-08
5.75718e-06
5.95567e-06
2.92507e-08
5.96847e-06
7.39829e-08
5.98361e-06
1.01029e-07
5.99934e-06
1.15769e-07
6.01478e-06
1.22013e-07
6.02922e-06
1.21828e-07
6.04237e-06
1.17342e-07
6.05424e-06
1.10584e-07
6.06506e-06
1.02966e-07
6.07514e-06
9.52579e-08
6.08475e-06
8.78042e-08
6.09417e-06
8.07217e-08
6.10362e-06
7.39325e-08
6.11326e-06
6.72317e-08
6.12318e-06
6.03914e-08
6.13346e-06
5.31833e-08
6.14416e-06
4.53416e-08
3.66388e-08
6.15525e-06
6.38184e-06
2.42268e-08
6.39334e-06
6.24755e-08
6.40756e-06
8.68114e-08
6.42271e-06
1.00617e-07
6.43784e-06
1.06889e-07
6.45224e-06
1.07423e-07
6.46557e-06
1.04011e-07
6.47779e-06
9.83637e-08
6.48905e-06
9.17085e-08
6.49957e-06
8.47423e-08
6.50957e-06
7.77991e-08
6.5193e-06
7.09966e-08
6.52894e-06
6.42857e-08
6.53866e-06
5.75147e-08
6.54855e-06
5.05023e-08
6.55866e-06
4.30671e-08
6.56901e-06
3.49994e-08
2.61416e-08
6.5795e-06
5.74458e-06
2.04803e-08
5.75331e-06
5.37415e-08
5.76462e-06
7.551e-08
5.77696e-06
8.82698e-08
5.78949e-06
9.4367e-08
5.8016e-06
9.53094e-08
5.81298e-06
9.26291e-08
5.82355e-06
8.77989e-08
5.83336e-06
8.18904e-08
5.84257e-06
7.55342e-08
5.85132e-06
6.90474e-08
5.85977e-06
6.25462e-08
5.86806e-06
5.60007e-08
5.87628e-06
4.9293e-08
5.88451e-06
4.22779e-08
5.89276e-06
3.48163e-08
5.90101e-06
2.67504e-08
1.79929e-08
5.90915e-06
7.00187e-06
1.67627e-08
7.01094e-06
4.46699e-08
7.02306e-06
6.33935e-08
7.03664e-06
7.46903e-08
7.05067e-06
8.03353e-08
7.06446e-06
8.15248e-08
7.07759e-06
7.94966e-08
7.08992e-06
7.54642e-08
7.10148e-06
7.03327e-08
7.11236e-06
6.46531e-08
7.1227e-06
5.87143e-08
7.13261e-06
5.26285e-08
7.14223e-06
4.63832e-08
7.15163e-06
3.98934e-08
7.16086e-06
3.30529e-08
7.1699e-06
2.57701e-08
7.1787e-06
1.79484e-08
9.56306e-09
7.18713e-06
8.5344e-06
1.3205e-08
8.54361e-06
3.54666e-08
8.5564e-06
5.06012e-08
8.57113e-06
5.9964e-08
8.58666e-06
6.48035e-08
8.60218e-06
6.6004e-08
8.61719e-06
6.44865e-08
8.63146e-06
6.11895e-08
8.64496e-06
5.68411e-08
8.65771e-06
5.19007e-08
8.6698e-06
4.66185e-08
8.68133e-06
4.10978e-08
8.69238e-06
3.53403e-08
8.70298e-06
2.92905e-08
8.71315e-06
2.2883e-08
8.72285e-06
1.60747e-08
8.73197e-06
8.82741e-09
1.16313e-09
8.74037e-06
1.04027e-05
9.75364e-09
1.04119e-05
2.62842e-08
1.04251e-05
3.73111e-08
1.04409e-05
4.42057e-08
1.04579e-05
4.78288e-08
1.04752e-05
4.87254e-08
1.04921e-05
4.7502e-08
1.05085e-05
4.48219e-08
1.05241e-05
4.1228e-08
1.05389e-05
3.70779e-08
1.0553e-05
3.25736e-08
1.05663e-05
2.78045e-08
1.05788e-05
2.27815e-08
1.05907e-05
1.74739e-08
1.06017e-05
1.18515e-08
1.06119e-05
5.90546e-09
1.0621e-05
-3.63151e-10
-6.93533e-09
1.06291e-05
1.26803e-05
6.23216e-09
1.26897e-05
1.68549e-08
1.27035e-05
2.35309e-08
1.27202e-05
2.75506e-08
1.27385e-05
2.95115e-08
1.27575e-05
2.96988e-08
1.27766e-05
2.84633e-08
1.27952e-05
2.62119e-08
1.28131e-05
2.32976e-08
1.28302e-05
1.99632e-08
1.28464e-05
1.63518e-08
1.28617e-05
1.25312e-08
1.2876e-05
8.51771e-09
1.28891e-05
4.30376e-09
1.29011e-05
-1.16283e-10
1.29118e-05
-4.75556e-09
1.29211e-05
-9.65592e-09
-1.47456e-08
1.29289e-05
1.54569e-05
2.46491e-09
1.54671e-05
6.66781e-09
1.54818e-05
8.91492e-09
1.54995e-05
9.78426e-09
1.55194e-05
9.6667e-09
1.55403e-05
8.73513e-09
1.55616e-05
7.15125e-09
1.55827e-05
5.10472e-09
1.56033e-05
2.76538e-09
1.5623e-05
2.50151e-10
1.56417e-05
-2.37238e-09
1.56593e-05
-5.07034e-09
1.56757e-05
-7.83362e-09
1.56906e-05
-1.06667e-08
1.57041e-05
-1.35957e-08
1.57161e-05
-1.66934e-08
1.57264e-05
-1.99886e-08
-2.31458e-08
1.57348e-05
1.88418e-05
-1.69365e-09
1.88532e-05
-4.74067e-09
1.88696e-05
-7.4612e-09
1.88894e-05
-1.00617e-08
1.89117e-05
-1.25906e-08
1.89354e-05
-1.49775e-08
1.89597e-05
-1.71769e-08
1.8984e-05
-1.91767e-08
1.90078e-05
-2.09864e-08
1.90306e-05
-2.26325e-08
1.90524e-05
-2.41504e-08
1.90729e-05
-2.55765e-08
1.9092e-05
-2.69416e-08
1.91096e-05
-2.82659e-08
1.91256e-05
-2.95598e-08
1.91397e-05
-3.07972e-08
1.91515e-05
-3.17967e-08
-3.2195e-08
1.91606e-05
2.29682e-05
-6.58841e-09
2.29818e-05
-1.83037e-08
2.30014e-05
-2.7112e-08
2.30254e-05
-3.39963e-08
2.30523e-05
-3.94671e-08
2.30809e-05
-4.3598e-08
2.31102e-05
-4.65041e-08
2.31394e-05
-4.83894e-08
2.31679e-05
-4.9484e-08
2.31953e-05
-4.99946e-08
2.32212e-05
-5.00869e-08
2.32455e-05
-4.9879e-08
2.3268e-05
-4.94357e-08
2.32885e-05
-4.87631e-08
2.33068e-05
-4.78072e-08
2.33224e-05
-4.64693e-08
2.33353e-05
-4.46911e-08
-4.25472e-08
2.33457e-05
1.68146e-05
-1.05293e-08
1.68254e-05
-2.9092e-08
1.68413e-05
-4.29362e-08
1.68606e-05
-5.3329e-08
1.68821e-05
-6.10021e-08
1.69048e-05
-6.62493e-08
1.69277e-05
-6.9394e-08
1.69501e-05
-7.08633e-08
1.69717e-05
-7.10869e-08
1.69922e-05
-7.0417e-08
1.70112e-05
-6.91142e-08
1.70287e-05
-6.73569e-08
1.70445e-05
-6.52508e-08
1.70586e-05
-6.28449e-08
1.70709e-05
-6.01553e-08
1.70816e-05
-5.71926e-08
1.70909e-05
-5.40013e-08
-5.06679e-08
1.70991e-05
1.46388e-05
-1.47606e-08
1.46499e-05
-4.01981e-08
1.46661e-05
-5.91122e-08
1.46855e-05
-7.27461e-08
1.47067e-05
-8.21892e-08
1.47285e-05
-8.81001e-08
1.47502e-05
-9.10577e-08
1.47711e-05
-9.17385e-08
1.47908e-05
-9.07789e-08
1.4809e-05
-8.86731e-08
1.48257e-05
-8.57823e-08
1.48407e-05
-8.23703e-08
1.48541e-05
-7.86254e-08
1.48659e-05
-7.46805e-08
1.48764e-05
-7.06347e-08
1.48858e-05
-6.65648e-08
1.48943e-05
-6.25321e-08
-5.85658e-08
1.49022e-05
1.27451e-05
-1.97084e-08
1.27576e-05
-5.27437e-08
1.27749e-05
-7.63618e-08
1.27947e-05
-9.25628e-08
1.28158e-05
-1.03259e-07
1.2837e-05
-1.09379e-07
1.28577e-05
-1.11732e-07
1.28772e-05
-1.11268e-07
1.28953e-05
-1.08847e-07
1.29118e-05
-1.05118e-07
1.29265e-05
-1.00558e-07
1.29397e-05
-9.55388e-08
1.29514e-05
-9.03367e-08
1.29619e-05
-8.51462e-08
1.29713e-05
-8.00978e-08
1.29801e-05
-7.52734e-08
1.29882e-05
-7.07076e-08
-6.63768e-08
1.2996e-05
1.1097e-05
-2.5748e-08
1.11114e-05
-6.72068e-08
1.11299e-05
-9.48362e-08
1.11502e-05
-1.12867e-07
1.11713e-05
-1.24307e-07
1.11921e-05
-1.30198e-07
1.12119e-05
-1.3155e-07
1.12302e-05
-1.29618e-07
1.12469e-05
-1.25515e-07
1.12619e-05
-1.20063e-07
1.12752e-05
-1.13851e-07
1.12869e-05
-1.07336e-07
1.12975e-05
-1.00859e-07
1.1307e-05
-9.46372e-08
1.13157e-05
-8.87981e-08
1.13238e-05
-8.3412e-08
1.13316e-05
-7.8466e-08
-7.38756e-08
1.13391e-05
9.66275e-06
-3.32851e-08
9.67939e-06
-8.38491e-08
9.69905e-06
-1.14489e-07
9.71974e-06
-1.3356e-07
9.74068e-06
-1.45244e-07
9.76095e-06
-1.50471e-07
9.77987e-06
-1.50467e-07
9.79707e-06
-1.46823e-07
9.81249e-06
-1.40934e-07
9.82618e-06
-1.33748e-07
9.83825e-06
-1.25924e-07
9.8489e-06
-1.17989e-07
9.85837e-06
-1.10327e-07
9.86689e-06
-1.0316e-07
9.8747e-06
-9.66042e-08
9.88203e-06
-9.074e-08
9.88902e-06
-8.54591e-08
-8.06003e-08
9.89574e-06
8.41514e-06
-4.30728e-08
8.43413e-06
-1.02839e-07
8.45465e-06
-1.35008e-07
8.47541e-06
-1.54324e-07
8.49598e-06
-1.6581e-07
8.51554e-06
-1.70038e-07
8.53355e-06
-1.68471e-07
8.54974e-06
-1.63019e-07
8.56417e-06
-1.55363e-07
8.57687e-06
-1.46442e-07
8.58787e-06
-1.36929e-07
8.59738e-06
-1.27493e-07
8.60562e-06
-1.18576e-07
8.61285e-06
-1.10387e-07
8.61923e-06
-1.02984e-07
8.62496e-06
-9.64691e-08
8.63022e-06
-9.07177e-08
-8.54979e-08
8.63512e-06
7.33048e-06
-5.62646e-08
7.35191e-06
-1.24274e-07
7.37282e-06
-1.55913e-07
7.39349e-06
-1.74998e-07
7.41391e-06
-1.86231e-07
7.43327e-06
-1.89393e-07
7.45107e-06
-1.86279e-07
7.46706e-06
-1.79004e-07
7.48102e-06
-1.69323e-07
7.49286e-06
-1.58281e-07
7.50264e-06
-1.46706e-07
7.51061e-06
-1.35471e-07
7.5171e-06
-1.25064e-07
7.52241e-06
-1.1569e-07
7.52678e-06
-1.07361e-07
7.53042e-06
-1.00103e-07
7.53356e-06
-9.38589e-08
-8.84755e-08
7.53654e-06
6.38822e-06
-7.4418e-08
6.41323e-06
-1.4928e-07
6.43565e-06
-1.78337e-07
6.45809e-06
-1.97441e-07
6.48038e-06
-2.08514e-07
6.50148e-06
-2.10497e-07
6.52086e-06
-2.05663e-07
6.53804e-06
-1.96182e-07
6.55233e-06
-1.8361e-07
6.56353e-06
-1.69486e-07
6.57193e-06
-1.55107e-07
6.57789e-06
-1.41427e-07
6.58179e-06
-1.28963e-07
6.58406e-06
-1.17966e-07
6.5852e-06
-1.08491e-07
6.58571e-06
-1.00614e-07
6.58593e-06
-9.40777e-08
-8.86282e-08
6.58608e-06
5.57489e-06
-1.03846e-07
5.60993e-06
-1.84317e-07
5.64247e-06
-2.10881e-07
5.67506e-06
-2.3003e-07
5.70526e-06
-2.38707e-07
5.73114e-06
-2.36385e-07
5.75155e-06
-2.26068e-07
5.76578e-06
-2.10419e-07
5.77406e-06
-1.91881e-07
5.77707e-06
-1.72502e-07
5.77542e-06
-1.53455e-07
5.76974e-06
-1.35745e-07
5.76076e-06
-1.19981e-07
5.74921e-06
-1.06416e-07
5.73574e-06
-9.50309e-08
5.72086e-06
-8.5731e-08
5.70504e-06
-7.82521e-08
-7.2468e-08
5.68888e-06
4.9169e-06
-1.93137e-07
4.98039e-06
-2.47805e-07
5.01595e-06
-2.46448e-07
5.02578e-06
-2.39853e-07
5.01142e-06
-2.24348e-07
4.9769e-06
-2.01869e-07
4.92706e-06
-1.7623e-07
4.86654e-06
-1.49897e-07
4.79923e-06
-1.24565e-07
4.72813e-06
-1.01401e-07
4.6556e-06
-8.09325e-08
4.5833e-06
-6.34398e-08
4.51228e-06
-4.89651e-08
4.44321e-06
-3.73438e-08
4.37644e-06
-2.82642e-08
4.31212e-06
-2.14127e-08
4.25037e-06
-1.64964e-08
-1.30026e-08
4.1909e-06
4.00954e-06
3.76173e-06
3.51529e-06
3.27543e-06
3.05109e-06
2.84922e-06
2.67299e-06
2.52309e-06
2.39852e-06
2.29712e-06
2.21619e-06
2.15275e-06
2.10379e-06
2.06644e-06
2.03818e-06
2.01677e-06
2.00027e-06
1.98727e-06
-3.68163e-07
3.68163e-07
-7.01423e-07
3.3326e-07
-9.25465e-07
2.24042e-07
-9.60285e-07
3.48196e-08
-7.90713e-07
-1.69572e-07
-4.2774e-07
-3.62973e-07
8.67326e-08
-5.14473e-07
6.99026e-07
-6.12293e-07
1.35892e-06
-6.59897e-07
2.02359e-06
-6.64662e-07
2.66185e-06
-6.38268e-07
3.25259e-06
-5.90737e-07
3.78165e-06
-5.29063e-07
4.2394e-06
-4.57743e-07
4.61817e-06
-3.78769e-07
4.91074e-06
-2.92574e-07
5.10942e-06
-1.98678e-07
5.20532e-06
-9.59022e-08
5.18889e-06
1.64329e-08
5.0398e-06
1.49087e-07
4.75727e-06
2.8253e-07
4.34555e-06
4.11721e-07
3.81723e-06
5.28322e-07
3.19661e-06
6.20621e-07
2.52227e-06
6.74332e-07
1.84837e-06
6.73908e-07
1.24074e-06
6.07623e-07
7.55538e-07
4.85204e-07
3.95841e-07
3.59697e-07
1.26528e-07
2.69313e-07
-4.95697e-08
1.76098e-07
-1.05508e-07
5.59386e-08
-2.39946e-08
-8.15138e-08
2.1826e-07
-2.42254e-07
6.3242e-07
-4.14161e-07
1.14508e-06
-5.12664e-07
1.62185e-06
-4.76761e-07
1.94826e-06
-3.26417e-07
2.07445e-06
-1.2619e-07
2.01913e-06
5.53242e-08
1.86417e-06
1.54954e-07
1.68929e-06
1.74888e-07
1.51064e-06
1.78643e-07
1.30418e-06
2.06464e-07
1.04164e-06
2.62542e-07
7.04809e-07
3.36828e-07
2.88185e-07
4.16624e-07
-2.04318e-07
4.92504e-07
-7.62739e-07
5.58421e-07
-1.37261e-06
6.09868e-07
-2.01725e-06
6.44638e-07
-2.67973e-06
6.62488e-07
-3.34422e-06
6.64491e-07
-3.99685e-06
6.52623e-07
-4.62619e-06
6.29341e-07
-5.22341e-06
5.97222e-07
-5.78213e-06
5.58719e-07
-6.29816e-06
5.16026e-07
-6.76916e-06
4.71007e-07
-7.19425e-06
4.2509e-07
-7.57358e-06
3.79323e-07
-7.90829e-06
3.34715e-07
-8.19982e-06
2.91525e-07
-8.45002e-06
2.50202e-07
-8.66134e-06
2.11324e-07
-8.83606e-06
1.74714e-07
-8.97625e-06
1.40189e-07
-9.08371e-06
1.0746e-07
-9.15967e-06
7.59604e-08
-9.20475e-06
4.50879e-08
-9.21976e-06
1.50042e-08
-9.20695e-06
-1.28123e-08
-9.16747e-06
-3.94755e-08
-9.10091e-06
-6.65584e-08
-9.00523e-06
-9.56804e-08
-8.87723e-06
-1.28e-07
-8.71292e-06
-1.6431e-07
-8.5078e-06
-2.05125e-07
-8.25719e-06
-2.50605e-07
-7.95673e-06
-3.00461e-07
-7.60288e-06
-3.53849e-07
-7.19364e-06
-4.09242e-07
-6.72915e-06
-4.64488e-07
-6.21195e-06
-5.172e-07
-5.64642e-06
-5.65532e-07
-5.03975e-06
-6.06669e-07
-4.40181e-06
-6.37944e-07
-3.74433e-06
-6.57476e-07
-3.08014e-06
-6.64189e-07
-2.42245e-06
-6.57694e-07
-1.78449e-06
-6.37954e-07
-1.17925e-06
-6.0524e-07
-6.17539e-07
-5.61716e-07
-1.01456e-07
-5.16083e-07
3.81592e-07
-4.83048e-07
8.39393e-07
-4.57801e-07
1.26806e-06
-4.28666e-07
1.66057e-06
-3.92515e-07
2.014e-06
-3.53423e-07
2.32903e-06
-3.15031e-07
2.60788e-06
-2.78855e-07
2.85247e-06
-2.44583e-07
3.06471e-06
-2.12243e-07
3.24668e-06
-1.8197e-07
3.40061e-06
-1.53935e-07
3.52874e-06
-1.2813e-07
3.63312e-06
-1.04381e-07
3.7155e-06
-8.23789e-08
3.77715e-06
-6.1643e-08
3.81886e-06
-4.1709e-08
3.83969e-06
-2.08378e-08
3.8366e-06
3.09277e-09
3.80547e-06
3.11311e-08
3.75109e-06
5.43753e-08
3.67935e-06
7.17411e-08
3.59624e-06
8.31163e-08
3.50742e-06
8.88133e-08
3.41757e-06
8.98481e-08
3.32999e-06
8.75842e-08
3.24674e-06
8.32516e-08
3.16891e-06
7.78295e-08
3.09689e-06
7.20236e-08
3.03062e-06
6.62642e-08
2.96984e-06
6.0779e-08
2.91418e-06
5.56664e-08
2.86322e-06
5.09547e-08
2.81658e-06
4.66396e-08
2.77388e-06
4.26986e-08
2.7348e-06
3.90883e-08
2.69905e-06
3.57444e-08
2.66644e-06
3.26091e-08
2.63666e-06
2.97867e-08
2.60922e-06
2.7432e-08
2.58378e-06
2.54463e-08
2.56014e-06
2.36328e-08
2.53825e-06
2.18967e-08
2.51802e-06
2.02292e-08
2.49936e-06
1.8654e-08
2.48217e-06
1.71947e-08
2.46634e-06
1.58279e-08
2.45181e-06
1.45332e-08
2.43844e-06
1.33684e-08
2.42605e-06
1.23906e-08
2.41445e-06
1.16021e-08
2.40347e-06
1.09799e-08
2.39297e-06
1.04948e-08
2.38285e-06
1.01181e-08
2.37303e-06
9.82561e-09
2.36343e-06
9.59816e-09
2.35401e-06
9.42053e-09
2.34473e-06
9.28043e-09
2.33556e-06
9.16764e-09
2.32649e-06
9.07325e-09
2.3175e-06
8.99061e-09
2.30858e-06
8.91509e-09
2.29974e-06
8.83933e-09
2.29098e-06
8.76277e-09
2.28229e-06
8.69586e-09
2.27364e-06
8.64791e-09
2.26501e-06
8.62546e-09
2.25637e-06
8.63741e-09
2.24768e-06
8.69555e-09
2.23886e-06
8.81412e-09
2.22985e-06
9.00977e-09
2.22055e-06
9.30257e-09
2.21084e-06
9.71695e-09
2.20055e-06
1.02836e-08
2.18951e-06
1.10423e-08
2.17746e-06
1.20457e-08
2.1641e-06
1.33638e-08
2.14901e-06
1.50927e-08
2.13164e-06
1.73634e-08
2.11128e-06
2.03687e-08
2.0869e-06
2.43801e-08
2.05701e-06
2.98824e-08
2.01966e-06
3.73538e-08
1.9712e-06
4.84628e-08
1.908e-06
6.31943e-08
1.81231e-06
9.56961e-08
1.22208e-07
1.6901e-06
-1.09949e-07
4.78112e-07
-1.89857e-07
4.13168e-07
-1.43511e-07
1.77696e-07
6.32893e-08
-1.71981e-07
4.44709e-07
-5.50992e-07
9.52979e-07
-8.71243e-07
1.53198e-06
-1.09348e-06
2.13522e-06
-1.21553e-06
2.72919e-06
-1.25387e-06
3.29508e-06
-1.23055e-06
3.82197e-06
-1.16516e-06
4.30319e-06
-1.07196e-06
4.73403e-06
-9.59904e-07
5.1108e-06
-8.34512e-07
5.43119e-06
-6.99163e-07
5.69385e-06
-5.55236e-07
5.89846e-06
-4.03281e-07
6.04621e-06
-2.43658e-07
6.13898e-06
-7.63382e-08
6.18521e-06
1.02858e-07
6.17169e-06
2.96051e-07
6.08216e-06
5.01255e-07
5.89852e-06
7.11961e-07
5.60354e-06
9.15598e-07
5.18549e-06
1.09239e-06
4.64259e-06
1.21681e-06
3.98767e-06
1.26254e-06
3.25841e-06
1.21447e-06
2.53633e-06
1.08178e-06
1.92001e-06
8.85626e-07
1.4531e-06
6.43014e-07
1.1385e-06
3.7054e-07
9.9149e-07
6.5494e-08
1.03336e-06
-2.84124e-07
1.24072e-06
-6.2152e-07
1.52196e-06
-7.93908e-07
1.75249e-06
-7.0729e-07
1.85244e-06
-4.26367e-07
1.81052e-06
-8.4263e-08
1.65214e-06
2.13701e-07
1.39095e-06
4.16147e-07
1.01601e-06
5.49819e-07
5.16818e-07
6.7784e-07
-1.06334e-07
8.29616e-07
-8.35215e-07
9.91423e-07
-1.64108e-06
1.14269e-06
-2.49396e-06
1.26951e-06
-3.36481e-06
1.36336e-06
-4.22687e-06
1.42048e-06
-5.0576e-06
1.4406e-06
-5.83945e-06
1.42648e-06
-6.55993e-06
1.38297e-06
-7.21143e-06
1.31599e-06
-7.79051e-06
1.23171e-06
-8.29712e-06
1.13595e-06
-8.73368e-06
1.03378e-06
-9.10428e-06
9.29326e-07
-9.41401e-06
8.25751e-07
-9.66834e-06
7.25335e-07
-9.87283e-06
6.29582e-07
-1.00329e-05
5.39402e-07
-1.01535e-05
4.55291e-07
-1.02393e-05
3.77312e-07
-1.02944e-05
3.05378e-07
-1.03225e-05
2.39348e-07
-1.03266e-05
1.78825e-07
-1.03097e-05
1.23313e-07
-1.02743e-05
7.20096e-08
-1.02226e-05
2.43303e-08
-1.01568e-05
-2.07355e-08
-1.00776e-05
-6.42118e-08
-9.98245e-06
-1.07942e-07
-9.86811e-06
-1.53818e-07
-9.73156e-06
-2.03106e-07
-9.57004e-06
-2.57209e-07
-9.38037e-06
-3.17668e-07
-9.15878e-06
-3.859e-07
-8.90093e-06
-4.62972e-07
-8.60216e-06
-5.49373e-07
-8.25787e-06
-6.44748e-07
-7.86408e-06
-7.47643e-07
-7.41793e-06
-8.55395e-07
-6.91783e-06
-9.64585e-07
-6.3642e-06
-1.07083e-06
-5.76249e-06
-1.16724e-06
-5.12125e-06
-1.24791e-06
-4.45118e-06
-1.30802e-06
-3.76471e-06
-1.34394e-06
-3.0749e-06
-1.354e-06
-2.3941e-06
-1.33849e-06
-1.7327e-06
-1.29935e-06
-1.09797e-06
-1.23997e-06
-4.93782e-07
-1.1659e-06
7.62104e-08
-1.08608e-06
6.04785e-07
-1.01162e-06
1.08807e-06
-9.41084e-07
1.52804e-06
-8.68634e-07
1.92769e-06
-7.92166e-07
2.28838e-06
-7.14112e-07
2.61297e-06
-6.39628e-07
2.90553e-06
-5.71412e-07
3.16801e-06
-5.07064e-07
3.40187e-06
-4.46102e-07
3.60895e-06
-3.89048e-07
3.79111e-06
-3.36101e-07
3.95014e-06
-2.87155e-07
4.0877e-06
-2.41944e-07
4.20541e-06
-2.00091e-07
4.30489e-06
-1.61122e-07
4.38771e-06
-1.24528e-07
4.45669e-06
-8.98136e-08
4.51622e-06
-5.64397e-08
4.57056e-06
-2.32038e-08
4.61682e-06
8.10648e-09
4.65241e-06
3.61598e-08
4.67483e-06
6.06923e-08
4.68323e-06
8.04104e-08
4.67783e-06
9.52464e-08
4.65986e-06
1.05563e-07
4.6311e-06
1.1201e-07
4.59357e-06
1.15357e-07
4.54927e-06
1.16328e-07
4.50002e-06
1.15508e-07
4.44747e-06
1.13331e-07
4.39303e-06
1.10108e-07
4.33792e-06
1.06062e-07
4.28319e-06
1.01368e-07
4.22971e-06
9.6181e-08
4.17815e-06
9.06521e-08
4.12891e-06
8.49768e-08
4.08213e-06
7.93955e-08
4.03783e-06
7.40886e-08
3.9962e-06
6.90603e-08
3.95744e-06
6.42019e-08
3.92162e-06
5.94592e-08
3.88867e-06
5.48388e-08
3.85852e-06
5.03807e-08
3.83103e-06
4.61409e-08
3.80605e-06
4.21771e-08
3.78341e-06
3.84698e-08
3.76293e-06
3.50185e-08
3.74435e-06
3.19467e-08
3.72739e-06
2.93504e-08
3.71175e-06
2.72419e-08
3.69713e-06
2.5599e-08
3.68325e-06
2.4376e-08
3.66986e-06
2.351e-08
3.65675e-06
2.2932e-08
3.64377e-06
2.25764e-08
3.63081e-06
2.23853e-08
3.61778e-06
2.23105e-08
3.60463e-06
2.2312e-08
3.59135e-06
2.23563e-08
3.57792e-06
2.24174e-08
3.56436e-06
2.24752e-08
3.5507e-06
2.25033e-08
3.53697e-06
2.2492e-08
3.52321e-06
2.24576e-08
3.50944e-06
2.2417e-08
3.49568e-06
2.23873e-08
3.48192e-06
2.2393e-08
3.46815e-06
2.24649e-08
3.45433e-06
2.26376e-08
3.44039e-06
2.29488e-08
3.42625e-06
2.34409e-08
3.4118e-06
2.41634e-08
3.39691e-06
2.51763e-08
3.3814e-06
2.65558e-08
3.36504e-06
2.84016e-08
3.34756e-06
3.08464e-08
3.32858e-06
3.40708e-08
3.30763e-06
3.83175e-08
3.28405e-06
4.39457e-08
3.25702e-06
5.14124e-08
3.22532e-06
6.15842e-08
3.1876e-06
7.50643e-08
3.14096e-06
9.51082e-08
3.08416e-06
1.19993e-07
3.00762e-06
1.72238e-07
2.15797e-07
2.91403e-06
1.02004e-07
3.76108e-07
2.58627e-07
2.56545e-07
5.75135e-07
-1.38812e-07
1.04545e-06
-6.42294e-07
1.59328e-06
-1.09882e-06
2.15032e-06
-1.42828e-06
2.67504e-06
-1.6182e-06
3.15313e-06
-1.69361e-06
3.58703e-06
-1.68777e-06
3.98432e-06
-1.62784e-06
4.35087e-06
-1.5317e-06
4.68879e-06
-1.40989e-06
4.99738e-06
-1.26849e-06
5.27411e-06
-1.11124e-06
5.51571e-06
-9.40764e-07
5.7192e-06
-7.5873e-07
5.88211e-06
-5.66187e-07
6.00235e-06
-3.63902e-07
6.07922e-06
-1.53209e-07
6.11689e-06
6.51855e-08
6.12112e-06
2.91824e-07
6.09703e-06
5.25346e-07
6.04356e-06
7.65433e-07
5.95048e-06
1.00867e-06
5.79687e-06
1.24599e-06
5.55404e-06
1.45964e-06
5.19442e-06
1.62216e-06
4.70829e-06
1.7006e-06
4.12346e-06
1.66661e-06
3.50212e-06
1.50697e-06
2.91499e-06
1.23014e-06
2.42398e-06
8.61551e-07
2.06408e-06
4.25397e-07
1.84506e-06
-6.51076e-08
1.74731e-06
-5.23769e-07
1.66967e-06
-7.16271e-07
1.51059e-06
-5.48201e-07
1.23482e-06
-1.50599e-07
8.72574e-07
2.77981e-07
4.3496e-07
6.51315e-07
-1.0724e-07
9.58347e-07
-7.84543e-07
1.22712e-06
-1.58372e-06
1.47702e-06
-2.45708e-06
1.70298e-06
-3.35522e-06
1.88956e-06
-4.23761e-06
2.02507e-06
-5.07335e-06
2.10525e-06
-5.84092e-06
2.13093e-06
-6.5274e-06
2.10696e-06
-7.12791e-06
2.04111e-06
-7.64395e-06
1.94253e-06
-8.08153e-06
1.82055e-06
-8.44926e-06
1.68372e-06
-8.75676e-06
1.53921e-06
-9.01344e-06
1.39262e-06
-9.22763e-06
1.24797e-06
-9.40623e-06
1.10793e-06
-9.5546e-06
9.7412e-07
-9.67664e-06
8.47371e-07
-9.77508e-06
7.28022e-07
-9.8518e-06
6.16124e-07
-9.90807e-06
5.11562e-07
-9.9449e-06
4.14139e-07
-9.96317e-06
3.2365e-07
-9.96364e-06
2.39813e-07
-9.94695e-06
1.62139e-07
-9.91381e-06
9.01722e-08
-9.86453e-06
2.27265e-08
-9.80027e-06
-3.99254e-08
-9.72066e-06
-1.00345e-07
-9.62526e-06
-1.59611e-07
-9.51378e-06
-2.19426e-07
-9.38587e-06
-2.81722e-07
-9.24034e-06
-3.48642e-07
-9.07501e-06
-4.22538e-07
-8.88687e-06
-5.05805e-07
-8.67205e-06
-6.00721e-07
-8.42586e-06
-7.09165e-07
-8.14296e-06
-8.3227e-07
-7.81767e-06
-9.70042e-07
-7.44429e-06
-1.12102e-06
-7.01787e-06
-1.28182e-06
-6.53591e-06
-1.44654e-06
-5.99976e-06
-1.60698e-06
-5.41386e-06
-1.75314e-06
-4.78587e-06
-1.8759e-06
-4.12686e-06
-1.96703e-06
-3.45005e-06
-2.02074e-06
-2.76945e-06
-2.03461e-06
-2.09807e-06
-2.00987e-06
-1.44651e-06
-1.95091e-06
-8.2199e-07
-1.86449e-06
-2.29132e-07
-1.75876e-06
3.28172e-07
-1.64338e-06
8.42401e-07
-1.52585e-06
1.31056e-06
-1.40924e-06
1.73539e-06
-1.29346e-06
2.12155e-06
-1.17833e-06
2.47209e-06
-1.06465e-06
2.7879e-06
-9.55436e-07
3.07115e-06
-8.54666e-07
3.32556e-06
-7.61475e-07
3.55369e-06
-6.74231e-07
3.75737e-06
-5.92725e-07
3.9382e-06
-5.16931e-07
4.09775e-06
-4.46705e-07
4.23756e-06
-3.81757e-07
4.35916e-06
-3.21693e-07
4.46409e-06
-2.66053e-07
4.55389e-06
-2.14327e-07
4.63023e-06
-1.66149e-07
4.69515e-06
-1.21366e-07
4.75153e-06
-7.95788e-08
4.8006e-06
-4.09623e-08
4.84276e-06
-6.00056e-09
4.87777e-06
2.56826e-08
4.90536e-06
5.28197e-08
4.92509e-06
7.55165e-08
4.93684e-06
9.38095e-08
4.94082e-06
1.08029e-07
4.93754e-06
1.18636e-07
4.92774e-06
1.26127e-07
4.9123e-06
1.30957e-07
4.89211e-06
1.33514e-07
4.86811e-06
1.34108e-07
4.84119e-06
1.32989e-07
4.81219e-06
1.30365e-07
4.78194e-06
1.26427e-07
4.75121e-06
1.21383e-07
4.72073e-06
1.15462e-07
4.69133e-06
1.08794e-07
4.66382e-06
1.01593e-07
4.63871e-06
9.41788e-08
4.61621e-06
8.66952e-08
4.59647e-06
7.91989e-08
4.57953e-06
7.17779e-08
4.56537e-06
6.45414e-08
4.5539e-06
5.76136e-08
4.54495e-06
5.11253e-08
4.53823e-06
4.51945e-08
4.53331e-06
3.99383e-08
4.52982e-06
3.54327e-08
4.52748e-06
3.16962e-08
4.52598e-06
2.8742e-08
4.52501e-06
2.65623e-08
4.52428e-06
2.51066e-08
4.5235e-06
2.42923e-08
4.52241e-06
2.40187e-08
4.52081e-06
2.41788e-08
4.51853e-06
2.46696e-08
4.51544e-06
2.5398e-08
4.51147e-06
2.62827e-08
4.50657e-06
2.72514e-08
4.50074e-06
2.82483e-08
4.49399e-06
2.92268e-08
4.48637e-06
3.01244e-08
4.47794e-06
3.09172e-08
4.46878e-06
3.16222e-08
4.45895e-06
3.22474e-08
4.44853e-06
3.28078e-08
4.43758e-06
3.33375e-08
4.42616e-06
3.38856e-08
4.41429e-06
3.45109e-08
4.40196e-06
3.52797e-08
4.38914e-06
3.62643e-08
4.37575e-06
3.75448e-08
4.36172e-06
3.92144e-08
4.34689e-06
4.13876e-08
4.33108e-06
4.4211e-08
4.31404e-06
4.78781e-08
4.29547e-06
5.26496e-08
4.27491e-06
5.88759e-08
4.25179e-06
6.70609e-08
4.22535e-06
7.78553e-08
4.19453e-06
9.24075e-08
4.1579e-06
1.11685e-07
4.11344e-06
1.39577e-07
4.05904e-06
1.74386e-07
3.99161e-06
2.39668e-07
2.91388e-07
3.91602e-06
1.45924e-07
2.30184e-07
5.16342e-07
-1.13872e-07
1.08772e-06
-7.10188e-07
1.71969e-06
-1.27427e-06
2.29776e-06
-1.67689e-06
2.77716e-06
-1.90768e-06
3.16646e-06
-2.0075e-06
3.49452e-06
-2.02167e-06
3.78785e-06
-1.9811e-06
4.06201e-06
-1.902e-06
4.32233e-06
-1.79203e-06
4.56816e-06
-1.65572e-06
4.79661e-06
-1.49694e-06
5.00465e-06
-1.31928e-06
5.18963e-06
-1.12574e-06
5.34928e-06
-9.18373e-07
5.48151e-06
-6.98422e-07
5.58442e-06
-4.66808e-07
5.65586e-06
-2.24651e-07
5.69469e-06
2.63591e-08
5.70135e-06
2.8516e-07
5.67902e-06
5.47678e-07
5.6333e-06
8.11152e-07
5.56927e-06
1.07271e-06
5.48619e-06
1.32907e-06
5.37203e-06
1.5738e-06
5.20203e-06
1.79216e-06
4.94599e-06
1.95664e-06
4.58465e-06
2.02795e-06
4.12567e-06
1.96595e-06
3.6086e-06
1.7472e-06
3.09168e-06
1.37847e-06
2.62806e-06
8.89019e-07
2.23938e-06
3.23577e-07
1.86654e-06
-1.5093e-07
1.42239e-06
-2.72121e-07
8.69178e-07
5.00799e-09
2.56771e-07
4.61809e-07
-4.04299e-07
9.3905e-07
-1.12192e-06
1.36894e-06
-1.91027e-06
1.74669e-06
-2.75496e-06
2.07181e-06
-3.61445e-06
2.33651e-06
-4.44273e-06
2.53125e-06
-5.20473e-06
2.65157e-06
-5.87928e-06
2.69962e-06
-6.45723e-06
2.6832e-06
-6.93952e-06
2.61322e-06
-7.33457e-06
2.50201e-06
-7.65529e-06
2.36183e-06
-7.91621e-06
2.20344e-06
-8.1312e-06
2.03554e-06
-8.312e-06
1.86452e-06
-8.46748e-06
1.69469e-06
-8.60356e-06
1.5287e-06
-8.72359e-06
1.368e-06
-8.82899e-06
1.21333e-06
-8.91985e-06
1.06498e-06
-8.99556e-06
9.23082e-07
-9.05526e-06
7.87721e-07
-9.09815e-06
6.59018e-07
-9.12372e-06
5.37129e-07
-9.1318e-06
4.22216e-07
-9.12258e-06
3.14433e-07
-9.09659e-06
2.13827e-07
-9.05462e-06
1.20168e-07
-8.99722e-06
3.27699e-08
-8.92662e-06
-4.78762e-08
-8.84301e-06
-1.23538e-07
-8.74785e-06
-1.955e-07
-8.64194e-06
-2.65524e-07
-8.52559e-06
-3.35773e-07
-8.39859e-06
-4.08718e-07
-8.26003e-06
-4.87209e-07
-8.10813e-06
-5.74435e-07
-7.94016e-06
-6.73774e-07
-7.7523e-06
-7.88577e-07
-7.53962e-06
-9.21853e-07
-7.29606e-06
-1.07583e-06
-7.01472e-06
-1.25138e-06
-6.68848e-06
-1.44727e-06
-6.31098e-06
-1.65932e-06
-5.87777e-06
-1.87975e-06
-5.38742e-06
-2.09733e-06
-4.842e-06
-2.29855e-06
-4.2487e-06
-2.46921e-06
-3.61909e-06
-2.59663e-06
-2.9678e-06
-2.67204e-06
-2.3106e-06
-2.69181e-06
-1.66231e-06
-2.65816e-06
-1.03502e-06
-2.5782e-06
-4.37223e-07
-2.46228e-06
1.25734e-07
-2.32172e-06
6.50101e-07
-2.16775e-06
1.13276e-06
-2.00851e-06
1.57311e-06
-1.84959e-06
1.97319e-06
-1.69354e-06
2.33646e-06
-1.5416e-06
2.66625e-06
-1.39444e-06
2.96388e-06
-1.25306e-06
3.23044e-06
-1.12122e-06
3.46946e-06
-1.00049e-06
3.68369e-06
-8.8846e-07
3.87512e-06
-7.84155e-07
4.04549e-06
-6.87297e-07
4.19641e-06
-5.97632e-07
4.32944e-06
-5.14786e-07
4.44605e-06
-4.383e-07
4.54767e-06
-3.67674e-07
4.63574e-06
-3.02398e-07
4.71167e-06
-2.42078e-07
4.77678e-06
-1.86479e-07
4.83253e-06
-1.35323e-07
4.88013e-06
-8.85604e-08
4.92041e-06
-4.62873e-08
4.95437e-06
-8.27588e-09
4.98227e-06
2.49227e-08
5.00415e-06
5.36373e-08
5.0201e-06
7.78537e-08
5.03029e-06
9.78437e-08