/*--------------------------------*- C++ -*----------------------------------*\
| =========                 |                                                 |
| \\      /  F ield         | OpenFOAM: The Open Source CFD Toolbox           |
|  \\    /   O peration     | Version:  2112                                  |
|   \\  /    A nd           | Website:  www.openfoam.com                      |
|    \\/     M anipulation  |                                                 |
\*---------------------------------------------------------------------------*/
FoamFile
{
    version     2.0;
    format      ascii;
    arch        "LSB;label=32;scalar=64";
    class       volScalarField;
    location    "0.21";
    object      omegaU;
}
// * * * * * * * * * * * * * * * * * * * * * * * * * * * * * * * * * * * * * //

dimensions      [0 0 -1 0 0 0 0];

internalField   nonuniform List<scalar> 
12225
(
51478.6
71163.2
76841.1
77234.2
75783.9
73781.4
71704.1
69722.5
67884.4
66192.3
64636.8
63207.1
61893.7
60693.5
59595.5
58639.7
57545
56388.2
7149.24
14629.5
20571.7
24962
28175.3
30565.8
32364.2
33673.4
34502.9
34793.7
34469.1
33534.8
32162.5
30637.3
29215.9
28075.6
27302
26879.1
841.83
2395.84
4176.49
6058.3
7926.63
9678.06
11364.3
12990.8
14534.9
15945.7
17153.2
18096.4
18751.1
19134.8
19285.1
19248.2
19067.6
18766.7
227.92
538.282
903.281
1313.86
1783.94
2399.12
3079.02
3802.07
4571.69
5385.51
6198.92
7032.37
7878.71
8716.86
9523.84
10281.4
10966.1
11561.2
109.647
203.853
312.074
431.229
564.856
730.956
914.811
1110.92
1319.57
1546.01
1846.44
2190.58
2562.04
2961.74
3392.88
3843.26
4318.08
4830.25
70.1838
111.329
156.101
204.117
255.522
312.642
374.276
439.416
507.776
580.531
671.121
772.404
880.043
993.79
1115.16
1267.06
1454.52
1660.14
53.219
75.4903
98.2341
122.188
147.14
173.439
200.908
229.326
258.574
288.788
321.526
356.684
393.776
432.561
473.25
521.97
579.441
640.214
45.7199
58.102
71.7233
85.3816
99.3121
113.681
128.343
143.27
158.403
173.745
189.526
205.818
222.582
239.772
257.421
276.172
296.345
317.186
42.4101
48.9309
57.2881
66.0306
74.8394
83.5669
92.2659
101.104
109.986
118.889
127.849
136.895
146.032
155.262
164.6
174.136
183.918
193.658
40.9249
44.2676
48.9831
54.5494
60.4461
66.3541
72.1986
77.9293
83.6081
89.258
94.8985
100.543
106.206
111.905
117.665
123.506
129.408
135.137
40.2453
41.9397
44.4679
47.6806
51.3767
55.377
59.4963
63.5217
67.4801
71.3868
75.252
79.0808
82.8753
86.6361
90.3652
94.0643
97.7204
101.21
39.9496
40.8747
42.2842
44.1454
46.391
48.9505
51.7315
54.6018
57.4838
60.3375
63.1468
65.9046
68.6019
71.2246
73.7573
76.1896
78.5156
80.6854
39.7879
40.2883
41.0514
42.0842
43.3717
44.8921
46.6115
48.4716
50.4081
52.3691
54.3208
56.2425
58.1182
59.932
61.6683
63.3159
64.8669
66.2911
39.6907
39.9344
40.3176
40.8303
41.4859
42.282
43.2088
44.2457
45.3643
46.5341
47.7282
48.9248
50.1067
51.2592
52.3702
53.4307
54.433
55.3542
39.6387
39.7385
39.9116
40.142
40.4377
40.8034
41.2379
41.7356
42.287
42.8805
43.5035
44.1438
44.7902
45.4329
46.064
46.6773
47.2668
47.8182
39.6142
39.6436
39.7077
39.8011
39.9193
40.0673
40.2458
40.4535
40.688
40.9458
41.2228
41.5144
41.816
42.1233
42.4325
42.7404
43.0435
43.3343
39.6041
39.6043
39.6201
39.6515
39.6945
39.7496
39.8173
39.8975
39.9895
40.0923
40.2049
40.3258
40.4536
40.5868
40.7243
40.8647
41.0064
41.1467
39.601
39.5923
39.5931
39.6041
39.624
39.6511
39.6856
39.7274
39.776
39.8312
39.8925
39.9596
40.0319
40.109
40.1904
40.2756
40.3642
40.4553
39.6026
39.5994
39.6104
39.6372
39.6775
39.7282
39.7901
39.8632
39.9473
40.0423
40.1479
40.2637
40.3891
40.5235
40.6663
40.8167
40.9737
41.1354
39.6167
39.6559
39.7409
39.8718
40.0357
40.2295
40.4563
40.7166
41.01
41.335
41.6895
42.0706
42.4744
42.8959
43.3307
43.7748
44.2245
44.6734
39.6654
39.8432
40.1492
40.5651
41.0551
41.6259
42.2808
43.0126
43.8111
44.6658
45.5656
46.5001
47.455
48.4028
49.3381
50.2581
51.1587
52.0306
39.8276
40.4236
41.3282
42.462
43.771
45.2571
46.9004
48.6261
50.3953
52.185
53.9786
55.7634
57.523
59.2399
60.9198
62.5614
64.1594
65.6966
40.3297
42.0489
44.3807
47.1259
50.185
53.4663
56.87
60.2852
63.6753
67.0175
70.3
73.5173
76.6731
79.8068
82.9119
85.9795
88.9981
91.9349
41.8091
46.3054
51.8024
57.9172
64.4234
71.1104
77.8171
84.5462
91.2573
97.9221
104.553
111.162
117.752
124.324
130.874
137.393
143.869
150.242
46.2528
57.3629
70.1107
83.9025
98.3386
113.159
128.174
143.271
158.378
173.52
189.006
204.915
221.176
237.712
254.467
271.399
288.469
305.562
59.8261
88.2065
121.295
157.569
196.006
235.982
277.031
318.794
361.038
404.386
453.249
506.374
561.787
618.799
677.244
737.105
798.367
860.824
106.514
196.972
313.194
445.754
588.734
739.364
895.457
1055.21
1217.39
1385.79
1591.01
1822.96
2067.96
2322.67
2586.83
2860.43
3142.75
3431.37
352.801
809.09
1444.33
2172.97
2939.17
3717.7
4491.95
5251.83
5992.96
6712.67
7396.2
8061.43
8720.72
9373.58
10013.1
10629.2
11210.8
11745.4
3378.76
7375.36
10901.7
13820.4
16178.4
18075
19618.4
20898.7
21981.6
22911.2
23715.3
24406.3
24988
25457.6
25806.6
26024
26098.1
26020.4
34137.4
50549.8
57199.8
59355
59567.6
58961.2
58021.9
56968.1
55904.3
54881
53919.8
53026.7
52198.4
51427.4
50705.9
50027.6
49385.2
48778
310.179
312.087
316.219
322.618
331.412
342.724
356.641
373.217
392.468
414.384
439.407
467.91
499.382
533.178
568.907
606.333
645.282
685.621
727.263
770.154
814.27
859.606
906.169
953.971
1003.02
1053.34
1104.92
1157.78
1211.91
1267.32
1323.98
1381.9
1441.04
1501.4
1562.93
1625.62
1689.41
1754.27
1820.15
1886.99
1954.72
2023.29
2092.62
2162.63
2233.24
2304.35
2375.87
2447.69
2519.72
2591.83
2663.92
2735.87
2807.55
2878.85
2949.64
3019.8
3089.21
3157.74
3225.28
3291.7
3356.91
3420.78
3483.23
3544.15
3603.45
3661.06
3716.89
3770.88
3822.95
3873.05
3921.12
3967.12
4010.99
4052.68
4092.16
4129.38
4164.3
4196.89
4227.08
4254.86
4280.17
4302.98
4323.23
4340.88
4355.87
4368.15
4377.66
4384.32
4388.06
4388.78
4386.37
4380.71
4371.63
4359.04
4343.45
4324.85
4303.17
4278.36
4250.36
4219.15
4184.68
4146.93
4105.88
4061.5
4013.79
3962.72
3908.31
3850.55
3789.45
3725.02
3657.3
3586.31
3512.11
3434.75
3354.29
3270.84
3184.49
3095.37
3003.62
2909.42
2812.95
2714.44
2614.14
2512.32
2409.28
2305.38
2200.96
2096.43
1992.21
1888.74
1786.48
1685.91
1587.5
1491.74
1399.09
1310
1224.88
1144.11
1068.03
996.918
931.013
870.496
815.504
766.138
722.476
684.576
652.471
626.354
606.907
592.697
582.411
575.994
573.564
575.116
580.47
589.735
603.99
624.135
649.754
680.783
717.249
759.176
806.594
859.531
918.003
981.998
1051.47
1126.33
1206.46
1291.66
1381.73
1476.39
1575.33
1678.15
1784.37
1893.33
2004.47
2116.18
2232.34
2325.41
313.376
314.494
317.671
322.916
330.351
340.071
352.124
366.517
383.224
402.192
423.365
446.667
471.865
498.638
526.678
555.732
585.604
616.148
647.261
678.877
710.955
743.472
776.415
809.777
843.552
877.731
912.306
947.262
982.583
1018.25
1054.23
1090.51
1127.06
1163.83
1200.79
1237.91
1275.15
1312.46
1349.78
1387.09
1424.32
1461.43
1498.35
1535.05
1571.46
1607.52
1643.19
1678.41
1713.13
1747.29
1780.84
1813.74
1845.94
1877.39
1908.06
1937.91
1966.91
1995.03
2022.24
2048.53
2073.88
2098.27
2121.7
2144.16
2165.65
2186.17
2205.73
2224.31
2241.93
2258.6
2274.32
2289.09
2302.92
2315.8
2327.76
2338.78
2348.87
2358.02
2366.24
2373.52
2379.86
2385.25
2389.68
2393.14
2395.63
2397.11
2397.58
2397.03
2395.41
2392.73
2388.96
2384.11
2378.18
2371.7
2364.24
2355.74
2346.15
2335.46
2323.65
2310.7
2296.59
2281.3
2264.82
2247.12
2228.2
2208.02
2186.58
2163.84
2139.81
2114.44
2087.73
2059.66
2030.22
1999.39
1967.17
1933.55
1898.54
1862.13
1824.34
1785.19
1744.71
1702.94
1659.93
1615.75
1570.46
1524.17
1476.99
1429.04
1380.46
1331.43
1282.12
1232.73
1183.49
1134.61
1086.36
1038.96
992.689
947.791
904.521
863.122
823.827
786.853
752.403
720.665
691.813
666.012
643.423
624.281
608.927
597.123
588.409
582.728
580.159
580.691
584.228
590.856
600.859
614.406
631.315
651.48
674.834
701.306
730.819
763.282
798.59
836.619
877.225
920.243
965.488
1012.76
1061.84
1112.5
1164.51
1217.63
1271.61
1326.23
1381.43
1437.44
1496.54
1562.12
321.255
320.547
322.01
325.528
331.203
339.101
349.224
361.529
375.93
392.308
410.515
430.37
451.645
474.081
497.42
521.436
545.943
570.799
595.902
621.184
646.602
672.129
697.749
723.451
749.226
775.062
800.948
826.867
852.802
878.73
904.629
930.472
956.231
981.876
1007.37
1032.7
1057.8
1082.66
1107.24
1131.5
1155.4
1178.92
1202.01
1224.65
1246.8
1268.42
1289.5
1310.01
1329.91
1349.19
1367.83
1385.82
1403.14
1419.78
1435.74
1451.01
1465.61
1479.52
1492.76
1505.34
1517.28
1528.58
1539.26
1549.34
1558.84
1567.77
1576.16
1584.02
1591.36
1598.22
1604.59
1610.49
1615.93
1620.93
1625.49
1629.62
1633.32
1636.61
1639.48
1641.94
1643.99
1645.63
1646.86
1647.68
1648.08
1648.07
1647.65
1646.81
1645.56
1643.89
1641.83
1639.38
1636.82
1633.95
1630.66
1626.89
1622.63
1617.87
1612.59
1606.79
1600.44
1593.54
1586.07
1578.02
1569.37
1560.1
1550.2
1539.64
1528.41
1516.49
1503.85
1490.47
1476.33
1461.41
1445.69
1429.14
1411.76
1393.51
1374.38
1354.36
1333.44
1311.61
1288.87
1265.22
1240.69
1215.28
1189.02
1161.97
1134.16
1105.67
1076.57
1046.96
1016.96
986.674
956.259
925.868
895.67
865.848
836.591
808.099
780.573
754.218
729.237
705.831
684.199
664.537
647.045
631.948
619.447
609.474
601.872
596.645
593.852
593.45
595.392
599.731
606.612
616.097
628.067
642.397
658.978
677.7
698.444
721.078
745.46
771.438
798.849
827.519
857.271
887.923
919.294
951.207
983.492
1016
1048.59
1081.22
1113.98
1147.42
1183.22
1225.05
335.393
330.741
329.43
330.425
333.765
339.455
347.428
357.57
369.733
383.741
399.392
416.465
434.716
453.899
473.776
494.134
514.799
535.635
556.543
577.456
598.329
619.136
639.86
660.489
681.015
701.426
721.713
741.859
761.851
781.669
801.292
820.7
839.868
858.773
877.39
895.693
913.658
931.259
948.472
965.274
981.64
997.551
1012.99
1027.93
1042.36
1056.27
1069.65
1082.48
1094.76
1106.5
1117.68
1128.31
1138.4
1147.95
1156.98
1165.5
1173.52
1181.07
1188.15
1194.8
1201.04
1206.87
1212.34
1217.46
1222.25
1226.72
1230.91
1234.83
1238.48
1241.9
1245.08
1248.04
1250.79
1253.34
1255.69
1257.85
1259.82
1261.61
1263.22
1264.65
1265.9
1266.97
1267.87
1268.6
1269.15
1269.53
1269.75
1269.79
1269.68
1269.43
1269.03
1268.58
1268.1
1267.45
1266.57
1265.42
1264.01
1262.33
1260.35
1258.08
1255.5
1252.6
1249.38
1245.81
1241.9
1237.62
1232.96
1227.91
1222.44
1216.55
1210.22
1203.42
1196.14
1188.36
1180.07
1171.23
1161.84
1151.87
1141.3
1130.12
1118.3
1105.83
1092.71
1078.9
1064.42
1049.25
1033.4
1016.87
999.687
981.865
963.442
944.46
924.975
905.054
884.78
864.246
843.562
822.848
802.24
781.883
761.936
742.562
723.932
706.223
689.62
674.303
660.459
648.274
637.863
629.245
622.415
617.438
614.318
613.024
613.532
615.885
620.179
626.434
634.548
644.401
655.882
668.878
683.27
698.931
715.725
733.511
752.146
771.481
791.369
811.669
832.242
852.962
873.716
894.411
914.991
935.469
956.013
977.156
1000.06
1026.86
358.36
346.218
340.619
338.056
338.361
341.388
346.946
354.817
364.771
376.565
389.945
404.652
420.424
437.007
454.168
471.702
489.44
507.249
525.034
542.728
560.287
577.683
594.901
611.93
628.76
645.385
661.794
677.977
693.922
709.614
725.037
740.175
755.011
769.527
783.706
797.53
810.982
824.047
836.709
848.956
860.775
872.157
883.092
893.574
903.6
913.167
922.277
930.932
939.137
946.901
954.232
961.145
967.652
973.77
979.516
984.911
989.974
994.727
999.191
1003.39
1007.34
1011.07
1014.59
1017.93
1021.11
1024.13
1027.02
1029.78
1032.44
1034.99
1037.44
1039.8
1042.08
1044.27
1046.39
1048.42
1050.38
1052.27
1054.08
1055.82
1057.48
1059.06
1060.58
1062.02
1063.38
1064.68
1065.9
1067.06
1068.17
1069.22
1070.23
1071.28
1072.28
1073.14
1073.86
1074.4
1074.76
1074.93
1074.91
1074.68
1074.25
1073.59
1072.71
1071.59
1070.22
1068.6
1066.71
1064.55
1062.09
1059.32
1056.24
1052.83
1049.08
1044.96
1040.47
1035.6
1030.31
1024.6
1018.45
1011.85
1004.78
997.214
989.15
980.57
971.463
961.818
951.629
940.893
929.611
917.789
905.44
892.584
879.248
865.469
851.294
836.781
821.999
807.029
791.962
776.903
761.972
747.295
733.004
719.244
706.174
693.942
682.7
672.598
663.675
656.047
649.732
644.8
641.266
639.112
638.325
638.949
641.063
644.674
649.696
656.022
663.552
672.186
681.819
692.344
703.647
715.611
728.118
741.05
754.294
767.741
781.29
794.853
808.354
821.739
834.99
848.152
861.395
875.163
890.211
907.704
390.829
367.242
355.657
348.385
344.888
344.758
347.602
353.055
360.772
370.427
381.707
394.307
407.94
422.338
437.261
452.505
467.901
483.319
498.665
513.87
528.892
543.703
558.288
572.635
586.739
600.594
614.192
627.527
640.591
653.372
665.862
678.048
689.92
701.466
712.676
723.539
734.046
744.19
753.962
763.358
772.375
781.01
789.263
797.136
804.633
811.759
818.523
824.933
831.002
836.743
842.17
847.299
852.147
856.734
861.079
865.2
869.119
872.855
876.428
879.858
883.164
886.361
889.468
892.498
895.463
898.375
901.244
904.075
906.875
909.647
912.393
915.116
917.815
920.491
923.142
925.768
928.367
930.94
933.483
935.997
938.48
940.932
943.35
945.736
948.088
950.408
952.697
954.957
957.191
959.404
961.637
963.864
966.018
968.065
969.986
971.77
973.41
974.897
976.226
977.391
978.384
979.2
979.832
980.271
980.511
980.544
980.359
979.948
979.302
978.411
977.264
975.853
974.166
972.191
969.918
967.334
964.426
961.182
957.588
953.631
949.299
944.577
939.453
933.915
927.951
921.552
914.707
907.411
899.66
891.454
882.797
873.696
864.165
854.224
843.899
833.229
822.258
811.04
799.635
788.117
776.58
765.117
753.827
742.817
732.237
722.184
712.767
704.141
696.307
689.332
683.286
678.245
674.237
671.253
669.293
668.403
668.654
670.054
672.535
676.009
680.389
685.593
691.536
698.132
705.292
712.923
720.934
729.234
737.737
746.361
755.034
763.693
772.286
780.784
789.186
797.547
806.016
814.933
824.777
836.168
433.707
394.025
374.491
361.254
353.157
349.369
349.201
352.077
357.506
365.055
374.336
384.996
396.713
409.199
422.204
435.518
448.969
462.428
475.797
489.01
502.023
514.809
527.351
539.641
551.673
563.443
574.949
586.185
597.148
607.832
618.232
628.341
638.153
647.664
656.868
665.76
674.339
682.602
690.547
698.177
705.494
712.5
719.202
725.607
731.722
737.558
743.127
748.442
753.516
758.364
763.003
767.449
771.72
775.832
779.804
783.654
787.399
791.056
794.642
798.171
801.658
805.115
808.556
811.987
815.419
818.856
822.302
825.761
829.233
832.717
836.212
839.715
843.224
846.735
850.246
853.753
857.255
860.748
864.231
867.701
871.156
874.595
878.016
881.417
884.799
888.159
891.499
894.82
898.125
901.417
904.716
907.967
911.134
914.197
917.142
919.96
922.644
925.189
927.587
929.834
931.923
933.85
935.607
937.19
938.591
939.804
940.82
941.633
942.234
942.618
942.775
942.697
942.378
941.807
940.977
939.877
938.497
936.828
934.86
932.581
929.982
927.052
923.78
920.156
916.171
911.815
907.08
901.959
896.448
890.543
884.246
877.559
870.487
863.041
855.236
847.097
838.658
829.95
821.014
811.897
802.682
793.438
784.229
775.119
766.286
757.779
749.674
742.049
734.92
728.335
722.373
717.113
712.592
708.813
705.787
703.56
702.198
701.717
702.066
703.177
704.979
707.406
710.392
713.872
717.779
722.044
726.596
731.368
736.296
741.32
746.387
751.453
756.483
761.46
766.392
771.332
776.402
781.852
787.976
795.111
487.878
426.677
396.958
376.413
362.909
354.982
351.525
351.68
354.766
360.224
367.577
376.413
386.372
397.142
408.457
420.099
431.893
443.705
455.437
467.02
478.41
489.578
500.51
511.195
521.631
531.816
541.749
551.428
560.853
570.022
578.934
587.587
595.98
604.112
611.983
619.594
626.946
634.042
640.886
647.482
653.838
659.959
665.856
671.538
677.016
682.301
687.408
692.35
697.141
701.797
706.331
710.761
715.101
719.366
723.572
727.733
731.862
735.973
740.078
744.188
748.313
752.462
756.641
760.854
765.107
769.4
773.733
778.106
782.514
786.955
791.423
795.913
800.419
804.937
809.462
813.99
818.517
823.04
827.556
832.063
836.558
841.039
845.503
849.95
854.376
858.781
863.164
867.524
871.863
876.189
880.47
884.676
888.784
892.781
896.656
900.402
904.012
907.48
910.801
913.969
916.979
919.826
922.504
925.01
927.336
929.476
931.425
933.175
934.721
936.057
937.176
938.073
938.74
939.172
939.361
939.299
938.98
938.394
937.533
936.391
934.957
933.225
931.185
928.83
926.152
923.142
919.795
916.104
912.063
907.67
902.926
897.83
892.385
886.593
880.461
874.01
867.267
860.253
852.989
845.488
837.854
830.132
822.367
814.617
806.981
799.514
792.267
785.281
778.57
772.17
766.157
760.602
755.55
751.015
747.017
743.602
740.83
738.724
737.254
736.368
736.011
736.132
736.682
737.613
738.877
740.423
742.2
744.161
746.258
748.448
750.694
752.965
755.236
757.499
759.765
762.08
764.54
767.324
770.607
774.59
554.035
465.157
422.781
393.545
373.854
361.351
354.365
351.683
352.389
355.772
361.256
368.362
376.687
385.893
395.697
405.87
416.231
426.641
437
447.237
457.306
467.177
476.835
486.271
495.482
504.467
513.229
521.767
530.085
538.183
546.064
553.73
561.184
568.428
575.466
582.303
588.943
595.394
601.66
607.751
613.674
619.439
625.057
630.538
635.895
641.141
646.288
651.35
656.341
661.273
666.162
671.018
675.856
680.687
685.522
690.372
695.247
700.155
705.104
710.101
715.151
720.258
725.426
730.654
735.943
741.291
746.694
752.148
757.647
763.186
768.755
774.348
779.958
785.579
791.204
796.83
802.451
808.065
813.667
819.255
824.827
830.381
835.913
841.423
846.906
852.361
857.786
863.182
868.541
873.84
879.057
884.174
889.177
894.054
898.798
903.401
907.857
912.16
916.305
920.287
924.102
927.744
931.208
934.49
937.586
940.489
943.193
945.694
947.986
950.064
951.925
953.562
954.971
956.146
957.081
957.771
958.208
958.388
958.303
957.947
957.313
956.395
955.186
953.681
951.873
949.757
947.326
944.574
941.496
938.092
934.363
930.309
925.928
921.22
916.179
910.83
905.204
899.308
893.155
886.768
880.199
873.488
866.676
859.807
852.944
846.129
839.398
832.771
826.256
819.883
813.713
807.812
802.224
796.974
792.087
787.608
783.594
780.072
777.028
774.427
772.23
770.398
768.895
767.688
766.744
766.027
765.503
765.138
764.902
764.764
764.698
764.682
764.701
764.751
764.844
765.019
765.348
765.957
766.949
768.463
632.61
509.263
451.587
412.289
385.694
368.242
357.545
351.948
350.262
351.602
355.28
360.744
367.549
375.324
383.771
392.648
401.767
410.984
420.195
429.326
438.33
447.174
455.843
464.326
472.623
480.732
488.656
496.398
503.962
511.353
518.575
525.634
532.535
539.285
545.89
552.358
558.697
564.913
571.017
577.017
582.922
588.743
594.491
600.178
605.814
611.414
616.988
622.55
628.11
633.681
639.274
644.897
650.561
656.274
662.042
667.872
673.767
679.734
685.773
691.887
698.077
704.343
710.682
717.092
723.569
730.108
736.703
743.349
750.037
756.761
763.51
770.276
777.051
783.828
790.602
797.367
804.119
810.855
817.569
824.261
830.927
837.567
844.176
850.754
857.296
863.801
870.264
876.683
883.006
889.225
895.329
901.306
907.147
912.843
918.387
923.772
928.992
934.041
938.915
943.609
948.118
952.438
956.564
960.492
964.219
967.739
971.046
974.138
977.009
979.656
982.077
984.265
986.216
987.927
989.392
990.607
991.567
992.267
992.701
992.864
992.752
992.359
991.68
990.712
989.45
987.889
986.025
983.852
981.361
978.558
975.448
972.029
968.298
964.255
959.901
955.249
950.315
945.109
939.643
933.936
928.018
921.922
915.679
909.324
902.898
896.432
889.947
883.455
876.961
870.484
864.074
857.786
851.664
845.736
840.032
834.595
829.476
824.706
820.286
816.196
812.408
808.895
805.634
802.601
799.773
797.129
794.648
792.309
790.093
787.98
785.952
783.995
782.101
780.268
778.51
776.858
775.367
774.126
773.188
772.676
723.742
558.635
482.927
432.261
398.139
375.45
360.924
352.386
348.333
347.687
349.639
353.563
358.964
365.443
372.682
380.429
388.487
396.707
404.98
413.231
421.407
429.476
437.419
445.227
452.896
460.426
467.819
475.08
482.214
489.227
496.126
502.919
509.615
516.224
522.754
529.216
535.62
541.975
548.29
554.574
560.837
567.088
573.338
579.597
585.876
592.187
598.54
604.945
611.413
617.951
624.568
631.27
638.062
644.948
651.928
659.004
666.175
673.438
680.79
688.227
695.745
703.338
711
718.724
726.501
734.325
742.189
750.088
758.016
765.964
773.923
781.883
789.839
797.784
805.712
813.62
821.503
829.356
837.176
844.961
852.707
860.416
868.084
875.71
883.289
890.821
898.301
905.641
912.841
919.896
926.802
933.551
940.137
946.554
952.796
958.854
964.722
970.396
975.871
981.143
986.209
991.065
995.705
1000.13
1004.33
1008.3
1012.04
1015.55
1018.83
1021.86
1024.66
1027.21
1029.51
1031.55
1033.34
1034.86
1036.13
1037.12
1037.84
1038.28
1038.44
1038.32
1037.91
1037.21
1036.21
1034.92
1033.33
1031.44
1029.25
1026.74
1023.94
1020.83
1017.42
1013.71
1009.7
1005.4
1000.81
995.953
990.831
985.46
979.861
974.058
968.075
961.938
955.675
949.309
942.852
936.311
929.688
922.996
916.272
909.561
902.9
896.323
889.858
883.546
877.435
871.556
865.92
860.52
855.34
850.365
845.577
840.962
836.505
832.194
828.02
823.974
820.045
816.22
812.49
808.845
805.281
801.8
798.418
795.161
792.07
789.208
786.597
784.362
827.319
612.799
516.314
453.087
410.933
382.818
364.421
352.974
346.626
344.09
344.43
346.94
351.078
356.416
362.616
369.414
376.607
384.039
391.599
399.207
406.808
414.369
421.867
429.293
436.642
443.912
451.105
458.223
465.271
472.254
479.182
486.067
492.921
499.758
506.59
513.431
520.292
527.184
534.116
541.095
548.128
555.22
562.38
569.615
576.935
584.349
591.865
599.492
607.235
615.1
623.091
631.209
639.454
647.824
656.314
664.918
673.627
682.43
691.317
700.276
709.293
718.359
727.459
736.584
745.72
754.861
764
773.14
782.278
791.411
800.53
809.629
818.707
827.758
836.78
845.768
854.718
863.625
872.485
881.295
890.053
898.76
907.416
916.019
924.565
933.059
941.361
949.474
957.401
965.143
972.698
980.062
987.233
994.207
1000.98
1007.54
1013.88
1019.99
1025.88
1031.54
1036.97
1042.17
1047.13
1051.84
1056.31
1060.53
1064.5
1068.22
1071.68
1074.9
1077.85
1080.54
1082.96
1085.12
1087
1088.61
1089.94
1090.99
1091.75
1092.23
1092.42
1092.32
1091.93
1091.24
1090.26
1088.98
1087.4
1085.53
1083.35
1080.87
1078.09
1075.01
1071.64
1067.97
1064.01
1059.76
1055.23
1050.42
1045.35
1040.03
1034.47
1028.69
1022.71
1016.54
1010.22
1003.74
997.128
990.378
983.494
976.484
969.373
962.195
954.984
947.769
940.581
933.457
926.438
919.557
912.832
906.266
899.854
893.589
887.461
881.462
875.577
869.808
864.156
858.618
853.189
847.864
842.636
837.5
832.456
827.511
822.682
817.992
813.472
809.167
805.08
801.343
943.131
671.23
551.269
474.434
423.88
390.26
368.042
353.793
345.287
341.016
339.911
341.188
344.255
348.654
354.032
360.112
366.684
373.59
380.713
387.973
395.312
402.697
410.105
417.527
424.954
432.383
439.812
447.234
454.645
462.049
469.457
476.887
484.357
491.889
499.5
507.208
515.03
522.981
531.068
539.291
547.646
556.13
564.743
573.489
582.373
591.401
600.577
609.906
619.39
629.028
638.82
648.761
658.844
669.06
679.397
689.837
700.361
710.948
721.575
732.221
742.861
753.476
764.045
774.55
784.979
795.325
805.592
815.798
825.958
836.076
846.149
856.181
866.179
876.147
886.077
895.965
905.805
915.594
925.323
934.99
944.594
954.135
963.617
973.043
982.394
991.489
1000.34
1008.97
1017.36
1025.53
1033.47
1041.19
1048.68
1055.94
1062.98
1069.77
1076.3
1082.59
1088.62
1094.39
1099.91
1105.17
1110.17
1114.91
1119.38
1123.57
1127.5
1131.16
1134.55
1137.67
1140.51
1143.08
1145.37
1147.37
1149.09
1150.51
1151.65
1152.5
1153.05
1153.3
1153.26
1152.93
1152.29
1151.36
1150.13
1148.6
1146.77
1144.64
1142.22
1139.5
1136.48
1133.17
1129.57
1125.68
1121.5
1117.04
1112.31
1107.3
1102.03
1096.51
1090.75
1084.76
1078.55
1072.15
1065.56
1058.79
1051.86
1044.76
1037.49
1030.06
1022.49
1014.79
1007
999.144
991.248
983.347
975.478
967.674
959.956
952.336
944.818
937.4
930.081
922.858
915.711
908.658
901.707
894.857
888.107
881.457
874.903
868.44
862.074
855.821
849.696
843.722
837.92
832.323
826.924
821.862
1071.17
733.461
587.381
496.052
436.888
397.821
371.947
355.111
344.684
338.93
336.644
336.964
339.249
343.014
347.888
353.586
359.893
366.65
373.74
381.082
388.618
396.315
404.158
412.146
420.28
428.551
436.937
445.41
453.918
462.459
471.044
479.707
488.485
497.412
506.515
515.824
525.366
535.17
545.253
555.597
566.152
576.888
587.791
598.856
610.08
621.462
633.003
644.702
656.554
668.551
680.684
692.939
705.302
717.754
730.274
742.836
755.396
767.922
780.38
792.733
804.943
816.973
828.792
840.375
851.716
862.823
873.723
884.471
895.134
905.721
916.235
926.7
937.156
947.627
958.063
968.462
978.819
989.124
999.369
1009.55
1019.67
1029.72
1039.72
1049.56
1059.09
1068.34
1077.3
1086
1094.43
1102.6
1110.5
1118.15
1125.54
1132.67
1139.54
1146.15
1152.48
1158.53
1164.31
1169.81
1175.04
1179.99
1184.66
1189.06
1193.18
1197.03
1200.62
1203.92
1206.94
1209.68
1212.12
1214.28
1216.13
1217.7
1218.96
1219.92
1220.59
1220.95
1221
1220.76
1220.21
1219.36
1218.22
1216.77
1215.02
1212.98
1210.64
1208.01
1205.09
1201.87
1198.36
1194.57
1190.5
1186.14
1181.51
1176.6
1171.43
1166
1160.31
1154.37
1148.19
1141.79
1135.17
1128.34
1121.31
1114.1
1106.71
1099.12
1091.35
1083.38
1075.24
1066.93
1058.49
1049.93
1041.28
1032.58
1023.85
1015.14
1006.46
997.837
989.27
980.768
972.332
963.97
955.698
947.513
939.416
931.408
923.489
915.661
907.928
900.284
892.741
885.322
878.043
870.922
863.975
857.227
850.665
844.429
1212.15
799.27
624.406
517.868
450.078
405.807
376.622
357.583
345.646
338.835
335.813
335.637
337.623
341.26
346.162
352.037
358.67
365.911
373.657
381.828
390.359
399.209
408.382
417.915
427.846
438.192
448.909
459.842
470.815
481.791
492.725
503.756
514.966
526.411
538.136
550.179
562.591
575.447
588.868
602.802
616.963
631.269
645.69
660.213
674.817
689.501
704.263
719.093
733.978
748.903
763.845
778.784
793.692
808.543
823.314
837.993
852.458
866.688
880.648
894.287
907.549
920.37
932.688
944.46
955.737
966.569
977.02
987.21
997.379
1007.47
1017.48
1027.47
1037.56
1047.76
1058.01
1068.26
1078.5
1088.69
1098.85
1108.95
1119.02
1129.05
1138.79
1148.21
1157.32
1166.12
1174.62
1182.82
1190.73
1198.35
1205.68
1212.72
1219.48
1225.97
1232.17
1238.08
1243.71
1249.05
1254.09
1258.84
1263.3
1267.48
1271.36
1274.97
1278.29
1281.35
1284.14
1286.63
1288.83
1290.73
1292.34
1293.64
1294.64
1295.34
1295.73
1295.83
1295.61
1295.1
1294.28
1293.16
1291.75
1290.03
1288.03
1285.73
1283.15
1280.28
1277.12
1273.69
1269.97
1265.98
1261.71
1257.17
1252.37
1247.3
1241.97
1236.39
1230.56
1224.48
1218.16
1211.61
1204.84
1197.84
1190.64
1183.24
1175.64
1167.86
1159.89
1151.72
1143.36
1134.79
1126.03
1117.09
1107.98
1098.72
1089.35
1079.88
1070.36
1060.81
1051.27
1041.74
1032.23
1022.76
1013.34
1003.95
994.66
985.437
976.285
967.205
958.201
949.283
940.46
931.752
923.174
914.733
906.44
898.307
890.35
882.586
875.003
867.734
1374.56
871.434
663.721
540.9
464.478
415.405
383.482
362.904
350.174
343.073
340.127
340.314
342.916
347.408
353.392
360.551
368.673
377.662
387.499
398.159
409.475
421.296
433.663
446.706
460.513
475.093
490.409
506.294
521.904
537.105
552.12
567.248
582.595
598.235
614.212
630.545
647.264
664.463
682.211
700.283
718.377
736.504
754.655
772.838
790.922
808.902
826.77
844.509
862.093
879.496
896.693
913.655
930.357
946.771
962.872
978.634
994.022
1009
1023.55
1037.62
1051.16
1064.11
1076.37
1087.8
1098.58
1108.82
1118.58
1127.94
1137.02
1145.86
1154.51
1163.16
1172.2
1181.55
1191.01
1200.5
1209.98
1219.41
1228.83
1238.17
1247.22
1255.88
1264.23
1272.27
1280.01
1287.44
1294.57
1301.38
1307.88
1314.08
1319.97
1325.57
1330.88
1335.9
1340.65
1345.1
1349.27
1353.14
1356.71
1360
1363
1365.72
1368.15
1370.29
1372.15
1373.73
1375.02
1376.02
1376.74
1377.16
1377.28
1377.13
1376.68
1375.95
1374.93
1373.62
1372.03
1370.15
1368
1365.56
1362.86
1359.88
1356.63
1353.12
1349.35
1345.33
1341.04
1336.51
1331.72
1326.69
1321.41
1315.9
1310.14
1304.16
1297.95
1291.51
1284.86
1277.99
1270.91
1263.62
1256.14
1248.46
1240.59
1232.54
1224.32
1215.93
1207.36
1198.61
1189.68
1180.57
1171.27
1161.79
1152.15
1142.36
1132.45
1122.43
1112.33
1102.18
1092
1081.82
1071.64
1061.47
1051.32
1041.19
1031.08
1021.02
1011
1001.02
991.112
981.272
971.519
961.887
952.394
943.041
933.84
924.805
915.952
907.296
898.812
890.629
1544.35
942.294
701.557
563.871
480.501
428.297
395.269
374.772
362.895
357.219
356.149
358.572
363.787
371.378
381.007
392.089
404.273
417.713
432.935
450.758
470.088
489.278
508.317
527.568
547.261
567.533
588.5
609.732
630.406
651.019
671.883
692.981
714.333
735.939
757.798
779.799
801.805
823.751
845.402
866.642
887.691
908.569
929.243
949.668
969.773
989.506
1008.83
1027.7
1046.11
1064.02
1081.42
1098.3
1114.64
1130.45
1145.72
1160.45
1174.65
1188.3
1201.43
1214.02
1226.07
1237.57
1248.52
1258.78
1268.57
1277.94
1286.89
1295.39
1303.35
1310.96
1318.37
1325.78
1333.57
1341.47
1349.33
1357.12
1364.92
1372.51
1379.69
1386.42
1392.77
1398.76
1404.44
1409.83
1414.94
1419.75
1424.28
1428.52
1432.48
1436.15
1439.54
1442.68
1445.55
1448.18
1450.56
1452.68
1454.53
1456.13
1457.47
1458.55
1459.37
1459.95
1460.27
1460.34
1460.16
1459.71
1459.02
1458.06
1456.85
1455.38
1453.66
1451.68
1449.46
1446.99
1444.27
1441.31
1438.1
1434.64
1430.95
1427.02
1422.86
1418.46
1413.85
1409.01
1403.96
1398.68
1393.2
1387.5
1381.59
1375.48
1369.17
1362.66
1355.95
1349.05
1341.97
1334.7
1327.25
1319.63
1311.83
1303.87
1295.74
1287.45
1279.01
1270.42
1261.68
1252.79
1243.76
1234.58
1225.25
1215.77
1206.13
1196.34
1186.4
1176.33
1166.15
1155.86
1145.49
1135.06
1124.58
1114.08
1103.57
1093.05
1082.53
1072.01
1061.5
1050.99
1040.51
1030.05
1019.62
1009.25
998.94
988.709
978.578
968.566
958.692
948.976
939.436
930.09
920.895
911.985
1720.02
1011.58
739.133
589.321
501.877
449.366
418.064
400.546
392.56
391.694
396.365
404.886
416.702
432.314
453.006
475.561
497.811
520.773
546.269
575.179
604.43
632.508
660.21
687.869
715.517
743.148
770.565
797.393
824.829
852.78
881.07
909.501
937.849
965.94
993.652
1020.86
1047.46
1073.34
1098.38
1122.51
1145.77
1168.15
1189.64
1210.24
1229.92
1248.68
1266.52
1283.44
1299.46
1314.59
1328.85
1342.28
1354.9
1366.74
1377.83
1388.22
1397.94
1407.03
1415.52
1423.46
1430.9
1437.88
1444.55
1451.2
1457.72
1464.01
1469.99
1475.61
1480.87
1486.05
1491.43
1497.01
1502.34
1507.45
1512.27
1516.73
1520.66
1524.2
1527.4
1530.28
1532.88
1535.22
1537.33
1539.21
1540.87
1542.31
1543.51
1544.5
1545.28
1545.84
1546.21