/*--------------------------------*- C++ -*----------------------------------*\
| =========                 |                                                 |
| \\      /  F ield         | OpenFOAM: The Open Source CFD Toolbox           |
|  \\    /   O peration     | Version:  2112                                  |
|   \\  /    A nd           | Website:  www.openfoam.com                      |
|    \\/     M anipulation  |                                                 |
\*---------------------------------------------------------------------------*/
FoamFile
{
    version     2.0;
    format      ascii;
    arch        "LSB;label=32;scalar=64";
    class       volScalarField;
    location    "0.09";
    object      ddt0(omegaU);
}
// * * * * * * * * * * * * * * * * * * * * * * * * * * * * * * * * * * * * * //

dimensions      [0 0 -2 0 0 0 0];

internalField   nonuniform List<scalar> 
12225
(
15.1799
598.525
2302.43
5462.4
10217.3
16532.9
24298.9
33338.5
43438.6
54456
66465.1
79764.4
94571.3
110884
128553
147516
167747
188053
-456.055
-1908.59
-4066.1
-6562.05
-8975.78
-11173.9
-13119.1
-14796.7
-16217.3
-17459
-18649.8
-19804.8
-20696
-21034.5
-20577
-19056.9
-16257.1
-7846.2
-68.1073
-335.993
-1067.03
-2326.84
-4107.16
-6251.15
-8627.9
-11207.3
-13881.8
-16704.3
-19821.9
-23376.6
-27380.8
-31795.7
-36594.6
-41690.9
-47149.6
-52331.7
-12.4087
-98.3989
-225.729
-461.38
-885.962
-1592.14
-2594.19
-3805.48
-5246
-7008.5
-9031.85
-11387.1
-14104.8
-17206
-20724.5
-24693.6
-29189.1
-34048.4
-1.82592
-16.4436
-66.5126
-162.415
-291.055
-475.584
-726.382
-1036.97
-1422.18
-1810.45
-2451.62
-3254.75
-4239.68
-5426.22
-6837.47
-8496.61
-10440.6
-12681.9
-0.281179
-1.57682
-10.8059
-32.2825
-79.6135
-145.965
-234.023
-346.477
-486.51
-638.559
-719.526
-908.385
-1152.65
-1459.96
-1838.05
-2293.88
-2711.03
-3267.1
-0.169556
0.139521
-0.0369955
-2.0801
-13.3009
-31.2254
-58.3054
-96.4272
-148.049
-217.155
-277.055
-317.183
-370.921
-440.337
-528.049
-607.409
-802.977
-1001.45
-0.208327
0.145452
1.00885
2.00297
1.78653
-0.284466
-4.61154
-11.8454
-23.6614
-42.4362
-70.2707
-81.1449
-93.569
-108.561
-122.546
-164.2
-239.146
-309.853
-0.243895
-0.00902095
0.81453
2.14421
3.74885
5.30324
6.71221
7.83679
8.43964
7.77389
5.26749
6.18081
6.73933
6.85598
3.6457
-7.16906
-19.1698
-30.3228
-0.264827
-0.140105
0.527181
1.75113
3.52376
5.69163
8.15527
10.8417
13.8693
17.2364
20.9188
25.4469
30.1278
34.948
39.2315
43.8934
49.0797
55.4401
-0.272927
-0.234212
0.282094
1.31876
2.90837
5.05553
7.6991
10.6948
14.0921
17.9266
22.2406
27.0423
32.2022
37.7596
44.1584
51.7094
60.3477
70.4009
-0.270992
-0.291731
0.102814
0.965395
2.33483
4.23526
6.66423
9.58829
12.9541
16.6878
20.7213
25.1017
29.9889
35.373
41.1124
48.2266
56.761
66.6509
-0.261139
-0.323505
-0.0319388
0.671592
1.82524
3.45816
5.58024
8.16705
11.1756
14.5466
18.2374
22.2793
26.7782
31.748
36.9269
43.1949
50.7458
59.346
-0.241137
-0.331765
-0.135324
0.408148
1.33407
2.67061
4.42892
6.5947
9.14073
12.0309
15.2392
18.7787
22.6841
27.0757
31.7885
36.7172
42.6762
49.7466
-0.208351
-0.30974
-0.193325
0.197226
0.893225
1.91864
3.28402
4.98245
6.99709
9.30711
11.8981
14.7755
17.9619
21.5054
25.4387
29.5725
33.9985
38.9401
-0.160244
-0.251371
-0.193405
0.0594395
0.532307
1.2432
2.2007
3.40172
4.83606
6.49185
8.36128
10.4462
12.7601
15.3263
18.1841
21.3343
24.6433
28.0499
-0.0949346
-0.1531
-0.127988
0.00924999
0.27445
0.677964
1.22439
1.91165
2.73331
3.68209
4.75308
5.93692
7.24525
8.68754
10.2802
12.0403
13.9665
16.0328
-0.0122549
-0.0167781
-0.00187807
0.0396334
0.110979
0.213094
0.344796
0.502829
0.682851
0.880731
1.09387
1.32991
1.58642
1.86982
2.18955
2.55575
2.97667
3.44742
0.0821989
0.143155
0.158767
0.112878
-0.00477879
-0.202632
-0.487196
-0.862005
-1.32764
-1.8819
-2.51957
-3.23207
-4.00758
-4.83174
-5.68908
-6.56353
-7.44007
-8.31129
0.157351
0.262585
0.260007
0.117018
-0.18407
-0.656758
-1.30926
-2.14209
-3.14922
-4.31954
-5.63701
-7.08083
-8.62637
-10.2467
-11.9139
-13.6001
-15.2797
-16.9313
0.201121
0.315703
0.263494
0.00680332
-0.472031
-1.18792
-2.14766
-3.34625
-4.76988
-6.39814
-8.20389
-10.1538
-12.2103
-14.3337
-16.4846
-18.6256
-20.7222
-22.7449
0.223796
0.316761
0.181066
-0.21434
-0.883045
-1.8407
-3.09079
-4.62097
-6.40889
-8.42383
-10.6259
-12.967
-15.3949
-17.8559
-20.298
-22.6737
-24.9399
-27.0589
0.227133
0.26415
0.00860457
-0.551544
-1.42475
-2.62359
-4.13913
-5.94291
-7.99549
-10.2456
-12.629
-15.0711
-17.4937
-19.8201
-21.9779
-23.9031
-25.5409
-26.8494
0.210764
0.153233
-0.250488
-0.967978
-1.98161
-3.25807
-4.7135
-6.23288
-7.68559
-8.92554
-9.79519
-10.1336
-9.79369
-8.64661
-6.58037
-3.5041
0.647564
5.90701
0.174611
0.00868152
-0.420037
-0.830558
-0.814099
0.0305169
2.20365
6.25178
12.7189
22.1154
34.886
51.4102
71.8366
96.369
125.157
158.261
195.629
237.037
0.217561
0.592224
2.32171
7.37222
20.6607
42.6247
75.9994
123.495
187.444
269.582
370.92
492.132
627.816
783.142
958.217
1151.22
1358.99
1578.43
2.26442
11.4954
38.0021
96.2429
221.108
401.05
650.026
977.458
1386.96
1876.29
2438.29
3063.44
3713.39
4421.45
5181.68
5976.31
6781.4
7578.9
31.3225
147.161
416.001
908.829
1585.61
2525.58
3692.4
5029.38
6471.95
7958.68
9437.19
10874.6
12291.1
13614.9
14840.1
15979.3
17052.9
18078
217.484
1072.22
2510.86
4293.87
6223.63
8088.14
9790.8
11277.3
12523.4
13524.9
14289.8
14842.5
15213.9
15406.1
15428.6
15295.5
15017
14601.3
13.2316
-295.378
-1194.57
-2860.23
-5319.04
-8581.24
-12632.3
-17421.4
-22862.9
-28850.5
-35266.5
-42001.2
-48971.5
-56100.4
-63311.9
-70554.2
-77787.8
-85016.7
-18077.5
-14926
-12100.7
-9519.73
-6926.62
-3952.63
-1010.77
1556.95
3855.87
5949.54
7854.63
9599.87
11258.6
12919.3
14670.7
16370.8
18016.5
19690.4
21459.9
23571.1
26108.4
28401.2
30574.1
32768.6
34862.5
37313.1
52467.9
69116.7
87184.5
106206
125926
146424
167841
190099
213916
239604
264964
288242
307865
322330
330371
330705
321807
302191
270789
227711
175553
120699
73634.6
34719
-16091.2
-71613
-119324
-147015
-139366
-69848.6
20638.5
81697.7
89473.5
17309.2
-175856
-509569
-940521
-1.40034e+06
-1.67378e+06
-1.59654e+06
-1.64706e+06
-1.64593e+06
-1.59842e+06
-1.51483e+06
-1.40623e+06
-1.28243e+06
-1.15116e+06
-1.01944e+06
-897897
-782881
-674558
-571329
-472939
-382674
-298825
-218953
-142407
-67450.7
8663.11
89570.2
177029
272031
324158
383025
445355
510119
576769
644980
714379
784318
853774
921432
985755
1.04413e+06
1.09358e+06
1.13097e+06
1.15335e+06
1.15926e+06
1.14723e+06
1.10378e+06
1.0303e+06
925044
787791
619431
421068
191866
-64399
-320998
-473366
-624899
-744715
-831472
-875362
-885231
-858418
-800496
-714602
-603318
-473059
-332730
-176281
17996.1
170661
289778
386000
468873
545073
616603
677278
720121
759018
850093
1.0692e+06
1.41437e+06
1.75204e+06
1.82427e+06
1.42918e+06
668180
-113051
-645152
-808542
-735835
-547764
-270823
42807.1
330042
559926
642292
598346
455399
213106
-111618
-506774
-854179
-1.12549e+06
-1.37567e+06
-1.53927e+06
-1.61642e+06
-1.61312e+06
-1.55188e+06
-1.45322e+06
-1.33432e+06
-1.20845e+06
-1.08642e+06
-973341
-869040
-771898
-680218
-591658
-509255
-403135
-302936
-210947
-125412
15.9569
1471.18
1715.29
1935.42
2445.83
3475.66
5041.82
6946.99
8980.2
11037.5
13004.8
14800.4
16356.6
17676
18802
19749.5
20512.7
21112.3
21514.7
20481.3
16602.7
13211
10659.5
8329.2
5771.03
2416.39
-13989
-27739.7
-39575.2
-48541.4
-54139.5
-56127.6
-54145.7
-47682.1
-36380.4
-20002.8
-2482.06
12127.3
29012.3
49046.9
71418.3
95329.3
119712
143144
164048
181054
193058
197838
187428
155815
122960
83940.6
40663.3
-6703.03
-66314
-176305
-301889
-434241
-602984
-811823
-1.06827e+06
-1.32783e+06
-1.06467e+06
-976650
-829570
-663038
-502306
-346062
-202107
-75935.5
29403.1
110804
170439
212259
275371
328881
363742
384751
393296
393169
386138
371547
351124
326054
296219
259454
213276
156125
150648
146063
141874
137847
133788
129550
124992
119969
114335
107953
100736
92320.5
82236.8
69489.7
51396.8
20961.9
-16402.7
-17271.2
-15527.9
-11697.6
-5561.61
2886.13
13973
28232
46683.6
55154.1
56660.3
54082.7
39375.7
-8100.58
-125436
-176093
-197872
-221449
-247759
-273246
-293142
-299070
-301837
-284994
-205094
-109414
-4222.04
108095
225618
340770
442263
518563
537345
447901
256510
142333
135580
161166
136000
70724.1
59769.4
143923
231141
296963
329671
311700
236512
128231
6336.95
-50855.4
-68894.3
-80981.3
-89642.6
-95444.9
-112225
-131663
-190286
-328220
-529774
-560668
-565179
-569810
-579012
-582223
-573881
-556946
-535596
-511891
-486360
-458747
-426839
-384542
-312315
-218909
-103635
16041.6
29905.7
18100.1
9635.66
5577.54
5061.08
6824.41
9582.86
12385.2
15046.5
17383.2
19230.9
20589.3
21506.9
22137.7
22604.6
22945.1
23212.8
23468.4
23731.4
23977.9
24170.3
24333.5
24439.5
24439.4
24283.9
23915.3
23100.9
19093.4
13307.8
5797.76
-3191.8
-13263
-24046
-35051.4
-44184.3
-49743.6
-51290.8
-49466.2
-44326.6
-35462.7
-22128.4
-4192.68
18104
44050
72340.5
101050
127599
148445
158659
152689
124866
77063.4
8243.67
-94820.5
-241994
-417056
-616928
-832518
-1.06123e+06
-1.12056e+06
-857410
-701743
-487064
-296966
-115656
41724.9
170971
271667
344364
391219
415120
426459
426202
412950
390640
356211
313316
266139
217218
168149
124609
88484.2
57574.5
32228.4
12973.1
590.712
-8176.04
-8776.69
-8797.85
-8749.47
-8654.93
-8582.41
-8566.49
-8653.54
-8904.97
-9396.72
-10210.9
-11366.8
-12891.9
-14817
-17121
-19698.8
-22396.8
-24958.3
-26853.7
-27317.8
-26205.3
-22844.7
-16684.6
-6964.42
7372.91
28157.4
55398.3
62392.1
73322.4
80288.9
85073
87782.1
87145.3
85391.5
80938.3
74022.1
65174.3
54304.2
38025.4
-190.918
-47588
-116971
-178037
-204978
-204913
-178650
-126228
-48739.3
37895
82221.4
69812.3
-1538.94
-115281
-203613
-207169
-115810
30410.5
183842
315654
396245
352453
276753
189486
94382.5
12094.3
-45765.4
-78984.4
-90578.2
-92500.7
-86343.4
-71285.2
-45396.7
-16168.2
7321.71
23236.8
28344.9
23207.5
17104.1
-2339.94
-55293.3
-99489.1
-120244
-135841
-151678
-169085
-187264
-203615
-222675
-246453
-273396
-302127
-307552
-284142
-226187
48398.1
13670.7
-2709.31
-5997.95
-2609.87
3177.2
8850.39
13291.8
16339.9
18068
18683.2
18504.4
17903.4
17198.5
16510.8
15964.3
15662.8
15649.1
15927.3
16473.5
17239.7
18159.2
19154.6
20145.5
21054.2
21811.3
22341
22205.5
21427.5
19767.8
16999.9
12904
7278.57
14.8485
-8584.12
-17830.6
-26793.9
-34519
-40093.3
-42580.8
-41003.2
-34591.3
-22879.3
-5845.29
15899.8
40909.7
66702.5
89358.4
102322
94859.3
52700.3
-36695.8
-177822
-343290
-497097
-669193
-882601
-1.0101e+06
-770224
-590632
-379522
-183752
-1256.57
149478
267679
351776
404521
429515
430645
412157
378660
336045
286728
234474
183282
136030
95196.5
61907.9
36180.9
17386
4755.36
-3076.07
-7430.68
-9246.88
-9324.65
-8180.41
-6651.64
-4967.17
-3176.84
-1221.88
952.411
3224.03
5558
7911.34
10197.2
12306
14095.8
15405.8
16065.2
15927.6
14884.5
12871.2
9926.54
6244.16
2162.35
-1907.69
-5032.7
-6240.41
-4771.66
697.28
10901.3
27498
41541.8
52416.8
63150.9
71642.6
78803.4
84953.8
89298.7
91294.4
90748.9
87644.1
83298.7
78600.1
73455.6
66593.9
57359.5
42225.3
8196.32
-31828.8
-75356.1
-117780
-149908
-165158
-169388
-175633
-199694
-254575
-326801
-366301
-314392
-149190
83572.8
294077
411033
403236
289745
163786
77016.6
11264.3
-32396
-58848.2
-74359.8
-83296.8
-85948
-81329.7
-66819.2
-39423.9
-7029.01
22353.5
47926
65692.5
74570.7
76407.3
72432.6
62958.4
52845.5
43472.3
34125.5
24703
15176.8
3962.3
-16006.1
-37943
-56876.2
-78449.9
-134726
-183996
-230888
-263145
32504.8
-19034.4
-30550.7
-22367.1
-9598.81
1337.84
8651
12530.5
13701.3
13018
11287
9158.16
7077.1
5302.18
3986.02
3218.17
3027.97
3392.15
4254.51
5538.3
7152.63
8997.85
10972.7
12979
14921.9
16708.8
18246
19307.5
19980.9
20125
19629.3
18365.7
16168.1
12830.2
8169.33
2121.51
-5162.1
-13256.9
-21453.2
-28776.8
-34059.3
-36099.9
-33861.9
-26679.6
-14480.1
1933.97
20469.5
36775.8
41219.7
14610.7
-69661.3
-220387
-403430
-573103
-725052
-912099
-721868
-574736
-374985
-179644
-454.261
149730
265618
345424
392477
410705
404621
378583
337319
286249
231145
177275
128299
86780.3
53837.5
29342.9
12358.7
1468.6
-4832.72
-7901.73
-8844.24
-8497.3
-7412.76
-5935.49
-4250.9
-3053.19
-1682.35
-40.6808
1816.82
3940.32
6388.86
9177.36
12316.6
15793.1
19564.6
23536.9
27555.8
31399.7
34775.7
37402.2
38947.8
39124.7
37720.1
34695
30282
24964.2
19374.2
14857.5
12117.3
13193.4
17810.4
27524.3
35741.8
46685.4
57161.7
66367.8
74177
80030
83294.7
84482.4
84193.9
81970.8
78021.2
73620.4
69430
65505.4
61434.2
56143.6
46472.4
28963
2524.94
-33974
-79037.4
-129395
-182968
-240589
-307563
-385792
-454778
-465191
-363950
-141883
133044
348283
422276
352669
220835
105610
37522.6
-3024.78
-29913.9
-48511.4
-61702.5
-71208.4
-76250.9
-75305.6
-63349.5
-39754.6
-11452
18100.4
45513.3
66376.5
79073.9
84554.4
84532.8
80787
74796.1
67375.5
59400.6
51440.2
43741.5
36224.4
28149.3
20086
12300.1
4037.29
-8861.68
-45239
-92455.6
-146223
-27157
-70308.8
-56474.2
-28555.8
-6913.82
5216.88
9846.02
9770.08
7220.09
3720.1
236.032
-2714.43
-4950.62
-6439.86
-7201.18
-7291.55
-6787.57
-5774.62
-4337.08
-2554.06
-499.704
1755.59
4149.14
6627.99
9136.57
11599.5
13921
15969.1
17667.6
18816.4
19366
19283.5
18524.7
16994.5
14545.7
10994.5
6182.46
69.7986
-7157.09
-15003.9
-22636.1
-28943.6
-32715.1
-32893.5
-28895.3
-21093.4
-11751.8
-7750.29
-26200.1
-97307.6
-242803
-441969
-631751
-772317
-810979
-590239
-407475
-229693
-52607.5
101837
222478
307629
359270
381746
379762
357509
319345
270331
216320
163167
115588
76396.3
46463.7
25293.1
11515
3407.2
-730.1
-2347.28
-2535.45
-2029.43
-1282.62
-569.809
-41.9517
297.438
596.818
909.271
1354.42
2002.64
2892.93
4090.33
5673.39
7754.31
10407.7
13711.1
17703.2
22369.2
27612
33243.3
38990.3
44465
49199.9
52728.4
54587.3
54411.6
52150.7
48154.9
42431
36808.7
32021.3
29591.5
29686.9
32031.8
37905.2
45504.7
53725
61690.6
68806.5
74398.7
77766.1
79019.9
78750
76852.6
72912.7
67996.1
63054.7
58548.2
54479.2
50416.5
45307.6
37165.7
23083.1
-51.9285
-35163.8
-84465.3
-149310
-230658
-328546
-434553
-517541
-521033
-393326
-139815
152372
359357
400327
304868
177893
86504.5
32146.7
1261.07
-18878
-34439
-46975.6
-56704.9
-63692.7
-66096.2
-58463.6
-41511.2
-17826.9
10990.3
39739.5
63310.8
79016.5
86903.4
88494.5
85625.1
79865.8
72560.4
64779.3
57123.7
49842.8
43046
36759.3
30897
25309.9
19781.8
13657.9
1446.25
-17823.6
-49146.6
-126335
-123274
-64651.8
-18873.1
3456.38
10016.4
8514.88
3874.22
-1263.41
-5673.23
-8916.77
-10998.9
-12116.7
-12495.1
-12322.5
-11752
-10896.3
-9836.22
-8621.25
-7274.2
-5800.48
-4204.56
-2457.45
-506.086
1688.03
4124.66
6736.54
9429.33
12525.1
14993.4
16766.7
17830
18190.4
17843.3
16728.5
14716
11614.7
7237.92
1491.88
-5516.46
-13374.1
-21317.3
-28309.2
-33277.2
-35590.3
-36058.2
-39379
-59143.2
-122170
-258051
-458260
-662489
-807769
-745046
-491671
-303653
-130377
26256.3
156408
252929
315173
347885
356013
343862
314982
273291
223867
172567
124844
84567.9
53513
31593.8
17512.9
9454.71
5566.56
4246.45
4259.4
4759.05
5256.98
5551.51
5618.49
5490.21
5257.12
5069.33
4430.49
4252.42
4079.92
3897.15
3827.71
3963.11
4438.06
5393.76
6972.57
9328.14
12597
16874.6
22177
28409.9
35376.1
42700.2
49851.2
56232
61334.4
64502.2
65056.2
63862.2
59955.8
54723.6
50557.1
44601.3
41954.9
41550.5
43532.1
47480
52725.7
58547.2
64271.5
69195
72567.5
74070.1
74011.4
72462.8
68940
63909.4
58333.3
52890.6
47899.1
43285.6
38521.5
32601.6
23214.2
7411.21
-18636.1
-59534
-120258
-205074
-314531
-436952
-535053
-545106
-412590
-150319
144021
341067
367720
271479
158174
81642.6
37093.1
10613
-7513.56
-20838
-31774.3
-41045.5
-49187.8
-52704
-51380.1
-41913.4
-22421.8
4371.01
33212
58467.1
76509
86491.6
89515.3
87459.2
82163.8
75131.1
67484.3
59890.9
52686.2
45975.5
39812.8
34143.7
28862.3
23831
18854.4
13266.1
4913.12
-9166.63
-250308
-159523
-48964.1
359.809
13031.1
10711.2
4055.27
-2508.97
-7484.26
-10639.5
-12262.8
-12796.4
-12638.1
-12096.1
-11400
-10694.2
-10061.6
-9549.22
-9161.38
-8873.91
-8655.43
-8457.36
-8134.49
-7479.37
-6430.31
-4913.75
-2805.46
-70.1831
3229.13
8203.67
11801.9
14307.3
15900.4
16661.4
16648.1
15816.6
13949.3
10816
6224.48
76.6448
-7509.8
-16115.6
-25066.2
-33755.1
-42535.9
-54810
-81255.7
-143546
-269176
-459784
-667245
-826336
-708688
-437939
-236423
-69310.8
72421.1
183507
260865
307223
327892
328399
312260
282098
241161
194196
146827
104081
69214.4
43380.9
26024.8
15583.6
10156.6
7968.35
7608.04
8083.06
8757.66
9280.52
9533.73
9559.63
9458.65
9299.96
9102.76
8912.26
8998.23
8773.04
8207.75
7513.28
6746.09
5963.89
5306.93
4939.57
5056.32
5880.01
7648.89
10594.6
14885.7
20552.5
27562.2
35658.7
44352
52672.2
60468.5
67175.9
70293.6
72189.4
71920.7
67799.9
63704.4
59207
55141
52234.1
50963.2
51444.7
53481.9
56669.4
60477.7
64277.9
67349
69103.4
69440.2
68364.5
65551.4
60875.8
55127.4
49021.4
43050.9
37410.3
31899.8
25955.6
17853.5
5134.93
-15765.7
-49789
-103262
-182734
-290976
-417600
-525085
-546921
-424647
-170506
115758
305597
333481
249679
150790
82996.9
43102.5
18590.5
3149.19
-7108.17
-15743.2
-24198.8
-32714.8
-40462.6
-44580.3
-40083.7
-24868.6
-782.051
27267.4
53363.9
73121.3
84886.8
89293.7
88136
83381.7
76663.6
69159.9
61598.5
54379.4
47623.3
41372.4
35605
30255.1
25246.8
20490.8
15793.7
9517.95
2821.3
-377164
-167322
-16201.9
17124.5
16226.6
7906.59
-41.4734
-5631.84
-8783.17
-10022.4
-10020.4
-9326.66
-8300.27
-7186.68
-6165.84
-5351.6
-4800.22
-4510.74
-4483.26
-4715.96
-5193.85
-5905.8
-6802.23
-7707.2
-8419.88
-8841.26
-8667.14
-7460.78
-4998.67
364.435
6130.21
9828.62
12424.1
14176.1
15161.5
15239.3
14200.7
11818.5
7824.28
1978.3
-5840.38
-15610.8
-27357.5
-41831.2
-62154.2
-96900
-162550
-279933
-455212
-653992
-827143
-674363
-417852
-204617
-36271.8
95499.2
192838
256822
292117
305596
302590
286062
257555
219446
175910
132214
93098.8
61551.2
38514.2
23326.5
14427.3
9995.5
8379.71
8306.67
8942.13
9780
10592.3
11275.6
11852.7
12414.7
13111.1
14013.1
14794.7
15100.6
15335.9
15236.8
14708.5
13783.3
12512.9
10981.7
9295.3
7616.87
6163.01
5190.9
5006.79
5972.48
8455.59
12604
18578
26296.3
35747.6
44910.3
54396.7
64534.1
69749.8
74312.7
76628.3
76689.1
74731.5
71260.3
66933.5
62513
58746.7
56194.7
55131.2
55539.6
57148.6
59478
61887.4
63693.1
64473.1
64019.1
62042.4
58158.5
52794.1
46546.6
39950.3
33363.3
26839.5
20104.2
11885.1
142.335
-18251.2
-47867.8
-94995.7
-166887
-267938
-390409
-500395
-533829
-430232
-195875
75189.5
260447
299325
234587
149419
87017.3
48989.5
26542.8
13910
6634.41
172.444
-8868.29
-19670.8
-30758.3
-38093.8
-37216.7
-25625.1
-4222.85
22640.9
49005
69937.7
83128.3
88767.8
88489.3
84279.9
77856
70455.9
62856.5
55483.9
48511.5
41977.7
35887.3
30233.2
25010.3
20205.7
15757
11201.7
6011.83
-495842
-102411
19367.2
24066
14607.9
5464.48
-960.659
-4560.94
-5899.42
-5682.5
-4589.68
-3091.83
-1424.85
274.185
1913.43
3442.5
4836.42
6077.45
7135.19
7954.17
8432
8453.99
7919.26
6723.88
4797.27
2184.78
-790.388
-3529.47
-4983.47
-4391.47
1566.32
5468.61
8443.07
10719.5
12180.6
12621.6
11782.2
9330.87
4870.97
-2040.42
-11904
-25427.3
-44023.1
-70957.4
-113119
-182495
-293385
-450798
-633002
-787007
-636873
-414069
-199808
-27607.5
100764
189827
244983
273333
282636
278674
263816
238677
204559
164858
124401
87774.1
57975.7
36045.1
21455.8
12801.6
8410.77
6764.33
6710.69
7435.54
8491.24
9687.82
11026
12503
14040.2
15569.3
17101.1
18629.4
20108.2
21384.5
22226.8
22535.2
22274.5
21417
20002.1
18059.9
15667.9
12968.6
10201
7610.32
5508
4308.85
4626.19
6721.95
10991.8
17316.6
26748.5
35814
46071
56095.3
65134.4
72658
78163.2
81296.1
81899
80088
76260.1
71114.9
65572.4
60547.8
56736.4
54505.8
53878.1
54566.4
56044.5
57638.8
58747.7
58958.4
57878.3
55065.5
50533.9
44714.1
38036.2
30902.5
23534.7
15867
6994.49
-4751.88
-22082.4
-49074
-91467.2
-156219
-248305
-362306
-469353
-511562
-429775
-222405
28688.5
210293
264297
221703
150918
93409
56747.6
36120.7
25777.5
19781.3
12395.3
1244.09
-11650.1
-24027.8
-32796.4
-34176.2
-25295.1
-6172.26
19527
45956.4
67778.2
82119.9
88778.2
89216.3
85409.1
79134.1
71699.4
63912.2
56200
48756.9
41665.8
34990.1
28803.3
23180.3
18176.6
13794.3
9907.51
5761.34
-514911
-11395.6
29634.2
23610.6
13644.7
5914.61
1153.39
-1041.11
-1335.33
-324.18
1450.99
3588.96
5934.93
8444.35
11106.1
13914.7
16857.3
19897.3
22952.6
25882
28479.2
30483.2
31585.8
31479.5
29903.8
26758.4
22195.2
16681.6
10949.2
5841.3
1460.64
1528.88
3617.38
5482.89
6469.24
6192.76
4080.41
-326.832
-7493.15
-18298.6
-33963.1
-56354.7
-88701.2
-136488
-207518
-311200
-450437
-615759
-678869
-594374
-411104
-209803
-37700
90597.2
176507
227076
251516
258881
255410
243429
222726
193479
158058
120719
85944.1
56932.8
35043.9
20056.2
10799.3
5786.23
3642.43
3308.21
3958.83
5032.7
6281.45
7905.12
9785.77
11865.5
14110.7
16440
18885.4
21419.3
23786.7
26109.7
27677.4
28607.4
28823.7
28286.8
27012.8
25013.8
22326.5
19015.1
15420.8
11705.5
8168.89
5150.83
3466.01
3474.88
5946.51
10679.6
17621.2
26565.6
36992.4
48022.9
58812.5
68638.2
76820.6
82699.1
85744
85687.9
82653
77241.3
70481.1
63555.1
57492.2
52979.8
50305
49376
49797.4
50963
52211.7
52991.3
52793.7
51156.5
47740.1
42792
36581.5
29436.3
21642.7
13252.7
3650.05
-8488.08
-25475.3
-50905.4
-89876.1
-148645
-232033
-336171
-437041
-484590
-424030
-246928
-19519.9
157945
227791
207910
152825
101623
66923.7
47480.7
37572.2
30087.3
18905.5
5699.32
-7472.39
-19556.1
-28583.9
-31183
-24215.4
-6888.05
17847.5
44343
66945.6
82271.2
89761.8
90705.8
87098.5
80765.2
73069.5
64839.7
56489.7
48248.3
40281.7
32763.4
25866.9
19749
14520.3
10209.2
6741.41
3425.18
-481026
561.022
30700.1
22727.8
13564.6
7184.83
3598.61
2245.08
2487.52
3892
6085.01
8705.2
11528.8
14561.4
17883.7
21549
25581.7
29968.6
34636.1
39439.2
44158.7
48508.9
52152.4
54721.4
55845.3
55236.1
52715.4
48239.1
41917.6
34044.4
25112.3
15586.7
5229.54
-2158.2
-4659.61
-8471.36
-14575
-23870.1
-37367.7
-56465.7
-83216.9
-120039
-167822
-238517
-333613
-444013
-530896
-577218
-522155
-391256
-220659
-58853.2
67887
153473
203054
226329
233359
231281
222745
207147
183555
153109
119251
86271.4
57651.5
35227.8
19240.6
8851.84
2749.97
-322.509
-1312.95
-1149.12
-402.65
895.543
2454.5
4238.77
6276.32
8626.81
11327.3
14362.4
17754.8
21618.6
25798.9
28848.4
31104.2
32491
33028.5
32753
31690.8
29842.6
27206
23596.4
19737.8
15444.7
11105.7
7011.73
3715.55
1984.87
2563.96
5687.54
11274.9
19267.4
29326.3
40738.1
52613.9
64091.2
74298.5
82310.1
87275.3
88605.2
86214.2
80635.8
72988.7
64646.6
56860.7
50536.4
46155.5
43789.5
43170.1
43784.4
44992.5
46182.7
46765.4
46221.2
44085.9
40289
34976
28336.9
20633.3
11927.5
1801.16
-10758.4
-27683.9
-52109.1
-88518.7
-142403
-218101
-312682
-406164
-456207
-414253
-267347
-65996.4
104776
188772
191155
152872
109663
77485.5
58055.9
46468.6
36118.1
22079.6
8104.83
-4556.41
-16039
-24943.7
-28237.9
-22599.3
-6570.67
17526.7
44213.6
67560.1
83718
91822.2
93034.8
89378.3
82763.7
74522.9
65478.8
56083
46664.2
37529.5
28990.6
21332.8
14783.2
9480.02
5437.4
2539.2
444.217
-400565
6300.06
29468.9
21143.4
12770.4
7259.68
4397
3604.7
4188.71
5635.89
7776.09
10480.7
13317.3
16161.2
19141.3
22379.3
25969.7
29983.3
34442.3
39306.1
44464.6
49738.9
54886.8
59614.8
63592.3
66451.1
67864.8
67480.6
64994.9
60143
52771.4
42897.3
30284.3
13283.3
-14504.8
-27000.9
-40346.4
-57245.2
-79095.4
-107416
-144034
-190819
-248478
-316642
-388738
-447895
-472881
-443209
-351426
-220662
-81861.8
36799.2
121559
172286
196749
204947
204807
199841
189572
172260
147695
118184
87566.1
59520.1
36434.4
19150.6
7308.01
-115.259
-4358.26
-6357.91
-6967.99
-6737.33
-5646.34
-4113.3
-2460.81
-663.418
1398.54
3814.98
6799.98
11019.2
15240.5
20908.1
26357.6
29863
32270.8
33664.5
34183.7
33950.7
33025
31400.8
29028.5
25879.4
22029.9
17645.9
12988.6
8374.39
4223.73
1304.76
504.05
2390.6
6983.87
14236
23898.6
35424.6
47952.8
60526.5
72088.4
81469.8
87552.9
89561.6
87337.9
81420.4
73018.8
63628.6
54606.6
46959.1
41276.9
37744.9
36203.8
36239.4
37278
38709.5
39924.9
40339.2
39476.9
36960.8
32824.4
27110.7
19997.6
11451.9
1169.6
-11606.4
-28463.8
-52101.6
-86439.2
-136257
-205359
-291440
-377748
-428573
-401946
-282858
-108135
52661.2
147003
169696
148867
115305
86366
66302.2
52105.4
39143.3
24383.9
10719.9
-1483.34
-12629.1
-21518.7
-25413.7
-20667.2
-5387.51
18541.6
45673.4
69752.3
86555.6
94947.1
96162.1
92217.1
84972.4
75722.8
65356.2
54487.2
43578.5
33115.1
23544.7
15248.6
8492.8
3396.27
-88.3548
-2146.85
-3112.04
-277566
7889.3
24637.9
16052.5
8430.33
3576.42
1509.03
1588.24
2938.32
4934.38
7197.11
9739.26
12410
14840.1
16990.3
18973.1
20909
22939.8
25198
27784.9
30754.3
34101.8
37759.6
41597.8
45428.3
49002.8
52040.7
54218.7
55138
54456.1
51758
46620.4
38542.3
27217.4
15106.2
-16457.3
-54299.8
-78110.3
-105717
-138464
-177021
-221277
-269438
-316944
-355279
-372136
-355267
-298093
-206629
-98975.9
2923.92
82727.1
134513
161701
172462
174789
173174
167932
157094
139263
115334
88273.7
61591.1
38287.9
19792
6321.67
-3047.35
-8211
-10957.9
-12370
-12776.5
-11872.5
-10247.3
-8499.67
-6566.94
-4485.38
-2178.65
495.461
3782.95
7995.9
13142.8
19970.1
24971.3
28595.2
30877.8
32053.7
32399.5
32129.4
31347.4
30043.8
28113.6
25430.3
21957.5
17779.9
13137.7
8402
4006.57
647.495
-797.796
464.948
4620.43
11535.4
21118.5
32835.5
45816.9
59030.8
71255.5
81121
87331.9
89126.4
86419.7
79866.5
70744.6
60585.8
50743.6
42220.2
35635.5
31237.7
28952.2
28457.9
29267.2
30812.1
32506.5
33737.3
33992.2
32824.1
29992
25466.5
19356
11409.8
1392.71
-11254.9
-27842.3
-50678.4
-83162
-129446
-192860
-271630
-351710
-402753
-388551
-293732
-144510
3618.46
103569
143088
139236
116608
92124.4
72089.7
56027.3
41586.4
26780
13351.5
1385.88
-9568.44
-18598
-22923.4
-18588.9
-3382.95
20977
48906.4
73677.6
90856.2
99233
100083
95385.6
86914.4
76063.2
63887.2
51215
38675.8
26901.6
16454.2
7759.56
1063.15
-3580.94
-6312.51
-7378.25
-7136.3
-129656
951.023
13252.2
5474.3
-821.24
-4634.07
-5690.69
-4463.95
-1661.7
1901.66
5707.46
9500.21
13179.6
16474.5
19182.6
21216.9
22579.5
23342.4
23629.3
23592.4
23395.1
23190.1
23101.2
23210
23546.8
24085.5
24741.8
25372.4
25766.7
25658.7
24708.5
22505.8
18578.2
12421.6
3418.36
-9844.72
-26711.4
-67368.1
-100418
-131491
-165213
-200273
-233821
-261104
-275501
-269695
-238372
-181618
-107204
-28495.8
40427.5
90618.8
120618
134960
140327
141733
140677
135768
124995
107826
86331.7
64726.8
38273.9
18969.6
4980.59
-4900.18
-11349.4
-14663.1
-16337
-17334.7
-17171.7
-15511.4
-13312
-10999.1
-8523.09
-5897.88
-3079.39
44.7626
3639.35
7835.46
12601.5
17646.2
21905.4
24917.6
26749.3
27679.1
27994.1
27900.4
27472.8
26658.4
25297.9
23181.5
20201.3
16375.4
11945.5
7351.68
3138.69
-117.783
-1435.97
-4.46361
4421.81
11654.2
21577.2
33612
46852.9
60188.1
72265.4
81591.9
86881.4
87560.8
83713.7
76243.4
66441.3
55757.3
45441.7
36421.7
29289.2
24314.7
21485.5
20564.6
21153.2
22748.8
24802.4
26720.2
27937.1
28015.7
26542
23322.8
18517.3
11482.7
2120.11
-9994.89
-25992.2
-47855.9
-78513.4
-121561
-179942
-252402
-327341
-378830
-375095
-300901
-174843
-40853.2
60168.6
112180
123514
112317
93697.3
75227.9
58757.9
43857.5
29238.8
15956.6
4012.36
-7148.68
-16557.2
-21069.6
-16542.9
-524.314
25074.8
54158.5
79563.9
96748.4
104637
104442
98217.3
87877.4
74950.5
60650.9
46001.1
31845.9
18902.3
7793.14
-1080.14
-7566.91
-11714.4
-13704.5
-13791.9
-12371.4
118810
-1619.63
-20080.8
-19871.1
-18882.5
-18018.6
-17221
-14594.9
-9886.35
-4150.18
2388.46
9146.7
15890.8
22523.2
28759.4
34296
38916.8
42467.2
44872.7
46105.3
46208
45281.4
43463.3
40912.6
37793.5
34259.3
30440.5
26433.8
22293
18019
13549.2
8746.3
3395.17
-2820.92
-10335.6
-19641.5
-30807.6
-43987
-70091.6
-101984
-127761
-152798
-174396
-188823
-191780
-179441
-150110
-105868
-53103.3
-785.814
42738
73011.9
90519
99150.3
103308
105438
105334
102120
98386.7
73048.1
54455.6
35764.5
16064.2
2367.34
-7368.74
-13920
-17773.8
-19325.6
-19507.5
-19161.4
-18236
-16337.3
-13475.1
-10279.8
-7103.57
-3955.71
-797.205
2427.14
5777.93
9270.37
12819.8
15868.1
18340.6
20133.3
21361.8
22205.1
22807
23218.1
23385.9
23166.3
22349.1
20690.7
18032.2
14488.2
10330.6
6088.17
2394.95
-175.85
-660.271
1614.4
6867.93
14993.5
25527.9
37812.3
50950.4
63742.2
74742.9
82475.1
85885.3
84692.4
79344.9
70810.8
60418.9
49441.2
38941.6
29734
22353.5
17066.1
13902.5
12700
13142.5
14797.9
17156.8
19662.7
21728.6
22863.7
22680.1
20838.8
17668.4
11582.3
3219.97
-7952.81
-22997.3
-43617.1
-72316.2
-112193
-165866
-232613
-303185
-355670
-361663
-305588
-200292
-80836.3
17714.2
77952.1
101942
101926
90368.7
75159.7
59789.8
45347.8
31479.5
18468
6313.71
-5390.83
-15313.1
-19827.2
-14355
3541.38
31229.9
61694.7
87481.1
104042
110549
108474
100049
87328.5
71975.3
55362.3
38698.3
23031
9126.51
-2451.89
-11391.3
-17620.6
-21233.6
-22395.7
-21383.8
-18644.5
263426
9305.02
-19070.9
-28655.2
-34601.3
-35811
-32012
-26701.1
-21722.4
-17806
-10277.5
-1758.65
7549.24
17586.4
28145.9
38979.1
49805
60313.2
70217.2
79256.4
87058.2
93371
97996.9
100780
101622
100467
97299.9
92140.6
85053.8
76155.3
65622
53694.7
40692
26926.1
12680.7
-1859.94
-16635.1
-31907.8
-49096.9
-68578.8
-94307.4
-112189
-127015
-135960
-136146
-125426
-103384
-72135.5
-36322.4
-1854.77
26202.4
45521.7
56954.4
63311.3
67604.2
74030.8
75359.2
67279.6
57935.2
39120.9
24041.7
9691.34
-3043.93
-11752
-17326.7
-20464.8
-21600.8
-21085.4
-19510.4
-17511.2
-15335.3
-12729.7
-9540.96
-6088.14
-2683.56
529.738
3523.97
6316.93
8929.63
11356.2
13610
15284.5
16583.8
17635.5
18573.3
19483.2
20388.4
21200.7
21748.1
21812.9
21177.8
19607.6
16959.8
13480
9557.53
5762.77
2826.77
1523.26
2472.99
6125.94
12604.1
21676.1
32766.6
45108.5
57653.6
69085.3
77971.7
83061
83703.2
80091.1
73083.6
63528.8
52689.6
41625.9
31187.8
22051.7
14681.5
9326.93
6052.43
4759.97
5204.54
7013.9
9717.04
12779.2
15636.1
17742.4
18673.3
18134.3
15866.8
11046.3
3980.67
-6005.92
-19818.9
-38941.8
-65556.2
-102359
-151696
-213297
-280020
-333667
-348641
-308338
-220698
-114422
-20224.6
44352.8
77508.3
86983.5
82549.3
71628.8
58514.4
45285.6
32501.2
20048
7602.37
-4817.3
-15160.9
-18974.1
-11266.5
9743.42
40127.1
71857.1
97266.3
112214
116377
111622
100372
84807.3
66732.1
47703.2
29104.1
12085.1
-2574.72
-14443.5
-23308.9
-29083.2
-31812.9
-31708.2
-29181.9