/*--------------------------------*- C++ -*----------------------------------*\
| =========                 |                                                 |
| \\      /  F ield         | OpenFOAM: The Open Source CFD Toolbox           |
|  \\    /   O peration     | Version:  2112                                  |
|   \\  /    A nd           | Website:  www.openfoam.com                      |
|    \\/     M anipulation  |                                                 |
\*---------------------------------------------------------------------------*/
FoamFile
{
    version     2.0;
    format      ascii;
    arch        "LSB;label=32;scalar=64";
    class       volScalarField;
    location    "0.09";
    object      omegaU_0;
}
// * * * * * * * * * * * * * * * * * * * * * * * * * * * * * * * * * * * * * //

dimensions      [0 0 -1 0 0 0 0];

internalField   nonuniform List<scalar> 
12225
(
55396.6
78422.3
85934
87130.2
85904
83779.6
81368
78945.9
76654
74561.2
72689.7
71030.1
69554
68225.5
67002.9
65874.1
64709.1
63295.7
3652.91
8221.51
12323.1
15710.6
18362.5
20378.2
21886
22997.7
23801.5
24368.1
24756.2
25015.8
25188.8
25310.5
25410
25520.7
25737.5
26196.2
280.976
726.848
1382.7
2185.51
3062.93
3941.85
4768.02
5513.26
6165.66
6728.79
7216.71
7648.69
8044.83
8423.86
8801.49
9196.17
9625.01
10096.7
113.558
156.661
228.244
332.864
472.621
645.776
845.103
1057.56
1272.99
1484.26
1688.02
1883.53
2072.39
2257.66
2443.33
2634.74
2837.13
3052.97
100.478
105.71
115.225
130.287
151.689
180.087
215.535
256.724
302.282
350.595
400.188
450.849
502.526
555.547
610.529
668.395
730.177
796.128
99.1463
99.7582
101.148
103.618
107.333
112.413
118.954
126.947
136.296
146.815
158.207
170.162
182.674
195.771
209.546
224.155
239.786
256.617
99.0018
99.0313
99.1867
99.5414
100.155
101.054
102.279
103.858
105.804
108.13
110.828
113.788
116.969
120.366
123.984
127.861
132.019
136.326
98.9777
98.9337
98.9149
98.9347
99.0082
99.1429
99.3456
99.625
99.9897
100.449
101.016
101.681
102.429
103.259
104.174
105.169
106.228
107.307
98.9674
98.9089
98.8626
98.831
98.8171
98.8209
98.8411
98.8776
98.9311
99.0031
99.0966
99.2128
99.3517
99.5157
99.7071
99.9227
100.159
100.414
98.9605
98.8949
98.8399
98.7959
98.7637
98.742
98.7283
98.7202
98.7163
98.7159
98.7189
98.7261
98.7384
98.7577
98.786
98.8247
98.8757
98.9396
98.9554
98.8847
98.8239
98.7733
98.7327
98.701
98.6763
98.6561
98.6387
98.623
98.6087
98.5958
98.5854
98.5784
98.5763
98.5811
98.5947
98.6177
98.9518
98.8773
98.8125
98.7571
98.7109
98.6729
98.6414
98.6146
98.5909
98.5695
98.5497
98.5319
98.5165
98.5043
98.4964
98.494
98.4988
98.511
98.949
98.8714
98.8031
98.7439
98.6932
98.6501
98.6132
98.5811
98.5526
98.5268
98.5034
98.4823
98.4641
98.4492
98.4383
98.4322
98.4318
98.4373
98.9466
98.8662
98.7945
98.7316
98.6767
98.629
98.5873
98.5504
98.5174
98.4876
98.4605
98.4363
98.4152
98.3974
98.3835
98.3736
98.3682
98.3673
98.9446
98.8617
98.7871
98.7208
98.662
98.6101
98.5641
98.523
98.4859
98.4522
98.4216
98.3941
98.3697
98.3485
98.3308
98.3166
98.306
98.2986
98.943
98.8581
98.781
98.7117
98.6496
98.5941
98.5443
98.4993
98.4585
98.4212
98.3872
98.3562
98.3281
98.303
98.2809
98.2616
98.2453
98.2315
98.9419
98.8557
98.7766
98.7049
98.6401
98.5815
98.5285
98.4802
98.436
98.3954
98.358
98.3234
98.2915
98.2622
98.2353
98.2106
98.1882
98.1678
98.9414
98.8544
98.7741
98.7008
98.634
98.5732
98.5176
98.4666
98.4195
98.3759
98.3352
98.2971
98.2614
98.2278
98.1962
98.1663
98.1381
98.1116
98.9417
98.8547
98.7742
98.7003
98.6326
98.5706
98.5135
98.4608
98.4118
98.3659
98.3227
98.2818
98.2429
98.2057
98.1701
98.1359
98.1031
98.0716
98.9428
98.8568
98.7772
98.704
98.6368
98.5751
98.5182
98.4655
98.4162
98.3699
98.3259
98.2839
98.2435
98.2046
98.167
98.1305
98.0951
98.061
98.9443
98.86
98.7819
98.7102
98.6444
98.584
98.5284
98.4768
98.4286
98.3832
98.34
98.2985
98.2585
98.2197
98.1819
98.1451
98.1091
98.0742
98.9466
98.8644
98.7885
98.7188
98.6551
98.5969
98.5436
98.4945
98.4489
98.4061
98.3655
98.3267
98.2892
98.2527
98.2172
98.1825
98.1485
98.1156
98.9497
98.8706
98.7975
98.7306
98.6701
98.6158
98.5674
98.5243
98.4858
98.4515
98.421
98.3938
98.3695
98.3479
98.3289
98.3123
98.2983
98.287
98.9543
98.8797
98.8119
98.753
98.7058
98.6728
98.656
98.6571
98.678
98.7201
98.7839
98.8698
98.9775
99.1063
99.2551
99.4229
99.6084
99.8108
98.9642
98.911
98.8935
98.9362
99.0651
99.3049
99.6774
100.2
100.884
101.735
102.749
103.92
105.232
106.67
108.217
109.856
111.575
113.36
99.0655
99.3661
100.18
101.734
104.125
107.465
111.857
117.355
123.959
131.616
140.225
149.657
159.726
170.261
181.15
192.303
203.644
215.099
101.22
107.338
119.947
140.211
168.036
202.98
245.116
294.082
349.085
409.002
472.511
538.249
604.692
670.726
735.776
799.528
861.742
922.258
148.969
256.848
439.941
688.367
993.518
1332.78
1692.89
2061.47
2427.35
2781.26
3116.23
3427.72
3713.79
3974.14
4209.56
4422.07
4614.46
4790.61
1566.38
3735.32
5964.18
8045.76
9876.25
11438.7
12749.8
13841.2
14745.8
15492.8
16107.1
16609.8
17018.5
17348.3
17612
17821.5
17987.4
18119.4
36481.5
55176.1
63363.2
66371.5
66998.1
66549.3
65612.4
64457.5
63216.8
61959.8
60726.8
59543
58424.5
57380.9
56416.4
55532
54722.3
53985.7
1877.63
1875.75
1921.73
1983.64
2064.29
2166.91
2291.86
2436.35
2599.48
2781.07
2981.16
3199.95
3437.37
3693.04
3966.43
4256.59
4561.85
4880.02
5208.67
5544.95
5884.83
6225.75
6566.11
6903.98
7237.66
7565.61
7861.53
8111.62
8313.24
8463.93
8561.4
8603.37
8587.74
8512.95
8377.87
8180.48
7920.4
7602.35
7233.82
6823.86
6383.52
5925.63
5464.48
5015.39
4594.06
4215.65
3892.84
3632.57
3432.12
3278.97
3178.86
3141.79
3165.52
3234.47
3320.67
3376.1
3346.97
3244.57
3107.26
2996.7
3008.04
3273.63
3915.25
4988.71
6459.17
7925.35
9413.66
10939.3
12460.2
13938.9
15344.7
16654.4
17852.2
18928.4
19882.2
20715
21426.7
22019.5
22496
22859.4
23115.6
23269.5
23323.7
23280
23139.2
22900.7
22563.3
22123
21608.4
21042.1
20421.7
19746.9
19018.7
18238.4
17407.7
16528.9
15604.8
14639.1
13636.5
12603
11546.8
10478
9408.53
8351.41
7318.82
6330.88
5410.45
4580.23
3863.15
3281.64
2857.47
2612.11
2564.96
2736.03
3062.2
3515.92
4083.35
4741.05
5462.23
6218
6982.84
7730.58
8438.35
9084.68
9650.9
10123.4
10492.3
10721.1
10818.7
10808
10708.4
10533.9
10294.7
9999.3
9657.54
9283.39
8889.27
8468.17
7974.31
7336.45
6514.99
5571.83
4695.55
4107.06
3904.34
4021.18
4302.91
4583.36
4792.79
4879.1
4811.54
4591.37
4246.54
3825.9
3419.11
3083.22
2875.2
2846.91
3042.55
3484.17
4103.56
4895.42
5822.78
6832.22
7872.03
8898.65
9880.7
10797.9
11638.6
12398.5
13078.3
13680
14204.2
14650.1
15015.1
15295.7
15481.9
15529.9
15474
15179.1
2909.59
2645.11
2522.87
2436.61
2366.61
2303.83
2245.04
2190.37
2140.48
2094.94
2052.93
2013.78
1976.87
1941.69
1907.97
1875.71
1844.94
1815.74
1788.28
1764.04
1751.49
1754
1768.37
1792.42
1825.52
1868.52
1946.92
2066.73
2221.55
2404.51
2607.43
2821.33
3036.47
3242.29
3427.89
3582.61
3699.51
3781.52
3830.23
3841.42
3811.78
3739.63
3624.95
3469.68
3277.92
3055.84
2811.28
2553.93
2298.18
2069.03
1876.89
1726.95
1624.26
1570.66
1570.22
1648.86
1846.74
2159
2604.22
3219.23
4045.11
5128.96
6191.09
7092
7892.9
8551.92
9073.21
9457.17
9708.26
9836.5
9855.92
9783.21
9637.53
9436.1
9174.13
8839.6
8448.7
8019.02
7564.88
7099.42
6632.97
6176.66
5740.49
5334.17
4967.17
4648.4
4385.34
4194.33
4039.96
3892.35
3750.49
3613.73
3481.62
3353.88
3230.37
3111.04
2995.97
2885.31
2779.28
2678.31
2583.14
2495.16
2417.52
2358.12
2330.42
2314.91
2298.94
2281.52
2261.79
2238.95
2212.16
2180.19
2140.93
2095.65
2054.38
2017.16
1990.71
1990.96
2064.98
2217.11
2398.33
2600.54
2826.57
3078.28
3354.48
3648.65
3952.34
4268.86
4547.37
4762.46
4902.7
4961.26
4934.19
4822.32
4634.46
4386.77
4105.04
3835.67
3639.06
3522.27
3427.57
3314.44
3187.9
3077.86
2985.71
2875.2
2719.67
2534.86
2330.29
2129.49
1961.23
1848.6
1800.97
1811.41
1837.75
1874.14
1918.55
1970.09
2030.32
2107.79
2211.95
2381
2677.54
3053.81
3444.4
3846.85
4262.35
4693.03
5132.07
5571.52
6005.52
6429.91
6840.79
7233.63
7602.02
7935.07
8206.5
8373.23
8407.22
8223.05
4214.49
3418.06
3014.17
2731.52
2516.58
2346.71
2210.25
2100.58
2011.77
1938.66
1877.29
1824.53
1777.95
1735.71
1696.51
1659.64
1624.56
1590.89
1558.4
1526.99
1496.75
1467.73
1439.96
1413.48
1388.4
1364.88
1343.39
1329.27
1326.76
1339.41
1370.54
1422.73
1497.39
1594.9
1712.69
1844.47
1982.15
2118.53
2247.69
2364.03
2461.4
2533.51
2574.65
2580.05
2546.45
2472.69
2360.45
2215.08
2046.78
1871.35
1710.53
1585.43
1515.93
1523.08
1643.94
1908.26
2340.02
2958.98
3779.9
4779.52
5610.96
6286.09
6788.92
7119.5
7290.09
7313.36
7211.11
7005.19
6717.75
6370.19
5982.27
5571.48
5145.74
4716.5
4294.21
3890.56
3518.56
3187.69
2904.17
2672.33
2493.34
2358.14
2261.21
2197.51
2161.76
2148.86
2154.44
2161.04
2167.26
2172.78
2177.5
2181.34
2184.28
2186.34
2187.56
2188.01
2187.83
2187.12
2186.05
2184.81
2183.6
2182.57
2181.83
2181.39
2181.11
2180.23
2177.97
2173.4
2165.31
2152.19
2131.93
2101.33
2055.71
2001.85
1946.21
1888.19
1829.38
1770.64
1713.68
1659.69
1609.3
1564.11
1525.5
1494.89
1474.96
1476.76
1517.04
1602.55
1751.35
1937.13
2137.28
2329.36
2491.71
2605.11
2656.42
2653.52
2628.02
2610.46
2631.21
2696.3
2775.51
2820.16
2792.88
2684.26
2505.5
2279.55
2049.35
1863.95
1723.51
1634.91
1595.54
1594.27
1617.32
1652.59
1691.34
1729.33
1762
1784.08
1791.17
1784.48
1768.14
1747.39
1729.42
1716.74
1714.02
1739.12
1808.54
1904.52
2017.8
2148.07
2297.47
2468.53
2662.22
2879.36
3125.53
3405.93
3731.55
4090.84
4471.37
4824.89
5637.57
4048.75
3266.51
2766.62
2428.09
2193.83
2029.33
1912.04
1826.38
1761.5
1710.23
1667.69
1630.72
1597.35
1566.37
1536.94
1508.6
1481.1
1454.32
1428.23
1402.79
1377.98
1353.79
1330.19
1307.19
1284.78
1262.99
1242.33
1223.79
1208.43
1197.83
1194.12
1199.87
1217.92
1250.82
1300.05
1365.49
1445.36
1536.43
1634.26
1733.29
1827.02
1908.54
1970.87
2007.57
2013.49
1985.76
1925.11
1837.91
1739.26
1656.23
1627.81
1699.31
1908.37
2250.86
2729.47
3374.16
4213.94
4956.35
5537.77
5934.38
6160.44
6222.27
6142.76
5948.04
5665.42
5321.62
4940.55
4543.39
4148.49
3771.24
3423.76
3113.98
2848.1
2628.9
2456.16
2326.85
2235.68
2176.15
2141.51
2125.2
2121.1
2124.73
2132.7
2142.53
2152.52
2161.51
2169.22
2175.58
2180.49
2183.8
2185.38
2185.14
2183.05
2179.11
2173.37
2165.96
2157.07
2147
2136.08
2124.73
2113.36
2102.36
2092.05
2082.59
2073.92
2065.63
2056.86
2046.33
2032.36
2012.68
1984.22
1945.05
1901.9
1853.62
1801.78
1747.34
1690.57
1631.78
1572.06
1512.75
1455.35
1401
1350.13
1303
1260.47
1224.19
1196.78
1188.04
1208.56
1261.33
1345.98
1457.27
1582.4
1707.87
1827.04
1942.52
2065.98
2210.88
2374.04
2523.03
2604.66
2574.84
2429.32
2205.87
1963.97
1761.73
1631.54
1556.34
1522.21
1517.17
1530.6
1555.2
1586.45
1621.05
1655.4
1684.86
1702.9
1704.15
1688.76
1658.44
1616.47
1567.77
1516.9
1467.47
1423.07
1385.98
1355.52
1331.46
1314.07
1303.82
1301.84
1313.62
1347.62
1403.65
1483.3
1603.77
1805.61
2097.09
2476.12
7072.67
4435.31
3247.39
2586.86
2204.12
1977.9
1840.83
1754.25
1695.78
1652.45
1617.18
1585.99
1556.97
1529.18
1502.24
1476.04
1450.58
1425.96
1402.26
1379.51
1357.69
1336.74
1316.54
1296.97
1277.89
1259.15
1240.67
1222.43
1204.71
1187.73
1171.94
1158.09
1147.32
1141.23
1141.81
1151.3
1171.81
1204.88
1251.08
1309.67
1378.37
1453.33
1529.31
1600.11
1659.14
1700.19
1718.55
1712.75
1687.98
1662.99
1678.14
1791.89
2050.94
2457.76
2993.68
3662.03
4357.31
4896.79
5279.17
5496.95
5552.23
5468.98
5273.4
4995.9
4664.7
4305.03
3938.66
3583.95
3255.91
2965.86
2720.85
2523.42
2372.13
2262.64
2188.65
2143.03
2118.77
2109.55
2110.18
2116.67
2126.15
2136.71
2147.16
2156.83
2165.36
2172.83
2179.51
2185.18
2189.63
2192.64
2193.99
2193.45
2190.83
2185.96
2178.72
2169.03
2156.91
2142.45
2125.89
2107.56
2087.94
2067.62
2047.25
2027.52
2009.01
1991.95
1976.32
1961.69
1946.82
1930.54
1910.41
1883.58
1852.2
1815.02
1772.3
1725.11
1674.41
1621.08
1566.3
1511.26
1456.7
1403.36
1352.26
1303.97
1258.53
1215.85
1175.92
1139.17
1107.24
1084.75
1077.08
1090.32
1129.86
1198.31
1295.46
1419.98
1571.92
1754.04
1965.48
2187.78
2375.98
2470.11
2428.82
2261.88
2028.11
1803.81
1640.63
1544.81
1497.79
1478.22
1476.44
1486.85
1505.97
1531.37
1560.93
1591.78
1619.35
1636.92
1639.66
1626.64
1597.99
1556.31
1505.92
1451.15
1395.48
1341.38
1290.36
1243.41
1201.13
1163.72
1131.19
1103.58
1081.4
1065.57
1056.37
1054.6
1063.4
1103.89
1206.34
1388.34
8324.16
4510.2
2996.86
2298.76
1968.53
1808
1724.82
1675.81
1640.81
1610.55
1581.15
1551.73
1522.6
1493.96
1466.14
1439.45
1414.1
1390.26
1367.98
1347.26
1328.02
1310.14
1293.43
1277.68
1262.63
1248.01
1233.54
1218.99
1204.16
1189.02
1173.77
1158.76
1144.54
1131.91
1122.02
1116.41
1116.91
1125.5
1144
1173.68
1214.8
1266.23
1325.32
1387.91
1448.77
1502.38
1544.21
1573.6
1600.21
1655.25
1795.84
2082.96
2534.01
3116.5
3787.82
4343.58
4741.69
4990.49
5086.85
5044.5
4886.77
4644.18
4345.61
4017.17
3680.74
3354.6
3053.78
2789.72
2569.62
2395.94
2266.71
2176.61
2118.5
2084.84
2068.61
2063.97
2066.43
2072.84
2081.13
2090.14
2099.25
2108.23
2116.97
2125.41
2133.44
2141.33
2148.69
2155.21
2160.67
2164.81
2167.37
2168.1
2166.73
2163.03
2156.78
2147.77
2135.85
2120.95
2103.07
2082.39
2059.25
2034.2
2007.9
1981.18
1955.08
1930
1906.28
1884.45
1862.9
1841.76
1817.63
1792.04
1762.44
1728.14
1689.21
1646.2
1599.85
1551
1500.72
1450.17
1400.09
1351.07
1303.97
1259.54
1218
1179.22
1143
1109.26
1078.29
1051.29
1030.76
1021.08
1028.23
1059.25
1121.42
1221.77
1366.84
1560.87
1798.2
2050.57
2261.8
2365.27
2322.24
2152.13
1926.17
1724.86
1588.38
1510.39
1469.46
1450.88
1445.47
1449.87
1462.09
1480.53
1503.65
1529.43
1553.93
1570.79
1576.35
1567.19
1542.02
1502.56
1452.72
1397
1339.35
1282.67
1228.93
1179.34
1134.44
1094.31
1058.8
1027.72
1000.84
977.97
959.072
944.347
934.459
932.994
952.058
1006.23
9211.39
4287.21
2632.93
2038.66
1823.28
1739.24
1697.43
1666.76
1637.1
1605.75
1572.8
1539.33
1506.42
1474.8
1444.85
1416.66
1390.26
1365.65
1342.83
1321.82
1302.63
1285.26
1269.69
1255.83
1243.48
1232.3
1221.82
1211.48
1200.62
1188.49
1175.27
1161.27
1146.91
1132.74
1119.52
1108.29
1100.42
1097.59
1101.7
1114.58
1137.66
1171.5
1215.44
1267.32
1323.78
1380.98
1436.9
1496.58
1582.36
1742.58
2040.36
2507.67
3114.88
3776.76
4255.58
4560.03
4717.73
4739.22
4640.91
4449.32
4193.23
3899.63
3590.88
3285.36
2998.17
2741.52
2524.14
2350.38
2219.9
2128.42
2069.18
2034.57
2017.38
2011.62
2012.72
2017.59
2024.3
2031.83
2039.73
2047.9
2056.39
2065.26
2074.52
2084.07
2093.85
2103.28
2112
2119.7
2126.17
2131.22
2134.69
2136.38
2136.12
2133.7
2128.87
2121.36
2110.9
2097.24
2080.17
2059.62
2035.73
2008.94
1979.65
1948.51
1917.17
1885.93
1854.77
1826.02
1797.12
1769.61
1742.35
1713.68
1682.61
1648.47
1611.05
1570.54
1527.38
1482.19
1435.8
1389.18
1343.08
1298.03
1254.66
1213.78
1175.78
1140.68
1108.33
1078.54
1051.27
1026.87
1006.39
992.421
989.349
1003.76
1044.57
1122.74
1250.04
1435.06
1673.69
1935.32
2158.34
2271.77
2237.31
2078.06
1869.04
1687.74
1566.41
1495.14
1454.63
1432.39
1422.03
1420.37
1425.5
1436.35
1452.2
1470.98
1490.05
1505.89
1513.3
1507.48
1485.98
1449.52
1401.45
1346.27
1288.26
1230.75
1176.03
1125.44
1079.61
1038.68
1002.48
970.755
943.209
919.551
899.57
883.218
870.631
862.574
862.171
874.859
9552.76
3875.86
2300.12
1898.04
1793.8
1755.25
1725.38
1692.55
1656.07
1617.44
1578.47
1540.61
1504.6
1470.62
1438.52
1408.06
1378.98
1351.11
1324.47
1299.26
1275.81
1254.54
1235.92
1220.33
1207.92
1198.48
1191.38
1185.59
1179.98
1172.57
1162.78
1151.18
1138.28
1124.63
1110.9
1097.93
1086.84
1079.05
1076.31
1080.55
1093.62
1116.92
1150.99
1195.31
1248.57
1310.2
1384.47
1488.64
1661.79
1959.51
2420.29
3027.04
3674.55
4117.73
4372.25
4476.13
4453.18
4326.48
4122.71
3869.45
3590.52
3304.96
3027.9
2771.91
2547.27
2361.05
2216.06
2110.69
2039.84
1996.5
1973.35
1963.86
1962.88
1966.75
1973.12
1980.69
1988.86
1997.46
2006.51
2016.08
2026.24
2036.92
2047.96
2059.08
2069.99
2079.9
2088.4
2095.33
2100.65
2104.38
2106.55
2107.18
2106.25
2103.68
2099.3
2092.82
2083.88
2072.07
2056.97
2038.18
2015.45
1989.21
1959.48
1926.17
1891.67
1856.44
1819.08
1783.95
1749.82
1716.28
1682.96
1649.28
1614.63
1578.49
1540.59
1500.9
1459.6
1417.04
1373.74
1330.4
1287.66
1246.02
1205.97
1168.19
1133.23
1101.27
1072.25
1046.03
1022.51
1001.75
984.269
971.68
967.123
975.912
1006.27
1069.69
1180
1349.03
1576.23
1833.68
2060.31
2183.91
2164.93
2025.4
1837.06
1671.81
1558.58
1489.08
1446.88
1421.27
1406.41
1398.62
1396.15
1398.54
1405.57
1416.93
1431.41
1445.43
1453.45
1450.01
1431.67
1398.2
1352.3
1298.28
1240.61
1182.95
1127.86
1076.85
1030.67
989.526
953.284
921.672
894.376
871.076
851.492
835.448
822.861
813.934
809.607
811.863
9267.06
3376.81
2104.36
1890.61
1845.63
1814.78
1777.39
1734.5
1689.2
1643.9
1600.33
1559.42
1521.27
1485.4
1451.08
1417.54
1384.2
1350.8
1317.4
1284.41
1252.56
1222.81
1196.31
1174.15
1157.23
1145.9
1139.69
1137.24
1136.53
1135.2
1129.9
1121.7
1111.42
1099.71
1087.21
1074.71
1063.26
1054.21
1049.24
1050.31
1059.46
1078.58
1109.18
1152.44
1210.25
1288.22
1401.38
1580.98
1872.28
2312.23
2896.71
3513.68
3942.91
4180.44
4261.04
4218.03
4080.85
3877.95
3635.33
3374.32
3110.96
2857.75
2625.32
2422.7
2256.23
2128.24
2036.85
1976.98
1941.88
1924.69
1919.43
1921.51
1927.74
1936.14
1945.62
1955.7
1966.25
1977.3
1988.91
2001.06
2013.63
2026.44
2039.12
2051.03
2061.32
2069.5
2075.46
2079.26
2081.13
2081.34
2080.19
2077.94
2074.75
2070.72
2065.77
2059.67
2051.99
2042.2
2029.72
2013.8
1993.54
1969.43
1941.39
1908.13
1872.07
1834.62
1795.59
1755.68
1715.45
1675.29
1635.37
1595.75
1556.29
1516.8
1477.09
1437.02
1396.57
1355.83
1315.01
1274.5
1234.75
1196.15
1159.09
1124.11
1091.79
1062.42
1036.12
1012.84
992.527
975.158
961.043
951.319
948.35
956.399
982.496
1037.21
1134.23
1286.67
1497.09
1742.51
1966.68
2099.54
2099.83
1984.85
1818.76
1666.9
1558.01
1487.97
1443.5
1414.62
1395.07
1380.98
1370.72
1364.84
1364.43
1369.94
1380.38
1392.2
1399.97
1397.9
1381.87
1350.83
1306.87
1254.06
1196.92
1139.34
1084.08
1032.87
986.561
945.457
909.492
878.403
851.877
829.58
811.18
796.388
784.952
776.765
771.888
771.527
8358.16
2870.02
2085.17
1971.59
1932.61
1891.06
1842.32
1790.41
1738.61
1688.9
1642.51
1599.82
1560.42
1523.39
1487.5
1451.59
1414.75
1376.49
1336.76
1296.04
1255.19
1215.46
1178.4
1145.65
1118.77
1098.9
1086.41
1080.68
1079.64
1080.35
1079.43
1074.67
1067.6
1058.78
1048.85
1038.63
1029.21
1022.02
1018.8
1021.64
1032.89
1055.09
1091.16
1145.11
1224.1
1342.26
1524.5
1805.93
2217.26
2763.23
3322.06
3740.71
3980.92
4061.93
4018.59
3885.03
3691.75
3464.39
3222.39
2979.54
2746.19
2531.47
2343.66
2188.97
2070.02
1985.4
1930.51
1899.11
1884.77
1881.89
1886.17
1894.6
1905.33
1917.29
1929.97
1943.21
1957.02
1971.46
1986.46
2001.71
2016.8
2031.12
2043.89
2054.37
2061.75
2065.98
2067.33
2066.15
2062.95
2058.24
2052.53
2046.24
2039.77
2033.37
2027.03
2020.64
2013.77
2005.72
1995.9
1983.31
1966.35
1945.09
1919.74
1889.79
1855.52
1817.42
1776.08
1732.27
1686.77
1640.43
1594.03
1548.24
1503.51
1460.04
1417.81
1376.69
1336.49
1297.07
1258.37
1220.48
1183.58
1147.93
1113.78
1081.52
1051.69
1024.64
1000.63
979.742
962.017
947.458
936.349
929.58
929.043
938.252
963.164
1013.03
1100.38
1238.05
1430.55
1659.99
1877.37
2017.63
2038.4
1950.01
1806.96
1667.61
1561.48
1489.49
1441.7
1408.65
1383.71
1363.13
1346.17
1334.44
1329.35
1331.13
1338.5
1348.23
1355.23
1353.71
1339.1
1309.7
1267.05
1214.99
1158.07
1100.35
1044.82
993.36
946.972
906.034
870.548
840.315
815.032
794.349
777.868
765.176
755.839
749.511
745.859
745.239
7070.57
2640.52
2157.94
2078.29
2032
1979.65
1921.84
1863.26
1806.93
1754.42
1706.53
1663.3
1624.1
1587.76
1552.79
1517.71
1481.3
1442.73
1401.63
1358.14
1312.92
1267.04
1221.88
1179.06
1140.23
1106.8
1079.75
1059.42
1045.4
1036.63
1031.67
1028.41
1024.27
1018.79
1012.47
1006.14
1001.05
999.436
1002.91
1013.76
1035.02
1070.52
1125.49
1207.98
1330.77
1513.76
1782.88
2162.02
2644.55
3129.32
3523.96
3771.14
3867.62
3839.81
3721.9
3545.83
3337.51
3115.56
2892.24
2676.3
2475.57
2297.8
2149.49
2034.06
1951.08
1896.86
1865.81
1851.93
1849.87
1855.42
1865.59
1878.46
1892.93
1908.44
1924.79
1941.88
1959.58
1977.76
1996.09
2013.91
2030.41
2044.59
2055.41
2061.9
2064.2
2062.82
2058.36
2051.44
2042.71
2032.81
2022.36
2011.84
2001.85
1992.82
1984.77
1977.67
1971.2
1964.42
1956.9
1947.28
1934.52
1917.69
1895.96
1868.85
1836.25
1798.32
1755.51
1708.54
1658.45
1606.48
1554
1502.3
1452.42
1404.93
1360.03
1317.61
1277.39
1239.06
1202.31
1166.95
1132.94
1100.3
1069.16
1039.74
1012.46
987.716
965.813
946.976
931.364
919.054
910.41
906.213
908.072
918.974
944.016
991.195
1071.56
1196.88
1372.42
1584.68
1792.47
1937.68
1978.23
1916.85
1797.12
1670.5
1567.08
1492.45
1440.17
1401.8
1370.97
1344.61
1323.23
1308.78
1301.55
1301.11
1306.19
1313.99
1319.91
1318.3
1304.32
1275.74
1233.66
1181.7
1124.46
1066.18
1010.06
958.167
911.621
870.898
836.086
807.055
783.534
765.127
751.326
741.537
735.108
731.431
729.89
730.171
5695.52
2573.27
2260.52
2192.4
2138.75
2078.96
2015.18
1952.36
1893.45
1839.89
1792.22
1750.17
1713.07
1679.87
1649.1
1619.22
1588.79
1556.63
1521.9
1484.17
1443.43
1400.06
1354.77
1308.58
1262.67
1218.32
1176.85
1139.4
1106.88
1079.92
1058.77
1043.39
1033.54
1029.03
1026.42
1025.66
1028.01
1035.4
1050.01
1074.83
1114.03
1173.32
1261.38
1388.23
1568.64
1820.78
2150.89
2544.55
2953.66
3308.12
3553.69
3670.08
3668.55
3576.79
3425.41
3240.41
3040.34
2836.85
2637.54
2449.12
2278.83
2133.53
2017.79
1932.6
1875.51
1841.83
1826.07
1823.06
1828.58
1839.54
1853.87
1870.29
1888.17
1907.23
1927.2
1947.86
1969.02
1990.31
2011.04
2030.19
2046.44
2058.38
2064.76
2065.28
2061.34
2053.86
2043.65
2031.44
2017.9
2003.65
1989.32
1975.25
1962.33
1951.18
1941.74
1934.01
1927.81
1922.54
1917.18
1910.44
1901.01
1887.65
1869.15
1844.6
1813.46
1775.61
1731.3
1681.28
1626.8
1569.57
1511.49
1454.44
1399.9
1348.81
1301.51
1257.94
1217.75
1180.47
1145.64
1112.84
1081.79
1052.32
1024.36
998.006
973.493
951.197
931.444
914.539
900.753
890.26
883.564
881.43
885.303
897.798
923.345
968.871
1043.98
1159.11
1319.57
1515.13
1711.92
1859.55
1917.79
1882.63
1786.63
1673.78
1574.03
1497.06
1440.02
1396.28
1360.43
1330.19
1306.42
1290.61
1282.02
1279.88
1282.98
1288.92
1293.5
1291.27
1277.2
1248.65
1206.35
1153.78
1095.63
1036.33
979.308
926.774
879.994
839.578
805.733
778.405
757.306
741.93
731.572
725.385
722.435
721.833
722.717
724.494
4405.35
2542.07
2364.58
2304.22
2246.64
2183.92
2118.15
2054.31
1995.28
1942.68
1897.06
1857.73
1823.87
1794.75
1769.37
1746.5
1724.82
1703.1
1680.25
1655.39
1627.88
1597.38
1563.82
1527.39
1488.53
1447.92
1406.34
1364.75
1324.17
1285.73
1250.54
1219.72
1194.41
1175.54
1167.18
1168.93
1177.03
1193.14
1219.8
1260.54
1320.19
1405.15
1523.67
1685.11
1897.99
2165.33
2476.99
2805.24
3106.29
3336.15
3467.1
3495.69
3437.87
3318.51
3161.96
2986.77
2804.68
2622.78
2446.88
2283.52
2139.77
2021.4
1931.09
1868.07
1828.87
1808.69
1802.6
1806.34
1816.65
1831.22
1848.58
1867.87
1888.53
1910.18
1932.63
1955.58
1978.65
2001.28
2022.6
2041.49
2055.95
2063.89
2063.28
2057.11
2047.14
2034.4
2019.71
2003.71
1986.97
1970.01
1953.37
1937.6
1923.28
1910.88
1900.7
1892.82
1887.09
1883
1879.53
1875.21
1868.46
1857.69
1841.41
1818.34
1787.6
1748.8
1702.13
1648.46
1589.36
1527
1463.82
1402.1
1343.69
1289.7
1240.6
1196.3
1156.42
1120.39
1087.6
1057.46
1029.51
1003.37
978.824
955.778
934.316
914.699
897.262
882.335
870.263
861.314
856.152
855.583
860.971
874.673
900.6
944.801
1015.62
1122.2
1269.55
1449.86
1635.38
1783.25
1856.3
1845.49
1773.33
1675.92
1581.84
1503.88
1442.86
1394.64
1355.21
1322.83
1297.85
1280.81
1270.71
1266.77
1267.88
1271.93
1275.02
1271.76
1256.94
1227.58
1184.2
1130.24
1070.56
1009.81
951.568
898.231
851.265
811.471
779.164
754.296
736.47
724.966
718.789
716.768
717.652
720.269
723.542
726.725
3351.23
2518.45
2452.18
2399.9
2343.23
2283.74
2222.65
2163.99
2109.74
2061.32
2019.63
1984.1
1953.54
1927.34
1905.11
1886.3
1870.19
1855.97
1842.79
1829.83
1816.31
1801.56
1785.03
1766.33
1745.22
1721.66
1695.71
1667.64
1637.86
1606.97
1575.74
1545.13
1516.35
1490.77
1470.05
1457.65
1461.28
1478.37
1508.69
1555.56
1623.36
1717.29
1842.97
2005.15
2205.21
2437.74
2687.27
2927.99
3128.77
3263.26
3318.47
3297.71
3216.24
3093.66
2947.34
2789.33
2626.87
2465.21
2310.07
2168.32
2046.61
1949.4
1877.94
1830.43
1803.07
1791.42
1791.34
1799.45
1812.73
1829.59
1848.98
1870
1891.98
1914.58
1937.53
1960.41
1982.62
2003.4
2021.73
2036.36
2045.8
2048.28
2043.03
2032.85
2019.39
2003.8
1986.88
1969.2
1951.21
1933.31
1915.94
1899.63
1884.96
1872.49
1862.61
1855.45
1850.85
1848.26
1846.61
1844.28
1839.39
1830.08
1814.56
1791.25
1759.07
1717.56
1667
1608.56
1544.3
1476.88
1409.11
1343.56
1282.22
1226.26
1176.14
1131.76
1092.68
1058.24
1027.74
1000.48
975.814
953.222
932.298
912.801
894.666
878
863.088
850.277
839.929
832.39
828.473
829.047
835.447
849.857
875.788
918.576
985.51
1084.62
1220.57
1387.37
1562.19
1708.77
1793.6
1804.46
1755.47
1675.07
1589.22
1512.58
1449.25
1397.83
1355.87
1321.97
1295.89
1277.59
1266.02
1260.35
1259.61
1261.89
1263.43
1258.78
1242.52
1211.45
1166.02
1109.84
1047.97
985.286
925.564
871.461
824.686
786.195
756.324
734.901
721.315
714.532
713.208
715.824
720.828
726.798
732.488
736.974
2663.12
2476.99
2495.96
2456.86
2411.02
2364.46
2318.14
2274.44
2233.81
2196.92
2164.51
2136.16
2110.64
2087.24
2065.91
2046.69
2029.59
2014.57
2001.49
1990.12
1980.18
1971.29
1963.06
1955.06
1946.89
1938.15
1928.5
1917.67
1905.47
1891.83
1876.86
1860.85
1844.35
1828.2
1813.64
1802.32
1796
1802.05
1826.44
1867.19
1927.46
2010.77
2120.1
2256.68
2418.17
2596.76
2778.1
2942.49
3069.14
3142.24
3155.78
3114.47
3030.28
2917.11
2786.5
2646.2
2501.44
2357.23
2219.74
2095.87
1991.39
1909.27
1850.46
1814.63
1795.53
1789.2
1792.26
1801.88
1815.92
1833.21
1852.83
1873.69
1894.99
1916.31
1937.23
1957.22
1975.63
1991.68
2004.51
2013.18
2016.82
2013.95
2005.8
1993.88
1979.48
1963.54
1946.7
1929.36
1911.89
1894.62
1877.97
1862.47
1848.74
1837.41
1828.93
1823.48
1820.79
1820.16
1820.35
1819.5
1815.42
1805.98
1789.16
1763.29
1727.26
1680.79
1624.51
1560.11
1490.18
1417.82
1346.12
1277.73
1214.56
1157.69
1107.5
1063.83
1026.17
993.828
966.013
941.923
920.798
901.965
884.873
869.126
854.53
841.067
828.898
818.357
809.803
803.64
800.795
802.183
809.141
823.739
849.185
890.238
953.323
1045.55
1171.35
1326.24
1491.37
1635.89
1729.8
1759.28
1732.02
1669.56
1594.45
1521.87
1458.48
1405.4
1361.75
1326.52
1299.21
1279.51
1266.37
1259.06
1256.75
1257.57
1257.64
1251.29
1232.83
1198.99
1150.42
1091.08
1026.35
961.369
900.235
845.84
800.041
763.84
737.495
720.608
712.24
710.997
715.174
722.948
732.547
742.359
750.982
757.284
2468.9
2381.52
2442.26
2438.36
2424.91
2408.49
2391.4
2376.47
2362.85
2350.25
2338.95
2328.17
2316.58
2303.38
2288.31
2271.44
2253.07
2233.67
2213.76
2193.87
2174.54
2156.22
2139.29
2124
2110.5
2098.81
2088.85
2080.45
2073.38
2067.39
2062.24
2057.77
2053.92
2050.87
2049.04
2049.24
2052.67
2061.22
2077.44
2109.64
2157.89
2223.87
2309.08
2413.19
2532.99
2661.36
2787.17
2896.52
2975.63
3014.57
3010.02
2965.5
2889.03
2789.72
2675.15
2550.88
2421.49
2292.07
2166.48
2056.32
1967.94
1899.67
1852.11
1822.7
1807.21
1802.36
1805.39
1813.96
1826.36
1841.55
1858.7
1876.9
1895.18
1912.82
1929.27
1944.04
1956.58
1966.34
1972.75
1975.36
1973.82
1967.62
1958.38
1946.85
1933.68
1919.36
1904.24
1888.62
1872.79
1857.14
1842.15
1828.43
1816.69
1807.58
1801.57
1798.73
1798.58
1800.13
1801.8
1801.42
1796.55
1784.78
1764.03
1732.77
1690.18
1636.4
1572.68
1501.38
1425.62
1348.83
1274.15
1204.09
1140.32
1083.71
1034.5
992.439
956.97
927.347
902.718
882.194
864.907
850.058
836.963
825.102
814.155
804.016
794.748
786.594
779.827
774.995
773.046
774.925
781.984
796.218
820.593
859.395
918.328
1003.75
1119.94
1263.91
1420.25
1562.5
1663.68
1709.2
1702.07
1657.99
1595.78
1530.1
1469.19
1416.25
1371.87
1335.67
1307.12
1285.81
1270.95
1262.04
1258.37
1257.96
1256.58
1248.09
1226.46
1188.63
1135.76
1072.37
1004.34
937.141
875.104
821.254
777.493
744.769
723.158
711.948
709.798
714.941
725.372
739.036
753.974
768.379
780.665
789.494
2869.34
2288.92
2307.73
2333.12
2364.38
2399.38
2434.32
2466.14
2495.41
2523.44
2551.1
2576.13
2597.17
2612.82
2622.04
2624.29
2619.43
2607.69
2589.57
2565.75
2537.14
2504.84
2470
2433.8
2397.41
2361.86
2328.1
2296.92
2268.94
2244.67
2224.43
2208.46
2196.88
2189.77
2187.17
2189.22
2196.22
2208.8
2228.05
2255.15
2296
2350.02
2417.55
2498.05
2588.73
2684
2775.58
2853.44
2907.79
2931.49
2921.78
2880.57
2812.95
2725.05
2622.28
2508.69
2384.31
2266.62
2155.37
2060
1982.58
1922.77
1880.25
1852.59
1836.75
1830.09
1830.32
1835.46
1844.01
1854.9
1867.38
1880.66
1893.88
1906.27
1917.23
1926.31
1933.11
1937.3
1938.61
1936.88
1931.88
1924.26
1914.84
1903.98
1891.98
1879.06
1865.44
1851.38
1837.19
1823.33
1810.39
1799.07
1790.13
1784.22
1781.63
1782.15
1784.93
1788.46
1790.63
1788.94
1780.77
1763.65
1735.65
1695.58
1643.24
1579.56
1506.69
1427.74
1346.36
1266.05
1189.68
1119.36
1056.43
1001.47
954.517
915.24
883.01
857.024
836.364
820.053
807.115
796.634
787.815
780.032
772.868
766.139
759.868
754.229
749.371
746.194
745.422
747.987
755.21
769
792.128
828.515
883.304
962.259
1069.62
1203.73
1352.27
1492.38
1599.32
1657.94
1668.02
1640.91
1592.1
1535.11
1478.81
1427.79
1383.88
1347.38
1317.98
1295.29
1278.93
1268.75
1264.13
1262.75
1259.67
1248.08
1221.88
1178.58
1120.24
1052.18
980.795
911.842
849.754
797.591
757.205
729.371
713.863
709.574
714.744
727.251
744.837
765.224
786.201
805.704
821.97
833.54
3458.46
2208.49
2162.27
2199.34
2255.82
2324.41
2401.65
2484.15
2567.24
2646.14
2719.04
2788.26
2854.37
2914
2965.48
3007.62
3039.58
3060.76
3070.82
3069.76
3057.72
3035.17
3002.94
2962.12
2914.04
2860.16
2802.05
2741.33
2679.67
2618.73
2560.21
2505.8
2457.19
2416.01
2383.69
2361.37
2349.74
2349.02
2359.11
2379.79
2410.62
2455.58
2510.33
2573.98
2644.41
2717.42
2786.81
2845.08
2884.82
2900.26
2888.68
2850.68
2789.36
2708.75
2607.66
2500.5
2388.36
2281.83
2182.95
2097.89
2027.81
1972.58
1931.51
1902.71
1883.95
1873.16
1868.48
1868.27
1871.17
1876.17
1882.54
1889.64
1896.82
1903.39
1908.8
1912.63
1914.58
1914.45
1912.12
1907.59
1900.73
1892.4
1882.79
1872.1
1860.52
1848.2
1835.37
1822.32
1809.49
1797.44
1786.9
1778.61
1773.27
1771.3
1772.68