/*--------------------------------*- C++ -*----------------------------------*\
| =========                 |                                                 |
| \\      /  F ield         | OpenFOAM: The Open Source CFD Toolbox           |
|  \\    /   O peration     | Version:  2112                                  |
|   \\  /    A nd           | Website:  www.openfoam.com                      |
|    \\/     M anipulation  |                                                 |
\*---------------------------------------------------------------------------*/
FoamFile
{
    version     2.0;
    format      ascii;
    arch        "LSB;label=32;scalar=64";
    class       volScalarField;
    location    "0.29";
    object      k;
}
// * * * * * * * * * * * * * * * * * * * * * * * * * * * * * * * * * * * * * //

dimensions      [0 2 -2 0 0 0 0];

internalField   nonuniform List<scalar> 
12225
(
1.16397
1.56056
1.68567
1.68549
1.63399
1.56433
1.49045
1.41809
1.3496
1.2858
1.2268
1.1723
1.12175
1.07436
1.02913
0.984741
0.93926
0.889138
0.384405
0.372324
0.346202
0.318142
0.293071
0.272049
0.254981
0.241375
0.230647
0.222285
0.215892
0.211184
0.207975
0.206172
0.205789
0.20699
0.210388
0.217449
0.366636
0.350807
0.329811
0.306418
0.282734
0.260057
0.239086
0.22013
0.203255
0.188388
0.175385
0.164068
0.154259
0.14579
0.138519
0.132355
0.127296
0.123507
0.36783
0.357752
0.345775
0.332614
0.31895
0.305327
0.292111
0.279526
0.267692
0.256655
0.246409
0.23691
0.228092
0.219865
0.212122
0.204737
0.197568
0.190561
0.368797
0.361329
0.35307
0.344251
0.335115
0.325888
0.316752
0.30784
0.299243
0.291018
0.283193
0.27577
0.268736
0.262057
0.255686
0.24956
0.24361
0.237836
0.369266
0.362991
0.35644
0.349663
0.342752
0.335806
0.328912
0.322138
0.315538
0.309147
0.30299
0.297076
0.291406
0.285968
0.280745
0.275709
0.270834
0.26614
0.369463
0.363735
0.358026
0.352311
0.346604
0.340938
0.335346
0.32986
0.324506
0.319304
0.314268
0.309405
0.304718
0.300203
0.295854
0.291659
0.287609
0.283736
0.369535
0.364042
0.358737
0.353574
0.34853
0.343599
0.338785
0.334094
0.329534
0.325111
0.32083
0.316695
0.312704
0.308857
0.30515
0.301577
0.298136
0.29486
0.369558
0.364154
0.359026
0.354129
0.34943
0.344907
0.340546
0.336338
0.332277
0.328359
0.324581
0.320942
0.317438
0.314065
0.310822
0.307704
0.304709
0.301871
0.369564
0.364189
0.359128
0.354345
0.349808
0.345491
0.341374
0.337438
0.333672
0.330065
0.326607
0.323292
0.320114
0.317067
0.314148
0.311351
0.308677
0.306152
0.369564
0.364197
0.359158
0.354417
0.349946
0.345721
0.341719
0.337923
0.334314
0.33088
0.327608
0.324489
0.321514
0.318675
0.315967
0.313385
0.310927
0.308617
0.369563
0.364198
0.359164
0.354435
0.349985
0.345792
0.341835
0.338095
0.334554
0.331199
0.328015
0.324993
0.322121
0.319393
0.3168
0.314337
0.312002
0.309815
0.369562
0.364196
0.359163
0.354437
0.349994
0.345813
0.341874
0.338158
0.334648
0.331331
0.328192
0.325221
0.322406
0.319739
0.317212
0.314819
0.312558
0.310447
0.369561
0.364194
0.35916
0.354434
0.349993
0.345815
0.341882
0.338175
0.334678
0.331377
0.328259
0.325311
0.322525
0.31989
0.317399
0.315044
0.312824
0.310755
0.36956
0.364192
0.359157
0.35443
0.349988
0.345811
0.341878
0.338173
0.33468
0.331385
0.328274
0.325336
0.322561
0.319939
0.317462
0.315124
0.312921
0.310869
0.369559
0.364191
0.359154
0.354426
0.349984
0.345805
0.341873
0.338168
0.334676
0.331382
0.328273
0.325338
0.322567
0.319949
0.317477
0.315143
0.312944
0.310895
0.369559
0.364189
0.359152
0.354424
0.34998
0.345801
0.341868
0.338163
0.334671
0.331378
0.32827
0.325336
0.322565
0.319948
0.317476
0.315141
0.312939
0.310886
0.369558
0.364188
0.359151
0.354422
0.349978
0.345799
0.341866
0.338161
0.334669
0.331375
0.328267
0.325332
0.32256
0.319941
0.317466
0.315127
0.312919
0.310858
0.369558
0.364188
0.35915
0.354421
0.349978
0.345799
0.341866
0.338161
0.334668
0.331374
0.328264
0.325327
0.322552
0.319929
0.317448
0.315102
0.312884
0.310812
0.369558
0.364188
0.359152
0.354423
0.349981
0.345802
0.341869
0.338164
0.334671
0.331376
0.328264
0.325324
0.322544
0.319915
0.317427
0.315073
0.312845
0.310761
0.369559
0.364189
0.359154
0.354427
0.349985
0.345807
0.341874
0.338168
0.334673
0.331375
0.328258
0.325312
0.322525
0.319886
0.317387
0.315019
0.312776
0.310676
0.369559
0.364191
0.359156
0.354429
0.349987
0.345806
0.341868
0.338153
0.334646
0.331331
0.328195
0.325224
0.322408
0.319737
0.3172
0.314791
0.312502
0.310353
0.36956
0.364191
0.359153
0.354417
0.349958
0.345751
0.341775
0.33801
0.33444
0.33105
0.327826
0.324758
0.321834
0.319045
0.316383
0.31384
0.311412
0.309119
0.369558
0.364177
0.359107
0.354311
0.349759
0.345424
0.341285
0.337326
0.333533
0.329895
0.326401
0.323046
0.319822
0.316723
0.313744
0.310878
0.308124
0.305504
0.36954
0.364085
0.358859
0.353811
0.348912
0.344145
0.339506
0.334991
0.330604
0.326345
0.322218
0.318222
0.314358
0.310623
0.307017
0.303534
0.300174
0.296961
0.369451
0.363691
0.35792
0.352104
0.346246
0.340378
0.334539
0.32877
0.323105
0.317572
0.312192
0.306977
0.301935
0.297068
0.292374
0.28785
0.283489
0.279314
0.369175
0.362485
0.355152
0.347249
0.338945
0.33043
0.321872
0.313402
0.305118
0.29709
0.289361
0.281955
0.27488
0.268131
0.261696
0.255557
0.249695
0.244111
0.368977
0.360177
0.348687
0.335201
0.320557
0.305452
0.290409
0.275795
0.261847
0.248701
0.23642
0.225014
0.214462
0.204726
0.195755
0.187496
0.179901
0.172931
0.37873
0.372638
0.35778
0.338239
0.317239
0.296637
0.277537
0.260477
0.245586
0.23278
0.221884
0.212706
0.205059
0.19878
0.193731
0.18982
0.187104
0.185552
0.807927
1.13371
1.35249
1.47227
1.51892
1.51768
1.48745
1.44098
1.38643
1.32878
1.27091
1.21441
1.16004
1.10809
1.05856
1.01142
0.972214
0.938238
0.127158
0.275403
0.322107
0.335268
0.33264
0.322586
0.309263
0.294694
0.276427
0.253106
0.225082
0.196348
0.17542
0.168893
0.174715
0.179644
0.184103
0.200176
0.290217
0.472273
0.637247
0.786887
0.917222
1.02693
1.11637
1.18679
1.23995
1.27778
1.30226
1.31532
1.31879
1.31435
1.30352
1.28768
1.26808
1.24606
1.22216
1.19667
1.16983
1.14183
1.11283
1.08298
1.05241
1.02121
0.989452
0.957152
0.924306
0.890878
0.856813
0.822063
0.786605
0.75047
0.713761
0.676662
0.639438
0.602424
0.566007
0.530618
0.496758
0.465127
0.437013
0.415463
0.406044
0.404757
0.406036
0.409166
0.414032
0.420601
0.428813
0.438531
0.449472
0.461065
0.472171
0.480686
0.48335
0.47658
0.459606
0.434648
0.400369
0.359083
0.315626
0.275173
0.241065
0.214314
0.194912
0.183232
0.180239
0.186273
0.197954
0.212635
0.228489
0.244487
0.260272
0.275471
0.290746
0.308756
0.342085
0.427993
0.617062
0.802953
0.949095
1.0573
1.13127
1.17614
1.19712
1.19901
1.18609
1.16208
1.13019
1.09365
1.05487
1.01451
0.973089
0.93093
0.888209
0.844972
0.801169
0.756724
0.711647
0.66622
0.621408
0.580637
0.563357
0.585586
0.613495
0.64399
0.677295
0.713931
0.754323
0.798714
0.847125
0.899348
0.954852
1.01271
1.07257
1.13201
1.17426
1.18488
1.15338
1.07184
0.938695
0.762858
0.566181
0.380668
0.238402
0.155903
0.119115
0.107218
0.113552
0.126997
0.136275
0.13565
0.132247
0.128035
0.124124
0.121024
0.118819
0.11737
0.116449
0.115839
0.115386
0.11502
0.114742
0.114598
0.114653
0.114963
0.115561
0.11645
0.117604
0.119006
0.120812
0.123721
0.129277
0.139301
0.153091
0.16379
0.162002
0.147603
0.142181
0.185948
0.35679
0.454714
0.497762
0.493032
0.457951
0.412239
0.368427
0.330208
0.301297
0.284437
0.287758
0.336604
0.459318
0.636917
0.833728
0.931492
0.93799
0.927672
0.936083
0.962334
0.988286
1.01072
1.02946
1.04549
1.05999
1.07396
1.08814
1.10297
1.1187
1.13538
1.15302
1.17155
1.19092
1.2111
1.23192
1.25278
1.27327
1.29294
1.31142
1.32846
1.34389
1.35763
1.36963
1.37983
1.38812
1.39429
1.398
1.39877
1.39604
1.38921
1.3777
1.36107
1.33913
1.31194
1.27991
1.24369
1.20417
1.16233
1.1192
1.07576
1.03292
0.99146
0.955048
0.922772
0.893456
0.866923
0.843122
0.821976
0.803335
0.786952
0.772485
0.759576
0.748007
0.737815
0.72897
0.719847
0.70445
0.677861
0.646188
0.619104
0.601449
0.592221
0.583698
0.563758
0.523125
0.462808
0.394723
0.334709
0.296659
0.279921
0.275187
0.276229
0.289198
0.341323
0.447078
0.564809
0.63466
0.669101
0.708838
0.741529
0.766711
0.788379
0.809342
0.831096
0.854301
0.879232
0.906074
0.935063
0.966518
0.99991
1.03406
1.06861
1.10303
1.13661
1.1684
1.1972
1.22154
1.23973
1.24997
1.25064
1.24049
1.21783
1.18516
1.14891
1.10739
1.06258
1.01629
0.969909
0.924426
0.880429
0.838196
0.797827
0.759293
0.72238
0.687071
0.653675
0.627484
0.609843
0.598945
0.592782
0.589923
0.59094
0.59884
0.616716
0.644357
0.677032
0.707298
0.730364
0.739714
0.718959
0.668897
0.605042
0.541496
0.484874
0.436529
0.39566
0.360764
0.33028
0.302874
0.277534
0.253546
0.23044
0.207918
0.185843
0.164234
0.14325
0.123232
0.104682
0.0881963
0.0743567
0.0635943
0.0563111
0.0531312
0.0548111
0.0618954
0.0772538
0.110798
0.160763
0.205282
0.233872
0.546892
0.602417
0.660435
0.634992
0.568152
0.497002
0.442282
0.407219
0.404664
0.459873
0.605343
0.834259
1.03753
1.13104
1.11439
1.06263
1.01679
0.98937
0.981323
0.986977
0.999928
1.01731
1.03754
1.05946
1.0821
1.10462
1.1264
1.14711
1.16675
1.18559
1.20401
1.22233
1.24065
1.25878
1.27705
1.29564
1.31407
1.33188
1.34878
1.36468
1.37968
1.39404
1.40811
1.42218
1.43641
1.45073
1.46471
1.47763
1.48844
1.49586
1.49856
1.49533
1.48524
1.46781
1.4431
1.41168
1.37452
1.33285
1.28799
1.24119
1.19349
1.14679
1.10454
1.06522
1.0286
0.994762
0.963793
0.935799
0.910852
0.888974
0.870119
0.854164
0.840918
0.830148
0.821527
0.814346
0.806972
0.79677
0.779621
0.750603
0.71179
0.670962
0.634515
0.603143
0.571233
0.53177
0.483084
0.431547
0.38798
0.365895
0.367624
0.394737
0.470014
0.583567
0.662877
0.671867
0.667477
0.678062
0.704358
0.738186
0.775248
0.811938
0.845478
0.875009
0.901527
0.926852
0.952554
0.979369
1.00711
1.03624
1.06689
1.09842
1.13016
1.1613
1.1909
1.21774
1.24028
1.25666
1.26488
1.26314
1.24989
1.22351
1.19011
1.15099
1.10722
1.06092
1.01393
0.967652
0.92304
0.880638
0.840684
0.803238
0.768282
0.73574
0.705606
0.677366
0.649147
0.618597
0.585747
0.552543
0.521621
0.496078
0.479099
0.47302
0.47806
0.491389
0.507065
0.517502
0.516386
0.501935
0.476434
0.445052
0.410345
0.374525
0.339696
0.3073
0.278051
0.252105
0.22927
0.209172
0.191369
0.175413
0.160886
0.147412
0.13466
0.122399
0.110473
0.0987838
0.087336
0.0762688
0.065956
0.0573617
0.0525407
0.054396
0.0655732
0.0927658
0.14563
0.205842
0.241505
0.264278
0.641439
0.795376
0.86221
0.789732
0.683985
0.610321
0.59434
0.619799
0.695652
0.822473
0.973158
1.08824
1.123
1.09242
1.03901
0.995581
0.971974
0.967022
0.976401
0.994908
1.01813
1.04301
1.06726
1.08915
1.10746
1.12164
1.13199
1.13948
1.14551
1.15149
1.15847
1.16699
1.17706
1.18826
1.20021
1.21168
1.22174
1.22975
1.23547
1.23912
1.24139
1.24337
1.24641
1.25189
1.26096
1.2743
1.29194
1.31316
1.33651
1.35998
1.38118
1.3977
1.40738
1.40865
1.40074
1.38372
1.35838
1.32605
1.28827
1.24649
1.20202
1.15897
1.11784
1.07838
1.04079
1.00531
0.972173
0.941627
0.913931
0.889348
0.86813
0.850485
0.836515
0.826105
0.818738
0.813338
0.808203
0.80116
0.790105
0.773372
0.749157
0.71551
0.674916
0.633371
0.594748
0.558445
0.522561
0.489027
0.465228
0.461759
0.495569
0.579467
0.678699
0.714848
0.6841
0.659033
0.661774
0.68903
0.729963
0.77355
0.812147
0.841732
0.86239
0.877082
0.889404
0.901997
0.916128
0.931998
0.94923
0.968308
0.988869
1.01029
1.03199
1.05342
1.07388
1.09245
1.10775
1.11799
1.12113
1.11523
1.09834
1.07177
1.0398
1.00269
0.962351
0.920829
0.879861
0.840727
0.804216
0.770696
0.740242
0.712777
0.688208
0.666518
0.647737
0.631817
0.618237
0.604841
0.587536
0.564399
0.535689
0.503999
0.472694
0.444732
0.422063
0.404886
0.391292
0.378023
0.362219
0.342793
0.320281
0.296135
0.271738
0.24811
0.225884
0.205383
0.18672
0.169881
0.154785
0.141319
0.129355
0.118759
0.109389
0.101093
0.0937119
0.0870771
0.081003
0.0752737
0.0696755
0.064068
0.0584849
0.0536366
0.0520222
0.0581335
0.0773535
0.117664
0.178885
0.232837
0.264205
0.290406
0.689045
1.00921
1.05243
0.961463
0.863929
0.820252
0.812432
0.845392
0.904671
0.970278
1.0174
1.02914
1.00983
0.979134
0.95508
0.945914
0.951307
0.967472
0.990046
1.01505
1.0393
1.06032
1.07639
1.08671
1.09158
1.09231
1.09082
1.08915
1.089
1.09149
1.0971
1.10576
1.11696
1.12981
1.14179
1.15109
1.15611
1.15557
1.14868
1.13545
1.11683
1.0948
1.07219
1.05237
1.0387
1.03392
1.03965
1.05604
1.08178
1.11431
1.15019
1.18555
1.21655
1.2399
1.25333
1.2558
1.24756
1.22975
1.20403
1.17203
1.13685
1.10125
1.06549
1.03008
0.99546
0.961977
0.929954
0.89972
0.871634
0.846092
0.823513
0.804296
0.788761
0.777061
0.769054
0.764103
0.760868
0.757284
0.751151
0.741043
0.726302
0.705882
0.677992
0.643617
0.608178
0.577173
0.553746
0.540904
0.546467
0.584304
0.664599
0.755953
0.773949
0.705535
0.654599
0.6463
0.671142
0.714083
0.760333
0.798761
0.823966
0.836475
0.84057
0.841065
0.841413
0.843457
0.8479
0.854789
0.863812
0.87472
0.886671
0.899037
0.911422
0.923607
0.93537
0.946211
0.955071
0.960227
0.959574
0.950918
0.93267
0.90811
0.878011
0.84369
0.807143
0.770366
0.735026
0.702276
0.672719
0.646497
0.623467
0.60338
0.58605
0.571454
0.559744
0.551181
0.545927
0.543605
0.541501
0.536435
0.525397
0.506999
0.482602
0.455278
0.427827
0.401827
0.377668
0.354924
0.332888
0.311054
0.289266
0.267619
0.246311
0.225577
0.205667
0.186814
0.169215
0.153005
0.138257
0.124987
0.113169
0.102743
0.0936347
0.0857524
0.0789959
0.0732525
0.0683877
0.0642331
0.0605939
0.0572896
0.0542509
0.0521016
0.0535488
0.064173
0.0917935
0.141094
0.201702
0.24894
0.282317
0.308708
0.717036
1.2093
1.25784
1.1481
1.03495
0.955207
0.922475
0.920324
0.931172
0.941565
0.943438
0.936145
0.925753
0.920067
0.923723
0.937019
0.957421
0.981492
1.00584
1.02749
1.04417
1.05465
1.05897
1.05836
1.0549
1.05098
1.04882
1.05012
1.0559
1.06646
1.08145
1.09999
1.12079
1.14235
1.16273
1.17969
1.1907
1.19313
1.18458
1.16331
1.12878
1.08221
1.02698
0.968569
0.913849
0.869766
0.841747
0.832547
0.841967
0.867395
0.904672
0.94873
0.994098
1.03548
1.06853
1.09038
1.10007
1.09816
1.08615
1.06635
1.04239
1.01571
0.987365
0.958148
0.928629
0.899251
0.870384
0.842385
0.815636
0.790576
0.76769
0.74748
0.730401
0.71678
0.706733
0.700057
0.696095
0.693624
0.690997
0.686658
0.679646
0.669226
0.654078
0.6325
0.607611
0.586158
0.575103
0.580576
0.612088
0.683568
0.785594
0.836101
0.762279
0.666366
0.634595
0.649837
0.690885
0.738722
0.778657
0.802959
0.811597
0.809378
0.801955
0.793547
0.786644
0.782501
0.78156
0.783676
0.788329
0.794387
0.800597
0.806252
0.811135
0.81546
0.819627
0.82379
0.827377
0.828847
0.825963
0.816284
0.799841
0.777699
0.75041
0.71955
0.687101
0.655026
0.624921
0.597798
0.574039
0.553513
0.535787
0.520361
0.506867
0.495207
0.485589
0.478496
0.474563
0.474424
0.477911
0.482449
0.485079
0.482719
0.473473
0.457626
0.437292
0.415004
0.392547
0.370703
0.349537
0.328783
0.308127
0.287363
0.266448
0.245509
0.224807
0.20467
0.185426
0.167349
0.150636
0.135406
0.121708
0.109538
0.0988529
0.0895826
0.0816367
0.0749097
0.0692825
0.0646197
0.0607773
0.0576325
0.0551906
0.0542164
0.0578099
0.072408
0.106131
0.160187
0.216942
0.260704
0.296943
0.318553
0.714687
1.38097
1.43632
1.29729
1.13161
1.01697
0.952982
0.920731
0.905221
0.897671
0.894073
0.893917
0.898661
0.909695
0.926918
0.948591
0.971959
0.99395
1.01176
1.02344
1.02831
1.02705
1.02143
1.01388
1.00696
1.00296
1.0036
1.00994
1.0223
1.0404
1.06345
1.09026
1.11925
1.151
1.1842
1.21654
1.24504
1.26614
1.27582
1.26997
1.24485
1.19791
1.12897
1.04169
0.944429
0.849536
0.770125
0.71578
0.689922
0.690494
0.712624
0.750409
0.79741
0.846822
0.892263
0.928621
0.953069
0.965002
0.965636
0.957842
0.944278
0.926647
0.906182
0.88379
0.860144
0.835761
0.811053
0.786385
0.762125
0.738684
0.716536
0.696201
0.6782
0.662985
0.650876
0.642019
0.636326
0.633359
0.63223
0.631717
0.630651
0.628096
0.622804
0.613317
0.600202
0.588998
0.588601
0.609092
0.662461
0.756677
0.851134
0.840578
0.718306
0.636388
0.629274
0.662491
0.710482
0.753907
0.781418
0.79095
0.786904
0.775451
0.761603
0.748593
0.738304
0.731707
0.729017
0.72976
0.732943
0.736662
0.739297
0.739981
0.73862
0.735885
0.732908
0.730689
0.729325
0.727607
0.723178
0.71413
0.700166
0.680974
0.657284
0.630587
0.602786
0.575798
0.551148
0.529709
0.511635
0.496496
0.483532
0.471941
0.461119
0.450808
0.441149
0.432667
0.426217
0.422967
0.424316
0.429433
0.436431
0.442646
0.445324
0.442573
0.434039
0.420844
0.4048
0.387469
0.369655
0.351463
0.332657
0.313011
0.292488
0.271283
0.249767
0.228395
0.207624
0.187839
0.169331
0.15229
0.136819
0.122953
0.110676
0.0999308
0.090633
0.0826753
0.075937
0.0702903
0.0656157
0.0618424
0.059085
0.0583041
0.0629182
0.080087
0.118277
0.174622
0.228024
0.270434
0.307146
0.321634
0.67018
1.44902
1.50539
1.35304
1.17365
1.04073
0.959478
0.914433
0.891973
0.88369
0.884852
0.892995
0.906833
0.925195
0.946285
0.967539
0.986001
0.998995
1.00479
1.00301
0.994586
0.981495
0.96627
0.951566
0.939764
0.932692
0.931498
0.936676
0.948213
0.965778
0.988878
1.01689
1.04929
1.08808
1.13205
1.17919
1.22662
1.27064
1.30684
1.33027
1.33561
1.31729
1.26998
1.19033
1.08022
0.950452
0.820678
0.712598
0.639875
0.603899
0.599052
0.618235
0.654587
0.700734
0.74909
0.79265
0.826225
0.847778
0.858179
0.860095
0.855513
0.84602
0.83285
0.816947
0.799037
0.779687
0.759352
0.738411
0.717212
0.696118
0.675542
0.655962
0.63789
0.62182
0.60819
0.597386
0.589768
0.585595
0.584792
0.586707
0.590196
0.593967
0.596686
0.596895
0.593766
0.591011
0.598621
0.630397
0.699377
0.801223
0.868119
0.808666
0.677799
0.618821
0.63249
0.676319
0.723741
0.757932
0.772899
0.771339
0.759471
0.743069
0.726175
0.711345
0.700139
0.693344
0.690935
0.692057
0.695182
0.697893
0.698258
0.695196
0.68864
0.679632
0.670006
0.661688
0.655527
0.650765
0.645264
0.637413
0.625726
0.609778
0.590068
0.567871
0.544966
0.52321
0.504086
0.488354
0.475957
0.466173
0.457918
0.450103
0.441901
0.432903
0.423144
0.413068
0.40351
0.395719
0.391616
0.39206
0.396575
0.403669
0.411102
0.416503
0.418061
0.41502
0.407697
0.39703
0.383931
0.368916
0.352132
0.33362
0.313528
0.292189
0.270098
0.24783
0.225945
0.204923
0.185132
0.166819
0.150123
0.135101
0.121746
0.110002
0.099778
0.0909585
0.0834113
0.0769989
0.0715986
0.0671604
0.0638832
0.0629174
0.0679948
0.0868668
0.128014
0.18523
0.236605
0.278463
0.312743
0.320921
0.637617
1.39361
1.47312
1.3441
1.17486
1.04257
0.959847
0.915211
0.895828
0.892773
0.900335
0.914828
0.933585
0.954089
0.973514
0.988839
0.997416
0.997586
0.989023
0.972705
0.950639
0.925458
0.899992
0.876829
0.857964
0.844619
0.837298
0.836022
0.840657
0.851195
0.867869
0.891084
0.92291
0.964313
1.01478
1.07265
1.1351
1.19823
1.25731
1.30718
1.34261
1.35818
1.34754
1.30284
1.21681
1.08941
0.935462
0.784422
0.665807
0.590688
0.5549
0.54985
0.568283
0.602974
0.645965
0.689791
0.725601
0.752068
0.769274
0.778367
0.780807
0.777961
0.770958
0.760699
0.747904
0.733157
0.716942
0.699659
0.681651
0.663237
0.644759
0.626609
0.609238
0.593115
0.578706
0.566528
0.557257
0.551755
0.550768
0.554373
0.561657
0.570978
0.58044
0.588119
0.592177
0.595099
0.60794
0.647055
0.723779
0.819528
0.85391
0.767193
0.64806
0.610028
0.638258
0.686629
0.729259
0.753694
0.75895
0.750356
0.734283
0.715657
0.697749
0.682688
0.671815
0.665731
0.664175
0.66594
0.669097
0.671096
0.66983
0.664027
0.653511
0.639493
0.624337
0.610735
0.600371
0.592948
0.586793
0.57972
0.5702
0.557509
0.541802
0.524057
0.505883
0.489097
0.475173
0.464795
0.457704
0.452879
0.448938
0.444564
0.438815
0.431242
0.421847
0.410992
0.399357
0.388004
0.378612
0.372921
0.371741
0.374954
0.381414
0.389217
0.396225
0.400629
0.401331
0.397998
0.390797
0.380052
0.366075
0.349198
0.329851
0.308605
0.286139
0.26317
0.240376
0.218337
0.197499
0.178171
0.160533
0.144665
0.130563
0.118166
0.107369
0.098037
0.0900176
0.0831502
0.0772907
0.0723784
0.068652
0.0674149
0.072674
0.0925917
0.1354
0.192784
0.243091
0.284304
0.314969
0.318822
0.643181
1.2846
1.38497
1.29135
1.14816
1.03035
0.956615
0.919761
0.908214
0.912926
0.92763
0.947813
0.969751
0.989914
1.0049
1.01186
1.00896
0.995723
0.972978
0.942675
0.907554
0.870739
0.835226
0.803368
0.776558
0.755234
0.739179
0.727991
0.721586
0.720594
0.726472
0.741268
0.768974
0.80978
0.863395
0.928368
1.00201
1.08032
1.15805
1.2292
1.28798
1.32947
1.34914
1.33997
1.29091
1.19186
1.04537
0.876556
0.727009
0.61997
0.556551
0.527998
0.526895
0.546738
0.579097
0.615871
0.650336
0.678652
0.699496
0.71313
0.720488
0.722622
0.72047
0.714816
0.706318
0.695541
0.682977
0.669045
0.654093
0.638415
0.622287
0.606007
0.589925
0.574431
0.559951
0.547021
0.536501
0.529736
0.528296
0.533159
0.54387
0.558466
0.574047
0.587498
0.596022
0.601846
0.617286
0.65973
0.736626
0.817943
0.824721
0.728819
0.628001
0.606472
0.641962
0.69109
0.728327
0.744836
0.743625
0.731075
0.713087
0.69379
0.675917
0.661307
0.651093
0.645635
0.644428
0.646024
0.648516
0.649482
0.646859
0.639261
0.626288
0.609031
0.590222
0.572718
0.559526
0.550148
0.543172
0.536748
0.529274
0.519718
0.507817
0.494196
0.480286
0.467896
0.458533
0.45281
0.45023
0.449443
0.448786
0.446834
0.442707
0.436112
0.427189
0.416314
0.404006
0.39099
0.378355
0.36773
0.360695
0.358301
0.360655
0.366807
0.375001
0.383149
0.389326
0.392113
0.390697
0.38477
0.374406
0.359967
0.342062
0.321474
0.299082
0.275773
0.252363
0.229542
0.207848
0.187663
0.169223
0.152639
0.137926
0.12502
0.113807
0.104132
0.0958202
0.0886841
0.0825496
0.0773241
0.0732447
0.0717185
0.0769521
0.0973097
0.140695
0.197786
0.247459
0.287679
0.314735
0.316454
0.63928
1.15493
1.27291
1.21847
1.10804
1.01088
0.950318
0.923798
0.921686
0.935232
0.957757
0.983918
1.00901
1.02875
1.03957
1.03907
1.02626
1.00152
0.966512
0.923889
0.87705
0.829615
0.784738
0.744485
0.709587
0.67965
0.653695
0.630872
0.611259
0.596563
0.590229
0.596727
0.620674
0.660484
0.715371
0.783885
0.86377
0.951568
1.04223
1.12919
1.20545
1.2651
1.30481
1.32043
1.30171
1.23413
1.11061
0.945777
0.786629
0.662354
0.579898
0.532875
0.514066
0.517992
0.538247
0.567136
0.597599
0.624871
0.6467
0.662608
0.672999
0.678555
0.679969
0.677863
0.672802
0.665305
0.655851
0.644867
0.63271
0.619662
0.605951
0.591786
0.577404
0.563083
0.549153
0.536086
0.524782
0.516908
0.514803
0.520503
0.534314
0.554074
0.575517
0.593581
0.604419
0.6108
0.626405
0.668428
0.739724
0.803659
0.791069
0.697383
0.615054
0.604961
0.64298
0.689459
0.721562
0.733361
0.728795
0.714398
0.695864
0.676704
0.659297
0.645256
0.635482
0.629989
0.628001
0.628219
0.62913
0.628607
0.624792
0.616255
0.602339
0.583559
0.563381
0.544556
0.529464
0.51859
0.511057
0.505355
0.499887
0.493312
0.484907
0.474922
0.464635
0.455899
0.450283
0.448284
0.449071
0.450902
0.451893
0.450678
0.446675
0.439973
0.431026
0.42036
0.408417
0.395583
0.382252
0.36927
0.358301
0.35102
0.348577
0.351134
0.35775
0.366626
0.37557
0.382484
0.385722
0.384252
0.377674
0.366147
0.350271
0.330934
0.309163
0.285995
0.262379
0.239122
0.216856
0.19604
0.176972
0.159805
0.144581
0.131246
0.119686
0.109736
0.101203
0.0938801
0.0875639
0.0821203
0.077754
0.0759204
0.0809284
0.101157
0.144212
0.200557
0.249656
0.288571
0.312806
0.31414
0.624043
1.02717
1.16102
1.14349
1.06577
0.989513
0.941617
0.924455
0.930966
0.953053
0.983696
1.01672
1.04649
1.06812
1.0779
1.07373
1.05506
1.02276
0.978887
0.926583
0.869821
0.8128
0.759061
0.710719
0.668217
0.630651
0.596448
0.56421
0.533663
0.50659
0.4883
0.489964
0.513702
0.554135
0.609433
0.678163
0.758749
0.848698
0.943845
1.03802
1.12386
1.19397
1.24448
1.2733
1.27196
1.2257
1.12468
0.980581
0.82736
0.697861
0.60479
0.545082
0.513243
0.505045
0.515115
0.536376
0.56188
0.586563
0.607681
0.624239
0.636189
0.643864
0.647703
0.648163
0.64571
0.640808
0.633915
0.625453
0.615784
0.605183
0.593842
0.581899
0.569482
0.556745
0.543894
0.531283
0.519723
0.511009
0.508093
0.514149
0.530583
0.555321
0.582568
0.604612
0.616339
0.621478
0.635079
0.673502
0.735572
0.782679
0.758463
0.672772
0.606296
0.603047
0.640258
0.682868
0.710898
0.720023
0.714387
0.70009
0.682034
0.663441
0.646568
0.63293
0.623186
0.616932
0.613172
0.611141
0.609932
0.607487
0.602332
0.593322
0.57977
0.562034
0.542111
0.522951
0.507086
0.495519
0.487915
0.483183
0.479784
0.476051
0.470785
0.463872
0.456499
0.45063
0.447892
0.448552
0.451307
0.453985
0.454606
0.452104
0.44643
0.438222
0.428357
0.417596
0.406395
0.394905
0.382906
0.370299
0.358248
0.348365
0.342326
0.341232
0.345128
0.352896
0.362545
0.371714
0.378194
0.380318
0.37716
0.368548
0.354937
0.337208
0.316463
0.293843
0.27041
0.24707
0.224546
0.203368
0.183892
0.166317
0.150711
0.137042
0.1252
0.115022
0.106309
0.0988417
0.0923974
0.0868015
0.0822079
0.0800609
0.084662
0.104259
0.146229
0.201353
0.249716
0.287128
0.309535
0.311613
0.594317
0.899937
1.0555
1.074
1.02686
0.969596
0.931702
0.920776
0.933168
0.962009
1.00023
1.04098
1.0778
1.10508
1.11876
1.11653
1.09782
1.0636
1.01597
0.958145
0.894383
0.829404
0.767386
0.711034
0.661231
0.617354
0.578024
0.542017
0.509209
0.481133
0.461476
0.46222
0.483016
0.52044
0.57206
0.636352
0.712058
0.797222
0.888348
0.979876
1.0646
1.13586
1.1898
1.22356
1.22986
1.19516
1.10893
0.979505
0.836732
0.711619
0.61717
0.552224
0.513458
0.49803
0.501305
0.516736
0.537776
0.559525
0.579148
0.595387
0.607875
0.616661
0.621971
0.624127
0.623513
0.620556
0.615692
0.609334
0.601836
0.593465
0.584386
0.574678
0.564374
0.553512
0.542168
0.530552
0.519311
0.51017
0.506446
0.512375
0.530767
0.560118
0.593223
0.619194
0.631185
0.633862
0.64361
0.675919
0.726854
0.759262
0.729217
0.653555
0.599531
0.599593
0.633962
0.672456
0.697596
0.705667
0.700341
0.686979
0.669937
0.652273
0.636194
0.623064
0.613081
0.605527
0.599587
0.59502
0.591493
0.587356
0.581308
0.572427
0.559857
0.5435
0.524729
0.506205
0.490508
0.478996
0.471868
0.468466
0.46728
0.466281
0.463781
0.459353
0.454193
0.450444
0.449734
0.45193
0.455111
0.45672
0.454915
0.449196
0.440223
0.429248
0.417563
0.40615
0.395526
0.38572
0.376104
0.365849
0.355345
0.345612
0.338218
0.334762
0.336159
0.342153
0.351298
0.361343
0.369815
0.374583
0.374243
0.368251
0.356846
0.340825
0.321301
0.299478
0.276498
0.253351
0.230831
0.209533
0.189862
0.172055
0.156211
0.142314
0.130269
0.119918
0.111065
0.10349
0.0969599
0.0912715
0.0865214
0.084084
0.0881415
0.106693
0.146965
0.200416
0.247776
0.283598
0.304925
0.308456
0.544223
0.772735
0.935957
0.997329
0.986721
0.951491
0.923773
0.916676
0.931228
0.963094
1.00605
1.05316
1.09751
1.13288
1.1546
1.1599
1.14783
1.11895
1.07497
1.01876
0.954285
0.886204
0.819041
0.75626
0.69978
0.650094
0.606853
0.569623
0.538568
0.514891
0.501454
0.504698
0.522831
0.554777
0.599568
0.656364
0.724065
0.800762
0.883157
0.966134
1.04315
1.10816
1.15736
1.18754
1.19134
1.15605
1.07286
0.951311
0.81946
0.703677
0.61377
0.549337
0.50911
0.491229
0.491331
0.503256
0.521032
0.540239
0.558235
0.573698
0.586077
0.595226
0.601229
0.604326
0.604862
0.603247
0.599908
0.595249
0.589612
0.583245
0.576286
0.568763
0.560633
0.551824
0.542299
0.532126
0.52176
0.512711
0.508359
0.513761
0.533277
0.566596
0.60565
0.636176
0.648756
0.648459
0.652937
0.677234
0.716201
0.736275
0.704031
0.638243
0.593459
0.594366
0.624805
0.659331
0.682525
0.690655
0.686533
0.674689
0.659051
0.642551
0.627306
0.614499
0.604152
0.595461
0.587663
0.580941
0.57555
0.57025
0.563782
0.555157
0.543489
0.528445
0.51102
0.493561
0.47858
0.467686
0.461557
0.459895
0.461119
0.462758
0.46264
0.460122
0.456534
0.454251
0.454783
0.457377
0.459409
0.458114
0.452093
0.441649
0.42823
0.41365
0.399522
0.386964
0.376526
0.368183
0.36113
0.354144
0.346883
0.339559
0.333158
0.329237
0.329234
0.333702
0.341918
0.352026
0.361569
0.368154
0.370001
0.366216
0.356795
0.34241
0.324141
0.30322
0.280843
0.258062
0.235732
0.214496
0.194801
0.176915
0.160959
0.146939
0.134768
0.124301
0.11535
0.1077
0.101121
0.0953935
0.0905618
0.0878824
0.0913132
0.108502
0.146591
0.19799
0.244071
0.278296
0.298907
0.304212
0.449107
0.669296
0.811972
0.899923
0.930141
0.924997
0.912328
0.909958
0.924569
0.955823
0.999711
1.05034
1.10105
1.14541
1.17816
1.19574
1.19643
1.18005
1.14763
1.10135
1.0444
0.980823
0.914924
0.850582
0.790703
0.737081
0.690647
0.651895
0.62129
0.599671
0.589439
0.59328
0.609812
0.638232
0.677855
0.727946
0.787341
0.854005
0.92462
0.994365
1.05753
1.10924
1.14638
1.1652
1.1574
1.11114
1.02177
0.903239
0.782131
0.677769
0.595522
0.535741
0.498599
0.482326
0.482375
0.492941
0.508785
0.526146
0.542725
0.557256
0.569109
0.578048
0.584101
0.587492
0.58857
0.587756
0.58548
0.582142
0.578066
0.573477
0.568479
0.563053
0.557087
0.550419
0.542905
0.534497
0.525469
0.517037
0.512371
0.516961
0.53665
0.572945
0.617976
0.654478
0.669019
0.66606
0.664338
0.679197
0.705848
0.715475
0.682855
0.625694
0.587465
0.587614
0.613623
0.644403
0.666253
0.675119
0.67279
0.662943
0.649083
0.633984
0.619649
0.607165
0.596579
0.587173
0.578311
0.570374
0.563842
0.557787
0.551042
0.542568
0.531465
0.517343
0.501016
0.484613
0.470559
0.460666
0.456018
0.456531
0.460374
0.464536
0.466396
0.465237
0.462674
0.461324
0.462378
0.464246
0.463628
0.457843
0.446251
0.430109
0.411625
0.393066
0.37623
0.362263
0.35168
0.344413
0.339631
0.335987
0.332615
0.329004
0.32537
0.322804
0.322832
0.326571
0.334015
0.343867
0.353912
0.361688
0.365165
0.363162
0.355437
0.342523
0.325443
0.305431
0.283718
0.261399
0.239374
0.218326
0.198731
0.180881
0.164918
0.150859
0.138631
0.128101
0.11909
0.111396
0.104796
0.0990701
0.0942206
0.0913552
0.0941206
0.109717
0.145247
0.194297
0.238897
0.271558
0.291522
0.298505
0.294195
0.60179
0.719564
0.796395
0.846625
0.871773
0.882137
0.890982
0.908011
0.937491
0.979208
1.02987
1.08432
1.13669
1.18149
1.2144
1.23268
1.23512
1.22181
1.19399
1.15384
1.10439
1.04917
0.991826
0.935653
0.883317
0.836811
0.797551
0.766564
0.744776
0.734403
0.735192
0.747021
0.76948
0.801895
0.843225
0.891846
0.945305
1.00008
1.05167
1.09547
1.12817
1.14724
1.14774
1.1201
1.05491
0.95482
0.839084
0.729798
0.637604
0.564922
0.513233
0.482883
0.471263
0.473509
0.484341
0.499388
0.515593
0.531025
0.544537
0.55552
0.563751
0.569295
0.572418
0.573515
0.573033
0.571419
0.569065
0.56628
0.563258
0.560064
0.556634
0.552789
0.548286
0.542886
0.53644
0.529074
0.521706
0.517093
0.520701
0.539508
0.577275
0.627814