/*--------------------------------*- C++ -*----------------------------------*\
| =========                 |                                                 |
| \\      /  F ield         | OpenFOAM: The Open Source CFD Toolbox           |
|  \\    /   O peration     | Version:  2112                                  |
|   \\  /    A nd           | Website:  www.openfoam.com                      |
|    \\/     M anipulation  |                                                 |
\*---------------------------------------------------------------------------*/
FoamFile
{
    version     2.0;
    format      ascii;
    arch        "LSB;label=32;scalar=64";
    class       volVectorField;
    location    "0.027";
    object      U;
}
// * * * * * * * * * * * * * * * * * * * * * * * * * * * * * * * * * * * * * //

dimensions      [0 1 -1 0 0 0 0];

internalField   nonuniform List<vector> 
12225
(
(10.0937 0.0486418 0)
(9.58121 0.0988179 0)
(9.15928 0.0565322 0)
(8.87233 0.0400496 0)
(8.63706 0.0550963 0)
(8.37042 0.0743378 0)
(8.06465 0.0760042 0)
(7.76735 0.0587725 0)
(7.51614 0.0386799 0)
(7.31525 0.0330507 0)
(7.11477 0.0475695 0)
(6.88061 0.0767621 0)
(6.55452 0.10158 0)
(6.1967 0.114618 0)
(5.76844 0.117967 0)
(5.37006 0.113954 0)
(4.8764 0.126803 0)
(4.51238 0.137082 0)
(10.3256 0.0942532 0)
(10.4065 0.11676 0)
(10.2363 0.100008 0)
(10.092 0.0727378 0)
(10.0777 0.0568847 0)
(10.119 0.0616659 0)
(10.1442 0.0769529 0)
(10.1187 0.0886484 0)
(10.0283 0.089499 0)
(9.89556 0.0854258 0)
(9.74936 0.0852925 0)
(9.62597 0.0968499 0)
(9.52208 0.120682 0)
(9.44343 0.145992 0)
(9.35547 0.172015 0)
(9.27795 0.204399 0)
(9.14036 0.229782 0)
(9.01119 0.277654 0)
(10.1072 0.0610683 0)
(10.0339 0.149205 0)
(10.0533 0.140513 0)
(10.1268 0.0805272 0)
(10.122 0.0522746 0)
(10.0488 0.0635113 0)
(9.98854 0.0836176 0)
(9.96945 0.0961464 0)
(9.96413 0.103579 0)
(9.94529 0.113662 0)
(9.90885 0.127827 0)
(9.86983 0.146145 0)
(9.84671 0.164253 0)
(9.84523 0.178211 0)
(9.85405 0.190993 0)
(9.8633 0.210528 0)
(9.8669 0.24422 0)
(9.85706 0.303189 0)
(9.81873 0.120575 0)
(9.86826 0.146557 0)
(9.95945 0.0745091 0)
(10.0141 0.0467596 0)
(10.0004 0.0699719 0)
(9.97152 0.094455 0)
(9.96802 0.0984084 0)
(9.97894 0.0939537 0)
(9.97436 0.0956869 0)
(9.94307 0.105523 0)
(9.89756 0.117958 0)
(9.85883 0.129044 0)
(9.84274 0.139514 0)
(9.85355 0.151166 0)
(9.87907 0.167626 0)
(9.9091 0.200351 0)
(9.93368 0.247158 0)
(9.94894 0.309343 0)
(9.90025 0.0198445 0)
(10.1009 0.116003 0)
(10.2377 0.0995605 0)
(10.2311 0.0752357 0)
(10.1568 0.0714246 0)
(10.0993 0.0746188 0)
(10.0791 0.0810588 0)
(10.0736 0.0959331 0)
(10.0589 0.119324 0)
(10.0296 0.143649 0)
(9.99066 0.159709 0)
(9.95054 0.164086 0)
(9.91561 0.16129 0)
(9.89265 0.158414 0)
(9.87987 0.165029 0)
(9.87778 0.191037 0)
(9.88167 0.23531 0)
(9.89367 0.298658 0)
(9.94811 0.102313 0)
(10.0146 0.0708381 0)
(10.042 0.0461511 0)
(10.0625 0.0667291 0)
(10.0846 0.104942 0)
(10.1102 0.119547 0)
(10.1317 0.111729 0)
(10.1321 0.103848 0)
(10.1067 0.109672 0)
(10.068 0.126819 0)
(10.0306 0.145732 0)
(10.0009 0.159801 0)
(9.97583 0.168342 0)
(9.95204 0.174988 0)
(9.9248 0.185356 0)
(9.89814 0.207235 0)
(9.87447 0.242497 0)
(9.86373 0.292724 0)
(10.1933 0.0672097 0)
(10.1559 0.0855209 0)
(10.0938 0.0878181 0)
(10.0782 0.0679625 0)
(10.0958 0.0531774 0)
(10.1313 0.0490154 0)
(10.1667 0.0653795 0)
(10.1794 0.102535 0)
(10.1634 0.145965 0)
(10.1308 0.178266 0)
(10.0965 0.191441 0)
(10.0661 0.18919 0)
(10.0377 0.18141 0)
(10.0081 0.178537 0)
(9.97455 0.187404 0)
(9.93843 0.212761 0)
(9.90274 0.253259 0)
(9.87351 0.305502 0)
(9.88305 0.10052 0)
(9.99698 0.0876584 0)
(10.1016 0.062689 0)
(10.1537 0.0716937 0)
(10.1935 0.0951416 0)
(10.2261 0.103294 0)
(10.2367 0.102572 0)
(10.2225 0.109528 0)
(10.195 0.128039 0)
(10.1672 0.15144 0)
(10.1444 0.172573 0)
(10.1226 0.188879 0)
(10.0983 0.201728 0)
(10.0673 0.214681 0)
(10.0336 0.23062 0)
(9.99741 0.253277 0)
(9.96777 0.282954 0)
(9.94318 0.320152 0)
(9.8245 0.011862 0)
(10.0145 0.00272283 0)
(10.0555 0.0260133 0)
(9.98812 0.0357652 0)
(9.93838 0.0179147 0)
(9.94748 0.0174989 0)
(9.99799 0.0576639 0)
(10.0598 0.119974 0)
(10.1159 0.175471 0)
(10.161 0.207592 0)
(10.1912 0.216533 0)
(10.2012 0.211834 0)
(10.1913 0.205627 0)
(10.1658 0.20662 0)
(10.136 0.219598 0)
(10.1092 0.24496 0)
(10.0932 0.28046 0)
(10.091 0.323417 0)
(10.0008 -0.0380108 0)
(9.99448 0.0177622 0)
(9.95718 0.0840801 0)
(9.95167 0.130379 0)
(9.97412 0.127339 0)
(10.015 0.0914405 0)
(10.06 0.0602286 0)
(10.0955 0.0525889 0)
(10.1164 0.068539 0)
(10.1218 0.101993 0)
(10.1107 0.145417 0)
(10.0825 0.189802 0)
(10.0402 0.228082 0)
(9.99252 0.256228 0)
(9.94722 0.273695 0)
(9.91666 0.285927 0)
(9.90077 0.294985 0)
(9.91067 0.311008 0)
(9.93251 -0.0449988 0)
(9.97079 0.000715028 0)
(10.0389 0.017759 0)
(10.1056 0.0159943 0)
(10.1387 -0.0266785 0)
(10.1556 -0.0403852 0)
(10.1695 0.0106509 0)
(10.1702 0.0969799 0)
(10.1499 0.176097 0)
(10.1196 0.226983 0)
(10.0952 0.250674 0)
(10.0872 0.257409 0)
(10.0932 0.257897 0)
(10.1085 0.259464 0)
(10.1217 0.264784 0)
(10.1274 0.275003 0)
(10.1231 0.288471 0)
(10.1063 0.304575 0)
(10.2017 -0.136187 0)
(10.2217 -0.0468939 0)
(10.3104 0.0470406 0)
(10.3492 0.111788 0)
(10.2499 0.113903 0)
(10.0681 0.0811467 0)
(9.92277 0.0582067 0)
(9.87106 0.0625588 0)
(9.89954 0.088658 0)
(9.97049 0.123606 0)
(10.0503 0.158032 0)
(10.1211 0.188708 0)
(10.1738 0.215939 0)
(10.2093 0.240431 0)
(10.2269 0.263451 0)
(10.2307 0.284331 0)
(10.2206 0.305744 0)
(10.2007 0.325655 0)
(9.92564 -0.0565034 0)
(9.99881 -0.0776338 0)
(10.1644 -0.0483401 0)
(10.2922 0.0204862 0)
(10.3242 0.0770105 0)
(10.2873 0.100525 0)
(10.2283 0.105533 0)
(10.1744 0.114387 0)
(10.1386 0.134169 0)
(10.1231 0.157882 0)
(10.1216 0.177059 0)
(10.1258 0.19076 0)
(10.1307 0.203714 0)
(10.1347 0.221476 0)
(10.1351 0.246761 0)
(10.1314 0.277824 0)
(10.1181 0.313111 0)
(10.1012 0.348366 0)
(10.2079 -0.134307 0)
(10.1203 -0.124294 0)
(10.0238 -0.0580931 0)
(9.97148 0.0680999 0)
(9.91156 0.145834 0)
(9.8601 0.151725 0)
(9.84012 0.12692 0)
(9.85836 0.106522 0)
(9.90816 0.102777 0)
(9.97174 0.115255 0)
(10.0268 0.140175 0)
(10.0576 0.172784 0)
(10.0622 0.207699 0)
(10.0495 0.241725 0)
(10.0305 0.273297 0)
(10.0123 0.303357 0)
(9.99694 0.332633 0)
(9.98526 0.36222 0)
(10.1898 0.0158793 0)
(10.0986 0.0524022 0)
(9.98485 0.0433622 0)
(9.946 0.0638581 0)
(9.95176 0.10891 0)
(9.98064 0.123528 0)
(10.0222 0.0956494 0)
(10.0574 0.0602278 0)
(10.0717 0.0502236 0)
(10.0641 0.0740569 0)
(10.0439 0.120274 0)
(10.0248 0.171561 0)
(10.018 0.216157 0)
(10.0289 0.251288 0)
(10.0543 0.28128 0)
(10.0836 0.30987 0)
(10.1097 0.341343 0)
(10.1217 0.374761 0)
(10.0326 -0.0152306 0)
(10.1359 -0.0633781 0)
(10.1673 0.0607078 0)
(10.13 0.126433 0)
(10.0821 0.127899 0)
(10.0807 0.100687 0)
(10.1164 0.0765077 0)
(10.1454 0.0788501 0)
(10.1394 0.109499 0)
(10.1024 0.151091 0)
(10.0544 0.183074 0)
(10.0118 0.195638 0)
(9.98435 0.193297 0)
(9.97351 0.188746 0)
(9.97678 0.19658 0)
(9.99006 0.2239 0)
(10.0066 0.271578 0)
(10.0282 0.33475 0)
(10.1097 -0.0523427 0)
(10.0404 -0.0595396 0)
(9.99399 0.0645621 0)
(9.98279 0.1603 0)
(10.0377 0.149824 0)
(10.0896 0.0772055 0)
(10.1093 0.0187894 0)
(10.1089 0.0207817 0)
(10.1058 0.0794639 0)
(10.1068 0.158986 0)
(10.1089 0.22522 0)
(10.1022 0.264143 0)
(10.0798 0.278432 0)
(10.042 0.280152 0)
(9.99542 0.278661 0)
(9.95145 0.284198 0)
(9.91794 0.296773 0)
(9.90559 0.320831 0)
(10.2229 -0.04129 0)
(10.2076 0.114958 0)
(10.1539 0.0882305 0)
(10.1551 0.0162198 0)
(10.2017 -0.00926132 0)
(10.2324 0.0190725 0)
(10.2164 0.0681862 0)
(10.1787 0.10931 0)
(10.148 0.136976 0)
(10.1383 0.161823 0)
(10.1514 0.194374 0)
(10.1788 0.237101 0)
(10.2076 0.283756 0)
(10.2286 0.326189 0)
(10.2382 0.354616 0)
(10.2373 0.366568 0)
(10.2315 0.361775 0)
(10.2237 0.34608 0)
(9.88438 -0.0106127 0)
(10.0578 0.0977527 0)
(10.103 0.210252 0)
(10.0647 0.172766 0)
(9.99008 0.0993692 0)
(9.91729 0.0673675 0)
(9.88654 0.077673 0)
(9.89153 0.103799 0)
(9.91406 0.123776 0)
(9.94596 0.130867 0)
(9.98076 0.131614 0)
(10.0118 0.137858 0)
(10.0373 0.157477 0)
(10.0607 0.191397 0)
(10.087 0.233167 0)
(10.1184 0.27453 0)
(10.1553 0.308431 0)
(10.1958 0.331122 0)
(9.97918 -0.0303052 0)
(9.93791 -0.142508 0)
(9.94522 -0.00285421 0)
(10.0567 0.1311 0)
(10.191 0.176489 0)
(10.269 0.166394 0)
(10.303 0.126543 0)
(10.3269 0.0802244 0)
(10.3472 0.0499395 0)
(10.3589 0.050755 0)
(10.3603 0.0845403 0)
(10.3524 0.138596 0)
(10.3387 0.191802 0)
(10.3263 0.22604 0)
(10.3217 0.231958 0)
(10.327 0.214131 0)
(10.34 0.180208 0)
(10.3573 0.14567 0)
(10.3118 0.00849802 0)
(10.1466 0.161204 0)
(10.0779 0.0821012 0)
(10.0836 -0.0516228 0)
(10.1289 -0.0919518 0)
(10.1341 -0.0507263 0)
(10.1089 0.00459101 0)
(10.0933 0.0368381 0)
(10.0961 0.0543367 0)
(10.1176 0.0782691 0)
(10.1564 0.114455 0)
(10.2046 0.15457 0)
(10.2505 0.188085 0)
(10.287 0.208735 0)
(10.3122 0.217406 0)
(10.328 0.218734 0)
(10.3361 0.217098 0)
(10.3418 0.215008 0)
(9.8836 0.149498 0)
(10.034 0.148901 0)
(10.149 0.0248354 0)
(10.1676 0.0187914 0)
(10.1356 0.0906804 0)
(10.0672 0.149262 0)
(9.99552 0.151069 0)
(9.94522 0.0982343 0)
(9.92765 0.02953 0)
(9.9469 -0.0132275 0)
(9.99943 -0.00888454 0)
(10.0711 0.03491 0)
(10.1401 0.0941901 0)
(10.1906 0.14849 0)
(10.22 0.18079 0)
(10.2352 0.187695 0)
(10.2431 0.170475 0)
(10.2552 0.140526 0)
(9.99453 0.105963 0)
(10.0267 0.00569953 0)
(9.99242 -0.0345257 0)
(9.89664 -0.00710456 0)
(9.85934 0.0483009 0)
(9.9121 0.108971 0)
(10.0154 0.135647 0)
(10.1113 0.107184 0)
(10.1617 0.0411837 0)
(10.17 -0.0226983 0)
(10.1626 -0.0525429 0)
(10.1609 -0.0363834 0)
(10.1767 0.0159331 0)
(10.2089 0.0833566 0)
(10.245 0.140228 0)
(10.275 0.172515 0)
(10.2943 0.174934 0)
(10.2989 0.150642 0)
(9.95396 0.096764 0)
(9.9208 0.126008 0)
(9.90542 0.110446 0)
(9.98587 0.096176 0)
(10.101 0.0576911 0)
(10.1882 0.0150641 0)
(10.2519 -0.0113005 0)
(10.3049 -0.0179793 0)
(10.3394 -0.0143658 0)
(10.3478 -0.00702288 0)
(10.3401 0.00162102 0)
(10.3374 0.0167324 0)
(10.3526 0.0432022 0)
(10.3884 0.0770761 0)
(10.4432 0.110928 0)
(10.5075 0.135659 0)
(10.5732 0.147132 0)
(10.622 0.140832 0)
(9.79908 0.114154 0)
(9.89439 0.0480413 0)
(9.87049 -0.0673049 0)
(9.8756 -0.104179 0)
(9.92787 -0.067306 0)
(9.9885 -0.0118344 0)
(10.0281 0.0222164 0)
(10.0418 0.0216099 0)
(10.0384 -0.00251158 0)
(10.0325 -0.030833 0)
(10.0357 -0.0472189 0)
(10.0548 -0.0473213 0)
(10.0904 -0.0355249 0)
(10.1403 -0.0178221 0)
(10.1997 0.00320294 0)
(10.2622 0.0245686 0)
(10.3214 0.0445231 0)
(10.3721 0.0647527 0)
(10.0283 -0.0355893 0)
(10.0903 0.0710686 0)
(10.2178 0.0911952 0)
(10.2495 0.04107 0)
(10.2245 -0.0158674 0)
(10.2097 -0.0460236 0)
(10.2299 -0.0390545 0)
(10.2699 -0.0154547 0)
(10.3008 0.00101743 0)
(10.304 0.000453203 0)
(10.2799 -0.011736 0)
(10.2399 -0.0237898 0)
(10.1983 -0.0269798 0)
(10.1667 -0.0184799 0)
(10.1523 -0.00304088 0)
(10.1542 0.0145988 0)
(10.1697 0.030015 0)
(10.197 0.0402418 0)
(9.91102 0.0674074 0)
(9.99067 -0.0536746 0)
(10.0805 -0.112939 0)
(10.1161 -0.0842678 0)
(10.083 -0.0517743 0)
(10.037 -0.0369327 0)
(10.0247 -0.0311406 0)
(10.0489 -0.0282838 0)
(10.0928 -0.0257797 0)
(10.1443 -0.0197417 0)
(10.1979 -0.00941818 0)
(10.2502 0.0012283 0)
(10.2985 0.00799507 0)
(10.3399 0.00969717 0)
(10.3753 0.00796176 0)
(10.408 0.00514631 0)
(10.4406 0.00529665 0)
(10.4757 0.0100142 0)
(10.261 -0.0662516 0)
(10.2843 -0.0497553 0)
(10.1429 0.0113268 0)
(10.0879 0.0469347 0)
(10.0883 0.0299023 0)
(10.0932 -0.00878323 0)
(10.1057 -0.0337951 0)
(10.1379 -0.0411602 0)
(10.1884 -0.0448474 0)
(10.2451 -0.0536895 0)
(10.2936 -0.0649237 0)
(10.3249 -0.0714147 0)
(10.3386 -0.0685284 0)
(10.3399 -0.0569382 0)
(10.3367 -0.0416989 0)
(10.3363 -0.028263 0)
(10.3432 -0.0210723 0)
(10.3612 -0.02058 0)
(9.93205 -0.0362075 0)
(9.96466 -0.0220643 0)
(10.0276 -0.0285029 0)
(10.0948 -0.0473772 0)
(10.1489 -0.0539259 0)
(10.1732 -0.0568561 0)
(10.1845 -0.0638087 0)
(10.2026 -0.0745876 0)
(10.232 -0.0822349 0)
(10.2654 -0.0787375 0)
(10.2927 -0.0626038 0)
(10.308 -0.0402764 0)
(10.3106 -0.0201689 0)
(10.3049 -0.00771925 0)
(10.2969 -0.00414452 0)
(10.293 -0.00715016 0)
(10.2949 -0.0143393 0)
(10.3041 -0.0227752 0)
(9.92324 -0.0643506 0)
(9.70148 -0.0679664 0)
(9.58165 -0.027475 0)
(9.51901 0.00180783 0)
(9.44148 -0.000358229 0)
(9.33067 -0.0181626 0)
(9.19233 -0.0367157 0)
(9.02264 -0.054125 0)
(8.82132 -0.0705176 0)
(8.60668 -0.0809679 0)
(8.40763 -0.0806157 0)
(8.24806 -0.0698969 0)
(8.13627 -0.0533512 0)
(8.06761 -0.0368073 0)
(8.02571 -0.0252079 0)
(7.99562 -0.0209733 0)
(7.96061 -0.024706 0)
(7.91359 -0.0322506 0)
(-0.272803 0.572885 5.94836e-20)
(-0.786307 0.349347 -5.89478e-20)
(-0.984069 0.0756453 0)
(-0.812102 -0.279316 0)
(-0.43463 -0.518259 0)
(0.14556 -0.647327 5.75198e-20)
(0.794441 -0.693107 0)
(1.44112 -0.665966 0)
(2.05637 -0.589035 0)
(2.59885 -0.48226 0)
(3.03942 -0.360847 -5.4685e-20)
(3.36767 -0.235075 0)
(3.57262 -0.110269 0)
(3.66316 0.00942103 0)
(3.62297 0.124885 0)
(3.46938 0.233501 -5.2293e-20)
(3.21372 0.315617 0)
(2.88238 0.386892 0)
(2.49646 0.417349 0)
(2.07305 0.448319 0)
(1.6631 0.424412 0)
(1.20913 0.381269 0)
(0.874983 0.334414 0)
(0.56321 0.113549 -4.96403e-20)
(0.328703 -0.0621381 4.92323e-20)
(0.353292 -0.10066 -4.88194e-20)
(0.460424 -0.0413379 -4.83769e-20)
(0.65835 -0.259215 0)
(0.975833 -0.385067 0)
(1.42342 -0.339018 4.70068e-20)
(1.51529 -1.10629 4.66281e-20)
(1.40085 -1.6479 0)
(1.36078 -0.863274 0)
(0.537548 0.671945 4.53955e-20)
(-0.878849 1.2273 0)
(-2.16114 1.20135 0)
(-3.34523 1.09344 -4.37904e-20)
(-4.39341 0.955668 0)
(-5.31181 0.822317 -4.2137e-20)
(-6.10996 0.700324 -8.25549e-20)
(-6.80191 0.593714 0)
(-7.40115 0.502963 0)
(-7.92066 0.426581 0)
(-8.37162 0.362838 0)
(-8.76341 0.309391 0)
(-9.10382 0.26424 -7.33214e-20)
(-9.39876 0.225352 -7.20492e-20)
(-9.65287 0.191209 -7.086e-20)
(-9.86952 0.160722 0)
(-10.0515 0.133256 6.87336e-20)
(-10.2009 0.108335 0)
(-10.3197 0.0854856 -6.69415e-20)
(-10.4095 0.0645178 -6.61675e-20)
(-10.472 0.0455314 0)
(-10.5091 0.0284958 0)
(-10.5224 0.01354 0)
(-10.5152 0.000493692 -6.37961e-20)
(-10.4895 -0.010849 0)
(-10.4469 -0.0208551 0)
(-10.389 -0.0297632 0)
(-10.3172 -0.0378041 0)
(-10.2325 -0.0452198 0)
(-10.1357 -0.0521761 0)
(-10.0274 -0.0588378 0)
(-9.90784 -0.065292 0)
(-9.77735 -0.0715765 6.10889e-20)
(-9.63608 -0.0776997 0)
(-9.48418 -0.0836691 0)
(-9.3218 -0.0895324 -6.0488e-20)
(-9.14897 -0.0953933 -6.02955e-20)
(-8.96549 -0.101431 0)
(-8.77075 -0.107901 5.99194e-20)
(-8.56358 -0.115105 -5.97373e-20)
(-8.34214 -0.123338 0)
(-8.104 -0.13281 5.93929e-20)
(-7.84638 -0.143564 0)
(-7.56665 -0.155427 0)
(-7.2628 -0.168024 -5.89498e-20)
(-6.93367 -0.180885 0)
(-6.57895 -0.193578 5.87033e-20)
(-6.199 -0.205759 0)
(-5.79468 -0.217145 -5.84729e-20)
(-5.36727 -0.227464 -5.83532e-20)
(-4.91854 -0.236413 -5.82234e-20)
(-4.45105 -0.243631 -1.16155e-19)
(-3.96831 -0.2487 1.15819e-19)
(-3.47469 -0.251245 0)
(-2.97496 -0.25098 0)
(-2.47416 -0.247685 0)
(-1.97765 -0.241326 1.13816e-19)
(-1.49101 -0.232107 1.13113e-19)
(-1.01929 -0.220597 -1.12325e-19)
(-0.566326 -0.207482 0)
(-0.136787 -0.194059 1.10502e-19)
(0.266013 -0.180758 1.09417e-19)
(0.643677 -0.166346 1.08233e-19)
(0.996039 -0.151634 0)
(1.32145 -0.136818 0)
(1.61943 -0.122277 0)
(1.8904 -0.108482 1.03257e-19)
(2.13584 -0.0958432 0)
(2.35814 -0.084591 0)
(2.56005 -0.0747258 -9.9472e-20)
(2.74417 -0.0660626 0)
(2.91258 -0.0583355 0)
(3.06679 -0.0512983 -9.57714e-20)
(3.20776 -0.044767 0)
(3.33615 -0.0386352 0)
(3.45246 -0.0328567 9.21871e-20)
(3.55712 -0.0274076 9.10189e-20)
(3.65058 -0.022304 0)
(3.73337 -0.0175616 -8.87214e-20)
(3.80605 -0.0131684 0)
(3.86925 -0.00916838 8.64746e-20)
(3.92369 -0.0055254 0)
(3.96999 -0.00214749 8.42761e-20)
(4.00875 0.000887339 8.31943e-20)
(4.04064 0.00372226 0)
(4.06578 0.00655625 0)
(4.08444 0.0090723 0)
(4.09721 0.0114297 0)
(4.10332 0.0142293 0)
(4.10246 0.0172624 0)
(4.09502 0.0200549 0)
(4.08142 0.0224179 7.4916e-20)
(4.06236 0.0242905 -7.39238e-20)
(4.03867 0.0256372 0)
(4.01111 0.026493 0)
(3.98045 0.0269142 0)
(3.94742 0.0269458 0)
(3.91269 0.0266557 -1.38172e-19)
(3.87686 0.0261216 0)
(3.84045 0.0254114 1.34408e-19)
(3.80387 0.0245836 -1.32548e-19)
(3.76745 0.0236837 0)
(3.73146 0.022738 0)
(3.69612 0.021754 0)
(3.6616 0.0207244 1.25242e-19)
(3.62809 0.0196362 1.23448e-19)
(3.59574 0.0184819 0)
(3.56471 0.0172662 1.19897e-19)
(3.53514 0.0160048 1.18139e-19)
(3.50713 0.0147216 -1.16394e-19)
(3.48075 0.0134444 0)
(3.45603 0.0122009 0)
(3.43293 0.011015 -1.11226e-19)
(3.41142 0.00990443 0)
(3.39141 0.00888021 0)
(3.37281 0.00794895 0)
(3.3555 0.00711484 0)
(3.33938 0.00637899 1.02834e-19)
(3.32433 0.00573776 1.01187e-19)
(3.31023 0.00518306 0)
(3.29698 0.00470674 9.79227e-20)
(3.28447 0.00430378 0)
(3.27263 0.00397204 0)
(3.26134 0.00370572 9.3101e-20)
(3.25052 0.00349238 0)
(3.24007 0.00331301 8.99345e-20)
(3.22998 0.00315206 0)
(3.22014 0.00300262 0)
(3.21062 0.00287165 8.52551e-20)
(3.2012 0.00277469 0)
(3.19205 0.00272682 8.21816e-20)
(3.18265 0.00274785 0)
(3.17338 0.00283273 0)
(3.16324 0.00302022 0)
(3.15311 0.00325472 -7.61452e-20)
(3.1411 0.00367297 0)
(3.12904 0.00406756 7.31836e-20)
(3.11347 0.00490782 0)
(3.09754 0.00546157 0)
(3.07588 0.00725607 0)
(3.05148 0.00783252 0)
(3.02042 0.0121126 0)
(2.9749 0.0120218 0)
(2.93259 0.0235711 0)
(2.82659 0.0202544 -1.23677e-19)
(2.78389 0.0560355 0)
(2.47549 0.0457994 0)
(0.00276857 1.43693 -1.782e-19)
(-0.23301 1.07862 1.76851e-19)
(-0.122359 0.0977527 0)
(0.277705 -0.918865 -1.15989e-19)
(0.878578 -1.61258 0)
(1.51074 -1.96601 -5.72053e-20)
(2.12469 -2.05986 1.12839e-19)
(2.69419 -1.96218 1.11706e-19)
(3.19617 -1.73816 0)
(3.61244 -1.43853 1.0939e-19)
(3.93583 -1.09941 5.44936e-20)
(4.16441 -0.744908 0)
(4.29841 -0.389838 0)
(4.33724 -0.0513092 0)
(4.28848 0.265564 0)
(4.14648 0.538596 5.21666e-20)
(3.91764 0.770402 0)
(3.63203 0.92167 -1.02653e-19)
(3.30689 1.03074 0)
(2.9594 1.0565 0)
(2.62068 1.04826 1.00965e-19)
(2.29435 1.0134 0)
(2.00044 0.818287 -9.96796e-20)
(1.77304 0.72063 4.94515e-20)
(1.6301 0.502135 -4.90502e-20)
(1.35709 -0.191367 4.86815e-20)
(1.4714 -0.560804 4.82022e-20)
(2.05606 -0.561204 0)
(1.55345 -1.25808 0)
(1.0117 -0.47868 -4.70499e-20)
(-0.132169 1.09228 4.65901e-20)
(-1.85335 1.91857 0)
(-3.11529 2.38809 0)
(-4.05122 2.7645 -4.4939e-20)
(-4.93042 2.75804 0)
(-5.65627 2.583 0)
(-6.30758 2.31763 4.34019e-20)
(-6.88272 2.04283 0)
(-7.38721 1.77272 -4.09778e-20)
(-7.83457 1.53137 8.21237e-20)
(-8.22848 1.31855 0)
(-8.58108 1.13668 0)
(-8.89558 0.981279 1.53753e-19)
(-9.17909 0.848651 1.50945e-19)
(-9.4334 0.734321 1.48248e-19)
(-9.66167 0.634277 -7.24821e-20)
(-9.86448 0.545253 7.19461e-20)
(-10.0429 0.4645 2.11729e-19)
(-10.197 0.390235 -1.38815e-19)
(-10.3271 0.321151 -6.86783e-20)
(-10.4333 0.256524 0)
(-10.5159 0.195851 6.6907e-20)
(-10.5754 0.139067 -6.57173e-20)
(-10.6125 0.0863362 0)
(-10.628 0.0377226 0)
(-10.6234 -0.00627867 0)
(-10.5991 -0.0460186 6.37848e-20)
(-10.5562 -0.0815744 0)
(-10.4962 -0.113279 -1.25701e-19)
(-10.4205 -0.141586 0)
(-10.3303 -0.167022 -1.24445e-19)
(-10.2267 -0.190166 0)
(-10.1106 -0.211539 1.23416e-19)
(-9.98264 -0.231595 0)
(-9.84328 -0.250649 -1.22524e-19)
(-9.69298 -0.268883 6.10254e-20)
(-9.53224 -0.286389 0)
(-9.36156 -0.303237 1.21313e-19)
(-9.18143 -0.319589 6.04863e-20)
(-8.9922 -0.335793 6.02945e-20)
(-8.79392 -0.352452 0)
(-8.58616 -0.370407 5.98511e-20)
(-8.36784 -0.390641 5.97371e-20)
(-8.13707 -0.414098 0)
(-7.89123 -0.441435 -5.93913e-20)
(-7.62724 -0.47278 1.18343e-19)
(-7.34216 -0.507568 0)
(-7.03377 -0.544599 5.89433e-20)
(-6.7009 -0.582374 0)
(-6.34332 -0.619538 -1.75919e-19)
(-5.96138 -0.655082 0)
(-5.55584 -0.688232 1.75209e-19)
(-5.12777 -0.718226 5.83367e-20)
(-4.67871 -0.744202 -5.80437e-20)
(-4.21096 -0.765129 -1.15804e-19)
(-3.72788 -0.779841 1.15481e-19)
(-3.23385 -0.787264 0)
(-2.73384 -0.786499 0)
(-2.23329 -0.776779 0)
(-1.73803 -0.758082 -3.41131e-19)
(-1.25391 -0.731067 -1.13076e-19)
(-0.786454 -0.696927 1.12291e-19)
(-0.3393 -0.657841 0)
(0.0830288 -0.618761 1.10315e-19)
(0.479375 -0.578165 -1.09323e-19)
(0.851784 -0.536176 -1.08146e-19)
(1.19834 -0.493512 0)
(1.51806 -0.450478 0)
(1.81097 -0.408145 0)
(2.07799 -0.368108 -1.03196e-19)
(2.32096 -0.331782 0)
(2.54249 -0.299856 2.01297e-19)
(2.74553 -0.272213 2.98221e-19)
(2.93291 -0.248166 -1.96316e-19)
(3.10686 -0.22682 0)
(3.26899 -0.207361 -9.56918e-20)
(3.42029 -0.189208 0)
(3.56141 -0.172032 -1.86628e-19)
(3.69276 -0.155691 9.21212e-20)
(3.81464 -0.140153 9.09561e-20)
(3.9273 -0.12545 0)
(4.03099 -0.111637 2.66026e-19)
(4.12596 -0.0987674 -1.75086e-19)
(4.21259 -0.086909 -8.64331e-20)
(4.29125 -0.0760655 0)
(4.36251 -0.0661678 -8.42327e-20)
(4.42701 -0.0571678 -2.49439e-19)
(4.48511 -0.0488595 0)
(4.53748 -0.040987 -1.62026e-19)
(4.58465 -0.0335679 -1.59926e-19)
(4.62635 -0.0264054 -1.57847e-19)
(4.66355 -0.0191409 0)
(4.69711 -0.0119918 0)
(4.72718 -0.00538329 0)
(4.7537 0.000582804 7.48541e-20)
(4.77668 0.00591173 7.38643e-20)
(4.79628 0.0105118 0)
(4.81271 0.0143675 1.43795e-19)
(4.82619 0.0175238 1.41856e-19)
(4.83695 0.0200045 0)
(4.84527 0.0218606 1.38028e-19)
(4.85146 0.0231594 2.72267e-19)
(4.85587 0.0239704 -1.34258e-19)
(4.85883 0.0243664 -1.32392e-19)
(4.86068 0.0244193 0)
(4.86177 0.0241938 0)
(4.86237 0.0237441 0)
(4.86274 0.0231146 -1.25082e-19)
(4.86307 0.0223386 1.23286e-19)
(4.86347 0.0214409 2.43008e-19)
(4.86404 0.0204441 -1.19735e-19)
(4.8648 0.0193731 1.17977e-19)
(4.86576 0.0182566 1.16232e-19)
(4.86686 0.0171237 0)
(4.86807 0.0160011 0)
(4.86931 0.0149116 -1.11068e-19)
(4.8705 0.0138727 0)
(4.87158 0.0128957 0)
(4.87247 0.0119866 2.12008e-19)
(4.87312 0.0111478 0)
(4.87349 0.0103792 1.02683e-19)
(4.87355 0.00967832 -1.01038e-19)
(4.87328 0.0090404 0)
(4.87268 0.00846045 9.77789e-20)
(4.87177 0.00793504 0)
(4.87055 0.00746329 0)
(4.86905 0.00704475 -9.29644e-20)
(4.86729 0.00667631 1.82758e-19)
(4.86529 0.006352 -8.98033e-20)
(4.86308 0.00606239 0)
(4.86065 0.00580623 0)
(4.85804 0.00558082 8.51318e-20)
(4.85518 0.00541145 0)
(4.85211 0.00529624 8.20635e-20)
(4.84873 0.00529954 0)
(4.84509 0.00537287 0)
(4.84094 0.00566748 0)
(4.83639 0.00599368 7.6038e-20)
(4.83101 0.00677339 0)
(4.82484 0.00740561 -7.30814e-20)
(4.81747 0.00909581 0)
(4.80825 0.0100607 0)
(4.79777 0.0137131 1.37442e-19)
(4.7822 0.0148967 -1.34582e-19)
(4.76736 0.0232004 0)
(4.73696 0.0240588 0)
(4.71764 0.0444464 0)
(4.64929 0.044156 3.70414e-19)
(4.63286 0.0999487 0)
(4.46495 0.104339 -2.3631e-19)
(0.0588365 1.13509 -1.57665e-22)
(0.234424 0.772839 -2.35723e-19)
(0.954266 -0.810968 0)
(1.70767 -2.14122 2.30505e-19)
(2.35944 -2.92863 0)
(2.8993 -3.23746 0)
(3.34371 -3.19895 -8.21915e-22)
(3.70735 -2.93134 -1.11228e-19)
(3.99773 -2.52757 -1.09123e-19)
(4.22312 -2.05136 -1.091e-19)
(4.38978 -1.54012 0)
(4.49939 -1.01461 0)
(4.54995 -0.49067 1.05187e-19)
(4.53132 0.0220745 2.08834e-19)
(4.43805 0.497748 -2.07294e-19)
(4.26007 0.923227 0)
(4.00555 1.26728 -2.04951e-19)
(3.67592 1.5219 1.02551e-19)
(3.31708 1.65301 0)
(2.95243 1.70749 -2.02314e-19)
(2.60118 1.64206 -1.00883e-19)
(2.28004 1.5312 2.00371e-19)
(1.99449 1.40512 9.96233e-20)
(1.68489 0.786053 0)
(1.50504 1.00148 -1.96817e-19)
(1.48589 0.0871904 -1.95629e-19)
(1.02016 -1.32325 0)
(0.381957 0.0173062 -1.92063e-19)
(-1.18764 1.65182 0)
(-2.42388 2.45923 -1.86646e-19)
(-3.50485 3.14116 -9.23513e-20)
(-4.48546 3.44559 0)
(-5.24089 3.69348 0)
(-5.80518 3.7574 0)
(-6.22523 3.61372 0)
(-6.55171 3.34803 0)
(-6.84185 3.00925 0)
(-7.12265 2.667 -1.6623e-19)
(-7.39789 2.34003 2.46314e-19)
(-7.67916 2.0496 0)
(-7.95691 1.79521 0)
(-8.23385 1.57625 0)
(-8.50151 1.38705 -1.25079e-21)
(-8.75889 1.22187 -1.50997e-19)
(-9.00062 1.07546 -2.95591e-19)
(-9.2249 0.94289 2.9054e-19)
(-9.42861 0.820796 1.42423e-19)
(-9.61015 0.706383 -1.41033e-19)
(-9.76778 0.597962 8.05201e-22)
(-9.9004 0.494306 -1.36157e-19)
(-10.0071 0.395062 0)
(-10.0874 0.30028 -1.32768e-19)
(-10.1414 0.210272 6.46876e-22)
(-10.1697 0.125555 0)
(-10.1728 0.0466368 0)
(-10.1525 -0.0266107 1.2786e-19)
(-10.1106 -0.0931252 0)
(-10.0485 -0.152949 0)
(-9.96804 -0.206338 -1.25155e-19)
(-9.87109 -0.253939 -2.49743e-19)
(-9.75931 -0.296625 1.24553e-19)
(-9.63417 -0.335316 0)
(-9.49698 -0.370905 -1.23525e-19)
(-9.34887 -0.404081 0)
(-9.19087 -0.435302 -1.22433e-19)
(-9.02402 -0.464782 -1.22221e-19)
(-8.84933 -0.492572 2.43485e-19)
(-8.66783 -0.518722 1.2128e-19)
(-8.48051 -0.54348 0)
(-8.28813 -0.567488 -2.41132e-19)
(-8.0911 -0.591889 0)
(-7.88914 -0.618288 -3.59413e-19)
(-7.68104 -0.648564 -2.38746e-19)
(-7.46455 -0.684528 -2.37962e-19)
(-7.23637 -0.727461 2.37199e-19)
(-6.99253 -0.777644 -3.54888e-19)
(-6.72913 -0.834068 0)
(-6.4433 -0.894528 0)
(-6.13363 -0.956254 2.3457e-19)
(-5.79983 -1.01684 3.51288e-19)
(-5.442 -1.07472 0)
(-5.06024 -1.12885 -1.16767e-19)
(-4.65482 -1.1781 0)
(-4.22643 -1.22105 3.48228e-19)
(-3.77655 -1.25595 5.03926e-22)
(-3.30783 -1.28078 -4.84919e-22)
(-2.82411 -1.29352 -2.30001e-19)
(-2.33019 -1.29222 0)
(-1.83244 -1.27511 2.28138e-19)
(-1.33852 -1.24253 3.35245e-22)
(-0.857075 -1.19593 0)
(-0.397609 -1.13727 0)
(0.0333559 -1.07316 0)
(0.435305 -1.00649 -2.20542e-19)
(0.812466 -0.9367 0)
(1.16661 -0.865498 0)
(1.49505 -0.793705 0)
(1.7933 -0.722295 0)
(2.05932 -0.652745 0)
(2.29578 -0.587106 -2.06082e-19)
(2.50818 -0.527634 0)
(2.70195 -0.475798 -2.01193e-19)
(2.8809 -0.431607 -1.98707e-19)
(3.04731 -0.39388 1.96237e-19)
(3.20247 -0.360978 0)
(3.34717 -0.331404 1.91362e-19)
(3.48206 -0.304077 0)
(3.60778 -0.278332 1.86584e-19)
(3.72504 -0.253813 -1.84232e-19)
(3.83454 -0.230361 -5.45635e-19)
(3.93692 -0.207933 0)
(4.03268 -0.186566 -5.31907e-19)
(4.12216 -0.16637 -1.75014e-19)
(4.20554 -0.147474 0)
(4.28291 -0.129975 -3.41213e-19)
(4.35431 -0.113945 -3.36846e-19)
(4.41986 -0.0993053 4.98803e-19)
(4.47963 -0.0858842 0)
(4.53373 -0.0735283 1.62018e-19)
(4.58236 -0.0619529 1.59919e-19)
(4.62568 -0.050982 4.73498e-19)
(4.66393 -0.0407016 0)
(4.69756 -0.0311536 0)
(4.72707 -0.0223644 0)
(4.7531 -0.0143468 1.49699e-19)
(4.77615 -0.00716853 0)
(4.79657 -0.000871844 0)
(4.81473 0.00458669 -1.43797e-19)
(4.83087 0.00918222 -1.41857e-19)
(4.84518 0.0129269 0)
(4.85786 0.0158793 0)
(4.86911 0.0180907 -2.72261e-19)
(4.87914 0.0196156 0)
(4.88819 0.0205201 2.64777e-19)
(4.89651 0.0208768 2.61074e-19)
(4.90435 0.020761 0)
(4.91195 0.0202473 0)
(4.9195 0.0194076 -2.50144e-19)
(4.92717 0.0183097 -1.94532e-24)
(4.93506 0.0170201 -1.45581e-24)
(4.94323 0.0156028 0)
(4.95169 0.01412 -4.71864e-19)
(4.96042 0.0126329 0)
(4.96936 0.0111983 0)
(4.97841 0.00986289 0)
(4.98749 0.00866097 2.22107e-19)
(4.99648 0.0076129 0)
(5.00529 0.00672564 -4.30665e-19)
(5.01382 0.00599548 -2.11977e-19)
(5.02198 0.00541168 0)
(5.0297 0.00495905 -2.05333e-19)
(5.03694 0.0046189 0)
(5.04365 0.00437028 0)
(5.04982 0.0041926 -5.86569e-19)
(5.05545 0.00407023 3.84587e-19)
(5.06053 0.00399274 0)
(5.06508 0.00395414 3.71787e-19)
(5.06912 0.00394455 -1.82722e-19)
(5.07268 0.00395552 0)
(5.07577 0.0039728 0)
(5.0784 0.00400285 0)
(5.08056 0.00404286 -5.10683e-19)
(5.08227 0.0041371 0)
(5.0835 0.00427418 -1.64092e-19)
(5.08431 0.00454899 0)
(5.08457 0.00488524 0)
(5.08442 0.00550009 0)
(5.08355 0.0061449 0)
(5.08229 0.0073688 0)
(5.07984 0.0084456 0)
(5.07709 0.0108005 -2.86388e-19)
(5.0721 0.0124538 0)
(5.06723 0.017135 -1.37408e-19)
(5.05783 0.0196 4.03623e-19)
(5.04992 0.0295095 0)
(5.03236 0.03337 0)
(5.0203 0.0559422 -2.52222e-19)
(4.98786 0.0641748 -2.4684e-19)
(4.97274 0.12011 2.41305e-19)
(4.92191 0.147428 2.36215e-19)
(-0.00861147 0.86646 3.57258e-19)
(0.88275 -0.927498 3.53387e-19)
(1.8319 -2.7078 2.32211e-19)
(2.55722 -3.74791 1.14263e-19)
(3.03752 -4.14214 0)
(3.34427 -4.09667 -2.23288e-19)
(3.54993 -3.7804 1.09511e-19)
(3.69516 -3.31455 0)
(3.8049 -2.77915 1.09141e-19)
(3.89763 -2.21565 0)
(3.97552 -1.63643 -2.12066e-19)
(4.03264 -1.04227 0)
(4.05346 -0.433759 -1.0533e-19)
(4.02527 0.180497 -2.09057e-19)
(3.94106 0.783835 2.0746e-19)
(3.787 1.33893 0)
(3.55642 1.81079 2.05033e-19)
(3.2492 2.15076 0)
(2.88409 2.32721 0)
(2.48433 2.38692 2.02367e-19)
(2.13516 2.26093 0)
(1.69219 2.16316 -3.93585e-22)
(1.53932 1.78479 0)
(0.921848 1.67746 0)
(0.866094 0.836709 3.82282e-23)
(0.653478 0.386062 1.95906e-19)
(-0.902351 1.71657 1.93562e-19)
(-2.18453 2.74263 1.90806e-19)
(-3.31466 3.51141 0)
(-4.17198 3.99833 3.70135e-19)
(-4.88974 4.34067 0)
(-5.3989 4.43915 1.79352e-19)
(-5.79744 4.43372 0)
(-6.06703 4.27123 0)
(-6.29483 4.02167 -1.71817e-19)
(-6.48521 3.70631 0)
(-6.68023 3.37078 1.66846e-19)
(-6.88401 3.0408 1.91389e-21)
(-7.10333 2.73081 -3.25282e-19)
(-7.33854 2.44925 3.18226e-19)
(-7.58276 2.19611 0)
(-7.8331 1.96949 0)
(-8.0819 1.76543 1.49846e-19)
(-8.32517 1.57924 0)
(-8.5572 1.40686 1.47351e-19)
(-8.77389 1.24433 -1.44868e-19)
(-8.97098 1.08896 -1.42505e-19)
(-9.14515 0.938587 0)
(-9.29365 0.792109 1.3819e-19)
(-9.41413 0.64915 1.36261e-19)
(-9.50514 0.510123 -2.67076e-19)
(-9.56601 0.375729 1.32895e-19)
(-9.59649 0.247092 1.31458e-19)
(-9.59699 0.125289 0)
(-9.56959 0.0108696 0)
(-9.5152 -0.094371 -1.28007e-19)
(-9.43563 -0.189689 0)
(-9.33442 -0.275062 0)
(-9.21434 -0.350928 2.51273e-19)
(-9.07827 -0.418104 2.5006e-19)
(-8.92894 -0.477662 0)
(-8.76894 -0.530789 0)
(-8.60062 -0.578594 0)
(-8.42606 -0.621963 0)
(-8.2471 -0.66146 2.45416e-19)
(-8.06532 -0.697347 -2.44424e-19)
(-7.88206 -0.729709 -2.43832e-19)
(-7.69847 -0.758698 -4.85934e-19)
(-7.51545 -0.784836 0)
(-7.33358 -0.809269 1.73823e-22)
(-7.15296 -0.833929 0)
(-6.97294 -0.861493 2.39845e-19)
(-6.79194 -0.895111 2.68533e-22)
(-6.60715 -0.937863 2.38229e-19)
(-6.41459 -0.991964 -2.37445e-19)
(-6.20951 -1.05793 4.25995e-22)
(-5.98735 -1.13414 0)
(-5.74487 -1.21705 -2.34787e-19)
(-5.48076 -1.3024 -2.34708e-19)
(-5.19487 -1.38675 -4.67653e-19)
(-4.88666 -1.46835 0)
(-4.5547 -1.54633 2.32397e-19)
(-4.19736 -1.61938 0)
(-3.81369 -1.68515 -4.63277e-19)
(-3.4038 -1.74079 2.31373e-19)
(-2.96897 -1.78319 -2.307e-19)
(-2.51113 -1.80901 2.29937e-19)
(-2.033 -1.81434 4.56948e-19)
(-1.53947 -1.79467 -2.28062e-19)
(-1.03785 -1.74853 2.26914e-19)
(-0.53901 -1.67569 0)
(-0.0604391 -1.58333 -4.47405e-19)
(0.381569 -1.48435 0)