/*--------------------------------*- C++ -*----------------------------------*\
| =========                 |                                                 |
| \\      /  F ield         | OpenFOAM: The Open Source CFD Toolbox           |
|  \\    /   O peration     | Version:  2112                                  |
|   \\  /    A nd           | Website:  www.openfoam.com                      |
|    \\/     M anipulation  |                                                 |
\*---------------------------------------------------------------------------*/
FoamFile
{
    version     2.0;
    format      ascii;
    arch        "LSB;label=32;scalar=64";
    class       volScalarField;
    location    "0.32";
    object      kU;
}
// * * * * * * * * * * * * * * * * * * * * * * * * * * * * * * * * * * * * * //

dimensions      [0 2 -2 0 0 0 0];

internalField   nonuniform List<scalar> 
12225
(
1.01627
1.74073
2.45414
3.22858
4.12041
5.16511
6.37861
7.75775
9.28089
10.911
12.6006
14.3003
15.9661
17.5638
19.0678
20.48
21.686
22.5793
0.294818
0.353142
0.429821
0.526626
0.644733
0.784219
0.945378
1.13047
1.34546
1.59874
1.90161
2.26273
2.68474
3.1634
3.68858
4.25989
4.92276
5.61926
0.265427
0.270456
0.276044
0.282734
0.291618
0.303591
0.319465
0.340319
0.367723
0.403705
0.450893
0.512008
0.589396
0.684776
0.798895
0.934523
1.09765
1.28971
0.263235
0.263895
0.264474
0.264969
0.265442
0.265897
0.26632
0.266792
0.267569
0.269081
0.271907
0.276732
0.284279
0.295256
0.310288
0.330298
0.356192
0.388433
0.262824
0.26304
0.263136
0.263131
0.263045
0.262868
0.262567
0.262125
0.261561
0.260922
0.260287
0.259752
0.259434
0.25946
0.259992
0.261153
0.263081
0.265811
0.262685
0.262829
0.262899
0.262887
0.262822
0.262698
0.262498
0.262217
0.261858
0.261436
0.260971
0.260487
0.260009
0.25956
0.259162
0.258844
0.258638
0.258558
0.262613
0.262718
0.262795
0.262829
0.262829
0.262783
0.262685
0.262538
0.262343
0.262115
0.261865
0.261605
0.261346
0.261099
0.260872
0.260671
0.260512
0.260403
0.26256
0.262632
0.262705
0.262766
0.26281
0.262828
0.262809
0.262752
0.262662
0.262551
0.262432
0.262314
0.262202
0.262102
0.26202
0.261957
0.26192
0.26191
0.262518
0.262556
0.262613
0.262679
0.262747
0.262804
0.262839
0.262846
0.26283
0.262799
0.262764
0.262731
0.262706
0.262694
0.262697
0.26272
0.262765
0.262828
0.262476
0.262485
0.262522
0.262577
0.262646
0.262719
0.262785
0.262837
0.262874
0.262899
0.262921
0.262947
0.262981
0.263028
0.263089
0.263166
0.263258
0.26336
0.262438
0.262415
0.262432
0.262472
0.26253
0.2626
0.262674
0.262746
0.262814
0.262877
0.262939
0.263004
0.263076
0.263157
0.263249
0.263353
0.263468
0.263587
0.262409
0.262355
0.26235
0.262376
0.26242
0.262481
0.26255
0.262625
0.262701
0.262779
0.26286
0.262945
0.263036
0.263134
0.263241
0.263355
0.263476
0.263599
0.262385
0.262303
0.262273
0.262283
0.262315
0.262363
0.262423
0.262492
0.262567
0.262648
0.262734
0.262826
0.262925
0.263029
0.26314
0.263257
0.263377
0.263496
0.262363
0.262253
0.262195
0.262183
0.262201
0.262236
0.262284
0.262343
0.26241
0.262485
0.262567
0.262656
0.262751
0.262852
0.262958
0.263067
0.263179
0.263288
0.262345
0.26221
0.262123
0.262085
0.262083
0.262105
0.26214
0.262187
0.262243
0.262307
0.262379
0.262457
0.262541
0.26263
0.262723
0.262818
0.262914
0.263007
0.26233
0.262174
0.262063
0.261998
0.261973
0.261978
0.262002
0.262036
0.262079
0.262131
0.262189
0.262254
0.262323
0.262396
0.262472
0.262549
0.262625
0.2627
0.26232
0.262149
0.262019
0.261931
0.261883
0.261868
0.261877
0.2619
0.261932
0.261971
0.262016
0.262066
0.262119
0.262175
0.262233
0.262291
0.262348
0.262403
0.262315
0.262136
0.261993
0.26189
0.261824
0.26179
0.261784
0.261796
0.261818
0.261846
0.261878
0.261914
0.261953
0.261993
0.262034
0.262075
0.262115
0.262152
0.262316
0.262136
0.261991
0.261882
0.261809
0.261766
0.261749
0.261751
0.261765
0.261785
0.261808
0.261833
0.26186
0.261887
0.261913
0.261939
0.261964
0.261988
0.262324
0.262153
0.262017
0.261918
0.261852
0.261815
0.261802
0.261804
0.261817
0.261835
0.261853
0.261872
0.26189
0.261907
0.261922
0.261935
0.261946
0.261956
0.262336
0.262181
0.262063
0.261981
0.261931
0.261908
0.261904
0.261913
0.261927
0.261943
0.261956
0.261966
0.261971
0.261972
0.261968
0.261961
0.261952
0.261941
0.262355
0.262224
0.262129
0.26207
0.26204
0.262033
0.262039
0.26205
0.26206
0.262066
0.262063
0.262051
0.262031
0.262003
0.26197
0.261933
0.261893
0.261854
0.262383
0.262282
0.262217
0.26218
0.262164
0.262163
0.262165
0.262165
0.262156
0.262135
0.262099
0.26205
0.261989
0.261919
0.261843
0.261762
0.26168
0.261598
0.262421
0.262358
0.262316
0.262287
0.262266
0.262249
0.262227
0.262193
0.262143
0.262075
0.261989
0.261885
0.261767
0.261638
0.261499
0.261355
0.261207
0.26106
0.262473
0.262444
0.262411
0.262369
0.262319
0.26226
0.262186
0.262092
0.261975
0.261835
0.26167
0.261483
0.261276
0.26105
0.26081
0.26056
0.260302
0.260043
0.262543
0.26255
0.262528
0.262471
0.262382
0.262262
0.262108
0.261917
0.261687
0.261419
0.261111
0.260763
0.26038
0.259963
0.259519
0.259054
0.258578
0.258101
0.262686
0.26287
0.263006
0.263045
0.262999
0.262881
0.262697
0.262445
0.262128
0.261747
0.261309
0.260832
0.260344
0.259889
0.259512
0.259262
0.259199
0.259394
0.263424
0.26527
0.267109
0.268665
0.270071
0.271539
0.273317
0.275662
0.278797
0.282894
0.288097
0.294556
0.302452
0.312021
0.323542
0.337328
0.353783
0.373333
0.275081
0.295644
0.322526
0.356571
0.398348
0.448059
0.505796
0.571441
0.644604
0.724741
0.811412
0.904556
1.00471
1.11314
1.23155
1.36163
1.50603
1.66535
0.731582
1.17601
1.58361
1.98444
2.40635
2.86817
3.38172
3.95424
4.58987
5.29013
6.05387
6.87723
7.75383
8.67506
9.63077
10.61
11.6002
12.5858
0.206053
0.207841
0.211899
0.218144
0.226623
0.237354
0.250304
0.265389
0.282489
0.30146
0.322145
0.344399
0.368235
0.39375
0.420772
0.449142
0.478809
0.509773
0.54204
0.575619
0.61052
0.646757
0.684347
0.723306
0.763654
0.805405
0.848575
0.893178
0.939225
0.986724
1.03568
1.08609
1.13797
1.19129
1.24606
1.30226
1.35988
1.41889
1.47926
1.54097
1.60398
1.66825
1.73375
1.80041
1.86819
1.93704
2.0069
2.07769
2.14936
2.22183
2.29503
2.36889
2.44333
2.51826
2.5936
2.66927
2.74517
2.82124
2.89736
2.97346
3.04944
3.12521
3.20067
3.27573
3.3503
3.42429
3.49759
3.57012
3.64178
3.71247
3.78211
3.85059
3.91784
3.98375
4.04826
4.11126
4.17268
4.23244
4.29047
4.34669
4.40105
4.45347
4.50391
4.55229
4.59858
4.64273
4.68469
4.72441
4.76187
4.79703
4.82985
4.8603
4.88834
4.91395
4.9371
4.95774
4.97586
4.99141
5.00435
5.01463
5.02218
5.02691
5.02868
5.02767
5.02435
5.01871
5.01077
5.00054
4.98803
4.97328
4.95631
4.93716
4.91585
4.89242
4.86692
4.83937
4.80983
4.77833
4.74492
4.70964
4.67253
4.63363
4.59298
4.55061
4.50656
4.46086
4.41351
4.36456
4.31401
4.26188
4.20817
4.1529
4.09608
4.0377
3.97779
3.91633
3.85336
3.78887
3.7229
3.65546
3.58661
3.51639
3.44485
3.37206
3.29812
3.22309
3.14709
3.07019
2.99249
2.9141
2.8351
2.75566
2.67602
2.59661
2.51838
2.44449
2.37552
2.31787
2.28351
2.27852
2.30314
2.35123
2.40998
2.47271
2.53897
2.60605
2.67305
2.73953
2.80524
2.87004
2.93386
2.99664
3.05836
3.11897
3.17848
3.23686
3.2944
3.35123
3.41251
3.46561
0.207811
0.208542
0.211481
0.216403
0.223295
0.232118
0.242791
0.255196
0.269193
0.284628
0.301346
0.319208
0.338104
0.35799
0.378799
0.400448
0.422876
0.446048
0.469944
0.494552
0.519865
0.545881
0.572596
0.600007
0.628113
0.656908
0.686388
0.716546
0.747372
0.778856
0.810984
0.843741
0.87711
0.91107
0.9456
0.980676
1.01627
1.05236
1.08891
1.12589
1.16326
1.201
1.23907
1.27742
1.31603
1.35485
1.39384
1.43296
1.47217
1.51144
1.55072
1.58996
1.62914
1.66821
1.70713
1.74587
1.78437
1.82262
1.86056
1.89817
1.9354
1.97223
2.00861
2.04452
2.07992
2.11478
2.14907
2.18276
2.21582
2.24822
2.27995
2.31097
2.34126
2.37082
2.39961
2.42762
2.45484
2.48126
2.50688
2.53168
2.55566
2.57882
2.60116
2.62268
2.64339
2.66329
2.68237
2.70066
2.71815
2.73486
2.75078
2.76593
2.78032
2.79395
2.80684
2.81899
2.83042
2.84113
2.85113
2.86045
2.86909
2.87711
2.88472
2.89214
2.89911
2.90562
2.91166
2.91727
2.92245
2.92723
2.93162
2.93564
2.93931
2.94264
2.94566
2.94837
2.9508
2.95296
2.95484
2.95648
2.95786
2.959
2.95988
2.96051
2.96088
2.96098
2.96077
2.96024
2.95935
2.95806
2.95632
2.95407
2.95123
2.94774
2.9435
2.93841
2.93235
2.92519
2.91681
2.90705
2.89575
2.88274
2.86784
2.85087
2.83163
2.80994
2.78562
2.75848
2.72837
2.69516
2.65873
2.61907
2.57623
2.53047
2.48244
2.4338
2.3862
2.34577
2.32047
2.31517
2.32999
2.36044
2.39826
2.43698
2.47504
2.51095
2.544
2.57385
2.60033
2.62339
2.64308
2.65948
2.67273
2.68302
2.69062
2.69588
2.69942
2.70269
2.7091
2.72912
0.21189
0.210796
0.212318
0.215883
0.221369
0.228677
0.23767
0.248194
0.260091
0.273199
0.287367
0.302459
0.318364
0.335
0.352294
0.370182
0.388611
0.407543
0.426954
0.446826
0.467147
0.487908
0.509101
0.530718
0.552752
0.575193
0.598033
0.62126
0.644861
0.668824
0.693132
0.717769
0.742718
0.76796
0.793473
0.819238
0.845232
0.871433
0.897818
0.924362
0.951042
0.977834
1.00471
1.03166
1.05864
1.08564
1.11263
1.1396
1.16652
1.19336
1.22012
1.24677
1.27329
1.29967
1.32589
1.35194
1.3778
1.40346
1.4289
1.45411
1.47908
1.50381
1.52827
1.55247
1.57638
1.60001
1.62333
1.64636
1.66908
1.69147
1.71355
1.73531
1.75673
1.77783
1.7986
1.81904
1.83916
1.85895
1.87842
1.89758
1.91643
1.93498
1.95323
1.9712
1.98888
2.0063
2.02345
2.04035
2.05699
2.0734
2.08957
2.10553
2.12126
2.13679
2.15213
2.16728
2.18227
2.19711
2.21182
2.22643
2.24099
2.25557
2.27031
2.28502
2.29963
2.31414
2.32854
2.34283
2.35702
2.37111
2.3851
2.39899
2.41279
2.42649
2.4401
2.45361
2.46703
2.48035
2.49357
2.50668
2.51969
2.53259
2.54536
2.558
2.5705
2.58284
2.595
2.60695
2.61867
2.63013
2.64127
2.65205
2.6624
2.67227
2.68156
2.69019
2.69804
2.70501
2.71096
2.71573
2.71917
2.7211
2.72131
2.71961
2.71576
2.70954
2.70071
2.68904
2.67434
2.6564
2.6351
2.61039
2.58232
2.55121
2.51768
2.48294
2.44861
2.41882
2.39904
2.39284
2.40008
2.41781
2.44099
2.46537
2.48898
2.51037
2.52873
2.54366
2.55498
2.56265
2.56672
2.56734
2.5647
2.55905
2.55074
2.54022
2.52821
2.51634
2.50723
2.50898
0.216875
0.21344
0.213524
0.215807
0.220059
0.226117
0.233796
0.242908
0.253276
0.26473
0.277118
0.290303
0.304174
0.318641
0.33363
0.34908
0.364944
0.381184
0.397776
0.414701
0.431945
0.449497
0.467348
0.485491
0.503916
0.522615
0.541578
0.560795
0.580255
0.599946
0.619856
0.63997
0.660275
0.680757
0.701401
0.722192
0.743115
0.764156
0.7853
0.806534
0.827842
0.849213
0.870634
0.892093
0.913581
0.935086
0.956601
0.978118
0.999629
1.02113
1.04262
1.06409
1.08553
1.10695
1.12835
1.14972
1.17107
1.19238
1.21367
1.23493
1.25616
1.27737
1.29854
1.31969
1.3408
1.36189
1.38294
1.40396
1.42494
1.44589
1.4668
1.48766
1.50849
1.52927
1.55001
1.57071
1.59135
1.61196
1.63252
1.65303
1.67349
1.69391
1.71429
1.73462
1.7549
1.77514
1.79534
1.81549
1.8356
1.85566
1.87568
1.89566
1.9156
1.93551
1.95538
1.97522
1.99505
2.01488
2.03472
2.05461
2.07457
2.09462
2.11467
2.13466
2.15456
2.17435
2.19403
2.21359
2.23301
2.25229
2.27143
2.29041
2.30922
2.32787
2.34633
2.3646
2.38268
2.40054
2.41819
2.43562
2.45281
2.46976
2.48645
2.50288
2.51904
2.53492
2.5505
2.56576
2.58069
2.59526
2.60945
2.62322
2.63652
2.64932
2.66154
2.67313
2.684
2.69408
2.70327
2.71144
2.71849
2.72425
2.72858
2.73131
2.73224
2.73118
2.72792
2.72226
2.714
2.70298
2.68908
2.67226
2.6526
2.63038
2.60611
2.58047
2.55457
2.53135
2.51467
2.50688
2.50789
2.51582
2.52782
2.54132
2.55449
2.56589
2.57469
2.58046
2.58303
2.58236
2.57851
2.57162
2.56191
2.54962
2.53511
2.51886
2.50163
2.485
2.47092
2.46458
0.223087
0.216587
0.215149
0.216224
0.219406
0.224438
0.231076
0.239099
0.248312
0.25854
0.269625
0.281433
0.29385
0.306785
0.320164
0.33393
0.348037
0.362451
0.377149
0.392112
0.407327
0.422784
0.438475
0.454392
0.47053
0.48688
0.503435
0.520189
0.537133
0.554259
0.571559
0.589025
0.606649
0.624421
0.642335
0.660383
0.678559
0.696855
0.715267
0.73379
0.75242
0.771155
0.789993
0.808933
0.827976
0.847122
0.866375
0.885737
0.905213
0.924808
0.944527
0.964375
0.98436
1.00449
1.02476
1.0452
1.06579
1.08655
1.10747
1.12858
1.14986
1.17132
1.19296
1.21478
1.23678
1.25896
1.28132
1.30384
1.32654
1.34939
1.37239
1.39555
1.41884
1.44227
1.46582
1.48948
1.51325
1.53712
1.56107
1.58511
1.60921
1.63337
1.65759
1.68185
1.70614
1.73046
1.75481
1.77917
1.80353
1.8279
1.85227
1.87663
1.90098
1.92532
1.94965
1.97396
1.99827
2.02259
2.04691
2.07127
2.0956
2.11986
2.144
2.16799
2.19183
2.21548
2.23893
2.26217
2.28518
2.30794
2.33045
2.35269
2.37463
2.39628
2.41761
2.43861
2.45927
2.47957
2.49949
2.51903
2.53817
2.5569
2.57521
2.59308
2.61051
2.62749
2.64401
2.66006
2.67562
2.69069
2.70523
2.71923
2.73266
2.74548
2.75766
2.76914
2.77989
2.78983
2.79891
2.80704
2.81414
2.8201
2.82482
2.82816
2.83
2.83017
2.82853
2.82491
2.81917
2.81119
2.80089
2.78828
2.77343
2.7566
2.73805
2.71808
2.69745
2.67805
2.66258
2.6527
2.64838
2.64852
2.65165
2.65635
2.6612
2.66488
2.66655
2.66577
2.66236
2.65625
2.64751
2.63624
2.62263
2.60692
2.58946
2.57072
2.55145
2.53306
2.51696
2.50623
0.230173
0.219964
0.216896
0.21682
0.219068
0.223249
0.229047
0.236204
0.244507
0.253776
0.263853
0.274606
0.285921
0.297708
0.309896
0.322427
0.335261
0.348365
0.361718
0.375303
0.389109
0.403128
0.417352
0.431779
0.446402
0.461219
0.476226
0.491418
0.506794
0.522348
0.538079
0.553984
0.570061
0.586308
0.602725
0.619311
0.636068
0.652998
0.670102
0.687387
0.704855
0.722514
0.740369
0.75843
0.776704
0.795201
0.813931
0.832904
0.852132
0.871626
0.891396
0.911454
0.931811
0.952475
0.973456
0.994763
1.0164
1.03838
1.0607
1.08337
1.10638
1.12975
1.15346
1.17751
1.2019
1.22663
1.25168
1.27705
1.30272
1.32869
1.35493
1.38145
1.40822
1.43523
1.46245
1.48989
1.51751
1.5453
1.57325
1.60132
1.62952
1.65781
1.68619
1.71463
1.74313
1.77168
1.80025
1.82884
1.85743
1.88603
1.91462
1.94319
1.97174
2.00026
2.02875
2.0572
2.08562
2.11401
2.14237
2.17067
2.19876
2.22668
2.25439
2.28187
2.30911
2.33607
2.36274
2.38911
2.41514
2.44082
2.46613
2.49104
2.51555
2.53964
2.56327
2.58644
2.60912
2.63129
2.65294
2.67405
2.6946
2.71458
2.73396
2.75275
2.77092
2.78848
2.80541
2.82171
2.83736
2.85236
2.8667
2.88035
2.89331
2.90553
2.91701
2.9277
2.93757
2.94658
2.9547
2.96186
2.96802
2.9731
2.97702
2.97972
2.98108
2.98101
2.97939
2.97612
2.97109
2.96423
2.95552
2.945
2.93268
2.91886
2.90363
2.88698
2.86922
2.85163
2.83609
2.82381
2.81486
2.80865
2.80454
2.80188
2.79966
2.79679
2.79248
2.7863
2.77802
2.76756
2.75496
2.7403
2.72375
2.70553
2.68594
2.66546
2.64478
2.62511
2.6074
2.59341
0.237983
0.223381
0.218547
0.217358
0.218785
0.222259
0.22737
0.233821
0.24138
0.249866
0.259122
0.269019
0.27945
0.290325
0.301576
0.313151
0.325008
0.337121
0.349469
0.362038
0.374819
0.387808
0.400999
0.414391
0.427984
0.441777
0.45577
0.469964
0.48436
0.49896
0.513767
0.528784
0.544014
0.559463
0.575136
0.591041
0.607184
0.623574
0.640222
0.657138
0.674334
0.691822
0.709615
0.727728
0.746173
0.764967
0.784122
0.803655
0.823579
0.843909
0.864658
0.885839
0.907464
0.929542
0.952084
0.975096
0.998584
1.02255
1.04701
1.07194
1.09737
1.12327
1.14965
1.1765
1.20381
1.23157
1.25977
1.2884
1.31744
1.34688
1.37669
1.40685
1.43736
1.46818
1.49929
1.53067
1.5623
1.59415
1.6262
1.65841
1.69077
1.72325
1.75582
1.78846
1.82115
1.85389
1.88665
1.91941
1.95217
1.98491
2.01763
2.05032
2.08296
2.11555
2.14808
2.18055
2.21295
2.24528
2.27752
2.30948
2.34117
2.37261
2.40375
2.43459
2.4651
2.49526
2.52503
2.55439
2.58332
2.6118
2.63979
2.66729
2.69425
2.72067
2.74652
2.77176
2.79639
2.82037
2.84368
2.8663
2.88821
2.90939
2.92982
2.9495
2.9684
2.98652
3.00386
3.0204
3.03614
3.05108
3.06521
3.07852
3.091
3.10262
3.11337
3.12322
3.13216
3.14015
3.14718
3.15321
3.15821
3.16213
3.16493
3.16656
3.16694
3.16602
3.16372
3.15997
3.15471
3.14787
3.13953
3.12973
3.11854
3.10609
3.09237
3.07719
3.06063
3.04347
3.02705
3.01226
2.99924
2.98775
2.97763
2.96867
2.96026
2.95157
2.94191
2.93085
2.91816
2.90373
2.88757
2.86975
2.85041
2.82974
2.80804
2.78575
2.76348
2.74224
2.72262
2.70558
0.246415
0.226693
0.219937
0.217658
0.218356
0.221234
0.225775
0.231635
0.238566
0.246385
0.254941
0.26411
0.273792
0.283903
0.294379
0.305171
0.316242
0.327567
0.339128
0.350916
0.362923
0.375147
0.387587
0.400245
0.413122
0.426223
0.439552
0.453113
0.466913
0.480959
0.495256
0.509814
0.524643
0.539751
0.555151
0.570855
0.586876
0.603228
0.619925
0.636985
0.654424
0.672257
0.690504
0.70918
0.728304
0.747893
0.767963
0.788532
0.809616
0.831229
0.853387
0.876102
0.899385
0.923247
0.947694
0.972734
0.998371
1.02461
1.05144
1.07888
1.10691
1.13553
1.16474
1.19453
1.22488
1.25579
1.28724
1.3192
1.35168
1.38464
1.41806
1.45192
1.4862
1.52086
1.5559
1.59126
1.62693
1.66288
1.69906
1.73545
1.772
1.80869
1.84549
1.88236
1.91928
1.95623
1.9932
2.03015
2.06709
2.104
2.14086
2.17766
2.21441
2.25108
2.28767
2.32418
2.36058
2.39688
2.43285
2.46848
2.50378
2.53874
2.57334
2.60755
2.64134
2.67469
2.70756
2.73993
2.77177
2.80304
2.83373
2.86379
2.89322
2.92198
2.95005
2.97738
3.00397
3.02976
3.05475
3.07891
3.1022
3.12461
3.14612
3.16672
3.1864
3.20514
3.22293
3.23977
3.25567
3.27061
3.2846
3.29763
3.3097
3.32079
3.33087
3.33994
3.34799
3.35499
3.36094
3.36582
3.36961
3.37228
3.3738
3.37417
3.37332
3.37121
3.36781
3.36308
3.35699
3.34953
3.34076
3.33074
3.31954
3.30721
3.29367
3.27866
3.2621
3.24447
3.22667
3.20937
3.19277
3.17683
3.16165
3.14729
3.13343
3.11949
3.10493
3.08934
3.07248
3.05425
3.03463
3.01367
2.99149
2.96827
2.94428
2.91992
2.89574
2.87253
2.85061
2.83048
0.255377
0.229792
0.220956
0.217603
0.217646
0.220013
0.22407
0.229419
0.2358
0.243028
0.250961
0.259484
0.268503
0.277944
0.287748
0.29787
0.308278
0.31895
0.329872
0.341035
0.352437
0.364076
0.375956
0.38808
0.400455
0.413088
0.425985
0.439157
0.452612
0.466362
0.480418
0.494792
0.509499
0.524552
0.539967
0.555761
0.571951
0.588555
0.605592
0.623081
0.641042
0.659496
0.678461
0.697958
0.718006
0.738624
0.75983
0.781642
0.804077
0.82715
0.850877
0.87527
0.900341
0.926098
0.952548
0.979696
1.00754
1.0361
1.06535
1.0953
1.12596
1.1573
1.18933
1.22204
1.25542
1.28945
1.32411
1.3594
1.39528
1.43174
1.46876
1.5063
1.54435
1.58287
1.62183
1.66121
1.70095
1.74103
1.7814
1.82202
1.86285
1.90383
1.94493
1.98611
2.02734
2.06859
2.10984
2.15106
2.19225
2.23338
2.27444
2.31544
2.35635
2.39717
2.43789
2.47849
2.51898
2.55913
2.59885
2.63818
2.67711
2.71562
2.75369
2.79128
2.82836
2.8649
2.90086
2.93621
2.97092
3.00497
3.0383
3.07091
3.10275
3.13381
3.16404
3.19342
3.22191
3.24947
3.27608
3.30171
3.32633
3.34991
3.37245
3.39392
3.41432
3.43364
3.45185
3.46896
3.48496
3.49987
3.51369
3.52642
3.53805
3.54858
3.55798
3.56624
3.57335
3.57931
3.58412
3.58778
3.59027
3.59156
3.59167
3.59059
3.58829
3.58474
3.57994
3.57387
3.56652
3.5579
3.54807
3.53709
3.52503
3.5119
3.49757
3.4818
3.46442
3.4457
3.42622
3.40649
3.38672
3.36701
3.34756
3.32856
3.30992
3.29128
3.27222
3.25242
3.23165
3.20979
3.18681
3.16275
3.13771
3.11187
3.08546
3.05886
3.03251
3.00705
2.9826
2.95938
0.264791
0.23261
0.221543
0.217133
0.216577
0.218497
0.222126
0.227018
0.232898
0.239584
0.246942
0.254868
0.26328
0.272112
0.281312
0.29084
0.300669
0.310781
0.321163
0.331812
0.342724
0.353904
0.365356
0.377086
0.389103
0.401418
0.41404
0.426982
0.440256
0.453877
0.46786
0.48222
0.496975
0.512142
0.527741
0.543789
0.560309
0.577321
0.594846
0.612908
0.631527
0.650727
0.670528
0.690953
0.712021
0.733754
0.75617
0.779287
0.803125
0.827699
0.853025
0.879117
0.905985
0.933638
0.962084
0.991326
1.02136
1.0522
1.08384
1.11627
1.1495
1.18351
1.21832
1.2539
1.29025
1.32736
1.36521
1.40377
1.44303
1.48297
1.52357
1.56479
1.60662
1.64901
1.69193
1.73534
1.77921
1.82348
1.86812
1.91306
1.95825
2.00363
2.04914
2.09474
2.14038
2.18603
2.23165
2.27723
2.32274
2.36817
2.41351
2.45875
2.50389
2.54892
2.59382
2.6386
2.68303
2.72696
2.77042
2.81343
2.85595
2.89797
2.93945
2.98034
3.02062
3.06024
3.09918
3.1374
3.17485
3.21152
3.24735
3.28233
3.31643
3.34961
3.38185
3.41309
3.44329
3.47243
3.50046
3.52737
3.55311
3.57768
3.60104
3.62319
3.64412
3.66384
3.6823
3.69949
3.71542
3.73013
3.7436
3.75586
3.76689
3.77671
3.78528
3.79256
3.79857
3.80333
3.80683
3.80909
3.81009
3.80984
3.80836
3.80563
3.80165
3.79642
3.78993
3.78218
3.77318
3.76296
3.75157
3.73907
3.72552
3.71091
3.69511
3.67791
3.65913
3.63889
3.61756
3.5955
3.57291
3.54996
3.52688
3.50392
3.48113
3.45831
3.43521
3.41154
3.38713
3.36185
3.33568
3.30865
3.28084
3.25241
3.22359
3.19468
3.16608
3.13829
3.11125
3.08504
0.274586
0.235119
0.221688
0.216235
0.215122
0.216635
0.219871
0.224336
0.229742
0.235911
0.242721
0.250082
0.257922
0.266185
0.274828
0.283816
0.293127
0.302746
0.312663
0.322875
0.333384
0.344193
0.355309
0.366742
0.378501
0.390599
0.403049
0.415864
0.429062
0.442658
0.456669
0.471116
0.486017
0.501392
0.517263
0.533652
0.550581
0.568075
0.586157
0.604851
0.624182
0.644174
0.66485
0.686234
0.708347
0.731212
0.754848
0.779276
0.804515
0.830583
0.857497
0.885271
0.913919
0.94345
0.97387
1.00518
1.03739
1.07048
1.10447
1.13935
1.17512
1.21179
1.24934
1.28777
1.32708
1.36725
1.40826
1.45009
1.49273
1.53616
1.58035
1.62527
1.6709
1.7172
1.76413
1.81164
1.85969
1.90823
1.9572
2.00654
2.05619
2.10606
2.15608
2.2062
2.25635
2.30649
2.35658
2.40658
2.45648
2.50626
2.55591
2.60543
2.65481
2.70406
2.75318
2.8019
2.85005
2.89766
2.94475
2.99129
3.03727
3.08263
3.12731
3.17129
3.21453
3.257
3.29865
3.33944
3.37935
3.41834
3.45636
3.4934
3.52941
3.56439
3.5983
3.63108
3.66265
3.693
3.7221
3.74992
3.77643
3.80161
3.82544
3.84791
3.86903
3.88885
3.90722
3.92416
3.93971
3.95389
3.96672
3.97819
3.98833
3.99711
4.00454
4.01058
4.01526
4.01858
4.02055
4.02118
4.02047
4.01845
4.01512
4.0105
4.00459
3.9974
3.98894
3.97921
3.96824
3.95605
3.94269
3.92824
3.91273
3.89616
3.87842
3.85934
3.83875
3.8167
3.7934
3.7691
3.74398
3.71821
3.69203
3.66569
3.63932
3.61286
3.58615
3.559
3.53126
3.50285
3.47372
3.44391
3.4135
3.38263
3.35149
3.32037
3.28958
3.25952
3.23001
3.20106
0.28472
0.237329
0.221421
0.214935
0.213293
0.214419
0.217276
0.221321
0.226261
0.231925
0.238202
0.245016
0.252309
0.260034
0.268156
0.276647
0.285488
0.294666
0.304175
0.314013
0.324182
0.334687
0.345537
0.356741
0.368311
0.380262
0.392607
0.405364
0.418549
0.432183
0.446284
0.460875
0.475976
0.491611
0.507802
0.524576
0.541955
0.559968
0.578638
0.597993
0.61806
0.638865
0.660434
0.682791
0.705962
0.72997
0.754837
0.780586
0.807238
0.834812
0.863328
0.892801
0.923248
0.954678
0.987097
1.02051
1.05491
1.0903
1.12667
1.16404
1.20239
1.24174
1.28208
1.32341
1.36572
1.409
1.45322
1.49837
1.54444
1.5914
1.63924
1.68792
1.73742
1.7877
1.8387
1.89038
1.94268
1.99553
2.0489
2.10269
2.15683
2.21125
2.26585
2.32055
2.37528
2.42996
2.48455
2.53901
2.59331
2.64743
2.70137
2.75513
2.8087
2.86214
2.91505
2.96733
3.01899
3.07004
3.12046
3.17024
3.21936
3.2677
3.31522
3.36188
3.40766
3.45252
3.49643
3.53934
3.58122
3.62204
3.66175
3.70032
3.73774
3.77398
3.80908
3.84289
3.8753
3.90634
3.93597
3.96418
3.99092
4.0162
4.03998
4.06226
4.08306
4.10237
4.12016
4.13641
4.15116
4.16442
4.17621
4.18654
4.1954
4.20281
4.20875
4.21323
4.21624
4.21781
4.21793
4.21663
4.21393
4.20984
4.2044
4.19762
4.18951
4.1801
4.16939
4.1574
4.14416
4.12971
4.11409
4.09737
4.07958
4.06072
4.04072
4.01946
3.9968
3.97274
3.9474
3.92093
3.89349
3.86524
3.83639
3.80718
3.77775
3.74814
3.71826
3.68802
3.65731
3.62606
3.59426
3.56193
3.52916
3.49606
3.46282
3.42967
3.39687
3.36473
3.33299
3.30162
0.29519
0.239289
0.22081
0.2133
0.21114
0.211879
0.214348
0.217965
0.222433
0.227589
0.233339
0.23962
0.246387
0.253602
0.261238
0.269272
0.277687
0.286474
0.295626
0.305142
0.315025
0.325281
0.335919
0.346949
0.358384
0.370238
0.382529
0.395275
0.408496
0.422212
0.436447
0.451224
0.466567
0.482502
0.499055
0.516253
0.534124
0.552697
0.571999
0.59206
0.612908
0.634574
0.657086
0.680473
0.704761
0.729978
0.75615
0.783302
0.811456
0.840634
0.870854
0.902137
0.934498
0.967949
1.0025
1.03814
1.07488
1.1127
1.15162
1.19163
1.23273
1.27492
1.3182
1.36258
1.40806
1.4546
1.50217
1.55078
1.60039
1.651
1.7026
1.75515
1.80862
1.86296
1.91812
1.97404
2.03065
2.08787
2.14563
2.20384
2.26245
2.32137
2.38052
2.43979
2.49906
2.55825
2.61729
2.67615
2.73477
2.79315
2.85127
2.90919
2.96677
3.02362
3.07979
3.13525
3.18999
3.24399
3.29722
3.34969
3.40145
3.4522
3.50192
3.55062
3.59827
3.64485
3.69033
3.73466
3.77781
3.81974
3.86043
3.89983
3.93791
3.97467
4.01009
4.0441
4.07664
4.10767
4.13717
4.16509
4.19142
4.21615
4.23927
4.26077
4.28066
4.29894
4.3156
4.33064
4.34406
4.3559
4.36617
4.37487
4.38202
4.38762
4.39167
4.39416
4.39512
4.39456
4.39249
4.38893
4.3839
4.37745
4.3696
4.36038
4.34981
4.33791
4.3247
4.31022
4.29448
4.27754
4.25943
4.24021
4.21993
4.19858
4.17614
4.15253
4.12764
4.10145
4.07403
4.04547
4.01589
3.98543
3.95426
3.92259
3.89056
3.85826
3.82566
3.79272
3.7594
3.72566
3.69151
3.65697
3.62213
3.58709
3.55201
3.51708
3.48252
3.44859
3.41494
3.38155
0.306067
0.241087
0.21996
0.211429
0.208744
0.209076
0.21113
0.214294
0.218272
0.222914
0.228141
0.233904
0.240169
0.246909
0.254099
0.261721
0.26976
0.278206
0.287054
0.296303
0.305954
0.316014
0.326493
0.337402
0.348755
0.360567
0.372856
0.385643
0.398952
0.412805
0.427231
0.442254
0.457903
0.474208
0.491198
0.508905
0.527359
0.546592
0.566637
0.587524
0.609286
0.631956
0.655567
0.680151
0.705739
0.732364
0.760056
0.788846
0.818757
0.84981
0.882019
0.915399
0.949969
0.985742
1.02272
1.06091
1.10029
1.14088
1.18268
1.22568
1.26987
1.31527
1.36185
1.40963
1.45859
1.5087
1.55991
1.61222
1.66562
1.7201
1.77564
1.83222
1.88979
1.9483
2.0077
2.06791
2.12884
2.1904
2.25249
2.31497
2.37783
2.44103
2.50455
2.56828
2.63188
2.69535
2.75863
2.82167
2.8844
2.94681
3.00884
3.07015
3.13062
3.19026
3.24908
3.30703
3.36408
3.42022
3.47541
3.52962
3.58284
3.63497
3.68595
3.73576
3.78436
3.83174
3.87786
3.92268
3.96617
4.0083
4.04905
4.08836
4.12623
4.16262
4.19751
4.23089
4.26269
4.29287
4.32141
4.34824
4.37336
4.39678
4.4185
4.4385
4.4568
4.4734
4.4883
4.50149
4.513
4.52284
4.53103
4.53759
4.54252
4.54582
4.5475
4.54758
4.54606
4.54296
4.53831
4.53214
4.52447
4.51535
4.50481
4.49288
4.4796
4.46499
4.44907
4.43189
4.41347
4.39387
4.37312
4.35128
4.32838
4.30445
4.27949
4.25345
4.22627
4.19792
4.16844
4.13787
4.10631
4.07386
4.04067
4.0069
3.97269
3.93812
3.90322
3.868
3.83247
3.79662
3.76047
3.72408
3.6875
3.65084
3.61423
3.57784
3.54184
3.50645
3.47127
3.43628
0.317524
0.242861
0.219016
0.209458
0.206225
0.206107
0.207701
0.210373
0.213837
0.217958
0.222672
0.227943
0.233745
0.240056
0.246855
0.254124
0.261849
0.27002
0.278629
0.287677
0.297164
0.307098
0.317489
0.32835
0.339699
0.351552
0.363931
0.376854
0.39035
0.40445
0.419185
0.434587
0.450687
0.467521
0.485125
0.503537
0.522792
0.542929
0.563983
0.585988
0.608981
0.633003
0.658095
0.684292
0.711618
0.740116
0.769823
0.800779
0.833015
0.86655
0.901363
0.937456
0.974844
1.01354
1.05353
1.09484
1.13746
1.1814
1.22667
1.27326
1.32114
1.37031
1.42075
1.47244
1.52541
1.57956
1.6348
1.69116
1.74867
1.80729
1.86702
1.92779
1.98958
2.05233
2.11596
2.18039
2.24552
2.31123
2.37737
2.44375
2.51047
2.57744
2.64461
2.71187
2.77907
2.8461
2.91297
2.97964
3.04585
3.11121
3.17557
3.23896
3.30135
3.36273
3.42308
3.48236
3.54055
3.59761
3.65353
3.70828
3.76182
3.81413
3.86515
3.91485
3.96322
4.01021
4.05581
4.09998
4.14269
4.18392
4.22363
4.2618
4.29841
4.33342
4.36682
4.39858
4.42868
4.45708
4.48373
4.50857
4.53162
4.55289
4.57238
4.5901
4.60606
4.62026
4.6327
4.6434
4.65235
4.65959
4.66513
4.66899
4.67116
4.67166
4.6705
4.6677
4.66328
4.65726
4.64968
4.64056
4.62995
4.61788
4.6044
4.58955
4.57336
4.55585
4.53707
4.51704
4.49582
4.47346
4.45
4.4255
4.39997
4.37347
4.34602
4.3176
4.28816
4.2577
4.22621
4.19374
4.16035
4.12612
4.09117
4.05563
4.01961
3.9832
3.94643
3.90937
3.87206
3.83453
3.79681
3.75896
3.72103
3.68312
3.64534
3.60785
3.57078
3.53431
3.49803
3.4619
0.330404
0.244883
0.218151
0.207517
0.203668
0.203018
0.204071
0.206188
0.209097
0.212685
0.216899
0.221712
0.227102
0.233047
0.239526
0.246521
0.254016
0.262
0.270466
0.279414
0.288845
0.29877
0.3092
0.320155
0.331655
0.343726
0.356394
0.369689
0.383636
0.398264
0.413619
0.429742
0.446661
0.464427
0.483085
0.502685
0.523272
0.544896
0.567603
0.591418
0.616384
0.642577
0.670062
0.698795
0.728754
0.760019
0.792652
0.826714
0.862266
0.899407
0.937917
0.97778
1.01902
1.0616
1.10551
1.1508
1.1975
1.24561
1.29514
1.34607
1.39839
1.45205
1.50698
1.5631
1.62031
1.67875
1.73835
1.79908
1.86091
1.92382
1.98776
2.05267
2.11851
2.18519
2.25265
2.32079
2.38952
2.45872
2.52828
2.59816
2.66822
2.73838
2.80852
2.87853
2.94849
3.01836
3.08767
3.15592
3.22304
3.28903
3.35388
3.41758
3.48009
3.5414
3.60148
3.6603
3.71784
3.77407
3.82898
3.88257
3.9348
3.98565
4.03511
4.08314
4.12972
4.17482
4.21843
4.2605
4.30103
4.33999
4.37735
4.41308
4.44716
4.47957
4.51028
4.53928
4.56655
4.59204
4.61575
4.63764
4.65773
4.676
4.69248
4.70716
4.72005
4.73117
4.74052
4.7481
4.75394
4.75804
4.76042
4.76109
4.76007
4.75736
4.75299
4.74697
4.73935
4.73016
4.71943
4.7072
4.69351
4.6784
4.66192
4.6441
4.62498
4.6046
4.58298
4.56018
4.53626
4.51125
4.48522
4.45821
4.43018
4.40124
4.37143
4.34074
4.30916
4.27669
4.24331
4.20908
4.17402
4.13822
4.10175
4.06474
4.02728
3.98944
3.95129
3.91288
3.87429
3.83556
3.79673
3.75787
3.71903
3.68029
3.64177
3.60359
3.56587
3.52877
3.49186
3.45511
0.343949
0.24725
0.217798
0.206126
0.201608
0.200346
0.200795
0.202333
0.204709
0.207823
0.211628
0.216097
0.221204
0.226926
0.233238
0.240118
0.247551
0.255526
0.264042
0.273102
0.282714
0.292893
0.30366
0.315041
0.327062
0.339759
0.353177
0.36736
0.382355
0.398216
0.415028
0.43272
0.451243
0.47076
0.491342
0.513055
0.535964
0.560145
0.585713
0.612581
0.640743
0.670289
0.701261
0.733662
0.767523
0.802894
0.839821
0.878348
0.918508
0.960311
1.00368
1.04855
1.09481
1.14231
1.19105
1.24121
1.29278
1.34577
1.40015
1.45591
1.513
1.57138
1.63098
1.69177
1.75375
1.81687
1.88102
1.94615
2.01219
2.07908
2.14677
2.21519
2.28427
2.35395
2.42413
2.49473
2.56565
2.63679
2.70805
2.77931
2.85046
2.92159
2.9925
3.0631
3.13299
3.20189
3.26963
3.33616
3.40149
3.46562
3.52854
3.5902
3.65057
3.70961
3.76728
3.82358
3.87847