/*--------------------------------*- C++ -*----------------------------------*\
| =========                 |                                                 |
| \\      /  F ield         | OpenFOAM: The Open Source CFD Toolbox           |
|  \\    /   O peration     | Version:  2112                                  |
|   \\  /    A nd           | Website:  www.openfoam.com                      |
|    \\/     M anipulation  |                                                 |
\*---------------------------------------------------------------------------*/
FoamFile
{
    version     2.0;
    format      ascii;
    arch        "LSB;label=32;scalar=64";
    class       volScalarField;
    location    "0.03";
    object      epsilonU;
}
// * * * * * * * * * * * * * * * * * * * * * * * * * * * * * * * * * * * * * //

dimensions      [0 2 -3 0 0 0 0];

internalField   nonuniform List<scalar> 
12225
(
2117.4
3607.8
4525.93
4942.35
5034.4
4946.45
4769.4
4554.78
4330.02
4108.54
3895.88
3693.23
3499.43
3311.99
3127.55
2942.12
2750.98
2549.37
164.96
344.815
481.814
571.215
623.412
650.276
662.41
667.769
671.356
676.147
683.96
695.995
713.192
736.474
766.953
806.08
856.504
921.258
35.3459
63.6662
89.7461
111.295
127.918
139.73
147.497
152.297
155.163
156.971
158.447
160.205
162.793
166.764
172.757
181.602
194.566
213.437
19.2707
26.0214
32.9809
39.4174
45.0686
49.815
53.6631
56.7123
59.1015
60.9808
62.5008
63.81
65.0577
66.4032
68.0335
70.1894
73.2268
77.6238
15.8688
17.844
20.1625
22.513
24.7437
26.7716
28.562
30.1154
31.4516
32.6006
33.5983
34.4845
35.3021
36.0988
36.9303
37.8658
38.9997
40.4509
14.9681
15.4787
16.2394
17.1192
18.0335
18.9282
19.7713
20.5483
21.2556
21.8969
22.4801
23.0168
23.5209
24.0091
24.5012
25.021
25.5984
26.2619
14.7209
14.7342
14.8861
15.1379
15.4523
15.799
16.1556
16.5082
16.8486
17.1735
17.4826
17.7783
18.0648
18.3482
18.6362
18.9384
19.2657
19.6239
14.6554
14.5056
14.4216
14.3985
14.4256
14.4905
14.5816
14.6898
14.8085
14.9334
15.0622
15.194
15.3294
15.4705
15.6199
15.7815
15.9598
16.1544
14.639
14.4402
14.2726
14.1379
14.0351
13.9608
13.9109
13.881
13.8676
13.8678
13.8794
13.9012
13.9327
13.9742
14.0265
14.0912
14.1698
14.2608
14.6351
14.4229
14.2289
14.0542
13.8991
13.7632
13.6453
13.5441
13.4581
13.3858
13.3262
13.2784
13.2419
13.2167
13.2029
13.201
13.2117
13.2335
14.6341
14.4186
14.2172
14.0299
13.8565
13.6969
13.5505
13.417
13.2958
13.1862
13.0879
13.0005
12.9237
12.8575
12.8019
12.7572
12.7236
12.7003
14.6339
14.4176
14.2145
14.024
13.8454
13.6784
13.5225
13.3773
13.2425
13.1177
13.0027
12.8972
12.8012
12.7146
12.6375
12.5699
12.5121
12.4636
14.6338
14.4173
14.2138
14.0223
13.8421
13.6727
13.5134
13.3638
13.2235
13.0922
12.9696
12.8555
12.7498
12.6525
12.5636
12.4831
12.411
12.3474
14.6337
14.4171
14.2135
14.0218
13.8413
13.6712
13.511
13.3601
13.2179
13.0843
12.9587
12.8411
12.7312
12.629
12.5343
12.447
12.3673
12.2952
14.6336
14.417
14.2134
14.0217
13.8412
13.6711
13.5108
13.3596
13.2172
13.083
12.9568
12.8382
12.727
12.623
12.5261
12.436
12.3527
12.2767
14.6336
14.4169
14.2132
14.0216
13.8412
13.6712
13.511
13.3601
13.2178
13.0838
12.9576
12.839
12.7275
12.6231
12.5254
12.4342
12.3494
12.2713
14.6335
14.4168
14.2131
14.0215
13.8412
13.6714
13.5114
13.3607
13.2187
13.085
12.9591
12.8406
12.7293
12.6248
12.5268
12.435
12.3493
12.2701
14.6334
14.4166
14.2129
14.0214
13.8412
13.6716
13.5119
13.3615
13.2199
13.0865
12.9609
12.8427
12.7315
12.627
12.5289
12.4367
12.3504
12.2704
14.6333
14.4165
14.2128
14.0213
13.8413
13.6719
13.5125
13.3625
13.2212
13.0882
12.963
12.8451
12.7341
12.6297
12.5315
12.4391
12.3524
12.2716
14.6332
14.4164
14.2127
14.0214
13.8415
13.6724
13.5133
13.3636
13.2227
13.0901
12.9652
12.8477
12.737
12.6327
12.5345
12.4421
12.3551
12.2739
14.6332
14.4163
14.2128
14.0216
13.842
13.6732
13.5145
13.3652
13.2248
13.0927
12.9684
12.8513
12.7411
12.6373
12.5395
12.4474
12.3607
12.2798
14.6332
14.4164
14.2131
14.0224
13.8435
13.6756
13.5181
13.3704
13.2318
13.1018
12.9798
12.8653
12.7579
12.6569
12.5621
12.473
12.3892
12.3112
14.6334
14.4174
14.2157
14.0279
13.8535
13.6917
13.5418
13.4031
13.2747
13.1559
13.0458
12.9438
12.8491
12.761
12.6791
12.6026
12.5313
12.4653
14.6352
14.4257
14.2372
14.0701
13.924
13.7973
13.6879
13.5936
13.5117
13.4401
13.3769
13.3203
13.2696
13.2235
13.1811
13.1417
13.1049
13.0707
14.6521
14.4918
14.3871
14.3333
14.3212
14.341
14.3829
14.4384
14.501
14.5657
14.6287
14.6875
14.7399
14.7852
14.8231
14.854
14.8792
14.8994
14.782
14.9165
15.218
15.6285
16.0973
16.5855
17.0654
17.5191
17.9358
18.3097
18.6387
18.9229
19.1641
19.3653
19.53
19.6614
19.7627
19.8389
15.6376
17.2369
19.1783
21.2087
23.1927
25.049
26.7245
28.1928
29.4473
30.4931
31.3435
32.0164
32.5323
32.9118
33.1755
33.3424
33.4299
33.4558
21.1309
30.2646
39.5592
48.3856
56.4266
63.4453
69.263
73.8691
77.349
79.8313
81.464
82.3992
82.7793
82.7311
82.3633
81.7691
81.0236
80.201
70.7139
133.774
192.414
245.061
289.231
323.437
347.717
363.592
372.96
377.547
378.788
377.808
375.453
372.336
368.894
365.446
362.23
359.563
983.064
1560.03
2041.18
2445.82
2751.08
2958.03
3080.1
3135.22
3141.21
3113.46
3064.1
3002.15
2934.02
2864.08
2795.2
2729.14
2666.84
2608.94
66.2315
99.2162
193.167
247.549
282.578
304.682
317.256
322.529
322.127
317.278
308.867
297.524
284.559
271.4
257.112
240.964
222.343
200.767
176.006
148.333
118.958
90.5669
67.503
54.9024
60.0574
90.88
136.643
181.073
213.171
218.354
206.295
194.738
178.933
166.332
199.718
303.784
412.862
518.821
616.309
702.759
777.325
840.166
891.997
933.81
966.705
991.787
1010.12
1022.68
1030.39
1034.06
1034.44
1032.22
1028
1022.34
1015.59
1007.97
999.768
991.232
982.582
974.004
965.654
957.657
950.101
943.04
936.488
930.415
924.744
919.341
914.004
908.454
902.314
895.1
886.21
874.927
860.446
841.93
818.602
789.874
755.475
715.571
670.804
622.257
571.327
519.563
468.539
419.956
376.479
345.261
325.087
307.331
291.042
276.034
262.223
249.529
237.867
227.149
217.288
208.203
199.817
192.06
184.873
178.201
171.999
166.227
160.851
155.844
151.181
146.844
142.815
139.082
135.632
132.455
129.543
126.887
124.481
122.317
120.386
118.682
117.194
115.914
114.831
113.933
113.208
112.641
112.219
111.926
111.743
111.614
111.493
111.349
111.157
110.905
110.592
110.222
109.805
109.353
108.88
108.397
107.913
107.438
106.979
106.54
106.125
105.737
105.378
105.048
104.749
104.479
104.237
104.024
103.835
103.672
103.53
103.409
103.307
103.221
103.15
103.092
103.044
103.004
102.97
102.938
102.906
102.868
102.821
102.757
102.67
102.551
102.386
102.161
101.855
101.44
100.878
100.119
99.0898
97.6811
95.7611
93.0152
89.4354
83.0618
106.47
258.523
282.171
273.673
260.502
245.624
229.779
213.691
197.914
182.893
169.001
156.607
146.662
140.227
136.274
133.897
132.274
130.628
128.14
123.915
117.17
107.907
98.0768
92.6417
99.2019
127.164
190.626
258.803
351.201
496.918
699.561
814.527
825.731
780.687
722.395
671.174
625.174
583.146
544.588
509.366
477.318
448.233
421.902
398.144
376.827
357.864
341.205
326.821
314.704
304.853
297.276
291.989
289.001
288.377
288.929
289.575
290.3
291.14
292.143
293.361
294.844
296.644
298.801
301.35
304.316
307.716
311.551
315.811
320.468
325.466
330.707
336.042
341.24
345.976
349.815
352.219
352.579
350.287
344.835
335.925
323.549
308.027
289.958
270.129
249.399
228.602
208.411
190.426
175.745
162.59
150.671
139.873
130.101
121.26
113.257
106.001
99.4096
93.4055
87.9213
82.8971
78.2807
74.0266
70.0957
66.4542
63.0731
59.9275
56.9959
54.2599
51.7039
49.314
47.0785
44.987
43.0305
41.2009
39.491
37.8943
36.4049
35.0172
33.7261
32.5266
31.4142
30.3844
29.4331
28.5562
27.7502
27.0121
26.3416
25.7745
25.313
24.9378
24.6282
24.3661
24.1374
23.9322
23.7451
23.5735
23.4171
23.2769
23.154
23.0487
22.9623
22.8962
22.851
22.8265
22.822
22.8366
22.869
22.9178
22.9814
23.0584
23.1472
23.2464
23.3544
23.4699
23.5915
23.7182
23.8489
23.9828
24.1194
24.2583
24.3995
24.543
24.6892
24.8391
24.9935
25.1542
25.3234
25.504
25.7002
25.9173
26.1633
26.4486
26.7888
27.2062
27.734
28.4237
29.3549
30.6666
32.5522
35.7534
278.313
370.121
315.825
271.138
241.778
221.025
204.34
189.232
174.724
160.778
147.776
136.167
126.291
118.509
112.815
108.981
106.699
105.686
105.749
106.891
109.613
115.916
132.013
173.368
265.149
422.591
630.272
876.78
975.471
948.498
879.501
786.886
685.957
593.15
516.725
456.39
408.156
369.1
337.358
311.672
291.09
274.815
262.148
252.471
245.253
240.048
236.49
234.274
233.136
232.843
233.186
233.976
235.043
236.04
236.65
236.818
236.571
235.979
235.144
234.191
233.261
232.502
232.062
232.082
232.689
233.996
236.1
239.08
242.995
247.88
253.728
260.474
267.963
275.917
283.899
291.298
297.351
301.204
302.044
299.247
292.528
282.013
268.212
251.909
234
215.324
196.5
179.707
164.908
151.5
139.343
128.35
118.429
109.482
101.409
94.1162
87.513
81.5192
76.063
71.0813
66.5189
62.328
58.4672
54.901
51.5987
48.5336
45.6832
43.0275
40.5497
38.2349
36.0703
34.0445
32.1477
30.371
28.7067
27.1476
25.6873
24.3199
23.0401
21.8427
20.723
19.6767
18.6995
17.7875
16.937
16.1445
15.4073
14.7238
14.0918
13.508
12.9684
12.4692
12.0064
11.5768
11.1778
10.8069
10.4626
10.1437
9.84967
9.58189
9.33925
9.12007
8.92288
8.74637
8.58931
8.45051
8.3288
8.22283
8.13093
8.05205
7.98555
7.93058
7.88625
7.85165
7.82591
7.80818
7.79767
7.79364
7.79547
7.80258
7.8145
7.83089
7.85148
7.87617
7.905
7.93819
7.9762
8.01978
8.07006
8.12875
8.19831
8.28239
8.38637
8.51846
8.69159
8.92628
9.25933
9.74887
10.5364
11.8112
529.189
411.423
312.618
262.638
234.056
214.238
197.356
181.208
165.459
150.533
137.035
125.483
116.213
109.584
105.361
103.052
102.175
102.674
105.294
112.092
127.855
163.936
244.079
400.979
655.738
976.714
1112.9
1060.08
920.612
773.245
646.503
542.309
459.11
395.194
347.498
312.106
285.633
265.892
251.506
241.493
235.031
231.38
229.899
230.074
231.51
233.907
237.017
240.611
244.461
248.334
251.997
255.23
257.778
259.343
259.825
259.17
257.369
254.47
250.575
245.845
240.492
234.771
228.967
223.378
218.301
214.017
210.778
208.805
208.282
209.353
212.119
216.621
222.813
230.514
239.362
248.758
257.859
265.615
270.909
272.749
270.492
263.996
253.624
240.13
224.45
207.46
190.473
175.202
161.157
148.271
136.516
125.842
116.175
107.427
99.5094
92.3323
85.8136
79.8779
74.4584
69.4959
64.9391
60.7428
56.8685
53.2823
49.9553
46.8622
43.9814
41.294
38.7836
36.4358
34.2382
32.1798
30.2508
28.4426
26.7474
25.1584
23.669
22.2734
20.9663
19.7426
18.5975
17.5267
16.5259
15.5911
14.7186
13.9046
13.1459
12.4393
11.7818
11.1702
10.6017
10.0733
9.58213
9.12565
8.70142
8.30724
7.94116
7.60145
7.28661
6.99538
6.72649
6.47869
6.25075
6.04153
5.84993
5.67498
5.51582
5.37177
5.24257
5.12722
5.02434
4.93263
4.85093
4.77852
4.71468
4.65873
4.60997
4.56779
4.5316
4.50084
4.47503
4.45374
4.43659
4.42327
4.41353
4.40723
4.4043
4.40481
4.40894
4.41712
4.43001
4.4487
4.47487
4.51111
4.56164
4.6332
4.7379
4.89588
5.15322
5.57549
765.103
429.45
312.742
264.591
237.391
216.454
197.268
178.857
161.394
145.367
131.329
119.821
111.463
106.6
104.89
105.76
108.647
113.771
123.499
144.826
193.759
300.193
501.193
768.152
1007.56
1087.39
987.854
818.143
657.624
531.647
438.78
371.21
322.45
287.739
263.368
246.542
235.376
228.643
225.437
224.992
226.664
229.939
234.442
239.899
246.097
252.844
259.942
267.182
274.343
281.192
287.494
293.015
297.317
300.291
301.765
301.581
299.622
295.826
290.198
282.819
273.856
263.564
252.281
240.419
228.445
216.858
206.156
196.809
189.233
183.773
180.697
180.191
182.342
187.105
194.251
203.285
213.394
223.438
232.058
237.893
239.872
237.486
230.853
220.631
207.755
193.277
179.334
166.094
153.655
142.114
131.506
121.809
112.972
104.924
97.5919
90.9008
84.7815
79.171
74.0132
69.2584
64.8635
60.7909
57.008
53.4865
50.2018
47.1327
44.2606
41.5695
39.0453
36.6757
34.4498
32.358
30.3918
28.5436
26.8064
25.174
23.6406
22.201
20.8501
19.5832
18.396
17.2842
16.2439
15.2711
14.3622
13.5136
12.722
11.984
11.2966
10.6567
10.0613
9.50772
8.99321
8.51524
8.0714
7.65948
7.2774
6.92327
6.59534
6.292
6.01177
5.75324
5.5151
5.29611
5.09513
4.91104
4.74285
4.58961
4.45042
4.3244
4.21069
4.10854
4.0172
3.93554
3.86262
3.7977
3.74006
3.68906
3.64408
3.60454
3.56993
3.53976
3.51361
3.49108
3.47186
3.45567
3.44227
3.43153
3.42335
3.41775
3.41485
3.41496
3.41859
3.42665
3.4406
3.46288
3.49776
3.55263
3.64227
3.78982
967.769
441.032
320.062
275.142
247.934
225.136
203.764
183.537
164.737
147.721
133.029
121.517
114.767
112.479
114.375
120.419
131.397
150.595
184.538
247.908
360.119
533.096
743.264
908.12
945.336
854.368
704.43
561.26
450.274
371.41
316.933
279.518
254.077
237.261
226.812
221.177
219.253
220.199
223.347
228.172
234.284
241.399
249.306
257.837
266.839
276.157
285.634
295.098
304.362
313.218
321.438
328.686
334.645
339.155
341.978
342.884
341.67
338.174
332.296
324.006
313.362
300.516
285.734
269.395
251.994
234.133
216.496
199.804
184.765
172.018
162.084
155.345
152.036
152.235
155.835
162.478
171.474
181.746
191.869
200.251
205.43
206.503
203.256
196.164
186.102
175.052
163.819
152.805
142.303
132.474
123.38
115.019
107.353
100.326
93.8793
87.9505
82.4841
77.4293
72.7417
68.3824
64.3179
60.519
56.9609
53.622
50.4835
47.5293
44.7454
42.1196
39.6412
37.3007
35.0899
33.0015
31.0288
29.1659
27.4074
25.7483
24.1839
22.71
21.3223
20.017
18.7902
17.6384
16.5578
15.5451
14.597
13.71
12.8811
12.1072
11.3851
10.7121
10.0853
9.50198
8.95955
8.45553
7.98756
7.55339
7.15092
6.77816
6.43327
6.1145
5.82026
5.54901
5.29934
5.06991
4.85947
4.66683
4.49086
4.3305
4.18473
4.05257
3.93311
3.82544
3.72872
3.64214
3.56487
3.49598
3.43472
3.38035
3.33223
3.28972
3.25227
3.21935
3.19048
3.16523
3.14323
3.12414
3.10767
3.09358
3.08168
3.07184
3.06401
3.0582
3.05455
3.0534
3.05531
3.06129
3.07308
3.09377
3.12881
3.18684
1122.59
453.302
338.539
296.622
268.643
243.47
219.453
197.065
176.799
158.946
144.287
135.223
132.744
135.951
145.436
162.681
190.555
234.293
301.79
401.265
531.819
669.812
766.607
779.254
709.612
597.128
483.864
392.684
327.262
282.723
253.073
233.795
221.959
215.655
213.539
214.615
218.127
223.501
230.307
238.227
247.025
256.519
266.563
277.027
287.794
298.746
309.755
320.681
331.357
341.592
351.168
359.622
366.815
372.504
376.418
378.287
377.864
374.934
369.331
360.948
349.755
335.806
319.265
300.413
279.674
257.626
235.002
212.663
191.548
172.58
156.563
144.108
135.593
131.16
130.732
133.998
140.37
148.933
158.426
167.311
173.929
177.052
176.132
171.372
164.229
155.783
146.785
137.778
129.1
120.933
113.35
106.357
99.9226
93.9997
88.5348
83.4763
78.777
74.3954
70.2959
66.4483
62.827
59.4103
56.18
53.1207
50.2191
47.4642
44.8463
42.3571
39.9896
37.7375
35.5953
33.5583
31.6222
29.783
28.0371
26.3812
24.8121
23.3267
21.9222
20.5954
19.3437
18.1639
17.0534
16.0092
15.0285
14.1084
13.2461
12.439
11.6842
10.979
10.3211
9.70768
9.13648
8.60509
8.11128
7.65286
7.22777
6.83404
6.46979
6.13325
5.82275
5.53669
5.27358
5.03199
4.81059
4.6081
4.42331
4.25506
4.10225
3.96382
3.83875
3.72607
3.62486
3.5342
3.45327
3.38123
3.31722
3.26049
3.2103
3.166
3.12697
3.09264
3.0625
3.03608
3.01295
2.99275
2.97514
2.95983
2.94659
2.93522
2.92557
2.91757
2.91119
2.90653
2.90382
2.90353
2.90648
2.91413
2.92887
2.95426
1244.23
478.765
371.153
330.203
300.111
271.386
243.728
218.701
197.582
181.202
170.63
167.671
171.272
182.471
202.712
234.016
278.916
339.78
416.639
503.024
582.125
630.064
629.154
580.653
503.548
421.365
350.633
297.443
260.522
236.135
220.849
212.212
208.546
208.646
211.607
216.746
223.56
231.678
240.824
250.789
261.407
272.541
284.077
295.911
307.945
320.077
332.189
344.143
355.77
366.866
377.184
386.356
394.239
400.589
405.141
407.625
407.787
405.397
400.263
392.242
381.249
367.265
350.353
330.673
308.51
284.303
258.686
232.514
206.855
182.906
161.825
144.555
131.691
123.417
119.536
119.561
122.818
128.488
135.63
143.083
149.282
152.835
152.948
149.944
144.688
138.033
130.716
123.281
116.072
109.275
102.966
97.1518
91.8029
86.8741
82.3155
78.0797
74.1243
70.4129
66.9152
63.606
60.4648
57.4748
54.6222
51.8959
49.2866
46.7869
44.3905
42.0924
39.8883
37.7749
35.7491
33.8084
31.9507
30.1741
28.4767
26.8571
25.3134
23.8441
22.4475
21.1218
19.8651
18.6756
17.5511
16.4895
15.4887
14.5463
13.6601
12.8278
12.047
11.3154
10.6308
9.99094
9.39367
8.83687
8.31847
7.8365
7.38901
6.97414
6.59009
6.23512
5.90758
5.60585
5.32841
5.07379
4.84059
4.62747
4.43314
4.25638
4.09599
3.95085
3.81986
3.70197
3.59618
3.50153
3.41709
3.34198
3.27537
3.21642
3.16438
3.11852
3.07819
3.04278
3.01174
2.98455
2.96076
2.93997
2.92181
2.90597
2.89216
2.88015
2.86977
2.86086
2.85335
2.84721
2.84254
2.83956
2.83869
2.84074
2.84692
2.85888
1337.9
520.414
413.465
372.837
340.652
308.207
276.595
248.857
227.467
213.769
208.354
211.545
221.686
240.255
268.017
305.214
350.958
402.222
452.844
493.562
514.312
508.576
476.992
427.406
371.337
319.176
276.993
246.228
225.522
212.755
206.05
203.956
205.376
209.474
215.622
223.361
232.354
242.348
253.151
264.605
276.577
288.951
301.623
314.488
327.438
340.356
353.107
365.538
377.477
388.725
398.908
407.943
415.663
421.86
426.306
428.769
429.019
426.845
422.062
414.522
404.123
390.812
374.593
355.531
333.775
309.579
283.35
255.728
227.659
200.433
175.486
154.173
137.545
126.057
119.434
116.806
117.11
119.423
123.163
127.773
132.088
134.667
134.883
132.667
128.471
122.97
116.82
110.524
104.409
98.6518
93.3227
88.4272
83.9361
79.8051
75.9865
72.4356
69.1129
65.9848
63.0238
60.2073
57.5172
54.9391
52.4615
50.0752
47.7732
45.5498
43.4008
41.323
39.314
37.3721
35.4961
33.6853
31.9391
30.2571
28.6393
27.0853
25.5949
24.1679
22.8038
21.502
20.2616
19.0818
17.9613
16.8989
15.8929
14.9419
14.0441
13.1976
12.4006
11.6512
10.9475
10.2877
9.66982
9.09212
8.5528
8.05014
7.58243
7.14801
6.74524
6.37251
6.02828
5.71099
5.41917
5.15134
4.90609
4.68205
4.47789
4.29231
4.12407
3.97197
3.83484
3.71157
3.60109
3.50236
3.41439
3.33624
3.26702
3.20589
3.15201
3.10464
3.06308
3.02667
2.99481
2.96698
2.94268
2.92148
2.90297
2.88682
2.87273
2.86044
2.84974
2.84045
2.83244
2.82566
2.8201
2.81589
2.81326
2.8127
2.81491
2.82078
1383.61
556.067
455.779
418.639
386.743
352.318
317.716
287.382
264.954
252.228
249.298
253.508
265.172
283.878
308.588
337.466
367.628
395.13
415.43
424.349
419.289
400.198
369.846
333.249
296.241
263.664
238.161
220.205
208.987
203.292
201.955
203.998
208.645
215.307
223.546
233.045
243.563
254.917
266.952
279.535
292.542
305.854
319.345
332.88
346.31
359.473
372.195
384.293
395.582
405.872
414.909
422.698
429.146
434.123
437.477
439.039
438.634
436.087
431.241
423.96
414.144
401.729
386.689
369.037
348.845
326.236
301.404
274.706
246.783
218.825
192.34
168.802
149.641
135.759
127.044
122.283
119.888
118.703
118.548
119.453
120.886
121.825
121.372
119.169
115.404
110.567
105.191
99.7101
94.4072
89.4349
84.8508
80.6548
76.817
73.2949
70.0443
67.0238
64.1973
61.5343
59.0096
56.6024
54.2961
52.0771
49.9347
47.8606
45.8481
43.8921
41.9891
40.1364
38.3322
36.5757
34.8665
33.2046
31.5906
30.025
28.5088
27.0428
25.6278
24.2647
22.9539
21.696
20.4911
19.3391
18.2398
17.1926
16.1968
15.2512
14.3549
13.5064
12.7045
11.9475
11.2339
10.5624
9.9312
9.33898
8.78421
8.26546
7.78131
7.33037
6.91124
6.52256
6.16293
5.831
5.52538
5.24469
4.98758
4.75268
4.53866
4.3442
4.16802
4.00886
3.8655
3.73677
3.62151
3.51864
3.4271
3.3459
3.27408
3.21075
3.15504
3.10617
3.06338
3.02598
2.99335
2.9649
2.94013
2.91857
2.89979
2.88343
2.86917
2.85674
2.84589
2.83643
2.82822
2.82115
2.8152
2.81041
2.80694
2.80508
2.80532
2.80819
1369.47
575.057
487.807
458.552
431.315
398.938
364.187
332.107
307.025
291.197
284.262
284.307
290.937
302.589
317.376
333.128
347.45
357.938
362.493
359.657
348.901
330.862
307.469
281.736
257.028
236.079
220.349
210.069
204.715
203.475
205.531
210.182
216.869
225.17
234.771
245.437
256.986
269.264
282.134
295.465
309.122
322.96
336.815
350.501
363.811
376.521
388.408
399.252
408.858
417.05
423.804
429.21
433.277
435.977
437.257
437.034
435.207
431.652
426.247
418.875
409.439
397.867
384.108
368.133
349.978
329.742
307.464
283.287
257.449
230.976
205.622
182.55
163.217
148.68
138.919
132.533
127.502
122.708
118.506
115.633
114.047
112.909
111.259
108.558
104.792
100.273
95.4036
90.522
85.8499
81.5007
77.5101
73.8681
70.5424
67.4926
64.6786
62.0639
59.6172
57.3118
55.1258
53.0408
51.0417
49.1159
47.2533
45.4456
43.6861
41.9696
40.2921
38.6509
37.044
35.4704
33.9299
32.4225
30.9492
29.5109
28.109
26.7449
25.4201
24.1361
22.8943
21.6959
20.5418
19.4328
18.3693
17.3515
16.3793
15.4522
14.5698
13.7312
12.9353
12.1812
11.4676
10.7933
10.1572
9.55794
8.99441
8.46543
7.9699
7.50669
7.07472
6.67289
6.30008
5.95516
5.63695
5.34425
5.07583
4.83041
4.60672
4.40347
4.21936
4.05312
3.90349
3.76924
3.64916
3.54211
3.44698
3.3627
3.28826
3.22271
3.16517
3.11478
3.07075
3.03236
2.99894
2.96989
2.94465
2.92274
2.9037
2.88716
2.87277
2.86024
2.84931
2.83978
2.83148
2.82429
2.81816
2.8131
2.8092
2.80668
2.80586
2.80714
1282.61
566.256
497.258
480.03
462.597
437.88
407.971
377.462
350.816
330.647
316.697
309.788
308.664
311.591
316.773
322.462
327.019
328.994
327.213
320.891
309.802
294.496
276.407
257.66
240.5
226.644
216.945
211.465
209.786
211.305
215.42
221.615
229.481
238.706
249.051
260.327
272.377
285.056
298.227
311.747
325.463
339.199
352.749
365.881
378.331
389.818
400.063
408.804
415.831
421.006
424.585
426.749
427.622
427.289
425.804
423.181
419.401
414.401
408.089
400.366
391.138
380.32
367.836
353.575
337.49
319.873
300.609
279.774
257.653
234.914
212.588
191.962
174.44
161.004
151.434
143.978
136.443
128.12
120.132
113.83
109.468
106.287
103.299
99.8739
95.8709
91.467
86.9399
82.5274
78.3775
74.5552
71.0686
67.894
64.995
62.3329
59.8717
57.5802
55.4326
53.4068
51.485
49.6518
47.8944
46.2019
44.5649
42.9757
41.4274
39.9148
38.4335
36.98
35.5521
34.1482
32.7674
31.4098
30.0758
28.7663
27.4827
26.2266
24.9997
23.8039
22.6409
21.5126
20.4203
19.3654
18.3491
17.3719
16.4345
15.537
14.6791
13.8607
13.0811
12.3396
11.6353
10.9673
10.3345
9.73613
9.17111
8.63853
8.13753
7.66726
7.22692
6.81569
6.43277
6.07729
5.74836
5.44503
5.16627
4.91099
4.67804
4.46623
4.2743
4.10101
3.94508
3.80527
3.68032
3.56904
3.47026
3.38286
3.30578
3.238
3.17859
3.12666
3.08137
3.04197
3.00774
2.97806
2.95233
2.93005
2.91074
2.89401
2.87948
2.86686
2.85586
2.84628
2.83792
2.83067
2.82445
2.81924
2.8151
2.81219
2.81077
2.81111
1120.51
522.609
474.636
471.445
467.411
455.318
435.875
412.326
388.271
366.275
348.991
336.958
329.547
325.597
323.788
322.81
321.444
318.609
313.428
305.347
294.3
280.862
266.242
252.027
239.734
230.423
224.545
222.043
222.564
225.643
230.831
237.74
246.062
255.555
266.02
277.291
289.215
301.643
314.419
327.385
340.37
353.178
365.581
377.314
388.085
397.575
405.456
411.411
415.168
416.813
416.762
415.304
412.671
409.056
404.607
399.408
393.557
387.027
379.75
371.636
362.59
352.522
341.355
329.026
315.495
300.743
284.737
267.522
249.322
230.642
212.335
195.559
181.504
170.738
162.381
154.117
143.962
132.221
120.979
111.97
105.445
100.592
96.413
92.2714
87.977
83.6173
79.3641
75.3577
71.6717
68.3211
65.2848
62.5255
60.0024
57.6778
55.5198
53.5025
51.6048
49.8097
48.1033
46.4738
44.9111
43.4064
41.9517
40.5402
39.1656
37.8228
36.5072
35.215
33.9435
32.6905
31.4546
30.2353
29.0324
27.8466
26.6788
25.5305
24.4033
23.2991
22.2198
21.1674
20.1437
19.1504
18.189
17.2606
16.3664
15.5067
14.6821
13.8924
13.1375
12.417
11.7302
11.0765
10.455
9.86503
9.30573
8.77635
8.2762
7.80464
7.36109
6.94498
6.55579
6.19296
5.8559
5.54393
5.25633
4.99225
4.75075
4.53081
4.3313
4.15105
3.98884
3.84342
3.71354
3.59796
3.49546
3.40487
3.32508
3.25503
3.19371
3.1402
3.09361
3.05316
3.01808
2.98773
2.96148
2.93879
2.91917
2.90221
2.88751
2.87476
2.86367
2.85401
2.8456
2.83828
2.83197
2.82664
2.82233
2.81916
2.81732
2.81705
898.702
446.113
419.02
428.727
438.158
440.159
434.539
422.996
407.702
391.34
376.144
363.346
353.243
345.489
339.389
334.101
328.766
322.602
315.001
305.656
294.685
282.676
270.607
259.597
250.62
244.287
240.804
240.057
241.753
245.532
251.043
257.989
266.127
275.255
285.199
295.8
306.909
318.385
329.999
341.542
352.868
363.779
374.039
383.384
391.522
398.14
402.91
405.514
405.661
403.737
400.18
395.348
389.553
383.067
376.11
368.842
361.358
353.678
345.762
337.532
328.89
319.737
309.98
299.542
288.348
276.334
263.456
249.755
235.443
221.001
207.228
195.128
185.475
177.992
170.735
161.012
147.831
133.021
119.44
108.729
100.843
94.8471
89.786
85.096
80.5985
76.3249
72.3577
68.7493
65.5052
62.5962
59.9767
57.5982
55.4175
53.3987
51.5139
49.7414
48.065
46.4719
44.9519
43.4965
42.0983
40.7507
39.4477
38.1837
36.9534
35.7521
34.5757
33.4203
32.283
31.1612
30.0532
28.9577
27.8743
26.8029
25.7441
24.699
23.6688
22.6553
21.6604
20.6859
19.7338
18.806
17.9042
17.03
16.1846
15.3689
14.5836
13.8291
13.1056
12.4127
11.7503
11.1177
10.5143
9.93948
9.39255
8.87284
8.37976
7.91279
7.4715
7.05551
6.6645
6.29817
5.95623
5.6383
5.34395
5.07265
4.82373
4.59642
4.38979
4.20282
4.03441
3.88337
3.74847
3.62848
3.52215
3.42828
3.3457
3.27329
3.21
3.15485
3.10692
3.06536
3.02939
2.99831
2.97148
2.94834
2.92836
2.91111
2.8962
2.88327
2.87203
2.86226
2.85373
2.84631
2.83989
2.83443
2.82994
2.82653
2.82435
2.8236
652.347
347.691
338.6
358.099
379.246
395.886
405.719
408.537
405.655
398.981
390.388
381.302
372.563
364.476
356.959
349.695
342.266
334.272
325.438
315.717
305.35
294.868
284.993
276.467
269.881
265.563
263.582
263.811
266.028
269.985
275.301
281.749
289.137
297.288
306.04
315.23
324.693
334.256
343.725
352.914
361.644
369.718
376.918
383.008
387.736
390.844
392.069
391.166
387.973
382.996
376.618
369.207
361.102
352.605
343.961
335.352
326.888
318.606
310.484
302.453
294.417
286.271
277.913
269.25
260.198
250.686
240.69
230.292
219.762
209.638
200.685
193.61
188.359
183.31
175.522
162.92
146.485
129.493
114.833
103.521
95.0641
88.4588
82.8861
77.9135
73.4007
69.3359
65.7235
62.5411
59.7393
57.256
55.0295
53.0058
51.1421
49.4057
47.7726
46.2257
44.7525
43.3439
41.9928
40.6936
39.4413
38.2316
37.06
35.9226
34.8153
33.7343
32.676
31.6371
30.6147
29.6061
28.6094
27.6231
26.6462
25.6782
24.7193
23.7701
22.8315
21.9049
20.992
20.0944
19.2141
18.353
17.5129
16.6954
15.9021
15.1341
14.3925
13.6777
12.9902
12.3301
11.6971
11.091
10.5112
9.95724
9.42838
8.92406
8.44373
7.98693
7.55327
7.14248
6.75439
6.38888
6.04585
5.72521
5.42683
5.15048
4.8958
4.66231
4.44937
4.25618
4.08182
3.92523
3.78528
3.66077
3.55049
3.45319
3.36767
3.29279
3.22743
3.17055
3.1212
3.07847
3.04156
3.0097
2.98224
2.95859
2.9382
2.9206
2.9054
2.89224
2.8808
2.87084
2.86215
2.85457
2.84798
2.84234
2.83764
2.83397
2.83146
2.83028
470.488
258.066
259.791
284.862
312.971
338.377
358.757
373.333
382.326
386.56
387.116
385.053
381.228
376.231
370.395
363.862
356.662
348.803
340.351
331.488
322.536
313.939
306.202
299.777
295.131
292.397
291.482
292.243
294.483
297.983
302.501
307.844
313.844
320.344
327.189
334.221
341.275
348.18
354.759
360.838
366.246
370.806
374.339
376.664
377.6
376.976
374.626
370.368
364.433
357.131
348.789
339.733
330.278
320.704
311.245
302.073
293.296
284.958
277.046
269.499
262.232
255.146
248.144
241.135
234.043
226.828
219.524
212.311
205.583
199.94
195.961
193.582
191.274
185.983
174.969
158.38
139.401
121.715
107.316
96.3228
87.9036
81.1461
75.4443
70.5072
66.221
62.527
59.3612
56.6442
54.2903
52.2193
50.3636
48.6703
47.1
45.6247
44.2249
42.8873
41.6031
40.366
39.1716
38.0165
36.8978
35.8131
34.7596
33.7347
32.7357
31.7599
30.8045
29.8667
28.944
28.0342
27.1351
26.2452
25.3633
24.4887
23.621
22.7604
21.9076
21.0635
20.2293
19.4068
18.5974
17.8031
17.0256
16.2665
15.5276
14.8101
14.1151
13.4435
12.7958
12.1724
11.5731
10.9979
10.4463
9.91784
9.41192
8.92798
8.46546
8.0239
7.60292
7.20229
6.82187
6.46163
6.12164
5.80199
5.50279
5.22408
4.96582
4.72784
4.50981
4.31122
4.13139
3.96949
3.82453
3.69542
3.58101
3.48008
3.39144
3.3139
3.2463
3.18756
3.13667
3.09267
3.05472
3.02202
2.99387
2.96964
2.94877
2.93078
2.91523
2.90177
2.89007
2.87986
2.87094
2.86313
2.85631
2.85043
2.84548
2.84151
2.83865
2.83704
318.78
191.701
199.453
224.192
252.672
280.599
305.887
327.416
344.71
357.765
366.886
372.547
375.271
375.551
373.811
370.411
365.652
359.807
353.127
346.069
339.131
332.66
327.024
322.533
319.417
317.728
317.391
318.273
320.208
323.015
326.508
330.524
334.911
339.528
344.233
348.88
353.32
357.395
360.952
363.837
365.902
367.006
367.016
365.811
363.284
359.353
353.953
347.025
338.936
329.927
320.27
310.241
300.105
290.102
280.43
271.237
262.616
254.603
247.189
240.324
233.938
227.949
222.279
216.859
211.658
206.707
202.165
198.368
195.821
194.96
195.547
195.872
192.688
182.959
166.475
146.344
126.643
109.974
96.926
86.8865
78.9694
72.5016
67.1025
62.5786
58.8081
55.6791
53.0753
50.883
49.0012
47.3473
45.8578
44.4864
43.2004
41.978
40.8045
39.6708
38.5709
37.5015
36.4601
35.4455
34.4565
33.492
32.5509
31.6319
30.7336
29.8542
28.9918
28.1447
27.3107
26.4881
25.675
24.8701
24.0721
23.2801
22.4937
21.7128
20.9376
20.169
19.4078
18.6553
17.913
17.1825
16.4656
15.7638
15.0787
14.4118
13.7642
13.1369
12.5307
11.9459
11.3827
10.841
10.3205
9.82078
9.34129
8.88146
8.44073
8.01858
7.61462
7.22857
6.86027
6.50972
6.17704
5.86241
5.56611
5.28838
5.02943
4.78938
4.56821
4.36571
4.18149
4.01499
3.86543
3.73192
3.61342
3.50879
3.41688
3.33649
3.26648
3.20573
3.15316
3.1078
3.06873
3.03511
3.00621
2.98136
2.95998
2.94154
2.92562
2.91181
2.8998
2.8893
2.8801
2.87202
2.86493
2.85876
2.85351
2.84921
2.84598
2.84394
212.848
146.948
154.639
176.394
202.327
229.213
255.411
279.823
301.699
320.561
336.167
348.469
357.546
363.578
366.788
367.599
366.442
363.738
359.92
355.486
350.911
346.585
342.836
339.912
337.965
337.027
337.039
337.889
339.436
341.529
344.013
346.744
349.588
352.417
355.105
357.526
359.552
361.053
361.902
361.979
361.17
359.378
356.517
352.526
347.363
341.014
333.491
324.832
315.399
305.41
295.1
284.702
274.44
264.509
255.072
246.248
238.11
230.686
223.966
217.915
212.481
207.606
203.248
199.392
196.088
193.501
191.953
191.89
193.613
196.648
198.995
197.191
188.12
171.565
150.671
129.691
111.514
97.0029
85.7215
76.852
69.7168
63.8945
59.1405
55.2846
52.1744
49.6614
47.6073
45.8928
44.4214