/*--------------------------------*- C++ -*----------------------------------*\
| =========                 |                                                 |
| \\      /  F ield         | OpenFOAM: The Open Source CFD Toolbox           |
|  \\    /   O peration     | Version:  2112                                  |
|   \\  /    A nd           | Website:  www.openfoam.com                      |
|    \\/     M anipulation  |                                                 |
\*---------------------------------------------------------------------------*/
FoamFile
{
    version     2.0;
    format      ascii;
    arch        "LSB;label=32;scalar=64";
    class       volScalarField;
    location    "0.27";
    object      k;
}
// * * * * * * * * * * * * * * * * * * * * * * * * * * * * * * * * * * * * * //

dimensions      [0 2 -2 0 0 0 0];

internalField   nonuniform List<scalar> 
12225
(
1.24922
1.83499
2.19295
2.43457
2.59074
2.68547
2.74465
2.778
2.78885
2.7781
2.74605
2.69364
2.62335
2.53965
2.44967
2.36248
2.29792
2.29527
0.408061
0.46073
0.514068
0.567162
0.619469
0.672149
0.727895
0.789253
0.85813
0.935631
1.02232
1.11828
1.22312
1.33605
1.45603
1.58199
1.71273
1.85298
0.375863
0.382294
0.39131
0.400946
0.406665
0.408715
0.408555
0.408074
0.409185
0.4136
0.422732
0.437648
0.459052
0.48732
0.522601
0.564971
0.614756
0.673165
0.37312
0.371594
0.371014
0.37173
0.373605
0.375963
0.378425
0.380673
0.382342
0.382655
0.381612
0.379477
0.376721
0.373933
0.371748
0.370757
0.37162
0.374836
0.373053
0.371192
0.36946
0.367882
0.366508
0.365361
0.364454
0.363799
0.363401
0.363223
0.36321
0.363283
0.363345
0.363282
0.362978
0.362316
0.361255
0.359734
0.373015
0.371111
0.369285
0.367535
0.365874
0.364306
0.362829
0.361445
0.360156
0.358963
0.35786
0.356844
0.355911
0.355057
0.354282
0.353582
0.352946
0.352397
0.372986
0.371061
0.369221
0.367464
0.365793
0.364205
0.362695
0.361261
0.359902
0.35862
0.357415
0.356285
0.355225
0.354228
0.353288
0.352404
0.351584
0.350871
0.372966
0.371029
0.369183
0.367423
0.36575
0.364159
0.362647
0.36121
0.359849
0.358565
0.357359
0.35623
0.355178
0.354201
0.353299
0.352473
0.351739
0.351127
0.372951
0.371005
0.369154
0.367392
0.365716
0.364126
0.362615
0.361181
0.359822
0.35854
0.357334
0.356203
0.355148
0.354168
0.353267
0.352448
0.351729
0.351132
0.372941
0.370986
0.36913
0.367366
0.365691
0.3641
0.362591
0.361158
0.359802
0.35852
0.357311
0.356175
0.35511
0.354116
0.353196
0.352353
0.351601
0.350957
0.372932
0.370971
0.369111
0.367345
0.365668
0.364077
0.362568
0.361136
0.35978
0.358497
0.357285
0.356142
0.355067
0.354057
0.353115
0.352243
0.351447
0.350741
0.372926
0.370959
0.369095
0.367326
0.365648
0.364056
0.362545
0.361113
0.359756
0.35847
0.357254
0.356104
0.355019
0.353995
0.353032
0.352131
0.351297
0.350535
0.372921
0.370949
0.36908
0.367308
0.365627
0.364033
0.362521
0.361088
0.359728
0.358439
0.357218
0.356061
0.354964
0.353926
0.352944
0.352017
0.351147
0.350336
0.372916
0.370939
0.369065
0.36729
0.365606
0.364009
0.362495
0.361058
0.359695
0.358402
0.357175
0.35601
0.354903
0.35385
0.352849
0.351897
0.350994
0.350141
0.372912
0.37093
0.369052
0.367271
0.365584
0.363984
0.362466
0.361026
0.35966
0.358362
0.357129
0.355956
0.354839
0.353773
0.352756
0.351784
0.350856
0.349971
0.372909
0.370922
0.369039
0.367254
0.365562
0.363958
0.362437
0.360993
0.359623
0.358321
0.357083
0.355905
0.35478
0.353707
0.35268
0.351698
0.350757
0.349858
0.372906
0.370916
0.369028
0.367239
0.365542
0.363934
0.362409
0.360962
0.359589
0.358284
0.357044
0.355863
0.354737
0.353663
0.352636
0.351656
0.350719
0.349826
0.372904
0.370911
0.36902
0.367226
0.365526
0.363914
0.362387
0.360938
0.359563
0.358259
0.35702
0.355842
0.354722
0.353657
0.352644
0.351681
0.350767
0.349901
0.372904
0.370909
0.369015
0.367219
0.365517
0.363904
0.362376
0.360928
0.359556
0.358257
0.357026
0.355859
0.354755
0.353709
0.352721
0.351788
0.35091
0.350087
0.372905
0.37091
0.369017
0.367222
0.365521
0.36391
0.362385
0.360942
0.359577
0.358287
0.357069
0.355918
0.354833
0.353812
0.352851
0.35195
0.351108
0.350324
0.372907
0.370914
0.369024
0.367231
0.365534
0.363928
0.362409
0.360974
0.359618
0.35834
0.357134
0.355999
0.354931
0.353929
0.352991
0.352115
0.351299
0.350544
0.37291
0.370922
0.369035
0.367248
0.365557
0.363958
0.362448
0.361024
0.359681
0.358417
0.357229
0.356113
0.355067
0.354089
0.353176
0.352326
0.351538
0.350811
0.372915
0.370932
0.369053
0.367273
0.36559
0.364
0.362499
0.361085
0.359754
0.358502
0.357327
0.356226
0.355196
0.354235
0.35334
0.352509
0.351741
0.351033
0.372923
0.370947
0.369075
0.367305
0.365633
0.364058
0.362576
0.361183
0.359874
0.358647
0.357497
0.356422
0.355419
0.354485
0.353617
0.352813
0.352072
0.351391
0.372933
0.370968
0.369103
0.367335
0.365662
0.364086
0.362604
0.361211
0.359906
0.358685
0.357544
0.356481
0.355491
0.354573
0.353723
0.352937
0.352215
0.351551
0.372951
0.371011
0.369188
0.367474
0.365867
0.364369
0.36298
0.3617
0.360529
0.359464
0.358499
0.35763
0.356848
0.356147
0.355521
0.354964
0.35447
0.354032
0.372976
0.371055
0.369352
0.367938
0.366895
0.366288
0.366126
0.366364
0.366934
0.367656
0.368417
0.369171
0.369888
0.370545
0.371131
0.371643
0.372083
0.372457
0.373502
0.374887
0.37792
0.382018
0.386646
0.39123
0.394918
0.396846
0.397178
0.396179
0.394137
0.391321
0.387962
0.384242
0.380305
0.376257
0.372173
0.368144
0.387292
0.411977
0.440376
0.470088
0.499258
0.526276
0.551188
0.574589
0.597093
0.619197
0.641244
0.663432
0.685851
0.708508
0.731361
0.754352
0.777435
0.800587
0.989977
1.45553
1.77588
2.01119
2.18989
2.30588
2.38988
2.45744
2.51659
2.5717
2.62535
2.67913
2.73419
2.79133
2.85116
2.91413
2.98034
3.05039
3.02389
2.96754
3.10079
3.18503
3.29394
3.47674
3.76876
4.09178
4.36129
4.51863
4.61106
4.68157
4.75766
4.85116
4.9715
5.12639
5.32313
5.57036
5.88093
6.26323
6.63672
6.9911
7.31576
7.59001
7.77398
7.69101
7.09894
5.86005
4.27576
2.76295
1.83405
1.64838
1.76819
1.98531
2.26774
2.63889
3.16416
3.61214
3.77044
3.82343
3.92284
3.98094
3.75465
3.1264
2.41323
1.93903
1.5853
1.58893
2.19325
3.72952
6.32051
8.68437
10.6205
12.2749
13.6177
14.6439
15.3662
15.8065
15.9928
15.9562
15.7403
15.4418
15.0729
14.6437
14.1616
13.6308
13.0535
12.4729
11.8967
11.3229
10.7509
10.1812
9.61471
9.05247
8.49593
7.9469
7.40775
6.88148
6.37135
5.88073
5.41287
4.97098
4.55861
4.1802
3.84204
3.55371
3.33064
3.19934
3.20928
3.42757
3.7844
4.27298
4.88074
5.59864
6.41995
7.33798
8.34484
9.4312
10.5867
11.7999
13.0582
14.3463
15.6445
16.9226
18.1015
19.0445
19.6936
19.9734
19.7962
19.084
17.8061
16.0205
13.8962
11.6927
9.68954
8.09361
6.97715
6.28584
5.90097
5.70422
5.61052
5.57122
5.56574
5.58568
5.62753
5.68933
5.76946
5.86705
5.98278
6.11938
6.28193
6.47771
6.7156
7.00534
7.35581
7.77033
8.23556
8.70799
9.11738
9.39712
9.51778
9.49497
9.36459
9.15544
8.89033
8.60874
8.3742
8.22736
8.07873
7.75594
7.27367
6.68903
6.04463
5.42126
5.15111
6.24595
9.30962
12.8764
15.7813
17.5999
17.9927
17.6033
16.6137
15.1391
13.5742
12.0878
10.7573
9.66964
8.94516
8.81354
10.2029
13.7576
18.7932
24.1094
28.8214
31.8856
31.9648
28.9682
24.4513
19.4118
3.36583
2.10116
2.02136
1.97829
2.12117
2.86601
3.68568
3.96411
3.99898
3.92878
3.79591
3.62258
3.42655
3.22398
3.02763
2.84607
2.68437
2.54547
2.43106
2.34639
2.37454
2.5113
2.75242
3.08528
3.48707
3.90774
4.26053
4.45533
4.52224
4.49798
4.2117
3.59668
2.73276
1.86922
1.50409
1.79285
2.35239
2.94013
3.20641
2.99305
2.53764
2.25071
2.20183
2.37642
3.13188
4.65297
6.44765
7.2187
7.45083
7.70559
7.9286
7.944
7.75287
7.39481
6.90898
6.339
5.72712
5.11146
4.52518
3.99424
3.53661
3.16196
2.87266
2.66741
2.54145
2.48868
2.50806
2.54528
2.5879
2.63465
2.68441
2.73614
2.78871
2.84073
2.89039
2.93525
2.97207
3.00368
3.02823
3.04304
3.04505
3.03117
2.99879
2.94638
2.87341
2.78105
2.67235
2.55162
2.42268
2.30264
2.20587
2.11642
2.03437
1.95981
1.89204
1.82981
1.77845
1.74137
1.72079
1.71869
1.73727
1.77918
1.84702
1.94477
2.11047
2.42067
2.85773
3.36643
3.88217
4.35037
4.72648
4.97852
5.092
5.07374
4.95211
4.76874
4.56283
4.35932
4.16775
3.98861
3.82029
3.66316
3.51627
3.37752
3.24805
3.13034
3.02401
2.92738
2.83807
2.75179
2.66463
2.57531
2.48351
2.3905
2.29992
2.21839
2.15545
2.12105
2.11897
2.1412
2.17429
2.20811
2.23577
2.24569
2.21571
2.12349
1.97387
1.81496
1.73741
1.79662
1.92939
2.24659
3.03269
4.48298
6.34662
7.88339
8.46499
8.35526
7.72056
6.76162
5.74239
4.9163
4.42911
4.3576
4.42644
4.49748
4.53526
4.52994
4.48738
4.39853
4.25628
4.1178
4.02654
4.05101
4.33144
5.11041
6.7384
8.71716
10.0553
10.7103
3.8371
1.9586
1.63867
1.70436
2.96027
4.01807
4.22858
3.96924
3.57348
3.19097
2.86177
2.58654
2.35732
2.16643
2.00763
1.87578
1.76657
1.67639
1.60233
1.54233
1.50583
1.50653
1.55911
1.67977
1.87913
2.1524
2.4713
2.79163
3.09523
3.38651
3.6085
3.63666
3.33041
2.74449
2.22478
2.03576
2.39454
3.07631
3.60242
3.52377
2.95759
2.77773
3.55168
5.4264
7.17575
7.42113
7.17404
6.76939
6.33579
5.91179
5.45764
4.94797
4.40542
3.86346
3.35571
2.90999
2.5436
2.2622
2.06153
1.93056
1.8551
1.82085
1.81539
1.82904
1.85487
1.88922
1.92962
1.97468
2.02432
2.07863
2.13778
2.20204
2.27156
2.3463
2.42576
2.5087
2.59273
2.67395
2.7521
2.8254
2.88874
2.936
2.96105
2.95977
2.92871
2.86576
2.77194
2.65146
2.50983
2.37526
2.26003
2.15001
2.04467
1.94319
1.84272
1.74554
1.65447
1.57005
1.49214
1.42056
1.35526
1.29642
1.24445
1.20008
1.16442
1.13911
1.12771
1.1459
1.20244
1.29576
1.41914
1.56244
1.71246
1.85492
1.97752
2.07325
2.14166
2.18716
2.2156
2.23134
2.23645
2.23168
2.21782
2.19696
2.16589
2.12177
2.06694
2.00386
1.93454
1.86034
1.78214
1.7006
1.61646
1.53092
1.4457
1.36278
1.28361
1.20854
1.13745
1.07126
1.01244
0.963552
0.925418
0.896635
0.874951
0.859648
0.855152
0.8768
0.959687
1.17711
1.64743
2.59001
4.17241
6.00684
7.0826
7.01095
6.42738
5.65846
4.89751
4.29521
3.93023
3.78997
3.80486
3.89812
4.03108
4.1672
4.27701
4.33458
4.3583
4.33758
4.24637
4.06658
3.83449
3.53422
3.19094
2.86659
2.68018
2.94208
3.70733
4.64542
3.1977
1.81332
1.97041
3.95392
5.16127
5.03697
4.36089
3.63275
3.03183
2.57689
2.23882
1.98595
1.79437
1.64721
1.53257
1.44194
1.3693
1.31038
1.26223
1.22279
1.19367
1.1785
1.1819
1.21399
1.28937
1.42151
1.61292
1.84931
2.1126
2.39445
2.67803
2.90939
2.98764
2.86482
2.67825
2.63459
3.05096
3.97346
4.88498
4.93959
4.88717
5.40072
6.38591
7.00185
6.85759
6.24652
5.5869
4.97443
4.41862
3.90294
3.41073
2.94552
2.52658
2.17207
1.89174
1.6847
1.54169
1.44946
1.39454
1.36556
1.35397
1.35396
1.36176
1.37503
1.39239
1.41502
1.4401
1.46787
1.49888
1.53395
1.57414
1.62076
1.67531
1.73938
1.81453
1.90205
2.00268
2.11615
2.24066
2.3723
2.50447
2.62752
2.72876
2.79954
2.8363
2.83164
2.78208
2.68943
2.55915
2.43043
2.31215
2.19826
2.08909
1.98176
1.88134
1.78863
1.70319
1.62414
1.55044
1.48113
1.41537
1.35259
1.29248
1.23504
1.18055
1.12955
1.08279
1.04114
1.00573
0.979521
0.965949
0.966565
0.981151
1.00776
1.04284
1.08203
1.12123
1.1574
1.18858
1.21343
1.23084
1.24017
1.24165
1.23704
1.23045
1.22288
1.21311
1.20046
1.18435
1.16441
1.1405
1.11277
1.08162
1.04764
1.01162
0.974466
0.937114
0.900544
0.865938
0.834686
0.807809
0.785151
0.765477
0.748134
0.73607
0.739007
0.775579
0.873631
1.07604
1.47003
2.23975
3.60678
5.3676
6.52247
6.41479
5.7585
5.00345
4.30633
3.76004
3.40704
3.23937
3.21749
3.29682
3.44563
3.61857
3.78677
3.92619
4.01459
4.06898
4.09252
4.07938
4.00755
3.88284
3.67824
3.37971
3.00084
2.58565
2.21589
2.08714
2.26028
2.30404
1.94463
4.96246
5.94576
5.33053
4.33656
3.45521
2.79421
2.32314
1.98896
1.74962
1.57597
1.44781
1.35105
1.27603
1.21625
1.16745
1.12686
1.09274
1.06401
1.04097
1.02522
1.01779
1.02264
1.04792
1.10584
1.20833
1.35937
1.55247
1.77774
2.02702
2.28581
2.51533
2.68013
2.84751
3.21709
4.03093
5.58888
7.18313
7.17243
6.50913
6.45043
6.34482
5.93051
5.27818
4.59028
3.97677
3.44134
2.96844
2.54604
2.17341
1.85831
1.60749
1.42018
1.28855
1.20099
1.14559
1.11229
1.09366
1.08465
1.08202
1.08379
1.08872
1.09617
1.10586
1.11626
1.12618
1.13586
1.14589
1.1572
1.17108
1.18924
1.21369
1.24683
1.29126
1.34971
1.42482
1.51875
1.6327
1.76621
1.91645
2.07739
2.23931
2.3888
2.51002
2.58869
2.61357
2.58127
2.49573
2.39489
2.2896
2.18338
2.0806
1.98359
1.8934
1.81025
1.7338
1.66334
1.59794
1.53663
1.47844
1.42246
1.36794
1.3143
1.26125
1.20879
1.15727
1.10728
1.05966
1.01539
0.975482
0.941114
0.913604
0.893841
0.881667
0.876283
0.876412
0.880529
0.887064
0.894519
0.901579
0.907279
0.911171
0.913431
0.914927
0.917034
0.919486
0.921743
0.923186
0.923149
0.920988
0.916143
0.908208
0.896979
0.882512
0.86516
0.845597
0.824896
0.8046
0.786414
0.77137
0.759129
0.748746
0.741317
0.743531
0.771276
0.852576
1.0267
1.35446
1.95073
3.00298
4.5468
5.9185
6.11244
5.4985
4.75988
4.06572
3.49093
3.08572
2.8633
2.79936
2.85272
2.98244
3.15849
3.34621
3.52376
3.6716
3.77624
3.83117
3.84651
3.83072
3.78448
3.72005
3.61162
3.41898
3.11717
2.71765
2.29096
1.91877
1.69768
1.58985
4.83043
6.13977
5.25594
4.10355
3.19351
2.55632
2.11837
1.81444
1.6011
1.44935
1.33907
1.25632
1.19182
1.13953
1.09564
1.05783
1.02484
0.996122
0.971488
0.95106
0.935353
0.924738
0.92083
0.927637
0.95273
1.00678
1.09984
1.23613
1.41263
1.62526
1.87693
2.17351
2.52931
3.07093
4.1053
5.93935
8.83888
8.98158
7.27258
6.36628
5.74563
5.13321
4.48434
3.85205
3.2904
2.80881
2.39403
2.03701
1.73585
1.49218
1.30575
1.17134
1.07966
1.02015
0.983216
0.96147
0.949811
0.944991
0.945
0.948535
0.954648
0.96252
0.971315
0.979489
0.984299
0.985741
0.984124
0.98009
0.974616
0.969028
0.965012
0.964628
0.970319
0.984901
1.01151
1.05353
1.11435
1.19708
1.30404
1.436
1.59108
1.76336
1.94133
2.10729
2.24286
2.32831
2.35378
2.32324
2.267
2.19641
2.11899
2.03997
1.96241
1.88806
1.81778
1.7518
1.69
1.63204
1.57747
1.52575
1.47627
1.42835
1.38129
1.33443
1.28725
1.23947
1.19111
1.14256
1.09454
1.04797
1.00391
0.963329
0.927037
0.896118
0.871033
0.851677
0.837626
0.828218
0.822649
0.820071
0.819703
0.820918
0.823288
0.826593
0.830801
0.835668
0.840701
0.845374
0.849097
0.851242
0.851181
0.848345
0.842323
0.832971
0.820525
0.805711
0.789817
0.774629
0.761929
0.752511
0.745748
0.741365
0.743127
0.762335
0.821528
0.957872
1.2225
1.69277
2.49073
3.72187
5.12701
5.81391
5.40693
4.70017
4.00256
3.38852
2.9203
2.63334
2.51441
2.52172
2.61322
2.75638
2.93352
3.12101
3.29801
3.44519
3.54962
3.60717
3.62022
3.59281
3.53932
3.47298
3.3919
3.27157
3.06656
2.75307
2.36599
1.97618
1.64639
2.16119
6.50256
5.54944
4.13405
3.11647
2.45972
2.02954
1.73858
1.53749
1.39621
1.29439
1.21796
1.15769
1.10764
1.064
1.02441
0.987836
0.954346
0.924743
0.899867
0.879811
0.864324
0.853671
0.848521
0.850737
0.864609
0.897574
0.959155
1.05799
1.19877
1.38472
1.63132
1.97889
2.52068
3.52017
5.30656
8.41482
9.99789
8.02837
6.40177
5.36223
4.57738
3.91369
3.33225
2.82777
2.39807
2.0345
1.72989
1.48176
1.28858
1.14671
1.04933
0.987396
0.951617
0.933992
0.92849
0.930963
0.938691
0.949869
0.963186
0.977548
0.991874
1.00501
1.0155
1.01901
1.01577
1.00607
0.990557
0.970297
0.946689
0.921425
0.896447
0.873934
0.856293
0.84615
0.84634
0.859908
0.890072
0.940183
1.01366
1.11368
1.24231
1.39874
1.57655
1.75939
1.92785
2.05444
2.12355
2.13756
2.11924
2.08123
2.0324
1.97855
1.92312
1.86792
1.81378
1.76104
1.70978
1.66002
1.6118
1.56515
1.52004
1.47633
1.43372
1.39173
1.34979
1.30731
1.26383
1.21916
1.17342
1.1271
1.08096
1.03598
0.993182
0.953392
0.917606
0.886613
0.860658
0.839688
0.823412
0.811373
0.803023
0.797788
0.795121
0.794529
0.795591
0.797913
0.800948
0.80413
0.806858
0.808503
0.808428
0.806053
0.800953
0.792992
0.782468
0.770245
0.757809
0.747099
0.739764
0.736003
0.734695
0.736657
0.749144
0.788801
0.885773
1.0852
1.44837
2.05991
3.01276
4.25684
5.28434
5.3437
4.73089
4.04618
3.40391
2.87236
2.51009
2.32218
2.26996
2.30927
2.41022
2.55424
2.72879
2.91203
3.08332
3.22386
3.32245
3.37828
3.397
3.38509
3.35292
3.30175
3.22969
3.13095
2.98376
2.75109
2.42528
2.05585
1.70579
6.61293
6.66894
4.62796
3.27439
2.51041
2.05156
1.74954
1.54152
1.3969
1.29406
1.2174
1.15715
1.10683
1.06143
1.01759
0.973876
0.930702
0.889935
0.854271
0.825974
0.805091
0.791319
0.784377
0.783863
0.790032
0.804988
0.833637
0.883553
0.964065
1.08494
1.25791
1.51373
1.93502
2.74351
4.28255
6.82002
9.67634
8.69414
6.61379
5.19395
4.24014
3.53755
2.98114
2.52017
2.13287
1.80997
1.54618
1.33852
1.18397
1.07749
1.0118
0.978365
0.968681
0.975448
0.993031
1.01739
1.04572
1.07593
1.10636
1.13543
1.16172
1.18408
1.20167
1.20772
1.20397
1.19018
1.1666
1.13406
1.09398
1.04825
0.999128
0.949126
0.901011
0.85777
0.822478
0.798053
0.787163
0.792137
0.815096
0.858537
0.925938
1.02166
1.14916
1.30844
1.48727
1.66677
1.81522
1.91199
1.95884
1.97168
1.96125
1.93697
1.90546
1.87063
1.83438
1.79741
1.75979
1.72136
1.68204
1.64188
1.60116
1.56027
1.51963
1.47954
1.4401
1.40113
1.36224
1.3229
1.28259
1.24097
1.19796
1.1538
1.10906
1.06456
1.02127
0.980036
0.941853
0.907604
0.877731
0.852408
0.831571
0.814969
0.802222
0.792874
0.786431
0.782395
0.780282
0.779542
0.779561
0.779703
0.779318
0.777773
0.774512
0.76916
0.761662
0.75245
0.742574
0.733724
0.727872
0.726215
0.728003
0.731815
0.74048
0.765538
0.829155
0.968262
1.23325
1.69152
2.42068
3.44605
4.54186
5.11217
4.78734
4.14975
3.50411
2.92206
2.48101
2.21463
2.0969
2.08158
2.13473
2.23898
2.38203
2.5507
2.72611
2.88808
3.0175
3.10307
3.1467
3.16021
3.15964
3.15227
3.1356
3.09955
3.02957
2.91371
2.73411
2.46882
2.13487
1.78805
10.4779
6.25088
3.77497
2.70511
2.18143
1.8483
1.61188
1.44705
1.33216
1.24828
1.18397
1.13197
1.08524
1.03776
0.986825
0.932718
0.877335
0.824108
0.778156
0.743934
0.721931
0.712702
0.714224
0.723881
0.739938
0.762852
0.796103
0.846465
0.924575
1.04446
1.2252
1.51837
2.08999
3.32057
5.40208
8.19903
8.75742
6.92421
5.20041
4.07267
3.31124
2.75629
2.3212
1.96513
1.67308
1.44019
1.26344
1.13905
1.06138
1.02301
1.01553
1.03063
1.06103
1.10099
1.14634
1.19416
1.24236
1.28933
1.33362
1.37381
1.40826
1.43497
1.45166
1.45562
1.44776
1.42706
1.39327
1.34709
1.2902
1.22497
1.15412
1.08048
1.0071
0.937454
0.875624
0.825617
0.790867
0.773705
0.77488
0.794507
0.83449
0.899726
0.995942
1.12862
1.29203
1.46576
1.61779
1.72854
1.80008
1.83735
1.84937
1.8453
1.83222
1.81458
1.7946
1.77305
1.74985
1.72461
1.69687
1.6664
1.63328
1.59791
1.56096
1.52315
1.48513
1.44731
1.40982
1.37245
1.3348
1.29639
1.2568
1.21581
1.17351
1.13028
1.08678
1.04385
1.00227
0.96309
0.927119
0.894904
0.866754
0.842756
0.822804
0.806644
0.79391
0.784159
0.776903
0.771618
0.767704
0.764518
0.761411
0.757767
0.75307
0.747014
0.739645
0.731543
0.723948
0.718712
0.717711
0.721486
0.728319
0.737041
0.753235
0.792755
0.882504
1.0638
1.39022
1.92971
2.73661
3.74299
4.59193
4.76474
4.275
3.65769
3.05235
2.54019
2.18844
1.9976
1.92543
1.93082
1.99113
2.09495
2.23063
2.38855
2.55383
2.7068
2.82729
2.90154
2.93138
2.93531
2.93411
2.9375
2.94557
2.9488
2.92613
2.85215
2.71288
2.49773
2.2069
1.87688
12.5739
5.29364
3.08288
2.4167
2.05311
1.76838
1.55886
1.41413
1.31244
1.23741
1.18023
1.13278
1.08535
1.03137
0.969914
0.902736
0.832177
0.762593
0.702452
0.659833
0.641539
0.646258
0.661877
0.682784
0.707721
0.738352
0.779616
0.84082
0.936921
1.0884
1.33371
1.7685
2.6598
4.28541
6.47199
7.92725
7.05657
5.32781
4.0353
3.19842
2.62587
2.20056
1.86402
1.59356
1.38254
1.22794
1.1256
1.06951
1.05199
1.0644
1.0981
1.14546
1.2005
1.25901
1.31827
1.37664
1.43305
1.48663
1.53646
1.58139
1.62004
1.65089
1.66922
1.6778
1.67365
1.65419
1.61793
1.56496
1.49715
1.41777
1.33057
1.23904
1.14613
1.05483
0.969623
0.895845
0.838119
0.800325
0.783418
0.784748
0.803592
0.84431
0.91336
1.01899
1.1638
1.31673
1.46156
1.58082
1.66692
1.72142
1.75102
1.76366
1.76602
1.76266
1.75606
1.74721
1.73618
1.72255
1.70569
1.68507
1.66041
1.63183
1.59982
1.56519
1.52888
1.49178
1.45452
1.41743
1.3805
1.34345
1.30584
1.26727
1.22747
1.1864
1.14431
1.10172
1.05936
1.01793
0.978422
0.941569
0.907959
0.877971
0.851778
0.829371
0.810579
0.795103
0.782548
0.772444
0.764271
0.757431
0.751309
0.745324
0.739009
0.732127
0.724824
0.717817
0.712527
0.710926
0.714699
0.723623
0.735182
0.749028
0.773868
0.829341
0.945688
1.16521
1.54287
2.14159
2.97896
3.89243
4.47457
4.37345
3.83339
3.24085
2.68101
2.24366
1.96915
1.83272
1.78884
1.80517
1.86644
1.96259
2.08446
2.22809
2.38222
2.52806
2.64412
2.7133
2.73632
2.73521
2.72895
2.73262
2.751
2.77799
2.79634
2.77423
2.68194
2.51087
2.26375
1.96168
12.853
4.19186
2.73309
2.36967
2.04636
1.76514
1.56114
1.42161
1.32392
1.2534
1.20109
1.15584
1.10553
1.04416
0.972547
0.89342
0.809805
0.727289
0.657795
0.619539
0.618581
0.631085
0.650034
0.674425
0.705961
0.749585
0.814666
0.915693
1.06953
1.29799
1.66356
2.3231
3.48391
5.12687
6.64629
6.72185
5.44158
4.09591
3.17418
2.56822
2.13856
1.81028
1.55215
1.3544
1.21338
1.12481
1.08232
1.07784
1.10218
1.14609
1.2013
1.26142
1.32218
1.38119
1.4375
1.49112
1.54247
1.59202
1.63982
1.68531
1.72696
1.76224
1.79223
1.815
1.82572
1.81968
1.79308
1.7442
1.67424
1.58744
1.48954
1.38592
1.28053
1.17479
1.0724
0.980511
0.903692
0.847611
0.815718
0.803008
0.80615
0.82853
0.877168
0.960174
1.07681
1.2138
1.35074
1.46962
1.5614
1.62586
1.66792
1.69394
1.70946
1.71844
1.72319
1.72482
1.72361
1.71936
1.71156
1.69961
1.683
1.66147
1.6352
1.60475
1.57104
1.53513
1.49802
1.4605
1.42304
1.38575
1.34845
1.31079
1.27238
1.23296
1.19244
1.15098
1.109
1.06705
1.02593
0.98639
0.949142
0.914751
0.883612
0.855942
0.831785
0.811026
0.793421
0.778611
0.766162
0.755585
0.746337
0.737906
0.729895
0.722145
0.714898
0.708999
0.706026
0.708031
0.716451
0.730316
0.746592
0.766166
0.800715
0.872573
1.01334
1.26339
1.67824
2.31073
3.13503
3.91589
4.26753
4.00851
3.45884
2.89012
2.38181
2.01541
1.80182
1.70245
1.67502
1.6953
1.75135
1.83313
1.93786
2.06564
2.20844
2.34893
2.46507
2.53298
2.56082
2.561
2.55239
2.55328
2.57329
2.61015
2.65151
2.67124
2.63017
2.50502
2.29995
2.03226
11.9938
3.38151
2.71744
2.44981
2.11156
1.8178
1.60652
1.46202
1.36262
1.2938
1.24389
1.19895
1.14648
1.08147
1.00559
0.923006
0.839559
0.763958
0.706159
0.672841
0.666161
0.67438
0.694102
0.726283
0.775265
0.849072
0.958888
1.11681
1.33786
1.66151
2.18023
3.01608
4.20125
5.46292
5.9978
5.34994
4.18884
3.22014
2.56934
2.12329
1.79296
1.53826
1.3455
1.20993
1.1271
1.09052
1.09169
1.12084
1.16787
1.22369
1.28122
1.33586
1.38539
1.42949
1.4692
1.5064
1.5431
1.58104
1.62117
1.6635
1.70713
1.75105
1.79645
1.83868
1.87204
1.88999
1.88593
1.85472
1.79482
1.71004
1.60805
1.4973
1.38578
1.27346
1.16089
1.05845
0.969396
0.899603
0.856271
0.832894
0.82469
0.832262
0.863573
0.928221
1.02762
1.15054
1.2777
1.39151
1.48286
1.55124
1.60077
1.6366
1.66293
1.68263
1.69736
1.708
1.71491
1.71813
1.71744
1.71243
1.70257
1.68743
1.66684
1.64103
1.61065
1.57666
1.54019
1.50232
1.4639
1.42546
1.38719
1.349
1.31062
1.2717
1.232
1.19142
1.1501
1.10835
1.0667
1.02581
0.986361
0.948984
0.914207
0.882411
0.853823
0.828511
0.806398
0.787277
0.770831
0.756676
0.744389
0.733554
0.723865
0.715258
0.708075
0.703287
0.702607
0.708148
0.721099
0.739856
0.761159
0.787236
0.832118
0.919407
1.07957
1.35063
1.78722
2.42911
3.20891
3.85182
4.03104
3.69485
3.14538
2.59918
2.14435
1.83913
1.67093
1.5956
1.57694
1.59652
1.64301
1.70677
1.79344
1.90544
2.03731
2.17475
2.28777
2.36551
2.40374
2.41144
2.40589
2.40594
2.42452
2.4633
2.51339
2.5561
2.55626
2.47725
2.31314
2.08145
10.7239
3.10252
2.85953
2.59071
2.23705
1.92396
1.69371
1.53483
1.4277
1.3563
1.30647
1.26343
1.21486
1.15535
1.08618
1.01182
0.938042
0.871748
0.820233
0.789344
0.78331
0.795436
0.825078
0.875367
0.95189
1.0621
1.2147
1.42243
1.71243
2.13708
2.76137
3.61264
4.5682
5.18342
5.0052
4.20204
3.30418
2.61973
2.1482
1.80718
1.54803
1.35273
1.21516
1.13081
1.09331
1.09411
1.12301
1.16916
1.22246
1.27488
1.32114
1.35879
1.38779
1.40992
1.42804
1.44538
1.46491
1.48898
1.51911
1.55567
1.59773
1.64871
1.70485
1.76251
1.81656
1.8601
1.88477
1.88163
1.8442
1.77316
1.67605
1.56318
1.44964
1.33711
1.22145
1.1156
1.02272
0.948545
0.8966
0.864312
0.84669
0.843653
0.863237
0.915668
1.00321
1.11532
1.23335
1.34039
1.42812
1.49651
1.54966
1.59197
1.62655
1.65512
1.67847
1.69698
1.71084
1.72019
1.72508
1.72538
1.72076
1.71081
1.69518
1.67379
1.64696
1.61541
1.58015
1.54234
1.50307
1.4632
1.42329
1.38358
1.34403
1.30442
1.26448
1.22401
1.18293
1.14137
1.09958
1.05805
1.01735
0.978073
0.94078
0.905942
0.873911
0.844902
0.818996
0.796135
0.776148
0.758772
0.743705
0.73065
0.719414
0.710036
0.702968
0.699297
0.700864
0.70984
0.727219
0.750962
0.777808
0.811134
0.866338
0.966721
1.13971
1.42181
1.86558
2.49724
3.21657
3.73907
3.8014
3.42966
2.89228
2.36489
1.95731
1.70164
1.56593
1.50548
1.49121
1.50798
1.54318
1.58784
1.65633
1.75612
1.87504
2.00498
2.12489
2.21448
2.26611
2.28582
2.28852
2.29181
2.30975
2.34705
2.39764
2.44775
2.47137
2.43008
2.30427
2.10708
9.28226
3.19894
3.04305
2.78161
2.41557
2.077
1.81993
1.6393
1.51796
1.4391
1.38753
1.34875
1.31054
1.26597
1.21405
1.15747
1.10057
1.04866
1.00787
0.984533
0.984622
1.00637
1.05037
1.1202
1.22103
1.35996
1.54771
1.80238
2.15188
2.62866
3.24824
3.94571
4.47655
4.53007
4.07084
3.36495
2.70461
2.20973
1.85177
1.58204
1.378
1.23207
1.13981
1.09542
1.09082
1.11594
1.15952
1.2105
1.25961
1.30044
1.32979
1.34735
1.35516
1.35675
1.35609
1.35683
1.3618
1.37311
1.39234
1.4208
1.45902
1.50935
1.5671
1.63028
1.69523
1.75607
1.80462
1.83014
1.82108
1.77317
1.69132
1.58442
1.47188
1.36228
1.25504
1.15241
1.0596
0.983551
0.92815
0.890992
0.867051
0.856783
0.869146
0.914626
0.995016
1.09936
1.20936
1.30929
1.39216
1.45879
1.51337
1.55979
1.60031
1.63574
1.6661
1.69123
1.71101
1.72551
1.7349
1.73927
1.73856
1.73251
1.72078
1.70312
1.67957
1.65055
1.61686
1.57954
1.53976
1.49857
1.45683
1.41509
1.3736
1.33235
1.29119
1.24992
1.20838
1.16655
1.12451
1.08254
1.04106
1.00058
0.961617
0.924647
0.890088
0.85825
0.829334
0.803418
0.780468
0.760356
0.742906
0.727946
0.715398
0.705415
0.698556
0.696021
0.699767
0.712036
0.733739
0.762629
0.795601
0.83676
0.901666
1.01184
1.19095
1.47493
1.91407
2.52238
3.17881
3.60746
3.59632
3.21017
2.6826
2.18203
1.81736
1.59766
1.48216
1.42898
1.41621
1.43165
1.45893
1.4849
1.53408
1.61436
1.72588
1.85621
1.98282
2.08424
2.15013
2.184
2.19851
2.20915
2.22925
2.26487
2.31214
2.36015
2.39083
2.37251
2.27791
2.11135
7.9359
3.30317
3.23368
3.00789
2.64658
2.28525
1.99725
1.78709
1.64267
1.54838
1.48929
1.45184
1.42457
1.39959
1.37317
1.34484
1.31596
1.28907
1.2682
1.25903
1.26825
1.3003
1.35661
1.44111
1.55919
1.71851
1.93004
2.20871
2.57124
3.02379
3.52336
3.92978
4.05742
3.83272
3.35162
2.79238
2.30233
1.92707
1.64287
1.42581
1.26666
1.16124
1.10467
1.08997
1.10796
1.14769
1.19751
1.24684
1.28767
1.3153
1.3284
1.32859
1.31957
1.30598
1.29213
1.28124
1.27529
1.27565
1.28392
1.30237
1.33562
1.37929
1.43092
1.49027
1.55549
1.62188
1.68239
1.72711
1.74196
1.71786
1.65683
1.56882
1.46743
1.36284
1.26007
1.16227
1.07419
1.00186
0.948123
0.909843
0.882466
0.868271
0.877688
0.920812
0.997735
1.09634
1.1989
1.29164
1.36944
1.43398
1.4893
1.53863
1.58346
1.62397
1.65969
1.69003
1.71462
1.73337
1.74639
1.75392
1.75609
1.75283
1.74392
1.72909
1.7082
1.68144
1.64934
1.61276
1.5728
1.53059
1.48713
1.44325
1.39945
1.35598
1.31288
1.27003
1.22731
1.18462
1.14193
1.09938
1.05726
1.01594
0.975852
0.937438
0.901115
0.867238
0.836081
0.807827
0.782558
0.760271
0.74091
0.724444
0.710899
0.70054
0.694028
0.69266
0.698499
0.71388
0.739755
0.773919
0.813526
0.862892
0.936553
1.05304
1.23241
1.51101
1.93709
2.51527
3.1149
3.47591
3.42235
3.03271
2.51578
2.04394
1.7141
1.51974
1.41603
1.36617
1.35333
1.36505
1.37781
1.38622
1.42148
1.49393
1.60249
1.73425
1.86705
1.97898
2.05813
2.10619
2.134
2.1549
2.18031
2.21596
2.25898
2.30016
2.32671
2.31612
2.24162
2.0995
6.66991
3.35739
3.38726
3.24497
2.92609
2.55811
2.24354
1.99954
1.82304
1.70295
1.6261
1.57992
1.55401
1.54093
1.53629
1.53797
1.54492
1.55642
1.57215
1.59256
1.61927
1.66359
1.72863
1.81911
1.94079
2.10108
2.30918
2.57379
2.89332
3.23444
3.51549
3.63519
3.53785
3.24365
2.82938
2.3963
2.02189
1.72579
1.49575
1.32225
1.20137
1.12942
1.10093
1.10838
1.14209
1.19076
1.24291
1.28874
1.32149
1.33787
1.33799
1.3249
1.3035
1.27917
1.25624
1.23716
1.22261
1.21303
1.21125
1.22389
1.25198
1.28578
1.32649
1.37619
1.4344
1.49723
1.55823
1.60867
1.63753
1.63445
1.59505
1.52454
1.43502
1.3383
1.24198
1.15096
1.07045
1.00541
0.956686
0.919829
0.891466
0.876741
0.887459
0.932134
1.00802
1.10164
1.19664
1.28206
1.35505
1.41791
1.47413
1.52598
1.57422
1.61852
1.65815
1.69236
1.72062
1.74268
1.75857
1.76852
1.77276
1.7714
1.76436
1.75144
1.73246
1.70745
1.67671
1.64091
1.60098
1.55802
1.51312
1.46723
1.4211
1.37519
1.32975
1.28482
1.24036
1.19627
1.15251
1.10913
1.06629
1.02426
0.983362
0.943975
0.906475
0.871213
0.838499
0.808575
0.781614
0.75772
0.736948
0.719373
0.705184
0.694714
0.688714
0.688558
0.696383
0.714637
0.744441
0.783869
0.830388
0.888035
0.969402
1.08933
1.26477
1.53296
1.94044
2.48591
3.0375
3.35241
3.27821
2.89254
2.38943
1.94431
1.64023
1.46193
1.36411
1.31487
1.2999
1.30339
1.30174
1.30023
1.3289
1.39905
1.50867
1.64337
1.78147
1.90172
1.99179
2.05239
2.09318
2.12565
2.15885
2.19688
2.23652
2.26921
2.28535
2.27062
2.20402
2.07824
5.45051
3.35272
3.49997
3.47219
3.2598
2.92338
2.60275
2.3297
2.11546
1.9589
1.85207
1.78406
1.74428
1.72452
1.71977
1.72771
1.74738
1.77767
1.81639
1.86049
1.90771
1.96434
2.03485
2.12438
2.24
2.38929
2.57757
2.80107
3.03638
3.2358
3.34186
3.31505
3.14845
2.86443
2.51267
2.15949
1.85342
1.60654
1.4142
1.27268
1.17938
1.13053
1.12066
1.14237
1.18615
1.24108
1.29497
1.3385
1.36638
1.37619
1.36879
1.34789
1.31901
1.28792
1.25916
1.23516
1.21667
1.20416
1.19878
1.20294
1.21554
1.23377
1.25977
1.29615
1.34296
1.39731
1.45337
1.50307
1.53641
1.54309
1.51694
1.46014
1.38232
1.29483
1.20657
1.12416
1.05345
0.997967
0.955789
0.92144
0.894191
0.882712
0.899045
0.948346
1.02415
1.11219
1.19873
1.27657
1.34512
1.4069
1.4644
1.51876
1.56992
1.61722
1.65978
1.69684
1.72782
1.75238
1.77048
1.78226
1.78798
1.78785
1.78194
1.77017
1.75239
1.72856
1.69882
1.66365
1.62381
1.58028
1.53415
1.48644
1.43805
1.38964
1.34164
1.29428
1.24764
1.20168
1.15639
1.11181
1.06804
1.02524
0.983651
0.943575
0.905323
0.869217
0.835561
0.804625