/*--------------------------------*- C++ -*----------------------------------*\
| =========                 |                                                 |
| \\      /  F ield         | OpenFOAM: The Open Source CFD Toolbox           |
|  \\    /   O peration     | Version:  2112                                  |
|   \\  /    A nd           | Website:  www.openfoam.com                      |
|    \\/     M anipulation  |                                                 |
\*---------------------------------------------------------------------------*/
FoamFile
{
    version     2.0;
    format      ascii;
    arch        "LSB;label=32;scalar=64";
    class       volScalarField;
    location    "0.27";
    object      omega;
}
// * * * * * * * * * * * * * * * * * * * * * * * * * * * * * * * * * * * * * //

dimensions      [0 0 -1 0 0 0 0];

internalField   nonuniform List<scalar> 
12225
(
5753.33
8259.34
9136.72
9313.62
9203.34
8971.72
8682.63
8361.03
8017.37
7656.48
7281.28
6894.7
6500.73
6104.56
5712.9
5331.37
4970.59
4606.95
344.938
785.671
1209.29
1586.27
1908.42
2181.66
2417.33
2626.07
2815.98
2993.05
3159.4
3314.76
3458.05
3587.55
3701.43
3798.25
3876.86
3939.67
49.0738
80.8779
133.783
207.328
297.381
398.698
507.158
619.977
735.425
852.568
970.802
1089.52
1207.99
1325.27
1440.5
1552.99
1663
1771.42
39.729
41.0609
44.5505
51.3996
62.695
79.1697
101.346
129.591
164.079
204.773
251.378
303.324
359.84
419.854
482.131
545.39
609.03
672.104
39.4974
39.4324
39.501
39.8472
40.683
42.2626
44.8805
48.8743
54.6141
62.4815
72.839
85.9859
102.112
121.245
143.25
167.819
194.692
223.438
39.4905
39.3739
39.2674
39.1813
39.1359
39.1637
39.3117
39.646
40.2549
41.2492
42.7595
44.929
47.901
51.8017
56.7288
62.7414
69.8775
78.1642
39.4887
39.3694
39.2553
39.1469
39.0457
38.9542
38.8768
38.8213
38.8002
38.8316
38.9403
39.1577
39.5209
40.07
40.8454
41.8843
43.2201
44.8831
39.4875
39.3675
39.2528
39.1434
39.0391
38.9402
38.8465
38.7588
38.6781
38.6068
38.548
38.5064
38.4883
38.5012
38.5539
38.6562
38.8182
39.0499
39.4867
39.366
39.2511
39.1414
39.037
38.9376
38.8431
38.7534
38.6683
38.5883
38.5136
38.4446
38.3822
38.3275
38.2818
38.2472
38.2263
38.2222
39.4861
39.3651
39.25
39.1404
39.036
38.9367
38.8423
38.7526
38.6675
38.5868
38.5108
38.4392
38.3721
38.3097
38.2522
38.2001
38.1544
38.1163
39.4869
39.3666
39.2523
39.1435
39.04
38.9415
38.8479
38.7589
38.6743
38.5942
38.5183
38.4465
38.3789
38.3153
38.2557
38.2004
38.15
38.105
39.4897
39.3721
39.2603
39.1539
39.0527
38.9563
38.8646
38.7774
38.6945
38.6157
38.5409
38.4699
38.4027
38.3391
38.2791
38.2227
38.1703
38.1222
39.4935
39.3795
39.2711
39.168
39.0699
38.9765
38.8877
38.8031
38.7226
38.646
38.5732
38.5039
38.4381
38.3754
38.316
38.2597
38.2066
38.157
39.4974
39.387
39.282
39.1822
39.0873
38.9969
38.911
38.8292
38.7513
38.6771
38.6065
38.5392
38.475
38.4138
38.3555
38.2998
38.2468
38.1966
39.5003
39.3927
39.2904
39.1931
39.1006
39.0126
38.9289
38.8493
38.7734
38.7012
38.6324
38.5667
38.504
38.444
38.3867
38.3317
38.2791
38.2288
39.5023
39.3964
39.2958
39.2001
39.1092
39.0227
38.9404
38.8622
38.7877
38.7167
38.6491
38.5845
38.5228
38.4637
38.4072
38.3529
38.3009
38.251
39.5034
39.3986
39.299
39.2042
39.1141
39.0285
38.947
38.8696
38.7958
38.7256
38.6587
38.5949
38.5339
38.4756
38.4198
38.3664
38.3153
38.2665
39.5041
39.3999
39.3007
39.2064
39.1168
39.0315
38.9505
38.8735
38.8002
38.7305
38.6642
38.601
38.5408
38.4834
38.4287
38.3765
38.327
38.2799
39.5038
39.3993
39.2998
39.2052
39.1153
39.0298
38.9486
38.8715
38.7982
38.7287
38.6626
38.5999
38.5403
38.4838
38.4303
38.3797
38.3318
38.2868
39.5026
39.3968
39.2962
39.2005
39.1095
39.0232
38.9412
38.8634
38.7897
38.7199
38.6537
38.5911
38.5319
38.476
38.4233
38.3737
38.3272
38.2838
39.5001
39.392
39.2891
39.1913
39.0984
39.0103
38.9267
38.8475
38.7726
38.7017
38.6347
38.5715
38.512
38.4559
38.4033
38.354
38.308
38.2652
39.4951
39.3823
39.2749
39.1729
39.0761
38.9843
38.8974
38.8152
38.7375
38.6642
38.5951
38.5302
38.4691
38.4119
38.3585
38.3088
38.2625
38.2197
39.488
39.3685
39.2549
39.1471
39.0448
38.9479
38.8564
38.7698
38.6882
38.6112
38.5388
38.4708
38.407
38.3474
38.2918
38.2401
38.1922
38.1481
39.4851
39.3629
39.2468
39.1367
39.0326
38.9343
38.8416
38.7542
38.672
38.5948
38.5223
38.4545
38.391
38.3317
38.2766
38.2253
38.1779
38.1341
39.4856
39.3639
39.2482
39.1384
39.0346
38.9372
38.8463
38.7619
38.6839
38.6123
38.5468
38.487
38.4324
38.3823
38.3362
38.2935
38.2536
38.2161
39.4867
39.3679
39.2601
39.1675
39.0965
39.0539
39.0451
39.0736
39.1407
39.2445
39.3806
39.5423
39.7216
39.91
40.0988
40.2801
40.4474
40.5945
39.5024
39.4942
39.693
40.2179
41.1821
42.6488
44.6308
47.0999
49.9929
53.2195
56.6751
60.2505
63.8408
67.3516
70.7033
73.8349
76.7016
79.2764
41.0016
47.1148
58.4729
75.4183
97.477
123.409
151.858
181.579
211.496
240.728
268.599
294.625
318.491
340.025
359.167
375.965
390.513
403.089
148.612
339.84
549.393
754.608
942.108
1106.52
1248.04
1369.06
1472.39
1560.75
1636.53
1701.75
1758.07
1806.87
1849.28
1886.26
1918.64
1947.27
3774.99
5776.98
6699.31
7065.03
7165.2
7142.27
7062.89
6958.37
6843.95
6727.44
6613.02
6503.11
6399.14
6302.02
6212.21
6129.99
6055.14
5988.06
878.666
881.088
908.614
925.331
945.14
976.259
1023.25
1071.81
1116.99
1164.7
1205.13
1243.27
1287.01
1338.48
1398.88
1468.53
1547.31
1635.24
1733.48
1842.09
1937.99
2018.67
2080.76
2118.36
2121.65
2074.39
1946.25
1682.38
1259.29
802.045
528.376
477.418
502.439
542.091
590.107
648.95
722.582
794.265
827.199
843.783
861.16
862.597
812.754
706.209
591.578
522.943
489.225
543.479
741.918
1122.79
1619.53
1968.95
2221.54
2426.29
2588.91
2714.61
2808.21
2873.9
2915.2
2935.03
2935.73
2919.08
2886.39
2838.63
2776.35
2699.45
2607.49
2508.7
2404.66
2294.65
2178.33
2055.6
1926.55
1791.56
1651.42
1507.58
1362.08
1217.38
1075.91
939.947
811.625
692.975
585.876
492.006
412.812
349.504
303.058
274.292
264.194
274.07
296.839
330.007
371.737
420.019
472.88
528.466
585.058
641.164
695.56
747.274
795.574
839.952
880.114
915.967
946.274
967.969
982.334
990.435
993.133
991.117
984.91
974.839
961.088
943.982
924.467
904.356
885.801
870.322
858.32
849.415
843.072
839.093
838.099
840.27
845.457
853.338
863.479
875.459
888.996
903.977
920.478
938.745
959.157
982.237
1008.69
1039.18
1073.45
1109.09
1141.91
1168.81
1190.15
1208.9
1227.41
1245.21
1260.3
1273.31
1290.07
1316.19
1340.26
1333.95
1291.68
1212.22
1094.87
959.063
880.123
958.043
1205.67
1467.37
1667.78
1796.31
1840.53
1799.41
1678.96
1488.02
1269.51
1049.48
846.448
679.633
567.173
525.271
570.745
686.169
851.551
1053.22
1267.22
1459.6
1581.9
1607.21
1566.79
1453.19
1008.23
721.591
726.321
730.578
770.069
908.55
1028.12
1049.07
1031.03
997.265
956.725
913.985
871.798
832.014
795.808
763.836
736.413
713.707
695.843
684.081
704.105
754.478
832.016
930.487
1040.48
1149.08
1238.45
1284.88
1277.24
1223.86
1112.33
941.925
738.878
571.102
513.76
564.178
629.644
680.087
695.649
664.542
606.859
574.026
570.7
594.178
709.465
956.438
1246.06
1375.88
1435.45
1491.45
1519.5
1496.38
1436.24
1348.98
1242.27
1123.55
999.618
876.48
759.288
652.162
558.111
479.093
416.162
369.543
338.696
322.75
321.202
322.424
323.946
325.688
327.585
329.581
331.619
333.633
335.539
337.231
338.554
339.253
338.803
337.02
333.661
328.464
321.254
311.991
300.8
287.973
273.917
259.03
243.495
229.097
217.672
207.317
198.039
189.823
182.665
176.8
172.143
168.578
166.054
164.559
164.11
164.749
166.572
169.862
176.247
189.079
207.544
229.745
254.1
279.433
304.797
329.402
352.425
372.885
389.716
401.989
409.373
412.294
411.732
408.847
404.709
400.044
394.445
387.348
379.067
370.431
361.902
353.616
345.474
337.182
328.389
319.102
309.601
300.367
292.102
285.803
282.729
284.067
290.167
299.966
311.876
324.873
338.449
351.484
361.286
364.757
362.215
360.231
371.445
402.46
439.299
490.161
578.38
701.602
819.545
888.987
891.921
840.901
749.249
634.805
519.419
424.717
367.174
354.91
356.607
359.744
362.873
364.705
364.401
361.061
353.172
342.642
333.672
331.216
342.134
378.805
460.927
573.163
672.2
745.001
1099.51
688.647
636.516
653.283
883.013
1070.46
1106.52
1056.16
976.084
894.077
820.012
756.194
702.37
657.56
620.63
590.483
566.143
546.799
531.827
520.814
515.584
519.454
537.288
573.966
632.005
709.265
797.667
883.636
954.783
1005.15
1024.88
999.18
916.334
797.874
703.091
657.236
673.699
713.786
743.936
726.208
660.247
638.411
729.552
961.096
1198.1
1263.36
1266.02
1230.27
1175.57
1106.16
1018.35
914.592
804.022
694.617
593.326
505.368
433.681
378.907
339.84
314.074
298.682
290.773
287.858
287.984
289.76
292.314
295.073
297.942
300.915
304
307.208
310.546
314.015
317.594
321.235
324.846
328.277
331.309
333.646
334.922
334.723
332.626
328.257
321.368
311.909
300.069
286.24
270.912
254.374
239.154
226.413
214.529
203.554
193.483
184.277
175.871
168.194
161.182
154.782
148.947
143.64
138.83
134.498
130.634
127.25
124.393
122.275
121.716
123.131
126.66
132.318
140.025
149.508
160.248
171.493
182.4
192.278
200.749
207.707
213.134
216.983
219.205
219.923
219.642
218.223
215.38
211.375
206.492
200.965
194.953
188.568
181.907
175.102
168.358
161.963
156.255
151.526
147.925
145.486
144.248
144.389
146.226
150.072
156.079
164.199
174.344
186.975
204.03
230.156
274.612
346.48
456.222
598.767
721.729
751.762
701.614
619.3
525.705
439.14
373.176
333.249
316.096
313.291
316.684
322.067
327.831
333.001
336.994
339.475
340.116
337.982
331.748
322.098
308.134
290.875
273.85
264.778
280.979
326.91
384.994
920.26
637.106
669.036
1060.85
1283.93
1263.17
1140.42
998.405
870.7
765.717
682.366
617.144
566.46
527.182
496.727
473.056
454.625
440.318
429.362
421.267
416.653
416.478
422.063
436.256
463.06
505.985
565.416
636.544
711
780.859
838.324
873.355
873.97
840.539
799.248
772.844
773.268
808.148
859.186
862.245
869.096
932.486
1047.65
1133.65
1142.29
1089.97
1015.96
930.533
839.404
744.509
648.573
556.969
475.672
408.691
357.608
321.64
298.371
284.718
277.716
274.943
274.645
275.668
277.325
279.24
281.233
283.208
285.094
286.922
288.745
290.632
292.665
294.937
297.537
300.545
304.011
307.937
312.255
316.801
321.292
325.322
328.364
329.811
329.032
325.476
318.79
308.936
296.205
281.15
264.298
249.103
235.726
223.199
211.613
200.979
191.232
182.291
174.077
166.518
159.55
153.118
147.176
141.685
136.613
131.932
127.617
123.644
119.994
116.652
113.618
111.004
108.986
107.702
107.268
107.737
109.084
111.178
113.727
116.444
119.064
121.333
122.999
123.856
123.811
122.979
121.777
120.341
118.614
116.611
114.366
111.932
109.386
106.842
104.438
102.322
100.669
99.666
99.4831
100.241
102.011
104.827
108.691
113.544
119.305
126.061
134.384
145.65
162.222
187.47
226.085
285.568
377.352
506.475
637.384
684.658
628.78
543.772
457.327
384.11
332.081
301.68
288.159
285.337
288.403
294.765
301.571
307.638
312.251
315.125
316.35
316.275
315.144
312.471
308.024
300.238
287.967
271.378
252.453
235.734
231.853
244.815
711.237
696.646
1393.58
1545.42
1398.21
1184.06
985.481
824.993
702.274
610.782
543.567
494.586
458.885
432.617
412.95
397.897
386.112
376.722
369.188
363.207
359.128
358.043
360.357
367.238
381.001
404.997
442.38
493.784
555.823
622.331
686.636
742.236
781.85
802.096
813.465
832.161
857.175
925.348
1025.21
1050.3
1019.97
1030.83
1034.64
1003.27
936.911
852.678
763.836
674.859
588.898
508.847
438.26
380.392
336.736
306.592
287.715
277.223
272.375
270.983
271.514
272.995
274.857
276.784
278.604
280.225
281.598
282.648
283.374
283.801
283.989
284.029
284.051
284.215
284.707
285.724
287.455
290.052
293.597
298.063
303.273
308.872
314.315
318.885
321.74
322.011
318.96
312.181
301.701
287.995
271.95
257.389
243.713
230.739
218.647
207.498
197.274
187.912
179.325
171.421
164.113
157.332
151.019
145.135
139.647
134.535
129.78
125.367
121.28
117.504
114.02
110.81
107.857
105.166
102.758
100.651
98.8602
97.3877
96.2081
95.2687
94.4919
93.7787
93.018
92.1063
90.9773
89.6306
88.1604
86.7477
85.4175
84.1768
83.0409
82.0342
81.1954
80.582
80.275
80.3811
81.0305
82.3663
84.5263
87.6238
91.7345
96.8724
102.94
109.704
116.935
124.771
134.19
147.4
167.951
200.075
249.003
322.15
427.308
552.969
634.7
602.525
519.412
436.257
366.778
317.147
287.328
273.37
270.211
273.578
280.439
288.567
296.145
302.29
306.379
308.139
307.698
305.491
302.125
298.243
294.393
289.413
281.6
269.526
253.386
235.173
218.359
208.624
598.9
1621.8
1771.36
1501.87
1196.92
947.868
763.944
633.705
543.782
482.785
441.689
413.765
394.299
380.156
369.328
360.561
353.11
346.58
340.81
335.77
331.68
329.338
329.118
331.795
338.817
352.568
376.167
412.254
461.068
519.451
582.221
644.853
704.139
758.581
814.92
876.756
951.907
1101.46
1138.4
1049.99
993.169
946.682
890.013
818.349
736.788
653.221
572.697
498.117
432.233
377.418
335.126
305.259
286.199
275.466
270.488
269.104
269.754
271.445
273.605
275.93
278.256
280.487
282.549
284.367
285.71
286.528
286.79
286.498
285.689
284.44
282.875
281.168
279.542
278.266
277.634
277.943
279.442
282.289
286.485
291.837
297.923
304.081
309.411
312.825
313.195
309.668
301.888
290.106
275.836
262.281
248.792
235.766
223.481
212.068
201.562
191.932
183.108
174.997
167.504
160.543
154.044
147.95
142.223
136.838
131.779
127.037
122.606
118.478
114.647
111.104
107.833
104.819
102.04
99.4848
97.13
94.955
92.9421
91.0725
89.324
87.6705
86.0835
84.5362
83.0117
81.509
80.0487
78.6774
77.433
76.3372
75.4184
74.7115
74.2611
74.126
74.3836
75.1342
76.5012
78.6246
81.6469
85.6951
90.8538
97.1145
104.302
112.069
120.143
128.824
139.529
155.201
180.234
219.566
278.716
363.318
472.371
573.638
591.166
518.894
436.638
366.407
314.597
281.956
265.555
260.832
263.395
269.94
278.192
286.657
294.342
300.427
304.286
305.647
304.618
301.561
296.92
291.782
286.517
281.113
274.787
265.798
252.802
236.421
218.997
203.355
1062.84
2091.89
1706.22
1260.33
932.174
715.353
578.182
493.592
442.002
410.344
390.362
377.034
367.391
359.689
352.892
346.412
340.003
333.708
327.778
322.5
318.035
314.608
312.619
312.736
316.063
324.406
340.375
366.893
405.885
456.762
516.447
582.273
654.25
735.039
828.549
920.012
1061.56
1160.37
1065.93
964.046
883.259
808.937
733.699
656.646
580.376
508.479
443.838
388.754
344.85
312.565
291.027
278.339
272.16
270.28
270.955
272.995
275.679
278.621
281.626
284.596
287.46
290.145
292.551
294.537
295.762
296.255
295.991
294.976
293.246
290.877
287.985
284.737
281.352
278.106
275.326
273.364
272.559
273.178
275.364
279.089
284.139
290.078
296.175
301.332
304.147
303.322
298.042
288.275
276.466
263.877
250.939
238.225
226.083
214.698
204.141
194.412
185.467
177.234
169.632
162.577
155.991
149.809
143.979
138.467
133.248
128.309
123.647
119.261
115.152
111.322
107.767
104.48
101.448
98.6524
96.0747
93.69
91.4685
89.3856
87.4194
85.5509
83.7651
82.0519
80.4072
78.8348
77.3472
75.967
74.7228
73.6417
72.7596
72.1195
71.7738
71.7879
72.2457
73.2544
74.9463
77.4741
80.9973
85.6618
91.562
98.6698
106.739
115.338
124.216
133.918
146.334
165.111
195.15
241.814
310.027
401.354
502.602
565.087
529.844
449.613
376.748
320.412
282.699
261.922
254.081
254.599
259.813
267.361
275.752
284.089
291.582
297.424
300.98
301.992
300.648
297.418
293.142
288.291
282.861
276.881
270.278
262.369
251.673
237.425
220.98
204.605
2780.18
2237.15
1464
967.949
690.162
541.82
463.268
420.755
396.895
382.659
373.287
366.31
360.339
354.441
348.012
340.794
332.868
324.667
316.935
310.428
305.297
301.432
299.098
298.731
301.132
307.747
320.827
343.175
377.279
424.044
482.285
551.48
635.079
740.522
856.574
973.522
1116.03
1072.7
949.491
843.768
755.648
676.809
602.873
532.845
468.159
411.186
363.927
327.497
301.842
285.773
277.369
274.476
275.143
277.865
281.631
285.84
290.165
294.439
298.556
302.426
305.96
309.077
311.715
313.337
314.14
314.063
313.063
311.134
308.305
304.645
300.266
295.329
290.061
284.769
279.829
275.651
272.62
271.022
270.984
272.493
275.461
279.747
284.983
290.313
294.266
295.161
291.737
284.189
274.25
262.719
250.515
238.314
226.539
215.408
205.013
195.369
186.45
178.205
170.572
163.482
156.867
150.663
144.815
139.276
134.014
129.006
124.241
119.716
115.434
111.402
107.625
104.107
100.844
97.8269
95.0416
92.4706
90.0906
87.8729
85.7929
83.8287
81.9628
80.1833
78.4852
76.8713
75.3526
73.9494
72.6911
71.6077
70.7391
70.1336
69.85
69.9609
70.5584
71.7599
73.7111
76.5827
80.5575
85.8052
92.4321
100.384
109.339
118.804
128.624
139.647
154.224
176.539
211.665
264.956
339.704
431.388
514.342
534.161
470.439
395.345
333.493
289.184
262.336
249.934
247.438
250.682
256.899
264.536
272.541
280.4
287.48
292.97
296.163
296.718
294.87
291.546
287.714
283.58
279.137
274.06
267.872
260.27
250.718
238.25
223.075
206.992
3771.2
2037.66
1105.58
695.229
525.419
451.971
415.97
396.414
384.808
377.019
371.098
365.994
360.708
354.324
346.357
336.761
325.787
314.107
303.101
294.349
288.209
284.743
283.824
285.278
289.388
297.293
311.122
333.71
367.887
415.263
475.586
550.243
647.91
774.548
894.329
1024.7
1050.07
943.42
822.658
723.542
640.855
568.375
502.7
443.421
392.012
350.187
318.799
297.562
285.195
279.815
279.391
282.106
286.559
291.814
297.317
302.781
308.065
313.092
317.799
322.116
325.944
329.148
331.564
333.098
333.803
333.558
332.277
329.928
326.531
322.144
316.852
310.762
304.037
296.952
289.931
283.512
278.238
274.496
272.367
271.646
272.162
273.973
277.188
281.358
285.174
286.681
284.455
278.683
270.038
259.507
248.055
236.432
225.12
214.37
204.282
194.874
186.121
177.983
170.411
163.355
156.76
150.576
144.753
139.244
134.01
129.02
124.253
119.696
115.348
111.213
107.301
103.621
100.179
96.9767
94.0095
91.2654
88.7304
86.3807
84.1917
82.1408
80.2083
78.3794
76.6454
75.0059
73.4689
72.0525
70.7848
69.7017
68.8425
68.2606
68.021
68.2045
68.9131
70.2769
72.4582
75.6503
80.0639
85.8973
93.271
102.103
111.999
122.443
133.418
146.065
163.092
188.93
228.646
287.118
365.026
450.629
508.977
492.569
420.497
353.534
301.877
267.51
248.994
242.369
243.047
247.538
253.871
260.996
268.118
275.229
281.819
287.039
290.043
290.298
288.103
284.699
280.868
277.148
273.637
269.988
265.382
258.899
250.187
238.988
225.148
209.716
4264.93
1615.44
766.939
531.085
458.706
425.489
405.73
393.297
384.989
378.896
374.08
369.582
364.037
356.375
346.259
333.744
318.989
302.648
286.853
274.578
268.333
268.125
270.978
275.704
282.673
293.432
310.563
337.347
376.981
431.13
499.395
582.123
691.958
816.575
925.755
989.094
930.197
813.045
706.509
620.159
547.885
484.848
429.216
381.574
343.27
315.048
296.556
286.504
283.051
284.214
288.216
293.68
299.689
305.724
311.543
317.06
322.266
327.162
331.739
335.954
339.733
342.981
345.488
347.468
348.681
348.899
347.959
345.781
342.393
337.898
332.418
326.041
318.827
310.888
302.551
294.412
287.169
281.46
277.511
274.856
273.067
272.197
272.835
274.992
277.677
278.822
277.17
272.264
264.507
254.772
243.996
232.944
222.125
211.812
202.113
193.04
184.562
176.638
169.225
162.281
155.769
149.65
143.886
138.439
133.273
128.352
123.649
119.14
114.816
110.673
106.716
102.957
99.405
96.0713
92.9602
90.0699
87.3918
84.9144
82.6161
80.4764
78.4757
76.5974
74.8302
73.1702
71.6216
70.1988
68.9274
67.8455
66.9958
66.4329
66.2275
66.4685
67.2687
68.7724
71.1616
74.6561
79.4999
85.9259
94.0717
103.829
114.744
126.308
138.659
153.159
172.729
201.692
245.015
306.719
384.143
458.582
491.238
450.719
380.06
321.351
278.526
252.269
239.993
237.19
239.579
244.364
250.151
256.202
262.152
268.426
274.558
279.661
282.712
282.977
280.922
277.438
273.484
269.859
266.872
264.296
261.38
256.822
249.553
239.491
226.881
212.363
4375.3
1133.99
566.741
480.224
448.257
424.737
407.907
396.734
389.178
383.834
379.803
375.688
369.727
360.848
348.878
333.919
316.132
296.214
276.885
264.392
262.63
265.104
269.786
276.76
287.178
303.254
328.045
364.535
413.595
473.211
543.215
630.865
738.136
840.615
909.819
896.635
805.001
699.294
610.276
537.57
475.895
422.449
377.06
340.732
314.149
297.006
288.064
285.515
287.38
291.854
297.524
303.453
309.129
314.351
319.111
323.5
327.641
331.648
335.589
339.477
343.236
346.686
350.079
353.199
355.685
357.177
357.364
356.053
353.229
349.063
343.815
337.683
330.733
322.869
314.182
305.261
296.773
289.545
284.181
280.01
276.335
273.055
271.133
270.967
271.846
272.134
270.27
265.537
258.158
248.9
238.641
228.105
217.782
207.936
198.671
189.994
181.868
174.246
167.08
160.334
153.977
147.98
142.318
136.965
131.892
127.068
122.464
118.052
113.814
109.735
105.814
102.056
98.4708
95.072
91.8711
88.8749
86.0845
83.496
81.0961
78.8693
76.7986
74.8681
73.0654
71.3841
69.8252
68.3995
67.1286
66.0476
65.2058
64.6576
64.4779
64.7629
65.6364
67.2584
69.8325
73.6081
78.8674
85.8822
94.8119
105.529
117.542
130.371
144.282
160.74
182.685
214.05
259.735
322.561
396.252
456.726
466.857
413.881
347.766
296.509
261.175
241.397
233.639
233.223
236.33
240.782
245.555
250.169
254.92
260.374
266.102
271.205
274.497
275.152
273.492
270.179
266.205
262.548
259.765
257.8
256.057
253.337
248.038
239.434
228.004
214.52
4210.52
756.829
509.718
481.667
455.12
431.675
414.601
403.263
395.876
391.108
387.721
383.925
377.899
368.715
356.345
341.164
323.999
306.62
291.74
282.053
279.322
281.17
286.893
296.919
312.622
336.046
369.08
412.036
463.24
522.203
592.67
677.373
766.09
834.001
846.044
788.117
695.758
607.632
534.582
473.545
421.237
376.923
341.323
315.124
298.146
289.271
286.748
288.587
292.913
298.227
303.517
308.236
312.198
315.458
318.212
320.718
323.233
325.968
329.051
332.518
336.333
340.515
345.108
349.728
353.963
357.35
359.418
359.76
358.173
354.804
350.063
344.388
338.078
330.921
322.632
313.834
305.019
296.961
290.683
285.386
280.234
275.121
270.921
268.51
267.563
266.583
263.944
258.809
251.315
242.175
232.215
222.096
212.243
202.879
194.081
185.846
178.13
170.878
164.039
157.573
151.449
145.645
140.141
134.923
129.972
125.266
120.781
116.491
112.372
108.405
104.577
100.887
97.3381
93.9426
90.7138
87.664
84.8019
82.1314
79.6484
77.3447
75.208
73.2253
71.3849
69.6796
68.1084
66.6793
65.4105
64.333
63.494
62.9565
62.7942
63.1098
64.038
65.7545
68.4861
72.5141
78.1616
85.7443
95.4505
107.147
120.327
134.547
150.134
168.511
192.371
225.303
272.028
334.003
401.593
447.692
440.657
383.584
322.382
277.295
248.209
233.468
228.872
229.825
233.039
236.81
240.337
243.425
247.051
251.707
257.067
262.253
265.824
267.165
266.126
263.233
259.441
255.796
253.051
251.358
250.262
248.785
245.327
238.473
228.318
215.879
3829.77
593.55
519.31
495.128
467.663
443.167
424.843
412.525
404.803
400.274
397.445
394.479
389.677
382.183
372.051
359.87
346.579
333.555
322.567
315.398
313.569
316.595
324.609
338.273
358.564
386.327
421.658
463.874
512.796
569.88
636.004
706.735
767.346
790.625
759.496
688.901
608.477
536.685
476.184
424.466
380.444
344.648
317.833
300.027
290.322
287.098
288.384
292.228
297
301.556
305.258
307.883
309.514
310.419
310.963
311.523
312.434
313.95
316.233
319.318
323.115
327.986
333.471
339.282
345.055
350.323
354.529
357.056
357.366
355.369
351.493
346.366
340.731
334.527
327.099
319.044
310.766
303.021
296.293
290.173
283.834
277.144
271.099
266.806
264.161
261.771
258.023
252.08
244.09
234.766
224.898
215.076
205.644
196.757
188.449
180.693
173.435
166.612
160.167
154.056
148.244
142.706
137.428
132.398
127.609
123.047
118.699
114.545
110.562
106.729
103.028
99.4497
95.9909
92.6573
89.4599
86.4123
83.5273
80.8144
78.2781
75.9175
73.727
71.6979
69.8214
68.0907
66.5043
65.0683
63.7985
62.723
61.8847
61.3474
61.1924
61.5241
62.4866
64.2712
67.1274
71.3693
77.363
85.4722
95.9232
108.597
122.992
138.691
155.988
176.105
201.281
234.921
281.447
340.965
401.197
434.344
415.825
359.023
303.233
262.669
238.437
227.511
225.05
226.698
229.727
232.728
234.987
236.623
239.172
243.145
248.017
253.147
257.312
259.424
259.137
256.853
253.449
249.954
247.222
245.593
244.766
243.933
241.743
236.53
227.738
216.323
3313.29
592.665
536.87
512.393
484.271
458.399
438.251
424.32
415.635
410.858
408.501
406.897
404.5
400.383
394.4
386.959
378.773
370.806
364.255
360.436
360.625
365.458
375.33
390.714
412.003
439.355
472.69
511.971
557.376
608.62
663.158
712.33
737.908
724.022
674.875
608.446
541.68
482.558
431.422
387.378
350.845
322.701
303.264
291.947
287.371
287.675
290.871
295.182
299.278
302.355
304.085
304.512
303.932
302.781
301.527
300.583
300.267
300.798
302.322
304.935
308.645
313.612
319.323
325.607
332.192
338.685
344.564
349.151
351.615
351.446
348.916
344.628
339.62
334.267
328.274
321.476
314.144
306.943
300.279
293.715
286.43
278.427
270.912
265.124
260.999
257.175
252.119
245.111
236.39
226.699
216.79
207.178
198.12
189.696
181.889
174.64
167.88
161.536
155.545
149.855
144.425
139.226
134.241
129.461
124.882
120.501
116.313
112.308
108.469
104.78
101.221
97.7781
94.4422
91.2122
88.094
85.0986
82.2391
79.5274
76.9745
74.5858
72.3619
70.2998
68.3943
66.641
65.039
63.5935
62.3187
61.2406
60.3995
59.8546
59.693
60.0243
60.9985
62.8205
65.7618
70.1679
76.4487
85.0196
96.1562
109.775
125.403
142.619
161.581
183.155
209.047
242.594
287.889
343.844
396.504
419.143
394.037
339.637
288.393
251.939
231.484
223.118
221.862
223.732
226.507
228.928
230.121
230.439
231.854
234.826
239.377
244.711
249.434
252.308
252.813
251.232
248.365
245.179
242.534
240.888
240.088
239.459
237.901
233.866
226.33
215.889
2776.49
596.995
555.386
532.223
504.647
477.882
455.76
439.589
429.042
423.105
420.499
419.839
419.821
419.495
418.42
416.592
414.269
411.901
410.151
409.899
412.139
418.189
428.527
443.509
463.357
488.155
517.856
552.276
590.878
631.807
669.262
691.548
687.133
654.979
604.419
546.988
491.441
441.509
397.619
360.252
330.425
308.798
295.198
288.624
287.463
289.8
293.755
297.78
300.832
302.383
302.346
300.964
298.694
296.073
293.601
291.646
290.44
290.125
290.835
292.742
296.231
300.794
306.13
312.199
318.854
325.753
332.44
338.321
342.545
344.123
343.196
340.338
336.397
331.912
326.918
321.269
315.091
308.814
302.58
295.78
287.663
278.541
269.886
262.941
257.517
252.242
245.745
237.532
227.988
217.883
207.91
198.491
189.795
181.833
174.538
167.821
161.592
155.769
150.28
145.065
140.076
135.279
130.651
126.179
121.863
117.704
113.705
109.867
106.182
102.641
99.2281
95.9286
92.7306
89.6278
86.6204
83.7147
80.9215
78.2517
75.7197
73.3352
71.1041
69.0282
67.1069
65.3389
63.7248
62.2701
60.9881
59.903
59.0535
58.4963
58.3138
58.6266
59.5876
61.4125
64.3917
68.9008
75.3926
84.3382
96.0739
110.574
127.407
146.12
166.639
189.352
215.433
248.241
291.543
343.338
388.981
403.87
375.906
324.77
277.339
244.328
226.624
219.893
219.2
220.999
223.412
225.204
225.376
224.614
225.049
227.45
231.843
237.383
242.608
246.163
247.401
246.517
244.249
241.489
239.043
237.396
236.502
235.796
234.368
230.932
224.322
214.727
2238.26
601.54
572.161
553.087
528.349
502.266
478.86
460.274
447.045
438.771
434.565
433.349
434.094
436.002
438.582
441.6
444.953
448.583
452.477
456.713
461.503
468.552
478.474
491.67
508.403
528.805
552.837
580.069
608.881
635.016
651.142
650.091
629.706
593.616
548.079
499.401
452.48
409.7
372.144
340.979
317.182
301.028
291.984
288.846
289.948
293.442
297.616
301.154
303.246
303.565
302.182
299.474
296.003
292.367
289.053
286.347
284.341
283.096
282.911
284.425
287.651
291.495
296.015
301.39
307.577
314.266
321.01
327.248
332.257
335.301
335.982
334.541
331.709
328.144
324.077
319.479
314.439
309.15
303.385
296.295
287.316
277.221
267.714
259.863
253.222
246.433
238.405
228.955
218.629
208.19
198.232
189.066
180.774
173.304
166.55
160.396
154.734
149.468
144.518
139.819
135.316
130.966
126.743
122.629
118.622
114.725
110.948
107.298
103.78
100.392
97.1247
93.9684
90.9113
87.9445
85.064
82.2713
79.5732
76.9769
74.498
72.1479
69.9358
67.8676
65.9465
64.1747
62.5549
61.0935
59.8034
58.7075
57.8427
57.2642
57.0518
57.3212
58.2415
60.032
62.9998
67.548
74.1703
83.3932
95.6205
110.9
128.852
148.971
170.89
194.45
220.359
251.969
292.739
340.127
379.658
389.368
361.199
313.683
269.569
239.249
223.351
217.496
216.923
218.457
220.419
221.511
220.871
219.419
219.225
221.307
225.727
231.524
237.171
241.261
243.087
242.799
241.101
238.82
236.669
235.091
234.077
233.142
231.513
228.167
222.037
213.054
1714.19
600.116
584.896
574.045
556.156
534.047
511.534
491.435
475.312
463.72
456.465
452.868
452.081
453.361
456.218
460.401
465.763
472.11
479.121
486.408
493.713
501.714
511.162
522.517
536.234
552.588
571.386
591.39
609.638
621.517
622.452
610.196
585.509
551.053
510.475
467.893
426.784
389.235
356.693
330.399
311.07
298.701
292.612
291.577
294
298.166
302.43
305.625
307.147
306.781
304.673
301.25
297.112
292.882
289.056
285.909
283.534
281.992
281.405
282.065
283.813
286.225
289.459
293.731
299.026
305.088
311.477
317.649
322.957
326.7
328.392
328.086
326.331
323.725
320.576
316.967
312.976
308.515
302.905
295.145
285.107
274.129
263.967
255.281
247.319
238.853
229.213
218.578
207.621
197.031
187.26
178.491
170.717
163.836
157.707
152.192
147.165
142.519
138.166
134.035
130.066
126.213
122.444
118.738
115.087
111.498
107.98
104.549
101.217
97.9915
94.8745
91.8613
88.9443
86.1152
83.368
80.7006
78.1129
75.6161
73.2198
70.9346
68.771
66.7373
64.84
63.0839
61.4743
60.0187
58.7305
57.6318
56.7582
56.1631
55.9251
56.1572
57.0235
58.7603
61.6797
66.2051
72.8647
82.2382
94.8043
110.703
129.628
151.003
174.108
198.193
223.715
253.909
292.002
335.267
370.013
376.897
350.233
306.325
265.009
236.509
221.518
215.895
215.115
216.242
217.659
218.057
216.782
214.855
214.411
216.57
221.257
227.36
233.322
237.749
239.946
240.078
238.852
237.04
235.249
233.826
232.73
231.508
229.486
225.859
219.775
211.099
1302.28
589.764
587.914
588.177
581.148
567.468
550.047
531.779
514.96
501.154
491.115
484.813
481.656
480.836
481.645
483.678
486.852
491.26
496.949
503.76
511.372
519.427
528.565
538.803
550.551
563.852
577.981
591.096
600.34
602.681
596.069
579.95
554.953
522.641
485.659
447.302
410.418
376.962
348.404
325.807
309.599
299.75
295.832
296.181
299.335
303.735
307.93
310.95
312.26
311.692
309.398
305.785
301.426
296.918
292.755
289.239
286.508
284.6
283.481
283.227
283.696
284.924
287.111
290.438
294.902
300.253
306.051
311.769
316.813
320.563
322.582
322.876
321.863
320.021
317.634
314.822
311.575
307.434
301.332
292.424
281.256
269.601
258.951
249.425
240.082
230.001
218.987
207.506
196.254
185.786