/*--------------------------------*- C++ -*----------------------------------*\
| =========                 |                                                 |
| \\      /  F ield         | OpenFOAM: The Open Source CFD Toolbox           |
|  \\    /   O peration     | Version:  2112                                  |
|   \\  /    A nd           | Website:  www.openfoam.com                      |
|    \\/     M anipulation  |                                                 |
\*---------------------------------------------------------------------------*/
FoamFile
{
    version     2.0;
    format      ascii;
    arch        "LSB;label=32;scalar=64";
    class       volScalarField;
    location    "0.18";
    object      nut;
}
// * * * * * * * * * * * * * * * * * * * * * * * * * * * * * * * * * * * * * //

dimensions      [0 2 -1 0 0 0 0];

internalField   nonuniform List<scalar> 
12885
(
5.63591e-06
1.06992e-05
1.2385e-05
1.34393e-05
1.55488e-05
2.23697e-05
3.1385e-05
3.75936e-05
4.11406e-05
4.34349e-05
4.63304e-05
5.16885e-05
6.60357e-05
8.34697e-05
9.72339e-05
0.000106499
0.000112132
0.00011597
0.000120526
0.000129574
0.000146275
0.000163884
0.000179614
0.000192469
0.000201978
0.000208172
0.000212158
0.00021561
0.000219903
0.000225575
0.000232538
0.000240251
0.000248183
0.000255868
0.000262877
0.000269318
0.00027469
0.000278379
0.000283978
0.000294611
0.000204729
5.42989e-05
3.51447e-05
2.86132e-05
2.40932e-05
2.05608e-05
2.08403e-05
2.20044e-05
2.23794e-05
2.26161e-05
2.33891e-05
2.49971e-05
2.79686e-05
3.50153e-05
4.19721e-05
4.70895e-05
5.03354e-05
5.26338e-05
5.48744e-05
5.83649e-05
6.56266e-05
7.58254e-05
8.80776e-05
0.000101126
0.000113022
0.000123536
0.000131829
0.000138528
0.000144909
0.000152332
0.000161519
0.000172907
0.000186362
0.000202027
0.000218793
0.000237302
0.000254363
0.000274102
0.00028763
0.000308862
0.00150468
0.000442276
0.000269789
0.000199231
0.000164944
0.00013191
9.21019e-05
7.44024e-05
6.58933e-05
5.99697e-05
5.60056e-05
5.27892e-05
4.79047e-05
4.18567e-05
3.89522e-05
3.74776e-05
3.64592e-05
3.5775e-05
3.54096e-05
3.55324e-05
3.56355e-05
3.68035e-05
3.87348e-05
4.24146e-05
4.61837e-05
5.06075e-05
5.40977e-05
5.75705e-05
6.00052e-05
6.29977e-05
6.54944e-05
6.94367e-05
7.30977e-05
7.90835e-05
8.45416e-05
9.32176e-05
0.000100632
0.000111983
0.00012101
0.000133835
0.0026983
0.00166639
0.00105107
0.000772931
0.000647133
0.000524489
0.000393694
0.000321413
0.000277799
0.000247687
0.000230128
0.000216686
0.000197977
0.000176298
0.000155849
0.00014099
0.000130105
0.000119653
0.000112502
0.000104843
9.87098e-05
9.08223e-05
8.40748e-05
7.69301e-05
7.15067e-05
6.72305e-05
6.41716e-05
6.19444e-05
6.02285e-05
5.8992e-05
5.79948e-05
5.73434e-05
5.68354e-05
5.66651e-05
5.65815e-05
5.73281e-05
5.7744e-05
5.96558e-05
6.08959e-05
6.38791e-05
0.00312351
0.00361614
0.00244692
0.00186031
0.00155561
0.00128989
0.00105122
0.000889965
0.000775682
0.000693263
0.000643423
0.000605425
0.000563715
0.000519126
0.00047189
0.000431888
0.000401771
0.000371112
0.000349093
0.000325938
0.000308841
0.000290141
0.000275016
0.000257388
0.000242532
0.000225966
0.000214216
0.000200872
0.00019247
0.000180875
0.000173907
0.000164341
0.00015853
0.000149848
0.000144716
0.000136628
0.000131859
0.000124401
0.000120234
0.000113563
0.00364814
0.00457532
0.00418075
0.00332167
0.00280462
0.0023844
0.0020327
0.00176933
0.00156663
0.00141424
0.00131233
0.001234
0.00116
0.0010862
0.00100968
0.000939551
0.000882714
0.00082791
0.000783224
0.000740913
0.000707716
0.000676671
0.000650434
0.00062316
0.000598306
0.000571132
0.000548163
0.000523124
0.000503607
0.000480792
0.000463583
0.000444102
0.000429616
0.000412148
0.00039965
0.000383163
0.000372278
0.00035619
0.000347102
0.000330845
0.00439012
0.0050193
0.00586743
0.00489305
0.00422047
0.00367888
0.0032318
0.00287632
0.00259006
0.00236642
0.00220296
0.00207413
0.00195994
0.00185167
0.00174473
0.00164447
0.0015569
0.00147553
0.00140418
0.00133948
0.00128528
0.00123788
0.00119693
0.00115842
0.00112243
0.00108608
0.00105203
0.00101784
0.000987002
0.000956474
0.000929348
0.000902782
0.0008793
0.000855634
0.000834811
0.000812883
0.000794284
0.000773047
0.000757329
0.000734637
0.00527925
0.00565808
0.00639297
0.00633677
0.00561429
0.00501625
0.00451388
0.00409665
0.00374939
0.00346791
0.00324769
0.00306841
0.00291235
0.00276879
0.00263217
0.0025041
0.00238783
0.00228073
0.00218399
0.00209674
0.00202068
0.0019542
0.00189587
0.0018429
0.0017938
0.00174666
0.0017017
0.00165813
0.00161691
0.00157746
0.00154053
0.00150549
0.0014728
0.00144161
0.00141231
0.00138381
0.00135709
0.00133054
0.00130626
0.001277
0.00631105
0.0064637
0.00675157
0.0074981
0.00683332
0.00625361
0.00574878
0.00531216
0.00493689
0.00462129
0.00436074
0.00414098
0.00394928
0.00377568
0.00361392
0.00346301
0.00332374
0.00319507
0.0030772
0.00297007
0.00287434
0.00278924
0.00271339
0.00264476
0.0025816
0.00252235
0.00246627
0.00241279
0.00236185
0.00231317
0.00226676
0.00222241
0.00218022
0.00213989
0.00209962
0.00205985
0.00202133
0.00198433
0.00187361
0.00177643
0.00756792
0.00742561
0.0073668
0.00769516
0.00779119
0.00729055
0.00683395
0.0064208
0.00605266
0.00573082
0.00545263
0.00520853
0.00499356
0.00480092
0.00462282
0.0044572
0.00430319
0.00415985
0.00402693
0.00390455
0.00379306
0.00369215
0.00360087
0.00351782
0.00344147
0.00337043
0.00330368
0.00324049
0.00317978
0.00312064
0.0030629
0.00300662
0.00295211
0.00289685
0.00270138
0.00251268
0.0023492
0.00220918
0.00208837
0.00199326
0.00906788
0.00857533
0.0082421
0.00806896
0.00801355
0.00787796
0.00768974
0.0073506
0.00701876
0.00671577
0.0064423
0.00617863
0.00591376
0.00577194
0.00558848
0.00541888
0.00526033
0.00511084
0.00496973
0.00483731
0.00471434
0.00460121
0.00449765
0.00440282
0.00431547
0.00423427
0.00415799
0.00408581
0.00395235
0.00378636
0.00360081
0.00340758
0.00321631
0.00303223
0.0028573
0.00269566
0.00255064
0.00242498
0.00232061
0.0022408
0.00946204
0.0094319
0.0092715
0.00877092
0.00838616
0.00808207
0.00781362
0.00757504
0.00731257
0.0069651
0.00654926
0.00616005
0.00589078
0.00575672
0.00571193
0.00569934
0.0056646
0.0055723
0.0054196
0.00522889
0.0050295
0.00484349
0.00468126
0.00454351
0.0044248
0.00431669
0.00421042
0.00409801
0.0039723
0.00383009
0.00367303
0.00350519
0.00333262
0.00316612
0.0030181
0.002889
0.00277627
0.00267851
0.00259298
0.0025255
0.00946452
0.00945185
0.00941784
0.00934419
0.00912297
0.00860324
0.00813345
0.00775004
0.0073953
0.00701017
0.00660655
0.00624947
0.00598057
0.0058099
0.00572214
0.00567214
0.00561355
0.00551745
0.00537876
0.00521058
0.00503277
0.00486228
0.00470866
0.0045739
0.0044543
0.00434278
0.00423119
0.00411371
0.00399047
0.00386354
0.00373406
0.00360299
0.00347256
0.00334689
0.00323062
0.00312619
0.00303443
0.00295485
0.00288386
0.00282778
0.00946571
0.00946154
0.00945021
0.0094247
0.00937594
0.00930774
0.00880011
0.00818921
0.00766239
0.00721992
0.00684245
0.00652336
0.00625876
0.00604615
0.00587857
0.00573992
0.00561228
0.00548358
0.00534913
0.00520966
0.00506873
0.00493024
0.00479688
0.00466953
0.00454733
0.00442835
0.00431045
0.00419244
0.00407498
0.00395985
0.00384872
0.00374286
0.00364335
0.00355111
0.00346683
0.00339107
0.00332454
0.00326685
0.00321424
0.00317396
0.0094664
0.00946497
0.00946212
0.00945581
0.00944286
0.00942107
0.00939255
0.00889742
0.00822968
0.00769255
0.00727691
0.00693679
0.00664374
0.00638376
0.00615038
0.00594054
0.00575258
0.00558467
0.00543391
0.00529644
0.00516816
0.00504543
0.00492558
0.00480709
0.0046895
0.00457325
0.0044594
0.00434934
0.00424446
0.00414589
0.00405447
0.00397081
0.00389524
0.00382778
0.00376819
0.00371617
0.00367179
0.00363403
0.00359881
0.00357392
0.00946639
0.00946611
0.00946563
0.00946426
0.00946222
0.00945848
0.00945212
0.00944398
0.00896698
0.00835182
0.0078609
0.0074615
0.00711429
0.00680453
0.00652671
0.00627795
0.00605675
0.00586156
0.0056897
0.00553727
0.00539987
0.0052734
0.00515462
0.00504144
0.0049329
0.00482894
0.00473011
0.0046372
0.00455093
0.00447183
0.00440017
0.00433602
0.00427928
0.00422972
0.00418692
0.00415055
0.00412052
0.00409573
0.00407217
0.00405728
0.00946632
0.00946606
0.00946595
0.00946592
0.0094659
0.00946567
0.00946522
0.00946451
0.00946324
0.00897293
0.00842391
0.00797923
0.00760036
0.00726522
0.00696924
0.00670853
0.00647817
0.00627394
0.00609236
0.00593025
0.00578471
0.00565323
0.00553376
0.00542475
0.00532508
0.00523397
0.0051509
0.00507549
0.00500744
0.00494648
0.00489227
0.00484444
0.00480268
0.00476668
0.00473599
0.00471025
0.00468935
0.00467248
0.00465641
0.00464627
0.00946629
0.00946597
0.00946577
0.00946565
0.00946556
0.00946531
0.00946477
0.00946411
0.00946285
0.00929302
0.00874562
0.00828771
0.00791342
0.00758649
0.00729864
0.00704667
0.00682519
0.00662913
0.00645493
0.00630006
0.00616247
0.00604037
0.00593207
0.00583604
0.00575088
0.00567537
0.00560849
0.00554939
0.00549738
0.00545187
0.00541242
0.00537864
0.00535009
0.00532637
0.00530707
0.00529181
0.00528038
0.00527239
0.00526587
0.00526155
0.00946632
0.00946574
0.00946467
0.00946263
0.00945956
0.00945441
0.00944627
0.00943532
0.00942163
0.00915251
0.00863892
0.00821415
0.00786575
0.00756551
0.00730496
0.00707813
0.00687855
0.00670195
0.00654631
0.00641027
0.00629201
0.00618944
0.00610046
0.00602312
0.0059557
0.00589682
0.00584542
0.0058007
0.00576208
0.00572912
0.00570145
0.00567872
0.00566057
0.0056466
0.0056364
0.00562946
0.00562542
0.0056242
0.0056245
0.00562332
0.00946623
0.00946385
0.00945974
0.0094515
0.00943646
0.00941392
0.00938403
0.00934712
0.00930452
0.00889801
0.00841939
0.00802915
0.007703
0.00742525
0.00718897
0.00698623
0.00680967
0.00665528
0.00652209
0.00640854
0.00630968
0.00622161
0.00614269
0.00607276
0.00601214
0.00596112
0.00591953
0.00588674
0.00586168
0.00584306
0.00582953
0.00581985
0.005813
0.00580822
0.00580504
0.00580316
0.00580254
0.00580367
0.0058061
0.00580659
0.00946502
0.00945755
0.00943971
0.00940393
0.00934866
0.00927697
0.00919115
0.00909385
0.00898876
0.00856425
0.00817777
0.00786255
0.00758022
0.00732005
0.00709129
0.00690289
0.00675572
0.00664283
0.00655209
0.00647151
0.00639382
0.00631626
0.00624019
0.00616953
0.00610834
0.00605935
0.00602349
0.00599998
0.00598677
0.00598112
0.00598009
0.00598104
0.00598192
0.00598146
0.0059792
0.00597526
0.00597035
0.00596596
0.00596276
0.00595763
0.00946151
0.009432
0.00936352
0.00924203
0.00908608
0.00890789
0.00871592
0.00851608
0.00831348
0.00811096
0.00791271
0.00772237
0.0075425
0.00729793
0.00706236
0.00687869
0.00675856
0.00669363
0.00665108
0.00652864
0.0064126
0.00630314
0.00620016
0.00610349
0.00601289
0.00592798
0.00584831
0.00577338
0.0057027
0.00563579
0.00557226
0.00551177
0.00545409
0.005399
0.00534638
0.00529613
0.00524816
0.00520245
0.00515898
0.00511785
0.00944889
0.00934378
0.009119
0.00880015
0.008453
0.00810764
0.00777393
0.00745407
0.0071501
0.00686478
0.00660039
0.00635873
0.00614041
0.00594306
0.00576355
0.00559827
0.00544436
0.0053002
0.00516463
0.00503693
0.00491742
0.00480626
0.00470335
0.00460839
0.00452082
0.00443993
0.00436486
0.00429479
0.00422891
0.00416654
0.00410719
0.00405052
0.00399636
0.0039446
0.00389517
0.00384801
0.00380309
0.00376036
0.00371982
0.00368175
0.00940833
0.00907206
0.00847291
0.00781997
0.00722483
0.00671417
0.00627057
0.00587479
0.00551734
0.00519705
0.00491283
0.00466349
0.00444869
0.00426499
0.0041043
0.00395768
0.00381943
0.00368789
0.00356377
0.00344828
0.00334196
0.00324497
0.00315719
0.00307799
0.0030066
0.00294194
0.00288276
0.00282807
0.00277669
0.00272759
0.00268021
0.00263443
0.00259035
0.00254812
0.00250782
0.00246952
0.00243317
0.00239879
0.00236622
0.00233614
0.00746049
0.0082975
0.00710154
0.00609566
0.00534152
0.00478842
0.00435093
0.00398037
0.00365335
0.00336989
0.0031285
0.00292437
0.00275692
0.00262276
0.00250977
0.00240477
0.00230094
0.00219878
0.00210191
0.00201364
0.00193435
0.00186394
0.00180228
0.0017481
0.00170062
0.00165863
0.00162014
0.00158543
0.00155243
0.00151913
0.00148534
0.00145188
0.00141951
0.00138886
0.00136005
0.00133323
0.00130811
0.00128487
0.00126271
0.00124304
0.00580382
0.00651555
0.00485414
0.00378826
0.00313651
0.00272926
0.00242466
0.00217451
0.0019464
0.00175058
0.0015944
0.0014687
0.00137086
0.00129894
0.00123996
0.00118018
0.00111451
0.00104724
0.000984508
0.000930883
0.000884885
0.000845596
0.000813103
0.000784982
0.000761003
0.000740306
0.000719133
0.000702704
0.000684986
0.000662382
0.000637851
0.000614438
0.000592902
0.000574104
0.000557292
0.000542811
0.000529404
0.00051785
0.000506347
0.000496799
0.004744
0.00364421
0.00229308
0.00162782
0.00129153
0.00111113
0.000972195
0.000862451
0.000747802
0.00064335
0.000572904
0.000522748
0.00048546
0.000459836
0.000438047
0.000411361
0.000378596
0.000345706
0.00031728
0.000295872
0.000278898
0.000265146
0.000254773
0.000245796
0.000237816
0.000230745
0.000221507
0.000215738
0.000208426
0.00019729
0.000185408
0.000175273
0.000166698
0.000160101
0.000154528
0.000150288
0.000146339
0.000143068
0.000139565
0.00013665
0.00298428
0.00109616
0.000587328
0.00039271
0.000308552
0.000268398
0.000233279
0.000205487
0.000172813
0.000141623
0.000124957
0.000115239
0.000108028
0.000102461
9.72481e-05
8.95316e-05
7.99564e-05
7.16339e-05
6.5813e-05
6.19259e-05
5.92332e-05
5.72482e-05
5.57699e-05
5.47706e-05
5.35955e-05
5.21204e-05
5.11428e-05
5.02867e-05
4.97892e-05
4.9666e-05
4.99588e-05
5.03342e-05
5.07179e-05
5.08814e-05
5.09961e-05
5.09825e-05
5.10581e-05
5.11294e-05
5.14229e-05
5.1792e-05
0.000470081
0.000126497
6.48979e-05
4.55997e-05
3.80448e-05
3.43494e-05
3.17557e-05
2.84698e-05
2.65988e-05
2.72474e-05
2.75125e-05
2.73777e-05
2.73147e-05
2.7595e-05
2.84689e-05
2.97259e-05
3.34034e-05
3.79432e-05
4.2034e-05
4.49385e-05
4.63789e-05
4.69148e-05
4.76019e-05
4.88528e-05
5.08679e-05
5.53279e-05
6.12468e-05
6.76581e-05
7.41352e-05
8.05358e-05
8.65174e-05
9.1426e-05
9.50633e-05
9.73277e-05
9.884e-05
0.000100185
0.000102124
0.000104706
0.00010829
0.000112613
5.83019e-06
8.82827e-06
1.4757e-05
1.9141e-05
2.09802e-05
2.18241e-05
2.30861e-05
2.59117e-05
3.40894e-05
4.21016e-05
4.77193e-05
5.11104e-05
5.31537e-05
5.50101e-05
5.7916e-05
6.47207e-05
7.76198e-05
9.01236e-05
0.000100428
0.000108034
0.000113179
0.000116494
0.000118909
0.000121804
0.000127661
0.00013929
0.000152784
0.000166263
0.000178473
0.000189001
0.000197758
0.000204548
0.000209329
0.000212537
0.00021502
0.000217708
0.000221274
0.000226049
0.000231972
0.000238872
0.000224656
0.000224747
0.000224941
0.000225248
0.000225676
0.000226236
0.000226932
0.00022777
0.000228749
0.000229858
0.000229807
0.000204867
0.000184985
0.000170277
0.000158699
0.000149537
0.00014248
0.000137294
0.00013382
0.000131978
0.000131776
0.000133337
0.000136753
0.000142336
0.000150692
0.000162594
0.000179337
0.000203182
0.000239009
0.000293934
0.000318746
0.000319935
0.000319003
0.00031576
0.000310082
0.000301918
0.000291289
0.000255274
0.000203208
0.000167992
0.000142872
0.00012391
0.000109139
9.74089e-05
8.8064e-05
8.01178e-05
7.36534e-05
6.90688e-05
6.5974e-05
6.40486e-05
6.30398e-05
6.27392e-05
6.29838e-05
6.36422e-05
6.46083e-05
6.5797e-05
6.71443e-05
6.85995e-05
7.01235e-05
7.16858e-05
7.32627e-05
7.48359e-05
7.63911e-05
7.79172e-05
7.94057e-05
8.08502e-05
8.22458e-05
8.35889e-05
8.48768e-05
8.61078e-05
8.72808e-05
8.83951e-05
8.94504e-05
9.04468e-05
9.13844e-05
9.22637e-05
9.30853e-05
9.38497e-05
9.45578e-05
9.52104e-05
9.58085e-05
9.63532e-05
9.68458e-05
9.72874e-05
9.76794e-05
9.80232e-05
9.83202e-05
9.85718e-05
9.87795e-05
9.89449e-05
9.90697e-05
9.91561e-05
9.92087e-05
9.92122e-05
9.91692e-05
9.91224e-05
9.90573e-05
9.89462e-05
9.88307e-05
9.8686e-05
9.85363e-05
9.83708e-05
9.82028e-05
9.80298e-05
9.78602e-05
9.76956e-05
9.75425e-05
9.74049e-05
9.72889e-05
9.72e-05
9.71452e-05
9.71313e-05
9.71665e-05
9.72596e-05
9.74208e-05
9.76613e-05
9.79941e-05
9.84351e-05
9.90091e-05
9.97176e-05
0.000100588
0.000101671
0.000102975
0.000104555
0.00010645
0.00010872
0.000111463
0.000114754
0.000118592
0.000123264
0.000128816
0.000135466
0.000143414
0.000152918
0.00016428
0.000177865
0.00019412
0.000213618
0.000237122
0.000265697
0.000300867
0.000344856
0.000401011
0.000474614
0.000574652
0.000717991
0.000940891
0.00133715
0.00224398
0.00444708
0.00450668
0.00292384
0.00169634
0.00120303
0.000940977
0.000776592
0.000662896
0.000578834
0.000513648
0.000461207
0.000417789
0.000381011
0.000349289
0.000321541
0.00029701
0.000275157
0.000255586
0.000238004
0.00022217
0.000207914
0.000195049
0.000183497
0.00017303
0.000163765
0.000155178
0.000148069
0.000140763
0.000136188
0.000129507
0.000129293
0.000225036
0.000225126
0.000225321
0.000225629
0.000226059
0.00022662
0.000227319
0.000228161
0.000229149
0.000230282
0.000231554
0.00023298
0.000234589
0.000236408
0.000238471
0.000240819
0.000243502
0.000246578
0.00025011
0.00025416
0.000258782
0.000264017
0.000269871
0.000276312
0.000283244
0.000290495
0.000297795
0.000304776
0.000310968
0.00031583
0.000318936
0.000320101
0.000319136
0.000315855
0.000310134
0.000301921
0.000291218
0.000277906
0.000261924
0.000243995
0.00022515
0.00020633
0.00018834
0.000171795
0.000157092
0.000143507
0.000131813
0.000123073
0.000116848
0.000112699
0.000110226
0.000109065
0.000108928
0.000109578
0.000110822
0.000112501
0.000114497
0.000116717
0.000119088
0.000121556
0.000124076
0.000126616
0.00012915
0.000131657
0.000134123
0.000136536
0.000138886
0.000141168
0.000143375
0.000145505
0.000147556
0.000149524
0.000151411
0.000153214
0.000154936
0.000156576
0.000158136
0.000159617
0.000161019
0.000162346
0.000163598
0.000164779
0.000165891
0.000166935
0.000167915
0.000168833
0.000169693
0.000170497
0.000171249
0.000171951
0.000172608
0.000173222
0.000173794
0.000174343
0.000174821
0.000175304
0.000175783
0.00017622
0.00017669
0.000177136
0.00017761
0.000178092
0.000178608
0.000179155
0.00017975
0.000180398
0.000181113
0.000181905
0.000182788
0.000183777
0.000184889
0.00018614
0.000187553
0.000189151
0.000190961
0.000193016
0.000195351
0.000198009
0.000201077
0.000204573
0.00020855
0.000213183
0.000218527
0.000224754
0.000232029
0.000240589
0.000250765
0.000262879
0.00027728
0.000294852
0.000316224
0.000342561
0.000375287
0.000416367
0.000468433
0.000535034
0.000620893
0.000732144
0.000876404
0.00106244
0.00129908
0.00159312
0.00194629
0.00235202
0.00279328
0.00324282
0.00366625
0.00402749
0.00429449
0.00444696
0.00450692
0.00448738
0.00437049
0.0041621
0.00388836
0.00357387
0.00324074
0.00290726
0.00258705
0.00228899
0.00201805
0.00177615
0.00156307
0.0013772
0.00121618
0.00107732
0.000957897
0.000855325
0.000767214
0.000691525
0.000626303
0.000570238
0.000521453
0.000479909
0.000442503
0.000412704
0.00038206
0.000363151
0.000337098
0.000322871
0.000225956
0.000226047
0.000226245
0.000226558
0.000226996
0.000227568
0.000228282
0.000229144
0.000230161
0.000231336
0.000232677
0.000234196
0.000235915
0.000237861
0.000240064
0.000242562
0.0002454
0.000248627
0.000252296
0.000256458
0.000261158
0.000266422
0.000272248
0.000278594
0.00028536
0.000292374
0.000299378
0.000306028
0.000311896
0.000316513
0.000319478
0.000320534
0.000319465
0.000316087
0.000310277
0.000301988
0.00029123
0.000277992
0.000262386
0.000245073
0.000226986
0.000209014
0.00019193
0.000176331
0.000162604
0.000150076
0.000139522
0.000131882
0.000126707
0.000123563
0.000122058
0.000121832
0.000122599
0.00012413
0.000126244
0.000128779
0.000131622
0.00013468
0.000137883
0.000141177
0.000144519
0.000147877
0.000151225
0.000154544
0.000157819
0.00016104
0.000164196
0.000167281
0.000170292
0.000173224
0.000176075
0.000178844
0.00018153
0.000184135
0.000186658
0.000189101
0.000191466
0.000193754
0.000195968
0.00019811
0.000200182
0.000202189
0.000204131
0.000206013
0.000207838
0.00020961
0.000211331
0.000213006
0.000214638
0.000216232
0.000217791
0.000219325
0.000220828
0.000222308
0.000223743
0.000225198
0.000226654
0.000228091
0.000229567
0.000231037
0.000232546
0.000234078
0.000235655
0.000237277
0.000238959
0.000240707
0.000242534
0.000244451
0.000246472
0.000248611
0.000250884
0.00025331
0.00025591
0.000258709
0.000261734
0.00026502
0.000268605
0.000272536
0.000276893
0.000281706
0.000287053
0.000293087
0.000299892
0.000307644
0.000316529
0.000326801
0.000338791
0.000352865
0.000369464
0.000389427
0.000413486
0.000442839
0.000478972
0.000523892
0.000580254
0.000651567
0.000742412
0.000858601
0.00100717
0.001196
0.00143269
0.00172267
0.00206655
0.00245731
0.00287859
0.00330506
0.00370519
0.00404624
0.00429946
0.00444752
0.0045076
0.0044901
0.00438199
0.00418771
0.00393042
0.00363259
0.00331483
0.00299446
0.00268462
0.00239414
0.00212822
0.00188915
0.00167712
0.00149096
0.00132866
0.00118786
0.00106606
0.000960871
0.000870033
0.000791597
0.000723675
0.000664977
0.00061367
0.000569679
0.000529943
0.00049786
0.000464956
0.000443771
0.00041562
0.000395024
0.000227616
0.000227708
0.000227913
0.00022824
0.000228697
0.000229293
0.000230037
0.000230936
0.000232
0.000233238
0.000234659
0.000236278
0.000238116
0.000240194
0.000242544
0.000245196
0.000248191
0.00025157
0.000255376
0.000259649
0.00026442
0.000269704
0.000275488
0.000281718
0.000288291
0.000295034
0.000301704
0.000307979
0.000313472
0.000317764
0.000320475
0.000321318
0.000320055
0.000316504
0.000310549
0.000302157
0.000291365
0.00027826
0.000263088
0.000246469
0.00022924
0.00021226
0.000196284
0.000181876
0.000169407
0.000158273
0.00014926
0.000143153
0.000139469
0.000137782
0.000137724
0.000138932
0.000141124
0.000144078
0.000147632
0.00015162
0.000155927
0.000160465
0.000165161
0.000169962
0.000174824
0.000179715
0.000184608
0.000189484
0.000194326
0.000199122
0.000203862
0.000208539
0.000213148
0.000217683
0.000222143
0.000226526
0.000230831
0.000235057
0.000239207
0.000243281
0.000247282
0.000251212
0.000255071
0.000258864
0.000262593
0.000266261
0.00026987
0.000273424
0.000276927
0.00028038
0.00028379
0.000287157
0.000290488
0.000293784
0.000297052
0.000300305
0.000303516
0.000306719
0.000309888
0.00031307
0.000316244
0.000319401
0.00032258
0.00032575
0.000328943
0.000332148
0.000335381
0.000338643
0.000341945
0.000345294
0.000348699
0.00035217
0.000355719
0.000359358
0.000363103
0.000366969
0.000370978
0.000375151
0.000379517
0.000384109
0.000388966
0.000394137
0.000399687
0.000405665
0.00041216
0.000419307
0.000427218
0.000436066
0.000446057
0.000457455
0.000470602
0.000485901
0.000503859
0.000525272
0.000550977
0.000582188
0.00062045
0.000667799
0.000726892
0.000801179
0.000895051
0.00101398
0.0011644
0.00135328
0.00158704
0.00186984
0.00220125
0.00257398
0.00297249
0.00337347
0.00374832
0.00406769
0.00430612
0.0044489
0.0045088
0.00449391
0.00439527
0.00421608
0.00397662
0.00369711
0.00339652
0.00309113
0.0027935
0.00251236
0.00225306
0.00201827
0.00180859
0.00162328
0.00146073
0.00131889
0.00119553
0.00108846
0.000995568
0.000915003
0.000844955
0.000784151
0.000730821
0.000684815
0.000643195
0.000609097
0.000574361
0.000550912
0.000520964
0.000492902
0.000230251
0.00023035
0.000230573
0.000230927
0.000231419
0.000232058
0.000232852
0.000233811
0.000234944
0.000236262
0.00023778
0.000239512
0.000241477
0.000243697
0.000246199
0.00024901
0.000252163
0.000255692
0.00025963
0.000264004
0.000268834
0.00027412
0.000279836
0.000285919
0.000292259
0.000298687
0.000304969
0.000310805
0.000315842
0.000319705
0.000322038
0.000322543
0.000320977
0.000317164
0.000311004
0.000302486
0.000291689
0.000278787
0.000264123
0.000248313
0.000232148
0.000216412
0.000201771
0.000188821
0.000177946
0.000168586
0.000161528
0.000157372
0.000155707
0.000156125
0.00015825
0.000161711
0.00016621
0.000171424
0.000177316
0.000183703
0.000190467
0.000197513
0.000204765
0.000212163
0.000219658
0.000227214
0.000234799
0.000242388
0.000249961
0.000257502
0.000264996
0.000272433
0.000279804
0.000287102
0.000294321
0.000301458
0.000308509
0.000315474
0.000322352
0.000329143
0.00033585
0.000342476
0.000349018
0.00035548
0.000361863
0.000368169
0.000374401
0.000380559
0.000386648
0.000392669
0.000398626
0.00040452
0.000410355
0.000416134
0.000421861
0.000427538
0.000433156
0.000438732
0.000444247
0.000449733
0.000455173
0.00046056
0.000465918
0.000471229
0.000476506
0.00048175
0.000486965
0.000492156
0.000497327
0.000502486
0.000507639
0.000512796
0.000517964
0.000523156
0.000528383
0.000533662
0.00053901
0.000544449
0.000550005
0.000555711
0.000561606
0.000567737
0.000574166
0.000580955
0.000588193
0.000596004
0.000604519
0.000613908
0.00062439
0.000636236
0.000649798
0.000665505
0.000683904
0.00070576
0.000731988
0.00076381
0.000802806
0.000851022
0.000911094
0.000986381
0.00108108
0.00120028
0.00134976
0.0015356
0.00176307
0.00203518
0.00235067
0.00270211
0.00307494
0.00344799
0.00379567
0.00409195
0.00431462
0.00445118
0.00451058
0.00449885
0.00441037
0.00424725
0.00402698
0.00376744
0.00348595
0.00319757
0.00291419
0.00264435
0.00239355
0.00216475
0.00195898
0.00177591
0.00161434
0.00147255
0.00134861
0.00124053
0.00114637
0.00106438
0.000992846
0.000930513
0.000875692
0.000828121
0.000785064
0.000749228
0.000713078
0.000687359
0.0006559
0.000619857
0.000234111
0.000234243
0.000234511
0.00023492
0.000235475
0.000236183
0.000237054
0.000238097
0.000239324
0.000240747
0.00024238
0.00024424
0.000246345
0.000248714
0.000251372
0.000254342
0.000257651
0.000261322
0.000265379
0.000269836
0.000274699
0.000279953
0.00028556
0.000291447
0.000297496
0.00030354
0.000309353
0.000314659
0.000319138
0.000322449
0.000324263
0.00032429
0.0003223
0.000318132
0.000311709
0.000303057
0.000292305
0.000279705
0.000265674
0.00025083
0.000235925
0.000221706
0.000208843
0.0001978
0.000188858
0.000181811
0.000177369
0.000175905
0.000177005
0.000180242
0.000185227
0.000191671
0.000199318
0.000208009
0.000217504
0.000227607
0.000238172
0.000249093
0.000260279
0.000271659
0.000283174
0.000294777
0.000306427
0.000318091
0.000329742
0.000341355
0.000352911
0.000364394
0.000375788
0.000387082
0.000398267
0.000409335
0.000420281
0.000431099
0.000441789
0.000452349
0.000462781
0.000473089
0.000483266
0.000493316
0.000503237
0.000513032
0.0005227
0.000532243
0.000541663
0.00055096
0.000560138
0.000569196
0.000578138
0.000586965
0.000595678
0.000604273
0.000612738
0.000621089
0.000629314
0.000637437
0.000645439
0.000653316
0.00066108
0.000668721
0.000676243
0.000683649
0.000690939
0.000698118
0.000705189
0.000712159
0.000719031
0.000725816
0.000732519
0.000739152
0.000745725
0.000752254
0.000758756
0.00076525
0.000771765
0.00077833
0.000784984
0.000791777
0.000798766
0.000806023
0.000813632
0.000821714
0.000830411
0.000839889
0.000850376
0.000862143
0.000875547
0.000891034
0.000909161
0.000930674
0.000956526
0.000987928
0.00102646
0.00107415
0.00113357
0.00120793
0.00130119
0.00141801
0.00156356
0.001743
0.00196061
0.00221836
0.00251433
0.00284119
0.00318552
0.00352832
0.00384707
0.00411899
0.00432497
0.00445441
0.00451297
0.00450491
0.00442724
0.00428108
0.00408128
0.00384338
0.00358292
0.00331365
0.00304672
0.00279038
0.00255016
0.00232929
0.00212921
0.00194999
0.00179083
0.00165036
0.00152694
0.00141883
0.00132424
0.00124157
0.00116919
0.00110588
0.00105004
0.0010013
0.000957164
0.000919804
0.000882551
0.000854543
0.000821633
0.000777923
0.000223697
0.000239688
0.000240061
0.000240573
0.000241232
0.000242047
0.000243027
0.000244185
0.000245533
0.000247084
0.000248853
0.000250858
0.000253114
0.000255639
0.000258454
0.000261578
0.000265029
0.000268822
0.000272968
0.000277471
0.000282319
0.000287486
0.000292918
0.000298531
0.0003042
0.000309761
0.000315
0.00031966
0.000323451
0.000326068
0.000327211
0.00032662
0.000324086
0.000319479
0.000312761
0.000304001
0.000293386
0.00028124
0.000268037
0.000254407
0.000241071
0.000228737
0.000218016
0.000209351
0.000203034
0.000198833
0.000197784
0.000199871
0.000204701
0.000211869
0.000221019
0.000231853
0.000244101
0.000257527
0.000271846
0.000286905
0.000302556
0.000318665
0.000335119
0.000351823
0.000368699
0.00038568
0.000402712
0.000419747
0.000436745
0.000453672
0.000470498
0.000487198
0.00050375
0.000520136
0.000536342
0.000552355
0.000568167
0.00058377
0.000599159
0.000614333
0.000629288
0.000644019
0.000658536
0.000672838
0.000686926
0.0007008
0.00071446
0.000727907
0.00074114
0.000754161
0.000766972
0.000779573
0.000791966
0.000804152
0.00081613
0.000827894
0.000839441
0.000850777
0.000861895
0.000872807
0.000883497
0.000893962
0.000904207
0.000914225
0.000924021
0.000933589
0.000942934
0.000952061
0.000960971
0.00096967
0.000978163
0.000986459
0.000994565
0.00100249
0.00101025
0.00101785
0.00102532
0.00103267
0.00103993
0.00104714
0.00105432
0.00106154
0.00106884
0.0010763
0.00108401
0.00109208
0.00110066
0.00110992
0.00112008
0.00113142
0.00114428
0.00115911
0.00117648
0.00119709
0.00122191
0.0012521
0.00128923
0.00133522
0.00139255
0.00146423
0.00155392
0.00166582
0.00180445
0.00197417
0.00217831
0.00241802
0.00269097
0.00299011
0.0033033
0.00361381
0.00390211
0.00414858
0.00433709
0.00445852
0.00451588
0.0045119
0.00444559
0.00431715
0.00413898
0.00392428
0.00368675
0.00343875
0.00319054
0.00295
0.00272263
0.00251184
0.00231942
0.00214582
0.00199065
0.00185288
0.00173118
0.00162405
0.0015299
0.00144726
0.00137463
0.00131083
0.00125436
0.00120475
0.00115979
0.00112105
0.00108289
0.00105259
0.00101801
0.000967831
0.000186039
0.000247119
0.00024766
0.000248327
0.000249135
0.000250094
0.000251218
0.00025252
0.000254013
0.000255712
0.000257632
0.000259789
0.000262199
0.000264877
0.000267837
0.000271093
0.000274655
0.000278528
0.000282712
0.000287196
0.000291954
0.000296943
0.000302099
0.000307325
0.000312495
0.000317445
0.000321973
0.000325844
0.000328799
0.00033057
0.000330898
0.00032956
0.00032639
0.000321301
0.000314305
0.000305526
0.000295216
0.000283762
0.000271688
0.000259632
0.000248291
0.000238327
0.0002303
0.000224621
0.000221578
0.000221012
0.000224347
0.000231078
0.000240832
0.000253213
0.000267862
0.000284449
0.000302662
0.00032221
0.000342809
0.000364262
0.000386376
0.000408989
0.000431964
0.000455184
0.000478556
0.000501998
0.000525443
0.000548834
0.00057212
0.000595258
0.000618212
0.000640949
0.000663442
0.000685669
0.00070761
0.00072925
0.000750577
0.000771582
0.000792258
0.000812601