/*--------------------------------*- C++ -*----------------------------------*\
| =========                 |                                                 |
| \\      /  F ield         | OpenFOAM: The Open Source CFD Toolbox           |
|  \\    /   O peration     | Version:  2112                                  |
|   \\  /    A nd           | Website:  www.openfoam.com                      |
|    \\/     M anipulation  |                                                 |
\*---------------------------------------------------------------------------*/
FoamFile
{
    version     2.0;
    format      ascii;
    arch        "LSB;label=32;scalar=64";
    class       volScalarField;
    location    "0.18";
    object      omega;
}
// * * * * * * * * * * * * * * * * * * * * * * * * * * * * * * * * * * * * * //

dimensions      [0 0 -1 0 0 0 0];

internalField   nonuniform List<scalar> 
12225
(
37527.3
40233
41980.6
42972.2
43468.5
43638.6
43610.2
43517.9
43339.3
43118.4
42905
42666.4
42470.1
42237.1
42079.3
41856.2
41745.6
41510.7
2589.95
6031.65
8562.7
10432.4
11777.7
12739.3
13397.4
13864.6
14197.4
14421.6
14587.3
14697.9
14773.3
14837
14859.1
14911.8
14909.1
15014.9
353.308
924.693
1439.87
1916.57
2328.16
2710.75
3023.54
3316.95
3546.41
3771.91
3936.42
4113.39
4228.17
4369.97
4445.32
4565.08
4627.14
4724.57
119.867
272.55
419.856
565.05
695.257
826.192
937.263
1052.11
1143.31
1243.34
1316.2
1403.63
1460.56
1537.07
1580.59
1648.67
1677.88
1748.41
66.3017
127.43
186.957
246.775
301.442
357.06
405.642
456.415
498.394
544.425
579.852
621.65
650.808
688.955
712.359
747.116
763.062
802.48
48.3228
78.7288
108.523
138.643
166.669
194.896
220.315
246.341
268.943
292.797
312.533
334.443
351.278
371.621
385.464
404.634
414.779
435.515
42.5763
57.9573
74.9405
92.1073
108.367
124.554
139.514
154.485
168.023
181.776
193.862
206.508
217.099
228.861
237.808
249.07
255.889
267.782
40.7421
48.2874
58.4222
68.8846
79.023
89.0719
98.555
107.902
116.596
125.202
133.078
140.985
148.025
155.343
161.463
168.43
173.326
180.612
40.0942
43.6669
49.6545
56.2032
62.7603
69.3003
75.5888
81.7513
87.5938
93.2996
98.6536
103.904
108.757
113.598
117.915
122.469
126.072
130.796
39.8297
41.4804
44.836
48.9292
53.2126
57.5629
61.8313
66.0268
70.064
73.9917
77.735
81.3688
84.8001
88.1507
91.2537
94.378
97.0537
100.261
39.709
40.4593
42.1973
44.6871
47.4497
50.3437
53.2553
56.1498
58.9761
61.7352
64.3955
66.974
69.4403
71.8289
74.0882
76.3075
78.3059
80.5593
39.6565
40.0163
40.9224
42.4416
44.2495
46.2203
48.2606
50.324
52.3701
54.3843
56.3461
58.2546
60.0959
61.8785
63.5838
65.2431
66.7798
68.4506
39.63
39.7904
40.228
41.0864
42.2141
43.5093
44.9007
46.3428
47.8012
49.2559
50.69
52.0958
53.4641
54.7937
56.0768
57.3222
58.4985
59.7463
39.616
39.6728
39.8524
40.2495
40.8651
41.6249
42.4849
43.4103
44.3734
45.355
46.34
47.3185
48.2823
49.2269
50.1473
51.0437
51.9041
52.8014
39.6078
39.62
39.6764
39.8188
40.0931
40.4708
40.9315
41.4553
42.0242
42.6234
43.241
43.8679
44.4966
45.122
45.7397
46.3469
46.9391
47.551
39.6043
39.5974
39.6064
39.6426
39.7276
39.8758
40.0767
40.3238
40.6091
40.9248
41.2636
41.6192
41.9861
42.3599
42.7368
43.114
43.4888
43.876
39.604
39.5884
39.5795
39.5821
39.5968
39.6327
39.6979
39.7886
39.9036
40.0408
40.1973
40.3703
40.5569
40.7543
40.96
41.172
41.3885
41.6141
39.604
39.5866
39.5722
39.5626
39.5616
39.5666
39.5814
39.6113
39.6563
39.7157
39.7891
39.8757
39.9742
40.0834
40.2019
40.3282
40.4612
40.6011
39.6039
39.5872
39.5743
39.5706
39.5755
39.5916
39.6247
39.676
39.7444
39.8292
39.9291
40.0426
40.1682
40.3041
40.4488
40.6006
40.758
40.9169
39.6039
39.5966
39.6053
39.6393
39.7166
39.8479
40.0241
40.2402
40.4902
40.7676
41.0665
41.3814
41.7078
42.0419
42.3803
42.7203
43.0597
43.3889
39.6102
39.6339
39.7208
39.9209
40.2583
40.6978
41.2182
41.7985
42.421
43.0708
43.7365
44.4091
45.0816
45.7488
46.407
47.0529
47.6858
48.2856
39.6302
39.7855
40.1867
40.9423
41.9216
43.0515
44.2764
45.5535
46.8542
48.1569
49.448
50.717
51.9579
53.1655
54.3381
55.4716
56.5734
57.598
39.7085
40.3656
41.806
43.8387
46.1485
48.5901
51.0833
53.5687
56.0195
58.4105
60.7352
62.9812
65.1512
67.2364
69.2471
71.1666
73.037
74.7393
40.0218
42.3549
46.3992
51.0062
55.8294
60.6502
65.4077
70.0182
74.492
78.781
82.9182
86.8634
90.6639
94.2704
97.7578
101.028
104.266
107.121
41.2492
48.5878
58.1062
67.9271
77.7226
87.1715
96.3634
105.087
113.531
121.484
129.186
136.392
143.404
149.9
156.306
162.099
168.045
173.037
46.1931
66.6998
88.9417
110.645
131.825
151.752
171.136
189.102
206.666
222.726
238.586
252.858
267.189
279.786
292.812
303.797
315.81
325.157
65.9202
125.8
185.606
241.652
295.701
345.351
393.778
437.156
480.176
517.621
555.757
587.805
621.68
648.895
679.176
702.076
729.406
748.442
166.89
402.775
620.402
816.824
1000.92
1164.69
1319.83
1452.97
1581.98
1688.28
1795.67
1879.59
1969.67
2035.53
2111.97
2163.25
2228.97
2268.62
1158.1
2665.29
3852.28
4824.99
5631.68
6285.58
6819.68
7243.41
7589.95
7861.31
8088.16
8259.84
8414.86
8522.43
8632.86
8696.28
8781.62
8811.61
23121.7
24533.2
25613.8
26401.8
26955.7
27332.7
27578.8
27730.6
27813.5
27848.9
27843.9
27826.4
27788.6
27738.7
27681.9
27620.9
27557.9
27494.1
11467.6
2536.82
2548.72
2557.01
2563.13
2568.24
2573.43
2580.64
2589.06
2598.26
2607.35
2617
2628.2
2638.36
2644.73
2645.83
2641.42
2635.32
2629.54
2620.34
2606
2586.69
2575.98
2579.84
2588.8
2595.77
2600.72
2608.1
2622.12
2644.66
2657.91
2656.78
2651.12
2641.36
2632.97
2625.89
2625.07
2639.38
2751.41
2917.1
3048.23
3159.32
3255.31
3341.37
3419.48
3491.73
3559.21
3622.99
3683.97
3742.8
3800.15
3856.46
3912.28
3967.93
4023.89
4080.56
4138.42
4196.06
4253.52
4310.67
4367.88
4424.79
4481.82
4538.59
4595.43
4652.06
4708.65
4765.04
4821.3
4877.34
4933.15
4988.69
5043.92
5098.82
5153.34
5207.46
5261.14
5314.35
5367.06
5419.25
5470.88
5521.92
5572.35
5622.15
5671.27
5719.7
5767.4
5814.34
5860.5
5905.84
5950.33
5993.93
6036.62
6078.37
6119.17
6158.98
6197.83
6235.75
6272.8
6309.17
6345.09
6380.05
6414.08
6447.25
6479.41
6510.68
6540.95
6570.27
6598.59
6625.92
6652.23
6677.53
6701.81
6725.06
6747.28
6768.47
6788.63
6807.76
6825.85
6842.94
6859.01
6874.08
6888.17
6901.31
6913.51
6924.8
6935.21
6945.15
6954.01
6961.65
6968.5
6974.11
6978.88
6982.81
6985.97
6988.28
6989.66
6990.36
6990.64
6990.41
6989.46
6987.95
6985.98
6983.52
6980.63
6977.34
6973.68
6969.68
6965.37
6960.78
6955.94
6950.86
6945.57
6940.07
6934.38
6928.52
6922.45
6916.19
6909.71
6903
6896.04
6888.79
6881.22
6873.27
6864.91
6856.05
6846.64
6836.58
6825.8
6814.16
6801.54
6787.77
6772.62
6755.96
6736.65
6716.53
6687.66
6678.46
6664.92
6554.85
11475.2
2141.53
1390.83
1191.93
934.62
773.561
781.324
854.36
906.215
913.408
903.801
880.975
852.627
827.603
808.705
798.957
802.667
840.628
935.471
1094.69
1283.19
1461.38
1569.21
1568.24
1500.74
1267.25
812.706
662.515
665.085
702.935
738.017
739.379
750.922
883.704
1382.97
1856.68
2044.76
2104.9
2127.98
2129.88
2079.61
2033.42
1976.09
1918.63
1863.69
1817.71
1779.43
1749.93
1727.22
1710.87
1699.72
1693.69
1690.75
1689.74
1691.63
1695.92
1701.5
1708.37
1716.04
1724.39
1733.22
1742.36
1751.75
1761.24
1770.81
1780.35
1789.86
1799.27
1808.59
1817.77
1826.83
1835.74
1844.52
1853.16
1861.66
1870.03
1878.26
1886.38
1894.37
1902.24
1909.99
1917.61
1925.12
1932.5
1939.75
1946.88
1953.88
1960.75
1967.49
1974.11
1980.6
1986.99
1993.29
1999.52
2005.72
2011.96
2018.31
2024.91
2031.95
2039.67
2049
2057.23
2065.69
2073.75
2081.7
2089.4
2096.92
2104.24
2111.35
2118.26
2124.96
2131.47
2137.77
2143.88
2149.79
2155.5
2161.03
2166.37
2171.53
2176.5
2181.3
2185.94
2190.41
2194.73
2198.89
2202.91
2206.79
2210.52
2213.99
2217.12
2219.76
2221.73
2223.71
2225.51
2227.17
2228.66
2229.97
2231.14
2232.24
2233.26
2234.12
2234.87
2235.52
2236.06
2236.5
2236.83
2237.07
2237.22
2237.27
2237.22
2237.08
2236.83
2236.47
2236
2235.41
2234.7
2233.85
2232.87
2231.75
2230.47
2229.03
2227.41
2225.6
2223.59
2221.36
2218.91
2216.21
2213.27
2210.04
2206.5
2202.67
2198.53
2194.08
2189.33
2184.24
2179.37
2174.02
2173.88
2174.94
2189.25
11470.1
3050.19
1442.04
994.151
789.515
802.272
893.307
927.205
906.576
857.492
791.905
727.727
672.478
629.457
596.132
573.588
559.507
561.395
573.513
604.76
669.302
758.544
856.703
940.56
982.677
956.573
861.232
750.053
706.666
744.477
826.462
926.368
1116.36
1295.1
1451.42
1517.11
1516.98
1478.44
1449.04
1397.02
1338.46
1280.71
1228.19
1187.25
1154.74
1130.9
1113.09
1100.68
1092.18
1087.25
1084.86
1084.02
1084.3
1086.42
1089.29
1092.99
1097.17
1101.8
1106.7
1111.82
1117.07
1122.41
1127.8
1133.19
1138.57
1143.91
1149.21
1154.46
1159.64
1164.76
1169.82
1174.83
1179.77
1184.66
1189.49
1194.27
1199.01
1203.69
1208.33
1212.92
1217.47
1221.97
1226.42
1230.82
1235.17
1239.47
1243.73
1247.94
1252.11
1256.24
1260.33
1264.4
1268.46
1272.51
1276.59
1280.7
1284.88
1289.15
1293.54
1298.06
1302.61
1306.93
1311.23
1315.38
1319.45
1323.4
1327.25
1331
1334.64
1338.18
1341.62
1344.95
1348.18
1351.3
1354.33
1357.25
1360.08
1362.82
1365.45
1368
1370.46
1372.83
1375.11
1377.31
1379.42
1381.45
1383.39
1385.22
1386.92
1388.48
1389.87
1391.12
1392.34
1393.47
1394.54
1395.53
1396.42
1397.25
1398.03
1398.76
1399.42
1400.02
1400.55
1401.02
1401.43
1401.78
1402.06
1402.28
1402.43
1402.51
1402.51
1402.45
1402.29
1402.06
1401.74
1401.31
1400.77
1400.12
1399.37
1398.51
1397.53
1396.42
1395.17
1393.78
1392.24
1390.55
1388.71
1386.7
1384.53
1382.18
1379.68
1377.03
1374.24
1371.36
1368.42
1365.76
1363.3
1363.37
1365.44
1378.76
11464.2
2813.56
1346.1
1061.63
1143.07
1192.15
1144.73
1037.58
912.804
784.474
674.139
589.228
527.942
484.046
453.889
435.148
424.704
425.124
430.216
443.359
470.683
516.431
577.866
644.057
707.328
744.333
766.798
776.82
851.388
998.007
1102.33
1138.91
1168.6
1218.9
1229.02
1171.11
1150.18
1108.33
1070.45
1021.53
979.338
943.673
916.166
895.606
880.389
869.711
862.374
857.879
855.669
854.88
854.849
856.185
858.213
860.914
864.02
867.479
871.176
875.056
879.058
883.143
887.278
891.436
895.6
899.755
903.892
908.004
912.088
916.144
920.171
924.17
928.144
932.094
936.024
939.933
943.825
947.699
951.557
955.397
959.22
963.024
966.808
970.57
974.31
978.027
981.719
985.386
989.028
992.646
996.24
999.812
1003.37
1006.9
1010.42
1013.94
1017.44
1020.95
1024.46
1027.97
1031.47
1034.95
1038.37
1041.69
1044.94
1048.11
1051.2
1054.21
1057.15
1060
1062.77
1065.45
1068.06
1070.58
1073.03
1075.39
1077.67
1079.87
1081.99
1084.03
1085.99
1087.88
1089.69
1091.42
1093.08
1094.67
1096.18
1097.61
1098.97
1100.24
1101.41
1102.49
1103.48
1104.39
1105.25
1106.05
1106.79
1107.46
1108.07
1108.61
1109.11
1109.56
1109.95
1110.29
1110.58
1110.81
1110.99
1111.11
1111.18
1111.2
1111.16
1111.05
1110.88
1110.65
1110.36
1109.99
1109.55
1109.03
1108.43
1107.75
1106.98
1106.12
1105.17
1104.12
1102.96
1101.7
1100.34
1098.86
1097.27
1095.57
1093.75
1091.81
1089.78
1087.64
1085.43
1083.19
1080.94
1078.93
1077.18
1077.03
1078.53
1086.69
11464.3
2162.67
1474.12
1617.31
1529.63
1334.35
1105.55
871.344
678.381
546.752
467.054
418.161
386.787
366.554
353.847
346.592
345.025
347.087
353.083
365.241
384.974
416.5
462.74
519.98
585.55
648.872
732.998
850.202
1005.48
1078.41
1087.88
1074.53
1048.54
1008.8
976.651
945.444
918.847
882.903
849.428
816.904
792.093
772.482
758.047
747.622
740.402
735.742
733.354
732.418
732.307
733.291
735
737.338
740.097
743.194
746.528
750.043
753.685
757.416
761.206
765.031
768.875
772.725
776.573
780.414
784.244
788.063
791.873
795.673
799.467
803.258
807.047
810.836
814.628
818.422
822.219
826.019
829.819
833.62
837.417
841.209
844.993
848.767
852.528
856.273
860.001
863.711
867.4
871.067
874.712
878.335
881.934
885.509
889.059
892.584
896.082
899.551
902.986
906.38
909.725
913.012
916.229
919.372
922.444
925.44
928.361
931.205
933.97
936.657
939.263
941.788
944.232
946.594
948.872
951.068
953.181
955.211
957.157
959.02
960.801
962.5
964.117
965.653
967.108
968.483
969.776
970.987
972.114
973.156
974.111
974.981
975.769
976.486
977.138
977.725
978.247
978.703
979.093
979.421
979.696
979.913
980.074
980.179
980.231
980.23
980.177
980.072
979.915
979.707
979.447
979.133
978.762
978.339
977.859
977.322
976.725
976.063
975.337
974.546
973.687
972.76
971.759
970.684
969.531
968.299
966.985
965.589
964.108
962.543
960.894
959.163
957.356
955.483
953.557
951.615
949.692
947.939
946.422
945.957
946.783
951.303
11465.8
2582.38
2394.26
1952.66
1500.7
1071.95
749.05
566.398
465.56
405.909
368.798
345.008
329.427
319.172
312.686
309.198
309.247
311.348
316.918
327.791
345.341
372.719
412.483
465.284
536.906
638.15
762.41
921.426
1010.71
1034.35
987.308
911.304
874.051
845.443
819.975
794.633
768.514
740.758
716.986
697.226
682.474
671.379
663.529
658.246
655.205
653.861
653.551
654.209
655.717
657.884
660.537
663.568
666.874
670.386
674.045
677.811
681.651
685.539
689.459
693.396
697.343
701.293
705.245
709.197
713.151
717.109
721.073
725.047
729.034
733.037
737.057
741.097
745.157
749.236
753.334
757.447
761.574
765.71
769.852
773.995
778.135
782.268
786.391
790.499
794.59
798.659
802.706
806.726
810.719
814.681
818.611
822.506
826.363
830.18
833.952
837.675
841.345
844.954
848.495
851.968
855.366
858.687
861.93
865.093
868.174
871.171
874.082
876.905
879.639
882.283
884.835
887.295
889.66
891.932
894.108
896.188
898.172
900.06
901.852
903.548
905.148
906.652
908.062
909.376
910.595
911.719
912.747
913.68
914.519
915.265
915.924
916.5
916.998
917.419
917.765
918.036
918.232
918.361
918.426
918.423
918.357
918.232
918.05
917.811
917.519
917.173
916.776
916.329
915.832
915.287
914.692
914.049
913.359
912.621
911.833
910.995
910.107
909.168
908.177
907.134
906.036
904.882
903.671
902.4
901.07
899.678
898.225
896.708
895.13
893.491
891.796
890.052
888.27
886.478
884.704
883.054
881.583
880.801
881.014
883.131
11466.1
4321.15
2752.51
1768.29
1057.69
694.594
519.606
428.907
378.087
347.499
327.987
315.043
306.211
300.171
296.28
294.337
294.601
296.724
302.005
312.143
329.282
356.423
397.083
456.681
542.263
661.388
818.767
922.628
960.13
913.91
828.119
782.45
756.373
733.126
711.438
689.586
667.953
648.173
632.251
619.882
610.821
604.386
600.172
598.031
597.272
597.348
598.499
600.411
602.933
605.927
609.278
612.9
616.72
620.688
624.76
628.906
633.103
637.335
641.589
645.86
650.144
654.437
658.742
663.06
667.395
671.75
676.129
680.536
684.974
689.447
693.954
698.498
703.076
707.688
712.33
716.997
721.687
726.392
731.107
735.825
740.542
745.251
749.946
754.623
759.277
763.904
768.499
773.061
777.584
782.067
786.505
790.895
795.233
799.514
803.736
807.894
811.984
816.003
819.948
823.813
827.593
831.286
834.889
838.399
841.815
845.132
848.35
851.466
854.476
857.381
860.177
862.863
865.439
867.902
870.252
872.487
874.607
876.612
878.501
880.274
881.933
883.476
884.905
886.22
887.421
888.509
889.484
890.348
891.102
891.749
892.294
892.74
893.093
893.351
893.524
893.604
893.601
893.516
893.355
893.12
892.813
892.439
892
891.5
890.942
890.328
889.661
888.944
888.179
887.368
886.513
885.615
884.676
883.696
882.678
881.62
880.524
879.391
878.219
877.01
875.761
874.473
873.144
871.775
870.363
868.908
867.409
865.866
864.278
862.646
860.972
859.262
857.524
855.777
854.044
852.397
850.877
849.804
849.424
849.995
11477.1
4944.92
2449.48
1206.86
711.456
513.446
421.266
372.264
343.503
325.194
312.807
304.149
297.962
293.594
290.77
289.711
290.517
293.642
300.349
312.062
330.361
358.525
401.197
466.673
567.869
713.686
831.57
877.676
849.532
775.708
719.382
691.147
670.294
650.999
632.588
614.668
598.18
584.304
573.532
565.509
559.868
556.25
554.492
553.966
554.371
555.743
557.911
560.699
563.977
567.637
571.592
575.771
580.116
584.586
589.147
593.774
598.45
603.163
607.906
612.675
617.468
622.287
627.133
632.009
636.92
641.869
646.862
651.902
656.992
662.133
667.326
672.57
677.86
683.195
688.568
693.974
699.407
704.858
710.319
715.783
721.241
726.686
732.111
737.51
742.877
748.206
753.491
758.73
763.918
769.052
774.125
779.135
784.075
788.942
793.731
798.439
803.064
807.608
812.06
816.414
820.664
824.807
828.841
832.764
836.573
840.264
843.835
847.283
850.607
853.803
856.87
859.807
862.612
865.283
867.82
870.221
872.485
874.613
876.603
878.458
880.176
881.758
883.206
884.519
885.7
886.748
887.665
888.454
889.116
889.654
890.074
890.378
890.576
890.657
890.641
890.522
890.306
889.997
889.6
889.118
888.557
887.919
887.21
886.434
885.595
884.697
883.744
882.74
881.688
880.591
879.453
878.277
877.065
875.819
874.541
873.233
871.897
870.534
869.145
867.729
866.288
864.82
863.327
861.806
860.259
858.684
857.079
855.445
853.779
852.083
850.357
848.604
846.83
845.048
843.276
841.564
839.939
838.62
837.75
837.217
11548.6
4443.12
1608.54
812.802
547.032
436.621
381.894
350.79
331.207
317.886
308.356
301.255
296.112
292.7
290.941
290.669
292.099
295.918
303.326
315.868
335.704
366.513
415.649
495.735
622.48
744.788
795.549
786.829
732.311
676.078
642.274
622.008
604.887
588.889
573.725
559.627
547.369
537.512
530.087
524.802
521.408
519.766
519.305
519.804
521.269
523.543
526.483
529.964
533.878
538.138
542.669
547.412
552.318
557.351
562.482
567.69
572.961
578.286
583.66
589.08
594.547
600.061
605.624
611.24
616.912
622.642
628.436
634.296
640.226
646.223
652.286
658.411
664.592
670.822
677.093
683.397
689.731
696.082
702.437
708.788
715.126
721.441
727.725
733.972
740.172
746.319
752.406
758.427
764.373
770.243
776.039
781.755
787.386
792.926
798.37
803.714
808.955
814.086
819.102
823.998
828.77
833.415
837.93
842.311
846.556
850.662
854.625
858.443
862.112
865.63
868.994
872.205
875.259
878.155
880.892
883.469
885.884
888.138
890.23
892.16
893.93
895.541
896.993
898.287
899.425
900.409
901.24
901.921
902.454
902.844
903.097
903.207
903.197
903.057
902.797
902.421
901.933
901.338
900.641
899.848
898.964
897.994
896.945
895.821
894.629
893.373
892.058
890.691
889.275
887.816
886.317
884.783
883.218
881.625
880.006
878.366
876.707
875.03
873.337
871.629
869.908
868.172
866.424
864.663
862.888
861.099
859.294
857.472
855.632
853.774
851.896
850
848.09
846.175
844.266
842.398
840.589
838.988
837.685
836.321
11620.5
3335.77
1162.19
651.17
481.007
406.887
367.935
344.41
328.255
316.721
308.334
302.343
298.186
295.519
294.288
294.568
296.802
301.627
310.115
324.127
346.822
384.467
448.792
551.61
666.888
719.487
723.897
689.82
641.787
605.901
583.936
568.08
553.999
540.867
528.674
517.771
508.646
501.536
496.37
492.935
491.212
490.692
491.121
492.536
494.798
497.78
501.37
505.466
509.978
514.832
519.964
525.32
530.857
536.543
542.352
548.267
554.273
560.363
566.532
572.778
579.102
585.506
591.989
598.55
605.19
611.908
618.707
625.588
632.563
639.616
646.743
653.937
661.191
668.49
675.822
683.166
690.491
697.812
705.135
712.451
719.747
727.015
734.245
741.428
748.553
755.612
762.597
769.502
776.328
783.062
789.695
796.22
802.63
808.918
815.08
821.111
827.006
832.761
838.374
843.843
849.163
854.33
859.341
864.193
868.884
873.409
877.766
881.95
885.958
889.789
893.438
896.906
900.191
903.29
906.203
908.928
911.465
913.812
915.97
917.94
919.723
921.32
922.733
923.963
925.013
925.883
926.578
927.098
927.45
927.631
927.656
927.524
927.244
926.819
926.256
925.559
924.734
923.787
922.725
921.554
920.28
918.911
917.452
915.912
914.296
912.611
910.865
909.063
907.211
905.316
903.383
901.417
899.423
897.407
895.373
893.323
891.263
889.194
887.118
885.038
882.955
880.87
878.784
876.699
874.612
872.524
870.433
868.338
866.237
864.128
862.01
859.883
857.749
855.613
853.482
851.38
849.316
847.396
845.686
843.563
11658.4
2611
949.873
582.045
454.873
397.003
364.633
344.101
330.173
320.102
312.56
306.864
302.778
300.339
299.475
300.156
303.102
309.068
319.479
337.148
367.578
419.687
500.775
599.706
652.474
664.922
645.78
610.025
576.893
553.965
538.147
525.343
513.769
503.078
493.373
484.949
478.091
472.906
469.321
467.342
466.652
466.896
468.15
470.299
473.233
476.851
481.062
485.779
490.929
496.443
502.264
508.344
514.641
521.126
527.777
534.577
541.514
548.578
555.763
563.066
570.485
578.028
585.693
593.463
601.333
609.299
617.351
625.468
633.6
641.8
650.081
658.44
666.867
675.342
683.848
692.374
700.92
709.461
717.986
726.479
734.923
743.311
751.634
759.881
768.042
776.104
784.058
791.897
799.612
807.2
814.656
821.974
829.145
836.163
843.023
849.722
856.257
862.624
868.822
874.846
880.692
886.355
891.833
897.122
902.221
907.125
911.831
916.335
920.632
924.722
928.601
932.268
935.722
938.962
941.986
944.794
947.384
949.755
951.909
953.846
955.568
957.078
958.376
959.466
960.349
961.029
961.509
961.789
961.876
961.775
961.492
961.033
960.404
959.612
958.663
957.564
956.32
954.94
953.43
951.798
950.053
948.201
946.251
944.21
942.088
939.892
937.63
935.309
932.938
930.522
928.07
925.588
923.081
920.557
918.019
915.474
912.924
910.375
907.828
905.286
902.751
900.227
897.713
895.212
892.722
890.243
887.773
885.311
882.855
880.401
877.949
875.497
873.046
870.598
868.156
865.737
863.342
861.05
858.929
856.137
11674.9
2170.91
853.187
553.46
446.224
395.403
367.279
349.334
336.17
325.713
317.47
311.255
306.943
304.788
304.246
305.742
310.254
318.833
333.656
359.006
401.325
464.945
542.552
594.218
612.413
602.847
578.031
551.229
529.592
513.847
501.654
491.166
481.638
472.946
465.215
458.659
453.455
449.662
447.332
446.377
446.368
447.394
449.37
452.206
455.817
460.119
465.033
470.488
476.419
482.767
489.474
496.49
503.777
511.304
519.051
527.016
535.188
543.541
552.067
560.759
569.593
578.51
587.491
596.598
605.84
615.211
624.703
634.311
644.05
653.873
663.759
673.694
683.678
693.668
703.641
713.583
723.479
733.305
743.038
752.674
762.223
771.687
781.061
790.333
799.491
808.518
817.404
826.138
834.714
843.126
851.369
859.436
867.318
875.009
882.507
889.808
896.912
903.818
910.522
917.02
923.306
929.377
935.229
940.86
946.268
951.45
956.402
961.12
965.6
969.84
973.838
977.593
981.104
984.371
987.393
990.168
992.697
994.979
997.013
998.803
1000.35
1001.66
1002.73
1003.57
1004.17
1004.55
1004.7
1004.64
1004.35
1003.86
1003.16
1002.27
1001.19
999.925
998.487
996.883
995.12
993.206
991.149
988.958
986.643
984.211
981.673
979.037
976.313
973.51
970.638
967.704
964.718
961.689
958.623
955.53
952.416
949.288
946.153
943.016
939.882
936.756
933.641
930.54
927.458
924.397
921.359
918.343
915.352
912.383
909.436
906.509
903.597
900.699
897.812
894.936
892.07
889.215
886.371
883.549
880.744
878.016
875.453
872.045
11679.5
1986.82
815.61
543.549
445.171
400.15
374.341
355.875
341.246
329.666
320.904
314.678
311.031
309.647
309.995
313.762
321.574
335.066
357.435
392.92
443.247
502.353
547.104
566.48
562.872
546.758
526.803
508.581
493.897
482.243
472.457
463.768
455.883
448.786
442.594
437.465
433.524
430.843
429.536
429.301
430.1
431.926
434.711
438.378
442.855
448.068
453.947
460.424
467.449
475
482.976
491.326
500.01
508.99
518.219
527.613
537.162
546.948
556.993
567.304
577.874
588.691
599.736
610.958
622.337
633.849
645.468
657.187
668.987
680.8
692.583
704.3
715.91
727.416
738.815
750.101
761.253
772.246
783.073
793.744
804.283
814.71
825.025
835.216
845.261
855.141
864.839
874.344
883.649
892.749
901.636
910.302
918.737
926.94
934.91
942.647
950.153
957.426
964.463
971.259
977.809
984.108
990.154
995.946
1001.48
1006.76
1011.77
1016.52
1021
1025.21
1029.14
1032.8
1036.19
1039.31
1042.15
1044.72
1047.01
1049.03
1050.78
1052.26
1053.47
1054.41
1055.1
1055.53
1055.7
1055.63
1055.31
1054.75
1053.95
1052.92
1051.68
1050.22
1048.55
1046.69
1044.64
1042.41
1040
1037.44
1034.71
1031.85
1028.85
1025.73
1022.49
1019.15
1015.72
1012.2
1008.62
1004.97
1001.26
997.515
993.734
989.928
986.104
982.272
978.438
974.609
970.788
966.982
963.198
959.439
955.709
952.011
948.346
944.715
941.12
937.56
934.032
930.536
927.066
923.62
920.197
916.794
913.412
910.051
906.711
903.401
900.106
896.874
893.824
889.825
11677.8
1933.89
798.748
541.153
449.741
407.082
380.406
360.21
344.548
332.846
324.413
319.132
316.87
316.602
319.983
327.617
340.491
360.775
390.747
430.348
474.653
510.427
527.071
526.97
517.533
503.746
489.668
477.113
466.442
457.307
449.252
441.999
435.466
429.7
424.809
420.922
418.14
416.626
416.257
416.992
418.836
421.766
425.785
430.765
436.636
443.323
450.747
458.824
467.442
476.407
485.835
495.726
506.056
516.799
527.935
539.47
551.4
563.698
576.38
589.478
602.983
616.793
630.823
645
659.306
673.67
688.014
702.263
716.356
730.262
743.937
757.343
770.468
783.319
795.924
808.319
820.453
832.28
843.818
855.118
866.25
877.273
888.19
898.974
909.589
920.004
930.195
940.151
949.865
959.331
968.543
977.48
986.136
994.523
1002.64
1010.5
1018.09
1025.41
1032.47
1039.25
1045.75
1051.97
1057.91
1063.55
1068.91
1073.99
1078.77
1083.26
1087.45
1091.35
1094.94
1098.24
1101.24
1103.94
1106.35
1108.45
1110.27
1111.79
1113.02
1113.95
1114.6
1114.97
1115.05
1114.87
1114.42
1113.69
1112.71
1111.47
1109.98
1108.25
1106.29
1104.1
1101.69
1099.07
1096.25
1093.25
1090.06
1086.7
1083.18
1079.51
1075.7
1071.76
1067.71
1063.54
1059.28
1054.94
1050.52
1046.04
1041.51
1036.94
1032.33
1027.7
1023.06
1018.42
1013.78
1009.16
1004.54
999.957
995.402
990.884
986.405
981.969
977.576
973.228
968.926
964.669
960.458
956.289
952.158
948.061
943.997
939.965
935.965
932
928.07
924.186
920.323
916.528
912.938
908.366
11668.1
1889.98
788.971
543.07
454.719
412.736
385.184
364.319
348.767
337.53
330.334
327.061
326.339
329.369
336.903
349.151
367.232
391.854
422.113
454.216
481.023
494.794
496.026
491.797
483.076
472.888
462.843
453.638
445.451
438.139
431.596
425.762
420.665
416.403
413.138
410.979
409.984
410.062
411.315
413.719
417.245
421.813
427.234
433.705
441.251
449.788
459.219
469.459
480.451
492.206
504.617
517.642
531.247
545.411
560.12
575.346
591.057
607.225
623.887
641.198
659.222
677.457
695.688
713.783
731.632
749.19
766.416
783.248
799.61
815.427
830.62
845.13
859.031
872.392
885.311
898.052
910.375
922.126
933.423
944.408
955.25
966.103
976.925
987.64
998.181
1008.5
1018.56
1028.35
1037.86
1047.09
1056.04
1064.7
1073.09
1081.18
1088.99
1096.49
1103.7
1110.62
1117.25
1123.57
1129.59
1135.29
1140.68
1145.75
1150.52
1154.97
1159.12
1162.95
1166.46
1169.65
1172.52
1175.08
1177.33
1179.26
1180.87
1182.18
1183.19
1183.89
1184.27
1184.34
1184.14
1183.64
1182.84
1181.76
1180.41
1178.78
1176.88
1174.72
1172.3
1169.64
1166.73
1163.59
1160.23
1156.66
1152.88
1148.91
1144.76
1140.44
1135.95
1131.3
1126.52
1121.61
1116.58
1111.45
1106.22
1100.9
1095.52
1090.07
1084.58
1079.06
1073.5
1067.93
1062.35
1056.78
1051.22
1045.68
1040.18
1034.72
1029.3
1023.92
1018.6
1013.32
1008.1
1002.94
997.826
992.773
987.776
982.834
977.942
973.094
968.29
963.531
958.817
954.153
949.539
944.999
940.496
936.1
931.908
926.793
11654.9
1857.77
784.328
544.71
459.412
418.756
390.92
370.311
355.521
345.906
341.316
339.945
342.02
348.91
359.707
374.685
393.678
415.695
438.002
456.601
467.026
468.819
468.001
463.596
457.33
450.467
443.775
437.725
432.307
427.506
423.354
419.869
417.102
415.102
413.84
413.396
414.085
416.008
419.232
423.779
429.657
436.886
445.564
455.718
467.535
480.654
494.838
509.974
526.009
542.929
560.651
579.087
598.175
617.904
638.294
659.171
680.428
701.995
723.865
746.032
768.234
790.106
811.582
832.589
853.065
872.96
892.224
910.802
928.627
945.618
961.681
976.619
990.629
1003.85
1016.38
1028.25
1039.36
1049.81
1059.71
1069.22
1078.67
1088.54
1098.51
1108.41
1118.1
1127.54
1136.67
1145.5
1154.01
1162.22
1170.13
1177.76
1185.11
1192.15
1198.88
1205.28
1211.36
1217.14
1222.61
1227.76
1232.58
1237.08
1241.24
1245.08
1248.6
1251.81
1254.7
1257.26
1259.51
1261.43
1263.03
1264.33
1265.3
1265.96
1266.31
1266.33
1266.1
1265.55
1264.68
1263.5
1262.04
1260.3
1258.27
1255.96
1253.39
1250.54
1247.43
1244.07
1240.45
1236.6
1232.5
1228.18
1223.65
1218.91
1213.97
1208.84
1203.54
1198.07
1192.44
1186.66
1180.75
1174.72
1168.57
1162.32
1155.99
1149.57
1143.1
1136.57
1130
1123.4
1116.78
1110.15
1103.52
1096.9
1090.31
1083.75
1077.24
1070.78
1064.38
1058.03
1051.73
1045.5
1039.33
1033.22
1027.19
1021.22
1015.32
1009.49
1003.72
998.015
992.364
986.773
981.242
975.78
970.381
965.09
959.831
954.726
949.773
944.075
11639.3
1831.26
781.993
547.167
463.972
424.26
396.53
376.698
363.285
356.294
353.609
353.459
358.418
366.709
378.052
392.224
408.445
424.926
439.496
448.875
452.592
454.147
454.32
452.592
449.769
446.41
442.823
439.027
435.561
432.851
430.958
430.011
429.983
431.052
433.396
437.144
442.33
449.051
457.365
467.306
478.898
492.185
507.263
524.279
543.296
563.624
585.056
607.495
630.885
655.246
680.505
706.388
732.689
759.194
785.67
812.054
838.226
864.058
889.406
913.99
937.541
960.284
982.257
1003.45
1023.82
1043.36
1062.03
1079.82
1096.71
1112.68
1127.72
1141.67
1154.79
1167.13
1178.65
1189.04
1198.53
1207.43
1215.82
1223.83
1231.71
1239.87
1248.04
1256.03
1263.74
1271.11
1278.15
1284.86
1291.25
1297.34
1303.12
1308.6
1313.77
1318.63
1323.17
1327.39
1331.33
1334.97
1338.33
1341.4
1344.15
1346.6
1348.76
1350.61
1352.18
1353.46
1354.46
1355.18
1355.6
1355.72
1355.57
1355.15
1354.42
1353.43
1352.15
1350.6
1348.79
1346.71
1344.34
1341.7
1338.8
1335.64
1332.22
1328.56
1324.65
1320.5
1316.11
1311.48
1306.63
1301.55
1296.25
1290.75
1285.05
1279.16
1273.09
1266.84
1260.43
1253.87
1247.15
1240.3
1233.32
1226.23
1219.03
1211.73
1204.35
1196.9
1189.39
1181.83
1174.23
1166.61
1158.97
1151.32
1143.68
1136.04
1128.44
1120.87
1113.34
1105.86
1098.44
1091.08
1083.77
1076.53
1069.36
1062.26
1055.23
1048.28
1041.4
1034.61
1027.9
1021.25
1014.66
1008.14
1001.69
995.328
989.022
982.861
976.689
970.719
964.779
958.416
11625.8
1809.21
779.259
549.316
466.885
426.975
398.918
379.614
367.897
362.422
360.772
362.646
369.174
378.498
390.598
404.827
419.629
433.352
444.352
451.889
456.427
459.428
461.121
461.678
461.684
461.482
461.447
462.025
463.541
466.262
470.164
475.398
482.048
490.254
500.196
511.981
525.639
541.226
558.794
578.328
599.804
623.168
648.339
675.139
702.95
731.985
762.141
793.189
824.91
857.09
889.542
921.87
953.758
984.944
1015.21
1044.39
1072.35
1098.99
1124.2
1147.89
1170.01
1190.62
1209.82
1227.7
1244.31
1259.71
1273.98
1287.18
1299.35
1310.57
1320.99
1331.02
1340.6
1349.58
1357.86
1365.19
1371.76
1377.85
1383.67
1389.39
1395.31
1400.74
1405.65
1410.18
1414.35
1418.2
1421.78
1425.1
1428.16
1430.97
1433.52
1435.81
1437.84
1439.64
1441.19