/*--------------------------------*- C++ -*----------------------------------*\
| =========                 |                                                 |
| \\      /  F ield         | OpenFOAM: The Open Source CFD Toolbox           |
|  \\    /   O peration     | Version:  2112                                  |
|   \\  /    A nd           | Website:  www.openfoam.com                      |
|    \\/     M anipulation  |                                                 |
\*---------------------------------------------------------------------------*/
FoamFile
{
    version     2.0;
    format      ascii;
    arch        "LSB;label=32;scalar=64";
    class       surfaceScalarField;
    location    "0.18";
    object      phi_0;
}
// * * * * * * * * * * * * * * * * * * * * * * * * * * * * * * * * * * * * * //

dimensions      [0 3 -1 0 0 0 0];

oriented        oriented;

internalField   nonuniform List<scalar> 
24170
(
3.10673e-06
8.16737e-08
3.01241e-06
9.43257e-08
2.92786e-06
8.45477e-08
2.8486e-06
7.92607e-08
2.77362e-06
7.49741e-08
2.70333e-06
7.02911e-08
2.63796e-06
6.537e-08
2.57742e-06
6.05401e-08
2.5214e-06
5.60252e-08
2.46972e-06
5.16747e-08
2.42205e-06
4.7675e-08
2.37832e-06
4.37241e-08
2.33828e-06
4.00395e-08
2.3016e-06
3.66806e-08
2.26898e-06
3.26196e-08
2.23819e-06
3.07924e-08
2.21516e-06
2.30315e-08
2.48242e-08
2.19034e-06
3.43441e-06
6.45089e-08
3.43999e-06
8.87451e-08
3.43911e-06
8.54356e-08
3.43449e-06
8.38792e-08
3.42634e-06
8.31175e-08
3.41553e-06
8.11075e-08
3.40285e-06
7.80483e-08
3.3889e-06
7.44882e-08
3.37403e-06
7.08951e-08
3.35859e-06
6.71137e-08
3.3428e-06
6.34719e-08
3.32694e-06
5.95755e-08
3.31108e-06
5.59032e-08
3.29569e-06
5.20709e-08
3.28029e-06
4.80236e-08
3.2665e-06
4.45748e-08
3.25106e-06
3.84766e-08
3.73408e-08
3.23854e-06
3.67379e-06
5.32405e-08
3.68276e-06
7.97723e-08
3.68735e-06
8.08418e-08
3.69048e-06
8.07475e-08
3.69261e-06
8.09938e-08
3.69378e-06
7.993e-08
3.6942e-06
7.76363e-08
3.69396e-06
7.47241e-08
3.69321e-06
7.16455e-08
3.69196e-06
6.83616e-08
3.69038e-06
6.50555e-08
3.6884e-06
6.15512e-08
3.68625e-06
5.80549e-08
3.68387e-06
5.44557e-08
3.6813e-06
5.05897e-08
3.67898e-06
4.68953e-08
3.6752e-06
4.22538e-08
3.84921e-08
3.67405e-06
3.934e-06
4.4629e-08
3.94228e-06
7.14937e-08
3.94736e-06
7.57622e-08
3.95106e-06
7.70466e-08
3.95424e-06
7.78114e-08
3.957e-06
7.7172e-08
3.95937e-06
7.52692e-08
3.9614e-06
7.2695e-08
3.96318e-06
6.98578e-08
3.96474e-06
6.68029e-08
3.96616e-06
6.36414e-08
3.96739e-06
6.03139e-08
3.96855e-06
5.69007e-08
3.9696e-06
5.34036e-08
3.97054e-06
4.96475e-08
3.97149e-06
4.5947e-08
3.97208e-06
4.16606e-08
3.73373e-08
3.97324e-06
4.21429e-06
3.74661e-08
4.22184e-06
6.39388e-08
4.22697e-06
7.06329e-08
4.23086e-06
7.31593e-08
4.23432e-06
7.43498e-08
4.23749e-06
7.40037e-08
4.24036e-06
7.23969e-08
4.24298e-06
7.0078e-08
4.24542e-06
6.74193e-08
4.24771e-06
6.45139e-08
4.2499e-06
6.14533e-08
4.25198e-06
5.82299e-08
4.25399e-06
5.48879e-08
4.25595e-06
5.14462e-08
4.2578e-06
4.77976e-08
4.25965e-06
4.40985e-08
4.26129e-06
4.00244e-08
3.58625e-08
4.26276e-06
4.51534e-06
3.12129e-08
4.52225e-06
5.70246e-08
4.52734e-06
6.55432e-08
4.53141e-06
6.90959e-08
4.53508e-06
7.06814e-08
4.53848e-06
7.05997e-08
4.54162e-06
6.92573e-08
4.54453e-06
6.7165e-08
4.54728e-06
6.46699e-08
4.5499e-06
6.18939e-08
4.55243e-06
5.89296e-08
4.55486e-06
5.57961e-08
4.55722e-06
5.25307e-08
4.55951e-06
4.91527e-08
4.5617e-06
4.56093e-08
4.56382e-06
4.19742e-08
4.56573e-06
3.81202e-08
3.41994e-08
4.56739e-06
4.83825e-06
2.56826e-08
4.84461e-06
5.06678e-08
4.84968e-06
6.04739e-08
4.85393e-06
6.48461e-08
4.8578e-06
6.68049e-08
4.86142e-06
6.69847e-08
4.86478e-06
6.58943e-08
4.86793e-06
6.40179e-08
4.87091e-06
6.16858e-08
4.87377e-06
5.90396e-08
4.87652e-06
5.61795e-08
4.87917e-06
5.31417e-08
4.88173e-06
4.99666e-08
4.88421e-06
4.6674e-08
4.88657e-06
4.32487e-08
4.88882e-06
3.97318e-08
4.89084e-06
3.6092e-08
3.24169e-08
4.89263e-06
5.18437e-06
2.08969e-08
5.19028e-06
4.47535e-08
5.19538e-06
5.53771e-08
5.19983e-06
6.03981e-08
5.20392e-06
6.27084e-08
5.20775e-06
6.3152e-08
5.21134e-06
6.23082e-08
5.21471e-06
6.06452e-08
5.21792e-06
5.84813e-08
5.22098e-06
5.5974e-08
5.22393e-06
5.32313e-08
5.22677e-06
5.03036e-08
5.2295e-06
4.72366e-08
5.23212e-06
4.40543e-08
5.2346e-06
4.07662e-08
5.23693e-06
3.74028e-08
5.23905e-06
3.39781e-08
3.05563e-08
5.24091e-06
5.55531e-06
1.69228e-08
5.56087e-06
3.91961e-08
5.56603e-06
5.02175e-08
5.57069e-06
5.57415e-08
5.57501e-06
5.838e-08
5.57908e-06
5.90875e-08
5.5829e-06
5.84881e-08
5.5865e-06
5.70397e-08
5.58993e-06
5.50526e-08
5.59321e-06
5.26968e-08
5.59635e-06
5.00878e-08
5.59937e-06
4.72883e-08
5.60226e-06
4.43496e-08
5.60501e-06
4.13025e-08
5.6076e-06
3.81717e-08
5.61002e-06
3.49873e-08
5.61221e-06
3.17841e-08
2.86168e-08
5.61415e-06
5.95294e-06
1.37551e-08
5.95818e-06
3.39624e-08
5.96339e-06
4.50076e-08
5.96824e-06
5.08862e-08
5.97281e-06
5.3815e-08
5.97712e-06
5.47791e-08
5.98118e-06
5.44206e-08
5.98503e-06
5.31893e-08
5.9887e-06
5.13888e-08
5.9922e-06
4.91992e-08
5.99554e-06
4.67418e-08
5.99874e-06
4.40902e-08
6.00179e-06
4.13011e-08
6.00468e-06
3.84128e-08
6.00739e-06
3.5459e-08
6.0099e-06
3.24735e-08
6.01219e-06
2.94985e-08
2.6583e-08
6.01422e-06
6.37932e-06
1.12422e-08
6.38418e-06
2.91084e-08
6.38937e-06
3.98167e-08
6.39439e-06
4.58652e-08
6.39919e-06
4.90205e-08
6.40374e-06
5.02197e-08
6.40807e-06
5.00941e-08
6.41218e-06
4.9081e-08
6.41609e-06
4.74769e-08
6.41982e-06
4.54681e-08
6.42338e-06
4.3181e-08
6.42678e-06
4.06977e-08
6.43e-06
3.80798e-08
6.43304e-06
3.53722e-08
6.43588e-06
3.26144e-08
6.43851e-06
2.98434e-08
6.44091e-06
2.71027e-08
2.44364e-08
6.44305e-06
5.74259e-06
9.48154e-09
5.74635e-06
2.53522e-08
5.75066e-06
3.5504e-08
5.755e-06
4.15338e-08
5.75921e-06
4.48091e-08
5.76325e-06
4.61756e-08
5.76711e-06
4.62336e-08
5.77079e-06
4.54024e-08
5.7743e-06
4.39701e-08
5.77764e-06
4.21248e-08
5.78083e-06
3.99957e-08
5.78385e-06
3.767e-08
5.78672e-06
3.5213e-08
5.78942e-06
3.26738e-08
5.79194e-06
3.0095e-08
5.79427e-06
2.75156e-08
5.79639e-06
2.49766e-08
2.25211e-08
5.79831e-06
6.99984e-06
7.79717e-09
7.00377e-06
2.14245e-08
7.00856e-06
3.0713e-08
7.01357e-06
3.65243e-08
7.01855e-06
3.98313e-08
7.02338e-06
4.13376e-08
7.02804e-06
4.15808e-08
7.03249e-06
4.09497e-08
7.03674e-06
3.97174e-08
7.0408e-06
3.80696e-08
7.04466e-06
3.61361e-08
7.04832e-06
3.40078e-08
7.05178e-06
3.17527e-08
7.05503e-06
2.94232e-08
7.05806e-06
2.70635e-08
7.06086e-06
2.47135e-08
7.06343e-06
2.24113e-08
2.01961e-08
7.06575e-06
8.53244e-06
6.20786e-09
8.53645e-06
1.74156e-08
8.54165e-06
2.55128e-08
8.54733e-06
3.08423e-08
8.55313e-06
3.40289e-08
8.55886e-06
3.5603e-08
8.56444e-06
3.60075e-08
8.56981e-06
3.55818e-08
8.57495e-06
3.45737e-08
8.57986e-06
3.31589e-08
8.58453e-06
3.14635e-08
8.58896e-06
2.95789e-08
8.59314e-06
2.75738e-08
8.59706e-06
2.5502e-08
8.60072e-06
2.34078e-08
8.6041e-06
2.133e-08
8.60721e-06
1.93033e-08
1.73617e-08
8.61004e-06
1.04007e-05
4.71087e-09
1.04047e-05
1.34005e-08
1.04103e-05
1.99923e-08
1.04166e-05
2.45358e-08
1.04232e-05
2.73848e-08
1.04299e-05
2.8896e-08
1.04365e-05
2.93962e-08
1.04429e-05
2.91556e-08
1.04491e-05
2.8382e-08
1.04551e-05
2.72306e-08
1.04607e-05
2.58164e-08
1.04661e-05
2.42255e-08
1.04711e-05
2.25238e-08
1.04759e-05
2.07632e-08
1.04803e-05
1.89861e-08
1.04844e-05
1.72281e-08
1.04882e-05
1.55199e-08
1.38897e-08
1.04916e-05
1.26782e-05
3.2791e-09
1.26822e-05
9.40229e-09
1.2688e-05
1.42209e-08
1.26949e-05
1.76688e-08
1.27023e-05
1.99186e-08
1.271e-05
2.11783e-08
1.27178e-05
2.16572e-08
1.27254e-05
2.15426e-08
1.27328e-05
2.09884e-08
1.27399e-05
2.01155e-08
1.27467e-05
1.90178e-08
1.27532e-05
1.77682e-08
1.27593e-05
1.64238e-08
1.2765e-05
1.50304e-08
1.27704e-05
1.36248e-08
1.27753e-05
1.22377e-08
1.278e-05
1.08945e-08
9.618e-09
1.27842e-05
1.54546e-05
1.858e-09
1.54586e-05
5.35493e-09
1.54647e-05
8.17503e-09
1.54721e-05
1.0245e-08
1.54804e-05
1.16277e-08
1.54892e-05
1.24179e-08
1.54981e-05
1.27198e-08
1.5507e-05
1.26353e-08
1.55157e-05
1.22545e-08
1.55242e-05
1.16524e-08
1.55323e-05
1.08907e-08
1.55401e-05
1.00197e-08
1.55474e-05
9.08055e-09
1.55544e-05
8.10682e-09
1.55609e-05
7.12622e-09
1.55669e-05
6.16167e-09
1.55726e-05
5.23219e-09
4.35457e-09
1.55779e-05
1.88391e-05
3.53317e-10
1.88435e-05
1.04569e-09
1.885e-05
1.62689e-09
1.88582e-05
2.0638e-09
1.88675e-05
2.34446e-09
1.88774e-05
2.46867e-09
1.88877e-05
2.4467e-09
1.8898e-05
2.2957e-09
1.89082e-05
2.03565e-09
1.89182e-05
1.68734e-09
1.89278e-05
1.27129e-09
1.8937e-05
8.07012e-10
1.89458e-05
3.12631e-10
1.89541e-05
-1.95422e-10
1.89619e-05
-7.02471e-10
1.89693e-05
-1.19577e-09
1.89762e-05
-1.66413e-09
-2.09747e-09
1.89826e-05
2.29651e-05
-1.42233e-09
2.29702e-05
-4.0431e-09
2.29779e-05
-6.07907e-09
2.29875e-05
-7.5312e-09
2.29984e-05
-8.51711e-09
2.301e-05
-9.15687e-09
2.3022e-05
-9.55132e-09
2.30341e-05
-9.78185e-09
2.3046e-05
-9.90935e-09
2.30577e-05
-9.97578e-09
2.3069e-05
-1.00079e-08
2.30798e-05
-1.00214e-08
2.30901e-05
-1.00244e-08
2.30999e-05
-1.00197e-08
2.31092e-05
-1.00072e-08
2.3118e-05
-9.98489e-09
2.31263e-05
-9.94963e-09
-9.89743e-09
2.31341e-05
1.68122e-05
-2.9616e-09
1.68165e-05
-8.27449e-09
1.68227e-05
-1.22563e-08
1.68301e-05
-1.49771e-08
1.68383e-05
-1.67242e-08
1.68469e-05
-1.77569e-08
1.68556e-05
-1.82819e-08
1.68643e-05
-1.84621e-08
1.68728e-05
-1.84183e-08
1.68811e-05
-1.82346e-08
1.6889e-05
-1.79663e-08
1.68967e-05
-1.76492e-08
1.6904e-05
-1.73053e-08
1.69109e-05
-1.69475e-08
1.69175e-05
-1.65829e-08
1.69237e-05
-1.62147e-08
1.69296e-05
-1.58437e-08
-1.54684e-08
1.69351e-05
1.46363e-05
-4.69959e-09
1.46408e-05
-1.27704e-08
1.4647e-05
-1.84348e-08
1.46541e-05
-2.20638e-08
1.46616e-05
-2.42507e-08
1.46693e-05
-2.54306e-08
1.46769e-05
-2.59158e-08
1.46844e-05
-2.59419e-08
1.46916e-05
-2.56766e-08
1.46986e-05
-2.52326e-08
1.47054e-05
-2.46825e-08
1.47118e-05
-2.40726e-08
1.47179e-05
-2.34324e-08
1.47237e-05
-2.27798e-08
1.47293e-05
-2.21255e-08
1.47345e-05
-2.14755e-08
1.47395e-05
-2.08323e-08
-2.01957e-08
1.47443e-05
1.27423e-05
-6.8298e-09
1.27472e-05
-1.7749e-08
1.27535e-05
-2.47205e-08
1.27603e-05
-2.88354e-08
1.27672e-05
-3.11482e-08
1.2774e-05
-3.22683e-08
1.27807e-05
-3.25862e-08
1.27872e-05
-3.23892e-08
1.27934e-05
-3.18762e-08
1.27993e-05
-3.11754e-08
1.2805e-05
-3.03662e-08
1.28104e-05
-2.94987e-08
1.28156e-05
-2.86045e-08
1.28205e-05
-2.77037e-08
1.28252e-05
-2.68081e-08
1.28296e-05
-2.59252e-08
1.28339e-05
-2.5058e-08
-2.42066e-08
1.28379e-05
1.10936e-05
-9.54678e-09
1.10992e-05
-2.33091e-08
1.11056e-05
-3.10728e-08
1.1112e-05
-3.5228e-08
1.11182e-05
-3.74082e-08
1.11243e-05
-3.83282e-08
1.11301e-05
-3.84016e-08
1.11356e-05
-3.79455e-08
1.11409e-05
-3.71781e-08
1.1146e-05
-3.62337e-08
1.11508e-05
-3.51901e-08
1.11554e-05
-3.40965e-08
1.11598e-05
-3.29833e-08
1.1164e-05
-3.18712e-08
1.11679e-05
-3.0772e-08
1.11717e-05
-2.96937e-08
1.11753e-05
-2.86396e-08
-2.7609e-08
1.11787e-05
9.6587e-06
-1.30327e-08
9.66487e-06
-2.94786e-08
9.67119e-06
-3.73971e-08
9.67714e-06
-4.1169e-08
9.68276e-06
-4.30345e-08
9.68811e-06
-4.36764e-08
9.69317e-06
-4.34652e-08
9.69796e-06
-4.27334e-08
9.7025e-06
-4.1715e-08
9.70681e-06
-4.05434e-08
9.71091e-06
-3.9289e-08
9.71481e-06
-3.79961e-08
9.71852e-06
-3.66921e-08
9.72204e-06
-3.53978e-08
9.72539e-06
-3.41239e-08
9.72858e-06
-3.28792e-08
9.73161e-06
-3.16668e-08
-3.04852e-08
9.73448e-06
8.40979e-06
-1.74708e-08
8.41659e-06
-3.62795e-08
8.4228e-06
-4.36061e-08
8.42824e-06
-4.66094e-08
8.43326e-06
-4.80493e-08
8.43796e-06
-4.83806e-08
8.44236e-06
-4.78661e-08
8.44648e-06
-4.68504e-08
8.45035e-06
-4.55875e-08
8.45401e-06
-4.42045e-08
8.45748e-06
-4.27596e-08
8.46077e-06
-4.12885e-08
8.4639e-06
-3.98155e-08
8.46686e-06
-3.83607e-08
8.46967e-06
-3.6934e-08
8.47234e-06
-3.55445e-08
8.47486e-06
-3.41948e-08
-3.28856e-08
8.47726e-06
7.32297e-06
-2.31525e-08
7.33043e-06
-4.37405e-08
7.33645e-06
-4.96272e-08
7.34136e-06
-5.15224e-08
7.34579e-06
-5.24821e-08
7.34991e-06
-5.24935e-08
7.3537e-06
-5.16627e-08
7.35721e-06
-5.03548e-08
7.36047e-06
-4.88518e-08
7.36354e-06
-4.72677e-08
7.36642e-06
-4.56454e-08
7.36914e-06
-4.40091e-08
7.37171e-06
-4.23803e-08
7.37412e-06
-4.0779e-08
7.3764e-06
-3.92128e-08
7.37855e-06
-3.76948e-08
7.38058e-06
-3.62194e-08
-3.47983e-08
7.38249e-06
6.37741e-06
-3.04973e-08
6.3857e-06
-5.20311e-08
6.39144e-06
-5.53641e-08
6.39582e-06
-5.59064e-08
6.3997e-06
-5.63604e-08
6.40322e-06
-5.60112e-08
6.40638e-06
-5.4824e-08
6.40923e-06
-5.32013e-08
6.41182e-06
-5.14457e-08
6.4142e-06
-4.96516e-08
6.4164e-06
-4.78439e-08
6.41843e-06
-4.60381e-08
6.4203e-06
-4.42483e-08
6.42202e-06
-4.25007e-08
6.4236e-06
-4.07914e-08
6.42506e-06
-3.91526e-08
6.4264e-06
-3.75585e-08
-3.60293e-08
6.42763e-06
5.55544e-06
-4.04754e-08
5.5647e-06
-6.12902e-08
5.56988e-06
-6.05424e-08
5.57368e-06
-5.97048e-08
5.57681e-06
-5.94931e-08
5.57934e-06
-5.85433e-08
5.58135e-06
-5.68316e-08
5.58294e-06
-5.47877e-08
5.58417e-06
-5.26828e-08
5.58511e-06
-5.05904e-08
5.58578e-06
-4.85135e-08
5.58622e-06
-4.64741e-08
5.58644e-06
-4.44651e-08
5.58646e-06
-4.25294e-08
5.58631e-06
-4.06348e-08
5.58601e-06
-3.88514e-08
5.58555e-06
-3.71008e-08
-3.55369e-08
5.58506e-06
4.84336e-06
-5.62268e-08
4.85122e-06
-6.91559e-08
4.85369e-06
-6.30043e-08
4.85397e-06
-5.99853e-08
4.85223e-06
-5.77614e-08
4.84884e-06
-5.51464e-08
4.84422e-06
-5.22124e-08
4.83869e-06
-4.92585e-08
4.83245e-06
-4.64392e-08
4.82564e-06
-4.37819e-08
4.81839e-06
-4.12616e-08
4.81081e-06
-3.88939e-08
4.80298e-06
-3.6638e-08
4.79499e-06
-3.45398e-08
4.78688e-06
-3.25303e-08
4.77873e-06
-3.06985e-08
4.77057e-06
-2.89434e-08
-2.73978e-08
4.76243e-06
4.14645e-06
4.07729e-06
4.01429e-06
3.9543e-06
3.89654e-06
3.8414e-06
3.78918e-06
3.73993e-06
3.69349e-06
3.6497e-06
3.60844e-06
3.56955e-06
3.53291e-06
3.49837e-06
3.46584e-06
3.43514e-06
3.4062e-06
3.3788e-06
-6.91121e-08
6.91121e-08
-1.48474e-07
7.93615e-08
-2.1535e-07
6.68769e-08
-2.64035e-07
4.86848e-08
-2.92594e-07
2.85592e-08
-2.99111e-07
6.51674e-09
-2.83451e-07
-1.56599e-08
-2.4551e-07
-3.79416e-08
-1.88102e-07
-5.74079e-08
-1.17269e-07
-7.08328e-08
-4.03158e-08
-7.69531e-08
3.54792e-08
-7.5795e-08
1.03907e-07
-6.8428e-08
1.60128e-07
-5.62212e-08
2.00765e-07
-4.0637e-08
2.23557e-07
-2.27912e-08
2.26802e-07
-3.24525e-09
2.10405e-07
1.63965e-08
1.74141e-07
3.62643e-08
1.18979e-07
5.51616e-08
4.74915e-08
7.14879e-08
-3.0233e-08
7.77245e-08
-9.386e-08
6.36271e-08
-1.43189e-07
4.93291e-08
-1.85367e-07
4.21779e-08
-2.09304e-07
2.3937e-08
-2.00773e-07
-8.53153e-09
-1.5775e-07
-4.30227e-08
-7.86146e-08
-7.91352e-08
1.86896e-08
-9.73042e-08
1.05946e-07
-8.72562e-08
1.62075e-07
-5.61296e-08
1.84452e-07
-2.23763e-08
1.85458e-07
-1.00591e-09
1.66359e-07
1.90983e-08
1.25247e-07
4.11128e-08
7.34374e-08
5.18092e-08
-1.5723e-08
8.91604e-08
-1.69189e-07
1.53466e-07
-3.43123e-07
1.73934e-07
-5.11071e-07
1.67948e-07
-6.69569e-07
1.58498e-07
-8.15382e-07
1.45814e-07
-9.48139e-07
1.32757e-07
-1.06807e-06
1.19931e-07
-1.17614e-06
1.08073e-07
-1.27342e-06
9.7273e-08
-1.36116e-06
8.77469e-08
-1.44073e-06
7.95645e-08
-1.51329e-06
7.25662e-08
-1.57994e-06
6.6649e-08
-1.6416e-06
6.16579e-08
-1.69906e-06
5.74624e-08
-1.75299e-06
5.39307e-08
-1.80395e-06
5.09562e-08
-1.8524e-06
4.84528e-08
-1.89877e-06
4.63653e-08
-1.94339e-06
4.46235e-08
-1.98654e-06
4.31504e-08
-2.02842e-06
4.18827e-08
-2.0692e-06
4.07742e-08
-2.10898e-06
3.97846e-08
-2.14787e-06
3.88826e-08
-2.18591e-06
3.80434e-08
-2.22315e-06
3.72443e-08
-2.25962e-06
3.64697e-08
-2.29533e-06
3.5704e-08
-2.33026e-06
3.49374e-08
-2.36442e-06
3.41602e-08
-2.39779e-06
3.33664e-08
-2.43034e-06
3.25509e-08
-2.46205e-06
3.17107e-08
-2.4929e-06
3.0844e-08
-2.52285e-06
2.995e-08
-2.55188e-06
2.90289e-08
-2.57996e-06
2.80815e-08
-2.60707e-06
2.71092e-08
-2.63318e-06
2.61135e-08
-2.65828e-06
2.5096e-08
-2.68233e-06
2.40584e-08
-2.70534e-06
2.30022e-08
-2.72727e-06
2.19288e-08
-2.7481e-06
2.08394e-08
-2.76784e-06
1.97347e-08
-2.78645e-06
1.86156e-08
-2.80394e-06
1.74826e-08
-2.82027e-06
1.63359e-08
-2.83545e-06
1.51757e-08
-2.84945e-06
1.40022e-08
-2.86227e-06
1.28155e-08
-2.87388e-06
1.16154e-08
-2.88428e-06
1.04019e-08
-2.89346e-06
9.17449e-09
-2.90139e-06
7.93275e-09
-2.90807e-06
6.67586e-09
-2.91347e-06
5.40172e-09
-2.91758e-06
4.10612e-09
-2.92037e-06
2.7918e-09
-2.92184e-06
1.46877e-09
-2.92182e-06
-1.07571e-11
-2.92062e-06
-1.20664e-09
-2.91817e-06
-2.45195e-09
-2.91443e-06
-3.73136e-09
-2.90944e-06
-4.99926e-09
-2.90316e-06
-6.27581e-09
-2.89561e-06
-7.55001e-09
-2.88678e-06
-8.82656e-09
-2.87668e-06
-1.01015e-08
-2.86531e-06
-1.13747e-08
-2.85266e-06
-1.26442e-08
-2.83875e-06
-1.39085e-08
-2.82359e-06
-1.5166e-08
-2.80717e-06
-1.64149e-08
-2.78952e-06
-1.76537e-08
-2.77064e-06
-1.88806e-08
-2.75055e-06
-2.00939e-08
-2.72925e-06
-2.1292e-08
-2.70678e-06
-2.24732e-08
-2.68314e-06
-2.36357e-08
-2.65837e-06
-2.4778e-08
-2.63247e-06
-2.58984e-08
-2.60547e-06
-2.69953e-08
-2.57741e-06
-2.8067e-08
-2.54829e-06
-2.91118e-08
-2.51817e-06
-3.01274e-08
-2.48706e-06
-3.11108e-08
-2.455e-06
-3.20565e-08
-2.42205e-06
-3.29536e-08
-2.38825e-06
-3.37954e-08
-2.35368e-06
-3.45697e-08
-2.31839e-06
-3.5289e-08
-2.28227e-06
-3.6123e-08
-2.24531e-06
-3.69541e-08
-2.20765e-06
-3.76677e-08
-2.16928e-06
-3.83632e-08
-2.13027e-06
-3.90101e-08
-2.09065e-06
-3.96251e-08
-2.05044e-06
-4.02077e-08
-2.00968e-06
-4.07641e-08
-1.96839e-06
-4.12908e-08
-1.9266e-06
-4.17884e-08
-1.88434e-06
-4.22618e-08
-1.84162e-06
-4.27137e-08
-1.79848e-06
-4.3146e-08
-1.75491e-06
-4.35624e-08
-1.71095e-06
-4.39665e-08
-1.66659e-06
-4.43619e-08
-1.62183e-06
-4.47528e-08
-1.57669e-06
-4.51433e-08
-1.53115e-06
-4.5538e-08
-1.48521e-06
-4.59422e-08
-1.43885e-06
-4.63609e-08
-1.39205e-06
-4.67987e-08
-1.34479e-06
-4.7261e-08
-1.29704e-06
-4.77529e-08
-1.24875e-06
-4.82803e-08
-1.19991e-06
-4.88482e-08
-1.15045e-06
-4.9461e-08
-1.10032e-06
-5.01232e-08
-1.04948e-06
-5.08391e-08
-9.97871e-07
-5.16128e-08
-9.45423e-07
-5.24477e-08
-8.92076e-07
-5.33465e-08
-8.37765e-07
-5.43113e-08
-7.82422e-07
-5.5343e-08
-7.25981e-07
-5.6441e-08
-6.68378e-07
-5.76031e-08
-6.09553e-07
-5.88249e-08
-5.49454e-07
-6.00987e-08
-4.88042e-07
-6.14124e-08
-4.25293e-07
-6.27488e-08
-3.61214e-07
-6.40788e-08
-2.95856e-07
-6.53587e-08
-2.2931e-07
-6.65457e-08
-1.61941e-07
-6.73693e-08
-9.36493e-08
-6.82913e-08
-2.68704e-08
-6.67789e-08
4.10549e-08
-6.79253e-08
1.00287e-07
-5.9232e-08
-3.80471e-08
1.38334e-07
-5.26836e-09
7.43804e-08
-3.26175e-08
1.06711e-07
-5.61571e-08
9.04164e-08
-6.68203e-08
5.9348e-08
-6.40572e-08
2.57961e-08
-4.72594e-08
-1.02811e-08
-1.07263e-08
-5.2193e-08
4.45777e-08
-9.32456e-08
1.12973e-07
-1.25804e-07
1.87364e-07
-1.45223e-07
2.60689e-07
-1.50278e-07
3.27297e-07
-1.42403e-07
3.83168e-07
-1.24299e-07
4.25918e-07
-9.89712e-08
4.54434e-07
-6.91535e-08
4.68717e-07
-3.70738e-08
4.70079e-07
-4.6075e-09
4.58055e-07
2.84212e-08
4.34235e-07
6.00838e-08
3.99915e-07
8.94813e-08
3.56463e-07
1.1494e-07
3.00578e-07
1.33609e-07
2.23899e-07
1.40307e-07
1.3903e-07
1.34197e-07
6.86212e-08
1.12587e-07
2.03558e-08
7.22024e-08
-4.7908e-09
1.66151e-08
1.47391e-09
-4.92874e-08
3.83757e-08
-1.16037e-07
8.23688e-08
-1.41297e-07
1.13237e-07
-1.18124e-07
1.17447e-07
-6.03395e-08
8.25812e-08
1.24894e-08
6.45962e-09
7.51156e-08
-1.0946e-07
1.35018e-07
-2.73018e-07
2.04671e-07
-4.72686e-07
2.51477e-07
-6.58483e-07
2.74957e-07
-7.95819e-07
2.90802e-07
-9.11591e-07
2.89706e-07
-1.01997e-06
2.76328e-07
-1.11939e-06
2.57918e-07
-1.21007e-06
2.36491e-07
-1.29245e-06
2.15139e-07
-1.36735e-06
1.94831e-07
-1.43571e-06
1.76429e-07
-1.49854e-06
1.60102e-07
-1.55669e-06
1.459e-07
-1.61083e-06
1.33704e-07
-1.66158e-06
1.23319e-07
-1.70946e-06
1.14522e-07
-1.75489e-06
1.07091e-07
-1.79824e-06
1.00817e-07
-1.83983e-06
9.55201e-08
-1.87992e-06
9.1044e-08
-1.91872e-06
8.72532e-08
-1.95639e-06
8.40367e-08
-1.99306e-06
8.12882e-08
-2.02882e-06
7.89117e-08
-2.06376e-06
7.68278e-08
-2.09796e-06
7.49698e-08
-2.13146e-06
7.32811e-08
-2.16429e-06
7.17145e-08
-2.19648e-06
7.0231e-08
-2.22803e-06
6.87974e-08
-2.25895e-06
6.7387e-08
-2.28922e-06
6.59774e-08
-2.31883e-06
6.45514e-08
-2.34777e-06
6.30949e-08
-2.376e-06
6.15979e-08
-2.4035e-06
6.00531e-08
-2.43025e-06
5.84559e-08
-2.45621e-06
5.6804e-08
-2.48135e-06
5.50968e-08
-2.50566e-06
5.33353e-08
-2.5291e-06
5.15215e-08
-2.55165e-06
4.96581e-08
-2.57328e-06
4.77483e-08
-2.59398e-06
4.57954e-08
-2.61373e-06
4.38024e-08
-2.6325e-06
4.17725e-08
-2.65028e-06
3.9708e-08
-2.66705e-06
3.76112e-08
-2.6828e-06
3.54837e-08
-2.69751e-06
3.33272e-08
-2.71117e-06
3.11425e-08
-2.72376e-06
2.89308e-08
-2.73528e-06
2.66926e-08
-2.74571e-06
2.44288e-08
-2.75503e-06
2.21401e-08
-2.76324e-06
1.98274e-08
-2.77033e-06
1.74913e-08
-2.77629e-06
1.51327e-08
-2.78111e-06
1.27523e-08
-2.78479e-06
1.03506e-08
-2.78731e-06
7.92855e-09
-2.78869e-06
5.4879e-09
-2.78893e-06
3.03097e-09
-2.78806e-06
6.00308e-10
-2.78615e-06
-1.9286e-09
-2.78295e-06
-4.40581e-09
-2.77851e-06
-6.88927e-09
-2.77284e-06
-9.39698e-09
-2.76593e-06
-1.19145e-08
-2.75776e-06
-1.44435e-08
-2.74834e-06
-1.69765e-08
-2.73765e-06
-1.95128e-08
-2.7257e-06
-2.20481e-08
-2.7125e-06
-2.458e-08
-2.69804e-06
-2.71051e-08
-2.68232e-06
-2.96204e-08
-2.66537e-06
-3.21224e-08
-2.64718e-06
-3.4608e-08
-2.62776e-06
-3.70736e-08
-2.60712e-06
-3.95158e-08
-2.58528e-06
-4.19312e-08
-2.56226e-06
-4.43163e-08
-2.53806e-06
-4.66678e-08
-2.51272e-06
-4.89822e-08
-2.48624e-06
-5.12563e-08
-2.45865e-06
-5.34866e-08
-2.42998e-06
-5.56697e-08
-2.40024e-06
-5.7802e-08
-2.36947e-06
-5.98799e-08
-2.3377e-06
-6.18998e-08
-2.30495e-06
-6.38574e-08
-2.27126e-06
-6.5748e-08
-2.23665e-06
-6.75665e-08
-2.20113e-06
-6.93116e-08
-2.16472e-06
-7.09831e-08
-2.12741e-06
-7.25962e-08
-2.08933e-06
-7.42021e-08
-2.05054e-06
-7.57484e-08
-2.01101e-06
-7.71957e-08
-1.9708e-06
-7.8575e-08
-1.92993e-06
-7.98786e-08
-1.88844e-06
-8.11129e-08
-1.84637e-06
-8.2282e-08
-1.80374e-06
-8.33939e-08
-1.76058e-06
-8.4448e-08
-1.71692e-06
-8.54462e-08
-1.67279e-06
-8.63943e-08
-1.62821e-06
-8.7298e-08
-1.58319e-06
-8.81627e-08
-1.53776e-06
-8.89948e-08
-1.49192e-06
-8.98013e-08
-1.4457e-06
-9.05898e-08
-1.39908e-06
-9.13682e-08
-1.35208e-06
-9.21452e-08
-1.30469e-06
-9.29297e-08
-1.2569e-06
-9.37322e-08
-1.2087e-06
-9.45623e-08
-1.16006e-06
-9.54298e-08
-1.11098e-06
-9.63455e-08
-1.06141e-06
-9.73201e-08
-1.01133e-06
-9.83644e-08
-9.60689e-07
-9.94884e-08
-9.09448e-07
-1.00702e-07
-8.57559e-07
-1.02013e-07
-8.04967e-07
-1.03431e-07
-7.51617e-07
-1.04963e-07
-6.97447e-07
-1.06618e-07
-6.42394e-07
-1.08399e-07
-5.86392e-07
-1.10313e-07
-5.29376e-07
-1.12359e-07
-4.7128e-07
-1.14538e-07
-4.12039e-07
-1.16844e-07
-3.51594e-07
-1.1927e-07
-2.89892e-07
-1.218e-07
-2.26893e-07
-1.24412e-07
-1.62571e-07
-1.27071e-07
-9.69244e-08
-1.29725e-07
-2.99952e-08
-1.32288e-07
3.81307e-08
-1.34672e-07
1.07262e-07
-1.36501e-07
1.77025e-07
-1.38055e-07
2.47116e-07
-1.36869e-07
3.15712e-07
-1.36522e-07
3.82199e-07
-1.25719e-07
-9.71795e-08
4.41331e-07
3.7582e-08
3.67984e-08
6.52608e-08
7.90318e-08
8.26436e-08
7.30336e-08
1.01223e-07
4.07683e-08
1.34194e-07
-7.17467e-09
1.8953e-07
-6.56167e-08
2.61599e-07
-1.24262e-07
3.40623e-07
-1.7227e-07
4.1684e-07
-2.0202e-07
4.83224e-07
-2.11608e-07
5.36175e-07
-2.03228e-07
5.74905e-07
-1.81133e-07
6.00322e-07
-1.49717e-07
6.14088e-07
-1.12736e-07
6.17952e-07
-7.30183e-08
6.13236e-07
-3.23577e-08
6.0065e-07
7.97867e-09
5.8136e-07
4.77111e-08
5.56201e-07
8.5243e-08
5.26e-07
1.19683e-07
4.9135e-07
1.4959e-07
4.52101e-07
1.72858e-07
4.06348e-07
1.8606e-07
3.547e-07
1.85845e-07
2.99126e-07
1.68162e-07
2.43255e-07
1.28073e-07
1.93395e-07
6.64748e-08
1.58503e-07
-1.43946e-08
1.2957e-07
-8.71045e-08
8.27889e-08
-9.45161e-08
1.12398e-09
-3.64595e-08
-1.17272e-07
5.80564e-08
-2.67038e-07
1.62256e-07
-4.38814e-07
2.46891e-07
-6.08633e-07
3.04838e-07
-7.47899e-07
3.43937e-07
-8.6019e-07
3.63768e-07
-9.54308e-07
3.69075e-07
-1.02874e-06
3.65231e-07
-1.0904e-06
3.51372e-07
-1.14584e-06
3.31762e-07
-1.19728e-06
3.09366e-07
-1.24667e-06
2.85878e-07
-1.29455e-06
2.63022e-07
-1.34126e-06
2.41535e-07
-1.3868e-06
2.21973e-07
-1.43119e-06
2.04487e-07
-1.47438e-06
1.89096e-07
-1.51636e-06
1.75686e-07
-1.55714e-06
1.64096e-07
-1.59675e-06
1.54129e-07
-1.63524e-06
1.45583e-07
-1.6727e-06
1.38273e-07
-1.7092e-06
1.32025e-07
-1.74484e-06
1.2668e-07
-1.77968e-06
1.22093e-07
-1.81378e-06
1.18142e-07
-1.84721e-06
1.14714e-07
-1.88e-06
1.11707e-07
-1.91221e-06
1.09033e-07
-1.94385e-06
1.06615e-07
-1.97496e-06
1.04389e-07
-2.00554e-06
1.02297e-07
-2.0356e-06
1.0029e-07
-2.06513e-06
9.83292e-08
-2.09413e-06
9.6379e-08
-2.12256e-06
9.44117e-08
-2.15041e-06
9.24049e-08
-2.17766e-06
9.0341e-08
-2.20427e-06
8.82072e-08
-2.23021e-06
8.59945e-08
-2.25545e-06
8.36977e-08
-2.27996e-06
8.13144e-08
-2.30371e-06
7.8845e-08
-2.32667e-06
7.62915e-08
-2.3488e-06
7.36577e-08
-2.37009e-06
7.09481e-08
-2.39051e-06
6.81677e-08
-2.41004e-06
6.53218e-08
-2.42865e-06
6.24152e-08
-2.44633e-06
5.94524e-08
-2.46306e-06
5.64373e-08
-2.47882e-06
5.33731e-08
-2.4936e-06
5.02624e-08
-2.50738e-06
4.71072e-08
-2.52015e-06
4.39092e-08
-2.53189e-06
4.06696e-08
-2.54259e-06
3.73897e-08
-2.55223e-06
3.40707e-08
-2.5608e-06
3.07141e-08
-2.56829e-06
2.73212e-08
-2.5747e-06
2.38937e-08
-2.58e-06
2.04333e-08
-2.58419e-06
1.69412e-08
-2.58726e-06
1.34189e-08
-2.58919e-06
9.86775e-09
-2.59e-06
6.28941e-09
-2.58965e-06
2.68758e-09
-2.58812e-06
-9.35741e-10
-2.58545e-06
-4.59011e-09
-2.5816e-06
-8.26472e-09
-2.57652e-06
-1.19616e-08
-2.57024e-06
-1.568e-08
-2.56274e-06
-1.94155e-08
-2.55402e-06
-2.31654e-08
-2.54407e-06
-2.6924e-08
-2.5329e-06
-3.06877e-08
-2.52049e-06
-3.44515e-08
-2.50686e-06
-3.82112e-08
-2.492e-06
-4.19618e-08
-2.47593e-06
-4.56989e-08
-2.45863e-06
-4.94173e-08
-2.44013e-06
-5.31122e-08
-2.42042e-06
-5.67784e-08
-2.39953e-06
-6.04107e-08
-2.37745e-06
-6.4004e-08
-2.35422e-06
-6.75531e-08
-2.32983e-06
-7.1053e-08
-2.30432e-06
-7.44987e-08
-2.27769e-06
-7.7885e-08
-2.24997e-06
-8.1207e-08
-2.22118e-06
-8.44595e-08
-2.19134e-06
-8.76373e-08
-2.16049e-06
-9.07352e-08
-2.12864e-06
-9.37481e-08
-2.09582e-06
-9.6671e-08
-2.06207e-06
-9.94993e-08
-2.02741e-06
-1.02229e-07
-1.99186e-06
-1.0486e-07
-1.95545e-06
-1.07393e-07
-1.91821e-06
-1.09838e-07
-1.8802e-06
-1.12211e-07
-1.84146e-06
-1.14485e-07
-1.80201e-06
-1.16647e-07
-1.76188e-06
-1.18705e-07
-1.7211e-06
-1.20658e-07
-1.67971e-06
-1.22508e-07
-1.63773e-06
-1.2426e-07
-1.5952e-06
-1.25923e-07
-1.55215e-06
-1.27499e-07
-1.5086e-06
-1.28993e-07
-1.46459e-06
-1.30412e-07
-1.42012e-06
-1.31763e-07
-1.37523e-06
-1.33055e-07
-1.32993e-06
-1.34297e-07
-1.28423e-06
-1.35499e-07
-1.23815e-06
-1.36673e-07
-1.19168e-06
-1.37831e-07
-1.14484e-06
-1.38985e-07
-1.09762e-06
-1.40149e-07
-1.05002e-06
-1.41337e-07
-1.00202e-06
-1.42565e-07
-9.53599e-07
-1.43847e-07
-9.04745e-07
-1.452e-07
-8.55427e-07
-1.46638e-07
-8.05613e-07
-1.48179e-07
-7.55264e-07
-1.49837e-07
-7.0434e-07
-1.51626e-07
-6.52791e-07
-1.53561e-07
-6.00569e-07
-1.55653e-07
-5.47616e-07
-1.57916e-07
-4.93875e-07
-1.60359e-07
-4.39284e-07
-1.6299e-07
-3.83779e-07
-1.65818e-07
-3.27296e-07
-1.68843e-07
-2.69768e-07
-1.72065e-07
-2.11134e-07
-1.75478e-07
-1.51335e-07
-1.79069e-07
-9.03175e-08
-1.82818e-07
-2.80392e-08
-1.8669e-07
3.5528e-08
-1.90638e-07
1.00391e-07
-1.94588e-07
1.66525e-07
-1.98422e-07
2.33855e-07
-2.02001e-07
3.02274e-07
-2.0492e-07
3.71421e-07
-2.07201e-07
4.41338e-07
-2.06786e-07
5.10428e-07
-2.05612e-07
5.79566e-07
-1.94857e-07
-1.66121e-07
6.48508e-07
1.61478e-08
2.06507e-08
4.23703e-08
5.28093e-08
7.80938e-08
3.73102e-08
1.41562e-07
-2.26999e-08
2.35039e-07
-1.00652e-07
3.43467e-07
-1.74044e-07
4.47128e-07
-2.27923e-07
5.31542e-07
-2.56684e-07
5.90808e-07
-2.61286e-07
6.25768e-07
-2.46568e-07
6.41209e-07
-2.1867e-07
6.42976e-07
-1.829e-07
6.36149e-07
-1.42891e-07
6.24213e-07
-1.008e-07
6.09041e-07
-5.78468e-08
5.91429e-07
-1.47455e-08
5.71426e-07
2.79812e-08
5.49397e-07
6.97402e-08
5.24906e-07
1.09735e-07
4.97684e-07
1.46904e-07
4.67412e-07
1.79862e-07
4.33596e-07
2.06674e-07
3.95182e-07
2.24474e-07
3.51257e-07
2.29769e-07
3.01387e-07
2.18032e-07
2.45496e-07
1.83964e-07
1.87893e-07
1.24078e-07
1.26078e-07
4.74204e-08
2.87389e-08
1.02343e-08
-1.12384e-07
4.66067e-08
-2.86447e-07
1.37604e-07
-4.67133e-07
2.38742e-07
-6.23789e-07
3.18912e-07
-7.49797e-07
3.72899e-07
-8.49651e-07
4.04692e-07
-9.25649e-07
4.19934e-07
-9.83704e-07
4.21824e-07
-1.0295e-06
4.14868e-07
-1.06638e-06
4.02118e-07
-1.09905e-06
3.84036e-07
-1.13029e-06
3.63001e-07
-1.16152e-06
3.40595e-07
-1.19363e-06
3.17994e-07
-1.22676e-06
2.96145e-07
-1.2608e-06
2.75579e-07
-1.29548e-06
2.56658e-07
-1.33052e-06
2.39524e-07
-1.36564e-06
2.24214e-07
-1.40062e-06
2.10667e-07
-1.4353e-06
1.98774e-07
-1.46956e-06
1.88393e-07
-1.50335e-06
1.79374e-07
-1.53664e-06
1.71562e-07
-1.56942e-06
1.64804e-07
-1.6017e-06
1.58956e-07
-1.63349e-06
1.53882e-07
-1.6648e-06
1.4946e-07
-1.69567e-06
1.45577e-07
-1.72609e-06
1.42132e-07
-1.75609e-06
1.39033e-07
-1.78568e-06
1.36199e-07
-1.81484e-06
1.33557e-07
-1.84359e-06
1.31045e-07
-1.87191e-06
1.28609e-07
-1.89978e-06
1.26201e-07
-1.92719e-06
1.23783e-07
-1.95409e-06
1.21321e-07
-1.98048e-06
1.1879e-07
-2.00631e-06
1.16169e-07
-2.03154e-06
1.13444e-07
-2.05615e-06
1.10605e-07
-2.0801e-06
1.07646e-07
-2.10336e-06
1.04567e-07
-2.12588e-06
1.01369e-07
-2.14764e-06
9.80549e-08
-2.16862e-06
9.46319e-08
-2.18877e-06
9.11065e-08
-2.20809e-06
8.74859e-08
-2.22655e-06
8.37776e-08
-2.24412e-06
7.99884e-08
-2.26079e-06
7.61245e-08
-2.27655e-06
7.21909e-08
-2.29137e-06
6.81919e-08
-2.30523e-06
6.41309e-08
-2.31814e-06
6.00102e-08
-2.33006e-06
5.5832e-08
-2.34099e-06
5.15976e-08
-2.35091e-06
4.73086e-08
-2.3598e-06
4.29662e-08
-2.36766e-06
3.85726e-08
-2.37447e-06
3.41297e-08
-2.38022e-06
2.96398e-08
-2.38489e-06
2.51054e-08
-2.38848e-06
2.05283e-08
-2.39097e-06
1.59104e-08
-2.39235e-06
1.12531e-08
-2.39262e-06
6.55805e-09
-2.39176e-06
1.8276e-09
-2.38976e-06
-2.93768e-09
-2.38661e-06
-7.73876e-09
-2.3823e-06
-1.25714e-08
-2.37683e-06
-1.74367e-08
-2.37018e-06
-2.23303e-08
-2.36235e-06
-2.72472e-08
-2.35333e-06
-3.21832e-08
-2.34312e-06
-3.71322e-08
-2.33172e-06
-4.20888e-08
-2.31912e-06
-4.70469e-08
-2.30533e-06
-5.20008e-08