/*--------------------------------*- C++ -*----------------------------------*\
| =========                 |                                                 |
| \\      /  F ield         | OpenFOAM: The Open Source CFD Toolbox           |
|  \\    /   O peration     | Version:  2112                                  |
|   \\  /    A nd           | Website:  www.openfoam.com                      |
|    \\/     M anipulation  |                                                 |
\*---------------------------------------------------------------------------*/
FoamFile
{
    version     2.0;
    format      ascii;
    arch        "LSB;label=32;scalar=64";
    class       volScalarField;
    location    "0.24";
    object      omega_0;
}
// * * * * * * * * * * * * * * * * * * * * * * * * * * * * * * * * * * * * * //

dimensions      [0 0 -1 0 0 0 0];

internalField   nonuniform List<scalar> 
12885
(
32921.1
68213
81837.9
86503.8
87498.1
87236.5
86538.8
85673.3
84905.4
84119.9
83059.2
81665.5
80214.4
78923.1
77856.4
77028.6
76372.6
75657.4
74684.6
73547
72430.2
71389.5
70444.4
69639.9
68989
68455.5
67951
67410.8
66828
66225.8
65619.7
65029.9
64440.5
63892.7
63323.8
62864.9
62291.2
61972.5
61608.4
60492.7
2081.17
7078.77
10463.9
13767.7
18073.6
21686.3
23996.9
25202.9
25914.1
26572.6
27654.6
29922.7
31980.8
33322.7
33989
34255.1
34450.3
34745.1
35422.4
36477.3
37390
37853.6
37853.7
37700.8
37311.6
36909.5
36621.1
36376.9
36120.2
35757.2
35255.6
34590.5
33808.7
32968.9
32157.1
31407.9
30845.9
30319
30342.5
30618.6
271.659
825.512
1299
1779.3
2300.78
3300.22
4171.96
4742.79
5180.64
5546.61
5975.52
6874.3
8231.39
9476.98
10345.2
11019.5
11509.4
11917.7
12429.7
13216
14275.7
15423.7
16487.4
17362
18005
18438.6
18774.1
19063.2
19381.6
19710.4
20075.7
20416.4
20750.2
21010.4
21236.1
21368.9
21483.7
21516.9
21555.3
21671.2
88.1761
222.06
341.597
459.002
584.93
785.787
978.962
1139.77
1277.83
1372.48
1461.55
1631.68
1864.27
2117.27
2349.01
2526.58
2710.93
2868.05
3008.53
3258.69
3552.83
3984.18
4428.68
4944.87
5363.55
5784.5
6086.56
6400.31
6638.26
6934.68
7185.98
7526.72
7825.5
8245.5
8610.56
9102.92
9499.39
10022.5
10398.2
10910.7
51.2688
103.907
149.291
194.204
242.66
303.146
364.03
421.799
473.86
511.026
543.488
591.638
651
719.635
789.589
847.754
909.01
969.72
1015.76
1078.89
1134.74
1217.57
1297.66
1401.74
1493.71
1596.58
1677.11
1769.12
1832.05
1920.05
1981.45
2099.09
2187.33
2338.5
2448.92
2632.5
2764.27
2983.06
3134
3381.95
42.923
64.8241
88.231
110.46
134.063
160.255
186.982
213.483
237.912
257.107
273.939
294.086
317.064
343.29
370.605
395.868
421.191
447.097
468.261
489.421
507.471
529.854
552.271
579.481
606.53
635.803
662.199
690.55
713.476
740.7
762.315
793.254
819.27
854.898
883.146
923.983
953.941
1001.87
1032.06
1088.33
40.7094
49.2994
63.2579
75.7185
88.8928
102.821
117.049
131.28
144.592
155.892
166.053
176.841
188.473
201.206
214.426
227.338
240.121
252.899
264.369
274.954
284.3
293.943
303.62
314.197
325.132
336.541
347.685
359.011
369.549
380.321
390.237
400.715
410.661
421.541
431.81
443.505
454.104
467.085
477.304
492.715
40.0278
43.3787
50.99
58.7959
66.7739
75.0712
83.5398
92.0044
100.026
107.21
113.835
120.489
127.376
134.625
142.07
149.48
156.811
164.019
170.766
177.008
182.709
188.208
193.61
199.127
204.748
210.466
216.169
221.865
227.423
232.927
238.279
243.595
248.793
254.015
259.171
264.442
269.607
275.047
280.18
286.598
39.7874
41.1598
44.7736
49.8459
54.8589
60.0925
65.4569
70.8281
75.9903
80.7982
85.3364
89.7837
94.2542
98.8279
103.468
108.102
112.687
117.174
121.455
125.479
129.238
132.814
136.274
139.69
143.091
146.488
149.868
153.224
156.541
159.833
163.094
166.333
169.522
172.759
176.085
179.464
182.833
186.161
189.3
192.775
39.6921
40.2798
41.8789
44.8854
48.1211
51.4834
54.9828
58.5213
61.9829
65.3164
68.5488
71.6716
74.7248
77.803
80.8942
83.9779
87.0337
90.0331
92.9316
95.6971
98.3188
100.815
103.212
105.541
107.825
110.079
112.311
114.522
116.736
118.999
121.3
123.623
125.934
128.184
130.367
132.502
134.592
136.609
138.469
140.437
39.6511
39.9163
40.6377
42.1726
44.1989
46.3914
48.6962
51.0711
53.453
55.7979
58.101
60.3722
62.5934
64.7644
66.9139
69.0551
71.1923
73.314
75.3938
77.404
79.3271
81.1603
82.9133
84.6032
86.2495
87.87
89.4782
91.0778
92.6594
94.2195
95.7685
97.3087
98.8361
100.289
101.632
102.884
104.063
105.181
106.237
107.361
39.6313
39.7567
40.0949
40.8337
41.9756
43.3391
44.8236
46.3852
47.9792
49.5672
51.1489
52.7702
54.4125
56.0196
57.5975
59.1518
60.6861
62.1996
63.686
65.1356
66.54
67.8949
69.2008
70.4623
71.6865
72.8813
74.0542
75.209
76.3278
77.3825
78.3768
79.3198
80.2199
81.0766
81.8875
82.6538
83.3793
84.0694
84.7295
85.4296
39.6197
39.6708
39.8142
40.1327
40.6825
41.3936
42.218
43.1157
44.049
44.9954
45.9691
46.9994
48.0846
49.1963
50.3064
51.3917
52.4392
53.4473
54.4223
55.3732
56.3076
57.2293
58.1377
59.0285
59.8959
60.7342
61.5395
62.3093
63.0399
63.7261
64.3665
64.9631
65.5206
66.045
66.5422
67.016
67.4694
67.9049
68.3267
68.77
39.6134
39.6263
39.6716
39.7795
39.9905
40.2871
40.6445
41.047
41.4831
41.9461
42.4406
42.9763
43.5553
44.1683
44.7968
45.4211
46.0269
46.6089
47.1693
47.7153
48.2542
48.7914
49.3282
49.8624
50.3889
50.9016
51.3945
51.8634
52.3061
52.7223
53.1125
53.478
53.8206
54.1429
54.4477
54.7377
55.015
55.2817
55.541
55.8081
39.6092
39.6079
39.6147
39.6384
39.692
39.784
39.9038
40.0421
40.1973
40.3705
40.5628
40.7755
41.0088
41.26
41.5235
41.7926
42.0613
42.3262
42.5862
42.8421
43.0957
43.3486
43.6014
43.854
44.1051
44.3528
44.5948
44.8294
45.055
45.271
45.4769
45.673
45.8596
46.0372
46.2066
46.3687
46.5241
46.6737
46.8191
46.9658
39.6083
39.5998
39.5942
39.5946
39.6
39.6143
39.6407
39.6752
39.7158
39.7629
39.8172
39.8785
39.9468
40.0214
40.1011
40.1848
40.2711
40.3589
40.4478
40.5372
40.6272
40.7177
40.8086
40.8998
40.9912
41.0823
41.1727
41.2621
41.3501
41.4362
41.5202
41.602
41.6813
41.7583
41.8329
41.9052
41.9752
42.0431
42.1095
42.1758
39.6079
39.5977
39.5888
39.5817
39.5768
39.5748
39.5757
39.5791
39.5857
39.5948
39.6063
39.6201
39.6362
39.6544
39.6745
39.6963
39.7195
39.744
39.7695
39.796
39.8232
39.8512
39.8797
39.9088
39.9383
39.9681
39.9982
40.0283
40.0585
40.0886
40.1185
40.1481
40.1774
40.2063
40.2348
40.2628
40.2903
40.3175
40.3444
40.3718
39.6078
39.5974
39.5882
39.5807
39.5752
39.5724
39.5729
39.5756
39.5816
39.5908
39.6021
39.6157
39.6315
39.6492
39.6688
39.6901
39.7129
39.7371
39.7625
39.789
39.8164
39.8447
39.8737
39.9034
39.9336
39.9643
39.9954
40.0268
40.0584
40.0901
40.122
40.1538
40.1856
40.2172
40.2487
40.28
40.3111
40.3419
40.3722
40.4018
39.608
39.5995
39.5948
39.5963
39.604
39.6225
39.6555
39.7016
39.7599
39.8266
39.8998
39.9799
40.0665
40.159
40.2571
40.36
40.467
40.5773
40.6902
40.805
40.9214
41.0393
41.1586
41.2791
41.4005
41.5227
41.6451
41.7674
41.8893
42.0104
42.1305
42.2493
42.3668
42.4828
42.5974
42.7105
42.8221
42.9321
43.0402
43.1462
39.6089
39.609
39.6181
39.6461
39.7045
39.7978
39.9249
40.0838
40.2682
40.4681
40.6813
40.9077
41.1463
41.3963
41.6569
41.926
42.2006
42.4781
42.7564
43.0347
43.3129
43.5915
43.8705
44.1495
44.4281
44.7053
44.98
45.2512
45.5182
45.7803
46.0372
46.2888
46.535
46.776
47.012
47.243
47.4692
47.6905
47.9068
48.1174
39.6148
39.6377
39.7049
39.8472
40.0765
40.3864
40.7691
41.2117
41.6964
42.2094
42.7464
43.3019
43.8699
44.4524
45.0488
45.654
46.2607
46.8621
47.4544
48.0373
48.6116
49.1772
49.7333
50.2791
50.8139
51.3372
51.8486
52.3479
52.835
53.3096
53.7718
54.2214
54.6584
55.0829
55.4947
55.8938
56.2803
56.6542
57.0152
57.3629
39.6309
39.7498
40.0334
40.5368
41.2148
42.0433
42.9921
44.0257
45.1101
46.2249
47.3523
48.4784
49.603
50.734
51.8688
52.9994
54.1169
55.2139
56.2862
57.3314
58.3466
59.3296
60.2809
61.2024
62.0973
62.9684
63.8181
64.6477
65.4579
66.2485
67.0187
67.7675
68.4939
69.1968
69.8754
70.5294
71.1587
71.7631
72.3425
72.8953
39.6881
40.1459
41.1347
42.5475
44.23
46.1277
48.1863
50.3372
52.518
54.6756
56.7703
58.8006
60.8029
62.7972
64.7864
66.7612
68.7091
70.6178
72.4746
74.2655
75.9813
77.6239
79.2034
80.7334
82.2273
83.6946
85.1396
86.563
87.9628
89.3354
90.6769
91.9832
93.251
94.4775
95.6615
96.8026
97.901
98.9575
99.9719
100.937
39.8748
41.4501
44.3821
47.8235
51.5354
55.5105
59.7072
63.9887
68.2488
72.382
76.2649
79.8947
83.4322
87.028
90.7128
94.4324
98.1168
101.705
105.152
108.423
111.5
114.402
117.175
119.87
122.539
125.212
127.891
130.568
133.226
135.848
138.418
140.921
143.346
145.687
147.944
150.119
152.218
154.241
156.197
158.038
40.4783
45.6824
53.3094
61.1852
69.0412
77.306
86.0692
94.8982
103.608
112.008
119.597
126.283
132.862
140.045
147.853
155.904
163.861
171.495
178.697
185.367
191.449
197.052
202.413
207.683
213.124
218.817
224.689
230.671
236.667
242.557
248.323
253.901
259.276
264.44
269.458
274.344
279.168
283.864
288.576
292.931
42.7223
59.2744
79.1325
97.7223
115.22
134.139
155.012
175.775
196.056
215.665
232.493
245.765
259.668
277.745
299.322
321.72
343.232
362.964
380.983
397.076
411.041
423.644
436.422
449.191
463.832
480.18
497.581
516.315
535.071
552.434
569.313
585.108
600.448
615.181
630.475
645.79
662.244
678.286
695.775
711.633
53.5127
110.329
171.015
223.006
270.012
325.538
390.784
455.099
515.912
572.53
618.833
652.7
695.532
767.059
858.331
949.334
1029.67
1096.38
1153.81
1201.92
1241.7
1280.1
1328.8
1379.75
1446.33
1522.74
1602.57
1688.42
1771.03
1837.65
1901.51
1956.03
2011.81
2066.39
2132.84
2204.22
2290.39
2377.85
2478.08
2573.06
122.193
391.258
676.536
892.308
1084.12
1346.14
1664.21
1973.71
2239.07
2442.77
2600.99
2764.92
2991.04
3437.76
4010.91
4540.7
4933.64
5202.68
5410.96
5572.57
5716.91
5933.51
6265.88
6686.29
7166.1
7671.9
8158.38
8544.83
8836.59
9057.13
9233.27
9369.67
9516.88
9682.56
9894.81
10135.2
10416.2
10700.5
11006.5
11295.7
789.553
3676.87
6316.31
7955.11
9346.9
11465
13800.9
15591.8
16689.4
17281.5
17651.7
18031.1
18781.8
20018.8
21219.6
22130.7
22691
22961.9
23101.3
23254.1
23466.4
23902.4
24646.6
25392.2
26026.5
26516.4
26861.9
27067.5
27147.4
27162.5
27172.9
27222.2
27324
27541.5
27794.8
28053.3
28282.7
28459.6
28602.7
28695.1
18132.6
43982.7
57222.4
63282.8
65914
66913.5
66916.4
66754.3
66399.3
66036.2
65740.8
65433.9
64963.1
64292.3
63565.1
62896.8
62323.6
61859.8
61529.1
61305.6
61046.2
60599
59985.3
59327.1
58710.9
58165.3
57680
57245.8
56894.6
56671.7
56553.1
56444.7
56265.7
55994.6
55651.5
55275.3
54895.7
54533.9
54197.6
53884.8
100.396
100.434
100.516
100.647
100.835
101.087
101.41
101.81
102.294
102.866
103.554
104.39
105.377
106.519
107.822
109.293
110.94
112.77
114.792
117.017
119.462
122.145
125.099
128.364
131.994
136.06
140.647
145.834
151.64
158.309
166.214
175.593
186.775
200.179
216.325
235.832
259.378
288.197
324.385
369.923
426.775
497.778
586.64
698.102
838.05
1029.23
1288.39
1604.67
1981.43
2419.29
2915.52
3464.61
4058.97
4689.8
5348.08
6025.16
6713.24
7405.57
8096.51
8781.44
9456.67
10119.3
10766.9
11397.7
12010.4
12603.8
13177.2
13729.9
14261.5
14771.8
15260.6
15727.8
16173.6
16598
17001.2
17383.4
17744.8
18085.5
18405.9
18706.2
18986.4
19246.9
19487.8
19709.3
19911.6
20094.7
20259
20404.6
20531.5
20639.9
20730
20802
20856.9
20889.9
20905
20905.5
20884.9
20847.4
20791.8
20718.9
20628.5
20520.9
20396.2
20254.6
20096.1
19921.1
19729.7
19521.9
19297.9
19057.9
18802
18530.1
18242.4
17938.9
17619.5
17284.2
16932.7
16564.9
16180.1
15778.1
15358.6
14919.9
14461.7
13982.5
13480.8
12954.9
12402.5
11821.8
11211.8
10568.8
9892.52
9181.94
8438.07
7664.01
6866.1
6054.86
5245.75
4458.98
3717.94
3045.85
2461.23
1974.01
1584.05
1282.79
1056.78
891.449
773.552
692.539
640.682
613.551
603.704
608.086
627.761
664.049
716.172
784.63
870.229
973.933
1096.6
1238.88
1401.03
1582.9
1783.89
2002.98
2238.84
2489.87
2754.4
3030.65
3317.08
3611.75
3913.97
4220.17
4533.59
4841.27
5165.59
5447.69
5799.32
5974.91
6386.21
6288.12
100.48
100.513
100.588
100.711
100.888
101.126
101.432
101.813
102.278
102.835
103.501
104.294
105.226
106.304
107.538
108.937
110.513
112.275
114.238
116.417
118.832
121.507
124.475
127.778
131.469
135.614
140.292
145.583
151.557
158.416
166.47
175.983
187.278
200.755
216.904
236.31
259.665
288.07
323.149
366.508
419.775
485.092
565.123
663.075
782.661
940.729
1146.33
1385.97
1658.06
1959.15
2284.09
2626.9
2981.42
3341.95
3703.56
4062.28
4415.12
4759.89
5095.08
5419.68
5733.06
6034.88
6324.96
6603.26
6869.82
7124.74
7368.19
7600.33
7821.39
8031.58
8231.12
8420.25
8599.21
8768.24
8927.55
9077.36
9217.89
9349.31
9471.81
9585.55
9690.69
9787.37
9875.72
9955.89
10028
10092.2
10148.5
10197.2
10238.2
10271.8
10297.9
10316.7
10328.4
10331.4
10328.8
10321
10305.3
10282.8
10253.8
10218.1
10176.1
10127.7
10073.2
10012.6
9946.04
9873.65
9795.55
9711.83
9622.58
9527.89
9427.83
9322.46
9211.83
9095.96
8974.83
8848.41
8716.62
8579.3
8436.33
8287.23
8131.62
7969.31
7799.31
7621
7433.2
7234.66
7023.75
6798.7
6556.94
6296.48
6014.27
5707.59
5373.79
5011.03
4618.98
4199.83
3759.38
3307.73
2859.19
2430.59
2038.39
1695.21
1407.54
1175.55
994.588
857.565
756.879
685.838
639.163
613.601
603.903
607.659
625.005
656.748
702.103
761.172
834.235
921.599
1023.41
1139.53
1269.48
1412.38
1566.96
1731.67
1904.75
2084.31
2268.53
2455.66
2644.22
2832.67
3020.39
3205.24
3389.15
3564.98
3745.73
3899.41
4087.95
4183.1
4395.31
4407.04
100.686
100.71
100.776
100.888
101.052
101.275
101.564
101.926
102.371
102.908
103.551
104.313
105.206
106.242
107.432
108.787
110.321
112.046
113.978
116.137
118.545
121.228
124.222
127.569
131.324
135.553
140.334
145.754
151.915
159.003
167.278
177.01
188.517
202.186
218.486
237.978
261.35
289.595
324.069
366.163
417.279
479.131
553.718
643.277
750.16
887.672
1060.36
1253.79
1464.32
1687.34
1917.74
2150.66
2381.99
2608.54
2828.07
3039.21
3241.25
3433.92
3617.27
3791.53
3957.01
4114.06
4263.04
4404.29
4538.14
4664.9
4784.85
4898.28
5005.44
5106.56
5201.86
5291.56
5375.84
5454.89
5528.86
5597.92
5662.19
5721.8
5776.87
5827.49
5873.78
5915.82
5953.71
5987.54
6017.39
6043.35
6065.48
6083.87
6098.59
6109.7
6117.29
6121.29
6121.85
6118.91
6113.28
6105.13
6093.38
6078.69
6061.31
6040.9
6017.99
5992.33
5964.25
5933.68
5900.81
5865.65
5828.33
5788.89
5747.43
5703.99
5658.65
5611.45
5562.43
5511.64
5459.08
5404.76
5348.66
5290.71
5230.92
5168.91
5104.46
5037.75
4967.95
4894.87
4817.7
4735.76
4648.06
4553.08
4448.77
4333.8
4205.12
4060.04
3895.28
3707.64
3494.42
3254.19
2987.89
2699.86
2398.45
2095.6
1804.98
1539.26
1307.48
1113.87
958.224
837.344
746.664
681.606
638.255
613.962
604.437
607.586
623.313
652.24
693.559
747.129
812.912
890.836
980.627
1081.72
1193.2
1313.79
1441.92
1575.78
1713.46
1853.06
1992.8
2131.12
2266.78
2398.63
2526.27
2648.46
2766.6
2876.6
2986.76
3078.4
3188.79
3244.81
3365.22
3404.97
101.063
101.074
101.126
101.223
101.371
101.577
101.848
102.191
102.616
103.133
103.752
104.487
105.35
106.353
107.51
108.833
110.339
112.042
113.962
116.121
118.542
121.257
124.304
127.726
131.581
135.936
140.871
146.484
152.893
160.274
168.862
178.925
190.777
204.798
221.445
241.266
264.936
293.358
327.69
369.15
418.991
478.573
549.348
632.816
730.274
852.459
1000.7
1160.33
1326.86
1495.64
1662.38
1823.73
1977.41
2122.19
2257.57
2383.68
2501
2610.15
2711.83
2806.68
2895.33
2978.28
3056.02
3128.93
3197.36
3261.61
3321.95
3378.6
3431.78
3481.67
3528.43
3572.21
3613.14
3651.33
3686.89
3719.91
3750.48
3778.65
3804.51
3828.11
3849.51
3868.76
3885.93
3901.07
3914.23
3925.45
3934.78
3942.27
3947.96
3951.9
3954.1
3954.46
3953.43
3950.71
3946.77
3941.54
3934.67
3926.51
3917.15
3906.43
3894.67
3881.69
3867.72
3852.68
3836.72
3819.82
3802.06
3783.47
3764.1
3743.99
3723.18
3701.69
3679.57
3656.83
3633.49
3609.57
3585.08
3559.99
3534.35
3507.95
3480.69
3452.7
3423.5
3393.02
3360.81
3326.48
3289.41
3248.62
3202.81
3151.07
3091.14
3020.94
2937.72
2838.49
2720.19
2580.26
2417.42
2232.62
2029.91
1816.72
1602.99
1399.3
1214.71
1055.11
922.839
817.423
736.624
677.614
637.679
614.752
605.424
607.92
621.951
647.983
685.186
733.218
791.783
860.507
938.807
1025.82
1120.38
1221.03
1326.09
1433.75
1542.22
1649.79
1754.98
1856.54
1953.61
2045.49
2132.06
2212.73
2288.65
2357.64
2425.02
2480.18
2545.4
2579.44
2648.94
2698.33
101.676
101.667
101.701
101.779
101.909
102.095
102.347
102.671
103.077
103.574
104.174
104.888
105.73
106.713
107.851
109.16
110.658
112.362
114.294
116.478
118.944
121.725
124.861
128.402
132.406
136.945
142.104
147.989
154.729
162.498
171.519
182.058
194.43
209.014
226.263
246.719
271.044
300.075
334.828
376.371
425.753
484.063
552.426
631.6
721.753
831.665
960.092
1092.51
1224.35
1351.63
1471.41
1581.92
1682.51
1773.38
1855.21
1928.98
1995.71
2056.35
2111.77
2162.68
2209.68
2253.24
2293.75
2331.54
2366.87
2399.95
2430.96
2460.07
2487.38
2513.03
2537.11
2559.69
2580.85
2600.66
2619.15
2636.38
2652.39
2667.2
2680.84
2693.35
2704.75
2715.07
2724.34
2732.58
2739.82
2746.07
2751.36
2755.72
2759.16
2761.7
2763.35
2764.14
2764.17
2763.42
2762.04
2759.95
2757.07
2753.57
2749.46
2744.7
2739.43
2733.57
2727.24
2720.4
2713.12
2705.41
2697.3
2688.81
2679.97
2670.81
2661.34
2651.59
2641.57
2631.32
2620.85
2610.16
2599.28
2588.21
2576.96
2565.42
2553.6
2541.56
2529.02
2515.99
2502.2
2487.45
2471.35
2453.3
2432.55
2408.45
2379.49
2344.22
2300.58
2246.24
2178.58
2095.04
1993.63
1873.7
1736.7
1586.72
1430.35
1275.56
1130.13
1000.11
889.084
798.253
727.067
674.092
637.627
616.15
607.044
608.84
621.111
644.19
677.238
719.756
771.248
831.119
898.579
972.593
1051.88
1134.96
1220.22
1306
1390.75
1473.06
1551.79
1626.09
1695.41
1759.43
1818.24
1871.7
1920.75
1964.38
2005.99
2039.74
2078.85
2100.53
2141.6
2190.73
102.596
102.567
102.579
102.635
102.743
102.909
103.14
103.446
103.835
104.317
104.904
105.608
106.443
107.422
108.562
109.88
111.395
113.129
115.106
117.354
119.906
122.798
126.077
129.794
134.014
138.814
144.287
150.545
157.728
166.015
175.625
186.827
199.943
215.354
233.518
254.977
280.38
310.508
346.264
388.568
438.274
496.127
562.625
637.942
721.84
820.262
930.264
1038.07
1139.78
1232.74
1315.6
1388.19
1451.16
1505.64
1552.95
1594.35
1630.95
1663.67
1693.25
1720.27
1745.16
1768.27
1789.84
1810.07
1829.12
1847.1
1864.11
1880.22
1895.5
1910.01
1923.77
1936.83
1949.21
1960.94
1972.04
1982.5
1992.36
2001.61
2010.25
2018.31
2025.79
2032.7
2039.04
2044.83
2050.07
2054.77
2058.95
2062.61
2065.75
2068.4
2070.55
2072.22
2073.47
2074.28
2074.71
2074.72
2074.3
2073.53
2072.4
2070.91
2069.12
2067.01
2064.61
2061.94
2059.01
2055.83
2052.43
2048.81
2044.99
2041
2036.83
2032.52
2028.07
2023.5
2018.82
2014.04
2009.18
2004.25
1999.25
1994.13
1988.91
1983.62
1978.11
1972.4
1966.33
1959.77
1952.51
1944.17
1934.31
1922.46
1907.68
1888.94
1864.83
1833.63
1793.33
1741.81
1677.12
1598.01
1504.59
1398.84
1284.76
1167.94
1054.46
949.754
857.693
780.385
718.404
671.358
638.368
618.4
609.531
610.589
621.047
641.146
670.045
707.136
751.783
803.249
860.624
922.807
988.52
1056.36
1124.87
1192.64
1258.39
1321.06
1379.81
1434.11
1483.68
1528.46
1568.66
1604.39
1636.42
1664.38
1690.45
1711.57
1735.5
1750.03
1775.25
1819.12
103.95
103.887
103.869
103.896
103.977
104.119
104.33
104.619
104.996
105.472
106.057
106.765
107.61
108.608
109.776
111.133
112.701
114.505
116.571
118.932
121.625
124.69
128.18
132.152
136.676
141.838
147.739
154.501
162.276
171.248
181.646
193.744
207.874
224.428
243.869
266.737
293.662
325.361
362.608
406.133
456.505
514.031
578.608
649.595
725.642
811.888
902.77
986.707
1061.2
1125.27
1179.14
1223.85
1260.85
1291.65
1317.64
1339.96
1359.52
1377
1392.91
1407.61
1421.37
1434.36
1446.71
1458.52
1469.84
1480.73
1491.22
1501.34
1511.1
1520.52
1529.62
1538.39
1546.83
1554.96
1562.77
1570.25
1577.41
1584.25
1590.74
1596.91
1602.74
1608.25
1613.42
1618.26
1622.77
1626.96
1630.82
1634.36
1637.58
1640.48
1643.08
1645.38
1647.4
1649.14
1650.62
1651.83
1652.77
1653.47
1653.94
1654.17
1654.2
1654.01
1653.64
1653.07
1652.33
1651.43
1650.36
1649.15
1647.8
1646.32
1644.73
1643.03
1641.24
1639.36
1637.41
1635.39
1633.31
1631.19
1629.02
1626.78
1624.5
1622.16
1619.72
1617.16
1614.39
1611.35
1607.87
1603.75
1598.71
1592.41
1584.25
1573.54
1559.29
1540.31
1515.12
1482.1
1439.62
1386.39
1321.92
1246.96
1163.79
1076.08
988.291
904.868
829.442
764.452
711.133
669.824
640.248
621.819
613.193
613.479
622.097
639.219
664.02
695.834
733.942
777.532
825.655
877.222
931.036
985.839
1040.39
1093.52
1144.25
1191.8
1235.6
1275.35
1310.96
1342.5
1370.24
1394.42
1415.63
1433.86
1450.5
1464.06
1479.04
1489.23
1505.72
1542.08
105.916
105.776
105.707
105.691
105.736
105.851
106.042
106.319
106.693
107.173
107.773
108.506
109.387
110.434
111.665
113.101
114.768
116.693
118.907
121.445
124.35
127.67
131.46
135.788
140.731
146.383
152.857
160.288
168.838
178.707
190.132
203.401
218.856
236.898
257.989
282.655
311.476
345.065
384.005
428.735
479.41
535.769
597.017
661.753
727.974
799.855
870.55
931.632
982.359
1023.31
1055.79
1081.45
1101.87
1118.45
1132.29
1144.23
1154.87
1164.63
1173.78
1182.52
1190.96
1199.17
1207.2
1215.07
1222.8
1230.4
1237.87
1245.2
1252.41
1259.47
1266.39
1273.17
1279.78
1286.23
1292.51
1298.6
1304.51
1310.22
1315.72
1321.02
1326.1
1330.97
1335.63
1340.06
1344.28
1348.27
1352.05
1355.59
1358.92
1362.03
1364.92
1367.6
1370.08
1372.36
1374.44
1376.32
1378.02
1379.53
1380.87
1382.04
1383.04
1383.89
1384.59
1385.14
1385.56
1385.84
1386
1386.03
1385.95
1385.77
1385.49
1385.11
1384.65
1384.12
1383.51
1382.84
1382.11
1381.33
1380.49
1379.59
1378.65
1377.65
1376.56
1375.38
1374.04
1372.5
1370.66
1368.38
1365.49
1361.74
1356.74
1350.02
1340.9
1328.56
1311.96
1289.88
1261.09
1224.45
1179.31
1125.79
1065.07
999.453
932.035
866.224
805.134
751.166
705.855
669.976
643.71
626.812
618.425
617.908
624.685
638.854
659.667
686.412
718.353
754.661
794.408
836.577
880.094
923.884
966.918
1008.29
1047.24
1083.24
1115.91
1145.11
1170.85
1193.27
1212.65
1229.24
1243.52
1255.63
1266.45
1275.38
1285
1292.39
1303.92
1332.56
108.587
108.346
108.214
108.148
108.156
108.245
108.423
108.699
109.084
109.589
110.228
111.014
111.966
113.101
114.44
116.009
117.834
119.946
122.381
125.181
128.391
132.067
136.274
141.085
146.589
152.892
160.117
168.415
177.962
188.971
201.695
216.431
233.526
253.377
276.426
303.142
333.998
369.419
409.688
454.826
504.447
557.672
613.1
668.904
723.515
778.805
829.64
870.546
902.336
926.508
944.758
958.672
969.568
978.459
986.072
992.914
999.318
1005.49
1011.57
1017.61
1023.66
1029.73
1035.81
1041.91
1048.01
1054.11
1060.2
1066.26
1072.28
1078.26
1084.17
1090.02
1095.79
1101.46
1107.03
1112.49
1117.82
1123.02
1128.08
1133
1137.76
1142.37
1146.83
1151.12
1155.25
1159.21
1163
1166.62
1170.08
1173.36
1176.47
1179.42
1182.21
1184.84
1187.31
1189.62
1191.77
1193.78
1195.65
1197.37
1198.95
1200.41
1201.73
1202.92
1203.99
1204.95
1205.79
1206.52
1207.14
1207.66
1208.09
1208.43
1208.68
1208.85
1208.94
1208.95
1208.9
1208.78
1208.59
1208.33
1208
1207.6
1207.11
1206.51
1205.77
1204.85
1203.69
1202.2
1200.24
1197.67
1194.2
1189.52
1183.17
1174.57
1162.99
1147.58
1127.41
1101.59
1069.48
1030.92
986.466
937.472
886.003
834.548
785.603
741.313
703.285
672.433
649.302
633.893
625.725
624.382
629.344
640.613
657.598
679.53
705.724
735.382
767.64
801.585
836.292
870.872
904.497
936.469
966.242
993.435
1017.83
1039.35
1058.08
1074.16
1087.85
1099.39
1109.15
1117.32
1124.48
1130.49
1136.79
1142.25
1150.68
1172.56
112.016
111.683
111.497
111.392
111.376
111.455
111.638
111.935
112.358
112.918
113.631
114.512
115.581
116.857
118.366
120.133
122.191
124.575
127.325
130.488
134.119
138.279
143.042
148.492
154.729
161.87
170.054
179.443
190.229
202.635
216.923
233.39
252.369
274.222
299.318
328.004
360.551
397.079
437.46
481.204
527.387
574.662
621.376
666.259
708.162
746.476
780.02
805.171
823.636
837.062
846.946
854.486
860.572
865.823
870.653
875.322
879.987
884.729
889.588
894.574
899.684
904.906
910.223
915.62
921.081
926.59
932.132
937.694
943.26
948.819
954.356
959.859
965.316
970.714
976.041
981.287
986.441
991.494
996.44
1001.27
1005.98
1010.57
1015.04
1019.37
1023.56
1027.62
1031.53
1035.3
1038.93
1042.41
1045.75
1048.95
1052
1054.92
1057.69
1060.33
1062.83
1065.2
1067.44
1069.55
1071.53
1073.38
1075.11
1076.73
1078.22
1079.6
1080.86
1082.02
1083.07
1084.02
1084.86
1085.61
1086.26
1086.82
1087.3
1087.68
1087.98
1088.19
1088.32
1088.35
1088.3
1088.16
1087.91
1087.54
1087.02
1086.33
1085.41
1084.22
1082.65
1080.6
1077.89
1074.28
1069.47
1063.06
1054.54
1043.31
1028.71
1010.07
986.852
958.794
926.107
889.557
850.452
810.533
771.722
735.835
704.175
677.921
657.696
643.693
635.712
633.525
636.722
645.179
658.508
675.973
696.859
720.5
746.129
772.946
800.176
827.104
853.074
877.561
900.168
920.635
938.821
954.71
968.384
979.99
989.733
997.83
1004.56
1010.12
1014.9
1018.96
1023.14
1027.18
1033.45
1049.76
116.245
115.87
115.666
115.557
115.55
115.655
115.881
116.239
116.742
117.403
118.241
119.272
120.519
122.005
123.757
125.807
128.19
130.947
134.125
137.777
141.964
146.757
152.239
158.505
165.666
173.85
183.207
193.91
206.156
220.17
236.204
254.527
275.42
299.151
325.942
355.92
389.051
425.064
463.383
503.089
542.95
581.54
618.325
652.169
679.467
704.487
724.866
739.369
749.688
757.143
762.795
767.401
771.481
775.366
779.261
783.279
787.475
791.867
796.454
801.221
806.149
811.216
816.404
821.693
827.066
832.507
837.999
843.529
849.081
854.642
860.198
865.735
871.24
876.701
882.106
887.443
892.701
897.871
902.948
907.923
912.793
917.553
922.198
926.726
931.132
935.41
939.557
943.57
947.447
951.191
954.802
958.279
961.623
964.835
967.914
970.862
973.68
976.368
978.927
981.359
983.663
985.842
987.896
989.827
991.636
993.326
994.897
996.352
997.693
998.922
1000.04
1001.05
1001.95
1002.75
1003.45
1004.04
1004.53
1004.91
1005.19
1005.36
1005.41
1005.37
1005.19
1004.88
1004.4
1003.75
1002.89
1001.78
1000.34
998.514
996.165
993.137
989.22
984.14
977.555
969.048
958.147
944.37
927.294
906.659
882.503
855.23
825.643
794.957
764.497
735.516
709.449
687.286
669.692
656.975
649.136
646.095
647.595
653.362
663.246
676.542
692.66
710.921
730.69
751.361
772.271
792.857
812.596
831.098
848.077
863.35
876.82
888.492
898.443
906.796
913.712
919.372
923.987
927.736
930.876
933.578
936.31
939.227
943.85
955.669
121.371
121.051
120.891
120.837
120.899
121.086
121.41
121.886
122.527
123.351
124.378
125.628
127.128
128.904
130.989
133.418
136.233
139.48
143.212
147.49
152.383
157.97
164.342
171.602
179.869
189.278
199.983
212.153
225.976
241.652
259.387
279.375
301.782
326.707
354.14
383.915
415.651
448.727
482.28
515.274
546.609
576.619
603.147
624.078
641.553
656.78
668.622
676.958
683.032
687.723
691.674
695.309
698.9
702.603
706.506
710.644
715.025
719.638
724.466
729.485
734.673
740.006
745.466
751.033
756.691
762.424
768.217
774.054
779.92
785.801
791.682
797.55
803.391
809.191
814.938
820.618
826.221
831.738
837.161
842.484
847.704
852.814
857.813
862.695
867.457
872.093
876.598
880.966
885.194
889.288
893.248
897.074
900.765
904.321
907.743
911.031
914.186
917.206
920.091
922.843
925.46
927.944
930.294
932.511
934.596
936.551
938.377
940.075
941.646
943.093
944.418
945.621
946.701
947.661
948.499
949.216
949.812
950.284
950.631
950.849
950.923
950.889
950.7
950.356
949.846
949.152
948.25
947.11
945.69
943.932
941.753
939.044
935.665
931.43
926.111
919.43
911.069
900.686
887.96
872.662
854.754
834.43
812.123
788.493
764.529
741.394
720.091
701.483
686.208
674.63
666.881
662.988
662.859
666.113
672.77
682.24
694.001
707.538
722.279
737.631
753.151
768.429
783.059
796.727
809.221
820.408
830.208
838.631
845.743
851.635
856.43
860.271
863.321
865.723
867.659
869.319
870.983
872.947
876.205
884.417
127.74
127.585
127.546
127.619
127.815
128.149
128.635
129.289
130.13
131.18
132.462
134.002
135.829
137.978
140.485
143.392
146.745
150.597
155.008
160.044
165.78
172.301
179.701
188.087
197.576
208.296
220.386
233.99
249.253
266.309
285.268
306.189
329.058
353.749
379.995
407.36
435.237
462.879
489.407
514.71
538.922
558.912
574.837
588.081
598.759
607.903
615.066
620.422
624.743
628.545
632.184
635.876
639.75
643.873
648.271
652.946
657.884
663.064
668.463
674.056
679.82
685.734
691.777
697.931
704.181
710.51
716.902
723.341
729.811
736.297
742.782
749.254
755.697
762.097
768.438
774.706
780.889
786.977
792.962
798.838
804.601
810.248
815.774
821.178
826.453
831.595
836.598
841.454
846.163
850.731
855.157
859.44
863.58
867.577
871.43
875.139
878.704
882.122
885.394
888.517
891.492
894.318
896.994
899.521
901.9
904.131
906.215
908.153
909.947
911.598
913.108
914.476
915.704
916.791
917.736
918.541
919.203
919.721
920.095
920.313
920.378
920.308
920.068
919.659
919.07
918.291
917.303
916.088
914.618
912.853
910.739
908.205
905.156
901.474
897.009
891.578
884.968
876.943
867.273
855.764
842.26
826.799
809.728
791.544
772.883
754.497
737.152
721.555
708.268
697.664
689.949
685.229
683.501
684.52
688.148
694.138
701.98
711.279
721.587
732.479
743.547
754.363
764.707
774.354
783.15
790.991
797.818
803.635
808.475
812.402
815.501
817.885
819.684
820.995
821.952
822.735
823.525
824.617
826.67
831.951
136.374
136.394
136.515
136.746
137.104
137.607
138.275
139.128
140.191
141.491
143.058
144.922
147.12
149.692
152.678
156.128
160.092
164.628
169.799
175.672
182.325
189.838
198.301
207.807
218.456
230.346
243.573
258.219
274.344
291.972
311.07
331.528
353.142
375.598
398.468
421.227
443.263
464.466
485.091
503.564
518.057
530.191
540.316
548.621
555.363
561.343
566.43
570.739
574.708
578.62
582.659
586.934
591.499
596.377
601.568
607.058
612.826
618.848
625.097
631.55
638.183
644.973
651.901
658.946
666.091
673.319
680.611
687.951
695.319
702.698
710.072
717.428
724.75
732.021
739.222
746.336
753.348
760.247
767.022
773.67
780.185
786.566
792.809
798.912
804.87
810.681
816.341
821.852
827.212
832.406
837.434
842.296
846.992
851.523
855.888
860.088
864.122
867.988
871.685
875.212
878.567
881.75
884.76
887.599
890.265
892.761
895.087
897.245
899.236
901.062
902.725
904.226
905.564
906.74
907.755
908.607
909.296
909.821
910.181
910.361
910.386
910.244
909.922
909.416
908.721
907.829
906.728
905.406
903.846
902.022
899.9
897.431
894.556
891.198
887.26
882.622
877.14
870.656
863.006
854.047
843.7
831.975
818.99
805.021
790.473
775.851
761.709
748.59
736.957
727.158
719.427
713.917
710.681
709.635
710.581