/*--------------------------------*- C++ -*----------------------------------*\
| =========                 |                                                 |
| \\      /  F ield         | OpenFOAM: The Open Source CFD Toolbox           |
|  \\    /   O peration     | Version:  2112                                  |
|   \\  /    A nd           | Website:  www.openfoam.com                      |
|    \\/     M anipulation  |                                                 |
\*---------------------------------------------------------------------------*/
FoamFile
{
    version     2.0;
    format      ascii;
    arch        "LSB;label=32;scalar=64";
    class       volScalarField;
    location    "0.24";
    object      yPlus;
}
// * * * * * * * * * * * * * * * * * * * * * * * * * * * * * * * * * * * * * //

dimensions      [0 0 0 0 0 0 0];

internalField   uniform 0;

boundaryField
{
    inlet
    {
        type            calculated;
        value           uniform 0;
    }
    outlet
    {
        type            calculated;
        value           uniform 0;
    }
    upperWall
    {
        type            calculated;
        value           nonuniform List<scalar> 
223
(
14.4346
14.3339
14.2275
14.1172
14.0097
13.9079
13.8112
13.7193
13.6317
13.5487
13.4699
13.3954
13.3245
13.2577
13.194
13.1343
13.0769
13.0237
12.976
12.9333
12.8906
12.848
12.8053
12.7627
12.7201
12.6776
12.6351
12.5928
12.5507
12.5087
12.4669
12.4253
12.3839
12.3426
12.3014
12.2603
12.2193
12.1784
12.1376
12.0968
12.0562
12.0158
11.9754
11.9353
11.8953
11.8554
11.8158
11.7764
11.7372
11.6982
11.6594
11.6209
11.5827
11.5447
11.507
11.4696
11.4324
11.3956
11.359
11.3228
11.2868
11.2512
11.2158
11.1807
11.1459
11.1114
11.0771
11.0431
11.0093
10.9757
10.9424
10.9092
10.8762
10.8434
10.8108
10.7783
10.7459
10.7137
10.6816
10.6496
10.6177
10.5858
10.5541
10.5224
10.4907
10.459
10.4274
10.3957
10.3641
10.3324
10.3006
10.2687
10.2368
10.2048
10.1726
10.1403
10.1078
10.0752
10.0424
10.0094
9.97613
9.94267
9.90893
9.8749
9.84055
9.80586
9.7708
9.73536
9.69951
9.66322
9.62648
9.58926
9.55153
9.51329
9.47449
9.43513
9.39517
9.35461
9.31345
9.27167
9.22927
9.18622
9.14251
9.09812
9.05302
9.00721
8.9607
8.91345
8.86548
8.81676
8.76731
8.71713
8.66624
8.61461
8.56226
8.50919
8.45543
8.40096
8.34581
8.28998
8.2335
8.17635
8.11858
8.0602
8.00125
7.94173
7.88166
7.82105
7.75992
7.69828
7.63614
7.57353
7.51044
7.4469
7.38294
7.31857
7.25383
7.18874
7.1233
7.05755
6.99148
6.92515
6.85855
6.79172
6.72464
6.65734
6.58979
6.52201
6.45394
6.3855
6.31587
6.24535
6.17384
6.10173
6.02866
5.95525
5.88033
5.80408
5.72604
5.64658
5.56509
5.48203
5.39655
5.30908
5.21857
5.12508
5.02771
4.9252
4.81821
4.70136
4.58096
4.43999
4.30017
4.11407
3.9461
3.64803
3.48797
2.46054
3.50614
4.34351
4.69449
4.83404
4.90014
4.92736
4.9251
4.90406
4.87413
4.83965
4.805
4.76929
4.73738
4.70298
4.67672
4.64326
4.62613
4.59045
4.58704
4.54158
4.55968
4.49024
4.53999
4.4311
4.5168
)
;
    }
    lowerWall
    {
        type            calculated;
        value           nonuniform List<scalar> 
250
(
12.5296
12.363
12.1917
12.0194
11.8548
11.7001
11.5548
11.4178
11.2899
11.1695
11.059
10.9536
10.8608
10.7681
10.6944
10.6113
10.5596
10.4856
0.907352
1.39179
1.09603
0.563235
0.75677
1.01362
0.913086
0.762405
2.00247
2.70365
3.04631
3.21708
3.25879
3.21036
3.08809
2.88168
2.58845
2.21829
1.77771
1.03175
0.920405
1.93233
1.614
3.15962
1.81527
4.318
3.82793
0.620808
1.79696
2.2287
2.54042
2.75949
2.88718
2.92671
2.87908
2.75263
2.53872
2.24579
1.87639
1.44623
1.07655
1.16658
1.39527
1.50789
1.51215
1.44931
1.34588
1.23918
1.48044
1.79361
2.03837
2.20761
2.26354
2.18309
1.96376
1.64256
1.55273
1.86895
2.19575
2.37056
2.4278
2.55333
2.6276
2.7586
2.91981
2.00474
2.39173
3.71458
4.58907
5.33383
5.94887
6.47053
6.91409
7.29581
7.62646
7.91564
8.17067
8.39796
8.60241
8.78813
8.95832
9.11563
9.26214
9.39955
9.52928
9.65244
11.6859
11.9405
12.1918
12.4394
12.6842
12.9255
13.1641
13.3994
13.6318
13.861
14.0871
14.3099
14.5295
14.7456
14.9583
15.1675
15.373
15.5748
15.7729
15.9671
16.1575
16.3439
16.5263
16.7046
16.8788
17.0489
17.2146
17.3761
17.5332
17.6858
17.8339
17.9774
18.1161
18.2501
18.3791
18.5032
18.6223
18.7363
18.8452
18.9493
19.0488
19.1444
19.2372
19.3253
19.4086
19.4875
19.5614
19.6309
19.6954
19.7553
19.8103
19.8606
19.9059
19.9465
19.9821
20.013
20.0389
20.06
20.0762
20.0876
20.0942
20.0961
20.0932
20.0856
20.0734
20.0566
20.0354
20.0101
19.9812
19.9464
19.9081
19.8648
19.8153
19.7613
19.7024
19.6395
19.5729
19.5024
19.4269
19.3479
19.2649
19.1782
19.0877
18.9938
18.8964
18.7956
18.6916
18.5845
18.4743
18.3614
18.2455
18.1269
18.0056
17.8818
17.7556
17.6272
17.4969
17.3647
17.231
17.096
16.9596
16.8222
16.6838
16.5444
16.4042
16.2631
16.1213
15.979
15.8363
15.6934
15.5504
15.4071
15.2636
15.1192
14.9739
14.8251
14.6766
14.5074
14.3728
14.2224
13.8452
14.3429
14.6377
14.7438
14.794
14.803
14.7865
14.7513
14.7001
14.6358
14.5605
14.4721
14.3699
14.2587
14.1317
13.9917
13.8314
13.6926
13.4892
13.3887
13.1147
13.0752
12.7344
12.7722
12.364
12.5703
)
;
    }
    frontAndBack
    {
        type            empty;
    }
}


// ************************************************************************* //
