/*--------------------------------*- C++ -*----------------------------------*\
| =========                 |                                                 |
| \\      /  F ield         | OpenFOAM: The Open Source CFD Toolbox           |
|  \\    /   O peration     | Version:  2112                                  |
|   \\  /    A nd           | Website:  www.openfoam.com                      |
|    \\/     M anipulation  |                                                 |
\*---------------------------------------------------------------------------*/
FoamFile
{
    version     2.0;
    format      ascii;
    arch        "LSB;label=32;scalar=64";
    class       volScalarField;
    location    "0.24";
    object      yPlus;
}
// * * * * * * * * * * * * * * * * * * * * * * * * * * * * * * * * * * * * * //

dimensions      [0 0 0 0 0 0 0];

internalField   uniform 0;

boundaryField
{
    inlet
    {
        type            calculated;
        value           uniform 0;
    }
    outlet
    {
        type            calculated;
        value           uniform 0;
    }
    upperWall
    {
        type            calculated;
        value           nonuniform List<scalar> 
223
(
14.4346
14.3339
14.2275
14.1172
14.0097
13.9079
13.8112
13.7193
13.6317
13.5487
13.4699
13.3954
13.3245
13.2577
13.194
13.1343
13.0769
13.0237
12.976
12.9333
12.8906
12.848
12.8053
12.7627
12.7201
12.6776
12.6351
12.5928
12.5507
12.5087
12.4669
12.4253
12.3839
12.3426
12.3014
12.2603
12.2193
12.1784
12.1376
12.0968
12.0562
12.0158
11.9754
11.9353
11.8953
11.8554
11.8158
11.7764
11.7372
11.6982
11.6594
11.6209
11.5827
11.5447
11.507
11.4696
11.4324
11.3956
11.359
11.3228
11.2868
11.2512
11.2158
11.1807
11.1459
11.1114
11.0771
11.0431
11.0093
10.9757
10.9424
10.9092
10.8762
10.8434
10.8108
10.7783
10.7459
10.7137
10.6816
10.6496
10.6177
10.5858
10.5541
10.5224
10.4907
10.459
10.4274
10.3957
10.3641
10.3324
10.3006
10.2687
10.2368
10.2048
10.1726
10.1403
10.1079
10.0752
10.0424
10.0094
9.97615
9.94268
9.90894
9.87491
9.84056
9.80588
9.77082
9.73538
9.69953
9.66324
9.6265
9.58927
9.55155
9.5133
9.47451
9.43514
9.39518
9.35462
9.31346
9.27168
9.22928
9.18623
9.14252
9.09812
9.05302
9.00722
8.9607
8.91346
8.86548
8.81676
8.76731
8.71714
8.66624
8.61461
8.56226
8.50919
8.45542
8.40095
8.3458
8.28997
8.23349
8.17634
8.11857
8.06019
8.00123
7.94171
7.88164
7.82103
7.7599
7.69826
7.63612
7.5735
7.51041
7.44688
7.38292
7.31855
7.25381
7.18872
7.12329
7.05753
6.99147
6.92514
6.85855
6.79172
6.72464
6.65734
6.58979
6.52201
6.45395
6.38551
6.31588
6.24537
6.17386
6.10174
6.02867
5.95527
5.88034
5.80409
5.72605
5.64659
5.56509
5.48204
5.39655
5.30908
5.21857
5.12508
5.0277
4.92519
4.8182
4.70135
4.58096
4.43998
4.30016
4.11406
3.94609
3.64802
3.48796
2.46054
3.50613
4.3435
4.69449
4.83403
4.90014
4.92736
4.9251
4.90406
4.87413
4.83965
4.805
4.76929
4.73738
4.70299
4.67672
4.64326
4.62613
4.59045
4.58704
4.54157
4.55967
4.49024
4.53999
4.4311
4.5168
)
;
    }
    lowerWall
    {
        type            calculated;
        value           nonuniform List<scalar> 
250
(
12.5296
12.363
12.1917
12.0194
11.8548
11.7001
11.5548
11.4178
11.2899
11.1694
11.059
10.9536
10.8608
10.7681
10.6944
10.6113
10.5597
10.4856
0.907352
1.39179
1.09603
0.56324
0.756779
1.01362
0.913096
0.762393
2.00247
2.70364
3.0463
3.21708
3.25878
3.21035
3.08808
2.88167
2.58844
2.21828
1.77769
1.03173
0.920404
1.93233
1.61399
3.1596
1.81524
4.31797
3.82793
0.620808
1.79696
2.2287
2.54042
2.75949
2.88718
2.92671
2.87909
2.75263
2.53873
2.2458
1.8764
1.44624
1.07655
1.16657
1.39526
1.50788
1.51214
1.4493
1.34588
1.23919
1.48045
1.79362
2.03838
2.20763
2.26356
2.18311
1.96379
1.64258
1.55271
1.8689
2.1957
2.37051
2.42775
2.55328
2.62754
2.75854
2.91979
2.00475
2.3917
3.71458
4.58907
5.33382
5.94887
6.47052
6.91408
7.2958
7.62644
7.91562
8.17065
8.39794
8.60238
8.7881
8.95829
9.1156
9.2621
9.39951
9.52924
9.65239
11.6859
11.9404
12.1918
12.4394
12.6841
12.9255
13.164
13.3993
13.6317
13.8609
14.087
14.3098
14.5294
14.7455
14.9582
15.1674
15.3729
15.5748
15.7728
15.9671
16.1574
16.3439
16.5263
16.7046
16.8788
17.0488
17.2146
17.3761
17.5332
17.6858
17.8339
17.9773
18.1161
18.2501
18.3791
18.5032
18.6223
18.7363
18.8452
18.9493
19.0489
19.1445
19.2372
19.3253
19.4086
19.4875
19.5615
19.6309
19.6955
19.7554
19.8104
19.8606
19.906
19.9465
19.9822
20.013
20.039
20.06
20.0763
20.0877
20.0943
20.0961
20.0932
20.0856
20.0734
20.0567
20.0354
20.0101
19.9812
19.9465
19.9081
19.8649
19.8153
19.7614
19.7024
19.6395
19.5729
19.5024
19.4269
19.3479
19.2648
19.1781
19.0877
18.9938
18.8963
18.7956
18.6916
18.5845
18.4743
18.3614
18.2455
18.1269
18.0056
17.8818
17.7556
17.6272
17.4968
17.3647
17.231
17.0959
16.9596
16.8222
16.6838
16.5444
16.4042
16.2631
16.1213
15.979
15.8363
15.6934
15.5504
15.4072
15.2636
15.1193
14.9739
14.8251
14.6766
14.5074
14.3728
14.2224
13.8452
14.3429
14.6377
14.7438
14.794
14.803
14.7865
14.7513
14.7001
14.6358
14.5605
14.4721
14.3699
14.2587
14.1317
13.9917
13.8314
13.6926
13.4892
13.3887
13.1147
13.0752
12.7344
12.7722
12.364
12.5704
)
;
    }
    frontAndBack
    {
        type            empty;
    }
}


// ************************************************************************* //
