/*--------------------------------*- C++ -*----------------------------------*\
| =========                 |                                                 |
| \\      /  F ield         | OpenFOAM: The Open Source CFD Toolbox           |
|  \\    /   O peration     | Version:  2112                                  |
|   \\  /    A nd           | Website:  www.openfoam.com                      |
|    \\/     M anipulation  |                                                 |
\*---------------------------------------------------------------------------*/
FoamFile
{
    version     2.0;
    format      ascii;
    arch        "LSB;label=32;scalar=64";
    class       surfaceScalarField;
    location    "0.03";
    object      phi_0;
}
// * * * * * * * * * * * * * * * * * * * * * * * * * * * * * * * * * * * * * //

dimensions      [0 3 -1 0 0 0 0];

oriented        oriented;

internalField   nonuniform List<scalar> 
24170
(
3.05501e-06
1.33399e-07
2.89347e-06
1.61532e-07
2.73944e-06
1.54031e-07
2.58896e-06
1.50488e-07
2.44256e-06
1.46392e-07
2.30196e-06
1.40609e-07
2.16724e-06
1.34713e-07
2.03778e-06
1.29461e-07
1.91273e-06
1.25055e-07
1.79111e-06
1.21617e-07
1.67187e-06
1.19241e-07
1.55395e-06
1.17924e-07
1.4364e-06
1.17545e-07
1.3186e-06
1.17802e-07
1.20007e-06
1.18525e-07
1.08066e-06
1.19412e-07
9.56558e-07
1.24103e-07
1.41748e-07
8.1481e-07
3.4899e-06
6.07477e-08
3.53992e-06
1.11514e-07
3.57337e-06
1.2058e-07
3.5907e-06
1.33153e-07
3.59313e-06
1.4397e-07
3.58276e-06
1.5097e-07
3.56139e-06
1.56086e-07
3.53034e-06
1.60517e-07
3.4906e-06
1.64792e-07
3.44286e-06
1.69354e-07
3.38748e-06
1.74626e-07
3.3245e-06
1.80902e-07
3.25375e-06
1.88297e-07
3.1749e-06
1.96654e-07
3.08762e-06
2.05796e-07
2.99142e-06
2.15621e-07
2.88712e-06
2.28398e-07
2.46566e-07
2.7823e-06
3.67404e-06
4.92196e-08
3.68896e-06
9.65963e-08
3.7034e-06
1.06147e-07
3.71998e-06
1.16573e-07
3.73713e-06
1.26818e-07
3.75367e-06
1.34431e-07
3.76899e-06
1.40765e-07
3.78253e-06
1.4697e-07
3.79382e-06
1.53508e-07
3.80246e-06
1.60713e-07
3.80815e-06
1.6893e-07
3.81062e-06
1.78433e-07
3.80954e-06
1.89379e-07
3.80449e-06
2.01707e-07
3.79493e-06
2.1535e-07
3.78064e-06
2.2992e-07
3.76291e-06
2.46124e-07
2.58129e-07
3.75135e-06
3.93291e-06
4.16954e-08
3.94156e-06
8.79507e-08
3.9456e-06
1.02101e-07
3.94909e-06
1.1309e-07
3.95218e-06
1.23721e-07
3.95477e-06
1.31848e-07
3.95714e-06
1.38395e-07
3.95946e-06
1.4465e-07
3.96176e-06
1.51202e-07
3.9641e-06
1.58374e-07
3.96656e-06
1.66469e-07
3.96928e-06
1.75718e-07
3.97241e-06
1.8625e-07
3.9761e-06
1.9801e-07
3.98057e-06
2.10888e-07
3.98609e-06
2.24396e-07
3.9941e-06
2.38111e-07
2.46886e-07
4.00535e-06
4.21339e-06
3.54365e-08
4.22088e-06
8.04527e-08
4.22442e-06
9.85607e-08
4.22674e-06
1.10773e-07
4.22818e-06
1.22284e-07
4.2284e-06
1.31628e-07
4.22748e-06
1.39311e-07
4.22556e-06
1.4657e-07
4.22271e-06
1.54051e-07
4.21903e-06
1.62058e-07
4.21465e-06
1.70842e-07
4.20978e-06
1.80589e-07
4.20466e-06
1.91377e-07
4.19955e-06
2.03114e-07
4.19488e-06
2.15563e-07
4.19111e-06
2.28163e-07
4.18936e-06
2.3986e-07
2.46958e-07
4.18929e-06
4.5139e-06
3.06211e-08
4.52058e-06
7.37789e-08
4.52448e-06
9.46532e-08
4.52701e-06
1.08244e-07
4.52864e-06
1.20656e-07
4.52904e-06
1.31231e-07
4.52816e-06
1.40191e-07
4.52609e-06
1.48636e-07
4.5229e-06
1.57248e-07
4.51862e-06
1.66338e-07
4.51333e-06
1.76124e-07
4.50716e-06
1.86767e-07
4.50021e-06
1.98319e-07
4.49265e-06
2.10674e-07
4.48467e-06
2.23552e-07
4.47644e-06
2.36388e-07
4.46816e-06
2.48145e-07
2.5618e-07
4.45893e-06
4.83642e-06
2.69166e-08
4.84238e-06
6.78264e-08
4.84639e-06
9.06446e-08
4.84891e-06
1.05718e-07
4.85052e-06
1.19042e-07
4.85102e-06
1.30735e-07
4.8503e-06
1.40908e-07
4.84845e-06
1.50494e-07
4.8455e-06
1.60189e-07
4.84153e-06
1.70316e-07
4.83657e-06
1.81075e-07
4.83073e-06
1.92607e-07
4.8241e-06
2.04956e-07
4.81674e-06
2.1803e-07
4.80871e-06
2.31586e-07
4.79991e-06
2.45182e-07
4.78992e-06
2.58136e-07
2.69023e-07
4.77708e-06
5.18246e-06
2.40335e-08
5.18767e-06
6.2619e-08
5.19159e-06
8.67264e-08
5.19409e-06
1.03213e-07
5.19571e-06
1.17427e-07
5.19632e-06
1.30125e-07
5.19578e-06
1.41442e-07
5.19414e-06
1.52137e-07
5.19145e-06
1.62877e-07
5.18778e-06
1.73995e-07
5.18317e-06
1.85678e-07
5.17773e-06
1.98052e-07
5.17152e-06
2.11167e-07
5.16458e-06
2.24963e-07
5.15689e-06
2.39283e-07
5.14819e-06
2.53881e-07
5.13785e-06
2.68469e-07
2.82656e-07
5.12422e-06
5.5536e-06
2.17745e-08
5.55808e-06
5.81303e-08
5.56185e-06
8.29617e-08
5.56438e-06
1.00679e-07
5.56605e-06
1.15758e-07
5.5668e-06
1.29377e-07
5.56648e-06
1.41763e-07
5.5651e-06
1.53521e-07
5.56272e-06
1.65257e-07
5.5594e-06
1.77309e-07
5.55522e-06
1.89857e-07
5.55026e-06
2.0302e-07
5.54456e-06
2.1686e-07
5.53816e-06
2.31365e-07
5.53097e-06
2.46474e-07
5.52271e-06
2.62138e-07
5.51282e-06
2.78361e-07
2.95434e-07
5.50004e-06
5.95156e-06
1.99875e-08
5.95542e-06
5.42774e-08
5.959e-06
7.93778e-08
5.96159e-06
9.80922e-08
5.96335e-06
1.1399e-07
5.96428e-06
1.28447e-07
5.96425e-06
1.41802e-07
5.96322e-06
1.54544e-07
5.96127e-06
1.67204e-07
5.95847e-06
1.80112e-07
5.95488e-06
1.93446e-07
5.95058e-06
2.07324e-07
5.94562e-06
2.21819e-07
5.94001e-06
2.36968e-07
5.93369e-06
2.52795e-07
5.92644e-06
2.6939e-07
5.91789e-06
2.86916e-07
3.05991e-07
5.90733e-06
6.37825e-06
1.85502e-08
6.38157e-06
5.09571e-08
6.38497e-06
7.59786e-08
6.38763e-06
9.54306e-08
6.38956e-06
1.1206e-07
6.39075e-06
1.27256e-07
6.39109e-06
1.41459e-07
6.39056e-06
1.5508e-07
6.38919e-06
1.68568e-07
6.38707e-06
1.82232e-07
6.38427e-06
1.96248e-07
6.38087e-06
2.10731e-07
6.37692e-06
2.25765e-07
6.37247e-06
2.41419e-07
6.36749e-06
2.57772e-07
6.3619e-06
2.74984e-07
6.35556e-06
2.93248e-07
3.13254e-07
6.3483e-06
5.74186e-06
1.75254e-08
5.74434e-06
4.84811e-08
5.74708e-06
7.32301e-08
5.74942e-06
9.30939e-08
5.75124e-06
1.10241e-07
5.75252e-06
1.25973e-07
5.7532e-06
1.40786e-07
5.75323e-06
1.55048e-07
5.75266e-06
1.69139e-07
5.75154e-06
1.83345e-07
5.74996e-06
1.97832e-07
5.74798e-06
2.1271e-07
5.74568e-06
2.28068e-07
5.74311e-06
2.43988e-07
5.74032e-06
2.60563e-07
5.73734e-06
2.77963e-07
5.73425e-06
2.96341e-07
3.16328e-07
5.73117e-06
6.99917e-06
1.65075e-08
7.00173e-06
4.59258e-08
7.00477e-06
7.0185e-08
7.00758e-06
9.02847e-08
7.00995e-06
1.07872e-07
7.01183e-06
1.24096e-07
7.01314e-06
1.39472e-07
7.01386e-06
1.54329e-07
7.01402e-06
1.6898e-07
7.0137e-06
1.83669e-07
7.01298e-06
1.9855e-07
7.01197e-06
2.13722e-07
7.01077e-06
2.29267e-07
7.00949e-06
2.45263e-07
7.00826e-06
2.61792e-07
7.00724e-06
2.78989e-07
7.00666e-06
2.9692e-07
3.16086e-07
7.0069e-06
8.53187e-06
1.54827e-08
8.53454e-06
4.32544e-08
8.53797e-06
6.67622e-08
8.54141e-06
8.68361e-08
8.54459e-06
1.04695e-07
8.5474e-06
1.21286e-07
8.54977e-06
1.37101e-07
8.55167e-06
1.52428e-07
8.55314e-06
1.67509e-07
8.55427e-06
1.8254e-07
8.55518e-06
1.97646e-07
8.55599e-06
2.12906e-07
8.55688e-06
2.28382e-07
8.55802e-06
2.44125e-07
8.55963e-06
2.6018e-07
8.562e-06
2.76614e-07
8.56554e-06
2.93379e-07
3.10828e-07
8.5708e-06
1.04003e-05
1.4407e-08
1.04032e-05
4.03474e-08
1.04072e-05
6.27758e-08
1.04116e-05
8.24585e-08
1.0416e-05
1.00294e-07
1.04202e-05
1.17009e-07
1.04243e-05
1.33025e-07
1.04282e-05
1.48579e-07
1.04318e-05
1.63844e-07
1.04354e-05
1.78953e-07
1.04391e-05
1.9399e-07
1.0443e-05
2.09001e-07
1.04474e-05
2.2401e-07
1.04525e-05
2.39028e-07
1.04586e-05
2.54045e-07
1.04662e-05
2.69051e-07
1.04756e-05
2.83905e-07
2.98839e-07
1.04876e-05
1.2678e-05
1.31903e-08
1.26814e-05
3.69583e-08
1.26863e-05
5.78604e-08
1.26921e-05
7.66508e-08
1.26984e-05
9.40022e-08
1.2705e-05
1.10434e-07
1.27117e-05
1.26261e-07
1.27187e-05
1.41648e-07
1.27258e-05
1.56698e-07
1.27333e-05
1.71473e-07
1.27413e-05
1.86004e-07
1.275e-05
2.00291e-07
1.27597e-05
2.14317e-07
1.27707e-05
2.28045e-07
1.27833e-05
2.41418e-07
1.2798e-05
2.54371e-07
1.28152e-05
2.66721e-07
2.78635e-07
1.28354e-05
1.54547e-05
1.16771e-08
1.5459e-05
3.26532e-08
1.54655e-05
5.1369e-08
1.54736e-05
6.85738e-08
1.54828e-05
8.47783e-08
1.54929e-05
1.00316e-07
1.55038e-05
1.15372e-07
1.55154e-05
1.30025e-07
1.55278e-05
1.44298e-07
1.55411e-05
1.58183e-07
1.55555e-05
1.71651e-07
1.55711e-05
1.84657e-07
1.55883e-05
1.97142e-07
1.56073e-05
2.09041e-07
1.56284e-05
2.2027e-07
1.5652e-05
2.30749e-07
1.56785e-05
2.40307e-07
2.49094e-07
1.5708e-05
1.88397e-05
9.61275e-09
1.88456e-05
2.67285e-08
1.88547e-05
4.2252e-08
1.88664e-05
5.69035e-08
1.88801e-05
7.10549e-08
1.88956e-05
8.48633e-08
1.89126e-05
9.83712e-08
1.89311e-05
1.11558e-07
1.8951e-05
1.24367e-07
1.89724e-05
1.36722e-07
1.89956e-05
1.48539e-07
1.90205e-05
1.59735e-07
1.90474e-05
1.70227e-07
1.90765e-05
1.7994e-07
1.9108e-05
1.88793e-07
1.9142e-05
1.96723e-07
1.91787e-05
2.0361e-07
2.09601e-07
1.92182e-05
2.29664e-05
6.51582e-09
2.29752e-05
1.80062e-08
2.29886e-05
2.88015e-08
2.30059e-05
3.95731e-08
2.30265e-05
5.05135e-08
2.30498e-05
6.1567e-08
2.30755e-05
7.26166e-08
2.31036e-05
8.35346e-08
2.31337e-05
9.41801e-08
2.31661e-05
1.04408e-07
2.32005e-05
1.1409e-07
2.32371e-05
1.23118e-07
2.32759e-05
1.31399e-07
2.3317e-05
1.38859e-07
2.33604e-05
1.45435e-07
2.3406e-05
1.51085e-07
2.34539e-05
1.55741e-07
1.59543e-07
2.3504e-05
1.68135e-05
3.70761e-09
1.68213e-05
1.02435e-08
1.68331e-05
1.69711e-08
1.68482e-05
2.45054e-08
1.68659e-05
3.28053e-08
1.68858e-05
4.16016e-08
1.69078e-05
5.06713e-08
1.69315e-05
5.98297e-08
1.69568e-05
6.88788e-08
1.69836e-05
7.76172e-08
1.70118e-05
8.58794e-08
1.70414e-05
9.35449e-08
1.70723e-05
1.00519e-07
1.71044e-05
1.06728e-07
1.71377e-05
1.12115e-07
1.71721e-05
1.16655e-07
1.72076e-05
1.20312e-07
1.23216e-07
1.72439e-05
1.46375e-05
8.06693e-10
1.46455e-05
2.24702e-09
1.46574e-05
4.99648e-09
1.46724e-05
9.54617e-09
1.46897e-05
1.54754e-08
1.47091e-05
2.22505e-08
1.47302e-05
2.95704e-08
1.47528e-05
3.7203e-08
1.47768e-05
4.48952e-08
1.4802e-05
5.24056e-08
1.48283e-05
5.95528e-08
1.48557e-05
6.62005e-08
1.48839e-05
7.22473e-08
1.49131e-05
7.7621e-08
1.49429e-05
8.22572e-08
1.49734e-05
8.6126e-08
1.50046e-05
8.91898e-08
9.15456e-08
1.50362e-05
1.27432e-05
-2.22297e-09
1.27514e-05
-6.0401e-09
1.27635e-05
-7.0296e-09
1.27781e-05
-5.07325e-09
1.27948e-05
-1.19742e-09
1.28132e-05
3.83238e-09
1.2833e-05
9.72801e-09
1.2854e-05
1.62033e-08
1.2876e-05
2.28758e-08
1.2899e-05
2.942e-08
1.29228e-05
3.5741e-08
1.29474e-05
4.167e-08
1.29725e-05
4.70975e-08
1.29982e-05
5.19339e-08
1.30244e-05
5.61167e-08
1.30508e-05
5.9636e-08
1.30775e-05
6.24856e-08
6.47657e-08
1.31043e-05
1.10942e-05
-5.50338e-09
1.11029e-05
-1.47599e-08
1.11149e-05
-1.90237e-08
1.11289e-05
-1.90673e-08
1.11447e-05
-1.69392e-08
1.1162e-05
-1.34878e-08
1.11806e-05
-8.8583e-09
1.12001e-05
-3.32448e-09
1.12203e-05
2.63648e-09
1.12413e-05
8.41539e-09
1.12629e-05
1.41445e-08
1.1285e-05
1.95556e-08
1.13075e-05
2.46931e-08
1.13301e-05
2.92483e-08
1.13531e-05
3.31939e-08
1.13762e-05
3.65353e-08
1.13994e-05
3.9232e-08
4.13256e-08
1.14229e-05
9.65886e-06
-9.1536e-09
9.66816e-06
-2.4054e-08
9.68016e-06
-3.10231e-08
9.69348e-06
-3.23869e-08
9.70808e-06
-3.15459e-08
9.72386e-06
-2.92653e-08
9.74053e-06
-2.55272e-08
9.75797e-06
-2.07677e-08
9.77614e-06
-1.55323e-08
9.79475e-06
-1.01935e-08
9.81382e-06
-4.92662e-09
9.83351e-06
-1.27038e-10
9.85326e-06
4.94119e-09
9.87318e-06
9.32308e-09
9.89319e-06
1.31833e-08
9.91318e-06
1.65459e-08
9.93311e-06
1.93056e-08
2.15908e-08
9.95284e-06
8.40965e-06
-1.34544e-08
8.41937e-06
-3.37685e-08
8.43102e-06
-4.26729e-08
8.44383e-06
-4.51996e-08
8.45791e-06
-4.56268e-08
8.47287e-06
-4.42239e-08
8.48836e-06
-4.10167e-08
8.5043e-06
-3.67066e-08
8.52065e-06
-3.18842e-08
8.53733e-06
-2.68709e-08
8.55426e-06
-2.18621e-08
8.57115e-06
-1.70174e-08
8.58838e-06
-1.22864e-08
8.6057e-06
-8.00126e-09
8.62308e-06
-4.18944e-09
8.6403e-06
-6.81358e-10
8.65748e-06
2.13191e-09
4.28045e-09
8.67479e-06
7.32292e-06
-1.90885e-08
7.3334e-06
-4.42499e-08
7.34356e-06
-5.28313e-08
7.35457e-06
-5.62149e-08
7.36704e-06
-5.80893e-08
7.38039e-06
-5.75761e-08
7.39428e-06
-5.49066e-08
7.40861e-06
-5.10363e-08
7.42329e-06
-4.65662e-08
7.43821e-06
-4.17958e-08
7.45329e-06
-3.69343e-08
7.46843e-06
-3.21565e-08
7.4837e-06
-2.75563e-08
7.49897e-06
-2.32778e-08
7.51418e-06
-1.94016e-08
7.52944e-06
-1.59322e-08
7.54456e-06
-1.2992e-08
-1.04096e-08
7.55925e-06
6.37653e-06
-2.55533e-08
6.38983e-06
-5.75495e-08
6.4002e-06
-6.31989e-08
6.41077e-06
-6.67837e-08
6.42229e-06
-6.96076e-08
6.43427e-06
-6.95632e-08
6.44673e-06
-6.73682e-08
6.45974e-06
-6.4043e-08
6.47322e-06
-6.0043e-08
6.48704e-06
-5.56187e-08
6.5011e-06
-5.09959e-08
6.51531e-06
-4.63651e-08
6.52961e-06
-4.18538e-08
6.54391e-06
-3.75822e-08
6.55816e-06
-3.3651e-08
6.57236e-06
-3.01309e-08
6.58646e-06
-2.70896e-08
-2.45078e-08
6.60056e-06
5.55063e-06
-3.07212e-08
5.56563e-06
-7.25517e-08
5.58023e-06
-7.77933e-08
5.59771e-06
-8.42637e-08
5.6172e-06
-8.91023e-08
5.63745e-06
-8.98143e-08
5.65803e-06
-8.79417e-08
5.67866e-06
-8.46726e-08
5.69907e-06
-8.04512e-08
5.71903e-06
-7.55821e-08
5.7384e-06
-7.03651e-08
5.75708e-06
-6.50467e-08
5.77503e-06
-5.98046e-08
5.79224e-06
-5.47894e-08
5.80871e-06
-5.0119e-08
5.82452e-06
-4.59408e-08
5.83969e-06
-4.2267e-08
-3.953e-08
5.85472e-06
4.88531e-06
-8.84224e-08
4.93463e-06
-1.21878e-07
4.97928e-06
-1.22439e-07
5.0174e-06
-1.2238e-07
5.04788e-06
-1.19583e-07
5.07106e-06
-1.12999e-07
5.08783e-06
-1.04712e-07
5.09921e-06
-9.60508e-08
5.10624e-06
-8.74815e-08
5.10989e-06
-7.92311e-08
5.11098e-06
-7.14597e-08
5.1102e-06
-6.42619e-08
5.10808e-06
-5.768e-08
5.10502e-06
-5.17388e-08
5.10136e-06
-4.64504e-08
5.09728e-06
-4.18621e-08
5.09297e-06
-3.7963e-08
-3.51783e-08
5.08862e-06
4.11425e-06
3.99238e-06
3.86994e-06
3.74756e-06
3.62797e-06
3.51497e-06
3.41026e-06
3.31421e-06
3.22673e-06
3.1475e-06
3.07604e-06
3.01178e-06
2.9541e-06
2.90236e-06
2.85591e-06
2.81405e-06
2.77608e-06
2.74091e-06
-4.72421e-07
4.72421e-07
-6.76664e-07
2.04244e-07
-3.63684e-07
-3.12981e-07
3.57415e-07
-7.21099e-07
1.26625e-06
-9.08837e-07
2.19652e-06
-9.3027e-07
3.05997e-06
-8.63445e-07
3.8174e-06
-7.57437e-07
4.45165e-06
-6.34245e-07
4.95352e-06
-5.01872e-07
5.31548e-06
-3.61957e-07
5.5294e-06
-2.13921e-07
5.58667e-06
-5.72727e-08
5.46763e-06
1.19041e-07
5.16771e-06
2.99918e-07
4.69578e-06
4.71929e-07
4.07066e-06
6.25125e-07
3.32308e-06
7.47574e-07
2.49861e-06
8.24474e-07
1.65869e-06
8.39917e-07
8.77248e-07
7.81445e-07
2.27334e-07
6.49914e-07
-2.4697e-07
4.74304e-07
-5.4533e-07
2.9836e-07
-6.53771e-07
1.08441e-07
-5.74196e-07
-7.9575e-08
-3.06838e-07
-2.67358e-07
1.9853e-07
-5.05367e-07
8.01153e-07
-6.02623e-07
1.25552e-06
-4.54364e-07
1.50796e-06
-2.52446e-07
1.5814e-06
-7.3442e-08
1.52368e-06
5.77272e-08
1.36433e-06
1.59345e-07
1.05731e-06
3.0702e-07
5.13076e-07
5.44236e-07
-2.95154e-07
8.0823e-07
-1.28797e-06
9.92811e-07
-2.38982e-06
1.10185e-06
-3.53454e-06
1.14472e-06
-4.66526e-06
1.13072e-06
-5.73668e-06
1.07142e-06
-6.7155e-06
9.78818e-07
-7.57999e-06
8.64498e-07
-8.31846e-06
7.3847e-07
-8.92712e-06
6.08659e-07
-9.40806e-06
4.80938e-07
-9.76738e-06
3.59316e-07
-1.00138e-05
2.46391e-07
-1.01578e-05
1.44044e-07
-1.02118e-05
5.39531e-08
-1.01934e-05
-1.83972e-08
-1.01202e-05
-7.31454e-08
-1.00042e-05
-1.16026e-07
-9.8537e-06
-1.50492e-07
-9.67494e-06
-1.78762e-07
-9.47265e-06
-2.02292e-07
-9.25062e-06
-2.22026e-07
-9.01192e-06
-2.387e-07
-8.75899e-06
-2.52931e-07
-8.49374e-06
-2.65255e-07
-8.2176e-06
-2.76136e-07
-7.93164e-06
-2.8596e-07
-7.6366e-06
-2.95043e-07
-7.33297e-06
-3.03624e-07
-7.0211e-06
-3.11876e-07
-6.70119e-06
-3.19909e-07
-6.3734e-06
-3.27788e-07
-6.03786e-06
-3.35539e-07
-5.6947e-06
-3.43158e-07
-5.34409e-06
-3.50617e-07
-4.98622e-06
-3.57863e-07
-4.62141e-06
-3.64811e-07
-4.25008e-06
-3.71333e-07
-3.87283e-06
-3.77252e-07
-3.49049e-06
-3.82334e-07
-3.10421e-06
-3.86288e-07
-2.71543e-06
-3.88778e-07
-2.32599e-06
-3.89439e-07
-1.93808e-06
-3.87913e-07
-1.55417e-06
-3.83902e-07
-1.17697e-06
-3.77203e-07
-8.09183e-07
-3.67787e-07
-4.5335e-07
-3.55833e-07
-1.12222e-07
-3.41128e-07
2.13368e-07
-3.2559e-07
5.21292e-07
-3.07924e-07
8.10431e-07
-2.89139e-07
1.08024e-06
-2.69806e-07
1.3306e-06
-2.50359e-07
1.56176e-06
-2.31161e-07
1.77426e-06
-2.12499e-07
1.96885e-06
-1.94592e-07
2.14644e-06
-1.77589e-07
2.30802e-06
-1.61587e-07
2.45466e-06
-1.46637e-07
2.58741e-06
-1.32752e-07
2.70733e-06
-1.1992e-07
2.81544e-06
-1.08106e-07
2.9127e-06
-9.72651e-08
3.00005e-06
-8.73418e-08
3.07832e-06
-7.82767e-08
3.14833e-06
-7.00089e-08
3.21081e-06
-6.24772e-08
3.26643e-06
-5.56219e-08
3.31582e-06
-4.93851e-08
3.35953e-06
-4.37117e-08
3.39808e-06
-3.85484e-08
3.43192e-06
-3.38447e-08
3.46147e-06
-2.9552e-08
3.4871e-06
-2.56234e-08
3.50911e-06
-2.20142e-08
3.52779e-06
-1.86792e-08
3.54336e-06
-1.55743e-08
3.55603e-06
-1.26643e-08
3.5659e-06
-9.87512e-09
3.57304e-06
-7.13731e-09
3.57746e-06
-4.41994e-09
3.57862e-06
-1.15863e-09
3.57539e-06
3.2282e-09
3.56736e-06
8.03097e-09
3.5548e-06
1.25584e-08
3.53839e-06
1.64147e-08
3.51899e-06
1.93972e-08
3.49755e-06
2.14434e-08
3.47493e-06
2.26186e-08
3.45185e-06
2.30726e-08
3.42887e-06
2.29868e-08
3.40633e-06
2.25358e-08
3.38447e-06
2.18602e-08
3.36342e-06
2.10566e-08
3.34321e-06
2.02018e-08
3.32387e-06
1.93449e-08
3.30533e-06
1.85402e-08
3.28755e-06
1.77776e-08
3.2705e-06
1.70466e-08
3.25417e-06
1.63353e-08
3.23853e-06
1.56359e-08
3.22359e-06
1.49461e-08
3.20932e-06
1.42693e-08
3.1957e-06
1.36138e-08
3.18271e-06
1.29914e-08
3.1703e-06
1.24151e-08
3.1584e-06
1.1897e-08
3.14696e-06
1.14439e-08
3.1359e-06
1.10563e-08
3.12517e-06
1.07301e-08
3.11471e-06
1.04568e-08
3.10449e-06
1.02267e-08
3.09446e-06
1.00306e-08
3.08459e-06
9.86152e-09
3.07488e-06
9.71619e-09
3.06528e-06
9.59419e-09
3.05579e-06
9.49732e-09
3.04636e-06
9.42895e-09
3.03696e-06
9.39305e-09
3.02757e-06
9.39418e-09
3.01813e-06
9.43737e-09
3.0086e-06
9.52886e-09
2.99893e-06
9.67657e-09
2.98904e-06
9.89099e-09
2.97885e-06
1.01857e-08
2.96827e-06
1.05789e-08
2.95718e-06
1.10944e-08
2.94541e-06
1.17637e-08
2.93278e-06
1.26289e-08
2.91904e-06
1.37457e-08
2.90385e-06
1.51902e-08
2.88678e-06
1.70656e-08
2.86727e-06
1.95143e-08
2.84453e-06
2.27358e-08
2.81752e-06
2.70123e-08
2.78477e-06
3.27526e-08
2.74423e-06
4.05412e-08
2.69292e-06
5.13043e-08
2.62677e-06
6.61526e-08
2.53875e-06
8.8019e-08
2.42282e-06
1.15927e-07
2.25271e-06
1.70115e-07
1.97028e-07
2.05568e-06
-9.40938e-09
4.8183e-07
4.00497e-07
-2.05662e-07
1.14381e-06
-1.0563e-06
1.96213e-06
-1.53941e-06
2.73362e-06
-1.68033e-06
3.4295e-06
-1.62615e-06
4.0491e-06
-1.48305e-06
4.59378e-06
-1.30212e-06
5.0613e-06
-1.10177e-06
5.44641e-06
-8.86976e-07
5.74403e-06
-6.59585e-07
5.95173e-06
-4.21619e-07
6.07123e-06
-1.76773e-07
6.11538e-06
7.48888e-08
6.0799e-06
3.35405e-07
5.94783e-06
6.03995e-07
5.70001e-06
8.7295e-07
5.32027e-06
1.12731e-06
4.80119e-06
1.34355e-06
4.15169e-06
1.48942e-06
3.40439e-06
1.52874e-06
2.62104e-06
1.43327e-06
1.89502e-06
1.20032e-06
1.33141e-06
8.61972e-07
9.73229e-07
4.66623e-07
8.28447e-07
6.52072e-08
9.63656e-07
-4.02567e-07
1.24075e-06
-7.82462e-07
1.44767e-06
-8.09544e-07
1.37462e-06
-3.81316e-07
1.0348e-06
8.73774e-08
4.41743e-07
5.19616e-07
-4.43107e-07
9.42578e-07
-1.60292e-06
1.31916e-06
-2.93373e-06
1.63784e-06
-4.2848e-06
1.8953e-06
-5.55094e-06
2.07437e-06
-6.7076e-06
2.14947e-06
-7.72802e-06
2.12227e-06
-8.59152e-06
2.00822e-06
-9.2902e-06
1.8294e-06
-9.82821e-06
1.60943e-06
-1.02195e-05
1.37012e-06
-1.04843e-05
1.12926e-06
-1.06455e-05
8.99657e-07
-1.0726e-05
6.89239e-07
-1.0747e-05
5.01911e-07
-1.0726e-05
3.38304e-07
-1.06767e-05
1.97125e-07
-1.06091e-05
7.64465e-08
-1.0528e-05
-2.71808e-08
-1.04296e-05
-1.16805e-07
-1.03071e-05
-1.95621e-07
-1.01581e-05
-2.65026e-07
-9.9838e-06
-3.24807e-07
-9.78675e-06
-3.7581e-07
-9.56993e-06
-4.19112e-07
-9.33609e-06
-4.55872e-07
-9.08756e-06
-4.87223e-07
-8.82626e-06
-5.14229e-07
-8.55366e-06
-5.37858e-07
-8.27084e-06
-5.58958e-07
-7.97856e-06
-5.78239e-07
-7.67734e-06
-5.96268e-07
-7.36749e-06
-6.13468e-07
-7.04924e-06
-6.30131e-07
-6.72271e-06
-6.46433e-07
-6.38804e-06
-6.62462e-07
-6.04534e-06
-6.78237e-07
-5.69477e-06
-6.93732e-07
-5.3365e-06
-7.08883e-07
-4.97078e-06
-7.23584e-07
-4.59791e-06
-7.37677e-07
-4.21832e-06
-7.50924e-07
-3.83259e-06
-7.62983e-07
-3.44154e-06
-7.7339e-07
-3.04627e-06
-7.81555e-07
-2.64826e-06
-7.86783e-07
-2.24938e-06
-7.88319e-07
-1.85187e-06
-7.85423e-07
-1.4583e-06
-7.77479e-07
-1.07138e-06
-7.64116e-07
-6.93947e-07
-7.45225e-07
-3.28824e-07
-7.20957e-07
2.27462e-08
-6.92698e-07
3.57013e-07
-6.59857e-07
6.73168e-07
-6.24079e-07
9.70395e-07
-5.86366e-07
1.24826e-06
-5.47668e-07
1.50674e-06
-5.08838e-07
1.74616e-06
-4.70583e-07
1.96712e-06
-4.33462e-07
2.17043e-06
-3.97897e-07
2.35702e-06
-3.64184e-07
2.52794e-06
-3.32511e-07
2.68429e-06
-3.02979e-07
2.82715e-06
-2.75618e-07
2.95764e-06
-2.50406e-07
3.07681e-06
-2.27281e-07
3.1857e-06
-2.06155e-07
3.28528e-06
-1.86921e-07
3.37647e-06
-1.69462e-07
3.46012e-06
-1.53657e-07
3.53702e-06
-1.39381e-07
3.60791e-06
-1.26514e-07
3.67346e-06
-1.14935e-07
3.73428e-06
-1.04529e-07
3.79092e-06
-9.51872e-08
3.84388e-06
-8.68025e-08
3.8936e-06
-7.92736e-08
3.94048e-06
-7.25032e-08
3.98486e-06
-6.63976e-08
4.02705e-06
-6.0866e-08
4.06729e-06
-5.5821e-08
4.1058e-06
-5.11752e-08
4.14277e-06
-4.68366e-08
4.17834e-06
-4.27123e-08
4.21263e-06
-3.87112e-08
4.24631e-06
-3.48363e-08
4.28049e-06
-3.09542e-08
4.3155e-06
-2.69773e-08
4.35108e-06
-2.30181e-08
4.38672e-06
-1.92327e-08
4.42187e-06
-1.57481e-08
4.45597e-06
-1.26525e-08
4.48857e-06
-9.98191e-09
4.51936e-06
-7.71998e-09
4.54816e-06
-5.8115e-09
4.57488e-06
-4.18587e-09
4.59952e-06
-2.78059e-09
4.6221e-06
-1.51907e-09
4.64257e-06
-2.72586e-10
4.66097e-06
9.49016e-10
4.67731e-06
2.19455e-09
4.69167e-06
3.41624e-09
4.70412e-06
4.60398e-09
4.71471e-06
5.74152e-09
4.72353e-06
6.81513e-09
4.73066e-06
7.81626e-09
4.73619e-06
8.74119e-09
4.74021e-06
9.59123e-09
4.74283e-06
1.03724e-08
4.74415e-06
1.10935e-08
4.74428e-06
1.17663e-08
4.74333e-06
1.23975e-08
4.74139e-06
1.29908e-08
4.73858e-06
1.35476e-08
4.73497e-06
1.40667e-08
4.73065e-06
1.45461e-08
4.72569e-06
1.49847e-08
4.72017e-06
1.53827e-08
4.71414e-06
1.57436e-08
4.70766e-06
1.60728e-08
4.70078e-06
1.63787e-08
4.69354e-06
1.66705e-08
4.68598e-06
1.69592e-08
4.67811e-06
1.72563e-08
4.66998e-06
1.75751e-08
4.66157e-06
1.79305e-08
4.65291e-06
1.83399e-08
4.64398e-06
1.88243e-08
4.63475e-06
1.94084e-08
4.62521e-06
2.01232e-08
4.6153e-06
2.10064e-08
4.60496e-06
2.21058e-08
4.5941e-06
2.34829e-08
4.58263e-06
2.52184e-08
4.5704e-06
2.742e-08
4.55723e-06
3.02341e-08
4.54288e-06
3.3863e-08
4.52703e-06
3.85903e-08
4.50922e-06
4.48177e-08
4.48884e-06
5.31365e-08
4.465e-06
6.43823e-08
4.43634e-06
7.99574e-08
4.40106e-06
1.01438e-07
4.35555e-06
1.33532e-07
4.2964e-06
1.75077e-07
4.21124e-06
2.55276e-07
3.12108e-07
4.09616e-06
3.89158e-07
9.26723e-08
1.29233e-06
-1.10883e-06
2.15615e-06
-1.92012e-06
2.82093e-06
-2.20419e-06
3.33839e-06
-2.19779e-06
3.787e-06
-2.07476e-06
4.20676e-06
-1.90281e-06
4.60145e-06
-1.6968e-06
4.95729e-06
-1.45761e-06
5.25747e-06
-1.18715e-06
5.48866e-06
-8.90779e-07
5.6426e-06
-5.75559e-07
5.71534e-06
-2.49508e-07
5.71145e-06
7.87799e-08
5.64111e-06
4.05737e-07
5.52127e-06
7.2384e-07
5.36267e-06
1.03155e-06
5.16459e-06
1.32539e-06
4.91208e-06
1.59606e-06
4.58053e-06
1.82097e-06
4.14894e-06
1.96033e-06
3.61819e-06
1.96402e-06
3.02618e-06
1.79233e-06
2.45129e-06
1.43687e-06
1.97312e-06
9.44789e-07
1.6579e-06
3.80428e-07
1.54554e-06
-2.90213e-07
1.26664e-06
-5.03558e-07
5.0241e-07
-4.53149e-08
-5.22055e-07
6.4315e-07
-1.7299e-06
1.29522e-06
-3.03413e-06
1.82385e-06
-4.34929e-06
2.25774e-06
-5.61077e-06
2.58063e-06
-6.7543e-06
2.78137e-06
-7.72124e-06
2.86224e-06
-8.48013e-06
2.83326e-06
-9.03952e-06
2.70886e-06
-9.42688e-06
2.50963e-06
-9.6792e-06
2.26054e-06
-9.83581e-06
1.98601e-06
-9.93251e-06
1.70613e-06
-9.99718e-06
1.43479e-06
-1.00477e-05
1.17976e-06
-1.00921e-05
9.44111e-07
-1.01309e-05
7.27966e-07
-1.01592e-05
5.30226e-07
-1.01705e-05
3.49607e-07
-1.01585e-05
1.8516e-07
-1.01178e-05
3.57064e-08
-1.0047e-05
-9.79602e-08
-9.94591e-06
-2.17899e-07
-9.81771e-06
-3.23819e-07
-9.66649e-06
-4.16241e-07
-9.49519e-06
-4.96112e-07
-9.30639e-06
-5.64607e-07
-9.10242e-06
-6.23081e-07
-8.88526e-06
-6.73034e-07
-8.65648e-06
-7.16004e-07
-8.41722e-06
-7.53488e-07
-8.16823e-06
-7.86854e-07
-7.90989e-06
-8.1729e-07
-7.64237e-06
-8.45764e-07
-7.36562e-06
-8.73014e-07
-7.07954e-06
-8.99555e-07
-6.78396e-06
-9.25702e-07
-6.4788e-06
-9.51603e-07
-6.16397e-06
-9.77284e-07
-5.83952e-06
-1.00269e-06
-5.50553e-06
-1.02772e-06
-5.16217e-06
-1.05224e-06
-4.80966e-06
-1.0761e-06
-4.44829e-06
-1.09905e-06
-4.07844e-06
-1.12077e-06
-3.70065e-06
-1.14077e-06
-3.31568e-06
-1.15837e-06
-2.92459e-06
-1.17264e-06
-2.5289e-06
-1.18248e-06
-2.13058e-06
-1.18663e-06
-1.73212e-06
-1.18388e-06
-1.33641e-06
-1.17319e-06
-9.46622e-07
-1.15391e-06
-5.65973e-07
-1.12587e-06
-1.97476e-07
-1.08945e-06
1.55419e-07
-1.04559e-06
4.90794e-07
-9.95232e-07
8.07172e-07
-9.40457e-07
1.10373e-06
-8.82923e-07
1.38018e-06
-8.24114e-07
1.63666e-06
-7.65322e-07
1.87368e-06
-7.07598e-07
2.09197e-06
-6.51753e-07
2.29245e-06
-5.98376e-07
2.47613e-06
-5.47868e-07
2.64409e-06
-5.00473e-07
2.79743e-06
-4.56314e-07
2.93723e-06
-4.15421e-07
3.06458e-06
-3.77753e-07
3.18052e-06
-3.43222e-07
3.28607e-06
-3.11705e-07
3.3822e-06
-2.83054e-07
3.46985e-06
-2.57108e-07
3.54989e-06
-2.33695e-07
3.62314e-06
-2.12641e-07
3.6904e-06
-1.93768e-07
3.75237e-06
-1.76902e-07
3.80971e-06
-1.61873e-07
3.86304e-06
-1.48514e-07
3.9129e-06
-1.36667e-07
3.9598e-06
-1.26175e-07
4.00419e-06
-1.16891e-07
4.04646e-06
-1.08671e-07
4.08697e-06
-1.01376e-07
4.12602e-06
-9.487e-08
4.16387e-06
-8.90212e-08
4.20073e-06
-8.37005e-08
4.23681e-06
-7.87867e-08
4.27224e-06
-7.41463e-08
4.30709e-06
-6.96875e-08
4.34148e-06
-6.5338e-08
4.37556e-06
-6.10578e-08
4.40942e-06
-5.68799e-08
4.44305e-06
-5.28591e-08
4.47634e-06
-4.90424e-08
4.50915e-06
-4.54666e-08
4.54132e-06
-4.21479e-08
4.57268e-06
-3.90761e-08
4.60308e-06
-3.62182e-08
4.63243e-06
-3.35277e-08
4.6606e-06
-3.09545e-08
4.68754e-06
-2.84589e-08
4.71327e-06
-2.60064e-08
4.7378e-06
-2.35788e-08
4.76113e-06
-2.11307e-08
4.78321e-06
-1.86705e-08
4.80402e-06
-1.62081e-08
4.82352e-06
-1.37581e-08
4.84168e-06
-1.13377e-08
4.85846e-06
-8.96379e-09
4.87385e-06
-6.64769e-09
4.88783e-06
-4.39102e-09
4.90039e-06
-2.18921e-09
4.91154e-06
-5.29811e-11
4.9213e-06
2.00701e-09
4.92971e-06
3.98098e-09
4.93684e-06
5.86515e-09
4.94273e-06
7.65678e-09
4.94744e-06
9.35152e-09
4.95104e-06
1.09463e-08
4.95359e-06
1.24394e-08
4.95514e-06
1.38312e-08
4.95576e-06
1.5125e-08
4.9555e-06
1.63278e-08
4.95443e-06
1.74488e-08
4.9526e-06
1.84997e-08
4.95007e-06
1.9494e-08
4.94688e-06
2.04468e-08
4.94308e-06
2.13751e-08
4.93871e-06
2.22982e-08
4.93381e-06
2.3239e-08
4.92841e-06
2.42246e-08
4.92253e-06
2.52878e-08
4.91619e-06
2.6469e-08
4.90938e-06
2.78172e-08
4.90209e-06
2.93934e-08
4.8943e-06
3.1274e-08
4.88596e-06
3.35566e-08
4.87701e-06
3.63684e-08
4.86737e-06
3.98782e-08
4.85692e-06
4.4315e-08
4.84551e-06
4.99955e-08
4.83297e-06
5.7361e-08
4.81905e-06
6.70535e-08
4.80347e-06
7.99611e-08
4.78587e-06
9.75572e-08
4.76583e-06
1.21478e-07
4.74308e-06
1.56284e-07
4.71618e-06
2.01975e-07
4.68962e-06
2.81835e-07
3.62499e-07
4.63923e-06
7.91656e-07
-6.98983e-07
1.75587e-06
-2.07305e-06
2.39606e-06
-2.56031e-06
2.80509e-06
-2.61322e-06
3.14587e-06
-2.53857e-06
3.48876e-06
-2.41765e-06
3.83363e-06
-2.24767e-06
4.15537e-06
-2.01855e-06
4.43045e-06
-1.73269e-06
4.64571e-06
-1.40241e-06
4.79732e-06
-1.04239e-06
4.8863e-06
-6.64544e-07
4.91437e-06
-2.77572e-07
4.88067e-06
1.12477e-07
4.78551e-06
5.00897e-07
4.63626e-06
8.73086e-07
4.44859e-06
1.21922e-06
4.2408e-06
1.53319e-06
4.02192e-06
1.81494e-06
3.78213e-06
2.06076e-06
3.49596e-06
2.2465e-06
3.13949e-06
2.3205e-06
2.70762e-06
2.22419e-06
2.2179e-06
1.92658e-06
1.73056e-06
1.43214e-06
1.37862e-06
7.32362e-07
7.58616e-07
3.29795e-07
-4.49569e-07
7.04627e-07
-1.96232e-06
1.46744e-06
-3.42836e-06
2.10918e-06
-4.76839e-06
2.63525e-06
-5.96781e-06
3.02326e-06
-6.98118e-06
3.27111e-06
-7.78191e-06
3.38136e-06
-8.36985e-06
3.36931e-06
-8.7649e-06
3.25729e-06
-9.002e-06
3.07037e-06
-9.12624e-06
2.8331e-06
-9.18421e-06
2.56761e-06
-9.21513e-06
2.29145e-06
-9.24519e-06
2.01608e-06
-9.28641e-06
1.74734e-06
-9.33903e-06
1.48741e-06
-9.39596e-06
1.23669e-06
-9.44724e-06
9.95395e-07
-9.48345e-06
7.64169e-07
-9.4975e-06
5.44281e-07
-9.48527e-06
3.37374e-07
-9.44515e-06
1.45045e-07
-9.37804e-06
-3.14096e-08
-9.28468e-06
-1.91322e-07
-9.16806e-06
-3.34509e-07
-9.03082e-06
-4.61066e-07
-8.8757e-06
-5.71359e-07
-8.70555e-06
-6.66267e-07
-8.52299e-06
-7.47163e-07
-8.33027e-06
-8.15796e-07
-8.12914e-06
-8.74171e-07
-7.92075e-06
-9.24388e-07
-7.70575e-06
-9.68495e-07
-7.48425e-06
-1.00835e-06
-7.25602e-06
-1.04552e-06
-7.02056e-06
-1.08122e-06
-6.77727e-06
-1.11631e-06
-6.5255e-06
-1.15132e-06
-6.2647e-06
-1.18651e-06
-5.99438e-06
-1.22192e-06
-5.71421e-06
-1.25745e-06
-5.42395e-06
-1.29296e-06
-5.12341e-06
-1.32825e-06
-4.8125e-06
-1.36316e-06
-4.4911e-06
-1.39749e-06
-4.15916e-06
-1.43099e-06
-3.81667e-06
-1.46326e-06
-3.46376e-06
-1.49368e-06
-3.1008e-06
-1.52133e-06
-2.7285e-06
-1.54494e-06
-2.34811e-06
-1.56286e-06
-1.96155e-06
-1.5732e-06
-1.57142e-06
-1.57401e-06
-1.18093e-06
-1.56369e-06
-7.93768e-07
-1.54107e-06
-4.13872e-07
-1.50577e-06
-4.52918e-08
-1.45803e-06
3.08143e-07
-1.39903e-06
6.43883e-07
-1.33097e-06
9.60012e-07
-1.25658e-06
1.25544e-06
-1.17836e-06
1.52985e-06
-1.09852e-06
1.78347e-06
-1.01894e-06
2.01698e-06
-9.41117e-07
2.23137e-06
-8.66136e-07
2.42774e-06
-7.94744e-07
2.60728e-06
-7.27409e-07
2.77118e-06
-6.64376e-07
2.9206e-06
-6.05733e-07
3.05663e-06
-5.51456e-07
3.18033e-06
-5.01448e-07
3.29267e-06
-4.55566e-07
3.39461e-06
-4.13641e-07
3.48704e-06
-3.75486e-07
3.57084e-06
-3.40906e-07
3.64684e-06
-3.09699e-07
3.71586e-06
-2.81658e-07
3.77867e-06
-2.56575e-07
3.836e-06
-2.34235e-07
3.88856e-06
-2.14428e-07
3.93698e-06
-1.9694e-07
3.98188e-06
-1.81563e-07
4.02379e-06
-1.68092e-07
4.06323e-06
-1.56328e-07
4.10064e-06
-1.46079e-07
4.13642e-06
-1.37157e-07
4.17093e-06
-1.2938e-07
4.20448e-06
-1.22571e-07
4.23734e-06
-1.16557e-07
4.26972e-06
-1.1117e-07
4.30183e-06
-1.06251e-07
4.33381e-06
-1.01668e-07
4.36578e-06
-9.73127e-08
4.39781e-06
-9.30899e-08
4.42989e-06