/*--------------------------------*- C++ -*----------------------------------*\
| =========                 |                                                 |
| \\      /  F ield         | OpenFOAM: The Open Source CFD Toolbox           |
|  \\    /   O peration     | Version:  2112                                  |
|   \\  /    A nd           | Website:  www.openfoam.com                      |
|    \\/     M anipulation  |                                                 |
\*---------------------------------------------------------------------------*/
FoamFile
{
    version     2.0;
    format      ascii;
    arch        "LSB;label=32;scalar=64";
    class       volScalarField;
    location    "0.077";
    object      nut;
}
// * * * * * * * * * * * * * * * * * * * * * * * * * * * * * * * * * * * * * //

dimensions      [0 2 -1 0 0 0 0];

internalField   nonuniform List<scalar> 
12225
(
0
0
0
0
0
0
0
0
0
0
0
0
0
0
0
0
0
3.60073e-09
0
0
0
0
0
0
0
0
0
0
0
0
0
0
0
0
0
1.16027e-09
0
0
0
0
0
0
0
0
0
0
0
0
0
0
0
0
0
1.11859e-09
6.12564e-08
0
0
1.37264e-09
0
0
0
0
0
0
0
0
0
0
0
6.88856e-10
0
4.27369e-09
0
0
0
2.79118e-07
0
0
0
0
0
0
0
0
0
0
0
0
0
0
0
0
0
0
0
0
0
0
0
0
0
0
0
0
0
0
0
0
0
0
0
0
0
0
0
0
0
0
0
0
0
0
0
0
0
0
0
0
0
0
0
0
0
0
0
0
0
0
0
0
0
0
0
0
0
0
2.90453e-07
2.10794e-09
0
0
0
0
0
0
0
0
0
0
0
0
0
0
0
0
0
0
0
0
0
0
0
0
0
0
0
0
0
0
0
0
7.26607e-07
0
0
0
0
0
0
2.11622e-07
3.00677e-07
0
0
0
0
0
0
0
0
0
7.96796e-07
0
0
0
0
0
0
0
0
0
0
0
0
0
0
0
0
0
4.41375e-07
0
0
0
0
0
0
0
0
0
0
0
0
0
0
0
0
0
2.56764e-07
7.19582e-07
7.89963e-08
0
0
0
0
0
0
0
0
0
0
0
0
0
0
0
0
2.12812e-07
2.03823e-07
0
0
0
0
0
0
0
0
0
3.0969e-07
1.15092e-07
0
0
0
0
0
0
0
0
0
0
0
0
0
0
0
5.87261e-07
7.6254e-07
2.66585e-07
6.79925e-09
0
1.48829e-08
5.93358e-08
0
0
0
0
0
0
0
0
0
0
0
1.94749e-07
2.27189e-07
7.20381e-08
0
0
0
1.03398e-07
1.07581e-06
1.0567e-06
0
0
5.10244e-07
3.86995e-07
2.6387e-08
0
0
0
0
3.06236e-08
7.41285e-08
3.76008e-08
5.19852e-08
1.98288e-07
3.70171e-07
4.80224e-07
0
0
0
1.48291e-06
1.38033e-06
2.0974e-06
2.35397e-06
1.0163e-06
1.09164e-06
1.2486e-06
7.32058e-07
1.6467e-07
1.33067e-07
4.08626e-07
6.48329e-07
7.60085e-07
7.38062e-07
5.98367e-07
4.50351e-07
3.9973e-07
0
0
0
1.39683e-06
2.17178e-06
1.72042e-06
9.23142e-07
1.54252e-06
1.93058e-06
1.85321e-06
1.22868e-06
8.70349e-07
6.71928e-07
4.73523e-07
2.83476e-07
1.53682e-07
0
0
0
0
0
0
0
0
0
0
0
1.01543e-06
1.1108e-06
4.23871e-07
6.24588e-08
0
2.11473e-07
5.73648e-07
0
0
1.53761e-07
4.39633e-07
5.42747e-07
1.03507e-07
5.3763e-07
1.31223e-06
0
0
0
3.12425e-08
6.47586e-07
2.12577e-07
0
0
7.8954e-08
3.16853e-07
2.72909e-07
5.16233e-07
1.1558e-06
1.22302e-06
7.23011e-07
4.85573e-07
1.01245e-06
2.02812e-06
1.28756e-06
0
0
0
3.0746e-07
1.95214e-07
2.83278e-08
7.90376e-10
5.00797e-08
1.26192e-07
4.10317e-07
2.97896e-07
1.02749e-06
1.24529e-06
6.82395e-07
3.02547e-07
4.90459e-07
9.79252e-07
1.59178e-06
1.47845e-06
1.09727e-06
9.59084e-07
7.87568e-07
6.02737e-07
4.47165e-07
2.9749e-07
1.49737e-07
2.21373e-08
1.78894e-07
2.15044e-07
7.60211e-07
8.57587e-07
6.30892e-09
0
0
1.42231e-07
4.7765e-07
8.89414e-07
1.10696e-06
1.10216e-06
1.02627e-06
9.66507e-07
8.60346e-07
5.88241e-07
1.99154e-07
0
5.24121e-07
2.98462e-08
7.97666e-08
1.15669e-07
0
0
0
2.77196e-07
6.26683e-07
8.45906e-07
9.02838e-07
7.47557e-07
2.01363e-07
0
0
1.86503e-07
1.85826e-07
1.44473e-07
2.08572e-08
2.75951e-08
8.85237e-09
0
0
0
0
0
2.65806e-10
0
0
0
0
0
0
2.19589e-10
4.54407e-10
7.01889e-11
0
0
0
0
0
0
0
0
0
0
0
0
0
0
0
0
0
0
0
0
0
0
0
0
0
0
0
0
0
0
0
0
0
0
0
0
0
0
0
0
0
0
0
0
0
0
0
0
0
0
0
0
0
0
0
1.04301e-05
2.63182e-05
0
0
0
0
0
2.40717e-06
3.60361e-06
2.26444e-06
4.23783e-07
0
0
0
0
0
0
0
0
0
0
0
0
0
0
0
0
0
0
0
0
0
0
3.50978e-08
1.35904e-07
2.22414e-07
2.60938e-07
2.78745e-07
2.65087e-07
7.19993e-08
0
4.24214e-07
8.68192e-07
2.55218e-07
0
0
0
0
0
0
0
0
0
1.03041e-06
4.95893e-07
0
0
0
0
0
2.38986e-08
0
0
0
0
9.60942e-07
7.68179e-06
1.46181e-05
2.09216e-05
2.58819e-05
3.07495e-05
4.12974e-05
2.72985e-05
3.7902e-06
0
0
9.33526e-07
2.20541e-06
9.47846e-07
6.20203e-07
3.9538e-07
1.62374e-07
0
0
0
0
0
0
0
0
0
0
0
0
0
0
0
0
0
0
0
0
0
0
0
0
0
0
0
0
0
0
0
0
0
0
0
0
0
0
0
0
0
0
0
3.07224e-07
4.11494e-07
3.24315e-07
2.17287e-07
1.31185e-07
7.72793e-08
3.99944e-08
1.07815e-08
0
0
0
0
0
0
0
0
0
0
0
0
0
0
0
0
0
0
0
0
0
0
0
5.06078e-08
4.95932e-08
0
0
0
0
0
0
3.66628e-08
3.32556e-07
2.15611e-07
9.73045e-08
4.54499e-08
4.00729e-08
5.89571e-08
4.72523e-08
6.59167e-09
0
2.12724e-08
5.5297e-08
0
0
0
0
0
0
0
0
0
0
0
3.17152e-06
4.97631e-06
3.92876e-06
1.28987e-06
0
0
0
0
0
0
0
0
0
0
0
0
0
0
0
0
0
0
0
0
0
0
0
1.27017e-07
2.60305e-07
3.2683e-07
3.62178e-07
4.23734e-07
2.16805e-07
0
7.81776e-07
1.82223e-06
1.12404e-07
0
0
0
0
0
0
0
0
0
0
3.12109e-07
2.13602e-07
0
0
0
0
0
2.15483e-07
1.09799e-06
1.58555e-06
2.68841e-06
7.7979e-06
1.57491e-05
2.26172e-05
2.42408e-05
2.56042e-05
2.27129e-05
1.40259e-05
4.09877e-06
0
0
0
0
1.89943e-06
9.08376e-07
7.88685e-07
5.29214e-07
1.84816e-07
0
0
0
0
0
0
0
0
0
0
0
0
0
0
0
0
0
0
0
0
0
0
0
0
0
0
0
0
0
0
0
0
0
0
0
0
0
0
0
0
0
0
0
0
0
0
0
0
0
0
0
0
0
5.71542e-09
4.82449e-08
1.03572e-07
1.55377e-07
1.57677e-07
6.7536e-08
0
0
0
0
0
0
0
0
0
0
0
0
0
0
0
0
0
0
0
0
0
0
0
0
1.54631e-07
1.86732e-07
9.27051e-08
3.80165e-08
2.81667e-08
4.47002e-08
4.02534e-08
1.13236e-08
0
1.56275e-09
5.15484e-08
3.63574e-08
0
0
1.15018e-05
9.34847e-06
4.83819e-06
1.19618e-06
0
0
0
0
0
0
0
0
0
0
0
0
0
0
0
0
0
0
0
0
0
0
0
0
0
0
0
0
0
0
0
0
8.42234e-07
1.67875e-06
2.08311e-06
2.62852e-06
2.58218e-06
1.16887e-06
2.28025e-06
4.90029e-06
1.594e-06
0
0
0
0
0
4.74881e-07
1.66375e-06
1.55035e-06
2.17613e-06
1.10632e-06
0
4.32561e-07
1.9374e-06
0
0
0
0
0
0
0
0
2.92133e-06
3.4156e-06
1.60627e-06
0
0
0
0
0
0
0
0
0
6.44141e-07
1.10882e-06
2.27182e-06
1.52094e-06
2.96638e-07
0
0
0
0
0
0
0
0
0
0
0
0
0
0
0
0
0
0
0
0
0
0
0
0
0
0
0
0
0
0
0
0
0
0
0
0
0
0
0
0
0
0
0
0
0
0
0
0
0
0
0
0
0
0
0
0
8.62662e-08
5.88048e-07
9.39552e-07
7.01243e-07
9.69814e-08
0
0
0
0
0
0
0
0
0
0
0
0
0
0
0
0
0
0
0
0
0
0
0
1.3808e-07
8.29178e-08
1.47526e-08
0
3.08956e-09
2.82348e-08
5.09149e-08
0
0
3.79975e-08
1.65343e-07
2.01044e-07
0
5.5115e-06
7.21267e-06
6.05939e-06
3.98704e-06
0
0
0
0
0
0
0
0
0
0
0
0
0
0
0
0
0
0
0
0
0
0
0
0
0
0
0
0
0
0
0
0
0
0
3.1098e-07
3.02457e-06
5.02305e-06
5.64316e-06
5.44482e-06
5.09578e-06
2.08132e-06
0
0
6.18919e-07
3.84882e-06
8.98867e-06
1.13831e-05
9.22308e-06
7.38771e-06
7.15142e-06
1.51739e-06
0
0
0
0
0
0
0
0
0
9.29505e-07
2.30073e-06
2.11389e-06
1.25026e-06
0
0
0
0
0
0
0
0
0
0
0
0
0
0
0
0
0
0
0
0
0
0
0
0
0
0
0
0
0
0
0
0
0
0
0
0
0
0
0
0
0
0
0
0
0
0
0
0
0
0
0
0
0
0
0
0
0
0
0
0
0
0
0
0
0
0
0
0
0
0
0
0
0
0
0
0
0
0
0
0
0
0
0
0
0
0
0
0
0
0
0
0
0
0
0
0
0
7.86985e-07
1.72785e-06
1.54706e-06
8.28611e-07
5.51054e-08
0
0
2.99238e-07
9.71149e-07
7.51723e-07
2.28483e-07
0
9.95134e-08
1.32607e-06
0
2.14684e-06
4.27448e-06
3.00234e-06
0
0
0
0
0
0
9.11631e-07
1.38119e-06
9.29024e-07
8.59469e-08
0
0
0
0
0
0
0
0
0
0
0
0
0
0
0
0
0
0
0
0
0
0
0
0
0
0
0
0
5.419e-07
6.16911e-07
0
0
0
0
4.85924e-07
6.56865e-07
3.18271e-07
0
0
0
0
0
0
0
0
0
0
0
0
4.54012e-07
1.32082e-06
2.12091e-06
2.08097e-06
1.90061e-06
2.1001e-06
2.30727e-06
1.70827e-06
0
0
0
0
0
0
0
0
0
0
0
0
0
0
0
0
0
6.694e-08
1.11452e-07
9.2954e-08
1.53147e-07
1.35928e-07
1.02348e-07
5.42147e-08
0
0
0
0
0
0
0
0
0
0
0
0
0
0
0
0
0
0
0
0
0
0
0
0
0
0
0
0
0
0
0
0
0
0
0
5.45599e-08
1.08524e-08
0
0
0
0
0
0
0
0
0
0
0
1.85804e-07
1.16766e-07
0
0
0
0
0
0
0
0
0
0
0
0
0
0
0
0
0
0
0
0
1.80257e-06
6.8067e-06
7.02825e-06
5.45503e-06
3.43933e-06
1.44469e-06
0
1.52645e-06
5.59586e-06
7.1907e-06
7.03057e-06
6.02428e-06
3.35297e-06
0
0
0
0
0
0
0
0
0
0
0
0
0
0
0
0
0
0
0
0
0
0
0
0
0
0
0
8.08192e-08
3.86392e-07
6.45679e-07
8.16893e-07
8.50987e-07
7.37003e-07
4.40179e-07
0
0
0
0
0
0
0
0
0
0
0
0
0
0
0
4.43897e-08
0
0
0
0
0
0
0
0
0
0
0
0
0
0
6.61264e-07
9.77985e-07
1.39459e-06
1.93232e-06
2.55201e-06
3.58741e-06
5.21353e-06
7.31006e-06
9.60375e-06
1.14799e-05
9.47651e-06
0
0
0
0
0
0
0
0
0
0
0
0
0
7.67512e-08
0
0
0
0
0
0
0
0
0
0
0
1.40585e-08
0
0
0
0
0
0
0
0
0
0
0
0
0
0
0
0
0
0
0
0
0
0
0
0
0
0
0
0
0
0
0
0
0
7.26739e-08
1.25406e-07
1.52754e-07
8.81452e-08
0
0
0
0
0
0
0
8.87412e-07
1.00075e-06
2.64226e-07
0
0
0
0
0
0
0
0
0
0
0
0
0
0
0
0
0
1.35465e-07
4.86022e-06
0
1.24375e-05
1.19433e-05
8.29123e-06
4.93919e-06
1.96731e-06
8.36247e-07
4.26493e-06
6.35688e-06
6.36743e-06
6.52912e-06
5.80145e-06
2.76869e-06
0
0
0
0
0
0
0
0
0
0
0
0
0
0
0
0
0
0
0
0
0
4.74875e-08
2.28097e-07
4.43292e-07
6.79465e-07
9.53728e-07
1.2368e-06
1.46154e-06
1.59768e-06
1.61746e-06
1.46124e-06
1.0823e-06
4.80418e-07
0
0
0
0
0
0
0
0
0
0
0
0
0
0
2.66016e-07
7.99474e-07
0
0
0
0
0
0
0
0
0
0
0
0
0
0
0
0
0
5.34224e-07
1.82093e-06
3.68308e-06
6.37633e-06
1.009e-05
1.44425e-05
1.63971e-05
1.02473e-05
3.13677e-06
4.96283e-07
0
0
0
0
0
0
0
0
2.66391e-07
1.40196e-06
1.01386e-06
7.68688e-07
4.01923e-07
0
0
0
0
0
0
0
0
1.54061e-07
3.38882e-07
5.0766e-07
6.20578e-07
6.56974e-07
6.40331e-07
6.20071e-07
6.06558e-07
5.47347e-07
3.65099e-07
8.60429e-08
0
0
0
0
0
0
0
0
0
0
0
0
0
0
0
0
0
0
0
0
0
0
0
0
0
0
0
0
0
7.11882e-08
1.77218e-07
2.89934e-07
1.50166e-07
0
0
0
4.54682e-07
1.29423e-06
1.36622e-06
7.62668e-07
0
0
0
0
0
0
0
0
2.45968e-07
6.43102e-07
0
0
0
0
0
0
7.42328e-06
2.18646e-05
3.78114e-05
0
5.41803e-06
1.14934e-05
8.92279e-06
5.28602e-06
2.13781e-06
2.55457e-06
5.88401e-06
6.36906e-06
5.91699e-06
6.2702e-06
5.23065e-06
2.97397e-06
0
0
0
0
0
0
0
0
0
0
0
0
0
0
0
0
0
0
8.0978e-08
2.40644e-07
3.98056e-07
5.57859e-07
7.12947e-07
8.49447e-07
9.54656e-07
1.01773e-06
1.02247e-06
9.40567e-07
7.53708e-07
4.36141e-07
0
0
0
0
0
0
0
0
0
0
0
0
0
0
0
0
0
0
0
0
0
0
0
0
0
0
0
0
0
0
0
0
0
0
0
0
6.90678e-07
2.45248e-06
4.26051e-06
5.68895e-06
6.15386e-06
5.22087e-06
3.28787e-06
1.33736e-06
0
0
0
0
0
0
0
0
0
8.41889e-07
3.55244e-06
2.91943e-06
1.84375e-06
1.0566e-06
2.48064e-07
0
0
0
0
9.24892e-08
9.87004e-08
8.96715e-08
1.16453e-07
1.9962e-07
3.39023e-07
5.22701e-07
7.37603e-07
9.81534e-07
1.26881e-06
1.60592e-06
1.90503e-06
2.01277e-06
1.82017e-06
1.38743e-06
7.93869e-07
5.03954e-08
0
0
0
0
0
0
0
0
0
0
0
0
0
0
0
0
0
0
0
0
0
0
0
0
0
0
0
0
0
0
2.50478e-07
5.19465e-07
8.20301e-07
1.20329e-06
1.53966e-06
1.57431e-06
1.24605e-06
6.80088e-07
5.07431e-08
0
0
0
0
0
0
0
1.46121e-07
4.44046e-07
0
0
0
0
0
5.62484e-06
2.57811e-05
4.73479e-05
2.72292e-05
0
0
6.81274e-06
7.22656e-06
4.84116e-06
2.70692e-06
4.60696e-06
6.99255e-06
6.47802e-06
5.39565e-06
6.22456e-06
4.32925e-06
2.59197e-06
0
0
0
0
0
0
0
0
0
0
0
0
0
0
0
0
0
0
0
0
2.24921e-07
7.68865e-07
1.22372e-06
1.58851e-06
1.87021e-06
2.0663e-06
2.18289e-06
2.22267e-06
2.19329e-06
2.09835e-06
1.91344e-06
1.60009e-06
1.1295e-06
5.24956e-07
0
0
0
0
0
2.01417e-07
8.00035e-07
1.19132e-06
1.44701e-06
1.59074e-06
1.45372e-06
9.61441e-07
1.58317e-07
0
0
1.23782e-06
3.66345e-07
0
0
0
0
0
0
0
0
0
0
0
0
0
0
9.49527e-07
2.00488e-06
2.43397e-06
2.31766e-06
1.96972e-06
1.5637e-06
1.07911e-06
5.04787e-07
0
0
0
0
0
0
0
0
0
2.31592e-06
3.03949e-06
1.5552e-06
7.4912e-07
3.22788e-07
7.61443e-08
0
3.91962e-08
3.6007e-07
3.57933e-07
2.77986e-07
1.80601e-07
8.54618e-08
8.19873e-09
0
0
0
0
1.79565e-08
4.74723e-08
1.41524e-07
3.34949e-07
6.06581e-07
8.46802e-07
9.50518e-07
9.39216e-07
8.12253e-07
4.53389e-07
0
0
0
0
0
0
0
0
0
0
0
0
0
0
0
0
0
0
0
0
0
0
0
0
0
0
0
0
0
0
0
2.52e-07
7.51687e-07
1.46934e-06
1.80925e-06
1.33099e-06
5.806e-07
1.05406e-07
0
0
0
0
0
0
0
0
2.09478e-07
4.40295e-07
0
0
0
0
0
5.53289e-06
2.2665e-05
3.10258e-05
6.36718e-06
0
0
2.5152e-06
4.03073e-06
3.44751e-06
3.00887e-06
5.99571e-06
7.52727e-06
6.51516e-06
5.86027e-06
5.37641e-06
3.86883e-06
7.41183e-07
0
0
0
0
0
0
0
0
0
0
0
0
0
0
0
0
0
0
0
0
9.37412e-07
2.01268e-06
2.98252e-06
3.82494e-06
4.54306e-06
5.1393e-06
5.63143e-06
6.03328e-06
6.37755e-06
6.68174e-06
6.91067e-06
7.02127e-06
6.99962e-06
6.79447e-06
6.50813e-06
6.30924e-06
6.24527e-06
6.15237e-06
5.98524e-06
5.81093e-06
5.54154e-06
5.04241e-06
4.39037e-06
3.62712e-06
2.60443e-06
1.13604e-06
0
0
1.03295e-05
9.96746e-06
3.93536e-06
1.54488e-06
2.06922e-07
0
0
0
0
0
0
0
0
0
0
1.77144e-06
2.69102e-06
2.66403e-06
2.14115e-06
1.45909e-06
8.99943e-07
6.05175e-07
4.6878e-07
2.91685e-07
0
0
0
0
0
0
0
0
2.99335e-07
2.73017e-06
1.04897e-06
1.61503e-07
0
0
0
8.71646e-08
8.53739e-07
2.03582e-07
7.8523e-08
9.01113e-08
7.84521e-08
4.34939e-08
0
0
0
0
0
0
0
0
0
0
0
0
0
3.64945e-07
8.55177e-07
1.02099e-06
6.56556e-07
4.51776e-08
0
0
0
0
0
0
0
0
0
0
0
0
0
0
0
0
0
0
0
0
0
0
0
0
0
0
0
0
0
1.58157e-08
2.66619e-07
7.1408e-07
8.04371e-07
0
0
0
0
0
0
0
0
0
0
6.9457e-08
4.55055e-07
5.98556e-07
0
0
0
0
0
0
0
0
0
0
2.44402e-07
1.11889e-06
1.06926e-06
1.19919e-06
1.9491e-06
5.93657e-06
7.06712e-06
5.88047e-06
5.52873e-06
4.65784e-06
3.68289e-06
0
0
0
0
0
0
0
0
0
0
0
0
0
0
0
0
0
0
0
0
1.06903e-06
2.11409e-06
3.08345e-06
3.93954e-06
4.67977e-06
5.29087e-06
5.74857e-06
6.06166e-06
6.24337e-06
6.36113e-06
6.50573e-06
6.61575e-06
6.5602e-06
6.2653e-06
5.76793e-06
5.07232e-06
4.4568e-06
4.14529e-06
4.03557e-06
3.81125e-06
3.24409e-06
2.3532e-06
1.08768e-06
0
0
0
0
0
0
2.48056e-05
1.63086e-05
8.07911e-06
3.8012e-06
1.141e-06
0
0
0
0
0
0
0
0
2.32144e-06
3.92848e-06
3.43134e-06
2.52929e-06
1.76492e-06
1.10402e-06
5.33838e-07
1.58613e-07
3.73892e-08
4.65007e-08
0
0
0
0
0
0
0
0
2.21656e-06
2.76072e-06
9.05591e-07
1.45459e-07
0
0
0
0
3.88881e-07
0
0
0
0
0
0
0
0
0
0
0
0
0
0
0
0
0
0
0
3.64724e-08
9.70861e-07
1.44561e-06
1.04914e-06
1.51411e-07
0
0
0
0
0
0
0
0
0
0
0
0
0
0
0
0
0
0
0
0
0
0
0
0
0
0
0
0
0
0
0
0
0
0
0
0
0
0
0
0
0
0
0
4.80717e-08
4.53361e-07
6.92485e-07
0
0
0
0
0
0
0
0
0
9.25995e-06
6.29168e-06
1.2342e-06
0
0
0
4.66595e-06
5.35014e-06
3.87284e-06
4.68176e-06
4.25568e-06
2.98861e-06
0
0
8.19079e-07
0
0
0
0
0
0
0
0
0
0
0
0
0
0
0
0
0
0
8.59498e-08
8.40909e-07
1.86915e-06
2.94638e-06
3.88949e-06
4.64085e-06
5.13567e-06
5.35777e-06
5.29256e-06
5.13176e-06
4.95273e-06
4.76706e-06
4.52221e-06
4.20876e-06
3.68859e-06
2.99084e-06
2.30415e-06
1.79065e-06
1.18441e-06
0
0
0
0
0
0
0
0
0
3.14725e-05
2.11143e-05
1.13384e-05
5.39601e-06
1.71732e-06
0
0
0
0
0
0
7.30672e-07
3.85951e-06
3.5138e-06
2.3236e-06
1.64762e-06
1.17472e-06
6.82337e-07
1.28842e-07
0
0
0
0
0
0
0
0
0
0
1.49453e-07
2.85957e-06
2.00812e-06
6.58656e-07
1.28734e-07
0
0
0
0
0
0
0
0
0
0
0
0
0
0
0
0
0
0
0
0
0
0
0
0
0
1.96975e-07
1.01788e-06
1.06651e-06
8.94691e-07
5.69769e-07
0
0
0
0
0
0
0
0
0
0
0
0
0
0
0
0
0
0
0
0
0
0
0
0
0
0
0
0
0
0
0
0
0
0
0
0
1.98088e-07
0
0
0
0
0
0
0
6.74209e-08
8.23104e-07
1.80626e-07
0
0
0
0
0
0
0
0
2.59548e-05
1.1137e-05
5.16064e-07
0
0
0
2.64908e-06
2.00846e-06
2.15114e-06
4.25641e-06
4.28053e-06
5.35146e-08
0
4.62596e-06
4.23097e-06
0
0
0
0
0
0
0
0
0
0
7.9017e-07
2.57397e-06
4.02186e-06
4.69841e-06
3.70088e-06
2.19466e-07
0
0
0
0
0
0
7.69511e-07
2.63046e-06
3.59292e-06
3.89657e-06
3.67883e-06
3.3121e-06
3.108e-06
3.07036e-06
2.90682e-06
2.51953e-06
2.00888e-06
1.43623e-06
6.8888e-07
0
0
0
0
0
0
0
0
0
0
0
3.93902e-05
2.48216e-05
1.40366e-05
7.37789e-06
3.28717e-06
8.09243e-07
0
0
0
0
3.06095e-06
3.78474e-06
1.72562e-06
8.06972e-07
6.56113e-07
6.33533e-07
4.58899e-07
2.15752e-08
0
0
0
0
0
0
0
0
0
0
1.31839e-06
2.09077e-06
9.46972e-07
1.51184e-07
0
0
0
0
0
0
0
0
0
0
0
0
0
0
0
0
0
0
0
0
0
0
0
0
0
0
0
1.0491e-06
1.12419e-06
8.8196e-07
1.00541e-06
1.18417e-06
7.23432e-07
0
0
0
0
0
0
0
0
0
0
0
0
0
0
0
0
0
0
0
0
0
0
0
0
0
0
0
0
0
0
0
0
0
0
3.94693e-07
4.62822e-07
7.04361e-08
0
0
0
1.15157e-07
0
0
0
9.97819e-07
4.78438e-07
0
0
0
0
0
0
0
6.27892e-07
3.73519e-05
1.0817e-05
0
0
0
0
0
0
1.74163e-06
4.05211e-06
4.67562e-06
0
0
7.47565e-06
8.24872e-06
2.77921e-06
0
0
0
0
0
0
0
1.57101e-06
4.72793e-06
7.88096e-06
1.10195e-05
1.41476e-05
1.58649e-05
1.02288e-05
0
0
0
0
0
0
0
0
0
5.01561e-07
2.45549e-06
2.77915e-06
2.19864e-06
1.63936e-06
1.39492e-06
1.3125e-06
1.11294e-06
5.56223e-07
0
0
0
0
0
0
0
0
0
0
0
0
8.68321e-06
2.17131e-05
2.07753e-05
1.539e-05
1.01041e-05
5.99727e-06
3.13877e-06
1.65713e-06
1.61967e-06
4.12082e-06
6.11857e-06
2.46472e-06
2.76981e-07
0
0
1.1656e-07
1.81601e-07
6.24297e-09
0
0
0
0
0
0
0
0
0
1.45748e-07
8.76643e-07
9.54921e-07
2.19939e-07
0
0
9.47226e-09
3.79476e-09
0
0
0
0
0
0
0
0
0
0
0
0
0
0
0
0
0
0
0
0
0
0
0
2.05176e-07
1.5244e-06
1.7366e-06
1.37671e-06
8.89963e-07
6.47698e-07
6.91738e-07
7.26693e-07
4.05833e-07
0
0
0
0
0
0
0
0
0
0
0
0
0
0
0
0
0
0
0
0
0
0
0
0
0
0
0
0
0
0
0
0
2.89236e-07
5.82105e-07
5.21752e-07
8.6721e-08
0
0
0
3.29277e-07
4.6265e-07
3.88539e-08
0
1.20738e-06
7.41351e-07
4.08877e-07
5.31998e-07
2.04288e-07
0
0
0
0
3.10652e-06
2.71954e-05
6.09388e-06
0
0
0
0
0
0
2.12455e-06
3.99356e-06
5.4395e-06
0
0
1.09691e-05
1.36382e-05
7.87989e-06
0
0
0
0
0
0
3.73664e-06
8.15317e-06
1.24807e-05
1.69633e-05
2.16008e-05
2.69972e-05
3.06053e-05
1.5921e-05
0
0
0
0
0
0
0
0
0
0
0
1.62975e-06
1.71631e-06
1.18779e-06
7.87883e-07
6.70317e-07
6.76496e-07
5.28381e-07
0
0
0
0
0
0
0
0
0
0
0
1.91699e-06
4.29948e-06
7.11984e-06
9.30856e-06
9.56381e-06
7.95585e-06
5.88217e-06
4.87386e-06
5.70022e-06
8.04575e-06
6.58733e-06
2.67217e-06
6.0418e-07
0
0
0
3.5924e-08
0
0
0
0
0
0
0
0
0
0
0
0
5.65356e-08
0
0
0
3.37536e-08
8.46629e-08
5.12412e-08
0
0
0
0
0
0
0
0
2.16038e-07
5.74349e-07
5.82157e-07
4.37818e-07
2.64011e-07
9.92296e-08
0
0
0
0
0
0
0
0
0
0
0
1.82088e-07
4.61202e-07
4.21422e-07
2.56839e-07
1.54315e-07
2.06702e-07
4.05537e-07
4.03543e-07
0
0
0
0
0
0
0
4.01405e-08
0
0
0
0
0
0
0
0
0
0
0
0
0
8.02998e-07
0
0
0
0
0
0
0
0
1.12864e-07
0
4.35473e-07
5.13248e-07
7.64979e-08
0
0
0
4.97629e-07
1.13812e-06
9.21279e-07
3.30512e-07
1.09862e-06
7.92967e-07
7.37471e-07
1.18374e-06
1.30331e-06
0
0
0
0
6.76531e-07
1.0942e-05
0
0
0
0
0
0
0
3.44076e-06
4.32085e-06
6.8054e-06
0
4.47836e-06
1.58128e-05
1.86989e-05
1.23742e-05
0
0
0
0
1.00513e-07
5.01587e-06
1.14418e-05
1.79478e-05
2.3071e-05
2.75507e-05
3.29673e-05
4.12681e-05
5.17377e-05
4.24314e-05
0
0
0
0
0
1.47255e-06
2.64121e-06
0
0
0
0
0
9.81378e-07
8.28141e-07
4.98506e-07
3.21425e-07
2.77303e-07
2.51694e-07
7.64309e-08
0
0
0
0
0
0
0
0
0
3.06699e-07
1.0775e-06
1.54383e-06
2.15132e-06
3.07732e-06
3.79782e-06
3.96421e-06
4.02557e-06
4.72384e-06
5.82268e-06
5.6891e-06
3.73722e-06
1.96019e-06
9.16715e-07
2.90155e-07
7.13958e-08
1.65489e-07
1.8356e-07
0
0
0
0
0
0
0
0
0
0
0
0
3.9339e-08
1.26354e-08
0
0
0
0
0
0
0
0
0
0
2.01069e-06
5.00467e-06
4.92363e-06
3.16452e-06
2.05911e-06
1.3875e-06
9.20017e-07
5.76566e-07
2.88401e-07
6.73627e-08
0
0
0
0
0
0
0
0
0
0
0
0
0
0
0
0
0
0
0
3.80171e-07
4.13538e-07
1.08749e-07
0
0
2.74368e-08
3.78407e-07
3.18497e-07
0
0
0
0
0
0
0
0
0
0
0
0
4.71493e-06
1.27853e-06
0
0
0
0
0
6.97395e-07
2.41188e-06
4.68426e-06
0
0
1.44442e-07
1.99346e-08
0
0
0
1.06056e-06
2.00038e-06
1.91952e-06
1.32721e-06
4.40894e-07
7.03489e-07
8.98765e-07
1.46278e-06
1.99616e-06
2.88052e-07
1.0433e-06
2.43418e-06
1.63295e-06
1.28526e-06
2.4612e-06
0
0
0
0
0
0
5.84861e-06
4.75851e-06
5.22533e-06
8.35703e-06
0
1.27445e-05
2.02599e-05
2.22043e-05
1.61166e-05
0
0
0
0
0
0
0
2.2873e-06
3.78436e-06
3.68214e-06
1.8378e-06
0
0
0
0
0
0
0
0
0
0
1.09075e-06
0
0
0
0
3.52633e-07
3.49646e-07
1.77602e-07
9.62719e-08
7.54004e-08
6.80183e-08
3.69492e-08
0
0
0
0
0
0
0
0
0
0
2.94065e-07
8.5553e-07
1.16395e-06
1.53247e-06
2.06837e-06
2.58007e-06
3.0454e-06
3.58473e-06
3.83938e-06
3.29753e-06
2.23816e-06
1.46975e-06
1.07908e-06
7.86054e-07
6.18008e-07
5.92936e-07
4.64268e-07
1.00915e-07
0
0
0
0
0
0
0
0
0
0
1.58086e-07
2.24287e-07
1.13063e-07
2.43142e-10
0
0
0
0
0
0
0
0
0
1.13714e-07
4.76626e-06
1.04209e-05
3.73788e-06
1.5567e-06
7.34396e-07
3.88099e-07
2.28632e-07
8.23958e-08
0
0
0
0
0
0
0
0
0
0
0
0
0
0
0
0
0
0
0
0
5.87359e-07
8.61034e-07
7.53934e-07
2.55464e-07
0
0
0
1.85516e-07
0
0
0
0
0
0
0
0
0
0
0
0
3.44701e-06
5.92501e-06
1.34753e-06
2.19497e-07
2.98911e-07
1.14309e-06
2.63359e-06
2.1826e-06
2.76255e-06
5.04949e-06
5.2327e-06
0
0
0
0
2.10761e-08
9.14562e-07
2.20833e-06
2.88842e-06
2.55926e-06
1.89609e-06
8.95676e-07
6.72363e-07
9.75793e-07
1.51048e-06
2.45853e-06
1.08954e-06
9.69191e-07
3.85418e-06
3.92327e-06
2.35931e-06
7.14234e-07
0
0
0
0
0
0
1.18289e-05
4.8138e-06
5.69195e-06
8.17774e-06
1.58693e-05
2.06452e-05
2.21727e-05
2.32561e-05
1.86392e-05
0
0
2.96381e-07
0
0
0
0
0
0
0
0
0
0
0
0
0
0
0
0
0
0
1.63211e-06
1.89385e-06
0
0
7.14088e-07
5.38605e-07
1.37327e-07
0
0
0
0
0
0
0
0
0
0
0
0
0
0
0
1.76108e-07
7.49181e-07
1.06888e-06
1.2339e-06
1.52262e-06
1.87735e-06
2.2215e-06
2.48425e-06
2.44358e-06
1.92635e-06
1.19617e-06
7.52796e-07
6.93105e-07
7.46413e-07
8.01641e-07
8.24796e-07
6.72278e-07
3.11798e-07
0
0
0
0
0
0
2.36011e-07
2.31978e-07
1.16128e-07
1.13223e-07
1.95342e-07
2.18953e-07
1.75374e-07
1.32687e-07
7.73722e-08
0
0
0
0
0
0
0
0
0
0
2.71007e-06
2.29312e-06
7.13407e-07
0
0
0
0
0
0
0
0
0
0
0
0
0
0
0
0
0
0
0
0
0
0
0
1.1445e-07
7.21553e-07
1.17893e-06
1.38284e-06
1.23518e-06
6.43074e-07
0
0
0
0
0
0
0
0
0
0
1.00182e-07
0
0
3.1887e-07
5.49285e-06
3.35773e-06
4.19157e-06
5.00022e-06
1.6326e-06
1.9716e-06
5.72108e-06
4.46923e-06
1.99272e-06
1.86082e-06
3.96924e-06
8.06288e-06
4.06487e-06
0
5.54485e-07
1.44522e-06
1.8917e-06
2.6666e-06
3.51749e-06
3.65821e-06
2.93944e-06
2.1564e-06
1.41186e-06
7.59467e-07
1.0216e-06
1.45224e-06
2.64423e-06
2.44452e-06
2.67371e-08
2.31407e-06
3.09438e-06
2.82771e-06
1.08593e-06
0
0
0
0
1.4976e-06
1.49045e-07
1.14411e-05
3.94153e-06
4.75611e-06
6.43746e-06
2.87132e-05
2.39898e-05
2.1284e-05
2.21889e-05
1.95552e-05
1.15451e-07
3.09528e-07
1.21467e-06
2.1459e-06
1.25492e-07
0
0
0
0
0
0
0
0
0
0
0
4.65421e-06
6.2589e-06
3.05428e-06
1.25377e-06
1.42104e-06
2.27152e-06
2.50678e-06
0
0
1.5408e-06
5.61098e-07
4.96172e-08
0
0
0
0
0
0
0
0
0
0
0
0
0
0
0
1.75783e-07
5.22071e-07
7.74633e-07
9.07913e-07
1.03885e-06
1.20863e-06
1.39606e-06
1.56276e-06
1.5456e-06
1.18192e-06
5.87493e-07
1.64969e-07
1.60861e-07
3.77368e-07
6.07938e-07
7.46974e-07
6.79799e-07
4.13285e-07
3.15616e-08
0
0
0
0
9.2935e-08
3.66696e-07
2.57287e-07
8.58597e-08
4.02822e-08
1.17071e-07
2.08106e-07
2.57742e-07
2.76028e-07
2.28278e-07
6.66977e-09
0
0
0
0
0
0
0
0
0
0
2.51667e-06
1.52367e-06
2.93773e-07
0
0
0
0
0
0
0
0
0
0
0
0
0
0
0
0
0
0
0
0
0
0
3.58389e-07
7.35537e-07
9.29638e-07
1.1462e-06
1.53802e-06
1.35886e-06
7.04816e-07
1.25858e-07
0
0
0
0
2.35121e-07
3.78391e-07
0
0
0
0
1.7598e-08
6.38388e-07
4.47936e-06
5.01748e-06
1.9464e-06
6.65894e-06
4.28908e-06
4.56043e-06
9.86141e-06
6.26048e-06
5.84736e-07
0
6.99215e-07
8.64787e-06
1.03827e-05
1.43463e-05
1.04654e-05
5.57882e-06
4.62085e-06
4.44952e-06
4.56442e-06
4.19423e-06
3.16809e-06
2.26304e-06
1.56497e-06
9.85559e-07
1.09072e-06
1.38128e-06
2.43566e-06
3.2678e-06
0
0
1.24768e-06
2.74761e-06
1.80314e-06
0
0
0
6.06944e-06
0
0
9.081e-06
2.71654e-06
2.85858e-06
4.26054e-06
3.03905e-05
2.24207e-05
1.85447e-05
1.97594e-05
1.89315e-05
4.93956e-07
9.27956e-07
2.20053e-06
3.05594e-06
1.85522e-06
1.76273e-07
0
0
0
0
0
0
0
0
0
0
1.15201e-05
7.06355e-06
3.59614e-06
2.09453e-06
2.11533e-06
3.18143e-06
5.60534e-06
2.0233e-06
3.60208e-06
1.44215e-06
4.01753e-07
2.48686e-08
0
0
0
0
0
0
0
0
0
0
0
0
0
0
9.43693e-08
2.36357e-07
3.45364e-07
4.38952e-07
5.05363e-07
5.74556e-07
6.46422e-07
7.3835e-07
8.44658e-07
8.80066e-07
6.85485e-07
2.52842e-07
0
0
5.63263e-08
2.83697e-07
4.71647e-07
5.06881e-07
3.7211e-07
1.08681e-07
0
0
0
0
0
1.15251e-07
1.39231e-07
2.2785e-08
0
9.34457e-08
2.25366e-07
3.14515e-07
3.50485e-07
3.03643e-07
5.76987e-08
0
0
0
0
0
0
0
0
0
0
1.72687e-06
2.78147e-06
1.757e-06
4.28809e-07
0
0
0
0
0
0
0
0
0
0
0
0
0
0
0
0
0
0
0
0
8.42751e-08
4.43616e-07
5.58303e-07
4.59264e-07
4.7716e-07
8.3737e-07
1.22162e-06
9.44384e-07
3.36887e-07
0
0
0
0
2.84217e-07
5.86225e-07
2.96972e-07
0
0
0
0
1.1389e-07
2.13776e-06
6.29392e-06
1.5187e-06
2.08138e-06
7.44112e-06
8.05013e-06
1.07762e-05
9.23254e-06
1.45294e-06
0
0
1.74992e-06
1.26001e-05
1.8401e-05
8.83687e-06
5.78648e-06
6.00942e-06
5.62527e-06
5.2753e-06
4.53349e-06
3.30954e-06
2.30544e-06
1.53112e-06
1.07903e-06
1.12791e-06
1.2971e-06
1.91445e-06
2.77735e-06
0
0
5.16907e-08
3.17518e-06
2.99286e-06
0
0
1.17156e-06
8.77951e-06
0
0
6.11615e-06
1.26515e-06
5.39397e-07
1.93516e-06
2.56928e-05
1.81757e-05
1.49022e-05
1.64612e-05
1.70434e-05
1.45148e-06
2.35296e-06
3.26953e-06
3.33705e-06
2.40943e-06
1.25245e-06
1.08104e-07
0
0
0
0
0
0
0
0
0
6.81353e-06
4.92815e-06
3.0613e-06
2.1511e-06
2.53129e-06
5.70289e-06
6.65226e-06
3.74603e-06
3.33357e-06
9.97527e-07
2.89468e-07
3.58309e-08
0
0
0
0
0
0
0
0
0
0
0
0
0
0
2.15711e-07
3.0199e-07
3.2864e-07
2.94067e-07
2.25966e-07
1.81089e-07
1.97615e-07
2.50842e-07
3.07603e-07
3.30493e-07
2.45015e-07
1.93605e-08
0
0
0
4.0568e-08
1.83078e-07
2.64577e-07
2.36362e-07
1.06287e-07
0
0
0
0
0
0
4.89031e-08
1.69276e-08
0
7.67509e-08
1.98084e-07
2.85631e-07
3.20286e-07
2.8145e-07
7.55604e-08
0
0
0
0
0
0
0
0
0
0
0
2.03839e-06
2.93561e-06
1.94973e-06
4.31912e-07
0
0
0
0
0
0
0
0
0
0
0
0
0
0
0
0
0
0
0
5.70727e-08
2.45194e-07
3.34752e-07
2.75745e-07
2.46242e-07
4.12827e-07
8.7003e-07
9.35438e-07
4.19292e-07
0
0
0
0
1.70053e-07
5.18527e-07
5.44748e-07
2.8863e-07
0
0
0
0
3.94082e-07
4.97735e-06
2.06244e-06
6.80516e-07
7.85429e-07
7.94995e-06
7.45018e-06
6.69053e-06
4.54884e-06
5.89887e-07
8.94974e-07
1.56868e-06
1.99154e-06
9.57252e-06
5.38008e-06
3.07994e-06
4.37202e-06
5.53763e-06
5.69697e-06
4.80709e-06
3.44584e-06
2.33768e-06
1.46884e-06
1.02009e-06
1.06504e-06
1.19339e-06
1.43658e-06
1.87101e-06
0
0
3.67292e-08
4.97011e-06
4.64629e-06
0
0
9.25565e-06
6.71508e-06
0
0
3.05271e-06
0
0
0
1.88093e-05
1.34009e-05
1.10618e-05
1.27484e-05
1.41399e-05
3.35916e-06
3.47277e-06
2.91316e-06
2.26333e-06
1.6613e-06
1.04355e-06
4.36884e-07
0
0
0
0
0
0
0
0
6.43062e-07
2.50056e-06
2.47445e-06
2.00014e-06
2.04764e-06
4.87585e-06
6.75556e-06
4.12956e-06
4.21187e-06
1.77552e-06
5.27465e-07
1.79316e-07
5.43425e-08
2.35084e-08
3.39111e-08
3.99454e-08
3.31227e-08
2.64385e-08
2.65757e-08
3.15741e-08
3.37481e-08
2.9241e-08
2.8392e-08
4.13539e-09
0
1.11501e-07
2.06244e-07
2.31113e-07
3.02026e-07
3.2131e-07
2.61481e-07
1.11462e-07
0
0
0
0
0
0
0
0
0
0
0
0
4.40131e-08
6.63377e-08
3.75229e-08
0
0
0
0
0
0
0
1.76541e-08
0
3.72138e-09
8.94301e-08
1.63063e-07
1.9808e-07
1.81464e-07
6.44148e-08
0
0
0
0
0
0
0
0
0
0
0
0
1.71014e-06
2.55615e-06
1.90729e-06
4.15905e-07
0
0
0
0
0
0
0
0
0
0
0
0
0
0
0
0
0
1.97283e-08
7.22268e-08
1.94185e-07
2.8457e-07
2.69985e-07
2.5288e-07
3.44153e-07
6.90604e-07
9.25266e-07
6.20365e-07
1.06983e-07
0
3.36292e-08
1.4587e-07
1.94124e-07
3.78623e-07
5.04952e-07
4.90212e-07
2.44346e-07
0
0
0
0
2.4496e-06
2.84899e-06
7.77775e-07
0
3.04176e-07
3.82333e-06
3.91653e-06
4.36907e-06
2.47664e-06
2.18692e-06
2.11577e-06
5.55621e-07
3.60345e-06
4.16236e-06
2.14347e-06
2.38185e-06
4.03945e-06
5.55262e-06
4.95023e-06
3.57651e-06
2.39489e-06
1.44463e-06
9.65042e-07
9.33399e-07
1.06913e-06
1.09702e-06
1.18928e-06
1.1985e-07
0
6.97941e-07
7.28288e-06
5.47269e-06
0
2.35822e-06
1.56966e-05
3.09121e-06
0
0
6.08475e-07
0
0
0
1.26485e-05
8.92825e-06
7.50085e-06
9.00151e-06
1.0529e-05
5.25972e-06
3.02946e-06
1.7084e-06
8.72324e-07
2.81611e-07
3.21281e-08
0
0
0
0
0
0
0
0
0
8.29579e-07
1.98439e-06
2.61867e-06
3.45764e-06
5.215e-06
4.70251e-06
3.07214e-06
3.02118e-06
2.61161e-06
8.96503e-07
3.45593e-07
1.49079e-07
8.11816e-08
7.64894e-08
7.98242e-08
7.41956e-08
6.42036e-08
5.60353e-08
4.90068e-08
4.70994e-08
5.13961e-08
5.46182e-08
5.90568e-08
8.33715e-08
1.29838e-07
2.46425e-07
4.09781e-07
3.16186e-07
1.73525e-07
1.97056e-07
1.73856e-07
4.54234e-08
0
0
0
0
0
0
0
0
0
0
0
0
0
0
0
0
0
0
0
0
0
0
0
0
0
0
0
1.30563e-08
2.0572e-08
4.38192e-09
0
0
0
0
0
0
0
0
0
0
0
0
0
8.94646e-07
1.789e-06
1.6443e-06
2.67516e-07
0
0
0
0
0
0
0
0
0
0
0
0
0
0
0
1.97508e-08
6.33044e-08
1.07095e-07
1.94503e-07
2.76275e-07
2.71964e-07
2.41402e-07
2.75634e-07
4.9628e-07
7.73109e-07
7.16972e-07
3.32577e-07
5.12152e-08
7.42505e-08
1.95848e-07
2.35438e-07
2.91891e-07
3.93997e-07
4.45754e-07
4.27958e-07
1.38721e-07
0
0
0
4.22486e-07
3.29505e-06
9.67104e-07
0
0
1.20022e-06
2.32728e-06
3.63938e-06
3.19714e-06
2.40941e-06
2.08817e-06
4.36901e-07
0
3.47235e-06
2.01542e-06
1.33136e-06
2.15577e-06
4.24115e-06
4.63173e-06
3.53384e-06
2.38258e-06
1.42042e-06
9.29563e-07
8.28818e-07
9.41135e-07
8.89432e-07
7.95286e-07
3.39295e-07
3.35704e-07
1.41957e-06
8.12384e-06
4.98538e-06
0
1.0439e-05
1.62046e-05
5.08099e-07
0
0
0
0
0
0
8.0337e-06
5.14575e-06
4.47385e-06
5.53147e-06
6.70675e-06
8.608e-06
1.67355e-06
6.19728e-07
0
0
0
0
0
0
0
0
0
0
0
1.10639e-07
1.55056e-06
2.69808e-06
3.75091e-06
3.58755e-06
2.97757e-06
2.20644e-06
2.27184e-06
2.62954e-06
1.18431e-06
4.60066e-07
2.17742e-07
1.32688e-07
1.20893e-07
1.21904e-07
1.09512e-07
9.37025e-08
8.95317e-08
8.75461e-08
7.46211e-08
5.68118e-08
4.94304e-08
5.36464e-08
6.53055e-08
8.60216e-08
1.44461e-07
2.71313e-07
4.63186e-07
4.98953e-07
1.45866e-07
0
0
0
0
0
0
0
0
0
0
0
0
0
0
0
0
0
0
0
0
0
0
0
0
0
0
0
0
0
0
0
0
0
1.80383e-07
7.25256e-07
6.48758e-07
0
0
0
0
0
0
0
0
0
0
0
0
8.92302e-07
1.03693e-06
0
0
0
0
0
0
0
0
0
0
0
0
0
0
0
3.86457e-08
9.23271e-08
1.36996e-07
2.03669e-07
2.75173e-07
2.82278e-07
2.51399e-07
2.527e-07
3.80012e-07
6.17878e-07
7.04129e-07
5.04556e-07
2.25107e-07
1.2537e-07
1.75249e-07
2.00273e-07
1.92208e-07
2.52846e-07
3.21651e-07
3.95387e-07
3.19538e-07
1.31426e-08
0
0
0
3.22001e-06
1.13718e-06
4.95124e-07
0
0
1.34337e-06
2.76404e-06
3.09133e-06
2.2395e-06
2.11596e-06
1.26969e-06
0
2.06864e-06
2.00155e-06
7.81994e-07
8.02846e-07
2.34117e-06
3.73247e-06
3.1998e-06
2.22743e-06
1.35509e-06
8.93754e-07
7.71555e-07
8.47633e-07
7.72102e-07
5.90455e-07
3.93655e-07
7.32978e-07
1.88342e-06
7.49739e-06
4.41457e-06
1.95083e-06
1.45303e-05
1.1721e-05
0
0
0
0
0
0
0
4.84972e-06
2.22683e-06
2.05306e-06
2.55704e-06
3.26294e-06
4.0791e-06
0
0
0
0
0
0
0
0
0
0
0
0
0
0
0
1.00547e-06
1.53509e-06
1.44174e-06
1.34813e-06
1.66741e-06
2.18497e-06
1.24044e-06
5.6818e-07
2.80418e-07
1.78751e-07
1.67709e-07
1.73256e-07
1.55438e-07
1.27006e-07
1.16669e-07
1.21056e-07
1.21729e-07
1.05548e-07
7.39898e-08
5.26463e-08
4.53436e-08
5.36534e-08
7.39119e-08
1.11561e-07
2.12362e-07
3.91332e-07
5.59452e-07
3.41384e-07
0
0
0
0
0
0
0
0
0
0
0
0
0
0
0
0
0
0
0
1.36799e-07
6.81757e-09
0
0
0
0
0
0
0
0
0
0
0
0
1.75892e-07
1.41115e-06
2.55424e-06
2.37294e-06
5.34839e-08
0
0
0
0
0
0
0
0
0
0
0
0
0
0
0
0
0
0
0
0
0
0
0
0
0
1.53851e-08
3.61139e-08
6.95015e-08
1.13434e-07
1.54736e-07