/*--------------------------------*- C++ -*----------------------------------*\
| =========                 |                                                 |
| \\      /  F ield         | OpenFOAM: The Open Source CFD Toolbox           |
|  \\    /   O peration     | Version:  2112                                  |
|   \\  /    A nd           | Website:  www.openfoam.com                      |
|    \\/     M anipulation  |                                                 |
\*---------------------------------------------------------------------------*/
FoamFile
{
    version     2.0;
    format      ascii;
    arch        "LSB;label=32;scalar=64";
    class       volSymmTensorField;
    location    "0.28";
    object      UPrime2Mean;
}
// * * * * * * * * * * * * * * * * * * * * * * * * * * * * * * * * * * * * * //

dimensions      [0 2 -2 0 0 0 0];

internalField   nonuniform List<symmTensor> 
12225
(
(0.0242092 0.000472534 0 0.00215397 0 0)
(0.0159467 6.23277e-05 0 0.000955816 0 0)
(0.0153357 -3.94957e-05 0 0.000663049 0 0)
(0.0150663 -6.48882e-05 0 0.000523776 0 0)
(0.0163806 -0.000108561 0 0.000440549 0 0)
(0.0198919 -0.000218103 0 0.000387426 0 0)
(0.0263404 -0.00045639 0 0.000358188 0 0)
(0.0364017 -0.00077216 0 0.00033577 0 0)
(0.0523797 -0.00145527 0 0.000346935 0 0)
(0.0756022 -0.00205713 0 0.00034543 0 0)
(0.113625 -0.00415745 0 0.00044111 0 0)
(0.167791 -0.00540362 0 0.00048022 0 0)
(0.262845 -0.0127257 0 0.000932312 0 0)
(0.400823 -0.0155775 0 0.00117897 0 0)
(0.657414 -0.04361 0 0.00346497 0 0)
(1.07114 -0.0520336 0 0.00503072 0 0)
(1.87878 -0.142499 0 0.0167297 0 0)
(2.99432 -0.0698922 0 0.0145779 0 0)
(0.0247557 0.000348542 0 0.00263511 0 0)
(0.0160992 0.00050316 0 0.00135201 0 0)
(0.0146658 0.000430899 0 0.000946446 0 0)
(0.0133966 0.000400623 0 0.000792939 0 0)
(0.0126852 0.000346862 0 0.000717342 0 0)
(0.0126651 0.000185226 0 0.000683167 0 0)
(0.013591 -9.59025e-05 0 0.000671977 0 0)
(0.015868 -0.000612847 0 0.000715045 0 0)
(0.0201139 -0.00134339 0 0.000776941 0 0)
(0.0275973 -0.00279453 0 0.00100366 0 0)
(0.0397494 -0.00473345 0 0.00126753 0 0)
(0.0607078 -0.00898442 0 0.0020738 0 0)
(0.0930799 -0.0145324 0 0.00308664 0 0)
(0.151376 -0.0279026 0 0.00607386 0 0)
(0.239303 -0.0456437 0 0.010154 0 0)
(0.412348 -0.0911346 0 0.0218851 0 0)
(0.682374 -0.148562 0 0.0344626 0 0)
(1.20228 -0.277046 0 0.0744853 0 0)
(0.0247097 0.000404306 0 0.0032722 0 0)
(0.0158806 0.0003608 0 0.00164429 0 0)
(0.0143522 0.000272227 0 0.00106496 0 0)
(0.013083 0.000182374 0 0.000879746 0 0)
(0.0125024 5.75077e-05 0 0.000807058 0 0)
(0.0125284 -0.000157533 0 0.000790064 0 0)
(0.0132371 -0.000533917 0 0.000835214 0 0)
(0.0148784 -0.00111435 0 0.000937504 0 0)
(0.0177965 -0.002071 0 0.00118391 0 0)
(0.0225418 -0.00346732 0 0.00154502 0 0)
(0.0298068 -0.00590055 0 0.00234526 0 0)
(0.0408823 -0.00942685 0 0.00349159 0 0)
(0.0569834 -0.015995 0 0.00618928 0 0)
(0.0812576 -0.0253284 0 0.0102965 0 0)
(0.115242 -0.0434368 0 0.0201259 0 0)
(0.166565 -0.0691369 0 0.0352462 0 0)
(0.236476 -0.117334 0 0.0670283 0 0)
(0.344872 -0.190564 0 0.116298 0 0)
(0.0238436 0.000145273 0 0.00359733 0 0)
(0.0150728 0.000112731 0 0.00188101 0 0)
(0.0136172 -3.50784e-05 0 0.0012392 0 0)
(0.012377 -0.000173216 0 0.00104842 0 0)
(0.0118312 -0.000363386 0 0.00100103 0 0)
(0.0119589 -0.000670732 0 0.00104155 0 0)
(0.0127814 -0.0011446 0 0.0011543 0 0)
(0.0144977 -0.00189543 0 0.00137958 0 0)
(0.0173721 -0.00302205 0 0.00174671 0 0)
(0.0219911 -0.00483666 0 0.00241014 0 0)
(0.0288631 -0.00757638 0 0.00348387 0 0)
(0.0391117 -0.0120372 0 0.00542763 0 0)
(0.0532573 -0.0187614 0 0.00874956 0 0)
(0.0731308 -0.0295715 0 0.0148983 0 0)
(0.0986955 -0.0456635 0 0.025822 0 0)
(0.131872 -0.0702461 0 0.0452533 0 0)
(0.171007 -0.106411 0 0.0788964 0 0)
(0.213819 -0.156305 0 0.132025 0 0)
(0.0227649 0.000485592 0 0.00392128 0 0)
(0.0141226 0.000480824 0 0.00217979 0 0)
(0.0127279 0.000218352 0 0.00140589 0 0)
(0.0114441 -4.80429e-05 0 0.00117336 0 0)
(0.0108738 -0.000343837 0 0.00114605 0 0)
(0.0110686 -0.000747804 0 0.00124364 0 0)
(0.0120331 -0.0013584 0 0.00146025 0 0)
(0.0138891 -0.00229605 0 0.00181829 0 0)
(0.0169257 -0.00375202 0 0.00241897 0 0)
(0.0216225 -0.00594394 0 0.00336845 0 0)
(0.0285366 -0.00931558 0 0.00496889 0 0)
(0.038357 -0.0143621 0 0.00755903 0 0)
(0.0517801 -0.0220646 0 0.0120169 0 0)
(0.0695001 -0.0334609 0 0.0194948 0 0)
(0.0919404 -0.0502168 0 0.0322875 0 0)
(0.118632 -0.0741406 0 0.0536988 0 0)
(0.148462 -0.106505 0 0.0880541 0 0)
(0.17605 -0.148425 0 0.145049 0 0)
(0.0237538 9.99438e-05 0 0.00455575 0 0)
(0.0144518 0.000115167 0 0.00268607 0 0)
(0.0131295 -4.79132e-05 0 0.00180687 0 0)
(0.0119852 -0.000244683 0 0.00154996 0 0)
(0.0114522 -0.000538149 0 0.00156117 0 0)
(0.0115538 -0.000991201 0 0.001737 0 0)
(0.0122925 -0.00168188 0 0.00206399 0 0)
(0.0138031 -0.00273461 0 0.00259232 0 0)
(0.0163708 -0.00433466 0 0.00343041 0 0)
(0.0203993 -0.00675239 0 0.00476057 0 0)
(0.0263911 -0.0103801 0 0.00688436 0 0)
(0.0348523 -0.0157641 0 0.0102888 0 0)
(0.0463458 -0.0237055 0 0.0158194 0 0)
(0.0611616 -0.0351509 0 0.024771 0 0)
(0.0795087 -0.0513721 0 0.0392328 0 0)
(0.100448 -0.0734329 0 0.0621622 0 0)
(0.122722 -0.10212 0 0.0978323 0 0)
(0.14233 -0.13639 0 0.15246 0 0)
(0.0237644 0.000262108 0 0.00484294 0 0)
(0.0145545 0.000168259 0 0.00321414 0 0)
(0.0132244 -1.49424e-05 0 0.00220061 0 0)
(0.0120482 -0.000270943 0 0.00191129 0 0)
(0.0114001 -0.000598783 0 0.00195682 0 0)
(0.0113343 -0.00107032 0 0.00221128 0 0)
(0.0119472 -0.00181085 0 0.00266747 0 0)
(0.0133539 -0.0029755 0 0.00339384 0 0)
(0.0157294 -0.00475254 0 0.00452896 0 0)
(0.0193178 -0.00739384 0 0.00629579 0 0)
(0.0244835 -0.0112616 0 0.00903965 0 0)
(0.0315682 -0.0168464 0 0.0133188 0 0)
(0.0409491 -0.0247933 0 0.0199787 0 0)
(0.052711 -0.0358886 0 0.0303828 0 0)
(0.0667858 -0.0509171 0 0.0463488 0 0)
(0.0822079 -0.0705246 0 0.0707486 0 0)
(0.0977968 -0.0945911 0 0.106671 0 0)
(0.110901 -0.121597 0 0.158749 0 0)
(0.0249239 0.000182903 0 0.00516581 0 0)
(0.0154109 1.16972e-05 0 0.00346148 0 0)
(0.0139905 -8.09769e-05 0 0.00241354 0 0)
(0.0126673 -0.000320161 0 0.00215211 0 0)
(0.0119307 -0.000709553 0 0.0022743 0 0)
(0.0119218 -0.00131012 0 0.00264668 0 0)
(0.012641 -0.00220365 0 0.00326937 0 0)
(0.0140497 -0.00351244 0 0.00423141 0 0)
(0.0162256 -0.005425 0 0.00569608 0 0)
(0.0193718 -0.00820161 0 0.00792121 0 0)
(0.0237798 -0.0121867 0 0.0112929 0 0)
(0.029684 -0.0178099 0 0.0164137 0 0)
(0.0372726 -0.0255772 0 0.0241335 0 0)
(0.0464094 -0.0360202 0 0.0357628 0 0)
(0.0568664 -0.0496023 0 0.0529314 0 0)
(0.0676989 -0.066463 0 0.078096 0 0)
(0.0781215 -0.0861019 0 0.113525 0 0)
(0.0862721 -0.106808 0 0.16261 0 0)
(0.0242957 6.23272e-05 0 0.00568707 0 0)
(0.0145512 -0.000195982 0 0.00382706 0 0)
(0.0131 -0.00037876 0 0.00272804 0 0)
(0.0120774 -0.000634419 0 0.0024786 0 0)
(0.0116008 -0.00105954 0 0.00263001 0 0)
(0.0116235 -0.00169775 0 0.00308376 0 0)
(0.0122075 -0.00262776 0 0.00386651 0 0)
(0.0134534 -0.00399625 0 0.0050856 0 0)
(0.0154844 -0.0060056 0 0.00691903 0 0)
(0.0184276 -0.00890073 0 0.00965038 0 0)
(0.0224369 -0.0129715 0 0.0136837 0 0)
(0.02757 -0.0185489 0 0.0196433 0 0)
(0.0338608 -0.0259941 0 0.0283476 0 0)
(0.0410952 -0.0356373 0 0.0410247 0 0)
(0.0489774 -0.0476587 0 0.059056 0 0)
(0.05673 -0.0618969 0 0.0844897 0 0)
(0.0638215 -0.0776213 0 0.118872 0 0)
(0.0691687 -0.0932703 0 0.164629 0 0)
(0.0245256 0.000215748 0 0.00591509 0 0)
(0.0146103 0.000108919 0 0.0042719 0 0)
(0.0131089 -0.000128577 0 0.00312476 0 0)
(0.011937 -0.000324426 0 0.00286449 0 0)
(0.0112111 -0.00065327 0 0.00311181 0 0)
(0.0109411 -0.00125473 0 0.00372721 0 0)
(0.0112039 -0.00220935 0 0.00472562 0 0)
(0.0120826 -0.00360681 0 0.00622996 0 0)
(0.0136387 -0.00558637 0 0.00844041 0 0)
(0.0159054 -0.00834649 0 0.011663 0 0)
(0.018933 -0.0121364 0 0.0163127 0 0)
(0.0227323 -0.0172227 0 0.0230059 0 0)
(0.0272891 -0.0238492 0 0.032503 0 0)
(0.0323914 -0.0321707 0 0.0459063 0 0)
(0.0377768 -0.0421644 0 0.064335 0 0)
(0.0428971 -0.0534849 0 0.0894317 0 0)
(0.0474363 -0.0653499 0 0.122166 0 0)
(0.0508784 -0.076405 0 0.164299 0 0)
(0.0233335 0.000225101 0 0.00649883 0 0)
(0.0137138 -5.40467e-05 0 0.00465709 0 0)
(0.0123449 -0.000302734 0 0.00351388 0 0)
(0.0112792 -0.000512426 0 0.00331612 0 0)
(0.0107449 -0.000830798 0 0.00361922 0 0)
(0.010608 -0.00138951 0 0.00434088 0 0)
(0.0108243 -0.0022938 0 0.00553388 0 0)
(0.0114485 -0.00363498 0 0.00732894 0 0)
(0.0125564 -0.00552751 0 0.00992862 0 0)
(0.0142041 -0.0081255 0 0.0136499 0 0)
(0.0164242 -0.0116097 0 0.0189024 0 0)
(0.0191691 -0.0161603 0 0.0262762 0 0)
(0.0223461 -0.0219082 0 0.0364492 0 0)
(0.0257543 -0.0288771 0 0.0503793 0 0)
(0.0291351 -0.0368985 0 0.0689206 0 0)
(0.032172 -0.0455596 0 0.0933628 0 0)
(0.0346729 -0.0540664 0 0.124209 0 0)
(0.0365283 -0.0613889 0 0.162787 0 0)
(0.0260155 0.00031831 0 0.0067133 0 0)
(0.0158775 -0.000160341 0 0.00515524 0 0)
(0.0142052 -0.000446018 0 0.00392817 0 0)
(0.0128587 -0.000610631 0 0.00369588 0 0)
(0.0120228 -0.000872237 0 0.00406293 0 0)
(0.0116085 -0.00137383 0 0.00492622 0 0)
(0.011556 -0.00218452 0 0.00632291 0 0)
(0.011835 -0.00335377 0 0.00838543 0 0)
(0.0124376 -0.0049695 0 0.0113246 0 0)
(0.0133883 -0.00714972 0 0.0154562 0 0)
(0.014711 -0.0100203 0 0.021172 0 0)
(0.016368 -0.0136774 0 0.0290174 0 0)
(0.0182633 -0.0181615 0 0.0395808 0 0)
(0.0202288 -0.0233934 0 0.0536734 0 0)
(0.0220847 -0.0291509 0 0.0719357 0 0)
(0.0236787 -0.0350073 0 0.0953818 0 0)
(0.0250123 -0.0402906 0 0.124214 0 0)
(0.0261455 -0.0441857 0 0.159469 0 0)
(0.0250793 0.000178195 0 0.00708773 0 0)
(0.0158542 -0.00016267 0 0.00561502 0 0)
(0.0142745 -0.000252675 0 0.0042454 0 0)
(0.0127373 -0.00033485 0 0.00399216 0 0)
(0.0118366 -0.000562345 0 0.00442317 0 0)
(0.0114738 -0.00102197 0 0.00538128 0 0)
(0.0114417 -0.00178497 0 0.00691294 0 0)
(0.0116408 -0.00289428 0 0.00917274 0 0)
(0.0120489 -0.00439922 0 0.0123818 0 0)
(0.0126709 -0.00636335 0 0.0168451 0 0)
(0.0135016 -0.00885064 0 0.0229198 0 0)
(0.0144896 -0.0118805 0 0.0310941 0 0)
(0.0155685 -0.0154268 0 0.0418578 0 0)
(0.0166345 -0.019327 0 0.0558942 0 0)
(0.01763 -0.0233561 0 0.0736532 0 0)
(0.0184625 -0.0270522 0 0.0959518 0 0)
(0.0193147 -0.0299308 0 0.122747 0 0)
(0.0201961 -0.0311899 0 0.15493 0 0)
(0.0250318 0.000209824 0 0.00830871 0 0)
(0.0155929 -0.000411996 0 0.00688186 0 0)
(0.014076 -0.000533664 0 0.0052729 0 0)
(0.0129071 -0.00065439 0 0.00491451 0 0)
(0.012287 -0.000985062 0 0.00538302 0 0)
(0.0119882 -0.00154727 0 0.0064854 0 0)
(0.0119413 -0.00235388 0 0.00822743 0 0)
(0.0121128 -0.00342942 0 0.0107375 0 0)
(0.0124568 -0.00481169 0 0.0142165 0 0)
(0.0129263 -0.00653414 0 0.018951 0 0)
(0.0134845 -0.00861714 0 0.0252558 0 0)
(0.0140808 -0.0110274 0 0.0335527 0 0)
(0.0146744 -0.0136939 0 0.0442221 0 0)
(0.0152056 -0.0164104 0 0.0578186 0 0)
(0.0156687 -0.0189399 0 0.0745974 0 0)
(0.0160869 -0.0208416 0 0.0952063 0 0)
(0.0166511 -0.0217263 0 0.1194 0 0)
(0.0175179 -0.0209284 0 0.147941 0 0)
(0.0246785 0.000109622 0 0.00952651 0 0)
(0.0153122 -0.000410569 0 0.00800921 0 0)
(0.0138265 -0.000384231 0 0.0062791 0 0)
(0.012779 -0.00041657 0 0.00591431 0 0)
(0.0121068 -0.000589212 0 0.006419 0 0)
(0.0115527 -0.000932051 0 0.00759711 0 0)
(0.0111588 -0.00147066 0 0.00944734 0 0)
(0.0109768 -0.00221322 0 0.0121026 0 0)
(0.0109711 -0.00315768 0 0.015756 0 0)
(0.0110824 -0.00428201 0 0.0206573 0 0)
(0.0112596 -0.00555055 0 0.0270599 0 0)
(0.0114452 -0.00688273 0 0.0353027 0 0)
(0.0116167 -0.0081723 0 0.0456452 0 0)
(0.0117612 -0.00921875 0 0.0585025 0 0)
(0.011924 -0.00980619 0 0.0739587 0 0)
(0.0122052 -0.0095963 0 0.0925078 0 0)
(0.0127974 -0.00829635 0 0.113761 0 0)
(0.0139237 -0.0054521 0 0.138383 0 0)
(0.0239747 -0.000184843 0 0.0106921 0 0)
(0.0157772 -0.000756635 0 0.0092756 0 0)
(0.0144836 -0.00107227 0 0.00728091 0 0)
(0.0131959 -0.00121353 0 0.00687849 0 0)
(0.012352 -0.00132939 0 0.00744329 0 0)
(0.0117321 -0.0015689 0 0.00872176 0 0)
(0.0113669 -0.00198888 0 0.0106942 0 0)
(0.0112585 -0.00255137 0 0.0134676 0 0)
(0.0112833 -0.00318829 0 0.0171978 0 0)
(0.0113115 -0.00382108 0 0.0220836 0 0)
(0.0112932 -0.00437605 0 0.0283064 0 0)
(0.011234 -0.00475482 0 0.0361153 0 0)
(0.01118 -0.00485473 0 0.0456703 0 0)
(0.0111984 -0.00450344 0 0.0572657 0 0)
(0.0113677 -0.00353425 0 0.0708741 0 0)
(0.0118448 -0.00169088 0 0.0868661 0 0)
(0.0127931 0.00121598 0 0.104785 0 0)
(0.0144575 0.005521 0 0.125204 0 0)
(0.0256918 1.20657e-05 0 0.0116189 0 0)
(0.0169944 -0.000803128 0 0.0109603 0 0)
(0.0150402 -0.000855142 0 0.00862721 0 0)
(0.0132833 -0.000724609 0 0.00791595 0 0)
(0.0122483 -0.000545738 0 0.00836643 0 0)
(0.0115546 -0.000460567 0 0.00966271 0 0)
(0.0110791 -0.000494766 0 0.011681 0 0)
(0.0107795 -0.000558859 0 0.0144373 0 0)
(0.0105725 -0.000534776 0 0.0180316 0 0)
(0.0103888 -0.000327043 0 0.0226245 0 0)
(0.010215 0.000124716 0 0.0283541 0 0)
(0.010099 0.000901591 0 0.0353902 0 0)
(0.010107 0.00208903 0 0.0437977 0 0)
(0.010337 0.00384278 0 0.0537559 0 0)
(0.0108594 0.00628818 0 0.0651524 0 0)
(0.0118269 0.00961452 0 0.0782606 0 0)
(0.0133599 0.0139197 0 0.092631 0 0)
(0.0156547 0.0194144 0 0.108744 0 0)
(0.0248467 6.83006e-07 0 0.0121478 0 0)
(0.0167447 -0.000420965 0 0.0113999 0 0)
(0.0146306 -0.000622015 0 0.00868661 0 0)
(0.0127144 -0.000709349 0 0.00783697 0 0)
(0.0116518 -0.000641961 0 0.00827484 0 0)
(0.0109117 -0.000489117 0 0.00953146 0 0)
(0.0103437 -0.000270546 0 0.0114209 0 0)
(0.00996501 6.90592e-05 0 0.0139286 0 0)
(0.00974909 0.00061052 0 0.0171273 0 0)
(0.00966253 0.00143435 0 0.0211297 0 0)
(0.00971855 0.00260062 0 0.0260149 0 0)
(0.00997781 0.00418722 0 0.0318776 0 0)
(0.0105091 0.0062616 0 0.0387241 0 0)
(0.0114223 0.00894337 0 0.0466505 0 0)
(0.0127834 0.0122925 0 0.0555156 0 0)
(0.0147476 0.0164481 0 0.0655126 0 0)
(0.0173837 0.0213978 0 0.0762575 0 0)
(0.0208726 0.0273325 0 0.0881151 0 0)
(0.0237102 0.000233425 0 0.0114521 0 0)
(0.0163013 -2.52795e-06 0 0.0112885 0 0)
(0.0144789 -0.000241796 0 0.00929637 0 0)
(0.0126135 -6.50347e-05 0 0.00837845 0 0)
(0.0115225 0.000347306 0 0.0084238 0 0)
(0.0107417 0.000798909 0 0.00923666 0 0)
(0.0102301 0.00130942 0 0.0106668 0 0)
(0.0100264 0.00197741 0 0.0126359 0 0)
(0.0101011 0.00288812 0 0.0151334 0 0)
(0.0104108 0.00410992 0 0.0182 0 0)
(0.0109459 0.00569313 0 0.0218689 0 0)
(0.0117538 0.00770064 0 0.026188 0 0)
(0.0129048 0.010177 0 0.0311378 0 0)
(0.0144998 0.0132013 0 0.0367653 0 0)
(0.0165941 0.0167889 0 0.0429422 0 0)
(0.0193104 0.0210181 0 0.0497966 0 0)
(0.0226887 0.0258396 0 0.057055 0 0)
(0.0268564 0.0313662 0 0.0649415 0 0)
(0.022417 0.000664894 0 0.0119484 0 0)
(0.0147443 0.000717344 0 0.0106992 0 0)
(0.0134338 0.000424957 0 0.00792736 0 0)
(0.0120334 0.000517644 0 0.00702059 0 0)
(0.0111309 0.000921751 0 0.00722364 0 0)
(0.0105613 0.00143468 0 0.00803315 0 0)
(0.0103437 0.00205291 0 0.009202 0 0)
(0.0104903 0.00287275 0 0.010656 0 0)
(0.0109629 0.00396937 0 0.0124242 0 0)
(0.0117173 0.00538631 0 0.0145695 0 0)
(0.0127471 0.00714844 0 0.0171248 0 0)
(0.014103 0.00929457 0 0.0201127 0 0)
(0.0158585 0.0118524 0 0.0235062 0 0)
(0.0181124 0.0148715 0 0.0273226 0 0)
(0.0209164 0.0183548 0 0.0314701 0 0)
(0.0243682 0.0223354 0 0.0360251 0 0)
(0.0284966 0.0267716 0 0.0408118 0 0)
(0.0333761 0.0317116 0 0.0459545 0 0)
(0.0248056 0.000389085 0 0.0113435 0 0)
(0.0162006 0.000332653 0 0.0103542 0 0)
(0.0144349 0.000291938 0 0.00775041 0 0)
(0.0130107 0.000510741 0 0.00659635 0 0)
(0.0120629 0.000914818 0 0.00641122 0 0)
(0.0115019 0.00142245 0 0.00681355 0 0)
(0.0113437 0.00205268 0 0.00758594 0 0)
(0.0115441 0.00287609 0 0.00862676 0 0)
(0.0120607 0.00394909 0 0.00991539 0 0)
(0.0128809 0.00530819 0 0.0114675 0 0)
(0.0140422 0.00697472 0 0.0132905 0 0)
(0.0156299 0.00897487 0 0.0153922 0 0)
(0.0177323 0.0113252 0 0.0177532 0 0)
(0.0204335 0.0140566 0 0.0203835 0 0)
(0.0237612 0.0171606 0 0.0232122 0 0)
(0.0277837 0.020658 0 0.0263091 0 0)
(0.0325072 0.0245117 0 0.0295465 0 0)
(0.0379421 0.028745 0 0.0329945 0 0)
(0.0260009 9.39267e-05 0 0.010309 0 0)
(0.0166311 0.000437431 0 0.00881456 0 0)
(0.0145234 0.000699148 0 0.00646942 0 0)
(0.0130376 0.00102566 0 0.0055663 0 0)
(0.0121803 0.00135367 0 0.00541506 0 0)
(0.0118164 0.00174527 0 0.00563946 0 0)
(0.0118848 0.0023124 0 0.00609891 0 0)
(0.0123251 0.00312792 0 0.00674843 0 0)
(0.0131119 0.00419788 0 0.00758236 0 0)
(0.0142612 0.00550502 0 0.00861186 0 0)
(0.0158295 0.00704148 0 0.00984054 0 0)
(0.0178941 0.00882399 0 0.011269 0 0)
(0.0205175 0.0108774 0 0.012881 0 0)
(0.0237579 0.0132401 0 0.0146765 0 0)
(0.0276257 0.015909 0 0.0165986 0 0)
(0.0321784 0.0189088 0 0.0186981 0 0)
(0.0374057 0.0222026 0 0.0208875 0 0)
(0.0433153 0.0258048 0 0.0231875 0 0)
(0.023607 0.000208575 0 0.00939043 0 0)
(0.0145994 -0.000108127 0 0.00780041 0 0)
(0.0131154 1.7279e-05 0 0.00558954 0 0)
(0.012159 0.000384431 0 0.0046628 0 0)
(0.0116268 0.000743069 0 0.00440613 0 0)
(0.0113168 0.00111148 0 0.00449614 0 0)
(0.0112441 0.00160137 0 0.00479155 0 0)
(0.011488 0.0022887 0 0.00523394 0 0)
(0.012132 0.00318021 0 0.00580309 0 0)
(0.0132307 0.00425692 0 0.00649943 0 0)
(0.0148133 0.00551439 0 0.00732649 0 0)
(0.0169059 0.00697653 0 0.00828662 0 0)
(0.0195252 0.00866794 0 0.00936725 0 0)
(0.0227114 0.010622 0 0.0105673 0 0)
(0.0264626 0.0128349 0 0.0118493 0 0)
(0.0308512 0.015321 0 0.0132491 0 0)
(0.0358789 0.0180461 0 0.0147082 0 0)
(0.041569 0.0210191 0 0.0162394 0 0)
(0.024102 0.000375967 0 0.00852773 0 0)
(0.0149557 0.000285823 0 0.00623964 0 0)
(0.0134913 0.000249557 0 0.0042859 0 0)
(0.0125393 0.00042557 0 0.00353442 0 0)
(0.0120202 0.000694771 0 0.00331503 0 0)
(0.0117535 0.00103043 0 0.00335408 0 0)
(0.0117575 0.00145918 0 0.00353264 0 0)
(0.0120918 0.00201363 0 0.00380504 0 0)
(0.0128187 0.00270584 0 0.00416128 0 0)
(0.013994 0.0035439 0 0.00460462 0 0)
(0.0156602 0.00454526 0 0.00513492 0 0)
(0.0178545 0.00573785 0 0.00574993 0 0)
(0.0206077 0.0071409 0 0.00644158 0 0)
(0.0239562 0.00877382 0 0.00721073 0 0)
(0.027903 0.0106265 0 0.00803243 0 0)
(0.0324977 0.0126976 0 0.0089332 0 0)
(0.0377501 0.0149554 0 0.00987678 0 0)
(0.0436403 0.0173922 0 0.0108619 0 0)
(0.0252228 0.000306122 0 0.00758387 0 0)
(0.0155333 -1.79143e-05 0 0.00553442 0 0)
(0.0137709 -6.94557e-05 0 0.00380866 0 0)
(0.0126156 0.000104626 0 0.00313255 0 0)
(0.0120488 0.000349849 0 0.00291197 0 0)
(0.0119145 0.000649395 0 0.00289444 0 0)
(0.0121816 0.00103416 0 0.00297025 0 0)
(0.0128005 0.00152772 0 0.00310788 0 0)
(0.0137445 0.00212883 0 0.00330411 0 0)
(0.0150325 0.0028344 0 0.00356128 0 0)
(0.0167163 0.00365145 0 0.00387769 0 0)
(0.0188741 0.0046016 0 0.00425121 0 0)
(0.0215841 0.00570834 0 0.0046777 0 0)
(0.0249194 0.00699401 0 0.00515639 0 0)
(0.0289022 0.0084569 0 0.00566881 0 0)
(0.0335793 0.0100955 0 0.00623778 0 0)
(0.038947 0.0118843 0 0.00683726 0 0)
(0.044961 0.0138174 0 0.00745768 0 0)
(0.0244222 -0.000219188 0 0.00648132 0 0)
(0.0158206 -5.05201e-05 0 0.00446613 0 0)
(0.0145057 -6.63785e-05 0 0.0030445 0 0)
(0.0133414 2.51202e-05 0 0.00248022 0 0)
(0.0125174 0.00017775 0 0.00226278 0 0)
(0.0120594 0.000386424 0 0.00219871 0 0)
(0.0120722 0.000679562 0 0.00219556 0 0)
(0.0125998 0.00106775 0 0.00222869 0 0)
(0.0136438 0.00154505 0 0.00230286 0 0)
(0.0151766 0.00210623 0 0.00242266 0 0)
(0.0171634 0.0027534 0 0.00258652 0 0)
(0.019599 0.00349869 0 0.00279029 0 0)
(0.022519 0.00435711 0 0.00302944 0 0)
(0.0259999 0.00534741 0 0.00330267 0 0)
(0.0300823 0.00647332 0 0.00359814 0 0)
(0.0348355 0.00773906 0 0.00393192 0 0)
(0.0402557 0.0091294 0 0.00428737 0 0)
(0.0463136 0.0106399 0 0.00465308 0 0)
(0.0254246 -0.000186548 0 0.00558745 0 0)
(0.0166189 -0.000208755 0 0.00354354 0 0)
(0.0152755 1.82051e-05 0 0.00240408 0 0)
(0.0143371 0.000293267 0 0.00199626 0 0)
(0.013794 0.000503312 0 0.0018571 0 0)
(0.0134665 0.000666318 0 0.00181297 0 0)
(0.0134602 0.000840013 0 0.00179849 0 0)
(0.0138994 0.00107169 0 0.00180048 0 0)
(0.0148303 0.00138133 0 0.00182432 0 0)
(0.0162389 0.0017729 0 0.00187525 0 0)
(0.0181027 0.00224724 0 0.00195272 0 0)
(0.0204346 0.00280745 0 0.00205367 0 0)
(0.0232796 0.00345643 0 0.00217528 0 0)
(0.0267055 0.0042043 0 0.00231731 0 0)
(0.0307291 0.00505067 0 0.00247275 0 0)
(0.0354131 0.00599729 0 0.00265502 0 0)
(0.0407507 0.00703629 0 0.00285314 0 0)
(0.0467032 0.00816267 0 0.00305423 0 0)
(0.0244231 -0.000426626 0 0.00482976 0 0)
(0.0168319 -0.000424263 0 0.00290949 0 0)
(0.0155406 -0.000300977 0 0.00195869 0 0)
(0.0145562 -0.000156375 0 0.0016446 0 0)
(0.0140658 -5.71153e-05 0 0.00150958 0 0)
(0.0138674 8.901e-06 0 0.00142727 0 0)
(0.0140074 9.17364e-05 0 0.00136094 0 0)
(0.0145405 0.000233454 0 0.00130735 0 0)
(0.015489 0.000444147 0 0.00127039 0 0)
(0.0168755 0.000713547 0 0.0012531 0 0)
(0.0187299 0.00103273 0 0.00125479 0 0)
(0.0210889 0.00140401 0 0.00127369 0 0)
(0.0239861 0.0018354 0 0.00130953 0 0)
(0.0274627 0.00233921 0 0.00136221 0 0)
(0.0315107 0.00292254 0 0.00142681 0 0)
(0.0361867 0.003587 0 0.00151309 0 0)
(0.0414994 0.00432735 0 0.0016136 0 0)
(0.0473954 0.00514377 0 0.00171681 0 0)
(0.0250356 -0.000869431 0 0.0035503 0 0)
(0.0162775 -0.000657899 0 0.00185112 0 0)
(0.0151223 -0.00051233 0 0.00125438 0 0)
(0.0144223 -0.000443635 0 0.00105792 0 0)
(0.014028 -0.000420916 0 0.00095954 0 0)
(0.0137756 -0.000401387 0 0.000894812 0 0)
(0.0137894 -0.00034934 0 0.000844107 0 0)
(0.0141982 -0.000261336 0 0.000806279 0 0)
(0.0150744 -0.000145387 0 0.00078207 0 0)
(0.0164474 5.00464e-07 0 0.000769836 0 0)
(0.0183255 0.000188792 0 0.000767014 0 0)
(0.0207311 0.000434238 0 0.000771995 0 0)
(0.0237169 0.000746813 0 0.000784573 0 0)
(0.027367 0.00112904 0 0.00080428 0 0)
(0.0317387 0.00157952 0 0.000828767 0 0)
(0.03695 0.00209242 0 0.000864277 0 0)
(0.0430554 0.00266423 0 0.00090574 0 0)
(0.0500348 0.00329328 0 0.000945261 0 0)
(0.0243832 -0.000587619 0 0.00259258 0 0)
(0.0161404 -0.000171456 0 0.0012897 0 0)
(0.0150385 -0.000140251 0 0.000961844 0 0)
(0.0138089 -0.000106432 0 0.000817473 0 0)
(0.0131053 -8.18768e-05 0 0.000726722 0 0)
(0.0130086 -5.11656e-05 0 0.000663711 0 0)
(0.0135511 -1.03324e-05 0 0.000615175 0 0)
(0.0147085 3.70129e-05 0 0.000575883 0 0)
(0.0164886 9.18526e-05 0 0.000543562 0 0)
(0.018962 0.000162107 0 0.000516867 0 0)
(0.0222405 0.000256479 0 0.000494814 0 0)
(0.0264661 0.000379507 0 0.00047656 0 0)
(0.0317922 0.000530828 0 0.000461822 0 0)
(0.0383719 0.000707868 0 0.000449449 0 0)
(0.0463107 0.000910952 0 0.000438465 0 0)
(0.0557579 0.00114005 0 0.000433692 0 0)
(0.0667619 0.00139517 0 0.000429592 0 0)
(0.0793453 0.00168417 0 0.000419084 0 0)
(0.0193946 -0.0351858 1.27326e-22 0.0734534 -2.82355e-22 4.34077e-38)
(0.14662 -0.0778005 -2.81479e-22 0.052742 1.10523e-22 4.27876e-38)
(0.365528 -0.110523 0 0.0609483 0 0)
(0.604364 -0.113691 0 0.0714651 0 0)
(0.823226 -0.107442 0 0.0826424 0 0)
(1.04674 -0.116153 -2.4289e-22 0.0941636 2.21142e-22 4.02973e-38)
(1.29499 -0.139915 0 0.106258 0 0)
(1.59877 -0.179873 0 0.109141 0 0)
(1.97507 -0.219015 0 0.105321 0 0)
(2.42633 -0.251384 0 0.0991105 0 0)
(2.93921 -0.271606 1.32248e-21 0.0907302 -3.30678e-23 3.73064e-38)
(3.4884 -0.274798 0 0.0804214 0 0)
(4.05457 -0.255378 0 0.0687711 0 0)
(4.60877 -0.214514 0 0.0614503 0 0)
(5.11917 -0.170404 0 0.055928 0 0)
(5.56967 -0.147517 1.76334e-21 0.0557879 1.39888e-22 3.44737e-38)
(5.98332 -0.1233 0 0.0636548 0 0)
(6.3225 -0.0818392 0 0.0676294 0 0)
(6.5845 -0.046275 0 0.0767922 0 0)
(6.76392 -0.0128541 0 0.0869192 0 0)
(6.90054 0.0161561 0 0.101057 0 0)
(6.99509 0.0406389 0 0.110541 0 0)
(7.05632 0.0791505 0 0.130365 0 0)
(7.11599 0.103142 -5.34825e-22 0.145788 3.50465e-22 3.02641e-38)
(7.19313 0.127431 9.91121e-22 0.167089 -2.95972e-22 2.97644e-38)
(7.28861 0.0985182 -1.42843e-21 0.172488 2.62355e-22 2.92699e-38)
(7.45845 0.0403902 -1.84347e-21 0.193041 2.36374e-22 2.87808e-38)
(7.69135 -0.0108977 0 0.206926 0 0)
(8.01157 -0.0883147 0 0.215016 0 0)
(8.42501 -0.152596 2.99214e-21 0.218007 -1.59916e-22 2.73455e-38)
(8.89929 -0.203127 3.33203e-21 0.206246 -1.13668e-22 2.68775e-38)
(9.44507 -0.263928 0 0.225017 0 0)
(10.0683 -0.329107 0 0.245658 0 0)
(10.7333 -0.383033 4.31909e-21 0.270814 -1.23179e-22 2.55058e-38)
(11.4212 -0.399956 0 0.270258 0 0)
(12.1349 -0.40375 0 0.27545 0 0)
(12.9152 -0.460126 -5.34014e-21 0.294912 1.10593e-22 2.41853e-38)
(13.7814 -0.503482 0 0.30999 0 0)
(14.7325 -0.538714 -6.04122e-21 0.317782 1.26424e-22 2.33329e-38)
(15.7759 -0.594357 -1.2862e-20 0.33461 2.81978e-22 9.16608e-38)
(16.9914 -0.654471 0 0.317924 0 0)
(18.3459 -0.707806 0 0.307258 0 0)
(19.7146 -0.716498 0 0.290917 0 0)
(20.9454 -0.623041 0 0.254197 0 0)
(21.9207 -0.507534 0 0.235263 0 0)
(22.6566 -0.417203 -1.94103e-20 0.238802 6.02206e-22 8.21055e-38)
(23.2126 -0.353608 -2.0661e-20 0.248795 5.60265e-22 8.05912e-38)
(23.6129 -0.310541 -2.17588e-20 0.251541 4.7263e-22 7.90985e-38)
(23.9618 -0.305621 0 0.235596 0 0)
(24.2643 -0.281024 2.32484e-20 0.227654 -3.76494e-22 7.61769e-38)
(24.792 -0.419332 0 0.207117 0 0)
(25.4129 -0.613986 -2.41521e-20 0.277694 5.18607e-22 7.3338e-38)
(25.9803 -0.580398 -2.4627e-20 0.254787 4.01067e-22 7.19503e-38)
(26.0373 -0.504899 0 0.334525 0 0)
(25.7567 -0.272168 0 0.237977 0 0)
(24.9971 0.0759274 0 0.251486 0 0)
(24.1066 0.0672205 -2.59637e-20 0.262223 2.45864e-22 6.66047e-38)
(23.4664 -0.0642997 0 0.241846 0 0)
(23.0356 -0.189001 0 0.213931 0 0)
(22.9338 -0.308919 0 0.212863 0 0)
(23.2942 -0.431115 0 0.24129 0 0)
(23.8355 -0.53475 0 0.242426 0 0)
(24.3464 -0.655135 0 0.256111 0 0)
(24.8863 -0.442275 0 0.19695 0 0)
(25.1561 -0.412238 0 0.247885 0 0)
(25.7427 -0.458566 3.2174e-20 0.217043 -4.25738e-22 5.5732e-38)
(26.5363 -0.491122 0 0.199788 0 0)
(27.5291 -0.487187 0 0.165754 0 0)
(28.6232 -0.473372 -3.45745e-20 0.138095 5.09115e-22 5.24415e-38)
(29.7694 -0.463089 -3.54853e-20 0.119527 4.78042e-22 5.13805e-38)
(30.8661 -0.458349 0 0.113273 0 0)
(31.8018 -0.491986 3.70887e-20 0.110376 -3.83958e-22 4.93117e-38)
(32.7258 -0.510139 -3.77198e-20 0.107698 3.88648e-22 4.83029e-38)
(33.4885 -0.455914 0 0.105068 0 0)
(34.0637 -0.378804 3.85857e-20 0.110894 -4.10743e-22 4.6335e-38)
(34.5739 -0.290032 0 0.120259 0 0)
(34.7694 -0.284778 0 0.144838 0 0)
(34.894 -0.228384 -3.85421e-20 0.126935 4.0977e-22 4.3503e-38)
(34.7022 -0.00954785 0 0.129987 0 0)
(34.3876 -0.0134868 3.7207e-20 0.129596 -1.48634e-22 4.16929e-38)
(34.1237 -0.0055912 0 0.110483 0 0)
(33.7898 0.013516 -3.55771e-20 0.102763 1.42503e-22 3.99441e-38)
(33.4059 0.0311797 -3.478e-20 0.0924667 1.36158e-22 3.90925e-38)
(33.0012 0.0348468 -3.39903e-20 0.0825559 1.37601e-22 3.82558e-38)
(32.5519 0.0423202 -6.63704e-20 0.0786514 2.60809e-22 1.49735e-37)
(32.071 0.019477 6.47122e-20 0.0748414 -2.26566e-22 1.46505e-37)
(31.5924 -0.0267535 0 0.0747271 0 0)
(31.0661 0.028715 0 0.0839999 0 0)
(30.4353 0.0831384 0 0.0848798 0 0)
(29.8751 0.0648571 5.83669e-20 0.0898632 -2.18306e-22 1.34141e-37)
(29.478 0.029771 5.702e-20 0.0815944 -2.4254e-22 1.31186e-37)
(29.2143 0.00431145 -5.5906e-20 0.0728441 2.6263e-22 1.28284e-37)
(29.0429 -0.0150332 0 0.0658217 0 0)
(28.9544 -0.0347349 5.42446e-20 0.0593789 -3.32765e-22 1.22635e-37)
(28.9378 -0.0524289 5.36495e-20 0.0544918 -3.80422e-22 1.19886e-37)
(28.9824 -0.0532048 5.31543e-20 0.0512888 -3.71377e-22 1.17187e-37)
(29.0114 -0.040125 0 0.0495093 0 0)
(29.0057 -0.0115048 0 0.0486292 0 0)
(28.8515 0.0252357 0 0.0487858 0 0)
(28.5488 0.0576965 5.01906e-20 0.0484537 -2.16676e-22 1.06866e-37)
(28.0721 0.0932118 0 0.0536571 0 0)
(27.3718 0.142777 0 0.0642486 0 0)
(26.4084 0.17253 -4.67198e-20 0.0715339 3.23335e-23 9.96054e-38)
(25.509 0.124008 0 0.0906881 0 0)
(24.8915 -0.000632798 0 0.0930169 0 0)
(24.6044 -0.0853257 -4.25745e-20 0.0966336 2.09433e-22 9.27329e-38)
(24.3479 -0.0829292 0 0.12474 0 0)
(24.3874 -0.156963 0 0.135004 0 0)
(24.7694 -0.224121 4.05237e-20 0.12316 -3.44259e-22 8.62335e-38)
(25.441 -0.248514 4.06776e-20 0.0995163 -3.83631e-22 8.41497e-38)
(26.1674 -0.229851 0 0.0839271 0 0)
(26.9119 -0.211603 -4.17756e-20 0.0784528 3.54324e-22 8.01018e-38)
(27.6372 -0.201479 0 0.0737563 0 0)
(28.3347 -0.186857 4.27963e-20 0.064164 -3.14578e-22 7.62065e-38)
(28.9017 -0.144634 0 0.0528039 0 0)
(29.2358 -0.0809661 4.26564e-20 0.0434695 -1.90569e-22 7.24571e-38)
(29.2711 -0.00796556 4.18709e-20 0.0367401 -1.10026e-22 7.06351e-38)
(28.9833 0.0665991 0 0.0321579 0 0)
(28.3668 0.137032 0 0.0291783 0 0)
(27.4408 0.195563 0 0.0278502 0 0)
(26.265 0.23857 0 0.0275329 0 0)
(24.9074 0.266559 0 0.0275836 0 0)
(23.423 0.281 0 0.0276808 0 0)
(21.8773 0.282371 0 0.0278644 0 0)
(20.3357 0.272037 2.18502e-20 0.0283141 1.08515e-22 5.72637e-38)
(18.8643 0.250914 -1.93854e-20 0.0292834 -7.37578e-23 5.57379e-38)
(17.5234 0.219642 0 0.030608 0 0)
(16.3624 0.181621 0 0.0311158 0 0)
(15.4011 0.143935 0 0.0304959 0 0)
(14.6427 0.10682 0 0.030485 0 0)
(14.0961 0.0686468 -2.60173e-20 0.030871 4.1583e-22 1.94247e-37)
(13.7596 0.0334191 0 0.0304846 0 0)
(13.6171 0.00201074 2.62912e-20 0.0301318 -5.43083e-22 1.8357e-37)
(13.6589 -0.0287953 -2.71349e-20 0.030699 5.69162e-22 1.78396e-37)
(13.8819 -0.0593782 0 0.0314062 0 0)
(14.2618 -0.0857633 0 0.0316435 0 0)
(14.7638 -0.105583 0 0.0316543 0 0)
(15.3522 -0.117804 3.14977e-20 0.03315 -5.58832e-22 1.58741e-37)
(16.0084 -0.13104 3.22707e-20 0.0389491 -5.32485e-22 1.5408e-37)
(16.779 -0.156473 0 0.045888 0 0)
(17.7029 -0.185014 3.31832e-20 0.0502226 -4.29355e-22 1.45049e-37)
(18.7004 -0.190186 3.36043e-20 0.0482057 -4.14579e-22 1.40677e-37)
(19.5801 -0.157755 -3.39643e-20 0.0416616 3.84298e-22 1.364e-37)
(20.2057 -0.102843 0 0.0356758 0 0)
(20.513 -0.0419167 0 0.0316816 0 0)
(20.4991 0.0158423 -3.21503e-20 0.0295192 2.34052e-22 1.24113e-37)
(20.2003 0.0632847 0 0.0292585 0 0)
(19.691 0.0934713 0 0.030413 0 0)
(19.0661 0.104282 0 0.0321769 0 0)
(18.4275 0.100953 0 0.0338581 0 0)
(17.8354 0.0919122 2.22918e-20 0.0352495 -2.46447e-22 1.05364e-37)
(17.3127 0.0828417 2.09385e-20 0.0359186 -3.00601e-22 1.01865e-37)
(16.8515 0.0779351 0 0.0355934 0 0)
(16.434 0.0760769 1.96596e-20 0.0351181 -3.33688e-22 9.51058e-38)
(16.0601 0.0739187 0 0.0356123 0 0)
(15.7404 0.069682 0 0.0369447 0 0)
(15.4835 0.0626302 1.90267e-20 0.0377208 -1.8159e-22 8.55387e-38)