/*--------------------------------*- C++ -*----------------------------------*\
| =========                 |                                                 |
| \\      /  F ield         | OpenFOAM: The Open Source CFD Toolbox           |
|  \\    /   O peration     | Version:  2112                                  |
|   \\  /    A nd           | Website:  www.openfoam.com                      |
|    \\/     M anipulation  |                                                 |
\*---------------------------------------------------------------------------*/
FoamFile
{
    version     2.0;
    format      ascii;
    arch        "LSB;label=32;scalar=64";
    class       volScalarField;
    location    "0.28";
    object      ddt0(omegaU);
}
// * * * * * * * * * * * * * * * * * * * * * * * * * * * * * * * * * * * * * //

dimensions      [0 0 -2 0 0 0 0];

internalField   nonuniform List<scalar> 
12225
(
205.759
2268.15
6907.09
13826.1
22240.3
31599.6
41743
52924.6
65642.2
80332.5
97261.1
116767
139564
166088
196347
229909
267286
305632
-1326.27
-4146.91
-6868.34
-8607.68
-9444.74
-9731.47
-9770.84
-9938.87
-10468.6
-11395.5
-12758.2
-14744
-17449.3
-20465.2
-23336.6
-25532.1
-26466
-22155.6
-207.659
-1132.25
-2734.73
-4719.17
-6720.79
-8610.18
-10350.3
-12171.4
-14302.8
-16846.2
-19942.1
-23836
-28768.7
-34648
-41405.4
-49009
-57255.3
-64472.5
-24.9699
-200.283
-586.305
-1237.41
-2125.36
-3144.32
-4289.96
-5578.64
-7195.02
-9096.25
-11308.8
-13977.9
-17365.9
-21536.3
-26586.4
-32610.1
-39559.8
-47068.9
-2.25853
-27.4872
-100.228
-244.926
-475.891
-785.829
-1182.82
-1669.85
-2178.57
-2799.4
-3514.01
-4324.14
-5788.06
-7561.29
-9699.57
-12248.7
-15226
-18534.7
-0.717694
-0.962234
-7.58254
-29.1975
-72.5739
-143.173
-246.841
-391.539
-564.892
-799.006
-1116.8
-1551.26
-1785.83
-2110.54
-2544.68
-3107.77
-3809.84
-4631.12
-0.85075
1.15021
4.92399
7.95487
7.91026
2.33914
-11.7641
-38.2673
-81.4063
-149.608
-255.45
-419.648
-552.045
-717.581
-916.729
-1148.92
-1414.19
-1715.87
-0.950736
0.528394
4.57355
10.3737
17.2486
24.368
30.5586
34.4646
34.882
30.2981
18.3034
-5.08994
-39.088
-85.431
-143.334
-210.612
-284.505
-365.608
-0.970331
-0.106181
3.08602
8.22558
15.0046
23.0347
31.7048
40.3696
48.6462
56.4694
63.8603
70.4716
76.7421
83.5862
91.8479
102.474
117.16
137.058
-0.942327
-0.595039
1.75829
5.96144
11.784
18.949
27.0223
35.5539
44.268
53.1351
62.3575
72.1006
82.8712
95.7705
112.035
132.904
159.919
194.148
-0.913182
-0.956017
0.707789
4.0618
8.91092
15.0357
22.1033
29.7579
37.7595
46.0319
54.6712
63.8604
73.9604
85.6289
99.7651
117.433
139.944
168.173
-0.888206
-1.12872
0.0687942
2.74011
6.73549
11.8931
17.9585
24.6414
31.7258
39.1069
46.7862
54.8502
63.5149
73.1743
84.3982
97.9154
114.664
135.267
-0.703246
-1.01053
-0.193919
1.85125
5.03898
9.25932
14.3227
19.9952
26.0833
32.4626
39.0688
45.8924
53.0102
60.6139
69.0079
78.6224
90.0377
103.641
-0.431342
-0.771264
-0.350996
1.04793
3.39384
6.61289
10.5692
15.0826
19.9864
25.1481
30.4586
35.8312
41.2126
46.5969
52.0351
57.6658
63.7039
69.8857
-0.335613
-0.664244
-0.517448
0.309667
1.84211
4.0528
6.85553
10.1164
13.6965
17.47
21.3089
25.0902
28.682
31.9403
34.7289
36.9461
38.2901
39.0371
-0.261633
-0.49167
-0.451091
-0.0557784
0.764572
2.02633
3.68692
5.65381
7.82038
10.073
12.3044
14.4058
16.2465
17.6168
18.3694
18.3019
17.3798
15.1669
-0.142546
-0.260338
-0.248535
-0.097668
0.222685
0.726264
1.39144
2.15852
2.94806
3.69475
4.32039
4.75432
4.93673
4.83755
4.3408
3.34264
1.68198
-0.84576
0.0016486
0.00800231
0.019182
0.0266491
0.010894
-0.053215
-0.192481
-0.438377
-0.821345
-1.37657
-2.11741
-3.06513
-4.23436
-5.6184
-7.20645
-8.99662
-11.015
-13.3227
0.161188
0.312581
0.32834
0.18821
-0.163557
-0.777704
-1.67888
-2.86654
-4.32203
-6.01683
-7.92173
-10.0021
-12.2221
-14.5442
-16.9304
-19.3458
-21.7591
-24.1546
0.281599
0.543794
0.537147
0.169605
-0.644639
-1.93041
-3.67016
-5.80288
-8.24098
-10.8897
-13.6532
-16.4456
-19.1933
-21.8389
-24.3434
-26.6838
-28.8435
-30.8254
0.364401
0.729374
0.633148
-0.122095
-1.55242
-3.61479
-6.22372
-9.24547
-12.5243
-15.9068
-19.2512
-22.4323
-25.3485
-27.9263
-30.1205
-31.9059
-33.2583
-34.1749
0.536338
0.899573
0.495022
-0.806858
-2.94713
-5.82763
-9.29658
-13.1411
-17.1305
-21.0462
-24.6901
-27.8919
-30.5183
-32.4783
-33.7271
-34.246
-34.0002
-32.9548
0.678909
0.854649
-0.0283731
-1.97291
-4.85428
-8.53192
-12.7645
-17.2166
-21.5446
-25.4383
-28.6229
-30.8763
-32.0481
-32.0682
-30.9758
-28.8865
-25.9489
-22.4422
0.711792
0.541168
-0.965554
-3.58685
-7.04848
-11.0536
-15.1448
-18.795
-21.5938
-23.2914
-23.7767
-23.1155
-21.612
-19.8621
-18.8501
-19.794
-24.4242
-35.4585
0.702309
0.107052
-1.55912
-3.14004
-3.70579
-2.67675
0.301662
5.14504
11.1222
17.0627
21.2195
21.3265
14.6298
-2.17919
-33.2632
-75.4205
-135.29
-218.421
0.663931
2.50322
9.91834
26.7208
54.3427
90.8107
131.432
169.534
195.659
204.588
189.087
142.231
58.0628
-67.9076
-239.888
-422.32
-639.177
-883.986
3.31236
42.3427
129.513
262.344
433.99
616.695
771.922
862.651
852.468
738.837
509.284
159.742
-309.48
-894.141
-1598.78
-2484.82
-3513.86
-4684.4
55.9653
349.755
908.544
1583.13
2221.81
2622.87
2661.43
2314.12
1625.7
612.023
-664.746
-2139.12
-3765.04
-5517.83
-7394.41
-9411.42
-11562.4
-13849.4
629.792
2198.68
3815.15
4786.86
4759.26
3830.05
2221.38
198.781
-2026.41
-4343.11
-6670.77
-8934.6
-11084.1
-13094.4
-14956.6
-16685.5
-18272.5
-19730.6
-59.4184
-1068.73
-3376.87
-6713.38
-10580.4
-14469.5
-17986.1
-20928.5
-23263
-25033.6
-26290
-27135.7
-27697.9
-28043.2
-28162.8
-28005.2
-27500.2
-26627.3
-11797.5
-15338.2
-24112.4
-32682
-38795
-42766.3
-45608.1
-48162.8
-50806.1
-53573.3
-56470
-59652.9
-63281.9
-67505.9
-72489.3
-78450
-85369.6
-84774.8
-84171.5
-82173.7
-79438.2
-79267.3
-80030.7
-78086.3
-73135.7
-66208.5
-58846.9
-53286.6
-51824.1
-55121.3
-83516.8
-108787
-137940
-202731
-294244
-375072
-429097
-470693
-524485
-607207
-721272
-871609
-1.05419e+06
-1.25595e+06
-1.4581e+06
-1.58296e+06
-1.41546e+06
-1.3497e+06
-1.22781e+06
-1.05413e+06
-835897
-581482
-299548
2147.51
316279
635350
956947
1.27766e+06
1.5893e+06
1.88805e+06
2.17285e+06
2.44415e+06
2.70276e+06
2.9357e+06
3.1156e+06
3.25912e+06
3.26782e+06
3.25338e+06
3.21037e+06
3.1357e+06
3.02854e+06
2.88792e+06
2.71365e+06
2.50425e+06
2.26099e+06
1.98557e+06
1.68041e+06
1.34802e+06
990655
609801
204147
-241974
-610351
-905523
-1.20948e+06
-1.48833e+06
-1.73476e+06
-1.94144e+06
-2.10604e+06
-2.19358e+06
-1.95231e+06
-911887
45816.2
813632
1.27154e+06
1.37979e+06
1.23731e+06
1.0064e+06
814369
738818
823153
1.06686e+06
1.37498e+06
1.55077e+06
1.34419e+06
579878
-695275
-2.16073e+06
-3.38827e+06
-3.74089e+06
-3.33573e+06
-3.0147e+06
-2.51707e+06
-1.91132e+06
-1.2601e+06
-592635
64999.5
687854
1.26026e+06
1.77148e+06
2.17947e+06
2.48482e+06
2.53625e+06
2.52898e+06
2.45943e+06
2.32952e+06
2.13255e+06
1.87614e+06
1.5667e+06
1.21114e+06
816917
386548
-79665.4
-522674
-761859
-994756
-1.1676e+06
-1.2801e+06
-1.32292e+06
-1.30459e+06
-1.21799e+06
-1.0625e+06
-849671
-592937
-300842
45804.8
546914
941720
1.25178e+06
1.49225e+06
1.67049e+06
1.7854e+06
1.83558e+06
1.82313e+06
1.75486e+06
1.64196e+06
1.49861e+06
1.33845e+06
1.17155e+06
1.00516e+06
845358
697358
565174
451070
355832
279182
219526
174773
143059
121744
105727
87407.6
58158.4
11683.7
-50859.6
-120069
-183580
-233577
-292557
-343942
-39080
-45384.4
-47206.2
-44198.7
-38596
-32399
-26745.9
-22122.8
-18679.7
-16388.8
-15104.6
-14642.3
-14843.1
-15603.9
-16885
-18693.4
-21201.6
-32458.5
-43007.8
-53686.3
-63758
-74042.5
-85823.8
-98087.1
-109481
-119167
-126909
-133165
-139469
-150961
-171795
-193744
-228934
-251611
-253516
-251943
-261230
-275817
-244286
-226644
-204940
-170318
-116774
-40776.7
59188.9
184640
326794
474109
626928
779689
926322
1.06058e+06
1.17645e+06
1.26849e+06
1.33138e+06
1.36082e+06
1.35483e+06
1.31012e+06
1.22556e+06
1.10448e+06
950282
766838
559543
348061
181442
33316.1
25776.6
21478.7
19801.1
20342.3
22486.9
26041.8
30512.1
35418.1
39893.2
43586.6
45865.9
46443.5
45631.2
44789.1
46676.5
55395.3
77555.1
110029
162076
233264
317203
396521
437036
376905
59498.7
-716120
-805055
-506394
-73803
339748
638477
740465
596477
250163
-172539
-612037
-991204
-1.2963e+06
-1.55043e+06
-1.71632e+06
-1.71375e+06
-1.44658e+06
-647256
-53974.8
466045
903612
1.24432e+06
1.46862e+06
1.62934e+06
1.68538e+06
1.60422e+06
1.40701e+06
1.11589e+06
764633
444302
186080
174054
167374
158909
141462
156507
171047
184252
195939
206528
217534
234607
248099
256214
261964
262778
250268
186998
137637
97617.4
52589.2
287.255
-58852.7
-124525
-236274
-414447
-422711
-335878
-196084
-26224.2
155316
329982
478264
582513
633103
632132
592227
529825
458997
389405
326046
270445
222298
181267
146819
117470
92396.1
71598.4
55771.9
45267.9
39410.6
36266.9
32636
24619.3
8618.99
-17346
-52249.9
-74426.4
-91523.9
-102604
-77483.2
-54143.9
-33364.2
-16346.6
-3752.77
4658.16
9638.84
12067.3
12713.9
12190.5
10957.2
9335.75
7526.76
5629.14
3661.54
1546.01
-869.311
-4930.88
-10946.4
-19175.8
-29819.1
-43093.6
-58901.3
-76875.2
-96597
-117686
-139988
-163412
-188897
-209588
-148701
-122447
-122496
-83970.1
-31809.6
21777.2
71009.5
119049
171465
231816
300918
377545
459263
542950
624971
700568
765879
817225
850680
862850
851374
815314
755415
674332
576912
469858
360523
256446
164289
88568
31465.4
-7185.55
-29652.8
-40089.5
-40900.9
-39647.9
-36294.2
-30959.6
-23673.3
-14103.7
-2456.39
10199.3
23231.1
36083.1
47633.6
56206.4
59713.8
55831.8
42479.3
18579.6
-14950.3
-53148.7
-68391.4
-54983.4
-13721.4
62267.3
171393
299523
415436
484660
471088
266578
91238.1
33890.8
59320.3
96618.2
72219.2
-79860.9
-388006
-810300
-1.25884e+06
-1.63505e+06
-1.82343e+06
-1.70233e+06
-1.22405e+06
-460367
343984
864279
1.20167e+06
1.38731e+06
1.43639e+06
1.3673e+06
1.20589e+06
990625
745273
506970
308228
167579
87488.8
54670.9
60153.2
68872.5
80025.2
92952.8
107019
122291
136850
149988
162529
176552
195520
217465
227949
241828
255096
269874
286805
304263
321015
335161
342882
339967
324471
294119
246241
146897
3077.01
-117511
-201861
-235143
-213567
-143782
-39010.3
83202.3
200848
293096
347217
361800
344287
306361
259491
212250
169801
134359
105773
82448.8
62721.9
45708.9
31496.3
20708.1
13851.2
10827.6
10771.3
12348.5
14155
14205.9
8090.19
-483.179
-14122.6
-111962
-65916.2
-28298.1
-632.879
17640.8
28059.6
32633.5
33301.6
31627.2
28704.9
25273.6
21812.3
18610.8
15823.3
13505.4
11638.1
10137.7
8842.92
6839.3
3946
-325.859
-6606.61
-15587.6
-27908.8
-44061.5
-64329.2
-88764
-117548
-149892
-182744
-203418
-92671.6
-67851.1
-9339.63
58290.8
116798
165081
208181
251431
298092
348565
401105
452859
500623
541199
571538
588840
590962
576528
545270
498314
438222
368849
294994
221759
153782
94577.7
46126.7
8867.91
-18063.8
-36409.2
-48269.1
-55583.2
-59669.9
-61199.4
-60625.3
-57982.5
-53320.3
-46838.2
-38446.8
-27574.3
-14162.5
998.646
18139.9
37621.3
59031.5
81184
101641
116197
118671
101446
57530
-14729
-98731
-146307
-166120
-145550
-75296.1
45551
197288
338738
435073
465853
396486
265044
129201
-14546.8
-201748
-476904
-852181
-1.27161e+06
-1.62617e+06
-1.78818e+06
-1.62146e+06
-1.04342e+06
-142926
664724
1.08508e+06
1.29694e+06
1.33821e+06
1.24677e+06
1.06437e+06
834996
600209
393187
232432
124192
62186.4
33121.4
22599.1
20278.2
16399.7
16031.3
19627.9
27253.6
37139.2
47317.5
56832.5
65322.1
72904.4
82306
93316.1
102042
110581
119228
129404
143623
163214
188359
218654
252160
285934
316101
339151
351369
348156
324769
268443
186005
88517.2
-7519.33
-84402.4
-127491
-128518
-87805.9
-15475.5
70927.6
151394
209313
236601
235035
212938
180618
146850
116998
93042.5
74448.5
59534.5
46671.4
35001
24606
16246.7
10816.2
8804.76
10138.8
14277
20084.3
25117.9
24450.6
15605.2
-76305.8
-29892.8
5550.11
27910.3
39201.2
42619.2
41161.9
37106.2
31967.5
26645.6
21636.1
17226.9
13561.2
10691.1
8610.05
7270.73
6589.65
6449.02
6123.69
5590.95
4410.64
2002.16
-2398.5
-9712.59
-20882.1
-36774.5
-58164.7
-85580.3
-117982
-151229
-172581
-83105.7
-28339.6
55136.2
123275
169545
203827
233519
262700
292975
323700
352698
377210
394557
402466
399267
384106
357165
319772
274340
224088
172575
123180
78631.7
40669
9926.13
-13914.8
-31810.3
-44990.2
-54624.3
-61606
-66475
-69450.2
-70493.6
-69497.5
-65894.9
-60768
-54417.6
-47049.8
-38779.3
-30004.9
-20765.3
-10090.2
2248.79
17222.4
36394.9
60742.7
90394.7
123353
153957
171440
159404
100556
-8884.81
-114401
-193795
-236900
-225890
-147924
-7892.92
159431
304648
393988
407237
316313
153652
-65339.4
-348782
-710599
-1.13024e+06
-1.5175e+06
-1.72555e+06
-1.60696e+06
-1.07384e+06
-187235
724375
1.10222e+06
1.25258e+06
1.23157e+06
1.08811e+06
874748
641968
429788
261877
144843
72354.9
31532
8901.72
-4841.03
-12728.2
-29317.3
-39512.8
-44349.7
-43529.1
-38511.3
-31412.8
-24571.7
-18419.2
-13790.8
-10601
-7799.05
-5807.97
-3899.08
-2351.79
-659.24
2228.34
8243.72
19267.6
36801.8
61590.9
93712.2
132986
178535
226910
273865
313557
339239
342767
316555
261927
185546
99085.4
17625.5
-43459.2
-72439.3
-65095.2
-26404.9
31387.4
91701.9
139173
164899
168207
154884
133185
110284
90606.2
75644.6
64738
56221.2
48498.7
40763.2
33228
26811.5
22494.5
20771.1
21437.7
23728.3
26763.8
28485.4
24053.6
-21079.8
6065.67
28035.6
39260.9
41652.8
38669.6
33114.9
26748.8
20503.8
14819.1
9904.12
5862.19
2730.14
507.383
-841.85
-1381.64
-1196.67
-395.133
628.42
1912.15
3069.63
3572.21
2751.91
-247.936
-6425.48
-16858.2
-32501.3
-53706.4
-79909.2
-108134
-129035
-89913.3
-17238.7
77091.5
137019
168776
189718
207264
223731
239467
253521
264085
269151
267073
256890
238490
212681
181134
146163
110348
76108.2
45322.3
19122
-2131.89
-18719.3
-31327.3
-40784.2
-47849.2
-53086.2
-56811.6
-59109.2
-59868.8
-58882.5
-56096.5
-51849.3
-44311.3
-35518.2
-25775.5
-15539.3
-5618.07
2937.55
9852.57
15569.7
19875.2
23866.8
29924.7
40787.5
59406.1
87930.5
126139
169072
201145
193184
110899
-20139.5
-143972
-246282
-299498
-279192
-175235
-8967.17
165980
294044
341611
291030
121945
-127257
-458091
-861004
-1.28151e+06
-1.59019e+06
-1.61018e+06
-1.21279e+06
-420837
528212
1.10249e+06
1.19044e+06
1.15392e+06
998257
781017
555622
360683
214792
118754
62121.2
30315.8
10014.7
-7672.14
-26398.6
-44503.2
-62587.4
-74863.2
-81364
-81436.9
-78122.3
-72919.8
-67500.1
-63032.7
-60227.1
-59966.1
-61309.7
-63637.2
-66951.1
-71274.1
-76224.7
-80996.2
-84238.7
-84363.7
-79736.3
-68841.8
-50253.7
-22482.6
15812.9
64716.6
122223
184745
246014
297606
325507
323903
291718
233494
159272
82977.4
19430.3
-19502.4
-28337.9
-9536.67
27351.1
69167.2
103455
122633
125698
116670
101804
86605
74417.3
66251.2
61352.3
58116.6
55011.3
51233
46872.1
42571.3
38953.6
36187
33866.9
31259.1
27774.6
22308
29869.1
28048.2
34875.7
36141.7
32251.1
25899.8
18995.1
12443.3
6543.81
1397.99
-2896.05
-6244.49
-8593.46
-9942.79
-10344.8
-9888.39
-8692.18
-7004.45
-4796.21
-2242.05
389.168
2714.02
4224.99
4258.72
1986.27
-3515.04
-12969.9
-26534
-43911.9
-63482.1
-82568.9
-100201
-28455.8
68956.3
120080
139951
151075
160237
168174
174273
177551
176860
171194
160039
143565
122655
98772
73726.6
49344.3
27130.1
8035.94
-7571.32
-19795.5
-29072
-35995
-41128.3
-44891.5
-47528.9
-49127.1
-49657.6
-49030.4
-47109.2
-43621.3
-38221.2
-31095.8
-21649.9
-10210.4
3082.2
17720.9
32748.6
46895.6
58866
67235.4
70845.3
69675.6
65423.6
61453.9
61818.8
70623.5
91440.9
127347
174824
215143
192876
86493.2
-53043.8
-201015
-317116
-363580
-312734
-166684
26449.4
191455
270075
237576
70887.8
-194319
-545015
-951347
-1.32867e+06
-1.51786e+06
-1.33995e+06
-728994
156111
946449
1.18545e+06
1.10819e+06
961765
750327
530235
341957
203902
115696
65964.9
39553.8
22797.8
6509.19
-13125.5
-36013.7
-60627.5
-79579.5
-93577.9
-101010
-103301
-101816
-97650.6
-93024.5
-88793.9
-87197.4
-87425.3
-89196.7
-92531.5
-97491.6
-104063
-111961
-120566
-128909
-135817
-140006
-140132
-134739
-122058
-100175
-67207.5
-22144.4
35108.9
102614
175825
241486
288447
307726
295316
253941
192792
125302
65687.7
25223.2
9267.85
16162.9
38209.4
64823.2
86467.4
97666
97882.2
90298.6
79489.8
69475.9
62659.5
59620.8
59518
60793.9
61926.7
61954.7
60598
58013.2
54403.9
49706.3
43415.5
34412.5
22596.9
65034.7
35489.4
31886.1
27171.8
20184.6
12699.2
5664.68
-705.559
-6439.75
-11456.3
-15538.7
-18487.3
-20199.6
-20675.9
-19999.1
-18312.4
-15808
-12750.4
-9346.65
-5737.61
-2117.32
1276.6
4131.04
6030.63
6441.66
4771.25
628.492
-5767.98
-13769.4
-22921.8
-36500.2
-105883
-52512.4
42955.2
87403.5
99076.2
104125
108564
111958
113059
110959
105143
95480.4
82299
66397.7
48941.7
31272.2
14665.4
85.3651
-11970
-21458
-28648.7
-33966.6
-37892
-40861.9
-43176.1
-44985.1
-46322.9
-47132.7
-47282.7
-46592.4
-44877.5
-41997.5
-37637.7
-30771.5
-22789.6
-11872.3
2221.85
19514.9
39676.3
61787.5
84089.5
103881
117998
123509
119854
110132
99255.4
92244.4
92956
105680
134655
183668
208594
163206
47717.8
-118105
-284829
-402069
-420978
-318088
-124766
74253.7
191276
181051
21250
-248473
-599157
-979648
-1.28121e+06
-1.33353e+06
-987523
-265548
561086
1.09535e+06
1.14708e+06
959352
760912
543854
353640
212646
122611
72952.5
48662.9
35369.4
22704
5598.31
-16313.1
-40635.5
-66799.9
-86227.7
-101646
-110518
-115090
-115512
-112496
-107995
-104373
-102003
-100827
-101248
-103533
-107875
-114292
-122492
-131860
-141549
-150639
-158240
-163488
-165458
-162948
-154302
-137727
-111050
-72182
-19605.3
47541.8
122073
194191
252186
285334
287572
260078
211201
153759
101083
63352.6
45162.7
44848.7
55996.1
70326.2
80916.5
84284.3
80590.4
72529.9
63615.3
56791.3
53684.8
54463
58130.9
63083.4
67696.9
70755.6
71591.3
69948.1
65684.9
58493.7
47639.1
31733
83408.1
33727.7
25648.3
18074.4
9703.98
1658.13
-5833.78
-12872
-19421.8
-25149.4
-29613.7
-32514.1
-33744.2
-33348.4
-31467.6
-28297.3
-24096.6
-19237.5
-14327.2
-9507.33
-4915.07
-695.376
3000.87
6008.85
8134.78
9186.95
9170.08
8781.9
9358.4
10765.3
6604.45
-101469
-79640.6
8923.83
48889.3
55632.5
57769.7
60404.7
62235.1
61708.3
58038.3
51153
41479.2
29796.3
17106.8
4478.82
-7122.79
-16997.5
-24829.7
-30686.3
-34876
-37799.7
-39879.2
-41495.9
-42917.4
-44278.2
-45627.2
-46987.6
-48367.3
-49688.9
-50732.1
-51107.5
-50272.9
-47985.9
-45424.8
-41385.9
-34748.1
-24948
-11168.4
7564.43
32025.8
62077.1
95699.2
128121
152377
162625
158781
146115
131936
121853
117837
122753
150654
178883
189811
127008
-19782
-211754
-391442
-491112
-457459
-290820
-67935.2
95652.5
122107
-10316.5
-277325
-610850
-944531
-1.15468e+06
-1.07999e+06
-623679
106544
785773
1.09201e+06
1.01959e+06
822593
597117
389135
237159
137198
81083.8
54550.5
42957.1
34439.7
22097.6
4082.58
-17920.6
-40550.6
-64917.8
-83648.6
-98572.4
-109817
-117029
-118818
-117554
-114295
-110151
-106285
-103233
-101631
-102092
-105028
-110501
-118109
-127055
-136363
-145115
-152626
-158448
-162272
-163690
-162061
-156216
-144126
-123293
-90727.1
-42486.1
20366.2
92775.8
165961
228289
268368
279275
261506
222817
175142
130452
97341.8
79197.3
74175.6
76873.1
81031.7
82006.1
78008.1
69949.1
60334.6
51985.7
47061
46547.2
50187.3
56740.8
64443
71505
76495.4
78483.4
76914.2
71324.3
61040.1
45053.7
87899.2
32191.8
19707.6
10540.8
1271.58
-7720.43
-16631.5
-25476
-33844.8
-41013.7
-46333.8
-49481.9
-50416.2
-49266.6
-46242.1
-41532.5
-35430.3
-28437
-21631
-15168.4
-9234.75
-3979.76
546.804
4396.62
7698.88
10663
13707.2
17979.4
25554
36319.5
43472.2
-84484.1
-101398
-25699.6
10828.9
14753.8
16167.5
19047.1
21245.6
21090.5
17957.7
12046.4
4055.83
-5068.21
-14329
-22841.8
-29957.9
-35348.1
-39029.5
-41283.9
-42496.9
-43049.7
-43290
-43464.1
-43653.7
-43829.9
-43962.8
-44127.1
-44541.5
-45395.9
-46662.5
-48090.3
-49021
-48558.7
-48723
-48605
-48307.1
-47323.5
-44310.4
-37040.2
-22427.6
2761.26
40292.9
87230.5
134954
170841
186807
183907
170185
157507
146785
139652
134585
152506
179329
166587
67020
-116423
-334398
-511894
-567957
-461270
-237916
-25779.6
54716.3
-33362.1
-277621
-579146
-853906
-973913
-802506
-301638
361510
870558
1.01643e+06
889079
681669
463040
288380
167281
94623.2
58797
45412.1
39493.5
32027.1
19075.7
1430.41
-17643.5
-35517
-55883.5
-72709.6
-86910.9
-99655
-108633
-113253
-114055
-111706
-107429
-102340
-97431.5
-93804.8
-92513.9
-94250.8
-99124.8
-106521
-115320
-124236
-132168
-138423
-142753
-145261
-146310
-146241
-144589
-140265
-131428
-115090
-86837.7
-43268.6
15091.6
84275.5
155979
218582
260647
275427
263644
232805
193759
156724
128424
110917
102100
97556.4
92865.2
85354.8
74694.3
62429.6
50990.9
42701
39082.1
40533.7
46344.4
54962.2
64425.9
72825
78630.8
80775.7
78475.1
70924.3
56983.8
82568.6
28096.1
14225.9
4855.25
-5372.18
-16074.7
-27448
-39076.4
-50006
-59120.8
-65649.2
-69333.3
-70250.2
-68638.2
-64818.3
-58848.8
-51066
-42037.3
-33093.7
-24414.3
-16477.2
-9582.32
-3771.73
1140.77
5539.78
9984.2
15264.1
22868.1
35475.5
53477.9
70760.3
-56422.4
-111723
-55398.1
-22782.5
-21013.1
-19374.1
-15122.9
-11502.6
-10352.1
-12141.1
-16493.1
-22587.8
-29441.2
-36104.7
-41812.7
-46074.4
-48706.6
-49826.1
-49757.4
-48889.9
-47579.9
-46082.1
-44446.4
-42487.4
-39929.8
-36611.8
-32687.4
-28790.4
-25573.4
-23299.8
-22182.2
-22172.8
-22834.2
-22357
-24473.1
-30076.6
-38748.5
-49094.4
-58573
-62960.5
-56427.5
-32259.7
11645
71599
132790
178293
198708
195531
188268
177016
163535
147903
143002
159092
171580
123629
-21402.4
-243684
-478163
-629866
-615353
-429183
-181209
-30655.3
-59065.8
-254481
-510769
-723345
-767546
-538846
-49675.8
507854
866400
914396
766120
561651
367189
220544
124384
70845.2
47190.6
39112.3
34704.6
26778
12552.4
-3975.53
-17619.9
-27362.2
-42962.3
-55942.9
-69708.3
-83074.4
-93919.2
-101008
-103919
-102972
-98975.6
-93030.2
-86566.4
-81299.7
-78827.3
-80173.2
-85417.3
-93627.6
-103261
-112615
-120285
-125460
-127972
-128186
-126915
-124918
-122536
-119883
-116272
-109695
-96631.6
-71246.6
-31034.3
24145.4
90581.2
159910
220514
261442
276912
268455
243462
211534
180944
156495
139021
126336
115062
102477
87596.1
71258.6
55490.7
42617.4
34500.3
32064.1
35131.5
42529.2
52404.8
62664.1
71385.8
77059.9
78555.7
74888.3
64810.7
64823
22203.4
10599.3
1422.86
-10447.7
-23692.6
-38264.8
-53159.1
-66916
-78157.1
-86078.8
-90528.8
-91722.4
-89932.9
-85573.9
-79037.1
-70212.2
-59813.3
-49128.2
-37197.9
-26575.2
-17449.9
-9837.4
-3475.76
2172.2
7913.63
14801.2
24489.4
39885.9
61889.5
86316
-22299.7
-107757
-76349
-49431.7
-50458.3
-48973.6
-43221.6
-37872.8
-35201.9
-35642.2
-38703.6
-43491.8
-48992.4
-54237.8
-58448
-61132.7
-62077.3
-61370
-59342.8
-56441.3
-53074.8
-49451.3
-45413.6
-40449.6
-33938.1
-25410.3
-14741
-3947.92
5615.39
13851.6
19286.6
22440.9
22534.2
24281.2
20450.2
10337.9
-5476.85
-25882.6
-48838.5
-70578
-85123
-82843.8
-59014.8
-7664.45
61498.3
130465
180626
204255
207000
200232
189676
171382
150219
146536
159950
147793
54022.5
-140109
-397106
-629068
-725735
-621966
-373491
-149336
-91212.6
-216737
-417373
-571414
-561140
-313008
126765
571042
814836
809407
658953
469632
300625
177000
98869.2
57133.3
39190.1
32530.7
27598.7
18912
5727.56
-6951.78
-15182
-20078.7
-30702.2
-39512
-51059.7
-63979
-76279.4
-85623
-90722.6
-91303
-87715.8
-81082.2
-73354.8
-66964.5
-64111.5
-66132.6
-72908.7
-83112.7
-94689.3
-105437
-113588
-118179
-119112
-116986
-112803
-107496
-102073
-97396.6
-93765.3
-90582.5
-86082.7
-74019.6
-50225.8
-11729.8
41797.1
106375
173176
230579
268555
282819
275955
255163
228653
202746
180501
161839
144771
127058
107522
86563.3
65874.4
47730.8
34231.1
26731
25552.8
29963.2
38380.5
48748.1
58962
67205.8
72055.6
72354.3
66813.3
25808.5
27618
12329.9
-159.434
-14126.6
-30354.6
-48206.5
-66153.4
-82430
-95549.8
-104735
-109937
-111487
-109788
-105156
-97830.2
-88070.9
-76252.8
-63638.1
-50590.8
-38119.7
-26891.1
-17306.3
-9298.36
-2400.57
4232.28
11772.7
22005.3
38081.9
63618
90630.3
10555.2
-90532.7
-86590
-67783.9
-73008.5
-73246.4
-66937.6
-60314.6
-56458.1
-56002.2
-58451.1
-62865.7
-68188
-73248
-77100.1
-79148.6
-78968.4
-76546.1
-72245.7
-66699.7
-60572.8
-54236.7
-47474.6
-39464.4
-29119.9
-15591.8
1103.1
19197.3
36850
52073.7
62819.6
64684.6
65181.3
65406.5
59304
46530.6
27472.9
2723.78
-26335.6
-56928.2
-84221
-101058
-98174.7
-67370.9
-8089.08
67641.2
138934
188543
212018
216108
210038
194590
167150
145186
146704
150090
100290
-46100.9
-287878
-565613
-767532
-782479
-589235
-315591
-151086
-180365
-314181
-415831
-372839
-134642
237230
579269
743257
712561
571336
402812
256414
150599
84425.8
48909.9
32653.6
25230.9
19027.8
10106.9
-987.967
-10208.2
-14405.6
-17844.2
-22012.6
-27658.7
-35941
-47070.1
-59653.6
-70580.9
-77529.2
-79342.7
-75896.2
-68454.3
-59615.2
-52579.1
-50129.3
-53748.1
-63091.4
-76331.8
-90746.1
-103520
-112522
-116735
-116243
-111936
-105074
-96901.5
-88617.3
-81069.6
-74857.1
-70398.7
-67971.8
-62971.9
-50931.7
-27299.6
11207.3
64693.9
128366
192617
245993
279861
291753
285259
267181
244242
220954
198987
177775
155842
132139
106833
81353.8
57896.2
38722.8
25552.2
19173
19315
24758.9
33635.9
43830.5
53360
60585.7
64204.4
62931.6
-3857.35
27127.5
13901.9
511.164
-15682.1
-34475.6
-54859.8
-75097.4
-93364.2
-108103
-118525
-124615
-126741
-125313
-120631
-112927
-102551
-90136.8
-76385.7
-62755.4
-49282.6
-36631.9
-25407.3
-15821.4
-7656.54
-272.694
7377.02
16992.1
31707.5
56326
83123.1
34115.1
-65399.5
-86763.5
-78030.5
-88574.7
-92823.3
-87993.5
-81475.3
-77417.9
-76947.7
-79754
-84967.5
-91530.3
-97228.2
-101401
-103170
-101809
-97213.5
-89810.3
-80484.7
-70273.7
-59909.8
-49417.7
-38028.6
-24519.1
-7838.67
11566.9
33337
55344.1
73955.8
88558.1
94563
94226.2
90125.8
81305
67130.8
47413
22236.9
-7710.32
-40661
-73130.8
-99269.7
-110527
-97106.2
-53039.8
16903.9
95679.9
162790
205964
224878
226219
214233
186442
152213
138208
142767
121281
22713.2
-176699
-456118
-731123
-873335
-791797
-528285
-265374
-170531
-220438
-272123
-212826
-2641.44
297643
555855
667394
628283
502694
356067
228870
136243
77337
44225.4
27258.6
17971
10377.1
1691.27
-7352.83
-13829.8
-14821.5
-15192.7
-16583.1
-19855.6
-26155.5
-35878.1
-47674.6
-59011.4
-66910.3
-69077.4
-64986.2
-56244.1
-46195.5
-38821.6
-37401.4
-43440.3
-56312.5
-73467.1
-91273.6
-106190
-115777
-119160
-116881
-110342
-101240
-91214.4
-81456.5
-72508.6
-64524.4
-57738.7
-53215.8
-49373.8
-43059.7
-29671.9
-4321.49
36239.3
91295.7
154735
216136
264652
293532
302225
295074
278224
256910
234122
210597
185737
158830
129973
100385
72141.2
47582.3
28710.2
16732.7
11844.5
13243.8
19353.7
28179.7
37697.6
46136.8
52076
54244.1
-25277.7
29228.8
18183.3
4117.66
-13771.7
-34026.3
-55372.8
-76399.3
-95598.5
-111437
-123016
-130190
-133244
-132551
-128431
-121176
-111234
-99397.8
-86753.8
-72876.1
-58964.7
-45591
-33344.2
-22612.3
-13470.5
-5632.68
1602.31
9605.3
21129.1
40755.7
64093.7
41513.8
-41346.1
-79648.2
-80853.6
-98728.5
-109754
-108791
-104331
-102073
-103504
-108282
-115387
-123269
-130000
-134727
-135936
-132771
-125027
-113208
-98459.8
-82261
-65915.9
-50061
-34440.3
-18102.2
36.7815
20230.1
41931.3
63546.5
82454.7
96468.1
104473
109584
106706
96541.8
80768.6
60150.2
34946.6
5529.93
-26982.7
-60045.7
-88993.6
-106499
-103171
-71105.5
-10319.3
67212.3
142223
198600
230082
239420
230868
203531
162768
135301
133415
126260
64346.8
-85966.9
-330313
-628651
-872336
-931525
-754933
-447856
-219453
-161827
-155597
-85988
89679.6
324041
517154
595250
557216
450008
324352
213376
130449
75588.6
42527.1
23512.7
11823.7
2822.63
-5547.61
-12805.3
-16963.6
-15558.2
-14929.5
-14871.9
-16258.5
-20821.5
-29414.2
-40870.9
-52288.5
-59971.8
-61144.1
-55293.2
-44552.7
-33071.7
-25584.8
-25822.2
-35277
-52709.5
-74486.9
-95822.1
-112394
-121615
-123017
-117797
-108026
-96017.3
-83953
-73426.8
-65068.5
-58430.7
-52460.4
-46629.9
-41417.1
-36015
-27439.5
-10948.7
18369.7
63084.7
120958
184248
242039
284748
307893
312705
303900
286762
265163
240958
214448
185392
153953
121202
89052.4
59833.1
35721.8
18267.1
8096.55
4847.3
7304.16
13696.8
22068.5
30598.8
37780.5
42342.9
-29781.1
32029.7
24586.1
11632.2
-6077.4
-26002
-46319.2
-66155.9
-84577
-100594
-113168
-121809
-126612
-127870
-125908
-120972
-113348
-103504
-92300.6
-82373.8
-68626.9
-55118
-42484.1
-31217
-21653.6
-13904.8
-7744.54
-2343.69
4318.01
15936.1
32061.5
31629.5
-32698.1
-74968
-85820.4
-110886
-128078
-132074
-133359
-136910
-143673
-152951
-163427
-173382
-181098
-185121
-183904
-176574
-163046
-144070
-121143
-96201.5
-71163.7
-47425.1
-25526.9
-5150.76
14522.6
34179.1
53860.7
72784.3
89386.2
102358
111983
117388
115087
106141
91487.5
71741.4
47438.3
19195.8
-11885.4
-43609.3
-71986.1
-90651.3
-91168.4
-65695
-12328.6
60567.2
136493
198724
237401
251632
244618
216376
171874
135134
125275
122297
84290.7
-23692.5
-217945
-492041
-784689
-970097
-934772
-676339
-353510
-170429
-84592.8
4494.38
150121
328429
471437
527954
496030
408196
302570
206036
130808
78190.7
43891.2
22081.5
7618.6
-3022.76
-11443.7
-17526.4
-20108
-17582.9
-17345.4
-16172.2
-16117.5
-19635.4
-27720.4
-38976.1
-49857.3
-56169.3
-55026.4
-46271
-32797
-19667.7
-12429.2
-15234.2
-29324.7
-52405.5
-79309.2
-103834
-120945
-128208
-125859
-115872
-100938
-83929.7
-67725.4
-54913.1
-47095.1
-44072.6
-43619.3
-42126.1
-38540.3
-33635.6
-26773.1
-15013
6344.89
41661.1
92010.4
153031
215411
268422
304431
321339
321762
310385
291537
267976
240883
210584
177439
142441
107343
74375.2
45779.5
23339.3
8047.26
-37.8273
-1735.36
1482.41
7817.96
15479.7
22914.1
28836.6
-11765.5
35038.9
30354.2
21316.7
9219.86
-5394.16
-21678.6
-37956.2
-53202.7
-67857.2
-80918.6
-91401.4
-99070.5
-104027
-106509
-106400
-103741
-98507.9
-90623.8
-80648
-75622.1
-62935.2
-50769.2
-39873.5
-30809.3
-24011.5
-19687.7
-17564.7
-16399.4
-13445.9
-6734.55
3795.07
-46052.6
-86309.6
-103006
-131474
-152155
-160834
-170253
-183492
-199791
-217286
-233804
-247084
-255038
-255893
-248419
-232335
-208355
-178059
-143641
-107557
-72143.6
-39247.7
-9938.65
15574.9
37765.4
57381.8
75008.4
90741.1
104180
114758
122240
125001
122880
115606
103105
85661.3
63757.5
38071.9
9748.44
-19099.6
-44756.9
-61417.9
-61562.4
-38289.8
10335.3
77738.3
149939
211191
250315
264163
254747
222883
174706
133002
117240
113102
87902
12755
-130902
-353710
-638546
-902969
-1.01669e+06
-889209
-565359
-274818
-90094.7
41118.1
176393