/*--------------------------------*- C++ -*----------------------------------*\
| =========                 |                                                 |
| \\      /  F ield         | OpenFOAM: The Open Source CFD Toolbox           |
|  \\    /   O peration     | Version:  2112                                  |
|   \\  /    A nd           | Website:  www.openfoam.com                      |
|    \\/     M anipulation  |                                                 |
\*---------------------------------------------------------------------------*/
FoamFile
{
    version     2.0;
    format      ascii;
    arch        "LSB;label=32;scalar=64";
    class       volVectorField;
    location    "0.28";
    object      ddtCorrDdt0(U);
}
// * * * * * * * * * * * * * * * * * * * * * * * * * * * * * * * * * * * * * //

dimensions      [0 1 -2 0 0 0 0];

internalField   nonuniform List<vector> 
12225
(
(0.109374 -0.0446314 0)
(0.641686 -0.0891949 0)
(1.46349 -0.104999 0)
(2.40625 -0.105404 0)
(3.35758 -0.0943048 0)
(4.31594 -0.084272 0)
(5.32312 -0.10761 0)
(6.42504 -0.164015 0)
(7.71756 -0.233544 0)
(9.25201 -0.316531 0)
(11.0448 -0.418115 0)
(13.1287 -0.554069 0)
(15.5769 -0.727491 0)
(18.37 -0.896193 0)
(21.3901 -1.03847 0)
(24.4691 -1.06878 0)
(27.457 -0.893158 0)
(29.9236 0.0666424 0)
(-0.0268855 -0.0790124 0)
(0.118958 -0.185565 0)
(0.532609 -0.265826 0)
(1.24143 -0.322177 0)
(2.20405 -0.368733 0)
(3.36888 -0.415653 0)
(4.69893 -0.465475 0)
(6.2214 -0.538338 0)
(7.95684 -0.649013 0)
(9.92964 -0.78593 0)
(12.15 -0.949178 0)
(14.6456 -1.16099 0)
(17.4978 -1.42295 0)
(20.7379 -1.66423 0)
(24.3456 -1.85455 0)
(28.2235 -1.94035 0)
(32.4136 -1.80855 0)
(36.3512 -1.17549 0)
(-0.00505531 -0.0952168 0)
(0.198453 -0.254408 0)
(0.570289 -0.385507 0)
(1.04424 -0.496521 0)
(1.65974 -0.601865 0)
(2.39649 -0.710502 0)
(3.34305 -0.827213 0)
(4.51554 -0.983836 0)
(5.92106 -1.18411 0)
(7.58324 -1.41823 0)
(9.50927 -1.68214 0)
(11.7261 -2.0181 0)
(14.3224 -2.43851 0)
(17.3498 -2.84483 0)
(20.7879 -3.20852 0)
(24.6481 -3.52486 0)
(28.8031 -3.66092 0)
(33.5482 -3.44844 0)
(0.00741682 -0.120156 0)
(0.187293 -0.323701 0)
(0.613218 -0.495217 0)
(1.17414 -0.648126 0)
(1.83115 -0.803078 0)
(2.62812 -0.96592 0)
(3.53887 -1.15507 0)
(4.61514 -1.38847 0)
(5.69462 -1.69632 0)
(6.9562 -2.04038 0)
(8.38668 -2.40986 0)
(10.01 -2.87532 0)
(11.8126 -3.43888 0)
(13.8425 -4.0132 0)
(16.0726 -4.58664 0)
(18.5243 -5.10507 0)
(21.2051 -5.47155 0)
(24.3447 -5.3328 0)
(0.0176958 -0.145947 0)
(0.168819 -0.402629 0)
(0.568307 -0.618097 0)
(1.12791 -0.814777 0)
(1.80954 -1.01139 0)
(2.64261 -1.22606 0)
(3.60886 -1.47764 0)
(4.72206 -1.78567 0)
(5.99842 -2.13738 0)
(7.39907 -2.54701 0)
(8.92041 -3.0224 0)
(10.711 -3.53994 0)
(12.2022 -4.2892 0)
(13.9184 -5.0317 0)
(15.8508 -5.76564 0)
(18.0135 -6.44625 0)
(20.4475 -6.98582 0)
(23.3073 -7.23909 0)
(0.0208387 -0.16883 0)
(0.154903 -0.488815 0)
(0.51564 -0.756475 0)
(1.04223 -1.00256 0)
(1.70019 -1.25139 0)
(2.50587 -1.52005 0)
(3.46448 -1.822 0)
(4.56066 -2.1737 0)
(5.84804 -2.57677 0)
(7.23902 -3.06814 0)
(8.73028 -3.62257 0)
(10.4699 -4.29434 0)
(12.3602 -4.99745 0)
(14.2607 -5.71477 0)
(16.3639 -6.541 0)
(18.741 -7.38534 0)
(21.4808 -8.17333 0)
(24.798 -8.86388 0)
(0.0213027 -0.191793 0)
(0.143312 -0.568255 0)
(0.466266 -0.893007 0)
(0.947115 -1.19879 0)
(1.55829 -1.50645 0)
(2.31197 -1.83666 0)
(3.21451 -2.20594 0)
(4.24526 -2.63697 0)
(5.41327 -3.12922 0)
(6.71896 -3.67699 0)
(8.16197 -4.30033 0)
(9.74484 -5.02271 0)
(11.7281 -5.73286 0)
(13.729 -6.60787 0)
(15.8929 -7.59776 0)
(18.3241 -8.65422 0)
(21.1419 -9.73902 0)
(24.5695 -10.8734 0)
(0.021686 -0.214726 0)
(0.132504 -0.64418 0)
(0.420145 -1.02043 0)
(0.853787 -1.38425 0)
(1.41045 -1.75479 0)
(2.10222 -2.1513 0)
(2.93276 -2.59074 0)
(3.88412 -3.09292 0)
(4.94313 -3.66268 0)
(6.11561 -4.30249 0)
(7.41858 -5.03579 0)
(8.80776 -5.91846 0)
(10.399 -6.89594 0)
(12.2181 -7.93468 0)
(14.2695 -9.09466 0)
(16.5695 -10.4004 0)
(19.1786 -11.8517 0)
(22.2816 -13.4774 0)
(0.0226489 -0.237365 0)
(0.120731 -0.717408 0)
(0.371008 -1.14306 0)
(0.757086 -1.56134 0)
(1.25933 -1.99295 0)
(1.88844 -2.45423 0)
(2.64693 -2.96016 0)
(3.5209 -3.52608 0)
(4.49496 -4.16111 0)
(5.56406 -4.87682 0)
(6.7405 -5.69385 0)
(8.00209 -6.66009 0)
(9.35781 -7.75171 0)
(10.8885 -8.95014 0)
(12.6405 -10.301 0)
(14.6376 -11.8354 0)
(16.9001 -13.5799 0)
(19.5431 -15.5928 0)
(0.0242666 -0.260059 0)
(0.104371 -0.784683 0)
(0.313323 -1.25859 0)
(0.650857 -1.73114 0)
(1.09932 -2.22336 0)
(1.66542 -2.74857 0)
(2.35044 -3.32 0)
(3.14337 -3.95044 0)
(4.03239 -4.65029 0)
(5.01094 -5.43377 0)
(6.08239 -6.3219 0)
(7.24105 -7.34923 0)
(8.47751 -8.51967 0)
(9.82079 -9.84763 0)
(11.3127 -11.3658 0)
(12.9897 -13.1015 0)
(14.8714 -15.0893 0)
(17.0398 -17.3941 0)
(0.022916 -0.283089 0)
(0.0775217 -0.842 0)
(0.244509 -1.36287 0)
(0.535708 -1.89073 0)
(0.931149 -2.44352 0)
(1.43228 -3.03177 0)
(2.03944 -3.66758 0)
(2.74354 -4.36287 0)
(3.53529 -5.12885 0)
(4.40942 -5.98085 0)
(5.36401 -6.94122 0)
(6.39474 -8.03937 0)
(7.49463 -9.29271 0)
(8.67073 -10.7248 0)
(9.94122 -12.3697 0)
(11.3277 -14.2606 0)
(12.8403 -16.4374 0)
(14.5399 -18.9602 0)
(0.00504752 -0.298786 0)
(0.0410843 -0.88427 0)
(0.176539 -1.44932 0)
(0.429175 -2.02726 0)
(0.775772 -2.63292 0)
(1.21434 -3.27576 0)
(1.74537 -3.96723 0)
(2.36126 -4.71881 0)
(3.05359 -5.54235 0)
(3.81693 -6.45385 0)
(4.64652 -7.47557 0)
(5.53492 -8.63466 0)
(6.47396 -9.95324 0)
(7.4623 -11.4579 0)
(8.50254 -13.1848 0)
(9.59988 -15.1709 0)
(10.7505 -17.4589 0)
(11.9958 -20.1027 0)
(-0.0389133 -0.294194 0)
(0.0107896 -0.920379 0)
(0.12034 -1.53142 0)
(0.33313 -2.15417 0)
(0.628558 -2.80735 0)
(1.00212 -3.50012 0)
(1.4543 -4.24258 0)
(1.97846 -5.04543 0)
(2.56634 -5.92066 0)
(3.21144 -6.88419 0)
(3.90665 -7.95694 0)
(4.64106 -9.16374 0)
(5.40183 -10.5286 0)
(6.17877 -12.0799 0)
(6.96211 -13.8535 0)
(7.74293 -15.8861 0)
(8.50356 -18.2219 0)
(9.26368 -20.9076 0)
(-0.0355464 -0.285855 0)
(0.0245728 -0.941594 0)
(0.0890385 -1.60884 0)
(0.246989 -2.27999 0)
(0.478076 -2.98237 0)
(0.773577 -3.72595 0)
(1.13232 -4.51942 0)
(1.54752 -5.37269 0)
(2.01034 -6.29735 0)
(2.51274 -7.30847 0)
(3.04516 -8.42385 0)
(3.59341 -9.6646 0)
(4.13898 -11.0532 0)
(4.66145 -12.6163 0)
(5.1383 -14.3875 0)
(5.54523 -16.3987 0)
(5.84857 -18.693 0)
(6.0389 -21.3084 0)
(0.0129774 -0.309771 0)
(0.0459008 -0.964914 0)
(0.0792123 -1.6667 0)
(0.183275 -2.38717 0)
(0.340077 -3.14022 0)
(0.544307 -3.93312 0)
(0.794756 -4.77372 0)
(1.08389 -5.67105 0)
(1.40124 -6.63598 0)
(1.73698 -7.68272 0)
(2.07947 -8.82355 0)
(2.41228 -10.0736 0)
(2.71388 -11.4495 0)
(2.95538 -12.9688 0)
(3.10603 -14.6622 0)
(3.12944 -16.5469 0)
(2.97769 -18.658 0)
(2.61798 -21.0187 0)
(0.00958845 -0.328689 0)
(0.0437151 -0.991178 0)
(0.0854997 -1.707 0)
(0.141714 -2.46062 0)
(0.222469 -3.25467 0)
(0.328979 -4.08888 0)
(0.461999 -4.96706 0)
(0.614031 -5.89517 0)
(0.771586 -6.88103 0)
(0.924253 -7.93965 0)
(1.06073 -9.07648 0)
(1.16368 -10.2997 0)
(1.21339 -11.6182 0)
(1.17387 -13.0396 0)
(1.02447 -14.5652 0)
(0.73693 -16.2121 0)
(0.255933 -17.9957 0)
(-0.459433 -19.9162 0)
(0.0035543 -0.344775 0)
(0.0313497 -1.04253 0)
(0.0544535 -1.75242 0)
(0.0752651 -2.50071 0)
(0.094805 -3.30764 0)
(0.114478 -4.16101 0)
(0.136886 -5.05537 0)
(0.155967 -5.99269 0)
(0.153061 -6.97632 0)
(0.122661 -8.00657 0)
(0.0588724 -9.09199 0)
(-0.0597699 -10.238 0)
(-0.251378 -11.4456 0)
(-0.521855 -12.7125 0)
(-0.897407 -14.0258 0)
(-1.40664 -15.3917 0)
(-2.06242 -16.807 0)
(-2.88897 -18.2539 0)
(9.55301e-06 -0.350607 0)
(-0.00193509 -1.05461 0)
(-0.0140154 -1.7585 0)
(-0.0370735 -2.4944 0)
(-0.0731488 -3.28877 0)
(-0.12881 -4.128 0)
(-0.207157 -5.00107 0)
(-0.313767 -5.90502 0)
(-0.450138 -6.83859 0)
(-0.630566 -7.79528 0)
(-0.871153 -8.78109 0)
(-1.17781 -9.79767 0)
(-1.55938 -10.8413 0)
(-2.02513 -11.9062 0)
(-2.58553 -12.9904 0)
(-3.24946 -14.0794 0)
(-4.02464 -15.159 0)
(-4.91976 -16.2027 0)
(-0.00419426 -0.336349 0)
(-0.0420209 -1.01814 0)
(-0.0974986 -1.69944 0)
(-0.169933 -2.41088 0)
(-0.267063 -3.16781 0)
(-0.398958 -3.95487 0)
(-0.572925 -4.76067 0)
(-0.794608 -5.57893 0)
(-1.06731 -6.40627 0)
(-1.3963 -7.24342 0)
(-1.78759 -8.08463 0)
(-2.24578 -8.92553 0)
(-2.77624 -9.76275 0)
(-3.38477 -10.5923 0)
(-4.07652 -11.4082 0)
(-4.85705 -12.1989 0)
(-5.73283 -12.9421 0)
(-6.7085 -13.5986 0)
(-0.00737916 -0.309895 0)
(-0.0561285 -0.922349 0)
(-0.134063 -1.57569 0)
(-0.237957 -2.25415 0)
(-0.397077 -2.94775 0)
(-0.611984 -3.64895 0)
(-0.887716 -4.35324 0)
(-1.22712 -5.05757 0)
(-1.63035 -5.75862 0)
(-2.0978 -6.45279 0)
(-2.63076 -7.13498 0)
(-3.23113 -7.79975 0)
(-3.90145 -8.44103 0)
(-4.64527 -9.05098 0)
(-5.46746 -9.61887 0)
(-6.37432 -10.1279 0)
(-7.3739 -10.5492 0)
(-8.46944 -10.8373 0)
(0.00985257 -0.262962 0)
(-0.0501994 -0.84202 0)
(-0.116061 -1.47008 0)
(-0.265817 -2.08267 0)
(-0.494906 -2.68914 0)
(-0.795878 -3.29296 0)
(-1.17115 -3.89325 0)
(-1.62124 -4.4874 0)
(-2.14401 -5.07117 0)
(-2.73809 -5.63934 0)
(-3.40352 -6.18573 0)
(-4.14116 -6.70279 0)
(-4.95269 -7.18097 0)
(-5.84121 -7.6082 0)
(-6.81096 -7.96931 0)
(-7.86649 -8.24475 0)
(-9.01225 -8.40699 0)
(-10.2445 -8.4136 0)
(0.0112181 -0.261389 0)
(-0.0438296 -0.823021 0)
(-0.146343 -1.35767 0)
(-0.350647 -1.87191 0)
(-0.645749 -2.37966 0)
(-1.02479 -2.8818 0)
(-1.49147 -3.37634 0)
(-2.04561 -3.85956 0)
(-2.68386 -4.32563 0)
(-3.40393 -4.76776 0)
(-4.20454 -5.17843 0)
(-5.08437 -5.54858 0)
(-6.04207 -5.8667 0)
(-7.07687 -6.11865 0)
(-8.18816 -6.28833 0)
(-9.37477 -6.35883 0)
(-10.6333 -6.30952 0)
(-11.9528 -6.10741 0)
(-0.0187636 -0.240517 0)
(-0.0771447 -0.740172 0)
(-0.219815 -1.20137 0)
(-0.477157 -1.63484 0)
(-0.829934 -2.05185 0)
(-1.27768 -2.45386 0)
(-1.82805 -2.84069 0)
(-2.47995 -3.20903 0)
(-3.22732 -3.55308 0)
(-4.06457 -3.86708 0)
(-4.98617 -4.14451 0)
(-5.98505 -4.37673 0)
(-7.053 -4.55252 0)
(-8.18061 -4.65768 0)
(-9.35819 -4.6758 0)
(-10.5745 -4.59585 0)
(-11.8102 -4.409 0)
(-13.0379 -4.08988 0)
(-0.0225407 -0.205631 0)
(-0.0974256 -0.647136 0)
(-0.282944 -1.04099 0)
(-0.594831 -1.39623 0)
(-1.00766 -1.72126 0)
(-1.52596 -2.02028 0)
(-2.15763 -2.29673 0)
(-2.89628 -2.5504 0)
(-3.7299 -2.77773 0)
(-4.64765 -2.97532 0)
(-5.63767 -3.13974 0)
(-6.68545 -3.26466 0)
(-7.77509 -3.34105 0)
(-8.8882 -3.35729 0)
(-10.0086 -3.29723 0)
(-11.1118 -3.16311 0)
(-12.1614 -2.97075 0)
(-13.1166 -2.70358 0)
(-0.0204916 -0.174714 0)
(-0.105897 -0.552432 0)
(-0.332073 -0.873998 0)
(-0.699881 -1.14576 0)
(-1.17506 -1.37568 0)
(-1.75944 -1.5759 0)
(-2.45319 -1.75547 0)
(-3.24133 -1.91807 0)
(-4.10894 -2.06007 0)
(-5.04228 -2.17662 0)
(-6.02361 -2.26699 0)
(-7.03234 -2.32871 0)
(-8.04801 -2.35754 0)
(-9.04821 -2.34727 0)
(-10.017 -2.28601 0)
(-10.9177 -2.18972 0)
(-11.7565 -2.07393 0)
(-12.5163 -1.92693 0)
(-0.0188804 -0.149131 0)
(-0.111835 -0.45138 0)
(-0.38334 -0.688293 0)
(-0.802247 -0.884618 0)
(-1.32389 -1.04426 0)
(-1.9454 -1.17669 0)
(-2.65973 -1.2885 0)
(-3.44818 -1.38277 0)
(-4.29991 -1.45914 0)
(-5.18693 -1.52761 0)
(-6.09645 -1.58227 0)
(-7.01236 -1.61697 0)
(-7.91676 -1.62932 0)
(-8.79611 -1.62152 0)
(-9.61843 -1.55928 0)
(-10.3569 -1.4685 0)
(-11.0514 -1.38714 0)
(-11.7269 -1.29442 0)
(-0.0127934 -0.123968 0)
(-0.120464 -0.347987 0)
(-0.439804 -0.524694 0)
(-0.898766 -0.65741 0)
(-1.44063 -0.759888 0)
(-2.05829 -0.839954 0)
(-2.74502 -0.900296 0)
(-3.49083 -0.950612 0)
(-4.28419 -0.985155 0)
(-5.09354 -1.0065 0)
(-5.91892 -1.02503 0)
(-6.7502 -1.03617 0)
(-7.57211 -1.03468 0)
(-8.38542 -1.01968 0)
(-9.15622 -0.988616 0)
(-9.96462 -0.914542 0)
(-10.7297 -0.805027 0)
(-11.4703 -0.667456 0)
(0.00068543 -0.0973644 0)
(-0.154438 -0.256577 0)
(-0.484742 -0.392898 0)
(-0.916935 -0.479351 0)
(-1.40035 -0.528771 0)
(-1.95574 -0.555205 0)
(-2.59797 -0.56096 0)
(-3.32942 -0.55332 0)
(-4.10381 -0.547961 0)
(-4.93773 -0.533839 0)
(-5.80674 -0.51352 0)
(-6.68444 -0.491691 0)
(-7.54706 -0.469889 0)
(-8.37948 -0.44523 0)
(-9.16542 -0.399184 0)
(-9.88523 -0.321962 0)
(-10.5203 -0.227389 0)
(-11.0772 -0.113039 0)
(0.019744 -0.0747975 0)
(-0.0819098 -0.17897 0)
(-0.382533 -0.243937 0)
(-0.83346 -0.281487 0)
(-1.43498 -0.287249 0)
(-2.14401 -0.268253 0)
(-2.9026 -0.232497 0)
(-3.6648 -0.19222 0)
(-4.39745 -0.153458 0)
(-5.07479 -0.11773 0)
(-5.68187 -0.0897938 0)
(-6.2089 -0.0642156 0)
(-6.67796 -0.0380106 0)
(-7.07694 -0.0187763 0)
(-7.39982 0.000794911 0)
(-7.6351 0.0273471 0)
(-7.77063 0.0577407 0)
(-7.81173 0.0954494 0)
(-0.0800983 -0.0445331 0)
(-0.472407 -0.0915249 0)
(-1.0681 -0.106608 0)
(-1.73058 -0.0966211 0)
(-2.33404 -0.0687495 0)
(-2.81551 -0.0262397 0)
(-3.16198 0.0167882 0)
(-3.39255 0.0422045 0)
(-3.54548 0.0484107 0)
(-3.65473 0.0391502 0)
(-3.74071 0.0211338 0)
(-3.83377 -0.0219956 0)
(-3.92475 -0.0731161 0)
(-4.03696 -0.105051 0)
(-4.16261 -0.128703 0)
(-4.28348 -0.142062 0)
(-4.38379 -0.146495 0)
(-4.46177 -0.139169 0)
(0.797673 -2.19629 3.0778e-19)
(1.57023 -1.64365 -3.0229e-19)
(1.93523 -0.688824 0)
(1.4305 0.288365 0)
(0.24033 1.08239 0)
(-1.3644 1.6025 2.8667e-19)
(-3.27201 1.61888 0)
(-5.03962 1.58725 0)
(-6.42224 1.43169 0)
(-7.50289 0.799639 0)
(-7.91863 -0.196681 -2.67556e-19)
(-7.49926 -1.41862 0)
(-6.13696 -2.77932 0)
(-3.72081 -4.24409 0)
(-0.151526 -5.82192 0)
(4.75667 -7.57853 -2.41835e-19)
(10.6532 -9.56307 0)
(19.3156 -11.306 0)
(28.5942 -12.5939 0)
(39.0877 -13.303 0)
(49.8902 -10.5853 0)
(60.27 -6.80412 0)
(71.3283 -7.39366 0)
(83.1275 -9.26433 -1.62767e-19)
(95.2593 -9.36444 1.52617e-19)
(107.055 -8.20502 -1.43257e-19)
(117.614 -6.28941 -1.34779e-19)
(126.328 -4.02549 0)
(132.817 -1.47446 0)
(137.55 1.78997 1.14924e-19)
(139.658 3.251 1.07618e-19)
(146.808 -5.02863 0)
(169.23 -21.3762 0)
(207.526 -36.5953 1.78303e-19)
(252.984 -44.2045 0)
(296.531 -41.002 0)
(334.359 -31.0561 -9.07108e-20)
(366.4 -19.9864 0)
(395.395 -10.9643 -1.05575e-20)
(422.84 -4.4635 6.76549e-21)
(446.236 -3.19531 0)
(467.791 -5.95088 0)
(489.313 -11.2803 0)
(513.778 -18.8502 0)
(542.565 -29.195 0)
(573.456 -40.9107 2.14094e-19)
(605.535 -50.4959 4.01012e-19)
(636.241 -56.2957 3.40503e-19)
(661.799 -57.2504 0)
(678.797 -52.9547 -2.34066e-19)
(684.467 -43.7517 0)
(676.78 -30.5034 1.56176e-19)
(654.463 -14.1926 1.38198e-19)
(617.104 4.05333 0)
(564.951 22.1298 0)
(498.403 40.8264 0)
(418.851 61.9211 3.23488e-19)
(326.466 81.0509 0)
(222.771 95.2346 0)
(110.4 104.627 0)
(-8.78266 110.888 0)
(-132.312 115.511 0)
(-258.354 115.596 0)
(-389.284 103.301 0)
(-515.776 84.7567 0)
(-633.168 76.8664 -2.53253e-18)
(-727.282 69.3009 0)
(-818.25 63.204 0)
(-904.243 58.0808 3.25391e-18)
(-983.63 53.1174 3.43933e-18)
(-1056.78 46.9001 0)
(-1124.75 39.2711 -3.65587e-18)
(-1185.58 36.1068 3.71376e-18)
(-1242.15 32.0317 0)
(-1292.59 27.0095 -3.66506e-18)
(-1336.26 21.1934 0)
(-1372.69 14.3815 0)
(-1401.44 6.34883 3.16658e-18)
(-1422.31 -2.89666 0)
(-1434.04 -12.1903 -2.51786e-18)
(-1434.8 -18.4004 0)
(-1433.21 -17.4629 2.03836e-18)
(-1434.36 -16.9117 1.05393e-18)
(-1421.97 -35.1873 2.36571e-20)
(-1377.87 -68.8736 -8.63701e-19)
(-1288.56 -103.06 1.71634e-18)
(-1150.1 -130.956 0)
(-963.075 -152.89 0)
(-728.845 -176.731 0)
(-459.804 -231.316 3.00856e-18)
(-128.196 -291.455 2.7614e-18)
(298.482 -242.533 -2.52256e-18)
(577.61 -89.4437 0)
(685.331 72.3982 2.42769e-18)
(638.066 166.12 2.25114e-18)
(488.359 179.853 1.99904e-18)
(310.766 137.105 0)
(159.608 72.6786 0)
(58.0648 16.6548 0)
(11.5795 -18.2905 1.46384e-18)
(24.6028 -34.3694 0)
(95.2449 -44.6243 0)
(210.295 -54.3767 -1.78376e-18)
(359.063 -62.637 0)
(538.078 -64.1054 0)
(759.892 -86.3347 -2.84001e-18)
(1017.17 -122.046 0)
(1267.5 -122.354 0)
(1479.49 -114.114 6.52226e-18)
(1642.84 -100.618 8.61841e-18)
(1740.85 -75.1337 0)
(1761.16 -41.2312 -9.19589e-18)
(1708.92 -4.82228 0)
(1593.18 29.9514 8.1619e-18)
(1425.84 63.7803 0)
(1217.87 92.2144 6.06592e-18)
(979.504 126.077 4.73643e-18)
(722.237 149.067 0)
(453.278 151.25 0)
(181.109 139.335 0)
(-73.0652 114.246 0)
(-292.533 99.0094 0)
(-457.808 82.863 0)
(-600.56 70.3328 0)
(-718.615 59.4069 -4.53283e-18)
(-811.782 48.8903 4.80318e-18)
(-882.5 39.1239 0)
(-932.562 29.7038 0)
(-961.544 18.4442 0)
(-971.684 7.31829 0)
(-961.976 -8.7385 6.32474e-18)
(-915.716 -31.7285 0)
(-870.025 -37.66 -3.64658e-18)
(-844.923 0.327802 2.07499e-18)
(-809.869 -3.99894 0)
(-779.044 -22.1336 0)
(-721.182 -39.7045 0)
(-641.65 -46.9996 2.64838e-18)
(-550.862 -51.6827 3.23868e-18)
(-447.114 -59.3083 0)
(-332.95 -65.5306 3.81288e-18)
(-216.09 -65.4174 3.88957e-18)
(-98.9984 -62.0936 -3.83966e-18)
(17.5177 -55.112 0)
(130.852 -43.627 0)
(245.211 -28.5541 -3.40986e-18)
(349.26 -21.8167 0)
(414.608 -12.0197 0)
(461.972 2.097 0)
(489.557 7.22924 0)
(501.068 8.08206 1.28317e-18)
(500.121 8.03718 9.86552e-19)
(488.453 8.34484 0)
(467.73 9.26949 5.76562e-19)
(439.951 10.6174 0)
(407.387 12.0407 0)
(372.6 13.1645 2.56802e-19)
(337.762 14.041 0)
(303.734 14.9053 1.12044e-19)
(270.542 15.6455 0)
(238.187 16.133 0)
(206.827 16.2555 -1.71591e-19)
(176.917 15.9624 0)
(149.187 15.3545 -3.95525e-19)
(124.486 14.095 0)
(103.027 11.5314 0)
(84.8131 8.9264 0)
(69.9218 6.59 7.26032e-19)
(58.2933 4.36877 0)
(49.8628 1.81896 -7.94008e-19)
(43.7568 -0.228665 0)
(38.9102 -1.0158 0)
(33.6698 -0.879718 0)
(25.6924 0.415809 0)
(12.4805 2.66936 0)
(-7.16459 5.10844 0)
(-32.1929 6.55796 0)
(-60.2194 6.13115 2.40834e-18)
(-90.0809 6.90735 0)
(-113.737 5.61801 0)
(0.0690015 -2.68219 -9.1407e-19)
(-0.250563 -1.29966 8.91957e-19)
(-0.817172 0.954226 0)
(-1.78987 3.13048 -5.79507e-19)
(-2.97495 4.74667 0)
(-4.19373 5.60221 -2.79285e-19)
(-5.32099 5.65613 5.5399e-19)
(-6.21149 4.91207 5.46246e-19)
(-6.77529 3.68649 0)
(-6.93122 2.0612 5.32693e-19)
(-6.66812 0.0687866 2.60232e-19)
(-5.97215 -2.23654 0)
(-4.80124 -4.79965 0)
(-3.09834 -7.58727 0)
(-0.800863 -10.5916 0)
(2.09969 -13.8145 2.37672e-19)
(5.98476 -17.2924 0)
(9.58171 -20.8715 -4.603e-19)
(14.9508 -24.3113 0)
(22.0665 -27.4644 0)
(31.3093 -30.0166 3.97215e-19)
(43.0617 -32.2538 0)
(57.1479 -34.3544 -3.51577e-19)
(72.8338 -35.5356 1.56282e-19)
(89.6995 -35.3043 -1.4638e-19)
(107.682 -33.3278 1.3757e-19)
(126.275 -29.5983 1.29931e-19)
(144.713 -24.571 0)
(162.527 -19.3381 0)
(179.823 -16.1337 -1.14657e-19)
(199.302 -19.7503 9.65136e-20)
(227.877 -44.2152 0)
(267.204 -84.7271 0)
(311.745 -103.35 -1.91297e-19)
(352.332 -101.548 0)
(385.941 -95.1437 0)
(421.578 -89.1918 9.35285e-20)
(464.097 -85.6125 0)
(506.963 -82.0078 -5.96111e-21)
(549.42 -77.4637 -2.35941e-19)
(592.104 -74.6263 0)
(631.351 -73.5417 0)
(664.164 -73.088 -6.05117e-19)
(687.203 -71.5589 -5.86119e-19)
(697.976 -67.4747 -5.69e-19)
(694.532 -59.7391 1.92101e-19)
(675.278 -45.7508 -3.65893e-19)
(640.242 -26.063 -7.7561e-19)
(589.933 -1.6017 3.66338e-19)
(525.5 26.2264 1.5349e-19)
(448.911 55.6493 0)
(362.631 84.8571 -4.24665e-20)
(269.522 112.392 1.25575e-20)
(172.533 137.194 0)
(74.1543 158.135 0)
(-22.9525 174.691 0)
(-116.362 187.726 -1.62065e-19)
(-204.501 197.283 0)
(-286.548 203.508 9.73433e-19)
(-362.344 206.709 0)
(-432.431 207.758 1.84457e-18)
(-496.538 207.922 0)
(-554.794 205.277 -2.85376e-18)
(-608.612 195.4 0)
(-667.02 182.624 3.97148e-18)
(-727.805 175.592 -2.23957e-18)
(-809.03 166.905 0)
(-888.361 157.828 -5.7112e-18)
(-965.7 147.315 -3.08891e-18)
(-1038.76 135.682 -3.25656e-18)
(-1105.54 124.254 0)
(-1171.34 113.544 -3.44962e-18)
(-1232.65 105.127 -3.50049e-18)
(-1283.53 93.8517 0)
(-1328.46 82.2758 3.48625e-18)
(-1366.31 70.3863 -6.84554e-18)
(-1397.64 58.2029 0)
(-1423.38 45.7806 -3.04309e-18)
(-1444.95 33.3513 0)
(-1463.58 21.7589 7.64699e-18)
(-1478.94 12.6087 0)
(-1488.41 5.54755 -5.22649e-18)
(-1489.63 -9.29215 -9.65851e-19)
(-1480.39 -40.7533 2.00235e-19)
(-1460.41 -89.7203 -4.27428e-19)
(-1421.76 -154.328 1.20763e-18)
(-1351.24 -227.8 0)
(-1236.08 -301.563 0)
(-1065.47 -360.754 0)
(-861.329 -403.797 -8.98167e-18)
(-668.85 -446.434 -2.70863e-18)
(-525.928 -454.043 2.37066e-18)
(-238.747 -359.111 0)
(110.294 -181.448 2.12305e-18)
(414.984 7.62867 -2.19183e-18)
(617.191 144.08 -1.80298e-18)
(697.14 201.464 0)
(659.561 191.322 0)
(531.784 138.812 0)
(375.424 59.6196 -1.32347e-18)
(277.477 -35.6175 0)
(312.277 -130.666 3.1838e-18)
(500.582 -205.609 5.3189e-18)
(808.345 -264.058 -3.98509e-18)
(1186.84 -323.363 0)
(1585.33 -373.479 -3.09537e-18)
(1938.11 -371.974 0)
(2187.83 -318.846 -1.19569e-17)
(2299.27 -227.815 8.1614e-18)
(2273.15 -116.581 8.68003e-18)
(2129.88 -2.53633 0)
(1899.4 100.485 2.64354e-17)
(1615.89 183.181 -1.69359e-17)
(1309.2 242.092 -7.80331e-18)
(1002.96 278.959 0)
(714.268 297.704 -5.91506e-18)
(454.416 299.69 -1.38049e-17)
(225.943 293.084 0)
(35.7628 281.528 -3.48596e-18)
(-118.051 258.098 -1.71828e-19)
(-256.272 223.747 1.30702e-18)
(-383.941 196.026 0)
(-525.95 166.189 0)
(-646.468 137.738 0)
(-745.615 109.812 -4.56961e-18)
(-822.793 81.7757 -4.66276e-18)
(-880.311 58.9048 0)
(-915.151 36.9906 -9.17774e-18)
(-933.206 15.2746 -8.47949e-18)
(-937.272 -6.32589 0)
(-926.533 -27.1263 -6.18836e-18)
(-907.476 -39.4866 -1.0139e-17)
(-891.407 -24.3098 2.95026e-18)
(-853.87 -32.0278 1.28262e-18)
(-807.431 -32.1142 0)
(-752.791 -41.0058 0)
(-689.092 -57.7048 0)
(-618.011 -73.2104 -2.66912e-18)
(-534.324 -84.6013 3.06514e-18)
(-440.811 -91.509 7.09991e-18)
(-345.268 -95.9668 -3.67766e-18)
(-246.321 -98.5996 3.58663e-18)
(-138.2 -101.064 3.64958e-18)
(-28.3196 -100.442 0)
(83.6353 -98.8156 0)
(188.426 -99.0593 -3.62091e-18)
(267.382 -104.873 0)
(363.983 -73.1282 0)
(467.825 -49.5445 3.90211e-18)
(551.314 -30.3357 0)
(614.161 -13.2152 1.12614e-18)
(653.666 1.33457 -9.20019e-19)
(668.874 13.0065 0)
(661.055 21.6369 4.67874e-19)
(633.202 27.2989 0)
(589.636 30.0648 0)
(535.765 30.1795 -2.01723e-19)
(477.709 28.7333 3.01547e-19)
(419.918 27.0012 -6.73515e-20)
(364.479 25.2895 0)
(312.346 23.7126 0)
(263.929 22.1721 -1.56988e-19)
(219.614 20.4332 0)
(179.928 18.4739 -3.85885e-19)
(145.201 16.1801 0)
(115.643 13.2293 0)
(91.0935 10.5647 0)
(71.1397 8.33281 -7.35158e-19)
(55.4382 6.43444 0)
(43.5389 5.13321 8.00306e-19)
(35.1135 4.53685 0)
(29.2206 4.5393 0)
(24.4512 5.61674 -1.62131e-18)
(18.3354 8.01982 1.6135e-18)
(7.75417 11.5507 0)
(-9.86788 15.3336 0)
(-35.3184 17.9038 0)
(-67.36 18.4557 -6.37091e-18)
(-98.3468 17.7145 0)
(-127.954 14.4668 3.9441e-18)
(-0.314489 -1.37706 -3.08127e-21)
(-0.727722 0.318741 -1.17183e-18)
(-0.987589 2.82013 0)
(-1.08089 5.01181 1.14014e-18)
(-0.923732 6.36095 0)
(-0.531924 6.72425 0)
(0.0445094 6.18915 5.23358e-21)
(0.739043 4.94677 -5.3606e-19)
(1.50447 3.17569 -5.35872e-19)
(2.32842 0.98257 -5.2385e-19)
(3.2139 -1.57037 0)
(4.18506 -4.44894 0)
(5.29035 -7.64089 5.16686e-19)
(6.59577 -11.1496 1.02409e-18)
(8.17771 -14.985 -1.01396e-18)
(10.1142 -19.1576 0)
(12.5233 -23.6378 -9.88202e-19)
(15.4534 -28.5682 4.58566e-19)
(18.9426 -34.0937 0)
(23.261 -40.0326 -8.89913e-19)
(28.8264 -46.0368 -3.92234e-19)
(36.1688 -51.9742 8.05358e-19)
(45.6176 -57.8094 3.44415e-19)
(57.3558 -63.0434 0)
(71.7416 -66.8498 -6.62195e-19)
(89.1878 -68.5205 -6.1513e-19)
(109.815 -67.6793 0)
(133.294 -64.5462 -5.31822e-19)
(159.496 -61.0174 0)
(187.548 -62.2074 -4.81763e-19)
(219.739 -74.8491 -2.03076e-19)
(258.728 -109.727 0)
(290.752 -150.708 0)
(316.042 -160.855 0)
(338.161 -159.58 0)
(363.472 -156.339 0)
(390.465 -152.156 0)
(414.994 -147.184 2.22754e-19)
(437.489 -140.536 -3.52055e-19)
(456.296 -130.746 0)
(468.917 -116.73 0)
(473.1 -99.2183 0)
(466.515 -78.5942 1.7461e-20)
(447.304 -54.7026 4.46084e-19)
(414.695 -27.0925 8.15085e-19)
(369.221 4.08524 -8.18626e-19)
(312.752 38.5093 -3.04235e-19)
(248.462 74.8607 2.84349e-19)
(179.925 111.373 -1.93248e-20)
(110.815 146.274 8.44251e-20)
(44.4578 177.975 0)
(-16.6018 205.298 2.31509e-20)
(-70.7997 227.626 1.38796e-19)
(-117.653 244.859 0)
(-157.937 257.325 0)
(-193.282 265.774 -3.47741e-19)
(-225.583 270.993 0)
(-257.052 273.755 0)
(-290.306 274.757 1.1717e-18)
(-328.052 274.497 2.79559e-18)
(-372.108 273.256 -1.75123e-18)
(-423.586 271.636 0)
(-483.57 270.722 2.75549e-18)
(-551.124 271.522 0)
(-622.422 271.368 3.86731e-18)
(-699.143 266.779 4.68088e-18)
(-778.163 260.311 -1.04133e-17)
(-855.833 250.021 -5.73933e-18)
(-931.915 235.573 0)
(-1007.04 218.647 1.30968e-17)
(-1077 201.852 0)
(-1142.62 185.202 2.04322e-17)
(-1202.64 166.154 1.38958e-17)
(-1252.56 145.31 1.40004e-17)
(-1295.33 124.646 -1.38587e-17)
(-1329.05 104.332 2.01696e-17)
(-1353.33 84.9735 0)
(-1368.37 67.2116 0)
(-1375.37 51.5835 -1.10923e-17)
(-1376.51 38.2132 -1.48305e-17)
(-1374.24 26.1041 0)
(-1370.39 12.0881 3.58784e-18)
(-1368.83 -10.4699 0)
(-1371.41 -49.1039 -5.13517e-18)
(-1376.23 -109.223 5.31856e-19)
(-1378.13 -193.048 -5.76263e-19)
(-1365.88 -299.786 -3.63104e-18)
(-1325.6 -421.09 0)
(-1239.85 -534.726 5.58055e-18)
(-1090.64 -606.533 1.55462e-19)
(-891.242 -637.049 0)
(-683.242 -653.656 0)
(-486.578 -622.555 0)
(-247.896 -502.317 -4.86384e-18)
(29.495 -308.611 0)
(302.386 -100.789 0)
(519.851 70.3606 0)
(647.887 187.082 0)
(682.453 238.237 0)
(661.947 186.974 -2.17505e-18)
(663.593 5.86932 0)
(772.957 -251.531 -3.03529e-18)
(1033.34 -483.819 -3.37741e-18)
(1411.52 -636.81 3.85327e-18)
(1818.63 -705.926 0)
(2152.63 -682.997 5.79979e-18)
(2341.15 -563.008 0)
(2354.21 -370.1 1.28808e-17)
(2222.83 -156.294 -1.47943e-17)
(1988.19 50.1963 -5.0628e-17)
(1702.16 222.871 0)
(1408.81 350.07 -5.14314e-17)
(1137.47 431.223 -1.58888e-17)
(901.243 473.134 0)
(700.841 486.048 -2.63981e-17)
(529.527 479.43 -2.2276e-17)
(376.806 461.008 2.67924e-17)
(232.249 434.681 0)
(87.1017 402.965 3.57111e-18)
(-63.0809 372.411 3.07005e-19)
(-212.65 341.697 -5.09204e-18)
(-356.413 302.551 0)
(-485.872 260.539 0)
(-596.353 216.514 0)
(-684.945 172.947 -9.7353e-18)
(-756.842 131.529 0)
(-808.502 90.537 0)
(-835.507 54.3963 9.19744e-18)
(-845.567 23.4696 8.48278e-18)
(-840.188 -6.43505 0)
(-826.388 -31.4993 0)
(-806.929 -48.9381 1.08384e-17)
(-777.213 -58.8426 0)
(-732.471 -67.0426 -2.7102e-18)
(-679.988 -78.6712 -5.05372e-19)
(-620.736 -96.0098 0)
(-560.131 -115.363 0)
(-497.187 -133.772 -4.69267e-18)
(-427.902 -150.028 -2.35635e-19)
(-352.596 -160.653 -1.99559e-19)
(-270.724 -166.364 0)
(-177.851 -170.063 -1.49687e-17)
(-78.91 -172.664 0)
(19.088 -173.613 0)
(111.193 -168.901 0)
(194.601 -161.705 6.8386e-18)
(280.526 -152.866 0)
(357.062 -122.173 -8.83023e-18)
(419.502 -101.277 -3.83541e-18)
(486.252 -79.0655 0)
(552.12 -54.1973 -2.26804e-18)
(612.436 -27.6483 0)
(661.146 -0.744331 0)
(691.234 24.1051 -2.33918e-18)
(697.37 44.6016 9.62715e-19)
(678.271 59.6396 0)
(635.192 67.6783 3.72983e-19)
(574.238 69.271 -1.89123e-19)
(504.552 67.3704 0)
(433.197 63.8163 0)
(364.811 59.5751 0)
(301.875 54.8312 1.3433e-18)
(245.514 49.4267 0)
(196.266 43.4341 8.13689e-19)
(154.193 37.1154 0)
(118.98 31.083 0)
(89.9963 25.5055 0)
(66.4461 20.441 0)
(47.6767 15.7605 0)
(33.0786 11.5652 0)
(21.9968 8.31795 3.21767e-18)
(13.5528 6.65543 0)
(6.2735 7.34941 1.59106e-18)
(-1.86716 10.9849 -4.77703e-18)
(-12.9754 17.3659 0)
(-28.476 24.9462 0)
(-48.0385 31.2878 3.54631e-18)
(-70.5845 34.7635 4.02679e-18)
(-94.245 32.8541 -3.70495e-18)
(-119.797 28.0323 -3.96636e-18)
(-0.601498 -0.223279 1.80279e-18)
(-0.0779401 0.393099 1.74187e-18)
(0.726848 1.81016 1.14826e-18)
(2.13746 3.05086 5.68049e-19)
(3.93786 3.673 0)
(5.86876 3.60654 -1.10259e-18)
(7.72984 2.95326 5.47678e-19)
(9.39325 1.8307 0)
(10.8106 0.308243 5.31157e-19)
(12.0032 -1.60502 0)
(13.0361 -3.93281 -1.0566e-18)
(13.996 -6.70343 0)
(14.974 -9.93569 -5.14916e-19)
(16.053 -13.6372 -1.02173e-18)
(17.3022 -17.8096 1.01263e-18)
(18.7751 -22.4587 0)
(20.5213 -27.6006 9.88378e-19)
(22.591 -33.2817 0)
(25.0251 -39.6212 0)
(27.915 -46.7239 8.85947e-19)
(31.4063 -54.6256 0)
(35.7902 -63.3302 8.50795e-20)
(41.4713 -72.7301 0)
(48.9591 -82.4281 0)
(58.9307 -91.7468 -1.06471e-19)
(72.1938 -99.7569 6.00334e-19)
(89.4102 -105.183 6.65369e-19)
(110.844 -107.662 5.13116e-19)
(137.15 -109.647 0)
(166.579 -115.992 1.0113e-18)
(198.567 -132.194 0)
(233.925 -164.121 4.45099e-19)
(252.884 -186.674 0)
(261.262 -184.861 0)
(264.541 -176.395 -5.87417e-20)
(266.093 -169.435 0)
(266.474 -164.428 5.70306e-21)
(264.224 -156.568 -1.28061e-19)
(258.07 -143.149 3.10923e-19)
(246.711 -123.193 -3.21456e-19)
(229.198 -96.8946 0)
(204.94 -65.2805 0)
(173.922 -29.5882 -1.49811e-19)
(136.934 8.80699 0)
(95.6751 48.4049 -2.8609e-19)
(52.5652 87.6032 2.51064e-19)
(10.4763 124.823 1.99413e-19)
(-27.7601 158.619 0)
(-59.9027 187.91 -8.30106e-20)
(-84.6465 212.154 -4.00435e-20)
(-101.815 231.396 2.44495e-19)
(-112.362 246.211 -1.84369e-20)
(-118.177 257.581 -4.70781e-20)
(-121.77 266.712 0)
(-125.972 274.86 0)
(-133.604 283.22 3.35407e-19)
(-147.138 292.615 0)
(-168.47 303.339 0)
(-198.842 315.315 -2.05032e-18)
(-238.777 328.041 -2.75129e-18)
(-288.02 340.542 0)
(-345.624 351.579 0)
(-410.312 360.366 0)
(-480.028 366.447 0)
(-552.122 368.539 -8.14443e-18)
(-625.793 364.76 9.60174e-18)
(-700.476 356.597 1.06398e-17)
(-774.794 344.028 2.34215e-17)
(-848.341 328.121 0)
(-922.379 309.384 1.8221e-19)
(-993.997 285.591 0)
(-1062.78 258.218 -1.35807e-17)
(-1127.61 230.261 1.63758e-19)
(-1185.08 199.529 -1.38705e-17)
(-1236.88 167.003 1.36876e-17)
(-1279.95 133.467 2.50692e-19)
(-1311.95 99.968 0)
(-1330.29 68.3079 1.21256e-17)
(-1333.01 40.9047 1.07966e-17)
(-1319.8 20.1416 1.95422e-17)
(-1293.14 6.92303 0)
(-1259.07 -1.48649 -6.72191e-18)
(-1227.59 -13.2249 0)
(-1209.01 -39.2661 4.69193e-18)
(-1208.5 -91.3093 4.88821e-19)
(-1222.55 -175.318 -1.99315e-18)
(-1242.87 -294.887 3.35687e-18)
(-1258.6 -445.777 7.82065e-18)
(-1252.35 -612.47 -5.37103e-18)
(-1193.36 -760.084 5.96589e-18)
(-1049.28 -848.4 0)
(-850.217 -870.341 -1.10359e-17)
(-628.692 -830.84 0)
(-392.17 -717.339 -8.9701e-18)
(-145.787 -538.432 8.24322e-18)
(101.271 -325.992 6.3195e-18)
(331.891 -118.424 -4.8558e-18)
(525.133 53.712 -3.97806e-18)
(672.764 150.822 0)
(798.672 105.784 -1.87984e-18)
(954.671 -123.99 0)
(1189.39 -473.885 0)
(1515.2 -796.915 -7.31678e-18)
(1881.14 -978.062 0)
(2180.93 -983.26 0)
(2319.55 -826.416 -1.74375e-17)
(2261.91 -546.886 0)
(2065.53 -230.738 0)
(1796.83 64.009 0)
(1515.08 300.203 6.65766e-17)
(1262.82 463.519 0)
(1057.68 559.226 6.67686e-17)
(896.888 602.852 3.23123e-17)
(766.116 612.364 2.88119e-17)
(648.198 603.512 9.02272e-19)