/*--------------------------------*- C++ -*----------------------------------*\
| =========                 |                                                 |
| \\      /  F ield         | OpenFOAM: The Open Source CFD Toolbox           |
|  \\    /   O peration     | Version:  2112                                  |
|   \\  /    A nd           | Website:  www.openfoam.com                      |
|    \\/     M anipulation  |                                                 |
\*---------------------------------------------------------------------------*/
FoamFile
{
    version     2.0;
    format      ascii;
    arch        "LSB;label=32;scalar=64";
    class       surfaceScalarField;
    location    "0.13";
    object      phi_0;
}
// * * * * * * * * * * * * * * * * * * * * * * * * * * * * * * * * * * * * * //

dimensions      [0 3 -1 0 0 0 0];

oriented        oriented;

internalField   nonuniform List<scalar> 
24170
(
3.1216e-06
1.41529e-07
2.98974e-06
1.31867e-07
2.89058e-06
9.916e-08
2.80823e-06
8.23455e-08
2.72553e-06
8.27025e-08
2.63564e-06
8.98921e-08
2.54434e-06
9.12972e-08
2.46147e-06
8.28693e-08
2.39369e-06
6.778e-08
2.33527e-06
5.84241e-08
2.27692e-06
5.83414e-08
2.2071e-06
6.98197e-08
2.12427e-06
8.28329e-08
2.0321e-06
9.21715e-08
1.93852e-06
9.35833e-08
1.84432e-06
9.41932e-08
1.72347e-06
1.2085e-07
1.56107e-07
1.56737e-06
3.44694e-06
1.18014e-07
3.42998e-06
1.48819e-07
3.4346e-06
9.45484e-08
3.44897e-06
6.797e-08
3.45623e-06
7.54419e-08
3.45701e-06
8.91177e-08
3.45867e-06
8.96305e-08
3.46334e-06
7.82024e-08
3.46521e-06
6.59065e-08
3.45547e-06
6.81638e-08
3.42933e-06
8.44885e-08
3.38943e-06
1.09716e-07
3.34249e-06
1.29776e-07
3.29401e-06
1.40647e-07
3.25019e-06
1.3741e-07
3.20416e-06
1.40221e-07
3.16188e-06
1.63129e-07
2.00491e-07
3.11749e-06
3.79795e-06
1.46233e-07
3.75557e-06
1.91208e-07
3.72634e-06
1.23772e-07
3.70667e-06
8.7642e-08
3.69818e-06
8.39349e-08
3.69904e-06
8.82542e-08
3.70535e-06
8.33256e-08
3.71368e-06
6.98642e-08
3.72163e-06
5.79638e-08
3.72804e-06
6.17485e-08
3.72915e-06
8.3382e-08
3.72395e-06
1.14916e-07
3.71138e-06
1.42345e-07
3.69428e-06
1.57744e-07
3.67227e-06
1.59425e-07
3.65167e-06
1.60816e-07
3.64179e-06
1.7301e-07
1.95912e-07
3.64637e-06
3.89296e-06
1.00861e-07
3.9286e-06
1.55576e-07
3.94404e-06
1.08331e-07
3.95168e-06
8.00015e-08
3.9514e-06
8.42157e-08
3.94351e-06
9.61432e-08
3.92942e-06
9.74167e-08
3.91398e-06
8.52979e-08
3.90305e-06
6.88958e-08
3.90155e-06
6.32472e-08
3.90968e-06
7.52523e-08
3.92459e-06
1.00008e-07
3.94105e-06
1.25883e-07
3.95456e-06
1.44233e-07
3.96183e-06
1.5216e-07
3.96452e-06
1.58125e-07
3.96892e-06
1.68612e-07
1.85092e-07
3.97974e-06
4.22561e-06
8.9209e-08
4.21391e-06
1.67279e-07
4.17891e-06
1.43327e-07
4.16453e-06
9.43837e-08
4.1747e-06
7.40385e-08
4.19484e-06
7.60053e-08
4.21189e-06
8.03703e-08
4.22091e-06
7.62815e-08
4.22164e-06
6.81602e-08
4.21684e-06
6.80462e-08
4.21041e-06
8.16804e-08
4.2062e-06
1.04227e-07
4.2054e-06
1.26675e-07
4.20632e-06
1.43313e-07
4.20678e-06
1.51698e-07
4.20771e-06
1.57199e-07
4.21386e-06
1.62464e-07
1.69732e-07
4.22922e-06
4.48728e-06
1.10986e-07
4.52775e-06
1.26807e-07
4.5489e-06
1.2218e-07
4.55494e-06
8.83396e-08
4.5583e-06
7.06807e-08
4.56466e-06
6.96442e-08
4.5705e-06
7.45295e-08
4.57047e-06
7.63128e-08
4.56403e-06
7.45985e-08
4.55599e-06
7.60835e-08
4.55141e-06
8.62642e-08
4.55178e-06
1.03856e-07
4.55516e-06
1.23301e-07
4.55918e-06
1.39289e-07
4.56257e-06
1.4831e-07
4.56658e-06
1.53191e-07
4.5741e-06
1.54936e-07
1.55594e-07
4.58824e-06
4.80596e-06
1.31872e-07
4.79196e-06
1.40815e-07
4.87336e-06
4.0776e-08
4.9418e-06
1.98962e-08
4.97008e-06
4.24077e-08
4.9669e-06
7.28256e-08
4.94724e-06
9.41802e-08
4.92076e-06
1.02799e-07
4.89165e-06
1.0371e-07
4.86331e-06
1.04424e-07
4.83994e-06
1.09629e-07
4.82486e-06
1.1894e-07
4.81904e-06
1.29121e-07
4.82091e-06
1.3742e-07
4.82804e-06
1.41179e-07
4.8397e-06
1.41528e-07
4.85635e-06
1.38288e-07
1.33828e-07
4.87812e-06
5.09978e-06
1.01881e-07
5.1233e-06
1.17291e-07
5.13327e-06
3.08119e-08
5.16298e-06
-9.81943e-09
5.21451e-06
-9.11576e-09
5.26318e-06
2.4156e-08
5.28568e-06
7.16802e-08
5.27424e-06
1.14241e-07
5.2389e-06
1.39051e-07
5.19807e-06
1.4525e-07
5.16759e-06
1.40103e-07
5.15431e-06
1.32225e-07
5.15715e-06
1.26282e-07
5.17136e-06
1.23207e-07
5.19127e-06
1.21273e-07
5.21374e-06
1.19059e-07
5.23605e-06
1.15971e-07
1.12038e-07
5.25784e-06
5.52507e-06
1.50625e-07
5.54132e-06
1.01037e-07
5.55442e-06
1.77164e-08
5.58013e-06
-3.55319e-08
5.60868e-06
-3.76656e-08
5.61485e-06
1.79911e-08
5.59344e-06
9.30916e-08
5.56236e-06
1.45312e-07
5.54096e-06
1.60452e-07
5.53816e-06
1.48055e-07
5.55281e-06
1.2545e-07
5.57862e-06
1.06416e-07
5.60863e-06
9.62709e-08
5.63762e-06
9.42196e-08
5.6623e-06
9.65882e-08
5.68139e-06
9.9975e-08
5.69445e-06
1.02905e-07
1.04228e-07
5.70226e-06
5.87059e-06
1.84156e-07
5.949e-06
2.26281e-08
5.98629e-06
-1.95772e-08
5.97083e-06
-2.00696e-08
5.93859e-06
-5.42164e-09
5.90948e-06
4.70974e-08
5.89121e-06
1.11367e-07
5.88713e-06
1.49386e-07
5.89894e-06
1.48644e-07
5.92283e-06
1.24161e-07
5.9523e-06
9.59808e-08
5.9815e-06
7.72241e-08
6.00637e-06
7.13939e-08
6.02473e-06
7.58669e-08
6.03624e-06
8.5077e-08
6.0418e-06
9.44142e-08
6.04349e-06
1.01214e-07
1.04644e-07
6.04307e-06
6.46369e-06
-7.14485e-09
6.48454e-06
1.77256e-09
6.44216e-06
2.28056e-08
6.3806e-06
4.14859e-08
6.3237e-06
5.14813e-08
6.30185e-06
6.8945e-08
6.32348e-06
8.97361e-08
6.3748e-06
9.80677e-08
6.43106e-06
9.2385e-08
6.47146e-06
8.37589e-08
6.48792e-06
7.95198e-08
6.48505e-06
8.01003e-08
6.47305e-06
8.33941e-08
6.46143e-06
8.74834e-08
6.45504e-06
9.14711e-08
6.45413e-06
9.53183e-08
6.45643e-06
9.89145e-08
1.02403e-07
6.45867e-06
5.61507e-06
9.16822e-08
5.61801e-06
-1.17105e-09
5.68153e-06
-4.07151e-08
5.72054e-06
2.47506e-09
5.71143e-06
6.05964e-08
5.68824e-06
9.21291e-08
5.69115e-06
8.68302e-08
5.73144e-06
5.77783e-08
5.79177e-06
3.20556e-08
5.84692e-06
2.86051e-08
5.87917e-06
4.72722e-08
5.88506e-06
7.42087e-08
5.87182e-06
9.66366e-08
5.85061e-06
1.08686e-07
5.83078e-06
1.11309e-07
5.8181e-06
1.07997e-07
5.81443e-06
1.02583e-07
9.92328e-08
5.8176e-06
6.99444e-06
3.21302e-08
6.9205e-06
7.27631e-08
6.87359e-06
6.1943e-09
6.89186e-06
-1.579e-08
6.92201e-06
3.04441e-08
6.9403e-06
7.38404e-08
6.95205e-06
7.50757e-08
6.96804e-06
4.17921e-08
6.99194e-06
8.15655e-09
7.01919e-06
1.35207e-09
7.0429e-06
2.35605e-08
7.05852e-06
5.85922e-08
7.06638e-06
8.87786e-08
7.07078e-06
1.04279e-07
7.07651e-06
1.05578e-07
7.08589e-06
9.86206e-08
7.09855e-06
8.99206e-08
8.53656e-08
7.11242e-06
8.75366e-06
-1.55901e-08
8.64974e-06
1.76689e-07
8.47528e-06
1.80652e-07
8.33916e-06
1.20334e-07
8.28196e-06
8.76455e-08
8.30335e-06
5.24438e-08
8.37038e-06
8.05014e-09
8.43833e-06
-2.61576e-08
8.47857e-06
-3.20819e-08
8.48751e-06
-7.58756e-09
8.47946e-06
3.16079e-08
8.47163e-06
6.64203e-08
8.47608e-06
8.43343e-08
8.49696e-06
8.33948e-08
8.53119e-06
7.13433e-08
8.57205e-06
5.77637e-08
8.61205e-06
4.99213e-08
5.28968e-08
8.64452e-06
1.06154e-05
3.18008e-07
1.04488e-05
3.43271e-07
1.03586e-05
2.70854e-07
1.03121e-05
1.6682e-07
1.03271e-05
7.27093e-08
1.03843e-05
-4.78985e-09
1.04431e-05
-5.07189e-08
1.04732e-05
-5.63096e-08
1.04715e-05
-3.03785e-08
1.04554e-05
8.51189e-09
1.04436e-05
4.33734e-08
1.04454e-05
6.47054e-08
1.04593e-05
7.03486e-08
1.04795e-05
6.32036e-08
1.05013e-05
4.96038e-08
1.05229e-05
3.61435e-08
1.05455e-05
2.73609e-08
2.78535e-08
1.05705e-05
1.27316e-05
1.92304e-07
1.28148e-05
2.60071e-07
1.28332e-05
2.52458e-07
1.2794e-05
2.06012e-07
1.27409e-05
1.25755e-07
1.2702e-05
3.41412e-08
1.26969e-05
-4.55912e-08
1.27291e-05
-8.84967e-08
1.27854e-05
-8.66751e-08
1.2849e-05
-5.51107e-08
1.2906e-05
-1.366e-08
1.29458e-05
2.49684e-08
1.29635e-05
5.25589e-08
1.29593e-05
6.74016e-08
1.2938e-05
7.09251e-08
1.29058e-05
6.84062e-08
1.28701e-05
6.2995e-08
5.87128e-08
1.28393e-05
1.57064e-05
-3.16344e-08
1.57199e-05
2.46535e-07
1.56232e-05
3.49158e-07
1.55411e-05
2.88086e-07
1.54938e-05
1.73062e-07
1.54864e-05
4.15324e-08
1.5499e-05
-5.81646e-08
1.55122e-05
-1.01679e-07
1.55118e-05
-8.62441e-08
1.54947e-05
-3.80844e-08
1.54686e-05
1.24966e-08
1.54453e-05
4.82419e-08
1.54326e-05
6.52928e-08
1.54312e-05
6.87509e-08
1.54369e-05
6.5229e-08
1.5445e-05
6.03159e-08
1.54531e-05
5.48822e-08
4.87106e-08
1.54631e-05
1.85739e-05
1.7519e-07
1.85479e-05
2.72489e-07
1.873e-05
1.67108e-07
1.89474e-05
7.0623e-08
1.91388e-05
-1.82507e-08
1.92458e-05
-6.55294e-08
1.92512e-05
-6.35858e-08
1.91783e-05
-2.8713e-08
1.90747e-05
1.73476e-08
1.89849e-05
5.16523e-08
1.89336e-05
6.38618e-08
1.89238e-05
5.79774e-08
1.8945e-05
4.41169e-08
1.8982e-05
3.18089e-08
1.90221e-05
2.50604e-08
1.90599e-05
2.25579e-08
1.90944e-05
2.03652e-08
1.47641e-08
1.91284e-05
2.26954e-05
-4.13414e-08
2.29799e-05
-1.19896e-08
2.31485e-05
-1.49453e-09
2.32151e-05
4.06206e-09
2.31758e-05
2.10537e-08
2.30584e-05
5.18496e-08
2.29302e-05
6.45862e-08
2.28439e-05
5.75665e-08
2.28227e-05
3.85582e-08
2.28551e-05
1.92495e-08
2.29115e-05
7.52384e-09
2.29646e-05
4.78666e-09
2.30007e-05
8.06743e-09
2.30206e-05
1.18538e-08
2.30353e-05
1.04386e-08
2.30564e-05
1.45844e-09
2.30917e-05
-1.49732e-08
-3.46853e-08
2.31412e-05
1.70466e-05
1.68513e-08
1.69849e-05
4.96482e-08
1.69565e-05
2.68798e-08
1.69755e-05
-1.4943e-08
1.69856e-05
1.10078e-08
1.69604e-05
7.70143e-08
1.68902e-05
1.3482e-07
1.67986e-05
1.49133e-07
1.67194e-05
1.17785e-07
1.66775e-05
6.11079e-08
1.66824e-05
2.64782e-09
1.67315e-05
-4.43125e-08
1.68129e-05
-7.3339e-08
1.69097e-05
-8.49433e-08
1.70044e-05
-8.42441e-08
1.70829e-05
-7.70406e-08
1.71355e-05
-6.75463e-08
-5.88509e-08
1.71596e-05
1.44668e-05
4.11711e-07
1.4357e-05
1.59452e-07
1.44081e-05
-2.41777e-08
1.44766e-05
-8.3505e-08
1.4559e-05
-7.13433e-08
1.46432e-05
-7.20554e-09
1.47002e-05
7.78491e-08
1.47071e-05
1.42224e-07
1.46735e-05
1.51399e-07
1.46297e-05
1.04902e-07
1.46045e-05
2.77766e-08
1.46082e-05
-4.79434e-08
1.46337e-05
-9.88489e-08
1.4665e-05
-1.16317e-07
1.46858e-05
-1.04966e-07
1.46859e-05
-7.71578e-08
1.46629e-05
-4.45299e-08
-1.89605e-08
1.4623e-05
1.2653e-05
3.94604e-07
1.27394e-05
7.30656e-08
1.27801e-05
-6.482e-08
1.2782e-05
-8.53974e-08
1.27696e-05
-5.89759e-08
1.27606e-05
1.811e-09
1.27656e-05
7.28276e-08
1.27915e-05
1.16338e-07
1.28306e-05
1.12312e-07
1.28674e-05
6.80954e-08
1.28872e-05
7.97108e-09
1.28845e-05
-4.52838e-08
1.28631e-05
-7.74603e-08
1.2832e-05
-8.52161e-08
1.2801e-05
-7.39341e-08
1.27777e-05
-5.38728e-08
1.27669e-05
-3.37367e-08
-2.16187e-08
1.27696e-05
1.09517e-05
4.331e-08
1.11075e-05
-8.2763e-08
1.10788e-05
-3.6072e-08
1.10125e-05
-1.91087e-08
1.09538e-05
-3.18812e-10
1.09254e-05
3.02264e-08
1.09465e-05
5.17351e-08
1.10148e-05
4.80633e-08
1.11096e-05
1.7508e-08
1.12044e-05
-2.66795e-08
1.12759e-05
-6.35266e-08
1.13139e-05
-8.33649e-08
1.13207e-05
-8.41641e-08
1.13066e-05
-7.1147e-08
1.12848e-05
-5.21115e-08
1.12655e-05
-3.45866e-08
1.1255e-05
-2.32825e-08
-2.0607e-08
1.1254e-05
9.54511e-06
-1.38671e-07
9.54058e-06
-7.82296e-08
9.58522e-06
-8.07113e-08
9.62249e-06
-5.63789e-08
9.63704e-06
-1.48683e-08
9.65079e-06
1.64711e-08
9.67043e-06
3.20943e-08
9.68842e-06
3.0079e-08
9.69669e-06
9.23271e-09
9.69461e-06
-2.45997e-08
9.69328e-06
-6.21925e-08
9.69872e-06
-8.88091e-08
9.71105e-06
-9.64969e-08
9.7263e-06
-8.63904e-08
9.74007e-06
-6.58884e-08
9.74961e-06
-4.4126e-08
9.7536e-06
-2.72694e-08
-1.89881e-08
9.75198e-06
8.34838e-06
-1.15823e-07
8.28989e-06
-1.97346e-08
8.32168e-06
-1.12503e-07
8.36354e-06
-9.82456e-08
8.38775e-06
-3.90778e-08
8.39631e-06
7.91436e-09
8.39447e-06
3.39375e-08
8.38651e-06
3.80359e-08
8.37638e-06
1.93609e-08
8.36651e-06
-1.47297e-08
8.3573e-06
-5.29805e-08
8.35219e-06
-8.36984e-08
8.35631e-06
-1.00615e-07
8.3724e-06
-1.02484e-07
8.39855e-06
-9.20406e-08
8.42999e-06
-7.55627e-08
8.4608e-06
-5.80738e-08
-4.40489e-08
8.48586e-06
7.28445e-06
2.27149e-08
7.32719e-06
-6.24803e-08
7.33617e-06
-1.21482e-07
7.3088e-06
-7.08733e-08
7.26695e-06
2.77345e-09
7.23286e-06
4.20003e-08
7.2329e-06
3.38996e-08
7.27137e-06
-4.31551e-10
7.32835e-06
-3.76181e-08
7.37834e-06
-6.47251e-08
7.40564e-06
-8.0272e-08
7.40782e-06
-8.58873e-08
7.39101e-06
-8.38031e-08
7.36574e-06
-7.72104e-08
7.34248e-06
-6.87848e-08
7.32729e-06
-6.03719e-08
7.3218e-06
-5.25797e-08
-4.64416e-08
7.32419e-06
6.21824e-06
2.01063e-08
6.36101e-06
-2.05252e-07
6.43484e-06
-1.95307e-07
6.42046e-06
-5.6491e-08
6.37029e-06
5.29374e-08
6.34179e-06
7.05067e-08
6.35494e-06
2.07422e-08
6.39424e-06
-3.97323e-08
6.43431e-06
-7.76798e-08
6.45923e-06
-8.96479e-08
6.46551e-06
-8.65548e-08
6.45834e-06
-7.87146e-08
6.44599e-06
-7.14551e-08
6.43536e-06
-6.65838e-08
6.43014e-06
-6.35566e-08
6.43115e-06
-6.13875e-08
6.43798e-06
-5.94127e-08
-5.78108e-08
6.44935e-06
5.60716e-06
4.46507e-08
5.55788e-06
-1.55976e-07
5.53116e-06
-1.68583e-07
5.53806e-06
-6.33987e-08
5.56873e-06
2.22725e-08
5.60255e-06
3.66846e-08
5.61995e-06
3.34687e-09
5.61902e-06
-3.88086e-08
5.61118e-06
-6.98336e-08
5.60827e-06
-8.67373e-08
5.61351e-06
-9.17958e-08
5.6227e-06
-8.79055e-08
5.62973e-06
-7.84865e-08
5.63065e-06
-6.75073e-08
5.62535e-06
-5.82536e-08
5.61637e-06
-5.2408e-08
5.60688e-06
-4.99236e-08
-5.01823e-08
5.59925e-06
4.84106e-06
-7.09708e-08
4.79814e-06
-1.13055e-07
4.72999e-06
-1.00437e-07
4.72947e-06
-6.28761e-08
4.79159e-06
-3.98469e-08
4.86811e-06
-3.98314e-08
4.92329e-06
-5.1839e-08
4.94668e-06
-6.2192e-08
4.94365e-06
-6.6803e-08
4.92496e-06
-6.8054e-08
4.90113e-06
-6.79621e-08
4.87975e-06
-6.65279e-08
4.86458e-06
-6.33195e-08
4.85578e-06
-5.87072e-08
4.85129e-06
-5.37598e-08
4.84843e-06
-4.95521e-08
4.84521e-06
-4.66973e-08
-4.5973e-08
4.841e-06
4.1997e-06
4.08665e-06
3.98621e-06
3.92333e-06
3.88349e-06
3.84365e-06
3.79182e-06
3.72962e-06
3.66282e-06
3.59477e-06
3.5268e-06
3.46028e-06
3.39696e-06
3.33825e-06
3.28449e-06
3.23494e-06
3.18824e-06
3.14227e-06
6.39192e-08
-6.39192e-08
1.5026e-07
-8.63405e-08
2.7268e-07
-1.2242e-07
3.42582e-07
-6.99021e-08
3.82912e-07
-4.03297e-08
3.94028e-07
-1.1116e-08
2.86018e-07
1.0801e-07
1.51733e-07
1.34285e-07
2.89774e-08
1.22755e-07
-1.30299e-07
1.59276e-07
-3.21153e-07
1.90854e-07
-5.19636e-07
1.98483e-07
-7.41055e-07
2.2142e-07
-1.01086e-06
2.6981e-07
-1.32456e-06
3.13691e-07
-1.6751e-06
3.50542e-07
-2.06726e-06
3.9216e-07
-2.50357e-06
4.3631e-07
-2.97463e-06
4.71065e-07
-3.46169e-06
4.87061e-07
-3.94279e-06
4.81095e-07
-4.39645e-06
4.53658e-07
-4.80475e-06
4.08303e-07
-5.1551e-06
3.50347e-07
-5.43999e-06
2.84896e-07
-5.65669e-06
2.16698e-07
-5.8058e-06
1.49107e-07
-5.88968e-06
8.38864e-08
-5.91415e-06
2.44676e-08
-5.88266e-06
-3.14918e-08
-5.79762e-06
-8.50405e-08
-5.66175e-06
-1.35874e-07
-5.47682e-06
-1.84925e-07
-5.24401e-06
-2.32809e-07
-4.9639e-06
-2.80112e-07
-4.6362e-06
-3.27701e-07
-4.25991e-06
-3.76294e-07
-3.83336e-06
-4.26544e-07
-3.35391e-06
-4.79448e-07
-2.81734e-06
-5.36574e-07
-2.21751e-06
-5.99826e-07
-1.54727e-06
-6.70249e-07
-8.00445e-07
-7.4682e-07
3.06764e-08
-8.31121e-07
9.58985e-07
-9.28309e-07
1.99045e-06
-1.03147e-06
3.07242e-06
-1.08197e-06
4.1506e-06
-1.07817e-06
5.21694e-06
-1.06634e-06
6.11601e-06
-8.99069e-07
6.76508e-06
-6.49069e-07
7.18422e-06
-4.19143e-07
7.16447e-06
1.97573e-08
6.75052e-06
4.13946e-07
5.82167e-06
9.28848e-07
4.17877e-06
1.6429e-06
2.54606e-06
1.63271e-06
1.53921e-06
1.00685e-06
1.03254e-06
5.06673e-07
7.74783e-07
2.57758e-07
1.02432e-06
-2.49539e-07
1.69602e-06
-6.71699e-07
2.36295e-06
-6.66928e-07
2.38655e-06
-2.36057e-08
1.78578e-06
6.00776e-07
1.51168e-06
2.74097e-07
1.89136e-06
-3.79675e-07
2.34139e-06
-4.50037e-07
2.46294e-06
-1.21549e-07
2.16788e-06
2.95057e-07
1.46794e-06
6.99943e-07
5.2656e-07
9.41382e-07
-4.85781e-07
1.01234e-06
-1.47652e-06
9.90735e-07
-2.40904e-06
9.3252e-07
-3.28083e-06
8.71796e-07
-4.10366e-06
8.22827e-07
-4.89053e-06
7.86872e-07
-5.65118e-06
7.60653e-07
-6.39055e-06
7.39363e-07
-7.10829e-06
7.17742e-07
-7.79941e-06
6.91125e-07
-8.45532e-06
6.55906e-07
-9.06491e-06
6.09592e-07
-9.61618e-06
5.51272e-07
-1.0098e-05
4.81831e-07
-1.05014e-05
4.03405e-07
-1.082e-05
3.18555e-07
-1.10498e-05
2.29844e-07
-1.11899e-05
1.40043e-07
-1.12423e-05
5.24338e-08
-1.12138e-05
-2.84585e-08
-1.11104e-05
-1.03444e-07
-1.09392e-05
-1.71164e-07
-1.07066e-05
-2.32635e-07
-1.04186e-05
-2.87953e-07
-1.00809e-05
-3.37747e-07
-9.69895e-06
-3.81942e-07
-9.27821e-06
-4.20741e-07
-8.82392e-06
-4.54295e-07
-8.34147e-06
-4.82447e-07
-7.83641e-06
-5.05063e-07
-7.31458e-06
-5.21827e-07
-6.7821e-06
-5.32476e-07
-6.24529e-06
-5.36819e-07
-5.71036e-06
-5.34929e-07
-5.18316e-06
-5.27199e-07
-4.66888e-06
-5.14279e-07
-4.17185e-06
-4.97024e-07
-3.69539e-06
-4.7646e-07
-3.24171e-06
-4.53687e-07
-2.81182e-06
-4.29881e-07
-2.4057e-06
-4.06121e-07
-2.02237e-06
-3.83329e-07
-1.66009e-06
-3.62288e-07
-1.31651e-06
-3.43577e-07
-9.88121e-07
-3.28389e-07
-6.72095e-07
-3.16026e-07
-3.64886e-07
-3.07208e-07
-6.35783e-08
-3.01308e-07
2.34922e-07
-2.985e-07
5.32036e-07
-2.97114e-07
8.29083e-07
-2.97048e-07
1.12634e-06
-2.97254e-07
1.42301e-06
-2.96677e-07
1.71729e-06
-2.94277e-07
2.00652e-06
-2.89226e-07
2.28756e-06
-2.81043e-07
2.55671e-06
-2.69146e-07
2.80997e-06
-2.53269e-07
3.04457e-06
-2.34594e-07
3.25763e-06
-2.13065e-07
3.44472e-06
-1.87086e-07
3.6055e-06
-1.60784e-07
3.73932e-06
-1.33815e-07
3.84017e-06
-1.00849e-07
3.91075e-06
-7.05827e-08
3.94123e-06
-3.04767e-08
3.92209e-06
1.91392e-08
3.87622e-06
4.58684e-08
3.78628e-06
8.9936e-08
3.66167e-06
1.2461e-07
3.54087e-06
1.20806e-07
3.35091e-06
1.89953e-07
3.14382e-06
2.07092e-07
2.95457e-06
1.89253e-07
2.46548e-06
4.89084e-07
1.66114e-06
8.04348e-07
9.47278e-07
7.13858e-07
4.94167e-07
4.53111e-07
2.63143e-07
2.31024e-07
1.72927e-07
9.02159e-08
1.61377e-07
1.15506e-08
1.74943e-07
-1.35662e-08
1.80827e-07
-5.88418e-09
1.83591e-07
-2.76349e-09
1.94893e-07
-1.13026e-08
2.23539e-07
-2.8646e-08
2.40074e-07
-1.6535e-08
1.81775e-07
5.82993e-08
2.86216e-08
1.53153e-07
-1.34545e-07
1.63167e-07
-2.07764e-07
7.32191e-08
-1.48856e-07
-5.89081e-08
2.21125e-09
-1.51067e-07
1.98025e-07
-1.95814e-07
4.13457e-07
-2.15432e-07
6.19652e-07
-2.06195e-07
8.1927e-07
-1.99618e-07
1.08754e-06
-2.68274e-07
1.56151e-06
-4.73964e-07
2.26148e-06
-6.99973e-07
2.84377e-06
-5.82291e-07
2.93615e-06
-9.23749e-08
2.71508e-06
2.21069e-07
2.57291e-06
1.42163e-07
2.55321e-06
1.97077e-08
2.46359e-06
8.96157e-08
2.20491e-06
2.58686e-07
3.97718e-07
1.80719e-06
2.66714e-08
-9.05906e-08
7.38286e-08
-1.33498e-07
3.9e-08
-8.75914e-08
-6.90241e-08
3.8122e-08
-1.91953e-07
8.25994e-08
-2.96587e-07
9.3518e-08
-3.75726e-07
1.87148e-07
-5.00282e-07
2.58841e-07
-6.86817e-07
3.0929e-07
-9.10557e-07
3.83017e-07
-1.19895e-06
4.79244e-07
-1.56079e-06
5.60326e-07
-1.99323e-06
6.53857e-07
-2.50496e-06
7.81543e-07
-3.08641e-06
8.95139e-07
-3.70518e-06
9.69317e-07
-4.31985e-06
1.00682e-06
-4.89446e-06
1.01092e-06
-5.40595e-06
9.82554e-07
-5.84248e-06
9.2359e-07
-6.2007e-06
8.39316e-07
-6.48428e-06
7.3724e-07
-6.70053e-06
6.24547e-07
-6.85774e-06
5.07559e-07
-6.96406e-06
3.9122e-07
-7.02621e-06
2.78846e-07
-7.04895e-06
1.71851e-07
-7.03415e-06
6.9082e-08
-6.98038e-06
-2.93067e-08
-6.88865e-06
-1.23222e-07
-6.75532e-06
-2.18364e-07
-6.57718e-06
-3.14021e-07
-6.35268e-06
-4.09419e-07
-6.08126e-06
-5.04234e-07
-5.76265e-06
-5.9872e-07
-5.39725e-06
-6.93101e-07
-4.98639e-06
-7.87152e-07
-4.53228e-06
-8.80649e-07
-4.03686e-06
-9.74869e-07
-3.50011e-06
-1.07333e-06
-2.91904e-06
-1.18089e-06
-2.28689e-06
-1.3024e-06
-1.5914e-06
-1.44231e-06
-8.189e-07
-1.60362e-06
3.50236e-08
-1.78223e-06
9.68828e-07
-1.96527e-06
1.99257e-06
-2.10571e-06
3.05996e-06
-2.14557e-06
4.0666e-06
-2.07299e-06
4.95526e-06
-1.78773e-06
5.66359e-06
-1.3574e-06
6.13959e-06
-8.95149e-07
6.35059e-06
-1.91243e-07
6.26342e-06
5.01116e-07
6.0014e-06
1.19088e-06
5.36222e-06
2.28207e-06
4.13145e-06
2.86348e-06
2.86324e-06
2.27506e-06
1.93329e-06
1.43663e-06
1.50627e-06
6.84776e-07
1.8693e-06
-6.12576e-07
2.45565e-06
-1.25804e-06
2.76924e-06
-9.80515e-07
2.92399e-06
-1.78356e-07
3.08266e-06
4.42107e-07
2.99288e-06
3.63876e-07
2.25097e-06
3.62239e-07
1.05124e-06
7.49687e-07
-2.13677e-07
1.14337e-06
-1.32285e-06
1.40423e-06
-2.22879e-06
1.60588e-06
-2.98737e-06
1.69996e-06
-3.67096e-06
1.69594e-06
-4.31305e-06
1.63282e-06
-4.93171e-06
1.55118e-06
-5.53473e-06
1.47482e-06
-6.12564e-06
1.41374e-06
-6.70603e-06
1.36726e-06
-7.27674e-06
1.33136e-06
-7.83774e-06
1.30036e-06
-8.38561e-06
1.26561e-06
-8.9138e-06
1.21931e-06
-9.41373e-06
1.15584e-06
-9.87574e-06
1.07161e-06
-1.02904e-05
9.65921e-07
-1.06493e-05
8.40706e-07
-1.09455e-05
6.99621e-07
-1.11741e-05
5.47214e-07
-1.13326e-05
3.8831e-07
-1.14204e-05
2.27795e-07
-1.14382e-05
7.03217e-08
-1.13851e-05
-8.16536e-08
-1.12637e-05
-2.24766e-07
-1.10771e-05
-3.5781e-07
-1.08302e-05
-4.79488e-07
-1.05288e-05
-5.89425e-07
-1.01785e-05
-6.87971e-07
-9.78485e-06
-7.75625e-07
-9.35273e-06
-8.52866e-07
-8.88716e-06
-9.19867e-07
-8.39305e-06
-9.76553e-07
-7.87568e-06
-1.02244e-06
-7.34064e-06
-1.05687e-06
-6.79395e-06
-1.07916e-06
-6.24198e-06
-1.08879e-06
-5.69114e-06
-1.08578e-06
-5.14748e-06
-1.07086e-06
-4.61643e-06
-1.04532e-06
-4.10245e-06
-1.011e-06
-3.60881e-06
-9.70101e-07
-3.13763e-06
-9.2487e-07
-2.68988e-06
-8.77626e-07
-2.26544e-06
-8.30562e-07
-1.86316e-06
-7.85608e-07
-1.48117e-06
-7.44278e-07
-1.11654e-06
-7.08213e-07
-7.66198e-07
-6.78729e-07
-4.2683e-07
-6.55394e-07
-9.4978e-08
-6.39061e-07
2.32137e-07
-6.28423e-07
5.56623e-07
-6.22986e-07
8.80812e-07
-6.21303e-07
1.20556e-06
-6.21798e-07
1.53076e-06
-6.22448e-07
1.85514e-06
-6.21063e-07
2.17629e-06
-6.15422e-07
2.49066e-06
-6.03596e-07
2.79378e-06
-5.84168e-07
3.08078e-06
-5.56144e-07
3.34744e-06
-5.19926e-07
3.58994e-06
-4.77094e-07
3.80563e-06
-4.2876e-07
3.99613e-06
-3.77577e-07
4.16187e-06
-3.26524e-07
4.30391e-06
-2.75863e-07
4.42542e-06
-2.2235e-07
4.51871e-06
-1.63881e-07
4.5901e-06
-1.01859e-07
4.63874e-06
-2.95059e-08
4.65204e-06
3.25735e-08
4.64643e-06
9.55444e-08
4.59715e-06
1.73891e-07
4.5031e-06
2.14854e-07
4.40921e-06
2.83845e-07
4.23973e-06
3.76573e-07
4.03167e-06
3.97313e-07
3.92684e-06
5.93908e-07
3.76179e-06
9.69402e-07
3.32445e-06
1.1512e-06
2.73358e-06
1.04398e-06
2.22197e-06
7.42637e-07
1.93934e-06
3.72846e-07
1.86293e-06
8.79555e-08
1.89106e-06
-4.16923e-08
1.93143e-06
-4.62547e-08
1.92582e-06
2.84557e-09
1.87017e-06
4.43429e-08
1.74286e-06
9.8668e-08
1.51945e-06
2.06878e-07
1.24052e-06
3.37224e-07
9.96638e-07
3.97036e-07
8.67226e-07
2.92579e-07
8.58938e-07
8.15073e-08
9.16223e-07
-1.16193e-07
1.01661e-06
-2.5145e-07
1.16377e-06
-3.42979e-07
1.33195e-06
-3.83608e-07
1.47777e-06
-3.52022e-07
1.58994e-06
-3.11782e-07
1.72319e-06
-4.0153e-07
1.98134e-06
-7.3211e-07
2.4501e-06
-1.16873e-06
3.06778e-06
-1.19997e-06
3.574e-06
-5.98596e-07
3.72852e-06
6.65452e-08
3.51051e-06
3.6018e-07
3.03613e-06
4.94082e-07
2.4089e-06
7.16853e-07
1.70259e-06
9.64992e-07
1.16927e-06
9.31035e-07
-3.54229e-08
-5.51678e-08
-1.52221e-07
-1.66996e-08
-3.50996e-07
1.11184e-07
-4.71282e-07
1.58408e-07
-5.69646e-07
1.80964e-07
-7.59846e-07
2.83719e-07
-9.81094e-07
4.08395e-07
-1.23954e-06
5.17287e-07
-1.58e-06
6.4975e-07
-2.01829e-06
8.21311e-07
-2.55463e-06
1.01558e-06
-3.17266e-06
1.17835e-06
-3.81767e-06
1.29888e-06
-4.4317e-06
1.39557e-06
-4.98993e-06
1.45337e-06
-5.48824e-06
1.46763e-06
-5.92287e-06
1.44145e-06
-6.2868e-06
1.37486e-06
-6.58062e-06
1.27637e-06
-6.81314e-06
1.15611e-06
-6.99525e-06
1.02143e-06
-7.13591e-06
8.77893e-07
-7.24083e-06
7.29474e-07
-7.31413e-06
5.80855e-07
-7.35847e-06
4.35565e-07
-7.37528e-06
2.95652e-07
-7.36481e-06
1.61385e-07
-7.32837e-06
3.26392e-08
-7.25411e-06
-1.03566e-07
-7.13735e-06
-2.3998e-07
-6.9776e-06
-3.78112e-07
-6.77306e-06
-5.18565e-07
-6.52198e-06
-6.60502e-07
-6.22344e-06
-8.02768e-07
-5.87831e-06
-9.43851e-07
-5.48952e-06
-1.08189e-06
-5.06211e-06
-1.21457e-06
-4.60265e-06
-1.34011e-06
-4.11811e-06
-1.45941e-06
-3.61376e-06
-1.57768e-06
-3.09088e-06
-1.70377e-06
-2.5459e-06
-1.84738e-06
-1.9696e-06
-2.01861e-06
-1.34771e-06
-2.22551e-06
-6.63978e-07
-2.46597e-06
9.09426e-08
-2.72019e-06
9.26504e-07
-2.94127e-06
1.82005e-06
-3.03912e-06
2.68948e-06
-2.94242e-06
3.48326e-06
-2.5815e-06
4.14211e-06
-2.01625e-06
4.58444e-06
-1.33748e-06
4.80609e-06
-4.12897e-07
4.83263e-06
4.74583e-07
4.73495e-06
1.28855e-06
4.45318e-06
2.56384e-06
3.79733e-06
3.51933e-06
2.90954e-06
3.16286e-06
2.11207e-06
2.23409e-06
1.96819e-06
8.28657e-07
2.43422e-06
-1.0786e-06
2.79466e-06
-1.61849e-06
2.68649e-06
-8.7234e-07
2.40291e-06
1.05221e-07
1.98748e-06
8.57535e-07
8.96501e-07
1.45486e-06
-6.56064e-07
1.9148e-06
-1.92664e-06
2.02026e-06
-2.8098e-06
2.02653e-06
-3.43651e-06
2.03095e-06
-3.86137e-06
2.03073e-06
-4.17346e-06
2.01206e-06
-4.45733e-06
1.9798e-06
-4.77115e-06
1.94664e-06
-5.13892e-06
1.91895e-06
-5.56165e-06
1.89755e-06
-6.0322e-06
1.88429e-06
-6.54325e-06
1.87831e-06
-7.08573e-06
1.87384e-06
-7.64719e-06
1.86182e-06
-8.215e-06
1.83342e-06
-8.77548e-06
1.77979e-06
-9.31299e-06
1.69335e-06
-9.81204e-06
1.57065e-06
-1.02586e-05
1.41246e-06
-1.06409e-05
1.22299e-06
-1.09504e-05
1.00914e-06
-1.11823e-05
7.79152e-07
-1.13351e-05
5.41079e-07
-1.14085e-05
3.01195e-07
-1.14013e-05
6.31542e-08
-1.13245e-05
-1.58517e-07
-1.11826e-05
-3.66651e-07
-1.09806e-05
-5.59796e-07
-1.07243e-05
-7.3574e-07
-1.04194e-05
-8.9441e-07
-1.00708e-05
-1.03652e-06
-9.68314e-06
-1.16328e-06
-9.26056e-06
-1.27545e-06
-8.80697e-06
-1.37345e-06
-8.32639e-06
-1.45714e-06
-7.82306e-06
-1.52576e-06
-7.30173e-06
-1.5782e-06
-6.76764e-06
-1.61325e-06
-6.22656e-06
-1.62986e-06
-5.68464e-06
-1.62771e-06
-5.14787e-06
-1.60762e-06
-4.62192e-06
-1.57127e-06
-4.11176e-06
-1.52116e-06
-3.62137e-06
-1.46049e-06
-3.15352e-06
-1.39272e-06
-2.7096e-06
-1.32155e-06
-2.2896e-06
-1.25056e-06
-1.89207e-06
-1.18314e-06
-1.51467e-06
-1.12168e-06
-1.154e-06
-1.06889e-06
-8.06659e-07
-1.02607e-06
-4.68363e-07
-9.9369e-07
-1.35377e-07
-9.72047e-07
1.96521e-07
-9.6032e-07
5.30074e-07
-9.5654e-07
8.67858e-07
-9.59087e-07
1.21137e-06
-9.65311e-07
1.5611e-06
-9.72172e-07
1.91635e-06
-9.76319e-07
2.27515e-06
-9.74219e-07
2.63398e-06
-9.62428e-07
2.9879e-06
-9.38087e-07
3.33064e-06
-8.98888e-07
3.65418e-06
-8.4346e-07
3.94935e-06
-7.72273e-07
4.20651e-06
-6.85914e-07
4.41607e-06
-5.87138e-07
4.57231e-06
-4.82761e-07
4.67657e-06
-3.80126e-07
4.74158e-06
-2.87361e-07
4.78704e-06
-2.09345e-07
4.82731e-06
-1.42125e-07
4.86681e-06
-6.90062e-08
4.89028e-06
9.09905e-09
4.89952e-06
8.63079e-08
4.89099e-06
1.82423e-07
4.83905e-06
2.66792e-07
4.76335e-06
3.59544e-07
4.64198e-06
4.97941e-07
4.43528e-06
6.04013e-07
4.28758e-06
7.41608e-07
4.27804e-06
9.78947e-07
4.24251e-06
1.18673e-06
4.05893e-06
1.22755e-06
3.77471e-06
1.02686e-06
3.49586e-06
6.517e-07
3.27592e-06
3.079e-07
3.1e-06
1.34218e-07
2.94742e-06
1.06327e-07
2.81639e-06
1.33878e-07
2.6891e-06
1.71634e-07
2.55644e-06
2.31325e-07
2.414e-06
3.49322e-07
2.2517e-06
4.99522e-07
2.09661e-06
5.52132e-07
1.98073e-06
4.0846e-07
1.89748e-06
1.64751e-07
1.81962e-06
-3.83277e-08
1.76859e-06
-2.00425e-07
1.79903e-06
-3.73417e-07
1.92307e-06
-5.07649e-07
2.07893e-06
-5.07883e-07
2.20039e-06
-4.33245e-07
2.29378e-06
-4.94919e-07
2.43453e-06
-8.72856e-07
2.70292e-06
-1.43712e-06
3.11962e-06
-1.61667e-06
3.5294e-06
-1.00838e-06
3.65894e-06
-6.29928e-08
3.34073e-06
6.78391e-07
2.67438e-06
1.16044e-06
1.85776e-06
1.53347e-06
1.00681e-06
1.81594e-06
2.06898e-06
1.07106e-07
-1.5504e-07
9.98726e-08
-3.81645e-07
2.09905e-07
-5.90632e-07
3.2017e-07
-7.9613e-07
3.63906e-07
-1.08006e-06
4.64895e-07
-1.40751e-06
6.11164e-07
-1.7701e-06
7.70987e-07
-2.22998e-06
9.77173e-07
-2.79235e-06
1.21211e-06
-3.41185e-06
1.44082e-06
-4.01907e-06
1.6228e-06
-4.58576e-06
1.74504e-06
-5.10768e-06
1.8208e-06
-5.56741e-06
1.85529e-06
-5.95835e-06
1.84431e-06
-6.28327e-06
1.79255e-06
-6.55176e-06
1.70994e-06
-6.7797e-06
1.6028e-06
-6.98148e-06
1.47815e-06
-7.16505e-06
1.33968e-06
-7.33029e-06
1.18667e-06
-7.47243e-06
1.02003e-06
-7.58631e-06
8.43354e-07
-7.6685e-06
6.63052e-07
-7.71855e-06
4.85612e-07
-7.73681e-06
3.13909e-07
-7.72333e-06
1.47909e-07
-7.67411e-06
-1.65839e-08
-7.59323e-06
-1.84446e-07
-7.47678e-06
-3.56427e-07
-7.31965e-06
-5.35246e-07
-7.11705e-06
-7.2116e-07
-6.86471e-06
-9.12844e-07
-6.55997e-06
-1.10751e-06
-6.20283e-06
-1.30099e-06
-5.79652e-06
-1.4882e-06
-5.34754e-06
-1.66354e-06
-4.86549e-06
-1.82217e-06
-4.3618e-06
-1.9631e-06
-3.84821e-06
-2.09127e-06
-3.33466e-06
-2.21731e-06
-2.82701e-06
-2.35503e-06
-2.32804e-06
-2.51758e-06
-1.83444e-06
-2.71911e-06
-1.33274e-06
-2.96766e-06
-8.00089e-07
-3.25285e-06
-2.11361e-07
-3.53e-06
4.5772e-07
-3.7082e-06
1.1731e-06
-3.6578e-06
1.87424e-06
-3.28264e-06
2.47786e-06
-2.61986e-06
2.89023e-06
-1.74986e-06
3.14895e-06
-6.71614e-07
3.28465e-06
3.38889e-07
3.24191e-06
1.33129e-06
3.06431e-06
2.74144e-06
2.73889e-06
3.84475e-06
2.32204e-06
3.5797e-06
1.94408e-06
2.61206e-06
2.26457e-06
5.08167e-07
2.40573e-06
-1.21976e-06
1.87544e-06
-1.0882e-06
9.41115e-07
6.19829e-08
-1.7397e-07
1.22031e-06
-1.32618e-06
2.00975e-06
-2.30775e-06
2.43643e-06
-2.94467e-06
2.55172e-06
-3.39041e-06
2.466e-06
-3.6831e-06
2.31922e-06
-3.85589e-06
2.20374e-06
-3.96453e-06
2.13937e-06
-4.08101e-06
2.12853e-06
-4.26596e-06
2.16475e-06
-4.54685e-06
2.22754e-06
-4.92193e-06
2.29403e-06
-5.37403e-06
2.34965e-06
-5.88558e-06
2.39584e-06
-6.44169e-06
2.43442e-06
-7.02537e-06
2.45753e-06
-7.61736e-06
2.45381e-06
-8.20026e-06
2.41631e-06
-8.75707e-06
2.33661e-06
-9.27201e-06
2.20829e-06
-9.73154e-06
2.03018e-06
-1.01246e-05
1.80553e-06
-1.0444e-05
1.54236e-06
-1.06866e-05
1.25177e-06
-1.08527e-05
9.4523e-07
-1.09444e-05
6.32758e-07
-1.09649e-05
3.21765e-07
-1.09167e-05
1.49449e-08
-1.0809e-05
-2.6627e-07
-1.06432e-05
-5.32436e-07
-1.04259e-05
-7.77052e-07
-1.01634e-05
-9.98243e-07
-9.86077e-06
-1.19708e-06
-9.52218e-06
-1.37511e-06
-9.15124e-06
-1.53422e-06
-8.75112e-06
-1.67557e-06
-8.32492e-06
-1.79965e-06
-7.87597e-06
-1.90609e-06
-7.40798e-06
-1.99375e-06
-6.92516e-06
-2.06102e-06
-6.43215e-06
-2.10627e-06
-5.93384e-06
-2.12817e-06
-5.43498e-06
-2.12657e-06
-4.93963e-06
-2.10297e-06
-4.45131e-06
-2.05959e-06
-3.97325e-06
-1.99922e-06
-3.50871e-06
-1.92504e-06
-3.06098e-06
-1.84045e-06
-2.633e-06
-1.74952e-06
-2.22671e-06
-1.65685e-06
-1.84218e-06
-1.56766e-06
-1.47803e-06
-1.48583e-06