/*--------------------------------*- C++ -*----------------------------------*\
| =========                 |                                                 |
| \\      /  F ield         | OpenFOAM: The Open Source CFD Toolbox           |
|  \\    /   O peration     | Version:  2112                                  |
|   \\  /    A nd           | Website:  www.openfoam.com                      |
|    \\/     M anipulation  |                                                 |
\*---------------------------------------------------------------------------*/
FoamFile
{
    version     2.0;
    format      ascii;
    arch        "LSB;label=32;scalar=64";
    class       volVectorField;
    location    "0.13";
    object      UMean;
}
// * * * * * * * * * * * * * * * * * * * * * * * * * * * * * * * * * * * * * //

dimensions      [0 1 -1 0 0 0 0];

internalField   nonuniform List<vector> 
12225
(
(9.84963 0.0452457 0)
(9.56023 0.0611992 0)
(9.26266 0.0586425 0)
(8.9593 0.0570971 0)
(8.66141 0.0564571 0)
(8.37389 0.0556451 0)
(8.09786 0.0543899 0)
(7.8311 0.0535035 0)
(7.57338 0.0523627 0)
(7.32084 0.0524356 0)
(7.07503 0.0516144 0)
(6.82855 0.053853 0)
(6.58547 0.0533384 0)
(6.33051 0.0608983 0)
(6.07202 0.0603169 0)
(5.77996 0.0815639 0)
(5.46597 0.066068 0)
(5.13698 0.10195 0)
(10.0141 0.0510267 0)
(10.0791 0.075437 0)
(10.1192 0.0737831 0)
(10.1325 0.0747436 0)
(10.1291 0.0782246 0)
(10.1155 0.0812038 0)
(10.0939 0.0837364 0)
(10.0645 0.085836 0)
(10.0277 0.0886986 0)
(9.98332 0.0913073 0)
(9.93188 0.0958418 0)
(9.8724 0.0998876 0)
(9.80487 0.108411 0)
(9.72608 0.116063 0)
(9.6355 0.13328 0)
(9.52549 0.148528 0)
(9.39282 0.175029 0)
(9.23569 0.18842 0)
(9.9957 0.0291961 0)
(10.03 0.0537593 0)
(10.0593 0.0555114 0)
(10.0762 0.0574986 0)
(10.0862 0.0621705 0)
(10.0943 0.0669273 0)
(10.1019 0.0708256 0)
(10.1081 0.0747283 0)
(10.1127 0.0786557 0)
(10.1144 0.0837462 0)
(10.1141 0.0891387 0)
(10.1102 0.0972457 0)
(10.1047 0.106167 0)
(10.0945 0.121102 0)
(10.0843 0.137842 0)
(10.0685 0.164885 0)
(10.0544 0.190949 0)
(10.0299 0.219035 0)
(9.99441 0.0301635 0)
(10.0188 0.0580904 0)
(10.042 0.0632504 0)
(10.056 0.0648785 0)
(10.0632 0.068767 0)
(10.0682 0.0732383 0)
(10.0728 0.0772892 0)
(10.0771 0.0809576 0)
(10.0803 0.0851424 0)
(10.0821 0.0898951 0)
(10.0826 0.096146 0)
(10.0817 0.103794 0)
(10.08 0.114393 0)
(10.0777 0.128103 0)
(10.0766 0.14667 0)
(10.0778 0.170229 0)
(10.0837 0.196589 0)
(10.0938 0.223895 0)
(9.99312 0.021995 0)
(10.0136 0.0461456 0)
(10.0342 0.0538861 0)
(10.0482 0.0564437 0)
(10.0559 0.0602799 0)
(10.0609 0.0652255 0)
(10.0651 0.0699523 0)
(10.0687 0.0744495 0)
(10.0714 0.0791526 0)
(10.0729 0.0847468 0)
(10.073 0.0914583 0)
(10.0721 0.100051 0)
(10.0706 0.110849 0)
(10.0692 0.124958 0)
(10.0689 0.142572 0)
(10.0716 0.163971 0)
(10.0782 0.187704 0)
(10.0903 0.211401 0)
(10.0052 0.0204805 0)
(10.0209 0.0446495 0)
(10.0375 0.0546675 0)
(10.0496 0.0584315 0)
(10.0569 0.0622442 0)
(10.0615 0.0671775 0)
(10.0652 0.0722764 0)
(10.0685 0.0771677 0)
(10.0711 0.0822383 0)
(10.0726 0.0880623 0)
(10.073 0.0950998 0)
(10.0728 0.103849 0)
(10.0721 0.114711 0)
(10.0719 0.128359 0)
(10.0728 0.144777 0)
(10.0763 0.16412 0)
(10.0829 0.184928 0)
(10.094 0.206264 0)
(10.002 0.0163467 0)
(10.0162 0.0368607 0)
(10.0315 0.0482431 0)
(10.0436 0.0534485 0)
(10.0516 0.0575567 0)
(10.0568 0.0624968 0)
(10.0609 0.0678622 0)
(10.0646 0.0732099 0)
(10.0676 0.0787355 0)
(10.0698 0.0849776 0)
(10.0712 0.0923894 0)
(10.072 0.101427 0)
(10.0728 0.112372 0)
(10.0741 0.125632 0)
(10.0766 0.1411 0)
(10.0813 0.158764 0)
(10.0887 0.177478 0)
(10.0998 0.196901 0)
(10.0097 0.0155877 0)
(10.0218 0.0342883 0)
(10.0344 0.0463185 0)
(10.0448 0.052821 0)
(10.0525 0.0574873 0)
(10.0577 0.0625776 0)
(10.0617 0.0681843 0)
(10.0652 0.0739102 0)
(10.0682 0.079803 0)
(10.0707 0.0863296 0)
(10.0728 0.093903 0)
(10.0746 0.102955 0)
(10.0765 0.113646 0)
(10.0793 0.12626 0)
(10.0832 0.140561 0)
(10.0892 0.15655 0)
(10.0975 0.173212 0)
(10.109 0.190457 0)
(9.99886 0.0111996 0)
(10.0096 0.0291697 0)
(10.0206 0.041101 0)
(10.0303 0.0482165 0)
(10.0381 0.0534124 0)
(10.044 0.058683 0)
(10.0487 0.0643997 0)
(10.053 0.0703283 0)
(10.0568 0.076468 0)
(10.0603 0.0831843 0)
(10.0634 0.0908432 0)
(10.0665 0.0998218 0)
(10.0696 0.110204 0)
(10.0737 0.122188 0)
(10.0788 0.135446 0)
(10.086 0.150006 0)
(10.0949 0.164876 0)
(10.1072 0.18018 0)
(9.99012 0.0117564 0)
(10.0001 0.0274196 0)
(10.0093 0.03898 0)
(10.0176 0.0467818 0)
(10.0249 0.0526447 0)
(10.0311 0.0581478 0)
(10.0362 0.0638974 0)
(10.0408 0.0699508 0)
(10.045 0.0762976 0)
(10.0491 0.0831953 0)
(10.0529 0.0908963 0)
(10.0568 0.0997133 0)
(10.0609 0.109637 0)
(10.066 0.120822 0)
(10.0721 0.132872 0)
(10.08 0.145866 0)
(10.0895 0.158846 0)
(10.1016 0.172089 0)
(9.99712 0.0062474 0)
(10.0053 0.0222803 0)
(10.0129 0.0335446 0)
(10.02 0.041567 0)
(10.0268 0.0478394 0)
(10.033 0.0536287 0)
(10.0383 0.0595267 0)
(10.043 0.0656921 0)
(10.0474 0.0721559 0)
(10.0516 0.0791161 0)
(10.0558 0.0867497 0)
(10.0601 0.0953114 0)
(10.065 0.10476 0)
(10.0706 0.115196 0)
(10.0774 0.126199 0)
(10.0857 0.137851 0)
(10.0955 0.149248 0)
(10.1072 0.160751 0)
(10.0065 0.00903399 0)
(10.0126 0.0222972 0)
(10.0187 0.0328615 0)
(10.0248 0.0408701 0)
(10.0311 0.0472439 0)
(10.037 0.0530132 0)
(10.0422 0.0588204 0)
(10.0471 0.0649307 0)
(10.0517 0.0714224 0)
(10.0563 0.0783821 0)
(10.0609 0.0858667 0)
(10.0658 0.0940438 0)
(10.0712 0.102853 0)
(10.0774 0.112387 0)
(10.0847 0.122255 0)
(10.0933 0.132543 0)
(10.1032 0.142434 0)
(10.1148 0.152309 0)
(9.99168 0.00582189 0)
(9.99909 0.0176946 0)
(10.006 0.0279118 0)
(10.0125 0.0361684 0)
(10.0192 0.0428874 0)
(10.0257 0.0488922 0)
(10.0317 0.0547913 0)
(10.0373 0.0609198 0)
(10.0428 0.0673641 0)
(10.0484 0.0742152 0)
(10.0541 0.0814855 0)
(10.0602 0.0892994 0)
(10.0668 0.0975515 0)
(10.0742 0.106327 0)
(10.0824 0.115239 0)
(10.0918 0.124415 0)
(10.1021 0.133065 0)
(10.1139 0.141662 0)
(9.99636 0.00599635 0)
(10.001 0.0168423 0)
(10.005 0.0261116 0)
(10.0097 0.0338201 0)
(10.0156 0.0403812 0)
(10.0218 0.0463009 0)
(10.0277 0.0520856 0)
(10.0334 0.058075 0)
(10.0389 0.0643596 0)
(10.0446 0.0709889 0)
(10.0505 0.077908 0)
(10.0569 0.0851918 0)
(10.0639 0.0927063 0)
(10.0716 0.100539 0)
(10.08 0.108321 0)
(10.0894 0.116218 0)
(10.0995 0.123489 0)
(10.1108 0.130655 0)
(9.99701 0.00573711 0)
(10.0031 0.0138293 0)
(10.008 0.0219358 0)
(10.0126 0.0293172 0)
(10.0181 0.035716 0)
(10.024 0.0415041 0)
(10.03 0.0471584 0)
(10.0358 0.0529546 0)
(10.0417 0.0589362 0)
(10.0478 0.0651259 0)
(10.0542 0.0714641 0)
(10.061 0.0780095 0)
(10.0683 0.0846411 0)
(10.0762 0.0914394 0)
(10.0847 0.0980766 0)
(10.0939 0.104713 0)
(10.1038 0.110702 0)
(10.1143 0.116552 0)
(10.0016 0.00401376 0)
(10.0075 0.0115948 0)
(10.0119 0.0188591 0)
(10.0158 0.0255184 0)
(10.0206 0.0314932 0)
(10.0264 0.0370321 0)
(10.0326 0.0424146 0)
(10.0389 0.047834 0)
(10.0453 0.0533386 0)
(10.0519 0.0589575 0)
(10.0588 0.0646409 0)
(10.066 0.0704247 0)
(10.0737 0.0761701 0)
(10.0818 0.0819325 0)
(10.0904 0.0874178 0)
(10.0996 0.0928018 0)
(10.1091 0.0975365 0)
(10.1191 0.102133 0)
(9.99448 0.00217874 0)
(10.0006 0.00949242 0)
(10.0049 0.0154208 0)
(10.0084 0.0205534 0)
(10.013 0.0253479 0)
(10.0186 0.0300713 0)
(10.0247 0.0348331 0)
(10.0311 0.0396827 0)
(10.0377 0.0445815 0)
(10.0445 0.0495052 0)
(10.0517 0.0543736 0)
(10.0592 0.0592002 0)
(10.0671 0.0638687 0)
(10.0754 0.0684484 0)
(10.0839 0.0727078 0)
(10.0929 0.0768281 0)
(10.1019 0.0803622 0)
(10.1114 0.0837927 0)
(9.99443 -0.00139754 0)
(9.99833 0.00503211 0)
(10.0016 0.0100235 0)
(10.005 0.0144606 0)
(10.0096 0.0186806 0)
(10.0151 0.0228085 0)
(10.0213 0.0268617 0)
(10.0277 0.0308865 0)
(10.0344 0.0348638 0)
(10.0414 0.0388052 0)
(10.0487 0.0426591 0)
(10.0563 0.0464509 0)
(10.0643 0.050083 0)
(10.0724 0.0536114 0)
(10.0808 0.0568415 0)
(10.0893 0.0599322 0)
(10.0979 0.0625284 0)
(10.1066 0.0650489 0)
(9.99791 0.00393525 0)
(10.0016 0.00474313 0)
(10.0043 0.00637782 0)
(10.0071 0.00844925 0)
(10.0114 0.0108071 0)
(10.0172 0.0133719 0)
(10.0236 0.0160683 0)
(10.0305 0.018826 0)
(10.0376 0.021576 0)
(10.0449 0.0243016 0)
(10.0524 0.0269696 0)
(10.06 0.0295962 0)
(10.0679 0.0320984 0)
(10.0758 0.0345091 0)
(10.0839 0.0366767 0)
(10.0919 0.0387279 0)
(10.1 0.0404022 0)
(10.108 0.0420336 0)
(9.99707 0.000239341 0)
(10.0028 0.000692899 0)
(10.0074 0.00101106 0)
(10.0117 0.00176479 0)
(10.0171 0.0030001 0)
(10.0233 0.0045217 0)
(10.0302 0.00618651 0)
(10.0373 0.00794431 0)
(10.0445 0.00977619 0)
(10.0519 0.011679 0)
(10.0595 0.0135844 0)
(10.0672 0.0154624 0)
(10.075 0.0172235 0)
(10.0829 0.01889 0)
(10.0907 0.0203559 0)
(10.0984 0.0217386 0)
(10.106 0.0228538 0)
(10.1136 0.0239671 0)
(10.0012 -0.00098383 0)
(10.0051 -0.00307417 0)
(10.0087 -0.00463279 0)
(10.0131 -0.00538569 0)
(10.019 -0.0053831 0)
(10.0257 -0.00478707 0)
(10.0328 -0.0039157 0)
(10.04 -0.00294366 0)
(10.0472 -0.00192359 0)
(10.0546 -0.000823298 0)
(10.0622 0.000351865 0)
(10.0699 0.00160008 0)
(10.0776 0.00284491 0)
(10.0853 0.00407529 0)
(10.0929 0.00517835 0)
(10.1005 0.00620426 0)
(10.1079 0.00699611 0)
(10.1153 0.00773411 0)
(9.99814 0.00249519 0)
(10.0043 -0.00442802 0)
(10.0099 -0.00780079 0)
(10.0157 -0.00924368 0)
(10.0225 -0.00967945 0)
(10.0299 -0.00961749 0)
(10.0374 -0.00930659 0)
(10.0449 -0.00888278 0)
(10.0524 -0.00836995 0)
(10.0599 -0.00774703 0)
(10.0675 -0.00702055 0)
(10.0752 -0.0062111 0)
(10.0828 -0.00539953 0)
(10.0904 -0.0046087 0)
(10.0979 -0.0039381 0)
(10.1053 -0.00333788 0)
(10.1126 -0.00293446 0)
(10.1199 -0.00256157 0)
(9.98158 -0.00316972 0)
(9.99025 -0.0106845 0)
(9.99772 -0.0156656 0)
(10.0044 -0.0182964 0)
(10.0117 -0.0193251 0)
(10.0195 -0.0196392 0)
(10.0273 -0.0197725 0)
(10.0351 -0.0198225 0)
(10.0429 -0.0197279 0)
(10.0507 -0.0194314 0)
(10.0584 -0.018984 0)
(10.0661 -0.018449 0)
(10.0737 -0.0179164 0)
(10.0812 -0.017404 0)
(10.0886 -0.0169767 0)
(10.0959 -0.016594 0)
(10.1031 -0.0163483 0)
(10.1101 -0.0161241 0)
(9.98385 -0.00379545 0)
(9.99306 -0.0115836 0)
(10.0023 -0.0174658 0)
(10.0112 -0.0204513 0)
(10.02 -0.0214892 0)
(10.0283 -0.0219307 0)
(10.0363 -0.0223712 0)
(10.0442 -0.0227506 0)
(10.0521 -0.0228865 0)
(10.06 -0.0227634 0)
(10.068 -0.0224925 0)
(10.0758 -0.0221782 0)
(10.0835 -0.0219025 0)
(10.0911 -0.0216718 0)
(10.0985 -0.0215306 0)
(10.1058 -0.0214334 0)
(10.113 -0.0214508 0)
(10.1199 -0.0214777 0)
(9.98895 -0.00912429 0)
(9.99869 -0.0212466 0)
(10.0092 -0.0282481 0)
(10.0192 -0.0308028 0)
(10.0282 -0.0315907 0)
(10.0363 -0.0322889 0)
(10.0441 -0.0331314 0)
(10.052 -0.0337937 0)
(10.0601 -0.0341312 0)
(10.0682 -0.0342051 0)
(10.0763 -0.0341457 0)
(10.0841 -0.0340282 0)
(10.0919 -0.0339002 0)
(10.0996 -0.0337685 0)
(10.1071 -0.0336788 0)
(10.1144 -0.0336231 0)
(10.1216 -0.0336602 0)
(10.1285 -0.0337322 0)
(9.98969 -0.00753218 0)
(10.0017 -0.02184 0)
(10.0157 -0.0279224 0)
(10.028 -0.0293782 0)
(10.0377 -0.0301219 0)
(10.0461 -0.031359 0)
(10.0541 -0.0326631 0)
(10.0625 -0.0335681 0)
(10.0709 -0.0340498 0)
(10.0791 -0.0342903 0)
(10.0871 -0.0344347 0)
(10.0949 -0.0345382 0)
(10.1025 -0.0346309 0)
(10.11 -0.034719 0)
(10.1175 -0.0348382 0)
(10.1247 -0.0349806 0)
(10.1319 -0.0351899 0)
(10.1388 -0.0354198 0)
(9.9992 -0.0159126 0)
(10.0151 -0.0365417 0)
(10.0314 -0.0415771 0)
(10.0438 -0.0415794 0)
(10.0528 -0.0421553 0)
(10.0605 -0.0435992 0)
(10.0685 -0.0448323 0)
(10.0769 -0.0454781 0)
(10.0852 -0.0457351 0)
(10.0934 -0.045866 0)
(10.1014 -0.0459863 0)
(10.1091 -0.0461132 0)
(10.1167 -0.0462426 0)
(10.1243 -0.0463771 0)
(10.1317 -0.0465339 0)
(10.1389 -0.0467165 0)
(10.1461 -0.0469478 0)
(10.1529 -0.0472019 0)
(9.9911 -0.01318 0)
(10.0157 -0.0320043 0)
(10.0384 -0.034771 0)
(10.0534 -0.0348207 0)
(10.0635 -0.0365447 0)
(10.0726 -0.0388019 0)
(10.082 -0.040417 0)
(10.0918 -0.041363 0)
(10.1016 -0.041983 0)
(10.1111 -0.0425032 0)
(10.1203 -0.0429721 0)
(10.1292 -0.0434109 0)
(10.1379 -0.0437989 0)
(10.1463 -0.0441855 0)
(10.1545 -0.0445526 0)
(10.1623 -0.0449647 0)
(10.1701 -0.0453866 0)
(10.1774 -0.0458835 0)
(9.99845 -0.0354601 0)
(10.0437 -0.0542344 0)
(10.0787 -0.0526042 0)
(10.0997 -0.0514958 0)
(10.1126 -0.0527938 0)
(10.1218 -0.0542607 0)
(10.1288 -0.0550927 0)
(10.1337 -0.0555165 0)
(10.1364 -0.0558066 0)
(10.1372 -0.0560745 0)
(10.1363 -0.0562979 0)
(10.134 -0.0565012 0)
(10.1305 -0.0566544 0)
(10.1262 -0.0568282 0)
(10.1208 -0.0569664 0)
(10.115 -0.0571698 0)
(10.108 -0.0573614 0)
(10.1013 -0.0576943 0)
(9.90846 -0.031062 0)
(9.7542 -0.0466288 0)
(9.59243 -0.0459778 0)
(9.42426 -0.0450313 0)
(9.25849 -0.0450844 0)
(9.09965 -0.0449851 0)
(8.94848 -0.0444822 0)
(8.80444 -0.0437785 0)
(8.66684 -0.0430345 0)
(8.53541 -0.0423121 0)
(8.40976 -0.0416058 0)
(8.28997 -0.0409267 0)
(8.17543 -0.0402561 0)
(8.0665 -0.0396263 0)
(7.96194 -0.0390036 0)
(7.86294 -0.0384483 0)
(7.767 -0.0379103 0)
(7.6772 -0.0375035 0)
(-0.151615 0.317364 7.68465e-22)
(-0.383351 0.170099 -7.43518e-22)
(-0.474418 0.0209773 0)
(-0.416791 -0.141279 0)
(-0.240432 -0.261061 0)
(0.0191243 -0.334711 7.10343e-22)
(0.322677 -0.364173 0)
(0.646136 -0.365145 0)
(0.967379 -0.346958 0)
(1.26973 -0.315146 0)
(1.5417 -0.275244 -4.8891e-22)
(1.77896 -0.23199 0)
(1.97761 -0.187027 0)
(2.1358 -0.141295 0)
(2.25307 -0.0955388 0)
(2.33093 -0.0509947 -1.49574e-22)
(2.36933 -0.00724386 0)
(2.36866 0.0356916 0)
(2.33019 0.0754038 0)
(2.25736 0.111624 0)
(2.15179 0.143011 0)
(2.01683 0.169483 0)
(1.85292 0.189443 0)
(1.66804 0.187905 -1.80996e-22)
(1.47512 0.164955 1.9325e-22)
(1.28402 0.133209 -1.99928e-22)
(1.09919 0.0879116 -1.99644e-22)
(0.931628 0.0493811 0)
(0.764062 0.0518785 0)
(0.584949 0.0563607 1.62896e-22)
(0.410546 0.0687382 1.38701e-22)
(0.227341 0.108207 0)
(0.0437104 0.107985 0)
(-0.125766 0.0757364 5.5856e-23)
(-0.300638 0.0681389 0)
(-0.474489 0.103641 0)
(-0.635627 0.0877798 5.35168e-23)
(-0.782551 0.0647203 0)
(-0.921321 0.0840071 1.42245e-22)
(-1.07112 0.100419 3.73282e-22)
(-1.20843 0.0862539 0)
(-1.33715 0.0763433 0)
(-1.47578 0.0735963 0)
(-1.63088 0.0999227 0)
(-1.81502 0.133077 0)
(-2.01112 0.1388 1.03436e-21)
(-2.21453 0.137529 1.09982e-21)
(-2.42655 0.14165 1.14942e-21)
(-2.631 0.129666 0)
(-2.82379 0.137751 -1.22357e-21)
(-2.97244 0.0910197 0)
(-3.08673 -0.00684285 1.26737e-21)
(-3.16744 -0.0321641 1.26844e-21)
(-3.31787 -0.0470734 0)
(-3.48547 -0.00559375 0)
(-3.71261 0.136981 0)
(-3.98976 0.151314 1.18815e-21)
(-4.22543 0.119253 0)
(-4.44969 0.080949 0)
(-4.6139 0.0620536 0)
(-4.73339 0.0526926 0)
(-4.82903 0.0262723 0)
(-4.94018 -0.0149725 0)
(-5.05753 0.07923 0)
(-5.26605 0.131678 0)
(-5.4388 0.11555 -1.77113e-21)
(-5.58925 0.105896 0)
(-5.71744 0.0898694 0)
(-5.8204 0.0753808 2.10838e-21)
(-5.90299 0.059547 2.20986e-21)
(-5.96363 0.0448192 0)
(-6.00547 0.0305775 -2.36826e-21)
(-6.02782 0.0179808 2.42288e-21)
(-6.0331 0.00642306 0)
(-6.02171 -0.00382536 -2.48148e-21)
(-5.99609 -0.0128187 0)
(-5.95798 -0.0199523 0)
(-5.90985 -0.0253714 2.42959e-21)
(-5.85334 -0.0293593 0)
(-5.79022 -0.0319488 -2.27521e-21)
(-5.72331 -0.0328547 0)
(-5.65456 -0.0331132 1.99962e-21)
(-5.58367 -0.0347625 1.81903e-21)
(-5.50604 -0.0416748 1.61636e-21)
(-5.41951 -0.0482515 2.79313e-21)
(-5.32348 -0.0622445 -2.32969e-21)
(-5.20965 -0.0884945 0)
(-5.10239 -0.0663325 0)
(-5.02458 -0.0320033 0)
(-4.95234 -0.0277604 -4.21972e-22)
(-4.8549 -0.0384012 -1.28083e-23)
(-4.73325 -0.051319 -3.61158e-22)
(-4.58887 -0.0631137 0)
(-4.42512 -0.0736758 1.04606e-21)
(-4.24419 -0.082233 1.36982e-21)
(-4.04939 -0.0885935 1.6869e-21)
(-3.8437 -0.092579 0)
(-3.63018 -0.0947091 0)
(-3.41147 -0.095658 0)
(-3.18933 -0.0962802 2.96374e-21)
(-2.96407 -0.0972762 0)
(-2.73499 -0.0987016 0)
(-2.50208 -0.100001 -3.95405e-21)
(-2.26578 -0.101007 0)
(-2.02642 -0.101858 0)
(-1.7839 -0.102351 -4.88536e-21)
(-1.54001 -0.101605 0)
(-1.29776 -0.0992 0)
(-1.06018 -0.0951901 5.65382e-21)
(-0.830026 -0.0897624 5.86327e-21)
(-0.610306 -0.0832448 0)
(-0.403296 -0.0761777 -6.20704e-21)
(-0.209512 -0.0694847 0)
(-0.0270164 -0.0639656 6.44756e-21)
(0.146643 -0.0597815 0)
(0.314032 -0.0570586 6.59259e-21)
(0.478621 -0.0558021 6.63731e-21)
(0.642189 -0.0549824 0)
(0.804026 -0.0537878 0)
(0.963236 -0.052272 0)
(1.11959 -0.0507111 0)
(1.27322 -0.0491652 0)
(1.42386 -0.0474253 0)
(1.5707 -0.0452871 0)
(1.71259 -0.0427109 6.66654e-21)
(1.84835 -0.0396048 -6.63085e-21)
(1.9767 -0.0360115 0)
(2.09655 -0.0321074 0)
(2.20697 -0.0280716 0)
(2.30785 -0.0243291 0)
(2.39934 -0.0209985 -1.25776e-20)
(2.48121 -0.017786 0)
(2.55241 -0.0150718 1.21883e-20)
(2.61408 -0.012384 -1.19835e-20)
(2.66411 -0.00886364 0)
(2.70522 -0.00449565 0)
(2.73292 -0.000152675 0)
(2.74773 0.000462356 1.11142e-20)
(2.75835 5.30491e-05 1.08763e-20)
(2.74992 0.00796292 0)
(2.71056 0.0192758 1.02862e-20)
(2.65485 0.0238116 9.93705e-21)
(2.60595 0.022131 -9.59727e-21)
(2.56669 0.0188224 0)
(2.5345 0.0146912 0)
(2.51011 0.010434 -8.91015e-21)
(2.49296 0.00639244 0)
(2.48478 0.00252831 0)
(2.4858 0.00114218 0)
(2.49174 0.00248482 0)
(2.49883 0.00442604 8.84413e-21)
(2.50479 0.00579125 8.9143e-21)
(2.50814 0.00638253 0)
(2.50886 0.00689245 9.05581e-21)
(2.50354 0.00721425 0)
(2.49277 0.00668241 0)
(2.47467 0.00767039 9.12236e-21)
(2.44217 0.00819881 0)
(2.40029 0.00854831 8.99585e-21)
(2.34644 0.0104392 0)
(2.27792 0.0158578 0)
(2.1906 0.0207646 8.59013e-21)
(2.12404 0.0189594 0)
(2.08262 0.011349 8.13862e-21)
(2.05741 0.00430987 0)
(2.04373 0.000132767 0)
(2.03574 -0.00148848 0)
(2.03477 -0.00241457 -7.65173e-21)
(2.0402 -0.00348076 0)
(2.04996 -0.00279227 7.59314e-21)
(2.05671 0.000663457 0)
(2.0572 0.00399536 0)
(2.05085 0.00544627 0)
(2.04351 0.00312791 0)
(2.04025 0.0025934 0)
(2.03037 0.000325076 0)
(2.02834 0.00765048 0)
(1.97087 0.00247749 -1.48365e-20)
(1.98408 0.0304466 0)
(1.76727 0.0127036 0)
(-0.0169942 0.716004 -2.22132e-21)
(-0.0281791 0.461792 2.15782e-21)
(0.0656142 0.0421461 0)
(0.250552 -0.353973 -1.29622e-21)
(0.492684 -0.669858 0)
(0.773876 -0.874068 -7.13229e-22)
(1.06573 -0.971908 1.12993e-21)
(1.34931 -0.985871 1.03538e-21)
(1.60915 -0.941548 0)
(1.8417 -0.858813 7.7123e-22)
(2.04433 -0.752535 4.9164e-22)
(2.214 -0.633874 0)
(2.34929 -0.510565 0)
(2.45053 -0.388989 0)
(2.51946 -0.274383 0)
(2.55874 -0.168063 1.52218e-22)
(2.5699 -0.0654245 0)
(2.5564 0.0333827 7.8035e-23)
(2.51962 0.12268 0)
(2.46128 0.20411 0)
(2.3828 0.279061 -1.69802e-23)
(2.28457 0.35042 0)
(2.16623 0.412295 -7.90108e-23)
(2.0248 0.465008 1.85832e-22)
(1.86742 0.495309 -1.98186e-22)
(1.68031 0.501017 2.04763e-22)
(1.45796 0.502866 2.04245e-22)
(1.21535 0.51033 0)
(0.935721 0.516802 0)
(0.645499 0.518205 -1.66538e-22)
(0.37383 0.505915 -7.29585e-23)
(0.125089 0.471015 0)
(-0.131323 0.435952 0)
(-0.388942 0.448773 -5.87471e-23)
(-0.6325 0.448804 0)
(-0.829447 0.382151 0)
(-1.02378 0.346771 -5.00975e-23)
(-1.22836 0.339408 0)
(-1.4155 0.326078 5.18181e-22)
(-1.57425 0.296189 -3.65749e-22)
(-1.72524 0.268197 0)
(-1.86791 0.278993 0)
(-2.0252 0.321591 -2.12867e-21)
(-2.18706 0.374628 -2.34525e-21)
(-2.35678 0.405983 -2.52365e-21)
(-2.53638 0.424286 1.63105e-21)
(-2.73089 0.444407 -1.09263e-21)
(-2.92116 0.43378 -3.96301e-21)
(-3.07175 0.404925 2.88512e-21)
(-3.20128 0.329448 1.21777e-21)
(-3.32633 0.246489 0)
(-3.5515 0.277495 -1.26187e-21)
(-3.77305 0.333139 1.7485e-21)
(-4.08493 0.469579 0)
(-4.37322 0.517468 0)
(-4.58775 0.509431 0)
(-4.80961 0.483867 -1.18026e-21)
(-5.01264 0.466961 0)
(-5.20451 0.400437 3.00608e-21)
(-5.30502 0.285521 0)
(-5.39243 0.175454 3.21944e-21)
(-5.51472 0.214682 0)
(-5.70049 0.293696 -3.56787e-21)
(-5.8229 0.31131 0)
(-5.94726 0.298117 3.89775e-21)
(-6.03607 0.253441 -2.31217e-21)
(-6.11609 0.21466 0)
(-6.17426 0.171915 -4.47113e-21)
(-6.21824 0.133586 -2.10437e-21)
(-6.24567 0.0960501 -2.20619e-21)
(-6.25915 0.0617678 0)
(-6.25743 0.0288141 -2.72503e-21)
(-6.24179 -0.00164486 -2.42025e-21)
(-6.21221 -0.0296396 0)
(-6.17024 -0.0540711 2.47986e-21)
(-6.11694 -0.0749999 -5.25785e-21)
(-6.05406 -0.0924799 0)
(-5.98292 -0.10657 -2.42905e-21)
(-5.90552 -0.116853 0)
(-5.82389 -0.122682 7.0949e-21)
(-5.74068 -0.125289 0)
(-5.65741 -0.127918 -6.25762e-21)
(-5.57596 -0.134125 -1.8191e-21)
(-5.49721 -0.142778 1.85457e-21)
(-5.41666 -0.150885 3.24523e-21)
(-5.33312 -0.159967 -2.76779e-21)
(-5.2676 -0.148578 0)
(-5.20056 -0.129071 0)
(-5.09579 -0.137208 0)
(-4.96665 -0.162559 1.7602e-21)
(-4.81281 -0.19438 1.25021e-23)
(-4.64051 -0.223772 3.61691e-22)
(-4.45216 -0.249781 0)
(-4.25179 -0.271595 6.736e-22)
(-4.04129 -0.289176 -1.36984e-21)
(-3.82326 -0.302242 -1.68647e-21)
(-3.59924 -0.310862 0)
(-3.37115 -0.315868 0)
(-3.14012 -0.318547 0)
(-2.90653 -0.320141 -2.96165e-21)
(-2.66991 -0.321592 0)
(-2.43034 -0.32309 6.96272e-21)
(-2.1877 -0.324477 1.15902e-20)
(-1.94184 -0.325813 -8.30447e-21)
(-1.69244 -0.326674 0)
(-1.44075 -0.326064 -4.67789e-21)
(-1.18879 -0.322702 0)
(-0.939353 -0.315947 -1.06626e-20)
(-0.694907 -0.305614 5.4884e-21)
(-0.457928 -0.2919 5.70502e-21)
(-0.23082 -0.275486 0)
(-0.0145038 -0.258231 1.84673e-20)
(0.191616 -0.242089 -1.25321e-20)
(0.389063 -0.228351 -6.44553e-21)
(0.579662 -0.217696 0)
(0.765262 -0.210514 -6.59032e-21)
(0.947856 -0.205963 -1.97867e-20)
(1.1278 -0.202027 0)
(1.3049 -0.197697 -1.32749e-20)
(1.47925 -0.193148 -1.33102e-20)
(1.651 -0.188638 -1.33306e-20)
(1.82016 -0.183963 0)
(1.98623 -0.178607 0)
(2.14855 -0.172198 0)
(2.3061 -0.164603 6.5862e-21)
(2.45811 -0.155804 6.62692e-21)
(2.60357 -0.145889 0)
(2.74174 -0.135231 1.29687e-20)
(2.87181 -0.124184 1.28305e-20)
(2.9931 -0.112912 0)
(3.10468 -0.101299 1.25689e-20)
(3.20554 -0.0888769 2.46145e-20)
(3.29432 -0.0762105 -1.21797e-20)
(3.37111 -0.0640679 -1.18347e-20)
(3.43408 -0.0529389 0)
(3.48696 -0.0417422 0)
(3.52574 -0.0282535 0)
(3.55048 -0.0178645 -1.11055e-20)
(3.5595 -0.00488331 1.068e-20)
(3.54923 0.0170705 2.09573e-20)
(3.53049 0.0342437 -1.02776e-20)
(3.51707 0.0362049 9.65009e-21)
(3.51584 0.029321 9.58918e-21)
(3.52144 0.0227489 0)
(3.53012 0.0174759 0)
(3.54063 0.0120187 -8.70407e-21)
(3.5531 0.00597219 0)
(3.56772 -0.000840825 0)
(3.58471 -0.00754413 1.7325e-20)
(3.60532 -0.0122947 0)
(3.63082 -0.0140976 8.66376e-21)
(3.66029 -0.0133595 -8.90615e-21)
(3.69146 -0.0110294 0)
(3.72183 -0.00710518 8.87595e-21)
(3.74797 -0.00133813 0)
(3.76714 0.00604231 0)
(3.77619 0.0160926 -9.11378e-21)
(3.76754 0.0280677 1.79598e-20)
(3.73884 0.0403381 -8.98647e-21)
(3.68001 0.0543052 0)
(3.58305 0.0627992 0)
(3.47286 0.0542697 8.36153e-21)
(3.40678 0.0339255 0)
(3.37303 0.019743 7.9419e-21)
(3.36339 0.0115027 0)
(3.36543 0.00684417 0)
(3.37211 0.00217975 0)
(3.38292 -0.00375349 7.64369e-21)
(3.3977 -0.00804626 0)
(3.41384 -0.0100664 -7.58542e-21)
(3.43028 -0.00844105 0)
(3.44697 -0.0052818 0)
(3.46316 -0.00132729 1.49485e-20)
(3.47325 -0.0014362 -1.49116e-20)
(3.48161 0.00200059 0)
(3.4755 0.00133101 0)
(3.48198 0.0169554 0)
(3.44575 0.0163797 4.4271e-20)
(3.46188 0.0607259 0)
(3.34221 0.0588398 -2.92041e-20)
(0.050433 0.500447 -5.21657e-25)
(0.215563 0.0812496 -2.83657e-21)
(0.476655 -0.466659 0)
(0.77135 -0.9541 2.52348e-21)
(1.05465 -1.28672 0)
(1.30285 -1.46433 0)
(1.51248 -1.50732 -3.24184e-22)
(1.68959 -1.45398 -1.04046e-21)
(1.83795 -1.34047 -4.92197e-22)
(1.96338 -1.19071 -7.74554e-22)
(2.06758 -1.01978 0)
(2.15092 -0.839722 0)
(2.21275 -0.659153 -1.33889e-22)
(2.25281 -0.482614 -5.0373e-22)
(2.27029 -0.31324 6.89494e-22)
(2.26453 -0.153584 0)
(2.23548 -0.00574475 8.9584e-22)
(2.1873 0.128221 -7.87037e-23)
(2.12517 0.250834 0)
(2.05228 0.360686 8.36599e-22)
(1.96866 0.45767 1.65883e-23)
(1.87372 0.551749 -6.38878e-22)
(1.76677 0.640389 8.0895e-23)
(1.6492 0.707631 0)
(1.51413 0.760744 3.03038e-22)
(1.34265 0.83123 2.19078e-22)
(1.14084 0.898282 0)
(0.918044 0.956085 1.4816e-22)
(0.673417 0.99434 0)
(0.420601 1.0003 2.49228e-22)
(0.169033 0.961691 -7.65843e-23)
(-0.100439 0.953878 0)
(-0.381626 0.948386 0)
(-0.649383 0.903188 0)
(-0.885997 0.820899 0)
(-1.12072 0.744867 0)
(-1.36071 0.736252 0)
(-1.58887 0.703233 1.84387e-21)
(-1.79488 0.638406 -2.74965e-21)
(-1.98792 0.577784 0)
(-2.18456 0.546134 0)
(-2.36271 0.539065 0)
(-2.54365 0.5693 -8.17693e-22)
(-2.71488 0.627425 2.34465e-21)
(-2.89095 0.667296 5.80821e-21)
(-3.07091 0.694734 -6.05844e-21)
(-3.21613 0.706663 -3.46705e-21)
(-3.35038 0.634229 2.82112e-21)
(-3.44626 0.542546 6.89861e-22)
(-3.60087 0.52967 3.6282e-21)
(-3.82237 0.585205 0)
(-4.04218 0.633441 3.70643e-21)
(-4.28282 0.713335 7.11581e-22)
(-4.50589 0.767246 0)
(-4.69023 0.764562 0)
(-4.85632 0.743521 -3.6637e-21)
(-5.02456 0.717196 0)
(-5.13998 0.63806 0)
(-5.23774 0.504697 4.31093e-21)
(-5.28074 0.330561 7.45412e-21)
(-5.40736 0.344557 -3.22372e-21)
(-5.54771 0.411002 0)
(-5.67035 0.432754 3.57489e-21)
(-5.74294 0.418309 0)
(-5.8045 0.38322 5.25983e-21)
(-5.84179 0.328062 4.08492e-21)
(-5.87825 0.27371 -9.86457e-21)
(-5.90052 0.216334 -5.71663e-21)
(-5.91909 0.163801 0)
(-5.92663 0.111833 1.07574e-20)
(-5.92744 0.0627257 0)
(-5.918 0.0150126 1.62477e-20)
(-5.90045 -0.0297014 1.12726e-20)
(-5.87371 -0.0711417 1.13424e-20)
(-5.83923 -0.107966 -1.1357e-20)
(-5.79682 -0.13987 1.65801e-20)
(-5.74759 -0.166516 0)
(-5.69216 -0.187567 0)
(-5.63233 -0.20192 -1.07434e-20)
(-5.56994 -0.208738 -1.51898e-20)
(-5.50631 -0.209205 0)
(-5.44162 -0.206635 4.26584e-21)
(-5.37296 -0.20656 0)
(-5.30081 -0.213659 -1.10959e-20)
(-5.22039 -0.225799 6.64797e-22)
(-5.14484 -0.227578 -6.69208e-22)
(-5.05887 -0.227742 4.82404e-21)
(-4.93783 -0.246205 0)
(-4.7871 -0.281432 -2.92987e-21)
(-4.62068 -0.324807 6.74252e-22)
(-4.44221 -0.370101 0)
(-4.25812 -0.411016 0)
(-4.06789 -0.446513 0)
(-3.87313 -0.475219 -1.71606e-21)
(-3.67305 -0.497664 0)
(-3.46795 -0.513815 0)
(-3.25722 -0.524472 0)
(-3.04118 -0.530819 0)
(-2.81965 -0.534699 0)
(-2.5925 -0.537782 -5.1393e-21)
(-2.35968 -0.541134 0)
(-2.12153 -0.544748 -6.9592e-21)
(-1.8785 -0.548456 -7.63528e-21)
(-1.63128 -0.551784 8.30168e-21)
(-1.38104 -0.553707 0)
(-1.12975 -0.552308 9.55911e-21)
(-0.879712 -0.545779 0)
(-0.632957 -0.533432 1.06601e-20)
(-0.391373 -0.515093 -1.11378e-20)
(-0.156594 -0.491663 -3.41961e-20)
(0.0697078 -0.464706 0)
(0.286891 -0.43699 -3.63129e-20)
(0.495348 -0.411334 -1.2077e-20)
(0.695666 -0.38931 0)
(0.888815 -0.371736 -2.54198e-20)
(1.07598 -0.358911 -2.57034e-20)
(1.25821 -0.349535 3.90684e-20)
(1.43601 -0.341325 0)
(1.61021 -0.333196 1.32705e-20)
(1.78161 -0.325119 1.33058e-20)
(1.95045 -0.31713 3.96838e-20)
(2.11655 -0.308822 0)
(2.2792 -0.299454 0)
(2.4378 -0.288613 0)
(2.59164 -0.276076 1.2996e-20)
(2.74034 -0.262022 0)
(2.88333 -0.246563 0)
(3.01999 -0.229925 -1.29631e-20)
(3.14935 -0.212373 -1.28252e-20)
(3.27041 -0.193949 0)
(3.38187 -0.17443 0)
(3.483 -0.153564 -2.46052e-20)
(3.57279 -0.132221 0)
(3.65128 -0.111348 2.38e-20)
(3.71661 -0.0907077 2.31432e-20)
(3.76843 -0.0691608 0)
(3.80312 -0.0451299 0)
(3.82186 -0.0241876 -2.17831e-20)
(3.82259 -0.00211556 -2.98917e-22)
(3.81171 0.0235515 -3.44655e-22)
(3.80397 0.0383372 0)
(3.80632 0.0344552 -3.87659e-20)
(3.81402 0.0229876 0)
(3.82264 0.0133886 0)
(3.83476 0.00526362 0)
(3.85057 -0.00274186 1.7597e-20)
(3.86983 -0.0103096 0)
(3.89133 -0.0172256 -3.40812e-20)
(3.91325 -0.0231409 -1.73176e-20)
(3.93568 -0.0277386 0)
(3.9605 -0.0309377 -1.74929e-20)
(3.98923 -0.0325468 0)
(4.0221 -0.0321453 0)
(4.05775 -0.0288907 -5.3208e-20)
(4.09408 -0.0219703 3.54997e-20)
(4.12757 -0.0110669 0)
(4.15543 0.00533946 3.55708e-20)
(4.17112 0.0274033 -1.79513e-20)
(4.16859 0.0566851 0)
(4.13471 0.0926216 0)
(4.06739 0.116775 0)
(3.99008 0.107734 -5.01528e-20)
(3.92637 0.0725212 0)
(3.86288 0.0384451 -1.60641e-20)
(3.81743 0.01246 0)
(3.79776 -0.00199318 0)
(3.80355 -0.00917236 0)
(3.81991 -0.0149486 0)
(3.84225 -0.0189618 0)
(3.86718 -0.0197051 0)
(3.89404 -0.0171017 -2.96378e-20)
(3.91893 -0.0134921 0)
(3.94229 -0.00858389 -1.49422e-20)
(3.95635 -0.00717679 4.44148e-20)
(3.96519 -0.00208916 0)
(3.95627 -0.00164717 0)
(3.95426 0.0137834 -2.92775e-20)
(3.92765 0.0199014 -2.94368e-20)
(3.93698 0.0622644 2.90214e-20)
(3.89006 0.0833797 2.91913e-20)
(0.073541 0.132721 4.23996e-21)
(0.341014 -0.502121 4.09971e-21)
(0.699451 -1.15387 2.42495e-21)
(0.991849 -1.57159 8.69082e-22)
(1.21828 -1.77622 0)
(1.37768 -1.82974 -1.31827e-21)
(1.4906 -1.77638 1.00068e-22)
(1.57677 -1.64942 0)
(1.64551 -1.48339 4.92662e-22)
(1.70246 -1.29477 0)
(1.74857 -1.0929 6.14288e-22)
(1.78304 -0.883975 0)
(1.80343 -0.672615 1.35501e-22)
(1.80758 -0.463317 5.06997e-22)
(1.79451 -0.260747 -6.92814e-22)
(1.76372 -0.0696988 0)
(1.71509 0.105498 -8.98978e-22)
(1.64994 0.259751 0)
(1.5703 0.392973 0)
(1.4826 0.51114 -8.39369e-22)
(1.39029 0.623912 0)
(1.29289 0.734624 -7.68574e-22)
(1.18897 0.833614 0)
(1.06893 0.934318 0)
(0.923816 1.04784 7.37636e-22)
(0.761223 1.15563 -2.14163e-22)
(0.586176 1.24429 -8.65699e-22)
(0.40438 1.31631 -1.38488e-22)
(0.208847 1.36594 0)
(0.00669509 1.38297 -1.11593e-21)
(-0.224842 1.40338 0)
(-0.47299 1.40132 -1.09514e-21)
(-0.71134 1.36922 0)
(-0.949821 1.30716 0)
(-1.17802 1.2273 1.66913e-21)
(-1.42962 1.17263 0)
(-1.66924 1.12833 -2.21529e-21)
(-1.89709 1.06585 6.70465e-22)
(-2.12164 1.00114 4.87255e-21)
(-2.35117 0.945283 -6.08333e-21)
(-2.57595 0.886726 0)
(-2.78684 0.859522 0)
(-2.99036 0.873061 -4.46494e-21)
(-3.16665 0.910987 0)
(-3.33643 0.940815 -3.28108e-21)
(-3.48185 0.922981 3.39535e-21)
(-3.59416 0.865935 3.46241e-21)
(-3.70006 0.771975 0)
(-3.83139 0.772006 -3.5702e-21)
(-3.99677 0.832846 -3.62359e-21)
(-4.15839 0.871276 8.99496e-21)
(-4.32103 0.922652 -3.70453e-21)
(-4.48154 0.983094 -3.7174e-21)
(-4.61247 0.99436 0)
(-4.73144 0.979536 0)
(-4.84977 0.946357 3.66707e-21)
(-4.94748 0.870124 0)
(-5.01503 0.753011 0)
(-5.06227 0.591273 -7.32853e-21)
(-5.14022 0.499565 -7.46728e-21)
(-5.27308 0.523497 0)
(-5.37777 0.553183 0)
(-5.44678 0.531914 0)
(-5.48217 0.488119 0)
(-5.50988 0.429869 -9.17384e-21)
(-5.52537 0.365229 1.09417e-20)
(-5.54071 0.301757 9.87516e-21)
(-5.54535 0.236123 2.17371e-20)
(-5.54794 0.173357 0)
(-5.54349 0.111396 1.21029e-21)
(-5.53717 0.052745 0)
(-5.52632 -0.0035405 -1.11642e-20)
(-5.51341 -0.0559144 1.03793e-21)
(-5.49702 -0.103917 -1.13575e-20)
(-5.47808 -0.146206 1.13722e-20)
(-5.45552 -0.182514 9.04013e-22)
(-5.42901 -0.21236 0)
(-5.39747 -0.235133 1.18704e-20)