/*--------------------------------*- C++ -*----------------------------------*\
| =========                 |                                                 |
| \\      /  F ield         | OpenFOAM: The Open Source CFD Toolbox           |
|  \\    /   O peration     | Version:  2112                                  |
|   \\  /    A nd           | Website:  www.openfoam.com                      |
|    \\/     M anipulation  |                                                 |
\*---------------------------------------------------------------------------*/
FoamFile
{
    version     2.0;
    format      ascii;
    arch        "LSB;label=32;scalar=64";
    class       volScalarField;
    location    "0.32";
    object      k;
}
// * * * * * * * * * * * * * * * * * * * * * * * * * * * * * * * * * * * * * //

dimensions      [0 2 -2 0 0 0 0];

internalField   nonuniform List<scalar> 
12225
(
0.375979
0.378825
0.380894
0.382885
0.38352
0.383336
0.381532
0.377315
0.375171
0.374548
0.374438
0.374404
0.374317
0.373933
0.37276
0.371903
0.371549
0.371653
0.375165
0.369483
0.360811
0.350507
0.340319
0.333552
0.329691
0.328477
0.327639
0.326332
0.323669
0.321318
0.319564
0.31785
0.317133
0.317445
0.318921
0.322648
0.374933
0.037582
0.0210866
0.0180731
0.017251
0.0188613
0.0243232
0.0381367
0.054801
0.0682962
0.0753595
0.0808135
0.083374
0.0875981
0.0911481
0.0977619
0.107221
0.122589
0.375095
0.340657
0.253811
0.13318
0.11454
0.118088
0.0747832
0.0186461
0.004181
0.00207274
0.00250139
0.00360317
0.0054837
0.00748675
0.00935832
0.0112255
0.0130448
0.0169306
0.375015
0.330206
0.311125
0.271221
0.236092
0.243327
0.251813
0.243331
0.198957
0.128268
0.0714083
0.041108
0.0356152
0.0401079
0.0490394
0.0521498
0.0509021
0.0421671
0.375229
0.332897
0.296254
0.251814
0.230582
0.239987
0.269347
0.277737
0.275357
0.258484
0.193274
0.122875
0.104725
0.103189
0.102304
0.098162
0.0809527
0.0594538
0.375057
0.31773
0.24724
0.249617
0.249415
0.236805
0.226908
0.227202
0.227876
0.221881
0.177461
0.092604
0.0645034
0.0601525
0.0559839
0.0477936
0.0403215
0.0368782
0.374932
0.338639
0.236669
0.218507
0.214033
0.208374
0.20969
0.215627
0.214844
0.195497
0.113944
0.0520153
0.0328319
0.0295753
0.0297062
0.0318739
0.0376905
0.0411501
0.375036
0.346809
0.253505
0.219792
0.221288
0.24182
0.259727
0.260752
0.250387
0.196414
0.105937
0.0567546
0.0360732
0.0318377
0.0345211
0.0519989
0.0704391
0.0766825
0.375097
0.332104
0.218727
0.181711
0.191144
0.232688
0.258833
0.263157
0.258217
0.220235
0.131389
0.0784338
0.0580232
0.0564539
0.0653877
0.0818539
0.0871284
0.086907
0.375059
0.328779
0.193497
0.167944
0.17788
0.205639
0.218692
0.223518
0.221534
0.207107
0.156682
0.105219
0.0783464
0.0709741
0.0715511
0.0748972
0.0751601
0.0722117
0.375
0.35271
0.255526
0.177623
0.179095
0.191446
0.196471
0.213237
0.218456
0.212475
0.174293
0.106469
0.0680141
0.0538503
0.0526302
0.0561047
0.0599829
0.0602458
0.375232
0.338092
0.260129
0.252276
0.274672
0.277381
0.250957
0.243224
0.247588
0.248504
0.231788
0.169854
0.125391
0.0934526
0.0701418
0.0558069
0.0494999
0.047687
0.375522
0.341369
0.334904
0.333343
0.335411
0.334058
0.312425
0.267258
0.239825
0.215358
0.193129
0.183447
0.183169
0.17686
0.145314
0.105581
0.0887052
0.0828221
0.375687
0.343879
0.352339
0.352492
0.340899
0.312405
0.238888
0.187177
0.169949
0.159038
0.146947
0.137535
0.132331
0.13068
0.131063
0.133378
0.142565
0.162476
0.375402
0.364147
0.342568
0.329191
0.325121
0.322656
0.300363
0.223444
0.163497
0.13011
0.109629
0.100964
0.103706
0.126814
0.177172
0.219024
0.249732
0.26627
0.375039
0.361781
0.333307
0.305414
0.292774
0.296042
0.296449
0.274642
0.215651
0.193499
0.187071
0.17681
0.170281
0.170202
0.17777
0.202832
0.222551
0.234089
0.374999
0.356696
0.300257
0.295032
0.314338
0.335892
0.338569
0.331992
0.306591
0.289454
0.282891
0.276362
0.260086
0.212615
0.169198
0.144894
0.1353
0.133843
0.374973
0.342396
0.293292
0.301709
0.337758
0.347707
0.345599
0.327139
0.278621
0.242686
0.230347
0.231473
0.234016
0.231609
0.213676
0.162205
0.125225
0.109358
0.374982
0.353313
0.32445
0.324716
0.33208
0.332838
0.326124
0.287958
0.204472
0.1561
0.141769
0.14665
0.182084
0.212478
0.217909
0.211984
0.183792
0.163038
0.374994
0.361678
0.328957
0.283148
0.266823
0.264008
0.26527
0.267825
0.268122
0.265474
0.251756
0.228703
0.219701
0.225084
0.246268
0.256259
0.256437
0.250616
0.375019
0.347251
0.323583
0.270263
0.237679
0.236927
0.250563
0.261972
0.267161
0.270352
0.270762
0.265231
0.242796
0.234789
0.240133
0.261929
0.272013
0.272347
0.374994
0.342312
0.298135
0.295578
0.279096
0.273128
0.267519
0.256914
0.252999
0.254864
0.260016
0.260224
0.255403
0.252676
0.256122
0.264908
0.267511
0.266897
0.374967
0.326504
0.225568
0.248902
0.275099
0.281255
0.280602
0.273668
0.266137
0.258754
0.240632
0.20221
0.167039
0.151098
0.151753
0.163741
0.174467
0.176733
0.374991
0.341108
0.28717
0.300343
0.314309
0.315534
0.310892
0.295162
0.263366
0.222168
0.1774
0.136596
0.107936
0.0975127
0.101506
0.130369
0.174579
0.2013
0.374991
0.342661
0.314984
0.321967
0.327019
0.321256
0.296765
0.28555
0.283399
0.279183
0.26132
0.214906
0.183263
0.173288
0.174593
0.189349
0.220064
0.240426
0.375118
0.345385
0.319007
0.293289
0.251018
0.181688
0.130362
0.109919
0.104701
0.100716
0.0922522
0.076008
0.0563303
0.0375133
0.0233804
0.0153159
0.0119503
0.0112535
0.374927
0.0378786
0.00570023
0.00477156
0.00695679
0.0139081
0.0187955
0.0192039
0.0179176
0.0147471
0.013875
0.0139767
0.0147204
0.0167858
0.0202344
0.0229908
0.0258125
0.0280302
0.375014
0.371649
0.364397
0.358699
0.355736
0.353369
0.349442
0.343755
0.337342
0.331559
0.327142
0.325004
0.324249
0.323078
0.321377
0.319604
0.318703
0.318198
0.375572
0.375755
0.375814
0.376432
0.377195
0.377227
0.376681
0.375724
0.375465
0.37557
0.376434
0.377519
0.377954
0.378022
0.37795
0.377488
0.375979
0.374617
0.364505
0.372376
0.35889
0.361422
0.354491
0.337634
0.330443
0.333648
0.333033
0.329112
0.320871
0.310965
0.305701
0.298155
0.294359
0.295051
0.297747
0.30412
0.308624
0.318635
0.351646
0.336655
0.26265
0.22677
0.213656
0.214568
0.23009
0.253603
0.251191
0.252392
0.28061
0.524397
0.520415
0.32274
0.244513
0.219098
0.207597
0.198288
0.185655
0.176831
0.16631
0.158759
0.150533
0.145065
0.138952
0.135543
0.13116
0.128856
0.12606
0.124576
0.123237
0.12245
0.122031
0.121905
0.121862
0.121906
0.122144
0.122518
0.123015
0.123727
0.124629
0.125665
0.12685
0.12818
0.129647
0.131271
0.133046
0.135013
0.137273
0.13998
0.143294
0.147255
0.151933
0.157317
0.163391
0.170129
0.177558
0.185425
0.193334
0.200442
0.205858
0.209348
0.211838
0.215368
0.220971
0.224458
0.226721
0.229487
0.23314
0.239344
0.247304
0.25492
0.260434
0.265579
0.273863
0.285222
0.296603
0.305918
0.314498
0.322833
0.329075
0.329964
0.328406
0.335128
0.417385
0.503106
0.51131
0.528962
0.682778
1.39489
2.02659
2.04144
1.37978
0.594943
0.349205
0.273956
0.247121
0.237609
0.23322
0.227107
0.218382
0.206504
0.19257
0.178394
0.166268
0.157057
0.152321
0.150392
0.150851
0.151186
0.151276
0.151442
0.151655
0.151606
0.151555
0.151418
0.151219
0.15099
0.150738
0.150493
0.150226
0.149808
0.149155
0.148607
0.148447
0.148755
0.149547
0.15079
0.152589
0.155272
0.158083
0.15993
0.161429
0.162278
0.162304
0.162053
0.161532
0.158975
0.15451
0.15525
0.172758
0.2843
0.368222
0.39381
0.409781
0.440368
0.493426
0.549639
0.579679
0.590186
0.599756
0.621105
0.682444
0.815958
0.944704
0.960276
0.787082
0.410177
0.257598
0.218365
0.387228
0.291186
0.365281
0.376084
0.362224
0.339396
0.299257
0.269581
0.250145
0.236614
0.230238
0.224746
0.219798
0.217192
0.213465
0.206434
0.20271
0.202994
0.205002
0.211393
0.228955
0.266764
0.268881
0.265709
0.239125
0.222821
0.225992
0.233374
0.3047
0.347903
0.362303
0.381308
0.257879
0.191661
0.165939
0.149753
0.137822
0.127257
0.12028
0.113227
0.109292
0.104383
0.101734
0.0983968
0.0962237
0.0939075
0.0922779
0.0905897
0.0895872
0.0884899
0.0879781
0.0874953
0.0872951
0.0872157
0.087299
0.0875343
0.0876222
0.0878623
0.088184
0.0884697
0.0887974
0.0891532
0.0895642
0.0900594
0.0907513
0.0917866
0.0932429
0.0952495
0.0975363
0.099912
0.102347
0.104585
0.106745
0.108878
0.111125
0.113585
0.116564
0.120182
0.124479
0.128951
0.132968
0.136051
0.138792
0.142211
0.1474
0.15273
0.155057
0.159483
0.164513
0.17029
0.174435
0.175969
0.175833
0.175671
0.177409
0.186629
0.207842
0.232694
0.26827
0.299561
0.323373
0.337367
0.338976
0.340371
0.368835
0.386914
0.361232
0.351977
0.377183
0.516981
1.03614
1.28168
0.915406
0.428267
0.287835
0.236579
0.213258
0.199967
0.188177
0.17799
0.168085
0.159683
0.15279
0.148276
0.146195
0.14582
0.148392
0.15104
0.154276
0.156561
0.158673
0.160555
0.162301
0.162895
0.163039
0.162596
0.161605
0.160367
0.158703
0.156901
0.154861
0.15226
0.148388
0.143802
0.139608
0.135631
0.131893
0.128889
0.126091
0.122933
0.12064
0.120644
0.122796
0.126784
0.127991
0.127809
0.126465
0.12088
0.109063
0.107515
0.11339
0.137257
0.20386
0.276741
0.325314
0.3359
0.328221
0.304549
0.273587
0.22576
0.177235
0.148324
0.144584
0.164619
0.287505
0.468988
0.474744
0.333213
0.237779
0.222266
0.412032
0.468528
0.448758
0.367867
0.277061
0.208782
0.190431
0.191912
0.195227
0.198244
0.204798
0.207375
0.206938
0.205397
0.202777
0.197218
0.192941
0.19078
0.190482
0.191749
0.198207
0.209775
0.234342
0.241747
0.233609
0.240073
0.293665
0.30788
0.308835
0.299991
0.230138
0.167061
0.13064
0.106991
0.0936838
0.0798931
0.0725219
0.0642143
0.0583477
0.0524665
0.0467133
0.0418795
0.037038
0.0335339
0.0301653
0.0285251
0.0277303
0.0275364
0.0288615
0.0322151
0.0360927
0.0416809
0.0468528
0.0518232
0.0556581
0.0588093
0.0612352
0.0630259
0.0643922
0.0651281
0.0656736
0.0660965
0.0666511
0.0676124
0.0694132
0.0723575
0.0763958
0.0809861
0.0854327
0.0892993
0.0923471
0.0945398
0.0960306
0.0970398
0.0977335
0.0982024
0.0985022
0.098571
0.0984748
0.0982363
0.098029
0.0979534
0.0981677
0.0985089
0.0991716
0.100126
0.100976
0.101668
0.102296
0.102968
0.103879
0.104482
0.104956
0.105605
0.107124
0.11123
0.12167
0.149958
0.212378
0.265525
0.285942
0.304636
0.325444
0.333438
0.349006
0.354747
0.347804
0.352517
0.439183
0.815912
1.08773
0.900826
0.401822
0.231253
0.177911
0.152038
0.133092
0.119041
0.109076
0.102122
0.0968944
0.0927963
0.0908195
0.090206
0.0921618
0.0977821
0.111396
0.137959
0.16102
0.171602
0.177696
0.180166
0.180823
0.180967
0.18112
0.181284
0.18158
0.181906
0.182249
0.182367
0.181981
0.180876
0.178563
0.174831
0.1704
0.166009
0.160482
0.151696
0.139469
0.124323
0.107583
0.0938963
0.0891024
0.0894177
0.0924581
0.0947575
0.0946957
0.0926299
0.0830693
0.0693554
0.0685665
0.0740672
0.0917928
0.111608
0.143387
0.181812
0.203305
0.206171
0.203789
0.193089
0.15517
0.120393
0.109526
0.120754
0.232486
0.418193
0.423109
0.278574
0.226644
0.226419
0.431087
0.3829
0.230648
0.142559
0.138428
0.14815
0.17148
0.192523
0.210941
0.223571
0.247975
0.263655
0.26379
0.259799
0.248475
0.222511
0.202784
0.193523
0.190596
0.190166
0.191759
0.195798
0.206799
0.215349
0.255156
0.286873
0.289448
0.273919
0.228406
0.162583
0.120164
0.0972608
0.0845242
0.0758959
0.0718005
0.0687492
0.06734
0.0666514
0.0673016
0.072843
0.0798884
0.0854015
0.0910316
0.0957224
0.0994401
0.102833
0.104407
0.105199
0.105462
0.10517
0.103819
0.102224
0.100339
0.0976464
0.096327
0.094592
0.0942169
0.0941824
0.0942824
0.094536
0.0949265
0.0955034
0.0964811
0.0982269
0.100827
0.103898
0.106191
0.106742
0.106682
0.106185
0.105251
0.104035
0.102725
0.101553
0.100568
0.0995882
0.098397
0.0968069
0.0949035
0.0928669
0.0912122
0.0900525
0.0895156
0.0893817
0.0897481
0.0905746
0.0919754
0.0936434
0.0953488
0.0969589
0.098582
0.100068
0.100805
0.101374
0.102577
0.105651
0.113955
0.139775
0.205164
0.259726
0.294568
0.328429
0.352161
0.354299
0.354063
0.352086
0.341701
0.35304
0.522406
0.890566
0.896214
0.450857
0.203207
0.13788
0.113236
0.101362
0.0956536
0.0937308
0.0947803
0.0971063
0.0993711
0.105809
0.12045
0.137981
0.156299
0.173307
0.185703
0.191086
0.192632
0.192953
0.192081
0.189164
0.185949
0.184311
0.183517
0.18317
0.183101
0.183231
0.18385
0.184498
0.184993
0.185325
0.185546
0.184785
0.181771
0.177652
0.174178
0.17197
0.170477
0.168629
0.164773
0.154857
0.138199
0.12462
0.118107
0.116379
0.115977
0.11518
0.113178
0.112165
0.109128
0.100859
0.0991472
0.100717
0.10589
0.120181
0.138758
0.14677
0.147091
0.144341
0.128677
0.116975
0.124392
0.196285
0.340234
0.404149
0.350391
0.237863
0.228855
0.243441
0.267629
0.184373
0.0995115
0.104129
0.13214
0.19315
0.216459
0.226566
0.235084
0.247169
0.279313
0.309763
0.313629
0.309566
0.296237
0.260507
0.223288
0.206175
0.197107
0.190671
0.187262
0.191698
0.206798
0.246988
0.269058
0.271026
0.238071
0.168273
0.128413
0.0978612
0.083705
0.0768718
0.0738845
0.072791
0.0725903
0.074096
0.0805958
0.0928488
0.10325
0.110183
0.113355
0.115644
0.116547
0.116846
0.116763
0.115557
0.113896
0.112662
0.111198
0.109582
0.107905
0.106044
0.104597
0.102993
0.101734
0.101382
0.101352
0.101509
0.101845
0.102571
0.103471
0.104435
0.105376
0.106569
0.107953
0.108477
0.108457
0.107767
0.105908
0.102721
0.0983904
0.0937164
0.0896476
0.0875279
0.0864784
0.0855807
0.0842337
0.0820814
0.0793236
0.0777621
0.0771737
0.0770749
0.0773586
0.0781884
0.0791203
0.0802548
0.0816844
0.0835508
0.0859934
0.0890232
0.0932132
0.0982242
0.100986
0.102213
0.103434
0.106074
0.113861
0.140326
0.207625
0.266529
0.302676
0.329751
0.354147
0.36421
0.363857
0.355799
0.342432
0.361296
0.588458
0.807303
0.565532
0.224688
0.123822
0.0968074
0.0884883
0.0868453
0.0894117
0.0934543
0.099489
0.110269
0.130617
0.150942
0.164465
0.172959
0.182602
0.193002
0.199472
0.202073
0.202782
0.201668
0.197021
0.190491
0.184862
0.182406
0.180677
0.179634
0.179332
0.179352
0.180339
0.18222
0.183752
0.184723
0.185999
0.187064
0.187334
0.185062
0.17914
0.174803
0.172426
0.170765
0.169511
0.168215
0.165271
0.155309
0.132443
0.116924
0.109449
0.105599
0.102661
0.100917
0.100438
0.099699
0.0994645
0.098264
0.0983084
0.103018
0.115714
0.123663
0.125361
0.123747
0.11211
0.106972
0.121798
0.228043
0.351945
0.367611
0.286666
0.231277
0.253178
0.294687
0.211122
0.148991
0.0783901
0.115098
0.189067
0.213895
0.222282
0.227419
0.233606
0.247488
0.287839
0.326784
0.339567
0.337139
0.320045
0.281695
0.243478
0.213995
0.196662
0.186477
0.185788
0.196378
0.23339
0.253222
0.252369
0.203217
0.138238
0.106879
0.0880052
0.0787077
0.0752354
0.0742929
0.0742544
0.0761596
0.0822201
0.0953901
0.106101
0.111749
0.114538
0.115614
0.115831
0.115526
0.113771
0.110385
0.108264
0.105469
0.103024
0.101161
0.098974
0.0978629
0.097286
0.0965993
0.0960778
0.0958831
0.09574
0.0956579
0.095622
0.0956965
0.0959524
0.0966168
0.0970095
0.097779
0.097953
0.0977928
0.0971374
0.0960649
0.0945851
0.0914613
0.0859278
0.0785617
0.0740054
0.0739123
0.0769852
0.0802758
0.0811279
0.0811969
0.0804109
0.0784032
0.0758764
0.0754428
0.0758478
0.0765529
0.0775696
0.078795
0.0795715
0.0801179
0.0804719
0.0806742
0.0807891
0.080839
0.0816802
0.0852916
0.0925544
0.0970711
0.099799
0.103759
0.113808
0.151026
0.225613
0.282234
0.318994
0.342881
0.361447
0.370023
0.370057
0.360811
0.346223
0.379127
0.605583
0.626165
0.320393
0.133077
0.0918817
0.0829368
0.0831021
0.0866135
0.0926664
0.103541
0.125094
0.149458
0.164668
0.17251
0.176766
0.185631
0.202379
0.217221
0.223158
0.225102
0.224369
0.215645
0.20332
0.190299
0.177589
0.17175
0.16974
0.168907
0.168703
0.16879
0.170922
0.175066
0.179011
0.181959
0.183629
0.18564
0.188049
0.189228
0.188388
0.181917
0.175277
0.171451
0.167993
0.166002
0.166309
0.166319
0.163867
0.149544
0.121867
0.106519
0.0994673
0.096819
0.0964451
0.0963973
0.0961435
0.0953903
0.0967888
0.104234
0.110555
0.117557
0.120614
0.1195
0.10924
0.105814
0.124077
0.244054
0.343783
0.333898
0.252884
0.240348
0.31021
0.337834
0.198131
0.139077
0.0715115
0.15267
0.203714
0.218221
0.222927
0.229375
0.235303
0.240709
0.280532
0.331282
0.338866
0.332262
0.309472
0.274649
0.239161
0.209445
0.190582
0.183965
0.19091
0.223336
0.238867
0.239635
0.19019
0.124049
0.0961316
0.0830502
0.0771264
0.0751275
0.0747861
0.0754963
0.0791891
0.0889005
0.102827
0.109478
0.113565
0.114994
0.115351
0.115236
0.113777
0.11142
0.109033
0.107643
0.105848
0.104327
0.103241
0.102329
0.101497
0.100954
0.100729
0.100182
0.0988814
0.0979332
0.0969271
0.0957659
0.094976
0.0935268
0.0924716
0.0911339
0.0895916
0.0880785
0.0857353
0.082778
0.0792676
0.0750463
0.0705678
0.0671693
0.0651643
0.0646476
0.0655621
0.0698876
0.0780195
0.0881845
0.093239
0.0950539
0.0956405
0.0954958
0.0951928
0.0969578
0.100157
0.102356
0.103817
0.103824
0.10303
0.101616
0.0996007
0.0968011
0.0930812
0.0871947
0.0824378
0.0812427
0.0832327
0.0857186
0.0882043
0.0936418
0.108264
0.161956
0.240888
0.294572
0.329968
0.353305
0.36853
0.37444
0.374032
0.36066
0.349747
0.407599
0.568214
0.45752
0.185746
0.096563
0.0810275
0.0806663
0.0843164
0.0924675
0.109752
0.136249
0.158609
0.170981
0.176528
0.179126
0.186715
0.209928
0.231875
0.240364
0.24349
0.243852
0.238375
0.22842
0.214042
0.194729
0.174078
0.161747
0.156459
0.154678
0.154529
0.154884
0.157062
0.163233
0.173063
0.180718
0.18352
0.184221
0.185583
0.188619
0.190575
0.19001
0.183666
0.17578
0.169788
0.16289
0.159755
0.16169
0.164407
0.16409
0.157969
0.132643
0.106267
0.0964306
0.0945135
0.0946006
0.0946751
0.0943852
0.0946746
0.102191
0.112125
0.116901
0.120332
0.119651
0.110054
0.106817
0.125941
0.248583
0.330736
0.306996
0.244864
0.278805
0.352488
0.351914
0.192217
0.134116
0.0690222
0.174078
0.210558
0.222085
0.234484
0.251182
0.249803
0.240131
0.234518
0.295761
0.320322
0.314133
0.290873
0.260742
0.22624
0.195977
0.18581
0.187877
0.214286
0.227771
0.22899
0.190003
0.119442
0.0920157
0.0810994
0.0768828
0.0756372
0.0754311
0.0768597
0.0817814
0.0936586
0.104962
0.110804
0.114411
0.115719
0.116055
0.116104
0.115687
0.114659
0.114214
0.114636
0.117423
0.120703
0.125091
0.127301
0.128492
0.128841
0.128192
0.126127
0.12481
0.122528
0.121381
0.119643
0.117543
0.116277
0.114713
0.11314
0.11144
0.108928
0.105731
0.101149
0.0948747
0.0872164
0.0785423
0.0702886
0.0662967
0.0650249
0.0650308
0.0679698
0.0782334
0.0994399
0.12706
0.138004
0.142101
0.143942
0.144881
0.145225
0.145007
0.144497
0.141942
0.138485
0.133559
0.127701
0.121881
0.118127
0.116318
0.115276
0.113523
0.10297
0.0894369
0.0841354
0.0832915
0.0839015
0.0880267
0.104797
0.170218
0.25144
0.30438
0.338556
0.36075
0.373168
0.376822
0.375259
0.358048
0.353467
0.435075
0.491419
0.311886
0.124449
0.0833235
0.0790829
0.0823433
0.0927035
0.115471
0.141937
0.162511
0.173684
0.178514
0.180407
0.185353
0.206283
0.23584
0.247389
0.251722
0.252912
0.25201
0.246412
0.239334
0.227328
0.206865
0.177641
0.160609
0.152672
0.149981
0.149726
0.150607
0.152117
0.154546
0.161656
0.177249
0.187613
0.187657
0.186268
0.186428
0.189543
0.191755
0.190727
0.183646
0.175785
0.167512
0.156352
0.153078
0.156354
0.161694
0.162489
0.159871
0.144025
0.112392
0.0976096
0.0923838
0.0917659
0.0920426
0.0928866
0.0978567
0.113909
0.119555
0.12168
0.121288
0.112105
0.108544
0.126844
0.246928
0.319387
0.289012
0.248813
0.321747
0.376647
0.351547
0.184991
0.131955
0.0700232
0.190245
0.212911
0.228786
0.254126
0.273496
0.274854
0.254307
0.216687
0.250718
0.272403
0.274367
0.256931
0.226619
0.197166
0.1868
0.187623
0.206047
0.219078
0.221025
0.193949
0.120655
0.0910336
0.0808114
0.0775253
0.0766892
0.0764971
0.0788857
0.0864135
0.0968988
0.106118
0.111409
0.114552
0.116897
0.11764
0.118153
0.119046
0.120526
0.124057
0.131541
0.141795
0.146495
0.148579
0.148876
0.146442
0.142519
0.140227
0.135704
0.133027
0.131196
0.127755
0.125702
0.124161
0.121836
0.120171
0.119239
0.118777
0.118656
0.118753
0.118655
0.118225
0.117094
0.115219
0.111116
0.104039
0.0949203
0.0905101
0.0894091
0.0908325
0.10068
0.120854
0.143396
0.155529
0.160379
0.162034
0.162249
0.161003
0.157865
0.154166
0.149381
0.144298
0.138477
0.131748
0.124668
0.119903
0.118158
0.118323
0.121175
0.125429
0.116795
0.096604
0.0873587
0.0847021
0.0876345
0.105368
0.179492
0.265237
0.315109
0.347352
0.3668
0.375952
0.377476
0.374042
0.351783
0.359522
0.440519
0.416966
0.205089
0.0976871
0.0796359
0.0800301
0.0918491
0.118255
0.143231
0.162588
0.174451
0.179484
0.181237
0.183348
0.195722
0.227077
0.248041
0.254825
0.257276
0.257868
0.255837
0.25107
0.243918
0.23423
0.217182
0.185968
0.161217
0.150884
0.147849
0.147782
0.149583
0.151488
0.153163
0.156231
0.167259
0.189614
0.198139
0.195136
0.189102
0.188487
0.191586
0.192884
0.190802
0.181725
0.174277
0.165377
0.152592
0.149447
0.152563
0.158155
0.1596
0.158259
0.148577
0.121138
0.101207
0.0915402
0.0900006
0.0905201
0.0936791
0.109628
0.123167
0.125655
0.125529
0.116551
0.111483
0.127812
0.241089
0.309001
0.280006
0.269621
0.355915
0.38546
0.347596
0.182234
0.131505
0.082864
0.195875
0.21319
0.230859
0.261004
0.279313
0.283103
0.276325
0.2358
0.232942
0.238677
0.229825
0.208844
0.192748
0.185907
0.186194
0.198955
0.212167
0.214507
0.195952
0.125092
0.0923101
0.0813259
0.0782215
0.0776051
0.0779528
0.0810681
0.090242
0.0981089
0.107488
0.113585
0.116461
0.118066
0.119133
0.120861
0.123557
0.128532
0.13775
0.15417
0.161787
0.164856
0.165657
0.164962
0.160914
0.157267
0.153537
0.148516
0.143798
0.139349
0.135388
0.132693
0.12872
0.125762
0.122472
0.118757
0.116075
0.113093
0.111282
0.110311
0.110477
0.112118
0.114401
0.116648
0.117998
0.11819
0.117047
0.116054
0.116167
0.117044
0.11909
0.125078
0.136817
0.150313
0.157278
0.159944
0.16005
0.158178
0.154216
0.147674
0.14061
0.135414
0.131415
0.127457
0.121419
0.114436
0.111468
0.111976
0.116546
0.128254
0.131987
0.1212
0.0999775
0.091171
0.092076
0.107493
0.182267
0.273712
0.320442
0.350936
0.369606
0.37648
0.376609
0.365783
0.346377
0.371571
0.423794
0.330267
0.143264
0.0871142
0.0794775
0.0862235
0.117086
0.141943
0.160482
0.172561
0.178509
0.180678
0.181951
0.186927
0.208304
0.241538
0.254394
0.258883
0.260683
0.261151
0.25819
0.252716
0.245727
0.237436
0.222871
0.192078
0.161554
0.147356
0.14489
0.145745
0.149324
0.151817
0.153272
0.155527
0.160071
0.181676
0.210085
0.211438
0.201747
0.192099
0.191721
0.194288
0.194087
0.189301
0.176899
0.170053
0.1642
0.154603
0.149003
0.149203
0.15214
0.154303
0.153836
0.149093
0.129488
0.103865
0.0922481
0.0910256
0.0922682
0.101784
0.121877
0.128822
0.129352
0.122908
0.116208
0.12919
0.231724
0.299263
0.278024
0.29116
0.381023
0.386591
0.338405
0.179123
0.133215
0.0968145
0.195865
0.208428
0.229722
0.262842
0.280126
0.283704
0.281178
0.255099
0.228635
0.222423
0.202705
0.184377
0.179991
0.180233
0.19091
0.206164
0.209255
0.196813
0.136414
0.0958696
0.0828009
0.0792042
0.078424
0.0788309
0.082264
0.0914865
0.0985456
0.108639
0.116184
0.118877
0.119934
0.120613
0.12316
0.128013
0.13782
0.155259
0.171502
0.179178
0.182474
0.183576
0.183751
0.182938
0.181051
0.180221
0.178421
0.175418
0.173862
0.17046
0.166466
0.160927
0.154819
0.148637
0.140348
0.133411
0.124901
0.117408
0.111415
0.107331
0.103447
0.101089
0.099411
0.0984187
0.0993746
0.102873
0.107037
0.110922
0.114085
0.116425
0.11844
0.12049
0.122614
0.125027
0.129611
0.13215
0.130839
0.126943
0.119521
0.107229
0.0954656
0.0911178
0.0921153
0.0971459
0.100838
0.0962446
0.0921563
0.0929988
0.0981406
0.119927
0.134478
0.134508
0.117693
0.10141
0.0995358
0.109435
0.18039
0.279803
0.322717
0.350652
0.367901
0.37333
0.369912
0.345818
0.339206
0.37552
0.383395
0.244119
0.11335
0.0836595
0.0816581
0.105659
0.138432
0.157197
0.169484
0.176117
0.178991
0.180473
0.181992
0.191335
0.220479
0.247861
0.257132
0.260831
0.262554
0.263017
0.259215
0.252866
0.245968
0.238344
0.225108
0.194926
0.16173
0.144652
0.141279
0.14284
0.14952
0.154086
0.155359
0.156469
0.15897
0.168635
0.210558
0.228621
0.223897
0.20377
0.195712
0.196218
0.196323
0.194526
0.183865
0.17068
0.165598
0.162138
0.154154
0.144658
0.142402
0.143735
0.14671
0.146794
0.144097
0.129844
0.103195
0.0931856
0.0929589
0.0964439
0.115052
0.12947
0.132061
0.128569
0.121647
0.131217
0.220229
0.289535
0.279432
0.308163
0.396205
0.385863
0.333582
0.176939
0.134762
0.114685
0.187888
0.196105
0.216062
0.257577
0.276141
0.280499
0.28047
0.264945
0.232292
0.216969
0.196115
0.178871
0.176478
0.182298
0.199441
0.204378
0.197902
0.155371
0.102558
0.0852081
0.0806018
0.0794907
0.0795897
0.0829236
0.0922868
0.100288
0.107817
0.116282
0.120076
0.121976
0.123425
0.12624
0.13193
0.144688
0.163477
0.178814
0.190246
0.195354
0.198333
0.200743
0.203553
0.207025
0.211141
0.216036
0.22069
0.22472
0.227115
0.227907
0.22591
0.221856
0.215433
0.206717
0.197228
0.184594
0.170675
0.154611
0.13787
0.124153
0.113283
0.105549
0.100155
0.0964403
0.0932202
0.090547
0.0890857
0.0889207
0.0902352
0.0926812
0.0947683
0.0959757
0.0957672
0.0945012
0.0918009
0.0880915
0.0832219
0.0774778
0.0708179
0.0635011
0.0578071
0.0554274
0.0554531
0.0579061
0.065641
0.0742424
0.0809376
0.0848865
0.0888706
0.103103
0.132055
0.13932
0.131567
0.109819
0.104039
0.11021
0.171873
0.28199
0.31947
0.340444
0.355921
0.359306
0.344385
0.325257
0.331855
0.370635
0.33552
0.178852
0.0991268
0.0833356
0.0895737
0.125478
0.152576
0.165986
0.173273
0.176589
0.17869
0.179763
0.181794
0.195013
0.22691
0.251243
0.258762
0.262084
0.263436
0.263434
0.259313
0.251409
0.243912
0.237472
0.225427
0.195046
0.160901
0.143175
0.13902
0.141215
0.151404
0.158338
0.159714
0.159379
0.159312
0.163612
0.201195
0.244265
0.245275
0.226705
0.204704
0.200611
0.199672
0.197815
0.191504
0.172909
0.16118
0.157692
0.155359
0.14819
0.136154
0.13323
0.134313
0.138213
0.138952
0.136863
0.123865
0.100944
0.0951238
0.0961386
0.105792
0.126925
0.133868
0.132763
0.127245
0.133839
0.207526
0.281164
0.284964
0.322625
0.402902
0.381383
0.331082
0.175181
0.135712
0.124606
0.183086
0.18704
0.199217
0.240997
0.265797
0.271892
0.273025
0.262941
0.237849
0.217782
0.196294
0.179245
0.177121
0.186199
0.1987
0.19919
0.17649
0.114518
0.0886972
0.0823771
0.0808158
0.080515
0.0827708
0.0906358
0.100066
0.10571
0.113635
0.122589
0.12679
0.128389
0.129609
0.134627
0.147275
0.164999
0.18348
0.19815
0.207161
0.211693
0.216165
0.22155
0.227078
0.233572
0.239718
0.245483
0.250185
0.252593
0.253647
0.253813
0.251525
0.248487
0.243916
0.238099
0.231057
0.223287
0.21473
0.204768
0.192415
0.175877
0.156856
0.137595
0.122411
0.113217
0.106166
0.0996546
0.0934807
0.0899164
0.0886519
0.0892477
0.0904119
0.0909728
0.0901111
0.0878578
0.0840745
0.0789469
0.0731136
0.067417
0.062043
0.0571378
0.0532632
0.0508651
0.0500014
0.0504609
0.0541897
0.0669293
0.078744
0.0841275
0.0876939
0.0957436
0.125143
0.141878
0.139709
0.119738
0.108839
0.11131
0.154787
0.277138
0.315725
0.328027
0.333646
0.329659
0.317094
0.313567
0.332967
0.34871
0.278637
0.141338
0.09285
0.0852903
0.101576
0.139936
0.161327
0.17038
0.174185
0.176379
0.177773
0.177941
0.18117
0.196619
0.230291
0.251147
0.258618
0.262121
0.264156
0.26295
0.258796
0.251232
0.243027
0.235588
0.221415
0.186357
0.152856
0.137629
0.135479
0.140151
0.154458
0.162806
0.163762
0.160517
0.158947
0.161276
0.190244
0.256729
0.265723
0.254048
0.220123
0.207528
0.204513
0.201579
0.195927
0.178378
0.156448
0.148274
0.146606
0.145405
0.139713
0.128389
0.125925
0.126674
0.129853
0.130698
0.129061
0.117093
0.101111
0.0993736
0.102894
0.120479
0.133975
0.134979
0.132607
0.137196
0.195406
0.270564
0.286618
0.337598
0.40427
0.374856
0.326489
0.172631
0.136276
0.135529
0.18062
0.182919
0.192019
0.227105
0.253347
0.259513
0.260758
0.253325
0.236364
0.218889
0.200228
0.186639
0.185384
0.193238
0.196073
0.186235
0.134117
0.094411
0.0842645
0.0821408
0.0816048
0.083249
0.0897123
0.0987689
0.105669
0.11116
0.121042
0.129494
0.132271
0.134583
0.139268
0.146724
0.15892
0.177571
0.196323
0.20958
0.21786
0.224046
0.230711
0.238083
0.244559
0.25091
0.25642
0.260825
0.264329
0.265987
0.266579
0.265924
0.263771
0.260618
0.256087
0.250319
0.243051
0.234855
0.226629
0.218723
0.210593
0.20195
0.192834
0.181663
0.167762
0.154332
0.144768
0.137608
0.129977
0.121941
0.117239
0.115941
0.116608
0.116907
0.114514
0.109194
0.102229
0.0943426
0.086392
0.0792884
0.0730245
0.0666529
0.0600351
0.054429
0.0509727
0.0503324
0.0524767
0.0626876
0.0776981
0.0849796
0.0884299
0.0948916
0.118798
0.143192
0.144761
0.129925
0.113699
0.112993
0.136713
0.256134
0.312929
0.316199
0.313638
0.306828
0.302733
0.309632
0.333351
0.326946
0.231775
0.123271
0.0911155
0.0906822
0.114474
0.150182
0.166491
0.172086
0.174181
0.175672
0.175576
0.175527
0.179814
0.195553
0.229264
0.250022
0.257836
0.261642
0.26276
0.261365
0.257743
0.24959
0.240214
0.231764
0.214886
0.176655
0.143771
0.132933
0.13316
0.140006
0.158462
0.165869
0.165677
0.160704
0.156503
0.15801
0.18199
0.262925
0.285286
0.278429
0.242283
0.217486
0.210601
0.206277
0.198853
0.18035
0.149048
0.136974
0.135417
0.135926
0.136235
0.133322
0.125005
0.122598
0.122842
0.125354
0.12758
0.126262
0.115764
0.10703
0.107626
0.117091
0.133271
0.136543
0.13629
0.139931
0.183295
0.259594
0.284649
0.345459
0.403788
0.370547
0.322087
0.170366
0.135285
0.13955
0.176112
0.176737
0.178031
0.20159
0.234931
0.243552
0.245477
0.241148
0.227515
0.217596
0.202607
0.195574
0.193432
0.192633
0.187519
0.154887
0.103054
0.0860917
0.0822112
0.0816282
0.0826204
0.0863627
0.0944073
0.103665
0.108897
0.115274
0.126342
0.137982
0.142947
0.143743
0.145825
0.15445
0.168847
0.188581
0.206379
0.220118
0.229109
0.235402
0.242398
0.250242
0.256861
0.262439
0.267201
0.270492
0.272226
0.272937
0.273077
0.272578
0.270721
0.267498
0.262927
0.257046
0.249381
0.240102
0.230518
0.222094
0.21462
0.207062
0.199732
0.192478
0.185238
0.177819
0.169742
0.162359
0.158933
0.158014
0.159221
0.161842
0.163795
0.164209
0.162433
0.157624
0.151072
0.143608
0.135843
0.128317
0.120194
0.108078
0.089115
0.0716401
0.059268
0.0539665
0.0538302
0.0595645
0.0764369
0.0876704
0.0917507
0.0965842
0.114728
0.143808
0.148968
0.138967
0.118899
0.114976
0.12401
0.218018
0.30534
0.309662
0.299523
0.294499
0.296143
0.311109
0.326466
0.305984
0.198079
0.114361
0.091547
0.0940361
0.119861
0.154362
0.168464
0.172423
0.173915
0.173976
0.172964
0.173445
0.177963
0.192564
0.225895
0.247064
0.255848
0.260188
0.260166
0.258294
0.254016
0.245067
0.236059
0.226846
0.206415
0.165615
0.139295
0.131026
0.132216
0.143613
0.161822
0.167125
0.166347