/*--------------------------------*- C++ -*----------------------------------*\
| =========                 |                                                 |
| \\      /  F ield         | OpenFOAM: The Open Source CFD Toolbox           |
|  \\    /   O peration     | Version:  2112                                  |
|   \\  /    A nd           | Website:  www.openfoam.com                      |
|    \\/     M anipulation  |                                                 |
\*---------------------------------------------------------------------------*/
FoamFile
{
    version     2.0;
    format      ascii;
    arch        "LSB;label=32;scalar=64";
    class       volVectorField;
    location    "0.17";
    object      U_0;
}
// * * * * * * * * * * * * * * * * * * * * * * * * * * * * * * * * * * * * * //

dimensions      [0 1 -1 0 0 0 0];

internalField   nonuniform List<vector> 
12225
(
(9.75728 0.0598275 0)
(9.27814 0.0947132 0)
(8.797 0.0989958 0)
(8.3365 0.0976258 0)
(7.92347 0.0932209 0)
(7.56933 0.0862145 0)
(7.27877 0.0794427 0)
(7.03128 0.0742839 0)
(6.82916 0.0689232 0)
(6.67596 0.0617429 0)
(6.57144 0.0525697 0)
(6.51002 0.0420388 0)
(6.48372 0.0342891 0)
(6.48132 0.0305994 0)
(6.48697 0.0301564 0)
(6.49641 0.0331385 0)
(6.4592 0.0589327 0)
(6.43595 0.04333 0)
(10.1051 0.0738213 0)
(10.313 0.107063 0)
(10.4486 0.106796 0)
(10.518 0.105092 0)
(10.538 0.10046 0)
(10.5161 0.0912798 0)
(10.4583 0.080375 0)
(10.3698 0.0694879 0)
(10.2544 0.0568202 0)
(10.1134 0.0415393 0)
(9.94807 0.0248126 0)
(9.76168 0.00857522 0)
(9.55892 -0.00405259 0)
(9.34632 -0.0117705 0)
(9.13071 -0.0152746 0)
(8.92177 -0.0107948 0)
(8.71856 0.00242911 0)
(8.60285 0.0719575 0)
(10.0112 0.0356352 0)
(10.0621 0.053877 0)
(10.1159 0.058533 0)
(10.1653 0.0666659 0)
(10.2145 0.07395 0)
(10.2618 0.0785609 0)
(10.303 0.0828636 0)
(10.3373 0.0882844 0)
(10.3646 0.0940163 0)
(10.3835 0.0997919 0)
(10.3923 0.106234 0)
(10.3899 0.113937 0)
(10.3754 0.122147 0)
(10.3485 0.130421 0)
(10.3086 0.138546 0)
(10.2563 0.148499 0)
(10.1937 0.158296 0)
(10.123 0.176582 0)
(10.0062 0.029714 0)
(10.0349 0.0581318 0)
(10.062 0.0677779 0)
(10.0812 0.0740723 0)
(10.0984 0.0777745 0)
(10.116 0.0783248 0)
(10.1328 0.0775755 0)
(10.1489 0.07685 0)
(10.1648 0.0758165 0)
(10.1806 0.0741267 0)
(10.1956 0.0721534 0)
(10.2096 0.0706372 0)
(10.2228 0.0703831 0)
(10.2359 0.0726409 0)
(10.2495 0.0782365 0)
(10.2649 0.0883618 0)
(10.2832 0.102212 0)
(10.3085 0.117465 0)
(10.0045 0.0247348 0)
(10.0272 0.0517565 0)
(10.0504 0.0602511 0)
(10.0668 0.0649134 0)
(10.08 0.0684274 0)
(10.0926 0.0698684 0)
(10.1038 0.070297 0)
(10.1137 0.070965 0)
(10.1229 0.071883 0)
(10.1317 0.0728701 0)
(10.1399 0.0743058 0)
(10.1475 0.0768611 0)
(10.155 0.0810086 0)
(10.1631 0.0870383 0)
(10.1724 0.094852 0)
(10.1846 0.104578 0)
(10.2008 0.114975 0)
(10.2258 0.124705 0)
(10.0032 0.0202225 0)
(10.021 0.0452361 0)
(10.0416 0.0550209 0)
(10.0575 0.0606932 0)
(10.0704 0.0651656 0)
(10.0824 0.0676007 0)
(10.0933 0.0686674 0)
(10.1027 0.0695051 0)
(10.1113 0.0703229 0)
(10.1193 0.0710158 0)
(10.1266 0.0718338 0)
(10.1333 0.0732416 0)
(10.1398 0.0755734 0)
(10.1467 0.0790772 0)
(10.1548 0.0838217 0)
(10.1651 0.089852 0)
(10.1788 0.0961423 0)
(10.1975 0.101211 0)
(10.0023 0.0166222 0)
(10.0163 0.0396664 0)
(10.0342 0.0503994 0)
(10.0492 0.0563819 0)
(10.0616 0.0607689 0)
(10.0731 0.0633194 0)
(10.0837 0.0645289 0)
(10.0932 0.0653713 0)
(10.1018 0.0661891 0)
(10.1099 0.066991 0)
(10.1174 0.0679859 0)
(10.1246 0.0695544 0)
(10.1316 0.0719991 0)
(10.1391 0.0754988 0)
(10.1478 0.0800055 0)
(10.1584 0.0852305 0)
(10.1716 0.0901834 0)
(10.1881 0.0932411 0)
(10.0017 0.0137839 0)
(10.0127 0.0346136 0)
(10.0281 0.0456452 0)
(10.042 0.0517819 0)
(10.0538 0.0561455 0)
(10.0648 0.0589615 0)
(10.0751 0.0605409 0)
(10.0844 0.06163 0)
(10.0931 0.0626174 0)
(10.1012 0.0635884 0)
(10.1089 0.0647075 0)
(10.1164 0.0662503 0)
(10.1239 0.0684249 0)
(10.132 0.0712907 0)
(10.141 0.0746901 0)
(10.1516 0.0782305 0)
(10.1641 0.0810835 0)
(10.1787 0.0820867 0)
(10.0012 0.0115072 0)
(10.01 0.0300323 0)
(10.0231 0.0409543 0)
(10.0359 0.047241 0)
(10.0471 0.0516221 0)
(10.0575 0.054611 0)
(10.0674 0.056432 0)
(10.0766 0.0576556 0)
(10.0852 0.0586863 0)
(10.0934 0.0596728 0)
(10.1012 0.0607555 0)
(10.1089 0.0621298 0)
(10.1168 0.0639308 0)
(10.1251 0.0661542 0)
(10.1342 0.068613 0)
(10.1446 0.0709249 0)
(10.1564 0.0724495 0)
(10.1695 0.0723629 0)
(10.0009 0.00965309 0)
(10.0079 0.0259321 0)
(10.019 0.0364212 0)
(10.0307 0.0427402 0)
(10.0412 0.0470764 0)
(10.0512 0.0501127 0)
(10.0607 0.0520738 0)
(10.0697 0.0533974 0)
(10.0782 0.0544622 0)
(10.0863 0.0554469 0)
(10.0943 0.0564715 0)
(10.1022 0.0576663 0)
(10.1102 0.059106 0)
(10.1187 0.0607456 0)
(10.1278 0.0623912 0)
(10.1378 0.0637026 0)
(10.1488 0.0641903 0)
(10.1606 0.0633112 0)
(10.0007 0.00811686 0)
(10.0063 0.0222847 0)
(10.0158 0.0320913 0)
(10.0262 0.0382854 0)
(10.0362 0.0425131 0)
(10.0456 0.0455154 0)
(10.0547 0.0475411 0)
(10.0635 0.0489231 0)
(10.0719 0.0499886 0)
(10.0801 0.0509221 0)
(10.0881 0.0518281 0)
(10.096 0.0527905 0)
(10.1041 0.0538411 0)
(10.1126 0.0549156 0)
(10.1216 0.0558358 0)
(10.1312 0.0563255 0)
(10.1414 0.0560302 0)
(10.152 0.0546156 0)
(10.0006 0.00690447 0)
(10.0053 0.0192583 0)
(10.0134 0.0282862 0)
(10.0229 0.0342375 0)
(10.0322 0.0383121 0)
(10.0411 0.0412224 0)
(10.0499 0.0432362 0)
(10.0585 0.0446171 0)
(10.0668 0.0456405 0)
(10.0749 0.0464834 0)
(10.0829 0.0472393 0)
(10.0908 0.0479625 0)
(10.099 0.0486591 0)
(10.1073 0.04926 0)
(10.1161 0.0496133 0)
(10.1253 0.0495052 0)
(10.1348 0.0486824 0)
(10.1445 0.0469496 0)
(10.0005 0.00587573 0)
(10.0044 0.0165588 0)
(10.0115 0.0246933 0)
(10.02 0.0302723 0)
(10.0287 0.0341316 0)
(10.0372 0.0368929 0)
(10.0457 0.0388293 0)
(10.054 0.0401589 0)
(10.0622 0.041107 0)
(10.0702 0.0418321 0)
(10.0781 0.0424167 0)
(10.086 0.0428962 0)
(10.0941 0.0432618 0)
(10.1023 0.0434483 0)
(10.1108 0.0433326 0)
(10.1196 0.0427562 0)
(10.1284 0.0415423 0)
(10.1374 0.0395909 0)
(10.0004 0.0048455 0)
(10.0037 0.0137641 0)
(10.0097 0.0208057 0)
(10.0173 0.0258298 0)
(10.0253 0.0293573 0)
(10.0334 0.031879 0)
(10.0415 0.0336531 0)
(10.0495 0.0348604 0)
(10.0575 0.0356758 0)
(10.0653 0.0362304 0)
(10.0731 0.0365936 0)
(10.081 0.0367882 0)
(10.0889 0.0367991 0)
(10.0969 0.0365717 0)
(10.105 0.0360159 0)
(10.1133 0.0350269 0)
(10.1215 0.0334933 0)
(10.1297 0.0313871 0)
(10.0003 0.00381464 0)
(10.003 0.0109042 0)
(10.0082 0.0166708 0)
(10.0148 0.0209293 0)
(10.0222 0.0239634 0)
(10.0297 0.0261212 0)
(10.0374 0.0276213 0)
(10.0451 0.0286091 0)
(10.0528 0.0292134 0)
(10.0604 0.0295335 0)
(10.0681 0.0296244 0)
(10.0757 0.0295018 0)
(10.0834 0.0291514 0)
(10.0911 0.0285348 0)
(10.0988 0.0275945 0)
(10.1065 0.0262716 0)
(10.114 0.0245049 0)
(10.1215 0.0223128 0)
(10.0003 0.00277998 0)
(10.0025 0.00798143 0)
(10.0069 0.0123013 0)
(10.0127 0.0155691 0)
(10.0194 0.0179136 0)
(10.0264 0.0195507 0)
(10.0336 0.0206403 0)
(10.0409 0.0212901 0)
(10.0483 0.0215882 0)
(10.0557 0.0216027 0)
(10.0631 0.0213733 0)
(10.0704 0.0209116 0)
(10.0778 0.0202092 0)
(10.085 0.0192444 0)
(10.0923 0.0179876 0)
(10.0994 0.0164139 0)
(10.1063 0.0144954 0)
(10.113 0.0122757 0)
(10.0002 0.00172678 0)
(10.0022 0.00496497 0)
(10.0059 0.00767456 0)
(10.0111 0.00973093 0)
(10.0171 0.0111729 0)
(10.0235 0.0121096 0)
(10.0303 0.0126355 0)
(10.0372 0.0128173 0)
(10.0443 0.0127075 0)
(10.0513 0.0123462 0)
(10.0583 0.0117576 0)
(10.0653 0.0109501 0)
(10.0723 0.0099208 0)
(10.0791 0.00866107 0)
(10.0858 0.00716026 0)
(10.0923 0.0054141 0)
(10.0987 0.00341449 0)
(10.1048 0.00121241 0)
(10.0002 0.000618097 0)
(10.0019 0.00176237 0)
(10.0053 0.00267841 0)
(10.0099 0.00329703 0)
(10.0154 0.00361357 0)
(10.0215 0.00365485 0)
(10.0278 0.00345142 0)
(10.0343 0.0030287 0)
(10.041 0.00240706 0)
(10.0477 0.00160176 0)
(10.0543 0.000621905 0)
(10.0609 -0.00052911 0)
(10.0674 -0.00185183 0)
(10.0737 -0.00334803 0)
(10.0799 -0.00501906 0)
(10.0859 -0.00686048 0)
(10.0917 -0.00887253 0)
(10.0972 -0.0110083 0)
(10.0002 -0.00061407 0)
(10.0018 -0.00180327 0)
(10.005 -0.00290984 0)
(10.0095 -0.00394516 0)
(10.0147 -0.00495206 0)
(10.0205 -0.00597772 0)
(10.0265 -0.00705092 0)
(10.0328 -0.00818604 0)
(10.0391 -0.00939389 0)
(10.0454 -0.0106846 0)
(10.0517 -0.0120664 0)
(10.0579 -0.0135447 0)
(10.064 -0.015124 0)
(10.0699 -0.016807 0)
(10.0756 -0.0185953 0)
(10.0811 -0.0204858 0)
(10.0863 -0.0224795 0)
(10.0914 -0.0245429 0)
(10.0002 -0.00180299 0)
(10.002 -0.00523194 0)
(10.0054 -0.00823853 0)
(10.0101 -0.0107815 0)
(10.0155 -0.0129718 0)
(10.0213 -0.0149434 0)
(10.0273 -0.0167792 0)
(10.0334 -0.0185259 0)
(10.0396 -0.0202211 0)
(10.0458 -0.0218964 0)
(10.0519 -0.0235732 0)
(10.0578 -0.0252642 0)
(10.0636 -0.026979 0)
(10.0692 -0.0287261 0)
(10.0746 -0.030514 0)
(10.0798 -0.0323477 0)
(10.0847 -0.0342355 0)
(10.0894 -0.0361594 0)
(10.0003 -0.00288351 0)
(10.0023 -0.0083001 0)
(10.0063 -0.0128726 0)
(10.0114 -0.0165474 0)
(10.0172 -0.0195736 0)
(10.0231 -0.0221964 0)
(10.0293 -0.0245428 0)
(10.0355 -0.0266884 0)
(10.0417 -0.0287026 0)
(10.0479 -0.030639 0)
(10.0539 -0.0325249 0)
(10.0598 -0.0343714 0)
(10.0655 -0.0361869 0)
(10.071 -0.0379816 0)
(10.0762 -0.0397683 0)
(10.0812 -0.0415586 0)
(10.0859 -0.0433668 0)
(10.0904 -0.0451889 0)
(10.0003 -0.00404758 0)
(10.0029 -0.011502 0)
(10.0077 -0.0174713 0)
(10.0137 -0.0220117 0)
(10.0199 -0.0256552 0)
(10.0262 -0.0287679 0)
(10.0325 -0.0314773 0)
(10.0389 -0.0338721 0)
(10.0451 -0.0360591 0)
(10.0513 -0.0381156 0)
(10.0573 -0.0400722 0)
(10.0631 -0.0419361 0)
(10.0688 -0.0437144 0)
(10.0742 -0.0454226 0)
(10.0794 -0.0470821 0)
(10.0843 -0.0487165 0)
(10.0889 -0.0503532 0)
(10.0932 -0.0520063 0)
(10.0005 -0.00540266 0)
(10.0039 -0.0150436 0)
(10.0099 -0.0221952 0)
(10.0169 -0.0272753 0)
(10.0236 -0.0312947 0)
(10.0303 -0.034747 0)
(10.0369 -0.0377444 0)
(10.0435 -0.0403975 0)
(10.0499 -0.0428433 0)
(10.0561 -0.045155 0)
(10.0622 -0.047335 0)
(10.0681 -0.0493622 0)
(10.0739 -0.0512277 0)
(10.0793 -0.0529419 0)
(10.0845 -0.0545289 0)
(10.0893 -0.0560194 0)
(10.0938 -0.0574489 0)
(10.098 -0.0588386 0)
(10.0007 -0.00708343 0)
(10.0055 -0.0190795 0)
(10.0133 -0.0271324 0)
(10.0213 -0.032489 0)
(10.0286 -0.0366638 0)
(10.0355 -0.0401103 0)
(10.0424 -0.042937 0)
(10.0491 -0.0453867 0)
(10.0555 -0.0476952 0)
(10.0618 -0.0499453 0)
(10.0679 -0.0521029 0)
(10.074 -0.0541107 0)
(10.0798 -0.0559412 0)
(10.0854 -0.0576019 0)
(10.0907 -0.0591236 0)
(10.0957 -0.0605506 0)
(10.1003 -0.0619419 0)
(10.1045 -0.0633664 0)
(10.001 -0.00930467 0)
(10.008 -0.0236306 0)
(10.0179 -0.0319468 0)
(10.0271 -0.0374926 0)
(10.035 -0.0423048 0)
(10.0424 -0.0463758 0)
(10.0496 -0.0496111 0)
(10.0565 -0.0523439 0)
(10.0629 -0.0549019 0)
(10.0691 -0.0573728 0)
(10.0753 -0.0596692 0)
(10.0814 -0.0616779 0)
(10.0873 -0.0633437 0)
(10.093 -0.0646679 0)
(10.0982 -0.0656838 0)
(10.1031 -0.0664387 0)
(10.1075 -0.0669899 0)
(10.1112 -0.0673556 0)
(10.0017 -0.0124419 0)
(10.0118 -0.0292272 0)
(10.0241 -0.0363592 0)
(10.0339 -0.0402578 0)
(10.0419 -0.0439434 0)
(10.0496 -0.0472235 0)
(10.0571 -0.0499529 0)
(10.0641 -0.0524987 0)
(10.0705 -0.05519 0)
(10.0767 -0.0580718 0)
(10.083 -0.0609689 0)
(10.0894 -0.0636849 0)
(10.0957 -0.0661175 0)
(10.1018 -0.0682571 0)
(10.1076 -0.070158 0)
(10.113 -0.0718978 0)
(10.1179 -0.0735975 0)
(10.1226 -0.0753298 0)
(10.0029 -0.0162274 0)
(10.0178 -0.0370845 0)
(10.0335 -0.0464239 0)
(10.0442 -0.0522215 0)
(10.0526 -0.0566776 0)
(10.061 -0.0596211 0)
(10.0694 -0.06152 0)
(10.0774 -0.0630819 0)
(10.085 -0.0647161 0)
(10.0928 -0.0664329 0)
(10.1011 -0.0679879 0)
(10.1098 -0.0691402 0)
(10.1187 -0.0697545 0)
(10.1276 -0.0697805 0)
(10.1362 -0.0692288 0)
(10.1444 -0.0681592 0)
(10.1523 -0.0666699 0)
(10.1589 -0.0646837 0)
(10.0046 -0.0188347 0)
(10.0291 -0.0310533 0)
(10.0557 -0.0340162 0)
(10.0784 -0.039487 0)
(10.101 -0.0458035 0)
(10.1247 -0.0510122 0)
(10.1486 -0.0555039 0)
(10.1718 -0.0601193 0)
(10.1943 -0.0653579 0)
(10.2166 -0.0710891 0)
(10.2391 -0.0767994 0)
(10.2613 -0.0821585 0)
(10.2825 -0.0870925 0)
(10.3023 -0.0916347 0)
(10.3201 -0.0958627 0)
(10.3354 -0.0999005 0)
(10.3483 -0.103909 0)
(10.3585 -0.107859 0)
(10.0549 -0.0494932 0)
(10.1822 -0.076168 0)
(10.2841 -0.0772348 0)
(10.3595 -0.078254 0)
(10.4163 -0.0795416 0)
(10.4573 -0.0793883 0)
(10.4826 -0.0781469 0)
(10.4935 -0.076701 0)
(10.4923 -0.0759709 0)
(10.481 -0.0759326 0)
(10.4604 -0.0756087 0)
(10.4307 -0.0742019 0)
(10.3917 -0.0713689 0)
(10.3434 -0.0670484 0)
(10.2863 -0.0613248 0)
(10.2208 -0.0545399 0)
(10.1478 -0.0469922 0)
(10.0675 -0.0399674 0)
(9.86856 -0.0426421 0)
(9.60465 -0.0724704 0)
(9.32634 -0.0792936 0)
(9.04531 -0.0818656 0)
(8.77688 -0.0828255 0)
(8.52588 -0.0822627 0)
(8.29218 -0.0807252 0)
(8.07598 -0.0790203 0)
(7.87446 -0.0780529 0)
(7.68221 -0.0779604 0)
(7.49973 -0.0780639 0)
(7.32853 -0.0776604 0)
(7.17046 -0.0763497 0)
(7.02749 -0.0739619 0)
(6.90121 -0.0704667 0)
(6.79279 -0.0659877 0)
(6.70133 -0.0610646 0)
(6.62873 -0.054568 0)
(-0.00548115 0.00980112 -2.63293e-21)
(-0.00962734 0.0112459 2.4524e-21)
(-0.0186136 0.0122765 0)
(-0.0280137 0.0131889 0)
(-0.0378742 0.0139688 0)
(-0.0482812 0.0146152 -2.36998e-21)
(-0.0591724 0.0151428 0)
(-0.0704605 0.0155697 0)
(-0.0820831 0.0159131 0)
(-0.0939973 0.0161903 0)
(-0.106174 0.0164186 2.29296e-21)
(-0.118596 0.0166147 0)
(-0.131256 0.0167937 0)
(-0.144157 0.0169687 0)
(-0.157309 0.0171518 0)
(-0.170728 0.0173556 2.22938e-21)
(-0.184436 0.0175972 0)
(-0.198463 0.017906 0)
(-0.212856 0.0183376 0)
(-0.227695 0.0190012 0)
(-0.24308 0.0200847 0)
(-0.259133 0.0212517 0)
(-0.275881 0.021992 0)
(-0.293208 0.0224133 2.14872e-21)
(-0.311058 0.0227849 -2.14055e-21)
(-0.329456 0.023209 2.13221e-21)
(-0.34844 0.0236975 2.12383e-21)
(-0.368045 0.0242469 0)
(-0.388305 0.024853 0)
(-0.409251 0.0255025 -2.09892e-21)
(-0.430906 0.0261716 -2.09084e-21)
(-0.453283 0.0268334 0)
(-0.476385 0.0274661 0)
(-0.500205 0.0280574 -2.06741e-21)
(-0.524731 0.0286061 0)
(-0.549951 0.02912 0)
(-0.575852 0.0296067 2.04503e-21)
(-0.60242 0.0300696 0)
(-0.629642 0.0305085 2.03069e-21)
(-0.657499 0.0309208 4.04743e-21)
(-0.685971 0.0313031 0)
(-0.715031 0.0316511 0)
(-0.74465 0.0319599 0)
(-0.774794 0.0322244 0)
(-0.805423 0.0324401 0)
(-0.836494 0.0326043 3.96908e-21)
(-0.867963 0.032716 3.95678e-21)
(-0.89978 0.032774 3.94461e-21)
(-0.931896 0.0327759 0)
(-0.964257 0.0327198 -3.9205e-21)
(-0.996808 0.0326056 0)
(-1.02949 0.0324337 3.89636e-21)
(-1.06226 0.0322024 3.88413e-21)
(-1.09504 0.0319046 0)
(-1.12777 0.0315306 0)
(-1.16038 0.0310708 0)
(-1.1928 0.0305228 3.83275e-21)
(-1.22497 0.0299069 0)
(-1.25683 0.0292856 0)
(-1.28835 0.0287196 0)
(-1.31954 0.0281906 0)
(-1.35036 0.0276488 0)
(-1.38078 0.0270781 0)
(-1.41076 0.0264783 0)
(-1.44024 0.0258507 0)
(-1.4692 0.0251965 -3.68303e-21)
(-1.4976 0.0245172 0)
(-1.52539 0.0238151 0)
(-1.55255 0.0230929 3.61674e-21)
(-1.57905 0.0223543 3.59234e-21)
(-1.60485 0.0216031 0)
(-1.62993 0.0208423 -3.53984e-21)
(-1.65427 0.0200742 3.51166e-21)
(-1.67783 0.0193001 0)
(-1.70061 0.0185195 -3.45128e-21)
(-1.72258 0.0177308 0)
(-1.74371 0.0169323 0)
(-1.76398 0.0161256 3.35032e-21)
(-1.78338 0.0153159 0)
(-1.8019 0.0145081 -3.27588e-21)
(-1.81952 0.0137039 0)
(-1.83623 0.0129029 3.19569e-21)
(-1.85203 0.0121049 3.15343e-21)
(-1.8669 0.0113098 3.10975e-21)
(-1.88084 0.010518 6.12932e-21)
(-1.89385 0.00972973 -6.03634e-21)
(-1.90592 0.00894331 0)
(-1.91706 0.00815497 0)
(-1.92726 0.00736026 0)
(-1.9365 0.00655937 -5.63739e-21)
(-1.9448 0.00576894 -5.53115e-21)
(-1.95217 0.00503063 5.42242e-21)
(-1.95861 0.0043584 0)
(-1.96415 0.00370414 -5.19791e-21)
(-1.96875 0.00302533 -5.08232e-21)
(-1.9724 0.00231899 -4.96461e-21)
(-1.97507 0.00162202 0)
(-1.97671 0.000993618 0)
(-1.97742 0.000409192 0)
(-1.97728 -0.000149878 -4.474e-21)
(-1.9763 -0.000682293 0)
(-1.97451 -0.00118978 0)
(-1.97193 -0.00167394 4.08728e-21)
(-1.96857 -0.00213567 0)
(-1.96444 -0.00257676 0)
(-1.95958 -0.00300087 3.6874e-21)
(-1.95398 -0.00341193 0)
(-1.94767 -0.00381195 0)
(-1.94067 -0.00420117 -3.277e-21)
(-1.93297 -0.00457902 -3.13831e-21)
(-1.92461 -0.00494494 0)
(-1.91558 -0.00529886 2.8586e-21)
(-1.9059 -0.00564117 0)
(-1.89558 -0.00597297 -2.57636e-21)
(-1.88463 -0.00629686 0)
(-1.87305 -0.00661803 -2.29224e-21)
(-1.86083 -0.00694607 -2.14967e-21)
(-1.84797 -0.00729761 0)
(-1.83445 -0.00769195 0)
(-1.82025 -0.0081302 0)
(-1.80536 -0.00855621 0)
(-1.78979 -0.00886384 0)
(-1.77372 -0.00907272 0)
(-1.75715 -0.00926355 0)
(-1.74011 -0.00943649 -1.00561e-21)
(-1.72261 -0.00958735 8.62922e-22)
(-1.70466 -0.00971588 0)
(-1.6863 -0.00982697 0)
(-1.66753 -0.00992663 0)
(-1.64836 -0.0100178 0)
(-1.62881 -0.0101015 3.09496e-22)
(-1.60887 -0.0101783 0)
(-1.58856 -0.0102485 2.50244e-22)
(-1.56789 -0.0103111 -5.28292e-22)
(-1.54685 -0.0103649 0)
(-1.52547 -0.0104114 0)
(-1.50373 -0.0104542 0)
(-1.48165 -0.0104963 1.6265e-21)
(-1.4592 -0.010541 1.89718e-21)
(-1.43639 -0.0105939 0)
(-1.41319 -0.0106607 2.43341e-21)
(-1.38959 -0.0107441 2.69884e-21)
(-1.36557 -0.0108448 -2.96239e-21)
(-1.3411 -0.0109648 0)
(-1.31616 -0.0111083 0)
(-1.29072 -0.011279 -3.7412e-21)
(-1.26474 -0.0114788 0)
(-1.23819 -0.0117096 0)
(-1.21102 -0.0119725 0)
(-1.18319 -0.0122666 0)
(-1.15467 -0.0125862 4.99568e-21)
(-1.12541 -0.0129237 5.23944e-21)
(-1.0954 -0.0132754 0)
(-1.0646 -0.0136376 5.71922e-21)
(-1.033 -0.0140076 0)
(-1.00057 -0.0143863 0)
(-0.96728 -0.0147791 6.41824e-21)
(-0.933107 -0.0151914 0)
(-0.898013 -0.0156248 6.86911e-21)
(-0.861966 -0.0160793 0)
(-0.824933 -0.0165558 0)
(-0.786882 -0.0170549 7.5195e-21)
(-0.747781 -0.0175756 0)
(-0.707604 -0.0181156 7.93337e-21)
(-0.666336 -0.0186725 0)
(-0.623967 -0.0192453 0)
(-0.580491 -0.0198354 0)
(-0.535904 -0.020445 -8.70236e-21)
(-0.490204 -0.02108 0)
(-0.44338 -0.0217531 9.04909e-21)
(-0.395405 -0.0224885 0)
(-0.346223 -0.0233255 0)
(-0.295705 -0.0243023 0)
(-0.243665 -0.0251238 0)
(-0.192018 -0.0235679 0)
(-0.143903 -0.0197886 0)
(-0.0976017 -0.0178991 0)
(-0.050979 -0.017931 -2.01686e-20)
(-0.00117985 -0.0178038 0)
(0.0399128 -0.0147781 0)
(-0.00793141 0.0206816 7.80164e-21)
(-0.0113111 0.0238595 -7.26833e-21)
(-0.0215723 0.0263674 0)
(-0.0317608 0.0282977 4.7548e-21)
(-0.0422232 0.0298239 0)
(-0.0531818 0.0310319 2.33967e-21)
(-0.0646142 0.0319841 -4.63983e-21)
(-0.0764552 0.0327382 -4.60823e-21)
(-0.0886646 0.0333456 0)
(-0.101219 0.0338508 -4.55135e-21)
(-0.114104 0.0342916 -2.26563e-21)
(-0.127315 0.0347005 0)
(-0.140856 0.0351039 0)
(-0.154739 0.0355235 0)
(-0.168986 0.0359765 0)
(-0.183623 0.0364776 -2.2041e-21)
(-0.198686 0.03704 0)
(-0.214213 0.0376782 4.35353e-21)
(-0.230245 0.0384096 0)
(-0.246808 0.0392563 0)
(-0.263882 0.0402422 -4.28361e-21)
(-0.281456 0.0413516 0)
(-0.299593 0.0424949 4.23884e-21)
(-0.318391 0.0436255 -2.11367e-21)
(-0.337897 0.0447559 2.1029e-21)
(-0.358119 0.045908 -2.09221e-21)
(-0.37906 0.0470927 -2.08161e-21)
(-0.400725 0.0483116 0)
(-0.423121 0.0495612 0)
(-0.446253 0.0508335 2.05051e-21)
(-0.470126 0.0521164 -2.0275e-21)
(-0.494743 0.0533956 0)
(-0.520106 0.0546566 0)
(-0.546214 0.0558873 2.01115e-21)
(-0.573062 0.0570784 0)
(-0.600641 0.0582241 0)
(-0.628936 0.0593193 -1.98372e-21)
(-0.657925 0.0603588 0)
(-0.687584 0.0613366 1.9513e-21)
(-0.717884 0.0622458 -3.91657e-21)
(-0.748792 0.0630792 0)
(-0.78027 0.0638295 0)
(-0.812278 0.0644894 -7.70779e-21)
(-0.844769 0.065052 -7.67808e-21)
(-0.877696 0.0655115 -7.64922e-21)
(-0.911006 0.0658631 3.79465e-21)
(-0.944645 0.0661033 -3.81276e-21)
(-0.978553 0.0662296 -1.13663e-20)
(-1.01267 0.0662402 7.54082e-21)
(-1.04694 0.0661338 3.7731e-21)
(-1.08129 0.06591 0)
(-1.11566 0.0655683 -3.7474e-21)
(-1.14999 0.0651088 3.70471e-21)
(-1.18421 0.0645318 0)
(-1.21826 0.0638389 0)
(-1.25209 0.0630337 0)
(-1.28565 0.0621236 -3.68223e-21)
(-1.3189 0.0611223 0)
(-1.35179 0.0600502 7.28299e-21)
(-1.38427 0.0589244 0)
(-1.41629 0.0577453 7.22476e-21)
(-1.44779 0.0565064 0)
(-1.47873 0.055207 -7.16129e-21)
(-1.50908 0.0538504 0)
(-1.53879 0.0524415 7.09157e-21)
(-1.56784 0.0509852 -3.51663e-21)
(-1.59619 0.0494867 0)
(-1.6238 0.0479511 -6.97318e-21)
(-1.65066 0.0463833 -3.47404e-21)
(-1.67673 0.0447876 -3.45074e-21)
(-1.70199 0.0431682 0)
(-1.72642 0.0415288 -3.38451e-21)
(-1.75 0.0398727 -3.37372e-21)
(-1.7727 0.0382029 0)
(-1.7945 0.0365223 3.3161e-21)
(-1.81539 0.0348343 -6.55772e-21)
(-1.83536 0.033142 0)
(-1.85439 0.0314495 -3.21971e-21)
(-1.87248 0.0297603 0)
(-1.8896 0.028078 9.4361e-21)
(-1.90576 0.0264058 0)
(-1.92094 0.024747 -9.20775e-21)
(-1.93515 0.023105 -3.03158e-21)
(-1.94839 0.0214832 2.98317e-21)
(-1.96064 0.0198846 5.88159e-21)
(-1.97192 0.0183117 -5.79414e-21)
(-1.98224 0.0167663 0)
(-1.99158 0.0152501 0)
(-1.99998 0.0137643 0)
(-2.00744 0.0123102 1.62635e-20)
(-2.01396 0.0108872 5.32087e-21)
(-2.01957 0.00949148 -5.21682e-21)
(-2.02426 0.00811475 0)
(-2.02802 0.0067481 -5.00324e-21)
(-2.03089 0.00538637 4.89121e-21)
(-2.03289 0.00402946 4.77841e-21)
(-2.03405 0.0026957 0)
(-2.03447 0.00143143 0)
(-2.03409 0.000242805 0)
(-2.03285 -0.000890372 4.3072e-21)
(-2.03076 -0.00197772 0)
(-2.02783 -0.00302345 -8.13104e-21)
(-2.02407 -0.0040294 -1.18166e-20)
(-2.0195 -0.00499642 7.62826e-21)
(-2.01414 -0.00592518 0)
(-2.008 -0.00681632 3.56369e-21)
(-2.00111 -0.00767059 0)
(-1.99347 -0.00848892 6.59188e-21)
(-1.98511 -0.00927272 -3.17127e-21)
(-1.97603 -0.0100239 -3.03856e-21)
(-1.96627 -0.0107449 0)
(-1.95582 -0.0114382 -8.27788e-21)
(-1.94471 -0.0121066 5.25389e-21)
(-1.93293 -0.0127529 2.48183e-21)
(-1.9205 -0.0133804 0)
(-1.90743 -0.0139922 2.20826e-21)
(-1.89371 -0.0145912 6.23355e-21)
(-1.87937 -0.015179 0)
(-1.86441 -0.0157545 3.61346e-21)
(-1.84887 -0.0163113 3.3386e-21)
(-1.83277 -0.0168298 3.06363e-21)
(-1.81613 -0.0172834 0)
(-1.79895 -0.0176825 0)
(-1.78125 -0.0180518 0)
(-1.76304 -0.0183948 -9.93865e-22)
(-1.74436 -0.0187137 -8.31478e-22)
(-1.7252 -0.0190112 0)
(-1.70559 -0.0192899 -1.14044e-21)
(-1.68552 -0.0195516 -8.67588e-22)
(-1.66502 -0.0197975 0)
(-1.64409 -0.0200291 -2.98231e-22)
(-1.62274 -0.0202479 -1.0876e-22)
(-1.60097 -0.0204553 -2.4113e-22)
(-1.57878 -0.0206522 -4.55686e-22)
(-1.55619 -0.02084 0)
(-1.53318 -0.0210213 0)
(-1.50977 -0.0211994 0)
(-1.48594 -0.0213775 -1.5669e-21)
(-1.46168 -0.0215588 1.77291e-21)
(-1.437 -0.021746 4.11792e-21)
(-1.41188 -0.0219409 -2.34351e-21)
(-1.3863 -0.0221443 2.54308e-21)
(-1.36025 -0.022357 2.85201e-21)
(-1.33372 -0.0225803 0)
(-1.30667 -0.0228165 0)
(-1.2791 -0.0230679 -3.54105e-21)
(-1.25098 -0.0233365 0)
(-1.22229 -0.0236235 0)
(-1.193 -0.0239293 8.58956e-21)
(-1.16308 -0.0242527 0)
(-1.13253 -0.0245909 4.73254e-21)
(-1.1013 -0.024941 -5.0278e-21)
(-1.06939 -0.0253006 0)
(-1.03678 -0.0256685 5.41261e-21)
(-1.00344 -0.0260446 0)
(-0.969363 -0.02643 0)
(-0.934515 -0.0268264 -6.13656e-21)
(-0.898878 -0.0272344 1.26189e-20)
(-0.862428 -0.0276526 -6.5545e-21)
(-0.825147 -0.028079 0)
(-0.787015 -0.028513 0)
(-0.748013 -0.0289533 7.06206e-21)
(-0.708123 -0.0293956 0)
(-0.667334 -0.0298337 7.42656e-21)
(-0.625639 -0.0302601 0)
(-0.58304 -0.0306691 0)
(-0.539545 -0.0310564 0)
(-0.495165 -0.0314171 8.18927e-21)
(-0.449917 -0.0317469 0)
(-0.403824 -0.0320442 -8.48572e-21)
(-0.356914 -0.0323099 0)
(-0.309241 -0.0325347 0)
(-0.260948 -0.0326314 1.76337e-20)
(-0.212335 -0.0322605 -1.78634e-20)
(-0.164033 -0.0310196 0)
(-0.116143 -0.0298554 0)
(-0.0675515 -0.0300033 0)
(-0.0193272 -0.0302631 5.67853e-20)
(0.0318073 -0.0299698 0)
(0.0759458 -0.0267331 -3.87906e-20)
(-0.00906914 0.041538 4.68e-25)
(-0.012892 0.0459793 9.84e-21)
(-0.0237363 0.0495302 0)
(-0.0346005 0.0525255 -9.54108e-21)
(-0.0455292 0.0550362 0)
(-0.0569088 0.057129 0)
(-0.0687698 0.0588704 -4.28984e-24)
(-0.08106 0.0603305 4.62149e-21)
(-0.0937483 0.061577 4.59777e-21)
(-0.10682 0.0626725 4.56724e-21)
(-0.120267 0.0636737 0)
(-0.13409 0.0646311 0)
(-0.148297 0.0655894 -4.49768e-21)
(-0.162902 0.066588 -8.94751e-21)
(-0.177923 0.0676608 8.89983e-21)
(-0.193387 0.0688373 0)
(-0.20932 0.0701438 8.80461e-21)
(-0.225752 0.0716027 -4.37416e-21)
(-0.242709 0.073232 0)
(-0.26021 0.0750403 8.66199e-21)
(-0.278259 0.0770142 4.30228e-21)
(-0.296859 0.0790967 -8.56718e-21)
(-0.316039 0.0812139 -4.25445e-21)
(-0.335849 0.0833347 0)
(-0.356328 0.0854668 8.42629e-21)
(-0.3775 0.0876255 8.3799e-21)
(-0.399375 0.0898192 0)
(-0.421962 0.092047 8.2883e-21)
(-0.445263 0.0943006 0)
(-0.469278 0.096565 8.19863e-21)
(-0.494005 0.0988205 4.07093e-21)
(-0.519441 0.101045 0)
(-0.545581 0.103219 0)
(-0.57242 0.105323 0)
(-0.599947 0.107343 0)
(-0.628149 0.109269 0)
(-0.657007 0.111089 0)
(-0.686497 0.112793 7.87098e-21)
(-0.716589 0.11437 -1.17442e-20)
(-0.74725 0.115806 0)
(-0.77844 0.11709 0)
(-0.810119 0.11821 0)
(-0.84224 0.119152 -1.56987e-23)
(-0.874754 0.119907 7.65072e-21)
(-0.907609 0.120466 1.52556e-20)
(-0.940749 0.120821 -1.51955e-20)
(-0.974117 0.120966 -7.57654e-21)
(-1.00765 0.120899 7.53161e-21)
(-1.0413 0.120616 1.63172e-23)
(-1.07499 0.120117 7.49215e-21)
(-1.10867 0.119403 0)
(-1.14228 0.118477 7.43767e-21)
(-1.17575 0.117343 1.59784e-23)
(-1.20902 0.116006 0)
(-1.24206 0.114475 0)
(-1.2748 0.112762 -7.32849e-21)
(-1.30721 0.110885 0)
(-1.33923 0.108867 0)
(-1.37083 0.106732 7.25598e-21)
(-1.40195 0.104499 1.4423e-20)
(-1.43253 0.102169 -7.16668e-21)
(-1.46253 0.0997418 0)
(-1.49192 0.0972199 7.10014e-21)
(-1.52066 0.0946095 0)
(-1.54872 0.0919185 7.0507e-21)
(-1.57606 0.0891556 6.98854e-21)
(-1.60267 0.0863295 -1.39171e-20)
(-1.62851 0.0834492 -6.9257e-21)
(-1.65357 0.080523 0)
(-1.67783 0.077559 1.36451e-20)
(-1.70126 0.0745646 0)
(-1.72385 0.0715462 2.01534e-20)
(-1.74558 0.0685097 1.33325e-20)
(-1.76645 0.0654601 1.32187e-20)
(-1.78642 0.0624024 -1.30998e-20)
(-1.8055 0.0593412 1.94562e-20)
(-1.82367 0.0562817 0)
(-1.84093 0.0532296 0)
(-1.85725 0.0501912 -1.25722e-20)
(-1.87265 0.0471723 -1.86343e-20)
(-1.8871 0.0441786 0)
(-1.90061 0.0412153 6.05453e-21)
(-1.91318 0.0382876 0)
(-1.9248 0.0354003 -1.76841e-20)
(-1.93548 0.032558 1.05288e-23)
(-1.94523 0.0297645 -1.02376e-23)
(-1.95404 0.0270228 1.12626e-20)
(-1.96193 0.0243352 0)
(-1.96892 0.0217041 -1.0884e-20)
(-1.975 0.0191324 9.37363e-24)
(-1.98019 0.0166238 0)
(-1.98449 0.0141805 0)
(-1.98792 0.0117989 0)
(-1.99047 0.00947218 9.84742e-21)
(-1.99217 0.00720067 0)
(-1.99304 0.00499258 0)
(-1.99307 0.00285051 0)
(-1.99229 0.000766378 0)
(-1.99066 -0.00125753 0)
(-1.98821 -0.00321803 8.48661e-21)
(-1.98492 -0.00511407 0)
(-1.98082 -0.00694389 7.99053e-21)
(-1.97591 -0.00870583 7.74351e-21)
(-1.97021 -0.0103991 -7.49378e-21)
(-1.96374 -0.0120242 0)
(-1.95651 -0.0135825 -6.98687e-21)
(-1.94855 -0.0150764 0)
(-1.93986 -0.0165083 -6.4713e-21)
(-1.93047 -0.017881 6.21071e-21)
(-1.9204 -0.0191977 1.78721e-20)
(-1.90965 -0.0204618 0)
(-1.89825 -0.0216769 1.6287e-20)
(-1.8862 -0.0228471 5.18175e-21)
(-1.87351 -0.0239766 0)
(-1.86021 -0.0250698 9.26603e-21)
(-1.84629 -0.0261316 8.72911e-21)
(-1.83177 -0.027166 -1.22716e-20)
(-1.81667 -0.0281754 0)
(-1.80101 -0.0291576 -3.54111e-21)
(-1.78482 -0.030101 -3.27125e-21)
(-1.76811 -0.03098 -9.03481e-21)
(-1.75089 -0.0317697 0)
(-1.73315 -0.0324791 0)
(-1.7149 -0.0331313 0)
(-1.69616 -0.0337344 -1.95364e-21)
(-1.67694 -0.0342936 0)
(-1.65724 -0.0348132 0)
(-1.63707 -0.0352978 1.11624e-21)
(-1.61645 -0.0357517 8.49074e-22)
(-1.59538 -0.0361779 0)
(-1.57387 -0.0365793 0)
(-1.55193 -0.0369582 1.06402e-22)
(-1.52955 -0.0373167 0)
(-1.50675 -0.0376568 9.43596e-22)
(-1.48353 -0.0379808 1.42922e-21)
(-1.45988 -0.0382927 0)
(-1.4358 -0.0385973 0)
(-1.4113 -0.0388997 -2.97437e-21)
(-1.38638 -0.0392051 -3.67422e-23)
(-1.36101 -0.0395184 -3.69869e-23)
(-1.33521 -0.0398438 0)
(-1.30896 -0.0401839 -1.00137e-20)
(-1.28225 -0.0405409 0)
(-1.25508 -0.0409173 0)
(-1.22743 -0.0413163 0)
(-1.19929 -0.0417409 6.977e-21)
(-1.17065 -0.0421941 0)
(-1.14149 -0.0426777 -1.57771e-20)
(-1.11179 -0.0431916 -8.39204e-21)
(-1.08156 -0.0437336 0)
(-1.05075 -0.0442991 -9.30932e-21)
(-1.01937 -0.0448826 0)
(-0.987399 -0.0454797 0)
(-0.954816 -0.0460871 -3.18598e-20)
(-0.921609 -0.0467045 2.2083e-20)
(-0.887759 -0.0473337 0)
(-0.853247 -0.0479769 2.37744e-20)
(-0.818053 -0.0486351 -1.23296e-20)
(-0.782157 -0.049307 0)
(-0.745541 -0.0499893 0)
(-0.708186 -0.0506815 0)
(-0.670074 -0.0513823 -4.16299e-20)
(-0.631185 -0.0520863 0)
(-0.5915 -0.0527855 -1.4621e-20)
(-0.551006 -0.0534701 0)
(-0.509692 -0.0541339 0)
(-0.46755 -0.0547737 0)
(-0.424574 -0.055387 0)
(-0.380763 -0.0559738 0)
(-0.336119 -0.0565386 0)
(-0.290661 -0.057088 -3.36962e-20)
(-0.244439 -0.0576116 0)
(-0.197594 -0.0580037 -1.74237e-20)
(-0.150333 -0.0578534 5.31368e-20)
(-0.102589 -0.0566079 0)
(-0.0539891 -0.0550498 0)
(-0.00417702 -0.0546624 -3.72421e-20)
(0.0451338 -0.0547568 -3.77982e-20)
(0.0977008 -0.0543562 3.83661e-20)
(0.143308 -0.0507979 3.87675e-20)
(-0.00978425 0.0625732 -1.61204e-20)
(-0.0143982 0.067065 -1.49362e-20)
(-0.0257491 0.0709712 -9.7046e-21)
(-0.0372384 0.0746593 -4.79393e-21)
(-0.0486771 0.0779334 0)
(-0.0605192 0.0807606 9.40654e-21)
(-0.0728277 0.0831834 -4.67117e-21)
(-0.0855661 0.0852737 0)
(-0.0987144 0.0871108 -4.61032e-21)
(-0.112267 0.0887715 0)
(-0.126224 0.0903264 9.12442e-21)
(-0.140591 0.0918388 0)
(-0.155376 0.0933639 4.51322e-21)
(-0.170594 0.0949492 8.97931e-21)
(-0.18626 0.0966343 -8.93195e-21)
(-0.202395 0.098451 0)
(-0.219018 0.100424 -8.83625e-21)
(-0.236146 0.10257 0)
(-0.253796 0.104897 0)
(-0.27198 0.107403 -8.69039e-21)
(-0.290704 0.110073 0)
(-0.309981 0.112874 -3.55635e-24)
(-0.329829 0.115766 0)
(-0.350278 0.118722 0)
(-0.371353 0.121728 4.28431e-24)
(-0.393073 0.124776 -8.39701e-21)
(-0.415447 0.127857 -8.3538e-21)
(-0.438479 0.130962 -8.30139e-21)
(-0.462168 0.134074 0)
(-0.486512 0.137174 -1.64215e-20)
(-0.511504 0.140242 0)
(-0.537135 0.143254 -8.12367e-21)
(-0.563398 0.146189 0)
(-0.590278 0.149024 0)
(-0.617762 0.15174 7.99547e-21)
(-0.645829 0.154318 0)
(-0.674454 0.156739 -7.91507e-21)
(-0.703608 0.158986 9.21546e-24)
(-0.733256 0.161041 1.5668e-20)
(-0.763359 0.162884 -1.56046e-20)
(-0.793875 0.164501 0)
(-0.824756 0.165873 0)
(-0.855953 0.166986 -7.71005e-21)
(-0.887414 0.167827 0)
(-0.919083 0.168385 -7.6214e-21)
(-0.950904 0.168651 7.58979e-21)