/*--------------------------------*- C++ -*----------------------------------*\
| =========                 |                                                 |
| \\      /  F ield         | OpenFOAM: The Open Source CFD Toolbox           |
|  \\    /   O peration     | Version:  2112                                  |
|   \\  /    A nd           | Website:  www.openfoam.com                      |
|    \\/     M anipulation  |                                                 |
\*---------------------------------------------------------------------------*/
FoamFile
{
    version     2.0;
    format      ascii;
    arch        "LSB;label=32;scalar=64";
    class       volVectorField;
    location    "0.1";
    object      ddtCorrDdt0(U);
}
// * * * * * * * * * * * * * * * * * * * * * * * * * * * * * * * * * * * * * //

dimensions      [0 1 -2 0 0 0 0];

internalField   nonuniform List<vector> 
12885
(
(-2.72196 19.8922 0)
(-35.9883 22.4957 0)
(-16.4102 -87.5914 0)
(-12.6451 -110.607 0)
(106.888 7.72506 0)
(53.3399 136.105 0)
(-109.879 202.926 0)
(-287.781 143.948 0)
(-277.491 -122.639 0)
(36.0739 -414.147 0)
(349.677 -288.356 0)
(340.988 83.8422 0)
(181.281 273.612 0)
(-27.2294 318.47 0)
(-230.325 281.118 0)
(-330.417 77.8361 0)
(-220.342 -315.978 0)
(14.3484 -482.117 0)
(152.809 -242.848 0)
(160.888 26.9153 0)
(109.931 158.401 0)
(66.9829 214.401 0)
(27.2107 248.775 0)
(-30.4313 218.801 0)
(-77.2406 67.619 0)
(-73.2808 -122.678 0)
(-24.0937 -223.528 0)
(25.6542 -209.296 0)
(42.9972 -131.115 0)
(25.6457 -42.4317 0)
(-7.49947 27.6232 0)
(-39.4808 72.219 0)
(-61.9121 95.8111 0)
(-72.8987 99.3632 0)
(-73.7067 90.541 0)
(-62.3142 65.2667 0)
(-42.2997 37.8892 0)
(-17.1428 6.52951 0)
(11.3542 -25.5654 0)
(40.5414 -72.9062 0)
(-0.893785 -4.92992 0)
(20.809 -6.55812 0)
(13.1615 31.6168 0)
(-8.71665 40.8604 0)
(-25.0258 -8.11017 0)
(-40.7897 -26.7889 0)
(-22.1597 -22.2295 0)
(41.971 -38.6604 0)
(66.0518 -37.2905 0)
(0.152299 30.9831 0)
(-19.6663 72.4434 0)
(25.2827 29.7993 0)
(54.0956 -11.3948 0)
(6.94178 -24.7262 0)
(-48.5927 -58.5916 0)
(-63.546 -81.3076 0)
(-96.8203 8.44499 0)
(-112.977 130.111 0)
(-66.7803 133.185 0)
(42.0311 39.2166 0)
(142.543 -60.106 0)
(164.94 -112.54 0)
(126.443 -118.279 0)
(76.328 -93.1124 0)
(33.4294 -40.4078 0)
(-14.8022 27.093 0)
(-70.1112 84.7796 0)
(-108.536 116.763 0)
(-112.723 117.791 0)
(-91.5681 90.5496 0)
(-60.1254 45.3706 0)
(-30.4682 -3.41179 0)
(-9.12172 -42.5606 0)
(2.0383 -67.4467 0)
(7.7631 -76.6309 0)
(13.6915 -76.4823 0)
(20.6092 -68.1224 0)
(30.8289 -60.3942 0)
(45.4256 -51.0454 0)
(49.9622 -43.4348 0)
(0.0794294 0.622626 0)
(4.39934 4.60103 0)
(5.22711 0.291326 0)
(-5.71816 -17.4709 0)
(-17.5982 -4.89823 0)
(-18.0079 31.4091 0)
(13.5336 59.8923 0)
(68.2676 56.8106 0)
(76.7496 -24.6632 0)
(0.298208 -152.756 0)
(-90.6166 -163.005 0)
(-111.354 -26.0657 0)
(-69.3329 112.789 0)
(3.26474 181.034 0)
(84.7799 189.567 0)
(118.953 119.146 0)
(60.2947 -66.6189 0)
(-32.003 -239.382 0)
(-59.1107 -250.647 0)
(-22.1169 -148.166 0)
(21.7592 -24.9491 0)
(39.6678 80.0982 0)
(40.3142 154.623 0)
(34.5976 188.343 0)
(7.05513 162.523 0)
(-49.3402 82.6925 0)
(-107.31 -8.00113 0)
(-133.732 -70.1354 0)
(-123.748 -94.7395 0)
(-85.1304 -89.8467 0)
(-29.5699 -67.6932 0)
(33.0908 -40.6288 0)
(91.0525 -19.0035 0)
(134.888 -5.84133 0)
(161.736 2.58035 0)
(165.986 5.5152 0)
(151.187 4.54665 0)
(117.945 0.174286 0)
(77.3938 -9.77902 0)
(32.8482 -21.0165 0)
(-0.759905 0.791922 0)
(0.650522 0.745729 0)
(2.46989 -1.26805 0)
(-0.971684 -2.10791 0)
(-6.11174 4.34362 0)
(-6.29439 14.869 0)
(7.83861 19.0847 0)
(31.9484 1.98823 0)
(43.9339 -35.1182 0)
(15.9353 -52.5514 0)
(-44.2436 -23.7482 0)
(-84.1375 24.093 0)
(-68.747 54.4489 0)
(-15.6905 55.3399 0)
(39.0225 22.6266 0)
(79.255 -27.2822 0)
(98.399 -52.2839 0)
(76.3863 -38.8476 0)
(16.869 -18.209 0)
(-45.1639 -10.7139 0)
(-84.912 -6.87185 0)
(-96.5529 8.89177 0)
(-82.818 31.7013 0)
(-51.0303 41.9225 0)
(-10.917 33.0361 0)
(28.3833 20.6841 0)
(56.9041 16.121 0)
(68.461 14.1417 0)
(65.085 6.99898 0)
(53.3046 -6.86044 0)
(37.5997 -24.4426 0)
(20.3049 -40.5804 0)
(5.34997 -51.8425 0)
(-1.16079 -55.1995 0)
(-0.413627 -50.5533 0)
(3.20409 -41.3163 0)
(7.35172 -27.6344 0)
(8.61051 -12.5158 0)
(7.97501 2.43908 0)
(3.81221 16.0064 0)
(-0.463401 0.412839 0)
(0.430487 -0.288289 0)
(1.41353 -0.311996 0)
(-0.091222 0.441686 0)
(-3.04733 3.71371 0)
(-2.23338 9.00591 0)
(6.59824 10.1677 0)
(20.4047 1.17032 0)
(26.1257 -16.851 0)
(6.59703 -32.1898 0)
(-30.9916 -25.5608 0)
(-52.5168 2.48537 0)
(-39.2741 30.1468 0)
(-4.81097 40.4769 0)
(31.9784 31.5205 0)
(58.9039 11.7015 0)
(60.9792 -14.1072 0)
(31.9594 -41.1691 0)
(-9.16979 -52.2624 0)
(-39.8736 -41.0335 0)
(-54.6981 -16.6207 0)
(-56.5289 11.5783 0)
(-45.0777 36.1814 0)
(-19.811 50.9103 0)
(12.1655 52.8118 0)
(37.0376 41.9175 0)
(46.8336 21.3506 0)
(44.9718 -2.18012 0)
(38.4626 -22.6046 0)
(30.6182 -37.2942 0)
(21.1991 -45.8445 0)
(9.95689 -48.1928 0)
(-1.75114 -44.1204 0)
(-12.1237 -36.0324 0)
(-20.8433 -26.2034 0)
(-27.779 -15.609 0)
(-32.4992 -4.36488 0)
(-34.4869 7.19495 0)
(-33.9475 17.7018 0)
(-31.8515 26.1669 0)
(0.0232545 0.371005 0)
(0.471815 -0.326083 0)
(0.533039 0.00230287 0)
(-0.18475 1.0891 0)
(-1.5812 3.58972 0)
(-0.0313635 6.7111 0)
(5.95019 6.52091 0)
(13.2163 -0.387511 0)
(13.8236 -13.197 0)
(0.582699 -22.9059 0)
(-19.7368 -16.5309 0)
(-29.1029 3.82635 0)
(-19.517 22.1668 0)
(1.30133 27.8823 0)
(21.851 19.9602 0)
(33.0411 2.53029 0)
(28.9414 -17.8168 0)
(11.8439 -30.3425 0)
(-8.25465 -28.295 0)
(-22.9313 -15.9536 0)
(-30.0792 -0.712617 0)
(-29.7378 13.7544 0)
(-21.5568 24.826 0)
(-7.1281 29.0835 0)
(8.45662 24.7886 0)
(19.8346 14.1758 0)
(25.4028 2.17094 0)
(26.6657 -7.57991 0)
(24.9847 -14.4709 0)
(20.6858 -19.2188 0)
(14.059 -22.1473 0)
(5.83346 -22.9346 0)
(-2.85931 -21.4953 0)
(-10.8618 -18.391 0)
(-17.5229 -14.1446 0)
(-22.5722 -8.9922 0)
(-25.8982 -3.1449 0)
(-27.3022 3.02746 0)
(-26.7763 8.98464 0)
(-24.6278 14.3749 0)
(0.196869 0.227925 0)
(0.278793 -0.060204 0)
(0.0925178 0.0962046 0)
(-0.282014 1.39376 0)
(-0.671087 3.40261 0)
(0.958281 5.05193 0)
(4.80229 3.93458 0)
(8.3269 -1.69474 0)
(7.236 -10.3111 0)
(-0.99026 -15.3003 0)
(-11.7343 -9.71555 0)
(-15.8796 3.48821 0)
(-9.82587 14.5157 0)
(2.07349 17.215 0)
(12.9911 11.1495 0)
(17.8884 -0.141677 0)
(14.7583 -11.2444 0)
(5.39311 -17.0018 0)
(-5.66732 -15.5696 0)
(-14.0477 -9.10265 0)
(-17.7475 -0.536981 0)
(-16.5125 7.94086 0)
(-10.8993 14.2304 0)
(-2.50653 16.4675 0)
(6.11403 14.2857 0)
(12.6918 9.12828 0)
(16.1871 2.94301 0)
(16.7057 -3.0682 0)
(14.822 -8.40564 0)
(11.1672 -12.7179 0)
(6.36766 -15.607 0)
(1.03628 -16.7424 0)
(-4.17874 -16.0935 0)
(-8.68529 -13.9303 0)
(-12.1481 -10.6192 0)
(-14.4694 -6.50204 0)
(-15.6429 -1.91126 0)
(-15.6709 2.86035 0)
(-14.6701 7.48414 0)
(-12.8818 11.6502 0)
(0.158129 0.0970214 0)
(0.161857 -0.0235069 0)
(-0.0956112 0.228432 0)
(-0.29879 1.50201 0)
(-0.111513 3.01244 0)
(1.29187 3.73457 0)
(3.68327 2.27713 0)
(5.32281 -2.09361 0)
(3.96482 -7.80092 0)
(-1.07895 -10.3996 0)
(-6.87408 -6.13669 0)
(-8.77964 2.46896 0)
(-5.13381 9.33405 0)
(1.5933 10.8508 0)
(7.49899 6.93232 0)
(9.82542 0.0372663 0)
(7.7219 -6.55182 0)
(2.30198 -10.1771 0)
(-3.93653 -9.75479 0)
(-8.51413 -6.03624 0)
(-10.2028 -0.637781 0)
(-8.94299 4.77361 0)
(-5.31856 8.72068 0)
(-0.404478 10.1998 0)
(4.41678 9.05513 0)
(7.96269 5.95792 0)
(9.6547 1.89254 0)
(9.5514 -2.30562 0)
(8.06254 -6.065 0)
(5.64535 -8.98919 0)
(2.68598 -10.8166 0)
(-0.475169 -11.4252 0)
(-3.4933 -10.886 0)
(-6.02597 -9.41389 0)
(-7.87384 -7.16853 0)
(-9.00673 -4.36232 0)
(-9.46585 -1.23986 0)
(-9.29402 2.09779 0)
(-8.54379 5.44905 0)
(-7.31811 8.54067 0)
(0.0692545 0.0362876 0)
(0.0194671 0.0114532 0)
(-0.208094 0.394163 0)
(-0.193192 1.52015 0)
(0.284214 2.53845 0)
(1.3915 2.75533 0)
(2.85157 1.32254 0)
(3.55835 -2.00233 0)
(2.32941 -5.91269 0)
(-0.857006 -7.43863 0)
(-4.09949 -4.23232 0)
(-4.98461 1.69513 0)
(-2.81596 6.22719 0)
(0.988926 7.23671 0)
(4.21294 4.75488 0)
(5.32823 0.346292 0)
(3.98435 -3.93961 0)
(0.926939 -6.43057 0)
(-2.4441 -6.37434 0)
(-4.82832 -4.12216 0)
(-5.58076 -0.686074 0)
(-4.68858 2.79195 0)
(-2.53872 5.33731 0)
(0.218017 6.34402 0)
(2.82772 5.71442 0)
(4.68583 3.82095 0)
(5.50681 1.25227 0)
(5.31648 -1.46697 0)
(4.33761 -3.9876 0)
(2.8405 -6.00914 0)
(1.0457 -7.30271 0)
(-0.866821 -7.7652 0)
(-2.67518 -7.49626 0)
(-4.24843 -6.83707 0)
(-5.49142 -5.42414 0)
(-6.3313 -3.39003 0)
(-6.84171 -1.00919 0)
(-6.99262 1.50422 0)
(-6.63952 3.97182 0)
(-5.81105 6.23418 0)
(0.0110355 0.0355745 0)
(-0.0772461 0.0989288 0)
(-0.309917 0.390381 0)
(-0.0995327 1.32181 0)
(0.61827 2.16848 0)
(1.49212 2.06864 0)
(2.35637 0.801091 0)
(2.5915 -1.72466 0)
(1.61682 -4.48082 0)
(-0.665815 -5.8028 0)
(-2.87697 -3.24245 0)
(-3.19166 1.27809 0)
(-1.71099 4.30638 0)
(0.525392 5.03599 0)
(2.35968 3.44649 0)
(2.95462 0.515346 0)
(2.18271 -2.40373 0)
(0.510394 -4.18897 0)
(-1.30397 -4.32394 0)
(-2.58404 -2.98196 0)
(-2.97783 -0.78572 0)
(-2.46594 1.50671 0)
(-1.26859 3.2336 0)
(0.24833 3.98835 0)
(1.68422 3.69568 0)
(2.72594 2.57139 0)
(3.20884 0.969374 0)
(3.14326 -0.817626 0)
(2.59726 -2.69688 0)
(1.67621 -4.30512 0)
(0.521844 -5.37082 0)
(-0.765173 -5.79245 0)
(-1.81632 -5.61158 0)
(-2.97997 -4.89094 0)
(-4.33085 -3.66494 0)
(-5.25245 -2.07636 0)
(-5.79029 -0.296922 0)
(-5.95746 1.44423 0)
(-5.73747 3.00945 0)
(-5.16616 4.37056 0)
(0.0084676 0.0529227 0)
(-0.0783322 0.185188 0)
(-0.262855 0.402746 0)
(-0.091192 0.918327 0)
(0.750654 1.62426 0)
(1.66125 1.62563 0)
(2.19311 0.532206 0)
(2.19564 -1.54929 0)
(1.53037 -3.61099 0)
(-0.566081 -4.13993 0)
(-2.99007 -2.32818 0)
(-2.84924 0.692653 0)
(-1.25936 3.07863 0)
(0.327333 3.81224 0)
(1.66181 2.75123 0)
(2.14154 0.610018 0)
(1.68631 -1.59813 0)
(0.602056 -3.02914 0)
(-0.626589 -3.27488 0)
(-1.55326 -2.4124 0)
(-1.91596 -0.863161 0)
(-1.66808 0.816484 0)
(-0.936027 2.12446 0)
(0.0512945 2.74607 0)
(1.04409 2.60613 0)
(1.84494 1.83366 0)
(2.32624 0.665874 0)
(2.57757 -0.655263 0)
(2.43828 -1.90685 0)
(1.74189 -2.91075 0)
(0.704309 -3.56644 0)
(-0.51255 -3.81314 0)
(-1.75275 -3.5727 0)
(-2.89354 -2.71537 0)
(-3.85558 -1.704 0)
(-4.53446 -0.669251 0)
(-4.89198 0.364004 0)
(-4.9276 1.3438 0)
(-4.67561 2.2242 0)
(-4.18443 2.98053 0)
(0.0174893 0.0642503 0)
(-0.0293753 0.225252 0)
(-0.091189 0.3756 0)
(0.080773 0.58504 0)
(0.695054 0.86121 0)
(1.55015 1.06319 0)
(2.22119 0.291818 0)
(2.18019 -1.16415 0)
(1.05114 -2.36906 0)
(-1.04115 -2.11721 0)
(-2.85604 -1.3617 0)
(-2.9653 -0.0834718 0)
(-1.59195 1.63361 0)
(0.246741 2.31471 0)
(1.80515 1.77848 0)
(2.4878 0.511129 0)
(2.15246 -0.845119 0)
(1.06603 -1.77384 0)
(-0.288824 -2.00762 0)
(-1.42642 -1.56028 0)
(-2.01817 -0.670385 0)
(-1.9561 0.318331 0)
(-1.33321 1.08839 0)
(-0.373397 1.44213 0)
(0.658887 1.33027 0)
(1.53524 0.824721 0)
(2.10141 0.0725804 0)
(2.30043 -0.705381 0)
(2.1158 -1.20808 0)
(1.56591 -1.46603 0)
(0.749147 -1.54749 0)
(-0.227799 -1.46849 0)
(-1.2494 -1.2182 0)
(-2.15805 -0.80882 0)
(-2.84988 -0.328995 0)
(-3.31414 0.155601 0)
(-3.55249 0.617607 0)
(-3.5716 1.04009 0)
(-3.39379 1.40635 0)
(-3.0486 1.69922 0)
(0.0082409 0.0640404 0)
(0.0475244 0.232078 0)
(0.137615 0.324555 0)
(0.320148 0.379765 0)
(0.605361 0.406426 0)
(1.13432 0.386518 0)
(1.66988 0.0770359 0)
(1.47886 -0.381266 0)
(0.420166 -0.603918 0)
(-0.9754 -0.581288 0)
(-1.99707 -0.626823 0)
(-2.22234 -0.569306 0)
(-1.45866 -0.211138 0)
(-0.0341817 0.127189 0)
(1.32361 0.243056 0)
(2.04933 0.188739 0)
(1.96171 0.0703378 0)
(1.21626 -0.0378383 0)
(0.159501 -0.100555 0)
(-0.82765 -0.116755 0)
(-1.45591 -0.111294 0)
(-1.59513 -0.119006 0)
(-1.27778 -0.16634 0)
(-0.653321 -0.261262 0)
(0.0795128 -0.394012 0)
(0.733358 -0.540804 0)
(1.16542 -0.663378 0)
(1.29914 -0.70348 0)
(1.16496 -0.61157 0)
(0.848455 -0.412373 0)
(0.41207 -0.160792 0)
(-0.0933598 0.101672 0)
(-0.609679 0.348044 0)
(-1.07461 0.562461 0)
(-1.44361 0.734326 0)
(-1.6996 0.85552 0)
(-1.83833 0.921971 0)
(-1.86131 0.934475 0)
(-1.77674 0.896254 0)
(-1.597 0.808533 0)
(0.00419609 0.0297726 0)
(0.0643879 0.139108 0)
(0.159141 0.214804 0)
(0.280117 0.254533 0)
(0.415416 0.243693 0)
(0.608997 0.128129 0)
(0.716536 0.107477 0)
(0.520937 0.184662 0)
(0.0700601 0.277927 0)
(-0.378545 0.215168 0)
(-0.687017 -0.147921 0)
(-0.805173 -0.674582 0)
(-0.624798 -1.06919 0)
(-0.165221 -1.13836 0)
(0.348848 -0.848839 0)
(0.697132 -0.303106 0)
(0.785481 0.308471 0)
(0.635923 0.787271 0)
(0.339849 0.997995 0)
(0.0108189 0.900927 0)
(-0.255261 0.545904 0)
(-0.404208 0.0424636 0)
(-0.428229 -0.47915 0)
(-0.355349 -0.903836 0)
(-0.23246 -1.15474 0)
(-0.109241 -1.20036 0)
(-0.0258426 -1.05124 0)
(-0.00248619 -0.752328 0)
(-0.0317569 -0.366111 0)
(-0.0912346 0.0484072 0)
(-0.163674 0.442613 0)
(-0.237863 0.777562 0)
(-0.304466 1.02566 0)
(-0.355329 1.17339 0)
(-0.384052 1.2197 0)
(-0.386857 1.17212 0)
(-0.362491 1.04304 0)
(-0.311899 0.847347 0)
(-0.238562 0.600161 0)
(-0.146007 0.314219 0)
(-0.000268659 -0.000287977 0)
(0.0292986 0.0506865 0)
(0.0759744 0.0892329 0)
(0.122928 0.0982462 0)
(0.154513 0.0838964 0)
(0.161529 0.0821862 0)
(0.143069 0.167014 0)
(0.116206 0.306665 0)
(0.124768 0.391625 0)
(0.184469 0.286859 0)
(0.221079 -0.0596015 0)
(0.170746 -0.551561 0)
(0.0396342 -0.98273 0)
(-0.116645 -1.15332 0)
(-0.236913 -0.974587 0)
(-0.276106 -0.509518 0)
(-0.219171 0.0718385 0)
(-0.0860704 0.57763 0)
(0.0790961 0.867201 0)
(0.226485 0.886143 0)
(0.316068 0.663573 0)
(0.326591 0.285516 0)
(0.257744 -0.139682 0)
(0.126613 -0.511925 0)
(-0.0394134 -0.759738 0)
(-0.210236 -0.84954 0)
(-0.359123 -0.785377 0)
(-0.467009 -0.600446 0)
(-0.524302 -0.342274 0)
(-0.529577 -0.0580942 0)
(-0.487169 0.212657 0)
(-0.405237 0.440066 0)
(-0.294239 0.60408 0)
(-0.165411 0.69439 0)
(-0.0293314 0.709388 0)
(0.104944 0.654125 0)
(0.230138 0.538069 0)
(0.340621 0.373189 0)
(0.432092 0.17202 0)
(0.502508 -0.0530748 0)
(-0.00126554 -0.0107665 0)
(0.00826204 0.0144967 0)
(0.0267393 0.0483212 0)
(0.0453479 0.0735665 0)
(0.0565856 0.0897263 0)
(0.0611091 0.107584 0)
(0.0774267 0.138523 0)
(0.106097 0.162274 0)
(0.180607 0.143658 0)
(0.286841 0.0595188 0)
(0.332704 -0.0911568 0)
(0.282489 -0.271777 0)
(0.136304 -0.424496 0)
(-0.0650298 -0.494041 0)
(-0.25375 -0.454589 0)
(-0.367235 -0.321674 0)
(-0.37437 -0.141295 0)
(-0.282607 0.032718 0)
(-0.128424 0.158584 0)
(0.0396813 0.216467 0)
(0.177508 0.208298 0)
(0.255951 0.151255 0)
(0.264871 0.0692936 0)
(0.2112 -0.0142379 0)
(0.113603 -0.0815841 0)
(-0.00395159 -0.122963 0)
(-0.118111 -0.1366 0)
(-0.210544 -0.127018 0)
(-0.270121 -0.10242 0)
(-0.29278 -0.0720562 0)
(-0.280031 -0.044331 0)
(-0.237235 -0.0257942 0)
(-0.172063 -0.0207542 0)
(-0.0931516 -0.0312475 0)
(-0.00900499 -0.0572404 0)
(0.0727824 -0.0969854 0)
(0.145944 -0.147437 0)
(0.205735 -0.204697 0)
(0.24898 -0.264522 0)
(0.273956 -0.322029 0)
(-0.000494114 -0.0147181 0)
(0.00559315 -0.00715744 0)
(0.0181448 0.0163182 0)
(0.0332602 0.0412868 0)
(0.0474492 0.0604741 0)
(0.0608439 0.0719144 0)
(0.0773347 0.0746856 0)
(0.0984743 0.0608323 0)
(0.12049 0.022107 0)
(0.13858 -0.0133231 0)
(0.138932 -0.0371078 0)
(0.108659 -0.0522505 0)
(0.0543196 -0.0666468 0)
(-0.0125129 -0.087483 0)
(-0.0754821 -0.116869 0)
(-0.118883 -0.150494 0)
(-0.1341 -0.179428 0)
(-0.121685 -0.193823 0)
(-0.0893227 -0.186728 0)
(-0.0479974 -0.156501 0)
(-0.00831107 -0.107174 0)
(0.0219928 -0.0470522 0)
(0.039033 0.0136598 0)
(0.0425817 0.0652925 0)
(0.0351098 0.10055 0)
(0.0205452 0.115469 0)
(0.00309384 0.109517 0)
(-0.0136493 0.0850258 0)
(-0.0271988 0.0462382 0)
(-0.0363078 -0.00171028 0)
(-0.0408198 -0.0536337 0)
(-0.0414062 -0.104874 0)
(-0.0392716 -0.151625 0)
(-0.0358648 -0.19105 0)
(-0.0326512 -0.221253 0)
(-0.0309443 -0.241159 0)
(-0.0318013 -0.25034 0)
(-0.0359301 -0.248844 0)
(-0.0437212 -0.237014 0)
(-0.0553056 -0.21518 0)
(-9.70643e-06 -0.0213244 0)
(0.00744038 -0.0329515 0)
(0.0197199 -0.0215668 0)
(0.0312809 0.00151566 0)
(0.0373708 0.0245163 0)
(0.0375246 0.0384907 0)
(0.0350407 0.0395588 0)
(0.0334866 0.0295314 0)
(0.0332992 0.01621 0)
(0.0314582 0.00929199 0)
(0.0267479 0.00739907 0)
(0.0235942 0.00378779 0)
(0.025216 -0.00683664 0)
(0.0291658 -0.0278279 0)
(0.0301853 -0.0586978 0)
(0.0238347 -0.0938714 0)
(0.00842405 -0.124408 0)
(-0.0143918 -0.142091 0)
(-0.0399878 -0.142903 0)
(-0.0622713 -0.127628 0)
(-0.0759514 -0.100394 0)
(-0.07836 -0.0668274 0)
(-0.069959 -0.0326228 0)
(-0.0536978 -0.00252484 0)
(-0.0338261 0.0202493 0)
(-0.0146787 0.0341578 0)
(0.000253473 0.0391408 0)
(0.00883086 0.0362299 0)
(0.0103584 0.0271012 0)
(0.0053695 0.0136787 0)
(-0.00477005 -0.0021564 0)
(-0.0182867 -0.0187361 0)
(-0.0333718 -0.0346749 0)
(-0.048461 -0.0488751 0)
(-0.0623862 -0.0605019 0)
(-0.0744157 -0.0689495 0)
(-0.0842209 -0.0738098 0)
(-0.0917909 -0.0748478 0)
(-0.0974548 -0.0719996 0)
(-0.101456 -0.0652532 0)
(0.000785352 -0.0326566 0)
(0.0181449 -0.065143 0)
(0.0432984 -0.0557538 0)
(0.0600863 -0.0129971 0)
(0.0552982 0.0394966 0)
(0.0290119 0.074977 0)
(-0.00553978 0.0776379 0)
(-0.0304422 0.0514247 0)
(-0.0429007 0.0212962 0)
(-0.0402797 0.0124336 0)
(-0.027073 -0.00502592 0)
(-0.00966944 -0.0409035 0)
(0.0170813 -0.0780697 0)
(0.0517304 -0.0963485 0)
(0.0803068 -0.0859142 0)
(0.0857494 -0.0507874 0)
(0.0612504 -0.00546725 0)
(0.0147732 0.0309738 0)
(-0.0366731 0.0416192 0)
(-0.0784457 0.0199603 0)
(-0.103341 -0.0264816 0)
(-0.11 -0.0804315 0)
(-0.10141 -0.123302 0)
(-0.0832145 -0.141875 0)
(-0.0616881 -0.131297 0)
(-0.0421402 -0.0948545 0)
(-0.0280406 -0.0416651 0)
(-0.0207996 0.0164761 0)
(-0.0200422 0.0681201 0)
(-0.0241723 0.104435 0)
(-0.0310277 0.120439 0)
(-0.0384681 0.115225 0)
(-0.0447928 0.0913955 0)
(-0.0489533 0.0540185 0)
(-0.0505788 0.00940675 0)
(-0.0498621 -0.03601 0)
(-0.0473802 -0.0765647 0)
(-0.0439043 -0.107919 0)
(-0.0403589 -0.12733 0)
(-0.0373133 -0.133565 0)
(0.0010371 -0.0503526 0)
(0.0361109 -0.114456 0)
(0.0909737 -0.105618 0)
(0.129031 -0.0243136 0)
(0.116006 0.0869704 0)
(0.0470923 0.167579 0)
(-0.047489 0.174531 0)
(-0.118296 0.110204 0)
(-0.158463 0.029267 0)
(-0.132209 -0.00571106 0)
(-0.048283 -0.0447858 0)
(0.012391 -0.103473 0)
(0.0325315 -0.165855 0)
(0.0391717 -0.194831 0)
(0.0487878 -0.147781 0)
(0.0522271 -0.0312595 0)
(0.0446813 0.0999066 0)
(0.0361604 0.18065 0)
(0.0458245 0.17913 0)
(0.0669076 0.113608 0)
(0.0695296 0.0162199 0)
(0.0384949 -0.0820501 0)
(-0.022613 -0.155773 0)
(-0.0990722 -0.189821 0)
(-0.172317 -0.181312 0)
(-0.225827 -0.137887 0)
(-0.249153 -0.0737686 0)
(-0.239412 -0.00526714 0)
(-0.200579 0.0530852 0)
(-0.14141 0.0911278 0)
(-0.0728554 0.104227 0)
(-0.00571642 0.0931088 0)
(0.0511158 0.0626964 0)
(0.0916601 0.0204066 0)
(0.113117 -0.0256056 0)
(0.115587 -0.0678973 0)
(0.101448 -0.100692 0)
(0.0745656 -0.120328 0)
(0.0394117 -0.12528 0)
(0.000845727 -0.115846 0)
(0.000567083 -0.0785803 0)
(0.0641986 -0.205514 0)
(0.178066 -0.206706 0)
(0.270336 -0.0553522 0)
(0.261546 0.177162 0)
(0.125669 0.361747 0)
(-0.0824297 0.388574 0)
(-0.247456 0.242328 0)
(-0.329773 0.0116779 0)
(-0.24559 -0.20424 0)
(-0.0234115 -0.28854 0)
(0.120277 -0.227049 0)
(0.11655 -0.132125 0)
(-0.0166293 -0.139231 0)
(-0.180563 -0.114153 0)
(-0.259874 -0.0368275 0)
(-0.203159 0.0412463 0)
(-0.0244178 0.0469602 0)
(0.19317 -0.0445235 0)
(0.360447 -0.0347917 0)
(0.420132 0.0712232 0)
(0.349495 0.207844 0)
(0.175769 0.310668 0)
(-0.0462196 0.339679 0)
(-0.25805 0.284251 0)
(-0.412966 0.159039 0)
(-0.484204 -0.00539817 0)
(-0.466749 -0.173492 0)
(-0.373708 -0.313692 0)
(-0.229923 -0.404141 0)
(-0.0649889 -0.434958 0)
(0.0929208 -0.407652 0)
(0.221539 -0.332541 0)
(0.306862 -0.22522 0)
(0.343486 -0.103059 0)
(0.333448 0.0176393 0)
(0.28421 0.123539 0)
(0.206453 0.205242 0)
(0.112016 0.257541 0)
(0.0125406 0.279286 0)
(-0.00352977 -0.11325 0)
(0.0892208 -0.354338 0)
(0.291632 -0.39688 0)
(0.487694 -0.146364 0)
(0.523479 0.30042 0)
(0.30668 0.697585 0)
(-0.095921 0.780043 0)
(-0.449458 0.465785 0)
(-0.535338 -0.0607014 0)
(-0.333221 -0.520056 0)
(-0.0129007 -0.621493 0)
(0.199448 -0.356967 0)
(0.271155 0.0545258 0)
(0.0263854 0.350378 0)
(-0.443013 0.330735 0)
(-0.688981 0.00283544 0)
(-0.578892 -0.426169 0)
(-0.0885118 -0.700387 0)
(0.359787 -0.673911 0)
(0.580423 -0.375352 0)
(0.694558 0.0878929 0)
(0.606144 0.55917 0)
(0.349455 0.892449 0)
(0.00995317 0.997783 0)
(-0.319146 0.859613 0)
(-0.562208 0.527899 0)
(-0.67583 0.0914623 0)
(-0.651211 -0.352677 0)
(-0.507523 -0.721656 0)
(-0.282286 -0.958595 0)
(-0.021707 -1.03725 0)
(0.228412 -0.96102 0)
(0.430348 -0.757161 0)
(0.559472 -0.46776 0)
(0.605893 -0.140038 0)
(0.573004 0.18183 0)
(0.474037 0.462104 0)
(0.327936 0.675963 0)
(0.155604 0.809778 0)
(-0.0235895 0.860224 0)
(-0.00830046 -0.142303 0)
(0.0892466 -0.555088 0)
(0.38322 -0.698633 0)
(0.733656 -0.357383 0)
(0.906216 0.410537 0)
(0.627077 1.22632 0)
(-0.129789 1.49012 0)
(-0.909599 0.87718 0)
(-1.12298 -0.224889 0)
(-0.646543 -1.06224 0)
(0.116273 -1.16052 0)
(0.647147 -0.561372 0)
(0.658976 0.339246 0)
(0.17098 1.04901 0)
(-0.523957 0.973962 0)
(-1.00471 0.126103 0)
(-0.980839 -0.977593 0)
(-0.427013 -1.68545 0)
(0.405642 -1.60089 0)
(1.16717 -0.942806 0)
(1.5616 0.0490591 0)
(1.43972 1.0646 0)
(0.848687 1.80205 0)
(-0.0159978 2.06328 0)
(-0.894743 1.80307 0)
(-1.55613 1.12026 0)
(-1.86444 0.20625 0)
(-1.79368 -0.727221 0)
(-1.39818 -1.49988 0)
(-0.776883 -1.98618 0)
(-0.0487969 -2.12613 0)
(0.665918 -1.92635 0)
(1.26389 -1.4502 0)
(1.67326 -0.798094 0)
(1.86085 -0.082997 0)
(1.83 0.59197 0)
(1.61138 1.1484 0)
(1.25125 1.53846 0)
(0.801558 1.74335 0)
(0.309912 1.76783 0)
(0.0237736 -0.127517 0)
(0.0707413 -0.757735 0)
(0.387254 -1.07904 0)
(0.913133 -0.758665 0)
(1.44555 0.376131 0)
(1.26711 1.97521 0)
(-0.131235 2.8164 0)
(-1.93087 1.7741 0)
(-2.53478 -0.563481 0)
(-1.37788 -2.37761 0)
(0.604859 -2.52395 0)
(2.06326 -1.10377 0)
(2.17777 0.973496 0)
(0.923115 2.46652 0)
(-1.02451 2.36172 0)
(-2.58407 0.608667 0)
(-2.85991 -1.75193 0)
(-1.67851 -3.41943 0)
(0.433929 -3.64821 0)
(2.60185 -2.41958 0)
(3.96447 -0.209713 0)
(4.00406 2.20283 0)
(2.71047 4.00783 0)
(0.514448 4.68702 0)
(-1.91569 4.16004 0)
(-3.90782 2.69635 0)
(-4.99637 0.727437 0)
(-5.02574 -1.3336 0)
(-4.09856 -3.14566 0)
(-2.46489 -4.43306 0)
(-0.444693 -5.01413 0)
(1.61536 -4.83201 0)
(3.38727 -3.96143 0)
(4.61674 -2.58245 0)
(5.16793 -0.928667 0)
(5.03676 0.766558 0)
(4.32811 2.30701 0)
(3.21092 3.55037 0)
(1.87142 4.41153 0)
(0.478792 4.85573 0)
(0.0137577 -0.144769 0)
(0.0610921 -0.985476 0)
(0.224591 -1.48636 0)
(0.867743 -1.43646 0)
(2.26123 -0.0551735 0)
(2.77609 2.86682 0)
(0.248544 5.20039 0)
(-4.14919 3.78368 0)
(-6.12158 -1.00408 0)
(-3.49772 -5.09726 0)
(1.62025 -5.69783 0)
(5.83577 -2.85152 0)
(6.84066 1.84802 0)
(3.81495 6.02213 0)
(-1.99352 6.90788 0)
(-7.24998 3.23549 0)
(-8.81757 -2.90178 0)
(-6.06415 -7.95241 0)
(-0.509528 -9.63551 0)
(5.60523 -7.42925 0)
(10.0219 -2.06087 0)
(11.0031 4.68021 0)
(8.17106 10.3126 0)
(2.76011 12.6211 0)
(-3.1988 10.8483 0)
(-8.03982 6.08363 0)
(-10.9409 0.304651 0)
(-11.7566 -4.99687 0)
(-10.6514 -9.09033 0)
(-7.90333 -11.536 0)
(-3.89439 -12.0578 0)
(0.796784 -10.5997 0)
(5.42258 -7.45121 0)
(9.25261 -3.27122 0)
(11.7848 1.09836 0)
(12.8278 4.91611 0)
(12.4426 7.72653 0)
(10.8553 9.36966 0)
(8.38707 9.89683 0)
(5.39709 9.48898 0)
(0.144962 -0.250331 0)
(0.0966571 -1.12586 0)
(-0.172592 -1.85886 0)
(0.432407 -2.61947 0)
(3.66329 -1.23899 0)
(6.2929 4.00148 0)
(2.03747 9.33532 0)
(-8.37695 7.51707 0)
(-14.5764 -1.62087 0)
(-9.56179 -9.76516 0)
(2.37288 -11.2743 0)
(13.5551 -6.46386 0)
(19.1569 1.5488 0)
(15.0296 9.96408 0)
(0.0410921 15.1176 0)
(-17.8971 12.1874 0)
(-27.0003 1.51238 0)
(-22.7134 -10.9059 0)
(-8.70756 -19.4562 0)
(9.02088 -21.0975 0)
(25.0044 -15.2769 0)
(33.7333 -3.8737 0)
(30.3636 10.301 0)
(14.8193 23.4759 0)
(-5.73528 30.368 0)
(-22.1198 28.1996 0)
(-30.0265 18.8181 0)
(-30.6852 5.88056 0)
(-26.8293 -7.56981 0)
(-19.6281 -19.6843 0)
(-9.29355 -29.016 0)
(3.29058 -34.1139 0)
(15.8605 -33.8498 0)
(25.4131 -28.0748 0)
(29.8156 -17.9233 0)
(28.8787 -5.45866 0)
(23.9586 7.08903 0)
(16.8718 17.9042 0)
(9.18795 25.8833 0)
(1.92177 30.6015 0)
(0.996801 -0.0793939 0)
(0.395144 -0.638549 0)
(-1.41007 -1.96034 0)
(-0.324019 -5.62511 0)
(7.43358 -4.45312 0)
(13.88 7.65432 0)
(5.36622 19.9742 0)
(-16.8714 13.1166 0)
(-31.1195 -8.49886 0)
(-21.3337 -23.1273 0)
(4.00434 -21.4913 0)
(26.9038 -5.7985 0)
(39.017 16.5229 0)
(36.6676 30.3086 0)
(13.2924 24.1664 0)
(-25.3833 1.89299 0)
(-56.1176 -21.5383 0)
(-61.085 -34.5413 0)
(-40.6509 -34.9464 0)
(-6.23186 -21.9012 0)
(29.3396 4.15423 0)
(59.7716 33.6922 0)
(80.0063 49.905 0)
(77.0708 44.2245 0)
(44.8812 22.6079 0)
(-1.80304 -1.35265 0)
(-42.6685 -16.9471 0)
(-68.7815 -23.8714 0)
(-81.599 -27.3662 0)
(-82.9985 -30.4293 0)
(-72.7808 -32.014 0)
(-51.3593 -28.077 0)
(-20.8157 -16.7976 0)
(14.557 -1.41282 0)
(48.4528 12.7175 0)
(74.5892 22.1347 0)
(89.0847 26.3406 0)
(91.3326 26.2635 0)
(83.2045 23.2044 0)
(67.5898 18.4728 0)
(0.635056 -0.326586 0)
(0.328695 1.54789 0)
(-7.82402 1.06793 0)
(-2.99973 -13.2948 0)
(22.8013 -23.4556 0)
(38.3171 1.52163 0)
(7.64665 56.3238 0)
(-48.3212 65.689 0)
(-71.6639 6.86632 0)
(-41.2901 -58.0966 0)
(21.1176 -88.0747 0)
(83.7548 -81.5685 0)
(103.711 -33.538 0)
(53.7499 63.9467 0)
(-35.6797 155.849 0)
(-99.9407 151.602 0)
(-106.828 57.7855 0)
(-74.723 -52.5325 0)
(-25.6537 -137.032 0)
(40.7593 -179.047 0)
(111.413 -172.874 0)
(141.064 -111.279 0)
(98.0864 14.3129 0)
(7.30302 162.619 0)
(-71.9365 243.708 0)
(-100.997 226.027 0)
(-84.8809 152.033 0)
(-51.7492 65.0635 0)
(-24.1338 -15.6665 0)
(-7.13755 -88.6056 0)
(9.11862 -154.522 0)
(32.6498 -204.498 0)
(55.8192 -222.079 0)
(64.1666 -197.733 0)
(52.7597 -137.908 0)
(28.0885 -59.3381 0)
(-1.20972 21.3404 0)
(-27.8884 90.2644 0)
(-47.7168 140.176 0)
(-57.9681 168.279 0)
(3.11204 -3.73394 0)
(-7.71724 -4.49418 0)
(-28.9625 6.59047 0)
(-13.6876 5.11266 0)
(49.5851 1.85789 0)
(90.1278 14.062 0)
(30.4067 13.9794 0)
(-77.6052 -5.63647 0)
(-124.125 -22.6673 0)
(-85.1385 -30.9885 0)
(-11.484 -24.731 0)
(73.6488 11.8922 0)
(155.06 61.8485 0)
(157.466 62.2225 0)
(41.0565 1.29052 0)
(-92.6356 -47.2271 0)
(-141.417 -46.546 0)
(-102.48 -29.4519 0)
(-62.2231 -25.637 0)
(-48.7443 -24.543 0)
(-13.8018 11.4251 0)
(80.8051 76.7457 0)
(165.379 100.906 0)
(137.634 48.4385 0)
(20.1035 -30.1495 0)
(-86.1897 -80.8896 0)
(-107.824 -88.2802 0)
(-71.8641 -54.3431 0)
(-24.6071 -2.02454 0)
(1.60844 33.949 0)
(5.06719 42.0675 0)
(14.7641 36.7285 0)
(50.3804 31.5414 0)
(95.5094 28.7753 0)
(117.984 26.1459 0)
(102.56 20.0015 0)
(54.4188 8.01403 0)
(-9.93385 -8.5786 0)
(-72.0771 -27.745 0)
(-116.022 -44.2141 0)
(-7.60267 2.65257 0)
(-0.648978 42.2863 0)
(71.2761 -15.9254 0)
(0.677244 -115.349 0)
(-150.261 -119.714 0)
(-205.33 47.1974 0)
(-26.3518 265.688 0)
(256.717 230.961 0)
(314.052 -24.5885 0)
(179.268 -218.866 0)
(-49.9124 -297.52 0)
(-285.304 -269.41 0)
(-413.935 -82.9665 0)
(-311.233 277.171 0)
(23.7536 545.094 0)
(341.109 386.197 0)
(430.176 12.5278 0)
(336.096 -232.198 0)
(159.735 -342.407 0)
(-46.7623 -392.491 0)
(-265.972 -404.503 0)
(-445.888 -272.992 0)
(-471.838 120.203 0)
(-273.402 584.483 0)
(41.0286 685.671 0)
(283.193 427.95 0)
(367.695 119.09 0)
(336.266 -106.059 0)
(260.841 -213.609 0)
(182.924 -267.779 0)
(98.841 -346.088 0)
(-14.8671 -433.505 0)
(-155.847 -444.528 0)
(-284.43 -321.431 0)
(-353.489 -87.3817 0)
(-342.564 174.519 0)
(-262.325 376.482 0)
(-142.339 473.697 0)
(-15.3325 468.402 0)
(91.5448 389.761 0)
(-0.0155914 0.018076 0)
(-0.0298986 0.0243036 0)
(-0.0636203 0.0307226 0)
(-0.106076 0.0384625 0)
(-0.159521 0.0469136 5.30866e-22)
(-0.226087 0.0554458 0)
(-0.306606 0.0632791 0)
(-0.400358 0.0693905 0)
(-0.506094 0.0738575 0)
(-0.628821 0.0881123 0)
(-0.7762 0.17463 0)
(-0.976864 0.209616 6.5874e-22)
(-1.23148 0.160784 0)
(-1.4766 0.16108 0)
(-1.74391 0.169899 0)
(-2.03647 0.173279 0)
(-2.34733 0.173034 0)
(-2.67109 0.170094 0)
(-3.00281 0.164454 -1.26754e-21)
(-3.3369 0.156209 0)
(-3.66711 0.14556 1.21527e-21)
(-3.98667 0.132751 -1.18621e-21)
(-4.28827 0.117978 1.15643e-21)
(-4.56407 0.101483 0)
(-4.80579 0.0848328 0)
(-5.00594 0.069514 -2.13452e-21)
(-5.15246 0.0448812 2.08469e-21)
(-5.23558 0.0221347 -2.03714e-21)
(-5.24592 0.000437171 0)
(-5.17314 -0.0231789 -1.9417e-21)
(-5.00495 -0.0485748 1.88832e-21)
(-4.73177 -0.0746003 0)
(-4.35577 -0.102371 0)
(-3.72972 -0.226207 0)
(-3.06557 -0.268102 -3.89278e-21)
(-2.37523 -0.160493 0)
(-1.60835 -0.181054 3.25522e-21)
(-0.837226 -0.16513 0)
(-0.19554 -0.119707 -3.67465e-21)
(0.168665 -0.0532235 3.23815e-21)
(0.187101 0.0451598 0)
(-0.0641227 0.0973972 0)
(-0.442556 0.094059 0)
(-0.765726 0.0717041 0)
(-0.98569 0.0413881 7.88659e-21)
(-1.12172 0.0233895 0)
(-1.2757 0.0307745 -7.29831e-21)
(-1.60032 0.0544279 0)
(-2.1597 0.0714797 0)
(-2.81059 0.0619885 0)
(-3.24648 0.0206593 -7.989e-21)
(-3.2556 -0.0357854 0)
(-2.84531 -0.0870991 -8.29162e-21)
(-2.11213 -0.12387 0)
(-1.16604 -0.144804 0)
(-0.120909 -0.151634 0)
(0.928187 -0.147259 8.1714e-21)
(1.91134 -0.134739 0)
(2.78581 -0.11844 0)
(3.53883 -0.101236 0)
(4.16557 -0.0837174 7.59157e-21)
(4.66957 -0.0674105 7.46941e-21)
(5.06411 -0.0531207 0)
(5.36277 -0.0406703 0)
(5.57956 -0.0302164 0)
(5.7283 -0.0215752 0)
(5.82121 -0.0145456 0)
(5.86929 -0.00893428 0)
(5.88188 -0.00452998 -7.16654e-21)
(5.86711 -0.00114353 7.18595e-21)
(5.8317 0.00139612 0)
(5.78133 0.00324547 -7.2537e-21)
(5.72056 0.00454157 0)
(5.65296 0.00540857 0)
(5.58121 0.00595797 0)
(5.50717 0.00628944 0)
(5.43198 0.00649141 0)
(5.35615 0.0066366 0)
(5.27965 0.00678471 -7.69943e-21)
(5.20207 0.00698095 0)
(5.12266 0.00725673 -7.87828e-21)
(5.04047 0.00763002 7.97738e-21)
(4.95442 0.00810624 -8.08344e-21)
(4.86341 0.00868308 0)
(4.76647 0.00935453 -8.31825e-21)
(4.66296 0.0101095 0)
(4.55269 0.0109144 -8.58487e-21)
(4.43582 0.0117209 0)
(4.31216 0.0125739 0)
(4.18164 0.0135105 0)
(4.04362 0.0155306 -1.83711e-20)
(3.90042 0.0164714 0)
(3.73802 0.0218376 1.92637e-20)
(3.57909 0.0139918 0)
(3.41811 0.0173785 0)
(3.23558 0.0190263 0)
(3.0638 0.0209678 0)
(2.87009 0.0209653 -2.16902e-20)
(2.67945 0.0225359 0)
(2.4756 0.0232501 0)
(2.26754 0.0245516 -2.33848e-20)