/*--------------------------------*- C++ -*----------------------------------*\
| =========                 |                                                 |
| \\      /  F ield         | OpenFOAM: The Open Source CFD Toolbox           |
|  \\    /   O peration     | Version:  2112                                  |
|   \\  /    A nd           | Website:  www.openfoam.com                      |
|    \\/     M anipulation  |                                                 |
\*---------------------------------------------------------------------------*/
FoamFile
{
    version     2.0;
    format      ascii;
    arch        "LSB;label=32;scalar=64";
    class       volScalarField;
    location    "0.1";
    object      p;
}
// * * * * * * * * * * * * * * * * * * * * * * * * * * * * * * * * * * * * * //

dimensions      [0 2 -2 0 0 0 0];

internalField   nonuniform List<scalar> 
12885
(
0.430881
-0.162492
-0.524576
-0.6969
-0.765852
-0.816675
-0.908698
-0.99237
-1.03897
-1.08926
-1.20224
-1.35455
-1.47755
-1.55263
-1.59258
-1.61708
-1.66123
-1.76755
-1.91253
-2.02157
-2.07493
-2.09805
-2.10694
-2.10951
-2.11926
-2.15238
-2.21114
-2.28061
-2.34278
-2.38703
-2.40919
-2.40819
-2.38387
-2.33471
-2.25948
-2.14616
-1.98405
-1.69967
-1.26404
-0.362464
0.159012
-0.219788
-0.521366
-0.652381
-0.689286
-0.748458
-0.85737
-0.959402
-1.01258
-1.01819
-1.00503
-1.05045
-1.17724
-1.32057
-1.43303
-1.4954
-1.50766
-1.48031
-1.46423
-1.51225
-1.60929
-1.72155
-1.8315
-1.92416
-1.9859
-2.01455
-2.02333
-2.0296
-2.04218
-2.06084
-2.0818
-2.09927
-2.10785
-2.10267
-2.08186
-2.04497
-2.00402
-1.99764
-2.16002
-2.78272
-0.07542
-0.282246
-0.521637
-0.665549
-0.745916
-0.817793
-0.908409
-0.991386
-1.03932
-1.07014
-1.12943
-1.23373
-1.35441
-1.45726
-1.52827
-1.56798
-1.59387
-1.63572
-1.70407
-1.77969
-1.8448
-1.89902
-1.9495
-1.99496
-2.03042
-2.05715
-2.08149
-2.10525
-2.12491
-2.13685
-2.14033
-2.13648
-2.12697
-2.11445
-2.10496
-2.10879
-2.14427
-2.24176
-2.42324
-2.69318
-0.271874
-0.381529
-0.564116
-0.6992
-0.779513
-0.845558
-0.925185
-1.00421
-1.06524
-1.1126
-1.15986
-1.22476
-1.31137
-1.40262
-1.482
-1.54511
-1.59518
-1.63406
-1.66594
-1.70449
-1.75653
-1.81874
-1.88526
-1.94981
-2.00671
-2.0532
-2.08891
-2.11534
-2.13503
-2.15063
-2.16384
-2.17705
-2.19358
-2.21746
-2.25114
-2.30139
-2.37689
-2.48805
-2.63975
-2.84655
-0.428378
-0.498852
-0.62799
-0.739389
-0.814636
-0.880859
-0.956626
-1.03235
-1.09386
-1.14094
-1.18812
-1.25457
-1.34115
-1.4306
-1.50855
-1.56965
-1.6148
-1.65188
-1.6948
-1.75076
-1.81501
-1.88026
-1.94299
-2.00099
-2.05124
-2.09209
-2.1254
-2.15519
-2.18419
-2.21323
-2.24266
-2.27401
-2.30959
-2.35215
-2.40442
-2.47086
-2.556
-2.66538
-2.80535
-2.98374
-0.560492
-0.604188
-0.701119
-0.78932
-0.859829
-0.925752
-0.996976
-1.06692
-1.12656
-1.17764
-1.23205
-1.3004
-1.38021
-1.45991
-1.53036
-1.58863
-1.63791
-1.6853
-1.73662
-1.79269
-1.85075
-1.90846
-1.96477
-2.01834
-2.06756
-2.11209
-2.15323
-2.19239
-2.23037
-2.26779
-2.30594
-2.34669
-2.39223
-2.44491
-2.50716
-2.58147
-2.67043
-2.77638
-2.90038
-3.03991
-0.679444
-0.694697
-0.773705
-0.846535
-0.911866
-0.97555
-1.04203
-1.10735
-1.1666
-1.22163
-1.27958
-1.3458
-1.41827
-1.49033
-1.55659
-1.61553
-1.66927
-1.72109
-1.77348
-1.82761
-1.88322
-1.93936
-1.99494
-2.04883
-2.10007
-2.14836
-2.19414
-2.23824
-2.28177
-2.32595
-2.3722
-2.42196
-2.47675
-2.53806
-2.6072
-2.68527
-2.77314
-2.87102
-2.97814
-3.09248
-0.786578
-0.780613
-0.840352
-0.906256
-0.966391
-1.02725
-1.09001
-1.15234
-1.2115
-1.26853
-1.32748
-1.39125
-1.45868
-1.52599
-1.58981
-1.64903
-1.7046
-1.75829
-1.81187
-1.86646
-1.92208
-1.97798
-2.03332
-2.08738
-2.13966
-2.19011
-2.23918
-2.28772
-2.33673
-2.38715
-2.43992
-2.49603
-2.55646
-2.62215
-2.6936
-2.77104
-2.85454
-2.94377
-3.03767
-3.13428
-0.882474
-0.86517
-0.904833
-0.964536
-1.02102
-1.07909
-1.13913
-1.19949
-1.25849
-1.31661
-1.37607
-1.43808
-1.50197
-1.56587
-1.62767
-1.68658
-1.7431
-1.79833
-1.85335
-1.90874
-1.96443
-2.02003
-2.0751
-2.12933
-2.18258
-2.23497
-2.28695
-2.33918
-2.3924
-2.44722
-2.50417
-2.56377
-2.62667
-2.69339
-2.76385
-2.83748
-2.91413
-2.99393
-3.076
-3.15826
-0.96835
-0.947334
-0.971888
-1.02057
-1.0738
-1.12936
-1.18737
-1.24641
-1.30532
-1.36428
-1.42408
-1.48492
-1.54642
-1.60776
-1.6679
-1.72642
-1.78363
-1.84009
-1.89625
-1.95229
-2.00817
-2.06372
-2.11882
-2.17341
-2.22754
-2.28137
-2.33521
-2.38954
-2.44486
-2.50151
-2.55952
-2.6188
-2.67992
-2.7438
-2.81035
-2.87849
-2.9476
-3.01747
-3.08762
-3.15711
-1.04342
-1.02583
-1.04109
-1.07741
-1.12437
-1.17646
-1.23193
-1.28941
-1.34764
-1.40658
-1.46627
-1.52636
-1.58643
-1.64622
-1.70551
-1.76392
-1.82162
-1.8788
-1.93559
-1.992
-2.04799
-2.10351
-2.1586
-2.2133
-2.2677
-2.32188
-2.37584
-2.42988
-2.48463
-2.54047
-2.59727
-2.65492
-2.71356
-2.7734
-2.83435
-2.8961
-2.95831
-3.02071
-3.08281
-3.14381
-1.10599
-1.0958
-1.10758
-1.13566
-1.17445
-1.22049
-1.27161
-1.32604
-1.38235
-1.44003
-1.49876
-1.55793
-1.61696
-1.67575
-1.73426
-1.79233
-1.84994
-1.90713
-1.96385
-2.02005
-2.0757
-2.13078
-2.18534
-2.23949
-2.29334
-2.34699
-2.40055
-2.45419
-2.5082
-2.5628
-2.61804
-2.67394
-2.73053
-2.78777
-2.84541
-2.90314
-2.96064
-3.01761
-3.07362
-3.12807
-1.16568
-1.16158
-1.17269
-1.19669
-1.22926
-1.26871
-1.31423
-1.3645
-1.41803
-1.47367
-1.53071
-1.58819
-1.64556
-1.70282
-1.75985
-1.81667
-1.87331
-1.92976
-1.9859
-2.04159
-2.09673
-2.15127
-2.20525
-2.25876
-2.31193
-2.36495
-2.41802
-2.47129
-2.52487
-2.57878
-2.63295
-2.6873
-2.74171
-2.79597
-2.84986
-2.90311
-2.95549
-3.0068
-3.05677
-3.10501
-1.23302
-1.23156
-1.2413
-1.26257
-1.29151
-1.32615
-1.36656
-1.41276
-1.46332
-1.5164
-1.57078
-1.6257
-1.68074
-1.73575
-1.79072
-1.84572
-1.90082
-1.95597
-2.01099
-2.06572
-2.12
-2.17376
-2.22701
-2.27981
-2.33228
-2.38452
-2.43664
-2.48869
-2.54064
-2.59241
-2.6439
-2.69498
-2.74551
-2.79535
-2.84433
-2.89231
-2.93914
-2.98471
-3.02886
-3.07129
-1.30696
-1.30672
-1.31514
-1.33343
-1.3592
-1.3905
-1.42677
-1.46871
-1.51586
-1.566
-1.61741
-1.66946
-1.72199
-1.77485
-1.82794
-1.88115
-1.93441
-1.98762
-2.04066
-2.09342
-2.14584
-2.19787
-2.24949
-2.30069
-2.35148
-2.40184
-2.45175
-2.50118
-2.55004
-2.59828
-2.64579
-2.69249
-2.73829
-2.78308
-2.82679
-2.86931
-2.91058
-2.95057
-2.98917
-3.02616
-1.38092
-1.38128
-1.38876
-1.40471
-1.42762
-1.45593
-1.48863
-1.52579
-1.56826
-1.61521
-1.66423
-1.71393
-1.76411
-1.81473
-1.86565
-1.91666
-1.9676
-2.01838
-2.0689
-2.1191
-2.16894
-2.21835
-2.26731
-2.31574
-2.3636
-2.41081
-2.45731
-2.50302
-2.54788
-2.59182
-2.63479
-2.67671
-2.71755
-2.75724
-2.79577
-2.83308
-2.86916
-2.90401
-2.9376
-2.96975
-1.44204
-1.44265
-1.44953
-1.46393
-1.48472
-1.51066
-1.54078
-1.57445
-1.61224
-1.65518
-1.70186
-1.74975
-1.79787
-1.84622
-1.89475
-1.94331
-1.99173
-2.03987
-2.08767
-2.13502
-2.18185
-2.22809
-2.27368
-2.31854
-2.36262
-2.40586
-2.4482
-2.48959
-2.52998
-2.56933
-2.60761
-2.6448
-2.68087
-2.71582
-2.74963
-2.7823
-2.81383
-2.84426
-2.87357
-2.90166
-1.46441
-1.46494
-1.47129
-1.48476
-1.50434
-1.52887
-1.55743
-1.58933
-1.62453
-1.66411
-1.70807
-1.75408
-1.80026
-1.84639
-1.89255
-1.93864
-1.9845
-2.02998
-2.07499
-2.11944
-2.16323
-2.20629
-2.24856
-2.28998
-2.3305
-2.37009
-2.40871
-2.44632
-2.48292
-2.51847
-2.55297
-2.5864
-2.61877
-2.65008
-2.68034
-2.70954
-2.73772
-2.76489
-2.79107
-2.81623
-1.4251
-1.42563
-1.43269
-1.44736
-1.46821
-1.49388
-1.52336
-1.55588
-1.59159
-1.6316
-1.67546
-1.72094
-1.76655
-1.8121
-1.85763
-1.90298
-1.94798
-1.99252
-2.03649
-2.07978
-2.12232
-2.16403
-2.20485
-2.24475
-2.28366
-2.32156
-2.35843
-2.39425
-2.42901
-2.4627
-2.49534
-2.52691
-2.55744
-2.58694
-2.61542
-2.6429
-2.66941
-2.69497
-2.71962
-2.74335
-1.37784
-1.37815
-1.3859
-1.40208
-1.42476
-1.45225
-1.48342
-1.5174
-1.5545
-1.59558
-1.63982
-1.68518
-1.7307
-1.77629
-1.82184
-1.86715
-1.91203
-1.95636
-2.00006
-2.04305
-2.08528
-2.12669
-2.16722
-2.20681
-2.24541
-2.28298
-2.31948
-2.3549
-2.38924
-2.42251
-2.45472
-2.48588
-2.51603
-2.54518
-2.57334
-2.60054
-2.62679
-2.65211
-2.67654
-2.70007
-1.31751
-1.31767
-1.32688
-1.34571
-1.37128
-1.40154
-1.43535
-1.47195
-1.51155
-1.55464
-1.60013
-1.64631
-1.69265
-1.73913
-1.78555
-1.8316
-1.87702
-1.92167
-1.96556
-2.00867
-2.05094
-2.09233
-2.13278
-2.17223
-2.21061
-2.24789
-2.284
-2.31895
-2.35274
-2.38538
-2.41691
-2.44735
-2.47676
-2.50515
-2.53256
-2.55901
-2.58452
-2.6091
-2.6328
-2.6556
-1.24722
-1.24708
-1.25874
-1.28137
-1.31051
-1.34377
-1.38035
-1.41986
-1.46221
-1.50721
-1.55387
-1.60106
-1.64828
-1.69556
-1.74279
-1.78956
-1.83545
-1.88036
-1.9245
-1.96797
-2.01044
-2.05167
-2.09166
-2.13048
-2.1682
-2.20484
-2.24042
-2.27493
-2.30838
-2.34076
-2.37207
-2.40231
-2.43149
-2.45963
-2.48676
-2.5129
-2.5381
-2.56238
-2.58577
-2.60836
-1.16882
-1.16715
-1.18283
-1.21071
-1.2438
-1.2797
-1.31812
-1.35919
-1.403
-1.44915
-1.49655
-1.54414
-1.5914
-1.63828
-1.68488
-1.73125
-1.77737
-1.82306
-1.86798
-1.91179
-1.95416
-1.99501
-2.03443
-2.07261
-2.10974
-2.14594
-2.18125
-2.21557
-2.24883
-2.28093
-2.31182
-2.34147
-2.36988
-2.39709
-2.42313
-2.44808
-2.47201
-2.49499
-2.5171
-2.53835
-1.0797
-1.07533
-1.09834
-1.13411
-1.17221
-1.21075
-1.2504
-1.29236
-1.33744
-1.38511
-1.43369
-1.48171
-1.52865
-1.57483
-1.62092
-1.66742
-1.71443
-1.76151
-1.80793
-1.85292
-1.89597
-1.93695
-1.97609
-2.01382
-2.05064
-2.08698
-2.12306
-2.15887
-2.19418
-2.22869
-2.26213
-2.29426
-2.32495
-2.35417
-2.38201
-2.40862
-2.4342
-2.45896
-2.48304
-2.50667
-0.975313
-0.972256
-1.00547
-1.05294
-1.09857
-1.14085
-1.18145
-1.22338
-1.26986
-1.32086
-1.37293
-1.42288
-1.46963
-1.51414
-1.55873
-1.60567
-1.65549
-1.70651
-1.75643
-1.80356
-1.84718
-1.88742
-1.92522
-1.96187
-1.99823
-2.03444
-2.0702
-2.10519
-2.13923
-2.17224
-2.20411
-2.23466
-2.26372
-2.29118
-2.31702
-2.3413
-2.36409
-2.38551
-2.40569
-2.4247
-0.8519
-0.855971
-0.907044
-0.972592
-1.02925
-1.07721
-1.11907
-1.15935
-1.2055
-1.26034
-1.31827
-1.37283
-1.42121
-1.46327
-1.50202
-1.54412
-1.59506
-1.65343
-1.71308
-1.76854
-1.81686
-1.85709
-1.89046
-1.92088
-1.95368
-1.99242
-2.03672
-2.0835
-2.12978
-2.17377
-2.21449
-2.25132
-2.28389
-2.31233
-2.33748
-2.36072
-2.38344
-2.40667
-2.43095
-2.45645
-0.704305
-0.723661
-0.81212
-0.903449
-0.972361
-1.02504
-1.06829
-1.10861
-1.15542
-1.21309
-1.27461
-1.33148
-1.38138
-1.42586
-1.46523
-1.5011
-1.5413
-1.59143
-1.64836
-1.70582
-1.75899
-1.80501
-1.84267
-1.87133
-1.8923
-1.91132
-1.93469
-1.96455
-1.99992
-2.03916
-2.08037
-2.12146
-2.16038
-2.19527
-2.2249
-2.2491
-2.26871
-2.28512
-2.29971
-2.31342
-0.520572
-0.594799
-0.736575
-0.853613
-0.934315
-0.986434
-1.02042
-1.05842
-1.11999
-1.19857
-1.27265
-1.32918
-1.36661
-1.39326
-1.42935
-1.49099
-1.57445
-1.66195
-1.73789
-1.79683
-1.83762
-1.86164
-1.87763
-1.90179
-1.94552
-2.00665
-2.07396
-2.13647
-2.18928
-2.23264
-2.26839
-2.29687
-2.31764
-2.33214
-2.34417
-2.35749
-2.37435
-2.39521
-2.41974
-2.44697
-0.298139
-0.506343
-0.695453
-0.81544
-0.902118
-0.961942
-0.991114
-0.996378
-1.0228
-1.09755
-1.1905
-1.26964
-1.32047
-1.34038
-1.3336
-1.32165
-1.35162
-1.43458
-1.53732
-1.63521
-1.71311
-1.75774
-1.76349
-1.73759
-1.70107
-1.69
-1.72174
-1.78192
-1.85476
-1.93207
-2.0098
-2.08243
-2.14049
-2.17628
-2.18966
-2.18727
-2.17844
-2.1707
-2.16924
-2.17635
-0.0149899
-0.443126
-0.717538
-0.83987
-0.909683
-0.954176
-0.985
-1.03587
-1.1196
-1.21131
-1.28538
-1.33436
-1.36128
-1.3823
-1.43174
-1.53328
-1.65667
-1.7589
-1.82982
-1.87278
-1.89226
-1.89495
-1.89778
-1.9312
-2.01708
-2.13232
-2.23647
-2.31296
-2.362
-2.39094
-2.40543
-2.4067
-2.39735
-2.38524
-2.38101
-2.3924
-2.42099
-2.46415
-2.51702
-2.57324
-5.10359
-5.10234
-5.1019
-5.10146
-5.10088
-5.10022
-5.09949
-5.09868
-5.09774
-5.09643
-5.09461
-5.09292
-5.09189
-5.09121
-5.0907
-5.09037
-5.09028
-5.09042
-5.09082
-5.09145
-5.09227
-5.09324
-5.09429
-5.09533
-5.09626
-5.09698
-5.09736
-5.0973
-5.09672
-5.09557
-5.09381
-5.09147
-5.08859
-5.08466
-5.0803
-5.07667
-5.07362
-5.07119
-5.06964
-5.06938
-5.07134
-5.07566
-5.08204
-5.09043
-5.10018
-5.11182
-5.12585
-5.14209
-5.16196
-5.18686
-5.21801
-5.25624
-5.30163
-5.3536
-5.41094
-5.47202
-5.53503
-5.59822
-5.66005
-5.71919
-5.77458
-5.8254
-5.871
-5.9109
-5.9447
-5.97211
-5.99289
-6.00685
-6.01384
-6.01373
-6.00641
-5.9918
-5.96981
-5.94038
-5.90345
-5.85898
-5.80692
-5.74724
-5.67991
-5.60491
-5.52222
-5.43184
-5.33377
-5.22803
-5.11465
-4.99366
-4.86512
-4.7291
-4.58565
-4.43487
-4.27682
-4.11162
-3.93935
-3.76006
-3.57391
-3.38104
-3.18154
-2.97556
-2.76325
-2.54477
-2.32029
-2.08998
-1.85403
-1.61263
-1.36598
-1.11429
-0.857763
-0.596625
-0.331094
-0.0613975
0.212235
0.489568
0.770365
1.05439
1.34139
1.63113
1.92335
2.21781
2.51427
2.81247
3.11215
3.41307
3.71496
4.01756
4.32062
4.62378
4.9268
5.2294
5.53119
5.83186
6.13104
6.42841
6.72366
7.01655
7.30695
7.59486
7.88039
8.16363
8.44453
8.72268
8.99724
9.26704
9.53058
9.78652
10.0317
10.2483
10.4212
10.6368
10.907
11.141
11.344
11.5383
11.7261
11.908
12.0845
12.256
12.4229
12.5854
12.7438
12.8984
13.0494
13.1971
13.3415
13.4831
13.622
13.7585
13.8928
14.025
14.1554
14.2841
14.4115
14.537
14.6624
14.785
14.911
15.0297
15.1657
15.2751
15.4561
15.5496
-5.10507
-5.10379
-5.10355
-5.10333
-5.10299
-5.10257
-5.10209
-5.10156
-5.10099
-5.10048
-5.1003
-5.10024
-5.09989
-5.09934
-5.09879
-5.0983
-5.0979
-5.09761
-5.09742
-5.09734
-5.09734
-5.09741
-5.09749
-5.09751
-5.0974
-5.09706
-5.09643
-5.09541
-5.09393
-5.09195
-5.08947
-5.08655
-5.08334
-5.08029
-5.0773
-5.07418
-5.07147
-5.06948
-5.06846
-5.06863
-5.07008
-5.07317
-5.07829
-5.08528
-5.09386
-5.10464
-5.11811
-5.13386
-5.15316
-5.17738
-5.20784
-5.24545
-5.29046
-5.34231
-5.39976
-5.46113
-5.52454
-5.58821
-5.65054
-5.71018
-5.76607
-5.81735
-5.86339
-5.90369
-5.93786
-5.96562
-5.98673
-6.001
-6.00827
-6.00843
-6.00137
-5.987
-5.96525
-5.93605
-5.89935
-5.8551
-5.80326
-5.7438
-5.67668
-5.60189
-5.51941
-5.42924
-5.33138
-5.22586
-5.11268
-4.99191
-4.86359
-4.72778
-4.58455
-4.43398
-4.27615
-4.11115
-3.93905
-3.76006
-3.57418
-3.38153
-3.18227
-2.97653
-2.76448
-2.54626
-2.32205
-2.09201
-1.85635
-1.61524
-1.3689
-1.11752
-0.861328
-0.600532
-0.335359
-0.0660369
0.207201
0.484118
0.764472
1.04802
1.33451
1.6237
1.91534
2.20915
2.50489
2.8023
3.1011
3.40103
3.70179
4.0031
4.30464
4.6061
4.90713
5.20733
5.50631
5.80362
6.09878
6.3913
6.68065
6.96635
7.24796
7.52513
7.79767
8.06552
8.32873
8.58748
8.84186
9.09191
9.33729
9.57725
9.80962
10.0382
10.2607
10.4899
10.7234
10.9534
11.1775
11.3922
11.5985
11.7972
11.9888
12.1736
12.3519
12.5242
12.6909
12.8523
13.009
13.1613
13.3096
13.4544
13.5959
13.7347
13.8708
14.0047
14.1366
14.2665
14.3951
14.5216
14.6481
14.7716
14.8989
15.0183
15.1566
15.2663
15.4532
15.5453
-5.10553
-5.10398
-5.10369
-5.10347
-5.10313
-5.10271
-5.10225
-5.10175
-5.10123
-5.10074
-5.10039
-5.10016
-5.09991
-5.09964
-5.09937
-5.09913
-5.09893
-5.09879
-5.09869
-5.09864
-5.09862
-5.0986
-5.09854
-5.09839
-5.09807
-5.09751
-5.09665
-5.09541
-5.09375
-5.09165
-5.08911
-5.08622
-5.0831
-5.07999
-5.0768
-5.07365
-5.07096
-5.06899
-5.06801
-5.06824
-5.06981
-5.0729
-5.07771
-5.08418
-5.09213
-5.10228
-5.11523
-5.13055
-5.1495
-5.17343
-5.20366
-5.24113
-5.2861
-5.33798
-5.39552
-5.45702
-5.52057
-5.58438
-5.64684
-5.70661
-5.7626
-5.81399
-5.86013
-5.90052
-5.93479
-5.96265
-5.98384
-5.9982
-6.00557
-6.00583
-5.99886
-5.9846
-5.96295
-5.93385
-5.89726
-5.85312
-5.8014
-5.74205
-5.67506
-5.60039
-5.51805
-5.42801
-5.3303
-5.22491
-5.11189
-4.99126
-4.86309
-4.72744
-4.58437
-4.43397
-4.27631
-4.11148
-3.93961
-3.76073
-3.57502
-3.38257
-3.18351
-2.97797
-2.76612
-2.54811
-2.3241
-2.09428
-1.85883
-1.61795
-1.37183
-1.12068
-0.864722
-0.604164
-0.339233
-0.0701596
0.202824
0.47948
0.759566
1.04284
1.32904
1.61793
1.90925
2.20274
2.49813
2.79517
3.09356
3.39304
3.69332
3.99409
4.29501
4.59577
4.89598
5.19522
5.49305
5.78899
6.08248
6.37295
6.65978
6.94237
7.22012
7.49254
7.7593
8.02026
8.27555
8.5256
8.77107
9.01281
9.25153
9.48793
9.72253
9.96725
10.2224
10.454
10.6627
10.8806
11.106
11.3259
11.5389
11.7446
11.9428
12.1337
12.3174
12.4944
12.6649
12.8297
12.989
13.1435
13.2937
13.4399
13.5827
13.7224
13.8594
13.9939
14.1264
14.2568
14.3858
14.5127
14.6397
14.7634
14.8914
15.0109
15.1505
15.2603
15.4492
15.5383
-5.10629
-5.10445
-5.10411
-5.10388
-5.10353
-5.1031
-5.10264
-5.10215
-5.10165
-5.10117
-5.10073
-5.10038
-5.10006
-5.09978
-5.09955
-5.09937
-5.09925
-5.0992
-5.0992
-5.09924
-5.09929
-5.09932
-5.09928
-5.09911
-5.09875
-5.09812
-5.09715
-5.0958
-5.09401
-5.09177
-5.08911
-5.0861
-5.08286
-5.07956
-5.07621
-5.07301
-5.07029
-5.06831
-5.06736
-5.06768
-5.0694
-5.07265
-5.07748
-5.08378
-5.09135
-5.1009
-5.11318
-5.12796
-5.14654
-5.17031
-5.20054
-5.23813
-5.2833
-5.33544
-5.39322
-5.45491
-5.5186
-5.58249
-5.64499
-5.70477
-5.76075
-5.81212
-5.85824
-5.89862
-5.93288
-5.96073
-5.98193
-5.99631
-6.00371
-6.004
-5.99708
-5.98286
-5.96128
-5.93226
-5.89574
-5.8517
-5.80007
-5.74083
-5.67395
-5.59941
-5.5172
-5.42731
-5.32974
-5.22451
-5.11164
-4.99119
-4.8632
-4.72773
-4.58485
-4.43464
-4.27719
-4.11258
-3.9409
-3.76226
-3.57677
-3.38456
-3.18574
-2.98046
-2.76886
-2.55111
-2.32736
-2.09781
-1.86263
-1.62202
-1.37618
-1.12531
-0.869627
-0.609353
-0.344709
-0.0759232
0.19677
0.473134
0.752925
1.0359
1.32181
1.61039
1.90141
2.19459
2.48966
2.78637
3.08443
3.38357
3.68349
3.98388
4.28442
4.58477
4.88454
5.18334
5.48071
5.77617
6.06919
6.3592
6.64564
6.92792
7.20555
7.47811
7.74537
8.00729
8.26406
8.51609
8.76396
9.00833
9.24979
9.48906
9.72686
9.97247
10.2255
10.456
10.6657
10.8819
11.1037
11.3211
11.5322
11.7365
11.9338
12.124
12.3073
12.4841
12.6546
12.8194
12.9789
13.1336
13.2839
13.4303
13.5732
13.7131
13.8502
13.9848
14.1173
14.2478
14.3769
14.5039
14.631
14.7549
14.8832
15.0028
15.143
15.253
15.4422
15.5285
-5.1073
-5.10513
-5.10473
-5.10449
-5.10412
-5.10369
-5.10322
-5.10274
-5.10226
-5.1018
-5.10137
-5.101
-5.10068
-5.10041
-5.10021
-5.10008
-5.10002
-5.10003
-5.10009
-5.10019
-5.10028
-5.10033
-5.10028
-5.10008
-5.09964
-5.09891
-5.09781
-5.0963
-5.09434
-5.09191
-5.08906
-5.08585
-5.0824
-5.07888
-5.07537
-5.07207
-5.06928
-5.06727
-5.06635
-5.06678
-5.06867
-5.07205
-5.07687
-5.08294
-5.09004
-5.09889
-5.11041
-5.12458
-5.14283
-5.16656
-5.197
-5.23495
-5.28054
-5.33307
-5.39117
-5.45306
-5.51685
-5.58074
-5.64317
-5.70283
-5.75869
-5.80993
-5.85593
-5.8962
-5.93038
-5.95818
-5.97934
-5.99371
-6.00111
-6.00143
-5.99456
-5.98041
-5.95891
-5.92998
-5.89359
-5.84967
-5.79819
-5.73912
-5.67242
-5.59808
-5.51607
-5.42639
-5.32906
-5.22407
-5.11146
-4.99127
-4.86355
-4.72837
-4.58578
-4.43588
-4.27874
-4.11445
-3.94311
-3.76482
-3.57968
-3.38783
-3.18937
-2.98446
-2.77323
-2.55586
-2.3325
-2.10333
-1.86854
-1.62832
-1.38287
-1.13239
-0.877109
-0.617229
-0.352979
-0.0845863
0.187715
0.463687
0.743088
1.02567
1.31119
1.59939
1.89002
2.18281
2.47749
2.77381
3.07148
3.37021
3.66972
3.9697
4.26981
4.56973
4.86907
5.16743
5.46438
5.75945
6.05213
6.34191
6.62824
6.91065
7.18872
7.46216
7.73085
7.99486
8.25442
8.50985
8.76151
9.00976
9.25479
9.49705
9.73689
9.98058
10.2272
10.4565
10.67
10.8863
11.105
11.3192
11.5276
11.7296
11.925
12.1138
12.2961
12.4721
12.6422
12.8067
12.9661
13.1208
13.2711
13.4176
13.5607
13.7006
13.8378
13.9725
14.1051
14.2357
14.3649
14.492
14.6192
14.7432
14.8718
14.9916
15.1323
15.2427
15.4311
15.5152
-5.10859
-5.106
-5.10552
-5.10525
-5.10486
-5.10439
-5.10391
-5.10343
-5.10296
-5.10251
-5.10211
-5.10175
-5.10146
-5.10124
-5.10109
-5.10103
-5.10104
-5.10112
-5.10125
-5.1014
-5.10154
-5.1016
-5.10154
-5.10129
-5.10078
-5.09993
-5.0987
-5.09702
-5.09485
-5.09221
-5.08912
-5.08566
-5.08194
-5.07813
-5.07438
-5.07089
-5.06794
-5.06584
-5.06494
-5.06548
-5.06755
-5.07106
-5.07582
-5.08156
-5.08808
-5.09615
-5.10687
-5.12049
-5.13856
-5.16251
-5.19349
-5.23216
-5.27845
-5.33155
-5.39001
-5.45205
-5.51579
-5.5795
-5.64166
-5.70102
-5.75656
-5.8075
-5.85323
-5.89328
-5.92728
-5.95493
-5.97601
-5.99031
-5.9977
-5.99803
-5.99121
-5.97714
-5.95575
-5.92696
-5.89073
-5.847
-5.79573
-5.73689
-5.67045
-5.59638
-5.51467
-5.42531
-5.3283
-5.22366
-5.11141
-4.9916
-4.86427
-4.72948
-4.58731
-4.43783
-4.28113
-4.11729
-3.94641
-3.76858
-3.58392
-3.39255
-3.19459
-2.99017
-2.77944
-2.56257
-2.33971
-2.11105
-1.87677
-1.63705
-1.39211
-1.14214
-0.887355
-0.627974
-0.364219
-0.0963185
0.175495
0.450984
0.729907
1.01202
1.29707
1.5848
1.87497
2.1673
2.46153
2.75738
3.0546
3.35287
3.65192
3.95144
4.2511
4.55056
4.84945
5.14737
5.44392
5.73864
6.03105
6.32067
6.60703
6.88969
7.16832
7.44273
7.71286
7.97884
8.24088
8.49922
8.75402
9.00534
9.25311
9.49753
9.73869
9.98109
10.2238
10.452
10.6669
10.8823
11.0984
11.31
11.5161
11.7162
11.9101
12.0978
12.2794
12.4549
12.6248
12.7893
12.9488
13.1037
13.2542
13.401
13.5442
13.6843
13.8217
13.9566
14.0893
14.22
14.3493
14.4765
14.6039
14.728
14.8569
14.977
15.1179
15.2289
15.4154
15.4978
-5.11038
-5.107
-5.10645
-5.10617
-5.10574
-5.10525
-5.10475
-5.10426
-5.1038
-5.10337
-5.10299
-5.10267
-5.10242
-5.10226
-5.10219
-5.1022
-5.1023
-5.10246
-5.10266
-5.10288
-5.10305
-5.10314
-5.10308
-5.10279
-5.10222
-5.10127
-5.0999
-5.09805
-5.09569
-5.09281
-5.08944
-5.08567
-5.08162
-5.07744
-5.07333
-5.06952
-5.0663
-5.06402
-5.06308
-5.06373
-5.06599
-5.06962
-5.07428
-5.07963
-5.08553
-5.09279
-5.10281
-5.11609
-5.13432
-5.15895
-5.19097
-5.23077
-5.27806
-5.33188
-5.3907
-5.45275
-5.51624
-5.57951
-5.64114
-5.69993
-5.75491
-5.80535
-5.85064
-5.89031
-5.924
-5.95142
-5.97232
-5.98652
-5.99385
-5.99418
-5.9874
-5.97342
-5.95215
-5.92353
-5.8875
-5.844
-5.793
-5.73446
-5.66834
-5.59462
-5.51329
-5.42433
-5.32775
-5.22355
-5.11176
-4.99242
-4.86558
-4.73129
-4.58964
-4.44069
-4.28453
-4.12124
-3.95093
-3.77368
-3.58961
-3.39882
-3.20146
-2.99764
-2.78752
-2.57125
-2.349
-2.12094
-1.88726
-1.64814
-1.4038
-1.15442
-0.90022
-0.641421
-0.378242
-0.11091
0.160341
0.435276
0.713653
0.995226
1.27975
1.56696
1.85661
2.14843
2.44215
2.73751
3.03423
3.33203
3.6306
3.92965
4.22885
4.52787
4.82635
5.12391
5.42015
5.71464
6.00696
6.29664
6.58329
6.86652
7.14608
7.42181
7.69371
7.9619
8.22653
8.4877
8.74537
8.99938
9.24943
9.49551
9.73761
9.979
10.2188
10.4457
10.6606
10.8745
11.0878
11.2967
11.5006
11.6988
11.8912
12.0778
12.2587
12.4339
12.6036
12.7682
12.9278
13.0829
13.2337
13.3807
13.5243
13.6646
13.8022
13.9373
14.0702
14.201
14.3305
14.4579
14.5853
14.7097
14.8387
14.9593
15.0999
15.2117
15.3949
15.4755
-5.1128
-5.10806
-5.10746
-5.10722
-5.1068
-5.10629
-5.10578
-5.10531
-5.10487
-5.10448
-5.10415
-5.10389
-5.10372
-5.10364
-5.10366
-5.10377
-5.10396
-5.10421
-5.10449
-5.10477
-5.10499
-5.1051
-5.10503
-5.10471
-5.10407
-5.10303
-5.10152
-5.0995
-5.09693
-5.09379
-5.09012
-5.08599
-5.08152
-5.07689
-5.0723
-5.06802
-5.06439
-5.06182
-5.06079
-5.06153
-5.06396
-5.06766
-5.07215
-5.07706
-5.08232
-5.08892
-5.0985
-5.11188
-5.13091
-5.15686
-5.1905
-5.23185
-5.28037
-5.33493
-5.394
-5.45585
-5.51882
-5.58137
-5.64217
-5.70012
-5.75431
-5.80402
-5.84867
-5.88781
-5.92107
-5.94815
-5.9688
-5.98282
-5.99005
-5.99035
-5.9836
-5.96971
-5.94858
-5.92014
-5.88434
-5.84111
-5.79042
-5.73223
-5.66649
-5.59319
-5.5123
-5.42382
-5.32773
-5.22404
-5.11279
-4.994
-4.86772
-4.73402
-4.59296
-4.44463
-4.2891
-4.12645
-3.95679
-3.7802
-3.5968
-3.40669
-3.21
-3.00687
-2.79743
-2.58184
-2.36028
-2.1329
-1.89989
-1.66145
-1.41777
-1.16905
-0.91551
-0.657357
-0.394815
-0.128111
0.142522
0.416848
0.694627
0.975613
1.25955
1.5462
1.83529
2.12657
2.41976
2.7146
3.01081
3.30811
3.60621
3.90479
4.20356
4.50219
4.80032
5.09761
5.39368
5.68813
5.98057
6.27061
6.55789
6.84211
7.12305
7.40059
7.67474
7.94556
8.21309
8.47726
8.73783
8.9944
9.24648
9.49391
9.73656
9.97672
10.2136
10.4389
10.6532
10.8652
11.0755
11.2816
11.4829
11.6789
11.8697
12.0551
12.235
12.4097
12.5792
12.7437
12.9035
13.0587
13.2099
13.3572
13.501
13.6417
13.7795
13.9148
14.048
14.179
14.3085
14.4361
14.5637
14.6883
14.8172
14.9384
15.0782
15.1909
15.3692
15.4483
-5.11515
-5.10955
-5.10874
-5.10853
-5.10813
-5.10763
-5.10715
-5.10671
-5.10632
-5.106
-5.10576
-5.1056
-5.10554
-5.10557
-5.10571
-5.10593
-5.10622
-5.10657
-5.10693
-5.10726
-5.10752
-5.10764
-5.10755
-5.10718
-5.10646
-5.10532
-5.10367
-5.10146
-5.09866
-5.09525
-5.09124
-5.08671
-5.08176
-5.07659
-5.0714
-5.06653
-5.06234
-5.05939
-5.05818
-5.05896
-5.06148
-5.06514
-5.06936
-5.07381
-5.07853
-5.08477
-5.09448
-5.10872
-5.12935
-5.1574
-5.19323
-5.23647
-5.28632
-5.34153
-5.40063
-5.462
-5.52414
-5.58567
-5.64537
-5.7022
-5.75535
-5.80412
-5.84795
-5.8864
-5.9191
-5.94573
-5.96604
-5.97982
-5.9869
-5.98713
-5.98038
-5.96655
-5.94555
-5.9173
-5.88174
-5.8388
-5.78845
-5.73063
-5.66531
-5.59247
-5.51207
-5.4241
-5.32856
-5.22544
-5.11478
-4.9966
-4.87095
-4.73788
-4.59749
-4.44983
-4.29498
-4.13304
-3.96409
-3.78823
-3.60555
-3.41618
-3.22024
-3.01784
-2.80915
-2.5943
-2.37347
-2.14683
-1.91455
-1.67684
-1.43387
-1.18586
-0.933021
-0.675559
-0.413698
-0.147665
0.12231
0.39599
0.673135
0.9535
1.23683
1.52289
1.8114
2.10211
2.39476
2.68907
2.98476
3.28157
3.5792
3.87736
4.17574
4.47403
4.77192
5.06905
5.36509
5.65969
5.9525
6.24318
6.53144
6.81702
7.09976
7.37954
7.65634
7.93013
8.2008
8.46807
8.7315
8.99047
9.24433
9.49276
9.73556
9.97425
10.2082
10.4315
10.6448
10.8546
11.0618
11.2648
11.4633
11.657
11.8459
12.0297
12.2087
12.3827
12.5518
12.7161
12.8759
13.0314
13.1828
13.3304
13.4746
13.6156
13.7537
13.8893
14.0227
14.1539
14.2836
14.4114
14.5391
14.664
14.7927
14.9145
15.0528
15.1666
15.3384
15.4159
-5.11724
-5.11161
-5.11056
-5.11032
-5.10994
-5.10947
-5.10903
-5.10865
-5.10835
-5.10814
-5.10801
-5.10798
-5.10806
-5.10823
-5.10851
-5.10886
-5.10927
-5.10971
-5.11014
-5.11052
-5.11079
-5.1109
-5.11077
-5.11034
-5.10952
-5.10824
-5.10643
-5.10402
-5.10098
-5.09727
-5.0929
-5.08793
-5.08247
-5.07668
-5.07082
-5.06523
-5.06041
-5.057
-5.05556
-5.05627
-5.05873
-5.06219
-5.06603
-5.07005
-5.0745
-5.08095
-5.09166
-5.10779
-5.13095
-5.16184
-5.20025
-5.24552
-5.29664
-5.35232
-5.41117
-5.47178
-5.5328
-5.59302
-5.65134
-5.70682
-5.75869
-5.80632
-5.84916
-5.88677
-5.91877
-5.94484
-5.96471
-5.97817
-5.98503
-5.98513
-5.97834
-5.96455
-5.94365
-5.91557
-5.88024
-5.83759
-5.78757
-5.73014
-5.66525
-5.59288
-5.513
-5.42557
-5.33061
-5.22809
-5.11804
-5.0005
-4.8755
-4.74312
-4.60341
-4.45646
-4.30234
-4.14114
-3.97294
-3.79784
-3.61593
-3.42733
-3.23216
-3.03055
-2.82263
-2.60856
-2.3885
-2.16262
-1.9311
-1.69414
-1.45192
-1.20464
-0.952525
-0.695778
-0.43462
-0.169278
0.100019
0.373035
0.64953
0.92926
1.21198
1.49743
1.78535
2.0755
2.3676
2.66138
2.95659
3.25293
3.55013
3.84791
4.14597
4.44402
4.74175
5.03887
5.33505
5.63
5.92342
6.21502
6.50456
6.79183
7.07669
7.35902
7.63872
7.91564
8.18951
8.45984
8.72596
8.98708
9.24241
9.49151
9.7341
9.97115
10.2022
10.4234
10.6353
10.8427
11.0468
11.2466
11.4422
11.6333
11.8201
12.0023
12.18
12.3531
12.5217
12.6858
12.8456
13.0012
13.1528
13.3007
13.4452
13.5866
13.7251
13.861
13.9946
14.1261
14.256
14.3841
14.5117
14.637
14.7653
14.8876
15.0238
15.1386
15.3028
15.3785
-5.11954
-5.11406
-5.11285
-5.11261
-5.11227
-5.11186
-5.11151
-5.11124
-5.11106
-5.11098
-5.111
-5.11114
-5.11138
-5.11171
-5.11213
-5.11261
-5.11313
-5.11366
-5.11415
-5.11455
-5.11483
-5.1149
-5.11471
-5.11418
-5.11323
-5.11181
-5.10983
-5.10721
-5.10391
-5.0999
-5.09516
-5.08975
-5.08376
-5.07735
-5.07078
-5.06447
-5.05902
-5.05514
-5.05341
-5.05391
-5.05608
-5.05915
-5.06258
-5.06636
-5.07104
-5.07856
-5.09138
-5.11051
-5.13709
-5.17128
-5.21244
-5.25965
-5.31179
-5.36765
-5.42599
-5.48557
-5.54523
-5.60389
-5.6606
-5.71452
-5.76494
-5.81126
-5.85296
-5.88959
-5.92076
-5.94616
-5.9655
-5.97855
-5.98511
-5.98502
-5.97813
-5.96432
-5.94349
-5.91554
-5.88041
-5.83803
-5.78833
-5.73127
-5.66681
-5.59491
-5.51554
-5.42866
-5.33427
-5.23235
-5.12293
-5.00602
-4.88169
-4.74999
-4.61097
-4.46474
-4.31135
-4.1509
-3.98346
-3.80913
-3.628
-3.44018
-3.24579
-3.04496
-2.83782
-2.62453
-2.40524
-2.18013
-1.94937
-1.71316
-1.47169
-1.22515
-0.973756
-0.717721
-0.457264
-0.192609
0.0760147
0.348373
0.624226
0.90333
1.18544
1.4703
1.75766
2.04726
2.33884
2.63214
2.92688
3.22281
3.51964
3.81711
4.11494
4.41286
4.71057
5.00782
5.30432
5.59982
5.89406
6.18683
6.4779
6.76711
7.05431
7.33936
7.62204
7.90209
8.17904
8.45222
8.72076
8.98372
9.2402
9.48965
9.73178
9.96715
10.1955
10.4145
10.6247
10.8296
11.0306
11.2273
11.4199
11.6085
11.7929
11.9733
12.1496
12.3217
12.4896
12.6533
12.8129
12.9686
13.1204
13.2686
13.4134
13.5551
13.694
13.8302
13.9642
14.0959
14.226
14.3543
14.482
14.6075
14.7352
14.8579
14.9916
15.107
15.2627
15.3365
-5.12174
-5.11664
-5.1154
-5.11521
-5.11497
-5.11468
-5.11445
-5.11432
-5.11431
-5.1144
-5.11461
-5.11492
-5.11533
-5.11583
-5.11639
-5.11699
-5.11761
-5.11821
-5.11874
-5.11916
-5.11942
-5.11945
-5.11918
-5.11856
-5.11751
-5.11592
-5.11375
-5.11093
-5.10739
-5.1031
-5.09803
-5.09222
-5.08575
-5.07877
-5.0716
-5.06469
-5.05871
-5.05443
-5.05239
-5.05251
-5.0542
-5.05677
-5.05991
-5.06388
-5.06955
-5.07919
-5.09527
-5.11831
-5.14884
-5.18642
-5.23016
-5.279
-5.33184
-5.3876
-5.44518
-5.50352
-5.56162
-5.61856
-5.67352
-5.72575
-5.77459
-5.81949
-5.85993
-5.89548
-5.92574
-5.95038
-5.9691
-5.98165
-5.98784
-5.98748
-5.98043
-5.96654
-5.94572
-5.91786
-5.88289
-5.84072
-5.7913
-5.73459
-5.67052
-5.59907
-5.52017
-5.43382
-5.33998
-5.23864
-5.12981
-5.01352
-4.88981
-4.75876
-4.62043
-4.47488
-4.32221
-4.16248
-3.99578
-3.8222
-3.64182
-3.45476
-3.26113
-3.06105
-2.85467
-2.64212
-2.42358
-2.19921
-1.96918
-1.73369
-1.49293
-1.2471
-0.996398
-0.741045
-0.481257
-0.217257
0.0507266
0.32246
0.597706
0.876222
1.15776
1.44207
1.72891
2.01801
2.30912
2.60198
2.89634
3.19192
3.48846
3.78572
4.08342
4.38132
4.67916
4.97669
5.27368
5.56992
5.86518
6.15929
6.45207
6.74335
7.03298
7.32074
7.60633
7.88931
8.16907
8.44476
8.71536
8.97981
9.23713
9.48669
9.7282
9.96197
10.1879
10.4047
10.6131
10.8157
11.0137
11.2075
11.3972
11.5831
11.7652
11.9437
12.1184
12.2893
12.4563
12.6195
12.7788
12.9344
13.0863
13.2347
13.3798
13.5218
13.661
13.7975
13.9318
14.0638