/*--------------------------------*- C++ -*----------------------------------*\
| =========                 |                                                 |
| \\      /  F ield         | OpenFOAM: The Open Source CFD Toolbox           |
|  \\    /   O peration     | Version:  2112                                  |
|   \\  /    A nd           | Website:  www.openfoam.com                      |
|    \\/     M anipulation  |                                                 |
\*---------------------------------------------------------------------------*/
FoamFile
{
    version     2.0;
    format      ascii;
    arch        "LSB;label=32;scalar=64";
    class       volVectorField;
    location    "0.1";
    object      U_0;
}
// * * * * * * * * * * * * * * * * * * * * * * * * * * * * * * * * * * * * * //

dimensions      [0 1 -1 0 0 0 0];

internalField   nonuniform List<vector> 
12885
(
(9.89435 0.0393296 0)
(9.7202 0.0595695 0)
(9.53591 0.0681038 0)
(9.34538 0.0858348 0)
(9.14878 0.101283 0)
(8.93928 0.101599 0)
(8.74568 0.0870382 0)
(8.57937 0.0680072 0)
(8.43118 0.0653641 0)
(8.27157 0.097271 0)
(8.08152 0.141307 0)
(7.88574 0.154958 0)
(7.71212 0.136035 0)
(7.57032 0.104983 0)
(7.46122 0.0727755 0)
(7.37842 0.0505424 0)
(7.30581 0.0566805 0)
(7.22683 0.0912727 0)
(7.14193 0.119315 0)
(7.06273 0.120159 0)
(6.99638 0.104727 0)
(6.94291 0.0838637 0)
(6.89886 0.0615208 0)
(6.86312 0.0401197 0)
(6.8345 0.0274857 0)
(6.80935 0.0294953 0)
(6.78322 0.0414696 0)
(6.75486 0.0544131 0)
(6.72568 0.062534 0)
(6.69827 0.0644614 0)
(6.67376 0.0613572 0)
(6.65224 0.0554478 0)
(6.63233 0.0485435 0)
(6.61347 0.0423524 0)
(6.59192 0.0385071 0)
(6.56934 0.0383463 0)
(6.52936 0.0467133 0)
(6.48954 0.0546624 0)
(6.36381 0.149125 0)
(6.30727 0.166829 0)
(10.0113 0.0406038 0)
(10.051 0.0682231 0)
(10.0748 0.0684862 0)
(10.0808 0.0593439 0)
(10.0756 0.0559346 0)
(10.0655 0.0604134 0)
(10.0502 0.0639063 0)
(10.0228 0.0662713 0)
(9.98148 0.0704839 0)
(9.93542 0.0710002 0)
(9.88759 0.0630305 0)
(9.82882 0.0531714 0)
(9.7552 0.0473108 0)
(9.67216 0.0440167 0)
(9.58606 0.0431629 0)
(9.49633 0.0459975 0)
(9.40348 0.0456996 0)
(9.31001 0.033772 0)
(9.21271 0.015646 0)
(9.1082 0.00294366 0)
(8.99481 -0.000215911 0)
(8.87858 0.00381596 0)
(8.76624 0.0107098 0)
(8.66137 0.0175128 0)
(8.56343 0.0216588 0)
(8.47306 0.021343 0)
(8.39047 0.0168817 0)
(8.3159 0.0102193 0)
(8.2466 0.0034504 0)
(8.18118 -0.0014492 0)
(8.11798 -0.00339622 0)
(8.05744 -0.00186784 0)
(7.99879 0.00258353 0)
(7.94331 0.00959703 0)
(7.88929 0.0188587 0)
(7.83885 0.0317545 0)
(7.7882 0.0510852 0)
(7.75077 0.0833853 0)
(7.72608 0.139137 0)
(7.77495 0.252379 0)
(10.0083 0.0308139 0)
(10.0303 0.0540779 0)
(10.05 0.0592224 0)
(10.0619 0.0635549 0)
(10.0694 0.0721336 0)
(10.0769 0.0799813 0)
(10.0842 0.0825689 0)
(10.0855 0.0811076 0)
(10.08 0.0828172 0)
(10.0765 0.0972783 0)
(10.0823 0.121807 0)
(10.0934 0.140365 0)
(10.1013 0.144222 0)
(10.1006 0.137291 0)
(10.0898 0.125844 0)
(10.0708 0.115745 0)
(10.0507 0.116523 0)
(10.0359 0.133863 0)
(10.024 0.15834 0)
(10.007 0.176444 0)
(9.98205 0.183766 0)
(9.94975 0.181356 0)
(9.91271 0.172066 0)
(9.87155 0.158848 0)
(9.82811 0.145836 0)
(9.78435 0.137117 0)
(9.74227 0.134414 0)
(9.70012 0.135928 0)
(9.65609 0.139066 0)
(9.60791 0.141634 0)
(9.55488 0.142741 0)
(9.49629 0.142216 0)
(9.43265 0.141057 0)
(9.36474 0.140571 0)
(9.29451 0.142161 0)
(9.2236 0.147235 0)
(9.15616 0.157116 0)
(9.09381 0.173819 0)
(9.04373 0.193925 0)
(8.99921 0.215478 0)
(10.0055 0.0251603 0)
(10.0223 0.047147 0)
(10.0374 0.0557467 0)
(10.0477 0.0610273 0)
(10.0548 0.0666627 0)
(10.0616 0.0720451 0)
(10.0686 0.0755991 0)
(10.0735 0.0784408 0)
(10.075 0.0841746 0)
(10.0765 0.0935752 0)
(10.0826 0.10214 0)
(10.0942 0.105645 0)
(10.1072 0.104329 0)
(10.1167 0.101023 0)
(10.1209 0.0989525 0)
(10.1206 0.100742 0)
(10.1172 0.105882 0)
(10.1132 0.110884 0)
(10.112 0.113672 0)
(10.1149 0.115082 0)
(10.1209 0.11663 0)
(10.1275 0.118284 0)
(10.133 0.119243 0)
(10.1358 0.119525 0)
(10.1352 0.120249 0)
(10.1311 0.121923 0)
(10.1242 0.124104 0)
(10.1152 0.126373 0)
(10.1055 0.129088 0)
(10.0951 0.132729 0)
(10.0846 0.137875 0)
(10.0733 0.144584 0)
(10.0622 0.153074 0)
(10.0499 0.163184 0)
(10.0377 0.174974 0)
(10.0238 0.188183 0)
(10.0118 0.202662 0)
(9.99877 0.21731 0)
(9.99089 0.230649 0)
(9.98207 0.240912 0)
(10.0036 0.0204983 0)
(10.0175 0.041894 0)
(10.0297 0.0514578 0)
(10.0389 0.0574483 0)
(10.0459 0.0630999 0)
(10.0525 0.0685864 0)
(10.0592 0.0730577 0)
(10.0645 0.0770118 0)
(10.0679 0.0820517 0)
(10.0715 0.088925 0)
(10.0781 0.0962353 0)
(10.0883 0.101497 0)
(10.0991 0.103654 0)
(10.1074 0.103731 0)
(10.1124 0.10351 0)
(10.1142 0.104323 0)
(10.1144 0.106792 0)
(10.1156 0.111379 0)
(10.1196 0.117562 0)
(10.1263 0.123689 0)
(10.1341 0.128399 0)
(10.1419 0.131238 0)
(10.1489 0.132275 0)
(10.1544 0.132094 0)
(10.1578 0.131514 0)
(10.1591 0.131411 0)
(10.1594 0.132476 0)
(10.1595 0.135078 0)
(10.1597 0.139149 0)
(10.1601 0.144491 0)
(10.1608 0.150841 0)
(10.162 0.158075 0)
(10.1639 0.165972 0)
(10.1666 0.174394 0)
(10.1704 0.183268 0)
(10.1755 0.192519 0)
(10.1824 0.201787 0)
(10.1911 0.210646 0)
(10.2029 0.218237 0)
(10.217 0.224303 0)
(10.0026 0.0164725 0)
(10.0138 0.0370304 0)
(10.0245 0.0472142 0)
(10.0328 0.0539708 0)
(10.0397 0.0599109 0)
(10.0462 0.0654284 0)
(10.0525 0.0701699 0)
(10.058 0.0745371 0)
(10.0625 0.0795751 0)
(10.0675 0.0857607 0)
(10.0743 0.0920579 0)
(10.0829 0.0966796 0)
(10.0916 0.0989922 0)
(10.0986 0.099827 0)
(10.1036 0.100502 0)
(10.107 0.102111 0)
(10.1099 0.105237 0)
(10.1136 0.109681 0)
(10.1187 0.11439 0)
(10.125 0.118309 0)
(10.1317 0.121077 0)
(10.1383 0.122804 0)
(10.1444 0.123758 0)
(10.1496 0.124348 0)
(10.1537 0.125136 0)
(10.157 0.126615 0)
(10.1598 0.128989 0)
(10.1624 0.132178 0)
(10.1651 0.136034 0)
(10.1679 0.140481 0)
(10.1712 0.145491 0)
(10.1751 0.151017 0)
(10.1797 0.156972 0)
(10.1854 0.163246 0)
(10.1921 0.169716 0)
(10.2001 0.176185 0)
(10.2095 0.182357 0)
(10.2205 0.187873 0)
(10.2329 0.192147 0)
(10.2463 0.194667 0)
(10.0019 0.0133111 0)
(10.0108 0.0322058 0)
(10.0205 0.0432266 0)
(10.0281 0.0504788 0)
(10.0348 0.0566187 0)
(10.0412 0.0621408 0)
(10.0473 0.0670205 0)
(10.053 0.0716334 0)
(10.0582 0.0766362 0)
(10.0638 0.0821945 0)
(10.0704 0.0875261 0)
(10.0779 0.0915703 0)
(10.0853 0.094074 0)
(10.0918 0.0956437 0)
(10.097 0.0971572 0)
(10.1014 0.0992875 0)
(10.1057 0.102256 0)
(10.1103 0.105795 0)
(10.1156 0.109352 0)
(10.1215 0.112468 0)
(10.1277 0.114983 0)
(10.1337 0.116927 0)
(10.1394 0.118452 0)
(10.1446 0.119809 0)
(10.1491 0.121304 0)
(10.1532 0.123177 0)
(10.157 0.125536 0)
(10.1607 0.128395 0)
(10.1646 0.131745 0)
(10.1688 0.13556 0)
(10.1734 0.139792 0)
(10.1786 0.144346 0)
(10.1845 0.149108 0)
(10.1911 0.15394 0)
(10.1985 0.15869 0)
(10.2067 0.163155 0)
(10.2158 0.167106 0)
(10.2257 0.170271 0)
(10.2363 0.172373 0)
(10.2473 0.173231 0)
(10.0014 0.0108356 0)
(10.0083 0.0277677 0)
(10.017 0.0392509 0)
(10.0244 0.0468963 0)
(10.0308 0.053189 0)
(10.037 0.0587148 0)
(10.043 0.0636585 0)
(10.0487 0.0683555 0)
(10.0543 0.0732112 0)
(10.0601 0.0782552 0)
(10.0666 0.0829505 0)
(10.0734 0.0866792 0)
(10.0802 0.089352 0)
(10.0863 0.0913853 0)
(10.0918 0.0933364 0)
(10.0968 0.0956093 0)
(10.1016 0.0983187 0)
(10.1067 0.101318 0)
(10.1121 0.104323 0)
(10.1179 0.107076 0)
(10.1237 0.10945 0)
(10.1295 0.111447 0)
(10.1349 0.113168 0)
(10.1401 0.114779 0)
(10.1449 0.116467 0)
(10.1494 0.118382 0)
(10.1539 0.120609 0)
(10.1584 0.123174 0)
(10.1631 0.12607 0)
(10.1681 0.129255 0)
(10.1734 0.132662 0)
(10.1791 0.136195 0)
(10.1854 0.13975 0)
(10.1921 0.143223 0)
(10.1994 0.146494 0)
(10.2072 0.149402 0)
(10.2155 0.151793 0)
(10.2241 0.15357 0)
(10.233 0.154627 0)
(10.242 0.154829 0)
(10.001 0.00886727 0)
(10.0063 0.0238923 0)
(10.0139 0.035147 0)
(10.021 0.0432743 0)
(10.0272 0.0496433 0)
(10.0332 0.0551436 0)
(10.0391 0.0600776 0)
(10.0449 0.0647416 0)
(10.0506 0.0694025 0)
(10.0566 0.074055 0)
(10.0628 0.0783333 0)
(10.0693 0.081854 0)
(10.0757 0.084596 0)
(10.0817 0.0868552 0)
(10.0873 0.0889955 0)
(10.0926 0.0912793 0)
(10.0978 0.0937904 0)
(10.1031 0.0964512 0)
(10.1086 0.0990959 0)
(10.1143 0.101564 0)
(10.1199 0.10377 0)
(10.1255 0.105714 0)
(10.1309 0.107466 0)
(10.1361 0.109134 0)
(10.1411 0.110836 0)
(10.146 0.112665 0)
(10.1509 0.11467 0)
(10.1558 0.116867 0)
(10.1609 0.11925 0)
(10.1663 0.121786 0)
(10.1718 0.12441 0)
(10.1777 0.127034 0)
(10.1839 0.129581 0)
(10.1904 0.13205 0)
(10.1972 0.134343 0)
(10.2043 0.13632 0)
(10.2115 0.137868 0)
(10.2189 0.1389 0)
(10.2264 0.139335 0)
(10.234 0.139111 0)
(10.0008 0.00728752 0)
(10.0048 0.0205351 0)
(10.0112 0.0311981 0)
(10.0178 0.0395294 0)
(10.0239 0.0459891 0)
(10.0297 0.0514161 0)
(10.0356 0.056273 0)
(10.0413 0.0608269 0)
(10.0471 0.0652706 0)
(10.053 0.069613 0)
(10.0592 0.073591 0)
(10.0655 0.0769263 0)
(10.0717 0.0796378 0)
(10.0776 0.0819752 0)
(10.0833 0.0841719 0)
(10.0887 0.0864064 0)
(10.0942 0.088745 0)
(10.0996 0.0911463 0)
(10.1051 0.0935101 0)
(10.1107 0.0957361 0)
(10.1162 0.0977684 0)
(10.1217 0.0996057 0)
(10.1271 0.101292 0)
(10.1323 0.102899 0)
(10.1375 0.104498 0)
(10.1426 0.106146 0)
(10.1477 0.107869 0)
(10.1528 0.109679 0)
(10.1581 0.111602 0)
(10.1634 0.113624 0)
(10.1689 0.115683 0)
(10.1746 0.117705 0)
(10.1804 0.119622 0)
(10.1863 0.121373 0)
(10.1925 0.122887 0)
(10.1989 0.124097 0)
(10.2054 0.124933 0)
(10.212 0.125297 0)
(10.2187 0.125137 0)
(10.2253 0.124473 0)
(10.0005 0.00604524 0)
(10.0036 0.0176728 0)
(10.0088 0.0275352 0)
(10.0148 0.0356342 0)
(10.0207 0.0421633 0)
(10.0264 0.0475572 0)
(10.0321 0.0523053 0)
(10.0378 0.0567163 0)
(10.0436 0.0609552 0)
(10.0495 0.065006 0)
(10.0557 0.0686988 0)
(10.0619 0.0718773 0)
(10.068 0.0745534 0)
(10.0739 0.0768766 0)
(10.0796 0.0790318 0)
(10.0851 0.0811669 0)
(10.0906 0.0833416 0)
(10.0961 0.0855341 0)
(10.1016 0.087677 0)
(10.1071 0.0897004 0)
(10.1126 0.091562 0)
(10.1181 0.0932584 0)
(10.1234 0.09482 0)
(10.1287 0.0962971 0)
(10.1339 0.0977428 0)
(10.1391 0.0991984 0)
(10.1442 0.100687 0)
(10.1493 0.102215 0)
(10.1544 0.103773 0)
(10.1595 0.105337 0)
(10.1648 0.106873 0)
(10.1703 0.108345 0)
(10.1758 0.109687 0)
(10.1815 0.110776 0)
(10.1873 0.111563 0)
(10.1932 0.112036 0)
(10.1992 0.112184 0)
(10.2052 0.111987 0)
(10.2111 0.111435 0)
(10.217 0.110542 0)
(10.0002 0.0051174 0)
(10.0027 0.0153116 0)
(10.007 0.0242817 0)
(10.0122 0.0318694 0)
(10.0177 0.038189 0)
(10.0232 0.0435114 0)
(10.0288 0.0481403 0)
(10.0344 0.0523803 0)
(10.0401 0.056372 0)
(10.046 0.0600853 0)
(10.0521 0.0634645 0)
(10.0583 0.0664864 0)
(10.0644 0.0691336 0)
(10.0702 0.0714469 0)
(10.0759 0.073571 0)
(10.0815 0.0756164 0)
(10.087 0.0776301 0)
(10.0924 0.0796072 0)
(10.0979 0.0815138 0)
(10.1034 0.0833119 0)
(10.1089 0.084978 0)
(10.1144 0.0865113 0)
(10.1197 0.0879317 0)
(10.125 0.0892716 0)
(10.1302 0.0905659 0)
(10.1353 0.0918431 0)
(10.1404 0.0931202 0)
(10.1455 0.0943902 0)
(10.1505 0.0956028 0)
(10.1556 0.0967181 0)
(10.1608 0.0977206 0)
(10.166 0.0985941 0)
(10.1713 0.0993091 0)
(10.1768 0.0998234 0)
(10.1822 0.100105 0)
(10.1877 0.100135 0)
(10.1932 0.0999046 0)
(10.1986 0.0994094 0)
(10.2039 0.0986534 0)
(10.2091 0.0976527 0)
(10.0001 0.00427596 0)
(10.002 0.0130204 0)
(10.0055 0.0210184 0)
(10.0099 0.0279539 0)
(10.0149 0.0338537 0)
(10.02 0.0388713 0)
(10.0253 0.0432572 0)
(10.0308 0.0472245 0)
(10.0364 0.0508638 0)
(10.0422 0.0541911 0)
(10.0481 0.0572329 0)
(10.0542 0.0600209 0)
(10.0601 0.0625635 0)
(10.066 0.0648734 0)
(10.0717 0.0669889 0)
(10.0773 0.0689489 0)
(10.0828 0.0707787 0)
(10.0882 0.072493 0)
(10.0937 0.074101 0)
(10.0991 0.0756101 0)
(10.1046 0.0770275 0)
(10.11 0.0783613 0)
(10.1154 0.07962 0)
(10.1206 0.0808114 0)
(10.1258 0.0819414 0)
(10.1309 0.0830128 0)
(10.136 0.0840229 0)
(10.141 0.0849585 0)
(10.146 0.0857946 0)
(10.1511 0.0865062 0)
(10.1562 0.0870744 0)
(10.1612 0.0874836 0)
(10.1663 0.0877204 0)
(10.1714 0.0877745 0)
(10.1764 0.0876381 0)
(10.1814 0.0873067 0)
(10.1863 0.0867793 0)
(10.1912 0.0860608 0)
(10.1959 0.0851592 0)
(10.2005 0.0840907 0)
(10.0001 0.00350305 0)
(10.0015 0.0106473 0)
(10.0042 0.0173783 0)
(10.008 0.0234521 0)
(10.0123 0.0287813 0)
(10.017 0.0333288 0)
(10.0219 0.0372319 0)
(10.027 0.0407111 0)
(10.0324 0.0438828 0)
(10.0379 0.0467827 0)
(10.0436 0.0494465 0)
(10.0493 0.0519173 0)
(10.0551 0.0542213 0)
(10.0608 0.0563604 0)
(10.0664 0.0583254 0)
(10.072 0.0601094 0)
(10.0775 0.0617156 0)
(10.083 0.063161 0)
(10.0884 0.0644726 0)
(10.0938 0.0656801 0)
(10.0992 0.0668091 0)
(10.1045 0.0678762 0)
(10.1098 0.0688873 0)
(10.115 0.0698389 0)
(10.1201 0.0707203 0)
(10.1252 0.0715164 0)
(10.1302 0.0722105 0)
(10.1352 0.0727866 0)
(10.1401 0.0732313 0)
(10.1451 0.0735347 0)
(10.1499 0.073689 0)
(10.1548 0.073689 0)
(10.1595 0.0735324 0)
(10.1642 0.0732208 0)
(10.1688 0.0727584 0)
(10.1734 0.0721513 0)
(10.1778 0.0714076 0)
(10.1821 0.0705375 0)
(10.1862 0.0695507 0)
(10.1903 0.0684613 0)
(10.0001 0.00273445 0)
(10.0012 0.00824476 0)
(10.0034 0.0135104 0)
(10.0065 0.0183852 0)
(10.0102 0.0227937 0)
(10.0144 0.0266802 0)
(10.0189 0.0299816 0)
(10.0236 0.0327921 0)
(10.0285 0.0353085 0)
(10.0337 0.037636 0)
(10.0389 0.0398026 0)
(10.0443 0.0418256 0)
(10.0497 0.0437175 0)
(10.0552 0.045477 0)
(10.0606 0.0470914 0)
(10.0661 0.048547 0)
(10.0715 0.0498398 0)
(10.0769 0.0509793 0)
(10.0822 0.0519849 0)
(10.0875 0.0528801 0)
(10.0927 0.0536857 0)
(10.0979 0.0544157 0)
(10.103 0.0550751 0)
(10.108 0.0556613 0)
(10.113 0.0561654 0)
(10.1179 0.0565755 0)
(10.1228 0.0568792 0)
(10.1276 0.0570662 0)
(10.1324 0.05713 0)
(10.1371 0.0570673 0)
(10.1417 0.0568779 0)
(10.1462 0.056564 0)
(10.1506 0.0561296 0)
(10.1549 0.0555806 0)
(10.1591 0.0549243 0)
(10.1631 0.0541689 0)
(10.1671 0.0533239 0)
(10.1709 0.0523995 0)
(10.1746 0.0514043 0)
(10.1782 0.0503491 0)
(10.0001 0.00189777 0)
(10.001 0.00568645 0)
(10.0028 0.00932348 0)
(10.0054 0.0127379 0)
(10.0087 0.015884 0)
(10.0124 0.0187237 0)
(10.0165 0.0212103 0)
(10.0208 0.0232832 0)
(10.0253 0.0250262 0)
(10.03 0.0266023 0)
(10.0349 0.0280749 0)
(10.0398 0.0294464 0)
(10.0449 0.0307131 0)
(10.05 0.0318731 0)
(10.0551 0.0329229 0)
(10.0603 0.0338595 0)
(10.0654 0.0346825 0)
(10.0706 0.035395 0)
(10.0757 0.0360029 0)
(10.0807 0.0365129 0)
(10.0857 0.0369314 0)
(10.0906 0.0372625 0)
(10.0955 0.0375086 0)
(10.1003 0.0376698 0)
(10.105 0.0377449 0)
(10.1097 0.0377321 0)
(10.1143 0.0376297 0)
(10.1188 0.0374369 0)
(10.1232 0.0371538 0)
(10.1276 0.036782 0)
(10.1318 0.0363242 0)
(10.1359 0.0357843 0)
(10.1399 0.0351669 0)
(10.1438 0.0344776 0)
(10.1476 0.0337224 0)
(10.1512 0.0329078 0)
(10.1548 0.0320408 0)
(10.1582 0.0311287 0)
(10.1615 0.0301771 0)
(10.1646 0.0291931 0)
(10.0001 0.000933691 0)
(10.0009 0.00279211 0)
(10.0025 0.00457817 0)
(10.0048 0.00626327 0)
(10.0076 0.007827 0)
(10.011 0.00925177 0)
(10.0148 0.0105166 0)
(10.0188 0.0115904 0)
(10.0231 0.0124379 0)
(10.0274 0.0131224 0)
(10.032 0.0137279 0)
(10.0366 0.0142666 0)
(10.0413 0.014734 0)
(10.0461 0.0151294 0)
(10.0509 0.0154545 0)
(10.0557 0.0157113 0)
(10.0605 0.0159008 0)
(10.0653 0.0160234 0)
(10.0701 0.0160791 0)
(10.0748 0.0160671 0)
(10.0795 0.0159869 0)
(10.0841 0.0158385 0)
(10.0887 0.0156225 0)
(10.0931 0.01534 0)
(10.0975 0.0149932 0)
(10.1018 0.0145844 0)
(10.1061 0.0141165 0)
(10.1102 0.0135926 0)
(10.1142 0.0130161 0)
(10.1181 0.0123903 0)
(10.122 0.0117187 0)
(10.1257 0.011005 0)
(10.1293 0.0102529 0)
(10.1328 0.00946612 0)
(10.1361 0.00864873 0)
(10.1394 0.00780469 0)
(10.1426 0.00693813 0)
(10.1456 0.00605316 0)
(10.1485 0.00515302 0)
(10.1514 0.00424151 0)
(10.0001 -0.000208264 0)
(10.0008 -0.000619863 0)
(10.0023 -0.00101569 0)
(10.0045 -0.00139472 0)
(10.0072 -0.00175953 0)
(10.0104 -0.00211483 0)
(10.014 -0.00246732 0)
(10.0178 -0.00282635 0)
(10.0219 -0.00320315 0)
(10.0262 -0.0036096 0)
(10.0305 -0.00403505 0)
(10.035 -0.00448191 0)
(10.0395 -0.00495073 0)
(10.044 -0.00544158 0)
(10.0486 -0.00595439 0)
(10.0532 -0.00648913 0)
(10.0577 -0.00704612 0)
(10.0623 -0.00762628 0)
(10.0668 -0.00823084 0)
(10.0712 -0.008861 0)
(10.0756 -0.00951752 0)
(10.0799 -0.0102006 0)
(10.0842 -0.0109099 0)
(10.0884 -0.0116446 0)
(10.0925 -0.0124033 0)
(10.0965 -0.0131844 0)
(10.1004 -0.013986 0)
(10.1041 -0.0148061 0)
(10.1078 -0.0156426 0)
(10.1114 -0.0164932 0)
(10.1149 -0.0173558 0)
(10.1183 -0.0182279 0)
(10.1216 -0.0191074 0)
(10.1248 -0.019992 0)
(10.1278 -0.0208793 0)
(10.1308 -0.0217671 0)
(10.1337 -0.0226533 0)
(10.1364 -0.0235357 0)
(10.1391 -0.0244124 0)
(10.1417 -0.0252817 0)
(10.0001 -0.00120454 0)
(10.0009 -0.00360515 0)
(10.0025 -0.00590481 0)
(10.0049 -0.00806559 0)
(10.0078 -0.010072 0)
(10.0111 -0.0119215 0)
(10.0148 -0.0136185 0)
(10.0188 -0.0151721 0)
(10.023 -0.0165904 0)
(10.0273 -0.0178929 0)
(10.0317 -0.0191531 0)
(10.0362 -0.02039 0)
(10.0407 -0.0216001 0)
(10.0453 -0.0227837 0)
(10.0499 -0.0239445 0)
(10.0544 -0.0250862 0)
(10.059 -0.0262117 0)
(10.0635 -0.0273227 0)
(10.0679 -0.0284197 0)
(10.0723 -0.0295022 0)
(10.0767 -0.0305696 0)
(10.0809 -0.031622 0)
(10.0851 -0.0326605 0)
(10.0891 -0.0336868 0)
(10.0931 -0.0347032 0)
(10.097 -0.0357113 0)
(10.1008 -0.0367121 0)
(10.1044 -0.0377059 0)
(10.108 -0.038692 0)
(10.1114 -0.0396693 0)
(10.1148 -0.0406361 0)
(10.118 -0.0415909 0)
(10.1211 -0.0425319 0)
(10.1242 -0.043458 0)
(10.1271 -0.0443681 0)
(10.1299 -0.0452615 0)
(10.1327 -0.0461378 0)
(10.1353 -0.0469968 0)
(10.1378 -0.0478385 0)
(10.1403 -0.048663 0)
(10.0001 -0.00192481 0)
(10.001 -0.00574577 0)
(10.0029 -0.00936684 0)
(10.0055 -0.0127178 0)
(10.0086 -0.0157793 0)
(10.0122 -0.0185549 0)
(10.0161 -0.0210566 0)
(10.0203 -0.0233036 0)
(10.0246 -0.0253256 0)
(10.029 -0.0271841 0)
(10.0335 -0.0289714 0)
(10.0381 -0.0307017 0)
(10.0427 -0.0323675 0)
(10.0473 -0.0339674 0)
(10.052 -0.0355086 0)
(10.0566 -0.0370023 0)
(10.0612 -0.0384565 0)
(10.0657 -0.0398739 0)
(10.0702 -0.041252 0)
(10.0746 -0.0425881 0)
(10.0789 -0.0438818 0)
(10.0831 -0.0451352 0)
(10.0872 -0.0463516 0)
(10.0913 -0.0475353 0)
(10.0952 -0.0486906 0)
(10.099 -0.0498211 0)
(10.1027 -0.0509291 0)
(10.1063 -0.0520161 0)
(10.1098 -0.0530821 0)
(10.1132 -0.0541266 0)
(10.1165 -0.0551488 0)
(10.1197 -0.0561477 0)
(10.1228 -0.0571225 0)
(10.1257 -0.058073 0)
(10.1286 -0.0589991 0)
(10.1313 -0.0599013 0)
(10.134 -0.0607804 0)
(10.1365 -0.0616372 0)
(10.139 -0.0624727 0)
(10.1414 -0.0632882 0)
(10.0001 -0.00266122 0)
(10.0012 -0.00793137 0)
(10.0034 -0.0128384 0)
(10.0064 -0.0172793 0)
(10.0099 -0.0212615 0)
(10.0138 -0.0248205 0)
(10.018 -0.0279888 0)
(10.0224 -0.0307998 0)
(10.0269 -0.0333164 0)
(10.0315 -0.0356678 0)
(10.0362 -0.0379209 0)
(10.0409 -0.0400826 0)
(10.0456 -0.0421505 0)
(10.0503 -0.0441149 0)
(10.0551 -0.0459825 0)
(10.0597 -0.047769 0)
(10.0644 -0.0494866 0)
(10.0689 -0.0511371 0)
(10.0734 -0.052713 0)
(10.0778 -0.054217 0)
(10.082 -0.0556632 0)
(10.0862 -0.057062 0)
(10.0902 -0.0584176 0)
(10.0942 -0.0597304 0)
(10.0981 -0.0609986 0)
(10.1018 -0.0622207 0)
(10.1055 -0.0633962 0)
(10.1091 -0.0645265 0)
(10.1125 -0.0656143 0)
(10.1158 -0.0666633 0)
(10.119 -0.0676776 0)
(10.1221 -0.0686609 0)
(10.1251 -0.0696164 0)
(10.1279 -0.0705462 0)
(10.1307 -0.0714519 0)
(10.1334 -0.072334 0)
(10.136 -0.0731927 0)
(10.1384 -0.0740278 0)
(10.1408 -0.0748389 0)
(10.1432 -0.0756258 0)
(10.0001 -0.00347748 0)
(10.0016 -0.0103125 0)
(10.0043 -0.0164682 0)
(10.0078 -0.0218567 0)
(10.0117 -0.02659 0)
(10.0159 -0.0307841 0)
(10.0204 -0.0345096 0)
(10.025 -0.0378092 0)
(10.0298 -0.0407487 0)
(10.0347 -0.0434592 0)
(10.0395 -0.0460105 0)
(10.0443 -0.0484426 0)
(10.0491 -0.0507822 0)
(10.0538 -0.0530366 0)
(10.0586 -0.0551907 0)
(10.0633 -0.0572209 0)
(10.068 -0.0591151 0)
(10.0725 -0.0608828 0)
(10.077 -0.0625508 0)
(10.0813 -0.064148 0)
(10.0854 -0.0656963 0)
(10.0895 -0.0672066 0)
(10.0935 -0.0686792 0)
(10.0974 -0.0701064 0)
(10.1012 -0.0714777 0)
(10.1049 -0.0727848 0)
(10.1085 -0.0740237 0)
(10.112 -0.0751961 0)
(10.1153 -0.0763077 0)
(10.1186 -0.0773674 0)
(10.1217 -0.0783846 0)
(10.1247 -0.0793683 0)
(10.1276 -0.0803258 0)
(10.1304 -0.081262 0)
(10.1331 -0.0821792 0)
(10.1357 -0.0830777 0)
(10.1383 -0.0839561 0)
(10.1407 -0.0848118 0)
(10.143 -0.0856418 0)
(10.1453 -0.0864429 0)
(10.0002 -0.00448874 0)
(10.0023 -0.0130544 0)
(10.0058 -0.020343 0)
(10.0098 -0.0264449 0)
(10.0141 -0.0317011 0)
(10.0186 -0.036363 0)
(10.0232 -0.0405467 0)
(10.028 -0.0442772 0)
(10.033 -0.0475756 0)
(10.038 -0.0505288 0)
(10.0429 -0.0532547 0)
(10.0477 -0.0558551 0)
(10.0525 -0.0583928 0)
(10.0573 -0.0608867 0)
(10.0621 -0.0632887 0)
(10.0668 -0.0655258 0)
(10.0716 -0.0675551 0)
(10.0761 -0.0693916 0)
(10.0806 -0.0710994 0)
(10.0849 -0.0727415 0)
(10.089 -0.0743551 0)
(10.093 -0.0759564 0)
(10.0969 -0.0775408 0)
(10.1008 -0.0790876 0)
(10.1045 -0.08057 0)
(10.1083 -0.0819646 0)
(10.1119 -0.0832583 0)
(10.1154 -0.0844502 0)
(10.1187 -0.0855499 0)
(10.122 -0.0865736 0)
(10.1251 -0.0875404 0)
(10.128 -0.0884688 0)
(10.1308 -0.0893737 0)
(10.1335 -0.0902648 0)
(10.1361 -0.091146 0)
(10.1386 -0.0920167 0)
(10.1411 -0.0928728 0)
(10.1434 -0.0937086 0)
(10.1457 -0.0945186 0)
(10.1479 -0.0952983 0)
(10.0006 -0.00576761 0)
(10.0035 -0.016223 0)
(10.0078 -0.0244358 0)
(10.0125 -0.0309561 0)
(10.0172 -0.0364808 0)
(10.0218 -0.0414434 0)
(10.0265 -0.0460131 0)
(10.0314 -0.0501504 0)
(10.0366 -0.0537624 0)
(10.0417 -0.0568913 0)
(10.0467 -0.0597157 0)
(10.0515 -0.0624332 0)
(10.0562 -0.0651689 0)
(10.0609 -0.0679353 0)
(10.0657 -0.0706312 0)
(10.0705 -0.0731069 0)
(10.0754 -0.0752669 0)
(10.0802 -0.0771275 0)
(10.0847 -0.0787902 0)
(10.089 -0.0803777 0)
(10.093 -0.0819861 0)
(10.0969 -0.0836609 0)
(10.1007 -0.0853907 0)
(10.1044 -0.0871213 0)
(10.1082 -0.0887854 0)
(10.112 -0.0903282 0)
(10.1158 -0.0917203 0)
(10.1194 -0.0929583 0)
(10.123 -0.0940568 0)
(10.1263 -0.0950429 0)
(10.1295 -0.0959514 0)
(10.1324 -0.0968192 0)
(10.1352 -0.0976792 0)
(10.1378 -0.0985553 0)
(10.1403 -0.0994606 0)
(10.1427 -0.100398 0)
(10.145 -0.101361 0)
(10.1473 -0.102338 0)
(10.1496 -0.103316 0)
(10.1518 -0.104275 0)
(10.0011 -0.00776334 0)
(10.0054 -0.0200428 0)
(10.0107 -0.0287159 0)
(10.0161 -0.0353106 0)
(10.0211 -0.0408426 0)
(10.0257 -0.0459396 0)
(10.0304 -0.0508628 0)
(10.0354 -0.0554668 0)
(10.0408 -0.0594099 0)
(10.0463 -0.0626121 0)
(10.0514 -0.0653513 0)
(10.056 -0.0680066 0)
(10.0603 -0.0708516 0)
(10.0646 -0.0739684 0)
(10.0693 -0.0771934 0)
(10.0745 -0.0801621 0)
(10.0799 -0.0825542 0)
(10.0851 -0.0843194 0)
(10.0899 -0.0856574 0)
(10.0942 -0.0868653 0)
(10.0979 -0.0882155 0)
(10.1013 -0.0898781 0)
(10.1047 -0.0918643 0)
(10.1082 -0.0940186 0)
(10.112 -0.0960915 0)
(10.1159 -0.097863 0)
(10.1198 -0.0992333 0)
(10.1237 -0.100223 0)
(10.1275 -0.10091 0)
(10.1311 -0.101393 0)
(10.1343 -0.101776 0)
(10.1373 -0.102164 0)
(10.1399 -0.102639 0)
(10.1423 -0.103255 0)
(10.1445 -0.104021 0)
(10.1465 -0.10491 0)
(10.1484 -0.105873 0)
(10.1503 -0.106856 0)
(10.1522 -0.107809 0)
(10.1541 -0.108699 0)
(10.0016 -0.0105284 0)
(10.0078 -0.0243253 0)
(10.0144 -0.0331245 0)
(10.0209 -0.0394943 0)
(10.0263 -0.0447586 0)
(10.0307 -0.0498186 0)
(10.0349 -0.0551211 0)
(10.04 -0.0603271 0)
(10.046 -0.064633 0)
(10.0523 -0.0677631 0)
(10.0577 -0.0701901 0)
(10.062 -0.0725732 0)
(10.0654 -0.0753585 0)
(10.0687 -0.0787116 0)
(10.0726 -0.0825431 0)
(10.078 -0.0863956 0)
(10.0846 -0.0895984 0)
(10.0912 -0.0917732 0)
(10.0971 -0.0930218 0)
(10.1017 -0.0937512 0)
(10.105 -0.0944774 0)
(10.1072 -0.0956562 0)
(10.1091 -0.0975781 0)
(10.1115 -0.100327 0)
(10.1149 -0.103682 0)
(10.1194 -0.107139 0)
(10.1245 -0.1102 0)
(10.1296 -0.11257 0)
(10.1343 -0.114171 0)
(10.1386 -0.115062 0)
(10.1423 -0.11538 0)
(10.1452 -0.115317 0)
(10.1475 -0.115117 0)
(10.1492 -0.115033 0)
(10.1506 -0.115276 0)
(10.1519 -0.115957 0)
(10.1533 -0.117089 0)
(10.155 -0.118596 0)
(10.1569 -0.120362 0)
(10.1591 -0.122261 0)
(10.0026 -0.0140344 0)
(10.0107 -0.0291336 0)
(10.0198 -0.0378442 0)
(10.028 -0.0436383 0)
(10.0338 -0.0481605 0)
(10.0375 -0.0530114 0)
(10.0408 -0.0592376 0)
(10.0459 -0.0656567 0)
(10.0532 -0.0700902 0)
(10.0609 -0.072122 0)
(10.0669 -0.0731343 0)
(10.0707 -0.0746971 0)
(10.0727 -0.077894 0)
(10.0742 -0.0827061 0)
(10.0764 -0.087718 0)
(10.081 -0.0911399 0)
(10.0884 -0.0921978 0)
(10.0972 -0.0914346 0)
(10.1053 -0.0899061 0)
(10.1114 -0.0886329 0)
(10.115 -0.0885858 0)
(10.1162 -0.0903831 0)
(10.1155 -0.0936603 0)
(10.114 -0.0971363 0)
(10.1132 -0.099536 0)
(10.1147 -0.100358 0)
(10.1186 -0.0999418 0)
(10.1241 -0.0989758 0)
(10.1303 -0.0978722 0)
(10.1366 -0.0967643 0)
(10.1425 -0.0956967 0)
(10.1474 -0.0948347 0)
(10.1509 -0.0944669 0)
(10.1527 -0.0947978 0)
(10.153 -0.0957816 0)
(10.1519 -0.0971953 0)
(10.1501 -0.0987846 0)
(10.148 -0.100354 0)
(10.146 -0.101798 0)
(10.1445 -0.103031 0)
(10.0046 -0.0181436 0)
(10.0154 -0.0348618 0)
(10.0289 -0.0431792 0)
(10.0403 -0.0482941 0)
(10.0465 -0.0510979 0)
(10.0478 -0.0540099 0)
(10.0488 -0.0616578 0)
(10.0549 -0.0738028 0)
(10.0662 -0.0838259 0)
(10.0774 -0.0874459 0)
(10.0838 -0.0860764 0)
(10.0838 -0.0829636 0)
(10.0792 -0.0815289 0)
(10.0753 -0.0861463 0)
(10.0774 -0.0996211 0)
(10.0862 -0.117578 0)
(10.0976 -0.131526 0)
(10.1071 -0.137196 0)
(10.1127 -0.135286 0)
(10.1132 -0.128459 0)
(10.1082 -0.119961 0)
(10.099 -0.113257 0)
(10.0898 -0.112413 0)
(10.0848 -0.120621 0)
(10.085 -0.136191 0)
(10.0878 -0.153165 0)
(10.0898 -0.166656 0)
(10.0892 -0.174928 0)
(10.0858 -0.178227 0)
(10.0802 -0.177344 0)
(10.0728 -0.172915 0)
(10.0637 -0.165653 0)
(10.0528 -0.156911 0)
(10.0408 -0.148636 0)
(10.0287 -0.142586 0)
(10.0173 -0.139714 0)
(10.0069 -0.140078 0)
(9.99759 -0.143153 0)
(9.98862 -0.148001 0)
(9.9803 -0.153767 0)
(10.0063 -0.0255527 0)
(10.029 -0.0449895 0)
(10.0515 -0.0477948 0)
(10.067 -0.049219 0)
(10.0715 -0.0507902 0)
(10.0649 -0.0538411 0)
(10.0558 -0.0586651 0)
(10.0541 -0.0620322 0)
(10.0587 -0.0624022 0)
(10.0606 -0.0607426 0)
(10.0537 -0.0582932 0)
(10.0366 -0.0572156 0)
(10.0092 -0.0600476 0)
(9.97457 -0.0655307 0)
(9.94144 -0.0680202 0)
(9.91591 -0.0648413 0)
(9.89486 -0.0589914 0)
(9.87046 -0.0535891 0)
(9.83924 -0.0490132 0)
(9.8031 -0.0445866 0)
(9.76323 -0.0413545 0)
(9.71702 -0.0417652 0)
(9.66258 -0.0453562 0)
(9.6048 -0.0475938 0)
(9.5513 -0.0450743 0)
(9.50485 -0.0384684 0)
(9.46178 -0.0303084 0)
(9.4174 -0.0231847 0)
(9.36999 -0.0188673 0)
(9.32033 -0.0173202 0)
(9.27024 -0.0171921 0)
(9.22032 -0.0174621 0)
(9.16954 -0.0178139 0)
(9.11715 -0.0181776 0)
(9.06402 -0.0184609 0)
(9.01213 -0.0185601 0)
(8.96318 -0.0182301 0)
(8.91829 -0.0173147 0)
(8.87731 -0.0157023 0)
(8.84012 -0.0135623 0)
(9.94401 -0.0238886 0)
(9.85289 -0.0518062 0)
(9.74797 -0.0676102 0)
(9.62065 -0.0665072 0)
(9.50138 -0.0546652 0)
(9.39647 -0.0503491 0)
(9.28729 -0.0697133 0)
(9.15206 -0.102777 0)
(8.997 -0.120981 0)
(8.84547 -0.115042 0)
(8.71231 -0.095075 0)
(8.60339 -0.0712814 0)
(8.5149 -0.0551547 0)
(8.43238 -0.0619975 0)
(8.33521 -0.0984818 0)
(8.21387 -0.140698 0)
(8.08133 -0.158535 0)
(7.95547 -0.150448 0)
(7.84649 -0.12869 0)
(7.75752 -0.101391 0)
(7.68903 -0.0717016 0)
(7.63963 -0.0448789 0)
(7.60257 -0.0350288 0)
(7.56451 -0.0556212 0)
(7.5138 -0.0954469 0)
(7.44994 -0.127808 0)
(7.38136 -0.140652 0)
(7.31686 -0.136677 0)
(7.26069 -0.123503 0)
(7.2132 -0.107238 0)
(7.17361 -0.0882497 0)
(7.14216 -0.0651288 0)
(7.11981 -0.0401761 0)
(7.10612 -0.019413 0)
(7.09842 -0.00866319 0)
(7.09275 -0.0100792 0)
(7.08558 -0.0215733 0)
(7.07484 -0.0384252 0)
(7.05987 -0.0559508 0)
(7.0417 -0.0706736 0)
(0.000679856 -0.000791595 0)
(0.0012911 -0.000985284 0)
(0.00261408 -0.00115906 0)
(0.00416656 -0.00136194 0)
(0.00600308 -0.00157538 1.81895e-22)
(0.00817737 -0.00178687 0)
(0.0107111 -0.00198531 0)
(0.0136007 -0.00215642 0)
(0.0168253 -0.00229067 0)
(0.0203904 -0.00245767 0)
(0.0243482 -0.00313013 0)
(0.028924 -0.00388187 2.91582e-22)
(0.0342651 -0.00409741 0)
(0.0400605 -0.00411575 0)
(0.0461824 -0.00409589 0)
(0.0525731 -0.00401995 0)
(0.0591289 -0.00387301 0)
(0.065713 -0.00365402 0)
(0.0721714 -0.00336416 -4.69087e-22)
(0.0783345 -0.00300599 0)
(0.0840191 -0.00258397 4.38182e-22)
(0.0890316 -0.00210417 -4.23349e-22)
(0.0931714 -0.00157398 4.08937e-22)
(0.0962358 -0.00100226 0)
(0.0980268 -0.000400388 0)
(0.0983545 0.000222185 -7.36285e-22)
(0.0970506 0.000858542 7.10611e-22)
(0.0939842 0.00148145 -6.85654e-22)
(0.0890742 0.00208526 0)
(0.0822931 0.00265363 -6.37721e-22)
(0.0736989 0.00316474 6.14659e-22)
(0.0634463 0.00360491 0)
(0.0517315 0.00397534 0)
(0.0394679 0.00374529 0)
(0.0271122 0.0031562 -1.05654e-21)
(0.0150701 0.00287106 0)
(0.00392937 0.00247841 9.83027e-22)
(-0.00557764 0.00195362 0)
(-0.0130693 0.00142298 -9.13539e-22)
(-0.0188192 0.000998839 8.7947e-22)
(-0.0239526 0.00115837 0)
(-0.0299563 0.00162431 0)
(-0.0382662 0.00210787 0)
(-0.0493089 0.00262024 0)
(-0.0630793 0.0030347 1.47159e-21)
(-0.0806764 0.00336801 0)
(-0.102448 0.00374482 -1.22216e-21)
(-0.127639 0.00430381 0)
(-0.15843 0.00518372 0)
(-0.197742 0.00634514 0)
(-0.247342 0.00759157 -1.24205e-21)
(-0.306898 0.00870121 0)
(-0.374551 0.00953391 -1.25665e-21)
(-0.447948 0.0100524 0)
(-0.5247 0.0102764 0)
(-0.60267 0.0102552 0)
(-0.680189 0.0100479 1.29849e-21)
(-0.756058 0.00971723 0)
(-0.829522 0.00931464 0)
(-0.900148 0.00887588 0)
(-0.967728 0.00842693 1.34004e-21)
(-1.03222 0.00798547 1.34817e-21)
(-1.09367 0.00755998 0)
(-1.15219 0.00715484 0)
(-1.20788 0.00677156 0)
(-1.26089 0.00640966 0)
(-1.31134 0.0060679 0)
(-1.35934 0.00574461 0)
(-1.405 0.00543798 -1.36607e-21)
(-1.44842 0.00514626 1.3625e-21)
(-1.48968 0.00486778 0)
(-1.52886 0.00460102 -1.35056e-21)
(-1.56601 0.00434463 0)
(-1.6012 0.00409736 0)
(-1.63447 0.00385815 0)
(-1.66587 0.00362603 0)
(-1.69544 0.00340014 0)
(-1.7232 0.00317974 0)
(-1.74918 0.00296416 -1.25811e-21)
(-1.77341 0.00275285 0)
(-1.79591 0.00254542 -1.21729e-21)
(-1.81669 0.00234156 1.19451e-21)
(-1.83578 0.00214113 -1.17016e-21)
(-1.8532 0.00194407 0)
(-1.86895 0.00175038 -1.11683e-21)
(-1.88308 0.00156012 0)
(-1.89559 0.00137325 -1.05743e-21)
(-1.90651 0.00118964 0)
(-1.91586 0.00100896 0)
(-1.92366 0.00083058 0)
(-1.92993 0.000652361 -1.8423e-21)
(-1.93468 0.000480194 0)