/*--------------------------------*- C++ -*----------------------------------*\
| =========                 |                                                 |
| \\      /  F ield         | OpenFOAM: The Open Source CFD Toolbox           |
|  \\    /   O peration     | Version:  2112                                  |
|   \\  /    A nd           | Website:  www.openfoam.com                      |
|    \\/     M anipulation  |                                                 |
\*---------------------------------------------------------------------------*/
FoamFile
{
    version     2.0;
    format      ascii;
    arch        "LSB;label=32;scalar=64";
    class       volVectorField;
    location    "0.01";
    object      U_0;
}
// * * * * * * * * * * * * * * * * * * * * * * * * * * * * * * * * * * * * * //

dimensions      [0 1 -1 0 0 0 0];

internalField   nonuniform List<vector> 
12225
(
(9.76287 0.0656276 0)
(9.27047 0.105566 0)
(8.73289 0.113814 0)
(8.18141 0.11535 0)
(7.64916 0.112592 0)
(7.15193 0.105761 0)
(6.69896 0.0958182 0)
(6.29856 0.0837459 0)
(5.95665 0.0704996 0)
(5.675 0.0570269 0)
(5.4516 0.0441305 0)
(5.2816 0.0324052 0)
(5.15822 0.0221848 0)
(5.07377 0.0135709 0)
(5.02004 0.00657654 0)
(4.99035 0.000819275 0)
(4.9723 0.0051605 0)
(4.94894 -0.0070144 0)
(10.0974 0.0745311 0)
(10.2937 0.111138 0)
(10.4215 0.119424 0)
(10.4833 0.128388 0)
(10.4928 0.135252 0)
(10.4556 0.137616 0)
(10.3774 0.135492 0)
(10.2668 0.129178 0)
(10.1331 0.119194 0)
(9.98454 0.10641 0)
(9.82766 0.0919024 0)
(9.66751 0.076785 0)
(9.50764 0.0620194 0)
(9.35034 0.0483623 0)
(9.19733 0.0361908 0)
(9.04946 0.0265179 0)
(8.912 0.0201706 0)
(8.79028 0.0245467 0)
(10.0167 0.0394513 0)
(10.07 0.0658385 0)
(10.1262 0.0802215 0)
(10.183 0.0971345 0)
(10.244 0.111871 0)
(10.3063 0.12215 0)
(10.3643 0.128292 0)
(10.4135 0.130637 0)
(10.4515 0.129416 0)
(10.4776 0.125304 0)
(10.492 0.119291 0)
(10.4955 0.112432 0)
(10.4898 0.105637 0)
(10.4767 0.0995447 0)
(10.4584 0.0946023 0)
(10.4367 0.090687 0)
(10.4157 0.088178 0)
(10.3936 0.0792578 0)
(10.0086 0.0322744 0)
(10.0409 0.0645453 0)
(10.0709 0.0803703 0)
(10.0962 0.0933947 0)
(10.1228 0.103666 0)
(10.1528 0.110261 0)
(10.1847 0.113475 0)
(10.2171 0.113718 0)
(10.2493 0.111393 0)
(10.2793 0.106922 0)
(10.3064 0.100901 0)
(10.3301 0.0940957 0)
(10.3504 0.0871455 0)
(10.3678 0.0804705 0)
(10.3831 0.0742832 0)
(10.3972 0.0682666 0)
(10.4113 0.0619166 0)
(10.4255 0.0498529 0)
(10.0052 0.0272359 0)
(10.0302 0.0587038 0)
(10.0555 0.0738214 0)
(10.0767 0.085813 0)
(10.0982 0.0957458 0)
(10.1211 0.102212 0)
(10.1443 0.105314 0)
(10.1673 0.105619 0)
(10.1896 0.103524 0)
(10.2107 0.0994873 0)
(10.2304 0.0941617 0)
(10.2485 0.0882023 0)
(10.2651 0.0821435 0)
(10.2807 0.0763283 0)
(10.2956 0.0708819 0)
(10.3105 0.0655235 0)
(10.3256 0.0596126 0)
(10.3409 0.0511766 0)
(10.0034 0.0224418 0)
(10.023 0.0516935 0)
(10.0457 0.067499 0)
(10.0659 0.0796147 0)
(10.0862 0.0893063 0)
(10.1076 0.0954609 0)
(10.1289 0.0983033 0)
(10.1495 0.0983973 0)
(10.1692 0.0962478 0)
(10.1878 0.0923456 0)
(10.2051 0.0872226 0)
(10.2211 0.0814189 0)
(10.2359 0.0753885 0)
(10.25 0.0694149 0)
(10.2636 0.063571 0)
(10.2771 0.0576104 0)
(10.2905 0.0510279 0)
(10.3034 0.0426532 0)
(10.0024 0.0187172 0)
(10.0179 0.0455189 0)
(10.0379 0.0611927 0)
(10.057 0.0728057 0)
(10.0764 0.0819338 0)
(10.0968 0.0878586 0)
(10.1174 0.0906636 0)
(10.1373 0.0908258 0)
(10.1561 0.0888252 0)
(10.1739 0.0851261 0)
(10.1904 0.080242 0)
(10.2057 0.0746551 0)
(10.22 0.0687596 0)
(10.2335 0.0627992 0)
(10.2465 0.0568391 0)
(10.2592 0.0507196 0)
(10.2714 0.0440958 0)
(10.2829 0.0363865 0)
(10.0018 0.0157342 0)
(10.0142 0.0400148 0)
(10.0317 0.0551903 0)
(10.0495 0.0661376 0)
(10.0677 0.0745233 0)
(10.087 0.0799444 0)
(10.1067 0.0825102 0)
(10.1259 0.0826752 0)
(10.1443 0.0808117 0)
(10.1616 0.0773472 0)
(10.1778 0.0727288 0)
(10.1929 0.0673845 0)
(10.2069 0.0616612 0)
(10.2203 0.0557694 0)
(10.233 0.0497783 0)
(10.2452 0.043613 0)
(10.257 0.0370848 0)
(10.2679 0.0299953 0)
(10.0014 0.0132643 0)
(10.0114 0.0349443 0)
(10.0267 0.0493224 0)
(10.0432 0.0595423 0)
(10.0603 0.067171 0)
(10.0784 0.0720618 0)
(10.0969 0.07431 0)
(10.1152 0.0743312 0)
(10.1329 0.072517 0)
(10.1498 0.0692171 0)
(10.1656 0.0648027 0)
(10.1805 0.059657 0)
(10.1945 0.0540827 0)
(10.2077 0.0482717 0)
(10.2203 0.0423054 0)
(10.2323 0.036162 0)
(10.2438 0.0297701 0)
(10.2546 0.0231642 0)
(10.001 0.0111844 0)
(10.0093 0.030262 0)
(10.0227 0.0435833 0)
(10.0379 0.0529921 0)
(10.0539 0.0598322 0)
(10.0707 0.0641507 0)
(10.0881 0.0660419 0)
(10.1054 0.0658685 0)
(10.1223 0.0639972 0)
(10.1384 0.0607618 0)
(10.1538 0.0564937 0)
(10.1684 0.0515052 0)
(10.1822 0.0460565 0)
(10.1953 0.0403262 0)
(10.2078 0.0344031 0)
(10.2198 0.0283103 0)
(10.2312 0.02207 0)
(10.2419 0.0158312 0)
(10.0008 0.00940454 0)
(10.0076 0.0259475 0)
(10.0194 0.0379999 0)
(10.0333 0.0464992 0)
(10.0482 0.0525126 0)
(10.064 0.0562131 0)
(10.0803 0.0577029 0)
(10.0966 0.0572908 0)
(10.1125 0.0553143 0)
(10.128 0.0520777 0)
(10.1428 0.0478693 0)
(10.1569 0.0429595 0)
(10.1704 0.0375754 0)
(10.1832 0.0318814 0)
(10.1956 0.0259814 0)
(10.2074 0.0199405 0)
(10.2188 0.0138168 0)
(10.2296 0.00779233 0)
(10.0007 0.00795943 0)
(10.0065 0.02227 0)
(10.0169 0.0330193 0)
(10.0298 0.0405963 0)
(10.0437 0.0458183 0)
(10.0585 0.0489147 0)
(10.0738 0.0499963 0)
(10.0892 0.0493266 0)
(10.1044 0.0472096 0)
(10.1191 0.043921 0)
(10.1334 0.0397158 0)
(10.147 0.0348304 0)
(10.1601 0.0294643 0)
(10.1727 0.0237691 0)
(10.1848 0.0178517 0)
(10.1965 0.0117971 0)
(10.2077 0.00568874 0)
(10.2186 -0.000280669 0)
(10.0006 0.00668101 0)
(10.0056 0.0188593 0)
(10.0149 0.0282111 0)
(10.0267 0.0347996 0)
(10.0397 0.0392083 0)
(10.0535 0.0416738 0)
(10.068 0.0423141 0)
(10.0825 0.0413534 0)
(10.097 0.0390596 0)
(10.111 0.0356788 0)
(10.1247 0.0314354 0)
(10.1379 0.0265345 0)
(10.1505 0.021151 0)
(10.1628 0.0154233 0)
(10.1746 0.00945811 0)
(10.1861 0.00334788 0)
(10.1972 -0.0028224 0)
(10.2081 -0.00887049 0)
(10.0005 0.00536921 0)
(10.0048 0.0152253 0)
(10.013 0.0229142 0)
(10.0236 0.0282952 0)
(10.0356 0.0317287 0)
(10.0485 0.0334295 0)
(10.0619 0.0335181 0)
(10.0756 0.0321783 0)
(10.0892 0.0296342 0)
(10.1025 0.0260975 0)
(10.1155 0.0217593 0)
(10.1281 0.0167919 0)
(10.1403 0.0113445 0)
(10.1522 0.00553877 0)
(10.1636 -0.000526855 0)
(10.1748 -0.00676493 0)
(10.1857 -0.0131029 0)
(10.1965 -0.0193812 0)
(10.0004 0.00401548 0)
(10.0041 0.0113839 0)
(10.0112 0.0171508 0)
(10.0208 0.0210812 0)
(10.0317 0.0233538 0)
(10.0435 0.0241371 0)
(10.0559 0.0235427 0)
(10.0686 0.0217139 0)
(10.0813 0.0188266 0)
(10.0938 0.0150528 0)
(10.1061 0.0105475 0)
(10.118 0.00544889 0)
(10.1297 -0.000122812 0)
(10.141 -0.00606732 0)
(10.152 -0.0123024 0)
(10.1627 -0.018756 0)
(10.1733 -0.0253758 0)
(10.1838 -0.0320361 0)
(10.0004 0.00261245 0)
(10.0035 0.00734615 0)
(10.0097 0.0109477 0)
(10.0181 0.0131746 0)
(10.028 0.0140801 0)
(10.0388 0.0137736 0)
(10.0501 0.0123435 0)
(10.0618 0.00989383 0)
(10.0735 0.00655081 0)
(10.0851 0.00244166 0)
(10.0966 -0.00231757 0)
(10.1078 -0.00762458 0)
(10.1187 -0.0133912 0)
(10.1294 -0.0195438 0)
(10.1398 -0.0260229 0)
(10.15 -0.032779 0)
(10.16 -0.0397832 0)
(10.1699 -0.0469453 0)
(10.0003 0.00114268 0)
(10.003 0.00308565 0)
(10.0084 0.00429375 0)
(10.0159 0.0045674 0)
(10.0247 0.00389208 0)
(10.0345 0.00231548 0)
(10.0448 -0.000109538 0)
(10.0554 -0.00331873 0)
(10.0661 -0.00723398 0)
(10.0768 -0.0117751 0)
(10.0874 -0.0168682 0)
(10.0977 -0.022449 0)
(10.1078 -0.0284635 0)
(10.1177 -0.034868 0)
(10.1273 -0.0416295 0)
(10.1366 -0.0487228 0)
(10.1458 -0.05614 0)
(10.1548 -0.0638239 0)
(10.0003 -0.000415065 0)
(10.0027 -0.0014554 0)
(10.0075 -0.00287721 0)
(10.0142 -0.00480827 0)
(10.0222 -0.00729127 0)
(10.031 -0.0103299 0)
(10.0403 -0.0139126 0)
(10.05 -0.0180167 0)
(10.0598 -0.022611 0)
(10.0695 -0.027662 0)
(10.0791 -0.0331395 0)
(10.0885 -0.0390185 0)
(10.0976 -0.04528 0)
(10.1064 -0.0519114 0)
(10.1149 -0.0589065 0)
(10.1232 -0.066263 0)
(10.1311 -0.0739897 0)
(10.1389 -0.0820593 0)
(10.0003 -0.00212975 0)
(10.0025 -0.00644729 0)
(10.007 -0.0107657 0)
(10.0132 -0.0151337 0)
(10.0206 -0.0196174 0)
(10.0287 -0.0242705 0)
(10.0374 -0.0291239 0)
(10.0463 -0.0341953 0)
(10.0552 -0.0394973 0)
(10.0641 -0.0450411 0)
(10.0727 -0.0508379 0)
(10.0811 -0.0569004 0)
(10.0891 -0.0632437 0)
(10.0967 -0.0698856 0)
(10.1039 -0.0768454 0)
(10.1107 -0.0841426 0)
(10.1171 -0.0917999 0)
(10.1231 -0.0998186 0)
(10.0003 -0.00374617 0)
(10.0026 -0.0111232 0)
(10.0072 -0.0180871 0)
(10.0136 -0.0246255 0)
(10.0209 -0.0308538 0)
(10.0289 -0.0368865 0)
(10.0374 -0.0427916 0)
(10.0459 -0.0486174 0)
(10.0545 -0.0544115 0)
(10.0629 -0.0602197 0)
(10.071 -0.0660839 0)
(10.0786 -0.072045 0)
(10.0858 -0.0781447 0)
(10.0925 -0.084425 0)
(10.0987 -0.0909273 0)
(10.1043 -0.0976899 0)
(10.1093 -0.104749 0)
(10.1138 -0.112129 0)
(10.0003 -0.00514544 0)
(10.003 -0.0151193 0)
(10.008 -0.0242058 0)
(10.0148 -0.0323875 0)
(10.0225 -0.0399005 0)
(10.0307 -0.0469316 0)
(10.0392 -0.053568 0)
(10.0479 -0.059877 0)
(10.0564 -0.0659332 0)
(10.0647 -0.071805 0)
(10.0726 -0.0775525 0)
(10.08 -0.0832335 0)
(10.0868 -0.0889081 0)
(10.093 -0.094637 0)
(10.0985 -0.10048 0)
(10.1033 -0.106492 0)
(10.1075 -0.112725 0)
(10.1109 -0.11922 0)
(10.0004 -0.00658189 0)
(10.0036 -0.0191126 0)
(10.0095 -0.0300821 0)
(10.017 -0.0396021 0)
(10.0252 -0.0481493 0)
(10.0338 -0.0559842 0)
(10.0427 -0.0631895 0)
(10.0516 -0.0698459 0)
(10.0604 -0.0760505 0)
(10.0688 -0.081885 0)
(10.0768 -0.0874175 0)
(10.0842 -0.0927173 0)
(10.0909 -0.0978592 0)
(10.0969 -0.10292 0)
(10.102 -0.107978 0)
(10.1064 -0.113106 0)
(10.11 -0.118373 0)
(10.1127 -0.123837 0)
(10.0005 -0.00817151 0)
(10.0046 -0.0233207 0)
(10.0117 -0.0359154 0)
(10.0202 -0.0464731 0)
(10.0291 -0.055841 0)
(10.0383 -0.0643147 0)
(10.0477 -0.0719531 0)
(10.0571 -0.0788618 0)
(10.0662 -0.0851567 0)
(10.075 -0.0909158 0)
(10.0833 -0.0962018 0)
(10.0909 -0.101087 0)
(10.0978 -0.105654 0)
(10.1038 -0.109994 0)
(10.1089 -0.114201 0)
(10.1131 -0.118365 0)
(10.1164 -0.122573 0)
(10.1187 -0.126902 0)
(10.0007 -0.010059 0)
(10.0062 -0.0278975 0)
(10.0151 -0.0417408 0)
(10.0247 -0.0530493 0)
(10.0343 -0.0631094 0)
(10.0441 -0.0721149 0)
(10.0542 -0.0800746 0)
(10.0642 -0.0871455 0)
(10.0739 -0.0934697 0)
(10.0833 -0.0991154 0)
(10.092 -0.104134 0)
(10.1001 -0.108594 0)
(10.1074 -0.112587 0)
(10.1137 -0.116213 0)
(10.119 -0.119581 0)
(10.1233 -0.122798 0)
(10.1265 -0.125965 0)
(10.1287 -0.129176 0)
(10.0011 -0.0124626 0)
(10.0088 -0.0330447 0)
(10.0198 -0.0475323 0)
(10.0307 -0.0592244 0)
(10.0411 -0.0698965 0)
(10.0518 -0.0794792 0)
(10.0627 -0.0878653 0)
(10.0735 -0.0952142 0)
(10.084 -0.101657 0)
(10.094 -0.107238 0)
(10.1035 -0.111993 0)
(10.1122 -0.115992 0)
(10.1201 -0.11933 0)
(10.1269 -0.122129 0)
(10.1326 -0.124534 0)
(10.1372 -0.126678 0)
(10.1407 -0.128678 0)
(10.1429 -0.130615 0)
(10.0018 -0.0156499 0)
(10.013 -0.0393408 0)
(10.0268 -0.0540646 0)
(10.039 -0.0657034 0)
(10.0504 -0.0764212 0)
(10.0622 -0.0859483 0)
(10.0742 -0.0943203 0)
(10.086 -0.101738 0)
(10.0975 -0.108271 0)
(10.1087 -0.113902 0)
(10.1194 -0.118636 0)
(10.1295 -0.122516 0)
(10.1388 -0.125618 0)
(10.1471 -0.128048 0)
(10.1543 -0.129943 0)
(10.1604 -0.131454 0)
(10.1653 -0.132738 0)
(10.169 -0.133841 0)
(10.0034 -0.0196775 0)
(10.0198 -0.0458335 0)
(10.0377 -0.0611325 0)
(10.0525 -0.0735171 0)
(10.0666 -0.0847282 0)
(10.0814 -0.0943423 0)
(10.0967 -0.102493 0)
(10.1121 -0.109579 0)
(10.1278 -0.11568 0)
(10.1436 -0.120757 0)
(10.1595 -0.124818 0)
(10.1752 -0.127918 0)
(10.1904 -0.130132 0)
(10.2049 -0.13159 0)
(10.2183 -0.132472 0)
(10.2303 -0.132906 0)
(10.241 -0.132998 0)
(10.2496 -0.132859 0)
(10.008 -0.024356 0)
(10.0364 -0.0456666 0)
(10.0672 -0.0578287 0)
(10.0962 -0.0717407 0)
(10.1276 -0.0856208 0)
(10.1629 -0.0980446 0)
(10.2 -0.109176 0)
(10.2376 -0.119224 0)
(10.2748 -0.128182 0)
(10.3107 -0.135897 0)
(10.3442 -0.142267 0)
(10.3743 -0.147259 0)
(10.4001 -0.150904 0)
(10.421 -0.153299 0)
(10.4367 -0.154615 0)
(10.4473 -0.155169 0)
(10.453 -0.155183 0)
(10.4539 -0.155242 0)
(10.052 -0.052443 0)
(10.1798 -0.0864015 0)
(10.287 -0.0966036 0)
(10.368 -0.107045 0)
(10.4259 -0.117348 0)
(10.4604 -0.125887 0)
(10.4719 -0.132943 0)
(10.4613 -0.13873 0)
(10.4306 -0.14312 0)
(10.3819 -0.145925 0)
(10.3175 -0.147038 0)
(10.2397 -0.146448 0)
(10.151 -0.144227 0)
(10.0535 -0.140548 0)
(9.94924 -0.135666 0)
(9.84006 -0.129958 0)
(9.7272 -0.123641 0)
(9.61253 -0.117633 0)
(9.87181 -0.0494857 0)
(9.57506 -0.087887 0)
(9.22819 -0.101509 0)
(8.85378 -0.109424 0)
(8.47416 -0.113985 0)
(8.09841 -0.115606 0)
(7.73022 -0.1151 0)
(7.37333 -0.112909 0)
(7.03158 -0.109165 0)
(6.70811 -0.104035 0)
(6.40531 -0.0977724 0)
(6.12497 -0.0906032 0)
(5.86834 -0.0827593 0)
(5.63606 -0.0744913 0)
(5.42803 -0.0660523 0)
(5.24378 -0.0577071 0)
(5.08122 -0.0497034 0)
(4.94171 -0.0420544 0)
(-0.0175834 -0.00631494 -2.89697e-21)
(-0.0242373 0.00433922 2.84374e-21)
(-0.0613742 0.0104943 0)
(-0.0978226 0.016629 0)
(-0.139118 0.0202054 0)
(-0.185498 0.0226496 -2.90731e-21)
(-0.2369 0.0256892 0)
(-0.294232 0.0300381 0)
(-0.358464 0.0359307 0)
(-0.430572 0.0433784 0)
(-0.511456 0.052277 3.0933e-21)
(-0.602012 0.0626001 0)
(-0.703085 0.0743571 0)
(-0.815468 0.0875474 0)
(-0.939895 0.10214 0)
(-1.077 0.118048 3.43029e-21)
(-1.22728 0.135098 0)
(-1.39101 0.153012 0)
(-1.56823 0.1714 0)
(-1.75864 0.189766 0)
(-1.96157 0.207491 0)
(-2.1759 0.223844 0)
(-2.40006 0.237809 0)
(-2.63198 0.248655 4.2589e-21)
(-2.86909 0.255882 -4.37352e-21)
(-3.10843 0.258812 4.48416e-21)
(-3.34655 0.256883 4.58745e-21)
(-3.57956 0.249702 0)
(-3.80323 0.23705 0)
(-4.01315 0.218928 -4.81067e-21)
(-4.20484 0.195585 -4.83956e-21)
(-4.37391 0.167481 0)
(-4.51621 0.135385 0)
(-4.62797 0.100537 -4.71451e-21)
(-4.70642 0.0645147 0)
(-4.74904 0.0291733 0)
(-4.75322 -0.00353089 4.1819e-21)
(-4.72483 -0.0320916 0)
(-4.66418 -0.0578263 3.56679e-21)
(-4.5726 -0.0813988 6.37409e-21)
(-4.4515 -0.103285 0)
(-4.30248 -0.123481 0)
(-4.12744 -0.141833 0)
(-3.92863 -0.158163 0)
(-3.70857 -0.17232 0)
(-3.47004 -0.184201 4.41508e-22)
(-3.21595 -0.193757 -6.37079e-22)
(-2.94933 -0.200995 -1.70018e-21)
(-2.67317 -0.205968 0)
(-2.39039 -0.208768 3.72795e-21)
(-2.1038 -0.209506 0)
(-1.81599 -0.208302 -5.55639e-21)
(-1.52932 -0.205277 -6.37786e-21)
(-1.2459 -0.20056 0)
(-0.967584 -0.194332 0)
(-0.696252 -0.186915 0)
(-0.432408 -0.179177 -8.97826e-21)
(-0.176132 -0.171808 0)
(0.0713081 -0.164019 0)
(0.309184 -0.155855 0)
(0.537115 -0.147731 0)
(0.754841 -0.139945 0)
(0.962358 -0.132739 0)
(1.15986 -0.125436 0)
(1.34744 -0.117269 0)
(1.52491 -0.108751 1.07108e-20)
(1.69234 -0.1006 0)
(1.85011 -0.0929341 0)
(1.99857 -0.0857022 -1.06456e-20)
(2.13807 -0.0788531 -1.05923e-20)
(2.26895 -0.0723533 0)
(2.39155 -0.0661752 1.04533e-20)
(2.50622 -0.0602929 -1.03715e-20)
(2.61326 -0.0546847 0)
(2.71295 -0.0493109 1.01913e-20)
(2.8056 -0.0440368 0)
(2.89141 -0.0386851 0)
(2.97064 -0.0333896 -9.89687e-21)
(3.04366 -0.0284785 0)
(3.11085 -0.0241063 9.69361e-21)
(3.17263 -0.0202643 0)
(3.2294 -0.0168824 -9.48955e-21)
(3.2815 -0.0138848 -9.38817e-21)
(3.32925 -0.0112111 -9.28762e-21)
(3.37292 -0.00881888 -1.83763e-20)
(3.41279 -0.00667971 1.81798e-20)
(3.44911 -0.00477314 0)
(3.48213 -0.00308339 0)
(3.51206 -0.00159679 0)
(3.53915 -0.000300009 1.74246e-20)
(3.56359 0.000820095 1.72443e-20)
(3.5856 0.00177606 -1.70677e-20)
(3.60537 0.00257985 0)
(3.62309 0.00324418 1.67253e-20)
(3.63892 0.00378395 1.65596e-20)
(3.65303 0.0042131 1.63975e-20)
(3.66557 0.00453188 0)
(3.6767 0.00471041 0)
(3.68658 0.00469048 0)
(3.69545 0.0044285 1.5784e-20)
(3.70356 0.00396844 0)
(3.71107 0.00347933 0)
(3.71799 0.00317686 -1.53585e-20)
(3.72416 0.00315135 0)
(3.72941 0.00337131 0)
(3.73351 0.00384138 -1.49589e-20)
(3.73619 0.00446678 0)
(3.7375 0.00503309 0)
(3.73761 0.00542109 1.45819e-20)
(3.73673 0.00562328 1.44613e-20)
(3.7351 0.00567741 0)
(3.73287 0.00565376 -1.42272e-20)
(3.73018 0.00558844 0)
(3.72711 0.00549531 1.4002e-20)
(3.72375 0.00536532 0)
(3.72022 0.00516266 1.3785e-20)
(3.71662 0.00487226 1.36794e-20)
(3.71309 0.0045068 0)
(3.70969 0.00410005 0)
(3.70647 0.00369652 0)
(3.70343 0.00333588 0)
(3.70052 0.00303994 0)
(3.6977 0.00280939 0)
(3.69492 0.00262985 0)
(3.69216 0.00248231 1.28932e-20)
(3.68942 0.00235178 -1.28011e-20)
(3.68669 0.0022308 0)
(3.68399 0.002118 0)
(3.68131 0.00201464 0)
(3.67865 0.00192175 0)
(3.67601 0.00183897 -2.47143e-20)
(3.67339 0.00176491 0)
(3.67077 0.00169796 2.4373e-20)
(3.66816 0.00163684 -2.42051e-20)
(3.66555 0.00158077 0)
(3.66295 0.0015293 0)
(3.66034 0.0014821 0)
(3.65773 0.00143888 2.355e-20)
(3.65512 0.00139936 2.33901e-20)
(3.6525 0.00136327 0)
(3.64987 0.00133038 2.30748e-20)
(3.64723 0.00130049 2.29193e-20)
(3.64457 0.00127341 -2.27651e-20)
(3.64191 0.00124893 0)
(3.63922 0.00122684 0)
(3.63652 0.00120696 -2.23106e-20)
(3.63381 0.00118914 0)
(3.63107 0.00117332 0)
(3.62831 0.00115948 0)
(3.62553 0.00114768 0)
(3.62272 0.00113807 2.15785e-20)
(3.61988 0.00113084 2.14358e-20)
(3.617 0.00112632 0)
(3.61409 0.00112493 2.11541e-20)
(3.61113 0.00112724 0)
(3.60811 0.001134 0)
(3.60503 0.00114618 2.07407e-20)
(3.60186 0.00116497 0)
(3.59859 0.00119186 2.04717e-20)
(3.5952 0.0012287 0)
(3.59165 0.00127776 0)
(3.5879 0.00134197 2.00789e-20)
(3.58391 0.00142507 0)
(3.57961 0.00153199 1.98254e-20)
(3.57493 0.00166933 0)
(3.56974 0.00184594 0)
(3.56393 0.00207397 0)
(3.55729 0.00237025 -1.93462e-20)
(3.54958 0.00275855 0)
(3.54047 0.0032731 1.91276e-20)
(3.52948 0.00396434 0)
(3.51593 0.00490871 0)
(3.4989 0.00622439 0)
(3.47687 0.00810289 0)
(3.44792 0.0108547 0)
(3.4078 0.0149861 0)
(3.35368 0.0216157 0)
(3.26687 0.0308888 -3.74316e-20)
(3.16778 0.0535487 0)
(2.884 0.0576497 0)
(-0.0666741 0.0923195 8.661e-21)
(-0.122384 0.121981 -8.54331e-21)
(-0.2373 0.142011 0)
(-0.344112 0.159637 5.62911e-21)
(-0.456505 0.176148 0)
(-0.576515 0.193371 2.85437e-21)
(-0.70343 0.212346 -5.66958e-21)
(-0.837636 0.233212 -5.71066e-21)
(-0.979164 0.255888 0)
(-1.12791 0.280325 -5.8347e-21)
(-1.28392 0.306333 -2.98771e-21)
(-1.44723 0.33361 0)
(-1.6177 0.361919 0)
(-1.79503 0.390981 0)
(-1.9788 0.420426 0)
(-2.1684 0.449785 -3.28304e-21)
(-2.36301 0.478477 0)
(-2.56163 0.505817 6.91914e-21)
(-2.76307 0.531037 0)
(-2.96594 0.553299 0)
(-3.16874 0.57172 -7.58215e-21)
(-3.36978 0.585394 0)
(-3.56729 0.593441 8.0911e-21)
(-3.75938 0.595013 -4.07921e-21)
(-3.94408 0.589406 4.19532e-21)
(-4.11942 0.576071 -4.30899e-21)
(-4.28347 0.554638 -4.41672e-21)
(-4.43447 0.524932 0)
(-4.57084 0.486971 0)
(-4.69116 0.440991 4.65864e-21)
(-4.79417 0.38742 -5.13946e-21)
(-4.87877 0.326825 0)
(-4.94402 0.259997 0)
(-4.9889 0.188108 4.58762e-21)
(-5.01278 0.112732 0)
(-5.0161 0.0358784 0)
(-4.99743 -0.0396381 -4.07518e-21)
(-4.94965 -0.113148 0)
(-4.87261 -0.184003 3.9024e-21)
(-4.76534 -0.251674 -6.22291e-21)
(-4.62821 -0.315432 0)
(-4.46263 -0.374241 0)
(-4.27047 -0.427382 -7.75051e-21)
(-4.05413 -0.474233 -5.6713e-21)
(-3.81628 -0.514327 -3.52523e-21)
(-3.55988 -0.547376 9.1236e-22)
(-3.28801 -0.573283 6.26911e-22)
(-3.00382 -0.59214 4.65355e-21)
(-2.7104 -0.604213 -5.06828e-21)
(-2.41076 -0.609918 -3.67621e-21)
(-2.10769 -0.609794 0)
(-1.80377 -0.604466 5.48778e-21)
(-1.50126 -0.594623 -6.12693e-21)
(-1.20209 -0.58101 0)
(-0.907871 -0.564459 0)
(-0.619998 -0.545923 0)
(-0.33971 -0.526336 8.91665e-21)
(-0.0681434 -0.505458 0)
(0.193931 -0.483277 -1.93692e-20)
(0.446248 -0.460268 0)
(0.688596 -0.436929 -2.02677e-20)
(0.920834 -0.413625 0)
(1.14285 -0.390708 2.07895e-20)
(1.35468 -0.368526 0)
(1.55662 -0.347107 -2.10245e-20)
(1.74906 -0.326335 1.04966e-20)
(1.93229 -0.306253 0)
(2.1065 -0.286958 2.09973e-20)
(2.27196 -0.26851 1.04868e-20)
(2.42896 -0.250934 1.04311e-20)
(2.57782 -0.23423 0)
(2.71887 -0.218382 1.02372e-20)
(2.85245 -0.203349 1.0206e-20)
(2.97889 -0.189071 0)
(3.09852 -0.175517 -1.00249e-20)
(3.2116 -0.162809 1.98149e-20)
(3.31863 -0.151046 0)
(3.42025 -0.140092 9.73429e-21)
(3.51678 -0.129812 0)
(3.6084 -0.120174 -2.85681e-20)
(3.69524 -0.111143 0)
(3.77743 -0.102687 2.79664e-20)
(3.85514 -0.094772 9.23271e-21)
(3.92851 -0.087368 -9.10213e-21)
(3.99773 -0.0804482 -1.80088e-20)
(4.06297 -0.073989 1.78154e-20)
(4.12444 -0.0679683 0)
(4.18229 -0.0623654 0)
(4.23672 -0.0571596 0)
(4.28788 -0.0523302 -5.13006e-20)
(4.33595 -0.0478566 -1.69348e-20)
(4.38109 -0.0437183 1.67579e-20)
(4.42345 -0.039896 0)
(4.46318 -0.0363711 1.63787e-20)
(4.50041 -0.0331251 -1.62495e-20)
(4.5353 -0.0301389 -1.60876e-20)
(4.56798 -0.0273964 0)
(4.59855 -0.0248904 0)
(4.62709 -0.0226183 0)
(4.6536 -0.0205756 -1.54766e-20)
(4.67816 -0.0187543 0)
(4.70095 -0.0171069 3.03646e-20)
(4.72213 -0.0155327 4.51492e-20)
(4.74183 -0.013961 -2.98278e-20)
(4.76012 -0.0123511 0)
(4.77718 -0.0106491 -1.46481e-20)
(4.79329 -0.00889434 0)
(4.80845 -0.00722239 -2.88189e-20)
(4.82259 -0.00572511 1.42827e-20)
(4.83565 -0.0044322 1.41658e-20)
(4.8476 -0.00332505 0)
(4.85842 -0.0024072 4.18357e-20)
(4.86816 -0.00165119 -2.76656e-20)
(4.87696 -0.00104805 -1.3728e-20)
(4.8849 -0.000556484 0)
(4.89206 -0.000189064 -1.3516e-20)
(4.89849 5.92681e-05 -4.02338e-20)
(4.90423 0.00021365 0)
(4.90932 0.000303576 -2.64211e-20)
(4.91381 0.000359701 -2.62263e-20)
(4.91775 0.000407828 -2.60347e-20)
(4.92123 0.00046293 0)
(4.9243 0.000527971 0)
(4.92701 0.000597442 0)
(4.9294 0.000662945 1.26471e-20)
(4.93149 0.000717954 1.25601e-20)
(4.9333 0.000760016 0)
(4.93485 0.000790381 2.47683e-20)
(4.93616 0.000812226 2.45966e-20)
(4.93724 0.000828867 0)
(4.93812 0.000842732 2.42602e-20)
(4.93881 0.000855163 4.81861e-20)
(4.93932 0.000866721 -2.39298e-20)
(4.93967 0.000877584 -2.37655e-20)
(4.93986 0.000887821 0)
(4.9399 0.000897511 0)
(4.93981 0.000906755 0)
(4.93958 0.000915648 -2.3133e-20)
(4.93924 0.000924256 2.29772e-20)
(4.93877 0.000932604 4.56488e-20)
(4.9382 0.000940684 -2.26729e-20)
(4.93752 0.000948466 2.25215e-20)
(4.93674 0.000955905 2.23729e-20)
(4.93587 0.000962964 0)
(4.93492 0.000969633 0)
(4.93387 0.000975955 -2.19322e-20)
(4.93275 0.000982053 0)
(4.93156 0.000988154 0)
(4.93029 0.00099459 4.30064e-20)
(4.92896 0.0010018 0)
(4.92756 0.00101032 2.12228e-20)
(4.9261 0.00102079 -2.10848e-20)
(4.92458 0.00103399 0)
(4.923 0.00105082 2.08112e-20)
(4.92135 0.00107242 0)
(4.91965 0.00110025 0)
(4.91788 0.00113612 -2.04106e-20)
(4.91604 0.00118234 4.05583e-20)
(4.91413 0.00124178 -2.01495e-20)
(4.91213 0.00131809 0)
(4.91004 0.00141583 0)
(4.90783 0.00154083 1.97671e-20)
(4.90549 0.00170058 0)
(4.90298 0.00190489 1.95204e-20)
(4.90027 0.00216666 0)
(4.8973 0.00250315 0)
(4.894 0.00293766 0)
(4.89029 0.0035021 1.90558e-20)
(4.88604 0.00424098 0)
(4.88109 0.00521742 -1.88428e-20)
(4.87522 0.00652377 0)
(4.86813 0.00829639 0)
(4.85941 0.0107497 3.71241e-20)
(4.84839 0.0142058 -3.69751e-20)
(4.83447 0.0192525 0)
(4.81546 0.0266292 0)
(4.79209 0.038642 0)
(4.75217 0.0550204 1.10344e-19)
(4.71714 0.0934143 0)
(4.5987 0.1165 -7.39307e-20)
(-0.0865891 0.355846 -2.00473e-23)
(-0.182547 0.406033 1.13663e-20)
(-0.334931 0.434963 0)
(-0.475648 0.458068 -1.12087e-20)
(-0.618686 0.481646 0)
(-0.765063 0.506791 0)
(-0.914047 0.533469 -9.55459e-24)
(-1.06575 0.561489 5.64401e-21)
(-1.22001 0.590654 5.713e-21)
(-1.37668 0.620841 5.75296e-21)
(-1.53561 0.651978 0)
(-1.69663 0.683788 0)
(-1.85958 0.715826 -6.093e-21)
(-2.02425 0.747546 -1.24649e-20)
(-2.19036 0.778318 1.27816e-20)
(-2.35761 0.807459 0)
(-2.52571 0.834245 1.35328e-20)
(-2.69442 0.857918 -6.82379e-21)
(-2.8636 0.877693 0)
(-3.0332 0.892763 1.49572e-20)
(-3.20323 0.902306 7.49906e-21)
(-3.3737 0.9055 -1.60869e-20)
(-3.54458 0.901544 -8.01636e-21)
(-3.71562 0.889709 0)
(-3.88631 0.869348 1.79374e-20)
(-4.05575 0.839885 1.85517e-20)
(-4.2226 0.800829 0)
(-4.38501 0.751819 1.96764e-20)
(-4.5406 0.692689 0)
(-4.68654 0.623471 2.05146e-20)
(-4.81964 0.544384 9.73273e-21)
(-4.93654 0.455858 0)
(-5.0337 0.358576 0)
(-5.1078 0.253236 0)
(-5.15512 0.141429 0)
(-5.17153 0.025234 0)
(-5.15625 -0.0937585 0)
(-5.10861 -0.214242 1.73791e-20)
(-5.02735 -0.33327 -2.32862e-20)
(-4.91289 -0.448344 0)
(-4.76644 -0.557031 0)
(-4.59006 -0.657342 0)
(-4.38603 -0.747839 -1.06988e-21)
(-4.15711 -0.827403 5.60072e-21)
(-3.90639 -0.895258 7.83012e-21)
(-3.63712 -0.950966 -3.42647e-21)
(-3.35267 -0.994421 1.52022e-22)
(-3.05638 -1.02583 -2.94501e-21)
(-2.7515 -1.04572 4.9916e-22)
(-2.4411 -1.05482 -6.57205e-21)
(-2.12799 -1.05412 0)
(-1.81468 -1.0447 -1.03524e-20)
(-1.50339 -1.02774 2.66851e-22)
(-1.19602 -1.00444 0)
(-0.894191 -0.975981 0)
(-0.599336 -0.943553 1.63006e-20)
(-0.312715 -0.908206 0)
(-0.0353311 -0.870816 0)
(0.232131 -0.832152 -1.8951e-20)
(0.489307 -0.792821 -3.91959e-20)
(0.735849 -0.753397 2.01167e-20)
(0.97161 -0.71436 0)
(1.19658 -0.676068 -2.06446e-20)
(1.41085 -0.638715 0)
(1.61468 -0.602402 -2.07132e-20)
(1.8085 -0.567269 -2.09216e-20)
(1.99276 -0.53347 4.16686e-20)
(2.16792 -0.501096 2.0715e-20)
(2.33442 -0.470184 0)
(2.49266 -0.440741 -4.12131e-20)
(2.64305 -0.412755 0)
(2.78595 -0.386197 -6.10531e-20)
(2.92169 -0.361025 -4.03342e-20)
(3.05061 -0.337177 -3.99827e-20)
(3.17305 -0.314585 3.96113e-20)
(3.28933 -0.293244 -5.88881e-20)
(3.39968 -0.273284 0)
(3.5043 -0.25472 0)
(3.60342 -0.237377 3.80059e-20)
(3.69731 -0.22109 5.64287e-20)
(3.7862 -0.205756 0)
(3.8703 -0.191312 -1.84182e-20)
(3.94981 -0.177713 0)
(4.02493 -0.164924 5.39288e-20)
(4.09586 -0.152915 7.17972e-23)
(4.16279 -0.141657 -6.88417e-23)
(4.2259 -0.131121 -3.47194e-20)
(4.28537 -0.121275 0)
(4.34138 -0.112088 3.39455e-20)
(4.39409 -0.103529 5.79906e-23)
(4.44368 -0.0955646 0)
(4.49029 -0.0881648 0)
(4.53409 -0.0812984 0)
(4.57523 -0.0749363 -3.21962e-20)
(4.61386 -0.0690503 0)
(4.65011 -0.0636096 0)
(4.68411 -0.0585752 0)
(4.71598 -0.0539004 0)
(4.74579 -0.0495574 0)
(4.77363 -0.0455974 -3.02639e-20)
(4.79963 -0.0421391 0)
(4.82404 -0.039117 -2.97321e-20)
(4.84692 -0.0361724 -2.94693e-20)
(4.86834 -0.0331556 2.92192e-20)
(4.88834 -0.0301295 0)
(4.90698 -0.0272025 2.87355e-20)
(4.92436 -0.0244259 0)
(4.94059 -0.0218043 2.82708e-20)
(4.95574 -0.0193488 -2.80455e-20)
(4.96986 -0.0170745 -8.3436e-20)
(4.98297 -0.0149875 0)
(4.99517 -0.0131139 -8.2157e-20)
(5.00652 -0.0114473 -2.71592e-20)
(5.01709 -0.00997351 0)
(5.02691 -0.00872832 -5.35441e-20)
(5.03599 -0.00766809 -5.31519e-20)
(5.04439 -0.00676337 7.9159e-20)
(5.05217 -0.0059939 0)
(5.05935 -0.00533519 2.60139e-20)
(5.06596 -0.00476276 2.58287e-20)
(5.07205 -0.0042551 7.69248e-20)
(5.07765 -0.00379519 0)
(5.08282 -0.00337156 0)
(5.08757 -0.00297801 0)
(5.09195 -0.00261212 2.49305e-20)
(5.09597 -0.00227332 0)
(5.09964 -0.00196137 0)
(5.103 -0.00167546 -2.44315e-20)
(5.10605 -0.00141405 -2.42659e-20)
(5.1088 -0.00117498 0)
(5.11128 -0.000955869 0)
(5.11351 -0.000754393 -4.75581e-20)
(5.11549 -0.000568515 0)
(5.11725 -0.000396567 4.69245e-20)
(5.1188 -0.000237224 4.66091e-20)
(5.12015 -8.94194e-05 0)
(5.12132 4.77599e-05 0)
(5.12231 0.000175121 -4.56895e-20)
(5.12313 0.000293405 -1.89051e-24)
(5.12381 0.000403275 -1.65613e-24)
(5.12433 0.000505304 0)
(5.12473 0.000599988 -8.89999e-20)
(5.12499 0.000687747 0)
(5.12514 0.000768971 0)
(5.12517 0.000844042 0)
(5.1251 0.000913374 4.33479e-20)
(5.12493 0.000977443 0)
(5.12466 0.00103682 -8.55695e-20)
(5.12431 0.00109219 -4.25072e-20)
(5.12388 0.00114439 0)
(5.12337 0.00119439 -4.19578e-20)
(5.12279 0.00124329 0)
(5.12213 0.00129239 0)
(5.12142 0.00134316 -1.2345e-19)
(5.12063 0.00139732 8.17704e-20)
(5.11978 0.00145695 0)
(5.11887 0.0015246 8.07249e-20)
(5.11789 0.00160347 -4.01049e-20)
(5.11684 0.00169754 0)
(5.11572 0.00181182 0)
(5.11451 0.00195264 0)
(5.1132 0.00212802 -1.17298e-19)
(5.11178 0.00234819 0)
(5.11022 0.0026264 -3.86155e-20)
(5.10849 0.00297997 0)
(5.10655 0.00343176 0)
(5.10434 0.00401239 0)
(5.1018 0.00476333 0)
(5.09884 0.0057418 0)
(5.09532 0.0070278 0)
(5.09109 0.0087368 -7.41558e-20)
(5.08593 0.0110356 0)
(5.07957 0.0141849 -3.67422e-20)
(5.07158 0.0185587 1.09756e-19)
(5.06163 0.0248603 0)
(5.04851 0.0338896 0)
(5.03306 0.0482746 -7.26344e-20)
(5.00978 0.0682076 -7.28394e-20)
(4.99024 0.109 7.27724e-20)
(4.94974 0.149938 7.33259e-20)
(-0.0864098 0.641251 -1.72692e-20)
(-0.192473 0.710641 -1.70425e-20)
(-0.345318 0.74039 -1.12881e-20)
(-0.488545 0.762288 -5.66976e-21)
(-0.630633 0.784681 0)
(-0.772835 0.808583 1.12525e-20)
(-0.914398 0.833849 -5.71524e-21)
(-1.05559 0.860331 0)
(-1.19662 0.887951 -5.68562e-21)
(-1.33784 0.916652 0)
(-1.47961 0.946319 1.18679e-20)
(-1.6223 0.976723 0)
(-1.76632 1.00749 6.07699e-21)
(-1.91205 1.03815 1.24397e-20)
(-2.05999 1.06817 -1.27631e-20)
(-2.21075 1.09703 0)
(-2.36515 1.12427 -1.35254e-20)
(-2.52421 1.14946 0)
(-2.68905 1.17208 0)
(-2.86075 1.19149 -1.49525e-20)
(-3.04009 1.20679 0)
(-3.22738 1.21674 -7.11527e-22)
(-3.42225 1.21984 0)
(-3.62357 1.2143 0)
(-3.82938 1.19821 1.06433e-21)
(-4.03699 1.16963 -1.84594e-20)
(-4.24301 1.12674 -2.03694e-20)
(-4.44358 1.06801 -1.95386e-20)
(-4.63453 0.992381 0)
(-4.81163 0.899342 -4.24662e-20)
(-4.97074 0.789071 0)
(-5.10772 0.662545 -2.27078e-20)
(-5.21861 0.521462 0)
(-5.30038 0.367694 0)
(-5.3502 0.203165 2.22093e-20)
(-5.36557 0.0311898 0)
(-5.34485 -0.144901 -2.06061e-20)
(-5.28762 -0.320821 2.15053e-21)
(-5.19417 -0.493154 3.37109e-20)
(-5.0652 -0.658778 -3.24177e-20)
(-4.90194 -0.814382 0)
(-4.70708 -0.957322 0)
(-4.48365 -1.08547 -1.16966e-20)
(-4.23513 -1.19731 0)
(-3.96531 -1.29186 -4.29336e-21)
(-3.67811 -1.36866 2.07035e-21)
(-3.37746 -1.42772 -1.50192e-22)
(-3.06719 -1.46954 0)
(-2.75087 -1.49501 4.4615e-21)
(-2.43168 -1.50542 6.50018e-21)
(-2.11236 -1.50227 -1.58284e-20)
(-1.79517 -1.48723 1.0247e-20)
(-1.4819 -1.46199 1.19305e-20)
(-1.17395 -1.42823 0)
(-0.872384 -1.38752 0)
(-0.578041 -1.34131 -1.61604e-20)
(-0.29159 -1.2909 0)
(-0.0136773 -1.23739 0)
(0.255153 -1.18184 3.78536e-20)
(0.514544 -1.12518 3.88938e-20)
(0.76403 -1.06825 0)
(1.00325 -1.01178 0)
(1.23193 -0.956387 0)
(1.44987 -0.90256 0)
(1.65704 -0.850638 4.13545e-20)
(1.85355 -0.800851 -4.12055e-20)
(2.03967 -0.75334 -4.14473e-20)
(2.21577 -0.708159 -8.25243e-20)
(2.38236 -0.665287 0)
(2.53997 -0.624651 1.8937e-22)
(2.6892 -0.586153 0)
(2.83061 -0.549686 4.0489e-20)