/*--------------------------------*- C++ -*----------------------------------*\
| =========                 |                                                 |
| \\      /  F ield         | OpenFOAM: The Open Source CFD Toolbox           |
|  \\    /   O peration     | Version:  2112                                  |
|   \\  /    A nd           | Website:  www.openfoam.com                      |
|    \\/     M anipulation  |                                                 |
\*---------------------------------------------------------------------------*/
FoamFile
{
    version     2.0;
    format      ascii;
    arch        "LSB;label=32;scalar=64";
    class       volScalarField;
    location    "0.28";
    object      epsilon;
}
// * * * * * * * * * * * * * * * * * * * * * * * * * * * * * * * * * * * * * //

dimensions      [0 2 -3 0 0 0 0];

internalField   nonuniform List<scalar> 
12225
(
2117.48
3608.51
4528.28
4947.49
5043.45
4960.48
4789.48
4582.02
4365.68
4154.14
3953.27
3764.74
3588
3421.32
3262.3
3108.02
2955.12
2798.86
164.798
344.263
480.717
569.554
621.14
647.321
658.642
662.986
665.264
668.334
673.858
682.836
695.944
713.754
736.933
766.372
804.002
852.438
35.3271
63.5675
89.4851
110.813
127.167
138.674
146.098
150.504
152.894
154.103
154.795
155.498
156.645
158.619
161.817
166.722
174.092
184.98
19.2664
25.9976
32.9147
39.2865
44.8504
49.489
53.2092
56.1085
58.3212
59.9892
61.25
62.2321
63.0553
63.8346
64.6893
65.7552
67.2203
69.3049
15.8674
17.8364
20.1416
22.4708
24.6712
26.6593
28.4001
29.8932
31.1568
32.2184
33.1098
33.8645
34.5169
35.1017
35.6552
36.2174
36.8366
37.5625
14.9676
15.476
16.2317
17.1028
18.0042
18.8814
19.7021
20.4511
21.1241
21.7234
22.2552
22.7283
23.1532
23.5413
23.9053
24.2589
24.6171
24.9897
14.7206
14.7332
14.8831
15.1312
15.4398
15.7781
16.1238
16.4621
16.7847
17.0874
17.3688
17.6298
17.8729
18.1015
18.3198
18.5328
18.7454
18.9573
14.6552
14.5052
14.4206
14.396
14.4205
14.4814
14.5669
14.6677
14.7767
14.8891
15.0019
15.1135
15.2234
15.3317
15.4396
15.5483
15.6591
15.7698
14.6388
14.4399
14.2722
14.1371
14.0333
13.9572
13.9046
13.8709
13.8522
13.8453
13.8476
13.8572
13.873
13.8942
13.9204
13.9518
13.9881
14.0273
14.6349
14.4227
14.2287
14.054
13.8986
13.762
13.643
13.5399
13.4511
13.3748
13.3097
13.2545
13.2082
13.17
13.1393
13.1157
13.0988
13.0871
14.6339
14.4184
14.2171
14.0298
13.8564
13.6965
13.5497
13.4153
13.2926
13.1808
13.0793
12.9872
12.9041
12.8294
12.7626
12.7033
12.6511
12.6053
14.6337
14.4174
14.2143
14.0238
13.8452
13.6782
13.5221
13.3764
13.2407
13.1145
12.9973
12.8886
12.7881
12.6954
12.6102
12.532
12.4607
12.3961
14.6336
14.417
14.2134
14.022
13.8419
13.6724
13.513
13.3631
13.2221
13.0897
12.9655
12.849
12.7399
12.638
12.543
12.4545
12.3723
12.2968
14.6335
14.4168
14.2131
14.0214
13.8409
13.6707
13.5104
13.3591
13.2164
13.0818
12.9548
12.8352
12.7225
12.6166
12.5169
12.4235
12.3359
12.2548
14.6334
14.4167
14.2129
14.0212
13.8406
13.6703
13.5098
13.3583
13.2152
13.0802
12.9526
12.8322
12.7186
12.6114
12.5103
12.4151
12.3257
12.2425
14.6334
14.4166
14.2128
14.021
13.8404
13.6703
13.5098
13.3584
13.2154
13.0805
12.953
12.8326
12.719
12.6117
12.5105
12.4151
12.3253
12.2417
14.6333
14.4165
14.2126
14.0209
13.8403
13.6703
13.5099
13.3587
13.216
13.0813
12.9541
12.834
12.7206
12.6137
12.5127
12.4176
12.328
12.2445
14.6332
14.4164
14.2125
14.0208
13.8403
13.6704
13.5102
13.3592
13.2168
13.0824
12.9556
12.8359
12.7229
12.6164
12.5158
12.421
12.3318
12.2486
14.6332
14.4163
14.2124
14.0207
13.8404
13.6706
13.5107
13.3599
13.2179
13.0839
12.9575
12.8383
12.7258
12.6197
12.5196
12.4253
12.3364
12.2535
14.6332
14.4162
14.2124
14.0208
13.8406
13.671
13.5114
13.361
13.2193
13.0857
12.9597
12.841
12.729
12.6233
12.5237
12.4297
12.3412
12.2587
14.6331
14.4162
14.2125
14.021
13.8411
13.6718
13.5124
13.3625
13.2212
13.0882
12.9628
12.8447
12.7333
12.6284
12.5294
12.4362
12.3483
12.2664
14.6332
14.4164
14.2129
14.0219
13.8425
13.6742
13.5161
13.3676
13.2283
13.0974
12.9745
12.859
12.7505
12.6486
12.5529
12.4629
12.3783
12.2996
14.6334
14.4173
14.2155
14.0274
13.8526
13.6904
13.5401
13.4009
13.2721
13.1527
13.042
12.9393
12.8439
12.7552
12.6726
12.5956
12.5237
12.4573
14.6352
14.4257
14.2371
14.0699
13.9237
13.7971
13.6879
13.5937
13.5123
13.4412
13.3787
13.3228
13.2721
13.2256
13.1828
13.143
13.1057
13.0712
14.6521
14.4919
14.3876
14.3344
14.3236
14.345
14.3889
14.4467
14.5118
14.5789
14.6443
14.7054
14.7604
14.8085
14.8485
14.8803
14.9043
14.9225
14.7822
14.9176
15.2209
15.6345
16.1075
16.6011
17.0873
17.5478
17.9715
18.3523
18.6876
18.9773
19.2231
19.4277
19.5944
19.727
19.8291
19.9049
15.6383
17.2415
19.1906
21.2336
23.2335
25.1089
26.8052
28.2948
29.5697
30.634
31.4999
32.1848
32.7086
33.0921
33.3554
33.5174
33.5957
33.6085
21.1331
30.2819
39.6053
48.4803
56.5821
63.6705
69.5589
74.2304
77.7661
80.2912
81.9522
82.9006
83.2793
83.2153
82.8177
82.1795
81.3762
80.4832
70.7211
133.884
192.688
245.558
289.93
324.313
348.724
364.681
374.082
378.657
379.84
378.76
376.265
372.967
369.3
365.58
362.043
359.007
983.066
1559.98
2040.86
2444.88
2749.12
2954.69
3075.12
3128.43
3132.57
3103.03
3052.04
2988.67
2919.38
2848.58
2779.15
2712.87
2650.69
2593.24
21.3945
24.9588
45.0093
77.0223
119.591
164.634
196.953
219.216
234.649
244.946
251.423
255.134
256.891
257.291
256.758
255.578
253.94
251.961
249.707
247.204
244.447
241.402
238.024
234.286
230.299
225.834
220.686
214.66
207.573
199.269
189.626
178.581
166.148
152.447
137.731
122.383
106.913
91.8938
77.8859
65.333
54.482
45.3534
37.8244
31.6484
26.4245
21.9324
18.3107
17.0037
18.3441
20.5043
22.7707
25.0923
27.4889
29.9602
32.5703
35.7149
38.1169
39.6019
40.5428
41.4069
42.7291
45.1421
49.3161
53.9451
57.964
60.7716
62.8338
65.3789
71.593
84.5985
105.631
132.277
149.371
150.455
148.627
215.117
312.763
417.946
521.03
616.614
702.064
776.516
840.139
893.639
937.948
974.061
1002.94
1025.48
1042.54
1054.87
1063.24
1068.37
1070.97
1071
1068.24
1063.02
1055.55
1046.02
1034.57
1021.31
1006.36
989.823
971.769
952.269
931.378
909.13
885.547
860.629
834.361
806.71
777.627
747.053
714.924
681.182
645.786
608.733
570.078
529.957
488.615
446.436
404.008
362.358
323.957
296.732
280.146
264.65
249.603
235.201
221.671
209.186
197.847
187.694
178.714
170.856
164.036
158.149
153.071
148.669
144.78
141.165
137.511
133.509
128.929
123.679
117.783
111.379
104.707
98.0872
91.8661
86.3509
81.7414
78.0921
75.32
73.2489
71.6723
70.4106
69.3536
68.4846
67.8901
67.7549
68.3395
69.94
72.8546
77.3811
83.8488
92.6432
104.157
118.668
136.189
156.674
180.238
208.68
245.27
284.399
321.673
356.55
389.064
419.897
450.389
474.345
29.3761
26.5979
68.8135
123.485
155.932
171.524
176.861
176.017
171.29
164.236
156.037
147.536
139.261
131.491
124.345
117.844
111.96
106.637
101.815
97.4298
93.4258
89.7492
86.3658
83.3769
81.4828
80.3821
79.8842
79.8066
79.9835
80.2677
80.5321
80.6714
80.6033
80.2703
79.643
78.722
77.5382
76.1469
74.6153
73.0057
71.3582
69.6812
67.9555
66.1475
64.2222
62.1887
60.1166
58.0875
56.1427
54.2107
52.2955
50.555
49.1236
47.915
46.4305
43.578
40.2095
37.0646
34.5416
33.059
33.1211
35.2079
39.4558
45.3445
52.1315
59.6741
70.3643
88.303
129.489
201.347
317.92
516.63
642.892
667.577
629.941
580.079
535.325
496.685
464.551
438.372
417.248
400.266
386.628
375.669
366.844
359.715
353.947
349.299
345.631
342.905
341.178
340.583
341.356
342.602
343.39
343.714
343.603
343.086
342.185
340.92
339.307
337.357
335.077
332.468
329.524
326.232
322.572
318.513
314.015
309.026
303.484
297.315
290.436
282.758
274.19
264.646
254.061
242.397
229.666
215.95
201.424
186.399
171.306
157.733
145.524
133.733
122.452
111.831
101.98
92.9682
84.8195
77.5247
71.049
65.3398
60.3345
55.966
52.1668
48.8729
46.0322
43.637
41.9537
41.0295
40.5113
40.2477
40.1772
40.2864
40.594
41.1379
41.9609
43.0894
44.5142
46.1776
47.9764
49.7759
51.4292
52.7949
53.7533
54.2314
54.2449
53.9576
53.7295
54.111
55.763
59.35
65.455
74.477
86.435
100.822
116.761
133.504
150.592
167.766
184.247
198.96
211.876
223.227
233.86
244.401
255.196
265.539
48.3479
82.011
171.079
201.094
195.404
178.83
161.948
147.552
135.768
126.135
118.182
111.52
105.84
100.906
96.5429
92.6253
89.0658
85.8032
82.7937
80.0052
77.4129
74.9998
72.7556
70.6838
68.8356
67.2898
66.0407
65.0726
64.3553
63.8415
63.47
63.1711
62.8761
62.5262
62.0812
61.5236
60.8572
60.102
59.2857
58.4352
57.569
56.6945
55.8076
54.8984
53.9581
52.9933
52.0347
51.1169
50.233
49.2948
48.171
46.759
45.0194
42.9469
40.5409
37.9306
35.2311
32.6038
30.6493
30.1954
32.3913
38.5919
49.8347
66.0931
87.5964
117.306
171.963
271.67
448.622
617.668
706.039
707.296
641.839
553.674
472.318
409.503
364.399
333.081
312.377
299.591
292.403
288.906
287.649
287.648
288.319
289.363
290.654
292.151
293.847
295.741
297.829
300.088
302.271
304.063
305.373
306.211
306.607
306.592
306.198
305.454
304.383
303.009
301.349
299.417
297.224
294.772
292.058
289.07
285.786
282.173
278.184
273.754
268.805
263.241
256.954
249.826
241.741
232.594
222.312
210.865
198.298
184.715
170.326
156.763
143.693
130.981
118.791
107.293
96.611
86.8217
77.9551
70.004
62.9328
56.687
51.2004
46.4018
42.2191
38.5832
35.432
32.7138
30.3914
28.4351
26.8513
25.5842
24.5807
23.804
23.2277
22.8361
22.6248
22.5981
22.7661
23.138
23.7169
24.4954
25.4546
26.5661
27.7962
29.1119
30.4981
32.0005
33.8058
36.3325
40.2599
46.4321
55.6255
68.193
83.7072
100.98
118.615
135.592
151.252
165.143
176.936
186.649
194.765
201.96
209.013
216.318
224.026
232.283
76.1039
203.165
241.002
216.257
182.709
156.351
138.015
125.43
116.564
110.026
104.911
100.645
96.8848
93.4417
90.2259
87.2026
84.3651
81.718
79.2681
77.0204
74.9762
73.1326
71.4831
70.0203
68.7519
67.7257
66.9642
66.4682
66.227
66.2137
66.3859
66.6872
67.0506
67.4024
67.6668
67.7726
67.6582
67.2758
66.5916
65.5855
64.25
62.5916
60.635
58.4262
56.0343
53.5474
51.0642
48.6762
46.4443
44.3787
42.4417
40.5751
38.7325
36.8951
35.0717
33.3222
31.8137
30.8721
31.2796
34.3438
42.4913
59.0089
87.3362
129.892
194.968
308.398
478.885
616.325
695.883
693.656
628.631
538.359
450.043
379.008
328.988
297.282
278.933
269.758
266.911
268.373
272.61
278.449
285.049
291.867
298.587
305.032
311.104
316.741
321.902
326.553
330.672
334.245
337.064
339.118
340.442
341.078
341.072
340.47
339.314
337.646
335.506
332.93
329.953
326.607
322.92
318.918
314.622
310.046
305.197
300.074
294.659
288.919
282.802
276.235
269.122
261.345
252.774
243.271
232.717
221.005
208.111
194.02
179.587
165.547
151.675
138.112
125.066
112.723
101.219
90.6437
81.0354
72.3934
64.6865
57.8615
51.8523
46.5855
41.9862
37.9813
34.502
31.4851
28.8741
26.6191
24.6805
23.0297
21.6304
20.4488
19.4579
18.6367
17.97
17.4482
17.0676
16.8292
16.7382
16.8027
17.0339
17.4477
18.0683
18.9343
20.112
21.7265
24.0243
27.4533
32.6996
40.5938
51.8369
66.5887
84.1352
103.02
121.667
138.911
154.03
166.659
176.791
184.803
191.346
197.123
202.787
208.701
215.01
221.869
123.968
272.526
238.297
190.381
158.126
138.747
126.99
119.432
114.084
109.82
106.037
102.45
98.953
95.5355
92.2295
89.08
86.1311
83.4202
80.9768
78.8224
76.9724
75.4363
74.2198
73.3269
72.7682
72.5958
72.8084
73.3676
74.2294
75.3418
76.6429
78.0597
79.5107
80.9092
82.1658
83.1895
83.8877
84.1674
83.9398
83.129
81.6834
79.588
76.8742
73.6241
69.966
66.0621
62.0888
58.214
54.5765
51.2714
48.3467
45.8134
43.6648
41.8957
40.5286
39.6709
39.6257
41.0547
45.1506
54.8342
76.6017
117.601
189.458
307.986
473.677
595.357
667.661
671.137
618.446
535.195
448.397
375.172
321.291
286.195
266.193
256.996
255.154
258.454
265.449
274.999
286.14
298.093
310.27
322.247
333.714
344.445
354.277
363.095
370.834
377.464
382.987
387.391
390.615
392.745
393.852
394.003
393.259
391.68
389.326
386.25
382.507
378.146
373.217
367.768
361.846
355.498
348.766
341.691
334.311
326.657
318.753
310.605
302.201
293.51
284.475
274.996
264.962
254.225
242.643
230.045
216.389
202
187.662
173.291
158.996
144.98
131.455
118.612
106.595
95.501
85.3776
76.233
68.0432
60.7611
54.3245
48.6626
43.7016
39.368
35.5914
32.3058
29.4507
26.9717
24.8211
22.9582
21.3492
19.9617
18.7669
17.7412
16.8659
16.1266
15.5133
15.0204
14.6465
14.3952
14.2762
14.309
14.5283
14.9942
15.8103
17.1576
19.3512
22.9104
28.584
37.2321
49.4998
65.3828
83.9813
103.737
123.029
140.624
155.757
168.107
177.788
185.278
191.243
196.341
201.145
206.036
211.201
216.676
268.636
287.653
213.962
170.25
147.696
135.696
128.706
123.934
120.027
116.376
112.74
109.062
105.37
101.73
98.2166
94.9006
91.8436
89.0973
86.7049
84.7023
83.12
81.9835
81.3164
81.1449
81.5118
82.5002
84.0242
85.9804
88.2633
90.766
93.379
95.9892
98.4809
100.74
102.659
104.141
105.096
105.442
105.102
104.011
102.129
99.455
96.0374
91.981
87.442
82.6128
77.7007
72.9037
68.3905
64.2873
60.6748
57.5979
55.0886
53.2069
52.1165
52.2344
54.5299
61.1021
76.2055
107.952
168.759
272.381
431.742
561.523
640.476
652.794
611.915
538.672
456.954
383.511
326.54
287.385
263.544
251.463
247.901
250.489
257.662
268.329
281.592
296.64
312.75
329.307
345.792
361.775
376.905
390.906
403.574
414.774
424.429
432.515
439.047
443.933
447.316
449.303
449.986
449.448
447.767
445.02
441.279
436.612
431.084
424.76
417.701
409.969
401.627
392.736
383.359
373.556
363.387
352.914
342.202
331.294
320.217
308.99
297.618
286.021
274.139
261.839
248.964
235.295
221.219
206.986
192.602
178.146
163.764
149.652
136.007
123.01
110.803
99.4828
89.1052
79.6855
71.2079
63.6332
56.9061
50.9616
45.7303
41.1418
37.1272
33.6215
30.5642
27.9002
25.58
23.5597
21.8011
20.2726
18.9447
17.7922
16.7942
15.9335
15.1971
14.5753
14.0628
13.6594
13.3714
13.2154
13.225
13.4621
14.0378
15.1482
17.1315
20.5368
26.1512
34.8773
47.3743
63.5888
82.5548
102.7
122.408
140.4
155.85
168.41
178.192
185.664
191.446
196.141
200.267
204.207
208.179
212.19
429.629
286.603
200.817
165.292
149.441
141.508
136.684
132.973
129.547
126.078
122.475
118.763
115.021
111.349
107.842
104.588
101.661
99.1249
97.0355
95.444
94.3976
93.9421
94.124
94.9994
96.6506
99.119
102.167
105.636
109.37
113.218
117.024
120.635
123.895
126.656
128.788
130.181
130.755
130.454
129.243
127.112
124.077
120.195
115.564
110.329
104.674
98.8086
92.9474
87.2879
81.9967
77.2019
73.0011
69.4871
66.8009
65.228
65.3761
68.5332
77.4324
97.7189
138.843
215.731
348.769
487.823
592.578
630.982
608.56
546.551
470.282
397.735
338.605
295.621
267.538
251.473
244.499
244.408
249.679
259.228
272.202
287.854
305.492
324.466
344.176
364.07
383.654
402.492
420.212
436.516
451.18
464.047
475.025
484.073
491.198
496.315
499.638
501.301
501.414
500.075
497.376
493.409
488.258
482.005
474.727
466.499
457.392
447.479
436.834
425.536
413.661
401.279
388.462
375.293
361.877
348.29
334.573
320.788
307.045
293.247
279.412
265.478
251.202
237.056
222.836
208.543
194.195
179.859
165.656
151.743
138.286
125.443
113.34
102.071
91.6917
82.2216
73.6529
65.955
59.0812
52.9748
47.5733
42.8122
38.6274
34.9572
31.7437
28.9332
26.477
24.3312
22.4561
20.819
19.3904
18.1446
17.0597
16.117
15.3016
14.6019
14.0103
13.5239
13.1468
12.8932
12.7942
12.909
13.3459
14.2975
16.0947
19.2745
24.6135
33.0234
45.2003
61.1403
79.9307
100.061
119.948
138.278
154.146
167.123
177.253
184.932
190.709
195.123
198.64
201.633
204.337
206.804
568.456
285.176
198.307
168.928
157.076
151.313
147.704
144.72
141.745
138.569
135.182
131.67
128.158
124.771
121.623
118.809
116.411
114.498
113.133
112.381
112.305
112.971
114.454
116.847
120.307
124.526
129.264
134.328
139.533
144.694
149.616
154.1
157.946
160.964
162.991
163.9
163.61
162.087
159.345
155.436
150.457
144.547
137.885
130.684
123.183
115.63
108.26
101.29
94.9034
89.2706
84.575
81.0813
79.2533
79.9668
84.8987
97.2847
123.553
177.614
266.517
383.463
500.308
574.246
587.653
549.571
484.438
414.687
354.17
308.044
276.244
256.355
245.637
241.968
243.974
250.749
261.56
275.732
292.626
311.639
332.2
353.763
375.805
397.826
419.362
439.986
459.329
477.081
493
506.908
518.685
528.265
535.626
540.736
543.828
545.05
544.521
542.352
538.647
533.508
527.032
519.314
510.441
500.496
489.557
477.704
465.02
451.602
437.541
422.911
407.779
392.228
376.427
360.472
344.388
328.234
312.328
296.455
280.718
265.486
250.508
235.793
221.276
206.912
192.685
178.622
164.795
151.311
138.293
125.862
114.122
103.152
93.0007
83.6899
75.2167
67.5586
60.6785
54.5293
49.0576
44.2071
39.9208
36.1427
32.8194
29.9008
27.3404
25.096
23.1289
21.4056
19.8971
18.5778
17.4255
16.4209
15.5482
14.7948
14.1517
13.6149
13.187
12.8804
12.7242
12.7744
13.1336
13.9835
15.6346
18.5884
23.5744
31.47
42.9897
58.2216
76.3925
96.1251
115.907
134.408
150.64
164.067
174.621
182.593
188.44
192.631
195.579
197.632
199.033
199.927
676.815
285.491
201.973
177.33
168.16
164.002
161.45
159.2
156.771
154.056
151.127
148.132
145.232
142.576
140.284
138.453
137.163
136.485
136.488
137.244
138.832
141.338
144.864
149.528
155.41
161.845
168.673
175.717
182.769
189.599
195.948
201.552
206.143
209.468
211.315
211.525
210.009
206.753
201.819
195.337
187.503
178.568
168.828
158.606
148.248
138.102
128.479
119.68
112.003
105.789
101.51
99.9081
102.262
110.794
129.246
163.254
219.332
300.165
394.63
477.649
523.884
522.646
483.805
426.915
369.743
322.385
287.894
265.087
251.375
244.461
242.947
246.121
253.526
264.702
279.126
296.254
315.556
336.535
358.716
381.64
404.852
427.907
450.374
471.849
491.971
510.427
526.958
541.365
553.497
563.254
570.544
575.457
578.198
578.915
577.732
574.764
570.124
563.925
556.274
547.274
537.023
525.611
513.121
499.63
485.221
470.026
454.148
437.666
420.628
403.066
385.279
367.376
349.324
331.063
313.356
296.02
279.128
262.787
246.984
231.699
216.883
202.479
188.443
174.761
161.454
148.573
136.189
124.382
113.22
102.76
93.0397
84.0763
75.8694
68.403
61.6491
55.5711
50.126
45.2674
40.9471
37.1169
33.7296
30.7401
28.1061
25.7883
23.7501
21.9586
20.386
19.0074
17.8005
16.7464
15.8288
15.0346
14.3546
13.7839
13.3244
12.9875
12.8004
12.8163
13.1312
13.914
15.4497
18.1951
22.8139
30.1171
40.8041
55.0498
72.2575
91.2364
110.592
129.011
145.441
159.229
170.175
178.439
184.374
188.37
190.782
191.93
192.062
191.423
760.107
289.067
210.647
189.574
182.434
179.613
178.02
176.516
174.741
172.691
170.518
168.426
166.611
165.237
164.43
164.286
164.882
166.29
168.588
171.863
176.211
181.728
188.517
196.738
205.78
215.227
225.007
234.916
244.68
253.976
262.451
269.74
275.48
279.341
281.048
280.41
277.338
271.852
264.083
254.268
242.736
229.89
216.192
202.135
188.228
174.978
162.887
152.472
144.31
139.119
137.88
142.007
153.532
175.151
209.763
258.885
319.739
382.638
432.281
455.301
447.919
416.892
374.871
333.587
300.042
276.219
260.956
252.097
247.985
247.861
251.523
258.868
269.658
283.514
299.983
318.609
338.963
360.644
383.267
406.446
429.792
452.909
475.406
496.905
517.059
535.555
552.124
566.543
578.631
588.245
595.231
599.795
602.102
602.288
600.472
596.771
591.304
584.188
575.539
565.469
554.084
541.479
527.741
512.936
497.121
480.501
463.187
445.259
426.753
407.52
388.162
368.76
349.344
330.015
311.037
292.517
274.576
257.319
240.8
225.032
209.986
195.608
181.839
168.631
155.955
143.809
132.212
121.191
110.778
101.003
91.8831
83.429
75.6384
68.5
61.9938
56.093
50.7659
45.9768
41.6878
37.8596
34.453
31.4293
28.7515
26.3844
24.2945
22.451
20.8276
19.4008
18.1492
17.054
16.0994
15.2724
14.5634
13.9675
13.4861
13.1301
12.9254
12.9218
13.2092
13.9431
15.3825
17.9375
22.2004
28.8998
38.6903
51.8031
67.8106
85.7321
104.333
122.367
138.749
152.723
163.948
172.444
178.446
182.257
184.174
184.486
183.443
181.388
827.727
298.045
224.11
205.419
199.766
198.042
197.332
196.616
195.64
194.494
193.406
192.634
192.408
192.914
194.289
196.635
200.033
204.557
210.285
217.298
225.677
235.496
246.79
259.466
272.447
285.887
299.618
313.323
326.605
339.014
350.072
359.302
366.252
370.538
371.867
370.071
365.117
357.118
346.323
333.104
317.939
301.386
284.067
266.639
249.783
234.196
220.59
209.716
202.396
199.553
202.222
211.492
228.289
252.898
284.171
318.718
350.798
373.655
382.112
375.059
355.974
331.1
306.73
286.98
273.14
264.456
259.552
257.521
258.192
261.778
268.462
278.201
290.751
305.755
322.831
341.619
361.788
383.028
405.028
427.464
450.004
472.303
494.008
514.773
534.267
552.183
568.247
582.215
593.868
603.001
609.529
613.629
615.442
615.089
612.682
608.332
602.159
594.286
584.833
573.915
561.645
548.125
533.443
517.654
500.702
483.004
464.617
445.621
426.093
406.097
385.851
365.497
345.153
324.958
305.095
285.726
267.01
249.088
232.06
215.976
200.838
186.605
173.209
160.575
148.633
137.331
126.635
116.524
106.992
98.0342
89.6498
81.8358
74.5865
67.8923
61.7396
56.111
50.9851
46.3376
42.1413
38.367
34.9842
31.9619
29.2695
26.8767
24.7539
22.8734
21.2117
19.7467
18.4584
17.3289
16.343
15.488
14.7547
14.1382
13.6398
13.2699
13.0531
13.0362
13.303
13.9959
15.3486
17.7265
21.6525
27.7693
36.6688
48.6036
63.2799
79.9173
97.4674
114.797
130.837
144.76
156.094
164.714
170.731
174.356
175.827
175.401
173.333
170.049
885.042
315.526
242.072
224.291
219.672
218.918
219.113
219.301
219.31
219.307
219.586
220.457
222.19
225.002
229.053
234.46
241.312
249.681
259.628
271.196
284.403
299.215
315.518
332.122
349.172
366.559
383.927
400.805
416.655
430.919
443.043
452.526
458.946
462.002
461.531
457.518
450.095
439.53
426.2
410.572
393.183
374.616
355.492
336.455
318.166
301.298
286.526
274.518
265.898
261.2
260.773
264.67
272.502
283.293
295.419
306.736
314.991
318.465
316.603
310.317
301.666
292.99
285.975
281.156
278.153
276.402
275.765
276.618
279.533
284.933
292.953
303.477
316.241
330.931
347.256
364.953
383.789
403.537
423.941
444.702
465.553
486.199
506.331
525.633
543.796
560.526
575.549
588.606
599.445
607.807
613.696
617.222
618.494
617.611
614.659
609.745
602.994
594.528
584.465
572.92
560.005
545.828
530.487
514.068
496.644
478.383
459.402
439.805
419.694
399.175
378.39
357.477
336.575
315.837
295.438
275.561
256.393
238.107
220.842
204.684
189.663
175.75
162.873
150.934
139.831
129.467
119.762
110.652
102.091
94.0458
86.4933
79.4171
72.8051
66.6474
60.9351
55.6584
50.8058
46.3637
42.3157
38.643
35.3245
32.3377
29.6586
27.2631
25.1257
23.2232
21.535
20.0414
18.7239
17.566
16.5534
15.6741
14.9195
14.2849
13.7716
13.3896
13.1622
13.1335
13.3808
14.0341
15.3036
17.5128
21.1206
26.6886
34.7405
45.5228
58.8308
74.0491
90.3151
106.644
122.036
135.634
146.862
155.46
161.415
164.844
165.921
164.876
161.978
157.71
928.751
335.308
261.414
244.643
241.184
241.533
242.788
244.053
245.221
246.519
248.289
250.886
254.623
259.751
266.453
274.857
285.037
297.022
310.791
326.262
343.265
361.513
379.98
398.607
417.315
435.695
453.216
469.298
483.363
494.88
503.406
508.618
510.337
508.532
503.314
494.917
483.667
469.955
454.205
436.858
418.353
399.131
379.629
360.292
341.578
323.957
307.903
293.877
282.288
273.456
267.562
264.622
264.461
266.706
270.802
276.06
281.771
287.333
292.38
296.799
300.607
303.761
306.066
307.314
307.571
307.352
307.508
308.918
312.215
317.687
325.341
335.012
346.459
359.399
373.64
389.022
405.404
422.657
440.583
458.751
477.032
495.198
512.979
530.093
546.258
561.193
574.629
586.299
595.913
603.255
608.326
611.172
611.857
610.46
607.061
601.754
594.641
585.831
575.434
563.563
550.325
535.829
520.176
503.466
485.794
467.279
448.033
428.168
407.795
387.029
365.997
344.835
323.69
302.722
282.114
262.066
242.784
224.469
207.287
191.352
176.71
163.34
151.163
140.062
129.905
120.562
111.914
103.863
96.3292
89.254
82.5937
76.3184
70.4089
64.8538
59.6468
54.7841
50.2629
46.0792
42.2271
38.6979
35.4802
32.5597
29.9202
27.5435
25.409
23.4991
21.7964
20.2836
18.9444
17.7639
16.729
15.8286
15.0549
14.4036
13.8761
13.4821
13.2436
13.2018
13.4279
14.0398
15.2256
17.271
20.5769
25.6325
32.8959
42.5933
54.5696
68.3267
83.1618
98.2517
112.709
125.697
136.579
144.982
150.776
153.986
154.726
153.194
149.687
144.719
957.976
353.563
280.719
265.36
263.238
264.841
267.328
269.848
272.314
274.963
278.145
282.227
287.533
294.326
302.786
313.01
325.007
338.687
353.861
370.218
387.311
404.288
421.056
437.395
452.849
466.883
478.961
488.6
495.416
499.158
499.725
497.17
491.685
483.57
473.197
460.973
447.305
432.571
417.109
401.21
385.127
369.085
353.306
338.021
323.49
310.007
297.901
287.52
279.21
273.289
270.017
269.58
272.059
277.409
285.416
295.667
307.527
320.154
332.546
343.643
352.491
358.43
361.292
361.5
359.982
357.92
356.42
356.287
357.95
361.508
366.888
373.938
382.537
392.252
403.019
414.801
427.525
441.089
455.331
470.02
484.968
499.96
514.759
529.106
542.741
555.4
566.82
576.73
584.814
590.942
595.054
597.136
597.212
595.328
591.544
585.934
578.581
569.581
559.031
547.033
533.691
519.108
503.385
486.622
468.919
450.382
431.117
411.235
390.847
370.073
349.041
327.889
306.771
285.859
265.348
245.455
226.404
208.413
191.663
176.279
162.31
149.731
138.45
128.333
119.225
110.969
103.421
96.4565
89.9725
83.8888
78.1456
72.7012
67.5293
62.6158
57.9557
53.5499
49.4024
45.5178
41.8994
38.5482
35.4618
32.6346
30.0578
27.7186
25.6039
23.7006
21.9948
20.4723
19.1189
17.9217
16.8689
15.9508
15.1601
14.4933
13.9521
13.5456
13.2945
13.2373
13.439
14.0063
15.1064
16.9908
20.009
24.5861
31.1231
39.8222
50.5526
62.8876
76.2408
89.9375
103.226
115.344
125.636
133.655
139.173
142.129
142.582
140.705
136.82
131.454
972.114
369.162
298.759
285.097
284.381
287.322
291.181
295.114
298.992
302.984
307.373
312.463
318.53
325.789
334.373
344.309
355.508
367.756
380.705
393.888
406.666
418.912
430.298
440.396
448.777
455.069
459.003
460.451
459.434
456.126
450.83
443.941
435.906
427.176
418.172
409.248
400.68
392.653
385.269
378.558
372.499
367.04
362.13
357.741
353.894
350.677
348.256
346.87
346.816
348.416
351.974
357.731
365.813
376.164
388.488
402.199
416.398
429.925
441.495
449.936
454.462
454.899
451.755
446.084
439.193
432.326
426.417
422.086
419.527
418.715
419.508
421.749
425.319
430.055
435.899
442.824
450.787
459.712
469.474
479.904
490.82
502.018
513.271
524.342
534.981
544.937
553.955
561.762
568.04
572.707
575.653
576.82
576.187
573.765
569.584
563.695
556.16
547.055
536.463
524.472
511.176
496.67
481.049
464.409
446.849
428.467
409.366
389.655
369.445
348.859
328.031
307.108
286.257
265.666
245.547
226.133
207.661
190.355
174.395
159.897
146.898
135.353
125.154
116.15
108.17
101.043
94.6088
88.728
83.283
78.1798
73.3466
68.7323
64.3045
60.0461
55.9522
52.0266
48.2788
44.7204
41.3628
38.2154
35.2845
32.5723
30.0766
27.7918
25.7117
23.8278
22.1298
20.6064
19.2463
18.0384
16.9725
16.04
15.2348
14.554
13.9994
13.5798
13.3149
13.2398
13.414
13.9331
14.9455
16.6714
19.4147
23.5447
29.4136
37.2038
46.7989
57.8105
69.721
81.9693
93.9408
104.977
114.461
121.91
127.028
129.687
129.896
127.812
123.777
118.315
969.458
380.89
314.215
302.393
303.028
307.303
312.636
318.163
323.652
329.124
334.709
340.568
346.856
353.687
361.114
369.11
377.556
386.246
394.766
402.675
409.85
416.012
420.873
424.204
425.872
425.878
424.362
421.601
417.982
413.965
410.04
406.677
404.288
403.202
403.644
405.731
409.474
414.793
421.535
429.485
438.398
448.008
458.057
468.307
478.566
488.702
498.663
508.482
518.275
528.222
538.528
549.359
560.77
572.624
584.529
595.809
605.537
612.637
616.066
615.066
609.393
599.428
586.12
570.753
554.657
539.064
524.535
512.206
501.853
493.335
486.529
481.332
477.663
475.449
474.649
475.232
477.15
480.327
484.648
489.958
496.077
502.798
509.901
517.148
524.297
531.099
537.298
542.607
546.799
549.737
551.286
551.35
549.87
546.816
542.189
536.007
528.309
519.146
508.583
496.691
483.548
469.239
453.849
437.467
420.186
402.1
383.309
363.921
344.05
323.827
303.394
282.915
262.575
242.583
223.17
204.58
187.053
170.802
155.989
142.699
130.94
120.641
111.674
103.876
97.0706
91.081
85.7444
80.9162
76.4729
72.3131
68.3578
64.5494
60.8501
57.2398
53.713
50.2753
46.9398
43.7235
40.6444
37.7195
34.9624
32.3818
29.982
27.7666
25.7344
23.8814
22.2011
20.6855
19.3258
18.113
17.0386
16.0956
15.2787
14.5856
14.0184
13.5858
13.3058
13.211
13.355
13.8232
14.7464
16.3165
18.7964
22.5065
27.7575
34.7185
43.2896
53.1061
63.6812
74.5213
85.1248
94.9524
103.461
110.182
114.788
117.105
117.11
114.95
110.983
105.71
948.216
387.693
326.101
316.199
318.061
323.629
330.554
337.964
345.494
352.982
360.352
367.572
374.634
381.541
388.294
394.889
401.314
407.177
412.131
416.178
419.194
421.071
421.781
421.406
420.163
418.398
416.565
415.192
414.829
416
419.161
424.658
432.71
443.395
456.659
472.325
490.116
509.679
530.611
552.485
574.875
597.375
619.618
641.289
662.133
681.966
700.672
718.206
734.587
749.882
764.184
777.576
790.072
801.542
811.643
819.78
825.123
826.69
823.516
814.899
800.641
781.122
757.241
730.308
701.521
674.068
648.125
624.183
602.418
582.904
565.634
550.563
537.632
526.775
517.924
511.006
505.932
502.587
500.827
500.477
501.335
503.182
505.782
508.889
512.253
515.622
518.734
521.292
523.147
524.11
524.024
522.764
520.237
516.384
511.17
504.584
496.637
487.355
476.78
464.965
451.97
437.865
422.726
406.631
389.666
371.924
353.504
334.516
315.083
295.348
275.47
255.634
236.049
216.946
198.569
181.165
164.959
150.134
136.806
125.017
114.732
105.852
98.2313
91.7043
86.0961
81.2377
76.9718
73.1576
69.672
66.412
63.2949
60.2587
57.2619
54.2816
51.3111
48.3568
45.4343
42.5649
39.7723
37.0795
34.5063
32.0663
29.775
27.6406
25.6671
23.8549
22.2013
20.7015
19.3494
18.1381
17.0609
16.112
15.2872
14.5849
14.0074
13.5631
13.2688
13.1542
13.2679
13.6858
14.523
15.9461
18.1822
21.5089
26.2006
32.418
40.0831
48.8557
58.2582
67.8201
77.1112
85.699
93.1372
99.0125
103.006
104.931
104.751
102.612
98.886
94.0356
908.405
387.624
332.398
324.754
327.987
334.979
343.705
353.373
363.578
374.047
384.557
394.91
404.929
414.46
423.385
431.642
438.828
444.413
448.511
451.115
452.273
452.145
451.029
449.365
447.72
446.754
447.167
449.643
454.795
463.116
474.941
490.431
509.565
532.154
557.862
586.233
616.726
648.748
681.682
714.905
747.807
779.804
810.343
838.919
865.092
888.514
908.961
926.372
940.887
952.867
962.855
971.49
979.409
987.052
994.49
1001.31
1006.61
1009.03
1007.04
999.159
984.284
961.822
931.715
896.406
858.705
820.028
781.689
744.813
710.155
678.161
649.062
622.942
599.787
579.523
562.041
547.206
534.862
524.83
516.912
510.887
506.517
503.552
501.729
500.786
500.457
500.475
500.569
500.438
499.944
498.886