/*--------------------------------*- C++ -*----------------------------------*\
| =========                 |                                                 |
| \\      /  F ield         | OpenFOAM: The Open Source CFD Toolbox           |
|  \\    /   O peration     | Version:  2112                                  |
|   \\  /    A nd           | Website:  www.openfoam.com                      |
|    \\/     M anipulation  |                                                 |
\*---------------------------------------------------------------------------*/
FoamFile
{
    version     2.0;
    format      ascii;
    arch        "LSB;label=32;scalar=64";
    class       surfaceScalarField;
    location    "0.08";
    object      phi_0;
}
// * * * * * * * * * * * * * * * * * * * * * * * * * * * * * * * * * * * * * //

dimensions      [0 3 -1 0 0 0 0];

oriented        oriented;

internalField   nonuniform List<scalar> 
24170
(
3.10567e-06
8.27319e-08
2.99998e-06
1.05694e-07
2.89238e-06
1.07601e-07
2.78399e-06
1.08385e-07
2.67902e-06
1.04979e-07
2.58111e-06
9.79062e-08
2.49158e-06
8.95331e-08
2.41061e-06
8.09619e-08
2.33791e-06
7.27084e-08
2.27298e-06
6.49297e-08
2.21495e-06
5.80281e-08
2.16342e-06
5.15301e-08
2.11726e-06
4.6163e-08
2.07628e-06
4.09776e-08
2.03949e-06
3.67867e-08
2.00615e-06
3.33445e-08
1.97798e-06
2.81672e-08
2.98921e-08
1.94809e-06
3.43194e-06
6.80385e-08
3.43682e-06
1.00815e-07
3.43565e-06
1.08768e-07
3.42939e-06
1.14649e-07
3.41744e-06
1.16928e-07
3.40073e-06
1.14616e-07
3.3807e-06
1.09568e-07
3.35843e-06
1.03227e-07
3.33481e-06
9.63332e-08
3.31057e-06
8.91717e-08
3.2862e-06
8.23904e-08
3.26212e-06
7.56126e-08
3.23848e-06
6.98033e-08
3.21554e-06
6.39174e-08
3.1931e-06
5.92252e-08
3.17166e-06
5.47842e-08
3.14944e-06
5.03936e-08
4.99612e-08
3.12937e-06
3.67308e-06
5.74778e-08
3.68114e-06
9.2757e-08
3.68631e-06
1.03594e-07
3.69062e-06
1.1034e-07
3.69406e-06
1.13484e-07
3.69623e-06
1.12444e-07
3.69715e-06
1.08646e-07
3.69693e-06
1.03449e-07
3.69569e-06
9.75788e-08
3.6935e-06
9.13608e-08
3.6906e-06
8.52856e-08
3.68695e-06
7.92641e-08
3.68288e-06
7.38739e-08
3.67815e-06
6.86527e-08
3.6731e-06
6.42665e-08
3.66755e-06
6.03335e-08
3.66091e-06
5.70387e-08
5.53543e-08
3.65552e-06
3.93424e-06
4.86215e-08
3.94234e-06
8.46571e-08
3.94814e-06
9.77974e-08
3.9532e-06
1.05277e-07
3.95786e-06
1.08832e-07
3.9619e-06
1.08396e-07
3.96528e-06
1.05274e-07
3.96805e-06
1.00679e-07
3.97028e-06
9.53445e-08
3.972e-06
8.96449e-08
3.9733e-06
8.39799e-08
3.97414e-06
7.84259e-08
3.97468e-06
7.33322e-08
3.97477e-06
6.85689e-08
3.97458e-06
6.44539e-08
3.97398e-06
6.09305e-08
3.97293e-06
5.80883e-08
5.65061e-08
3.97178e-06
4.2149e-06
4.08479e-08
4.22308e-06
7.64792e-08
4.22929e-06
9.15868e-08
4.23468e-06
9.98882e-08
4.23966e-06
1.03848e-07
4.24415e-06
1.03905e-07
4.24807e-06
1.01353e-07
4.25151e-06
9.72431e-08
4.2545e-06
9.23549e-08
4.25709e-06
8.70563e-08
4.25933e-06
8.1738e-08
4.26122e-06
7.65333e-08
4.26285e-06
7.17093e-08
4.26415e-06
6.7266e-08
4.26521e-06
6.33925e-08
4.26601e-06
6.0132e-08
4.26652e-06
5.75739e-08
5.60836e-08
4.26695e-06
4.51585e-06
3.40832e-08
4.52405e-06
6.82831e-08
4.53082e-06
8.48125e-08
4.53664e-06
9.40657e-08
4.54198e-06
9.85149e-08
4.5468e-06
9.90851e-08
4.55108e-06
9.70689e-08
4.5549e-06
9.34286e-08
4.55828e-06
8.89744e-08
4.56129e-06
8.40483e-08
4.56396e-06
7.90661e-08
4.56632e-06
7.41693e-08
4.56842e-06
6.9606e-08
4.57027e-06
6.54202e-08
4.57191e-06
6.17538e-08
4.57336e-06
5.86778e-08
4.57467e-06
5.62641e-08
5.47157e-08
4.57604e-06
4.83848e-06
2.83209e-08
4.84639e-06
6.03727e-08
4.85366e-06
7.75433e-08
4.86016e-06
8.75658e-08
4.86606e-06
9.26132e-08
4.87131e-06
9.3836e-08
4.87598e-06
9.2399e-08
4.88014e-06
8.92748e-08
4.88386e-06
8.52533e-08
4.8872e-06
8.07044e-08
4.89021e-06
7.60618e-08
4.89292e-06
7.14591e-08
4.89537e-06
6.71532e-08
4.8976e-06
6.31934e-08
4.89964e-06
5.97058e-08
4.90156e-06
5.67582e-08
4.90343e-06
5.43978e-08
5.27244e-08
4.90542e-06
5.18445e-06
2.34511e-08
5.19178e-06
5.30456e-08
5.19919e-06
7.01332e-08
5.20629e-06
8.04603e-08
5.21293e-06
8.59777e-08
5.2189e-06
8.78646e-08
5.22416e-06
8.71385e-08
5.22874e-06
8.46924e-08
5.23283e-06
8.11657e-08
5.2365e-06
7.70378e-08
5.23982e-06
7.27358e-08
5.24285e-06
6.8428e-08
5.24563e-06
6.43799e-08
5.24819e-06
6.06287e-08
5.2506e-06
5.72994e-08
5.25291e-06
5.44448e-08
5.25522e-06
5.20918e-08
5.02735e-08
5.25767e-06
5.55543e-06
1.93587e-08
5.56208e-06
4.63984e-08
5.56932e-06
6.28879e-08
5.5767e-06
7.30802e-08
5.5839e-06
7.87841e-08
5.59063e-06
8.11323e-08
5.5967e-06
8.10636e-08
5.60204e-06
7.93574e-08
5.6067e-06
7.65024e-08
5.61078e-06
7.29595e-08
5.61446e-06
6.90566e-08
5.61781e-06
6.50763e-08
5.62091e-06
6.12819e-08
5.62381e-06
5.77312e-08
5.62656e-06
5.45504e-08
5.62923e-06
5.17736e-08
5.6319e-06
4.94136e-08
4.74674e-08
5.63471e-06
5.95316e-06
1.5972e-08
5.95917e-06
4.03952e-08
5.96611e-06
5.5939e-08
5.97351e-06
6.56857e-08
5.98097e-06
7.13202e-08
5.9882e-06
7.39058e-08
5.99497e-06
7.42951e-08
6.00115e-06
7.31743e-08
6.00666e-06
7.0992e-08
6.01149e-06
6.81313e-08
6.01573e-06
6.48153e-08
6.01949e-06
6.13179e-08
6.02295e-06
5.78224e-08
6.02619e-06
5.44918e-08
6.02928e-06
5.14635e-08
6.03228e-06
4.87647e-08
6.03529e-06
4.64098e-08
4.43865e-08
6.03837e-06
6.37957e-06
1.32174e-08
6.38502e-06
3.49427e-08
6.39164e-06
4.93201e-08
6.39891e-06
5.84142e-08
6.40644e-06
6.3791e-08
6.4139e-06
6.64411e-08
6.42109e-06
6.71084e-08
6.42788e-06
6.63892e-08
6.43415e-06
6.47154e-08
6.43986e-06
6.24263e-08
6.44494e-06
5.97294e-08
6.44944e-06
5.68234e-08
6.45346e-06
5.37995e-08
6.45713e-06
5.08239e-08
6.46058e-06
4.80098e-08
6.46393e-06
4.54189e-08
6.46723e-06
4.31093e-08
4.10894e-08
6.47053e-06
5.74278e-06
1.12711e-08
5.74705e-06
3.0676e-08
5.75239e-06
4.39755e-08
5.75837e-06
5.24327e-08
5.76469e-06
5.74708e-08
5.77107e-06
6.00601e-08
5.77732e-06
6.0864e-08
5.78332e-06
6.03916e-08
5.789e-06
5.90346e-08
5.79431e-06
5.71101e-08
5.79921e-06
5.4832e-08
5.80367e-06
5.23654e-08
5.80769e-06
4.97818e-08
5.81132e-06
4.71906e-08
5.81467e-06
4.46624e-08
5.81783e-06
4.22603e-08
5.82088e-06
4.00596e-08
3.80898e-08
5.82388e-06
7.00006e-06
9.36953e-09
7.00462e-06
2.61089e-08
7.0105e-06
3.81001e-08
7.01714e-06
4.57951e-08
7.02427e-06
5.03419e-08
7.03159e-06
5.27351e-08
7.03886e-06
5.35922e-08
7.04593e-06
5.33239e-08
7.05271e-06
5.2253e-08
7.05916e-06
5.06572e-08
7.06525e-06
4.87439e-08
7.07095e-06
4.66682e-08
7.07622e-06
4.45131e-08
7.08106e-06
4.23453e-08
7.08553e-06
4.02009e-08
7.08967e-06
3.81152e-08
7.09359e-06
3.61379e-08
3.42986e-08
7.09738e-06
8.5327e-06
7.51367e-09
8.53753e-06
2.12864e-08
8.544e-06
3.1626e-08
8.55132e-06
3.84757e-08
8.55924e-06
4.24171e-08
8.56753e-06
4.44479e-08
8.57589e-06
4.52354e-08
8.58411e-06
4.51025e-08
8.59208e-06
4.42865e-08
8.59973e-06
4.30035e-08
8.60704e-06
4.14311e-08
8.614e-06
3.97075e-08
8.62059e-06
3.79228e-08
8.6268e-06
3.61359e-08
8.63263e-06
3.43758e-08
8.63809e-06
3.26571e-08
8.64323e-06
3.09912e-08
2.93818e-08
8.64815e-06
1.0401e-05
5.68568e-09
1.04061e-05
1.62777e-08
1.04131e-05
2.45408e-08
1.04213e-05
3.02798e-08
1.04302e-05
3.3602e-08
1.04394e-05
3.51749e-08
1.04489e-05
3.57446e-08
1.04584e-05
3.56417e-08
1.04676e-05
3.50222e-08
1.04766e-05
3.40301e-08
1.04852e-05
3.27963e-08
1.04935e-05
3.1426e-08
1.05015e-05
2.99958e-08
1.0509e-05
2.85589e-08
1.05163e-05
2.71456e-08
1.05232e-05
2.57681e-08
1.05297e-05
2.44208e-08
2.30903e-08
1.0536e-05
1.26786e-05
3.84637e-09
1.26838e-05
1.1084e-08
1.26915e-05
1.68866e-08
1.27007e-05
2.10677e-08
1.27107e-05
2.36079e-08
1.27211e-05
2.47148e-08
1.27319e-05
2.49904e-08
1.27427e-05
2.48142e-08
1.27534e-05
2.43133e-08
1.27639e-05
2.35691e-08
1.2774e-05
2.2661e-08
1.27838e-05
2.16556e-08
1.27932e-05
2.06028e-08
1.28022e-05
1.95378e-08
1.28109e-05
1.8482e-08
1.28192e-05
1.74428e-08
1.28272e-05
1.64113e-08
1.53762e-08
1.28349e-05
1.54551e-05
1.92986e-09
1.54606e-05
5.60517e-09
1.54689e-05
8.59294e-09
1.54792e-05
1.07671e-08
1.54907e-05
1.21158e-08
1.55027e-05
1.26558e-08
1.55151e-05
1.26114e-08
1.55276e-05
1.23216e-08
1.554e-05
1.18932e-08
1.55522e-05
1.13617e-08
1.55641e-05
1.07621e-08
1.55756e-05
1.01263e-08
1.55868e-05
9.47611e-09
1.55975e-05
8.82402e-09
1.56078e-05
8.17445e-09
1.56177e-05
7.52357e-09
1.56273e-05
6.86065e-09
6.18162e-09
1.56365e-05
1.88397e-05
-1.72975e-10
1.88458e-05
-4.28025e-10
1.8855e-05
-6.65571e-10
1.88667e-05
-9.27028e-10
1.88801e-05
-1.23268e-09
1.88943e-05
-1.5923e-09
1.89089e-05
-2.00066e-09
1.89236e-05
-2.39193e-09
1.89383e-05
-2.74981e-09
1.89527e-05
-3.06977e-09
1.89668e-05
-3.35054e-09
1.89806e-05
-3.59351e-09
1.89938e-05
-3.80381e-09
1.90066e-05
-3.98957e-09
1.9019e-05
-4.16201e-09
1.90308e-05
-4.33568e-09
1.90422e-05
-4.52549e-09
-4.73757e-09
1.90531e-05
2.29658e-05
-2.67097e-09
2.29731e-05
-7.64412e-09
2.29841e-05
-1.17638e-08
2.29982e-05
-1.49757e-08
2.30143e-05
-1.73264e-08
2.30315e-05
-1.88462e-08
2.30493e-05
-1.97162e-08
2.30671e-05
-2.0242e-08
2.30849e-05
-2.05252e-08
2.31024e-05
-2.05988e-08
2.31196e-05
-2.04986e-08
2.31362e-05
-2.02652e-08
2.31524e-05
-1.99379e-08
2.31679e-05
-1.95505e-08
2.31829e-05
-1.91334e-08
2.31973e-05
-1.87157e-08
2.32111e-05
-1.83223e-08
-1.79619e-08
2.32243e-05
1.68128e-05
-4.73511e-09
1.68186e-05
-1.35178e-08
1.68275e-05
-2.0646e-08
1.68386e-05
-2.60071e-08
1.68509e-05
-2.96899e-08
1.6864e-05
-3.18894e-08
1.68774e-05
-3.31206e-08
1.68909e-05
-3.3777e-08
1.69044e-05
-3.39927e-08
1.69176e-05
-3.38482e-08
1.69305e-05
-3.34243e-08
1.69431e-05
-3.2794e-08
1.69552e-05
-3.2025e-08
1.69668e-05
-3.11775e-08
1.69779e-05
-3.02916e-08
1.69886e-05
-2.93905e-08
1.69988e-05
-2.85021e-08
-2.76255e-08
1.70085e-05
1.46367e-05
-6.90823e-09
1.46428e-05
-1.95725e-08
1.46516e-05
-2.94789e-08
1.46622e-05
-3.65669e-08
1.46737e-05
-4.1172e-08
1.46857e-05
-4.3909e-08
1.46981e-05
-4.54809e-08
1.47105e-05
-4.62254e-08
1.47228e-05
-4.63073e-08
1.47349e-05
-4.58899e-08
1.47465e-05
-4.51122e-08
1.47578e-05
-4.40519e-08
1.47686e-05
-4.28012e-08
1.47789e-05
-4.14539e-08
1.47886e-05
-4.00513e-08
1.47978e-05
-3.85722e-08
1.48064e-05
-3.70585e-08
-3.55365e-08
1.48143e-05
1.27426e-05
-9.40294e-09
1.27492e-05
-2.61297e-08
1.27581e-05
-3.84347e-08
1.27683e-05
-4.67571e-08
1.27792e-05
-5.20393e-08
1.27906e-05
-5.52769e-08
1.28022e-05
-5.7077e-08
1.28137e-05
-5.77487e-08
1.28249e-05
-5.75493e-08
1.28358e-05
-5.6742e-08
1.28462e-05
-5.55151e-08
1.2856e-05
-5.39095e-08
1.28653e-05
-5.20537e-08
1.28739e-05
-5.00729e-08
1.28819e-05
-4.80298e-08
1.28892e-05
-4.59209e-08
1.2896e-05
-4.37769e-08
-4.16692e-08
1.29021e-05
1.1094e-05
-1.2519e-08
1.11013e-05
-3.33751e-08
1.11104e-05
-4.75269e-08
1.11203e-05
-5.66652e-08
1.11307e-05
-6.24824e-08
1.11415e-05
-6.60121e-08
1.11522e-05
-6.77622e-08
1.11625e-05
-6.81238e-08
1.11724e-05
-6.74539e-08
1.11818e-05
-6.608e-08
1.11905e-05
-6.42199e-08
1.11986e-05
-6.19939e-08
1.1206e-05
-5.95262e-08
1.12129e-05
-5.69269e-08
1.12192e-05
-5.42947e-08
1.1225e-05
-5.17225e-08
1.12304e-05
-4.91888e-08
-4.6716e-08
1.12354e-05
9.65941e-06
-1.67119e-08
9.66741e-06
-4.13728e-08
9.67654e-06
-5.66641e-08
9.68608e-06
-6.62028e-08
9.6958e-06
-7.22055e-08
9.70544e-06
-7.56463e-08
9.71473e-06
-7.70508e-08
9.72354e-06
-7.69396e-08
9.73181e-06
-7.57267e-08
9.73947e-06
-7.37372e-08
9.74648e-06
-7.12314e-08
9.75299e-06
-6.84973e-08
9.75905e-06
-6.5587e-08
9.76469e-06
-6.25677e-08
9.76992e-06
-5.95296e-08
9.77478e-06
-5.6578e-08
9.7793e-06
-5.37113e-08
-5.09399e-08
9.78353e-06
8.41088e-06
-2.22369e-08
8.41962e-06
-5.01158e-08
8.42841e-06
-6.54501e-08
8.43705e-06
-7.48454e-08
8.44558e-06
-8.07337e-08
8.45379e-06
-8.38595e-08
8.46156e-06
-8.48248e-08
8.46888e-06
-8.42546e-08
8.47574e-06
-8.2583e-08
8.48212e-06
-8.01226e-08
8.48804e-06
-7.71538e-08
8.49352e-06
-7.39726e-08
8.49859e-06
-7.06623e-08
8.50331e-06
-6.72844e-08
8.5077e-06
-6.39179e-08
8.51176e-06
-6.06417e-08
8.51553e-06
-5.74814e-08
-5.44477e-08
8.51904e-06
7.32413e-06
-2.90844e-08
7.33312e-06
-5.91047e-08
7.34113e-06
-7.34631e-08
7.34867e-06
-8.23803e-08
7.35606e-06
-8.81203e-08
7.36313e-06
-9.09342e-08
7.3698e-06
-9.14973e-08
7.37601e-06
-9.04651e-08
7.3818e-06
-8.8366e-08
7.38717e-06
-8.54936e-08
7.39217e-06
-8.21521e-08
7.39676e-06
-7.85669e-08
7.40098e-06
-7.48852e-08
7.40487e-06
-7.11696e-08
7.40845e-06
-6.75007e-08
7.41175e-06
-6.39391e-08
7.41478e-06
-6.05101e-08
-5.72429e-08
7.41757e-06
6.37807e-06
-3.70879e-08
6.38697e-06
-6.80058e-08
6.39426e-06
-8.07491e-08
6.40092e-06
-8.90463e-08
6.40739e-06
-9.4584e-08
6.41354e-06
-9.70849e-08
6.41928e-06
-9.72365e-08
6.42453e-06
-9.57181e-08
6.42932e-06
-9.31546e-08
6.43368e-06
-8.98544e-08
6.43766e-06
-8.61308e-08
6.44124e-06
-8.21508e-08
6.44444e-06
-7.80884e-08
6.44731e-06
-7.40327e-08
6.44985e-06
-7.00437e-08
6.45213e-06
-6.62144e-08
6.45414e-06
-6.25195e-08
-5.90116e-08
6.4559e-06
5.55507e-06
-4.66907e-08
5.56393e-06
-7.68636e-08
5.57038e-06
-8.72044e-08
5.57614e-06
-9.48021e-08
5.58155e-06
-9.99968e-08
5.58645e-06
-1.01986e-07
5.59069e-06
-1.01473e-07
5.59421e-06
-9.92432e-08
5.59698e-06
-9.5918e-08
5.59907e-06
-9.19466e-08
5.60053e-06
-8.75954e-08
5.6014e-06
-8.30226e-08
5.60172e-06
-7.84082e-08
5.60157e-06
-7.38819e-08
5.60098e-06
-6.94551e-08
5.60005e-06
-6.52822e-08
5.59879e-06
-6.12548e-08
-5.75695e-08
5.59735e-06
4.84108e-06
-6.01677e-08
4.84864e-06
-8.44161e-08
4.85189e-06
-9.04529e-08
4.85277e-06
-9.56899e-08
4.85062e-06
-9.78452e-08
4.84515e-06
-9.6516e-08
4.83657e-06
-9.28895e-08
4.82533e-06
-8.80107e-08
4.81186e-06
-8.24388e-08
4.79671e-06
-7.68053e-08
4.78034e-06
-7.12258e-08
4.76314e-06
-6.58135e-08
4.74542e-06
-6.06875e-08
4.72745e-06
-5.59176e-08
4.70945e-06
-5.14545e-08
4.69157e-06
-4.73999e-08
4.67394e-06
-4.36268e-08
-4.03001e-08
4.65667e-06
4.14251e-06
4.05809e-06
3.96764e-06
3.87195e-06
3.7741e-06
3.67759e-06
3.5847e-06
3.49669e-06
3.41425e-06
3.33744e-06
3.26622e-06
3.2004e-06
3.13972e-06
3.0838e-06
3.03235e-06
2.98495e-06
2.94132e-06
2.90102e-06
-1.05874e-07
1.05874e-07
-1.94843e-07
8.89688e-08
-2.52735e-07
5.78922e-08
-2.46775e-07
-5.96081e-09
-1.60985e-07
-8.57897e-08
-5.46913e-09
-1.55516e-07
1.92726e-07
-1.98195e-07
4.10956e-07
-2.1823e-07
6.32182e-07
-2.21226e-07
8.46599e-07
-2.14416e-07
1.04914e-06
-2.02544e-07
1.23768e-06
-1.88536e-07
1.41181e-06
-1.7413e-07
1.57202e-06
-1.60212e-07
1.71934e-06
-1.4732e-07
1.85473e-06
-1.35391e-07
1.97914e-06
-1.24405e-07
2.09349e-06
-1.14357e-07
2.19869e-06
-1.05195e-07
2.29544e-06
-9.6747e-08
2.3843e-06
-8.88658e-08
2.46572e-06
-8.14156e-08
2.53989e-06
-7.41693e-08
2.60673e-06
-6.68449e-08
2.66575e-06
-5.9016e-08
2.71614e-06
-5.03866e-08
2.75667e-06
-4.05318e-08
2.78554e-06
-2.8874e-08
2.80066e-06
-1.51224e-08
2.80027e-06
3.92782e-10
2.77663e-06
2.36374e-08
2.7266e-06
5.00345e-08
2.64466e-06
8.19426e-08
2.5243e-06
1.20352e-07
2.35839e-06
1.65913e-07
2.13877e-06
2.19622e-07
1.85875e-06
2.80021e-07
1.51085e-06
3.47896e-07
1.09845e-06
4.12405e-07
6.23283e-07
4.75165e-07
1.47266e-07
4.76017e-07
-1.44245e-07
2.91512e-07
-3.34743e-07
1.90498e-07
-5.24766e-07
1.90023e-07
-7.63108e-07
2.38342e-07
-9.8646e-07
2.23352e-07
-1.11111e-06
1.24645e-07
-1.09538e-06
-1.57262e-08
-9.41728e-07
-1.53651e-07
-6.5317e-07
-2.88559e-07
-2.66216e-07
-3.86953e-07
1.26165e-07
-3.92381e-07
4.46517e-07
-3.20352e-07
6.72095e-07
-2.25579e-07
7.98749e-07
-1.26653e-07
8.34708e-07
-3.59596e-08
8.3936e-07
-4.65131e-09
8.54025e-07
-1.46656e-08
8.47149e-07
6.87655e-09
8.1943e-07
2.7719e-08
7.49298e-07
7.0132e-08
5.05416e-07
2.43881e-07
4.36955e-08
4.61721e-07
-5.60636e-07
6.04331e-07
-1.22002e-06
6.59388e-07
-1.85803e-06
6.38002e-07
-2.41958e-06
5.61556e-07
-2.89228e-06
4.72699e-07
-3.28228e-06
3.9e-07
-3.59933e-06
3.17047e-07
-3.85463e-06
2.55305e-07
-4.0598e-06
2.05173e-07
-4.22575e-06
1.65946e-07
-4.36275e-06
1.37001e-07
-4.47993e-06
1.17174e-07
-4.58502e-06
1.05093e-07
-4.68478e-06
9.97621e-08
-4.78545e-06
1.00669e-07
-4.89265e-06
1.07201e-07
-5.01091e-06
1.18257e-07
-5.14368e-06
1.32777e-07
-5.29337e-06
1.49689e-07
-5.46106e-06
1.67684e-07
-5.64633e-06
1.85275e-07
-5.84714e-06
2.00805e-07
-6.05973e-06
2.12588e-07
-6.27901e-06
2.19283e-07
-6.49898e-06
2.19975e-07
-6.71291e-06
2.13922e-07
-6.91366e-06
2.0075e-07
-7.09435e-06
1.80692e-07
-7.2486e-06
1.54248e-07
-7.37092e-06
1.2232e-07
-7.45729e-06
8.63713e-08
-7.50528e-06
4.79965e-08
-7.51283e-06
7.55006e-09
-7.48331e-06
-2.95281e-08
-7.41978e-06
-6.35299e-08
-7.32386e-06
-9.59189e-08
-7.19753e-06
-1.26323e-07
-7.04284e-06
-1.5469e-07
-6.86176e-06
-1.81085e-07
-6.65649e-06
-2.0527e-07
-6.4289e-06
-2.2759e-07
-6.18095e-06
-2.47946e-07
-5.91495e-06
-2.66e-07
-5.63356e-06
-2.81396e-07
-5.33974e-06
-2.93818e-07
-5.03635e-06
-3.03386e-07
-4.72636e-06
-3.0999e-07
-4.41277e-06
-3.13595e-07
-4.09824e-06
-3.14522e-07
-3.78542e-06
-3.1282e-07
-3.47614e-06
-3.09287e-07
-3.17174e-06
-3.04393e-07
-2.87363e-06
-2.98119e-07
-2.58233e-06
-2.91297e-07
-2.2977e-06
-2.84627e-07
-2.01904e-06
-2.78665e-07
-1.74511e-06
-2.73923e-07
-1.474e-06
-2.71112e-07
-1.20314e-06
-2.70862e-07
-9.29577e-07
-2.73562e-07
-6.5013e-07
-2.79446e-07
-3.61701e-07
-2.8843e-07
-6.15378e-08
-3.00163e-07
2.51865e-07
-3.13403e-07
5.79827e-07
-3.27962e-07
9.21759e-07
-3.41931e-07
1.27581e-06
-3.54055e-07
1.6387e-06
-3.62891e-07
2.0061e-06
-3.674e-07
2.37286e-06
-3.66759e-07
2.73285e-06
-3.59984e-07
3.08009e-06
-3.47242e-07
3.41098e-06
-3.30895e-07
3.72361e-06
-3.12626e-07
4.01607e-06
-2.92466e-07
4.28707e-06
-2.70995e-07
4.53602e-06
-2.48952e-07
4.76324e-06
-2.27217e-07
4.96974e-06
-2.06503e-07
5.1564e-06
-1.86654e-07
5.32356e-06
-1.67167e-07
5.47154e-06
-1.47978e-07
5.60066e-06
-1.29118e-07
5.71098e-06
-1.10322e-07
5.80241e-06
-9.14277e-08
5.87417e-06
-7.17596e-08
5.92481e-06
-5.06377e-08
5.95276e-06
-2.79585e-08
5.95492e-06
-2.15231e-09
5.92585e-06
2.90705e-08
5.86452e-06
6.13297e-08
5.77016e-06
9.43579e-08
5.6425e-06
1.27662e-07
5.48231e-06
1.60184e-07
5.2915e-06
1.90808e-07
5.06747e-06
2.24038e-07
4.80521e-06
2.62255e-07
4.50843e-06
2.96783e-07
4.14569e-06
3.6274e-07
3.61124e-06
5.34447e-07
2.86618e-06
7.45065e-07
2.07678e-06
7.89393e-07
1.47021e-06
6.06577e-07
1.13854e-06
3.31666e-07
1.01705e-06
1.2149e-07
9.87565e-07
2.94858e-08
9.84399e-07
3.16618e-09
9.9746e-07
-1.30612e-08
1.03247e-06
-3.5007e-08
1.085e-06
-5.25299e-08
1.13946e-06
-5.4466e-08
1.17472e-06
-3.52611e-08
1.18558e-06
-1.08597e-08
1.16763e-06
1.79535e-08
1.1342e-06
3.34308e-08
1.07838e-06
5.58228e-08
7.83031e-08
1.00007e-06
4.0175e-08
6.56994e-08
5.02252e-08
7.89186e-08
9.35561e-08
1.45612e-08
2.07441e-07
-1.19846e-07
3.7548e-07
-2.53828e-07
5.65323e-07
-3.45359e-07
7.55734e-07
-3.88605e-07
9.34431e-07
-3.96927e-07
1.09872e-06
-3.8552e-07
1.24858e-06
-3.64268e-07
1.38515e-06
-3.39114e-07
1.51011e-06
-3.135e-07
1.6254e-06
-2.8942e-07
1.73289e-06
-2.67705e-07
1.8337e-06
-2.48131e-07
1.92844e-06
-2.30123e-07
2.01776e-06
-2.13727e-07
2.10224e-06
-1.98839e-07
2.1822e-06
-1.85153e-07
2.25782e-06
-1.72374e-07
2.32924e-06
-1.60281e-07
2.39646e-06
-1.48634e-07
2.45944e-06
-1.3715e-07
2.51781e-06
-1.25219e-07
2.57102e-06
-1.12225e-07
2.61835e-06
-9.77198e-08
2.65873e-06
-8.09064e-08
2.69088e-06
-6.10244e-08
2.71309e-06
-3.73334e-08
2.72246e-06
-8.9724e-09
2.72067e-06
2.54255e-08
2.70403e-06
6.66761e-08
2.66995e-06
1.16022e-07
2.61502e-06
1.75274e-07
2.53527e-06
2.45671e-07
2.42548e-06
3.29408e-07
2.27923e-06
4.26271e-07
2.08991e-06
5.37217e-07
1.84708e-06
6.55229e-07
1.54941e-06
7.72842e-07
1.15618e-06
8.6924e-07
5.68573e-07
8.79122e-07
-4.54362e-09
7.63614e-07
-3.86637e-07
5.72117e-07
-6.32e-07
4.83705e-07
-8.01376e-07
3.92728e-07
-8.84257e-07
2.07526e-07
-8.66065e-07
-3.3918e-08
-7.38022e-07
-2.81694e-07
-4.90655e-07
-5.35926e-07
-1.70061e-07
-7.07547e-07
1.29323e-07
-6.91765e-07
3.61327e-07
-5.52356e-07
5.04021e-07
-3.68273e-07
5.74012e-07
-1.96645e-07
5.86034e-07
-4.79817e-08
5.05037e-07
7.63466e-08
3.20856e-07
1.69515e-07
1.85841e-09
3.25874e-07
-5.00829e-07
5.30406e-07
-1.12679e-06
6.96091e-07
-1.73981e-06
8.56899e-07
-2.27901e-06
1.00092e-06
-2.74414e-06
1.06947e-06
-3.1364e-06
1.05164e-06
-3.4635e-06
9.65108e-07
-3.74331e-06
8.41362e-07
-3.98365e-06
7.13039e-07
-4.18859e-06
5.94939e-07
-4.36468e-06
4.93137e-07
-4.51833e-06
4.08959e-07
-4.65521e-06
3.42052e-07
-4.78021e-06
2.9094e-07
-4.89755e-06
2.54346e-07
-5.01085e-06
2.30476e-07
-5.12337e-06
2.17609e-07
-5.23816e-06
2.14556e-07
-5.35787e-06
2.20374e-07
-5.4844e-06
2.33731e-07
-5.61909e-06
2.52947e-07
-5.76252e-06
2.7621e-07
-5.91438e-06
3.01549e-07
-6.07358e-06
3.26879e-07
-6.23827e-06
3.49965e-07
-6.40573e-06
3.68274e-07
-6.57261e-06
3.79461e-07
-6.7354e-06
3.82072e-07
-6.89035e-06
3.74925e-07
-7.03339e-06
3.56962e-07
-7.16056e-06
3.27928e-07
-7.26808e-06
2.88204e-07
-7.3526e-06
2.3877e-07
-7.41159e-06
1.8131e-07
-7.44337e-06
1.18148e-07
-7.44683e-06
5.14571e-08
-7.42287e-06
-1.64052e-08
-7.36873e-06
-8.3667e-08
-7.2836e-06
-1.4866e-07
-7.16902e-06
-2.10496e-07
-7.02693e-06
-2.68418e-07
-6.85889e-06
-3.22733e-07
-6.66667e-06
-3.73301e-07
-6.45221e-06
-4.1973e-07
-6.21731e-06
-4.62492e-07
-5.96336e-06
-5.01896e-07
-5.6921e-06
-5.37258e-07
-5.40579e-06
-5.67703e-07
-5.10726e-06
-5.92353e-07
-4.79923e-06
-6.1142e-07
-4.48446e-06
-6.24755e-07
-4.16595e-06
-6.32106e-07
-3.84651e-06
-6.33965e-07
-3.52844e-06
-6.30887e-07
-3.2141e-06
-6.23628e-07
-2.90538e-06
-6.13108e-07
-2.60324e-06
-6.00267e-07
-2.3082e-06
-5.86331e-07
-2.02019e-06
-5.72635e-07
-1.73845e-06
-5.60411e-07
-1.46167e-06
-5.50699e-07
-1.18794e-06
-5.44847e-07
-9.14741e-07
-5.44058e-07
-6.39224e-07
-5.4908e-07
-3.58188e-07
-5.60482e-07
-6.82855e-08
-5.78332e-07
2.335e-07
-6.01948e-07
5.49769e-07
-6.29672e-07
8.81269e-07
-6.59462e-07
1.22783e-06
-6.88497e-07
1.58776e-06
-7.13976e-07
1.95794e-06
-7.33076e-07
2.33396e-06
-7.4342e-07
2.71052e-06
-7.43322e-07
3.08236e-06
-7.31815e-07
3.4447e-06
-7.09586e-07
3.79294e-06
-6.79138e-07
4.1235e-06
-6.43181e-07
4.43472e-06
-6.03692e-07
4.7261e-06
-5.6237e-07
4.99729e-06
-5.20144e-07
5.2486e-06
-4.78529e-07
5.48089e-06
-4.38789e-07
5.695e-06
-4.00768e-07
5.89146e-06
-3.63618e-07
6.07037e-06
-3.26894e-07
6.23178e-06
-2.9053e-07
6.37567e-06
-2.54213e-07
6.50151e-06
-2.1726e-07
6.60853e-06
-1.78786e-07
6.6957e-06
-1.378e-07
6.76114e-06
-9.34078e-08
6.80447e-06
-4.54755e-08
6.8263e-06
7.23616e-09
6.82377e-06
6.38575e-08
6.7946e-06
1.23534e-07
6.73697e-06
1.85293e-07
6.64861e-06
2.48543e-07
6.52745e-06
3.11963e-07
6.3753e-06
3.76192e-07
6.19114e-06
4.46417e-07
5.96719e-06
5.2073e-07
5.7162e-06
6.13733e-07
5.46168e-06
7.88965e-07
5.17591e-06
1.03084e-06
4.81305e-06
1.15225e-06
4.38069e-06
1.03894e-06
3.91871e-06
7.93643e-07
3.46603e-06
5.74172e-07
3.0658e-06
4.29714e-07
2.74653e-06
3.22436e-07
2.51398e-06
2.19486e-07
2.35757e-06
1.21412e-07
2.25698e-06
4.80581e-08
2.19003e-06
1.2486e-08
2.13459e-06
2.01736e-08
2.07528e-06
4.84552e-08
2.00793e-06
8.53003e-08
1.93652e-06
1.04837e-07
1.86724e-06
1.25106e-07
1.4034e-07
1.8052e-06
2.73879e-08
3.83116e-08
1.30888e-07
-2.45814e-08
3.26074e-07
-1.80625e-07
5.4663e-07
-3.40401e-07
7.39854e-07
-4.47052e-07
8.89477e-07
-4.94982e-07
1.00303e-06
-5.02154e-07
1.09417e-06
-4.88074e-07
1.17387e-06
-4.65216e-07
1.24929e-06
-4.39686e-07
1.32424e-06
-4.1407e-07
1.40015e-06
-3.89406e-07
1.47694e-06
-3.66214e-07
1.55392e-06
-3.44678e-07
1.63028e-06
-3.24492e-07
1.70583e-06
-3.05674e-07
1.78047e-06
-2.88368e-07
1.85369e-06
-2.72064e-07
1.92494e-06
-2.56399e-07
1.99388e-06
-2.4132e-07
2.06037e-06
-2.26771e-07
2.12423e-06
-2.12489e-07
2.18512e-06
-1.9804e-07
2.24266e-06
-1.82755e-07
2.29668e-06
-1.66254e-07
2.34669e-06
-1.47726e-07
2.39165e-06
-1.25862e-07
2.43024e-06
-9.96212e-08
2.46088e-06
-6.79675e-08
2.48175e-06
-2.98449e-08
2.49141e-06
1.57656e-08
2.48767e-06
7.04131e-08
2.46899e-06
1.34701e-07
2.43437e-06
2.09894e-07
2.38322e-06
2.96826e-07
2.3158e-06
3.96826e-07
2.23193e-06
5.10141e-07
2.13159e-06
6.37553e-07
2.01024e-06
7.76581e-07
1.86089e-06
9.22194e-07
1.6649e-06
1.06523e-06
1.36484e-06
1.17918e-06
9.22931e-07
1.20553e-06
3.95219e-07
1.09983e-06
-2.92424e-08
9.08167e-07
-2.95703e-07
6.59189e-07
-4.56955e-07
3.68778e-07
-5.2627e-07
3.53971e-08
-4.85957e-07
-3.22007e-07
-3.57208e-07
-6.64675e-07
-1.96038e-07
-8.68718e-07
-7.10041e-08
-8.16799e-07
-2.76404e-09
-6.20596e-07
-2.00474e-08
-3.5099e-07
-1.52458e-07
-6.42344e-08
-3.98192e-07
1.97752e-07
-7.66413e-07
4.44568e-07
-1.24757e-06
6.50674e-07
-1.75577e-06
8.34076e-07
-2.23155e-06
1.00618e-06
-2.68036e-06
1.1449e-06
-3.06538e-06
1.24192e-06
-3.34873e-06
1.28428e-06
-3.54109e-06
1.26183e-06
-3.67315e-06
1.1837e-06
-3.77801e-06
1.06996e-06
-3.879e-06
9.42355e-07
-3.98318e-06
8.17218e-07
-4.09107e-06
7.02824e-07
-4.20108e-06
6.0315e-07
-4.3116e-06
5.19475e-07
-4.42113e-06
4.51589e-07
-4.52908e-06
3.98883e-07
-4.63536e-06
3.60625e-07
-4.74059e-06
3.35712e-07
-4.84594e-06
3.22954e-07
-4.95302e-06
3.21642e-07
-5.06384e-06
3.31192e-07
-5.18023e-06
3.5012e-07
-5.30362e-06
3.76335e-07
-5.43479e-06
4.0738e-07
-5.57364e-06
4.40403e-07
-5.7194e-06
4.72635e-07
-5.87046e-06
5.01032e-07
-6.02439e-06
5.22201e-07
-6.17826e-06
5.33329e-07
-6.32883e-06
5.32639e-07
-6.47251e-06
5.18607e-07
-6.60551e-06
4.89968e-07
-6.72396e-06
4.46369e-07
-6.8239e-06
3.88151e-07
-6.90148e-06
3.16351e-07
-6.95335e-06
2.33172e-07
-6.97686e-06
1.41667e-07
-6.97031e-06
4.49023e-08
-6.93313e-06
-5.35815e-08
-6.86638e-06
-1.50419e-07
-6.77071e-06
-2.44336e-07
-6.64814e-06
-3.33062e-07
-6.50103e-06
-4.15528e-07
-6.3311e-06
-4.92657e-07
-6.13966e-06
-5.6474e-07
-5.92799e-06
-6.31408e-07
-5.69735e-06
-6.93126e-07
-5.44875e-06
-7.50495e-07
-5.1833e-06
-8.02708e-07
-4.90282e-06
-8.48187e-07
-4.60972e-06
-8.85451e-07
-4.30728e-06
-9.13864e-07
-3.9987e-06
-9.3333e-07
-3.68708e-06
-9.4373e-07
-3.37533e-06
-9.45711e-07
-3.06594e-06
-9.40275e-07
-2.76114e-06
-9.28436e-07
-2.46262e-06
-9.11628e-07
-2.17138e-06
-8.91504e-07
-1.88785e-06
-8.6986e-07
-1.61179e-06
-8.48697e-07
-1.34226e-06
-8.29944e-07
-1.07771e-06
-8.15242e-07
-8.16298e-07
-8.06263e-07
-5.55742e-07
-8.04614e-07
-2.93363e-07
-8.11459e-07
-2.59362e-08
-8.27909e-07
2.50073e-07
-8.54341e-07
5.38056e-07
-8.89931e-07
8.40849e-07
-9.32465e-07
1.15999e-06
-9.78606e-07
1.49557e-06
-1.02407e-06
1.84597e-06
-1.06438e-06
2.20818e-06
-1.09528e-06
2.57773e-06
-1.11298e-06
2.94931e-06
-1.1149e-06
3.31784e-06
-1.10035e-06
3.67845e-06
-1.0702e-06
4.02622e-06
-1.02691e-06
4.35714e-06
-9.74099e-07
4.66903e-06
-9.15584e-07
4.96129e-06
-8.54624e-07
5.23429e-06
-7.9315e-07
5.4888e-06
-7.33032e-07
5.72558e-06
-6.75568e-07
5.9454e-06
-6.20596e-07
6.14867e-06
-5.6689e-07
6.33548e-06
-5.13696e-07
6.50576e-06
-4.60816e-07
6.65932e-06
-4.07772e-07
6.79567e-06
-3.53607e-07
6.914e-06
-2.97115e-07
7.01322e-06
-2.37018e-07
7.09189e-06
-1.72087e-07
7.14876e-06
-1.02345e-07
7.18339e-06
-2.73913e-08
7.19453e-06
5.27191e-08
7.18057e-06
1.37494e-07
7.14007e-06
2.25796e-07
7.07158e-06
3.17033e-07
6.97365e-06
4.09889e-07
6.84691e-06
5.02933e-07
6.69322e-06
6.00107e-07
6.5111e-06
7.02847e-07
6.31163e-06
8.13208e-07
6.13434e-06
9.66253e-07
5.99782e-06
1.16735e-06
5.85123e-06
1.29884e-06
5.63577e-06
1.25441e-06
5.34053e-06
1.08888e-06
4.98835e-06
9.26353e-07
4.60542e-06
8.12646e-07
4.21047e-06
7.17386e-07
3.82453e-06
6.05424e-07
3.47637e-06
4.69576e-07
3.18897e-06
3.35456e-07
2.96602e-06
2.35433e-07
2.79363e-06
1.92565e-07
2.64981e-06
1.92272e-07
2.5219e-06
2.1321e-07
2.40627e-06
2.20468e-07
2.31122e-06
2.20155e-07
2.10612e-07
2.24095e-06
5.68622e-08
-1.85506e-08
2.73426e-07
-2.41145e-07
5.16484e-07
-4.23683e-07
6.97783e-07
-5.21701e-07
8.07319e-07
-5.56588e-07
8.70184e-07
-5.57848e-07
9.14481e-07
-5.4645e-07
9.56847e-07
-5.30441e-07
1.00369e-06
-5.12057e-07
1.05624e-06
-4.92233e-07
1.1137e-06
-4.71532e-07
1.17466e-06
-4.50369e-07
1.23762e-06
-4.29169e-07
1.30123e-06
-4.08292e-07
1.36479e-06
-3.88052e-07
1.42819e-06
-3.69072e-07
1.49094e-06
-3.51124e-07
1.55241e-06
-3.33529e-07
1.61245e-06
-3.16436e-07
1.67142e-06
-3.00296e-07
1.72972e-06
-2.85073e-07
1.78759e-06
-2.70359e-07
1.84504e-06
-2.55484e-07
1.90186e-06
-2.3958e-07
1.95749e-06
-2.2188e-07
2.01109e-06
-2.01327e-07
2.06193e-06
-1.76699e-07
2.10898e-06
-1.46675e-07
2.15085e-06
-1.0984e-07
2.18574e-06
-6.47313e-08
2.21155e-06
-1.00468e-08
2.22623e-06
5.57313e-08
2.22763e-06
1.3331e-07
2.21445e-06
2.2307e-07
2.1863e-06
3.24973e-07
2.14441e-06
4.38719e-07
2.09103e-06
5.63517e-07
2.02973e-06
6.98856e-07
1.96303e-06
8.43279e-07
1.89133e-06
9.939e-07
1.81185e-06
1.14471e-06
1.70617e-06
1.28486e-06
1.523e-06
1.38869e-06
1.22653e-06
1.3963e-06
8.66949e-07
1.26775e-06
5.14751e-07
1.01139e-06
2.24176e-07
6.59353e-07
8.73261e-09
2.5084e-07
-1.309e-07
-1.82374e-07
-2.13371e-07
-5.82204e-07
-2.80526e-07
-8.01562e-07
-3.81292e-07
-7.16033e-07
-5.55303e-07
-4.46584e-07
-8.37887e-07
-6.8406e-08
-1.19188e-06
2.89763e-07
-1.5842e-06
5.90065e-07
-1.97918e-06
8.3955e-07
-2.36997e-06
1.04147e-06
-2.7334e-06
1.19751e-06
-3.0372e-06
1.30997e-06
-3.27e-06
1.3777e-06
-3.42839e-06
1.40031e-06
-3.51976e-06
1.37565e-06
-3.56769e-06
1.30976e-06
-3.59929e-06
1.2153e-06
-3.63459e-06
1.10526e-06
-3.68305e-06
9.90815e-07
-3.74595e-06
8.80122e-07
-3.8216e-06
7.78468e-07
-3.90702e-06
6.88574e-07
-3.99914e-06
6.11595e-07
-4.09531e-06
5.47754e-07
-4.19343e-06
4.97004e-07
-4.29206e-06
4.59259e-07
-4.39065e-06
4.34304e-07
-4.48934e-06
4.21646e-07
-4.58888e-06
4.2118e-07
-4.69053e-06
4.32841e-07
-4.79576e-06
4.55348e-07
-4.90608e-06
4.86661e-07
-5.02272e-06
5.24019e-07
-5.14596e-06
5.63637e-07
-5.27547e-06
6.02147e-07
-5.41024e-06
6.35806e-07
-5.54831e-06
6.60264e-07
-5.68681e-06
6.71835e-07
-5.82225e-06
6.68079e-07
-5.95053e-06
6.46889e-07
-6.06706e-06
6.06497e-07
-6.16721e-06
5.46512e-07
-6.24677e-06
4.67716e-07
-6.30203e-06
3.71611e-07
-6.3302e-06
2.61338e-07
-6.3296e-06
1.41073e-07
-6.29967e-06
1.49691e-08
-6.24176e-06
-1.11492e-07
-6.15762e-06
-2.34554e-07
-6.04937e-06
-3.52588e-07
-5.91872e-06
-4.63718e-07
-5.7674e-06
-5.66844e-07
-5.59667e-06
-6.63392e-07
-5.40699e-06
-7.54419e-07
-5.19843e-06
-8.39966e-07
-4.97143e-06
-9.20128e-07
-4.72673e-06
-9.95188e-07
-4.46508e-06
-1.06437e-06
-4.18806e-06
-1.12521e-06
-3.89861e-06
-1.1749e-06
-3.60015e-06
-1.21233e-06
-3.29574e-06
-1.23774e-06
-2.98862e-06
-1.25086e-06
-2.6821e-06
-1.25223e-06
-2.37918e-06
-1.24319e-06
-2.08236e-06
-1.22526e-06
-1.79351e-06
-1.20048e-06
-1.51368e-06
-1.17133e-06