/*--------------------------------*- C++ -*----------------------------------*\
| =========                 |                                                 |
| \\      /  F ield         | OpenFOAM: The Open Source CFD Toolbox           |
|  \\    /   O peration     | Version:  2112                                  |
|   \\  /    A nd           | Website:  www.openfoam.com                      |
|    \\/     M anipulation  |                                                 |
\*---------------------------------------------------------------------------*/
FoamFile
{
    version     2.0;
    format      ascii;
    arch        "LSB;label=32;scalar=64";
    class       volVectorField;
    location    "0.34";
    object      U;
}
// * * * * * * * * * * * * * * * * * * * * * * * * * * * * * * * * * * * * * //

dimensions      [0 1 -1 0 0 0 0];

internalField   nonuniform List<vector> 
12225
(
(9.76438 0.0674183 0)
(9.27355 0.109001 0)
(8.73474 0.118705 0)
(8.18554 0.120621 0)
(7.66199 0.116938 0)
(7.1817 0.108421 0)
(6.75606 0.0965287 0)
(6.394 0.0826474 0)
(6.0997 0.0680403 0)
(5.87161 0.0538888 0)
(5.70345 0.041119 0)
(5.58598 0.0302878 0)
(5.50861 0.0216132 0)
(5.46106 0.0151948 0)
(5.43289 0.0110264 0)
(5.4198 0.00986244 0)
(5.39744 0.0261667 0)
(5.37405 -0.00284057 0)
(10.0957 0.0741225 0)
(10.284 0.108925 0)
(10.4001 0.116891 0)
(10.451 0.125039 0)
(10.4469 0.129908 0)
(10.392 0.129369 0)
(10.2927 0.123683 0)
(10.1581 0.113519 0)
(9.99749 0.0998908 0)
(9.81899 0.0842373 0)
(9.62898 0.0681008 0)
(9.43247 0.0527667 0)
(9.23336 0.039081 0)
(9.03485 0.0276059 0)
(8.8399 0.0181442 0)
(8.65127 0.0130708 0)
(8.47573 0.0106318 0)
(8.33396 0.0331508 0)
(10.0193 0.0415509 0)
(10.0733 0.0684555 0)
(10.1286 0.084431 0)
(10.1827 0.101914 0)
(10.2398 0.116227 0)
(10.2957 0.125773 0)
(10.3438 0.130959 0)
(10.3811 0.132447 0)
(10.4054 0.131075 0)
(10.4157 0.128027 0)
(10.4126 0.124567 0)
(10.3976 0.121674 0)
(10.3726 0.119905 0)
(10.3396 0.119382 0)
(10.3006 0.119903 0)
(10.2571 0.120793 0)
(10.2143 0.121805 0)
(10.1676 0.114223 0)
(10.0104 0.0334879 0)
(10.0434 0.0654513 0)
(10.0731 0.0821405 0)
(10.0985 0.0957676 0)
(10.1258 0.105971 0)
(10.1556 0.112012 0)
(10.1859 0.114529 0)
(10.2148 0.1141 0)
(10.2414 0.111323 0)
(10.2648 0.107084 0)
(10.285 0.10235 0)
(10.3024 0.0978815 0)
(10.3175 0.0941495 0)
(10.3312 0.0913156 0)
(10.3444 0.0892076 0)
(10.3579 0.0873081 0)
(10.3731 0.0847103 0)
(10.3895 0.0746177 0)
(10.0063 0.0280722 0)
(10.0321 0.0594441 0)
(10.0569 0.0755996 0)
(10.078 0.0884608 0)
(10.0997 0.0984145 0)
(10.1225 0.104543 0)
(10.1449 0.107299 0)
(10.1661 0.107373 0)
(10.1858 0.105474 0)
(10.2037 0.102413 0)
(10.2197 0.0989603 0)
(10.2341 0.0957045 0)
(10.2477 0.0930189 0)
(10.2613 0.0910313 0)
(10.2756 0.0894844 0)
(10.2912 0.087681 0)
(10.3087 0.0845431 0)
(10.3284 0.0774724 0)
(10.0039 0.0230477 0)
(10.0244 0.0526862 0)
(10.0469 0.069454 0)
(10.0669 0.0823361 0)
(10.0871 0.0920155 0)
(10.1078 0.0979339 0)
(10.128 0.100616 0)
(10.147 0.100823 0)
(10.1647 0.099168 0)
(10.1808 0.0963239 0)
(10.1955 0.0929467 0)
(10.2091 0.0895823 0)
(10.2221 0.0865425 0)
(10.235 0.0838188 0)
(10.2485 0.0811184 0)
(10.263 0.0778947 0)
(10.2786 0.0732397 0)
(10.2949 0.0653715 0)
(10.0026 0.0191703 0)
(10.0188 0.0463999 0)
(10.0389 0.0630786 0)
(10.058 0.0756901 0)
(10.0772 0.0850229 0)
(10.0968 0.0907873 0)
(10.1159 0.0935289 0)
(10.134 0.0939258 0)
(10.1509 0.0925471 0)
(10.1665 0.0900126 0)
(10.1808 0.0869248 0)
(10.1942 0.0837133 0)
(10.2072 0.0806001 0)
(10.2199 0.0775491 0)
(10.233 0.0743334 0)
(10.2467 0.0704758 0)
(10.261 0.065212 0)
(10.2753 0.0574462 0)
(10.0018 0.0161042 0)
(10.0147 0.0408146 0)
(10.0323 0.0568687 0)
(10.0501 0.0688842 0)
(10.0684 0.0778079 0)
(10.087 0.0833616 0)
(10.1053 0.0860685 0)
(10.1226 0.0865954 0)
(10.139 0.0854688 0)
(10.1542 0.08322 0)
(10.1683 0.0803443 0)
(10.1816 0.0771976 0)
(10.1944 0.0739677 0)
(10.207 0.0706314 0)
(10.2198 0.0669512 0)
(10.2327 0.0625291 0)
(10.2458 0.0568394 0)
(10.2587 0.0492766 0)
(10.0013 0.0135948 0)
(10.0116 0.035749 0)
(10.027 0.0509081 0)
(10.0434 0.0621819 0)
(10.0606 0.0705706 0)
(10.0783 0.0759071 0)
(10.0957 0.0785595 0)
(10.1123 0.0791273 0)
(10.128 0.0781454 0)
(10.1427 0.0760875 0)
(10.1565 0.0733585 0)
(10.1696 0.0702522 0)
(10.1822 0.0669175 0)
(10.1946 0.0633306 0)
(10.2069 0.0593067 0)
(10.2191 0.0545486 0)
(10.2312 0.0486893 0)
(10.2429 0.0414027 0)
(10.001 0.0114937 0)
(10.0094 0.0311087 0)
(10.0227 0.0451636 0)
(10.0378 0.0555846 0)
(10.0537 0.0632926 0)
(10.0703 0.068309 0)
(10.0869 0.0708905 0)
(10.1028 0.0715118 0)
(10.1179 0.0706542 0)
(10.1322 0.0687323 0)
(10.1456 0.0661008 0)
(10.1584 0.0630155 0)
(10.1707 0.0596019 0)
(10.1826 0.0558374 0)
(10.1944 0.051585 0)
(10.206 0.0466342 0)
(10.2172 0.0407453 0)
(10.2279 0.0337732 0)
(10.0008 0.00970626 0)
(10.0076 0.0268509 0)
(10.0193 0.0396316 0)
(10.033 0.0491118 0)
(10.0477 0.0560723 0)
(10.0631 0.060621 0)
(10.0787 0.0630106 0)
(10.0939 0.0636446 0)
(10.1085 0.062884 0)
(10.1224 0.0610818 0)
(10.1355 0.0585528 0)
(10.1479 0.0555112 0)
(10.1598 0.0520453 0)
(10.1714 0.0481473 0)
(10.1826 0.0437462 0)
(10.1935 0.0387072 0)
(10.2039 0.0328899 0)
(10.2138 0.0262572 0)
(10.0006 0.00826474 0)
(10.0065 0.0232376 0)
(10.0168 0.0347355 0)
(10.0293 0.0432862 0)
(10.0429 0.0495197 0)
(10.0573 0.053587 0)
(10.072 0.0557062 0)
(10.0864 0.0562245 0)
(10.1004 0.0554763 0)
(10.1138 0.053753 0)
(10.1266 0.051306 0)
(10.1387 0.0483071 0)
(10.1504 0.0448374 0)
(10.1616 0.0409089 0)
(10.1723 0.0364584 0)
(10.1827 0.031415 0)
(10.1924 0.0257251 0)
(10.2016 0.0194131 0)
(10.0005 0.00699014 0)
(10.0055 0.0198859 0)
(10.0147 0.0300298 0)
(10.0261 0.037607 0)
(10.0388 0.0430886 0)
(10.0522 0.0466365 0)
(10.0659 0.0484417 0)
(10.0796 0.0487981 0)
(10.0929 0.0479921 0)
(10.1058 0.0462712 0)
(10.1181 0.0438456 0)
(10.1299 0.0408698 0)
(10.1413 0.0374259 0)
(10.1522 0.0335174 0)
(10.1626 0.0291007 0)
(10.1724 0.0241529 0)
(10.1817 0.0186476 0)
(10.1904 0.0126469 0)
(10.0005 0.00569377 0)
(10.0047 0.0163261 0)
(10.0127 0.0248713 0)
(10.0231 0.0312777 0)
(10.0347 0.0358548 0)
(10.047 0.0387574 0)
(10.0598 0.0401461 0)
(10.0726 0.040256 0)
(10.0851 0.0393239 0)
(10.0973 0.0375538 0)
(10.1091 0.0351153 0)
(10.1204 0.0321331 0)
(10.1313 0.0286818 0)
(10.1417 0.0247948 0)
(10.1517 0.0204732 0)
(10.1611 0.0156942 0)
(10.1699 0.0104513 0)
(10.1781 0.00483314 0)
(10.0004 0.00436617 0)
(10.004 0.0125752 0)
(10.011 0.0192788 0)
(10.0202 0.0242974 0)
(10.0307 0.0277979 0)
(10.042 0.0299091 0)
(10.0538 0.0307584 0)
(10.0656 0.0305219 0)
(10.0774 0.0293833 0)
(10.0888 0.0275035 0)
(10.0999 0.0250143 0)
(10.1106 0.0220156 0)
(10.1209 0.018574 0)
(10.1307 0.0147286 0)
(10.14 0.010501 0)
(10.1489 0.00591193 0)
(10.1571 0.000984498 0)
(10.1648 -0.00420201 0)
(10.0003 0.00299726 0)
(10.0034 0.00864262 0)
(10.0094 0.0132701 0)
(10.0176 0.0166698 0)
(10.0271 0.0189022 0)
(10.0374 0.0200557 0)
(10.0481 0.0202217 0)
(10.059 0.0195214 0)
(10.0699 0.0180853 0)
(10.0806 0.0160312 0)
(10.0909 0.0134565 0)
(10.1009 0.0104381 0)
(10.1105 0.00703252 0)
(10.1197 0.00328096 0)
(10.1283 -0.000784334 0)
(10.1365 -0.00513166 0)
(10.1441 -0.00972754 0)
(10.1512 -0.0144922 0)
(10.0003 0.00157019 0)
(10.003 0.00450535 0)
(10.0082 0.00683267 0)
(10.0155 0.00837665 0)
(10.024 0.00913454 0)
(10.0333 0.00914916 0)
(10.0431 0.00847405 0)
(10.0531 0.00718094 0)
(10.0632 0.0053505 0)
(10.073 0.00305808 0)
(10.0827 0.000368022 0)
(10.0919 -0.00266672 0)
(10.1008 -0.00600338 0)
(10.1092 -0.00960664 0)
(10.1172 -0.0134449 0)
(10.1247 -0.0174857 0)
(10.1317 -0.0216965 0)
(10.1382 -0.0260098 0)
(10.0003 5.10716e-05 0)
(10.0026 7.79803e-05 0)
(10.0073 -0.000138093 0)
(10.0139 -0.000703839 0)
(10.0216 -0.00164966 0)
(10.0302 -0.00297396 0)
(10.0392 -0.00466123 0)
(10.0485 -0.00668381 0)
(10.0577 -0.00900754 0)
(10.0669 -0.0115987 0)
(10.0758 -0.0144273 0)
(10.0844 -0.0174676 0)
(10.0926 -0.0206971 0)
(10.1004 -0.0240953 0)
(10.1078 -0.0276421 0)
(10.1146 -0.0313154 0)
(10.121 -0.0350933 0)
(10.127 -0.0389261 0)
(10.0002 -0.00163739 0)
(10.0025 -0.00484123 0)
(10.0069 -0.0079025 0)
(10.0132 -0.0108509 0)
(10.0205 -0.0137365 0)
(10.0286 -0.0165981 0)
(10.0371 -0.019457 0)
(10.0459 -0.0223269 0)
(10.0547 -0.0252187 0)
(10.0634 -0.0281418 0)
(10.0718 -0.0311041 0)
(10.0799 -0.0341131 0)
(10.0875 -0.0371752 0)
(10.0948 -0.0402946 0)
(10.1016 -0.043473 0)
(10.1079 -0.0467078 0)
(10.1138 -0.0499946 0)
(10.1193 -0.0533065 0)
(10.0003 -0.00325244 0)
(10.0027 -0.0095308 0)
(10.0074 -0.0152572 0)
(10.0138 -0.020402 0)
(10.0213 -0.0250598 0)
(10.0295 -0.0293159 0)
(10.0382 -0.033224 0)
(10.047 -0.0368333 0)
(10.0558 -0.0401953 0)
(10.0644 -0.0433577 0)
(10.0727 -0.0463639 0)
(10.0807 -0.0492548 0)
(10.0881 -0.0520681 0)
(10.0952 -0.0548373 0)
(10.1017 -0.0575901 0)
(10.1077 -0.0603476 0)
(10.1133 -0.0631259 0)
(10.1183 -0.0659209 0)
(10.0003 -0.00468013 0)
(10.003 -0.0136242 0)
(10.0083 -0.021546 0)
(10.0154 -0.0284236 0)
(10.0234 -0.0344582 0)
(10.032 -0.0397853 0)
(10.0411 -0.0444789 0)
(10.0502 -0.0486186 0)
(10.0593 -0.0522894 0)
(10.0682 -0.0555683 0)
(10.0767 -0.0585258 0)
(10.0847 -0.0612309 0)
(10.0923 -0.0637496 0)
(10.0993 -0.0661422 0)
(10.1057 -0.0684612 0)
(10.1116 -0.0707502 0)
(10.117 -0.0730444 0)
(10.1219 -0.075358 0)
(10.0004 -0.00616323 0)
(10.0037 -0.0177607 0)
(10.0099 -0.0276709 0)
(10.0178 -0.0360298 0)
(10.0266 -0.04324 0)
(10.0359 -0.0494779 0)
(10.0456 -0.0548231 0)
(10.0554 -0.0593848 0)
(10.065 -0.0632774 0)
(10.0743 -0.0665986 0)
(10.0832 -0.0694407 0)
(10.0916 -0.0718983 0)
(10.0994 -0.0740654 0)
(10.1065 -0.07603 0)
(10.1131 -0.0778705 0)
(10.1189 -0.0796549 0)
(10.1242 -0.0814397 0)
(10.129 -0.0832604 0)
(10.0005 -0.00781686 0)
(10.0048 -0.0221452 0)
(10.0124 -0.033815 0)
(10.0214 -0.04341 0)
(10.031 -0.0516249 0)
(10.0412 -0.058636 0)
(10.0518 -0.064522 0)
(10.0623 -0.0694272 0)
(10.0727 -0.0734847 0)
(10.0827 -0.076799 0)
(10.0922 -0.0794757 0)
(10.101 -0.0816326 0)
(10.1092 -0.0833911 0)
(10.1166 -0.0848672 0)
(10.1232 -0.0861676 0)
(10.1292 -0.087386 0)
(10.1344 -0.0886012 0)
(10.139 -0.0898654 0)
(10.0007 -0.00978236 0)
(10.0066 -0.0269218 0)
(10.0159 -0.0400176 0)
(10.0263 -0.0506167 0)
(10.037 -0.0597231 0)
(10.0482 -0.0674009 0)
(10.0598 -0.0737266 0)
(10.0713 -0.0789008 0)
(10.0825 -0.0830696 0)
(10.0932 -0.086332 0)
(10.1034 -0.0888004 0)
(10.1128 -0.0906152 0)
(10.1213 -0.091926 0)
(10.129 -0.0928752 0)
(10.1358 -0.0935993 0)
(10.1418 -0.0942239 0)
(10.147 -0.094859 0)
(10.1515 -0.0955859 0)
(10.0011 -0.0122859 0)
(10.0094 -0.0323307 0)
(10.0211 -0.0463697 0)
(10.033 -0.05771 0)
(10.0449 -0.0676598 0)
(10.0573 -0.0760051 0)
(10.0699 -0.0827589 0)
(10.0823 -0.0881622 0)
(10.0943 -0.0923679 0)
(10.1058 -0.0954708 0)
(10.1165 -0.0975931 0)
(10.1265 -0.0989087 0)
(10.1355 -0.0996118 0)
(10.1435 -0.0998781 0)
(10.1505 -0.0998714 0)
(10.1566 -0.0997432 0)
(10.1618 -0.0996219 0)
(10.1661 -0.0995719 0)
(10.002 -0.0157227 0)
(10.0141 -0.0389971 0)
(10.0288 -0.0534897 0)
(10.0422 -0.064987 0)
(10.0552 -0.075046 0)
(10.0688 -0.0834728 0)
(10.0825 -0.0903542 0)
(10.0959 -0.0959147 0)
(10.109 -0.100247 0)
(10.1216 -0.103408 0)
(10.1336 -0.1055 0)
(10.1447 -0.106685 0)
(10.1548 -0.107153 0)
(10.1638 -0.10712 0)
(10.1718 -0.106803 0)
(10.1787 -0.106393 0)
(10.1846 -0.10606 0)
(10.1897 -0.105872 0)
(10.0041 -0.0200905 0)
(10.0218 -0.0453862 0)
(10.0405 -0.0603863 0)
(10.0565 -0.0726945 0)
(10.0722 -0.0832786 0)
(10.0886 -0.0916874 0)
(10.1053 -0.0983445 0)
(10.1221 -0.103569 0)
(10.1388 -0.107407 0)
(10.1553 -0.109899 0)
(10.1715 -0.111146 0)
(10.1868 -0.111362 0)
(10.2011 -0.110757 0)
(10.2139 -0.109495 0)
(10.2252 -0.107807 0)
(10.2351 -0.105965 0)
(10.2436 -0.104141 0)
(10.2503 -0.102435 0)
(10.0095 -0.025954 0)
(10.039 -0.0474137 0)
(10.0698 -0.0602546 0)
(10.0991 -0.0743461 0)
(10.1314 -0.0877205 0)
(10.166 -0.0990136 0)
(10.2013 -0.108499 0)
(10.2362 -0.116524 0)
(10.2697 -0.123018 0)
(10.3008 -0.127888 0)
(10.3283 -0.131164 0)
(10.3514 -0.132961 0)
(10.3698 -0.133531 0)
(10.3833 -0.133215 0)
(10.3918 -0.13237 0)
(10.3956 -0.131382 0)
(10.3951 -0.130499 0)
(10.3912 -0.130147 0)
(10.0515 -0.0520901 0)
(10.1748 -0.0841528 0)
(10.2757 -0.093879 0)
(10.3508 -0.103769 0)
(10.4025 -0.112686 0)
(10.4316 -0.119342 0)
(10.4374 -0.124002 0)
(10.4212 -0.12679 0)
(10.3853 -0.127569 0)
(10.3323 -0.126269 0)
(10.2647 -0.122967 0)
(10.1852 -0.117887 0)
(10.0961 -0.111373 0)
(9.99965 -0.10381 0)
(9.89768 -0.0955875 0)
(9.79181 -0.0871979 0)
(9.68323 -0.0789319 0)
(9.57329 -0.0718699 0)
(9.87225 -0.0504928 0)
(9.57844 -0.0895451 0)
(9.23343 -0.104025 0)
(8.86292 -0.112286 0)
(8.49007 -0.116486 0)
(8.12434 -0.11718 0)
(7.77084 -0.115268 0)
(7.43468 -0.111295 0)
(7.12036 -0.105584 0)
(6.83117 -0.0984458 0)
(6.56931 -0.0902227 0)
(6.33603 -0.0812792 0)
(6.13161 -0.0719758 0)
(5.95537 -0.0626368 0)
(5.80579 -0.0535409 0)
(5.68094 -0.0449738 0)
(5.5773 -0.0372759 0)
(5.49465 -0.0300055 0)
(-0.00318476 0.00612436 -2.30368e-21)
(-0.00700402 0.00720787 2.25219e-21)
(-0.0137547 0.007912 0)
(-0.020509 0.00835582 0)
(-0.0278784 0.00845648 0)
(-0.0356248 0.00830818 -2.15585e-21)
(-0.0436543 0.0080751 0)
(-0.0519105 0.0079122 0)
(-0.0603918 0.00791181 0)
(-0.0691105 0.00808795 0)
(-0.0780781 0.00841157 1.99117e-21)
(-0.0873036 0.00884802 0)
(-0.0967976 0.00938057 0)
(-0.106573 0.0100238 0)
(-0.116648 0.0107351 0)
(-0.127034 0.0113718 1.8624e-21)
(-0.137707 0.011879 0)
(-0.148627 0.0123019 0)
(-0.159779 0.0126636 0)
(-0.171151 0.0129698 0)
(-0.182733 0.0132247 0)
(-0.194518 0.0134355 0)
(-0.2065 0.0136113 0)
(-0.218681 0.0137622 1.7444e-21)
(-0.231064 0.0138979 -1.73253e-21)
(-0.243655 0.014027 1.72093e-21)
(-0.256466 0.0141568 1.70957e-21)
(-0.269508 0.0142929 0)
(-0.282795 0.0144389 0)
(-0.29634 0.0145971 -1.67658e-21)
(-0.310156 0.0147683 -1.66592e-21)
(-0.324258 0.0149524 0)
(-0.338657 0.0151484 0)
(-0.353364 0.0153549 -1.63487e-21)
(-0.368389 0.0155702 0)
(-0.38374 0.0157925 0)
(-0.399422 0.01602 1.60522e-21)
(-0.415442 0.0162508 0)
(-0.431803 0.0164832 1.58622e-21)
(-0.448506 0.0167156 3.15387e-21)
(-0.465551 0.0169462 0)
(-0.482939 0.0171736 0)
(-0.500665 0.017396 0)
(-0.518727 0.0176121 0)
(-0.537117 0.0178202 0)
(-0.555828 0.0180189 3.04825e-21)
(-0.574853 0.0182067 3.03148e-21)
(-0.594179 0.0183822 3.01492e-21)
(-0.613794 0.0185438 0)
(-0.633685 0.0186902 -2.98229e-21)
(-0.653836 0.0188201 0)
(-0.67423 0.0189321 2.9502e-21)
(-0.694847 0.019025 2.93429e-21)
(-0.715668 0.0190975 0)
(-0.73667 0.0191486 0)
(-0.757831 0.0191773 0)
(-0.779125 0.0191827 2.87089e-21)
(-0.800527 0.019164 0)
(-0.822009 0.0191208 0)
(-0.843544 0.0190525 0)
(-0.865103 0.0189589 0)
(-0.886656 0.0188398 0)
(-0.908174 0.0186952 0)
(-0.929626 0.0185252 0)
(-0.95098 0.0183299 0)
(-0.972207 0.0181096 -2.72042e-21)
(-0.993276 0.0178648 0)
(-1.01415 0.0175959 0)
(-1.03481 0.0173036 2.66433e-21)
(-1.05522 0.0169884 2.64465e-21)
(-1.07535 0.0166514 0)
(-1.09517 0.0162934 -2.60363e-21)
(-1.11465 0.0159155 2.58223e-21)
(-1.13377 0.0155189 0)
(-1.1525 0.0151048 -2.53747e-21)
(-1.17082 0.0146746 0)
(-1.1887 0.0142298 0)
(-1.20612 0.0137719 2.46516e-21)
(-1.22307 0.0133025 0)
(-1.23953 0.0128235 -2.41328e-21)
(-1.25547 0.0123366 0)
(-1.27089 0.011844 2.35836e-21)
(-1.28579 0.0113478 2.32975e-21)
(-1.30014 0.0108505 2.30036e-21)
(-1.31395 0.0103545 4.54042e-21)
(-1.32721 0.00986237 -4.47858e-21)
(-1.33992 0.00937657 0)
(-1.35208 0.00889942 0)
(-1.36369 0.00843305 0)
(-1.37477 0.0079793 -4.21616e-21)
(-1.38532 0.00753985 -4.14688e-21)
(-1.39536 0.00711616 4.07619e-21)
(-1.40488 0.0067096 0)
(-1.41391 0.00632145 -3.93067e-21)
(-1.42247 0.00595293 -3.85592e-21)
(-1.43058 0.00560514 -3.7799e-21)
(-1.43824 0.00527901 0)
(-1.4455 0.00497519 0)
(-1.45237 0.00469397 0)
(-1.45887 0.00443524 -3.46395e-21)
(-1.46503 0.00419845 0)
(-1.47088 0.00398263 0)
(-1.47643 0.00378643 3.21574e-21)
(-1.48171 0.0036081 0)
(-1.48674 0.00344565 0)
(-1.49152 0.00329685 2.95895e-21)
(-1.49608 0.00315938 0)
(-1.50043 0.00303089 0)
(-1.50456 0.00290904 -2.69409e-21)
(-1.50848 0.00279154 -2.60404e-21)
(-1.5122 0.00267603 0)
(-1.51571 0.00255976 2.42125e-21)
(-1.519 0.00243884 0)
(-1.52207 0.0023073 -2.23479e-21)
(-1.52491 0.00215502 0)
(-1.52748 0.00196935 -2.04454e-21)
(-1.52978 0.00176703 -1.94784e-21)
(-1.53181 0.00163244 0)
(-1.53356 0.00156869 0)
(-1.53497 0.00153548 0)
(-1.53605 0.00146812 0)
(-1.53677 0.00137623 0)
(-1.53713 0.00126584 0)
(-1.53711 0.00113977 0)
(-1.53669 0.000999707 -1.13853e-21)
(-1.53585 0.000846621 1.03236e-21)
(-1.53456 0.000680904 0)
(-1.5328 0.000502501 0)
(-1.53055 0.000311017 0)
(-1.52779 0.000105813 0)
(-1.5245 -0.000113902 9.67644e-22)
(-1.52063 -0.000349037 0)
(-1.51618 -0.000600635 -5.11862e-22)
(-1.5111 -0.000869885 2.80269e-22)
(-1.50538 -0.00115813 0)
(-1.49897 -0.00146681 0)
(-1.49184 -0.00179727 0)
(-1.48398 -0.00214979 6.7096e-22)
(-1.47533 -0.00252191 9.14976e-22)
(-1.46586 -0.0029113 0)
(-1.45553 -0.00331876 1.4104e-21)
(-1.44431 -0.00374473 1.66177e-21)
(-1.43215 -0.00418873 -1.91555e-21)
(-1.41901 -0.00464955 0)
(-1.40483 -0.0051254 0)
(-1.38959 -0.00561434 -2.69105e-21)
(-1.37322 -0.00611504 0)
(-1.3557 -0.00662748 0)
(-1.33697 -0.00715344 0)
(-1.31698 -0.00769614 0)
(-1.29568 -0.00825867 4.02671e-21)
(-1.27301 -0.00884291 4.29938e-21)
(-1.24891 -0.0094496 0)
(-1.22333 -0.0100788 4.84911e-21)
(-1.19622 -0.0107302 0)
(-1.16751 -0.0114042 0)
(-1.13716 -0.0121026 5.68163e-21)
(-1.10509 -0.0128267 0)
(-1.07127 -0.0135764 6.23907e-21)
(-1.03562 -0.0143509 0)
(-0.998096 -0.0151494 0)
(-0.95866 -0.0159723 7.07251e-21)
(-0.917263 -0.0168214 0)
(-0.873861 -0.0176978 7.62158e-21)
(-0.828419 -0.0186005 0)
(-0.780909 -0.0195292 0)
(-0.731311 -0.0204872 0)
(-0.679602 -0.0214816 -8.68483e-21)
(-0.625757 -0.0225206 0)
(-0.569748 -0.0236167 9.18735e-21)
(-0.511528 -0.0247959 0)
(-0.451015 -0.0260968 0)
(-0.388085 -0.0275681 0)
(-0.322661 -0.0291897 0)
(-0.254528 -0.0301988 0)
(-0.18837 -0.0272237 0)
(-0.1262 -0.0232308 0)
(-0.0653099 -0.0225421 -2.1544e-20)
(0.00147944 -0.022526 0)
(0.0549602 -0.0183226 0)
(-0.0038186 0.0148796 6.88567e-21)
(-0.00750321 0.0176656 -6.72859e-21)
(-0.0148527 0.0198591 0)
(-0.0219257 0.0216543 4.401e-21)
(-0.0297123 0.0231113 0)
(-0.0380361 0.0242759 2.14573e-21)
(-0.0468409 0.0252022 -4.22663e-21)
(-0.0560524 0.0259463 -4.15693e-21)
(-0.0655973 0.0265551 0)
(-0.0754158 0.0270621 -4.01497e-21)
(-0.0854665 0.0274925 -1.97347e-21)
(-0.0957253 0.0278684 0)
(-0.106179 0.0282105 0)
(-0.116815 0.0285393 0)
(-0.12762 0.0288702 0)
(-0.138598 0.0291967 -1.83875e-21)
(-0.149772 0.0295008 0)
(-0.16116 0.0297805 3.59636e-21)
(-0.17277 0.0300419 0)
(-0.184609 0.0302914 0)
(-0.196684 0.0305353 -3.49775e-21)
(-0.208999 0.0307795 0)
(-0.221563 0.0310302 3.44136e-21)
(-0.234383 0.031293 -1.70974e-21)
(-0.247467 0.031573 1.69713e-21)
(-0.260823 0.0318738 -1.6849e-21)
(-0.274459 0.032198 -1.67297e-21)
(-0.288386 0.0325466 0)
(-0.302612 0.0329195 0)
(-0.317147 0.0333154 1.63867e-21)
(-0.332002 0.0337321 -1.62219e-21)
(-0.347185 0.0341669 0)
(-0.362706 0.0346165 0)
(-0.378573 0.0350773 1.59572e-21)
(-0.394794 0.0355459 0)
(-0.411374 0.0360186 0)
(-0.428318 0.0364918 -1.56537e-21)
(-0.445631 0.0369621 0)
(-0.463314 0.037426 1.53957e-21)
(-0.48137 0.0378804 -3.07297e-21)
(-0.499795 0.0383219 0)
(-0.51859 0.0387475 0)
(-0.537748 0.039154 -6.02202e-21)
(-0.557266 0.0395384 -5.98616e-21)
(-0.577134 0.0398979 -5.95081e-21)
(-0.597344 0.0402294 2.95071e-21)
(-0.617884 0.0405302 -2.94813e-21)
(-0.638742 0.0407976 -8.77873e-21)
(-0.659902 0.0410288 5.81387e-21)
(-0.681349 0.0412214 2.89797e-21)
(-0.703063 0.041373 0)
(-0.725025 0.0414814 -2.86527e-21)
(-0.747211 0.0415444 2.8332e-21)
(-0.7696 0.0415602 0)
(-0.792165 0.0415271 0)
(-0.814879 0.0414436 0)
(-0.837716 0.0413087 -2.78464e-21)
(-0.860644 0.0411215 0)
(-0.883635 0.0408814 5.48815e-21)
(-0.906656 0.0405881 0)
(-0.929676 0.0402417 5.42244e-21)
(-0.952661 0.0398425 0)
(-0.97558 0.0393911 -5.35535e-21)
(-0.998398 0.0388884 0)
(-1.02108 0.0383355 5.28631e-21)
(-1.0436 0.0377336 -2.61759e-21)
(-1.06592 0.0370844 0)
(-1.088 0.0363894 -5.17792e-21)
(-1.10982 0.0356508 -2.57765e-21)
(-1.13134 0.0348708 -2.55822e-21)
(-1.15254 0.0340518 0)
(-1.17338 0.0331966 -2.50369e-21)
(-1.19383 0.0323081 -2.49691e-21)
(-1.21387 0.0313895 0)
(-1.23348 0.0304441 2.45325e-21)
(-1.25262 0.0294755 -4.84831e-21)
(-1.27129 0.0284875 0)
(-1.28945 0.0274838 -2.38316e-21)
(-1.3071 0.0264683 0)
(-1.32422 0.025445 6.98862e-21)
(-1.34079 0.0244177 0)
(-1.35682 0.0233904 -6.83174e-21)
(-1.37228 0.0223668 -2.25333e-21)
(-1.38719 0.0213504 2.21613e-21)
(-1.40152 0.0203445 4.37589e-21)
(-1.41529 0.0193525 -4.31817e-21)
(-1.42849 0.0183772 0)
(-1.44113 0.0174214 0)
(-1.4532 0.0164877 0)
(-1.46472 0.0155788 1.22471e-20)
(-1.47569 0.0146969 4.02135e-21)
(-1.48611 0.0138446 -3.95446e-21)
(-1.49601 0.0130242 0)
(-1.50539 0.0122381 -3.80605e-21)
(-1.51426 0.0114884 3.74547e-21)
(-1.52266 0.010777 3.67309e-21)
(-1.53059 0.0101056 0)
(-1.53808 0.00947497 0)
(-1.54515 0.0088853 0)
(-1.55183 0.00833594 3.37081e-21)
(-1.55814 0.00782543 0)
(-1.5641 0.00735151 -6.41851e-21)
(-1.56974 0.0069112 -9.3892e-21)
(-1.57507 0.00650094 6.09407e-21)
(-1.58011 0.00611672 0)
(-1.58488 0.00575428 2.87793e-21)
(-1.58937 0.00540924 0)
(-1.59361 0.00507737 5.42108e-21)
(-1.59758 0.00475463 -2.62156e-21)
(-1.6013 0.00443736 -2.5342e-21)
(-1.60476 0.00412231 0)
(-1.60794 0.00380666 -7.07835e-21)
(-1.61085 0.00348803 4.53686e-21)
(-1.61347 0.00316484 2.17897e-21)
(-1.61579 0.00283599 0)
(-1.61779 0.00249599 1.99315e-21)
(-1.61941 0.00213072 5.69351e-21)
(-1.62067 0.00169382 0)
(-1.62162 0.00127476 3.41162e-21)
(-1.62221 0.000874478 3.21718e-21)
(-1.6224 0.000464617 3.02071e-21)
(-1.62217 4.30442e-05 0)
(-1.62148 -0.000391489 0)
(-1.62032 -0.000839639 0)
(-1.61865 -0.00130178 -1.10684e-21)
(-1.61647 -0.00177816 -1.0036e-21)
(-1.61374 -0.002269 0)
(-1.61045 -0.00277462 -1.5871e-21)
(-1.60657 -0.00329543 -1.37386e-21)
(-1.60207 -0.00383188 0)
(-1.59693 -0.00438437 -9.38334e-22)
(-1.59113 -0.00495322 -1.44295e-21)
(-1.58463 -0.00553876 4.95765e-22)
(-1.57741 -0.00614126 2.8082e-22)
(-1.56945 -0.00676105 0)
(-1.56071 -0.00739844 0)
(-1.55116 -0.00805373 0)
(-1.54079 -0.00872712 -6.47684e-22)
(-1.52955 -0.00941791 8.64419e-22)
(-1.51741 -0.0101256 2.21895e-21)
(-1.50436 -0.0108515 -1.35861e-21)
(-1.49034 -0.011597 1.57501e-21)
(-1.47532 -0.0123632 1.84275e-21)
(-1.45926 -0.0131512 0)
(-1.44213 -0.0139615 0)
(-1.42386 -0.014795 -2.54935e-21)
(-1.40442 -0.0156521 0)
(-1.38376 -0.0165335 0)
(-1.36181 -0.01744 6.64241e-21)
(-1.33853 -0.0183727 0)
(-1.31387 -0.0193322 3.80725e-21)
(-1.28776 -0.0203175 -4.11567e-21)
(-1.26018 -0.021327 0)
(-1.23106 -0.0223586 4.57649e-21)
(-1.20037 -0.0234102 0)
(-1.16806 -0.0244801 0)
(-1.13409 -0.0255687 -5.41983e-21)
(-1.09843 -0.0266753 1.1287e-20)
(-1.06102 -0.0277966 -5.94097e-21)
(-1.02185 -0.0289282 0)
(-0.980867 -0.0300646 0)
(-0.938062 -0.0312017 6.62205e-21)
(-0.893414 -0.0323367 0)
(-0.846905 -0.0334648 7.11648e-21)
(-0.798529 -0.0345776 0)
(-0.748286 -0.0356658 0)
(-0.69619 -0.0367237 0)
(-0.642255 -0.0377487 8.17703e-21)
(-0.5865 -0.0387359 0)
(-0.528954 -0.0396802 -8.62576e-21)
(-0.469652 -0.0405832 0)
(-0.408647 -0.0414407 0)
(-0.346043 -0.0422093 1.83577e-20)
(-0.282217 -0.0426581 -1.87395e-20)
(-0.217599 -0.0420472 0)
(-0.153734 -0.040149 0)
(-0.0886154 -0.039717 0)
(-0.0240271 -0.0401568 6.09039e-20)
(0.045542 -0.0398783 0)
(0.104226 -0.0350458 -4.18592e-20)
(-0.00434293 0.0278428 4.29018e-25)
(-0.00832092 0.0325077 8.97945e-21)
(-0.0162603 0.0360129 0)
(-0.0238986 0.0388298 -8.79451e-21)
(-0.0321961 0.0411052 0)
(-0.0410139 0.0429205 0)
(-0.0502842 0.0443703 -1.03049e-24)
(-0.0599395 0.0455507 4.15479e-21)
(-0.069922 0.0465454 4.08497e-21)
(-0.0801867 0.0474175 4.01444e-21)
(-0.0907 0.0482123 0)
(-0.101437 0.0489626 0)
(-0.11238 0.0496919 -3.83002e-21)
(-0.123515 0.0504146 -7.55471e-21)
(-0.134831 0.0511326 7.4581e-21)
(-0.146324 0.0518355 0)
(-0.158004 0.0525138 7.28825e-21)
(-0.169881 0.0531659 -3.60437e-21)
(-0.181969 0.0537948 0)
(-0.194281 0.0544048 7.07961e-21)
(-0.206828 0.0550015 3.50685e-21)
(-0.219625 0.0555918 -6.96188e-21)
(-0.232682 0.0561831 -3.45085e-21)
(-0.246011 0.0567831 0)
(-0.259624 0.0573991 6.80453e-21)
(-0.273532 0.0580374 6.75548e-21)
(-0.287744 0.0587027 0)
(-0.302272 0.0593982 6.66089e-21)
(-0.317123 0.0601253 0)
(-0.332308 0.0608835 6.57006e-21)
(-0.347834 0.0616711 3.25981e-21)
(-0.363709 0.0624848 0)
(-0.37994 0.0633206 0)
(-0.396534 0.0641735 0)
(-0.413495 0.0650382 0)
(-0.430828 0.065909 0)
(-0.448536 0.06678 0)
(-0.466621 0.0676453 6.23538e-21)
(-0.485082 0.0684989 -9.29099e-21)
(-0.503918 0.0693349 0)
(-0.523127 0.0701474 0)
(-0.542703 0.0709304 0)
(-0.562641 0.0716783 -7.7961e-24)
(-0.582932 0.0723853 6.00174e-21)
(-0.603567 0.0730458 1.19396e-20)
(-0.624533 0.0736543 -1.18686e-20)
(-0.645816 0.0742054 -5.9034e-21)
(-0.667402 0.0746938 5.86026e-21)
(-0.689273 0.0751147 8.62977e-24)
(-0.711408 0.0754633 5.80043e-21)
(-0.733788 0.075735 0)
(-0.75639 0.0759257 5.73312e-21)
(-0.779188 0.0760314 9.03913e-24)
(-0.802157 0.0760488 0)
(-0.825269 0.0759747 0)
(-0.848496 0.0758066 -5.60006e-21)
(-0.871807 0.0755425 0)
(-0.895171 0.0751809 0)
(-0.918557 0.074721 5.50923e-21)
(-0.94193 0.0741625 1.09324e-20)
(-0.965259 0.0735057 -5.42291e-21)
(-0.98851 0.0727516 0)
(-1.01165 0.0719016 5.35381e-21)
(-1.03464 0.0709574 0)
(-1.05746 0.0699214 5.3008e-21)
(-1.08007 0.0687963 5.24647e-21)
(-1.10243 0.0675851 -1.04364e-20)
(-1.12452 0.0662915 -5.18898e-21)
(-1.1463 0.0649193 0)
(-1.16774 0.0634729 1.02043e-20)
(-1.18883 0.0619572 0)
(-1.20952 0.0603774 1.50529e-20)
(-1.22979 0.0587392 9.95577e-21)
(-1.24962 0.0570487 9.8688e-21)
(-1.26899 0.0553123 -9.77962e-21)
(-1.28788 0.0535367 1.4525e-20)
(-1.30626 0.0517288 0)
(-1.32412 0.0498958 0)
(-1.34145 0.0480448 -9.39935e-21)
(-1.35823 0.0461829 -1.39409e-20)
(-1.37447 0.044317 0)
(-1.39014 0.0424539 4.5382e-21)
(-1.40525 0.0405999 0)
(-1.41978 0.0387608 -1.32954e-20)
(-1.43374 0.036942 9.9584e-24)
(-1.44713 0.0351487 -9.46207e-24)
(-1.45994 0.0333852 8.51543e-21)
(-1.47218 0.0316559 0)
(-1.48384 0.0299649 -8.26692e-21)
(-1.49494 0.0283164 7.6028e-24)
(-1.50547 0.0267143 0)
(-1.51544 0.0251631 0)
(-1.52486 0.0236672 0)
(-1.53374 0.0222311 7.58917e-21)
(-1.54209 0.0208593 0)
(-1.54993 0.0195558 0)
(-1.55729 0.0183239 0)
(-1.56417 0.0171657 0)
(-1.5706 0.0160818 0)
(-1.57661 0.0150713 6.69849e-21)
(-1.58222 0.0141315 0)
(-1.58745 0.0132583 6.37635e-21)
(-1.59231 0.0124463 6.2142e-21)
(-1.59683 0.0116888 -6.05001e-21)
(-1.60103 0.0109782 0)
(-1.60491 0.0103067 -5.71578e-21)
(-1.60848 0.00966611 0)
(-1.61175 0.00904863 -5.37409e-21)
(-1.61472 0.00844685 5.20054e-21)
(-1.61738 0.007854 1.50838e-20)
(-1.61974 0.00726402 0)
(-1.62178 0.00667162 1.40167e-20)
(-1.62349 0.00607188 4.49793e-21)
(-1.62486 0.00546058 0)
(-1.62588 0.00483623 8.25488e-21)
(-1.62656 0.00421165 7.88379e-21)
(-1.6269 0.0035788 -1.12583e-20)
(-1.62684 0.00287417 0)
(-1.62633 0.00213137 -3.36764e-21)
(-1.62539 0.00135208 -3.17455e-21)
(-1.62401 0.000552147 -8.95211e-21)
(-1.62216 -0.000267654 0)
(-1.61981 -0.00110821 0)
(-1.61696 -0.00197064 0)
(-1.61357 -0.00285568 -2.19568e-21)
(-1.60963 -0.00376378 0)
(-1.60512 -0.0046953 0)
(-1.60001 -0.00565067 1.56151e-21)
(-1.59429 -0.0066305 1.35123e-21)
(-1.58793 -0.00763545 0)
(-1.58091 -0.00866603 0)
(-1.5732 -0.00972258 1.41768e-21)
(-1.56479 -0.0108054 0)
(-1.55564 -0.0119147 -5.42073e-22)
(-1.54573 -0.0130507 -1.19417e-22)
(-1.53504 -0.0142136 0)
(-1.52354 -0.0154038 0)
(-1.51119 -0.0166216 -1.23137e-21)
(-1.49797 -0.0178681 -2.3772e-23)
(-1.48385 -0.0191454 -2.45571e-23)
(-1.4688 -0.0204563 0)
(-1.45277 -0.0218033 -6.19433e-21)
(-1.43572 -0.0231888 0)
(-1.41762 -0.0246144 0)
(-1.39843 -0.0260812 0)
(-1.37808 -0.0275901 5.02478e-21)
(-1.35655 -0.0291412 0)
(-1.33379 -0.030734 -1.19434e-20)
(-1.30975 -0.0323679 -6.49672e-21)
(-1.28439 -0.0340433 0)
(-1.25768 -0.0357594 -7.49207e-21)
(-1.22957 -0.0375133 0)
(-1.20003 -0.0393015 0)
(-1.16901 -0.0411197 -2.69286e-20)
(-1.13648 -0.0429635 1.89379e-20)
(-1.10242 -0.0448291 0)
(-1.06677 -0.0467162 2.09584e-20)
(-1.02953 -0.0486236 -1.10203e-20)
(-0.990643 -0.0505455 0)
(-0.950095 -0.0524742 0)
(-0.907859 -0.0544008 0)
(-0.863922 -0.0563179 -3.89977e-20)
(-0.818269 -0.0582219 0)
(-0.770891 -0.0601063 -1.40041e-20)
(-0.721781 -0.06196 0)
(-0.670943 -0.0637708 0)
(-0.618384 -0.0655336 0)
(-0.564117 -0.0672493 0)
(-0.508154 -0.0689178 0)
(-0.450514 -0.07054 0)
(-0.391224 -0.0721256 -3.44578e-20)
(-0.330343 -0.0736736 0)
(-0.267976 -0.0751236 -1.81104e-20)
(-0.204448 -0.0762074 5.56e-20)
(-0.139904 -0.0761397 0)
(-0.0744424 -0.0745296 0)
(-0.00642048 -0.0736224 -3.96935e-20)
(0.0606618 -0.073679 -4.04736e-20)
(0.132808 -0.0731693 4.12578e-20)
(0.193897 -0.067579 4.17697e-20)
(-0.00475427 0.0405281 -1.38336e-20)
(-0.00923572 0.0468495 -1.34779e-20)
(-0.0175951 0.0515725 -8.87495e-21)
(-0.0257439 0.0555689 -4.39378e-21)
(-0.0344899 0.0589289 0)
(-0.0437683 0.0616954 8.56877e-21)
(-0.0535014 0.0639358 -4.22136e-21)
(-0.0636161 0.065741 0)
(-0.0740511 0.0672123 -4.08027e-21)
(-0.0847602 0.0684419 0)
(-0.0957091 0.0695042 7.89617e-21)
(-0.106873 0.0704557 0)
(-0.118234 0.0713382 3.83032e-21)
(-0.12978 0.0721812 7.55793e-21)
(-0.141503 0.0730035 -7.46375e-21)
(-0.153403 0.0738152 0)
(-0.165486 0.0746215 -7.29802e-21)
(-0.177763 0.0754271 0)
(-0.190247 0.0762367 0)
(-0.202951 0.0770552 -7.09369e-21)
(-0.215892 0.0778875 0)
(-0.229085 0.0787391 -2.25477e-24)
(-0.242543 0.0796151 0)
(-0.256282 0.0805208 0)
(-0.270315 0.0814604 2.36272e-24)
(-0.284653 0.0824374 -6.77346e-21)
(-0.299308 0.0834538 -6.72839e-21)
(-0.314289 0.0845104 -6.67933e-21)
(-0.329604 0.0856063 0)
(-0.345261 0.0867389 -1.318e-20)
(-0.361267 0.0879047 0)
(-0.377627 0.0890986 -6.50376e-21)
(-0.394345 0.0903149 0)
(-0.411425 0.0915469 0)
(-0.428868 0.0927874 6.37717e-21)
(-0.446677 0.0940289 0)
(-0.46485 0.0952636 -6.29576e-21)
(-0.483387 0.0964834 3.63615e-24)
(-0.502284 0.0976804 1.24294e-20)
(-0.521537 0.0988463 -1.23557e-20)
(-0.54114 0.0999729 0)
(-0.561084 0.101052 0)
(-0.581361 0.102076 -6.06883e-21)