/*--------------------------------*- C++ -*----------------------------------*\
| =========                 |                                                 |
| \\      /  F ield         | OpenFOAM: The Open Source CFD Toolbox           |
|  \\    /   O peration     | Version:  2112                                  |
|   \\  /    A nd           | Website:  www.openfoam.com                      |
|    \\/     M anipulation  |                                                 |
\*---------------------------------------------------------------------------*/
FoamFile
{
    version     2.0;
    format      ascii;
    arch        "LSB;label=32;scalar=64";
    class       volScalarField;
    location    "0.41";
    object      nut;
}
// * * * * * * * * * * * * * * * * * * * * * * * * * * * * * * * * * * * * * //

dimensions      [0 2 -1 0 0 0 0];

internalField   nonuniform List<scalar> 
12225
(
1.24181e-06
1.855e-06
2.26677e-06
2.58573e-06
2.81507e-06
2.99343e-06
3.16138e-06
3.323e-06
3.47918e-06
3.62943e-06
3.77291e-06
3.9092e-06
4.03915e-06
4.16588e-06
4.29647e-06
4.44388e-06
4.64132e-06
5.00287e-06
1.18313e-05
5.86498e-06
4.25157e-06
3.57587e-06
3.24629e-06
3.08115e-06
3.01132e-06
3.00554e-06
3.04734e-06
3.12584e-06
3.23537e-06
3.3728e-06
3.53557e-06
3.72179e-06
3.93002e-06
4.15945e-06
4.40927e-06
4.69061e-06
7.65977e-05
2.91037e-05
2.11795e-05
1.89292e-05
1.36843e-05
1.02589e-05
8.06217e-06
6.58769e-06
5.56903e-06
4.85596e-06
4.35882e-06
4.02066e-06
3.80304e-06
3.67859e-06
3.62714e-06
3.63384e-06
3.68763e-06
3.78386e-06
9.39169e-05
9.05028e-05
8.32939e-05
7.23499e-05
5.65912e-05
4.13856e-05
3.25645e-05
2.70758e-05
2.33503e-05
1.87363e-05
1.52325e-05
1.25649e-05
1.05263e-05
8.96614e-06
7.77267e-06
6.86154e-06
6.16548e-06
5.63926e-06
9.44501e-05
9.41341e-05
9.35334e-05
9.23283e-05
9.01003e-05
8.64733e-05
8.12458e-05
7.44992e-05
6.66323e-05
5.8259e-05
5.00269e-05
4.24479e-05
3.58176e-05
3.02312e-05
2.56399e-05
2.19224e-05
1.89191e-05
1.64949e-05
9.44569e-05
9.42533e-05
9.40438e-05
9.38045e-05
9.34896e-05
9.30246e-05
9.23025e-05
9.1182e-05
8.94957e-05
8.70725e-05
8.3779e-05
7.95703e-05
7.45317e-05
6.88825e-05
6.29277e-05
5.69851e-05
5.13054e-05
4.6054e-05
9.44538e-05
9.42512e-05
9.40564e-05
9.38682e-05
9.36838e-05
9.34967e-05
9.3295e-05
9.30598e-05
9.27623e-05
9.23613e-05
9.1802e-05
9.10185e-05
8.99405e-05
8.85046e-05
8.66679e-05
8.44191e-05
8.17822e-05
7.88156e-05
9.44515e-05
9.42476e-05
9.40527e-05
9.38663e-05
9.36884e-05
9.35182e-05
9.33545e-05
9.31956e-05
9.30384e-05
9.28785e-05
9.27084e-05
9.25176e-05
9.22922e-05
9.20154e-05
9.16691e-05
9.1236e-05
9.07028e-05
9.0064e-05
9.44499e-05
9.42449e-05
9.40494e-05
9.38627e-05
9.36849e-05
9.35155e-05
9.33542e-05
9.32006e-05
9.30545e-05
9.29154e-05
9.27828e-05
9.26555e-05
9.25319e-05
9.24096e-05
9.22862e-05
9.2159e-05
9.20266e-05
9.18892e-05
9.44484e-05
9.42422e-05
9.40459e-05
9.38588e-05
9.36806e-05
9.35111e-05
9.33498e-05
9.31965e-05
9.3051e-05
9.29132e-05
9.2783e-05
9.26602e-05
9.25446e-05
9.24361e-05
9.23345e-05
9.22402e-05
9.21541e-05
9.20779e-05
9.44445e-05
9.42347e-05
9.40354e-05
9.38456e-05
9.36651e-05
9.34935e-05
9.33304e-05
9.31755e-05
9.30285e-05
9.28892e-05
9.27575e-05
9.26331e-05
9.2516e-05
9.2406e-05
9.23031e-05
9.22078e-05
9.2121e-05
9.2044e-05
9.44362e-05
9.42187e-05
9.40121e-05
9.38159e-05
9.36294e-05
9.34524e-05
9.32843e-05
9.31248e-05
9.29736e-05
9.28303e-05
9.26947e-05
9.25665e-05
9.24454e-05
9.23312e-05
9.22238e-05
9.21234e-05
9.20305e-05
9.1946e-05
9.44258e-05
9.41983e-05
9.39825e-05
9.37775e-05
9.35828e-05
9.33981e-05
9.32227e-05
9.30564e-05
9.28986e-05
9.2749e-05
9.26072e-05
9.24728e-05
9.23455e-05
9.22249e-05
9.21108e-05
9.20032e-05
9.19023e-05
9.18087e-05
9.44155e-05
9.4178e-05
9.39527e-05
9.37388e-05
9.35357e-05
9.33429e-05
9.31598e-05
9.29861e-05
9.28212e-05
9.26646e-05
9.25159e-05
9.23746e-05
9.22402e-05
9.21123e-05
9.19907e-05
9.18749e-05
9.17653e-05
9.16618e-05
9.44074e-05
9.41621e-05
9.39292e-05
9.37081e-05
9.34982e-05
9.32988e-05
9.31095e-05
9.29296e-05
9.27588e-05
9.25963e-05
9.24417e-05
9.22944e-05
9.21539e-05
9.20198e-05
9.18915e-05
9.17689e-05
9.16518e-05
9.15402e-05
9.44018e-05
9.41511e-05
9.3913e-05
9.36868e-05
9.34721e-05
9.32681e-05
9.30743e-05
9.28902e-05
9.27151e-05
9.25485e-05
9.23898e-05
9.22384e-05
9.20938e-05
9.19554e-05
9.18229e-05
9.1696e-05
9.15744e-05
9.14584e-05
9.43984e-05
9.41442e-05
9.39026e-05
9.36731e-05
9.34552e-05
9.32481e-05
9.30515e-05
9.28646e-05
9.26868e-05
9.25177e-05
9.23566e-05
9.22029e-05
9.20563e-05
9.19161e-05
9.1782e-05
9.16538e-05
9.15314e-05
9.1415e-05
9.43963e-05
9.41401e-05
9.38963e-05
9.36647e-05
9.34447e-05
9.32357e-05
9.30373e-05
9.28488e-05
9.26697e-05
9.24994e-05
9.23375e-05
9.21834e-05
9.20367e-05
9.1897e-05
9.17641e-05
9.16378e-05
9.15181e-05
9.1405e-05
9.43968e-05
9.41409e-05
9.38973e-05
9.36658e-05
9.3446e-05
9.32372e-05
9.30391e-05
9.28511e-05
9.26728e-05
9.25036e-05
9.23432e-05
9.21911e-05
9.2047e-05
9.19106e-05
9.17817e-05
9.16602e-05
9.1546e-05
9.14394e-05
9.44001e-05
9.41472e-05
9.39065e-05
9.36778e-05
9.34606e-05
9.32545e-05
9.30592e-05
9.28741e-05
9.26988e-05
9.25329e-05
9.23761e-05
9.2228e-05
9.20883e-05
9.19569e-05
9.18335e-05
9.17179e-05
9.16102e-05
9.15103e-05
9.44065e-05
9.41598e-05
9.39251e-05
9.37021e-05
9.34905e-05
9.32899e-05
9.31e-05
9.29203e-05
9.27505e-05
9.259e-05
9.24386e-05
9.22959e-05
9.21618e-05
9.20359e-05
9.19183e-05
9.18087e-05
9.1707e-05
9.16132e-05
9.44193e-05
9.41849e-05
9.3962e-05
9.37504e-05
9.35498e-05
9.33598e-05
9.31803e-05
9.30107e-05
9.28507e-05
9.27e-05
9.25581e-05
9.24249e-05
9.23e-05
9.21832e-05
9.20741e-05
9.19727e-05
9.18788e-05
9.17926e-05
9.44376e-05
9.42207e-05
9.40145e-05
9.38188e-05
9.36333e-05
9.34578e-05
9.3292e-05
9.31356e-05
9.29881e-05
9.28494e-05
9.27192e-05
9.25972e-05
9.24831e-05
9.23767e-05
9.22778e-05
9.2186e-05
9.21012e-05
9.20231e-05
9.44464e-05
9.42378e-05
9.40396e-05
9.38515e-05
9.36736e-05
9.35056e-05
9.33473e-05
9.31982e-05
9.3058e-05
9.29264e-05
9.2803e-05
9.26876e-05
9.258e-05
9.24799e-05
9.23872e-05
9.23016e-05
9.2223e-05
9.21512e-05
9.4448e-05
9.42407e-05
9.40434e-05
9.38553e-05
9.36763e-05
9.35058e-05
9.33431e-05
9.31873e-05
9.30378e-05
9.28942e-05
9.27566e-05
9.2625e-05
9.25001e-05
9.23824e-05
9.22728e-05
9.21721e-05
9.20807e-05
9.19993e-05
9.44496e-05
9.4242e-05
9.40365e-05
9.3821e-05
9.35802e-05
9.32987e-05
9.29643e-05
9.25695e-05
9.21129e-05
9.16e-05
9.10417e-05
9.04537e-05
8.98538e-05
8.92609e-05
8.86924e-05
8.81637e-05
8.7687e-05
8.72723e-05
9.44185e-05
9.39516e-05
9.30514e-05
9.14845e-05
8.9089e-05
8.58841e-05
8.20375e-05
7.77938e-05
7.34154e-05
6.60424e-05
5.90746e-05
5.39355e-05
5.00951e-05
4.72028e-05
4.50203e-05
4.3377e-05
4.21187e-05
4.11732e-05
9.10939e-05
6.65639e-05
4.38085e-05
3.48362e-05
3.039e-05
2.83427e-05
2.60106e-05
2.1863e-05
1.87894e-05
1.64692e-05
1.46867e-05
1.32959e-05
1.21958e-05
1.13156e-05
1.06043e-05
1.0024e-05
9.54709e-06
9.15023e-06
2.60589e-05
1.21217e-05
8.0152e-06
6.22943e-06
5.29948e-06
4.75642e-06
4.41681e-06
4.19743e-06
4.05578e-06
3.96785e-06
3.91886e-06
3.89905e-06
3.90163e-06
3.92161e-06
3.95521e-06
3.99948e-06
4.05219e-06
4.11141e-06
1.29303e-06
1.92318e-06
2.39177e-06
2.76616e-06
3.05628e-06
3.22847e-06
3.3837e-06
3.53163e-06
3.67713e-06
3.82279e-06
3.97011e-06
4.12e-06
4.27306e-06
4.42969e-06
4.59015e-06
4.75457e-06
4.92282e-06
5.09511e-06
3.38366e-05
3.31592e-05
3.35943e-05
3.39111e-05
3.43798e-05
3.51855e-05
3.64484e-05
3.78176e-05
3.69449e-05
3.24355e-05
2.92275e-05
2.69527e-05
2.53192e-05
2.416e-05
2.33858e-05
2.29706e-05
2.29166e-05
2.32449e-05
2.39712e-05
2.51528e-05
2.65254e-05
2.81292e-05
3.00406e-05
3.23399e-05
3.51374e-05
3.67428e-05
3.60926e-05
3.44453e-05
3.36782e-05
3.25921e-05
2.75457e-05
3.43018e-05
3.50363e-05
3.64665e-05
3.82621e-05
4.0506e-05
4.36351e-05
4.0988e-05
3.65763e-05
3.60709e-05
3.84004e-05
4.17192e-05
4.46371e-05
4.36798e-05
4.01185e-05
3.63355e-05
3.1725e-05
2.88733e-05
2.9561e-05
3.33906e-05
3.91135e-05
4.3936e-05
4.7493e-05
5.01845e-05
5.21356e-05
5.34467e-05
5.42025e-05
5.44753e-05
5.43315e-05
5.38313e-05
5.15924e-05
4.95416e-05
4.76335e-05
4.58292e-05
4.41029e-05
4.24344e-05
4.07917e-05
3.92594e-05
3.78667e-05
3.66008e-05
3.54519e-05
3.44156e-05
3.34912e-05
3.26824e-05
3.1997e-05
3.14489e-05
3.10599e-05
3.08618e-05
3.08989e-05
3.12312e-05
3.19411e-05
3.31466e-05
3.5027e-05
3.78735e-05
4.21868e-05
4.88707e-05
5.95794e-05
7.69462e-05
0.000101991
0.000121437
0.000118921
0.000109513
0.000103397
0.000101287
0.000102213
0.000105336
0.000110081
0.000116061
0.000123014
0.000130757
0.00013915
0.000148065
0.000157354
0.00016678
0.000175683
0.000182915
0.000188012
0.000190228
0.000188676
0.000182521
0.000171334
0.000155531
0.000136603
0.00011692
9.9038e-05
8.48429e-05
7.50012e-05
6.90337e-05
6.5866e-05
6.441e-05
6.3853e-05
6.36978e-05
6.37039e-05
6.37626e-05
6.38354e-05
6.39183e-05
6.40241e-05
6.41749e-05
6.44009e-05
6.47426e-05
6.52484e-05
6.59743e-05
6.69809e-05
6.83258e-05
7.00479e-05
7.21386e-05
7.44859e-05
7.67867e-05
7.85164e-05
7.91746e-05
7.84635e-05
7.63986e-05
7.33887e-05
6.99482e-05
6.6538e-05
6.35194e-05
6.11182e-05
5.94036e-05
5.80245e-05
5.61098e-05
5.38106e-05
5.12961e-05
4.95173e-05
5.16083e-05
5.91577e-05
6.60968e-05
7.82536e-05
8.87564e-05
9.56034e-05
9.88897e-05
9.10079e-05
8.19646e-05
7.48637e-05
6.89596e-05
6.52199e-05
6.40969e-05
6.63676e-05
7.42643e-05
9.41882e-05
0.000146932
0.000184993
0.00020794
0.00022755
0.000221817
0.000214049
0.000208056
0.000195126
0.000175086
0.000151463
0.000131126
2.6653e-05
2.86832e-05
2.73831e-05
2.66428e-05
2.71164e-05
3.13418e-05
3.56149e-05
3.74886e-05
3.8467e-05
3.9061e-05
3.93263e-05
3.92717e-05
3.89317e-05
3.83713e-05
3.76655e-05
3.68819e-05
3.60762e-05
3.52931e-05
3.45679e-05
3.39338e-05
3.33651e-05
3.29383e-05
3.27501e-05
3.28426e-05
3.32124e-05
3.37078e-05
3.40948e-05
3.43746e-05
3.51444e-05
3.65102e-05
3.76104e-05
3.79142e-05
3.66033e-05
3.21977e-05
2.89594e-05
3.16945e-05
3.73569e-05
4.31557e-05
4.5778e-05
4.45029e-05
4.12092e-05
3.87486e-05
3.82792e-05
3.9978e-05
4.42102e-05
4.85289e-05
5.13946e-05
5.19044e-05
5.1393e-05
5.12755e-05
5.18491e-05
5.27285e-05
5.35794e-05
5.43785e-05
5.51431e-05
5.59156e-05
5.67568e-05
5.77453e-05
5.89816e-05
6.05812e-05
6.26543e-05
6.52569e-05
6.83016e-05
7.15393e-05
7.45338e-05
7.67373e-05
7.77979e-05
7.85943e-05
7.94809e-05
8.04332e-05
8.14291e-05
8.24468e-05
8.34625e-05
8.44477e-05
8.53669e-05
8.45383e-05
7.97432e-05
7.56409e-05
7.22445e-05
6.95486e-05
6.75502e-05
6.62366e-05
6.55853e-05
6.55638e-05
6.61182e-05
6.71803e-05
6.86668e-05
7.05186e-05
7.27907e-05
7.61967e-05
8.07277e-05
8.58264e-05
9.12989e-05
9.69448e-05
0.000102287
0.000102216
0.000101995
0.000101981
0.000102339
0.0001032
0.000104681
0.000106881
0.000109816
0.000109143
0.000110577
0.000117815
0.00012937
0.000141948
0.000150798
0.000153446
0.000152596
0.000148518
0.00014186
0.000133607
0.000124918
0.000116859
0.000110064
0.000104647
0.00010036
9.68319e-05
9.37457e-05
9.09858e-05
8.86417e-05
8.67672e-05
8.53014e-05
8.41352e-05
8.31756e-05
8.23662e-05
8.1684e-05
8.06469e-05
7.92874e-05
7.786e-05
7.63481e-05
7.4759e-05
7.3129e-05
7.15065e-05
6.9928e-05
6.84271e-05
6.7018e-05
6.54937e-05
6.36811e-05
6.18022e-05
5.99718e-05
5.81744e-05
5.6293e-05
5.43054e-05
5.23919e-05
4.95139e-05
4.60939e-05
4.4309e-05
4.39843e-05
4.62805e-05
5.32162e-05
6.48638e-05
7.83576e-05
8.93384e-05
9.54492e-05
9.97795e-05
0.000103323
0.000106612
0.000110474
0.000115541
0.000120375
0.000122607
0.000124109
0.000125128
0.000122897
0.000111965
0.000104437
9.92161e-05
9.57285e-05
9.57261e-05
0.000100226
0.000110826
0.000127831
0.000137499
0.000150614
0.000156988
0.000154148
0.000146402
3.02296e-05
2.81542e-05
2.54535e-05
2.58865e-05
3.34554e-05
3.73173e-05
3.79401e-05
3.72969e-05
3.633e-05
3.54141e-05
3.46229e-05
3.39241e-05
3.32755e-05
3.26532e-05
3.20496e-05
3.14642e-05
3.08982e-05
3.03515e-05
2.98218e-05
2.93073e-05
2.89011e-05
2.87003e-05
2.87233e-05
2.89816e-05
2.94599e-05
3.00808e-05
3.07157e-05
3.13309e-05
3.21778e-05
3.34781e-05
3.5008e-05
3.61764e-05
3.60545e-05
3.4032e-05
3.12891e-05
3.07966e-05
3.55774e-05
4.31867e-05
4.82753e-05
4.80591e-05
4.42437e-05
4.34891e-05
4.91302e-05
5.65087e-05
5.9211e-05
5.7875e-05
5.59426e-05
5.44434e-05
5.34494e-05
5.30978e-05
5.32908e-05
5.38054e-05
5.4502e-05
5.53428e-05
5.63073e-05
5.73734e-05
5.85001e-05
5.96199e-05
6.06481e-05
6.15115e-05
6.21817e-05
6.26842e-05
6.30838e-05
6.34572e-05
6.3867e-05
6.43629e-05
6.50231e-05
6.58071e-05
6.67086e-05
6.7725e-05
6.88561e-05
7.0103e-05
7.14664e-05
7.29441e-05
7.45275e-05
7.61961e-05
7.79085e-05
7.53035e-05
7.19273e-05
6.93279e-05
6.74889e-05
6.6377e-05
6.59435e-05
6.61483e-05
6.69294e-05
6.81781e-05
6.97731e-05
7.16257e-05
7.37306e-05
7.707e-05
8.15129e-05
8.66152e-05
9.21138e-05
9.78155e-05
9.93019e-05
9.84166e-05
9.73989e-05
9.63052e-05
9.51684e-05
9.40189e-05
9.2895e-05
9.18485e-05
9.09455e-05
9.02694e-05
8.99249e-05
9.00327e-05
9.07363e-05
9.26543e-05
9.61145e-05
0.000100676
0.000105516
0.00010974
0.000112623
0.000113824
0.000113447
0.000111932
0.000109823
0.000107572
0.000105466
0.000103646
0.000102163
0.000101012
0.00010012
9.93336e-05
9.85987e-05
9.79013e-05
9.72165e-05
9.65175e-05
9.578e-05
9.49823e-05
9.41025e-05
9.31111e-05
9.19646e-05
9.06024e-05
8.89495e-05
8.69209e-05
8.44325e-05
8.14198e-05
7.78842e-05
7.39369e-05
6.97487e-05
6.54657e-05
6.11699e-05
5.6902e-05
5.27298e-05
4.88013e-05
4.53707e-05
4.28482e-05
4.18189e-05
4.32328e-05
4.81516e-05
5.75371e-05
7.04629e-05
8.39087e-05
9.46403e-05
0.000100113
0.000103853
0.000107501
0.000111188
0.000114624
0.000117456
0.000119539
0.00012129
0.000123176
0.000125443
0.000127504
0.000128829
0.000117459
0.000109491
0.000103806
9.86448e-05
9.34133e-05
8.93955e-05
8.70593e-05
8.76779e-05
9.33408e-05
0.000102746
0.000107503
0.000116783
0.000123972
3.42154e-05
2.81023e-05
2.94139e-05
3.71744e-05
3.98924e-05
3.95071e-05
3.78853e-05
3.60741e-05
3.45505e-05
3.34108e-05
3.258e-05
3.19518e-05
3.14435e-05
3.10029e-05
3.05998e-05
3.02175e-05
2.98461e-05
2.94795e-05
2.91122e-05
2.8738e-05
2.83589e-05
2.8006e-05
2.77135e-05
2.75438e-05
2.7572e-05
2.78347e-05
2.82768e-05
2.88096e-05
2.94834e-05
3.04574e-05
3.17623e-05
3.31381e-05
3.39846e-05
3.38471e-05
3.32767e-05
3.39313e-05
3.95279e-05
4.93736e-05
5.67875e-05
5.69191e-05
5.59651e-05
5.77922e-05
6.04862e-05
6.0949e-05
5.90994e-05
5.65033e-05
5.43894e-05
5.30235e-05
5.23338e-05
5.22043e-05
5.24268e-05
5.27745e-05
5.30714e-05
5.31868e-05
5.30335e-05
5.25957e-05
5.19391e-05
5.11834e-05
5.04508e-05
4.98302e-05
4.93679e-05
4.90768e-05
4.89499e-05
4.89719e-05
4.91288e-05
4.9488e-05
4.99465e-05
5.05057e-05
5.11744e-05
5.19667e-05
5.29022e-05
5.40054e-05
5.53045e-05
5.68298e-05
5.86104e-05
6.06715e-05
6.30294e-05
6.56865e-05
6.86251e-05
7.18012e-05
7.51372e-05
7.85148e-05
8.14513e-05
8.09402e-05
8.10245e-05
8.15214e-05
8.22655e-05
8.31611e-05
8.41639e-05
8.6713e-05
9.03425e-05
9.47475e-05
9.81968e-05
9.81506e-05
9.79734e-05
9.77161e-05
9.73919e-05
9.6995e-05
9.65081e-05
9.59095e-05
9.51787e-05
9.43028e-05
9.32829e-05
9.21391e-05
9.0914e-05
8.96725e-05
8.85e-05
8.74969e-05
8.6776e-05
8.65246e-05
8.69397e-05
8.80722e-05
8.98104e-05
9.19039e-05
9.40201e-05
9.58375e-05
9.72279e-05
9.81877e-05
9.87922e-05
9.91561e-05
9.94041e-05
9.96523e-05
9.99908e-05
0.000100468
0.000101078
0.000101797
0.000102582
0.000103368
0.00010408
0.000104631
0.000104919
0.000104826
0.000104236
0.000103032
0.000101097
9.83371e-05
9.47258e-05
9.03379e-05
8.53604e-05
8.00532e-05
7.46688e-05
6.93773e-05
6.4245e-05
5.92925e-05
5.46324e-05
5.06121e-05
4.78075e-05
4.68241e-05
4.8089e-05
5.21155e-05
6.00047e-05
7.17387e-05
8.45639e-05
9.55219e-05
0.000102052
0.00010581
0.000109164
0.000111706
0.000112783
0.000112626
0.000112382
0.000113065
0.000114926
0.000117743
0.000120988
0.000124137
0.000124793
0.000116065
0.000112214
0.000111223
0.000111009
0.000109433
0.000105966
0.000101074
9.67523e-05
9.50753e-05
9.82462e-05
9.53214e-05
9.20742e-05
9.50066e-05
3.16965e-05
2.7703e-05
3.5396e-05
3.80843e-05
3.77027e-05
3.62483e-05
3.47579e-05
3.36319e-05
3.28847e-05
3.23859e-05
3.20078e-05
3.16708e-05
3.13367e-05
3.09935e-05
3.06424e-05
3.02897e-05
2.99422e-05
2.96051e-05
2.92815e-05
2.8972e-05
2.8663e-05
2.83143e-05
2.79305e-05
2.75414e-05
2.72101e-05
2.70255e-05
2.70521e-05
2.72831e-05
2.7699e-05
2.83531e-05
2.93347e-05
3.0636e-05
3.20219e-05
3.32644e-05
3.48801e-05
3.86009e-05
4.72109e-05
6.0693e-05
7.01162e-05
6.74002e-05
6.31151e-05
6.18174e-05
6.04431e-05
5.82026e-05
5.55393e-05
5.32333e-05
5.165e-05
5.07228e-05
5.02412e-05
4.99494e-05
4.95761e-05
4.8912e-05
4.78738e-05
4.65187e-05
4.50071e-05
4.35222e-05
4.21986e-05
4.10997e-05
4.02349e-05
3.95857e-05
3.91247e-05
3.88264e-05
3.86715e-05
3.86464e-05
3.87366e-05
3.89183e-05
3.91291e-05
3.93736e-05
3.96642e-05
4.00215e-05
4.04748e-05
4.10616e-05
4.18271e-05
4.28228e-05
4.41045e-05
4.57284e-05
4.77463e-05
5.01995e-05
5.31112e-05
5.6479e-05
6.02673e-05
6.44018e-05
6.87661e-05
7.31984e-05
7.74961e-05
8.14649e-05
8.49247e-05
8.77624e-05
8.98586e-05
9.12418e-05
9.23505e-05
9.32811e-05
9.40767e-05
9.47646e-05
9.53647e-05
9.58932e-05
9.63587e-05
9.67608e-05
9.70893e-05
9.73245e-05
9.74382e-05
9.73961e-05
9.71617e-05
9.67033e-05
9.60015e-05
9.50576e-05
9.38992e-05
9.25823e-05
9.1191e-05
8.98303e-05
8.86162e-05
8.76714e-05
8.71219e-05
8.70642e-05
8.75027e-05
8.83783e-05
8.95972e-05
9.1056e-05
9.26628e-05
9.43525e-05
9.60938e-05
9.78893e-05
9.97627e-05
0.000101736
0.000103798
0.000105894
0.00010796
0.000109916
0.000111657
0.000113056
0.000113961
0.000114205
0.000113612
0.000112019
0.000109297
0.000105405
0.00010042
9.45648e-05
8.81893e-05
8.17e-05
7.5456e-05
6.96805e-05
6.44431e-05
5.97436e-05
5.56786e-05
5.26215e-05
5.12161e-05
5.19726e-05
5.51615e-05
6.12428e-05
7.07075e-05
8.23151e-05
9.32091e-05
0.000101402
0.000105741
0.000108892
0.000110536
0.000109779
0.000107309
0.000105
0.000104223
0.000105189
0.000107439
0.000110637
0.000114252
0.000117893
0.000121201
0.000123147
0.000119567
0.000119484
0.000122114
0.000126439
0.000126146
0.000124461
0.0001213
0.00011588
0.000107899
9.83278e-05
8.89918e-05
8.29369e-05
2.58644e-05
2.97098e-05
3.4346e-05
3.46579e-05
3.40046e-05
3.34932e-05
3.33264e-05
3.3319e-05
3.32515e-05
3.3022e-05
3.2638e-05
3.21533e-05
3.16222e-05
3.10844e-05
3.05649e-05
3.00773e-05
2.96289e-05
2.92249e-05
2.88699e-05
2.85673e-05
2.83086e-05
2.80437e-05
2.7754e-05
2.74261e-05
2.70685e-05
2.67283e-05
2.64863e-05
2.64188e-05
2.65687e-05
2.69731e-05
2.77195e-05
2.89462e-05
3.07421e-05
3.3249e-05
3.76565e-05
4.69647e-05
6.29352e-05
8.05822e-05
7.76727e-05
6.82011e-05
6.31435e-05
5.97625e-05
5.68022e-05
5.40439e-05
5.1698e-05
4.99626e-05
4.87762e-05
4.78936e-05
4.70335e-05
4.59559e-05
4.45358e-05
4.28143e-05
4.09652e-05
3.91916e-05
3.76383e-05
3.63654e-05
3.53718e-05
3.46276e-05
3.40966e-05
3.37454e-05
3.3545e-05
3.34698e-05
3.3495e-05
3.35965e-05
3.37522e-05
3.38526e-05
3.38972e-05
3.38947e-05
3.38623e-05
3.3825e-05
3.38167e-05
3.38796e-05
3.40649e-05
3.44332e-05
3.50536e-05
3.6002e-05
3.73577e-05
3.91975e-05
4.15885e-05
4.45777e-05
4.81792e-05
5.23604e-05
5.70269e-05
6.20041e-05
6.70175e-05
7.18074e-05
7.60716e-05
7.96623e-05
8.23979e-05
8.44948e-05
8.6362e-05
8.80765e-05
8.9674e-05
9.11678e-05
9.2562e-05
9.38577e-05
9.50556e-05
9.61567e-05
9.7162e-05
9.80702e-05
9.88746e-05
9.95595e-05
0.000100098
0.000100454
0.000100583
0.000100441
9.99967e-05
9.92379e-05
9.81846e-05
9.68915e-05
9.5445e-05
9.39554e-05
9.25433e-05
9.13152e-05
9.04034e-05
8.991e-05
8.98704e-05
9.02853e-05
9.11283e-05
9.23556e-05
9.39158e-05
9.57572e-05
9.78315e-05
0.000100091
0.000102484
0.000104942
0.000107374
0.000109668
0.000111693
0.000113294
0.000114294
0.000114501
0.000113723
0.000111789
0.000108593
0.000104136
9.85664e-05
9.21904e-05
8.5435e-05
7.8761e-05
7.25464e-05
6.7003e-05
6.2201e-05
5.81914e-05
5.51506e-05
5.35092e-05
5.38689e-05
5.65494e-05
6.15953e-05
6.91345e-05
7.88724e-05
8.90688e-05
9.80917e-05
0.000104052
0.000107502
0.000109042
0.000107549
0.000103612
9.95241e-05
9.70819e-05
9.66409e-05
9.78026e-05
0.000100091
0.000103339
0.000107041
0.000110798
0.000114256
0.000117175
0.000119439
0.000120976
0.000121656
0.000121622
0.000121135
0.000120169
0.000118343
0.000114797
0.000108754
0.000100379
9.08363e-05
8.18035e-05
2.02562e-05
3.093e-05
3.23339e-05
3.26587e-05
3.33643e-05
3.43582e-05
3.50617e-05
3.51325e-05
3.46394e-05
3.38378e-05
3.29422e-05
3.20683e-05
3.1262e-05
3.05326e-05
2.98731e-05
2.92735e-05
2.87306e-05
2.82506e-05
2.78447e-05
2.75224e-05
2.72806e-05
2.70985e-05
2.69513e-05
2.68005e-05
2.66084e-05
2.63622e-05
2.60931e-05
2.5877e-05
2.58157e-05
2.6015e-05
2.66105e-05
2.78556e-05
3.01364e-05
3.42437e-05
4.25152e-05
5.78929e-05
7.96165e-05
8.53052e-05
7.40791e-05
6.53131e-05
5.97372e-05
5.57301e-05
5.26229e-05
5.01771e-05
4.82998e-05
4.68596e-05
4.56214e-05
4.43331e-05
4.28287e-05
4.10866e-05
3.92326e-05
3.74638e-05
3.59448e-05
3.47537e-05
3.38923e-05
3.33219e-05
3.29918e-05
3.28535e-05
3.28643e-05
3.29861e-05
3.31836e-05
3.34226e-05
3.36705e-05
3.39012e-05
3.39788e-05
3.39041e-05
3.36852e-05
3.33396e-05
3.28942e-05
3.23843e-05
3.18527e-05
3.13493e-05
3.09303e-05
3.06595e-05
3.06075e-05
3.0852e-05
3.14775e-05
3.25731e-05
3.42303e-05
3.65404e-05
3.95812e-05
4.33944e-05
4.79552e-05
5.31327e-05
5.85981e-05
6.40344e-05
6.89571e-05
7.31193e-05
7.62535e-05
7.88962e-05
8.12926e-05
8.35584e-05
8.5754e-05
8.78978e-05
8.99816e-05
9.19841e-05
9.3881e-05
9.5652e-05
9.72848e-05
9.8776e-05
0.000100129
0.000101351
0.000102443
0.000103394
0.000104182
0.000104766
0.000105096
0.000105122
0.000104805
0.000104134
0.000103129
0.000101847
0.000100382
9.88483e-05
9.73606e-05
9.60396e-05
9.5029e-05
9.4406e-05
9.42154e-05
9.44716e-05
9.51632e-05
9.62583e-05
9.77095e-05
9.94574e-05
0.000101431
0.000103549
0.00010571
0.000107784
0.000109619
0.000111039
0.000111852
0.000111851
0.000110837
0.000108642
0.000105172
0.000100461
9.46987e-05
8.82402e-05
8.155e-05
7.50949e-05
6.92172e-05
6.40857e-05
5.97945e-05
5.65087e-05
5.4544e-05
5.44034e-05
5.65314e-05
6.09256e-05
6.73282e-05
7.54514e-05
8.44283e-05
9.29756e-05
0.000100554
0.000105109
0.000107316
0.000106186
0.000101722
9.62325e-05
9.20915e-05
9.00566e-05
8.98414e-05
9.10635e-05
9.34619e-05
9.68156e-05
0.000100594
0.000104379
0.000107816
0.0001107
0.000113006
0.000114762
0.000115854
0.000116493
0.000116663
0.000116273
0.000115138
0.000112828
0.000108548
0.000101776
9.30636e-05
8.36748e-05
2.39994e-05
2.97573e-05
3.15624e-05
3.38487e-05
3.64154e-05
3.78369e-05
3.76436e-05
3.6455e-05
3.49918e-05
3.36118e-05
3.24134e-05
3.13982e-05
3.05292e-05
2.97533e-05
2.90268e-05
2.83324e-05
2.76791e-05
2.70937e-05
2.66078e-05
2.62426e-05
2.59996e-05
2.58896e-05
2.58826e-05
2.59237e-05
2.59439e-05
2.58822e-05
2.5714e-05
2.5477e-05
2.52915e-05
2.5345e-05
2.58743e-05
2.72885e-05
3.03743e-05
3.70326e-05
5.00227e-05
7.02745e-05
8.63452e-05
7.99339e-05
6.84868e-05
6.05418e-05
5.52542e-05
5.15611e-05
4.88808e-05
4.68488e-05
4.52068e-05
4.37294e-05
4.2224e-05
4.06005e-05
3.89094e-05
3.73064e-05
3.59639e-05
3.49899e-05
3.44059e-05
3.41715e-05
3.4221e-05
3.44858e-05
3.49042e-05
3.54215e-05
3.5989e-05
3.65623e-05
3.71031e-05
3.75805e-05
3.79672e-05
3.81042e-05
3.80152e-05
3.76981e-05
3.71593e-05
3.64177e-05
3.55048e-05
3.44636e-05
3.33466e-05
3.22135e-05
3.11313e-05
3.01755e-05
2.94283e-05
2.89728e-05
2.8894e-05
2.92731e-05
3.01882e-05
3.17362e-05
3.40348e-05
3.72052e-05
4.13168e-05
4.63522e-05
5.19953e-05
5.78641e-05
6.33096e-05
6.78221e-05
7.14618e-05
7.46027e-05
7.74299e-05
8.00971e-05
8.27056e-05
8.53043e-05
8.78999e-05
9.047e-05
9.29761e-05
9.53741e-05
9.76243e-05
9.96984e-05
0.000101584
0.000103285
0.000104814
0.000106189
0.000107419
0.000108496
0.000109395
0.00011007
0.000110466
0.00011053
0.000110224
0.000109542
0.000108512
0.000107203
0.000105715
0.000104163
0.000102662
0.000101369
0.000100382
9.9773e-05
9.95821e-05
9.98189e-05
0.000100466
0.000101482
0.000102802
0.000104339
0.000105985
0.000107605
0.000109032
0.000110076
0.000110528
0.000110175
0.000108811
0.000106275
0.000102492
9.75225e-05
9.15977e-05
8.51092e-05
7.85372e-05
7.2319e-05
6.673e-05
6.19064e-05
5.80184e-05
5.53866e-05
5.44553e-05
5.57171e-05
5.93391e-05
6.49846e-05
7.21156e-05
8.00527e-05
8.7789e-05
9.51211e-05
0.000101541
0.000104949
0.000105121
0.000101221
9.49895e-05
8.93019e-05
8.56497e-05
8.40099e-05
8.39906e-05
8.53705e-05
8.79652e-05
9.14181e-05
9.52396e-05
9.90019e-05
0.000102333
0.000105024
0.000107118
0.000108699
0.000110033
0.000111226
0.000112169
0.000112672
0.000112418
0.000111022
0.000108004
0.000102735
9.51605e-05
8.61717e-05
2.78425e-05
3.06471e-05
3.41762e-05
3.89636e-05
4.14494e-05
4.07067e-05
3.85279e-05
3.6298e-05
3.4444e-05
3.29646e-05
3.17854e-05
3.0829e-05
2.99941e-05
2.91865e-05
2.83632e-05
2.75293e-05
2.67162e-05
2.59766e-05
2.53732e-05
2.49462e-05
2.47103e-05
2.47007e-05
2.48574e-05
2.5092e-05
2.53037e-05
2.53985e-05
2.53175e-05
2.50844e-05
2.48576e-05
2.49032e-05
2.55511e-05
2.7442e-05
3.2196e-05
4.28673e-05
6.0435e-05
7.98754e-05
8.26208e-05
7.22842e-05
6.21701e-05
5.54125e-05
5.0955e-05
4.79146e-05
4.56985e-05
4.39157e-05
4.23212e-05
4.07755e-05
3.92475e-05
3.78214e-05
3.66455e-05
3.5849e-05
3.54843e-05
3.55257e-05
3.59007e-05
3.65242e-05
3.73176e-05
3.82152e-05
3.91624e-05
4.0113e-05
4.10253e-05
4.18594e-05
4.25734e-05
4.31242e-05
4.34829e-05
4.35394e-05
4.33354e-05
4.28536e-05
4.20885e-05
4.10519e-05
3.97745e-05
3.83044e-05
3.67009e-05
3.50282e-05
3.33538e-05
3.1759e-05
3.03428e-05
2.9205e-05
2.84552e-05
2.81888e-05
2.8457e-05
2.93215e-05
3.08929e-05
3.33456e-05
3.68229e-05
4.14463e-05
4.70376e-05
5.30555e-05
5.8694e-05
6.35541e-05
6.77696e-05
7.1438e-05
7.47198e-05
7.77768e-05
8.07358e-05
8.36767e-05
8.6635e-05
8.96104e-05
9.25753e-05
9.54836e-05
9.82796e-05
0.000100909
0.000103331
0.000105522
0.000107483
0.000109232
0.000110795
0.000112198
0.000113452
0.000114544
0.000115441
0.00011609
0.000116433
0.000116417
0.000116016
0.000115234
0.000114117
0.000112747
0.000111226
0.000109675
0.000108241
0.000107034
0.00010614
0.000105615
0.000105482
0.00010573
0.000106318
0.000107172
0.000108185
0.000109226
0.000110127
0.000110687
0.000110688
0.000109905
0.00010813
0.000105205
0.000101069
9.58099e-05
8.96909e-05
8.31331e-05
7.66169e-05
7.05325e-05
6.50901e-05
6.04316e-05
5.6846e-05
5.48031e-05
5.48142e-05
5.72551e-05
6.19971e-05
6.84285e-05
7.57671e-05
8.30478e-05
8.96005e-05
9.62332e-05
0.000101585
0.00010357
0.000101337
9.53801e-05
8.8567e-05
8.33183e-05
8.02195e-05
7.8925e-05
7.91343e-05
8.06961e-05
8.33966e-05
8.68657e-05
9.06915e-05
9.4443e-05
9.77168e-05
0.00010025
0.000102038
0.000103371
0.000104689
0.000106116
0.000107567
0.000108828
0.000109562
0.000109231
0.000107312
0.000103344
9.703e-05
8.87899e-05
2.94098e-05
3.27157e-05
4.01957e-05
4.53634e-05
4.44982e-05
4.13066e-05
3.82189e-05
3.58099e-05
3.39928e-05
3.25986e-05
3.15192e-05
3.06412e-05
2.98152e-05
2.89344e-05
2.79789e-05
2.69743e-05
2.59592e-05
2.50112e-05
2.42521e-05
2.37622e-05
2.36391e-05
2.38471e-05
2.41811e-05
2.45262e-05
2.47948e-05
2.49073e-05
2.483e-05
2.46458e-05
2.45945e-05
2.50224e-05
2.65229e-05
3.02517e-05
3.83747e-05
5.24193e-05
6.97832e-05
7.96517e-05
7.49585e-05
6.45177e-05
5.62255e-05
5.08445e-05
4.733e-05
4.48831e-05
4.29861e-05
4.13521e-05
3.98631e-05
3.85222e-05
3.74193e-05
3.66757e-05
3.6373e-05
3.65156e-05
3.70411e-05
3.78558e-05
3.88662e-05
3.99948e-05
4.11825e-05
4.23839e-05
4.35628e-05
4.4687e-05
4.57257e-05
4.66479e-05
4.74222e-05
4.80156e-05
4.8314e-05
4.83919e-05
4.82055e-05
4.77114e-05
4.68799e-05
4.57043e-05
4.42086e-05
4.24476e-05
4.04974e-05
3.8438e-05
3.63332e-05
3.42535e-05
3.23055e-05
3.05884e-05
2.92364e-05
2.83998e-05
2.81336e-05
2.84537e-05
2.9427e-05
3.12488e-05
3.4098e-05
3.81793e-05
4.35894e-05
4.92995e-05
5.49715e-05
6.02393e-05
6.49555e-05
6.91475e-05
7.29308e-05
7.64416e-05
7.97986e-05
8.30879e-05
8.63627e-05
8.96473e-05
9.29404e-05
9.62171e-05
9.94313e-05
0.000102523
0.000105431
0.000108102
0.000110508
0.000112643
0.000114528
0.000116199
0.00011769
0.000119028
0.000120214
0.000121227
0.00012202
0.000122533
0.00012271
0.000122509
0.000121919
0.000120965
0.000119713
0.000118244
0.000116695
0.000115188
0.000113838
0.000112736
0.000111943
0.000111485
0.000111354
0.000111499
0.000111833
0.000112228
0.000112531
0.000112541
0.000112035
0.000110781
0.000108565
0.00010523
0.000100723
9.51481e-05
8.87979e-05
8.21147e-05
7.55696e-05
6.95004e-05
6.4071e-05
5.94706e-05
5.61263e-05
5.46181e-05
5.5442e-05
5.87738e-05
6.42514e-05
7.10776e-05
7.827e-05
8.47507e-05
9.04907e-05
9.66807e-05
0.000100935
0.0001011
9.66774e-05
8.95905e-05
8.29285e-05
7.82905e-05
7.5666e-05
7.46523e-05
7.50409e-05
7.66709e-05
7.93306e-05
8.27223e-05
8.6519e-05
9.03e-05
9.36161e-05
9.61131e-05
9.77167e-05
9.89463e-05
0.000100161
0.000101608
0.000103288
0.000104998
0.000106445
0.000107128
0.000106346
0.000103572
9.85164e-05
9.12775e-05
2.85269e-05
3.68425e-05
4.79975e-05
4.90138e-05
4.53561e-05
4.13419e-05
3.81293e-05
3.57534e-05
3.39898e-05
3.26633e-05
3.16613e-05
3.08297e-05
2.99847e-05
2.90229e-05
2.79444e-05
2.67854e-05
2.5593e-05
2.44741e-05
2.36365e-05
2.32889e-05
2.33887e-05
2.36251e-05
2.39031e-05
2.41671e-05
2.43705e-05
2.44958e-05
2.46101e-05
2.49092e-05
2.56657e-05
2.72476e-05
3.04659e-05
3.6702e-05
4.70901e-05
6.08356e-05
7.26943e-05
7.42827e-05
6.67087e-05
5.76977e-05
5.12695e-05
4.71597e-05
4.44121e-05
4.2381e-05
4.07209e-05
3.93052e-05
3.81441e-05
3.73178e-05
3.69138e-05
3.69702e-05
3.74524e-05
3.82708e-05
3.93179e-05
4.04978e-05
4.17383e-05
4.29908e-05
4.42246e-05
4.54208e-05
4.65666e-05
4.76495e-05
4.86535e-05
4.95547e-05
5.03197e-05
5.09094e-05
5.13233e-05
5.15711e-05
5.15802e-05
5.12764e-05
5.05941e-05
4.9492e-05
4.79693e-05
4.60764e-05
4.39108e-05
4.15947e-05
3.92092e-05
3.68035e-05
3.44937e-05
3.23725e-05
3.05539e-05
2.92463e-05
2.85553e-05
2.84666e-05
2.89975e-05
3.03375e-05
3.26985e-05
3.62908e-05
4.10547e-05
4.65781e-05
5.23155e-05
5.78343e-05
6.29303e-05
6.7585e-05
7.18734e-05
7.58929e-05
7.97281e-05
8.34418e-05
8.70784e-05
9.06699e-05
9.42364e-05
9.77821e-05
0.00010129
0.000104718
0.000108007
0.000111091
0.000113913
0.000116437
0.000118659
0.000120598
0.000122296
0.000123797
0.000125136