/*--------------------------------*- C++ -*----------------------------------*\
| =========                 |                                                 |
| \\      /  F ield         | OpenFOAM: The Open Source CFD Toolbox           |
|  \\    /   O peration     | Version:  2112                                  |
|   \\  /    A nd           | Website:  www.openfoam.com                      |
|    \\/     M anipulation  |                                                 |
\*---------------------------------------------------------------------------*/
FoamFile
{
    version     2.0;
    format      ascii;
    arch        "LSB;label=32;scalar=64";
    class       volScalarField;
    location    "0.41";
    object      omegaU;
}
// * * * * * * * * * * * * * * * * * * * * * * * * * * * * * * * * * * * * * //

dimensions      [0 0 -1 0 0 0 0];

internalField   nonuniform List<scalar> 
12225
(
57533.3
82594
91369.4
93141
92041.5
89729.5
86843.9
83634.7
80207.3
76611.1
72876.9
69036
65130.7
61215.9
57361.6
53627.3
50125.6
46607.5
3448.94
7855.28
12090.3
15859
19079.7
21811.2
24166.9
26252.7
28149.2
29916.1
31574.4
33121.2
34545.7
35830.8
36958.6
37915.3
38689.7
39311.3
490.698
808.541
1337.17
2071.96
2971.69
3983.86
5067.18
6193.55
7345.32
8512.64
9688.85
10867.1
12039.1
13194.5
14323.4
15417.4
16477.8
17509.5
397.288
410.589
445.428
513.794
626.532
790.939
1012.19
1293.83
1637.47
2042.47
2505.5
3020.38
3578.72
4169.09
4778.2
5392.29
6003.98
6601.67
394.974
394.324
395.006
398.455
406.784
422.522
448.594
488.342
545.408
623.509
726.116
855.994
1014.72
1202.18
1416.5
1653.99
1911.28
2183.17
394.905
393.739
392.675
391.813
391.358
391.63
393.096
396.411
402.444
412.277
427.177
448.508
477.598
515.564
563.18
620.774
688.39
765.877
394.887
393.694
392.554
391.471
390.46
389.545
388.771
388.214
387.997
388.297
389.355
391.47
394.99
400.283
407.696
417.53
430.02
445.338
394.875
393.675
392.529
391.435
390.394
389.405
388.469
387.592
386.787
386.073
385.483
385.062
384.867
384.969
385.446
386.379
387.851
389.932
394.866
393.66
392.511
391.415
390.372
389.379
388.435
387.538
386.688
385.889
385.142
384.453
383.829
383.279
382.818
382.461
382.234
382.161
394.861
393.651
392.5
391.404
390.361
389.369
388.426
387.529
386.678
385.872
385.112
384.396
383.725
383.1
382.524
382.002
381.542
381.158
394.869
393.666
392.523
391.436
390.401
389.417
388.481
387.591
386.746
385.944
385.184
384.466
383.789
383.151
382.554
381.999
381.492
381.039
394.897
393.721
392.603
391.539
390.527
389.564
388.647
387.775
386.946
386.157
385.408
384.698
384.024
383.385
382.783
382.216
381.689
381.205
394.935
393.795
392.711
391.68
390.699
389.766
388.877
388.031
387.226
386.46
385.73
385.036
384.375
383.747
383.149
382.583
382.049
381.55
394.973
393.869
392.82
391.822
390.873
389.969
389.11
388.291
387.512
386.769
386.062
385.387
384.743
384.128
383.541
382.981
382.448
381.943
395.003
393.927
392.903
391.931
391.006
390.126
389.288
388.492
387.733
387.009
386.32
385.661
385.032
384.429
383.852
383.3
382.771
382.266
395.022
393.964
392.958
392.001
391.091
390.226
389.403
388.62
387.875
387.164
386.486
385.839
385.219
384.627
384.058
383.514
382.992
382.492
395.034
393.986
392.99
392.042
391.141
390.284
389.469
388.694
387.956
387.253
386.582
385.943
385.331
384.747
384.188
383.653
383.141
382.654
395.041
393.999
393.007
392.064
391.167
390.314
389.504
388.733
388
387.302
386.638
386.005
385.402
384.828
384.28
383.759
383.264
382.796
395.038
393.993
392.998
392.052
391.152
390.297
389.485
388.714
387.981
387.285
386.624
385.996
385.401
384.836
384.302
383.797
383.32
382.873
395.026
393.968
392.962
392.005
391.095
390.231
389.411
388.633
387.896
387.197
386.536
385.91
385.319
384.761
384.235
383.742
383.28
382.849
395.001
393.92
392.891
391.913
390.984
390.102
389.266
388.474
387.725
387.016
386.347
385.716
385.122
384.563
384.039
383.548
383.091
382.668
394.951
393.823
392.749
391.729
390.761
389.843
388.973
388.151
387.375
386.642
385.952
385.304
384.695
384.125
383.594
383.1
382.641
382.217
394.88
393.685
392.549
391.47
390.447
389.479
388.563
387.698
386.881
386.113
385.39
384.711
384.076
383.482
382.929
382.415
381.941
381.505
394.851
393.629
392.468
391.367
390.325
389.342
388.415
387.542
386.72
385.949
385.226
384.549
383.916
383.326
382.778
382.269
381.799
381.367
394.856
393.639
392.481
391.383
390.346
389.372
388.463
387.619
386.839
386.124
385.47
384.873
384.327
383.827
383.368
382.942
382.544
382.17
394.867
393.678
392.6
391.675
390.965
390.538
390.45
390.733
391.4
392.431
393.781
395.383
397.156
399.014
400.872
402.65
404.282
405.709
395.024
394.943
396.933
402.186
411.83
426.491
446.292
470.943
499.805
531.975
566.4
601.989
637.694
672.572
705.83
736.858
765.216
790.636
410.019
471.176
584.798
754.277
974.837
1234.04
1518.3
1815.16
2113.86
2405.62
2683.68
2943.24
3181.16
3395.71
3586.3
3753.42
3898.02
4022.87
1486.22
3398.72
5494.36
7546.35
9420.9
11064.3
12478.7
13687.8
14720.1
15602.7
16359.5
17010.8
17573.2
18060.3
18483.5
18852.5
19175.5
19460.9
37749.8
57769.6
66992.6
70649.3
71650.5
71421
70627.1
69582.1
68438.4
67274.2
66131.3
65033.7
63995.9
63026.7
62131.2
61311.6
60566.1
59898.6
8779.25
8789.49
9054.55
9218.51
9418.31
9734
10207
10691.9
11143.7
11631.1
12032.9
12417.8
12859.4
13378.7
13987.2
14688
15479.7
16363.4
17351.2
18443.2
19405.8
20217.4
20843.4
21223
21254.5
20770.1
19453.6
16744.2
12438
7859.96
5220.24
4791.2
5051.21
5445.29
5922.29
6509.56
7244.23
7933.78
8234.93
8382.83
8540.2
8508.7
7956.88
6871.68
5786.25
5153.25
4897.02
5573.79
7722.85
11603
16404.7
19727.6
22221.2
24268.2
25914.6
27204.5
28180
28878.7
29332.8
29569
29608.9
29469.4
29162.9
28698.4
28078.7
27302.7
26368.5
25351.3
24279.7
23146.9
21950.1
20688.8
19364.4
17981.4
16548.1
15079.5
13597.3
12127.4
10695.2
9323.8
8034.23
6846.33
5778.2
4845.85
4062.97
3440.94
2988.94
2715.01
2631.52
2746.13
2983.08
3322.85
3746.06
4232.59
4762.81
5318.3
5882.1
6439.64
6979.01
7490.87
7968.27
8406.52
8803.02
9157.27
9458.05
9674.96
9820.13
9903.72
9934.06
9917.98
9860.72
9765.59
9634.66
9471.82
9287.25
9099.1
8927.74
8786.56
8678.24
8598.59
8542.34
8509.78
8507.39
8536.14
8594.16
8678.04
8783.29
8905.7
9042.3
9191.83
9354.94
9533.99
9732.62
9956.16
10212.1
10506.6
10832.9
11157.6
11431.9
11640.5
11803.8
11946.4
12089.4
12228.7
12351.5
12475.3
12665.7
12978.2
13297.4
13285
12863.4
12036.2
10826.1
9470.56
8744.3
9616.88
12179.6
14844.6
16899
18217.6
18670.7
18247.3
17009.5
15046.9
12808.6
10558
8486.69
6793.03
5665.18
5273.76
5798.07
7021.95
8766.59
10883
13120.1
15117.5
16335.9
16543.1
16060.9
14834.8
10062.5
7197.7
7240.89
7273.91
7658.21
9096.96
10252.3
10435.9
10245.2
9903.1
9496.45
9069.97
8650.66
8256.5
7898.81
7583.84
7314.57
7092.62
6919.31
6808.62
7020.48
7538.29
8330.22
9332.93
10450.1
11549.1
12446.4
12901.1
12810.5
12253.5
11100.2
9356.6
7303.29
5645.52
5132.55
5668.15
6317.5
6807.06
6933.63
6590.76
6006.18
5698.09
5674.52
5984.07
7292.13
9860.28
12586.1
13706.5
14317
14877.1
15135.6
14905.4
14330
13495.1
12470.5
11324.8
10121.1
8915.82
7758.09
6687.98
5736.39
4925.43
4269.02
3773.17
3437.81
3259.72
3232.01
3247.55
3266.22
3287.11
3309.44
3332.56
3355.8
3378.36
3399.31
3417.44
3431.06
3437.28
3430.25
3409.09
3371.13
3313.96
3236.15
3137.69
3020.21
2886.9
2741.87
2588.68
2427.95
2286.96
2172.38
2068.64
1975.96
1894.14
1823.24
1765.34
1719.42
1684.4
1659.75
1645.32
1641.21
1647.78
1665.9
1698.16
1760.08
1885.4
2067.14
2287.16
2529.51
2782.18
3035.38
3280.81
3509.83
3712.36
3877.74
3997.17
4068.04
4095.25
4088.94
4060.83
4021.88
3977.23
3921.23
3848.97
3766.2
3680.81
3597.08
3516.27
3437.24
3356.36
3271.63
3183.72
3095.27
3010.91
2937.88
2887.04
2872.67
2908.9
2999.52
3120.64
3243.75
3365.74
3484.2
3587.23
3647.85
3641.46
3584.05
3550.62
3657.74
3991.12
4394.95
4934.59
5827.08
7035.81
8189.72
8901.2
8958.11
8467.79
7556.24
6401.18
5227.34
4260.99
3676.42
3560.01
3582.28
3618.9
3655.31
3678.03
3678.57
3647.63
3568.22
3460.06
3365.76
3331.58
3430.25
3798.93
4667.8
5811.78
6809.71
7528.7
10909.8
6888.21
6371.01
6552.74
8899.86
10697.5
10999.9
10470.8
9663.18
8844.19
8107.75
7474.95
6942.47
6500.09
6136.28
5839.95
5601.32
5412.4
5267.03
5161.29
5114.69
5161.23
5350.7
5732.6
6331.53
7123.8
8024.8
8895.21
9611.89
10114.5
10299.1
10014
9146.82
7942.68
7003.38
6566.58
6747.66
7152.54
7436.72
7220.05
6553.22
6426.26
7490.56
9902.54
12013.8
12537.2
12529.7
12168.3
11639
10959.6
10099.1
9089.56
8017.29
6955.59
5968.82
5105.99
4395.78
3846.24
3448.21
3180.93
3017.91
2932.09
2899.22
2899.6
2918.55
2946.26
2976.46
3007.6
3039.57
3072.39
3106.13
3140.86
3176.54
3212.97
3249.6
3285.44
3318.9
3347.69
3368.69
3378.19
3372.05
3346.19
3297.19
3223.03
3123.69
3001.44
2860.23
2704.36
2535.78
2387.79
2259.95
2140.78
2030.83
1930.1
1838.19
1754.42
1678.05
1608.43
1544.97
1487.19
1434.69
1387.17
1344.39
1306.27
1272.89
1244.68
1223.52
1217.12
1229.74
1262.93
1316.93
1390.96
1482.26
1585.58
1693.42
1797.61
1891.61
1971.93
2037.46
2087.86
2122.55
2141.41
2146.42
2142.71
2126.8
2097.63
2057.85
2010.2
1956.93
1899.64
1839.43
1777.29
1714.52
1653.08
1595.71
1545.52
1504.98
1475.13
1455.9
1447.58
1452.2
1473.34
1514.48
1577.14
1660.21
1762.4
1889.91
2065.23
2334.42
2789.38
3526.79
4634.77
6030.31
7190.77
7465.1
6996.21
6198.95
5274.46
4406.8
3739.24
3334.14
3162.59
3139.12
3179.38
3238.09
3298.94
3352.03
3391.49
3414.37
3418.22
3394.62
3335.27
3242.85
3106.27
2933.07
2758.82
2668.84
2854.62
3327.63
3915.07
9060.29
6350.18
6768.78
10793
12841.6
12526.3
11263.3
9842.7
8577.3
7541.53
6721.44
6081.15
5584.55
5200.34
4902.8
4671.76
4492.01
4352.64
4246.19
4168.02
4124.91
4127.27
4189.08
4339.94
4620.85
5066.87
5679.85
6408.31
7166.31
7873.64
8450.54
8792.91
8779.36
8425.42
8005.96
7736.45
7745.5
8109.57
8611.9
8627.67
8740.67
9431.66
10524.3
11275.6
11262.8
10724.9
9997.61
9165.33
8279.21
7355.66
6423.7
5535.92
4747.63
4095.63
3594.7
3238.17
3004.36
2865.03
2792.43
2763.33
2760.39
2771.87
2790.44
2811.96
2834.29
2856.45
2877.46
2897.53
2917.15
2936.96
2957.81
2980.63
3006.39
3035.92
3069.78
3107.99
3149.83
3193.51
3236.06
3273.17
3299.43
3308.71
3294.96
3253.17
3180.63
3077.81
2948.22
2797.06
2629.91
2484.08
2351.86
2227.49
2112.06
2005.79
1908.22
1818.73
1736.61
1661.18
1591.78
1527.85
1468.88
1414.47
1364.26
1317.96
1275.3
1236.06
1200.04
1167.06
1137.08
1110.99
1090.45
1076.75
1070.95
1073.55
1084.22
1101.83
1123.72
1147.17
1169.6
1188.54
1201.6
1206.95
1204.07
1194.6
1182.65
1168.46
1151.76
1132.67
1111.55
1088.95
1065.67
1042.85
1021.71
1003.63
990.25
983.256
984.123
993.834
1012.9
1041.64
1080.27
1128.69
1186.95
1256.82
1344.7
1464.64
1639.93
1904.18
2304.97
2916.25
3845.88
5120.46
6358.06
6761.66
6225.67
5414.36
4572.35
3847.84
3327.76
3024.49
2893.8
2872.63
2910.06
2978.14
3048.76
3110.68
3156.64
3183.36
3191.25
3183.43
3162.64
3129.17
3083.34
3009.08
2892.38
2730.29
2540.71
2374.93
2349.69
2493.14
7018.44
7121.56
14182.6
15381.2
13795.6
11636
9668.53
8091.05
6890.51
5998.87
5346.1
4871.77
4526.7
4272.99
4082.94
3937.2
3822.74
3731.17
3657.44
3598.83
3558.87
3549.29
3574.8
3647.93
3792.9
4044.2
4433.35
4964.82
5601.72
6279.97
6931.82
7490.87
7882.36
8075.42
8182.4
8361.3
8605.06
9309.8
10321.8
10448.8
10148.1
10233.8
10218.8
9862.22
9186.07
8360.56
7496.73
6633.73
5801.08
5026.77
4345.08
3786.1
3362.91
3068.57
2882.24
2777.23
2727.89
2713.48
2719.1
2735.06
2755.49
2777.01
2797.72
2816.56
2832.98
2845.98
2855.42
2861.46
2864.57
2865.67
2866.04
2867.33
2871.48
2880.58
2896.62
2921.23
2955.27
2998.41
3048.72
3102.35
3153.49
3194.61
3217.09
3212.43
3174.05
3099.3
2990.07
2851.88
2696.24
2557.82
2425.51
2299.31
2180.81
2070.7
1969.06
1875.56
1789.59
1710.4
1637.26
1569.48
1506.51
1447.93
1393.4
1342.68
1295.56
1251.89
1211.48
1174.18
1139.77
1108.08
1078.92
1052.28
1028.29
1007.05
988.665
973.118
960.17
949.344
939.935
931.051
921.706
911.031
898.545
884.428
869.754
855.96
843.072
831.184
820.449
811.117
803.572
798.382
796.329
798.431
805.911
820.093
842.219
873.277
913.893
964.145
1023.2
1089.28
1161
1240.77
1339.27
1479.32
1696.73
2033.69
2540.36
3285.25
4331.95
5537.29
6265.59
5925.95
5142.23
4347
3670.28
3180.8
2886.76
2752.87
2727.74
2766.12
2836.28
2916.62
2991.5
3052.48
3093.18
3110.5
3104.92
3079.39
3038.07
2991.55
2944.9
2890.73
2814.5
2699.96
2543.82
2362.99
2196.51
2106.14
5949.44
16535.9
17589.7
14781
11728.7
9271.44
7471.99
6206.41
5338.17
4752.49
4359.52
4093.09
3907.38
3772.11
3667.94
3582.78
3509.51
3444.57
3386.76
3336.18
3294.97
3271.38
3269.66
3298.21
3372.35
3516.96
3764.04
4139.73
4644.38
5243.36
5882.93
6517.62
7114.47
7658.24
8218.04
8822.1
9590.12
11106.1
11270.4
10368
9793.45
9310.02
8728.12
8010.33
7208.55
6396.15
5616.49
4896.47
4261.94
3734.87
3328.16
3040.04
2854.89
2749.5
2699.89
2685.8
2692.44
2710.15
2733.26
2758.6
2784.46
2809.75
2833.59
2855.05
2871.78
2882.85
2887.83
2886.63
2879.54
2867.33
2851.24
2833.08
2815.19
2800.39
2791.82
2792.64
2805.56
2832.25
2872.76
2925
2984.36
3043.58
3092.79
3120.46
3115.43
3070.51
2984.52
2862.26
2724.8
2594.83
2466.08
2341.82
2223.95
2113.45
2010.7
1915.64
1827.87
1746.79
1671.71
1601.91
1536.78
1475.81
1418.61
1364.94
1314.6
1267.49
1223.53
1182.64
1144.73
1109.7
1077.39
1047.63
1020.2
994.926
971.598
949.962
929.814
910.957
893.177
876.241
859.909
843.978
828.342
813.05
798.344
784.66
772.273
761.419
752.388
745.536
741.31
740.288
743.226
751.09
765.054
786.431
816.534
856.492
907.005
967.912
1037.62
1113.22
1192.86
1280.45
1391.11
1555.34
1817.76
2227.52
2835.73
3687.24
4749.83
5685.03
5794.03
5104.09
4330.77
3659.12
3155.04
2834.98
2675.88
2632.93
2660.29
2723.9
2801.89
2882.08
2955.72
3014.67
3052.44
3066
3056.25
3026.02
2978.44
2925.74
2868.27
2807.86
2740.31
2651.82
2527.73
2369.21
2196.66
2041.63
11355.9
20841.2
16809.6
12343.9
9106.47
6990.41
5665.21
4855.45
4365.14
4065.71
3877.16
3751.36
3659.97
3586.13
3519.64
3454.76
3389.31
3324.27
3262.84
3208.48
3162.93
3128.38
3109
3111.77
3148.21
3237.12
3405.48
3682.97
4087.99
4612.13
5222.15
5891.14
6619.13
7431.34
8358.38
9254.54
10691.5
11531.9
10500.5
9476.07
8665.84
7922.33
7175.78
6418.5
5675.42
4979.6
4356.83
3828.03
3407.45
3098.14
2891.13
2768.27
2707.64
2688.67
2695.1
2715.69
2743.56
2774.91
2807.75
2840.97
2873.7
2904.94
2933.57
2958.49
2974.95
2983.36
2983.37
2974.95
2958.44
2934.58
2904.56
2870.08
2833.41
2797.44
2765.63
2741.79
2729.68
2732.39
2751.69
2787.64
2838.06
2897.97
2958.61
3007.27
3028.71
3010.31
2946.59
2841.81
2724.18
2601.33
2477.62
2357.28
2242.52
2134.32
2033.01
1938.59
1850.82
1769.29
1693.49
1622.83
1556.74
1494.69
1436.24
1381.05
1328.9
1279.64
1233.22
1189.62
1148.84
1110.87
1075.67
1043.17
1013.21
985.603
960.145
936.601
914.645
894.018
874.49
855.87
838.013
820.831
804.304
788.495
773.551
759.713
747.248
736.453
727.697
721.416
718.13
718.484
723.298
733.609
750.688
775.977
810.96
856.942
914.698
983.844
1062.07
1145.57
1232.6
1329.47
1456.1
1650.35
1962.15
2444.81
3140.5
4046.93
5008.8
5551.74
5181.15
4432.15
3748.12
3209.05
2842.26
2639.3
2563.75
2569.08
2617.5
2686.17
2762.3
2839.62
2910.52
2966.6
3000.81
3010.09
2996.51
2964.87
2924.74
2877.98
2824.23
2763.14
2693.84
2612.28
2507.36
2370.41
2210.44
2048.23
28093.7
22137.9
14353.6
9450.91
6744.41
5318.91
4572.29
4171.17
3947.13
3813.8
3726.08
3660.66
3603.94
3546.27
3481.33
3406.67
3323.57
3237.14
3155.77
3087.91
3035.32
2996.8
2974.84
2973.68
3001.54
3073.31
3212.2
3446.75
3801.62
4283.97
4879.37
5582.35
6427.7
7485.26
8624.27
9789.44
11143.5
10588.4
9326.49
8271.1
7396.7
6618.06
5891.66
5208.18
4581.43
4032.99
3580.26
3232.31
2987.36
2833.53
2752.52
2724.23
2730.57
2757.59
2795.85
2839.61
2885.68
2932.25
2978.09
3022.08
3063.11
3100.11
3132
3152.87
3164.77
3167.01
3159.11
3140.96
3112.84
3075.47
3029.97
2977.96
2921.7
2864.2
2809.3
2761.27
2724.47
2702.45
2697.17
2709.46
2739.19
2784.81
2841.08
2896.62
2933.99
2935.11
2889.5
2805.77
2701.72
2586.02
2467.28
2351.01
2239.97
2135.22
2036.91
1944.83
1858.69
1778.13
1702.79
1632.24
1566.06
1503.79
1445.01
1389.38
1336.59
1286.44
1238.83
1193.7
1151.08
1111
1073.52
1038.64
1006.34
976.507
948.998
923.609
900.135
878.262
857.734
838.323
819.851
802.197
785.316
769.247
754.112
740.129
727.586
716.797
708.178
702.224
699.524
700.799
706.956
719.141
738.764
767.452
806.914
858.671
923.576
1000.94
1087.61
1179.1
1274.49
1383.15
1529.89
1758.01
2119.82
2667.46
3423.28
4319.31
5084.12
5219.88
4605.93
3910.21
3329.44
2904.54
2642.93
2521.38
2496.13
2524.39
2578.45
2644.83
2715.82
2788.37
2855.84
2909.3
2940.51
2945.16
2925.8
2893.23
2856.58
2817.49
2775.01
2725.83
2664.89
2588.19
2492.31
2370.62
2223.76
2066.25
37638.5
20052.8
10798.6
6796.84
5170.35
4475.22
4136.03
3952.27
3843.63
3771.01
3716.05
3668.51
3617.88
3554.31
3472.75
3372.92
3257.62
3134.38
3018.26
2926.42
2863.26
2829.81
2823.63
2842.05
2887.82
2972.88
3119.25
3355.86
3710.81
4198.05
4812.23
5567.95
6552.66
7811.49
8983.83
10253.8
10407.6
9281.85
8066.82
7083.83
6268.21
5555.95
4913.85
4338.49
3843.41
3443.24
3144.26
2942.42
2824.92
2773.88
2770.35
2797.51
2842.42
2896.28
2953.84
3012.18
3069.75
3125.49
3178.47
3227.58
3271.45
3308.47
3337.4
3356.09
3365.84
3365.39
3353.81
3330.65
3296.06
3250.67
3195.42
3131.46
3060.31
2984.49
2908.03
2836.13
2774.78
2728.99
2700.26
2688.13
2692.45
2714.5
2753.99
2803.1
2844.69
2856.23
2825.56
2758.57
2664.82
2555.84
2441.58
2328.78
2221.05
2119.72
2024.83
1935.94
1852.51
1774.09
1700.29
1630.79
1565.28
1503.45
1444.98
1389.56
1336.89
1286.73
1238.9
1193.29
1149.88
1108.68
1069.78
1033.23
999.101
967.392
938.046
910.942
885.912
862.751
841.185
820.981
801.932
783.885
766.754
750.534
735.314
721.282
708.73
697.992
689.495
683.786
681.521
683.504
690.745
704.525
726.427
758.311
802.16
859.758
932.043
1017.95
1113.51
1213.82
1319.29
1442.36
1611.86
1873.62
2280.24
2877.68
3658.71
4482.1
4999.71
4806.07
4128.83
3510.15
3024.03
2693.13
2511.67
2445.32
2448.49
2485.38
2537.33
2596.9
2659.4
2725.71
2789.9
2842.39
2873.25
2875.85
2853.47
2819.21
2781.6
2746.06
2712.55
2677
2632.32
2569.34
2483.05
2372.33
2237.39
2086.83
42380.2
15854.3
7505.09
5236.63
4551.47
4237.16
4049.74
3932.37
3854.75
3798.37
3754.21
3712.69
3659.5
3583.13
3479.96
3350.55
3196.54
3025.4
2860.25
2732.37
2670.41
2671.69
2703.29
2753.64
2827.49
2941.24
3121.28
3400.55
3809.88
4362.4
5048.99
5880.01
6979.84
8206.15
9268.43
9838.19
9181
7985.03
6922.88
6069.85
5358.73
4741.19
4200.02
3740.62
3374.34
3106.29
2931.64
2837.43
2806.09
2819.08
2859.89
2915.73
2978.02
3041.74
3104.36
3164.78
3222.48
3277.11
3328.18
3375.04
3416.75
3452.27
3479.12
3500.33
3513.65
3516.78
3507.86
3485.88
3450.85
3403.73
3345.98
3278.84
3202.93
3119.1
3030.15
2940.74
2858.24
2791.15
2742.17
2708.91
2689.18
2684.83
2700.63
2733.48
2768.83
2781.82
2760.56
2703.36
2617.58
2514.34
2404.09
2294.36
2189.47
2091.14
1999.51
1913.97
1833.75
1758.19
1686.79
1619.2
1555.15
1494.43
1436.83
1382.12
1330.08
1280.48
1233.11
1187.8
1144.45
1103.04
1063.6
1026.2
990.928
957.876
927.071
898.491
872.044
847.61
824.965
803.898
784.205
765.715
748.312
731.953
716.688
702.665
690.147
679.505
671.151
665.658
663.74
666.287
674.424
689.586
713.564
748.496
796.699
860.272
940.255
1035.19
1140.33
1250.69
1368.2
1507.78
1700.85
1992.21
2433.62
3060.84
3830.81
4535.9
4807.05
4403.43
3745.33
3202.84
2798.25
2543.87
2422.12
2391.56
2408.86
2445.67
2490.15
2538.74
2590.96
2650.55
2711.86
2765.15
2798.43
2802.82
2782.7
2747.77
2708.46
2673.1
2644.17
2618.18
2588.08
2543.14
2472.39
2373.32
2249.44
2107.37
43430.7
11137.7
5590.83
4767.27
4464
4239.62
4079.03
3973.39
3902.98
3853.82
3817.36
3779.98
3723.39
3635.77
3515
3362.25
3179.31
2974.24
2777.18
2650.94
2631.9
2655.83
2703.34
2775.56
2884.68
3053.06
3310.82
3685.96
4183.25
4780.57
5479.49
6356.62
7420.76
8419.57
9068.4
8878.11
7925.9
6862.44
5979.28
5262.15
4656.38
4135
3696.39
3348.85
3096.99
2936.23
2853.89
2832.56
2853.59
2900.12
2958.98
3021.37
3082.33
3139.71
3193.03
3242.68
3289.39
3333.84
3376.49
3417.32
3455.61
3489.78
3522.68
3552.98
3577.25
3591.94
3593.82
3580.56
3551.38
3507.44
3451.33
3385.9
3312.28
3229.75
3139.3
3043.68
2948.85
2866.18
2802.03
2752.74
2713.77
2685.56
2676.6
2688.22
2708.54
2717.21
2697.6
2644.33
2562.76
2463.28
2356.25
2249.36
2147.17
2051.64
1963.04
1880.76
1803.9
1731.59
1663.19
1598.23
1536.39
1477.48
1421.35
1367.86
1316.87
1268.23
1221.75
1177.24
1134.58
1093.65
1054.42
1016.93
981.267
947.522
915.794
886.139
858.557
832.988
809.326
787.395
767.02
748.035
730.31
713.778
698.449
684.437
671.965
661.393
653.177
647.869
646.227
649.219
658.09
674.443
700.307
738.132
790.618
860.227
948.127
1052.5
1168.01
1289.81
1421.15
1578.31
1793.06
2107.01
2570.57
3206.23
3934.05
4498.92
4561.4
4055.43
3440.1
2965.41
2629.87
2436.68
2358
2349.31
2371.46
2402.81
2436.3
2471.51
2513.26
2565.96
2624.56
2679.71
2717.54
2727.69
2713.03
2680.76
2641.6
2605.7
2578.25
2557.5
2536.89
2506.74
2453.74
2369.42
2257.07
2124.68
41812
7468.02
5055.11
4790.85
4538.51
4314.44
4150.95
4043.24
3973.98
3930.03
3899.87
3866.26
3810.28
3721.29
3598.47
3445.91
3272.31
3095.57
2943.15
2842.91
2813.36
2830.91
2889.21
2992.83
3155.51
3396.84
3733.64
4166.18
4676.82
5263.56
5965.94
6807.28
7677.44
8322.65
8396.33
7779.74
6841.54
5961.62
5238.31
4636.81
4124.7
3695.08
3353.93
3105.93
2947.58
2867.04
2847.2
2869.09
2915.08
2971.14
3027.78
3079.75
3125.05
3163.78
3197.29
3227.53
3256.57
3286.17
3317.57
3351.33
3387.47
3425.82
3468.28
3511.11
3550.57
3582.38
3602.01
3605.29
3589.45
3554.76
3504.23
3442.93
3374.82
3298.69
3213.6
3121.95
3025.96
2936
2863.45
2803.46
2750.43
2703.91
2671.99
2661.31
2664.79
2663.43
2639.02
2584.07
2502.49
2404.07
2298.9
2194.4
2094.89
2002.24
1916.7
1837.67
1764.22
1695.4
1630.41
1568.64
1509.69
1453.29
1399.28
1347.57
1298.1
1250.79
1205.51
1162.15
1120.54
1080.55
1042.1
1005.16
969.754
935.971
903.918
873.697
845.378
818.983
794.477
771.768
750.73
731.224
713.131
696.37
680.931
666.891
654.437
643.89
635.735
630.549
629.101
632.427
641.883
659.243
686.785
727.297
783.895
859.449
955.315
1069.43
1196.07
1330.64
1477.1
1651.58
1883.51
2211.87
2684.12
3308.58
3972.68
4398.11
4306.07
3768.83
3203.22
2781.18
2503.36
2357.88
2309.33
2312.93
2334.48
2357.67
2378.84
2400.34
2431.88
2477.36
2533
2590.61
2632.93
2652.05
2645.55
2618.99
2582.7
2547.46
2520.35
2501.81
2486.25
2465.12
2426.39
2357.66
2257.81
2135.65
38078.5
5877.69
5153.32
4927.31
4667.15
4432.89
4256.71
4138.54
4065.07
4022.79
3997.88
3972.9
3930.33
3860.13
3761.79
3641.03
3507.57
3375.57
3263.19
3188.9
3168.78
3198.51
3279.89
3419.32
3625.78
3906.25
4260.17
4680.36
5166.34
5733.54
6389.05
7084.07
7664.27
7858.03
7512.19
6788.07
5979.87
5265.38
4666.68
4158.12
3729.46
3385.27
3131.08
2965.25
2877.69
2852.15
2869.59
2911.46
2962.45
3011.86
3053.7
3085.73
3108.38
3123.73
3134.73
3144.61
3156.33
3172.27
3194.05
3222.24
3256.25
3300.46
3350.15
3402.81
3455.19
3503.18
3541.75
3565.26
3568.12
3548.67
3508.71
3453.8
3392.59
3325.24
3247.88
3165.91
3078.72
2994
2918.53
2851.99
2788.46
2726.82
2676.09
2645.77
2632.04
2617.53
2583.87
2522.77
2437.56
2337.71
2232.93
2130.18
2033.25
1943.6
1861.3
1785.68
1715.8
1650.66
1589.39
1531.28
1475.77
1422.52
1371.28
1321.97
1274.53
1228.96
1185.22
1143.25
1102.94
1064.18
1026.86
990.889
956.254
922.989
891.178
860.928
832.346
805.51
780.45
757.156
735.564
715.585
697.124
680.109
664.522
650.418
637.956
627.42
619.255
614.109
612.749
616.26
626.106
644.227
673.152
716.018
776.383
857.571
961.211
1085.19
1223.61
1372.03
1534.17
1724.43
1968.01
2301.96
2770.35
3367.89
3957.74
4260.69
4068.13
3537.53
3021.37
2642.46
2407.41
2298.23
2270.17
2279.96
2298.46
2313.11
2322.34
2331
2352.57
2391.43
2442.74
2500.12
2549.92
2578.85
2581.95
2563.23
2532.25
2499.61
2473.25
2455.37
2441.76
2424.75
2394.43
2338.31
2250.67
2138.6
32994
5866.14
5327.52
5100.4
4834.98
4587.59
4393.06
4258
4173.86
4128.1
4106.99
4094.9
4076.36
4040.87
3985.61
3913.94
3833.02
3752.86
3685.96
3645.99
3646.6
3693.91
3792.66
3947.14
4160.54
4433.67
4765.35
5155.34
5605.58
6112.49
6647.71
7118.46
7341.56
7171.27
6661.03
5989.7
5321.8
4733.83
4228.39
3797.15
3444.07
3176.22
2994.75
2892.32
2854.63
2863.32
2899.26
2945.61
2989.97
3024.92
3047.45
3057.8
3058.42
3053.02
3045.63
3039.92
3038.8
3044.4
3058.3
3081.65
3114.5
3159.38
3210.73
3267.08
3326.14
3384.38
3437.2
3478.7
3500.36
3498.78
3473.81
3428.46
3375.44
3317.54
3254.49
3184.43
3108.28
3031.44
2959.35
2890.96
2820.09
2746.28
2680.32
2633.61
2603.82
2574.72
2528.79
2458.37
2367.05
2264.16
2158.89
2057.49
1963.08
1876.59
1797.77
1725.82
1659.74
1598.53
1541.26
1487.15
1435.54
1385.96
1338.09
1291.75
1246.88
1203.5
1161.65
1121.33
1082.53
1045.18
1009.17
974.435
940.898
908.552
877.438
847.639
819.261
792.409
767.153
743.552
721.604
701.274
682.508
665.256
649.505
635.304
622.793
612.229
604.024
598.793
597.402
600.937
610.952
629.542
659.477
704.241
767.846
854.117
965.08
1098.79
1249.4
1412.32
1589.98
1793.46
2042.92
2374.43
2828.58
3388.52
3903.41
4108.98
3860.85
3354.29
2879.9
2538.24
2339.12
2254.24
2237.8
2249.45
2264.56
2272.73
2272.46
2269.94
2281.02
2309.47
2357.06
2416.7
2473.15
2511.44
2524.34
2514.39
2490.27
2462.01
2437.54
2420.03
2406.58
2390.33
2363.09
2314.45
2236.59
2133.53
27690.2
5905.6
5510.43
5297.67
5038.9
4783.53
4569.56
4411.69
4308.09
4249.68
4224.65
4220.14
4223.57
4225
4218.98
4204.52
4183.75
4161.16
4143.61
4140.21
4161.3
4219.99
4322.06
4470.82
4668.16
4914.59
5209.47
5550.82
5932.42
6332.82
6689.21
6884.43
6812.6
6472.81
5958.8
5381.64
4826.36
4329.93
3897.38
3533.83
3248.2
3045.08
2920.95
2864.74
2860.07
2888.15
2930.91
2973.82
3007.33
3026.77
3031.47
3023.64
3007.28
2987.1
2967.47
2951.67
2941.77
2939.18
2945.4
2962.35
2993.96
3035.03
3082.56
3136.67
3196.07
3257.75
3317.61
3370.62
3406.29
3419.95
3410.48
3381.39
3339.72
3291.46
3238.58
3180.15
3116.37
3050.6
2985.57
2917.88
2841.03
2756.81
2678.56
2618.47
2573.97
2529.46
2469.22
2387.5
2288.84
2182.44
2076.68
1976.85
1885.26
1802.28
1727.31
1659.38
1597.42
1540.41
1487.4
1437.56
1390.16
1344.64
1300.57
1257.68
1215.87
1175.12
1135.52
1097.15
1060.05
1024.24
989.683
956.304
924.043
892.857
862.748
833.761
805.978
779.491
754.411
730.823
708.775
688.283
669.336
651.918
636.033
621.732
609.144
598.51
590.218
584.846
583.265
586.648
596.584
615.302
645.791
691.871
758.014
848.591
966.154
1109.16
1271.99
1449.56
1641.97
1855.73
2105.96
2428.57
2860.81
3377.49
3823.65
3958.63
3688.28
3212.49
2773.32
2463.04
2290.59
2221.5
2210.64
2221.42
2232.83
2235.93
2227.87
2215.2
2215.79
2237.66
2283.08
2344.72
2406.84
2453.19
2474.96
2473.47
2456.67
2433.9
2412.51
2395.84
2381.79
2364.28
2336.32
2290
2217.96
2121.79
22356.2
5947.43
5675.57
5503.79
5274.08
5026.61
4800.71
4619.04
4488.45
4406.09
4363.98
4352.06
4360.54
4381.47
4409.62
4442.08
4477.34
4514.56
4553.61
4595.4
4642.19
4711.3
4809.35
4940.44
5107.18
5310.67
5549.99
5819.26
6099.29
6344.44
6482.6
6449.05
6228.93
5859.31
5399.51
4910.34
4440.96
4016.34
3648.12
3347.39
3122.14
2973.16
2893.66
2870.82
2887.78
2926.42
2970.38
3007.45
3030.45
3036.81
3027.53
3006.2
2977.86
2947.79
2920.16
2897.35
2880.1
2869.17
2867.8
2881.99
2911.92
2946.18
2985.79
3033.31
3088.32
3148.14
3208.53
3263.81
3307.47
3333.37
3337.75
3321.98
3291.9
3253.8
3210.83
3163.25
3111.45
3057.1
2999.43
2931.86
2848.33
2754.46
2666.33
2595.24
2536.87
2476.16
2400.29
2306.45
2200.51
2091.26
1985.92
1888.55
1800.57
1721.79
1651.28
1587.9
1530.49
1478.01
1429.5
1384.12
1341.12
1299.87
1259.87
1220.75
1182.34
1144.59
1107.57
1071.41
1036.21
1002.08
969.048
937.096
906.185
876.273
847.338
819.392
792.486
766.667
742.069
718.789
696.903
676.464
657.498
640.024
624.066
609.685
597.008
586.263
577.818
572.23
570.323
573.333
582.922
601.408
631.977
678.758
746.667
840.634
963.828
1115.31
1289.81
1481.51
1687.47
1908.92
2156.42
2465.5
2870.43
3341.52
3728
3816.57
3547.31
3105.07
2696.48
2411.37
2256.94
2196.64
2187.09
2195.32
2203.02
2201.39
2187.01
2167.45
2160.86
2178.57
2223.64
2287.7
2354.38
2406.89
2435.66
2441.3
2431.29
2414.29
2396.79
2381.65
2366.99
2347.21
2316.16
2268.13
2197.66
2105.51
17145.1
5930.7
5800.35
5709.25
5547.32
5340.25
5124.47
4928.76
4769.93
4654.59
4581.7
4545.12
4536.76
4549.28
4577.69
4619.28
4672.42
4735.06
4804.03
4875.6
4947.22
5027.57
5122.48
5237.13
5375.73
5540.04
5726.26
5919.5
6088.43
6188.43
6178.69
6041.63
5785.85
5435.71
5025.67
4597.03
4185.87
3814.38
3497.24
3245.65
3064.91
2953.27
2902.72
2900.26
2929.68
2974
3018.4
3051.32
3067.68
3066.25
3048.92
3019.92
2984.77
2948.98
2916.72
2890.12
2869.83
2856.74
2852.08
2858.68
2874.54
2895.75
2924.09
2961.7
3008.78
3063.15
3120.56
3175.53
3221.8
3253.24
3265.81
3259.9
3240.1
3211.96
3178.79
3141.64
3101.1
3056.78
3003.5
2931.88
2838.69
2735.02
2638.53
2557.34
2484.33
2405.82
2313.21
2207.36
2095.29
1984.91
1881.77
1788.51
1705.62
1632.33
1567.44
1509.59
1457.56
1410.26
1366.75
1326.2
1287.88
1251.14
1215.45
1180.39
1145.71
1111.3
1077.2
1043.55
1010.51
978.236
946.844
916.388
886.88
858.3
830.628
803.855
777.992
753.099
729.268
706.589
685.148
665.018
646.257
628.91
613.027
598.682
586.006
575.222
566.684
560.933
558.772
561.376
570.511
588.546
618.798
665.642
734.381
830.511
957.936
1116.56
1301.65
1506.42
1724.17
1950.29
2192.94
2486.44
2862.78
3291.24
3630.8
3694.39
3440.84
3031.79
2648.91
2381.44
2236.7
2179.22
2167.85
2172.4
2176.18
2170.03
2150.51
2125.88
2115.79
2133.35
2180.67
2247.75
2317.78
2374.17
2407.39
2418.09
2413.61
2402.03
2388.79
2375.82
2360.89
2338.47
2303.02
2250.55
2177.99
2086.75
13033.2
5826.87
5830.12
5847.15
5790.87
5666.79
5501.95
5325.22
5160.14
5022.96
4921.91
4857.34
4823.9
4813.88
4820.47
4839.81
4871.11
4915.17
4972.08
5039.99
5115.98
5197.86
5290.43
5394.54
5513.17
5645.03
5780.97
5901.49
5979.11
5986.83
5907.68
5737.41
5480.97
5152.32
4777.75
4391.37
4023.17
3693.59
3416.98
3202.52
3053.13
2966.04
2936.32
2947.19
2983.55
3030.15
3073.62
3104.28
3117.89
3113.64
3093.59
3061.96
3024.13
2985.44
2950.03
2920.26
2897.16
2881.14
2871.96
2870.54
2874.79
2885.16
2903.95
2933.18
2973.01
3021.14
3073.28
3124.07
3167.67
3198.57
3213.31
3212.27
3199.3
3178.85
3153.74
3125.16
3093.1
3053.97
2998.26
2916.52
2811.37
2699.14
2596.13
2505.44
2417.77
2322.24
2215.11
2100.36
1985.32
1876.44
1777.51
1689.83
1613.08