/*--------------------------------*- C++ -*----------------------------------*\
| =========                 |                                                 |
| \\      /  F ield         | OpenFOAM: The Open Source CFD Toolbox           |
|  \\    /   O peration     | Version:  2112                                  |
|   \\  /    A nd           | Website:  www.openfoam.com                      |
|    \\/     M anipulation  |                                                 |
\*---------------------------------------------------------------------------*/
FoamFile
{
    version     2.0;
    format      ascii;
    arch        "LSB;label=32;scalar=64";
    class       volScalarField;
    location    "0.15";
    object      k_0;
}
// * * * * * * * * * * * * * * * * * * * * * * * * * * * * * * * * * * * * * //

dimensions      [0 2 -2 0 0 0 0];

internalField   nonuniform List<scalar> 
122250
(
461.431
74.6036
57.0715
38.803
41.111
29.1555
27.4577
20.9226
20.0844
20.0446
19.5559
15.4568
12.1858
11.4964
12.1237
13.6016
13.7753
12.395
394.452
61.1457
30.738
28.9453
29.8271
27.0768
26.5091
16.6945
12.4552
12.0628
13.3337
11.6973
9.90525
9.0336
8.85353
9.09335
9.84185
10.2554
380.22
65.5897
37.1623
26.6678
25.2227
24.8943
27.9507
18.2237
11.3545
9.82684
12.8127
11.7602
10.0803
9.47904
9.12948
9.11512
9.57841
10.3807
381.881
74.2434
53.6109
28.3563
21.8772
22.4022
26.3577
19.6167
11.3366
8.90085
10.8787
11.0351
10.3854
9.89804
10.0253
10.0181
9.65622
9.88422
388.894
84.0725
73.9357
59.8905
22.2174
21.4935
23.3281
19.6864
13.8083
8.69595
8.10508
8.03446
7.52471
7.18912
7.6661
9.19112
9.1017
8.851
401.316
95.1773
100.862
116.852
30.2502
24.5503
22.637
19.8136
17.0006
10.1064
7.73443
7.41022
6.0271
5.82587
6.35038
6.6918
6.81937
7.15498
415.453
109.999
133.775
146.041
52.2888
34.9323
24.3639
21.157
18.7707
14.4464
12.8292
11.6151
8.48154
7.66797
7.80678
6.85236
4.71319
5.03782
431.262
119.001
148.767
162.306
79.8221
48.0957
30.6433
24.8769
21.1839
19.9646
23.1405
20.6481
16.7415
16.9246
16.9342
12.9435
6.41351
4.60671
436.041
142.552
155.079
171.461
102.505
53.012
38.3906
31.6511
26.8844
25.0329
37.5309
43.4676
32.6532
32.7096
39.4268
29.7372
16.4831
9.57678
429.67
162.644
178.02
180.175
112.105
57.3053
45.7546
37.8528
36.2894
27.0691
37.14
50.7517
37.8218
35.3351
51.2188
51.9377
35.5466
22.4092
410.013
204.164
215.92
199.775
117.138
56.5424
54.2642
46.6868
45.368
38.7074
26.7775
33.4724
27.4809
25.9811
44.3909
59.2871
49.7352
33.567
384.896
258.819
253.807
207.659
115.433
50.0453
57.7857
58.918
52.0976
57.5269
40.0204
24.4144
25.3151
24.7422
43.8947
78.2119
76.9382
53.9078
367.8
277.782
266.589
206.163
109.28
58.5606
68.7255
75.1678
72.0784
73.5044
59.5848
35.6009
27.9081
30.2734
49.6713
86.0372
93.6858
84.6057
365.274
276.381
275.288
207.97
122.735
82.5596
93.0858
124.552
131.888
112.403
65.287
44.5668
41.9535
41.1135
49.6692
80.6008
91.1649
88.2706
383.652
288.019
288.468
241.858
119.653
92.8619
104.887
137.377
133.749
87.6632
56.4632
44.8177
45.0393
46.9787
55.4606
82.8046
89.7233
86.1823
450.931
332.669
319.604
306.928
194.008
149.51
137.563
95.5285
60.6812
45.8369
34.6735
31.4057
33.5152
42.4296
61.5186
73.3074
75.4972
68.4082
620.525
315.717
298.429
288.715
280.338
260.483
187.707
87.2904
45.145
23.6401
23.0353
21.0105
24.6297
27.0854
23.4199
16.9071
14.5903
13.3974
679.392
240.075
212.305
154.773
185.398
187.115
170.78
107.203
49.5432
19.9235
11.7975
7.63033
5.03724
5.39578
5.97024
5.83489
5.51069
4.89632
679.183
182.895
147.749
58.947
58.5541
57.9764
62.6093
57.4822
32.5414
14.468
8.3376
5.01067
4.14639
4.36988
4.46299
4.16956
4.11155
4.45043
635.598
255.758
247.151
104.002
72.7866
33.9098
36.9597
35.5259
22.2692
15.5572
13.8464
9.27667
5.96754
5.62309
5.39805
4.82812
4.12575
4.01196
664.011
255.677
233.934
119.166
72.4306
33.2751
27.1352
30.8543
24.5411
14.3747
7.83388
5.7798
5.12537
6.81133
9.07243
9.13308
7.52793
6.08422
547.866
319.451
297.696
272.884
73.6452
17.6755
25.7557
29.8738
23.4439
7.09299
4.28753
5.18379
8.37339
12.5762
13.5609
10.6802
8.75577
8.01039
423.159
325.434
236.409
90.2788
36.5113
18.664
23.2468
10.6902
7.37352
4.87532
4.79456
7.48194
12.0146
14.2184
15.1804
12.937
9.37607
8.48526
372.1
275.064
216.228
68.4373
29.7534
15.2645
7.89716
4.75328
4.58101
6.50508
7.17487
8.59885
9.60021
12.296
14.9463
16.5349
15.7972
7.36513
363.632
231.279
202.315
69.8542
24.6233
14.3657
6.43676
4.82514
4.94712
6.84013
7.10043
7.42265
8.53527
12.4583
20.8446
23.6619
20.9615
8.65275
380.483
170.96
195.937
68.5562
32.9872
15.8726
6.69081
9.80875
12.432
12.8781
10.5636
7.97977
8.94035
14.9516
25.2622
29.8704
19.1156
10.7403
385.144
149.626
179.438
50.785
24.3543
14.3011
8.57185
27.2337
34.1819
34.0377
30.7127
16.6721
14.8
23.1349
26.7036
25.3182
16.7014
13.7836
353.945
121.367
147.86
42.376
38.0394
53.5832
26.7469
24.968
41.5938
49.6569
48.8387
34.4266
26.3314
33.5478
30.7262
24.7035
23.22
17.1557
313.661
107.081
119.814
45.0442
62.9283
108.724
103.348
54.4424
38.5894
45.047
61.7709
52.326
45.4704
52.0001
46.2657
37.2578
29.9142
23.5921
370.824
124.176
112.794
98.0055
112.24
126.774
149.838
145.181
117.593
115.069
134.006
139.976
131.33
120.23
110.047
80.3502
62.7484
46.5561
471.606
92.9366
49.9012
35.7921
35.0949
27.0355
26.9691
21.9866
22.3018
25.1188
21.4642
15.0537
10.7718
9.40455
8.36765
7.32115
6.02354
4.57484
427.303
65.2515
27.001
26.4877
25.7149
20.1034
19.095
13.9707
13.0196
13.8799
11.265
8.4302
7.0232
6.80093
6.81938
6.16124
4.90198
4.40939
403.017
61.0618
28.0511
22.9474
19.6114
17.8429
18.193
11.9523
10.7714
11.8232
9.68939
7.37699
6.20578
5.7575
5.6395
5.81264
4.89155
4.66757
399.127
63.343
37.6636
21.4783
16.6772
15.3208
14.7249
11.5299
8.96227
8.0379
8.66086
6.805
5.72005
5.39057
5.19571
5.31501
4.54934
4.28071
401.975
69.2909
62.3292
37.693
20.4141
15.0694
13.3737
11.8102
9.02603
7.52206
6.79218
6.04808
5.26817
4.84005
4.53068
4.31053
3.5982
3.36166
409.315
80.2487
93.1729
92.4269
39.4777
17.807
13.573
12.5267
10.9263
10.2996
6.64672
6.912
5.51209
4.68141
4.44864
3.73244
2.83109
2.77682
416.514
89.2925
115.984
135.343
89.061
31.0202
16.4814
15.0416
13.3312
14.4259
11.4087
10.6303
7.54576
5.30095
4.38314
3.85109
3.02199
2.70752
416.145
110.431
119.756
141.472
124.509
63.0056
24.9827
20.067
17.3839
16.9743
14.2502
12.4672
11.7408
9.08724
5.29095
4.36004
3.3001
2.81345
413.213
141.757
129.738
143.344
137.546
78.709
34.7009
29.8367
23.1577
17.4632
17.7633
14.2737
14.0423
14.7828
11.6457
5.84326
3.62792
3.06102
411.121
181.109
145.707
152.888
149.129
84.6477
37.4784
36.0314
36.7671
18.9773
18.536
16.5495
15.6685
17.7951
17.1965
15.821
5.85138
4.44356
404.44
223.336
181.385
177.906
159.944
84.7337
42.1863
37.1771
45.1708
28.364
18.144
17.6672
16.115
18.3678
17.4459
19.9575
12.501
7.08844
389.521
256.752
230.777
181.542
152.484
73.6045
50.1793
43.644
46.111
44.705
20.6232
18.4382
16.8354
16.9422
18.5715
22.8787
22.625
16.2255
377.714
273.543
256.528
178.394
136.382
70.2736
61.9808
59.238
53.3962
55.0684
33.1139
21.4873
18.3171
17.7484
22.7816
32.7152
29.8701
22.8024
377.569
292.453
276.924
167.415
90.8479
66.7042
69.8723
85.6378
78.9646
60.1445
44.4318
30.9835
31.0597
24.2064
27.1563
43.4974
42.6948
29.6341
393.068
302.947
282.521
192.251
80.3721
76.1994
87.4925
111.28
94.3253
60.9845
45.5835
33.8745
38.8181
35.8653
30.1519
45.4939
52.9257
46.5926
454.645
356.595
258.334
242.142
161.144
124.428
121.047
97.3449
66.22
38.2457
23.8423
28.0012
40.4563
45.5855
38.0026
33.4362
26.6643
18.72
646.549
306.173
266.199
174.789
187.107
207.176
195.816
136.215
70.593
21.7448
13.8745
11.7155
10.4687
10.1078
8.08686
6.31475
5.32608
4.92744
645.983
271.707
279.445
93.9795
142.418
137.403
130.573
89.8751
34.4813
14.4538
12.2339
12.1364
7.04063
5.34211
5.40035
5.48674
5.6286
5.54106
643.549
203.157
182.11
62.6387
57.054
57.3699
61.7888
48.8917
27.2318
21.0788
14.4006
7.75784
4.22421
4.10704
4.56463
4.91744
4.8295
4.73809
639.872
268.791
282.998
157.698
87.8947
24.8029
33.3626
34.6128
28.2897
20.0441
12.7367
6.5992
5.35711
5.43477
5.43948
5.44706
5.65685
5.57549
615.043
271.315
275.078
143.918
111.55
42.579
19.1164
22.1349
16.8361
7.85106
5.31626
5.47141
6.67672
8.88732
9.78409
9.08418
7.42756
5.69321
488.942
373.812
255.42
85.7547
40.9623
17.2012
13.7445
15.875
8.96719
5.73418
6.71482
8.1644
13.0579
16.4701
17.1912
13.9474
9.44215
6.95246
403.788
311.148
214.406
61.5753
24.6158
12.2496
7.79009
4.79223
4.36012
6.42585
7.07016
9.09595
13.7046
18.759
20.3998
17.9544
10.091
6.18501
363.805
272.13
204.372
56.9087
21.9703
10.5195
5.48703
3.72515
4.59835
8.18976
8.49037
10.7846
15.2323
18.3447
20.1383
19.8841
16.4639
8.02586
357.593
233.846
202.25
70.3555
24.041
11.5292
6.31782
6.73418
7.75173
9.65392
8.74201
9.11834
11.662
13.8281
18.3408
19.5385
21.2493
19.6779
376.152
171.39
197.617
68.914
32.2359
12.3043
13.583
27.9527
28.4463
27.0839
22.735
15.5243
13.2677
14.0908
20.5785
22.3105
23.3567
25.2275
384.133
146.631
169.424
49.8579
42.9504
34.9862
41.1647
56.219
50.3548
43.7849
40.4624
37.3205
31.5688
26.0768
24.2808
30.3779
40.7012
37.3419
360.204
120.946
142.463
51.8685
58.6583
73.9268
74.2953
74.8413
67.9712
63.6891
64.6288
64.3598
55.2544
40.6426
33.1403
36.9327
53.7962
49.9209
323.874
109.445
115.472
46.2232
50.8875
71.0924
89.8187
86.1468
83.829
88.5721
106.749
114.836
108.536
67.1096
40.2391
41.7703
58.4507
57.9342
397.036
136.664
125.677
87.1806
80.2125
70.6091
81.7875
106.898
110.076
113.219
129.983
141.089
141.434
135.932
111.124
94.03
107.988
112.942
469.76
95.7051
51.9409
36.9007
33.4049
28.2324
29.8131
27.5057
29.0673
22.9432
15.5456
10.8112
7.02232
5.53583
4.53419
4.05719
3.59586
2.94978
427.739
77.8009
36.2188
33.832
29.0585
21.5958
21.327
16.3766
14.8987
12.1075
9.32213
7.21793
4.8931
3.97552
2.99644
2.35451
2.14354
1.92689
408.439
70.6152
39.0528
35.7975
28.4609
19.9094
20.0754
14.6392
12.3543
8.46531
7.49401
5.80695
4.44888
3.79575
2.86357
2.35256
2.11206
1.79365
404.324
67.2881
36.113
27.733
23.8149
17.0082
16.6892
12.6411
10.2841
6.63175
6.28691
5.69728
4.72463
3.9021
2.87352
2.27247
2.00708
1.77189
405.471
71.2053
58.2708
28.3947
20.1718
16.4886
13.4788
11.4759
8.64925
6.46901
5.89482
5.69975
4.94679
4.37796
3.00267
2.32256
1.99505
1.74937
408.108
77.9902
90.3575
76.5834
35.6238
17.0665
13.0956
10.9415
10.1338
10.4999
6.59833
9.66357
7.94647
4.73567
3.46712
2.65712
2.27812
1.96139
403.165
97.4904
105.122
128.418
96.0406
28.8381
13.4839
13.0723
14.2413
17.3892
11.7811
12.8326
16.3616
6.84379
3.83886
3.20213
3.12452
2.58977
394.822
124.033
121.007
142.073
137.273
66.701
20.5679
17.0647
17.7432
22.9217
15.8239
14.0697
18.1529
12.8839
5.19325
3.98784
3.44033
2.81303
390.978
160.175
141.835
156.602
149.429
85.2158
38.0895
27.0211
21.8976
22.0102
21.1456
15.8285
18.5335
22.2495
8.52057
4.34612
3.29115
2.75328
392.013
201.163
168.939
172.332
148.411
81.7757
43.6877
45.3172
36.6161
19.5939
22.3506
19.2411
18.9244
28.0581
13.0557
5.74175
3.39329
3.06533
393.908
230.042
206.565
185.635
137.573
71.7343
40.9249
49.8701
56.1058
25.6628
20.0094
21.7461
20.0617
28.3024
17.1093
12.2911
4.04021
4.0299
391.662
250.661
234.033
194.979
121.579
63.4983
42.7378
53.2104
62.212
39.123
15.0373
18.9924
19.1411
21.4457
22.037
15.7155
8.48933
6.58196
390.297
270.394
254.778
192.041
102.362
59.1344
51.5869
65.138
69.1692
51.0873
15.8035
14.5316
14.9107
16.6158
20.8818
16.2051
15.7999
12.7976
392.305
300.034
276.187
162.984
79.9065
66.5138
70.8714
84.1038
77.1671
55.708
21.8956
14.1268
13.2152
12.9916
14.4324
15.433
14.7232
13.6187
401.004
313.729
260.497
150.455
95.3684
89.4078
94.9216
93.5563
76.3024
54.8594
24.5416
14.9314
14.5389
11.577
10.6376
12.3599
13.0319
9.98611
446.859
322.699
224.133
166.053
154.972
128.706
119.119
90.5794
59.6311
28.2369
12.4743
13.3845
14.9068
12.7456
8.81766
7.91018
7.56862
5.64599
554.967
404.273
303.573
106.692
49.1396
54.7626
83.4865
84.3374
39.656
10.7447
9.53605
10.0929
9.36551
8.77368
8.03042
6.58497
5.26561
4.58997
572.1
364.379
307.162
100.906
33.1028
26.174
42.7843
36.9278
24.3544
22.2556
21.2477
15.2345
9.42953
6.77396
8.0073
8.00629
6.9163
6.23347
570.035
302.613
286.034
100.756
41.8115
30.6714
44.9864
38.2018
34.8177
30.7198
17.6042
9.29925
5.02714
4.14221
4.18365
4.55614
4.59873
4.51055
574.933
317.196
315.059
193.389
47.8486
19.329
18.3324
28.0788
25.8203
17.8869
9.1006
5.87165
5.43098
6.00208
6.62878
6.91851
6.84202
6.76394
536.467
318.789
301.043
170.362
50.4921
19.531
10.2604
10.5457
7.63696
5.33717
4.82529
4.74533
5.42096
6.72021
7.57692
7.34949
6.27473
5.12195
449.66
354.945
231.353
66.1969
22.1899
11.9607
8.2795
7.57176
5.41349
5.67368
8.51241
12.8606
15.6731
17.8458
18.5219
14.2427
9.02011
4.74875
387.41
295.612
203.222
52.8419
18.5612
9.6222
5.68514
3.54317
4.16833
5.64226
11.1995
13.9489
18.9061
21.8231
21.8775
19.2044
12.2382
6.54548
354.13
271.679
201.412
53.3113
19.2111
8.48388
4.91515
3.62971
4.38797
7.19445
11.6061
14.4159
19.0385
22.0428
22.4184
21.7514
18.8897
13.219
346.191
242.909
200.521
62.8834
24.2076
10.0793
5.43379
4.09676
5.30254
8.5169
11.2326
13.8571
17.0318
18.2384
19.1023
19.6489
20.3239
22.1179
358.507
186.565
195.934
62.0375
22.283
9.46744
7.90474
6.97083
9.06948
14.3577
14.8055
13.9262
13.4332
13.7647
16.9836
22.4336
23.2706
23.3906
374.608
151.777
182.623
50.9725
22.7931
11.7868
25.065
25.0686
19.8218
21.938
25.4318
25.5207
24.9952
21.4693
21.634
28.7422
37.3088
36.4716
368.194
144.022
174.162
48.3317
27.9489
19.9945
32.3095
32.1642
27.1344
27.7388
31.4309
44.4613
45.9959
35.0563
32.1998
38.4301
42.0175
38.4463
349.891
133.732
143.745
38.9861
25.8758
18.169
29.7382
56.5661
56.6342
62.5944
60.0625
61.1286
81.1426
80.6325
57.0312
56.4948
55.2412
48.0598
466.217
183.315
186.19
100.373
56.1522
44.9429
58.5854
86.0179
106.944
117.524
122.203
134.758
148.286
148.175
124.653
110.019
110.731
116.805
422.79
105.328
67.3886
48.097
44.1043
31.1798
32.3626
31.1435
27.7054
17.5072
14.705
13.6693
10.5818
6.10705
4.31648
3.94139
3.69239
3.28481
395.559
86.8197
44.1358
40.8632
33.3538
28.7182
30.0169
21.5832
18.3134
10.9743
9.7863
10.5865
8.91067
5.02731
3.44738
2.84171
2.7023
2.39112
392.379
80.2307
49.8667
42.829
38.1022
26.2791
27.7151
17.7727
14.0957
9.83544
8.71977
8.63017
8.29366
6.21553
3.57494
2.87375
2.43873
2.08388
391.239
81.2475
54.4664
37.0234
32.3273
21.3982
20.7505
15.4109
13.1602
8.30848
8.10231
11.2403
9.61391
7.45886
4.50302
3.16671
2.58283
2.19005
396.212
86.2683
80.1208
42.1909
30.94
22.6244
18.2004
14.4048
12.4791
8.67637
8.98469
16.2188
16.4013
9.36685
6.51228
4.34051
3.36056
2.76832
394.981
98.6695
127.471
100.538
45.0868
20.7314
17.6778
13.8626
12.836
16.1644
12.0704
21.4576
30.1711
11.3468
8.11923
6.5479
4.90824
3.86588
388.98
125.798
147.675
165.162
95.1662
27.7428
13.9675
13.0615
20.685
30.5199
17.5007
23.4219
38.9593
16.6041
8.09955
7.62976
6.74042
4.98607
381.753
157.514
168.3
183.857
126.645
52.9267
16.294
13.9666
24.3391
39.5089
27.7827
23.1405
38.2433
36.465
8.08618
6.92555
6.24954
4.65668
377.356
189.656
191.456
196.971
138.335
66.4421
28.0816
22.5241
23.4434
38.3294
42.0226
31.5172
33.3659
50.2921
10.6744
6.38939
5.31515
4.09506
376.797
215.78
212.272
205.565
135.901
69.8114
41.5101
31.15
25.42
28.2554
44.5299
44.7754
35.3823
53.2897
18.4312
6.88916
4.4012
3.27057
378.749
239.469
234.72
207.312
117.636
66.5919
44.3649
43.4403
35.7727
18.9386
38.4921
45.6119
42.3778
51.9232
35.9869
11.6197
4.37356
4.16194
380.716
262.848
249.288
190.449
99.7911
63.1644
43.1729
45.931
47.9808
18.7821
28.919
41.3218
42.1577
45.8051
47.2498
16.2183
7.74686
10.4679
385.146
282.274
264.652
158.545
86.6957
58.157
39.3178
45.8554
54.2981
24.3821
17.1914
30.8011
32.3899
37.7594
43.1975
19.7093
12.5758
11.4575
386.903
305.862
265.736
123.329
85.6724
51.9765
37.4286
48.0016
56.4706
31.3163
13.4705
18.4724
18.6239
21.1914
23.21
16.5853
11.8518
10.3883
394.947
311.629
237.605
132.995
81.8964
43.3275
40.8901
51.9528
55.0013
33.2821
12.0914
13.0079
14.4034
12.6339
11.6586
12.1611
9.4992
5.30383
429.433
314.425
221.269
116.641
66.1263
40.6943
47.4176
54.2995
39.107
15.6153
8.8104
11.1959
13.7865
11.5839
9.49942
7.73611
6.72709
5.02249
492.801
372.542
245.304
82.0133
36.5636
16.783
30.6635
34.3732
16.0613
9.24416
9.70687
11.4769
12.7558
13.2923
10.8399
8.67516
6.60997
5.40356
521.906
375.163
259.43
74.282
32.1445
14.9894
25.4859
27.0573
26.1815
22.9102
22.924
18.6385
11.0784
8.19611
9.91283
11.1396
9.79512
7.35169
519.509
360.219
278.116
83.1501
33.6593
17.3158
30.6419
35.8689
35.0012
24.6078
19.5536
16.9094
10.9921
5.98459
4.69044
4.57834
4.40166
4.44764
513.549
358.263
302.752
89.3034
25.5482
15.188
12.0259
17.9216
19.2059
13.0582
9.00479
7.11717
6.77485
6.80941
7.01541
7.02333
6.76744
6.55773
482.229
342.252
297.988
90.894
23.2643
15.1571
7.7536
6.46377
5.816
5.43388
5.54655
5.32779
5.58638
6.44767
6.7792
6.36254
5.80741
5.71506
424.709
325.242
225.122
58.4837
17.663
10.9002
6.21232
5.3698
5.25009
4.60353
5.71339
9.35706
10.2317
10.3945
9.29553
7.28657
5.12363
4.22088
376.493
290.8
202.565
52.8366
19.0263
8.72433
4.83685
3.36658
4.30779
4.27257
9.05835
16.2398
19.1774
19.5174
16.5996
12.9716
8.27104
4.95805
347.434
273.718
199.082
51.4939
18.3433
7.98295
4.36032
3.92799
4.3311
5.60042
8.72822
13.1529
19.4701
22.483
23.4648
22.9155
20.5425
15.4898
337.486
258.402
198.272
55.1506
18.8244
7.30193
3.70168
3.91293
4.88238
9.69273
13.3182
14.6704
16.1184
17.105
19.8006
23.0371
23.0049
22.677
341.539
219.903
196.35
66.6039
25.5578
9.42903
4.50809
4.21831
5.23575
9.79834
12.8362
13.4247
13.4973
14.0563
17.2158
24.0013
23.9431
20.3031
355.224
176.262
193.738
63.6746
22.4229
9.33546
10.6417
10.468
8.71287
10.8876
13.8918
16.3675
18.2462
18.6116
21.44
32.7244
32.0288
26.9407
366.518
162.928
185.19
54.3956
18.593
10.0369
10.5125
10.1493
9.0516
10.0904
12.4738
16.4777
23.8901
29.1679
40.1756
59.5966
56.336
41.4837
367.874
175.478
189.13
70.3542
33.8852
16.3315
13.8225
22.9873
15.7335
14.0943
15.1881
17.5848
22.0576
57.9764
86.2413
97.4109
82.2049
46.4264
471.866
222.407
237.615
202.958
133.347
99.7338
82.4942
86.9157
89.8732
85.4515
86.8934
117.167
141.47
147.073
143.95
140.703
124.149
102.899
393.052
133.133
109.083
49.7513
45.1172
24.3803
25.0902
27.2247
24.588
15.0667
13.4502
13.7775
12.8995
9.82957
5.42674
3.94626
3.47284
2.87816
382.526
104.18
58.1481
42.8107
35.7978
23.8392
20.8068
19.6816
18.1601
12.4861
11.8184
13.6486
13.527
9.26741
4.86688
3.16471
2.30676
2.06253
369.707
102.528
80.9889
48.4053
41.8314
25.3472
21.3689
16.8405
14.233
13.5526
14.294
14.6097
17.1557
14.0958
6.86846
3.52919
2.50655
2.36976
374.887
106.609
99.1451
53.4041
41.583
25.6802
19.4912
16.2775
14.1283
13.471
14.9982
15.4731
19.5639
17.163
12.2258
5.87917
3.88696
3.7475
385.513
116.026
135.804
63.2682
39.1623
26.1981
23.5963
16.1899
14.3046
14.4791
17.5437
17.8842
27.2535
19.1635
15.6518
10.9273
7.91647
6.89454
388.925
136.017
171.086
129.881
48.4726
26.2364
18.4953
15.0943
13.5499
19.1793
19.4035
18.7919
37.0562
26.551
15.5387
13.8563
10.2415
8.03714
386.927
161.308
178.856
156.592
73.2117
34.4665
13.6327
12.0477
16.558
24.2812
25.8951
29.2638
48.8028
44.1962
15.0044
14.1246
11.0535
8.35156
382.356
186.285
189.901
163.948
84.9203
42.681
15.6697
11.1556
24.2701
34.6367
44.9941
47.6767
56.6268
63.2368
17.6822
13.2132
10.0091
8.15528
378.447
210.609
205.111
161.512
89.6493
45.5411
23.8144
15.1196
22.5179
37.0156
52.0853
54.0715
57.0824
67.0826
28.1699
12.8543
8.84212
7.20543
376.288
233.769
221.308
151.772
83.4201
44.8493
26.2403
22.4945
24.9413
31.0368
46.0793
55.7602
57.3634
63.8871
51.2275
14.6184
8.72673
5.30017
375.04
253.737
235.459
137.24
66.9628
38.151
24.9551
26.4966
26.4412
27.8947
32.3968
42.2684
50.9353
59.9753
62.1948
21.8836
7.68223
3.66451
373.003
273.125
242.107
113.767
56.5272
32.5446
22.4004
27.9401
29.0713
28.8108
44.9004
48.1625
50.5215
58.1724
64.8287
30.6558
11.0905
4.56759
373.938
289.574
251.046
98.226
50.5506
27.6025
21.0771
28.0752
30.7237
26.5323
52.2922
58.6401
59.1159
64.9957
68.9442
37.9042
13.7793
7.5524
376.532
306.428
252.727
93.4048
47.8742
24.4696
20.3141
26.1436
30.5388
22.1412
37.4965
51.8805
45.8641
55.4159
50.8619
25.3031
9.54277
6.01727
385.359
307.384
237.831
102.902
46.9603
22.1893
19.9837
25.4762
27.1262
16.9299
18.1422
28.6403
27.0366
26.1485
23.2446
12.602
7.14619
4.79459
414.07
308.551
225.843
95.7492
37.9794
18.3919
20.2308
25.9248
20.539
12.0608
12.3714
18.3267
16.9724
13.2588
12.252
9.66581
7.34329
5.82999
461.546
334.311
231.598
71.8591
28.895
13.4932
17.5577
20.8493
14.3042
10.1744
10.935
15.2083
15.4171
13.8134
10.9643
8.34739
5.82562
4.39232
493.923
360.747
248.18
66.3274
25.26
12.2308
20.9074
24.1851
18.9819
12.8655
15.8044
18.5469
14.6288
14.0756
16.5083
15.81
9.77557
5.52197
494.952
358.412
260.994
68.995
26.5307
13.6394
22.7218
32.6851
30.8287
20.0802
14.2493
15.558
16.0985
13.2177
7.648
6.79268
7.03305
6.9792
482.946
355.263
286.589
70.018
20.3501
14.4195
9.4763
14.5664
18.8878
13.9726
13.1502
14.0287
13.3141
9.68704
7.87571
7.16571
6.17788
5.33741
456.154
340.337
271.881
69.8363
18.9251
13.9426
6.62616
5.61782
6.32925
7.77017
8.87098
8.9175
8.20293
7.68218
7.30398
6.85857
6.63052
6.84667
413.731
316.9
220.247
56.7122
18.3906
9.5941
5.37216
4.67126
5.0412
4.46034
4.14102
5.20201
6.15057
6.9515
7.33417
7.10107
6.718
6.67099
372.898
291.389
200.024
53.4846
19.5029
7.9897
4.66795
3.907
4.14367
3.60269
4.87513
9.19925
10.7442
12.5474
13.7755
13.6174
11.3027
8.40097
346.432
280.668
197.308
51.234
19.0678
7.85458
4.60643
3.79482
4.11452
5.4537
6.82299
8.29656
14.0025
21.796
25.7316
27.3075
25.6386
22.2442
336.417
279.758
198.775
51.1687
17.6105
7.2232
3.58669
3.84767
5.331
10.8281
11.5876
12.4855
14.565
18.5708
22.9486
26.6067
26.8832
26.2897
337.326
269.927
203.136
54.0683
17.5842
7.59279
3.67934
3.91572
5.23549
8.40062
9.62811
11.2533
12.3218
13.9987
17.3906
20.6175
21.6701
20.9728
345.639
233.034
205.092
63.4772
19.6697
8.92432
4.6568
4.84564
5.5672
6.83042
8.96784
11.1419
12.0126
13.5944
19.4924
23.8114
23.2181
20.6195
360.154
216.252
221.067
107.62
30.4702
13.6086
6.71131
6.57654
6.61669
7.93919
11.1388
10.8778
10.3434
14.4925
31.2107
36.4096
33.635
26.2506
378.45
230.844
235.757
163.224
53.4507
44.264
24.2312
19.1975
19.9192
32.6247
47.5996
41.1674
22.5711
23.3635
49.7628
51.4203
29.9809
26.2965
495.163
283.473
317.101
311.493
253.712
255.251
184.677
145.489
136.628
145.62
189.578
199.379
165.478
121.592
117.12
117.901
102.581
94.6998
396.335
144.849
145.669
51.4038
46.6773
21.9456
20.9543
21.9241
18.8485
13.5267
11.7578
12.0645
12.5038
10.9699
6.44479
4.4866
3.87435
3.11139
350.348
119.822
94.998
51.9375
35.0591
21.8676
17.0243
15.5603
13.0199
12.4575
10.235
10.4171
12.1636
10.9631
5.79209
3.29539
2.95974
3.12373
360.071
122.866
113.289
50.3503
37.2042
26.2615
19.3763
14.3501
12.7442
13.0344
10.4126
10.2785
13.5319
13.7604
10.4986
4.61682
4.04843
5.60549
370.508
134.007
146.425
66.9221
35.1202
25.2802
21.1684
14.1897
13.0566
13.4628
13.3938
12.0634
16.466
15.6315
14.0553
8.99751
7.42547
8.53136
384.512
144.853
157.448
80.3881
33.8362
25.4721
23.9608
13.6924
11.2922
15.1845
16.7974
15.6863
24.1874
20.1479
15.61
13.143
10.3698
9.9921
395.616
152.112
170.133
105.641
39.1961
27.4528
22.8089
12.4207
10.0941
14.8818
17.1233
18.0205
32.2933
33.5889
18.0769
14.3031
11.8337
10.3488
401.337
167.305
179.346
112.852
46.4287
30.5426
16.1475
12.0297
13.0312
13.2859
17.6494
23.4309
38.6416
50.8611
28.1765
15.2858
11.9079
10.4455
402.729
182.558
190.311
115.086
49.2914
32.2558
16.8346
12.9265
16.8786
18.3137
27.8225
40.8615
56.5647
65.2325
42.8953
19.4906
11.9166
10.6152
400.913
199.835
199.165
118.82
52.8026
32.9275
21.6747
15.258
19.8953
26.1633
39.4568
54.0689
65.8131
71.0715
58.1115
25.3208
13.2735
10.5872
395.674
224.326
212.136
119.786
53.4409
28.7573
21.6473
21.1531
23.8271
27.9415
35.751
50.9871
61.9174
67.7528
63.9084
34.1393
14.5308
9.89672
386.29
240.125
221.623
107.496
42.1798
25.4412
17.5078
19.7938
26.7367
28.6294
30.5853
34.6882
38.6559
46.4504
62.4914
50.693
17.0641
6.93723
374.753
259.235
228.99
89.0486
36.8118
24.9369
16.6366
17.7312
29.3136
36.6778
36.5035
36.23
36.9977
40.2252
60.7495
61.0252
24.5606
6.35003
367.697
279.299
237.895
80.674
35.1002
24.9263
16.7592
17.4606
29.1213
41.5815
49.6148
51.5567
54.0824
64.8152
76.064
70.888
30.4258
7.4516
368.127
297.528
245.506
84.1475
38.6513
24.5151
17.8707
18.1766
24.8059
35.1635
50.3304
64.3304
75.606
81.6271
82.0257
66.3181
19.1708
4.7631
376.983
303.111
238.753
93.3214
42.0832
21.6138
18.7297
18.9131
20.0132
22.4068
37.0905
46.9205
51.6646
59.1007
64.8753
44.7787
15.0098
4.588
404.37
306.989
226.434
90.3887
35.4815
18.0892
18.7498
18.9521
15.807
13.5478
16.2934
20.4967
21.0245
24.6655
31.2564
23.7552
11.3237
5.95733
449.284
328.483
232.263
73.2341
28.0804
16.3693
18.4049
18.2991
13.9627
10.5882
10.2154
13.3328
11.7478
9.43402
9.20004
8.83498
6.99445
5.67393
484.338
348.953
244.53
64.2509
24.5425
14.462
21.9495
18.1087
14.3709
9.64833
8.39174
11.5095
13.7837
14.3796
13.4344
9.87911
6.64675
4.85988
488.494
349.401
248.019
63.1168
24.3076
13.2834
24.3636
35.2552
32.255
20.8161
11.3671
10.3833
13.345
16.3182
15.0521
14.2394
14.1591
10.1573
475.405
348.225
259.582
61.5886
20.7037
12.573
7.98842
12.6598
19.0998
16.3843
16.4746
18.1699
18.213
15.4432
10.2648
7.65469
5.98273
4.71312
452.13
338.185
246.161
61.6738
19.9904
10.2857
5.55202
5.63632
6.8339
8.33204
9.04918
9.59036
9.55423
8.26832
7.24194
6.60394
6.43748
6.60976
415.613
316.673
210.647
53.4797
20.907
9.72812
5.12446
5.10652
5.26285
4.76584
4.81978
4.74118
5.72885
6.61419
6.89908
7.0279
7.21213
7.42391
376.706
291.742
195.265
53.9463
19.425
7.85895
4.46725
4.02511
4.03032
3.66773
3.59381
4.25487
5.4922
7.25246
8.74297
9.52867
9.821
8.94963
350.133
284.863
195.444
51.7606
19.0962
7.75124
4.72404
3.61639
4.21076
5.54155
6.08664
6.3638
8.65337
12.4983
17.8485
22.6426
26.1598
25.0386
340.347
289.855
199.267
49.5768
17.7806
7.47111
3.97616
3.7252
5.60427
8.76272
10.7716
12.6523
16.2293
23.0989
29.6077
36.0127
43.6768
46.3754
342.149
301.682
208.515
48.9217
14.5465
6.26813
3.90429
3.94359
6.15491
7.57587
7.74762
8.686
12.4055
22.452
32.5772
39.1588
44.4369
48.807
352.121
313.671
226.958
59.6001
19.253
9.87196
5.02468
4.36828
5.6561
6.04877
7.08335
7.60621
8.6191
12.9795
25.7611
33.4503
39.713
46.5676
367.329
325.748
273.728
141.226
60.1514
30.1306
8.25685
5.33901
6.2986
10.574
17.0697
15.5267
9.2747
10.1824
18.7737
25.1368
35.0922
41.7185
402.071
320.858
304.821
270.821
177.463
112.651
55.4611
21.6807
18.1056
26.3451
62.6281
61.8273
39.4371
19.9703
18.751
21.2265
28.5639
36.503
521.281
443.525
391.148
392.868
391.091
382.504
332.658
209.679
157.399
162.28
196.821
208.869
181.334
99.4435
64.8015
65.4738
83.6469
102.353
472.726
132.006
153.211
59.7771
50.6927
23.1986
21.4022
22.9272
17.6459
13.2381
11.6012
12.1001
9.40688
5.92592
5.33174
6.33693
6.96759
6.19134
343.059
125.203
134.304
88.2911
57.4109
26.8929
19.7515
16.2224
12.0877
9.40776
5.52522
5.77369
5.79592
4.33018
3.98794
5.46207
7.08781
8.22496
359.699
131.624
133.417
72.0673
63.4147
29.4712
24.2464
14.7248
12.3492
11.2664
6.25961
5.71125
6.82497
6.3145
4.47904
5.28916
7.82267
9.70345
368.137
136.116
129.803
66.3576
47.5283
28.4065
27.9817
14.2238
12.6374
10.5441
7.55577
7.26821
9.77755
10.4978
7.82378
6.26501
7.66335
9.35545
380.536
138.412
137.035
70.5361
34.3042
26.9573
29.448
15.2466
11.4156
10.9943
9.64961
8.69929
12.8208
14.6996
13.7069
10.7658
8.81621
8.80955
396.919
143.043
147.687
89.7136
38.1508
27.4124
24.8294
19.32
10.923
9.98731
9.72563
9.80528
13.7859
18.9988
15.5678
13.6325
11.0798
8.93671
414.394
147.789
164.049
99.1136
46.9406
28.9604
20.1971
22.5999
12.8092
10.0539
9.45341
10.1221
13.6735
22.1309
21.7574
14.2312
11.0639
9.17329
427.874
157.307
177.632
108.146
55.2982
30.8613
19.8854
24.4869
18.8168
13.9439
10.3983
11.0794
15.7009
27.7859
32.2299
18.9606
11.4802
9.53049
432.113
168.249
182.501
111.873
64.7936
32.8711
21.3599
21.4677
25.9553
24.0702
17.8342
19.1496
33.1949
53.017
51.7678
27.8684
13.3801
10.4679
425.716
181.397
196.07
119.048
70.9453
33.2115
21.2724
20.8032
27.3062
32.2497
30.1678
32.4932
49.3555
63.2871
62.7279
48.0902
18.0715
10.6586
406.046
204.846
205.797
124.483
69.5454
33.5072
20.8109
19.9168
27.1875
37.0917
37.4315
38.3773
44.4673
46.7795
56.2165
57.2513
36.0799
11.7622
381.309
239.122
219.279
102.783
49.5135
34.2957
23.5348
20.1791
29.3471
38.7061
43.5838
42.6766
45.6878
50.3557
54.3343
61.7607
54.0824
18.1956
364.374
269.752
229.699
89.7454
44.6241
40.137
30.4717
23.1508
29.6814
37.7374
49.7967
56.0319
61.4448
64.4944
65.6529
73.2936
69.3297
28.5292
360.162
290.174
235.708
86.0667
48.6454
47.1268
36.2935
28.1449
29.0544
35.1833
49.6674
62.5956
76.1072
84.8174
85.1089
84.1413
77.3352
32.1451
370.341
297.889
235.095
98.3941
57.7224
49.9966
38.4574
32.1767
29.1015
32.5102
35.6137
39.2317
44.7056
57.5008
74.6264
83.8154
79.1906
31.6292
402.159
305.582
225.399
100.806
48.2652
29.6051
32.7776
33.5967
24.5666
24.7699
26.5115
29.9819
35.3549
43.61
58.2984
65.6829
56.0721
23.872
453.782
332.497
234.127
79.8428
32.9768
20.0477
32.0856
35.0493
21.6236
13.9373
10.5091
8.95445
8.15889
8.51647
10.3408
14.1855
11.8974
6.87592
494.274
359.244
247.372
62.5475
25.2653
19.1171
34.7073
29.5695
19.062
10.4104
7.15103
6.53732
6.81171
8.91423
9.38819
8.1558
5.94828
5.27933
498.071
352.146
237.551
56.6129
23.3521
12.0064
29.6023
32.1679
26.579
15.5868
9.4717
8.52967
10.7315
16.6584
16.6195
15.3163
10.3557
4.84865
485.314
356.58
240.166
53.9442
18.236
11.0702
7.98202
11.0061
15.9293
12.9119
10.7015
12.8991
17.2915
15.677
10.4266
7.48803
5.61981
4.84969
464.449
346.598
224.319
53.4202
23.6705
10.5556
6.55994
6.79687
7.74558
7.39785
7.18946
7.81616
8.56712
7.63097
6.50396
5.83967
5.69722
5.79877
430.123
323.627
203.698
53.8359
27.9675
12.6609
8.02834
8.27559
6.82659
5.22299
4.85838
4.54346
5.00997
5.562
5.59959
5.38175
5.41376
5.82652
386.966
296.642
193.351
57.0983
24.5472
10.8
4.84555
3.7875
4.28956
3.99559
4.0637
4.45691
4.88531
5.15577
5.08747
5.09815
5.32492
6.02021
355.764
286.06
191.924
53.1348
19.3185
7.98785
4.01579
3.71834
4.30401
5.27844
5.48952
5.00992
5.8818
6.54028
6.9432
7.46497
10.0502
15.0324
343
286.659
196.091
48.7204
17.3942
7.62517
4.12802
4.12857
4.69493
7.59721
9.28351