/*--------------------------------*- C++ -*----------------------------------*\
| =========                 |                                                 |
| \\      /  F ield         | OpenFOAM: The Open Source CFD Toolbox           |
|  \\    /   O peration     | Version:  2112                                  |
|   \\  /    A nd           | Website:  www.openfoam.com                      |
|    \\/     M anipulation  |                                                 |
\*---------------------------------------------------------------------------*/
FoamFile
{
    version     2.0;
    format      ascii;
    arch        "LSB;label=32;scalar=64";
    class       volScalarField;
    location    "0.15";
    object      nut;
}
// * * * * * * * * * * * * * * * * * * * * * * * * * * * * * * * * * * * * * //

dimensions      [0 2 -1 0 0 0 0];

internalField   nonuniform List<scalar> 
122250
(
0
0
0
0
0
0
0
0
0
0
0
0
0
0
0
0
0
0
0
0
0
0
0
0
0
0
0
0
0
0
0
0
0
0
0
0
0
0
0
0
0
0
0
0
0
0
0
0
0
0
0
0
0
0
0
0
0
0
0
0
0
0
3.43605e-12
5.55821e-11
9.277e-11
2.27906e-10
2.33405e-10
5.20129e-10
3.05352e-10
1.01824e-09
0
2.17602e-09
0
1.67072e-10
7.95022e-11
1.99172e-11
1.17173e-11
1.24926e-11
1.35257e-11
1.50792e-11
1.79557e-11
2.18956e-11
2.58569e-11
3.01059e-11
3.37673e-11
3.81158e-11
4.28334e-11
4.92742e-11
5.82763e-11
8.06129e-11
0
3.31321e-10
1.01685e-10
2.62773e-11
1.42813e-11
1.45482e-11
1.52126e-11
1.52566e-11
1.5103e-11
1.49491e-11
1.46784e-11
1.42144e-11
1.34601e-11
1.28477e-11
1.25883e-11
1.33213e-11
1.55776e-11
2.2684e-11
0
4.1523e-10
1.09436e-10
2.96107e-11
1.69582e-11
1.76951e-11
1.88147e-11
1.92046e-11
1.92449e-11
1.92995e-11
1.93648e-11
1.93425e-11
1.91276e-11
1.91901e-11
1.9902e-11
2.19997e-11
2.62939e-11
3.68192e-11
0
5.12172e-10
1.22896e-10
3.41082e-11
1.99843e-11
2.08105e-11
2.21344e-11
2.27731e-11
2.30087e-11
2.33334e-11
2.3816e-11
2.44302e-11
2.50784e-11
2.62164e-11
2.83544e-11
3.2419e-11
3.93387e-11
5.41431e-11
0
5.53714e-10
1.32278e-10
3.82979e-11
2.31422e-11
2.42121e-11
2.57877e-11
2.67145e-11
2.72202e-11
2.79051e-11
2.89138e-11
3.03127e-11
3.2102e-11
3.458e-11
3.84693e-11
4.48909e-11
5.48429e-11
7.43475e-11
0
6.43341e-10
1.4767e-10
4.32951e-11
2.65757e-11
2.79473e-11
2.9864e-11
3.11694e-11
3.20609e-11
3.3222e-11
3.48865e-11
3.72548e-11
4.03857e-11
4.4557e-11
5.05465e-11
5.96882e-11
7.30446e-11
9.76067e-11
0
7.86968e-10
1.74049e-10
5.1114e-11
3.14866e-11
3.2797e-11
3.49122e-11
3.66224e-11
3.80034e-11
3.97521e-11
4.22333e-11
4.57953e-11
5.05085e-11
5.67753e-11
6.53077e-11
7.75797e-11
9.47937e-11
1.24859e-10
0
7.60594e-10
1.67995e-10
4.99736e-11
3.09057e-11
3.21835e-11
3.43063e-11
3.62586e-11
3.79724e-11
4.00582e-11
4.30192e-11
4.71834e-11
5.2798e-11
6.02065e-11
6.99491e-11
8.33498e-11
1.01508e-10
1.31962e-10
3.28155e-09
1.00224e-09
2.03821e-10
6.06618e-11
3.86771e-11
4.06441e-11
4.34433e-11
4.62143e-11
4.87522e-11
5.1739e-11
5.58775e-11
6.16977e-11
6.95795e-11
7.99867e-11
9.34702e-11
1.11354e-10
1.34888e-10
1.72887e-10
2.12515e-08
1.74278e-09
2.71068e-10
7.66497e-11
4.83943e-11
5.04173e-11
5.37885e-11
5.75153e-11
6.11585e-11
6.53092e-11
7.08887e-11
7.85859e-11
8.90073e-11
1.02677e-10
1.20288e-10
1.43009e-10
1.72009e-10
2.17004e-10
0
2.34902e-09
4.27931e-10
1.1242e-10
6.29671e-11
6.2769e-11
6.64415e-11
7.13117e-11
7.65577e-11
8.23895e-11
8.97401e-11
9.95273e-11
1.12714e-10
1.30068e-10
1.52171e-10
1.80084e-10
2.14795e-10
2.66584e-10
0
0
5.00533e-10
1.54724e-10
7.969e-11
7.59727e-11
8.08093e-11
8.74744e-11
9.51301e-11
1.03426e-10
1.13184e-10
1.25607e-10
1.41844e-10
1.62815e-10
1.89238e-10
2.21716e-10
2.61494e-10
3.18901e-10
0
1.30509e-09
6.35678e-10
1.67651e-10
9.27926e-11
8.96857e-11
9.64811e-11
1.05622e-10
1.16441e-10
1.28154e-10
1.41355e-10
1.57105e-10
1.76381e-10
2.0061e-10
2.30274e-10
2.66213e-10
3.09238e-10
3.69856e-10
7.63771e-09
2.67597e-09
6.01677e-10
1.74059e-10
1.10079e-10
1.07956e-10
1.1587e-10
1.26704e-10
1.40465e-10
1.5582e-10
1.73084e-10
1.92919e-10
2.16102e-10
2.43379e-10
2.75461e-10
3.1314e-10
3.57162e-10
4.17834e-10
2.43321e-08
2.66211e-09
4.75269e-10
1.63269e-10
1.20147e-10
1.21865e-10
1.33088e-10
1.48454e-10
1.67009e-10
1.87567e-10
2.10382e-10
2.35823e-10
2.64311e-10
2.96248e-10
3.3192e-10
3.71617e-10
4.16287e-10
4.76021e-10
2.72582e-08
2.02056e-09
3.12629e-10
1.17168e-10
1.00145e-10
1.09656e-10
1.20968e-10
1.35694e-10
1.52005e-10
1.70546e-10
1.91266e-10
2.14984e-10
2.41192e-10
2.69986e-10
3.01577e-10
3.36063e-10
3.73971e-10
4.24377e-10
2.75846e-08
1.70817e-09
2.3269e-10
8.50539e-11
7.83669e-11
9.57875e-11
1.11402e-10
1.28539e-10
1.46491e-10
1.66497e-10
1.882e-10
2.12065e-10
2.37707e-10
2.64986e-10
2.94427e-10
3.26195e-10
3.60378e-10
4.07079e-10
2.55236e-08
1.54023e-09
1.96022e-10
6.22849e-11
5.57375e-11
7.67908e-11
9.83614e-11
1.17522e-10
1.36345e-10
1.55951e-10
1.771e-10
2.00618e-10
2.26191e-10
2.52648e-10
2.79909e-10
3.08526e-10
3.3931e-10
3.81869e-10
2.03205e-08
1.32472e-09
1.71728e-10
4.78075e-11
3.8717e-11
5.87678e-11
8.33729e-11
1.05969e-10
1.27068e-10
1.47666e-10
1.68151e-10
1.88855e-10
2.1111e-10
2.35137e-10
2.60479e-10
2.87053e-10
3.1541e-10
3.54908e-10
1.35214e-08
1.01215e-09
1.44355e-10
3.87849e-11
2.73283e-11
4.41117e-11
6.89763e-11
9.15018e-11
1.11491e-10
1.31286e-10
1.5339e-10
1.76469e-10
1.99943e-10
2.24126e-10
2.49094e-10
2.74597e-10
3.0101e-10
3.37562e-10
1.03356e-08
6.25079e-10
1.04839e-10
3.15517e-11
2.03341e-11
3.33309e-11
5.68548e-11
8.02595e-11
1.01711e-10
1.21781e-10
1.42402e-10
1.64198e-10
1.87467e-10
2.12113e-10
2.37801e-10
2.63209e-10
2.88724e-10
3.23201e-10
1.4337e-08
1.71056e-10
4.57191e-11
2.35731e-11
1.55006e-11
2.32509e-11
4.07839e-11
6.23903e-11
8.42456e-11
1.06496e-10
1.29013e-10
1.51827e-10
1.75499e-10
2.00123e-10
2.2463e-10
2.4879e-10
2.72202e-10
3.03146e-10
1.58803e-08
0
0
0
4.66905e-11
3.47464e-10
4.3355e-11
7.75214e-11
9.67281e-11
1.06204e-10
1.14808e-10
1.26954e-10
1.48287e-10
1.7956e-10
2.22226e-10
2.71053e-10
3.26047e-10
3.77778e-10
5.03386e-08
0
0
0
0
0
0
0
0
0
0
0
0
0
0
0
0
0
5.46704e-08
0
0
0
0
0
0
0
0
0
0
0
0
0
0
0
0
0
4.98614e-08
0
0
0
0
0
0
0
0
0
0
0
0
0
0
0
0
0
8.82092e-09
0
0
0
0
0
0
0
0
0
0
0
0
0
0
0
0
0
1.20997e-08
0
0
0
0
0
0
0
0
0
0
0
0
0
0
0
0
0
9.33827e-09
0
0
0
0
0
0
0
0
0
0
0
0
0
0
0
0
0
0
0
0
0
0
0
0
0
0
0
0
0
0
0
0
0
0
0
0
8.32049e-10
1.84561e-10
1.75077e-10
1.70659e-10
4.5677e-11
1.57182e-10
2.97119e-11
3.47362e-11
4.17895e-11
4.79676e-11
5.21197e-11
5.60861e-11
5.72975e-11
7.49839e-11
8.9337e-11
1.7871e-10
3.63069e-10
0
8.56674e-10
1.83018e-10
4.45437e-11
1.36275e-10
3.50227e-11
1.10223e-11
2.22329e-11
2.76265e-10
3.01126e-10
3.13519e-11
1.49105e-11
1.07387e-11
1.07998e-11
1.23816e-11
1.5857e-11
2.17662e-11
3.7793e-11
0
9.62106e-10
1.95571e-10
4.76074e-11
1.41063e-11
2.28424e-11
3.4926e-10
3.65481e-10
3.90601e-10
4.31202e-10
4.91925e-10
5.76551e-10
4.43976e-11
2.22972e-11
1.84057e-11
2.14603e-11
2.94245e-11
4.58603e-11
0
1.12578e-09
2.25442e-10
5.50249e-11
1.46621e-11
3.9563e-10
4.13001e-10
4.3685e-10
4.68991e-10
5.19632e-10
5.94623e-10
7.01601e-10
5.69888e-11
2.8882e-11
2.34371e-11
2.72626e-11
3.69867e-11
5.62958e-11
0
1.1085e-09
2.37393e-10
2.03161e-10
5.34678e-11
4.53386e-10
4.8222e-10
5.14636e-10
5.54755e-10
6.15634e-10
7.04647e-10
8.34374e-10
1.02044e-09
7.52421e-11
4.20834e-11
3.68408e-11
4.50007e-11
6.3816e-11
0
1.21397e-09
2.58457e-10
2.29469e-10
4.78755e-10
5.14931e-10
5.58065e-10
6.00829e-10
6.50873e-10
7.23121e-10
8.26922e-10
9.79823e-10
1.20199e-09
9.54993e-11
5.27118e-11
4.37034e-11
5.15416e-11
6.99772e-11
0
1.48158e-09
3.10894e-10
8.47976e-11
5.49852e-10
5.93894e-10
6.47049e-10
7.00001e-10
7.619e-10
8.46645e-10
9.66693e-10
1.14626e-09
8.40385e-11
4.80388e-11
3.79394e-11
4.29868e-11
5.44865e-11
7.59916e-11
0
1.39556e-09
3.11033e-10
8.72463e-11
5.58277e-10
6.07738e-10
6.69434e-10
7.29744e-10
7.99983e-10
8.89799e-10
1.01762e-09
7.53204e-11
4.16058e-11
3.23607e-11
3.58315e-11
4.3768e-11
5.67232e-11
7.70411e-11
0
1.60195e-09
3.57209e-10
9.98917e-11
6.88816e-10
7.49588e-10
8.28129e-10
9.06103e-10
9.97346e-10
1.11e-09
8.03046e-11
4.32165e-11
3.39526e-11
3.54304e-11
4.0976e-11
5.08374e-11
6.46179e-11
8.44281e-11
1.39877e-08
2.10351e-09
4.32222e-10
1.17853e-10
8.67387e-10
9.28265e-10
1.02689e-09
1.13936e-09
1.25997e-09
1.40238e-09
1.59503e-09
1.84713e-09
2.21209e-09
1.56936e-10
8.732e-11
6.84699e-11
7.6242e-11
9.2607e-11
0
3.84039e-09
6.72937e-10
1.71512e-10
1.16647e-09
1.17789e-09
1.29565e-09
5.7729e-10
6.3164e-10
6.93571e-10
7.73099e-10
1.99817e-10
7.8045e-11
5.70868e-11
6.15182e-11
6.95903e-11
8.35726e-11
1.01328e-10
0
7.45857e-10
1.06439e-09
2.70187e-09
1.75907e-09
1.53572e-09
7.5973e-11
7.09658e-10
7.80945e-10
8.61134e-10
9.59226e-10
1.0846e-09
1.24633e-09
1.45585e-09
1.72644e-09
4.55028e-10
1.79946e-10
1.41412e-10
0
6.04894e-09
1.03107e-09
2.22995e-10
8.4774e-10
1.89865e-10
7.79714e-10
8.64942e-10
9.57273e-10
1.0618e-09
1.18529e-09
1.33559e-09
3.41303e-10
1.32291e-10
9.82772e-11
9.44203e-11
1.03533e-10
1.18653e-10
2.71331e-08
5.71772e-09
9.292e-10
2.27295e-10
8.95567e-11
4.75912e-11
4.26888e-11
4.56253e-11
4.99412e-11
5.51331e-11
6.09324e-11
6.85102e-11
7.16324e-11
7.86991e-11
8.89832e-11
1.00622e-10
1.1217e-10
1.27318e-10
4.24983e-08
4.48047e-09
7.26632e-10
2.03618e-10
9.10761e-11
5.37844e-11
4.35088e-11
4.6124e-11
5.12036e-11
5.79337e-11
6.43357e-11
7.26093e-11
8.15471e-11
9.15484e-11
1.02628e-10
1.13269e-10
1.27623e-10
1.39979e-10
4.10575e-08
3.30476e-09
5.37261e-10
1.78345e-10
4.06198e-09
3.34402e-09
2.79275e-09
2.91903e-09
3.35929e-09
3.864e-09
2.25152e-10
1.85411e-09
2.1063e-09
2.3761e-09
2.66637e-09
2.96831e-09
3.26668e-09
9.33328e-10
3.7523e-08
2.69576e-09
4.18299e-10
1.38426e-10
3.67011e-09
3.60879e-09
2.94425e-09
2.79311e-09
3.17862e-09
3.76009e-09
4.35539e-09
4.9876e-09
5.62288e-09
6.27334e-09
6.92932e-09
7.55237e-09
5.77893e-10
3.03348e-10
3.47681e-08
2.35374e-09
3.49232e-10
1.06742e-10
2.90129e-09
3.44802e-09
3.10717e-09
2.76463e-09
3.02889e-09
3.65777e-09
4.33251e-09
4.97656e-09
5.61743e-09
6.26567e-09
6.8948e-09
7.4738e-09
8.02162e-09
8.6e-09
3.02449e-08
1.98445e-09
2.8945e-10
1.13052e-09
2.16096e-09
3.05187e-09
3.20152e-09
2.79999e-09
2.87635e-09
3.47746e-09
4.22468e-09
4.90292e-09
5.53189e-09
6.15761e-09
6.77376e-09
7.34444e-09
7.86991e-09
8.4354e-09
2.42924e-08
1.5549e-09
2.28522e-10
7.88499e-10
1.47158e-09
2.5193e-09
3.10172e-09
3.00331e-09
3.00292e-09
3.5405e-09
4.29951e-09
5.05258e-09
5.73863e-09
6.37988e-09
6.97663e-09
7.50166e-09
7.98278e-09
8.50343e-09
2.42659e-08
1.08473e-09
1.56909e-10
6.12492e-10
9.68754e-10
1.91248e-09
2.70326e-09
2.96978e-09
3.0419e-09
3.5077e-09
4.22297e-09
4.98655e-09
5.71403e-09
6.38353e-09
6.97516e-09
5.59353e-10
2.88373e-10
1.91665e-10
3.64407e-08
5.86086e-10
7.47525e-11
1.75157e-10
7.14799e-10
1.29178e-09
2.16937e-09
2.78724e-09
3.22351e-09
3.76473e-09
4.50058e-09
5.25566e-09
5.9089e-09
6.47137e-09
5.7231e-10
2.965e-10
2.05004e-10
1.88953e-10
4.80612e-08
0
0
0
0
0
0
0
0
0
0
0
0
0
0
0
0
0
1.1968e-07
0
0
0
0
0
0
0
0
0
0
0
0
0
0
0
0
0
1.08978e-07
0
0
0
0
0
0
0
0
0
0
0
0
0
0
0
0
0
9.24424e-08
0
0
0
0
0
0
0
0
0
0
0
0
0
0
0
0
0
1.55469e-08
0
0
0
0
0
0
0
0
0
0
0
0
0
0
0
0
0
1.81403e-08
0
0
0
0
0
0
0
0
0
0
0
0
0
0
0
0
0
1.58029e-08
0
0
0
0
0
0
0
0
0
0
0
0
0
0
0
0
0
0
0
0
0
0
0
0
0
0
0
0
0
0
0
0
0
3.2683e-10
0
0
3.06064e-09
2.08978e-08
2.00539e-08
1.35827e-08
8.90256e-09
6.39289e-09
1.97619e-09
2.44534e-09
8.54067e-10
1.00092e-09
1.45249e-09
2.21995e-09
3.45352e-09
5.72373e-09
9.35147e-09
1.62151e-08
3.04811e-08
1.98613e-09
5.22463e-09
3.06191e-08
3.45062e-08
2.95689e-08
3.13327e-09
2.98949e-09
2.98727e-09
3.11145e-09
3.35572e-09
7.82365e-10
6.5268e-10
6.76421e-10
7.75416e-10
1.16164e-09
2.40894e-09
5.84014e-09
1.31629e-08
4.15229e-09
5.25547e-09
3.33107e-08
3.9686e-08
3.60986e-09
3.67996e-09
3.76434e-09
3.94132e-09
4.20392e-09
4.59705e-09
5.14079e-09
5.83735e-09
1.41e-09
1.24978e-09
1.70636e-09
2.99929e-09
6.19181e-09
1.26096e-08
4.69714e-09
5.83604e-09
3.88181e-08
4.57704e-08
3.87766e-09
4.05455e-09
4.24353e-09
4.49403e-09
4.82079e-09
5.30564e-09
5.97852e-09
6.87311e-09
8.10951e-09
2.12839e-09
2.0017e-09
2.9912e-09
5.34478e-09
9.88826e-09
3.08368e-09
5.10421e-09
3.85635e-08
4.90897e-08
4.1185e-09
4.4283e-09
4.73163e-09
5.05902e-09
5.45511e-09
6.02717e-09
6.81793e-09
7.90862e-09
9.42398e-09
2.46686e-09
2.24519e-09
3.07088e-09
4.84883e-09
8.09705e-09
4.37164e-09
5.18251e-09
3.97701e-08
5.16668e-08
4.3473e-09
4.80329e-09
5.24464e-09
5.66254e-09
6.14195e-09
6.80822e-09
7.72173e-09
9.00854e-09
1.08206e-08
1.33805e-08
3.78651e-09
3.40508e-09
4.69225e-09
7.16857e-09
5.76936e-09
6.39679e-09
4.78344e-08
6.14325e-09
4.83994e-09
5.30207e-09
5.82577e-09
6.32663e-09
6.90279e-09
7.67009e-09
8.71649e-09
1.02235e-08
5.36159e-08
2.47726e-09
2.89839e-09
3.59264e-09
4.82448e-09
6.85304e-09
2.28245e-09
6.0009e-09
4.87832e-08
6.86106e-09
5.20859e-09
5.73429e-09
6.36397e-09
6.95819e-09
7.64182e-09
8.50117e-09
9.68521e-09
5.90373e-08
2.15891e-09
2.70244e-09
3.22741e-09
4.01655e-09
5.17457e-09
7.00229e-09
1.76163e-09
6.01195e-09
1.04083e-08
7.50303e-09
5.70779e-09
6.29495e-09
7.029e-09
7.72896e-09
8.53797e-09
9.52732e-09
6.74096e-08
1.93628e-09
2.55348e-09
2.99403e-09
3.59359e-09
4.38586e-09
5.48085e-09
7.00572e-09
0
6.18642e-09
1.15199e-08
8.61764e-09
6.47329e-09
7.04918e-09
7.8996e-09
8.74207e-09
9.72034e-09
1.08778e-08
1.24155e-08
1.44908e-08
1.73251e-08
4.56453e-09
4.09001e-09
4.86509e-09
5.93743e-09
7.36459e-09
0
7.48324e-09
1.48943e-08
1.11405e-08
7.82551e-09
8.11738e-09
9.04895e-09
8.07493e-08
8.65726e-08
9.21467e-08
9.85164e-08
1.68097e-08
4.36552e-09
3.92219e-09
4.57383e-09
5.42776e-09
6.48941e-09
7.74376e-09
0
2.66355e-08
2.73866e-08
1.76323e-08
1.1119e-08
9.89096e-09
8.78735e-08
9.68089e-08
1.04736e-07
1.12353e-07
1.2052e-07
1.29687e-07
1.3945e-07
1.49927e-07
1.61136e-07
1.73635e-07
1.87339e-07
2.02093e-07
6.74461e-08
3.67278e-08
9.64182e-08
8.42989e-08
8.34513e-08
9.33203e-08
1.0359e-07
1.15386e-07
1.25585e-07
1.35114e-07
1.4494e-07
1.55335e-07
2.14771e-09
5.02117e-09
5.72859e-09
6.56422e-09
7.49711e-09
8.49261e-09
1.01801e-07
2.92606e-08
4.8469e-09
3.15598e-09
2.60389e-09
2.38207e-09
2.52856e-09
2.83402e-09
3.18069e-09
3.5513e-09
3.97434e-09
4.45761e-09
5.00937e-09
5.62776e-09
6.32849e-09
7.11226e-09
7.90159e-09
8.72454e-09
1.07246e-07
1.74847e-08
3.62547e-09
3.01973e-09
2.82612e-09
2.59064e-09
2.66803e-09
3.0092e-09
3.45901e-09
3.9124e-09
4.39088e-09
4.93121e-09
5.52612e-09
6.18201e-09
6.89484e-09
7.63931e-09
8.33607e-09
9.08496e-09
8.34173e-08
1.14891e-08
1.3644e-08
2.02475e-08
2.17055e-08
1.88012e-08
1.63167e-08
1.73615e-08
2.03161e-08
2.37356e-08
1.92524e-07
2.05921e-07
2.18951e-07
2.3192e-07
2.44802e-07
2.55724e-07
2.63699e-07
5.60456e-09
6.01584e-08
8.88703e-09
1.01694e-08
1.60701e-08
2.03737e-08
2.0648e-08
1.76917e-08
1.72032e-08
1.99029e-08
2.391e-08
2.8078e-08
3.24536e-08
3.70456e-08
4.18365e-08
4.67891e-08
5.16945e-08
1.3284e-08
9.80612e-09
5.83165e-08
7.55592e-09
8.44416e-09
1.1942e-08
1.73109e-08
2.02198e-08
1.90404e-08
1.7649e-08
1.98437e-08
2.4429e-08
2.92849e-08
3.39222e-08
3.86524e-08
4.36203e-08
4.859e-08
5.33796e-08
5.82004e-08
6.34336e-08
7.12224e-08
6.48642e-09
3.72877e-08
8.55607e-09
1.44385e-08
1.9138e-08
2.03048e-08
1.84609e-08
1.94672e-08
2.40493e-08
2.98193e-08
3.51503e-08
4.00648e-08
4.50192e-08
5.00174e-08
5.4863e-08
5.96438e-08
6.49468e-08
8.99837e-08
5.69382e-09
2.68963e-08
6.13349e-09
1.09375e-08
1.7309e-08
2.10608e-08
2.11421e-08
2.18197e-08
2.60862e-08
3.19109e-08
3.78216e-08
4.33534e-08
4.86383e-08
5.37014e-08
5.8404e-08
6.30678e-08
6.82873e-08
1.2365e-07
5.24236e-09
1.64784e-08
4.74865e-09
7.9536e-09
1.43484e-08
1.92455e-08
2.13731e-08
2.25545e-08
2.67552e-08
3.29711e-08
3.95623e-08
4.58374e-08
5.1648e-08
5.6874e-08
1.46759e-08
1.037e-08
1.07653e-08
1.88716e-07
5.07107e-09
5.36541e-09
1.98046e-08
6.42186e-09
1.12687e-08
1.78759e-08
2.24363e-08
2.5847e-08
3.04421e-08
3.70188e-08
4.39665e-08
5.00754e-08
5.54011e-08
1.4717e-08
9.54511e-09
9.70445e-09
1.02402e-08
0
0
0
0
0
0
0
0
0
0
0
0
0
0
0
0
0
0
1.16864e-07
0
0
0
0
0
0
0
0
0
0
0
0
0
0
0
0
0
1.08354e-07
0
0
0
0
0
0
0
0
0
0
0
0
0
0
0
0
0
9.53427e-08
0
0
0
0
0
0
0
0
0
0
0
0
0
0
0
0
0
1.57853e-08
0
0
0
0
0
0
0
0
0
0
0
0
0
0
0
0
0
1.80767e-08
0
0
0
0
0
0
0
0
0
0
0
0
0
0
0
0
0
1.53285e-08
0
0
0
0
0
0
0
0
0
0
0
0
0
0
0
0
0
0
0
0
0
0
0
0
0
0
0
0
0
0
0
0
4.37401e-09
2.59956e-08
3.75593e-08
0
0
0
2.17665e-06
1.01441e-06
5.5957e-07
2.82025e-07
1.23143e-07
7.908e-08
6.34618e-08
6.00088e-08
6.2912e-08
7.85918e-08
1.05107e-07
1.6864e-07
2.56389e-07
4.17629e-07
5.72857e-07
0
2.9464e-07
0
5.0964e-07
1.10326e-06
8.2436e-07
5.76762e-07
3.04333e-07
0
0
0
0
0
6.35012e-08
9.07488e-07
1.91532e-06
2.90667e-06
3.66497e-06
0
0
0
2.83915e-07
8.56973e-07
7.58726e-07
6.05091e-07
3.58982e-07
0
0
0
0
0
1.91581e-09
1.06542e-06
2.27608e-06
3.51161e-06
4.53325e-06
0
0
0
1.61643e-07
6.61491e-07
6.26919e-07
5.00778e-07
2.59498e-07
0
0
0
0
0
0
5.96325e-07
1.71393e-06
2.87075e-06
3.94619e-06
0
0
0
7.15853e-08
5.21164e-07
5.08006e-07
3.87728e-07
1.37762e-07
0
0
0
0
0
0
0
9.96194e-07
2.07186e-06
3.1295e-06
0
0
0
2.16065e-08
4.1387e-07
4.04798e-07
2.83751e-07
2.49049e-08
0
0
0
0
0
0
0
2.40082e-07
1.28235e-06
2.35086e-06
0
0
0
9.61528e-08
3.54276e-07
3.27298e-07
2.02639e-07
0
0
0
0
0
0
0
0
0
4.65205e-07
1.59396e-06
0
0
0
1.90418e-08
2.62795e-07
2.22189e-07
4.06067e-08
0
0
0
0
0
0
0
0
0
0
8.834e-07
0
0
9.72493e-09
1.65912e-07
2.2985e-07
1.84889e-07
4.25526e-08
0
0
0
0
0
0
0
0
0
0
0
0
0
4.506e-07
1.77129e-07
1.80431e-07
1.59182e-07
4.80957e-08
0
0
0
0
0
0
0
0
0
0
0
0
0
1.03666e-07
0
0
9.93034e-08
4.99621e-08
0
0
0
0
0
0
0
0
0
0
0
0
0
0
0
0
0
4.88259e-08
0
0
0
0
0
0
0
0
0
0
0
5.90424e-07
1.03825e-06
4.85798e-07
0
0
0
1.07996e-07
3.99231e-08
0
0
0
0
0
0
0
0
0
0
1.09578e-06
1.45708e-06
3.9474e-07
0
0
4.60277e-09
1.92002e-07
1.75984e-07
7.38987e-08
0
0
0
0
0
0
0
0
0
7.47821e-07
8.1506e-07
5.98605e-07
0
0
0
2.06166e-07
2.79087e-07
2.57264e-07
1.60598e-07
0
0
0
0
0
0
0
0
0
3.25111e-07
6.86102e-07
0
0
0
0
1.20492e-07
1.63343e-07
5.97083e-08
0
0
0
0
0
0
0
0
0
5.77129e-08
6.60318e-07
0
0
0
0
0
5.67418e-08
0
0
0
0
0
0
0
0
0
1.4783e-07
0
4.9681e-07
0
0
0
0
0
0
0
0
0
0
0
0
0
0
0
3.0906e-06
8.1962e-08
1.71635e-07
0
0
0
0
0
0
0
0
0
0
0
0
0
0
0
6.80363e-06
7.39556e-07
0
0
0
0
0
0
0
0
0
0
0
0
0
0
0
0
8.58579e-06
2.13691e-06
0
0
0
0
0
0
0
0
0
0
0
0
0
0
0
0
7.29778e-06
3.45353e-06
0
0
0
0
0
0
0
0
0
0
0
0
0
0
0
0
0
0
0
0
0
0
0
0
0
0
0
0
0
0
0
0
0
0
1.02962e-07
0
0
0
0
0
0
0
0
0
0
0
0
0
0
0
0
0
9.59331e-08
0
0
0
0
0
0
0
0
0
0
0
0
0
0
0
0
0
8.47037e-08
0
0
0
0
0
0
0
0
0
0
0
0
0
0
0
0
0
1.49959e-08
0
0
0
0
0
0
0
0
0
0
0
0
0
0
0
0
0
1.71631e-08
0
0
0
0
0
0
0
0
0
0
0
0
0
0
0
0
0
1.42332e-08
0
0
0
0
0
0
0
0
0
0
0
0
0
0
0
0
0
0
0
0
0
0
0
0
0
0
0
0
0
0
0
0
0
0
2.90731e-08
0
0
0
3.07763e-06
1.36121e-06
1.0916e-06
2.83718e-07
8.63382e-08
5.38212e-08
3.207e-08
3.3765e-08
1.81523e-08
3.50855e-08
2.34082e-08
7.31241e-08
8.96172e-08
2.3538e-07
3.38204e-07
0
0
0
0
8.87393e-06
5.3334e-06
1.42346e-06
0
0
0
0
0
0
0
0
0
0
0
0
0
0
0
8.9978e-06
4.99672e-06
1.07381e-06
0
0
0
0
0
0
0
0
0
0
0
0
0
0
0
6.43034e-06
3.40741e-06
0
0
0
0
0
0
0
0
0
0
0
0
0
0
0
0
2.52039e-06
1.3259e-06
0
0
0
0
0
0
0
0
0
0
0
0
0
0
0
0
0
0
0
0
0
0
0
0
0
0
0
0
0
0
0
0
0
0
0
0
0
0
0
0
0
0
0
0
0
0
0
0
0
0
0
0
0
0
0
0
0
0
0
0
0
0
0
0
0
0
0
0
0
0
0
0
0
0
0
0
0
0
0
0
0
0
0
0
0
0
0
0
0
0
0
0
0
0
0
0
0
0
0
0
0
0
0
0
0
0
0
0
0
0
0
0
0
0
0
0
0
0
0
0
0
0
0
0
0
0
0
0
0
0
0
0
0
0
0
0
0
0
6.64427e-07
1.30358e-06
0
0
0
0
0
0
0
0
0
0
0
0
0
0
0
0
1.77894e-06
2.47919e-06
0
0
0
0
0
0
0
0
0
0
0
0
0
0
0
0
1.20096e-06
2.76058e-06
0
0
0
0
0
0
0
0
0
0
0
0
0
0
0
0
0
1.06824e-06
0
0
0
0
0
0
0
0
0
0
0
0
0
0
0
0
0
0
0
0
0
0
0
0
0
0
0
0
0
0
0
0
0
0
4.37235e-06
0
2.15174e-08
0
0
0
0
0
0
0
0
0
0
0
0
0
0
0
2.29838e-05
0
0
0
0
0
0
0
0
0
0
0
0
0
0
0
0
0
1.7913e-05
9.29479e-06
0
0
0
0
0
0
0
0
0
0
0
0
0
0
0
0
1.25167e-05
1.11172e-05
0
0
0
0
0
0
0
0
0
0
0
0
0
0
0
0
7.73147e-06
8.01772e-06
0
0
0
0
0
0
0
0
0
0
0
0
0
0
0
0
0
0
0
0
0
0
0
0
0
0
0
0
0
0
0
0
0
0
8.68311e-08
0
0
0
0
0
0
0
0
0
0
0
0
0
0
0
0
0
8.11602e-08
0
0
0
0
0
0
0
0
0
0
0
0
0
0
0
0
0
7.15527e-08
0
0
0
0
0
0
0
0
0
0
0
0
0
0
0
0
0
1.48885e-08
0
0
0
0
0
0
0
0
0
0
0
0
0
0
0
0
0
1.70466e-08
0
0
0
0
0
0
0
0
0
0
0
0
0
0
0
0
0
1.41115e-08
0
0
0
0
0
0
0
0
0
0
0
0
0
0
0
0
0
0
0
0
0
0
0
0
0
0
0
0
0
0
0
0
0
0
5.77727e-09
0
0
0
2.78157e-06
1.1557e-06
9.10003e-07
2.53312e-07
7.78525e-08
4.38852e-08
2.05416e-08
1.90159e-08
4.40284e-09
1.28052e-08
0
1.69727e-08
4.92157e-10
3.29378e-08
2.81785e-08
0
0
0
0
2.77564e-06
1.41569e-06
0
0
0
0
0
0
0
0
0
0
0
0
0
0
0
0
9.88971e-07
0
0
0
0
0
0
0
0
0
0
0
0
0
0
0
0
0
0
0
0
0
0
0
0
0
0
0
0
0
0
0
0
0
0
0
0
0
0
0
0
0
0
0
0
0
0
0
0
0
0
0
0
0
0
0
0
0
0
0
0
0
0
0
0
0
0
0
0
0
0
0
0
0
0
0
0
0
0
0
0
0
0
0
0
0
0
0
0
0
0
0
0
0
0
0
0
0
0
0
0
0
0
0
0
0
0
0
0
0
0
0
0
0
0
0
0
0
0
0
0
0
0
0
0
0
0
0
0
0
0
0
0
0
0
0
0
0
0
0
0
0
0
0
0
0
0
0
0
0
0
0
0
0
0
0
0
0
0
0
0
0
0
0
0
0
0
0
0
0
0
0
0
0
0
0
5.57883e-07
1.33957e-06
0
0
0
0
0
0
0
0
0
0
0
0
0
0
0
0
1.43161e-06
2.27442e-06
0
0
0
0
0
0
0
0
0
0
0
0
0
0
0
0
9.016e-07
2.51383e-06
0
0
0
0
0
0
0
0
0
0
0
0
0
0
0
0
0
1.19218e-06
0
0
0
0
0
0
0
0
0
0
0
0
0
0
0
0
0
0
0
0
0
0
0
0
0
0
0
0
0
0
0
0
0
0
9.71663e-06
0
0
0
0
0
0
0
0
0
0
0
0
0
0
0
0
0
2.43316e-05
2.70863e-06
0
0
0
0
0
0
0
0
0
0
0
0
0
0
0
0
1.77303e-05
1.16288e-05
0
0
0
0
0
0
0
0
0
0
0
0
0
0
0
0
1.23396e-05
1.05788e-05
0
0
0
0
0
0
0
0
0
0
0
0
0
0
0
0
7.77058e-06
6.84485e-06
0
0
0
0
0
0
0
0
0
0
0
0
0
0
0
0
0
0
0
0
0
0
0
0
0
0
0
0
0
0
0
0
0
0
7.16894e-08
0
0
0
0
0
0
0
0
0
0
0
0
0
0
0
0
0
6.68598e-08
0
0
0
0
0
0
0
0
0
0
0
0
0
0
0
0
0
5.86194e-08
0
0
0
0
0
0
0
0
0
0
0
0
0
0
0
0
0
1.56771e-08
0
0
0
0
0
0
0
0
0
0
0
0
0
0
0
0
0
1.79026e-08
0
0
0
0
0
0
0
0
0
0
0
0
0
0
0
0
0
1.50849e-08
0
0
0
0
0
0
0
0
0
0
0
0
0
0
0
0
0
0
0
0
0
0
0
0
0
0
0
0
0
0
0
0
0
0
2.06031e-09
0
0
0
2.78391e-06
1.49206e-06
9.38276e-07
5.93998e-07
2.92494e-07
1.68502e-07
1.07427e-07
8.75381e-08
6.58725e-08
7.39166e-08
6.29627e-08
9.18146e-08
8.20004e-08
1.26926e-07
1.18862e-07
0
0
0
2.61346e-07
1.50259e-06
1.34667e-06
1.07837e-06
6.73931e-07
1.59107e-07
0
0
0
0
0
0
0
0
0
0
0
0
2.67074e-08
1.20206e-06
1.1274e-06
9.65942e-07
6.9107e-07
2.88374e-07
0
0
0
0
0
0
0
0
0
0
0
0
0
9.10411e-07
8.55739e-07
7.40068e-07
5.50829e-07
2.5543e-07
0
0
0
0
0
0
0
0
0
0
0
0
0
7.18808e-07
6.53183e-07
5.53386e-07
4.11327e-07
1.91748e-07
0
0
0
0
0
0
0
0
0
0
0
0
0
5.92326e-07
5.15417e-07
4.14484e-07
2.96504e-07
1.30013e-07
0
0
0
0
0
0
0
0
0
0
0
0
0
5.12386e-07
4.35146e-07
3.29114e-07
2.22677e-07
9.13693e-08
0
0
0
0
0
0
0
0
0
0
0
0
0
4.0327e-07
2.87423e-07
1.30014e-07
0
0
0
0
0
0
0
0
0
0
0
0
0
0
0
4.23911e-07
3.41973e-07
2.06176e-07
9.00325e-08
0
0
0
0
0
0
0
0
0
0
0
0
0
0
4.0759e-07
3.76663e-07
2.63082e-07
1.62758e-07
7.15841e-08
0
0
0
0
0
0
0
0
0
0
0
0
0
3.53337e-07
4.06522e-07
3.22483e-07
2.38304e-07
1.61958e-07
9.12791e-08
1.22077e-08
0
0
0
0
0
0
0
0
0
0
0
4.83623e-08
4.32786e-07
3.98408e-07
3.32433e-07
2.67048e-07
2.09085e-07
1.50906e-07
7.79144e-08
0
0
0
0
0
0
3.03304e-07
8.37235e-07
0
0
1.47659e-07
5.73734e-07
5.40347e-07
4.63709e-07
3.96282e-07
3.42507e-07
2.9671e-07
2.48869e-07
1.8674e-07
1.01012e-07
1.41909e-08
0
3.31476e-08
2.51361e-07
6.17692e-07
1.02855e-06
0
0
1.31032e-07
6.88814e-07
6.93117e-07
6.03677e-07
5.33124e-07
4.7999e-07
4.4054e-07
4.12838e-07
3.86029e-07
3.50808e-07
3.26743e-07
3.49502e-07
4.81733e-07
7.49473e-07
5.38602e-08
6.26781e-07
0
0
7.50367e-08
6.76546e-07
8.15783e-07
7.30524e-07
6.60515e-07
6.0723e-07
5.69527e-07
5.48918e-07
5.47302e-07
5.58322e-07
5.95864e-07
6.8527e-07
8.76563e-07
1.17975e-06
0
1.85026e-07
0
0
0
3.49744e-07
8.24846e-07
8.15502e-07
6.82566e-07
5.8666e-07
5.25746e-07
5.01605e-07
5.1706e-07
5.69062e-07
6.68739e-07
8.41614e-07
1.1283e-06
1.52422e-06
0
9.35977e-10
0
0
0
0
3.76946e-07
7.64102e-07
6.93085e-07
5.25206e-07
3.98369e-07
3.4371e-07
3.67675e-07
4.59968e-07
6.18733e-07
8.55992e-07
1.19875e-06
1.63606e-06
7.22918e-07
8.75871e-08
0
0
0
0
0
2.38603e-07
6.04501e-07
5.00918e-07
3.45092e-07
2.54235e-07
2.58965e-07
3.56114e-07
5.53921e-07
8.46921e-07
1.24222e-06
1.71342e-06
2.79515e-06
8.27743e-07
1.18132e-07
0
0
0
0
0
0
0
0
0
0
8.01111e-09
1.55519e-07
4.08001e-07
7.79592e-07
1.24724e-06
4.08694e-06
2.53906e-06
1.36134e-07
0
0
0
0
0
0
0
0
0
0
6.94783e-08
2.85445e-07
5.64171e-07
9.19812e-07
1.34965e-06
4.53497e-06
4.04864e-06
2.34293e-07
0
0
0
0
0
0
0
0
0
0
0
0
0
0
8.13499e-08
3.85069e-06
3.80849e-06
0
1.14559e-07
0
0
0
0
0
0
0
0
0
0
0
0
0
0
0
0
0
0
0
0
0
0
0
0
0
0
0
0
0
0
0
0
5.66369e-08
0
0
0
0
0
0
0
0
0
0
0
0
0
0
0
0
0
5.25468e-08
0
0
0
0
0
0
0
0
0
0
0
0
0
0
0
0
0
4.56505e-08
0
0
0
0
0
0
0
0
0
0
0
0
0
0
0
0
0
1.67117e-08
0
0
0
0
0
0
0
0
0
0
0
0
0
0
0
0
0
1.91909e-08
0
0
0
0
0
0
0
0
0
0
0
0
0
0
0
0
0
1.67216e-08
0
0
0
0
0
0
0
0
0
0
0
0
0
0
0
0
0
0
0
0
0
0
0
0
0
0
0
0
0
0
0
0
0
0
0
0
5.21256e-09
3.722e-08
4.15641e-08
3.28787e-08
2.85397e-08
2.81671e-08
3.6249e-09
3.1411e-09
3.45312e-09
4.15409e-09
5.21176e-09
6.44451e-09
8.11322e-09
1.03901e-08
1.29674e-08
1.7144e-08
2.27974e-08
0
9.50166e-09
5.64757e-08
7.16572e-08
7.02859e-08
6.83202e-08
2.02193e-08
2.61891e-08
3.2673e-08
8.56989e-09
5.80101e-09
5.66536e-09
5.75219e-09
5.80814e-09
5.6565e-09
5.25628e-09
4.58993e-09
3.66914e-09
1.08364e-08
9.23219e-09
5.58257e-08
8.04213e-08
7.91308e-08
1.49021e-08
2.05464e-08
2.69305e-08
3.30808e-08
9.667e-09
6.30316e-09
6.24035e-09
6.47028e-09
6.66153e-09
6.66451e-09
6.43882e-09
6.01075e-09
5.30734e-09
2.19052e-08
9.46253e-09
5.46564e-08
8.28317e-08
8.2363e-08
1.44581e-08
2.00193e-08
2.62906e-08
3.25104e-08
9.31862e-09
6.20976e-09
6.21785e-09
6.51169e-09
6.78133e-09
6.90071e-09
6.84969e-09
6.62886e-09
6.21299e-09
3.02622e-08
9.72389e-09
5.46705e-08
8.43393e-08
8.53986e-08
1.40766e-08
1.95687e-08
2.57503e-08
3.20072e-08
7.17197e-08
6.77635e-08
1.1106e-08
7.85348e-09
7.2812e-09
7.09841e-09
7.11623e-09
7.05874e-09
6.83737e-09
3.72874e-08
9.36584e-09
5.16772e-08
8.19055e-08
9.34541e-09
1.3733e-08
1.92075e-08
2.53365e-08
3.16019e-08
8.74254e-09
6.12867e-09
6.20587e-09
6.55052e-09
6.92844e-09
7.22057e-09
7.38633e-09
7.45434e-09
7.39998e-09
4.37904e-08
9.13166e-09
4.92147e-08
7.88625e-08
9.21964e-09
1.34273e-08
1.89226e-08
2.50667e-08
3.13527e-08
3.71277e-08
4.37837e-08
1.28524e-08
7.71498e-09
7.39705e-09
7.41892e-09
7.67004e-09
7.84975e-09
7.94026e-09
4.85992e-08
9.95525e-09
4.88823e-08
7.43861e-08
9.07099e-09
1.31021e-08
1.85923e-08
2.47004e-08
3.09263e-08
3.67627e-08
4.36053e-08
1.28058e-08
7.78503e-09
7.54603e-09
7.65554e-09
7.95728e-09
8.20243e-09
8.36743e-09
5.06779e-08
9.19763e-09
4.9123e-08
1.0851e-08
9.04139e-09
1.27763e-08
1.83227e-08
2.44994e-08
3.08518e-08
3.7063e-08
4.43308e-08
1.21195e-08
7.64819e-09
7.54898e-09
7.80719e-09
8.18811e-09
8.539e-09
8.77707e-09
5.23204e-08
8.03903e-09
1.08222e-08
1.06363e-08
8.79551e-09
1.23308e-08
1.80266e-08
2.43525e-08
3.0899e-08
3.75367e-08
4.43209e-08
1.65469e-08
1.38556e-08
8.7427e-09
8.34378e-09
8.44988e-09
8.88024e-09
9.15819e-09
3.17312e-08
5.70645e-09
8.97025e-09
1.00962e-08
8.58983e-09
1.19053e-08
1.77228e-08
2.42124e-08
3.09566e-08
3.79682e-08
1.06722e-07
1.04259e-07
1.31608e-08
8.78397e-09
8.48551e-09
8.68569e-09
9.16244e-09
9.448e-09
2.71161e-08
3.55694e-09
6.66061e-09
1.01153e-08
9.62436e-09
1.18227e-08
1.7453e-08
2.40718e-08
3.09583e-08
3.78131e-08
4.48174e-08
5.15248e-08
1.4639e-08
8.63887e-09
8.52232e-09
8.84989e-09
9.29372e-09
9.58236e-09
0
4.3034e-09
7.21656e-09
5.01915e-08
8.32296e-08
1.12197e-07
1.23677e-07
1.30675e-07
1.34459e-07
3.72613e-08
4.39785e-08
5.07105e-08
1.36115e-08
8.37388e-09
8.42834e-09
8.85099e-09
9.22896e-09
9.57821e-09
0
3.29005e-09
1.67535e-09
1.91035e-09
2.28264e-09
2.499e-09
3.03217e-09
3.73392e-09
4.46565e-09
5.17129e-09
5.81325e-09
6.46427e-09
7.05154e-09
7.64408e-09
8.19174e-09
8.65402e-09
9.02508e-09
9.4027e-09
0
3.56225e-09
1.68948e-09
2.1705e-09
2.68568e-09
2.82069e-09
3.07137e-09
3.64928e-09
4.33934e-09
5.00238e-09
5.62539e-09
6.21338e-09
6.78797e-09
7.33677e-09
7.83643e-09
8.24823e-09
8.59165e-09
8.95763e-09
0
3.65165e-09
8.73058e-09
6.37222e-08
7.81045e-08
2.12072e-08
1.26038e-07
1.44909e-07
1.53645e-07
3.11781e-08
3.64878e-08
4.17177e-08
4.68065e-08
5.15895e-08
5.57396e-08
1.45363e-08
8.66919e-09
8.61618e-09
0
3.22724e-09
7.0292e-09
1.76593e-08
2.44505e-08
2.53387e-08
2.21351e-08
2.15198e-08
2.49521e-08
2.99187e-08
1.67703e-07
1.69817e-07
1.70312e-07
1.69933e-07
1.68063e-07
5.45779e-08
1.49453e-08
8.68433e-09
0
3.61361e-09
5.38019e-09
1.60245e-08
2.58567e-08
2.88615e-08
2.63743e-08
2.299e-08
2.40465e-08
2.84371e-08
3.37985e-08
3.87903e-08
1.73822e-07
1.74465e-07
5.03284e-08
5.26212e-08
5.43253e-08
1.42018e-08
1.27342e-08
4.8521e-09
5.1932e-09
1.25496e-08
2.46806e-08
3.01918e-08
3.00171e-08
2.62131e-08
2.49348e-08
2.80026e-08
3.26395e-08
3.70517e-08
4.08591e-08
4.42558e-08
4.71742e-08
4.93164e-08
5.06657e-08
1.28621e-08
4.46058e-08
7.5527e-09
5.83784e-09
1.03087e-08
2.16099e-08
3.01795e-08
3.1995e-08
3.00454e-08
2.82228e-08
3.0846e-08
3.57505e-08
4.0502e-08
4.42128e-08
4.71465e-08
4.92913e-08
1.2256e-08
7.91642e-09
7.70918e-09
6.41159e-08
1.19306e-08
8.52611e-08
1.06208e-08
1.76056e-08
2.86729e-08
3.30482e-08
3.27488e-08
3.06121e-08
3.13748e-08
3.48537e-08
3.87864e-08
4.23911e-08
4.55168e-08
1.14999e-08
7.37908e-09
7.25571e-09
7.33151e-09
5.54441e-08
1.68478e-08
8.73107e-08
1.18779e-08
1.52213e-08
2.36569e-08
3.24291e-08
3.54752e-08
3.63265e-08
3.7788e-08
4.10422e-08
4.45993e-08
1.10658e-08
7.13668e-09
6.94865e-09
6.92666e-09
6.83616e-09
6.79028e-09
0
0
0
0
0
0
0
0
0
0
0
0
0
0
0
0
0
0
4.05383e-08
0
0
0
0
0
0
0
0
0
0
0
0
0
0
0
0
0
3.69671e-08
0
0
0
0
0
0
0
0
0
0
0
0
0
0
0
0
0
3.15482e-08
0
0
0
0
0
0
0
0
0
0
0
0
0
0
0
0
0
1.42741e-08
0
0
0
0
0
0
0
0
0
0
0
0
0
0
0
0
0
1.74706e-08
0
0
0
0
0
0
0
0
0
0
0
0
0
0
0
0
0
1.57156e-08
0
0
0
0
0
0
0
0
0
0
0
0
0
0
0
0
0
0
0
0
0
0
0
0
0
0
0
0
0
0
0
0
0
2.67203e-09
5.14596e-09
0
1.27815e-09
2.23654e-10
2.61634e-10
3.62426e-11
6.38996e-11
9.71299e-11
1.39109e-10
2.03574e-10
2.88878e-10
3.83266e-10
4.90195e-10
5.92295e-10
7.15133e-10
8.28341e-10
1.02678e-09
1.27084e-09
2.09529e-09
1.99259e-09
1.44796e-09
2.37369e-10
2.21941e-10
3.28544e-10
8.37415e-11
8.69076e-11
1.26094e-10
1.61785e-10
1.28045e-10
1.14277e-10
1.13581e-10
1.1893e-10
1.30967e-10
1.36723e-10
1.50821e-10
1.5726e-10
2.01715e-10
6.81706e-09