/*--------------------------------*- C++ -*----------------------------------*\
| =========                 |                                                 |
| \\      /  F ield         | OpenFOAM: The Open Source CFD Toolbox           |
|  \\    /   O peration     | Version:  2112                                  |
|   \\  /    A nd           | Website:  www.openfoam.com                      |
|    \\/     M anipulation  |                                                 |
\*---------------------------------------------------------------------------*/
FoamFile
{
    version     2.0;
    format      ascii;
    arch        "LSB;label=32;scalar=64";
    class       volScalarField;
    location    "0.28";
    object      p;
}
// * * * * * * * * * * * * * * * * * * * * * * * * * * * * * * * * * * * * * //

dimensions      [0 2 -2 0 0 0 0];

internalField   nonuniform List<scalar> 
12225
(
-4.4076
-5.06636
-5.39673
-5.53387
-5.64052
-5.75209
-5.85713
-5.95088
-6.03652
-6.11902
-6.19878
-6.27869
-6.35558
-6.43763
-6.51413
-6.60804
-6.68808
-6.80891
-4.57341
-5.08645
-5.38976
-5.52775
-5.63521
-5.7462
-5.85083
-5.94455
-6.03056
-6.11293
-6.19287
-6.27169
-6.34945
-6.42777
-6.50834
-6.59018
-6.68129
-6.75315
-4.74673
-5.11097
-5.38834
-5.5317
-5.64141
-5.75082
-5.85349
-5.94609
-6.03111
-6.11259
-6.19116
-6.26895
-6.34488
-6.42201
-6.49943
-6.57857
-6.65973
-6.73097
-4.91373
-5.15825
-5.40269
-5.54401
-5.65227
-5.7579
-5.85737
-5.94802
-6.03183
-6.11207
-6.18959
-6.26594
-6.34078
-6.41587
-6.49104
-6.56628
-6.64166
-6.71359
-5.05147
-5.22477
-5.42956
-5.56218
-5.66696
-5.76837
-5.86436
-5.95276
-6.03512
-6.11397
-6.19022
-6.26497
-6.33835
-6.41114
-6.48375
-6.55518
-6.62629
-6.693
-5.16301
-5.29756
-5.46454
-5.58572
-5.68584
-5.78272
-5.87489
-5.96064
-6.04114
-6.1183
-6.19295
-6.2659
-6.33741
-6.4078
-6.4775
-6.54532
-6.61165
-6.67248
-5.26514
-5.36718
-5.50392
-5.61354
-5.70822
-5.80024
-5.88829
-5.97106
-6.04935
-6.12454
-6.19732
-6.26826
-6.33761
-6.40548
-6.47206
-6.53625
-6.59796
-6.6541
-5.36156
-5.43122
-5.54512
-5.64389
-5.73279
-5.81984
-5.90368
-5.98329
-6.05914
-6.13217
-6.20286
-6.27163
-6.33862
-6.40382
-6.4672
-6.52785
-6.58539
-6.63752
-5.44781
-5.49146
-5.58654
-5.67519
-5.75828
-5.84044
-5.92018
-5.9966
-6.06988
-6.14061
-6.20907
-6.27555
-6.34005
-6.4025
-6.46272
-6.51995
-6.57373
-6.62227
-5.51998
-5.54842
-5.62693
-5.70621
-5.78367
-5.86113
-5.93694
-6.01023
-6.0809
-6.14926
-6.21542
-6.27952
-6.34149
-6.40119
-6.45834
-6.51235
-6.56276
-6.60818
-5.57963
-5.60069
-5.6654
-5.73626
-5.80825
-5.88119
-5.95325
-6.02347
-6.09153
-6.1575
-6.22134
-6.28305
-6.34251
-6.39952
-6.45378
-6.50482
-6.55227
-6.59499
-5.62762
-5.64434
-5.69876
-5.76262
-5.82972
-5.89862
-5.96735
-6.0348
-6.10049
-6.16426
-6.22598
-6.28553
-6.34275
-6.39742
-6.44924
-6.49783
-6.54292
-6.58352
-5.67071
-5.68419
-5.72983
-5.78744
-5.84983
-5.9148
-5.98029
-6.04503
-6.10838
-6.17
-6.22965
-6.28712
-6.34222
-6.3947
-6.44431
-6.49073
-6.53376
-6.57261
-5.71478
-5.72562
-5.76307
-5.81415
-5.87137
-5.93192
-5.99372
-6.05537
-6.11604
-6.1752
-6.23252
-6.2877
-6.34051
-6.3907
-6.43804
-6.4823
-6.52332
-6.56055
-5.75815
-5.76703
-5.79746
-5.842
-5.89371
-5.94946
-6.00715
-6.0653
-6.12289
-6.17928
-6.234
-6.2867
-6.33709
-6.38493
-6.43003
-6.47222
-6.51139
-6.54716
-5.79859
-5.80609
-5.83097
-5.86945
-5.9157
-5.96651
-6.01984
-6.07416
-6.12838
-6.18172
-6.23363
-6.28369
-6.33159
-6.3771
-6.42005
-6.46032
-6.49783
-6.53234
-5.833
-5.83959
-5.86042
-5.89385
-5.93521
-5.98143
-6.03053
-6.08104
-6.1318
-6.182
-6.23102
-6.27842
-6.32387
-6.36715
-6.4081
-6.44663
-6.48269
-6.51615
-5.85655
-5.86262
-5.88095
-5.91091
-5.94866
-5.99131
-6.03697
-6.08423
-6.13196
-6.17932
-6.22571
-6.27067
-6.31389
-6.35515
-6.39432
-6.43133
-6.46615
-6.49871
-5.8613
-5.86725
-5.88488
-5.91373
-5.95011
-5.99117
-6.03508
-6.08049
-6.12633
-6.1718
-6.21632
-6.25949
-6.30103
-6.34077
-6.37859
-6.41445
-6.44834
-6.48028
-5.84003
-5.84688
-5.8668
-5.89815
-5.93644
-5.97877
-6.02341
-6.06907
-6.11477
-6.15979
-6.20367
-6.24608
-6.28681
-6.32573
-6.36279
-6.39798
-6.4313
-6.46281
-5.80503
-5.81381
-5.83806
-5.87397
-5.91589
-5.96095
-6.00759
-6.05458
-6.10104
-6.14642
-6.19036
-6.23263
-6.2731
-6.31172
-6.34846
-6.38335
-6.41643
-6.44779
-5.75735
-5.77023
-5.80156
-5.84388
-5.89051
-5.93907
-5.9883
-6.03709
-6.08471
-6.13076
-6.17506
-6.2175
-6.25801
-6.29661
-6.3333
-6.36814
-6.4012
-6.43257
-5.69784
-5.71825
-5.75976
-5.80993
-5.86177
-5.9142
-5.96638
-6.01728
-6.06632
-6.11333
-6.15828
-6.20118
-6.24203
-6.28089
-6.3178
-6.35284
-6.3861
-6.41769
-5.62596
-5.65796
-5.7137
-5.77332
-5.83073
-5.88738
-5.94297
-5.99639
-6.04719
-6.09547
-6.14138
-6.18503
-6.2265
-6.26587
-6.30323
-6.33867
-6.37228
-6.40422
-5.54026
-5.58714
-5.66418
-5.73592
-5.79939
-5.86069
-5.92022
-5.97656
-6.02938
-6.07912
-6.12618
-6.17078
-6.21303
-6.25305
-6.29096
-6.3269
-6.36095
-6.39327
-5.43897
-5.50488
-5.61432
-5.70133
-5.77109
-5.83724
-5.90093
-5.96026
-6.01504
-6.06617
-6.11433
-6.15983
-6.20284
-6.24349
-6.28195
-6.31834
-6.35283
-6.3855
-5.30882
-5.41978
-5.57165
-5.67363
-5.7488
-5.81957
-5.88728
-5.94926
-6.00565
-6.05787
-6.1069
-6.15312
-6.19672
-6.23782
-6.27665
-6.31333
-6.34812
-6.38111
-5.14307
-5.35189
-5.54594
-5.6555
-5.7331
-5.80771
-5.879
-5.94322
-6.00091
-6.05405
-6.10388
-6.15076
-6.19491
-6.23642
-6.27557
-6.31244
-6.34738
-6.38042
-4.96318
-5.31281
-5.54303
-5.65053
-5.72556
-5.80118
-5.87403
-5.93903
-5.997
-6.05039
-6.1006
-6.14789
-6.19246
-6.23433
-6.27384
-6.31093
-6.34606
-6.37908
-4.79397
-5.28208
-5.54591
-5.65497
-5.72985
-5.80679
-5.8807
-5.94594
-6.00367
-6.0567
-6.1066
-6.15367
-6.19805
-6.23973
-6.27913
-6.31603
-6.35091
-6.38293
-7.39634
-7.39697
-7.39775
-7.39886
-7.39984
-7.40044
-7.40031
-7.3993
-7.39734
-7.39472
-7.39186
-7.38917
-7.38692
-7.3852
-7.38399
-7.38313
-7.38256
-7.38216
-7.38198
-7.38205
-7.38234
-7.38269
-7.38305
-7.38338
-7.38352
-7.3832
-7.38228
-7.38073
-7.37894
-7.37745
-7.37689
-7.37727
-7.37784
-7.37895
-7.37877
-7.3814
-7.38579
-7.38423
-7.38302
-7.37164
-7.35265
-7.35141
-7.3715
-7.40872
-7.45936
-7.51895
-7.58399
-7.6515
-7.71934
-7.78616
-7.85116
-7.91388
-7.97415
-8.03198
-8.08747
-8.14077
-8.19205
-8.24149
-8.28931
-8.33559
-8.38022
-8.4232
-8.4646
-8.50442
-8.54264
-8.57921
-8.61405
-8.64706
-8.67811
-8.70708
-8.73381
-8.75814
-8.7799
-8.79893
-8.81505
-8.82809
-8.83787
-8.84423
-8.84701
-8.84604
-8.84118
-8.83228
-8.81919
-8.8018
-8.77996
-8.75355
-8.72247
-8.68659
-8.64581
-8.60002
-8.54914
-8.49306
-8.4317
-8.36497
-8.2928
-8.21512
-8.13184
-8.04293
-7.94833
-7.84798
-7.74177
-7.62977
-7.51196
-7.38826
-7.25865
-7.12315
-6.98176
-6.8345
-6.6814
-6.52251
-6.35787
-6.18755
-6.01162
-5.83016
-5.64327
-5.45105
-5.25362
-5.05111
-4.84364
-4.63137
-4.41445
-4.19305
-3.96734
-3.7375
-3.50372
-3.26621
-3.02517
-2.78082
-2.53339
-2.28316
-2.03047
-1.77534
-1.51777
-1.25806
-0.996571
-0.733547
-0.469223
-0.203841
0.0623512
0.329119
0.596231
0.863461
1.13058
1.39738
1.66365
1.92917
2.19375
2.45718
2.7193
2.97991
3.23884
3.49592
3.75098
4.00385
4.25438
4.50244
4.7479
4.99063
5.23055
5.46754
5.70154
5.93246
6.16021
6.38471
6.60589
6.82366
7.03793
7.24865
7.45573
7.65911
7.8587
8.05443
8.24623
8.43392
8.61774
8.79654
8.97367
9.14024
9.31944
9.46267
-7.39865
-7.39905
-7.4
-7.40136
-7.40265
-7.40351
-7.40348
-7.40232
-7.40021
-7.39737
-7.3943
-7.39141
-7.38895
-7.38704
-7.38561
-7.38456
-7.38378
-7.38328
-7.38297
-7.38295
-7.38311
-7.38313
-7.38308
-7.38327
-7.3836
-7.38371
-7.38326
-7.38222
-7.38077
-7.37941
-7.37898
-7.37966
-7.38199
-7.38561
-7.38336
-7.37658
-7.36104
-7.361
-7.39033
-7.40245
-7.39372
-7.39798
-7.42005
-7.4575
-7.50645
-7.56281
-7.62339
-7.68578
-7.74847
-7.81036
-7.87079
-7.92941
-7.98609
-8.04081
-8.09363
-8.14466
-8.19401
-8.24179
-8.28811
-8.33301
-8.3765
-8.41859
-8.45926
-8.49848
-8.53622
-8.5724
-8.60693
-8.63969
-8.67057
-8.6994
-8.72605
-8.75034
-8.7721
-8.79117
-8.80736
-8.8205
-8.83042
-8.83695
-8.83992
-8.83918
-8.83458
-8.82597
-8.8132
-8.79615
-8.77468
-8.74868
-8.71803
-8.68261
-8.64232
-8.59705
-8.54671
-8.49121
-8.43045
-8.36435
-8.29283
-8.21582
-8.13326
-8.04506
-7.95119
-7.85164
-7.74638
-7.63513
-7.518
-7.39506
-7.26627
-7.13161
-6.99108
-6.84469
-6.69248
-6.53447
-6.37071
-6.20127
-6.02622
-5.84564
-5.65961
-5.46825
-5.27167
-5.06999
-4.86334
-4.65188
-4.43575
-4.21511
-3.99015
-3.76103
-3.52795
-3.29109
-3.05066
-2.80685
-2.55985
-2.30984
-2.057
-1.80175
-1.54442
-1.28512
-1.02402
-0.761384
-0.497409
-0.232349
0.0335502
0.300054
0.566932
0.833955
1.1009
1.36755
1.63369
1.89911
2.16361
2.427
2.68909
2.94969
3.20864
3.46576
3.72088
3.97384
4.22448
4.47266
4.71824
4.96112
5.20118
5.43834
5.67249
5.90356
6.13147
6.35614
6.57748
6.79541
7.00985
7.22073
7.42796
7.63149
7.83124
8.02714
8.21913
8.40705
8.59121
8.77044
8.94835
9.11586
9.29694
9.44338
-7.39941
-7.39945
-7.39983
-7.40048
-7.40123
-7.4019
-7.40227
-7.40197
-7.40101
-7.39962
-7.39813
-7.39677
-7.39566
-7.39478
-7.394
-7.39318
-7.39222
-7.39106
-7.38962
-7.38795
-7.38613
-7.38428
-7.38259
-7.38117
-7.38002
-7.37903
-7.37824
-7.37767
-7.37779
-7.37909
-7.38228
-7.38461
-7.38229
-7.37166
-7.37004
-7.38715
-7.39375
-7.39253
-7.40525
-7.42358
-7.4417
-7.46498
-7.49482
-7.53221
-7.57589
-7.6244
-7.67608
-7.72955
-7.78377
-7.83801
-7.89172
-7.94455
-7.9963
-8.04685
-8.09615
-8.14423
-8.19109
-8.23677
-8.2813
-8.32467
-8.36686
-8.40787
-8.44765
-8.48614
-8.52329
-8.55899
-8.59314
-8.62562
-8.65629
-8.685
-8.71158
-8.73586
-8.75768
-8.77684
-8.79318
-8.80651
-8.81666
-8.82346
-8.82675
-8.82636
-8.82214
-8.81395
-8.80165
-8.7851
-8.76417
-8.73875
-8.70871
-8.67395
-8.63435
-8.58981
-8.54024
-8.48553
-8.42561
-8.36039
-8.28979
-8.21373
-8.13214
-8.04496
-7.95211
-7.85351
-7.74921
-7.6392
-7.52331
-7.40156
-7.27393
-7.14043
-7.00107
-6.85585
-6.70481
-6.54798
-6.3854
-6.21713
-6.04325
-5.86383
-5.67896
-5.48874
-5.29329
-5.09272
-4.88717
-4.67678
-4.4617
-4.24209
-4.01813
-3.78998
-3.55785
-3.32191
-3.08236
-2.83942
-2.59329
-2.34418
-2.09227
-1.83786
-1.58122
-1.32253
-1.06203
-0.799932
-0.536467
-0.27188
-0.00640895
0.259711
0.526247
0.79297
1.05966
1.32609
1.59205
1.85733
2.12172
2.38504
2.64709
2.90769
3.16667
3.42384
3.67905
3.93213
4.18292
4.43128
4.67706
4.92015
5.16044
5.39783
5.63222
5.86354
6.0917
6.31661
6.53821
6.75639
6.97109
7.18222
7.3897
7.59348
7.79348
7.98962
8.18189
8.3701
8.55465
8.73428
8.91288
9.08086
9.26287
9.40843
-7.39832
-7.39804
-7.39761
-7.39743
-7.39811
-7.39944
-7.40111
-7.40298
-7.40488
-7.40667
-7.40824
-7.40947
-7.41028
-7.41056
-7.41018
-7.40904
-7.40711
-7.40435
-7.40085
-7.3967
-7.39204
-7.38706
-7.38207
-7.3774
-7.37336
-7.37035
-7.36873
-7.36919
-7.3711
-7.37317
-7.37287
-7.37214
-7.37879
-7.38492
-7.38718
-7.39746
-7.41267
-7.42959
-7.44984
-7.47138
-7.49555
-7.52357
-7.55554
-7.59172
-7.63159
-7.67459
-7.71994
-7.7669
-7.81481
-7.86315
-7.91148
-7.95951
-8.00703
-8.0539
-8.10002
-8.14534
-8.18985
-8.2335
-8.27629
-8.31819
-8.35915
-8.39913
-8.43807
-8.47589
-8.5125
-8.54779
-8.58165
-8.61392
-8.64447
-8.67313
-8.69973
-8.72409
-8.74604
-8.76538
-8.78193
-8.79552
-8.80595
-8.81307
-8.81671
-8.8167
-8.8129
-8.80515
-8.79333
-8.77729
-8.75691
-8.73206
-8.70264
-8.66852
-8.6296
-8.58578
-8.53696
-8.48305
-8.42395
-8.35958
-8.28987
-8.21473
-8.1341
-8.0479
-7.95608
-7.85857
-7.75529
-7.64625
-7.53141
-7.41074
-7.28421
-7.15183
-7.01359
-6.8695
-6.71959
-6.5639
-6.40246
-6.23533
-6.06259
-5.8843
-5.70055
-5.51145
-5.3171
-5.11762
-4.91315
-4.70381
-4.48977
-4.27118
-4.0482
-3.82101
-3.58981
-3.35477
-3.11609
-2.87399
-2.62866
-2.38033
-2.1292
-1.87553
-1.61956
-1.36149
-1.10157
-0.840001
-0.577034
-0.312911
-0.0478604
0.217881
0.484079
0.750505
1.01693
1.28315
1.54892
1.81406
2.07835
2.34159
2.6036
2.86419
3.12319
3.38042
3.63571
3.88891
4.13983
4.38835
4.63432
4.87761
5.11811
5.35572
5.59035
5.82191
6.05031
6.27547
6.49732
6.71575
6.93069
7.14207
7.34979
7.55381
7.75404
7.95043
8.14294
8.33141
8.51624
8.69618
8.87496
9.04321
9.22476
9.36633
-7.39894
-7.39871
-7.39804
-7.39797
-7.39918
-7.40218
-7.40658
-7.41166
-7.41672
-7.42133
-7.42524
-7.42823
-7.4301
-7.43072
-7.43002
-7.42799
-7.42463
-7.42001
-7.41424
-7.40748
-7.39997
-7.39195
-7.3837
-7.37573
-7.36874
-7.3637
-7.36106
-7.36056
-7.36121
-7.36339
-7.36796
-7.37321
-7.38199
-7.39521
-7.41051
-7.42834
-7.44806
-7.47034
-7.4948
-7.52016
-7.54718
-7.57647
-7.60833
-7.64285
-7.67981
-7.71892
-7.75976
-7.80192
-7.845
-7.88865
-7.93259
-7.97658
-8.02045
-8.06406
-8.1073
-8.1501
-8.1924
-8.23415
-8.27531
-8.31581
-8.35561
-8.39462
-8.43276
-8.46994
-8.50606
-8.54098
-8.57457
-8.60667
-8.63713
-8.66577
-8.69241
-8.71687
-8.73895
-8.75846
-8.77521
-8.78902
-8.79971
-8.80711
-8.81104
-8.81135
-8.80788
-8.8005
-8.78907
-8.77345
-8.75351
-8.72914
-8.70022
-8.66664
-8.62829
-8.58506
-8.53687
-8.4836
-8.42519
-8.36154
-8.29256
-8.21819
-8.13835
-8.05296
-7.96196
-7.8653
-7.7629
-7.65474
-7.54079
-7.42101
-7.29539
-7.16392
-7.0266
-6.88344
-6.73447
-6.5797
-6.4192
-6.25301
-6.08119
-5.90382
-5.721
-5.5328
-5.33935
-5.14076
-4.93715
-4.72868
-4.51547
-4.2977
-4.07552
-3.84912
-3.61867
-3.38436
-3.14639
-2.90496
-2.66029
-2.41258
-2.16206
-1.90897
-1.65353
-1.39597
-1.13652
-0.875401
-0.61285
-0.349114
-0.0844191
0.180999
0.446906
0.713074
0.979275
1.24529
1.5109
1.7759
2.04008
2.30324
2.5652
2.82576
3.08475
3.342
3.59734
3.8506
4.10161
4.35023
4.59632
4.83975
5.0804
5.31817
5.55297
5.7847
6.01329
6.23863
6.46066
6.67928
6.8944
7.10596
7.31387
7.51806
7.71847
7.91502
8.1077
8.29633
8.48128
8.66134
8.83989
9.00796
9.18844
9.32445
-7.40102
-7.40024
-7.40015
-7.40172
-7.40604
-7.41226
-7.41933
-7.42662
-7.43353
-7.43943
-7.4439
-7.44679
-7.44814
-7.44798
-7.44637
-7.44329
-7.43879
-7.43289
-7.42569
-7.41738
-7.408
-7.39766
-7.38693
-7.37698
-7.36886
-7.36352
-7.36058
-7.35933
-7.3602
-7.36381
-7.37205
-7.38512
-7.40143
-7.41998
-7.44053
-7.46282
-7.4861
-7.51067
-7.53656
-7.56351
-7.59176
-7.62147
-7.65281
-7.68587
-7.72057
-7.75679
-7.79432
-7.83292
-7.87237
-7.91245
-7.95297
-7.99375
-8.03466
-8.07557
-8.1164
-8.15706
-8.19749
-8.23761
-8.27736
-8.31667
-8.35547
-8.39366
-8.43115
-8.46782
-8.50355
-8.5382
-8.57161
-8.60362
-8.63406
-8.66274
-8.68947
-8.71405
-8.73628
-8.75597
-8.77292
-8.78694
-8.79785
-8.80548
-8.80965
-8.81021
-8.80702
-8.79992
-8.78879
-8.77349
-8.7539
-8.72989
-8.70136
-8.66819
-8.63028
-8.58751
-8.5398
-8.48705
-8.42916
-8.36606
-8.29767
-8.22389
-8.14466
-8.05989
-7.96954
-7.87352
-7.7718
-7.66432
-7.55105
-7.43196
-7.30704
-7.17627
-7.03966
-6.8972
-6.74893
-6.59488
-6.43507
-6.26958
-6.09846
-5.92179
-5.73964
-5.55212
-5.35934
-5.1614
-4.95845
-4.7506
-4.53802
-4.32086
-4.09927
-3.87344
-3.64355
-3.40978
-3.17233
-2.93141
-2.68722
-2.43998
-2.18991
-1.93725
-1.68221
-1.42504
-1.16595
-0.905158
-0.642927
-0.379487
-0.115067
0.150099
0.415776
0.681735
0.947751
1.2136
1.47907
1.74395
2.00802
2.2711
2.53299
2.79351
3.05248
3.30973
3.56508
3.81836
4.06942
4.31809
4.56424
4.80774
5.04848
5.28635
5.52125
5.75309
5.98179
6.20726
6.4294
6.64814
6.86338
7.07506
7.28308
7.48739
7.68791
7.88456
8.07733
8.26602
8.45094
8.63094
8.80904
8.97654
9.15595
9.28588
-7.40535
-7.40365
-7.40564
-7.41049
-7.41776
-7.42612
-7.43468
-7.44243
-7.44878
-7.4537
-7.45724
-7.45944
-7.46029
-7.45974
-7.45775
-7.45429
-7.44933
-7.44291
-7.43511
-7.42601
-7.41562
-7.40448
-7.39368
-7.38426
-7.37696
-7.37158
-7.368
-7.36726
-7.37069
-7.37918
-7.39249
-7.4095
-7.42898
-7.45017
-7.47275
-7.49653
-7.52123
-7.54685
-7.57334
-7.60072
-7.6291
-7.65856
-7.68918
-7.72101
-7.75402
-7.78815
-7.8233
-7.85935
-7.89616
-7.93361
-7.97156
-8.0099
-8.04853
-8.08735
-8.12629
-8.16525
-8.20418
-8.24301
-8.28165
-8.32003
-8.35805
-8.39563
-8.43264
-8.46896
-8.50444
-8.53895
-8.5723
-8.60432
-8.63482
-8.66361
-8.69048
-8.71522
-8.73764
-8.75751
-8.77465
-8.78887
-8.79997
-8.80778
-8.81214
-8.81289
-8.80988
-8.80299
-8.79207
-8.777
-8.75765
-8.73391
-8.70566
-8.67278
-8.63518
-8.59274
-8.54538
-8.49299
-8.43549
-8.3728
-8.30482
-8.23148
-8.15269
-8.06839
-7.9785
-7.88296
-7.78172
-7.67474
-7.56196
-7.44338
-7.31896
-7.18869
-7.05257
-6.91062
-6.76284
-6.60928
-6.44997
-6.28497
-6.11433
-5.93813
-5.75646
-5.56941
-5.37708
-5.1796
-4.97709
-4.76968
-4.55752
-4.34077
-4.11959
-3.89416
-3.66464
-3.43124
-3.19416
-2.95359
-2.70973
-2.46282
-2.21307
-1.96071
-1.70596
-1.44906
-1.19021
-0.929663
-0.667658
-0.404431
-0.140211
0.124768
0.390272
0.656072
0.921942
1.18766
1.45301
1.71778
1.98177
2.24477
2.5066
2.76707
3.026
3.28323
3.53857
3.79185
4.0429
4.29158
4.53774
4.78127
5.02204
5.25995
5.4949
5.7268
5.95557
6.18111
6.40332
6.62212
6.83743
7.04917
7.25726
7.46163
7.66221
7.85891
8.0517
8.24037
8.42517
8.60498
8.78252
8.94922
9.12779
9.25168
-7.41088
-7.4103
-7.41442
-7.42184
-7.43031
-7.43861
-7.446
-7.4524
-7.45782
-7.46222
-7.46548
-7.46751
-7.46822
-7.46754
-7.46543
-7.46185
-7.45681
-7.45034
-7.44256
-7.43356
-7.42363
-7.41331
-7.40355
-7.39515
-7.38873
-7.38438
-7.3826
-7.38482
-7.39196
-7.40366
-7.41912
-7.43744
-7.45778
-7.47966
-7.50275
-7.52682
-7.55175
-7.57748
-7.60398
-7.63126
-7.65937
-7.68835
-7.71825
-7.74906
-7.7808
-7.81342
-7.84689
-7.88113
-7.91608
-7.95165
-7.98776
-8.02434
-8.06131
-8.0986
-8.13614
-8.17386
-8.2117
-8.24959
-8.28744
-8.32517
-8.36269
-8.39988
-8.43662
-8.47277
-8.50819
-8.54269
-8.57611
-8.60824
-8.6389
-8.66787
-8.69493
-8.71987
-8.74248
-8.76255
-8.77987
-8.79425
-8.8055
-8.81344
-8.81792
-8.81879
-8.8159
-8.80913
-8.79833
-8.7834
-8.7642
-8.74061
-8.71253
-8.67984
-8.64243
-8.60021
-8.55306
-8.50091
-8.44366
-8.38123
-8.31353
-8.24048
-8.162
-8.07801
-7.98844
-7.89322
-7.7923
-7.68564
-7.57319
-7.45493
-7.33083
-7.20089
-7.06509
-6.92345
-6.77599
-6.62274
-6.46374
-6.29905
-6.12871
-5.95281
-5.77144
-5.58467
-5.39263
-5.19543
-4.99319
-4.78605
-4.57416
-4.35767
-4.13674
-3.91155
-3.68228
-3.44911
-3.21225
-2.9719
-2.72826
-2.48156
-2.23203
-1.97986
-1.7253
-1.46858
-1.2099
-0.949515
-0.687667
-0.424587
-0.160509
0.104335
0.369711
0.63539
0.901147
1.16676
1.43201
1.6967
1.9606
2.22353
2.48529
2.7457
3.0046
3.26179
3.5171
3.77035
4.02137
4.27002
4.51617
4.75968
5.00044
5.23835
5.47331
5.70524
5.93404
6.1596
6.38184
6.60067
6.816
7.02777
7.23588
7.44027
7.64087
7.83759
8.03035
8.21895
8.40358
8.5831
8.76008
8.92586
9.10382
9.22202
-7.41359
-7.41557
-7.42198
-7.42986
-7.43749
-7.44465
-7.45128
-7.45723
-7.46235
-7.4665
-7.46957
-7.47148
-7.47214
-7.47149
-7.4695
-7.46614
-7.46143
-7.45545
-7.44829
-7.44009
-7.43115
-7.42213
-7.41403
-7.40754
-7.40284
-7.40038
-7.40127
-7.40641
-7.41572
-7.42872
-7.44482
-7.46326
-7.4835
-7.50516
-7.52798
-7.55178
-7.57643
-7.60188
-7.62809
-7.65505
-7.68277
-7.71126
-7.74052
-7.77056
-7.80138
-7.83296
-7.86529
-7.89832
-7.93201
-7.96632
-8.0012
-8.0366
-8.07246
-8.10872
-8.14535
-8.18227
-8.21942
-8.25673
-8.29412
-8.33151
-8.36878
-8.40583
-8.44252
-8.4787
-8.51421
-8.54886
-8.58247
-8.61483
-8.64573
-8.67494
-8.70224
-8.72741
-8.75022
-8.77046
-8.78792
-8.80242
-8.81376
-8.82178
-8.8263
-8.8272
-8.82434
-8.8176
-8.80685
-8.79195
-8.7728
-8.74928
-8.72127
-8.68865
-8.65133
-8.6092
-8.56216
-8.51013
-8.45301
-8.39073
-8.32319
-8.25031
-8.172
-8.08818
-7.99879
-7.90375
-7.80301
-7.69653
-7.58426
-7.46617
-7.34224
-7.21246
-7.07683
-6.93536
-6.78806
-6.63497
-6.47613
-6.31159
-6.14141
-5.96566
-5.78443
-5.59782
-5.40592
-5.20886
-5.00676
-4.79976
-4.58801
-4.37165
-4.15086
-3.92579
-3.69665
-3.46361
-3.22687
-2.98664
-2.74313
-2.49656
-2.24714
-1.9951
-1.74066
-1.48404
-1.22547
-0.965194
-0.703451
-0.440476
-0.1765
0.0882421
0.353519
0.619102
0.884765
1.15029
1.41545
1.68005
1.94387
2.20672
2.46841
2.72876
2.9876
3.24475
3.50001
3.7532
4.00416
4.25276
4.49884
4.7423
4.98302
5.2209
5.45584
5.68775
5.91655
6.14212
6.36435
6.58316
6.79849
7.01024
7.21834
7.42273
7.62332
7.82002
8.01271
8.2012
8.38562
8.56481
8.74123
8.90604
9.08358
9.19664
-7.41489
-7.4185
-7.42543
-7.43236
-7.43922
-7.4458
-7.45194
-7.4575
-7.46235
-7.46636
-7.46941
-7.47139
-7.47223
-7.47185
-7.47024
-7.46737
-7.46326
-7.45796
-7.45156
-7.44435
-7.43684
-7.42972
-7.42356
-7.41877
-7.41589
-7.41574
-7.41894
-7.4258
-7.4362
-7.44969
-7.46575
-7.48385
-7.50363
-7.52479
-7.54712
-7.57045
-7.59469
-7.61976
-7.64561
-7.67223
-7.69959
-7.72767
-7.75646
-7.78597
-7.81619
-7.84713
-7.87875
-7.91105
-7.944
-7.97756
-8.01173
-8.04644
-8.08168
-8.11739
-8.15353
-8.19005
-8.22688
-8.26396
-8.3012
-8.33853
-8.37584
-8.41299
-8.44984
-8.48624
-8.522
-8.55694
-8.59085
-8.62352
-8.65473
-8.68423
-8.71178
-8.73715
-8.76012
-8.78048
-8.79803
-8.81256
-8.82389
-8.83186
-8.83633
-8.83718
-8.83427
-8.82749
-8.81669
-8.80176
-8.78258
-8.75903
-8.73101
-8.69838
-8.66105
-8.61891
-8.57188
-8.51987
-8.46278
-8.40054
-8.33305
-8.26022
-8.18197
-8.09822
-8.00888
-7.9139
-7.81321
-7.70678
-7.59456
-7.47653
-7.35265
-7.22292
-7.08733
-6.94589
-6.79864
-6.64559
-6.48678
-6.32228
-6.15214
-5.97643
-5.79524
-5.60866
-5.4168
-5.21978
-5.01773
-4.81077
-4.59906
-4.38275
-4.16199
-3.93698
-3.70788
-3.47488
-3.2382
-2.99802
-2.75457
-2.50807
-2.25872
-2.00674
-1.75237
-1.49582
-1.23732
-0.97711
-0.715442
-0.452544
-0.188649
0.0760111
0.341204
0.606701
0.872276
1.13771
1.40278
1.66729
1.93102
2.19378
2.45539
2.71565
2.97443
3.23153
3.48672
3.73983
3.9907
4.2392
4.48519
4.72857
4.96922
5.20703
5.44191
5.67379
5.90257
6.12811
6.3503
6.56907
6.78435
6.99607
7.20414
7.4085
7.60907
7.80572
7.99833
8.18666
8.37084
8.54965
8.72554
8.88936
9.0666
9.17514
-7.41318
-7.41704
-7.42295
-7.4291
-7.43539
-7.44152
-7.44737
-7.45279
-7.45764
-7.46178
-7.46506
-7.46737
-7.46863
-7.46876
-7.46766
-7.46532
-7.46176
-7.45709
-7.45151
-7.44544
-7.43937
-7.4338
-7.42916
-7.42605
-7.42511
-7.4268
-7.43153
-7.43949
-7.45048
-7.46409
-7.47994
-7.49768
-7.517
-7.53769
-7.55956
-7.58248
-7.60636
-7.63111
-7.65669
-7.68305
-7.71016
-7.73798
-7.76652
-7.79575
-7.82569
-7.85631
-7.88761
-7.91959
-7.95221
-7.98548
-8.01937
-8.05384
-8.08888
-8.12444
-8.16049
-8.19696
-8.23381
-8.27097
-8.30837
-8.34591
-8.38348
-8.42094
-8.45816
-8.49494
-8.53108
-8.5664
-8.60067
-8.63367
-8.66516
-8.6949
-8.72265
-8.74817
-8.77124
-8.79165
-8.80919
-8.82365
-8.83487
-8.84269
-8.84701
-8.84771
-8.84468
-8.83777
-8.82686
-8.81181
-8.79252
-8.76887
-8.74075
-8.70804
-8.67061
-8.62837
-8.58125
-8.52915
-8.472
-8.40971
-8.34218
-8.26932
-8.19102
-8.10725
-8.01787
-7.92285
-7.82212
-7.71565
-7.6034
-7.48532
-7.36141
-7.23163
-7.09599
-6.95451
-6.80721
-6.65411
-6.49527
-6.33073
-6.16055
-5.98481
-5.80358
-5.61696
-5.42507
-5.22803
-5.02595
-4.81898
-4.60725
-4.39093
-4.17017
-3.94515
-3.71605
-3.48306
-3.24639
-3.00623
-2.76281
-2.51634
-2.26703
-2.01509
-1.76077
-1.50427
-1.24581
-0.985666
-0.724064
-0.461237
-0.197418
0.0671616
0.332269
0.597676
0.863159
1.1285
1.39347
1.65788
1.9215
2.18416
2.44566
2.70583
2.96453
3.22156
3.47666
3.72965
3.9804
4.22878
4.47466
4.71793
4.95847
5.19619
5.431
5.66283
5.89158
6.11706
6.3392
6.5579
6.77312
6.98478
7.1928
7.39712
7.59765
7.79425
7.98675
8.17492
8.35884
8.53724
8.71264
8.87549
9.05248
9.15718
-7.40454
-7.40806
-7.41335
-7.41936
-7.42558
-7.43169
-7.43758
-7.44316
-7.44829
-7.45284
-7.45669
-7.4596
-7.46134
-7.46185
-7.46116
-7.45923
-7.45609
-7.45193
-7.4471
-7.442
-7.43704
-7.43265
-7.42939
-7.42778
-7.42828
-7.43131
-7.4372
-7.44595
-7.45733
-7.47104
-7.48678
-7.50428
-7.52331
-7.54369
-7.56526
-7.58792
-7.61158
-7.63617
-7.66162
-7.68788
-7.71491
-7.74269
-7.77119
-7.80041
-7.83034
-7.86096
-7.89228
-7.92428
-7.95696
-7.9903
-8.02429
-8.05891
-8.09411
-8.12988
-8.16617
-8.20293
-8.24012
-8.27764
-8.31542
-8.35337
-8.39137
-8.42927
-8.46692
-8.50414
-8.54072
-8.57644
-8.61109
-8.64442
-8.67617
-8.70611
-8.73399
-8.75956
-8.7826
-8.80293
-8.82033
-8.8346
-8.84556
-8.85307
-8.85709
-8.85752
-8.85425
-8.84713
-8.83602
-8.82078
-8.8013
-8.77747
-8.7492
-8.71632
-8.67871
-8.63628
-8.58898
-8.53674
-8.47946
-8.41707
-8.34945
-8.27652
-8.19817
-8.11428
-8.0248
-7.92968
-7.82885
-7.72229
-7.60994
-7.49178
-7.36777
-7.2379
-7.10217
-6.96059
-6.8132
-6.66002
-6.50111
-6.33649
-6.16624
-5.99043
-5.80913
-5.62245
-5.43051
-5.23341
-5.0313
-4.82429
-4.61254
-4.39619
-4.17541
-3.95038
-3.72127
-3.48829
-3.25162
-3.01148
-2.76809
-2.52165
-2.27238
-2.02049
-1.76621
-1.50976
-1.25137
-0.991295
-0.729769
-0.467025
-0.203293
0.061192
0.3262
0.591503
0.856877
1.1221
1.38696
1.65125
1.91476
2.17729
2.43867
2.69872
2.95735
3.21433
3.46933
3.72217
3.97277
4.22099
4.46673
4.70986
4.95028
5.1879
5.42261
5.65439
5.8831
6.10852
6.33057
6.54919
6.76433
6.97592
7.18389
7.38816
7.58866
7.78521
7.97759
8.16557
8.34923
8.52722
8.70215
8.86407
9.0408
9.14236
-7.38822
-7.39145
-7.39694
-7.40346
-7.41006
-7.41643
-7.4226
-7.42865
-7.43451
-7.43982
-7.44421
-7.44755
-7.44968
-7.45047
-7.44994
-7.44815
-7.44526
-7.44154
-7.43729
-7.4329
-7.42877
-7.42541
-7.42326
-7.4228
-7.4245
-7.42871
-7.43557
-7.44499
-7.45676
-7.47064
-7.48641
-7.50385
-7.52278
-7.54305
-7.56453
-7.58713
-7.61077
-7.63538
-7.66089
-7.68725
-7.71441
-7.74235
-7.77104
-7.80048
-7.83066
-7.86157
-7.89321
-7.92557
-7.95865
-7.99242
-8.02687
-8.06196
-8.09765
-8.13391
-8.1707
-8.20794
-8.2456
-8.28361
-8.32192
-8.3604
-8.39894
-8.43736
-8.4755
-8.51318
-8.5502
-8.58631
-8.62129
-8.6549
-8.68686
-8.7169
-8.74473
-8.7701
-8.79285
-8.81283
-8.82985
-8.84369
-8.85412
-8.86108
-8.8646
-8.86464
-8.86107
-8.85371
-8.84238
-8.82691
-8.80722
-8.78321
-8.75476
-8.7217
-8.68381
-8.64106
-8.59351
-8.54109
-8.48368
-8.42118
-8.35348
-8.28046
-8.20202
-8.11804
-8.02844
-7.9332
-7.83226
-7.7256
-7.61317
-7.49493
-7.37083
-7.24085
-7.10502
-6.96335
-6.81587
-6.66263
-6.50365
-6.33898
-6.16867
-5.99279
-5.81144
-5.62472
-5.43274
-5.23562
-5.03349
-4.82648
-4.61473
-4.39838
-4.17761
-3.95259
-3.72351
-3.49056
-3.25394
-3.01386
-2.77053
-2.52416
-2.27496
-2.02315
-1.76896
-1.5126
-1.25431
-0.994345
-0.732938
-0.470316
-0.206713
0.057637
0.322505
0.587663
0.852889
1.11796
1.38267
1.6468
1.91015
2.17252
2.43374
2.69364
2.95224
3.20925
3.46416
3.71683
3.96724
4.21529
4.46087
4.70386
4.94415
5.18164
5.41625
5.64801
5.87672
6.10208
6.32403
6.54256
6.75761
6.96913
7.17704
7.38126
7.58175
7.77825
7.97051
8.15829
8.34169
8.51927
8.69377
8.85479
9.03122
9.13035
-7.36488
-7.36806
-7.37443
-7.38194
-7.38918
-7.39603
-7.40291
-7.4098
-7.41634
-7.42224
-7.42718
-7.43084
-7.43308
-7.43388
-7.43335
-7.43164
-7.42895
-7.42553
-7.4217
-7.41787
-7.41445
-7.41189
-7.41069
-7.41134
-7.4142
-7.41946
-7.42717
-7.43721
-7.4494
-7.46356
-7.4795
-7.49705
-7.51606
-7.53641
-7.558
-7.58073
-7.60453
-7.62934
-7.65508
-7.68172
-7.70922
-7.73755
-7.76669
-7.79663
-7.82734
-7.85882
-7.89106
-7.92404
-7.95776
-7.99218
-8.02728
-8.06304
-8.09942
-8.13637
-8.17382
-8.2117
-8.24994
-8.28854
-8.32745
-8.36652
-8.4056
-8.44451
-8.48309
-8.52114
-8.55843
-8.59475
-8.62984
-8.66345
-8.69529
-8.72506
-8.75245
-8.77719
-8.79922
-8.81852
-8.8349
-8.84805
-8.85756
-8.86359
-8.86647
-8.86614
-8.86236
-8.85489
-8.84345
-8.82784
-8.80801
-8.7839
-8.75539
-8.72223
-8.68399
-8.64074
-8.59284
-8.5402
-8.48262
-8.41999
-8.35219
-8.2791
-8.20055
-8.11641
-8.02665
-7.93123
-7.83015
-7.72337
-7.61084
-7.4925
-7.36828
-7.23818
-7.10222
-6.96044
-6.81288
-6.65957
-6.50054
-6.33582
-6.16546
-5.98954
-5.80815
-5.62141
-5.42942
-5.23231
-5.03021
-4.82324
-4.61154
-4.39524
-4.17453
-3.94959
-3.7206
-3.48776
-3.25125
-3.0113
-2.76812
-2.52192
-2.2729
-2.02127
-1.76726
-1.51109
-1.25302
-0.993294
-0.732128
-0.469759
-0.206419
0.0576586
0.322244
0.587111
0.85204
1.11681
1.38121
1.64503
1.90806
2.1701
2.43098
2.69055
2.94895
3.20589
3.46064
3.71307
3.96326
4.21111
4.4565
4.69932
4.93946
5.17682
5.41133
5.64313
5.87196
6.09729
6.31914
6.53757
6.75255
6.96402
7.17189
7.37608
7.57662
7.77312
7.96525
8.15284
8.33598
8.51315
8.68725
8.84743
9.02348
9.12089
-7.33617
-7.33971
-7.34737
-7.35616
-7.36424
-7.37182
-7.37929
-7.38679
-7.394
-7.40037
-7.40555
-7.40928
-7.41148
-7.41221
-7.41167
-7.41003
-7.40747
-7.40427
-7.40081
-7.39745
-7.39465
-7.39293
-7.39275
-7.3945
-7.39843
-7.40463
-7.41307
-7.42367
-7.43628
-7.45075
-7.46693
-7.48469
-7.50391
-7.52449
-7.54634
-7.56939
-7.59354
-7.61874
-7.64492
-7.67206
-7.70011
-7.72903
-7.7588
-7.78939
-7.82081
-7.85304
-7.88606
-7.91984
-7.95434
-7.98955
-8.02543
-8.06196
-8.09911
-8.13683
-8.17504
-8.21368
-8.25267
-8.29195
-8.33142
-8.37093
-8.41028
-8.44933
-8.4879
-8.52582
-8.56287
-8.59886
-8.63353
-8.66662
-8.69783
-8.72684
-8.75319
-8.77659
-8.7973
-8.81559
-8.83117
-8.84338
-8.85134
-8.85567
-8.85764
-8.857
-8.85317
-8.84576
-8.83437
-8.81876
-8.79889
-8.77483
-8.7465
-8.7137
-8.67618
-8.63371
-8.58618
-8.53357
-8.47591
-8.41316
-8.34521
-8.27194
-8.19317
-8.10879
-8.01875
-7.92307
-7.82174
-7.71472
-7.60196
-7.4834
-7.35896
-7.22863
-7.09245
-6.95048
-6.80274
-6.64926
-6.49009
-6.32525
-6.15476
-5.97873
-5.79724
-5.61043
-5.41839
-5.22125
-5.01913
-4.81216
-4.60048
-4.38421
-4.16355
-3.93868
-3.70978
-3.47704
-3.24067
-3.00087
-2.75785
-2.51184
-2.26302
-2.0116
-1.7578
-1.50189
-1.24411
-0.98468
-0.723824
-0.461782
-0.198785
0.0649327
0.329142
0.593618
0.85814
1.12249
1.38645
1.64981
1.91235
2.17388
2.4342
2.69311
2.95048
3.20619
3.46009
3.71201
3.96178
4.20926
4.4543
4.6968
4.93662
5.17367
5.4079
5.63959
5.86844
6.09371
6.31543
6.53377
6.74868
6.9601
7.16795
7.37217
7.57288
7.76948
7.96152
8.14892
8.33183
8.50862
8.68237
8.84174
9.01733
9.11372
-7.30328
-7.30747
-7.31685
-7.32701
-7.33555
-7.34344
-7.35153
-7.35967
-7.36731
-7.374
-7.37935
-7.38312
-7.38527
-7.38602
-7.38558
-7.38406
-7.38169
-7.37875
-7.37562
-7.37277
-7.37068
-7.36982
-7.3706
-7.37328
-7.37805
-7.38495
-7.39395
-7.40499
-7.41794
-7.43271
-7.44917
-7.46721
-7.48673
-7.50766
-7.52989
-7.55334
-7.57796
-7.60368
-7.63048
-7.65828
-7.68704
-7.7167
-7.74723
-7.77861
-7.81084
-7.84389
-7.87772
-7.91231
-7.94762
-7.98363
-8.02027
-8.05753
-8.09537
-8.13375
-8.17261
-8.21189
-8.25148
-8.29118
-8.33079
-8.37019
-8.40926
-8.44785
-8.48583
-8.52302
-8.55926
-8.59435
-8.62809
-8.66022
-8.69042
-8.71821
-8.74275
-8.76336
-8.78124
-8.79776
-8.81246
-8.82437
-8.83281
-8.83794
-8.8402
-8.83948
-8.8355
-8.82795
-8.81643
-8.80061
-8.78052
-8.75635
-8.72804
-8.69547
-8.65865
-8.61704