/*--------------------------------*- C++ -*----------------------------------*\
| =========                 |                                                 |
| \\      /  F ield         | OpenFOAM: The Open Source CFD Toolbox           |
|  \\    /   O peration     | Version:  2112                                  |
|   \\  /    A nd           | Website:  www.openfoam.com                      |
|    \\/     M anipulation  |                                                 |
\*---------------------------------------------------------------------------*/
FoamFile
{
    version     2.0;
    format      ascii;
    arch        "LSB;label=32;scalar=64";
    class       volScalarField;
    location    "0.05";
    object      p;
}
// * * * * * * * * * * * * * * * * * * * * * * * * * * * * * * * * * * * * * //

dimensions      [0 2 -2 0 0 0 0];

internalField   nonuniform List<scalar> 
122250
(
840.975
-203.731
-39.9782
-227.284
-133.861
-64.9075
27.4003
44.1888
51.9409
54.4058
57.1212
54.0131
48.8647
43.4937
38.8275
35.0075
31.9207
28.8395
849.469
-210.093
-43.9177
-236.836
-142.91
-70.7694
21.1597
41.6575
50.6482
52.6544
55.9803
53.4842
48.4866
43.1873
38.4792
34.6838
31.5808
29.1039
855.664
-228.464
-50.2167
-242.814
-146.521
-78.1787
8.93095
36.6082
47.3434
49.0542
53.7748
52.3855
47.8904
42.798
38.4367
34.9017
31.9886
29.6749
859.176
-289.996
-83.3585
-244.92
-151.085
-79.828
-2.20036
30.106
42.3367
44.603
50.258
50.2977
46.5377
41.8482
37.8559
34.6826
32.1281
30.0434
836.038
-377.847
-98.7156
-240.008
-163.729
-88.09
-7.80272
23.1916
37.3384
39.9312
46.0975
47.5014
44.6393
40.5206
36.8103
34.0118
31.7986
29.9688
801.461
-422.061
-74.2402
-247.5
-177.11
-111.977
-14.7418
14.9379
30.9486
34.9797
41.4683
44.1035
42.3576
38.784
35.5527
33.0612
31.0703
29.4022
768.04
-436.063
-66.1521
-261.524
-185.006
-135.377
-27.6481
5.11201
23.325
29.912
36.7182
40.4724
39.7352
36.7761
34.1791
32.0825
30.3087
28.7585
736.569
-441.083
-67.0895
-263.602
-184.258
-136.036
-39.0522
-3.70873
15.8224
24.8933
32.1978
36.946
37.1245
34.7375
32.7651
31.0307
29.4455
28.0182
709.216
-440.263
-57.1476
-250.396
-173.649
-124.146
-44.4989
-8.37868
10.2921
20.6181
28.2909
33.7388
34.7361
33.1508
31.4212
29.9107
28.4854
27.2035
685.971
-432.136
-24.8881
-206.221
-163.352
-110.268
-43.8706
-9.3302
7.66137
17.6231
25.1384
30.8888
32.4521
31.4961
30.0761
28.7024
27.4009
26.2805
669.02
-405.638
40.008
-149.02
-152.059
-91.0025
-38.5449
-8.69356
6.71683
15.519
22.4531
28.1383
30.1087
29.7223
28.6691
27.4837
26.3549
25.4137
654.524
-363.297
89.6969
-144.385
-132.322
-66.8867
-28.5698
-5.62849
6.88022
14.1709
20.1975
25.5304
27.8006
27.9511
27.3226
26.416
25.5013
24.7434
643.852
-345.95
86.6259
-128.892
-89.3233
-40.5448
-15.3549
-0.249053
8.0577
13.1403
18.2868
23.0611
25.525
26.1529
26.0107
25.4508
24.7975
24.2328
637.455
-341.229
110.083
-80.1535
-50.1425
-21.0529
-4.51658
4.84474
9.22834
13.1654
16.9049
20.7593
23.2175
24.3355
24.6516
24.5025
24.1747
23.8436
628.168
-328.513
130.919
-62.6398
-19.0522
-2.1329
1.06646
5.20575
9.56357
13.0575
16.3728
19.2402
21.3776
22.691
23.3482
23.5585
23.5453
23.462
612.781
-321.89
136.543
-49.3654
-0.156247
7.28622
5.47409
7.44228
10.7625
13.7191
16.3558
18.5244
20.2127
21.4243
22.1758
22.5913
22.8089
22.9368
596.122
-308.656
155.851
-42.5564
7.50829
11.1987
8.13955
9.77675
12.6736
14.9184
16.766
18.2992
19.5782
20.5948
21.3133
21.8125
22.1629
22.4251
584.349
-299.42
155.342
-43.1888
17.9897
14.5821
10.2562
11.2983
13.7452
15.6702
17.1319
18.3316
19.3493
20.1883
20.8412
21.339
21.7074
21.987
576.87
-295.044
157.763
-39.0155
24.2174
16.7836
11.7122
12.5588
14.7877
16.5453
17.6687
18.4656
19.2396
19.9418
20.4701
20.9569
21.4624
21.88
573.031
-293.666
157.081
-35.4421
24.2529
17.844
12.8039
12.9887
14.3766
15.4112
16.3105
17.2699
18.2777
19.1053
19.5484
19.7845
20.1591
20.8246
572.222
-292.964
153.762
-31.735
21.9079
17.9325
13.6255
13.2789
14.4715
15.5192
16.1601
16.6468
16.9243
17.2442
17.7608
18.5016
19.696
20.931
572.21
-294.322
149.696
-26.1671
18.2
17.6391
14.7957
14.7516
15.3172
15.6108
15.8477
15.8646
16.1315
16.6738
17.3551
18.4441
19.4565
19.6612
576.461
-298.624
137.052
-20.3641
17.7282
17.3829
15.6267
15.2651
15.3676
15.0787
14.5706
14.9964
16.4583
17.1366
16.8997
17.5677
18.5962
18.3515
583.596
-305.587
120.053
-16.0363
17.6404
16.6825
16.3825
15.1353
15.0238
14.7883
14.9294
15.7239
15.698
13.9511
12.883
14.0574
16.5341
18.4253
591.383
-314.603
100.071
-13.6897
18.1597
14.5501
17.4759
15.0423
14.8541
15.7147
16.6693
16.5897
14.8337
11.3567
8.58811
8.4659
12.107
16.0579
598.594
-325.441
77.3025
-12.3199
19.2919
13.6028
19.6856
15.605
14.7337
14.7696
17.0024
17.6013
14.0586
8.57855
6.15732
7.43028
11.5918
16.0405
605.085
-335.484
52.8106
-11.5997
18.986
10.1948
21.2501
16.8587
13.1957
12.456
16.3028
17.3437
13.4446
9.37793
8.36124
10.5304
13.5407
21.0151
606.884
-343.46
33.2039
-10.9089
21.1479
8.97181
25.9476
18.5826
11.6534
12.8199
19.6498
20.8988
17.2679
13.4311
12.0401
13.9376
17.6995
23.8074
603.654
-357.538
16.4014
-11.7082
18.0479
8.27364
28.926
19.3343
11.0276
11.6524
20.9342
25.7764
22.88
17.2098
13.2305
12.1037
13.9918
19.9438
601.817
-336.021
10.3608
-13.5564
24.2108
9.27159
29.6964
20.9312
12.143
11.9201
20.0713
26.0265
24.7566
19.2988
15.7463
14.8849
15.7566
19.8007
842.463
-221.764
-42.8177
-213.102
-144.232
-65.2051
28.8531
42.6619
53.394
54.6405
57.6073
54.5373
49.3294
44.0349
39.6335
35.9362
32.8086
29.1661
849.767
-236.525
-50.1519
-213.42
-152.522
-75.3348
21.9866
40.0859
51.9421
52.9791
56.5674
53.9872
48.8909
43.6327
39.2486
35.7397
32.6116
29.8473
860.906
-278.611
-65.6853
-218.325
-163.413
-90.5651
11.3014
35.6724
48.3762
49.5705
54.4035
52.7855
48.0535
43.0494
38.9605
35.6062
32.7023
30.1969
851.274
-337.138
-79.4442
-219.279
-176.229
-101.412
1.27502
30.7784
44.0149
45.2701
51.0569
50.8339
46.6904
41.837
38.0294
35.0781
32.487
30.1474
821.349
-398.848
-79.0641
-210.101
-177.463
-110.679
-6.52795
24.7714
39.5925
40.7192
46.8422
48.0287
44.8473
40.4767
36.8732
34.2559
32.0158
30.1224
785.502
-432.248
-62.4794
-214.516
-187.386
-129.524
-14.8566
17.3912
33.3405
35.8747
42.1395
44.5395
42.3862
38.6982
35.6108
33.2764
31.2658
29.5275
752.513
-439.669
-52.4201
-233.515
-218.709
-157.73
-28.1423
8.16535
25.2298
30.6244
37.2462
40.7588
39.64
36.6387
34.1605
32.3494
30.5913
28.9893
725.555
-440.57
-45.6398
-241.958
-238.889
-177.749
-43.6223
-2.32046
16.5562
25.3555
32.5866
36.9964
36.8699
34.6415
32.6787
31.2585
29.7297
28.2173
702.875
-436.297
-27.0532
-230.159
-238.385
-173.26
-54.3242
-12.0312
8.59489
20.5424
28.5355
33.5812
34.2478
32.8072
31.2847
30.0726
28.7345
27.3836
684.418
-423.205
11.7988
-192.57
-214.21
-142.53
-54.2059
-18.2805
2.85583
16.9488
25.3462
30.6141
31.8717
31.0641
29.8605
28.7811
27.6213
26.4428
671.238
-398.167
58.0543
-142.527
-167.53
-93.8399
-45.974
-18.9466
1.67759
15.1002
22.9144
27.8893
29.5547
29.3096
28.421
27.4571
26.4171
25.4503
659.709
-368.289
97.7528
-105.284
-105.031
-61.1234
-38.977
-15.0631
4.38604
14.627
21.028
25.4632
27.3908
27.6254
27.1024
26.3413
25.4702
24.6836
644.543
-345.056
115.421
-90.528
-68.8625
-43.2752
-30.1982
-6.7785
8.07674
14.6145
19.2804
23.1814
25.3004
25.9611
25.8335
25.3264
24.7088
24.1236
632.747
-339.091
111.419
-71.203
-45.335
-29.0272
-11.4378
3.56671
10.1686
13.8583
17.538
20.9374
23.1514
24.2162
24.5197
24.3907
24.0758
23.7447
624.65
-327.84
135.364
-61.9724
-24.1639
-2.20109
2.67699
5.79185
9.95743
13.3979
16.5517
19.3248
21.3658
22.6362
23.276
23.4857
23.4774
23.3989
612.075
-317.392
138.292
-47.0146
2.30917
10.3035
7.24187
8.41119
11.3226
14.0408
16.5382
18.594
20.2082
21.3833
22.1313
22.5524
22.775
22.9046
596.006
-308.474
156.424
-42.3053
7.41371
11.5029
8.38791
9.93044
12.7908
15.0136
16.8172
18.3128
19.5699
20.5753
21.2942
21.7833
22.1277
22.3913
584.472
-299.351
155.621
-43.0804
18.6076
15.1733
10.532
11.4503
13.8381
15.7202
17.1654
18.3718
19.3846
20.2
20.864
21.3113
21.6645
21.9379
577.06
-295.249
157.883
-38.805
24.3027
16.8304
11.8027
12.6251
14.8481
16.6176
17.6344
18.3094
19.1306
19.9365
20.5151
20.9516
21.3587
21.6877
572.804
-293.476
157.079
-35.6327
23.9704
18.0728
12.9563
13.0285
14.3316
15.4535
16.6288
17.6333
18.3296
18.7363
18.9438
19.1454
19.6574
20.5324
571.502
-292.729
154.042
-31.8915
21.0372
18.1568
13.7988
12.9947
13.9739
15.091
15.4354
15.4256
15.4428
15.7903
16.346
17.4137
19.1625
20.6762
571.784
-294.249
150.222
-26.1457
17.3574
17.9714
14.7063
14.2257
14.018
13.5938
13.6313
13.6072
14.0475
14.9286
16.3265
17.8366
18.8828
19.3797
576.257
-298.254
138.431
-20.5166
16.719
17.891
15.6276
14.6237
13.205
12.1587
11.8955
12.9145
14.72
15.8864
16.4334
16.9223
16.9832
17.0247
583.443
-303.965
123.109
-16.0782
16.9074
17.1304
16.0713
13.969
12.007
12.4122
13.8343
15.2528
16.0344
15.7063
15.6899
16.5558
17.3046
17.6969
591.992
-310.445
105.967
-12.7218
17.4066
15.6822
16.8523
13.4709
13.0282
15.8882
16.8504
16.9259
15.6664
12.5407
10.2715
9.60873
10.885
14.0907
600.969
-317.58
89.1285
-9.54751
17.713
14.2934
18.4739
16.0232
15.6423
16.2387
18.1516
20.7078
17.4161
11.0654
8.55124
9.84421
11.2679
12.7122
605.777
-324.775
74.323
-5.75262
17.5278
12.3815
19.6137
20.6561
17.7442
14.625
16.4354
16.0174
11.3666
8.07433
9.25372
11.6841
11.1272
11.7847
599.814
-331.239
62.7462
-1.1687
17.3574
9.55508
22.504
24.2212
19.6558
15.9322
17.8679
16.3343
10.1228
6.32391
9.46849
13.3827
15.8528
18.2524
594.084
-339.2
52.0643
0.355769
17.8635
6.81096
21.4215
23.7369
21.1552
20.7861
22.3183
20.9112
13.8199
8.56451
12.2892
14.7696
13.0838
12.3587
593.664
-339.162
40.877
-2.86438
23.9612
11.2284
23.4006
23.5634
21.1648
20.8196
23.2028
23.7201
18.1862
14.1263
13.6243
14.3324
13.7814
14.3146
844.909
-215.634
-47.5848
-199.39
-132.301
-73.7161
10.5151
33.0115
50.165
53.9228
59.265
56.6873
51.0222
44.9634
39.8223
35.898
32.8203
30.152
851.977
-228.734
-56.6925
-197.616
-135.907
-78.927
6.79364
30.6182
47.9739
51.9026
57.8469
55.8804
50.4008
44.3603
39.1448
35.1583
32.0466
29.3037
860.129
-270.627
-68.5005
-197.727
-141.217
-84.8066
1.69251
27.5126
44.8801
48.4178
55.3052
54.3373
49.4721
43.7879
38.8039
34.8235
31.4763
28.5539
854.441
-337.268
-83.2881
-194.75
-149.558
-91.7776
-4.53767
24.1445
41.2335
44.006
51.6226
52.0462
48.0424
42.7731
38.1864
34.5604
31.3021
28.2936
824.754
-398.109
-82.3032
-192.711
-159.3
-101.834
-12.5388
19.6205
37.068
39.1918
46.9196
48.8823
46.0545
41.3832
37.216
34.2639
31.485
28.5965
787.709
-426.398
-60.9392
-197.178
-170.824
-115.457
-22.0331
11.9186
31.2799
34.1529
41.6446
45.057
43.4111
39.4882
35.8506
33.1055
30.895
28.7415
752.968
-428.46
-48.6172
-211.422
-190.983
-135.064
-33.9783
2.21425
24.4075
28.9257
36.2567
40.9866
40.5761
37.3339
34.2201
32.0677
30.3326
28.3754
725.082
-425.909
-45.4311
-227.701
-218.17
-161.649
-50.7638
-7.09392
17.7544
24.3645
31.3134
36.9868
37.6976
35.3248
32.7205
30.9404
29.5122
27.842
702.362
-422.423
-38.1375
-233.152
-232.163
-179.925
-69.9658
-14.913
12.7472
21.4119
27.4176
33.5014
34.9939
33.4101
31.3611
29.9471
28.6932
27.1989
683.252
-413.636
-13.522
-214.483
-222.664
-172.494
-77.5624
-18.1099
10.2598
19.5228
24.8105
30.5676
32.5132
31.5888
30.0172
28.7625
27.5433
26.1988
668.262
-397.981
29.9218
-167.162
-182.991
-132.247
-61.3486
-13.177
10.5352
18.9523
22.9027
27.9082
30.0054
29.6537
28.5187
27.3874
26.2164
25.0043
658.087
-378.984
76.6363
-109.042
-135.363
-87.8219
-37.7271
-5.68442
10.8633
17.5639
21.1174
25.4865
27.6531
27.7931
27.063
26.1177
25.1302
24.1453
647.505
-356.738
111.277
-77.3045
-100.512
-44.4766
-10.5876
5.01925
12.3073
15.7867
19.1616
23.1283
25.3924
26.0008
25.7098
25.0788
24.3319
23.6331
636.698
-342.228
120.74
-59.4967
-39.6917
4.73587
11.4454
12.1936
12.0111
13.5002
17.0704
20.7698
23.1239
24.1731
24.3894
24.1745
23.8109
23.4151
624.031
-323.353
137.854
-58.231
-13.6797
11.2534
10.8138
8.85701
10.3432
13.0718
16.255
19.1832
21.2995
22.5705
23.173
23.351
23.3223
23.2369
610.189
-318.408
135.793
-45.6529
3.55735
13.1863
9.73027
9.87838
11.7764
14.0602
16.4474
18.5149
20.1377
21.3265
22.0879
22.5085
22.722
22.839
595.989
-308.295
156.529
-41.0055
9.51397
12.529
8.79287
10.0354
12.7506
14.9445
16.7571
18.2728
19.5468
20.5543
21.2691
21.7543
22.0972
22.3602
585.032
-299.882
155.238
-42.7103
19.2561
15.3385
10.5892
11.5518
13.8906
15.7276
17.1699
18.3859
19.3794
20.139
20.6931
21.1653
21.5286
21.8288
577.311
-295.611
157.996
-38.4323
24.3527
16.8819
11.9129
12.6873
14.9026
16.6534
17.5709
18.2356
19.1627
19.9569
20.3853
20.6778
21.0286
21.4363
572.136
-292.921
157.048
-36.2726
23.1323
18.2252
13.0798
13.0538
14.3467
15.6915
17.0188
17.8098
18.0339
17.9278
17.7827
17.9297
18.6363
19.7655
569.895
-291.935
154.874
-32.7318
19.1638
18.1994
13.9111
13.0446
14.2495
15.2323
15.0074
14.5623
13.8233
13.2688
13.8147
14.9849
17.2338
19.3675
570.705
-293.76
150.391
-25.9035
16.1134
18.2829
14.9268
14.1923
13.8766
12.5524
11.8782
11.3646
10.8521
12.0274
14.2379
16.4404
18.0285
19.0878
575.663
-297.634
138.835
-19.9386
15.4111
18.3317
15.7628
14.7308
12.4952
10.0967
10.0518
11.2885
13.0233
14.687
16.1065
16.8997
17.104
17.5725
583.084
-302.633
123.697
-15.4006
15.9493
17.7515
16.4028
15.2989
12.1534
11.8252
13.3007
15.4233
17.1382
18.0947
19.2569
19.8939
19.1293
17.855
592.049
-308.098
106.101
-11.695
16.5859
16.7477
17.7227
14.9579
13.4108
17.197
18.1044
19.0301
18.3707
16.5951
15.6114
14.122
11.5065
11.633
602.204
-314.751
87.8553
-8.28422
16.6081
15.1202
18.987
16.2887
14.7919
14.2891
13.9565
19.3716
22.1475
19.0346
16.0587
15.7342
13.3844
11.0209
609.554
-323.303
69.8
-4.65743
16.8345
13.9473
20.3225
19.72
17.2496
15.5387
14.0021
10.8023
9.53342
12.0393
15.1333
16.1355
12.9261
7.55214
607.218
-329.755
51.9429
-4.18344
15.1534
10.7997
19.767
21.1378
20.2597
19.3565
17.1836
8.61843
1.24209
4.32248
12.8867
17.0951
17.3045
17.0225
603.423
-350.625
43.9446
-2.1184
12.7611
10.5281
19.9098
21.8933
17.9732
19.4979
19.6791
11.5234
2.94926
7.05326
15.9546
20.7959
19.4097
15.5657
601.103
-357.445
42.0747
-3.62398
15.9076
13.9169
21.4491
23.1784
19.4368
19.0894
19.9921
15.24
10.326
11.9676
16.0624
18.7068
19.7714
18.4791
836.798
-218.083
-39.6035
-217.847
-133.143
-72.7463
5.41864
27.3613
42.8634
49.8872
58.9292
56.8145
51.727
45.7111
40.2719
35.921
32.3276
29.9875
844.127
-226.335
-45.8417
-220.548
-138.817
-76.6979
2.36228
25.456
40.7396
46.6345
56.8388
55.7977
51.2599
45.3855
39.7495
35.398
31.9015
29.0054
854.562
-258.42
-51.9605
-228.642
-147.482
-79.0398
-1.67547
23.5561
36.6041
42.336
53.6582
53.9239
50.4056
45.0166
39.5296
35.0198
31.396
28.4131
849.714
-310.444
-61.4252
-239.17
-163.83
-80.7779
-6.69214
21.2527
35.0853
38.3255
49.9098
51.3841
49.0454
44.5113
39.473
34.9705
31.3646
28.3067
828.058
-373.859
-67.5193
-242.382
-173.418
-86.128
-11.3381
16.6904
34.3228
34.8987
45.3938
48.3636
46.8958
43.1962
39.142
35.505
31.9211
28.849
792.061
-415.589
-55.0995
-245.383
-186.205
-96.8071
-16.1377
11.1164
29.7465
31.3258
40.2925
44.9367
44.4615
41.2596
37.6045
34.6576
32.2934
29.8665
756.377
-422.333
-37.3595
-264.25
-213.478
-114.261
-25.7439
4.42369
23.9369
26.7629
35.0723
40.9942
41.7701
39.1262
35.8661
33.2102
31.1636
29.0599
728.454
-418.041
-33.1651
-281.507
-241.902
-139.664
-39.5629
-2.63858
17.0219
22.8161
30.5764
37.2518
38.9895
37.0396
34.1006
31.868
30.1979
28.4104
705.392
-416.211
-41.701
-292.576
-255.316
-159.949
-53.7909
-8.48621
11.0579
18.3351
26.759
33.7871
36.2154
34.931
32.5649
30.7919
29.3058
27.7083
684.126
-416.765
-49.4637
-291.455
-244.874
-157.444
-58.3175
-10.7413
7.55981
14.9542
23.4621
30.5041
33.4132
32.7275
31.0191
29.4581
28.0134
26.472
664.96
-416.764
-41.4499
-255.368
-199.608
-123.211
-47.862
-8.49059
6.66503
12.5541
20.5917
27.3024
30.4711
30.3638
29.1015
27.7091
26.2972
24.8522
649.582
-410.373
-7.70502
-176.011
-141.803
-77.2675
-28.7029
-4.31062
6.5396
11.5858
18.4495
24.5936
27.8001
28.1858
27.3444
26.1741
24.9445
23.6936
639.784
-388.963
57.5572
-89.2164
-84.9455
-32.1752
-6.57521
2.69356
7.75572
11.2781
16.7312
22.2209
25.3673
26.1917
25.7912
24.9418
24.0006
23.0822
633.153
-356.398
113.051
-32.3986
-34.068
2.26189
8.02758
6.8894
7.89009
10.8485
15.4404
20.0959
23.0257
24.2178
24.3236
23.968
23.4612
22.9528
622.378
-328.443
136.373
-36.8802
-12.7886
9.42837
9.01029
7.46728
8.77385
11.7446
15.3885
18.8147
21.2101
22.5226
23.0594
23.1785
23.1104
22.9696
608.429
-315.188
138.531
-43.7231
2.26143
12.4996
8.87232
8.81583
11.0721
13.557
16.0859
18.3251
20.0542
21.2797
22.0433
22.4516
22.6494
22.7509
595.905
-307.389
155.785
-41.1359
10.2332
12.5038
8.66561
9.88935
12.5598
14.7721
16.6395
18.2069
19.5017
20.521
21.2444
21.7216
22.0535
22.309
585.467
-300.233
155.684
-41.8512
19.5521
15.1639
10.4783
11.542
13.8592
15.6787
17.1515
18.3997
19.3736
20.0952
20.6354
21.0541
21.4144
21.7355
577.403
-295.77
158.029
-38.1961
24.3466
16.911
11.9388
12.7244
14.9379
16.6349
17.538
18.3361
19.384
20.1379
20.3628
20.402
20.5816
21.0105
571.173
-292.172
157.009
-37.3079
22.3463
18.3737
13.0771
13.0981
14.5279
16.0608
17.3983
18.1382
18.2115
17.5339
16.6023
16.3336
17.0564
18.4883
567.806
-291.045
155.583
-33.2452
17.0371
18.43
14.028
13.6674
15.3581
16.1345
15.3021
14.657
13.7771
12.0214
10.8145
12.2024
15.0843
17.8177
569.375
-293.316
150.194
-24.5599
14.8383
18.6433
15.1711
14.7978
15.9472
13.923
12.2022
11.7348
11.3324
11.3967
12.9454
15.2698
17.0482
17.9961
574.943
-297.228
138.17
-18.5099
14.384
18.8457
16.2105
15.8231
15.0508
12.0677
10.6797
12.1525
13.6375
14.8197
16.2234
17.4106
17.8179
17.8766
582.761
-302.507
121.835
-13.9257
15.0961
18.3321
16.5484
17.5209
15.228
12.8792
12.1667
15.1409
18.0811
19.8623
21.814
22.8692
22.0075
20.3839
591.37
-308.989
100.874
-10.7469
16.2436
17.2032
17.8428
18.2255
16.6068
16.7572
19.5617
24.9579
25.3669
22.1848
22.3116
22.8188
17.5721
14.1069
599.961
-317.185
76.6391
-8.47618
16.3243
15.0387
19.3655
19.3684
17.1727
11.5956
7.57256
11.541
20.7594
23.4041
22.3598
20.9011
18.5518
15.2152
608.863
-329.022
47.4818
-6.73199
16.5669
13.2017
21.7892
21.2321
16.7648
9.08891
2.19014
0.855579
9.60486
18.1218
21.1455
20.1006
16.3561
8.31839
616.788
-338.191
21.9483
-9.96508
12.2339
6.44505
19.2294
20.7824
17.356
12.0448
4.01021
-4.54669
-0.105178
13.026
19.6369
18.5947
16.1181
14.8805
620.499
-391.311
7.3644
-8.45281
14.8928
10.4044
21.0549
22.7214
19.6525
16.0435
8.59396
0.337215
4.3377
15.8841
20.9697
19.811
16.4655
14.6603
618.611
-379.356
16.0038
-1.55546
28.3616
16.4959
22.9602
24.1805
21.7179
20.1095
13.4237
7.66726
11.6577
20.5264
22.0344
19.5049
16.9867
17.4033
831.89
-222.487
-50.6442
-220.734
-117.548
-63.1985
4.98378
29.166
43.9622
44.0408
54.7382
53.3921
50.5374
46.0531
41.5427
37.6064
34.3409
31.4306
841.115
-228.732
-54.449
-227.602
-122.75
-65.1191
3.55889
29.8122
41.6976
42.6015
53.7604
52.5964
49.8711
45.1812
40.6039
36.8636
33.744
31.1198
855.225
-258.999
-57.88
-242.617
-128.825
-64.0031
1.08375
33.9399
41.6713
42.3162
53.6903
53.6026
50.4033
45.3469
39.8753
35.6363
32.4743
30.0157
849.205
-299.147
-72.8795
-255.825
-128.94
-62.4787
-3.8944
37.1464
47.0547
40.444
52.2995
52.8861
50.6919
46.2641
40.5165
35.6425
31.8352
29.0853
824.821
-354.719
-81.9259
-258.886
-133.763
-65.0845
-8.80708
33.1482
48.8988
37.8064
48.5236
50.7496
49.4006
45.8386
41.3244
36.4711
32.0267
28.7126
788.65
-396.062
-69.5065
-269.306
-157.225
-76.8377
-13.7179
23.5614
42.6205
35.962
43.408
47.4403
46.8871
43.9721
40.4746
37.3977
33.2285
29.3419
754.851
-402.734
-49.283
-291.621
-176.797
-88.6241
-20.9766
14.115
33.0557
32.7117
37.6576
43.0046
43.766
41.3573
38.3565
35.3886
32.8278
29.6565
731.353
-398.372
-43.7072
-287.37
-191.79
-103.567
-30.0915
5.502
23.4952
27.0661
32.2411
38.5231
40.4774
38.7256
36.4717
33.7657
31.5913
29.1592
714.209
-398.462
-45.3086
-295.452
-197.848
-118.079
-40.9464
-2.3152
15.3357
21.685
27.4582
34.2114
37.1946
36.1634
34.1472
31.9123
30.0724
28.2457
700.911
-404.898
-52.5893
-291.428
-180.852
-113.387
-45.3691
-8.12134
8.9317
16.4615
22.9278
30.0605
33.8086
33.4909
31.7661
30.1101
28.245
26.5898
689.315
-419.278
-64.5594
-270.55
-149.558
-89.7998
-40.3394
-10.2107
4.77729
12.0365
18.7883
26.1818
30.4277
30.7218
29.4562
27.9394
26.3377
24.7616
667.567
-432.863
-57.1081
-230.127
-120.094
-61.1195
-27.867
-7.76576
3.26407
9.27924
15.8519
23.1727
27.5293
28.3043
27.5177
26.301
24.9221
23.5537
645.349
-424.995
-0.0622531
-136.691
-81.7907
-30.7246
-11.1001
-1.76727
3.96126
8.33655
14.0065
20.8212
25.0012
26.1755
25.8448
24.9729
23.9325
22.9199
631.755
-376.509
89.9014
-60.2078
-44.2741
-7.04334
1.44262
2.96824
4.97114
8.28966
13.4643
19.0742
22.6804
24.1124
24.2747
23.9088
23.3547
22.784
619.952
-328.986
129.477
-50.8744
-19.7066
2.59803
4.34393
4.78576
6.94092
10.1833
14.2626
18.2208
20.9478
22.3928
22.9664
23.077
22.9917
22.8434
607.074
-314.761
134.141
-46.3259
-2.11487
8.88052
6.92878
7.94509
10.4711
13.0158
15.6556
18.0809
19.9488
21.2153
21.9827
22.3932
22.5918
22.6916
596.009
-306.75
154.688
-42.627
10.0559
12.0339
8.26843
9.57393
12.2733
14.5359
16.48
18.1249
19.4635
20.5001
21.2202
21.6865
22.0092
22.2646
585.707
-300.451
155.408
-41.9236
19.2999
14.6157
10.2432
11.437
13.7789
15.6078
17.0928
18.3691
19.3606
20.0894
20.6211
21.001
21.3122
21.6333
577.301
-295.817
157.858
-38.2295
24.2341
16.8827
11.8793
12.702
14.8843
16.6251
17.6316
18.5307
19.6903
20.4397
20.4721
20.3132
20.3923
20.7898
570.204
-291.46
156.845
-38.336
21.6198
18.5447
12.9456
13.131
14.6349
15.9254
17.6073
18.793
19.2524
18.8136
17.8012
17.1798
17.4622
18.3965
566.198
-290.775
155.995
-31.436
15.2771
18.8816
14.1941
13.6568
15.147
16.8371
16.7862
15.9836
15.2343
14.1887
13.3847
13.8568
15.27
16.8332
568.563
-293.618
149.631
-22.1341
14.0093
19.1173
15.4092
14.7383
15.8866
16.5528
15.1446
13.8991
14.024
14.0361
14.8162
16.2173
17.1976
17.3511
574.776
-298.072
136.435
-17.1135
14.1715
19.4321
16.8063
15.5236
15.6549
14.7322
13.9377
13.4578
14.5142
15.6908
17.2472
18.8129
19.0279
18.0322
583.097
-305.086
117.65
-12.8931
15.462
18.8299
17.8249
17.5798
16.0741
15.8912
14.7725
14.8761
17.5851
20.2007
23.3347
25.2445
25.2637
23.5171
591.409
-314.961
90.7976
-10.708
17.4957
17.1244
18.5366
18.357
14.8712
12.0088
13.6582
21.3181
26.5352
25.0921
26.4865
30.5511
30.6974
23.0236
601.571
-328.818
56.3637
-10.4801
18.5256
14.7924
20.025
19.5676
14.4281
6.48121
5.65215
11.7535
20.4168
23.1539
22.9697
22.2231
20.4387
19.7387
622.147
-349.513
19.0538
-12.2848
18.5768
12.4933
24.0789
22.0798
15.0404
2.89677
-2.91599
3.15833
15.6284
22.1096
22.3427
20.9728
16.5182
12.4054
647.242
-376.683
-4.77003
-18.5345
11.6375
8.02052
22.4072
20.7196
15.6898
4.89865
-2.83569
2.10388
14.0074
20.1422
20.2288
16.2603
11.7384
10.0966
651.482
-408.682
-7.26074
-16.3741
9.78809
9.87709
24.8681
23.4023
21.1031
11.2265
1.72789
6.20696
17.7577
20.9453
19.0245
14.5543
10.4503
9.07385
646.368
-357.036
20.5288
-2.90121
15.0627
10.9304
26.0528
27.6389
25.3111
16.1173
7.49743
12.6836
23.3528
23.0154
19.106
14.6031
10.7378
8.97141
810.951
-289.801
-29.0176
-201.869
-112.493
-54.0214
6.269
33.6981
46.6039
44.6091
55.2011
53.4564
50.2308
45.3962
40.4222
36.1699
32.9778
30.2213
819.331
-276.858
-36.9178
-219.051
-117.655
-55.4531
4.55068
35.5383
44.5319
43.5859
54.6047
52.7604
49.3571
44.2743
39.75
35.657
32.4951
29.9687
830.917
-284.577
-42.8339
-238.332
-122.291
-55.116
1.67492
39.5925
45.6186
42.9889
54.2685
52.9715
49.415
43.9228
38.7052
34.6194
31.7174
29.3613
829.657
-313.129
-53.2664
-248.365
-123.85
-58.1217
-4.48057
39.1447
50.3405
39.8772
52.2366
52.3643
49.5325
44.5845
39.0762
33.9902
30.7824
28.2801
807.702
-349.17
-61.0246
-248.921
-128.271
-65.8824
-11.672
31.0138
46.8983
37.3401
47.6477
50.092
48.1542
44.2358
39.44
35.101
30.7678
27.666
777.808
-372.862
-51.3498
-252.797
-137.191
-73.1932
-18.2812
20.5207
40.1753
35.7975
42.7131
46.7999
46.198
42.7418
38.6261
34.8373
30.9871
27.6319
752.326
-377.542
-42.6782
-249.405
-140.514
-74.2405
-21.2386
12.5709
32.6848
32.8002
37.6142
42.8878
43.621
40.9805
37.1127
33.8389
30.7522
27.7866
733.755
-376.012
-41.3026
-239.68
-142.853
-82.3186
-25.5182
5.96297
24.7481
28.4348
32.8171
38.6671
40.5959
38.7278
35.3478
32.5796
30.0988
27.6846
722.182
-376.678
-37.0054
-237.671
-138.642
-90.3927
-33.293
-1.13989
16.1741
22.4658
28.0225
34.7071
37.5403
36.2818
33.6067
30.9374
28.9232
27.0299
717.21
-374.023
-28.2932
-240.195
-118.409
-83.5828
-37.2176
-7.12432
8.30227
15.3426
22.785
30.5704
34.2998
33.6827
31.4609
29.0701
27.3053
25.6875
714.929
-380.377
-44.6906
-235.786
-91.0079
-63.7232
-34.6441
-10.7283
2.52157
9.41905
17.6201
26.3733
30.9384
30.9291
29.2145
27.3802
25.7339
24.2051
693.293
-428.549
-61.1868
-229.102
-81.6385
-47.2279
-27.3528
-10.4717
-0.371406
5.60761
13.8215
22.906
27.9463
28.5275
27.3462
25.8914
24.4706
23.1702
659.264
-448.677
-29.9533
-163.832
-69.9362
-29.713
-16.2653
-6.63715
-0.380936
3.9657
11.7693
20.3516
25.2955
26.3773
25.7467
24.6649
23.5469
22.5576
635.119
-395.915
70.6002
-80.0998
-46.2485
-12.9991
-5.20669
-1.71991
1.49483
5.36458
11.743
18.6087
22.801
24.2294
24.2262
23.7306
23.124
22.5602
620.462
-334.99
123.327
-51.3631
-24.1677
-1.96595
1.06989
2.72224
5.27652
8.74342
13.3499
17.9194
20.9391
22.4245
22.9669
23.0455
22.9397
22.7832
607.016
-314.639
132.238
-49.0427
-4.38992
6.72368
5.27499
6.75148
9.66778
12.4175
15.2928
17.9322
19.9217
21.2279
21.9997
22.4028
22.5913
22.6838
596.279
-306.511
153.524
-43.0055
10.1236
11.6244
7.84426
9.21857
11.9733
14.296
16.3286
18.0639
19.4495
20.4986
21.2261
21.7002
22.0228
22.2701
585.806
-300.629
155.288
-41.8905
19.135
14.3461
10.0611
11.289
13.6674
15.5397
17.0355
18.3322
19.3627
20.1036
20.642
21.0249
21.3341
21.6557
577.062
-295.712
157.593
-38.4268
24.1735
16.8711
11.7619
12.6119
14.8209
16.6549
17.721
18.5174
19.6438
20.5185
20.672
20.4384
20.2989
20.4887
569.6
-290.981
156.72
-38.6953
21.2576
18.7158
12.8248
12.9968
14.6668
15.7297
17.7993
19.1322
19.2879
19.1115
18.5559
17.7323
17.4647
18.0403
565.934
-291.403
155.653
-28.1738
14.9296
19.1253
14.4401
13.624
15.132
16.8893
17.2925
16.861
16.3878
15.9354
15.6037
15.6975
16.4491
17.5093
568.572
-293.853
148.893
-21.8413
14.2877
19.3414
15.9026
15.4465
15.2265
15.6224
15.9406
15.4445
14.9535
15.5726
16.6127
17.7672
18.6997
18.9414
575.212
-299.234
134.167
-16.8948
14.858
19.3758
17.1478
15.6125
15.0076
13.2011
14.0672
14.9888
15.0098
15.9947
17.9346
19.7859
20.2363
19.4347
583.965
-307.984
112.919
-13.0356
16.5195
18.6508
18.868
17.2831
15.5692
13.1825
15.2217
16.37
17.3743
19.1768
23.0503
26.4538
26.5022
25.1563
593.109
-321.224
78.5084
-12.5626
19.5803
16.3451
19.9868
17.7293
13.2805
9.82586
11.1278
17.2234
21.1159
22.4421
24.8874
29.9283
33.7851
32.8268
608.925
-344.366
37.7324
-16.3681
21.0775
12.3299
21.9524
18.9466
9.68889
1.7672
4.25258
14.2789
20.097
20.9294
22.4661
23.619
20.5823
19.796
641.894
-377.509
-8.44275
-20.918
19.1324
11.1737
27.1548
20.4625
7.22532
-3.65779
-2.48058
9.48688
18.4052
21.5354
23.0722
21.7974
15.1028
13.4466
673.534
-365.975
-27.4279
-29.5021
12.2902
9.54217
27.5411
19.2107
7.05398
-3.07865
-1.88919
10.0217
16.6817
19.9028
22.2671
17.0775
6.44881
4.01451
680.761
-315.093
-2.02812
-29.6673
7.35203
10.2802
30.0534
26.4473
14.6794
2.68167
2.77727
13.5502
17.0914
17.6093
19.6205
11.5673
-0.154369
-0.640202
675.39
-250.169
49.4407
-11.6174
24.4738
14.6984
30.4901
33.6895
22.1652
7.96568
7.16653
17.4555
19.2309
18.5785
17.9936
8.4329
-1.77134
2.4911
834.826
-224.933
-57.9089
-200.795
-109.037
-63.4942
2.21887
26.1696
41.3766
45.9403
57.3552
55.9222
53.0734
48.2281
42.9325
38.0096
33.7945
29.5606
840.454
-234.229
-63.5177
-201.955
-111.816
-66.0184
-0.910425
25.1395
40.9636
42.3269
54.7645
53.9661
51.3826
46.8618
41.9513
37.4745
33.5543
30.0699
844.478
-263.652
-67.9359
-205.817
-117.294
-67.9469
-5.74346
23.4452
36.3891
40.0684
52.4467
52.5446
49.9417
45.1302
40.0653
35.8994
32.7518
30.0287
840.053
-309.884
-70.1688
-211.594
-125.436
-70.2153
-11.7868
20.3862
34.5719
36.5805
48.8792
50.8248
49.1086
44.6228
39.2018
34.4825
31.2526
29.1194
814.114
-348.597
-62.6096
-213.421
-133.603
-77.7705
-17.6271
14.5988
32.3274
33.4257
43.7028
47.8148
47.3024
43.9178
39.1861
34.5855
30.7799
28.2072
783.065
-370.436
-41.6206
-216.641
-142.063
-86.6173
-22.6455
8.6499
28.6417
31.1326
38.8542
44.7051
45.6146
42.4544
38.3882
34.5396
31.0274
28.2049
756.788
-376.366
-22.9329
-215.461
-146.317
-87.3401
-24.5441
3.9509
24.9214
28.7009
34.4668
41.1184
43.5209
41.0953
37.2036
33.8232
30.9769
28.3803
736.234
-376.73
-13.974
-213.938
-149.264
-82.7609
-23.7046
1.22404
20.8706
26.0347
31.0481
37.9934
40.9165
39.1488
35.6513
32.6207
30.2266
28.1424
720.235
-377.615
-20.0459
-216.141
-147.23
-80.6317
-24.8546
-1.47919
15.9811
22.3139
28.0932
35.4144
38.4517
36.8613
33.7314
31.0296
28.8349
27.0789
710.27
-376.639
-32.7137
-204.329
-126.249
-73.888
-29.9477
-5.76589
9.52052
17.3747
24.4352
32.407
35.8327
34.48
31.5325
28.9883
27.0929
25.4339
713.585
-352.803
-27.96
-190.675
-84.4796
-60.3114
-33.0542
-10.7001
2.8078
10.8418
19.3592
28.5178
32.8353
31.971
29.351
27.0211
25.2093
23.7452
709.228
-384.383
-54.7668
-192.733
-64.981
-47.8245
-30.2223
-12.4983
-2.06111
4.6761
14.024
24.3298
29.601
29.5398
27.5484
25.5515
23.9237
22.7245
676.205
-450.222
-42.7599
-168.364
-64.2185
-34.2708
-21.6443
-10.3441
-3.31071
1.85393
10.8001
20.9043
26.3695
27.1039
25.9663
24.5272
23.2977
22.4154
640.97
-408.779
58.3199
-90.9042
-49.2257
-18.5378
-10.3808
-4.86635
-0.885189
3.38613
10.6436
18.6246
23.2559
24.616
24.4585
23.831
23.1739
22.6493
621.656
-338.973
120.823
-56.0157
-28.7513
-5.51447
-1.18834
1.31909
3.84671
7.46662
12.6537
17.7978
21.0598
22.5815
23.114
23.1807
23.0587
22.8995
607.274
-313.884
130.124
-52.1696
-5.70879
5.63079
4.26206
6.00082
9.05069
12.0108
15.0832
17.8729
19.9362
21.2774
22.0619
22.4614
22.6442
22.7352
596.591
-306.791
152.783
-43.3374
9.35546
11.1249
7.48553
8.96746
11.7621
14.1393
16.2381
18.0291
19.4479
20.5136
21.2525
21.7349
22.0635
22.3106
585.818
-300.763
155.188
-42.2659
18.7321
14.1287
9.88689
11.1406
13.5646
15.4988
17.0195
18.2947
19.3506
20.136
20.6787
21.0702
21.4073
21.7441
576.844
-295.421
157.548
-38.9176
24.0385
16.82
11.6036
12.4941
14.7573
16.4823
17.7678