/*--------------------------------*- C++ -*----------------------------------*\
| =========                 |                                                 |
| \\      /  F ield         | OpenFOAM: The Open Source CFD Toolbox           |
|  \\    /   O peration     | Version:  2112                                  |
|   \\  /    A nd           | Website:  www.openfoam.com                      |
|    \\/     M anipulation  |                                                 |
\*---------------------------------------------------------------------------*/
FoamFile
{
    version     2.0;
    format      ascii;
    arch        "LSB;label=32;scalar=64";
    class       volVectorField;
    location    "0.05";
    object      U;
}
// * * * * * * * * * * * * * * * * * * * * * * * * * * * * * * * * * * * * * //

dimensions      [0 1 -1 0 0 0 0];

internalField   nonuniform List<vector> 
122250
(
(9.83774 0.0380654 0.0246135)
(9.54176 0.0543784 0.0297114)
(9.23869 0.0533244 0.0321043)
(8.92938 0.0534552 0.0327777)
(8.61825 0.0546385 0.0327849)
(8.31272 0.0547422 0.0325854)
(8.01576 0.0534741 0.0322617)
(7.73315 0.0527902 0.0317312)
(7.45024 0.0543439 0.0309398)
(7.16859 0.0590013 0.0299205)
(6.86075 0.0641458 0.0287651)
(6.55365 0.0693448 0.0274725)
(6.20849 0.0710457 0.026046)
(5.89562 0.0751642 0.0243406)
(5.52092 0.0746058 0.0224037)
(5.22592 0.0891027 0.0200636)
(4.77769 0.0874147 0.0178938)
(4.53419 0.133196 0.0156911)
(10.0166 0.0553211 0.0263811)
(10.0776 0.0806932 0.0299893)
(10.113 0.0793338 0.0321433)
(10.1218 0.0812044 0.0328722)
(10.1115 0.0860609 0.0328771)
(10.0905 0.0906522 0.0326471)
(10.0559 0.093706 0.0323046)
(10.0119 0.0969838 0.0317763)
(9.95242 0.101815 0.0310041)
(9.88941 0.110366 0.0300163)
(9.81148 0.121622 0.0288932)
(9.73409 0.134874 0.0276383)
(9.63206 0.148113 0.0262469)
(9.53112 0.16086 0.0246061)
(9.39068 0.175522 0.0227492)
(9.25772 0.192729 0.0205957)
(9.06612 0.2193 0.0186718)
(8.91155 0.253599 0.0176524)
(10.0023 0.0326913 0.0272091)
(10.0312 0.055776 0.0300435)
(10.0563 0.0578289 0.0320625)
(10.0687 0.0610169 0.0329124)
(10.0721 0.0673897 0.0329746)
(10.0732 0.0743518 0.0327463)
(10.0713 0.0805481 0.0324072)
(10.0653 0.0875743 0.0319076)
(10.0525 0.0959159 0.0311883)
(10.0388 0.107176 0.0302711)
(10.0249 0.119927 0.0292176)
(10.0148 0.134897 0.0280351)
(10.003 0.150227 0.0267143)
(9.98913 0.168861 0.025205)
(9.96679 0.190257 0.0235448)
(9.93716 0.219877 0.0218146)
(9.90314 0.256779 0.0204467)
(9.86923 0.30294 0.0202737)
(10.0018 0.0283308 0.0281475)
(10.0228 0.0577494 0.0304204)
(10.0427 0.0658335 0.0321855)
(10.0523 0.0700632 0.0330599)
(10.0531 0.0764492 0.0331679)
(10.05 0.0840207 0.0329401)
(10.0448 0.0914674 0.0325976)
(10.0362 0.0995124 0.0321224)
(10.024 0.108572 0.0314558)
(10.0109 0.119349 0.0306097)
(9.99946 0.13157 0.0296314)
(9.9907 0.145765 0.0285336)
(9.98325 0.162402 0.0273187)
(9.97478 0.183002 0.0259765)
(9.96391 0.208371 0.0245667)
(9.95082 0.240457 0.023218)
(9.93929 0.277167 0.0222697)
(9.93382 0.315405 0.0222839)
(10.0013 0.0235538 0.0290292)
(10.0169 0.0520141 0.0308304)
(10.0334 0.062114 0.0323004)
(10.0427 0.0666075 0.0331552)
(10.044 0.0726372 0.0333258)
(10.0408 0.080776 0.0331265)
(10.035 0.0898206 0.0327937)
(10.0262 0.0995814 0.0323485)
(10.0145 0.109924 0.0317405)
(10.0023 0.121068 0.0309742)
(9.99139 0.133376 0.0300848)
(9.98228 0.1478 0.0290891)
(9.97348 0.165709 0.0279989)
(9.96359 0.188149 0.0268312)
(9.95137 0.216213 0.0256576)
(9.93811 0.249097 0.0246028)
(9.92507 0.285068 0.023888)
(9.91571 0.31697 0.0238411)
(10.0009 0.0196014 0.0298466)
(10.0123 0.0467204 0.0312919)
(10.0258 0.0594756 0.0324898)
(10.0346 0.0660958 0.0333003)
(10.0364 0.0731431 0.0335282)
(10.0334 0.082393 0.0333725)
(10.0276 0.093109 0.0330597)
(10.0192 0.104487 0.0326461)
(10.0088 0.115912 0.0320977)
(9.99805 0.127427 0.0314148)
(9.98855 0.139834 0.0306227)
(9.98023 0.154706 0.0297392)
(9.97181 0.173752 0.0287839)
(9.96209 0.198092 0.0277909)
(9.95037 0.227991 0.0268306)
(9.93731 0.261877 0.0260005)
(9.92371 0.297108 0.0254254)
(9.91084 0.328174 0.0253343)
(10.0007 0.0166737 0.030617)
(10.0089 0.0423571 0.0318047)
(10.0196 0.0572351 0.032761)
(10.0276 0.0658589 0.0334982)
(10.0298 0.0738307 0.0337643)
(10.0271 0.0838623 0.033657)
(10.0215 0.0958464 0.033375)
(10.0137 0.108548 0.0329985)
(10.0045 0.120832 0.0325127)
(9.99531 0.132576 0.0319175)
(9.98718 0.14503 0.0312308)
(9.97974 0.160315 0.0304689)
(9.9719 0.180538 0.0296564)
(9.96266 0.206597 0.0288347)
(9.95166 0.238303 0.0280655)
(9.93914 0.273324 0.0274148)
(9.92571 0.309304 0.0269517)
(9.91169 0.341703 0.0268611)
(10.0005 0.0145242 0.0313539)
(10.0064 0.0386516 0.0323566)
(10.0147 0.0548207 0.0331048)
(10.0217 0.0652021 0.033751)
(10.0241 0.0742671 0.0340364)
(10.0218 0.0851501 0.0339808)
(10.0166 0.0982247 0.0337431)
(10.0094 0.112051 0.0334132)
(10.0013 0.125099 0.0329945)
(9.99363 0.137164 0.032491)
(9.98689 0.149846 0.0319166)
(9.9805 0.165721 0.0312851)
(9.97346 0.187149 0.0306215)
(9.96494 0.214863 0.0299677)
(9.95474 0.248314 0.0293732)
(9.94294 0.284812 0.0288824)
(9.93002 0.32235 0.0285313)
(9.9159 0.356882 0.0284831)
(10.0004 0.0129232 0.0320675)
(10.0046 0.0355218 0.0329379)
(10.0109 0.0523536 0.0335144)
(10.0169 0.0642555 0.034066)
(10.0192 0.0746324 0.0343556)
(10.0173 0.0865957 0.0343503)
(10.0126 0.1007 0.0341686)
(10.0063 0.115376 0.0338954)
(9.99948 0.128923 0.0335524)
(9.9933 0.141254 0.0331467)
(9.98798 0.154319 0.0326906)
(9.98272 0.171055 0.0321945)
(9.97655 0.193912 0.0316817)
(9.96879 0.223412 0.0311909)
(9.95941 0.258663 0.0307619)
(9.94848 0.296832 0.0304245)
(9.93642 0.336061 0.0301951)
(9.92304 0.372788 0.0302314)
(10.0003 0.0116981 0.0327673)
(10.0032 0.0329378 0.0335444)
(10.008 0.0500815 0.0339837)
(10.013 0.0631785 0.0344465)
(10.0153 0.0747638 0.0347312)
(10.0137 0.0878586 0.0347748)
(10.0095 0.103113 0.0346554)
(10.0041 0.11875 0.0344495)
(9.99874 0.132814 0.0341885)
(9.99414 0.145288 0.0338846)
(9.99029 0.158494 0.0335504)
(9.98624 0.175791 0.0331948)
(9.98103 0.199773 0.0328363)
(9.97413 0.230849 0.0325082)
(9.96568 0.267821 0.0322425)
(9.95586 0.307746 0.0320602)
(9.94509 0.348749 0.0319675)
(9.93327 0.387713 0.0321293)
(10.0003 0.0107668 0.0334613)
(10.0022 0.030757 0.0341744)
(10.0058 0.0479221 0.0345086)
(10.0099 0.0621093 0.0348943)
(10.012 0.0750794 0.0351685)
(10.0109 0.0892617 0.0352568)
(10.0076 0.105136 0.0352072)
(10.0033 0.121045 0.0350813)
(9.99923 0.135279 0.0349114)
(9.99596 0.148118 0.0347131)
(9.99335 0.162096 0.0345013)
(9.99046 0.180651 0.0342864)
(9.9864 0.206221 0.0340839)
(9.98072 0.239012 0.0339204)
(9.97363 0.277539 0.0338212)
(9.96542 0.318882 0.0338021)
(9.95652 0.361152 0.0338652)
(9.94699 0.401703 0.0341899)
(10.0002 0.0100679 0.0340969)
(10.0016 0.0291188 0.0347707)
(10.0044 0.0461286 0.0350332)
(10.0079 0.0608698 0.0353634)
(10.0097 0.0749131 0.035629)
(10.0087 0.0904017 0.0357534)
(10.0061 0.107349 0.0357659)
(10.0031 0.123668 0.0357174)
(10.0008 0.137605 0.0356387)
(9.99917 0.149891 0.0355456)
(9.99785 0.163654 0.0354531)
(9.99588 0.18272 0.035372)
(9.9926 0.209482 0.0353149)
(9.98782 0.2439 0.0353026)
(9.98194 0.284063 0.0353564)
(9.97538 0.326939 0.0354902)
(9.96859 0.37045 0.0357074)
(9.96174 0.412305 0.0362031)
(10.0002 0.00951787 0.0347369)
(10.0011 0.0275942 0.0353863)
(10.0033 0.0444886 0.0355969)
(10.0063 0.0600403 0.0358834)
(10.0081 0.0749799 0.0361414)
(10.0076 0.090791 0.0363026)
(10.0058 0.107686 0.0363848)
(10.0039 0.12419 0.0364245)
(10.0026 0.138869 0.0364394)
(10.0022 0.152383 0.0364485)
(10.0021 0.167566 0.0364698)
(10.0015 0.187988 0.0365188)
(9.9996 0.215816 0.036607)
(9.99625 0.250988 0.036749)
(9.9919 0.29153 0.0369611)
(9.98716 0.334621 0.0372553)
(9.98257 0.378138 0.0376372)
(9.97847 0.42017 0.0383181)
(10.0001 0.009013 0.0354773)
(10.0008 0.0263269 0.036111)
(10.0027 0.0425379 0.0362831)
(10.0053 0.0580368 0.0365424)
(10.0066 0.0742452 0.0368014)
(10.0061 0.0920891 0.0370004)
(10.0055 0.110203 0.0371555)
(10.0059 0.126053 0.0372959)
(10.0071 0.138616 0.0374303)
(10.0085 0.149994 0.0375705)
(10.0093 0.164311 0.0377333)
(10.0091 0.185561 0.0379368)
(10.0079 0.2154 0.0381922)
(10.0058 0.252995 0.0385095)
(10.0034 0.29556 0.038901)
(10.0013 0.340042 0.0393794)
(9.99986 0.384069 0.0399534)
(9.99957 0.426164 0.0408528)
(10.0001 0.0084414 0.036332)
(10.0012 0.024493 0.0369621)
(10.002 0.0408494 0.0371094)
(10.0025 0.057536 0.0373535)
(10.0042 0.0738952 0.0376258)
(10.0083 0.0902139 0.0378788)
(10.0133 0.106828 0.0381261)
(10.0158 0.123115 0.0383871)
(10.0134 0.138298 0.0386586)
(10.0066 0.153234 0.0389402)
(9.99828 0.170478 0.0392577)
(9.99155 0.193161 0.0396339)
(9.98805 0.222854 0.0400796)
(9.9881 0.259268 0.0405984)
(9.99117 0.30005 0.041197)
(9.9966 0.342739 0.0418871)
(10.0036 0.384824 0.04268)
(10.012 0.42537 0.0438249)
(10.0004 0.00755947 0.0373123)
(10.0004 0.0232205 0.0379489)
(10.0002 0.0400648 0.0380912)
(10.0033 0.0552964 0.0383485)
(10.0093 0.0684478 0.0386554)
(10.0142 0.0836834 0.038968)
(10.0147 0.104065 0.0393131)
(10.01 0.1274 0.0397111)
(10.0019 0.148814 0.0401433)
(9.99341 0.166061 0.0405985)
(9.98739 0.181148 0.0410905)
(9.98557 0.198661 0.041653)
(9.9882 0.222139 0.0422965)
(9.99461 0.252911 0.0430245)
(10.0038 0.289298 0.0438409)
(10.0151 0.329051 0.0447566)
(10.0278 0.369074 0.0457826)
(10.0416 0.408349 0.0471881)
(10.0002 0.0070829 0.0384198)
(9.99937 0.0222649 0.0390805)
(10.0014 0.0360802 0.039241)
(10.008 0.0479584 0.0395326)
(10.0132 0.0622972 0.0398916)
(10.0122 0.0839199 0.0402834)
(10.006 0.111427 0.0407473)
(9.9986 0.137894 0.0412947)
(9.99325 0.157321 0.041897)
(9.99155 0.169497 0.0425361)
(9.99378 0.178971 0.0432245)
(9.99959 0.1917 0.0439916)
(10.0084 0.211356 0.044851)
(10.0195 0.238927 0.0458034)
(10.0325 0.272339 0.0468483)
(10.047 0.309228 0.0479937)
(10.0629 0.346291 0.0492492)
(10.0801 0.382591 0.0509027)
(9.9997 0.00692135 0.0396369)
(9.99997 0.0187114 0.0403427)
(10.005 0.0282872 0.0405474)
(10.0106 0.0413564 0.0408862)
(10.0105 0.0623622 0.0413066)
(10.0054 0.0905134 0.0418071)
(10 0.119835 0.0424179)
(9.99765 0.143237 0.0431279)
(9.99905 0.157227 0.0439061)
(10.0037 0.163788 0.0447385)
(10.0111 0.168211 0.0456339)
(10.021 0.176256 0.0466091)
(10.0334 0.191276 0.0476762)
(10.0481 0.214164 0.0488365)
(10.0647 0.242939 0.0500908)
(10.083 0.275367 0.0514405)
(10.1025 0.308132 0.0528912)
(10.1231 0.340292 0.054752)
(9.99937 0.00604169 0.0408937)
(10.0015 0.0119438 0.0416653)
(10.0078 0.0193886 0.04194)
(10.0107 0.0378133 0.0423383)
(10.0081 0.0656104 0.0428466)
(10.0047 0.0954942 0.0435014)
(10.0046 0.120804 0.0442891)
(10.0084 0.137617 0.0451577)
(10.0152 0.145181 0.046092)
(10.0244 0.146095 0.0471038)
(10.0355 0.145105 0.0481974)
(10.0488 0.147457 0.0493708)
(10.0644 0.15653 0.0506287)
(10.0824 0.17348 0.0519728)
(10.1024 0.196715 0.0533997)
(10.1237 0.224072 0.0549069)
(10.146 0.252297 0.0564952)
(10.169 0.280103 0.0584925)
(9.99933 0.00430954 0.0417582)
(10.0027 0.0045855 0.0425979)
(10.0091 0.0123345 0.0429465)
(10.0113 0.0361005 0.0434054)
(10.0104 0.066786 0.044014)
(10.0119 0.0936682 0.044823)
(10.0175 0.112608 0.0457619)
(10.0259 0.123415 0.0467526)
(10.0362 0.126676 0.0478015)
(10.0479 0.124046 0.0489377)
(10.0611 0.118919 0.0501608)
(10.0761 0.115924 0.05146)
(10.0937 0.118787 0.0528344)
(10.1137 0.129333 0.0542848)
(10.1357 0.146733 0.0558055)
(10.159 0.169036 0.0573912)
(10.1829 0.193144 0.0590394)
(10.207 0.217323 0.0610904)
(9.99943 0.00259427 0.0421985)
(10.0031 -0.0013057 0.0431)
(10.0098 0.00561077 0.0435178)
(10.0135 0.0309716 0.0440481)
(10.0161 0.0618962 0.0447524)
(10.022 0.0860433 0.0456719)
(10.0315 0.100713 0.0467041)
(10.0431 0.10772 0.0477722)
(10.0559 0.108252 0.0489029)
(10.0696 0.103193 0.0501306)
(10.0841 0.0949208 0.0514446)
(10.0999 0.0876307 0.0528226)
(10.1179 0.0854567 0.0542595)
(10.1384 0.0909724 0.0557586)
(10.1611 0.104108 0.0573179)
(10.185 0.123095 0.0589326)
(10.2096 0.144875 0.0605997)
(10.2343 0.167205 0.0626737)
(9.99955 0.00099369 0.0423506)
(10.0033 -0.00692861 0.043322)
(10.0106 -0.00198338 0.0438208)
(10.0169 0.0234413 0.0444441)
(10.0239 0.053681 0.0452677)
(10.0338 0.0752166 0.0462968)
(10.0459 0.0865314 0.0473891)
(10.0595 0.091 0.0484895)
(10.0746 0.0902927 0.0496643)
(10.0906 0.0844371 0.0509564)
(10.1069 0.0745211 0.0523392)
(10.1238 0.0640458 0.0537762)
(10.142 0.0574671 0.0552598)
(10.1623 0.0581903 0.0567975)
(10.1845 0.0670695 0.0583862)
(10.208 0.08275 0.0600177)
(10.2321 0.102364 0.0616842)
(10.2561 0.123356 0.0637363)
(9.9997 -0.000662753 0.0423542)
(10.0037 -0.0123125 0.0433451)
(10.0117 -0.0102913 0.0439401)
(10.0205 0.0143818 0.0446681)
(10.0315 0.0443069 0.0455952)
(10.0456 0.0635627 0.0467129)
(10.0611 0.0707715 0.0478603)
(10.0773 0.071226 0.048997)
(10.0949 0.0680452 0.0502209)
(10.113 0.0611632 0.0515739)
(10.1307 0.0506402 0.0530119)
(10.1479 0.0389976 0.0544913)
(10.1657 0.0304397 0.0559997)
(10.1849 0.0285923 0.0575525)
(10.2059 0.0346274 0.0591482)
(10.2283 0.0477473 0.0607835)
(10.2515 0.0652953 0.0624456)
(10.2752 0.0845035 0.0645067)
(10 -0.00253547 0.0420996)
(10.0044 -0.0174281 0.04319)
(10.0134 -0.019163 0.0439358)
(10.025 0.00355244 0.0448001)
(10.0397 0.0337946 0.0458357)
(10.0565 0.0537574 0.0469792)
(10.0738 0.0602244 0.0481063)
(10.0924 0.0594431 0.0492443)
(10.1132 0.0557944 0.0505138)
(10.1348 0.0490291 0.0519237)
(10.1552 0.0382415 0.0534052)
(10.1739 0.0251623 0.054926)
(10.1917 0.014116 0.0564555)
(10.2097 0.00914325 0.0580343)
(10.2287 0.0123829 0.0596311)
(10.2489 0.0228632 0.0612854)
(10.27 0.0383914 0.06294)
(10.2917 0.0562731 0.0649723)
(10.0005 -0.00504129 0.0417048)
(10.0062 -0.0225241 0.0429284)
(10.0155 -0.0264493 0.0438401)
(10.0294 -0.00819333 0.0449031)
(10.049 0.017932 0.0460785)
(10.0706 0.0337999 0.0472495)
(10.0911 0.0356304 0.0483454)
(10.1123 0.0311063 0.0494916)
(10.1358 0.0258137 0.0508143)
(10.1595 0.0195463 0.0522638)
(10.1808 0.0105811 0.0537726)
(10.1993 7.24352e-05 0.0553301)
(10.2161 -0.00906028 0.0569093)
(10.2325 -0.0137002 0.0584966)
(10.2491 -0.0116357 0.0601098)
(10.2667 -0.00333282 0.061692)
(10.2859 0.00983574 0.0633218)
(10.3068 0.0253568 0.0653408)
(10.0009 -0.00794483 0.0411623)
(10.0096 -0.0292058 0.0426011)
(10.0191 -0.0357118 0.0437582)
(10.033 -0.0158897 0.0449791)
(10.055 0.0136155 0.0461405)
(10.0795 0.0307916 0.0472891)
(10.1032 0.0327725 0.0483333)
(10.1286 0.0279147 0.0495001)
(10.1569 0.0222523 0.0508793)
(10.1854 0.0153458 0.0523669)
(10.211 0.005875 0.0539153)
(10.2321 -0.00506482 0.0554614)
(10.2484 -0.0148971 0.0570626)
(10.2615 -0.020738 0.0586722)
(10.2734 -0.0207236 0.0602871)
(10.2862 -0.0144577 0.061902)
(10.3011 -0.0033162 0.0635237)
(10.3187 0.0103016 0.0655174)
(10.0018 -0.0128363 0.0404771)
(10.0137 -0.0357685 0.0422437)
(10.0253 -0.0431581 0.0437371)
(10.0418 -0.0284067 0.0451437)
(10.0668 -0.00774058 0.0463801)
(10.095 0.00158428 0.0473969)
(10.1228 -0.000686743 0.0484207)
(10.1515 -0.00673492 0.0496069)
(10.1817 -0.0124888 0.0510115)
(10.2114 -0.0181978 0.0525523)
(10.2381 -0.0246384 0.0541222)
(10.2598 -0.0314926 0.0557099)
(10.2757 -0.0369373 0.057324)
(10.2868 -0.0390668 0.058932)
(10.2957 -0.0369069 0.0605282)
(10.3051 -0.0307489 0.0621181)
(10.3169 -0.0219237 0.0637165)
(10.3324 -0.0121059 0.065727)
(10.0024 -0.0159678 0.0396347)
(10.0213 -0.0361875 0.0418118)
(10.0341 -0.0405586 0.0436215)
(10.0473 -0.0278699 0.0451403)
(10.0722 -0.00938043 0.0463388)
(10.1061 0.000863094 0.0473095)
(10.1424 0.000318356 0.0483167)
(10.179 -0.00507978 0.0495477)
(10.2158 -0.0113821 0.0509672)
(10.252 -0.0170911 0.0525125)
(10.2855 -0.0221149 0.0541092)
(10.3124 -0.0265701 0.05574)
(10.33 -0.0301893 0.057384)
(10.3384 -0.0323893 0.0590055)
(10.3407 -0.0324077 0.0606)
(10.3415 -0.0299691 0.0621812)
(10.3448 -0.0252884 0.063771)
(10.3536 -0.0192096 0.0657589)
(10.009 -0.0356603 0.038973)
(10.0541 -0.0593442 0.0417798)
(10.0773 -0.0567129 0.0438076)
(10.087 -0.0444263 0.0452632)
(10.1073 -0.0347535 0.0463745)
(10.141 -0.0329105 0.0473249)
(10.1798 -0.0369729 0.048343)
(10.2185 -0.0436873 0.0495778)
(10.256 -0.0509875 0.0510038)
(10.2909 -0.0573458 0.0525573)
(10.3197 -0.0608944 0.0541863)
(10.3383 -0.060462 0.0558603)
(10.3437 -0.0562284 0.0575317)
(10.3375 -0.049746 0.0591544)
(10.3238 -0.0428387 0.0607283)
(10.3096 -0.0369647 0.0622778)
(10.2988 -0.0328138 0.0638345)
(10.2965 -0.03076 0.0657856)
(9.91158 -0.0269317 0.0372036)
(9.74781 -0.0435658 0.0414328)
(9.57253 -0.0419335 0.0438593)
(9.41817 -0.0345717 0.0453058)
(9.29904 -0.0291115 0.0463671)
(9.19803 -0.0277643 0.0473008)
(9.09758 -0.0297004 0.0483178)
(8.98908 -0.0341108 0.0495549)
(8.86759 -0.0396539 0.050996)
(8.73381 -0.0437618 0.0525843)
(8.59616 -0.0438822 0.0542713)
(8.46731 -0.0393879 0.0560109)
(8.3562 -0.0320035 0.057738)
(8.26627 -0.024735 0.0593986)
(8.19393 -0.0199182 0.0609911)
(8.13489 -0.0182982 0.0625461)
(8.08144 -0.0194451 0.0641022)
(8.03192 -0.0221168 0.0659677)
(9.83774 0.0380605 0.000448505)
(9.54179 0.0542504 0.000428993)
(9.2387 0.0531377 0.000368046)
(8.92925 0.0532412 0.000263494)
(8.61771 0.0543993 0.000110473)
(8.31137 0.0544372 -9.33662e-05)
(8.01322 0.0531639 -0.000358979)
(7.72897 0.0524582 -0.000709308)
(7.44336 0.0541444 -0.00115921)
(7.15848 0.0586987 -0.0017345)
(6.84462 0.0642371 -0.00246646)
(6.53209 0.0690433 -0.00341338)
(6.1726 0.0724978 -0.00460293)
(5.8499 0.0754171 -0.00614292)
(5.43598 0.0818447 -0.00801521)
(5.1232 0.0896963 -0.0104223)
(4.57455 0.11672 -0.0131501)
(4.28121 0.135356 -0.0164723)
(10.0166 0.0553779 0.000449584)
(10.0776 0.0807823 0.000430338)
(10.113 0.079491 0.000370032)
(10.1216 0.0814746 0.000265783)
(10.1112 0.0864068 0.000113255)
(10.0893 0.0910942 -8.96186e-05)
(10.0536 0.0941784 -0.000353308)
(10.0074 0.0976794 -0.000700423)
(9.94565 0.102564 -0.00114565)
(9.87903 0.111669 -0.00171318)
(9.79611 0.122909 -0.00243395)
(9.71256 0.137591 -0.00335886)
(9.5988 0.150972 -0.00452248)
(9.48713 0.167877 -0.00600452)
(9.31896 0.184669 -0.00782719)
(9.16584 0.211879 -0.0100687)
(8.9147 0.250985 -0.0127013)
(8.70891 0.3092 -0.0155358)
(10.0024 0.0327487 0.000450781)
(10.0312 0.0558278 0.000431033)
(10.0563 0.0579096 0.000371744)
(10.0686 0.0611401 0.000268176)
(10.0717 0.0675985 0.000116475)
(10.0721 0.0746352 -8.5169e-05)
(10.069 0.0809934 -0.00034633)
(10.061 0.0881896 -0.000689756)
(10.0459 0.0968061 -0.00112925)
(10.0285 0.10846 -0.00168818)
(10.01 0.121821 -0.00239435)
(9.9934 0.137981 -0.00329314)
(9.97226 0.15528 -0.00441431)
(9.94599 0.177533 -0.00582237)
(9.90569 0.205322 -0.00752591)
(9.85397 0.244846 -0.00956338)
(9.7885 0.301246 -0.0118762)
(9.71812 0.375343 -0.0143423)
(10.0018 0.0284 0.000452567)
(10.0228 0.057879 0.000432744)
(10.0427 0.0660165 0.000374654)
(10.0522 0.0703301 0.000272505)
(10.0527 0.0768369 0.000122008)
(10.049 0.0845681 -7.774e-05)
(10.0425 0.0922295 -0.000335734)
(10.0321 0.100564 -0.000673755)
(10.0175 0.109958 -0.00110599)
(10.001 0.121339 -0.00165246)
(9.98501 0.134358 -0.00233976)
(9.96999 0.150253 -0.00320402)
(9.95385 0.169367 -0.00427508)
(9.93371 0.194535 -0.00559144)
(9.90746 0.227154 -0.00716504)
(9.87503 0.270894 -0.00898538)
(9.83987 0.327495 -0.0109909)
(9.80951 0.395699 -0.0130515)
(10.0013 0.0236372 0.000455176)
(10.0169 0.0521937 0.000435362)
(10.0335 0.062353 0.000378523)
(10.0427 0.0669287 0.000278395)
(10.0437 0.0731068 0.00012974)
(10.0397 0.0814594 -6.74937e-05)
(10.0328 0.0908004 -0.000321029)
(10.0222 0.100923 -0.000652012)
(10.0082 0.111695 -0.00107425)
(9.99277 0.123571 -0.00160556)
(9.9775 0.136931 -0.0022682)
(9.96245 0.153373 -0.00309255)
(9.94563 0.174319 -0.00410329)
(9.92517 0.202027 -0.00532191)
(9.8994 0.23791 -0.00675212)
(9.86973 0.283553 -0.00835794)
(9.83792 0.338695 -0.010071)
(9.81007 0.400075 -0.0117956)
(10.001 0.0196961 0.000458677)
(10.0123 0.0469489 0.000439046)
(10.0258 0.0597868 0.000383622)
(10.0346 0.0665092 0.000286164)
(10.0362 0.0737338 0.000140121)
(10.0325 0.0832528 -5.37586e-05)
(10.0256 0.094338 -0.000301678)
(10.0155 0.106158 -0.000623829)
(10.0028 0.118123 -0.00103338)
(9.98905 0.130502 -0.00154608)
(9.97543 0.144244 -0.00217831)
(9.9616 0.161404 -0.0029563)
(9.94589 0.183985 -0.00389745)
(9.92687 0.213981 -0.00501256)
(9.90357 0.252259 -0.00629192)
(9.87708 0.298943 -0.00769327)
(9.84887 0.352495 -0.00914605)
(9.82246 0.409732 -0.0105924)
(10.0007 0.0167801 0.000463197)
(10.009 0.0426352 0.000444035)
(10.0197 0.0576235 0.000390261)
(10.0277 0.066367 0.000296077)
(10.0296 0.0745426 0.000153369)
(10.0263 0.0848997 -3.61933e-05)
(10.0196 0.0973187 -0.000276981)
(10.0103 0.110544 -0.000588109)
(9.99891 0.123465 -0.000982051)
(9.98691 0.136198 -0.00147265)
(9.97498 0.150196 -0.00206959)
(9.96257 0.168034 -0.00279532)
(9.94827 0.192104 -0.00366023)
(9.93106 0.224103 -0.00466654)
(9.91051 0.264321 -0.0057943)
(9.88745 0.311847 -0.00700144)
(9.86304 0.364714 -0.00822312)
(9.83958 0.420098 -0.00941986)
(10.0005 0.014644 0.00046889)
(10.0065 0.0389776 0.0004505)
(10.0148 0.0552857 0.000398661)
(10.0218 0.0658075 0.00030848)
(10.024 0.0751027 0.000170093)
(10.0211 0.0863631 -1.41879e-05)
(10.0149 0.0999399 -0.000246729)
(10.0063 0.114363 -0.000544751)
(9.99629 0.128133 -0.000919943)
(9.98598 0.141294 -0.00138354)
(9.9758 0.155687 -0.00194106)
(9.96504 0.174313 -0.00260906)
(9.95247 0.199802 -0.00339251)
(9.93736 0.233551 -0.0042859)
(9.91954 0.275361 -0.00526785)
(9.8998 0.323652 -0.00629407)
(9.87903 0.376403 -0.00730739)
(9.8589 0.43092 -0.0082775)
(10.0004 0.013057 0.000475898)
(10.0046 0.0358922 0.000458701)
(10.011 0.0528974 0.000409184)
(10.017 0.0649686 0.000323566)
(10.0192 0.0755951 0.00019035)
(10.0168 0.0879654 1.2594e-05)
(10.0112 0.102628 -0.000211201)
(10.0036 0.117983 -0.000492392)
(9.99502 0.132351 -0.000845922)
(9.98651 0.145881 -0.00127878)
(9.97818 0.160778 -0.00179379)
(9.9692 0.180361 -0.0023999)
(9.95846 0.207318 -0.00309936)
(9.94548 0.242723 -0.00388094)
(9.9303 0.285909 -0.00472171)
(9.91372 0.334878 -0.00558006)
(9.89648 0.387563 -0.00640511)
(9.87994 0.441464 -0.0071733)
(10.0003 0.0118479 0.000484378)
(10.0033 0.0333519 0.000468792)
(10.0082 0.0506938 0.000422139)
(10.0132 0.0639898 0.000341785)
(10.0154 0.0758641 0.000214727)
(10.0134 0.0894136 4.42024e-05)
(10.0085 0.10527 -0.000167673)
(10.0019 0.121623 -0.000430954)
(9.99496 0.136543 -0.000759923)
(9.98834 0.150269 -0.00115857)
(9.98194 0.165375 -0.00162809)
(9.97485 0.185548 -0.00216971)
(9.96604 0.213567 -0.00278457)
(9.95524 0.250272 -0.00345777)
(9.94267 0.294573 -0.00416469)
(9.9292 0.344163 -0.00486893)
(9.9155 0.396834 -0.0055258)
(9.90278 0.450303 -0.00611769)
(10.0003 0.0109307 0.000494531)
(10.0024 0.0312177 0.000480959)
(10.006 0.0486096 0.000437618)
(10.0103 0.0630101 0.000363304)
(10.0123 0.0762838 0.000243969)
(10.0108 0.0909632 8.28657e-05)
(10.0069 0.107511 -0.000116199)
(10.0016 0.124204 -0.000360797)
(9.9962 0.139336 -0.000663056)
(9.99126 0.153426 -0.0010245)
(9.98662 0.169256 -0.00144541)
(9.98139 0.190557 -0.00192266)
(9.97469 0.219915 -0.00245286)
(9.96633 0.257874 -0.00302177)
(9.95662 0.302969 -0.00360459)
(9.94645 0.352756 -0.00416982)
(9.93644 0.404937 -0.00467914)
(9.92775 0.457532 -0.00511967)
(10.0002 0.0102466 0.000505468)
(10.0017 0.0296134 0.000494194)
(10.0047 0.0468727 0.000454489)
(10.0084 0.0618654 0.000386058)
(10.0102 0.0762481 0.0002748)
(10.009 0.0922415 0.000123919)
(10.0058 0.109847 -6.1773e-05)
(10.002 0.126942 -0.000287431)
(9.9985 0.141805 -0.000562858)
(9.99551 0.155372 -0.000888449)
(9.99262 0.170973 -0.00126297)
(9.989 0.192663 -0.00168296)
(9.98395 0.222932 -0.00213867)
(9.97755 0.262003 -0.00261799)
(9.97025 0.307937 -0.00309685)
(9.96306 0.358067 -0.00354843)
(9.95649 0.409887 -0.00394005)
(9.95167 0.46166 -0.00426174)
(10.0002 0.00970908 0.000517932)
(10.0013 0.028138 0.000509149)
(10.0037 0.0452838 0.00047336)
(10.0069 0.0610612 0.000411468)
(10.0088 0.0763702 0.000309882)
(10.0082 0.0927927 0.00017016)
(10.006 0.110447 -2.55035e-06)
(10.0033 0.127723 -0.000210839)
(10.0011 0.143213 -0.000457556)
(9.99972 0.157784 -0.00074586)
(9.99862 0.174529 -0.0010728)
(9.99697 0.197257 -0.00143471)
(9.99407 0.228216 -0.00182201)
(9.99 0.267524 -0.00221909)
(9.98526 0.313112 -0.00260415)
(9.98094 0.362416 -0.00295647)
(9.9776 0.412861 -0.00324757)
(9.9764 0.462995 -0.00346896)
(10.0002 0.00921576 0.000534257)
(10.001 0.0268936 0.000528855)
(10.0032 0.0433952 0.000497921)
(10.006 0.0591678 0.000443421)
(10.0075 0.0757473 0.000354381)
(10.0072 0.094133 0.000229465)
(10.0063 0.11294 7.30289e-05)
(10.006 0.12958 -0.000112936)
(10.0065 0.143037 -0.00032836)
(10.0071 0.155513 -0.000574989)
(10.0075 0.171281 -0.000849376)
(10.0071 0.194513 -0.00114755)
(10.0059 0.226945 -0.00145992)
(10.0041 0.267902 -0.00177158)
(10.0024 0.314513 -0.00206367)
(10.0016 0.363919 -0.00231726)
(10.0023 0.413322 -0.00251119)
(10.0055 0.461601 -0.00264042)
(10.0001 0.00865967 0.000555318)
(10.0014 0.0251346 0.000554163)
(10.0026 0.04172 0.000529689)
(10.0036 0.0585644 0.000484655)
(10.0057 0.0753801 0.000410868)
(10.0095 0.0925347 0.000303536)
(10.014 0.11007 0.000167038)
(10.0161 0.127021 6.3781e-06)
(10.0138 0.142569 -0.000175342)
(10.0079 0.157856 -0.00037369)
(10.0008 0.17581 -0.000590771)
(9.99535 0.199856 -0.000822228)
(9.99297 0.231644 -0.00105849)
(9.99408 0.2709 -0.0012859)
(9.99827 0.315063 -0.00148871)
(10.0053 0.361692 -0.00165223)
(10.0145 0.40786 -0.00176109)
(10.0262 0.45287 -0.00181201)
(10.0004 0.00782423 0.000582369)
(10.0008 0.0238374 0.000586706)
(10.0012 0.0407696 0.000569954)
(10.0047 0.0563303 0.000535886)
(10.0106 0.0703906 0.000479226)
(10.0154 0.086674 0.000395077)
(10.0161 0.10752 0.000282945)
(10.0124 0.130528 0.000149136)
(10.0057 0.151273 3.34894e-06)
(9.99888 0.168207 -0.000149958)
(9.99454 0.18381 -0.000306694)
(9.9942 0.202777 -0.000471492)
(9.99806 0.228446 -0.000633443)
(10.0057 0.261892 -0.000781643)
(10.0162 0.301114 -0.000904036)
(10.0293 0.343789 -0.000990543)
(10.0443 0.386519 -0.00103072)
(10.0613 0.428472 -0.00102187)
(10.0003 0.00733207 0.000616451)
(9.99999 0.0227525 0.000627188)
(10.0026 0.0368672 0.00061994)
(10.0092 0.0494246 0.000598693)
(10.0146 0.0645656 0.000559654)
(10.0144 0.0865159 0.000500958)
(10.0097 0.113568 0.000418087)
(10.004 0.13906 0.000317141)
(10.0003 0.157574 0.000208121)
(10.0001 0.169412 9.80192e-05)
(10.0037 0.179372 -9.29213e-06)
(10.0108 0.193394 -0.000115708)
(10.0209 0.214903 -0.0002148)
(10.0334 0.2446 -0.000297874)
(10.048 0.2801 -0.000355986)
(10.0646 0.318908 -0.000384372)
(10.0828 0.357501 -0.000377052)
(10.1031 0.395046 -0.000330258)
(9.99984 0.00707958 0.000657983)
(10.0007 0.0192452 0.00067531)
(10.0059 0.0294313 0.000678208)
(10.012 0.0429431 0.000672552)
(10.0131 0.0638851 0.000653851)
(10.0097 0.0914777 0.000618094)
(10.006 0.119942 0.000565273)
(10.0052 0.1424 0.000499854)
(10.0079 0.155612 0.00042886)
(10.0139 0.161836 0.000359453)
(10.0226 0.166583 0.000293815)
(10.0338 0.175642 0.000233897)
(10.0476 0.19217 0.000184271)
(10.0638 0.216743 0.000151257)
(10.0821 0.247056 0.000137053)
(10.1022 0.280671 0.000145464)
(10.1238 0.314122 0.000179392)
(10.147 0.346489 0.000241642)
(9.99955 0.00611378 0.000704986)
(10.0022 0.0126972 0.000729881)
(10.0089 0.0207557 0.000744383)
(10.0128 0.038804 0.000754691)
(10.0118 0.0655021 0.000753909)
(10.0102 0.0943447 0.000736874)
(10.0117 0.11895 0.000707897)
(10.0167 0.135188 0.000675265)
(10.0246 0.142166 0.000643477)
(10.0348 0.142668 0.000613026)
(10.0472 0.141758 0.000583479)
(10.0616 0.14483 0.000558204)
(10.0786 0.155139 0.000540288)
(10.0979 0.173511 0.00053269)
(10.1192 0.198007 0.000538396)
(10.142 0.226192 0.000559015)
(10.1659 0.254691 0.000595511)
(10.1907 0.282189 0.000651546)
(9.99952 0.00435456 0.000743121)
(10.0034 0.00550838 0.000773919)
(10.0105 0.0135808 0.000797383)
(10.0139 0.0361957 0.000819475)
(10.0146 0.0651841 0.000830492)
(10.0177 0.090964 0.000824797)
(10.0245 0.109481 0.000809586)
(10.034 0.11998 0.000794073)
(10.0452 0.122729 0.000780743)
(10.0579 0.119596 0.000768883)
(10.072 0.114403 0.000759211)
(10.0882 0.112015 0.000753414)
(10.1068 0.116064 0.000752023)
(10.1278 0.12802 0.000755841)
(10.1509 0.146663 0.000767723)
(10.1753 0.169731 0.000788803)
(10.2003 0.194019 0.000819149)
(10.2257 0.217753 0.000862641)
(9.99961 0.00263028 0.000767768)
(10.0039 -0.000338889 0.000803547)
(10.0114 0.00669968 0.000833305)
(10.0163 0.0305632 0.000862054)
(10.0203 0.0595782 0.0008778)
(10.0275 0.0826387 0.000878103)
(10.0381 0.097028 0.000872076)
(10.0507 0.103857 0.000867103)
(10.0644 0.103916 0.000863504)
(10.0788 0.0982974 0.000859825)
(10.0941 0.089872 0.000856744)
(10.1108 0.0831533 0.000856209)
(10.1297 0.0822154 0.000860114)
(10.1511 0.0892552 0.000869052)
(10.1746 0.103762 0.000883511)
(10.1993 0.123622 0.000903382)
(10.2247 0.14565 0.000928107)
(10.2503 0.167546 0.000963519)
(9.99972 0.00100097 0.00078571)
(10.0042 -0.00591855 0.00082366)
(10.0124 -0.000904516 0.000858683)
(10.0199 0.022746 0.000894119)
(10.028 0.0508794 0.000911622)
(10.0389 0.0713475 0.000912086)
(10.0519 0.0825322 0.000910849)
(10.0665 0.0869559 0.000914633)
(10.0823 0.0858011 0.000919002)
(10.099 0.0793039 0.000920813)
(10.116 0.0691111 0.000921611)
(10.1335 0.0591294 0.000923595)
(10.1525 0.0538118 0.000929342)
(10.1734 0.0561546 0.000937686)
(10.1963 0.0665444 0.00094896)
(10.2204 0.0832308 0.000963887)
(10.2452 0.103196 0.000982401)
(10.2698 0.123841 0.00100974)
(9.99987 -0.000709074 0.000795665)
(10.0047 -0.0114244 0.000837727)
(10.0137 -0.00917793 0.000875947)
(10.0234 0.0138727 0.000916567)
(10.0353 0.0416523 0.00093548)
(10.0503 0.0597393 0.000936812)
(10.0666 0.066837 0.000937013)
(10.0836 0.0674203 0.000944421)
(10.1018 0.0640059 0.000952546)
(10.1205 0.0566261 0.000957289)
(10.1385 0.0458637 0.00096093)
(10.1563 0.0346706 0.000962638)
(10.1746 0.027354 0.000967585)
(10.1945 0.0270431 0.000973111)
(10.216 0.0345581 0.000980194)
(10.239 0.0486824 0.000991171)
(10.2628 0.0665882 0.00100441)
(10.2871 0.0854724 0.00102561)
(10.0001 -0.00260935 0.000803799)
(10.0056 -0.0165408 0.000847825)
(10.0156 -0.0180612 0.000888926)
(10.028 0.00294139 0.000933807)
(10.0432 0.0307985 0.000947625)
(10.0606 0.0493872 0.000951199)
(10.0786 0.0557478 0.000958414)