/*--------------------------------*- C++ -*----------------------------------*\
| =========                 |                                                 |
| \\      /  F ield         | OpenFOAM: The Open Source CFD Toolbox           |
|  \\    /   O peration     | Version:  2112                                  |
|   \\  /    A nd           | Website:  www.openfoam.com                      |
|    \\/     M anipulation  |                                                 |
\*---------------------------------------------------------------------------*/
FoamFile
{
    version     2.0;
    format      ascii;
    arch        "LSB;label=32;scalar=64";
    class       volVectorField;
    location    "0.2";
    object      ddt0(U);
}
// * * * * * * * * * * * * * * * * * * * * * * * * * * * * * * * * * * * * * //

dimensions      [0 1 -2 0 0 0 0];

internalField   nonuniform List<vector> 
12225
(
(0.358742 -0.139029 0)
(2.91146 -0.51306 0)
(8.57964 -1.06954 0)
(18.3369 -1.85338 0)
(32.8876 -2.85355 0)
(52.862 -3.9942 0)
(78.8752 -5.24006 0)
(112.009 -6.76928 0)
(152.987 -8.46965 0)
(203.09 -10.8415 0)
(263.828 -13.0922 0)
(333.453 -15.6921 0)
(416.384 -20.5531 0)
(494.698 -19.5467 0)
(584.96 -21.4898 0)
(685.521 -23.4197 0)
(805.142 -34.1365 0)
(956.924 -20.7369 0)
(-0.241267 -0.206509 0)
(-0.836512 -0.892537 0)
(-1.18107 -1.86738 0)
(-0.68092 -3.11732 0)
(1.3236 -4.70045 0)
(5.48814 -6.68802 0)
(12.3687 -9.10317 0)
(22.876 -12.3241 0)
(37.5198 -15.8349 0)
(56.9364 -20.8509 0)
(81.4391 -26.2075 0)
(110.063 -32.3975 0)
(132.777 -37.1937 0)
(172.494 -39.4524 0)
(218.505 -45.9276 0)
(269.935 -55.181 0)
(332.993 -66.0221 0)
(417.085 -96.1489 0)
(0.0268918 -0.214703 0)
(0.411116 -0.916487 0)
(1.20145 -1.89355 0)
(2.2199 -3.28227 0)
(3.27045 -5.18425 0)
(4.26542 -7.61701 0)
(4.99676 -10.5019 0)
(5.84757 -14.5653 0)
(6.71176 -18.4819 0)
(7.71454 -24.7134 0)
(8.90487 -30.6619 0)
(9.95002 -36.9917 0)
(20.4298 -41.8314 0)
(32.7761 -48.3845 0)
(49.4156 -57.8267 0)
(75.0228 -69.8904 0)
(110.742 -89.7725 0)
(162.355 -127.275 0)
(0.0335518 -0.271151 0)
(0.606092 -0.949677 0)
(1.92412 -1.91553 0)
(4.01005 -3.31521 0)
(6.85678 -5.17133 0)
(10.4929 -7.46881 0)
(14.5468 -10.0036 0)
(19.6221 -14.4314 0)
(25.0649 -18.0103 0)
(31.6763 -20.6694 0)
(39.3875 -27.1912 0)
(48.4609 -33.9264 0)
(59.6924 -42.4884 0)
(73.7362 -52.4017 0)
(91.8378 -63.9613 0)
(115.645 -80.1044 0)
(147.027 -105.162 0)
(186.027 -149.164 0)
(0.0295124 -0.335038 0)
(0.532587 -1.33162 0)
(1.74147 -2.78157 0)
(3.76633 -4.68752 0)
(6.65871 -7.0421 0)
(10.5498 -9.87803 0)
(14.7642 -12.5164 0)
(20.5684 -16.1317 0)
(28.4036 -22.537 0)
(35.6042 -26.6864 0)
(43.8051 -34.094 0)
(54.4752 -42.2245 0)
(66.9555 -50.9625 0)
(81.5763 -61.604 0)
(99.2852 -75.2031 0)
(121.001 -94.1727 0)
(146.815 -122.214 0)
(173.301 -167.258 0)
(0.0256424 -0.407731 0)
(0.500899 -1.58742 0)
(1.66756 -3.13482 0)
(3.62426 -5.08711 0)
(6.39956 -7.54896 0)
(10.3197 -10.6665 0)
(14.7551 -15.3976 0)
(19.4219 -17.5461 0)
(25.9374 -23.334 0)
(33.6651 -30.738 0)
(42.0901 -37.2543 0)
(52.1484 -45.3681 0)
(63.8304 -55.3286 0)
(77.3829 -67.6708 0)
(93.2011 -83.2091 0)
(111.229 -104.196 0)
(130.594 -133.695 0)
(147.058 -176.314 0)
(0.0217993 -0.4731 0)
(0.468904 -1.83792 0)
(1.57143 -3.61946 0)
(3.41085 -5.90685 0)
(5.98258 -8.81548 0)
(9.05618 -12.4867 0)
(13.6482 -18.0112 0)
(19.0145 -22.3464 0)
(24.7617 -27.1174 0)
(31.696 -34.1014 0)
(39.5848 -41.7293 0)
(48.8372 -50.8283 0)
(59.4923 -61.7667 0)
(71.5066 -75.1056 0)
(84.8718 -91.8682 0)
(99.0826 -113.709 0)
(112.756 -142.631 0)
(121.878 -180.96 0)
(0.016135 -0.534859 0)
(0.429576 -2.09981 0)
(1.45923 -4.12369 0)
(3.1762 -6.68456 0)
(5.58073 -9.86545 0)
(8.61991 -13.6927 0)
(12.8285 -17.6379 0)
(17.7062 -23.5338 0)
(23.0834 -29.7022 0)
(29.5295 -37.1092 0)
(36.8472 -45.4368 0)
(45.1706 -55.202 0)
(54.5382 -66.906 0)
(64.7899 -81.1158 0)
(75.6416 -98.5816 0)
(86.2958 -120.469 0)
(95.2561 -147.944 0)
(99.2695 -181.765 0)
(0.00750691 -0.594712 0)
(0.384571 -2.35092 0)
(1.33981 -4.61199 0)
(2.92784 -7.43956 0)
(5.15856 -10.9107 0)
(8.03694 -15.0482 0)
(11.8074 -19.7306 0)
(16.2502 -25.8892 0)
(21.2458 -32.5463 0)
(27.0663 -40.3367 0)
(33.6356 -49.3238 0)
(40.9444 -59.7572 0)
(48.945 -72.075 0)
(57.3807 -86.7569 0)
(65.803 -104.382 0)
(73.3327 -125.657 0)
(78.6008 -151.084 0)
(79.2258 -180.495 0)
(1.82103e-05 -0.747549 0)
(0.339803 -2.63511 0)
(1.2149 -5.10191 0)
(2.66402 -8.19331 0)
(4.70101 -11.9627 0)
(7.34458 -16.4415 0)
(10.7083 -21.6448 0)
(14.6917 -27.9908 0)
(19.2011 -35.1432 0)
(24.345 -43.3625 0)
(30.0729 -52.8289 0)
(36.2929 -63.7348 0)
(42.8718 -76.4278 0)
(49.4987 -91.2791 0)
(55.6659 -108.666 0)
(60.547 -128.928 0)
(63.0164 -152.129 0)
(61.4893 -177.637 0)
(0.0340922 -0.809409 0)
(0.358876 -2.87786 0)
(1.10906 -5.56753 0)
(2.39351 -8.91514 0)
(4.21692 -12.975 0)
(6.58266 -17.7827 0)
(9.53663 -23.391 0)
(13.0236 -30.0154 0)
(16.9672 -37.5715 0)
(21.3796 -46.1825 0)
(26.1947 -56.0252 0)
(31.2775 -67.2611 0)
(36.4367 -80.1319 0)
(41.3418 -94.8868 0)
(45.501 -111.723 0)
(48.2159 -130.723 0)
(48.6309 -151.697 0)
(45.7913 -173.861 0)
(0.0274398 -0.776351 0)
(0.313491 -3.0608 0)
(0.978494 -5.97532 0)
(2.11772 -9.55278 0)
(3.73524 -13.8685 0)
(5.82504 -18.9595 0)
(8.3973 -24.8869 0)
(11.4079 -31.777 0)
(14.7876 -39.6342 0)
(18.4974 -48.5346 0)
(22.4487 -58.6159 0)
(26.4856 -70.0067 0)
(30.3904 -82.8653 0)
(33.8401 -97.3347 0)
(36.3941 -113.481 0)
(37.4931 -131.234 0)
(36.5036 -150.294 0)
(32.9013 -169.881 0)
(0.0188492 -0.835169 0)
(0.268503 -3.26541 0)
(0.853502 -6.35667 0)
(1.841 -10.14 0)
(3.2339 -14.6851 0)
(5.0219 -20.0248 0)
(7.19627 -26.2157 0)
(9.71261 -33.3394 0)
(12.4997 -41.4257 0)
(15.487 -50.528 0)
(18.5673 -60.7405 0)
(21.5765 -72.1523 0)
(24.2944 -84.8516 0)
(26.4268 -98.8935 0)
(27.6055 -114.249 0)
(27.4118 -130.761 0)
(25.4046 -148.096 0)
(21.3669 -165.563 0)
(0.0132195 -0.894384 0)
(0.220857 -3.46758 0)
(0.706007 -6.74197 0)
(1.51224 -10.737 0)
(2.63702 -15.5162 0)
(4.06281 -21.1032 0)
(5.76627 -27.5403 0)
(7.69855 -34.8789 0)
(9.78529 -43.1484 0)
(11.9373 -52.3806 0)
(14.0359 -62.6248 0)
(15.9202 -73.9231 0)
(17.3878 -86.2991 0)
(18.193 -99.734 0)
(18.0567 -114.132 0)
(16.7009 -129.293 0)
(13.8532 -144.904 0)
(9.51597 -160.407 0)
(0.00943286 -0.948342 0)
(0.166428 -3.66458 0)
(0.529174 -7.11602 0)
(1.12324 -11.3085 0)
(1.93675 -16.2934 0)
(2.94108 -22.0852 0)
(4.10051 -28.7124 0)
(5.36146 -36.2011 0)
(6.6484 -44.5624 0)
(7.86685 -53.8011 0)
(8.89959 -63.9236 0)
(9.60253 -74.9256 0)
(9.80812 -86.7788 0)
(9.33246 -99.4142 0)
(7.98791 -112.703 0)
(5.61733 -126.446 0)
(2.07413 -140.386 0)
(-2.50732 -154.114 0)
(0.00622009 -0.994069 0)
(0.105947 -3.83155 0)
(0.326071 -7.42373 0)
(0.672367 -11.7681 0)
(1.12534 -16.9016 0)
(1.64983 -22.8229 0)
(2.2009 -29.5415 0)
(2.71963 -37.0608 0)
(3.13189 -45.369 0)
(3.34977 -54.442 0)
(3.27175 -64.2488 0)
(2.78357 -74.7476 0)
(1.76353 -85.8759 0)
(0.0916571 -97.5411 0)
(-2.34023 -109.613 0)
(-5.60097 -121.923 0)
(-9.75738 -134.28 0)
(-14.6164 -146.414 0)
(0.00308564 -1.02337 0)
(0.0384352 -3.93205 0)
(0.0981657 -7.59577 0)
(0.167122 -12.0028 0)
(0.21838 -17.1736 0)
(0.213399 -23.0895 0)
(0.104376 -29.74 0)
(-0.166355 -37.1062 0)
(-0.665217 -45.1533 0)
(-1.46508 -53.8332 0)
(-2.64295 -63.0889 0)
(-4.27721 -72.8554 0)
(-6.44287 -83.055 0)
(-9.2047 -93.5935 0)
(-12.6122 -104.358 0)
(-16.6802 -115.221 0)
(-21.4331 -126.051 0)
(-26.6702 -136.685 0)
(-0.000361865 -1.02343 0)
(-0.0355281 -3.91513 0)
(-0.148833 -7.53587 0)
(-0.3758 -11.8646 0)
(-0.748773 -16.9043 0)
(-1.30617 -22.6198 0)
(-2.09338 -28.9816 0)
(-3.16017 -35.9513 0)
(-4.55818 -43.4754 0)
(-6.33871 -51.4897 0)
(-8.55047 -59.9248 0)
(-11.237 -68.7086 0)
(-14.4339 -77.765 0)
(-18.1649 -87.012 0)
(-22.4414 -96.362 0)
(-27.2498 -105.726 0)
(-32.594 -115.015 0)
(-38.2895 -124.142 0)
(-0.00572031 -0.974696 0)
(-0.12355 -3.70138 0)
(-0.425413 -7.08825 0)
(-0.961612 -11.1098 0)
(-1.76482 -15.7557 0)
(-2.86839 -20.9804 0)
(-4.31036 -26.7424 0)
(-6.12775 -32.9915 0)
(-8.35306 -39.6653 0)
(-11.0137 -46.6943 0)
(-14.1316 -54.0081 0)
(-17.7225 -61.5386 0)
(-21.7941 -69.219 0)
(-26.3451 -76.983 0)
(-31.3663 -84.7644 0)
(-36.8324 -92.5012 0)
(-42.7381 -100.131 0)
(-48.923 -107.609 0)
(-0.00988125 -0.88984 0)
(-0.189901 -3.34804 0)
(-0.634004 -6.37458 0)
(-1.40153 -9.94526 0)
(-2.52182 -14.0454 0)
(-4.02093 -18.6271 0)
(-5.92895 -23.646 0)
(-8.27208 -29.0505 0)
(-11.0684 -34.7795 0)
(-14.3279 -40.7668 0)
(-18.0541 -46.9483 0)
(-22.2442 -53.2638 0)
(-26.8894 -59.6574 0)
(-31.9741 -66.0756 0)
(-37.4782 -72.4667 0)
(-43.37 -78.7839 0)
(-49.6393 -84.9792 0)
(-56.135 -91.0279 0)
(-0.0124079 -0.79473 0)
(-0.233044 -2.96961 0)
(-0.772605 -5.63226 0)
(-1.69493 -8.763 0)
(-3.02472 -12.3478 0)
(-4.78155 -16.3396 0)
(-6.98873 -20.6946 0)
(-9.66368 -25.3634 0)
(-12.8141 -30.2895 0)
(-16.4394 -35.4123 0)
(-20.533 -40.6733 0)
(-25.0822 -46.0182 0)
(-30.0688 -51.3972 0)
(-35.4694 -56.7643 0)
(-41.2577 -62.0761 0)
(-47.3994 -67.294 0)
(-53.8821 -72.3786 0)
(-60.5655 -77.3116 0)
(-0.0148614 -0.694958 0)
(-0.269884 -2.58288 0)
(-0.887768 -4.88551 0)
(-1.93294 -7.58706 0)
(-3.42258 -10.6774 0)
(-5.36839 -14.1165 0)
(-7.78821 -17.8647 0)
(-10.6942 -21.8743 0)
(-14.0865 -26.0918 0)
(-17.9549 -30.4629 0)
(-22.283 -34.9365 0)
(-27.0501 -39.4662 0)
(-32.2317 -44.009 0)
(-37.7998 -48.5249 0)
(-43.725 -52.9754 0)
(-49.9705 -57.3265 0)
(-56.5224 -61.5433 0)
(-63.2371 -65.6139 0)
(-0.0172741 -0.595552 0)
(-0.301002 -2.20326 0)
(-0.981243 -4.16361 0)
(-2.12346 -6.46421 0)
(-3.74255 -9.08874 0)
(-5.84379 -11.9972 0)
(-8.43434 -15.159 0)
(-11.5168 -18.5389 0)
(-15.0866 -22.0918 0)
(-19.1314 -25.7677 0)
(-23.6318 -29.5187 0)
(-28.5623 -33.3022 0)
(-33.8927 -37.0796 0)
(-39.5892 -40.8155 0)
(-45.6182 -44.4768 0)
(-51.9417 -48.0335 0)
(-58.5458 -51.4551 0)
(-65.3033 -54.7284 0)
(-0.0194334 -0.500576 0)
(-0.330945 -1.83921 0)
(-1.06831 -3.46961 0)
(-2.2857 -5.40332 0)
(-3.98875 -7.64291 0)
(-6.18658 -10.1471 0)
(-8.89156 -12.8699 0)
(-12.1013 -15.7681 0)
(-15.799 -18.8021 0)
(-19.9613 -21.9339 0)
(-24.5635 -25.1264 0)
(-29.5778 -28.3446 0)
(-34.9735 -31.555 0)
(-40.7159 -34.725 0)
(-46.7705 -37.8221 0)
(-53.0965 -40.8155 0)
(-59.6791 -43.6723 0)
(-66.3773 -46.3803 0)
(-0.0208084 -0.410928 0)
(-0.349286 -1.50831 0)
(-1.13697 -2.83341 0)
(-2.44824 -4.37316 0)
(-4.27201 -6.13778 0)
(-6.58708 -8.12708 0)
(-9.39143 -10.3277 0)
(-12.69 -12.7022 0)
(-16.4786 -15.2026 0)
(-20.7401 -17.7837 0)
(-25.4485 -20.4076 0)
(-30.5722 -23.0422 0)
(-36.0746 -25.6598 0)
(-41.9143 -28.2342 0)
(-48.0493 -30.7389 0)
(-54.4332 -33.1446 0)
(-61.0499 -35.4166 0)
(-67.7836 -37.5325 0)
(-0.0229576 -0.322243 0)
(-0.363041 -1.21466 0)
(-1.15655 -2.35278 0)
(-2.48135 -3.71112 0)
(-4.35793 -5.27077 0)
(-6.77518 -7.01224 0)
(-9.71137 -8.91348 0)
(-13.1431 -10.9459 0)
(-17.0482 -13.0791 0)
(-21.4033 -15.2819 0)
(-26.1808 -17.5241 0)
(-31.3465 -19.7773 0)
(-36.8583 -22.0174 0)
(-42.667 -24.2206 0)
(-48.719 -26.3638 0)
(-54.9532 -28.4146 0)
(-61.3421 -30.3261 0)
(-67.7688 -32.064 0)
(-0.0310894 -0.234313 0)
(-0.420859 -0.818627 0)
(-1.30207 -1.58129 0)
(-2.72742 -2.544 0)
(-4.66432 -3.68305 0)
(-7.04742 -4.98902 0)
(-9.83278 -6.45096 0)
(-12.9947 -8.03241 0)
(-16.5007 -9.69422 0)
(-20.3075 -11.4087 0)
(-24.3679 -13.1567 0)
(-28.6368 -14.9229 0)
(-33.0689 -16.6973 0)
(-37.6214 -18.4665 0)
(-42.25 -20.2198 0)
(-46.9036 -21.9142 0)
(-51.5746 -23.4706 0)
(-56.2534 -24.8597 0)
(-0.0172126 -0.171342 0)
(-0.32708 -0.668237 0)
(-1.06018 -1.28104 0)
(-2.13259 -2.06876 0)
(-3.37463 -3.09666 0)
(-4.67309 -4.36855 0)
(-5.99025 -5.84772 0)
(-7.34153 -7.48636 0)
(-8.78186 -9.23821 0)
(-10.385 -11.0602 0)
(-12.222 -12.9156 0)
(-14.3523 -14.7761 0)
(-16.8161 -16.6266 0)
(-19.6427 -18.451 0)
(-22.8171 -20.2734 0)
(-26.2715 -22.0266 0)
(-30.0658 -23.5516 0)
(-34.144 -24.8085 0)
(0.132007 -0.167703 0)
(0.425653 -0.655248 0)
(0.625898 -1.25526 0)
(0.531777 -1.99553 0)
(-0.113774 -2.93109 0)
(-1.59408 -4.02918 0)
(-4.17095 -5.21553 0)
(-8.05051 -6.43945 0)
(-13.3736 -7.6793 0)
(-20.2085 -8.92524 0)
(-28.5537 -10.1687 0)
(-38.3575 -11.3986 0)
(-49.5244 -12.6101 0)
(-61.9524 -13.7852 0)
(-75.4433 -15.0041 0)
(-89.7733 -16.2003 0)
(-104.772 -17.1553 0)
(-120.277 -17.8044 0)
(-0.222462 -0.0976452 0)
(-1.67927 -0.356398 0)
(-4.68132 -0.727621 0)
(-9.53524 -1.16328 0)
(-16.4376 -1.64742 0)
(-25.5539 -2.21878 0)
(-36.9409 -2.87498 0)
(-50.4796 -3.54412 0)
(-65.9232 -4.15403 0)
(-82.9865 -4.67283 0)
(-101.395 -5.09745 0)
(-120.903 -5.43638 0)
(-141.27 -5.7093 0)
(-162.375 -5.91341 0)
(-183.702 -6.20564 0)
(-206.571 -6.54874 0)
(-229.423 -6.6997 0)
(-251.771 -6.61021 0)
(37.5714 -64.0114 9.86336e-18)
(105.219 -72.4119 -1.054e-17)
(179.632 -66.6934 0)
(266.486 -59.0256 0)
(361.73 -43.8772 0)
(425.93 4.80538 1.33993e-17)
(427.586 48.4852 0)
(436.668 81.5441 0)
(384.307 109.092 0)
(317.753 140.72 0)
(249.678 149.527 -5.27961e-18)
(157.373 142.878 0)
(61.3856 124.724 0)
(-23.825 99.416 0)
(-89.5746 70.4915 0)
(-131.278 40.4161 -7.34979e-18)
(-147.16 10.7151 0)
(-137.241 -17.9791 0)
(-101.354 -45.4302 0)
(-41.598 -72.9387 0)
(48.4352 -101.761 0)
(146.588 -138.944 0)
(311.177 -178.081 0)
(485.933 -205.747 -5.676e-18)
(678.084 -222.649 5.04498e-18)
(878.835 -225.416 -4.38577e-18)
(1081.66 -205.687 -3.74922e-18)
(1275.33 -157.128 0)
(1442.51 -72.7558 0)
(1553.29 51.3855 3.48579e-18)
(1604.09 202.138 4.14723e-18)
(1544.51 453.219 0)
(1173.41 754.075 0)
(781.556 306.752 5.49256e-18)
(596.202 -442.139 0)
(512.022 -445.512 0)
(711.986 -129.715 -5.77534e-18)
(1015.34 66.731 0)
(1082.76 245.075 -6.35593e-18)
(806.567 413.07 -6.86177e-18)
(247.387 518.471 0)
(-373.198 561.25 0)
(-1017.14 609.069 0)
(-1728.37 525.956 0)
(-2200.59 71.1303 0)
(-2054 -502.806 -7.04351e-18)
(-1482.34 -960.658 -9.37387e-18)
(-428.378 -1100.1 -6.71326e-18)
(791.702 -619.819 0)
(1240.37 -109.394 6.75259e-18)
(824.398 233.847 0)
(125.77 607.104 -5.94457e-18)
(-167.106 765.731 -6.74601e-18)
(-8.25776 488.447 0)
(569.924 -414.277 0)
(1418.09 -1092.39 0)
(2264.81 -1031.79 -1.08735e-17)
(2758.5 -639.857 0)
(2926.73 -347.397 0)
(2919.05 -121.663 0)
(2774.67 43.7174 0)
(2538.38 152.469 0)
(2251.48 213.979 0)
(1947.01 239.597 0)
(1647.53 240.734 0)
(1366.66 226.999 1.47064e-17)
(1110.38 205.857 0)
(879.56 183.364 0)
(672.83 161.574 -1.00856e-17)
(487.425 137.96 -8.42008e-18)
(317.254 107.875 0)
(168.859 79.7092 5.11743e-18)
(32.4195 68.7848 -3.20899e-18)
(-68.5383 60.3319 0)
(-163.114 54.6413 4.63749e-20)
(-252.718 50.9886 0)
(-336.834 47.7016 0)
(-415.892 44.4223 4.74664e-18)
(-489.601 41.0136 0)
(-557.612 37.4505 -8.08472e-18)
(-619.571 33.7475 0)
(-675.144 29.9178 1.17073e-17)
(-723.989 25.9561 1.36659e-17)
(-765.707 21.8369 1.57364e-17)
(-799.821 17.5268 3.5831e-17)
(-825.781 13.0048 -4.03986e-17)
(-843.034 8.28515 0)
(-851.131 3.43241 0)
(-849.799 -1.42972 0)
(-838.998 -6.15632 -6.00786e-17)
(-819.045 -10.6929 -6.52053e-17)
(-790.444 -15.0322 7.03521e-17)
(-753.645 -19.0059 0)
(-710.459 -22.6399 -7.80002e-17)
(-663.596 -25.991 -8.10665e-17)
(-611.529 -28.7743 -7.08322e-17)
(-552.796 -31.7195 0)
(-494.862 -31.6377 0)
(-434.534 -30.9182 0)
(-374.312 -29.9402 -4.88173e-17)
(-315.477 -28.6235 0)
(-258.614 -27.0438 0)
(-204.318 -25.2898 4.36208e-17)
(-153.086 -23.4117 0)
(-105.238 -21.453 0)
(-60.9828 -19.4585 4.0661e-17)
(-20.444 -17.4586 0)
(16.306 -15.4982 0)
(49.2886 -13.6277 -3.89792e-17)
(78.6392 -11.8443 -3.86079e-17)
(104.314 -10.412 0)
(127.78 -9.0499 3.80754e-17)
(147.464 -9.00986 0)
(166.519 -13.1517 -3.79743e-17)
(191.545 -15.4478 0)
(215.927 -17.3429 -3.78744e-17)
(241.183 -19.6786 -3.80926e-17)
(268.32 -21.8196 0)
(296.783 -22.1541 0)
(323.116 -17.4921 0)
(340.273 -4.68699 0)
(338.843 15.8773 0)
(311.741 37.7712 0)
(260.056 51.9829 0)
(194.137 53.1242 -4.02647e-17)
(128.653 42.3922 4.0159e-17)
(75.9425 25.7729 0)
(41.8855 10.0742 0)
(25.3959 -0.242099 0)
(20.7855 -4.10155 0)
(21.3106 -3.13176 7.83836e-17)
(21.9418 -0.0915707 0)
(20.3522 2.62326 -7.78148e-17)
(16.3905 3.7432 7.75498e-17)
(10.913 3.08514 0)
(4.82875 1.14345 0)
(-1.31714 -1.27851 0)
(-7.50869 -3.35371 -7.64314e-17)
(-13.8866 -4.68964 -7.61773e-17)
(-19.9321 -5.64601 0)
(-24.2689 -6.80663 -7.57939e-17)
(-25.7159 -7.91056 -7.57113e-17)
(-24.6742 -7.78607 7.57144e-17)
(-23.2128 -5.62252 0)
(-23.5983 -1.81101 0)
(-26.6902 2.39239 7.6046e-17)
(-31.7204 5.65225 0)
(-37.2734 6.98425 0)
(-42.312 6.08903 0)
(-46.8324 3.84045 0)
(-51.936 2.43522 -7.70314e-17)
(-58.8802 3.26804 -7.73475e-17)
(-67.4434 3.54003 0)
(-74.9731 -1.03442 -7.76261e-17)
(-73.6565 -7.10188 0)
(-53.6185 -4.22619 0)
(-44.9733 13.9277 -7.74473e-17)
(-138.638 45.5126 0)
(-385.105 59.5864 -7.25477e-17)
(-626.643 8.18691 0)
(-659.951 -46.5478 0)
(-369.588 -7.04199 -7.64525e-17)
(290.067 -114.373 0)
(1579.31 -446.083 -1.46631e-17)
(2750.71 -311.633 0)
(2695.23 39.9552 0)
(2171.33 175.537 0)
(1532.1 197.274 -5.66222e-18)
(908.533 169.663 0)
(366.521 119.293 -2.25695e-17)
(-82.5617 96.7158 0)
(-419.548 80.7941 0)
(-712.916 67.3767 0)
(-950.378 53.1264 0)
(-1123.98 38.027 0)
(-1234.43 22.4109 0)
(-1291.15 6.81954 0)
(-1288.48 -6.99595 2.1056e-16)
(-1234.82 -21.3187 0)
(-1144.39 -28.8961 0)
(4.91264 -196.548 -3.1288e-17)
(65.6318 -169.289 3.33674e-17)
(142.395 -201.478 0)
(95.6172 -212.771 -2.56571e-17)
(107.047 -177.654 0)
(84.053 -194.996 -1.01687e-17)
(127.245 -101.683 2.14357e-17)
(87.3355 20.4269 2.01878e-17)
(18.1426 134.842 0)
(-62.2995 225.297 1.69217e-17)
(-148.919 272.679 6.54326e-18)
(-234.323 277.928 0)
(-308.612 249.899 0)
(-365.622 199.513 0)
(-402.4 136.521 0)
(-417.761 68.1629 6.569e-18)
(-411.743 -0.848512 0)
(-385.124 -67.8801 -1.61062e-17)
(-339.972 -131.738 0)
(-277.07 -192.569 0)
(-205.177 -251.182 1.56032e-17)
(-108.402 -310.4 0)
(-43.3562 -370.015 -1.40176e-17)
(46.7013 -421.296 4.93318e-18)
(155.051 -465.203 -4.22984e-18)
(290.375 -500.243 3.57613e-18)
(457.019 -519.418 3.03693e-18)
(656.267 -511.851 0)
(890.056 -461.038 0)
(1146.49 -349.256 -2.7359e-18)
(1417.11 -171.323 2.62331e-18)
(1681.92 99.5774 0)
(1871.44 428.451 0)
(2087.1 654.948 -3.58387e-18)
(2116.11 721.229 0)
(1681.41 400.887 0)
(1220.44 -262.48 5.50265e-18)
(1044.51 -386.317 0)
(824.871 158.131 -8.42403e-18)
(416.49 751.64 8.00608e-18)
(336.684 1234.71 0)
(-58.7524 1416.54 0)
(-637.15 1684.39 -1.6934e-17)
(-1175.08 1541.01 -1.57435e-17)
(-1399.79 364.419 -5.86812e-18)
(-1272 -1118.03 -4.9002e-18)
(-742.205 -1960.12 8.42592e-18)
(-162.614 -2173.01 2.75473e-17)
(445.191 -1699.81 -1.21381e-17)
(698.784 -342.604 -6.582e-18)
(427.453 1295.61 0)
(836.672 1189.59 4.57015e-18)
(2204.43 -844.544 -7.86932e-18)
(3532.95 -2000.64 0)
(3843.97 -1581.14 0)
(3817.73 -1166.94 0)
(3580.32 -660.553 7.41404e-18)
(3181.95 -187.992 0)
(2719.4 172.782 -2.76466e-17)
(2239.49 419.661 0)
(1781.91 560.675 -3.27016e-17)
(1377.94 615.701 0)
(1043.31 609.534 3.37741e-17)
(780.399 565.972 0)
(582.241 504.699 -3.14483e-17)
(436.991 439.752 1.39889e-17)
(331.679 379.615 0)
(252.791 328.715 2.36821e-17)
(190.526 288.397 1.09507e-17)
(138.935 255.986 9.10388e-18)
(90.1718 224.838 0)
(30.1617 195.758 4.7685e-18)
(-29.5564 179.817 2.8963e-18)
(-117.021 166.773 0)
(-204.13 156.026 2.6223e-19)
(-288.422 146.693 -3.47387e-18)
(-369.204 137.376 0)
(-445.177 127.655 -4.90314e-18)
(-515.744 117.411 0)
(-580.497 106.684 2.37433e-17)
(-639.171 95.5635 0)
(-691.585 84.1023 -3.36999e-17)
(-737.55 72.28 -1.31768e-17)
(-776.789 60.0042 1.45384e-17)
(-808.881 47.157 3.30251e-17)
(-833.255 33.6734 -3.71474e-17)
(-849.285 19.614 0)
(-856.408 5.18514 0)
(-854.207 -9.27105 0)
(-842.483 -23.2949 1.65074e-16)
(-821.375 -36.4544 5.96344e-17)
(-791.366 -48.3997 -6.41758e-17)
(-753.244 -58.7283 0)
(-708.226 -67.2759 -7.15454e-17)
(-659.483 -72.6917 7.20654e-17)
(-605.712 -80.3428 6.27391e-17)
(-546.201 -84.3748 0)
(-487.122 -85.1322 0)
(-427.789 -84.3861 0)
(-369.466 -82.5893 4.58833e-17)
(-312.731 -79.6789 0)
(-258.008 -75.8366 -8.54096e-17)
(-205.758 -71.3226 -1.24469e-16)
(-156.434 -66.3646 8.0956e-17)
(-110.389 -61.1531 0)
(-67.8488 -55.8297 3.89268e-17)
(-28.9043 -50.4874 0)
(6.48089 -45.2043 7.57088e-17)
(38.3785 -40.0633 -3.7444e-17)
(66.8407 -35.1317 -3.70912e-17)
(92.1319 -30.646 0)
(113.316 -26.6178 -1.09804e-16)
(132.006 -23.9081 7.27338e-17)
(145.053 -23.9535 3.62963e-17)
(147.675 -21.9791 0)
(148.415 -20.856 3.52045e-17)
(146.244 -21.6139 1.04088e-16)
(142.656 -22.6841 0)
(139.685 -23.3135 6.77451e-17)
(140.409 -21.4716 6.71793e-17)
(147.288 -14.0909 6.6879e-17)
(159.854 0.497831 0)
(174.485 19.7882 0)
(186.937 37.586 0)
(194.61 47.6812 -3.40102e-17)
(196.647 47.4832 -3.41443e-17)
(193.158 38.9409 0)
(185.057 26.6332 -6.85196e-17)
(174.267 14.9941 -6.8496e-17)
(163.338 6.61557 0)
(154.492 2.0411 -6.85002e-17)
(148.908 0.484325 -1.37096e-16)
(146.647 0.785186 6.86874e-17)
(146.946 2.09121 6.8884e-17)
(148.503 3.9987 0)
(149.612 6.33079 0)
(148.315 8.89243 0)
(142.819 11.3078 6.94784e-17)
(132.097 12.9482 -6.94978e-17)
(116.146 13.132 -1.38944e-16)
(95.8355 11.6261 6.93641e-17)
(72.9645 9.06445 -6.91646e-17)
(50.2842 6.68199 -6.90282e-17)
(30.6582 5.2857 0)
(15.6208 4.54953 0)
(4.9046 3.40853 6.86491e-17)
(-2.10869 1.28009 0)
(-4.27166 -1.00046 0)
(1.18356 -1.59716 -1.3832e-16)
(14.8883 0.487026 0)
(31.6255 3.97143 -7.0013e-17)
(43.1116 6.24095 7.07215e-17)
(45.3117 6.31931 0)
(36.2617 5.20263 -7.18539e-17)
(16.6258 1.00375 0)
(13.5436 -6.6831 0)
(32.0729 14.1447 7.12985e-17)
(-52.2597 124.325 -1.34644e-16)
(-344.592 246.81 6.51489e-17)
(-648.882 149.672 0)
(-716.961 -146.808 0)
(-165.972 -478.584 -5.82071e-17)
(1836.67 -985.534 0)
(3813.06 -1001.32 -1.34156e-17)
(3106.94 -101.063 0)
(2019.27 383.461 0)
(1181.7 483.358 0)
(665.11 439.899 4.68138e-18)
(359.146 369.933 0)
(116.896 298.058 2.25039e-17)
(-144.013 263.873 0)
(-466.675 229.662 0)
(-753.307 192.081 -1.49395e-16)
(-987.475 148.599 1.79429e-16)
(-1157.75 102.63 0)
(-1261.32 58.7743 0)
(-1310.45 18.3978 0)
(-1304.82 -17.2521 -5.99781e-16)
(-1246.38 -52.7587 0)
(-1162.07 -80.1616 2.84444e-16)
(-42.8092 -238.496 9.24665e-19)
(-74.6849 -285.479 -4.36342e-17)
(-94.7676 -230.64 0)
(-131.949 -168.714 4.20794e-17)
(-99.452 -165.021 0)
(-125.461 -121.598 0)
(-218.385 -7.07795 -7.06389e-19)
(-351.408 156.747 -1.90909e-17)
(-494.988 311.233 -1.87936e-17)
(-626.638 413.385 -1.64696e-17)
(-734.293 449.755 0)
(-813.464 428.024 0)
(-864.286 363.904 1.83878e-17)
(-889.107 273.448 3.72874e-17)
(-890.934 169.743 -3.78394e-17)
(-872.471 62.045 0)
(-835.889 -43.7747 -3.86059e-17)
(-782.937 -144.259 1.62814e-17)
(-715.195 -237.628 0)
(-634.127 -322.737 -3.7877e-17)
(-541.154 -399.272 -1.58954e-17)
(-438.117 -464.764 3.58149e-17)
(-324.264 -521.84 1.43168e-17)
(-212.181 -578.433 0)
(-102.099 -635.246 -2.65889e-17)
(-0.757104 -690.896 -2.31368e-17)
(93.8304 -742.911 0)
(190.585 -782.861 -1.6761e-17)
(306.324 -794.56 0)
(461.734 -755.106 -1.19365e-17)
(675.324 -640.654 -4.7095e-18)
(961.872 -430.464 0)
(1309.27 -138.467 0)
(1690.21 208.128 0)
(1989.55 564.008 0)
(2061.59 779.744 0)
(1867.1 687.102 0)
(1428.23 440.934 -1.95946e-17)
(941.608 566.268 2.69152e-17)
(590.911 1119.4 0)
(407.881 1547.15 0)
(292.383 1723.17 0)
(-72.483 2166.5 4.12812e-18)
(-471.322 2275.98 1.22364e-17)
(-516.27 587.589 9.84771e-19)
(-227.095 -1668.63 2.46289e-17)
(261.472 -2806.02 1.96448e-17)
(661.407 -2599.24 -2.18977e-17)
(677.653 -1285.03 2.84197e-18)
(837.018 109.077 -8.26306e-18)
(2288.17 -571.855 0)
(4067.67 -2136.55 -1.23055e-17)
(4364.57 -2147.6 -7.08003e-18)
(4116.47 -1631.17 0)
(3518.37 -964.392 0)
(2846.02 -386.313 2.43528e-17)
(2162.62 124.472 0)
(1562.76 535.205 0)
(1092.96 809.775 -3.35709e-17)
(763.717 947.228 -6.44016e-17)
(564.482 971.097 3.42387e-17)
(466.687 915.93 0)
(434.204 817.059 -3.57394e-17)
(432.762 703.655 0)
(436.219 595.48 -2.83797e-17)
(428.328 503.233 -3.02586e-17)
(401.581 430.48 5.18776e-17)
(355.416 375.744 2.25389e-17)
(293.488 336.934 0)
(217.437 310.242 -3.36175e-17)
(127.701 294.747 0)
(35.2365 289.12 -2.57103e-17)
(-54.0602 278.445 -1.0762e-17)
(-142.718 267.392 -4.62742e-18)
(-228.285 254.923 -1.36816e-18)
(-309.725 240.779 1.11007e-17)
(-386.185 225.325 0)
(-456.836 208.671 0)
(-521.255 191.067 -2.45742e-17)
(-579.362 172.825 -4.62953e-17)
(-631.348 154.215 0)
(-677.539 135.366 2.21469e-17)
(-718.227 116.209 0)
(-753.511 96.4879 -8.52427e-17)
(-783.171 75.8679 -1.28922e-18)
(-806.65 54.104 1.10027e-18)
(-823.18 31.2009 7.90297e-17)
(-831.966 7.44518 0)
(-832.288 -16.6679 -9.52403e-17)
(-823.619 -40.4261 -4.3838e-19)
(-805.8 -63.0186 0)
(-779.056 -83.7429 0)
(-743.729 -101.891 0)
(-699.135 -116.687 1.32965e-16)
(-654.759 -127.514 0)
(-598.702 -135.806 0)
(-533.439 -140.033 0)
(-471.916 -140.329 0)
(-409.285 -138.244 0)
(-348.684 -134.465 8.73641e-17)
(-291.174 -129.358 0)
(-237.164 -123.143 8.19721e-17)
(-186.627 -115.962 7.99277e-17)
(-139.409 -107.976 -7.8223e-17)
(-95.4802 -99.4373 0)
(-54.9828 -90.657 -7.56236e-17)
(-18.0994 -81.9157 0)
(15.1073 -73.3994 -7.3817e-17)
(44.7548 -65.2013 7.31489e-17)
(71.0706 -57.384 2.17671e-16)
(94.3002 -49.9409 0)
(114.524 -43.0733 2.15157e-16)
(131.864 -36.5032 7.1288e-17)
(147.433 -29.2602 0)
(160.086 -23.6984 1.41419e-16)
(167.125 -20.3321 1.4042e-16)
(170.252 -17.0685 -2.08111e-16)
(169.448 -15.043 0)
(162.739 -14.1183 -6.79665e-17)
(150.473 -13.002 -6.7197e-17)
(135.895 -9.1873 -1.99724e-16)
(124.931 -0.0912788 0)
(123.218 14.2344 0)
(131.904 29.5976 0)
(146.678 40.0032 -6.6309e-17)
(160.851 41.8674 0)
(169.284 36.0888 0)
(170.266 26.598 6.63915e-17)
(165.003 17.4478 6.62426e-17)
(156.012 10.889 0)
(145.7 7.1806 0)
(135.662 5.39741 1.31419e-16)
(126.691 4.38336 0)
(119.161 3.45381 -1.31088e-16)
(113.348 2.7036 -1.31024e-16)
(109.391 2.82492 0)
(106.999 4.55421 0)
(105.33 8.05923 1.31361e-16)
(103.247 12.6269 1.24773e-20)
(99.6868 16.8883 1.75327e-20)
(93.8312 19.4832 0)
(85.3428 19.6943 2.63489e-16)
(74.8956 17.7383 0)
(64.5353 14.7553 0)
(56.8066 12.2845 0)
(52.5378 11.0587 -1.3177e-16)
(49.5118 9.74891 0)
(44.9704 5.45691 2.63423e-16)
(40.9741 -2.9831 1.322e-16)
(45.4779 -11.6217 0)
(63.7266 -13.6044 1.33594e-16)
(88.7051 -6.56851 0)
(105.241 4.92343 0)
(102.485 14.1022 4.18217e-16)
(84.2287 10.7901 -2.74237e-16)
(81.3816 -5.84931 0)
(93.7415 31.6057 -2.87518e-16)
(-28.5951 224.697 1.36266e-16)
(-342.302 433.138 0)
(-584.265 240.596 0)
(-436.269 -438.76 0)
(794.742 -1367.65 2.93903e-16)
(3455.4 -1923.14 0)
(3295.08 -801.753 -2.46648e-18)
(1798 389.813 0)
(1059.82 766.848 0)
(834.49 709.221 0)
(696.464 579.453 0)
(466.96 492.313 0)
(164.942 442.895 0)
(-169.826 417.128 1.58418e-16)
(-496.359 375.843 0)
(-786.485 317.024 1.43928e-16)
(-1023.22 244.448 -5.10976e-16)
(-1194.4 166.134 0)
(-1295.7 91.8996 0)
(-1340.65 24.804 3.71729e-16)
(-1328.53 -34.3879 3.2947e-16)
(-1267.31 -85.98 -2.90913e-16)
(-1176.65 -127.784 -2.62942e-16)
(-55.1607 -6.59506 5.64968e-17)
(-95.4984 -59.1025 6.19992e-17)
(-74.2623 -175.143 3.39265e-17)
(-46.8137 -279.177 1.38676e-17)
(-173.56 -154.556 0)
(-403.398 107.751 -3.71876e-17)
(-668.506 385.557 1.96425e-17)
(-916.228 597.082 0)
(-1113.94 709.008 1.92952e-17)
(-1249.82 723.238 0)
(-1328.3 660.705 -4.40557e-17)
(-1361.66 547.742 0)
(-1362.86 407.721 -1.96291e-17)
(-1341.98 257.581 -3.97257e-17)
(-1305.37 107.825 4.0193e-17)
(-1256.21 -35.9177 0)
(-1195.54 -170.995 4.07792e-17)
(-1123.35 -296.21 0)
(-1039.41 -410.899 0)
(-943.835 -514.51 3.99822e-17)
(-837.125 -606.537 0)
(-720.775 -686.506 6.37091e-18)
(-595.296 -754.048 0)
(-465.839 -809.84 0)
(-335.097 -850.953 -5.03334e-18)
(-204.98 -879.8 2.39079e-17)
(-84.8537 -900.707 2.46692e-17)
(18.4214 -918.488 1.69522e-17)
(103.192 -935.816 0)
(179.139 -947.286 2.54864e-17)
(268.118 -933.196 0)
(404.015 -859.772 8.88511e-18)
(618.407 -697.069 0)
(917.198 -417.876 0)
(1277.8 -2.5285 -4.46178e-18)
(1621.56 495.973 0)
(1801.97 904.267 4.96725e-18)
(1699.37 1101.54 1.24978e-17)
(1381.83 1253.07 -1.38344e-17)
(1036.39 1555.57 -1.28465e-17)
(835.946 1817.34 0)
(663.188 1914.54 0)
(305.259 2535.21 3.5562e-18)
(2.99265 2619.93 0)
(311.316 334.012 2.18676e-18)
(916.478 -2476.75 -1.35923e-17)
(1356.63 -3370.97 -1.89019e-17)
(1661.16 -2791.04 0)
(2187.43 -2107.35 4.77564e-18)
(3473.14 -2308.48 3.11238e-18)
(4222.63 -2497.17 -2.5637e-17)
(4123.34 -2077.54 1.26677e-17)
(3436.17 -1286.83 1.61902e-17)
(2653.71 -564.081 0)
(1880.35 65.2994 0)
(1231.72 546.227 -2.43816e-17)
(748.6 880.063 0)
(451.079 1066.16 0)
(318.567 1118.89 6.39859e-17)
(304.978 1075.03 6.71282e-17)
(355.095 977.773 0)
(421.344 863.626 0)
(472.833 755.91 0)
(495.6 665.311 0)
(487.671 593.938 6.29636e-17)
(453.302 539.65 -5.85137e-17)
(398.525 499.065 -5.4798e-17)
(329.232 468.838 -1.00292e-16)
(248.393 445.674 0)
(159.629 425.824 1.37072e-19)
(73.9035 408.47 0)
(-12.0765 396.62 1.77445e-17)
(-101.826 382.713 3.60032e-20)
(-187.776 366.959 4.75022e-18)
(-268.199 348.706 1.45514e-18)
(-341.973 327.759 -4.73919e-19)
(-408.249 304.534 0)
(-466.607 279.668 1.83575e-17)
(-517.214 253.931 2.52666e-17)
(-560.794 228.073 6.06816e-17)
(-598.495 202.645 0)
(-631.636 177.838 -4.1292e-17)
(-661.383 153.4 0)
(-688.431 128.688 1.10499e-16)
(-712.798 102.889 -6.30123e-17)
(-733.786 75.3254 7.00452e-17)
(-750.19 45.7666 -7.72927e-17)
(-760.656 14.4961 -1.67739e-16)
(-763.905 -17.8674 9.24812e-17)
(-759.093 -50.3095 -1.00429e-16)
(-746.183 -81.5721 0)
(-725.593 -110.664 2.32525e-16)
(-697.901 -136.963 0)
(-663.816 -160.088 2.45488e-16)
(-626.635 -180.635 -2.21181e-16)
(-579.985 -191.777 -1.98455e-16)
(-525.423 -201.12 1.88284e-16)
(-466.142 -203.05 1.80045e-16)
(-402.889 -199.585 0)
(-338.416 -192.068 8.37356e-17)
(-275.674 -182.098 0)
(-217.15 -171.021 0)
(-164.15 -159.594 1.5492e-16)
(-116.705 -148.005 0)
(-74.0761 -136.151 0)
(-35.4646 -123.986 1.47626e-16)
(-0.468826 -111.688 0)
(30.9043 -99.6063 0)
(58.5382 -88.079 0)
(82.4889 -77.2929 -2.85129e-16)
(103.078 -67.2594 0)
(120.74 -57.9188 -2.82275e-16)
(135.817 -49.1454 -1.40584e-16)
(148.492 -40.99 -1.39969e-16)
(158.44 -34.7311 1.40554e-19)
(166.654 -29.0194 -1.39006e-16)
(172.547 -22.7473 2.74431e-16)
(174.609 -17.2417 1.36172e-16)
(173.537 -11.944 0)
(169.276 -5.99359 1.34225e-16)
(161.968 1.13148 2.6663e-16)
(153.074 9.61991 0)
(145.449 18.8261 0)
(141.731 26.9663 0)