/*--------------------------------*- C++ -*----------------------------------*\
| =========                 |                                                 |
| \\      /  F ield         | OpenFOAM: The Open Source CFD Toolbox           |
|  \\    /   O peration     | Version:  2112                                  |
|   \\  /    A nd           | Website:  www.openfoam.com                      |
|    \\/     M anipulation  |                                                 |
\*---------------------------------------------------------------------------*/
FoamFile
{
    version     2.0;
    format      ascii;
    arch        "LSB;label=32;scalar=64";
    class       volScalarField;
    location    "0.2";
    object      k;
}
// * * * * * * * * * * * * * * * * * * * * * * * * * * * * * * * * * * * * * //

dimensions      [0 2 -2 0 0 0 0];

internalField   nonuniform List<scalar> 
12225
(
1.16385
1.55961
1.6827
1.67903
1.62234
1.54557
1.46235
1.37805
1.29455
1.21217
1.13041
1.0483
0.964558
0.877691
0.786192
0.688516
0.584154
0.470607
0.384443
0.372603
0.34694
0.319533
0.295316
0.275388
0.259707
0.247858
0.239356
0.233812
0.230974
0.230716
0.233012
0.237907
0.245479
0.255812
0.269015
0.285104
0.366614
0.350713
0.329533
0.305792
0.281581
0.258215
0.236427
0.216576
0.198791
0.183073
0.169373
0.157639
0.147858
0.140082
0.134455
0.13123
0.13078
0.133626
0.367821
0.357702
0.345621
0.332256
0.318255
0.304136
0.290243
0.276771
0.263808
0.251359
0.239369
0.227744
0.216376
0.205159
0.194033
0.183023
0.172294
0.162238
0.368794
0.3613
0.352975
0.344035
0.334704
0.32519
0.315656
0.306211
0.296923
0.287818
0.278889
0.270097
0.261378
0.252644
0.243791
0.234716
0.225324
0.215628
0.369266
0.362973
0.356379
0.34953
0.342507
0.335394
0.328265
0.321177
0.314166
0.30725
0.300433
0.293698
0.287016
0.280338
0.273599
0.26672
0.259617
0.252257
0.369466
0.363726
0.357989
0.352226
0.346447
0.340674
0.334934
0.329251
0.323642
0.31812
0.312687
0.307339
0.302064
0.29684
0.291638
0.286416
0.281126
0.275759
0.36954
0.36404
0.358716
0.35352
0.348428
0.343428
0.338519
0.333703
0.328985
0.324367
0.31985
0.315431
0.311106
0.306867
0.3027
0.298588
0.294513
0.290491
0.369564
0.364157
0.359016
0.354097
0.349366
0.344799
0.340377
0.336092
0.331936
0.327904
0.323993
0.3202
0.316522
0.312955
0.309495
0.306135
0.30287
0.299726
0.36957
0.364196
0.359127
0.354329
0.349771
0.345426
0.341271
0.337291
0.333472
0.329805
0.326282
0.322899
0.319652
0.316539
0.313558
0.310706
0.307985
0.30542
0.369571
0.364206
0.359163
0.354412
0.349928
0.345685
0.341662
0.337841
0.334207
0.330749
0.327457
0.324324
0.321347
0.318523
0.31585
0.313326
0.310956
0.308762
0.36957
0.364208
0.359172
0.354437
0.349979
0.345775
0.341806
0.338053
0.334504
0.331144
0.327965
0.32496
0.322124
0.319452
0.316943
0.314597
0.312416
0.31042
0.369569
0.364208
0.359175
0.354446
0.349998
0.345811
0.341866
0.338146
0.334637
0.331329
0.32821
0.325275
0.322516
0.319931
0.317516
0.315271
0.313198
0.311312
0.369568
0.364206
0.359175
0.354448
0.350005
0.345825
0.341891
0.338186
0.334698
0.331414
0.328326
0.325424
0.322704
0.320161
0.317792
0.315594
0.313568
0.311727
0.369567
0.364205
0.359174
0.354449
0.350008
0.345832
0.341903
0.338206
0.334727
0.331454
0.328378
0.32549
0.322785
0.320255
0.317897
0.315707
0.313685
0.311844
0.369566
0.364203
0.359172
0.354448
0.35001
0.345837
0.341912
0.33822
0.334747
0.33148
0.32841
0.325527
0.322823
0.320293
0.31793
0.315729
0.313689
0.31182
0.369565
0.364201
0.35917
0.354447
0.350011
0.345841
0.341921
0.338233
0.334765
0.331503
0.328436
0.325555
0.322851
0.320315
0.317942
0.315723
0.313656
0.311753
0.369563
0.364198
0.359167
0.354446
0.350012
0.345846
0.34193
0.338247
0.334784
0.331527
0.328463
0.325583
0.322876
0.320333
0.317947
0.315709
0.313615
0.311678
0.369561
0.364195
0.359164
0.354444
0.350013
0.345851
0.34194
0.338263
0.334805
0.331551
0.32849
0.32561
0.322899
0.320349
0.31795
0.315693
0.313572
0.311603
0.36956
0.364193
0.359162
0.354444
0.350017
0.345859
0.341952
0.33828
0.334825
0.331574
0.328514
0.325632
0.322918
0.320359
0.317949
0.315676
0.313535
0.311541
0.369559
0.364192
0.359163
0.354448
0.350023
0.345869
0.341966
0.338296
0.334843
0.331593
0.328531
0.325645
0.322924
0.320356
0.317932
0.315643
0.313483
0.311466
0.369559
0.364193
0.359165
0.354452
0.350029
0.345875
0.34197
0.338296
0.334837
0.331576
0.328501
0.325597
0.322854
0.320261
0.317807
0.315485
0.313286
0.311228
0.369559
0.364193
0.359164
0.354444
0.350008
0.345832
0.341896
0.33818
0.334667
0.331342
0.328192
0.325205
0.32237
0.319678
0.317119
0.314687
0.312374
0.310199
0.369557
0.36418
0.359121
0.354345
0.349822
0.345528
0.341443
0.337551
0.333838
0.330292
0.326906
0.32367
0.320577
0.317622
0.314796
0.312093
0.309511
0.307067
0.369539
0.36409
0.35888
0.35386
0.349
0.344288
0.339721
0.335298
0.331022
0.326895
0.322919
0.319095
0.315422
0.311897
0.308517
0.305278
0.302176
0.299231
0.369451
0.3637
0.357955
0.352184
0.346396
0.340623
0.334908
0.329292
0.323811
0.318494
0.31336
0.308422
0.303686
0.299152
0.294819
0.290681
0.28673
0.282985
0.369177
0.362499
0.355194
0.347352
0.33915
0.330789
0.322438
0.314229
0.306261
0.298599
0.291286
0.284341
0.277769
0.271564
0.265711
0.260192
0.254984
0.250084
0.368986
0.360216
0.34879
0.335423
0.320976
0.306155
0.291486
0.277329
0.263911
0.251355
0.239709
0.228972
0.219109
0.210068
0.201787
0.194201
0.187246
0.180867
0.378722
0.372559
0.357557
0.33779
0.316495
0.295535
0.276022
0.258503
0.243111
0.22976
0.218273
0.208449
0.200094
0.193031
0.187111
0.182211
0.178236
0.175155
0.807946
1.13411
1.35402
1.47591
1.52571
1.52863
1.5035
1.46301
1.41522
1.36505
1.31534
1.2676
1.22257
1.18049
1.14132
1.10486
1.07079
1.03888
0.129419
0.226402
0.312055
0.339585
0.349932
0.353292
0.354113
0.354576
0.354346
0.350368
0.33959
0.318343
0.282514
0.229939
0.167569
0.12352
0.146716
0.220547
0.26306
0.244164
0.211113
0.188499
0.20484
0.370013
0.552581
0.710425
0.845127
0.956113
1.04443
1.11198
1.16107
1.1941
1.2134
1.22117
1.21942
1.20995
1.19432
1.1739
1.14982
1.12305
1.09547
1.06772
1.03993
1.01221
0.984649
0.957346
0.930359
0.903733
0.877485
0.851607
0.826059
0.800769
0.775625
0.750476
0.725136
0.699391
0.673017
0.645806
0.617602
0.588334
0.558045
0.526899
0.495179
0.463255
0.431547
0.400487
0.370498
0.342018
0.315696
0.293195
0.279289
0.27348
0.269474
0.266279
0.263734
0.261801
0.260475
0.259761
0.259665
0.260193
0.26134
0.263086
0.265351
0.267905
0.270146
0.27087
0.26853
0.262839
0.253361
0.239893
0.223795
0.207484
0.19342
0.183067
0.176533
0.172988
0.171498
0.171998
0.174715
0.179201
0.18571
0.194276
0.204588
0.216208
0.228802
0.242298
0.256505
0.270818
0.286963
0.315507
0.394897
0.587299
0.7719
0.907284
0.998226
1.05133
1.07415
1.07373
1.05615
1.02654
0.989081
0.94831
0.905584
0.861589
0.816697
0.77101
0.724416
0.67671
0.627783
0.577938
0.528569
0.485067
0.472068
0.490757
0.514575
0.542997
0.576788
0.616592
0.662773
0.715449
0.774575
0.840004
0.911313
0.988299
1.07286
1.15911
1.21028
1.1968
1.09791
0.909843
0.664818
0.435353
0.28967
0.224918
0.196772
0.188953
0.217616
0.278999
0.309633
0.312911
0.301602
0.277526
0.239354
0.19857
0.161591
0.131384
0.111233
0.103337
0.101142
0.099998
0.0995358
0.0995972
0.100112
0.101072
0.102518
0.104546
0.107316
0.110976
0.116664
0.122649
0.206418
0.406101
0.449785
0.454205
0.439359
0.412411
0.381328
0.351541
0.325935
0.306128
0.291582
0.280125
0.268037
0.250555
0.228081
0.232372
0.311824
0.454223
0.644219
0.779863
0.781514
0.75757
0.751187
0.76757
0.785103
0.795596
0.799805
0.799349
0.795968
0.791185
0.786182
0.781811
0.778635
0.776994
0.777073
0.778957
0.782683
0.78827
0.795744
0.804983
0.814752
0.824501
0.834249
0.844078
0.854114
0.864513
0.875426
0.886986
0.89928
0.912329
0.926063
0.940298
0.954713
0.968825
0.981985
0.993373
1.00204
1.00699
1.00727
1.0021
0.991048
0.97404
0.951436
0.923943
0.892515
0.858213
0.822085
0.785063
0.747847
0.710796
0.67695
0.64703
0.619234
0.593264
0.569011
0.546394
0.525336
0.505767
0.487623
0.470845
0.455384
0.441191
0.428225
0.416471
0.405986
0.396847
0.388647
0.379482
0.369402
0.360557
0.35598
0.357476
0.365758
0.380289
0.399022
0.41826
0.432679
0.436092
0.424061
0.397475
0.362047
0.326202
0.296998
0.276859
0.264365
0.260497
0.279358
0.352372
0.47187
0.566988
0.607544
0.647418
0.678785
0.701838
0.721679
0.7414
0.76239
0.785188
0.810103
0.837454
0.867579
0.899297
0.931946
0.96484
0.996835
1.02627
1.05088
1.06788
1.07418
1.06702
1.04453
1.00552
0.955329
0.905789
0.855013
0.805646
0.759543
0.717668
0.680268
0.647065
0.617485
0.590856
0.566329
0.543004
0.521109
0.503314
0.504741
0.525067
0.556953
0.598992
0.661233
0.753743
0.856162
0.882269
0.77264
0.631649
0.591591
0.645094
0.701236
0.721116
0.698759
0.646195
0.57747
0.50642
0.443328
0.391754
0.348602
0.311811
0.279129
0.248977
0.220419
0.1931
0.167098
0.142775
0.120619
0.101103
0.0845478
0.0712642
0.0613293
0.0558719
0.505855
0.526374
0.535353
0.527638
0.493278
0.444449
0.396139
0.355688
0.322318
0.295941
0.276944
0.265586
0.264555
0.294681
0.422439
0.665533
0.949671
1.01456
0.933008
0.853022
0.793378
0.75431
0.734105
0.726901
0.725569
0.727213
0.731168
0.737148
0.744837
0.753787
0.763455
0.77333
0.783033
0.792378
0.801335
0.809941
0.818215
0.826096
0.833452
0.839959
0.845609
0.850455
0.854682
0.858607
0.862658
0.867337
0.873168
0.880655
0.890229
0.902212
0.916774
0.933899
0.95335
0.974635
0.996979
1.01931
1.04027
1.05834
1.0719
1.07953
1.08014
1.07318
1.05874
1.03744
1.01037
0.97879
0.944024
0.907242
0.869316
0.830953
0.796029
0.763544
0.732876
0.703909
0.676587
0.650854
0.626655
0.603936
0.582649
0.562764
0.544266
0.52717
0.511518
0.497389
0.484882
0.474098
0.465005
0.457321
0.450808
0.445159
0.439615
0.434049
0.428458
0.422767
0.416982
0.41129
0.405877
0.400043
0.391909
0.379317
0.361302
0.339828
0.32098
0.311749
0.317721
0.352106
0.441935
0.553151
0.602981
0.602307
0.609936
0.634913
0.667595
0.702259
0.734374
0.761437
0.784033
0.804586
0.825399
0.847577
0.87104
0.89725
0.92593
0.956383
0.987572
1.01794
1.04521
1.06639
1.0779
1.07627
1.05878
1.02305
0.975968
0.925716
0.873651
0.822918
0.775716
0.733225
0.695784
0.663118
0.634553
0.609207
0.586164
0.564618
0.54409
0.524313
0.505019
0.486417
0.472501
0.468871
0.483994
0.529935
0.620415
0.759245
0.899647
0.960395
0.975335
1.01948
1.0628
1.05003
0.956906
0.825524
0.698615
0.589139
0.499866
0.429232
0.374007
0.330504
0.295196
0.265179
0.238292
0.21317
0.189146
0.166018
0.143883
0.123026
0.103773
0.0866059
0.0720996
0.0616491
0.720634
0.613868
0.657768
0.632565
0.551793
0.45998
0.382285
0.323624
0.287729
0.26883
0.264818
0.293801
0.384445
0.568599
0.825683
1.0326
1.04368
0.938991
0.834388
0.76375
0.722808
0.703834
0.700414
0.706928
0.719034
0.734185
0.750772
0.767543
0.783455
0.797732
0.809995
0.820323
0.829129
0.836926
0.844096
0.850761
0.856774
0.86179
0.864874
0.865139
0.862381
0.856636
0.848187
0.837587
0.825645
0.813381
0.801951
0.792557
0.786351
0.784336
0.787284
0.795675
0.809641
0.828932
0.852881
0.880374
0.909845
0.93932
0.966553
0.989263
1.00545
1.0137
1.01341
1.00482
0.988867
0.966897
0.94038
0.91064
0.878576
0.846665
0.816529
0.787568
0.759739
0.733064
0.707552
0.683195
0.65998
0.637888
0.616911
0.597053
0.578337
0.560816
0.544579
0.529758
0.516501
0.504935
0.495107
0.486946
0.480199
0.474418
0.469012
0.463429
0.457235
0.450136
0.44188
0.432077
0.420229
0.4064
0.391523
0.376714
0.362961
0.35177
0.347524
0.359522
0.402046
0.493541
0.592815
0.618705
0.594905
0.588988
0.61118
0.649778
0.690144
0.722487
0.742899
0.753478
0.759133
0.76405
0.770443
0.779036
0.789915
0.804177
0.821657
0.842073
0.864947
0.889337
0.913545
0.934896
0.949815
0.954342
0.944771
0.918056
0.880891
0.838418
0.793698
0.750121
0.710087
0.674918
0.645004
0.620038
0.599246
0.581599
0.566046
0.551732
0.538021
0.524554
0.511183
0.497072
0.480886
0.464259
0.451223
0.450831
0.480689
0.564563
0.712611
0.885162
1.02007
1.10159
1.13051
1.09821
0.996457
0.843919
0.696299
0.571756
0.471783
0.393169
0.332
0.284606
0.247739
0.218585
0.194747
0.174273
0.155969
0.139331
0.123907
0.109366
0.0956377
0.0828266
0.071256
0.0622615
0.809815
0.730804
0.794421
0.720187
0.593306
0.470245
0.383824
0.340782
0.322573
0.331008
0.376227
0.474854
0.634137
0.824741
0.960624
0.969175
0.887643
0.797996
0.736795
0.705854
0.697611
0.704841
0.721883
0.744478
0.769654
0.795383
0.820118
0.842685
0.862432
0.879324
0.893824
0.90661
0.918286
0.929194
0.939372
0.948584
0.95641
0.962336
0.9636
0.959758
0.950245
0.934712
0.913164
0.886047
0.854297
0.819334
0.782992
0.747381
0.714712
0.687098
0.666366
0.653899
0.650536
0.656531
0.671544
0.694654
0.724351
0.758529
0.794535
0.829337
0.859875
0.883531
0.898578
0.904426
0.901612
0.891404
0.875395
0.855047
0.831924
0.808782
0.785677
0.76281
0.740339
0.718362
0.696935
0.676091
0.655854
0.636248
0.617298
0.599041
0.58153
0.564838
0.549066
0.534343
0.520818
0.50864
0.497937
0.488766
0.481041
0.474502
0.468745
0.463296
0.457683
0.451491
0.444375
0.435984
0.425873
0.413711
0.400074
0.387319
0.378593
0.37735
0.389791
0.429676
0.513121
0.611565
0.640555
0.596088
0.57198
0.586375
0.625282
0.669339
0.703141
0.719971
0.722029
0.71586
0.707237
0.699475
0.694064
0.691609
0.692423
0.696569
0.704016
0.714903
0.729379
0.747269
0.76765
0.788461
0.806364
0.81711
0.816074
0.799922
0.773315
0.739927
0.703573
0.667892
0.635565
0.608131
0.586085
0.569107
0.556318
0.546537
0.538529
0.531224
0.523896
0.516293
0.508435
0.499899
0.48919
0.474621
0.457257
0.441822
0.437964
0.46349
0.53833
0.660173
0.789477
0.879634
0.906444
0.867381
0.782665
0.678642
0.572454
0.478264
0.399335
0.334562
0.28183
0.239121
0.2047
0.177054
0.154806
0.136976
0.122534
0.110303
0.0995089
0.0896873
0.0806021
0.0721798
0.06459
0.0590649
0.815282
0.856924
0.901437
0.797442
0.650577
0.529767
0.463356
0.437383
0.442944
0.483318
0.561716
0.672145
0.787578
0.862843
0.868513
0.820678
0.761127
0.719758
0.703391
0.70763
0.726189
0.753923
0.787036
0.822673
0.858568
0.89293
0.924563
0.95299
0.978389
1.00135
1.02257
1.04262
1.0618
1.08011
1.09725
1.11266
1.12556
1.13405
1.13752
1.13517
1.12575
1.1081
1.0813
1.04485
0.998859
0.944201
0.882692
0.817128
0.751134
0.688768
0.633937
0.589822
0.558502
0.540867
0.536779
0.545321
0.56501
0.59388
0.629403
0.668382
0.707068
0.741656
0.768998
0.787193
0.796011
0.796394
0.78997
0.778395
0.764368
0.748974
0.732813
0.716252
0.699502
0.682685
0.665876
0.649129
0.63249
0.616004
0.599725
0.583708
0.568021
0.552746
0.53798
0.52384
0.510461
0.497992
0.48658
0.476352
0.467377
0.459646
0.45305
0.447368
0.442267
0.437326
0.432096
0.426144
0.419084
0.410701
0.401495
0.39358
0.390964
0.399641
0.430245
0.498583
0.599752
0.661703
0.619646
0.565225
0.561509
0.5948
0.641416
0.680356
0.699842
0.7
0.687939
0.670937
0.653589
0.638214
0.625861
0.616946
0.611617
0.609068
0.609264
0.61263
0.619873
0.631603
0.647792
0.667186
0.686944
0.702762
0.709353
0.702959
0.68574
0.660739
0.631866
0.602997
0.577161
0.556192
0.540748
0.530517
0.5245
0.521326
0.519556
0.517971
0.515747
0.512504
0.508182
0.502707
0.495446
0.484722
0.469517
0.451312
0.435474
0.431642
0.452571
0.504154
0.570831
0.621655
0.632963
0.600763
0.540084
0.478972
0.420837
0.367887
0.320753
0.279092
0.242436
0.210443
0.18287
0.159465
0.139917
0.123624
0.109955
0.0983829
0.0884757
0.0799056
0.0724566
0.0660256
0.0607496
0.0578727
0.787911
0.960333
1.00101
0.883618
0.740982
0.640783
0.591433
0.576363
0.593916
0.637145
0.695161
0.750412
0.783568
0.784902
0.761287
0.730813
0.710594
0.708428
0.723369
0.751228
0.787874
0.829842
0.874053
0.917771
0.958871
0.996105
1.02913
1.0583
1.0844
1.10837
1.13104
1.15308
1.1748
1.19623
1.21702
1.23649
1.25368
1.26764
1.27848
1.28475
1.28474
1.27678
1.25931
1.23094
1.19046
1.137
1.07021
0.99083
0.901328
0.80643
0.712907
0.628303
0.558969
0.5085
0.477481
0.464375
0.466706
0.482054
0.508158
0.542387
0.58116
0.620017
0.654534
0.681175
0.698534
0.706901
0.707835
0.703633
0.696359
0.687158
0.676729
0.665475
0.653625
0.641309
0.628608
0.615581
0.602281
0.588766
0.575095
0.561336
0.547563
0.533854
0.520299
0.506997
0.494066
0.481639
0.469877
0.458956
0.449056
0.440338
0.432912
0.426796
0.421879
0.417906
0.414496
0.411197
0.407597
0.403492
0.399244
0.39667
0.400428
0.419296
0.467366
0.555574
0.650044
0.660082
0.584341
0.544523
0.561412
0.606475
0.652484
0.680624
0.685825
0.673933
0.653438
0.63057
0.608801
0.589859
0.574453
0.56266
0.554201
0.547704
0.542984
0.540586
0.541639
0.547467
0.558953
0.575756
0.595752
0.614863
0.627443
0.628966
0.619803
0.602125
0.579607
0.556307
0.535622
0.519729
0.509472
0.504538
0.503775
0.505582
0.508312
0.510613
0.511641
0.511087
0.508993
0.50543
0.500187
0.492261
0.480202
0.463892
0.445098
0.428983
0.42364
0.433781
0.453744
0.468599
0.465347
0.441872
0.406016
0.367939
0.335337
0.306123
0.278722
0.252528
0.227465
0.203743
0.18158
0.161157
0.142658
0.126201
0.111774
0.0992652
0.0885136
0.0793541
0.0716627
0.065407
0.0608176
0.059231
0.7512
1.06063
1.10307
0.98525
0.850154
0.759617
0.706457
0.687894
0.691665
0.706296
0.721573
0.729763
0.727921
0.718686
0.708703
0.705619
0.714737
0.737212
0.771107
0.81336
0.860546
0.909068
0.955601
0.997678
1.03401
1.06444
1.08964
1.11084
1.12943
1.14679
1.16409
1.18216
1.20147
1.22211
1.24376
1.26577
1.28712
1.30843
1.32841
1.3451
1.35648
1.36064
1.35599
1.34134
1.31577
1.2783
1.22762
1.16189
1.07941
0.980123
0.867696
0.750712
0.641326
0.551
0.486059
0.446451
0.427801
0.425573
0.436864
0.45981
0.491879
0.528703
0.565141
0.596182
0.618787
0.63251
0.638765
0.639978
0.637769
0.633259
0.627172
0.619943
0.611824
0.602961
0.593444
0.58334
0.572711
0.561618
0.550126
0.538304
0.526227
0.513968
0.501609
0.489234
0.47694
0.464847
0.453105
0.441909
0.431495
0.422134
0.414091
0.407584
0.402724
0.399474
0.397627
0.396837
0.396712
0.396952
0.397634
0.400373
0.410625
0.439563
0.502045
0.597587
0.667878
0.636572
0.554721
0.53301
0.565756
0.616172
0.656738
0.673683
0.668327
0.649205
0.624321
0.598742
0.575201
0.555048
0.538727
0.525995
0.516141
0.507447
0.499507
0.492829
0.488781
0.489237
0.495884
0.509285
0.528128
0.548839
0.565337
0.57299
0.570554
0.559059
0.541773
0.52286
0.506078
0.493957
0.487524
0.486428
0.489304
0.494287
0.499531
0.503635
0.505854
0.506083
0.504611
0.501774
0.49768
0.491912
0.483013
0.47005
0.453273
0.434144
0.417296
0.408107
0.405689
0.403072
0.393962
0.377375
0.356603
0.335336
0.315242
0.295996
0.276688
0.256698
0.235937
0.214715
0.193609
0.173228
0.154079
0.136513
0.120717
0.106747
0.0945775
0.0841476
0.0754104
0.0684162
0.0635246
0.0622086
0.70577
1.15005
1.20263
1.08454
0.946382
0.837513
0.771839
0.735857
0.716631
0.705835
0.699017
0.694529
0.692577
0.694551
0.702732
0.719653
0.746805
0.783761
0.828331
0.87707
0.925915
0.971072
1.00982
1.04086
1.06427
1.08108
1.09296
1.1018
1.10941
1.11739
1.12699
1.13911
1.15432
1.17281
1.19439
1.21844
1.24523
1.27435
1.30394
1.33163
1.35478
1.37082
1.37762
1.37383
1.3591
1.33384
1.29839
1.25192
1.19158
1.11306
1.01309
0.893442
0.764019
0.641269
0.541433
0.472845
0.431988
0.411479
0.40635
0.414938
0.436256
0.466559
0.500498
0.532548
0.556862
0.573776
0.584161
0.589473
0.591098
0.590112
0.587248
0.582967
0.577547
0.57116
0.56392
0.555914
0.547221
0.537911
0.52806
0.517738
0.507019
0.495975
0.484678
0.473203
0.461632
0.450064
0.438636
0.427534
0.417014
0.407398
0.399049
0.392333
0.387556
0.384915
0.384447
0.386011
0.389284
0.393796
0.399228
0.407068
0.423552
0.461202
0.532609
0.623954
0.665492
0.609161
0.533818
0.526543
0.570142
0.621851
0.655814
0.663986
0.651992
0.629088
0.602337
0.575908
0.552005
0.531688
0.515227
0.502194
0.491589
0.481586
0.471577
0.46192
0.454006
0.450029
0.452259
0.462082
0.478927
0.499637
0.518342
0.530688
0.533655
0.527207
0.514088
0.498482
0.48448
0.47496
0.471105
0.472468
0.47742
0.483815
0.489657
0.493586
0.495058
0.494254
0.491783
0.488314
0.484299
0.479778
0.473881
0.4647
0.451796
0.435145
0.416133
0.398874
0.386532
0.377501
0.368332
0.357514
0.34549
0.33293
0.319765
0.305402
0.289287
0.271232
0.251469
0.23054
0.209148
0.188013
0.167761
0.148861
0.131615
0.116174
0.102585
0.0908348
0.0809125
0.0729174
0.067312
0.065697
0.65096
1.21426
1.27817
1.15573
0.997201
0.87399
0.792569
0.740648
0.707811
0.688365
0.679487
0.679459
0.686984
0.701462
0.723322
0.753427
0.791812
0.836811
0.885065
0.93228
0.974375
1.00843
1.03313
1.04863
1.05625
1.05796
1.05592
1.05225
1.04876
1.04694
1.048
1.05288
1.06229
1.07671
1.09627
1.12063
1.15101
1.18592
1.22351
1.26134
1.2964
1.32532
1.34481
1.35233
1.34684
1.32918
1.30173
1.26664
1.22348
1.16788
1.09263
0.992164
0.868976
0.736028
0.61357
0.52102
0.460213
0.423185
0.402911
0.39728
0.406829
0.428581
0.456869
0.485668
0.510518
0.529532
0.542701
0.550957
0.555431
0.557086
0.556613
0.554473
0.550964
0.546289
0.540594
0.533999
0.526606
0.518511
0.5098
0.500555
0.490852
0.480762
0.470353
0.459691
0.448846
0.437904
0.426978
0.416237
0.405924
0.396376
0.388007
0.381287
0.376684
0.374621
0.375414
0.379194
0.385783
0.394532
0.404651
0.417401
0.43943
0.483378
0.557722
0.637762
0.654101
0.586129
0.520917
0.523663
0.57113
0.621768
0.651287
0.654254
0.638809
0.614439
0.587349
0.561101
0.537453
0.517195
0.500516
0.486972
0.475531
0.464503
0.453164
0.441656
0.43119
0.42404
0.422758
0.429398
0.44373
0.463151
0.483327
0.499014
0.506169
0.503716
0.493794
0.480546
0.468366
0.460459
0.458127
0.46077
0.466456
0.472775
0.477654
0.479863
0.479132
0.475957
0.471256
0.465997
0.460934
0.456473
0.452447
0.446804
0.438294
0.426196
0.410467
0.392972
0.377311
0.365603
0.357146
0.350275
0.343696
0.33642
0.327531
0.316277
0.30225
0.285457
0.266276
0.245356
0.223495
0.201515
0.180158
0.160011
0.141479
0.124789
0.110031
0.0972072
0.0863008
0.0774179
0.0710745
0.0689566
0.582972
1.22617
1.29793
1.17547
1.01334
0.88093
0.78947
0.73039
0.694982
0.67774
0.674884
0.683283
0.700548
0.725502
0.75799
0.79776
0.843267
0.89127
0.937425
0.977455
1.00821
1.02821
1.03759
1.03776
1.03089
1.01938
1.00553
0.991325
0.978373
0.967937
0.960998
0.958353
0.960748
0.968974
0.983764
1.00556
1.03544
1.07162
1.11259
1.15629
1.19984
1.23961
1.27145
1.29134
1.29643
1.28632
1.26378
1.23357
1.19902
1.15856
1.10465
1.02722
0.922843
0.798409
0.671216
0.567638
0.49427
0.444944
0.412849
0.395727
0.394105
0.406614
0.428603
0.454019
0.477898
0.497537
0.512229
0.52241
0.528895
0.532464
0.533721
0.533098
0.5309
0.527355
0.522646
0.51693
0.510342
0.503005
0.495028
0.486505
0.47752
0.468146
0.45845
0.448492
0.438335
0.428048
0.417727
0.407513
0.397625
0.388384
0.380221
0.37367
0.369329
0.367824
0.369757
0.375586
0.385371
0.398377
0.413296
0.430881
0.457564
0.505093
0.577523
0.643591
0.641162
0.569941
0.513826
0.521488
0.568724
0.616765
0.643195
0.64458
0.628964
0.604995
0.578288
0.552721
0.529585
0.509228
0.491819
0.477145
0.464478
0.452416
0.440186
0.427721
0.415878
0.40681
0.403214
0.40699
0.418755
0.436985
0.457801
0.475792
0.486117
0.486735
0.479166
0.467481
0.456355
0.449296
0.447673
0.450684
0.456074
0.461213
0.46403
0.463505
0.459675
0.453343
0.445693
0.437924
0.43101
0.425621
0.421954
0.418879
0.414361
0.407209
0.396725
0.383455
0.369741
0.358439
0.350793
0.3461
0.342709
0.33886
0.33307
0.324328
0.312157
0.296574
0.278001
0.25715
0.234908
0.212208
0.189915
0.168738
0.149179
0.131533
0.115921
0.102343
0.0907562
0.0812415
0.0743204
0.0717112
0.492055
1.16407
1.26043
1.15962
1.00485
0.870903
0.776722
0.71766
0.685739
0.674674
0.679552
0.696512
0.722996
0.757707
0.799739
0.847363
0.897361
0.94533
0.986713
1.01793
1.03707
1.04398
1.04
1.02743
1.00893
0.987121
0.964242
0.942102
0.922052
0.90499
0.891428
0.881782
0.876761
0.877548
0.885713
0.903133
0.929174
0.96238
1.00166
1.04552
1.09167
1.13678
1.17659
1.20631
1.22151
1.21968
1.20222
1.17473
1.14341
1.11019
1.0695
1.00898
0.923264
0.815312
0.700806
0.599104
0.520508
0.463782
0.423693
0.398505
0.389195
0.394983
0.411757
0.433749
0.455918
0.475212
0.490484
0.50176
0.509543
0.514406
0.516836
0.517216
0.515848
0.512982
0.508835
0.503597
0.497442
0.49052
0.482965
0.474887
0.466382
0.457529
0.448395
0.439036
0.429508
0.41987
0.410197
0.400604
0.391278
0.382507
0.374713
0.368459
0.364435
0.363442
0.366348
0.37397
0.386723
0.403975
0.423946
0.446476
0.477062
0.52588
0.593316
0.645739
0.630803
0.560508
0.510555
0.518633
0.562643
0.607469
0.632362
0.634307
0.620275
0.598094
0.573271
0.54908
0.526545
0.505825
0.487066
0.470607
0.456319
0.443094
0.430174
0.417372
0.405253
0.39539
0.390164
0.391865
0.401664
0.418752
0.439798
0.459397
0.4721
0.475015
0.469093
0.458334
0.447684
0.440924
0.43944
0.442176
0.446552
0.449768
0.449834
0.445992
0.438601
0.428754
0.417857
0.407275
0.398121
0.391203
0.386998
0.385131
0.383538
0.380793
0.375762
0.368244
0.359448
0.351542
0.346177
0.343465
0.342184
0.340553
0.336898
0.33002
0.319311
0.30472
0.286656
0.26587
0.243324
0.220054
0.197034
0.175076
0.154765
0.136448
0.120268
0.106219
0.094227
0.0843316
0.0770275
0.0740148
0.454141
1.07161
1.19222
1.12132
0.982704
0.853598
0.761072
0.704929
0.677947
0.673254
0.685409
0.710495
0.746065
0.790478
0.841743
0.896619
0.950571
0.99856
1.03619
1.06063
1.07095
1.068
1.05398
1.0318
1.00448
0.97479
0.944982
0.91675
0.891343
0.869457
0.851207
0.836576
0.825857
0.820039
0.821396
0.833581
0.85394
0.88149
0.91528
0.954375
0.997252
1.04123
1.08237
1.11591
1.13686
1.14122
1.12863
1.10415
1.07473
1.04422
1.00951
0.961443
0.891458
0.799701
0.698255
0.604248
0.528303
0.470574
0.427581
0.398919
0.386058
0.388325
0.401829
0.421171
0.441592
0.460085
0.475329
0.487081
0.495583
0.501213
0.504341
0.505295
0.504369
0.50183
0.497922
0.49287
0.486877
0.480123
0.472763
0.464929
0.456727
0.448244
0.439551
0.430701
0.421745
0.41273
0.403715
0.394792
0.386109
0.377916
0.370603
0.364733
0.361051
0.360489
0.364147
0.373202
0.388528
0.409845
0.435124
0.462942
0.497112
0.545777
0.606835
0.647482
0.624939
0.557006
0.509962
0.514881
0.55345
0.594671
0.619099
0.623006
0.611752
0.592203
0.569539
0.546721
0.524783
0.503896
0.484215
0.46633
0.450515
0.436172
0.422674
0.409729
0.397605
0.387465
0.381425
0.381864
0.390331
0.406578
0.427773
0.448582
0.463083
0.467669
0.462814
0.452487
0.441908
0.435095
0.433387
0.435429
0.438318
0.439142
0.436052
0.428592
0.417447
0.403984
0.3898
0.376383
0.364921
0.356284
0.351045
0.349414
0.349623
0.350286
0.350076
0.348305
0.345351
0.342479
0.340931
0.341003
0.341865
0.342024
0.339918
0.334342
0.324636
0.310705
0.292949
0.27215
0.249336
0.225628
0.202084
0.179588
0.15878
0.14004
0.123525
0.10922
0.0970251
0.0869366
0.0794031
0.0760664
0.434382
0.963314
1.10856
1.07422
0.958386
0.837357
0.74682
0.692411
0.668485
0.668104
0.685745
0.717683
0.761548
0.815225
0.875684
0.938486
0.998142
1.04916
1.08716
1.10964
1.11616
1.10811
1.0882
1.05978
1.0262
0.990401
0.95474
0.921008
0.890647
0.864713
0.843436
0.826925
0.815268
0.807729
0.804566
0.809315
0.821962
0.841474
0.866865
0.897579
0.93265
0.969953
1.00603
1.03649
1.05663
1.06261
1.05336
1.0321
1.00479
0.97565
0.943156
0.900037
0.838541
0.758259
0.669421
0.586577
0.518175
0.464088
0.422502
0.394547
0.381925
0.383645
0.395832
0.413528
0.432502
0.450061
0.464924
0.476709
0.485471
0.491427
0.49485
0.496021
0.495224
0.492737
0.48883
0.483753
0.477735
0.470979
0.463663
0.455933
0.447911
0.439693
0.431351
0.422941
0.414507
0.406088
0.397727
0.389492
0.381498
0.37395
0.367195
0.361767
0.358427
0.35819
0.362343
0.372385
0.389705
0.414629
0.445258
0.478888
0.516929
0.56506
0.619765
0.651078
0.624339
0.558745
0.511746
0.510807
0.542179
0.579208
0.603524
0.610095
0.602354
0.585973
0.565636
0.544188
0.522885
0.502105
0.482048
0.463332
0.446468
0.431278
0.417306
0.404239
0.392186
0.382041
0.37569
0.375487
0.383221
0.399056
0.420536
0.442379
0.458268
0.464027
0.459769
0.449504
0.438733
0.431668
0.429534
0.430625
0.431727
0.429866
0.423387
0.412161
0.397209
0.380162
0.362792
0.346679
0.33304
0.322735
0.316376
0.314419
0.315556
0.318602
0.322255
0.325551
0.328253
0.330823
0.333861
0.337442
0.340866
0.342894
0.342177
0.337628
0.328632
0.315115
0.297504
0.276633
0.253594
0.229576
0.205697
0.182883
0.161801
0.142844
0.126174
0.111768
0.0995074
0.0893484
0.0816849
0.0780683
0.398504
0.848457
1.02224
1.0281
0.940297
0.829415
0.738792
0.682023
0.656773
0.656715
0.676434
0.712457
0.76269
0.824758
0.893944
0.965363
1.03289
1.09061
1.13392
1.16023
1.16907
1.16187
1.14144
1.1113
1.07503
1.0358
0.9962
0.958383
0.924045
0.894317
0.86984
0.850878
0.83726
0.828386
0.824396
0.824806
0.829808
0.839825
0.855154
0.875778
0.900944
0.928758
0.956125
0.979099
0.993496
0.995903
0.985311
0.964286
0.93763
0.908633
0.875816
0.833129
0.774755
0.701859
0.624322
0.553695
0.494856
0.446926
0.409852
0.385915
0.376459
0.379856
0.392203
0.409089
0.426964
0.443598
0.457871
0.469361
0.478004
0.48391
0.487279
0.488359
0.487429
0.484776
0.480688
0.475434
0.469264
0.462398
0.45503
0.447321
0.439403
0.431382
0.423333
0.415315
0.407367
0.399518
0.3918
0.384257
0.376974
0.370113
0.363964
0.359014
0.356005
0.355985
0.360363
0.370901
0.389489
0.41725
0.452919
0.492878
0.535646
0.583898
0.63333
0.657828
0.629174
0.565355
0.516182
0.507423
0.530111
0.562002
0.585823
0.59509
0.591159
0.578294
0.560553
0.540708
0.520287
0.499972
0.480091
0.46121
0.443873
0.428175
0.413839
0.400622
0.388596
0.378527
0.37214
0.371748
0.379281
0.395174
0.417202
0.440047
0.457039
0.463559
0.45951
0.449032
0.43792
0.430522
0.427871
0.427862
0.426985
0.42225
0.412242
0.397182
0.378435
0.357904
0.337523
0.318938
0.303358
0.291585
0.28415
0.281571
0.283139
0.287784
0.294357
0.301813
0.309503
0.317229
0.324938
0.332313
0.338588
0.34266
0.343373
0.339794
0.331409
0.318211
0.300696
0.279766
0.256585
0.232396
0.208358
0.185416
0.164243
0.145234
0.128545
0.114149
0.101913
0.0917618
0.0840291
0.0801496
0.346325
0.706192
0.906269
0.967381
0.922848
0.832418
0.744492
0.682288
0.650176
0.644614
0.660999
0.696037
0.747467
0.812588
0.887176
0.965848
1.04221
1.10997
1.164
1.20106
1.21996
1.22151
1.20799
1.18266
1.14906
1.11059
1.07019
1.0303
0.992927
0.959511
0.931006
0.90781
0.889768
0.876389
0.867586
0.862163
0.860354
0.862705
0.869685
0.881319
0.89681
0.9143
0.930943
0.943306
0.94797
0.94249
0.92666
0.902996
0.875101
0.844634
0.809265
0.76385
0.705371
0.637942
0.571296
0.512862
0.463685
0.423039
0.392668
0.375103
0.37069
0.377059
0.390402
0.406981
0.423994