/*--------------------------------*- C++ -*----------------------------------*\
| =========                 |                                                 |
| \\      /  F ield         | OpenFOAM: The Open Source CFD Toolbox           |
|  \\    /   O peration     | Version:  2112                                  |
|   \\  /    A nd           | Website:  www.openfoam.com                      |
|    \\/     M anipulation  |                                                 |
\*---------------------------------------------------------------------------*/
FoamFile
{
    version     2.0;
    format      ascii;
    arch        "LSB;label=32;scalar=64";
    class       surfaceScalarField;
    location    "0.076";
    object      phi_0;
}
// * * * * * * * * * * * * * * * * * * * * * * * * * * * * * * * * * * * * * //

dimensions      [0 3 -1 0 0 0 0];

oriented        oriented;

internalField   nonuniform List<scalar> 
24170
(
3.05559e-06
2.04258e-07
2.97781e-06
7.77812e-08
2.89009e-06
8.7717e-08
2.7879e-06
1.02193e-07
2.6947e-06
9.32011e-08
2.61757e-06
7.71313e-08
2.55285e-06
6.47117e-08
2.49396e-06
5.88993e-08
2.43459e-06
5.93687e-08
2.37637e-06
5.82188e-08
2.32082e-06
5.55514e-08
2.27567e-06
4.51501e-08
2.24158e-06
3.40904e-08
2.21913e-06
2.2441e-08
2.21231e-06
6.82693e-09
2.20575e-06
6.55687e-09
2.24143e-06
-3.56836e-08
-2.1482e-08
2.26292e-06
3.4099e-06
1.3199e-07
3.44802e-06
3.96641e-08
3.47496e-06
6.07808e-08
3.49339e-06
8.37618e-08
3.49322e-06
9.33755e-08
3.47689e-06
9.34597e-08
3.45413e-06
8.74704e-08
3.43561e-06
7.74179e-08
3.42752e-06
6.74534e-08
3.43064e-06
5.51039e-08
3.44211e-06
4.40765e-08
3.45823e-06
2.90336e-08
3.47555e-06
1.67679e-08
3.49507e-06
2.92612e-09
3.51065e-06
-8.75242e-09
3.54168e-06
-2.44785e-08
3.55597e-06
-4.99681e-08
-7.0666e-08
3.60515e-06
3.69121e-06
8.79852e-08
3.68703e-06
4.38456e-08
3.68718e-06
6.06374e-08
3.70052e-06
7.04198e-08
3.71877e-06
7.51196e-08
3.73173e-06
8.05035e-08
3.73667e-06
8.25338e-08
3.73754e-06
7.65399e-08
3.74027e-06
6.47275e-08
3.74665e-06
4.87199e-08
3.75846e-06
3.22723e-08
3.77196e-06
1.55287e-08
3.78982e-06
-1.08783e-09
3.80731e-06
-1.45651e-08
3.8303e-06
-3.17411e-08
3.85402e-06
-4.81952e-08
3.87801e-06
-7.3957e-08
-1.01608e-07
3.90895e-06
3.92867e-06
3.70516e-08
3.92266e-06
4.98529e-08
3.90589e-06
7.74094e-08
3.89726e-06
7.90518e-08
3.90079e-06
7.15891e-08
3.90862e-06
7.26682e-08
3.91752e-06
7.36326e-08
3.92824e-06
6.58202e-08
3.94133e-06
5.16449e-08
3.95622e-06
3.38269e-08
3.97363e-06
1.48624e-08
3.99406e-06
-4.90107e-09
4.01767e-06
-2.46938e-08
4.04567e-06
-4.25684e-08
4.07458e-06
-6.06494e-08
4.10532e-06
-7.89344e-08
4.13369e-06
-1.02334e-07
-1.28548e-07
4.16063e-06
4.2535e-06
9.06833e-08
4.23986e-06
6.3496e-08
4.23277e-06
8.44974e-08
4.20911e-06
1.02708e-07
4.1776e-06
1.031e-07
4.16223e-06
8.80387e-08
4.17494e-06
6.09197e-08
4.20783e-06
3.29295e-08
4.24628e-06
1.3197e-08
4.27959e-06
5.24068e-10
4.3063e-06
-1.18477e-08
4.32802e-06
-2.66286e-08
4.34776e-06
-4.44263e-08
4.36818e-06
-6.29937e-08
4.38953e-06
-8.20008e-08
4.41344e-06
-1.0284e-07
4.43816e-06
-1.27052e-07
-1.55198e-07
4.46481e-06
4.53241e-06
1.8723e-08
4.52551e-06
7.04026e-08
4.52545e-06
8.45585e-08
4.52728e-06
1.00877e-07
4.52822e-06
1.02159e-07
4.5367e-06
7.95623e-08
4.55426e-06
4.33518e-08
4.57544e-06
1.17533e-08
4.59574e-06
-7.09992e-09
4.6147e-06
-1.8441e-08
4.63533e-06
-3.24784e-08
4.66118e-06
-5.24757e-08
4.69282e-06
-7.60707e-08
4.72893e-06
-9.90989e-08
4.76658e-06
-1.19652e-07
4.80307e-06
-1.39331e-07
4.83616e-06
-1.60142e-07
-1.8501e-07
4.86597e-06
4.69168e-06
8.99763e-08
4.68753e-06
7.45519e-08
4.71889e-06
5.32042e-08
4.77026e-06
4.95016e-08
4.83162e-06
4.07988e-08
4.8805e-06
3.06814e-08
4.90279e-06
2.10613e-08
4.90565e-06
8.90209e-09
4.90577e-06
-7.22387e-09
4.9159e-06
-2.85732e-08
4.93883e-06
-5.54031e-08
4.97109e-06
-8.47428e-08
5.00713e-06
-1.12108e-07
5.04222e-06
-1.34191e-07
5.07402e-06
-1.51454e-07
5.10174e-06
-1.67043e-07
5.12674e-06
-1.85144e-07
-2.08439e-07
5.15017e-06
5.1614e-06
5.73717e-08
5.17589e-06
6.00575e-08
5.20212e-06
2.69791e-08
5.22747e-06
2.41466e-08
5.24634e-06
2.19327e-08
5.26513e-06
1.18914e-08
5.28071e-06
5.47924e-09
5.28579e-06
3.81776e-09
5.28022e-06
-1.6453e-09
5.27142e-06
-1.97782e-08
5.26825e-06
-5.2232e-08
5.27556e-06
-9.20485e-08
5.29341e-06
-1.2996e-07
5.31921e-06
-1.59998e-07
5.34981e-06
-1.8205e-07
5.38264e-06
-1.99877e-07
5.41567e-06
-2.18167e-07
-2.41359e-07
5.44859e-06
5.51196e-06
5.69006e-08
5.51762e-06
5.4398e-08
5.55288e-06
-8.28626e-09
5.60088e-06
-2.3848e-08
5.64587e-06
-2.30599e-08
5.67692e-06
-1.91585e-08
5.69347e-06
-1.10743e-08
5.70194e-06
-4.6508e-09
5.71151e-06
-1.12122e-08
5.72813e-06
-3.63973e-08
5.7519e-06
-7.60094e-08
5.77823e-06
-1.18372e-07
5.80192e-06
-1.53653e-07
5.82021e-06
-1.78289e-07
5.83307e-06
-1.94911e-07
5.84246e-06
-2.09261e-07
5.85034e-06
-2.26053e-07
-2.499e-07
5.85888e-06
5.94975e-06
1.11568e-07
5.89409e-06
1.10059e-07
5.86302e-06
2.27891e-08
5.88931e-06
-5.0139e-08
5.95081e-06
-8.45661e-08
6.01014e-06
-7.84828e-08
6.05094e-06
-5.18734e-08
6.0807e-06
-3.44143e-08
6.112e-06
-4.25086e-08
6.14808e-06
-7.24827e-08
6.18299e-06
-1.10917e-07
6.20917e-06
-1.44553e-07
6.22313e-06
-1.67616e-07
6.22649e-06
-1.81645e-07
6.22353e-06
-1.91956e-07
6.21914e-06
-2.04871e-07
6.21614e-06
-2.23048e-07
-2.49456e-07
6.2157e-06
6.38886e-06
9.14836e-08
6.36743e-06
1.31492e-07
6.35094e-06
3.92751e-08
6.35596e-06
-5.51571e-08
6.37681e-06
-1.05422e-07
6.41565e-06
-1.17317e-07
6.46451e-06
-1.00735e-07
6.50855e-06
-7.84573e-08
6.53827e-06
-7.22254e-08
6.55406e-06
-8.82689e-08
6.56187e-06
-1.18733e-07
6.56866e-06
-1.51341e-07
6.57875e-06
-1.77706e-07
6.59305e-06
-1.95947e-07
6.60952e-06
-2.08424e-07
6.62489e-06
-2.20238e-07
6.6361e-06
-2.34261e-07
-2.55382e-07
6.64203e-06
5.70233e-06
1.00856e-07
5.70855e-06
1.25271e-07
5.73968e-06
8.15096e-09
5.76613e-06
-8.16045e-08
5.77183e-06
-1.11131e-07
5.75366e-06
-9.91444e-08
5.72804e-06
-7.51157e-08
5.71327e-06
-6.36874e-08
5.71822e-06
-7.71686e-08
5.74096e-06
-1.1101e-07
5.77376e-06
-1.51539e-07
5.80862e-06
-1.86195e-07
5.84012e-06
-2.09214e-07
5.86561e-06
-2.21428e-07
5.88449e-06
-2.27304e-07
5.89737e-06
-2.33119e-07
5.90643e-06
-2.43326e-07
-2.61941e-07
5.91299e-06
7.00599e-06
1.63845e-07
7.00259e-06
1.28677e-07
7.00239e-06
8.35406e-09
6.98957e-06
-6.8784e-08
6.97619e-06
-9.77604e-08
6.97831e-06
-1.01256e-07
6.99318e-06
-8.99916e-08
7.01097e-06
-8.14741e-08
7.02314e-06
-8.934e-08
7.02478e-06
-1.12652e-07
7.0165e-06
-1.43256e-07
7.00375e-06
-1.73442e-07
6.99405e-06
-1.99522e-07
6.993e-06
-2.2037e-07
7.00239e-06
-2.36694e-07
7.02063e-06
-2.51359e-07
7.04385e-06
-2.66555e-07
-2.85248e-07
7.06716e-06
8.54788e-06
1.28303e-07
8.53165e-06
1.44906e-07
8.47597e-06
6.40335e-08
8.45228e-06
-4.50902e-08
8.48153e-06
-1.27011e-07
8.54618e-06
-1.65908e-07
8.61215e-06
-1.55963e-07
8.65335e-06
-1.22673e-07
8.66313e-06
-9.91237e-08
8.65066e-06
-1.00179e-07
8.6302e-06
-1.22793e-07
8.61274e-06
-1.55983e-07
8.60237e-06
-1.89149e-07
8.59748e-06
-2.15487e-07
8.594e-06
-2.33211e-07
8.58879e-06
-2.46154e-07
8.57948e-06
-2.57237e-07
-2.74087e-07
8.56832e-06
1.01976e-05
1.8637e-07
1.02611e-05
8.14008e-08
1.03117e-05
1.34292e-08
1.03491e-05
-8.25334e-08
1.03757e-05
-1.53563e-07
1.03913e-05
-1.8152e-07
1.04008e-05
-1.6547e-07
1.04107e-05
-1.32553e-07
1.04232e-05
-1.11655e-07
1.0439e-05
-1.15965e-07
1.04591e-05
-1.42886e-07
1.04839e-05
-1.80814e-07
1.05112e-05
-2.16426e-07
1.05357e-05
-2.39946e-07
1.05517e-05
-2.49268e-07
1.05556e-05
-2.50045e-07
1.05479e-05
-2.49552e-07
-2.57743e-07
1.05316e-05
1.28852e-05
5.61483e-08
1.29004e-05
6.61738e-08
1.29099e-05
4.00491e-09
1.28619e-05
-3.45447e-08
1.27389e-05
-3.05438e-08
1.2593e-05
-3.57029e-08
1.24979e-05
-7.02812e-08
1.24837e-05
-1.18412e-07
1.25261e-05
-1.54039e-07
1.258e-05
-1.6987e-07
1.26116e-05
-1.74459e-07
1.26098e-05
-1.79042e-07
1.25817e-05
-1.88322e-07
1.25426e-05
-2.00892e-07
1.2507e-05
-2.13642e-07
1.24842e-05
-2.27229e-07
1.24776e-05
-2.42988e-07
-2.65234e-07
1.24851e-05
1.52497e-05
2.17512e-07
1.5298e-05
1.78831e-08
1.53812e-05
-7.92005e-08
1.53967e-05
-5.00839e-08
1.53476e-05
1.85519e-08
1.52686e-05
4.33295e-08
1.51842e-05
1.41066e-08
1.51288e-05
-6.30132e-08
1.51198e-05
-1.45058e-07
1.51628e-05
-2.12883e-07
1.52458e-05
-2.57402e-07
1.53445e-05
-2.77761e-07
1.54339e-05
-2.77771e-07
1.54987e-05
-2.65638e-07
1.55348e-05
-2.4976e-07
1.5547e-05
-2.39446e-07
1.55412e-05
-2.37226e-07
-2.48101e-07
1.55241e-05
1.85276e-05
9.33428e-08
1.87226e-05
-1.7714e-07
1.86793e-05
-3.59647e-08
1.85549e-05
7.43642e-08
1.8511e-05
6.24783e-08
1.85507e-05
3.60662e-09
1.86163e-05
-5.14804e-08
1.86577e-05
-1.04392e-07
1.86717e-05
-1.59088e-07
1.86757e-05
-2.169e-07
1.86843e-05
-2.65953e-07
1.86997e-05
-2.9325e-07
1.87173e-05
-2.95349e-07
1.87296e-05
-2.77938e-07
1.87298e-05
-2.49984e-07
1.87129e-05
-2.22502e-07
1.86767e-05
-2.01057e-07
-1.91759e-07
1.86204e-05
2.29357e-05
2.01538e-07
2.26583e-05
1.00163e-07
2.25008e-05
1.21559e-07
2.24677e-05
1.07443e-07
2.24893e-05
4.0908e-08
2.255e-05
-5.71122e-08
2.26508e-05
-1.52212e-07
2.27737e-05
-2.27334e-07
2.28897e-05
-2.75052e-07
2.29633e-05
-2.90487e-07
2.29705e-05
-2.73196e-07
2.29092e-05
-2.31987e-07
2.27956e-05
-1.81743e-07
2.26552e-05
-1.37545e-07
2.25153e-05
-1.10062e-07
2.23951e-05
-1.02315e-07
2.23068e-05
-1.12722e-07
-1.36337e-07
2.22514e-05
1.64539e-05
7.43836e-09
1.65191e-05
3.49781e-08
1.6637e-05
3.63181e-09
1.6722e-05
2.24686e-08
1.67374e-05
2.54236e-08
1.67124e-05
-3.21173e-08
1.66735e-05
-1.1324e-07
1.66191e-05
-1.72932e-07
1.65426e-05
-1.98536e-07
1.64514e-05
-1.99307e-07
1.6366e-05
-1.87816e-07
1.6307e-05
-1.7303e-07
1.62847e-05
-1.59427e-07
1.62973e-05
-1.50072e-07
1.63355e-05
-1.48325e-07
1.63887e-05
-1.55493e-07
1.6447e-05
-1.71037e-07
-1.92465e-07
1.65031e-05
1.46654e-05
8.07478e-08
1.46127e-05
8.76763e-08
1.45726e-05
4.37355e-08
1.45315e-05
6.35266e-08
1.45225e-05
3.44234e-08
1.45515e-05
-6.10698e-08
1.45991e-05
-1.60878e-07
1.46392e-05
-2.12985e-07
1.46526e-05
-2.11967e-07
1.46378e-05
-1.84451e-07
1.46075e-05
-1.57593e-07
1.45789e-05
-1.44424e-07
1.4565e-05
-1.45536e-07
1.45704e-05
-1.55429e-07
1.45897e-05
-1.6762e-07
1.46125e-05
-1.78348e-07
1.46266e-05
-1.85103e-07
-1.88742e-07
1.46229e-05
1.23349e-05
-1.34414e-07
1.26208e-05
-1.98294e-07
1.27493e-05
-8.47189e-08
1.27994e-05
1.3424e-08
1.27863e-05
4.74749e-08
1.27159e-05
9.39816e-09
1.26154e-05
-6.03707e-08
1.25292e-05
-1.26808e-07
1.24832e-05
-1.66004e-07
1.24777e-05
-1.78921e-07
1.24979e-05
-1.77745e-07
1.25267e-05
-1.73297e-07
1.25526e-05
-1.71366e-07
1.25701e-05
-1.72935e-07
1.2578e-05
-1.75526e-07
1.25764e-05
-1.76814e-07
1.2566e-05
-1.74705e-07
-1.69779e-07
1.25471e-05
1.09081e-05
-5.70246e-08
1.08623e-05
-1.52465e-07
1.09277e-05
-1.50162e-07
1.10083e-05
-6.71251e-08
1.10567e-05
-9.00267e-10
1.10645e-05
1.58205e-09
1.10535e-05
-4.93949e-08
1.10351e-05
-1.08373e-07
1.10115e-05
-1.42389e-07
1.09786e-05
-1.46031e-07
1.0935e-05
-1.34196e-07
1.08861e-05
-1.24348e-07
1.08403e-05
-1.25557e-07
1.08051e-05
-1.37803e-07
1.07845e-05
-1.54895e-07
1.07777e-05
-1.70055e-07
1.07818e-05
-1.78817e-07
-1.79612e-07
1.07917e-05
9.59362e-06
-1.14152e-08
9.59081e-06
-1.49648e-07
9.58228e-06
-1.4164e-07
9.5732e-06
-5.80384e-08
9.5746e-06
-2.30093e-09
9.57656e-06
-3.77993e-10
9.57409e-06
-4.69242e-08
9.57536e-06
-1.09642e-07
9.58545e-06
-1.52485e-07
9.60207e-06
-1.62646e-07
9.61789e-06
-1.50015e-07
9.62588e-06
-1.32343e-07
9.62225e-06
-1.21924e-07
9.60666e-06
-1.22213e-07
9.58143e-06
-1.29665e-07
9.54994e-06
-1.38565e-07
9.5155e-06
-1.4438e-07
-1.44547e-07
9.48044e-06
8.3224e-06
-9.11473e-08
8.37825e-06
-2.05498e-07
8.37327e-06
-1.3666e-07
8.35595e-06
-4.07194e-08
8.34868e-06
4.96351e-09
8.34906e-06
-7.48869e-10
8.34132e-06
-3.91881e-08
8.31716e-06
-8.5484e-08
8.28817e-06
-1.23492e-07
8.27174e-06
-1.46213e-07
8.27479e-06
-1.53069e-07
8.29081e-06
-1.48359e-07
8.3068e-06
-1.37917e-07
8.31143e-06
-1.26847e-07
8.29945e-06
-1.17679e-07
8.27168e-06
-1.10799e-07
8.23257e-06
-1.05269e-07
-9.9704e-08
8.18772e-06
7.04414e-06
-2.39321e-07
7.11733e-06
-2.78687e-07
7.12734e-06
-1.46671e-07
7.14138e-06
-5.47566e-08
7.16572e-06
-1.93728e-08
7.19517e-06
-3.02035e-08
7.2185e-06
-6.25178e-08
7.22848e-06
-9.5461e-08
7.22579e-06
-1.20809e-07
7.21538e-06
-1.358e-07
7.20249e-06
-1.40178e-07
7.19013e-06
-1.35998e-07
7.1785e-06
-1.26289e-07
7.16614e-06
-1.14487e-07
7.15155e-06
-1.0309e-07
7.13426e-06
-9.35044e-08
7.11457e-06
-8.55809e-08
-7.85113e-08
7.09338e-06
6.35839e-06
-1.87183e-07
6.29869e-06
-2.1898e-07
6.29145e-06
-1.39431e-07
6.2967e-06
-6.00152e-08
6.31074e-06
-3.34072e-08
6.32214e-06
-4.16088e-08
6.32492e-06
-6.52935e-08
6.32381e-06
-9.43523e-08
6.32311e-06
-1.20108e-07
6.32068e-06
-1.33368e-07
6.31179e-06
-1.31293e-07
6.2948e-06
-1.19002e-07
6.27248e-06
-1.03977e-07
6.25006e-06
-9.20604e-08
6.23181e-06
-8.48402e-08
6.21967e-06
-8.13655e-08
6.21287e-06
-7.87846e-08
-7.40569e-08
6.20842e-06
5.60358e-06
-2.23453e-07
5.55644e-06
-1.71846e-07
5.52328e-06
-1.06272e-07
5.54063e-06
-7.7361e-08
5.56426e-06
-5.70401e-08
5.56546e-06
-4.28068e-08
5.549e-06
-4.88365e-08
5.52805e-06
-7.33985e-08
5.50643e-06
-9.84871e-08
5.48008e-06
-1.07015e-07
5.44678e-06
-9.79971e-08
5.41066e-06
-8.28805e-08
5.37929e-06
-7.26112e-08
5.35858e-06
-7.135e-08
5.34989e-06
-7.61435e-08
5.35084e-06
-8.23215e-08
5.35644e-06
-8.43868e-08
-7.90677e-08
5.36146e-06
4.87399e-06
-9.90842e-08
4.84564e-06
-1.43492e-07
4.83929e-06
-9.99227e-08
4.81596e-06
-5.40288e-08
4.78779e-06
-2.88692e-08
4.77209e-06
-2.71062e-08
4.76736e-06
-4.41066e-08
4.76565e-06
-7.16931e-08
4.76145e-06
-9.42861e-08
4.75282e-06
-9.83854e-08
4.73842e-06
-8.35984e-08
4.71708e-06
-6.15438e-08
4.69011e-06
-4.56385e-08
4.66151e-06
-4.27512e-08
4.63589e-06
-5.05253e-08
4.61576e-06
-6.21828e-08
4.6014e-06
-7.00306e-08
-6.99253e-08
4.59226e-06
4.12981e-06
3.98632e-06
3.8864e-06
3.83237e-06
3.8035e-06
3.77639e-06
3.73229e-06
3.66059e-06
3.56631e-06
3.46792e-06
3.38432e-06
3.32278e-06
3.27714e-06
3.23439e-06
3.18387e-06
3.12168e-06
3.05165e-06
2.98173e-06
-5.56275e-07
5.56275e-07
-9.44797e-07
3.88521e-07
-1.17089e-06
2.26091e-07
-1.20255e-06
3.16651e-08
-9.69969e-07
-2.32584e-07
-4.862e-07
-4.83768e-07
1.88533e-07
-6.74734e-07
9.65342e-07
-7.76809e-07
1.78102e-06
-8.15678e-07
2.58487e-06
-8.03852e-07
3.34409e-06
-7.59218e-07
4.0415e-06
-6.97412e-07
4.67045e-06
-6.28944e-07
5.2309e-06
-5.60455e-07
5.72616e-06
-4.95263e-07
6.16088e-06
-4.34713e-07
6.54005e-06
-3.79174e-07
6.86837e-06
-3.28319e-07
7.14999e-06
-2.81624e-07
7.38855e-06
-2.38557e-07
7.58688e-06
-1.98329e-07
7.74739e-06
-1.60506e-07
7.87187e-06
-1.24483e-07
7.96132e-06
-8.94528e-08
8.0169e-06
-5.55793e-08
8.0385e-06
-2.15993e-08
8.02536e-06
1.31365e-08
7.97505e-06
5.03188e-08
7.88476e-06
9.02814e-08
7.7589e-06
1.25866e-07
7.5943e-06
1.64595e-07
7.38918e-06
2.05119e-07
7.15792e-06
2.31265e-07
6.88193e-06
2.75994e-07
6.5691e-06
3.12823e-07
6.24718e-06
3.21923e-07
5.84278e-06
4.044e-07
5.38071e-06
4.62074e-07
4.93344e-06
4.47263e-07
4.27869e-06
6.54749e-07
3.33106e-06
9.47635e-07
2.42395e-06
9.07105e-07
1.77472e-06
6.49233e-07
1.34451e-06
4.30213e-07
1.07714e-06
2.67366e-07
9.82318e-07
9.48236e-08
1.04405e-06
-6.17299e-08
1.20395e-06
-1.59902e-07
1.41976e-06
-2.15807e-07
1.70251e-06
-2.82751e-07
2.11211e-06
-4.09604e-07
2.62649e-06
-5.14374e-07
2.97664e-06
-3.5015e-07
2.96738e-06
9.25993e-09
2.80162e-06
1.6576e-07
2.71356e-06
8.806e-08
2.83986e-06
-1.26302e-07
3.23185e-06
-3.91993e-07
3.73441e-06
-5.02565e-07
4.15032e-06
-4.1591e-07
4.36113e-06
-2.1081e-07
4.31494e-06
4.61894e-08
4.05097e-06
2.63976e-07
3.66729e-06
3.83682e-07
3.13938e-06
5.2791e-07
2.34135e-06
7.98024e-07
1.49202e-06
8.49331e-07
8.69229e-07
6.22792e-07
4.04179e-07
4.6505e-07
5.94836e-08
3.44696e-07
-1.5447e-07
2.13954e-07
-2.38069e-07
8.35989e-08
-1.89356e-07
-4.87125e-08
-1.89969e-08
-1.7036e-07
2.13858e-07
-2.32855e-07
4.04897e-07
-1.91039e-07
3.9297e-07
1.19269e-08
-6.51102e-08
4.5808e-07
-1.25513e-06
1.19002e-06
-3.44745e-06
2.19232e-06
-6.76691e-06
3.31947e-06
-1.08976e-05
4.1307e-06
-1.44137e-05
3.51614e-06
-1.64986e-05
2.08483e-06
-1.79288e-05
1.43019e-06
-1.89334e-05
1.00463e-06
-1.93577e-05
4.24295e-07
-1.95108e-05
1.53149e-07
-1.94659e-05
-4.49522e-08
-1.92297e-05
-2.3623e-07
-1.89048e-05
-3.2484e-07
-1.85015e-05
-4.03336e-07
-1.80221e-05
-4.79384e-07
-1.75137e-05
-5.08433e-07
-1.69818e-05
-5.31876e-07
-1.64297e-05
-5.52147e-07
-1.58786e-05
-5.51097e-07
-1.53365e-05
-5.42102e-07
-1.48033e-05
-5.33166e-07
-1.42821e-05
-5.21176e-07
-1.37735e-05
-5.08618e-07
-1.32735e-05
-5.00035e-07
-1.27746e-05
-4.98885e-07
-1.22649e-05
-5.09655e-07
-1.17289e-05
-5.36044e-07
-1.11508e-05
-5.78091e-07
-1.05192e-05
-6.31566e-07
-9.83039e-06
-6.88828e-07
-9.09054e-06
-7.39848e-07
-8.31578e-06
-7.74757e-07
-7.52798e-06
-7.87802e-07
-6.74949e-06
-7.78488e-07
-5.99873e-06
-7.50767e-07
-5.28813e-06
-7.10593e-07
-4.62356e-06
-6.64574e-07
-4.005e-06
-6.18558e-07
-3.42931e-06
-5.75696e-07
-2.89193e-06
-5.3738e-07
-2.38895e-06
-5.02976e-07
-1.92058e-06
-4.68374e-07
-1.48995e-06
-4.30623e-07
-1.10047e-06
-3.89483e-07
-7.54637e-07
-3.45833e-07
-4.53359e-07
-3.01279e-07
-1.96136e-07
-2.57223e-07
1.97591e-08
-2.15895e-07
1.98255e-07
-1.78496e-07
3.4382e-07
-1.45565e-07
4.60581e-07
-1.16761e-07
5.5339e-07
-9.28087e-08
6.27927e-07
-7.45378e-08
6.91754e-07
-6.3827e-08
7.48043e-07
-5.62885e-08
8.02779e-07
-5.47357e-08
8.63206e-07
-6.04276e-08
9.38719e-07
-7.55129e-08
1.04064e-06
-1.01925e-07
1.18143e-06
-1.40786e-07
1.37202e-06
-1.90587e-07
1.6176e-06
-2.45584e-07
1.91397e-06
-2.96366e-07
2.24733e-06
-3.33366e-07
2.59862e-06
-3.51292e-07
2.94924e-06
-3.50615e-07
3.28511e-06
-3.35871e-07
3.59869e-06
-3.13583e-07
3.88837e-06
-2.89677e-07
4.15265e-06
-2.64284e-07
4.37778e-06
-2.2513e-07
4.52805e-06
-1.5027e-07
4.5614e-06
-3.33458e-08
4.45707e-06
1.04329e-07
4.24183e-06
2.15238e-07
4.00933e-06
2.325e-07
3.98208e-06
2.72493e-08
4.44789e-06
-4.6581e-07
5.34018e-06
-8.92282e-07
5.77405e-06
-4.33876e-07
5.11336e-06
6.60694e-07
3.95579e-06
1.15757e-06
3.10832e-06
8.47463e-07
2.80958e-06
2.98747e-07
2.83594e-06
-2.63597e-08
2.93499e-06
-9.90518e-08
2.99017e-06
-5.5185e-08
3.00776e-06
-1.75867e-08
3.03036e-06
-2.26056e-08
3.06275e-06
-3.23826e-08
3.08697e-06
-2.4225e-08
3.13225e-06
-4.52799e-08
3.2295e-06
-9.72482e-08
3.29656e-06
-6.70588e-08
3.25938e-06
3.71826e-08
3.24841e-06
1.09643e-08
3.37094e-06
-1.22525e-07
3.4668e-06
-9.58631e-08
3.39051e-06
7.62925e-08
3.44634e-06
-5.58319e-08
3.57385e-06
-1.2751e-07
6.58666e-08
3.50798e-06
-1.79907e-09
5.58074e-07
-5.40162e-08
4.40738e-07
-3.64978e-08
2.08572e-07
2.07632e-07
-2.12464e-07
7.18637e-07
-7.43589e-07
1.40675e-06
-1.17188e-06
2.16609e-06
-1.43408e-06
2.92591e-06
-1.53663e-06
3.64384e-06
-1.53361e-06
4.30313e-06
-1.46314e-06
4.89895e-06
-1.35503e-06
5.43326e-06
-1.23173e-06
5.91108e-06
-1.10676e-06
6.33785e-06
-9.87229e-07
6.71872e-06
-8.76127e-07
7.05811e-06
-7.74103e-07
7.35958e-06
-6.80645e-07
7.62598e-06
-5.94722e-07
7.85948e-06
-5.15123e-07
8.06171e-06
-4.40781e-07
8.23396e-06
-3.70581e-07
8.37708e-06
-3.03624e-07
8.49179e-06
-2.39193e-07
8.57855e-06
-1.76211e-07
8.63749e-06
-1.14523e-07
8.66919e-06
-5.33004e-08
8.67354e-06
8.78639e-09
8.64872e-06
7.51398e-08
8.59687e-06
1.42127e-07
8.51373e-06
2.09009e-07
8.4033e-06
2.75022e-07
8.2646e-06
3.43826e-07
8.09328e-06
4.02584e-07
7.90975e-06
4.59518e-07
7.70388e-06
5.18694e-07
7.47391e-06
5.5189e-07
7.27678e-06
6.01534e-07
7.06597e-06
6.7288e-07
6.81245e-06
7.00784e-07
6.6849e-06
7.82299e-07
6.70578e-06
9.26763e-07
6.62862e-06
9.84261e-07
6.33637e-06
9.41486e-07
5.8958e-06
8.7078e-07
5.40068e-06
7.62484e-07
4.91426e-06
5.81244e-07
4.50582e-06
3.46708e-07
4.23411e-06
1.11811e-07
4.10454e-06
-8.62408e-08
4.11007e-06
-2.88277e-07
4.19091e-06
-4.90443e-07
4.21488e-06
-5.38341e-07
4.28661e-06
-4.21881e-07
4.55743e-06
-2.61564e-07
4.73574e-06
-1.25519e-08
4.69538e-06
1.28424e-07
4.70688e-06
-1.378e-07
4.84961e-06
-5.34723e-07
4.89217e-06
-5.45128e-07
4.6342e-06
-1.57934e-07
4.07759e-06
3.45793e-07
3.246e-06
8.7778e-07
2.12554e-06
1.38444e-06
8.07872e-07
1.70135e-06
-4.7391e-07
1.80969e-06
-1.50655e-06
1.83066e-06
-2.32818e-06
1.67096e-06
-3.15001e-06
1.44463e-06
-3.87543e-06
1.19046e-06
-4.45606e-06
9.25332e-07
-4.91425e-06
6.72145e-07
-5.28929e-06
4.58632e-07
-5.65115e-06
3.13153e-07
-6.08784e-06
2.66328e-07
-6.69817e-06
3.77471e-07
-7.61304e-06
7.23838e-07
-8.95105e-06
1.34993e-06
-1.07487e-05
2.25574e-06
-1.29112e-05
3.35246e-06
-1.51072e-05
4.38839e-06
-1.67941e-05
5.00633e-06
-1.75201e-05
4.85676e-06
-1.7776e-05
3.772e-06
-1.81143e-05
2.42309e-06
-1.83422e-05
1.65814e-06
-1.83187e-05
9.81079e-07
-1.82381e-05
3.43704e-07
-1.80939e-05
9.02461e-09
-1.7851e-05
-2.87882e-07
-1.75279e-05
-5.59393e-07
-1.71272e-05
-7.25478e-07
-1.66696e-05
-8.60948e-07
-1.61795e-05
-9.69479e-07
-1.56585e-05
-1.02941e-06
-1.51217e-05
-1.06867e-06
-1.45842e-05
-1.08972e-06
-1.40511e-05
-1.08417e-06
-1.35295e-05
-1.06367e-06
-1.30247e-05
-1.038e-06
-1.25367e-05
-1.00916e-06
-1.20638e-05
-9.81536e-07
-1.16017e-05
-9.62141e-07
-1.1142e-05
-9.58539e-07
-1.06726e-05
-9.79056e-07
-1.01776e-05
-1.03107e-06
-9.63934e-06
-1.11636e-06
-9.04421e-06
-1.22669e-06
-8.38818e-06
-1.34486e-06
-7.67919e-06
-1.44883e-06
-6.93694e-06
-1.51701e-06
-6.18718e-06
-1.53756e-06
-5.45509e-06
-1.51058e-06
-4.75978e-06
-1.44608e-06
-4.11245e-06
-1.35792e-06
-3.51614e-06
-1.26088e-06
-2.9675e-06
-1.1672e-06
-2.46125e-06
-1.08195e-06
-1.99064e-06
-1.00799e-06
-1.55149e-06
-9.42128e-07
-1.1419e-06
-8.77961e-07
-7.6453e-07
-8.07996e-07
-4.22593e-07
-7.31419e-07
-1.21507e-07
-6.46919e-07
1.35354e-07
-5.58139e-07
3.49537e-07
-4.71406e-07
5.20918e-07
-3.87276e-07
6.54617e-07
-3.12195e-07
7.58182e-07
-2.4913e-07
8.39085e-07
-1.97663e-07
9.03792e-07
-1.57517e-07
9.57728e-07
-1.28474e-07
1.00517e-06
-1.11267e-07
1.04997e-06
-1.0109e-07
1.09548e-06
-1.00244e-07
1.14717e-06
-1.12122e-07
1.21318e-06
-1.41522e-07
1.30459e-06
-1.9333e-07
1.43463e-06
-2.70828e-07
1.61614e-06
-3.721e-07
1.85654e-06
-4.85981e-07
2.15307e-06
-5.92898e-07
2.49197e-06
-6.72263e-07
2.85197e-06
-7.11294e-07
3.2112e-06
-7.09848e-07
3.55528e-06
-6.79948e-07
3.88222e-06
-6.40521e-07
4.19981e-06
-6.07267e-07
4.51433e-06
-5.78801e-07
4.81529e-06
-5.26094e-07
5.06753e-06
-4.02506e-07
5.21613e-06
-1.81954e-07
5.2264e-06
9.40641e-08
5.12864e-06
3.12992e-07
5.01811e-06
3.43039e-07
4.94973e-06
9.56288e-08
4.96118e-06
-4.77265e-07
5.26001e-06
-1.19111e-06
6.08747e-06
-1.26133e-06
6.97868e-06
-2.30517e-07
7.16729e-06
9.68959e-07
6.58653e-06
1.42822e-06
5.75463e-06
1.13065e-06
5.13339e-06
5.94882e-07
4.79641e-06
2.37929e-07
4.61436e-06
1.26856e-07
4.495e-06
1.0178e-07
4.40911e-06
6.32836e-08
4.34465e-06
3.20736e-08
4.30476e-06
1.56654e-08
4.30594e-06
-4.64587e-08
4.32791e-06
-1.19216e-07
4.33308e-06
-7.2232e-08
4.32004e-06
5.02204e-08
4.29016e-06
4.08513e-08
4.23902e-06
-7.13846e-08
4.29531e-06
-1.5216e-07
4.5578e-06
-1.86193e-07
5.02052e-06
-5.18553e-07
5.47985e-06
-5.8684e-07
-1.58728e-07
5.70445e-06
2.54905e-07
3.03169e-07
4.35781e-07
2.59862e-07
8.99221e-07
-2.54867e-07
1.63463e-06
-9.47869e-07
2.42461e-06
-1.53357e-06
3.14463e-06
-1.8919e-06
3.74934e-06
-2.03878e-06
4.24356e-06
-2.03085e-06
4.64153e-06
-1.93159e-06
4.96846e-06
-1.79007e-06
5.25014e-06
-1.63671e-06
5.50553e-06
-1.48711e-06
5.74623e-06
-1.34746e-06
5.97803e-06
-1.21903e-06
6.2028e-06
-1.1009e-06
6.42017e-06
-9.91475e-07
6.62867e-06
-8.89142e-07
6.82651e-06
-7.92565e-07
7.01206e-06
-7.00672e-07
7.18394e-06
-6.1266e-07
7.34116e-06
-5.27801e-07
7.48302e-06
-4.45485e-07
7.60879e-06
-3.64966e-07
7.7178e-06
-2.85217e-07
7.80856e-06
-2.05287e-07
7.8789e-06
-1.23639e-07
7.92724e-06
-3.95541e-08
7.95127e-06
5.11128e-08
7.94601e-06
1.47391e-07
7.90836e-06
2.46654e-07
7.83574e-06
3.4764e-07
7.72798e-06
4.51586e-07
7.58426e-06
5.46305e-07
7.41193e-06
6.31845e-07
7.22197e-06
7.08662e-07
7.02157e-06
7.5229e-07
6.84046e-06
7.8264e-07
6.69722e-06
8.16116e-07
6.58486e-06
8.13152e-07
6.55521e-06
8.11941e-07
6.61994e-06
8.6204e-07
6.70397e-06
9.00224e-07
6.7852e-06
8.60262e-07
6.85103e-06
8.04944e-07
6.82467e-06
7.88846e-07
6.67458e-06
7.31333e-07
6.49869e-06
5.22598e-07
6.34704e-06
2.63466e-07
6.13881e-06
1.21986e-07
5.86873e-06
-1.81912e-08
5.69308e-06
-3.14796e-07
5.70699e-06
-5.52253e-07
5.74694e-06
-4.6183e-07
5.56521e-06
-7.98391e-08
5.20475e-06
3.47915e-07
4.90625e-06
4.26924e-07
4.54488e-06
2.23563e-07
3.77981e-06
2.30348e-07
2.60467e-06
6.30012e-07
1.23495e-06
1.21179e-06
-2.178e-07
1.79854e-06
-1.63568e-06
2.29566e-06
-2.87894e-06
2.62769e-06
-3.95455e-06
2.77697e-06
-4.91032e-06
2.76546e-06
-5.73293e-06
2.65326e-06
-6.52691e-06
2.46495e-06
-7.32271e-06
2.24043e-06
-8.11641e-06
1.98416e-06
-8.9067e-06
1.71562e-06
-9.69452e-06
1.45996e-06
-1.0494e-05
1.25813e-06
-1.13341e-05
1.15328e-06
-1.22517e-05
1.18389e-06
-1.32704e-05
1.39618e-06
-1.43839e-05
1.83735e-06
-1.55451e-05
2.51114e-06
-1.66397e-05
3.35031e-06
-1.74877e-05
4.20041e-06
-1.7892e-05
4.79272e-06
-1.77355e-05
4.84983e-06
-1.70882e-05
4.20945e-06
-1.64151e-05
3.09891e-06
-1.61143e-05
2.12228e-06
-1.59302e-05
1.47402e-06
-1.57416e-05
7.92547e-07
-1.55733e-05
1.75403e-07
-1.53237e-05
-2.40576e-07
-1.50078e-05
-6.0378e-07
-1.46422e-05
-9.25009e-07
-1.42211e-05
-1.14657e-06
-1.37644e-05
-1.31767e-06
-1.32864e-05
-1.44753e-06
-1.27885e-05
-1.52726e-06
-1.22846e-05
-1.57254e-06
-1.17872e-05
-1.58715e-06
-1.13007e-05
-1.57069e-06
-1.08306e-05
-1.53372e-06
-1.03828e-05
-1.48586e-06
-9.95934e-06
-1.43261e-06
-9.55961e-06
-1.38126e-06
-9.17979e-06
-1.34197e-06
-8.811e-06
-1.32732e-06
-8.43853e-06
-1.35153e-06
-8.04138e-06
-1.42821e-06
-7.59344e-06
-1.5643e-06
-7.07092e-06
-1.74922e-06
-6.46355e-06
-1.95223e-06
-5.78028e-06
-2.1321e-06
-5.04956e-06
-2.24773e-06
-4.30941e-06
-2.27772e-06
-3.59654e-06
-2.22345e-06
-2.93812e-06
-2.1045e-06
-2.34869e-06
-1.94735e-06
-1.82968e-06
-1.77989e-06
-1.37227e-06
-1.62462e-06
-9.67467e-07
-1.48675e-06
-6.01425e-07
-1.37403e-06
-2.65979e-07
-1.27757e-06
4.41325e-08
-1.18807e-06
3.35451e-07
-1.09931e-06
6.07621e-07
-1.00359e-06
8.58344e-07
-8.97641e-07
1.08155e-06
-7.81342e-07
1.2687e-06
-6.58563e-07
1.41439e-06
-5.32967e-07
1.51643e-06
-4.14232e-07
1.5782e-06
-3.10896e-07
1.60734e-06
-2.26806e-07
1.61301e-06
-1.63185e-07
1.60495e-06
-1.20419e-07
1.59034e-06
-9.66588e-08
1.57701e-06
-8.77547e-08
1.56956e-06
-9.27956e-08
1.57248e-06
-1.15038e-07
1.59133e-06
-1.60376e-07
1.63501e-06
-2.37012e-07
1.71626e-06
-3.52076e-07
1.84939e-06
-5.0523e-07
2.04487e-06
-6.81463e-07
2.30339e-06
-8.51413e-07
2.61302e-06
-9.81901e-07
2.95104e-06
-1.04931e-06
3.28965e-06
-1.04846e-06
3.60526e-06
-9.95555e-07
3.88893e-06
-9.24187e-07
4.15302e-06
-8.7136e-07
4.42701e-06
-8.52795e-07
4.7338e-06
-8.32883e-07
5.05088e-06
-7.1958e-07
5.30302e-06
-4.34104e-07
5.42604e-06
-2.89533e-08
5.44681e-06
2.92223e-07
5.47753e-06
3.12325e-07
5.62197e-06
-4.88168e-08
5.86303e-06
-7.18325e-07
6.08473e-06
-1.41281e-06
6.45459e-06
-1.6312e-06
7.17493e-06
-9.5085e-07
7.82589e-06
3.17993e-07
7.87931e-06
1.3748e-06
7.32299e-06
1.68697e-06
6.52108e-06
1.39679e-06
5.81277e-06
9.46239e-07
5.32527e-06
6.14358e-07
5.02689e-06
4.00166e-07
4.84614e-06
2.44032e-07
4.73787e-06
1.40344e-07
4.67611e-06
7.74189e-08
4.63607e-06
-6.41805e-09
4.60607e-06
-8.92107e-08
4.58709e-06
-5.32553e-08
4.56447e-06
7.28365e-08
4.50288e-06
1.02449e-07
4.43766e-06
-6.16894e-09
4.46678e-06
-1.8128e-07
4.62672e-06
-3.46135e-07
4.94693e-06
-8.38757e-07
5.52196e-06
-1.16187e-06
-7.52405e-07
6.11564e-06
1.54695e-07
1.48474e-07
8.27598e-07
-4.13041e-07
1.83334e-06
-1.26061e-06
2.76329e-06
-1.87782e-06
3.42147e-06
-2.19175e-06
3.80835e-06
-2.27879e-06
3.99083e-06
-2.22126e-06
4.0575e-06
-2.09751e-06
4.08287e-06
-1.95695e-06
4.1152e-06
-1.8224e-06
4.17854e-06
-1.70005e-06
4.27929e-06
-1.58786e-06
4.41378e-06
-1.48195e-06
4.57391e-06
-1.37916e-06
4.75068e-06
-1.27768e-06
4.93594e-06
-1.17673e-06
5.12305e-06
-1.07626e-06
5.30726e-06
-9.7677e-07
5.48542e-06
-8.78835e-07
5.65576e-06
-7.83004e-07
5.81774e-06
-6.89773e-07
5.97168e-06
-5.99431e-07
6.11851e-06
-5.11798e-07
6.25927e-06
-4.25969e-07
6.39448e-06
-3.40506e-07
6.52391e-06
-2.53062e-07
6.64569e-06
-1.61338e-07
6.75994e-06
-6.31403e-08
6.857e-06
5.03387e-08
6.92792e-06
1.75729e-07
6.96372e-06
3.11838e-07
6.95716e-06
4.58146e-07
6.90352e-06
5.99953e-07
6.80459e-06
7.30774e-07
6.66534e-06
8.47914e-07
6.49351e-06
9.24118e-07
6.31622e-06
9.5993e-07
6.15041e-06
9.81919e-07
5.99527e-06
9.68296e-07
5.89726e-06
9.09952e-07
5.90545e-06
8.53852e-07
5.99737e-06
8.08304e-07
6.1235e-06
7.34133e-07
6.26117e-06
6.67269e-07
6.3667e-06
6.83322e-07
6.38176e-06
7.16274e-07
6.27018e-06
6.34173e-07
6.05975e-06
4.73898e-07
5.86064e-06
3.21095e-07
5.74269e-06
9.97605e-08
5.62747e-06
-1.99582e-07
5.36197e-06
-2.86751e-07
4.8144e-06
8.57426e-08
4.05902e-06
6.75535e-07
3.40252e-06
1.00442e-06
2.72251e-06
1.10693e-06
1.62197e-06
1.3241e-06
1.30354e-07
1.72197e-06
-1.40349e-06
2.16386e-06
-2.83139e-06
2.63969e-06
-4.10101e-06
3.06817e-06
-5.17522e-06
3.36987e-06
-6.06352e-06
3.51599e-06
-6.82351e-06
3.53696e-06
-7.52786e-06
3.46981e-06
-8.20643e-06
3.33184e-06
-8.88159e-06
3.14011e-06
-9.5588e-06
2.91763e-06
-1.02498e-05
2.67517e-06
-1.09695e-05
2.43529e-06
-1.17367e-05
2.22723e-06
-1.25618e-05
2.08318e-06
-1.34357e-05
2.02722e-06
-1.43358e-05
2.08396e-06
-1.52236e-05
2.28403e-06
-1.60326e-05
2.6463e-06
-1.66671e-05
3.14565e-06
-1.70086e-05
3.69183e-06
-1.69423e-05
4.13411e-06
-1.64483e-05
4.29871e-06
-1.56592e-05
4.06075e-06
-1.48536e-05
3.40387e-06
-1.42733e-05
2.51859e-06
-1.39096e-05
1.75859e-06
-1.35732e-05
1.13763e-06
-1.3266e-05
4.85337e-07
-1.29923e-05
-9.83367e-08
-1.26734e-05
-5.59466e-07
-1.2324e-05
-9.53158e-07
-1.19658e-05
-1.28319e-06
-1.15811e-05
-1.53133e-06
-1.11764e-05
-1.72233e-06
-1.07589e-05
-1.86503e-06
-1.03311e-05
-1.9551e-06
-9.90445e-06
-1.99915e-06
-9.48831e-06
-2.00329e-06
-9.08555e-06
-1.97344e-06
-8.70123e-06
-1.91805e-06
-8.34206e-06
-1.84502e-06
-8.01299e-06
-1.76168e-06
-7.71679e-06
-1.67746e-06
-7.45273e-06
-1.60602e-06
-7.21307e-06
-1.56698e-06
-6.97945e-06
-1.58516e-06
-6.72088e-06
-1.68678e-06
-6.39441e-06
-1.89076e-06
-5.95717e-06
-2.18646e-06
-5.38849e-06
-2.52092e-06
-4.6984e-06