/*--------------------------------*- C++ -*----------------------------------*\
| =========                 |                                                 |
| \\      /  F ield         | OpenFOAM: The Open Source CFD Toolbox           |
|  \\    /   O peration     | Version:  2112                                  |
|   \\  /    A nd           | Website:  www.openfoam.com                      |
|    \\/     M anipulation  |                                                 |
\*---------------------------------------------------------------------------*/
FoamFile
{
    version     2.0;
    format      ascii;
    arch        "LSB;label=32;scalar=64";
    class       volVectorField;
    location    "0.24";
    object      ddt0(U);
}
// * * * * * * * * * * * * * * * * * * * * * * * * * * * * * * * * * * * * * //

dimensions      [0 1 -2 0 0 0 0];

internalField   nonuniform List<vector> 
12225
(
(0.0691579 -0.01879 0)
(0.411638 -0.0620473 0)
(1.09111 -0.129101 0)
(2.19602 -0.218859 0)
(3.77714 -0.314642 0)
(5.82145 -0.395892 0)
(8.25843 -0.450479 0)
(10.9909 -0.476026 0)
(13.8906 -0.465924 0)
(16.757 -0.386464 0)
(19.1199 -0.151766 0)
(20.346 0.383189 0)
(19.1863 1.30907 0)
(15.2261 2.58105 0)
(9.08649 3.68954 0)
(-14.4726 4.2346 0)
(-81.202 -10.8001 0)
(-9.92986 -145.339 0)
(0.00533667 -0.0445833 0)
(0.075544 -0.122446 0)
(0.164286 -0.210241 0)
(0.254695 -0.33133 0)
(0.46563 -0.4905 0)
(0.9867 -0.676468 0)
(1.9939 -0.874894 0)
(3.61167 -1.07104 0)
(5.90362 -1.23834 0)
(8.88262 -1.3098 0)
(12.3988 -1.15608 0)
(16.1695 -0.55058 0)
(19.3079 0.629491 0)
(20.3623 2.25926 0)
(19.959 3.8987 0)
(13.2029 4.1475 0)
(27.2146 -9.43492 0)
(97.6763 -33.6644 0)
(0.0313343 -0.0681091 0)
(0.189621 -0.163527 0)
(0.402944 -0.2459 0)
(0.549252 -0.36266 0)
(0.557784 -0.543054 0)
(0.438369 -0.793059 0)
(0.261944 -1.10473 0)
(0.128239 -1.45924 0)
(0.138427 -1.81882 0)
(0.406624 -2.09579 0)
(1.04467 -2.13675 0)
(2.27213 -1.65947 0)
(4.27151 -0.447819 0)
(6.81202 1.25459 0)
(10.4533 2.97211 0)
(12.2192 1.44312 0)
(16.1041 -24.1172 0)
(-28.5279 -98.3594 0)
(0.0335943 -0.0924613 0)
(0.20246 -0.202683 0)
(0.451312 -0.281841 0)
(0.70717 -0.37251 0)
(0.939755 -0.503756 0)
(1.14883 -0.689441 0)
(1.33359 -0.932297 0)
(1.47251 -1.22197 0)
(1.51357 -1.52485 0)
(1.3968 -1.7617 0)
(1.07088 -1.80468 0)
(0.629764 -1.42616 0)
(0.394117 -0.434173 0)
(0.604867 0.875046 0)
(1.5616 1.97605 0)
(-0.170655 -0.550531 0)
(-13.9744 -19.9418 0)
(-94.3905 -54.9871 0)
(0.0331201 -0.12124 0)
(0.196853 -0.266918 0)
(0.436267 -0.366098 0)
(0.686606 -0.474324 0)
(0.938061 -0.632498 0)
(1.22152 -0.856068 0)
(1.57108 -1.13872 0)
(1.99715 -1.45187 0)
(2.46989 -1.74004 0)
(2.92555 -1.9094 0)
(3.26778 -1.83701 0)
(3.42679 -1.35134 0)
(3.41675 -0.328029 0)
(3.1055 0.951872 0)
(1.793 2.15153 0)
(-2.67353 2.29512 0)
(-17.7359 -0.54916 0)
(-68.8885 12.0641 0)
(0.0321772 -0.151158 0)
(0.191517 -0.327951 0)
(0.425313 -0.436257 0)
(0.670553 -0.543141 0)
(0.918207 -0.701523 0)
(1.20077 -0.935309 0)
(1.55948 -1.24069 0)
(2.02249 -1.58427 0)
(2.59244 -1.90075 0)
(3.24964 -2.08714 0)
(3.95065 -2.01364 0)
(4.64368 -1.51738 0)
(5.25388 -0.459754 0)
(5.51003 1.09252 0)
(4.35841 3.25616 0)
(0.436389 7.00848 0)
(-10.3201 14.5921 0)
(-37.274 41.8954 0)
(0.0308902 -0.182181 0)
(0.185623 -0.391329 0)
(0.414962 -0.511178 0)
(0.657895 -0.623442 0)
(0.905811 -0.79551 0)
(1.19076 -1.05911 0)
(1.55466 -1.41064 0)
(2.0302 -1.81091 0)
(2.63211 -2.18624 0)
(3.36027 -2.42803 0)
(4.20124 -2.40217 0)
(5.13487 -1.94292 0)
(6.1026 -0.86865 0)
(6.92342 0.987226 0)
(6.82778 4.10348 0)
(5.09801 10.0671 0)
(0.177085 21.6975 0)
(-9.86868 50.2846 0)
(0.0293769 -0.214061 0)
(0.178939 -0.457568 0)
(0.403495 -0.591288 0)
(0.644712 -0.711099 0)
(0.895175 -0.897112 0)
(1.18748 -1.1883 0)
(1.56509 -1.58317 0)
(2.06528 -2.04051 0)
(2.71271 -2.48273 0)
(3.52183 -2.79961 0)
(4.50018 -2.85582 0)
(5.65569 -2.48253 0)
(6.97509 -1.46716 0)
(8.42183 0.4894 0)
(9.68077 4.02419 0)
(10.8927 10.7197 0)
(12.4247 23.1421 0)
(16.6313 48.6933 0)
(0.0276719 -0.246693 0)
(0.171454 -0.526692 0)
(0.390873 -0.676012 0)
(0.630794 -0.804589 0)
(0.88463 -1.00624 0)
(1.18496 -1.32929 0)
(1.57685 -1.77659 0)
(2.10298 -2.30666 0)
(2.79897 -2.83984 0)
(3.69551 -3.26627 0)
(4.82398 -3.45321 0)
(6.2278 -3.23653 0)
(7.96023 -2.40228 0)
(10.1372 -0.627069 0)
(12.847 2.68411 0)
(16.8719 8.72304 0)
(23.4552 19.1014 0)
(36.4797 37.4454 0)
(0.0257903 -0.279904 0)
(0.163136 -0.598484 0)
(0.376742 -0.765335 0)
(0.615073 -0.904955 0)
(0.872077 -1.12582 0)
(1.17976 -1.48649 0)
(1.58428 -1.99513 0)
(2.13304 -2.61196 0)
(2.87151 -3.25849 0)
(3.84601 -3.82955 0)
(5.11193 -4.20226 0)
(6.75007 -4.23119 0)
(8.88229 -3.7348 0)
(11.7468 -2.45445 0)
(15.6901 0.0117409 0)
(21.7542 4.28888 0)
(31.2969 10.9349 0)
(48.095 20.9528 0)
(0.0237457 -0.313304 0)
(0.153905 -0.672776 0)
(0.360539 -0.859909 0)
(0.596091 -1.01336 0)
(0.85496 -1.2563 0)
(1.16805 -1.65829 0)
(1.5816 -2.23467 0)
(2.14602 -2.95022 0)
(2.91418 -3.73132 0)
(3.94482 -4.48209 0)
(5.31273 -5.09701 0)
(7.12755 -5.46315 0)
(9.55852 -5.4587 0)
(12.9057 -4.94217 0)
(17.6141 -3.75724 0)
(24.6863 -1.7926 0)
(35.1961 0.759019 0)
(52.0614 3.41286 0)
(0.021658 -0.344136 0)
(0.144253 -0.741464 0)
(0.343184 -0.9487 0)
(0.574858 -1.11763 0)
(0.833712 -1.3847 0)
(1.14868 -1.8299 0)
(1.56456 -2.4761 0)
(2.13239 -3.29389 0)
(2.90863 -4.21642 0)
(3.95873 -5.15964 0)
(5.36736 -6.03916 0)
(7.25609 -6.78014 0)
(9.80778 -7.32754 0)
(13.3199 -7.65862 0)
(18.2108 -7.82402 0)
(25.2838 -8.05637 0)
(35.211 -8.94422 0)
(49.991 -11.6195 0)
(0.0190994 -0.373823 0)
(0.132421 -0.811539 0)
(0.322143 -1.0417 0)
(0.548591 -1.2281 0)
(0.805321 -1.52028 0)
(1.11783 -2.00917 0)
(1.52779 -2.72642 0)
(2.08465 -3.65001 0)
(2.84517 -4.72168 0)
(3.8764 -5.87093 0)
(5.26422 -7.03614 0)
(7.12716 -8.18089 0)
(9.63498 -9.31222 0)
(13.0393 -10.5056 0)
(17.6658 -11.9561 0)
(24.0561 -14.0849 0)
(32.4941 -17.6148 0)
(44.1764 -23.8398 0)
(0.0161279 -0.405892 0)
(0.117592 -0.890233 0)
(0.293592 -1.1489 0)
(0.509255 -1.35835 0)
(0.757031 -1.68203 0)
(1.0575 -2.22303 0)
(1.44674 -3.02333 0)
(1.96902 -4.0702 0)
(2.67627 -5.316 0)
(3.62969 -6.70565 0)
(4.90488 -8.20168 0)
(6.59898 -9.80482 0)
(8.83927 -11.5759 0)
(11.7894 -13.6628 0)
(15.6279 -16.3424 0)
(20.5944 -20.0967 0)
(26.6254 -25.589 0)
(34.2051 -33.9694 0)
(0.0126279 -0.438966 0)
(0.0985642 -0.976016 0)
(0.253962 -1.26953 0)
(0.449679 -1.50771 0)
(0.676639 -1.8676 0)
(0.94848 -2.46491 0)
(1.29226 -3.35297 0)
(1.7421 -4.52942 0)
(2.33803 -5.95754 0)
(3.12547 -7.59617 0)
(4.15578 -9.42654 0)
(5.48585 -11.4735 0)
(7.17648 -13.8242 0)
(9.28109 -16.6473 0)
(11.8212 -20.2121 0)
(14.778 -24.9241 0)
(17.8752 -31.2352 0)
(21.124 -39.9618 0)
(0.00844844 -0.470235 0)
(0.0737886 -1.06327 0)
(0.198683 -1.39647 0)
(0.360474 -1.66719 0)
(0.547872 -2.06404 0)
(0.76513 -2.71408 0)
(1.02624 -3.681 0)
(1.34962 -4.97119 0)
(1.75615 -6.55542 0)
(2.26657 -8.39899 0)
(2.898 -10.4877 0)
(3.65834 -12.8456 0)
(4.53906 -15.5464 0)
(5.49871 -18.7191 0)
(6.44721 -22.5477 0)
(7.21972 -27.2745 0)
(7.49876 -33.0958 0)
(7.07546 -40.4641 0)
(0.00347652 -0.494492 0)
(0.041575 -1.13982 0)
(0.122337 -1.5129 0)
(0.230431 -1.81444 0)
(0.352118 -2.23926 0)
(0.480367 -2.92139 0)
(0.612923 -3.9308 0)
(0.748734 -5.27792 0)
(0.885913 -6.93392 0)
(1.01843 -8.859 0)
(1.13121 -11.0254 0)
(1.19371 -13.4305 0)
(1.15316 -16.1007 0)
(0.922995 -19.0888 0)
(0.379739 -22.4642 0)
(-0.660333 -26.3031 0)
(-2.42624 -30.6094 0)
(-5.15404 -35.5625 0)
(-0.00238534 -0.502949 0)
(0.000556304 -1.18339 0)
(0.0209319 -1.58673 0)
(0.0521419 -1.90692 0)
(0.0793023 -2.33546 0)
(0.0846049 -3.00531 0)
(0.0497914 -3.98561 0)
(-0.0443451 -5.28387 0)
(-0.218641 -6.86375 0)
(-0.497457 -8.67057 0)
(-0.912099 -10.6513 0)
(-1.50505 -12.7644 0)
(-2.33319 -14.9815 0)
(-3.47239 -17.2827 0)
(-5.01292 -19.6487 0)
(-7.07541 -22.0517 0)
(-9.75896 -24.4129 0)
(-13.2374 -26.7686 0)
(-0.00957523 -0.481937 0)
(-0.0502377 -1.15504 0)
(-0.105346 -1.55882 0)
(-0.170686 -1.86672 0)
(-0.258607 -2.25331 0)
(-0.392768 -2.83968 0)
(-0.601129 -3.68628 0)
(-0.91243 -4.79335 0)
(-1.35457 -6.11668 0)
(-1.95404 -7.58956 0)
(-2.73708 -9.14039 0)
(-3.73149 -10.702 0)
(-4.96788 -12.2142 0)
(-6.48078 -13.6221 0)
(-8.30414 -14.872 0)
(-10.4812 -15.9073 0)
(-13.0168 -16.6531 0)
(-16.0108 -17.099 0)
(-0.0146899 -0.4373 0)
(-0.089126 -1.05905 0)
(-0.204731 -1.43088 0)
(-0.345872 -1.70036 0)
(-0.517895 -2.01867 0)
(-0.742938 -2.49056 0)
(-1.04996 -3.16527 0)
(-1.46905 -4.03673 0)
(-2.02712 -5.05953 0)
(-2.74463 -6.16707 0)
(-3.63629 -7.28635 0)
(-4.713 -8.3465 0)
(-5.98266 -9.2828 0)
(-7.45019 -10.0377 0)
(-9.11512 -10.56 0)
(-10.9785 -10.8022 0)
(-13.0093 -10.7165 0)
(-15.2637 -10.2902 0)
(-0.0175256 -0.385218 0)
(-0.112912 -0.937357 0)
(-0.267408 -1.2653 0)
(-0.45625 -1.49319 0)
(-0.678827 -1.75071 0)
(-0.953698 -2.13017 0)
(-1.30622 -2.66739 0)
(-1.7655 -3.35274 0)
(-2.35772 -4.1451 0)
(-3.09792 -4.98389 0)
(-3.99062 -5.80331 0)
(-5.03342 -6.53955 0)
(-6.22009 -7.13456 0)
(-7.54044 -7.53809 0)
(-8.97825 -7.70816 0)
(-10.5164 -7.60923 0)
(-12.1133 -7.21206 0)
(-13.8049 -6.50766 0)
(-0.0198984 -0.330185 0)
(-0.130297 -0.806502 0)
(-0.311717 -1.08843 0)
(-0.532737 -1.27539 0)
(-0.790261 -1.4731 0)
(-1.09465 -1.78394 0)
(-1.46406 -2.20673 0)
(-1.93101 -2.7385 0)
(-2.52036 -3.35073 0)
(-3.24203 -3.9898 0)
(-4.09478 -4.59402 0)
(-5.06818 -5.10626 0)
(-6.14682 -5.47771 0)
(-7.31135 -5.66787 0)
(-8.53733 -5.64461 0)
(-9.79883 -5.38304 0)
(-11.0524 -4.86699 0)
(-12.3225 -4.09244 0)
(-0.0219412 -0.281198 0)
(-0.144232 -0.682046 0)
(-0.342419 -0.917385 0)
(-0.576941 -1.07067 0)
(-0.866529 -1.19204 0)
(-1.19438 -1.45951 0)
(-1.56008 -1.80193 0)
(-2.02741 -2.19476 0)
(-2.61294 -2.64108 0)
(-3.31077 -3.11316 0)
(-4.11243 -3.55433 0)
(-5.00691 -3.90896 0)
(-5.97735 -4.13626 0)
(-7.00058 -4.20736 0)
(-8.04831 -4.09875 0)
(-9.09154 -3.79183 0)
(-10.0891 -3.27637 0)
(-11.0601 -2.55008 0)
(-0.0216452 -0.23188 0)
(-0.149614 -0.561452 0)
(-0.361716 -0.757993 0)
(-0.584319 -0.90233 0)
(-0.90554 -1.12082 0)
(-1.2763 -1.23742 0)
(-1.60475 -1.48104 0)
(-2.02757 -1.80037 0)
(-2.59676 -2.13268 0)
(-3.28016 -2.47898 0)
(-4.04434 -2.80684 0)
(-4.87768 -3.05695 0)
(-5.77042 -3.18582 0)
(-6.69816 -3.17785 0)
(-7.62573 -3.02167 0)
(-8.51948 -2.70558 0)
(-9.34034 -2.22326 0)
(-10.1044 -1.57418 0)
(-0.0230953 -0.18232 0)
(-0.159699 -0.446321 0)
(-0.39217 -0.604824 0)
(-0.703117 -0.716951 0)
(-0.955669 -0.876885 0)
(-1.23615 -0.926499 0)
(-1.63761 -1.02956 0)
(-2.06683 -1.2785 0)
(-2.60602 -1.58359 0)
(-3.27548 -1.82142 0)
(-4.01102 -2.0397 0)
(-4.77977 -2.21794 0)
(-5.58883 -2.30087 0)
(-6.42852 -2.2676 0)
(-7.25932 -2.11446 0)
(-8.04157 -1.83713 0)
(-8.73708 -1.42777 0)
(-9.36139 -0.885289 0)
(-0.0241996 -0.14028 0)
(-0.164636 -0.348326 0)
(-0.399199 -0.479432 0)
(-0.679189 -0.561038 0)
(-0.938733 -0.58032 0)
(-1.21493 -0.733694 0)
(-1.61058 -0.883785 0)
(-2.10173 -1.09762 0)
(-2.61497 -1.35236 0)
(-3.22209 -1.5728 0)
(-3.95004 -1.669 0)
(-4.70612 -1.69976 0)
(-5.47322 -1.71306 0)
(-6.2587 -1.64896 0)
(-7.03142 -1.48399 0)
(-7.74351 -1.22861 0)
(-8.3536 -0.877845 0)
(-8.88156 -0.426635 0)
(-0.0263171 -0.0996957 0)
(-0.17487 -0.238004 0)
(-0.416688 -0.327901 0)
(-0.697618 -0.392244 0)
(-0.979696 -0.44131 0)
(-1.28637 -0.555957 0)
(-1.67191 -0.695002 0)
(-2.12154 -0.803221 0)
(-2.62226 -0.895237 0)
(-3.16324 -1.01896 0)
(-3.77683 -1.07195 0)
(-4.50385 -1.07307 0)
(-5.26794 -1.06055 0)
(-6.00857 -1.02724 0)
(-6.73186 -0.929383 0)
(-7.40347 -0.733427 0)
(-7.97117 -0.46155 0)
(-8.43702 -0.129731 0)
(-0.0218461 -0.0677863 0)
(-0.162303 -0.174815 0)
(-0.400614 -0.235375 0)
(-0.664889 -0.276101 0)
(-0.907487 -0.317691 0)
(-1.13583 -0.394435 0)
(-1.38846 -0.478773 0)
(-1.68528 -0.538599 0)
(-2.03961 -0.593481 0)
(-2.46754 -0.632402 0)
(-3.00016 -0.689489 0)
(-3.65475 -0.718199 0)
(-4.39963 -0.673845 0)
(-5.18767 -0.594156 0)
(-5.97124 -0.46686 0)
(-6.74226 -0.268851 0)
(-7.4838 -0.0181826 0)
(-8.19139 0.272207 0)
(-0.00756391 -0.0484461 0)
(-0.100461 -0.12428 0)
(-0.263986 -0.177967 0)
(-0.434744 -0.224534 0)
(-0.592158 -0.277001 0)
(-0.777901 -0.344534 0)
(-1.05957 -0.408191 0)
(-1.47457 -0.447164 0)
(-2.02449 -0.463113 0)
(-2.69224 -0.46005 0)
(-3.46095 -0.451311 0)
(-4.30527 -0.403841 0)
(-5.17693 -0.309134 0)
(-6.01391 -0.166962 0)
(-6.76706 0.00673801 0)
(-7.41471 0.197584 0)
(-7.92353 0.416397 0)
(-8.30827 0.667877 0)
(-0.0485776 -0.022506 0)
(-0.28033 -0.0458144 0)
(-0.674744 -0.0760713 0)
(-1.21595 -0.116179 0)
(-1.89231 -0.157229 0)
(-2.68989 -0.190336 0)
(-3.5785 -0.202802 0)
(-4.48079 -0.185733 0)
(-5.31284 -0.143546 0)
(-6.02154 -0.0866087 0)
(-6.60107 -0.0263699 0)
(-7.0366 0.0441134 0)
(-7.28333 0.125727 0)
(-7.2869 0.216069 0)
(-7.02396 0.305086 0)
(-6.49615 0.392342 0)
(-5.69422 0.488918 0)
(-4.64846 0.589039 0)
(-7.55311 41.8111 -8.03357e-18)
(-13.0856 57.4712 7.3508e-18)
(-42.9904 64.5996 0)
(-177.766 86.6736 0)
(-312.572 128.675 0)
(-473.188 97.3449 -9.0862e-18)
(-527.091 56.8692 0)
(-486.678 -13.6768 0)
(-449.62 -67.5965 0)
(-382.017 -102.084 0)
(-283.144 -124.307 3.0296e-18)
(-170.042 -141.605 0)
(-43.1633 -156.625 0)
(73.1872 -174.899 0)
(236.879 -191.72 0)
(398.605 -200.322 3.70784e-18)
(551.759 -189.048 0)
(694.133 -147.197 0)
(813.473 -68.2599 0)
(885.129 46.5536 0)
(894.316 193.132 0)
(764.629 371.486 0)
(517.912 269.394 0)
(417.252 -44.6238 6.58424e-18)
(319.303 92.6676 -8.05683e-18)
(167.489 200.411 6.02496e-18)
(-89.0337 230.762 7.43034e-18)
(-355.286 264.244 0)
(-842.041 274.654 0)
(-1013.73 24.0423 -1.11446e-17)
(-765.995 -308.831 -7.24278e-18)
(-477.613 -446.296 0)
(-77.9513 -446.408 0)
(156.516 -282.749 -5.74553e-18)
(152.921 88.7829 0)
(113.719 523.09 0)
(161.629 462.62 4.64685e-18)
(317.009 -188.638 0)
(753.375 -704.489 6.70458e-18)
(1188.36 -540.865 1.35761e-17)
(1329.03 -320.683 0)
(1405.02 -189.723 0)
(1417.92 -86.9992 0)
(1376.76 -9.01541 0)
(1296.99 46.7513 0)
(1191.47 83.9735 2.45453e-18)
(1070.82 106.74 2.05985e-18)
(942.696 119.02 1.99408e-18)
(812.011 124.144 0)
(681.593 124.628 -2.42375e-18)
(553.189 121.66 0)
(428.929 114.489 3.15548e-18)
(308.601 102.299 3.65008e-18)
(193.445 88.759 0)
(86.7305 76.4723 0)
(-20.758 63.8974 0)
(-92.6956 52.2063 5.89631e-18)
(-162.855 45.7412 0)
(-226.256 41.3268 0)
(-284.066 37.5443 0)
(-336.99 34.0699 0)
(-385.158 30.7488 0)
(-428.697 27.5578 0)
(-467.742 24.5151 0)
(-502.475 21.6471 0)
(-533.125 18.9722 -9.72548e-18)
(-559.944 16.491 0)
(-583.175 14.1815 0)
(-603.008 11.9983 1.08315e-17)
(-619.545 9.87526 1.11941e-17)
(-632.759 7.73335 0)
(-642.481 5.49195 -1.18892e-17)
(-648.405 3.08441 1.22044e-17)
(-650.125 0.474702 0)
(-647.207 -2.3299 -1.27326e-17)
(-639.271 -5.27434 0)
(-626.079 -8.26099 0)
(-607.608 -11.1639 1.31593e-17)
(-584.093 -13.8431 0)
(-556.017 -16.1558 -1.30919e-17)
(-524.067 -17.9997 0)
(-489.085 -19.402 1.28328e-17)
(-451.968 -20.5068 1.2517e-17)
(-413.716 -21.2337 1.12185e-17)
(-375.216 -21.1057 2.17238e-17)
(-337.558 -21.0569 -1.83916e-17)
(-300.474 -20.9231 0)
(-265.911 -19.4156 0)
(-232.12 -17.8109 0)
(-200.584 -16.2345 -1.21981e-17)
(-171.533 -14.6895 -1.19305e-17)
(-144.917 -13.2186 1.17325e-17)
(-120.661 -11.8718 0)
(-98.6196 -10.6872 -1.14823e-17)
(-78.5781 -9.61839 -1.14108e-17)
(-60.3168 -8.59948 -1.1386e-17)
(-43.5749 -8.13549 0)
(-27.5922 -8.86758 0)
(-10.4112 -8.51505 0)
(6.92674 -6.99963 -1.16955e-17)
(20.0204 -19.3196 0)
(67.7735 -46.3952 0)
(138.241 -66.4658 1.23114e-17)
(214.932 -66.0777 0)
(289.627 -43.2999 0)
(344.956 0.466196 1.33462e-17)
(360.242 50.7469 0)
(331.802 80.825 0)
(278.974 71.1614 -1.32093e-17)
(230.702 29.8751 -1.3228e-17)
(207.156 -12.2539 0)
(213.047 -29.5934 1.25958e-17)
(237.717 -20.6442 0)
(258.519 -2.36114 -1.16097e-17)
(250.043 12.8064 0)
(201.525 22.3026 -1.1257e-17)
(122.892 32.3527 -1.12095e-17)
(35.8429 29.6623 0)
(-42.6664 21.0745 0)
(-96.5025 11.2335 0)
(-122.896 3.29945 0)
(-127.937 -1.58923 0)
(-120.159 -4.2134 0)
(-107.341 -5.76472 0)
(-94.2666 -6.96133 -9.33184e-18)
(-79.7449 -7.17904 8.96081e-18)
(-57.9871 -3.16622 0)
(-29.6609 9.24362 0)
(-14.1218 27.1888 0)
(-42.0544 32.1685 0)
(-122.862 -4.70224 1.49293e-17)
(-199.08 -82.0305 0)
(-161.8 -115.692 -1.71581e-17)
(-43.9473 -35.8447 1.73103e-17)
(25.5093 76.9657 0)
(22.683 117.546 0)
(-58.1279 82.4859 0)
(-192.084 19.9154 -1.2546e-17)
(-267.845 -35.1522 -1.46991e-17)
(-189.97 -44.1378 0)
(33.8465 -11.3219 -8.3913e-18)
(369.061 -46.2974 2.68248e-18)
(896.23 -187.728 -1.62341e-18)
(1557.9 -295.389 0)
(2121.43 -240.603 0)
(2355.35 -87.2218 -4.11857e-17)
(2267.1 30.3489 0)
(2006.28 98.7891 0)
(1642.86 134.76 0)
(1230.23 148.526 0)
(803.915 146.772 5.73461e-18)
(385.381 131.923 -5.56494e-18)
(6.40105 109.12 0)
(-334.461 84.8797 -2.53159e-17)
(-568.96 64.9136 0)
(-767.989 52.479 0)
(-927.016 41.4081 -4.56872e-17)
(-1050.02 31.3393 0)
(-1141.17 22.5559 -4.93201e-17)
(-1204.92 15.0677 0)
(-1244.77 8.29466 0)
(-1263.36 1.31674 -5.16497e-17)
(-1261.94 -5.67054 0)
(-1245.22 -13.6651 -3.43647e-17)
(-1203.2 -19.8185 0)
(-1139.23 -18.6752 0)
(-1063.92 -7.03287 0)
(-1000.58 1.33541 1.60569e-17)
(-957.324 -48.6007 0)
(-803.079 -183.806 -1.34946e-17)
(-291.667 -247.297 0)
(200.569 -126.643 0)
(423.211 39.7386 0)
(466.494 120.158 0)
(432.439 124.258 0)
(380.924 94.8556 0)
(346.702 64.2201 0)
(319.116 39.5446 2.07157e-17)
(329.601 19.3346 0)
(283.078 7.49766 0)
(-53.3725 51.9821 2.35361e-17)
(84.6537 27.7711 -2.38201e-17)
(-165.835 106.611 0)
(-276.557 469.194 2.08654e-17)
(-371.418 468.715 0)
(-380.338 292.375 6.83189e-18)
(-342.681 98.9745 -8.9646e-18)
(-277.3 -70.7254 -6.75606e-18)
(-202.37 -188.94 0)
(-124.213 -258.424 -4.45475e-18)
(-45.9351 -296.077 -2.10054e-18)
(31.2147 -317.029 0)
(100.674 -331.156 0)
(176.899 -344.758 0)
(223.907 -362.856 0)
(283.824 -382.329 -3.8962e-18)
(363.15 -393.754 0)
(468.036 -380.942 8.13856e-18)
(601.368 -322.758 0)
(750.829 -199.949 0)
(902.824 -3.53204 -6.62933e-18)
(999.281 260.248 0)
(1011.71 461.43 5.35109e-18)
(919.326 512.777 -2.04751e-18)
(604.584 500.152 2.27759e-18)
(247.109 440.054 -2.33879e-18)
(162.762 479.558 -9.60402e-18)
(-273.91 853.981 0)
(-572.957 861.312 0)
(-480.197 184.624 6.70165e-18)
(-254.684 -657.633 -1.18501e-18)
(11.1595 -911.739 0)
(205.621 -626.001 0)
(432.011 -140.161 7.95102e-18)
(720.42 -100.467 0)
(1447.5 -744.311 0)
(1808.02 -823.935 -1.1523e-17)
(1810.52 -693.346 0)
(1751.61 -533.901 4.99265e-18)
(1635.43 -301.011 -8.79231e-18)
(1460.33 -98.5634 0)
(1280.66 57.7462 0)
(1091.37 168.463 -3.96256e-18)
(905.157 238.805 -1.80838e-18)
(732.56 276.322 -4.49749e-19)
(579.355 289.743 2.24593e-19)
(447.658 287.381 6.18511e-19)
(336.876 276.166 5.19927e-19)
(245.052 261.123 6.57193e-19)
(169.597 245.357 3.80216e-19)
(106.882 230.127 0)
(54.2067 215.756 -1.57747e-18)
(10.9744 200.676 3.17952e-18)
(-29.1248 184.993 0)
(-70.051 169.832 0)
(-101.666 154.718 0)
(-162.604 139.76 -5.83589e-18)
(-219.264 127.794 0)
(-274.741 117.169 1.38392e-17)
(-327.189 107.021 0)
(-375.634 97.137 1.5468e-17)
(-419.823 87.4727 0)
(-459.688 78.1035 -1.69381e-17)
(-495.321 69.1428 0)
(-526.921 60.6955 1.82989e-17)
(-554.756 52.8276 -9.47434e-18)
(-579.128 45.5458 0)
(-600.329 38.7858 -2.02681e-17)
(-618.589 32.4109 -1.04631e-17)
(-634.03 26.2211 -1.07769e-17)
(-646.625 19.9754 0)
(-656.169 13.4267 -1.14345e-17)
(-662.285 6.36988 -1.16328e-17)
(-664.465 -1.30509 0)
(-662.152 -9.57196 1.20787e-17)
(-654.84 -18.2549 -2.46648e-17)
(-642.174 -27.0423 0)
(-624.049 -35.5333 -1.24492e-17)
(-600.653 -43.3071 0)
(-572.456 -49.9693 3.74355e-17)
(-540.173 -55.1896 0)
(-504.708 -58.826 -3.55908e-17)
(-466.994 -60.9868 -1.17716e-17)
(-428.05 -61.729 1.14717e-17)
(-389.321 -61.0263 2.05139e-17)
(-351.277 -59.055 -1.68981e-17)
(-313.95 -57.493 0)
(-278.569 -54.0042 0)
(-244.899 -50.1137 0)
(-213.505 -46.0894 3.55529e-17)
(-184.476 -42.0361 1.15455e-17)
(-157.784 -38.0883 -1.13448e-17)
(-133.36 -34.3578 0)
(-111.097 -30.9314 -1.11411e-17)
(-90.8406 -27.8845 1.09952e-17)
(-72.3564 -25.2803 1.0937e-17)
(-55.3025 -23.3027 0)
(-39.6317 -22.3901 0)
(-26.2836 -22.3644 0)
(-13.3117 -23.4304 1.08164e-17)
(4.29538 -30.9462 0)
(-6.66397 -45.1908 -2.06851e-17)
(-31.1183 -60.1791 -3.11334e-17)
(-41.4286 -75.0187 1.96571e-17)
(-28.4119 -81.5027 0)
(10.464 -70.1307 9.99072e-18)
(66.5592 -42.0052 0)
(130.795 -10.1063 2.0927e-17)
(199.504 12.9155 -1.09036e-17)
(265.948 23.7577 -1.11462e-17)
(317.037 21.2957 0)
(347.682 6.22141 -3.31479e-17)
(361.792 -7.34615 2.17444e-17)
(357.913 -0.245927 1.02165e-17)
(331.285 32.6204 0)
(285.815 78.3409 9.82734e-18)
(211.863 113.332 3.09044e-17)
(128.259 112.46 0)
(60.027 82.8512 2.01442e-17)
(10.1166 46.2806 2.011e-17)
(-21.1744 16.0457 1.97084e-17)
(-35.132 -3.79919 0)
(-35.2403 -13.3333 0)
(-27.4581 -14.6918 0)
(-20.4226 -13.2673 -8.62193e-18)
(-20.2079 -17.1216 -8.28282e-18)
(-20.6867 -29.5459 0)
(-3.80528 -38.8122 -1.556e-17)
(39.1005 -20.1637 -1.55099e-17)
(80.0965 38.6374 0)
(53.5971 105.734 -1.42147e-17)
(-100.976 114.002 -3.16857e-17)
(-365.014 30.8416 1.41028e-17)
(-553.609 -86.131 1.16007e-17)
(-465.233 -137.739 0)
(-194.444 -78.2407 0)
(-14.8974 55.7633 0)
(-29.4489 127.001 1.14384e-17)
(-100.956 36.908 -4.0971e-18)
(24.0471 -150.706 -1.56807e-17)
(583.614 -360.787 1.5093e-17)
(1613.38 -585.191 -1.40794e-17)
(2663.5 -707.784 7.09777e-19)
(3143.33 -531.517 0)
(2868.38 -158.171 0)
(2357.22 109.433 -3.98219e-17)
(1807.46 267.084 0)
(1305.29 337.992 0)
(877.097 358.651 5.0216e-17)
(523.118 353.431 0)
(233.027 334.532 7.91918e-18)
(-4.53846 304.661 3.87757e-18)
(-216.625 267.383 0)
(-400.982 225.371 -2.79212e-17)
(-625.356 184.792 0)
(-814.058 149.861 0)
(-967.527 117.333 4.41888e-17)
(-1086.11 88.027 -9.06048e-17)
(-1173.61 63.0291 4.31472e-17)
(-1234.79 42.5562 0)
(-1273.53 25.5322 0)
(-1292.49 9.90601 -4.8896e-17)
(-1293.66 -5.32887 0)
(-1279.76 -22.8516 -3.25658e-17)
(-1244.77 -40.5449 0)
(-1191.83 -54.5418 0)
(-1118.92 -61.8439 0)
(-1013.03 -59.6776 -1.44202e-17)
(-882.182 -70.4809 0)
(-826.995 -133.385 1.11545e-17)
(-969.341 -213.345 0)
(-1025.12 -218.072 0)
(-919.503 -159.167 -1.18606e-17)
(-747.051 -99.4629 1.62927e-17)
(-569.964 -76.098 0)
(-411.223 -65.1347 0)
(-197.37 -55.2957 0)
(100.152 -38.0788 -2.52708e-17)
(431.948 -1.86311 0)
(645.433 45.3088 3.10856e-17)
(4.71612 7.99223 -1.0129e-18)
(-9.95483 200.775 3.7337e-17)
(-290.343 656.602 0)
(-347.289 672.146 -2.65226e-17)
(-276.112 424.097 0)
(-160.904 121.082 0)
(-50.6275 -123.391 1.26003e-18)
(37.6403 -282.472 4.83802e-18)
(103.836 -369.695 3.29411e-18)
(153.623 -409.814 3.07516e-18)
(194.046 -424.813 0)
(230.647 -428.558 0)
(265.048 -429.241 -2.97224e-18)
(300.886 -430.147 -5.35845e-18)
(328.135 -434.538 1.40664e-17)
(347.247 -447.865 0)
(359.256 -473.106 1.69744e-17)
(369.851 -500.859 -9.2416e-18)
(400.001 -502.895 0)
(472.97 -438.058 1.91933e-17)
(599.744 -268.656 7.50135e-18)
(761.168 15.6036 -1.77885e-17)
(902.781 366.476 -5.20405e-18)
(951.91 678.194 0)
(828.674 872.721 1.68483e-17)
(595.534 950.62 1.01977e-17)
(390.039 999.408 0)
(-23.5539 1314.47 4.53433e-17)
(-149.099 1108.82 0)
(334.245 -258.878 -3.1398e-19)
(667.604 -1104.06 -2.12186e-17)
(935.628 -1420.57 0)
(1352.98 -1126.41 0)
(1680.94 -1019.73 0)
(1863.27 -984.249 0)
(1892.01 -866.153 0)
(1737.8 -601.268 0)
(1496.37 -343.83 1.20976e-17)
(1219.37 -130.586 -1.36369e-17)
(949.643 67.0102 0)
(719.477 235.848 0)
(543.258 352.945 0)
(417.967 419.297 6.91199e-20)
(337.789 444.115 -1.13576e-18)
(292.01 439.378 -2.5569e-18)
(267.803 417.056 2.48187e-18)
(253.212 386.961 2.70879e-20)
(238.875 355.811 -7.11821e-19)
(218.786 327.311 1.19283e-18)
(189.998 302.806 2.5127e-18)
(152.473 282.44 0)
(106.594 266.664 4.56895e-18)
(52.1093 254.582 3.96619e-19)
(-7.83729 244.18 0)
(-68.4004 234.874 0)
(-127.795 225.389 -1.1671e-17)
(-184.304 214.61 0)
(-237.063 200.87 0)
(-286.445 185.823 1.45597e-17)
(-332.17 170.24 3.01272e-17)
(-373.956 154.471 -1.56116e-17)
(-411.705 138.85 0)
(-445.48 123.682 1.70291e-17)
(-475.499 109.247 0)
(-502.095 95.7623 1.83461e-17)
(-525.682 83.3545 1.89171e-17)
(-546.696 72.033 -3.89832e-17)
(-565.547 61.6735 -2.00548e-17)
(-582.549 52.0161 0)
(-597.859 42.6813 4.24756e-17)
(-611.424 33.2085 0)
(-622.938 23.1183 6.69626e-17)
(-631.841 12.0019 4.57421e-17)
(-637.378 -0.376717 4.66693e-17)
(-638.715 -13.9988 -4.74725e-17)
(-635.081 -28.567 7.1869e-17)
(-625.902 -43.5266 0)
(-610.932 -58.141 0)
(-590.312 -71.6276 -4.88231e-17)
(-564.531 -83.2656 -7.2752e-17)
(-534.36 -92.4784 0)
(-500.709 -98.9729 2.34623e-17)
(-464.491 -102.644 0)
(-426.801 -103.526 -6.56314e-17)
(-388.731 -102.631 -1.09492e-19)
(-350.14 -99.1986 -1.36997e-19)
(-313.594 -94.6226 2.62142e-17)
(-278.036 -88.8074 0)
(-244.741 -82.4927 -2.40819e-17)
(-213.964 -75.9845 1.56597e-19)
(-185.677 -69.4778 0)
(-159.774 -63.1557 0)
(-136.106 -57.1732 0)
(-114.509 -51.6514 2.16953e-17)
(-94.8035 -46.6897 0)
(-76.7823 -42.4159 0)
(-60.2558 -38.9402 0)
(-45.1075 -36.2291 0)
(-31.2431 -34.8294 0)
(-18.6101 -35.6143 2.10615e-17)
(-6.70837 -35.9225 0)
(3.8153 -36.0475 2.06154e-17)
(7.98507 -41.3948 2.12309e-17)
(-2.62481 -54.1432 -1.96584e-17)
(-25.4554 -66.9585 0)
(-49.1136 -71.2572 -1.78317e-17)
(-57.2689 -62.6378 0)
(-42.4692 -48.5563 -1.75589e-17)
(-10.6647 -41.7483 1.78558e-17)
(28.2707 -46.3221 5.4463e-17)
(68.8427 -54.8347 0)
(109.135 -55.8795 5.55365e-17)
(144.504 -40.3235 1.93686e-17)
(167.481 -2.9213 0)
(173.087 52.7362 3.77829e-17)
(165.186 111.881 3.71265e-17)
(159.54 149.403 -5.64463e-17)
(155.688 151.091 0)
(142.343 122.622 -1.89582e-17)
(123.016 81.0206 -1.9196e-17)
(103.671 41.3746 -5.68202e-17)
(88.7504 10.4243 0)
(81.3483 -10.0259 0)
(82.9302 -17.8982 0)
(89.512 -13.8288 -1.67254e-17)
(90.9986 -8.47314 0)
(82.0537 -17.1609 0)
(73.8425 -37.6041 1.57341e-17)
(82.2188 -37.0328 1.52619e-17)
(94.8547 22.7824 0)
(62.5389 135.251 0)
(-55.0461 223.592 2.64205e-17)
(-232.584 187.22 0)
(-379.76 10.583 -2.59403e-17)
(-398.705 -176.601 -3.05307e-17)
(-275.578 -196.974 0)
(-145.577 -25.7522 0)
(-89.3725 100.053 1.30557e-17)
(75.6333 -78.1498 2.32688e-18)
(653.442 -555.259 2.01395e-18)
(1731.79 -1046.79 0)
(2827.55 -1220.84 3.8657e-17)
(3208.87 -911.988 0)
(2640.31 -283.077 0)
(1975.91 160.029 0)
(1488.52 408.342 6.81868e-17)
(1169.21 515.38 0)
(960.022 539.554 -1.16802e-16)
(784.322 526.864 -5.06946e-17)
(591.897 501.157 0)
(365.183 470.701 -1.67296e-17)
(111.474 436.127 0)
(-150.797 395.954 0)
(-399.961 351.49 1.69514e-16)
(-618.385 300.288 -1.43422e-16)
(-802.057 244.801 0)
(-950 191.062 -1.72181e-16)
(-1063.94 142.391 8.50899e-17)
(-1148.39 100.988 0)
(-1208.85 67.3353 0)
(-1249.68 39.722 0)
(-1273.12 14.9132 2.61606e-16)
(-1280.83 -9.50824 0)
(-1272.32 -36.711 7.01127e-17)
(-1239.69 -63.1395 0)
(-1185.47 -84.2573 0)
(-1113.61 -99.861 0)
(-1027.9 -111.462 0)
(-933.263 -125.801 0)
(-850.692 -149.457 0)
(-819.706 -171.491 4.39515e-17)
(-840.19 -162.691 0)
(-867.666 -116.066 1.23193e-17)
(-883.757 -63.3997 -4.39017e-17)
(-883.72 -47.9482 0)
(-880.772 -64.9968 0)
(-884.578 -135.498 2.00091e-17)
(-784.105 -213.111 2.07152e-18)
(-524.248 -219.64 -9.0081e-18)
(-206.398 -108.044 -2.49155e-17)
(-33.6582 -22.2771 -4.87916e-17)
(-274.152 691.559 -5.58312e-17)
(-272.441 743.949 -2.31065e-17)
(-154.293 424.403 -6.40282e-18)
(6.55318 61.0955 0)
(140.757 -200.66 7.79401e-18)
(220.902 -346.838 -2.36066e-18)
(258.863 -413.696 0)
(275.804 -440.172 -2.14391e-18)
(286.704 -451.099 0)
(299.852 -458.063 3.24147e-18)
(318.804 -464.211 0)
(342.403 -469.356 1.60229e-18)
(370.29 -472.406 3.57626e-18)
(391.241 -472.572 -1.43472e-17)
(411.475 -469.521 0)
(424.226 -472.667 -1.76802e-17)
(421.814 -493.746 0)
(408.473 -530.657 0)
(408.749 -547.532 -2.17188e-17)
(458.396 -474.637 0)
(578.295 -246.735 -3.89888e-18)
(738.295 144.467 0)
(877.641 597.881 0)
(879.43 1029.84 5.34542e-18)
(832.331 1285.63 -1.31322e-17)
(694.91 1307.62 -6.11831e-18)
(203.495 1668.46 -3.60848e-17)
(632.138 695.43 0)
(1602.05 -1461.38 4.0694e-17)
(1967.58 -2051.84 0)
(1871.19 -1592.89 -4.71253e-17)
(1911.92 -1326.91 0)
(1811.78 -1053.73 0)
(1595.37 -735.04 1.53039e-17)
(1297.17 -405.682 0)
(992.666 -113.18 -6.99287e-18)
(723.78 111.795 -1.75262e-18)
(506.452 271.19 6.19492e-18)
(352.32 381.183 -2.33132e-18)
(263.55 445.729 0)
(230.337 468.063 0)
(233.381 461.923 1.30871e-19)
(252.643 441.781 0)
(271.536 418.797 7.24133e-19)
(279.538 399.366 -4.53306e-19)
(272.253 385.541 -6.31302e-20)
(249.726 376.597 0)
(214.405 370.642 -1.19405e-18)
(169.565 365.673 -1.90536e-18)
(118.533 360.052 6.19312e-18)
(63.6778 352.152 -3.49821e-18)
(7.75525 341.387 -5.38721e-18)
(-45.1404 328.638 0)
(-96.2539 315.117 0)
(-146.769 299.266 1.20234e-17)
(-193.962 281.943 0)
(-237.376 262.924 0)
(-276.953 242.606 -2.94673e-17)
(-312.608 221.536 -3.10673e-17)
(-344.354 200.261 0)
(-372.372 179.327 0)
(-397.009 159.241 0)
(-418.76 140.443 0)
(-438.233 123.259 -3.75733e-17)
(-456.094 107.859 3.86212e-17)
(-473.001 94.216 3.9712e-17)
(-489.521 82.09 8.13692e-17)
(-506.054 71.0228 0)
(-522.739 60.3635 5.51906e-21)
(-539.386 49.3256 0)
(-555.419 37.0865 -4.44759e-17)
(-569.859 22.9354 3.8029e-19)
(-581.416 6.45796 -4.59752e-17)
(-588.688 -12.3178 4.65945e-17)
(-590.393 -32.8948 7.14182e-19)
(-585.595 -54.3579 0)
(-573.929 -75.4964 4.81086e-17)
(-555.699 -95.0529 4.73247e-17)
(-531.786 -111.958 9.55819e-17)
(-503.468 -125.436 0)
(-472.088 -135.116 -4.61776e-17)
(-438.971 -140.987 0)
(-405.507 -143.476 8.73154e-17)
(-371.584 -142.396 -3.83034e-17)
(-336.633 -139.43 2.71641e-17)
(-302.683 -132.792 -2.5735e-17)
(-269.171 -124.43 -4.97135e-17)
(-237.148 -115.172 2.36783e-17)
(-207.295 -105.627 -2.29638e-17)
(-179.913 -96.2415 0)
(-155.056 -87.2908 4.42681e-17)
(-132.581 -78.934 0)
(-112.26 -71.2798 4.30425e-17)
(-93.8636 -64.4278 -4.26413e-17)
(-77.1873 -58.4813 -4.23306e-17)
(-62.0687 -53.5454 4.20667e-17)
(-48.3094 -49.6878 4.18818e-17)
(-35.6929 -46.9566 0)
(-24.4755 -45.5368 2.06348e-17)
(-15.1775 -45.7018 0)
(-7.79887 -48.23 0)
(-2.43457 -52.3027 4.06908e-17)
(0.429634 -53.979 0)
(-0.731746 -52.7599 0)
(-7.80446 -49.2216 3.69947e-17)
(-17.9646 -44.1673 0)
(-26.2019 -41.0573 0)
(-31.0857 -43.4744 0)
(-35.3157 -51.3864 -6.74065e-17)
(-41.0172 -60.8954 0)
(-46.6554 -65.5068 -6.67875e-17)
(-48.1286 -55.6121 -3.284e-17)