/*--------------------------------*- C++ -*----------------------------------*\
| =========                 |                                                 |
| \\      /  F ield         | OpenFOAM: The Open Source CFD Toolbox           |
|  \\    /   O peration     | Version:  2112                                  |
|   \\  /    A nd           | Website:  www.openfoam.com                      |
|    \\/     M anipulation  |                                                 |
\*---------------------------------------------------------------------------*/
FoamFile
{
    version     2.0;
    format      ascii;
    arch        "LSB;label=32;scalar=64";
    class       volScalarField;
    location    "0.01";
    object      kU;
}
// * * * * * * * * * * * * * * * * * * * * * * * * * * * * * * * * * * * * * //

dimensions      [0 2 -2 0 0 0 0];

internalField   nonuniform List<scalar> 
12225
(
0.534949
0.804847
0.988912
1.09734
1.15237
1.1726
1.16994
1.16056
1.14245
1.11904
1.09804
1.07323
1.05504
1.03182
1.01842
0.998194
0.9902
0.973979
0.378392
0.385944
0.39105
0.394306
0.396168
0.397616
0.398534
0.400421
0.40252
0.406763
0.410276
0.417686
0.422418
0.432825
0.439273
0.450524
0.456888
0.46694
0.375179
0.374432
0.372416
0.368458
0.363719
0.358144
0.352504
0.346725
0.341258
0.336222
0.331604
0.327714
0.324271
0.321615
0.319423
0.317704
0.316691
0.315173
0.375061
0.374596
0.373524
0.371466
0.369009
0.365931
0.362776
0.359178
0.355772
0.352044
0.348761
0.345151
0.342252
0.338918
0.336545
0.333587
0.331764
0.329265
0.375069
0.374828
0.374261
0.373165
0.371845
0.370186
0.368459
0.366458
0.364523
0.362356
0.360395
0.358196
0.356355
0.354217
0.352613
0.350611
0.349334
0.34751
0.375072
0.374945
0.374617
0.37398
0.373196
0.372227
0.371198
0.370022
0.368853
0.367567
0.366357
0.365044
0.36388
0.362603
0.361567
0.360364
0.359537
0.358408
0.375059
0.374994
0.374798
0.374408
0.373916
0.373318
0.372672
0.371946
0.371209
0.370418
0.369653
0.368853
0.368115
0.367351
0.366687
0.365972
0.365434
0.36475
0.375036
0.375004
0.374888
0.374647
0.374333
0.373955
0.373542
0.373084
0.372613
0.372118
0.371633
0.371139
0.370675
0.370212
0.369786
0.369353
0.369002
0.368592
0.37501
0.374991
0.374924
0.374779
0.374583
0.374346
0.374084
0.373796
0.373498
0.37319
0.372885
0.372581
0.372293
0.372018
0.371769
0.371526
0.371325
0.371085
0.374985
0.374963
0.374922
0.374841
0.374727
0.374588
0.374432
0.374261
0.374085
0.373907
0.373735
0.373569
0.373416
0.373281
0.373173
0.373077
0.373005
0.372893
0.374961
0.374924
0.374895
0.374852
0.374798
0.37473
0.374653
0.37457
0.374488
0.374411
0.374345
0.37429
0.374252
0.374234
0.374236
0.374249
0.374281
0.374285
0.374942
0.374884
0.374854
0.374829
0.374808
0.374785
0.374763
0.374741
0.374725
0.37472
0.374725
0.374742
0.37478
0.374836
0.374912
0.374999
0.375104
0.375191
0.374927
0.374844
0.374806
0.374789
0.374785
0.374789
0.374801
0.374823
0.374855
0.374899
0.374957
0.375029
0.375119
0.375228
0.375354
0.375494
0.375648
0.375795
0.374914
0.374803
0.374748
0.374729
0.374732
0.374747
0.374779
0.374827
0.374891
0.374969
0.375063
0.375174
0.375301
0.375446
0.375607
0.375781
0.375968
0.376157
0.374905
0.374766
0.374687
0.374654
0.374655
0.37467
0.374703
0.374759
0.374834
0.374926
0.375036
0.375164
0.375308
0.375469
0.375646
0.375837
0.376039
0.37625
0.374899
0.374737
0.37463
0.374574
0.374559
0.374568
0.374592
0.374639
0.374705
0.374791
0.374895
0.375018
0.375159
0.375316
0.375489
0.375677
0.375878
0.376091
0.374897
0.374719
0.374586
0.374501
0.374458
0.374449
0.374459
0.374486
0.374531
0.374595
0.374677
0.374778
0.374896
0.375032
0.375184
0.375353
0.375535
0.375734
0.374897
0.374712
0.374561
0.374448
0.374371
0.374326
0.374308
0.37431
0.374326
0.374359
0.374407
0.374472
0.374555
0.374655
0.374772
0.374907
0.375059
0.375229
0.3749
0.374716
0.374557
0.374423
0.374314
0.374227
0.37416
0.374111
0.374081
0.374072
0.374077
0.374094
0.374128
0.374178
0.374248
0.374336
0.374443
0.374571
0.374905
0.374729
0.37457
0.374426
0.374294
0.374171
0.374056
0.37395
0.373855
0.373777
0.373716
0.373675
0.373655
0.373655
0.373666
0.373693
0.373744
0.37382
0.374912
0.374746
0.374589
0.374437
0.374283
0.374127
0.373968
0.373811
0.373657
0.373513
0.373382
0.373271
0.373182
0.373117
0.373072
0.373048
0.373045
0.373057
0.374922
0.374769
0.374612
0.374443
0.374259
0.374062
0.373854
0.373639
0.37342
0.373205
0.372997
0.372803
0.372628
0.372477
0.372351
0.372251
0.372171
0.372112
0.374936
0.374796
0.374629
0.374429
0.3742
0.373946
0.373671
0.373382
0.373082
0.372778
0.372476
0.372181
0.371899
0.371635
0.371394
0.371178
0.370989
0.370831
0.374955
0.374823
0.374626
0.374373
0.37407
0.373729
0.373355
0.372956
0.372538
0.372107
0.37167
0.371234
0.370802
0.370383
0.369979
0.369597
0.369237
0.368911
0.374974
0.374838
0.374585
0.374239
0.373807
0.37332
0.372775
0.372193
0.371574
0.370935
0.370277
0.369612
0.368942
0.36828
0.367623
0.366986
0.366359
0.365773
0.374989
0.374826
0.374472
0.373945
0.373261
0.372495
0.371616
0.370688
0.369683
0.368654
0.367577
0.366497
0.365389
0.364301
0.363194
0.362128
0.361045
0.360036
0.375012
0.374768
0.374199
0.373279
0.372024
0.370659
0.36903
0.36737
0.365514
0.363681
0.361715
0.359812
0.35781
0.35592
0.353951
0.352109
0.350212
0.348486
0.375133
0.374766
0.37377
0.371926
0.369359
0.366687
0.363387
0.360237
0.356625
0.353317
0.349723
0.346487
0.343097
0.340103
0.337081
0.334297
0.331774
0.329333
0.376938
0.379821
0.381449
0.381415
0.380994
0.380146
0.378488
0.377244
0.375547
0.374663
0.373615
0.373455
0.373643
0.374138
0.375369
0.376664
0.379293
0.381404
0.459611
0.609278
0.730111
0.82113
0.887034
0.932174
0.962296
0.980228
0.990462
0.99366
0.992648
0.989721
0.983983
0.976652
0.968363
0.959431
0.95013
0.940587
0.0028006
0.0254042
0.0351282
0.0431362
0.0510045
0.0584643
0.0650202
0.0705805
0.0752864
0.079366
0.0830351
0.0864672
0.0897816
0.0930472
0.0962976
0.0995461
0.102798
0.106057
0.109327
0.112615
0.115922
0.119245
0.122584
0.125944
0.129328
0.132744
0.136197
0.13968
0.143213
0.146779
0.150341
0.153893
0.157421
0.160917
0.164366
0.167761
0.171082
0.17433
0.177494
0.180575
0.183579
0.186523
0.189434
0.192206
0.194752
0.197078
0.199207
0.201183
0.202977
0.204561
0.205907
0.206926
0.207308
0.207368
0.20648
0.205706
0.205084
0.204623
0.204359
0.204439
0.204973
0.206137
0.208085
0.210626
0.213325
0.21604
0.218743
0.221436
0.224113
0.226775
0.229407
0.232015
0.234688
0.237435
0.240148
0.242764
0.245342
0.248002
0.250777
0.253669
0.256684
0.259827
0.263093
0.266483
0.26999
0.273604
0.277317
0.281099
0.284908
0.288699
0.292449
0.296175
0.299898
0.303622
0.307355
0.311097
0.314837
0.318566
0.322304
0.326034
0.329742
0.333422
0.337065
0.340674
0.344232
0.347737
0.351203
0.354645
0.358036
0.361364
0.36462
0.367806
0.370936
0.374004
0.376996
0.379898
0.382707
0.38543
0.388076
0.390631
0.393081
0.395428
0.397672
0.399802
0.401799
0.403651
0.405338
0.406811
0.408018
0.409003
0.409865
0.410657
0.411399
0.4121
0.412767
0.413396
0.413975
0.414497
0.414962
0.415377
0.415736
0.416026
0.416252
0.416446
0.416614
0.41675
0.416784
0.416735
0.416629
0.416482
0.416309
0.416103
0.415869
0.415581
0.415258
0.414846
0.41443
0.413893
0.413381
0.412714
0.412108
0.411324
0.410605
0.409699
0.408804
0.407757
0.406695
0.4055
0.404314
0.402953
0.401584
0.399983
0.398323
0.396394
0.394312
0.391978
0.388927
0.386098
0.378864
0.378876
0.0042867
0.035835
0.0667727
0.0928483
0.116972
0.138301
0.156036
0.170297
0.181697
0.190973
0.198785
0.205651
0.211939
0.217885
0.223626
0.229239
0.234767
0.240245
0.245704
0.251173
0.256671
0.26221
0.267806
0.273474
0.279235
0.285106
0.291094
0.297207
0.303507
0.309999
0.316677
0.323527
0.330532
0.337682
0.344991
0.352461
0.360085
0.367862
0.375757
0.383739
0.391776
0.399802
0.407736
0.415578
0.423267
0.430623
0.437422
0.443861
0.450505
0.457073
0.463409
0.469409
0.474988
0.480066
0.484338
0.487688
0.490154
0.491822
0.492738
0.493075
0.492689
0.491645
0.490005
0.487796
0.485049
0.481798
0.47808
0.473932
0.46939
0.464496
0.459294
0.453813
0.447999
0.441835
0.435411
0.428741
0.421853
0.414918
0.408053
0.401273
0.394615
0.388134
0.381874
0.375866
0.370135
0.364705
0.359603
0.354846
0.350396
0.346056
0.341513
0.33678
0.332164
0.327794
0.323742
0.320113
0.316979
0.314211
0.311558
0.308934
0.30635
0.303831
0.301428
0.299212
0.297204
0.295377
0.293694
0.292124
0.290657
0.289289
0.288005
0.286782
0.28561
0.284502
0.283464
0.282478
0.281526
0.280613
0.279741
0.278903
0.278095
0.277308
0.276517
0.275699
0.274863
0.27405
0.273275
0.272529
0.271835
0.271247
0.270802
0.270511
0.270342
0.270252
0.270138
0.269973
0.269735
0.269411
0.268919
0.268293
0.26772
0.267201
0.266674
0.266117
0.265555
0.264992
0.264492
0.264067
0.263609
0.26309
0.262563
0.262085
0.261668
0.261295
0.260936
0.260568
0.259987
0.259368
0.258831
0.258386
0.257843
0.257324
0.25674
0.256282
0.255687
0.255137
0.254391
0.253839
0.253158
0.252703
0.252105
0.251672
0.25104
0.250527
0.249673
0.249217
0.248564
0.248678
0.24958
0.254162
0.00589412
0.0471537
0.0989336
0.14321
0.181362
0.213261
0.239186
0.259873
0.276236
0.289208
0.299648
0.308287
0.315658
0.322109
0.327978
0.333552
0.338946
0.344243
0.349503
0.35477
0.360076
0.365441
0.370878
0.376398
0.38201
0.387716
0.393515
0.399411
0.405434
0.411594
0.4179
0.424356
0.430974
0.437778
0.444808
0.452096
0.459669
0.467549
0.475742
0.484227
0.492949
0.501888
0.511122
0.520671
0.530464
0.540368
0.550176
0.559562
0.568258
0.576084
0.583048
0.589149
0.594401
0.598846
0.602619
0.605473
0.607397
0.608426
0.608826
0.608412
0.607234
0.605394
0.602936
0.599903
0.596332
0.592246
0.587667
0.582621
0.577133
0.571228
0.564931
0.558267
0.551261
0.543952
0.536383
0.528613
0.520667
0.512494
0.504075
0.495487
0.486788
0.478059
0.469403
0.460835
0.452382
0.44408
0.435964
0.428082
0.420497
0.413287
0.40643
0.399853
0.393596
0.387677
0.382104
0.37691
0.372172
0.36784
0.363555
0.35923
0.355027
0.351007
0.347239
0.343788
0.340579
0.337538
0.334638
0.331878
0.329282
0.326853
0.324563
0.322383
0.320306
0.318333
0.316463
0.314681
0.312977
0.311346
0.30978
0.308273
0.30682
0.305416
0.30405
0.302713
0.301407
0.300145
0.298929
0.297761
0.296654
0.295636
0.294729
0.293932
0.293224
0.292583
0.291984
0.291409
0.29083
0.290217
0.289546
0.28885
0.288177
0.287531
0.286895
0.286262
0.28565
0.285071
0.28454
0.284046
0.283557
0.283068
0.282598
0.282174
0.281793
0.28144
0.281064
0.280648
0.280174
0.279729
0.279293
0.278901
0.278455
0.278045
0.277585
0.277203
0.276721
0.276296
0.27574
0.275326
0.27479
0.274452
0.273915
0.273584
0.272929
0.272508
0.271637
0.271108
0.270008
0.269235
0.26819
0.264902
0.00762761
0.0550026
0.11947
0.17483
0.220897
0.258042
0.287454
0.310579
0.328761
0.343156
0.354718
0.364259
0.372419
0.379574
0.385998
0.391892
0.397386
0.402627
0.407729
0.412779
0.417841
0.422955
0.428149
0.433442
0.438848
0.44438
0.450053
0.455886
0.461878
0.468041
0.474392
0.480955
0.487758
0.494833
0.502192
0.509856
0.517842
0.526163
0.534819
0.543799
0.553103
0.562749
0.572721
0.582929
0.593245
0.603507
0.613542
0.623054
0.631532
0.638991
0.645433
0.650855
0.655262
0.658661
0.661111
0.662689
0.663472
0.663708
0.663082
0.661753
0.6598
0.657262
0.654179
0.650584
0.646511
0.641992
0.637061
0.63174
0.626049
0.620007
0.613632
0.606941
0.599952
0.592682
0.585147
0.577365
0.569354
0.56113
0.55271
0.54412
0.535382
0.526494
0.517433
0.50828
0.499108
0.489976
0.480928
0.472035
0.463369
0.455026
0.447144
0.439751
0.432722
0.425997
0.41954
0.413319
0.407343
0.401696
0.396412
0.391469
0.386853
0.382541
0.378542
0.374897
0.371425
0.368013
0.364736
0.361637
0.358762
0.356069
0.353508
0.351064
0.34875
0.346568
0.344502
0.34254
0.340678
0.338905
0.337211
0.335592
0.334045
0.332569
0.331158
0.329803
0.328499
0.32724
0.32602
0.324838
0.323701
0.322621
0.321614
0.320684
0.319827
0.319038
0.318308
0.317624
0.316969
0.316325
0.315686
0.315063
0.314468
0.313903
0.31336
0.31284
0.312351
0.311898
0.311482
0.311094
0.310726
0.310376
0.310054
0.309764
0.309501
0.309249
0.308985
0.308705
0.30841
0.308129
0.307852
0.307591
0.307314
0.307053
0.306777
0.306527
0.306239
0.305968
0.30565
0.305386
0.30508
0.304846
0.30453
0.304287
0.303893
0.303597
0.30305
0.302665
0.301924
0.301313
0.30051
0.296684
0.00904292
0.059293
0.130966
0.193115
0.244037
0.284264
0.315617
0.34008
0.359324
0.374667
0.387224
0.398003
0.407464
0.415768
0.423116
0.429669
0.435646
0.441246
0.44663
0.45192
0.457205
0.462542
0.467968
0.473507
0.479178
0.484999
0.490988
0.497165
0.50355
0.510168
0.517043
0.5242
0.531662
0.53945
0.547588
0.556088
0.564959
0.574198
0.583793
0.593729
0.604005
0.614553
0.625163
0.635574
0.645557
0.654892
0.663405
0.670985
0.677601
0.683243
0.687901
0.691574
0.694304
0.69607
0.696948
0.697311
0.696889
0.695628
0.693743
0.691288
0.688306
0.684838
0.680922
0.676591
0.671873
0.666789
0.661362
0.655609
0.649549
0.6432
0.636576
0.629695
0.622572
0.615223
0.607667
0.599923
0.592012
0.58395
0.575756
0.567446
0.559037
0.550545
0.541985
0.533381
0.524761
0.516152
0.507591
0.499085
0.49066
0.482355
0.474226
0.46632
0.458668
0.451279
0.444139
0.437222
0.430521
0.424116
0.418195
0.412794
0.407801
0.403136
0.398731
0.394585
0.390711
0.38709
0.383707
0.380561
0.37768
0.374946
0.372296
0.369771
0.367406
0.365185
0.363073
0.361069
0.359178
0.357384
0.355676
0.354056
0.352522
0.351072
0.349697
0.348387
0.347128
0.345907
0.344715
0.343548
0.34241
0.341313
0.340268
0.339285
0.338368
0.337518
0.336734
0.336008
0.335329
0.334688
0.334081
0.33351
0.332977
0.332479
0.332015
0.331583
0.331186
0.330826
0.330499
0.330202
0.32993
0.329682
0.329462
0.329267
0.329091
0.328924
0.328755
0.32858
0.328404
0.328236
0.328072
0.327914
0.327756
0.327605
0.327452
0.327307
0.327149
0.326993
0.326823
0.326673
0.326511
0.32637
0.326199
0.326044
0.325828
0.325635
0.325312
0.325057
0.324584
0.324221
0.32376
0.3214
0.0102747
0.0609168
0.135904
0.201943
0.256171
0.298844
0.332021
0.357934
0.378435
0.39502
0.40915
0.421727
0.432688
0.442145
0.450338
0.457549
0.464061
0.470125
0.475944
0.481676
0.487431
0.493285
0.499288
0.505479
0.511888
0.518547
0.525489
0.532748
0.540359
0.548356
0.556771
0.56563
0.574948
0.584719
0.59491
0.605481
0.616363
0.627469
0.63869
0.649901
0.660953
0.671681
0.681916
0.691492
0.700274
0.708168
0.715103
0.721039
0.72596
0.729865
0.732764
0.734577
0.735463
0.735816
0.735235
0.733622
0.731311
0.728368
0.724863
0.720855
0.716398
0.711533
0.706296
0.700716
0.694817
0.688617
0.682128
0.675364
0.66834
0.661073
0.653578
0.645874
0.637981
0.62992
0.621712
0.613388
0.60498
0.596517
0.588029
0.579535
0.571051
0.56259
0.554163
0.545778
0.537447
0.529181
0.520993
0.512892
0.50488
0.496962
0.489156
0.481494
0.474017
0.466751
0.459713
0.452907
0.44633
0.439997
0.433962
0.428262
0.422903
0.417856
0.413061
0.408488
0.404239
0.400364
0.396786
0.393449
0.390342
0.387455
0.384763
0.382253
0.379938
0.377768
0.375671
0.373687
0.37183
0.370069
0.368393
0.366811
0.365322
0.36392
0.362594
0.361329
0.360105
0.358908
0.357729
0.356564
0.355421
0.354308
0.353239
0.352225
0.351275
0.350393
0.349579
0.34883
0.34814
0.347502
0.346912
0.346369
0.345871
0.345415
0.344999
0.344621
0.344281
0.343978
0.34371
0.343473
0.343264
0.343083
0.342927
0.342794
0.342677
0.34257
0.342467
0.342364
0.342264
0.342171
0.342081
0.341997
0.341916
0.341839
0.341765
0.341695
0.341619
0.341542
0.341463
0.34139
0.341314
0.341243
0.34116
0.341076
0.340965
0.34085
0.340658
0.340491
0.340183
0.33998
0.339757
0.338424
0.0112185
0.0606644
0.136565
0.204806
0.261524
0.30656
0.341815
0.369544
0.39163
0.409755
0.425485
0.439547
0.451785
0.46233
0.471451
0.479472
0.486727
0.493518
0.50009
0.50663
0.513276
0.520126
0.527252
0.534712
0.542553
0.550818
0.559546
0.56878
0.578565
0.588939
0.599929
0.611533
0.623701
0.636338
0.649341
0.662587
0.675911
0.689096
0.70191
0.714161
0.725677
0.736312
0.745971
0.75461
0.762226
0.768819
0.774356
0.778805
0.782127
0.784308
0.785463
0.785987
0.785134
0.783023
0.780002
0.776161
0.77161
0.766463
0.760826
0.754794
0.74844
0.741821
0.734976
0.72793
0.720696
0.713278
0.705669
0.697858
0.689838
0.681606
0.673161
0.664508
0.655656
0.646615
0.637399
0.628027
0.618549
0.609026
0.599521
0.590094
0.580788
0.571626
0.562624
0.553796
0.54515
0.536691
0.528419
0.52033
0.512417
0.504675
0.497104
0.489717
0.482531
0.475569
0.468846
0.46237
0.456132
0.450116
0.444318
0.438757
0.433456
0.428423
0.423641
0.419085
0.414771
0.410723
0.406937
0.403378
0.400017
0.396919
0.394093
0.391479
0.389054
0.386811
0.384728
0.382799
0.381025
0.379329
0.377709
0.376194
0.37477
0.373426
0.372152
0.370928
0.369733
0.368552
0.367377
0.36621
0.365056
0.363929
0.362841
0.361807
0.360835
0.359932
0.359099
0.358334
0.357633
0.356992
0.356408
0.355875
0.355393
0.354958
0.354567
0.354218
0.353909
0.35364
0.353406
0.353206
0.353036
0.352895
0.352778
0.352684
0.352606
0.352539
0.352479
0.352423
0.352372
0.352327
0.352287
0.352251
0.352219
0.35219
0.352165
0.352142
0.352117
0.352091
0.352066
0.352042
0.352016
0.351991
0.35196
0.351922
0.351869
0.351798
0.351671
0.351543
0.351316
0.351171
0.351057
0.350298
0.0119814
0.0598457
0.135556
0.204843
0.263495
0.310702
0.348144
0.377949
0.401938
0.421553
0.438564
0.45394
0.467431
0.479136
0.489342
0.498408
0.506718
0.514617
0.522387
0.53025
0.538363
0.546847
0.555798
0.565298
0.575426
0.586253
0.597828
0.610175
0.623291
0.637169
0.651775
0.667022
0.682779
0.698898
0.715055
0.730734
0.745498
0.759016
0.771184
0.782099
0.791981
0.801095
0.809668
0.817859
0.825684
0.833032
0.839642
0.845201
0.849401
0.852053
0.853745
0.853097
0.850362
0.845951
0.840029
0.832819
0.824573
0.81554
0.805956
0.79604
0.785966
0.775866
0.765837
0.755951
0.746255
0.736768
0.727475
0.718345
0.70933
0.700374
0.691426
0.682441
0.673371
0.6642
0.65492
0.645398
0.635511
0.625279
0.614787
0.604177
0.593666
0.583388
0.5733
0.563445
0.553873
0.54461
0.535658
0.527023
0.518702
0.510683
0.502959
0.495525
0.48838
0.481529
0.474971
0.468704
0.462709
0.456959
0.451431
0.446118
0.441028
0.436175
0.43156
0.427169
0.422983
0.418998
0.415224
0.411655
0.408275
0.405099
0.402137
0.399365
0.396758
0.394348
0.392166
0.390162
0.388321
0.386624
0.385058
0.383628
0.382282
0.381001
0.379787
0.378606
0.377438
0.376271
0.375099
0.373927
0.372765
0.371624
0.370521
0.369471
0.368483
0.367563
0.366714
0.365934
0.36522
0.36457
0.36398
0.363446
0.362966
0.362536
0.362153
0.361815
0.36152
0.361266
0.36105
0.360869
0.36072
0.3606
0.360506
0.360434
0.360378
0.360335
0.360301
0.360274
0.360252
0.360237
0.360225
0.360222
0.360219
0.360217
0.360219
0.360218
0.360221
0.360224
0.360228
0.36023
0.360231
0.360231
0.360226
0.360211
0.360179
0.36012
0.36001
0.359879
0.359669
0.359503
0.359396
0.358892
0.0125629
0.0591358
0.134388
0.204385
0.264523
0.313724
0.353268
0.38513
0.411025
0.432226
0.450467
0.466899
0.481646
0.494656
0.506201
0.516666
0.526463
0.535975
0.545529
0.555384
0.565738
0.576733
0.588468
0.601017
0.614461
0.628871
0.644288
0.660718
0.678141
0.696458
0.715487
0.734676
0.753203
0.770267
0.785137
0.797647
0.808221
0.817681
0.827067
0.837366
0.849446
0.863698
0.879532
0.896671
0.914493
0.932071
0.948425
0.962621
0.973842
0.981639
0.985607
0.987094
0.982698
0.974771
0.963683
0.949981
0.934258
0.917054
0.898853
0.880086
0.861113
0.84223
0.823672
0.805641
0.788306
0.771802
0.756231
0.741663
0.728132
0.715587
0.703927
0.693034
0.682732
0.672894
0.663359
0.654144
0.645263
0.636486
0.627586
0.618465
0.608871
0.598682
0.58813
0.577425
0.566856
0.556637
0.546699
0.537121
0.527944
0.519175
0.51082
0.50288
0.49535
0.48822
0.48148
0.475108
0.469079
0.463359
0.457911
0.452712
0.447749
0.443021
0.438529
0.434259
0.430189
0.426302
0.422598
0.41908
0.415745
0.412587
0.409604
0.406788
0.404126
0.401626
0.399298
0.397128
0.395108
0.393286
0.391643
0.390149
0.388791
0.387558
0.386414
0.385274
0.384136
0.382983
0.381813
0.380636
0.379464
0.37831
0.377191
0.376125
0.375122
0.374186
0.373319
0.372521
0.371789
0.371122
0.370517
0.36997
0.369479
0.369041
0.368653
0.368313
0.368017
0.367765
0.367552
0.367376
0.367234
0.367122
0.367036
0.366972
0.366926
0.366892
0.366868
0.366854
0.366846
0.366845
0.366845
0.366846
0.36685
0.366859
0.366872
0.366886
0.366901
0.366914
0.366927
0.366936
0.366943
0.366945
0.366941
0.366924
0.366884
0.366812
0.366688
0.366523
0.366283
0.366043
0.365868
0.365417
0.0130413
0.0590983
0.134514
0.204926
0.266311
0.317213
0.358666
0.392445
0.420205
0.443279
0.462737
0.480041
0.49603
0.510547
0.523783
0.536114
0.547967
0.559767
0.5719
0.584634
0.598099
0.612399
0.627715
0.644216
0.662034
0.681213
0.701664
0.723189
0.745036
0.766081
0.784985
0.800492
0.812527
0.821813
0.829749
0.83827
0.84934
0.864521
0.884482
0.908444
0.93721
0.970953
1.00876
1.04985
1.09242
1.13421
1.17285
1.20575
1.231
1.24807
1.2563
1.25979
1.25097
1.23523
1.21361
1.18736
1.15788
1.12622
1.09321
1.05951
1.02563
0.991921
0.958694
0.926166
0.894521
0.863936
0.834602
0.806741
0.780631
0.756544
0.734655
0.715065
0.697759
0.682659
0.669585
0.658195
0.648009
0.638666
0.630076
0.622074
0.614249
0.606484
0.598852
0.59078
0.582043
0.572489
0.562383
0.552213
0.542326
0.532741
0.523515
0.514736
0.50643
0.498612
0.491278
0.484407
0.477968
0.471922
0.466229
0.460851
0.45576
0.450939
0.446377
0.442058
0.437959
0.434056
0.430338
0.426803
0.423451
0.420272
0.417258
0.414404
0.411704
0.409149
0.406739
0.404469
0.402342
0.400375
0.398552
0.396853
0.395318
0.393957
0.392736
0.391609
0.390499
0.389355
0.388181
0.386993
0.385806
0.384632
0.383492
0.382405
0.381383
0.380428
0.379539
0.378714
0.377955
0.37726
0.376628
0.376056
0.375543
0.375084
0.374678
0.374321
0.374012
0.373747
0.373525
0.373342
0.373194
0.373076
0.372985
0.372916
0.372864
0.372825
0.372797
0.372777
0.372763
0.372755
0.37275
0.372748
0.372749
0.372752
0.372759
0.372768
0.372775
0.372781
0.372782
0.372781
0.372775
0.372759
0.372731
0.372688
0.372618
0.372511
0.372348
0.372125
0.371818
0.371472
0.371165
0.370673
0.0133496
0.0601178
0.137165
0.20812
0.270477
0.322703
0.365689
0.401094
0.430524
0.455314
0.476518
0.495095
0.512151
0.528345
0.543672
0.558421
0.573021
0.587944
0.603494
0.619764
0.636969
0.655568
0.6759
0.69791
0.721339
0.745258
0.768341
0.788928
0.805504
0.817857
0.826548
0.833199
0.839933
0.848836
0.861945
0.880903
0.906712
0.939491
0.978731
1.02438
1.07962
1.14473
1.2185
1.29852
1.3811
1.46274
1.53901
1.60414
1.65297
1.68388
1.69841
1.6997
1.68113
1.65091
1.61026
1.56201
1.50935
1.4548
1.39962
1.34498
1.29137
1.23907
1.18815
1.13853
1.09008
1.04267
0.996254
0.950883
0.906732
0.864222
0.823933
0.786489
0.752418
0.722127
0.696027
0.674135
0.656037
0.641433
0.629753
0.620168
0.611924
0.605207
0.599278
0.593208
0.587236
0.581213
0.575047
0.568172
0.560119
0.551106
0.541664
0.532412
0.523443
0.514833
0.506686
0.499022
0.491826
0.485084
0.478764
0.472828
0.467245
0.461994
0.457053
0.452401
0.448014
0.443866
0.439936
0.436213
0.432689
0.429353
0.426194
0.423204
0.420378
0.417706
0.415179
0.412797
0.410563
0.408478
0.406525
0.404674
0.402916
0.401245
0.399705
0.398364
0.39714
0.395977
0.39478
0.393562
0.392348
0.391138
0.389962
0.388843
0.387793
0.38681
0.385886
0.385021
0.384218
0.383479
0.382804
0.382192
0.381639
0.381144
0.380704
0.380316
0.379978
0.379687
0.379441
0.379236
0.379067
0.378928
0.378815
0.378724
0.37865
0.378588
0.378537
0.378493
0.378456
0.378423
0.378395
0.378369
0.378346
0.378327
0.378309
0.378291
0.378271
0.378247
0.378218
0.378182
0.378138
0.378084
0.378015
0.377926
0.377806
0.377642
0.377414
0.377113
0.376714
0.376238
0.375758
0.375163
0.0131609
0.0609585
0.143069
0.215667
0.278748
0.331789
0.375792
0.412372
0.443126
0.469418
0.492366
0.512874
0.531602
0.549436
0.567218
0.584942
0.603048
0.621883
0.641556
0.662355
0.68472
0.708756
0.733664
0.758304
0.780955
0.799755
0.814002
0.823732
0.829994
0.834785
0.84037
0.849017
0.862731
0.882772
0.90972
0.94393
0.985999
1.03804
1.10274
1.18138
1.2738
1.37776
1.49057
1.60903
1.72686
1.8375
1.93834
2.02769
2.10351
2.16022
2.19443
2.214
2.20362
2.16925
2.11302
2.04051
1.95673
1.87061
1.7853
1.70425
1.62654
1.55298
1.48356
1.41773
1.35458
1.29325
1.2329
1.17286
1.11275
1.05261
0.992916
0.934512
0.878513
0.826004
0.777982
0.735241
0.698444
0.667797
0.643312
0.624154
0.610153
0.599308
0.590866
0.585092
0.581506
0.578756
0.575672
0.572379
0.568658
0.564661
0.559764
0.553368
0.54562
0.537175
0.528729
0.520586
0.512699
0.505146
0.497982
0.491195
0.484771
0.478714
0.473017
0.46766
0.462618
0.457873
0.453406
0.449198
0.445235
0.441498
0.437972
0.434644
0.431508
0.428554
0.425772
0.42316
0.420719
0.418446
0.416326
0.414324
0.412386
0.410462
0.408553
0.406717
0.405063
0.403609
0.402249
0.400956
0.399698
0.398411
0.397168
0.395996
0.394903
0.393878
0.392895
0.391961
0.391087
0.390278
0.389535
0.388857
0.388242
0.387687
0.387191
0.38675
0.386363
0.386027
0.385738
0.385492
0.385281
0.3851
0.384942
0.384805
0.384684
0.384576
0.384477
0.384385
0.384299
0.384217
0.384139
0.384064
0.383993
0.383924
0.383856
0.383787
0.383715
0.383637
0.383552
0.383457
0.383351
0.383233
0.383097
0.382937
0.382744
0.382501
0.382189
0.381793
0.381279
0.380652
0.37998
0.379205
0.0127317
0.0654422
0.154995
0.229872
0.2932
0.34623
0.390443
0.427539
0.459115
0.486543
0.510965
0.533334
0.55442
0.574882
0.595218
0.616235
0.638483
0.66174
0.685795
0.710501
0.735347
0.758938
0.779748
0.796882
0.809841
0.81903
0.825522
0.83036
0.835418
0.842711
0.854274
0.872636
0.899238
0.933877
0.976769
1.02849
1.09241
1.17002
1.25988
1.35968
1.46559
1.57278
1.67647
1.77386
1.86724
1.95911
2.04868
2.13382
2.21173
2.27871
2.33545
2.37597
2.40024
2.40662
2.39871
2.37234
2.32698
2.26098
2.17454
2.07558
1.97318
1.87537
1.78537
1.70469
1.63045
1.56136
1.4956
1.43125
1.36636
1.29951
1.22968
1.15678
1.08198
1.00707
0.934221
0.865735
0.803367
0.74841
0.701498
0.662895
0.631872
0.608365
0.591357
0.57913
0.57024
0.564478
0.562317
0.562536
0.563607
0.563998
0.563788
0.56274
0.560959
0.558221
0.553804
0.547673
0.540387
0.532668
0.525114
0.517781
0.510543
0.503508
0.496787
0.490409
0.484356
0.478627
0.473233
0.468173
0.463434
0.458992
0.454821
0.450898
0.447212
0.44375
0.440499
0.437453
0.434609
0.431964
0.429506
0.42721
0.425017
0.422845
0.420622
0.41833
0.416049
0.413881
0.41197
0.410264
0.408697
0.407221
0.405854
0.404595
0.403432
0.402343
0.401248
0.40019
0.399195
0.398271
0.397418
0.396635
0.395918
0.395267
0.394679
0.394151
0.393684
0.393273
0.392914
0.392598
0.392311
0.39205
0.391812
0.391593
0.391389
0.391196
0.391012
0.390835
0.390662
0.390494
0.390329
0.390169
0.390012
0.389859
0.389708
0.389555
0.389398
0.389233
0.389058
0.388871
0.388669
0.388453
0.388218
0.387959
0.387663
0.387316
0.386899
0.386393
0.385743
0.384944
0.384064
0.383062
0.0141192
0.0839036
0.180536
0.255038
0.316418
0.367771
0.410989
0.44775
0.479553
0.507693
0.53328
0.557259
0.58043
0.603426
0.626689
0.650597
0.675321
0.700337
0.724402
0.746687
0.766372
0.782751
0.795718
0.805749
0.813732
0.820533
0.827269
0.834425
0.844152
0.859017
0.882397
0.915609
0.957558
1.00824
1.06702
1.13347
1.20911
1.29049
1.37244
1.44838
1.51989
1.58724
1.65019
1.70661
1.76385
1.82744
1.89913
1.97841
2.06204
2.14261
2.21467
2.27574
2.32571
2.3633
2.38511
2.39336
2.38491
2.35958
2.31609
2.26217
2.20202
2.12695
2.04094
1.95021
1.86305
1.78469
1.71488
1.65249
1.59387
1.53632
1.47627
1.40848
1.33298
1.25054
1.16223
1.07143
0.981996
0.897577
0.82126
0.755124
0.700031
0.655351
0.620384
0.593863
0.574492
0.561443
0.55243
0.546489
0.544103
0.545381
0.549559
0.554552
0.558832
0.561811
0.563478
0.563853
0.563422
0.561227
0.55709
0.551485
0.544821
0.537581
0.530263
0.523181
0.516251
0.509437
0.502851
0.496594
0.490706
0.485188
0.480005
0.475124
0.470527
0.466206
0.462152
0.458355
0.454812
0.451516
0.448457
0.445612
0.442942
0.440374
0.437809
0.435159
0.43239
0.429565
0.426811
0.42419
0.421811
0.419785
0.417972
0.416313
0.414775
0.413343
0.411974
0.410685
0.409484
0.408367
0.40733
0.406369
0.405482
0.404666
0.403922
0.40325
0.40265
0.402117
0.401641
0.401204
0.400776
0.40037
0.399988
0.399626
0.399279
0.398942
0.398613
0.39829
0.397971
0.397658
0.397349
0.397048
0.396754
0.396468
0.396186
0.395903
0.395615
0.395316
0.395004
0.394676
0.394331
0.393971
0.393594
0.393195
0.392761
0.39228
0.391734
0.391104
0.390283
0.389284
0.388177
0.386933
0.0213611
0.12722
0.221827
0.291992
0.34921
0.397305
0.438277
0.473692
0.504856
0.532896
0.558793
0.583395
0.607388
0.631226
0.65505
0.67871
0.701826
0.723765
0.743416
0.760508
0.774856
0.786756
0.796693
0.805718
0.814272
0.822606
0.83242
0.845672
0.864564
0.893054
0.932473
0.980804
1.03746
1.10045
1.16601
1.23043
1.2921
1.34493
1.38368
1.41883
1.43594
1.43151
1.40814
1.39029
1.39235
1.41587
1.45926
1.52773
1.61759
1.70195
1.78616
1.85539
1.90208
1.93928
1.99268
2.05884
2.12613
2.17139
2.20751
2.22
2.20916
2.1763
2.12464
2.06492
2.00395
1.93635
1.86728
1.80163
1.74324
1.69183
1.64534
1.60189
1.55311
1.4917
1.41431
1.32383
1.22493
1.12019
1.01525
0.916029
0.827409
0.752314
0.691486
0.64379
0.607288
0.580023
0.560213
0.546772
0.53803
0.532269
0.529247
0.529412
0.534022
0.541554
0.550064
0.557846
0.563999
0.568385
0.570981
0.571977
0.572166
0.571109
0.568129
0.563644
0.558106
0.551777
0.544881
0.537904
0.531068
0.524497
0.518245
0.512204
0.506377
0.500814
0.495553
0.490608
0.485986
0.481682
0.477675
0.473934
0.470423
0.467099
0.463893
0.460719
0.457495
0.454192
0.450826
0.447434
0.444117
0.440964
0.438002
0.435239
0.432651
0.430261
0.428193
0.426339
0.424635
0.423055
0.421583
0.42021
0.41893
0.417738
0.416633
0.415612
0.414672
0.41381
0.413016
0.412276
0.411571
0.410906
0.410274
0.409667
0.409075
0.408493
0.407917
0.407347
0.406784
0.406229
0.405686
0.405159
0.40465
0.404159
0.403678
0.403197
0.402708
0.402206
0.401686
0.401146
0.400588
0.400019
0.39944
0.398846
0.398224
0.397567
0.396864
0.396085
0.395039
0.393802
0.392446
0.390932
0.0339094
0.177805
0.27297
0.339066
0.391181
0.434607
0.471824
0.504303
0.533151
0.559313
0.58362
0.60679
0.629368
0.65162
0.673445
0.694457
0.71421
0.732376
0.74855
0.763101
0.776176
0.787878
0.798414
0.808503
0.819164
0.831868
0.848727
0.8737
0.909992
0.956257
1.01024
1.07214
1.13933
1.20701
1.26696
1.31431
1.34682
1.36173
1.35697
1.31673
1.24637
1.18082
1.14812
1.15731
1.18724
1.22046
1.24511
1.26645
1.30278