/*--------------------------------*- C++ -*----------------------------------*\
| =========                 |                                                 |
| \\      /  F ield         | OpenFOAM: The Open Source CFD Toolbox           |
|  \\    /   O peration     | Version:  2112                                  |
|   \\  /    A nd           | Website:  www.openfoam.com                      |
|    \\/     M anipulation  |                                                 |
\*---------------------------------------------------------------------------*/
FoamFile
{
    version     2.0;
    format      ascii;
    arch        "LSB;label=32;scalar=64";
    class       volScalarField;
    location    "0.15";
    object      p;
}
// * * * * * * * * * * * * * * * * * * * * * * * * * * * * * * * * * * * * * //

dimensions      [0 2 -2 0 0 0 0];

internalField   nonuniform List<scalar> 
122250
(
2.23377
1.35029
0.745255
0.368159
0.0170699
-0.361508
-0.780862
-1.26247
-1.81128
-2.43474
-3.13663
-3.94969
-4.87558
-5.99233
-7.28129
-8.9478
-10.9118
-13.6684
2.19084
1.38964
0.773769
0.377064
0.02312
-0.355527
-0.77525
-1.25668
-1.80471
-2.42507
-3.12679
-3.92889
-4.85645
-5.93737
-7.23926
-8.78254
-10.7052
-12.7778
1.96704
1.34397
0.774753
0.376224
0.0275384
-0.343533
-0.756734
-1.23194
-1.77096
-2.38092
-3.06753
-3.85802
-4.76279
-5.82125
-7.05459
-8.50621
-10.1694
-11.942
1.81333
1.33022
0.81049
0.404829
0.0504947
-0.315735
-0.720922
-1.19083
-1.72352
-2.32335
-2.99892
-3.76664
-4.64574
-5.65544
-6.81639
-8.13511
-9.5919
-11.0992
1.67701
1.29561
0.826484
0.421856
0.0630679
-0.296642
-0.693962
-1.14686
-1.66728
-2.25311
-2.9091
-3.64938
-4.48975
-5.44122
-6.51343
-7.69864
-8.96807
-10.2453
1.55942
1.25541
0.841038
0.450804
0.0915109
-0.260844
-0.64717
-1.08793
-1.59385
-2.1614
-2.79313
-3.49983
-4.2926
-5.17724
-6.15351
-7.20712
-8.3042
-9.38505
1.46108
1.2164
0.854875
0.484091
0.12411
-0.219519
-0.59392
-1.01903
-1.50555
-2.04992
-2.65212
-3.31886
-4.05686
-4.86732
-5.74358
-6.66756
-7.60642
-8.51443
1.38185
1.18211
0.867509
0.520126
0.166163
-0.165301
-0.527389
-0.934532
-1.39782
-1.91432
-2.48168
-3.10261
-3.77981
-4.51068
-5.28501
-6.08328
-6.87637
-7.62761
1.32103
1.15538
0.881671
0.559191
0.220935
-0.0963369
-0.446834
-0.833838
-1.27013
-1.75386
-2.28112
-2.85103
-3.46262
-4.11051
-4.78288
-5.46044
-6.11787
-6.72498
1.27839
1.13914
0.900883
0.606825
0.296138
-0.0175574
-0.350422
-0.714653
-1.12051
-1.56696
-2.04932
-2.56374
-3.10624
-3.66954
-4.24142
-4.80377
-5.33477
-5.80953
1.25412
1.13575
0.927748
0.661668
0.371174
0.0731708
-0.235762
-0.574959
-0.947422
-1.35264
-1.7859
-2.24133
-2.71264
-3.19132
-3.66545
-4.11873
-4.53258
-4.88666
1.24862
1.14612
0.961951
0.720382
0.453712
0.169436
-0.111505
-0.426811
-0.766274
-1.13066
-1.51594
-1.91507
-2.32035
-2.72273
-3.11099
-3.47072
-3.78611
-4.04036
1.263
1.16912
1.00586
0.787076
0.542351
0.280339
0.0219724
-0.263044
-0.567988
-0.889822
-1.22584
-1.56812
-1.90818
-2.23688
-2.5439
-2.81684
-3.04241
-3.20684
1.29333
1.21488
1.07066
0.877088
0.660594
0.431301
0.193894
-0.052803
-0.317398
-0.588631
-0.867573
-1.14476
-1.41181
-1.66
-1.88032
-2.06265
-2.19633
-2.27052
1.35389
1.28803
1.16552
0.999314
0.815176
0.624346
0.433444
0.206661
-0.00473915
-0.214393
-0.431107
-0.636322
-0.824442
-0.987693
-1.11894
-1.21075
-1.25518
-1.24358
1.45622
1.40262
1.30155
1.16438
1.0163
0.864758
0.706847
0.539563
0.36497
0.223954
0.0871591
-0.0399665
-0.147149
-0.224987
-0.269245
-0.275905
-0.240119
-0.156659
1.6127
1.57093
1.4922
1.38692
1.27791
1.16983
1.0589
0.949558
0.848577
0.765218
0.690398
0.627309
0.577307
0.574293
0.609825
0.678193
0.779794
0.917974
1.83745
1.80592
1.74878
1.67639
1.60738
1.54384
1.48297
1.43017
1.39218
1.37196
1.37015
1.38894
1.43411
1.50581
1.60671
1.73666
1.89643
2.08687
2.14092
2.11582
2.07772
2.03726
2.00631
1.98435
1.97097
1.97187
1.99178
2.03192
2.09282
2.17554
2.28124
2.41035
2.56324
2.73964
2.93911
3.16053
2.44477
2.41965
2.38984
2.36737
2.35791
2.36006
2.37626
2.41182
2.46858
2.54584
2.64352
2.76196
2.90101
3.06008
3.2387
3.43602
3.65079
3.88118
2.68964
2.66112
2.63006
2.61159
2.60948
2.62251
2.6544
2.70946
2.78699
2.88472
3.00223
3.13958
3.29595
3.47005
3.66086
3.86707
4.08699
4.31856
2.90729
2.87178
2.83051
2.80518
2.80222
2.82047
2.86217
2.92921
3.01903
3.12872
3.25797
3.40666
3.57328
3.75585
3.95289
4.16282
4.38376
4.61354
3.10419
3.05671
2.99633
2.955
2.94557
2.96658
3.0154
3.08993
3.18669
3.30319
3.43923
3.59436
3.76658
3.95361
4.1537
4.365
4.5854
4.81268
3.28838
3.22081
3.13062
3.06606
3.04861
3.07281
3.12702
3.20502
3.30473
3.42528
3.56594
3.72517
3.90066
4.09013
4.29168
4.50322
4.72248
4.94729
3.46776
3.36681
3.2346
3.14288
3.11969
3.14891
3.20742
3.28596
3.38576
3.50828
3.65184
3.81356
3.991
4.18208
4.38473
4.59654
4.81516
5.03828
3.64979
3.49541
3.30918
3.19224
3.1675
3.20245
3.26313
3.33985
3.43828
3.5618
3.70725
3.87036
4.04874
4.24058
4.44363
4.65522
4.87322
5.09568
3.83971
3.60363
3.35727
3.22441
3.2057
3.24619
3.30628
3.37958
3.47588
3.59939
3.74556
3.90917
4.08814
4.28075
4.48441
4.69572
4.91241
5.13343
4.03594
3.67182
3.35985
3.22535
3.21959
3.26534
3.32496
3.3965
3.49182
3.61531
3.76171
3.92576
4.10561
4.29962
4.50484
4.71715
4.93366
5.15121
4.30498
3.75455
3.37869
3.24515
3.24353
3.2871
3.34383
3.41345
3.50652
3.62688
3.77004
3.93176
4.11095
4.30532
4.51207
4.72557
4.94425
5.15665
4.38488
3.73805
3.3613
3.24684
3.25285
3.29931
3.35877
3.43027
3.52403
3.64412
3.78622
3.9474
4.12622
4.32169
4.52846
4.74532
4.96692
5.19813
2.26756
1.4356
0.860622
0.48109
0.146271
-0.210581
-0.615473
-1.08536
-1.62703
-2.251
-2.96282
-3.80284
-4.77963
-5.99517
-7.43795
-9.40539
-11.8108
-15.4638
2.21724
1.46783
0.884687
0.491669
0.151571
-0.20546
-0.610619
-1.07939
-1.61964
-2.23978
-2.95122
-3.77756
-4.75647
-5.92785
-7.38582
-9.18635
-11.5334
-14.1565
2.00586
1.42429
0.88526
0.493099
0.155907
-0.194266
-0.592741
-1.05405
-1.58426
-2.19227
-2.88631
-3.69986
-4.6497
-5.79315
-7.16338
-8.83896
-10.8218
-12.991
1.8604
1.41157
0.921373
0.525066
0.182222
-0.164871
-0.556267
-1.01107
-1.53503
-2.13145
-2.8134
-3.60044
-4.52027
-5.60319
-6.88253
-8.37918
-10.0765
-11.8572
1.73126
1.37742
0.935671
0.542434
0.196109
-0.147403
-0.525485
-0.966488
-1.47715
-2.05823
-2.71772
-3.47357
-4.34779
-5.35998
-6.5274
-7.84814
-9.28899
-10.7425
1.62002
1.33861
0.950039
0.575067
0.231694
-0.109399
-0.477953
-0.905172
-1.40025
-1.96139
-2.5936
-3.31116
-4.12961
-5.0607
-6.10792
-7.25769
-8.46698
-9.65029
1.52737
1.30178
0.964263
0.61052
0.271746
-0.0673928
-0.425056
-0.834872
-1.30866
-1.84429
-2.44342
-3.11546
-3.86996
-4.71166
-5.63492
-6.61895
-7.6207
-8.57436
1.45324
1.27007
0.977514
0.648425
0.323404
-0.0123337
-0.357314
-0.747681
-1.19616
-1.70122
-2.26148
-2.88133
-3.56508
-4.31171
-5.11027
-5.9369
-6.75262
-7.50522
1.39694
1.2461
0.993039
0.691321
0.383164
0.0540248
-0.27485
-0.643669
-1.06304
-1.53222
-2.04789
-2.6099
-3.21785
-3.86644
-4.54202
-5.22056
-5.86793
-6.44223
1.35838
1.23286
1.01401
0.739877
0.443564
0.137679
-0.175266
-0.520233
-0.906977
-1.33546
-1.80136
-2.30086
-2.82969
-3.37962
-3.93598
-4.47615
-4.97094
-5.38679
1.33789
1.23271
1.04291
0.79602
0.523789
0.239439
-0.0570491
-0.375425
-0.726482
-1.11024
-1.52206
-1.95569
-2.40384
-2.85643
-3.29885
-3.7108
-4.06781
-4.34323
1.33601
1.24619
1.07946
0.856684
0.605952
0.349866
0.0684022
-0.221765
-0.537652
-0.877566
-1.23682
-1.6081
-1.9823
-2.34843
-2.69256
-2.99683
-3.2408
-3.40303
1.35191
1.27222
1.12594
0.926184
0.700708
0.470249
0.213105
-0.0511531
-0.33047
-0.625334
-0.930794
-1.23954
-1.54147
-1.82522
-2.07779
-2.28386
-2.42664
-2.48916
1.38572
1.31996
1.19426
1.0198
0.822775
0.61899
0.401295
0.166794
-0.0681751
-0.310618
-0.553554
-0.79136
-1.01344
-1.20855
-1.36503
-1.47029
-1.51139
-1.4761
1.45004
1.39776
1.29374
1.14703
0.983062
0.812395
0.626374
0.451236
0.261387
0.0755271
-0.0951557
-0.254991
-0.391814
-0.495119
-0.554706
-0.560767
-0.50417
-0.377676
1.55645
1.51736
1.43551
1.31872
1.19182
1.06302
0.92903
0.797572
0.682642
0.55786
0.453441
0.373745
0.323903
0.311123
0.344311
0.430759
0.576635
0.786334
1.71809
1.69145
1.63226
1.54772
1.46088
1.37744
1.29429
1.21691
1.15467
1.11006
1.09309
1.10623
1.15734
1.23281
1.34869
1.51498
1.73665
2.01537
1.94812
1.93248
1.89615
1.8459
1.80048
1.7633
1.73233
1.71362
1.71496
1.74015
1.7914
1.87151
1.98258
2.13058
2.31736
2.54529
2.81573
3.12831
2.25733
2.24981
2.2344
2.21697
2.21008
2.21551
2.23364
2.27036
2.33107
2.41774
2.53136
2.67315
2.84433
3.04595
3.27881
3.54305
3.83814
4.16241
2.5654
2.55801
2.55121
2.55285
2.56885
2.59959
2.6485
2.72109
2.8195
2.94354
3.09348
3.26979
3.47242
3.70097
3.955
4.23351
4.53512
4.85758
2.81135
2.8003
2.79313
2.80066
2.82557
2.86794
2.93301
3.02559
3.14503
3.28932
3.45838
3.65245
3.87066
4.11172
4.37451
4.6575
4.95876
5.27582
3.02819
3.01022
2.99353
2.99566
3.02121
3.06974
3.14512
3.25002
3.3819
3.53802
3.71833
3.92276
4.14969
4.39711
4.66349
4.94699
5.24531
5.55587
3.22235
3.19274
3.1581
3.14584
3.16629
3.21846
3.30164
3.41461
3.55371
3.71643
3.90286
4.11275
4.34411
4.59452
4.8621
5.14469
5.43974
5.74452
3.40171
3.35304
3.29062
3.25698
3.27055
3.32656
3.41568
3.53268
3.67512
3.84188
4.03258
4.24608
4.48
4.73182
4.99951
5.28073
5.57272
5.87264
3.5741
3.4943
3.39287
3.33376
3.3424
3.40423
3.49842
3.61643
3.75906
3.92763
4.12098
4.33673
4.57233
4.82538
5.09358
5.37426
5.66443
5.96106
3.74672
3.61774
3.46638
3.38334
3.3906
3.45879
3.5559
3.67248
3.81385
3.98342
4.17857
4.39549
4.63176
4.88526
5.15352
5.43356
5.72259
6.01778
3.92467
3.72124
3.51454
3.41632
3.4299
3.50468
3.60206
3.71543
3.85458
4.02409
4.21996
4.43744
4.67431
4.92861
5.1974
5.47713
5.76477
6.05846
4.10685
3.78642
3.51855
3.41816
3.44425
3.52469
3.62201
3.7337
3.87184
4.04143
4.23771
4.45585
4.69384
4.94975
5.22024
5.5012
5.78898
6.08001
4.35234
3.86265
3.53707
3.43905
3.47016
3.54878
3.64336
3.7531
3.88908
4.05562
4.24881
4.46486
4.70246
4.95895
5.23109
5.51349
5.80386
6.091
4.43517
3.85334
3.5246
3.4434
3.48115
3.56298
3.66007
3.77141
3.90775
4.07356
4.26531
4.48052
4.7176
4.97512
5.24737
5.53313
5.82654
6.13226
2.34597
1.52845
0.964437
0.592933
0.264157
-0.0945667
-0.501865
-0.977273
-1.52936
-2.16768
-2.89831
-3.76138
-4.76424
-6.01429
-7.49328
-9.49672
-11.9606
-15.6613
2.2953
1.5603
0.988428
0.602058
0.269543
-0.0889635
-0.496305
-0.970165
-1.52032
-2.15453
-2.88415
-3.73277
-4.7377
-5.94205
-7.4369
-9.26978
-11.6699
-14.3539
2.08444
1.51691
0.989307
0.603169
0.274215
-0.0771487
-0.477721
-0.94407
-1.48384
-2.10539
-2.8168
-3.65243
-4.62678
-5.79996
-7.20357
-8.90965
-10.9321
-13.142
1.93966
1.50428
1.02579
0.635931
0.300821
-0.0469787
-0.440136
-0.899285
-1.43186
-2.04126
-2.73951
-3.5471
-4.48934
-5.5982
-6.9068
-8.42899
-10.1504
-11.9473
1.81138
1.47028
1.04051
0.654659
0.315309
-0.0283291
-0.407376
-0.852482
-1.37081
-1.96379
-2.63822
-3.41243
-4.30662
-5.34069
-6.53136
-7.87003
-9.32063
-10.7692
1.7012
1.43194
1.0555
0.688552
0.351025
0.0110854
-0.357977
-0.78831
-1.28982
-1.86143
-2.50682
-3.24005
-4.07534
-5.02338
-6.08637
-7.24545
-8.45207
-9.61427
1.6098
1.39577
1.07046
0.725537
0.391092
0.0553606
-0.302325
-0.71421
-1.19305
-1.73736
-2.34752
-3.03223
-3.79975
-4.65277
-5.58401
-6.56844
-7.55686
-8.47758
1.53707
1.36495
1.08477
0.764977
0.441652
0.113427
-0.231121
-0.622409
-1.07429
-1.58579
-2.15448
-2.78359
-3.47591
-4.22814
-5.02705
-5.84523
-6.63844
-7.34954
1.48241
1.34223
1.10165
0.809519
0.501568
0.185075
-0.144301
-0.5127
-0.933581
-1.40656
-1.92769
-2.49515
-3.10693
-3.75538
-4.42427
-5.08647
-5.70376
-6.23025
1.44571
1.33055
1.1242
0.859983
0.570338
0.272443
-0.0394327
-0.382528
-0.768606
-1.198
-1.66588
-2.1667
-2.69437
-3.23842
-3.78157
-4.29851
-4.75687
-5.12005
1.4272
1.33222
1.15449
0.918437
0.652111
0.376562
0.0852116
-0.229823
-0.577822
-0.959339
-1.36925
-1.79977
-2.24166
-2.6827
-3.10591
-3.48859
-3.80386
-4.02294
1.42766
1.34787
1.19333
0.981588
0.739821
0.487521
0.21873
-0.0677647
-0.378202
-0.71283
-1.06633
-1.43025
-1.79347
-2.14301
-2.46281
-2.73302
-2.9313
-3.03475
1.44489
1.37603
1.24228
1.05421
0.838116
0.610491
0.368317
0.112053
-0.159318
-0.445637
-0.741559
-1.03844
-1.32472
-1.58703
-1.8106
-1.97841
-2.07227
-2.07422
1.48143
1.42647
1.31405
1.15208
0.965727
0.768121
0.559754
0.342205
0.117598
-0.112278
-0.341637
-0.562447
-0.76332
-0.93163
-1.05426
-1.11722
-1.10666
-1.00957
1.54926
1.50817
1.41787
1.28428
1.13229
0.972262
0.80104
0.633223
0.464287
0.298089
0.143337
0.0061778
-0.103258
-0.17389
-0.194581
-0.154794
-0.0448535
0.143484
1.65981
1.63247
1.56539
1.46324
1.35005
1.23396
1.11279
0.994213
0.88976
0.794568
0.718781
0.669731
0.654379
0.680448
0.756938
0.89144
1.09015
1.35724
1.82664
1.81242
1.76928
1.70104
1.62978
1.5615
1.49407
1.43436
1.39236
1.37023
1.37483
1.41455
1.49394
1.6109
1.77359
1.98842
2.25918
2.58641
2.06283
2.06037
2.04146
2.0091
1.98122
1.9617
1.94959
1.9515
1.97565
2.02647
2.10749
2.22183
2.3716
2.56016
2.7906
3.06468
3.38376
3.74675
2.37891
2.38534
2.38877
2.39149
2.40474
2.43061
2.47041
2.53052
2.61649
2.73059
2.87454
3.0503
3.25882
3.50076
3.77701
4.08752
4.43125
4.80576
2.69161
2.69936
2.71365
2.73732
2.77492
2.82758
2.89977
2.9975
3.12284
3.27565
3.45639
3.66585
3.90464
4.17231
4.46806
4.79051
5.13801
5.50778
2.94092
2.94566
2.95998
2.99049
3.03834
3.1039
3.1934
3.31222
3.45964
3.63353
3.83388
4.06097
4.31422
4.59297
4.89602
5.22128
5.56638
5.92851
3.15944
3.15771
3.16367
3.19017
3.23956
3.31188
3.41238
3.54423
3.70471
3.8909
4.10277
4.34023
4.60162
4.8853
5.19046
5.51478
5.85532
6.20907
3.35428
3.34173
3.3308
3.34373
3.38856
3.46493
3.57361
3.71393
3.88203
4.07517
4.29342
4.53644
4.80201
5.08784
5.39289
5.71502
6.05098
6.39751
3.53356
3.50293
3.4652
3.45734
3.49563
3.57618
3.69118
3.83594
4.00772
4.20513
4.42775
4.67432
4.94226
5.22904
5.53308
5.85272
6.18464
6.5253
3.70529
3.64477
3.56907
3.53608
3.56951
3.656
3.77626
3.92226
4.09453
4.294
4.51942
4.76829
5.03788
5.32561
5.62947
5.94773
6.27708
6.61371
3.87689
3.76866
3.64401
3.58717
3.61908
3.71193
3.83525
3.98004
4.15128
4.35189
4.57915
4.82924
5.0995
5.38756
5.69115
6.00827
6.33599
6.67065
4.05376
3.87265
3.69321
3.62101
3.65917
3.75876
3.88247
4.02417
4.19333
4.39403
4.62215
4.87291
5.14386
5.43267
5.73661
6.0531
6.37909
6.71184
4.23487
3.93847
3.69822
3.62356
3.67411
3.77945
3.90317
4.04324
4.21149
4.41237
4.64102
4.89255
5.16466
5.45509
5.76068
6.07829
6.40423
6.73409
4.47957
4.01484
3.71685
3.64448
3.7002
3.8039
3.92496
4.06308
4.22916
4.42713
4.65295
4.90265
5.17452
5.46557
5.77279
6.09177
6.42013
6.74594
4.56309
4.00702
3.70561
3.6497
3.71205
3.8191
3.94265
4.08231
4.24869
4.44592
4.67035
4.91934
5.19083
5.48302
5.79048
6.1129
6.44429
6.78864
2.39822
1.58462
1.02282
0.653512
0.318306
-0.0528911
-0.477485
-0.976158
-1.55393
-2.2229
-2.98954
-3.89643
-4.94998
-6.25702
-7.80356
-9.8774
-12.4189
-16.1803
2.34764
1.61655
1.04691
0.662496
0.323656
-0.047054
-0.471181
-0.968489
-1.54407
-2.20873
-2.97438
-3.86583
-4.92183
-6.18287
-7.74413
-9.64976
-12.1234
-14.9008
2.13689
1.57328
1.04803
0.663527
0.32837
-0.0347752
-0.451124
-0.94162
-1.50662
-2.15789
-2.9048
-3.78338
-4.80816
-6.03699
-7.50551
-9.28235
-11.3806
-13.6742
1.99235
1.56088
1.08482
0.696089
0.355008
-0.00393702
-0.410994
-0.895335
-1.45299
-2.09131
-2.82467
-3.67423
-4.66551
-5.82934
-7.19989
-8.79088
-10.584
-12.456
1.86437
1.52721
1.10008
0.714661
0.369455
0.0151494
-0.384705
-0.847419
-1.38985
-2.01087
-2.71951
-3.53427
-4.47605
-5.56343
-6.81315
-8.21635
-9.7332
-11.2481
1.75462
1.48929
1.11568
0.7489
0.405726
0.0560684
-0.331607
-0.780841
-1.30589
-1.90463
-2.583
-3.35524
-4.23605
-5.23509
-6.3536
-7.57198
-8.83876
-10.0589
1.66378
1.45377
1.13147
0.786392
0.446011
0.102087
-0.272375
-0.703568
-1.20538
-1.77582
-2.41744
-3.13929
-3.94978
-4.85082
-5.8336
-6.87203
-7.91447
-8.88595
1.59168
1.42364
1.14675
0.826753
0.49751
0.162799
-0.197265
-0.607707
-1.08195
-1.61857
-2.21693
-2.88089
-3.61319
-4.40982
-5.25609
-6.12317
-6.96466
-7.72063
1.53781
1.40184
1.16514
0.872622
0.559307
0.237583
-0.106317
-0.493297
-0.93561
-1.43275
-1.98143
-2.58113
-3.22958
-3.9185
-4.63036
-5.3365
-5.99692
-6.56374
1.50201
1.39119
1.19023
0.924989
0.632041
0.327861
0.00315137
-0.357386
-0.763885
-1.21626
-1.70969
-2.23992
-2.8008
-3.38122
-3.96293
-4.5192
-5.01633
-5.41647
1.48465
1.39398
1.2185
0.985436
0.717492
0.43469
0.132915
-0.198101
-0.56528
-0.968393
-1.40196
-1.85899
-2.33053
-2.80392
-3.26149
-3.67938
-4.02978
-4.28328
1.48612
1.41098
1.26023
1.05097
0.807793
0.548597
0.271674
-0.0293017
-0.357606
-0.712271
-1.08788
-1.47572
-1.86542
-2.24388
-2.59446
-2.89657
-3.12721
-3.26324
1.50506
1.4408
1.31147
1.12614
0.909199
0.675903
0.426364
0.157757
-0.12988
-0.434589
-0.75095
-1.06974
-1.37951
-1.66752
-1.91863
-2.11547
-2.23936
-2.27242
1.54329
1.49333
1.3859
1.22704
1.0409
0.840699
0.625058
0.396729
0.157963
-0.0881607
-0.336004
-0.576502
-0.798247
-0.989102
-1.13601
-1.2253
-1.24269
-1.17525
1.61338
1.57755
1.49304
1.36362
1.21306
1.05155
0.877879
0.698828
0.517536
0.338509
0.167238
0.0125323
-0.115177
-0.205442
-0.247832
-0.232138
-0.148482
0.0115947
1.72688
1.70535
1.64501
1.54802
1.43741
1.32127
1.19841
1.07574
0.958579
0.853417
0.76452
0.699556
0.667754
0.676854
0.73434
0.846874
1.02045
1.25954
1.89757
1.88968
1.85428
1.79252
1.72531
1.65895
1.59209
1.53158
1.48553
1.45754
1.45237
1.4755
1.5356
1.63689
1.78327
1.97857
2.22567
2.52579
2.13842
2.14298
2.13272
2.10818
2.08625
2.07068
2.06154
2.06571
2.09067
2.13954
2.21485
2.32051
2.46034
2.63704
2.85335
3.11124
3.41086
3.75131
2.45972
2.47405
2.48709
2.49918
2.52006
2.55209
2.59725
2.66233
2.75255
2.86968
3.01443
3.18741
3.38994
3.62327
3.88835
4.18509
4.51291
4.86988
2.77658
2.79289
2.81809
2.85228
2.89864
2.95883
3.03792
3.14231
3.2738
3.43193
3.61674
3.82818
4.06524
4.32734
4.61463
4.92643
5.26117
5.61641
3.02875
3.04257
3.06842
3.11023
3.16746
3.2414
3.33891
3.46536
3.61996
3.8004
4.0064
4.23774
4.49281
4.76931
5.06628
5.38274
5.717
6.06639
3.24937
3.2571
3.27514
3.3134
3.37267
3.4539
3.56305
3.70315
3.87154
4.06507
4.28354
4.52648
4.79168
5.07623
5.3777
5.69476
6.0258
6.36828
3.44573
3.44294
3.44445
3.46951
3.52458
3.61018
3.72786
3.87687
4.05333
4.2543
4.47976
4.72907
4.99962
5.2882
5.59179
5.90822
6.23574
6.572
3.62606
3.60545
3.58046
3.58497
3.63371
3.72365
3.84789
4.0017
4.18221
4.38774
4.61786
4.87112
5.14459
5.43508
5.73962
6.05505
6.37933
6.71039
3.79849
3.74825
3.6855
3.66503
3.70902
3.80493
3.93448
4.08978
4.2711
4.47896
4.71211
4.96798
5.24349
5.53558
5.84105
6.15618
6.4785
6.80595
3.97052
3.87286
3.76127
3.71699
3.75953
3.86183
3.9945
4.14873
4.32922
4.53833
4.7734
5.03065
5.3071
5.59989
5.90569
6.22043
6.54165
6.86747
4.14768
3.97737
3.811
3.75133
3.80017
3.90923
4.04228
4.1935
4.37207
4.58142
4.81748
5.07556
5.35284
5.64653
5.95291
6.26739
6.58719
6.91132
4.32896
4.0436
3.81638
3.75419
3.81547
3.93031
4.06335
4.21296
4.39069
4.60032
4.837
5.09593
5.37443
5.66975
5.97784
6.29361
6.61357
6.93497
4.57376
4.12019
3.83513
3.77521
3.84172
3.95496
4.0853
4.23289
4.40843
4.61524
4.84927
5.10651
5.38481
5.68066
5.9902
6.30727
6.62978
6.94728
4.65737
4.1126
3.82405
3.78053
3.85367
3.97027
4.10306
4.25213
4.4279
4.63398
4.8667
5.12332
5.40128
5.69822
6.00779
6.32813
6.65364
6.98967
2.39486
1.57982
1.01669
0.645788
0.304504
-0.074225
-0.509644
-1.02186
-1.61703
-2.30889
-3.10485
-4.05
-5.15464
-6.5319
-8.1718
-10.3991
-13.1364
-17.2969
2.34435
1.6118
1.04071
0.654437
0.309669
-0.0684996
-0.503379
-1.01405
-1.60697
-2.29417
-3.08915
-4.01861
-5.12557
-6.45529
-8.11019
-10.1558
-12.8268
-15.8759
2.13367
1.56858
1.04176
0.655055
0.314148
-0.0563806
-0.483491
-0.986988
-1.56951
-2.24321
-3.01903
-3.93518
-5.00964
-6.30646
-7.86499
-9.77213
-12.0437
-14.5634
1.98922
1.55627
1.07856
0.687241
0.340413
-0.025753
-0.444425
-0.940145
-1.51508
-2.17549
-2.93773
-3.82453
-4.86427
-6.09384
-7.55085
-9.25962
-11.2075
-13.2721
1.86136
1.5227
1.09377
0.705529
0.354727
-0.00634728
-0.414286
-0.89219
-1.45137
-2.09418
-2.83117
-3.68253
-4.67141
-5.82175
-7.15293
-8.66278
-10.316
-11.9944
1.75172
1.48496
1.10948
0.739387
0.391036
0.0350103
-0.362128
-0.825073
-1.3666
-1.98677
-2.69272
-3.50075
-4.42707
-5.48537
-6.67995
-7.99447
-9.38009
-10.7384
1.661
1.44956
1.12535
0.776707
0.431255
0.0809764
-0.302825
-0.746983
-1.26507
-1.85649
-2.52495
-3.28141
-4.13545
-5.09196
-6.1447
-7.26927
-8.41461
-9.50299
1.5891
1.41964
1.14071
0.817021
0.482768
0.141602
-0.227567
-0.650394
-1.14047
-1.69748
-2.32177
-3.01878
-3.79248
-4.64066
-5.5505
-6.49393
-7.42445
-8.27933
1.53539
1.398
1.1589
0.863084
0.545187
0.216632
-0.136182
-0.535037
-0.992694
-1.50942
-2.08307
-2.71412
-3.40159
-4.13804
-4.90723
-5.68089
-6.41829
-7.06907
1.49978
1.38758
1.18319
0.915745
0.618516
0.307046
-0.0263469
-0.398246
-0.819424
-1.29049
-1.8077
-2.36748
-2.96466
-3.58866
-4.22194
-4.83776
-5.40147
-5.87316
1.48259
1.39068
1.21442
0.976778
0.70422
0.414363
0.104007
-0.237959
-0.619137
-1.03997
-1.49591
-1.98059
-2.48553
-2.99841
-3.50253
-3.97294
-4.38115
-4.69611
1.48435
1.40795
1.25539
1.04267
0.794977
0.528932
0.243337
-0.0682085
-0.409814
-0.781272
-1.17779
-1.59146
-2.01204
-2.42682
-2.81913
-3.16826
-3.44998
-3.63998
1.50394
1.43814
1.3068
1.11828
0.896739
0.656933
0.398716
0.119834
-0.180471
-0.500965
-0.836823
-1.17943
-1.51772
-1.83888
-2.12766
-2.36646
-2.53547
-2.61638
1.5425
1.49114
1.38172
1.22006
1.02943
0.82243
0.598656
0.360208
0.109274
-0.151499
-0.417302
-0.67947
-0.926915
-1.14752
-1.32807
-1.45432
-1.51132
-1.48548
1.61324
1.57625
1.48959
1.35737
1.20244
1.03469
0.853604
0.664295
0.471182
0.278456
0.0909135
-0.0832791
-0.2339
-0.350441
-0.422236
-0.438691
-0.389395
-0.265251
1.72775
1.70497
1.6423
1.5427
1.42815
1.30592
1.17535
1.04284
0.915171
0.797183
0.693503
0.611157
0.558946
0.544989
0.576973
0.661772
0.805874
1.01437
1.89941
1.89057
1.85271
1.78796
1.71716
1.64531
1.57118
1.50177
1.445
1.40538
1.38707
1.39522
1.43693
1.51762
1.64186
1.81333
2.03526
2.30951
2.14125
2.14525
2.13314
2.10599
2.08024
2.05979
2.0439
2.03958
2.0542
2.09147
2.15432
2.24602
2.37024
2.52991
2.72765
2.96514
3.24326
3.56145
2.46382
2.47821
2.49053
2.49966
2.51622
2.54292
2.58188
2.63927
2.71999
2.82589
2.9583
3.11858
3.30776
3.52652
3.77561
4.05506
4.36443
4.70189
2.78223
2.79862
2.82206
2.85335
2.89583
2.95107
3.02465
3.12196
3.2445
3.39186
3.56449
3.76286
3.98668
4.23525
4.50822
4.80464
5.12309
5.46113
3.03466
3.04887
3.07447
3.11355
3.1665
3.23498
3.32677
3.44654
3.59256
3.76258
3.95669
4.17503
4.41644
4.6793
4.96251
5.26467
5.58394
5.91766
3.25578
3.26414
3.28201
3.31753
3.37256
3.44843
3.5518
3.68551
3.84556
4.02894
4.23574
4.46584
4.71725
4.98758
5.27521
5.57848
5.89531
6.22304
3.45256
3.45028
3.45165
3.47421
3.5252
3.60544
3.71729
3.85997
4.02826
4.21924
4.4332
4.66982
4.92663
5.20073
5.4901
5.79276
6.10646
6.42851
3.63324
3.61313
3.58804
3.59005
3.6346
3.71898
3.83729
3.98486
4.15739
4.35308
4.57181
4.81251
5.07239
5.34839
5.63823
5.9397
6.25037
6.56761
3.80585
3.75608
3.69317
3.67031
3.71018
3.80045
3.92399
4.07312
4.24662
4.44473
4.66655
4.90993
5.1719
5.44939
5.73984
6.04072
6.34945
6.66328
3.97801
3.88081
3.76899
3.72234
3.76087
3.85754
3.9841
4.13216
4.30482
4.50413
4.72784
4.97262
5.23556
5.51373
5.80434
6.10463
6.4122
6.72449
4.15523
3.9854
3.81879
3.75678
3.80157
3.90479
4.03156
4.17661
4.34747
4.54712
4.77188
5.01754
5.2813
5.56029
5.85134
6.15117
6.45719
6.76778
4.33655
4.0517
3.82415
3.75956
3.81684
3.92584
4.05254
4.19595
4.36597
4.5659
4.79131
5.03783
5.30278
5.58334
5.87598
6.17692
6.48294
6.79067
4.58138
4.12832
3.84289
3.78057
3.84306
3.95037
4.07422
4.21548
4.38327
4.58048
4.80339
5.04832
5.31305
5.59403
5.888
6.19005
6.49836
6.80194
4.66499
4.12076
3.83179
3.78583
3.85489
3.96549
4.09171
4.23437
4.40233
4.59882
4.8205
5.06492
5.32935
5.6114
5.9054
6.21065
6.52178
6.84371
2.33048
1.51357
0.949729
0.580283
0.24046
-0.135831
-0.568813
-1.07681
-1.66621
-2.34719
-3.12794
-4.05191
-5.12387
-6.46401
-8.0454
-10.1869
-12.8006
-16.7204
2.27994
1.5455
0.973573
0.588646
0.24529
-0.130464
-0.562886
-1.06956
-1.65661
-2.33333
-3.11227
-4.02256
-5.09729
-6.38784
-7.99096
-9.94693
-12.5132
-15.3832
2.0692
1.50222
0.974425
0.588901
0.249358
-0.118767
-0.543369
-1.0432
-1.62032
-2.28466
-3.04446
-3.93971
-4.9841
-6.24361
-7.75132
-9.58249
-11.7617
-14.1642
1.92464
1.48983
1.01098
0.620517
0.274877
-0.0890313
-0.505266
-0.996746
-1.56615
-2.21821
-2.96546
-3.83102
-4.84416
-6.0363
-7.44766
-9.09183
-10.9624
-12.944
1.7966
1.45611
1.02601
0.638614
0.288849
-0.0702011
-0.475057
-0.950579
-1.50387
-2.13843
-2.86161
-3.69314
-4.65695
-5.77263
-7.06284
-8.51909
-10.1098
-11.7253
1.68676
1.41821
1.04145
0.671527
0.324714
-0.0288871
-0.424094
-0.884418
-1.42071
-2.03327
-2.72667
-3.51629
-4.41924
-5.44737
-6.60546
-7.87636
-9.21188
-10.5222
1.59578
1.38252
1.05693
0.708089
0.363899
0.0157982
-0.365961
-0.807725
-1.32125
-1.90563
-2.56305
-3.30287
-4.13586
-5.06655
-6.08842
-7.17738
-8.28332
-9.33612
1.52355
1.35223
1.0718
0.747656
0.414558
0.0750577
-0.292139
-0.712798
-1.19907
-1.7499
-2.36459
-3.04733
-3.80267
-4.62908
-5.51366
-6.42912
-7.32955
-8.15904
1.4694
1.33017
1.08955
0.792725
0.47591
0.148512
-0.202489
-0.599454
-1.05405
-1.56563
-2.13129
-2.7508
-3.42279
-4.14139
-4.89056
-5.64275
-6.35794
-6.99069
1.43321
1.31916
1.11366
0.844311
0.548081
0.237311
-0.0945857
-0.464973
-0.88387
-1.351
-1.86205
-2.41287
-2.99794
-3.60799
-4.22574
-4.82564
-5.37366
-5.83276
1.41537
1.3216
1.14252
0.904046
0.631869
0.342505
0.0332693
-0.307513
-0.687126
-1.10527
-1.55688
-2.03518
-2.53163
-3.0349
-3.52693
-3.98597
-4.38373
-4.69026
1.41585
1.33787
1.18297
0.969108
0.721201
0.455302
0.170185
-0.140645
-0.481395
-0.851303
-1.24512
-1.65465
-2.06949
-2.47769
-2.8624
-3.2036
-3.47857
-3.66331
1.43582
1.36727
1.23345
1.0434
0.820929
0.580994
0.322697
0.044107
-0.255973
-0.575974
-0.910652
-1.2512
-1.5865
-1.90398
-2.18861
-2.42317
-2.58902
-2.66678
1.47299
1.41904
1.30691
1.14334
0.951183
0.743314
0.51905
0.280291
0.0288846
-0.232505
-0.4987
-0.760922
-1.00804
-1.22798
-1.40773
-1.53337
-1.59002
-1.56428
1.54224
1.50253
1.41298
1.27869
1.12185
0.952024
0.769654
0.57903
0.384628
0.190255
0.000883764
-0.175315
-0.328158
-0.447006
-0.521074
-0.539843
-0.492964
-0.371589
1.65537
1.62938
1.56308
1.46041
1.3431
1.21803
1.08467
0.950335
0.820667
0.700167
0.593564
0.507733
0.451108
0.432137
0.458965
0.538808
0.678362
0.88245
1.82467
1.81256
1.77125
1.70322
1.62867
1.55276
1.47457
1.4015
1.34106
1.2976
1.27536
1.27931
1.31521
1.38882
1.50551
1.6696
1.88492
2.15302
2.06419
2.06486
2.04827
2.0161
1.98527
1.9596
1.93864
1.92933
1.93894
1.97124
2.02911
2.11521
2.2328
2.38499
2.57447
2.80303
3.07229
3.38212
2.3836
2.39356
2.40019
2.40423
2.41531
2.43607
2.46876
2.5196
2.59339
2.69213
2.81737
2.97052
3.15254
3.36376
3.6046
3.87523
4.17538
4.5034
2.6989
2.71098
2.72949
2.75484
2.79008
2.83793
2.90418
2.99394
3.10844
3.24744
3.41162
3.60158
3.81703
4.05724
4.32178
4.60947
4.91866
5.24699
2.94991
2.95945
2.97852
3.01088
3.05668
3.11794
3.20224
3.31389
3.45113
3.61188
3.79652
4.0054
4.23744
4.49106
4.76511
5.05812
5.3682
5.69241
3.16939
3.17273
3.18433
3.21339
3.26079
3.32857
3.4238
3.54886
3.69971
3.87333
4.07007
4.29005
4.53142
4.79183
5.06968
5.36328
5.6705
5.98864
3.36527
3.35804
3.35278
3.36806
3.41097
3.48293
3.58646
3.72026
3.87904
4.05989
4.26339
4.48945
4.73577
4.99947
5.27857
5.57113
5.87485
6.18705
3.54513
3.51979
3.48787
3.48281
3.51934
3.59523
3.70495
3.84345
4.00622
4.19142
4.39927
4.62901
4.878
5.1432
5.42237
5.71336
6.01376
6.32088
3.71723
3.66213
3.59234
3.56227
3.59395
3.6754
3.79004
3.92991
4.09352
4.28097
4.4917
4.72393
4.9748
5.24124
5.52072
5.81086
6.10909
6.41261
3.88906
3.78642
3.66757
3.61366
3.64386
3.73146
3.84889
3.98765
4.15042
4.33897
4.55144
4.7849
5.03656
5.30345
5.58286
5.87218
6.16908
6.4709
4.06607
3.89068
3.7169
3.64762
3.68414
3.77821
3.89571
4.03136
4.19226
4.38104
4.59443
4.82864
5.08094
5.34843
5.62805
5.91671
6.21191
6.51193
4.24726
3.95674
3.72196
3.65013
3.69909
3.79874
3.91591
4.04981
4.20989
4.39901
4.61307
4.84812
5.10152
5.37042
5.65145
5.94105
6.23606
6.53308
4.49203
4.03324
3.74053
3.67088
3.72501
3.82288
3.93708
4.06878
4.22667
4.41312
4.62471
4.85814
5.11119
5.38031
5.66246
5.95296
6.25006
6.54265
4.57559
4.02557
3.72931
3.67602
3.73667
3.83765
3.95409
4.08711
4.24517
4.43097
4.64149
4.8745
5.12727
5.39742
5.67951
5.97311
6.27291
6.58378
2.21483
1.39474
0.828701
0.461568
0.12685
-0.241535
-0.661249
-1.14939
-1.71577
-2.3706
-3.11748
-3.99667
-5.0152
-6.27314
-7.76025
-9.75925
-12.1815
-15.8196
2.16423
1.4266
0.852325
0.469615
0.131292
-0.236664
-0.655825
-1.14243
-1.70699
-2.35732
-3.10321
-3.9698
-4.98966
-6.204
-7.70463
-9.5432
-11.9109
-14.5664
1.95338
1.38323
0.853013
0.469531
0.134809
-0.225714
-0.637127
-1.11623
-1.67213
-2.31029
-3.03763
-3.88927
-4.88143
-6.06757
-7.48196
-9.19859
-11.2194
-13.4354
1.80858
1.37063
0.889431
0.5008
0.159487
-0.197071
-0.60056
-1.06854
-1.61956
-2.24369
-2.96025
-3.78557
-4.74728
-5.87294
-7.19665
-8.73839
-10.4819
-12.3154
1.68023
1.33662
0.90425
0.518621
0.172871
-0.179819
-0.571819
-1.03437
-1.5606
-2.16819
-2.86037
-3.65393
-4.56907
-5.62332
-6.83512
-8.2023
-9.69198
-11.1975
1.56996
1.29832
0.919359
0.550881
0.208422
-0.13828
-0.523107
-0.968242
-1.48034
-2.06648
-2.73054
-3.48458
-4.34259
-5.31468
-6.40504
-7.60016
-8.85711
-10.088
1.47845
1.26215
0.934351
0.586487
0.245216
-0.0959535
-0.467236
-0.893436
-1.38469
-1.94407
-2.57329
-3.28017
-4.07267
-4.95359
-5.91752
-6.9441
-7.99003
-8.98558
1.40552
1.23116
0.948457
0.625062
0.294493
-0.0388995
-0.396096
-0.801689
-1.26726
-1.79441
-2.38267
-3.03531
-3.75477
-4.53811
-5.37395
-6.2391
-7.09408
-7.88251
1.35061
1.20819
0.964897
0.668609
0.354046
0.0321268
-0.309703
-0.692467
-1.12787
-1.61734
-2.15873
-2.75082
-3.3916
-4.07402
-4.78317
-5.49535
-6.17617
-6.78008
1.31359
1.1961
0.98694
0.718119
0.42405
0.117955
-0.205844
-0.563139
-0.964379
-1.41105
-1.89986
-2.42634
-2.9847
-3.56495
-4.15081
-4.71938
-5.24132
-5.68077
1.29471
1.19715
1.01629
0.775772
0.505752
0.220134
-0.0823621
-0.411614
-0.775353
-1.17482
-1.60649
-2.06341
-2.53719
-3.01589
-3.48339
-3.91876
-4.2968