/*--------------------------------*- C++ -*----------------------------------*\
| =========                 |                                                 |
| \\      /  F ield         | OpenFOAM: The Open Source CFD Toolbox           |
|  \\    /   O peration     | Version:  2112                                  |
|   \\  /    A nd           | Website:  www.openfoam.com                      |
|    \\/     M anipulation  |                                                 |
\*---------------------------------------------------------------------------*/
FoamFile
{
    version     2.0;
    format      ascii;
    arch        "LSB;label=32;scalar=64";
    class       volScalarField;
    location    "0.23";
    object      omega;
}
// * * * * * * * * * * * * * * * * * * * * * * * * * * * * * * * * * * * * * //

dimensions      [0 0 -1 0 0 0 0];

internalField   nonuniform List<scalar> 
12225
(
37369.2
52232.5
56790.6
57315.8
56367
54931.4
53394
51909.6
50533.5
49273.6
48114.7
47038
46030.5
45088
44203.7
43412.7
42497.6
41578.7
3619.61
7659.48
11033
13620.5
15543.5
16971.8
18060.2
18928.1
19658.1
20296.3
20865.9
21368.8
21794.7
22129.3
22357.8
22481.1
22489.1
22269
355.778
981.261
1736.4
2567.77
3414.53
4221.23
4953.39
5621.09
6246.1
6848.68
7446.34
8048.22
8653.94
9255.87
9841.05
10404.2
10943.9
11428.3
99.7142
202.537
332.111
487.176
665.004
863.702
1092.01
1336.73
1588.39
1845.6
2110.81
2387.09
2676.49
2978.4
3284.95
3604.12
3938.59
4282.98
55.5242
83.5902
116.919
155.872
199.988
249.484
306.533
369.253
435.835
505.718
579.076
656.325
737.824
825.541
929.822
1045.48
1168.43
1295
44.0458
53.9718
66.6401
80.7141
96.0257
112.723
130.853
150.226
170.664
192.065
214.419
237.766
262.147
288.012
317.624
349.774
383.405
417.378
40.8592
44.3144
49.5879
55.8658
62.8721
70.2598
77.9018
85.7492
93.9614
102.465
111.233
120.259
129.542
139.11
149.128
159.796
170.978
182.247
39.9711
41.1094
43.1013
45.8417
49.1722
52.8284
56.7276
60.7761
64.8491
68.9859
73.2208
77.5782
82.064
86.6717
91.3912
96.1132
100.82
105.409
39.7165
40.0823
40.7792
41.8297
43.211
44.8842
46.8387
49.0164
51.2556
53.5341
55.8399
58.1682
60.5172
62.8845
65.262
67.5441
69.7168
71.7644
39.6375
39.7507
39.9831
40.3558
40.874
41.5421
42.3717
43.363
44.4789
45.6722
46.8975
48.1217
49.3268
50.5051
51.6538
52.7603
53.8156
54.8084
39.611
39.6393
39.7123
39.8366
40.0186
40.2634
40.5782
40.9688
41.4327
41.9567
42.5201
43.102
43.6858
44.261
44.8212
45.3632
45.8842
46.3784
39.6021
39.6031
39.6244
39.6679
39.7358
39.8313
39.9575
40.1172
40.3113
40.5374
40.7895
41.0599
41.3406
41.625
41.9083
42.1872
42.4594
42.7204
39.598
39.5882
39.5884
39.5996
39.6217
39.6559
39.7035
39.7651
39.8415
39.9323
40.0364
40.1515
40.2753
40.405
40.5384
40.6736
40.8089
40.9413
39.5955
39.5807
39.5719
39.5694
39.5727
39.5817
39.5967
39.6179
39.6451
39.6786
39.718
39.763
39.8129
39.867
39.9246
39.9846
40.0463
40.1078
39.5938
39.5763
39.5634
39.5552
39.5511
39.5506
39.5534
39.5596
39.5691
39.5816
39.5973
39.6158
39.6371
39.6608
39.6866
39.7141
39.7427
39.7714
39.5926
39.5733
39.558
39.5468
39.5394
39.535
39.5332
39.5338
39.5367
39.5418
39.5488
39.5577
39.5682
39.5803
39.5935
39.6075
39.6221
39.6366
39.5917
39.5712
39.5543
39.5412
39.5316
39.5251
39.521
39.5189
39.5188
39.5203
39.5234
39.5277
39.5332
39.5395
39.5466
39.554
39.5617
39.5693
39.5913
39.5701
39.5522
39.5378
39.5268
39.5187
39.513
39.5093
39.5072
39.5065
39.5069
39.5083
39.5104
39.513
39.5161
39.5195
39.5229
39.5263
39.5914
39.5702
39.5521
39.5373
39.5257
39.5169
39.5105
39.506
39.5029
39.5009
39.4999
39.4995
39.4998
39.5005
39.5016
39.503
39.5046
39.5063
39.5921
39.5717
39.5545
39.5408
39.5304
39.5231
39.5185
39.5162
39.5159
39.5173
39.5202
39.5246
39.5303
39.5373
39.5455
39.555
39.5656
39.5774
39.5933
39.5748
39.5605
39.5514
39.5478
39.5501
39.5583
39.5724
39.5922
39.6176
39.6488
39.6852
39.7267
39.7728
39.8233
39.8779
39.9363
39.9978
39.5963
39.5853
39.5861
39.6029
39.6385
39.6949
39.7722
39.87
39.9885
40.1265
40.2818
40.4518
40.6349
40.8296
41.0342
41.2475
41.4677
41.6923
39.6106
39.6439
39.7321
39.8871
40.1142
40.4124
40.776
41.1985
41.6746
42.1926
42.7439
43.3225
43.9224
44.5389
45.1682
45.8069
46.4522
47.0974
39.6995
39.9817
40.4952
41.2414
42.2001
43.3407
44.6323
46.0434
47.5415
49.1061
50.7187
52.3642
54.0313
55.7131
57.4059
59.1072
60.8143
62.5159
40.22
41.668
43.8723
46.7006
50.0232
53.7313
57.736
61.965
66.3583
70.8667
75.4509
80.0819
84.7456
89.4546
94.2259
99.0651
103.97
108.92
42.9666
49.1735
57.642
67.7986
79.2783
91.8364
105.275
119.418
134.101
149.171
164.498
179.989
195.7
212.086
229.332
247.24
265.644
284.441
57.2927
84.8556
123.203
168.798
220.293
276.899
337.721
401.751
467.919
535.197
602.749
670.036
737.538
808.643
884.612
963.883
1045.25
1128
158.69
337.052
598.705
904.883
1238.03
1585.13
1934.57
2276.98
2605.58
2916.34
3207.93
3481.27
3738.38
3980.37
4210.85
4434.99
4657.37
4881.02
1678.06
3747.09
5681.84
7360.85
8759.14
9898.14
10820.4
11570.4
12186.9
12701.6
13140
13522
13863.6
14176.5
14468.7
14744.4
15007.2
15255.1
24707
36941.2
42082.4
43854.2
44127.6
43748.8
43090.3
42321.1
41524
40742.3
39998.9
39304.7
38662.7
38070.9
37524.6
37018.2
36542.5
36091.4
144.239
146.251
150.591
157.125
165.777
176.43
188.931
203.109
218.795
235.836
254.11
273.608
294.358
316.161
338.743
361.995
385.888
410.415
435.57
461.355
487.775
514.838
542.555
570.937
599.992
629.731
660.159
691.282
723.104
755.625
788.844
822.758
857.362
892.649
928.609
965.23
1002.5
1040.4
1078.91
1118.02
1157.7
1197.92
1238.66
1279.9
1321.61
1363.74
1406.27
1449.17
1492.4
1535.93
1579.71
1623.71
1667.88
1712.2
1756.62
1801.1
1845.59
1890.06
1934.47
1978.77
2022.93
2066.89
2110.62
2154.07
2197.2
2239.97
2282.33
2324.23
2365.63
2406.48
2446.73
2486.34
2525.26
2563.44
2600.83
2637.38
2673.05
2707.78
2741.54
2774.27
2805.93
2836.49
2865.89
2894.09
2921.06
2946.75
2971.13
2994.15
3015.78
3035.97
3054.68
3071.87
3087.49
3101.48
3113.81
3124.41
3133.22
3140.18
3145.2
3148.2
3149.06
3147.64
3143.77
3137.55
3129.26
3118.86
3106.3
3091.52
3074.49
3055.17
3033.51
3009.49
2983.08
2954.23
2922.92
2889.14
2852.85
2814.05
2772.72
2728.84
2682.43
2633.46
2581.96
2527.93
2471.39
2412.35
2350.87
2286.97
2220.72
2152.18
2081.44
2008.62
1933.84
1857.25
1779.04
1699.43
1618.65
1537
1454.78
1372.37
1290.16
1208.58
1128.11
1049.23
972.487
898.395
827.491
760.294
697.295
638.948
585.661
537.792
495.648
459.478
429.558
406.64
390.616
379.878
373.842
372.735
376.615
385.189
398.874
419.229
446.694
480.761
521.364
568.464
621.969
681.733
747.542
819.111
896.077
978.001
1064.37
1154.55
1248
1343.48
1444.06
1530.35
146.874
148.051
151.438
156.861
164.231
173.402
184.179
196.35
209.708
224.058
239.233
255.089
271.509
288.382
305.589
323.046
340.708
358.55
376.566
394.753
413.115
431.658
450.384
469.298
488.403
507.696
527.177
546.841
566.682
586.691
606.858
627.173
647.623
668.193
688.869
709.636
730.475
751.37
772.303
793.255
814.206
835.138
856.03
876.864
897.619
918.275
938.813
959.215
979.46
999.531
1019.41
1039.08
1058.52
1077.72
1096.66
1115.32
1133.7
1151.77
1169.52
1186.94
1204.02
1220.73
1237.08
1253.04
1268.61
1283.76
1298.5
1312.8
1326.67
1340.08
1353.02
1365.49
1377.48
1388.99
1399.99
1410.49
1420.48
1429.96
1438.93
1447.37
1455.29
1462.69
1469.56
1475.91
1481.73
1487.01
1491.77
1495.98
1499.66
1502.79
1505.38
1507.41
1508.89
1509.79
1510.13
1509.88
1509.03
1507.59
1505.54
1502.88
1499.62
1495.76
1491.51
1487.04
1482.01
1476.39
1470.16
1463.33
1455.87
1447.78
1439.05
1429.67
1419.63
1408.93
1397.54
1385.47
1372.69
1359.2
1344.98
1330.01
1314.29
1297.8
1280.51
1262.41
1243.49
1223.72
1203.09
1181.58
1159.18
1135.87
1111.65
1086.51
1060.46
1033.49
1005.62
976.884
947.31
916.949
885.866
854.141
821.877
789.195
756.242
723.187
690.222
657.563
625.447
594.131
563.884
534.986
507.723
482.376
459.222
438.536
420.624
405.937
394.729
386.929
382.382
381.273
383.603
389.21
398.23
410.809
426.899
446.22
468.596
493.863
521.835
552.295
585.003
619.696
656.099
693.928
732.908
772.792
813.457
855.082
899.338
949.262
153.798
152.885
154.561
158.424
164.314
172.023
181.29
191.85
203.447
215.854
228.871
242.334
256.111
270.092
284.192
298.347
312.519
326.689
340.85
355.002
369.147
383.292
397.439
411.591
425.749
439.91
454.07
468.224
482.364
496.481
510.565
524.605
538.588
552.502
566.333
580.068
593.693
607.195
620.559
633.772
646.821
659.691
672.372
684.85
697.114
709.154
720.958
732.518
743.825
754.871
765.648
776.151
786.373
796.31
805.958
815.311
824.368
833.126
841.581
849.733
857.579
865.118
872.349
879.272
885.887
892.192
898.188
903.876
909.258
914.333
919.105
923.576
927.75
931.63
935.22
938.526
941.554
944.309
946.797
949.026
951.001
952.729
954.217
955.471
956.496
957.298
957.881
958.252
958.412
958.367
958.12
957.674
957.033
956.201
955.183
953.984
952.612
951.076
949.39
947.569
945.639
943.656
941.801
939.825
937.663
935.3
932.732
929.953
926.959
923.746
920.308
916.639
912.733
908.582
904.181
899.519
894.588
889.378
883.878
878.075
871.956
865.508
858.714
851.559
844.024
836.093
827.745
818.962
809.724
800.011
789.803
779.081
767.825
756.019
743.647
730.697
717.162
703.037
688.327
673.042
657.206
640.849
624.021
606.782
589.214
571.416
553.51
535.636
517.959
500.664
483.955
468.049
453.181
439.604
427.592
417.464
409.435
403.591
399.988
398.767
399.857
403.183
408.795
416.725
426.874
439.019
452.958
468.503
485.461
503.628
522.793
542.75
563.297
584.25
605.45
626.794
648.298
670.316
693.933
721.622
166.33
160.857
159.801
161.479
165.547
171.659
179.448
188.562
198.687
209.55
220.927
232.635
244.533
256.515
268.502
280.441
292.301
304.064
315.726
327.287
338.751
350.122
361.403
372.597
383.704
394.721
405.645
416.47
427.189
437.795
448.278
458.629
468.838
478.895
488.79
498.513
508.054
517.403
526.551
535.49
544.212
552.709
560.976
569.006
576.795
584.338
591.633
598.677
605.469
612.008
618.294
624.329
630.113
635.65
640.941
645.989
650.799
655.374
659.717
663.834
667.728
671.404
674.867
678.122
681.173
684.025
686.684
689.154
691.442
693.552
695.492
697.266
698.883
700.347
701.667
702.85
703.902
704.831
705.645
706.35
706.954
707.462
707.882
708.219
708.478
708.665
708.784
708.839
708.835
708.775
708.664
708.505
708.302
708.061
707.786
707.486
707.169
706.843
706.52
706.214
705.941
705.84
705.741
705.584
705.349
705.028
704.618
704.113
703.511
702.807
701.997
701.076
700.038
698.878
697.591
696.169
694.606
692.893
691.023
688.987
686.776
684.378
681.783
678.979
675.955
672.697
669.192
665.426
661.385
657.052
652.413
647.451
642.149
636.492
630.464
624.049
617.233
610.005
602.355
594.28
585.777
576.853
567.522
557.805
547.737
537.365
526.749
515.969
505.118
494.31
483.684
473.386
463.583
454.476
446.254
439.115
433.197
428.665
425.651
424.205
424.273
425.817
428.886
433.504
439.577
446.92
455.365
464.76
474.953
485.793
497.13
508.818
520.724
532.736
544.763
556.771
568.821
581.236
594.68
610.569
186.045
172.508
167.386
166.12
167.956
172.286
178.562
186.31
195.133
204.703
214.76
225.099
235.569
246.058
256.49
266.817
277.009
287.052
296.942
306.679
316.268
325.712
335.016
344.181
353.208
362.094
370.838
379.434
387.877
396.162
404.282
412.23
419.999
427.581
434.972
442.163
449.15
455.928
462.491
468.837
474.963
480.866
486.545
492.001
497.233
502.244
507.035
511.61
515.972
520.126
524.076
527.83
531.392
534.768
537.967
540.993
543.855
546.558
549.111
551.519
553.79
555.93
557.946
559.843
561.629
563.309
564.889
566.375
567.773
569.088
570.327
571.495
572.598
573.643
574.634
575.578
576.48
577.346
578.181
578.99
579.778
580.549
581.307
582.056
582.798
583.538
584.278
585.02
585.766
586.519
587.28
588.054
588.842
589.647
590.474
591.328
592.214
593.138
594.107
595.129
596.266
597.456
598.631
599.77
600.862
601.902
602.887
603.813
604.675
605.47
606.194
606.842
607.41
607.894
608.287
608.585
608.783
608.874
608.852
608.71
608.441
608.038
607.493
606.798
605.945
604.925
603.73
602.349
600.773
598.991
596.994
594.768
592.303
589.586
586.605
583.347
579.802
575.959
571.807
567.341
562.554
557.445
552.017
546.277
540.239
533.927
527.373
520.621
513.723
506.75
499.796
492.955
486.329
480.083
474.309
469.122
464.645
460.975
458.25
456.52
455.75
455.919
457.085
459.293
462.473
466.486
471.198
476.497
482.278
488.438
494.876
501.497
508.216
514.962
521.686
528.384
535.119
542.14
549.834
558.948
213.438
187.823
177.115
172.087
171.266
173.615
178.316
184.727
192.344
200.771
209.702
218.909
228.223
237.525
246.738
255.811
264.718
273.445
281.988
290.35
298.533
306.543
314.384
322.057
329.563
336.904
344.076
351.078
357.906
364.557
371.027
377.311
383.407
389.31
395.019
400.529
405.84
410.951
415.862
420.573
425.085
429.402
433.525
437.46
441.21
444.781
448.179
451.41
454.482
457.403
460.179
462.82
465.333
467.726
470.008
472.187
474.27
476.265
478.18
480.022
481.797
483.512
485.173
486.786
488.355
489.887
491.387
492.858
494.306
495.734
497.148
498.55
499.947
501.34
502.735
504.135
505.544
506.965
508.401
509.855
511.329
512.826
514.347
515.894
517.469
519.072
520.706
522.369
524.064
525.79
527.55
529.343
531.171
533.036
534.94
536.886
538.876
540.915
543.006
545.164
547.382
549.605
551.807
553.975
556.105
558.191
560.23
562.218
564.15
566.024
567.834
569.578
571.25
572.847
574.363
575.794
577.136
578.383
579.529
580.57
581.5
582.313
583.003
583.565
583.993
584.28
584.422
584.412
584.242
583.908
583.401
582.713
581.837
580.762
579.481
577.984
576.264
574.311
572.119
569.681
566.993
564.052
560.856
557.408
553.713
549.783
545.638
541.301
536.8
532.172
527.499
522.832
518.202
513.789
509.622
505.73
502.159
499.001
496.381
494.355
492.906
492.025
491.772
492.208
493.293
494.928
497.012
499.465
502.217
505.199
508.35
511.61
514.924
518.252
521.568
524.878
528.238
531.823
535.848
540.713
249.13
206.733
188.729
179.102
175.223
175.408
178.473
183.558
190.027
197.404
205.335
213.558
221.888
230.195
238.398
246.445
254.308
261.975
269.441
276.71
283.786
290.674
297.378
303.901
310.247
316.416
322.409
328.225
333.863
339.323
344.603
349.702
354.62
359.357
363.912
368.288
372.485
376.507
380.356
384.037
387.555
390.914
394.122
397.184
400.108
402.902
405.574
408.132
410.586
412.944
415.214
417.407
419.53
421.592
423.601
425.565
427.492
429.388
431.26
433.114
434.956
436.791
438.624
440.46
442.302
444.154
446.02
447.903
449.805
451.729
453.678
455.656
457.663
459.703
461.777
463.889
466.04
468.231
470.465
472.742
475.063
477.428
479.838
482.294
484.795
487.341
489.932
492.567
495.246
497.968
500.733
503.54
506.39
509.282
512.217
515.197
518.222
521.293
524.413
527.576
530.746
533.901
537.026
540.115
543.162
546.163
549.113
552.01
554.848
557.624
560.333
562.973
565.537
568.024
570.426
572.741
574.964
577.089
579.113
581.03
582.835
584.524
586.092
587.536
588.851
590.032
591.076
591.979
592.736
593.343
593.797
594.09
594.219
594.175
593.953
593.545
592.945
592.149
591.151
589.945
588.529
586.899
585.055
582.997
580.723
578.238
575.563
572.708
569.681
566.487
563.231
559.925
556.601
553.337
550.153
547.041
544.011
541.132
538.508
536.198
534.199
532.516
531.205
530.329
529.876
529.779
529.966
530.379
530.97
531.698
532.525
533.415
534.337
535.27
536.201
537.143
538.14
539.311
540.765
542.736
293.559
229.064
201.916
186.877
179.583
177.458
178.84
182.604
187.965
194.357
201.37
208.708
216.168
223.609
230.942
238.115
245.098
251.878
258.453
264.825
270.999
276.981
282.777
288.391
293.828
299.089
304.178
309.097
313.846
318.427
322.841
327.091
331.178
335.105
338.876
342.493
345.963
349.29
352.479
355.538
358.473
361.292
364.003
366.614
369.134
371.572
373.937
376.238
378.484
380.685
382.85
384.986
387.104
389.209
391.311
393.415
395.527
397.655
399.802
401.974
404.176
406.41
408.682
410.993
413.346
415.745
418.189
420.682
423.225
425.819
428.466
431.166
433.922
436.734
439.604
442.532
445.52
448.568
451.677
454.846
458.076
461.366
464.715
468.122
471.588
475.11
478.687
482.317
486
489.732
493.513
497.34
501.213
505.13
509.09
513.092
517.136
521.222
525.328
529.433
533.518
537.572
541.585
545.552
549.468
553.327
557.126
560.861
564.527
568.12
571.636
575.07
578.42
581.68
584.847
587.914
590.877
593.732
596.474
599.1
601.604
603.982
606.231
608.349
610.332
612.176
613.878
615.436
616.848
618.112
619.224
620.183
620.983
621.621
622.088
622.38
622.494
622.426
622.172
621.728
621.091
620.261
619.236
618.016
616.597
614.97
613.174
611.203
609.064
606.767
604.359
601.859
599.29
596.685
594.05
591.363
588.615
585.85
583.15
580.57
578.12
575.814
573.702
571.843
570.244
568.864
567.654
566.571
565.583
564.662
563.787
562.94
562.104
561.27
560.436
559.619
558.85
558.212
557.749
557.621
346.847
254.514
216.335
195.137
184.138
179.597
179.269
181.724
186.008
191.46
197.611
204.135
210.805
217.469
224.034
230.443
236.664
242.686
248.506
254.127
259.554
264.794
269.855
274.742
279.46
284.015
288.409
292.647
296.733
300.67
304.461
308.111
311.624
315.005
318.26
321.394
324.414
327.327
330.141
332.864
335.504
338.07
340.572
343.017
345.415
347.777
350.109
352.424
354.728
357.031
359.342
361.668
364.018
366.398
368.814
371.272
373.778
376.334
378.946
381.616
384.349
387.147
390.011
392.945
395.948
399.023
402.17
405.388
408.679
412.042
415.479
418.989
422.572
426.229
429.96
433.765
437.646
441.601
445.632
449.737
453.915
458.166
462.489
466.882
471.345
475.875
480.471
485.13
489.848
494.622
499.45
504.327
509.252
514.221
519.231
524.281
529.369
534.458
539.523
544.557
549.55
554.492
559.377
564.199
568.953
573.634
578.238
582.76
587.195
591.541
595.793
599.946
603.997
607.943
611.777
615.494
619.089
622.559
625.898
629.103
632.169
635.094
637.875
640.509
642.995
645.332
647.512
649.536
651.405
653.117
654.673
656.069
657.304
658.376
659.273
659.995
660.537
660.9
661.079
661.073
660.876
660.492
659.92
659.161
658.211
657.071
655.753
654.26
652.595
650.768
648.801
646.71
644.51
642.214
639.818
637.296
634.633
631.853
629.016
626.169
623.33
620.519
617.779
615.163
612.689
610.336
608.072
605.865
603.693
601.538
599.387
597.231
595.064
592.887
590.704
588.531
586.395
584.351
582.407
580.693
408.774
282.686
231.637
203.638
188.717
181.698
179.654
180.816
184.052
188.599
193.934
199.693
205.633
211.59
217.463
223.193
228.747
234.113
239.287
244.273
249.079
253.71
258.175
262.481
266.635
270.643
274.51
278.243
281.845
285.322
288.681
291.926
295.064
298.102
301.046
303.904
306.685
309.396
312.047
314.647
317.204
319.728
322.229
324.716
327.198
329.684
332.182
334.703
337.255
339.845
342.483
345.174
347.927
350.747
353.639
356.607
359.656
362.787
366.005
369.31
372.705
376.191
379.77
383.442
387.207
391.064
395.013
399.052
403.182
407.401
411.708
416.102
420.583
425.151
429.804
434.542
439.365
444.274
449.268
454.347
459.51
464.757
470.087
475.501
480.996
486.573
492.228
497.958
503.756
509.62
515.542
521.518
527.543
533.614
539.724
545.869
551.996
558.064
564.078
570.033
575.921
581.733
587.463
593.104
598.653
604.104
609.454
614.698
619.831
624.851
629.752
634.532
639.188
643.716
648.112
652.366
656.475
660.434
664.24
667.89
671.379
674.705
677.867
680.863
683.695
686.364
688.854
691.171
693.316
695.292
697.099
698.736
700.203
701.502
702.615
703.54
704.281
704.835
705.202
705.379
705.367
705.165
704.776
704.198
703.431
702.477
701.338
700.019
698.522
696.855
695.028
693.053
690.94
688.693
686.304
683.75
681.013
678.105
675.067
671.936
668.734
665.482
662.22
658.991
655.819
652.697
649.605
646.524
643.435
640.327
637.191
634.024
630.826
627.602
624.362
621.122
617.904
614.748
611.638
608.693
478.815
313.117
247.492
212.172
193.187
183.667
179.922
179.816
182.031
185.704
190.257
195.294
200.551
205.857
211.103
216.226
221.193
225.989
230.613
235.066
239.357
243.493
247.483
251.335
255.056
258.654
262.136
265.508
268.778
271.951
275.034
278.036
280.963
283.823
286.626
289.378
292.091
294.773
297.435
300.085
302.735
305.393
308.069
310.772
313.51
316.293
319.128
322.023
324.988
328.029
331.154
334.369
337.682
341.096
344.616
348.244
351.984
355.836
359.803
363.883
368.079
372.389
376.814
381.353
386.004
390.765
395.633
400.606
405.681
410.857
416.13
421.501
426.965
432.521
438.168
443.903
449.726
455.638
461.639
467.73
473.91
480.182
486.547
493.009
499.569
506.227
512.983
519.83
526.762
533.769
540.844
547.979
555.165
562.4
569.672
576.889
584.001
591.022
597.956
604.796
611.537
618.164
624.673
631.06
637.321
643.452
649.449
655.308
661.027
666.6
672.026
677.301
682.424
687.394
692.211
696.857
701.326
705.617
709.729
713.66
717.405
720.964
724.334
727.518
730.518
733.35
735.971
738.396
740.634
742.686
744.555
746.24
747.741
749.058
750.183
751.114
751.852
752.394
752.741
752.892
752.847
752.608
752.176
751.552
750.737
749.731
748.536
747.154
745.588
743.843
741.926
739.844
737.604
735.207
732.645
729.898
726.952
723.811
720.501
717.049
713.478
709.809
706.074
702.312
698.546
694.779
691.002
687.203
683.368
679.489
675.56
671.582
667.557
663.495
659.407
655.31
651.221
647.17
643.127
639.211
556.251
345.323
263.601
220.566
197.447
185.441
180.026
178.684
179.907
182.736
186.538
190.889
195.509
200.214
204.892
209.475
213.929
218.238
222.398
226.414
230.291
234.038
237.665
241.179
244.589
247.903
251.13
254.277
257.353
260.363
263.318
266.225
269.093
271.93
274.747
277.553
280.36
283.177
286.017
288.89
291.808
294.779
297.813
300.919
304.104
307.374
310.736
314.199
317.767
321.449
325.252
329.18
333.24
337.436
341.771
346.247
350.864
355.623
360.525
365.567
370.748
376.065
381.516
387.097
392.805
398.634
404.579
410.636
416.8
423.069
429.437
435.902
442.459
449.104
455.832
462.642
469.529
476.495
483.541
490.668
497.88
505.183
512.588
520.103
527.736
535.493
543.377
551.382
559.494
567.701
575.989
584.347
592.753
601.22
609.552
617.724
625.754
633.65
641.411
649.037
656.525
663.847
671.002
677.99
684.81
691.46
697.936
704.238
710.361
716.305
722.066
727.643
733.036
738.249
743.297
748.134
752.757
757.174
761.385
765.387
769.181
772.763
776.136
779.3
782.259
785.017
787.564
789.902
792.037
793.972
795.71
797.251
798.596
799.742
800.688
801.432
801.972
802.308
802.441
802.371
802.099
801.627
800.958
800.093
799.033
797.779
796.331
794.693
792.867
790.855
788.664
786.297
783.761
781.056
778.174
775.102
771.828
768.354
764.694
760.87
756.9
752.803
748.607
744.344
740.035
735.689
731.305
726.876
722.394
717.852
713.249
708.586
703.869
699.108
694.316
689.507
684.699
679.913
675.11
670.41
640.335
378.834
279.7
228.681
201.421
186.975
179.939
177.401
177.667
179.684
182.77
186.475
190.502
194.66
198.831
202.945
206.964
210.871
214.661
218.337
221.906
225.376
228.756
232.055
235.282
238.447
241.558
244.625
247.658
250.664
253.652
256.632
259.612
262.603
265.615
268.66
271.751
274.9
278.123
281.431
284.839
288.358
292
295.769
299.669
303.701
307.87
312.179
316.633
321.238
325.997
330.917
336.001
341.252
346.674
352.265
358.029
363.965
370.074
376.353
382.794
389.389
396.131
403.012
410.023
417.154
424.398
431.748
439.196
446.737
454.365
462.072
469.852
477.697
485.602
493.558
501.563
509.613
517.709
525.851
534.054
542.334
550.719
559.233
567.889
576.707
585.708
594.883
604.204
613.652
623.196
632.847
642.48
651.865
661.04
670.01
678.78
687.354
695.733
703.924
711.952
719.731
727.281
734.614
741.73
748.631
755.317
761.787
768.041
774.078
779.897
785.499
790.883
796.053
801.012
805.748
810.256
814.535
818.586
822.405
825.994
829.355
832.488
835.396
838.083
840.551
842.799
844.829
846.644
848.249
849.646
850.838
851.822
852.6
853.169
853.529
853.679
853.619
853.351
852.874
852.192
851.308
850.223
848.942
847.464
845.791
843.924
841.865
839.616
837.179
834.56
831.763
828.791
825.645
822.32
818.809
815.104
811.204
807.118
802.86
798.446
793.891
789.218
784.453
779.615
774.715
769.757
764.74
759.658
754.51
749.297
744.023
738.695
733.323
727.919
722.499
717.075
711.666
706.227
700.877
730.524
413.222
295.553
236.396
205.047
188.242
179.653
175.973
175.328
176.576
178.991
182.1
185.594
189.274
193.016
196.747
200.426
204.036
207.569
211.027
214.418
217.749
221.032
224.276
227.489
230.682
233.865
237.05
240.25
243.476
246.736
250.038
253.388
256.795
260.271
263.831
267.491
271.267
275.178
279.244
283.486
287.926
292.584
297.463
302.546
307.821
313.281
318.924
324.75
330.758
336.948
343.323
349.884
356.632
363.569
370.695
378.014
385.532
393.266
401.206
409.33
417.621
426.057
434.619
443.285
452.042
460.881
469.791
478.763
487.786
496.849
505.941
515.051
524.168
533.283
542.387
551.475
560.542
569.586
578.589
587.593
596.639
605.793
615.122
624.613
634.325
644.339
654.642
665.142
675.832
686.603
697.152
707.403
717.361
727.034
736.429
745.548
754.395
762.976
771.295
779.359
787.151
794.673
801.93
808.928
815.669
822.158
828.394
834.383
840.123
845.619
850.87
855.878
860.647
865.178
869.471
873.524
877.334
880.901
884.223
887.305
890.149
892.759
895.136
897.284
899.207
900.906
902.383
903.643
904.687
905.52
906.143
906.557
906.759
906.75
906.528
906.095
905.452
904.599
903.539
902.274
900.809
899.147
897.289
895.239
892.996
890.562
887.938
885.127
882.131
878.954
875.602
872.077
868.38
864.51
860.465
856.239
851.831
847.246
842.493
837.582
832.527
827.344
822.055
816.678
811.223
805.698
800.103
794.44
788.71
782.92
777.074
771.181
765.251
759.295
753.326
747.356
741.402
735.412
729.506
826.787
448.154
310.953
243.607
208.287
189.24
179.194
174.453
172.967
173.516
175.335
177.932
180.986
184.294
187.725
191.205
194.691
198.162
201.609
205.035
208.448
211.861
215.287
218.739
222.224
225.749
229.329
232.978
236.721
240.578
244.558
248.666
252.879
257.202
261.647
266.233
270.981
275.916
281.064
286.453
292.124
298.135
304.571
311.458
318.672
326.151
333.859
341.779
349.901
358.215
366.703
375.362
384.188
393.172
402.312
411.618
421.096
430.757
440.609
450.629
460.79
471.07
481.447
491.896
502.378
512.869
523.373
533.894
544.419
554.934
565.425
575.876
586.273
596.6
606.844
616.991
627.029
636.954
646.768
656.482
666.108
675.68
685.259
694.941
704.805
714.941
725.648
736.883
748.281
759.474
770.308
780.794
790.92
800.689
810.103
819.168
827.891
836.281
844.346
852.098
859.544
866.689
873.539
880.1
886.379
892.382
898.114
903.58
908.784
913.73
918.421
922.858
927.045
930.985
934.681
938.135
941.348
944.317
947.045
949.536
951.792
953.815
955.607
957.171
958.512
959.633
960.535
961.221
961.694
961.957
962.014
961.863
961.506
960.94
960.166
959.184
957.994
956.6
955.002
953.205
951.21
949.022
946.645
944.08
941.33
938.394
935.273
931.969
928.484
924.821
920.984
916.98
912.812
908.482
903.994
899.346
894.534
889.556
884.413
879.111
873.655
868.057
862.33
856.49
850.553
844.531
838.432
832.26
826.022
819.726
813.379
806.99
800.564
794.112
787.644
781.172
774.705
768.26
761.783
755.392
934.679
484.934
326.309
250.485
211.241
190.058
178.663
172.963
170.744
170.711
172.067
174.304
177.093
180.224
183.565
187.041
190.611
194.253
197.955
201.712
205.54
209.471
213.544
217.789
222.195
226.725
231.393
236.246
241.34
246.722
252.458
258.596
264.864
271.268
277.823
284.564
291.528
298.752
306.27
314.111
322.32
330.993
340.233
349.955
359.955
370.204
380.682
391.384
402.306
413.463
424.743
436.146
447.653
459.222
470.813
482.485
494.253
506.109
518.02
529.967
541.944
553.94
565.944
577.952
589.972
601.997
613.997
625.953
637.854
649.685
661.43
673.076
684.61
696.019
707.289
718.405
729.356
740.14
750.759
761.232
771.537
781.703
791.765
801.805
812.255
823.247
834.366
845.143
855.517
865.502
875.084
884.268
893.062
901.474
909.511
917.184
924.502
931.479
938.131
944.471
950.51
956.259
961.726
966.919
971.845
976.511
980.921
985.081
988.994
992.665
996.096
999.288
1002.24
1004.97
1007.46
1009.72
1011.75
1013.55
1015.13
1016.48
1017.62
1018.54
1019.24
1019.74
1020.03
1020.11
1020
1019.68
1019.17
1018.46
1017.55
1016.45
1015.15
1013.65
1011.95
1010.05
1007.96
1005.68
1003.21
1000.55
997.709
994.689
991.493
988.122
984.576
980.855
976.96
972.892
968.653
964.247
959.681
954.959
950.088
945.078
939.928
934.634
929.191
923.595
917.845
911.944
905.898
899.714
893.404
886.982
880.461
873.855
867.175
860.429
853.63
846.789
839.912
833.007
826.08
819.139
812.193
805.254
798.331
791.44
784.527
777.705
1043.38
518.284
339.303
256.088
213.665
190.869
178.534
172.239
169.641
169.39
170.667
172.96
175.94
179.391
183.17
187.22
191.532
196.116
200.931
205.886
211.002
216.396
222.256
228.86
236.077
243.382
250.697
258.158
265.92
274.133
282.945
292.194
301.486
311.014
320.811
330.915
341.356
352.167
363.389
374.964
386.864
399.088
411.527
424.066
436.782
449.708
462.856
476.22
489.781
503.518
517.375
531.307
545.26
559.159
573.04
586.936
600.824
614.679
628.478
642.196
655.815
669.323
682.715
696.003
709.246
722.383
735.368
748.179
760.803
773.228
785.444
797.446
809.233
820.812
832.178
843.323
854.249
864.98
875.518
885.846
895.989
906.167
916.394
926.886
937.239
947.205
956.514
965.227
973.442
981.217
988.588
995.574
1002.19
1008.45
1014.37
1019.97
1025.25
1030.24
1034.95
1039.39
1043.58
1047.51
1051.21
1054.67
1057.9
1060.9
1063.68
1066.25
1068.6
1070.73
1072.66
1074.37
1075.87
1077.16
1078.25
1079.12
1079.79
1080.25
1080.5
1080.55
1080.41
1080.08
1079.57
1078.87
1077.99
1076.93
1075.69
1074.27
1072.67
1070.89
1068.93
1066.78
1064.46
1061.94
1059.25
1056.37
1053.32
1050.1
1046.71
1043.15
1039.43
1035.55
1031.5
1027.3
1022.94
1018.41
1013.73
1008.88
1003.89
998.741
993.45
988.022
982.459
976.769
970.949
964.994
958.9
952.663
946.283
939.763
933.108
926.326
919.427
912.423
905.327
898.154
890.915
883.635
876.323
868.982
861.62
854.242
846.856
839.469
832.091
824.733
817.406
810.125
802.838
795.652
1152.53
548.01
350.12
260.845
216.186
192.511
179.892
173.655
171.365
171.633
173.623
176.865
181.083
186.03
191.423
197.271
203.778
211.319
219.868
228.384
236.861
245.656
255.311
266.251
277.756
289.085
300.443
312.038
323.977
336.306
348.986
361.817
375.047
388.741
402.916
417.55
432.61
448.063
463.874
479.99
496.358
512.925
529.613
546.35
563.114
579.889
596.653
613.38
630.038
646.593
663.005
679.236
695.268
711.139
726.943
742.579
757.978
773.102
787.923
802.421
816.583
830.4
843.869
856.999
869.807
882.286
894.425
906.221
917.678
928.796
939.574
950.02
960.161
970.04
979.648
988.971
998.025
1006.96
1015.78
1024.39
1032.79
1040.95
1049.11
1057.09
1064.62
1071.53
1077.92
1083.84
1089.35