/*--------------------------------*- C++ -*----------------------------------*\
| =========                 |                                                 |
| \\      /  F ield         | OpenFOAM: The Open Source CFD Toolbox           |
|  \\    /   O peration     | Version:  2112                                  |
|   \\  /    A nd           | Website:  www.openfoam.com                      |
|    \\/     M anipulation  |                                                 |
\*---------------------------------------------------------------------------*/
FoamFile
{
    version     2.0;
    format      ascii;
    arch        "LSB;label=32;scalar=64";
    class       surfaceScalarField;
    location    "0.34";
    object      phi_0;
}
// * * * * * * * * * * * * * * * * * * * * * * * * * * * * * * * * * * * * * //

dimensions      [0 3 -1 0 0 0 0];

oriented        oriented;

internalField   nonuniform List<scalar> 
24170
(
3.04361e-06
2.66358e-08
2.99344e-06
5.01652e-08
2.92011e-06
7.33301e-08
2.8189e-06
1.01216e-07
2.71136e-06
1.07533e-07
2.60862e-06
1.02745e-07
2.51271e-06
9.59066e-08
2.42414e-06
8.85749e-08
2.34137e-06
8.2764e-08
2.26032e-06
8.10506e-08
2.17761e-06
8.2709e-08
2.09369e-06
8.39213e-08
2.01134e-06
8.23579e-08
1.93262e-06
7.87181e-08
1.8544e-06
7.82163e-08
1.77078e-06
8.36186e-08
1.66698e-06
1.03806e-07
1.37005e-07
1.52997e-06
3.52731e-06
-1.08451e-07
3.52208e-06
5.53926e-08
3.5011e-06
9.43103e-08
3.49474e-06
1.0758e-07
3.48572e-06
1.16547e-07
3.46375e-06
1.24713e-07
3.43416e-06
1.25497e-07
3.40786e-06
1.14879e-07
3.39088e-06
9.97465e-08
3.38169e-06
9.02339e-08
3.37423e-06
9.01691e-08
3.36152e-06
9.66309e-08
3.33899e-06
1.0489e-07
3.30479e-06
1.1292e-07
3.2594e-06
1.23612e-07
3.20147e-06
1.41539e-07
3.1353e-06
1.69984e-07
2.11524e-07
3.06078e-06
3.64935e-06
-5.08892e-08
3.67739e-06
2.73599e-08
3.68251e-06
8.91834e-08
3.69088e-06
9.92162e-08
3.70602e-06
1.01405e-07
3.71755e-06
1.13184e-07
3.7147e-06
1.28343e-07
3.6952e-06
1.34377e-07
3.667e-06
1.27949e-07
3.64209e-06
1.1514e-07
3.62788e-06
1.04386e-07
3.62426e-06
1.00248e-07
3.62625e-06
1.02904e-07
3.62841e-06
1.10754e-07
3.62718e-06
1.24842e-07
3.62119e-06
1.47526e-07
3.61182e-06
1.79354e-07
2.21437e-07
3.60191e-06
3.93188e-06
5.27151e-09
3.92792e-06
3.13266e-08
3.92503e-06
9.20671e-08
3.93338e-06
9.0865e-08
3.94623e-06
8.85613e-08
3.95167e-06
1.07741e-07
3.94507e-06
1.34945e-07
3.93211e-06
1.47336e-07
3.92215e-06
1.37909e-07
3.91987e-06
1.17417e-07
3.92293e-06
1.0133e-07
3.92529e-06
9.789e-08
3.92158e-06
1.06614e-07
3.91e-06
1.22327e-07
3.89318e-06
1.41662e-07
3.87604e-06
1.6467e-07
3.86575e-06
1.89644e-07
2.2066e-07
3.86653e-06
4.25611e-06
5.47185e-08
4.25118e-06
3.62594e-08
4.26838e-06
7.48683e-08
4.27302e-06
8.62221e-08
4.26343e-06
9.81545e-08
4.24485e-06
1.26324e-07
4.22744e-06
1.52354e-07
4.21927e-06
1.55503e-07
4.22246e-06
1.34718e-07
4.23379e-06
1.0609e-07
4.24689e-06
8.82289e-08
4.25488e-06
8.9898e-08
4.25351e-06
1.07987e-07
4.24228e-06
1.33553e-07
4.22436e-06
1.59588e-07
4.20504e-06
1.8399e-07
4.18986e-06
2.04822e-07
2.25976e-07
4.18454e-06
4.49032e-06
-5.15595e-08
4.58533e-06
-5.87427e-08
4.618e-06
4.21905e-08
4.60035e-06
1.03875e-07
4.56288e-06
1.35621e-07
4.52994e-06
1.59272e-07
4.50888e-06
1.73411e-07
4.49797e-06
1.66412e-07
4.49557e-06
1.37115e-07
4.50139e-06
1.00271e-07
4.51412e-06
7.55031e-08
4.52945e-06
7.45677e-08
4.54138e-06
9.60559e-08
4.54543e-06
1.29503e-07
4.54128e-06
1.63742e-07
4.53187e-06
1.93395e-07
4.52111e-06
2.15581e-07
2.32089e-07
4.515e-06
4.86399e-06
-8.19962e-08
4.83754e-06
-3.22987e-08
4.83011e-06
4.96227e-08
4.84704e-06
8.69509e-08
4.85633e-06
1.2633e-07
4.85181e-06
1.63786e-07
4.84504e-06
1.80183e-07
4.84366e-06
1.67789e-07
4.84451e-06
1.36272e-07
4.84094e-06
1.03844e-07
4.83171e-06
8.47311e-08
4.82123e-06
8.5046e-08
4.81387e-06
1.03414e-07
4.81052e-06
1.32857e-07
4.80976e-06
1.64502e-07
4.81047e-06
1.92685e-07
4.81223e-06
2.13814e-07
2.28629e-07
4.81569e-06
5.21863e-06
-9.59823e-08
5.17142e-06
1.4907e-08
5.17578e-06
4.52664e-08
5.18218e-06
8.05564e-08
5.1785e-06
1.30008e-07
5.18215e-06
1.60129e-07
5.20317e-06
1.59166e-07
5.23234e-06
1.3862e-07
5.25131e-06
1.17299e-07
5.24865e-06
1.06502e-07
5.22534e-06
1.08043e-07
5.19165e-06
1.1874e-07
5.16043e-06
1.34636e-07
5.14092e-06
1.52366e-07
5.13565e-06
1.69771e-07
5.14274e-06
1.85594e-07
5.1583e-06
1.98253e-07
2.0854e-07
5.17839e-06
5.60184e-06
-2.15453e-08
5.5799e-06
3.68495e-08
5.58438e-06
4.07867e-08
5.58959e-06
7.53429e-08
5.59245e-06
1.27145e-07
5.5973e-06
1.55283e-07
5.60753e-06
1.48931e-07
5.61852e-06
1.27637e-07
5.62137e-06
1.14444e-07
5.61097e-06
1.16899e-07
5.58893e-06
1.30085e-07
5.56196e-06
1.45716e-07
5.53769e-06
1.58901e-07
5.52134e-06
1.68721e-07
5.51489e-06
1.76213e-07
5.51796e-06
1.82531e-07
5.52892e-06
1.87284e-07
1.9206e-07
5.5454e-06
6.08208e-06
1.93286e-08
5.99409e-06
1.24849e-07
5.93563e-06
9.92452e-08
5.92369e-06
8.72803e-08
5.93931e-06
1.11525e-07
5.95644e-06
1.38152e-07
5.95641e-06
1.48965e-07
5.94121e-06
1.42829e-07
5.92553e-06
1.30127e-07
5.91876e-06
1.23671e-07
5.92209e-06
1.26758e-07
5.93196e-06
1.35838e-07
5.94376e-06
1.47101e-07
5.95409e-06
1.58398e-07
5.96193e-06
1.68369e-07
5.96783e-06
1.76635e-07
5.97273e-06
1.82384e-07
1.86544e-07
5.97824e-06
6.4577e-06
1.85717e-07
6.35406e-06
2.2849e-07
6.34311e-06
1.10199e-07
6.39482e-06
3.55645e-08
6.46087e-06
4.54813e-08
6.49492e-06
1.04104e-07
6.48261e-06
1.61272e-07
6.43583e-06
1.89608e-07
6.37766e-06
1.88292e-07
6.33084e-06
1.705e-07
6.30599e-06
1.51608e-07
6.3014e-06
1.40426e-07
6.30958e-06
1.38918e-07
6.32322e-06
1.44757e-07
6.33765e-06
1.53943e-07
6.35038e-06
1.63907e-07
6.36089e-06
1.71875e-07
1.78452e-07
6.36898e-06
5.75494e-06
2.19126e-07
5.78543e-06
1.98008e-07
5.79242e-06
1.03205e-07
5.79223e-06
3.57562e-08
5.78983e-06
4.78809e-08
5.79011e-06
1.03829e-07
5.79178e-06
1.59598e-07
5.79545e-06
1.85934e-07
5.8032e-06
1.80548e-07
5.81204e-06
1.61654e-07
5.81563e-06
1.48021e-07
5.81031e-06
1.45742e-07
5.79703e-06
1.52206e-07
5.77973e-06
1.62055e-07
5.76328e-06
1.70396e-07
5.75157e-06
1.7561e-07
5.74662e-06
1.76822e-07
1.76922e-07
5.74815e-06
7.12843e-06
1.28612e-07
7.13554e-06
1.90899e-07
7.09205e-06
1.46691e-07
7.02394e-06
1.03872e-07
7.00016e-06
7.16557e-08
7.03023e-06
7.37603e-08
7.08326e-06
1.06567e-07
7.12578e-06
1.43421e-07
7.14025e-06
1.66075e-07
7.1288e-06
1.73103e-07
7.10515e-06
1.71673e-07
7.0814e-06
1.69494e-07
7.06251e-06
1.71095e-07
7.04836e-06
1.76202e-07
7.03747e-06
1.81291e-07
7.02892e-06
1.8416e-07
7.02266e-06
1.83074e-07
1.79972e-07
7.01962e-06
8.6613e-06
1.20793e-07
8.68983e-06
1.62372e-07
8.66081e-06
1.75712e-07
8.63e-06
1.34682e-07
8.61037e-06
9.12857e-08
8.59962e-06
8.45072e-08
8.58991e-06
1.16278e-07
8.57385e-06
1.59476e-07
8.552e-06
1.87923e-07
8.53266e-06
1.92447e-07
8.52409e-06
1.80246e-07
8.52867e-06
1.64911e-07
8.54359e-06
1.56178e-07
8.56283e-06
1.56963e-07
8.57989e-06
1.64232e-07
8.59116e-06
1.72888e-07
8.59461e-06
1.79617e-07
1.82269e-07
8.59232e-06
1.02179e-05
2.89244e-07
1.0132e-05
2.48234e-07
1.0149e-05
1.58718e-07
1.01577e-05
1.26039e-07
1.01487e-05
1.00256e-07
1.01609e-05
7.23445e-08
1.0214e-05
6.31694e-08
1.03023e-05
7.11282e-08
1.04092e-05
8.10472e-08
1.05147e-05
8.69881e-08
1.06007e-05
9.41707e-08
1.06565e-05
1.09144e-07
1.06809e-05
1.31751e-07
1.06817e-05
1.56189e-07
1.06689e-05
1.77086e-07
1.06508e-05
1.90979e-07
1.06305e-05
1.99891e-07
2.05349e-07
1.06074e-05
1.26593e-05
2.53757e-07
1.27007e-05
2.06803e-07
1.27156e-05
1.43764e-07
1.27052e-05
1.36463e-07
1.26773e-05
1.28176e-07
1.26459e-05
1.03716e-07
1.26284e-05
8.0744e-08
1.26307e-05
6.8814e-08
1.26495e-05
6.22459e-08
1.26793e-05
5.71064e-08
1.27146e-05
5.88812e-08
1.27499e-05
7.38737e-08
1.27805e-05
1.01154e-07
1.28031e-05
1.33571e-07
1.28161e-05
1.6413e-07
1.2819e-05
1.88062e-07
1.2813e-05
2.0585e-07
2.19153e-07
1.27992e-05
1.52983e-05
7.91319e-08
1.53398e-05
1.65283e-07
1.53671e-05
1.16465e-07
1.5417e-05
8.65782e-08
1.54585e-05
8.6702e-08
1.54715e-05
9.06686e-08
1.5469e-05
8.32292e-08
1.54765e-05
6.13207e-08
1.55044e-05
3.44126e-08
1.5548e-05
1.3502e-08
1.55998e-05
7.03501e-09
1.56542e-05
1.94515e-08
1.57057e-05
4.97081e-08
1.57469e-05
9.23486e-08
1.57717e-05
1.39312e-07
1.57767e-05
1.83052e-07
1.57626e-05
2.19942e-07
2.47673e-07
1.57341e-05
1.86672e-05
-1.48813e-07
1.87449e-05
8.75796e-08
1.8689e-05
1.72386e-07
1.86211e-05
1.54471e-07
1.86124e-05
9.53856e-08
1.86648e-05
3.82625e-08
1.87537e-05
-5.62267e-09
1.88502e-05
-3.52008e-08
1.89279e-05
-4.32859e-08
1.89719e-05
-3.05575e-08
1.89819e-05
-2.89493e-09
1.89692e-05
3.21363e-08
1.89502e-05
6.86517e-08
1.89395e-05
1.03096e-07
1.89448e-05
1.34032e-07
1.89664e-05
1.61471e-07
1.90021e-05
1.84231e-07
2.02373e-07
1.90474e-05
2.28994e-05
-2.69601e-07
2.299e-05
-2.94554e-09
2.30006e-05
1.61761e-07
2.29329e-05
2.22156e-07
2.2868e-05
1.60278e-07
2.28485e-05
5.77644e-08
2.28609e-05
-1.80435e-08
2.28769e-05
-5.11334e-08
2.28853e-05
-5.17192e-08
2.2884e-05
-2.92557e-08
2.28722e-05
8.93498e-09
2.28532e-05
5.10597e-08
2.28352e-05
8.66806e-08
2.28286e-05
1.09674e-07
2.28445e-05
1.18139e-07
2.28896e-05
1.16416e-07
2.29662e-05
1.07591e-07
9.90587e-08
2.30695e-05
1.64628e-05
-9.19918e-08
1.65127e-05
-5.28663e-08
1.66851e-05
-1.05895e-08
1.69037e-05
3.5626e-09
1.70766e-05
-1.25792e-08
1.71561e-05
-2.17716e-08
1.7146e-05
-7.93667e-09
1.70827e-05
1.21853e-08
1.70002e-05
3.06973e-08
1.69285e-05
4.2466e-08
1.68887e-05
4.87256e-08
1.68874e-05
5.24123e-08
1.69199e-05
5.41697e-08
1.69751e-05
5.44834e-08
1.70395e-05
5.37024e-08
1.71029e-05
5.30385e-08
1.71584e-05
5.21253e-08
5.13647e-08
1.72061e-05
1.44147e-05
-3.34477e-08
1.45135e-05
-1.5162e-07
1.45835e-05
-8.0578e-08
1.46527e-05
-6.5668e-08
1.47206e-05
-8.05146e-08
1.47625e-05
-6.36076e-08
1.47738e-05
-1.92463e-08
1.4756e-05
2.99734e-08
1.47298e-05
5.6894e-08
1.47124e-05
5.98993e-08
1.47125e-05
4.86208e-08
1.47299e-05
3.49312e-08
1.4759e-05
2.51361e-08
1.47922e-05
2.13054e-08
1.48226e-05
2.33047e-08
1.48462e-05
2.94293e-08
1.48612e-05
3.70994e-08
4.40311e-08
1.48685e-05
1.32501e-05
4.51981e-08
1.30981e-05
3.28827e-10
1.30031e-05
1.44435e-08
1.29045e-05
3.29517e-08
1.28264e-05
-2.37979e-09
1.28196e-05
-5.68024e-08
1.28863e-05
-8.60327e-08
1.29979e-05
-8.15384e-08
1.31104e-05
-5.56471e-08
1.3192e-05
-2.16687e-08
1.32287e-05
1.18505e-08
1.32222e-05
4.14636e-08
1.31832e-05
6.4163e-08
1.31248e-05
7.96697e-08
1.30613e-05
8.67803e-08
1.3005e-05
8.57495e-08
1.2964e-05
7.81423e-08
6.78136e-08
1.29402e-05
1.11794e-05
-2.00596e-08
1.13157e-05
-1.3594e-07
1.1324e-05
6.1279e-09
1.12776e-05
7.93489e-08
1.1213e-05
6.22015e-08
1.11634e-05
-7.22504e-09
1.11438e-05
-6.63571e-08
1.1151e-05
-8.87938e-08
1.11729e-05
-7.75374e-08
1.11996e-05
-4.83709e-08
1.12264e-05
-1.48821e-08
1.12537e-05
1.41514e-08
1.12821e-05
3.57288e-08
1.13134e-05
4.83511e-08
1.13485e-05
5.16877e-08
1.13863e-05
4.79897e-08
1.14241e-05
4.03113e-08
3.24049e-08
1.14595e-05
9.71441e-06
-2.68066e-08
9.66117e-06
-8.27043e-08
9.65709e-06
1.02089e-08
9.68474e-06
5.17068e-08
9.72241e-06
2.45233e-08
9.74639e-06
-3.12035e-08
9.74995e-06
-6.99131e-08
9.73988e-06
-7.87304e-08
9.72849e-06
-6.61446e-08
9.72863e-06
-4.851e-08
9.74758e-06
-3.38291e-08
9.78345e-06
-2.17152e-08
9.8288e-06
-9.622e-09
9.87388e-06
3.26722e-09
9.91053e-06
1.50382e-08
9.93465e-06
2.38735e-08
9.9451e-06
2.98587e-08
3.37639e-08
9.94374e-06
8.61779e-06
8.44209e-08
8.53883e-06
-3.75007e-09
8.51055e-06
3.84877e-08
8.50173e-06
6.05321e-08
8.48992e-06
3.63285e-08
8.47587e-06
-1.71533e-08
8.4765e-06
-7.0538e-08
8.49421e-06
-9.64459e-08
8.51848e-06
-9.04067e-08
8.53954e-06
-6.95774e-08
8.55588e-06
-5.01608e-08
8.57074e-06
-3.65754e-08
8.58671e-06
-2.56007e-08
8.60316e-06
-1.31796e-08
8.61718e-06
1.0226e-09
8.6257e-06
1.53448e-08
8.62732e-06
2.82396e-08
3.74007e-08
8.62369e-06
7.26602e-06
-8.94321e-09
7.30604e-06
-4.37735e-08
7.37407e-06
-2.95436e-08
7.42982e-06
4.78291e-09
7.44729e-06
1.8861e-08
7.42556e-06
4.5796e-09
7.37868e-06
-2.36577e-08
7.32766e-06
-4.54334e-08
7.29166e-06
-5.44057e-08
7.27837e-06
-5.62853e-08
7.28631e-06
-5.8099e-08
7.31064e-06
-6.09113e-08
7.34624e-06
-6.11982e-08
7.38799e-06
-5.4929e-08
7.43044e-06
-4.14207e-08
7.46938e-06
-2.3601e-08
7.5027e-06
-5.07597e-09
8.89653e-09
7.5312e-06
6.44311e-06
3.78799e-09
6.40099e-06
-1.65753e-09
6.39441e-06
-2.29565e-08
6.41634e-06
-1.71541e-08
6.44719e-06
-1.19869e-08
6.47427e-06
-2.25015e-08
6.49226e-06
-4.16465e-08
6.5077e-06
-6.08764e-08
6.52702e-06
-7.3723e-08
6.54794e-06
-7.72063e-08
6.56143e-06
-7.15866e-08
6.56019e-06
-5.96678e-08
6.5446e-06
-4.56164e-08
6.52209e-06
-3.24093e-08
6.50276e-06
-2.20953e-08
6.49416e-06
-1.49999e-08
6.49994e-06
-1.08589e-08
-1.01753e-08
6.51901e-06
5.59635e-06
-9.23445e-08
5.63436e-06
-3.96647e-08
5.64539e-06
-3.39828e-08
5.63094e-06
-2.7093e-09
5.60413e-06
1.48279e-08
5.57946e-06
2.16367e-09
5.56747e-06
-2.96516e-08
5.57068e-06
-6.40866e-08
5.58406e-06
-8.71042e-08
5.60121e-06
-9.43604e-08
5.61785e-06
-8.82279e-08
5.63256e-06
-7.43731e-08
5.64582e-06
-5.88747e-08
5.65835e-06
-4.49439e-08
5.67028e-06
-3.40251e-08
5.68168e-06
-2.64012e-08
5.69239e-06
-2.1564e-08
-2.03138e-08
5.70253e-06
4.85274e-06
-3.48381e-08
4.83842e-06
-2.53413e-08
4.85659e-06
-5.21505e-08
4.90736e-06
-5.34811e-08
4.9692e-06
-4.70093e-08
5.0099e-06
-3.85377e-08
5.01549e-06
-3.52398e-08
4.99403e-06
-4.263e-08
4.9633e-06
-5.63807e-08
4.93667e-06
-6.77254e-08
4.91908e-06
-7.0637e-08
4.90993e-06
-6.52264e-08
4.90691e-06
-5.58562e-08
4.90814e-06
-4.61709e-08
4.91195e-06
-3.7831e-08
4.9168e-06
-3.12555e-08
4.92096e-06
-2.57245e-08
-2.23967e-08
4.92304e-06
4.02218e-06
3.99684e-06
3.94469e-06
3.89121e-06
3.8442e-06
3.80566e-06
3.77042e-06
3.72779e-06
3.67141e-06
3.60368e-06
3.53305e-06
3.46782e-06
3.41196e-06
3.36579e-06
3.32796e-06
3.29671e-06
3.27098e-06
3.24859e-06
-1.9666e-07
1.9666e-07
-5.77865e-08
-1.38874e-07
4.23982e-07
-4.81768e-07
1.0467e-06
-6.22722e-07
1.68899e-06
-6.42285e-07
2.27939e-06
-5.904e-07
2.78279e-06
-5.03403e-07
3.1859e-06
-4.03113e-07
3.48999e-06
-3.04083e-07
3.69052e-06
-2.00537e-07
3.79279e-06
-1.02262e-07
3.82252e-06
-2.97296e-08
3.76684e-06
5.5673e-08
3.62128e-06
1.45565e-07
3.43934e-06
1.81942e-07
3.2069e-06
2.32433e-07
2.87178e-06
3.35125e-07
2.52629e-06
3.45488e-07
2.29262e-06
2.33667e-07
2.16381e-06
1.28818e-07
2.0846e-06
7.92052e-08
2.05654e-06
2.80634e-08
2.12256e-06
-6.60249e-08
2.24716e-06
-1.24597e-07
2.28837e-06
-4.12108e-08
2.17267e-06
1.157e-07
2.03142e-06
1.41251e-07
1.95994e-06
7.14813e-08
1.90623e-06
5.37096e-08
1.78259e-06
1.23641e-07
1.47901e-06
3.03579e-07
8.43623e-07
6.35385e-07
-1.119e-07
9.55523e-07
-1.21471e-06
1.10281e-06
-2.35591e-06
1.14121e-06
-3.48735e-06
1.13143e-06
-4.57975e-06
1.09241e-06
-5.61156e-06
1.03181e-06
-6.56895e-06
9.57383e-07
-7.44351e-06
8.74565e-07
-8.23142e-06
7.87909e-07
-8.93246e-06
7.01042e-07
-9.549e-06
6.16536e-07
-1.0085e-05
5.3602e-07
-1.05451e-05
4.60108e-07
-1.09338e-05
3.88645e-07
-1.12549e-05
3.21105e-07
-1.15116e-05
2.56755e-07
-1.17065e-05
1.94823e-07
-1.18411e-05
1.34611e-07
-1.19169e-05
7.5853e-08
-1.19359e-05
1.90082e-08
-1.19007e-05
-3.52569e-08
-1.18131e-05
-8.75709e-08
-1.16756e-05
-1.37484e-07
-1.14909e-05
-1.84762e-07
-1.12618e-05
-2.29089e-07
-1.0992e-05
-2.69803e-07
-1.06855e-05
-3.06415e-07
-1.03471e-05
-3.38463e-07
-9.98132e-06
-3.65764e-07
-9.59293e-06
-3.88387e-07
-9.18625e-06
-4.06679e-07
-8.76496e-06
-4.21296e-07
-8.33177e-06
-4.33192e-07
-7.88815e-06
-4.43617e-07
-7.43412e-06
-4.5403e-07
-6.96824e-06
-4.65878e-07
-6.48772e-06
-4.80522e-07
-5.9884e-06
-4.9932e-07
-5.46509e-06
-5.23305e-07
-4.91152e-06
-5.53573e-07
-4.32022e-06
-5.91299e-07
-3.68566e-06
-6.34557e-07
-3.00682e-06
-6.78841e-07
-2.28832e-06
-7.18504e-07
-1.53921e-06
-7.49106e-07
-7.6751e-07
-7.71702e-07
1.87007e-08
-7.86211e-07
8.03675e-07
-7.84974e-07
1.59628e-06
-7.92601e-07
2.46273e-06
-8.66455e-07
3.40374e-06
-9.41013e-07
4.30669e-06
-9.02944e-07
5.22486e-06
-9.18168e-07
6.21882e-06
-9.93963e-07
6.91913e-06
-7.00315e-07
7.201e-06
-2.81869e-07
7.17816e-06
2.28429e-08
6.22461e-06
9.53549e-07
4.42321e-06
1.8014e-06
2.76707e-06
1.65614e-06
1.64766e-06
1.11941e-06
1.01886e-06
6.28799e-07
1.15754e-06
-1.38683e-07
1.50481e-06
-3.47271e-07
8.53724e-07
6.5109e-07
5.72176e-07
2.81548e-07
1.21155e-06
-6.39371e-07
5.76959e-07
6.34587e-07
-1.89388e-06
2.47084e-06
-4.52848e-06
2.6346e-06
-6.73309e-06
2.20461e-06
-8.50094e-06
1.76784e-06
-9.86586e-06
1.36493e-06
-1.08932e-05
1.02734e-06
-1.16392e-05
7.4597e-07
-1.21467e-05
5.07501e-07
-1.24505e-05
3.03779e-07
-1.25755e-05
1.25015e-07
-1.25469e-05
-2.85953e-08
-1.23926e-05
-1.54258e-07
-1.21287e-05
-2.63885e-07
-1.17718e-05
-3.56941e-07
-1.13386e-05
-4.33195e-07
-1.0844e-05
-4.94629e-07
-1.03009e-05
-5.43051e-07
-9.72001e-06
-5.8091e-07
-9.10895e-06
-6.11059e-07
-8.47257e-06
-6.36382e-07
-7.81311e-06
-6.59455e-07
-7.13099e-06
-6.82118e-07
-6.42432e-06
-7.06674e-07
-5.68953e-06
-7.34788e-07
-4.92243e-06
-7.67099e-07
-4.12028e-06
-8.02156e-07
-3.28408e-06
-8.36197e-07
-2.41874e-06
-8.65343e-07
-1.53641e-06
-8.82324e-07
-6.55627e-07
-8.80788e-07
2.05159e-07
-8.60786e-07
1.02986e-06
-8.24702e-07
1.80061e-06
-7.70747e-07
2.50613e-06
-7.05521e-07
3.14016e-06
-6.34028e-07
3.70109e-06
-5.60936e-07
4.19126e-06
-4.90171e-07
4.61656e-06
-4.25293e-07
4.98383e-06
-3.67268e-07
5.30097e-06
-3.17148e-07
5.58178e-06
-2.80806e-07
5.83412e-06
-2.52341e-07
6.05808e-06
-2.23958e-07
6.27051e-06
-2.12426e-07
6.47496e-06
-2.04456e-07
6.6589e-06
-1.83934e-07
6.83876e-06
-1.79868e-07
6.97517e-06
-1.36404e-07
7.06547e-06
-9.03035e-08
7.22426e-06
-1.58793e-07
7.31234e-06
-8.80744e-08
7.13568e-06
1.76663e-07
6.58387e-06
5.5181e-07
5.28716e-06
1.29671e-06
3.54898e-06
1.73818e-06
2.33903e-06
1.20994e-06
1.97253e-06
3.66502e-07
1.95698e-06
1.5548e-08
1.82332e-06
1.33662e-07
1.40823e-06
4.15094e-07
7.71102e-07
6.37125e-07
1.20552e-07
6.5055e-07
-2.76189e-07
3.96741e-07
-2.76419e-07
2.30178e-10
1.04863e-07
-3.81282e-07
7.38277e-07
-6.33414e-07
1.5132e-06
-7.74919e-07
2.1834e-06
-6.70207e-07
2.47485e-06
-2.91446e-07
2.4514e-06
2.34443e-08
2.43521e-06
1.61979e-08
2.52889e-06
-9.36868e-08
2.46636e-06
6.25321e-08
1.79843e-06
6.67929e-07
-3.99944e-08
1.83843e-06
-2.78581e-06
2.74581e-06
-5.03527e-06
2.24947e-06
-6.18402e-06
1.14874e-06
-6.71287e-06
5.28852e-07
-1.49934e-07
-6.56293e-06
1.93569e-07
3.09111e-09
8.16468e-07
-7.61773e-07
1.47799e-06
-1.14329e-06
2.06936e-06
-1.21409e-06
2.57019e-06
-1.14312e-06
2.98097e-06
-1.00118e-06
3.31055e-06
-8.32982e-07
3.56412e-06
-6.56688e-07
3.74698e-06
-4.86939e-07
3.87017e-06
-3.23726e-07
3.94093e-06
-1.73018e-07
3.96504e-06
-5.38455e-08
3.95071e-06
6.99996e-08
3.9035e-06
1.92783e-07
3.83064e-06
2.548e-07
3.7681e-06
2.9497e-07
3.71897e-06
3.84261e-07
3.60994e-06
4.54511e-07
3.42205e-06
4.21559e-07
3.26931e-06
2.81556e-07
3.23816e-06
1.10353e-07
3.24937e-06
1.6859e-08
3.18386e-06
-5.159e-10
3.0277e-06
3.1565e-08
2.81519e-06
1.71296e-07
2.52894e-06
4.01953e-07
2.06152e-06
6.08672e-07
1.32104e-06
8.11957e-07
2.64444e-07
1.11031e-06
-1.03298e-06
1.42107e-06
-2.37955e-06
1.65015e-06
-3.56669e-06
1.82252e-06
-4.55547e-06
1.9443e-06
-5.43946e-06
1.9868e-06
-6.26421e-06
1.96595e-06
-7.03102e-06
1.89825e-06
-7.73771e-06
1.7991e-06
-8.38485e-06
1.67895e-06
-8.97375e-06
1.54629e-06
-9.50667e-06
1.40748e-06
-9.98624e-06
1.26749e-06
-1.04151e-05
1.12994e-06
-1.07966e-05
9.97956e-07
-1.11338e-05
8.73209e-07
-1.14285e-05
7.54896e-07
-1.16819e-05
6.42042e-07
-1.18942e-05
5.33327e-07
-1.20647e-05
4.27307e-07
-1.21926e-05
3.22717e-07
-1.22765e-05
2.18547e-07
-1.23148e-05
1.14112e-07
-1.23062e-05
1.03834e-08
-1.22463e-05
-9.51475e-08
-1.21355e-05
-1.98405e-07
-1.19738e-05
-2.99101e-07
-1.17626e-05
-3.95976e-07
-1.15045e-05
-4.87203e-07
-1.12031e-05
-5.71237e-07
-1.08628e-05
-6.46642e-07
-1.04889e-05
-7.12402e-07
-1.00867e-05
-7.67963e-07
-9.66174e-06
-8.13356e-07
-9.21923e-06
-8.49189e-07
-8.76386e-06
-8.76661e-07
-8.29947e-06
-8.9759e-07
-7.82874e-06
-9.14346e-07
-7.35309e-06
-9.29675e-07
-6.87248e-06
-9.46486e-07
-6.38528e-06
-9.67723e-07
-5.8885e-06
-9.96099e-07
-5.37814e-06
-1.03367e-06
-4.84989e-06
-1.08182e-06
-4.29958e-06
-1.1416e-06
-3.72186e-06
-1.21228e-06
-3.11148e-06
-1.28922e-06
-2.46597e-06
-1.36402e-06
-1.78737e-06
-1.42771e-06
-1.08129e-06
-1.47778e-06
-3.4553e-07
-1.52197e-06
4.26084e-07
-1.55659e-06
1.21518e-06
-1.5817e-06
2.00572e-06
-1.657e-06
2.83872e-06
-1.77401e-06
3.75654e-06
-1.82076e-06
4.70647e-06
-1.8681e-06
5.65799e-06
-1.94548e-06
6.53135e-06
-1.57367e-06
7.01789e-06
-7.68406e-07
7.13683e-06
-9.61024e-08
7.12943e-06
9.6095e-07
6.47749e-06
2.45334e-06
4.99307e-06
3.14057e-06
3.3122e-06
2.80028e-06
2.00758e-06
1.93342e-06
1.57999e-06
2.88909e-07
1.56755e-06
-3.34834e-07
1.32392e-06
8.94723e-07
9.85389e-07
6.20075e-07
-7.75854e-07
1.12187e-06
-3.53654e-06
3.39528e-06
-5.69512e-06
4.62942e-06
-7.31683e-06
4.25631e-06
-8.6575e-06
3.54528e-06
-9.70412e-06
2.81446e-06
-1.05271e-05
2.18789e-06
-1.11589e-05
1.65913e-06
-1.16302e-05
1.21728e-06
-1.19576e-05
8.34882e-07
-1.21511e-05
4.97363e-07
-1.22187e-05
1.92604e-07
-1.21652e-05
-8.21079e-08
-1.19959e-05
-3.23568e-07
-1.17225e-05
-5.37262e-07
-1.13589e-05
-7.20524e-07
-1.09195e-05
-8.72661e-07
-1.04195e-05
-9.94588e-07
-9.87211e-06
-1.09046e-06
-9.28799e-06
-1.16503e-06
-8.67534e-06
-1.22371e-06
-8.03897e-06
-1.27276e-06
-7.38116e-06
-1.31726e-06
-6.70207e-06
-1.36121e-06
-6.00003e-06
-1.40871e-06
-5.27141e-06
-1.46341e-06
-4.51135e-06
-1.52715e-06
-3.71604e-06
-1.59747e-06
-2.88597e-06
-1.66627e-06
-2.02721e-06
-1.7241e-06
-1.15128e-06
-1.75825e-06
-2.75219e-07
-1.75685e-06
5.85403e-07
-1.72141e-06
1.40957e-06
-1.64887e-06
2.18473e-06
-1.5459e-06
2.90179e-06
-1.42259e-06
3.55707e-06
-1.2893e-06
4.15097e-06
-1.15484e-06
4.68487e-06
-1.02407e-06
5.15957e-06
-8.99995e-07
5.57955e-06
-7.8724e-07
5.94985e-06
-6.87448e-07
6.27105e-06
-6.02015e-07
6.552e-06
-5.33287e-07
6.80319e-06
-4.75145e-07
7.02618e-06
-4.35418e-07
7.23596e-06
-4.14241e-07
7.43147e-06
-3.79443e-07
7.59757e-06
-3.45968e-07
7.74868e-06
-2.87512e-07
7.85179e-06
-1.93416e-07
7.90573e-06
-2.12728e-07
8.01818e-06
-2.00524e-07
8.16814e-06
2.67042e-08
8.24449e-06
4.75458e-07
8.14262e-06
1.39857e-06
7.68853e-06
2.19227e-06
6.60181e-06
2.29666e-06
5.07233e-06
1.89598e-06
3.83457e-06
1.25331e-06
3.1305e-06
8.37734e-07
2.47262e-06
1.07297e-06
1.64805e-06
1.4617e-06
8.90862e-07
1.40774e-06
3.95442e-07
8.92161e-07
2.90968e-07
1.04704e-07
5.55287e-07
-6.456e-07
1.05591e-06
-1.13404e-06
1.70138e-06
-1.42038e-06
2.44352e-06
-1.41235e-06
3.08622e-06
-9.34152e-07
3.38596e-06
-2.76294e-07
3.28205e-06
1.20106e-07
2.82447e-06
3.63892e-07
1.91262e-06
9.74384e-07
2.2207e-07
2.35848e-06
-2.31015e-06
4.37064e-06
-4.57778e-06
5.01344e-06
-5.86563e-06
3.53732e-06
-6.51566e-06
1.79877e-06
-6.84366e-06
8.56855e-07
-1.49778e-07
-6.84382e-06
7.24004e-07
-7.20912e-07
1.45234e-06
-1.49011e-06
1.91506e-06
-1.60601e-06
2.20019e-06
-1.49921e-06
2.37591e-06
-1.31883e-06
2.49519e-06
-1.12046e-06
2.58872e-06
-9.26516e-07
2.67068e-06
-7.38649e-07
2.73388e-06
-5.50134e-07
2.77836e-06
-3.68209e-07
2.81986e-06
-2.14521e-07
2.84441e-06
-7.83969e-08
2.82854e-06
8.5868e-08
2.78326e-06
2.38064e-07
2.72949e-06
3.08578e-07
2.69886e-06
3.25597e-07
2.72478e-06
3.58336e-07
2.78586e-06
3.93438e-07
2.85457e-06
3.5284e-07
2.90678e-06
2.29355e-07
2.87909e-06
1.38038e-07
2.68759e-06
2.08358e-07
2.24582e-06
4.41253e-07
1.53868e-06
7.38712e-07
6.61992e-07
1.04798e-06
-3.02426e-07
1.36637e-06
-1.3528e-06
1.65905e-06
-2.45666e-06
1.91582e-06
-3.48775e-06
2.1414e-06
-4.39231e-06
2.32562e-06
-5.1924e-06
2.45024e-06
-5.88908e-06
2.5192e-06
-6.48092e-06
2.53614e-06
-7.00161e-06
2.5075e-06
-7.48174e-06
2.44608e-06
-7.94237e-06
2.35888e-06
-8.39442e-06
2.25114e-06
-8.84129e-06
2.12582e-06
-9.28114e-06
1.98613e-06
-9.70945e-06
1.8358e-06
-1.0121e-05
1.67905e-06
-1.05112e-05
1.52016e-06
-1.08759e-05
1.36259e-06
-1.12112e-05
1.20853e-06
-1.15147e-05
1.0584e-06
-1.1784e-05
9.11314e-07
-1.20163e-05
7.65621e-07
-1.22085e-05
6.19511e-07
-1.23572e-05
4.71453e-07
-1.24589e-05
3.20245e-07
-1.25097e-05
1.64929e-07
-1.25028e-05
3.42439e-09
-1.2446e-05
-1.5194e-07
-1.23346e-05
-3.09753e-07
-1.21682e-05
-4.65487e-07
-1.19484e-05
-6.15803e-07
-1.16779e-05
-7.57677e-07
-1.13611e-05
-8.88028e-07
-1.10033e-05
-1.00446e-06
-1.06105e-05
-1.10521e-06
-1.01891e-05
-1.18934e-06
-9.74558e-06
-1.25691e-06
-9.28582e-06
-1.30894e-06
-8.81501e-06
-1.34747e-06
-8.33716e-06
-1.37544e-06
-7.85491e-06
-1.3966e-06
-7.36936e-06
-1.41522e-06
-6.88016e-06
-1.43569e-06
-6.3857e-06
-1.46219e-06
-5.88344e-06
-1.49836e-06
-5.37023e-06
-1.54688e-06
-4.84267e-06
-1.60938e-06
-4.29822e-06
-1.68605e-06
-3.73553e-06
-1.77498e-06
-3.153e-06
-1.87175e-06
-2.5477e-06
-1.96932e-06
-1.91617e-06
-2.05923e-06
-1.25969e-06
-2.13426e-06
-5.84431e-07
-2.19723e-06
1.19639e-07
-2.26066e-06
8.63328e-07
-2.32539e-06
1.61368e-06
-2.40735e-06
2.35835e-06
-2.51868e-06
3.1835e-06
-2.64591e-06
4.1129e-06
-2.7975e-06
5.01801e-06
-2.85059e-06
5.83807e-06
-2.39373e-06
6.40192e-06
-1.33226e-06
6.58973e-06
-2.83912e-07
6.65299e-06
8.97697e-07
6.53188e-06
2.57445e-06
5.81392e-06
3.85853e-06
4.4934e-06
4.1208e-06
3.10723e-06
3.31959e-06
2.13988e-06
1.25626e-06
1.47591e-06
3.29144e-07
1.04805e-06
1.32257e-06
-8.79021e-08
1.75603e-06
-2.58334e-06
3.61731e-06
-4.97606e-06
5.78799e-06
-6.39379e-06
6.04715e-06
-7.3531e-06
5.21562e-06
-8.20932e-06
4.4015e-06
-8.98858e-06
3.59372e-06
-9.69759e-06
2.8969e-06
-1.03056e-05
2.26718e-06
-1.07933e-05
1.70491e-06
-1.11488e-05
1.19039e-06
-1.13689e-05
7.17454e-07
-1.14555e-05
2.79247e-07
-1.14174e-05
-1.20265e-07
-1.1267e-05
-4.73892e-07
-1.10146e-05
-7.89716e-07
-1.06729e-05
-1.06218e-06
-1.02557e-05
-1.28987e-06
-9.77637e-06
-1.47393e-06
-9.24735e-06
-1.61948e-06
-8.6787e-06
-1.73369e-06
-8.07859e-06
-1.82381e-06
-7.45268e-06
-1.89867e-06
-6.80412e-06
-1.96583e-06
-6.13429e-06
-2.03103e-06
-5.44301e-06
-2.09999e-06
-4.72909e-06
-2.17732e-06
-3.98791e-06
-2.26834e-06
-3.21437e-06
-2.37101e-06
-2.40754e-06
-2.4731e-06
-1.5748e-06
-2.55684e-06
-7.28905e-07
-2.60415e-06
1.14251e-07
-2.6e-06
9.35606e-07
-2.54276e-06
1.71686e-06
-2.43012e-06
2.44477e-06
-2.27381e-06
3.11175e-06
-2.08957e-06
3.71772e-06
-1.89527e-06
4.26929e-06
-1.70641e-06
4.77666e-06
-1.53144e-06
5.24857e-06
-1.3719e-06
5.68778e-06
-1.22645e-06
6.09262e-06
-1.09229e-06
6.46017e-06
-9.69567e-07
6.78752e-06
-8.60629e-07
7.07264e-06
-7.60273e-07
7.31584e-06
-6.78615e-07
7.53135e-06
-6.29746e-07
7.74064e-06
-5.88742e-07
7.94069e-06
-5.46018e-07
8.09483e-06
-4.41648e-07
8.14202e-06
-2.40608e-07
8.09111e-06
-1.61819e-07
8.08971e-06
-1.99115e-07
8.26118e-06
-1.44773e-07
8.5614e-06
1.75244e-07
8.82704e-06
1.13293e-06
8.81246e-06
2.20686e-06
8.43086e-06
2.67826e-06
7.49492e-06
2.83192e-06
6.06121e-06
2.68701e-06
4.703e-06
2.19594e-06
3.69381e-06
2.08216e-06
2.80822e-06
2.3473e-06
1.95284e-06
2.26311e-06
1.27911e-06
1.56589e-06
1.01311e-06
3.70699e-07
1.17052e-06
-8.0301e-07
1.54299e-06
-1.50651e-06
1.98764e-06
-1.86503e-06
2.52852e-06
-1.95322e-06
3.07341e-06
-1.47905e-06
3.33241e-06
-5.35289e-07
3.07186e-06
3.80656e-07
2.21997e-06
1.21578e-06
7.72048e-07
2.42231e-06
-1.25088e-06
4.38141e-06
-3.31715e-06
6.43691e-06
-4.7502e-06
6.44649e-06
-5.53345e-06
4.32057e-06
-6.19006e-06
2.45538e-06
-6.63244e-06
1.29924e-06
-2.77388e-08
-6.75448e-06
6.92316e-07
-1.41323e-06
1.02678e-06
-1.82457e-06
1.07034e-06
-1.64958e-06
1.02804e-06
-1.45691e-06
9.71782e-07
-1.26257e-06
9.47982e-07
-1.09666e-06
9.62179e-07
-9.40713e-07
9.94001e-07
-7.70471e-07
1.01301e-06
-5.69147e-07
1.01352e-06
-3.68715e-07
1.02248e-06
-2.23478e-07
1.05133e-06
-1.07247e-07
1.09047e-06
4.67241e-08
1.14882e-06
1.79718e-07
1.21718e-06
2.40221e-07
1.27139e-06
2.71382e-07
1.32455e-06
3.05179e-07
1.37423e-06
3.43756e-07
1.3192e-06
4.07875e-07
1.01919e-06
5.29364e-07
4.50964e-07
7.0626e-07
-2.75522e-07
9.34844e-07
-1.05571e-06
1.22145e-06
-1.85008e-06
1.53308e-06
-2.64725e-06
1.84515e-06
-3.41628e-06
2.1354e-06
-4.1401e-06
2.38287e-06
-4.80197e-06
2.57769e-06
-5.37827e-06
2.71769e-06
-5.86469e-06
2.81204e-06
-6.28575e-06
2.8713e-06
-6.66592e-06
2.89938e-06
-7.02887e-06
2.89909e-06
-7.39484e-06
2.87346e-06
-7.7738e-06
2.82504e-06
-8.16773e-06
2.7528e-06
-8.57171e-06
2.65512e-06
-8.97674e-06
2.53086e-06
-9.37332e-06
2.38271e-06
-9.75416e-06
2.21663e-06
-1.01153e-05
2.04016e-06
-1.04555e-05
1.86042e-06
-1.07753e-05
1.68236e-06
-1.10748e-05
1.50805e-06
-1.13533e-05
1.33688e-06
-1.16086e-05
1.16663e-06
-1.18372e-05
9.94175e-07
-1.20339e-05
8.16267e-07
-1.21929e-05
6.30443e-07
-1.23085e-05
4.35798e-07
-1.23759e-05
2.32394e-07
-1.23883e-05
1.58112e-08
-1.23466e-05
-1.93631e-07
-1.22459e-05
-4.10453e-07
-1.20852e-05
-6.26217e-07
-1.18665e-05
-8.34469e-07
-1.15936e-05
-1.03062e-06
-1.12713e-05
-1.21036e-06
-1.09056e-05
-1.3701e-06
-1.05038e-05
-1.50703e-06
-1.00736e-05
-1.61958e-06
-9.62285e-06
-1.70763e-06
-9.15916e-06
-1.77264e-06
-8.68894e-06
-1.81769e-06
-8.21707e-06
-1.84731e-06
-7.74639e-06
-1.86728e-06
-7.27742e-06
-1.88419e-06
-6.80839e-06
-1.90472e-06
-6.33572e-06
-1.93486e-06
-5.85448e-06
-1.97959e-06
-5.35872e-06
-2.04265e-06
-4.84195e-06
-2.12615e-06
-4.29857e-06
-2.22943e-06
-3.72587e-06
-2.34768e-06
-3.12605e-06
-2.47157e-06
-2.50577e-06
-2.5896e-06
-1.87166e-06
-2.69334e-06
-1.22605e-06
-2.77988e-06
-5.73877e-07
-2.84939e-06
7.95987e-08
-2.91413e-06
7.50951e-07
-2.99674e-06
1.44516e-06
-3.10155e-06
2.14044e-06
-3.21396e-06
2.85841e-06
-3.36388e-06
3.66851e-06
-3.6076e-06
4.48566e-06
-3.66775e-06
5.20372e-06
-3.11179e-06
5.77403e-06
-1.90258e-06
6.02062e-06
-5.30504e-07
6.05139e-06
8.66934e-07
6.0623e-06
2.56354e-06
5.79868e-06
4.12215e-06
4.95206e-06
4.96741e-06
3.85191e-06
4.41974e-06
2.84289e-06
2.26527e-06
1.95123e-06
1.22081e-06
1.05176e-06
2.22204e-06
-7.9701e-07
3.6048e-06
-3.22388e-06
6.04418e-06
-4.9941e-06
7.55821e-06
-5.94902e-06
7.00207e-06
-6.73711e-06
6.00371e-06
-7.48044e-06
5.14483e-06
-8.18822e-06
4.3015e-06
-8.83411e-06
3.5428e-06
-9.3897e-06
2.82276e-06
-9.83746e-06
2.15267e-06
-1.01666e-05
1.51954e-06
-1.03725e-05
9.23353e-07
-1.04579e-05
3.64654e-07
-1.04296e-05
-1.48605e-07
-1.02949e-05
-6.08557e-07
-1.00694e-05
-1.01521e-06
-9.766e-06
-1.3656e-06
-9.39626e-06
-1.65962e-06
-8.97015e-06
-1.90003e-06