/*--------------------------------*- C++ -*----------------------------------*\
| =========                 |                                                 |
| \\      /  F ield         | OpenFOAM: The Open Source CFD Toolbox           |
|  \\    /   O peration     | Version:  2112                                  |
|   \\  /    A nd           | Website:  www.openfoam.com                      |
|    \\/     M anipulation  |                                                 |
\*---------------------------------------------------------------------------*/
FoamFile
{
    version     2.0;
    format      ascii;
    arch        "LSB;label=32;scalar=64";
    class       volScalarField;
    location    "0.07";
    object      pMean;
}
// * * * * * * * * * * * * * * * * * * * * * * * * * * * * * * * * * * * * * //

dimensions      [0 2 -2 0 0 0 0];

internalField   nonuniform List<scalar> 
12225
(
10.0976
9.31658
8.88665
8.68341
8.54657
8.42105
8.30333
8.20161
8.12254
8.06889
8.04243
8.04279
8.0703
8.11454
8.16135
8.12939
7.9568
7.44936
9.87
9.28777
8.88528
8.67342
8.53477
8.41079
8.29354
8.19117
8.11038
8.05467
8.02404
8.01994
8.03725
8.07418
8.09726
8.07597
7.87625
7.59117
9.78814
9.28139
8.89355
8.66921
8.52526
8.40179
8.28485
8.18082
8.09734
8.03697
8.00017
7.98451
7.9874
7.99665
7.99405
7.9341
7.76803
7.49312
9.63382
9.23239
8.88393
8.65683
8.50821
8.38551
8.26946
8.16449
8.07771
8.0126
7.96756
7.94083
7.92503
7.91183
7.87752
7.79772
7.63504
7.38671
9.55671
9.19928
8.87881
8.6523
8.49697
8.37168
8.25541
8.14878
8.05826
7.98689
7.9333
7.89363
7.86097
7.82494
7.76783
7.67015
7.5093
7.28297
9.4865
9.14549
8.85491
8.63801
8.47904
8.35081
8.23398
8.12621
8.03206
7.95434
7.89145
7.83905
7.78987
7.73398
7.65759
7.54538
7.3837
7.16758
9.39931
9.09612
8.83316
8.62548
8.46341
8.33056
8.21163
8.10185
8.00358
7.91883
7.84596
7.78045
7.71528
7.64153
7.5481
7.42342
7.25776
7.0462
9.33082
9.04073
8.79858
8.6035
8.44212
8.30578
8.18404
8.07184
7.96934
7.87749
7.79467
7.71645
7.63641
7.54664
7.43821
7.30219
7.13126
6.92142
9.2555
8.98674
8.76508
8.58087
8.42073
8.28031
8.15449
8.0388
7.93155
7.83223
7.73924
7.64865
7.55467
7.45052
7.32885
7.18274
7.00665
6.79731
9.19583
8.92722
8.72056
8.54971
8.39287
8.24992
8.12035
8.00075
7.88842
7.78194
7.67927
7.57698
7.47017
7.35306
7.21979
7.06499
6.8845
6.67594
9.11761
8.87246
8.67991
8.5168
8.36264
8.2178
8.08387
7.9595
7.84175
7.72794
7.61589
7.50266
7.38417
7.25573
7.1126
6.95067
6.76678
6.55922
9.0278
8.80788
8.63471
8.48061
8.32901
8.18288
8.04603
7.9175
7.79439
7.67405
7.55409
7.43184
7.30393
7.16652
7.0158
6.84862
6.66263
6.45681
8.99135
8.76552
8.59311
8.44432
8.29547
8.14836
8.00792
7.87466
7.746
7.61917
7.49171
7.36117
7.22476
7.0795
6.92245
6.75122
6.56407
6.36035
8.89107
8.69095
8.53769
8.39676
8.25028
8.10265
7.95938
7.82148
7.68711
7.55359
7.41847
7.27968
7.13506
6.98244
6.81971
6.64525
6.45792
6.25762
8.84094
8.63374
8.47833
8.34188
8.19895
8.0506
7.90298
7.75913
7.61821
7.47763
7.335
7.18848
7.03656
6.87776
6.71067
6.53432
6.34818
6.15236
8.79339
8.56832
8.40789
8.27456
8.13491
7.9865
7.83563
7.68649
7.53902
7.39125
7.2412
7.08756
6.92928
6.76553
6.59557
6.41896
6.23551
6.04558
8.7036
8.48685
8.33314
8.20284
8.06356
7.91303
7.75812
7.60366
7.45029
7.29642
7.14038
6.98124
6.81844
6.65165
6.4806
6.3053
6.12585
5.94278
8.62014
8.41596
8.26487
8.13258
7.99
7.83626
7.6778
7.51852
7.35934
7.19964
7.03842
6.875
6.70917
6.54098
6.37051
6.19795
6.02357
5.84783
8.54653
8.33258
8.18054
8.05122
7.91067
7.75575
7.59327
7.42909
7.26536
7.1018
6.93761
6.77234
6.60596
6.43875
6.27102
6.10304
5.93508
5.76746
8.57851
8.35222
8.1821
8.03448
7.87941
7.71485
7.54647
7.37838
7.21148
7.04519
6.87886
6.71231
6.54584
6.37985
6.21465
6.05053
5.88771
5.72662
8.45977
8.28112
8.14092
8.00147
7.84525
7.67802
7.50758
7.33794
7.16971
7.00222
6.83501
6.66827
6.50243
6.33795
6.17505
6.01387
5.85455
5.69725
8.57711
8.35259
8.1775
8.01942
7.85182
7.6762
7.50001
7.32668
7.15596
6.98661
6.81806
6.65058
6.48468
6.32079
6.1591
5.99978
5.84296
5.68892
8.60812
8.36068
8.17073
8.00524
7.83515
7.65907
7.48261
7.30836
7.13628
6.96578
6.79671
6.62941
6.4643
6.30166
6.1416
5.98421
5.8296
5.67795
8.66696
8.42367
8.22123
8.03554
7.84969
7.66663
7.48813
7.31245
7.13804
6.96508
6.79436
6.62632
6.46111
6.29875
6.13924
5.98266
5.82918
5.67898
8.67499
8.44407
8.23052
8.0283
7.83675
7.65608
7.48023
7.30437
7.12844
6.95448
6.78372
6.61629
6.45186
6.29029
6.13167
5.9762
5.82412
5.67553
8.7919
8.52635
8.27312
8.0497
7.8529
7.67142
7.49314
7.31357
7.13452
6.95859
6.78682
6.61886
6.45416
6.29254
6.13412
5.97907
5.82752
5.67955
8.88855
8.55156
8.26167
8.03393
7.84456
7.66781
7.48931
7.30803
7.12813
6.95244
6.78123
6.6138
6.44957
6.28843
6.13056
5.9762
5.82552
5.67864
9.08245
8.63962
8.28477
8.04493
7.85995
7.68332
7.50082
7.31594
7.13423
6.95781
6.78618
6.61837
6.45385
6.29262
6.13487
5.98077
5.83034
5.68348
9.09627
8.63384
8.26935
8.03767
7.85996
7.68395
7.49968
7.31385
7.13217
6.95602
6.78454
6.61677
6.45229
6.29122
6.13371
5.98011
5.83034
5.68463
9.3578
8.68018
8.26807
8.04395
7.86988
7.69179
7.50526
7.31836
7.13627
6.95985
6.78811
6.62012
6.45548
6.29434
6.1368
5.98338
5.83394
5.68933
2.51879
2.35729
2.22514
2.22181
2.29073
2.32263
2.23074
1.95585
1.48813
0.859799
0.126361
-0.647622
-1.3961
-2.06204
-2.60172
-2.98662
-3.20311
-3.2522
-3.14991
-2.92522
-2.6175
-2.27319
-1.94481
-1.67369
-1.48202
-1.37395
-1.37572
-1.46973
-1.63788
-1.8667
-2.12974
-2.40351
-2.71852
-3.0751
-3.45643
-3.86975
-4.3293
-4.81831
-5.28864
-5.72823
-6.17808
-6.70813
-7.35966
-8.03803
-8.56817
-8.91694
-9.09546
-9.15157
-9.13221
-9.14844
-9.15672
-9.20483
-9.10423
-8.98394
-8.78029
-8.47908
-8.47189
-8.95449
-9.69234
-10.565
-11.4409
-12.2779
-13.0328
-13.667
-14.1547
-14.4882
-14.6686
-14.7053
-14.612
-14.4064
-14.1068
-13.7302
-13.2913
-12.8004
-12.2614
-11.6705
-11.0143
-10.2703
-9.40771
-8.39687
-7.22047
-5.88899
-4.44596
-2.92871
-1.36955
0.20705
1.80698
3.36316
4.83415
6.02991
6.86256
7.42594
7.81982
8.11026
8.34298
8.55539
8.78247
9.06071
9.42642
9.91272
10.5455
11.3391
12.2939
13.396
14.619
15.9275
17.2824
18.645
19.9796
21.256
22.4501
23.5445
24.5285
25.3974
26.1512
26.7929
27.3274
27.7602
28.0964
28.3414
28.5003
28.5778
28.5787
28.507
28.3662
28.1594
27.8904
27.5637
27.1861
26.7657
26.3122
25.8363
25.3483
24.8578
24.3731
23.9011
23.4471
23.0158
22.6108
22.2354
21.8921
21.5826
21.3081
21.0693
20.8667
20.6998
20.5678
20.469
20.4007
20.3595
20.3418
20.3451
20.3683
20.4109
20.4688
20.5281
20.5671
20.5545
20.4716
20.3576
20.2341
20.1076
19.9907
19.8977
19.8208
19.7614
19.7363
19.7685
19.8465
19.9435
20.0289
20.0906
20.1351
20.1776
20.223
20.2806
20.3522
20.4537
20.6022
20.7627
1.7436
1.58744
1.42922
1.33556
1.3062
1.23498
1.04671
0.690722
0.172669
-0.472473
-1.19174
-1.92507
-2.6181
-3.22658
-3.71651
-4.06359
-4.2551
-4.29096
-4.18285
-3.95287
-3.63408
-3.26883
-2.90101
-2.5738
-2.31718
-2.16727
-2.13225
-2.19919
-2.37152
-2.73619
-3.18834
-3.60671
-4.05859
-4.5974
-5.14728
-5.67156
-6.20245
-6.73216
-7.23012
-7.67119
-8.09334
-8.55951
-9.10012
-9.62224
-9.9886
-10.1795
-10.2074
-10.1214
-10.0124
-9.97961
-9.90629
-9.90481
-9.84836
-9.90572
-10.0196
-9.89175
-9.9926
-10.463
-11.1425
-11.9004
-12.6351
-13.332
-13.9576
-14.4781
-14.8704
-15.1258
-15.2431
-15.2297
-15.098
-14.864
-14.5449
-14.1552
-13.7074
-13.2115
-12.6713
-12.0831
-11.4344
-10.7009
-9.8523
-8.85325
-7.6781
-6.3277
-4.83944
-3.26823
-1.63876
-0.0249133
1.49785
2.92379
4.25132
5.36337
6.1931
6.8021
7.25812
7.60974
7.89563
8.15014
8.40881
8.71036
9.09457
9.59831
10.2499
11.0654
12.0446
13.1718
14.4195
15.7519
17.1292
18.5117
19.8634
21.1538
22.3588
23.4614
24.4511
25.3237
26.0795
26.7224
27.2578
27.6914
28.0286
28.2745
28.4345
28.5133
28.5156
28.4455
28.3064
28.1013
27.8339
27.5088
27.1328
26.7141
26.2624
25.7884
25.3026
24.8142
24.3313
23.8606
23.4075
22.9767
22.5717
22.1958
21.8514
21.5402
21.2636
21.0225
20.8171
20.6471
20.5115
20.4086
20.3361
20.2901
20.2666
20.263
20.2775
20.3086
20.3521
20.3954
20.418
20.3963
20.3277
20.2617
20.1937
20.102
19.9811
19.8746
19.7995
19.7459
19.7239
19.7582
19.8412
19.9439
20.0315
20.0912
20.1329
20.1726
20.217
20.2697
20.3383
20.4255
20.5591
20.6691
1.8791
1.76708
1.46977
1.07264
0.639564
0.171529
-0.362374
-0.981737
-1.67825
-2.42917
-3.19342
-3.92773
-4.59224
-5.15367
-5.58631
-5.87498
-6.0149
-6.01136
-5.87824
-5.63508
-5.30362
-4.91012
-4.48933
-4.08406
-3.72571
-3.46764
-3.3377
-3.35894
-3.5532
-3.92309
-4.41037
-4.95384
-5.5432
-6.17943
-6.85327
-7.57097
-8.30387
-8.98816
-9.59832
-10.1166
-10.5692
-10.9883
-11.4151
-11.7693
-11.9417
-11.9162
-11.7291
-11.4911
-11.3248
-11.1904
-11.1597
-11.1748
-11.2351
-11.3188
-11.516
-11.7231
-12.0321
-12.4815
-13.0239
-13.6081
-14.1845
-14.7238
-15.1987
-15.5875
-15.872
-16.0424
-16.0947
-16.0328
-15.8657
-15.6059
-15.2662
-14.8592
-14.3963
-13.8862
-13.333
-12.734
-12.0774
-11.3413
-10.4931
-9.49242
-8.30816
-6.93825
-5.42461
-3.83731
-2.2178
-0.657577
0.793515
2.13441
3.34104
4.38478
5.24577
5.93951
6.48769
6.91831
7.26206
7.55469
7.83654
8.15164
8.54456
9.05672
9.72137
10.5579
11.5668
12.7323
14.0238
15.4011
16.8209
18.2414
19.6256
20.9426
22.1686
23.2871
24.2882
25.1684
25.929
26.5748
27.1124
27.5479
27.8873
28.1357
28.2982
28.3797
28.3851
28.3179
28.1818
27.9796
27.7149
27.3926
27.0194
26.6039
26.1559
25.6862
25.2048
24.7209
24.2422
23.7751
23.3249
22.896
22.4922
22.1165
21.7714
21.4587
21.1798
20.9356
20.7265
20.552
20.4113
20.303
20.2244
20.172
20.1413
20.1291
20.1337
20.1533
20.1847
20.2173
20.2369
20.2307
20.195
20.1453
20.0878
20.0183
19.9409
19.8638
19.7878
19.7185
19.691
19.7336
19.8296
19.9413
20.0343
20.0964
20.1373
20.1718
20.2089
20.2489
20.3046
20.3708
20.477
20.5556
1.76457
1.57912
1.10005
0.468493
-0.249204
-1.01944
-1.82535
-2.65275
-3.48777
-4.30799
-5.08707
-5.79878
-6.42018
-6.93273
-7.32024
-7.57067
-7.68089
-7.65794
-7.51604
-7.27318
-6.94937
-6.56783
-6.15497
-5.74636
-5.38802
-5.10872
-4.9379
-4.90035
-5.01321
-5.27354
-5.65747
-6.14294
-6.71233
-7.36224
-8.09709
-8.90881
-9.75178
-10.5644
-11.3074
-11.9526
-12.4976
-12.9674
-13.3837
-13.6758
-13.8027
-13.7521
-13.5117
-13.2299
-13.0961
-13.0897
-13.0935
-13.1183
-13.2183
-13.3799
-13.586
-13.8497
-14.1831
-14.582
-15.0109
-15.4492
-15.8781
-16.2783
-16.6263
-16.9032
-17.0926
-17.1839
-17.1711
-17.0554
-16.8436
-16.5452
-16.1691
-15.7248
-15.2225
-14.6714
-14.0749
-13.4308
-12.7289
-11.9514
-11.0719
-10.0599
-8.88468
-7.53313
-6.0438
-4.48717
-2.94431
-1.47047
-0.0918072
1.18383
2.34366
3.37067
4.25389
4.99323
5.59192
6.06598
6.441
6.75249
7.04321
7.36133
7.75618
8.27389
8.9531
9.81778
10.8708
12.0922
13.446
14.8869
16.367
17.8413
19.2712
20.6256
21.8813
23.0226
24.0406
24.9326
25.701
26.352
26.8932
27.332
27.6748
27.927
28.0934
28.1789
28.1883
28.1252
27.993
27.7945
27.5332
27.2144
26.8452
26.4343
25.992
25.5288
25.0545
24.5776
24.1051
23.643
23.1966
22.77
22.3671
21.991
21.644
21.3281
21.0451
20.796
20.5811
20.4003
20.2531
20.1384
20.0539
19.9955
19.9585
19.9396
19.9373
19.9504
19.976
20.0065
20.0316
20.0424
20.0314
20.0076
19.9784
19.9379
19.8818
19.814
19.7444
19.6888
19.6686
19.715
19.8172
19.9369
20.035
20.0966
20.1338
20.1615
20.1896
20.2182
20.26
20.309
20.3886
20.4421
1.22399
0.907304
0.277258
-0.515121
-1.38755
-2.29523
-3.2226
-4.14568
-5.04832
-5.91538
-6.72788
-7.46154
-8.09235
-8.59895
-8.96541
-9.18699
-9.27062
-9.23188
-9.09115
-8.86598
-8.57154
-8.22573
-7.85532
-7.49154
-7.16586
-6.90881
-6.74464
-6.68523
-6.73496
-6.89274
-7.15213
-7.51414
-7.98071
-8.55908
-9.24669
-10.0308
-10.8736
-11.7231
-12.5337
-13.2643
-13.8947
-14.4229
-14.8591
-15.1733
-15.3162
-15.3348
-15.2435
-15.1616
-15.1396
-15.1665
-15.2215
-15.2967
-15.4506
-15.6246
-15.7943
-16.015
-16.2962
-16.618
-16.9569
-17.2978
-17.6256
-17.9238
-18.1746
-18.3607
-18.4676
-18.4841
-18.4042
-18.2269
-17.9562
-17.599
-17.1627
-16.6547
-16.0844
-15.4615
-14.7911
-14.0727
-13.2995
-12.4578
-11.5266
-10.4809
-9.30555
-8.00684
-6.61283
-5.17048
-3.73557
-2.35239
-1.04147
0.188955
1.3243
2.34486
3.23626
3.98943
4.6028
5.08703
5.46499
5.77254
6.05483
6.36311
6.75099
7.26992
7.96329
8.86002
9.96524
11.2564
12.69
14.2128
15.7695
17.3114
18.798
20.1985
21.4911
22.6616
23.7022
24.611
25.3915
26.0512
26.599
27.0432
27.3913
27.6487
27.8203
27.9108
27.9249
27.8665
27.7386
27.5443
27.2871
26.9727
26.6087
26.2044
25.7702
25.3162
24.8513
24.383
23.9179
23.4616
23.0189
22.5942
22.1914
21.8137
21.4635
21.1432
20.8546
20.599
20.3767
20.1882
20.0334
19.912
19.8218
19.7585
19.7167
19.6932
19.6874
19.6986
19.7247
19.7597
19.7957
19.8248
19.8396
19.8448
19.8438
19.8315
19.8058
19.7676
19.7227
19.6802
19.6627
19.7082
19.8171
19.9442
20.0417
20.0995
20.1308
20.1506
20.1686
20.1857
20.2128
20.2465
20.3018
20.3357
0.324502
-0.107677
-0.825487
-1.65793
-2.56701
-3.5202
-4.48983
-5.45633
-6.40575
-7.32298
-8.18531
-8.96423
-9.63152
-10.1638
-10.549
-10.7864
-10.8852
-10.8632
-10.7448
-10.5514
-10.3004
-10.0109
-9.70502
-9.40584
-9.13844
-8.9258
-8.78238
-8.71322
-8.72042
-8.80468
-8.97135
-9.2329
-9.60653
-10.1039
-10.7212
-11.4429
-12.2371
-13.0611
-13.8686
-14.623
-15.2951
-15.8642
-16.3239
-16.6716
-16.8926
-17.0125
-17.0819
-17.1662
-17.2516
-17.3259
-17.4094
-17.5028
-17.6669
-17.8222
-17.9694
-18.1463
-18.3627
-18.6113
-18.8779
-19.1478
-19.4039
-19.629
-19.8063
-19.9202
-19.9563
-19.9033
-19.7544
-19.5068
-19.1621
-18.7256
-18.2048
-17.6077
-16.9444
-16.225
-15.4572
-14.6457
-13.7904
-12.8842
-11.9124
-10.8568
-9.70765
-8.47557
-7.18466
-5.86623
-4.5536
-3.27067
-2.02809
-0.838627
0.276267
1.29176
2.18479
2.93899
3.54921
4.02366
4.3855
4.6717
4.9308
5.21734
5.5889
6.10186
6.80552
7.73347
8.89375
10.262
11.787
13.4042
15.0489
16.6674
18.218
19.6701
21.0038
22.2073
23.2746
24.205
25.0027
25.6759
26.2347
26.688
27.0444
27.3089
27.4866
27.5826
27.6017
27.548
27.4246
27.2346
26.9821
26.6734
26.3168
25.9218
25.4983
25.0554
24.6011
24.1421
23.6841
23.2326
22.7926
22.3685
21.9644
21.5833
21.2282
20.9015
20.6053
20.3407
20.109
19.9109
19.7477
19.6197
19.5247
19.4575
19.4129
19.3882
19.3832
19.3976
19.4298
19.4748
19.5256
19.576
19.619
19.6555
19.6865
19.7069
19.7165
19.715
19.7025
19.6834
19.6801
19.7311
19.8389
19.9592
20.0505
20.1024
20.1262
20.1369
20.1445
20.1505
20.164
20.1837
20.2185
20.2364
-0.908056
-1.33467
-1.99132
-2.75815
-3.60946
-4.52651
-5.48348
-6.45965
-7.44092
-8.40527
-9.32019
-10.1494
-10.8622
-11.4368
-11.8652
-12.1512
-12.3068
-12.3515
-12.3081
-12.1969
-12.0351
-11.8391
-11.6266
-11.4187
-11.2349
-11.0904
-10.993
-10.9456
-10.9508
-11.0104
-11.1337
-11.3365
-11.65
-12.0851
-12.6466
-13.3209
-14.0733
-14.8639
-15.65
-16.3981
-17.0795
-17.6634
-18.1384
-18.5129
-18.7862
-18.9885
-19.1562
-19.3276
-19.461
-19.5335
-19.5849
-19.6429
-19.7557
-19.874
-20.0034
-20.1605
-20.3449
-20.5556
-20.7812
-21.0074
-21.2167
-21.3922
-21.5178
-21.5783
-21.5584
-21.4447
-21.2274
-20.9019
-20.4694
-19.9355
-19.3096
-18.6028
-17.8274
-16.9963
-16.1208
-15.2096
-14.2676
-13.2942
-12.2831
-11.2264
-10.1226
-8.97895
-7.80563
-6.6165
-5.42368
-4.23296
-3.05152
-1.8978
-0.799423
0.212907
1.10779
1.86174
2.46492
2.92346
3.2618
3.51789
3.744
3.9997
4.34688
4.84572
5.55102
6.50294
7.71481
9.16112
10.7816
12.4989
14.237
15.9359
17.5523
19.0572
20.4331
21.6711
22.7674
23.7223
24.5411
25.2326
25.8071
26.2737
26.6407
26.9137
27.098
27.1995
27.2237
27.1747
27.0558
26.8706
26.624
26.3231
25.9766
25.5934
25.1822
24.7511
24.307
23.8559
23.4034
22.9549
22.5157
22.0905
21.683
21.2964
20.9336
20.5975
20.2905
20.0148
19.772
19.564
19.393
19.2601
19.1628
19.0947
19.0505
19.0285
19.029
19.052
19.0952
19.1548
19.2245
19.299
19.3722
19.4426
19.5099
19.5686
19.6168
19.6545
19.6796
19.6942
19.714
19.7698
19.8683
19.9778
20.0605
20.1049
20.1214
20.1237
20.1216
20.1172
20.1182
20.1245
20.1415
20.1449
-1.99832
-2.34415
-2.85538
-3.51346
-4.29428
-5.16329
-6.09405
-7.06776
-8.06871
-9.06748
-10.0237
-10.901
-11.6709
-12.3171
-12.8321
-13.2174
-13.4829
-13.6455
-13.7243
-13.7363
-13.6956
-13.6177
-13.5208
-13.423
-13.3401
-13.2833
-13.2573
-13.2624
-13.2995
-13.3733
-13.4962
-13.6936
-13.9935
-14.4172
-14.972
-15.6451
-16.4053
-17.2078
-18.0129
-18.7813
-19.4805
-20.0805
-20.5695
-20.9555
-21.2474
-21.4637
-21.6338
-21.7628
-21.8274
-21.8165
-21.7766
-21.7596
-21.7966
-21.8636
-21.9575
-22.0863
-22.2475
-22.4399
-22.6465
-22.8514
-23.0379
-23.1898
-23.291
-23.324
-23.2689
-23.1067
-22.8234
-22.4134
-21.8799
-21.2324
-20.4841
-19.6513
-18.7516
-17.8023
-16.8195
-15.8165
-14.8014
-13.7779
-12.7457
-11.7043
-10.6549
-9.59735
-8.53031
-7.44919
-6.34936
-5.22822
-4.09268
-2.96472
-1.87612
-0.862391
0.0393842
0.797601
1.39705
1.84175
2.15691
2.38315
2.5757
2.79881
3.1188
3.5984
4.29579
5.25841
6.50881
8.02342
9.73343
11.5471
13.3754
15.1511
16.8296
18.3841
19.8009
21.0728
22.1979
23.1788
24.0209
24.7338
25.3269
25.809
26.1879
26.4698
26.6611
26.7686
26.7981
26.7542
26.6404
26.4612
26.2226
25.932
25.5974
25.2268
24.8277
24.4072
23.9716
23.5263
23.0771
22.6299
22.1898
21.761
21.3471
20.9511
20.5768
20.2279
19.9085
19.6211
19.3682
19.1521
18.9765
18.842
18.7451
18.6793
18.6395
18.6247
18.6346
18.6696
18.7277
18.8051
18.8967
18.9979
19.1034
19.2099
19.3162
19.4164
19.5063
19.5849
19.6502
19.7025
19.7506
19.8153
19.9053
19.9998
20.0696
20.1053
20.1151
20.1102
20.0993
20.0856
20.0754
20.0692
20.0705
20.0603
-2.55355
-2.81919
-3.24613
-3.83351
-4.55482
-5.37635
-6.27472
-7.2337
-8.23917
-9.262
-10.2609
-11.202
-12.0609
-12.8215
-13.4729
-14.0101
-14.4361
-14.762
-15.0017
-15.1679
-15.274
-15.3355
-15.3691
-15.3908
-15.413
-15.4445
-15.4896
-15.5516
-15.6358
-15.7505
-15.9107
-16.1477
-16.4914
-16.9669
-17.5769
-18.3057
-19.1228
-19.9884
-20.8605
-21.6957
-22.457
-23.1073
-23.6289
-24.0233
-24.2982
-24.4708
-24.5635
-24.5783
-24.5072
-24.3539
-24.161
-23.9879
-23.8839
-23.844
-23.8597
-23.9318
-24.0565
-24.2277
-24.4223
-24.6222
-24.81
-24.9682
-25.0775
-25.1132
-25.0461
-24.8491
-24.5041
-24.0064
-23.363
-22.5896
-21.7071
-20.7399
-19.7136
-18.6527
-17.578
-16.5057
-15.4456
-14.4025
-13.3776
-12.3688
-11.3716
-10.3794
-9.38263
-8.36729
-7.32065
-6.23935
-5.13139
-4.01744
-2.93002
-1.90702
-0.988831
-0.214978
0.391974
0.833412
1.13484
1.34031
1.50837
1.70799
2.00837
2.47149
3.15619
4.11534
5.38436
6.94613
8.72462
10.615
12.5163
14.3542
16.0834
17.6797
19.1319
20.4344
21.5863
22.5926
23.4584
24.1927
24.8045
25.302
25.6926
25.9834
26.182
26.2961
26.3317
26.2934
26.1859
26.0145
25.7856
25.5062
25.1834
24.8242
24.4353
24.0233
23.5938
23.1523
22.7046
22.2566
21.8127
21.3765
20.9514
20.5413
20.1522
19.7901
19.4595
19.1633
18.9038
18.6843
18.5082
18.3759
18.2838
18.2247
18.1938
18.1892
18.2113
18.2605
18.335
18.4322
18.5479
18.6778
18.8172
18.9613
19.1078
19.2507
19.384
19.5049
19.6114
19.7019
19.7805
19.8593
19.9449
20.0243
20.0794
20.1054
20.1088
20.0979
20.0797
20.0576
20.0375
20.0196
20.007
19.9839
-2.5739
-2.7938
-3.1726
-3.71419
-4.39244
-5.18052
-6.05721
-7.00916
-8.02403
-9.07708
-10.1334
-11.163
-12.1417
-13.0484
-13.8645
-14.5765
-15.1817
-15.6867
-16.1027
-16.4405
-16.7106
-16.9245
-17.095
-17.2358
-17.3604
-17.4776
-17.5921
-17.7091
-17.8399
-18.0043
-18.2286
-18.5449
-18.9835
-19.562
-20.2797
-21.1188
-22.0469
-23.0221
-23.9993
-24.9313
-25.7756
-26.4901
-27.0518
-27.454
-27.695
-27.7889
-27.7599
-27.6234
-27.3814
-27.0427
-26.6567
-26.2789
-25.9822
-25.7865
-25.6817
-25.6663
-25.7348
-25.8763
-26.0636
-26.2724
-26.4824
-26.671
-26.8134
-26.8752
-26.8162
-26.5997
-26.2024
-25.6204
-24.867
-23.9656
-22.9472
-21.847
-20.7007
-19.542
-18.3981
-17.2867
-16.2163
-15.1878
-14.196
-13.2292
-12.2739
-11.3187
-10.3522
-9.35766
-8.32436
-7.25294
-6.15219
-5.03818
-3.93969
-2.89657
-1.95112
-1.14769
-0.516898
-0.0616117
0.242696
0.442887
0.603015
0.796721
1.09459
1.55572
2.2335
3.18256
4.45132
6.03207
7.84439
9.77455
11.7158
13.59
15.3514
16.9759
18.4535
19.7798
20.9546
21.9824
22.8692
23.6228
24.2512
24.762
25.1629
25.4622
25.6686
25.79
25.8323
25.8007
25.7006
25.538
25.319
25.0498
24.7369
24.387
24.0065
23.6012
23.176
22.7362
22.2875
21.8348
21.3822
20.9331
20.4917
20.0648
19.6613
19.2886
18.9516
18.6522
18.3922
18.1743
18.0025
17.8776
17.7953
17.7471
17.7275
17.7356
17.7713
17.8355
17.927
18.0443
18.1843
18.3435
18.5172
18.6999
18.8874
19.0737
19.251
19.4147
19.5617
19.6894
19.7984
19.8945
19.9803
20.0482
20.0899
20.106
20.1031
20.087
20.0628
20.0337
20.0048
19.9764
19.9511
19.9162
-2.14034
-2.33544
-2.69402
-3.21429
-3.87405
-4.65207
-5.5301
-6.49517
-7.53773
-8.64016
-9.77509
-10.9132
-12.0256
-13.0832
-14.0604
-14.9411
-15.7214
-16.405
-16.9983
-17.5075
-17.9415
-18.31
-18.6236
-18.8936
-19.129
-19.336
-19.5205
-19.6936
-19.874
-20.0928
-20.3889
-20.8007
-21.3549
-22.0591
-22.9049
-23.8684
-24.9143
-25.9995
-27.078
-28.1001
-29.0207
-29.796
-30.3996
-30.8168
-31.0351
-31.0597
-30.9153
-30.6297
-30.2136
-29.696
-29.1191
-28.5339
-28.0273
-27.6519
-27.4162
-27.3106
-27.3205
-27.4254
-27.5959
-27.8076
-28.0392
-28.263
-28.4434
-28.537
-28.4935
-28.2662
-27.8276
-27.174
-26.324
-25.309
-24.1695
-22.9533
-21.7065
-20.4709
-19.2811
-18.1573
-17.1056
-16.1173
-15.1725
-14.2479
-13.3235
-12.3836
-11.4148
-10.4028
-9.34633
-8.25435
-7.13722
-6.00785
-4.88709
-3.81289
-2.82902
-1.9826
-1.31014
-0.820656
-0.492029
-0.274255
-0.0978215
0.113784
0.428762
0.901358
1.58078
2.51915
3.7722
5.3428
7.14816
9.07486
11.0176
12.8975
14.6672
16.3024
17.7925
19.1325
20.3224
21.3659
22.2683
23.0364
23.6774
24.1984
24.6079
24.9153
25.1298
25.2588
25.3083
25.2838
25.1914
25.037
24.8262
24.5651
24.2605
23.9188
23.5455
23.1449
22.7215
22.2799
21.8252
21.3621
20.8945
20.427
19.9666
19.5238
19.11
18.7338
18.3984
18.1038
17.8499
17.6393
17.4772
17.3656
17.2974
17.263
17.2566
17.2777
17.3274
17.4059
17.5133
17.6493
17.8123
18.0001
18.2077
18.4292
18.6584
18.8884
19.1102
19.3169
19.504
19.6675
19.8055
19.9197
20.0093
20.0701
20.1012
20.1085
20.0995
20.0787
20.0498
20.0147
19.9784
19.9407
19.9044
19.8588
-1.34645
-1.53521
-1.89353
-2.41561
-3.08381
-3.88303
-4.79737
-5.8122
-6.91945
-8.1042
-9.3421
-10.601
-11.8471
-13.049
-14.1822
-15.2329
-16.1958
-17.0687
-17.8509
-18.5431
-19.148
-19.672
-20.1241
-20.5129
-20.8448
-21.1255
-21.3653
-21.5816
-21.8035
-22.0725
-22.435
-22.9285
-23.571
-24.3601
-25.2799
-26.305
-27.405
-28.5435
-29.679
-30.7625
-31.7435
-32.572
-33.2161
-33.6523
-33.8574
-33.8334
-33.6012
-33.2045
-32.6703
-32.0232
-31.3017
-30.5774
-29.9275
-29.414
-29.0652
-28.8744
-28.821
-28.8817
-29.0283
-29.2358
-29.4781
-29.7211
-29.9219
-30.0292
-29.9872
-29.7459
-29.2744
-28.5682
-27.6469
-26.5479
-25.3192
-24.0147
-22.6879
-21.3937
-20.1782
-19.0667
-18.0563
-17.1258
-16.2408
-15.3636
-14.4623
-13.5191
-12.5229
-11.4679
-10.3637
-9.22679
-8.07169
-6.9091
-5.75505
-4.64105
-3.60953
-2.70996
-1.9829
-1.44327
-1.07116
-0.814073
-0.599159
-0.349157
0.00252808
0.506144
1.2044
2.14284
3.37424
4.90602
6.6634
8.54385
10.449
12.3027
14.0564
15.6831
17.1705
18.5123
19.7074
20.7582
21.669
22.4454
23.0937
23.6215
24.0379
24.3528
24.5751
24.7114
24.7676
24.7497
24.6637
24.5154
24.311
24.0572
23.7606
23.4265
23.0585
22.6597
22.2337
21.7846
21.3171
20.8366
20.3485
19.8595
19.3814
18.9281
18.5135
18.1439
17.8195
17.5372
17.2958
17.0993
16.9539
16.8598
16.8085
16.7889
16.796
16.8299
16.8921
16.9837
17.1052
17.2577
17.4416
17.6554
17.895
18.1539
18.424
18.6974
18.964
19.2147
19.4426
19.6416
19.8077
19.9395
20.0349
20.0919
20.1155
20.1156
20.101
20.0758
20.0426
20.0027
19.9599
19.9143
19.8682
19.8129
-0.280807
-0.473639
-0.84773
-1.39486
-2.10205
-2.95816
-3.94861
-5.05814
-6.27825
-7.59312
-8.97614
-10.3903
-11.7979
-13.1678
-14.4788
-15.7171
-16.872
-17.9348
-18.8965
-19.7496
-20.4898
-21.1181
-21.6428
-22.0766
-22.4351
-22.7354
-22.997
-23.2431
-23.5038
-23.8156
-24.2171
-24.7386
-25.3935
-26.1792
-27.084
-28.0882
-29.169
-30.2975
-31.4359
-32.5341
-33.5356
-34.3848
-35.0475
-35.4987
-35.7082
-35.6761
-35.4207
-34.987
-34.412
-33.7307
-32.9788
-32.2118
-31.5052
-30.9256
-30.5118
-30.2653
-30.1656
-30.1881
-30.3074
-30.4997
-30.7361
-30.9779
-31.1758
-31.2738
-31.214
-30.9469
-30.4423
-29.6958
-28.727
-27.5756
-26.2933
-24.9393
-23.5766
-22.2651
-21.0566
-19.978
-19.0205
-18.152
-17.3276
-16.4952
-15.6153
-14.6614
-13.6234
-12.5085
-11.3399
-10.1431
-8.93593
-7.72816
-6.53215
-5.3738
-4.291
-3.33394
-2.54693
-1.94783
-1.51699
-1.20158
-0.927796
-0.618781
-0.210344
0.344153
1.07781
2.02327
3.22577
4.69597
6.3752
8.1776
10.0162
11.8181
13.534
15.1343
16.6036
17.9342
19.1235
20.1721
21.0829
21.8604
22.5107
23.0419
23.4635
23.785
24.0137
24.1558
24.2171
24.2037
24.1219
23.9783
23.78
23.534
23.2456
22.9175
22.5512
22.1491
21.7138
21.2496
20.7623
20.2588
19.747
19.238
18.7486
18.2959
17.8925
17.5407
17.2362
16.9735
16.7517
16.5768
16.4543
16.3813
16.3475
16.3423
16.3612
16.4061
16.4792
16.5816
16.715
16.8816
17.0832
17.3196
17.5879
17.881
18.1893
18.5041
18.8146
19.1099
19.3801
19.6159
19.8107
19.9607
20.0632
20.1189
20.1372
20.1315
20.1116
20.0818
20.0443
19.9999
19.9514
19.8987
19.8438
19.7797
0.958119
0.749169
0.342294
-0.251106
-1.02237
-1.96637
-3.0728
-4.3274
-5.72
-7.22917
-8.81969
-10.445
-12.0598
-13.63
-15.1304
-16.542
-17.8483
-19.0354
-20.0893
-21.0006
-21.7664
-22.3932
-22.8964
-23.2988
-23.6263
-23.9025
-24.1487
-24.3862
-24.6377
-24.9309
-25.2982
-25.7688
-26.3597
-27.0747
-27.9071
-28.8414
-29.8581
-30.9317
-32.0254
-33.0914
-34.0757
-34.923
-35.6064
-36.096
-36.3568
-36.382
-36.1868
-35.8105
-35.2922
-34.6711
-33.9807
-33.2708
-32.6097
-32.0549
-31.6425
-31.3834
-31.2637
-31.2611
-31.3543
-31.5234
-31.7401
-31.9621
-32.1342
-32.1959
-32.093
-31.7827
-31.2386
-30.4577
-29.4612
-28.2885
-26.9945
-25.6406
-24.2913
-23.0072
-21.84
-20.8147
-19.9223
-19.1221
-18.3584
-17.57
-16.7056
-15.733
-14.6449
-13.4612
-12.222
-10.9605
-9.69593
-8.43759
-7.19641
-5.99401
-4.86462
-3.85639
-3.01176
-2.34578
-1.83898
-1.44256
-1.08882
-0.706712
-0.236353
0.364839
1.1258
2.07511
3.24839
4.65164
6.24312
7.95481
9.71192
11.4464
13.1083
14.6663
16.1031
17.4096
18.5815
19.6177
20.5196
21.2912
21.9386
22.4702
22.895
23.2207
23.4533
23.5982
23.6616
23.6503
23.5714
23.4327
23.2419
23.0045
22.7227
22.3965
22.0262
21.6134
21.1608
20.6739
20.1612
19.6325
19.0986
18.5769
18.088
17.6497
17.2705
16.9469
16.6703
16.4348
16.2416
16.0961
16
15.9481
15.9296
15.9355
15.9643
16.0182
16.0999
16.2111
16.3545
16.5329
16.7493
17.0049
17.2975
17.6199
17.9618
18.3137
18.6654
19.0043
19.3176
19.592
19.8171
19.9869
20.0985
20.1553
20.1705
20.1602
20.1354
20.1007
20.0584
20.0089
19.9547
19.8951
19.8319
19.7595
2.22868
2.00191
1.55551
0.897938
0.0336533
-1.03302
-2.29675
-3.74504
-5.36421
-7.12337
-8.97376
-10.8556
-12.7104
-14.4909
-16.1627
-17.6999
-19.0809
-20.29
-21.3161
-22.1604
-22.833
-23.3516
-23.7402
-24.0274
-24.2421
-24.412
-24.5572
-24.6972
-24.8517
-25.0452
-25.3071
-25.671
-26.1584
-26.7755
-27.5138
-28.3565
-29.2871
-30.2839
-31.3141
-32.3362
-33.2996
-34.1497
-34.8668
-35.4245
-35.7842
-35.926
-35.8583
-35.6229
-35.2554
-34.7896
-34.2551
-33.6938
-33.1617
-32.7081
-32.3644
-32.1424
-32.0342
-32.0255
-32.102
-32.2465
-32.4306
-32.6111
-32.7333
-32.7404
-32.5818
-32.2206
-31.6374
-30.829
-29.8197
-28.6496
-27.3732
-26.0549
-24.7611
-23.5499
-22.4637
-21.5194
-20.7017
-19.9671
-19.2542
-18.4967
-17.638
-16.642
-15.5063
-14.2599
-12.9563
-11.6355
-10.3165
-9.00826
-7.72263
-6.48099
-5.31728
-4.27567
-3.38942
-2.66521
-2.08153
-1.59491
-1.14949
-0.686935
-0.154858
0.486819
1.27014
2.22552
3.37585
4.72263
6.23528
7.85931
9.53052
11.1873
12.7819
14.2837
15.6748
16.9449
18.0882
19.102
19.9868
20.7463
21.3867
21.9158
22.3406
22.6667
22.8989
23.0428
23.1053
23.0945
23.019
22.887
22.7047
22.4746
22.195
21.8642
21.4822
21.0503
20.5724
20.0575
19.5175
18.9652
18.4167
17.8945
17.4215
17.013
16.6707
16.3847
16.1447
15.9458
15.7892
15.677
15.6067
15.572
15.564
15.5772
15.6126
15.6731
15.7615
15.88
16.0318
16.2207
16.4505
16.7226
17.035
17.3808
17.7502
18.1332
18.521
18.9008
19.2562
19.5699
19.8268
20.0183
20.1413
20.2018
20.2164
20.2032
20.1742
20.1346
20.0869
20.0317
19.971
19.9042
19.8328
19.7521
3.37874
3.13335
2.65008
1.92664
0.960831
-0.247229
-1.69999
-3.38344
-5.27373
-7.32317
-9.46359
-11.6181
-13.7134
-15.6864
-17.4848
-19.0714
-20.4206
-21.523
-22.3837
-23.019
-23.4543
-23.7214
-23.8571
-23.9001
-23.8854
-23.8468
-23.8112
-23.7976
-23.8226
-23.902
-24.0607
-24.3267
-24.7197
-25.245
-25.8953
-26.6544
-27.5072
-28.435
-29.4087
-30.3931
-31.3447
-32.2129
-32.9746
-33.6196
-34.1112
-34.4216
-34.5476
-34.5235
-34.3817
-34.1508
-33.8518
-33.5121
-33.1728
-32.8745
-32.6447
-32.4966
-32.4297
-32.437
-32.5079
-32.6258
-32.7624
-32.8789
-32.9301
-32.8687
-32.6503
-32.2424
-31.6304
-30.8139
-29.8177
-28.6822
-27.4588
-26.2116
-25.0036
-23.8875
-22.8978
-22.0405
-21.2922
-20.6085
-19.9291
-19.1887
-18.3308
-17.3217
-16.1581
-14.8727
-13.524
-12.1574
-10.7914
-9.43598
-8.10803
-6.83462
-5.6508
-4.59254
-3.6804
-2.91112
-2.2611
-1.69339
-1.16369
-0.623653
-0.027213
0.664943
1.48513
2.45657
3.59437
4.89738
6.3409
7.88026
9.46104
11.03
12.5452
13.9783
15.3117
16.5341
17.6383
18.6207
19.4815
20.2241
20.854
21.3768
21.7967
22.1176
22.3442
22.4833
22.5432
22.5336
22.4634
22.3393
22.1645
21.937
21.6522
21.3082
20.9054
20.4458
19.9368
19.3922
18.8272
18.2589
17.7083
17.2021
16.7631
16.4001
16.1069
15.869
15.6756
15.522
15.4062
15.3259
15.2768
15.2526
15.2487
15.2644
15.3033
15.3685
15.4622
15.5874
15.7478
15.9479
16.1911
16.4786
16.8076
17.1713
17.5615
17.969
18.3868
18.8028
19.1979
19.5497
19.8387
20.053
20.1893
20.2561
20.2725
20.2586
20.2269
20.183
20.1299
20.0685
20.0008
19.9263
19.8462
19.7568
4.24686
3.98786
3.45199
2.65311
1.57505
0.209772
-1.44854
-3.37913
-5.53985
-7.86052
-10.2507
-12.6114
-14.8512
-16.8931
-18.6765
-20.1585
-21.3202
-22.1612
-22.6975
-22.9626
-23.0141
-22.9119
-22.7105
-22.4596
-22.2012
-21.9659
-21.7743
-21.6404
-21.5739
-21.5853
-21.6927
-21.9173
-22.2739
-22.764
-23.3767
-24.0951
-24.9081
-25.8017
-26.7493
-27.7208
-28.6811
-29.588
-30.4164
-31.1578
-31.7873
-32.2761
-32.6093
-32.8091
-32.9074
-32.929
-32.8867
-32.7901
-32.6643
-32.5401
-32.4427
-32.3872
-32.3795
-32.4178
-32.4922
-32.5854
-32.6726
-32.7238
-32.7045
-32.5773
-32.3065
-31.8658
-31.2443
-30.4454
-29.4927
-28.4223
-27.2804