/*--------------------------------*- C++ -*----------------------------------*\
| =========                 |                                                 |
| \\      /  F ield         | OpenFOAM: The Open Source CFD Toolbox           |
|  \\    /   O peration     | Version:  2112                                  |
|   \\  /    A nd           | Website:  www.openfoam.com                      |
|    \\/     M anipulation  |                                                 |
\*---------------------------------------------------------------------------*/
FoamFile
{
    version     2.0;
    format      ascii;
    arch        "LSB;label=32;scalar=64";
    class       volVectorField;
    location    "0.07";
    object      U;
}
// * * * * * * * * * * * * * * * * * * * * * * * * * * * * * * * * * * * * * //

dimensions      [0 1 -1 0 0 0 0];

internalField   nonuniform List<vector> 
12225
(
(9.919 0.0467883 0)
(9.70212 0.0772408 0)
(9.35646 0.103162 0)
(8.98713 0.118027 0)
(8.63967 0.121587 0)
(8.32912 0.112456 0)
(8.04487 0.0932277 0)
(7.77932 0.0736044 0)
(7.50969 0.0618701 0)
(7.23045 0.0588024 0)
(6.93032 0.0580823 0)
(6.64915 0.0530167 0)
(6.38095 0.0477218 0)
(6.1537 0.043529 0)
(5.89828 0.0510898 0)
(5.68313 0.0602707 0)
(5.30582 0.0940443 0)
(5.04103 0.113224 0)
(9.9442 0.0317922 0)
(10.0217 0.0487173 0)
(10.0527 0.0581358 0)
(10.0279 0.044592 0)
(10.0086 0.0338711 0)
(10.0433 0.0332385 0)
(10.0991 0.0427844 0)
(10.123 0.0621463 0)
(10.0848 0.085925 0)
(9.99908 0.106556 0)
(9.89123 0.117621 0)
(9.79758 0.118544 0)
(9.71721 0.113875 0)
(9.65601 0.115949 0)
(9.56995 0.121711 0)
(9.48242 0.147974 0)
(9.32515 0.189261 0)
(9.15676 0.223311 0)
(9.77155 0.0755975 0)
(9.90913 0.0438457 0)
(9.96704 0.102543 0)
(9.99198 0.121511 0)
(10.0267 0.110702 0)
(10.0701 0.0890646 0)
(10.0981 0.0776424 0)
(10.0997 0.0859574 0)
(10.083 0.106479 0)
(10.0627 0.123829 0)
(10.0467 0.127645 0)
(10.0348 0.117674 0)
(10.0189 0.104627 0)
(9.99542 0.102303 0)
(9.96275 0.117004 0)
(9.92265 0.15364 0)
(9.8823 0.213367 0)
(9.84296 0.283105 0)
(10.0313 0.0206384 0)
(9.94505 0.0169873 0)
(9.99509 0.0512881 0)
(10.0643 0.0376044 0)
(10.0962 0.0201649 0)
(10.1054 0.0213633 0)
(10.118 0.0375145 0)
(10.1436 0.0638511 0)
(10.1684 0.0937569 0)
(10.1709 0.115721 0)
(10.1391 0.124436 0)
(10.0793 0.123667 0)
(10.0081 0.122388 0)
(9.94381 0.13163 0)
(9.89814 0.153928 0)
(9.87171 0.191284 0)
(9.86364 0.242949 0)
(9.86811 0.295798 0)
(9.89207 0.0878151 0)
(9.91024 0.0420294 0)
(10.03 0.0546499 0)
(10.0474 0.0832965 0)
(9.98433 0.0914399 0)
(9.9528 0.0740964 0)
(10.0094 0.0548906 0)
(10.1199 0.0636054 0)
(10.2211 0.0978038 0)
(10.2654 0.138035 0)
(10.2452 0.166274 0)
(10.1815 0.174584 0)
(10.1023 0.167138 0)
(10.0333 0.157651 0)
(9.9876 0.158864 0)
(9.96538 0.178828 0)
(9.96161 0.219254 0)
(9.96776 0.270425 0)
(10.214 0.0321192 0)
(10.2521 0.00820615 0)
(10.1808 0.0273519 0)
(10.0998 0.067399 0)
(10.0737 0.0619195 0)
(10.0763 0.020765 0)
(10.0744 -0.0129273 0)
(10.0772 -0.00834568 0)
(10.0958 0.0381263 0)
(10.1167 0.102076 0)
(10.1175 0.153665 0)
(10.0933 0.179219 0)
(10.055 0.182565 0)
(10.0168 0.178107 0)
(9.98782 0.180102 0)
(9.97256 0.19659 0)
(9.96837 0.231103 0)
(9.96948 0.277154 0)
(10.0488 -0.0701296 0)
(10.1798 0.0414475 0)
(10.1445 0.0849537 0)
(10.1009 0.0992801 0)
(10.1109 0.0888339 0)
(10.1127 0.0669157 0)
(10.0765 0.0488413 0)
(10.0371 0.0529575 0)
(10.0326 0.0858497 0)
(10.0615 0.135486 0)
(10.0997 0.181736 0)
(10.1253 0.206068 0)
(10.1277 0.205154 0)
(10.1097 0.192238 0)
(10.0792 0.185093 0)
(10.0461 0.194957 0)
(10.0157 0.228019 0)
(9.99123 0.278222 0)
(10.3642 0.0131967 0)
(10.1823 -0.000586736 0)
(10.0816 0.0755308 0)
(10.035 0.0955791 0)
(10.0765 0.0734453 0)
(10.1403 0.0441473 0)
(10.1539 0.0220644 0)
(10.1078 0.0138348 0)
(10.0491 0.0280743 0)
(10.0265 0.0676121 0)
(10.0475 0.117802 0)
(10.0897 0.161869 0)
(10.1219 0.190035 0)
(10.1276 0.203788 0)
(10.1063 0.213403 0)
(10.0673 0.228236 0)
(10.0186 0.256035 0)
(9.97561 0.296803 0)
(10.1239 0.127688 0)
(10.0485 0.117755 0)
(9.98933 0.118328 0)
(10.0165 0.0845985 0)
(10.0994 0.0375908 0)
(10.182 0.0250797 0)
(10.221 0.0510569 0)
(10.2025 0.0894401 0)
(10.1319 0.119989 0)
(10.044 0.140226 0)
(9.97913 0.155853 0)
(9.95356 0.170001 0)
(9.96024 0.183758 0)
(9.97894 0.199341 0)
(9.98919 0.221377 0)
(9.98382 0.251742 0)
(9.96245 0.29206 0)
(9.93134 0.338645 0)
(10.0297 0.0992563 0)
(10.0229 0.0933234 0)
(10.0874 0.0894179 0)
(10.1233 0.0547015 0)
(10.0963 0.0157821 0)
(10.0568 0.000305721 0)
(10.041 0.0216589 0)
(10.0396 0.0670193 0)
(10.0396 0.114434 0)
(10.0369 0.148792 0)
(10.0312 0.167334 0)
(10.0238 0.175256 0)
(10.0166 0.18022 0)
(10.0079 0.189549 0)
(9.9978 0.20937 0)
(9.9842 0.240989 0)
(9.96781 0.284768 0)
(9.94879 0.33641 0)
(10.0099 0.0989094 0)
(10.0621 0.0811407 0)
(9.96439 0.0854457 0)
(9.86823 0.0864558 0)
(9.84938 0.0651179 0)
(9.89916 0.0454388 0)
(9.98028 0.0485642 0)
(10.0565 0.0756106 0)
(10.1051 0.107984 0)
(10.1198 0.135032 0)
(10.1088 0.15549 0)
(10.0817 0.172128 0)
(10.0478 0.188728 0)
(10.0111 0.209147 0)
(9.97586 0.237189 0)
(9.9447 0.274469 0)
(9.91935 0.320313 0)
(9.90294 0.371549 0)
(10.073 -0.0295889 0)
(10.1504 0.10879 0)
(10.0667 0.164327 0)
(10.0218 0.107757 0)
(10.0212 0.00971251 0)
(10.0238 -0.0546893 0)
(10.0344 -0.0481365 0)
(10.0605 0.0141628 0)
(10.0909 0.0931495 0)
(10.1128 0.157781 0)
(10.1206 0.198192 0)
(10.1152 0.21947 0)
(10.0989 0.231034 0)
(10.0732 0.242124 0)
(10.0391 0.258287 0)
(10.0016 0.283323 0)
(9.9652 0.316344 0)
(9.9386 0.356892 0)
(9.73357 -0.0321084 0)
(9.82681 0.0651371 0)
(10.0354 0.128708 0)
(10.2295 0.106712 0)
(10.3133 0.0629462 0)
(10.2706 0.0348923 0)
(10.1669 0.0290928 0)
(10.0704 0.0411147 0)
(10.0164 0.0696118 0)
(10.0065 0.105857 0)
(10.0197 0.140605 0)
(10.0389 0.172186 0)
(10.0509 0.203969 0)
(10.0514 0.239801 0)
(10.0377 0.280005 0)
(10.0158 0.322905 0)
(9.98776 0.365627 0)
(9.96217 0.403142 0)
(10.1055 -0.0102702 0)
(10.1058 -0.00473175 0)
(10.213 -0.0205908 0)
(10.2867 -0.0321082 0)
(10.298 -0.0173541 0)
(10.2736 0.0263851 0)
(10.2512 0.0722189 0)
(10.2455 0.113639 0)
(10.2394 0.149803 0)
(10.2154 0.177963 0)
(10.1745 0.199723 0)
(10.1198 0.219418 0)
(10.0592 0.24024 0)
(10.0029 0.264842 0)
(9.95784 0.293695 0)
(9.92616 0.326368 0)
(9.90666 0.360944 0)
(9.90007 0.396055 0)
(10.0294 0.0479837 0)
(9.97865 0.0303787 0)
(9.9473 0.036854 0)
(9.91031 0.0640501 0)
(9.89777 0.0716574 0)
(9.90055 0.0486541 0)
(9.91247 0.0226655 0)
(9.93771 0.0257146 0)
(9.97 0.0665543 0)
(9.99979 0.13093 0)
(10.0193 0.197554 0)
(10.0256 0.253366 0)
(10.0183 0.293952 0)
(9.99929 0.323395 0)
(9.97394 0.346819 0)
(9.94846 0.36926 0)
(9.92886 0.389832 0)
(9.91933 0.408163 0)
(10.0372 0.049669 0)
(10.0519 0.0455201 0)
(10.0901 0.0169874 0)
(10.1166 -0.00633442 0)
(10.1442 0.00447746 0)
(10.1231 0.032118 0)
(10.059 0.0628766 0)
(9.98939 0.0925123 0)
(9.9414 0.121775 0)
(9.92782 0.154 0)
(9.94919 0.191265 0)
(9.99313 0.233961 0)
(10.0423 0.279595 0)
(10.0837 0.324275 0)
(10.1112 0.362232 0)
(10.1239 0.390021 0)
(10.1263 0.405615 0)
(10.1197 0.410175 0)
(9.89801 -0.0400117 0)
(9.9322 0.000954567 0)
(9.91563 0.00151576 0)
(9.91947 0.018603 0)
(9.95403 0.0640351 0)
(9.96249 0.115941 0)
(9.93346 0.14412 0)
(9.88742 0.138532 0)
(9.85201 0.115087 0)
(9.84792 0.0954563 0)
(9.87948 0.0921903 0)
(9.93457 0.109194 0)
(9.99707 0.145597 0)
(10.0544 0.198787 0)
(10.0995 0.261301 0)
(10.1302 0.323457 0)
(10.1479 0.377564 0)
(10.1556 0.414276 0)
(10.141 0.0964195 0)
(10.1016 0.0903306 0)
(10.0781 0.0246653 0)
(10.0596 -0.0508525 0)
(10.0772 -0.0454216 0)
(10.1255 0.0523846 0)
(10.1585 0.165405 0)
(10.1588 0.216255 0)
(10.1327 0.191127 0)
(10.0964 0.13035 0)
(10.0668 0.0831143 0)
(10.0546 0.0775676 0)
(10.0622 0.115274 0)
(10.0852 0.182634 0)
(10.1182 0.259637 0)
(10.1544 0.329044 0)
(10.1916 0.379619 0)
(10.2245 0.405881 0)
(10.1627 0.149649 0)
(10.1474 0.172928 0)
(10.1596 0.0748998 0)
(10.1196 -0.01584 0)
(10.0428 -0.0371079 0)
(9.99445 0.00441027 0)
(10.004 0.0833865 0)
(10.0491 0.162782 0)
(10.0977 0.209726 0)
(10.1299 0.210406 0)
(10.1417 0.171373 0)
(10.1433 0.116204 0)
(10.1487 0.0731287 0)
(10.1671 0.0603094 0)
(10.2002 0.0804508 0)
(10.2446 0.123902 0)
(10.2944 0.178002 0)
(10.3431 0.228998 0)
(9.79897 0.0526543 0)
(9.8664 0.0781432 0)
(9.94568 0.0857423 0)
(9.99496 0.115574 0)
(9.97497 0.134867 0)
(9.93583 0.114798 0)
(9.91866 0.0760967 0)
(9.94178 0.0501846 0)
(10.0012 0.0454788 0)
(10.073 0.0523604 0)
(10.1298 0.0601971 0)
(10.158 0.0648863 0)
(10.159 0.0679463 0)
(10.1441 0.0737858 0)
(10.1245 0.0875 0)
(10.1116 0.111389 0)
(10.1079 0.145221 0)
(10.1178 0.185871 0)
(9.92416 -0.0628674 0)
(9.96405 -0.00743481 0)
(9.97585 -0.0196465 0)
(10.0172 -0.000215953 0)
(10.0648 0.0589634 0)
(10.075 0.0949653 0)
(10.0552 0.0798662 0)
(10.03 0.0376973 0)
(10.0149 0.00541351 0)
(10.0137 0.0020653 0)
(10.0212 0.0252949 0)
(10.0293 0.0613748 0)
(10.0316 0.0955338 0)
(10.0241 0.119937 0)
(10.0096 0.134241 0)
(9.99538 0.143569 0)
(9.98918 0.151858 0)
(9.99752 0.163792 0)
(9.91804 0.115866 0)
(9.92418 0.047618 0)
(9.94062 -0.0227163 0)
(9.97005 0.00622883 0)
(10.0254 0.0683536 0)
(10.0845 0.108912 0)
(10.121 0.11163 0)
(10.1285 0.0870489 0)
(10.112 0.0549118 0)
(10.0822 0.0320365 0)
(10.0553 0.0288641 0)
(10.0462 0.0477284 0)
(10.0608 0.0810302 0)
(10.0948 0.116198 0)
(10.1416 0.141504 0)
(10.1937 0.152323 0)
(10.2479 0.148395 0)
(10.2987 0.135534 0)
(9.90964 0.0693041 0)
(9.97699 0.0316244 0)
(10.0052 -0.0604449 0)
(10.0506 -0.0676698 0)
(10.074 -0.0222822 0)
(10.0704 0.022165 0)
(10.0576 0.0524359 0)
(10.0581 0.0688252 0)
(10.0724 0.0757729 0)
(10.0847 0.0762765 0)
(10.0863 0.069584 0)
(10.0813 0.0549315 0)
(10.0785 0.0353657 0)
(10.0838 0.0154546 0)
(10.0985 -6.22765e-05 0)
(10.1226 -0.00740815 0)
(10.1536 -0.00568376 0)
(10.1908 0.006582 0)
(10.1864 0.0940848 0)
(10.1179 -0.0341439 0)
(10.0631 -0.0996172 0)
(10.0377 -0.0415204 0)
(10.0428 0.0462203 0)
(10.0668 0.0942569 0)
(10.0946 0.0877846 0)
(10.1256 0.0531043 0)
(10.1665 0.0237284 0)
(10.2137 0.0156459 0)
(10.2591 0.0275338 0)
(10.2976 0.0491745 0)
(10.3253 0.0689785 0)
(10.3386 0.079831 0)
(10.3368 0.0780466 0)
(10.3248 0.0655949 0)
(10.3094 0.045088 0)
(10.2976 0.0215388 0)
(10.1299 0.155153 0)
(10.1576 0.112955 0)
(10.1096 -0.0199552 0)
(10.1032 -0.062904 0)
(10.1366 -0.0231919 0)
(10.1977 0.0200069 0)
(10.2482 0.0309712 0)
(10.2741 0.0225466 0)
(10.2797 0.0105527 0)
(10.2743 0.00173627 0)
(10.2708 -0.00183727 0)
(10.2797 0.000500273 0)
(10.3029 0.00775116 0)
(10.3359 0.0174142 0)
(10.372 0.0258144 0)
(10.4056 0.0301839 0)
(10.4338 0.0292 0)
(10.4533 0.0235992 0)
(9.96533 0.0844803 0)
(9.95943 -0.00030513 0)
(9.9669 -0.0537087 0)
(9.92663 -0.0641761 0)
(9.92233 -0.0250431 0)
(9.95997 0.00514609 0)
(10.0013 0.0142895 0)
(10.0334 0.0157917 0)
(10.0638 0.0163385 0)
(10.0956 0.0165823 0)
(10.1253 0.0150502 0)
(10.1505 0.0129514 0)
(10.1719 0.0115911 0)
(10.192 0.0109084 0)
(10.2135 0.00936491 0)
(10.238 0.00564761 0)
(10.2641 -0.000736038 0)
(10.2913 -0.00824178 0)
(10.0318 0.19877 0)
(10.071 0.0742027 0)
(10.0653 -0.015635 0)
(10.0504 -0.0330286 0)
(10.079 -0.0263936 0)
(10.1327 -0.0134474 0)
(10.1536 -0.00598681 0)
(10.1359 -0.00988404 0)
(10.1168 -0.0200188 0)
(10.1246 -0.0291921 0)
(10.1627 -0.031487 0)
(10.2196 -0.0265721 0)
(10.2774 -0.018893 0)
(10.3221 -0.0132977 0)
(10.3477 -0.0124591 0)
(10.3557 -0.0154926 0)
(10.3514 -0.0210428 0)
(10.3398 -0.0276447 0)
(9.9061 0.0557277 0)
(10.0922 0.0374226 0)
(10.0771 -0.0322826 0)
(10.0165 -0.0758291 0)
(10.0018 -0.0770308 0)
(10.0382 -0.0387138 0)
(10.0822 0.00599988 0)
(10.1113 0.0256182 0)
(10.1298 0.0131398 0)
(10.1475 -0.019589 0)
(10.1711 -0.0494337 0)
(10.2033 -0.0615025 0)
(10.2436 -0.0538802 0)
(10.2901 -0.0340311 0)
(10.3413 -0.0123176 0)
(10.3931 0.00332621 0)
(10.4433 0.0097479 0)
(10.4844 0.0068275 0)
(9.9353 -0.126371 0)
(10.0037 -0.0151301 0)
(10.0836 0.0177871 0)
(10.0961 -0.00491088 0)
(10.0524 -0.0314865 0)
(10.0305 -0.0371398 0)
(10.0495 -0.028575 0)
(10.0973 -0.0228773 0)
(10.157 -0.0287935 0)
(10.2119 -0.0440249 0)
(10.2538 -0.0598201 0)
(10.2831 -0.0703551 0)
(10.3034 -0.075415 0)
(10.317 -0.0778216 0)
(10.322 -0.0788015 0)
(10.3173 -0.0778913 0)
(10.3009 -0.0733675 0)
(10.2788 -0.064662 0)
(9.81633 0.000850306 0)
(9.63745 -0.0262601 0)
(9.62739 -0.0389323 0)
(9.57479 -0.0552249 0)
(9.41782 -0.0624813 0)
(9.26254 -0.0493462 0)
(9.16557 -0.0297125 0)
(9.1066 -0.0238106 0)
(9.03548 -0.0374076 0)
(8.91674 -0.0599127 0)
(8.7507 -0.0766405 0)
(8.56346 -0.078219 0)
(8.38457 -0.0643143 0)
(8.23457 -0.0405464 0)
(8.12066 -0.0151013 0)
(8.04066 0.00526667 0)
(7.98481 0.0168385 0)
(7.94612 0.0165031 0)
(-0.197839 0.422802 -1.38126e-20)
(-0.489559 0.0898872 1.37273e-20)
(-0.3356 -0.375242 0)
(0.051152 -0.542825 0)
(0.557545 -0.621234 0)
(1.05394 -0.609784 -1.32311e-20)
(1.52648 -0.553143 0)
(1.94906 -0.481439 0)
(2.31309 -0.412742 0)
(2.62474 -0.352596 0)
(2.89109 -0.301446 1.31154e-20)
(3.11967 -0.260233 0)
(3.31781 -0.222899 0)
(3.48583 -0.190245 0)
(3.6308 -0.157787 0)
(3.74372 -0.122751 1.29941e-20)
(3.83357 -0.0925545 0)
(3.88988 -0.0439367 0)
(3.91101 -0.0115893 0)
(3.90823 0.0538178 0)
(3.81956 0.120437 0)
(3.72202 0.165554 0)
(3.50922 0.350088 0)
(3.18869 0.353606 1.20623e-20)
(2.9035 0.605506 -1.18941e-20)
(2.16468 1.11251 1.17533e-20)
(1.27081 0.657698 1.16985e-20)
(0.716016 -0.0770284 0)
(0.326474 -0.307095 0)
(0.121757 -0.350848 -1.15529e-20)
(0.246571 -0.470883 -1.14328e-20)
(0.68522 -0.597688 0)
(1.23337 -0.631791 0)
(1.76877 -0.386604 -1.09743e-20)
(2.1643 0.155831 0)
(2.19047 0.276362 0)
(2.02045 -0.136718 1.06542e-20)
(1.91435 -0.428636 0)
(1.78202 -0.255534 1.04743e-20)
(1.42987 0.14811 2.08197e-20)
(0.845611 0.413135 0)
(0.167347 0.544106 0)
(-0.576938 0.63767 0)
(-1.34916 0.695261 0)
(-2.10265 0.684622 0)
(-2.7895 0.618502 2.07316e-20)
(-3.39785 0.523806 2.09511e-20)
(-3.93009 0.43087 2.12107e-20)
(-4.40869 0.357686 0)
(-4.85468 0.31248 -2.17773e-20)
(-5.28714 0.295198 0)
(-5.71508 0.29802 2.23246e-20)
(-6.13758 0.308181 2.2568e-20)
(-6.54245 0.312113 0)
(-6.90998 0.299927 0)
(-7.21803 0.267212 0)
(-7.44842 0.215918 2.31978e-20)
(-7.59045 0.153127 0)
(-7.63709 0.086871 0)
(-7.57981 0.0181342 0)
(-7.42488 -0.0554533 0)
(-7.15785 -0.140947 0)
(-6.75439 -0.241063 0)
(-6.18891 -0.359013 0)
(-5.42692 -0.494295 0)
(-4.44651 -0.637904 -2.18417e-20)
(-3.25354 -0.770531 0)
(-1.90035 -0.860741 0)
(-0.480763 -0.872813 2.32095e-20)
(0.861905 -0.804264 2.41944e-20)
(1.98696 -0.635441 0)
(2.81673 -0.421095 -2.58425e-20)
(3.30628 -0.184816 2.61244e-20)
(3.43753 0.0639942 0)
(3.17849 0.306374 -2.51085e-20)
(2.52255 0.507854 0)
(1.52988 0.633143 0)
(0.321525 0.645087 2.0851e-20)
(-0.874761 0.57045 0)
(-1.81298 0.390554 -1.86498e-20)
(-2.25901 -0.0109054 0)
(-2.21668 -0.728628 1.77772e-20)
(-2.31691 -1.09161 1.76548e-20)
(-3.01775 0.0217672 1.70587e-20)
(-5.03055 1.65637 3.25755e-20)
(-7.4991 1.27567 -3.24537e-20)
(-8.81349 0.732336 0)
(-10.0267 0.845854 0)
(-11.184 0.555696 0)
(-11.9549 0.486432 -3.58056e-20)
(-12.7533 0.405147 -3.66451e-20)
(-13.3197 0.287437 3.73197e-20)
(-13.7884 0.236987 0)
(-14.1172 0.135374 -3.78223e-20)
(-14.2855 0.0726072 -3.75372e-20)
(-14.3299 -0.00441479 -3.68545e-20)
(-14.2146 -0.0668485 0)
(-13.9971 -0.12394 0)
(-13.6449 -0.179469 0)
(-13.1917 -0.222469 -3.04514e-20)
(-12.6394 -0.262789 0)
(-12.0086 -0.289707 0)
(-11.321 -0.308708 2.36221e-20)
(-10.5962 -0.316239 0)
(-9.86189 -0.313596 0)
(-9.13688 -0.3024 1.76384e-20)
(-8.44208 -0.283611 0)
(-7.78905 -0.260857 0)
(-7.18609 -0.235813 -1.38143e-20)
(-6.63567 -0.21136 -1.29925e-20)
(-6.13533 -0.189131 0)
(-5.67974 -0.170244 1.1828e-20)
(-5.26014 -0.155527 0)
(-4.868 -0.144663 -1.10646e-20)
(-4.49478 -0.137232 0)
(-4.1333 -0.132535 -1.04899e-20)
(-3.77828 -0.129786 -1.02355e-20)
(-3.42648 -0.128093 0)
(-3.07624 -0.126944 0)
(-2.72646 -0.12621 0)
(-2.37571 -0.126061 0)
(-2.02149 -0.12694 0)
(-1.66026 -0.129149 0)
(-1.28723 -0.132878 0)
(-0.899768 -0.136678 -8.54567e-21)
(-0.495936 -0.140185 8.34313e-21)
(-0.0784114 -0.141545 0)
(0.346529 -0.141956 0)
(0.766774 -0.136241 0)
(1.17647 -0.128534 0)
(1.56255 -0.118634 1.52861e-20)
(1.91907 -0.106983 0)
(2.24385 -0.0946354 -1.52095e-20)
(2.53702 -0.0820276 1.52307e-20)
(2.79863 -0.0690878 0)
(3.02735 -0.0557496 0)
(3.22047 -0.042015 0)
(3.37453 -0.0283747 -1.53994e-20)
(3.48697 -0.0163345 -1.54297e-20)
(3.56035 -0.00722455 0)
(3.60203 -0.000784798 -1.54422e-20)
(3.61868 0.00534468 -1.54122e-20)
(3.60771 0.0120058 1.53508e-20)
(3.56873 0.0157907 0)
(3.5094 0.0149016 0)
(3.44406 0.00276867 1.48188e-20)
(3.40973 -0.0206077 0)
(3.447 -0.0587341 0)
(3.61941 -0.120923 0)
(4.02624 -0.181423 0)
(4.64938 -0.229732 -1.01325e-20)
(5.47574 -0.282249 -8.8403e-21)
(6.44306 -0.330172 0)
(7.50453 -0.308753 -7.40039e-21)
(8.64035 -0.164538 0)
(9.31388 -0.299882 0)
(10.5065 -0.490033 -7.3042e-21)
(11.9081 0.0132717 0)
(11.5404 -0.0369062 -6.71539e-21)
(12.5729 0.113601 0)
(11.1602 1.51696 0)
(5.63957 0.672596 -2.48187e-21)
(3.64416 -0.458676 0)
(3.1616 0.0595606 -6.24515e-21)
(2.39066 0.37273 0)
(1.17308 0.248387 0)
(-0.383487 0.240327 0)
(-1.78431 0.237346 1.78207e-20)
(-2.53778 0.100682 0)
(-2.62169 -0.0311948 -1.8538e-20)
(-2.27822 -0.0853867 0)
(-1.83137 -0.0782552 0)
(-1.436 -0.0622511 0)
(-1.10269 -0.0550292 0)
(-0.840349 -0.0440946 0)
(-0.695447 -0.014553 0)
(-0.688238 0.0126977 0)
(-0.810059 0.00167334 1.52742e-20)
(-0.896426 -0.0386402 0)
(-0.889524 -0.0480517 0)
(-0.0690476 0.882734 4.15056e-20)
(0.0347876 0.286066 -4.12541e-20)
(0.42148 -0.813002 0)
(0.866041 -1.41116 2.70262e-20)
(1.28403 -1.57761 0)
(1.64578 -1.50597 1.31903e-20)
(1.95375 -1.33852 -2.65966e-20)
(2.21577 -1.15056 -2.6538e-20)
(2.44368 -0.97659 0)
(2.64801 -0.828253 -2.64574e-20)
(2.83794 -0.705273 -1.31097e-20)
(3.01853 -0.603794 0)
(3.19191 -0.515313 0)
(3.35504 -0.434411 0)
(3.50237 -0.35621 0)
(3.63068 -0.275011 -1.29952e-20)
(3.73083 -0.19736 0)
(3.80968 -0.10709 2.59331e-20)
(3.84831 -0.0162343 0)
(3.86434 0.0919401 0)
(3.84273 0.229849 -2.52793e-20)
(3.79353 0.348404 0)
(3.73201 0.563003 2.46831e-20)
(3.63671 0.752512 -1.20413e-20)
(3.56078 0.975629 1.18622e-20)
(3.41082 1.44754 -1.17016e-20)
(3.31251 1.69453 -1.16269e-20)
(3.01545 1.61758 0)
(2.44083 1.24354 0)
(1.91563 0.526604 1.1491e-20)
(1.69532 -0.476627 -1.12355e-20)
(1.81864 -1.25037 0)
(2.02363 -1.36371 0)
(1.98023 -1.25076 1.09638e-20)
(1.79167 -0.752767 0)
(1.53462 -0.0175892 0)
(0.942051 0.525691 -1.06939e-20)
(0.102176 0.857285 0)
(-0.724064 1.12722 1.06134e-20)
(-1.48389 1.37014 -2.08434e-20)
(-2.20397 1.5377 0)
(-2.85342 1.61873 0)
(-3.43905 1.61517 -4.14247e-20)
(-3.95634 1.53591 -4.14706e-20)
(-4.42201 1.4008 -4.16509e-20)
(-4.85186 1.24825 2.13406e-20)
(-5.27428 1.11269 -2.0844e-20)
(-5.70307 1.017 -6.39472e-20)
(-6.14737 0.964527 4.33631e-20)
(-6.59767 0.942868 2.16795e-20)
(-7.03417 0.928896 0)
(-7.42771 0.897938 -2.22304e-20)
(-7.75291 0.832874 2.30178e-20)
(-7.99481 0.72888 0)
(-8.15317 0.591443 0)
(-8.23635 0.431095 0)
(-8.25358 0.258243 -2.31579e-20)
(-8.21204 0.0793161 0)
(-8.1222 -0.103451 4.684e-20)
(-7.98822 -0.289848 0)
(-7.78622 -0.490763 4.64217e-20)
(-7.50492 -0.720295 0)
(-7.12589 -0.989872 -4.56051e-20)
(-6.61354 -1.31123 0)
(-5.93444 -1.68468 4.47038e-20)
(-5.05938 -2.08699 -2.27668e-20)
(-3.98952 -2.45668 0)
(-2.78518 -2.68892 -4.60477e-20)
(-1.56725 -2.67738 -2.31148e-20)
(-0.422135 -2.39846 -2.41571e-20)
(0.51582 -1.89495 0)
(1.15777 -1.27153 -2.76873e-20)
(1.53956 -0.593088 -2.61976e-20)
(1.64005 0.104755 0)
(1.45781 0.766107 2.5165e-20)
(0.969971 1.33043 -4.90233e-20)
(0.17216 1.72764 0)
(-0.817413 1.90051 -2.08119e-20)
(-1.85867 1.76801 0)
(-2.80747 1.19583 5.57703e-20)
(-3.53925 0.445043 0)
(-4.88572 0.729273 -5.28268e-20)
(-7.52657 2.28907 -1.74852e-20)
(-9.05965 2.90922 1.75895e-20)
(-9.59634 2.64186 3.48279e-20)
(-10.6349 2.22114 -3.50421e-20)
(-11.177 1.79798 0)
(-11.7131 1.55615 0)
(-12.2327 1.25605 0)
(-12.6194 1.06214 1.08654e-19)
(-13.0357 0.87467 3.66013e-20)
(-13.3335 0.683332 -3.72971e-20)
(-13.6059 0.511909 0)
(-13.7653 0.31426 -3.90179e-20)
(-13.8474 0.126652 3.756e-20)
(-13.8224 -0.065286 3.68803e-20)
(-13.6883 -0.247911 0)
(-13.4264 -0.419749 0)
(-13.0488 -0.578591 0)
(-12.5658 -0.715577 3.04576e-20)
(-11.984 -0.830906 0)
(-11.3288 -0.916971 -5.24107e-20)
(-10.6136 -0.972934 -7.13207e-20)
(-9.86742 -0.996322 4.31937e-20)
(-9.11203 -0.988392 0)
(-8.37172 -0.952978 1.77623e-20)
(-7.66572 -0.896065 0)
(-7.00576 -0.825707 2.97087e-20)
(-6.40006 -0.749352 -1.38144e-20)
(-5.84903 -0.674875 -1.29958e-20)
(-5.34995 -0.607445 0)
(-4.89601 -0.550572 -3.55377e-20)
(-4.47748 -0.5064 2.28957e-20)
(-4.08518 -0.474267 1.10711e-20)
(-3.71013 -0.452561 0)
(-3.34506 -0.438781 1.04963e-20)
(-2.9844 -0.430434 3.08315e-20)
(-2.62545 -0.424731 0)
(-2.26706 -0.420185 1.96481e-20)
(-1.90866 -0.416537 1.92141e-20)
(-1.54955 -0.414457 1.88041e-20)
(-1.18691 -0.41593 0)
(-0.817575 -0.42247 0)
(-0.434163 -0.434745 0)
(-0.034572 -0.448348 -8.67446e-21)
(0.386028 -0.461945 -8.34059e-21)
(0.82027 -0.468691 0)
(1.2644 -0.468448 -1.60153e-20)
(1.70847 -0.457123 -1.57042e-20)
(2.13853 -0.433141 0)
(2.54138 -0.399678 -1.52632e-20)
(2.90786 -0.362795 -3.0525e-20)
(3.23576 -0.326943 1.51882e-20)
(3.52685 -0.292607 1.53207e-20)
(3.78339 -0.258325 0)
(4.00678 -0.223022 0)
(4.19767 -0.185563 0)
(4.35514 -0.144806 1.53817e-20)
(4.47651 -0.10313 -1.54766e-20)
(4.56094 -0.0662228 -3.09186e-20)
(4.61225 -0.0366182 1.54261e-20)
(4.63306 -0.0098534 -1.54614e-20)
(4.62418 0.0186534 -1.5335e-20)
(4.57605 0.0459087 0)
(4.48132 0.0642897 0)
(4.34455 0.0631438 1.497e-20)
(4.17924 0.026398 0)
(4.06026 -0.0595838 0)
(4.08295 -0.217316 -2.59754e-20)
(4.3561 -0.433264 0)
(4.93187 -0.641906 -1.046e-20)
(5.77407 -0.784193 8.83036e-21)
(6.78258 -0.856818 0)
(7.66896 -0.944262 -7.94012e-21)
(8.82254 -0.858382 0)
(9.97673 -0.752226 0)
(10.607 -0.969922 7.29596e-21)
(11.9353 -0.651388 -1.51304e-20)
(12.6787 -0.0996499 6.70981e-21)
(13.0914 0.145915 0)
(13.2828 1.58355 0)
(12.6345 3.05575 -6.01088e-21)
(9.18012 2.12353 0)
(4.1629 0.569291 -6.80459e-21)
(2.90823 0.628443 0)
(2.16719 1.08567 0)
(0.549537 1.21471 0)
(-0.989302 0.927732 -1.78151e-20)
(-1.80238 0.364119 0)
(-1.89331 -0.116662 1.85483e-20)
(-1.50076 -0.34157 0)
(-0.968725 -0.35242 0)
(-0.482166 -0.284917 -2.27605e-20)
(-0.0963988 -0.2179 1.95675e-20)
(0.176751 -0.145211 0)
(0.299886 -0.0550065 0)
(0.289189 0.0353002 0)
(0.134138 0.089333 -4.56887e-20)
(-0.0608883 0.0875208 0)
(-0.273264 0.0634464 3.08435e-20)
(0.0222433 0.623762 4.32804e-23)
(0.461402 -0.788017 5.49824e-20)
(0.989007 -1.92349 0)
(1.34354 -2.31307 -5.41164e-20)
(1.56268 -2.21928 0)
(1.71554 -1.93314 0)
(1.84997 -1.62728 -2.94326e-22)
(1.99425 -1.37468 2.6535e-20)
(2.16465 -1.18987 2.67626e-20)
(2.36443 -1.06133 2.64577e-20)
(2.58792 -0.968605 0)
(2.82495 -0.891711 0)
(3.06169 -0.81434 -2.6655e-20)
(3.28493 -0.726028 -5.32565e-20)
(3.4822 -0.621308 5.31695e-20)
(3.64348 -0.499428 0)
(3.7597 -0.368976 5.28246e-20)
(3.82876 -0.22336 -2.59268e-20)
(3.85257 -0.0663039 0)
(3.82844 0.109887 5.17263e-20)
(3.76532 0.303796 2.52782e-20)
(3.65953 0.481611 -5.05879e-20)
(3.52404 0.677221 -2.46876e-20)
(3.41316 0.87038 0)
(3.29935 1.09615 4.85688e-20)
(3.24737 1.39258 4.78403e-20)
(3.24121 1.78751 0)
(3.154 1.8509 4.62386e-20)
(2.91696 1.48876 0)
(2.57634 1.15109 4.47401e-20)
(2.5637 0.0327205 2.25925e-20)
(2.31886 -1.16235 0)
(1.61871 -0.817203 0)
(0.681859 0.341786 0)
(-0.235714 1.07948 0)
(-0.977955 1.55561 0)
(-1.63929 1.86613 0)
(-2.25968 2.05766 4.27443e-20)
(-2.82363 2.20765 -6.35243e-20)
(-3.32293 2.31242 0)
(-3.75587 2.35431 0)
(-4.12606 2.32781 0)
(-4.45423 2.24164 -9.05652e-22)
(-4.76319 2.11531 4.13617e-20)
(-5.08369 1.97607 8.4086e-20)
(-5.43421 1.85143 -8.46904e-20)
(-5.82169 1.75642 -4.31989e-20)
(-6.22909 1.68701 4.27521e-20)
(-6.62911 1.6229 8.57147e-22)
(-6.98897 1.53996 4.46651e-20)
(-7.28613 1.42107 0)
(-7.50966 1.26186 4.57084e-20)
(-7.66218 1.06906 6.99953e-22)
(-7.75357 0.854979 0)
(-7.79689 0.632622 0)
(-7.80393 0.412759 -4.72081e-20)
(-7.78467 0.200278 0)
(-7.74431 -0.00866111 0)
(-7.67772 -0.222691 4.80275e-20)
(-7.58051 -0.451793 9.46357e-20)
(-7.45233 -0.712171 -4.64332e-20)
(-7.28587 -1.02178 0)
(-7.06437 -1.40493 4.55798e-20)
(-6.76239 -1.88185 0)
(-6.3441 -2.45613 4.67804e-20)
(-5.77793 -3.08949 4.44188e-20)
(-5.06346 -3.6674 -9.22703e-20)
(-4.26105 -4.00274 -4.89915e-20)
(-3.48274 -3.92256 0)
(-2.80849 -3.39862 1.03314e-19)
(-2.2797 -2.61913 0)
(-1.90347 -1.73023 1.62911e-19)
(-1.65791 -0.789127 1.10249e-19)
(-1.57519 0.202725 1.09089e-19)
(-1.65941 1.15375 -1.05444e-19)
(-1.95959 1.95399 1.4862e-19)
(-2.51894 2.53082 0)
(-3.22849 2.83773 0)
(-3.98796 2.6818 -7.94061e-20)
(-4.90558 2.18022 -1.11949e-19)
(-6.4309 2.25049 0)
(-8.32481 3.09626 3.48906e-20)
(-9.5984 3.52808 0)
(-9.97171 3.34761 -1.0397e-19)
(-10.038 3.04462 2.1995e-21)
(-10.3564 2.62749 -2.31384e-21)
(-10.5299 2.20668 7.03122e-20)
(-10.8523 1.93385 0)
(-11.2514 1.64443 -7.29001e-20)
(-11.6272 1.43116 1.47448e-21)
(-12.049 1.20576 0)
(-12.3988 0.972718 0)
(-12.7043 0.726904 0)
(-12.9049 0.447957 7.6934e-20)
(-12.9933 0.161921 0)
(-12.9605 -0.138657 0)
(-12.8022 -0.434244 0)
(-12.5235 -0.719971 0)
(-12.1265 -0.981245 0)
(-11.6235 -1.21203 6.30015e-20)
(-11.0244 -1.4034 0)
(-10.3462 -1.54783 5.24303e-20)
(-9.60969 -1.64074 4.77141e-20)
(-8.83912 -1.67744 -4.32081e-20)
(-8.06278 -1.66095 0)
(-7.30657 -1.59677 -3.54173e-20)
(-6.59217 -1.49638 0)
(-5.93323 -1.3734 -2.97255e-20)
(-5.3364 -1.24078 2.76507e-20)
(-4.80126 -1.11244 7.81176e-20)
(-4.32242 -0.997514 0)
(-3.89239 -0.90176 7.13422e-20)
(-3.49926 -0.828813 2.31548e-20)
(-3.1325 -0.777343 0)
(-2.78236 -0.74432 4.3636e-20)
(-2.44138 -0.724684 4.25779e-20)
(-2.10354 -0.71377 -6.21681e-20)
(-1.76711 -0.706514 0)
(-1.43163 -0.700271 -1.96599e-20)
(-1.09703 -0.694794 -1.9225e-20)
(-0.763573 -0.691389 -5.67814e-20)
(-0.428405 -0.693836 0)
(-0.0882906 -0.706313 0)
(0.268512 -0.726971 0)
(0.647874 -0.753284 -1.76209e-20)
(1.05325 -0.777837 0)
(1.48227 -0.794225 0)
(1.92786 -0.796082 1.59942e-20)
(2.37975 -0.77754 1.56836e-20)
(2.82334 -0.735054 0)
(3.24187 -0.673142 0)
(3.62164 -0.602763 3.04882e-20)
(3.95593 -0.533613 0)
(4.24398 -0.468671 -3.0497e-20)
(4.48719 -0.406481 -3.07535e-20)
(4.68774 -0.346031 0)
(4.84869 -0.285878 0)
(4.97196 -0.223376 3.09401e-20)
(5.05666 -0.160051 -1.16206e-22)
(5.10129 -0.102396 -1.04627e-22)
(5.10928 -0.0524543 0)
(5.08525 -0.00553126 6.17895e-20)
(5.02737 0.0464922 0)
(4.92399 0.10602 0)
(4.75167 0.162722 0)
(4.49806 0.197464 -2.97618e-20)
(4.19035 0.169174 0)
(3.9316 0.0265646 5.66958e-20)
(3.88246 -0.27355 2.59767e-20)
(4.17795 -0.684026 0)
(4.84664 -1.0792 2.0569e-20)
(5.77544 -1.36508 0)
(6.88196 -1.45067 0)
(7.94007 -1.48076 4.77335e-20)
(8.83231 -1.47322 -3.24658e-20)
(9.90187 -1.31548 0)
(10.8655 -1.46704 -3.38386e-20)
(11.6443 -1.25585 1.51164e-20)
(12.8339 -0.456657 0)
(13.4962 0.105655 0)
(13.0245 1.3399 0)
(13.81 3.26703 3.29469e-20)
(13.3022 3.97916 0)
(9.36663 3.07443 1.29401e-20)
(4.82165 1.60562 0)
(2.58219 1.5522 0)
(1.09354 1.83791 0)
(-0.277695 1.41989 0)
(-1.0585 0.590465 0)
(-1.10377 -0.192833 0)
(-0.652302 -0.59325 6.63871e-20)
(-0.0479358 -0.611003 0)
(0.483083 -0.487931 2.27524e-20)
(0.833668 -0.364472 -5.78957e-20)
(1.00768 -0.232252 0)
(1.00976 -0.072577 0)
(0.8614 0.0896723 3.02912e-20)
(0.537765 0.178132 3.04003e-20)
(0.203728 0.157194 -3.0593e-20)
(-0.0527426 0.103554 -3.08469e-20)
(0.179249 -0.149356 -8.3601e-20)
(0.661698 -1.93743 -8.27638e-20)
(1.04851 -2.66062 -5.50091e-20)
(1.26297 -2.63882 -2.76869e-20)
(1.39621 -2.34578 0)
(1.53119 -2.05367 5.45272e-20)
(1.71388 -1.85421 -2.75068e-20)
(1.95419 -1.74476 0)
(2.24414 -1.68945 -2.6725e-20)
(2.56725 -1.65109 0)
(2.90146 -1.6022 5.41462e-20)
(3.22439 -1.52413 0)
(3.51678 -1.40747 2.65902e-20)
(3.76584 -1.25021 5.31293e-20)
(3.96329 -1.05316 -5.30488e-20)
(4.10512 -0.823516 0)
(4.18736 -0.572031 -5.27067e-20)
(4.20592 -0.310304 0)
(4.16826 -0.0397593 0)
(4.07449 0.231308 -5.16395e-20)
(3.93192 0.504849 0)
(3.73749 0.76031 -8.5487e-22)
(3.50847 0.958928 0)
(3.24754 1.16452 0)
(3.01804 1.2934 5.26906e-22)
(2.80857 1.54537 -4.78784e-20)
(2.6276 1.91397 -4.74071e-20)
(2.54432 1.98537 -4.63005e-20)
(2.1149 2.07624 0)
(1.90131 1.14049 -8.93529e-20)
(1.77918 -0.0180604 0)
(0.877653 0.346117 -4.37981e-20)
(-0.225169 1.16143 0)
(-1.09099 1.7504 0)
(-1.79139 2.15755 4.33948e-20)
(-2.36886 2.46641 0)
(-2.85413 2.66714 -4.31371e-20)
(-3.261 2.78477 4.29938e-22)
(-3.6039 2.84343 8.53395e-20)
(-3.89702 2.85172 -8.58032e-20)
(-4.15583 2.81605 0)
(-4.3977 2.74582 0)
(-4.64405 2.65514 -4.39398e-20)
(-4.91152 2.55942 0)
(-5.2086 2.46858 -4.24913e-20)
(-5.52837 2.38362 4.27857e-20)
(-5.85389 2.29557 4.31641e-20)
(-6.16168 2.19019 0)
(-6.43318 2.05455 -4.41267e-20)
(-6.65644 1.88199 -4.46651e-20)
(-6.8312 1.6735 9.20532e-20)
(-6.96486 1.43745 -4.57242e-20)
(-7.069 1.1866 -4.61995e-20)
(-7.15248 0.932518 0)
(-7.21915 0.681742 0)
(-7.2687 0.435838 4.72369e-20)
(-7.30043 0.194295 0)
(-7.31047 -0.0427325 0)
(-7.29629 -0.279224 -9.49595e-20)
(-7.26416 -0.529319 -9.46793e-20)
(-7.22117 -0.809998 0)
(-7.17001 -1.14719 0)
(-7.11093 -1.57416 0)
(-7.03505 -2.1231 0)
(-6.92328 -2.8063 -9.12481e-20)
(-6.7521 -3.57314 9.33627e-20)
(-6.51321 -4.264 9.19413e-20)
(-6.24191 -4.62206 1.90972e-19)
(-5.99228 -4.42861 0)
(-5.77126 -3.70851 1.17534e-21)
(-5.57027 -2.759 0)
(-5.39471 -1.82508 -1.08726e-19)
(-5.24995 -0.881757 -7.42589e-22)
(-5.18636 0.200885 -1.08405e-19)
(-5.20233 1.37543 1.04786e-19)
(-5.31794 2.44363 -3.46071e-22)
(-5.60948 3.22595 0)
(-5.99676 3.58202 8.58415e-20)
(-6.48112 3.53766 7.89727e-20)
(-7.36895 3.52104 1.50566e-19)
(-8.62377 3.90415 0)
(-9.45367 4.14532 -7.19169e-20)
(-9.50377 3.75309 0)
(-9.33229 3.31478 1.40196e-19)
(-9.3784 3.13441 -6.92618e-20)
(-9.52177 2.79287 6.96025e-20)
(-9.67367 2.48089 -7.03679e-20)
(-10.0016 2.29375 -1.45761e-19)
(-10.3699 2.04176 7.29566e-20)
(-10.742 1.82618 -7.4514e-20)
(-11.1464 1.57883 0)
(-11.4797 1.28364 1.58296e-19)
(-11.7567 0.953668 0)
(-11.9259 0.572894 1.61157e-19)
(-11.9721 0.169578 -1.60187e-19)
(-11.9049 -0.249651 -1.57326e-19)