/*--------------------------------*- C++ -*----------------------------------*\
| =========                 |                                                 |
| \\      /  F ield         | OpenFOAM: The Open Source CFD Toolbox           |
|  \\    /   O peration     | Version:  2112                                  |
|   \\  /    A nd           | Website:  www.openfoam.com                      |
|    \\/     M anipulation  |                                                 |
\*---------------------------------------------------------------------------*/
FoamFile
{
    version     2.0;
    format      ascii;
    arch        "LSB;label=32;scalar=64";
    class       volScalarField;
    location    "0.05";
    object      p;
}
// * * * * * * * * * * * * * * * * * * * * * * * * * * * * * * * * * * * * * //

dimensions      [0 2 -2 0 0 0 0];

internalField   nonuniform List<scalar> 
12225
(
-1.55159
-3.87911
-4.99146
-5.25779
-5.40399
-5.54679
-5.65057
-5.71097
-5.74479
-5.76177
-5.76329
-5.74882
-5.71818
-5.67049
-5.60406
-5.5128
-5.39747
-5.21631
-5.12691
-5.85071
-5.90608
-5.72978
-5.64781
-5.67711
-5.72412
-5.75395
-5.77004
-5.77635
-5.77151
-5.75345
-5.7211
-5.6733
-5.6084
-5.52275
-5.41768
-5.29967
-5.16333
-4.9485
-5.08643
-5.23117
-5.36752
-5.50402
-5.61004
-5.6776
-5.71836
-5.74125
-5.7482
-5.73909
-5.71408
-5.67305
-5.61559
-5.54052
-5.45282
-5.3627
-5.04394
-4.96421
-5.28245
-5.47116
-5.55603
-5.63175
-5.69735
-5.74023
-5.76459
-5.77612
-5.77553
-5.76188
-5.73483
-5.69422
-5.64008
-5.57266
-5.4971
-5.41959
-5.08077
-5.10668
-5.35713
-5.4883
-5.54354
-5.60819
-5.67364
-5.72037
-5.74891
-5.76427
-5.76749
-5.75796
-5.7356
-5.70067
-5.65384
-5.59635
-5.53279
-5.4689
-5.15256
-5.19238
-5.36754
-5.48348
-5.54782
-5.61593
-5.68142
-5.72851
-5.75775
-5.7739
-5.77835
-5.77082
-5.75145
-5.72085
-5.68008
-5.6309
-5.57738
-5.5245
-5.21703
-5.25106
-5.38571
-5.4984
-5.56841
-5.63298
-5.69319
-5.73798
-5.76688
-5.78353
-5.78928
-5.78408
-5.76822
-5.74251
-5.70824
-5.66731
-5.62315
-5.57939
-5.27615
-5.30694
-5.4159
-5.51986
-5.58907
-5.64893
-5.70465
-5.74804
-5.7774
-5.79529
-5.80304
-5.80085
-5.78915
-5.76886
-5.74136
-5.7085
-5.67304
-5.63752
-5.33346
-5.3621
-5.45051
-5.5427
-5.60947
-5.66613
-5.71858
-5.76093
-5.79096
-5.8104
-5.82053
-5.82176
-5.8146
-5.80004
-5.77943
-5.75448
-5.72732
-5.69978
-5.38935
-5.41527
-5.48722
-5.56795
-5.63176
-5.68591
-5.73557
-5.77691
-5.8077
-5.82895
-5.84184
-5.84687
-5.84462
-5.83607
-5.8225
-5.80538
-5.78642
-5.76691
-5.44362
-5.46646
-5.52568
-5.59616
-5.65638
-5.70821
-5.75553
-5.79606
-5.8278
-5.85119
-5.86718
-5.87637
-5.87937
-5.87709
-5.87069
-5.86144
-5.85068
-5.83943
-5.49188
-5.51201
-5.56223
-5.62448
-5.68106
-5.73091
-5.77658
-5.81668
-5.84949
-5.8751
-5.89425
-5.90754
-5.9156
-5.91925
-5.91953
-5.91755
-5.9144
-5.91093
-5.53822
-5.55603
-5.59909
-5.65427
-5.70728
-5.75536
-5.79983
-5.83981
-5.8739
-5.90194
-5.92446
-5.94206
-5.95531
-5.96499
-5.97199
-5.97726
-5.98173
-5.98614
-5.58921
-5.60481
-5.64152
-5.69011
-5.73941
-5.78578
-5.82943
-5.86974
-5.90562
-5.93674
-5.96344
-5.98624
-6.00567
-6.0224
-6.0372
-6.05085
-6.06414
-6.07771
-5.64436
-5.65793
-5.68942
-5.73238
-5.77824
-5.82319
-5.86662
-5.90797
-5.94635
-5.98138
-6.01321
-6.04223
-6.06891
-6.0938
-6.11752
-6.14072
-6.16403
-6.18803
-5.70261
-5.71453
-5.74215
-5.78088
-5.82413
-5.86836
-5.91249
-5.95585
-5.99773
-6.03769
-6.07572
-6.11209
-6.14714
-6.18131
-6.21507
-6.24893
-6.28338
-6.31891
-5.76193
-5.77279
-5.79808
-5.83441
-5.87652
-5.92128
-5.9674
-6.01414
-6.0608
-6.10692
-6.15237
-6.19727
-6.24183
-6.28634
-6.33115
-6.37661
-6.42307
-6.47088
-5.81847
-5.82904
-5.85376
-5.88996
-5.93307
-5.98024
-6.03015
-6.08197
-6.13499
-6.18869
-6.24285
-6.29741
-6.35248
-6.40818
-6.46472
-6.52229
-6.5811
-6.64135
-5.86466
-5.87596
-5.90235
-5.94131
-5.98836
-6.04064
-6.09676
-6.15587
-6.2172
-6.28015
-6.34436
-6.40968
-6.47605
-6.5435
-6.61206
-6.6818
-6.75278
-6.82506
-5.88066
-5.89358
-5.92366
-5.96808
-6.02156
-6.08066
-6.14399
-6.21086
-6.28043
-6.35196
-6.42499
-6.4993
-6.57478
-6.65136
-6.72901
-6.80771
-6.88744
-6.96818
-5.87472
-5.88924
-5.9235
-5.97433
-6.0348
-6.10055
-6.17044
-6.24402
-6.32034
-6.39854
-6.47818
-6.55908
-6.64108
-6.72407
-6.80796
-6.89272
-6.9783
-7.06467
-5.85357
-5.86954
-5.90912
-5.96829
-6.03645
-6.10855
-6.18485
-6.26511
-6.34773
-6.43166
-6.51666
-6.60269
-6.68962
-6.77731
-6.86567
-6.95466
-7.04423
-7.13428
-5.82175
-5.8376
-5.88379
-5.95474
-6.03144
-6.10875
-6.19043
-6.27675
-6.36521
-6.45442
-6.5443
-6.63486
-6.72598
-6.81751
-6.90944
-7.00175
-7.09444
-7.18749
-5.78359
-5.79627
-5.84979
-5.93496
-6.02139
-6.1052
-6.19282
-6.28393
-6.37599
-6.46845
-6.56159
-6.65527
-6.74923
-6.84334
-6.93763
-7.03211
-7.12676
-7.22141
-5.74121
-5.74879
-5.81798
-5.91264
-6.00001
-6.09086
-6.19001
-6.29006
-6.38753
-6.48384
-6.58026
-6.67672
-6.77294
-6.86889
-6.96471
-7.06051
-7.15636
-7.25246
-5.6933
-5.6779
-5.80408
-5.9187
-5.98588
-6.06338
-6.16269
-6.26687
-6.36849
-6.4688
-6.56907
-6.66905
-6.76834
-6.867
-6.96521
-7.06312
-7.16076
-7.25803
-5.66705
-5.52498
-5.73982
-5.95502
-6.05784
-6.141
-6.23387
-6.32901
-6.42298
-6.51747
-6.61309
-6.70905
-6.80482
-6.90035
-6.99577
-7.09119
-7.18685
-7.28338
-5.81283
-5.39294
-5.40781
-5.56594
-5.72873
-5.90325
-6.05959
-6.19596
-6.31976
-6.43749
-6.55132
-6.66154
-6.76853
-6.87296
-6.97542
-7.07637
-7.17638
-7.27646
-5.93158
-6.45681
-6.44379
-6.25019
-6.16218
-6.18377
-6.25669
-6.33917
-6.42603
-6.51832
-6.61412
-6.7111
-6.8082
-6.90515
-7.00178
-7.09786
-7.19359
-7.29006
-2.34436
-4.3237
-5.3952
-5.66279
-5.80802
-5.97236
-6.12629
-6.2568
-6.37412
-6.48678
-6.59645
-6.70289
-6.80645
-6.90778
-7.00726
-7.10482
-7.2003
-7.29177
-8.47056
-8.43453
-8.37645
-8.35801
-8.41272
-8.54255
-8.72851
-8.94574
-9.171
-9.38438
-9.56903
-9.71147
-9.80013
-9.83574
-9.82916
-9.79071
-9.7279
-9.64953
-9.56674
-9.49046
-9.42857
-9.38569
-9.36389
-9.36346
-9.38369
-9.42341
-9.48076
-9.55356
-9.6416
-9.74749
-9.87691
-10.0361
-10.2446
-10.5167
-10.8689
-11.3128
-11.8526
-12.4838
-13.1935
-13.9633
-14.7716
-15.5965
-16.4177
-17.2184
-17.9856
-18.7102
-19.3865
-20.0117
-20.5853
-21.1081
-21.5821
-22.0098
-22.3938
-22.7371
-23.0422
-23.3115
-23.5473
-23.7515
-23.9259
-24.0718
-24.1905
-24.283
-24.3499
-24.3919
-24.4094
-24.4024
-24.3712
-24.3155
-24.2349
-24.1291
-23.9976
-23.8399
-23.6558
-23.4436
-23.1991
-22.918
-22.5986
-22.2393
-21.8373
-21.3892
-20.891
-20.3382
-19.7257
-19.0478
-18.2985
-17.471
-16.5579
-15.5519
-14.4449
-13.2292
-11.8974
-10.443
-8.86108
-7.14907
-5.30785
-3.34287
-1.26524
0.907126
3.14885
5.42695
7.70159
9.92786
12.0587
14.0484
15.8569
17.4524
18.8139
19.9332
20.8182
21.4927
21.9784
22.2919
22.4594
22.5075
22.461
22.3417
22.1684
21.9564
21.7184
21.4642
21.2016
20.9367
20.6739
20.4166
20.1674
19.9279
19.6996
19.4831
19.279
19.0875
18.9086
18.7423
18.5884
18.4466
18.3173
18.1997
18.0905
17.9894
17.8966
17.8123
17.7361
17.6674
17.6059
17.5508
17.5018
17.4582
17.4196
17.3856
17.3557
17.3296
17.3068
17.2871
17.2702
17.2558
17.2437
17.2337
17.2256
17.2193
17.2147
17.2116
17.2101
17.2101
17.2115
17.2145
17.2191
17.2254
17.2336
17.2439
17.2568
17.2727
17.2923
17.3168
17.3475
17.3866
17.4372
17.5039
17.5949
17.7169
17.904
18.1101
-8.59229
-8.55036
-8.55707
-8.63626
-8.77199
-8.94875
-9.15138
-9.3632
-9.56878
-9.7555
-9.91376
-10.0372
-10.1231
-10.1606
-10.1389
-10.0582
-9.92792
-9.76351
-9.58465
-9.41354
-9.27177
-9.17461
-9.12662
-9.12214
-9.1495
-9.19422
-9.24315
-9.29194
-9.34739
-9.42329
-9.53438
-9.69126
-9.90933
-10.2112
-10.6163
-11.1347
-11.7639
-12.4896
-13.2889
-14.1344
-14.9992
-15.8594
-16.6961
-17.4953
-18.2483
-18.95
-19.5987
-20.1946
-20.7393
-21.2352
-21.6851
-22.0919
-22.4583
-22.7869
-23.0803
-23.3405
-23.5694
-23.7688
-23.94
-24.0842
-24.2025
-24.2957
-24.3644
-24.4091
-24.4301
-24.4273
-24.4007
-24.3501
-24.2749
-24.1743
-24.0473
-23.8926
-23.7086
-23.4936
-23.2477
-22.9706
-22.6591
-22.3097
-21.9191
-21.4838
-20.9999
-20.4629
-19.8681
-19.21
-18.4825
-17.6793
-16.7933
-15.8171
-14.7431
-13.5636
-12.271
-10.8589
-9.3218
-7.65659
-5.86321
-3.9458
-1.91388
0.216531
2.42212
4.67195
6.92803
9.14681
11.2819
13.2877
15.1232
16.7556
18.1626
19.3338
20.2736
20.995
21.5197
21.8733
22.081
22.1682
22.1586
22.0737
21.9318
21.7483
21.5358
21.3043
21.0618
20.8145
20.5673
20.3237
20.0865
19.8576
19.6384
19.43
19.2331
19.0478
18.8744
18.7129
18.5631
18.4246
18.2966
18.1786
18.071
17.9731
17.8839
17.8028
17.7293
17.6629
17.6031
17.5495
17.5015
17.4588
17.4209
17.3874
17.3578
17.3319
17.3092
17.2895
17.2724
17.2579
17.2455
17.2352
17.2269
17.2202
17.2153
17.2119
17.2101
17.2097
17.2109
17.2135
17.2178
17.2238
17.2317
17.2416
17.2541
17.2695
17.2885
17.3121
17.3417
17.379
17.4272
17.4897
17.5739
17.6837
17.8475
18.0193
-8.79632
-8.76718
-8.84413
-8.99548
-9.17476
-9.36642
-9.56207
-9.75197
-9.92664
-10.0779
-10.1989
-10.2842
-10.3301
-10.3339
-10.2923
-10.2045
-10.0728
-9.90321
-9.70794
-9.50717
-9.32621
-9.18698
-9.09874
-9.05565
-9.04364
-9.05106
-9.07436
-9.11956
-9.20069
-9.33574
-9.54349
-9.83916
-10.2308
-10.7187
-11.2962
-11.9508
-12.6656
-13.4221
-14.202
-14.9887
-15.7679
-16.5286
-17.2621
-17.9625
-18.6257
-19.2493
-19.832
-20.3736
-20.8746
-21.336
-21.7591
-22.1453
-22.4963
-22.8136
-23.0988
-23.3533
-23.5785
-23.7756
-23.9458
-24.09
-24.2089
-24.3033
-24.3738
-24.4205
-24.4439
-24.444
-24.4208
-24.3739
-24.3031
-24.2078
-24.0872
-23.9401
-23.765
-23.56
-23.3242
-23.0563
-22.7542
-22.4152
-22.0363
-21.6142
-21.145
-20.6245
-20.0481
-19.4105
-18.706
-17.9284
-17.0708
-16.126
-15.0865
-13.9445
-12.6924
-11.3233
-9.83122
-8.2121
-6.46466
-4.59146
-2.6002
-0.504849
1.67328
3.90501
6.15354
8.37578
10.5249
12.554
14.4203
16.0887
17.5349
18.747
19.729
20.4955
21.0661
21.4637
21.7127
21.8384
21.8643
21.8117
21.6992
21.5421
21.3532
21.1428
20.919
20.6884
20.4559
20.2253
19.9995
19.7808
19.5707
19.3703
19.1804
19.0015
18.8338
18.6772
18.5318
18.3972
18.2731
18.159
18.0548
17.9593
17.8722
17.7931
17.7213
17.6565
17.5981
17.5458
17.499
17.4573
17.4203
17.3875
17.3585
17.333
17.3106
17.2911
17.2742
17.2596
17.2472
17.2368
17.2282
17.2213
17.216
17.2123
17.21
17.2093
17.21
17.2122
17.216
17.2215
17.2288
17.2383
17.2501
17.2648
17.2831
17.3056
17.3338
17.3693
17.4144
17.4722
17.5481
17.6434
17.7751
17.8926
-9.14992
-9.17441
-9.28095
-9.42922
-9.59223
-9.76109
-9.92998
-10.0917
-10.2386
-10.3634
-10.4597
-10.5223
-10.5477
-10.5328
-10.4762
-10.3781
-10.2413
-10.0714
-9.87921
-9.68162
-9.49929
-9.34927
-9.23995
-9.17169
-9.14148
-9.14974
-9.20413
-9.3184
-9.5074
-9.78139
-10.1434
-10.5893
-11.1091
-11.6898
-12.3178
-12.9805
-13.6666
-14.3662
-15.0706
-15.772
-16.4632
-17.1382
-17.7917
-18.4193
-19.0179
-19.5849
-20.1189
-20.619
-21.085
-21.5171
-21.9159
-22.2823
-22.6171
-22.9214
-23.1963
-23.4428
-23.6619
-23.8546
-24.0217
-24.1639
-24.2819
-24.3763
-24.4474
-24.4956
-24.5209
-24.5235
-24.5032
-24.4597
-24.3927
-24.3016
-24.1857
-24.0441
-23.8756
-23.6789
-23.4525
-23.1949
-22.9039
-22.5772
-22.2119
-21.8048
-21.3522
-20.8503
-20.2944
-19.6796
-19.0002
-18.2503
-17.423
-16.5113
-15.5075
-14.4037
-13.192
-11.8648
-10.4151
-8.83766
-7.12951
-5.29123
-3.3283
-1.25243
0.917065
3.15239
5.41711
7.66726
9.85389
11.927
13.8401
15.5544
17.0428
18.294
19.3132
20.1147
20.7168
21.1427
21.4179
21.5679
21.6167
21.5858
21.4934
21.3552
21.1839
20.9897
20.7808
20.5637
20.3434
20.124
19.9084
19.6988
19.4969
19.304
19.1209
18.9481
18.7859
18.6344
18.4936
18.3631
18.2427
18.132
18.0305
17.9377
17.8533
17.7767
17.7073
17.6447
17.5885
17.538
17.4929
17.4526
17.4169
17.3851
17.3571
17.3324
17.3106
17.2916
17.2751
17.2607
17.2484
17.238
17.2293
17.2223
17.2168
17.2127
17.2101
17.2089
17.2092
17.2109
17.2142
17.2191
17.2258
17.2345
17.2455
17.2592
17.2763
17.2973
17.3235
17.3561
17.3972
17.4487
17.5142
17.5929
17.6921
17.7657
-9.48564
-9.54809
-9.63971
-9.75545
-9.88802
-10.0295
-10.1727
-10.3103
-10.4347
-10.539
-10.6173
-10.6647
-10.6776
-10.654
-10.5928
-10.4956
-10.3658
-10.2103
-10.0401
-9.86956
-9.71411
-9.58663
-9.49513
-9.44548
-9.44483
-9.50343
-9.63355
-9.84582
-10.1449
-10.5272
-10.9826
-11.4973
-12.0576
-12.6518
-13.2703
-13.9051
-14.5497
-15.1981
-15.8448
-16.4846
-17.113
-17.7258
-18.3192
-18.8903
-19.4366
-19.9563
-20.448
-20.9108
-21.3444
-21.7486
-22.1236
-22.4698
-22.7877
-23.0779
-23.3413
-23.5784
-23.79
-23.9768
-24.1394
-24.2784
-24.3943
-24.4875
-24.5583
-24.607
-24.6336
-24.6382
-24.6206
-24.5806
-24.5178
-24.4317
-24.3214
-24.1863
-24.0251
-23.8367
-23.6196
-23.3723
-23.0928
-22.7787
-22.4275
-22.0361
-21.601
-21.1185
-20.5841
-19.9932
-19.3403
-18.6194
-17.8241
-16.9471
-15.981
-14.9175
-13.7484
-12.4654
-11.0604
-9.52688
-7.8598
-6.05746
-4.1227
-2.0645
0.100335
2.34574
4.6357
6.92509
9.16209
11.2923
13.2641
15.0339
16.5725
17.8694
18.9287
19.7634
20.3934
20.8436
21.1407
21.3112
21.3795
21.3672
21.2928
21.1716
21.0164
20.8371
20.6422
20.4379
20.2294
20.0207
19.8147
19.614
19.4201
19.2345
19.058
18.8912
18.7344
18.5879
18.4515
18.3252
18.2086
18.1014
18.0031
17.9134
17.8317
17.7576
17.6907
17.6303
17.576
17.5274
17.484
17.4453
17.4109
17.3804
17.3534
17.3296
17.3087
17.2903
17.2743
17.2603
17.2483
17.2381
17.2295
17.2224
17.2168
17.2126
17.2098
17.2083
17.2081
17.2094
17.2122
17.2165
17.2225
17.2304
17.2405
17.2532
17.2688
17.2881
17.3119
17.3412
17.3775
17.4219
17.4764
17.5382
17.6087
17.6485
-9.6619
-9.73882
-9.81236
-9.90611
-10.0173
-10.1384
-10.262
-10.3811
-10.489
-10.5793
-10.6465
-10.686
-10.6947
-10.6708
-10.6147
-10.529
-10.4187
-10.2915
-10.1579
-10.0299
-9.91943
-9.83753
-9.79422
-9.80015
-9.86694
-10.0057
-10.2244
-10.5248
-10.9019
-11.345
-11.8411
-12.3775
-12.9429
-13.5285
-14.1269
-14.7322
-15.3397
-15.945
-16.5444
-17.1346
-17.7125
-18.2752
-18.8202
-19.3455
-19.8492
-20.3297
-20.7859
-21.217
-21.6224
-22.002
-22.3556
-22.6833
-22.9854
-23.2624
-23.5146
-23.7425
-23.9467
-24.1276
-24.2857
-24.4214
-24.5351
-24.6272
-24.6977
-24.747
-24.7751
-24.7818
-24.7672
-24.7309
-24.6726
-24.5917
-24.4875
-24.3593
-24.206
-24.0265
-23.8193
-23.583
-23.3157
-23.0153
-22.6791
-22.3044
-21.8878
-21.4258
-20.9142
-20.3484
-19.7231
-19.0328
-18.2708
-17.4303
-16.5036
-15.4825
-14.3582
-13.1219
-11.7647
-10.2783
-8.65604
-6.89359
-4.99091
-2.95383
-0.796119
1.45854
3.77512
6.10751
8.40068
10.595
12.6324
14.465
16.0624
17.412
18.5155
19.3863
20.0464
20.5225
20.8431
21.0354
21.1246
21.1322
21.0769
20.9738
20.8357
20.6725
20.4923
20.3017
20.1057
19.9084
19.7128
19.5214
19.3361
19.1581
18.9886
18.8282
18.6772
18.5359
18.4044
18.2825
18.17
18.0665
17.9717
17.8852
17.8065
17.7352
17.6708
17.6128
17.5608
17.5142
17.4726
17.4356
17.4027
17.3735
17.3478
17.325
17.305
17.2874
17.2721
17.2587
17.2471
17.2372
17.2288
17.2219
17.2163
17.212
17.209
17.2073
17.2069
17.2078
17.2101
17.2138
17.2192
17.2263
17.2354
17.2468
17.2609
17.2782
17.2993
17.3249
17.356
17.393
17.4364
17.4822
17.5282
17.5414
-9.61377
-9.69664
-9.77064
-9.86073
-9.96307
-10.0723
-10.1828
-10.289
-10.3852
-10.466
-10.5267
-10.5633
-10.5736
-10.5566
-10.5135
-10.4481
-10.3666
-10.277
-10.189
-10.1133
-10.0609
-10.0426
-10.07
-10.1543
-10.3053
-10.529
-10.8266
-11.1934
-11.6204
-12.0962
-12.6096
-13.1503
-13.7096
-14.2805
-14.8573
-15.4356
-16.0117
-16.5824
-17.1452
-17.6975
-18.2371
-18.7621
-19.2704
-19.7606
-20.2311
-20.6808
-21.1087
-21.514
-21.8963
-22.2552
-22.5907
-22.9026
-23.1911
-23.4564
-23.6988
-23.9187
-24.1163
-24.2921
-24.4463
-24.5793
-24.6914
-24.7828
-24.8536
-24.9039
-24.9339
-24.9433
-24.9321
-24.9
-24.8466
-24.7715
-24.6739
-24.5531
-24.4082
-24.238
-24.0412
-23.8165
-23.562
-23.2756
-22.9551
-22.5975
-22.2
-21.759
-21.2705
-20.7302
-20.133
-19.4735
-18.7454
-17.9417
-17.0549
-16.0766
-14.998
-13.8096
-12.5018
-11.065
-9.4907
-7.77216
-5.90641
-3.89595
-1.75103
0.50775
2.84703
5.22014
7.56853
9.82738
11.9325
13.8332
15.4946
16.9004
18.0511
18.9612
19.6547
20.1603
20.5077
20.7252
20.8382
20.8687
20.8352
20.7529
20.6341
20.489
20.3255
20.1501
19.9681
19.7834
19.5993
19.4183
19.2423
19.0729
18.9111
18.7576
18.613
18.4775
18.3513
18.2343
18.1262
18.0268
17.9359
17.8529
17.7776
17.7093
17.6477
17.5924
17.5427
17.4983
17.4588
17.4236
17.3924
17.3648
17.3404
17.3189
17.2999
17.2833
17.2687
17.256
17.245
17.2355
17.2275
17.2207
17.2153
17.211
17.208
17.2061
17.2055
17.206
17.2079
17.2111
17.2158
17.222
17.2301
17.2402
17.2526
17.2677
17.2859
17.3077
17.3334
17.3628
17.3954
17.4266
17.4521
17.4441
-9.35372
-9.44385
-9.53806
-9.6367
-9.73808
-9.84089
-9.9422
-10.0382
-10.1247
-10.1975
-10.2529
-10.2884
-10.3024
-10.2955
-10.2702
-10.2311
-10.1848
-10.1394
-10.1043
-10.0896
-10.1058
-10.1635
-10.2727
-10.4417
-10.6754
-10.9746
-11.3356
-11.7511
-12.212
-12.7084
-13.2312
-13.7722
-14.3247
-14.8833
-15.4435
-16.0018
-16.5554
-17.1016
-17.6384
-18.1638
-18.6762
-19.1739
-19.6555
-20.1198
-20.5656
-20.992
-21.3982
-21.7837
-22.1479
-22.4906
-22.8117
-23.111
-23.3887
-23.6448
-23.8795
-24.093
-24.2857
-24.4577
-24.6092
-24.7406
-24.8521
-24.9436
-25.0155
-25.0677
-25.1003
-25.1131
-25.106
-25.0786
-25.0308
-24.9619
-24.8713
-24.7584
-24.6221
-24.4615
-24.2755
-24.0626
-23.821
-23.5489
-23.2438
-22.9034
-22.5247
-22.1043
-21.6385
-21.1231
-20.5533
-19.9237
-19.2283
-18.4602
-17.612
-16.6754
-15.6412
-14.4998
-13.2408
-11.8538
-10.3285
-8.65609
-6.83081
-4.85187
-2.72579
-0.469803
1.8848
4.29119
6.68742
9.00538
11.1765
13.1443
14.8685
16.3297
17.5282
18.4794
19.2091
19.7475
20.1255
20.3722
20.5131
20.5703
20.5622
20.5037
20.4072
20.2827
20.1381
19.9801
19.8137
19.6432
19.472
19.3026
19.1372
18.9773
18.8241
18.6784
18.5409
18.4119
18.2916
18.1799
18.0768
17.9821
17.8954
17.8164
17.7446
17.6798
17.6213
17.5688
17.5219
17.48
17.4427
17.4096
17.3802
17.3543
17.3315
17.3113
17.2936
17.278
17.2644
17.2525
17.2421
17.2332
17.2255
17.2191
17.2139
17.2097
17.2067
17.2047
17.2039
17.2041
17.2056
17.2082
17.2122
17.2177
17.2246
17.2334
17.244
17.2568
17.272
17.2897
17.31
17.332
17.3545
17.3725
17.3809
17.3561
-8.92629
-9.03714
-9.15671
-9.26784
-9.37071
-9.46871
-9.56177
-9.64794
-9.72459
-9.789
-9.83903
-9.87344
-9.89224
-9.89727
-9.89225
-9.88262
-9.87533
-9.87852
-9.90119
-9.95281
-10.0428
-10.1798
-10.3706
-10.6193
-10.9264
-11.2888
-11.701
-12.1552
-12.6431
-13.1566
-13.6883
-14.2318
-14.7818
-15.334
-15.8846
-16.4309
-16.9704
-17.5011
-18.021
-18.5287
-19.0229
-19.5021
-19.9654
-20.4117
-20.8403
-21.2503
-21.6411
-22.0124
-22.3637
-22.6949
-23.0056
-23.296
-23.566
-23.8157
-24.0452
-24.2546
-24.4443
-24.6142
-24.7647
-24.8959
-25.0079
-25.1009
-25.1749
-25.2299
-25.266
-25.2829
-25.2805
-25.2586
-25.2167
-25.1545
-25.0713
-24.9665
-24.8392
-24.6885
-24.5132
-24.312
-24.0831
-23.8248
-23.5348
-23.2108
-22.8501
-22.4493
-22.0049
-21.5129
-20.9687
-20.3671
-19.7022
-18.9673
-18.1551
-17.2571
-16.2644
-15.1669
-13.9539
-12.6141
-11.1361
-9.50908
-7.72496
-5.77985
-3.67694
-1.43038
0.930268
3.35846
5.79254
8.16037
10.3893
12.4161
14.1961
15.7077
16.9511
17.9427
18.7096
19.2832
19.6951
19.9745
20.1472
20.2349
20.2556
20.2243
20.153
20.0518
19.9285
19.7899
19.6411
19.4866
19.3297
19.1734
19.0197
18.8703
18.7267
18.5898
18.4602
18.3384
18.2246
18.119
18.0215
17.9319
17.8499
17.7753
17.7076
17.6465
17.5915
17.5422
17.4982
17.4591
17.4243
17.3935
17.3662
17.3422
17.3211
17.3024
17.2861
17.2717
17.2591
17.2481
17.2385
17.2302
17.2231
17.2171
17.2121
17.2082
17.2052
17.2032
17.2022
17.2022
17.2032
17.2054
17.2087
17.2132
17.219
17.2263
17.2351
17.2456
17.2577
17.2713
17.2862
17.3011
17.3142
17.3205
17.3146
17.2764
-8.39929
-8.53288
-8.67631
-8.79888
-8.90266
-8.99541
-9.07968
-9.15532
-9.2213
-9.27652
-9.32041
-9.35321
-9.37661
-9.39385
-9.40973
-9.4304
-9.46311
-9.51586
-9.59704
-9.71487
-9.87673
-10.0883
-10.353
-10.671
-11.04
-11.4551
-11.9098
-12.3968
-12.909
-13.4395
-13.9822
-14.5321
-15.0846
-15.6363
-16.1841
-16.7255
-17.2583
-17.7809
-18.2918
-18.7896
-19.2731
-19.7415
-20.1938
-20.6292
-21.0472
-21.447
-21.8284
-22.1909
-22.5343
-22.8583
-23.1629
-23.448
-23.7137
-23.96
-24.187
-24.3948
-24.5837
-24.7536
-24.9048
-25.0374
-25.1515
-25.2472
-25.3245
-25.3833
-25.4237
-25.4456
-25.4487
-25.4327
-25.3974
-25.3423
-25.2668
-25.1703
-25.052
-24.9111
-24.7464
-24.5565
-24.3398
-24.0946
-23.8189
-23.5104
-23.1663
-22.7836
-22.359
-21.8884
-21.3674
-20.7911
-20.1536
-19.4485
-18.6684
-17.8051
-16.8493
-15.7911
-14.6193
-13.322
-11.8867
-10.3015
-8.55633
-6.64509
-4.56865
-2.33811
0.0200529
2.46068
4.92164
7.32745
9.6006
11.6731
13.4974
15.0503
16.3323
17.3608
18.1638
18.7733
19.2209
19.5358
19.7431
19.8643
19.9168
19.9154
19.872
19.7963
19.6965
19.5792
19.4498
19.3128
19.1718
19.0298
18.889
18.7514
18.6184
18.4911
18.3703
18.2565
18.1501
18.0513
17.9599
17.876
17.7992
17.7295
17.6663
17.6094
17.5583
17.5125
17.4718
17.4357
17.4036
17.3754
17.3505
17.3286
17.3093
17.2924
17.2776
17.2645
17.2531
17.2432
17.2345
17.2269
17.2204
17.2148
17.2102
17.2065
17.2036
17.2016
17.2004
17.2002
17.2008
17.2024
17.205
17.2087
17.2134
17.2192
17.2261
17.2341
17.2431
17.2527
17.2623
17.2705
17.2751
17.271
17.2531
17.2042
-7.83717
-7.98766
-8.14948
-8.27986
-8.38236
-8.46853
-8.54319
-8.60776
-8.66267
-8.70832
-8.74563
-8.77641
-8.80379
-8.83229
-8.8677
-8.9168
-8.987
-9.08592
-9.22094
-9.39853
-9.62368
-9.89922
-10.2255
-10.6005
-11.0198
-11.4778
-11.9679
-12.4835
-13.0182
-13.5661
-14.1221
-14.6817
-15.2413
-15.7976
-16.3481
-16.8905
-17.423
-17.944
-18.4523
-18.9468
-19.4264
-19.8904
-20.3381
-20.7688
-21.182
-21.5774
-21.9546
-22.3133
-22.6533
-22.9745
-23.2769
-23.5605
-23.8252
-24.0711
-24.2984
-24.5072
-24.6975
-24.8694
-25.0232
-25.1589
-25.2766
-25.3763
-25.4581
-25.5219
-25.5677
-25.5953
-25.6045
-25.5951
-25.5668
-25.5191
-25.4516
-25.3635
-25.2543
-25.123
-24.9684
-24.7892
-24.5841
-24.3512
-24.0886
-23.7942
-23.4653
-23.099
-22.692
-22.2404
-21.74
-21.1858
-20.5723
-19.8929
-19.1405
-18.3069
-17.3829
-16.3584
-15.222
-13.9616
-12.5639
-11.0162
-9.30698
-7.42797
-5.37753
-3.16459
-0.813527
1.63193
4.10847
6.53795
8.83908
10.941
12.7944
14.3764
15.6879
16.7475
17.5835
18.2278
18.7116
19.0631
19.3068
19.4633
19.5496
19.58
19.5662
19.5179
19.4432
19.3488
19.2403
19.1222
18.9984
18.8719
18.7452
18.6204
18.499
18.3823
18.2711
18.1662
18.0678
17.9763
17.8918
17.8142
17.7433
17.6789
17.6207
17.5683
17.5215
17.4797
17.4426
17.4098
17.3808
17.3554
17.333
17.3134
17.2963
17.2812
17.2681
17.2566
17.2465
17.2377
17.2299
17.2232
17.2174
17.2124
17.2081
17.2047
17.202
17.2
17.1987
17.1982
17.1985
17.1996
17.2015
17.2042
17.2077
17.212
17.217
17.2226
17.2285
17.2341
17.2387
17.2406
17.2373
17.2242
17.1963
17.1387
-7.29572
-7.45463
-7.62642
-7.75922
-7.85756
-7.93575
-8.00035
-8.05397
-8.09823
-8.13482
-8.16585
-8.19441
-8.22478
-8.2625
-8.31416
-8.38697
-8.48837
-8.62543
-8.80435
-9.02991
-9.30495
-9.63009
-10.0037
-10.422
-10.8801
-11.3717
-11.8906
-12.4305
-12.9857
-13.5508
-14.1213
-14.6931
-15.263
-15.8278
-16.3854
-16.9336
-17.4709
-17.9957
-18.5069
-19.0036
-19.4848
-19.95
-20.3985
-20.8298
-21.2435
-21.6394
-22.0171
-22.3765
-22.7174
-23.0398
-23.3437
-23.6291
-23.896
-24.1446
-24.3748
-24.5869
-24.7809
-24.957
-25.1152
-25.2556
-25.3784
-25.4835
-25.571
-25.6407
-25.6927
-25.7269
-25.7429
-25.7407
-25.7198
-25.6798
-25.6203
-25.5408
-25.4404
-25.3183
-25.1733
-25.0043
-24.8098
-24.5882
-24.3376
-24.0559
-23.7405
-23.3886
-22.997
-22.5619
-22.0792
-21.5441
-20.9509
-20.2934
-19.5645
-18.756
-17.8589
-16.8627
-15.7559
-14.526
-13.1595
-11.6429
-9.96363
-8.11187
-6.08411
-3.88751
-1.5453
0.898833
3.38004
5.81795
8.12912
10.2418
12.1072
13.7039
15.0342
16.1174
16.9817
17.6583
18.1772
18.5653
18.8458
19.0383
19.1592
19.2224
19.2392
19.2193
19.1708
19.1004
19.0138
18.9157
18.8101
18.7001
18.5885
18.4774
18.3686
18.2633
18.1625
18.0671
17.9776
17.8942
17.8171
17.7464
17.6819
17.6234
17.5706
17.5234
17.4812
17.4437
17.4106
17.3814
17.3558
17.3334
17.3139
17.2969
17.282
17.2691
17.2578
17.2479
17.2393
17.2317
17.2251
17.2193
17.2142
17.2098
17.206
17.2029
17.2004
17.1984
17.1971
17.1964
17.1963
17.1969
17.198
17.1998
17.2021
17.2049
17.208
17.2111
17.214
17.2158
17.2156
17.2117
17.2013
17.1802
17.1438
17.079
-6.81734
-6.9752
-7.14713
-7.27627
-7.36751
-7.43664
-7.4912
-7.53457
-7.56924
-7.59772
-7.62301
-7.64905
-7.68091
-7.72477
-7.7877
-7.87718
-8.0005
-8.16423
-8.37364
-8.63219
-8.94128
-9.30012
-9.70587
-10.1541
-10.6393
-11.1555
-11.6964
-12.2562
-12.8292
-13.4105
-13.9956
-14.5809
-15.163
-15.7391
-16.307
-16.8647
-17.4107
-17.9434
-18.462
-18.9654
-19.4528
-19.9238
-20.3777
-20.8141
-21.2327
-21.6333
-22.0157
-22.3797
-22.7253
-23.0525
-23.3612
-23.6515
-23.9235
-24.1773
-24.413
-24.6307
-24.8305
-25.0125
-25.1769
-25.3236
-25.4529
-25.5646
-25.6589
-25.7356
-25.7947
-25.836
-25.8595
-25.8648
-25.8517
-25.8197
-25.7685
-25.6974
-25.6057
-25.4925
-25.3567
-25.1972
-25.0126
-24.8013
-24.5616
-24.2911
-23.9877
-23.6484
-23.2701
-22.8492
-22.3815
-21.8623
-21.286
-20.6464
-19.9366
-19.1482
-18.2723
-17.2983
-16.2147
-15.0084
-13.6658
-12.1727
-10.5156
-8.68392
-6.67306
-4.48954
-2.15665
0.280704
2.75566
5.18612
7.48832
9.592
11.4513
13.0475
14.3851
15.4837
16.371
17.0764
17.6282
18.0514
18.3678
18.5959
18.7514
18.8473
18.895
18.9039
18.882
18.8362
18.7721
18.6947
18.608
18.5153
18.4196
18.323
18.2274
18.1343
18.0447
17.9596
17.8796
17.8049
17.7359
17.6727
17.6151
17.563
17.5162
17.4744
17.4373
17.4046
17.3758
17.3507
17.3287
17.3097
17.2933
17.279
17.2667
17.256
17.2467
17.2387
17.2316
17.2254
17.22
17.2152
17.2109
17.2072
17.204
17.2012
17.1989
17.1971
17.1957
17.1948
17.1943
17.1943
17.1948
17.1956
17.1967
17.198
17.1991
17.1999
17.1998
17.198
17.1933
17.1839
17.1673
17.1391
17.0955
17.0248
-6.42639
-6.57444
-6.73699
-6.85673
-6.93828
-6.99752
-7.04223
-7.07613
-7.10213
-7.12322
-7.1429
-7.16557
-7.19668
-7.24273
-7.31096
-7.40886
-7.54358
-7.72134
-7.94684
-8.22288
-8.5501
-8.9271
-9.35063
-9.816
-10.3176
-10.8495
-11.4056
-11.9802
-12.5677
-13.1632
-13.7624
-14.3613
-14.9568
-15.5459
-16.1263
-16.6961
-17.2537
-17.7977
-18.3269
-18.8406
-19.338
-19.8184
-20.2814
-20.7267
-21.1538
-21.5627
-21.9532
-22.3252
-22.6786
-23.0135
-23.3299
-23.6279
-23.9075
-24.1689
-24.4122
-24.6376
-24.845
-25.0347
-25.2068
-25.3613
-25.4983
-25.6178
-25.7198
-25.8044
-25.8713
-25.9206
-25.952
-25.9653
-25.9603
-25.9365
-25.8935
-25.8308
-25.7475
-25.6428
-25.5157
-25.365
-25.1895
-24.9875
-24.7573
-24.4968
-24.2036
-23.875
-23.5079
-23.0986
-22.643
-22.1364
-21.5733
-20.9475
-20.252
-19.4786
-18.618
-17.6598
-16.5921
-15.4018
-14.0748
-12.5966
-10.9533
-9.13366
-7.13322
-4.95901
-2.63597
-0.211458
2.24529
4.65148
6.92516
9.00026
10.8359
12.4174
13.7512
14.8574
15.7618
16.492
17.0735
17.5296
17.8802
18.1425
18.3314
18.4595
18.5375
18.5749
18.5796
18.5584
18.5172
18.4608
18.3935
18.3187
18.2393
18.1578
18.0761
17.9958
17.9181
17.8439
17.7739
17.7086
17.6483
17.5931
17.5429
17.4978
17.4574
17.4216
17.3901
17.3624
17.3384
17.3175
17.2996
17.2843
17.2711
17.2599
17.2503
17.2421
17.235
17.2289
17.2236
17.2189
17.2147
17.211
17.2077
17.2047
17.2021
17.1997
17.1977
17.1959
17.1945
17.1934
17.1926
17.1921
17.1918
17.1917
17.1916
17.1913
17.1907
17.1891
17.1862
17.1809
17.1719
17.1576
17.1352
17.1008
17.0511
16.9754
-6.12954
-6.26099
-6.40634
-6.512
-6.58179
-6.63038
-6.66516
-6.6898
-6.70731
-6.72083
-6.73405
-6.75157
-6.77895
-6.82272
-6.89005
-6.98833
-7.12456
-7.30477
-7.5335
-7.81335
-8.14484
-8.5265
-8.95519
-9.42636
-9.93462
-10.4742
-11.039
-11.6233
-12.2215
-12.8285
-13.44
-14.0517
-14.6604
-15.263
-15.8571
-16.4405
-17.0116
-17.569
-18.1115
-18.6381
-19.1481
-19.6409
-20.1159
-20.5729
-21.0116
-21.4316
-21.833
-22.2157
-22.5796
-22.9248
-23.2513
-23.5592
-23.8486
-24.1196
-24.3724
-24.6071
-24.8238
-25.0227
-25.2038
-25.3672
-25.513
-25.6413
-25.752
-25.8451
-25.9206
-25.9782
-26.018
-26.0396
-26.0429
-26.0273
-25.9925
-25.9379
-25.8626
-25.7659
-25.6468
-25.5042
-25.3368
-25.1429
-24.9209
-24.6687
-24.3839
-24.0639
-23.7054
-23.305
-22.8584
-22.3609
-21.807
-21.1906
-20.5045
-19.7404
-18.889
-17.9396
-16.8803
-15.6978
-14.3777
-12.9051
-11.2663
-9.45039
-7.45388
-5.28605
-2.97507
-0.57182
1.8524
4.21581
6.44105
8.46876
10.2647
11.8188
13.1395
14.246
15.1622
15.9126
16.5205
17.0064
17.3886
17.6831
17.9038
18.0626
18.17
18.2353
18.2661
18.2694
18.2509
18.2157
18.1679
18.1113
18.0487
17.9828
17.9155
17.8485
17.7831
17.7203
17.661
17.6056
17.5545
17.5078
17.4656
17.4279
17.3945
17.3651
17.3394
17.3173
17.2983
17.2822
17.2686
17.2572
17.2476
17.2396
17.233
17.2274
17.2227
17.2187
17.2152
17.2122
17.2094
17.2069
17.2045
17.2024
17.2003
17.1985
17.1967
17.1951
17.1937
17.1924
17.1912
17.1902
17.1892
17.1882
17.1869
17.1852
17.1826
17.1789
17.1732
17.1646
17.1517
17.1328
17.1053
17.0655
17.0105
16.9306
-5.91374
-6.02387
-6.14624
-6.23412
-6.29017
-6.32706
-6.35129
-6.36617
-6.37451
-6.37942
-6.38459
-6.3946
-6.41495
-6.45205
-6.51289
-6.60468
-6.7343
-6.90769
-7.12937
-7.40209
-7.72658
-8.10182
-8.52514
-8.99245
-9.49877
-10.0385
-10.6057
-11.1944
-11.7992
-12.4147
-13.0363
-13.6596
-14.2809
-14.8971
-15.5055
-16.1037
-16.6898
-17.2623
-17.82
-18.3616
-18.8865
-19.394
-19.8835
-20.3547
-20.8072
-21.2409
-21.6556
-22.0512
-22.4279
-22.7855
-23.1242
-23.444
-23.7451
-24.0276
-24.2916
-24.5372
-24.7647
-24.9741
-25.1655
-25.339
-25.4947
-25.6326
-25.7528
-25.8552
-25.9398
-26.0064
-26.0549
-26.0852
-26.0969
-26.0896
-26.0629
-26.0161
-25.9485
-25.8594
-25.7477
-25.6123
-25.4519
-25.265
-25.0498
-24.8043
-24.526
-24.2124
-23.8601
-23.4656
-23.0248
-22.5328
-21.9841
-21.3724
-20.6904
-19.9297
-19.0809
-18.1331
-17.0741
-15.8904
-14.5675
-13.0906
-11.4462
-9.62479
-7.62535
-5.46128
-3.166
-0.794883
1.57947
3.87883
6.03369
7.99422
9.73426
11.2486
12.5468
13.6465
14.5689
15.3352
15.9655
16.4781
16.8894
17.214
17.4647
17.653
17.789
17.8815
17.9382
17.9659
17.9703
17.9565
17.9287
17.8907
17.8455
17.7957
17.7434
17.6904
17.638
17.5874
17.5394
17.4945
17.4533
17.4158
17.3822
17.3525
17.3265
17.3041
17.2849
17.2687
17.2553
17.2443
17.2353
17.2282
17.2225
17.2181
17.2147
17.212
17.2099
17.2081
17.2067
17.2053
17.2041
17.2028
17.2016
17.2003
17.1989
17.1975
17.1961
17.1947
17.1932
17.1918
17.1903
17.1888
17.1871
17.1851
17.1827
17.1795
17.1752
17.1693
17.161
17.1493
17.1328