/*--------------------------------*- C++ -*----------------------------------*\
| =========                 |                                                 |
| \\      /  F ield         | OpenFOAM: The Open Source CFD Toolbox           |
|  \\    /   O peration     | Version:  2112                                  |
|   \\  /    A nd           | Website:  www.openfoam.com                      |
|    \\/     M anipulation  |                                                 |
\*---------------------------------------------------------------------------*/
FoamFile
{
    version     2.0;
    format      ascii;
    arch        "LSB;label=32;scalar=64";
    class       volScalarField;
    location    "0.07";
    object      ddt0(omegaU);
}
// * * * * * * * * * * * * * * * * * * * * * * * * * * * * * * * * * * * * * //

dimensions      [0 0 -2 0 0 0 0];

internalField   nonuniform List<scalar> 
12225
(
-234.239
-736.128
1110.18
12287.4
17143.2
27375.9
38355.1
49849.1
63504.1
77818.5
97362.9
118222
148142
179276
214639
265225
294061
334584
4341.21
-6651.87
-8776.4
-9953.34
-14015.5
-16980.7
-20238.1
-19820
-25986.6
-22909.9
-34641.8
-25758.5
-87782.9
-32225.4
-66255.2
-88653.4
-75544.3
493177
-4627.31
1673.08
7053.09
-2351.49
-4928.34
-7603.41
-4240.48
-14696.8
-18321.5
-9938.7
-20901.2
-52920.6
-8698.47
20461.1
-220337
-170824
1.02437e+06
-525210
-8069.45
29603.1
-37471.7
11900.2
8802.29
-5411.98
-319.524
2499.8
-13579.2
288.498
2896.72
-17321.7
-14968.7
-13859.6
-19372.2
120255
-251480
-103601
-2325
9907.88
-20582.7
13039.4
-7483.48
5734.44
1028.08
806.139
-1575.88
-2880.98
3402.22
-1950.32
-12533.2
4752.93
19551.5
-28112
-81098.3
59332.4
44.6269
46.6142
-1238.72
2748.62
-7547.39
6063.29
-1597.79
63.8542
76.0756
-1032.15
1128.44
-675.743
-2813.65
2239.67
1609.23
-11218.9
-1197.37
9753.5
9.30588
-63.4194
392.493
-664.463
799.726
-981.505
139.197
584.907
-983.861
-689.329
77.5586
-312.06
-583.753
502.801
-620.85
-2485.84
5868.29
-2294.62
-2.08072
2.07745
6.88253
17.6292
-110.501
-30.7641
1274.05
-1608.94
-193.074
541.738
-379.225
-264.225
-135.481
48.1278
-366.193
-261.715
1695.32
-1130.42
-0.141662
-3.22524
0.066147
-1.22887
-6.74663
81.104
-18.1206
-201.77
320.001
165.304
-379.441
-195.511
46.7142
45.2022
-96.2724
106.437
148.59
-259.182
-0.477243
-1.49307
7.26688
-9.39878
7.6469
13.9985
-0.79015
21.7878
68.5916
45.6274
68.511
-113.259
123.634
-11.6004
-42.3186
136.902
-15.5138
-28.9907
-0.539087
-0.199956
3.09759
-6.97066
3.99556
7.06798
10.9281
19.0666
27.1853
36.1416
29.9667
49.576
140.056
-6.11125
8.7367
137.527
10.1656
41.3782
1.30466
-4.53747
8.0404
-8.76852
1.54432
4.95164
9.80385
14.3294
20.7984
25.7471
32.2024
49.7031
60.0405
57.5586
74.3665
102.489
53.2
61.1306
-0.618021
-0.972369
-0.473845
-1.63732
1.2254
3.48379
7.6377
11.4164
16.398
22.2015
26.5029
35.7822
42.2362
50.7428
71.1834
77.7589
74.514
68.6301
-0.173164
-1.05931
-1.071
-0.770357
0.247963
2.19452
5.29471
8.49979
12.5674
17.835
20.7716
27.0455
32.0395
36.9226
52.9573
53.3839
61.6202
56.4619
-0.0968738
-0.849348
-0.846739
-0.975956
-0.208999
1.21473
3.17131
5.46344
8.97836
12.3444
15.4743
20.8042
22.3605
30.1104
36.2855
43.0321
31.2471
35.1035
-0.137269
-0.583716
-0.799748
-1.24596
1.51305
-1.14415
1.40419
3.15104
5.1785
7.60864
10.2302
13.642
15.8001
23.0657
19.3356
14.9688
20.8028
10.0846
-0.105768
-0.376524
-0.546465
-0.5159
-0.304077
-0.209617
0.665024
1.39522
2.37382
3.74556
5.1875
7.07414
7.64461
8.64205
3.89201
1.22337
-9.63902
-12.3103
0.0493407
-0.197319
-0.161259
-0.187327
-0.303294
0.393059
-0.414569
-0.244546
0.0704546
-0.589389
-1.2002
-2.44623
-5.34797
-9.87697
-15.991
-22.8334
-32.032
-41.5205
0.245983
-0.0122512
0.414248
0.140636
-0.0259783
-0.049184
-1.41981
-2.42267
-3.55363
-7.84535
-10.0348
-16.7136
-21.2657
-30.4438
-37.296
-45.1581
-55.0661
-62.7356
0.0150362
0.582409
0.635626
0.523775
0.0983821
-1.03662
-1.83695
-6.23655
-9.25408
-14.6762
-19.4372
-26.5413
-35.3071
-40.333
-46.9322
-56.9846
-57.6901
-69.9105
0.00802602
0.858567
0.774706
0.803346
-1.375
-2.16616
-6.41928
-7.10847
-15.1612
-21.0462
-25.8204
-32.6969
-39.472
-50.3737
-41.0919
-60.1224
-57.1684
-58.2944
0.302353
0.931834
0.433423
0.849479
-1.31316
-4.8497
-8.97646
-13.841
-19.4518
-26.2957
-31.2072
-37.5925
-41.0338
-45.9871
-46.3974
-50.2853
-48.0726
-48.1943
0.109775
3.04972
-7.37244
23.1769
-19.195
-9.20934
-9.91191
-18.4547
-28.2685
-23.0617
-30.1065
-44.9859
-42.1003
-32.2956
-36.5265
-40.7171
-39.1519
-33.5788
0.391212
-6.2015
15.7057
-28.5792
20.7542
-11.2834
-42.7043
115.896
-148.135
-114.413
204.879
-96.9933
-144.206
144.843
30.8341
-38.7392
-59.6799
-29.9034
9.7794
-60.7811
170.793
-253.506
111.388
453.165
-542.616
-164.093
494.292
-196.143
405.551
341.469
84.7717
62.8202
56.4397
52.2423
-5.99794
-16.9945
-106.605
1083.88
-1948.9
4072.81
-3160.79
3323.69
-2848.66
785.736
-604.75
747.966
887.088
650.417
449.667
231.664
59.1443
22.5279
-13.091
-21.3866
-8193.74
23398.9
-16858
12062.8
-6605.98
-1125.83
448.32
-92.0194
-44.7985
265.949
833.144
1169.47
1228.1
1101.76
962.501
1114.45
919.609
913.601
-82972.9
145794
-9571.07
-27749.9
421.75
2737.35
1231.28
3495.9
5449.46
6822.36
6307.05
6334.43
5475.34
5348.92
4361.49
3952.7
1976.92
451.275
17673.4
-49544.2
79.7003
20719
8603.61
7910.73
11374.8
14542
14795.3
14342.4
11468.1
11757
8245.29
8380.44
2409.98
2674.7
-5778.35
-25071.1
660.12
1928.44
-575.008
-4290.02
-7793.37
-13741.2
-16057.3
-20915.3
-24719.8
-27609.9
-29302
-30617.4
-30516.6
-29443.5
-26269.8
-22098.4
-16130.5
-9225.05
37182.5
47969.9
45585.3
48069.7
48574
37526.8
38442.8
45666.6
42023.8
45986.2
53401.5
58003.1
61674.7
50470.2
36352.5
10492.3
2320.16
-22929.9
-26007.8
-13622.4
15100.1
49839.4
81787.9
83159.7
17503.6
-88292.2
-203503
-266107
-330359
-383825
-429661
-474763
-463812
-417348
-359039
-289841
-215539
-148471
-84314.3
-31904.1
5540.71
-2358.58
44935.3
-9369.5
-120935
-295923
-350922
-317813
-326956
-345613
-399959
-491134
-597178
-600074
-457905
-307705
-183649
-95889.5
303505
531956
838772
998712
692509
580644
386670
218745
377664
437577
457067
443049
243722
76653.5
122924
135295
95128.1
276352
1.09613e+06
1.46973e+06
813592
257808
28551.4
-182081
-339798
-461412
-559091
-635180
-692299
-732542
-756968
-766550
-762388
-746294
-720249
-687075
-648446
-605566
-559859
-514297
-471045
-443456
-359641
-342406
-332081
-306375
-284025
-287328
-273249
-268622
-264900
-261264
-260105
-257229
-256364
-255936
-256098
-255342
-254015
-251347
-245942
-238649
-229220
-216808
-202703
-189213
-179870
-264846
-416410
-773741
-786170
-720806
-627362
-515323
-448944
-387184
-332475
-275220
-231863
-197763
-152613
-124012
-102802
-55471.8
-10080.3
31370.8
101876
159067
193699
325155
587079
679236
828460
1.07545e+06
1.50153e+06
1.62443e+06
1.64787e+06
1.52095e+06
1.2859e+06
1.03819e+06
857418
742337
627747
463172
253450
39589.7
-142270
-280275
-374314
-431942
-460734
-463774
-445932
-401372
-364247
-314161
-282946
-246171
-234515
-215601
-200697
-177370
87469
36148.7
60122.1
46599.9
-47901.3
45514.6
45140.8
109630
111200
114495
108010
108397
90249.8
104833
80368.3
76277
134843
42905.7
14119.1
-31692.5
-121729
-173865
-207004
-171625
-124925
-97337.9
-173710
-250656
-292428
-275619
-222984
-173458
-98399.4
-18403.2
-31107.8
-36833.6
-43796.9
-49937.8
-58595.8
-72570
-88040.6
-105816
-127006
-153220
-180479
-204260
-70344.6
101502
268293
426347
555540
699612
781895
812719
762531
696736
566807
400189
242787
66537.4
-190706
-527613
-827389
-886112
-360756
-39458.1
186342
393921
475619
433981
492622
424667
1.29096e+06
1.53955e+06
10740
-229280
-187493
-590605
-876729
-1.06659e+06
-785828
-720830
-644170
-598556
-437988
-322617
-280961
-206059
-144828
-30747.2
-22795.3
12203
94512.4
133235
169262
205661
223197
229451
223330
203758
167348
120007
72477.4
42694.1
-11642.1
-52603.9
-56078
-57672.2
-58718.4
-59260.1
-60100.2
-60864.6
-63228.3
-64028.2
-64758.4
-65861.4
-67297
-68126.4
-69407.7
-69155.6
-68844.1
-68261
-68104.5
-68666.1
-69031.7
-71875.1
-77084.2
-80618.3
-81461.2
-82544.5
-84049.8
-86000.6
-88039.6
-89736.1
-90218.3
-90209.4
-90222.5
-87316.3
-84170.3
-85923.5
-84907.3
-80792.4
-89893.2
-93356.3
-76521.2
-95479.9
-128420
-90926.5
-94176.9
-277723
-732514
-995134
-965271
-718532
-452096
-92499.6
437600
570724
666397
794565
748605
699892
671027
652278
613230
538498
429792
292564
143251
9094.76
-71548.4
-130767
-246085
-263922
-274365
-257944
-234941
-206511
-193286
-167479
142715
169093
-22872.9
-163760
-270159
31322.7
97440.7
151374
134014
114404
89899.8
70081.7
53539.6
37127.2
29725
15890.7
42034.3
34780.1
74152.9
78470.3
43755.8
22847.4
-38511.7
-130140
-280263
-194471
-172858
-116275
-102328
-111063
-72911
-21455.6
-19338.7
-48775
-53767.4
-45355.6
-35940.7
-48037.6
-77902.6
-111176
-144604
-180823
-215426
-255577
-307265
-364302
-432056
-476603
-488159
-442159
-297860
-122542
-41613.3
25072.3
121474
168308
178243
147918
92581.3
13888
-100536
-214186
-266640
-44825.6
55843.8
354567
855824
1.50807e+06
1.57357e+06
1.203e+06
635354
-148112
-364931
-413824
-635656
-1.16553e+06
-1.19594e+06
-973839
-623415
-534118
-376517
-273800
-197865
-177267
-117288
-62189.3
-44442.1
-10607.3
11842.9
33456
53305.3
62138.8
65237.6
66595.5
60311.9
53169.2
40701.6
27812.8
15882.2
-478.914
-9111.18
-15982.6
-19917.8
-31919.8
-30552.5
-25871.9
-32142.5
-25540.2
-28097.3
-26652.9
-24994.1
-27007.8
-27777.1
-28600.3
-29554.6
-29884.6
-31407.8
-29559.7
-33191.2
-34757
-35784.2
-35955.1
-35348.3
-34371.4
-32060.6
-29131.6
-25067.5
-20254.4
-15563.5
-12639
-12710.1
-15378.1
-21045.1
-28658
-36459.8
-47543.4
-61420.9
-74734
-88871.2
-98550.9
-100801
-100025
-103202
-108034
-111911
-111620
-112729
-117726
-112824
-109292
-125519
-172775
-237902
-280930
-322715
-315049
-262549
-180109
49160.9
320855
389530
460821
668969
704582
667759
575402
449919
317188
196814
99246.4
30982.4
-12463
-31662.5
-67100.3
-87178.8
-97504.5
-110022
-113268
-114268
-123473
84914.4
346324
-367279
-597032
44319.2
123727
194985
177072
165648
106446
53630.8
14956.3
-10833.4
-28977.4
-32506.2
-41467.2
-50352.5
-44021.7
-28168
-15281.8
19594.4
19015.6
8560.34
-25884.7
-101772
-244241
-178951
-131918
-48401.2
-15466.5
-13353.3
-19035.8
-32130.1
-6525.17
16538.4
10376.4
-31080.1
-51999.9
-46811.1
-64902
-101760
-123427
-160810
-214749
-286392
-324824
-389113
-451614
-508082
-558641
-632277
-702003
-609910
-472395
-370128
-297912
-212590
-142791
-96246
-79458.3
-99794.4
23195.7
90872.7
309388
792140
1.50507e+06
2.14169e+06
1.53378e+06
1152.96
-380436
-551968
-565618
-975238
-1.31647e+06
-1.18889e+06
-647880
-540012
-449224
-277501
-233226
-153012
-111098
-100073
-80714.9
-60261.9
-37217.4
-31497.9
-17805.3
-8067.83
-240.802
5139.6
10475.3
11321.9
12113.8
10228.2
8147.06
7110.95
6543.94
4937.34
5724
3865.11
5097.64
4582.9
8633.78
11187.1
14609.4
18700.4
20443.9
24078.7
26854.1
28551.6
29117.7
27406.4
25166.2
21837
15261.7
9151.11
991.704
-1761.96
-6582.63
-10154.5
-12521
-13997.2
-14072.2
-12074.3
-7959.24
-1675.55
6549.48
15564.1
24902.3
34121.8
40409.1
44049.5
42503.8
35017
22286.2
5035.98
-18484.4
-47010.8
-77206.1
-99512.5
-106745
-106780
-117615
-136148
-146526
-153212
-156719
-161709
-162422
-153357
-146706
-143341
-141909
-147427
-156223
-189113
-226123
-186497
-35633.4
146564
200371
285406
539663
492235
411508
315003
222239
146520
92537.7
59748.2
44024.1
32633.9
18016.9
10895.4
4091.66
-6461.48
-9768.54
-16617
-35159.3
2020.8
-392365
-579271
152551
182683
402878
336114
224729
87885.1
19860.3
-14325.2
-33862.9
-45786
-51242.6
-52093.6
-50678.6
-54048.3
-54976.4
-54546
-53517.5
-36875.9
-27493.1
-7847.51
-13779.6
-37382
-107430
-199114
-132162
-61891.9
27764
20200.4
-4573.76
28768.2
56493.7
25748.9
-1070.76
2669.75
-17968.5
-23081.8
-42913.9
-56589.4
-72032.7
-166168
-189232
-247210
-315734
-378381
-442306
-504679
-563977
-627112
-708092
-784854
-826393
-783897
-607329
-368525
-203722
-127770
-86603.8
76492.2
150168
458324
1.0234e+06
1.76391e+06
2.22775e+06
247237
-390346
-583444
-959693
-1.12717e+06
-1.17441e+06
-908458
-704151
-505974
-322162
-261758
-167749
-123308
-91770
-80347
-75256.3
-61811.2
-52655.2
-45495.7
-33044
-25852.4
-17645.6
-7401.82
-1560.43
1365.34
3770.51
5549.83
6714.03
7430.79
9326.13
11248.7
14509.7
17138.4
23079.6
23349
28409.2
33100.9
34469
40844.6
43731.8
50487.8
56821.5
61686.2
64278.5
72337.3
74149.3
76028.9
75067.8
72639.1
66722.3
60187.8
51581.8
35266.1
17501
6696.32
4031.36
-5532.91
-11538.3
-14447.6
-13233.2
-7680.13
2665.63
16996.4
33278.5
49651.8
63803.2
75310.8
83758.2
89533.6
93680.6
94571.2
91583.6
84877
71594.7
47381.4
7738.12
-34851.5
-68983.9
-98716.4
-139910
-159947
-182541
-204249
-222682
-230404
-228677
-218108
-200151
-177197
-151741
-142324
-160890
-180675
-144467
-40771.8
54553.4
88224.3
262052
318945
276189
223049
169901
126392
96718.3
78201.8
71492.3
70344.5
67292.3
56590.2
53494.9
39709.1
37642.8
23236.8
15930.3
-62030
-793855
-168492
514608
513057
326301
123965
29776.9
-12808
-38803
-48964.6
-60286.9
-66647.9
-65407.4
-63957.4
-61501.2
-57540.9
-56471.6
-57205.6
-59876.6
-60165.2
-49227.9
-37697.6
-22293
-24304.4
-52635.6
-146608
-110034
-59902.9
49372.7
16964.9
76411.7
97910
31286.5
51696.7
61058.9
50079.9
35298.8
8911.82
-7145.95
-18698.4
-25609.3
-49095.1
-60476.2
-90316.7
-124612
-164245
-227294
-309211
-424107
-542265
-656574
-760954
-815450
-789506
-687430
-531554
-344774
12344.5
94222.2
199827
590106
1.13707e+06
1.65602e+06
1.45438e+06
-323987
-533070
-974557
-1.26195e+06
-1.12085e+06
-758389
-559862
-498092
-351997
-185569
-140369
-99284.5
-70537.1
-59971.6
-55675.1
-46520.3
-38171
-31120.8
-19755.6
-10546.7
-6219.56
-3816.07
-1288.48
2093.72
4027.73
5457
8393.29
11536.7
13901.8
16624.8
21473
29198.3
31766.9
33224.1
36223.9
39684.7
42195
43251.6
44455.1
50785.8
56075.1
63148.5
66427.3
78027.5
83937.3
94836.6
103832
110743
115074
115574
113962
108480
97873.9
95941.3
89604.8
68106.9
37442.7
13419.8
-7376.48
-16938.2
-27836.1
-31051
-26714.4
-13969.8
6734.61
31724.9
56807.4
78177.9
94385.2
106912
116211
121203
122559
121206
118030
110945
101048
86532.4
69058.2
43872.6
5275.52
-31008.5
-52212.3
-135321
-177928
-227755
-269167
-299504
-309478
-288624
-246779
-202589
-173812
-168007
-156630
-110348
-40846.5
5918.1
43560
223300
227819
184719
135088
103815
94507.3
94503.2
100420
97817.2
97603.8
89222
83597.5
71020.3
62786.1
53083
40117.8
-196782
21355.1
318733
424488
194114
59545.1
-4968.92
-36875.2
-56296.8
-67849.3
-67984.4
-76896.6
-81166.1
-81229.8
-81057
-72610.9
-63019.4
-57032.5
-54400.4
-56110.1
-60430.2
-52492.5
-42952.9
-26447.7
-24335
-32312.3
-88651.5
-86893.3
-24482.5
53621.8
77840.6
128490
71402.1
71520.9
86430.7
62306.9
41552
26550.4
11541.8
46881.2
41723.6
22476.5
-9034.51
-61749.3
-96848.8
-158495
-240373
-316456
-395435
-456886
-492906
-559927
-625419
-649157
-597627
-479908
-283870
10782
48871.6
315989
682792
1.03389e+06
1.14757e+06
24418.4
-401823
-731202
-980289
-1.06062e+06
-913173
-592304
-334293
-294504
-267170
-107022
-72011.2
-45243.2
-31801.4
-27370
-22107.2
-16004.3
-15684.5
-9806.04
-3614.8
2014.82
7980.35
11897.9
14224.1
13238.4
12961.7
14266.6
17137.3
21799.2
27836.2
33880
36919.6
40394.4
42759.3
45994.1
47308.6
48221.3
48096.5
46229.3
47150.4
47252.2
47722.5
49558.3
59801.7
65398.3
70486.6
81987.4
88125.8
97001.1
104467
113029
120709
126311
130901
134710
131198
124115
119467
110042
95454.1
69361.6
26135.6
-7189.71
-24276.9
-34456.8
-34169
-26868.7
-494.755
25608.1
63852.5
98228.6
120752
138103
145258
143909
136863
128230
118660
111540
107468
101105
90896.1
85148.2
71983.9
34741.1
1437.22
-20756.7
-10305.6
-146856
-234096
-326360
-388963
-380495
-323004
-257534
-212199
-177670
-137194
-83587.6
-34417.1
-14029.5
86116
151634
131720
119430
111653
115377
119800
128786
128672
125741
117247
104706
94027.7
80537
70689.7
58254.2
-230139
255271
411922
131337
19348.7
-32041.8
-53602.4
-65090.9
-79333.1
-88528.6
-98053.4
-101836
-104532
-105392
-105811
-104413
-84747
-65326.5
-56547.5
-54047.3
-58239.5
-60097.4
-55278.6
-40284.4
-25659.7
-29813.6
-53627.8
-46710.9
15893.2
69412
155449
111426
92878.4
88944.9
66508
50045
-371.167
51957.8
54676.8
35552.3
30574.8
3364.89
-25927.2
-59375.4
-127405
-191742
-247427
-319986
-419031
-513645
-596117
-661400
-688916
-651007
-536254
-325747
-180463
-11604
47080.4
51428.7
80519.9
-132938
-330251
-613173
-638528
-631951
-737496
-748745
-486750
-215280
-181824
-169022
-64504
-26502.9
-5407.25
5345.13
9795.82
14645.3
18493.6
16438.3
17322.9
22857.7
29932.8
38524.6
44865.2
44857.2
42881.5
39987.9
36401.4
35996.4
38717.3
42406
44280.2
46737.7
49360.2
51390.2
53117.6
54546
55451.3
53013.4
49668.1
46548.7
46444.4
51152.8
56233.1
65315.1
74230.6
77273.6
83809.5
88472.5
90951.7
95818.8
101174
108861
117292
124219
129074
132508
135378
136148
137999
132644
124841
113370
95936.3
63324.5
17003.4
-5307.23
-18319.1
-14732.7
-8491.6
-1564.77
18831
76861.9
129574
158098
173351
175200
166516
151541
133968
117835
105087
94968.9
85763.4
75406.9
73624.4
80550.6
64063.6
26742
15903.7
6343.62
-74717.7
-64855.7
-157893
-415900
-479656
-411881
-318537
-243455
-178751
-113291
-59552.3
-35411.9
-7905.03
100433
110777
112099
115117
128459
141919
155345
160126
153815
140360
123932
109073
93884.3
82320.4
69542
213970
507937
113726
-8599.78
-65431
-76997.6
-80200.5
-91954.4
-116251
-105967
-91085.4
-76535.4
-69889.8
-70777.3
-73589.4
-86038.7
-100560
-85700.3
-63309.8
-55236.7
-55644.2
-55691.3
-51553.8
-43291.7
-30808.9
-25743.4
-47495.7
-19077.1
49676.5
105294
156522
116686
96710.1
78615.1
59607.9
13276.6
23829.4
102318
106473
114309
126180
104201
91866.7
20740.4
16462.3
-65193
-123288
-168225
-194437
-240662
-262330
-310155
-366938
-339928
-378597
-400714
-475827
-470185
-503561
-548438
-527119
-453932
-354838
-333556
-419537
-511090
-553613
-478834
-171926
-65717.2
-58157.5
-44449.4
18091.7
39616.6
52004.9
59748.3
63508.5
69813.8
69870.3
64618.7
64665.8
66380.9
68713.5
73068.9
76227.4
74208
67704.2
62205.1
58390.5
56002.7
55667.8
56582.4
57303.2
56941.4
57643.2
59160.8
60568.6
60741.4
59898.9
57425.8
54684.5
56753.5
63295.7
69528.5
72625.7
75329.4
81385.9
85003.1
90678.4
93967.1
94491.5
89329
84891.5
84988.7
90676.6
99069.2
108638
116562
123488
127271
128898
128599
126980
123882
115032
93723.1
55325.9
16309.2
-9465.62
-1010.87
1465.74
38606
25222.1
13074.4
125118
178887
201918
205429
193904
175255
152880
131151
111050
92570.8
78815.5
70643.7
59714.6
47324.9
52316.1
64771
51029.9
30827
24383.5
-146.643
-60371.8
-91495
-274685
-493811
-488407
-371567
-259712
-165624
-87896.1
-43423.2
-20423.4
43441.4
88454.8
101751
113821
135526
159732
180068
187937
179246
163643
141837
121042
102238
88287.9
75770.8
452545
114005
-13711.8
-54020.9
-81488.7
-94222.3
-136442
-146490
-87258.4
-61229.4
-50797.6
-45909.8
-46095.2
-47501
-48605.4
-53920.5
-69374.6
-75931.1
-67561.1
-55358.9
-53329.6
-53458.6
-49412.6
-43103.2
-31848.5
-27091
-30330.3
26831.7
67505.9
125859
140994
107331
85931.6
65984.2
24217.2
28020.3
102080
123668
134656
157073
161079
160997
156248
153077
154197
161765
177191
162914
130545
82861.9
28388.6
-666.379
-45591.2
-93781.8
-145210
-189108
-211714
-223294
-231880
-255265
-270814
-306931
-334891
-377662
-431173
-437102
-327329
-147146
41270.2
133853
109240
108598
128007
143598
138346
132757
128667
125855
119711
114087
111523
109577
107561
105754
102538
97628.9
91499.9
85172.9
77977.3
72245.4
68603.6
66680.5
64201.1
62118
61547
62109.3
61671.6
60051
57359.4
54990.3
54607.1
58796
66680.4
75441.6
74369.2
73970.4
76082.7
79862.6
87689.9
98277.7
102157
98951.7
90876.9
82715.4
79602.4
82437.8
89012.1
96038
103721
110537
113956
114614
113838
113206
112453
103514
74620.4
39216.5
5425.93
-4286.59
1398.7
4303.25
62481.8
45969.1
64464.2
192566
226845
237770
221644
196770
168144
139379
115170
94902.5
80546.2
61311.9
51581.7
55644.8
45477.9
34196.1
38864.8
35193.1
33235.5
32318.7
827.824
-14408.3
-58290.1
-152999
-464434
-516947
-404943
-260659
-148662
-68757.5
-34303.5
-1037.41
74624.7
94812.8
116086
146656
177756
201759
211748
202702
181472
154546
128794
106489
90013.5
77660.8
539498
-3473.95
-45843.2
-69337.4
-98943.8
-126848
-150613
-89180.9
-56822.6
-40160.8
-38879.4
-37161.9
-37236.8
-37870.2
-38612.1
-42373.6
-52114.9
-59642.2
-52327.6
-52233
-50117.3
-49064.3
-46191.4
-42149.4
-34189.6
-25303.9
5759.11
60063.5
104233
125590
110187
92897
73500.3
43061.3
14356.8
63993.9
119391
130134
138203
152185
155377
150996
141786
136927
133771
121992
118520
104137
85436.5
66096.1
42342.8
27170.4
11110.9
-458.956
-12058.2
-35535.1
-58085.9
-75307.4
-99236.3
-140380
-182851
-236860
-285958
-350581
-393347
-406273
-375551
-313766
-165392
9702.89
172544
266079
357518
400969
335591
294343
261311
218724
186882
161433
146914
140271
137105
136056
130458
122179
105830
96593.3
95788.4
92258.4
82703.1
69466.3
64371.5
64069
62163
57040.6
50240.7
46274.2
43625.7
36152.9
33307.4
34557.7
45185.2
51992.5
52612.8
48521.4
46202.2
56215.4
65499.1
76170.9
89048.3
94958.4
92057.9
84575.1
78320.3
77937.7
83232.3
88134.8
91694.8
95626.9
99813.2
102846
105962
106878
104405
97092.5
77375.2
45588.6
18968.4
8214.01
14338
15348.2
42049.9
52751.7
79313.6
195237
243109
260822
245139
213694
182674
145674
117838
89112.6
67475.8
57743.5
48103.3
44577.8
26858.1
23606.5
22698.4
33362.6
33885.7
39901.4
38764.8
26760.7
48011.7
-102954
-96175.3
-338038
-507462
-422095
-256082
-127941
-40423.6
-17248
33775
91018
120928
164327
208196
235170
237096
217569
188267
156945
128691
105104
87626.8
75745.5
576895
-17150.1
-51945.2
-75611.5
-107575
-146811
-123739
-64198.9
-44517.6
-31299.2
-20339.8
-20601.2
-19561.2
-23676.2
-31069
-41813.2
-46834.6
-48790
-35732
-31126.3
-37246.1
-38886.1
-38381.6
-37575.5
-37122.7
-22438.1
15993.5
88330.9
127133
138051
95151.5
65694.8
53513
19963.9
28108.7
73081.5
112525
115744
120789
126291
123383
117629
112621
99821.9
88093.5
72048
58859
44261.4
26605
11291.3
-6314.56
-20262
-35408.2
-49415.2
-62610.7
-72727.3
-67013.3
-59818
-48624.3
-43897.5
-40578.3
-50296
-61259.2
-65995.8
-90025.7
-208143
-289971
-333006
-407118
-323766
-298638
-251829
-195465
-13725.4
238350
425584
555137
519028
373978
300584
229523
179826
154648
148092
147646
141768
135332
118309
89099
86263.8
88040.6
86580.7
80578.3
69266.2
52784.9
43083.3
36783.4
31901.1
23435.9
24956.2
24441
22443.4
23069.5
22672.3
22817.9
24283.7
36656.1
48338.6
56444.8
66472.7
74843
76444.3
70743.1
62298.7
55837.6
55703.5
64244
73551
77425.1
76888.4
75796.9
78757.8
81457
91314.7
92264.1
86044.6
76223.1
48502.8
23302.2
16097.6
16187.8
22851.7
47219.2
42221.5
69260.2
221399
269708
280188
261712
222928
189495
155142
118392
89557
61659.4
43825.2
22623.4
13392.8
5497.03
3493.08
9011.56
29301.2
39959.6
42135.9
42720.8
61720.3
46425.4
11281.8
27928.2
-66190.6
-325838
-430873
-387335
-222830
-96254.4
-10364
22267.4
61777.9
142369
220602
281434
284914
254657
216127
179204
146580
119572
97927.2
81711.4
71176.6
597960
15401.1
-51866.6
-94299.3
-134914
-155415
-107147
-46281.3
-21912.1
-9599.19
-9347.11
-12226.3
-17135.7
-18854.4
-32954.8
-44032
-47125.8
-44462.6
-30189.8
-21088
-30721.7
-34798.4
-37711.8
-40156.1
-38803.9
-16471.3
33475.9
98867.5
124491
98583.5
71478.4
64543.6
53859.3
31207.5
38289
75842.7
97754.1
100209
105481
106939
102020
96009
94053.7
89314.6
77336.8
66622.9
42328.6
31340.4
20151.9
16795.6
3356.33
-2997.54
-10125.8
-12860.9
-11601.6
-1341.72
186.358
-10842.1
2665.44
27349
36466
62050.1
89534.3
106094
95690
100058
28408.9
-23594.3
19226.4
-239064
-358544
-478295
-526957
-384999
-322560
-206916
-121076
156782
466338
595393
533587
367508
264167
188764
151511
138885
136884
131052
121249
91968
78954.9
73870.7
71252.9
65471
56431.5
46139.5
37509
31034.7
20794.1
17758.4
15182
8309.2
7855.99
9194.92
14436.1
23437.2
33095.5
44769.4
56862.3
68185.7
76527.1
76617.7
70244
61535.2
53883.3
50260.6
54426.4
62081.1
66835.4
66358.8
64317.4
64120.6
67255.5
69829.6
75159
78566.5
69966.6
54570.5
37638.9
29406.3
27025.6
20427.1
51441.9
42206.2
63185.3
246926
291319
294348
267421
230088
188298
151190
111036
72970.8
37291.7
13588
6156.16
-11621.3
-8876.61
-788.929
-15171.4
-1187.99
35226.7
44329.7
59351.7
63180.3
69665
69758.5
51663.7
21737.5
-74288.4
-219318
-339223
-309741
-168676
-19201
74239.6
110638
155128
374347
354378
302631
244752
195594
157443
127645
104642
87016
73780.9
65373
701360
19311.9
-60126.8
-92745.8
-132878
-173655
-69214.8
-38188.6
-19782.5
-16442.3
-15208.1
-15652
-15153.7
-17564.5
-26794.2
-37451.6
-41563.9
-31999.7
-19800.9
-17834
-22378.1
-28115.4
-31538.4
-37132
-34466.7
-3508.86
54931.3
107046
111030
86691.3
71046.6
67338.8
45890.6
25166.5
38301.6
63252.6
77302.5
83854.1
89273.7
89624.9
93613.4
97872.9
99848.4
94906.3
88740.7
81622.1
89236.2
86592.3
88223.2
86744.3
105005
118826
118774
112841
105320
81934.7
59638.6
37460
23369.7
25984.8
23599.4
30757.9
51478.6
63562
84068.8
103169
194698
219166
220967
272918
156607
109494
-2000.66
-410449
-657987
-746245
-470832
-353075
-204682
-11125.7
219939
499616
569288
422862
287430
190848
129476
111052
106710
102066
88537.8
66347.6
60209.2
56008.7
52016.2
44454.6
36507.3
32336.9
22843.1
14014.1
12641.8
11705.7
12759.6
17827.8
24704.7
33609
45918.3
53905
61740.4
67369
64667.6
58364.3
51544.7
46928.4
45261.6
45823.7
49927
49092.9
50091.2
44593.1
46119.5
45161.3
55178.3
60194
69695.5
64767
55649.9
56853.2
49801.4
44910.8
28548.3
25464.1
33588.3
42916.1
97508.8
267584
299080
292164
262911
226745
189006
137178
80451.6
34841.6
9101.05
-5403.92
-15668.1
-17841.7
-43861
-20987.8
-30856.5
-32149.7
17935.1
44560.8
60107.3
66240
121865
94665.1
99702.7
62365.7
33485
1137.68
-167940
-276505
-210420
-35722.7
131693
175871
228198
367706
341959
278992
214308
163769
128814
104404
86949.4
74325.9
65010.9
59315.3
704066
23079.9
-49712.6
-82364.7
-124910
-174698
-89493.3
-28124.8
-7890.13
-7225.08
-8811.12
-9997.17
-9927.43
-11326.5
-15505.3
-18641.6
-16455.9
-9174.47
2560.88
3669
-5273.85
-9948.67
-16100.3
-22194.1
-17412.3
13752.6
70553.2
106040
100801
64310.5
54702.4
53811.8
40168.2
29039.7
47154.4
56080.8
61368.4
66629.1
62506.5
58869.4
63751.7
77584.1
92835.9
100364
96489.3
115185
118776
136044
161669
187144
194265
196862
198448
194063
184642
189796
179220
144899
111189
65289.7
-10044.2
5220.48
1.70779
47952
63329.5
63163.4
45116.1
33491.6
50897.1
116671
403772
640434
382313
298147
261553
-14344.6
-516297
-706799
-796805
-601984
-338906
-183103
107660
367642
506491
448510
292331
186163
126548
89172.4
76506.5
56852
48467.4
37160.6
36159.1
30390.8
26172.6
26582.1
21432.3
18948.7
17839.8
13321.9
14388.5
19301.1
27978.5
39262.2
47486.5
52263.5
56959.8
59665.3
55081
47309.2
39531.7
34588.7
34405.2
31440
30429.6
33007.9
30533.9
32281.6
31734.9
39945.3
45584
61114.6
53980.3
54902.9
52966.4
44846.3
45659.7
45536.9
19996.9
3154.55
10893.3
46429.3
171738
276342
299082
275731
248188
212643
158578
99472.1
35764.1
4528.56
964.424
-21944.7
-24246.8
-27580.9
-90941.3
-57580.6
-75453.8
-59342.8
29078.3
52581.1
66009.4
95493.6
111220
157412
132587
96207.5
74827.4
56860.5
-19822.1
-35809.5
-228295
-86736.3
109210
192607
215840
298727
292017
235084
174321
127711
97862.3
79696
68416.2
61166.3
56125.1
53430.4
794606
42632.4
-48483
-82370.5
-115752
-190330
-92446.9
-28494.1
-12013
-7242.91
-4673.74
-3152.95
6441.34
4667.21
3149.88
5813.49
7946.82
11303.5
13349.1
11515.4
3630.07
-510.563
-6994.39
-12952
-8198.97
20340.2
63396.3
91415.3
85634.7
42004.6
42565.6
49679.6
52619.9
67607
69162.1
59446.2
45129.5
29847.9
13497.2
11235.4
18977.8
26185.5
46808.2
66793.8
91541.7
101719
122982
154271
181686
196185
208781
213167
217249
229021
257050
258441
248737
238755
209372
159284
130543
-12872.1
-75988.9
-63702.8
5582.74
64027.3
28727.9
-87998.7
-199789
-138371
-75793.8
-42784.2
607039
810186
581797
429187
223201
16707.4
-53385
-504547
-666859
-829680
-723312
-340063
-185809
289043
459931
408258
285831
201714
136761
77176.7
47954.7
17223
14778.2
16674.5
13700.7
13270.4
12029.9
10943.7
11433.7
10307.1
11943.7
17241.4
24777
32687
37535.3
41458.7
43014.7
39458.8
35123.3
31792.2
31913.9
33433.6
28994.2
24642.6
22209.5
24395.6
26479
25536.5
28261.3
37019.3
41571.1
44982.2
44828.4
45116.5
59028
43927.6
35360.3
40533.7
22114.7
-16639.2
-29940.7
33479.1
265611
291446
283583
259056
222782
172424
99375.7
41311.2
17840.6
12149
-29716.1
-29324.9
-49707.7
-121902
-148566
-105394
-155085
-72566
70105.6
98034.2
136439
204910
177314
172132
191146
182784
109918
79194.1
58467.7
35903.9
-71651
-88684.4
50311.6
164607
186646
205364
233573
181328
131340
92150.5
68124.3
56019.1
50800.2
48800.3
47836.5
48034.6
899070
58855.6
-36130.8
-70139.4
-105979
-147850
-172780
-34382.3
-21002.7
-5225.06
53.6772
4308.95
23438.4
23307.3
19610.6
20964
23785.7
29555.6
30614.8
26459.1
24188.9
20258.2
13813
8260.54
12033.3
34330.6
65881.5
76693
64521.7
48951.5
56276.5
70718.1
72353.3
61450.4
38028.3
17382
-10876.5
-28700.7
-47571.6
-56474.3
-35061.8
-4329.65
15636.8
37091.4
47404.9
74332.3
106441
127592
157467
186388
207190
225139
267236
283257
276803
281612
225235
187110
173583
161972
143380
122646
50515.5
-118672
-164735
-58364.3
83899.7
126827
6000.59
-192276
-497985
-302497
-133064
374013
1.00788e+06
1.00436e+06
691231
363946
143278
-25165.4
-115707
-125266
-386397
-774151
-964754
-743732
-316062
-23948.3
415746
403022
291997
224571
168468
113101
59127.3
22813.5
8646.59
2051.93
-863.906
1340.52
5063.5
8913.87
14010.6
19383.3
24762.5
28458.8
32110.6
34565.9
33329
33190.9
33443.9
32580.1
30634.4
27702.9
24242.7
21502.8
18827.6
21463.4
22009.3
29445.1
19930.4
31340.3
36696
35339.7
40478.5
41436.2
47436.6
25855.8
8186.41
14007.7
19572.4
-10341.6
-65008.8
112154
257295
281239
258036
217347
173347
116616
57679.7
9245.64
-18788.3
8636.29
-45529.2
-78527
-73807.2
-310208
-305875
-198791
-244089
-83666.9
115610
143652
185073
393738
380560
323402
255006
218639
193102
118649
91857.8
56903.1
35238.6
-29151.2
16582.5
97251.4
138899
145799
153032
125765
91005.6
61282.7
43106.7
35910.5
35610
38017.7
40661.5
43310
1.01663e+06
68811.5
-42471.5
-78948.6
-92565.5
-113123
-203377
-62287.8
-40925.8
-10079.1
-2481.58
2397.11
21457.4
29427.4
26436.3
33020.2
40371
49971.8
58501.9
58305.7
58807.4
57024
50598.7
46248.9
48075.3
59504.4
76841.5
76256.4
58925.9
54324.8