/*--------------------------------*- C++ -*----------------------------------*\
| =========                 |                                                 |
| \\      /  F ield         | OpenFOAM: The Open Source CFD Toolbox           |
|  \\    /   O peration     | Version:  2112                                  |
|   \\  /    A nd           | Website:  www.openfoam.com                      |
|    \\/     M anipulation  |                                                 |
\*---------------------------------------------------------------------------*/
FoamFile
{
    version     2.0;
    format      ascii;
    arch        "LSB;label=32;scalar=64";
    class       surfaceScalarField;
    location    "0.07";
    object      phi_0;
}
// * * * * * * * * * * * * * * * * * * * * * * * * * * * * * * * * * * * * * //

dimensions      [0 3 -1 0 0 0 0];

oriented        oriented;

internalField   nonuniform List<scalar> 
24170
(
3.08974e-06
9.86664e-08
2.93268e-06
1.57056e-07
2.76102e-06
1.71668e-07
2.59362e-06
1.67391e-07
2.44e-06
1.53629e-07
2.30291e-06
1.37086e-07
2.18295e-06
1.19964e-07
2.07888e-06
1.04069e-07
1.98899e-06
8.98859e-08
1.91153e-06
7.74654e-08
1.84477e-06
6.67549e-08
1.78739e-06
5.73779e-08
1.73764e-06
4.97502e-08
1.69495e-06
4.2696e-08
1.65712e-06
3.78239e-08
1.62469e-06
3.24283e-08
1.59351e-06
3.11852e-08
3.49955e-08
1.55851e-06
3.43285e-06
8.30617e-08
3.44143e-06
1.48483e-07
3.4383e-06
1.74792e-07
3.42179e-06
1.83903e-07
3.39445e-06
1.80968e-07
3.35972e-06
1.71816e-07
3.32073e-06
1.58953e-07
3.27978e-06
1.4502e-07
3.23856e-06
1.3111e-07
3.1981e-06
1.17925e-07
3.15902e-06
1.0583e-07
3.12175e-06
9.46475e-08
3.08638e-06
8.51248e-08
3.05293e-06
7.6141e-08
3.02136e-06
6.93919e-08
2.99091e-06
6.28794e-08
2.96153e-06
6.05693e-08
5.80792e-08
2.93845e-06
3.67474e-06
7.08421e-08
3.68714e-06
1.36083e-07
3.69719e-06
1.6474e-07
3.70492e-06
1.76177e-07
3.70989e-06
1.75996e-07
3.71216e-06
1.6954e-07
3.71183e-06
1.59283e-07
3.70932e-06
1.47535e-07
3.70507e-06
1.35354e-07
3.69946e-06
1.23538e-07
3.69285e-06
1.1244e-07
3.6854e-06
1.02104e-07
3.67751e-06
9.30147e-08
3.66903e-06
8.46207e-08
3.66042e-06
7.80019e-08
3.65113e-06
7.21661e-08
3.64323e-06
6.84698e-08
6.51778e-08
3.63613e-06
3.93571e-06
6.05157e-08
3.94852e-06
1.23279e-07
3.95934e-06
1.53919e-07
3.96852e-06
1.66997e-07
3.97583e-06
1.6868e-07
3.98155e-06
1.63824e-07
3.98583e-06
1.55e-07
3.98892e-06
1.44452e-07
3.99103e-06
1.33238e-07
3.99234e-06
1.22228e-07
3.99306e-06
1.11721e-07
3.99321e-06
1.0196e-07
3.99302e-06
9.31971e-08
3.99239e-06
8.52575e-08
3.9917e-06
7.86851e-08
3.9909e-06
7.2971e-08
3.99072e-06
6.86497e-08
6.50783e-08
3.99082e-06
4.21595e-06
5.16911e-08
4.22868e-06
1.10548e-07
4.24064e-06
1.41963e-07
4.25091e-06
1.56721e-07
4.2591e-06
1.60489e-07
4.26561e-06
1.57323e-07
4.27062e-06
1.49991e-07
4.27451e-06
1.40555e-07
4.27754e-06
1.30206e-07
4.27991e-06
1.19859e-07
4.28177e-06
1.09859e-07
4.28322e-06
1.00516e-07
4.2844e-06
9.20148e-08
4.28533e-06
8.433e-08
4.28628e-06
7.77294e-08
4.28726e-06
7.1992e-08
4.28864e-06
6.7276e-08
6.30579e-08
4.29066e-06
4.5166e-06
4.41789e-08
4.52869e-06
9.84616e-08
4.54134e-06
1.2931e-07
4.55286e-06
1.45204e-07
4.56245e-06
1.50898e-07
4.57005e-06
1.49723e-07
4.5758e-06
1.44236e-07
4.58018e-06
1.3618e-07
4.58354e-06
1.26839e-07
4.58625e-06
1.1715e-07
4.58846e-06
1.07655e-07
4.59028e-06
9.86916e-08
4.59186e-06
9.04388e-08
4.59326e-06
8.29286e-08
4.59467e-06
7.6323e-08
4.59614e-06
7.05159e-08
4.59793e-06
6.54857e-08
6.07688e-08
4.60022e-06
4.83914e-06
3.77538e-08
4.85034e-06
8.72618e-08
4.86287e-06
1.16785e-07
4.87504e-06
1.33031e-07
4.88598e-06
1.39963e-07
4.89514e-06
1.40557e-07
4.90232e-06
1.37058e-07
4.90766e-06
1.30842e-07
4.91154e-06
1.22955e-07
4.91454e-06
1.14154e-07
4.91696e-06
1.05238e-07
4.919e-06
9.66489e-08
4.92078e-06
8.86535e-08
4.92241e-06
8.12998e-08
4.92402e-06
7.47138e-08
4.92569e-06
6.88446e-08
4.92757e-06
6.36115e-08
5.86107e-08
4.92973e-06
5.1851e-06
3.223e-08
5.19541e-06
7.69523e-08
5.20744e-06
1.04758e-07
5.21963e-06
1.20841e-07
5.23114e-06
1.28455e-07
5.24146e-06
1.30232e-07
5.25028e-06
1.28246e-07
5.25729e-06
1.23824e-07
5.26245e-06
1.17795e-07
5.26614e-06
1.10464e-07
5.2689e-06
1.02486e-07
5.27114e-06
9.44032e-08
5.2731e-06
8.66997e-08
5.27488e-06
7.95116e-08
5.27662e-06
7.29755e-08
5.27838e-06
6.70869e-08
5.28022e-06
6.17691e-08
5.66777e-08
5.28216e-06
5.55611e-06
2.7456e-08
5.56558e-06
6.74862e-08
5.57702e-06
9.33122e-08
5.58895e-06
1.08914e-07
5.60049e-06
1.16912e-07
5.61124e-06
1.19488e-07
5.62099e-06
1.18498e-07
5.6295e-06
1.15307e-07
5.63648e-06
1.10814e-07
5.64171e-06
1.05236e-07
5.64542e-06
9.87725e-08
5.64814e-06
9.16913e-08
5.65033e-06
8.45086e-08
5.65226e-06
7.75751e-08
5.6541e-06
7.11361e-08
5.6559e-06
6.52889e-08
5.65765e-06
6.00165e-08
5.50259e-08
5.65931e-06
5.95393e-06
2.33008e-08
5.9626e-06
5.88195e-08
5.97343e-06
8.24841e-08
5.985e-06
9.73369e-08
5.99643e-06
1.05484e-07
6.00724e-06
1.08674e-07
6.01727e-06
1.08474e-07
6.02645e-06
1.06127e-07
6.03469e-06
1.02577e-07
6.04164e-06
9.82805e-08
6.04705e-06
9.33609e-08
6.05097e-06
8.77755e-08
6.05382e-06
8.16555e-08
6.05607e-06
7.5327e-08
6.05804e-06
6.91611e-08
6.05986e-06
6.34697e-08
6.06149e-06
5.8391e-08
5.36917e-08
6.06282e-06
6.38046e-06
1.96561e-08
6.38835e-06
5.09255e-08
6.39854e-06
7.22934e-08
6.40974e-06
8.61424e-08
6.42102e-06
9.41973e-08
6.43186e-06
9.7835e-08
6.442e-06
9.83374e-08
6.45137e-06
9.67558e-08
6.46002e-06
9.39241e-08
6.4679e-06
9.03997e-08
6.47477e-06
8.64925e-08
6.48032e-06
8.22302e-08
6.48449e-06
7.74862e-08
6.48756e-06
7.22536e-08
6.48994e-06
6.67756e-08
6.49188e-06
6.15311e-08
6.4934e-06
5.68717e-08
5.26614e-08
6.49443e-06
5.74358e-06
1.69056e-08
5.74966e-06
4.48471e-08
5.7578e-06
6.41598e-08
5.76696e-06
7.69797e-08
5.77638e-06
8.47766e-08
5.78557e-06
8.86468e-08
5.79425e-06
8.96529e-08
5.80231e-06
8.86962e-08
5.80975e-06
8.64857e-08
5.81661e-06
8.3537e-08
5.82288e-06
8.02212e-08
5.82841e-06
7.67068e-08
5.83297e-06
7.2929e-08
5.8365e-06
6.87198e-08
5.83916e-06
6.41102e-08
5.84114e-06
5.95579e-08
5.84249e-06
5.55157e-08
5.19039e-08
5.84325e-06
7.00088e-06
1.41789e-08
7.0073e-06
3.84297e-08
7.0161e-06
5.5359e-08
7.02625e-06
6.68339e-08
7.03688e-06
7.41406e-08
7.04742e-06
7.8106e-08
7.05752e-06
7.95562e-08
7.06698e-06
7.924e-08
7.07572e-06
7.77442e-08
7.08376e-06
7.54951e-08
7.09116e-06
7.28241e-08
7.0979e-06
6.99587e-08
7.10387e-06
6.69658e-08
7.10886e-06
6.37306e-08
7.11278e-06
6.01915e-08
7.11563e-06
5.67027e-08
7.11748e-06
5.36658e-08
5.09385e-08
7.11845e-06
8.53351e-06
1.15188e-08
8.54018e-06
3.17594e-08
8.54956e-06
4.59767e-08
8.56065e-06
5.57446e-08
8.57252e-06
6.22744e-08
8.58448e-06
6.6138e-08
8.59613e-06
6.79135e-08
8.60718e-06
6.81822e-08
8.61751e-06
6.74204e-08
8.62703e-06
6.59718e-08
8.63576e-06
6.4091e-08
8.64375e-06
6.19682e-08
8.65101e-06
5.97148e-08
8.65739e-06
5.73431e-08
8.66268e-06
5.49052e-08
8.66664e-06
5.27386e-08
8.6693e-06
5.10129e-08
4.94469e-08
8.67079e-06
1.04019e-05
8.84965e-09
1.04089e-05
2.47715e-08
1.04188e-05
3.60976e-08
1.04307e-05
4.381e-08
1.04438e-05
4.92045e-08
1.04572e-05
5.26994e-08
1.04705e-05
5.46231e-08
1.04833e-05
5.53651e-08
1.04954e-05
5.5283e-08
1.05068e-05
5.46464e-08
1.05172e-05
5.36438e-08
1.05268e-05
5.24047e-08
1.05355e-05
5.10257e-08
1.05432e-05
4.962e-08
1.05497e-05
4.84203e-08
1.05547e-05
4.77028e-08
1.05584e-05
4.73245e-08
4.70626e-08
1.05608e-05
1.26796e-05
6.07288e-09
1.26871e-05
1.72873e-08
1.26976e-05
2.55778e-08
1.27104e-05
3.09824e-08
1.27247e-05
3.49185e-08
1.27396e-05
3.7745e-08
1.27547e-05
3.95828e-08
1.27694e-05
4.06374e-08
1.27836e-05
4.11344e-08
1.27969e-05
4.1257e-08
1.28095e-05
4.11379e-08
1.2821e-05
4.08781e-08
1.28314e-05
4.05889e-08
1.28406e-05
4.04526e-08
1.28483e-05
4.07144e-08
1.28546e-05
4.14281e-08
1.28596e-05
4.23144e-08
4.33658e-08
1.28633e-05
1.54561e-05
3.14682e-09
1.54642e-05
9.15089e-09
1.5476e-05
1.38367e-08
1.54901e-05
1.68426e-08
1.55059e-05
1.91663e-08
1.55226e-05
2.10622e-08
1.55396e-05
2.25605e-08
1.55565e-05
2.37375e-08
1.55729e-05
2.46958e-08
1.55886e-05
2.55295e-08
1.56035e-05
2.63235e-08
1.56172e-05
2.71704e-08
1.56296e-05
2.81864e-08
1.56405e-05
2.95083e-08
1.565e-05
3.12456e-08
1.56581e-05
3.33139e-08
1.5665e-05
3.54493e-08
3.7718e-08
1.56706e-05
1.88409e-05
-9.80691e-11
1.88501e-05
-2.31982e-11
1.88637e-05
2.32242e-10
1.88799e-05
6.09865e-10
1.88979e-05
1.15635e-09
1.89171e-05
1.91083e-09
1.89367e-05
2.87406e-09
1.89564e-05
4.04138e-09
1.89757e-05
5.4161e-09
1.89942e-05
7.01073e-09
1.90117e-05
8.84859e-09
1.90279e-05
1.09626e-08
1.90427e-05
1.33815e-08
1.90561e-05
1.61044e-08
1.90683e-05
1.90899e-08
1.90793e-05
2.22558e-08
1.90893e-05
2.54516e-08
2.86599e-08
1.90984e-05
2.29672e-05
-4.00272e-09
2.29784e-05
-1.1136e-08
2.29949e-05
-1.62966e-08
2.30146e-05
-1.91447e-08
2.30366e-05
-2.07715e-08
2.30599e-05
-2.14209e-08
2.30839e-05
-2.11309e-08
2.31079e-05
-2.00014e-08
2.31315e-05
-1.81631e-08
2.31543e-05
-1.57351e-08
2.31759e-05
-1.28196e-08
2.31964e-05
-9.51085e-09
2.32157e-05
-5.90348e-09
2.32339e-05
-2.0989e-09
2.32512e-05
1.81293e-09
2.32677e-05
5.73971e-09
2.32835e-05
9.6021e-09
1.33687e-08
2.32988e-05
1.68139e-05
-7.24406e-09
1.68229e-05
-2.00903e-08
1.68358e-05
-2.92088e-08
1.68514e-05
-3.47794e-08
1.68689e-05
-3.82577e-08
1.68875e-05
-4.00101e-08
1.69066e-05
-4.0183e-08
1.69256e-05
-3.90315e-08
1.69443e-05
-3.68393e-08
1.69624e-05
-3.3853e-08
1.69799e-05
-3.02756e-08
1.69966e-05
-2.62828e-08
1.70128e-05
-2.20298e-08
1.70283e-05
-1.76479e-08
1.70434e-05
-1.32423e-08
1.7058e-05
-8.89056e-09
1.70722e-05
-4.65932e-09
-5.70853e-10
1.70862e-05
1.4638e-05
-1.06458e-08
1.46469e-05
-2.90453e-08
1.46595e-05
-4.17828e-08
1.46749e-05
-5.01753e-08
1.46921e-05
-5.55055e-08
1.47103e-05
-5.81829e-08
1.47288e-05
-5.86253e-08
1.47471e-05
-5.73256e-08
1.4765e-05
-5.47393e-08
1.47823e-05
-5.12346e-08
1.47992e-05
-4.70925e-08
1.48154e-05
-4.25386e-08
1.48311e-05
-3.77608e-08
1.48464e-05
-3.29052e-08
1.48612e-05
-2.80792e-08
1.48757e-05
-2.33548e-08
1.48898e-05
-1.8789e-08
-1.43965e-08
1.49037e-05
1.27439e-05
-1.44191e-08
1.27533e-05
-3.84208e-08
1.27664e-05
-5.49233e-08
1.27822e-05
-6.59583e-08
1.27995e-05
-7.27997e-08
1.28174e-05
-7.61089e-08
1.28354e-05
-7.65944e-08
1.28531e-05
-7.49933e-08
1.28702e-05
-7.19255e-08
1.28869e-05
-6.78819e-08
1.2903e-05
-6.31916e-08
1.29186e-05
-5.81027e-08
1.29336e-05
-5.28143e-08
1.29482e-05
-4.74804e-08
1.29623e-05
-4.22109e-08
1.2976e-05
-3.70809e-08
1.29894e-05
-3.2143e-08
-2.74129e-08
1.30024e-05
1.10955e-05
-1.89764e-08
1.11059e-05
-4.88104e-08
1.11199e-05
-6.89155e-08
1.11361e-05
-8.21555e-08
1.11534e-05
-9.01146e-08
1.1171e-05
-9.37358e-08
1.11884e-05
-9.40175e-08
1.12054e-05
-9.19268e-08
1.12217e-05
-8.82515e-08
1.12374e-05
-8.3625e-08
1.12525e-05
-7.8302e-08
1.1267e-05
-7.25648e-08
1.12808e-05
-6.66285e-08
1.1294e-05
-6.06831e-08
1.13067e-05
-5.48458e-08
1.13188e-05
-4.9207e-08
1.13305e-05
-4.38106e-08
-3.86794e-08
1.13417e-05
9.66087e-06
-2.46349e-08
9.67261e-06
-6.05433e-08
9.68737e-06
-8.36794e-08
9.70385e-06
-9.86396e-08
9.72107e-06
-1.07329e-07
9.73821e-06
-1.10875e-07
9.75476e-06
-1.10569e-07
9.77051e-06
-1.07677e-07
9.78542e-06
-1.03158e-07
9.79955e-06
-9.77564e-08
9.81277e-06
-9.15209e-08
9.8251e-06
-8.48976e-08
9.83663e-06
-7.81609e-08
9.84749e-06
-7.15443e-08
9.85778e-06
-6.51351e-08
9.8676e-06
-5.90292e-08
9.87704e-06
-5.32451e-08
-4.78126e-08
9.88617e-06
8.41229e-06
-3.15698e-08
8.42543e-06
-7.36871e-08
8.44078e-06
-9.90291e-08
8.45719e-06
-1.15051e-07
8.47371e-06
-1.23851e-07
8.48953e-06
-1.26694e-07
8.50425e-06
-1.2529e-07
8.51786e-06
-1.2128e-07
8.53034e-06
-1.15647e-07
8.54165e-06
-1.0906e-07
8.55199e-06
-1.01861e-07
8.56156e-06
-9.44702e-08
8.57055e-06
-8.71527e-08
8.57907e-06
-8.00611e-08
8.58721e-06
-7.32711e-08
8.59503e-06
-6.68527e-08
8.60261e-06
-6.08294e-08
-5.52355e-08
8.61004e-06
7.32591e-06
-4.02001e-08
7.34017e-06
-8.79452e-08
7.35543e-06
-1.14283e-07
7.37063e-06
-1.30252e-07
7.3851e-06
-1.38327e-07
7.39839e-06
-1.39975e-07
7.41049e-06
-1.37395e-07
7.42146e-06
-1.32245e-07
7.43131e-06
-1.25505e-07
7.44001e-06
-1.17756e-07
7.44812e-06
-1.09967e-07
7.45574e-06
-1.02093e-07
7.46298e-06
-9.43941e-08
7.46986e-06
-8.69378e-08
7.47645e-06
-7.98672e-08
7.4828e-06
-7.31964e-08
7.48893e-06
-6.69687e-08
-6.12138e-08
7.49491e-06
6.38091e-06
-5.10434e-08
6.39513e-06
-1.02166e-07
6.40914e-06
-1.28289e-07
6.42227e-06
-1.43388e-07
6.43436e-06
-1.50416e-07
6.44525e-06
-1.5086e-07
6.45513e-06
-1.47277e-07
6.46392e-06
-1.41041e-07
6.47181e-06
-1.33389e-07
6.47886e-06
-1.24805e-07
6.48528e-06
-1.16389e-07
6.49119e-06
-1.08e-07
6.49668e-06
-9.98899e-08
6.50184e-06
-9.20948e-08
6.5067e-06
-8.47311e-08
6.51136e-06
-7.78489e-08
6.51579e-06
-7.14002e-08
-6.54252e-08
6.52e-06
5.55881e-06
-6.4385e-08
5.5719e-06
-1.15262e-07
5.5841e-06
-1.40483e-07
5.5957e-06
-1.54989e-07
5.60595e-06
-1.60671e-07
5.6144e-06
-1.5931e-07
5.62124e-06
-1.54118e-07
5.62656e-06
-1.46359e-07
5.63055e-06
-1.37382e-07
5.63345e-06
-1.27698e-07
5.63529e-06
-1.18236e-07
5.63631e-06
-1.09014e-07
5.63663e-06
-1.00213e-07
5.63645e-06
-9.19142e-08
5.63585e-06
-8.41314e-08
5.63501e-06
-7.7008e-08
5.63398e-06
-7.03683e-08
-6.42663e-08
5.63282e-06
4.84391e-06
-8.06872e-08
4.85565e-06
-1.27007e-07
4.86211e-06
-1.4694e-07
4.86192e-06
-1.54796e-07
4.85361e-06
-1.52366e-07
4.83779e-06
-1.43489e-07
4.81636e-06
-1.32682e-07
4.79097e-06
-1.20972e-07
4.76294e-06
-1.09357e-07
4.73357e-06
-9.83214e-08
4.70356e-06
-8.82325e-08
4.6736e-06
-7.90534e-08
4.64415e-06
-7.07625e-08
4.61554e-06
-6.33009e-08
4.588e-06
-5.65881e-08
4.56164e-06
-5.06507e-08
4.53657e-06
-4.52968e-08
-4.07645e-08
4.51307e-06
4.12199e-06
3.99498e-06
3.84804e-06
3.69325e-06
3.54088e-06
3.39739e-06
3.26471e-06
3.14374e-06
3.03438e-06
2.93606e-06
2.84783e-06
2.76877e-06
2.69801e-06
2.63471e-06
2.57812e-06
2.52747e-06
2.48217e-06
2.44141e-06
-2.62135e-07
2.62135e-07
-4.91955e-07
2.2982e-07
-6.60211e-07
1.68256e-07
-7.60265e-07
1.00053e-07
-7.58559e-07
-1.70603e-09
-6.66693e-07
-9.18659e-08
-4.9252e-07
-1.74173e-07
-2.6033e-07
-2.3219e-07
1.98882e-09
-2.62319e-07
2.69533e-07
-2.67544e-07
5.23363e-07
-2.5383e-07
7.49834e-07
-2.2647e-07
9.40146e-07
-1.90313e-07
1.08879e-06
-1.4864e-07
1.19285e-06
-1.04068e-07
1.25116e-06
-5.83088e-08
1.26352e-06
-1.23561e-08
1.23387e-06
2.96443e-08
1.16486e-06
6.90167e-08
1.06106e-06
1.03801e-07
9.28591e-07
1.32466e-07
7.75581e-07
1.5301e-07
6.15161e-07
1.60419e-07
4.68443e-07
1.46719e-07
3.60019e-07
1.08424e-07
2.99913e-07
6.01054e-08
2.71853e-07
2.80603e-08
2.43755e-07
2.80979e-08
1.98676e-07
4.50793e-08
1.48618e-07
5.00583e-08
1.24877e-07
2.37409e-08
1.51872e-07
-2.69958e-08
2.24197e-07
-7.23241e-08
3.20156e-07
-9.59596e-08
4.20542e-07
-1.00385e-07
5.19106e-07
-9.85642e-08
6.16674e-07
-9.75679e-08
7.14492e-07
-9.78182e-08
8.12207e-07
-9.77148e-08
9.08211e-07
-9.60048e-08
1.00021e-06
-9.20027e-08
1.08497e-06
-8.47519e-08
1.15783e-06
-7.28689e-08
1.21298e-06
-5.51431e-08
1.24415e-06
-3.11741e-08
1.2456e-06
-1.44891e-09
1.21154e-06
3.40619e-08
1.12999e-06
8.15495e-08
9.98097e-07
1.31892e-07
8.13535e-07
1.84563e-07
5.77209e-07
2.36326e-07
2.93818e-07
2.83391e-07
-2.84993e-08
3.22318e-07
-3.79607e-07
3.51108e-07
-7.48801e-07
3.69194e-07
-1.12539e-06
3.76589e-07
-1.50087e-06
3.75476e-07
-1.86736e-06
3.66494e-07
-2.21194e-06
3.44584e-07
-2.51148e-06
2.99533e-07
-2.7376e-06
2.26122e-07
-2.87315e-06
1.35547e-07
-2.91924e-06
4.60936e-08
-2.88073e-06
-3.85104e-08
-2.77399e-06
-1.06737e-07
-2.60708e-06
-1.66908e-07
-2.40274e-06
-2.04339e-07
-2.18376e-06
-2.1898e-07
-1.95862e-06
-2.25148e-07
-1.72926e-06
-2.29354e-07
-1.52839e-06
-2.00874e-07
-1.39728e-06
-1.31111e-07
-1.30349e-06
-9.37832e-08
-1.20839e-06
-9.50997e-08
-1.16628e-06
-4.21116e-08
-1.21609e-06
4.98089e-08
-1.42149e-06
2.05397e-07
-1.73776e-06
3.16274e-07
-1.99535e-06
2.57592e-07
-2.18603e-06
1.90671e-07
-2.33314e-06
1.4711e-07
-2.44183e-06
1.08691e-07
-2.52455e-06
8.27266e-08
-2.59231e-06
6.7756e-08
-2.65529e-06
6.29792e-08
-2.72271e-06
6.74182e-08
-2.80243e-06
7.97214e-08
-2.9007e-06
9.82728e-08
-3.02197e-06
1.21268e-07
-3.16874e-06
1.46775e-07
-3.34163e-06
1.72891e-07
-3.53924e-06
1.97601e-07
-3.75832e-06
2.19083e-07
-3.99413e-06
2.35814e-07
-4.24088e-06
2.46752e-07
-4.4922e-06
2.51317e-07
-4.7413e-06
2.49101e-07
-4.98118e-06
2.39875e-07
-5.20485e-06
2.2367e-07
-5.40568e-06
2.00836e-07
-5.57771e-06
1.7203e-07
-5.71569e-06
1.37981e-07
-5.81525e-06
9.9561e-08
-5.87319e-06
5.79355e-08
-5.88451e-06
1.13224e-08
-5.85404e-06
-3.04746e-08
-5.78275e-06
-7.12862e-08
-5.67188e-06
-1.10867e-07
-5.52484e-06
-1.47046e-07
-5.34532e-06
-1.79515e-07
-5.13736e-06
-2.07961e-07
-4.90524e-06
-2.3212e-07
-4.65317e-06
-2.52077e-07
-4.38451e-06
-2.68653e-07
-4.10228e-06
-2.82236e-07
-3.80913e-06
-2.93144e-07
-3.50723e-06
-3.01899e-07
-3.19815e-06
-3.09083e-07
-2.88298e-06
-3.15166e-07
-2.56236e-06
-3.20629e-07
-2.23653e-06
-3.25829e-07
-1.90542e-06
-3.31106e-07
-1.56883e-06
-3.36587e-07
-1.22648e-06
-3.42353e-07
-8.78156e-07
-3.48325e-07
-5.24272e-07
-3.53883e-07
-1.65738e-07
-3.58535e-07
1.96181e-07
-3.61919e-07
5.59844e-07
-3.63663e-07
9.23031e-07
-3.63187e-07
1.28324e-06
-3.60213e-07
1.63798e-06
-3.54739e-07
1.98487e-06
-3.46891e-07
2.32156e-06
-3.3669e-07
2.64612e-06
-3.2456e-07
2.95741e-06
-3.11283e-07
3.25462e-06
-2.97214e-07
3.53738e-06
-2.8276e-07
3.80522e-06
-2.6784e-07
4.05732e-06
-2.52098e-07
4.29304e-06
-2.35716e-07
4.51145e-06
-2.18413e-07
4.71119e-06
-1.99744e-07
4.8916e-06
-1.80406e-07
5.05133e-06
-1.59733e-07
5.18647e-06
-1.35143e-07
5.29356e-06
-1.07084e-07
5.37059e-06
-7.70281e-08
5.40924e-06
-3.86532e-08
5.39143e-06
1.78106e-08
5.30379e-06
8.764e-08
5.14284e-06
1.60947e-07
4.91221e-06
2.3063e-07
4.62268e-06
2.89532e-07
4.29446e-06
3.28216e-07
3.95455e-06
3.39915e-07
3.62802e-06
3.26525e-07
3.32852e-06
2.99501e-07
3.05424e-06
2.74284e-07
2.7946e-06
2.59635e-07
2.54338e-06
2.51229e-07
2.30528e-06
2.38093e-07
2.09181e-06
2.13473e-07
1.91311e-06
1.78704e-07
1.77336e-06
1.39746e-07
1.67087e-06
1.02492e-07
1.60094e-06
6.99301e-08
1.5579e-06
4.30343e-08
1.53602e-06
2.18829e-08
1.52955e-06
6.46717e-09
1.53226e-06
-2.70449e-09
1.53875e-06
-6.49165e-09
1.54414e-06
-5.39396e-09
1.54672e-06
-2.57607e-09
1.54205e-06
4.66567e-09
1.53413e-06
7.92276e-09
1.51066e-06
2.34669e-08
1.48317e-06
2.74973e-08
1.4082e-06
7.49627e-08
8.54235e-08
1.32278e-06
-6.67189e-08
3.28854e-07
-1.61326e-07
3.24426e-07
-2.41733e-07
2.48663e-07
-2.71923e-07
1.30244e-07
-2.15681e-07
-5.79478e-08
-5.11388e-08
-2.56408e-07
1.81208e-07
-4.0652e-07
4.45444e-07
-4.96425e-07
7.13113e-07
-5.29988e-07
9.64899e-07
-5.19331e-07
1.189e-06
-4.77932e-07
1.37846e-06
-4.15928e-07
1.52969e-06
-3.41542e-07
1.64097e-06
-2.59925e-07
1.71174e-06
-1.74832e-07
1.74287e-06
-8.94453e-08
1.73733e-06
-6.80906e-09
1.69681e-06
7.0162e-08
1.6258e-06
1.40024e-07
1.52889e-06
2.00717e-07
1.4101e-06
2.51252e-07
1.27146e-06
2.91653e-07
1.11143e-06
3.2045e-07
9.26402e-07
3.31741e-07
7.20706e-07
3.1412e-07
5.21724e-07
2.59087e-07
3.65549e-07
1.84236e-07
2.66295e-07
1.27352e-07
2.17969e-07
9.34048e-08
2.15671e-07
5.23569e-08
2.50148e-07
-1.07361e-08
3.04184e-07
-8.10323e-08
3.51963e-07
-1.20103e-07
3.80173e-07
-1.2417e-07
4.00007e-07
-1.20219e-07
4.23939e-07
-1.22496e-07
4.57072e-07
-1.30701e-07
4.99583e-07
-1.40329e-07
5.49203e-07
-1.47335e-07
6.02607e-07
-1.49409e-07
6.56261e-07
-1.45657e-07
7.0629e-07
-1.34781e-07
7.48428e-07
-1.15007e-07
7.77652e-07
-8.43666e-08
7.88032e-07
-4.15545e-08
7.72447e-07
1.4137e-08
7.2179e-07
8.47185e-08
6.34847e-07
1.68493e-07
5.04633e-07
2.62106e-07
3.282e-07
3.60996e-07
1.0616e-07
4.58365e-07
-1.56727e-07
5.46278e-07
-4.51709e-07
6.173e-07
-7.66319e-07
6.65718e-07
-1.08645e-06
6.89323e-07
-1.3984e-06
6.88538e-07
-1.68811e-06
6.65186e-07
-1.9408e-06
6.19185e-07
-2.14446e-06
5.48248e-07
-2.29533e-06
4.50396e-07
-2.3986e-06
3.29396e-07
-2.46097e-06
1.97921e-07
-2.48458e-06
6.96966e-08
-2.47845e-06
-4.46355e-08
-2.41654e-06
-1.68646e-07
-2.30007e-06
-2.83378e-07
-2.12675e-06
-3.77657e-07
-1.9199e-06
-4.25832e-07
-1.72472e-06
-4.20331e-07
-1.58975e-06
-3.64325e-07
-1.55269e-06
-2.37928e-07
-1.64253e-06
-4.12786e-08
-1.88142e-06
1.45113e-07
-2.25846e-06
2.81936e-07
-2.70142e-06
4.00848e-07
-3.06388e-06
4.12273e-07
-3.23988e-06
3.81398e-07
-3.30257e-06
3.78965e-07
-3.3579e-06
3.12913e-07
-3.41053e-06
2.43301e-07
-3.45015e-06
1.86731e-07
-3.4837e-06
1.4224e-07
-3.51655e-06
1.1558e-07
-3.55343e-06
1.04634e-07
-3.59924e-06
1.08792e-07
-3.65777e-06
1.25951e-07
-3.73202e-06
1.5397e-07
-3.82392e-06
1.9017e-07
-3.93443e-06
2.31779e-07
-4.06338e-06
2.75727e-07
-4.20963e-06
3.19142e-07
-4.37093e-06
3.58898e-07
-4.54415e-06
3.923e-07
-4.72551e-06
4.17174e-07
-4.91082e-06
4.32065e-07
-5.09565e-06
4.36151e-07
-5.27544e-06
4.28884e-07
-5.44538e-06
4.0982e-07
-5.60063e-06
3.78922e-07
-5.73665e-06
3.36848e-07
-5.84939e-06
2.84774e-07
-5.93511e-06
2.23698e-07
-5.99034e-06
1.54791e-07
-6.01188e-06
7.9481e-08
-6.00017e-06
-3.87949e-10
-5.94809e-06
-8.25528e-08
-5.85592e-06
-1.63465e-07
-5.72573e-06
-2.41053e-07
-5.56023e-06
-3.12542e-07
-5.36328e-06
-3.76466e-07
-5.13869e-06
-4.32554e-07
-4.89047e-06
-4.80335e-07
-4.62288e-06
-5.19667e-07
-4.33929e-06
-5.52244e-07
-4.04259e-06
-5.78942e-07
-3.73533e-06
-6.00403e-07
-3.41964e-06
-6.17591e-07
-3.0971e-06
-6.31622e-07
-2.76882e-06
-6.43443e-07
-2.4355e-06
-6.53952e-07
-2.09737e-06
-6.63956e-07
-1.75439e-06
-6.74086e-07
-1.4063e-06
-6.84674e-07
-1.05273e-06
-6.95925e-07
-6.93325e-07
-7.07733e-07
-3.27967e-07
-7.19241e-07
4.30226e-08
-7.29525e-07
4.18548e-07
-7.37444e-07
7.96923e-07
-7.42038e-07
1.17611e-06
-7.42375e-07
1.55357e-06
-7.37674e-07
1.9267e-06
-7.2787e-07
2.29312e-06
-7.13307e-07
2.65084e-06
-6.94406e-07
2.99813e-06
-6.71852e-07
3.33372e-06
-6.46872e-07
3.65686e-06
-6.20356e-07
3.96685e-06
-5.92747e-07
4.26322e-06
-5.64211e-07
4.54553e-06
-5.34412e-07
4.81272e-06
-5.029e-07
5.06386e-06
-4.6956e-07
5.29845e-06
-4.34329e-07
5.51495e-06
-3.96913e-07
5.7113e-06
-3.56083e-07
5.88645e-06
-3.10285e-07
6.03822e-06
-2.58855e-07
6.16175e-06
-2.00556e-07
6.2547e-06
-1.31607e-07
6.32252e-06
-5.00132e-08
6.36458e-06
4.55799e-08
6.37528e-06
1.50245e-07
6.34457e-06
2.61348e-07
6.26269e-06
3.71409e-07
6.12109e-06
4.69813e-07
5.91423e-06
5.46779e-07
5.64491e-06
5.95846e-07
5.3276e-06
6.16805e-07
4.9856e-06
6.16286e-07
4.64331e-06
6.01929e-07
4.31875e-06
5.75784e-07
4.02187e-06
5.34978e-07
3.75752e-06
4.77825e-07
3.52901e-06
4.07213e-07
3.33915e-06
3.29602e-07
3.18938e-06
2.52268e-07
3.07957e-06
1.79735e-07
3.0084e-06
1.14201e-07
2.97239e-06
5.78968e-08
2.96708e-06
1.17787e-08
2.98537e-06
-2.10006e-08
3.02117e-06
-4.22916e-08
3.06574e-06
-4.99588e-08
3.11379e-06
-5.06247e-08
3.15672e-06
-3.82655e-08
3.19351e-06
-2.88663e-08
3.21314e-06
3.83546e-09
3.21807e-06
2.25684e-08
3.19116e-06
1.01874e-07
1.45299e-07
3.13128e-06
6.37458e-08
2.65108e-07
6.5768e-08
3.22404e-07
7.15787e-08
2.42852e-07
1.75296e-07
2.65265e-08
3.86206e-07
-2.68858e-07
6.51688e-07
-5.2189e-07
9.29929e-07
-6.84761e-07
1.19134e-06
-7.57841e-07
1.42235e-06
-7.60996e-07
1.61835e-06
-7.1533e-07
1.77904e-06
-6.38614e-07
1.90557e-06
-5.42467e-07
1.99909e-06
-4.35054e-07
2.06068e-06
-3.21522e-07
2.09063e-06
-2.04783e-07
2.08934e-06
-8.8153e-08
2.05687e-06
2.56609e-08
1.99343e-06
1.33604e-07
1.90174e-06
2.31715e-07
1.7861e-06
3.16353e-07
1.65212e-06
3.85238e-07
1.50602e-06
4.3775e-07
1.35171e-06
4.74758e-07
1.18679e-06
4.9666e-07
1.00164e-06
4.99271e-07
7.93966e-07
4.66765e-07
5.90294e-07
3.87907e-07
4.34946e-07
2.82701e-07
3.47564e-07
1.80787e-07
3.16576e-07
8.33449e-08
3.14757e-07
-8.91773e-09
3.05755e-07
-7.20303e-08
2.71167e-07
-8.55147e-08
2.21775e-07
-7.4778e-08
1.77976e-07
-7.64193e-08
1.49229e-07
-9.37492e-08
1.35106e-07
-1.16579e-07
1.32274e-07
-1.37497e-07
1.37991e-07
-1.53052e-07
1.48446e-07
-1.59863e-07
1.59614e-07
-1.56826e-07
1.68723e-07
-1.4389e-07
1.7335e-07
-1.19634e-07
1.69923e-07
-8.09404e-08
1.53797e-07
-2.54277e-08
1.18815e-07
4.91188e-08
5.99758e-08
1.43558e-07
-3.03522e-08
2.58821e-07
-1.57726e-07
3.8948e-07
-3.24924e-07
5.28194e-07
-5.30658e-07
6.641e-07
-7.68597e-07
7.84216e-07
-1.02778e-06
8.76485e-07
-1.29405e-06
9.31985e-07
-1.551e-06
9.46274e-07
-1.78302e-06
9.20559e-07
-1.97876e-06
8.60927e-07
-2.13241e-06
7.72832e-07
-2.24394e-06
6.59778e-07
-2.31926e-06
5.25713e-07
-2.36765e-06
3.77788e-07
-2.39561e-06
2.25886e-07
-2.40382e-06
7.79046e-08
-2.3856e-06
-6.28533e-08
-2.34583e-06
-2.08424e-07
-2.28168e-06
-3.47521e-07
-2.20682e-06
-4.52518e-07
-2.15882e-06
-4.73832e-07
-2.20626e-06
-3.72893e-07
-2.41801e-06
-1.52573e-07
-2.77527e-06
1.19326e-07
-3.15855e-06
3.4201e-07
-3.47283e-06
4.59389e-07
-3.66576e-06
4.74867e-07
-3.71944e-06
4.54524e-07
-3.72557e-06
4.18408e-07
-3.70722e-06
3.63049e-07
-3.64208e-06
3.1382e-07
-3.57792e-06
2.48756e-07
-3.52898e-06
1.94358e-07
-3.49413e-06
1.51879e-07
-3.4752e-06
1.23316e-07
-3.47114e-06
1.11521e-07
-3.48246e-06
1.1595e-07
-3.50995e-06
1.36281e-07
-3.55481e-06
1.70814e-07
-3.61822e-06
2.17381e-07
-3.70077e-06
2.72717e-07
-3.80215e-06
3.33157e-07
-3.92135e-06
3.94934e-07
-4.05678e-06
4.54569e-07
-4.20634e-06
5.0846e-07
-4.36745e-06
5.53409e-07
-4.5374e-06
5.87118e-07
-4.71283e-06
6.07498e-07
-4.88964e-06
6.12962e-07
-5.06344e-06
6.02686e-07
-5.22968e-06
5.76054e-07
-5.38351e-06
5.32757e-07
-5.52002e-06
4.73357e-07
-5.63434e-06
3.99097e-07
-5.72156e-06
3.10917e-07
-5.7769e-06
2.10133e-07
-5.79657e-06
9.91509e-08
-5.77798e-06
-1.8978e-08
-5.72017e-06
-1.40369e-07
-5.62286e-06
-2.60771e-07
-5.48836e-06
-3.75555e-07
-5.3199e-06
-4.81005e-07
-5.12175e-06
-5.74618e-07
-4.8978e-06
-6.565e-07
-4.65157e-06
-7.26563e-07
-4.38664e-06
-7.84601e-07
-4.10653e-06
-8.32348e-07
-3.81405e-06
-8.71422e-07
-3.51159e-06
-9.02869e-07
-3.20108e-06
-9.28101e-07
-2.88403e-06
-9.48666e-07
-2.56141e-06
-9.66064e-07
-2.23375e-06
-9.81618e-07
-1.9011e-06
-9.96598e-07
-1.56328e-06
-1.01191e-06
-1.21989e-06
-1.02806e-06
-8.70463e-07
-1.04535e-06
-5.14568e-07
-1.06363e-06
-1.51911e-07
-1.0819e-06
2.17305e-07
-1.09874e-06
5.92389e-07
-1.11253e-06
9.7161e-07
-1.12126e-06
1.35264e-06
-1.12341e-06
1.73268e-06
-1.11771e-06
2.1088e-06
-1.10398e-06
2.47838e-06
-1.08289e-06
2.8398e-06
-1.05582e-06
3.19186e-06
-1.02391e-06
3.53317e-06
-9.8818e-07
3.86268e-06
-9.49867e-07
4.17959e-06
-9.09663e-07
4.4834e-06
-8.68022e-07
4.7737e-06
-8.24706e-07
5.04979e-06
-7.78996e-07
5.31087e-06
-7.30636e-07
5.55593e-06
-6.79391e-07
5.78354e-06
-6.24519e-07
5.99209e-06
-5.64633e-07
6.18016e-06
-4.98357e-07
6.3455e-06
-4.242e-07
6.48516e-06
-3.40212e-07
6.59784e-06
-2.44285e-07
6.68376e-06
-1.35939e-07
6.74434e-06
-1.49994e-08
6.7779e-06
1.16687e-07
6.78148e-06
2.57769e-07
6.75041e-06
4.02476e-07
6.67855e-06
5.41673e-07
6.55819e-06
6.67146e-07
6.38149e-06
7.7254e-07
6.14533e-06
8.5297e-07
5.85679e-06
9.04824e-07
5.53369e-06
9.25026e-07
5.19832e-06
9.11156e-07
4.87046e-06
8.6284e-07
4.5635e-06
7.84778e-07
4.28555e-06
6.85169e-07
4.04294e-06
5.72211e-07
3.84202e-06
4.53191e-07
3.68739e-06
3.34357e-07
3.58093e-06
2.20669e-07
3.52093e-06
1.17893e-07
3.50205e-06
3.0653e-08
3.51683e-06
-3.5775e-08
3.5561e-06
-8.15654e-08
3.61103e-06
-1.04891e-07
3.67369e-06
-1.13276e-07
3.7376e-06
-1.0218e-07
3.79692e-06
-8.81838e-08
3.84865e-06
-4.78956e-08
3.88636e-06
-1.51462e-08
3.91501e-06
7.32305e-08
1.44427e-07
3.91588e-06
3.99359e-08
2.25173e-07
7.01593e-08
2.92181e-07
2.43749e-07
6.92627e-08
5.65953e-07
-2.95677e-07
9.27503e-07
-6.30408e-07
1.25594e-06
-8.50332e-07
1.52294e-06
-9.51752e-07
1.72718e-06
-9.62085e-07
1.88003e-06
-9.13843e-07
1.99502e-06
-8.30328e-07
2.08233e-06
-7.25919e-07
2.14806e-06
-6.082e-07
2.19415e-06
-4.81142e-07
2.22004e-06
-3.47411e-07
2.22449e-06
-2.09228e-07
2.20591e-06
-6.9581e-08
2.16331e-06
6.82623e-08
2.09617e-06
2.00742e-07
2.00405e-06
3.23837e-07
1.88773e-06
4.32678e-07
1.75068e-06
5.22289e-07
1.59912e-06
5.89306e-07
1.44031e-06
6.33566e-07
1.27895e-06
6.58018e-07
1.11265e-06
6.65571e-07
9.3075e-07
6.48667e-07
7.34474e-07
5.84183e-07
5.53834e-07
4.63341e-07
4.20771e-07
3.13849e-07
3.32326e-07
1.71791e-07
2.49308e-07
7.41002e-08
1.44262e-07
3.30153e-08
2.8128e-08
3.06194e-08
-7.71523e-08
3.05023e-08
-1.71311e-07
1.77392e-08
-2.58256e-07
-6.80371e-09
-3.41252e-07
-3.35825e-08
-4.22782e-07
-5.59677e-08
-5.02989e-07
-7.28446e-08
-5.858e-07
-7.70527e-08
-6.7183e-07
-7.07952e-08
-7.57281e-07
-5.84382e-08
-8.36519e-07
-4.03967e-08
-9.07767e-07
-9.69242e-09
-9.72843e-07
3.96486e-08
-1.03605e-06
1.12328e-07
-1.10557e-06
2.13074e-07
-1.18787e-06
3.41118e-07
-1.28764e-06
4.89251e-07
-1.40936e-06
6.49911e-07
-1.55405e-06
8.08791e-07
-1.71754e-06
9.4771e-07
-1.89173e-06
1.05067e-06
-2.06724e-06
1.1075e-06
-2.23374e-06
1.11277e-06
-2.37948e-06
1.0663e-06
-2.49482e-06
9.76271e-07
-2.57653e-06
8.5454e-07
-2.62803e-06
7.11273e-07
-2.65679e-06
5.54476e-07
-2.67044e-06
3.91438e-07
-2.67366e-06
2.29108e-07
-2.66762e-06
7.18611e-08
-2.65182e-06
-7.86493e-08
-2.63841e-06
-2.21839e-07
-2.65347e-06
-3.32461e-07
-2.74811e-06
-3.57873e-07
-2.98183e-06
-2.40116e-07
-3.35766e-06
2.93432e-09
-3.75835e-06
2.48118e-07
-4.02139e-06
3.82371e-07
-4.09627e-06
4.16885e-07
-4.0578e-06
4.20927e-07
-3.97833e-06
3.95394e-07
-3.8651e-06
3.41289e-07
-3.73762e-06
2.90936e-07
-3.61957e-06
2.44991e-07
-3.50772e-06
2.01969e-07
-3.41667e-06
1.57712e-07
-3.34502e-06
1.22708e-07
-3.29205e-06
9.89096e-08
-3.25738e-06
8.86462e-08
-3.23987e-06
9.4003e-08
-3.23922e-06
1.15299e-07
-3.25559e-06
1.52653e-07
-3.28987e-06
2.05094e-07
-3.34331e-06
2.70824e-07
-3.41687e-06
3.46272e-07
-3.51014e-06
4.26432e-07
-3.62173e-06
5.06521e-07
-3.75004e-06
5.82885e-07
-3.89299e-06
6.514e-07
-4.04758e-06
7.08006e-07
-4.21111e-06
7.50648e-07
-4.38021e-06
7.76598e-07
-4.55088e-06
7.83629e-07
-4.71834e-06
7.70147e-07
-4.8774e-06
7.3511e-07
-5.02297e-06
6.78329e-07
-5.14971e-06
6.00098e-07
-5.25252e-06
5.01904e-07
-5.3271e-06
3.85505e-07
-5.36962e-06
2.52653e-07
-5.37706e-06
1.06586e-07
-5.34718e-06
-4.8861e-08
-5.27919e-06
-2.08359e-07
-5.17358e-06
-3.66381e-07
-5.03253e-06
-5.16601e-07
-4.8601e-06
-6.53434e-07
-4.6607e-06
-7.74015e-07
-4.43831e-06
-8.7889e-07
-4.19583e-06
-9.69049e-07
-3.93626e-06
-1.04417e-06
-3.664e-06
-1.1046e-06
-3.3823e-06
-1.15312e-06
-3.09315e-06
-1.19202e-06
-2.79792e-06
-1.22333e-06