/*--------------------------------*- C++ -*----------------------------------*\
| =========                 |                                                 |
| \\      /  F ield         | OpenFOAM: The Open Source CFD Toolbox           |
|  \\    /   O peration     | Version:  2112                                  |
|   \\  /    A nd           | Website:  www.openfoam.com                      |
|    \\/     M anipulation  |                                                 |
\*---------------------------------------------------------------------------*/
FoamFile
{
    version     2.0;
    format      ascii;
    arch        "LSB;label=32;scalar=64";
    class       volScalarField;
    location    "0.11";
    object      p;
}
// * * * * * * * * * * * * * * * * * * * * * * * * * * * * * * * * * * * * * //

dimensions      [0 2 -2 0 0 0 0];

internalField   nonuniform List<scalar> 
12225
(
-71.3054
-68.9213
-64.0344
-59.0446
-54.6304
-50.9332
-47.8494
-45.2584
-43.1099
-41.3274
-39.8028
-38.4369
-37.1647
-35.9361
-34.7431
-33.5174
-32.2346
-30.8506
-71.9362
-68.9861
-64.0265
-59.0326
-54.6075
-50.9028
-47.8254
-45.2519
-43.119
-41.3441
-39.8175
-38.4495
-37.18
-35.9632
-34.7846
-33.6014
-32.3662
-31.0685
-72.8889
-69.3137
-64.0416
-58.9852
-54.5449
-50.8389
-47.7717
-45.213
-43.0896
-41.3155
-39.7901
-38.4336
-37.1903
-36.0184
-34.8939
-33.7886
-32.6712
-31.5377
-73.6553
-69.6162
-64.0357
-58.8933
-54.4375
-50.7299
-47.6756
-45.1434
-43.0442
-41.2861
-39.7717
-38.4317
-37.2162
-36.0842
-35.0125
-33.9908
-33.0034
-32.0684
-78.196
-70.2813
-64.0385
-58.7504
-54.2679
-50.567
-47.5311
-45.0226
-42.9459
-41.2067
-39.713
-38.3988
-37.2183
-36.1368
-35.1332
-34.2055
-33.3506
-32.6
-79.7019
-70.7219
-63.9754
-58.5316
-54.0258
-50.3358
-47.3248
-44.8589
-42.8261
-41.1179
-39.6491
-38.3644
-37.2263
-36.2014
-35.267
-34.4286
-33.6953
-33.1051
-81.1844
-71.1768
-63.8587
-58.2101
-53.6738
-50.0118
-47.0479
-44.6301
-42.6417
-40.9741
-39.5461
-38.3057
-37.2147
-36.2485
-35.3923
-34.6485
-34.0332
-33.5851
-81.6964
-71.2886
-63.563
-57.7464
-53.2129
-49.5905
-46.6779
-44.3198
-42.3887
-40.7745
-39.4018
-38.2214
-37.1948
-36.2954
-35.5139
-34.8558
-34.3424
-34.009
-84.1924
-71.2964
-63.0347
-57.0997
-52.5923
-49.0442
-46.2187
-43.9484
-42.0911
-40.5371
-39.2202
-38.096
-37.1328
-36.3063
-35.6082
-35.0403
-34.6199
-34.3748
-82.4257
-70.4477
-62.1582
-56.2175
-51.7896
-48.3385
-45.6113
-43.4398
-41.6783
-40.2136
-38.9782
-37.9338
-37.0476
-36.2951
-35.6687
-35.1737
-34.8248
-34.6413
-82.677
-69.5328
-60.9324
-55.0134
-50.7286
-47.4573
-44.8933
-42.8597
-41.2119
-39.8394
-38.6839
-37.7145
-36.9041
-36.2304
-35.6814
-35.2575
-34.968
-34.8239
-77.0968
-67.4404
-59.3004
-53.5594
-49.4992
-46.4363
-44.0456
-42.159
-40.6426
-39.3875
-38.3328
-37.4508
-36.7193
-36.1162
-35.6308
-35.2639
-35.0221
-34.908
-78.1843
-65.2629
-57.2149
-51.7934
-48.0417
-45.2517
-43.0872
-41.3901
-40.0272
-38.8936
-37.9403
-37.1458
-36.49
-35.9559
-35.5324
-35.2156
-35.008
-34.9125
-76.0923
-61.519
-53.9829
-49.1999
-45.9752
-43.6111
-41.7665
-40.3156
-39.1554
-38.1928
-37.3805
-36.7041
-36.1491
-35.6994
-35.3472
-35.0887
-34.9216
-34.8437
-65.4768
-54.4778
-49.0674
-45.5343
-43.1581
-41.4036
-40.0157
-38.9178
-38.0333
-37.287
-36.6479
-36.1125
-35.6748
-35.3215
-35.0445
-34.841
-34.7085
-34.6382
-47.7004
-44.3235
-42.0346
-40.4648
-39.3519
-38.4606
-37.6916
-37.0529
-36.519
-36.049
-35.6338
-35.2796
-34.9867
-34.7525
-34.5718
-34.4343
-34.3434
-34.2987
-20.911
-28.4416
-32.2403
-33.7409
-34.4672
-34.7439
-34.802
-34.7666
-34.6639
-34.52
-34.3665
-34.2219
-34.0931
-33.9807
-33.8925
-33.8354
-33.8022
-33.7854
-5.1333
-16.482
-23.0585
-26.966
-29.3083
-30.669
-31.514
-32.07
-32.4202
-32.6335
-32.7702
-32.8637
-32.9277
-32.973
-33.0112
-33.0494
-33.0862
-33.1196
9.48548
-7.13415
-16.0768
-21.3042
-24.5745
-26.7506
-28.2391
-29.284
-30.044
-30.604
-31.0186
-31.3366
-31.5891
-31.7915
-31.9543
-32.0878
-32.2002
-32.2948
-4.01879
-10.4893
-15.8576
-19.5745
-22.5973
-24.7301
-26.2942
-27.4655
-28.376
-29.0989
-29.6758
-30.1368
-30.5066
-30.8104
-31.0697
-31.2941
-31.4874
-31.6523
-16.9028
-16.6674
-18.0815
-20.395
-22.275
-23.9
-25.3084
-26.4755
-27.4167
-28.1868
-28.8203
-29.3455
-29.7856
-30.1622
-30.4882
-30.7668
-31.0043
-31.2081
-25.8504
-19.4428
-18.8629
-20.2525
-21.7889
-23.3295
-24.6602
-25.797
-26.7467
-27.5526
-28.2425
-28.8261
-29.3137
-29.7248
-30.0746
-30.3788
-30.6455
-30.8783
-20.9366
-18.2833
-18.9571
-20.2694
-21.6874
-23.0463
-24.2799
-25.3864
-26.3302
-27.1472
-27.8481
-28.4387
-28.9447
-29.3834
-29.7661
-30.0995
-30.3919
-30.6482
-12.8116
-17.9287
-18.8226
-20.1255
-21.4983
-22.8066
-23.9599
-25.0612
-26.0186
-26.8491
-27.5664
-28.1819
-28.7172
-29.1796
-29.575
-29.9188
-30.2213
-30.4892
-13.8248
-16.2331
-18.3478
-19.9105
-21.3607
-22.6807
-23.9156
-24.9166
-25.8421
-26.6651
-27.386
-28.001
-28.534
-29.0029
-29.4186
-29.7816
-30.0997
-30.3822
-10.3885
-16.075
-18.1663
-19.7984
-21.2657
-22.5644
-23.7408
-24.7716
-25.7038
-26.535
-27.27
-27.9073
-28.4592
-28.9331
-29.3432
-29.7038
-30.0227
-30.3084
-13.6111
-16.1029
-18.0626
-19.7343
-21.1845
-22.4877
-23.6599
-24.6922
-25.6233
-26.4571
-27.1796
-27.815
-28.3643
-28.8484
-29.2719
-29.6424
-29.9705
-30.2643
-17.1336
-16.5881
-18.0974
-19.7055
-21.1356
-22.427
-23.5935
-24.6265
-25.5629
-26.4059
-27.1431
-27.7893
-28.351
-28.8335
-29.2498
-29.6131
-29.9378
-30.2343
-15.5014
-16.5821
-18.1083
-19.6783
-21.1001
-22.3987
-23.5624
-24.5925
-25.5288
-26.3792
-27.1289
-27.7789
-28.3354
-28.8079
-29.2127
-29.5677
-29.8919
-30.196
-15.2526
-16.6263
-18.151
-19.6754
-21.0743
-22.3699
-23.537
-24.5685
-25.5044
-26.3576
-27.1136
-27.7716
-28.3363
-28.8139
-29.219
-29.571
-29.892
-30.1952
-33.9528
-33.9168
-33.8392
-33.681
-33.4111
-33.0528
-32.5657
-32.349
-32.3571
-32.628
-33.1426
-33.8287
-34.5983
-35.3668
-36.0673
-36.654
-37.1014
-37.4193
-37.651
-37.8051
-37.8587
-37.8426
-37.8218
-37.8012
-37.7817
-37.791
-37.854
-37.9759
-38.1422
-38.3093
-38.4181
-38.4355
-38.3565
-38.2421
-38.1336
-38.055
-38.0367
-38.0836
-38.2491
-38.503
-38.8401
-39.5222
-40.1078
-40.4126
-40.4003
-40.443
-41.6232
-43.0502
-44.7704
-46.5891
-48.4866
-50.3986
-52.3114
-54.1963
-56.0445
-57.843
-59.5852
-61.2665
-62.8829
-64.4355
-65.9233
-67.3501
-68.7184
-70.0338
-71.3029
-72.5348
-73.7418
-74.9389
-76.144
-77.3775
-78.6628
-80.0169
-81.4418
-82.9222
-84.4212
-85.8789
-87.2132
-88.3233
-89.0939
-89.4057
-89.1546
-88.2609
-86.6532
-84.2707
-81.0994
-77.2123
-72.7051
-67.7123
-62.3835
-56.8716
-51.3183
-45.8416
-40.5298
-35.439
-30.5968
-26.0096
-21.6757
-17.5991
-13.8015
-10.3255
-7.22266
-4.5318
-2.26267
-0.400154
1.09379
2.27403
3.20123
3.93295
4.51608
4.97729
5.33828
5.61036
5.80052
5.91146
5.94621
5.91068
5.81446
5.66954
5.4893
5.29006
5.08594
4.86817
4.6427
4.46655
4.37301
4.2901
4.10872
3.78166
3.40187
3.0696
2.82123
2.62857
2.45292
2.26614
2.12624
2.05193
2.0169
1.97038
1.8811
1.66058
1.60495
2.02629
2.06358
1.41581
0.803677
0.554058
0.0709905
-1.2696
-3.92677
-8.26913
-13.8075
-19.9295
-26.1419
-32.1183
-37.6248
-42.448
-46.3515
-49.0712
-50.3467
-49.9372
-47.6772
-43.5505
-37.7158
-30.5287
-22.5175
-14.3187
-6.56838
0.220417
5.73057
9.81384
12.5792
14.2571
15.1114
15.4017
15.3151
15.0039
14.5247
14.0642
13.723
14.0208
-34.2356
-34.234
-34.2462
-34.1346
-33.8723
-33.4411
-33.037
-32.8151
-32.8482
-33.1562
-33.7008
-34.4065
-35.1892
-35.9678
-36.678
-37.2742
-37.7233
-38.0189
-38.1807
-38.2171
-38.1745
-38.1541
-38.1559
-38.1245
-38.0931
-38.104
-38.1618
-38.2595
-38.3968
-38.5409
-38.62
-38.5805
-38.4411
-38.2618
-38.0963
-37.9709
-37.9166
-37.929
-38.0584
-38.3699
-38.8624
-38.9712
-40.102
-41.4683
-41.2753
-41.498
-42.4792
-43.8451
-45.5004
-47.2662
-49.1096
-50.9663
-52.8255
-54.6584
-56.4591
-58.2119
-59.9125
-61.5544
-63.1356
-64.653
-66.1072
-67.5014
-68.8408
-70.133
-71.3873
-72.6164
-73.8359
-75.0653
-76.3259
-77.6385
-79.019
-80.4782
-82.0175
-83.6169
-85.2323
-86.7952
-88.2164
-89.3904
-90.2036
-90.5403
-90.2876
-89.345
-87.6467
-85.1732
-81.945
-77.9916
-73.4098
-68.3321
-62.9164
-57.325
-51.7073
-46.1872
-40.8546
-35.7646
-30.9402
-26.381
-22.0752
-18.0161
-14.2175
-10.7195
-7.5795
-4.84682
-2.5402
-0.649133
0.863204
2.05417
2.98843
3.72713
4.31892
4.79321
5.17033
5.46181
5.67287
5.80515
5.86079
5.84426
5.76211
5.62426
5.44889
5.25793
5.05601
4.83516
4.60866
4.4242
4.30344
4.18935
3.97003
3.60746
3.24817
3.00902
2.81902
2.62371
2.4245
2.21787
2.0665
2.10543
2.15347
2.06767
1.89745
1.59647
1.45004
1.77948
1.80218
1.18018
0.690255
0.615038
0.247187
-1.27395
-4.3618
-8.97948
-14.6028
-20.6783
-26.796
-32.6827
-38.1299
-42.9288
-46.8369
-49.5771
-50.8675
-50.4723
-48.2383
-44.1243
-38.2803
-31.0582
-22.9879
-14.7111
-6.87485
-0.00602804
5.56847
9.67559
12.4685
14.1523
15.0077
15.2867
15.1992
14.8765
14.41
13.8842
13.4476
13.0802
-34.8288
-34.8851
-34.9761
-34.9357
-34.6524
-34.344
-34.1498
-34.1734
-34.449
-34.9522
-35.6186
-36.3703
-37.1341
-37.8439
-38.4505
-38.9312
-39.2733
-39.4635
-39.5093
-39.4129
-39.2001
-38.9809
-38.852
-38.8025
-38.7806
-38.7854
-38.8211
-38.8852
-38.9826
-39.0791
-39.0898
-38.9521
-38.6622
-38.3148
-37.988
-37.7062
-37.4615
-37.2943
-37.2134
-37.3401
-38.1029
-38.7377
-39.5152
-40.6871
-41.7555
-42.8318
-44.0374
-45.405
-46.9216
-48.543
-50.2415
-51.9798
-53.7379
-55.4908
-57.2249
-58.9238
-60.5779
-62.1776
-63.7189
-65.1985
-66.6173
-67.9778
-69.2857
-70.5502
-71.784
-73.004
-74.2299
-75.4843
-76.7914
-78.1741
-79.6486
-81.2211
-82.8854
-84.6166
-86.3652
-88.056
-89.594
-90.8731
-91.7851
-92.2158
-92.0375
-91.1319
-89.4502
-86.9554
-83.6498
-79.5762
-74.8383
-69.5826
-63.9857
-58.2292
-52.479
-46.8697
-41.4955
-36.4082
-31.622
-27.1217
-22.8761
-18.8566
-15.059
-11.5172
-8.29862
-5.47627
-3.09038
-1.14046
0.408955
1.62091
2.568
3.31829
3.9251
4.4212
4.82629
5.15207
5.40135
5.57326
5.66691
5.68444
5.63247
5.52182
5.36691
5.18329
4.98282
4.77047
4.55418
4.36001
4.19948
4.03965
3.82799
3.5543
3.27826
3.02687
2.80975
2.62235
2.493
2.3847
2.26718
2.18576
2.10233
2.00848
1.97577
1.81029
1.65317
1.74517
1.48077
0.738135
0.257949
0.167994
-0.40221
-2.3802
-5.8196
-10.5006
-15.9744
-21.8421
-27.7784
-33.5349
-38.9096
-43.697
-47.6472
-50.4649
-51.8461
-51.5363
-49.3706
-45.2901
-39.4338
-32.1486
-23.9655
-15.5371
-7.53112
-0.501395
5.19976
9.39097
12.2299
13.932
14.7879
15.0564
14.9599
14.6258
14.1501
13.5692
13.0105
12.4102
-35.1261
-35.1761
-35.3232
-35.4302
-35.5066
-35.6773
-36.0162
-36.5483
-37.2456
-38.0486
-38.8933
-39.7204
-40.4781
-41.1197
-41.6084
-41.9283
-42.0694
-42.049
-41.9051
-41.6361
-41.2488
-40.8537
-40.4923
-40.1216
-39.8587
-39.7985
-39.8163
-39.8308
-39.8394
-39.821
-39.6977
-39.4019
-38.906
-38.3171
-37.7683
-37.3128
-36.955
-36.6793
-36.6201
-36.9544
-37.7115
-38.7957
-40.0034
-41.2681
-42.5398
-43.8623
-45.2194
-46.6457
-48.1411
-49.7133
-51.3488
-53.033
-54.7449
-56.4643
-58.1725
-59.852
-61.4889
-63.0715
-64.5935
-66.0516
-67.4464
-68.7802
-70.0598
-71.2965
-72.507
-73.7122
-74.9359
-76.205
-77.5487
-78.9952
-80.5668
-82.2736
-84.1074
-86.0357
-87.9965
-89.8983
-91.6288
-93.0722
-94.1171
-94.6438
-94.519
-93.641
-92.0069
-89.4998
-86.0952
-81.8485
-76.8742
-71.3442
-65.4689
-59.4611
-53.5123
-47.7731
-42.3426
-37.2669
-32.5466
-28.1456
-24.0043
-20.0609
-16.2816
-12.6863
-9.35277
-6.38861
-3.87294
-1.82705
-0.22109
1.01801
1.97925
2.74208
3.36784
3.89077
4.33281
4.7033
5.00359
5.23041
5.37951
5.44878
5.4407
5.36434
5.2353
5.07109
4.88457
4.68116
4.4693
4.26777
4.08853
3.91687
3.71486
3.46664
3.2027
2.96751
2.78194
2.63101
2.50904
2.38889
2.2553
2.21118
2.2263
2.21542
2.16649
2.01671
1.88164
1.84793
1.3937
0.568346
0.0657419
-0.377597
-1.28636
-3.82813
-7.52328
-12.2065
-17.5622
-23.2648
-29.0364
-34.6655
-39.9768
-44.7769
-48.809
-51.7559
-53.289
-53.1285
-51.065
-47.0374
-41.17
-33.7992
-25.4558
-16.8057
-8.54588
-1.27291
4.62145
8.95365
11.8693
13.6089
14.4719
14.7333
14.6219
14.2777
13.7852
13.1715
12.5118
11.773
-35.2584
-35.2621
-35.5426
-36.0506
-36.7577
-37.6198
-38.5931
-39.6285
-40.6767
-41.6943
-42.6467
-43.5053
-44.2405
-44.8216
-45.2229
-45.4304
-45.4358
-45.254
-44.9291
-44.4973
-43.9786
-43.4001
-42.7595
-42.1322
-41.6619
-41.3497
-41.1449
-41.0248
-40.9152
-40.7434
-40.4472
-39.9491
-39.1794
-38.265
-37.4263
-36.7681
-36.3099
-36.0479
-36.123
-36.7531
-37.913
-39.2779
-40.668
-42.0378
-43.3893
-44.7643
-46.1766
-47.6481
-49.1816
-50.7835
-52.4418
-54.1458
-55.8753
-57.6116
-59.334
-61.0241
-62.6668
-64.2503
-65.7671
-67.2121
-68.5847
-69.8891
-71.1356
-72.3397
-73.5208
-74.7023
-75.9139
-77.1915
-78.5729
-80.0937
-81.7829
-83.6549
-85.6994
-87.8719
-90.0881
-92.2284
-94.1567
-95.7446
-96.8799
-97.4604
-97.3998
-96.6394
-95.002
-92.4456
-88.9149
-84.4526
-79.182
-73.3102
-67.0884
-60.7715
-54.5827
-48.691
-43.2002
-38.1495
-33.5248
-29.2681
-25.2896
-21.4862
-17.7802
-14.1615
-10.7097
-7.5697
-4.8739
-2.67991
-0.981336
0.292432
1.2589
2.02324
2.66415
3.21805
3.70567
4.13274
4.49636
4.78986
5.00614
5.14001
5.19033
5.1624
5.06909
4.92801
4.75565
4.56232
4.35671
4.15447
3.96769
3.78649
3.58502
3.35854
3.13171
2.92766
2.76226
2.62463
2.51078
2.4195
2.33251
2.31347
2.32259
2.28005
2.25524
2.22327
2.16121
2.09202
1.61759
0.850796
0.136955
-0.758738
-2.43296
-5.33451
-9.24384
-13.9885
-19.3014
-24.8864
-30.5092
-36.0132
-41.27
-46.1089
-50.2686
-53.4041
-55.1501
-55.1862
-53.2769
-49.3379
-43.4731
-36.0036
-27.4587
-18.5211
-9.92661
-2.32925
3.82628
8.35271
11.3824
13.1839
14.0677
14.3302
14.2056
13.8495
13.3419
12.7048
11.9749
11.1391
-34.9601
-35.2379
-35.996
-37.1753
-38.5577
-40.0123
-41.4531
-42.8222
-44.0855
-45.2283
-46.2461
-47.1349
-47.8793
-48.4548
-48.8366
-48.9998
-48.9214
-48.6176
-48.1259
-47.522
-46.8445
-46.1008
-45.301
-44.517
-43.8349
-43.2898
-42.9066
-42.6292
-42.3295
-41.9491
-41.438
-40.6833
-39.5941
-38.2882
-37.0891
-36.202
-35.66
-35.5029
-35.8823
-36.8989
-38.3548
-39.8471
-41.3131
-42.7504
-44.1656
-45.5959
-47.0729
-48.6162
-50.2328
-51.9191
-53.6591
-55.4364
-57.2288
-59.0167
-60.7788
-62.4974
-64.157
-65.7448
-67.2521
-68.6757
-70.0197
-71.2917
-72.5009
-73.6605
-74.7924
-75.9295
-77.113
-78.3877
-79.7994
-81.3928
-83.2033
-85.2458
-87.5008
-89.9035
-92.3377
-94.6493
-96.6784
-98.2959
-99.4178
-99.9969
-99.9972
-99.3191
-97.8035
-95.2939
-91.7168
-87.0868
-81.5373
-75.3123
-68.7141
-62.0507
-55.5849
-49.5075
-43.9282
-38.8842
-34.3493
-30.2466
-26.464
-22.8647
-19.3195
-15.7693
-12.267
-8.97688
-6.08715
-3.70777
-1.86148
-0.50938
0.468151
1.21278
1.84741
2.41909
2.95189
3.44553
3.88822
4.26503
4.56274
4.77211
4.88962
4.91854
4.86919
4.75835
4.60508
4.42458
4.2284
4.02958
3.83715
3.64986
3.45716
3.25595
3.0563
2.86982
2.7156
2.59528
2.50304
2.43356
2.36604
2.34518
2.37009
2.39025
2.44728
2.49246
2.50637
2.46498
2.02001
1.36819
0.346674
-1.16968
-3.49331
-6.77671
-10.9392
-15.8152
-21.1244
-26.5968
-32.0668
-37.4533
-42.6841
-47.6139
-51.9748
-55.3817
-57.4092
-57.6987
-56.0114
-52.2052
-46.3624
-38.7855
-29.998
-20.702
-11.684
-3.67409
2.81456
7.58697
10.769
12.6572
13.5815
13.857
13.7275
13.3624
12.8434
12.193
11.4222
10.5343
-35.1099
-35.867
-37.3305
-39.0167
-40.7657
-42.4681
-44.0399
-45.452
-46.7125
-47.8431
-48.8655
-49.7819
-50.5736
-51.2134
-51.67
-51.8955
-51.844
-51.4872
-50.9095
-50.1954
-49.3844
-48.4936
-47.5676
-46.6578
-45.8207
-45.1348
-44.6492
-44.2662
-43.825
-43.2723
-42.5886
-41.646
-40.2671
-38.5006
-36.8365
-35.6567
-35.0699
-35.147
-35.9085
-37.2791
-38.8818
-40.435
-41.9476
-43.4353
-44.9177
-46.4382
-48.0266
-49.6964
-51.4485
-53.2662
-55.1267
-57.0077
-58.8864
-60.7422
-62.5537
-64.3032
-65.9765
-67.564
-69.0602
-70.4629
-71.7725
-72.9914
-74.1281
-75.2047
-76.2576
-77.3283
-78.4602
-79.7032
-81.1139
-82.7463
-84.64
-86.8053
-89.2078
-91.7565
-94.3039
-96.6686
-98.6821
-100.239
-101.313
-101.928
-102.083
-101.663
-100.454
-98.2083
-94.7658
-90.0889
-84.3056
-77.701
-70.6478
-63.5295
-56.6714
-50.3025
-44.5481
-39.4484
-34.9632
-30.9891
-27.3867
-23.9949
-20.6512
-17.2562
-13.811
-10.4588
-7.42026
-4.87286
-2.87289
-1.4039
-0.366074
0.381973
0.984526
1.54049
2.09182
2.64272
3.17265
3.65107
4.04986
4.35089
4.54663
4.63902
4.63901
4.56404
4.43445
4.26965
4.08477
3.89192
3.70032
3.51345
3.32692
3.13908
2.95835
2.7925
2.6572
2.55638
2.47884
2.42112
2.37605
2.37575
2.42913
2.48819
2.57418
2.69162
2.80713
2.85974
2.70785
1.90368
0.517841
-1.5886
-4.45691
-8.13063
-12.59
-17.6239
-22.9281
-28.2841
-33.6158
-38.9238
-44.1885
-49.2835
-53.9294
-57.6966
-60.0946
-60.705
-59.2979
-55.6738
-49.8816
-42.1972
-33.1316
-23.4018
-13.8538
-5.31967
1.58806
6.66374
10.0354
12.034
13.02
13.3237
13.2022
12.834
12.3104
11.6563
10.8712
9.96555
-37.545
-38.4376
-39.8429
-41.4265
-43.0193
-44.5131
-45.87
-47.0965
-48.2036
-49.2081
-50.1301
-50.9763
-51.728
-52.3633
-52.8565
-53.1413
-53.1397
-52.8292
-52.2536
-51.4995
-50.6168
-49.6587
-48.6957
-47.8185
-47.0955
-46.5346
-46.1049
-45.7559
-45.3727
-44.8555
-44.1385
-43.0566
-41.3574
-39.1082
-36.9755
-35.5533
-35.0069
-35.3152
-36.3812
-37.9357
-39.5807
-41.1579
-42.6983
-44.2345
-45.8052
-47.4552
-49.1999
-51.0385
-52.9569
-54.9266
-56.9215
-58.9161
-60.8881
-62.8175
-64.6844
-66.4716
-68.1642
-69.7505
-71.2205
-72.5682
-73.7964
-74.9196
-75.9599
-76.9415
-77.8945
-78.8594
-79.8893
-81.0459
-82.3939
-83.9929
-85.8844
-88.0731
-90.5101
-93.0843
-95.6287
-97.9514
-99.892
-101.384
-102.479
-103.278
-103.799
-103.956
-103.425
-101.8
-98.7517
-94.1559
-88.1278
-81.0239
-73.3254
-65.5194
-58.0243
-51.1488
-45.0721
-39.8387
-35.3751
-31.5318
-28.1147
-24.9196
-21.7609
-18.5155
-15.1615
-11.8124
-8.69441
-6.03868
-3.93967
-2.37106
-1.24797
-0.458044
0.133786
0.651806
1.17894
1.74958
2.34964
2.93625
3.45809
3.87361
4.16318
4.32783
4.38138
4.34463
4.24171
4.09548
3.92423
3.74131
3.55556
3.37155
3.18928
3.01235
2.84939
2.7044
2.58629
2.49904
2.4335
2.39053
2.37125
2.39358
2.46211
2.54
2.65926
2.85611
3.04919
3.16165
3.08049
2.28236
0.554285
-2.02907
-5.34126
-9.39305
-14.1573
-19.3403
-24.6325
-29.8826
-35.115
-40.404
-45.7729
-51.1085
-56.1173
-60.3235
-63.17
-64.1761
-63.09
-59.6932
-53.9943
-46.2329
-36.888
-26.6735
-16.4896
-7.29457
0.141364
5.5911
9.19095
11.3229
12.389
12.7377
12.6379
12.276
11.7543
11.1049
10.3253
9.42452
-40.6583
-41.3373
-42.3663
-43.6259
-44.9068
-46.1116
-47.2333
-48.2815
-49.2504
-50.1272
-50.8977
-51.5505
-52.0836
-52.5094
-52.8301
-52.9804
-52.8775
-52.5015
-51.9203
-51.1911
-50.3751
-49.5379
-48.76
-48.1175
-47.6559
-47.3726
-47.2596
-47.2332
-47.131
-46.8108
-46.147
-44.9473
-42.9993
-40.4953
-38.1593
-36.6188
-36.0796
-36.4769
-37.5668
-39.0472
-40.5922
-42.1116
-43.64
-45.2242
-46.9038
-48.7089
-50.6327
-52.6578
-54.7571
-56.8959
-59.0447
-61.1748
-63.2611
-65.2796
-67.2064
-69.0206
-70.7076
-72.26
-73.6735
-74.9471
-76.0879
-77.1111
-78.0322
-78.8687
-79.656
-80.4487
-81.3103
-82.3078
-83.5108
-84.9828
-86.7647
-88.8566
-91.2023
-93.6839
-96.1325
-98.3639
-100.239
-101.733
-102.965
-104.119
-105.277
-106.261
-106.643
-105.822
-103.265
-98.7789
-92.4838
-84.8341
-76.4462
-67.9012
-59.6791
-52.1683
-45.6377
-40.1861
-35.7096
-32.0008
-28.7814
-25.7735
-22.7637
-19.6173
-16.3201
-12.9859
-9.83993
-7.12285
-4.96355
-3.35287
-2.17515
-1.32817
-0.708552
-0.207686
0.27669
0.820307
1.44657
2.12056
2.77227
3.327
3.73477
3.98516
4.09701
4.10034
4.02541
3.89896
3.74216
3.57036
3.39384
3.21847
3.04654
2.88106
2.73244
2.60295
2.49848
2.42409
2.37328
2.34606
2.34717
2.38491
2.46331
2.56148
2.70947
2.94883
3.17153
3.31168
3.29946
2.44811
0.440321
-2.4988
-6.16217
-10.5563
-15.5946
-20.9079
-26.192
-31.357
-36.5397
-41.8701
-47.4037
-53.0353
-58.4583
-63.1497
-66.4838
-67.9273
-67.1967
-64.0697
-58.5264
-50.7585
-41.191
-30.5027
-19.6227
-9.63432
-1.52624
4.37837
8.24792
10.535
11.6966
12.1058
12.0406
11.6957
11.1821
10.5432
9.77873
8.89221
-43.022
-43.5411
-44.3573
-45.3744
-46.4205
-47.4684
-48.5101
-49.509
-50.4018
-51.1303
-51.6629
-51.9969
-52.162
-52.2293
-52.2197
-52.0805
-51.7569
-51.239
-50.5897
-49.8062
-49.0197
-48.2691
-47.8013
-47.6021
-47.706
-48.0937
-48.6662
-49.2811
-49.7449
-49.8531
-49.4081
-48.2004
-46.149
-43.6304
-41.3032
-39.5877
-38.7569
-38.8222
-39.4682
-40.5698
-41.8679
-43.2601
-44.7735
-46.4401
-48.2734
-50.2737
-52.4064
-54.6394
-56.9352
-59.256
-61.5676
-63.8352
-66.0288
-68.1214
-70.0911
-71.9201
-73.5946
-75.1067
-76.4519
-77.6276
-78.6382
-79.5006
-80.2412
-80.8886
-81.4784
-82.0651
-82.7133
-83.4901
-84.4641
-85.6995
-87.2414
-89.096
-91.2123
-93.4814
-95.7515
-97.8592
-99.6861
-101.235
-102.653
-104.139
-105.785
-107.422
-108.524
-108.323
-106.144
-101.789
-95.3866
-87.4911
-78.8225
-69.9724
-61.3707
-53.4245
-46.4935
-40.7861
-36.2215
-32.5626
-29.4591
-26.5695
-23.6471
-20.5648
-17.3194
-14.0227
-10.8867
-8.14798
-5.95564
-4.33388
-3.1478
-2.26464
-1.59292
-1.05973
-0.584904
-0.0799863
0.523765
1.23618
1.99625
2.69913
3.24965
3.60649
3.78551
3.82934
3.7812
3.67491
3.53441
3.37646
3.2125
3.04977
2.89149
2.74081
2.60593
2.48949
2.3965
2.33317
2.29496
2.28071
2.29726
2.34735
2.43728
2.55056
2.70695
2.95717
3.17953
3.31547
3.32967
2.40873
0.20603
-2.98518
-6.92773
-11.6096
-16.8555
-22.29
-27.5773
-32.6847
-37.8619
-43.2789
-49.0124
-54.9635
-60.8132
-65.9897
-69.7996
-71.6699
-71.2897
-68.4541
-63.1353
-55.4743
-45.8163
-34.7581
-23.2049
-12.3272
-3.42025
3.03592
7.22105
9.68391
10.9535
11.4359
11.4169
11.0985
10.5993
9.97333
9.22645
8.3579
-44.3335
-44.7745
-45.4591
-46.3364
-47.2845
-48.3084
-49.3566
-50.3291
-51.1136
-51.6287
-51.8679
-51.853
-51.6547
-51.3709
-51.0282
-50.5808
-49.9962
-49.3024
-48.5618
-47.9159
-47.4369
-47.2343
-47.3891
-48.0256
-49.1353
-50.722
-52.4462
-53.9935
-55.0746
-55.4679
-55.0161
-53.6347
-51.4279
-48.7576
-46.056
-43.4064
-41.9468
-41.353
-41.4869
-42.2328
-43.335
-44.6665
-46.2377
-48.0416
-50.0661
-52.2801
-54.6299
-57.0713
-59.5599
-62.0576
-64.5265
-66.9277
-69.2239
-71.3835
-73.3826
-75.2015
-76.8248
-78.2473
-79.4751
-80.516
-81.3743
-82.0652
-82.6249
-83.0902
-83.4775
-83.8138
-84.1654
-84.6157
-85.2465
-86.1278
-87.3073
-88.795
-90.5548
-92.5012
-94.5088
-96.4397
-98.1918
-99.7602
-101.257
-102.852
-104.6
-106.402
-107.635
-107.592
-105.619
-101.459
-95.2639
-87.6242
-79.2836
-70.7979
-62.4787
-54.6032
-47.5657
-41.6754
-37.0015
-33.2905
-30.179
-27.3083
-24.4128
-21.368
-18.1834
-14.9693
-11.903
-9.18543
-6.97955
-5.35682
-4.18952
-3.29779
-2.57307
-1.96418
-1.4343
-0.924121
-0.35061
0.350204
1.16708
1.99772
2.70115
3.18353
3.44192
3.5295
3.50689
3.41967
3.29612
3.15387
3.00574
2.86019
2.72001
2.5872
2.46597
2.36246
2.27996
2.22536
2.19708
2.19427
2.22482
2.28534
2.38202
2.49861
2.6491
2.89409
3.0894
3.18301
3.18522
2.20892
-0.108705
-3.46338
-7.61263
-12.5211
-17.9404
-23.4565
-28.7626
-33.8465
-39.0447
-44.568
-50.5042
-56.7586
-62.9964
-68.5975
-72.8124
-75.0533
-74.9724
-72.429
-67.3915
-59.9593
-50.3935
-39.1698
-27.0775
-15.3018
-5.51893
1.58111
6.12807
8.78451
10.1717
10.7363
10.7731
10.4884
10.0093
9.39802
8.66818
7.81874
-44.361
-44.7301
-45.4057
-46.2357
-47.1871
-48.251
-49.3063
-50.1945
-50.8145
-51.1237
-51.1326
-50.8971
-50.4977
-49.9939
-49.4072
-48.7691
-48.1177
-47.4927
-46.9589
-46.6442
-46.6784
-47.1892
-48.319
-50.1022
-52.3222
-54.7279
-57.0918
-58.984
-60.0984
-60.218
-59.2612
-57.322
-54.5623
-51.3693
-48.1831
-45.508
-43.7599
-42.9329
-42.945
-43.6376
-44.7326
-46.135
-47.8332
-49.8072
-52.0371
-54.471
-57.0534
-59.7349
-62.4609
-65.1796
-67.8356
-70.3775
-72.7637
-74.9639
-76.9576
-78.7305
-80.2769
-81.5984
-82.7038
-83.6056
-84.3142
-84.8428
-85.2189
-85.4756
-85.6231
-85.6762
-85.7005
-85.7854
-86.0112
-86.4457
-87.1474
-88.142
-89.4174
-90.9203
-92.5593
-94.2112
-95.7936
-97.3069
-98.7582
-100.267
-101.855
-103.346
-104.309
-104.127
-102.236
-98.4249
-92.7673
-85.7783
-78.1479
-70.3859
-62.7357
-55.3577
-48.555
-42.6886
-37.9446
-34.1544
-30.9754
-28.0597
-25.1491
-22.1225
-18.9932
-15.8715
-12.9125
-10.2784
-8.10156
-6.46504
-5.29979
-4.41702
-3.65832
-2.96315
-2.32653
-1.73826
-1.14816
-0.471057
0.349035
1.25764
2.09646
2.71238
3.06062
3.19618
3.19844
3.12867
3.02305
2.89993
2.77088
2.64505
2.52583
2.41262
2.30846
2.22004
2.15004
2.10415
2.08373
2.08951
2.13035
2.19644
2.29343
2.40646
2.54248
2.76975
2.9178
2.9404
2.89996
1.89397
-0.466835
-3.90989
-8.20077
-13.2685
-18.8134
-24.3899
-29.7185
-34.8214
-40.0477
-45.6625
-51.7666
-58.2626
-64.7969
-70.7093
-75.2134
-77.7202
-77.8936
-75.6339
-70.9167
-63.8104
-54.5068
-43.3662
-30.9865
-18.4228
-7.76715
0.0436242
4.99161
7.85367
9.36359
10.0158
10.115
9.869
9.41338
8.81839
8.10394
7.27345
-43.0507
-43.3907
-44.0362
-44.8569
-45.8384
-46.9297
-47.9589
-48.788
-49.347
-49.6035
-49.5773
-49.3301
-48.9329
-48.4204
-47.8133
-47.1867
-46.5807
-46.0611
-45.6911
-45.5685
-45.8575
-46.669
-48.0004
-49.7959
-52.0045
-54.3702
-56.5156
-58.0351
-58.6984
-58.3887
-57.0785
-54.9006
-52.118
-49.1573
-46.4847
-44.469
-43.2837
-42.9225
-43.3157
-44.2596
-45.5669
-47.2035
-49.1546
-51.4135
-53.9611
-56.7405
-59.6863
-62.7208
-65.7611
-68.729
-71.5574
-74.2025
-76.6418
-78.8589
-80.833
-82.5503
-84.0106
-85.2205
-86.193
-86.9435
-87.4856
-87.8313
-88.0003
-88.0253
-87.9259
-87.6939
-87.3725
-87.0507
-86.8152
-86.7449
-86.9144
-87.3585
-88.0885
-89.0826
-90.2756
-91.5727
-92.8676
-94.177
-95.5238
-96.8388
-98.0839
-99.1081
-99.6135
-99.1647
-97.3455
-93.9547
-89.0178
-82.9003
-76.1559
-69.2338
-62.3565
-55.6347
-49.2927
-43.6555
-38.9519
-35.1066
-31.8426
-28.8527
-25.9047
-22.8888
-19.8221
-16.8067
-13.9636
-11.4236
-9.30842
-7.68161
-6.48503
-5.57108
-4.78163
-4.02051
-3.27385
-2.56545
-1.89495
-1.20279
-0.399592
0.5302
1.45802
2.19307
2.63442
2.82226
2.85172
2.80002
2.71245
2.61076
2.50515
2.40269
2.30645
2.21507
2.13068
2.06054
2.00635
1.97081
1.95648
1.96642
2.0124
2.07967
2.17297
2.27825
2.39133
2.59058
2.68274
2.61768
2.5082
1.50124
-0.837725
-4.30323
-8.66925
-13.8258
-19.4545
-25.0785
-30.4381
-35.5646
-40.817
-46.4847
-52.6873
-59.3284
-66.0351
-72.1227
-76.791
-79.4856
-79.8614
-77.8736
-73.496
-66.7718
-57.8505
-47.002
-34.5995
-21.5671
-10.0776
-1.53177
3.83948
6.90932
8.54143
9.2828
9.44763
9.24346
8.81263
8.2348
7.53429
6.72091
-40.5191
-40.8488
-41.4758
-42.2956
-43.3046
-44.4096
-45.4415
-46.3187
-47.001
-47.4544
-47.6498
-47.6372
-47.4449
-47.1106
-46.6532
-46.1354
-45.6111
-45.1193
-44.692
-44.3625
-44.2571
-44.5714
-45.3355
-46.4212
-47.7075
-49.0372
-50.1351
-50.7353
-50.7196
-50.0436
-48.7618
-47.0349
-45.1127
-43.3009
-41.8909
-41.0781
-40.9305
-41.422
-42.4485
-43.8627
-45.6084
-47.6945
-50.1239
-52.9046
-56.0044
-59.3396
-62.7941
-66.2298
-69.5271
-72.611
-75.4614
-78.0916
-80.5141
-82.7237
-84.6968
-86.4035
-87.8288
-88.9761
-89.8598
-90.4984
-90.9106
-91.1108
-91.106
-90.908
-90.5456
-90.022
-89.3432
-88.5483
-87.7953
-87.1595
-86.7399
-86.5821
-86.6931
-87.1081
-87.7789
-88.6493
-89.6897
-90.7792
-91.8837
-92.9383
-93.8565
-94.4865
-94.6005
-93.9071
-92.1272
-89.1137
-84.8813
-79.6584
-73.8275
-67.7411
-61.6001
-55.5188
-49.6978
-44.4216
-39.8895
-36.06
-32.7279
-29.658
-26.6677
-23.6701
-20.6821
-17.7929
-15.0952
-12.6684
-10.6032
-8.97183
-7.73246
-6.74982
-5.88933
-5.0616
-4.22919
-3.40621
-2.62661
-1.87567
-1.06944
-0.146927
0.815366
1.63069
2.15502
2.39738
2.45813
2.42947
2.36399
2.28601
2.20643
2.13116
2.06141
1.99446
1.93126
1.88121
1.84598
1.82368
1.81556
1.8263
1.87302
1.93747
2.02277
2.11623
2.19987
2.3639
2.40151
2.24342
2.04012
1.05958
-1.19991
-4.62569
-8.99943
-14.1818
-19.8467
-25.5072
-30.8981
-36.0437
-41.2927
-46.9559
-53.171
-59.84
-66.5793
-72.7036
-77.4356
-80.2392
-80.827
-79.1267
-75.0996
-68.7695
-60.28
-49.858
-37.7022
-24.4961
-12.33
-3.08616
2.70358
5.9698
7.71605
8.54482
8.77536
8.61423
8.20862
7.64816
6.96109
6.16216
-37.2261
-37.5543
-38.1719
-39.0141
-40.0795
-41.2663
-42.4506
-43.5907
-44.6193
-45.4713
-46.1352
-46.5771
-46.778
-46.7538
-46.4546
-46.0059
-45.4131
-44.651
-43.7469
-42.8433
-42.0883
-41.5048
-41.0693
-40.7939
-40.6425
-40.5202
-40.3384
-40.0562
-39.6126
-38.981
-38.2005
-37.3865
-36.6955
-36.2841
-36.2744
-36.7283
-37.6422
-38.9689
-40.646
-42.6457
-45.0016
-47.7407
-50.8852
-54.422
-58.2522
-62.2109
-66.1034
-69.7633
-73.0976
-76.1039
-78.8505
-81.4241
-83.8739
-86.1953
-88.3141
-90.1473
-91.653
-92.8299
-93.706
-94.3139
-94.6725
-94.7885
-94.6544
-94.2624
-93.62
-92.7669
-91.803
-90.3936
-89.011
-87.7367
-86.6501
-85.8361
-85.3752
-85.2416
-85.4216
-85.8677
-86.5213
-87.2937
-88.098
-88.8461
-89.4377
-89.7356
-89.563
-88.7212
-87.0256
-84.3668
-80.7478
-76.3092
-71.3011
-65.9854
-60.5463
-55.1063
-49.834
-44.9615
-40.6605
-36.9115
-33.5624
-30.4438
-27.4305
-24.4685
-21.5749
-18.8127
-16.2497
-13.9415
-11.9422
-10.3004
-8.99632
-7.92626
-6.97348
-6.06227
-5.15339
-4.24086
-3.35858
-2.52815
-1.69515
-0.782519
0.178208
1.02884
1.61312
1.90973
2.00897
2.01106
1.9754
1.92717
1.87694
1.83079
1.79011
1.75097
1.71121
1.6813
1.66527
1.65849
1.65902
1.67004
1.71479
1.77307
1.84528
1.9235
1.97474
2.09679
2.08885
1.84381
1.52366
0.58735
-1.5439
-4.86695
-9.18152
-14.3273
-19.9769
-25.653
-31.0689
-36.2242
-41.434
-47.0241
-53.146
-59.7089
-66.3392
-72.3808
-77.1035
-79.9991
-80.8019
-79.4161
-75.7615
-69.8193
-61.7529
-51.8218
-40.1161
-27.0091
-14.3928
-4.55283
1.61706
5.05164
6.89573
7.80698
8.10155
7.98291
7.60267
7.0597
6.38677
5.60121
-33.7823
-34.1046
-34.7276
-35.6309
-36.825
-38.2427
-39.8129
-41.4265
-43.0515
-44.5637
-45.8727
-46.8712
-47.49
-47.7213
-47.5604
-47.0271
-46.0881
-44.7506
-43.1438
-41.432
-39.6842
-37.9161
-36.1929
-34.5797
-33.082
-31.7076
-30.5001
-29.5421
-28.8142
-28.3469
-28.1596
-28.2778
-28.7392
-29.5658
-30.7445
-32.228
-33.9689
-35.9457
-38.2057
-40.837
-43.9072
-47.4596
-51.5069
-55.9502
-60.5688
-65.0923
-69.2866
-73.0182
-76.2699
-79.1433
-81.82
-84.4734
-87.1536
-89.8111
-92.2522
-94.3063
-95.9227
-97.127
-97.9988
-98.6086
-98.9827
-99.1026
-98.9276
-98.4091
-97.5058
-96.2082
-94.4757
-92.7676
-90.86
-88.9429
-87.1683
-85.6564
-84.4966
-83.7221
-83.3266
-83.266
-83.4703
-83.8526
-84.3145
-84.7505
-85.0502
-85.0877
-84.7193
-83.8007
-82.2077
-79.8621
-76.7577
-72.9765
-68.6797
-64.0604
-59.2825
-54.4721
-49.7676
-45.3346
-41.2992
-37.6656
-34.3412
-31.219
-28.222
-25.3184
-22.5218
-19.8744
-17.4215
-15.1992
-13.2458
-11.5975
-10.2399
-9.08785