/*--------------------------------*- C++ -*----------------------------------*\
| =========                 |                                                 |
| \\      /  F ield         | OpenFOAM: The Open Source CFD Toolbox           |
|  \\    /   O peration     | Version:  2112                                  |
|   \\  /    A nd           | Website:  www.openfoam.com                      |
|    \\/     M anipulation  |                                                 |
\*---------------------------------------------------------------------------*/
FoamFile
{
    version     2.0;
    format      ascii;
    arch        "LSB;label=32;scalar=64";
    class       surfaceScalarField;
    location    "0.43";
    object      phi;
}
// * * * * * * * * * * * * * * * * * * * * * * * * * * * * * * * * * * * * * //

dimensions      [0 3 -1 0 0 0 0];

oriented        oriented;

internalField   nonuniform List<scalar> 
24170
(
3.04043e-06
1.47975e-07
2.86464e-06
1.75792e-07
2.69e-06
1.74636e-07
2.51655e-06
1.73453e-07
2.34952e-06
1.67027e-07
2.19388e-06
1.55638e-07
2.05307e-06
1.40812e-07
1.92942e-06
1.23656e-07
1.82418e-06
1.05238e-07
1.7375e-06
8.66785e-08
1.66848e-06
6.90252e-08
1.61532e-06
5.3155e-08
1.57565e-06
3.96655e-08
1.54674e-06
2.89176e-08
1.5257e-06
2.10334e-08
1.50916e-06
1.65456e-08
1.49034e-06
1.8818e-08
3.93675e-08
1.45097e-06
3.48916e-06
7.60599e-08
3.53945e-06
1.25503e-07
3.57078e-06
1.43309e-07
3.58311e-06
1.61117e-07
3.57711e-06
1.73036e-07
3.55508e-06
1.77662e-07
3.51982e-06
1.76073e-07
3.47424e-06
1.69233e-07
3.42119e-06
1.58287e-07
3.3632e-06
1.44673e-07
3.3023e-06
1.29924e-07
3.23997e-06
1.15486e-07
3.17716e-06
1.02476e-07
3.1144e-06
9.16774e-08
3.05187e-06
8.3567e-08
2.98945e-06
7.89565e-08
2.92969e-06
7.85797e-08
7.95203e-08
2.88954e-06
3.68035e-06
5.82216e-08
3.6987e-06
1.07161e-07
3.71775e-06
1.24253e-07
3.73958e-06
1.39296e-07
3.76199e-06
1.50619e-07
3.78338e-06
1.56275e-07
3.80231e-06
1.57143e-07
3.81749e-06
1.54058e-07
3.82812e-06
1.47656e-07
3.83392e-06
1.38869e-07
3.83495e-06
1.28895e-07
3.83156e-06
1.18881e-07
3.82426e-06
1.09771e-07
3.81365e-06
1.02289e-07
3.80024e-06
9.69774e-08
3.78507e-06
9.41307e-08
3.76969e-06
9.39552e-08
9.37301e-08
3.75548e-06
3.93605e-06
4.75569e-08
3.94744e-06
9.57699e-08
3.9567e-06
1.14996e-07
3.96652e-06
1.29478e-07
3.97699e-06
1.40143e-07
3.98801e-06
1.45264e-07
3.99946e-06
1.45686e-07
4.01097e-06
1.4255e-07
4.02191e-06
1.36719e-07
4.03173e-06
1.29043e-07
4.04015e-06
1.20483e-07
4.04703e-06
1.11996e-07
4.05246e-06
1.0434e-07
4.0567e-06
9.80464e-08
4.0602e-06
9.34807e-08
4.06359e-06
9.07373e-08
4.06787e-06
8.96765e-08
8.87566e-08
4.07285e-06
4.21515e-06
3.95383e-08
4.22515e-06
8.57659e-08
4.23354e-06
1.06609e-07
4.2419e-06
1.21115e-07
4.25047e-06
1.31571e-07
4.25899e-06
1.36751e-07
4.26729e-06
1.37386e-07
4.27521e-06
1.34628e-07
4.28253e-06
1.29392e-07
4.28908e-06
1.22497e-07
4.29475e-06
1.14808e-07
4.29959e-06
1.07161e-07
4.3037e-06
1.00229e-07
4.30727e-06
9.44751e-08
4.31063e-06
9.01184e-08
4.31425e-06
8.71167e-08
4.31891e-06
8.50172e-08
8.26051e-08
4.32507e-06
4.51539e-06
3.32346e-08
4.52454e-06
7.66162e-08
4.53286e-06
9.82856e-08
4.5412e-06
1.12781e-07
4.54971e-06
1.23063e-07
4.55808e-06
1.28379e-07
4.56608e-06
1.29382e-07
4.57354e-06
1.27167e-07
4.58031e-06
1.22623e-07
4.58627e-06
1.16536e-07
4.59138e-06
1.09699e-07
4.59569e-06
1.02849e-07
4.59935e-06
9.65703e-08
4.60258e-06
9.12478e-08
4.60568e-06
8.70149e-08
4.60905e-06
8.37456e-08
4.61314e-06
8.0934e-08
7.76726e-08
4.61807e-06
4.83779e-06
2.8169e-08
4.84615e-06
6.82539e-08
4.8543e-06
9.0134e-08
4.86263e-06
1.04452e-07
4.87124e-06
1.14451e-07
4.8798e-06
1.19824e-07
4.88801e-06
1.21168e-07
4.89567e-06
1.19506e-07
4.90261e-06
1.1568e-07
4.90872e-06
1.10426e-07
4.91397e-06
1.04454e-07
4.91842e-06
9.84041e-08
4.92221e-06
9.27725e-08
4.9256e-06
8.78646e-08
4.92885e-06
8.37604e-08
4.93229e-06
8.03068e-08
4.93616e-06
7.70628e-08
7.33667e-08
4.94047e-06
5.18372e-06
2.40324e-08
5.19136e-06
6.06127e-08
5.1993e-06
8.21932e-08
5.20756e-06
9.61948e-08
5.21618e-06
1.05826e-07
5.22483e-06
1.11178e-07
5.23319e-06
1.12803e-07
5.24106e-06
1.11642e-07
5.24824e-06
1.08493e-07
5.25464e-06
1.04032e-07
5.2602e-06
9.88883e-08
5.26499e-06
9.36127e-08
5.26915e-06
8.86164e-08
5.27288e-06
8.41373e-08
5.27642e-06
8.02185e-08
5.28002e-06
7.67111e-08
5.28381e-06
7.32649e-08
6.94175e-08
5.28776e-06
5.55476e-06
2.06096e-08
5.56174e-06
5.36281e-08
5.56947e-06
7.44669e-08
5.57764e-06
8.80258e-08
5.58623e-06
9.72368e-08
5.5949e-06
1.02511e-07
5.60333e-06
1.04365e-07
5.61132e-06
1.03652e-07
5.6187e-06
1.01121e-07
5.62533e-06
9.73924e-08
5.63121e-06
9.30181e-08
5.63635e-06
8.84678e-08
5.64089e-06
8.40808e-08
5.64498e-06
8.00422e-08
5.64882e-06
7.63744e-08
5.65258e-06
7.2951e-08
5.65634e-06
6.95111e-08
6.57495e-08
5.66001e-06
5.95265e-06
1.77361e-08
5.95904e-06
4.7239e-08
5.96654e-06
6.69635e-08
5.97462e-06
7.99464e-08
5.98316e-06
8.86956e-08
5.99183e-06
9.38415e-08
6.00031e-06
9.58821e-08
6.00839e-06
9.55727e-08
6.01591e-06
9.36071e-08
6.02275e-06
9.05496e-08
6.02889e-06
8.68841e-08
6.03434e-06
8.30088e-08
6.03922e-06
7.92042e-08
6.04365e-06
7.56177e-08
6.04775e-06
7.22653e-08
6.05165e-06
6.90522e-08
6.05537e-06
6.57971e-08
6.23139e-08
6.0588e-06
6.37927e-06
1.52807e-08
6.38512e-06
4.13853e-08
6.39239e-06
5.96946e-08
6.40038e-06
7.19583e-08
6.40887e-06
8.02023e-08
6.41754e-06
8.51707e-08
6.42607e-06
8.73514e-08
6.43424e-06
8.74029e-08
6.4419e-06
8.59538e-08
6.44893e-06
8.35138e-08
6.45531e-06
8.05041e-08
6.46106e-06
7.72619e-08
6.46624e-06
7.40209e-08
6.47096e-06
7.09037e-08
6.47529e-06
6.79292e-08
6.47931e-06
6.50365e-08
6.48299e-06
6.21107e-08
5.9052e-08
6.48626e-06
5.74267e-06
1.34402e-08
5.74724e-06
3.68151e-08
5.7532e-06
5.37376e-08
5.75988e-06
6.52776e-08
5.76702e-06
7.30602e-08
5.77436e-06
7.78395e-08
5.78161e-06
8.00957e-08
5.7886e-06
8.04154e-08
5.79519e-06
7.93658e-08
5.80129e-06
7.74089e-08
5.80688e-06
7.49177e-08
5.81195e-06
7.21852e-08
5.81656e-06
6.9413e-08
5.82076e-06
6.67091e-08
5.82459e-06
6.40988e-08
5.82808e-06
6.15484e-08
5.8312e-06
5.89866e-08
5.63697e-08
5.83388e-06
7.00005e-06
1.15479e-08
7.00494e-06
3.19265e-08
7.01153e-06
4.7139e-08
7.01908e-06
5.77278e-08
7.02723e-06
6.49195e-08
7.03563e-06
6.94319e-08
7.044e-06
7.17247e-08
7.05211e-06
7.23047e-08
7.05981e-06
7.16674e-08
7.067e-06
7.02199e-08
7.07363e-06
6.8285e-08
7.07971e-06
6.61112e-08
7.08525e-06
6.38703e-08
7.0903e-06
6.16591e-08
7.09489e-06
5.95111e-08
7.09902e-06
5.74183e-08
7.10266e-06
5.5348e-08
5.33002e-08
7.10573e-06
8.53279e-06
9.60568e-09
8.53797e-06
2.67496e-08
8.5452e-06
3.99083e-08
8.55365e-06
4.92779e-08
8.56285e-06
5.57156e-08
8.57243e-06
5.98538e-08
8.58204e-06
6.21154e-08
8.59142e-06
6.29235e-08
8.60039e-06
6.26919e-08
8.60885e-06
6.17658e-08
8.61672e-06
6.04157e-08
8.62398e-06
5.88469e-08
8.63065e-06
5.72033e-08
8.63674e-06
5.55714e-08
8.64226e-06
5.39921e-08
8.6472e-06
5.24783e-08
8.65152e-06
5.10258e-08
4.96643e-08
8.65515e-06
1.04012e-05
7.60266e-09
1.04067e-05
2.12915e-08
1.04145e-05
3.20457e-08
1.04239e-05
3.98889e-08
1.04343e-05
4.53686e-08
1.04451e-05
4.89897e-08
1.04561e-05
5.1117e-08
1.0467e-05
5.2088e-08
1.04774e-05
5.22286e-08
1.04874e-05
5.18151e-08
1.04967e-05
5.10637e-08
1.05055e-05
5.01371e-08
1.05135e-05
4.91514e-08
1.05209e-05
4.81814e-08
1.05276e-05
4.72706e-08
1.05337e-05
4.64436e-08
1.0539e-05
4.57116e-08
4.51201e-08
1.05435e-05
1.26789e-05
5.51149e-09
1.26847e-05
1.55047e-08
1.26932e-05
2.35014e-08
1.27036e-05
2.94747e-08
1.27153e-05
3.37422e-08
1.27276e-05
3.66591e-08
1.27402e-05
3.85071e-08
1.27527e-05
3.9536e-08
1.2765e-05
3.99808e-08
1.27768e-05
4.00432e-08
1.27879e-05
3.98817e-08
1.27985e-05
3.96151e-08
1.28083e-05
3.93289e-08
1.28174e-05
3.90813e-08
1.28258e-05
3.89093e-08
1.28334e-05
3.8838e-08
1.28402e-05
3.88802e-08
3.90836e-08
1.28462e-05
1.54554e-05
3.27637e-09
1.54617e-05
9.24799e-09
1.54711e-05
1.40991e-08
1.54827e-05
1.78162e-08
1.54959e-05
2.05586e-08
1.551e-05
2.2529e-08
1.55246e-05
2.3904e-08
1.55393e-05
2.48399e-08
1.55538e-05
2.54798e-08
1.55679e-05
2.59456e-08
1.55815e-05
2.63329e-08
1.55944e-05
2.67117e-08
1.56066e-05
2.71314e-08
1.56181e-05
2.76246e-08
1.56287e-05
2.82114e-08
1.56387e-05
2.89046e-08
1.56479e-05
2.97068e-08
3.06568e-08
1.56563e-05
1.88401e-05
7.85324e-10
1.88472e-05
2.20494e-09
1.88579e-05
3.40067e-09
1.88713e-05
4.39585e-09
1.88866e-05
5.22725e-09
1.89032e-05
5.94235e-09
1.89205e-05
6.59532e-09
1.89381e-05
7.24017e-09
1.89557e-05
7.92405e-09
1.89729e-05
8.6834e-09
1.89897e-05
9.54301e-09
1.90059e-05
1.05166e-08
1.90214e-05
1.16087e-08
1.90363e-05
1.28162e-08
1.90503e-05
1.41315e-08
1.90637e-05
1.5545e-08
1.90764e-05
1.70402e-08
1.8639e-08
1.90884e-05
2.29663e-05
-2.21167e-09
2.29748e-05
-6.30933e-09
2.29878e-05
-9.55928e-09
2.30041e-05
-1.19079e-08
2.30228e-05
-1.34771e-08
2.30432e-05
-1.44078e-08
2.30645e-05
-1.47863e-08
2.30865e-05
-1.46716e-08
2.31085e-05
-1.4123e-08
2.31304e-05
-1.32002e-08
2.31519e-05
-1.19588e-08
2.31729e-05
-1.0451e-08
2.31932e-05
-8.72768e-09
2.32129e-05
-6.83736e-09
2.32318e-05
-4.8253e-09
2.32501e-05
-2.73162e-09
2.32677e-05
-5.96858e-10
1.57831e-09
2.32848e-05
1.68131e-05
-4.6523e-09
1.682e-05
-1.31404e-08
1.68302e-05
-1.98146e-08
1.6843e-05
-2.46536e-08
1.68575e-05
-2.80051e-08
1.68733e-05
-3.01859e-08
1.68899e-05
-3.13733e-08
1.69069e-05
-3.17011e-08
1.69241e-05
-3.1306e-08
1.69412e-05
-3.03157e-08
1.69581e-05
-2.88403e-08
1.69746e-05
-2.69788e-08
1.69907e-05
-2.48224e-08
1.70063e-05
-2.24544e-08
1.70214e-05
-1.99492e-08
1.70361e-05
-1.73707e-08
1.70503e-05
-1.47775e-08
-1.21886e-08
1.7064e-05
1.4637e-05
-7.1179e-09
1.46438e-05
-1.99471e-08
1.46538e-05
-2.97754e-08
1.46659e-05
-3.67666e-08
1.46796e-05
-4.16526e-08
1.46943e-05
-4.49302e-08
1.47098e-05
-4.68292e-08
1.47256e-05
-4.75462e-08
1.47416e-05
-4.72903e-08
1.47575e-05
-4.62436e-08
1.47732e-05
-4.45584e-08
1.47886e-05
-4.23717e-08
1.48036e-05
-3.98101e-08
1.48182e-05
-3.69884e-08
1.48322e-05
-3.40083e-08
1.48458e-05
-3.09565e-08
1.48589e-05
-2.79092e-08
-2.49023e-08
1.48716e-05
1.27428e-05
-9.76042e-09
1.27498e-05
-2.70205e-08
1.27597e-05
-3.96683e-08
1.27714e-05
-4.84134e-08
1.27843e-05
-5.45878e-08
1.27982e-05
-5.88112e-08
1.28127e-05
-6.13112e-08
1.28275e-05
-6.23488e-08
1.28424e-05
-6.22014e-08
1.28572e-05
-6.10898e-08
1.28719e-05
-5.91953e-08
1.28862e-05
-5.66866e-08
1.29001e-05
-5.37213e-08
1.29136e-05
-5.04427e-08
1.29265e-05
-4.69782e-08
1.2939e-05
-4.34377e-08
1.2951e-05
-3.99158e-08
-3.64658e-08
1.29626e-05
1.10939e-05
-1.27617e-08
1.11015e-05
-3.46114e-08
1.11114e-05
-4.95838e-08
1.11226e-05
-5.96259e-08
1.11349e-05
-6.68636e-08
1.1148e-05
-7.18896e-08
1.11616e-05
-7.48846e-08
1.11754e-05
-7.61854e-08
1.11893e-05
-7.61238e-08
1.12032e-05
-7.49389e-08
1.12168e-05
-7.28317e-08
1.12301e-05
-6.99956e-08
1.1243e-05
-6.66152e-08
1.12554e-05
-6.28614e-08
1.12674e-05
-5.8888e-08
1.12787e-05
-5.4829e-08
1.12896e-05
-5.07969e-08
-4.68589e-08
1.13e-05
9.65883e-06
-1.63723e-08
9.66713e-06
-4.29193e-08
9.67706e-06
-5.9515e-08
9.68785e-06
-7.04088e-08
9.69951e-06
-7.85236e-08
9.71182e-06
-8.42013e-08
9.72452e-06
-8.75853e-08
9.73744e-06
-8.91039e-08
9.75043e-06
-8.91141e-08
9.76334e-06
-8.78507e-08
9.77604e-06
-8.55314e-08
9.78841e-06
-8.23673e-08
9.80036e-06
-7.85597e-08
9.8118e-06
-7.43071e-08
9.82271e-06
-6.97948e-08
9.83307e-06
-6.51867e-08
9.84289e-06
-6.06187e-08
-5.61738e-08
9.8522e-06
8.40995e-06
-2.09736e-08
8.41912e-06
-5.20875e-08
8.42898e-06
-6.93768e-08
8.43936e-06
-8.07819e-08
8.45048e-06
-8.96463e-08
8.4621e-06
-9.58227e-08
8.474e-06
-9.9481e-08
8.48605e-06
-1.01155e-07
8.49814e-06
-1.01203e-07
8.51012e-06
-9.98378e-08
8.52187e-06
-9.72771e-08
8.53326e-06
-9.37552e-08
8.54419e-06
-8.94966e-08
8.55462e-06
-8.47296e-08
8.56449e-06
-7.96709e-08
8.57383e-06
-7.45198e-08
8.58263e-06
-6.94229e-08
-6.44214e-08
8.59088e-06
7.32341e-06
-2.70986e-08
7.33366e-06
-6.23394e-08
7.34343e-06
-7.91481e-08
7.35342e-06
-9.07727e-08
7.36399e-06
-1.00211e-07
7.3749e-06
-1.06738e-07
7.38604e-06
-1.10618e-07
7.39733e-06
-1.12449e-07
7.4087e-06
-1.1257e-07
7.42002e-06
-1.11158e-07
7.43115e-06
-1.08409e-07
7.44198e-06
-1.0458e-07
7.45242e-06
-9.99342e-08
7.46241e-06
-9.47214e-08
7.4719e-06
-8.91665e-08
7.48089e-06
-8.35061e-08
7.48939e-06
-7.79237e-08
-7.24636e-08
7.49743e-06
6.37836e-06
-3.53926e-08
6.39014e-06
-7.41229e-08
6.40032e-06
-8.93274e-08
6.41083e-06
-1.0128e-07
6.42191e-06
-1.11293e-07
6.43334e-06
-1.18166e-07
6.44514e-06
-1.22415e-07
6.45729e-06
-1.24605e-07
6.46974e-06
-1.25019e-07
6.48236e-06
-1.23777e-07
6.49502e-06
-1.21062e-07
6.50756e-06
-1.17125e-07
6.51984e-06
-1.12213e-07
6.53169e-06
-1.06577e-07
6.543e-06
-1.00467e-07
6.55364e-06
-9.41543e-08
6.56353e-06
-8.78082e-08
-8.15954e-08
6.57266e-06
5.5592e-06
-4.91321e-08
5.57578e-06
-9.06984e-08
5.59156e-06
-1.05111e-07
5.60957e-06
-1.1929e-07
5.62955e-06
-1.31275e-07
5.65073e-06
-1.39344e-07
5.6725e-06
-1.44187e-07
5.69438e-06
-1.46486e-07
5.71581e-06
-1.46448e-07
5.73623e-06
-1.44194e-07
5.75514e-06
-1.39975e-07
5.77215e-06
-1.3413e-07
5.78696e-06
-1.27029e-07
5.79945e-06
-1.19061e-07
5.80958e-06
-1.10602e-07
5.81752e-06
-1.0209e-07
5.82352e-06
-9.38129e-08
-8.64227e-08
5.82835e-06
4.88782e-06
-1.09341e-07
4.94108e-06
-1.43958e-07
4.98569e-06
-1.49729e-07
5.02056e-06
-1.54157e-07
5.04398e-06
-1.54692e-07
5.0563e-06
-1.51667e-07
5.05853e-06
-1.46412e-07
5.05157e-06
-1.39532e-07
5.03646e-06
-1.31336e-07
5.01436e-06
-1.22088e-07
4.98646e-06
-1.12083e-07
4.95396e-06
-1.01626e-07
4.91794e-06
-9.10075e-08
4.87938e-06
-8.05013e-08
4.83912e-06
-7.03472e-08
4.79785e-06
-6.08154e-08
4.7561e-06
-5.20635e-08
-4.43972e-08
4.71407e-06
4.09334e-06
3.94938e-06
3.79965e-06
3.64549e-06
3.4908e-06
3.33913e-06
3.19272e-06
3.05319e-06
2.92185e-06
2.79976e-06
2.68768e-06
2.58605e-06
2.49505e-06
2.41455e-06
2.3442e-06
2.28338e-06
2.23132e-06
2.18692e-06
6.21686e-08
-6.21686e-08
1.41835e-07
-7.96663e-08
2.37042e-07
-9.52072e-08
3.48204e-07
-1.11162e-07
4.75909e-07
-1.27705e-07
6.20193e-07
-1.44284e-07
7.78921e-07
-1.58727e-07
9.48068e-07
-1.69147e-07
1.12304e-06
-1.74974e-07
1.29945e-06
-1.76406e-07
1.47331e-06
-1.73866e-07
1.64098e-06
-1.67665e-07
1.79894e-06
-1.57966e-07
1.94412e-06
-1.45174e-07
2.07394e-06
-1.29824e-07
2.18641e-06
-1.12466e-07
2.28002e-06
-9.36128e-08
2.35374e-06
-7.372e-08
2.4069e-06
-5.31585e-08
2.43907e-06
-3.21732e-08
2.44991e-06
-1.0842e-08
2.43908e-06
1.08365e-08
2.40713e-06
3.19466e-08
2.35616e-06
5.09754e-08
2.28883e-06
6.73243e-08
2.20802e-06
8.08134e-08
2.11649e-06
9.15234e-08
2.01689e-06
9.96069e-08
1.91214e-06
1.04746e-07
1.80617e-06
1.05969e-07
1.70192e-06
1.04253e-07
1.60033e-06
1.01593e-07
1.50181e-06
9.85152e-08
1.40671e-06
9.51011e-08
1.31537e-06
9.13444e-08
1.22815e-06
8.72153e-08
1.14549e-06
8.26646e-08
1.06788e-06
7.76035e-08
9.95983e-07
7.18993e-08
9.30592e-07
6.53913e-08
8.72667e-07
5.79245e-08
8.23267e-07
4.94001e-08
7.83426e-07
3.98405e-08
7.53977e-07
2.94494e-08
7.35335e-07
1.86416e-08
7.27302e-07
8.03338e-09
7.29293e-07
-1.99061e-09
7.40533e-07
-1.12399e-08
7.59749e-07
-1.92166e-08
7.85574e-07
-2.58252e-08
8.16555e-07
-3.0981e-08
8.51475e-07
-3.49197e-08
8.90034e-07
-3.85592e-08
9.33173e-07
-4.31386e-08
9.81765e-07
-4.85918e-08
1.0356e-06
-5.38361e-08
1.09425e-06
-5.86452e-08
1.15743e-06
-6.31839e-08
1.22423e-06
-6.68038e-08
1.29203e-06
-6.77949e-08
1.35558e-06
-6.35508e-08
1.40694e-06
-5.13639e-08
1.43687e-06
-2.99249e-08
1.43899e-06
-2.11902e-09
1.41337e-06
2.56157e-08
1.3741e-06
3.92715e-08
1.33876e-06
3.53449e-08
1.31535e-06
2.34076e-08
1.28958e-06
2.57646e-08
1.22842e-06
6.11617e-08
1.0995e-06
1.28925e-07
8.86456e-07
2.1304e-07
5.79987e-07
3.06469e-07
1.74386e-07
4.05601e-07
-3.3265e-07
5.07036e-07
-9.33363e-07
6.00713e-07
-1.60864e-06
6.7528e-07
-2.33259e-06
7.23951e-07
-3.07737e-06
7.4478e-07
-3.81702e-06
7.39647e-07
-4.52984e-06
7.12818e-07
-5.19945e-06
6.69612e-07
-5.81474e-06
6.15288e-07
-6.36893e-06
5.54187e-07
-6.85813e-06
4.89209e-07
-7.28042e-06
4.22287e-07
-7.63538e-06
3.54957e-07
-7.92391e-06
2.88534e-07
-8.1474e-06
2.23483e-07
-8.30669e-06
1.59293e-07
-8.40279e-06
9.60981e-08
-8.43829e-06
3.54994e-08
-8.42007e-06
-1.82168e-08
-8.35419e-06
-6.58755e-08
-8.24427e-06
-1.0992e-07
-8.09191e-06
-1.52365e-07
-7.89779e-06
-1.94123e-07
-7.66237e-06
-2.35418e-07
-7.38606e-06
-2.76307e-07
-7.06937e-06
-3.16694e-07
-6.713e-06
-3.56368e-07
-6.31788e-06
-3.95116e-07
-5.8851e-06
-4.3278e-07
-5.41632e-06
-4.68787e-07
-4.91403e-06
-5.02284e-07
-4.38099e-06
-5.33047e-07
-3.82074e-06
-5.60241e-07
-3.23812e-06
-5.82629e-07
-2.63938e-06
-5.98734e-07
-2.03276e-06
-6.06621e-07
-1.42862e-06
-6.04137e-07
-8.38345e-07
-5.90279e-07
-2.6772e-07
-5.70625e-07
2.86247e-07
-5.53967e-07
8.22814e-07
-5.36567e-07
1.33257e-06
-5.09758e-07
1.8032e-06
-4.7063e-07
2.22611e-06
-4.22912e-07
2.59706e-06
-3.70943e-07
2.91519e-06
-3.18129e-07
3.18283e-06
-2.67642e-07
3.40235e-06
-2.19521e-07
3.57516e-06
-1.72812e-07
3.70359e-06
-1.28432e-07
3.79093e-06
-8.73349e-08
3.84073e-06
-4.9806e-08
3.85491e-06
-1.41734e-08
3.8396e-06
1.53019e-08
3.80081e-06
3.87965e-08
3.74562e-06
5.51904e-08
3.6789e-06
6.672e-08
3.60316e-06
7.57348e-08
3.52007e-06
8.30969e-08
3.43071e-06
8.93572e-08
3.33599e-06
9.47195e-08
3.23682e-06
9.91646e-08
3.13417e-06
1.0265e-07
3.02897e-06
1.05201e-07
2.92191e-06
1.07065e-07
2.81354e-06
1.08365e-07
2.7047e-06
1.08842e-07
2.59618e-06
1.08522e-07
2.48989e-06
1.06293e-07
2.38973e-06
1.00151e-07
2.30216e-06
8.75784e-08
2.23542e-06
6.67329e-08
2.1969e-06
3.85264e-08
2.19063e-06
6.26383e-09
2.20592e-06
-1.52825e-08
2.2212e-06
-1.52875e-08
2.20294e-06
1.82648e-08
2.12521e-06
7.77265e-08
1.97408e-06
1.51128e-07
1.73648e-06
2.37601e-07
1.40151e-06
3.3497e-07
9.57343e-07
4.44169e-07
3.9797e-07
5.59373e-07
-2.571e-07
6.5507e-07
-9.69712e-07
7.12612e-07
-1.68374e-06
7.1403e-07
-2.33796e-06
6.54218e-07
-2.87042e-06
5.32464e-07
-3.23049e-06
3.60069e-07
-3.3892e-06
1.58707e-07
-3.34563e-06
-4.35744e-08
-3.12203e-06
-2.23598e-07
-2.73704e-06
-3.84985e-07
-2.20979e-06
-5.2725e-07
-1.56758e-06
-6.42216e-07
-8.48052e-07
-7.19525e-07
-8.04642e-08
-7.67588e-07
7.03661e-07
-7.84125e-07
1.473e-06
-7.69336e-07
2.19439e-06
-7.21392e-07
2.83303e-06
-6.38637e-07
3.36436e-06
-5.31336e-07
3.77476e-06
-4.10403e-07
4.05552e-06
-2.80753e-07
4.17076e-06
-1.15239e-07
5.46108e-08
4.11615e-06
8.20373e-08
-1.44206e-07
1.84717e-07
-1.82346e-07
3.07188e-07
-2.17678e-07
4.49344e-07
-2.53318e-07
6.08325e-07
-2.86686e-07
7.79667e-07
-3.15626e-07
9.58986e-07
-3.38046e-07
1.14234e-06
-3.52504e-07
1.32624e-06
-3.58875e-07
1.50749e-06
-3.57652e-07
1.68303e-06
-3.49407e-07
1.84988e-06
-3.34512e-07
2.00533e-06
-3.13419e-07
2.14709e-06
-2.86938e-07
2.27337e-06
-2.56098e-07
2.3828e-06
-2.21896e-07
2.4745e-06
-1.85313e-07
2.54809e-06
-1.47315e-07
2.60378e-06
-1.08843e-07
2.6424e-06
-7.0795e-08
2.66558e-06
-3.40252e-08
2.67531e-06
1.10622e-09
2.67336e-06
3.38993e-08
2.65975e-06
6.45846e-08
2.63453e-06
9.25462e-08
2.59795e-06
1.17395e-07
2.55062e-06
1.38853e-07
2.49354e-06
1.56686e-07
2.42768e-06
1.7061e-07
2.35328e-06
1.80368e-07
2.27124e-06
1.8629e-07
2.18379e-06
1.8904e-07
2.0932e-06
1.89113e-07
2.00142e-06
1.86877e-07
1.91013e-06
1.82631e-07
1.82075e-06
1.76596e-07
1.73451e-06
1.6891e-07
1.65247e-06
1.59636e-07
1.57559e-06
1.4878e-07
1.50467e-06
1.36317e-07
1.44036e-06
1.22235e-07
1.38317e-06
1.06583e-07
1.3335e-06
8.95168e-08
1.29162e-06
7.13281e-08
1.25783e-06
5.24327e-08
1.23256e-06
3.33066e-08
1.21616e-06
1.44008e-08
1.20849e-06
-3.56796e-09
1.20946e-06
-2.01827e-08
1.21885e-06
-3.52164e-08
1.23648e-06
-4.86124e-08
1.26201e-06
-6.0451e-08
1.29438e-06
-7.09256e-08
1.33167e-06
-8.04255e-08
1.37244e-06
-8.93673e-08
1.41654e-06
-9.79351e-08
1.46398e-06
-1.06088e-07
1.51405e-06
-1.13249e-07
1.56491e-06
-1.17661e-07
1.61322e-06
-1.16114e-07
1.65414e-06
-1.04464e-07
1.68184e-06
-7.90621e-08
1.69088e-06
-3.89739e-08
1.67612e-06
1.26463e-08
1.63295e-06
6.87895e-08
1.55362e-06
1.18595e-07
1.43109e-06
1.57874e-07
1.24854e-06
2.05958e-07
9.7389e-07
3.00418e-07
5.74422e-07
4.60629e-07
3.3976e-08
6.69371e-07
-6.49205e-07
8.96221e-07
-1.45468e-06
1.11194e-06
-2.34844e-06
1.29936e-06
-3.2846e-06
1.4432e-06
-4.21638e-06
1.5325e-06
-5.10381e-06
1.56271e-06
-5.9168e-06
1.53694e-06
-6.63607e-06
1.46405e-06
-7.25253e-06
1.3561e-06
-7.76546e-06
1.22575e-06
-8.18021e-06
1.08436e-06
-8.50585e-06
9.4093e-07
-8.75319e-06
8.01529e-07
-8.9335e-06
6.69521e-07
-9.0575e-06
5.46284e-07
-9.13452e-06
4.31978e-07
-9.17207e-06
3.26081e-07
-9.17625e-06
2.27668e-07
-9.15228e-06
1.35321e-07
-9.10409e-06
4.79076e-08
-9.03331e-06
-3.52827e-08
-8.93555e-06
-1.1598e-07
-8.80502e-06
-1.96401e-07
-8.63842e-06
-2.76522e-07
-8.43475e-06
-3.56033e-07
-8.19385e-06
-4.35029e-07
-7.91584e-06
-5.13423e-07
-7.60094e-06
-5.91209e-07
-7.24943e-06
-6.682e-07
-6.8618e-06
-7.43996e-07
-6.43876e-06
-8.18159e-07
-5.98121e-06
-8.9033e-07
-5.49014e-06
-9.59853e-07
-4.96674e-06
-1.02569e-06
-4.41404e-06
-1.08574e-06
-3.83594e-06
-1.13834e-06
-3.23684e-06
-1.18173e-06
-2.62191e-06
-1.21366e-06
-1.99689e-06
-1.23164e-06
-1.36762e-06
-1.2334e-06
-7.39399e-07
-1.2185e-06
-1.19504e-07
-1.19052e-06
4.81515e-07
-1.15499e-06
1.05188e-06
-1.10693e-06
1.58672e-06
-1.0446e-06
2.08129e-06
-9.652e-07
2.53143e-06
-8.73053e-07
2.93627e-06
-7.75777e-07
3.29699e-06
-6.78848e-07
3.61357e-06
-5.84221e-07
3.88585e-06
-4.91802e-07
4.11415e-06
-4.01111e-07
4.29919e-06
-3.13472e-07
4.44217e-06
-2.30317e-07
4.5452e-06
-1.52835e-07
4.61381e-06
-8.27851e-08
4.65088e-06
-2.17655e-08
4.65352e-06
3.61507e-08
4.62477e-06
8.39469e-08
4.56781e-06
1.23672e-07
4.48775e-06
1.55804e-07
4.38962e-06
1.81223e-07
4.27788e-06
2.01097e-07
4.15628e-06
2.16321e-07
4.02785e-06
2.27593e-07
3.89503e-06
2.35466e-07
3.75985e-06
2.40383e-07
3.62411e-06
2.42809e-07
3.48917e-06
2.43302e-07
3.3556e-06
2.42418e-07
3.22397e-06
2.40144e-07
3.09504e-06
2.3523e-07
2.97038e-06
2.24807e-07
2.85397e-06
2.03995e-07
2.7543e-06
1.66401e-07
2.68481e-06
1.08011e-07
2.65453e-06
3.65475e-08
2.66294e-06
-2.36906e-08
2.68285e-06
-3.51962e-08
2.6746e-06
2.65077e-08
2.59275e-06
1.59578e-07
2.39644e-06
3.47436e-07
2.06221e-06
5.71837e-07
1.57452e-06
8.22653e-07
9.32033e-07
1.08666e-06
1.611e-07
1.33031e-06
-6.7864e-07
1.49481e-06
-1.50634e-06
1.54031e-06
-2.23997e-06
1.44767e-06
-2.81693e-06
1.23118e-06
-3.20781e-06
9.23345e-07
-3.41322e-06
5.65477e-07
-3.45296e-06
1.98448e-07
-3.34229e-06
-1.54243e-07
-3.07881e-06
-4.87085e-07
-2.66851e-06
-7.95284e-07
-2.12471e-06
-1.07105e-06
-1.46522e-06
-1.30171e-06
-7.10162e-07
-1.47458e-06
1.11918e-07
-1.58967e-06
9.564e-07
-1.62861e-06
1.7827e-06
-1.59564e-06
2.56325e-06
-1.50194e-06
3.26831e-06
-1.3437e-06
3.87151e-06
-1.13453e-06
4.3522e-06
-8.91099e-07
4.69798e-06
-6.26534e-07
4.89981e-06
-3.17068e-07
-1.86214e-08
4.97304e-06
9.30776e-08
-2.37283e-07
2.13244e-07
-3.02513e-07
3.55866e-07
-3.603e-07
5.18365e-07
-4.15817e-07
6.96132e-07
-4.64453e-07
8.83317e-07
-5.02811e-07
1.07461e-06
-5.29339e-07
1.26631e-06
-5.44204e-07
1.45541e-06
-5.47971e-07
1.63878e-06
-5.41024e-07
1.81316e-06
-5.23785e-07
1.97572e-06
-4.97078e-07
2.12446e-06
-4.62152e-07
2.25769e-06
-4.20168e-07
2.37393e-06
-3.72343e-07
2.47206e-06
-3.20027e-07
2.55143e-06
-2.64677e-07
2.61189e-06
-2.07779e-07
2.65383e-06
-1.50781e-07
2.67806e-06
-9.50305e-08
2.68577e-06
-4.17288e-08
2.67879e-06
8.08569e-09
2.65891e-06
5.37737e-08
2.62854e-06
9.49537e-08
2.5896e-06
1.31493e-07
2.54364e-06
1.63355e-07
2.4919e-06
1.90588e-07
2.43534e-06
2.1325e-07
2.37453e-06
2.3142e-07
2.30979e-06
2.45104e-07
2.24175e-06
2.54331e-07
2.17139e-06
2.59403e-07
2.09977e-06
2.60731e-07
2.02798e-06
2.58666e-07
1.95713e-06
2.5348e-07
1.88835e-06
2.45376e-07
1.82277e-06
2.34498e-07
1.76145e-06
2.2095e-07
1.7054e-06
2.04831e-07
1.65545e-06
1.86262e-07
1.61227e-06
1.65418e-07
1.57629e-06
1.4257e-07
1.54769e-06
1.18109e-07
1.52647e-06
9.25522e-08
1.51239e-06
6.65143e-08
1.50501e-06
4.06797e-08
1.5036e-06
1.58131e-08
1.50808e-06
-8.0491e-09
1.51804e-06
-3.01365e-08
1.53304e-06
-5.02188e-08
1.55277e-06
-6.8346e-08
1.57679e-06
-8.44675e-08
1.60428e-06
-9.8411e-08
1.63405e-06
-1.10203e-07
1.66501e-06
-1.20322e-07
1.69625e-06
-1.29181e-07
1.72669e-06
-1.3653e-07
1.75426e-06
-1.40815e-07
1.77519e-06
-1.38589e-07
1.78361e-06
-1.24531e-07
1.77168e-06
-9.25404e-08
1.73076e-06
-3.81391e-08
1.6524e-06
3.93839e-08
1.52996e-06
1.35092e-07
1.3574e-06
2.41342e-07
1.12094e-06
3.55058e-07
7.90423e-07
4.88389e-07
3.21881e-07
6.74501e-07
-3.09746e-07
9.32045e-07
-1.08955e-06
1.24043e-06
-1.97521e-06
1.55503e-06
-2.91574e-06
1.83675e-06
-3.86022e-06
2.05642e-06
-4.75775e-06
2.1969e-06
-5.56674e-06
2.25219e-06
-6.26088e-06
2.22664e-06
-6.83099e-06
2.13281e-06
-7.28232e-06
1.98827e-06
-7.63009e-06
1.81182e-06
-7.89439e-06
1.6204e-06
-8.0958e-06
1.42716e-06
-8.25228e-06
1.24084e-06
-8.3774e-06
1.06606e-06
-8.4801e-06
9.04223e-07
-8.56523e-06
7.54651e-07
-8.63454e-06
6.15602e-07
-8.68753e-06
4.84962e-07
-8.72213e-06
3.60682e-07
-8.73548e-06
2.41022e-07
-8.7248e-06
1.24639e-07
-8.68577e-06
8.883e-09
-8.61754e-06
-1.03516e-07
-8.51639e-06
-2.1713e-07
-8.38206e-06
-3.30733e-07
-8.21428e-06
-4.44305e-07
-8.01245e-06
-5.57859e-07
-7.77615e-06
-6.71326e-07
-7.50519e-06
-7.84389e-07
-7.19947e-06
-8.96924e-07
-6.85894e-06
-1.00874e-06
-6.48362e-06
-1.11931e-06
-6.07389e-06
-1.22788e-06
-5.6308e-06
-1.33343e-06
-5.15575e-06
-1.43491e-06
-4.65057e-06
-1.53087e-06
-4.11747e-06
-1.61884e-06
-3.55911e-06
-1.6967e-06
-2.97893e-06
-1.76191e-06
-2.38105e-06
-1.81155e-06
-1.77009e-06
-1.8426e-06
-1.15111e-06
-1.85238e-06
-5.30093e-07
-1.83952e-06
8.44502e-08
-1.80506e-06
6.79977e-07
-1.75051e-06
1.248e-06
-1.67496e-06
1.78205e-06
-1.57865e-06
2.27947e-06
-1.46262e-06
2.73791e-06
-1.33149e-06
3.15437e-06
-1.19224e-06
3.52584e-06
-1.05032e-06
3.8515e-06
-9.09879e-07
4.13484e-06
-7.75146e-07
4.37966e-06
-6.45933e-07
4.58827e-06
-5.22081e-07
4.76241e-06
-4.04459e-07
4.90359e-06
-2.9401e-07
5.01239e-06
-1.91591e-07
5.08844e-06
-9.78066e-08
5.1342e-06
-9.61096e-09
5.15372e-06
6.44247e-08
5.14523e-06
1.32164e-07
5.11044e-06
1.90595e-07
5.05117e-06
2.4049e-07
4.96991e-06
2.82359e-07
4.86938e-06
3.16851e-07
4.75235e-06
3.44621e-07
4.62163e-06
3.66187e-07
4.48009e-06
3.8192e-07
4.33072e-06
3.92178e-07
4.17662e-06
3.97407e-07
4.02097e-06
3.9806e-07
3.86686e-06
3.94263e-07
3.71686e-06
3.85226e-07
3.57317e-06
3.68499e-07
3.4382e-06
3.3896e-07
3.31601e-06
2.88592e-07
3.21331e-06
2.10712e-07
3.13796e-06
1.11894e-07
3.08916e-06
2.51182e-08
3.04853e-06
5.429e-09
2.97336e-06
1.01678e-07
2.81414e-06
3.188e-07
2.53059e-06
6.30988e-07
2.09946e-06
1.00296e-06
1.51538e-06
1.40674e-06
7.98203e-07
1.80384e-06
3.67914e-10
2.12814e-06
-8.06423e-07
2.3016e-06
-1.54643e-06
2.28032e-06
-2.16563e-06
2.06686e-06
-2.63707e-06
1.70262e-06
-2.95565e-06
1.24192e-06
-3.1238e-06
7.3363e-07
-3.13919e-06
2.13833e-07
-3.00453e-06
-2.88905e-07
-2.72296e-06
-7.68657e-07
-2.30262e-06
-1.21562e-06
-1.75114e-06
-1.62253e-06
-1.08113e-06
-1.97172e-06
-3.1194e-07
-2.24377e-06
5.15785e-07
-2.41739e-06
1.36929e-06
-2.48211e-06
2.21036e-06
-2.43671e-06
3.00433e-06
-2.29591e-06
3.72712e-06
-2.06648e-06
4.36149e-06
-1.7689e-06
4.89515e-06
-1.42476e-06
5.32201e-06
-1.05339e-06
5.63705e-06
-6.32106e-07
-2.01849e-07
5.82028e-06
1.06522e-07
-3.43805e-07
2.46246e-07
-4.42237e-07
4.10777e-07
-5.2483e-07
5.93354e-07
-5.98394e-07
7.86644e-07
-6.57744e-07
9.84485e-07
-7.00652e-07
1.1827e-06
-7.27552e-07
1.37836e-06
-7.39867e-07
1.56861e-06
-7.38218e-07
1.75049e-06
-7.22909e-07
1.92126e-06
-6.94552e-07
2.07856e-06
-6.54383e-07
2.22009e-06
-6.03674e-07
2.34366e-06
-5.43741e-07
2.44753e-06
-4.7621e-07
2.53051e-06
-4.03007e-07
2.59208e-06
-3.26248e-07
2.63241e-06
-2.48116e-07
2.65237e-06
-1.70733e-07
2.65337e-06
-9.60361e-08
2.6373e-06
-2.56609e-08
2.60626e-06
3.91326e-08
2.56255e-06
9.74774e-08
2.50856e-06
1.48949e-07
2.44657e-06
1.93478e-07
2.37868e-06
2.31251e-07
2.30673e-06
2.62531e-07
2.23259e-06
2.87392e-07
2.15773e-06
3.06282e-07
2.08306e-06
3.19773e-07
2.0093e-06
3.2809e-07
1.93713e-06
3.31575e-07
1.8671e-06
3.30758e-07
1.79974e-06
3.2603e-07
1.73558e-06
3.17633e-07
1.67527e-06
3.05692e-07
1.61951e-06
2.90256e-07
1.56909e-06
2.71373e-07
1.52476e-06
2.49159e-07
1.48719e-06
2.23829e-07
1.4569e-06
1.95711e-07
1.4342e-06
1.6527e-07
1.41919e-06
1.33123e-07
1.41175e-06
9.99898e-08
1.41166e-06
6.66004e-08
1.41861e-06
3.37376e-08
1.43239e-06
2.02349e-09
1.45221e-06
-2.78621e-08
1.47756e-06
-5.54846e-08
1.50813e-06
-8.07973e-08
1.54348e-06
-1.03696e-07
1.58266e-06
-1.23648e-07
1.6238e-06
-1.39543e-07
1.66435e-06
-1.50756e-07
1.70194e-06
-1.57911e-07
1.73406e-06
-1.61299e-07
1.75725e-06
-1.59718e-07
1.7662e-06
-1.49767e-07
1.75337e-06
-1.25755e-07
1.70924e-06
-8.04067e-08
1.62343e-06
-6.72606e-09
1.48564e-06
9.96488e-08
1.28834e-06
2.36688e-07
1.02378e-06
3.99647e-07
6.78446e-07
5.86676e-07
2.22004e-07
8.11501e-07
-3.82703e-07
1.0931e-06
-1.14379e-06
1.43559e-06
-2.02086e-06
1.80911e-06
-2.94703e-06
2.1666e-06
-3.85669e-06
2.4647e-06
-4.69398e-06
2.67403e-06
-5.41815e-06
2.78059e-06
-6.00698e-06
2.78573e-06
-6.45805e-06
2.70325e-06
-6.78596e-06
2.55456e-06
-7.0165e-06
2.36335e-06
-7.1793e-06
2.15108e-06
-7.30163e-06
1.93415e-06
-7.40427e-06
1.72304e-06
-7.50013e-06
1.52302e-06
-7.5949e-06
1.33561e-06
-7.68898e-06
1.16014e-06
-7.77958e-06
9.94819e-07
-7.86245e-06
8.37527e-07
-7.93307e-06
6.8622e-07
-7.98724e-06
5.39126e-07
-8.02136e-06
3.94808e-07
-8.03249e-06
2.52148e-07
-8.01809e-06
1.10243e-07
-7.97743e-06
-3.17811e-08
-7.90719e-06
-1.73752e-07
-7.80744e-06
-3.16885e-07
-7.67713e-06
-4.61035e-07
-7.51548e-06
-6.0596e-07
-7.32179e-06
-7.51542e-07
-7.09552e-06
-8.976e-07
-6.83627e-06
-1.04364e-06
-6.54414e-06
-1.18905e-06
-6.21954e-06
-1.33335e-06
-5.86305e-06
-1.4758e-06
-5.4755e-06
-1.61544e-06
-5.05779e-06
-1.75114e-06
-4.61102e-06
-1.88167e-06
-4.13661e-06
-2.00528e-06
-3.63596e-06
-2.1195e-06
-3.11109e-06
-2.22157e-06
-2.56472e-06
-2.30827e-06
-2.00025e-06
-2.37602e-06
-1.42171e-06
-2.42115e-06
-8.33896e-07
-2.44019e-06
-2.4273e-07
-2.43069e-06
3.43697e-07
-2.39149e-06
9.1561e-07
-2.32243e-06
1.46483e-06
-2.22418e-06
1.98479e-06
-2.09861e-06
2.4712e-06
-1.94903e-06
2.92081e-06
-1.7811e-06
3.33019e-06
-1.60162e-06
3.6962e-06
-1.41633e-06