/*--------------------------------*- C++ -*----------------------------------*\
| =========                 |                                                 |
| \\      /  F ield         | OpenFOAM: The Open Source CFD Toolbox           |
|  \\    /   O peration     | Version:  2112                                  |
|   \\  /    A nd           | Website:  www.openfoam.com                      |
|    \\/     M anipulation  |                                                 |
\*---------------------------------------------------------------------------*/
FoamFile
{
    version     2.0;
    format      ascii;
    arch        "LSB;label=32;scalar=64";
    class       volScalarField;
    location    "0.19";
    object      kU;
}
// * * * * * * * * * * * * * * * * * * * * * * * * * * * * * * * * * * * * * //

dimensions      [0 2 -2 0 0 0 0];

internalField   nonuniform List<scalar> 
12225
(
0.173104
0.196471
0.187755
0.173275
0.162995
0.154028
0.145952
0.138718
0.132346
0.126856
0.122247
0.118495
0.115552
0.113342
0.11174
0.110571
0.10943
0.107942
0.0262411
0.0156966
0.0100672
0.00737837
0.0060721
0.00532949
0.00482134
0.00441931
0.00407113
0.00375488
0.00346161
0.00318828
0.00293508
0.0027057
0.00250897
0.00237638
0.00236745
0.00272914
0.0325825
0.0269758
0.0222362
0.0184746
0.0155246
0.0132033
0.011364
0.00989792
0.00872557
0.00778759
0.00703856
0.00644292
0.00597208
0.0056025
0.00531388
0.00508614
0.00489495
0.00470728
0.0344756
0.0310728
0.0278918
0.0250732
0.0226345
0.020548
0.0187709
0.0172594
0.0159736
0.0148794
0.0139475
0.0131531
0.0124745
0.0118928
0.0113908
0.0109515
0.0105576
0.0101983
0.0350998
0.0325414
0.0300994
0.0278481
0.0258145
0.0239997
0.0223917
0.0209722
0.0197215
0.0186206
0.0176515
0.0167982
0.016046
0.0153822
0.0147951
0.0142737
0.0138075
0.0133936
0.0353326
0.0331528
0.0310971
0.029187
0.0274333
0.0258373
0.0243937
0.0230929
0.0219236
0.0208739
0.0199323
0.0190877
0.0183304
0.0176515
0.0170422
0.0164926
0.0159977
0.015558
0.0354172
0.0334069
0.0315536
0.0298457
0.0282765
0.0268398
0.0255286
0.0243347
0.0232492
0.0222636
0.021369
0.0205576
0.0198221
0.0191547
0.0185476
0.0179954
0.0174944
0.0170457
0.0354456
0.0335048
0.0317491
0.0301519
0.0286945
0.0273634
0.0261472
0.0250361
0.0240211
0.0230939
0.022247
0.0214737
0.020767
0.02012
0.0195277
0.0189855
0.0184902
0.0180428
0.0354543
0.0335389
0.0318246
0.0302806
0.0288831
0.0276137
0.0264576
0.0254026
0.0244385
0.0235564
0.0227487
0.0220082
0.0213283
0.0207035
0.0201291
0.0196009
0.0191159
0.0186748
0.0354567
0.0335494
0.0318503
0.0303283
0.0289583
0.0277198
0.0265963
0.025574
0.0246413
0.0237887
0.0230076
0.0222907
0.0216317
0.0210251
0.0204663
0.019951
0.0194761
0.0190422
0.0354573
0.0335522
0.0318577
0.0303434
0.028984
0.0277586
0.0266499
0.0256435
0.0247271
0.0238904
0.0231246
0.0224221
0.0217764
0.0211819
0.0206337
0.0201277
0.0196603
0.0192321
0.0354574
0.0335528
0.0318593
0.0303469
0.0289905
0.0277693
0.0266657
0.025665
0.0247549
0.0239248
0.0231655
0.0224695
0.0218301
0.0212415
0.0206987
0.0201974
0.0197341
0.0193089
0.0354575
0.0335528
0.0318594
0.0303474
0.0289917
0.0277716
0.0266696
0.0256709
0.0247631
0.0239355
0.023179
0.0224857
0.021849
0.021263
0.0207227
0.0202235
0.0197619
0.019338
0.0354574
0.0335527
0.0318591
0.0303468
0.028991
0.0277708
0.0266689
0.0256704
0.0247629
0.0239358
0.0231798
0.0224872
0.0218511
0.0212657
0.0207258
0.020227
0.0197655
0.0193416
0.0354574
0.0335526
0.0318587
0.0303461
0.0289897
0.027769
0.0266665
0.0256675
0.0247594
0.0239317
0.0231752
0.0224819
0.0218453
0.0212592
0.0207186
0.020219
0.0197566
0.0193317
0.0354574
0.0335525
0.0318584
0.0303453
0.0289885
0.0277671
0.0266638
0.025664
0.024755
0.0239263
0.0231687
0.0224745
0.0218366
0.0212494
0.0207075
0.0202066
0.0197429
0.0193166
0.0354574
0.0335524
0.0318581
0.0303447
0.0289873
0.0277652
0.0266612
0.0256604
0.0247504
0.0239206
0.0231619
0.0224663
0.0218272
0.0212385
0.0206952
0.0201928
0.0197275
0.0192998
0.0354574
0.0335524
0.0318579
0.0303441
0.0289862
0.0277635
0.0266587
0.025657
0.0247459
0.023915
0.023155
0.0224581
0.0218176
0.0212275
0.0206827
0.0201788
0.019712
0.0192827
0.0354575
0.0335524
0.0318578
0.0303437
0.0289854
0.0277621
0.0266565
0.0256539
0.0247418
0.0239097
0.0231485
0.0224503
0.0218084
0.0212169
0.0206707
0.0201653
0.019697
0.0192663
0.0354575
0.0335524
0.0318578
0.0303436
0.0289851
0.0277614
0.0266553
0.0256521
0.0247393
0.0239064
0.0231442
0.022445
0.021802
0.0212093
0.0206619
0.0201552
0.0196856
0.0192536
0.0354575
0.0335525
0.0318579
0.0303437
0.0289851
0.0277613
0.0266548
0.0256511
0.0247376
0.0239038
0.0231406
0.0224402
0.0217958
0.0212017
0.0206526
0.0201441
0.0196727
0.0192387
0.0354575
0.0335525
0.0318579
0.0303435
0.0289844
0.0277597
0.026652
0.0256464
0.0247306
0.023894
0.0231274
0.0224232
0.0217745
0.0211755
0.0206212
0.0201072
0.0196298
0.0191896
0.0354574
0.0335518
0.0318558
0.0303388
0.0289756
0.0277451
0.0266298
0.0256151
0.0246887
0.0238401
0.0230604
0.022342
0.0216783
0.0210637
0.0204931
0.0199624
0.0194679
0.0190103
0.0354559
0.033545
0.0318385
0.0303051
0.0289195
0.0276617
0.0265152
0.0254662
0.0245036
0.0236175
0.0227997
0.0220431
0.0213413
0.020689
0.0200813
0.0195141
0.0189838
0.0184914
0.0354451
0.0335026
0.0317433
0.03014
0.028673
0.0273275
0.0260914
0.024954
0.023906
0.0229388
0.0220445
0.021216
0.0204469
0.0197314
0.0190644
0.0184412
0.0178581
0.0173154
0.0353849
0.0333023
0.0313534
0.0295391
0.02786
0.0263138
0.0248946
0.0235942
0.0224028
0.0213102
0.0203065
0.0193822
0.0185285
0.0177378
0.0170031
0.0163183
0.0156786
0.0150829
0.0351164
0.0325469
0.0300613
0.0277438
0.0256295
0.0237242
0.0220171
0.0204896
0.0191211
0.017891
0.0167806
0.0157728
0.0148528
0.0140079
0.0132276
0.0125029
0.0118268
0.011196
0.0340447
0.0298298
0.0258651
0.0224208
0.0195176
0.0170915
0.0150594
0.0133441
0.0118825
0.0106247
0.00953168
0.00857273
0.00772374
0.00696617
0.00628626
0.00567402
0.00512222
0.00462564
0.030007
0.0202038
0.0132863
0.009285
0.00710203
0.00588185
0.00515053
0.00467267
0.00433377
0.00407752
0.0038765
0.00372998
0.00363829
0.00357833
0.00353364
0.00349371
0.00345064
0.0033999
0.146335
0.179824
0.181165
0.172871
0.162236
0.151474
0.141172
0.131434
0.122242
0.113533
0.105242
0.098243
0.0928609
0.0878154
0.0827909
0.0777115
0.0725644
0.0673815
0.00555119
0.00370556
0.003835
0.0045494
0.00544316
0.00631263
0.00695318
0.00710752
0.0067654
0.00597605
0.00498819
0.00472287
0.00778452
0.0146503
0.0234311
0.033544
0.0444227
0.0555026
0.0662488
0.0761837
0.084906
0.0921007
0.0975443
0.101106
0.102743
0.102499
0.100495
0.0969148
0.0920013
0.0861249
0.079878
0.0734236
0.0669121
0.060478
0.0542355
0.0482772
0.042674
0.037477
0.0327192
0.0284185
0.0245805
0.021202
0.0182746
0.0157889
0.0137229
0.0118019
0.0100321
0.00846392
0.00717713
0.00632337
0.00626048
0.00733818
0.00897918
0.0109814
0.0134805
0.0166325
0.020338
0.0245474
0.0291508
0.0338583
0.0379806
0.0403001
0.039625
0.0364027
0.0315947
0.026351
0.0216481
0.0180308
0.0156215
0.0141026
0.0130459
0.0122801
0.0117923
0.0116482
0.0118846
0.0126723
0.0141545
0.0163446
0.0186819
0.0206833
0.0219443
0.0219608
0.0202411
0.0173862
0.016199
0.0241336
0.0449031
0.0685462
0.0915182
0.111845
0.128439
0.140783
0.148732
0.152371
0.151938
0.147785
0.140341
0.130388
0.118899
0.106291
0.0930339
0.079631
0.0665902
0.0543845
0.0434088
0.0339424
0.0261298
0.0199898
0.0154879
0.0117319
0.00851511
0.0062028
0.00601018
0.00872123
0.0122432
0.016967
0.0232355
0.0306623
0.038971
0.0478635
0.057017
0.0660987
0.074787
0.0827785
0.0897852
0.0956593
0.0999995
0.101352
0.0994762
0.0945677
0.0869668
0.0772281
0.0661177
0.0545456
0.0434399
0.0335845
0.0254814
0.0193476
0.0156005
0.0133236
0.011892
0.0110307
0.0105638
0.0103494
0.0102689
0.0102342
0.0101965
0.0101322
0.010051
0.00998004
0.00995567
0.00998923
0.010104
0.0103035
0.0105756
0.0108999
0.0112551
0.0116219
0.0119846
0.012332
0.0126565
0.0129499
0.0131971
0.0133617
0.0134036
0.0133754
0.0133587
0.0135653
0.0144742
0.0163557
0.0177449
0.0150558
0.0103067
0.0215269
0.0380585
0.048752
0.0513498
0.0464416
0.0369425
0.0274138
0.0149551
0.00175295
0.000721109
0.000650396
0.000704122
0.000977581
0.00154107
0.00239981
0.00311511
0.0038523
0.00474973
0.00595727
0.00757771
0.00944879
0.0113139
0.0130207
0.0144567
0.0155541
0.016291
0.016687
0.0167945
0.0166863
0.0164425
0.0161375
0.0158311
0.0155689
0.0153962
0.0153785
0.0156129
0.0160977
0.0165333
0.0169164
0.0172446
0.0175132
0.0177165
0.0178484
0.0179029
0.0178757
0.0177637
0.0175668
0.0172871
0.0169299
0.0165028
0.0160148
0.0154749
0.0148905
0.014273
0.0136346
0.0129874
0.0123421
0.0117088
0.0111552
0.0106392
0.0101328
0.009631
0.0091291
0.00862278
0.00811147
0.00759949
0.00709563
0.00662502
0.00629611
0.00639145
0.00639489
0.00607141
0.00541804
0.00455094
0.00361687
0.00274432
0.00201663
0.00145796
0.00103464
0.000703709
0.000457437
0.000358496
0.000372575
0.000451527
0.000592735
0.000826027
0.00123608
0.00204123
0.00366788
0.00602001
0.00794161
0.00948609
0.0118377
0.0143374
0.0156825
0.0157677
0.0148634
0.0133492
0.0115871
0.00987303
0.00842655
0.00738896
0.00682936
0.00682111
0.00726187
0.00768018
0.00807499
0.00844569
0.00879154
0.00911087
0.00939994
0.00965195
0.00985688
0.0100025
0.0100764
0.0100658
0.00994387
0.00969449
0.00931423
0.00888885
0.00849999
0.00807382
0.00761932
0.00714677
0.00665933
0.00616024
0.00565338
0.00514395
0.00463903
0.00414773
0.0036805
0.00324895
0.00287771
0.00269196
0.00325904
0.00424419
0.00525402
0.00604625
0.00648341
0.00651104
0.00615261
0.00549811
0.00467664
0.00381884
0.0030266
0.00236891
0.00184073
0.00141876
0.00108564
0.000831221
0.000648548
0.000529809
0.000461234
0.000422582
0.000400525
0.000380099
0.000352234
0.000314591
0.000285701
0.000265007
0.000251237
0.000242965
0.000238843
0.000237711
0.000238623
0.000240849
0.000243846
0.000247225
0.000250677
0.000254075
0.000260164
0.000277245
0.00028065
0.000272615
0.000288797
0.000370982
0.000657172
0.0015893
0.00331947
0.00400574
0.00515949
0.00493291
0.00339027
0.00176188
0.000935902
0.000916301
0.000913293
0.016529
0.00126337
0.00124894
0.00144227
0.00172756
0.00204776
0.00247482
0.002987
0.00354159
0.00415758
0.00485583
0.0056441
0.00650314
0.0073848
0.00825399
0.0091041
0.00994338
0.0107855
0.0116389
0.0124985
0.0133441
0.0141458
0.0148742
0.0155104
0.016052
0.0165119
0.0169116
0.0172709
0.0176016
0.0179388
0.0182815
0.0186213
0.0189469
0.0192451
0.0195022
0.0197049
0.0198406
0.0198981
0.0198683
0.0197444
0.0195229
0.0192042
0.018793
0.0182979
0.0177314
0.0171081
0.016444
0.0157547
0.0150546
0.0143547
0.0136774
0.0130842
0.0125313
0.0120117
0.011522
0.011057
0.0106096
0.0101712
0.00973415
0.00929319
0.00884286
0.00836511
0.00781702
0.00712148
0.00624381
0.00527734
0.00435303
0.00350345
0.00273284
0.00204082
0.00143879
0.000950555
0.000598626
0.000386785
0.00029728
0.00030656
0.000383769
0.000528755
0.000797651
0.0013635
0.0023881
0.00366801
0.00459645
0.00505904
0.00536488
0.005594
0.0055734
0.00531415
0.00505235
0.00496406
0.00509681
0.00538811
0.00572929
0.00603469
0.00627205
0.00645131
0.00659808
0.00675675
0.00693882
0.00714336
0.00736835
0.0076104
0.00786417
0.00812164
0.00837183
0.00860095
0.00879386
0.00893647
0.00901836
0.00903414
0.00898268
0.00886701
0.00872442
0.00855862
0.00836771
0.00815461
0.00792072
0.00766713
0.00739547
0.00710797
0.00680736
0.00649664
0.00617876
0.00585638
0.00553116
0.00520384
0.00487156
0.00451699
0.00410119
0.00362601
0.00312051
0.00263602
0.00221532
0.00186852
0.00157914
0.00132586
0.00109672
0.000890074
0.000709334
0.000556069
0.000429729
0.000328597
0.000250157
0.000191221
0.000148196
0.000117435
9.55538e-05
7.96913e-05
6.75203e-05
5.73813e-05
4.83818e-05
4.04425e-05
3.35737e-05
2.78002e-05
2.31049e-05
1.94284e-05
1.66825e-05
1.4757e-05
1.35256e-05
1.28629e-05
1.2676e-05
1.29344e-05
1.3653e-05
1.48906e-05
1.68226e-05
1.99774e-05
2.72774e-05
5.17651e-05
0.000124384
0.000342192
0.000986021
0.00182875
0.00181467
0.00149566
0.000945611
0.00064366
0.000628148
0.000678283
0.000732647
0.000798287
0.00920417
0.00199428
0.00221596
0.00234559
0.00254445
0.00284748
0.00324166
0.00371503
0.00426378
0.00489569
0.00561787
0.00643181
0.00733188
0.00830728
0.00934517
0.0104255
0.0115151
0.0125678
0.0135315
0.0143591
0.0150202
0.0155084
0.0158428
0.0160611
0.0162081
0.0163231
0.0164334
0.0165526
0.0166982
0.0168997
0.0171503
0.0174389
0.0177524
0.0180767
0.0183968
0.0186972
0.0189619
0.0191745
0.0193179
0.0193758
0.0193334
0.0191799
0.0189104
0.0185279
0.0180422
0.0174691
0.0168275
0.0161366
0.015413
0.0146689
0.0139722
0.0133291
0.0127201
0.0121466
0.0116111
0.0111149
0.0106579
0.0102373
0.00984597
0.00947028
0.00909111
0.00869012
0.00825783
0.00779048
0.00726131
0.00659272
0.00572367
0.0047729
0.00385062
0.00300802
0.00226086
0.001627
0.00113278
0.000793445
0.000599398
0.000528618
0.000576811
0.000757582
0.0011769
0.00186232
0.00260373
0.003071
0.00327911
0.00333285
0.00333836
0.00335591
0.00343111
0.00363115
0.00396672
0.00436027
0.00470811
0.00494396
0.00506224
0.0051006
0.00510641
0.00511405
0.00514198
0.00520423
0.00529965
0.00542654
0.00558345
0.00576866
0.0059793
0.00621018
0.00645274
0.00669453
0.00692014
0.00711411
0.00726459
0.00736636
0.00741953
0.00743131
0.00741632
0.00737928
0.00732189
0.00724416
0.0071453
0.00702485
0.00688334
0.00672229
0.00654409
0.0063517
0.00614833
0.00593709
0.00572076
0.00550129
0.00527948
0.00505231
0.00480118
0.0045049
0.00414952
0.00373372
0.00327402
0.00279991
0.00234304
0.00192771
0.00156698
0.00126399
0.00101545
0.000814844
0.000654623
0.000527521
0.000427107
0.000347966
0.000285704
0.000236835
0.000198628
0.000168927
0.000146021
0.000128553
0.000115457
0.000105898
9.91981e-05
9.47811e-05
9.2137e-05
9.08092e-05
9.03922e-05
9.05346e-05
9.09371e-05
9.13338e-05
9.14475e-05
9.0936e-05
8.93963e-05
8.64923e-05
8.22163e-05
7.76751e-05
7.7191e-05
9.15199e-05
0.000150585
0.000348707
0.000816142
0.00112856
0.000871703
0.000566448
0.000434534
0.000475684
0.000528531
0.000559706
0.000606597
0.000675282
0.0049312
0.00267243
0.0030598
0.00316173
0.00337938
0.00372185
0.00417806
0.00474453
0.00542316
0.00621673
0.00712276
0.0081293
0.00921186
0.0103318
0.0114365
0.0124633
0.0133482
0.0140388
0.0145068
0.0147538
0.0148103
0.0147264
0.0145593
0.0143613
0.0141728
0.0140208
0.0139207
0.0138796
0.0139257
0.0140622
0.014278
0.0145609
0.0148979
0.0152764
0.0156837
0.0161074
0.0165338
0.0169472
0.0173274
0.0176492
0.0178844
0.0180051
0.0179894
0.0178265
0.0175193
0.0170832
0.0165411
0.0159183
0.0152356
0.0145242
0.0138579
0.0132099
0.0125832
0.0119835
0.0114159
0.0108841
0.0103901
0.00993422
0.00951493
0.00912717
0.00875984
0.00839423
0.00801044
0.00760238
0.00717965
0.00673546
0.00620525
0.00550286
0.00467457
0.00382445
0.00302726
0.0023233
0.00174265
0.00130836
0.00102506
0.000877932
0.000884152
0.00111767
0.00155314
0.0020083
0.00229505
0.00242033
0.00246458
0.00249628
0.00259238
0.00279905
0.00311666
0.00349084
0.00382675
0.00404372
0.00411807
0.00408067
0.00398662
0.00388508
0.00380629
0.00376388
0.00376225
0.00379728
0.00386411
0.00396138
0.00408893
0.00424724
0.00443654
0.00465526
0.00489825
0.0051554
0.00541169
0.00565027
0.00585669
0.00602314
0.00614939
0.00623743
0.00630352
0.00635104
0.00637959
0.00638718
0.0063717
0.00633195
0.00626805
0.00618133
0.00607405
0.00594909
0.00580965
0.00565913
0.00550083
0.00533763
0.00517157
0.00500304
0.00482761
0.00463657
0.0044193
0.00416502
0.0038676
0.00352992
0.00316475
0.00279109
0.00242834
0.00209164
0.00178996
0.00152654
0.00130052
0.00110864
0.000946685
0.000810436
0.000696148
0.000600716
0.000521609
0.000456704
0.00040414
0.000362215
0.000329328
0.000303947
0.000284618
0.000269977
0.000258772
0.000249892
0.000242396
0.000235527
0.000228722
0.000221586
0.000213824
0.000205148
0.000195222
0.00018364
0.000169931
0.000154453
0.000141638
0.000142802
0.000188129
0.000360019
0.000675898
0.000714092
0.000465058
0.000331081
0.000354715
0.000404739
0.000417071
0.000433935
0.000473408
0.000538182
0.0155438
0.00305636
0.00373742
0.00392006
0.00421738
0.00466711
0.0052623
0.00599746
0.00686479
0.00784816
0.00891782
0.0100273
0.0111136
0.0121027
0.0129207
0.0135073
0.0138294
0.0138871
0.0137126
0.0133612
0.012899
0.0123906
0.0118905
0.0114396
0.0110654
0.0107847
0.0106061
0.0105318
0.0105808
0.0107287
0.0109617
0.0112667
0.0116314
0.0120452
0.0125001
0.0129913
0.0135163
0.0140713
0.0146456
0.015216
0.0157449
0.016185
0.0164891
0.016621
0.0165657
0.0163323
0.0159461
0.0154391
0.0148406
0.0142272
0.0136129
0.0129968
0.0123871
0.011791
0.0112149
0.0106642
0.010142
0.00964923
0.00918455
0.00874578
0.00833017
0.00793277
0.00754467
0.0071578
0.00677513
0.00640651
0.00603501
0.00558523
0.00497957
0.00425924
0.00351646
0.00282542
0.0022304
0.00175963
0.00142953
0.00124971
0.0012443
0.0014192
0.00166907
0.00185188
0.00193626
0.00198626
0.00204708
0.00217548
0.00240972
0.00273416
0.00307841
0.00334933
0.00348105
0.00346627
0.00334723
0.00318341
0.00302358
0.0028954
0.00280937
0.00276686
0.00276594
0.00279655
0.00285335
0.00293533
0.00304334
0.00317978
0.00334778
0.00354954
0.00378408
0.00404486
0.00431869
0.00458853
0.00483754
0.00505547
0.00523069
0.0053784
0.00550788
0.00561957
0.00571107
0.00577902
0.00582079
0.00583535
0.0058233
0.00578642
0.00572705
0.00564769
0.00555084
0.00543899
0.0053148
0.00518113
0.00504092
0.00489674
0.00474988
0.00459835
0.00443669
0.00425768
0.00405415
0.00382151
0.00356007
0.00327576
0.00297884
0.0026812
0.00239365
0.00212418
0.00187743
0.00165524
0.0014575
0.00128307
0.00113042
0.000997978
0.000884209
0.000787603
0.000706596
0.000639523
0.000584617
0.000540029
0.000503894
0.000474407
0.000449888
0.00042885
0.000410034
0.000392431
0.000375274
0.000358008
0.000340219
0.000321543
0.000301584
0.000279795
0.000255287
0.000227908
0.00020204
0.000188932
0.000219003
0.000357711
0.000547727
0.000466352
0.00029125
0.000264785
0.000312548
0.000326047
0.000317397
0.000326111
0.000358034
0.000415742
0.0285592
0.00321207
0.00421624
0.00454441
0.00497752
0.00558862
0.00636923
0.00729997
0.00834854
0.00946472
0.0105787
0.0116056
0.0124567
0.0130563
0.0133564
0.0133461
0.0130514
0.0125272
0.0118458
0.0110835
0.0103099
0.00958151
0.00893919
0.00840936
0.00800681
0.00773752
0.00760089
0.00759116
0.00770112
0.0078992
0.00817237
0.00850754
0.00889107
0.00931014
0.00975585
0.0102273
0.0107341
0.0112946
0.0119249
0.0126236
0.01336
0.0140754
0.0146955
0.0151478
0.0153831
0.0153938
0.0151986
0.0148354
0.0143682
0.0138563
0.0133116
0.0127488
0.0121782
0.0116077
0.0110434
0.0104907
0.00995318
0.00943236
0.00892722
0.00843634
0.00796085
0.00750538
0.00707477
0.00667048
0.00629406
0.00595247
0.00564453
0.00532761
0.00491021
0.00435827
0.00372741
0.00310116
0.00253779
0.00206842
0.00171104
0.00148853
0.00143523
0.00151262
0.00159235
0.00163404
0.00167211
0.00173802
0.00186693
0.00208964
0.00239318
0.00271073
0.00295244
0.00305389
0.00300722
0.00285441
0.00265627
0.00246344
0.00230454
0.00218976
0.00211928
0.00208953
0.00209627
0.0021276
0.00217852
0.00224835
0.00233865
0.00245322
0.00259744
0.00277671
0.00299406
0.00324701
0.0035255
0.00381346
0.00409271
0.00433982
0.00455466
0.00475065
0.0049293
0.0050885
0.00522395
0.00533162
0.00540948
0.00545804
0.00547977
0.00547799
0.00545586
0.00541569
0.00535877
0.00528561
0.00519648
0.00509205
0.00497401
0.00484519
0.00470959
0.00456968
0.00442485
0.00427223
0.00410747
0.00392615
0.00372539
0.00350513
0.00326842
0.00302089
0.00276948
0.00252107
0.00228151
0.00205519
0.00184497
0.00165252
0.00147866
0.00132358
0.00118701
0.00106829
0.000966348
0.000879801
0.000806977
0.000746018
0.000694983
0.000651954
0.000615132
0.000582903
0.000553877
0.000526903
0.000501051
0.00047558
0.000449871
0.000423345
0.000395371
0.000365072
0.000331096
0.00029307
0.000255345
0.000228658
0.000242558
0.00034398
0.000440443
0.000317903
0.000214604
0.000235508
0.0002673
0.000253219
0.000235273
0.000237967
0.000263025
0.000312549
0.0412051
0.00318881
0.00449951
0.0050075
0.00560567
0.00640175
0.00737886
0.00849314
0.00967585
0.0108336
0.0118575
0.0126421
0.0131073
0.0132139
0.0129685
0.0124173
0.0116341
0.0107059
0.00971982
0.00875224
0.00786283
0.00709226
0.00646365
0.00598606
0.00565858
0.00547423
0.00542284
0.00549292
0.0056615
0.00590659
0.00621972
0.00658969
0.00700083
0.00743322
0.0078662
0.00828719
0.00870295
0.00914884
0.00968002
0.0103409
0.0111324
0.0120027
0.0128622
0.0136022
0.0141233
0.0143895
0.0144004
0.0142062
0.0138816
0.0134701
0.0130027
0.0125011
0.0119792
0.0114458
0.0109069
0.0103664
0.00982694
0.00928902
0.00875062
0.00820986
0.00767003
0.00714334
0.0066478
0.00619871
0.00580403
0.00546824
0.00519122
0.00494448
0.00465309
0.00424795
0.00373975
0.003196
0.00268083
0.00222992
0.00186262
0.00161247
0.00150609
0.00147908
0.0014518
0.00145079
0.00149863
0.0016087
0.00180328
0.00207846
0.00238029
0.00262349
0.00273712
0.00270124
0.00254924
0.00234086
0.0021307
0.00195183
0.00181661
0.00172548
0.00167412
0.00165713
0.00166948
0.00169956
0.00174324
0.00180016
0.00187248
0.00196498
0.00208463
0.00223921
0.0024349
0.0026729
0.00294689
0.0032423
0.00353133
0.00379581
0.00404387
0.00427544
0.00448829
0.00467724
0.00483625
0.00496139
0.00505257
0.0051133
0.00514927
0.00516652
0.00517004
0.00516289
0.0051458
0.00511737
0.00507463
0.00501413
0.00493345
0.00483242
0.00471384
0.00458276
0.00444312
0.00429686
0.00414368
0.00398166
0.00380837
0.00362205
0.00342253
0.00321146
0.00299213
0.00276881
0.00254612
0.00232845
0.00211962
0.00192272
0.0017401
0.00157337
0.00142345
0.00129057
0.00117433
0.00107381
0.000987626
0.000914108
0.00085142
0.000797693
0.000751131
0.00071009
0.000673117
0.000638964
0.000606574
0.00057504
0.000543542
0.000511266
0.000477283
0.000440273
0.000398373
0.000351195
0.000303097
0.000264158
0.000260694
0.000323697
0.000354362
0.000229461
0.00017715
0.00021295
0.000222417
0.000192659
0.000170273
0.000168712
0.000188332
0.000230202
0.0520212
0.00302542
0.00462143
0.00531268
0.00607234
0.00704337
0.00819763
0.0094612
0.0107231
0.0118473
0.012699
0.0131773
0.013236
0.0128875
0.0121919
0.0112397
0.0101342
0.00897663
0.00785485
0.00683573
0.00596253
0.0052561
0.0047192
0.0043424
0.00410997
0.00400501
0.00401321
0.00412613
0.00432156
0.00459144
0.0049321
0.00533553
0.00578755
0.00626486
0.00673295
0.00715469
0.00750649
0.00781227
0.00815777
0.00864989
0.00934878
0.0102298
0.011208
0.0121554
0.0129149
0.0134146
0.0136276
0.0136093
0.0134212
0.0131129
0.0127242
0.0122839
0.0118114
0.0113183
0.0108106
0.0102913
0.00976082
0.00921702
0.00865502
0.00807019
0.0074658
0.00686013
0.00628439
0.00577001
0.00533664
0.0049913
0.00473088
0.00453099
0.00432553
0.00403548
0.00363708
0.00317172
0.00270309
0.00227476
0.00191053
0.00164629
0.0014912
0.00138758
0.00131314
0.00131216
0.00138818
0.001544
0.00178348
0.0020714
0.00233214
0.00248653
0.00249486
0.00237309
0.00217495
0.00195937
0.0017671
0.00161591
0.0015082
0.00143967
0.00140414
0.00139554
0.00140901
0.00143464
0.00146918
0.00151245
0.00156698
0.00163839
0.00173488
0.00186605
0.00203998
0.00226128
0.00252658
0.002813
0.00309971
0.00338164
0.00365241
0.00390735
0.00413981
0.00434108
0.00450376
0.00462517
0.00470839
0.00476086
0.00479197
0.00481078
0.00482453
0.00483788
0.00485247
0.00486672
0.00487592
0.00487294
0.00484984
0.00479938
0.00471882
0.00461227
0.00448567
0.0043451
0.00419511
0.00403795
0.0038738
0.00370169
0.00352061
0.00333033
0.00313183
0.00292726
0.00271971
0.00251275
0.00231005
0.00211506
0.00193079
0.00175961
0.00160316
0.00146236
0.00133735
0.00122766
0.00113227
0.00104976
0.000978495
0.000916734
0.000862761
0.000814968
0.000771901
0.000732279
0.000694976
0.000658978
0.000623316
0.000586969
0.000548697
0.000506676
0.000458508
0.000403813
0.000346942
0.000297026
0.000275133
0.00030115
0.000287152
0.000177226
0.000155774
0.000192273
0.000182985
0.000145418
0.000121109
0.000116849
0.000132363
0.00016771
0.0601865
0.00274033
0.00460879
0.00546917
0.00636023
0.00747082
0.00876632
0.0101446
0.011454
0.0125214
0.0131983
0.0134007
0.0131221
0.0124217
0.0114017
0.0101828
0.00888582
0.00761684
0.00645806
0.00546286
0.00465598
0.00403799
0.00359267
0.00329542
0.00312104
0.0030498
0.00307134
0.00318642
0.00339177
0.00368241
0.00405203
0.00449054
0.00498579
0.00551996
0.00605682
0.00654544
0.00691917
0.00715268
0.00732691
0.00760483
0.00812608
0.00890881
0.00988787
0.0109407
0.0118652
0.0125342
0.0129322
0.0130792
0.0130221
0.0128135
0.0125
0.0121174
0.0116909
0.011236
0.0107605
0.0102667
0.00975269
0.00921272
0.00863727
0.0080164
0.0073502
0.00666089
0.00599289
0.00539603
0.00490561
0.00453574
0.00428207
0.00411749
0.00397723
0.00377751
0.00347039
0.00307219
0.00264434
0.00223983
0.00188805
0.00161904
0.00142811
0.00128147
0.00119544
0.00120837
0.00131564
0.00150854
0.00177188
0.00204838
0.0022565
0.00233403
0.00227021
0.00210374
0.00189431
0.00169238
0.00152522
0.00140029
0.00131485
0.00126281
0.00123765
0.00123319
0.00124558
0.00126622
0.00129245
0.00132384
0.00136308
0.00141646
0.00149333
0.00160525
0.00176033
0.00196841
0.00221232
0.00248555
0.00277508
0.00306754
0.00335269
0.00362094
0.00386061
0.00405968
0.00421049
0.00431301
0.00437438
0.00440595
0.00441996
0.00442735
0.00443677
0.00445434
0.00448356
0.00452492
0.00457521
0.00462706
0.00466923
0.00468545
0.00466661
0.00460981
0.00451786
0.00439761
0.00425732
0.00410407
0.00394246
0.00377444
0.00360023
0.00341941
0.0032319
0.00303851
0.00284105
0.00264218
0.00244512
0.00225323
0.00206967
0.00189715
0.00173771
0.00159264
0.00146246
0.001347
0.0012455
0.0011568
0.00107943
0.0010118
0.000952314
0.000899431
0.000851746
0.000807996
0.000767043
0.00072783
0.000689304
0.000650297
0.000609301
0.000564019
0.000511529
0.00045132
0.000387602
0.000328183
0.000287615
0.000279793
0.000237114
0.000146286
0.000141085
0.00017281
0.000151362
0.000110692
8.62777e-05
8.08038e-05
9.30535e-05
0.000122843
0.0674125
0.00236725
0.00447855
0.00548761
0.00646541
0.00766607
0.00906254
0.0105345
0.0118962
0.0129415
0.0135094
0.0135282
0.0130219
0.0120851
0.0108506
0.00946079
0.0080478
0.00671982
0.00555287
0.00458763
0.00383194
0.00326825
0.00286422
0.00258432
0.00240083
0.00230216
0.00229554
0.00241527
0.00265032
0.00299085
0.00341952
0.00391622
0.0044641
0.00505168
0.00564794
0.00621473
0.00666194
0.00690598
0.00698676
0.00708872
0.00742702
0.00807035
0.00897682
0.0100129
0.0110069
0.0118157
0.0123657
0.0126509
0.0127077
0.012588
0.0123419
0.0120106
0.0116246
0.0112037
0.0107586
0.0102917
0.00979912
0.00927132
0.00869291
0.00804633
0.00732482
0.00655092
0.00578133
0.00508644
0.00452103
0.00411029
0.00385115
0.00371196
0.00362328
0.00349477
0.00326128
0.00292039
0.00253117
0.00215383
0.0018216
0.00155535
0.00134465
0.00118138
0.00110149
0.00113231
0.00126255
0.00147914
0.0017531
0.0020103
0.0021698
0.00218973
0.00208117
0.00189496
0.00168933
0.00150486
0.00135868
0.00125238
0.00118119
0.00113891
0.0011194
0.00111691
0.00112798
0.00114576
0.00116694
0.00119054
0.00121899
0.00125919
0.00132142
0.00141995
0.00156093
0.0017464
0.00197662
0.00224354
0.00253388
0.00283305
0.00312724
0.00340164
0.00363965
0.00382702
0.00395766
0.0040356
0.0040722
0.00408156
0.00407694
0.00406911
0.00406631
0.00407493
0.00410002
0.0041451
0.0042111
0.00429478
0.00438632
0.00446615
0.00451932
0.00453253
0.00449972
0.00442274
0.00430945
0.00417016
0.00401428
0.00384833
0.00367573
0.00349766
0.00331436
0.00312611
0.00293395
0.00273979
0.00254631
0.0023566
0.0021738
0.00200071
0.00183955
0.00169183
0.00155829
0.00143895
0.00133325
0.00124017
0.0011584
0.00108647
0.00102289
0.000966197
0.000915044
0.000868205
0.000824563
0.000783055
0.000742596
0.000701938
0.000659393
0.000612319
0.000557359
0.000493703
0.000425252
0.000358114
0.000299813
0.000262242
0.000201895
0.0001278
0.000129012
0.000152782
0.000128287
8.94527e-05
6.56196e-05
5.90974e-05
6.81583e-05
9.2813e-05
0.0674832
0.00369354
0.0040612
0.00534889
0.00640993
0.00764374
0.00908529
0.0106258
0.0120661
0.0131724
0.0137555
0.0137214
0.0131157
0.012056
0.0106964
0.00919621
0.00769791
0.0063141
0.00511972
0.00414932
0.00340055
0.00284329
0.00243201
0.00211884
0.0018671
0.00167379
0.00161705
0.00178671
0.00208734
0.00250459
0.00301467
0.00358923
0.00420252
0.00484374
0.00547597
0.00608369
0.00657989
0.00685466
0.00691099
0.00692106
0.00710681
0.00760003
0.00840045
0.00939773
0.0104216
0.0113096
0.0119603
0.0123458
0.0124904
0.0124417
0.012251
0.0119624
0.0116105
0.011219
0.0108013
0.0103612
0.00989361
0.00938526
0.00881466
0.00815501
0.00738903
0.00653458
0.00565772
0.00485095
0.00419272
0.00372352
0.00344425
0.00331851
0.0032685
0.00319435
0.00301909
0.00272918
0.00238062
0.00203597
0.00172924
0.00147279
0.00125708
0.00109447
0.00102811
0.00107604
0.00122389
0.00145263
0.00172141
0.00195511
0.00208053
0.00206384
0.00192851
0.00173441
0.00153586
0.00136509
0.00123269
0.00113733
0.0010737
0.00103603
0.00101899
0.00101766
0.00102931
0.001047
0.00106661
0.00108671
0.00110925
0.0011415
0.00119508
0.00127984
0.00140686
0.00158158
0.00180375
0.00206693
0.00235882
0.00266379
0.00296447
0.0032409
0.0034724
0.00364451
0.00375467
0.00381165
0.00383015
0.00382526
0.00380917
0.00379058
0.00377568
0.00376967
0.00377794
0.00380634
0.00386033
0.00394287
0.00405
0.00416921
0.00428253
0.00436785
0.00440781
0.00439402
0.00432811
0.00421922
0.0040796
0.00392044
0.00374971
0.00357187
0.00338894
0.00320178
0.00301129
0.00281893
0.00262693
0.00243808
0.00225535
0.00208153
0.00191892
0.00176913
0.00163302
0.00151076
0.0014019
0.00130554
0.00122046
0.00114529
0.00107861
0.00101904
0.000965277
0.000916132
0.00087051
0.00082736
0.000785588
0.000743911
0.000700548
0.00065267
0.000596631
0.00053126
0.000460038
0.00038715
0.00031324
0.000250309
0.000178856
0.000116601
0.000117872
0.00013367
0.000111366
7.82497e-05
5.73953e-05
5.0286e-05
5.48068e-05
7.32054e-05
0.0591436
0.00556736
0.00343704
0.00489966
0.00617777
0.00746361
0.00891343
0.0104787
0.0119789
0.0131754
0.0138585
0.0139163
0.013372
0.0123383
0.0109733
0.00944446
0.00790274
0.00646816
0.00522154
0.00420158
0.00340792
0.00281059
0.00236381
0.00202069
0.00174599
0.00153176
0.00146286
0.00161762
0.001942
0.00239819
0.00295494
0.00357985
0.00423889
0.00490196
0.00554882