/*--------------------------------*- C++ -*----------------------------------*\
| =========                 |                                                 |
| \\      /  F ield         | OpenFOAM: The Open Source CFD Toolbox           |
|  \\    /   O peration     | Version:  2112                                  |
|   \\  /    A nd           | Website:  www.openfoam.com                      |
|    \\/     M anipulation  |                                                 |
\*---------------------------------------------------------------------------*/
FoamFile
{
    version     2.0;
    format      ascii;
    arch        "LSB;label=32;scalar=64";
    class       volScalarField;
    location    "0.44";
    object      p;
}
// * * * * * * * * * * * * * * * * * * * * * * * * * * * * * * * * * * * * * //

dimensions      [0 2 -2 0 0 0 0];

internalField   nonuniform List<scalar> 
12225
(
25.5022
24.6063
24.4226
24.4995
24.5705
24.6579
24.8007
24.9927
25.212
25.436
25.6413
25.8046
25.9113
25.9627
25.9714
25.9745
25.9713
26.2149
25.0591
24.5442
24.3837
24.4469
24.5217
24.6119
24.7532
24.9428
25.1609
25.3867
25.5976
25.7707
25.8896
25.9528
25.9716
25.9815
26.002
26.3333
24.933
24.5822
24.3832
24.4009
24.4602
24.5342
24.6518
24.8137
25.0023
25.1994
25.3877
25.55
25.6746
25.76
25.8166
25.872
25.9738
26.2636
24.7781
24.5048
24.3155
24.3235
24.386
24.4593
24.5667
24.7109
24.8757
25.0435
25.1997
25.3318
25.4328
25.5054
25.5632
25.6326
25.7548
25.967
24.6276
24.4306
24.2708
24.2668
24.3205
24.3858
24.4789
24.604
24.747
24.8918
25.0255
25.1377
25.2229
25.284
25.3332
25.3927
25.489
25.6474
24.4845
24.3455
24.2108
24.1932
24.2357
24.2934
24.3736
24.4807
24.6028
24.7256
24.8381
24.9322
25.0043
25.0574
25.1017
25.1536
25.2297
25.3493
24.3453
24.2474
24.1363
24.1109
24.1431
24.1929
24.2601
24.3486
24.4492
24.5495
24.6401
24.7149
24.7716
24.8134
24.8484
24.8889
24.9456
25.0258
24.2076
24.1387
24.0494
24.0199
24.0414
24.0811
24.1345
24.2039
24.2828
24.3606
24.4294
24.4843
24.5242
24.5515
24.5727
24.5964
24.6295
24.6735
24.0696
24.0208
23.9499
23.9182
23.9287
23.9572
23.9962
24.0468
24.104
24.1592
24.2058
24.2401
24.2612
24.2712
24.2749
24.2778
24.2844
24.2951
23.9295
23.8945
23.8379
23.805
23.8049
23.8211
23.8453
23.8769
23.9123
23.9447
23.9687
23.9812
23.9818
23.9718
23.9545
23.9335
23.9112
23.8874
23.786
23.76
23.7138
23.6798
23.6696
23.6727
23.6812
23.6936
23.707
23.7164
23.7172
23.7069
23.6851
23.6527
23.6116
23.5639
23.5106
23.4508
23.6502
23.6292
23.5893
23.5539
23.5344
23.5249
23.5186
23.5131
23.5063
23.4942
23.4731
23.4409
23.3972
23.3422
23.2771
23.2029
23.1197
23.0262
23.5114
23.4936
23.4574
23.4197
23.3912
23.3688
23.3471
23.3237
23.2967
23.263
23.2198
23.1651
23.0984
23.0197
22.9294
22.8277
22.714
22.5869
23.3473
23.3312
23.2965
23.2549
23.2156
23.1781
23.1384
23.0942
23.0439
22.9854
22.9163
22.8351
22.7411
22.6339
22.5134
22.3791
22.2301
22.0649
23.1541
23.1382
23.1022
23.0543
23.0023
22.9472
22.8866
22.8185
22.7417
22.6546
22.5557
22.4438
22.3178
22.1774
22.0218
21.8505
21.6621
21.4554
22.9287
22.9114
22.8711
22.8138
22.7467
22.6713
22.5866
22.4913
22.3845
22.2654
22.1329
21.986
21.8238
21.6459
21.4514
21.2396
21.0094
20.7597
22.6702
22.65
22.6022
22.5321
22.4466
22.348
22.236
22.1101
21.9702
21.8157
21.6462
21.4609
21.2595
21.0412
20.8057
20.5523
20.2803
19.9891
22.3833
22.3587
22.3004
22.2138
22.1065
21.9816
21.8395
21.6803
21.5045
21.3123
21.1036
20.8784
20.6365
20.3777
20.1018
19.8088
19.4984
19.1709
22.0845
22.0534
21.9809
21.8736
21.7407
21.5863
21.4113
21.2166
21.0034
20.7724
20.5245
20.2599
19.979
19.6823
19.3702
19.043
18.7011
18.3454
21.8745
21.8368
21.7496
21.6219
21.4656
21.2858
21.0835
20.86
20.6173
20.3569
20.0799
19.7871
19.4793
19.1573
18.8221
18.4743
18.1147
17.7446
21.7609
21.7171
21.6162
21.4708
21.2959
21.0968
20.8743
20.6299
20.3661
20.085
19.7879
19.4759
19.1502
18.812
18.4622
18.1019
17.732
17.3538
21.7082
21.6567
21.5402
21.3767
21.1851
20.9698
20.7306
20.4695
20.1896
19.8931
19.5814
19.2557
18.9175
18.5682
18.2088
17.8407
17.465
17.0831
21.7021
21.6414
21.506
21.3243
21.118
20.8886
20.6342
20.3578
20.0636
19.7537
19.4298
19.093
18.7449
18.3868
18.0202
17.6464
17.2665
16.8818
21.7343
21.6588
21.4992
21.2998
21.083
20.8429
20.5769
20.2897
19.985
19.6646
19.331
18.9854
18.6295
18.2647
17.8923
17.5141
17.1312
16.745
21.7967
21.6989
21.5101
21.293
21.0644
20.8114
20.5325
20.2344
19.9212
19.5937
19.2521
18.8991
18.5375
18.1679
17.7917
17.4105
17.0255
16.6379
21.8837
21.7501
21.5312
21.3089
21.0777
20.815
20.525
20.2177
19.896
19.5599
19.2106
18.8509
18.4822
18.1072
17.727
17.3429
16.956
16.5676
21.9958
21.7998
21.5311
21.3008
21.0684
20.7993
20.5032
20.1917
19.8659
19.5256
19.1725
18.8091
18.4375
18.0599
17.6776
17.2918
16.9033
16.5129
22.1327
21.8932
21.5951
21.3588
21.1136
20.8288
20.5209
20.2002
19.8659
19.5176
19.1577
18.7887
18.4127
18.0315
17.6468
17.2598
16.8711
16.4798
22.2125
21.8398
21.554
21.3542
21.1148
20.8274
20.5184
20.1961
19.8588
19.5066
19.1422
18.7686
18.3879
18.0025
17.6141
17.2248
16.8352
16.4485
22.6586
21.9331
21.5952
21.3979
21.145
20.8428
20.5242
20.1951
19.8524
19.4957
19.1278
18.7515
18.3689
17.9822
17.5933
17.2042
16.816
16.4331
-7.92495
-8.17507
-8.6036
-8.92324
-8.2852
-6.42183
-3.98874
-2.12447
-1.57124
-2.46933
-4.49483
-7.0663
-9.62023
-11.7351
-13.1173
-13.7202
-13.7541
-13.4582
-13.0409
-12.7188
-12.6922
-13.0436
-13.6373
-14.2157
-14.6725
-14.9318
-14.8658
-14.4558
-13.6258
-12.5699
-11.9263
-11.9218
-12.1853
-12.3305
-12.332
-12.2935
-12.3446
-12.4713
-12.6262
-12.8042
-13.0656
-13.5909
-14.5562
-16.0446
-18.0596
-20.529
-23.3233
-26.2763
-29.209
-31.9528
-34.3615
-36.3208
-37.7527
-38.6174
-38.9074
-38.6229
-37.7461
-36.2446
-34.125
-31.4829
-28.3912
-24.9145
-21.1114
-17.0372
-12.7459
-8.29084
-3.7266
0.889032
5.49475
10.0253
14.4126
18.5885
22.4886
26.0575
29.2535
32.0521
34.4468
36.4482
38.0817
39.3836
40.3963
41.16
41.7117
42.0897
42.3236
42.4389
42.459
42.4018
42.2831
42.1162
41.9121
41.6795
41.4257
41.1567
40.8777
40.5931
40.3067
40.0231
39.7398
39.4516
39.1615
38.8729
38.5834
38.2885
37.9818
37.6584
37.3199
36.9793
36.6595
36.3836
36.1631
35.9939
35.8609
35.7506
35.6508
35.5506
35.4414
35.3188
35.1838
35.0412
34.8974
34.7573
34.6234
34.4954
34.3706
34.2449
34.1144
33.9732
33.8125
33.6115
33.3433
32.9812
32.6476
32.424
32.3338
32.2875
32.1078
31.6445
30.8232
29.5865
27.8475
25.5115
22.5039
18.7957
14.3661
9.42307
4.20092
-0.861789
-5.18979
-8.21048
-9.45973
-8.62501
-5.59329
-0.59598
5.86573
13.1673
20.6155
27.5284
33.369
37.832
40.841
42.5368
43.2189
43.23
42.871
42.3625
41.8212
41.288
40.7988
40.3765
40.0393
39.8247
39.7731
39.8977
40.1579
40.4314
40.6428
40.8061
41.0872
41.3572
-9.66807
-10.2118
-11.0911
-11.7241
-10.9709
-9.4039
-7.74697
-6.82907
-7.10601
-8.51124
-10.6582
-13.0849
-15.4061
-17.351
-18.7785
-19.5477
-19.5356
-18.7532
-17.4736
-16.1031
-15.05
-14.5923
-14.6661
-14.8898
-15.1563
-15.5513
-15.7596
-15.4812
-14.7386
-13.7157
-13.0817
-13.0591
-13.1816
-13.0717
-12.6002
-12.0579
-11.7194
-11.8847
-12.4417
-12.9477
-13.4046
-14.1854
-15.536
-17.5336
-20.1238
-23.1568
-26.4317
-29.741
-32.8924
-35.7169
-38.0839
-39.9015
-41.1084
-41.6674
-41.5628
-40.801
-39.4303
-37.5524
-35.2291
-32.4633
-29.2913
-25.7591
-21.9165
-17.8134
-13.4997
-9.02539
-4.44124
0.198726
4.83567
9.40592
13.8415
18.073
22.0334
25.6637
28.9187
31.7711
34.2131
36.255
37.9225
39.2523
40.2868
41.0661
41.6271
42.0084
42.2433
42.362
42.3874
42.3369
42.2257
42.0668
41.8705
41.6454
41.3985
41.1359
40.8623
40.5813
40.2955
40.0033
39.7056
39.4077
39.1107
38.8127
38.5116
38.2074
37.8992
37.5851
37.2654
36.9469
36.6461
36.3833
36.1693
35.9992
35.8608
35.7437
35.6388
35.5362
35.4269
35.3058
35.1725
35.0307
34.8856
34.7421
34.6032
34.4696
34.3399
34.2114
34.0813
33.9476
33.7977
33.5911
33.2792
32.9057
32.6124
32.434
32.3832
32.3518
32.1667
31.6968
30.8966
29.703
28.0018
25.6827
22.6544
18.8503
14.272
9.08837
3.60271
-1.69708
-6.21264
-9.31671
-10.5032
-9.51098
-6.36916
-1.32288
5.19337
12.5711
20.1201
27.158
33.1289
37.7003
40.7815
42.5161
43.2174
43.2353
42.8731
42.3409
41.7646
41.2163
40.7235
40.2936
39.9455
39.7264
39.6858
39.8522
40.1712
40.5027
40.7116
40.8161
41.0456
41.2833
-9.50463
-9.5517
-9.69645
-10.1143
-10.6301
-11.106
-11.8309
-13.0987
-14.93
-17.131
-19.4546
-21.6854
-23.6579
-25.25
-26.3738
-26.9614
-26.9649
-26.4173
-25.3357
-23.7758
-21.8674
-19.8295
-17.9335
-16.4098
-15.4095
-14.8659
-14.4786
-14.0548
-13.496
-13.0288
-13.1507
-13.6326
-13.8008
-13.4345
-12.9103
-12.6735
-12.7495
-13.1911
-14.1644
-15.5804
-17.3521
-19.4758
-21.9299
-24.6509
-27.539
-30.4768
-33.3479
-36.0485
-38.4911
-40.6008
-42.3115
-43.567
-44.3205
-44.5281
-44.161
-43.2359
-41.7613
-39.754
-37.27
-34.3578
-31.0649
-27.4389
-23.5262
-19.372
-15.0193
-10.5113
-5.89173
-1.20784
3.48812
8.13682
12.6714
17.0197
21.1094
24.8734
28.2577
31.2279
33.7711
35.8959
37.6284
39.0074
40.0785
40.8853
41.4672
41.8648
42.1131
42.242
42.2749
42.2309
42.1259
41.9727
41.7817
41.5614
41.3189
41.0601
40.7897
40.5117
40.2289
39.9433
39.656
39.3672
39.0758
38.783
38.4909
38.1978
37.9021
37.6027
37.3009
37.0022
36.7174
36.4592
36.2361
36.0485
35.8938
35.7649
35.6514
35.5423
35.4292
35.3068
35.174
35.0335
34.8895
34.746
34.6047
34.4654
34.3257
34.1816
34.0279
33.8598
33.6725
33.4537
33.1814
32.8823
32.5869
32.441
32.4328
32.4482
32.3
31.8395
31.0084
29.7299
27.8867
25.3737
22.1053
18.0257
13.1795
7.76128
2.11247
-3.27784
-7.82936
-10.9453
-12.13
-11.124
-7.93562
-2.80639
3.8158
11.3295
19.0528
26.3002
32.4853
37.2525
40.4843
42.3108
43.0528
43.0821
42.7214
42.201
41.6504
41.1284
40.6577
40.2637
39.9513
39.7614
39.725
39.8594
40.1271
40.4214
40.6413
40.7917
41.0418
41.2463
-9.05917
-8.85083
-9.11101
-10.2016
-12.2014
-14.6664
-17.2228
-19.734
-22.1479
-24.4164
-26.4943
-28.3408
-29.9137
-31.1683
-32.0638
-32.5665
-32.6195
-32.1819
-31.2249
-29.7125
-27.5976
-24.8747
-21.6782
-18.3472
-15.3475
-13.031
-11.5108
-10.6529
-10.3865
-10.752
-11.4499
-12.4415
-13.1056
-13.4973
-13.8792
-14.5647
-15.6801
-17.2501
-19.2548
-21.5917
-24.1374
-26.7957
-29.5042
-32.2208
-34.9111
-37.5363
-40.0469
-42.381
-44.4672
-46.2306
-47.5986
-48.5069
-48.9072
-48.7716
-48.0857
-46.8426
-45.0718
-42.8134
-40.1113
-37.0134
-33.5695
-29.8278
-25.8332
-21.6257
-17.2412
-12.7121
-8.07032
-3.35053
1.4061
6.14856
10.8139
15.328
19.6098
23.5787
27.1654
30.3218
33.0262
35.2826
37.1178
38.5745
39.7033
40.5535
41.1698
41.5954
41.8681
42.0184
42.0702
42.0431
41.9536
41.8145
41.6362
41.4275
41.1957
40.9467
40.6853
40.4154
40.1397
39.8598
39.5769
39.292
39.0062
38.7205
38.4344
38.1482
37.8616
37.5751
37.2906
37.0123
36.7474
36.5044
36.2894
36.1037
35.9437
35.8043
35.6788
35.5594
35.4394
35.3147
35.1839
35.0474
34.907
34.7643
34.62
34.4734
34.3226
34.1638
33.9922
33.8032
33.5896
33.3359
33.0293
32.7011
32.4277
32.3235
32.3908
32.4837
32.3676
31.8793
30.951
29.4994
27.4229
24.6438
21.0954
16.7474
11.6539
5.99809
0.115166
-5.50262
-10.25
-13.4972
-14.731
-13.703
-10.4362
-5.1864
1.58911
9.2954
17.2651
24.8149
31.3297
36.4091
39.8953
41.8985
42.7446
42.8297
42.5009
42.0025
41.4708
40.9686
40.5224
40.1433
39.8539
39.6604
39.5937
39.6759
39.8928
40.183
40.4654
40.6948
40.982
41.1709
-9.52651
-9.39002
-10.2497
-12.6364
-15.874
-19.1596
-22.1753
-24.8709
-27.2675
-29.4024
-31.3036
-32.9733
-34.3843
-35.4899
-36.2405
-36.5969
-36.5429
-36.0489
-35.0917
-33.6106
-31.4925
-28.6029
-24.8926
-20.5681
-16.178
-12.4183
-9.81962
-8.48615
-8.24231
-8.87006
-10.123
-11.5292
-13.0058
-14.575
-16.326
-18.3376
-20.6293
-23.1438
-25.794
-28.5045
-31.2284
-33.9433
-36.6383
-39.3017
-41.911
-44.4276
-46.7971
-48.9527
-50.8211
-52.3288
-53.4085
-54.0043
-54.0766
-53.6039
-52.5723
-50.9995
-48.9201
-46.3768
-43.421
-40.1075
-36.4915
-32.6239
-28.5494
-24.3038
-19.915
-15.4031
-10.7845
-6.07559
-1.29855
3.51199
8.30366
13.0038
17.5222
21.7598
25.6239
29.0429
31.9777
34.4239
36.4082
37.9784
39.1915
40.1026
40.7682
41.234
41.5402
41.719
41.7961
41.7919
41.7227
41.6019
41.44
41.2462
41.0277
40.7909
40.5407
40.2809
40.0147
39.7441
39.4708
39.196
38.9205
38.6447
38.3692
38.0944
37.8204
37.5485
37.2807
37.0202
36.7722
36.5422
36.3341
36.149
35.9847
35.8384
35.7058
35.5805
35.4567
35.3308
35.2007
35.0661
34.9276
34.7857
34.64
34.4889
34.3293
34.1566
33.9649
33.7479
33.496
33.1944
32.8388
32.4748
32.2039
32.1357
32.2631
32.3991
32.2716
31.6993
30.6112
28.9472
26.6463
23.643
19.8603
15.2472
9.83347
3.79026
-2.52359
-8.55761
-13.6372
-17.0883
-18.3935
-17.3288
-13.946
-8.52956
-1.55016
6.4074
14.6981
22.6498
29.6204
35.1447
39.0064
41.2803
42.2916
42.4666
42.1888
41.7268
41.2285
40.7594
40.3436
39.9911
39.7156
39.5261
39.4426
39.4759
39.6182
39.845
40.113
40.3981
40.7787
41.0167
-10.1956
-10.4733
-12.7623
-16.2717
-19.7899
-23.0034
-25.897
-28.4798
-30.7931
-32.8852
-34.7774
-36.4519
-37.8577
-38.9287
-39.6014
-39.8346
-39.6198
-38.9794
-37.9217
-36.4023
-34.3021
-31.4388
-27.665
-23.0777
-18.2633
-14.1129
-11.231
-9.70893
-9.44524
-10.0349
-11.3596
-13.2432
-15.5208
-18.0642
-20.7895
-23.6233
-26.5082
-29.4002
-32.2733
-35.1171
-37.9324
-40.7222
-43.4813
-46.1904
-48.8146
-51.3046
-53.5998
-55.6325
-57.3322
-58.6305
-59.4643
-59.7796
-59.5422
-58.7483
-57.3484
-55.4221
-52.9994
-50.1304
-46.8765
-43.3043
-39.4786
-35.458
-31.2904
-27.0113
-22.6424
-18.193
-13.6622
-9.04408
-4.33463
0.458786
5.30708
10.1508
14.8973
19.4289
23.6213
27.3681
30.6009
33.2982
35.4821
37.2051
38.531
39.5274
40.2574
40.7747
41.1235
41.3388
41.4481
41.4729
41.4301
41.3332
41.1931
41.0189
40.8182
40.5975
40.3619
40.1157
39.8621
39.6034
39.3414
39.0775
38.8127
38.5478
38.2837
38.0209
37.7602
37.5028
37.2504
37.0057
36.7723
36.5541
36.354
36.1729
36.0102
35.8629
35.7271
35.5986
35.4731
35.3472
35.2191
35.0876
34.9522
34.8122
34.6661
34.5114
34.3443
34.1595
33.9502
33.7077
33.4163
33.0542
32.6227
32.1947
31.9021
31.8595
32.023
32.1551
31.9583
31.2548
29.9924
28.1436
25.6659
22.4665
18.4252
13.4514
7.55913
0.941634
-5.97856
-12.5634
-18.0589
-21.7493
-23.1154
-21.9728
-18.4231
-12.7912
-5.5671
2.67814
11.3353
19.7619
27.3007
33.4045
37.7751
40.4275
41.678
41.9903
41.7939
41.3881
40.9356
40.5053
40.1205
39.7894
39.5206
39.3216
39.2065
39.189
39.2643
39.4278
39.6474
39.9319
40.3715
40.699
-12.0111
-13.0659
-16.2372
-19.7123
-22.8465
-25.7241
-28.3808
-30.814
-33.0454
-35.1026
-36.9896
-38.6687
-40.0669
-41.1014
-41.7082
-41.857
-41.5506
-40.83
-39.7265
-38.2096
-36.1611
-33.4073
-29.8597
-25.5206
-21.2826
-17.6646
-15.0989
-13.7846
-13.48
-14.1389
-15.6709
-17.868
-20.5048
-23.3878
-26.3781
-29.3891
-32.381
-35.3462
-38.2923
-41.2289
-44.1594
-47.0773
-49.9632
-52.7852
-55.4988
-58.0487
-60.3702
-62.3914
-64.0367
-65.2309
-65.9061
-66.0061
-65.4889
-64.3322
-62.609
-60.2997
-57.4687
-54.1906
-50.5485
-46.6266
-42.5047
-38.2525
-33.9251
-29.5611
-25.1809
-20.7875
-16.3677
-11.8954
-7.33829
-2.66846
2.12263
7.00701
11.9074
16.6982
21.2235
25.331
28.9093
31.908
34.338
36.2519
37.7203
38.8255
39.6384
40.2211
40.6233
40.8838
41.0324
41.0922
41.0809
41.0125
40.8984
40.7478
40.5686
40.3673
40.1494
39.9194
39.6808
39.4363
39.1881
38.9375
38.6859
38.4343
38.1836
37.9344
37.6879
37.4452
37.2078
36.9782
36.7589
36.5528
36.362
36.1871
36.0272
35.8807
35.7445
35.6155
35.4902
35.3658
35.2402
35.1117
34.9793
34.8414
34.6959
34.5396
34.3678
34.174
33.9494
33.681
33.3439
32.9075
32.3835
31.8832
31.5577
31.5261
31.6907
31.765
31.451
30.601
29.19
27.201
24.5637
21.1353
16.7439
11.27
4.73614
-2.61444
-10.2717
-17.4947
-23.4407
-27.3518
-28.7264
-27.4429
-23.6617
-17.7674
-10.277
-1.74486
7.27242
16.189
24.3588
31.1538
36.1671
39.3172
40.894
41.3987
41.3151
40.9839
40.5886
40.2043
39.8539
39.5433
39.278
39.065
38.9168
38.8465
38.8639
38.9398
39.098
39.3445
39.7829
40.1891
-14.9795
-16.5885
-19.3661
-22.1087
-24.7064
-27.2153
-29.5947
-31.8154
-33.8911
-35.8428
-37.6628
-39.2987
-40.6605
-41.6568
-42.2306
-42.3638
-42.0643
-41.3714
-40.3074
-38.8437
-36.8957
-34.3717
-31.2912
-27.8853
-24.609
-21.9069
-20.0825
-19.0872
-18.9773
-19.8145
-21.4429
-23.6516
-26.2294
-29.0089
-31.8841
-34.8043
-37.7556
-40.742
-43.7707
-46.8436
-49.9532
-53.081
-56.197
-59.2597
-62.2152
-64.9964
-67.524
-69.7091
-71.458
-72.6786
-73.2894
-73.2271
-72.4539
-70.9671
-68.7998
-65.9991
-62.6459
-58.8392
-54.6861
-50.2932
-45.7582
-41.1637
-36.5731
-32.0291
-27.553
-23.1462
-18.7902
-14.4477
-10.0656
-5.58302
-0.94792
3.86013
8.80191
13.7646
18.573
23.0294
26.9666
30.2935
33.0004
35.1306
36.7677
38.0001
38.9119
39.5736
40.0405
40.3555
40.5511
40.6521
40.6774
40.6419
40.5577
40.4344
40.28
40.1015
39.9045
39.6937
39.4729
39.2452
39.0127
38.7773
38.5406
38.3035
38.0671
37.8326
37.6007
37.3729
37.1506
36.9356
36.7301
36.5359
36.3547
36.187
36.0322
35.889
35.7552
35.6282
35.5052
35.3837
35.2616
35.1373
35.0091
34.8748
34.7319
34.5763
34.4026
34.2031
33.967
33.6756
33.2922
32.7769
32.1568
31.5939
31.2251
31.1867
31.3127
31.2841
30.8293
29.8419
28.3114
26.1983
23.3741
19.6432
14.7897
8.6831
1.37351
-6.82694
-15.3027
-23.1954
-29.5673
-33.6272
-34.9239
-33.4258
-29.3456
-23.146
-15.3814
-6.59276
2.72592
12.0756
20.8631
28.4073
34.1715
37.9388
39.9379
40.6956
40.7591
40.5215
40.1942
39.8617
39.5468
39.2539
38.9865
38.7513
38.5598
38.4254
38.3605
38.3606
38.4495
38.6434
39.0489
39.5032
-17.4051
-19.0419
-20.953
-23.0128
-25.1373
-27.2668
-29.3249
-31.2788
-33.138
-34.9166
-36.6017
-38.1476
-39.451
-40.4259
-41.0194
-41.2115
-41.0049
-40.4236
-39.4805
-38.1648
-36.459
-34.3871
-32.0549
-29.6502
-27.4398
-25.6857
-24.4815
-23.9257
-24.172
-25.186
-26.8223
-28.9139
-31.3076
-33.8979
-36.6277
-39.4759
-42.4397
-45.5216
-48.7218
-52.0332
-55.4405
-58.9181
-62.4277
-65.9158
-69.311
-72.5233
-75.4458
-77.9607
-79.9472
-81.2903
-81.8908
-81.6781
-80.6189
-78.7246
-76.0386
-72.6428
-68.6499
-64.1915
-59.406
-54.4263
-49.3702
-44.3333
-39.3849
-34.5686
-29.9043
-25.3918
-21.0121
-16.7256
-12.471
-8.16682
-3.72414
0.93007
5.81086
10.8409
15.8468
20.5992
24.8736
28.5272
31.5181
33.8791
35.695
37.0666
38.0885
38.8392
39.3802
39.758
40.0077
40.1559
40.2229
40.2248
40.1741
40.0813
39.9549
39.802
39.6286
39.4396
39.2391
39.0303
38.8158
38.5976
38.3773
38.1563
37.9358
37.7169
37.5007
37.2883
37.0812
36.8809
36.6891
36.5072
36.3365
36.1773
36.0292
35.8913
35.7617
35.6384
35.5192
35.4019
35.2846
35.1653
35.0421
34.9128
34.7742
34.6219
34.45
34.2496
34.0077
33.699
33.2748
32.6886
31.9826
31.3249
30.9694
30.9093
30.9566
30.7922
30.1893
29.0756
27.4326
25.175
22.1108
17.9911
12.5729
5.73012
-2.4462
-11.5606
-20.8741
-29.4041
-36.1337
-40.2629
-41.4009
-39.6127
-35.1739
-28.6262
-20.5745
-11.5613
-2.02193
7.65262
16.9695
25.2438
31.8185
36.3022
38.8165
39.8893
40.1342
40.0075
39.7565
39.4788
39.1992
38.9205
38.6451
38.3801
38.1371
37.9313
37.779
37.6908
37.6977
37.8264
38.1819
38.6586
-18.0795
-19.3763
-20.653
-22.2432
-23.983
-25.7762
-27.5387
-29.2324
-30.8533
-32.4087
-33.8909
-35.2607
-36.4514
-37.3903
-38.0048
-38.2848
-38.2199
-37.8239
-37.1186
-36.1332
-34.9095
-33.5027
-31.9881
-30.4832
-29.1361
-28.0763
-27.4471
-27.4164
-28.0325
-29.2257
-30.8877
-32.905
-35.1907
-37.6947
-40.3964
-43.2925
-46.3862
-49.6798
-53.1716
-56.8531
-60.7063
-64.7
-68.7845
-72.8872
-76.91
-80.7299
-84.2041
-87.1791
-89.5038
-91.0385
-91.6617
-91.2917
-89.9092
-87.5376
-84.2435
-80.1439
-75.3914
-70.1595
-64.6254
-58.9548
-53.2892
-47.7372
-42.3712
-37.229
-32.3207
-27.6373
-23.1571
-18.8428
-14.6361
-10.448
-6.16699
-1.68083
3.08277
8.09751
13.2126
18.1854
22.7448
26.6957
29.9537
32.5372
34.5316
36.0452
37.1819
38.0276
38.649
39.096
39.4059
39.6068
39.7203
39.7636
39.7501
39.691
39.5954
39.4708
39.3235
39.1587
38.9808
38.7931
38.5985
38.3992
38.197
37.9935
37.79
37.5877
37.3877
37.1913
36.9998
36.8144
36.6364
36.4672
36.3075
36.1578
36.0177
35.8865
35.7627
35.6448
35.5309
35.4191
35.3077
35.1947
35.0781
34.9555
34.8235
34.6777
34.5117
34.316
34.0757
33.7597
33.3095
32.6782
31.9299
31.2592
30.8735
30.7606
30.6896
30.3652
29.6103
28.3704
26.5991
24.1553
20.7894
16.2044
10.1466
2.50526
-6.57807
-16.6123
-26.7244
-35.819
-42.8328
-46.9823
-47.9312
-45.8026
-40.9555
-34.0093
-25.6352
-16.4016
-6.70541
3.17361
12.8824
21.7901
29.1736
34.4371
37.546
38.993
39.452
39.4511
39.2819
39.0596
38.8127
38.5432
38.2531
37.9498
37.6464
37.3601
37.1118
36.9235
36.8363
36.8879
37.1799
37.6593
-16.6419
-17.5528
-18.5214
-19.8089
-21.2864
-22.8459
-24.4002
-25.896
-27.3136
-28.6526
-29.9113
-31.0723
-32.097
-32.9337
-33.5656
-33.9488
-34.0809
-33.9767
-33.662
-33.1659
-32.5155
-31.7408
-30.8921
-30.0491
-29.3244
-28.8695
-28.8407
-29.319
-30.2883
-31.6872
-33.442
-35.4913
-37.7997
-40.3557
-43.1626
-46.2305
-49.5702
-53.1898
-57.0927
-61.2736
-65.7138
-70.3744
-75.1896
-80.061
-84.8571
-89.417
-93.5579
-97.0882
-99.825
-101.605
-102.28
-101.752
-100.026
-97.133
-93.1627
-88.2722
-82.6621
-76.5549
-70.1736
-63.7225
-57.3716
-51.2465
-45.424
-39.9331
-34.7657
-29.8914
-25.2749
-20.8791
-16.6518
-12.5062
-8.32352
-3.96996
0.672062
5.62966
10.7897
15.9153
20.6904
24.8833
28.37
31.1514
33.3098
34.9588
36.2087
37.151
37.8562
38.3764
38.7508
39.0087
39.1729
39.2613
39.2884
39.2661
39.204
39.1102
38.9913
38.8529
38.6995
38.5349
38.3619
38.1832
38.0006
37.8159
37.6305
37.4458
37.2629
37.083
36.9074
36.7372
36.5735
36.4174
36.2695
36.1301
35.9991
35.8759
35.7593
35.6482
35.5408
35.4358
35.3314
35.2258
35.1171
35.0029
34.8798
34.7435
34.5876
34.4027
34.1728
33.8626
33.4088
32.7698
32.0262
31.3714
30.9693
30.7758
30.5536
30.053
29.1417
27.7659
25.8387
23.1628
19.4398
14.3394
7.60551
-0.852258
-10.8312
-21.7394
-32.575
-42.1621
-49.4226
-53.5911
-54.3633
-51.8866
-46.5972
-39.2001
-30.4483
-20.9619
-11.1287
-1.13837
8.81332
18.2104
26.3332
32.3924
36.153
38.0242
38.7254
38.8617
38.7764
38.6071
38.388
38.1214
37.8088
37.4586
37.0856
36.7098
36.3567
36.0571
35.862
35.8225
36.0386
36.5018
-13.3295
-13.8874
-14.7376
-15.874
-17.2143
-18.6618
-20.1257
-21.5397
-22.8684
-24.1011
-25.2367
-26.2692
-27.1851
-27.9729
-28.6182
-29.1106
-29.4471
-29.6304
-29.6654
-29.5575
-29.318
-28.974
-28.5814
-28.2375
-28.0772
-28.232
-28.779
-29.7262
-31.0404
-32.6756
-34.5924
-36.7707
-39.2106
-41.9257
-44.9374
-48.2687
-51.9415
-55.9741
-60.3781
-65.1529
-70.278
-75.7037
-81.3441
-87.0721
-92.7208
-98.0895
-102.956
-107.093
-110.28
-112.319
-113.053
-112.378
-110.334
-106.912
-102.248
-96.5442
-90.049
-83.0352
-75.7734
-68.5077
-61.4381
-54.7104
-48.4099
-42.5611
-37.1376
-32.0804
-27.3287
-22.8357
-18.5499
-14.3927
-10.2538
-5.97927
-1.42603
3.47618
8.65177
13.8643
18.7936
23.1642
26.8257
29.7648
32.0611
33.8304
35.1862
36.2228
37.012
37.6075
38.049
38.3669
38.5847
38.7213
38.792
38.8092
38.7832
38.7225
38.6342
38.5242
38.3973
38.2573
38.1077
37.9509
37.7893
37.6246
37.4583
37.292
37.1269
36.9641
36.8048
36.6502
36.5012
36.3586
36.223
36.0948
35.9738
35.8595
35.7513
35.648
35.5484
35.4511
35.3548
35.2579
35.1584
35.0542
34.9423
34.8184
34.6768
34.5086
34.2978
34.008
33.5767
32.9708
32.2757
31.6653
31.2499
30.9516
30.557
29.8744
28.8046
27.2807
25.1707
22.2264
18.1102
12.4759
5.0725
-4.17835
-14.994
-26.693
-38.1663
-48.2003
-55.7137
-59.938
-60.5665
-57.7612
-52.0202
-44.1382
-34.9575
-25.1685
-15.1767
-5.12373
4.94961
14.6803
23.4062
30.2336
34.6733
37.0048
37.9694
38.2493
38.2463
38.1246
37.9264
37.6548
37.3113
36.9052
36.4534
35.9783
35.5098
35.0867
34.7688
34.6229
34.7509
35.1803
-8.41211
-8.89206
-9.64833
-10.6994
-11.9733
-13.3857
-14.8473
-16.2822
-17.639
-18.8918
-20.0305
-21.0522
-21.9607
-22.7616
-23.456
-24.0369
-24.4986
-24.8356
-25.0464
-25.1383
-25.1367
-25.0953
-25.1023
-25.2688
-25.6957
-26.4407
-27.512
-28.8863
-30.5306
-32.4186
-34.5409
-36.9068
-39.5397
-42.4721
-45.7403
-49.3809
-53.4285
-57.9124
-62.8526
-68.2517
-74.0849
-80.2901
-86.7597
-93.3381
-99.8241
-105.98
-111.546
-116.261
-119.876
-122.17
-122.974
-122.209
-119.83
-115.918
-110.621
-104.174
-96.8676
-89.0245
-80.9591
-72.9502
-65.222
-57.9354
-51.1848
-44.9962
-39.3326
-34.1127
-29.2495
-24.669
-20.3165
-16.1235
-11.9843
-7.74192
-3.23278
1.6406
6.82599
12.0938
17.1145
21.5931
25.3658
28.4133
30.8134
32.682
34.1319
35.2568
36.1279
36.7984
37.308
37.6875
37.9611
38.1481
38.2646
38.3235
38.3358
38.3103
38.2546
38.1747
38.0759
37.9622
37.8373
37.7038
37.5642
37.4206
37.2744
37.1273
36.9806
36.8355
36.693
36.5544
36.4203
36.2917
36.169
36.0526
35.9424
35.838
35.7391
35.6446
35.5537
35.4652
35.3779
35.2906
35.2016
35.1089
35.0098
34.9009
34.777
34.6303
34.4462
34.19
33.8044
33.267
32.6567
32.1062
31.6701
31.252
30.6818
29.8242
28.6005
26.9211
24.6109
21.3793
16.8597
10.7056
2.68471
-7.3059
-18.856
-31.2392
-43.2661
-53.7234
-61.5113
-65.8372
-66.3709
-63.2648
-57.0933
-48.7314
-39.1049
-28.9759
-18.7911
-8.69152
1.43379
11.3353
20.5239
28.039
33.1505
35.96
37.1993
37.6236
37.6973
37.6153
37.4293
37.1438
36.7602
36.2889
35.7484
35.1634
34.5673
34.0061
33.549
33.2793
33.3059
33.6853
-2.51722
-2.94949
-3.62709
-4.59089
-5.79315
-7.16441
-8.62495
-10.0973
-11.5175
-12.8417
-14.0481
-15.1271
-16.0857
-16.927
-17.6534
-18.2655
-18.7642
-19.1555
-19.4562
-19.7012
-19.9486
-20.2784
-20.7776
-21.5164
-22.5294
-23.8144
-25.3469
-27.097
-29.0428
-31.1787
-33.5176
-36.0882
-38.9305
-42.0911
-45.6196
-49.5654
-53.9745
-58.8859
-64.3255
-70.2965
-76.7685
-83.6662
-90.8619
-98.1742
-105.372
-112.188
-118.328
-123.505
-127.454
-129.943
-130.796
-129.929
-127.312
-123.026
-117.235
-110.214
-102.287
-93.8165
-85.1491
-76.5891
-68.3749
-60.6729
-53.5808
-47.1269
-41.2727
-35.9265
-30.9777
-26.3301
-21.9189
-17.6809
-13.5152
-9.26485
-4.75522
0.123475
5.32571
10.6217
15.6776
20.1961
24.0156
27.1197
29.5871
31.5311
33.0609
34.266
35.2146
35.958
36.5353
36.9769
37.3071
37.546
37.71
37.8124
37.8647
37.8762
37.8547
37.8066
37.7374
37.6514
37.5524
37.4434
37.3269
37.2052
37.0799
36.9527
36.825
36.698
36.5728
36.4504
36.3318
36.2175
36.1082
36.0041
35.9053
35.8116
35.7226
35.6378
35.5563
35.4774
35.4
35.3231
35.2455
35.1654
35.0807
34.9885
34.8847
34.763
34.611
34.398
34.0747
33.6265
33.1179
32.6311
32.1666
31.6286
30.8975
29.8853
28.5204
26.687
24.1734
20.6565
15.751
9.11906
0.578777
-10.0861
-22.2219
-35.1687
-47.6593
-58.5183
-66.5871
-71.0448
-71.531
-68.1608
-61.6193
-52.8343
-42.799
-32.3309
-21.936
-11.7622
-1.68593
8.29034
17.798
25.8894
31.6319
34.9166
36.431
36.994
37.1351
37.0826
36.8986
36.5893
36.1561
35.6099
34.9703
34.2633
33.5247
32.8072
32.1908
31.7772
31.687
32.0023
3.76713
3.39615
2.8287
2.00338
0.94487
-0.296252
-1.65672
-3.06732
-4.46536
-5.80752
-7.0731
-8.16057
-9.13855
-9.99381
-10.7323
-11.3658
-11.9145
-12.4104
-12.8998
-13.4433
-14.1099
-14.963
-16.045
-17.3687
-18.9201
-20.6704
-22.5892
-24.6551
-26.8618
-29.2209
-31.7602
-34.5205
-37.5523
-40.9129
-44.6626
-48.8611
-53.5633
-58.8143
-64.6423
-71.0496
-77.9991
-85.4038
-93.1204
-100.948
-108.633
-115.886
-122.393
-127.85
-131.98
-134.559
-135.418
-134.478
-131.724
-127.239
-121.158
-113.852
-105.616
-96.8308
-87.8654
-79.0371
-70.5899
-62.6891
-55.429
-48.839
-42.882
-37.4635
-32.4624
-27.7711
-23.3163
-19.0342
-14.8254
-10.5336
-5.98291
-1.06717
4.15815
9.45467
14.4908
18.9831
22.7873
25.8988
28.398
30.3937
31.9877
33.2629
34.2827
35.0954
35.7383
36.2411
36.6281
36.9195
37.1319
37.2791
37.3728
37.4226
37.4367
37.4217
37.3833
37.3262
37.2543
37.1708
37.0784
36.9794
36.8758
36.7691
36.6609
36.5525
36.4449
36.3392
36.2362
36.1367
36.0411
35.9498
35.863
35.7805
35.7022
35.6276
35.5562
35.4875
35.4206
35.3548
35.2892
35.2225
35.1531
35.0787
34.9962
34.9011
34.7837
34.6184
34.3652
34.0133
33.6059
33.1757
32.6812
32.0381
31.1751
30.0374
28.5508
26.5754
23.8712
20.0922
14.8438
7.79591
-1.23238
-12.288
-24.9204
-38.303
-51.1438
-62.3761
-70.6859
-75.2733
-75.7627
-72.1684
-65.3747
-56.2773
-45.9233
-35.1719
-24.5838
-14.345
-4.32244
5.63693
15.325
23.8633
30.167
33.9025
35.6799
36.3693
36.5651
36.53
36.3371
35.9938
35.501
34.8697
34.1194
33.276
32.3765
31.48
30.6792
30.0973
29.8723
30.1103
9.99018
9.71089
9.29745
8.67661
7.85209
6.85582
5.73238
4.53653
3.31942
2.13115
1.02543
-0.0557893
-1.02689
-1.90071
-2.69709
-3.44679
-4.19048
-4.9777
-5.86309
-6.89932
-8.12761
-9.56905
-11.2213
-13.0628
-15.0622
-17.1889
-19.4203
-21.748
-24.1787
-26.735
-29.4523
-32.3772
-35.5656
-39.081
-42.9904
-47.3603
-52.2509
-57.7096
-63.7635
-70.4112
-77.6146
-85.2752
-93.2422
-101.304
-109.199
-116.625
-123.264
-128.808
-132.982
-135.573
-136.441
-135.472
-132.683
-128.157
-122.082
-114.754
-106.516
-97.7492
-88.8197
-80.0416
-71.6513
-63.8052
-56.5895
-50.0294
-44.0888
-38.6756
-33.6703
-28.9662
-24.4882
-20.17
-15.9083
-11.5459
-6.91486
-1.93068
3.32205
8.58831
13.5469
17.9459
21.6738
24.7446
27.2415
29.2656
30.9083
32.2433
33.3275
34.2051
34.9111
35.474
35.9177
36.2621
36.5239
36.7172
36.8538
36.9435
36.9948
37.0146
37.0087
36.982
36.9386
36.882
36.815
36.7399
36.6589
36.5737
36.4859
36.3968
36.3075
36.2191
36.1324
36.0482
35.967
35.8891
35.8149
35.7443
35.6773
35.6137
35.5531
35.4952
35.4394
35.3854
35.3324
35.2797
35.2261
35.1702
35.1098
35.0416
34.9589
34.8418
34.6583
34.3983
34.0817
33.6982
33.1786
32.4554
31.4954
30.2635
28.6781
26.5798
23.7085
19.7053
14.1758
6.80467
-2.56831
-13.9287
-26.8747
-40.5428
-53.6719
-65.079
-73.5984
-78.3098
-78.7989
-75.1825
-68.2262
-58.9366
-48.3765
-37.4343
-26.7068
-16.423
-6.46363
3.41884
13.1709
22.0247
28.7998
32.9427
34.9591
35.7559
35.9904
35.9595
35.7464
35.3585
34.7958
34.0684
33.1944
32.1974
31.1141
30.0102
28.9939
28.2139
27.8326
27.9815
15.2051
15.0234
14.7752
14.3788
13.8223
13.1203
12.299
11.3938
10.4458
9.49609
8.56664
7.66049
6.78144
5.91452
5.03141
4.09329
3.0557
1.87489
0.515222
-1.04404
-2.80488
-4.75151
-6.85567
-9.08441
-11.4073
-13.8021
-16.2579
-18.7772
-21.3758
-24.0809
-26.9303
-29.9713
-33.2595
-36.8565
-40.8321
-45.2546
-50.1855
-55.6718
-61.738
-68.378
-75.5484
-83.1535
-91.0407
-99.0013
-106.777
-114.075
-120.585
-126.009
-130.083
-132.601
-133.421
-132.519
-129.833
-125.474
-119.64
-112.615
-104.734
-96.3599
-87.8352
-79.4504
-71.422
-63.8916
-56.9362
-50.5765
-44.7774
-39.4541
-34.4987
-29.8164
-25.3375
-20.9918
-16.6686
-12.2108
-7.47065
-2.40499
2.85774
8.0461
12.8638
17.1074
20.7081
23.7005
26.1676
28.1996
29.8752
31.2575
32.396
33.3306
34.0935
34.712
35.2089
35.6039
35.9135
36.1517
36.3304
36.4596