/*--------------------------------*- C++ -*----------------------------------*\
| =========                 |                                                 |
| \\      /  F ield         | OpenFOAM: The Open Source CFD Toolbox           |
|  \\    /   O peration     | Version:  2112                                  |
|   \\  /    A nd           | Website:  www.openfoam.com                      |
|    \\/     M anipulation  |                                                 |
\*---------------------------------------------------------------------------*/
FoamFile
{
    version     2.0;
    format      ascii;
    arch        "LSB;label=32;scalar=64";
    class       volScalarField;
    location    "0.12";
    object      pPrime2Mean;
}
// * * * * * * * * * * * * * * * * * * * * * * * * * * * * * * * * * * * * * //

dimensions      [0 4 -4 0 0 0 0];

internalField   nonuniform List<scalar> 
122250
(
57864.3
22251.2
16374.7
11237.3
9777.78
6665.67
6812.93
5925.13
5974.92
5678.32
5589.37
5465.57
5347.41
5240.09
5133.61
5019.58
4890.63
4730.22
57248.5
24087
15812.8
11231
9664.96
6675.82
6822.09
5945.06
5997.57
5693.18
5597.57
5472.24
5353.82
5247.77
5141.15
5026.94
4901.65
4774.6
59422.8
24705.9
15965.9
11431.1
9715.84
6765.46
6869.84
5992.67
6029.6
5710.58
5602.3
5474.43
5353.48
5245.81
5138.83
5026.87
4910.58
4793.55
63082
25931.7
17850.3
12210.7
9929.23
6894.08
6952.93
6041.44
6066.62
5731.41
5612
5482.9
5359.54
5250.34
5145.94
5040
4931.11
4826.4
64434
27666.8
21140.3
13436.8
10360.4
7100.05
7054.61
6095.99
6106.26
5756.95
5629.45
5499.22
5372.11
5260.63
5156.68
5054.46
4953.13
4858.61
64316.6
29266
25310.4
15257.4
10964.5
7445.21
7163.98
6164.12
6143.64
5783
5643.75
5513.46
5386.89
5273.9
5169.7
5071.22
4978.38
4892.68
63059.7
30710.5
28856.3
17315.9
11527.9
7912.12
7300.36
6224.83
6158.52
5804.31
5657.37
5527.56
5402.75
5291.19
5187.83
5092.75
5005.16
4924.55
61695.2
31264
30014.4
18675.9
11796.4
8335.17
7420.73
6264.44
6139.26
5808.82
5666.54
5538.78
5415.76
5307.45
5207.41
5114.81
5027.95
4949.01
61167.1
30364.6
28115.2
19242.7
11903.6
8617.29
7499.71
6294
6123.86
5803.71
5667.68
5546.39
5431.52
5328.82
5231.57
5139.12
5051.35
4972.12
62036.7
27887
23559.8
18224.3
11891
8723.08
7560.8
6337.45
6139.09
5808.1
5675.19
5558.12
5448.85
5348.02
5252.85
5162.31
5076.16
4997.57
62605
24934.1
18467.1
16012.9
11585.6
8373.06
7520.29
6372.78
6178.04
5843.45
5697.5
5575.7
5465.03
5363.25
5269.08
5181.93
5100.61
5024.97
62712.8
22582.8
14798.6
12552.8
10715.4
7916.91
7358.39
6399.82
6206.61
5876.81
5718.23
5588.42
5476.88
5377.45
5284.81
5201
5125.66
5054.97
63357.7
21953.6
12888.2
9292.6
9582.03
7333.47
7171.94
6403.8
6233.41
5917.25
5751.35
5612.52
5494.61
5396.61
5309.31
5229.79
5156.51
5085.95
66318.6
23214.5
11869.2
7337.45
8628.03
6757.91
6927.2
6328.5
6212.28
5957.29
5796.92
5662.36
5536.88
5429.9
5340.72
5264.1
5191.78
5119.74
70205.6
26492.3
11435
7257.62
7943.17
6501.83
6685.28
6210.77
6108.43
5915.29
5782.47
5678.4
5565.82
5458.72
5362.21
5281.89
5211.71
5143.6
72274.3
31173.1
12247.7
8280.2
7464.88
6698.02
6585.06
6261.69
6081.07
5899.57
5751.66
5638.77
5536.84
5444.05
5359.16
5283.46
5215.58
5154.92
85379.3
33606.3
16481
9499.96
7592.05
7094.51
6645.06
6348.56
6098.84
5906.5
5748.41
5621.4
5514.77
5423.72
5346.51
5278.68
5218.29
5166.17
93521.8
30280.1
19713
9998.26
7598.75
7172.97
6655.44
6357.66
6091.52
5893.8
5739.9
5618.08
5514.9
5428.16
5353.92
5287.78
5229.12
5177.16
81941.9
27532.1
16728.4
8583.37
6840.94
6550.11
6306.52
6054.87
5905.09
5768.9
5657.21
5567.08
5484.11
5411.95
5346.47
5285.76
5229.68
5178.15
74525.1
21712.6
14066.4
6509.6
6250.5
5714.45
6003.26
5706.47
5765.37
5619.17
5567.86
5496.02
5431.81
5373.65
5317.36
5263.48
5213.12
5167.16
68875.5
20324.6
9793.76
5190.77
6099.5
5384.16
5962.71
5591.26
5733.62
5546.27
5544.07
5472.96
5415.41
5360.69
5308.5
5259.57
5213.81
5172.79
66487
17293.1
7752.61
4816.7
6672.38
5488.64
6103.5
5582.4
5763.47
5518.43
5533.04
5450.8
5406.45
5357.95
5307.4
5258.3
5213.01
5175.41
65731.8
15512.3
9696.7
5921.21
7482.66
5873.12
6394.57
5597.52
5802.31
5499.22
5535.39
5442.3
5407.91
5360.25
5311.11
5261.74
5215.45
5176.96
61976.3
15864.2
13191.2
7805.92
7831.12
5998.85
6420.26
5539.46
5782.1
5451.12
5520.69
5410.05
5375.33
5327.36
5282.08
5238.89
5198.73
5163.13
56187.2
16544.5
17016.1
8594.56
7813.65
5971.75
6392.15
5488.58
5769.74
5431.91
5512.8
5391.35
5362.16
5316.2
5276.58
5237.46
5198.28
5162.21
54553.1
17557.8
17290.3
7966.37
7514.55
5792.53
6340.86
5458.87
5784.18
5432.22
5513.47
5386.58
5364.68
5318.44
5276.42
5235.29
5195.33
5159.36
53149.3
19887.1
15208.4
6901.69
7291.84
5668.58
6336.7
5433.31
5773.12
5400.8
5487.45
5359.27
5344.19
5299.36
5258.47
5220.22
5185.51
5154.06
49175.3
23067
12738.1
6509.82
7288.53
5658.36
6372.29
5433.4
5750.43
5361.88
5453.98
5329.96
5319.28
5275.56
5238.03
5202.83
5170.5
5140.71
44369.7
29016.7
12151.4
7058.14
7424.93
5729.11
6431.83
5428.63
5732.51
5348.29
5452.88
5329.25
5316.26
5270.08
5230.88
5194.12
5160.95
5131.6
43991.9
31295.4
12806.1
7317.96
7555.32
5747.68
6382.4
5362.62
5681.81
5310
5422.64
5304.83
5296.51
5252.4
5216.39
5181.85
5149.86
5120.52
57871.4
22688.5
17658.5
11392.2
9834.13
6699.37
6855.44
5962.31
5999.8
5709.98
5622.74
5492.05
5364.14
5249.4
5135.43
5017.73
4885.84
4724.64
57071.8
23718.3
16685
11271.3
9629.54
6671.78
6874.39
5991.2
6024.9
5724.39
5630.07
5499.04
5370.09
5255.09
5142.17
5025.38
4897.05
4768.67
58834.2
23296.9
16478.7
11576.5
9712.09
6712.45
6907.95
6031.89
6047.82
5738.3
5630.1
5497.55
5368.83
5254.87
5145.05
5032.02
4912.56
4792.94
62689.4
24362.2
18213.9
12467.3
10001.3
6887.67
6982.91
6073.49
6075.34
5758.54
5640.34
5506.43
5378.35
5266.55
5159.5
5050.83
4938.18
4829.33
65062
27120.8
21270
13672.8
10401.5
7098.94
7069.86
6125.87
6103.99
5776.04
5648.12
5516.64
5389.32
5278.87
5173.9
5068.64
4962.18
4861.51
65226.5
29817.7
24823.7
15446.9
10975.6
7414.03
7175.79
6185.29
6129.67
5786.58
5647.58
5519.81
5397.03
5291.26
5189.68
5087.72
4986.61
4892.35
63749.3
31142.9
28045.1
17530.1
11582.7
7894.44
7307.68
6244.86
6137.32
5793
5652.23
5527.82
5408.04
5302.71
5202.59
5103.34
5006.72
4918.15
61942.7
31156.5
29511.1
19055.7
11877.1
8349.25
7433.16
6295.65
6125.28
5786.37
5656.43
5534.84
5416.38
5311.43
5213.39
5118.04
5025.25
4941.58
61054.5
30491.3
27963.2
19908.6
12102.4
8757.75
7553.19
6340
6124.77
5784.18
5658.85
5535.75
5420.34
5319.79
5226.52
5136.15
5048.3
4968.2
61959
28791.3
24152.8
18925.2
12166.5
8895.5
7619.96
6381.89
6148.46
5807.06
5672.8
5543.58
5429.97
5331.43
5241.03
5154.74
5071.31
4994.63
63881.2
26100.1
19458.2
16554.4
11753.1
8558.18
7584.93
6416.09
6181.87
5842.98
5697.39
5565.07
5448.62
5348.15
5257.26
5173.06
5094.49
5020.9
64228.7
24035.4
16130.6
12849
10857.3
8141.16
7476.99
6445.14
6203.76
5869.65
5716.56
5584.03
5467.24
5366.86
5276.76
5195.78
5121.14
5049.44
64819.7
23469.3
14383.3
9822.42
9645.67
7487.69
7287.49
6433.19
6219.98
5898.44
5738.7
5604.44
5486.35
5388.14
5302.57
5226.09
5152.8
5081.9
67129.3
24311.8
13103
7910.42
8664.37
6829.43
6958.64
6308.32
6178.01
5924.31
5771.06
5648.81
5528.86
5421.77
5331.04
5252.96
5181.81
5114.8
71347
27648.7
12927.1
7838.28
8027.26
6556.8
6700.44
6212.34
6106.27
5914.08
5784.32
5680.54
5566.61
5454.7
5354.07
5271.25
5197.14
5129.32
73137.9
32177.6
13585.9
8692.75
7535.93
6746.55
6612.91
6288.27
6099.11
5914.15
5761.97
5643.66
5538.29
5445.14
5361.66
5284.09
5209.88
5145.21
83286.8
35925.7
17207.6
9653.31
7572.02
7082.92
6646.37
6354.04
6104.11
5909.9
5749.85
5621.34
5515.61
5427.24
5352.62
5284.92
5220.72
5165.96
91690.2
31255.6
19218.8
10556.2
7590.42
7161.83
6653.63
6345.85
6089
5893.53
5739.15
5617.98
5515.4
5430.88
5358.18
5291.87
5230.91
5176.96
80285.6
28658.2
16215.1
8729.55
6830.87
6523.16
6301.13
6055.94
5906.25
5769.93
5656.26
5565.89
5484.49
5413.5
5347.29
5285.87
5229.23
5177.24
75473.1
21769.3
13474.9
6565.72
6244.38
5728.4
6000.85
5704.85
5764.04
5620.12
5571.43
5500.41
5436.28
5377.75
5320.18
5265.24
5214.28
5168
69707.8
21390
10171.1
5111.62
6101.92
5392.14
5975.01
5603.81
5749.47
5563.1
5558.24
5481.26
5422.41
5367.09
5313.18
5263.38
5217.22
5174.74
66358.8
18871.5
8261.17
4745.19
6742.29
5511.86
6090.14
5576.51
5768.46
5523.12
5546.71
5459.8
5412.81
5363.28
5313.28
5263.76
5216.68
5177.62
66032.1
16675.4
10763
5918.65
7465.85
5825.3
6338.24
5557.57
5795.35
5504.74
5549.71
5453.12
5415.67
5369.65
5322.56
5272.67
5223.77
5183.13
63145.6
16579
13636.7
7693.33
7928.93
6011.58
6364.63
5504.91
5783.91
5472.44
5545.39
5435.74
5397.17
5346.22
5299.37
5254.25
5210.16
5171.51
57448.1
16967.6
17291.6
8653.94
7929.25
5952.11
6321.03
5460.23
5770.81
5442.72
5531.83
5417.37
5386.19
5335.13
5289.8
5249.84
5210.65
5172.99
54656.7
17609.7
17765
8070.23
7634.17
5771.77
6296.76
5439.01
5783.78
5434.75
5525.51
5401.62
5377.41
5329.19
5285.39
5243.72
5204.93
5169.49
51372.4
20494.5
14988.2
7067.84
7366.76
5678.71
6312.85
5410.8
5760.49
5400.09
5490.91
5365.27
5355.34
5315.95
5276.4
5234.92
5198.14
5166.29
46810.8
26939
12061.2
6683.44
7391.56
5635.84
6344.83
5400.99
5741.71
5366.89
5463.37
5344.17
5339.73
5296.51
5257
5218.24
5183.93
5152.89
42176
34949.7
11374.2
7252.57
7514.5
5693.82
6399.08
5407.51
5734.4
5362.58
5472.87
5351.6
5337.31
5286.65
5245.68
5208.19
5173.58
5141.5
41646.8
35205.7
11625.4
7419.57
7622.39
5738.7
6385.24
5367.71
5690.05
5325.4
5439.06
5319.45
5309.5
5263.34
5227.43
5193.69
5161.08
5129.14
59092.7
19576.7
18611.5
11599.3
9951
6776.28
6925.95
6018.22
6026.58
5711.38
5613.1
5480.34
5358.11
5246.65
5134.82
5018.12
4887.72
4725.58
58567.2
20453
17312.5
11509
9772.65
6789.07
6956.09
6040.26
6038.79
5714.81
5614.83
5485.19
5365.08
5254.79
5143.23
5026.74
4899.29
4769.39
60409.3
20139.8
16600.1
11912.4
9844.14
6812.17
6976.44
6063.18
6049.09
5722.76
5613.32
5485.46
5367.89
5260.01
5149.41
5035.93
4915.42
4792.94
63826.3
22066.6
18327.4
13090.3
10122.4
7021.48
7041.74
6093.62
6070.17
5747.37
5627.92
5500.56
5381.46
5273.29
5163.86
5053.58
4940.09
4828.57
66066.6
25902
21519.1
14365.4
10543.1
7276.41
7119.42
6128.42
6079.17
5761.98
5638.83
5514.12
5394.3
5286.97
5179.26
5072.37
4965.19
4861.42
66544.7
29227.5
24769.6
16007.8
11066.8
7554.56
7211.59
6165.18
6081.45
5769.8
5644.91
5523.09
5405.31
5301.62
5197.31
5091.88
4988.36
4890.78
65221.6
30597.6
27465.1
17852.1
11604.5
7972.12
7298.32
6204.92
6084.15
5773.04
5648.4
5531.44
5419.2
5316.9
5214.21
5109.74
5008.84
4916.35
63732.5
30263
28769.4
19363
11925.1
8403.14
7386.83
6259.61
6096.85
5771.52
5654.45
5541.05
5428.6
5325.99
5225.22
5124.01
5027.36
4940.13
63328.9
29198.4
27658.2
20115.8
12118.9
8739.46
7467.28
6314.44
6118.7
5777.73
5660.67
5541.6
5427.26
5327.25
5231.13
5135.94
5045.91
4965.17
64412.1
27306.1
24621.6
19115
12032.2
8787.85
7508.12
6358.75
6146.97
5802.39
5671.32
5544.6
5431.48
5334.1
5240.98
5150.91
5067.17
4992.21
65531.1
25032.9
20507.2
16648.9
11629.3
8433.99
7475.61
6394.69
6176.05
5833.32
5696.44
5568.1
5451.61
5351.53
5259.03
5171.48
5091.17
5019.27
65900.2
23119.3
17423.7
12769.4
10800.9
8043.3
7384.31
6427.19
6192.06
5858.51
5716.65
5590.08
5473.26
5372.92
5281.73
5196.85
5117.4
5044.94
65566.5
22758.2
15220.1
9683.8
9620.18
7401.89
7202.36
6384.97
6192.06
5888.05
5738.87
5608.51
5491.53
5392.97
5304.38
5222.95
5146.58
5075.83
67821.3
23989.1
13689
8039.32
8688.05
6777.48
6881.75
6245.32
6148.58
5913.07
5768.07
5644.92
5524.32
5417.45
5325.58
5246.85
5174.82
5106.39
74617.3
27828.4
13279.1
8003.21
8054.78
6515.98
6667.19
6196.98
6096.26
5911.49
5782.47
5675.22
5559.81
5450.56
5348.79
5262.06
5186.69
5119.12
77554.2
32885
14382
8881.49
7515.94
6779.44
6593.85
6292
6108.03
5933.96
5777.85
5651.26
5540.18
5445.4
5361.09
5283.12
5209.78
5143.37
86799.9
36004.5
17780.4
9768.63
7616.29
7121.69
6659.31
6366.77
6110.82
5915.42
5753.81
5625.84
5520.12
5432.66
5359.33
5293.73
5229.51
5169.91
92259.9
31448.8
19758.3
10482.7
7595.48
7150.42
6637.87
6337.79
6080.8
5889.63
5737.48
5618.77
5517.86
5433.9
5360.84
5295.14
5233.86
5178.23
81717.6
30238
17325.7
8880.67
6782.68
6515.19
6300.5
6061.15
5905.31
5770.77
5653.91
5566.59
5486.06
5415.51
5348.75
5286.8
5229.55
5177.81
75942.7
22992.6
13075.6
6601.71
6192.1
5665.4
5991.38
5699.7
5765.75
5626.27
5577.46
5506.55
5442.53
5382.81
5323.25
5268.27
5217.2
5170.4
67442.6
20481.5
10319.1
5235.04
6081.58
5434.95
5985.56
5610.53
5753.14
5574.83
5566.21
5488.56
5430.5
5375.11
5320.65
5270.76
5223.97
5180.84
63721.8
18350.9
8102.37
4868.39
6705.38
5487.96
6065.3
5546.54
5751.25
5516.21
5544.56
5456.19
5409.25
5360.36
5312.57
5267.1
5222.16
5182.83
65736.8
16425.4
10084.2
5934.79
7424.85
5786.24
6253.26
5497.03
5762.66
5480.88
5539.78
5443.53
5406.4
5360.84
5315.09
5269.43
5224.09
5184.26
61706.6
16529.9
13868.1
7807.67
7880.62
5938.52
6296.03
5453.63
5760.99
5463.09
5540.65
5439.02
5405.24
5351.74
5302.47
5258.3
5214.61
5174.23
55418.1
18393.3
17781.6
8594.99
7874.33
5922.43
6264.71
5436.69
5765.56
5440.44
5530.07
5421.52
5395
5341.23
5293.38
5252.31
5212.57
5175
53836.6
19479.3
18470.4
8043.91
7602.99
5776.21
6282.75
5430.19
5771.71
5429.89
5524.79
5405.07
5380.12
5327.54
5283.04
5242.55
5204.86
5169.25
50388.6
22354.8
15227.9
6923.4
7329.27
5686.12
6328.39
5418.71
5761.18
5396.44
5493.36
5374.82
5363.37
5319.21
5277.12
5234.14
5196.13
5164.23
45279.6
28596.2
12250.7
6449.21
7285.11
5617.08
6353.17
5399.34
5730.5
5354.6
5464.96
5354.08
5350.65
5305.64
5261.79
5221.64
5189.27
5159.93
40527
36139.7
11629.5
6956.05
7456.64
5636.64
6356.88
5375.54
5703.67
5346.69
5476.6
5370.49
5365.91
5314.34
5264.16
5220.79
5188.91
5158.65
39971.6
36758
11706.6
7124.39
7569.64
5648.91
6332.74
5343.98
5670.13
5319.26
5445.62
5334.91
5330.79
5286.3
5244.89
5206.13
5173.13
5141.62
58995.5
16993
17692.3
11516.3
9682.22
6767.67
6924.87
6033.44
6045.98
5720.61
5610.42
5470
5348.6
5237.39
5127.38
5012.31
4884.51
4723.62
58738
18588.1
16561.9
11572.8
9603.05
6823.98
6970.45
6049.81
6049.99
5716.07
5601.5
5466.48
5350.23
5241.91
5133.2
5019.45
4894.99
4767.78
60739.7
19518.2
15830.9
12050.9
9770.07
6864.99
6974.82
6055.38
6043.69
5709.37
5594.64
5465.3
5353.7
5248.74
5141.75
5030.75
4912.88
4792.44
64068.2
22019.4
17555.5
13223.5
10136.5
7027.79
7008.96
6073.61
6052.6
5718.3
5601.86
5479.15
5371.63
5268.07
5160.23
5049.62
4936.38
4826.45
66223.5
25648.7
20764.7
14499.8
10651.4
7295.83
7072.28
6106.52
6064.06
5733.24
5611.96
5493.53
5387.69
5285.67
5178.3
5070.23
4962.65
4860.06
66413.1
28684.8
24191.8
16157.9
11235.8
7586.66
7162.86
6154.74
6071.63
5745.03
5623.43
5507.55
5401.66
5301.64
5196.19
5090.14
4987.42
4891.4
65374.1
29987.7
27180.7
18072
11853.9
7970.63
7251.46
6202.86
6082.05
5757.03
5637.28
5521.51
5413.72
5313.91
5211.59
5108.97
5010
4918.94
64438.4
29828.5
28586.2
19631.9
12153.7
8342.83
7335.97
6256.91
6100.28
5774.19
5656.59
5543.03
5431.31
5326.97
5224.28
5124.69
5029.56
4942.56
64107.1
28909.5
27649.1
20456.2
12221.4
8584.83
7393.43
6304.96
6122.87
5791.28
5674.77
5557.7
5441.39
5336.13
5234.66
5137.81
5046.77
4964.57
64939.7
27189.6
24604.8
19308.4
12032.6
8595.49
7420.36
6339.82
6148.37
5808.92
5685.45
5562.3
5446.22
5345.88
5248.72
5154.64
5067.49
4989.47
65638.3
24681.2
20134.5
16648.8
11499.6
8213.56
7386.05
6364.75
6167.39
5829.89
5698.6
5573.93
5460.03
5363.3
5269.22
5177.99
5093.6
5017.55
66437.4
22509.5
16749.7
12769.4
10693.6
7819.8
7267.64
6378.49
6176.95
5854.95
5717.04
5591.36
5479.24
5384.65
5293.2
5204.88
5122.1
5047.19
66954.9
21690.3
14662.8
9561.93
9536.08
7201
7067.67
6333.42
6176.82
5880.12
5736.67
5608.32
5496.34
5402.35
5312.92
5228.95
5150.04
5076.57
68960.5
22973.3
13119.4
7904.98
8594.61
6685.11
6807.55
6198.9
6132.32
5902.39
5762.91
5634.67
5516.8
5417.59
5328.59
5247.74
5171.32
5100.84
75700.3
26290.5
12968.6
7803.68
7958.48
6474.58
6630.81
6169.78
6088.91
5909.15
5774.93
5656.79
5539.72
5438.11
5345.46
5261.18
5183.85
5114
84100.8
30371.2
14079
8759.01
7368.04
6700.48
6560.12
6273.58
6103.23
5937.63
5781.76
5654.31
5542.31
5446.84
5360.95
5281.76
5207.43
5139.16
95520.5
33435.3
16677.7
9994.39
7611.12
7101.22
6662.6
6369.37
6107.22
5912.01
5752.84
5629.4
5527.24
5440.11
5365.3
5297.77
5232.78
5172.84
96967.5
29201.5
19361.7
10810.1
7587.04
7121.23
6644.62
6339.46
6080.33
5888.11
5736.83
5621.1
5522.19
5437.18
5362.71
5297.21
5236.03
5180.28
83747.2
28826.2
18826.2
8908.22
6810.42
6471.27
6312.2
6067.97
5909.1
5773.4
5656.64
5570.99
5491.61
5422.97
5355.66
5292.27
5233.24
5180.01
76644.9
21968.9
13521.7
6746.84
6167.34
5659.31
5997.12
5694
5764.27
5628.19
5579.02
5507.85
5441.94
5383.66
5325.59
5270.98
5219.91
5174.1
65292
19561.9
10390
5299.85
6103.56
5492.01
5967.72
5586.22
5721.91
5562.48
5556.85
5481.84
5424.7
5370.44
5318.45
5270.19
5224.8
5183.42
59709.2
17858.6
8993.58
5330.7
6760.87
5570.99
6065.07
5525.56
5721.54
5505.36
5534.03
5449.17
5401.71
5352.83
5307.91
5266.42
5225.61
5187.95
61542.9
15241.3
10627.9
6204.54
7507
5854.96
6252.92
5478.13
5742.42
5465.45
5525.57
5431.23
5397.62
5352.43
5307.09
5264.01
5221.64
5183.41
56133.2
15588.4
14164.3
7910.49
8103.47
5974.89
6285.16
5436.44
5756.5
5461.75
5528.95
5430.17
5401.22
5347.37
5295.27
5249.25
5208.61
5172.36
52481.9
17350.5
17557.3
8479.79
8081.72
5953.87
6274.33
5445.33
5772.87
5444.25
5522.79
5414.95
5393.11
5339.88
5290.18
5245.84
5206.32
5170.93
52751.9
19338
17677.8
7904.35
7740.26
5807.88
6298.01
5449.95
5767.84
5417.46
5513.14
5401.25
5380.99
5327.7
5281.72
5241.71
5205.21
5171.25
50870.3
21431
15462.6
6818.81
7524.3
5672.2
6328.9
5409.16
5741.96
5386.71
5494.84
5377.39
5359.97
5313.86
5274.91
5239.25
5203.97
5170.22
44840.6
25014.2
12952.5
6294.11
7347.61
5537.37
6323.72
5364.47
5709.78
5352.84
5468.88
5352.94
5344.15
5303.52
5266.57
5229.08
5193
5159.42
39991.7
31390.8
12484.5
6555.93
7454.9
5570.84
6292.15
5336.68
5686.55
5337.54
5468.59
5357.98
5351.93
5306.68
5268.16
5233.16
5199.87
5166.72
39619.9
34533.7
12839.7
6793.43
7580.14
5565.12
6252.83
5295.87
5647.68
5305.62
5438.9
5330.1
5327.87
5284.02
5247.7
5214.5
5180.98
5147.58
58457.4
17333.4
16817.4
11700.1
9587.55
6628.72
6898.15
6053.48
6076.86
5741.83
5623.94
5480.6
5355.56
5236.09
5121.26
5007.86
4884.46
4723.86
58084
19370.7
15860.3
11744.4
9463.42
6663.16
6930.36
6058.94
6079
5745.31
5627.26
5482.43
5356.62
5238.69
5125.2
5013.93
4893.96
4767.89
59744.4
20540.3
15581.1
12234.1
9602.54
6656.31
6926.33
6048
6075.96
5741.71
5623.6
5481.14
5356.87
5242.9
5132.65
5022.28
4907.68
4789.56
62813.3
22848.1
17209.8
13288.9
10056.2
6853.91
6942.98
6046.84
6077.53
5741.65
5623.68
5487.91
5368.45
5257.83
5147.58
5037.88
4927.26
4820.24
65002.8
25693.4
20211.4
14587.9
10594.3
7143.48
7002.9
6073.51
6085.21
5749.15
5629.79
5499.6
5384.08
5276.65
5167.3
5059.99
4954.11
4854.18
65689.4
27555.8
23526.8
16213.4
11176.2
7451.71
7080.17
6129.61
6099.83
5762.69
5638.09
5512.19
5400.58
5295.42
5188.04
5084.37
4983.21
4888.97
65357.1
28336.8
26572.4
18065.3
11792.8
7836.31
7163
6183.15
6107.63
5774.03
5646.54
5523.44
5413.63
5310.39
5205.55
5105.73
5010.26
4920.84
65559.6
28532.7
28252.2
19603.9
12096.6
8183.08
7242.66
6231.81
6118.72
5786.04
5660.05
5540.29
5430.93
5327.03
5222.87
5124.54
5032.98
4948.44
66081.8
28359.5
27426.9
20572.9
12125.4
8425.54
7307.12
6275.27
6138.41
5802.21
5678.16
5560.76
5448.05
5342.99
5240.48
5144.07
5054.82
4973.29
67126.8
27316.9
24697.4
19601.2
11864.8
8377.37
7355.58
6319.46
6159.68
5821.95
5694.21
5570.62
5457.5
5354.91
5255.02
5161.01
5074.11
4994.73
67308.9
25752.2
20256.2
16919.4
11317.7
7974.52
7314.57
6336.08
6170.24
5843.56
5709.31
5580.77
5469.56
5370.65
5272.45
5179.04
5095.25
5018.86
66831
23776.8
16525.7
12857
10511.7
7651.35
7195.72
6329.77
6166.71
5859.61
5723.11
5593.58
5481.43
5386.27
5294.09
5205.11
5122.84
5046.69
67012.3
22446
14276.8
9587.44
9441.11
7142.7
7037.15
6280.69
6156.79
5872.59
5732.37
5602.62
5490.22
5396.76
5308.43
5225
5147.07
5073.52
69225.6
22907.6
12974.8
8053.2
8598.82
6681.24
6800.73
6185.31
6121.06
5889.54
5750.35
5619.44
5504.12
5408.76
5320.86
5238.65
5163.61
5095.24
73903
26436.4
13031.8
7766.6
7852.61
6445.99
6608.88
6161.76
6090.81
5903.93
5758.42
5631.83
5518.43
5422.88
5334.61
5254.15
5179.52
5111.63
85594.6
30815.3
13894.9
8733.45
7322.4
6697.35
6556.22
6257.13
6085.84
5919.26
5764.56
5642.1
5533.97
5441.83
5357.3
5280.23
5209.28
5143.63
92442.3
34463.5
16215.8
10099
7622.5
7095.51
6668.14
6363.24
6100.16
5909.02
5753.13
5629.7
5527.64
5439.81
5363.03
5295.35
5233.33
5175.01
100111
30513.3
18019.8
10483.1
7578.97
7153.88
6657.22
6351.43
6090.91
5895.4
5740.8
5620.61
5520.44
5434.99
5359.77
5293.83
5233.95
5178.74
87834.1
25442.7
21187.6
8977.25
6832.44
6509.43
6324.87
6072.3
5913.89
5774.62
5655.05
5569.75
5493.55
5425.29
5356.01
5290.52
5231.27
5177.92
75367.5
22884.2
13816.8
6347.58
6132.72
5676.34
6005.74
5692.37
5761.96
5624.45
5571.91
5505.38
5440.36
5381.89
5323.24
5268.62
5218.6
5174.1
64713.5
19409.7
10238
5196.02
6249.29
5569.26
5941.39
5578.85
5701.36
5542.15
5538.14
5470.48
5415.2
5362.72
5311.77
5265.19
5221.52
5181.11
56908.1
17427
10264.2
5845.08
6789.23
5704.97
6081.84
5522.77
5695.18
5494.4
5517.97
5439
5391.19
5342.45
5295.72
5253.69
5215.08
5179.73
57249.5
15143.7
11940.4
6872.08
7657.46
5934.91
6273.82
5466.75
5718.36
5459.72
5511.07
5420.54
5390.6
5345.27
5297.09
5253.15
5213.69
5178.86
55057
15096.4
15004.9
8288.51
8262.47
5930.97
6295.91
5429.82
5748.33
5462.69
5517.81
5418.58
5395.18
5344.21
5291.87
5246.56
5207.58
5172.42
52493.4
16537.5
16992.4
8593.51
8108.16
5862.43
6292.04
5432.92
5759.91
5438.72
5507.37
5398.84
5381.49
5333.37
5287
5244.19
5205.86
5171.76
52293.5
19824.5
16818.4
8242.35
7816.99
5764.74
6305.39
5440.99
5749.2
5405.62
5499.74
5390.31
5374.65
5325.76
5281.92
5241.07
5203.6
5171.19
51785.9
20780.3
15329.2
7033.99
7605.42
5691.54
6325.82
5400.75
5727.11
5380.95
5490.38
5374.05
5357.81
5311.41
5272.72
5236.46
5201.5
5170.02
46325.5
24362.9
13330
6689.37
7361.23
5498.94
6323.11
5352.65
5712.35
5363.02
5481.77
5362.63
5350.13
5305.59
5266.42
5228.08
5191.86
5159.53
41586.2
32366.9
13652.5
7170.82
7479.66
5537.79
6279.8
5321.28
5691.94
5343.85
5474.69
5363.3
5355.58
5312.43
5277.57
5239.57
5198.6
5162.23
41442.6
35688.2
14795.6
7465.15
7501.16
5502.44
6221.04
5262.22
5641.42
5300.79
5438.56
5333.09
5328.31
5283.44
5248.82
5213.64
5176.31
5142.4
58007.1
21036.4
16992.7
11862.1
9658.45
6609.8
6870.27
6015.14
6051.39
5721.81
5612.62
5464.84
5333.15
5216.81
5111.85
5007.91
4888.52
4728.39
57625.5
22422.9
16328.4
11807.2
9484.9
6614.99
6904.88
6036.24
6065.98
5732.94
5619.13
5468.38
5336.5
5222.82
5119.32
5016.05
4899.57
4774.04
59369.9
22572.4
16393.5
12440.9
9575.18
6599.93
6891.31
6037.07
6076.38
5738.38
5616.56
5467.75
5339.96
5229.92
5127.07
5023.63
4912.31
4794.74
62687.8
23529
18124.5
13575.2
9947.51
6775.87
6919.61
6045.58
6093.23
5748.49
5623.07
5478.39
5353.3
5245.86
5142.4
5039.2
4931.8
4825.75
65229.7
25265.9
21110
14861.8
10412
7039.8
6987.66
6092.7
6114.36
5761.62
5636.97
5497.05
5372.93
5266.18
5161.53
5058.88
4956.42
4857.86
66524.1
26424.4
24467.2
16463.4
10935.4
7358.48
7069.33
6160.12
6136.68
5786.34
5658.02
5519.35
5397.89
5291.03
5185.92
5083.38
4983.89
4890.39
66854.4
26886.9
27363.6
18175.9
11520.5
7755.76
7130.37
6203.83
6145.73
5806.86
5675.79
5536.67
5417.03
5312.82
5209.42
5108.13
5011.55
4921.76
66905.3
27009.4
28947.1
19415.4
11769.2
8131.33
7196.76
6230.6
6148.3
5816.53
5686.35
5553.16
5434.86
5330.55
5228.92
5129.66
5036.57
4950.85
66903
27208.8
28041
20223.6
11765.8
8364.05
7272.78
6252.8
6151.68
5826.83
5696.44
5570.81
5454.21
5348.22
5246.98
5149.93
5059.21
4977.41
67754.4
27089.4
25731.9
19498.4
11578.6
8324.12
7312.09
6280.99
6165.65
5842.92
5709.19
5584.84
5470.62
5365.19
5263.29
5168.25
5080.34
5000.7
67560
26669.7
22172.7
17133.4
11115.3
7945.98
7274.25
6303.78
6178.54
5862.22
5723.67
5595.01
5482.52
5379.77
5279.14
5185.95
5101.72
5024.41
66927.4
25642.4
18825.9
13138.2
10281.3
7571.08
7152.22
6297.69
6172.32
5870.71
5729.88
5599.47
5488.81
5391.42
5296.76
5207.08
5124.38
5047.96
66773.6
24672.9
16389.2
9993.23
9283.51
7022.24
6996.85
6248.68
6156.42
5880.89
5735.66
5603.16
5491.9
5397.65
5309.15
5225.93
5147.53
5072.93
68743.1
24744.9
14643.2
8115.61
8543.26
6552.04
6764.45
6166.82
6117.87
5885.92
5744.01
5614.84
5503.26
5408.43
5320.13
5238.5
5163.31
5093.73
72619.7
28518.7
13946.1
7668.92
7850.95
6415.48
6597.75
6161.13
6078.24
5884.79
5741.95
5619.66
5511.51
5417.45
5330.27
5251.82
5179.15
5112
79985.3
33148.3
14286
8833.43
7401.95
6730.34
6565.28
6249.57
6065.85
5897.5
5748.83
5630.61
5528.32
5436.76
5351.31
5274.67
5205.44
5141.89
91807.5
35059.9
16248.3
10247
7591.56
7097.43
6639.2
6341.02
6091.74
5904.34
5752.17
5630.3
5527.74
5437.01
5357.54
5288.84
5227.81
5171.78
101065
33760.3
18687.2
10705.5
7686.17
7144.82
6686.59
6381.45
6109.8
5905.58
5744.97
5620.06
5518.11
5431.76
5356.85
5291.19
5232.06
5177.92
83227.4
25403.1
20403.3
8734.44
6848.15
6540.36
6329.03
6078.6
5919.74
5777.48
5655.6
5566.28
5487.55
5417.52
5348.67
5283.76
5225.78
5173.67
72619.3
24294.7
13642.3
6240.51
6213.74
5734
6030.59
5696.43
5759.54
5622.32
5568.41
5501.93
5435.74
5377.11
5318.16
5263.91
5215.01
5171.42
64313.7
17914.9
10484
5407.83
6270.67
5603.35
5981.61
5609.77
5698.58
5536.82
5527.96
5462.63
5405.8
5354.14
5305.14
5259.17
5215.47
5175.47
56359.8
16818.4
10811.7
6285.9
6777.81
5732.42
6080.22
5560.25
5685.64
5483.22
5501.58
5431.87
5385.18
5333.56
5285.17
5244.48
5207.99
5174.64
56172
15286.9
12826.8
7280.03
7658.47
5858.73
6259.5
5496.96
5711.19
5454.73
5497.01
5414.58
5380.12
5333.02
5286.5
5246.49
5209.69
5175.66
55692.8
15368.4
15557.8
8635.7
8173.32
5890.18
6313.08
5438.29
5731.86
5450.59
5502.39
5405.53
5381.27
5335.1
5290.51
5249.52
5210.08
5173.08
52428
18046.6
16653.9
9052.18
8183.3
5838.9
6293.52
5414.52
5741.59
5425.6
5494.9
5390.85
5375.6
5329.77
5284.59
5242.32
5203.98
5169.24
51231.8
22121.2
16287.1
8248.54
7929.89
5713.4
6259.36
5434.93
5751.39
5409.37
5498.46
5389.69
5374.9
5327.35
5282.61
5240.81
5202.85
5169.15
51259.1
22632.3
14702.9
7167.97
7625.11
5677.41
6313.74
5426.83
5745.63
5398.66
5498.35
5378.04
5355.73
5303.95
5262.36
5226.15
5193.73
5164.29
47869.4
25293.4
12989.5
6840.96
7343.09
5578.17
6360.59
5377.35
5734.25
5379.59
5481.42
5358
5338.79
5286.33
5243.92
5208.38
5175.62
5145.63
43474.8
31417.6
13979.4
6987.82
7385.32
5600.8
6302.68
5341.61
5709.36
5348.05
5457.29
5344.26
5329.36
5274.56
5234.73
5204.58
5174.89
5144.55
43089.3
33485.2
15688.8
7118.96
7650.52
5607.36
6214.69
5280.73
5657.38
5304.35
5419.85
5310.41
5302.93
5253.12
5215.44
5186.69
5160.14
5130.59
57539.1
23943.8
17014.1
12621.1
9548.94
6607.66
6907.88
6036.97
6049.24
5718.75
5609.2
5468.44
5341.28
5230.72
5126.65
5021.26
4897.25
4730.62
57157.2
24445.7
16665.3
12786.6
9440.96
6641.17
6938.45
6054.49
6064.31
5733.51
5620.32
5476.34
5348.32
5239.1
5135.69
5030.59
4910.13
4778.72
58877.2
22954.4
16956.8
13135.4
9597.96
6655.54
6924.81
6057.41
6072.41
5736.54
5618.42
5473.52
5349.37
5244.03
5143.02
5039.77
4926.38
4804.67
62536.1
22774.4
19053.5
14261.3
10026.2
6844.02
6956.01
6074.78
6100.86
5752.81
5629.05
5483.55
5361.59
5258.27
5158.76
5058.15
4950.23
4841.43
64872
24347.4
22305.6
15609.7
10520.7
7136.13
7028.41
6124.19
6140.93
5781.71
5650.92
5502.96
5379.79
5274.83
5173.89
5074.81
4973.64
4874.33
65766
26363.5
25808.9
17128
11035.9
7449.75
7114.11
6189.45
6183.84
5825.3
5684.48
5529.31
5401.29
5293.52
5192.02
5093.79
4996.57
4903.91
66262.5
27535.1
28665
18534.3
11551.8
7834.74
7182.93
6228.97
6199.56
5860.56
5714.87
5555.07
5421.73
5311.65
5211.76
5114.54
5019.16
4930.22
66496.1
28019
29929
19580.3
11740.5
8201.76
7251.67
6242.09
6184.5
5864.26
5725.35
5572.4
5439.83
5329.95
5230.3
5133.61
5040.39
4954.62
66024.7
28777.1
29021.9
20283.1
11756.9
8428.49
7318.63
6256.8
6170.79
5855.73
5721.33
5582.04
5457.6
5350.58
5250.56
5154.7
5064.72
4982.68
66158.2
29528.5
26517.2
19558.7
11622.3
8406.17
7351.85
6282.58
6178.1
5861.83
5721.41
5588.75
5472.32
5369.36
5269.39
5174.69
5086.62
5007
66014.7
29316.6
22878.6
17267.3
11204.3
8016.53
7308.93
6318.84
6199.77
5878.41
5728.67
5596.74
5483.73
5382.37
5283.72
5191.51
5107.04
5029.63
66018.3
28284
19889
13334
10406.3
7610.6
7168.75
6318.97
6203.25
5893.02
5736.13
5602.97
5489.95
5389.81
5295.9
5208.83
5127.44
5051.19
65969.7
27413
17510.7
9979.57
9329.57
6983.21
6991.18
6268.03
6184.45
5908.37
5750.75
5616.41
5502.72
5404.6
5313.48
5230.41
5152.4
5077.39
67791.6
26965
15202.3
7901.26
8463.2
6494.74
6764.13
6182.15
6129.76
5895.14
5749.82
5626.9
5520.16
5427.03
5337.32
5252.84
5174.27
5101.53
71939.1
30104.9
14445
7613.31
7821.96
6399.33
6593.13
6151.35
6065.52
5876.19
5735.45
5622.6
5521.34
5432.81
5346.72
5265.57
5189.71
5120.74
77692.2
33438
14639.4
8827.65
7363.5
6724.27
6563.37
6240.17
6054.57
5888.74
5741.08
5626.73
5528.6
5440.63
5357.03
5281.24
5212.17
5147.73
93980.1
32539.8
16626.6
10157.8
7620.36
7097.63
6640.21
6337.08
6086.32
5900.37
5749.16
5627.28
5524.25
5432.38
5352.73
5286.59
5228.93
5174.37
99872.7
33351.1
18198.4
10753
7731.68
7225.27
6699.25
6380.67
6104.17
5904.47
5748.02
5621.28
5516.87
5429.23
5354.38
5289.5
5231.43
5177.81
82461.4
25621.1
19160.9
8616.12
6896.75
6574.14
6329.46
6075.88
5919.36
5780.33
5660.02
5566.52
5484.22
5412.87
5345.41
5282.35
5225.19
5173.3
72467.4
22760.2
12714.5
6228.05
6282.98
5721.94
6033.19
5700.03
5759.32
5623.26
5567.35
5499.02
5432.71
5373.38
5315.61
5262.77
5214.76
5171.41
64746.9
17430.8
10563.7
5449.76
6129.66
5612.14
6015.01
5659.72
5721.94
5548.83
5528.96
5465.59
5409.32
5355.27
5303.31
5257.26
5213.9
5173.96
57500.3
16467.3
10469.7
5968.87
6726.84
5718.48
6114.9
5621.67
5708.92
5496.75
5501.47
5432.27
5384.48
5332.15
5283.5
5241.69
5205.64
5174.55
56873.2
15534.6
12535.4
7156.37
7743.19
5926.51
6327.29
5557.35
5716.45
5462.68
5496.67
5412.76
5370.88
5322.1
5278.38
5244.1
5211.63
5177.88
55626.9
15875.8
15637.1
8686.11
8322.72
6034.91
6392.23
5476.38
5732.88
5453.67
5499.76
5397.17
5364.34
5320.08
5281.41
5245.27
5208.31
5172.71
51507.8
18796.5
16843.1
9046.24
8224.79
5956.4
6353.64
5437.89
5749.09
5429.2
5492.26
5379.7
5356.1
5313.28
5275.7
5240.77
5205.54
5171.6
50212.5
22743.8
16455.5
8060.75
7897.52
5780.21
6315.53
5452.67
5761.6
5410.68
5492.74