/*--------------------------------*- C++ -*----------------------------------*\
| =========                 |                                                 |
| \\      /  F ield         | OpenFOAM: The Open Source CFD Toolbox           |
|  \\    /   O peration     | Version:  2112                                  |
|   \\  /    A nd           | Website:  www.openfoam.com                      |
|    \\/     M anipulation  |                                                 |
\*---------------------------------------------------------------------------*/
FoamFile
{
    version     2.0;
    format      ascii;
    arch        "LSB;label=32;scalar=64";
    class       volScalarField;
    location    "0.12";
    object      s;
}
// * * * * * * * * * * * * * * * * * * * * * * * * * * * * * * * * * * * * * //

dimensions      [0 0 0 0 0 0 0];

internalField   nonuniform List<scalar> 
122250
(
1
1
1
1
1
1
1
1
1
1
1
1
1
0.999999
0.999997
0.999992
0.99998
0.999965
1
1
1
1
1
1
1
1
1
0.999999
0.999999
1
1
0.999999
0.999998
0.999997
0.999992
0.999964
1
1
1
1
1
1
1
1
0.999998
0.999997
0.999996
0.999999
0.999999
0.999999
0.999998
0.999997
0.999993
0.999824
1
1
1
1
1
1
1
0.999998
0.999994
0.999992
0.999992
0.999995
0.999998
0.999997
0.999997
0.999993
0.999986
0.999697
1
1
1
1
1
1
0.999999
0.999997
0.999993
0.999992
0.999992
0.999989
0.999995
0.999995
0.999996
0.999984
0.999963
0.999716
1
1
1
1
1
0.999999
0.999996
0.999996
0.999998
0.999999
0.999999
0.999991
0.999982
0.999975
0.999982
0.999992
0.999979
0.999842
1
1
1
0.999999
0.999998
0.999997
0.999996
0.999997
1
1
1
1
0.999991
0.999975
0.99995
0.999966
0.999996
0.999994
1
1
1
0.999999
0.999998
0.999997
0.999997
0.999998
1
1
1
1
1
0.999998
0.999992
0.999972
0.999976
0.999995
1
1
1
0.999999
0.999999
0.999998
0.999999
1
1
1
1
1
1
1
0.999999
0.999994
0.999971
0.999976
1
1
1
1
1
0.999999
1
1
1
1
1
1
1
1
1
0.999997
0.999958
0.999926
1
1
1
1
1
1
1
1
1
1
1
1
1
1
1
1
0.99999
0.999897
1
1
1
1
1
1
1
1
1
1
1
1
1
1
1
1
1
0.999967
1
1
1
1
1
1
1
1
1
1
1
1
1
1
1
1
1
0.999997
1
1
1
1
1
1
1
1
1
1
1
1
1
1
1
1
1
1
1
1
1
1
1
1
1
1
1
1
1
1
1
1
1
1
1
1
1
1
1
1
1
1
1
1
1
1
1
1
1
1
1
1
1
1
1
1
1
1
1
1
1
1
1
1
1
1
1
1
1
1
1
1
1
1
1
1
1
1
1
1
1
1
1
1
1
1
1
1
1
1
1
1
1
1
1
1
1
1
1
1
1
1
1
1
1
1
1
1
1
1
1
1
1
1
1
1
1
1
1
1
1
1
1
1
0.999999
0.999998
1
1
1
1
1
1
1
1
1
1
1
1
1
1
1
1
1
0.999999
1
1
1
1
1
1
1
1
1
1
1
1
1
1
1
1
1
1
1
1
1
1
1
1
1
1
1
1
1
1
1
1
1
1
1
1
1
1
1
1
1
1
1
1
1
1
1
1
1
1
1
1
0.999999
0.999999
1
1
1
1
1
1
1
1
1
1
1
1
1
1
1
1
1
0.999999
1
1
1
1
1
1
1
1
1
1
1
1
1
1
1
1
1
1
1
1
1
1
1
1
1
1
1
1
1
1
1
1
1
1
1
1
1
1
1
1
1
1
1
1
1
1
1
1
1
1
1
1
1
1
1
1
1
1
1
1
1
1
1
1
1
1
1
1
1
1
1
1
1
1
1
1
1
1
1
1
1
1
1
1
1
1
1
1
1
0.999999
1
1
1
1
1
1
1
1
1
1
1
1
1
1
0.999999
0.999995
0.999983
0.999963
1
1
1
1
1
1
1
1
1
1
1
1
1
1
1
1
0.999999
0.999995
1
1
1
1
1
1
1
1
1
1
0.999999
0.999999
1
1
1
1
0.999999
0.999997
1
1
1
1
1
1
1
1
1
1
0.999999
0.999999
0.999999
0.999999
1
1
1
0.999997
1
1
1
1
1
1
1
1
1
1
1
0.999999
0.999999
0.999998
0.999998
0.999999
1
0.999996
1
1
1
1
1
1
1
1
1
1
1
0.999999
0.999998
0.999996
0.999995
0.999998
0.999999
0.999999
1
1
1
1
1
1
1
1
1
1
1
1
0.999999
0.999997
0.999992
0.999994
0.999998
0.999999
1
1
1
1
1
0.999999
1
1
1
1
1
1
1
1
0.999999
0.999994
0.999993
0.999997
1
1
1
1
1
1
1
1
1
1
1
1
1
1
1
0.999998
0.99999
0.99999
1
1
1
1
1
1
1
1
1
1
1
1
1
1
1
1
0.999991
0.999981
1
1
1
1
1
1
1
1
1
1
1
1
1
1
1
1
0.999999
0.999984
1
1
1
1
1
1
1
1
1
1
1
1
1
1
1
1
1
0.999998
1
1
1
1
1
1
1
1
1
1
1
1
1
1
1
1
1
1
1
1
1
1
1
1
1
1
1
1
1
1
1
1
1
1
1
1
1
1
1
1
1
1
1
1
1
1
1
1
1
1
1
1
1
1
1
1
1
1
1
1
1
1
1
1
1
1
1
1
1
1
1
1
1
1
1
1
1
1
1
1
1
1
1
1
1
1
1
1
1
1
1
1
1
1
1
1
1
1
1
1
1
1
1
1
1
1
1
1
1
1
1
1
1
1
1
1
1
1
1
1
1
1
1
1
1
1
1
1
1
1
1
1
1
1
1
1
1
1
1
1
1
1
1
0.999999
1
1
1
1
1
1
1
1
1
1
1
1
1
1
1
1
1
1
1
1
1
1
1
1
1
1
1
1
1
1
1
1
1
1
1
1
1
1
1
1
1
1
1
1
1
1
1
1
1
1
1
1
1
1
1
1
1
1
1
1
1
1
1
1
1
1
1
1
1
1
1
0.999999
1
1
1
1
1
1
1
1
1
1
1
1
1
1
1
1
1
1
1
1
1
1
1
1
1
1
1
1
1
1
1
1
1
1
1
1
1
1
1
1
1
1
1
1
1
1
1
1
1
1
1
1
1
1
1
1
1
1
1
1
1
1
1
1
1
1
1
1
1
1
1
0.999999
1
1
1
1
1
1
1
1
1
1
1
1
1
1
1
1
0.999999
0.999999
1
1
1
1
1
1
1
1
1
1
1
1
1
1
1
1
0.999999
0.999999
1
1
1
1
1
1
1
1
1
1
1
1
1
1
0.999997
0.999992
0.999985
0.999967
1
1
1
1
1
1
1
1
1
1
1
1
1
1
1
1
1
0.999998
1
1
1
1
1
1
1
1
1
1
1
1
1
1
1
1
1
0.999999
1
1
1
1
1
1
1
1
1
1
0.999999
0.999999
1
1
1
1
1
0.999999
1
1
1
1
1
1
1
1
1
1
0.999999
0.999999
0.999999
1
1
1
1
0.999999
1
1
1
1
1
1
1
1
1
1
1
0.999999
0.999998
0.999999
0.999999
1
1
1
1
1
1
1
1
1
1
1
1
1
1
1
0.999998
0.999999
0.999999
0.999999
1
1
1
1
1
1
1
1
1
1
1
1
1
1
0.999998
0.999999
1
0.999999
0.999999
0.999999
1
1
1
1
1
1
1
1
1
1
1
1
1
0.999998
1
0.999999
0.999998
0.999998
1
1
1
1
1
1
1
1
1
1
1
1
1
1
1
1
0.999998
0.999996
1
1
1
1
1
1
1
1
1
1
1
1
1
1
1
1
1
0.999997
1
1
1
1
1
1
1
1
1
1
1
1
1
1
1
1
1
1
1
1
1
1
1
1
1
1
1
1
1
1
1
1
1
1
1
1
1
1
1
1
1
1
1
1
1
1
1
1
1
1
1
1
1
1
1
1
1
1
1
1
1
1
1
1
1
1
1
1
1
1
1
1
1
1
1
1
1
1
1
1
1
1
1
1
1
1
1
1
1
1
1
1
1
1
1
1
1
1
1
1
1
1
1
1
1
1
1
1
1
1
1
1
1
1
1
1
1
1
1
1
1
1
1
1
1
1
1
1
1
1
1
1
1
1
1
1
1
1
1
0.999999
0.999999
0.999999
1
1
1
1
1
1
1
1
1
1
1
1
1
1
1
1
1
1
0.999999
0.999994
1
1
1
1
1
1
1
1
1
1
1
1
1
1
1
1
1
0.999999
1
1
1
1
1
1
1
1
1
1
1
1
1
1
1
1
1
1
1
1
1
1
1
1
1
1
1
1
1
1
1
1
1
1
1
1
1
1
1
1
1
1
1
1
1
1
1
1
1
1
1
1
1
1
1
1
1
1
1
1
1
1
1
1
1
1
1
1
1
1
1
1
1
1
1
1
1
1
1
1
1
1
1
1
1
1
1
1
1
1
1
1
1
1
1
1
1
1
1
1
1
1
1
1
1
1
0.999999
0.999999
1
1
1
1
1
1
1
1
1
1
1
1
1
1
1
1
0.999998
0.999997
1
1
1
1
1
1
1
1
1
1
1
1
1
1
1
0.999999
0.999997
0.999997
1
1
1
1
1
1
1
1
1
1
1
1
1
1
1
0.999999
0.999999
0.999998
1
1
1
1
1
1
1
1
1
1
1
1
0.999999
0.99999
0.99996
0.999937
0.999913
0.999874
1
1
1
1
1
1
1
1
0.999999
0.999999
1
1
1
1
0.999998
0.999996
0.999995
0.999994
1
1
1
1
1
1
1
0.999999
0.999999
0.999999
0.999998
0.999998
1
1
1
1
1
0.999999
1
1
1
1
1
1
1
1
1
1
0.999997
0.999995
0.999998
1
1
1
1
0.999999
1
1
1
1
1
1
1
1
1
1
0.999999
0.999993
0.999995
0.999999
1
1
1
0.999999
1
1
1
1
1
1
1
1
1
1
1
0.999994
0.999989
0.999999
1
1
1
0.999999
1
1
1
1
1
1
1
1
1
1
1
0.999998
0.999987
0.999995
0.999999
1
1
0.999999
1
1
1
1
1
1
1
1
1
1
1
0.999999
0.99999
0.999989
0.999999
1
1
1
1
1
1
1
1
1
1
1
1
1
1
1
0.999999
0.999989
0.999998
1
1
1
1
1
1
1
1
1
1
1
1
1
1
1
1
0.999999
0.999997
0.999999
1
1
1
1
1
1
1
1
1
1
1
1
1
1
1
1
0.999997
0.999999
1
1
1
1
1
1
1
1
1
1
1
1
1
1
1
1
1
1
1
1
1
1
1
1
1
1
1
1
1
1
1
1
1
1
1
1
1
1
1
1
1
1
1
1
1
1
1
1
1
1
1
1
1
1
1
1
1
1
1
1
1
1
1
1
1
1
1
1
1
1
1
1
1
1
1
1
1
1
1
1
1
1
1
1
1
1
1
1
1
1
1
1
1
1
1
1
1
1
1
1
1
1
1
1
1
1
1
1
1
1
1
1
1
1
1
1
1
1
1
1
1
1
1
1
0.999999
1
1
1
1
1
1
1
1
1
1
1
1
1
1
1
1
0.999997
0.999998
1
0.999999
0.999998
1
1
1
1
1
1
1
1
1
1
1
1
1
0.999999
1
0.999999
0.999995
0.999985
1
1
1
1
1
1
1
1
1
1
1
1
1
1
1
1
1
1
1
1
1
1
1
1
1
1
1
1
1
1
1
1
1
1
1
1
1
1
1
1
1
1
1
1
1
1
1
1
1
1
1
1
1
1
1
1
1
1
1
1
1
1
1
1
1
1
1
1
1
1
1
1
1
1
1
1
1
1
1
1
1
1
1
1
1
1
1
1
1
1
1
1
1
1
1
1
1
1
1
1
1
1
1
1
1
1
1
1
1
1
1
1
1
1
1
1
1
1
1
1
1
1
1
0.999999
0.999999
0.999999
1
1
1
1
1
1
1
1
1
1
1
1
1
1
1
0.999999
0.999996
0.999996
1
1
1
1
1
1
1
1
1
1
1
1
1
1
1
0.999999
0.999994
0.999993
1
1
1
1
1
1
1
1
1
1
1
1
1
1
1
0.999998
0.999993
0.999989
1
1
1
1
1
1
1
1
0.999999
0.999999
1
0.999997
0.99998
0.999908
0.999761
0.99966
0.999456
0.999214
1
1
1
1
1
0.999999
0.999999
0.999999
0.999998
0.999998
0.999999
0.999999
0.999991
0.999959
0.999931
0.999903
0.999846
0.999673
1
1
1
1
1
0.999999
0.999999
0.999999
0.999998
0.999997
0.999995
0.999998
0.999999
0.999997
1
0.999999
0.999991
0.999981
1
1
1
1
1
0.999999
0.999999
1
0.999999
0.999997
0.999992
0.999993
0.999999
1
1
1
0.999992
0.999991
1
1
1
1
1
1
1
1
1
0.999999
0.999991
0.999984
0.999994
1
1
1
0.999998
0.999995
1
1
1
1
1
1
1
1
1
1
0.999995
0.999976
0.999977
0.999998
1
1
0.999999
0.999996
1
1
1
1
1
1
1
1
1
1
0.999998
0.999975
0.999956
0.999982
1
1
0.999999
0.999994
1
1
1
1
1
1
1
1
1
1
1
0.999994
0.999956
0.999947
0.999996
1
1
0.999994
1
1
1
1
1
1
1
1
1
1
1
0.999999
0.999993
0.999954
0.99998
0.999999
1
0.999997
1
1
1
1
1
1
1
1
1
1
1
1
1
0.999997
0.999979
0.999996
1
0.999999
1
1
1
1
1
1
1
1
1
1
1
1
1
1
0.999992
0.999995
0.999999
1
1
1
1
1
1
1
1
1
1
1
1
1
1
1
1
0.999996
0.999997
0.999999
1
1
1
1
1
1
1
1
1
1
1
1
1
1
1
1
0.999998
0.999997
1
1
1
1
1
1
1
1
1
1
1
1
1
1
1
1
0.999999
0.999997
1
1
1
1
1
1
1
1
1
1
1
1
1
1
1
1
1
0.999998
1
1
1
1
1
1
1
1
1
1
1
1
1
1
1
1
1
1
1
1
1
1
1
1
1
1
1
1
1
1
1
1
1
1
1
1
1
1
1
1
1
1
1
1
1
1
1
1
1
1
1
1
1
1
1
1
1
1
1
1
1
1
1
1
1
1
0.999999
0.999997
0.999997
0.999999
0.999998
0.999996
1
1
1
1
1
1
1
1
1
1
1
1
1
0.999999
0.999999
0.999998
0.99999
0.999977
1
1
1
1
1
1
1
1
1
1
1
1
1
1
0.999999
1
1
0.999999
1
1
1
1
1
1
1
1
1
1
1
1
1
1
1
1
1
1
1
1
1
1
1
1
1
1
1
1
1
1
1
1
1
1
1
1
1
1
1
1
1
1
1
1
1
1
1
1
1
1
1
1
1
1
1
1
1
1
1
1
1
1
1
1
1
1
1
1
1
1
1
1
1
1
1
1
1
1
1
1
1
1
1
1
1
1
1
1
1
1
1
1
1
1
1
1
1
1
1
1
1
1
1
1
1
1
0.999999
0.999999
1
1
1
1
1
1
1
1
1
1
1
1
1
1
1
1
0.999998
0.999998
1
1
1
1
1
1
1
1
1
1
1
1
1
1
1
0.999999
0.999995
0.999996
1
1
1
1
1
1
1
1
1
1
1
1
1
1
0.999999
0.999996
0.999991
0.999991
1
1
1
1
1
1
1
0.999999
0.999999
0.999999
0.999997
0.999974
0.999863
0.999668
0.999496
0.999041
0.997577
0.994263
1
1
1
1
1
0.999999
0.999998
0.999998
0.999997
0.999996
0.999996
0.999974
0.999909
0.999905
0.999863
0.999399
0.997579
0.991515
1
1
1
1
1
0.999999
0.999998
0.999997
0.999996
0.999994
0.999995
0.999987
0.999978
0.999998
0.999982
0.999668
0.997836
0.992178
1
1
1
1
1
1
0.999998
0.999998
0.999998
0.999993
0.999989
0.999996
0.999998
0.999999
0.999971
0.999525
0.996129
0.990183
1
1
1
1
1
1
0.999999
1
0.999999
0.999995
0.999983
0.999982
0.999998
0.999999
0.99997
0.999541
0.995382
0.98935
1
1
1
1
1
1
1
1
1
0.999999
0.99998
0.999947
0.999976
0.999997
0.999968
0.999571
0.994654
0.986828
1
1
1
1
1
1
1
1
1
1
0.999995
0.999937
0.99988
0.999927
0.999937
0.999287
0.994105
0.985096
1
1
1
1
1
1
1
1
1
1
0.999999
0.999989
0.999868
0.999763
0.999822
0.999654
0.996478
0.98522
1
1
1
1
1
1
1
1
1
1
1
0.999999
0.999984
0.999872
0.999793
0.999836
0.99893
0.987498
1
1
1
1
1
1
1
1
1
1
1
1
1
0.999995
0.999928
0.999928
0.999898
0.99464
1
1
1
1
1
1
1
1
1
1
1
1
1
1
0.999993
0.999973
0.999957
0.999475
1
1
1
1
1
1
1
1
1
1
1
1
1
1
1
0.999993
0.999964
0.999835
1
1
1
1
1
1
1
1
1
1
1
1
1
1
1
1
0.999983
0.999888
1
1
1
1
1
1
1
1
1
1
1
1
1
1
1
1
0.999998
0.999942
1
1
1
1
1
1
1
1
1
1
1
1
1
1
1
1
1
0.999986
1
1
1
1
1
1
1
1
1
1
1
1
1
1
1
1
1
0.999998
1
1
1
1
1
1
1
1
1
1
1
1
1
1
1
1
1
1
1
1
1
1
1
1
1
1
1
1
1
1
1
1
1
1
1
1
1
1
1
1
1
1
1
1
1
1
1
1
0.999999
0.999997
0.999996
0.999997
0.999999
0.999997
1
1
1
1
1
1
1
1
1
1
1
1
1
0.999999
0.999997
0.999994
0.999987
0.999976
1
1
1
1
1
1
1
1
1
1
1
1
1
1
0.999998
0.999997
0.999997
0.999994
1
1
1
1
1
1
1
1
1
1
1
1
1
1
1
0.999999
0.999999
0.999999
1
1
1
1
1
1
1
1
1
1
1
1
1
1
1
1
1
1
1
1
1
1
1
1
1
1
1
1
1
1
1
1
1
1
1
0.999999
1
1
1
1
1
1
1
1
1
1
1
1
1
1
1
1
1
1
1
1
1
1
1
1
1
1
1
1
1
1
1
1
1
1
1
1
1
1
1
1
1
1
1
1
1
1
1
1
1
1
1
1
1
1
1
1
1
1
1
1
1
1
1
1
1
1
1
1
1
1
1
1
1
1
1
1
1
1
1
1
1
1
1
1
1
1
1
1
1
1
1
1
1
1
1
1
1
1
1
1
1
1
1
1
1
0.999999
0.999999
0.999999
1
1
1
1
1
1
1
0.999999
0.999998
0.999995
0.999972
0.999864
0.999651
0.999369
0.998622
0.995895
0.991152
0.986336
1
1
1
1
1
0.999999
0.999999
0.999997
0.999994
0.99999
0.999967
0.999901
0.999879
0.999768
0.998946
0.994789
0.987521
0.971868
1
1
1
1
1
0.999999
0.999998
0.999996
0.999993
0.999991
0.999979
0.999972
0.999976
0.999889
0.999018
0.994952
0.986888
0.965512
1
1
1
1
1
0.999998
0.999996
0.999995
0.999993
0.999989
0.999992
0.999995
0.999983
0.999819
0.998714
0.994222
0.985016
0.95707
1
1
1
0.999999
1
0.999998
0.999996
0.999996
0.999996
0.999985
0.99997
0.999974
0.999955
0.999731
0.998622
0.994282
0.985129
0.954445
1
1
1
0.999999
0.999999
0.999998
0.999998
0.999998
0.999999
0.999995
0.999958
0.999905
0.99984
0.999588
0.998533
0.994569
0.98593
0.956929
1
1
1
1
1
0.999999
1
1
1
0.999999
0.999986
0.999903
0.99974
0.999345
0.998178
0.994096
0.985302
0.963104
1
1
1
1
1
1
1
1
1
1
0.999998
0.999972
0.999792
0.999286
0.99789
0.993128
0.982745
0.968486
1
1
1
1
1
1
1
1
1
1
1
0.999999
0.99997
0.999694
0.998383
0.994528
0.980099
0.958055
1
1
1
1
1
1
1
1
1
1
1
1
1
0.999996
0.999832
0.99902
0.992979
0.964951
1
1
1
1
1
1
1
1
1
1
1
1
1
1
0.999998
0.999919
0.999022
0.981865
1
1
1
1
1
1
1
1
1
1
1
1
1
1
1
0.999997
0.999787
0.994476
1
1
1
1
1
1
1
1
1
1
1
1
1
1
1
1
0.999975
0.998707
1
1
1
1
1
1
1
1
1
1
1
1
1
1
1
1
0.999999
0.999807
1
1
1
1
1
1
1
1
1
1
1
1
1
1
1
1
1
0.999978
1
1
1
1
1
1
1
1
1
1
1
1
1
1
1
1
1
0.999997
1
1
1
1
1
1
1
1
1
1
1
1
1
1
1
1
1
1
1
1
1
1
1
1
1
1
1
1
1
1
1
1
1
1
1
1
1
1
1
1
1
1
1
1
1
1
1
1
1
1
0.999997
0.999995
0.999996
0.999997
1
1
1
1
1
1
1
1
1
1
1
1
1
0.999999
0.999996
0.999991
0.999984
0.999974
1
1
1
1
1
1
1
1
1
1
1
1
1
0.999999
0.999997
0.999993
0.999988
0.999981
1
1
1
1
1
1
1
1
1
1
1
1
1
1
0.999999
0.999998
0.999997
0.999994
1
1
1
1
1
1
1
1
1
1
1
1
1
1
1
1
0.999999
0.999999
1
1
1
1
1
1
1
1
1
1
1
1
1
1
1
1
0.999999
0.999998
1
1
1
1
1
1
1
1
1
1
1
1
1
1
1
1
0.999999
0.999998
1
1
1
1
1
1
1
1
1
1
1
1
1
1
1
1
1
1
1
1
1
1
1
1
1
1
1
1
1
1
1
1
1
1
1
1
1
1
1
1
1
1
1
1
1
1
1
1
1
1
1
1
1
1
1
1
1
1
1
1
1
1
1
1
1
1
1
1
1
1
1
1
1
1
1
1
1
1
1
1
1
1
1
1
1
1
1
1
1
1
1
1
1
1
0.999999
0.999999
0.999998
0.999994
0.999988
0.999961
0.999922
0.99986
0.999745
0.999412
0.998483
0.995959
0.991527
0.987582
1
1
0.999999
0.999999
0.999999
0.999998
0.999997
0.999993
0.999985
0.999968
0.999958
0.999936
0.999883
0.999633
0.998564
0.994837
0.987961
0.9774
1
1
0.999999
0.999999
0.999999
0.999998
0.999997
0.999994
0.99999
0.999984
0.99998
0.999969
0.999928
0.999684
0.99903
0.997606
0.995043
0.986177
1
1
0.999999
0.999999
0.999999
0.999998
0.999997
0.999993
0.999989
0.999987
0.999985
0.999954
0.999862
0.999615
0.999049
0.998426
0.996535
0.986624
1
1
0.999999
0.999999
0.999999
0.999997
0.999993
0.999988
0.999976
0.999964
0.999935
0.999894
0.999805
0.999622
0.999318
0.998768
0.995928
0.981838
1
1
0.999999
0.999999
0.999998
0.999996
0.999993
0.999987
0.999986
0.99997
0.999934
0.999884
0.999784
0.999647
0.999494
0.998844
0.995709
0.976855
1
0.999999
0.999999
0.999999
0.999999
0.999997
0.999999
0.999997
0.999997
0.999992
0.999969
0.999919
0.999824
0.999648
0.999557
0.999041
0.997929
0.989045
1
1
1
0.999999
1
0.999999
1
1
0.999999
0.999998
0.999986
0.999926
0.999806
0.999484
0.99885
0.997677
0.9977
0.998817
1
1
1
0.999999
0.999999
1
1
1
1
1
0.999999
0.999988
0.999889
0.999514
0.997955
0.99386
0.991092
0.994322
1
1
1
1
0.999999
0.999999
1
1
1
1
1
1
1
0.999995
0.999796
0.998022
0.989131
0.987174
1
1
1
1
1
0.999999
1
1
1
1
1
1
1
1
0.999998
0.999908
0.996354
0.981816
1
1
1
1
1
1
1
1
1
1
1
1
1
1
1
0.999999
0.999698
0.990376
1
1
1
1
1
1
1
1
1
1
1
1
1
1
1
1
0.999989
0.998368
1
1
1
1
1
1
1
1
1
1
1
1
1
1
1
1
1
0.999888
1
1
1
1
1
1
1
1
1
1
1
1
1
1
1
1
1
0.999996
1
1
1
1
1
1
1
1
1
1
1
1
1
1
1
1
1
1
1
1
1
1
1
1
1
1
1
1
1
1
1
1
1
1
1
1
1
1
1
1
1
1
1
1
1
1
1
1
1
1
1
1
1
1
1
1
1
1
1
1
1
1
1
1
1
1
1
1
1
0.999999
0.999992
0.999989
1
1
1
1
1
1
1
1
1
1
1
1
1
1
0.999998
0.999991
0.999981
0.999965
1
1
1
1
1
1
1
1
1
1
1
1
1
1
0.999998
0.999992
0.999985
0.999975
1
1
1
1
1
1
1
1
1
1
1
1
1
1
0.999999
0.999998
0.999996
0.999993
1
1
1
1
1
1
1
1
1
1
1
1
1
1
1
0.999999
0.999999
0.999998
1
1
1
1
1
1
1
1
1
1
1
1
1
1
1
1
0.999999
0.999997
1
1
1
1
1
1
1
1
1
1
1
1
1
1
1
1
0.999999
0.999998
1
1
1
1
1
1
1
1
1
1
1
1
1
1
1
1
1
1
1
1
1
1
1
1
1
1
1
1
1
1
1
1
1
1
1
1
1
1
1
1
1
1
1
1
1
1
1
1
1
1
1
1
1
1
1
1
1
1
1
1
1
1
1
1
1
1
1
1
1
1
1
1
1
1
1
1
1
1
1
1
1
1
1
1
1
1
1
1
1
1
1
1
0.999999
0.999999
0.999999
0.999997
0.999992
0.999983
0.999977
0.999958
0.999933
0.999861
0.999775
0.999528
0.998707
0.997022
0.99454
0.992601
1
1
0.999999
0.999999
0.999998
0.999996
0.999991
0.999982
0.999977
0.999961
0.999944
0.999911
0.999832
0.999493
0.998512
0.995632
0.99089
0.986295
1
1
0.999999
0.999999
0.999998
0.999995
0.99999
0.999984
0.999982
0.999979
0.999973
0.999947
0.999863
0.999552
0.998617
0.996568
0.992888
0.987555
1
1
0.999999
0.999999
0.999998
0.999995
0.999993
0.999992
0.99999
0.999988
0.999976
0.999937
0.999844
0.999571
0.99865
0.997148
0.993532
0.989119
1
1
1
0.999999
0.999998
0.999996
0.999995
0.999992
0.999986
0.999974
0.999955
0.999917
0.999854
0.999698
0.99911
0.998583
0.995555
0.987574
1
1
1
0.999999
0.999998
0.999996
0.999994
0.99999
0.999983
0.999978
0.999958
0.999936
0.999898
0.9998
0.999497
0.998689
0.993674
0.972642
1
1
1
0.999999
0.999998
0.999996
0.999995
0.999994
0.999994
0.999994
0.999985
0.999969
0.999922
0.999892
0.999742
0.999386
0.99715
0.985538
1
1
1
0.999999
0.999998
0.999998
0.999999
0.999999
0.999999
0.999998
0.999996
0.999996
0.999992
0.999986
0.999962
0.999907
0.999657
0.998835
1
1
1
0.999999
0.999998
0.999999
1
1
1
1
0.999999
0.999996
0.999992
0.999984
0.999954
0.999861
0.999865
0.999776
1
1
1
1
0.999999
0.999999
1
1
1
1
1
1
1
0.999999
0.999965
0.999708
0.999216
0.999655
1
1
1
1
0.999999
0.999999
1
1
1
1
1
1
1
1
1
0.999988
0.999046
0.997174
1
1
1
1
1
0.999999
1
1
1
1
1
1
1
1
1
1
0.999959
0.997474
1
1
1
1
1
1
1
1
1
1
1
1
1
1
1
1
0.999999
0.999701
1
1
1
1
1
1
1
1
1
1
1
1
1
1
1
1
1
0.999982
1
1
1
1
1
1
1
1
1
1
1
1
1
1
1
1
1
0.999999
1
1
1
1
1
1
1
1
1
1
1
1
1
1
1
1
1
1
1
1
1
1
1
1
1
1
1
1
1
1
1
1
1
1
1
1
1
1
1
1
1
1
1
1
1
1
1
1
1
1
1
1
1
1
1
1
1
1
1
1
1
1
1
1
1
1
1
1
1
1
1
0.999993
1
1
1
1
1
1
1
1
1
1
1
1
1
1
0.999999
0.999996
0.999988
0.999967
1
1
1
1
1
1
1
1
1
1
1
1
1
1
1
0.999997
0.99999
0.999979
1
1
1
1
1
1
1
1
1
1
1
1
1
1
1
1
0.999998
0.999996
1
1
1
1
1
1
1
1
1
1
1
1
1
1
1
1
0.999999
0.999998
1
1
1
1
1
1
1
1
1
1
1
1
1
1
1
1
0.999999
0.999997
1
1
1
1
1
1
1
1
1
1
1
1
1
1
1
1
0.999999
0.999998
1
1
1
1
1
1
1
1
1
1
1
1
1
1
1
1
1
1
1
1
1
1
1
1
1
1
1
1
1
1
1
1
1
1
1
1
1
1
1
1
1
1
1
1
1
1
1
1
1
1
1
1
1
1
1
1
1
1
1
1
1
1
1
1
1
1
1
1
1
1
1
1
1
1
1
1
1
1
1
1
1
1
1
1
1
1
1
1
1
1
1
1
0.999999
1
1
1
1
0.999999
0.999999
0.999998
0.999994
0.999972
0.999897
0.999823
0.999648
0.99954
0.999287
0.998542
1
1
1
1
1
1
1
0.999999
0.999999
0.999996
0.999989
0.999963
0.99989
0.999777
0.999538
0.999226
0.998847
0.997386
1
1
1
1
1
1
0.999999
0.999996
0.999994
0.999988
0.999976
0.999949
0.999878
0.999736
0.999377
0.998747
0.997802
0.994587
1
1
1
1
1
0.999999
0.999996
0.999995
0.999991
0.999985
0.999969
0.999939
0.999866
0.999736
0.999379
0.998761
0.997637
0.994496
1
1
1
0.999999
0.999999
0.999998
0.999996
0.999994
0.999988
0.999977
0.999956
0.999922
0.999872
0.999752
0.999439
0.998874
0.997777
0.994837
1
1
1
1
0.999999
0.999997
0.999995
0.99999
0.999978
0.999965
0.999947
0.999911
0.99986
0.999736
0.999442
0.999003
0.998309
0.996619
1
1
1
1
0.999998
0.999997
0.999992
0.999987
0.999983
0.999982
0.999976
0.999945
0.999867
0.999772
0.999568
0.999264
0.999037
0.99907
1
1
1
1
0.999998
0.999995
0.999993
0.999992
0.999998
0.999999
0.999999
0.999998
0.999987
0.999977
0.999936
0.999848
0.999678
0.999818
1
1
1
1
0.999998
0.999996
0.999996
0.999999
1
1
1
1
1
0.999999
0.999993
0.999967
0.999947
0.999972
1
1
1
1
0.999999
0.999998
0.999999
1
1
1
1
1
1
1
0.999998
0.999971
0.999822
0.999793
1
1
1
1
1
0.999999
0.999999
1
1
1
1
1
1
1
1
0.999999
0.999881
0.999456
1
1
1
1
1
1
1
1
1
1
1
1
1
1
1
1
0.999998
0.999681
1
1
1
1
1
1
1
1
1
1
1
1
1
1
1
1
1
0.999971
1
1
1
1
1
1
1
1
1
1
1
1
1
1
1
1
1
0.999998
1
1
1
1
1
1
1
1
1
1
1
1
1
1
1
1
1
1
1
1
1
1
1
1
1
1
1
1
1
1
1
1
1
1
1
1
1
1
1
1
1
1
1
1
1
1
1
1
1
1
1
1
1
1
1
1
1
1
1
1
1
1
1
1
1
1
1
1
1
1
1
1
1
1
1
1
1
1
1
1
1
1
1
1
1
1
1
1
1
1
1
1
1
1
1
1
1
1
1
1
1
1
1
1
1
0.999999
0.999997
0.999992
1
1
1
1
1
1
1
1
1
1
1
1
1
1
1
1
0.999998
0.999994
1
1
1
1
1
1
1
1
1
1
1
1
1
1
1
1
1
0.999999
1
1
1
1
1
1
1
1
1
1
1
1
1
1
1
1
1
1
1
1
1
1
1
1
1
1
1
1
1
1
1
1
1
1
0.999999
0.999998
1
1
1
1
1
1
1
1
1
1
1
1
1
1
1
1
0.999999
0.999998
1
1
1
1
1
1
1
1
1
1
1
1
1
1
1
1
1
1
1
1
1
1
1
1
1
1
1
1
1
1
1
1
1
1
1
1
1
1
1
1
1
1
1
1
1
1
1
1
1
1
1
1
1
1
1
1
1
1
1
1
1
1
1
1
1
1
1
1
1
1
1
1
1
1
1
1
1
1
1
1
1
1
1
1
1
1
1
1
1
1
0.556944
0.690278
0.700193
0.701351
0.701496
0.701376
0.700698
0.699793
0.698744
0.69635
0.695462
0.695675
0.696708
0.698487
0.700068
0.701468
0.702848
0.703607
0.703615
0.702935
0.70047
0.695845
0.6896
0.682352
0.676499
0.67428
0.674741
0.679003
0.688272
0.693949
0.69603
0.696225
0.695233
0.690516
0.672086
0.636168
0.603713
0.567981
0.559235
0.554148
0.506215
0.341308
0.217286
0.139624
0.10286
0.101149
0.128496
0.22563
0.279408
0.311002
0.353662
0.385083
0.39122
0.388936
0.381487
0.360574
0.339451
0.333709
0.333888
0.335719
0.342136
0.362664
0.435305
0.553698
0.608694
0.618279
0.611026
0.549602
0.48891
0.503485
0.714235
0.82266
0.782098
0.785917
0.811009
0.857183
0.876433
0.876599
0.876514
0.876162
0.876033
0.876921
0.878592
0.88053
0.882676
0.884936
0.887581
0.88954
0.889988
0.890071
0.890155
0.890432
0.890978
0.891735
0.892627
0.893608
0.894618
0.895525
0.896102
0.896333
0.896442
0.896518
0.896613
0.896705
0.896899
0.897324
0.898065
0.899025
0.899565
0.899719
0.899635
0.898815
0.897171
0.895254
0.893405
0.891585
0.889891
0.888544
0.887921
0.887742
0.887732
0.887802
0.887927
0.888016
0.888033
0.887936
0.887566
0.886781
0.885301
0.882294
0.877733
0.872047
0.857973
0.811636
0.684959
0.641515
0.625444
0.615014
0.616111
0.629369
0.657552
0.680738
0.693777
0.712361
0.724067
0.7545
0.802661
0.850472
0.865627
0.870365
0.873332
0.876453
0.871229
0.867866
0.867324
0.865736
0.864087
0.86311
0.863797
0.86451
0.870395
0.892936
0.90857
0.912435
0.912148
0.908209
0.891692
0.858997
0.792222
0.76917
0.744325
0.697542
0.698972
0.719923
0.750857
0.766528
0.772754
0.773858
0.771742
0.768425
0.449466
0.528613
0.593104
0.613402
0.624025
0.632637
0.637983
0.641588
0.64483
0.651146
0.654682
0.655736
0.656275
0.657088
0.658316
0.660874
0.667069
0.677738
0.686015
0.690403
0.691684
0.691405
0.689114
0.683647
0.677728
0.674125
0.67382
0.675048
0.679644
0.681439
0.681025
0.677607
0.662173
0.634082
0.609852
0.594063
0.586119
0.585098
0.589799
0.597349
0.597205
0.589264
0.55749
0.424288
0.298836
0.276042
0.290678
0.336615
0.365859
0.384686
0.390576
0.387087
0.361509
0.305374
0.270414
0.262937
0.266464
0.287844
0.317939
0.336561
0.383003
0.526782
0.649442
0.689961
0.691191
0.685935
0.66658
0.581387
0.496682
0.544203
0.678748
0.634734
0.662384
0.778996
0.869608
0.874674
0.876255
0.875959
0.87623
0.876957
0.877952
0.879762
0.882762
0.885548
0.887187
0.888173
0.889047
0.889398
0.889538
0.889666
0.89
0.890512
0.89113
0.891834
0.892544
0.893195
0.893714
0.894069
0.894309
0.894471
0.89465
0.894967
0.895449
0.896051
0.896724
0.897527
0.898004
0.898212
0.898269
0.898117
0.897263
0.8953
0.892686
0.889897
0.887968
0.887315
0.88716
0.887191
0.887605
0.888588
0.889808
0.890295
0.890344
0.890329
0.890488
0.891047
0.892124
0.892868
0.893032
0.892577
0.890677
0.887202
0.877929
0.845728
0.71042
0.648727
0.644555
0.637842
0.64214
0.655408
0.675862
0.695674
0.712883
0.735358
0.744531
0.745341
0.747222
0.746608
0.747225
0.748944
0.756232
0.800179
0.835914
0.835823
0.83925
0.837502
0.817748
0.792893
0.793909
0.820085
0.861941
0.892993
0.907189
0.90891
0.90813
0.904428
0.887097
0.839507
0.772901
0.76937
0.724464
0.694311
0.71473
0.744687
0.774508
0.810294
0.829624
0.843292
0.853394
0.856669
0.420041
0.40811
0.427267
0.482168
0.53073
0.566904
0.588169
0.603534
0.622545
0.640223
0.645718
0.645092
0.643198
0.641345
0.639243
0.637396
0.63343
0.631331
0.631616
0.63342
0.638043
0.648229
0.656649
0.659545
0.659558
0.658769
0.657985
0.657243
0.655756
0.652206
0.644106
0.628322
0.607647
0.589429
0.578534
0.575277
0.575903
0.583005
0.614168
0.641224
0.645027
0.63795
0.616656
0.580302
0.485752
0.367118
0.319099
0.315026
0.329134
0.375684
0.402253
0.404065
0.389781
0.376403
0.380644
0.404163
0.483821
0.620048
0.720257
0.771666
0.782937
0.780415
0.765306
0.733981
0.695556
0.654999
0.626296
0.555456
0.513966
0.548333
0.542071
0.5677
0.692264
0.861044
0.876549
0.876637
0.876391
0.876748
0.878448
0.880449
0.882392
0.88483
0.887097
0.888317
0.888867
0.889207
0.889659
0.889908
0.890207
0.890862
0.891506
0.891802
0.891962
0.892121
0.892333
0.892638
0.893019
0.893415
0.893769
0.894028
0.89414
0.894192
0.894207
0.894118
0.893899
0.893734
0.893581
0.893278
0.892921
0.892508
0.89175
0.890686
0.890128
0.889899
0.889806
0.889921
0.890662
0.89211
0.893065
0.893229
0.893155
0.892667
0.891814
0.89155
0.891714
0.892543
0.893971
0.894676
0.894673
0.894397
0.89354
0.89195
0.887536
0.875173
0.812524
0.657003
0.650381
0.687983
0.713409
0.719901
0.728992
0.748614
0.765021
0.78614
0.801007
0.807764
0.807568
0.799242
0.798021
0.799704
0.798416
0.799011
0.802012
0.821752
0.835788
0.830012
0.806697
0.755381
0.748397
0.758164
0.817399
0.880221
0.901055
0.905613
0.904874
0.902257
0.877727
0.822948
0.771764
0.766124
0.705431
0.695633
0.716685
0.748201
0.774393
0.806607
0.84839
0.874294
0.897139
0.922596
0.411884
0.445493
0.529344
0.596876
0.630787
0.649043
0.660381
0.68868
0.699568
0.693488
0.679089
0.666645
0.660343
0.657253
0.657383
0.657906
0.658277
0.659124
0.65891
0.658126
0.656176
0.654824
0.654752
0.654554
0.65404
0.651933
0.645475
0.638927
0.632334
0.627147
0.621665
0.610736
0.598165
0.589824
0.588897
0.598797
0.634583
0.656552
0.662363
0.659284
0.6398
0.603783
0.585172
0.561966
0.502064
0.38352
0.328421
0.324805
0.337852
0.387012
0.41687
0.415594
0.403425
0.407498
0.438663
0.53513
0.651973
0.733949
0.748411
0.737815
0.729636
0.717347
0.696158
0.692947
0.697082
0.693205
0.678685
0.646267
0.579519
0.531873
0.527847
0.580398
0.797399
0.874976
0.87792
0.8771
0.877106
0.878754
0.881578
0.883292
0.884591
0.886405
0.888199
0.889488
0.890202
0.890721
0.890971
0.891063
0.891072
0.890817
0.890293
0.890219
0.890351
0.890732
0.891044
0.891132
0.891178
0.891237
0.891328
0.891448
0.891567
0.891692
0.891904
0.892351
0.893154
0.893734
0.893903
0.893939
0.893867
0.89356
0.893398
0.893358
0.893377
0.893662
0.894331
0.894602
0.894635
0.894351
0.893514
0.892358
0.891844
0.891951
0.892654
0.894591
0.898616
0.902896
0.903844
0.902463
0.899068
0.895256
0.893192
0.891457
0.88771
0.877695
0.872388
0.742881
0.655147
0.689093
0.761877
0.767157
0.753072
0.742984
0.741675
0.756105
0.809512
0.857929
0.855485
0.810396
0.761115
0.748995
0.744136
0.744137
0.769119
0.858635
0.889828
0.869118
0.826853
0.793592
0.769911
0.771114
0.792102
0.853423
0.884537
0.900998
0.900977
0.896918
0.86164
0.815515
0.785513
0.765062
0.709139
0.702567
0.718775
0.741651
0.773426
0.803775
0.821839
0.860291
0.879252
0.890179
0.67326
0.694877
0.680941
0.660996
0.65641
0.658914
0.672387
0.713126
0.707797
0.670711
0.64465
0.648216
0.652792
0.659238
0.664712
0.668747
0.671259
0.672233
0.67173
0.67021
0.666284
0.660446
0.657286
0.655808
0.654582
0.651983
0.645219
0.63736
0.630196
0.627108
0.62547
0.619875
0.613611
0.619588
0.66226
0.70269
0.705303
0.687024
0.66919
0.647981
0.587592
0.51645
0.501365
0.499733
0.45996
0.36432
0.345939
0.351541
0.368605
0.411589
0.430916
0.427073
0.437279
0.496476
0.585164
0.643501
0.645379
0.635316
0.612574
0.622828
0.670278
0.673548
0.673013
0.698104
0.76475
0.771532
0.75332
0.689915
0.592284
0.544142
0.555589
0.72083
0.863236
0.879362
0.879564
0.878571
0.878861
0.88098
0.883892
0.885627
0.886683
0.888351
0.890598
0.893261
0.896726
0.898402
0.898685
0.8985
0.897677
0.895686
0.892458
0.891272
0.891255
0.891928
0.892504
0.892579
0.892385
0.891894
0.891561
0.891484
0.89149
0.891698
0.892175
0.89275
0.893308
0.893784
0.894231
0.894722
0.894862
0.894835
0.894302
0.893368
0.892913
0.892539
0.891862
0.891069
0.889966
0.88894
0.888692
0.888943
0.890288
0.893661
0.901304
0.913573
0.92383
0.926817
0.926832
0.923852
0.917598
0.907514
0.894939
0.888474
0.882775
0.874949
0.872602
0.862324
0.698729
0.683169
0.755385
0.769734
0.755838
0.744123
0.759396
0.797248
0.888602
0.90594
0.91173
0.911418
0.88129
0.750457
0.694669
0.700483
0.762444
0.901694
0.931997
0.933229
0.893883
0.818298
0.789441
0.786775
0.799312
0.843825
0.877822
0.90177
0.902896
0.893151
0.85206
0.814743
0.796251
0.771839
0.735834
0.733616
0.732999
0.738341
0.760969
0.783392
0.832166
0.863711
0.876085
0.878469
0.720204
0.695866
0.64794
0.642584
0.646807
0.654411
0.687669
0.723675
0.686625
0.630242
0.634601
0.651649
0.673866
0.689275
0.699277
0.706024
0.710713
0.713288
0.713552
0.712892
0.710344
0.704155
0.689711
0.674688
0.663233
0.65629
0.649433
0.647034
0.650986
0.660661
0.658461
0.655806
0.670287
0.712617
0.726856
0.721277
0.702979
0.682403
0.650023
0.584322
0.500869
0.452015
0.432121
0.395108
0.354322
0.345855
0.351202
0.356994
0.378749
0.43773
0.455489
0.458878
0.496401
0.609581
0.629428
0.615121
0.624333
0.617853
0.646891
0.784429
0.833215
0.817169
0.811936
0.804165
0.790002
0.769304
0.729455
0.673061
0.605072
0.595726
0.715089
0.842097
0.879669
0.884684
0.884639
0.884176
0.884926
0.886977
0.889469
0.891401
0.892769
0.894728
0.897635
0.900463
0.901941
0.902565
0.903406
0.904865
0.905305
0.905077
0.903554
0.900755
0.898209
0.896153
0.895458
0.895399
0.895802
0.896916
0.89721
0.896961
0.896202
0.896009
0.896172
0.896401
0.896412
0.896142
0.895588
0.894858
0.893866
0.893062
0.892496
0.89138
0.889777
0.888995
0.888688
0.888573
0.888768
0.889812
0.892496
0.897734
0.905649
0.915703
0.925522
0.930393
0.93224
0.933189
0.934968
0.933509
0.931021
0.925956
0.915646
0.893514
0.879643
0.872043
0.869621
0.873364
0.824947
0.715993
0.762475
0.778811
0.78358
0.773931
0.800127
0.848763
0.879962
0.900307
0.911389
0.914711
0.915837
0.912167
0.891605
0.88629
0.899048
0.932377
0.940347
0.938397
0.936447
0.896798
0.814964
0.796344
0.803946
0.836522
0.876499
0.903373
0.907475
0.889951
0.850149
0.819317
0.799729
0.782619
0.793637
0.816998
0.808497
0.789283
0.808598
0.844377
0.847352
0.857861
0.877858
0.882359
0.696706
0.666013
0.644217
0.649976
0.655324
0.664272
0.695878
0.70906
0.641337
0.625048
0.638227
0.661688
0.680033
0.692704
0.702788
0.710058
0.714584
0.717115
0.718063
0.717839
0.712768
0.6983
0.688784
0.682802
0.680048
0.681705
0.686713
0.694528
0.69626
0.694439
0.703142
0.71872
0.72477
0.723643
0.718328
0.70908
0.690086
0.650618
0.589792
0.521574
0.460125
0.42112
0.388262
0.356663
0.345737
0.347386
0.356218
0.385041
0.435622
0.468859
0.472495
0.473673
0.505291
0.555156
0.581355
0.641686
0.802744
0.848552
0.847006
0.8538
0.855546
0.852366
0.847288
0.833077
0.794814
0.763651
0.726552
0.692882
0.693945
0.761522
0.835014
0.869467
0.882263
0.888604
0.891348
0.892565
0.893386
0.89447
0.895885
0.897337