/*--------------------------------*- C++ -*----------------------------------*\
| =========                 |                                                 |
| \\      /  F ield         | OpenFOAM: The Open Source CFD Toolbox           |
|  \\    /   O peration     | Version:  2112                                  |
|   \\  /    A nd           | Website:  www.openfoam.com                      |
|    \\/     M anipulation  |                                                 |
\*---------------------------------------------------------------------------*/
FoamFile
{
    version     2.0;
    format      ascii;
    arch        "LSB;label=32;scalar=64";
    class       volScalarField;
    location    "0.29";
    object      yPlus;
}
// * * * * * * * * * * * * * * * * * * * * * * * * * * * * * * * * * * * * * //

dimensions      [0 0 0 0 0 0 0];

internalField   uniform 0;

boundaryField
{
    inlet
    {
        type            calculated;
        value           uniform 0;
    }
    outlet
    {
        type            calculated;
        value           uniform 0;
    }
    upperWall
    {
        type            calculated;
        value           nonuniform List<scalar> 
223
(
14.4346
14.3339
14.2275
14.1172
14.0097
13.9079
13.8112
13.7193
13.6317
13.5487
13.4698
13.3953
13.3245
13.2576
13.1939
13.1342
13.0767
13.0236
12.9758
12.9331
12.8904
12.8478
12.8051
12.7624
12.7198
12.6773
12.6349
12.5925
12.5504
12.5084
12.4666
12.4249
12.3835
12.3422
12.301
12.2599
12.2188
12.1779
12.137
12.0963
12.0557
12.0152
11.9748
11.9346
11.8946
11.8547
11.8151
11.7756
11.7364
11.6973
11.6586
11.62
11.5818
11.5438
11.506
11.4686
11.4314
11.3945
11.3579
11.3217
11.2857
11.25
11.2147
11.1796
11.1448
11.1102
11.0759
11.0419
11.0081
10.9746
10.9412
10.9081
10.8751
10.8423
10.8097
10.7772
10.7449
10.7127
10.6806
10.6487
10.6168
10.5851
10.5534
10.5217
10.4901
10.4586
10.427
10.3954
10.3639
10.3323
10.3006
10.2689
10.2371
10.2051
10.1731
10.1409
10.1086
10.0761
10.0434
10.0105
9.97747
9.94415
9.91057
9.87669
9.8425
9.80798
9.77309
9.73781
9.70213
9.66601
9.62944
9.59239
9.55484
9.51677
9.47814
9.43896
9.39917
9.35879
9.3178
9.27619
9.23396
9.19108
9.14755
9.10332
9.05838
9.01274
8.96639
8.91931
8.87149
8.82293
8.77363
8.7236
8.67285
8.62136
8.56916
8.51622
8.46259
8.40824
8.35322
8.2975
8.24113
8.18409
8.12643
8.06814
8.00928
7.94985
7.88986
7.82933
7.76828
7.70671
7.64464
7.58208
7.51905
7.45557
7.39166
7.32734
7.26264
7.19758
7.13217
7.06644
7.0004
6.93407
6.86748
6.80065
6.73357
6.66626
6.5987
6.53094
6.46283
6.39451
6.32495
6.25453
6.18304
6.11101
6.03789
5.96461
5.8898
5.81366
5.73572
5.65635
5.57493
5.49193
5.40649
5.31907
5.2286
5.13516
5.03784
4.9354
4.82847
4.7117
4.59135
4.45047
4.31062
4.12462
3.95647
3.65827
3.49784
2.46888
3.51331
4.3513
4.70292
4.84279
4.90902
4.93631
4.93407
4.91301
4.88298
4.84846
4.81374
4.77795
4.74596
4.7115
4.68521
4.65172
4.63462
4.5989
4.59555
4.55001
4.56825
4.49875
4.5487
4.43967
4.52563
)
;
    }
    lowerWall
    {
        type            calculated;
        value           nonuniform List<scalar> 
250
(
12.5296
12.363
12.1917
12.0194
11.8548
11.7001
11.5548
11.4179
11.29
11.1696
11.0591
10.9538
10.8611
10.7684
10.6949
10.6119
10.5605
10.4865
0.599961
0.91898
0.719809
0.540734
0.720266
0.821573
0.649362
0.853945
1.75348
2.35978
2.70532
2.89616
2.97208
2.95743
2.86398
2.68388
2.41135
2.05099
1.62098
0.782692
0.966556
1.98931
1.62284
3.17196
1.80065
4.31994
3.82702
0.410492
1.24496
1.58864
1.84953
2.03581
2.14598
2.1837
2.14324
2.02913
1.83638
1.56959
1.23257
0.901935
0.971811
1.21864
1.38232
1.44584
1.4244
1.32087
1.11758
0.779864
0.748233
1.06552
1.27884
1.41082
1.45421
1.39612
1.22945
1.03414
1.20103
1.55016
1.81188
2.01505
2.06674
2.15377
2.40395
2.61561
2.94911
2.83694
1.14684
3.00143
4.07769
4.89762
5.59434
6.17107
6.66255
7.08111
7.44265
7.75658
8.03216
8.27605
8.49434
8.69142
8.87116
9.03646
9.18977
9.33297
9.46766
9.59513
9.71637
11.7907
12.0429
12.2964
12.5429
12.7888
13.0296
13.2686
13.5035
13.7359
13.9646
14.1904
14.4125
14.6314
14.8467
15.0585
15.2665
15.4709
15.6714
15.8681
16.0609
16.2497
16.4344
16.6151
16.7916
16.9639
17.1319
17.2956
17.455
17.6098
17.7601
17.9058
18.0468
18.1829
18.3142
18.4404
18.5617
18.6778
18.7888
18.8949
18.9963
19.0936
19.1876
19.2775
19.3627
19.4432
19.519
19.59
19.6563
19.7178
19.7745
19.8263
19.8733
19.9154
19.9527
19.985
20.0125
20.0351
20.0528
20.0656
20.0737
20.0769
20.0754
20.0692
20.0583
20.0428
20.0228
19.9983
19.9712
19.9375
19.9001
19.8585
19.8108
19.758
19.7006
19.6385
19.573
19.5036
19.4296
19.3515
19.2696
19.1839
19.0946
19.0016
18.9052
18.8054
18.7024
18.5962
18.4869
18.3748
18.2599
18.1421
18.0217
17.8987
17.7733
17.6457
17.516
17.3845
17.2513
17.1168
16.981
16.8441
16.7061
16.5672
16.4275
16.2869
16.1456
16.0037
15.8614
15.7189
15.5762
15.4332
15.29
15.1459
15.0009
14.8525
14.7039
14.5354
14.3959
14.2308
13.8605
14.3533
14.6464
14.7517
14.8019
14.8108
14.7942
14.7589
14.7075
14.643
14.5673
14.4785
14.3759
14.2641
14.1366
13.9965
13.8355
13.6954
13.4918
13.39
13.1154
13.0749
12.7336
12.7707
12.3616
12.5676
)
;
    }
    frontAndBack
    {
        type            empty;
    }
}


// ************************************************************************* //
