/*--------------------------------*- C++ -*----------------------------------*\
| =========                 |                                                 |
| \\      /  F ield         | OpenFOAM: The Open Source CFD Toolbox           |
|  \\    /   O peration     | Version:  2112                                  |
|   \\  /    A nd           | Website:  www.openfoam.com                      |
|    \\/     M anipulation  |                                                 |
\*---------------------------------------------------------------------------*/
FoamFile
{
    version     2.0;
    format      ascii;
    arch        "LSB;label=32;scalar=64";
    class       volScalarField;
    location    "0.22";
    object      p;
}
// * * * * * * * * * * * * * * * * * * * * * * * * * * * * * * * * * * * * * //

dimensions      [0 2 -2 0 0 0 0];

internalField   nonuniform List<scalar> 
12225
(
6.40216
4.76357
4.02236
3.57856
3.08153
2.59986
2.21774
1.93247
1.70942
1.5188
1.33927
1.15343
0.949088
0.720672
0.465287
0.186534
-0.127863
-0.352727
5.76861
4.71694
4.05601
3.6304
3.16605
2.70818
2.33742
2.05604
1.83265
1.64014
1.45879
1.27144
1.06607
0.837878
0.582814
0.292279
-0.0526665
-0.595342
5.39771
4.70572
4.04935
3.59834
3.14735
2.7073
2.34374
2.05922
1.82515
1.61879
1.42487
1.22775
1.01606
0.78285
0.523357
0.231373
-0.110887
-0.539806
5.08958
4.58529
3.98111
3.54607
3.13148
2.72774
2.3841
2.1065
1.87112
1.66014
1.46204
1.26219
1.0496
0.816554
0.559067
0.272904
-0.0479889
-0.409696
4.82288
4.43751
3.9004
3.4863
3.10195
2.72681
2.3976
2.12359
1.88908
1.67759
1.47358
1.26633
1.04751
0.810862
0.553575
0.272955
-0.0329222
-0.367939
4.59107
4.30418
3.82862
3.43343
3.07106
2.71664
2.39966
2.13025
1.8982
1.68517
1.47445
1.25981
1.03548
0.796533
0.54093
0.266423
-0.027085
-0.338017
4.38078
4.17697
3.76186
3.38865
3.04659
2.71321
2.41073
2.14803
1.91628
1.69956
1.48675
1.27226
1.05036
0.816492
0.567864
0.302768
0.0230524
-0.266598
4.18916
4.04808
3.69122
3.34502
3.02507
2.71342
2.4262
2.17154
1.94258
1.72757
1.51801
1.3081
1.09235
0.866429
0.627574
0.375331
0.111878
-0.157641
4.01576
3.9205
3.61647
3.29949
3.00239
2.71223
2.4406
2.19517
1.97127
1.76006
1.55422
1.34843
1.13807
0.91959
0.690981
0.452301
0.205251
-0.0451266
3.85922
3.79737
3.53998
3.25271
2.97836
2.70918
2.45352
2.21838
2.00087
1.79423
1.59251
1.39128
1.18688
0.976566
0.758961
0.534318
0.304023
0.0726794
3.71775
3.68024
3.4635
3.20577
2.95399
2.70528
2.46587
2.24199
2.03218
1.83147
1.63529
1.44011
1.24307
1.04213
0.836389
0.626301
0.413074
0.200754
3.60056
3.5788
3.3948
3.16346
2.93204
2.70164
2.47728
2.26454
2.06303
1.86921
1.67959
1.49137
1.30235
1.11105
0.916995
0.720758
0.523429
0.328658
3.49789
3.48326
3.32984
3.12355
2.91146
2.69863
2.48917
2.28798
2.09559
1.9097
1.72771
1.54753
1.36754
1.18676
1.00504
0.823035
0.641782
0.464454
3.39965
3.38412
3.26119
3.08164
2.89043
2.69672
2.50401
2.31647
2.13546
1.95984
1.78792
1.61829
1.44993
1.28234
1.11558
0.950411
0.787828
0.630515
3.31289
3.29402
3.19511
3.04144
2.87176
2.69801
2.52352
2.35169
2.18447
2.02177
1.86275
1.70662
1.5529
1.40144
1.25256
1.10701
0.965727
0.830976
3.24324
3.22525
3.14242
3.01097
2.86126
2.70692
2.55112
2.39643
2.24509
2.09786
1.95464
1.81515
1.67927
1.54711
1.41906
1.29581
1.1782
1.06807
3.19789
3.18432
3.11502
3.00089
2.86799
2.73093
2.59266
2.45505
2.32044
2.19028
2.06508
1.9449
1.82975
1.71974
1.61517
1.5165
1.42436
1.34008
3.1942
3.1833
3.12504
3.02459
2.9049
2.78111
2.65679
2.53364
2.41414
2.3003
2.19317
2.09315
2.0003
1.91449
1.83547
1.76298
1.6972
1.63887
3.25782
3.24754
3.19489
3.10251
2.9901
2.8731
2.75618
2.64152
2.53187
2.42961
2.33621
2.25235
2.17804
2.1126
2.05468
2.00397
1.96159
1.92832
3.38955
3.3794
3.32345
3.22682
3.11055
2.98977
2.86986
2.75395
2.64513
2.54573
2.45713
2.38029
2.31628
2.26603
2.22649
2.192
2.16295
2.14325
3.54145
3.53651
3.47136
3.35975
3.23137
3.1004
2.97178
2.84958
2.73728
2.63696
2.5497
2.47643
2.41857
2.37621
2.3462
2.32373
2.30793
2.30079
3.72285
3.71998
3.63468
3.49948
3.35329
3.20745
3.06601
2.93423
2.81606
2.71319
2.62628
2.55559
2.50109
2.46184
2.43423
2.41654
2.40884
2.41012
3.9282
3.91663
3.79973
3.63638
3.47021
3.30661
3.14942
3.00597
2.88063
2.77441
2.68726
2.61862
2.56713
2.53022
2.50383
2.48666
2.48075
2.48647
4.15226
4.11897
3.95903
3.7649
3.5779
3.39457
3.22006
3.06416
2.93091
2.82019
2.73142
2.66361
2.61467
2.58171
2.56134
2.54897
2.5446
2.55041
4.3944
4.31993
4.10506
3.88317
3.67773
3.47366
3.28072
3.11171
2.9698
2.85274
2.75945
2.68968
2.64123
2.61086
2.59663
2.5934
2.59553
2.60221
4.65648
4.51839
4.2409
4.00046
3.78082
3.55362
3.33815
3.15196
2.99876
2.87448
2.77566
2.70236
2.65235
2.6216
2.60593
2.60124
2.60419
2.61207
4.94963
4.73892
4.38352
4.11971
3.8818
3.62847
3.38872
3.18237
3.01098
2.87316
2.76775
2.69278
2.64408
2.61646
2.60312
2.60077
2.60945
2.62636
5.28028
4.94678
4.52316
4.23419
3.96127
3.67265
3.40508
3.17553
2.982
2.82604
2.7102
2.63035
2.57999
2.553
2.54351
2.54784
2.56243
2.58343
5.66121
4.98679
4.54834
4.29839
4.01968
3.71538
3.4358
3.19601
2.9951
2.83556
2.72023
2.64529
2.60352
2.58784
2.59181
2.6102
2.63808
2.67281
6.39705
5.11588
4.57373
4.31655
4.00635
3.66768
3.36372
3.10699
2.89373
2.72514
2.60295
2.5235
2.47965
2.46343
2.46755
2.48667
2.51577
2.55526
2.23684
2.26015
2.27043
2.28302
2.2893
2.27312
2.22646
2.14754
2.03264
1.87777
1.6807
1.44115
1.16075
0.842857
0.492493
0.116069
-0.278901
-0.684108
-1.09167
-1.49312
-1.87911
-2.24088
-2.57105
-2.86331
-3.11284
-3.31362
-3.47358
-3.60459
-3.71094
-3.79271
-3.85176
-3.89213
-3.91846
-3.93511
-3.9461
-3.95374
-3.96054
-3.97062
-3.98698
-4.01188
-4.04798
-4.09838
-4.16603
-4.25319
-4.36098
-4.48904
-4.63561
-4.79767
-4.97151
-5.15358
-5.34046
-5.52865
-5.71484
-5.89618
-6.07058
-6.23748
-6.39489
-6.54058
-6.67177
-6.78517
-6.87729
-6.94493
-6.98551
-6.9971
-6.97835
-6.92962
-6.85187
-6.74993
-6.62988
-6.49912
-6.36749
-6.24582
-6.14417
-6.0686
-6.0255
-6.03161
-6.11317
-6.28778
-6.56706
-6.96212
-7.47812
-8.11452
-8.86425
-9.71341
-10.6413
-11.6213
-12.6224
-13.6112
-14.554
-15.4176
-16.1705
-16.7827
-17.2244
-17.4691
-17.4987
-17.3024
-16.877
-16.2164
-15.297
-14.0947
-12.6195
-10.8918
-8.93156
-6.76127
-4.40773
-1.90151
0.72387
3.43102
6.1793
8.92858
11.6382
14.2662
16.7704
19.1123
21.2577
23.1788
24.8594
26.2988
27.4882
28.4379
29.1931
29.7747
30.1683
30.3819
30.4503
30.4
30.2511
30.0235
29.7383
29.4141
29.0653
28.704
28.3424
27.9896
27.6562
27.3325
27.0325
26.7606
26.5168
26.3008
26.1113
25.9464
25.8044
25.6823
25.5771
25.4864
25.4093
25.3465
25.3013
25.2792
25.286
25.3266
25.3682
25.3786
25.3102
25.1022
24.6825
23.9594
22.7911
20.9998
18.4407
15.4114
12.2261
9.35766
7.28369
6.31123
6.58639
8.08759
10.681
14.024
17.7242
21.3539
24.5979
27.2565
29.222
30.4489
31.0183
31.0993
30.9985
30.7251
2.1543
2.18028
2.18215
2.18029
2.16646
2.13103
2.06768
1.97087
1.83838
1.66901
1.46006
1.21044
0.921527
0.596707
0.241042
-0.138892
-0.534927
-0.939262
-1.34483
-1.74235
-2.12109
-2.47299
-2.79271
-3.07695
-3.32439
-3.53852
-3.71318
-3.84185
-3.92905
-3.98176
-4.00626
-4.0089
-3.99602
-3.97409
-3.94977
-3.92987
-3.91815
-3.91557
-3.92385
-3.94471
-3.97963
-4.03027
-4.09867
-4.18697
-4.29693
-4.42929
-4.58297
-4.75499
-4.9407
-5.13461
-5.3316
-5.52769
-5.72011
-5.90723
-6.08808
-6.26082
-6.42409
-6.57594
-6.71364
-6.83362
-6.932
-7.00499
-7.0493
-7.06238
-7.04148
-6.98597
-6.89668
-6.77536
-6.62904
-6.47187
-6.32202
-6.18959
-6.07707
-5.98492
-5.92216
-5.91232
-5.97728
-6.13545
-6.40532
-6.80066
-7.32895
-7.99025
-8.7764
-9.67101
-10.6502
-11.684
-12.7389
-13.7793
-14.7692
-15.6737
-16.4599
-17.0986
-17.5666
-17.8416
-17.8995
-17.7188
-17.2828
-16.5801
-15.6164
-14.4059
-12.9471
-11.2436
-9.31038
-7.16786
-4.84161
-2.36207
0.238573
2.92488
5.65671
8.39324
11.0947
13.7196
16.2264
18.5767
20.7376
22.6836
24.4004
25.8839
27.1276
28.1281
28.8939
29.4486
29.8244
30.056
30.1596
30.1515
30.0503
29.8712
29.6318
29.3494
29.0393
28.7143
28.3829
28.0516
27.7188
27.3964
27.0972
26.8176
26.5593
26.3243
26.114
25.9294
25.77
25.6348
25.5227
25.4315
25.3584
25.3017
25.2619
25.2434
25.2521
25.2828
25.3324
25.3352
25.3026
25.1373
24.7942
24.1605
23.0575
21.3114
18.6517
15.5278
12.2107
9.23155
7.03517
5.96006
6.16261
7.63176
10.1647
13.4804
17.2172
20.9723
24.3911
27.1464
29.1511
30.4196
31.0949
31.3333
31.3742
31.0322
2.05642
2.08831
2.08725
2.08143
2.06191
2.01452
1.93235
1.81551
1.66396
1.47404
1.24326
0.971708
0.661385
0.315999
-0.0590555
-0.456683
-0.868073
-1.28564
-1.70191
-2.1059
-2.48631
-2.83555
-3.14835
-3.42097
-3.65128
-3.8391
-3.98558
-4.09524
-4.17125
-4.21943
-4.24608
-4.25622
-4.25398
-4.24302
-4.22638
-4.20638
-4.18459
-4.1627
-4.14336
-4.13012
-4.12729
-4.13997
-4.17349
-4.23256
-4.32016
-4.43684
-4.58041
-4.74642
-4.92905
-5.12214
-5.32022
-5.51913
-5.71613
-5.90965
-6.09867
-6.282
-6.45787
-6.62296
-6.77384
-6.90619
-7.01567
-7.09786
-7.14877
-7.16468
-7.14193
-7.07707
-6.97286
-6.83465
-6.67207
-6.50101
-6.33911
-6.19545
-6.07377
-5.9792
-5.92879
-5.9508
-6.07211
-6.31279
-6.68776
-7.20405
-7.85951
-8.64289
-9.53503
-10.5109
-11.5416
-12.5966
-13.6452
-14.6573
-15.6043
-16.4586
-17.1933
-17.783
-18.205
-18.4392
-18.466
-18.2663
-17.8238
-17.1251
-16.165
-14.9468
-13.4754
-11.7598
-9.81526
-7.66068
-5.32037
-2.82558
-0.209834
2.49206
5.24211
8.00032
10.726
13.3769
15.9121
18.2941
20.4894
22.4708
24.2206
25.7294
26.9918
28.0022
28.781
29.3496
29.7307
29.957
30.0523
30.0354
29.9283
29.7491
29.512
29.2326
28.9244
28.5988
28.2649
27.9304
27.6056
27.3063
27.0169
26.7457
26.4968
26.271
26.0691
25.8917
25.7388
25.6096
25.5019
25.4133
25.3417
25.2866
25.2512
25.2425
25.2686
25.326
25.3916
25.4414
25.3888
25.2222
24.8671
24.1937
23.003
21.084
18.2591
14.9081
11.4591
8.4448
6.29143
5.28325
5.55199
7.07039
9.66695
13.0587
16.8828
20.73
24.2349
27.06
29.1094
30.3871
31.0414
31.2309
31.1548
30.7313
1.89035
1.92987
1.92085
1.90322
1.86558
1.79442
1.68789
1.54673
1.36804
1.14861
0.887508
0.585688
0.245772
-0.127748
-0.528385
-0.948508
-1.38034
-1.81495
-2.24109
-2.64681
-3.02235
-3.36026
-3.65509
-3.90349
-4.10444
-4.25931
-4.37144
-4.44515
-4.48556
-4.4996
-4.49451
-4.4767
-4.45164
-4.42374
-4.39613
-4.37057
-4.34761
-4.32703
-4.30848
-4.29235
-4.2804
-4.27634
-4.28565
-4.31488
-4.37012
-4.45549
-4.57198
-4.71723
-4.88622
-5.0727
-5.27062
-5.47519
-5.68304
-5.89198
-6.10012
-6.30502
-6.50323
-6.69171
-6.86615
-7.02151
-7.15288
-7.25336
-7.31557
-7.33637
-7.31185
-7.24003
-7.12438
-6.9714
-6.79252
-6.60669
-6.43104
-6.28001
-6.16795
-6.10864
-6.12162
-6.23114
-6.45847
-6.81675
-7.3101
-7.93388
-8.67592
-9.51846
-10.4405
-11.4194
-12.4326
-13.457
-14.4695
-15.4464
-16.3635
-17.1955
-17.9162
-18.4994
-18.9195
-19.153
-19.1779
-18.9739
-18.5285
-17.8286
-16.8698
-15.6507
-14.1742
-12.4503
-10.4961
-8.33155
-5.98045
-3.47209
-0.840042
1.87947
4.64982
7.43273
10.1865
12.8688
15.4384
17.8567
20.0894
22.1073
23.8892
25.4229
26.7034
27.7326
28.5289
29.1151
29.5158
29.7581
29.8659
29.8587
29.7575
29.5869
29.3627
29.0964
28.8016
28.4903
28.1718
27.8537
27.5418
27.2416
26.9569
26.6916
26.4473
26.2253
26.0265
25.8517
25.7011
25.5742
25.4698
25.3859
25.3211
25.2748
25.2485
25.2472
25.2762
25.3358
25.4105
25.4689
25.4458
25.294
24.9256
24.1834
22.8332
20.6616
17.5851
14.0318
10.4866
7.45428
5.32733
4.36492
4.68295
6.25576
8.9105
12.3681
16.263
20.189
23.7494
26.6411
28.7374
30.0493
30.7197
30.9076
30.7991
30.3688
1.68283
1.73109
1.71117
1.67677
1.61607
1.51817
1.38346
1.2117
0.99914
0.743332
0.443756
0.101757
-0.278956
-0.692901
-1.1335
-1.59194
-2.05647
-2.51424
-2.95313
-3.36174
-3.73001
-4.04997
-4.31624
-4.52629
-4.68048
-4.78198
-4.83628
-4.85153
-4.83499
-4.79612
-4.74384
-4.68579
-4.62821
-4.57572
-4.53117
-4.49572
-4.46903
-4.44954
-4.43505
-4.42337
-4.41322
-4.40515
-4.40217
-4.40989
-4.43559
-4.48662
-4.56837
-4.68292
-4.82876
-5.00172
-5.19646
-5.40772
-5.63081
-5.86199
-6.09809
-6.33547
-6.56882
-6.79328
-7.00283
-7.18881
-7.34706
-7.47129
-7.55241
-7.58544
-7.56596
-7.49304
-7.3718
-7.21226
-7.02945
-6.84365
-6.67496
-6.54238
-6.46585
-6.46402
-6.55485
-6.75415
-7.07234
-7.51274
-8.07181
-8.74049
-9.50612
-10.3539
-11.2678
-12.2312
-13.2266
-14.235
-15.2355
-16.2051
-17.1196
-17.953
-18.6781
-19.2678
-19.6958
-19.9372
-19.9692
-19.7729
-19.3307
-18.6365
-17.6834
-16.4688
-14.9958
-13.2734
-11.3166
-9.14658
-6.78909
-4.27191
-1.6273
1.10708
3.89376
6.69566
9.47328
12.1858
14.7922
17.2521
19.5283
21.589
23.4108
24.9794
26.2895
27.3466
28.1682
28.7777
29.2009
29.4646
29.5929
29.606
29.5219
29.3651
29.158
28.9106
28.6329
28.3371
28.033
27.7282
27.4283
27.14
26.8672
26.6115
26.375
26.1595
25.9665
25.7967
25.6505
25.5279
25.4281
25.3501
25.2927
25.2554
25.2395
25.2487
25.2875
25.3559
25.4395
25.5048
25.4938
25.3413
24.9403
24.0999
22.5538
20.0977
16.7811
13.0464
9.41573
6.35791
4.24753
3.32394
3.68669
5.30107
8.00555
11.5197
15.4794
19.473
23.098
26.0563
28.2085
29.5692
30.2745
30.4819
30.3629
29.9248
1.44137
1.49534
1.46002
1.40578
1.32135
1.19669
1.03191
0.825502
0.573279
0.272505
-0.0773792
-0.474459
-0.913677
-1.38689
-1.88343
-2.39059
-2.89434
-3.38039
-3.83486
-4.24512
-4.60052
-4.89312
-5.11819
-5.27452
-5.36446
-5.39372
-5.37122
-5.30679
-5.21319
-5.10246
-4.98551
-4.8717
-4.76834
-4.6804
-4.6104
-4.55868
-4.52371
-4.50252
-4.49125
-4.48578
-4.48249
-4.4792
-4.47613
-4.47664
-4.48713
-4.51604
-4.57192
-4.66129
-4.78725
-4.94927
-5.14411
-5.36688
-5.61148
-5.87206
-6.14364
-6.4188
-6.68869
-6.95194
-7.205
-7.43414
-7.63208
-7.79011
-7.89596
-7.94474
-7.93445
-7.86707
-7.75063
-7.59628
-7.42072
-7.24521
-7.09258
-6.98482
-6.94223
-6.98221
-7.11874
-7.36152
-7.71524
-8.17976
-8.75091
-9.42155
-10.1826
-11.0234
-11.9307
-12.8897
-13.8843
-14.8958
-15.9025
-16.8813
-17.8086
-18.6586
-19.4027
-20.0128
-20.4619
-20.7241
-20.7761
-20.6009
-20.1812
-19.5057
-18.5671
-17.3638
-15.8996
-14.1831
-12.227
-10.053
-7.68882
-5.16474
-2.51336
0.229548
3.02786
5.84513
8.64325
11.3828
14.0232
16.523
18.8429
20.9488
22.8138
24.4215
25.7665
26.8555
27.7064
28.3432
28.7927
29.0817
29.2349
29.2732
29.2148
29.0785
28.8894
28.6633
28.4068
28.1302
27.8441
27.5567
27.2743
27.0025
26.7444
26.5022
26.2779
26.0733
25.8897
25.7281
25.5891
25.473
25.3795
25.3078
25.2574
25.2283
25.2215
25.24
25.2863
25.3592
25.446
25.5146
25.507
25.3413
24.8864
23.9209
22.1624
19.4324
15.8907
12.0133
8.30819
5.22497
3.1324
2.24083
2.63544
4.28322
7.03109
10.5917
14.607
18.657
22.3439
25.364
27.5715
28.9807
29.724
29.9596
29.8461
29.4206
1.19342
1.24986
1.19786
1.12449
1.01712
0.866613
0.670944
0.426045
0.126767
-0.229962
-0.643679
-1.10984
-1.61981
-2.1614
-2.72
-3.2795
-3.82325
-4.33502
-4.79982
-5.20456
-5.53858
-5.79434
-5.96791
-6.05943
-6.07325
-6.01769
-5.90495
-5.74872
-5.5653
-5.3704
-5.17778
-4.9988
-4.84197
-4.71252
-4.61249
-4.54115
-4.49554
-4.47111
-4.46238
-4.46362
-4.46964
-4.47656
-4.48273
-4.48964
-4.50228
-4.52874
-4.57873
-4.6614
-4.78322
-4.94698
-5.15178
-5.3923
-5.65949
-5.94718
-6.25313
-6.57094
-6.89126
-7.21333
-7.52428
-7.80275
-8.04199
-8.23361
-8.36821
-8.44216
-8.45052
-8.39527
-8.28486
-8.13265
-7.95705
-7.78023
-7.62576
-7.51616
-7.47121
-7.5072
-7.63673
-7.86856
-8.2077
-8.6558
-9.21121
-9.86907
-10.6221
-11.4606
-12.3709
-13.3377
-14.346
-15.3772
-16.4085
-17.4165
-18.3761
-19.2603
-20.0406
-20.6877
-21.1731
-21.4702
-21.5562
-21.4132
-21.0237
-20.3738
-19.4563
-18.2696
-16.8173
-15.1085
-13.1581
-10.9875
-8.62375
-6.09781
-3.44379
-0.697639
2.1052
4.92951
7.73933
10.4969
13.1627
15.6957
18.0549
20.2033
22.1108
23.7585
25.1403
26.2632
27.1453
27.8116
28.2896
28.6069
28.7884
28.8559
28.8283
28.7223
28.5572
28.3545
28.1237
27.8712
27.6073
27.3409
27.0785
26.8255
26.5855
26.3608
26.1531
25.9636
25.7934
25.6435
25.5147
25.4075
25.3219
25.2576
25.2144
25.1925
25.1927
25.2172
25.2673
25.341
25.4257
25.4903
25.4748
25.2835
24.7612
23.6622
21.6987
18.7367
15.0064
11.0089
7.25219
4.14185
2.06432
1.19611
1.61408
3.28844
6.06647
9.65612
13.7044
17.7961
21.5302
24.5991
26.8534
28.3072
29.0901
29.3605
29.265
28.8671
0.972756
1.03007
0.96132
0.869872
0.740926
0.565121
0.336777
0.0490494
-0.303545
-0.722674
-1.20505
-1.74215
-2.32082
-2.92451
-3.53494
-4.13357
-4.70258
-5.22546
-5.68736
-6.07541
-6.37922
-6.59159
-6.70923
-6.73338
-6.67004
-6.52998
-6.32753
-6.08047
-5.80854
-5.53076
-5.26378
-5.02111
-4.81239
-4.64302
-4.51446
-4.42479
-4.36955
-4.34261
-4.3371
-4.34617
-4.3638
-4.38542
-4.40868
-4.43408
-4.4655
-4.51
-4.57672
-4.67504
-4.81251
-4.99358
-5.21857
-5.48295
-5.78088
-6.11171
-6.47545
-6.85741
-7.2409
-7.62045
-7.98073
-8.30983
-8.60296
-8.84316
-9.0164
-9.116
-9.13804
-9.0851
-8.9657
-8.79436
-8.59089
-8.37861
-8.1821
-8.0251
-7.92898
-7.91196
-7.98882
-8.17086
-8.46581
-8.87787
-9.40707
-10.0488
-10.7958
-11.6395
-12.5661
-13.5575
-14.5955
-15.6605
-16.7311
-17.7837
-18.791
-19.7244
-20.555
-21.2519
-21.7845
-22.1246
-22.25
-22.1409
-21.7828
-21.1633
-20.2746
-19.1141
-17.6842
-15.9931
-14.0559
-11.8944
-9.53645
-7.0144
-4.36361
-1.62061
1.17886
4.00002
6.80977
9.57186
12.2497
14.803
17.1904
19.3726
21.3169
23.0018
24.4194
25.5764
26.4909
27.1884
27.697
28.0447
28.2572
28.3568
28.3626
28.2916
28.1584
27.9835
27.7816
27.5577
27.3208
27.0796
26.841
26.6103
26.3916
26.1875
25.9995
25.8286
25.6755
25.5409
25.4254
25.3297
25.2539
25.1981
25.1624
25.1469
25.1522
25.1795
25.2294
25.2986
25.3747
25.4267
25.3927
25.1663
24.5729
23.3508
21.216
18.0785
14.2061
10.1137
6.30943
3.19794
1.12054
0.2681
0.704698
2.39362
5.17684
8.77648
12.836
16.9455
20.7043
23.8028
26.0899
27.5804
28.4016
28.709
28.6413
28.2781
0.830532
0.868166
0.787266
0.681363
0.533337
0.333447
0.0724671
-0.257515
-0.660951
-1.13693
-1.67829
-2.27198
-2.90045
-3.54383
-4.18197
-4.79583
-5.36812
-5.88325
-6.32723
-6.68777
-6.95478
-7.12126
-7.18428
-7.14583
-7.01316
-6.79905
-6.52019
-6.19668
-5.85122
-5.50543
-5.17829
-4.88491
-4.63562
-4.43579
-4.28616
-4.18366
-4.12257
-4.09568
-4.09541
-4.11466
-4.14748
-4.18954
-4.23858
-4.29487
-4.36148
-4.44418
-4.55062
-4.68901
-4.86657
-5.08843
-5.35654
-5.66942
-6.02427
-6.41945
-6.84664
-7.28575
-7.73103
-8.18239
-8.62034
-9.0238
-9.3785
-9.66629
-9.87245
-9.98714
-10.0058
-9.93093
-9.77175
-9.54452
-9.27121
-8.97771
-8.69158
-8.44006
-8.24845
-8.13899
-8.13023
-8.23668
-8.46846
-8.83195
-9.32932
-9.95768
-10.7075
-11.5657
-12.5167
-13.5419
-14.6195
-15.7284
-16.8475
-17.9524
-19.0155
-20.007
-20.895
-21.6466
-22.2295
-22.6148
-22.7829
-22.7155
-22.3979
-21.818
-20.9676
-19.8428
-18.4449
-16.7812
-14.8664
-12.722
-10.377
-7.86588
-5.22562
-2.49375
0.293147
3.10058
5.89656
8.64864
11.3223
13.8794
16.279
18.481
20.4508
22.1647
23.6133
24.8021
25.7488
26.4784
27.0193
27.3998
27.6458
27.7799
27.8215
27.7875
27.6918
27.5506
27.3805
27.189
26.9836
26.7722
26.5617
26.3573
26.1634
25.9829
25.8176
25.6682
25.5354
25.4193
25.3202
25.2385
25.1744
25.1284
25.1004
25.0906
25.0994
25.1271
25.173
25.233
25.294
25.3251
25.2636
24.996
24.3355
23.0134
20.7568
17.5038
13.5432
9.39036
5.55637
2.44274
0.371529
-0.470389
-0.0290213
1.65657
4.42755
8.01226
12.0562
16.1546
19.9096
23.013
25.3149
26.8312
27.686
28.0292
27.9942
27.6703
0.794008
0.80079
0.698386
0.588189
0.427116
0.207406
-0.0808233
-0.444906
-0.887472
-1.40444
-1.98479
-2.6115
-3.26389
-3.92032
-4.56034
-5.16574
-5.72059
-6.21074
-6.62338
-6.94701
-7.17208
-7.29197
-7.30415
-7.21117
-7.02128
-6.74865
-6.41176
-6.03247
-5.63556
-5.2439
-4.87748
-4.55207
-4.27801
-4.06019
-3.89857
-3.7893
-3.72614
-3.70189
-3.70943
-3.74248
-3.79603
-3.86662
-3.95262
-4.05437
-4.17435
-4.31699
-4.48822
-4.69451
-4.94181
-5.23468
-5.57477
-5.95872
-6.38319
-6.85027
-7.3569
-7.88881
-8.43389
-8.98091
-9.50811
-9.99156
-10.4091
-10.7395
-10.9655
-11.0749
-11.0625
-10.9314
-10.6929
-10.3661
-9.97674
-9.55516
-9.13378
-8.74511
-8.4198
-8.18497
-8.06311
-8.07173
-8.22423
-8.53228
-8.99864
-9.61518
-10.3688
-11.2422
-12.2179
-13.2772
-14.3981
-15.5579
-16.7331
-17.8971
-19.0209
-20.0729
-21.0196
-21.8262
-22.4604
-22.8953
-23.1109
-23.0922
-22.8235
-22.2926
-21.4903
-20.4112
-19.0552
-17.429
-15.5465
-13.4291
-11.1066
-8.61548
-5.99458
-3.28306
-0.518652
2.26397
5.03384
7.76099
10.4137
12.9565
15.3498
17.554
19.5339
21.2643
22.7349
23.9501
24.9265
25.688
26.2622
26.6773
26.9589
27.1299
27.2096
27.2146
27.1592
27.0562
26.9215
26.7662
26.5963
26.419
26.2408
26.067
25.9018
25.7482
25.6084
25.4833
25.3733
25.2783
25.1982
25.133
25.0826
25.0474
25.0276
25.0232
25.0343
25.0603
25.0996
25.1465
25.1875
25.1916
25.096
24.7849
24.0669
22.6748
20.3499
17.045
13.0519
8.88115
5.04216
1.93833
-0.124364
-0.966621
-0.536123
1.1281
3.86686
7.41119
11.4097
15.4644
19.1836
22.2637
24.5595
26.0881
26.9666
27.3414
27.3401
27.0577
0.86257
0.815242
0.724625
0.603142
0.432046
0.19818
-0.108551
-0.494445
-0.960031
-1.4987
-2.09656
-2.73393
-3.38835
-4.03748
-4.66128
-5.24256
-5.76671
-6.22083
-6.59328
-6.87354
-7.05293
-7.12558
-7.08973
-6.9488
-6.71203
-6.39422
-6.0149
-5.59782
-5.16905
-4.74902
-4.35858
-4.01388
-3.7245
-3.49482
-3.32453
-3.20993
-3.14553
-3.1254
-3.14394
-3.1964
-3.27913
-3.38974
-3.52716
-3.69172
-3.885
-4.10981
-4.36989
-4.6694
-5.01208
-5.40098
-5.83791
-6.32202
-6.85386
-7.43579
-8.06319
-8.72218
-9.39477
-10.0595
-10.69
-11.2579
-11.7358
-12.0982
-12.3251
-12.4031
-12.3275
-12.1032
-11.7446
-11.275
-10.7252
-10.131
-9.53122
-8.96485
-8.46906
-8.07679
-7.81516
-7.70592
-7.7689
-8.01608
-8.44345
-9.03828
-9.78746
-10.6735
-11.676
-12.7733
-13.941
-15.1542
-16.3865
-17.6093
-18.7917
-19.9009
-20.9039
-21.7639
-22.4509
-22.9398
-23.2113
-23.2485
-23.0366
-22.5627
-21.8166
-20.7917
-19.4866
-17.9067
-16.0652
-13.984
-11.6941
-9.23284
-6.64138
-3.96087
-1.2302
1.51575
4.24654
6.9339
9.54869
12.0581
14.4252
16.6124
18.5854
20.3181
21.7994
23.0331
24.0342
24.8253
25.4325
25.883
26.2018
26.4115
26.5311
26.5772
26.5639
26.5022
26.407
26.2912
26.1607
26.0213
25.8794
25.7402
25.6076
25.4847
25.3735
25.2752
25.1903
25.1186
25.0596
25.0128
24.9779
24.9548
24.9437
24.9445
24.9569
24.9799
25.0106
25.0423
25.0603
25.0337
24.9009
24.5476
23.7857
22.3565
20.0167
16.724
12.7581
8.61636
4.80338
1.72422
-0.327363
-1.17793
-0.774658
0.848514
3.53305
7.0099
10.9312
14.9078
18.557
21.5839
23.85
25.3721
26.2609
26.6611
26.6936
26.4517
1.0098
0.911717
0.820647
0.698001
0.52222
0.282277
-0.0315871
-0.424678
-0.896188
-1.43807
-2.03508
-2.66639
-3.30878
-3.93978
-4.5396
-5.09161
-5.58184
-5.99819
-6.32981
-6.56711
-6.70231
-6.73045
-6.65063
-6.4671
-6.18986
-5.83428
-5.4199
-4.96941
-4.50769
-4.06088
-3.64633
-3.27876
-2.96839
-2.72008
-2.53453
-2.40956
-2.34154
-2.32641
-2.36045
-2.44033
-2.56351
-2.72821
-2.93349
-3.17907
-3.46523
-3.79295
-4.16396
-4.58054
-5.04563
-5.56291
-6.13596
-6.767
-7.45727
-8.20463
-8.99907
-9.82253
-10.651
-11.4553
-12.2024
-12.8584
-13.3911
-13.7721
-13.9798
-14.001
-13.8323
-13.4814
-12.9662
-12.3144
-11.5624
-10.7525
-9.93133
-9.14616
-8.44251
-7.86092
-7.4352
-7.19296
-7.15406
-7.32388
-7.69617
-8.2612
-9.00266
-9.90002
-10.9281
-12.0623
-13.275
-14.5383
-15.8235
-17.0996
-18.3348
-19.4958
-20.5492
-21.4615
-22.2033
-22.7506
-23.0815
-23.1783
-23.0264
-22.6127
-21.9262
-20.9592
-19.7095
-18.1815
-16.3883
-14.3525
-12.1055
-9.68615
-7.1368
-4.50017
-1.81617
0.879985
3.55801
6.19065
8.75052
11.2073
13.5271
15.6754
17.6212
19.3398
20.8197
22.0638
23.0839
23.9005
24.5386
25.0238
25.3803
25.6297
25.7908
25.8796
25.9099
25.8919
25.8395
25.7666
25.6788
25.5811
25.4793
25.3785
25.2824
25.1936
25.1143
25.0456
24.988
24.9415
24.9052
24.8785
24.8604
24.8505
24.8487
24.8546
24.8679
24.8869
24.908
24.9233
24.9172
24.8591
24.6895
24.299
23.5088
22.0754
19.7715
16.5535
12.6771
8.61367
4.85851
1.81771
-0.217339
-1.07651
-0.708057
0.858406
3.46329
6.84042
10.6502
14.5118
18.0545
20.9961
23.204
24.696
25.5827
26.0025
26.0664
25.8609
1.16015
1.01836
0.930642
0.810982
0.636695
0.400334
0.09211
-0.293034
-0.754042
-1.28263
-1.86397
-2.47774
-3.10104
-3.71152
-4.28933
-4.81763
-5.28225
-5.67094
-5.97283
-6.17835
-6.27976
-6.27207
-6.15421
-5.93021
-5.60982
-5.20845
-4.74626
-4.24671
-3.73497
-3.23562
-2.76967
-2.35381
-1.99912
-1.71236
-1.49652
-1.35149
-1.27549
-1.26613
-1.32086
-1.43718
-1.61292
-1.84618
-2.1354
-2.47929
-2.87695
-3.32826
-3.83425
-4.3974
-5.02175
-5.71231
-6.47345
-7.30699
-8.21063
-9.17554
-10.1844
-11.2116
-12.2254
-13.1892
-14.0637
-14.8102
-15.3931
-15.7823
-15.9559
-15.9016
-15.6178
-15.1142
-14.4119
-13.5429
-12.5492
-11.4813
-10.3951
-9.3489
-8.39902
-7.59588
-6.98103
-6.58552
-6.42603
-6.50595
-6.814
-7.34134
-8.06822
-8.96995
-10.0183
-11.1835
-12.4348
-13.7411
-15.0708
-16.3917
-17.6714
-18.8768
-19.9755
-20.9364
-21.7314
-22.335
-22.7234
-22.8782
-22.7841
-22.4275
-21.7973
-20.8857
-19.6903
-18.2161
-16.4765
-14.4948
-12.303
-9.94036
-7.44967
-4.87395
-2.25316
0.377571
2.98811
5.55157
8.04143
10.429
12.6829
14.7708
16.6649
18.3468
19.8093
21.0538
22.0871
22.9244
23.5894
24.1072
24.5004
24.7896
24.9929
25.1258
25.2014
25.2296
25.2224
25.1943
25.1527
25.1005
25.0425
24.9837
24.9277
24.8766
24.8324
24.7961
24.7683
24.7487
24.7367
24.7311
24.731
24.7352
24.7432
24.7545
24.7684
24.783
24.794
24.7928
24.7631
24.6749
24.4717
24.0517
23.2497
21.8422
19.6196
16.5333
12.8058
8.87213
5.21094
2.22802
0.216567
-0.650817
-0.320722
1.17611
3.67855
6.92549
10.5878
14.295
17.6911
20.5097
22.6295
24.0721
24.9459
25.3779
25.467
25.2921
1.2148
1.052
0.970409
0.852759
0.685749
0.464155
0.175824
-0.185557
-0.619797
-1.11907
-1.6704
-2.25609
-2.85483
-3.44504
-4.0067
-4.52219
-4.97617
-5.355
-5.6463
-5.83886
-5.92307
-5.89186
-5.74206
-5.47568
-5.10102
-4.63301
-4.0927
-3.50586
-2.90057
-2.30462
-1.74321
-1.23715
-0.801959
-0.44762
-0.179216
0.000167812
0.0917381
0.0969028
0.018065
-0.141936
-0.380227
-0.694071
-1.08101
-1.53912
-2.06739
-2.66625
-3.33804
-4.087
-4.91859
-5.83785
-6.84714
-7.94374
-9.11808
-10.3523
-11.6197
-12.8861
-14.1116
-15.2529
-16.2659
-17.1083
-17.7426
-18.1383
-18.2736
-18.1367
-17.727
-17.0553
-16.1449
-15.0309
-13.7612
-12.3951
-11.0004
-9.6494
-8.41269
-7.35305
-6.52074
-5.94742
-5.64889
-5.62477
-5.8623
-6.34555
-7.05102
-7.94944
-9.00838
-10.194
-11.4723
-12.8091
-14.1707
-15.5244
-16.8371
-18.0761
-19.21
-20.2094
-21.0468
-21.6957
-22.1323
-22.3368
-22.2927
-21.9861
-21.4061
-20.5455
-19.4032
-17.9849
-16.3051
-14.3877
-12.265
-9.9758
-7.56236
-5.06682
-2.52836
0.0185247
2.54398
5.02127
7.42435
9.72584
11.8969
13.9083
15.7358
17.3661
18.7929
20.0198
21.0551
21.9068
22.5936
23.1402
23.5679
23.8957
24.1411
24.3188
24.4414
24.5187
24.5597
24.5779
24.5841
24.581
24.5708
24.5577
24.5452
24.5354
24.5296
24.5286
24.5329
24.5422
24.5558
24.5726
24.5912
24.6102
24.6286
24.6457
24.6603
24.6703
24.6714
24.6543
24.6027
24.4874
24.2559
23.8155
23.0175
21.6617
19.5576
16.6508
13.1263
9.37429
5.84862
2.95043
0.975679
0.1022
0.385565
1.79495
4.17189
7.25965
10.7387
14.2532
17.4647
20.1264
22.1332
23.511
24.3599
24.7944
24.9012
24.7496
1.09813
0.940733
0.866119
0.749402
0.591423
0.388546
0.127311
-0.199918
-0.592532
-1.04489
-1.54934
-2.09335
-2.65889
-3.22621
-3.77575
-4.28908
-4.749
-5.13926
-5.44412
-5.64829
-5.73742
-5.69919
-5.52504
-5.2122
-4.76561
-4.19921
-3.53594
-2.8063
-2.04542
-1.28936
-0.571593
0.0796317
0.642644
1.10275
1.45187
1.68835
1.81048
1.81911
1.71863
1.51342
1.20769
0.805162
0.308587
-0.280698
-0.963244
-1.74179
-2.6211
-3.60699
-4.70461
-5.91595
-7.23744
-8.65793
-10.1578
-11.7087
-13.2744
-14.8125
-16.2763
-17.6174
-18.7881
-19.7441
-20.4467
-20.8646
-20.9758
-20.7682
-20.2399
-19.4007
-18.2728
-16.8929
-15.3143
-13.6075
-11.8561
-10.1513
-8.58347
-7.2284
-6.14407
-5.36563
-4.90766
-4.76701
-4.92525
-5.35914
-6.03676
-6.92243
-7.97891
-9.16885
-10.4555
-11.8033
-13.1776
-14.5448
-15.8717
-17.126
-18.2777
-19.2977
-20.1591
-20.8357
-21.3042
-21.5441
-21.5385
-21.2733
-20.738
-19.9266
-18.8388
-17.4817
-15.8706
-14.0298
-11.9911
-9.79248
-7.47488
-5.07896
-2.64259
-0.199431
2.2211
4.59253
6.88953
9.08658
11.158
13.0795
14.8314
16.4014
17.7829
18.9803
20.0031
20.8576
21.5589
22.1289
22.5873
22.9516
23.2381
23.4607
23.6313
23.7597
23.8535
23.9219
23.9765
24.024
24.0654
24.1021
24.1367
24.1715
24.2073
24.2447
24.2837
24.3239
24.3647
24.4049
24.4431
24.4775
24.507
24.5302
24.5459
24.5519
24.5435
24.5118
24.4406
24.3022
24.0486
23.5974
22.8177
21.534
19.5763
16.8858
13.6098
10.0884
6.74202
3.96046
2.04047
1.1651
1.39477
2.69956
4.92407
7.82048
11.0817
14.3687
17.364
19.8436
21.7181
23.0165
23.8293
24.2567
24.3725
24.2362
0.77193
0.620884
0.55285
0.440855
0.293112
0.110067
-0.119652
-0.40319
-0.741681
-1.13285
-1.57429
-2.06055
-2.58008
-3.11732
-3.65504
-4.17517
-4.65904
-5.08713
-5.43862
-5.69125
-5.82185
-5.8077
-5.62918
-5.27319
-4.73695
-4.03121
-3.18167
-2.22757
-1.21744
-0.203046
0.766815
1.65098
2.41842
3.04834
3.52875
3.85571
4.03224
4.06017
3.94691
3.69828
3.3198
2.81551
2.18729
1.43445
0.553689
-0.460284
-1.61343
-2.91034
-4.35181
-5.93248
-7.63915
-9.44994
-11.3344
-13.2544
-15.1651
-17.0174
-18.7593
-20.3383
-21.7038
-22.809
-23.6129
-24.0825
-24.1937
-23.9321
-23.2932
-22.2828
-20.9201
-19.245
-17.3174
-15.2204
-13.0581
-10.9439
-8.99006
-7.29212
-5.91835
-4.90954
-4.27677
-4.00786
-4.07776
-4.44988
-5.08496
-5.94138
-6.9771
-8.15109
-9.42404
-10.759
-12.1208
-13.476
-14.7924
-16.0367
-17.1816
-18.1994
-19.0628
-19.7466
-20.2282
-20.4873
-20.507
-20.2736
-19.7774
-19.0135
-17.9828
-16.6935
-15.1617
-13.4113
-11.4735
-9.38464
-7.18343
-4.9085
-2.596
-0.278422
2.01543
4.25966
6.43012
8.50367
10.4583
12.2745
13.9364
15.4341
16.7638
17.9265
18.9245
19.7679
20.4747
21.0621
21.5467
21.9447
22.2709
22.5384
22.7583
22.9399
23.0905
23.2164
23.3247
23.424
23.5196
23.6109
23.6977
23.7813
23.8628
23.9421
24.019
24.0929
24.163
24.2282
24.287
24.3378
24.3791
24.4092
24.4268
24.4296
24.4129
24.3682
24.28
24.1226
23.853
23.3997
22.6502
21.4539
19.6622
17.2146
14.2228
10.9753
7.85127
5.22102
3.37744
2.50679
2.67744
3.86162
5.90906
8.58439
11.5959
14.6239
17.3759
19.6528
21.3806
22.5884
23.3555
23.7665
23.8826
23.7532
0.243764
0.0949123
0.019358
-0.0807592
-0.214706
-0.38224
-0.587223
-0.831158
-1.1163
-1.44546
-1.82171
-2.24512
-2.71163
-3.21338
-3.73914
-4.27479
-4.80308
-5.30298
-5.74873
-6.10913
-6.34756
-6.42341
-6.29592
-5.93017
-5.3049
-4.42037
-3.30374
-2.00884
-0.609279