/*--------------------------------*- C++ -*----------------------------------*\
| =========                 |                                                 |
| \\      /  F ield         | OpenFOAM: The Open Source CFD Toolbox           |
|  \\    /   O peration     | Version:  2112                                  |
|   \\  /    A nd           | Website:  www.openfoam.com                      |
|    \\/     M anipulation  |                                                 |
\*---------------------------------------------------------------------------*/
FoamFile
{
    version     2.0;
    format      ascii;
    arch        "LSB;label=32;scalar=64";
    class       volVectorField;
    location    "0.1";
    object      U;
}
// * * * * * * * * * * * * * * * * * * * * * * * * * * * * * * * * * * * * * //

dimensions      [0 1 -1 0 0 0 0];

internalField   nonuniform List<vector> 
12225
(
(9.75313 0.0461139 0)
(9.27291 0.0819487 0)
(8.79656 0.0881356 0)
(8.33686 0.0862396 0)
(7.91148 0.0811536 0)
(7.52485 0.0741998 0)
(7.17459 0.066545 0)
(6.85823 0.0589125 0)
(6.57411 0.0516136 0)
(6.32033 0.044806 0)
(6.0944 0.0386157 0)
(5.89334 0.0331703 0)
(5.71371 0.0286314 0)
(5.55143 0.0252665 0)
(5.40096 0.0235735 0)
(5.25546 0.0245715 0)
(5.10054 0.0315297 0)
(4.92634 0.0488033 0)
(10.109 0.0677253 0)
(10.3199 0.106676 0)
(10.4565 0.109864 0)
(10.5272 0.11104 0)
(10.5527 0.11207 0)
(10.5453 0.111457 0)
(10.5118 0.109546 0)
(10.4587 0.106802 0)
(10.3918 0.103397 0)
(10.3158 0.0994781 0)
(10.2342 0.0952862 0)
(10.1495 0.0911443 0)
(10.0631 0.0874804 0)
(9.97579 0.0849297 0)
(9.8871 0.0845281 0)
(9.79549 0.0883649 0)
(9.69816 0.100583 0)
(9.59598 0.132549 0)
(10.0093 0.0400981 0)
(10.0573 0.0597295 0)
(10.109 0.0610651 0)
(10.1575 0.0671111 0)
(10.2077 0.0746193 0)
(10.2594 0.0801094 0)
(10.3091 0.0836677 0)
(10.3543 0.0858619 0)
(10.394 0.0869033 0)
(10.428 0.0869719 0)
(10.456 0.086373 0)
(10.4781 0.0855238 0)
(10.4944 0.0849773 0)
(10.5053 0.0855363 0)
(10.5112 0.0885184 0)
(10.5133 0.0962439 0)
(10.514 0.113179 0)
(10.5254 0.146066 0)
(10.0057 0.029872 0)
(10.0325 0.0563573 0)
(10.0583 0.0655514 0)
(10.0757 0.0732453 0)
(10.0907 0.0792824 0)
(10.1072 0.0822566 0)
(10.1248 0.0831181 0)
(10.1426 0.082921 0)
(10.1604 0.0820998 0)
(10.1778 0.0808794 0)
(10.1947 0.0795361 0)
(10.2105 0.0784319 0)
(10.225 0.0780439 0)
(10.2378 0.0790761 0)
(10.2493 0.0826251 0)
(10.2607 0.0904989 0)
(10.2741 0.105049 0)
(10.3004 0.127987 0)
(10.0041 0.0244137 0)
(10.026 0.0521857 0)
(10.0495 0.061881 0)
(10.0659 0.0672899 0)
(10.0787 0.0716533 0)
(10.0913 0.0742066 0)
(10.1037 0.0752631 0)
(10.1151 0.0755184 0)
(10.1255 0.0752876 0)
(10.1351 0.0747168 0)
(10.1438 0.0740299 0)
(10.1515 0.073567 0)
(10.1583 0.0737844 0)
(10.1641 0.0753201 0)
(10.1694 0.0790328 0)
(10.1754 0.0861179 0)
(10.184 0.0972531 0)
(10.201 0.112279 0)
(10.003 0.020117 0)
(10.0202 0.0460833 0)
(10.0409 0.056344 0)
(10.057 0.0619667 0)
(10.0701 0.06697 0)
(10.0828 0.0705195 0)
(10.0953 0.072384 0)
(10.107 0.0731383 0)
(10.1175 0.07322 0)
(10.1271 0.0728752 0)
(10.1357 0.0723777 0)
(10.1434 0.0720949 0)
(10.1502 0.0724788 0)
(10.1562 0.0740856 0)
(10.162 0.0775498 0)
(10.1687 0.0835167 0)
(10.1779 0.0919408 0)
(10.1929 0.101693 0)
(10.0022 0.0166422 0)
(10.0157 0.0403965 0)
(10.0336 0.0515661 0)
(10.049 0.0577237 0)
(10.0617 0.0627275 0)
(10.0739 0.0662086 0)
(10.086 0.0679522 0)
(10.0974 0.068553 0)
(10.1079 0.0685486 0)
(10.1176 0.0682357 0)
(10.1265 0.0678756 0)
(10.1346 0.067796 0)
(10.142 0.068382 0)
(10.149 0.0700603 0)
(10.1561 0.0732333 0)
(10.1642 0.0781442 0)
(10.1744 0.0843727 0)
(10.1884 0.0904928 0)
(10.0016 0.0138813 0)
(10.0123 0.035296 0)
(10.0277 0.0468281 0)
(10.042 0.0531931 0)
(10.0543 0.0579309 0)
(10.066 0.0612863 0)
(10.0776 0.0631262 0)
(10.0887 0.0639123 0)
(10.099 0.0641371 0)
(10.1086 0.0640894 0)
(10.1176 0.0640034 0)
(10.1259 0.0641615 0)
(10.1338 0.0648841 0)
(10.1415 0.0664868 0)
(10.1495 0.0691988 0)
(10.1583 0.0730319 0)
(10.1688 0.0774478 0)
(10.1816 0.0812928 0)
(10.0012 0.011667 0)
(10.0097 0.0306993 0)
(10.0228 0.0420819 0)
(10.0361 0.0485579 0)
(10.0478 0.0531312 0)
(10.059 0.0564248 0)
(10.0701 0.0583658 0)
(10.0809 0.0592709 0)
(10.0911 0.0595813 0)
(10.1006 0.0596038 0)
(10.1096 0.0595743 0)
(10.1182 0.0597456 0)
(10.1265 0.0603809 0)
(10.1347 0.0617056 0)
(10.1433 0.0638307 0)
(10.1526 0.0666613 0)
(10.1631 0.0697014 0)
(10.1749 0.0722029 0)
(10.0009 0.00985693 0)
(10.0077 0.0265797 0)
(10.0189 0.0374447 0)
(10.031 0.0439085 0)
(10.0422 0.0483143 0)
(10.0529 0.051459 0)
(10.0635 0.0533756 0)
(10.074 0.0543038 0)
(10.084 0.0546387 0)
(10.0934 0.0546922 0)
(10.1025 0.0546916 0)
(10.1113 0.0548498 0)
(10.12 0.0553685 0)
(10.1287 0.0563983 0)
(10.1377 0.057978 0)
(10.1473 0.0599879 0)
(10.1577 0.0620408 0)
(10.169 0.0637558 0)
(10.0007 0.00834472 0)
(10.0063 0.0229033 0)
(10.0158 0.0329918 0)
(10.0267 0.0392705 0)
(10.0373 0.0434552 0)
(10.0475 0.0463838 0)
(10.0577 0.0482041 0)
(10.0678 0.0491126 0)
(10.0776 0.0494413 0)
(10.0871 0.0494796 0)
(10.0962 0.0494362 0)
(10.1052 0.0494864 0)
(10.1141 0.0497829 0)
(10.1232 0.0504274 0)
(10.1325 0.0514287 0)
(10.1424 0.0526908 0)
(10.1528 0.0539453 0)
(10.1637 0.0550921 0)
(10.0006 0.00714003 0)
(10.0052 0.019833 0)
(10.0135 0.0290483 0)
(10.0234 0.0350102 0)
(10.0334 0.038941 0)
(10.0432 0.0416308 0)
(10.053 0.0433061 0)
(10.0628 0.0441399 0)
(10.0724 0.0444055 0)
(10.0818 0.0443627 0)
(10.091 0.0442032 0)
(10.1001 0.0440756 0)
(10.1092 0.0440989 0)
(10.1185 0.0443462 0)
(10.1281 0.0448183 0)
(10.1381 0.0454542 0)
(10.1486 0.0460764 0)
(10.1595 0.0467618 0)
(10.0005 0.00611013 0)
(10.0045 0.0170858 0)
(10.0117 0.025313 0)
(10.0206 0.0308137 0)
(10.03 0.0344304 0)
(10.0394 0.0368424 0)
(10.0489 0.0383141 0)
(10.0584 0.0390106 0)
(10.0678 0.039157 0)
(10.0771 0.0389785 0)
(10.0863 0.0386467 0)
(10.0955 0.0382874 0)
(10.1048 0.0379933 0)
(10.1143 0.0378185 0)
(10.124 0.0377642 0)
(10.1342 0.0378006 0)
(10.1447 0.0378121 0)
(10.1557 0.0379756 0)
(10.0004 0.00506628 0)
(10.0038 0.0142165 0)
(10.01 0.0212391 0)
(10.018 0.0260701 0)
(10.0267 0.0292387 0)
(10.0356 0.0312744 0)
(10.0447 0.0324453 0)
(10.0539 0.0329105 0)
(10.0631 0.0328504 0)
(10.0723 0.0324482 0)
(10.0815 0.0318483 0)
(10.0907 0.0311529 0)
(10.1001 0.030432 0)
(10.1097 0.029726 0)
(10.1196 0.0290395 0)
(10.1299 0.0283691 0)
(10.1405 0.0276404 0)
(10.1516 0.0270815 0)
(10.0004 0.00400607 0)
(10.0032 0.011246 0)
(10.0085 0.0168671 0)
(10.0157 0.0207951 0)
(10.0237 0.0233325 0)
(10.032 0.0248541 0)
(10.0406 0.0255961 0)
(10.0495 0.0257033 0)
(10.0584 0.0253144 0)
(10.0675 0.0245678 0)
(10.0766 0.0235751 0)
(10.0858 0.0224145 0)
(10.0952 0.0211366 0)
(10.1048 0.0197702 0)
(10.1148 0.0183208 0)
(10.1251 0.0167978 0)
(10.1358 0.015144 0)
(10.1469 0.0135904 0)
(10.0003 0.00292336 0)
(10.0027 0.00816569 0)
(10.0073 0.012195 0)
(10.0136 0.0149723 0)
(10.0209 0.0166576 0)
(10.0287 0.0174878 0)
(10.0369 0.0176404 0)
(10.0453 0.0172312 0)
(10.054 0.0163592 0)
(10.0628 0.0151178 0)
(10.0717 0.0135829 0)
(10.0808 0.0118067 0)
(10.0901 0.00982009 0)
(10.0996 0.0076388 0)
(10.1095 0.00526262 0)
(10.1196 0.00269855 0)
(10.1302 -0.000110787 0)
(10.1412 -0.00296568 0)
(10.0003 0.00179946 0)
(10.0023 0.00493103 0)
(10.0064 0.00717916 0)
(10.012 0.00856028 0)
(10.0187 0.00915479 0)
(10.0259 0.00908936 0)
(10.0336 0.00847054 0)
(10.0416 0.00737158 0)
(10.0499 0.00584998 0)
(10.0583 0.00395602 0)
(10.0669 0.00172872 0)
(10.0757 -0.000807875 0)
(10.0847 -0.00364361 0)
(10.0939 -0.00677828 0)
(10.1033 -0.010223 0)
(10.1131 -0.0139815 0)
(10.1231 -0.0181161 0)
(10.1335 -0.0224702 0)
(10.0002 0.000596573 0)
(10.0021 0.00144819 0)
(10.0058 0.00170716 0)
(10.0109 0.00144566 0)
(10.0171 0.000701749 0)
(10.0238 -0.000481974 0)
(10.031 -0.00206981 0)
(10.0386 -0.00403865 0)
(10.0463 -0.00637456 0)
(10.0543 -0.00906958 0)
(10.0624 -0.0121219 0)
(10.0706 -0.0155362 0)
(10.079 -0.0193238 0)
(10.0875 -0.0235002 0)
(10.0962 -0.0280874 0)
(10.105 -0.0331 0)
(10.1141 -0.0385968 0)
(10.1233 -0.044467 0)
(10.0002 -0.00076351 0)
(10.002 -0.00248115 0)
(10.0055 -0.00446388 0)
(10.0104 -0.00659247 0)
(10.0162 -0.00886893 0)
(10.0226 -0.0113307 0)
(10.0294 -0.0140124 0)
(10.0364 -0.016942 0)
(10.0437 -0.0201496 0)
(10.051 -0.0236688 0)
(10.0583 -0.0275338 0)
(10.0657 -0.0317772 0)
(10.0731 -0.0364297 0)
(10.0805 -0.04152 0)
(10.0879 -0.0470766 0)
(10.0953 -0.0531183 0)
(10.1027 -0.0596894 0)
(10.1101 -0.0667186 0)
(10.0002 -0.00207624 0)
(10.0022 -0.00625236 0)
(10.0059 -0.0103198 0)
(10.011 -0.0141188 0)
(10.0168 -0.0177166 0)
(10.0231 -0.021243 0)
(10.0297 -0.0247955 0)
(10.0364 -0.0284439 0)
(10.0431 -0.0322572 0)
(10.0499 -0.0363059 0)
(10.0565 -0.0406532 0)
(10.0629 -0.045351 0)
(10.0693 -0.0504429 0)
(10.0755 -0.055965 0)
(10.0816 -0.0619474 0)
(10.0875 -0.0684084 0)
(10.0932 -0.075377 0)
(10.0988 -0.0828011 0)
(10.0003 -0.00324454 0)
(10.0025 -0.0095634 0)
(10.0067 -0.0153226 0)
(10.0122 -0.0203506 0)
(10.0184 -0.0248508 0)
(10.0248 -0.0290666 0)
(10.0314 -0.0331337 0)
(10.0379 -0.0371428 0)
(10.0444 -0.0411996 0)
(10.0507 -0.0454144 0)
(10.0568 -0.049879 0)
(10.0626 -0.0546637 0)
(10.0681 -0.0598237 0)
(10.0734 -0.0654022 0)
(10.0784 -0.0714315 0)
(10.0832 -0.0779288 0)
(10.0877 -0.0849126 0)
(10.092 -0.0923454 0)
(10.0003 -0.0044745 0)
(10.0031 -0.0129602 0)
(10.0081 -0.0202284 0)
(10.0143 -0.0261887 0)
(10.021 -0.0313241 0)
(10.0277 -0.0360195 0)
(10.0343 -0.0404139 0)
(10.0409 -0.0445985 0)
(10.0472 -0.0487085 0)
(10.0532 -0.0528841 0)
(10.0588 -0.0572359 0)
(10.0641 -0.0618503 0)
(10.0689 -0.0667987 0)
(10.0734 -0.072139 0)
(10.0774 -0.077913 0)
(10.0812 -0.0841441 0)
(10.0846 -0.0908476 0)
(10.0877 -0.0979923 0)
(10.0005 -0.00586582 0)
(10.004 -0.0166386 0)
(10.0102 -0.0252048 0)
(10.0175 -0.0317948 0)
(10.0246 -0.0373323 0)
(10.0316 -0.0422972 0)
(10.0385 -0.0467991 0)
(10.0452 -0.0509707 0)
(10.0515 -0.0550123 0)
(10.0574 -0.0590903 0)
(10.0627 -0.0633154 0)
(10.0675 -0.0677724 0)
(10.0718 -0.0725366 0)
(10.0756 -0.0776697 0)
(10.079 -0.0832161 0)
(10.0819 -0.0892007 0)
(10.0844 -0.0956349 0)
(10.0866 -0.102501 0)
(10.0007 -0.00755256 0)
(10.0055 -0.0207621 0)
(10.0133 -0.0302508 0)
(10.0217 -0.0371786 0)
(10.0294 -0.043077 0)
(10.0368 -0.048274 0)
(10.044 -0.0527035 0)
(10.0509 -0.0565559 0)
(10.0571 -0.0601427 0)
(10.0628 -0.0636909 0)
(10.0678 -0.0673416 0)
(10.0722 -0.0712076 0)
(10.0761 -0.0753891 0)
(10.0793 -0.0799661 0)
(10.082 -0.0849943 0)
(10.0842 -0.090506 0)
(10.0859 -0.0965131 0)
(10.0872 -0.103 0)
(10.001 -0.00972467 0)
(10.0078 -0.0255415 0)
(10.0177 -0.0352767 0)
(10.0271 -0.0419823 0)
(10.0353 -0.0480963 0)
(10.0432 -0.0536991 0)
(10.0509 -0.0584784 0)
(10.0582 -0.0625904 0)
(10.0646 -0.066333 0)
(10.0702 -0.0699027 0)
(10.0751 -0.0734321 0)
(10.0792 -0.0770493 0)
(10.0826 -0.0808782 0)
(10.0852 -0.0850239 0)
(10.0872 -0.0895675 0)
(10.0886 -0.0945645 0)
(10.0895 -0.100042 0)
(10.0899 -0.106006 0)
(10.0016 -0.0125486 0)
(10.0114 -0.0311436 0)
(10.0239 -0.0409058 0)
(10.0341 -0.0470256 0)
(10.0422 -0.0523177 0)
(10.0502 -0.0567903 0)
(10.058 -0.0604099 0)
(10.0652 -0.0635562 0)
(10.0714 -0.0665362 0)
(10.0768 -0.0694884 0)
(10.0813 -0.072509 0)
(10.0849 -0.0757055 0)
(10.0877 -0.0791825 0)
(10.0896 -0.0830292 0)
(10.0908 -0.0873221 0)
(10.0914 -0.0921099 0)
(10.0914 -0.0974314 0)
(10.091 -0.103208 0)
(10.0024 -0.016236 0)
(10.0159 -0.035932 0)
(10.0312 -0.0462238 0)
(10.0421 -0.0548636 0)
(10.0505 -0.0625237 0)
(10.0588 -0.068111 0)
(10.0672 -0.0719336 0)
(10.0751 -0.0747777 0)
(10.0823 -0.0771032 0)
(10.089 -0.0791359 0)
(10.0953 -0.0810678 0)
(10.1011 -0.0830884 0)
(10.1065 -0.085361 0)
(10.1114 -0.08802 0)
(10.116 -0.0911836 0)
(10.1204 -0.0949512 0)
(10.1247 -0.0993959 0)
(10.1288 -0.104438 0)
(10.0042 -0.0232721 0)
(10.0264 -0.0374029 0)
(10.0504 -0.0392047 0)
(10.0722 -0.0444101 0)
(10.0957 -0.0517164 0)
(10.1222 -0.0580993 0)
(10.1504 -0.0633182 0)
(10.1786 -0.0679024 0)
(10.2063 -0.0720776 0)
(10.2331 -0.0759213 0)
(10.2587 -0.0795552 0)
(10.2829 -0.0831401 0)
(10.3055 -0.0868352 0)
(10.3263 -0.0907976 0)
(10.3455 -0.0951805 0)
(10.3631 -0.100186 0)
(10.3795 -0.10595 0)
(10.3946 -0.112828 0)
(10.0583 -0.0459433 0)
(10.1914 -0.0775841 0)
(10.2982 -0.0830688 0)
(10.3783 -0.0874641 0)
(10.4398 -0.0924428 0)
(10.4851 -0.0960755 0)
(10.5143 -0.0984296 0)
(10.5283 -0.100092 0)
(10.5295 -0.10136 0)
(10.52 -0.102385 0)
(10.5016 -0.103321 0)
(10.4755 -0.104323 0)
(10.443 -0.105529 0)
(10.4051 -0.107067 0)
(10.3623 -0.109059 0)
(10.3153 -0.111692 0)
(10.2642 -0.115126 0)
(10.2099 -0.119945 0)
(9.86427 -0.0329869 0)
(9.59451 -0.0643888 0)
(9.30952 -0.0754665 0)
(9.01052 -0.0808985 0)
(8.71463 -0.083455 0)
(8.43007 -0.0833526 0)
(8.15879 -0.0813464 0)
(7.90159 -0.0782495 0)
(7.65907 -0.0745989 0)
(7.43111 -0.070747 0)
(7.21684 -0.0669531 0)
(7.01502 -0.0634056 0)
(6.82426 -0.0602316 0)
(6.64311 -0.0575193 0)
(6.47009 -0.0553319 0)
(6.30374 -0.0537538 0)
(6.14218 -0.0529217 0)
(5.98437 -0.0532402 0)
(0.0673632 -0.11372 -1.68505e-20)
(0.253697 -0.180848 1.58624e-20)
(0.518868 -0.245855 0)
(0.817708 -0.30347 0)
(1.11163 -0.316673 0)
(1.37021 -0.279112 -1.55545e-20)
(1.5683 -0.206885 0)
(1.69324 -0.121548 0)
(1.74829 -0.0397393 0)
(1.74403 0.024426 0)
(1.67872 0.0499481 1.75047e-20)
(1.57326 0.0233282 0)
(1.45189 -0.0483866 0)
(1.31113 -0.131089 0)
(1.1185 -0.166122 0)
(0.836905 -0.0944031 1.9836e-20)
(0.426209 0.0992864 0)
(-0.131825 0.343193 0)
(-0.808321 0.54965 0)
(-1.56776 0.709405 0)
(-2.37764 0.82005 0)
(-3.20848 0.882824 0)
(-4.03385 0.90189 0)
(-4.83113 0.883262 1.83228e-20)
(-5.58182 0.833803 -1.94227e-20)
(-6.27152 0.760532 2.05566e-20)
(-6.88941 0.670132 2.16326e-20)
(-7.42776 0.568688 0)
(-7.88135 0.461684 0)
(-8.247 0.353974 -2.39001e-20)
(-8.5238 0.249825 -2.42051e-20)
(-8.71258 0.153639 0)
(-8.81359 0.0699367 0)
(-8.82947 0.00100612 -2.33866e-20)
(-8.77765 -0.0551533 0)
(-8.66623 -0.102851 0)
(-8.50061 -0.144597 1.94101e-20)
(-8.28556 -0.18171 0)
(-8.02571 -0.214693 1.51767e-20)
(-7.72541 -0.243771 2.52399e-20)
(-7.38901 -0.269068 0)
(-7.02088 -0.290691 0)
(-6.62535 -0.308772 0)
(-6.20669 -0.323472 0)
(-5.76908 -0.334975 0)
(-5.31651 -0.343486 -1.60099e-20)
(-4.85281 -0.349247 -2.44569e-20)
(-4.38158 -0.352558 -3.33306e-20)
(-3.90614 -0.353771 0)
(-3.42938 -0.353264 5.24123e-20)
(-2.95373 -0.351443 0)
(-2.48115 -0.348722 -7.35216e-20)
(-2.01316 -0.345478 -8.50176e-20)
(-1.5508 -0.341976 0)
(-1.0943 -0.338354 0)
(-0.64252 -0.334784 0)
(-0.19367 -0.331806 -1.34332e-19)
(0.257006 -0.329026 0)
(0.711546 -0.327568 0)
(1.17084 -0.327591 0)
(1.63709 -0.328734 0)
(2.11222 -0.329889 0)
(2.59676 -0.328213 0)
(3.08802 -0.317137 0)
(3.57702 -0.282527 0)
(4.04232 -0.200212 7.75653e-20)
(4.44149 -0.047792 0)
(4.70184 0.157717 0)
(4.74517 0.337058 -7.03464e-20)
(4.60238 0.422528 -6.92753e-20)
(4.32083 0.403326 0)
(3.96154 0.311537 6.90337e-20)
(3.58906 0.189837 -6.94351e-20)
(3.25314 0.0755541 0)
(2.98004 -0.00615135 7.05584e-20)
(2.77178 -0.0464851 0)
(2.61483 -0.0523677 0)
(2.49471 -0.0402704 -7.04144e-20)
(2.40996 -0.0279186 0)
(2.371 -0.0271917 6.88939e-20)
(2.39946 -0.0392192 0)
(2.50516 -0.0519003 -6.62446e-20)
(2.66656 -0.0499618 -6.51599e-20)
(2.84041 -0.0294821 -6.42246e-20)
(2.98616 -0.00123568 -1.26685e-19)
(3.09021 0.0175379 1.2493e-19)
(3.16613 0.0106942 0)
(3.21593 -0.0379197 0)
(3.19432 -0.113384 0)
(2.99338 -0.114877 1.19468e-19)
(2.45591 0.0756102 1.19137e-19)
(1.47325 0.414566 -1.19292e-19)
(0.102908 0.706115 0)
(-1.42616 0.833009 5.48465e-20)
(-2.93607 0.844076 1.98351e-20)
(-4.34888 0.786301 -9.31946e-21)
(-5.6117 0.692199 0)
(-6.70094 0.582959 0)
(-7.61082 0.471081 0)
(-8.34461 0.363354 -8.18684e-20)
(-8.90933 0.263306 0)
(-9.31328 0.1732 0)
(-9.56383 0.0952453 1.01478e-19)
(-9.67204 0.0306355 0)
(-9.65276 -0.0217015 0)
(-9.53603 -0.0657802 9.46716e-20)
(-9.32505 -0.106056 0)
(-9.02535 -0.143606 0)
(-8.64133 -0.178623 -6.3428e-20)
(-8.17741 -0.211035 -4.80451e-20)
(-7.63843 -0.240645 0)
(-7.02997 -0.26716 1.02479e-20)
(-6.35856 -0.290185 0)
(-5.632 -0.309248 3.64056e-20)
(-4.85953 -0.323832 0)
(-4.05207 -0.333495 9.10907e-20)
(-3.22217 -0.337994 1.21106e-19)
(-2.3833 -0.337259 0)
(-1.54889 -0.331429 0)
(-0.729551 -0.320905 0)
(0.0676642 -0.305469 0)
(0.831858 -0.285195 0)
(1.55431 -0.263128 0)
(2.22602 -0.23968 0)
(2.84252 -0.215251 1.85819e-19)
(3.40098 -0.190211 -1.74428e-19)
(3.89902 -0.164688 0)
(4.33478 -0.138674 0)
(4.70745 -0.112075 0)
(5.01556 -0.0865304 0)
(5.25985 -0.063903 -2.617e-19)
(5.44531 -0.0310315 0)
(5.53292 0.0317109 2.42336e-19)
(5.46862 0.112995 -2.3516e-19)
(5.26181 0.187093 0)
(4.93499 0.235393 0)
(4.52117 0.248239 0)
(4.06442 0.225328 2.29327e-19)
(3.61173 0.175735 2.30359e-19)
(3.20246 0.114598 0)
(2.86115 0.0568909 2.32494e-19)
(2.59594 0.0121321 2.3333e-19)
(2.40227 -0.0167321 -2.33896e-19)
(2.26757 -0.0313292 0)
(2.17563 -0.0356969 0)
(2.11132 -0.0345546 -2.33833e-19)
(2.06346 -0.0319394 0)
(2.02578 -0.0304055 0)
(1.99608 -0.0307707 0)
(1.97419 -0.0324281 0)
(1.96018 -0.0340711 2.30366e-19)
(1.95363 -0.0346145 2.29399e-19)
(1.95415 -0.0340195 0)
(1.96371 -0.0332535 2.26814e-19)
(1.98753 -0.0335153 0)
(2.03809 -0.0362745 0)
(2.13714 -0.03971 2.20147e-19)
(2.29207 -0.0341106 0)
(2.45433 -0.0144158 2.15956e-19)
(2.5171 0.00366216 0)
(2.35943 0.0410842 0)
(1.7855 0.165937 2.05673e-19)
(0.644434 0.33355 0)
(-0.791518 0.397107 1.43436e-19)
(-2.10786 0.346674 0)
(-3.14678 0.252233 0)
(-3.86501 0.15334 0)
(-4.26829 0.0648218 -1.83366e-20)
(-4.37844 -0.00793625 0)
(-4.24874 -0.0668366 2.349e-20)
(-3.91401 -0.118562 0)
(-3.38775 -0.164999 0)
(-2.69543 -0.203117 0)
(-1.87703 -0.228654 0)
(-0.985615 -0.238272 0)
(-0.0746196 -0.227973 0)
(0.802174 -0.201679 0)
(1.5836 -0.167503 -4.18381e-19)
(2.24885 -0.121577 0)
(2.69354 -0.0695016 0)
(0.122449 -0.551417 4.68044e-20)
(0.422638 -0.874567 -4.27359e-20)
(0.7476 -1.00241 0)
(1.02867 -1.02449 2.86718e-20)
(1.23957 -0.932534 0)
(1.37933 -0.759486 1.49964e-20)
(1.44695 -0.54388 -3.53859e-20)
(1.44799 -0.328958 -3.80084e-20)
(1.37329 -0.137532 0)
(1.20595 0.0487073 -4.10146e-20)
(0.970228 0.227566 -1.99424e-20)
(0.610131 0.385935 0)
(0.080809 0.58259 0)
(-0.607544 0.865607 0)
(-1.41198 1.19213 0)
(-2.28341 1.51919 -1.25117e-20)
(-3.17461 1.80963 0)
(-4.04996 2.03289 2.39747e-20)
(-4.88271 2.17187 0)
(-5.65549 2.22792 0)
(-6.35454 2.20877 -2.56507e-20)
(-6.97081 2.12635 0)
(-7.50034 1.99451 3.02334e-20)
(-7.94374 1.82712 -1.31098e-20)
(-8.30525 1.63661 1.47094e-20)
(-8.5916 1.43325 -1.63844e-20)
(-8.81088 1.22482 -1.80427e-20)
(-8.97156 1.01679 0)
(-9.0818 0.812687 0)
(-9.14903 0.614755 2.20878e-20)
(-9.17901 0.424529 -2.80908e-20)
(-9.17628 0.243804 0)
(-9.14549 0.0752525 0)
(-9.08718 -0.0789604 2.28307e-20)
(-8.9872 -0.21909 0)
(-8.84071 -0.346717 0)
(-8.64737 -0.462743 -1.88642e-20)
(-8.40878 -0.567534 0)
(-8.12771 -0.661084 1.73786e-20)
(-7.80785 -0.743337 -2.43583e-20)
(-7.45331 -0.814314 0)
(-7.06845 -0.874181 0)
(-6.65765 -0.92325 -1.71416e-20)
(-6.22528 -0.961968 -3.24573e-21)
(-5.77559 -0.99088 1.14163e-20)
(-5.3127 -1.01061 -1.15723e-20)
(-4.84054 -1.02187 2.32208e-20)
(-4.3628 -1.02549 9.12636e-20)
(-3.88292 -1.02244 -7.71704e-20)
(-3.40395 -1.01385 -4.93472e-20)
(-2.9285 -1.001 0)
(-2.45863 -0.985285 6.87018e-20)
(-1.99584 -0.968151 -7.54015e-20)
(-1.54106 -0.950952 0)
(-1.09461 -0.934895 0)
(-0.656023 -0.921123 0)
(-0.223582 -0.910732 1.22881e-19)
(0.205539 -0.903873 0)
(0.63306 -0.901397 -2.25337e-19)
(1.06092 -0.903479 0)
(1.49165 -0.909719 -2.00833e-19)
(1.92736 -0.918491 0)
(2.36913 -0.926469 1.78557e-19)
(2.81706 -0.92769 0)
(3.27136 -0.911886 -1.58476e-19)
(3.73625 -0.861507 7.34855e-20)
(4.2246 -0.750679 0)
(4.75978 -0.553831 1.31939e-19)
(5.35237 -0.269337 6.23588e-20)
(5.9 0.0567502 5.85695e-20)
(6.28595 0.353169 0)
(6.44441 0.564207 4.98066e-20)
(6.35787 0.666736 5.11082e-20)
(6.05409 0.669045 0)
(5.59504 0.602018 -5.25405e-20)
(5.05574 0.504769 1.08115e-19)
(4.50584 0.405331 0)
(4.00091 0.306324 5.85422e-20)
(3.5861 0.191165 0)
(3.30304 0.0479277 -1.84522e-19)
(3.17479 -0.108375 0)
(3.19493 -0.241982 1.79611e-19)
(3.33506 -0.313582 5.88935e-20)
(3.5442 -0.309465 -5.796e-20)
(3.76341 -0.255654 -1.14159e-19)
(3.93796 -0.194402 1.13194e-19)
(3.99967 -0.137298 0)
(3.7913 0.00508334 0)
(3.04104 0.397944 0)
(1.58917 1.06872 -3.76753e-19)
(-0.328179 1.74392 -1.08698e-19)
(-2.25544 2.14618 7.85073e-20)
(-3.98464 2.27686 0)
(-5.43018 2.19925 9.88999e-21)
(-6.58607 1.99502 -1.37763e-20)
(-7.48094 1.73323 7.02021e-21)
(-8.15642 1.45831 0)
(-8.65706 1.19433 0)
(-9.02234 0.951121 0)
(-9.28358 0.730352 7.60747e-20)
(-9.4635 0.529941 0)
(-9.57736 0.347196 -2.02527e-19)
(-9.63514 0.180839 -3.12169e-19)
(-9.63778 0.0305743 2.13182e-19)
(-9.57757 -0.104967 0)
(-9.42894 -0.228713 1.01202e-19)
(-9.19412 -0.34417 0)
(-8.87457 -0.452327 1.56716e-19)
(-8.47347 -0.553238 -6.86229e-20)
(-7.99473 -0.646558 -5.3234e-20)
(-7.44289 -0.731696 0)
(-6.82322 -0.807802 -3.58871e-20)
(-6.14201 -0.873746 -1.6861e-20)
(-5.40681 -0.928149 -3.47008e-20)
(-4.62671 -0.969531 0)
(-3.81244 -0.996594 -8.60222e-20)
(-2.97634 -1.00856 -3.36289e-19)
(-2.13201 -1.00547 0)
(-1.29291 -0.988162 -3.41901e-19)
(-0.468912 -0.95752 -3.97023e-19)
(0.330616 -0.913167 -4.13051e-19)
(1.09544 -0.857212 0)
(1.81702 -0.795298 0)
(2.48823 -0.729033 0)
(3.10523 -0.659897 1.70402e-19)
(3.66553 -0.589193 1.63306e-19)
(4.16774 -0.517859 0)
(4.61133 -0.446714 2.91262e-19)
(4.99663 -0.376281 2.76273e-19)
(5.32534 -0.306952 0)
(5.59676 -0.238664 2.51769e-19)
(5.80655 -0.164632 4.80574e-19)
(5.99365 -0.0748493 -2.31883e-19)
(6.20223 0.0272674 -2.18532e-19)
(6.40209 0.135942 0)
(6.55408 0.238631 0)
(6.62499 0.32229 0)
(6.59936 0.375124 -1.87131e-19)
(6.48141 0.391016 1.81608e-19)
(6.28975 0.372678 3.60216e-19)
(6.0492 0.329836 -1.79457e-19)
(5.78357 0.274855 1.80097e-19)
(5.51148 0.218852 1.8115e-19)
(5.24513 0.169646 0)
(4.9914 0.131117 0)
(4.75342 0.103561 -1.87663e-19)
(4.5315 0.0848876 0)
(4.32382 0.0720945 0)
(4.1274 0.0624844 3.87376e-19)
(3.93913 0.0542435 0)
(3.75692 0.0462862 1.9769e-19)
(3.58127 0.0375793 -1.99653e-19)
(3.41667 0.0264769 0)
(3.26927 0.0107718 2.03201e-19)
(3.14584 -0.0128168 0)
(3.06012 -0.0502791 0)
(3.03796 -0.103376 -2.03378e-19)
(3.10331 -0.142519 4.037e-19)
(3.22622 -0.103715 -2.02713e-19)
(3.22037 0.0617626 0)
(2.64916 0.390685 0)
(1.18599 0.844505 1.88529e-19)
(-0.672039 1.11291 0)
(-2.13131 1.05644 1.04452e-19)
(-3.104 0.837751 0)
(-3.70175 0.588061 0)
(-4.04181 0.358482 0)
(-4.202 0.157164 1.78979e-20)
(-4.21868 -0.018233 0)
(-4.06529 -0.174375 -2.27522e-20)
(-3.71822 -0.316991 0)
(-3.18691 -0.445377 0)
(-2.49299 -0.55147 1.78724e-19)
(-1.6745 -0.624663 -2.46343e-19)
(-0.782524 -0.656798 0)
(0.129052 -0.641007 0)
(1.00467 -0.583553 0)
(1.79429 -0.500447 1.148e-18)
(2.47311 -0.392375 0)
(3.00262 -0.258155 -7.54852e-19)
(0.159548 -1.25167 -2.54976e-21)
(0.427744 -1.64286 5.17397e-20)
(0.61 -1.58663 0)
(0.690893 -1.37819 -5.90512e-20)
(0.675472 -1.0727 0)
(0.585781 -0.729009 0)
(0.417448 -0.34642 7.76625e-22)
(0.147655 0.0730358 4.91047e-20)
(-0.227709 0.49242 4.48473e-20)
(-0.716666 0.915493 3.86391e-20)
(-1.30565 1.34418 0)
(-1.99123 1.7722 0)
(-2.74608 2.18988 -2.60732e-20)
(-3.53049 2.57501 -4.80685e-20)
(-4.30302 2.89892 4.60462e-20)
(-5.02764 3.14233 0)
(-5.67713 3.2948 4.70746e-20)
(-6.2373 3.35269 -1.82594e-20)
(-6.70687 3.31826 0)
(-7.0941 3.20214 5.75837e-20)
(-7.41281 3.02042 2.27422e-20)
(-7.6796 2.79139 -6.87061e-20)
(-7.91098 2.53274 -2.85995e-20)
(-8.12087 2.25945 0)
(-8.31896 1.98267 8.78813e-20)
(-8.5099 1.70959 9.40374e-20)
(-8.69349 1.44394 0)
(-8.86546 1.18696 1.0471e-19)
(-9.01873 0.938271 0)
(-9.14468 0.696807 1.12069e-19)
(-9.23443 0.461416 5.06582e-20)
(-9.2797 0.231012 0)
(-9.27422 0.00479257 0)
(-9.21509 -0.216794 0)
(-9.1026 -0.430923 0)
(-8.93846 -0.633617 0)
(-8.7251 -0.821931 0)
(-8.46547 -0.993772 8.10768e-20)
(-8.16311 -1.14778 -1.02497e-19)
(-7.82207 -1.28316 0)
(-7.44674 -1.3996 0)
(-7.0417 -1.49726 0)
(-6.61152 -1.57663 -6.95681e-21)
(-6.16071 -1.63847 3.13656e-21)
(-5.69363 -1.6837 -1.58e-20)
(-5.21453 -1.71333 4.57783e-20)
(-4.72751 -1.7285 3.56729e-20)
(-4.23653 -1.73046 -5.75106e-20)
(-3.74534 -1.72068 5.32441e-21)
(-3.25738 -1.70089 -8.64901e-20)
(-2.77563 -1.67309 0)
(-2.30251 -1.63953 -1.23287e-19)
(-1.83979 -1.60263 5.45688e-21)
(-1.38861 -1.56488 0)
(-0.949515 -1.52881 0)
(-0.522171 -1.49701 2.05147e-19)
(-0.104883 -1.47126 0)
(0.30402 -1.45324 0)
(0.70584 -1.44289 -1.97096e-19)
(1.10314 -1.44052 -3.87727e-19)
(1.49944 -1.44545 1.90207e-19)
(1.89842 -1.45512 0)
(2.30359 -1.46456 -1.71407e-19)
(2.71763 -1.46587 0)
(3.14173 -1.44879 -1.45005e-19)
(3.57556 -1.40241 -1.4523e-19)
(4.01794 -1.31751 2.67415e-19)
(4.47067 -1.18311 1.23026e-19)
(4.94401 -0.97713 0)
(5.45321 -0.671543 -2.2573e-19)
(5.99279 -0.259311 0)
(6.4701 0.201428 -2.93434e-19)
(6.76627 0.617899 -1.80428e-19)
(6.81309 0.921878 -1.74941e-19)
(6.60792 1.08825 1.75522e-19)
(6.20365 1.12877 -2.73298e-19)
(5.68452 1.06972 0)
(5.14048 0.928477 0)
(4.64725 0.706356 2.06927e-19)
(4.25672 0.405498 3.2758e-19)
(4.00257 0.0595982 0)
(3.90362 -0.25507 -1.10293e-19)
(3.9418 -0.461453 0)
(4.05731 -0.519825 3.27908e-19)
(4.15127 -0.439741 -2.40871e-22)
(4.08199 -0.229045 -1.3882e-22)
(3.58386 0.230375 -2.30875e-19)
(2.37527 1.08332 0)
(0.501727 2.19376 2.16474e-19)
(-1.51096 3.08381 1.94245e-20)
(-3.25425 3.56004 0)
(-4.60808 3.65405 0)
(-5.60218 3.47279 0)
(-6.31934 3.12226 -4.03424e-20)
(-6.85924 2.69813 0)
(-7.30329 2.26893 0)
(-7.70099 1.87135 0)
(-8.07202 1.51767 0)
(-8.41551 1.20601 0)
(-8.7199 0.928485 1.86657e-19)
(-8.97021 0.676222 0)
(-9.15207 0.44146 2.05935e-19)
(-9.25454 0.218521 2.15654e-19)
(-9.27137 0.00417169 -2.16432e-19)
(-9.20084 -0.202846 0)
(-9.04421 -0.401334 -1.95955e-19)
(-8.80329 -0.589561 0)
(-8.48015 -0.766892 -1.56073e-19)
(-8.0777 -0.932709 1.29401e-19)
(-7.59951 -1.08622 3.16375e-19)
(-7.04973 -1.22639 0)
(-6.43316 -1.35179 9.6018e-20)
(-5.75561 -1.46049 2.87413e-21)
(-5.0242 -1.55009 0)
(-4.24778 -1.61796 -2.00385e-19)
(-3.4372 -1.66171 -3.02073e-19)
(-2.6053 -1.6799 6.21098e-19)
(-1.7663 -1.67265 0)
(-0.933777 -1.64171 3.24771e-19)
(-0.117963 -1.58782 3.63792e-19)
(0.669136 -1.51137 1.09262e-18)
(1.41879 -1.41879 0)
(2.12274 -1.31578 0)
(2.77532 -1.20554 0)
(3.37318 -1.09086 3.13884e-19)
(3.91429 -0.974039 0)
(4.39768 -0.856789 0)
(4.82328 -0.740484 -2.78611e-19)
(5.19173 -0.626317 -2.6596e-19)
(5.50428 -0.514553 0)
(5.76329 -0.404105 0)
(5.97091 -0.296952 -4.69687e-19)
(6.12766 -0.197641 0)
(6.24286 -0.102094 4.40809e-19)
(6.34165 -7.55954e-05 4.20152e-19)
(6.44568 0.107576 0)
(6.56068 0.212776 0)
(6.67225 0.30263 -3.66647e-19)
(6.7561 0.364715 -1.8617e-21)
(6.79128 0.393341 -1.05563e-21)
(6.76782 0.391492 0)
(6.68739 0.368301 -6.69875e-19)
(6.55937 0.334686 0)
(6.39612 0.29974 0)
(6.20951 0.268905 0)
(6.00904 0.243959 3.39839e-19)
(5.80113 0.224286 0)
(5.58934 0.208432 -6.92649e-19)
(5.37516 0.195156 -3.50377e-19)
(5.1588 0.183661 0)
(4.94012 0.173029 -3.58635e-19)
(4.71958 0.16126 0)
(4.49915 0.145307 0)
(4.28143 0.122584 -1.12074e-18)
(4.06762 0.0896827 7.59757e-19)
(3.86231 0.0349167 0)
(3.68976 -0.0537004 7.8154e-19)
(3.57675 -0.131862 -3.91742e-19)
(3.47041 -0.0529131 0)
(3.1086 0.344684 0)
(2.03423 1.0472 0)
(0.272236 1.71234 -9.89513e-19)
(-1.19765 1.84751 0)
(-2.10935 1.5716 -2.07615e-19)
(-2.72767 1.17476 0)
(-3.20103 0.802747 0)
(-3.55492 0.483349 0)
(-3.76364 0.20364 0)
(-3.80268 -0.0524419 0)
(-3.65907 -0.295407 0)
(-3.33128 -0.524514 -1.18761e-19)
(-2.82494 -0.731846 0)
(-2.15871 -0.902965 -1.69775e-19)
(-1.36879 -1.02033 6.80204e-19)
(-0.505472 -1.0702 0)
(0.37429 -1.04509 0)
(1.21512 -0.955485 -6.89206e-19)
(1.97172 -0.82324 -7.10556e-19)
(2.62123 -0.659373 7.098e-19)
(3.14501 -0.464714 7.18138e-19)
(0.0889811 -1.75623 -6.14067e-20)
(0.129886 -1.82797 -6.38333e-20)
(0.0420126 -1.4936 -4.34122e-20)
(-0.130773 -1.06371 -1.69736e-20)
(-0.393365 -0.576211 0)
(-0.755609 -0.0282685 5.66424e-20)
(-1.18591 0.540037 -2.16927e-20)
(-1.68462 1.11568 0)
(-2.24696 1.6879 -2.75564e-20)
(-2.85442 2.24146 0)
(-3.48585 2.75821 4.4063e-20)
(-4.1145 3.21521 0)
(-4.71089 3.5897 1.95302e-20)
(-5.25056 3.86555 3.80444e-20)
(-5.71816 4.03602 -3.83777e-20)
(-6.10948 4.10433 0)
(-6.43024 4.08117 -4.27734e-20)
(-6.69418 3.98144 0)
(-6.92025 3.82222 0)
(-7.12864 3.6214 -5.62945e-20)
(-7.33702 3.39479 0)
(-7.55743 3.15392 -1.6496e-20)
(-7.79486 2.90517 0)
(-8.04733 2.65035 0)
(-8.30737 2.38819 1.75251e-20)
(-8.56417 2.11621 -9.20616e-20)
(-8.80568 1.83224 -1.1537e-19)
(-9.02034 1.53542 -1.02161e-19)
(-9.19826 1.22666 0)
(-9.33169 0.908498 -2.37717e-19)
(-9.41503 0.584801 0)
(-9.44483 0.26027 -1.31571e-19)
(-9.4195 -0.060293 0)
(-9.3393 -0.372389 0)
(-9.20519 -0.671622 1.17878e-19)
(-9.01894 -0.954087 0)
(-8.78329 -1.21627 -1.01789e-19)
(-8.50176 -1.4553 1.32294e-20)
(-8.17837 -1.6691 1.51099e-19)
(-7.81748 -1.8564 -1.40927e-19)
(-7.42361 -2.01674 0)
(-7.00124 -2.15036 0)
(-6.55474 -2.25806 -4.21067e-20)
(-6.08834 -2.34099 0)
(-5.60612 -2.4005 4.61179e-21)
(-5.11218 -2.43799 -1.9209e-20)
(-4.61064 -2.45492 -3.4391e-20)
(-4.10572 -2.45288 0)
(-3.60165 -2.43379 6.64712e-20)
(-3.10243 -2.40001 8.3358e-20)
(-2.61162 -2.35431 -1.87566e-19)
(-2.13208 -2.29987 1.1883e-19)
(-1.66593 -2.24004 1.37434e-19)
(-1.21454 -2.1783 0)
(-0.778641 -2.11812 0)
(-0.357631 -2.06288 -1.96704e-19)
(0.0497261 -2.01538 0)
(0.44386 -1.97804 0)
(0.825946 -1.95219 3.7892e-19)
(1.19817 -1.93925 3.64429e-19)
(1.56407 -1.93945 0)
(1.9282 -1.95098 0)
(2.29622 -1.9689 0)
(2.67455 -1.98409 0)
(3.06945 -1.98286 2.88269e-19)
(3.48506 -1.94815 -2.63067e-19)
(3.92065 -1.86322 -2.58807e-19)
(4.36873 -1.71642 -4.81132e-19)
(4.81726 -1.50242 0)
(5.25767 -1.2148 9.44583e-21)
(5.69378 -0.831082 0)
(6.13221 -0.325011 2.00393e-19)
(6.53097 0.268944 9.49671e-21)
(6.79068 0.841862 1.71512e-19)
(6.83888 1.28704 -1.66363e-19)
(6.66722 1.54627 7.61595e-21)
(6.32411 1.60938 0)
(5.88754 1.49108 -1.7281e-19)
(5.43587 1.21268 -1.85457e-19)
(5.03015 0.802645 -3.94422e-19)
(4.71217 0.313357 0)
(4.5069 -0.156696 2.12484e-19)
(4.40475 -0.473636 0)
(4.32062 -0.526629 -4.41302e-19)
(4.08341 -0.252276 2.28252e-19)
(3.3931 0.456474 -2.32963e-19)