/*--------------------------------*- C++ -*----------------------------------*\
| =========                 |                                                 |
| \\      /  F ield         | OpenFOAM: The Open Source CFD Toolbox           |
|  \\    /   O peration     | Version:  2112                                  |
|   \\  /    A nd           | Website:  www.openfoam.com                      |
|    \\/     M anipulation  |                                                 |
\*---------------------------------------------------------------------------*/
FoamFile
{
    version     2.0;
    format      ascii;
    arch        "LSB;label=32;scalar=64";
    class       volScalarField;
    location    "0.6";
    object      ddt0(kU);
}
// * * * * * * * * * * * * * * * * * * * * * * * * * * * * * * * * * * * * * //

dimensions      [0 2 -3 0 0 0 0];

internalField   nonuniform List<scalar> 
12225
(
2.0793e-81
3.0169e-80
1.5105e-79
4.99272e-79
1.31617e-78
3.00994e-78
6.23677e-78
1.20117e-77
2.184e-77
3.78827e-77
6.32226e-77
1.02035e-76
1.60509e-76
2.46252e-76
3.75769e-76
5.61195e-76
8.27381e-76
1.18123e-75
-6.64394e-81
-3.43079e-80
-9.46498e-80
-2.00421e-79
-3.67103e-79
-6.21599e-79
-1.01032e-78
-1.61689e-78
-2.589e-78
-4.1921e-78
-6.87858e-78
-1.13917e-77
-1.90651e-77
-3.18339e-77
-5.36867e-77
-1.0411e-76
-1.95637e-76
-7.4017e-76
-4.0521e-82
-3.1621e-81
-1.41538e-80
-3.98253e-80
-8.7421e-80
-1.69043e-79
-3.03979e-79
-5.23342e-79
-8.74011e-79
-1.43161e-78
-2.31854e-78
-3.73107e-78
-6.00057e-78
-9.73253e-78
-1.60231e-77
-2.81456e-77
-4.94329e-77
-1.03598e-76
1.82086e-83
2.87549e-82
4.62617e-82
-4.67716e-82
-4.68881e-81
-1.54137e-80
-3.62006e-80
-6.93177e-80
-1.22029e-79
-2.03811e-79
-3.36223e-79
-5.46424e-79
-8.92299e-79
-1.48612e-78
-2.52842e-78
-4.54084e-78
-8.07815e-78
-1.54216e-77
-4.78465e-83
2.01609e-81
3.76564e-81
6.47738e-81
1.038e-80
1.47441e-80
1.91205e-80
2.35606e-80
2.78934e-80
3.29665e-80
5.94669e-80
8.77943e-80
1.20646e-79
1.46332e-79
1.7314e-79
1.42445e-79
-6.72913e-81
-5.61642e-79
-3.27159e-82
1.87276e-81
5.64896e-81
1.10962e-80
1.56816e-80
2.24154e-80
3.14593e-80
4.32768e-80
5.85861e-80
7.86565e-80
1.08163e-79
1.48288e-79
2.03978e-79
3.30612e-79
4.62203e-79
5.58837e-79
5.5231e-79
4.01556e-79
-5.94983e-82
1.14662e-81
4.95559e-81
1.05623e-80
1.53969e-80
2.26768e-80
3.24975e-80
4.54314e-80
6.21889e-80
8.36405e-80
1.11297e-79
1.45848e-79
1.88664e-79
2.45824e-79
3.0436e-79
3.40496e-79
3.2585e-79
2.2191e-79
-7.96013e-82
2.73896e-82
3.57105e-81
8.91264e-81
1.57416e-80
2.1808e-80
3.06377e-80
4.25575e-80
5.78647e-80
7.70761e-80
1.00648e-79
1.28641e-79
1.60077e-79
1.93883e-79
2.22777e-79
2.32194e-79
2.0418e-79
1.20525e-79
-9.09562e-82
-4.26419e-82
1.97183e-81
6.54311e-81
1.30876e-80
2.14684e-80
2.85205e-80
3.83288e-80
5.11865e-80
6.7117e-80
8.61493e-80
1.07553e-79
1.29266e-79
1.47766e-79
1.58104e-79
1.51836e-79
1.1863e-79
4.95145e-80
-9.53183e-82
-9.1526e-82
6.12943e-82
4.06825e-81
9.9073e-81
1.78796e-80
2.75549e-80
3.93143e-80
4.83799e-80
5.99721e-80
7.36169e-80
8.84183e-80
1.01855e-79
1.10429e-79
1.09689e-79
9.38339e-80
5.67173e-80
-4.72461e-81
-9.42966e-82
-1.21898e-81
-4.23676e-82
1.85148e-81
6.20209e-81
1.2987e-80
2.17761e-80
3.22591e-80
4.38422e-80
5.65243e-80
6.94307e-80
7.69448e-80
8.25515e-80
8.27472e-80
7.35451e-80
5.14406e-80
1.29831e-80
-4.20884e-80
-8.95776e-82
-1.35944e-81
-1.09871e-81
2.08613e-82
3.08127e-81
7.96135e-81
1.49273e-80
2.36485e-80
3.31242e-80
4.28237e-80
5.1466e-80
5.69841e-80
5.72297e-80
5.30561e-80
4.0434e-80
1.65149e-80
-2.01192e-80
-6.87366e-80
-8.21661e-82
-1.3899e-81
-1.52945e-81
-1.01823e-81
5.37987e-82
3.49155e-81
7.90143e-81
1.3594e-80
2.0023e-80
2.62555e-80
3.09145e-80
3.17212e-80
2.64109e-80
1.32021e-80
-1.03102e-80
-2.99565e-80
-5.98955e-80
-9.87274e-80
-7.11594e-82
-1.31875e-81
-1.76967e-81
-1.95127e-81
-1.60585e-81
-5.23314e-82
1.25678e-81
3.48554e-81
5.6275e-81
6.82796e-81
5.94979e-81
1.31863e-81
-9.16074e-81
-2.73751e-80
-5.47916e-80
-9.18954e-80
-1.3923e-79
-1.94646e-79
-5.6569e-82
-1.14119e-81
-1.78825e-81
-2.50199e-81
-3.15395e-81
-3.67147e-81
-4.19642e-81
-5.07017e-81
-6.82779e-81
-1.02038e-80
-1.61295e-80
-2.58178e-80
-4.07143e-80
-6.22633e-80
-9.15309e-80
-1.28019e-79
-1.71253e-79
-2.18986e-79
-3.90704e-82
-8.70272e-82
-1.58759e-81
-2.63031e-81
-3.98034e-81
-5.67229e-81
-7.9135e-81
-1.10659e-80
-1.56026e-80
-2.20904e-80
-3.11761e-80
-4.35763e-80
-6.00247e-80
-8.12103e-80
-1.07554e-79
-1.39027e-79
-1.7477e-79
-2.13266e-79
-2.03234e-82
-5.44955e-82
-1.2224e-81
-2.38254e-81
-4.08912e-81
-6.44503e-81
-9.66976e-81
-1.40712e-80
-2.00051e-80
-2.78187e-80
-3.78571e-80
-5.04296e-80
-6.57722e-80
-8.39446e-80
-1.04943e-79
-1.28466e-79
-1.53981e-79
-1.80609e-79
-3.05567e-83
-2.28801e-82
-7.9505e-82
-1.88748e-81
-3.61527e-81
-6.11177e-81
-9.56158e-81
-1.41661e-80
-2.00984e-80
-2.75105e-80
-3.65022e-80
-4.71165e-80
-5.93296e-80
-7.30416e-80
-8.80794e-80
-1.04194e-79
-1.2108e-79
-1.38326e-79
9.09691e-83
-6.45922e-84
-4.54567e-82
-1.37257e-81
-2.87736e-81
-5.10345e-81
-8.17255e-81
-1.21621e-80
-1.70999e-80
-2.29706e-80
-2.97213e-80
-3.72643e-80
-4.54837e-80
-5.42434e-80
-6.33991e-80
-7.28049e-80
-8.23196e-80
-9.17968e-80
1.33971e-82
6.43499e-83
-3.13542e-82
-1.059e-81
-2.28185e-81
-4.11017e-81
-6.60883e-81
-9.75909e-81
-1.34863e-80
-1.7687e-80
-2.22413e-80
-2.7022e-80
-3.19059e-80
-3.67834e-80
-4.15691e-80
-4.62043e-80
-5.06546e-80
-5.4913e-80
1.35451e-82
5.8195e-83
-2.79975e-82
-8.88936e-82
-1.87646e-81
-3.36405e-81
-5.37166e-81
-7.81514e-81
-1.0561e-80
-1.34633e-80
-1.63787e-80
-1.91769e-80
-2.17515e-80
-2.40281e-80
-2.59702e-80
-2.75767e-80
-2.88753e-80
-2.99312e-80
1.21103e-82
2.31615e-83
-2.85316e-82
-7.80416e-82
-1.5769e-81
-2.78741e-81
-4.39061e-81
-6.25222e-81
-8.19947e-81
-1.00625e-80
-1.16898e-80
-1.2959e-80
-1.3787e-80
-1.41345e-80
-1.40087e-80
-1.34555e-80
-1.25515e-80
-1.14164e-80
1.01746e-82
-1.59905e-83
-2.87481e-82
-6.77217e-82
-1.31614e-81
-2.30134e-81
-3.56901e-81
-4.94484e-81
-6.23134e-81
-7.24871e-81
-7.84977e-81
-7.93112e-81
-7.43916e-81
-6.37078e-81
-4.7725e-81
-2.72883e-81
-3.50573e-82
2.21623e-81
8.10607e-83
-5.19931e-83
-2.77173e-82
-5.74372e-82
-1.0957e-81
-1.91262e-81
-2.91651e-81
-3.90232e-81
-4.66231e-81
-5.02226e-81
-4.85324e-81
-4.08283e-81
-2.69245e-81
-7.11578e-82
1.78239e-81
4.67668e-81
7.83613e-81
1.10819e-80
5.86124e-83
-8.56213e-83
-2.53701e-82
-4.66366e-82
-8.96349e-82
-1.57298e-81
-2.33846e-81
-2.96437e-81
-3.2435e-81
-3.01471e-81
-2.16728e-81
-6.52534e-82
1.52853e-81
4.31338e-81
7.60503e-81
1.12845e-80
1.5224e-80
1.92733e-80
3.21578e-83
-1.05088e-82
-1.91204e-82
-2.84058e-82
-5.56083e-82
-9.66969e-82
-1.30044e-81
-1.31534e-81
-8.37276e-82
2.31109e-82
1.91986e-81
4.1901e-81
7.09738e-81
1.0437e-80
1.40126e-80
1.76444e-80
2.11849e-80
2.44582e-80
-4.19155e-84
-8.89276e-83
-2.56285e-83
1.4714e-82
2.82089e-82
6.24424e-82
1.33303e-81
2.49361e-81
4.08703e-81
6.00664e-81
8.07661e-81
1.00901e-80
1.38854e-80
1.67135e-80
1.82352e-80
1.81105e-80
1.60148e-80
1.16595e-80
7.0382e-84
2.06856e-82
8.00186e-82
1.9972e-81
4.61672e-81
8.21159e-81
1.25923e-80
1.71603e-80
2.0941e-80
2.26154e-80
2.05727e-80
1.29051e-80
-2.63785e-81
-2.77967e-80
-6.44496e-80
-1.1435e-79
-1.79154e-79
-2.60301e-79
5.32596e-82
2.69839e-81
7.28185e-81
1.53102e-80
2.70693e-80
4.13107e-80
5.48819e-80
6.34549e-80
6.17545e-80
4.35965e-80
2.06196e-81
-7.03701e-80
-1.81519e-79
-3.37814e-79
-5.4478e-79
-8.07039e-79
-1.12773e-78
-1.50771e-78
-3.28605e-85
-1.27697e-81
-6.57383e-81
-2.08236e-80
-5.34715e-80
-1.14327e-79
-2.23251e-79
-3.97832e-79
-6.5356e-79
-1.00172e-78
-1.44723e-78
-1.98597e-78
-2.60193e-78
-3.26668e-78
-3.93836e-78
-4.56488e-78
-5.07954e-78
-5.41034e-78
-1.02126e-74
-9.81112e-75
-9.17218e-75
-8.47078e-75
-7.84608e-75
-7.3687e-75
-7.05056e-75
-6.87263e-75
-6.8055e-75
-6.8201e-75
-6.89188e-75
-7.00239e-75
-7.14397e-75
-7.31009e-75
-7.47008e-75
-7.62339e-75
-7.76919e-75
-7.90551e-75
-8.03214e-75
-8.15103e-75
-8.26575e-75
-8.38096e-75
-8.50189e-75
-8.63398e-75
-8.78249e-75
-8.95208e-75
-9.14652e-75
-9.36844e-75
-9.61909e-75
-9.89831e-75
-1.02044e-74
-1.05344e-74
-1.08838e-74
-1.1247e-74
-1.16177e-74
-1.19887e-74
-1.23525e-74
-1.27016e-74
-1.30285e-74
-1.33261e-74
-1.35881e-74
-1.38089e-74
-1.39838e-74
-1.4109e-74
-1.4182e-74
-1.42012e-74
-1.41659e-74
-1.40767e-74
-1.39348e-74
-1.37422e-74
-1.35017e-74
-1.32164e-74
-1.28898e-74
-1.25256e-74
-1.21277e-74
-1.16997e-74
-1.12454e-74
-1.07682e-74
-1.02715e-74
-9.75834e-75
-9.23175e-75
-8.69451e-75
-8.14934e-75
-7.59888e-75
-7.04574e-75
-6.49258e-75
-5.94204e-75
-5.39683e-75
-4.85967e-75
-4.33328e-75
-3.8203e-75
-3.32324e-75
-2.84439e-75
-2.38573e-75
-1.94891e-75
-1.53512e-75
-1.14511e-75
-7.79191e-76
-4.37245e-76
-1.18794e-76
1.76957e-76
4.51074e-76
7.04859e-76
9.3984e-76
1.15776e-75
1.36058e-75
1.55043e-75
1.72961e-75
1.9005e-75
2.06549e-75
2.22693e-75
2.38703e-75
2.54785e-75
2.71126e-75
2.87895e-75
3.05243e-75
3.23307e-75
3.42208e-75
3.62061e-75
3.82974e-75
4.05061e-75
4.28445e-75
4.53257e-75
4.79627e-75
5.07663e-75
5.37408e-75
5.68792e-75
6.01581e-75
6.35341e-75
6.69454e-75
7.03164e-75
7.35692e-75
7.66367e-75
7.94767e-75
8.20803e-75
8.44711e-75
8.67006e-75
8.87944e-75
9.0774e-75
9.27581e-75
9.46734e-75
9.65327e-75
9.8333e-75
1.00071e-74
1.01745e-74
1.03352e-74
1.04891e-74
1.06363e-74
1.07766e-74
1.09104e-74
1.10379e-74
1.11594e-74
1.12755e-74
1.13866e-74
1.14932e-74
1.15953e-74
1.16926e-74
1.17841e-74
1.18683e-74
1.19425e-74
1.20038e-74
1.20492e-74
1.20761e-74
1.20829e-74
1.2069e-74
1.20351e-74
1.1983e-74
1.19152e-74
1.18347e-74
1.17448e-74
1.16481e-74
1.15468e-74
1.14422e-74
1.13348e-74
1.12248e-74
1.11118e-74
1.09949e-74
1.08733e-74
1.07456e-74
1.06097e-74
1.0463e-74
1.03022e-74
1.01242e-74
9.92609e-75
9.70501e-75
9.45822e-75
9.18321e-75
8.87825e-75
8.5424e-75
8.1752e-75
7.77673e-75
7.34791e-75
6.88895e-75
6.39383e-75
5.84731e-75
5.27e-75
4.35009e-75
2.83495e-75
7.09761e-76
-1.15698e-75
-1.02081e-74
-9.75819e-75
-9.07457e-75
-8.32304e-75
-7.64547e-75
-7.11488e-75
-6.74383e-75
-6.51267e-75
-6.39068e-75
-6.34711e-75
-6.35584e-75
-6.3966e-75
-6.45391e-75
-6.52033e-75
-6.5825e-75
-6.63287e-75
-6.66819e-75
-6.68768e-75
-6.69234e-75
-6.68469e-75
-6.66842e-75
-6.64809e-75
-6.62878e-75
-6.61566e-75
-6.61368e-75
-6.62726e-75
-6.65997e-75
-6.71439e-75
-6.79196e-75
-6.89289e-75
-7.01617e-75
-7.15964e-75
-7.32009e-75
-7.49345e-75
-7.67494e-75
-7.85929e-75
-8.04101e-75
-8.21454e-75
-8.3745e-75
-8.51586e-75
-8.63407e-75
-8.72518e-75
-8.78593e-75
-8.81382e-75
-8.80707e-75
-8.7647e-75
-8.6864e-75
-8.57255e-75
-8.42413e-75
-8.2426e-75
-8.02985e-75
-7.78805e-75
-7.51962e-75
-7.22708e-75
-6.91297e-75
-6.57984e-75
-6.23017e-75
-5.86632e-75
-5.49055e-75
-5.105e-75
-4.71167e-75
-4.31247e-75
-3.90921e-75
-3.50359e-75
-3.09731e-75
-2.69199e-75
-2.2893e-75
-1.89096e-75
-1.49875e-75
-1.11457e-75
-7.40456e-76
-3.78524e-76
-3.09571e-77
3.00079e-76
6.12526e-76
9.0454e-76
1.17459e-75
1.42155e-75
1.64475e-75
1.84404e-75
2.01977e-75
2.17277e-75
2.30431e-75
2.41605e-75
2.50995e-75
2.5882e-75
2.65314e-75
2.70719e-75
2.75279e-75
2.7923e-75
2.82799e-75
2.86197e-75
2.89617e-75
2.93235e-75
2.97206e-75
3.01663e-75
3.0672e-75
3.1247e-75
3.18989e-75
3.26336e-75
3.34561e-75
3.43702e-75
3.53787e-75
3.6483e-75
3.76824e-75
3.89734e-75
4.03482e-75
4.17942e-75
4.32924e-75
4.48169e-75
4.63342e-75
4.78054e-75
4.91904e-75
5.04561e-75
5.15837e-75
5.25722e-75
5.34462e-75
5.42608e-75
5.50386e-75
5.57316e-75
5.63887e-75
5.70156e-75
5.76151e-75
5.81901e-75
5.87429e-75
5.92755e-75
5.97892e-75
6.02846e-75
6.07617e-75
6.12204e-75
6.16598e-75
6.20791e-75
6.24778e-75
6.28555e-75
6.32121e-75
6.35475e-75
6.3861e-75
6.41503e-75
6.4412e-75
6.46413e-75
6.48323e-75
6.49794e-75
6.50782e-75
6.51275e-75
6.51303e-75
6.50947e-75
6.50324e-75
6.49575e-75
6.48837e-75
6.48225e-75
6.47824e-75
6.47689e-75
6.47845e-75
6.48294e-75
6.49005e-75
6.4992e-75
6.50959e-75
6.52022e-75
6.52984e-75
6.53697e-75
6.53991e-75
6.53679e-75
6.52573e-75
6.50504e-75
6.47316e-75
6.42862e-75
6.36996e-75
6.2958e-75
6.20524e-75
6.0973e-75
5.97019e-75
5.82146e-75
5.64797e-75
5.44191e-75
5.18725e-75
4.85988e-75
4.29332e-75
3.14773e-75
1.56673e-75
1.49096e-76
-1.03402e-74
-9.74416e-75
-9.00448e-75
-8.19786e-75
-7.46723e-75
-6.88536e-75
-6.46427e-75
-6.18374e-75
-6.01223e-75
-5.91806e-75
-5.87408e-75
-5.85901e-75
-5.85688e-75
-5.85594e-75
-5.84659e-75
-5.82238e-75
-5.77992e-75
-5.71831e-75
-5.63848e-75
-5.54278e-75
-5.4346e-75
-5.31801e-75
-5.19745e-75
-5.07737e-75
-4.96199e-75
-4.85503e-75
-4.75954e-75
-4.67773e-75
-4.6109e-75
-4.55945e-75
-4.52285e-75
-4.49975e-75
-4.48809e-75
-4.48522e-75
-4.48807e-75
-4.49332e-75
-4.49757e-75
-4.49748e-75
-4.48989e-75
-4.47196e-75
-4.44124e-75
-4.39572e-75
-4.33386e-75
-4.25462e-75
-4.15745e-75
-4.04223e-75
-3.90928e-75
-3.75927e-75
-3.59316e-75
-3.41215e-75
-3.21761e-75
-3.01097e-75
-2.79372e-75
-2.56729e-75
-2.33309e-75
-2.09242e-75
-1.84649e-75
-1.59641e-75
-1.3432e-75
-1.08782e-75
-8.31111e-76
-5.73887e-76
-3.16896e-76
-6.0855e-77
1.93532e-76
4.45543e-76
6.94405e-76
9.39239e-76
1.17902e-75
1.41253e-75
1.63834e-75
1.85479e-75
2.06005e-75
2.25219e-75
2.42928e-75
2.58955e-75
2.73148e-75
2.85397e-75
2.9564e-75
3.03867e-75
3.10126e-75
3.14509e-75
3.17155e-75
3.18233e-75
3.17935e-75
3.16467e-75
3.14036e-75
3.10845e-75
3.07087e-75
3.02938e-75
2.98555e-75
2.94075e-75
2.89616e-75
2.85275e-75
2.81132e-75
2.77244e-75
2.73653e-75
2.70385e-75
2.67447e-75
2.64835e-75
2.6253e-75
2.605e-75
2.58696e-75
2.57057e-75
2.55504e-75
2.53957e-75
2.52347e-75
2.50641e-75
2.48856e-75
2.47063e-75
2.45356e-75
2.43809e-75
2.42444e-75
2.41224e-75
2.40084e-75
2.3898e-75
2.38204e-75
2.37156e-75
2.36241e-75
2.35446e-75
2.34776e-75
2.3421e-75
2.33714e-75
2.33259e-75
2.32809e-75
2.32328e-75
2.31775e-75
2.31112e-75
2.303e-75
2.29305e-75
2.28098e-75
2.26662e-75
2.24993e-75
2.23107e-75
2.21039e-75
2.18845e-75
2.16606e-75
2.14414e-75
2.12377e-75
2.10598e-75
2.09175e-75
2.08186e-75
2.07692e-75
2.07735e-75
2.08343e-75
2.09538e-75
2.11341e-75
2.13771e-75
2.16844e-75
2.2057e-75
2.24953e-75
2.29994e-75
2.35691e-75
2.42036e-75
2.49011e-75
2.56584e-75
2.64713e-75
2.73355e-75
2.82465e-75
2.91991e-75
3.01875e-75
3.12033e-75
3.22368e-75
3.32815e-75
3.43317e-75
3.5381e-75
3.64165e-75
3.74207e-75
3.83851e-75
3.92992e-75
4.01329e-75
4.08558e-75
4.14608e-75
4.1923e-75
4.22049e-75
4.21294e-75
4.05971e-75
3.54058e-75
2.76161e-75
2.01615e-75
-1.05123e-74
-9.74634e-75
-8.9216e-75
-8.05058e-75
-7.26924e-75
-6.64362e-75
-6.18251e-75
-5.86441e-75
-5.65711e-75
-5.5282e-75
-5.4497e-75
-5.39948e-75
-5.36084e-75
-5.32144e-75
-5.27231e-75
-5.2076e-75
-5.1242e-75
-5.02127e-75
-4.8997e-75
-4.76161e-75
-4.61e-75
-4.44837e-75
-4.28044e-75
-4.10984e-75
-3.93995e-75
-3.77367e-75
-3.61331e-75
-3.46052e-75
-3.31624e-75
-3.18073e-75
-3.05363e-75
-2.93401e-75
-2.82054e-75
-2.71155e-75
-2.60522e-75
-2.49966e-75
-2.39305e-75
-2.28373e-75
-2.1703e-75
-2.05161e-75
-1.92687e-75
-1.79561e-75
-1.65766e-75
-1.5132e-75
-1.36265e-75
-1.20668e-75
-1.04616e-75
-8.82075e-76
-7.155e-76
-5.47536e-76
-3.7925e-76
-2.11632e-76
-4.55594e-77
1.1823e-76
2.7914e-76
4.36714e-76
5.90617e-76
7.40618e-76
8.86561e-76
1.02835e-75
1.16591e-75
1.29921e-75
1.42819e-75
1.55282e-75
1.67301e-75
1.78864e-75
1.89953e-75
2.0054e-75
2.10586e-75
2.20037e-75
2.28825e-75
2.36868e-75
2.44074e-75
2.50346e-75
2.55591e-75
2.59728e-75
2.62701e-75
2.6448e-75
2.65068e-75
2.64503e-75
2.62852e-75
2.60208e-75
2.56682e-75
2.52394e-75
2.47468e-75
2.42025e-75
2.36177e-75
2.30024e-75
2.23651e-75
2.1713e-75
2.10514e-75
2.03845e-75
1.97155e-75
1.90463e-75
1.83781e-75
1.77115e-75
1.70466e-75
1.63833e-75
1.57213e-75
1.5061e-75
1.44026e-75
1.37468e-75
1.30943e-75
1.24448e-75
1.17976e-75
1.11511e-75
1.05049e-75
9.86133e-76
9.22746e-76
8.61517e-76
8.03897e-76
7.51182e-76
7.0415e-76
6.63258e-76
6.27366e-76
5.96428e-76
5.68054e-76
5.42288e-76
5.18906e-76
4.97139e-76
4.76398e-76
4.56139e-76
4.3584e-76
4.14994e-76
3.93115e-76
3.69748e-76
3.4448e-76
3.16955e-76
2.86881e-76
2.54054e-76
2.18375e-76
1.79881e-76
1.38764e-76
9.53954e-77
5.03436e-77
4.38379e-78
-4.15045e-77
-8.61549e-77
-1.2827e-76
-1.66519e-76
-1.99644e-76
-2.26538e-76
-2.46303e-76
-2.58276e-76
-2.62027e-76
-2.57306e-76
-2.43989e-76
-2.2203e-76
-1.91431e-76
-1.52215e-76
-1.0437e-76
-4.78423e-77
1.74666e-77
9.16612e-77
1.74772e-76
2.66683e-76
3.67181e-76
4.76246e-76
5.93989e-76
7.2063e-76
8.56327e-76
1.00081e-75
1.15339e-75
1.31423e-75
1.48382e-75
1.66258e-75
1.84957e-75
2.04279e-75
2.24242e-75
2.44904e-75
2.65882e-75
2.8695e-75
3.08484e-75
3.30376e-75
3.53227e-75
3.76093e-75
3.92116e-75
3.8968e-75
3.72076e-75
3.53443e-75
-1.07276e-74
-9.76147e-75
-8.83391e-75
-7.8955e-75
-7.06856e-75
-6.40699e-75
-5.91382e-75
-5.56577e-75
-5.33032e-75
-5.17491e-75
-5.07128e-75
-4.99689e-75
-4.93472e-75
-4.87241e-75
-4.80134e-75
-4.71609e-75
-4.61384e-75
-4.49385e-75
-4.35695e-75
-4.20507e-75
-4.04083e-75
-3.86723e-75
-3.68734e-75
-3.5041e-75
-3.32014e-75
-3.13765e-75
-2.95833e-75
-2.7833e-75
-2.61316e-75
-2.44802e-75
-2.28756e-75
-2.13112e-75
-1.97783e-75
-1.82671e-75
-1.67676e-75
-1.52708e-75
-1.37691e-75
-1.22575e-75
-1.0733e-75
-9.19561e-76
-7.64778e-76
-6.09435e-76
-4.54221e-76
-2.99992e-76
-1.47732e-76
1.49518e-78
1.4659e-76
2.8647e-76
4.20116e-76
5.46619e-76
6.65225e-76
7.75367e-76
8.76683e-76
9.6902e-76
1.05242e-75
1.12712e-75
1.19346e-75
1.25191e-75
1.303e-75
1.34731e-75
1.3854e-75
1.41783e-75
1.44514e-75
1.46782e-75
1.48635e-75
1.5011e-75
1.51245e-75
1.52065e-75
1.52592e-75
1.52837e-75
1.52806e-75
1.52495e-75
1.51898e-75
1.51003e-75
1.49801e-75
1.48289e-75
1.4647e-75
1.44357e-75
1.41974e-75
1.39355e-75
1.36536e-75
1.33558e-75
1.30459e-75
1.2727e-75
1.24012e-75
1.20697e-75
1.17327e-75
1.13892e-75
1.10373e-75
1.06745e-75
1.02981e-75
9.90471e-76
9.49159e-76
9.05618e-76
8.59662e-76
8.11217e-76
7.60359e-76
7.07348e-76
6.52638e-76
5.96862e-76
5.40796e-76
4.85275e-76
4.3106e-76
3.78701e-76
3.28438e-76
2.802e-76
2.33737e-76
1.88847e-76
1.45598e-76
1.0441e-76
6.59767e-77
3.07587e-77
-2.95271e-78
-3.30875e-77
-5.89218e-77
-8.1805e-77
-1.02705e-76
-1.2231e-76
-1.41133e-76
-1.59859e-76
-1.79106e-76
-1.9946e-76
-2.21469e-76
-2.45648e-76
-2.72463e-76
-3.02324e-76
-3.35567e-76
-3.72446e-76
-4.13128e-76
-4.57688e-76
-5.06085e-76
-5.58145e-76
-6.13545e-76
-6.71805e-76
-7.32285e-76
-7.94179e-76
-8.56522e-76
-9.18211e-76
-9.78045e-76
-1.03479e-75
-1.08726e-75
-1.13432e-75
-1.17498e-75
-1.20834e-75
-1.23365e-75
-1.25026e-75
-1.25762e-75
-1.25534e-75
-1.2432e-75
-1.2211e-75
-1.18888e-75
-1.14633e-75
-1.09318e-75
-1.02909e-75
-9.53846e-76
-8.67537e-76
-7.70599e-76
-6.62925e-76
-5.44101e-76
-4.13446e-76
-2.70181e-76
-1.14283e-76
5.30336e-77
2.32397e-76
4.25197e-76
6.33174e-76
8.55499e-76
1.0895e-75
1.33662e-75
1.60076e-75
1.87527e-75
2.15911e-75
2.46235e-75
2.77757e-75
3.11158e-75
3.45872e-75
3.78889e-75
4.04776e-75
4.23016e-75
4.4066e-75
-1.0976e-74
-9.77445e-75
-8.729e-75
-7.72281e-75
-6.85653e-75
-6.16684e-75
-5.64873e-75
-5.27666e-75
-5.01799e-75
-4.84051e-75
-4.71618e-75
-4.62252e-75
-4.54257e-75
-4.46413e-75
-4.37893e-75
-4.28189e-75
-4.17045e-75
-4.04398e-75
-3.90328e-75
-3.75012e-75
-3.58682e-75
-3.41595e-75
-3.24009e-75
-3.06165e-75
-2.88269e-75
-2.70489e-75
-2.5295e-75
-2.3573e-75
-2.18869e-75
-2.02369e-75
-1.86208e-75
-1.70345e-75
-1.54731e-75
-1.39317e-75
-1.24067e-75
-1.08956e-75
-9.39833e-76
-7.91673e-76
-6.45509e-76
-5.01974e-76
-3.61875e-76
-2.26157e-76
-9.58529e-77
2.79606e-77
1.44206e-76
2.51849e-76
3.49939e-76
4.37649e-76
5.14315e-76
5.79473e-76
6.3289e-76
6.74581e-76
7.04817e-76
7.24111e-76
7.33198e-76
7.32986e-76
7.24511e-76
7.08882e-76
6.87233e-76
6.60682e-76
6.30297e-76
5.97075e-76
5.61938e-76
5.2573e-76
4.89214e-76
4.53076e-76
4.17917e-76
3.84258e-76
3.5254e-76
3.23127e-76
2.96309e-76
2.72308e-76
2.51281e-76
2.33326e-76
2.18495e-76
2.06801e-76
1.98229e-76
1.92742e-76
1.90279e-76
1.90743e-76
1.93985e-76
1.99783e-76
2.07814e-76
2.17641e-76
2.28709e-76
2.40352e-76
2.51818e-76
2.62298e-76
2.70961e-76
2.76991e-76
2.79625e-76
2.78188e-76
2.72126e-76
2.61032e-76
2.44689e-76
2.2317e-76
1.96922e-76
1.66786e-76
1.33935e-76
9.97572e-77
6.57067e-77
3.31269e-77
3.04276e-78
-2.40168e-77
-4.80958e-77
-6.97345e-77
-8.97506e-77
-1.08951e-76
-1.27866e-76
-1.46815e-76
-1.64977e-76
-1.85575e-76
-2.03175e-76
-2.19138e-76
-2.33728e-76
-2.47273e-76
-2.60202e-76
-2.72989e-76
-2.86063e-76
-2.99987e-76
-3.15338e-76
-3.32695e-76
-3.52624e-76
-3.75662e-76
-4.02307e-76
-4.33002e-76
-4.68115e-76
-5.07928e-76
-5.52635e-76
-6.02335e-76
-6.57016e-76
-7.16526e-76
-7.80561e-76
-8.48655e-76
-9.20173e-76
-9.94302e-76
-1.07006e-75
-1.14636e-75
-1.22202e-75
-1.29589e-75
-1.36683e-75
-1.43368e-75
-1.49532e-75
-1.55063e-75
-1.59855e-75
-1.63797e-75
-1.66783e-75
-1.68726e-75
-1.69579e-75
-1.69335e-75
-1.67966e-75
-1.65438e-75
-1.6171e-75
-1.56726e-75
-1.50428e-75
-1.42822e-75
-1.34023e-75
-1.24031e-75
-1.12802e-75
-1.00244e-75
-8.62196e-76
-7.06847e-76
-5.38999e-76
-3.57952e-76
-1.61817e-76
5.28863e-77
2.8458e-76
5.29654e-76
7.90469e-76
1.07672e-75
1.37493e-75
1.68666e-75
2.01772e-75
2.36863e-75
2.74235e-75
3.13339e-75
3.53184e-75
3.9205e-75
4.28954e-75
4.67383e-75
-1.12516e-74
-9.77812e-75
-8.60428e-75
-7.53296e-75
-6.63466e-75
-5.9247e-75
-5.38848e-75
-4.99774e-75
-4.71994e-75
-4.52359e-75
-4.3813e-75
-4.27101e-75
-4.1761e-75
-4.08468e-75
-3.98882e-75
-3.88375e-75
-3.76712e-75
-3.63841e-75
-3.49841e-75
-3.34872e-75
-3.19144e-75
-3.0288e-75
-2.86302e-75
-2.6961e-75
-2.52975e-75
-2.36529e-75
-2.20371e-75
-2.0456e-75
-1.89129e-75
-1.74084e-75
-1.59416e-75
-1.4511e-75
-1.31149e-75
-1.17525e-75
-1.04245e-75
-9.13306e-76
-7.8825e-76
-6.67889e-76
-5.52999e-76
-4.44484e-76
-3.43321e-76
-2.50514e-76
-1.67034e-76
-9.37814e-77
-3.15427e-77
1.90382e-77
5.74864e-77
8.35208e-77
9.70772e-77
9.8328e-77
8.76956e-77
6.58582e-77
3.37434e-77
-7.4942e-78
-5.6512e-77
-1.11835e-76
-1.71922e-76
-2.35232e-76
-3.00287e-76
-3.65722e-76
-4.3032e-76
-4.93022e-76
-5.5291e-76
-6.09187e-76
-6.61158e-76
-7.08235e-76
-7.49928e-76
-7.85845e-76
-8.15681e-76
-8.39205e-76
-8.56256e-76
-8.6674e-76
-8.70628e-76
-8.67961e-76
-8.58855e-76
-8.43495e-76
-8.22134e-76
-7.9509e-76
-7.62743e-76
-7.25528e-76
-6.83951e-76
-6.38598e-76
-5.90161e-76
-5.39454e-76
-4.87422e-76
-4.35131e-76
-3.8374e-76
-3.34454e-76
-2.88468e-76
-2.46908e-76
-2.10769e-76
-1.80871e-76
-1.57823e-76
-1.4206e-76
-1.33785e-76
-1.32762e-76
-1.38112e-76
-1.48329e-76
-1.61486e-76
-1.75575e-76
-1.88781e-76
-1.99698e-76
-2.07521e-76
-2.12151e-76
-2.14169e-76
-2.14617e-76
-2.14721e-76
-2.15609e-76
-2.17536e-76
-2.23999e-76
-2.33182e-76
-2.40193e-76
-2.46597e-76
-2.52806e-76
-2.58888e-76
-2.64881e-76
-2.70931e-76
-2.77273e-76
-2.84204e-76
-2.92171e-76
-3.01695e-76
-3.13342e-76
-3.27696e-76
-3.45335e-76
-3.66821e-76
-3.92695e-76
-4.23461e-76
-4.59556e-76
-5.01341e-76
-5.49076e-76
-6.02911e-76
-6.62852e-76
-7.2875e-76
-8.00282e-76
-8.76921e-76
-9.57901e-76
-1.04221e-75
-1.12864e-75
-1.21597e-75
-1.30304e-75
-1.38882e-75
-1.47209e-75
-1.55155e-75
-1.62592e-75
-1.69386e-75
-1.75392e-75
-1.8045e-75
-1.84408e-75
-1.8718e-75
-1.88782e-75
-1.89188e-75
-1.8835e-75
-1.86219e-75
-1.82722e-75
-1.77756e-75
-1.71263e-75
-1.63477e-75
-1.54424e-75
-1.44071e-75
-1.32336e-75
-1.1903e-75
-1.04022e-75
-8.77871e-76
-7.02572e-76
-5.12681e-76
-3.0218e-76
-7.55435e-77
1.63192e-76
4.16807e-76
6.89201e-76
9.77975e-76
1.2836e-75
1.60881e-75
1.95509e-75
2.32285e-75
2.70732e-75
3.10908e-75
3.53176e-75
3.97573e-75
4.45903e-75
-1.15486e-74
-9.76921e-75
-8.46087e-75
-7.32928e-75
-6.40651e-75
-5.68367e-75
-5.13561e-75
-4.73122e-75
-4.4382e-75
-4.22606e-75
-4.06835e-75
-3.94372e-75
-3.83607e-75
-3.73391e-75
-3.62967e-75
-3.51884e-75
-3.39926e-75
-3.27049e-75
-3.13329e-75
-2.98915e-75
-2.83995e-75
-2.68771e-75
-2.53436e-75
-2.38163e-75
-2.23098e-75
-2.08353e-75
-1.94013e-75
-1.80132e-75
-1.66741e-75
-1.53857e-75
-1.41486e-75
-1.29634e-75
-1.1831e-75
-1.07535e-75
-9.73406e-76
-8.77751e-76
-7.89016e-76
-7.07955e-76
-6.35412e-76
-5.72265e-76
-5.19368e-76
-4.77487e-76
-4.47254e-76
-4.29128e-76
-4.23369e-76
-4.30034e-76
-4.48966e-76
-4.79801e-76
-5.2196e-76
-5.74653e-76
-6.36884e-76
-7.07454e-76
-7.84977e-76
-8.67898e-76
-9.54532e-76
-1.04312e-75
-1.13192e-75
-1.21926e-75
-1.30361e-75
-1.3837e-75
-1.45849e-75
-1.52719e-75
-1.58922e-75
-1.64408e-75
-1.69135e-75
-1.7307e-75
-1.76188e-75
-1.78475e-75
-1.79921e-75
-1.80527e-75
-1.80292e-75
-1.79223e-75
-1.77332e-75
-1.74635e-75
-1.71155e-75
-1.66926e-75
-1.61988e-75
-1.56389e-75
-1.50188e-75
-1.43446e-75
-1.3623e-75
-1.28615e-75
-1.20683e-75
-1.12528e-75
-1.04258e-75
-9.59981e-76
-8.78855e-76
-8.00663e-76
-7.26865e-76
-6.58814e-76
-5.97638e-76
-5.44136e-76
-4.98768e-76
-4.61883e-76
-4.33804e-76
-4.14362e-76
-4.02403e-76
-3.95769e-76
-3.91791e-76
-3.88027e-76
-3.82689e-76
-3.74761e-76
-3.64047e-76
-3.51082e-76
-3.37059e-76
-3.23272e-76
-3.11241e-76
-3.0322e-76
-2.99379e-76
-2.95614e-76
-2.92989e-76
-2.90811e-76
-2.89146e-76
-2.87903e-76
-2.86945e-76
-2.86134e-76
-2.85422e-76
-2.84857e-76
-2.84593e-76
-2.84953e-76
-2.86383e-76
-2.89419e-76
-2.94644e-76
-3.02661e-76
-3.14075e-76
-3.2951e-76
-3.49632e-76
-3.75122e-76
-4.06661e-76
-4.44769e-76
-4.89839e-76
-5.42128e-76
-6.01752e-76
-6.68662e-76
-7.42591e-76
-8.22971e-76
-9.08852e-76
-9.98914e-76
-1.09169e-75
-1.18598e-75
-1.28099e-75
-1.37553e-75
-1.46815e-75
-1.55734e-75
-1.64162e-75
-1.71934e-75
-1.78852e-75
-1.84684e-75
-1.89254e-75
-1.92609e-75
-1.94738e-75
-1.95574e-75
-1.95062e-75
-1.93133e-75
-1.89649e-75
-1.84392e-75
-1.77741e-75
-1.69735e-75
-1.6035e-75
-1.49537e-75
-1.37074e-75
-1.22705e-75
-1.07199e-75
-9.04088e-76
-7.22758e-76
-5.26185e-76
-3.15132e-76
-9.17641e-77
1.44011e-76
3.93444e-76
6.5679e-76
9.34934e-76
1.2296e-75
1.54182e-75
1.8709e-75
2.21312e-75
2.57399e-75
2.96745e-75
3.40646e-75
3.90379e-75
-1.18594e-74
-9.74603e-75
-8.30163e-75
-7.11616e-75
-6.17626e-75
-5.44709e-75
-4.89271e-75
-4.47922e-75
-4.17465e-75
-3.94974e-75
-3.77919e-75
-3.64255e-75
-3.52435e-75
-3.41358e-75
-3.303e-75
-3.18835e-75
-3.06764e-75
-2.94045e-75
-2.80753e-75
-2.67024e-75
-2.53032e-75
-2.38959e-75
-2.24979e-75
-2.11247e-75
-1.97893e-75
-1.8502e-75
-1.72703e-75
-1.60996e-75
-1.49937e-75
-1.3955e-75
-1.29855e-75
-1.20873e-75
-1.12626e-75
-1.0515e-75
-9.84863e-76
-9.2689e-76
-8.78207e-76
-8.39503e-76
-8.11477e-76
-7.94785e-76
-7.89975e-76
-7.97425e-76
-8.17299e-76
-8.4952e-76
-8.93768e-76
-9.49495e-76
-1.01595e-75
-1.09222e-75
-1.1772e-75
-1.26967e-75
-1.36829e-75
-1.47161e-75
-1.5781e-75
-1.6861e-75
-1.7939e-75
-1.89972e-75
-2.00184e-75
-2.09865e-75
-2.18874e-75
-2.27104e-75
-2.34486e-75
-2.40987e-75
-2.46596e-75
-2.51299e-75
-2.55078e-75
-2.57916e-75
-2.59808e-75
-2.60754e-75
-2.60762e-75
-2.59842e-75
-2.58009e-75
-2.55274e-75
-2.51654e-75
-2.47167e-75
-2.41839e-75
-2.35705e-75
-2.28809e-75
-2.21208e-75
-2.1297e-75
-2.04169e-75
-1.94882e-75
-1.85188e-75
-1.75173e-75
-1.64932e-75
-1.54575e-75
-1.44229e-75
-1.34043e-75
-1.24181e-75
-1.14814e-75
-1.06104e-75
-9.81786e-76
-9.11012e-76
-8.48601e-76
-7.94514e-76
-7.49426e-76
-7.13803e-76
-6.86642e-76
-6.65211e-76
-6.46006e-76
-6.26259e-76
-6.04628e-76
-5.80836e-76
-5.55704e-76
-5.30101e-76
-5.06777e-76
-4.84936e-76
-4.66817e-76
-4.51078e-76
-4.37729e-76
-4.25994e-76
-4.15844e-76
-4.06872e-76
-3.98767e-76
-3.9119e-76
-3.83835e-76
-3.764e-76
-3.68648e-76
-3.60447e-76
-3.51798e-76
-3.42883e-76
-3.3405e-76
-3.25786e-76
-3.18665e-76
-3.13297e-76
-3.1029e-76
-3.10267e-76
-3.13953e-76
-3.22224e-76
-3.36358e-76
-3.57213e-76
-3.85465e-76
-4.21662e-76
-4.66248e-76
-5.19542e-76
-5.81678e-76
-6.52499e-76
-7.31382e-76
-8.17078e-76
-9.07839e-76
-1.00198e-75
-1.09921e-75
-1.19858e-75
-1.29851e-75
-1.39729e-75
-1.49327e-75
-1.58478e-75
-1.66982e-75
-1.74553e-75
-1.80873e-75
-1.85968e-75
-1.89853e-75
-1.92443e-75
-1.93665e-75
-1.93458e-75
-1.91713e-75
-1.87963e-75
-1.82747e-75
-1.76039e-75
-1.6782e-75
-1.58063e-75
-1.46681e-75
-1.33553e-75
-1.18943e-75
-1.02929e-75
-8.55687e-76
-6.68933e-76
-4.6991e-76
-2.60362e-76
-4.16061e-77
1.8568e-76
4.21218e-76
6.65355e-76
9.18888e-76
1.18211e-75
1.45399e-75
1.73203e-75
2.02352e-75
2.346e-75
2.72165e-75
3.16411e-75
-1.21753e-74
-9.70784e-75
-8.12997e-75
-6.89795e-75
-5.94759e-75
-5.2176e-75
-4.66154e-75
-4.24285e-75
-3.93006e-75
-3.69523e-75
-3.51439e-75
-3.36809e-75
-3.24156e-75
-3.12432e-75
-3.00944e-75
-2.8929e-75
-2.77278e-75
-2.64872e-75
-2.52139e-75
-2.39206e-75
-2.26234e-75
-2.1339e-75
-2.00832e-75
-1.88703e-75
-1.77123e-75
-1.66187e-75
-1.5597e-75
-1.46525e-75
-1.37895e-75
-1.30111e-75
-1.23198e-75
-1.17184e-75
-1.12097e-75
-1.07971e-75
-1.04844e-75
-1.02761e-75
-1.01768e-75
-1.01913e-75
-1.03241e-75
-1.05785e-75
-1.09564e-75
-1.14576e-75
-1.20793e-75
-1.28158e-75
-1.36589e-75
-1.45983e-75
-1.56221e-75
-1.67171e-75
-1.78693e-75
-1.90639e-75
-2.02865e-75
-2.15226e-75
-2.27578e-75
-2.39773e-75
-2.51656e-75
-2.63067e-75
-2.73847e-75
-2.83844e-75
-2.92928e-75
-3.01006e-75
-3.0804e-75
-3.1406e-75
-3.19115e-75
-3.23219e-75
-3.26355e-75
-3.28504e-75
-3.29662e-75
-3.29835e-75
-3.29035e-75
-3.27279e-75
-3.24583e-75
-3.20964e-75
-3.16433e-75
-3.11007e-75
-3.04705e-75
-2.97554e-75
-2.89595e-75
-2.80884e-75
-2.71496e-75
-2.61516e-75
-2.51031e-75
-2.40122e-75
-2.28876e-75
-2.17386e-75
-2.05758e-75
-1.94115e-75
-1.826e-75
-1.71384e-75
-1.60663e-75
-1.50638e-75
-1.41474e-75
-1.3322e-75
-1.25735e-75
-1.18898e-75
-1.12836e-75
-1.07762e-75
-1.03675e-75
-1.00257e-75
-9.70397e-76
-9.37003e-76
-9.02282e-76
-8.66325e-76
-8.3342e-76
-7.98237e-76
-7.64764e-76
-7.36071e-76
-7.10712e-76
-6.8818e-76
-6.68437e-76
-6.51006e-76
-6.35402e-76
-6.20998e-76
-6.0749e-76
-5.94344e-76
-5.81043e-76
-5.67071e-76
-5.51981e-76
-5.35445e-76
-5.1729e-76
-4.97547e-76
-4.76446e-76
-4.54411e-76
-4.32011e-76
-4.09894e-76
-3.88702e-76
-3.69024e-76
-3.51423e-76
-3.36411e-76
-3.26564e-76
-3.23088e-76
-3.26936e-76
-3.38957e-76
-3.59948e-76
-3.90629e-76
-4.31591e-76
-4.83214e-76
-5.45487e-76
-6.17709e-76
-6.98271e-76
-7.842e-76
-8.75887e-76
-9.72708e-76
-1.07314e-75
-1.17535e-75
-1.27752e-75
-1.37791e-75
-1.47469e-75
-1.56515e-75
-1.64568e-75
-1.71421e-75
-1.77153e-75
-1.81666e-75
-1.84858e-75
-1.86649e-75
-1.86937e-75
-1.85479e-75
-1.82384e-75
-1.77654e-75
-1.71255e-75
-1.63144e-75
-1.53268e-75
-1.4156e-75
-1.28097e-75
-1.12963e-75