/*--------------------------------*- C++ -*----------------------------------*\
| =========                 |                                                 |
| \\      /  F ield         | OpenFOAM: The Open Source CFD Toolbox           |
|  \\    /   O peration     | Version:  2112                                  |
|   \\  /    A nd           | Website:  www.openfoam.com                      |
|    \\/     M anipulation  |                                                 |
\*---------------------------------------------------------------------------*/
FoamFile
{
    version     2.0;
    format      ascii;
    arch        "LSB;label=32;scalar=64";
    class       volVectorField;
    location    "0.6";
    object      ddt0(U);
}
// * * * * * * * * * * * * * * * * * * * * * * * * * * * * * * * * * * * * * //

dimensions      [0 1 -2 0 0 0 0];

internalField   nonuniform List<vector> 
12225
(
(-1.51233e-07 7.27059e-08 0)
(-1.09377e-06 1.98537e-07 0)
(-2.96779e-06 3.35284e-07 0)
(-5.85878e-06 4.95886e-07 0)
(-9.72327e-06 6.57492e-07 0)
(-1.44759e-05 8.04219e-07 0)
(-1.99873e-05 9.21318e-07 0)
(-2.60849e-05 1.00669e-06 0)
(-3.25852e-05 1.06972e-06 0)
(-3.93458e-05 1.13307e-06 0)
(-4.63037e-05 1.22675e-06 0)
(-5.34423e-05 1.38202e-06 0)
(-6.07867e-05 1.65484e-06 0)
(-6.84325e-05 2.03785e-06 0)
(-7.59227e-05 2.54527e-06 0)
(-8.38879e-05 1.77914e-06 0)
(-9.09696e-05 1.09378e-06 0)
(-9.24956e-05 -2.73818e-06 0)
(5.06327e-08 1.17763e-07 0)
(-3.0039e-09 3.41211e-07 0)
(-4.18938e-07 6.18701e-07 0)
(-1.37773e-06 9.67347e-07 0)
(-3.03557e-06 1.35341e-06 0)
(-5.53295e-06 1.7678e-06 0)
(-8.98682e-06 2.18054e-06 0)
(-1.34684e-05 2.5718e-06 0)
(-1.90035e-05 2.92934e-06 0)
(-2.55922e-05 3.26208e-06 0)
(-3.32376e-05 3.58694e-06 0)
(-4.19325e-05 3.91458e-06 0)
(-5.16648e-05 4.28719e-06 0)
(-6.2473e-05 4.68035e-06 0)
(-7.4422e-05 5.0297e-06 0)
(-8.73685e-05 4.62191e-06 0)
(-0.000100483 3.49483e-06 0)
(-0.000117194 9.59537e-07 0)
(3.36911e-09 1.27229e-07 0)
(-3.09245e-07 4.13754e-07 0)
(-9.11219e-07 7.79581e-07 0)
(-1.72241e-06 1.22032e-06 0)
(-2.69435e-06 1.70557e-06 0)
(-3.84609e-06 2.25181e-06 0)
(-5.27057e-06 2.85828e-06 0)
(-7.14765e-06 3.50878e-06 0)
(-9.59988e-06 4.19097e-06 0)
(-1.27678e-05 4.92017e-06 0)
(-1.67869e-05 5.71624e-06 0)
(-2.17666e-05 6.57282e-06 0)
(-2.77937e-05 7.52171e-06 0)
(-3.50221e-05 8.55742e-06 0)
(-4.35598e-05 9.54029e-06 0)
(-5.34664e-05 1.05008e-05 0)
(-6.47465e-05 1.07117e-05 0)
(-7.89382e-05 9.09011e-06 0)
(-1.48986e-08 1.61255e-07 0)
(-2.66915e-07 5.47982e-07 0)
(-9.63834e-07 9.642e-07 0)
(-2.02172e-06 1.46762e-06 0)
(-3.40338e-06 2.04686e-06 0)
(-5.03169e-06 2.69151e-06 0)
(-6.87591e-06 3.39303e-06 0)
(-8.9302e-06 4.17187e-06 0)
(-1.12594e-05 5.02907e-06 0)
(-1.39489e-05 5.97752e-06 0)
(-1.69757e-05 7.0537e-06 0)
(-2.04823e-05 8.24625e-06 0)
(-2.45359e-05 9.64156e-06 0)
(-2.92082e-05 1.12045e-05 0)
(-3.46427e-05 1.28669e-05 0)
(-4.10358e-05 1.4407e-05 0)
(-4.87411e-05 1.54536e-05 0)
(-5.91896e-05 1.58734e-05 0)
(-3.584e-08 2.02804e-07 0)
(-3.08694e-07 6.68423e-07 0)
(-9.12918e-07 1.20799e-06 0)
(-1.82632e-06 1.87331e-06 0)
(-3.16032e-06 2.52712e-06 0)
(-4.83958e-06 3.26389e-06 0)
(-6.84921e-06 4.07417e-06 0)
(-9.19087e-06 4.9842e-06 0)
(-1.19032e-05 5.98569e-06 0)
(-1.50085e-05 7.11358e-06 0)
(-1.86111e-05 8.38056e-06 0)
(-2.2635e-05 9.78188e-06 0)
(-2.72987e-05 1.1297e-05 0)
(-3.1958e-05 1.31875e-05 0)
(-3.73622e-05 1.52578e-05 0)
(-4.35457e-05 1.75212e-05 0)
(-5.15599e-05 1.94847e-05 0)
(-6.17483e-05 2.1632e-05 0)
(-3.90785e-08 2.48968e-07 0)
(-3.5879e-07 7.92702e-07 0)
(-9.86667e-07 1.44278e-06 0)
(-1.8209e-06 2.1908e-06 0)
(-2.96778e-06 2.95543e-06 0)
(-4.56066e-06 3.83397e-06 0)
(-6.50422e-06 4.79512e-06 0)
(-8.8044e-06 5.8689e-06 0)
(-1.14923e-05 7.05047e-06 0)
(-1.4584e-05 8.3883e-06 0)
(-1.81565e-05 9.90816e-06 0)
(-2.21834e-05 1.1609e-05 0)
(-2.68278e-05 1.36083e-05 0)
(-3.22419e-05 1.57824e-05 0)
(-3.81588e-05 1.8148e-05 0)
(-4.46763e-05 2.07711e-05 0)
(-5.20345e-05 2.38794e-05 0)
(-6.14157e-05 2.79119e-05 0)
(-3.6605e-08 3.07932e-07 0)
(-3.71033e-07 9.52945e-07 0)
(-1.03225e-06 1.65295e-06 0)
(-1.8857e-06 2.45395e-06 0)
(-2.86509e-06 3.46982e-06 0)
(-4.29972e-06 4.47486e-06 0)
(-6.10408e-06 5.59121e-06 0)
(-8.26828e-06 6.84374e-06 0)
(-1.08062e-05 8.22079e-06 0)
(-1.37288e-05 9.7909e-06 0)
(-1.70965e-05 1.15716e-05 0)
(-2.0949e-05 1.35572e-05 0)
(-2.52618e-05 1.58324e-05 0)
(-3.03742e-05 1.8292e-05 0)
(-3.60439e-05 2.11547e-05 0)
(-4.25122e-05 2.44444e-05 0)
(-4.96225e-05 2.8543e-05 0)
(-5.80805e-05 3.36388e-05 0)
(-3.36746e-08 3.69409e-07 0)
(-3.61796e-07 1.12489e-06 0)
(-1.01501e-06 1.92942e-06 0)
(-1.93248e-06 2.80923e-06 0)
(-2.91898e-06 3.89093e-06 0)
(-4.09062e-06 5.11023e-06 0)
(-5.72166e-06 6.36287e-06 0)
(-7.69634e-06 7.78955e-06 0)
(-1.00318e-05 9.38016e-06 0)
(-1.27196e-05 1.12016e-05 0)
(-1.58249e-05 1.32621e-05 0)
(-1.93763e-05 1.55595e-05 0)
(-2.33296e-05 1.82319e-05 0)
(-2.77769e-05 2.1281e-05 0)
(-3.28083e-05 2.47225e-05 0)
(-3.85926e-05 2.86347e-05 0)
(-4.51423e-05 3.3287e-05 0)
(-5.25437e-05 3.91359e-05 0)
(-3.12905e-08 4.31458e-07 0)
(-3.44155e-07 1.30317e-06 0)
(-9.76212e-07 2.2185e-06 0)
(-1.888e-06 3.19065e-06 0)
(-3.00819e-06 4.27795e-06 0)
(-4.12444e-06 5.6168e-06 0)
(-5.47273e-06 7.10544e-06 0)
(-7.15636e-06 8.80141e-06 0)
(-9.25618e-06 1.05145e-05 0)
(-1.16831e-05 1.25204e-05 0)
(-1.44806e-05 1.4832e-05 0)
(-1.77003e-05 1.74396e-05 0)
(-2.13118e-05 2.04372e-05 0)
(-2.53245e-05 2.38241e-05 0)
(-2.97924e-05 2.76874e-05 0)
(-3.48018e-05 3.2128e-05 0)
(-4.03583e-05 3.74038e-05 0)
(-4.64549e-05 4.3843e-05 0)
(-2.92542e-08 4.93711e-07 0)
(-3.23913e-07 1.48535e-06 0)
(-9.25205e-07 2.51573e-06 0)
(-1.79879e-06 3.60648e-06 0)
(-2.91624e-06 4.80172e-06 0)
(-4.19602e-06 6.13764e-06 0)
(-5.56433e-06 7.78574e-06 0)
(-7.00224e-06 9.57212e-06 0)
(-8.65044e-06 1.1562e-05 0)
(-1.07462e-05 1.38807e-05 0)
(-1.30781e-05 1.65385e-05 0)
(-1.59211e-05 1.93232e-05 0)
(-1.91217e-05 2.25484e-05 0)
(-2.27105e-05 2.6241e-05 0)
(-2.66573e-05 3.04904e-05 0)
(-3.09576e-05 3.53585e-05 0)
(-3.55448e-05 4.10654e-05 0)
(-4.03901e-05 4.78325e-05 0)
(-2.71397e-08 5.55843e-07 0)
(-3.01466e-07 1.6691e-06 0)
(-8.64994e-07 2.81784e-06 0)
(-1.68623e-06 4.03416e-06 0)
(-2.74329e-06 5.35388e-06 0)
(-4.02228e-06 6.81417e-06 0)
(-5.46828e-06 8.44952e-06 0)
(-7.05839e-06 1.02905e-05 0)
(-8.66729e-06 1.25323e-05 0)
(-1.05221e-05 1.50302e-05 0)
(-1.23659e-05 1.77575e-05 0)
(-1.44334e-05 2.09331e-05 0)
(-1.69245e-05 2.46994e-05 0)
(-1.99528e-05 2.86419e-05 0)
(-2.32681e-05 3.31383e-05 0)
(-2.68422e-05 3.82586e-05 0)
(-3.05073e-05 4.42014e-05 0)
(-3.42228e-05 5.11005e-05 0)
(-2.53377e-08 6.12772e-07 0)
(-2.79026e-07 1.83723e-06 0)
(-8.02002e-07 3.09538e-06 0)
(-1.56496e-06 4.42614e-06 0)
(-2.54666e-06 5.8648e-06 0)
(-3.74427e-06 7.44694e-06 0)
(-5.12929e-06 9.21921e-06 0)
(-6.70172e-06 1.11797e-05 0)
(-8.41959e-06 1.33916e-05 0)
(-1.02624e-05 1.59079e-05 0)
(-1.22144e-05 1.87331e-05 0)
(-1.41138e-05 2.2204e-05 0)
(-1.5925e-05 2.60039e-05 0)
(-1.79208e-05 3.03395e-05 0)
(-2.03081e-05 3.53746e-05 0)
(-2.30989e-05 4.06116e-05 0)
(-2.58572e-05 4.65717e-05 0)
(-2.85465e-05 5.33935e-05 0)
(-2.35609e-08 6.67946e-07 0)
(-2.55339e-07 2.00068e-06 0)
(-7.33048e-07 3.36575e-06 0)
(-1.43051e-06 4.80727e-06 0)
(-2.32579e-06 6.36177e-06 0)
(-3.41627e-06 8.06431e-06 0)
(-4.68858e-06 9.95747e-06 0)
(-6.14078e-06 1.205e-05 0)
(-7.75937e-06 1.44072e-05 0)
(-9.50558e-06 1.70617e-05 0)
(-1.13999e-05 1.99958e-05 0)
(-1.33752e-05 2.32943e-05 0)
(-1.53447e-05 2.70542e-05 0)
(-1.70709e-05 3.16745e-05 0)
(-1.85236e-05 3.66396e-05 0)
(-1.99913e-05 4.20745e-05 0)
(-2.1714e-05 4.83044e-05 0)
(-2.33086e-05 5.51482e-05 0)
(-2.1276e-08 7.27676e-07 0)
(-2.25453e-07 2.17943e-06 0)
(-6.44812e-07 3.66169e-06 0)
(-1.25755e-06 5.22344e-06 0)
(-2.04137e-06 6.90303e-06 0)
(-2.99117e-06 8.73605e-06 0)
(-4.09901e-06 1.07602e-05 0)
(-5.35785e-06 1.29987e-05 0)
(-6.76053e-06 1.5497e-05 0)
(-8.2835e-06 1.82852e-05 0)
(-9.92343e-06 2.13713e-05 0)
(-1.1652e-05 2.4829e-05 0)
(-1.34519e-05 2.8661e-05 0)
(-1.52098e-05 3.29147e-05 0)
(-1.68354e-05 3.76772e-05 0)
(-1.80201e-05 4.33073e-05 0)
(-1.90495e-05 4.9458e-05 0)
(-1.98186e-05 5.60846e-05 0)
(-1.78665e-08 7.89768e-07 0)
(-1.86943e-07 2.36598e-06 0)
(-5.32219e-07 3.9703e-06 0)
(-1.0358e-06 5.65582e-06 0)
(-1.67715e-06 7.46266e-06 0)
(-2.44796e-06 9.42677e-06 0)
(-3.34059e-06 1.15834e-05 0)
(-4.34521e-06 1.39613e-05 0)
(-5.45156e-06 1.6594e-05 0)
(-6.64205e-06 1.95114e-05 0)
(-7.9015e-06 2.27346e-05 0)
(-9.20984e-06 2.63029e-05 0)
(-1.05432e-05 3.02318e-05 0)
(-1.1854e-05 3.45726e-05 0)
(-1.31202e-05 3.93041e-05 0)
(-1.42587e-05 4.44581e-05 0)
(-1.51328e-05 5.01087e-05 0)
(-1.5656e-05 5.62504e-05 0)
(-1.34056e-08 8.49142e-07 0)
(-1.37361e-07 2.54421e-06 0)
(-3.89556e-07 4.26479e-06 0)
(-7.55267e-07 6.06635e-06 0)
(-1.21669e-06 7.98992e-06 0)
(-1.76337e-06 1.00711e-05 0)
(-2.38667e-06 1.23429e-05 0)
(-3.07435e-06 1.48343e-05 0)
(-3.81229e-06 1.7573e-05 0)
(-4.58276e-06 2.05846e-05 0)
(-5.36649e-06 2.38897e-05 0)
(-6.13987e-06 2.75112e-05 0)
(-6.8747e-06 3.14657e-05 0)
(-7.53435e-06 3.57726e-05 0)
(-8.07953e-06 4.04338e-05 0)
(-8.45887e-06 4.5477e-05 0)
(-8.60432e-06 5.08966e-05 0)
(-8.47154e-06 5.66576e-05 0)
(-7.51899e-09 8.98129e-07 0)
(-7.57491e-08 2.68838e-06 0)
(-2.12345e-07 4.49987e-06 0)
(-4.06859e-07 6.38887e-06 0)
(-6.45834e-07 8.39652e-06 0)
(-9.18857e-07 1.05565e-05 0)
(-1.21538e-06 1.28988e-05 0)
(-1.52204e-06 1.54493e-05 0)
(-1.8227e-06 1.82307e-05 0)
(-2.09896e-06 2.12618e-05 0)
(-2.33029e-06 2.45576e-05 0)
(-2.49349e-06 2.81302e-05 0)
(-2.56164e-06 3.19868e-05 0)
(-2.50534e-06 3.61299e-05 0)
(-2.29172e-06 4.05547e-05 0)
(-1.88814e-06 4.5251e-05 0)
(-1.25441e-06 5.01972e-05 0)
(-3.66535e-07 5.53698e-05 0)
(-1.45417e-09 9.19014e-07 0)
(-4.51773e-09 2.7513e-06 0)
(-2.90538e-09 4.60118e-06 0)
(7.68136e-09 6.52162e-06 0)
(3.36118e-08 8.55122e-06 0)
(8.33999e-08 1.07201e-05 0)
(1.67707e-07 1.30541e-05 0)
(2.99611e-07 1.55739e-05 0)
(4.93756e-07 1.82959e-05 0)
(7.66763e-07 2.1232e-05 0)
(1.1372e-06 2.43896e-05 0)
(1.62535e-06 2.77718e-05 0)
(2.25212e-06 3.13768e-05 0)
(3.03905e-06 3.51978e-05 0)
(4.0081e-06 3.92226e-05 0)
(5.17963e-06 4.34334e-05 0)
(6.57402e-06 4.78072e-05 0)
(8.20155e-06 5.23247e-05 0)
(8.87296e-09 8.8726e-07 0)
(8.81504e-08 2.65788e-06 0)
(2.50639e-07 4.44269e-06 0)
(4.94903e-07 6.28821e-06 0)
(8.18684e-07 8.22745e-06 0)
(1.22744e-06 1.02852e-05 0)
(1.72951e-06 1.24814e-05 0)
(2.33414e-06 1.48306e-05 0)
(3.05236e-06 1.73428e-05 0)
(3.89598e-06 2.00234e-05 0)
(4.87781e-06 2.28734e-05 0)
(6.01051e-06 2.58897e-05 0)
(7.30635e-06 2.90649e-05 0)
(8.77603e-06 3.2388e-05 0)
(1.043e-05 3.58437e-05 0)
(1.22749e-05 3.94134e-05 0)
(1.43165e-05 4.30752e-05 0)
(1.65565e-05 4.68148e-05 0)
(1.63057e-08 8.11014e-07 0)
(1.61094e-07 2.42477e-06 0)
(4.5506e-07 4.04617e-06 0)
(8.90248e-07 5.71667e-06 0)
(1.45513e-06 7.46439e-06 0)
(2.15081e-06 9.30906e-06 0)
(2.98135e-06 1.12654e-05 0)
(3.95199e-06 1.33434e-05 0)
(5.06879e-06 1.55483e-05 0)
(6.33834e-06 1.78815e-05 0)
(7.76803e-06 2.03406e-05 0)
(9.3643e-06 2.29203e-05 0)
(1.11329e-05 2.56119e-05 0)
(1.30773e-05 2.84043e-05 0)
(1.51994e-05 3.12839e-05 0)
(1.74994e-05 3.4235e-05 0)
(1.99739e-05 3.72401e-05 0)
(2.26208e-05 4.02896e-05 0)
(2.06207e-08 7.18177e-07 0)
(2.08877e-07 2.14655e-06 0)
(5.93375e-07 3.5819e-06 0)
(1.15998e-06 5.06002e-06 0)
(1.88991e-06 6.60426e-06 0)
(2.77927e-06 8.23047e-06 0)
(3.82959e-06 9.9494e-06 0)
(5.04189e-06 1.17675e-05 0)
(6.41844e-06 1.3687e-05 0)
(7.9621e-06 1.5707e-05 0)
(9.67594e-06 1.78236e-05 0)
(1.1563e-05 2.00307e-05 0)
(1.36243e-05 2.23199e-05 0)
(1.58588e-05 2.46812e-05 0)
(1.82645e-05 2.71028e-05 0)
(2.08365e-05 2.95723e-05 0)
(2.35667e-05 3.20755e-05 0)
(2.64515e-05 3.46061e-05 0)
(2.40645e-08 6.1883e-07 0)
(2.46475e-07 1.85036e-06 0)
(7.00825e-07 3.09011e-06 0)
(1.36694e-06 4.36825e-06 0)
(2.22034e-06 5.70393e-06 0)
(3.25332e-06 7.10999e-06 0)
(4.4636e-06 8.59394e-06 0)
(5.84943e-06 1.01593e-05 0)
(7.40948e-06 1.18059e-05 0)
(9.14378e-06 1.3531e-05 0)
(1.1053e-05 1.533e-05 0)
(1.31369e-05 1.71964e-05 0)
(1.53943e-05 1.91225e-05 0)
(1.78216e-05 2.11001e-05 0)
(2.04139e-05 2.312e-05 0)
(2.31641e-05 2.51722e-05 0)
(2.60618e-05 2.72463e-05 0)
(2.91019e-05 2.93381e-05 0)
(2.67977e-08 5.1945e-07 0)
(2.76124e-07 1.55473e-06 0)
(7.84293e-07 2.60115e-06 0)
(1.52598e-06 3.68331e-06 0)
(2.47163e-06 4.81761e-06 0)
(3.6098e-06 6.01422e-06 0)
(4.93471e-06 7.27768e-06 0)
(6.44128e-06 8.60891e-06 0)
(8.12577e-06 1.00059e-05 0)
(9.98608e-06 1.14644e-05 0)
(1.20208e-05 1.29791e-05 0)
(1.42286e-05 1.45432e-05 0)
(1.66067e-05 1.61501e-05 0)
(1.9151e-05 1.77933e-05 0)
(2.18547e-05 1.94657e-05 0)
(2.47092e-05 2.11602e-05 0)
(2.77023e-05 2.28694e-05 0)
(3.08291e-05 2.45915e-05 0)
(2.90402e-08 4.23666e-07 0)
(3.00471e-07 1.27194e-06 0)
(8.50072e-07 2.13559e-06 0)
(1.64743e-06 3.03326e-06 0)
(2.65877e-06 3.9808e-06 0)
(3.86726e-06 4.98711e-06 0)
(5.26458e-06 6.05248e-06 0)
(6.84303e-06 7.17458e-06 0)
(8.59781e-06 8.34934e-06 0)
(1.05251e-05 9.57119e-06 0)
(1.26226e-05 1.08337e-05 0)
(1.48882e-05 1.21296e-05 0)
(1.73198e-05 1.34538e-05 0)
(1.99125e-05 1.48021e-05 0)
(2.2659e-05 1.61693e-05 0)
(2.55514e-05 1.75505e-05 0)
(2.85769e-05 1.89413e-05 0)
(3.17316e-05 2.03415e-05 0)
(3.14328e-08 3.32602e-07 0)
(3.20182e-07 1.00809e-06 0)
(8.96954e-07 1.70356e-06 0)
(1.72693e-06 2.43065e-06 0)
(2.77097e-06 3.20361e-06 0)
(4.00887e-06 4.03489e-06 0)
(5.43007e-06 4.92307e-06 0)
(7.02771e-06 5.86331e-06 0)
(8.79601e-06 6.84984e-06 0)
(1.0731e-05 7.87527e-06 0)
(1.28289e-05 8.93163e-06 0)
(1.50894e-05 1.00093e-05 0)
(1.75108e-05 1.11036e-05 0)
(2.00879e-05 1.22132e-05 0)
(2.2813e-05 1.33345e-05 0)
(2.56797e-05 1.44642e-05 0)
(2.86751e-05 1.56005e-05 0)
(3.17971e-05 1.6744e-05 0)
(3.39973e-08 2.46048e-07 0)
(3.28758e-07 7.64186e-07 0)
(9.06797e-07 1.31215e-06 0)
(1.73109e-06 1.89933e-06 0)
(2.7527e-06 2.54993e-06 0)
(3.97192e-06 3.25133e-06 0)
(5.37663e-06 4.00078e-06 0)
(6.95677e-06 4.79461e-06 0)
(8.703e-06 5.6261e-06 0)
(1.06082e-05 6.48629e-06 0)
(1.26658e-05 7.36591e-06 0)
(1.48753e-05 8.25448e-06 0)
(1.7229e-05 9.1487e-06 0)
(1.97304e-05 1.00448e-05 0)
(2.23731e-05 1.09407e-05 0)
(2.51523e-05 1.18362e-05 0)
(2.80557e-05 1.27317e-05 0)
(3.1088e-05 1.36291e-05 0)
(3.0164e-08 1.75801e-07 0)
(3.04034e-07 5.69138e-07 0)
(8.56202e-07 1.0029e-06 0)
(1.64155e-06 1.47711e-06 0)
(2.59361e-06 2.0019e-06 0)
(3.75836e-06 2.58615e-06 0)
(5.10872e-06 3.21031e-06 0)
(6.61961e-06 3.87222e-06 0)
(8.27065e-06 4.56587e-06 0)
(1.00476e-05 5.28185e-06 0)
(1.19426e-05 6.01249e-06 0)
(1.39534e-05 6.73986e-06 0)
(1.60588e-05 7.47001e-06 0)
(1.82923e-05 8.20395e-06 0)
(2.06607e-05 8.92903e-06 0)
(2.31666e-05 9.64924e-06 0)
(2.57995e-05 1.03682e-05 0)
(2.85785e-05 1.10964e-05 0)
(5.41426e-09 1.28425e-07 0)
(2.278e-07 4.11247e-07 0)
(7.13466e-07 7.36263e-07 0)
(1.39421e-06 1.11889e-06 0)
(2.26333e-06 1.54278e-06 0)
(3.22537e-06 2.01631e-06 0)
(4.27046e-06 2.54233e-06 0)
(5.40287e-06 3.11955e-06 0)
(6.6415e-06 3.73729e-06 0)
(8.01657e-06 4.37957e-06 0)
(9.57582e-06 5.02939e-06 0)
(1.13557e-05 5.67514e-06 0)
(1.34387e-05 6.29497e-06 0)
(1.58241e-05 6.88448e-06 0)
(1.85328e-05 7.44524e-06 0)
(2.15781e-05 7.98432e-06 0)
(2.49595e-05 8.50921e-06 0)
(2.86657e-05 9.03706e-06 0)
(-3.22935e-08 1.10909e-07 0)
(-5.24726e-09 3.29974e-07 0)
(2.27573e-07 5.79615e-07 0)
(7.28234e-07 8.7597e-07 0)
(1.57162e-06 1.222e-06 0)
(2.81677e-06 1.62053e-06 0)
(4.54572e-06 2.06178e-06 0)
(6.82379e-06 2.52789e-06 0)
(9.69556e-06 2.9984e-06 0)
(1.31834e-05 3.45171e-06 0)
(1.72879e-05 3.86924e-06 0)
(2.19861e-05 4.23131e-06 0)
(2.72344e-05 4.52939e-06 0)
(3.29811e-05 4.76656e-06 0)
(3.91715e-05 4.94651e-06 0)
(4.5751e-05 5.07651e-06 0)
(5.26624e-05 5.166e-06 0)
(5.98862e-05 5.23247e-06 0)
(1.09518e-07 7.30499e-08 0)
(8.13668e-07 2.02774e-07 0)
(2.20727e-06 3.43889e-07 0)
(4.3196e-06 5.03464e-07 0)
(7.13608e-06 6.72718e-07 0)
(1.06627e-05 8.50967e-07 0)
(1.48921e-05 1.02865e-06 0)
(1.97772e-05 1.19168e-06 0)
(2.52331e-05 1.32834e-06 0)
(3.11461e-05 1.43016e-06 0)
(3.73834e-05 1.49214e-06 0)
(4.38015e-05 1.51256e-06 0)
(5.02565e-05 1.49511e-06 0)
(5.66269e-05 1.44884e-06 0)
(6.28186e-05 1.38133e-06 0)
(6.87635e-05 1.30253e-06 0)
(7.44262e-05 1.21967e-06 0)
(7.97558e-05 1.13848e-06 0)
(-6.90008e-05 7.75407e-05 -1.8025e-24)
(-9.56006e-05 0.00013213 1.5913e-24)
(-0.00022621 0.000165461 0)
(-0.000363061 0.000179216 0)
(-0.000502221 0.000179196 0)
(-0.000641719 0.000170477 -1.59777e-24)
(-0.000778176 0.000158791 0)
(-0.000909767 0.000152529 0)
(-0.0010383 0.000165829 0)
(-0.00117522 0.000224084 0)
(-0.00135206 0.000375161 1.67248e-24)
(-0.00156108 0.000695684 0)
(-0.00186665 0.000698419 0)
(-0.00218561 0.000369485 0)
(-0.00238246 0.000195021 0)
(-0.00254669 0.000152021 5.81737e-24)
(-0.00270617 0.00014921 0)
(-0.00286072 0.000145453 0)
(-0.00300731 0.000134178 0)
(-0.0031443 0.000118685 0)
(-0.00327096 0.000102003 0)
(-0.00338708 8.53851e-05 0)
(-0.0034926 6.91336e-05 0)
(-0.00358759 5.32896e-05 4.85421e-24)
(-0.0036721 3.78753e-05 -4.74794e-24)
(-0.00374623 2.29227e-05 4.6447e-24)
(-0.00381011 8.45858e-06 4.54465e-24)
(-0.00386386 -5.50064e-06 0)
(-0.00390763 -1.89454e-05 0)
(-0.00394157 -3.18683e-05 -4.26437e-24)
(-0.00396587 -4.42605e-05 -4.17759e-24)
(-0.00398068 -5.61112e-05 0)
(-0.00398622 -6.74062e-05 0)
(-0.00398268 -7.81289e-05 -3.93652e-24)
(-0.00397029 -8.826e-05 0)
(-0.00394933 -9.77784e-05 0)
(-0.00392005 -0.000106662 3.72216e-24)
(-0.00388277 -0.000114887 0)
(-0.00383783 -0.00012243 3.59238e-24)
(-0.00378559 -0.00012927 7.06202e-24)
(-0.00372645 -0.000135384 0)
(-0.00366083 -0.000140754 0)
(-0.0035892 -0.000145363 0)
(-0.00351205 -0.000149197 0)
(-0.00342989 -0.000152247 0)
(-0.00334327 -0.000154509 6.40681e-24)
(-0.00325274 -0.000155984 6.30892e-24)
(-0.0031589 -0.000156678 6.21373e-24)
(-0.00306233 -0.000156605 0)
(-0.00296365 -0.000155784 -6.03093e-24)
(-0.00286346 -0.000154241 0)
(-0.00276237 -0.000152007 5.85752e-24)
(-0.00266098 -0.000149116 5.77417e-24)
(-0.00255988 -0.000145608 0)
(-0.00245964 -0.000141525 0)
(-0.00236081 -0.000136915 0)
(-0.00226393 -0.000131827 5.46264e-24)
(-0.00216948 -0.000126314 0)
(-0.00207794 -0.000120434 0)
(-0.00198971 -0.000114249 0)
(-0.00190519 -0.000107826 0)
(-0.00182469 -0.000101237 0)
(-0.00174847 -9.45557e-05 0)
(-0.00167674 -8.78559e-05 0)
(-0.00160963 -8.12094e-05 0)
(-0.00154722 -7.46825e-05 -4.89667e-24)
(-0.00148951 -6.83344e-05 0)
(-0.00143646 -6.22162e-05 0)
(-0.00138798 -5.63702e-05 4.75055e-24)
(-0.00134393 -5.08304e-05 4.70607e-24)
(-0.00130413 -4.56228e-05 0)
(-0.00126837 -4.07664e-05 -4.62274e-24)
(-0.00123641 -3.62736e-05 4.5836e-24)
(-0.00120801 -3.21517e-05 0)
(-0.0011829 -2.8403e-05 -4.50961e-24)
(-0.00116078 -2.5026e-05 0)
(-0.00114138 -2.20161e-05 0)
(-0.00112439 -1.93656e-05 4.40705e-24)
(-0.00110952 -1.7065e-05 0)
(-0.00109648 -1.51027e-05 -4.34258e-24)
(-0.00108496 -1.34656e-05 0)
(-0.00107469 -1.21387e-05 4.28002e-24)
(-0.00106537 -1.11055e-05 4.24922e-24)
(-0.00105673 -1.03479e-05 4.21863e-24)
(-0.00104851 -9.84589e-06 8.37643e-24)
(-0.00104047 -9.57768e-06 -8.31593e-24)
(-0.00103236 -9.51966e-06 0)
(-0.00102398 -9.6463e-06 0)
(-0.00101514 -9.92985e-06 0)
(-0.00100569 -1.03395e-05 -8.07885e-24)
(-0.00099549 -1.08402e-05 -8.02178e-24)
(-0.000984455 -1.13906e-05 7.96626e-24)
(-0.000972544 -1.19432e-05 0)
(-0.000959774 -1.24452e-05 -7.86173e-24)
(-0.000946223 -1.28441e-05 -7.81391e-24)
(-0.000932033 -1.3092e-05 -7.76996e-24)
(-0.000917404 -1.31496e-05 0)
(-0.000902582 -1.29878e-05 0)
(-0.000887851 -1.25877e-05 0)
(-0.000873522 -1.1942e-05 -7.64753e-24)
(-0.000859917 -1.10555e-05 0)
(-0.000847356 -9.94553e-06 0)
(-0.00083614 -8.64115e-06 7.63021e-24)
(-0.000826536 -7.18154e-06 0)
(-0.000818765 -5.61361e-06 0)
(-0.000812986 -3.98906e-06 7.68641e-24)
(-0.000809295 -2.36094e-06 0)
(-0.000807717 -7.80477e-07 0)
(-0.000808201 7.05027e-07 -7.80593e-24)
(-0.000810628 2.05214e-06 -7.85491e-24)
(-0.000814813 3.21741e-06 0)
(-0.00082049 4.1401e-06 7.95713e-24)
(-0.000827261 4.76039e-06 0)
(-0.000834921 5.26763e-06 -8.05085e-24)
(-0.000843863 6.05969e-06 0)
(-0.000853179 6.11342e-06 -8.12801e-24)
(-0.000861173 4.69617e-06 -8.14607e-24)
(-0.000868705 3.65319e-06 0)
(-0.000877119 2.62442e-06 0)
(-0.000884523 2.91221e-06 0)
(-0.000891124 3.22912e-06 0)
(-0.000897475 3.56399e-06 0)
(-0.000903903 4.05931e-06 0)
(-0.000910816 4.80234e-06 0)
(-0.000918699 5.84057e-06 -8.07083e-24)
(-0.000928078 7.18834e-06 8.05355e-24)
(-0.000939486 8.82716e-06 0)
(-0.000953417 1.07069e-05 0)
(-0.000970275 1.2749e-05 0)
(-0.000990334 1.48518e-05 0)
(-0.0010137 1.68979e-05 1.62501e-23)
(-0.00104026 1.87647e-05 0)
(-0.00106973 2.03352e-05 -1.64849e-23)
(-0.0011016 2.15106e-05 1.66284e-23)
(-0.00113519 2.222e-05 0)
(-0.00116968 2.24221e-05 0)
(-0.00120418 2.20698e-05 0)
(-0.00123787 2.10995e-05 -1.71864e-23)
(-0.00127009 1.97856e-05 -1.72784e-23)
(-0.00130033 1.84258e-05 0)
(-0.00132834 1.72182e-05 -1.73646e-23)
(-0.00135428 1.63775e-05 -1.73581e-23)
(-0.00137874 1.61348e-05 1.73245e-23)
(-0.00140277 1.67147e-05 0)
(-0.0014279 1.83245e-05 0)
(-0.00145611 2.11389e-05 1.7173e-23)
(-0.00148976 2.52865e-05 0)
(-0.00153154 3.0838e-05 0)
(-0.00158429 3.77991e-05 0)
(-0.00165096 4.61062e-05 0)
(-0.00173437 5.56251e-05 -1.78126e-23)
(-0.0018371 6.61515e-05 -1.82434e-23)
(-0.0019613 7.74143e-05 0)
(-0.00210857 8.90816e-05 -1.95051e-23)
(-0.00227972 0.000100771 0)
(-0.00247473 0.00011206 0)
(-0.00269256 0.000122511 -2.23533e-23)
(-0.00293115 0.000131681 0)
(-0.00318735 0.000139153 -2.46875e-23)
(-0.00345698 0.00014455 0)
(-0.00373489 0.000147557 0)
(-0.00401513 0.000147944 -2.81618e-23)
(-0.00429114 0.000145586 0)
(-0.00455597 0.00014047 -2.99391e-23)
(-0.00480257 0.000132701 0)
(-0.00502409 0.000122507 0)
(-0.00521413 0.000110263 0)
(-0.00536718 9.65477e-05 3.06313e-23)
(-0.00547902 8.22115e-05 0)
(-0.00554735 6.84355e-05 -2.90172e-23)
(-0.00557231 5.66848e-05 0)
(-0.00555648 4.83737e-05 0)
(-0.00550284 4.37113e-05 0)
(-0.00540494 3.30926e-05 0)
(-0.00526356 -5.87572e-05 0)
(-0.00461248 -0.000419055 0)
(-0.00381179 -0.000472902 0)
(-0.00363131 -6.44084e-05 3.98645e-23)
(-0.00339168 -0.000120047 0)
(-0.00293131 -0.000184021 0)
(-0.000132317 0.000225647 9.95183e-24)
(-0.000199075 0.000325843 -7.57262e-24)
(-0.000345465 0.000381068 0)
(-0.000505952 0.000410005 3.05386e-24)
(-0.00066713 0.000422075 0)
(-0.000837197 0.000423121 1.54854e-24)
(-0.00101759 0.000417996 -2.98155e-24)
(-0.00120818 0.000412011 -2.95714e-24)
(-0.00140861 0.000411578 0)
(-0.00161668 0.000424605 -2.87678e-24)
(-0.00182082 0.000461586 -1.60509e-24)
(-0.00198043 0.00053508 0)
(-0.00210848 0.000617482 0)
(-0.00226806 0.000611613 0)
(-0.00247017 0.000562514 0)
(-0.00267778 0.000514746 -1.8253e-24)
(-0.00287002 0.000477718 0)
(-0.00304466 0.000446843 3.48644e-24)
(-0.00320479 0.000417767 0)
(-0.00335268 0.000388872 0)
(-0.00348918 0.000359998 -3.61564e-24)
(-0.00361452 0.000331353 0)
(-0.00372877 0.000303121 3.71466e-24)
(-0.00383196 0.000275409 -1.95015e-24)
(-0.00392415 0.000248277 1.97125e-24)
(-0.00400539 0.00022176 -1.99328e-24)
(-0.00407574 0.000195879 -2.0161e-24)
(-0.00413529 0.00017065 0)
(-0.00418412 0.000146084 0)
(-0.00422234 0.000122192 2.0878e-24)
(-0.00425009 9.89895e-05 -2.06686e-24)
(-0.00426751 7.64944e-05 0)
(-0.00427479 5.47311e-05 0)
(-0.00427212 3.3729e-05 2.18483e-24)
(-0.00425976 1.35229e-05 0)
(-0.00423795 -5.84799e-06 0)
(-0.004207 -2.43406e-05 -2.25264e-24)
(-0.00416726 -4.19093e-05 0)
(-0.00411908 -5.85064e-05 2.32593e-24)
(-0.00406288 -7.40839e-05 -4.62249e-24)
(-0.00399911 -8.85942e-05 0)
(-0.00392826 -0.000101992 0)
(-0.00385083 -0.000114233 -9.54531e-24)
(-0.00376739 -0.000125281 -9.60238e-24)
(-0.00367851 -0.000135101 -9.65085e-24)
(-0.00358482 -0.000143668 4.91654e-24)
(-0.00348695 -0.000150964 -4.78656e-24)
(-0.00338556 -0.00015698 -1.45385e-23)
(-0.00328131 -0.000161719 9.75612e-24)
(-0.00317489 -0.000165191 4.80167e-24)
(-0.00306698 -0.00016742 0)
(-0.00295825 -0.000168437 -4.79354e-24)
(-0.00284936 -0.000168285 4.93949e-24)
(-0.00274096 -0.000167013 0)
(-0.00263368 -0.000164679 0)
(-0.00252811 -0.000161347 0)
(-0.00242482 -0.000157091 -4.71884e-24)
(-0.00232434 -0.000151991 0)
(-0.00222715 -0.000146133 9.47039e-24)
(-0.00213369 -0.000139616 0)
(-0.00204435 -0.000132542 9.35021e-24)
(-0.00195945 -0.000125024 0)
(-0.00187923 -0.000117178 -9.2212e-24)
(-0.0018039 -0.000109121 0)
(-0.00173356 -0.000100972 9.08826e-24)
(-0.00166826 -9.28382e-05 -4.54775e-24)
(-0.00160799 -8.4821e-05 0)
(-0.00155266 -7.70086e-05 -8.89005e-24)
(-0.00150215 -6.94767e-05 -4.38597e-24)
(-0.00145629 -6.22883e-05 -4.35737e-24)
(-0.00141487 -5.5494e-05 0)
(-0.00137764 -4.91327e-05 -4.33884e-24)
(-0.00134435 -4.32336e-05 -4.27445e-24)
(-0.00131471 -3.78163e-05 0)
(-0.00128842 -3.2893e-05 4.22165e-24)
(-0.00126519 -2.84689e-05 -8.41346e-24)
(-0.00124471 -2.45439e-05 0)
(-0.00122666 -2.11129e-05 -4.14574e-24)
(-0.00121073 -1.81671e-05 0)
(-0.00119662 -1.56944e-05 1.23029e-23)
(-0.00118403 -1.36796e-05 0)
(-0.00117264 -1.21044e-05 -1.21563e-23)
(-0.00116219 -1.09477e-05 -4.02489e-24)
(-0.00115238 -1.01849e-05 4.00988e-24)
(-0.00114296 -9.78813e-06 7.9717e-24)
(-0.00113368 -9.7263e-06 -7.92409e-24)
(-0.00112431 -9.96485e-06 0)
(-0.00111464 -1.04657e-05 0)
(-0.0011045 -1.11871e-05 0)
(-0.00109373 -1.20821e-05 2.31793e-23)
(-0.00108222 -1.30977e-05 7.67544e-24)
(-0.00106989 -1.41725e-05 -7.63136e-24)
(-0.00105674 -1.52364e-05 0)
(-0.00104279 -1.62124e-05 -7.56538e-24)
(-0.00102815 -1.70228e-05 7.51078e-24)
(-0.001013 -1.75965e-05 7.47644e-24)
(-0.000997552 -1.78741e-05 0)
(-0.000982086 -1.78107e-05 0)
(-0.000966902 -1.73769e-05 0)
(-0.000952323 -1.65595e-05 7.3866e-24)
(-0.000938675 -1.53631e-05 0)
(-0.000926275 -1.38103e-05 -1.47572e-23)
(-0.000915417 -1.19413e-05 -2.21562e-23)
(-0.000906348 -9.81194e-06 1.47969e-23)
(-0.000899266 -7.49062e-06 0)
(-0.000894303 -5.05474e-06 7.44346e-24)
(-0.000891518 -2.58667e-06 0)
(-0.000890901 -1.70157e-07 1.50553e-23)
(-0.000892362 2.11249e-06 -7.56858e-24)
(-0.000895736 4.18259e-06 -7.61999e-24)
(-0.000900806 5.96984e-06 0)
(-0.000907328 7.41602e-06 -2.31999e-23)
(-0.000914882 8.53162e-06 1.55654e-23)
(-0.000922928 9.80379e-06 7.83043e-24)
(-0.000932131 1.17752e-05 0)
(-0.000942297 1.0088e-05 7.9077e-24)
(-0.000950815 1.07001e-05 2.37956e-23)
(-0.000958193 9.35861e-06 0)
(-0.000965194 7.94744e-06 1.59048e-23)
(-0.000972235 7.20512e-06 1.5897e-23)
(-0.000979198 6.66765e-06 1.58716e-23)
(-0.000985905 6.38217e-06 0)
(-0.000992667 6.43653e-06 0)
(-0.000999913 6.91515e-06 0)
(-0.00100815 7.87885e-06 -7.82757e-24)
(-0.00101794 9.35408e-06 -7.82801e-24)
(-0.00102981 1.13255e-05 0)
(-0.00104429 1.37323e-05 -1.55885e-23)
(-0.00106176 1.6469e-05 -1.56027e-23)
(-0.00108249 1.93899e-05 0)
(-0.00110657 2.23189e-05 -1.57681e-23)
(-0.00113388 2.50623e-05 -3.16187e-23)
(-0.00116408 2.74258e-05 1.59821e-23)
(-0.00119663 2.92326e-05 1.6011e-23)
(-0.00123082 3.03424e-05 0)
(-0.00126583 3.067e-05 0)
(-0.00130081 3.01843e-05 0)
(-0.00133491 2.88863e-05 1.66218e-23)
(-0.00136736 2.69786e-05 -1.66591e-23)
(-0.00139773 2.47432e-05 -3.34696e-23)
(-0.00142586 2.24834e-05 1.67701e-23)
(-0.00145197 2.05442e-05 -1.67209e-23)
(-0.00147672 1.9295e-05 -1.67176e-23)
(-0.00150125 1.91176e-05 0)
(-0.00152715 2.03754e-05 0)
(-0.00155646 2.33866e-05 1.64318e-23)
(-0.00159159 2.83999e-05 0)
(-0.00163523 3.55729e-05 0)
(-0.00169026 4.49554e-05 -3.30774e-23)
(-0.00175955 5.6478e-05 0)
(-0.00184588 6.99453e-05 -1.67644e-23)
(-0.00195171 8.50338e-05 1.75713e-23)
(-0.00207907 0.000101296 0)
(-0.00222935 0.000118169 -1.82045e-23)
(-0.00240317 0.000134992 0)
(-0.00260026 0.000151029 0)
(-0.00281935 0.000165499 2.15163e-23)
(-0.00305811 0.000177609 -4.45098e-23)
(-0.00331312 0.000186598 2.37619e-23)
(-0.00357996 0.000191772 0)
(-0.00385326 0.000192548 0)
(-0.00412687 0.000188488 -2.64843e-23)
(-0.00439406 0.000179328 0)
(-0.00464776 0.000165 -2.83699e-23)
(-0.00488082 0.000145635 0)
(-0.00508631 0.000121569 0)
(-0.00525776 9.33468e-05 0)
(-0.00538948 6.17505e-05 -2.97674e-23)
(-0.00547685 2.78226e-05 0)
(-0.0055165 -7.18338e-06 2.85268e-23)
(-0.00550635 -4.20969e-05 0)
(-0.00544464 -7.68606e-05 0)
(-0.00532761 -0.000115219 -4.92087e-23)
(-0.00513369 -0.000176222 4.49796e-23)
(-0.00486553 -0.000307768 0)
(-0.00442364 -0.000423232 0)
(-0.00418185 -0.000196716 0)
(-0.00389796 -0.000122682 -1.12481e-22)
(-0.00356187 -0.00019849 0)
(-0.00318735 -0.000269558 6.37147e-23)
(-0.000146641 0.000627419 -5.66235e-27)
(-0.000254874 0.000703041 8.81896e-24)
(-0.000418191 0.000752333 0)
(-0.000602032 0.000792258 -6.0964e-24)
(-0.000780787 0.000821488 0)
(-0.000965227 0.000842217 0)
(-0.00115722 0.000858565 -4.5725e-26)
(-0.00135574 0.000875587 2.91476e-24)
(-0.00155904 0.000898331 2.94254e-24)
(-0.00176388 0.000930491 2.83584e-24)
(-0.00196336 0.000971961 0)
(-0.00214411 0.00101268 0)
(-0.00230117 0.00102006 -2.83944e-24)
(-0.00245304 0.000978351 -5.69843e-24)
(-0.00261556 0.000914076 5.7471e-24)
(-0.00278389 0.000847804 0)
(-0.00294991 0.000785468 5.87281e-24)
(-0.00310918 0.000726479 -2.97046e-24)
(-0.00326 0.00066941 0)
(-0.00340167 0.00061349 6.13389e-24)
(-0.00353377 0.000558487 3.13895e-24)
(-0.00365598 0.000504394 -6.35133e-24)
(-0.00376802 0.000451269 -3.26686e-24)
(-0.00386967 0.000399174 0)
(-0.00396079 0.000348172 6.72666e-24)
(-0.00404126 0.000298318 6.86182e-24)
(-0.00411102 0.000249664 0)
(-0.00417005 0.000202259 7.14246e-24)
(-0.00421835 0.000156153 0)
(-0.00425597 0.000111396 7.43145e-24)
(-0.00428301 6.8045e-05 3.84972e-24)
(-0.00429959 2.61619e-05 0)
(-0.00430586 -1.41838e-05 0)
(-0.00430202 -5.29163e-05 0)
(-0.00428832 -8.99533e-05 0)
(-0.00426501 -0.000125208 0)
(-0.00423242 -0.000158589 0)
(-0.00419091 -0.000190003 8.53595e-24)
(-0.00414087 -0.00021936 -1.30556e-23)
(-0.00408273 -0.000246567 0)
(-0.00401698 -0.000271538 0)
(-0.00394413 -0.000294194 0)
(-0.00386473 -0.000314462 1.49174e-25)
(-0.00377937 -0.00033228 9.28415e-24)
(-0.00368866 -0.000347602 1.85592e-23)
(-0.00359326 -0.000360395 -1.86796e-23)
(-0.00349382 -0.000370643 -9.31799e-24)
(-0.00339104 -0.000378353 9.50214e-24)