/*--------------------------------*- C++ -*----------------------------------*\
| =========                 |                                                 |
| \\      /  F ield         | OpenFOAM: The Open Source CFD Toolbox           |
|  \\    /   O peration     | Version:  2112                                  |
|   \\  /    A nd           | Website:  www.openfoam.com                      |
|    \\/     M anipulation  |                                                 |
\*---------------------------------------------------------------------------*/
FoamFile
{
    version     2.0;
    format      ascii;
    arch        "LSB;label=32;scalar=64";
    class       volScalarField;
    location    "0.57";
    object      kU_0;
}
// * * * * * * * * * * * * * * * * * * * * * * * * * * * * * * * * * * * * * //

dimensions      [0 2 -2 0 0 0 0];

internalField   nonuniform List<scalar> 
12225
(
0.399904
0.622189
0.790987
0.936975
1.07976
1.22963
1.3921
1.57073
1.76838
1.9874
2.2296
2.49608
2.78713
3.1022
3.43992
3.7989
4.1761
4.54675
0.124043
0.14379
0.166247
0.191231
0.218954
0.249912
0.284643
0.323374
0.365913
0.411713
0.459956
0.509701
0.560059
0.610374
0.660436
0.710952
0.766771
0.845489
0.113243
0.115507
0.118641
0.121957
0.12469
0.127114
0.129561
0.132312
0.135536
0.139299
0.143598
0.148417
0.153769
0.159719
0.1664
0.17407
0.183104
0.193375
0.112487
0.112647
0.113063
0.113709
0.114519
0.115425
0.116355
0.117249
0.118056
0.118581
0.118818
0.118804
0.118584
0.118218
0.117771
0.117312
0.116916
0.116592
0.112423
0.112375
0.11239
0.112462
0.112595
0.112783
0.113019
0.113294
0.113592
0.113889
0.114164
0.114401
0.114593
0.114735
0.114827
0.114868
0.114863
0.114833
0.11239
0.112301
0.112236
0.112196
0.112195
0.112234
0.112297
0.112378
0.112474
0.112581
0.112692
0.112804
0.112913
0.113018
0.113119
0.113219
0.113322
0.113433
0.112361
0.112241
0.112146
0.112078
0.112045
0.112045
0.112069
0.112103
0.112147
0.112197
0.112251
0.112308
0.112366
0.112426
0.11249
0.112561
0.112639
0.112727
0.112341
0.1122
0.112085
0.111995
0.111939
0.111915
0.111918
0.111937
0.111963
0.111995
0.112031
0.11207
0.112112
0.112156
0.112205
0.11226
0.112322
0.112393
0.112327
0.112172
0.112042
0.111937
0.11186
0.111814
0.111794
0.111795
0.11181
0.111831
0.111856
0.111886
0.111919
0.111956
0.111998
0.112045
0.1121
0.11216
0.112316
0.112151
0.112009
0.111892
0.1118
0.111736
0.111696
0.111677
0.111674
0.111684
0.111701
0.111722
0.111748
0.111778
0.111814
0.111856
0.111904
0.111957
0.112309
0.112135
0.111984
0.111856
0.111753
0.111673
0.111616
0.111579
0.111559
0.111553
0.111559
0.111573
0.111592
0.111616
0.111645
0.111681
0.111722
0.11177
0.112303
0.112123
0.111965
0.11183
0.111716
0.111625
0.111555
0.111503
0.111468
0.111448
0.111441
0.111445
0.111458
0.111477
0.111501
0.111531
0.111567
0.111608
0.112299
0.112114
0.11195
0.111807
0.111686
0.111584
0.111503
0.111439
0.111391
0.111358
0.111338
0.11133
0.111334
0.111347
0.111365
0.11139
0.111421
0.111457
0.112296
0.112106
0.111936
0.111787
0.111657
0.111546
0.111453
0.111377
0.111316
0.111269
0.111235
0.111214
0.111205
0.111208
0.11122
0.111239
0.111263
0.111293
0.112293
0.1121
0.111925
0.111769
0.111631
0.11151
0.111406
0.111318
0.111244
0.111184
0.111136
0.1111
0.111076
0.111064
0.111064
0.111075
0.111092
0.111114
0.112291
0.112095
0.111916
0.111754
0.111609
0.111479
0.111365
0.111265
0.111179
0.111104
0.111041
0.11099
0.110949
0.11092
0.110903
0.110897
0.110903
0.110917
0.112291
0.112093
0.11191
0.111744
0.111592
0.111455
0.111331
0.11122
0.111121
0.111033
0.110955
0.110887
0.11083
0.110782
0.110744
0.110717
0.110701
0.110697
0.112291
0.112093
0.111908
0.111738
0.111582
0.111438
0.111306
0.111185
0.111074
0.110972
0.110879
0.110795
0.110719
0.110651
0.110592
0.110542
0.110501
0.110469
0.112292
0.112095
0.11191
0.111739
0.111579
0.11143
0.111291
0.111162
0.11104
0.110926
0.110819
0.110718
0.110624
0.110537
0.110456
0.110382
0.110315
0.110256
0.112295
0.1121
0.111916
0.111744
0.111583
0.111432
0.111289
0.111154
0.111026
0.110903
0.110786
0.110674
0.110566
0.110464
0.110366
0.110274
0.110188
0.110109
0.112298
0.112105
0.111923
0.111752
0.111591
0.111439
0.111294
0.111157
0.111025
0.110897
0.110774
0.110655
0.11054
0.110429
0.110322
0.110219
0.110122
0.11003
0.112301
0.112112
0.111932
0.111763
0.111602
0.11145
0.111305
0.111166
0.111032
0.110903
0.110777
0.110655
0.110536
0.11042
0.110307
0.110199
0.110095
0.109997
0.112306
0.11212
0.111944
0.111776
0.111616
0.111465
0.111321
0.111183
0.11105
0.110921
0.110796
0.110673
0.110554
0.110438
0.110325
0.110216
0.110112
0.110013
0.112313
0.112132
0.111958
0.111792
0.111635
0.111487
0.111346
0.111212
0.111084
0.11096
0.110841
0.110725
0.110613
0.110504
0.110398
0.110297
0.110201
0.11011
0.112323
0.112149
0.111981
0.111821
0.111669
0.111528
0.111396
0.111274
0.111161
0.111056
0.11096
0.11087
0.110788
0.110712
0.110643
0.11058
0.110524
0.110474
0.112338
0.112175
0.112024
0.111888
0.111772
0.11168
0.111609
0.111562
0.111537
0.111536
0.111556
0.111598
0.111658
0.111735
0.111823
0.111918
0.112014
0.112106
0.112358
0.112222
0.11217
0.112235
0.112424
0.1127
0.113041
0.113428
0.113844
0.114277
0.114713
0.115143
0.115557
0.115949
0.116293
0.116552
0.116733
0.116847
0.112638
0.113378
0.114558
0.116044
0.117737
0.119437
0.120803
0.12194
0.122977
0.124033
0.125209
0.126579
0.128191
0.130069
0.132223
0.134654
0.137357
0.140349
0.116919
0.125516
0.136116
0.148282
0.161716
0.176376
0.192422
0.210026
0.2293
0.250254
0.272874
0.297096
0.322798
0.34981
0.377931
0.406949
0.43667
0.46691
0.305567
0.464771
0.588336
0.69201
0.78692
0.879168
0.971904
1.06678
1.16427
1.26389
1.36718
1.47509
1.58816
1.7067
1.83085
1.96064
2.09588
2.23639
0.27874
0.295834
0.333563
0.387256
0.452673
0.525214
0.600841
0.672084
0.734996
0.793325
0.848664
0.902345
0.955381
1.00852
1.0623
1.11706
1.17301
1.23023
1.28869
1.34828
1.40882
1.47005
1.53168
1.5935
1.65536
1.71716
1.77856
1.8368
1.89136
1.93781
1.97591
2.00576
2.02765
2.04196
2.04934
2.05074
2.04749
2.04136
2.03451
2.02947
2.02882
2.03488
2.04925
2.07229
2.1028
2.1378
2.17256
2.20086
2.21557
2.20946
2.17635
2.11232
2.01671
1.89305
1.74879
1.59461
1.44903
1.32574
1.23038
1.15985
1.10364
1.05114
0.994649
0.931381
0.862982
0.793861
0.729299
0.673686
0.629271
0.595815
0.570502
0.547628
0.529275
0.538267
0.626092
0.859999
1.31095
2.1297
3.41519
4.90631
6.28542
7.57219
8.67678
9.54733
10.1661
10.5393
10.6854
10.6281
10.44
10.1805
9.86235
9.49453
9.0825
8.62869
8.18176
7.74589
7.32072
6.9073
6.50703
6.12119
5.75077
5.39634
5.05829
4.73688
4.43245
4.14499
3.87416
3.61929
3.37948
3.15361
2.94038
2.73842
2.54639
2.36304
2.18739
2.01868
1.8563
1.69827
1.54017
1.38566
1.24148
1.11992
1.04159
1.03947
1.14997
1.33085
1.55689
1.78559
2.03174
2.30333
2.60626
2.94542
3.32514
3.74936
4.2237
4.75484
5.34905
6.01201
6.74844
7.56162
8.45221
9.41636
10.4435
11.4769
12.4646
13.3862
14.2236
14.9572
15.5657
16.0256
16.3104
16.3908
16.2368
15.8237
15.14
14.1945
13.0233
11.6915
10.2865
8.90552
7.63993
6.55996
5.70397
5.07467
4.64198
4.35062
4.15429
4.01031
3.83116
3.52947
3.11744
2.69019
2.41387
2.55665
3.1784
3.90053
4.47524
4.68756
4.56574
4.27435
0.43637
0.445785
0.482176
0.527115
0.571459
0.609798
0.639579
0.660387
0.673391
0.680293
0.682516
0.681155
0.677116
0.671178
0.663991
0.656062
0.647768
0.639366
0.631019
0.622816
0.614806
0.607013
0.599408
0.59192
0.584485
0.57707
0.569995
0.566197
0.565724
0.569017
0.576269
0.5874
0.602012
0.619381
0.638539
0.658364
0.677724
0.695624
0.711324
0.724403
0.734775
0.742656
0.748522
0.753026
0.756912
0.760892
0.765501
0.770897
0.77667
0.781702
0.784208
0.781812
0.771896
0.752497
0.722826
0.683645
0.637011
0.585799
0.533275
0.482678
0.437348
0.397893
0.363213
0.331681
0.302083
0.27419
0.248926
0.228081
0.214061
0.210656
0.227123
0.289244
0.432469
0.714036
1.22211
2.0223
3.03768
3.82195
4.33748
4.63719
4.7335
4.6589
4.44767
4.14058
3.779
3.39968
3.03149
2.69752
2.41749
2.20242
2.0566
1.98092
1.97445
2.02923
2.08409
2.13023
2.16648
2.19173
2.20521
2.20649
2.19564
2.17328
2.14028
2.09798
2.04813
1.99293
1.93467
1.87551
1.81735
1.76168
1.70949
1.66138
1.61756
1.57789
1.54197
1.50923
1.47907
1.45103
1.42489
1.40108
1.38032
1.36233
1.34763
1.33771
1.33472
1.33562
1.33788
1.33865
1.33819
1.3372
1.33593
1.33417
1.33071
1.32364
1.31337
1.30207
1.29275
1.28848
1.29238
1.30789
1.33887
1.3898
1.46753
1.60112
1.8029
2.05993
2.35657
2.67804
3.00967
3.33694
3.64505
3.91791
4.13706
4.28187
4.33036
4.26645
4.088
3.8073
3.44856
3.04162
2.61553
2.19581
1.80649
1.47296
1.22085
1.07357
1.02683
1.05308
1.1419
1.28364
1.44314
1.61821
1.82355
2.03506
2.13079
2.05408
1.86004
1.61421
1.40894
1.29815
0.700265
0.655589
0.66116
0.673248
0.681539
0.683399
0.679198
0.6702
0.65788
0.643706
0.628869
0.614206
0.600266
0.587395
0.575789
0.565536
0.556622
0.548947
0.54234
0.536604
0.531553
0.527023
0.522831
0.518769
0.514633
0.510244
0.505458
0.500223
0.494689
0.488925
0.48307
0.477311
0.471861
0.466912
0.462603
0.458981
0.455997
0.453508
0.451312
0.44921
0.447061
0.444831
0.442607
0.440591
0.439063
0.438328
0.438664
0.440276
0.443239
0.447429
0.452455
0.457638
0.462021
0.464413
0.463509
0.458052
0.44708
0.430257
0.408116
0.382023
0.353852
0.325478
0.298505
0.273658
0.251082
0.231511
0.217436
0.213979
0.229808
0.281174
0.399354
0.618477
0.99354
1.58796
2.41511
3.17949
3.60977
3.76116
3.71371
3.53788
3.29155
3.02191
2.76692
2.55541
2.40474
2.3197
2.29473
2.31795
2.37517
2.45256
2.53849
2.62393
2.70246
2.77259
2.83521
2.8892
2.93292
2.96473
2.98315
2.98713
2.97594
2.95198
2.91695
2.87119
2.81556
2.75133
2.68019
2.60414
2.52542
2.44613
2.36788
2.29218
2.22033
2.15286
2.08964
2.03059
1.9758
1.92481
1.87567
1.82942
1.78643
1.74456
1.70442
1.66669
1.63126
1.59692
1.56266
1.52797
1.49307
1.45814
1.42329
1.38855
1.35382
1.3188
1.28327
1.2471
1.21023
1.17296
1.13585
1.09985
1.06607
1.03568
1.00911
0.991048
0.990049
1.00897
1.05114
1.1193
1.21444
1.33501
1.47648
1.6311
1.78731
1.9298
2.04047
2.10264
2.10554
2.04658
1.93088
1.76892
1.57421
1.3624
1.15146
0.960993
0.809551
0.711987
0.675728
0.699865
0.78947
0.952653
1.17964
1.44096
1.66718
1.74372
1.61206
1.40697
1.21869
1.09163
1.03543
1.03498
1.12972
0.906653
0.822449
0.771221
0.730634
0.694487
0.661282
0.630884
0.603407
0.578951
0.557563
0.539215
0.523837
0.511325
0.501548
0.494342
0.489481
0.486655
0.485486
0.485595
0.486643
0.488371
0.490544
0.492916
0.495248
0.497294
0.498503
0.498914
0.498487
0.497128
0.494769
0.491375
0.486958
0.481579
0.475332
0.468326
0.460667
0.452417
0.443623
0.434181
0.42393
0.412741
0.401045
0.38924
0.37765
0.366625
0.356545
0.347785
0.340667
0.335413
0.332126
0.330837
0.331374
0.333303
0.335906
0.338181
0.33893
0.336979
0.331471
0.322147
0.309443
0.294342
0.278049
0.261768
0.247141
0.237704
0.241671
0.273454
0.354795
0.513834
0.77959
1.19382
1.78887
2.51813
3.05451
3.31042
3.32147
3.1733
2.9554
2.72968
2.53656
2.40029
2.33147
2.32739
2.3743
2.45333
2.54674
2.64168
2.73066
2.81019
2.87921
2.93776
2.98746
3.03674
3.08544
3.13248
3.17598
3.21373
3.24359
3.26365
3.27485
3.27993
3.27762
3.26645
3.24499
3.21205
3.16701
3.11016
3.04291
2.96744
2.88473
2.79797
2.71046
2.6234
2.53517
2.45048
2.37003
2.29327
2.22006
2.14984
2.08217
2.01641
1.95236
1.89019
1.8299
1.77107
1.71339
1.65693
1.60209
1.54919
1.49841
1.44984
1.40346
1.35915
1.31674
1.27584
1.23497
1.19378
1.15198
1.10942
1.06612
1.02221
0.978237
0.935512
0.896416
0.863135
0.838784
0.827176
0.832362
0.858132
0.907081
0.979369
1.07156
1.17562
1.27932
1.36801
1.42742
1.4475
1.42432
1.35995
1.26127
1.1387
1.0052
0.87485
0.761103
0.676162
0.632988
0.644805
0.724993
0.884163
1.11675
1.37902
1.56559
1.5541
1.3653
1.1843
1.07412
1.0265
1.01636
1.02192
1.70672
1.13235
0.91353
0.795724
0.718536
0.661471
0.616297
0.57931
0.548626
0.523174
0.502274
0.485457
0.472376
0.462753
0.456357
0.452956
0.452254
0.453813
0.457056
0.4613
0.46558
0.469212
0.472509
0.475619
0.478681
0.48177
0.484889
0.487962
0.490856
0.493408
0.495374
0.496496
0.496541
0.495324
0.492792
0.488927
0.483673
0.477038
0.469001
0.459616
0.448916
0.436924
0.423679
0.409246
0.393724
0.377258
0.360032
0.342678
0.326333
0.311738
0.299433
0.289685
0.282579
0.278117
0.276143
0.276246
0.277718
0.279589
0.280776
0.280335
0.277736
0.273031
0.26686
0.260612
0.257756
0.267236
0.306781
0.40226
0.581425
0.870262
1.29401
1.86103
2.49017
2.89742
3.05488
3.00956
2.8417
2.63599
2.45298
2.32448
2.26298
2.26629
2.32025
2.40356
2.49488
2.57855
2.64643
2.69661
2.73107
2.75352
2.76787
2.77753
2.79148
2.8129
2.84079
2.8731
2.90715
2.94023
2.9702
2.9952
3.02252
3.05228
3.08361
3.11476
3.14322
3.16574
3.17821
3.17807
3.16287
3.13341
3.08498
3.02531
2.95705
2.88134
2.80007
2.71507
2.62793
2.53989
2.45182
2.3643
2.27763
2.19197
2.10759
2.02485
1.944
1.86516
1.78843
1.71416
1.64281
1.57484
1.51064
1.45047
1.3945
1.34281
1.29537
1.25201
1.21229
1.17528
1.13891
1.1023
1.06509
1.02695
0.987569
0.946478
0.903524
0.859843
0.817268
0.778203
0.745791
0.72388
0.716705
0.728129
0.760588
0.813686
0.883039
0.960032
1.03285
1.08899
1.11823
1.11498
1.07909
1.01548
0.93285
0.84207
0.754775
0.683196
0.641499
0.646978
0.718615
0.870429
1.09664
1.3439
1.49457
1.44426
1.26351
1.12643
1.06875
1.05086
1.05
1.04515
2.31438
1.26333
0.915945
0.76081
0.673877
0.615618
0.5719
0.537266
0.509371
0.487011
0.469422
0.456041
0.446416
0.440193
0.437103
0.436902
0.439271
0.443672
0.449369
0.45467
0.45899
0.462931
0.466882
0.471206
0.476156
0.481815
0.488138
0.494983
0.502015
0.508851
0.515123
0.520573
0.525174
0.529118
0.532071
0.53377
0.533915
0.532048
0.527658
0.520306
0.509739
0.495939
0.479153
0.459835
0.438568
0.415975
0.392662
0.369188
0.346059
0.323705
0.302981
0.285006
0.270398
0.259355
0.25176
0.247428
0.246041
0.247047
0.249657
0.252968
0.256195
0.258959
0.261612
0.266139
0.279113
0.317101
0.409219
0.589212
0.882874
1.30184
1.83622
2.40696
2.75731
2.86352
2.79365
2.62536
2.43725
2.28417
2.19242
2.16687
2.19811
2.2666
2.34839
2.42223
2.47458
2.50049
2.50171
2.48413
2.45553
2.42387
2.39598
2.37651
2.37103
2.37772
2.39375
2.41543
2.43858
2.45925
2.47399
2.48863
2.50789
2.53338
2.56637
2.60752
2.65622
2.71088
2.76476
2.81603
2.85623
2.88441
2.89848
2.89692
2.87932
2.84627
2.79916
2.73987
2.67047
2.59302
2.50943
2.4214
2.33032
2.23737
2.14359
2.04994
1.95723
1.86616
1.77736
1.69152
1.60933
1.53147
1.45852
1.39093
1.32903
1.273
1.2229
1.17859
1.13971
1.10563
1.07526
1.04642
1.01787
0.989101
0.959492
0.9284
0.89483
0.858389
0.819427
0.778875
0.738384
0.700411
0.668224
0.645706
0.636843
0.644827
0.670848
0.713031
0.76592
0.820878
0.86773
0.897196
0.903252
0.884528
0.844421
0.790168
0.731513
0.679958
0.649349
0.657398
0.725241
0.869981
1.08605
1.31637
1.4447
1.38607
1.23422
1.13546
1.10219
1.09301
1.09249
1.07762
2.81968
1.27906
0.862575
0.711915
0.636014
0.585466
0.546978
0.516598
0.492775
0.474527
0.461037
0.451604
0.445652
0.442751
0.442604
0.444985
0.44967
0.456234
0.464053
0.471686
0.47816
0.484669
0.491878
0.500441
0.510993
0.523376
0.537102
0.551662
0.56679
0.582348
0.59849
0.615769
0.635256
0.656466
0.677627
0.697186
0.713181
0.723521
0.726256
0.719956
0.70454
0.680492
0.649107
0.612193
0.571546
0.52899
0.486123
0.444296
0.404587
0.367813
0.334545
0.305117
0.280366
0.260972
0.246974
0.237746
0.232657
0.231271
0.233087
0.237496
0.243895
0.25199
0.262448
0.278865
0.312713
0.389814
0.54871
0.823871
1.22705
1.73629
2.27949
2.63865
2.72914
2.64906
2.4811
2.30152
2.16201
2.08526
2.07225
2.11004
2.17692
2.24805
2.30236
2.32728
2.31952
2.28317
2.22691
2.1614
2.09717
2.04297
2.00495
1.98621
1.98456
1.99559
2.01489
2.03741
2.0576
2.07001
2.06996
2.06702
2.06349
2.06209
2.06628
2.07988
2.1055
2.1466
2.19619
2.25162
2.31071
2.36923
2.42267
2.4669
2.49848
2.51501
2.51524
2.49905
2.46715
2.42093
2.36219
2.29294
2.21528
2.13121
2.04261
1.95121
1.85857
1.76608
1.675
1.58648
1.5016
1.4213
1.34638
1.27747
1.21501
1.15924
1.11025
1.06791
1.03193
1.00176
0.976553
0.954768
0.934485
0.915036
0.895727
0.875725
0.853556
0.828595
0.800419
0.768888
0.734337
0.697781
0.66106
0.626872
0.598602
0.579874
0.573829
0.58223
0.604572
0.637518
0.675064
0.709535
0.733476
0.74174
0.732987
0.710119
0.679757
0.651502
0.638082
0.656349
0.726955
0.867606
1.07349
1.28901
1.40716
1.36011
1.24121
1.1669
1.1443
1.1374
1.13131
1.11143
3.11158
1.20837
0.805049
0.684843
0.623091
0.578362
0.54369
0.517144
0.497517
0.483666
0.474555
0.469321
0.467298
0.468079
0.471397
0.47704
0.484952
0.495057
0.507136
0.520797
0.535352
0.550874
0.569725
0.59147
0.615737
0.64256
0.672135
0.704777
0.740949
0.781196
0.826219
0.876515
0.932362
0.990273
1.04408
1.08991
1.12429
1.14453
1.14881
1.13614
1.10626
1.05953
0.997463
0.926614
0.849759
0.77083
0.692565
0.617189
0.546238
0.480831
0.421881
0.370141
0.326079
0.290406
0.263831
0.24603
0.235242
0.229993
0.229538
0.233389
0.24124
0.253248
0.271118
0.30134
0.361643
0.486083
0.717405
1.08318
1.56811
2.09905
2.51727
2.63725
2.56068
2.39038
2.20798
2.06705
1.9898
1.97562
2.01025
2.07139
2.13392
2.17638
2.18591
2.15943
2.10197
2.0238
1.93758
1.85566
1.78796
1.74084
1.71687
1.71565
1.73016
1.75522
1.78617
1.81786
1.84426
1.85845
1.85413
1.83966
1.81651
1.78732
1.75631
1.7294
1.71272
1.70891
1.71843
1.74122
1.77598
1.82012
1.87007
1.92161
1.97041
2.01237
2.04401
2.06275
2.06701
2.05618
2.03049
1.99097
1.93923
1.87721
1.80702
1.73077
1.65054
1.56828
1.48578
1.40466
1.32637
1.25216
1.18302
1.11974
1.06285
1.01265
0.969232
0.932516
0.902226
0.877898
0.858795
0.84364
0.830919
0.819863
0.809671
0.799333
0.787511
0.77374
0.757216
0.73725
0.713404
0.685661
0.654629
0.621718
0.589179
0.559932
0.537149
0.523641
0.521172
0.529821
0.547577
0.570365
0.59279
0.609572
0.617254
0.615535
0.607825
0.601178
0.606273
0.638067
0.715467
0.855176
1.05288
1.25722
1.37438
1.35049
1.26331
1.20534
1.18691
1.18138
1.1717
1.1478
3.11813
1.10954
0.779784
0.688082
0.632579
0.589831
0.557898
0.534995
0.519587
0.510257
0.505829
0.505401
0.508323
0.51416
0.522681
0.53385
0.547817
0.564916
0.585787
0.612876
0.647229
0.687063
0.730483
0.777718
0.830008
0.888054
0.952329
1.0232
1.10086
1.18491
1.27396
1.36535
1.45499
1.54002
1.60952
1.6598
1.68934
1.69786
1.6858
1.65395
1.6031
1.53403
1.44745
1.34417
1.22548
1.10303
0.982819
0.868479
0.762085
0.664486
0.575863
0.496318
0.426324
0.36654
0.318499
0.283152
0.260303
0.247023
0.241335
0.242317
0.249726
0.264294
0.289318
0.334893
0.424647
0.598495
0.899392
1.33923
1.86293
2.33925
2.56506
2.51582
2.34607
2.15165
1.99592
1.90556
1.88052
1.90639
1.96107
2.01941
2.05899
2.06536
2.03416
1.96981
1.88289
1.78705
1.69601
1.621
1.56901
1.54237
1.53955
1.55698
1.58664
1.62399
1.66529
1.70642
1.74221
1.7659
1.76721
1.75169
1.72051
1.67505
1.61895
1.55857
1.50387
1.45819
1.42383
1.40285
1.39592
1.40238
1.42044
1.44746
1.4801
1.51469
1.54756
1.57526
1.59491
1.60435
1.60213
1.58774
1.56147
1.52428
1.47763
1.42327
1.36315
1.2993
1.23364
1.16801
1.10403
1.04307
0.986284
0.934505
0.888326
0.848094
0.813944
0.785826
0.763526
0.746662
0.734554
0.726116
0.720566
0.717098
0.714866
0.712575
0.709638
0.705346
0.698881
0.689469
0.676394
0.659103
0.637388
0.611619
0.582929
0.553248
0.525109
0.501239
0.484034
0.475049
0.474577
0.48141
0.492928
0.505707
0.516649
0.524306
0.529953
0.538026
0.556975
0.600836
0.686831
0.828005
1.02019
1.2174
1.33961
1.34446
1.28739
1.24281
1.22653
1.22171
1.21049
1.18127
2.88078
1.0477
0.793937
0.712101
0.656849
0.61532
0.585535
0.5657
0.554055
0.54909
0.549626
0.554819
0.564106
0.577172
0.593931
0.614582
0.639869
0.672514
0.715931
0.768296
0.829437
0.900346
0.981587
1.07316
1.17432
1.28357
1.39882
1.51939
1.64288
1.76519
1.88078
1.98314
2.06581
2.12363
2.15819
2.17056
2.16424
2.14201
2.10553
2.05561
1.99256
1.9157
1.82394
1.71606
1.59102
1.44822
1.28907
1.13425
0.991386
0.862731
0.748414
0.646634
0.556176
0.47644
0.408263
0.353144
0.312249
0.285684
0.270639
0.265596
0.270164
0.285599
0.316933
0.377849
0.497111
0.718375
1.07943
1.56749
2.0825
2.44695
2.49692
2.34332
2.1346
1.95284
1.83709
1.79183
1.80327
1.84989
1.90677
1.95026
1.96336
1.93886
1.87902
1.79325
1.69508
1.59909
1.51802
1.46036
1.42923
1.42299
1.43706
1.46641
1.50412
1.54689
1.59235
1.63783
1.67979
1.71298
1.72734
1.7193
1.69126
1.64235
1.57441
1.49662
1.41769
1.34149
1.27312
1.21606
1.17213
1.14178
1.12434
1.11837
1.12173
1.13188
1.14599
1.16118
1.17464
1.18398
1.18679
1.18205
1.16943
1.14895
1.12107
1.08666
1.04696
1.00342
0.957596
0.911037
0.865178
0.821278
0.780377
0.743277
0.710544
0.682532
0.659407
0.641174
0.627683
0.618637
0.613592
0.611968
0.613126
0.616362
0.620893
0.625429
0.629734
0.633039
0.63462
0.633767
0.629769
0.621925
0.609649
0.59265
0.571177
0.546203
0.519432
0.493076
0.469459
0.450583
0.43776
0.431373
0.430793
0.434559
0.440946
0.448865
0.45889
0.474158
0.501035
0.5518
0.642581
0.785232
0.973456
1.16684
1.29725
1.32961
1.30311
1.27268
1.25854
1.2526
1.23892
1.20451
2.54384
1.0456
0.829929
0.747044
0.689665
0.648016
0.619657
0.60243
0.594391
0.593983
0.600097
0.612029
0.629418
0.652239
0.680943
0.717094
0.764889
0.823469
0.890893
0.969515
1.06129
1.16739
1.2878
1.42103
1.56385
1.71144
1.85785
1.99619
2.11912
2.22015
2.29471
2.34058
2.35802
2.34961
2.32558
2.29641
2.26538
2.23357
2.20027
2.16355
2.12066
2.06845
2.00371
1.92344
1.82502
1.70561
1.5621
1.39226
1.2114
1.0485
0.907503
0.783645
0.674963
0.580631
0.499977
0.43234
0.377844
0.338262
0.313003
0.300567
0.300838
0.315871
0.3526
0.428136
0.575327
0.838518
1.24449
1.7507
2.21731
2.45091
2.37118
2.15959
1.94614
1.79283
1.71612
1.70532
1.73936
1.79387
1.8443
1.87067
1.86173
1.816
1.74016
1.64622
1.54873
1.46186
1.3965
1.35799
1.34571
1.35481
1.37915
1.41368
1.45316
1.49516
1.5383
1.58133
1.62273
1.65995
1.68746
1.69231
1.67476
1.63238
1.56545
1.48307
1.39007
1.29429
1.20263
1.12008
1.0495
0.991988
0.947332
0.914497
0.891914
0.877681
0.869703
0.865761
0.863518
0.860609
0.856028
0.849079
0.839019
0.825286
0.807632
0.786176
0.761387
0.734013
0.704983
0.675312
0.646003
0.61798
0.592036
0.568808
0.548773
0.532251
0.519428
0.51036
0.504991
0.503151
0.504562
0.50885
0.515564
0.524162
0.533971
0.543929
0.553891
0.563125
0.57094
0.576698
0.579782
0.579556
0.575361
0.566607
0.55298
0.534684
0.512609
0.4883
0.463705
0.440809
0.421286
0.406267
0.396226
0.391033
0.39022
0.393534
0.40172
0.417477
0.446584
0.498906
0.589404
0.729514
0.912853
1.104
1.2437
1.30013
1.29923
1.28386
1.2743
1.26801
1.25098
1.2112
2.2077
1.04903
0.870676
0.785593
0.725475
0.683076
0.655535
0.640384
0.635541
0.639481
0.651256
0.670437
0.697103
0.732018
0.777214
0.834596
0.900731
0.977169
1.0666
1.17072
1.29004
1.42334
1.56718
1.71572
1.86115
1.99486
2.10872
2.19641
2.25437
2.28265
2.28463
2.26602
2.23365
2.19425
2.15416
2.12432
2.10503
2.09474
2.09039
2.0877
2.08136
2.06573
2.03577
1.98813
1.92186
1.83558
1.72548
1.58784
1.41916
1.22489
1.06081
0.916268
0.788628
0.678766
0.585826
0.508163
0.444592
0.395247
0.361751
0.342806
0.338884
0.353225
0.394887
0.484101
0.656203
0.952609
1.38467
1.88063
2.27445
2.38954
2.22363
1.9845
1.78471
1.66333
1.61914
1.63248
1.67922
1.73468
1.77646
1.78879
1.76518
1.70795
1.626
1.53222
1.44121
1.36648
1.31725
1.29608
1.29922
1.31963
1.3505
1.38735
1.42608
1.46434
1.50108
1.53598
1.56929
1.60149
1.6315
1.65159
1.64787
1.6185
1.56294
1.48267
1.38437
1.27718
1.17
1.06971
0.980554
0.904386
0.84133
0.790423
0.750134
0.71868
0.694199
0.67483
0.658723
0.644178
0.630777
0.61812
0.605595
0.592598
0.578671
0.56357
0.54729
0.530043
0.512213
0.494296
0.476835
0.460376
0.44542
0.432403
0.421679
0.413519
0.408104
0.405533
0.405819
0.408896
0.414618
0.422769
0.433058
0.445103
0.458296
0.471984
0.485975
0.499511
0.511901
0.522547
0.530915
0.536475
0.538638
0.536761
0.530255
0.518806
0.502626
0.48258
0.460104
0.436938
0.414801
0.395134
0.378968
0.366918
0.35933
0.356643
0.359977
0.371995
0.398051
0.447444
0.53283
0.665
0.840422
1.02876
1.17731
1.25423
1.27486
1.27258
1.26653
1.25752
1.23646
1.19396
1.88914
1.05508
0.911118
0.823457
0.760211
0.716372
0.688805
0.674784
0.67214
0.679446
0.696005
0.721781
0.75735
0.803839
0.860695
0.927097
1.00599
1.09896
1.20645
1.32747
1.4591
1.59621
1.73153
1.85634
1.96182
2.04072
2.08887
2.10584
2.09494
2.06233
2.01566
1.96275
1.91057
1.86437
1.82876
1.81274
1.81579
1.8365
1.87232
1.91866
1.96801
2.01001
2.03328
2.02958
1.99967
1.94641
1.86602
1.75358
1.60475
1.41308
1.22304
1.0627
0.917336
0.789728
0.680936
0.590142
0.515873
0.457186
0.415525
0.390701
0.383037
0.39686
0.443238
0.544749
0.73711
1.05549
1.49404
1.95729
2.26962
2.29001
2.07747
1.82684
1.64749
1.55541
1.53607
1.56536
1.61859
1.6723
1.70693
1.7105
1.67987
1.61919
1.53771
1.44807
1.36474
1.30119
1.2658
1.25911
1.27501
1.30495
1.34184
1.38142
1.41999
1.45494
1.48504
1.51004
1.53089
1.55027
1.57104
1.59321
1.60463
1.59197
1.5507
1.47908
1.38224
1.26994
1.15293
1.0402
0.937721
0.848455
0.773025
0.710566
0.659446
0.617757
0.583592
0.55518
0.530943
0.509505
0.490373
0.473418
0.458243
0.444368
0.431341
0.418817
0.406587
0.394587
0.38288
0.371627
0.36106
0.351449
0.343076
0.336212
0.331106
0.327966
0.326949
0.32816
0.331644
0.337396
0.345356
0.355418
0.367414
0.3811
0.395887
0.411745
0.428141
0.444383
0.459814
0.473849
0.485983
0.495753
0.502667
0.506142
0.505517
0.500196
0.489895
0.474877
0.456029
0.434726
0.412556
0.391047
0.371499
0.354919
0.342111
0.333924
0.331729
0.338169
0.358209
0.400272
0.476037
0.596052
0.759783
0.942736
1.09816
1.19231
1.23096
1.23987
1.23681
1.22485
1.19782
1.1493
1.59676
1.06184
0.947079
0.856929
0.790296
0.744212
0.7155
0.701242
0.699207
0.708036
0.727156
0.756651
0.79702
0.848141
0.911381
0.988182
1.07889
1.18289
1.29816
1.42084
1.54506
1.66314
1.76636
1.84624
1.89615
1.91275
1.89664
1.85218
1.78648
1.70804
1.62559
1.54719
1.47972
1.42857
1.40049
1.3943
1.4088
1.44472
1.50433
1.58893
1.69531
1.81199
1.91776
1.98843
2.02079
2.02493
1.99832
1.9323
1.81346
1.63329
1.42488
1.23699
1.0671
0.918978
0.792684
0.686726
0.599435
0.52963
0.477755
0.446105
0.434391
0.447543
0.498037
0.609511
0.815784
1.14346
1.57053
1.98629
2.22024
2.17191
1.93565
1.69256
1.53301
1.46324
1.461
1.49982
1.55571
1.60715
1.63754
1.63805
1.60746
1.55
1.47344
1.38899
1.3113
1.25542
1.23003
1.23451
1.26095
1.29965
1.34306
1.38626
1.42577
1.45938
1.48559
1.50358
1.51341
1.51856
1.52373
1.53313
1.54628
1.54921
1.52378
1.46472
1.37422
1.26174
1.13944
1.01834
0.906335
0.807685
0.723718
0.653797
0.596242
0.548979
0.50995
0.477301
0.449483
0.425266
0.403791
0.38489
0.368349
0.353835
0.340985
0.329471
0.319034
0.309502
0.300792
0.292899
0.285888
0.279874
0.275005
0.271448
0.269368
0.268914
0.270205
0.273331
0.278338
0.285247
0.294057
0.304736
0.317202
0.331296
0.346611
0.363222
0.380637
0.398268
0.415488
0.431704
0.446396
0.459127
0.469474
0.476945
0.480914
0.480677
0.475639
0.465585
0.450882
0.432486
0.411753
0.390171
0.369149
0.349907
0.333494
0.32097
0.313791
0.314461
0.327477
0.360359
0.423748
0.528286
0.676248
0.849559
1.00808
1.11619
1.17016
1.18857
1.18786
1.17305
1.1407
1.0876
1.32854
1.06136
0.973024
0.881995
0.812432
0.763772
0.733145
0.717588
0.714897
0.723993
0.744802
0.777312
0.821952
0.879722
0.951025
1.03575
1.13286
1.24
1.35313
1.46637
1.57213
1.66179
1.72683
1.76029
1.7583
1.72097
1.65253
1.56062
1.45503
1.34628
1.24432
1.1577
1.09317
1.05582
1.04779
1.04977
1.05853
1.07694
1.11407
1.18203
1.29129
1.4437
1.61956
1.77204
1.88012
1.95845
2.01319
2.04069
2.00933
1.88842
1.6998
1.4786
1.26113
1.07301
0.920033
0.796611
0.69617
0.615008
0.552218
0.511696
0.494875
0.506546
0.559727
0.677609
0.890117
1.21435
1.61524
1.976
2.14153
2.04791
1.80565
1.57726
1.43707
1.38394
1.39183
1.43442
1.4894
1.53777
1.56597
1.56765
1.54254
1.49388
1.42725
1.35175
1.28112
1.23052
1.20982
1.21916
1.25075
1.29461
1.34257
1.38833
1.42916
1.46354
1.4895
1.50521
1.50997
1.50542
1.49614
1.48896
1.48885
1.49293
1.48217
1.43682
1.35544
1.24625
1.12227
0.996288
0.877951
0.772894
0.683221
0.608608
0.547383
0.497349
0.45628
0.42219
0.393439
0.368752
0.347194
0.328153
0.311448
0.296893
0.284241
0.273238
0.263655
0.255309
0.248071
0.24187
0.236693
0.232571
0.229578
0.22781
0.227373
0.22836
0.230849
0.234904
0.240477
0.247613
0.256386
0.266866
0.279106
0.293084
0.308526
0.32524
0.342847
0.360928
0.378959
0.396378
0.412664
0.427378
0.440131
0.450503
0.457941
0.461734
0.461124
0.455552
0.444938
0.429812
0.411242
0.390598
0.369309
0.348705
0.329977
0.314292
0.303092
0.298654
0.304921
0.328445
0.378718
0.466095
0.595157
0.754138
0.9105
1.0286
1.09586
1.12295
1.12438
1.10705
1.07035
1.01429
1.11247
1.04556
0.982799
0.894849
0.824414
0.77457
0.743348
0.728285
0.727444
0.739574
0.764042
0.801205
0.851466
0.915127
0.99204
1.08126
1.18069
1.28669
1.39389
1.49523
1.58233
1.64642
1.67965
1.67663
1.63581
1.56025
1.45746
1.33837
1.21578
1.10246
1.00949
0.945461
0.915657
0.920595
0.9406
0.9541
0.952525
0.936556
0.919933
0.922857
0.967256
1.07554
1.24933
1.4333
1.5846
1.70862
1.82015
1.93902
2.03963
2.07081
1.99248
1.80313
1.54768
1.29092
1.07817
0.918682
0.799944
0.708535
0.637956
0.588869
0.566656
0.576174
0.630215
0.75011
0.960336
1.26849
1.63057
1.93214
2.04007
1.91996
1.68446
1.47486
1.35203
1.31022
1.32283
1.36506
1.41682
1.46195
1.48974
1.49572
1.47996
1.44439
1.39218
1.32968
1.26832
1.22235
1.20236
1.21013
1.23964
1.28213
1.33006
1.37748
1.42116
1.45885
1.48819
1.50657
1.5117
1.50313
1.4841
1.4619
1.445
1.43652
1.42811
1.39551
1.3239
1.21989
1.09684
0.968894
0.847167
0.73847
0.645624
0.568605
0.505778
0.454847
0.413453
0.379483
0.35119
0.327214
0.306548
0.288491
0.272591
0.258639
0.246513
0.236054
0.227097
0.219498
0.213137
0.20793
0.203835
0.200843
0.198983
0.198307
0.198881
0.200674
0.203738
0.208113
0.213824
0.2209
0.229378
0.239314
0.25079
0.263876
0.278629
0.295115
0.312865
0.331098
0.349402
0.367357
0.384508
0.400443
0.414806
0.427232
0.437242
0.444166
0.447177
0.44549
0.438658
0.426813
0.410702
0.391523
0.370674
0.34954
0.329402
0.311489
0.297198
0.28856
0.288942
0.3039
0.34164
0.41176
0.520319
0.661052
0.809449
0.932587
1.01114
1.04717
1.05188
1.03348
0.994522
0.938226
1.18128
1.03107
0.973989
0.895024
0.831189
0.785968
0.758313
0.746359
0.748515
0.763794
0.791791
0.832577
0.886446
0.95359
1.03372
1.12565
1.22689
1.33331
1.439
1.53634
1.61655
1.67064
1.6908
1.67201
1.61343
1.51935
1.39915
1.26556
1.13317