/*--------------------------------*- C++ -*----------------------------------*\
| =========                 |                                                 |
| \\      /  F ield         | OpenFOAM: The Open Source CFD Toolbox           |
|  \\    /   O peration     | Version:  2112                                  |
|   \\  /    A nd           | Website:  www.openfoam.com                      |
|    \\/     M anipulation  |                                                 |
\*---------------------------------------------------------------------------*/
FoamFile
{
    version     2.0;
    format      ascii;
    arch        "LSB;label=32;scalar=64";
    class       surfaceScalarField;
    location    "0.57";
    object      phi;
}
// * * * * * * * * * * * * * * * * * * * * * * * * * * * * * * * * * * * * * //

dimensions      [0 3 -1 0 0 0 0];

oriented        oriented;

internalField   nonuniform List<scalar> 
24170
(
3.04095e-06
1.47457e-07
2.86665e-06
1.74303e-07
2.69412e-06
1.72527e-07
2.52346e-06
1.70664e-07
2.36008e-06
1.63376e-07
2.20891e-06
1.51169e-07
2.07323e-06
1.35676e-07
1.9552e-06
1.18035e-07
1.85589e-06
9.93104e-08
1.77528e-06
8.06116e-08
1.71235e-06
6.29248e-08
1.66531e-06
4.7045e-08
1.63182e-06
3.34846e-08
1.60932e-06
2.25069e-08
1.59515e-06
1.41704e-08
1.58631e-06
8.83221e-09
1.57723e-06
9.08386e-09
2.54893e-08
1.55174e-06
3.48887e-06
7.58375e-08
3.53939e-06
1.23779e-07
3.5713e-06
1.40615e-07
3.58473e-06
1.57234e-07
3.58051e-06
1.67603e-07
3.5611e-06
1.70571e-07
3.52939e-06
1.67393e-07
3.48831e-06
1.59111e-07
3.44071e-06
1.46913e-07
3.38905e-06
1.32267e-07
3.33533e-06
1.16649e-07
3.28097e-06
1.01406e-07
3.22692e-06
8.75358e-08
3.17375e-06
7.56719e-08
3.12179e-06
6.6135e-08
3.07123e-06
5.93916e-08
3.02494e-06
5.53778e-08
5.01345e-08
3.00029e-06
3.68048e-06
5.78767e-08
3.69922e-06
1.05037e-07
3.71893e-06
1.20909e-07
3.74152e-06
1.34644e-07
3.76478e-06
1.44342e-07
3.78716e-06
1.48188e-07
3.80733e-06
1.47226e-07
3.82407e-06
1.4237e-07
3.83671e-06
1.34273e-07
3.84513e-06
1.23848e-07
3.84951e-06
1.12268e-07
3.8503e-06
1.00617e-07
3.8481e-06
8.97363e-08
3.84358e-06
8.01918e-08
3.83738e-06
7.23292e-08
3.83058e-06
6.61975e-08
3.82463e-06
6.13202e-08
5.50081e-08
3.81976e-06
3.93632e-06
4.69476e-08
3.94815e-06
9.32062e-08
3.95822e-06
1.10841e-07
3.96916e-06
1.23695e-07
3.98105e-06
1.32455e-07
3.9937e-06
1.35538e-07
4.00696e-06
1.33968e-07
4.02044e-06
1.28885e-07
4.03356e-06
1.21151e-07
4.04581e-06
1.11603e-07
4.05693e-06
1.01151e-07
4.06686e-06
9.06827e-08
4.07572e-06
8.08764e-08
4.08375e-06
7.216e-08
4.09137e-06
6.47153e-08
4.09914e-06
5.84212e-08
4.10763e-06
5.28326e-08
4.63456e-08
4.11629e-06
4.21542e-06
3.86553e-08
4.22595e-06
8.26732e-08
4.23524e-06
1.01551e-07
4.24481e-06
1.14131e-07
4.25484e-06
1.22423e-07
4.26511e-06
1.25263e-07
4.27553e-06
1.23554e-07
4.28592e-06
1.18494e-07
4.29607e-06
1.10999e-07
4.30579e-06
1.01882e-07
4.31499e-06
9.19528e-08
4.3237e-06
8.19772e-08
4.33204e-06
7.25374e-08
4.34021e-06
6.39807e-08
4.34851e-06
5.64209e-08
4.35721e-06
4.9716e-08
4.36671e-06
4.33345e-08
3.61809e-08
4.37688e-06
4.51566e-06
3.20831e-08
4.52541e-06
7.29202e-08
4.53472e-06
9.22419e-08
4.54437e-06
1.0448e-07
4.55447e-06
1.12329e-07
4.56467e-06
1.15055e-07
4.57484e-06
1.13391e-07
4.58483e-06
1.085e-07
4.59453e-06
1.01305e-07
4.60382e-06
9.2592e-08
4.61267e-06
8.3103e-08
4.62113e-06
7.35088e-08
4.62936e-06
6.43124e-08
4.63753e-06
5.58068e-08
4.64588e-06
4.80729e-08
4.65463e-06
4.09691e-08
4.66391e-06
3.40482e-08
2.66566e-08
4.67344e-06
4.83805e-06
2.6751e-08
4.84706e-06
6.39108e-08
4.85626e-06
8.30455e-08
4.86601e-06
9.4728e-08
4.87636e-06
1.0198e-07
4.88691e-06
1.04508e-07
4.89737e-06
1.02923e-07
4.90763e-06
9.82483e-08
4.91756e-06
9.13715e-08
4.92709e-06
8.30599e-08
4.9362e-06
7.399e-08
4.94496e-06
6.47535e-08
4.95348e-06
5.57868e-08
4.96195e-06
4.73399e-08
4.97055e-06
3.94744e-08
4.97945e-06
3.20703e-08
4.98869e-06
2.48055e-08
1.72914e-08
4.99806e-06
5.18398e-06
2.2349e-08
5.1923e-06
5.55917e-08
5.20133e-06
7.40154e-08
5.21108e-06
8.49808e-08
5.22154e-06
9.15163e-08
5.23235e-06
9.37036e-08
5.24316e-06
9.21127e-08
5.25376e-06
8.76483e-08
5.26404e-06
8.10881e-08
5.27396e-06
7.31458e-08
5.28349e-06
6.44565e-08
5.2927e-06
5.5547e-08
5.30168e-06
4.67984e-08
5.3106e-06
3.84264e-08
5.31959e-06
3.04849e-08
5.32877e-06
2.28865e-08
5.33816e-06
1.54118e-08
7.85763e-09
5.3476e-06
5.55502e-06
1.86618e-08
5.56271e-06
4.79049e-08
5.57156e-06
6.51651e-08
5.58127e-06
7.52746e-08
5.59177e-06
8.1017e-08
5.6027e-06
8.27661e-08
5.61376e-06
8.10555e-08
5.62469e-06
7.67175e-08
5.63532e-06
7.04604e-08
5.64559e-06
6.28756e-08
5.65552e-06
5.45311e-08
5.66515e-06
4.59085e-08
5.6746e-06
3.73538e-08
5.68397e-06
2.90598e-08
5.69337e-06
2.10823e-08
5.70289e-06
1.33697e-08
5.71251e-06
5.78497e-09
-1.74889e-09
5.72212e-06
5.95291e-06
1.55251e-08
5.96002e-06
4.07956e-08
5.96868e-06
5.65118e-08
5.97833e-06
6.56246e-08
5.98883e-06
7.05155e-08
5.99983e-06
7.17595e-08
6.01103e-06
6.98546e-08
6.02221e-06
6.55418e-08
6.03318e-06
5.94953e-08
6.04381e-06
5.22407e-08
6.0541e-06
4.42398e-08
6.06412e-06
3.58925e-08
6.07396e-06
2.75147e-08
6.08372e-06
1.9301e-08
6.09348e-06
1.1318e-08
6.1033e-06
3.5494e-09
6.11316e-06
-4.07919e-09
-1.15678e-08
6.12298e-06
6.37953e-06
1.2808e-08
6.38611e-06
3.42118e-08
6.39455e-06
4.80785e-08
6.40412e-06
5.60484e-08
6.4146e-06
6.00345e-08
6.42565e-06
6.07144e-08
6.43694e-06
5.8559e-08
6.44827e-06
5.42122e-08
6.45948e-06
4.82846e-08
6.47046e-06
4.1269e-08
6.48113e-06
3.35708e-08
6.49151e-06
2.55121e-08
6.50169e-06
1.73309e-08
6.51178e-06
9.21301e-09
6.52184e-06
1.25635e-09
6.53191e-06
-6.52058e-09
6.54198e-06
-1.41471e-08
-2.15792e-08
6.55199e-06
5.74289e-06
1.0748e-08
5.74808e-06
2.90252e-08
5.75502e-06
4.11376e-08
5.76304e-06
4.80277e-08
5.77186e-06
5.12127e-08
5.7812e-06
5.1374e-08
5.7908e-06
4.89637e-08
5.80046e-06
4.45504e-08
5.81006e-06
3.86841e-08
5.81952e-06
3.18148e-08
5.82878e-06
2.43115e-08
5.83782e-06
1.64683e-08
5.84667e-06
8.47918e-09
5.85541e-06
4.78108e-10
5.86409e-06
-7.42651e-09
5.87274e-06
-1.51762e-08
5.88137e-06
-2.27718e-08
-3.01443e-08
5.88993e-06
7.00029e-06
8.61068e-09
7.00588e-06
2.34398e-08
7.01359e-06
3.34268e-08
7.02265e-06
3.89653e-08
7.03269e-06
4.11746e-08
7.04337e-06
4.06952e-08
7.05438e-06
3.7948e-08
7.06552e-06
3.34182e-08
7.07662e-06
2.75846e-08
7.08759e-06
2.08446e-08
7.09838e-06
1.35211e-08
7.10897e-06
5.87445e-09
7.11936e-06
-1.9089e-09
7.12957e-06
-9.73082e-09
7.13966e-06
-1.752e-08
7.14968e-06
-2.51974e-08
7.15963e-06
-3.2723e-08
-4.00137e-08
7.1695e-06
8.53306e-06
6.40257e-09
8.53899e-06
1.75004e-08
8.54744e-06
2.49786e-08
8.55755e-06
2.88621e-08
8.56882e-06
2.98959e-08
8.58089e-06
2.86324e-08
8.59339e-06
2.54468e-08
8.60607e-06
2.07363e-08
8.61876e-06
1.48979e-08
8.63133e-06
8.26879e-09
8.64373e-06
1.12197e-09
8.65593e-06
-6.3248e-09
8.66793e-06
-1.39053e-08
8.67971e-06
-2.15124e-08
8.69129e-06
-2.90992e-08
8.70271e-06
-3.66193e-08
8.714e-06
-4.40135e-08
-5.11804e-08
8.72517e-06
1.04015e-05
4.12474e-09
1.04077e-05
1.12507e-08
1.04169e-05
1.58517e-08
1.0428e-05
1.77584e-08
1.04405e-05
1.73981e-08
1.04539e-05
1.51935e-08
1.04679e-05
1.14534e-08
1.04822e-05
6.48765e-09
1.04964e-05
6.03978e-10
1.05106e-05
-5.92933e-09
1.05247e-05
-1.28922e-08
1.05384e-05
-2.01101e-08
1.0552e-05
-2.74482e-08
1.05653e-05
-3.4807e-08
1.05783e-05
-4.2124e-08
1.05911e-05
-4.9366e-08
1.06036e-05
-5.65149e-08
-6.34731e-08
1.06159e-05
1.26791e-05
1.77502e-09
1.26857e-05
4.71667e-09
1.26954e-05
6.11475e-09
1.27074e-05
5.7291e-09
1.27211e-05
3.74808e-09
1.27358e-05
4.4673e-10
1.27513e-05
-3.96367e-09
1.2767e-05
-9.25414e-09
1.27828e-05
-1.52134e-08
1.27985e-05
-2.1646e-08
1.2814e-05
-2.83903e-08
1.28292e-05
-3.5317e-08
1.28441e-05
-4.2324e-08
1.28586e-05
-4.93336e-08
1.28728e-05
-5.6287e-08
1.28866e-05
-6.31428e-08
1.28999e-05
-6.98813e-08
-7.64535e-08
1.29129e-05
1.54556e-05
-6.61354e-10
1.54624e-05
-2.10941e-09
1.54727e-05
-4.1926e-09
1.54856e-05
-7.15029e-09
1.55003e-05
-1.09585e-08
1.55163e-05
-1.55008e-08
1.5533e-05
-2.06597e-08
1.555e-05
-2.63124e-08
1.55672e-05
-3.23356e-08
1.55841e-05
-3.86135e-08
1.56008e-05
-4.50472e-08
1.5617e-05
-5.15558e-08
1.56328e-05
-5.80741e-08
1.5648e-05
-6.45505e-08
1.56626e-05
-7.09445e-08
1.56767e-05
-7.72226e-08
1.56902e-05
-8.33578e-08
-8.93202e-08
1.57031e-05
1.88402e-05
-3.23655e-09
1.88474e-05
-9.3245e-09
1.88584e-05
-1.51499e-08
1.88721e-05
-2.0908e-08
1.88879e-05
-2.66976e-08
1.89049e-05
-3.25542e-08
1.89228e-05
-3.84781e-08
1.89409e-05
-4.4449e-08
1.8959e-05
-5.04363e-08
1.89768e-05
-5.64073e-08
1.89941e-05
-6.23316e-08
1.90107e-05
-6.81825e-08
1.90266e-05
-7.3938e-08
1.90416e-05
-7.95794e-08
1.90557e-05
-8.50907e-08
1.9069e-05
-9.04564e-08
1.90813e-05
-9.56634e-08
-1.00688e-07
1.90926e-05
2.29661e-05
-6.02568e-09
2.2974e-05
-1.72447e-08
2.2986e-05
-2.71524e-08
2.3001e-05
-3.59024e-08
2.30181e-05
-4.37422e-08
2.30364e-05
-5.0885e-08
2.30554e-05
-5.74625e-08
2.30745e-05
-6.35615e-08
2.30933e-05
-6.92525e-08
2.31115e-05
-7.4594e-08
2.31288e-05
-7.96314e-08
2.3145e-05
-8.44012e-08
2.316e-05
-8.89334e-08
2.31737e-05
-9.32529e-08
2.3186e-05
-9.73785e-08
2.31969e-05
-1.01323e-07
2.32063e-05
-1.05093e-07
-1.08694e-07
2.32143e-05
1.68128e-05
-8.12402e-09
1.68187e-05
-2.31203e-08
1.68274e-05
-3.58772e-08
1.68381e-05
-4.6571e-08
1.685e-05
-5.56612e-08
1.68626e-05
-6.35223e-08
1.68755e-05
-7.0368e-08
1.68883e-05
-7.63537e-08
1.69007e-05
-8.16228e-08
1.69124e-05
-8.62967e-08
1.69232e-05
-9.04724e-08
1.69331e-05
-9.42308e-08
1.69418e-05
-9.76422e-08
1.69493e-05
-1.00766e-07
1.69556e-05
-1.03652e-07
1.69606e-05
-1.06338e-07
1.69643e-05
-1.08849e-07
-1.11211e-07
1.69669e-05
1.46366e-05
-1.01846e-08
1.46423e-05
-2.87706e-08
1.46504e-05
-4.39839e-08
1.466e-05
-5.61753e-08
1.46705e-05
-6.61694e-08
1.46815e-05
-7.45029e-08
1.46925e-05
-8.14338e-08
1.47034e-05
-8.7175e-08
1.47137e-05
-9.19356e-08
1.47233e-05
-9.58864e-08
1.4732e-05
-9.91633e-08
1.47396e-05
-1.01885e-07
1.47461e-05
-1.04157e-07
1.47514e-05
-1.06074e-07
1.47555e-05
-1.07715e-07
1.47583e-05
-1.09144e-07
1.47599e-05
-1.10408e-07
-1.11552e-07
1.47602e-05
1.27423e-05
-1.23995e-08
1.27482e-05
-3.46089e-08
1.27561e-05
-5.18997e-08
1.27651e-05
-6.51602e-08
1.27747e-05
-7.57851e-08
1.27846e-05
-8.44162e-08
1.27945e-05
-9.13052e-08
1.2804e-05
-9.67245e-08
1.2813e-05
-1.00943e-07
1.28213e-05
-1.04165e-07
1.28287e-05
-1.06552e-07
1.28351e-05
-1.08252e-07
1.28403e-05
-1.09406e-07
1.28444e-05
-1.10138e-07
1.28472e-05
-1.10559e-07
1.28489e-05
-1.1076e-07
1.28493e-05
-1.10811e-07
-1.10775e-07
1.28485e-05
1.10935e-05
-1.49795e-08
1.10999e-05
-4.09642e-08
1.11078e-05
-5.98421e-08
1.11164e-05
-7.37325e-08
1.11254e-05
-8.47795e-08
1.11345e-05
-9.35833e-08
1.11436e-05
-1.00349e-07
1.11523e-05
-1.05421e-07
1.11604e-05
-1.09112e-07
1.11679e-05
-1.11638e-07
1.11745e-05
-1.13176e-07
1.11802e-05
-1.139e-07
1.11848e-05
-1.13978e-07
1.11882e-05
-1.13567e-07
1.11904e-05
-1.12809e-07
1.11915e-05
-1.11821e-07
1.11914e-05
-1.10701e-07
-1.09522e-07
1.11901e-05
9.65843e-06
-1.81906e-08
9.66554e-06
-4.80827e-08
9.67359e-06
-6.78854e-08
9.68186e-06
-8.20002e-08
9.6904e-06
-9.33214e-08
9.69901e-06
-1.02193e-07
9.70744e-06
-1.08782e-07
9.71553e-06
-1.13516e-07
9.72315e-06
-1.16725e-07
9.73013e-06
-1.18616e-07
9.73632e-06
-1.19368e-07
9.74159e-06
-1.19177e-07
9.74585e-06
-1.18237e-07
9.74902e-06
-1.16736e-07
9.75106e-06
-1.1485e-07
9.75197e-06
-1.12726e-07
9.75176e-06
-1.10489e-07
-1.0823e-07
9.75046e-06
8.40958e-06
-2.24213e-08
8.41763e-06
-5.61248e-08
8.42574e-06
-7.60034e-08
8.4338e-06
-9.00555e-08
8.44205e-06
-1.01573e-07
8.45028e-06
-1.1042e-07
8.45828e-06
-1.16783e-07
8.46595e-06
-1.21185e-07
8.47317e-06
-1.23952e-07
8.47982e-06
-1.25262e-07
8.48575e-06
-1.25296e-07
8.49083e-06
-1.2426e-07
8.49497e-06
-1.22373e-07
8.49809e-06
-1.19855e-07
8.50016e-06
-1.16921e-07
8.50117e-06
-1.13739e-07
8.50113e-06
-1.10446e-07
-1.07113e-07
8.50001e-06
7.3231e-06
-2.82395e-08
7.33229e-06
-6.5316e-08
7.3405e-06
-8.42062e-08
7.34844e-06
-9.79998e-08
7.35648e-06
-1.09615e-07
7.36442e-06
-1.18355e-07
7.37213e-06
-1.24497e-07
7.37958e-06
-1.28635e-07
7.3867e-06
-1.31069e-07
7.39337e-06
-1.31937e-07
7.39949e-06
-1.3141e-07
7.40493e-06
-1.29699e-07
7.40958e-06
-1.27027e-07
7.41336e-06
-1.23633e-07
7.41621e-06
-1.19773e-07
7.41812e-06
-1.15644e-07
7.41908e-06
-1.11414e-07
-1.0719e-07
7.41916e-06
6.37818e-06
-3.63566e-08
6.38903e-06
-7.6164e-08
6.39784e-06
-9.3017e-08
6.40662e-06
-1.06776e-07
6.41558e-06
-1.1858e-07
6.42451e-06
-1.27277e-07
6.43345e-06
-1.33437e-07
6.44244e-06
-1.37634e-07
6.45147e-06
-1.40096e-07
6.46042e-06
-1.40891e-07
6.46917e-06
-1.40152e-07
6.47753e-06
-1.38062e-07
6.48533e-06
-1.34831e-07
6.49239e-06
-1.30693e-07
6.49852e-06
-1.25906e-07
6.50365e-06
-1.20769e-07
6.5077e-06
-1.15468e-07
-1.10216e-07
6.51073e-06
5.559e-06
-4.98953e-08
5.57498e-06
-9.21366e-08
5.5898e-06
-1.07842e-07
5.60656e-06
-1.23532e-07
5.625e-06
-1.37025e-07
5.64447e-06
-1.4675e-07
5.66444e-06
-1.53408e-07
5.68441e-06
-1.57604e-07
5.70377e-06
-1.59452e-07
5.72188e-06
-1.58996e-07
5.73814e-06
-1.56417e-07
5.75207e-06
-1.51992e-07
5.7633e-06
-1.46057e-07
5.77162e-06
-1.39012e-07
5.77699e-06
-1.3128e-07
5.77953e-06
-1.23308e-07
5.77943e-06
-1.15371e-07
-1.08192e-07
5.77741e-06
4.88755e-06
-1.09839e-07
4.94061e-06
-1.45201e-07
4.98475e-06
-1.51982e-07
5.01875e-06
-1.57528e-07
5.04077e-06
-1.59048e-07
5.05104e-06
-1.57011e-07
5.05036e-06
-1.5273e-07
5.03953e-06
-1.46779e-07
5.0195e-06
-1.39418e-07
4.99137e-06
-1.30871e-07
4.95636e-06
-1.21402e-07
4.91566e-06
-1.11298e-07
4.87046e-06
-1.00848e-07
4.8218e-06
-9.03542e-08
4.77061e-06
-8.00972e-08
4.71768e-06
-7.03725e-08
4.66365e-06
-6.1338e-08
-5.33555e-08
4.60881e-06
4.09284e-06
3.94764e-06
3.79565e-06
3.63813e-06
3.47908e-06
3.32207e-06
3.16934e-06
3.02256e-06
2.88314e-06
2.75227e-06
2.63087e-06
2.51957e-06
2.41872e-06
2.32837e-06
2.24827e-06
2.1779e-06
2.11656e-06
2.0632e-06
2.76727e-09
-2.76727e-09
2.15898e-08
-1.88225e-08
6.30259e-08
-4.14361e-08
1.31277e-07
-6.82516e-08
2.26841e-07
-9.55631e-08
3.47133e-07
-1.20293e-07
4.88588e-07
-1.41455e-07
6.47972e-07
-1.59383e-07
8.20848e-07
-1.72876e-07
1.00123e-06
-1.80384e-07
1.1834e-06
-1.82171e-07
1.36259e-06
-1.79188e-07
1.53511e-06
-1.7252e-07
1.69824e-06
-1.63133e-07
1.85007e-06
-1.51831e-07
1.98934e-06
-1.39263e-07
2.11526e-06
-1.25924e-07
2.22744e-06
-1.12178e-07
2.32572e-06
-9.82767e-08
2.41011e-06
-8.43905e-08
2.48075e-06
-7.06467e-08
2.53791e-06
-5.71579e-08
2.58192e-06
-4.40129e-08
2.61317e-06
-3.12481e-08
2.632e-06
-1.88271e-08
2.63863e-06
-6.63306e-09
2.63317e-06
5.45781e-09
2.61539e-06
1.77825e-08
2.58624e-06
2.9151e-08
2.54669e-06
3.9554e-08
2.49757e-06
4.91218e-08
2.43993e-06
5.76305e-08
2.37506e-06
6.4879e-08
2.30444e-06
7.06121e-08
2.22983e-06
7.4613e-08
2.15322e-06
7.66094e-08
2.07684e-06
7.63803e-08
2.00302e-06
7.3816e-08
1.93406e-06
6.89638e-08
1.87199e-06
6.20718e-08
1.8184e-06
5.35896e-08
1.77427e-06
4.41257e-08
1.73987e-06
3.44015e-08
1.71468e-06
2.51913e-08
1.69748e-06
1.71992e-08
1.68655e-06
1.09328e-08
1.67992e-06
6.63006e-09
1.6757e-06
4.21959e-09
1.67231e-06
3.38731e-09
1.66857e-06
3.7455e-09
1.66359e-06
4.97342e-09
1.65682e-06
6.7778e-09
1.64875e-06
8.06127e-09
1.64006e-06
8.69351e-09
1.63166e-06
8.39913e-09
1.62377e-06
7.88852e-09
1.61626e-06
7.51416e-09
1.61032e-06
5.93826e-09
1.6085e-06
1.8236e-09
1.6128e-06
-4.29991e-09
1.62537e-06
-1.25696e-08
1.6481e-06
-2.27371e-08
1.68184e-06
-3.37397e-08
1.72615e-06
-4.43093e-08
1.78003e-06
-5.38813e-08
1.84255e-06
-6.25169e-08
1.91275e-06
-7.02018e-08
1.98829e-06
-7.55387e-08
2.06348e-06
-7.51865e-08
2.12803e-06
-6.45481e-08
2.16592e-06
-3.78922e-08
2.15805e-06
7.87272e-09
2.08649e-06
7.15539e-08
1.9409e-06
1.45592e-07
1.71891e-06
2.2199e-07
1.4342e-06
2.84708e-07
1.0792e-06
3.55001e-07
6.15849e-07
4.63351e-07
1.45594e-08
6.0129e-07
-7.27314e-07
7.41874e-07
-1.58335e-06
8.5604e-07
-2.50837e-06
9.25012e-07
-3.45221e-06
9.43845e-07
-4.36967e-06
9.17457e-07
-5.2258e-06
8.5613e-07
-5.99699e-06
7.7119e-07
-6.66903e-06
6.72038e-07
-7.23337e-06
5.6434e-07
-7.68615e-06
4.52785e-07
-8.02808e-06
3.41934e-07
-8.26204e-06
2.33952e-07
-8.39121e-06
1.29169e-07
-8.42058e-06
2.93732e-08
-8.36699e-06
-5.35927e-08
-8.24245e-06
-1.24536e-07
-8.05526e-06
-1.87188e-07
-7.81269e-06
-2.42577e-07
-7.52181e-06
-2.90872e-07
-7.1903e-06
-3.3151e-07
-6.82634e-06
-3.63961e-07
-6.43836e-06
-3.87979e-07
-6.03438e-06
-4.03984e-07
-5.6219e-06
-4.12476e-07
-5.20805e-06
-4.13851e-07
-4.79922e-06
-4.08837e-07
-4.40078e-06
-3.98434e-07
-4.01703e-06
-3.83752e-07
-3.65108e-06
-3.65955e-07
-3.30487e-06
-3.46205e-07
-2.97931e-06
-3.25561e-07
-2.67437e-06
-3.04945e-07
-2.38917e-06
-2.85198e-07
-2.12219e-06
-2.66978e-07
-1.87134e-06
-2.50855e-07
-1.63405e-06
-2.3728e-07
-1.40744e-06
-2.26618e-07
-1.18903e-06
-2.18403e-07
-9.77965e-07
-2.11069e-07
-7.74079e-07
-2.03886e-07
-5.76845e-07
-1.97235e-07
-3.84411e-07
-1.92433e-07
-1.9222e-07
-1.92191e-07
5.04344e-09
-1.97264e-07
2.08819e-07
-2.03776e-07
4.15173e-07
-2.06354e-07
6.2177e-07
-2.06598e-07
8.31736e-07
-2.09966e-07
1.04795e-06
-2.16213e-07
1.2702e-06
-2.2225e-07
1.49624e-06
-2.26042e-07
1.72272e-06
-2.2648e-07
1.94588e-06
-2.23159e-07
2.16183e-06
-2.15948e-07
2.36663e-06
-2.04806e-07
2.55688e-06
-1.90246e-07
2.73025e-06
-1.73376e-07
2.88433e-06
-1.54074e-07
3.01703e-06
-1.32705e-07
3.12695e-06
-1.09922e-07
3.21333e-06
-8.6376e-08
3.27592e-06
-6.25881e-08
3.315e-06
-3.90852e-08
3.3308e-06
-1.57921e-08
3.32431e-06
6.48167e-09
3.30092e-06
2.33971e-08
3.26266e-06
3.82541e-08
3.21246e-06
5.01983e-08
3.15242e-06
6.00455e-08
3.0843e-06
6.81165e-08
3.00958e-06
7.47268e-08
2.92935e-06
8.02241e-08
2.84441e-06
8.49422e-08
2.75527e-06
8.91385e-08
2.66227e-06
9.30061e-08
2.56555e-06
9.67111e-08
2.46566e-06
9.98918e-08
2.36252e-06
1.03143e-07
2.25593e-06
1.06587e-07
2.14578e-06
1.10153e-07
2.03263e-06
1.13149e-07
1.91892e-06
1.13714e-07
1.81021e-06
1.08706e-07
1.7155e-06
9.47065e-08
1.64538e-06
7.01251e-08
1.60793e-06
3.74444e-08
1.60775e-06
1.86021e-10
1.63676e-06
-2.90175e-08
1.67666e-06
-3.98908e-08
1.69075e-06
-1.40919e-08
1.63417e-06
5.65761e-08
1.47696e-06
1.57208e-07
1.20025e-06
2.76709e-07
8.02208e-07
3.98046e-07
3.00702e-07
5.01506e-07
-2.60005e-07
5.60707e-07
-8.25865e-07
5.6586e-07
-1.34182e-06
5.15957e-07
-1.74946e-06
4.07638e-07
-1.99919e-06
2.49735e-07
3.56845e-10
-1.99955e-06
4.09033e-08
-4.36706e-08
1.02672e-07
-8.05908e-08
1.90374e-07
-1.29139e-07
3.05686e-07
-1.83564e-07
4.46256e-07
-2.36133e-07
6.06931e-07
-2.80967e-07
7.8078e-07
-3.15305e-07
9.60344e-07
-3.38947e-07
1.14008e-06
-3.52614e-07
1.3166e-06
-3.56902e-07
1.48742e-06
-3.5299e-07
1.65064e-06
-3.42411e-07
1.80486e-06
-3.26738e-07
1.94911e-06
-3.07384e-07
2.0828e-06
-2.85518e-07
2.2056e-06
-2.62058e-07
2.31736e-06
-2.37689e-07
2.41807e-06
-2.12889e-07
2.50776e-06
-1.8797e-07
2.58651e-06
-1.63132e-07
2.65443e-06
-1.38568e-07
2.71181e-06
-1.14544e-07
2.75913e-06
-9.13322e-08
2.79699e-06
-6.91068e-08
2.82613e-06
-4.79645e-08
2.84747e-06
-2.79777e-08
2.86225e-06
-9.3177e-09
2.87214e-06
7.88731e-09
2.87759e-06
2.37078e-08
2.87925e-06
3.78868e-08
2.878e-06
5.03816e-08
2.87454e-06
6.10814e-08
2.86955e-06
6.98767e-08
2.86348e-06
7.66743e-08
2.85671e-06
8.13908e-08
2.84936e-06
8.39573e-08
2.84139e-06
8.43496e-08
2.8326e-06
8.26101e-08
2.82269e-06
7.88734e-08
2.81132e-06
7.34395e-08
2.79814e-06
6.67639e-08
2.78289e-06
5.93808e-08
2.76546e-06
5.18302e-08
2.74592e-06
4.4732e-08
2.72441e-06
3.87129e-08
2.70108e-06
3.42555e-08
2.67604e-06
3.16684e-08
2.64929e-06
3.09766e-08
2.6207e-06
3.19771e-08
2.59008e-06
3.4361e-08
2.55737e-06
3.76852e-08
2.52266e-06
4.14891e-08
2.48533e-06
4.53863e-08
2.44515e-06
4.88817e-08
2.402e-06
5.15475e-08
2.35684e-06
5.30492e-08
2.3115e-06
5.28498e-08
2.26741e-06
5.00326e-08
2.22556e-06
4.36679e-08
2.18798e-06
3.32872e-08
2.15649e-06
1.89183e-08
2.13187e-06
1.88505e-09
2.11711e-06
-1.89827e-08
2.11344e-06
-4.06444e-08
2.12201e-06
-6.24481e-08
2.14347e-06
-8.3973e-08
2.17708e-06
-1.03818e-07
2.21879e-06
-1.17246e-07
2.25908e-06
-1.15478e-07
2.2824e-06
-8.78672e-08
2.26842e-06
-2.39103e-08
2.19328e-06
8.30143e-08
2.02445e-06
2.40384e-07
1.72936e-06
4.4068e-07
1.28514e-06
6.66213e-07
6.6047e-07
9.09374e-07
-1.72524e-07
1.188e-06
-1.19311e-06
1.48394e-06
-2.33704e-06
1.74521e-06
-3.51952e-06
1.92436e-06
-4.65923e-06
1.99575e-06
-5.6936e-06
1.95938e-06
-6.58397e-06
1.83422e-06
-7.31455e-06
1.64804e-06
-7.88724e-06
1.42882e-06
-8.3153e-06
1.19925e-06
-8.61775e-06
9.74488e-07
-8.81586e-06
7.62453e-07
-8.9294e-06
5.66327e-07
-8.97404e-06
3.86568e-07
-8.96213e-06
2.22043e-07
-8.90379e-06
7.08266e-08
-8.80581e-06
-6.86062e-08
-8.6605e-06
-1.98903e-07
-8.46247e-06
-3.22568e-07
-8.21241e-06
-4.37241e-07
-7.91404e-06
-5.40948e-07
-7.57314e-06
-6.31772e-07
-7.19669e-06
-7.07958e-07
-6.79246e-06
-7.68188e-07
-6.3684e-06
-8.12042e-07
-5.93202e-06
-8.40364e-07
-5.49035e-06
-8.54149e-07
-5.04996e-06
-8.54243e-07
-4.61691e-06
-8.41879e-07
-4.19643e-06
-8.18913e-07
-3.79263e-06
-7.87556e-07
-3.40843e-06
-7.50154e-07
-3.04561e-06
-7.09023e-07
-2.70492e-06
-6.6625e-07
-2.38627e-06
-6.23593e-07
-2.08875e-06
-5.82725e-07
-1.8109e-06
-5.44822e-07
-1.55089e-06
-5.10866e-07
-1.30673e-06
-4.81442e-07
-1.07638e-06
-4.56973e-07
-8.57514e-07
-4.37264e-07
-6.46903e-07
-4.2168e-07
-4.41353e-07
-4.09436e-07
-2.38378e-07
-4.00209e-07
-3.58638e-08
-3.94948e-07
1.6738e-07
-3.95435e-07
3.72012e-07
-4.01896e-07
5.79243e-07
-4.11007e-07
7.91777e-07
-4.18888e-07
1.01088e-06
-4.25699e-07
1.23573e-06
-4.34817e-07
1.46562e-06
-4.46105e-07
1.70016e-06
-4.5679e-07
1.93805e-06
-4.63935e-07
2.1771e-06
-4.65524e-07
2.41437e-06
-4.60428e-07
2.64678e-06
-4.48363e-07
2.87168e-06
-4.29702e-07
3.08618e-06
-4.04749e-07
3.28665e-06
-3.73848e-07
3.46934e-06
-3.36764e-07
3.6306e-06
-2.93962e-07
3.76732e-06
-2.46639e-07
3.87698e-06
-1.96034e-07
3.95769e-06
-1.43297e-07
4.00876e-06
-9.01585e-08
4.03245e-06
-3.94792e-08
4.03373e-06
5.20205e-09
4.00489e-06
5.2236e-08
3.95403e-06
8.91092e-08
3.8843e-06
1.1993e-07
3.80033e-06
1.44014e-07
3.70604e-06
1.62406e-07
3.60438e-06
1.76391e-07
3.49742e-06
1.87181e-07
3.38655e-06
1.95809e-07
3.27269e-06
2.03006e-07
3.15656e-06
2.09128e-07
3.03895e-06
2.14325e-07
2.92013e-06
2.1871e-07
2.8006e-06
2.2268e-07
2.68061e-06
2.26572e-07
2.56023e-06
2.30535e-07
2.4395e-06
2.33874e-07
2.31913e-06
2.34092e-07
2.20161e-06
2.26225e-07
2.09298e-06
2.03337e-07
2.004e-06
1.59101e-07
1.94873e-06
9.27116e-08
1.9335e-06
1.54244e-08
1.95718e-06
-5.27031e-08
1.99496e-06
-7.76654e-08
2.00922e-06
-2.83533e-08
1.95444e-06
1.11358e-07
1.76856e-06
3.43085e-07
1.41493e-06
6.30337e-07
8.95704e-07
9.17271e-07
2.60903e-07
1.13631e-06
-4.06512e-07
1.22812e-06
-1.02893e-06
1.18827e-06
-1.5366e-06
1.02363e-06
-1.88589e-06
7.56933e-07
-2.05885e-06
4.22692e-07
1.03927e-08
-2.06888e-06
7.70978e-08
-1.20768e-07
1.82401e-07
-1.85894e-07
3.12657e-07
-2.59395e-07
4.6349e-07
-3.34397e-07
6.2776e-07
-4.00403e-07
7.98171e-07
-4.51378e-07
9.6863e-07
-4.85764e-07
1.1344e-06
-5.04717e-07
1.29223e-06
-5.10442e-07
1.44061e-06
-5.0528e-07
1.57909e-06
-4.91472e-07
1.70774e-06
-4.7106e-07
1.82681e-06
-4.45808e-07
1.9366e-06
-4.17177e-07
2.03742e-06
-3.86335e-07
2.12954e-06
-3.54181e-07
2.21321e-06
-3.21363e-07
2.28862e-06
-2.88295e-07
2.35583e-06
-2.55181e-07
2.41482e-06
-2.22119e-07
2.46562e-06
-1.89372e-07
2.5086e-06
-1.57525e-07
2.54435e-06
-1.27086e-07
2.57347e-06
-9.82203e-08
2.59648e-06
-7.0976e-08
2.61377e-06
-4.52644e-08
2.62579e-06
-2.13403e-08
2.63349e-06
1.89812e-10
2.63808e-06
1.91094e-08
2.64062e-06
3.53564e-08
2.64265e-06
4.8349e-08
2.6457e-06
5.8034e-08
2.65126e-06
6.4312e-08
2.66073e-06
6.72079e-08
2.67525e-06
6.68701e-08
2.69561e-06
6.35896e-08
2.72215e-06
5.78135e-08
2.7547e-06
5.00628e-08
2.79268e-06
4.08866e-08
2.83501e-06
3.11114e-08
2.88021e-06
2.15681e-08
2.92664e-06
1.29495e-08
2.97266e-06
5.80574e-09
3.01655e-06
8.4927e-10
3.0566e-06
-1.33984e-09
3.09134e-06
-4.84453e-10
3.11916e-06
3.85088e-09
3.13852e-06
1.16101e-08
3.14838e-06
2.21204e-08
3.14803e-06
3.47123e-08
3.13683e-06
4.88817e-08
3.11474e-06
6.35788e-08
3.08211e-06
7.80175e-08
3.03959e-06
9.14009e-08
2.98815e-06
1.02991e-07
2.92905e-06
1.1215e-07
2.86366e-06
1.18236e-07
2.79327e-06
1.2043e-07
2.71913e-06
1.17801e-07
2.64293e-06
1.09486e-07
2.567e-06
9.48498e-08
2.49522e-06
7.36669e-08
2.43023e-06
4.60091e-08
2.37636e-06
1.32207e-08
2.33688e-06
-2.29647e-08
2.31329e-06
-6.03778e-08
2.30336e-06
-9.38907e-08
2.29726e-06
-1.11147e-07
2.27569e-06
-9.39089e-08
2.21097e-06
-2.31466e-08
2.06976e-06
1.17302e-07
1.81469e-06
3.38086e-07
1.41366e-06
6.41409e-07
8.39372e-07
1.01497e-06
6.64983e-08
1.43909e-06
-9.15859e-07
1.89173e-06
-2.05266e-06
2.3248e-06
-3.24189e-06
2.67317e-06
-4.37604e-06
2.87937e-06
-5.37322e-06
2.92154e-06
-6.1913e-06
2.81383e-06
-6.82588e-06
2.59396e-06
-7.29889e-06
2.30722e-06
-7.64455e-06
1.9937e-06
-7.89753e-06
1.6818e-06
-8.0856e-06
1.38732e-06
-8.22693e-06
1.11581e-06
-8.331e-06
8.66529e-07
-8.40049e-06
6.35818e-07
-8.43327e-06
4.19347e-07
-8.42471e-06
2.13484e-07
-8.36845e-06
1.45691e-08
-8.26093e-06
-1.76129e-07
-8.09815e-06
-3.61686e-07
-7.88152e-06
-5.39197e-07
-7.61342e-06
-7.0534e-07
-7.29772e-06
-8.56652e-07
-6.94002e-06
-9.89465e-07
-6.54727e-06
-1.10071e-06
-6.1271e-06
-1.18836e-06
-5.68671e-06
-1.25244e-06
-5.23406e-06
-1.29302e-06
-4.77765e-06
-1.31056e-06
-4.32539e-06
-1.3065e-06
-3.88399e-06
-1.28328e-06
-3.45878e-06
-1.24413e-06
-3.05368e-06
-1.19265e-06
-2.67125e-06
-1.13259e-06
-2.31273e-06
-1.06754e-06
-1.97831e-06
-1.00067e-06
-1.66741e-06
-9.34496e-07
-1.37849e-06
-8.71644e-07
-1.10971e-06
-8.13599e-07
-8.58891e-07
-7.61687e-07
-6.23852e-07
-7.16481e-07
-4.0216e-07
-6.78665e-07
-1.91382e-07
-6.48043e-07
1.12613e-08
-6.24323e-07
2.08841e-07
-6.07016e-07
4.0409e-07
-5.95458e-07
5.99017e-07
-5.89875e-07
7.9451e-07
-5.90927e-07
9.90926e-07
-5.98312e-07
1.18964e-06
-6.09716e-07
1.39317e-06
-6.22424e-07
1.60317e-06
-6.35693e-07
1.81891e-06
-6.50561e-07
2.0393e-06
-6.66498e-07
2.26346e-06
-6.8095e-07
2.49054e-06
-6.91016e-07
2.71942e-06
-6.94397e-07
2.94851e-06
-6.89524e-07
3.17584e-06
-6.75684e-07
3.39888e-06
-6.52748e-07
3.61449e-06
-6.20354e-07
3.81891e-06
-5.78269e-07
4.00863e-06
-5.26489e-07
4.18075e-06
-4.66079e-07
4.3329e-06
-3.98791e-07
4.4632e-06
-3.26334e-07
4.57015e-06
-2.50252e-07
4.65242e-06
-1.72422e-07
4.70751e-06
-9.45705e-08
4.72967e-06
-1.69541e-08
4.72989e-06
5.20126e-08
4.70326e-06
1.15737e-07
4.6519e-06
1.71291e-07
4.5772e-06
2.18712e-07
4.48152e-06
2.58087e-07
4.36782e-06
2.90098e-07
4.23922e-06
3.15775e-07
4.09893e-06
3.36101e-07
3.95014e-06
3.51797e-07
3.79597e-06
3.63299e-07
3.63935e-06
3.70939e-07
3.48296e-06
3.75104e-07
3.32918e-06
3.7646e-07
3.17991e-06
3.75845e-07
3.0365e-06
3.73943e-07
2.8999e-06
3.70476e-07
2.77094e-06
3.63052e-07
2.65095e-06
3.46209e-07
2.54264e-06
3.11651e-07
2.45057e-06
2.51168e-07
2.38052e-06
1.62758e-07
2.33804e-06
5.79048e-08
2.31925e-06
-3.39063e-08
2.31004e-06
-6.84569e-08
2.27901e-06
2.67669e-09
2.16836e-06
2.22005e-07
1.92324e-06
5.88203e-07
1.50908e-06
1.0445e-06
9.41629e-07
1.48472e-06
2.88091e-07
1.78985e-06
-3.62037e-07
1.87825e-06
-9.39576e-07
1.76581e-06
-1.39444e-06
1.47849e-06
-1.70647e-06
1.06896e-06
-1.86761e-06
5.83833e-07
2.30298e-08
-1.88024e-06
1.09371e-07
-2.30139e-07
2.47602e-07
-3.24125e-07
4.02321e-07
-4.14113e-07
5.63667e-07
-4.95744e-07
7.22544e-07
-5.5928e-07
8.7308e-07
-6.01913e-07
1.01253e-06
-6.2522e-07
1.14018e-06
-6.32364e-07
1.25636e-06
-6.2662e-07
1.36192e-06
-6.10836e-07
1.45782e-06
-5.87375e-07
1.54495e-06
-5.58191e-07
1.62404e-06
-5.24898e-07
1.69568e-06
-4.8882e-07
1.76037e-06
-4.51025e-07
1.81853e-06
-4.12338e-07
1.87051e-06
-3.73337e-07
1.91651e-06
-3.34303e-07
1.95655e-06
-2.95214e-07
1.99049e-06
-2.56065e-07
2.01855e-06
-2.17425e-07
2.04155e-06
-1.80534e-07
2.06051e-06
-1.46042e-07
2.07593e-06
-1.1364e-07
2.08808e-06
-8.31288e-08
2.09726e-06
-5.44459e-08
2.10391e-06
-2.79878e-08
2.10855e-06
-4.44424e-09
2.11193e-06
1.57242e-08
2.11538e-06
3.19082e-08
2.12003e-06
4.36961e-08
2.12747e-06
5.05967e-08
2.13933e-06
5.24485e-08
2.15734e-06
4.92008e-08
2.18302e-06
4.11879e-08
2.21771e-06
2.89037e-08
2.26213e-06
1.33942e-08
2.31622e-06
-4.02802e-09
2.38022e-06
-2.31156e-08
2.45295e-06
-4.16214e-08
2.5332e-06
-5.86759e-08
2.61952e-06
-7.33763e-08
2.71014e-06
-8.48109e-08
2.80291e-06
-9.19229e-08
2.89557e-06
-9.40013e-08
2.98562e-06
-9.05265e-08
3.0706e-06
-8.11299e-08
3.14831e-06
-6.61082e-08
3.21637e-06
-4.59362e-08
3.27272e-06
-2.16397e-08
3.31393e-06
7.67309e-09
3.339e-06
3.851e-08
3.34689e-06
7.0123e-08
3.33718e-06
1.0112e-07
3.30999e-06
1.30176e-07
3.26614e-06
1.56004e-07
3.20706e-06
1.77313e-07
3.1347e-06
1.9279e-07
3.05134e-06
2.01163e-07
2.95952e-06
2.01302e-07
2.86209e-06
1.92279e-07
2.76233e-06
1.73428e-07
2.66387e-06
1.44467e-07
2.5712e-06
1.05896e-07
2.48902e-06
5.92151e-08
2.41959e-06
9.04819e-09
2.35781e-06
-3.21091e-08
2.28574e-06
-3.90753e-08
2.17324e-06
1.85899e-08
1.9809e-06
1.69192e-07
1.66645e-06
4.31753e-07
1.19305e-06
8.11481e-07
5.36593e-07
1.29787e-06
-3.13225e-07
1.86479e-06
-1.33612e-06
2.46198e-06
-2.45958e-06
3.01519e-06
-3.57354e-06
3.43876e-06
-4.56986e-06
3.66949e-06
-5.38121e-06
3.69071e-06
-5.99165e-06
3.53198e-06
-6.42697e-06
3.24915e-06
-6.73424e-06
2.90122e-06
-6.96147e-06
2.53446e-06
-7.1449e-06
2.17712e-06
-7.30499e-06
1.8419e-06
-7.4489e-06
1.53122e-06
-7.57507e-06
1.24199e-06
-7.67753e-06
9.68985e-07
-7.74867e-06
7.06958e-07
-7.78095e-06
4.51624e-07
-7.76759e-06
2.00129e-07
-7.7041e-06
-4.8918e-08
-7.58539e-06
-2.9484e-07
-7.41062e-06
-5.3646e-07
-7.17971e-06
-7.70112e-07
-6.89422e-06
-9.90823e-07
-6.55781e-06
-1.19306e-06
-6.17614e-06
-1.37114e-06
-5.75659e-06
-1.52026e-06
-5.30667e-06
-1.63827e-06
-4.83517e-06
-1.72394e-06
-4.35264e-06
-1.77554e-06
-3.8694e-06
-1.7938e-06
-3.39441e-06
-1.78148e-06
-2.93504e-06
-1.74266e-06
-2.49688e-06
-1.68229e-06
-2.08384e-06
-1.60569e-06
-1.69821e-06
-1.51822e-06
-1.34078e-06
-1.42497e-06
-1.01104e-06
-1.33041e-06
-7.08144e-07
-1.23739e-06
-4.29487e-07
-1.1503e-06
-1.72771e-07
-1.07032e-06
6.46109e-08
-9.99069e-07
2.858e-07
-9.3767e-07
4.93326e-07
-8.86191e-07
6.90056e-07
-8.44772e-07
8.78828e-07
-8.13095e-07
1.06234e-06