/*--------------------------------*- C++ -*----------------------------------*\
| =========                 |                                                 |
| \\      /  F ield         | OpenFOAM: The Open Source CFD Toolbox           |
|  \\    /   O peration     | Version:  2112                                  |
|   \\  /    A nd           | Website:  www.openfoam.com                      |
|    \\/     M anipulation  |                                                 |
\*---------------------------------------------------------------------------*/
FoamFile
{
    version     2.0;
    format      ascii;
    arch        "LSB;label=32;scalar=64";
    class       volScalarField;
    location    "0.3";
    object      ddt0(kU);
}
// * * * * * * * * * * * * * * * * * * * * * * * * * * * * * * * * * * * * * //

dimensions      [0 2 -3 0 0 0 0];

internalField   nonuniform List<scalar> 
12225
(
0.000316496
0.00385993
0.0147427
0.0350806
0.0938968
0.161861
0.235357
0.311029
0.387646
0.470296
0.576259
0.739833
1.01468
1.47036
2.18378
3.428
4.81241
16.4096
-0.0017666
-0.00680892
-0.0136144
-0.0207562
-0.0257484
-0.0282949
-0.0284535
-0.0268115
-0.0250055
-0.0265454
-0.0360032
-0.0577181
-0.0935539
-0.141991
-0.185309
-0.26087
-0.107256
0.00583443
0.000312444
-0.000398011
-0.00177121
-0.00202755
-0.00299732
-0.00494982
-0.00817256
-0.013112
-0.0210005
-0.0350285
-0.0618216
-0.112816
-0.205053
-0.360728
-0.608432
-0.978852
-1.51613
-2.27421
6.90237e-06
4.84317e-05
-0.00031386
-0.000981884
-0.00177116
-0.00245155
-0.00282357
-0.00152339
-0.000155129
0.000153212
-0.00315474
-0.0153161
-0.0458057
-0.10957
-0.228194
-0.429779
-0.754343
-1.26525
-5.88897e-05
0.000188079
0.00038738
0.000342772
1.03368e-05
-0.000603901
-0.00141995
-0.00212743
-0.00227686
-0.00128911
0.00126636
0.00509384
0.00828403
0.00629228
-0.00939371
-0.0524228
-0.143361
-0.315583
-0.000114626
4.66735e-05
0.000168511
7.48485e-05
-0.000258498
-0.000885766
-0.00191375
-0.00342758
-0.00540953
-0.0076273
-0.00949229
-0.0100403
-0.00826882
-0.00385752
0.00202559
0.00608922
0.00195374
-0.0213198
-0.000166445
-9.20697e-05
-9.77989e-06
-7.87119e-05
-0.000336531
-0.00084908
-0.00175671
-0.00324848
-0.00554641
-0.00888816
-0.0134443
-0.0191386
-0.0254109
-0.0310994
-0.0346289
-0.0345945
-0.0309868
-0.0253995
-0.000210115
-0.000207963
-0.000164928
-0.000237957
-0.000487113
-0.00097703
-0.0018331
-0.00323574
-0.00541791
-0.00867939
-0.0133847
-0.0199184
-0.0285863
-0.0394672
-0.0522566
-0.065938
-0.0791753
-0.0887261
-0.000247456
-0.000310195
-0.000316125
-0.000410951
-0.000668371
-0.00115407
-0.00198316
-0.00332567
-0.00540324
-0.00849994
-0.0129709
-0.0192332
-0.0277382
-0.0389375
-0.0532499
-0.0708653
-0.0916904
-0.0998168
-0.000280077
-0.000399493
-0.000455004
-0.000574702
-0.000840381
-0.00132289
-0.00213195
-0.00342892
-0.00542445
-0.00838403
-0.0126352
-0.0185634
-0.0265987
-0.0372044
-0.0508776
-0.0680569
-0.0889067
-0.0976168
-0.000308611
-0.000475217
-0.000576679
-0.000723376
-0.00100033
-0.00148328
-0.00227708
-0.00353225
-0.00544545
-0.00826181
-0.0122794
-0.0178465
-0.0253521
-0.0352142
-0.0478911
-0.0637652
-0.0828064
-0.0904115
-0.000331538
-0.000533854
-0.000672625
-0.000843875
-0.00113198
-0.0016154
-0.00239485
-0.00361028
-0.00544365
-0.00811948
-0.0119067
-0.0171163
-0.024093
-0.0332041
-0.0448498
-0.0593393
-0.0766067
-0.0834088
-0.000350513
-0.000580985
-0.000751228
-0.000945693
-0.00124546
-0.00172958
-0.00249466
-0.00366999
-0.00542132
-0.00795059
-0.0114954
-0.0163264
-0.0227384
-0.0310414
-0.041565
-0.054555
-0.0701162
-0.0765755
-0.000366987
-0.000621336
-0.00082007
-0.00103778
-0.00135013
-0.00183443
-0.0025821
-0.00371011
-0.00536502
-0.00772232
-0.0109844
-0.015377
-0.0211411
-0.0285232
-0.0377771
-0.0490791
-0.0626079
-0.0685678
-0.000377555
-0.000649044
-0.000870593
-0.00110914
-0.00143383
-0.00191755
-0.00264444
-0.00371731
-0.00526071
-0.00741999
-0.0103585
-0.0142529
-0.0192868
-0.0256394
-0.0334908
-0.0429552
-0.0541496
-0.0638967
-0.000376653
-0.000655116
-0.000891525
-0.00114689
-0.0014831
-0.00196592
-0.00266947
-0.00368016
-0.00509815
-0.00703591
-0.00961516
-0.0129621
-0.0172018
-0.0224483
-0.0288059
-0.0363317
-0.0451222
-0.054705
-0.000356637
-0.000627781
-0.000869379
-0.00113666
-0.00148303
-0.00196446
-0.00264202
-0.00358326
-0.00486203
-0.00655685
-0.00874793
-0.011513
-0.0149227
-0.0190332
-0.0238863
-0.0294835
-0.0358595
-0.042822
-0.000309393
-0.00055605
-0.000794567
-0.00107224
-0.0014312
-0.00191423
-0.00256595
-0.00343208
-0.0045586
-0.00599013
-0.0077676
-0.00992522
-0.0124875
-0.015465
-0.0188545
-0.0226246
-0.0267623
-0.031122
-0.000228707
-0.000430354
-0.000656604
-0.000942747
-0.00131505
-0.0017999
-0.00242321
-0.00320723
-0.00417025
-0.00532666
-0.00668523
-0.00824694
-0.0100038
-0.0119368
-0.0140176
-0.0162005
-0.0184507
-0.0206727
-0.000146011
-0.00030234
-0.000517451
-0.000812512
-0.00119562
-0.00167773
-0.00226793
-0.00297066
-0.00378552
-0.00470721
-0.00572481
-0.00682135
-0.00797345
-0.00915054
-0.0103164
-0.0114255
-0.0124386
-0.0132934
-8.5247e-05
-0.000214065
-0.000429949
-0.000738927
-0.00112993
-0.00161524
-0.0021913
-0.00283458
-0.0035295
-0.00426627
-0.00502634
-0.00578287
-0.00650445
-0.00715578
-0.00769905
-0.00809229
-0.0082987
-0.00827461
-3.94534e-05
-0.000154223
-0.000380233
-0.000709232
-0.00112367
-0.00158614
-0.00211178
-0.00269673
-0.00330255
-0.00390135
-0.0044676
-0.0049702
-0.00537441
-0.00564352
-0.00574074
-0.00562837
-0.00527294
-0.00464343
-8.9011e-06
-0.00011807
-0.00035526
-0.000681862
-0.0010904
-0.00156293
-0.00206226
-0.00255816
-0.00304921
-0.00350692
-0.00389962
-0.00418943
-0.00433915
-0.00431069
-0.00406751
-0.00357573
-0.0028058
-0.00173141
9.23294e-06
-0.000107254
-0.000354923
-0.000703124
-0.00111622
-0.00160237
-0.00209528
-0.00255954
-0.00298695
-0.00334157
-0.00358595
-0.00368182
-0.0035951
-0.0032954
-0.00275166
-0.00193163
-0.000818063
0.000603823
1.29692e-05
-0.000123487
-0.000380122
-0.000710515
-0.00107479
-0.00148278
-0.00191554
-0.00232581
-0.0026617
-0.00291179
-0.00303525
-0.00299948
-0.00276746
-0.00229907
-0.00156375
-0.000536463
0.000816095
0.00250087
8.14873e-06
-0.00017851
-0.000508184
-0.00090847
-0.00135195
-0.001761
-0.00211885
-0.00242764
-0.00263753
-0.00271779
-0.00264789
-0.00240376
-0.00195892
-0.00129735
-0.000387109
0.00076833
0.00246345
0.00451371
4.03135e-06
-0.000113556
-0.000262598
-0.000406902
-0.000515284
-0.000550231
-0.000528237
-0.000479284
-0.000309467
-0.00019702
-0.000154628
-0.000166143
-0.000200521
-0.000213682
-0.000147115
5.49847e-05
0.000131022
0.000411657
-0.000136269
-9.21589e-05
0.000169822
0.00053277
0.000859684
0.00102239
0.000941441
0.000495331
0.000289455
0.000208266
5.88549e-05
-0.000403448
-0.00147106
-0.0034664
-0.0067375
-0.0116223
-0.0184922
-0.0276532
0.000612405
0.00241161
0.00474242
0.0067663
0.00759873
0.00667119
0.00362381
-0.00193145
-0.0105237
-0.0228376
-0.0396341
-0.061742
-0.0900641
-0.125547
-0.16918
-0.221905
-0.284612
-0.357734
-9.37442e-05
-0.0012579
-0.0051007
-0.0125273
-0.0298147
-0.047815
-0.064274
-0.0769443
-0.0834884
-0.0813044
-0.0675653
-0.0393477
0.00628725
0.0722435
0.161398
0.276524
0.420234
0.595378
3.90328
-11.53
-20.8684
-30.3428
-46.6669
-51.4009
-49.5608
-42.0755
-41.2993
-41.7263
-43.2005
-45.9762
-50.3488
-56.9583
-65.866
-63.1415
-57.9154
-49.0458
-34.8414
-2.103
68.9066
157.923
240.979
259.386
65.0334
-16.7264
-46.0215
-67.4586
-72.0012
-28.9345
-7.75444
0.657977
9.35285
51.3521
85.1748
77.1858
34.5206
-40.5888
-168.071
-367.318
-522.451
-407.263
-368.625
-315.334
-253.986
-190.827
-129.306
-70.8581
-16.5014
32.9053
52.4266
68.5752
81.3576
91.0463
99.0951
107.064
115.272
109.808
105.18
101.208
97.5445
94.094
90.8335
87.7644
84.8691
82.098
79.3588
76.5558
73.5883
70.3928
66.9264
63.157
59.0429
54.5255
49.5195
43.8989
37.4705
29.9388
20.8242
9.33919
-5.83968
-27.177
-49.479
-61.8546
-69.7566
-78.2821
-85.7603
-92.1597
-97.401
-101.366
-103.877
-104.699
-103.565
-100.13
-93.8753
-83.8386
-66.7712
-31.2129
20.0974
75.8059
139.306
210.04
282.117
342.001
370.124
349.931
282.567
192.867
113.791
63.0901
38.4332
29.6782
27.7284
27.1453
26.2755
25.0766
23.9158
23.055
22.4338
21.6797
20.2887
17.7932
13.7674
7.68091
-1.34486
-14.8061
-34.5812
-59.5473
-76.3658
-53.6798
-13.719
27.3023
66.6053
103.059
113.172
121.236
158.251
203.629
209.512
170.858
93.3083
-65.2006
-248.313
-389.37
-342.408
-267.619
-131.819
57.9397
151.658
222.609
271.406
302.863
285.081
258.773
222.442
172.001
96.2614
-31.051
-342.069
-527.838
-634.283
-675.971
-686.777
-628.407
-495.659
-242.504
1.13533
173.687
305.212
391.049
415.307
382.306
327.561
288.922
268.162
228.708
170.083
103.777
68.1947
76.5636
17.4425
-2.31408
-21.2555
-90.964
-57.8871
-39.7983
-30.7377
-25.4749
-21.7312
-18.803
-16.7403
-15.6059
-15.3519
-15.8655
-17.1938
-29.0002
-42.0918
-53.7926
-61.5159
-61.2284
-46.82
-16.8287
21.9307
66.327
99.2506
109.593
95.4095
0.367047
-68.4366
-49.9313
9.38335
53.389
9.4975
-106.468
-257.548
-373.97
-277.723
-88.6626
-59.3827
-63.2548
-46.9944
-2.43955
36.4698
71.625
100.209
120.817
133.138
137.489
134.533
125.479
111.539
95.1548
77.3004
59.2806
42.2027
25.8205
8.66984
7.75235
7.26322
7.10042
7.22912
7.59404
8.15649
8.89888
9.86495
11.1855
12.1575
13.3338
14.6722
16.2367
18.0172
19.9299
21.8422
23.539
24.726
25.2063
24.7328
23.1572
20.493
16.9442
12.8605
8.35317
4.07511
1.18811
-1.33655
-3.39579
-4.74015
-6.31614
-7.96842
-9.50373
-10.9351
-12.3348
-13.811
-15.507
-17.6397
-20.6751
-26.1503
-41.1012
-60.7163
-69.0834
-65.9834
-55.7217
-39.018
-17.4052
5.57239
24.3122
33.7413
32.9404
25.7406
17.6076
12.5815
11.3859
13.5037
15.1408
16.2506
17.2312
18.1928
19.1156
20.0634
21.2687
23.0182
25.4095
28.1947
30.8555
32.4854
32.3404
29.0692
20.1785
3.78847
-26.4666
-36.8196
-12.4516
22.218
37.4515
30.7044
4.38201
-39.7972
-86.907
-114.185
-126.424
-124.319
-108.979
-56.2593
7.53267
65.8047
114.322
146.184
153.639
132.713
95.3471
51.8318
7.86431
11.5809
21.8191
39.0825
59.849
79.1253
99.3396
99.1318
81.7069
66.3409
45.1781
20.047
-7.78255
-43.7768
-135.892
-198.208
-206.593
-193.621
-176.141
-169.264
-176.882
-184.449
-159.731
-64.3845
113.422
306.151
386.174
311.938
186.445
25.0096
-28.0215
-112.017
-62.4467
-28.4195
-16.2002
-14.1616
-14.8109
-15.3542
-15.326
-14.9865
-14.6182
-14.3853
-14.3557
-14.5726
-17.5245
-22.5745
-30.3319
-39.6615
-47.5958
-49.9376
-43.5091
-28.4288
-4.35204
26.722
51.9872
50.8471
10.5314
-103.806
-136.741
-29.5663
-169.247
-238.154
-233.96
-130.381
-40.768
23.0568
54.3491
60.2235
65.7597
78.1901
92.9295
102.947
106.972
104.365
95.81
82.9671
67.957
52.847
39.2472
28.0802
19.6417
13.6714
9.63656
6.9065
5.12836
4.1049
3.22102
2.45111
1.77045
1.16654
0.630986
0.167112
-0.202304
-0.42058
-0.377809
0.102415
1.25462
2.20426
3.78857
6.14357
9.37545
13.5004
18.3073
23.0263
27.6512
31.5994
34.2759
35.2349
34.379
31.9442
26.7625
22.0869
18.5412
15.0737
11.784
8.93336
5.74996
2.6265
-0.159935
-2.52862
-4.47641
-6.04504
-7.30276
-8.33033
-9.2163
-10.0687
-11.0084
-12.3633
-15.5866
-22.3509
-28.6515
-32.8725
-34.627
-33.2193
-28.8388
-22.7292
-16.5335
-11.3876
-7.59056
-4.90643
-3.2085
-3.35473
-2.15162
-1.13031
-0.374835
0.295743
1.17702
2.56095
4.63575
7.40381
10.6216
13.8002
16.3514
17.8006
17.7927
16.0007
12.516
8.52772
5.64699
3.05331
-5.07605
-13.1881
-24.3918
-46.5982
-79.4764
-112.407
-130.367
-117.863
-78.6148
-33.7419
13.6879
50.7445
72.8392
83.7511
81.6889
67.1767
44.9129
22.6523
6.70952
-0.955724
-1.02621
-0.219998
6.95738
23.587
45.4981
73.1501
110.872
146.349
130.388
122.289
107.716
89.8055
67.4545
44.4049
24.2765
5.87778
-17.7963
-36.982
-54.729
-76.8812
-111.097
-163.237
-228.149
-280.579
-271.446
-148.477
70.5459
272.684
296.709
13.2426
-121.397
-54.9827
-20.0288
-10.3733
-11.7847
-15.1292
-16.9387
-16.9015
-15.7717
-14.2767
-12.8466
-11.7193
-11.0331
-10.829
-11.8578
-13.9252
-17.9183
-24.3679
-32.4067
-39.4594
-42.8067
-41.6948
-35.9939
-26.2463
-20.3497
-36.078
-105.316
-255.391
-480.515
-165.657
60.1739
-12.5194
11.5088
55.0876
81.5438
90.5534
90.0974
87.3672
86.9523
87.7333
86.3671
80.854
71.4921
59.6816
47.2874
35.8922
26.4095
19.0857
13.7066
9.84845
7.07694
5.05984
3.61697
2.68898
1.24242
0.580452
-0.0416351
-0.687071
-1.4124
-2.27323
-3.31637
-4.57296
-6.05155
-7.73003
-9.54801
-11.3989
-13.1193
-14.4815
-15.1837
-14.8545
-13.0584
-9.30106
-3.01704
2.94119
10.0831
17.7618
25.0425
30.9394
34.8281
36.4343
32.7045
30.6115
28.594
26.3148
24.1781
21.1965
17.7929
14.1935
10.5743
7.09539
3.89108
1.05361
-1.37725
-3.41193
-5.0926
-6.46717
-7.58447
-8.50187
-9.29918
-10.1418
-11.5358
-14.0314
-16.5093
-18.4974
-19.6328
-19.4878
-18.0195
-15.5649
-12.6457
-9.77055
-7.37843
-5.98462
-6.04643
-6.13058
-5.97499
-5.45464
-4.56474
-3.39633
-2.06659
-0.66426
0.732194
1.99797
2.95296
3.38387
3.00374
1.50913
-0.900914
-2.92646
-3.08673
-2.29546
-5.25494
-19.0526
-45.3696
-82.7056
-116.875
-125.152
-98.9395
-52.7973
-11.834
15.7821
35.8972
43.8718
45.6805
42.2788
35.0221
25.8871
16.5158
7.84573
0.0516438
-7.38488
-13.196
-21.6933
-24.7259
-19.6344
-3.35159
26.8733
71.1547
140.986
149.794
146.738
134.956
116.527
90.17
64.0994
41.5317
23.3164
9.12167
-1.77846
-9.84969
-18.1096
-33.969
-67.9611
-124.396
-196.509
-260.49
-282.983
-219.397
-37.6142
172.677
-133.636
-65.9406
-19.8682
-10.6953
-14.6523
-19.3014
-20.9359
-19.7501
-17.0359
-13.9431
-11.0893
-8.69254
-6.90824
-5.89438
-5.59618
-6.25941
-7.91327
-10.9499
-16.0331
-23.4296
-32.0949
-40.3633
-48.5941
-58.9215
-72.4972
-110.606
-233.534
-472.81
-521.388
231.126
201.583
135.003
101.746
99.6932
99.9563
95.8207
89.2475
82.8476
77.6365
72.8242
66.6929
58.3235
48.2672
37.8524
28.3096
20.3693
14.2127
9.64602
6.31763
3.87465
2.03704
0.607587
-0.54781
-1.5101
-2.30264
-2.06994
-1.73429
-1.38239
-1.10817
-1.00597
-1.16622
-1.66998
-2.58477
-3.96044
-5.82409
-8.17301
-10.965
-14.1057
-17.4306
-20.6837
-23.5065
-25.4375
-25.9431
-24.4924
-20.6904
-14.43
-6.01885
3.50564
12.8995
20.9932
26.3274
26.2324
26.9865
27.0669
26.7385
26.098
25.1093
23.6813
21.7459
19.293
16.3946
13.1999
9.90255
6.69501
3.72882
1.09338
-1.18432
-3.12523
-4.77281
-6.16837
-7.34973
-8.36239
-9.28426
-10.3549
-11.5687
-12.5201
-13.171
-13.3966
-13.1628
-12.5711
-11.8269
-11.1611
-10.7512
-10.7456
-10.7467
-10.636
-10.3004
-9.68657
-8.79752
-7.67936
-6.40559
-5.07512
-3.81923
-2.80357
-2.23892
-2.39502
-3.46098
-5.05082
-6.0166
-5.88938
-6.63676
-12.7264
-30.6781
-63.5906
-103.779
-123.589
-97.8058
-44.2259
-4.22973
8.66429
13.9464
17.2441
18.9141
22.0733
26.1621
28.942
27.6937
21.2927
10.5617
-2.86952
-17.7021
-31.5103
-46.5261
-57.2292
-62.0304
-57.7715
-38.9454
2.53699
80.5302
150.424
158.176
151.47
130.497
103.409
76.0869
51.8134
31.8106
16.0524
4.00901
-4.93026
-11.4956
-17.1526
-26.4862
-51.3779
-97.9893
-161.617
-224.23
-260.896
-221.655
-56.0432
-189.697
-33.7456
-8.70195
-15.5459
-23.0003
-25.3977
-23.6488
-19.5995
-14.905
-10.6473
-7.19077
-4.40099
-2.34551
-1.49498
-1.73239
-2.97823
-5.22073
-8.36812
-13.194
-20.7344
-31.0109
-43.3364
-59.2013
-85.645
-150.439
-285.846
-468.827
-496.712
183.243
317.934
221.098
155.773
121.175
102.88
90.2791
80.475
72.475
65.4014
58.2621
50.2476
41.2236
31.8032
22.9025
15.2186
9.03773
4.30241
0.769627
-1.84399
-3.77944
-5.21072
-6.25123
-6.9657
-7.37789
-7.48505
-6.22088
-4.74529
-3.19899
-1.67385
-0.279604
0.870656
1.6689
2.01996
1.84643
1.09026
-0.28724
-2.30445
-4.95662
-8.21015
-11.9916
-16.1655
-20.5031
-24.639
-28.0362
-29.9837
-29.7116
-26.6602
-20.5637
-12.5255
-3.59197
4.97176
10.6237
13.2142
15.479
17.1208
18.4442
19.6295
20.6919
21.5279
21.9598
21.7984
20.9128
19.2789
16.9898
14.2292
11.2237
8.19354
5.31414
2.69552
0.381382
-1.63399
-3.38031
-4.88857
-6.17852
-7.26873
-8.19834
-9.09268
-9.83183
-10.3432
-10.6484
-10.8095
-10.8806
-10.923
-10.9807
-11.0849
-11.1542
-11.1
-10.875
-10.4531
-9.83989
-9.06446
-8.16603
-7.19375
-6.22806
-5.41738
-5.00704
-5.31963
-6.50166
-7.92522
-8.63432
-9.43154
-13.1604
-23.7449
-45.369
-78.4484
-108.999
-104.233
-54.5065
-4.5146
8.47161
-2.82172
-4.90577
-1.50032
8.22153
22.5159
35.3405
41.0442
37.472
25.9643
9.39705
-9.39954
-28.55
-46.4093
-63.1998
-77.9346
-90.2352
-97.5215
-93.7932
-68.2665
-3.40921
107.036
145.962
153.929
138.539
112.515
84.6182
59.2862
38.1325
21.2859
8.30041
-1.36022
-8.26159
-13.2047
-17.7506
-26.3383
-48.6159
-90.7373
-149.139
-211.266
-252.716
-202.055
-129.91
1.44098
-8.75562
-24.6616
-30.6698
-29.668
-24.7688
-18.5466
-12.7784
-8.10291
-4.61124
-1.62282
1.10519
2.23639
2.11356
-3.03409
-8.29336
-13.1994
-19.2724
-28.2061
-40.5543
-59.9134
-103.048
-172.968
-299.934
-408.572
-354.35
67.4925
315.866
268.505
183.671
130.765
100.306
82.4601
70.8041
61.9768
53.9706
45.7273
36.9407
27.8529
19.0316
11.0782
4.38952
-0.926899
-4.98572
-8.00702
-10.2153
-11.7768
-12.7747
-13.2199
-13.0985
-12.448
-11.4112
-10.1559
-8.08952
-5.87495
-3.5762
-1.27881
0.909418
2.86639
4.46987
5.60809
6.18565
6.12385
5.36102
3.86098
1.62441
-1.31003
-4.88184
-9.01223
-13.6108
-18.5148
-23.3976
-27.5751
-29.98
-29.6375
-25.5969
-19.1287
-11.2545
-3.82381
0.314513
3.06968
5.14803
6.85547
8.47371
10.2142
12.1767
14.3193
16.4624
18.3347
19.6473
20.1733
19.806
18.577
16.6318
14.1837
11.4639
8.68354
6.0081
3.54468
1.34194
-0.59614
-2.28705
-3.74928
-4.99503
-6.03164
-6.87752
-7.5878
-8.15824
-8.58594
-8.90854
-9.16399
-9.38458
-9.60573
-9.76554
-9.82027
-9.73396
-9.4911
-9.10215
-8.5989
-8.02429
-7.43033
-6.89993
-6.5913
-6.77318
-7.77283
-9.55109
-11.1638
-12.1741
-14.6595
-21.6052
-35.7809
-57.4147
-84.0377
-97.5317
-71.2635
-18.7368
8.60332
-2.66101
-23.6849
-21.0827
-6.01507
16.3152
38.2635
51.5735
52.908
43.5913
27.1456
7.36717
-12.6016
-31.1909
-48.747
-63.8154
-79.3519
-96.1393
-113.043
-125.241
-121.775
-82.1342
32.0525
116.768
148.198
143.637
120.3
91.8277
65.2122
42.9066
25.1774
11.5436
1.42916
-5.72437
-10.6185
-14.2753
-18.5464
-28.8128
-52.4177
-95.2469
-154.731
-220.334
-247.188
-35.3963
19.4476
-21.2467
-35.8458
-37.0197
-32.3868
-25.1684
-18.1828
-12.6798
-8.0712
-4.73435
-1.99584
1.28524
2.42917
-9.25488
-16.5296
-23.401
-30.7791
-37.6046
-48.4594
-66.6928
-102.809
-166.828
-252.674
-319.906
-264.132
5.26937
245.892
266.198
193.573
132.607
95.9648
74.9658
62.191
52.785
44.2071
35.4442
26.4371
17.577
9.36491
2.22583
-3.59785
-8.0738
-11.333
-13.5858
-15.0466
-15.8904
-16.2433
-16.1937
-15.8053
-15.0944
-13.9405
-12.0477
-9.44649
-7.47496
-5.31771
-2.99231
-0.577066
1.81759
4.06244
6.03458
7.63799
8.80426
9.4643
9.50708
8.78551
7.1807
4.6815
1.38145
-2.54078
-6.96959
-11.8563
-17.228
-22.6843
-27.0305
-28.9045
-26.7083
-20.8694
-12.799
-6.08575
-2.9399
-1.22335
-0.286484
0.397441
1.17467
2.29204
3.91001
6.07929
8.71288
11.5848
14.3677
16.7043
18.2914
18.9508
18.6579
17.5203
15.7266
13.4935
11.0304
8.52063
6.10813
3.88759
1.90299
0.157916
-1.36494
-2.68451
-3.81308
-4.76008
-5.54006
-6.17872
-6.70988
-7.16327
-7.55459
-7.88187
-8.12739
-8.26545
-8.27379
-8.14558
-7.89738
-7.57061
-7.22779
-6.95298
-6.8698
-7.17745
-8.17393
-10.1338
-12.7132
-14.7477
-16.5468
-20.9666
-30.2259
-45.2301
-62.0122
-78.0747
-74.97
-39.6465
-1.21561
1.86684
-22.3483
-41.203
-25.9322
4.20857
34.5212
56.4403
64.7744
60.1523
46.1855
27.2911
7.45507
-10.601
-26.034
-41.1643
-53.495
-67.5393
-84.9629
-106.497
-129.94
-146.981
-137.204
-52.4573
70.7666
131.439
144.324
126.959
98.6767
70.5725
46.8289
28.1317
13.9612
3.61689
-3.55562
-8.2768
-11.4863
-14.433
-19.6428
-33.1563
-61.9722
-110.613
-176.642
-237.051
50.0776
14.1945
-38.3466
-43.3648
-40.3842
-33.9073
-26.258
-20.0538
-15.5743
-11.0756
-6.83139
-6.75511
-9.4427
-17.2893
-22.7964
-29.2061
-36.0739
-43.3876
-53.2137
-69.9833
-99.5384
-145.394
-199.387
-232.805
-183.003
-10.0826
168.355
225.466
185.348
129.464
91.0883
68.6603
55.1125
45.2599
36.3422
27.4332
18.5822
10.2099
2.76794
-3.4129
-8.18014
-11.5705
-13.7705
-15.0405
-15.6342
-15.7472
-15.5027
-14.9641
-14.1596
-13.1019
-11.8071
-10.3784
-9.07891
-7.16005
-5.80582
-4.14263
-2.16505
0.0596607
2.38953
4.62977
6.58612
8.1416
9.31429
10.2247
10.9166
11.2193
10.7612
9.20447
6.42719
2.70124
-1.62373
-6.2577
-11.5394
-17.5561
-23.3275
-27.0581
-27.2437
-21.436
-12.6082
-6.2278
-2.70656
-1.33489
-1.24212
-1.6661
-2.06225
-2.0774
-1.48553
-0.157963
1.9264
4.66007
7.80459
11.0204
13.9269
16.1815
17.5544
17.9699
17.4958
16.2932
14.559
12.4886
10.2607
8.02928
5.9132
3.98501
2.26952
0.75657
-0.57826
-1.75656
-2.79129
-3.69089
-4.46585
-5.12996
-5.69532
-6.16423
-6.52593
-6.76434
-6.87398
-6.85652
-6.72699
-6.53537
-6.37022
-6.36189
-6.69424
-7.62664
-9.49132
-12.4706
-15.8976
-18.565
-21.4899
-27.5242
-37.2582
-48.1143
-58.2812
-63.6658
-50.4446
-18.9438
-0.206399
-13.8035
-40.9646
-49.9055
-18.8856
22.3506
53.5726
70.7262
72.9973
63.463
46.6145
27.1701
8.789
-6.75842
-19.2583
-31.8644
-41.7551
-53.194
-68.3479
-89.4504
-117.11
-147.295
-163.512
-120.129
12.1683
103.208
139.149
131.866
105.341
75.903
50.4541
30.5679
15.8146
5.34228
-1.69285
-6.15197
-8.98973
-11.2956
-14.573
-22.8115
-42.18
-79.6027
-138.15
-207.626
87.0669
-8.2368
-49.0148
-46.7466
-41.7862
-35.5365
-28.6349
-23.4959
-19.8743
-16.9408
-15.0899
-15.5046
-18.9731
-27.3221
-28.5958
-35.5616
-43.4711
-53.7041
-68.7814
-91.2542
-120.987
-150.629
-159.166
-112.693
-2.03886
114.815
170.992
161.058
121.429
86.1625
63.6688
49.6778
39.4613
30.3855
21.5734
13.0959
5.35045
-1.24998
-6.41853
-10.0555
-12.2567
-13.2702
-13.4129
-12.9841
-12.2142
-11.2574
-10.2135
-9.15525
-8.13795
-7.19495
-6.33725
-5.45906
-4.33783
-4.25077
-3.8406
-2.9522
-1.50326
0.503103
2.92884
5.4749
7.71895
9.26457
9.98896
10.237
10.5169
11.0948
11.6574
11.4742
9.82955
6.63277
2.3363
-2.07903
-6.98845
-12.9761
-19.7893
-24.7238
-27.5701
-21.062
-13.8288
-6.92704
-2.29386
-0.254394
-0.135726
-1.04208
-2.23915
-3.22797
-3.68985
-3.42439
-2.3251
-0.388297
2.27071
5.41861
8.73093
11.8419
14.41
16.1865
17.0607
17.0626
16.3218
15.0122
13.3125
11.3897
9.39401
7.44941
5.64047
4.00472
2.5391
1.21879
0.0180215
-1.07832
-2.07478
-2.97052
-3.762
-4.44081
-4.98929
-5.40346
-5.67276
-5.79302
-5.79288
-5.72908
-5.70281
-5.90203
-6.58132
-8.07745
-10.7665
-14.7309
-19.0309
-22.518
-26.6259
-33.403
-41.3048
-45.9851
-48.7118
-46.4853
-31.2171
-10.6554
-8.62289
-30.4847
-53.9102
-48.9628
-4.28677
41.3948
68.8223
80.0213
77.1289
64.095
45.7257
26.7483
10.076
-3.62712
-14.3103
-24.991
-32.9582
-41.8087
-53.7589
-71.7151
-98.1929
-133.203
-166.356
-160.436
-47.5195
65.7819
127.592
134.409
111.649
81.3587
54.0808
32.7975
17.3583
6.76695
-0.0798884
-4.27015
-6.82913
-8.73998
-11.1133
-16.3534
-29.9355
-58.5626
-107.908
-175.738
109.919
-31.1703
-51.9756
-48.7972
-43.8681
-37.5722
-31.2232
-26.4514
-23.2289
-20.9656
-19.9155
-20.831
-23.1441
-25.5078
-31.7569
-39.756
-49.6904
-62.3408
-78.1009
-95.1228
-106.617
-99.0079
-58.1618
11.9947
82.6117
124.022
128.424
107.728
80.6501
59.7285
45.7147
35.2875
26.1893
17.6062
9.55512
2.37727
-3.53773
-7.90267
-10.6237
-11.8235
-11.793
-10.8958
-9.4772
-7.81237
-6.10274
-4.49415
-3.09116
-1.95925
-1.12837
-0.605473
-0.42838
-0.795371
-1.56087
-2.56573
-3.17577
-3.26826
-2.61756
-1.04018
1.5201
4.86136
8.39316
11.1773
12.3427
11.998
11.0438
10.5937
11.026
11.6025
11.2045
8.93182
4.84127
0.575306
-3.91717
-9.43966
-16.9326
-22.3538
-24.8441
-22.3892
-16.0722
-8.78348
-3.07151
0.0558602
0.891945
0.251367
-1.07546
-2.50338
-3.63627
-4.2071
-4.03925
-3.04001
-1.21463
1.32085
4.34532
7.56016
10.6325
13.2482
15.1679
16.2695
16.5567
16.1296
15.1371
13.739
12.0886
10.3261
8.57001
6.90413
5.36875
3.9646
2.66943
1.45851
0.317967
-0.752735
-1.74392
-2.63768
-3.41337
-4.05673
-4.54194
-4.86135
-5.03124
-5.11461
-5.24709
-5.63211
-6.59551
-8.56729
-11.9799
-16.8426
-22.0212
-26.4261
-31.5214
-37.9557
-42.0512
-39.937
-36.8396
-31.4142
-19.871
-11.1027
-20.0162
-44.0494
-59.7844
-40.7322
12.5086
57.3961
79.2965
85.1849
78.4225
63.0893
44.1762
26.1615
11.0581
-1.41988
-11.2046
-20.1893
-26.6633
-33.5628
-42.8295
-57.3204
-80.414
-114.511
-155.177
-177.054
-95.721
23.4639
110.092
134.239
117.392
86.9286
57.8255
34.9972
18.7671
8.00632
1.29487
-2.72704
-5.17494
-6.89782
-8.7452
-12.2552
-21.9026
-43.9857
-84.9882
-147.162
116.739
-38.8181
-53.6298
-50.1151
-45.183
-39.1865
-32.9914
-28.1047
-24.7217
-22.3619
-20.9151
-21.095
-24.5076
-26.0567
-32.7141
-40.9373
-50.3031
-59.7681
-66.7292
-66.1349
-51.5208
-19.8617
22.7533
62.912
89.1255
97.3417
89.7515
73.2304
56.151
42.8071
32.4623
23.5222
15.2712
7.63137
0.842204
-4.72803
-8.7406
-11.0334
-11.6928
-11.0149
-9.39569
-7.22451
-4.82755
-2.45941
-0.316152
1.45141
2.73715
3.48277
3.67461
3.3576
2.70298
2.15235
-0.292582
-1.90234
-3.41832
-4.60187
-5.17256
-4.75148
-2.96544
0.455963
5.30944
10.4985
13.9524
14.6653
13.198
11.3953
10.805
10.9945
11.125
9.62137
6.05056
1.80561
-2.42901
-7.45997
-13.6305
-19.8118
-23.5959
-22.9075
-17.9808
-11.1449
-5.0091
-1.005
0.755492
0.857291
-0.00207572
-1.26319
-2.522
-3.48075
-3.91466
-3.6653
-2.65114
-0.883836
1.52353
4.36652
7.37708
10.2615
12.744
14.6115
15.7495
16.1508
15.8939
15.1051
13.9249
12.4909
10.93
9.3491
7.82325
6.38827
5.04494
3.77401
2.55461
1.3768
0.245301
-0.821001
-1.80373
-2.67391
-3.40051
-3.96306
-4.36457
-4.6526
-4.95177
-5.50863
-6.70906
-9.05512
-13.0555
-18.6983
-24.7323
-30.0454
-35.7828
-40.9589
-39.9752
-32.2674
-25.7994
-20.7196
-15.0963
-15.6575
-30.5568
-52.9001
-59.2657
-28.7613
27.445
69.3572
85.627
87.3896
77.9184
61.2417
42.4673
25.612
11.8631
0.410091
-9.5461
-16.1218
-21.3734
-27.0382
-34.6175
-46.3857
-66.1541
-96.9629
-138.721
-173.402
-130.912
-18.6459
87.8994
131.271
122.401
92.5414
61.6966
37.2339
20.1283
9.11296
2.40277
-1.6367
-4.18051
-5.92026
-7.43709
-9.80236
-16.5713
-33.5325
-67.5265
-123.067
116.675
-40.122
-54.9832
-51.5417
-46.6137
-40.6338
-34.262
-28.9702
-25.2202
-22.8219
-21.6578
-21.2682
-20.9844
-24.1589
-28.7508
-33.5967
-37.1548
-37.2277
-31.2275
-17.3374
3.63303
27.5502
48.9993
64.2752
71.9076
71.3567
63.5096
51.8448
40.3212
30.5205
22.0355
14.329
7.20865
0.741785
-4.78441
-8.96369
-11.4704
-12.2372
-11.485
-9.61134
-7.04544
-4.16448
-1.27753
1.36802
3.5909
5.28079
6.38458
6.8894
6.79898
6.08409
4.71886
2.81154
1.09285
-0.827332
-2.73661
-4.62131
-6.29445
-7.29773
-7.21146
-5.33597
-1.0297
5.5421
11.7776
15.1825
14.9849
12.8562
11.4293
10.6812
10.5961
9.26117
6.24643
2.39302
-1.66047
-6.31301
-12.0768
-18.1253
-22.3011
-22.6176
-18.9494
-13.0934
-7.3226
-3.06892
-0.653379
0.266351
0.195056
-0.442237
-1.32376
-2.18408
-2.78837
-2.9393
-2.49606
-1.3922
0.352063
2.62804
5.2515
7.98806
10.5857
12.8107
14.4845
15.5118
15.8873
15.6776
14.9906
13.9484
12.6718
11.2714
9.8386
8.43509
7.08805
5.79561
4.5409
3.30798
2.09302
0.909817
-0.234074
-1.30143
-2.25644
-3.06758
-3.72212
-4.24969
-4.76022
-5.495
-6.87022
-9.48112
-13.9223
-20.1941
-27.014
-33.1272
-39.1379
-42.5651
-36.6119
-25.2112
-17.2582
-14.2363
-14.1809
-21.0843
-38.5407
-56.9252
-54.1615
-16.1218
38.8772
76.8438
89.1738
87.6254
76.3903
59.1019
40.8669
25.1278
12.4192
1.96838
-7.70146
-12.055
-16.1407
-21.0631
-27.9168
-37.9303
-55.1804
-82.67
-123.034
-160.099
-150.331
-55.8805
62.9093
125.69
126.56
98.1079
65.6504
39.5055
21.4584
10.0782
3.18314
-1.10204
-3.94881
-5.87687
-7.20109
-8.6765
-12.7606
-25.7855
-53.8483
-102.959
112.322
-39.4858
-55.9025
-52.9317
-48.0739
-42.0162
-35.1647
-29.0632
-24.427
-21.0764
-18.8432
-17.6098
-15.823
-16.0268
-16.3299
-15.6244
-12.6782
-6.53757
2.93245
14.6948
26.8671
37.7372
46.4905
52.6891
55.2691
53.0212
46.367
37.5924
28.9171
21.1887
14.3224
8.05773
2.21743
-3.1557
-7.72897
-11.0091
-12.6226
-12.532
-11.0267
-8.54721
-5.52209
-2.30955
0.79072
3.53515
5.75595
7.38283
8.43324
8.94919
8.92097
8.2597
6.78209
4.0512
2.37386
0.405188
-1.41122
-3.44919
-5.53075
-7.20965
-8.34111
-8.32822
-6.11342
-0.556111
6.59194
12.2313
14.3363
13.4039
11.6235
10.6346
10.2296
9.01259
6.22855
2.49321
-1.47481
-5.98395
-11.5123
-17.2687
-21.2536
-21.7791
-18.8526
-14.0357
-9.16318
-5.33574
-2.79861
-1.3297
-0.620086
-0.437017
-0.613056
-0.983471
-1.35667
-1.53189
-1.33572
-0.651018
0.567962
2.29066
4.41425
6.77721
9.18085
11.4159
13.2923
14.67
15.4794
15.725
15.4683
14.8032
13.8342
12.6639
11.3847
10.0697
8.76482
7.48661
6.22938
4.97835
3.72411
2.46845
1.2156
-0.00423303
-1.15354
-2.19283
-3.0957
-3.87249
-4.61032
-5.53147
-7.05204
-9.79974
-14.476
-21.2298
-28.7245
-35.4856
-41.4697
-43.1495
-33.944
-19.8654
-11.4789
-10.702
-14.9059
-25.7585
-43.4824
-56.8799
-46.5491
-4.8234
46.6663
79.5225
89.6824
88.3707
74.3605
56.992
39.4685
24.6971
12.7065
3.00148
-5.40825
-7.93148
-10.7601
-15.0886
-21.7721
-31.0634
-46.6619
-71.813
-106.929
-146.758
-157.204
-85.3151
37.3401
117.968
129.827
103.539
69.6175
41.7698
22.7263
10.8547
3.56843
-1.18622
-4.5054
-6.72897
-7.94917
-8.67539
-10.6805
-19.9874
-42.7813
-85.9202
104.191
-36.4267
-55.7165
-53.5694
-48.7621
-42.5722
-34.9914
-27.63
-21.626
-16.7865
-12.5714
-8.31652
-6.0546
-3.83163
-1.40135
1.73472
5.87913
10.9958
16.7005
22.5101
28.1826
33.7522
39.0078
42.886
43.7627
40.7793
34.7588
27.5429
20.6321
14.6104
9.41027
4.7046
0.18589
-4.20523
-8.13752
-11.0248
-12.3772
-12.0787
-10.3994
-7.79343
-4.67576
-1.37872
1.80386
4.62311
6.91219
8.61856
9.80336
10.5973
11.0285
10.5327
7.65566
4.62143
3.14062
1.27797
-0.402437
-2.39447
-4.38825
-6.04116
-7.33603
-8.05036
-7.37281
-4.18987
1.5245
7.70732
11.6033
12.3336
11.33
10.3789
9.80854
8.57451
5.92882
2.3529
-1.55281
-6.11621
-11.6423
-17.1069
-20.546
-20.6817
-17.9542
-13.9559
-10.1426
-7.15659
-4.97821
-3.35816
-2.10748
-1.16652
-0.539681
-0.203539
-0.0595155
0.0525509
0.306956
0.847016
1.75985
3.06853
4.73368
6.66086
8.7131
10.728
12.5391
14.001
15.0131
15.5345
15.5827
15.2176
14.5206
13.5793
12.4769
11.2859
10.0596
8.82767
7.59601
6.35571
5.09665
3.80928
2.4906
1.16306
-0.137626
-1.3693
-2.49624
-3.51195
-4.47837
-5.58631
-7.22498
-10.0228
-14.74
-21.7014
-29.7563
-37.016
-42.8142
-43.0088
-32.2286
-16.62
-8.07414
-8.9433
-16.053
-29.063
-45.5586
-53.9298
-38.1972
4.16675
51.1854
79.6342
88.7293
85.4286
72.3916
55.5986
38.9684
25.0035
13.32
3.25329
-3.32935
-4.00352
-5.58606
-9.20588
-15.3199
-24.5986
-39.4691
-62.9588
-95.4307
-133.954
-156.089
-106.16
13.2825
108.84
132.266
108.763
73.5207
43.9655
23.8763