/*--------------------------------*- C++ -*----------------------------------*\
| =========                 |                                                 |
| \\      /  F ield         | OpenFOAM: The Open Source CFD Toolbox           |
|  \\    /   O peration     | Version:  2112                                  |
|   \\  /    A nd           | Website:  www.openfoam.com                      |
|    \\/     M anipulation  |                                                 |
\*---------------------------------------------------------------------------*/
FoamFile
{
    version     2.0;
    format      ascii;
    arch        "LSB;label=32;scalar=64";
    class       volScalarField;
    location    "0.3";
    object      omegaU_0;
}
// * * * * * * * * * * * * * * * * * * * * * * * * * * * * * * * * * * * * * //

dimensions      [0 0 -1 0 0 0 0];

internalField   nonuniform List<scalar> 
12225
(
57529.9
82548.4
91207.8
92767.5
91344.9
88577.2
85073.3
81046.2
76558.1
71614
66206.7
60345.4
54078.9
47510.1
40762
34065
27150.2
21975.1
3486.95
7998.99
12387.9
16338.2
19759.3
22712
25315.1
27678.5
29888.1
31978.4
33940.5
35735.4
37302.9
38572.3
39480.6
39944.9
40000.2
39748.6
493.672
831.011
1407.75
2229.03
3259.76
4451.84
5769.26
7191.15
8709.18
10321.9
12028.3
13821.9
15687.3
17602.9
19536.8
21452.6
23300.7
25075.2
397.435
412.446
453.503
537.318
681.114
900.002
1208.63
1621.63
2152.93
2814.2
3614.36
4555.78
5628.69
6814.15
8087.08
9424.62
10802.4
12234.1
394.986
394.403
395.56
400.671
413.291
438.306
482.267
553.857
664.175
826.739
1057
1370.79
1781.54
2297.67
2919.58
3640.14
4447.43
5331.12
394.917
393.731
392.663
391.912
391.876
393.274
397.325
405.996
422.317
450.72
497.338
570.086
678.341
832.207
1041.41
1314.34
1657.41
2075.17
394.904
393.698
392.531
391.432
390.435
389.618
389.139
389.306
390.667
394.16
401.294
414.342
436.499
471.925
525.669
603.503
711.777
857.636
394.897
393.692
392.526
391.413
390.361
389.377
388.483
387.72
387.169
386.983
387.44
389.015
392.482
399.004
410.23
428.362
456.225
497.35
394.891
393.689
392.529
391.421
390.371
389.383
388.462
387.618
386.865
386.227
385.747
385.504
385.645
386.419
388.234
391.709
397.743
407.574
394.888
393.689
392.536
391.435
390.392
389.411
388.494
387.649
386.881
386.198
385.608
385.123
384.767
384.587
384.666
385.149
386.267
388.364
394.897
393.711
392.572
391.487
390.458
389.49
388.585
387.749
386.986
386.303
385.703
385.191
384.772
384.456
384.264
384.23
384.412
384.894
394.925
393.768
392.66
391.604
390.602
389.657
388.773
387.954
387.204
386.529
385.932
385.417
384.989
384.652
384.418
384.299
384.319
384.501
394.963
393.844
392.774
391.754
390.788
389.877
389.023
388.231
387.504
386.846
386.262
385.756
385.33
384.992
384.747
384.605
384.58
384.682
395
393.918
392.886
391.904
390.974
390.097
389.276
388.514
387.814
387.179
386.614
386.121
385.705
385.371
385.125
384.974
384.928
384.992
395.029
393.975
392.972
392.019
391.118
390.27
389.476
388.74
388.064
387.45
386.903
386.425
386.021
385.694
385.449
385.291
385.23
385.264
395.047
394.011
393.026
392.093
391.212
390.384
389.611
388.894
388.236
387.639
387.106
386.64
386.244
385.92
385.674
385.508
385.429
385.434
395.056
394.029
393.055
392.134
391.265
390.45
389.691
388.988
388.343
387.758
387.235
386.777
386.385
386.062
385.81
385.631
385.529
385.501
395.058
394.035
393.066
392.15
391.29
390.485
389.736
389.044
388.41
387.835
387.321
386.869
386.48
386.154
385.894
385.699
385.571
385.507
395.05
394.02
393.046
392.129
391.269
390.467
389.723
389.038
388.412
387.845
387.337
386.889
386.5
386.171
385.901
385.689
385.535
385.436
395.032
393.986
392.999
392.073
391.207
390.402
389.657
388.973
388.35
387.786
387.281
386.834
386.445
386.113
385.835
385.611
385.438
385.314
395.003
393.931
392.922
391.978
391.099
390.283
389.531
388.841
388.214
387.647
387.14
386.69
386.298
385.96
385.675
385.44
385.253
385.111
394.95
393.83
392.779
391.799
390.887
390.045
389.271
388.564
387.924
387.347
386.833
386.379
385.982
385.641
385.352
385.113
384.921
384.771
394.876
393.69
392.581
391.548
390.59
389.707
388.896
388.156
387.487
386.885
386.348
385.875
385.462
385.106
384.803
384.552
384.348
384.187
394.846
393.634
392.505
391.456
390.487
389.598
388.786
388.049
387.384
386.788
386.258
385.791
385.383
385.03
384.73
384.477
384.27
384.103
394.851
393.648
392.525
391.477
390.506
389.614
388.802
388.066
387.404
386.813
386.287
385.822
385.416
385.067
384.77
384.52
384.315
384.15
394.863
393.695
392.65
391.743
391.004
390.46
390.122
389.988
390.041
390.251
390.578
390.976
391.397
391.798
392.145
392.412
392.611
392.851
395.01
394.797
396.271
400.253
407.459
418.159
432.236
449.297
468.749
489.871
511.92
534.189
556.065
577.043
596.749
614.948
631.489
646.198
409.504
466.816
570.578
722.194
916.252
1140.93
1384.05
1634.9
1884.63
2126.38
2355.15
2567.63
2761.99
2937.52
3094.39
3233.62
3356.55
3466.11
1471.92
3339.91
5367.48
7339.45
9131.6
10695.7
12036.6
13179.6
14153.5
14985.6
15700
16316.8
16852.9
17322
17735.4
18103.1
18433.6
18735.6
37750.5
57786.7
67052.7
70784.1
71890.4
71793.7
71157.5
70291.8
69345.6
68392.8
67471.1
66600.1
65790
65045.6
64368
63756.3
63206.1
62718.5
7616.46
7750.83
8198.14
8772.84
9735.56
10678.8
11447.9
11963.6
12311.1
12653.9
13036.6
13490.8
14038.7
14701.6
15504.9
16295.9
16944.9
17410.1
17615.1
17427.6
16618.7
14799.5
11492.3
7065.88
4410.39
4274.45
4734.22
5336.85
6018.45
6530.03
6795.03
6865.88
6808.64
6486.64
5817.16
5043.02
4598.19
4905.32
6527.4
10120.9
15359.9
18935.6
21479.2
23536.6
25181.7
26467
27436.5
28128.4
28574.8
28802.9
28835.2
28690.9
28384.1
27924
27316.1
26565.7
25677.1
24696.8
23684.1
22631.9
21536
20395.6
19211.3
17985.6
16723.7
15434.3
14130.1
12827.5
11543.8
10295.1
9096.47
7961.87
6904.43
5936.16
5067.69
4308.04
3664.53
3142.72
2746.41
2477.89
2338.7
2332.47
2453.22
2651.53
2921.42
3251.03
3628.23
4041.81
4481.19
4936.36
5397.95
5857.4
6307.07
6740.36
7151.97
7538.4
7896.5
8208.79
8428.52
8564.03
8626.66
8621.66
8548.49
8402.42
8177.56
7874.66
7514.69
7147.09
6834.37
6617.45
6495.98
6442.45
6447.01
6499.65
6586.8
6696.03
6816.94
6942.74
7071.94
7208.74
7361.54
7540.45
7755.33
8015.38
8330.54
8716.02
9198.06
9807.74
10527.5
11176
11502.1
11558.1
11417.9
11132.9
10762.9
10420.3
9993.32
9279.52
8320.5
7368.81
6776.9
6861.28
7753.11
9337.37
11104
12644
13865.7
14615.3
14804.3
14406.7
13448.9
11993.5
10308.6
8624.37
7086.95
5852.47
5071.07
4878.89
5403.33
6443.29
7845.44
9471.85
11136.5
12669.3
13962.6
14928
15454.1
15673.5
15667.5
15498.3
15218.1
14857.6
14405.7
13800
12981.5
11996.7
11034.8
10276.4
9773.57
9220.4
8239.67
5978.8
6363.06
9864.14
11369.2
11434.5
10988.8
10407.6
9820.02
9268.94
8773.06
8343.25
7985.41
7701.38
7492.48
7513.74
7835.87
8420.21
9184.16
10004.5
10714.5
11094.8
10930.7
10177
9042.77
7810.29
6577.14
5789.45
5794.59
6061.5
6120.35
5874.48
5434.65
5654.29
6865.85
9369.63
12371.4
13604.4
14173.1
14687.8
15038.2
14910.8
14422.7
13665.8
12706.7
11609.2
10433.3
9232.91
8057.77
6951.19
5949.61
5081.01
4364.36
3810.62
3424.32
3201.98
3130.73
3136.89
3145.52
3155.53
3166.08
3176.5
3186.15
3194.39
3200.49
3203.55
3202.5
3195.99
3182.03
3156.73
3117.27
3064.24
2996.73
2914.72
2819.4
2713.19
2599.56
2482.63
2366.43
2254.08
2147.01
2045.35
1962.46
1892.11
1829.37
1774.21
1726.19
1684.66
1650.06
1622.01
1600.01
1584.01
1574.39
1571.86
1577.61
1594.02
1627.25
1698.67
1855.23
2085.04
2358.53
2656.04
2963.65
3267.17
3553.58
3809.24
4019.89
4177.93
4284.22
4344.48
4366.8
4365.48
4332.66
4261.31
4172.69
4080.96
3990.69
3899.04
3799.75
3687.14
3558.63
3415.46
3262.19
3105.87
2954.43
2819.32
2721.71
2689.85
2767.8
3036.22
3512.73
3922.21
4085.45
4039.91
3942.82
3877.05
3946.26
4226.88
4646.42
5129.47
5644.44
6160.55
6581.16
6758.41
6680.69
6348.6
5801.41
5119.55
4423.54
3847.44
3508.99
3474.88
3560.83
3635.37
3685.59
3697.73
3656.71
3546.49
3359.34
3165.42
2984.12
2854.16
2787.27
2799.11
2910.53
3213.64
3853.73
4658.74
5496.08
6290.45
7005.95
7625.12
8132.11
8489.41
8605.82
8321.23
7513.51
6322.95
5176.25
4412.45
7777.65
6097.83
10782.6
13384.8
12984.8
11700.9
10381.3
9261.78
8359.5
7640.11
7069.23
6620.68
6274.7
6016.21
5834.26
5735.39
5751.77
5925.15
6288.21
6831.96
7486.65
8122.7
8584.1
8755.39
8598.63
8152.87
7558.06
7002.42
6812.82
7122.99
7402.26
7839.17
9032.65
10495
11627.3
12319.9
12473.3
12150
11637.4
11004.7
10221.2
9281.85
8261.04
7227.59
6243.91
5361.11
4613.73
4017.62
3571.51
3260.85
3062.67
2950.71
2899.62
2887.69
2898.05
2918.88
2942.92
2967.56
2992.56
3017.79
3043.19
3068.71
3094.21
3119.43
3143.87
3166.7
3186.69
3202.12
3210.74
3209.88
3196.53
3167.6
3120.35
3052.88
2964.76
2857.55
2734.92
2602.28
2465.8
2331.01
2201.41
2081.57
1986.44
1901.6
1824.36
1754.23
1690.56
1632.5
1579.22
1530
1484.24
1441.48
1401.37
1363.72
1328.48
1295.73
1265.8
1239.32
1217.7
1205.84
1218.99
1266.22
1349.34
1467.47
1615.81
1783.8
1955.65
2114.26
2246.6
2345.07
2406.98
2435.51
2442.9
2440.12
2424.74
2402.01
2376.26
2349.32
2320.02
2284.97
2240.07
2182.41
2112.14
2033.49
1954.43
1884.97
1835.52
1816
1833.4
1889.25
1984.37
2134.93
2345.53
2570.79
2817.78
3132.06
3544
4028.69
4504.14
4877.58
5106.54
5175.25
5083.5
4856.21
4532.16
4168.89
3837.18
3599.45
3486.11
3484.67
3550.46
3633.43
3713.16
3784.72
3839.62
3865.44
3844.93
3754.78
3561.65
3321.39
3071.25
2819.07
2587.28
2392.23
2242.48
2140.8
2090.85
2127.07
2261.65
2478.61
2763.29
3120.42
3578.12
4164.61
4856.19
5524.65
5944.25
5884.62
5280.64
4400.79
6227.11
13984.2
16637.2
14855.1
12417.9
10334.4
8759.36
7601.9
6745.49
6103.81
5619.14
5251.93
4974.6
4768.99
4624.5
4548.02
4558.42
4665.63
4893.77
5265.53
5773.81
6361.87
6934.4
7396.13
7681.46
7773.76
7724.76
7675.52
7875.67
8989.81
10698.9
10997.4
11024
11132.4
10992.3
10575.3
9935.92
9158.66
8323.71
7455.39
6573.56
5718.01
4940.52
4279.58
3755.44
3368.73
3104.36
2938.48
2845.17
2801.18
2788.13
2792.94
2807.15
2825.79
2846.22
2867.06
2886.81
2905.41
2923.12
2940.37
2957.75
2975.95
2995.69
3017.63
3042.2
3069.46
3098.94
3129.48
3159.02
3184.55
3202.09
3206.84
3193.59
3157.37
3094.37
3003.07
2885.24
2746.17
2593.89
2437.38
2284.23
2148.37
2038.98
1940.79
1852.66
1773.57
1702.29
1637.72
1578.97
1525.31
1476.04
1430.53
1388.22
1348.6
1311.25
1275.88
1242.29
1210.38
1180.1
1151.58
1125.29
1102.77
1088.69
1087.67
1102.43
1133.74
1178.95
1231.81
1283.68
1326.1
1353.17
1362.7
1357.17
1345.31
1331.92
1318.04
1304.63
1292.38
1281.71
1272.79
1265.69
1260.57
1258.31
1261.13
1272.93
1298.82
1344.13
1412.94
1505.08
1613.9
1731.97
1865.93
2049.34
2313.62
2675.49
3130.93
3623.49
4053.66
4335.07
4446.87
4423.68
4313.31
4144.44
3942.67
3745.57
3590.02
3498.38
3471.09
3490.89
3534.95
3585.96
3634.5
3690.54
3753.55
3816.58
3868.61
3892.77
3862.87
3735.48
3504.71
3252.72
2984.66
2725.62
2495.6
2306.17
2160.63
2056.29
1987.46
1947.58
1931.36
1940.06
1988.97
2120.98
2394.04
2850.7
3467.59
4131.93
4659.44
4839.78
4532.87
11510.3
20587.8
17081
13072.2
10119
8141.31
6833.65
5956.05
5352.87
4925.44
4610.63
4368.33
4174.82
4019.15
3898.64
3822.22
3820.74
3902.12
4081.72
4380.98
4811.85
5354.3
5954.85
6554.56
7103.63
7575.63
8033.96
8792.63
10605.6
11669.9
11154.2
10612.5
10122.5
9594.03
8956.24
8225.41
7439.4
6639.24
5860.37
5129.37
4475.59
3926.99
3499.64
3191.92
2988.54
2867.03
2804.03
2779.44
2778.08
2789.65
2807.72
2828.57
2850.17
2871.4
2891.51
2908.12
2920.76
2929.41
2934.33
2936.12
2935.72
2934.41
2933.74
2935.43
2941.24
2952.78
2971.23
2997.03
3029.62
3067
3105.56
3139.92
3163.16
3167.31
3144.46
3088.39
2996.53
2871.34
2720.37
2554.4
2384.71
2238.57
2112.19
1998.37
1896.65
1805.95
1724.9
1652.14
1586.5
1527.02
1472.9
1423.5
1378.23
1336.54
1297.89
1261.81
1227.86
1195.74
1165.21
1136.17
1108.55
1082.41
1057.93
1035.72
1017.3
1003.78
995.526
992.052
991.632
991.797
990.204
985.448
977.547
968.369
960.425
954.255
950.325
949.054
950.864
956.243
965.85
980.726
1002.62
1034.36
1079.93
1143.96
1230.44
1340.28
1468.24
1603.42
1738.58
1884.22
2078.49
2366.77
2770.75
3250.29
3686.04
3953.81
4029.02
3982.6
3889.79
3790.44
3685.47
3587.87
3511.19
3461.61
3436.23
3426.73
3425.34
3429.18
3439.74
3458.36
3498.18
3558.79
3634.6
3717.08
3791.95
3834
3798.69
3625.58
3389.07
3121.13
2849.94
2600.62
2388.9
2221.18
2096.64
2010.22
1955.01
1923.85
1910.39
1911.02
1930.8
2002.81
2184.71
2524.64
3014.81
3574.65
4058.45
4249.08
28968.6
22485.5
14915.9
10254.3
7649.31
6212.76
5406.34
4926.09
4609.98
4376.35
4183.72
4010.55
3847.83
3699.01
3576.22
3492.27
3472.59
3530.02
3681.48
3949.25
4351.8
4885.28
5519.16
6218.94
6978.26
7824.4
8777.28
10510.4
11382.2
10818.2
9964.13
9184.19
8459.87
7745.16
7020.27
6293.95
5587.25
4927.12
4339.86
3846.25
3459
3178.93
2994.78
2887.52
2836.14
2821.82
2830
2850.6
2877.33
2906.56
2936.27
2965.24
2992.56
3017.39
3038.65
3052.72
3059.91
3059.98
3053.01
3039.44
3020.18
2996.61
2970.58
2944.39
2920.7
2902.41
2892.39
2893.2
2906.53
2932.7
2970.07
3014.59
3059.52
3095.48
3111.19
3095.32
3039.54
2941.58
2806.77
2645.81
2475.74
2326.39
2187.78
2060.67
1945.94
1843.26
1751.66
1669.86
1596.56
1530.58
1470.93
1416.84
1367.63
1322.76
1281.7
1243.93
1208.96
1176.32
1145.61
1116.53
1088.86
1062.47
1037.32
1013.41
990.811
969.8
950.786
933.796
918.613
905.001
892.68
881.497
871.559
863.334
857.551
854.559
854.667
858.177
865.428
876.886
893.303
915.968
947.059
989.972
1049.34
1130.36
1236.91
1368.16
1515.54
1666.64
1817.02
1981.55
2198.11
2504.81
2909.54
3337.96
3645.47
3745.74
3698.36
3618.07
3562.89
3528.37
3496.93
3464.75
3430.16
3391.57
3347.45
3298.31
3248.87
3207.74
3183.92
3182.62
3213.19
3272.68
3357.28
3462.68
3580.04
3689.25
3748.6
3674.74
3476.48
3221.39
2946.59
2685.55
2458.93
2275.83
2137.02
2038.29
1973.08
1934.13
1914.43
1908.34
1913.2
1934.37
1999.8
2157.49
2449.55
2873.3
3367.09
3779.31
39388.2
20588.9
11385.2
7452.13
5826.3
5141.59
4804.92
4586.62
4410.28
4249.34
4088.59
3918.36
3734.53
3547.5
3384.98
3290.96
3289.82
3381.65
3574.41
3885.94
4330.53
4901.86
5598.48
6426.93
7429.72
8568.45
9858.6
10650
10229.4
9312.69
8412.64
7611.12
6881.56
6194.72
5540.07
4926.39
4373.22
3901.48
3525.37
3248.49
3064.11
2957.55
2910.37
2904.35
2924.21
2958.63
3000.04
3043.81
3087.31
3129.05
3168.16
3203.95
3235.74
3262.73
3280.49
3290.73
3292.54
3285.1
3267.94
3241.01
3204.83
3160.5
3109.79
3055.12
2999.56
2946.78
2900.88
2866.1
2846.19
2843.87
2860
2893.02
2938.42
2987.93
3029.11
3046.44
3025.35
2957.41
2844.43
2696.11
2541.53
2393.25
2250.28
2116.31
1993.22
1881.55
1780.97
1690.65
1609.55
1536.64
1470.94
1411.63
1357.99
1309.4
1265.27
1225.06
1188.24
1154.32
1122.83
1093.35
1065.52
1039.08
1013.83
989.657
966.507
944.386
923.353
903.562
885.243
868.484
853.4
840.173
829.087
820.569
815.098
813.052
814.774
820.578
830.794
845.865
866.544
894.206
931.258
981.524
1050.24
1143.22
1264.39
1411.62
1574.53
1741.5
1911.5
2100.76
2338.55
2647.53
3015.24
3346.24
3513.25
3500.01
3420.83
3380.68
3393.39
3415.41
3421.13
3401.64
3356.14
3287.3
3200.08
3103.54
3011.29
2938.12
2895.16
2887.09
2914.39
2971.12
3055.84
3169.55
3311.02
3468.77
3608.35
3647.75
3518.72
3292.23
3021.52
2752.5
2514.02
2319.03
2169.69
2062.17
1989.93
1945.56
1921.85
1912.61
1913.68
1924.26
1952.43
2025.8
2186.98
2471.34
2875.35
3323.91
44560.3
16341.8
7969.15
5706.9
5095.24
4871.33
4716.83
4569.74
4428.88
4288.74
4132.58
3950.24
3735.95
3493.26
3328.43
3306.31
3391.95
3590.8
3889.18
4282.67
4768.79
5362.06
6108.41
7037.07
8102.76
9140.74
9740.94
9499.91
8686.95
7789.49
6983.91
6273.82
5632.78
5043.76
4508.36
4040.75
3656.66
3364.75
3163.56
3042.88
2987.27
2979.49
3003.47
3046.11
3097.88
3152.62
3206.85
3258.82
3307.82
3353.48
3395.36
3432.81
3464.98
3491.05
3509.48
3521.23
3524.57
3517.93
3500.07
3470.24
3428.29
3374.61
3310.2
3236.69
3156.58
3073.6
2992.81
2920.31
2862.22
2823.63
2807.51
2814.22
2841.94
2885.6
2934.75
2972.08
2977.63
2936.11
2844.14
2713.89
2575.15
2431.19
2289.32
2154.12
2028
1911.9
1805.91
1709.62
1622.36
1543.38
1471.95
1407.4
1349.09
1296.46
1248.95
1205.99
1167
1131.43
1098.75
1068.48
1040.21
1013.57
988.275
964.088
940.867
918.542
897.12
876.68
857.374
839.427
823.139
808.879
797.066
788.162
782.643
780.983
783.627
790.979
803.434
821.471
845.856
877.994
920.41
977.213
1054.14
1157.6
1291.73
1453.66
1632.55
1818.45
2011.55
2224.25
2469.61
2756.99
3057.74
3276.57
3332.77
3272.71
3221.33
3246.37
3317.4
3366.11
3372.34
3334.01
3256.47
3147.22
3017.3
2883.5
2765.58
2679.73
2634.05
2629.01
2655.79
2707.25
2784.07
2891.86
3037.02
3218.5
3413.07
3551.38
3516.05
3336.21
3079.65
2806.51
2557.57
2352.02
2194.08
2080.07
2002.97
1954.93
1928.41
1916.94
1915.8
1922.66
1939.1
1977.91
2068.67
2251.96
2555.54
2959.12
46009.4
11539.8
5933.5
5169.67
5008.72
4895.86
4770.13
4643.95
4529.69
4414.77
4271.05
4093.78
3904.07
3751.45
3704.18
3735.94
3878.73
4121.78
4448.84
4855.56
5358.1
5990.12
6769.05
7645.3
8452.45
8884.4
8719.66
8080.78
7275.98
6515.19
5844.84
5250.12
4716.06
4242.19
3839.24
3518.83
3285.54
3134.82
3054.94
3030.42
3045.06
3084.17
3135.97
3192.14
3247.64
3300.09
3348.89
3394.4
3437.27
3478
3516.68
3552.95
3585.85
3613.75
3638.73
3658.47
3670.39
3672.08
3661.69
3638.05
3600.89
3550.63
3488.06
3413.89
3328.71
3233.79
3132.49
3031.39
2939.19
2864.88
2814.51
2789.71
2789.83
2813.29
2854.02
2896.24
2916.79
2894.39
2819.17
2711.02
2581.56
2443.01
2304.32
2170.8
2045.12
1928.31
1820.51
1721.42
1630.6
1547.55
1471.78
1402.84
1340.3
1283.75
1232.74
1186.8
1145.4
1107.96
1073.9
1042.67
1013.77
986.798
961.388
937.257
914.18
892.013
870.696
850.265
830.848
812.664
796.02
781.311
769.011
759.653
753.807
752.06
755
763.182
777.12
797.371
824.747
860.688
907.807
970.437
1054.77
1167.83
1314.14
1490.71
1687.14
1894.45
2110.23
2336.67
2570.98
2815.39
3035.14
3154.88
3146.63
3090.86
3093.27
3179.2
3283.96
3331.85
3317.69
3249.19
3136.08
2989.7
2827.34
2672.25
2546.6
2463.53
2425.12
2426.73
2453.97
2499.78
2565.49
2659.34
2793.46
2976.65
3198.85
3407.43
3470.75
3353.82
3123.18
2851.04
2592.89
2376.95
2210.94
2091.52
2010.95
1960.54
1932.22
1919.3
1916.88
1922.09
1934.44
1959.12
2014.59
2134.44
2355.62
2691.33
45016.1
7709.18
5304.9
5162.54
5069.7
4962.88
4852.12
4754.33
4673.4
4593.34
4496.71
4385.24
4283.79
4228.75
4218.74
4286.96
4448.9
4698.53
5031.38
5453.69
5977.76
6601.12
7271.15
7849.01
8131.04
7992.59
7500.56
6835.22
6156.42
5538.9
4989.54
4500.5
4073.15
3716.87
3440.57
3246.07
3126.94
3070.73
3062.19
3085.89
3128.09
3177.92
3227.97
3274.17
3315.19
3351.61
3384.96
3417.06
3449.46
3483.12
3518.25
3554.23
3589.84
3626.41
3662.65
3695.32
3720.96
3736.16
3737.99
3724.47
3695.05
3650.84
3594.15
3527.25
3450.71
3363.19
3263.46
3154.32
3043.31
2942.65
2863.4
2810.09
2781.74
2778.84
2800.17
2834.01
2857.08
2843.67
2785.96
2689.72
2567.89
2434.08
2298.59
2167.55
2043.89
1928.56
1821.53
1722.4
1630.65
1545.88
1467.74
1395.95
1330.31
1270.57
1216.47
1167.67
1123.77
1084.28
1048.66
1016.32
986.705
959.326
933.763
909.68
886.809
864.954
843.999
823.919
804.792
786.801
770.23
755.467
742.994
733.375
727.229
725.219
728.069
736.485
751.165
772.829
802.332
841.18
892.089
959.62
1050.42
1172.18
1330.03
1521.37
1736.47
1965.48
2199.12
2424.83
2632.5
2821.89
2963.85
3013.05
2982.29
2958.93
3018.02
3147.57
3261.91
3292.91
3251.46
3152.5
3007.88
2832.77
2650.44
2487.91
2365.94
2292.6
2264.34
2273.29
2302.33
2344.47
2400.45
2479.03
2595.56
2766.27
2993.58
3242.59
3390
3346.21
3152.98
2888
2622.4
2396.03
2221.77
2097.22
2013.8
1961.77
1932.36
1918.68
1915.81
1920.66
1931.84
1950.96
1988.93
2071.21
2232.91
2503.09
42283.9
5719.39
5319.74
5241.42
5137.27
5033.58
4942.55
4874.13
4827.8
4791.52
4752.41
4709.2
4674.99
4675.23
4702.55
4802.06
4981.29
5241.79
5583.24
6001.99
6478.67
6957.51
7334.22
7487.77
7355.28
6974.39
6445.66
5870.73
5317.77
4813.51
4362.41
3969.91
3645.98
3398.42
3227.68
3126.38
3081.84
3079.12
3103.39
3141.56
3183.36
3221.93
3253.82
3278.47
3297.34
3312.98
3328.19
3345.5
3366.85
3393.49
3425.83
3463.25
3503.79
3550.35
3599.09
3646.65
3689.15
3722.33
3741.89
3744.08
3726.63
3689.81
3637.17
3574.43
3505.73
3430.78
3345.08
3246.36
3136.26
3025.54
2928.5
2855.17
2804.05
2776.28
2774.25
2791.15
2806.13
2795.64
2745.54
2656.5
2539.69
2409.05
2275.87
2147.03
2025.71
1912.79
1808
1710.68
1620.16
1535.88
1457.49
1384.76
1317.59
1255.91
1199.61
1148.55
1102.46
1061
1023.73
990.131
959.66
931.783
906.02
881.971
859.32
837.829
817.339
797.778
779.169
761.642
745.436
730.904
718.508
708.809
702.448
700.186
702.821
711.153
725.979
748.145
778.789
819.566
873.228
944.571
1040.7
1170.03
1338.45
1544.09
1777.66
2026.34
2270.59
2483.6
2655.17
2788.36
2867.46
2876.38
2851.02
2869.59
2975.93
3129.6
3237.11
3245.67
3178.01
3053.03
2883.68
2689.11
2497.13
2335.51
2221.62
2159.12
2140.95
2157.25
2189.41
2230.52
2280
2345.69
2444.16
2596.27
2814.26
3078.87
3285.87
3316.4
3169.76
2918.4
2647.55
2410.78
2227.8
2097.87
2011.7
1958.35
1928.34
1914.62
1912.4
1918.44
1930.66
1948.71
1978.28
2038.27
2159.04
2374.39
38039.7
5681.1
5417.31
5318.96
5202.7
5098.76
5019.94
4971.8
4951.53
4950.1
4957.81
4971.82
4997.7
5034.26
5109.56
5242.71
5440.64
5702.28
6016.23
6355
6668.24
6886.32
6944.24
6814.27
6517.46
6105.34
5635.03
5155.12
4698.21
4281.25
3915.86
3613.9
3383.67
3225.7
3132.72
3092.25
3089.71
3110.74
3142.69
3175.55
3202.58
3220.47
3228.96
3230.03
3226.93
3223.22
3222.16
3226.37
3237.69
3257.18
3285.13
3321.23
3366.96
3419.68
3476.84
3535.69
3592.68
3643.43
3682.89
3705.78
3707.23
3684.35
3638.77
3578.48
3512.5
3445.37
3372.99
3290.77
3194.12
3088.72
2986.98
2904.14
2838.85
2792.36
2768.47
2765.03
2767
2751.49
2701.65
2614.75
2499.94
2370.76
2238.89
2111.69
1992.54
1882.24
1780.32
1685.88
1598.01
1515.96
1439.2
1367.43
1300.53
1238.49
1181.31
1128.98
1081.42
1038.44
999.731
964.907
933.503
905.017
878.958
854.884
832.425
811.296
791.293
772.301
754.296
737.355
721.667
707.536
695.383
685.743
679.262
676.74
679.033
687.037
701.672
723.91
754.925
796.485
851.714
925.649
1025.72
1161.05
1338.42
1556.89
1807.15
2071.88
2319.73
2513.83
2647.77
2731.94
2766.96
2759.07
2753.14
2811.62
2951.21
3112.94
3206.1
3193.3
3103.92
2958.96
2772.08
2566.02
2371.16
2214.09
2108.79
2056.32
2047.84
2070.6
2106.19
2148.12
2194.37
2250.74
2333.49
2466.26
2668.06
2930.44
3171.49
3269.47
3174.65
2942.79
2669.17
2422.12
2229.88
2094.1
2004.93
1950.29
1920.06
1907.14
1906.91
1915.99
1931.52
1951.61
1978.2
2024.99
2117.52
2289.41
33537.8
5662.6
5502.8
5393.58
5268.48
5161.05
5085.49
5046.49
5040.74
5061.25
5100.38
5153.24
5221.11
5302.4
5416.12
5569.1
5760.21
5977.5
6196.2
6379.79
6487.2
6486.19
6365.22
6134.51
5817.04
5440.52
5034.67
4628.34
4245.01
3902.66
3616.07
3395.2
3242.15
3150.98
3110.08
3105.36
3122.75
3149.77
3176.42
3195.68
3203.81
3200.29
3187.14
3168.02
3147.08
3128.21
3114.5
3108.18
3110.66
3122.75
3144.78
3176.65
3221.7
3274.32
3333.39
3396.75
3461.48
3523.62
3578.22
3619.79
3642.18
3639.29
3607.91
3554.8
3491.51
3428.08
3363.81
3294.99
3214.11
3122.2
3029.44
2945.03
2871.96
2812.24
2771.03
2749.56
2736.28
2710.35
2654.66
2565.05
2449.27
2320.1
2188.96
2063.17
1946.09
1838.46
1739.68
1648.68
1564.31
1485.64
1411.93
1342.73
1277.78
1217.01
1160.45
1108.16
1060.19
1016.47
976.866
941.13
908.919
879.824
853.403
829.22
806.882
786.065
766.521
748.088
730.694
714.368
699.245
685.577
673.738
664.216
657.659
654.865
656.718
664.188
678.298
700.148
731.031
772.784
828.463
903.333
1005.6
1144.93
1328.94
1557.68
1821.52
2098.05
2344.78
2520.55
2621.62
2668.05
2675.81
2665.83
2683.5
2774.09
2933.12
3092.18
3169.39
3141.65
3035.12
2876.38
2678.56
2466.96
2272.97
2121.42
2024.03
1980.51
1980.85
2008.34
2046.45
2089.83
2135.25
2185.98
2256.4
2371.72
2555.39
2802.24
3059.73
3211.89
3169.43
2961.61
2687.62
2430.55
2228.51
2086.3
1993.75
1937.75
1907.7
1896.61
1899.93
1914.04
1935.21
1960.08
1987.64
2027.09
2099.73
2237.4
28843.4
5626.71
5570.04
5463.48
5336.67
5227.21
5151.02
5114.08
5113.9
5144.79
5200.61
5275.45
5361.35
5463.93
5584.62
5720.48
5862.02
5992.5
6090.05
6132.84
6105.28
6001.72
5825.05
5582.71
5285.26
4948.53
4594.21
4246.1
3925.85
3651.2
3434.46
3280.47
3186
3141.47
3133.71
3148.8
3174.07
3199.15
3216.46
3221.4
3212.44
3190.98
3160.6
3125.95
3091.62
3061.35
3037.69
3022.13
3015.4
3018.1
3031.39
3057.17
3097
3145.07
3201.14
3263.29
3329.27
3395.6
3457.36
3509.53
3546.56
3561.72
3547.64
3507.87
3452.61
3393.92
3337.46
3279.43
3212.25
3133.83
3050.33
2969.35
2893.81
2826.17
2772.74
2736.61
2708.31
2668.95
2602.86
2506.41
2387.09
2256.86
2126.34
2002.23
1887.56
1782.9
1687.56
1600.35
1520.02
1445.46
1375.77
1310.3
1248.63
1190.56
1136.05
1085.17
1037.99
994.559
954.867
918.802
886.159
856.651
829.929
805.615
783.336
762.757
743.605
725.677
708.858
693.125
678.559
665.357
653.84
644.445
637.812
634.705
636.021
642.774
656.074
677.131
707.353
748.655
804.084
878.772
980.89
1121.47
1309.18
1544.77
1818.16
2102.44
2347.69
2509.64
2586.29
2606.91
2600.04
2595.62
2635.18
2748.19
2915.41
3066.01
3129.05
3091.18
2979.17
2810.69
2606.15
2393.12
2201.64
2055.18
1964.65
1929.17
1937.18
1967.2
2006.51
2050.84
2096.31
2144.41
2206.23
2307.23
2469.04
2697.65
2959.64
3150.5
3156.54
2975.38
2703.12
2436.31
2223.96
2074.76
1978.44
1921.06
1891.76
1883.67
1892.25
1913.35
1942.3
1974.35
2006.19
2042.61
2101.23
2211.59
24193.2
5556.6
5603.61
5516.72
5398.63
5293.01
5217.4
5179.86
5178.81
5208.43
5261.97
5331.98
5413.86
5505.22
5600.47
5691.93
5769.22
5820.32
5833.93
5801.86
5719.95
5586.85
5402.45
5168.67
4892.69
4589.15
4278.31
3981.72
3718.57
3503.29
3343.83
3240.87
3188.45
3175.75
3189.51
3216.47
3245.26
3267.3
3276.83
3270.9
3249.33
3214.62
3171.24
3124.5
3079.28
3039.17
3006.07
2980.21
2960.8
2948.21
2949.11
2974.27
3008.23
3050.15
3101.12
3157.93
3220.73
3285.85
3348.09
3402.55
3444.56
3468.76
3469.66
3445.67
3402.95
3352.75
3303.02
3252.98
3196.26
3129.38
3055.56
2979.72
2903.73
2830.81
2768.56
2720.59
2677.88
2623.19
2543.44
2437.14
2312.44
2180.62
2051.04
1929.32
1817.83
1716.8
1625.43
1542.47
1466.63
1396.7
1331.65
1270.68
1213.23
1158.93
1107.64
1059.35
1014.12
972.044
933.186
897.543
865.036
835.504
808.709
784.362
762.151
741.767
722.937
705.442
689.133
673.941
659.897
647.14
635.929
626.659
619.925
616.456
617.139
623.012
635.243
655.138
684.212
724.449
778.87
852.448
953.058
1091.51
1278.86
1517.26
1795.76
2084.64
2331.04
2485.84
2547.87
2553.43
2540.67
2544.74
2601.54
2727.72
2895.1
3035.11
3087.34
3044.39
2930.66
2762.15
2559.35
2348.06
2158.78
2014.58
1927.99
1900.25
1914.15
1944.87
1984.22
2028.49
2073.56
2118.77
2174.12
2262.49
2407.54
2619.01
2876.13
3091.31
3138.85
2984.81
2715.76
2439.48
2216.41
2059.73
1959.35
1900.72
1872.9
1869.15
1884.67
1914.52
1952.98
1994.05
2032.71
2069.72
2119.02
2207.49
19844.3
5425.3
5581.49
5532.45
5433.11
5336.89
5263.03
5221.9
5213.65
5232.71
5271.76
5325.52
5388.09
5452.76
5512.79
5560.94
5589.94
5593.17
5565.39
5502.71
5401.88
5259.91
5075.26
4850.58
4595.05
4324
4055.93
3808.92
3597.92
3432.97
3318.42
3253.02
3230.42
3240.3
3270.07
3307.04
3340.5
3362.72
3368.82
3356.69
3327.44
3284.05
3231.35
3174.99
3120.14
3070.56
3028.23
2993.45
2965.69
2945.11
2937.53
2949.91
2972.91
3004.49
3044.3
3092.5
3148.37
3208.06
3266.35
3318.15
3359.26
3385.55
3392.61
3378.3
3346.57
3306.48
3265.4
3223.44
3175.47
3117.97
3052.27
2980.48
2903.4
2825.73
2756.26
2697.74
2640.36
2568.56
2472.91
2355.11
2224.39
2091.23
1963.41
1845.14
1737.89
1641.44
1554.83
1476.76
1405.91
1341.05
1281.1
1225.14
1172.48
1122.66
1075.4
1030.59
988.241
948.442
911.283
876.834
845.108
816.052
789.54
765.384
743.35
723.186
704.649
687.525
671.653
656.937
643.364
631.018
620.091
610.919
604.044
600.142
600.072
604.869
615.742
634.068
661.454
699.943
752.509
823.902
921.644
1056.26
1238.68
1474.08
1753.13
2045.93
2296.08
2450.89
2508.07
2507.8
2495.09
2507.93
2576.53
2708.16
2870.4
2999.77
3045.04
3001.66
2890.58
2727.7
2531.72
2327.42
2144.08
2004.7
1923.54
1898.42
1908.89
1937.97
1976.3
2019.58
2063.59
2106.87
2157.01
2235.09
2366.18
2562.5
2810.61
3038.82
3119.39
2990.88
2725.72
2440.1
2205.99
2041.49
1936.93
1877.38
1851.95
1853.92
1877.92
1917.98
1967.13
2018.3
2065.35
2105.87
2150.01
2221.33
15866.5
5192.09
5471.46
5484.8
5417.05
5337.72
5269.65
5226.58
5211.85
5221.8
5251.41
5293.18
5340.09
5385.41
5422.88
5446.58
5451.23
5432.25
5385.7
5307.91
5195.48
5046.02
4860.14
4643.3
4406.32
4163.77
3931.35
3723.28
3550.51
3419.78
3333.61
3290.75
3286.82
3311.51
3352.13
3396.88
3435.57
3460.81
3468.36
3456.98
3427.71
3383.34
3328.33
3268.03
3207.58
3151.03
3100.9
3058.38
3023.85
2997.84
2983.94
2981.91
2989.97
3007.94
3036.28
3074.72
3121.36
3172.11
3221.64
3265.02
3298.59
3319.46
3324.85
3313.74
3289.59
3259.39
3228.16
3194.95
3155.03
3105.17
3045.02
2974.05
2893.14
2809.52
2732.51
2662.36
2587.87
2496.16
2382.72
2252.93
2116.85
1983.67
1859.2
1746.05
1644.65
1554.26
1473.69
1401.59
1336.64
1277.59
1223.35
1172.98
1125.71
1080.98
1038.42
997.838
959.169
922.458
887.797
855.288
825.007
796.987
771.197
747.55
725.9
706.067
687.859
671.089
655.606
641.302
628.14
616.164
605.522
596.524
589.624
585.436
584.768
588.631
598.239
615.011
640.616
677.138
727.495
796.188
890.291
1019.93
1196.36
1425.86
1701.59
1994.82
2249.25
2409.84
2470.7
2472.22
2463.23
2483.08
2557.68
2688.75
2843.24
2963.68
3005.93
2966
2861.58
2708.37
2523.3
2329.81
2155.18
2022.09
1944.01
1914.89
1919.45
1945.52
1982.29
2024.06
2066.29
2107
2152.31
2221.52
2340.56
2523.82
2761.85
2995.42
3100.74
2994.73
2733.23
2438.13
2192.64
2020.08
1911.41
1851.53
1829.59
1838.68
1872.6
1924
1984.51
2046.07
2102.09
2148.03
2190.51
2249.23
12879.6
4899.36
5271.94
5362.31
5337.14
5284.21
5230.48
5191.62
5175.74
5184.72
5212.4
5250.7
5292.16
5330.07
5358.33
5371.51
5364.84
5334.15
5275.76
5186.51
5064.23
4908.74
4723.23
4514.95
4294.72
4075.37
3869.6
3688.09
3537.85
3431.08
3365.8
3338.55
3344.95
3376.18
3422.06
3472.01
3516.35
3547.61
3561.39
3556.23
3532.8
3493.44
3441.92
3382.97
3321.38
3261.32
3205.84
3156.9
3115.56
3082.37
3060
3047.46
3045.13
3053.57
3073.01
3102.47
3139.17
3178.65
3215.8
3246.41
3267.9
3278.72
3277.81
3265.76
3246.28
3224.36
3201.97
3176.25
3142.28
3096.72
3037.29
2962.02
2873.94
2783.17
2697.8
2614.47
2521.51
2410.05
2280.8
2141.96
2003.41
1872.5
1753.1
1646.35
1551.78
1468.23
1394.27
1328.5
1269.59
1216.33
1167.64
1122.61
1080.44