/*--------------------------------*- C++ -*----------------------------------*\
| =========                 |                                                 |
| \\      /  F ield         | OpenFOAM: The Open Source CFD Toolbox           |
|  \\    /   O peration     | Version:  2112                                  |
|   \\  /    A nd           | Website:  www.openfoam.com                      |
|    \\/     M anipulation  |                                                 |
\*---------------------------------------------------------------------------*/
FoamFile
{
    version     2.0;
    format      ascii;
    arch        "LSB;label=32;scalar=64";
    class       volScalarField;
    location    "0.23";
    object      nut;
}
// * * * * * * * * * * * * * * * * * * * * * * * * * * * * * * * * * * * * * //

dimensions      [0 2 -1 0 0 0 0];

internalField   nonuniform List<scalar> 
12225
(
6.18077e-06
7.16064e-06
7.45084e-06
7.46586e-06
7.37473e-06
7.24957e-06
7.1216e-06
7.005e-06
6.90666e-06
6.83031e-06
6.77764e-06
6.74815e-06
6.73218e-06
6.7328e-06
6.75134e-06
6.78844e-06
6.84474e-06
6.91624e-06
1.02202e-05
5.25596e-06
3.78375e-06
3.0757e-06
2.6636e-06
2.39768e-06
2.21359e-06
2.07923e-06
1.9768e-06
1.89597e-06
1.83112e-06
1.78544e-06
1.75289e-06
1.73158e-06
1.72089e-06
1.72221e-06
1.73989e-06
1.78833e-06
5.12101e-05
2.83504e-05
1.97871e-05
1.53601e-05
1.26844e-05
1.09396e-05
9.75334e-06
8.93741e-06
8.39119e-06
8.06514e-06
7.95549e-06
7.95881e-06
8.03386e-06
8.18331e-06
8.42179e-06
8.78075e-06
9.32051e-06
1.016e-05
0.000100304
7.30301e-05
5.72166e-05
4.74658e-05
4.10508e-05
3.66652e-05
3.36013e-05
3.14524e-05
2.99795e-05
2.90981e-05
2.85373e-05
2.82308e-05
2.8147e-05
2.82784e-05
2.86419e-05
2.92854e-05
3.02977e-05
3.18212e-05
0.00012415
0.000108069
9.43133e-05
8.36084e-05
7.54383e-05
6.92269e-05
6.45073e-05
6.09405e-05
5.83186e-05
5.63297e-05
5.48474e-05
5.37931e-05
5.31173e-05
5.27988e-05
5.28446e-05
5.32934e-05
5.42173e-05
5.57104e-05
0.000132317
0.000125223
0.000117226
0.000109571
0.000102768
9.69623e-05
9.21302e-05
8.82115e-05
8.49953e-05
8.23853e-05
8.03014e-05
7.86857e-05
7.75006e-05
7.67291e-05
7.63762e-05
7.64698e-05
7.70568e-05
7.81789e-05
0.000134738
0.000131822
0.000127986
0.000123713
0.000119395
0.000115296
0.000111584
0.000108274
0.000105377
0.000102888
0.000100791
9.90738e-05
9.77273e-05
9.67526e-05
9.61615e-05
9.59766e-05
9.62255e-05
9.69156e-05
0.000135394
0.000134004
0.000132187
0.000130026
0.000127659
0.000125231
0.000122838
0.000120557
0.000118442
0.000116529
0.000114841
0.000113396
0.000112211
0.000111301
0.000110688
0.000110392
0.000110431
0.000110799
0.000135559
0.000134647
0.000133607
0.000132427
0.000131131
0.000129753
0.00012834
0.000126934
0.000125575
0.000124296
0.000123126
0.000122092
0.000121215
0.000120519
0.000120025
0.000119753
0.000119715
0.000119901
0.000135598
0.000134817
0.00013403
0.000133221
0.000132383
0.000131519
0.000130642
0.000129767
0.00012891
0.000128092
0.00012733
0.000126645
0.000126056
0.000125581
0.000125238
0.000125043
0.000125002
0.000125109
0.000135606
0.000134857
0.000134141
0.000133449
0.000132775
0.000132116
0.000131473
0.000130849
0.00013025
0.000129684
0.000129161
0.000128692
0.00012829
0.000127966
0.000127733
0.0001276
0.000127571
0.000127641
0.000135607
0.000134865
0.000134165
0.000133503
0.000132874
0.000132278
0.000131712
0.000131177
0.000130676
0.000130212
0.000129789
0.000129415
0.000129097
0.000128842
0.000128658
0.00012855
0.00012852
0.000128564
0.000135608
0.000134867
0.00013417
0.000133515
0.0001329
0.000132322
0.000131782
0.000131278
0.000130812
0.000130386
0.000130002
0.000129663
0.000129375
0.000129141
0.000128967
0.000128854
0.000128803
0.000128811
0.000135608
0.000134867
0.00013417
0.000133516
0.000132902
0.000132328
0.000131792
0.000131295
0.000130836
0.000130417
0.000130039
0.000129705
0.000129416
0.000129176
0.000128986
0.000128847
0.00012876
0.000128723
0.000135608
0.000134867
0.00013417
0.000133514
0.000132899
0.000132322
0.000131783
0.000131282
0.000130819
0.000130394
0.000130008
0.000129662
0.000129357
0.000129095
0.000128877
0.000128702
0.000128572
0.000128485
0.000135608
0.000134868
0.000134169
0.000133512
0.000132894
0.000132314
0.000131771
0.000131264
0.000130793
0.000130357
0.000129958
0.000129595
0.00012927
0.000128981
0.000128731
0.000128519
0.000128344
0.00012821
0.000135609
0.000134868
0.000134169
0.000133511
0.00013289
0.000132307
0.000131758
0.000131245
0.000130765
0.000130319
0.000129906
0.000129526
0.00012918
0.000128867
0.000128587
0.000128339
0.000128125
0.000127947
0.000135609
0.000134869
0.000134169
0.00013351
0.000132887
0.0001323
0.000131747
0.000131227
0.00013074
0.000130284
0.000129858
0.000129463
0.000129099
0.000128763
0.000128457
0.00012818
0.000127933
0.000127717
0.000135609
0.000134869
0.000134169
0.000133508
0.000132883
0.000132294
0.000131737
0.000131212
0.000130717
0.000130252
0.000129816
0.000129409
0.000129029
0.000128675
0.000128349
0.000128048
0.000127773
0.000127528
0.000135609
0.000134869
0.000134169
0.000133506
0.00013288
0.000132288
0.000131728
0.000131199
0.000130699
0.000130228
0.000129784
0.000129366
0.000128974
0.000128606
0.000128262
0.000127941
0.000127643
0.000127372
0.000135609
0.000134868
0.000134168
0.000133504
0.000132876
0.000132281
0.000131717
0.000131182
0.000130674
0.000130192
0.000129733
0.000129298
0.000128884
0.00012849
0.000128114
0.000127756
0.000127415
0.000127096
0.000135609
0.000134867
0.000134164
0.000133495
0.000132858
0.000132248
0.000131662
0.000131097
0.000130549
0.000130015
0.000129493
0.000128981
0.000128477
0.00012798
0.000127487
0.000127
0.000126517
0.000126047
0.000135607
0.000134857
0.000134133
0.000133424
0.000132722
0.000132016
0.000131301
0.000130571
0.000129823
0.000129055
0.000128266
0.000127458
0.000126631
0.000125788
0.000124931
0.000124064
0.000123191
0.000122327
0.000135587
0.000134762
0.000133877
0.000132904
0.000131826
0.000130638
0.000129345
0.000127959
0.000126494
0.000124965
0.000123389
0.000121779
0.000120149
0.000118511
0.000116875
0.000115253
0.000113653
0.000112098
0.000135403
0.00013403
0.000132203
0.00012995
0.000127347
0.000124495
0.00012149
0.000118412
0.000115325
0.000112273
0.000109287
0.000106389
0.000103593
0.000100906
9.83334e-05
9.58775e-05
9.35405e-05
9.13381e-05
0.000134018
0.000129632
0.000123934
0.000117636
0.000111248
0.000105089
9.93252e-05
9.40161e-05
8.91637e-05
8.47419e-05
8.07134e-05
7.70381e-05
7.36774e-05
7.05968e-05
6.77665e-05
6.51616e-05
6.27623e-05
6.05627e-05
0.000125597
0.000110081
9.55445e-05
8.33631e-05
7.34699e-05
6.54911e-05
5.90174e-05
5.3697e-05
4.92594e-05
4.55042e-05
4.22834e-05
3.94868e-05
3.70321e-05
3.48562e-05
3.29118e-05
3.11632e-05
2.95842e-05
2.81577e-05
8.88585e-05
5.84664e-05
4.22837e-05
3.26572e-05
2.63864e-05
2.20432e-05
1.88765e-05
1.64647e-05
1.45634e-05
1.30234e-05
1.17495e-05
1.06782e-05
9.76545e-06
8.97855e-06
8.2935e-06
7.69359e-06
7.16695e-06
6.70399e-06
2.38022e-05
1.19131e-05
7.90017e-06
5.96309e-06
4.86482e-06
4.18192e-06
3.72937e-06
3.41626e-06
3.19378e-06
3.0337e-06
2.91865e-06
2.83746e-06
2.78273e-06
2.74879e-06
2.73158e-06
2.72838e-06
2.73721e-06
2.75641e-06
6.78661e-06
8.03704e-06
8.77168e-06
9.13918e-06
9.26335e-06
9.23262e-06
9.10539e-06
8.9192e-06
8.69797e-06
8.45677e-06
8.20507e-06
7.94875e-06
7.69171e-06
7.45599e-06
7.25101e-06
7.0637e-06
6.88698e-06
6.71775e-06
2.79961e-06
6.90001e-06
7.35768e-06
7.59287e-06
7.68606e-06
7.71647e-06
7.73512e-06
7.71283e-06
7.67223e-06
7.65455e-06
7.69148e-06
7.79831e-06
7.97695e-06
8.22501e-06
8.53866e-06
8.94198e-06
9.48589e-06
1.00648e-05
1.06859e-05
1.13219e-05
1.19503e-05
1.25575e-05
1.31353e-05
1.36759e-05
1.41734e-05
1.46235e-05
1.50225e-05
1.53681e-05
1.56598e-05
1.58988e-05
1.60897e-05
1.62412e-05
1.63729e-05
1.65485e-05
1.6902e-05
1.73207e-05
1.7726e-05
1.80669e-05
1.82775e-05
1.82491e-05
1.77695e-05
1.64794e-05
1.40549e-05
1.08068e-05
8.11465e-06
6.67322e-06
6.15801e-06
6.17484e-06
6.73122e-06
7.211e-06
7.55194e-06
7.81933e-06
8.09741e-06
8.52476e-06
9.17598e-06
9.60684e-06
9.75306e-06
9.70769e-06
9.57836e-06
9.31371e-06
9.00388e-06
8.92449e-06
9.28801e-06
9.49821e-06
9.66736e-06
9.73248e-06
1.02245e-05
1.31816e-05
1.62952e-05
1.8541e-05
2.02468e-05
2.15133e-05
2.24265e-05
2.30559e-05
2.34568e-05
2.36739e-05
2.37431e-05
2.36936e-05
2.35498e-05
2.33314e-05
2.3056e-05
2.27254e-05
2.238e-05
2.20212e-05
2.16511e-05
2.12716e-05
2.08843e-05
2.04903e-05
2.00902e-05
1.96841e-05
1.92714e-05
1.88507e-05
1.84196e-05
1.79747e-05
1.75118e-05
1.7026e-05
1.65121e-05
1.59654e-05
1.53827e-05
1.47624e-05
1.41027e-05
1.33847e-05
1.27241e-05
1.2565e-05
1.24607e-05
1.23675e-05
1.22839e-05
1.22136e-05
1.21595e-05
1.21241e-05
1.21083e-05
1.21121e-05
1.21343e-05
1.21725e-05
1.22237e-05
1.2284e-05
1.23484e-05
1.2414e-05
1.24756e-05
1.25049e-05
1.24916e-05
1.2428e-05
1.23085e-05
1.21298e-05
1.18903e-05
1.15897e-05
1.12291e-05
1.08109e-05
1.03404e-05
9.827e-06
9.28704e-06
8.74453e-06
8.23015e-06
7.7784e-06
7.45113e-06
7.21932e-06
7.0563e-06
6.93855e-06
6.84668e-06
6.76633e-06
6.68854e-06
6.60938e-06
6.52897e-06
6.45021e-06
6.37766e-06
6.31653e-06
6.2713e-06
6.24412e-06
6.23534e-06
6.24399e-06
6.27017e-06
6.31469e-06
6.37881e-06
6.4636e-06
6.57062e-06
6.7028e-06
6.86167e-06
7.03456e-06
7.1879e-06
7.29728e-06
7.35738e-06
7.32944e-06
7.08123e-06
7.22486e-06
9.76402e-06
1.16766e-05
1.27895e-05
1.32869e-05
1.33474e-05
1.3124e-05
1.27404e-05
1.22882e-05
1.17775e-05
1.12039e-05
1.05458e-05
9.77134e-06
8.70112e-06
8.40023e-06
8.42963e-06
8.49023e-06
3.56715e-06
6.67274e-06
7.79449e-06
9.22118e-06
1.17435e-05
1.46925e-05
1.70644e-05
1.9011e-05
2.06733e-05
2.23319e-05
2.41955e-05
2.6378e-05
2.89171e-05
3.18088e-05
3.50142e-05
3.84611e-05
4.20766e-05
4.57345e-05
4.93539e-05
5.27841e-05
5.58267e-05
5.83828e-05
6.03852e-05
6.17459e-05
6.24111e-05
6.23529e-05
6.15653e-05
6.00685e-05
5.79124e-05
5.51773e-05
5.19668e-05
4.83975e-05
4.45905e-05
4.0593e-05
3.59343e-05
2.96194e-05
2.40137e-05
2.03754e-05
1.84288e-05
1.76555e-05
1.75564e-05
1.76551e-05
1.7525e-05
1.67162e-05
1.48389e-05
1.22416e-05
1.01898e-05
9.68327e-06
1.06315e-05
1.23824e-05
1.42604e-05
1.53844e-05
1.66786e-05
1.83823e-05
1.98354e-05
2.02632e-05
1.93966e-05
1.76292e-05
1.56344e-05
1.45783e-05
1.48315e-05
1.61996e-05
1.85389e-05
2.05032e-05
2.05457e-05
2.02994e-05
2.05125e-05
2.11696e-05
2.19633e-05
2.29302e-05
2.42535e-05
2.60946e-05
2.86074e-05
3.19335e-05
3.61851e-05
4.14106e-05
4.75385e-05
5.43127e-05
6.12544e-05
6.77048e-05
7.30027e-05
7.7018e-05
8.09835e-05
8.49264e-05
8.88513e-05
9.27635e-05
9.66673e-05
0.000100564
0.000104446
0.000108298
0.000112086
0.000115757
0.000119238
0.000122434
0.000125232
0.000127509
0.000129141
0.000130013
0.00013002
0.000129058
0.000126968
0.000123373
0.000118069
0.000112456
0.000106595
0.000100581
9.45043e-05
8.84375e-05
8.24396e-05
7.65581e-05
7.08317e-05
6.52925e-05
5.9968e-05
5.48812e-05
5.00515e-05
4.54944e-05
4.122e-05
3.72186e-05
3.31338e-05
2.87468e-05
2.4707e-05
2.12205e-05
1.83303e-05
1.59907e-05
1.4124e-05
1.26509e-05
1.15019e-05
1.06205e-05
9.96196e-06
9.49178e-06
9.18436e-06
9.02179e-06
8.99158e-06
9.08353e-06
9.28858e-06
9.59065e-06
9.96425e-06
1.03768e-05
1.07956e-05
1.1195e-05
1.15606e-05
1.18875e-05
1.21752e-05
1.24236e-05
1.26302e-05
1.27868e-05
1.28711e-05
1.28244e-05
1.25906e-05
1.21648e-05
1.15672e-05
1.08429e-05
1.00467e-05
9.24025e-06
8.49808e-06
7.89166e-06
7.46072e-06
7.22472e-06
7.23823e-06
7.64699e-06
8.71391e-06
1.06662e-05
1.26555e-05
1.38699e-05
1.55897e-05
1.85782e-05
2.3748e-05
3.19018e-05
4.25217e-05
5.2287e-05
5.85777e-05
6.43808e-05
6.93787e-05
7.30606e-05
7.47759e-05
7.37761e-05
6.86524e-05
6.14587e-05
5.36389e-05
4.55422e-05
4.27266e-06
5.42416e-06
7.16306e-06
9.3425e-06
1.30614e-05
1.78784e-05
2.19967e-05
2.54764e-05
2.87893e-05
3.23088e-05
3.61665e-05
4.03489e-05
4.47908e-05
4.94179e-05
5.41517e-05
5.89118e-05
6.3612e-05
6.8161e-05
7.24606e-05
7.64061e-05
7.98845e-05
8.27656e-05
8.48827e-05
8.6015e-05
8.61035e-05
8.51487e-05
8.31688e-05
8.02228e-05
7.64181e-05
7.19151e-05
6.69224e-05
6.16786e-05
5.64236e-05
5.13692e-05
4.66584e-05
4.22227e-05
3.74439e-05
3.17488e-05
2.63575e-05
2.2248e-05
1.95661e-05
1.80229e-05
1.72662e-05
1.69083e-05
1.64371e-05
1.53362e-05
1.35468e-05
1.17184e-05
1.05676e-05
1.0296e-05
1.07816e-05
1.20294e-05
1.39329e-05
1.64727e-05
1.91909e-05
2.11449e-05
2.16175e-05
2.08959e-05
2.0179e-05
2.03659e-05
2.22705e-05
2.50632e-05
2.57423e-05
2.4902e-05
2.42506e-05
2.45066e-05
2.57477e-05
2.80606e-05
3.16569e-05
3.6885e-05
4.40788e-05
5.3369e-05
6.4522e-05
7.687e-05
8.94339e-05
0.000101214
0.000111486
0.000119935
0.000126605
0.000131743
0.000135637
0.000139
0.000142137
0.000145086
0.000147879
0.000150557
0.000153164
0.000155743
0.00015833
0.000160948
0.000163593
0.000166233
0.000168799
0.000171188
0.000173263
0.000174867
0.00017584
0.000176032
0.000175319
0.000173607
0.000170808
0.000166758
0.000161834
0.000156561
0.000150975
0.000145176
0.000139258
0.000133298
0.000127353
0.000121466
0.000115669
0.000109984
0.000104425
9.9002e-05
9.37218e-05
8.85891e-05
8.36058e-05
7.87655e-05
7.39938e-05
6.9106e-05
6.38409e-05
5.83663e-05
5.28294e-05
4.73908e-05
4.21994e-05
3.73772e-05
3.3014e-05
2.91684e-05
2.587e-05
2.31201e-05
2.08935e-05
1.91431e-05
1.78067e-05
1.68157e-05
1.61024e-05
1.56022e-05
1.52547e-05
1.50057e-05
1.48117e-05
1.46438e-05
1.44886e-05
1.43464e-05
1.42255e-05
1.41367e-05
1.40895e-05
1.4089e-05
1.41334e-05
1.42111e-05
1.4306e-05
1.44004e-05
1.44587e-05
1.43985e-05
1.41828e-05
1.38065e-05
1.32883e-05
1.26048e-05
1.17012e-05
1.06984e-05
1.0041e-05
1.04538e-05
1.24809e-05
1.5485e-05
1.7662e-05
2.02777e-05
2.62444e-05
3.68299e-05
5.13308e-05
6.5904e-05
7.66938e-05
8.31233e-05
8.74728e-05
9.11803e-05
9.40992e-05
9.58375e-05
9.58121e-05
9.33662e-05
8.79841e-05
8.16886e-05
7.47961e-05
6.79059e-05
4.88184e-06
4.39912e-06
7.34251e-06
1.18898e-05
1.92038e-05
2.63828e-05
3.20843e-05
3.67832e-05
4.12223e-05
4.57068e-05
5.03662e-05
5.52486e-05
6.03692e-05
6.56123e-05
7.08197e-05
7.59065e-05
8.07968e-05
8.54169e-05
8.96918e-05
9.35393e-05
9.68635e-05
9.95474e-05
0.000101446
0.000102376
0.000102102
0.000100439
9.74134e-05
9.3109e-05
8.7673e-05
8.13344e-05
7.43998e-05
6.72309e-05
6.01972e-05
5.36222e-05
4.77464e-05
4.27014e-05
3.84719e-05
3.47869e-05
3.0955e-05
2.68851e-05
2.31408e-05
2.01461e-05
1.80389e-05
1.67571e-05
1.60426e-05
1.54542e-05
1.45535e-05
1.32426e-05
1.18308e-05
1.07227e-05
1.02416e-05
1.07653e-05
1.27402e-05
1.59344e-05
1.96673e-05
2.2933e-05
2.47853e-05
2.55075e-05
2.64216e-05
2.7835e-05
2.91004e-05
2.85467e-05
2.74002e-05
2.71023e-05
2.81949e-05
3.10088e-05
3.57647e-05
4.28536e-05
5.26644e-05
6.52359e-05
7.99327e-05
9.54313e-05
0.000110172
0.00012297
0.000133336
0.000141386
0.00014754
0.000152269
0.000155952
0.000158848
0.000161066
0.00016293
0.000164478
0.000165729
0.000166723
0.000167519
0.000168198
0.000168855
0.000169589
0.000170487
0.000171614
0.000172992
0.000174592
0.000176326
0.000178051
0.000179587
0.000180733
0.000181293
0.000181104
0.00018004
0.000177998
0.000174872
0.00017115
0.000166988
0.000162475
0.000157713
0.000152791
0.000147782
0.000142742
0.000137716
0.000132735
0.000127824
0.000122999
0.000118272
0.00011365
0.000109138
0.000104736
0.000100442
9.62443e-05
9.20973e-05
8.78595e-05
8.34973e-05
7.90061e-05
7.43965e-05
6.96982e-05
6.49612e-05
6.02563e-05
5.56724e-05
5.13117e-05
4.7278e-05
4.36596e-05
4.05126e-05
3.78507e-05
3.56462e-05
3.38394e-05
3.23524e-05
3.11004e-05
3.00038e-05
2.89964e-05
2.8031e-05
2.70816e-05
2.61429e-05
2.52263e-05
2.43549e-05
2.3557e-05
2.28599e-05
2.2285e-05
2.1845e-05
2.15423e-05
2.13633e-05
2.12618e-05
2.11383e-05
2.08253e-05
2.00908e-05
1.87013e-05
1.66848e-05
1.44427e-05
1.26452e-05
1.20614e-05
1.32903e-05
1.62653e-05
1.95052e-05
2.24258e-05
2.88895e-05
4.10985e-05
5.73927e-05
7.24398e-05
8.2501e-05
8.82004e-05
9.1377e-05
9.35699e-05
9.53199e-05
9.66204e-05
9.72035e-05
9.65392e-05
9.39184e-05
8.94578e-05
8.42154e-05
7.84522e-05
7.28159e-05
5.24244e-06
4.65931e-06
1.08142e-05
2.00054e-05
3.06089e-05
3.85046e-05
4.41964e-05
4.9293e-05
5.43175e-05
5.93887e-05
6.45226e-05
6.97027e-05
7.48796e-05
8.00901e-05
8.51694e-05
9.00405e-05
9.46687e-05
9.90205e-05
0.000103052
0.000106701
0.000109874
0.000112447
0.000114261
0.000115125
0.000114818
0.000113085
0.000109598
0.000104406
9.76682e-05
8.96647e-05
8.07869e-05
7.1527e-05
6.2434e-05
5.40226e-05
4.66774e-05
4.05893e-05
3.57534e-05
3.202e-05
2.913e-05
2.6621e-05
2.39781e-05
2.13323e-05
1.89487e-05
1.7053e-05
1.57436e-05
1.49096e-05
1.42553e-05
1.34936e-05
1.25639e-05
1.16661e-05
1.11818e-05
1.16428e-05
1.35962e-05
1.72538e-05
2.19457e-05
2.65821e-05
3.00504e-05
3.22598e-05
3.25259e-05
3.1512e-05
3.01298e-05
2.90696e-05
2.93194e-05
3.14878e-05
3.59021e-05
4.29544e-05
5.29673e-05
6.60655e-05
8.17237e-05
9.85567e-05
0.000114734
0.000128759
0.000139975
0.000148511
0.000154902
0.000159748
0.000163529
0.000166562
0.000169026
0.000170999
0.000172462
0.000173465
0.000173978
0.000173989
0.000173522
0.000172644
0.000171467
0.00017014
0.000168841
0.000167753
0.000167043
0.000166827
0.000167151
0.000167975
0.000169166
0.000170528
0.000171822
0.000172802
0.000173254
0.000173001
0.000171886
0.00016996
0.000167484
0.000164546
0.000161244
0.000157667
0.000153892
0.000149983
0.000145988
0.000141947
0.000137889
0.000133839
0.000129817
0.000125838
0.000121916
0.00011806
0.000114278
0.000110574
0.00010695
0.000103395
9.98586e-05
9.63033e-05
9.27174e-05
8.90893e-05
8.54109e-05
8.16821e-05
7.79146e-05
7.41362e-05
7.03934e-05
6.67502e-05
6.32811e-05
6.00579e-05
5.71343e-05
5.45351e-05
5.22529e-05
5.02538e-05
4.84864e-05
4.68936e-05
4.54207e-05
4.40222e-05
4.26641e-05
4.13261e-05
4.00011e-05
3.86947e-05
3.74228e-05
3.62082e-05
3.50761e-05
3.40476e-05
3.31323e-05
3.23138e-05
3.15213e-05
3.05874e-05
2.9221e-05
2.70708e-05
2.39424e-05
2.01372e-05
1.66248e-05
1.44369e-05
1.42299e-05
1.61627e-05
1.94575e-05
2.28201e-05
2.7936e-05
3.90713e-05
5.55786e-05
7.17819e-05
8.26476e-05
8.83821e-05
9.12142e-05
9.24818e-05
9.29553e-05
9.30306e-05
9.29111e-05
9.25003e-05
9.13406e-05
8.87948e-05
8.52028e-05
8.08329e-05
7.60351e-05
7.13438e-05
5.44166e-06
7.58941e-06
1.88564e-05
3.13332e-05
4.18712e-05
4.95088e-05
5.58909e-05
6.16795e-05
6.71164e-05
7.23469e-05
7.74335e-05
8.2383e-05
8.71656e-05
9.1741e-05
9.61668e-05
0.000100425
0.000104537
0.000108512
0.000112336
0.000115953
0.000119262
0.000122109
0.00012429
0.00012556
0.000125649
0.000124276
0.000121155
0.000115942
0.000108494
9.92382e-05
8.8619e-05
7.72394e-05
6.58419e-05
5.51873e-05
4.59012e-05
3.83371e-05
3.25333e-05
2.82865e-05
2.52815e-05
2.31918e-05
2.16288e-05
2.00577e-05
1.84276e-05
1.6832e-05
1.54369e-05
1.43815e-05
1.3654e-05
1.30989e-05
1.25725e-05
1.21074e-05
1.20082e-05
1.28749e-05
1.53484e-05
1.97385e-05
2.56651e-05
3.19141e-05
3.65e-05
3.63881e-05
3.34408e-05
3.12111e-05
3.01949e-05
3.09377e-05
3.39467e-05
3.96273e-05
4.83121e-05
6.02336e-05
7.51653e-05
9.21508e-05
0.000109493
0.000125361
0.000138552
0.000148785
0.000156458
0.000162225
0.000166702
0.000170344
0.000173434
0.000176117
0.000178436
0.00018037
0.000181756
0.000182509
0.00018254
0.000181795
0.00018027
0.000178023
0.000175178
0.000171927
0.000168522
0.000165247
0.000162388
0.000160185
0.000158792
0.000158245
0.000158448
0.000159203
0.00016025
0.0001613
0.000162092
0.00016239
0.000162023
0.000161073
0.000159628
0.00015776
0.000155547
0.000153061
0.000150361
0.000147497
0.000144505
0.000141414
0.000138247
0.000135025
0.000131766
0.000128488
0.000125206
0.000121938
0.000118695
0.000115492
0.000112337
0.000109236
0.000106175
0.000103133
0.000100107
9.7092e-05
9.4081e-05
9.10678e-05
8.80505e-05
8.50338e-05
8.20325e-05
7.90729e-05
7.61917e-05
7.34308e-05
7.08293e-05
6.8415e-05
6.61993e-05
6.41761e-05
6.23248e-05
6.06157e-05
5.90161e-05
5.74945e-05
5.60239e-05
5.45832e-05
5.3158e-05
5.17413e-05
5.0333e-05
4.89388e-05
4.75673e-05
4.62236e-05
4.4898e-05
4.35439e-05
4.20371e-05
4.01186e-05
3.73846e-05
3.34482e-05
2.83389e-05
2.28899e-05
1.84838e-05
1.62214e-05
1.64053e-05
1.87425e-05
2.19506e-05
2.60067e-05
3.41647e-05
4.91636e-05
6.66931e-05
8.00275e-05
8.73503e-05
9.0816e-05
9.22073e-05
9.21895e-05
9.11945e-05
8.97245e-05
8.82128e-05
8.67739e-05
8.50235e-05
8.26273e-05
7.95121e-05
7.57572e-05
7.16882e-05
6.77168e-05
5.7701e-06
1.35571e-05
2.93869e-05
4.25327e-05
5.2475e-05
6.0245e-05
6.69036e-05
7.27533e-05
7.80112e-05
8.28339e-05
8.7305e-05
9.14571e-05
9.52918e-05
9.88006e-05
0.000102137
0.000105512
0.000109021
0.000112711
0.000116579
0.00012056
0.00012452
0.00012825
0.000131473
0.000133853
0.000135027
0.000134626
0.000132313
0.000127791
0.000120774
0.000110922
9.9006e-05
8.56819e-05
7.18788e-05
5.86385e-05
4.69375e-05
3.74315e-05
3.02901e-05
2.52628e-05
2.18917e-05
1.97093e-05
1.83605e-05
1.74323e-05
1.6546e-05
1.56069e-05
1.46192e-05
1.36924e-05
1.29672e-05
1.24866e-05
1.22034e-05
1.21316e-05
1.25448e-05
1.40843e-05
1.75065e-05
2.2973e-05
3.03224e-05
3.77088e-05
3.95918e-05
3.55705e-05
3.23108e-05
3.10295e-05
3.19434e-05
3.54103e-05
4.18044e-05
5.14307e-05
6.43659e-05
8.0194e-05
9.77415e-05
0.000115262
0.000131043
0.000144068
0.000154201
0.000161909
0.000167857
0.00017265
0.000176728
0.000180367
0.000183707
0.000186781
0.00018954
0.000191882
0.000193514
0.000194302
0.000194118
0.000192871
0.000190526
0.000187116
0.00018276
0.000177671
0.000172154
0.00016659
0.000161388
0.000156926
0.000153472
0.000151165
0.000149955
0.000149655
0.000150013
0.000150708
0.000151447
0.000151928
0.000152023
0.000151719
0.000151029
0.000149996
0.000148671
0.000147104
0.000145337
0.000143399
0.000141312
0.000139091
0.000136749
0.000134296
0.000131747
0.000129116
0.00012642
0.000123676
0.000120903
0.00011812
0.000115344
0.000112591
0.000109866
0.000107166
0.000104495
0.000101856
9.9249e-05
9.66727e-05
9.41256e-05
9.16084e-05
8.91256e-05
8.66875e-05
8.43098e-05
8.20125e-05
7.98161e-05
7.77373e-05
7.57855e-05
7.39607e-05
7.22544e-05
7.06512e-05
6.91323e-05
6.76775e-05
6.62677e-05
6.48858e-05
6.35174e-05
6.21511e-05
6.07786e-05
5.93936e-05
5.79886e-05
5.65478e-05
5.50311e-05
5.33449e-05
5.12907e-05
4.85016e-05
4.4465e-05
3.88108e-05
3.18935e-05
2.51082e-05
2.01559e-05
1.79456e-05
1.84554e-05
2.09037e-05
2.39624e-05
2.92426e-05
4.05568e-05
5.77958e-05
7.4185e-05
8.46518e-05
8.99854e-05
9.25107e-05
9.31982e-05
9.21963e-05
8.98684e-05
8.69382e-05
8.40346e-05
8.15225e-05
7.92081e-05
7.67942e-05
7.38828e-05
7.05198e-05
6.6965e-05
6.35322e-05
6.33421e-06
2.0867e-05
3.96744e-05
5.23963e-05
6.18558e-05
6.93792e-05
7.55209e-05
8.05585e-05
8.47385e-05
8.8251e-05
9.12401e-05
9.38144e-05
9.60593e-05
9.80477e-05
9.99677e-05
0.000102373
0.000105422
0.000109169
0.000113595
0.000118605
0.000124009
0.000129517
0.00013474
0.00013921
0.000142422
0.000143879
0.000143132
0.00013982
0.000133685
0.000124534
0.000112093
9.72582e-05
8.1179e-05
6.51397e-05
5.0532e-05
3.84933e-05
2.95144e-05
2.33782e-05
1.94603e-05
1.70701e-05
1.56568e-05
1.48849e-05
1.43407e-05
1.38433e-05
1.3304e-05
1.27028e-05
1.21417e-05
1.17673e-05
1.16664e-05
1.19348e-05
1.28997e-05
1.52875e-05
1.99689e-05
2.7159e-05
3.56875e-05
4.09767e-05
3.81883e-05
3.37536e-05
3.17734e-05
3.24332e-05
3.58839e-05
4.24427e-05
5.23708e-05
6.56777e-05
8.18552e-05
9.97045e-05
0.000117516
0.00013366
0.000147167
0.000157896
0.00016628
0.000172954
0.0001785
0.000183359
0.000187817
0.00019203
0.000196036
0.000199782
0.000203134
0.000205895
0.000207751
0.000208569
0.000208207
0.000206552
0.000203539
0.000199167
0.00019352
0.000186789
0.0001793
0.000171503
0.000163926
0.00015711
0.000151439
0.000147166
0.000144301
0.00014264
0.000141994
0.000142
0.000142337
0.00014272
0.000142983
0.000143034
0.000142843
0.000142415
0.000141777
0.000140955
0.000139969
0.000138832
0.000137548
0.000136115
0.000134533
0.000132802
0.000130924
0.000128908
0.000126766
0.000124515
0.000122175
0.000119768
0.000117319
0.000114851
0.000112383
0.000109923
0.000107486
0.000105082
0.000102719
0.000100402
9.81335e-05
9.59171e-05
9.37556e-05
9.16539e-05
8.96188e-05
8.76592e-05
8.57838e-05
8.40002e-05
8.23119e-05
8.0718e-05
7.92125e-05
7.77855e-05
7.64243e-05
7.51147e-05
7.38424e-05
7.25935e-05
7.13549e-05
7.01142e-05
6.88595e-05
6.75774e-05
6.62494e-05
6.48416e-05
6.32845e-05
6.14358e-05
5.90182e-05
5.55545e-05
5.04268e-05
4.3298e-05
3.48604e-05
2.70161e-05
2.16796e-05
1.95753e-05
2.03145e-05
2.2695e-05
2.57622e-05
3.23167e-05
4.64122e-05
6.44126e-05
7.89602e-05
8.74155e-05
9.18878e-05
9.41908e-05
9.4542e-05
9.26798e-05
8.9098e-05
8.47994e-05
8.05835e-05
7.70787e-05
7.42829e-05
7.16593e-05
6.88226e-05
6.57096e-05
6.25075e-05
5.9463e-05
7.03221e-06
2.73988e-05
4.80524e-05
6.00329e-05
6.8577e-05
7.4867e-05
7.93241e-05
8.23062e-05
8.41506e-05
8.51664e-05
8.56345e-05
8.58063e-05
8.59076e-05
8.61434e-05
8.66791e-05
8.83131e-05
9.12093e-05
9.54194e-05
0.000100935
0.000107664
0.000115394
0.000123749
0.000132183
0.000140023
0.000146548
0.000151066
0.000152967
0.000151771
0.000147165
0.000139007
0.000127278
0.00011183
9.39019e-05
7.51231e-05
5.72577e-05
4.20383e-05
3.05391e-05
2.27838e-05
1.80283e-05
1.52979e-05
1.37823e-05
1.2956e-05
1.2513e-05
1.21858e-05
1.18923e-05
1.15654e-05
1.1219e-05
1.09956e-05
1.10747e-05
1.16689e-05
1.32179e-05
1.65225e-05
2.22826e-05
3.02881e-05
3.83537e-05
4.01778e-05
3.56508e-05
3.25788e-05
3.25293e-05
3.55066e-05
4.17106e-05
5.13896e-05
6.45472e-05
8.06956e-05
9.86967e-05
0.000116921
0.000133759
0.00014818
0.000159934
0.000169354
0.000177015
0.000183487
0.000189223
0.00019454
0.000199621
0.000204525
0.000209205
0.000213528
0.000217298
0.00022019
0.000222025
0.000222679
0.000222016
0.00021993
0.000216349
0.000211245
0.000204651
0.000196697
0.000187666
0.000178016
0.000168338
0.000159368
0.000151588
0.000145371
0.000140839
0.000137707
0.00013592
0.000135053
0.000134792
0.000134865
0.000135063
0.000135247
0.000135345
0.00013533
0.000135201
0.000134963
0.000134618
0.00013416
0.000133579
0.000132857
0.000131978
0.000130927
0.000129696
0.000128282
0.000126688
0.000124927
0.000123016
0.000120979
0.000118843
0.000116639
0.000114392
0.000112122
0.000109853
0.000107603
0.000105389
0.000103223
0.000101114
9.90686e-05
9.70926e-05
9.51902e-05
9.33658e-05
9.1623e-05
8.99651e-05
8.83936e-05
8.6908e-05
8.55049e-05
8.41781e-05
8.29189e-05
8.1717e-05
8.0561e-05
7.94388e-05
7.83385e-05
7.72479e-05
7.61547e-05
7.50452e-05
7.39023e-05
7.27003e-05
7.13919e-05
6.98837e-05
6.79906e-05
6.53643e-05
6.14254e-05
5.54569e-05
4.7146e-05
3.74751e-05
2.87723e-05
2.31335e-05
2.11245e-05
2.19818e-05
2.42387e-05
2.75263e-05
3.53792e-05
5.0812e-05
6.86927e-05
8.18651e-05
8.91211e-05
9.33683e-05
9.5783e-05
9.59308e-05
9.32558e-05
8.85386e-05
8.29817e-05
7.77881e-05
7.34871e-05
7.01197e-05
6.72835e-05
6.44983e-05
6.15707e-05
5.86147e-05
5.58371e-05
7.77095e-06
3.17505e-05
5.35301e-05
6.43895e-05
7.1201e-05
7.51799e-05
7.68606e-05
7.67575e-05
7.53766e-05
7.31974e-05
7.0659e-05
6.81631e-05
6.60812e-05
6.47544e-05
6.44047e-05
6.55177e-05
6.82514e-05
7.27208e-05
7.90572e-05
8.73471e-05
9.75277e-05
0.000109266
0.000121879
0.000134376
0.000145651
0.000154678
0.0001606
0.000162751
0.00016071
0.000154293
0.000143538
0.000128675
0.00010982
8.87095e-05
6.7556e-05
4.86172e-05
3.37864e-05
2.36752e-05
1.76097e-05
1.42915e-05
1.25691e-05
1.16739e-05
1.12138e-05
1.09157e-05
1.07029e-05
1.05201e-05
1.03403e-05
1.02709e-05
1.05423e-05
1.14852e-05
1.3667e-05
1.78594e-05
2.43652e-05
3.2468e-05
3.87576e-05
3.75828e-05
3.35816e-05
3.24007e-05
3.44859e-05
3.98854e-05
4.88162e-05
6.13458e-05
7.70856e-05
9.503e-05
0.000113652
0.000131333
0.000146904
0.000159923
0.000170567
0.000179328
0.000186761
0.000193351
0.00019946
0.000205315
0.000211001
0.000216481
0.000221621
0.000226219
0.00023004
0.000232706
0.000234192
0.000234389
0.000233192
0.00023052
0.000226325
0.000220584
0.000213313
0.000204563
0.000194537
0.000183663
0.000172452
0.000161865
0.000152425
0.000144546
0.000138585
0.000134218
0.00013125
0.00012943
0.00012848
0.000128122
0.000128117
0.000128286
0.000128522
0.000128768
0.000128999
0.000129203
0.000129366
0.000129472
0.000129494
0.000129403
0.000129168
0.00012876
0.000128155
0.000127336
0.000126297
0.00012504
0.000123577
0.000121927
0.000120119
0.000118191
0.000116164
0.000114073
0.000111947
0.000109815
0.000107701
0.000105625
0.000103604
0.00010165
9.97717e-05
9.79768e-05
9.62692e-05
9.46517e-05
9.31251e-05
9.16882e-05
9.03379e-05
8.90691e-05
8.78748e-05
8.67465e-05
8.56745e-05
8.46484e-05
8.36575e-05
8.26907e-05
8.17365e-05
8.07827e-05
7.98149e-05
7.88142e-05
7.77501e-05
7.65667e-05
7.51528e-05
7.32901e-05
7.0572e-05
6.63319e-05
5.97617e-05
5.0549e-05
3.98948e-05
3.04783e-05
2.4571e-05
2.26063e-05
2.34911e-05
2.56502e-05
2.9291e-05
3.81401e-05
5.39803e-05
7.1038e-05
8.30096e-05
8.9863e-05
9.42215e-05
9.67479e-05
9.65557e-05
9.32296e-05
8.78351e-05
8.15187e-05
7.54458e-05
7.0398e-05
6.65877e-05
6.36389e-05
6.09525e-05
5.81967e-05
5.54184e-05
5.28115e-05
8.58797e-06
3.31806e-05
5.56922e-05
6.51249e-05
6.97275e-05
7.10242e-05
6.97795e-05
6.66939e-05
6.24269e-05
5.75702e-05
5.26534e-05
4.81658e-05
4.45623e-05
4.22444e-05
4.15062e-05
4.21098e-05
4.41551e-05
4.78588e-05
5.35905e-05
6.1808e-05
7.29101e-05
8.69858e-05
0.000103504
0.000121179
0.00013828
0.000153161
0.000164527
0.000171413
0.000173231
0.000169691
0.000160777
0.000146772
0.000128228
0.00010565
8.16265e-05
5.87599e-05
3.98171e-05
2.64044e-05
1.83343e-05
1.40361e-05
1.19158e-05
1.08799e-05
1.03376e-05
1.00322e-05
9.83424e-06
9.71032e-06
9.63515e-06
9.70457e-06
1.01909e-05
1.15322e-05
1.43728e-05
1.92801e-05
2.60995e-05
3.35879e-05
3.74837e-05
3.48133e-05
3.23028e-05
3.31147e-05
3.73308e-05
4.5078e-05
5.65007e-05
7.13864e-05
8.89302e-05
0.000107756
0.000126248
0.000143059
0.00015749
0.000169494
0.000179443
0.000187864
0.000195277
0.000202106
0.000208636
0.000214993
0.000221157
0.000226995
0.000232297
0.000236812
0.000240278
0.000242393
0.000243213
0.000242671
0.0002407
0.000237253
0.000232309
0.000225884
0.000218031
0.000208739
0.0001981
0.000186606
0.000174495
0.00016297
0.000152678
0.000143899
0.000136779
0.000131275
0.000127269
0.000124585
0.000122982
0.000122184
0.000121926
0.000122003
0.000122278
0.000122671
0.00012314
0.000123661
0.000124212
0.000124768