/*--------------------------------*- C++ -*----------------------------------*\
| =========                 |                                                 |
| \\      /  F ield         | OpenFOAM: The Open Source CFD Toolbox           |
|  \\    /   O peration     | Version:  2112                                  |
|   \\  /    A nd           | Website:  www.openfoam.com                      |
|    \\/     M anipulation  |                                                 |
\*---------------------------------------------------------------------------*/
FoamFile
{
    version     2.0;
    format      ascii;
    arch        "LSB;label=32;scalar=64";
    class       volVectorField;
    location    "0.23";
    object      U;
}
// * * * * * * * * * * * * * * * * * * * * * * * * * * * * * * * * * * * * * //

dimensions      [0 1 -1 0 0 0 0];

internalField   nonuniform List<vector> 
12225
(
(9.77935 -0.122287 0)
(9.34592 -0.0962733 0)
(8.90859 -0.0550912 0)
(8.48679 -0.025442 0)
(8.10521 -0.00783545 0)
(7.77331 0.000495817 0)
(7.4928 0.00275151 0)
(7.26485 0.0010367 0)
(7.09072 -0.00348936 0)
(6.97172 -0.0102381 0)
(6.90757 -0.0179958 0)
(6.8963 -0.0264686 0)
(6.9319 -0.0353686 0)
(7.01705 -0.0458217 0)
(7.15946 -0.0595252 0)
(7.37109 -0.0777171 0)
(7.6834 -0.11201 0)
(8.13993 -0.147704 0)
(10.0955 0.12309 0)
(10.2955 0.194064 0)
(10.4327 0.188922 0)
(10.517 0.173987 0)
(10.5683 0.158397 0)
(10.5969 0.14165 0)
(10.6097 0.124177 0)
(10.614 0.106069 0)
(10.6166 0.0870589 0)
(10.6238 0.0662207 0)
(10.6404 0.0443003 0)
(10.6674 0.0226375 0)
(10.7121 -0.000373322 0)
(10.7795 -0.0273581 0)
(10.8752 -0.0609667 0)
(11.0087 -0.106856 0)
(11.1916 -0.173037 0)
(11.4485 -0.294221 0)
(10.0076 0.0302893 0)
(10.0534 0.0245828 0)
(10.1101 0.0110316 0)
(10.1683 0.0118499 0)
(10.2305 0.0166271 0)
(10.2961 0.0184 0)
(10.3619 0.0162438 0)
(10.4263 0.0103052 0)
(10.4887 0.000977381 0)
(10.5503 -0.0122335 0)
(10.6117 -0.0300399 0)
(10.678 -0.0501543 0)
(10.7536 -0.0740816 0)
(10.8421 -0.104581 0)
(10.9475 -0.145347 0)
(11.0752 -0.202781 0)
(11.2301 -0.289832 0)
(11.4156 -0.43663 0)
(10.0052 0.0225491 0)
(10.0345 0.0477841 0)
(10.0704 0.060059 0)
(10.1031 0.0675325 0)
(10.1373 0.069053 0)
(10.1768 0.0642867 0)
(10.2214 0.0548946 0)
(10.2704 0.0418595 0)
(10.3235 0.0257508 0)
(10.381 0.00763005 0)
(10.4445 -0.0146471 0)
(10.5156 -0.0417586 0)
(10.5957 -0.074549 0)
(10.6875 -0.115407 0)
(10.7936 -0.168377 0)
(10.9167 -0.24056 0)
(11.0579 -0.343872 0)
(11.2122 -0.501957 0)
(10.0042 0.0193644 0)
(10.0289 0.0424435 0)
(10.0604 0.0455868 0)
(10.09 0.0415383 0)
(10.121 0.0352937 0)
(10.1568 0.0263949 0)
(10.1973 0.0146438 0)
(10.2421 0.000143437 0)
(10.2917 -0.0182475 0)
(10.3463 -0.0395437 0)
(10.4068 -0.0644617 0)
(10.4747 -0.0946284 0)
(10.5512 -0.131334 0)
(10.638 -0.177181 0)
(10.7367 -0.236489 0)
(10.8477 -0.316085 0)
(10.9694 -0.42577 0)
(11.0921 -0.582294 0)
(10.0031 0.0151669 0)
(10.0234 0.0332585 0)
(10.0519 0.0353876 0)
(10.081 0.0323379 0)
(10.1118 0.0279263 0)
(10.1468 0.0204805 0)
(10.1861 0.00903277 0)
(10.2292 -0.00596256 0)
(10.2765 -0.0252829 0)
(10.3287 -0.0492571 0)
(10.3865 -0.0779227 0)
(10.4508 -0.11265 0)
(10.5227 -0.155043 0)
(10.6031 -0.207729 0)
(10.6923 -0.274745 0)
(10.7894 -0.361954 0)
(10.8909 -0.476674 0)
(10.9863 -0.629497 0)
(10.0024 0.0113337 0)
(10.0192 0.0255562 0)
(10.0449 0.0275344 0)
(10.073 0.0237657 0)
(10.1028 0.0172022 0)
(10.1363 0.00686746 0)
(10.1739 -0.00787326 0)
(10.2153 -0.0267439 0)
(10.2607 -0.0494995 0)
(10.3107 -0.0769674 0)
(10.3657 -0.109576 0)
(10.4264 -0.148613 0)
(10.4933 -0.195846 0)
(10.5666 -0.25378 0)
(10.646 -0.325927 0)
(10.7293 -0.416955 0)
(10.8123 -0.53183 0)
(10.8854 -0.676401 0)
(10.0019 0.0081194 0)
(10.016 0.018573 0)
(10.039 0.0192992 0)
(10.0655 0.0139121 0)
(10.094 0.0051607 0)
(10.126 -0.00717311 0)
(10.162 -0.0235826 0)
(10.2016 -0.0442247 0)
(10.2449 -0.0690768 0)
(10.2923 -0.0989505 0)
(10.344 -0.134555 0)
(10.4003 -0.177098 0)
(10.4615 -0.228276 0)
(10.5273 -0.290322 0)
(10.5964 -0.366095 0)
(10.6664 -0.458994 0)
(10.733 -0.571993 0)
(10.7881 -0.707636 0)
(10.0016 0.00536221 0)
(10.0134 0.0119845 0)
(10.0339 0.0108834 0)
(10.0586 0.00388916 0)
(10.0857 -0.00674909 0)
(10.1161 -0.020977 0)
(10.1501 -0.0393717 0)
(10.1875 -0.0622479 0)
(10.2282 -0.0897645 0)
(10.2725 -0.122574 0)
(10.3203 -0.161457 0)
(10.3718 -0.207519 0)
(10.4268 -0.262265 0)
(10.4845 -0.327565 0)
(10.5434 -0.405579 0)
(10.601 -0.498552 0)
(10.6531 -0.60794 0)
(10.6938 -0.734242 0)
(10.0013 0.00293848 0)
(10.0114 0.00580161 0)
(10.0295 0.00256365 0)
(10.0523 -0.00612678 0)
(10.0778 -0.0186889 0)
(10.1063 -0.0349607 0)
(10.1381 -0.0554563 0)
(10.173 -0.0805388 0)
(10.2108 -0.11047 0)
(10.2515 -0.145819 0)
(10.2951 -0.187376 0)
(10.3413 -0.236154 0)
(10.3896 -0.29343 0)
(10.4391 -0.360674 0)
(10.4881 -0.439392 0)
(10.5341 -0.530882 0)
(10.5738 -0.635557 0)
(10.6027 -0.752789 0)
(10.0011 0.00077211 0)
(10.0097 3.683e-05 0)
(10.0257 -0.00554377 0)
(10.0465 -0.0160776 0)
(10.0702 -0.0305924 0)
(10.0966 -0.048901 0)
(10.126 -0.0714282 0)
(10.158 -0.0985791 0)
(10.1926 -0.130696 0)
(10.2294 -0.168313 0)
(10.2683 -0.212156 0)
(10.3088 -0.2631 0)
(10.3503 -0.322151 0)
(10.3916 -0.390366 0)
(10.4311 -0.468674 0)
(10.4666 -0.557659 0)
(10.4954 -0.657081 0)
(10.5145 -0.765805 0)
(10.0009 -0.00104934 0)
(10.0085 -0.00494903 0)
(10.0227 -0.0127923 0)
(10.0416 -0.0251145 0)
(10.0635 -0.0414072 0)
(10.0878 -0.0615292 0)
(10.1147 -0.0858442 0)
(10.144 -0.114776 0)
(10.1752 -0.148704 0)
(10.2082 -0.188114 0)
(10.2425 -0.233633 0)
(10.2776 -0.285977 0)
(10.3127 -0.345905 0)
(10.3467 -0.414123 0)
(10.378 -0.491135 0)
(10.4048 -0.577056 0)
(10.4249 -0.671306 0)
(10.4363 -0.772607 0)
(10.0008 -0.00268133 0)
(10.0074 -0.00954281 0)
(10.02 -0.0196769 0)
(10.037 -0.0338269 0)
(10.0569 -0.0518393 0)
(10.0791 -0.0736692 0)
(10.1034 -0.0996404 0)
(10.1297 -0.130165 0)
(10.1575 -0.165627 0)
(10.1864 -0.206456 0)
(10.216 -0.25317 0)
(10.2457 -0.306324 0)
(10.2745 -0.366446 0)
(10.3014 -0.433952 0)
(10.3251 -0.509017 0)
(10.344 -0.591449 0)
(10.3565 -0.680497 0)
(10.3611 -0.774917 0)
(10.0007 -0.00437628 0)
(10.0063 -0.014397 0)
(10.0171 -0.0271078 0)
(10.032 -0.0433462 0)
(10.0496 -0.0632484 0)
(10.0691 -0.0868887 0)
(10.0903 -0.114562 0)
(10.113 -0.146649 0)
(10.1367 -0.183507 0)
(10.1608 -0.225497 0)
(10.1849 -0.273006 0)
(10.2083 -0.326407 0)
(10.2302 -0.385996 0)
(10.2495 -0.451922 0)
(10.2652 -0.524091 0)
(10.276 -0.602104 0)
(10.2808 -0.685147 0)
(10.2788 -0.772125 0)
(10.0006 -0.00610026 0)
(10.0052 -0.0193789 0)
(10.0142 -0.0348493 0)
(10.0267 -0.0533581 0)
(10.0415 -0.0752403 0)
(10.0578 -0.100679 0)
(10.0754 -0.12995 0)
(10.0938 -0.163384 0)
(10.1126 -0.201285 0)
(10.1312 -0.243925 0)
(10.1491 -0.291547 0)
(10.1656 -0.34434 0)
(10.18 -0.402389 0)
(10.1913 -0.465624 0)
(10.1988 -0.533771 0)
(10.2017 -0.606326 0)
(10.199 -0.682504 0)
(10.1904 -0.761431 0)
(10.0005 -0.0077885 0)
(10.0041 -0.0242755 0)
(10.0111 -0.0425242 0)
(10.021 -0.0633271 0)
(10.0326 -0.0871209 0)
(10.0452 -0.114163 0)
(10.0585 -0.144714 0)
(10.0721 -0.179042 0)
(10.0854 -0.217372 0)
(10.0978 -0.259873 0)
(10.1089 -0.30665 0)
(10.1181 -0.357727 0)
(10.1247 -0.413022 0)
(10.128 -0.472318 0)
(10.1275 -0.535242 0)
(10.1226 -0.601276 0)
(10.1128 -0.66972 0)
(10.098 -0.739928 0)
(10.0003 -0.00934019 0)
(10.0029 -0.0287718 0)
(10.008 -0.0495717 0)
(10.015 -0.0724258 0)
(10.023 -0.0977881 0)
(10.0316 -0.125947 0)
(10.0401 -0.157137 0)
(10.0483 -0.19156 0)
(10.0556 -0.229357 0)
(10.0615 -0.270593 0)
(10.0655 -0.315257 0)
(10.0672 -0.363252 0)
(10.0661 -0.414389 0)
(10.0617 -0.468372 0)
(10.0537 -0.524806 0)
(10.0416 -0.583216 0)
(10.0254 -0.643012 0)
(10.0049 -0.703749 0)
(10.0002 -0.010609 0)
(10.0018 -0.0324261 0)
(10.0048 -0.0552341 0)
(10.0089 -0.0795692 0)
(10.0132 -0.105835 0)
(10.0174 -0.134304 0)
(10.021 -0.165174 0)
(10.0235 -0.198579 0)
(10.0247 -0.234581 0)
(10.024 -0.273164 0)
(10.0211 -0.314237 0)
(10.0157 -0.357633 0)
(10.0074 -0.40311 0)
(9.99603 -0.450363 0)
(9.9813 -0.499022 0)
(9.9631 -0.548688 0)
(9.94134 -0.598886 0)
(9.91607 -0.649331 0)
(10.0001 -0.0114161 0)
(10.0007 -0.0346332 0)
(10.0017 -0.0583866 0)
(10.0029 -0.0830508 0)
(10.0037 -0.108961 0)
(10.0036 -0.136364 0)
(10.0023 -0.165424 0)
(9.99951 -0.196223 0)
(9.99485 -0.228772 0)
(9.9881 -0.263012 0)
(9.97901 -0.29882 0)
(9.96738 -0.336014 0)
(9.95306 -0.37436 0)
(9.93593 -0.413584 0)
(9.91593 -0.45338 0)
(9.89303 -0.493436 0)
(9.86729 -0.533392 0)
(9.83877 -0.573078 0)
(10 -0.0117163 0)
(10.0001 -0.0352773 0)
(10 -0.0588696 0)
(9.99946 -0.0827366 0)
(9.99791 -0.107189 0)
(9.99498 -0.132488 0)
(9.99041 -0.158795 0)
(9.98398 -0.186178 0)
(9.97549 -0.214638 0)
(9.96478 -0.244116 0)
(9.95171 -0.274494 0)
(9.9362 -0.305606 0)
(9.91818 -0.337249 0)
(9.89765 -0.369196 0)
(9.87463 -0.401202 0)
(9.84916 -0.433026 0)
(9.82135 -0.464396 0)
(9.79131 -0.495201 0)
(10 -0.0117508 0)
(9.99991 -0.0351513 0)
(9.99948 -0.0580919 0)
(9.99815 -0.0807308 0)
(9.99539 -0.103439 0)
(9.99086 -0.126535 0)
(9.98439 -0.15018 0)
(9.97587 -0.174444 0)
(9.96515 -0.199351 0)
(9.95215 -0.224873 0)
(9.93682 -0.25092 0)
(9.91916 -0.277348 0)
(9.89918 -0.303979 0)
(9.87692 -0.330615 0)
(9.85246 -0.357047 0)
(9.8259 -0.383071 0)
(9.79734 -0.408465 0)
(9.76696 -0.433144 0)
(10 -0.0117976 0)
(10.0001 -0.0350189 0)
(9.99981 -0.0571499 0)
(9.99831 -0.0783312 0)
(9.99495 -0.0991516 0)
(9.98949 -0.120051 0)
(9.9819 -0.141173 0)
(9.97209 -0.162556 0)
(9.95997 -0.184233 0)
(9.94551 -0.206203 0)
(9.92874 -0.228405 0)
(9.90973 -0.250731 0)
(9.88856 -0.273038 0)
(9.86532 -0.295163 0)
(9.84013 -0.316931 0)
(9.81311 -0.338169 0)
(9.78438 -0.358688 0)
(9.75408 -0.378402 0)
(10.0001 -0.0120054 0)
(10.0007 -0.035244 0)
(10.0011 -0.0565268 0)
(9.9999 -0.0760965 0)
(9.99629 -0.0948835 0)
(9.99028 -0.113488 0)
(9.98202 -0.132104 0)
(9.97148 -0.150826 0)
(9.95856 -0.169729 0)
(9.94326 -0.188811 0)
(9.92569 -0.207993 0)
(9.90595 -0.227163 0)
(9.88417 -0.246185 0)
(9.86048 -0.264908 0)
(9.83503 -0.283167 0)
(9.80797 -0.3008 0)
(9.77945 -0.31764 0)
(9.74967 -0.333616 0)
(10.0002 -0.0125128 0)
(10.0017 -0.0360041 0)
(10.0034 -0.0563319 0)
(10.0029 -0.0744307 0)
(9.99942 -0.091575 0)
(9.99317 -0.1081 0)
(9.98447 -0.12407 0)
(9.97333 -0.139752 0)
(9.95971 -0.155431 0)
(9.94371 -0.171221 0)
(9.92551 -0.187102 0)
(9.90524 -0.202997 0)
(9.88306 -0.218795 0)
(9.85914 -0.234356 0)
(9.83364 -0.24951 0)
(9.80672 -0.264082 0)
(9.77852 -0.277894 0)
(9.74916 -0.290832 0)
(10.0005 -0.0135438 0)
(10.0035 -0.0376427 0)
(10.0067 -0.0560595 0)
(10.0069 -0.0720065 0)
(10.0037 -0.0880491 0)
(9.99783 -0.104044 0)
(9.98942 -0.119419 0)
(9.97828 -0.134202 0)
(9.96436 -0.148628 0)
(9.94791 -0.162812 0)
(9.92917 -0.176775 0)
(9.90833 -0.190502 0)
(9.88559 -0.203949 0)
(9.86118 -0.217032 0)
(9.83531 -0.229618 0)
(9.80819 -0.241546 0)
(9.77998 -0.25265 0)
(9.75094 -0.262816 0)
(10.001 -0.0150463 0)
(10.0068 -0.0416178 0)
(10.0122 -0.0581221 0)
(10.0125 -0.0692219 0)
(10.0083 -0.0796083 0)
(10.0017 -0.0902382 0)
(9.99295 -0.101061 0)
(9.98143 -0.112192 0)
(9.96712 -0.123692 0)
(9.95029 -0.135478 0)
(9.93123 -0.147431 0)
(9.9102 -0.159442 0)
(9.88745 -0.171401 0)
(9.86331 -0.183168 0)
(9.8381 -0.19456 0)
(9.81208 -0.205357 0)
(9.7855 -0.215358 0)
(9.75838 -0.224295 0)
(10.0013 -0.0154041 0)
(10.0102 -0.0451526 0)
(10.0201 -0.0692453 0)
(10.0228 -0.0891302 0)
(10.0195 -0.105056 0)
(10.0135 -0.11729 0)
(10.0057 -0.127155 0)
(9.99573 -0.135901 0)
(9.98401 -0.14417 0)
(9.97097 -0.152242 0)
(9.957 -0.160287 0)
(9.94239 -0.168413 0)
(9.92743 -0.176665 0)
(9.91241 -0.185009 0)
(9.89761 -0.193294 0)
(9.88319 -0.201299 0)
(9.86931 -0.208788 0)
(9.8556 -0.2155 0)
(10.0011 -0.0169507 0)
(10.0139 -0.016348 0)
(10.0322 -0.0121113 0)
(10.0493 -0.0199516 0)
(10.0666 -0.0339375 0)
(10.0852 -0.0485264 0)
(10.1041 -0.0627616 0)
(10.1221 -0.076867 0)
(10.1388 -0.0908239 0)
(10.154 -0.104531 0)
(10.1674 -0.117966 0)
(10.1784 -0.131142 0)
(10.1868 -0.144085 0)
(10.1925 -0.156778 0)
(10.1953 -0.169013 0)
(10.195 -0.180508 0)
(10.1916 -0.19093 0)
(10.1846 -0.200333 0)
(10.049 -0.0919909 0)
(10.1734 -0.160845 0)
(10.275 -0.170657 0)
(10.3512 -0.171327 0)
(10.4078 -0.171717 0)
(10.4445 -0.171481 0)
(10.4599 -0.171335 0)
(10.4548 -0.17195 0)
(10.4308 -0.173384 0)
(10.3898 -0.175482 0)
(10.3336 -0.178109 0)
(10.2635 -0.181142 0)
(10.1812 -0.18453 0)
(10.088 -0.18823 0)
(9.98551 -0.19198 0)
(9.87513 -0.195421 0)
(9.758 -0.198176 0)
(9.63622 -0.200443 0)
(9.88244 0.0949867 0)
(9.62678 0.0696685 0)
(9.32109 0.0306074 0)
(8.9832 -0.000239626 0)
(8.63779 -0.0222416 0)
(8.29574 -0.0368979 0)
(7.95982 -0.0465526 0)
(7.63133 -0.0530484 0)
(7.31131 -0.0574592 0)
(7.00021 -0.0604132 0)
(6.69801 -0.0623239 0)
(6.40451 -0.063458 0)
(6.11978 -0.0640811 0)
(5.84295 -0.0644279 0)
(5.57342 -0.0644681 0)
(5.31212 -0.0640264 0)
(5.05952 -0.0629613 0)
(4.81809 -0.0614806 0)
(-0.258223 0.535968 5.06309e-20)
(-0.787481 0.535242 -4.40297e-20)
(-1.30172 0.415324 0)
(-1.71108 0.208541 0)
(-1.90893 -0.0417808 0)
(-1.85021 -0.255647 3.37272e-20)
(-1.66089 -0.375731 0)
(-1.45341 -0.409636 0)
(-1.24846 -0.401981 0)
(-1.06412 -0.380734 0)
(-0.89788 -0.35988 -4.40335e-20)
(-0.74241 -0.345058 0)
(-0.586571 -0.336832 0)
(-0.423386 -0.332839 0)
(-0.245608 -0.332509 0)
(-0.0454464 -0.336037 -5.81148e-20)
(0.183284 -0.343799 0)
(0.44476 -0.355913 0)
(0.742777 -0.372302 0)
(1.07991 -0.392229 0)
(1.45765 -0.414673 0)
(1.87661 -0.438336 0)
(2.33612 -0.462004 0)
(2.83434 -0.484509 -4.39427e-20)
(3.36824 -0.504497 4.13811e-20)
(3.93341 -0.520347 -3.86862e-20)
(4.52375 -0.530322 -3.58898e-20)
(5.13121 -0.532661 0)
(5.74557 -0.524746 0)
(6.35384 -0.502067 2.73473e-20)
(6.93829 -0.460938 2.4662e-20)
(7.4752 -0.400706 0)
(7.94186 -0.307167 0)
(8.31531 -0.132953 1.84634e-20)
(8.48701 0.152095 0)
(8.37846 0.507959 0)
(7.97654 0.85803 -1.6952e-20)
(7.26991 1.127 0)
(6.28714 1.24955 -1.85847e-20)
(5.11064 1.16521 -3.87379e-20)
(3.90325 0.830603 0)
(2.86935 0.326998 0)
(2.12501 -0.0787893 0)
(1.64856 -0.17973 0)
(1.34182 -0.0428119 0)
(1.06865 0.137086 -3.87048e-20)
(0.69274 0.247726 -3.50938e-20)
(0.161912 0.273969 -2.79846e-20)
(-0.412523 0.213081 0)
(-0.867964 0.0708121 1.07139e-20)
(-1.09097 -0.126334 0)
(-1.03451 -0.359053 -7.19146e-21)
(-0.711414 -0.592435 -1.19616e-20)
(-0.0937637 -0.786437 0)
(0.787421 -0.857184 0)
(1.75779 -0.735789 0)
(2.59395 -0.420783 -2.29128e-20)
(3.0526 -0.0316301 0)
(3.04397 0.214024 0)
(2.81628 0.228496 0)
(2.62785 0.0934996 0)
(2.6044 -0.083699 0)
(2.70785 -0.26049 0)
(2.77149 -0.411096 0)
(2.60214 -0.374609 0)
(2.04634 -0.0337414 1.82429e-20)
(1.03437 0.453062 0)
(-0.337371 0.825329 0)
(-1.85091 1.01381 1.25809e-21)
(-3.37454 1.07173 1.1275e-20)
(-4.83115 1.03922 0)
(-6.16327 0.949777 -2.95938e-20)
(-7.33924 0.829599 3.73141e-20)
(-8.34628 0.697338 0)
(-9.18403 0.56506 -4.93779e-20)
(-9.85941 0.439851 0)
(-10.3828 0.325652 0)
(-10.7657 0.224601 5.95051e-20)
(-11.0204 0.137873 0)
(-11.1578 0.0666602 -6.16543e-20)
(-11.1887 0.0112145 0)
(-11.1399 -0.0318019 6.00173e-20)
(-11.0232 -0.0680772 5.79415e-20)
(-10.8451 -0.100375 5.51166e-20)
(-10.6103 -0.129978 1.03163e-19)
(-10.3223 -0.157505 -9.47417e-20)
(-9.9839 -0.183374 0)
(-9.59708 -0.207918 0)
(-9.16345 -0.231409 0)
(-8.68415 -0.254031 -4.83582e-20)
(-8.16013 -0.275845 -3.36432e-20)
(-7.59242 -0.296742 1.76626e-20)
(-6.98254 -0.316421 0)
(-6.33292 -0.334387 1.81042e-20)
(-5.64731 -0.349993 3.7834e-20)
(-4.93104 -0.36252 5.86981e-20)
(-4.19108 -0.371271 0)
(-3.43593 -0.375651 0)
(-2.67533 -0.375221 0)
(-1.91995 -0.369702 1.50507e-19)
(-1.18041 -0.358805 0)
(-0.464399 -0.342221 0)
(0.222796 -0.320389 -2.03569e-19)
(0.874211 -0.29476 0)
(1.48402 -0.268426 0)
(2.0463 -0.241906 -1.72907e-19)
(2.55928 -0.215618 0)
(3.02249 -0.189981 0)
(3.43628 -0.165314 1.46008e-19)
(3.80174 -0.141835 1.38263e-19)
(4.12053 -0.119688 0)
(4.39466 -0.098955 -1.24716e-19)
(4.6264 -0.0796579 0)
(4.8181 -0.0618119 1.13675e-19)
(4.97223 -0.0453371 0)
(5.09108 -0.0299808 1.04947e-19)
(5.17586 -0.0160393 1.01379e-19)
(5.23091 -0.0011506 0)
(5.24802 0.0192259 0)
(5.21841 0.0438438 0)
(5.14606 0.0680284 0)
(5.03554 0.089166 0)
(4.89122 0.106431 0)
(4.71756 0.119802 0)
(4.51873 0.129488 8.81431e-20)
(4.29857 0.135634 -8.79547e-20)
(4.06114 0.138078 0)
(3.81134 0.136207 0)
(3.55554 0.129034 0)
(3.30193 0.115676 0)
(3.06031 0.0960879 -1.776e-19)
(2.84081 0.0717162 0)
(2.65185 0.0455954 1.78356e-19)
(2.49792 0.0214648 -1.78551e-19)
(2.37888 0.00241131 0)
(2.29066 -0.00983259 0)
(2.22558 -0.0150491 0)
(2.17463 -0.0145302 1.77834e-19)
(2.12962 -0.0105902 1.77346e-19)
(2.08479 -0.00575472 0)
(2.03754 -0.00203392 1.76215e-19)
(1.98822 -0.000507927 1.75621e-19)
(1.9391 -0.00136182 -1.75018e-19)
(1.89346 -0.00430887 0)
(1.85492 -0.0090198 0)
(1.82706 -0.014967 -1.7302e-19)
(1.81253 -0.0210038 0)
(1.81162 -0.0263484 0)
(1.82457 -0.0311538 0)
(1.85227 -0.0358659 0)
(1.8957 -0.040995 1.67502e-19)
(1.95566 -0.0467902 1.66045e-19)
(2.03184 -0.0523595 0)
(2.12314 -0.0564976 1.62822e-19)
(2.22947 -0.0569002 0)
(2.3507 -0.0493823 0)
(2.47785 -0.0299588 1.57827e-19)
(2.58427 -0.00314019 0)
(2.64773 0.0133631 1.55977e-19)
(2.68362 0.00412562 0)
(2.70267 -0.0206912 0)
(2.5777 -0.00294394 1.52136e-19)
(1.98128 0.147389 0)
(0.557224 0.409093 1.2272e-19)
(-1.39603 0.547633 0)
(-3.26399 0.504809 0)
(-4.76611 0.375843 0)
(-5.79939 0.227895 3.26522e-20)
(-6.35579 0.0944618 0)
(-6.47206 -0.0103549 -4.16893e-20)
(-6.24356 -0.0907142 0)
(-5.72845 -0.159772 0)
(-4.94852 -0.221033 0)
(-3.94256 -0.270964 0)
(-2.77259 -0.303531 0)
(-1.52028 -0.313111 0)
(-0.265393 -0.296552 0)
(0.899838 -0.258333 -4.23112e-19)
(1.93088 -0.200925 0)
(2.68533 -0.13282 0)
(-0.253514 1.5946 -1.29584e-19)
(-0.73947 1.56747 1.16097e-19)
(-1.14645 1.30765 0)
(-1.36761 0.832094 -6.71657e-20)
(-1.31838 0.204985 0)
(-1.16681 -0.355873 -3.72326e-20)
(-1.08774 -0.59517 7.17888e-20)
(-1.02554 -0.593125 7.40584e-20)
(-1.00686 -0.52233 0)
(-1.00375 -0.447595 7.83558e-20)
(-1.00629 -0.39326 4.22321e-20)
(-1.00355 -0.365939 0)
(-0.987939 -0.366041 0)
(-0.951752 -0.391728 0)
(-0.88795 -0.440494 0)
(-0.789659 -0.509135 5.19176e-20)
(-0.65119 -0.594332 0)
(-0.466946 -0.692291 -1.12591e-19)
(-0.233986 -0.799665 0)
(0.0514297 -0.912062 0)
(0.387679 -1.02567 1.05253e-19)
(0.774204 -1.13699 0)
(1.20889 -1.24262 -9.48411e-20)
(1.68848 -1.33918 4.6573e-20)
(2.20904 -1.42352 -4.35822e-20)
(2.76604 -1.49222 4.05253e-20)
(3.35388 -1.54138 3.74285e-20)
(3.96576 -1.56654 0)
(4.59345 -1.56258 0)
(5.22761 -1.523 -2.82457e-20)
(5.85898 -1.44002 2.2277e-20)
(6.47823 -1.30626 0)
(7.07144 -1.11216 0)
(7.62621 -0.836461 -1.84323e-20)
(8.21003 -0.446714 0)
(8.82755 0.0762158 0)
(9.37491 0.710004 1.44793e-20)
(9.7561 1.39417 0)
(9.87182 2.02664 -5.65738e-21)
(9.64285 2.47784 2.47742e-20)
(9.05279 2.63468 0)
(8.1324 2.4758 0)
(6.92789 2.0768 4.05779e-20)
(5.57074 1.54393 4.58423e-20)
(4.28774 1.06288 5.01043e-20)
(3.24267 0.886575 -2.34602e-20)
(2.42638 1.01825 2.51766e-20)
(1.7378 1.16203 5.68112e-20)
(1.1554 1.09115 -2.26365e-20)
(0.72336 0.770909 -1.08006e-20)
(0.426973 0.255277 0)
(0.322285 -0.382012 7.68326e-21)
(0.481894 -1.05399 1.62002e-21)
(0.880309 -1.65079 0)
(1.48504 -1.96663 0)
(2.19005 -1.83858 0)
(2.83327 -1.31008 2.09913e-20)
(3.30385 -0.583042 0)
(3.56035 0.0635935 -3.49229e-20)
(3.59604 0.360244 0)
(3.54373 0.239748 -3.68865e-20)
(3.36975 -0.0474323 0)
(2.78863 0.00484352 4.07032e-20)
(1.55044 0.671173 0)
(-0.230439 1.56616 -3.45436e-20)
(-2.15994 2.25305 5.9609e-21)
(-4.02598 2.6749 0)
(-5.71033 2.82654 -4.36404e-21)
(-7.144 2.76243 -7.38058e-22)
(-8.31471 2.55304 -7.25739e-21)
(-9.23347 2.2626 0)
(-9.92884 1.94018 -3.69924e-20)
(-10.4384 1.61877 -2.9858e-20)
(-10.8008 1.31727 0)
(-11.0508 1.0441 4.34661e-20)
(-11.2163 0.800904 -1.06824e-19)
(-11.3187 0.585805 0)
(-11.3731 0.395767 -5.69196e-20)
(-11.3887 0.227964 0)
(-11.3719 0.0808373 1.86372e-19)
(-11.3233 -0.0466114 0)
(-11.2251 -0.157464 -1.80069e-19)
(-11.0721 -0.256386 -5.66174e-20)
(-10.8653 -0.346311 5.69488e-20)
(-10.6066 -0.429064 1.06449e-19)
(-10.2982 -0.505875 -9.78247e-20)
(-9.9423 -0.577756 0)
(-9.54067 -0.645602 0)
(-9.09454 -0.710174 0)
(-8.60471 -0.772002 1.44974e-19)
(-8.07176 -0.831252 3.20821e-20)
(-7.49629 -0.887595 -1.677e-20)
(-6.87941 -0.940123 0)
(-6.22315 -0.987352 1.03512e-20)
(-5.53098 -1.02735 -3.54013e-20)
(-4.80808 -1.05802 -5.46443e-20)
(-4.06143 -1.07739 0)
(-3.2996 -1.08397 0)
(-2.53241 -1.07697 0)
(-1.77048 -1.05649 -1.37592e-19)
(-1.02426 -1.02333 0)
(-0.301081 -0.978261 3.48457e-19)
(0.391899 -0.921709 5.36115e-19)
(1.0476 -0.856513 -3.42821e-19)
(1.66049 -0.787628 0)
(2.22672 -0.716953 -1.55789e-19)
(2.74486 -0.646086 0)
(3.21465 -0.57642 -2.85882e-19)
(3.6367 -0.509 1.35287e-19)
(4.01233 -0.444562 1.29006e-19)
(4.34338 -0.383598 0)
(4.63205 -0.326402 3.55367e-19)
(4.88071 -0.273101 -2.2636e-19)
(5.09191 -0.223711 -1.09027e-19)
(5.26814 -0.178107 0)
(5.41198 -0.135954 -1.01064e-19)
(5.52678 -0.0970274 -2.92527e-19)
(5.61305 -0.0595352 0)
(5.68318 -0.0210067 -1.83555e-19)
(5.74878 0.0173203 -1.7833e-19)
(5.80784 0.0541109 -1.73231e-19)
(5.85758 0.0879058 0)
(5.89453 0.11855 0)
(5.91575 0.1464 0)
(5.91907 0.171637 7.87775e-20)
(5.90285 0.194132 7.80301e-20)
(5.8659 0.213351 0)
(5.80759 0.228235 1.51353e-19)
(5.72803 0.237231 1.49793e-19)
(5.62855 0.238621 0)
(5.51201 0.231159 1.47761e-19)
(5.38281 0.214792 2.94256e-19)
(5.24619 0.19113 -1.46778e-19)
(5.10735 0.163274 -1.47156e-19)
(4.9705 0.134946 0)
(4.83837 0.109584 0)
(4.71225 0.0896538 0)
(4.5924 0.0761484 -1.48422e-19)
(4.47838 0.0685488 1.48808e-19)
(4.36919 0.0652418 2.97962e-19)
(4.26346 0.0641195 -1.49118e-19)
(4.15989 0.0631644 1.49203e-19)
(4.05758 0.0608545 1.49297e-19)
(3.95633 0.0562952 0)
(3.85666 0.0491498 0)
(3.75951 0.0395826 -1.49989e-19)
(3.66595 0.028361 0)
(3.578 0.0162056 0)
(3.49855 0.00317452 3.01428e-19)
(3.4296 -0.0107407 0)
(3.37206 -0.0250108 1.51054e-19)
(3.32677 -0.0381541 -1.50758e-19)
(3.29381 -0.0501816 0)
(3.27135 -0.0619187 1.50185e-19)
(3.25996 -0.0757553 0)
(3.26958 -0.0916835 0)
(3.31802 -0.100318 -1.48221e-19)
(3.41211 -0.0880171 2.94598e-19)
(3.52722 -0.0569993 -1.46823e-19)
(3.59563 -0.0159498 0)
(3.45196 0.0960878 0)
(2.6524 0.448473 1.44333e-19)
(0.708188 1.05595 0)
(-1.76395 1.46469 8.79045e-20)
(-3.77783 1.44974 0)
(-5.11361 1.17228 0)
(-5.88153 0.819291 0)
(-6.26098 0.482229 -3.1085e-20)
(-6.39203 0.187232 0)
(-6.33949 -0.0628266 4.1293e-20)
(-6.05699 -0.278853 0)
(-5.50686 -0.472507 0)
(-4.70438 -0.644191 5.80476e-20)
(-3.68262 -0.782809 -1.38616e-19)
(-2.50116 -0.872145 0)
(-1.24177 -0.899047 0)
(0.0139768 -0.857719 0)
(1.17837 -0.757513 1.14984e-18)
(2.20488 -0.615762 0)
(3.01878 -0.433366 -7.32448e-19)
(-0.115822 2.45609 8.02069e-21)
(-0.396828 2.32821 -1.44815e-19)
(-0.617049 1.83032 0)
(-0.726471 1.00344 1.45632e-19)
(-0.696275 0.0480675 0)
(-0.749926 -0.501575 0)
(-0.970272 -0.513413 -2.98406e-21)
(-1.2123 -0.374638 -7.32657e-20)
(-1.43667 -0.25121 -6.77078e-20)
(-1.62888 -0.186906 -7.05456e-20)
(-1.78296 -0.180248 0)
(-1.89681 -0.22123 0)
(-1.96734 -0.30097 6.55104e-20)
(-1.99204 -0.413594 1.336e-19)
(-1.96879 -0.554425 -1.37676e-19)
(-1.89606 -0.718598 0)
(-1.77283 -0.900816 -1.50286e-19)
(-1.5988 -1.09554 8.63484e-20)
(-1.3742 -1.29693 0)
(-1.10015 -1.49966 -1.80642e-19)
(-0.777936 -1.69898 -1.05134e-19)
(-0.408676 -1.89112 2.01902e-19)
(0.00729625 -2.07182 1.05494e-19)
(0.467725 -2.23601 0)
(0.968697 -2.37941 -1.67787e-19)
(1.50608 -2.4975 -1.54537e-19)
(2.07516 -2.58551 0)
(2.67103 -2.63776 -1.28587e-19)
(3.2876 -2.64768 0)
(3.91749 -2.60803 -1.03459e-19)
(4.55214 -2.51054 -5.0473e-20)
(5.18225 -2.34677 0)
(5.7971 -2.11415 0)
(6.38306 -1.8202 0)
(6.93017 -1.46417 0)
(7.45494 -1.01602 0)
(8.02074 -0.41609 0)
(8.65661 0.373327 -2.6659e-20)
(9.31526 1.31144 4.01945e-20)
(9.87801 2.2666 0)
(10.1874 3.06516 0)
(10.1032 3.57167 0)
(9.56055 3.72928 -1.2018e-20)
(8.60908 3.55141 -3.29489e-20)
(7.38699 3.13098 -5.93486e-20)
(6.07771 2.65455 6.10567e-20)
(4.90041 2.31604 2.37731e-20)
(3.99331 2.11609 -2.57874e-20)
(3.33068 1.85663 5.8596e-21)
(2.83258 1.38752 -3.13107e-21)
(2.456 0.705078 0)
(2.19906 -0.14353 1.58308e-21)
(2.09841 -1.11411 3.58808e-21)
(2.18977 -2.06892 0)
(2.47471 -2.665 0)
(2.86206 -2.58319 2.76757e-20)
(3.19324 -1.87174 0)
(3.36055 -0.899594 0)
(3.39691 -0.111556 -2.69518e-20)
(3.30971 0.228939 -6.55011e-20)
(2.8406 0.419012 3.91068e-20)
(1.58892 1.10129 0)
(-0.364541 2.27365 -3.83592e-20)
(-2.44897 3.34043 0)
(-4.35844 4.07137 5.07067e-21)
(-5.94076 4.42456 -1.32845e-20)
(-7.16348 4.45612 -2.70957e-20)
(-8.05177 4.23507 -4.63243e-20)
(-8.67259 3.84106 0)
(-9.10675 3.35679 1.00206e-19)
(-9.42799 2.84995 0)
(-9.69123 2.36582 2.1149e-19)
(-9.92863 1.9281 1.77708e-19)
(-10.1526 1.54408 2.00388e-19)
(-10.362 1.2111 -2.20303e-19)
(-10.5485 0.921853 3.45768e-19)
(-10.7018 0.667793 0)
(-10.8123 0.44096 0)
(-10.8722 0.234884 -2.66929e-19)
(-10.8771 0.0445643 -3.96693e-19)
(-10.8259 -0.133429 0)
(-10.7202 -0.299983 1.22215e-19)
(-10.5626 -0.454539 0)
(-10.3553 -0.59766 -3.42662e-19)
(-10.1003 -0.730423 9.37621e-21)
(-9.79967 -0.854131 -9.03737e-21)
(-9.45519 -0.970175 1.7805e-19)
(-9.06825 -1.07996 0)
(-8.63964 -1.18477 -1.31975e-19)
(-8.16958 -1.28554 9.05397e-21)
(-7.65787 -1.38261 0)
(-7.10422 -1.47546 0)
(-6.50872 -1.56251 0)
(-5.87253 -1.64116 -2.64373e-20)
(-5.19845 -1.70792 0)
(-4.49131 -1.75896 0)
(-3.75818 -1.79064 0)
(-3.00806 -1.8002 0)
(-2.25153 -1.78631 0)
(-1.49999 -1.74937 -2.45675e-19)
(-0.764423 -1.69142 0)
(-0.0524643 -1.61443 -3.19678e-19)
(0.627466 -1.52016 -3.21177e-19)
(1.26888 -1.41415 3.12767e-19)
(1.86651 -1.30149 0)
(2.41734 -1.18559 2.92163e-19)
(2.92024 -1.06938 0)
(3.3752 -0.955192 2.69665e-19)
(3.78309 -0.844796 -2.58533e-19)
(4.14545 -0.739421 -7.38804e-19)
(4.46428 -0.639881 0)
(4.74187 -0.546656 -6.80269e-19)
(4.9807 -0.45997 -2.15869e-19)
(5.18336 -0.379837 0)
(5.35251 -0.306118 -4.0431e-19)
(5.49079 -0.238574 -3.91173e-19)
(5.60101 -0.176609 5.7021e-19)
(5.68562 -0.120357 0)
(5.74643 -0.0709095 1.80804e-19)
(5.78706 -0.0274523 1.76643e-19)
(5.81229 0.0125227 5.14761e-19)
(5.82565 0.0498639 0)
(5.83083 0.0850327 0)
(5.83075 0.118305 0)
(5.82758 0.14968 1.56571e-19)
(5.82296 0.178935 0)
(5.81781 0.205565 0)
(5.8121 0.228621 -1.50114e-19)
(5.80466 0.246617 -1.47859e-19)
(5.79304 0.257671 0)
(5.77387 0.260021 0)
(5.74371 0.252851 -2.85095e-19)
(5.70012 0.237026 0)
(5.64251 0.21521 2.81576e-19)
(5.57228 0.191175 2.81228e-19)
(5.49231 0.168741 0)
(5.40615 0.150757 0)
(5.31722 0.138447 -2.81129e-19)
(5.22816 0.131402 -6.28693e-23)
(5.14045 0.128107 -1.1321e-22)
(5.05444 0.126647 0)
(4.96963 0.125267 -5.62021e-19)
(4.88499 0.122662 0)
(4.79939 0.118001 0)
(4.71178 0.11085 0)
(4.62138 0.101191 2.81456e-19)
(4.52791 0.0893173 0)
(4.43175 0.0755152 -5.66205e-19)
(4.33365 0.0599146 -2.83973e-19)
(4.23427 0.0424717 0)
(4.1351 0.0232629 -2.86668e-19)
(4.0384 0.00360049 0)
(3.94548 -0.0150655 0)
(3.85582 -0.0321141 -8.69937e-19)
(3.77103 -0.0521962 5.80564e-19)
(3.7066 -0.0820953 0)
(3.69022 -0.115297 5.76235e-19)
(3.7314 -0.125795 -2.87569e-19)
(3.78184 -0.0830284 0)
(3.68643 0.0751187 0)
(3.08933 0.519488 0)
(1.45134 1.38322 -8.09654e-19)
(-0.967734 2.22652 0)
(-2.88962 2.43423 -1.63552e-19)
(-4.06695 2.11571 0)
(-4.79531 1.58718 0)
(-5.32305 1.06364 0)
(-5.70601 0.607999 0)
(-5.89874 0.211513 0)
(-5.85599 -0.147279 0)
(-5.56092 -0.483351 1.48363e-19)
(-5.01455 -0.79551 0)
(-4.22572 -1.07445 -5.63131e-20)
(-3.22219 -1.2992 3.77007e-19)
(-2.06077 -1.44181 0)
(-0.823047 -1.48089 0)
(0.403829 -1.4086 -6.65824e-19)
(1.5342 -1.24441 -7.02189e-19)
(2.52471 -1.02199 6.91837e-19)
(3.31733 -0.74915 6.91454e-19)
(-0.0184483 2.85812 2.00107e-19)
(-0.201663 2.76011 1.95047e-19)
(-0.359185 2.13919 1.2979e-19)
(-0.453436 1.21701 6.54632e-20)
(-0.56041 0.331478 0)
(-0.940463 0.119991 -1.36079e-19)
(-1.39095 0.250165 5.76049e-20)
(-1.7598 0.311972 0)
(-2.06406 0.285 6.04966e-20)
(-2.31197 0.215976 0)
(-2.50839 0.115379 -1.02178e-19)
(-2.65535 -0.0193214 0)
(-2.75194 -0.189881 -5.75881e-20)
(-2.79671 -0.39494 -1.16454e-19)
(-2.78816 -0.630314 1.19031e-19)
(-2.72565 -0.890057 0)
(-2.60955 -1.16727 1.27796e-19)
(-2.4412 -1.45472 0)
(-2.22265 -1.74542 0)
(-1.95651 -2.03299 1.4887e-19)
(-1.64573 -2.31188 0)
(-1.29366 -2.57733 -2.06419e-20)
(-0.903413 -2.82529 0)
(-0.476937 -3.05237 0)
(-0.0144958 -3.25475 2.1281e-20)
(0.483545 -3.42576 1.64321e-19)
(1.01422 -3.55915 1.32062e-19)
(1.57433 -3.64777 1.3594e-19)
(2.1602 -3.68355 0)
(2.76728 -3.65748 2.03954e-19)
(3.38954 -3.56026 0)
(4.01997 -3.38319 7.13485e-20)
(4.65101 -3.11879 0)
(5.27388 -2.76176 0)
(5.87712 -2.31087 -3.9365e-20)
(6.44726 -1.77519 0)
(6.97738 -1.17386 2.22477e-20)
(7.48779 -0.50788 1.48363e-20)
(8.04193 0.280353 -3.23429e-20)
(8.67513 1.24146 7.75652e-21)
(9.32689 2.32354 0)
(9.85195 3.37872 0)
(10.083 4.22818 -1.38711e-20)
(9.90392 4.7233 0)
(9.29273 4.79416 1.9817e-20)
(8.34095 4.49604 -2.01007e-20)
(7.24592 3.99396 -1.84437e-20)
(6.22051 3.43074 0)
(5.37597 2.81812 8.31267e-21)
(4.71198 2.09744 2.48163e-21)
(4.1921 1.24655 -6.19648e-21)
(3.79137 0.257467 -1.34988e-21)
(3.5138 -0.90294 3.32788e-21)
(3.38386 -2.12098 0)
(3.40005 -2.94751 0)
(3.46849 -2.90959 -2.60241e-20)
(3.45544 -2.04958 0)
(3.2827 -0.882018 0)
(2.86671 0.150451 6.53997e-20)
(1.93603 1.15026 7.2097e-20)
(0.276221 2.44052 0)
(-1.79366 3.84019 0)
(-3.75374 4.94892 0)
(-5.34721 5.59746 0)
(-6.52057 5.81608 1.26651e-20)
(-7.31014 5.68485 4.4893e-20)
(-7.80666 5.31133 2.53912e-20)
(-8.11618 4.79619 1.39984e-19)
(-8.3361 4.22461 0)
(-8.53566 3.65794 3.95599e-20)
(-8.74957 3.12939 0)
(-8.98381 2.64978 -1.55583e-19)
(-9.22753 2.21699 3.08999e-20)
(-9.46399 1.824 -2.04018e-19)
(-9.67727 1.46357 2.24718e-19)
(-9.85518 1.13008 2.35537e-20)
(-9.9896 0.819743 0)
(-10.0758 0.53015 2.88888e-19)
(-10.1113 0.259786 2.76982e-19)
(-10.0956 0.00744488 5.74037e-19)
(-10.0298 -0.228312 0)
(-9.91542 -0.448444 -2.7821e-19)
(-9.75427 -0.653565 0)
(-9.5486 -0.844385 4.88262e-19)
(-9.30073 -1.02197 -2.21146e-19)
(-9.01291 -1.18781 2.0225e-19)
(-8.68699 -1.34373 -1.8126e-19)
(-8.32419 -1.49177 -3.38958e-19)
(-7.92487 -1.6339 1.33471e-19)