/*--------------------------------*- C++ -*----------------------------------*\
| =========                 |                                                 |
| \\      /  F ield         | OpenFOAM: The Open Source CFD Toolbox           |
|  \\    /   O peration     | Version:  2112                                  |
|   \\  /    A nd           | Website:  www.openfoam.com                      |
|    \\/     M anipulation  |                                                 |
\*---------------------------------------------------------------------------*/
FoamFile
{
    version     2.0;
    format      ascii;
    arch        "LSB;label=32;scalar=64";
    class       volScalarField;
    location    "0.09";
    object      pMean;
}
// * * * * * * * * * * * * * * * * * * * * * * * * * * * * * * * * * * * * * //

dimensions      [0 2 -2 0 0 0 0];

internalField   nonuniform List<scalar> 
12225
(
8.0475
7.29722
6.88975
6.70344
6.58062
6.46563
6.35398
6.25313
6.16825
6.10081
6.04996
6.01465
5.99272
5.97997
5.96702
5.92078
5.79625
5.36466
7.8102
7.26843
6.889
6.69372
6.56909
6.45587
6.3451
6.24412
6.15828
6.08992
6.03684
5.99995
5.97223
5.95757
5.93028
5.89496
5.74854
5.49358
7.72828
7.26145
6.89785
6.69019
6.56017
6.44774
6.33789
6.2362
6.14904
6.07808
6.02237
5.97934
5.94667
5.91776
5.88298
5.81792
5.686
5.42897
7.57799
7.21224
6.88856
6.67853
6.54386
6.43266
6.3246
6.2231
6.13429
6.0611
6.00123
5.95338
5.91193
5.87341
5.82322
5.74655
5.61216
5.39575
7.49466
7.1785
6.88492
6.67512
6.53358
6.42038
6.3131
6.21122
6.12057
6.04396
5.98004
5.926
5.87713
5.8277
5.76695
5.68186
5.5551
5.38159
7.40007
7.12364
6.86373
6.66207
6.5168
6.40153
6.29497
6.19361
6.10158
6.02181
5.9533
5.89309
5.83657
5.77796
5.70899
5.62007
5.50348
5.35847
7.31635
7.07481
6.84328
6.65156
6.50349
6.38427
6.27675
6.17512
6.08153
5.99834
5.92489
5.85831
5.79424
5.72752
5.65203
5.56159
5.45239
5.32529
7.25987
7.02037
6.80833
6.63113
6.48493
6.36284
6.25379
6.15171
6.05661
5.97004
5.89158
5.81876
5.74784
5.67441
5.59379
5.5021
5.39747
5.28123
7.19434
6.96825
6.77573
6.61135
6.46749
6.34215
6.23027
6.1268
6.02985
5.93971
5.85617
5.77722
5.69956
5.61967
5.53423
5.4407
5.33802
5.22736
7.12608
6.90956
6.73365
6.58235
6.44282
6.31651
6.20256
6.09732
5.99831
5.90483
5.81634
5.7314
5.64762
5.56206
5.47213
5.37606
5.27319
5.16434
7.05491
6.85874
6.69673
6.55389
6.41765
6.29036
6.17375
6.06605
5.96443
5.86732
5.774
5.68328
5.59331
5.50191
5.40709
5.30751
5.20268
5.09286
6.97189
6.79641
6.65238
6.51958
6.38752
6.26057
6.14262
6.0329
5.92881
5.82846
5.73088
5.63521
5.54004
5.44367
5.34445
5.24127
5.13348
5.02113
6.92954
6.75635
6.61643
6.48887
6.35938
6.23232
6.11251
6.00003
5.89273
5.78872
5.68687
5.58636
5.48601
5.38451
5.28055
5.17318
5.06175
4.94602
6.84324
6.68787
6.56374
6.44504
6.31983
6.194
6.07304
5.95808
5.84757
5.73968
5.63318
5.52728
5.42121
5.31403
5.20473
5.0924
4.97633
4.85607
6.79644
6.6352
6.51045
6.39629
6.27506
6.14961
6.02628
5.9075
5.79256
5.67982
5.56803
5.45643
5.34432
5.23096
5.11555
4.99739
4.87583
4.75042
6.75353
6.57343
6.44331
6.33411
6.2191
6.09646
5.97187
5.84947
5.72984
5.61184
5.49426
5.37631
5.25748
5.13735
5.01536
4.89094
4.76352
4.63268
6.67183
6.50254
6.38015
6.27391
6.1586
6.03364
5.90558
5.77884
5.65423
5.53078
5.40727
5.28305
5.15776
5.03113
4.90277
4.77233
4.63937
4.50371
6.57158
6.42709
6.31588
6.21074
6.09356
5.96647
5.8359
5.70534
5.57542
5.44564
5.31533
5.1841
5.05181
4.91838
4.78367
4.64746
4.50957
4.3699
6.52138
6.36197
6.24612
6.14142
6.02426
5.89516
5.7601
5.62364
5.48759
5.35187
5.21585
5.07908
4.94144
4.80298
4.66378
4.52382
4.38303
4.24139
6.58909
6.40103
6.25743
6.13258
6.00163
5.86219
5.7193
5.57677
5.4354
5.29449
5.15335
5.01181
4.87
4.72811
4.58624
4.44448
4.30287
4.16163
6.49941
6.34588
6.22207
6.1016
5.96926
5.82766
5.68264
5.5379
5.39413
5.2506
5.10682
4.9629
4.81912
4.6757
4.53275
4.39031
4.24836
4.10687
6.57881
6.40565
6.26133
6.12435
5.97882
5.82757
5.67616
5.52691
5.3792
5.23197
5.08492
4.93831
4.79245
4.64754
4.50362
4.36074
4.21898
4.07861
6.61695
6.41638
6.25628
6.11251
5.96434
5.81157
5.65891
5.50812
5.35878
5.21008
5.06191
4.91454
4.76824
4.62314
4.47927
4.33664
4.1953
4.05527
6.69263
6.48471
6.30642
6.14207
5.97944
5.82048
5.66554
5.51257
5.36001
5.20793
5.05706
4.9078
4.76021
4.61421
4.46973
4.32679
4.18556
4.04626
6.69256
6.49958
6.31556
6.13743
5.96856
5.81049
5.65735
5.50393
5.3497
5.19633
5.04501
4.89587
4.74853
4.60272
4.45845
4.31588
4.17516
4.03637
6.80887
6.58228
6.35757
6.15704
5.98283
5.82446
5.66939
5.51241
5.35488
5.19934
5.04671
4.89662
4.7485
4.60205
4.45734
4.31453
4.17376
4.0352
6.87219
6.60177
6.34925
6.14381
5.97563
5.82175
5.66638
5.50744
5.34877
5.19313
5.04075
4.89085
4.74281
4.59651
4.45203
4.30955
4.16923
4.03123
7.0513
6.68506
6.37151
6.15426
5.99003
5.83604
5.67677
5.51443
5.3541
5.19774
5.04484
4.89441
4.74592
4.59931
4.45471
4.31225
4.17197
4.03379
7.10495
6.68392
6.35396
6.14759
5.99155
5.83758
5.67612
5.51275
5.35243
5.19626
5.04336
4.8928
4.74415
4.59749
4.45289
4.31071
4.17087
4.03365
7.35856
6.7273
6.35113
6.15355
6.00146
5.84514
5.68123
5.51681
5.35613
5.19974
5.04658
4.89578
4.74695
4.6002
4.45556
4.31351
4.17393
4.03772
2.51869
2.41115
2.27823
2.17744
2.13364
2.12606
2.10307
2.00506
1.79192
1.45809
1.03
0.545488
0.0468047
-0.429404
-0.849628
-1.20112
-1.45106
-1.60912
-1.67186
-1.63896
-1.56575
-1.48712
-1.42047
-1.38458
-1.3942
-1.46473
-1.60009
-1.81134
-2.07902
-2.37613
-2.69925
-3.09732
-3.61496
-4.23618
-4.90996
-5.58412
-6.22844
-6.80567
-7.36029
-7.96527
-8.55609
-9.06687
-9.49065
-9.81883
-10.1396
-10.4514
-10.7468
-10.9945
-11.1554
-11.2633
-11.3922
-11.5216
-11.6161
-11.6508
-11.5947
-11.4019
-11.092
-10.7654
-10.5445
-10.4636
-10.4355
-10.5067
-10.6862
-10.9164
-11.168
-11.474
-11.8762
-12.3625
-12.8658
-13.3135
-13.6398
-13.8076
-13.8013
-13.618
-13.2911
-12.8753
-12.3928
-11.8257
-11.2084
-10.6347
-10.0308
-9.39683
-8.7787
-8.15162
-7.55794
-7.09514
-6.76793
-6.55622
-6.37245
-6.22985
-6.05053
-5.98166
-6.16244
-6.47807
-6.78985
-7.01897
-7.10038
-6.98893
-6.64728
-6.04929
-5.1789
-4.03385
-2.62468
-0.976048
0.875311
2.8835
4.9975
7.16463
9.33396
11.4608
13.5096
15.4554
17.2842
18.9912
20.5776
22.0462
23.397
24.6258
25.7247
26.6835
27.4937
28.151
28.6564
29.0156
29.2384
29.3368
29.3235
29.212
29.0155
28.7469
28.4193
28.0441
27.6333
27.1973
26.7454
26.286
25.8264
25.3727
24.9299
24.5021
24.0924
23.7035
23.3371
22.9947
22.6769
22.3841
22.1162
21.8733
21.6552
21.4619
21.2931
21.1485
21.0275
20.9296
20.8535
20.7975
20.7594
20.7357
20.7215
20.7103
20.6935
20.66
20.6051
20.54
20.4811
20.4467
20.4111
20.3601
20.3085
20.2665
20.2395
20.2308
20.2357
20.2511
20.275
20.3158
20.372
20.461
20.5946
20.786
1.94011
1.8101
1.64286
1.49648
1.41954
1.36946
1.28303
1.1088
0.829749
0.452549
0.00974899
-0.452921
-0.908732
-1.32324
-1.67271
-1.92966
-2.11697
-2.28581
-2.37064
-2.34873
-2.28608
-2.21375
-2.14876
-2.11295
-2.13582
-2.21674
-2.34404
-2.53493
-2.85075
-3.24557
-3.69069
-4.2386
-4.89079
-5.62216
-6.36432
-7.08181
-7.76094
-8.35835
-8.89801
-9.4988
-10.0989
-10.635
-11.0845
-11.4299
-11.7219
-12.0479
-12.3694
-12.6666
-12.8961
-13.0657
-13.2148
-13.3369
-13.3998
-13.3488
-13.1228
-12.8045
-12.4376
-12.0306
-11.7025
-11.5291
-11.4365
-11.4468
-11.6582
-11.9662
-12.2804
-12.6003
-12.9831
-13.4233
-13.8668
-14.2522
-14.5147
-14.6225
-14.5602
-14.3228
-13.9421
-13.4736
-12.9456
-12.3328
-11.6623
-11.0424
-10.4232
-9.81237
-9.31258
-8.80216
-8.28118
-7.84915
-7.50882
-7.24707
-7.03463
-6.93974
-6.84813
-6.82524
-6.99215
-7.24354
-7.48847
-7.65352
-7.68193
-7.52728
-7.14986
-6.51994
-5.61928
-4.44271
-3.00085
-1.31754
0.570806
2.61719
4.768
6.96834
9.16655
11.3172
13.3841
15.342
17.1771
18.8854
20.4699
21.9359
23.2851
24.5141
25.6146
26.576
27.3893
28.0501
28.5592
28.9222
29.1493
29.2523
29.2438
29.1371
28.9452
28.681
28.3575
27.9863
27.5789
27.1459
26.6968
26.24
25.7827
25.331
24.8898
24.4633
24.0548
23.6667
23.3009
22.9587
22.6407
22.3474
22.0788
21.8349
21.6155
21.4205
21.2495
21.1022
20.9782
20.8763
20.7952
20.733
20.6875
20.6553
20.6317
20.6112
20.5868
20.5516
20.5054
20.4556
20.4178
20.4035
20.3699
20.3069
20.2466
20.2025
20.1775
20.1724
20.1821
20.2003
20.2257
20.2637
20.3203
20.3966
20.515
20.6157
1.91531
1.80845
1.56286
1.25905
0.932879
0.593605
0.226628
-0.180365
-0.629116
-1.10525
-1.58243
-2.03722
-2.44086
-2.76964
-3.0672
-3.29721
-3.44406
-3.54251
-3.59246
-3.59317
-3.55831
-3.50568
-3.45979
-3.4262
-3.43149
-3.49498
-3.62837
-3.83814
-4.14876
-4.56947
-5.09623
-5.72392
-6.45878
-7.29271
-8.15177
-8.97763
-9.75532
-10.4754
-11.1594
-11.8577
-12.4936
-13.0075
-13.383
-13.7307
-14.0387
-14.3111
-14.5778
-14.8215
-15.0259
-15.1756
-15.2689
-15.2933
-15.2346
-15.0872
-14.8143
-14.4727
-14.1052
-13.716
-13.3611
-13.1408
-13.1102
-13.1874
-13.3344
-13.5434
-13.7978
-14.103
-14.469
-14.8693
-15.2396
-15.5169
-15.6759
-15.6979
-15.5594
-15.2543
-14.7937
-14.2132
-13.5812
-12.912
-12.2275
-11.6109
-11.1061
-10.6408
-10.2168
-9.80155
-9.35856
-8.92907
-8.53194
-8.23141
-8.05951
-7.98028
-7.96871
-8.01965
-8.14827
-8.31097
-8.46614
-8.55838
-8.53658
-8.34806
-7.94654
-7.2949
-6.3692
-5.16115
-3.67867
-1.94608
-0.00188988
2.10438
4.31646
6.57625
8.82849
11.0248
13.1268
15.1087
16.9569
18.6688
20.2506
21.7119
23.0585
24.2882
25.3918
26.3577
27.1763
27.8428
28.3583
28.7286
28.9636
29.0752
29.076
28.9786
28.796
28.5407
28.2257
27.8625
27.4626
27.0366
26.5939
26.1428
25.6907
25.2436
24.8065
24.3837
23.9783
23.5928
23.229
22.8884
22.5715
22.2788
22.0105
21.7664
21.5463
21.3501
21.1775
21.028
20.9012
20.7962
20.7119
20.6467
20.5983
20.5636
20.5379
20.5152
20.4893
20.4546
20.4114
20.3652
20.3262
20.3014
20.2723
20.2299
20.1783
20.1281
20.0969
20.0917
20.1041
20.1233
20.1488
20.1825
20.2324
20.2903
20.3837
20.4339
1.63064
1.49573
1.16146
0.710371
0.18242
-0.38324
-0.957021
-1.52948
-2.09164
-2.62689
-3.1147
-3.53872
-3.92017
-4.23566
-4.48831
-4.68631
-4.8317
-4.93364
-4.99687
-5.03136
-5.04559
-5.04894
-5.05337
-5.0818
-5.14534
-5.24988
-5.40132
-5.60985
-5.88989
-6.25933
-6.74387
-7.36247
-8.11636
-8.97819
-9.89471
-10.8212
-11.7302
-12.6062
-13.4599
-14.2748
-14.9794
-15.569
-15.9949
-16.302
-16.5347
-16.709
-16.8418
-16.9301
-16.9756
-16.9876
-16.9618
-16.8875
-16.7575
-16.5811
-16.3589
-16.0827
-15.7617
-15.4185
-15.1195
-14.9418
-14.9141
-14.9776
-15.083
-15.2444
-15.4619
-15.7475
-16.0807
-16.403
-16.6633
-16.8148
-16.8409
-16.7472
-16.5188
-16.1421
-15.6157
-14.9682
-14.2863
-13.6267
-12.9987
-12.4406
-11.9806
-11.6164
-11.2546
-10.8618
-10.4479
-10.0494
-9.70049
-9.45844
-9.32701
-9.28132
-9.28987
-9.34607
-9.44292
-9.55751
-9.6638
-9.71766
-9.66997
-9.46499
-9.05075
-8.3818
-7.42852
-6.18024
-4.64456
-2.84637
-0.82656
1.36172
3.65832
6.00092
8.32928
10.5907
12.744
14.7617
16.6309
18.3509
19.9307
21.3858
22.728
23.9578
25.065
26.0364
26.8614
27.5352
28.0588
28.4385
28.6843
28.8079
28.8214
28.7375
28.5683
28.3265
28.0243
27.6733
27.2847
26.8692
26.4363
25.9944
25.5505
25.1108
24.6803
24.2628
23.862
23.4803
23.1198
22.7816
22.4666
22.1751
21.9074
21.6635
21.4431
21.2461
21.0722
20.9211
20.7923
20.6852
20.5989
20.5318
20.482
20.446
20.4193
20.3963
20.3714
20.3408
20.3059
20.2721
20.2428
20.2194
20.1916
20.1472
20.0916
20.0415
20.0076
19.9935
19.9982
20.0125
20.0336
20.0608
20.1016
20.1441
20.2116
20.2262
1.26721
1.03972
0.576382
-0.0283316
-0.702416
-1.39411
-2.06627
-2.7028
-3.29547
-3.8465
-4.36458
-4.8392
-5.26303
-5.6253
-5.91814
-6.14515
-6.31999
-6.45766
-6.56872
-6.66276
-6.74327
-6.82197
-6.91161
-7.02356
-7.16847
-7.34926
-7.56436
-7.81365
-8.1067
-8.46413
-8.91603
-9.48803
-10.1877
-11.0014
-11.9028
-12.8577
-13.8308
-14.7953
-15.7481
-16.6476
-17.4226
-18.0554
-18.5273
-18.8363
-18.9992
-19.0465
-19.0065
-18.8967
-18.7403
-18.5679
-18.4036
-18.2462
-18.09
-17.9347
-17.7652
-17.5332
-17.2361
-16.9402
-16.71
-16.5889
-16.567
-16.6225
-16.7208
-16.8751
-17.0887
-17.3466
-17.5914
-17.7659
-17.8557
-17.8537
-17.7589
-17.5661
-17.2605
-16.8312
-16.2773
-15.6334
-14.9777
-14.3679
-13.8069
-13.3437
-12.9586
-12.6149
-12.2768
-11.9096
-11.5392
-11.2043
-10.946
-10.7857
-10.7111
-10.6886
-10.7021
-10.7538
-10.838
-10.9397
-11.0353
-11.0855
-11.0408
-10.8424
-10.4312
-9.7541
-8.77561
-7.48298
-5.88529
-4.00897
-1.89784
0.390929
2.79215
5.23792
7.66251
10.0081
12.2295
14.2975
16.199
17.9349
19.5175
20.9674
22.3043
23.5329
24.6435
25.6204
26.4519
27.1333
27.666
28.0568
28.3155
28.4539
28.4836
28.4166
28.2649
28.0404
27.7547
27.4196
27.046
26.6444
26.2243
25.794
25.3605
24.93
24.5076
24.0974
23.7028
23.3265
22.9704
22.6359
22.3238
22.0346
21.7686
21.5256
21.3056
21.1083
20.9335
20.7809
20.6503
20.5414
20.4535
20.3854
20.3349
20.2987
20.2726
20.2515
20.2309
20.2076
20.1822
20.1584
20.137
20.1178
20.0962
20.0615
20.0158
19.9695
19.9306
19.9051
19.8945
19.8946
19.9041
19.9197
19.9454
19.9696
20.0099
19.9964
0.816371
0.475366
-0.116588
-0.810062
-1.54198
-2.27016
-2.97724
-3.65618
-4.31001
-4.9409
-5.54533
-6.11346
-6.6327
-7.08878
-7.47194
-7.78113
-8.03222
-8.24521
-8.4333
-8.60395
-8.76442
-8.92828
-9.10623
-9.30921
-9.54443
-9.81059
-10.1052
-10.4247
-10.7753
-11.1762
-11.6516
-12.2229
-12.9026
-13.6909
-14.5704
-15.5149
-16.4978
-17.4947
-18.4722
-19.4005
-20.219
-20.8704
-21.3216
-21.5681
-21.6265
-21.5272
-21.3052
-20.9951
-20.635
-20.266
-19.9322
-19.6523
-19.4212
-19.237
-19.0534
-18.8196
-18.549
-18.3152
-18.1641
-18.0996
-18.1073
-18.1608
-18.2507
-18.3723
-18.5222
-18.676
-18.7822
-18.8092
-18.7532
-18.6159
-18.4072
-18.1188
-17.7416
-17.2749
-16.7341
-16.1532
-15.5806
-15.0545
-14.595
-14.1943
-13.8506
-13.5285
-13.2034
-12.8812
-12.5823
-12.3414
-12.1808
-12.1036
-12.084
-12.0949
-12.1308
-12.1951
-12.2881
-12.4021
-12.516
-12.5918
-12.5776
-12.4094
-12.0198
-11.3476
-10.3523
-9.01923
-7.35655
-5.39422
-3.18128
-0.780339
1.73781
4.30032
6.83607
9.28124
11.5859
13.7183
15.6647
17.4275
19.0214
20.4716
21.8051
23.0327
24.1464
25.1272
25.9638
26.6522
27.1944
27.5972
27.8706
28.0259
28.0744
28.0274
27.8961
27.6919
27.4258
27.1093
26.7532
26.3678
25.9625
25.5458
25.1247
24.7053
24.2928
23.8914
23.5046
23.135
22.7846
22.4549
22.1468
21.8608
21.5971
21.3554
21.1355
20.9374
20.7609
20.6062
20.4737
20.3634
20.275
20.2073
20.1581
20.124
20.101
20.0846
20.0706
20.0561
20.0408
20.0272
20.016
20.0059
19.9944
19.9753
19.9473
19.914
19.8792
19.8471
19.8223
19.8048
19.7957
19.7932
19.7991
19.8017
19.8134
19.7768
0.102675
-0.262515
-0.83983
-1.48885
-2.18444
-2.9015
-3.62524
-4.35172
-5.08441
-5.81817
-6.53738
-7.22433
-7.8611
-8.43413
-8.93584
-9.36949
-9.7515
-10.0968
-10.415
-10.7099
-10.9878
-11.2625
-11.5515
-11.8691
-12.2212
-12.6013
-13.0031
-13.4252
-13.8724
-14.3554
-14.8916
-15.5015
-16.2004
-16.9927
-17.872
-18.8244
-19.8228
-20.8343
-21.8212
-22.7392
-23.5248
-24.1167
-24.4744
-24.5954
-24.5026
-24.2338
-23.8321
-23.3389
-22.7896
-22.2199
-21.6829
-21.2174
-20.8308
-20.5207
-20.2616
-20.014
-19.7934
-19.6493
-19.5858
-19.5782
-19.6085
-19.6551
-19.7027
-19.7521
-19.8013
-19.7935
-19.7189
-19.5861
-19.3986
-19.1547
-18.8535
-18.4904
-18.0669
-17.5905
-17.0762
-16.5559
-16.0635
-15.619
-15.2298
-14.8927
-14.5866
-14.2952
-14.0158
-13.7611
-13.5517
-13.4098
-13.3439
-13.3434
-13.382
-13.441
-13.5172
-13.6138
-13.737
-13.885
-14.0402
-14.1657
-14.205
-14.087
-13.7356
-13.0827
-12.0807
-10.7098
-8.98111
-6.9302
-4.61284
-2.0981
0.538985
3.22215
5.8754
8.42889
10.8269
13.034
15.0352
16.8344
18.4486
19.9067
21.242
22.4709
23.5857
24.569
25.4095
26.1044
26.6559
27.0712
27.3604
27.5342
27.6033
27.5782
27.4693
27.2872
27.0425
26.7462
26.4092
26.0415
25.6527
25.251
24.8438
24.4371
24.0362
23.6453
23.2678
22.9064
22.5631
22.2395
21.9364
21.6541
21.3926
21.1516
20.9311
20.7313
20.553
20.3969
20.264
20.1546
20.0682
20.0035
19.958
19.9284
19.9107
19.9007
19.8949
19.8903
19.8862
19.8841
19.8844
19.8855
19.8856
19.8817
19.8718
19.8565
19.8362
19.8111
19.7833
19.7532
19.7244
19.6994
19.6818
19.6611
19.6437
19.5828
-0.608893
-0.912592
-1.36897
-1.93464
-2.58394
-3.28668
-4.02727
-4.80228
-5.61157
-6.44251
-7.27274
-8.08042
-8.84893
-9.56602
-10.2246
-10.8264
-11.3833
-11.905
-12.3945
-12.8538
-13.2917
-13.7232
-14.1681
-14.6364
-15.1274
-15.6383
-16.1648
-16.7038
-17.2564
-17.8287
-18.4342
-19.0969
-19.8393
-20.6724
-21.59
-22.5766
-23.6067
-24.6385
-25.6243
-26.509
-27.224
-27.7142
-27.9454
-27.9171
-27.6571
-27.2106
-26.6312
-25.9651
-25.2432
-24.4893
-23.7495
-23.0772
-22.4976
-22.0251
-21.6563
-21.3776
-21.1808
-21.0747
-21.0416
-21.0523
-21.08
-21.1067
-21.1156
-21.0729
-20.9796
-20.8304
-20.6165
-20.3411
-20.0106
-19.6339
-19.2168
-18.7642
-18.2836
-17.7893
-17.3005
-16.8359
-16.4138
-16.0438
-15.724
-15.4446
-15.1904
-14.9563
-14.7472
-14.5758
-14.458
-14.4054
-14.4181
-14.4806
-14.5734
-14.6837
-14.8073
-14.9485
-15.1176
-15.3166
-15.5312
-15.7236
-15.8321
-15.7782
-15.4778
-14.8548
-13.852
-12.4479
-10.6572
-8.52206
-6.10581
-3.48421
-0.736022
2.06051
4.82635
7.48648
9.97924
12.2645
14.3252
16.1667
17.8076
19.2809
20.624
21.8561
22.9721
23.9571
24.8012
25.5015
26.0622
26.4908
26.7968
26.9904
27.0811
27.0786
26.9925
26.8329
26.6101
26.3348
26.0176
25.6686
25.2972
24.912
24.5202
24.1279
23.7402
23.3611
22.9942
22.6422
22.3072
21.9904
21.6925
21.4136
21.1534
20.9121
20.6904
20.4894
20.3108
20.156
20.026
19.9208
19.8396
19.7805
19.7407
19.7173
19.7063
19.7042
19.7076
19.7139
19.7219
19.7322
19.7448
19.7579
19.7701
19.7797
19.7856
19.7875
19.7847
19.7749
19.7569
19.7289
19.6922
19.6487
19.6053
19.5581
19.5113
19.4263
-1.04553
-1.27892
-1.65851
-2.16739
-2.78114
-3.47058
-4.22268
-5.03611
-5.90913
-6.82211
-7.75148
-8.67891
-9.58993
-10.4726
-11.3198
-12.1294
-12.9027
-13.6402
-14.3413
-15.0088
-15.6508
-16.2799
-16.9109
-17.5506
-18.196
-18.8424
-19.487
-20.1279
-20.7653
-21.4069
-22.0708
-22.7846
-23.5746
-24.4565
-25.4284
-26.4692
-27.5453
-28.6055
-29.593
-30.4438
-31.0908
-31.4812
-31.588
-31.4179
-31.0023
-30.3903
-29.6373
-28.7932
-27.889
-26.9466
-26.0119
-25.1473
-24.3934
-23.7719
-23.2943
-22.9532
-22.7318
-22.6081
-22.5521
-22.5407
-22.5454
-22.5206
-22.4482
-22.3241
-22.131
-21.8645
-21.5278
-21.1272
-20.6709
-20.1693
-19.6352
-19.084
-18.5332
-18.0024
-17.513
-17.082
-16.7169
-16.4152
-16.1661
-15.9552
-15.7715
-15.6137
-15.485
-15.395
-15.3535
-15.3652
-15.4251
-15.5231
-15.6511
-15.8009
-15.9659
-16.1528
-16.3741
-16.633
-16.9148
-17.1787
-17.3598
-17.375
-17.1327
-16.5464
-15.5509
-14.1209
-12.2746
-10.0622
-7.5571
-4.84311
-2.00179
0.889037
3.74983
6.50238
9.08011
11.4379
13.556
15.4402
17.1104
18.6037
19.9592
21.1973
22.3158
23.3019
24.1482
24.8539
25.424
25.8665
26.1901
26.4037
26.5158
26.5352
26.471
26.3329
26.1314
25.8768
25.5797
25.2501
24.8974
24.5299
24.1548
23.7779
23.4043
23.038
22.6825
22.3405
22.014
21.7038
21.4103
21.1335
20.8738
20.6322
20.4108
20.2117
20.0372
19.8884
19.7656
19.6681
19.5944
19.5426
19.5099
19.4936
19.4906
19.4973
19.5109
19.5289
19.5497
19.5731
19.5984
19.6239
19.6478
19.6692
19.6874
19.7025
19.714
19.7195
19.7161
19.6995
19.6676
19.6199
19.5623
19.4925
19.4189
19.3117
-1.25014
-1.44525
-1.7816
-2.25379
-2.84396
-3.5281
-4.29295
-5.13565
-6.05173
-7.02606
-8.03979
-9.08085
-10.1368
-11.1955
-12.2465
-13.2808
-14.2906
-15.2702
-16.2175
-17.1329
-18.0171
-18.875
-19.7122
-20.5288
-21.3211
-22.0859
-22.8224
-23.532
-24.2205
-24.9012
-25.601
-26.3543
-27.1918
-28.1277
-29.1577
-30.2576
-31.3863
-32.4814
-33.4757
-34.3013
-34.8907
-35.1919
-35.1864
-34.8896
-34.3362
-33.5752
-32.6606
-31.6397
-30.5449
-29.4046
-28.2722
-27.2206
-26.2973
-25.534
-24.9575
-24.5591
-24.3055
-24.1556
-24.0705
-24.0115
-23.9519
-23.8671
-23.7311
-23.5268
-23.2449
-22.8833
-22.447
-21.9435
-21.3823
-20.7769
-20.1453
-19.511
-18.8994
-18.3356
-17.8426
-17.4341
-17.111
-16.864
-16.6779
-16.5361
-16.4267
-16.3444
-16.2889
-16.2647
-16.2744
-16.3172
-16.3891
-16.4925
-16.6308
-16.7982
-16.9873
-17.2083
-17.4724
-17.7823
-18.1221
-18.449
-18.6985
-18.7806
-18.5955
-18.0458
-17.0594
-15.6079
-13.7128
-11.4347
-8.85846
-6.07533
-3.16798
-0.212382
2.71431
5.53289
8.17422
10.5895
12.755
14.6752
16.3731
17.8883
19.2596
20.5057
21.6261
22.6126
23.4609
24.1723
24.7525
25.2092
25.55
25.7824
25.9141
25.9533
25.9092
25.7913
25.6102
25.3761
25.0993
24.7896
24.4561
24.1066
23.7483
23.3867
23.0269
22.673
22.3287
21.9963
21.6774
21.3724
21.0818
20.8063
20.5479
20.309
20.093
19.9022
19.7379
19.6002
19.4884
19.401
19.3364
19.2928
19.268
19.2596
19.2651
19.2815
19.3061
19.3361
19.3697
19.4059
19.4436
19.4808
19.516
19.5479
19.5761
19.6008
19.6224
19.6392
19.6485
19.6457
19.6267
19.5873
19.5296
19.4504
19.3577
19.2315
-1.31039
-1.48213
-1.80153
-2.26167
-2.84876
-3.54086
-4.32692
-5.20204
-6.16157
-7.19528
-8.29066
-9.43851
-10.6295
-11.8528
-13.0961
-14.3451
-15.587
-16.8134
-18.0194
-19.1976
-20.3397
-21.437
-22.4811
-23.4651
-24.3864
-25.2451
-26.0448
-26.7939
-27.5071
-28.2086
-28.9324
-29.7154
-30.5881
-31.5601
-32.6253
-33.7562
-34.906
-36.0044
-36.9763
-37.7542
-38.2739
-38.4866
-38.381
-37.9788
-37.3156
-36.436
-35.3918
-34.2255
-32.97
-31.6623
-30.3636
-29.16
-28.1022
-27.231
-26.5785
-26.1294
-25.838
-25.6522
-25.5267
-25.4248
-25.3136
-25.1651
-24.9591
-24.6797
-24.3191
-23.8773
-23.3595
-22.7739
-22.1319
-21.4502
-20.752
-20.0645
-19.4162
-18.8344
-18.3408
-17.9478
-17.6559
-17.455
-17.3268
-17.2511
-17.2108
-17.1941
-17.196
-17.2142
-17.2446
-17.2835
-17.334
-17.4136
-17.5361
-17.6943
-17.8815
-18.1115
-18.3958
-18.7351
-19.1136
-19.4871
-19.7885
-19.9188
-19.7706
-19.242
-18.2576
-16.7882
-14.8583
-12.5367
-9.91821
-7.09885
-4.1606
-1.17664
1.77972
4.63104
7.30696
9.75544
11.9503
13.8953
15.616
17.1519
18.5382
19.7917
20.9135
21.9001
22.7505
23.4679
24.0581
24.528
24.884
25.1326
25.2812
25.3378
25.3118
25.2127
25.0509
24.8365
24.5793
24.2888
23.9734
23.641
23.2981
22.9506
22.6035
22.2609
21.9264
21.6019
21.2883
20.9865
20.6982
20.4258
20.1734
19.9445
19.7418
19.5663
19.4176
19.2947
19.1962
19.1203
19.0657
19.031
19.0149
19.0157
19.031
19.0582
19.094
19.136
19.1819
19.2302
19.2794
19.3276
19.3729
19.4141
19.4508
19.4833
19.5119
19.536
19.5539
19.5618
19.5559
19.5303
19.483
19.4076
19.3101
19.1745
-1.31054
-1.47621
-1.79622
-2.26462
-2.87148
-3.59933
-4.43521
-5.36798
-6.39046
-7.49446
-8.67203
-9.91754
-11.2247
-12.584
-13.9838
-15.4088
-16.8465
-18.2911
-19.7333
-21.1555
-22.5391
-23.8614
-25.0999
-26.2403
-27.2806
-28.2248
-29.0806
-29.8616
-30.5902
-31.2982
-32.0225
-32.7989
-33.6546
-34.5953
-35.6109
-36.6763
-37.7495
-38.7641
-39.6478
-40.3386
-40.7712
-40.9074
-40.7346
-40.2734
-39.5534
-38.6154
-37.5063
-36.2645
-34.9265
-33.5367
-32.1627
-30.8947
-29.7819
-28.8651
-28.1782
-27.6921
-27.3593
-27.1259
-26.9463
-26.7844
-26.606
-26.3854
-26.1033
-25.7468
-25.3115
-24.8004
-24.2197
-23.5756
-22.8801
-22.1527
-21.4192
-20.7084
-20.0482
-19.4655
-18.9838
-18.6175
-18.3658
-18.2156
-18.146
-18.1319
-18.1494
-18.1815
-18.2171
-18.2484
-18.2673
-18.2705
-18.2711
-18.3013
-18.3823
-18.5042
-18.6602
-18.8676
-19.1391
-19.4745
-19.8611
-20.2543
-20.5796
-20.728
-20.5842
-20.0505
-19.0549
-17.5697
-15.6239
-13.2917
-10.671
-7.85701
-4.92889
-1.95545
0.992223
3.83928
6.51599
8.96871
11.1705
13.1258
14.8608
16.4122
17.8097
19.0677
20.1897
21.176
22.0285
22.7513
23.35
23.8304
24.1983
24.4599
24.6223
24.694
24.684
24.6019
24.4577
24.261
24.0214
23.7479
23.4485
23.1307
22.8011
22.4654
22.1288
21.7954
21.468
21.1484
20.8381
20.5395
20.2565
19.9939
19.7562
19.546
19.3636
19.2081
19.0778
18.971
18.8863
18.8225
18.7788
18.7547
18.7494
18.7615
18.7888
18.8282
18.8767
18.9313
18.9895
19.0491
19.1085
19.166
19.2197
19.2683
19.3114
19.3493
19.3828
19.4114
19.4343
19.4488
19.4524
19.4391
19.4059
19.3431
19.2527
19.1197
-1.2954
-1.46698
-1.80901
-2.3169
-2.98097
-3.78146
-4.69823
-5.71257
-6.81258
-7.99108
-9.24362
-10.5675
-11.959
-13.4114
-14.9157
-16.4599
-18.0358
-19.6409
-21.2619
-22.873
-24.4483
-25.9554
-27.3612
-28.6413
-29.7856
-30.7987
-31.6963
-32.4976
-33.2301
-33.9233
-34.6081
-35.3155
-36.0731
-36.8891
-37.7551
-38.6533
-39.5529
-40.3999
-41.1328
-41.6924
-42.0299
-42.1074
-41.91
-41.4546
-40.7648
-39.869
-38.8006
-37.5935
-36.2875
-34.9315
-33.5996
-32.3727
-31.2926
-30.3987
-29.7196
-29.2156
-28.8463
-28.5582
-28.31
-28.0695
-27.8046
-27.4923
-27.1176
-26.6751
-26.1664
-25.5949
-24.965
-24.2844
-23.5646
-22.8229
-22.0859
-21.3822
-20.7371
-20.1767
-19.7257
-19.4013
-19.2029
-19.1138
-19.1078
-19.1549
-19.2253
-19.2937
-19.3422
-19.3586
-19.3355
-19.274
-19.1998
-19.1565
-19.1708
-19.2316
-19.3308
-19.483
-19.7057
-20.0004
-20.3567
-20.73
-21.0403
-21.1678
-20.9931
-20.424
-19.4008
-17.905
-15.9687
-13.6647
-11.0855
-8.31943
-5.44141
-2.51757
0.382968
3.18773
5.82924
8.25526
10.4403
12.3896
14.1279
15.6862
17.0885
18.347
19.4671
20.4521
21.3053
22.0313
22.6354
23.1226
23.4986
23.7697
23.943
24.0268
24.0301
23.9621
23.8324
23.6505
23.4253
23.1652
22.8783
22.5716
22.2516
21.9243
21.5947
21.267
20.9435
20.627
20.3209
20.0304
19.7614
19.5189
19.3051
19.1199
18.9614
18.8273
18.7156
18.6249
18.5543
18.5035
18.4725
18.4613
18.4695
18.4956
18.5375
18.5919
18.6552
18.7238
18.7948
18.8656
18.9342
18.9992
19.0589
19.1123
19.1591
19.2
19.2358
19.2666
19.2921
19.3101
19.3192
19.314
19.2923
19.2432
19.1654
19.0443
-1.27445
-1.47061
-1.86362
-2.44612
-3.20276
-4.10304
-5.11642
-6.21721
-7.38979
-8.62729
-9.9272
-11.2899
-12.716
-14.2048
-15.7529
-17.3527
-18.9973
-20.681
-22.3886
-24.092
-25.7626
-27.3681
-28.873
-30.2487
-31.4756
-32.5526
-33.4909
-34.3087
-35.0286
-35.6747
-36.2747
-36.8612
-37.4661
-38.1034
-38.7696
-39.4521
-40.1285
-40.7588
-41.2962
-41.6967
-41.9278
-41.9633
-41.7904
-41.4137
-40.8439
-40.0932
-39.1764
-38.116
-36.9543
-35.7446
-34.5646
-33.48
-32.5143
-31.7095
-31.0805
-30.5855
-30.1903
-29.8533
-29.5392
-29.2158
-28.856
-28.4418
-27.965
-27.4314
-26.8488
-26.2249
-25.5657
-24.8732
-24.1521
-23.4211
-22.7069
-22.034
-21.4252
-20.9076
-20.5076
-20.2453
-20.1181
-20.1034
-20.1693
-20.2791
-20.3959
-20.4855
-20.5235
-20.4959
-20.402
-20.2526
-20.0852
-19.9492
-19.8735
-19.8543
-19.8806
-19.9604
-20.1111
-20.3366
-20.624
-20.93
-21.1728
-21.2299
-20.9841
-20.3573
-19.3012
-17.8057
-15.9052
-13.6637
-11.163
-8.48172
-5.68996
-2.85208
-0.0353284
2.6911
5.26322
7.6331
9.77867
11.7056
13.4347
14.9899
16.3891
17.6433
18.7586
19.7394
20.5902
21.3155
21.9205
22.4104
22.7906
23.0674
23.2479
23.3399
23.3524
23.2945
23.1753
23.0036
22.7879
22.5365
22.2569
21.9562
21.641
21.3176
20.9912
20.6658
20.3453
20.0345
19.7395
19.4675
19.2236
19.0098
18.8253
18.6673
18.5328
18.4196
18.326
18.2515
18.1961
18.16
18.1438
18.1478
18.172
18.215
18.2745
18.3464
18.4267
18.5114
18.5965
18.679
18.7568
18.8282
18.8923
18.9483
18.9965
19.0379
19.0737
19.1045
19.1305
19.1497
19.1609
19.1595
19.144
19.1044
19.0379
18.9311
-1.18879
-1.42188
-1.88643
-2.56013
-3.41894
-4.41615
-5.51308
-6.67906
-7.89853
-9.16655
-10.4845
-11.8559
-13.2848
-14.7733
-16.3151
-17.9005
-19.5222
-21.175
-22.8476
-24.5213
-26.1732
-27.7758
-29.2979
-30.7089
-31.982
-33.0975
-34.0547
-34.8637
-35.5428
-36.1193
-36.6221
-37.0863
-37.5414
-38.0028
-38.4731
-38.9473
-39.4122
-39.8406
-40.2005
-40.4652
-40.6148
-40.6325
-40.5111
-40.2527
-39.8556
-39.3139
-38.6262
-37.8055
-36.8847
-35.9152
-34.972
-34.1056
-33.322
-32.6567
-32.1148
-31.6537
-31.2505
-30.8811
-30.5118
-30.1133
-29.6664
-29.1601
-28.5939
-27.9823
-27.3388
-26.6722
-25.9906
-25.2975
-24.5985
-23.9041
-23.2334
-22.6123
-22.065
-21.6142
-21.2843
-21.0947
-21.0424
-21.102
-21.2377
-21.4073
-21.5632
-21.6618
-21.6745
-21.5872
-21.4063
-21.1583
-20.8893
-20.6528
-20.481
-20.3749
-20.3228
-20.324
-20.3906
-20.5237
-20.7058
-20.8936
-21.01
-20.9443
-20.593
-19.8937
-18.8061
-17.3229
-15.4758
-13.3208
-10.9264
-8.36075
-5.68735
-2.96831
-0.26804
2.34828
4.82188
7.11119
9.19861
11.0887
12.7963
14.3377
15.7259
16.9699
18.0754
19.0474
19.8907
20.6103
21.2114
21.6993
22.0792
22.3569
22.5395
22.6347
22.6513
22.598
22.4833
22.3159
22.1037
21.8546
21.5762
21.2755
20.9599
20.6363
20.3105
19.9876
19.6738
19.3768
19.1043
18.862
18.6509
18.4694
18.3147
18.1833
18.0721
17.9794
17.9046
17.8477
17.809
17.7891
17.7892
17.8102
17.8526
17.9148
17.9941
18.0858
18.1854
18.2878
18.3883
18.4835
18.5711
18.6496
18.718
18.776
18.8242
18.8643
18.8982
18.9273
18.9519
18.9702
18.9807
18.9797
18.9654
18.9301
18.8702
18.7755
-0.876264
-1.15667
-1.69555
-2.45988
-3.41452
-4.49956
-5.67211
-6.89821
-8.16191
-9.4591
-10.7916
-12.1592
-13.56
-14.9938
-16.4541
-17.9312
-19.4225
-20.9313
-22.4557
-23.9873
-25.5093
-26.9968
-28.4215
-29.7586
-30.9823
-32.0681
-33.0079
-33.8026
-34.4628
-35.0043
-35.4535
-35.8385
-36.1864
-36.514
-36.8292
-37.1382
-37.4415
-37.726
-37.9665
-38.1497
-38.2703
-38.3214
-38.2986
-38.1967
-38.0027
-37.7015
-37.285
-36.7575
-36.1401
-35.4742
-34.8209
-34.2192
-33.6632
-33.1725
-32.7509
-32.3554
-31.9674
-31.5802
-31.1696
-30.71
-30.1916
-29.6122
-28.9779
-28.3107
-27.629
-26.9412
-26.2529
-25.569
-24.8986
-24.2531
-23.6485
-23.1043
-22.6367
-22.2623
-22.0061
-21.8894
-21.9068
-22.0297
-22.2211
-22.4347
-22.6191
-22.7213
-22.7039
-22.5555
-22.2896
-21.9451
-21.5787
-21.2485
-20.987
-20.7967
-20.6641
-20.5817
-20.5533
-20.5751
-20.6243
-20.656
-20.6035
-20.3795
-19.901
-19.1149
-17.9906
-16.5245
-14.743
-12.6913
-10.4243
-7.99852
-5.47006
-2.89699
-0.339976
2.14067
4.49342
6.6842
8.69932
10.5402
12.2147
13.7321
15.1006
16.3268
17.4155
18.3718
19.2013
19.9095
20.5015
20.982
21.3558
21.6284
21.8069
21.8992
21.9135
21.858
21.741
21.5707
21.355
21.1015
20.8177
20.5117
20.1922
19.867
19.5432
19.2281
18.9304
18.6587
18.4188
18.2122
18.0364
17.8874
17.7617
17.6564
17.5692
17.4987
17.4445
17.4067
17.3858
17.3833
17.401
17.4405
17.5027
17.5859
17.6869
17.8008
17.9219
18.0438
18.1614
18.2708
18.3694
18.4558
18.5293
18.5899
18.6387
18.6775
18.7092
18.7355
18.757
18.7722
18.7799
18.7763
18.7599
18.7252
18.6682
18.5818
-0.140952
-0.487787
-1.12575
-1.99792
-3.06562
-4.26539
-5.54389
-6.85626
-8.17427
-9.48528
-10.7888
-12.0802
-13.3531
-14.6151
-15.8786
-17.1444
-18.4144
-19.6912
-20.976
-22.2657
-23.5537
-24.826
-26.0675
-27.2613
-28.3886
-29.4237
-30.3476
-31.1516
-31.8334
-32.3988
-32.8611
-33.2406
-33.5611
-33.8408
-34.0915
-34.3254
-34.5559
-34.7824
-34.9858
-35.1611
-35.3153
-35.451
-35.5618