/*--------------------------------*- C++ -*----------------------------------*\
| =========                 |                                                 |
| \\      /  F ield         | OpenFOAM: The Open Source CFD Toolbox           |
|  \\    /   O peration     | Version:  2112                                  |
|   \\  /    A nd           | Website:  www.openfoam.com                      |
|    \\/     M anipulation  |                                                 |
\*---------------------------------------------------------------------------*/
FoamFile
{
    version     2.0;
    format      ascii;
    arch        "LSB;label=32;scalar=64";
    class       volScalarField;
    location    "0.1";
    object      epsilon;
}
// * * * * * * * * * * * * * * * * * * * * * * * * * * * * * * * * * * * * * //

dimensions      [0 2 -3 0 0 0 0];

internalField   nonuniform List<scalar> 
12225
(
1634.38
2808.4
3725.74
4325.96
4662.6
4814.59
4849.28
4815.31
4744.9
4658.13
4566.76
4477.33
4393.17
4315.8
4245.55
4182.53
4124.79
4081.78
150.114
312.76
450.581
561.921
647.901
709.499
752.154
781.912
803.564
820.421
834.627
847.508
859.837
872.046
884.375
897.106
911.387
928.895
35.5172
65.9902
94.1441
118.573
139.255
155.878
168.642
178.157
185.144
190.273
194.107
197.09
199.56
201.762
203.868
206.055
208.431
211.2
19.4609
26.9148
34.7603
42.1844
48.9164
54.8085
59.8093
63.9538
67.3262
70.0304
72.1741
73.8606
75.1828
76.2216
77.0447
77.7145
78.2751
78.7606
15.9685
18.185
20.8322
23.5625
26.202
28.6502
30.8559
32.8031
34.4966
35.9522
37.1909
38.2367
39.114
39.8461
40.4547
40.96
41.3783
41.718
15.0354
15.6556
16.5623
17.6122
18.7104
19.7942
20.8243
21.7792
22.6493
23.4321
24.1292
24.7453
25.2862
25.7587
26.1696
26.5256
26.8326
27.0916
14.7778
14.8602
15.0935
15.4368
15.8493
16.2967
16.7532
17.2011
17.6293
18.031
18.4028
18.7434
19.0527
19.332
19.5826
19.8065
20.0054
20.1779
14.7093
14.6159
14.5906
14.6286
14.7186
14.847
15.0005
15.1682
15.3419
15.5153
15.6842
15.8458
15.9982
16.1403
16.2718
16.3924
16.5023
16.5995
14.692
14.5459
14.4294
14.3447
14.2909
14.2644
14.2605
14.2742
14.301
14.337
14.379
14.4245
14.4714
14.5183
14.5641
14.608
14.6494
14.6867
14.6879
14.5273
14.382
14.2536
14.1424
14.0483
13.9699
13.9057
13.8538
13.8122
13.7792
13.7532
13.7329
13.7169
13.7044
13.6945
13.6864
13.6794
14.6869
14.5226
14.3692
14.2269
14.0958
13.9759
13.8667
13.7679
13.6786
13.598
13.5255
13.46
13.4009
13.3474
13.2988
13.2545
13.214
13.1769
14.6866
14.5215
14.3661
14.2201
14.0833
13.9554
13.836
13.7247
13.6213
13.5251
13.4359
13.353
13.2761
13.2045
13.138
13.0761
13.0184
12.9649
14.6865
14.521
14.3651
14.218
14.0793
13.9486
13.8255
13.7095
13.6004
13.4976
13.4009
13.31
13.2244
13.1439
13.0682
12.9968
12.9297
12.867
14.6864
14.5208
14.3646
14.2172
14.0779
13.9463
13.8219
13.7043
13.5931
13.4878
13.3882
13.2939
13.2047
13.1201
13.04
12.9642
12.8923
12.8249
14.6864
14.5207
14.3643
14.2167
14.0772
13.9453
13.8206
13.7025
13.5906
13.4846
13.3841
13.2887
13.1982
13.1123
13.0307
12.9531
12.8795
12.8103
14.6863
14.5206
14.3641
14.2164
14.0768
13.9448
13.8198
13.7015
13.5894
13.4832
13.3824
13.2867
13.1958
13.1095
13.0274
12.9494
12.8752
12.8054
14.6863
14.5205
14.364
14.2162
14.0765
13.9443
13.8193
13.7009
13.5887
13.4822
13.3813
13.2855
13.1944
13.1079
13.0257
12.9475
12.8731
12.8031
14.6863
14.5205
14.3639
14.216
14.0763
13.9441
13.8189
13.7004
13.5881
13.4816
13.3806
13.2846
13.1935
13.1069
13.0245
12.9462
12.8717
12.8016
14.6863
14.5204
14.3639
14.216
14.0762
13.944
13.8188
13.7002
13.5879
13.4813
13.3802
13.2842
13.1931
13.1064
13.024
12.9456
12.8711
12.8009
14.6863
14.5205
14.364
14.2161
14.0763
13.9441
13.819
13.7005
13.5881
13.4816
13.3805
13.2846
13.1935
13.1069
13.0245
12.9462
12.8718
12.8017
14.6863
14.5206
14.3641
14.2163
14.0766
13.9445
13.8196
13.7013
13.5892
13.4831
13.3824
13.2869
13.1963
13.1104
13.0287
12.9512
12.8776
12.8084
14.6864
14.5207
14.3645
14.2171
14.0781
13.9469
13.8233
13.7067
13.5968
13.4933
13.3956
13.3036
13.2168
13.135
13.0579
12.9851
12.9164
12.8523
14.6866
14.5217
14.3673
14.2232
14.0894
13.9655
13.8512
13.7462
13.6497
13.5612
13.4801
13.4058
13.3377
13.2751
13.2176
13.1646
13.1158
13.0714
14.6886
14.5309
14.3913
14.2711
14.1703
14.0882
14.023
13.9726
13.9349
13.9077
13.8892
13.8776
13.8715
13.8698
13.8712
13.8751
13.8808
13.8881
14.7065
14.6029
14.5574
14.5661
14.6207
14.711
14.8273
14.9609
15.105
15.2542
15.4044
15.5524
15.6962
15.8342
15.9654
16.0892
16.2055
16.3142
14.8434
15.0631
15.4704
16.0004
16.6007
17.2319
17.8669
18.4882
19.0849
19.6498
20.1787
20.6697
21.1222
21.537
21.9155
22.2597
22.5718
22.8542
15.7339
17.5599
19.7818
22.0856
24.3627
26.5513
28.6152
30.5323
32.2907
33.8858
35.319
36.5961
37.7264
38.7212
39.5932
40.355
41.0196
41.6002
21.36
31.1742
40.8528
49.851
58.374
66.2784
73.4634
79.8634
85.4683
90.302
94.415
97.8771
100.768
103.169
105.159
106.811
108.194
109.375
66.756
122.941
174.525
222.04
266.981
307.213
341.741
370.603
394.326
413.611
429.198
441.789
452.005
460.373
467.327
473.237
478.424
483.321
814.815
1236.79
1614.95
1923.67
2192.01
2412.92
2585.58
2713.39
2802.19
2858.7
2889.53
2900.58
2896.87
2882.44
2860.53
2833.61
2803.52
2771.72
3.47175
4.16918
7.65959
10.9348
13.6783
15.9081
17.6628
18.9848
19.9161
20.4949
20.754
20.7182
20.4057
19.8485
19.2476
18.6163
17.9092
17.1228
16.2968
15.525
14.9759
14.9086
15.6497
17.4943
20.5734
24.6163
29.4033
35.2835
41.742
49.1181
57.6786
67.5752
78.8153
91.2942
104.843
119.267
134.368
149.961
165.878
181.974
198.127
214.236
230.224
246.035
261.632
276.994
292.112
306.99
321.638
336.074
350.32
364.399
378.337
392.16
405.893
419.562
433.191
446.803
460.419
474.059
487.741
501.482
515.297
529.2
543.2
557.309
571.533
585.878
600.348
614.942
629.661
644.499
659.451
674.507
689.655
704.882
720.174
735.515
750.893
766.304
781.754
797.277
812.952
828.544
843.995
859.285
874.384
889.255
903.859
918.157
932.105
945.663
958.787
971.437
983.571
995.151
1006.14
1016.5
1026.21
1035.23
1043.55
1051.14
1057.99
1064.09
1069.44
1074.03
1077.89
1081.02
1083.45
1085.19
1086.29
1086.77
1086.67
1086.04
1084.93
1083.38
1081.45
1079.18
1076.62
1073.83
1070.84
1067.72
1064.49
1061.2
1057.88
1054.55
1051.24
1047.97
1044.75
1041.57
1038.44
1035.35
1032.28
1029.21
1026.11
1022.94
1019.66
1016.23
1012.59
1008.67
1004.43
999.794
994.682
989.023
982.741
975.745
967.968
959.313
949.702
939.077
927.38
915.149
907.248
909
911.632
913.742
915.069
915.457
914.776
912.91
909.75
905.201
899.18
891.617
882.457
871.662
859.21
845.092
829.314
811.89
792.843
772.194
749.955
726.119
700.617
673.275
643.663
610.141
573.858
532.276
7.82788
7.9235
8.87269
9.59247
10.1114
10.481
10.7373
10.9077
11.0134
11.0707
11.0918
11.0857
11.0611
11.0362
11.0709
11.1575
11.2726
11.4139
11.6132
11.958
12.6194
13.8634
16.0045
19.291
23.9509
29.2936
35.0721
41.1651
47.4564
53.9087
60.5016
67.2061
73.9795
80.7731
87.5432
94.2576
100.897
107.453
113.922
120.308
126.613
132.843
139
145.091
151.12
157.091
163.01
168.883
174.715
180.514
186.283
192.031
197.764
203.487
209.206
214.927
220.656
226.398
232.158
237.94
243.748
249.586
255.458
261.365
267.31
273.294
279.319
285.384
291.489
297.633
303.814
310.029
316.275
322.548
328.843
335.157
341.484
347.821
354.166
360.522
366.892
373.287
379.772
386.244
392.664
399.018
405.294
411.479
417.559
423.518
429.344
435.02
440.533
445.867
451.009
455.945
460.662
465.149
469.395
473.39
477.125
480.595
483.795
486.72
489.371
491.748
493.854
495.692
497.27
498.595
499.678
500.53
501.163
501.593
501.833
501.9
501.809
501.576
501.218
500.751
500.19
499.548
498.84
498.077
497.271
496.43
495.562
494.672
493.764
492.841
491.902
490.946
489.968
488.962
487.92
486.833
485.689
484.475
483.174
481.769
480.243
478.573
476.736
474.709
472.466
469.977
467.218
464.155
460.766
457.039
452.978
449.036
446.219
444.556
442.854
440.792
438.266
435.217
431.599
427.378
422.525
417.018
410.843
403.996
396.48
388.307
379.499
370.086
360.105
349.601
338.626
327.234
315.486
303.445
291.178
278.786
266.39
254.382
246.3
246.082
16.9558
13.1142
12.3278
11.9302
11.6544
11.4397
11.2608
11.1055
10.9689
10.8509
10.7553
10.6891
10.6641
10.7015
10.8157
11.0201
11.3386
11.8182
12.5472
13.6748
15.4159
18.0452
21.7973
26.4108
31.6749
37.2351
42.8295
48.322
53.6632
58.8613
63.9494
68.9631
73.9301
78.8672
83.7835
88.6835
93.5693
98.4409
103.297
108.136
112.954
117.749
122.518
127.26
131.972
136.657
141.314
145.946
150.556
155.145
159.717
164.277
168.827
173.371
177.913
182.457
187.006
191.563
196.132
200.715
205.317
209.938
214.581
219.249
223.942
228.663
233.412
238.189
242.996
247.83
252.693
257.583
262.498
267.438
272.401
277.385
282.389
287.413
292.457
297.521
302.607
307.721
312.85
317.964
323.048
328.092
333.086
338.02
342.885
347.669
352.363
356.954
361.433
365.787
370.007
374.082
378.001
381.756
385.336
388.735
391.944
394.959
397.773
400.383
402.787
404.983
406.972
408.755
410.336
411.719
412.91
413.916
414.744
415.403
415.904
416.255
416.469
416.555
416.525
416.389
416.159
415.845
415.455
415
414.487
413.924
413.316
412.67
411.99
411.278
410.537
409.767
408.969
408.139
407.275
406.374
405.43
404.436
403.384
402.263
401.064
399.774
398.378
396.861
395.206
393.389
391.399
389.206
386.788
384.182
381.404
378.618
376.093
373.745
371.232
368.393
365.151
361.461
357.289
352.611
347.408
341.667
335.385
328.564
321.213
313.353
305.008
296.213
287.01
277.445
267.574
257.453
247.148
236.727
226.27
215.886
205.707
196.112
187.952
183.263
28.8824
17.9862
15.2904
14.0982
13.3933
12.9053
12.5342
12.2364
11.9931
11.7984
11.655
11.5732
11.5725
11.6651
11.8691
12.2175
12.7631
13.5892
14.829
16.6891
19.3188
22.8092
27.1241
32.022
37.2007
42.3797
47.3797
52.1361
56.6672
61.0339
65.3064
69.5436
73.7851
78.0525
82.3539
86.6895
91.0549
95.4443
99.8509
104.268
108.689
113.109
117.524
121.928
126.321
130.7
135.063
139.412
143.747
148.068
152.377
156.676
160.968
165.255
169.539
173.824
178.111
182.405
186.707
191.021
195.35
199.694
204.058
208.443
212.851
217.283
221.742
226.228
230.742
235.285
239.857
244.459
249.09
253.75
258.439
263.156
267.901
272.673
277.473
282.298
287.148
292.016
296.89
301.756
306.604
311.425
316.212
320.955
325.645
330.272
334.827
339.299
343.677
347.951
352.111
356.145
360.045
363.799
367.398
370.834
374.099
377.185
380.086
382.798
385.316
387.638
389.761
391.687
393.417
394.952
396.297
397.457
398.436
399.244
399.886
400.373
400.712
400.913
400.987
400.942
400.789
400.537
400.195
399.772
399.277
398.716
398.096
397.424
396.705
395.944
395.143
394.306
393.433
392.526
391.582
390.602
389.583
388.519
387.405
386.234
385
383.691
382.293
380.797
379.188
377.439
375.546
373.494
371.263
368.857
366.291
363.626
360.932
358.148
355.13
351.783
348.05
343.891
339.279
334.193
328.62
322.552
315.987
308.934
301.405
293.423
285.017
276.225
267.089
257.66
247.991
238.143
228.179
218.172
208.201
198.37
188.808
179.784
171.669
165.392
41.8401
22.3721
17.9303
16.1263
15.1308
14.4773
14.0008
13.6322
13.3423
13.1223
12.9759
12.9179
12.971
13.1433
13.4695
14.0025
14.8246
16.0226
17.7209
20.0518
23.0994
26.8505
31.171
35.8269
40.567
45.1961
49.6131
53.8068
57.8254
61.7404
65.6202
69.5158
73.4579
77.4605
81.5262
85.6514
89.8298
94.054
98.3164
102.61
106.928
111.265
115.614
119.971
124.333
128.695
133.055
137.41
141.76
146.104
150.442
154.774
159.101
163.425
167.748
172.071
176.398
180.73
185.07
189.421
193.785
198.165
202.564
206.984
211.428
215.897
220.393
224.919
229.476
234.065
238.687
243.343
248.034
252.761
257.523
262.321
267.154
272.021
276.922
281.855
286.814
291.791
296.777
301.763
306.741
311.702
316.64
321.544
326.407
331.217
335.965
340.64
345.231
349.727
354.116
358.388
362.53
366.533
370.385
374.077
377.598
380.941
384.098
387.061
389.825
392.386
394.74
396.887
398.826
400.557
402.084
403.409
404.538
405.477
406.233
406.813
407.226
407.481
407.588
407.557
407.398
407.12
406.734
406.248
405.671
405.013
404.28
403.48
402.62
401.705
400.741
399.73
398.676
397.58
396.443
395.266
394.046
392.781
391.465
390.092
388.658
387.153
385.559
383.87
382.076
380.155
378.091
375.87
373.474
370.897
368.138
365.213
362.131
358.848
355.287
351.386
347.101
342.401
337.261
331.666
325.607
319.08
312.09
304.647
296.77
288.486
279.826
270.832
261.549
252.028
242.324
232.498
222.614
212.741
202.958
193.361
184.068
175.276
167.202
160.25
54.1831
26.2337
20.3855
18.1213
16.9183
16.1561
15.6191
15.2186
14.9177
14.7058
14.5893
14.5888
14.71
14.9827
15.4492
16.1672
17.2115
18.6681
20.6273
23.1599
26.2826
29.9313
33.9617
38.1849
42.4223
46.5504
50.5182
54.3368
58.0542
61.73
65.4165
69.1507
72.954
76.8352
80.7955
84.8315
88.9377
93.1082
97.3367
101.617
105.942
110.307
114.704
119.129
123.576
128.04
132.516
137.002
141.493
145.988
150.485
154.983
159.481
163.982
168.484
172.99
177.501
182.019
186.547
191.087
195.642
200.215
204.808
209.423
214.065
218.735
223.435
228.169
232.937
237.742
242.586
247.47
252.395
257.362
262.371
267.424
272.519
277.655
282.833
288.048
293.292
298.558
303.84
309.128
314.417
319.698
324.963
330.203
335.409
340.569
345.673
350.709
355.666
360.532
365.293
369.938
374.454
378.827
383.047
387.101
390.978
394.668
398.162
401.45
404.525
407.381
410.013
412.418
414.595
416.544
418.264
419.76
421.035
422.093
422.943
423.592
424.047
424.319
424.418
424.353
424.136
423.778
423.287
422.676
421.955
421.131
420.216
419.216
418.142
416.999
415.793
414.529
413.21
411.839
410.419
408.951
407.434
405.864
404.235
402.541
400.784
398.949
397.022
394.993
392.848
390.568
388.137
385.537
382.751
379.764
376.566
373.153
369.514
365.613
361.405
356.845
351.899
346.544
340.761
334.54
327.877
320.776
313.245
305.303
296.972
288.285
279.279
269.998
260.49
250.809
241.011
231.155
221.303
211.523
201.887
192.484
183.41
174.813
166.82
159.59
65.2402
29.721
22.7779
20.1608
18.8024
17.9652
17.396
16.989
16.701
16.5197
16.452
16.5096
16.7016
17.0632
17.6393
18.4852
19.6644
21.2426
23.276
25.7932
28.7754
32.1482
35.791
39.5668
43.3564
47.0839
50.7231
54.2879
57.8147
61.3457
64.9174
68.5556
72.2758
76.085
79.9851
83.9747
88.0509
92.2095
96.4461
100.755
105.132
109.57
114.063
118.604
123.188
127.807
132.457
137.132
141.828
146.54
151.266
156.003
160.75
165.506
170.271
175.045
179.829
184.625
189.435
194.261
199.105
203.97
208.86
213.775
218.721
223.698
228.711
233.761
238.851
243.984
249.161
254.385
259.656
264.976
270.346
275.766
281.236
286.755
292.323
297.931
303.573
309.243
314.933
320.638
326.349
332.06
337.76
343.44
349.09
354.699
360.255
365.746
371.159
376.479
381.694
386.789
391.749
396.562
401.212
405.686
409.972
414.057
417.929
421.579
424.996
428.172
431.102
433.781
436.205
438.373
440.286
441.944
443.351
444.513
445.435
446.125
446.592
446.845
446.896
446.755
446.434
445.944
445.298
444.507
443.582
442.533
441.371
440.108
438.751
437.309
435.789
434.197
432.535
430.806
429.018
427.171
425.263
423.291
421.249
419.132
416.935
414.646
412.254
409.743
407.1
404.307
401.345
398.195
394.838
391.257
387.436
383.36
379.012
374.367
369.39
364.051
358.327
352.199
345.657
338.697
331.323
323.545
315.379
306.851
297.991
288.837
279.433
269.827
260.073
250.223
240.337
230.472
220.687
211.044
201.609
192.456
183.662
175.332
167.526
160.283
74.9725
33.0356
25.1915
22.269
20.7801
19.8877
19.3017
18.9026
18.6402
18.4987
18.4823
18.5838
18.8288
19.251
19.8914
20.7971
22.0176
23.5985
25.5714
27.9425
30.6826
33.727
36.9857
40.364
43.7834
47.1952
50.5832
53.9565
57.3387
60.7571
64.2365
67.7952
71.4456
75.1946
79.0459
83.0004
87.0578
91.2163
95.4731
99.8247
104.266
108.792
113.397
118.074
122.815
127.614
132.465
137.36
142.294
147.261
152.258
157.279
162.324
167.388
172.472
177.574
182.695
187.836
192.997
198.18
203.388
208.623
213.887
219.183
224.514
229.882
235.292
240.744
246.243
251.79
257.388
263.038
268.744
274.504
280.322
286.197
292.129
298.118
304.161
310.246
316.37
322.525
328.707
334.908
341.12
347.335
353.543
359.733
365.896
372.018
378.087
384.089
390.01
395.836
401.55
407.138
412.582
417.867
422.978
427.899
432.616
437.114
441.38
445.402
449.167
452.667
455.892
458.838
461.499
463.874
465.961
467.762
469.278
470.514
471.476
472.173
472.614
472.808
472.767
472.503
472.029
471.358
470.502
469.474
468.287
466.952
465.48
463.886
462.179
460.368
458.461
456.464
454.382
452.218
449.977
447.66
445.266
442.792
440.233
437.581
434.831
431.97
428.987
425.865
422.589
419.141
415.502
411.652
407.57
403.238
398.637
393.749
388.557
383.039
377.174
370.94
364.321
357.308
349.899
342.097
333.914
325.37
316.489
307.305
297.858
288.193
278.362
268.417
258.417
248.417
238.477
228.652
218.999
209.572
200.427
191.622
183.214
175.268
167.793
160.761
83.3714
36.3469
27.5965
24.3716
22.7623
21.8264
21.2362
20.8557
20.6264
20.5279
20.5455
20.6833
20.9646
21.4193
22.0824
22.9916
24.1841
25.6908
27.5296
29.6981
32.1697
34.8951
37.8108
40.8523
43.9666
47.12
50.2991
53.5072
56.7578
60.0678
63.454
66.9302
70.5072
74.1928
77.9921
81.9089
85.9451
90.1011
94.3764
98.7687
103.275
107.89
112.608
117.424
122.329
127.317
132.381
137.511
142.703
147.949
153.244
158.582
163.96
169.373
174.82
180.299
185.808
191.348
196.919
202.522
208.158
213.829
219.537
225.285
231.074
236.909
242.79
248.722
254.706
260.745
266.842
272.998
279.215
285.495
291.838
298.244
304.715
311.248
317.837
324.47
331.144
337.854
344.592
351.351
358.122
364.897
371.664
378.413
385.132
391.807
398.425
404.971
411.429
417.784
424.019
430.115
436.055
441.822
447.397
452.765
457.909
462.813
467.463
471.843
475.94
479.741
483.239
486.425
489.295
491.845
494.073
495.979
497.565
498.834
499.794
500.452
500.819
500.904
500.721
500.281
499.599
498.689
497.565
496.24
494.729
493.045
491.2
489.207
487.079
484.825
482.454
479.973
477.387
474.701
471.918
469.04
466.065
462.99
459.81
456.517
453.103
449.557
445.863
442.008
437.974
433.742
429.294
424.608
419.665
414.444
408.926
403.095
396.935
390.429
383.563
376.325
368.706
360.707
352.333
343.598
334.523
325.137
315.475
305.581
295.504
285.298
275.022
264.737
254.504
244.383
234.433
224.709
215.261
206.137
197.382
189.036
181.134
173.705
166.719
160.102
90.0403
39.2317
29.7861
26.329
24.6324
23.672
23.0899
22.7358
22.5427
22.4813
22.5281
22.6947
22.9998
23.4679
24.1273
25.0074
26.1362
27.5356
29.2168
31.1765
33.3947
35.8367
38.4592
41.2178
44.0753
47.0064
49.9987
53.0512
56.1701
59.3661
62.6509
66.0357
69.5306
73.1443
76.8839
80.7551
84.7624
88.9085
93.1947
97.6207
102.185
106.883
111.712
116.664
121.734
126.914
132.195
137.572
143.035
148.577
154.192
159.873
165.614
171.412
177.262
183.162
189.108
195.1
201.137
207.219
213.346
219.519
225.739
232.008
238.329
244.702
251.131
257.618
264.164
270.773
277.445
284.184
290.99
297.864
304.808
311.821
318.903
326.052
333.251
340.496
347.782
355.103
362.451
369.818
377.194
384.57
391.932
399.271
406.571
413.821
421.003
428.103
435.105
441.99
448.741
455.338
461.761
467.99
474.008
479.796
485.337
490.613
495.609
500.31
504.697
508.756
512.479
515.857
518.883
521.556
523.872
525.83
527.429
528.674
529.573
530.134
530.368
530.285
529.898
529.221
528.268
527.056
525.598
523.91
522.007
519.903
517.613
515.15
512.526
509.752
506.838
503.791
500.618
497.324
493.911
490.38
486.73
482.957
479.056
475.019
470.835
466.494
461.98
457.278
452.369
447.236
441.859
436.217
430.291
424.06
417.509
410.621
403.383
395.785
387.82
379.481
370.772
361.701
352.282
342.54
332.505
322.219
311.727
301.083
290.348
279.585
268.861
258.243
247.799
237.59
227.678
218.113
208.943
200.206
191.935
184.154
176.873
170.093
163.75
157.736
95.1141
41.6326
31.6819
28.0581
26.304
25.3352
24.7704
24.4481
24.2944
24.2592
24.3362
24.531
24.8571
25.3335
25.982
26.8257
27.8858
29.1789
30.7136
32.4882
34.4894
36.6942
39.0729
41.595
44.2335
46.9686
49.7887
52.6905
55.6763
58.7528
61.9289
65.2147
68.6201
72.1548
75.8276
79.6464
83.6177
87.7467
92.0368
96.4897
101.106
105.882
110.817
115.904
121.139
126.513
132.02
137.652
143.4
149.257
155.214
161.265
167.403
173.623
179.918
186.284
192.719
199.218
205.781
212.405
219.089
225.834
232.639
239.505
246.434
253.425
260.482
267.604
274.794
282.054
289.384
296.786
304.262
311.811
319.434
327.131
334.9
342.727
350.6
358.517
366.47
374.452
382.456
390.472
398.487
406.49
414.469
422.411
430.301
438.125
445.867
453.509
461.034
468.424
475.661
482.725
489.59
496.236
502.644
508.796
514.674
520.259
525.535
530.49
535.098
539.342
543.216
546.71
549.818
552.536
554.861
556.791
558.327
559.475
560.24
560.631
560.658
560.334
559.671
558.685
557.39
555.803
553.939
551.815
549.447
546.85
544.04
541.03
537.833
534.461
530.924
527.231
523.388
519.4
515.269
510.996
506.58
502.016
497.299
492.42
487.368
482.131
476.694
471.04
465.153
459.013
452.601
445.897
438.882
431.54
423.854
415.812
407.405
398.629
389.481
379.966
370.095
359.884
349.361
338.558
327.519
316.295
304.945
293.533
282.13
270.81
259.647
248.717
238.09
227.833
218.005
208.656
199.829
191.552
183.845
176.718
170.16
164.144
158.579
153.334
98.6458
43.5212
33.2413
29.5091
27.7227
26.7572
26.2155
25.9279
25.8027
25.8031
25.918
26.1484
26.503
26.9958
27.6435
28.4638
29.4732
30.6848
32.1059
33.7365
35.5686
37.5871
39.772
42.1019
44.5571
47.122
49.7867
52.547
55.4039
58.3621
61.4294
64.6153
67.9302
71.385
74.99
78.7552
82.6894
86.7999
91.0927
95.5718
100.239
105.095
110.139
115.366
120.771
126.35
132.095
137.998
144.052
150.247
156.577
163.033
169.607
176.293
183.082
189.971
196.953
204.025
211.181
218.42
225.738
233.134
240.606
248.154
255.777
263.475
271.248
279.096
287.021
295.021
303.099
311.254
319.487
327.797
336.183
344.644
353.172
361.743
370.352
378.995
387.663
396.35
405.045
413.737
422.411
431.053
439.65
448.189
456.655
465.03
473.298
481.442
489.442
497.282
504.943
512.41
519.643
526.624
533.337
539.762
545.882
551.676
557.129
562.224
566.941
571.265
575.186
578.694
581.782
584.446
586.681
588.487
589.866
590.822
591.361
591.492
591.225
590.574
589.552
588.173
586.454
584.412
582.063
579.425
576.514
573.346
569.937
566.302
562.455
558.407
554.168
549.748
545.153
540.388
535.456
530.356
525.088
519.645
514.023
508.212
502.201
495.976
489.524
482.827
475.868
468.628
461.09
453.234
445.044
436.504
427.601
418.329
408.681
398.659
388.268
377.522
366.439
355.047
343.384
331.494
319.431
307.259
295.048
282.873
270.817
258.961
247.389
236.182
225.415
215.155
205.462
196.383
187.954
180.196
173.117
166.71
160.948
155.784
151.103
146.756
100.681
44.8849
34.4457
30.6621
28.8678
27.9175
27.4059
27.1482
27.0617
27.1089
27.2741
27.5542
27.9539
28.4825
29.1525
29.9774
30.9697
32.1399
33.494
35.0328
36.7516
38.6404
40.6856
42.872
45.1853
47.6136
50.1493
52.7889
55.5332
58.3869
61.3577
64.4553
67.6912
71.0773
74.6256
78.348
82.2556
86.3585
90.6651
95.1819
99.9137
104.863
110.031
115.415
121.013
126.819
132.828
139.033
145.426
152
158.746
165.656
172.72
179.931
187.28
194.761
202.365
210.087
217.921
225.862
233.906
242.047
250.283
258.611
267.029
275.535
284.126
292.803
301.563
310.406
319.331
328.337
337.422
346.586
355.825
365.136
374.483
383.86
393.259
402.673
412.093
421.51
430.912
440.293
449.625
458.893
468.085
477.186
486.18
495.051
503.78
512.349
520.74
528.932
536.908
544.646
552.121
559.312
566.2
572.767
578.993
584.861
590.352
595.451
600.141
604.407
608.239
611.627
614.563
617.043
619.063
620.624
621.727
622.376
622.578
622.341
621.678
620.599
619.12
617.256
615.023
612.438
609.519
606.282
602.746
598.927
594.842
590.504
585.928
581.126
576.108
570.884
565.46
559.84
554.028
548.022
541.821
535.42
528.812
521.988
514.937
507.644
500.095
492.275
484.165
475.749
467.008
457.927
448.491
438.688
428.508
417.948
407.009
395.698
384.028
372.02
359.704
347.118
334.31
321.335
308.261
295.162
282.119
269.219
256.554
244.213
232.287
220.861
210.012
199.809
190.309
181.554
173.573
166.379
159.97
154.326
149.403
145.139
141.407
138.042
101.287
45.7333
35.3036
31.5288
29.756
28.8367
28.3573
28.1439
28.1135
28.2253
28.4603
28.8122
29.2821
29.8759
30.6023
31.4712
32.4919
33.6721
35.0163
36.5252
38.1954
40.0199
41.9889
44.0916
46.3177
48.6586
51.1092
53.6675
56.3356
59.1188
62.0256
65.0668
68.2557
71.6057
75.129
78.8399
82.7523
86.8791
91.2316
95.8194
100.65
105.729
111.059
116.643
122.478
128.558
134.881
141.442
148.234
155.249
162.479
169.915
177.548
185.367
193.364
201.529
209.853
218.328
226.945
235.696
244.576
253.576
262.692
271.917
281.246
290.676
300.203
309.822
319.531
329.328
339.208
349.169
359.208
369.323
379.509
389.722
399.946
410.175
420.4
430.609
440.792
450.936
461.028
471.052
480.99
490.826
500.544
510.126
519.557
528.819
537.893
546.761
555.405
563.805
571.943
579.798
587.349
594.578
601.466
607.994
614.145
619.903
625.251
630.173
634.657
638.688
642.256
645.354
647.973
650.109
651.761
652.928
653.612
653.817
653.552
652.823
651.643
650.025
647.981
645.529
642.683
639.462
635.882
631.961
627.717
623.166
618.324
613.207
607.827
602.197
596.327
590.227
583.901
577.356
570.591
563.609
556.404
548.974
541.31
533.403
525.241
516.811
508.099
499.089
489.765
480.111
470.11
459.75
449.018
437.906
426.41
414.53
402.275
389.657
376.698
363.429
349.89
336.128
322.203
308.183
294.146
280.178
266.371
252.822
239.629
226.889
214.697
203.139
192.293
182.225
172.987
164.616
157.132
150.539
144.824
139.955
135.879
132.522
129.752
127.399
100.592
46.1125
35.8585
32.1554
30.4322
29.5611
29.1421
29.0014
29.0548
29.2597
29.595
30.0519
30.6289
31.3292
32.1585
33.1237
34.2312
35.486
36.8907
38.4451
40.1457
41.9869
43.961
46.0599
48.2763
50.6045
53.0416
55.588
58.2474
61.0269
63.9346
66.9835
70.1909
73.577
77.1414
80.9057
84.8881
89.1051
93.5712
98.299
103.299
108.58
114.147
120.005
126.153
132.592
139.318
146.328
153.616
161.174
168.994
177.066
185.38
193.926
202.691
211.665
220.837
230.194
239.726
249.421
259.271
269.264
279.391
289.645
300.016
310.497
321.082
331.765
342.539
353.399
364.34
375.356
386.442
397.595
408.756
419.903
431.027
442.116
453.159
464.141
475.048
485.866
496.577
507.166
517.615
527.905
538.02
547.943
557.655
567.14
576.38
585.357
594.054
602.453
610.537
618.288
625.689
632.723
639.374
645.627
651.467
656.879
661.849
666.366
670.418
673.994
677.085
679.684
681.786
683.388
684.487
685.086
685.185
684.79
683.909
682.549
680.721
678.438
675.714
672.564
669.003
665.048
660.717
656.025
650.991
645.63
639.957
633.987
627.734
621.209
614.421
607.379
600.089
592.554
584.777
576.755
568.488
559.968
551.189
542.141
532.813
523.192
513.265
503.015
492.43
481.495
470.195
458.522
446.466
434.024
421.196
407.99
394.42
380.507
366.282
351.786
337.066
322.185
307.211
292.226
277.318
262.583
248.123
234.042
220.446
207.434
195.102
183.535
172.808
162.979
154.094
146.18
139.245
133.283
128.27
124.165
120.908
118.421
116.573
115.197
99.7745
46.2698
36.2323
32.6336
30.9989
30.2229
29.9112
29.8913
30.0784
30.4284
30.9187
31.5386
32.285
33.1592
34.1646
35.3056
36.5863
38.0089
39.5741
41.2798
43.122
45.095
47.1922
49.4071
51.7345
54.171
56.7162
59.3729
62.1459
65.0512
68.0829
71.2558
74.5911
78.109
81.8264
85.7631
89.9392
94.3738
99.0845
104.087
109.396
115.021
120.973
127.257
133.877
140.835
148.129
155.757
163.714
171.992
180.583
189.476
198.659
208.12
217.845
227.82
238.03
248.46
259.096
269.922
280.925
292.089
303.403
314.853
326.428
338.116
349.906
361.79
373.758
385.802
397.914
410.086
422.303
434.485
446.614
458.678
470.662
482.553
494.334
505.989
517.501
528.853
540.028
551.007
561.773
572.308
582.594
592.615
602.353
611.793
620.918
629.713
638.164
646.255
653.973
661.304
668.234
674.752
680.845
686.502
691.713
696.467
700.754
704.566
707.895
710.733
713.075
714.915
716.251
717.08
717.402
717.218
716.531
715.347
713.671
711.513
708.882
705.789
702.249
698.273
693.878
689.079
683.891
678.33
672.412
666.151
659.564
652.661
645.457
637.961
630.182
622.128
613.803
605.212
596.355
587.23
577.835
568.164
558.21
547.964
537.414
526.549
515.357
503.824
491.937
479.685
467.058
454.05
440.656
426.879
412.725
398.208
383.351
368.183
352.745
337.088
321.271
305.367
289.457
273.633
257.993
242.644
227.695
213.255
199.432
186.326
174.03
162.623
152.171
142.723
134.311
126.947
120.627
115.331
111.022
107.652
105.157
103.461
102.443
101.951
103.245
46.9845
36.6715
33.1034
31.5824
30.96
30.8286
31.0096
31.4146
31.9971
32.733
33.6108
34.6267
35.7811
37.0767
38.5166
40.1029
41.8363
43.7151
45.7359
47.8934
50.1815
52.5937
55.1244
57.7698
60.5287
63.402
66.3984
69.4962
72.7153
76.0701
79.5784
83.261
87.14
91.2375
95.5762
100.179
105.067
110.262
115.781
121.643
127.86
134.444
141.405
148.747
156.474
164.586
173.08
181.951
191.191
200.79
210.735
221.013
231.607
242.502
253.678
265.117
276.8
288.708
300.82
313.119
325.585
338.201
350.949
363.814
376.78
389.834
402.962
416.153
429.39
442.677
455.938
469.102
482.157
495.089
507.88
520.514
532.974
545.241
557.297
569.124
580.704
592.019
603.051
613.784
624.199
634.282
644.017
653.389
662.385
670.993
679.199
686.995
694.369
701.312
707.817
713.876
719.481
724.627
729.308
733.518
737.254
740.51
743.283
745.569
747.365
748.668
749.476
749.788
749.605
748.925
747.753
746.09
743.941
741.312
738.211
734.645
730.625
726.162
721.267
715.954
710.235
704.124
697.634
690.78
683.575
676.03
668.158
659.968
651.471
642.673
633.58
624.198
614.527
604.569
594.321
583.78
572.941
561.796
550.338
538.555
526.437
513.974
501.154
487.969
474.408
460.468
446.146
431.443
416.368
400.936
385.167
369.094
352.756
336.205
319.5
302.716
285.935
269.249
252.763
236.583
220.824
205.6
191.023
177.198
164.222
152.18
141.141
131.157
122.26
114.464
107.763
102.135
97.5404
93.9305
91.2478
89.4272
88.399
88.0607
88.2898
105.891
47.4428
37.0044
33.5693
32.2628
31.9019
32.0661
32.57
33.3207
34.2697
35.392
36.6765
38.1202
39.7242
41.4913
43.4243
45.5242
47.7899
50.2184
52.8042
55.5409
58.4212
61.4386
64.5869
67.8631
71.2727
74.7806
78.3926
82.1174
85.9703
89.9688
94.133
98.4857
103.051
107.853
112.918
118.27
123.934
129.931
136.284
143.009
150.123
157.638
165.565
173.908
182.671
191.853
201.451
211.458
221.863
232.654
243.816
255.331
267.179
279.34
291.791
304.509
317.471
330.652
344.03
357.58
371.281
385.111
399.048
413.075
427.171
441.325
455.512
469.737
483.937
498.006
511.92
525.661
539.209
552.548
565.658
578.521
591.117
603.43
615.44
627.13
638.482
649.48
660.107
670.349
680.19
689.618
698.62
707.185