/*--------------------------------*- C++ -*----------------------------------*\
| =========                 |                                                 |
| \\      /  F ield         | OpenFOAM: The Open Source CFD Toolbox           |
|  \\    /   O peration     | Version:  2112                                  |
|   \\  /    A nd           | Website:  www.openfoam.com                      |
|    \\/     M anipulation  |                                                 |
\*---------------------------------------------------------------------------*/
FoamFile
{
    version     2.0;
    format      ascii;
    arch        "LSB;label=32;scalar=64";
    class       volScalarField;
    location    "0.19";
    object      kU;
}
// * * * * * * * * * * * * * * * * * * * * * * * * * * * * * * * * * * * * * //

dimensions      [0 2 -2 0 0 0 0];

internalField   nonuniform List<scalar> 
12225
(
0.465637
0.623822
0.672333
0.669275
0.643958
0.609253
0.570217
0.528502
0.484315
0.437271
0.386873
0.332923
0.275947
0.21752
0.160489
0.108961
0.0650925
0.0403562
0.153759
0.149144
0.139093
0.128562
0.119493
0.112379
0.107288
0.104141
0.102827
0.103259
0.105388
0.109245
0.115025
0.123159
0.134162
0.148035
0.163809
0.182783
0.146655
0.140239
0.131661
0.121996
0.11205
0.102339
0.0931795
0.0847734
0.0772786
0.0708573
0.065704
0.0620469
0.0601344
0.0602243
0.0625746
0.0674184
0.0749643
0.0854199
0.147127
0.143069
0.138195
0.132752
0.126978
0.121052
0.115076
0.109088
0.103079
0.0970125
0.0908647
0.0846674
0.0785594
0.0728078
0.0677758
0.0638414
0.0613129
0.0603346
0.147517
0.144514
0.141162
0.137537
0.133713
0.129759
0.125716
0.121601
0.117404
0.113099
0.108652
0.104035
0.0992497
0.0943326
0.0893524
0.0844023
0.0796156
0.0751659
0.147707
0.145186
0.142535
0.13977
0.136914
0.133992
0.131021
0.128007
0.124944
0.121815
0.118594
0.11525
0.111758
0.108114
0.104339
0.100484
0.0966162
0.0928356
0.147788
0.14549
0.143187
0.140868
0.138532
0.136182
0.133822
0.131454
0.129074
0.126673
0.124234
0.121737
0.11916
0.116487
0.113708
0.110831
0.10788
0.104924
0.147818
0.145617
0.143484
0.141399
0.13935
0.13733
0.135335
0.133362
0.131407
0.129461
0.127514
0.125553
0.123563
0.121528
0.119439
0.117292
0.115095
0.112898
0.147828
0.145666
0.143609
0.141639
0.139743
0.137909
0.136129
0.134397
0.132707
0.131051
0.129422
0.127808
0.126198
0.12458
0.122947
0.121293
0.119627
0.117991
0.147831
0.145683
0.143657
0.141738
0.139916
0.138179
0.136518
0.134925
0.133395
0.131919
0.130491
0.129101
0.127739
0.126398
0.12507
0.123752
0.122451
0.121204
0.147831
0.145688
0.143673
0.141776
0.139986
0.138294
0.136693
0.135174
0.133732
0.13236
0.131051
0.129798
0.128593
0.12743
0.126303
0.12521
0.124158
0.123177
0.147831
0.145689
0.143679
0.141789
0.140011
0.138337
0.13676
0.135274
0.133872
0.132549
0.1313
0.130117
0.128996
0.12793
0.126916
0.125954
0.125049
0.124222
0.147831
0.14569
0.143681
0.141794
0.140021
0.138356
0.13679
0.135319
0.133938
0.13264
0.131422
0.130279
0.129205
0.128198
0.127254
0.126374
0.125561
0.124833
0.147831
0.14569
0.143682
0.141796
0.140027
0.138365
0.136804
0.13534
0.133968
0.132682
0.131479
0.130355
0.129307
0.12833
0.127425
0.12659
0.125828
0.125152
0.14783
0.145689
0.143682
0.141798
0.140029
0.13837
0.136812
0.135351
0.133982
0.132701
0.131504
0.130387
0.129348
0.128383
0.127493
0.126675
0.125931
0.12527
0.14783
0.145689
0.143681
0.141798
0.140031
0.138373
0.136817
0.135358
0.133992
0.132712
0.131517
0.130402
0.129365
0.128402
0.127513
0.126696
0.12595
0.125282
0.147829
0.145688
0.14368
0.141798
0.140032
0.138375
0.136822
0.135365
0.134
0.132723
0.131529
0.130414
0.129377
0.128413
0.12752
0.126696
0.12594
0.125256
0.147828
0.145686
0.143678
0.141796
0.140032
0.138377
0.136826
0.135372
0.13401
0.132735
0.131543
0.130429
0.129391
0.128425
0.127528
0.126697
0.125929
0.12523
0.147827
0.145683
0.143675
0.141794
0.140031
0.138378
0.13683
0.135379
0.134021
0.132749
0.13156
0.130449
0.129411
0.128444
0.127543
0.126705
0.125928
0.125215
0.147825
0.145681
0.143673
0.141792
0.140031
0.138381
0.136835
0.135388
0.134033
0.132764
0.131578
0.130469
0.129433
0.128465
0.127563
0.126721
0.125938
0.125219
0.147824
0.14568
0.143672
0.141792
0.140033
0.138385
0.136842
0.135397
0.134045
0.132779
0.131594
0.130486
0.129449
0.12848
0.127575
0.126729
0.12594
0.125213
0.147824
0.145679
0.143672
0.141794
0.140035
0.138389
0.136847
0.135403
0.134051
0.132784
0.131598
0.130487
0.129446
0.128472
0.12756
0.126706
0.125908
0.125169
0.147824
0.145679
0.143671
0.141791
0.140029
0.138375
0.136822
0.135363
0.133992
0.132703
0.131491
0.130351
0.12928
0.128272
0.127325
0.126436
0.1256
0.124825
0.147823
0.145674
0.143655
0.141754
0.139961
0.138266
0.136661
0.135142
0.133702
0.132337
0.131044
0.129819
0.128659
0.127563
0.126526
0.125547
0.124624
0.123763
0.147816
0.145639
0.143561
0.141564
0.139638
0.13778
0.135989
0.134269
0.132618
0.131039
0.129531
0.128096
0.126731
0.125437
0.124212
0.123053
0.121959
0.120937
0.147781
0.145487
0.143203
0.140916
0.138629
0.136358
0.134125
0.131947
0.129843
0.127825
0.125902
0.124073
0.122339
0.120701
0.119156
0.117702
0.116335
0.115061
0.147673
0.145007
0.142094
0.138976
0.135733
0.13245
0.129196
0.126026
0.12298
0.120085
0.117355
0.114807
0.112443
0.110258
0.108232
0.10635
0.104603
0.10299
0.147606
0.144083
0.139498
0.134173
0.128459
0.122643
0.116934
0.111477
0.106361
0.101629
0.0972979
0.0933632
0.0898079
0.0866077
0.0837455
0.081199
0.0789358
0.0769267
0.151468
0.148991
0.142908
0.134911
0.126253
0.117673
0.109629
0.102349
0.0958904
0.0902192
0.0852601
0.0809259
0.0771375
0.0738249
0.0709317
0.0684055
0.066201
0.0643092
0.323257
0.454073
0.542662
0.592363
0.613639
0.616606
0.608818
0.595356
0.579445
0.563034
0.547238
0.532658
0.519581
0.508097
0.498177
0.489724
0.482594
0.476683
0.0475474
0.0631997
0.0737026
0.0808285
0.0863956
0.0903514
0.0927473
0.0951153
0.0977323
0.100915
0.104842
0.109696
0.11569
0.123071
0.132192
0.14246
0.152189
0.160651
0.166801
0.169088
0.165212
0.151756
0.124134
0.0809316
0.0409193
0.0397603
0.0472787
0.0543
0.0615825
0.0708873
0.084418
0.0946035
0.0919063
0.0838527
0.0751799
0.0686888
0.0649256
0.0643722
0.0654312
0.0677081
0.0815686
0.149711
0.243218
0.318975
0.38332
0.436058
0.477764
0.509433
0.532226
0.54733
0.555877
0.558916
0.55739
0.552137
0.54389
0.53328
0.520836
0.507003
0.492135
0.477254
0.462415
0.447643
0.432972
0.418431
0.404045
0.389834
0.375807
0.361968
0.348312
0.334821
0.321467
0.30821
0.294995
0.281759
0.268431
0.254944
0.241239
0.227282
0.21307
0.198642
0.18408
0.169504
0.15507
0.140949
0.127328
0.114438
0.102758
0.0950061
0.091984
0.0898522
0.0881321
0.0867562
0.0857051
0.0849647
0.0845181
0.0843449
0.0844211
0.084719
0.0852047
0.0858341
0.0865557
0.0873135
0.0880377
0.0885642
0.0884622
0.0871877
0.0844221
0.0802053
0.0750396
0.0698178
0.0655308
0.062579
0.0608565
0.0601472
0.0601717
0.0606753
0.0614285
0.0622732
0.0631384
0.064001
0.0648553
0.0656975
0.0665395
0.0674343
0.068346
0.06926
0.0701839
0.0711347
0.0721199
0.0731228
0.074099
0.0749823
0.0757369
0.0764687
0.0773116
0.0783136
0.0793793
0.0802855
0.0808175
0.0809156
0.0808311
0.0811574
0.0824807
0.0848505
0.0874066
0.0884416
0.086259
0.0815663
0.0784498
0.0890675
0.137903
0.19721
0.244199
0.276754
0.295336
0.302059
0.29966
0.290969
0.278491
0.263975
0.247628
0.229581
0.209968
0.18907
0.167391
0.145656
0.124704
0.105507
0.0907625
0.0899955
0.0932647
0.0982004
0.104716
0.112568
0.121001
0.128171
0.130983
0.127452
0.119537
0.106675
0.0676907
0.0448866
0.0506766
0.0867808
0.106154
0.109873
0.108347
0.105131
0.100976
0.0961686
0.0910916
0.0861193
0.0815164
0.0774317
0.0739776
0.0720473
0.0728409
0.0765183
0.0829274
0.0915978
0.101669
0.111733
0.119672
0.123583
0.118483
0.101476
0.0776519
0.0583705
0.0537053
0.0753718
0.109833
0.134485
0.135515
0.119565
0.103559
0.113028
0.158184
0.236629
0.284144
0.284764
0.2822
0.288628
0.296456
0.299663
0.299335
0.296464
0.292056
0.286965
0.281862
0.277235
0.27341
0.270588
0.268872
0.268305
0.268891
0.270619
0.27348
0.277443
0.282384
0.287468
0.292626
0.297858
0.303176
0.308594
0.314126
0.319782
0.325562
0.331446
0.337391
0.343321
0.349116
0.354608
0.359572
0.36373
0.366755
0.368292
0.367988
0.365525
0.36067
0.353303
0.343447
0.331267
0.317054
0.301191
0.284093
0.266136
0.247512
0.229311
0.213979
0.199896
0.186874
0.174873
0.163853
0.153761
0.144533
0.1361
0.128391
0.121335
0.114864
0.10892
0.103442
0.0983607
0.0936223
0.0891849
0.0848831
0.0805965
0.0764849
0.0729352
0.0701784
0.0684924
0.0680953
0.0690332
0.0711455
0.0740899
0.0774115
0.0806384
0.0834297
0.0855839
0.0869945
0.0876368
0.0875473
0.0867951
0.0854549
0.0836249
0.0813966
0.0788401
0.0760248
0.0730483
0.0700465
0.067166
0.0645256
0.0622326
0.0604216
0.0591876
0.0586574
0.0589392
0.0599442
0.0610887
0.0615807
0.0610502
0.059702
0.0579726
0.0560748
0.053954
0.0522182
0.0541667
0.0662231
0.0898413
0.115756
0.136647
0.154984
0.171326
0.185706
0.199769
0.214743
0.231275
0.249522
0.269254
0.289571
0.307623
0.321905
0.3309
0.333273
0.328266
0.316007
0.29761
0.274854
0.24965
0.224097
0.203933
0.187015
0.17258
0.160419
0.150319
0.142161
0.135859
0.130809
0.12803
0.129772
0.141767
0.0704091
0.047985
0.105657
0.134117
0.127994
0.114869
0.103542
0.0948532
0.0879559
0.082166
0.0771555
0.0727773
0.0689395
0.065562
0.0625757
0.0599884
0.0582317
0.0576692
0.0588183
0.0621304
0.0677569
0.0754254
0.0844761
0.0940201
0.101332
0.101705
0.0928918
0.0794516
0.072156
0.0916953
0.137885
0.182417
0.195044
0.205124
0.243667
0.28456
0.301781
0.297059
0.281482
0.265923
0.256268
0.251799
0.249436
0.24782
0.247057
0.247302
0.248599
0.25084
0.253814
0.257282
0.261058
0.265034
0.269171
0.273463
0.277904
0.282464
0.287089
0.291697
0.296226
0.300668
0.305039
0.309382
0.313764
0.318267
0.322983
0.328003
0.33341
0.339266
0.345603
0.352407
0.35961
0.367069
0.374559
0.381764
0.38828
0.393636
0.39732
0.398832
0.397741
0.39374
0.38669
0.376642
0.363828
0.348621
0.331481
0.312849
0.292892
0.273897
0.25682
0.240823
0.225855
0.211925
0.199023
0.187115
0.176153
0.166078
0.156824
0.148328
0.140523
0.133351
0.126752
0.120666
0.115043
0.109838
0.104972
0.100352
0.0958703
0.0914011
0.0871245
0.0832678
0.0799423
0.0772143
0.075113
0.0736342
0.0727448
0.0723822
0.0724628
0.0728879
0.0735482
0.0743307
0.0751251
0.0758311
0.0763713
0.0766701
0.0766751
0.0763673
0.0757381
0.0747948
0.073595
0.0722589
0.0709278
0.0696899
0.0686114
0.0678817
0.0677174
0.0682452
0.0693052
0.0702645
0.0702842
0.0689963
0.0668127
0.0644743
0.0624574
0.0614803
0.0646721
0.0782174
0.101095
0.121657
0.134212
0.146495
0.163931
0.185684
0.210451
0.23668
0.263395
0.290607
0.318652
0.347302
0.374676
0.398962
0.418272
0.430578
0.434025
0.42742
0.410738
0.38535
0.353658
0.318397
0.28405
0.255893
0.23147
0.210843
0.193877
0.1803
0.169797
0.161835
0.155358
0.150135
0.145862
0.144435
0.0640082
0.133581
0.158229
0.140819
0.120966
0.106618
0.0968037
0.0894813
0.0834229
0.0781403
0.0734739
0.0693515
0.0657191
0.0625377
0.0597778
0.0574007
0.0553148
0.0536121
0.0525882
0.0527311
0.0545751
0.058432
0.0642882
0.071978
0.0806367
0.0878135
0.0907534
0.091836
0.103208
0.145988
0.223945
0.305195
0.359236
0.326792
0.305858
0.291783
0.27419
0.25624
0.24229
0.234156
0.231387
0.232342
0.235453
0.239905
0.245243
0.251025
0.256815
0.262266
0.267208
0.271661
0.275766
0.279687
0.283527
0.287301
0.29095
0.294368
0.297436
0.299962
0.301902
0.303285
0.304185
0.304724
0.305061
0.305387
0.305912
0.306855
0.308427
0.310819
0.314188
0.318642
0.32422
0.330874
0.338454
0.346689
0.355181
0.363416
0.370783
0.376628
0.380313
0.381293
0.379187
0.373818
0.365237
0.353688
0.33956
0.32328
0.30526
0.288397
0.272308
0.256901
0.242274
0.228497
0.215598
0.203578
0.192412
0.182066
0.172496
0.163655
0.155495
0.147969
0.14103
0.134637
0.128753
0.12333
0.118313
0.113635
0.109214
0.104984
0.100921
0.0970068
0.0933201
0.0899243
0.0868532
0.0841178
0.0817248
0.079664
0.0779216
0.0764806
0.0753185
0.0744064
0.0737116
0.0731989
0.0728343
0.0725863
0.0724292
0.0723341
0.0722718
0.072224
0.0721967
0.072223
0.0723219
0.0724427
0.0725019
0.0725207
0.0727166
0.0733877
0.0745667
0.0757813
0.0762525
0.0755241
0.0739394
0.072427
0.0722692
0.0760649
0.0883838
0.106475
0.121104
0.129797
0.140715
0.159988
0.186777
0.217539
0.249131
0.280333
0.311779
0.344268
0.377542
0.410308
0.440304
0.466481
0.487166
0.500312
0.50378
0.495949
0.476379
0.446249
0.408015
0.365152
0.326148
0.290997
0.259953
0.23361
0.212101
0.195215
0.1825
0.173257
0.166516
0.161464
0.157441
0.154417
0.101583
0.183661
0.155232
0.12891
0.113128
0.10324
0.0956133
0.0887728
0.0823981
0.076523
0.0712075
0.0664796
0.0623642
0.0588948
0.0560922
0.0539172
0.0520933
0.050558
0.0493157
0.0485495
0.0487011
0.050331
0.0538464
0.0595594
0.0677639
0.0782441
0.090776
0.11206
0.165633
0.268569
0.42526
0.445458
0.356586
0.303798
0.272318
0.251375
0.236563
0.22764
0.224475
0.226138
0.231239
0.238417
0.246623
0.255124
0.263336
0.270829
0.277406
0.283116
0.288165
0.292782
0.297124
0.301244
0.305096
0.308573
0.311536
0.31384
0.315371
0.315651
0.314679
0.312499
0.309228
0.305057
0.300247
0.295112
0.290001
0.285279
0.281308
0.278425
0.276927
0.277055
0.278971
0.282746
0.288339
0.295573
0.304125
0.313519
0.323133
0.332234
0.340032
0.345764
0.348789
0.348652
0.345169
0.33837
0.3285
0.315808
0.301862
0.287933
0.273997
0.260298
0.247042
0.234365
0.222343
0.211008
0.200366
0.190403
0.1811
0.172429
0.164363
0.156872
0.149927
0.143499
0.137559
0.132072
0.127003
0.122307
0.117923
0.113786
0.109844
0.10607
0.102471
0.0990675
0.0958802
0.0929185
0.0901766
0.0876503
0.0853375
0.0832407
0.0813572
0.0796801
0.0782016
0.0769122
0.0758003
0.0748531
0.0740583
0.073402
0.0728743
0.0724844
0.0722625
0.0722603
0.0725128
0.0729673
0.0734621
0.0738694
0.0743013
0.0750685
0.0763237
0.077761
0.0787543
0.0789127
0.0786657
0.0794128
0.0836687
0.0950592
0.110614
0.120773
0.124482
0.132693
0.151265
0.179721
0.213654
0.248511
0.282531
0.316704
0.352076
0.388157
0.423432
0.456207
0.485089
0.509796
0.529146
0.541363
0.544239
0.535816
0.515152
0.482919
0.441288
0.398187
0.356577
0.317163
0.281309
0.250077
0.224058
0.203367
0.187683
0.176328
0.168356
0.162824
0.158946
0.156368
0.263054
0.201401
0.148242
0.125318
0.113891
0.105157
0.0966631
0.0882565
0.0803228
0.0731359
0.066769
0.061223
0.0565248
0.0527235
0.0498382
0.0477863
0.046531
0.045876
0.0455238
0.0452642
0.0451972
0.0458965
0.0481678
0.0528638
0.0613688
0.0757741
0.101778
0.161725
0.275151
0.449989
0.471204
0.375297
0.301389
0.259962
0.237231
0.225602
0.221448
0.223014
0.228904
0.237764
0.248363
0.259674
0.270894
0.281451
0.291036
0.299601
0.307289
0.314311
0.320847
0.326996
0.332767
0.338101
0.342886
0.346981
0.350217
0.35241
0.352963
0.351495
0.34797
0.342407
0.334939
0.325822
0.315421
0.304193
0.292652
0.281342
0.270802
0.261534
0.253978
0.248493
0.245344
0.244686
0.24656
0.250873
0.2574
0.265762
0.275421
0.285681
0.295712
0.304613
0.311536
0.31575
0.316812
0.314491
0.308871
0.300444
0.290697
0.27999
0.268711
0.257214
0.245779
0.234608
0.223833
0.21353
0.203737
0.194464
0.185708
0.177462
0.169712
0.162446
0.15565
0.149309
0.143407
0.137924
0.132835
0.128104
0.123688
0.119541
0.115624
0.11191
0.108386
0.10505
0.101906
0.0989524
0.0961849
0.0935965
0.0911784
0.0889191
0.086816
0.084871
0.0830857
0.0814593
0.0799897
0.0786745
0.0775083
0.0764848
0.0756001
0.0748598
0.074301
0.0739703
0.0738984
0.0740554
0.0743293
0.0746303
0.0750711
0.0759216
0.0772987
0.0789488
0.0804426
0.0816274
0.0832853
0.0876091
0.0980632
0.113686
0.123466
0.122485
0.124229
0.139029
0.166098
0.200884
0.237539
0.27311
0.308652
0.345706
0.383708
0.420739
0.454909
0.484782
0.509948
0.530668
0.546474
0.556135
0.557618
0.548733
0.528025
0.495436
0.456342
0.415294
0.373779
0.333465
0.295806
0.261948
0.232746
0.208709
0.189896
0.175904
0.165959
0.159174
0.154744
0.152184
0.400511
0.199872
0.143999
0.127832
0.117651
0.107077
0.0961777
0.0858589
0.0767366
0.068885
0.0620817
0.0561696
0.0511588
0.0471597
0.0442295
0.0423341
0.0417051
0.0418821
0.0423332
0.0426446
0.0427791
0.0433363
0.0453844
0.0503115
0.0609515
0.0844865
0.141633
0.247691
0.397367
0.455196
0.381843
0.302286
0.254354
0.230446
0.220973
0.22048
0.225931
0.235468
0.247707
0.261486
0.275819
0.289937
0.303358
0.315888
0.327549
0.338474
0.348815
0.358682
0.368129
0.377151
0.385687
0.393619
0.400774
0.40692
0.411793
0.415162
0.415686
0.413428
0.408212
0.399963
0.388766
0.374887
0.358757
0.34096
0.322193
0.303222
0.284835
0.267789
0.252754
0.24027
0.23072
0.224326
0.221147
0.22109
0.223952
0.22943
0.237102
0.246392
0.256549
0.266651
0.275732
0.282852
0.287291
0.288525
0.286565
0.282176
0.275977
0.268426
0.259929
0.250837
0.241438
0.23197
0.22261
0.213485
0.204672
0.196214
0.18813
0.180426
0.173102
0.166158
0.159592
0.1534
0.147578
0.142119
0.13701
0.132232
0.127761
0.123565
0.119616
0.115892
0.112377
0.109063
0.105945
0.103017
0.100269
0.0976916
0.0952719
0.092999
0.0908646
0.0888637
0.0869936
0.0852539
0.0836459
0.0821725
0.0808358
0.0796363
0.0785736
0.077658
0.0769202
0.0764001
0.0761022
0.0759899
0.0760093
0.0761788
0.0766798
0.0777095
0.0792279
0.0810125
0.0829283
0.0852297
0.0892915
0.0981396
0.113674
0.127041
0.126588
0.11969
0.12618
0.148781
0.182076
0.219252
0.255423
0.290973
0.328362
0.367652
0.406549
0.442563
0.473886
0.499199
0.51887
0.533684
0.544183
0.549958
0.549381
0.540065
0.520014
0.490544
0.455741
0.417492
0.377983
0.339052
0.30208
0.268078
0.237842
0.211998
0.190911
0.174559
0.162511
0.154097
0.148608
0.145534
0.46725
0.185673
0.144646
0.133126
0.120831
0.107561
0.0948739
0.08375
0.0745268
0.0667779
0.0599198
0.053707
0.0482439
0.0439117
0.0409557
0.0394385
0.039244
0.0397061
0.0404221
0.0411801
0.0420443
0.0437803
0.0478843
0.0570617
0.0785038
0.125632
0.211426
0.324634
0.400333
0.369518
0.301226
0.252216
0.227643
0.219615
0.221732
0.2302
0.242777
0.257985
0.274658
0.291828
0.308777
0.3251
0.34066
0.355487
0.369678
0.38334
0.396564
0.409424
0.421964
0.434189
0.446037
0.457358
0.467895
0.477279
0.485047
0.490166
0.492093
0.490611
0.485347
0.476065
0.462731
0.445534
0.424883
0.401392
0.375843
0.349151
0.322332
0.296452
0.272549
0.251532
0.234089
0.220634
0.211292
0.205877
0.204079
0.205556
0.209945
0.216778
0.22544
0.235077
0.24468
0.253249
0.259771
0.263518
0.264561
0.263309
0.260136
0.255429
0.249554
0.242827
0.235513
0.227837
0.219986
0.212115
0.204339
0.196741
0.18937
0.182253
0.175405
0.168834
0.162545
0.156546
0.150839
0.145429
0.140313
0.135488
0.130942
0.126661
0.12263
0.118835
0.115265
0.111912
0.108768
0.105822
0.103065
0.100483
0.0980625
0.0957918
0.0936597
0.0916584
0.0897819
0.0880265
0.0863906
0.084876
0.0834868
0.0822255
0.081095
0.0801089
0.0793026
0.0787136
0.0783423
0.078146
0.0781204
0.0783804
0.079148
0.0804906
0.0821591
0.0840379
0.0863794
0.0899732
0.096889
0.1103
0.127069
0.133501
0.124186
0.117356
0.130453
0.159881
0.196248
0.232593
0.267195
0.303157
0.342301
0.382749
0.421205
0.455076
0.482577
0.502272
0.515212
0.522867
0.526952
0.528116
0.525189
0.515765
0.498323
0.473895
0.443531
0.409047
0.372613
0.336151
0.301089
0.268402
0.238772
0.21274
0.190731
0.17296
0.159324
0.149442
0.142795
0.13894
0.475268
0.172142
0.150401
0.138736
0.123626
0.108585
0.0952434
0.0842156
0.0754037
0.0679265
0.060947
0.0542351
0.0480672
0.0430685
0.0399205
0.0394203
0.0397113
0.0405997
0.0420853
0.0442173
0.0472776
0.0522522
0.0617373
0.0811473
0.118898
0.181979
0.265517
0.333749
0.336655
0.293106
0.250318
0.226525
0.219387
0.223139
0.233666
0.248504
0.266064
0.285118
0.304661
0.323974
0.342659
0.360572
0.377716
0.394166
0.410029
0.425438
0.440548
0.455512
0.470446
0.485389
0.500258
0.514823
0.528701
0.541373
0.55222
0.559805
0.564147
0.564659
0.560777
0.552103
0.53847
0.519972
0.49696
0.470007
0.439856
0.407382
0.373589
0.339655
0.306925
0.276786
0.250474
0.228903
0.212576
0.201228
0.194344
0.19142
0.192062
0.195838
0.202206
0.210435
0.219392
0.228252
0.235419
0.240711
0.243928
0.245105
0.244433
0.242187
0.23866
0.234123
0.228807
0.222909
0.216599
0.210028
0.20333
0.196615
0.189967
0.183444
0.177081
0.170899
0.164914
0.159136
0.153577
0.148246
0.143151
0.138296
0.133684
0.129313
0.125181
0.121283
0.117615
0.114171
0.110944
0.107927
0.105109
0.102478
0.100021
0.0977249
0.0955779
0.0935699
0.0916928
0.0899396
0.088306
0.0867909
0.0853964
0.0841244
0.0829784
0.0819735
0.0811472
0.08054
0.0801639
0.0800131
0.0801202
0.0806624
0.0818461
0.0835457
0.0853562
0.0873599
0.0902642
0.0954617
0.105594
0.122063
0.136402
0.134301
0.120212
0.117083
0.136002
0.169719
0.206775
0.240641
0.27382
0.31046
0.350766
0.391352
0.428472
0.459472
0.482333
0.495703
0.501456
0.501666
0.499102
0.495632
0.490384
0.481883
0.468401
0.449155
0.424161
0.3945
0.361968
0.32851
0.29575
0.264819
0.236447
0.211123
0.189219
0.170996
0.15653
0.145676
0.138117
0.133531
0.445724
0.167716
0.15877
0.145027
0.127639
0.111607
0.098236
0.087617
0.0792685
0.0720747
0.0651345
0.0583546
0.052276
0.0476633
0.0451362
0.0446819
0.0453246
0.0469949
0.049723
0.0537651
0.0599442
0.0702439
0.08824
0.118657
0.165084
0.22444
0.277057
0.294481
0.2757
0.245999
0.225646
0.21929
0.223728
0.235236
0.251344
0.270415
0.291148
0.31245
0.333514
0.353864
0.373288
0.391743
0.409286
0.426052
0.442241
0.458106
0.473919
0.489923
0.506282
0.523032
0.540043
0.557002
0.573401
0.588535
0.601524
0.611562
0.618308
0.621006
0.618942
0.611572
0.598607
0.580077
0.556341
0.528032
0.495935
0.460833
0.423472
0.384693
0.345696
0.308065
0.273553
0.243808
0.220324
0.202941
0.19097
0.183702
0.180677
0.181469
0.185478
0.192139
0.199912
0.20791
0.21524
0.221302
0.225769
0.22855
0.229714
0.229424
0.227878
0.225275
0.221791
0.21758
0.212778
0.207517
0.201922
0.196114
0.1902
0.184267
0.17838
0.172581
0.1669
0.161355
0.155963
0.150738
0.145692
0.140838
0.136186
0.131743
0.127516
0.123509
0.119724
0.116161
0.112819
0.109691
0.10677
0.104047
0.10151
0.0991474
0.0969482
0.0949018
0.0929985
0.0912297
0.0895885
0.0880716
0.0866781
0.0854075
0.0842616
0.083255
0.0824247
0.0818139
0.0814556
0.0813914
0.0817053
0.0825953
0.0842099
0.0862104
0.0881491
0.0903799
0.0940944
0.101241
0.114461
0.131898
0.141168
0.1317
0.116766
0.118588
0.142001
0.177169
0.212409
0.244014
0.276134
0.313297
0.354006
0.393917
0.429062
0.45662
0.474202
0.481065
0.479897
0.473419
0.464953
0.457326
0.450575
0.443277
0.43351
0.419692
0.400885
0.37711
0.3494
0.319472
0.28916
0.259938
0.232791
0.208322
0.186904
0.168776
0.154058
0.142726
0.134614
0.129521
0.397171
0.173499
0.168443
0.152632
0.133636
0.116977
0.103695
0.0934622
0.085591
0.0790113
0.0728077
0.0667826
0.0614055
0.0574232
0.0555296
0.0549555
0.0560002
0.0586146
0.0630429
0.0699597
0.0806785
0.0972448
0.122078
0.156624
0.198107
0.235689
0.255195
0.252666
0.237689
0.223889
0.21902
0.223524
0.235003
0.251321
0.270944
0.292562
0.314986
0.337264
0.358767
0.379156
0.398305
0.416242
0.433122
0.449202
0.464819
0.480343
0.496125
0.512432
0.5294
0.546991
0.564987
0.582996
0.600452
0.616636
0.630447
0.641777
0.649956
0.65416
0.653562
0.647441
0.63531
0.61704
0.592956
0.563853
0.53087
0.495093
0.457256
0.417706
0.376928
0.335978
0.296431
0.260312
0.230779
0.207994
0.191367
0.180098
0.173709
0.171875
0.173792
0.178645
0.185356
0.192796
0.199987
0.206254
0.211239
0.214825
0.217054
0.218039
0.217919
0.216826
0.214871
0.212148
0.208741
0.204739
0.20024
0.195351
0.190187
0.184851
0.179434
0.174006
0.168615
0.163297
0.158074
0.152967
0.147992
0.143165
0.138501
0.134012
0.129712
0.125611
0.121716
0.118033
0.114564
0.111309
0.108262
0.105419
0.10277
0.100307
0.0980203
0.0959
0.0939366
0.092121
0.0904451
0.0889042
0.0874956
0.0862165
0.085066
0.0840567
0.0832235
0.0826111
0.0822744
0.0822977
0.0828086
0.0840137
0.0859697
0.0881831
0.0902538
0.0928647
0.0976682
0.106981
0.122521
0.138884
0.141996
0.127642
0.114484
0.121035
0.147323
0.182058
0.214382
0.24309
0.274359
0.311827
0.352291
0.390906
0.423627
0.447283
0.459265
0.459908
0.452678
0.441009
0.428478
0.417787
0.409728
0.40328
0.396686
0.38805
0.375684
0.358533
0.336584
0.310939
0.283404
0.255833
0.229656
0.205791
0.184752
0.166804
0.152063
0.140538
0.132146
0.126775
0.347542
0.182785
0.179566
0.162089
0.141607
0.124148
0.110656
0.100575
0.0931444
0.0874405
0.0825767
0.0781078
0.0741638
0.0712308
0.0698919
0.0697735
0.0716386
0.0757074
0.0824264
0.0925575
0.107139
0.127166
0.152682
0.181261
0.20729
0.224435
0.229961
0.226542
0.220614
0.218553
0.223155
0.233967
0.249629
0.268913
0.290632
0.313575
0.336652
0.359041
0.380224
0.399948
0.418176
0.435046
0.450846
0.465968
0.480859
0.495952
0.51159
0.527955
0.545029
0.562592
0.580272
0.597591
0.613991
0.628844
0.641632
0.652231
0.660097
0.664509
0.664618
0.65955
0.648544
0.631117
0.607233
0.577515
0.543445
0.506749
0.468874
0.430342
0.391106
0.351454
0.311702
0.273016
0.24029
0.21389
0.193685
0.179203
0.169961
0.165599
0.165636
0.16925
0.175273
0.182414
0.189542
0.195878
0.201027
0.204891
0.207542
0.209119
0.209762
0.209586
0.208669
0.207058
0.204783
0.201876
0.198387
0.194386
0.189968
0.185236
0.180293
0.17523
0.170119
0.165013
0.15995
0.154959
0.150061
0.145276
0.140621
0.136111
0.131763
0.127591
0.123606
0.119817
0.116231
0.11285
0.109675
0.106702
0.103928
0.101345
0.0989473
0.0967266
0.0946748
0.0927833
0.0910443
0.0894527
0.0880057
0.086699
0.0855303
0.0845097
0.0836692
0.0830542
0.082737
0.0828317
0.0834953
0.0849437
0.0871423
0.0894991
0.0917379
0.0948934
0.101005
0.11244
0.129184
0.142756
0.140003
0.123348
0.113253
0.123634
0.151267
0.184343
0.213532
0.239888
0.270152
0.306659
0.34578
0.382436
0.412193
0.431376
0.437637
0.43349
0.422329
0.407406
0.392215
0.379473
0.370361
0.36445
0.360344
0.356155
0.349789
0.339351
0.323771
0.303239
0.279134
0.25346
0.228141
0.204584
0.183624
0.165666
0.150853
0.139196
0.130647
0.125143
0.301933
0.191931
0.191457
0.173217
0.151644
0.133286
0.119178
0.108764
0.101312
0.0960712
0.0923077
0.0894847
0.0874433
0.0863806
0.0859778
0.0872193
0.0905642
0.0963792
0.105073
0.117041
0.132424
0.150687
0.170216
0.18845
0.202792
0.211729
0.215526
0.21644
0.218051
0.223364
0.233444
0.247999
0.266319
0.287498
0.310431
0.333967
0.357115
0.379152
0.399647
0.418438
0.435599
0.451397
0.466245
0.480641
0.495094
0.510028
0.525684
0.542042
0.558793
0.575416
0.591329
0.606032
0.619117
0.630249
0.639556
0.647033
0.652403
0.655192
0.654679
0.649947
0.640062
0.62423
0.601884
0.572908
0.53869
0.501128
0.462562
0.424404
0.386735
0.350331
0.313944
0.278471
0.246004
0.218197
0.195844
0.179005
0.167551
0.161357
0.160088
0.16295
0.168691
0.175865
0.183173
0.189706
0.195004
0.198964
0.201697
0.203395
0.204249
0.204406
0.203959
0.202951
0.201389
0.199261
0.196566
0.193324
0.189588
0.185435
0.18096
0.176261
0.171424
0.166522
0.161609
0.156725
0.151901
0.147161
0.142524
0.138009
0.133633
0.129412
0.125359
0.121486
0.117801
0.114311
0.111018
0.107923
0.105024
0.102318
0.0998013
0.0974675
0.095311
0.0933245
0.0915015
0.0898379
0.0883315
0.0869786
0.0857766
0.0847347
0.0838821
0.0832643
0.0829647
0.0831158
0.0838994
0.0855355
0.08791
0.0903791
0.0928442
0.0966794
0.104177
0.117348
0.134036
0.143763
0.136303
0.119406
0.112709
0.125827
0.153566
0.184354
0.210634
0.234994
0.263832
0.298552
0.335402
0.369219
0.3953
0.4099
0.411452
0.40398
0.390544
0.374003
0.357501
0.343678
0.333981
0.328494
0.326243
0.325541
0.324201
0.319857
0.310611
0.29571
0.275797
0.252624
0.228399
0.205069
0.18395
0.165732
0.150672
0.138806
0.130103
0.12453
0.261618
0.19969
0.203081
0.18557
0.163897
0.145033
0.130248
0.11917
0.111213
0.105811
0.102426
0.100584
0.0999753
0.100553
0.101912
0.104821
0.109608
0.116508
0.125621
0.13683
0.149698
0.163442
0.17703
0.189397
0.199662
0.207396
0.213031
0.218112
0.224738
0.234487
0.247955
0.26506
0.2853
0.307817
0.33153
0.355356
0.378381
0.399957
0.419731
0.437637
0.453859
0.468766
0.482859
0.496693
0.510785
0.525506
0.540958
0.556885
0.572678
0.587516
0.600615
0.611456
0.619764
0.62551
0.629434
0.631875
0.632908
0.632384
0.629803
0.624252
0.614702
0.600251
0.580075
0.553046
0.520506
0.483644
0.44505
0.407307
0.37171
0.33806
0.305461
0.273751
0.243905
0.217312
0.194989
0.177457
0.165047
0.157984
0.15613
0.158753
0.164569
0.172037
0.179741
0.18666
0.192253
0.196383
0.199163
0.200822
0.201601
0.201706
0.201278
0.200397
0.199085
0.197329
0.1951
0.192377
0.189165
0.1855
0.181448
0.177092
0.172522
0.167817
0.163045
0.158261
0.153504
0.148805
0.144189
0.139676
0.135284
0.13103
0.126928
0.122991
0.119229
0.11565
0.112258
0.109057
0.106047
0.103227
0.100595
0.0981492
0.0958844
0.0937961
0.0918795
0.0901323
0.0885537
0.087142
0.0858958
0.0848252
0.0839579
0.0833395
0.0830588
0.083261
0.0841513
0.0859509
0.088476
0.0910666
0.0938215
0.0984181
0.10724
0.121523
0.136972
0.142491
0.13179
0.116016
0.112488
0.127307
0.154275
0.182587
0.206335
0.228846
0.255791
0.287985
0.321774
0.352085
0.374168
0.384576
0.382676
0.373029
0.358522
0.341625
0.324999
0.31104
0.301338
0.296364
0.295515
0.297375
0.29988
0.30052
0.296914
0.287567
0.272327
0.252371
0.229807
0.206953
0.185661
0.167042
0.151578
0.139395
0.130496
0.124875
0.227675
0.204061
0.212617
0.197905
0.177803
0.159545
0.144717
0.133238
0.124748
0.118876
0.115282
0.113673
0.113805
0.114907
0.11725
0.120988
0.126223
0.132993
0.141237
0.150777
0.161312
0.172428
0.183607
0.194257
0.203835
0.212161
0.219747
0.22779
0.237666
0.250364
0.266318
0.285466
0.307294
0.330934
0.355336
0.379467
0.402459
0.423707
0.442919
0.460106
0.475535
0.489625
0.502905
0.515934
0.529204
0.543045
0.557495
0.572218
0.586508
0.599382
0.609676
0.616232
0.618596
0.617813
0.615322
0.611665
0.607362
0.602621
0.597075
0.589821
0.579741
0.565871
0.547462
0.523772
0.494394
0.459902
0.422489
0.385151
0.35014
0.318101
0.288471
0.260588
0.234468
0.210736
0.190166
0.173492
0.161438
0.154548
0.152863
0.155726
0.161872
0.169755
0.177932
0.18534
0.191378
0.195853
0.19884
0.200557
0.201267
0.201215
0.200598
0.199551
0.198147
0.196402
0.194297
0.191799
0.188881
0.185542
0.181809
0.17774
0.173405
0.168882
0.164243
0.159551
0.154855
0.150193
0.145595
0.141085
0.136683
0.132407
0.12827
0.124287
0.120467
0.116819
0.113349
0.110062
0.106959
0.104041
0.101309
0.0987603
0.0963945
0.0942083
0.0921994
0.0903672
0.0887134
0.0872386
0.0859444
0.0848429
0.0839623
0.083348
0.0830918
0.0833489