/*--------------------------------*- C++ -*----------------------------------*\
| =========                 |                                                 |
| \\      /  F ield         | OpenFOAM: The Open Source CFD Toolbox           |
|  \\    /   O peration     | Version:  2112                                  |
|   \\  /    A nd           | Website:  www.openfoam.com                      |
|    \\/     M anipulation  |                                                 |
\*---------------------------------------------------------------------------*/
FoamFile
{
    version     2.0;
    format      ascii;
    arch        "LSB;label=32;scalar=64";
    class       volScalarField;
    location    "0.004";
    object      k;
}
// * * * * * * * * * * * * * * * * * * * * * * * * * * * * * * * * * * * * * //

dimensions      [0 2 -2 0 0 0 0];

internalField   nonuniform List<scalar> 
12225
(
2.88225e-05
3.98564e-05
4.0943e-05
4.61247e-05
8.76815e-05
0.000228284
0.000318379
0.000338239
0.000328665
0.000256848
0.000145805
8.19515e-05
5.01271e-05
3.60192e-05
3.06862e-05
2.91925e-05
2.90699e-05
0.000233044
2.05108e-05
2.14556e-05
2.18756e-05
2.29567e-05
2.77121e-05
4.64976e-05
8.19227e-05
0.000102189
0.000107053
0.000104806
9.10117e-05
6.50798e-05
4.72655e-05
3.69982e-05
3.07655e-05
2.76811e-05
2.55558e-05
2.80201e-05
2.00211e-05
1.89719e-05
1.78665e-05
1.77792e-05
1.7883e-05
1.83773e-05
1.93829e-05
1.97696e-05
1.97079e-05
1.90499e-05
1.72798e-05
1.59262e-05
1.51962e-05
1.49956e-05
1.51322e-05
1.57135e-05
1.64286e-05
1.69663e-05
2.0204e-05
2.10079e-05
2.10986e-05
2.09254e-05
2.04734e-05
2.0178e-05
1.99392e-05
1.95376e-05
1.85428e-05
1.62422e-05
1.45548e-05
1.39798e-05
1.38716e-05
1.39843e-05
1.45687e-05
1.57083e-05
1.66861e-05
1.72131e-05
2.0431e-05
2.90283e-05
3.44267e-05
3.36407e-05
2.81036e-05
2.50266e-05
2.46293e-05
2.46402e-05
2.43555e-05
2.37234e-05
2.35292e-05
2.35486e-05
2.37363e-05
2.44578e-05
2.65182e-05
2.8358e-05
2.98415e-05
3.02644e-05
2.01806e-05
2.26692e-05
2.76038e-05
2.81979e-05
2.66792e-05
2.46065e-05
2.41916e-05
2.43568e-05
2.46805e-05
2.46934e-05
2.45021e-05
2.43918e-05
2.44762e-05
2.50192e-05
2.6982e-05
3.15923e-05
3.51156e-05
3.6802e-05
2.04892e-05
3.24722e-05
4.95025e-05
4.7765e-05
3.58799e-05
2.70854e-05
2.37942e-05
2.27787e-05
2.25489e-05
2.25442e-05
2.27008e-05
2.34166e-05
2.61003e-05
3.20723e-05
3.64806e-05
3.88615e-05
3.97138e-05
3.98419e-05
2.0683e-05
2.34095e-05
2.36961e-05
2.29418e-05
2.15075e-05
2.10165e-05
2.10255e-05
2.13818e-05
2.18049e-05
2.2232e-05
2.30242e-05
2.51573e-05
2.84245e-05
3.07863e-05
3.20257e-05
3.24114e-05
3.24044e-05
3.21789e-05
2.0716e-05
2.13787e-05
2.16972e-05
2.1223e-05
2.12005e-05
2.13814e-05
2.1484e-05
2.15431e-05
2.16362e-05
2.18512e-05
2.2497e-05
2.48135e-05
2.75884e-05
2.91044e-05
2.96173e-05
2.96508e-05
2.94353e-05
2.83441e-05
2.24093e-05
2.30041e-05
2.1773e-05
2.13933e-05
2.19866e-05
2.34626e-05
2.38619e-05
2.37503e-05
2.30842e-05
2.27573e-05
2.27824e-05
2.32547e-05
2.44486e-05
2.51368e-05
2.53698e-05
2.538e-05
2.5195e-05
2.46425e-05
2.24672e-05
2.25169e-05
2.26781e-05
2.28181e-05
2.29378e-05
2.29406e-05
2.27858e-05
2.23783e-05
2.22674e-05
2.23366e-05
2.2911e-05
2.4953e-05
2.66445e-05
2.74362e-05
2.76648e-05
2.76506e-05
2.72839e-05
2.63224e-05
2.0652e-05
2.08124e-05
2.19032e-05
2.2533e-05
2.26221e-05
2.2496e-05
2.20523e-05
2.18094e-05
2.17639e-05
2.17813e-05
2.18735e-05
2.20286e-05
2.22815e-05
2.28761e-05
2.41137e-05
2.5042e-05
2.53157e-05
2.52163e-05
2.06907e-05
2.04284e-05
2.06542e-05
2.07223e-05
2.07151e-05
2.07186e-05
2.08031e-05
2.11762e-05
2.15471e-05
2.17317e-05
2.18576e-05
2.20659e-05
2.25428e-05
2.42998e-05
2.6667e-05
2.76007e-05
2.7589e-05
2.6709e-05
2.12098e-05
2.14878e-05
2.08845e-05
2.0677e-05
2.11069e-05
2.12107e-05
2.10438e-05
2.09861e-05
2.09558e-05
2.08824e-05
2.08375e-05
2.08276e-05
2.08354e-05
2.09039e-05
2.09892e-05
2.09989e-05
2.09346e-05
2.0738e-05
2.47381e-05
2.49551e-05
2.22875e-05
2.11261e-05
2.1092e-05
2.15365e-05
2.20401e-05
2.22542e-05
2.23036e-05
2.21752e-05
2.17197e-05
2.13605e-05
2.11471e-05
2.1023e-05
2.09407e-05
2.09145e-05
2.09172e-05
2.09179e-05
2.274e-05
2.38697e-05
2.38622e-05
2.46963e-05
2.66473e-05
2.46938e-05
2.19966e-05
2.15075e-05
2.15767e-05
2.17794e-05
2.18827e-05
2.19048e-05
2.18969e-05
2.1897e-05
2.19012e-05
2.19425e-05
2.1971e-05
2.19698e-05
2.31904e-05
2.36831e-05
2.32752e-05
2.25934e-05
2.19222e-05
2.16071e-05
2.16912e-05
2.2205e-05
2.25633e-05
2.26735e-05
2.2661e-05
2.2459e-05
2.18995e-05
2.14516e-05
2.11954e-05
2.10868e-05
2.10102e-05
2.09756e-05
2.12234e-05
2.12638e-05
2.12626e-05
2.12284e-05
2.11639e-05
2.10661e-05
2.09978e-05
2.10991e-05
2.18615e-05
2.3804e-05
2.48102e-05
2.50451e-05
2.49861e-05
2.44115e-05
2.31048e-05
2.22185e-05
2.16803e-05
2.13559e-05
2.04734e-05
2.13114e-05
2.27695e-05
2.24043e-05
2.13165e-05
2.08046e-05
2.06527e-05
2.06376e-05
2.06653e-05
2.07365e-05
2.07537e-05
2.07431e-05
2.07451e-05
2.07786e-05
2.09345e-05
2.12586e-05
2.1587e-05
2.17826e-05
2.13507e-05
2.16516e-05
2.36494e-05
2.50188e-05
2.3764e-05
2.14419e-05
2.0949e-05
2.09435e-05
2.10695e-05
2.13529e-05
2.12875e-05
2.08766e-05
2.07445e-05
2.07532e-05
2.09311e-05
2.16511e-05
2.25917e-05
2.33093e-05
2.05796e-05
2.04934e-05
2.04599e-05
2.05091e-05
2.06835e-05
2.12296e-05
2.29241e-05
2.79426e-05
3.21603e-05
3.30634e-05
3.21607e-05
2.8056e-05
2.43347e-05
2.23719e-05
2.15556e-05
2.12939e-05
2.12649e-05
2.13558e-05
2.24711e-05
2.91272e-05
3.30291e-05
2.77949e-05
2.44738e-05
2.70817e-05
3.43732e-05
3.60157e-05
3.55061e-05
3.61589e-05
3.81752e-05
3.76553e-05
3.29634e-05
2.63239e-05
2.32248e-05
2.22095e-05
2.21151e-05
2.23274e-05
2.29441e-05
2.20267e-05
2.13442e-05
2.1447e-05
2.26011e-05
2.71163e-05
2.99212e-05
3.03316e-05
2.9951e-05
2.77281e-05
2.4145e-05
2.21382e-05
2.13673e-05
2.11953e-05
2.12557e-05
2.18257e-05
2.44713e-05
2.85975e-05
2.33187e-05
2.22973e-05
2.21292e-05
2.20434e-05
2.16839e-05
2.17577e-05
2.20849e-05
2.22924e-05
2.23347e-05
2.18814e-05
2.12287e-05
2.09637e-05
2.09155e-05
2.09483e-05
2.1208e-05
2.2402e-05
2.49207e-05
2.66683e-05
2.10925e-05
2.07448e-05
2.07447e-05
2.09318e-05
2.10531e-05
2.11213e-05
2.12045e-05
2.13764e-05
2.19643e-05
2.28392e-05
2.31415e-05
2.35748e-05
2.39667e-05
2.39309e-05
2.34199e-05
2.25847e-05
2.22997e-05
2.23539e-05
2.01145e-05
2.02901e-05
2.02789e-05
2.03066e-05
2.05321e-05
2.07675e-05
2.099e-05
2.14349e-05
2.27634e-05
2.86227e-05
3.48988e-05
3.60332e-05
3.499e-05
3.0139e-05
2.52038e-05
2.20655e-05
2.0306e-05
1.97207e-05
2.0115e-05
2.00526e-05
2.00451e-05
2.00225e-05
1.99557e-05
1.98357e-05
1.94838e-05
1.90797e-05
1.88974e-05
1.88553e-05
1.88781e-05
1.89047e-05
1.88739e-05
1.86532e-05
1.78472e-05
1.4477e-05
8.07313e-06
6.11837e-06
2.00239e-05
1.40432e-05
1.06415e-05
1.07698e-05
1.22936e-05
1.41073e-05
1.44853e-05
1.42001e-05
1.33546e-05
1.30731e-05
1.30856e-05
1.33989e-05
1.45083e-05
1.54037e-05
1.5837e-05
1.60875e-05
1.61756e-05
1.60178e-05
2.30528e-05
2.28993e-05
2.21506e-05
2.1486e-05
2.14852e-05
2.18673e-05
2.22593e-05
2.25554e-05
2.29882e-05
2.39654e-05
2.60277e-05
2.77389e-05
2.88281e-05
2.92902e-05
2.93212e-05
2.91167e-05
2.81997e-05
2.62996e-05
0.000264832
0.000141535
8.30881e-05
5.58064e-05
4.38214e-05
3.91085e-05
3.70922e-05
3.65682e-05
3.6722e-05
3.83527e-05
4.30747e-05
4.56756e-05
4.62001e-05
4.57974e-05
4.28278e-05
3.51859e-05
2.95255e-05
2.63655e-05
1.13084e-06
1.12243e-06
8.9665e-07
9.55291e-07
1.08619e-06
1.24351e-06
1.34804e-06
1.35432e-06
1.22456e-06
1.00667e-06
7.53977e-07
5.17856e-07
3.26925e-07
1.97778e-07
1.32515e-07
1.15253e-07
1.29108e-07
1.44259e-07
1.62462e-07
1.83113e-07
2.08763e-07
2.3311e-07
2.56116e-07
2.8203e-07
2.99843e-07
3.09849e-07
3.1574e-07
3.17648e-07
2.90165e-07
2.28413e-07
1.98688e-07
1.80873e-07
1.65034e-07
1.49247e-07
1.33588e-07
1.18518e-07
1.04447e-07
9.15316e-08
7.97843e-08
6.91013e-08
5.93701e-08
5.05322e-08
4.25956e-08
3.55654e-08
2.94208e-08
2.41178e-08
1.95958e-08
1.57839e-08
1.26065e-08
9.9864e-09
7.84772e-09
6.11803e-09
4.73127e-09
3.6292e-09
2.76138e-09
2.08438e-09
1.56111e-09
1.16025e-09
8.55785e-10
6.2646e-10
4.55138e-10
3.28177e-10
2.34841e-10
1.66767e-10
1.17511e-10
8.2154e-11
5.69762e-11
3.91913e-11
2.6732e-11
1.80752e-11
1.21132e-11
8.04222e-12
5.28813e-12
3.44304e-12
2.21835e-12
1.414e-12
8.91713e-13
5.56556e-13
3.43997e-13
2.10731e-13
1.28094e-13
7.73851e-14
4.6571e-14
2.80124e-14
1.69223e-14
1.03388e-14
6.45217e-15
4.16698e-15
2.82759e-15
2.04537e-15
1.5897e-15
1.32527e-15
1.17311e-15
1.08716e-15
1.04011e-15
1.01561e-15
1.00417e-15
1.0003e-15
1e-15
1e-15
1e-15
1e-15
1e-15
1e-15
1e-15
1e-15
1e-15
1e-15
1e-15
1e-15
1e-15
1e-15
1e-15
1e-15
1e-15
1e-15
1e-15
1e-15
1e-15
1e-15
1e-15
1e-15
1e-15
1e-15
1e-15
1e-15
1e-15
1e-15
1e-15
1e-15
1e-15
1e-15
1e-15
1e-15
1e-15
1e-15
1e-15
1e-15
1e-15
1e-15
1e-15
1e-15
1e-15
1e-15
1e-15
1e-15
1e-15
1e-15
1e-15
1e-15
1e-15
1e-15
1e-15
1e-15
1e-15
1e-15
1e-15
1e-15
1e-15
1e-15
1.0174e-15
1.29838e-15
3.92113e-15
2.30556e-14
1.39663e-13
7.53999e-13
3.63069e-12
1.59921e-11
6.65428e-11
2.71045e-10
1.08769e-09
5.25704e-09
1.32741e-08
5.93887e-08
8.5425e-08
4.48242e-07
4.71223e-07
5.05374e-07
6.02407e-07
1.03687e-06
4.66816e-06
4.27589e-06
4.90496e-06
4.03497e-06
2.64568e-06
2.32278e-06
2.30076e-06
2.21173e-06
2.04142e-06
1.84308e-06
1.69038e-06
1.64059e-06
1.64601e-06
1.73903e-06
1.86637e-06
2.04818e-06
2.28487e-06
2.55683e-06
2.87795e-06
3.24452e-06
3.65657e-06
4.10543e-06
4.57046e-06
5.03608e-06
5.51357e-06
5.98947e-06
6.28017e-06
6.16534e-06
5.67418e-06
4.92957e-06
4.10597e-06
3.41218e-06
2.98151e-06
2.67654e-06
2.37436e-06
2.08429e-06
1.81769e-06
1.58027e-06
1.37415e-06
1.19658e-06
1.042e-06
9.02628e-07
7.75607e-07
6.60947e-07
5.58667e-07
4.68468e-07
3.89776e-07
3.21823e-07
2.63731e-07
2.14566e-07
1.73359e-07
1.39107e-07
1.10839e-07
8.76701e-08
6.88266e-08
5.36322e-08
4.14885e-08
3.18649e-08
2.42997e-08
1.83985e-08
1.38304e-08
1.03207e-08
7.6447e-09
5.6197e-09
4.09908e-09
2.96609e-09
2.12858e-09
1.51452e-09
1.06808e-09
7.46252e-10
5.16438e-10
3.53788e-10
2.39848e-10
1.60903e-10
1.06678e-10
6.99517e-11
4.54097e-11
2.92071e-11
1.86277e-11
1.17892e-11
7.40917e-12
4.62731e-12
2.87393e-12
1.77637e-12
1.09349e-12
6.70772e-13
4.10327e-13
2.50416e-13
1.52511e-13
9.28459e-14
5.64861e-14
3.44172e-14
2.11109e-14
1.31474e-14
8.40731e-15
5.55946e-15
3.81909e-15
2.74314e-15
2.07437e-15
1.65863e-15
1.40133e-15
1.24328e-15
1.14669e-15
1.08784e-15
1.0527e-15
1.03225e-15
1.02026e-15
1.01309e-15
1.00867e-15
1.00587e-15
1.00404e-15
1.00282e-15
1.00199e-15
1.00142e-15
1.00103e-15
1.00075e-15
1.00055e-15
1.00041e-15
1.00031e-15
1.00023e-15
1.00017e-15
1.00013e-15
1.0001e-15
1.00007e-15
1.00005e-15
1.00004e-15
1.00003e-15
1.00002e-15
1.00001e-15
1.00001e-15
1.00001e-15
1e-15
1e-15
1e-15
1e-15
1e-15
1e-15
1e-15
1e-15
1e-15
1e-15
1e-15
1e-15
1e-15
1e-15
1e-15
1e-15
1e-15
1e-15
1e-15
1e-15
1e-15
1e-15
1e-15
1e-15
1e-15
1e-15
1e-15
1e-15
1.00003e-15
1.00066e-15
1.00875e-15
1.08384e-15
1.63899e-15
5.06244e-15
2.32309e-14
1.08268e-13
4.69051e-13
1.89732e-12
7.16936e-12
2.54647e-11
8.84366e-11
2.39703e-10
7.4913e-10
1.52876e-09
4.28171e-09
1.2462e-08
1.77019e-08
3.63674e-08
1.34786e-07
5.28458e-06
3.58765e-06
6.40669e-06
8.85574e-06
9.16576e-06
9.17455e-06
9.21626e-06
9.26615e-06
9.39587e-06
9.61699e-06
9.901e-06
1.02578e-05
1.07136e-05
1.13251e-05
1.21519e-05
1.32193e-05
1.45399e-05
1.61063e-05
1.791e-05
1.99444e-05
2.21143e-05
2.43433e-05
2.64755e-05
2.83956e-05
2.99926e-05
3.11398e-05
3.17794e-05
3.18841e-05
3.1414e-05
3.04119e-05
2.89215e-05
2.70258e-05
2.47801e-05
2.2295e-05
1.96967e-05
1.71022e-05
1.46415e-05
1.24115e-05
1.0491e-05
8.91764e-06
7.71889e-06
6.77863e-06
5.9235e-06
5.13987e-06
4.42874e-06
3.78995e-06
3.22164e-06
2.72052e-06
2.28242e-06
1.9028e-06
1.577e-06
1.29981e-06
1.06525e-06
8.67546e-07
7.01749e-07
5.63685e-07
4.49728e-07
3.56453e-07
2.80674e-07
2.19539e-07
1.70553e-07
1.31571e-07
1.00763e-07
7.65869e-08
5.77528e-08
4.31905e-08
3.20193e-08
2.35199e-08
1.71102e-08
1.232e-08
8.77755e-09
6.18344e-09
4.30642e-09
2.96628e-09
2.01424e-09
1.35917e-09
9.13701e-10
6.1181e-10
4.08077e-10
2.7117e-10
1.79546e-10
1.18466e-10
7.79006e-11
5.10561e-11
3.33525e-11
2.17139e-11
1.40901e-11
9.11064e-12
5.86669e-12
3.77019e-12
2.40589e-12
1.53478e-12
9.89236e-13
6.44646e-13
4.25754e-13
2.82e-13
1.84233e-13
1.18879e-13
7.59788e-14
4.8244e-14
3.05311e-14
1.93472e-14
1.23514e-14
7.99035e-15
5.30379e-15
3.70376e-15
2.74322e-15
2.14811e-15
1.76845e-15
1.52068e-15
1.35644e-15
1.24644e-15
1.17216e-15
1.1216e-15
1.08687e-15
1.06275e-15
1.04581e-15
1.03376e-15
1.02508e-15
1.01876e-15
1.01411e-15
1.01066e-15
1.00807e-15
1.00613e-15
1.00465e-15
1.00353e-15
1.00268e-15
1.00203e-15
1.00153e-15
1.00115e-15
1.00085e-15
1.00062e-15
1.00046e-15
1.00032e-15
1.00022e-15
1.00014e-15
1.00008e-15
1.00004e-15
1.00001e-15
1e-15
1e-15
1e-15
1e-15
1e-15
1e-15
1e-15
1e-15
1e-15
1e-15
1e-15
1e-15
1e-15
1e-15
1e-15
1e-15
1e-15
1e-15
1e-15
1e-15
1e-15
1.00001e-15
1.00016e-15
1.00156e-15
1.01193e-15
1.07583e-15
1.41363e-15
2.98188e-15
9.54702e-15
3.53104e-14
1.26423e-13
4.30924e-13
1.30872e-12
3.47645e-12
9.11309e-12
2.03852e-11
4.86185e-11
1.59577e-10
3.3826e-10
1.03749e-09
7.05721e-09
5.83009e-06
2.87324e-06
5.0142e-06
9.12528e-06
1.05678e-05
1.11129e-05
1.1436e-05
1.18422e-05
1.2377e-05
1.3097e-05
1.40172e-05
1.51799e-05
1.66459e-05
1.84771e-05
2.07073e-05
2.33747e-05
2.6566e-05
3.01055e-05
3.38277e-05
3.76707e-05
4.14905e-05
4.5163e-05
4.85251e-05
5.14044e-05
5.37236e-05
5.53425e-05
5.61899e-05
5.63324e-05
5.57164e-05
5.44186e-05
5.24849e-05
4.99967e-05
4.71237e-05
4.39901e-05
4.06979e-05
3.73375e-05
3.39863e-05
3.07083e-05
2.75543e-05
2.45624e-05
2.17592e-05
1.91617e-05
1.67787e-05
1.4612e-05
1.26583e-05
1.091e-05
9.35656e-06
7.98544e-06
6.78266e-06
5.7336e-06
4.82398e-06
4.04062e-06
3.37027e-06
2.79863e-06
2.31285e-06
1.90174e-06
1.55584e-06
1.26657e-06
1.02589e-06
8.26646e-07
6.62537e-07
5.28058e-07
4.18439e-07
3.29569e-07
2.57929e-07
2.00521e-07
1.54809e-07
1.18654e-07
9.02654e-08
6.81487e-08
5.10593e-08
3.7973e-08
2.8042e-08
2.05724e-08
1.50115e-08
1.08921e-08
7.86373e-09
5.65422e-09
4.05169e-09
2.89466e-09
2.06221e-09
1.46495e-09
1.03748e-09
7.32276e-10
5.14935e-10
3.60635e-10
2.51468e-10
1.74537e-10
1.20569e-10
8.28753e-11
5.66996e-11
3.86012e-11
2.61497e-11
1.76331e-11
1.18407e-11
7.92689e-12
5.29634e-12
3.53317e-12
2.3561e-12
1.57233e-12
1.0494e-12
7.00465e-13
4.69131e-13
3.163e-13
2.14588e-13
1.46031e-13
9.94378e-14
6.76745e-14
4.60669e-14
3.14478e-14
2.16153e-14
1.50299e-14
1.0624e-14
7.66889e-15
5.67469e-15
4.31674e-15
3.38162e-15
2.72956e-15
2.26892e-15
1.93929e-15
1.70049e-15
1.52561e-15
1.3962e-15
1.2997e-15
1.22715e-15
1.17229e-15
1.13063e-15
1.09876e-15
1.07429e-15
1.0555e-15
1.04087e-15
1.02908e-15
1.02067e-15
1.0123e-15
1.00778e-15
1.00032e-15
1e-15
1e-15
1e-15
1e-15
1e-15
1e-15
1e-15
1e-15
1e-15
1e-15
1e-15
1e-15
1e-15
1e-15
1e-15
1e-15
1e-15
1e-15
1e-15
1e-15
1e-15
1e-15
1e-15
1e-15
1e-15
1e-15
1e-15
1e-15
1e-15
1.00422e-15
1.03017e-15
1.14028e-15
1.57242e-15
3.07735e-15
8.11311e-15
2.16472e-14
5.72357e-14
1.35674e-13
3.20157e-13
7.70717e-13
2.452e-12
6.90767e-12
2.75291e-11
3.43325e-10
6.8797e-06
2.7986e-06
3.89701e-06
9.04933e-06
1.07419e-05
1.13934e-05
1.18241e-05
1.24096e-05
1.31815e-05
1.42233e-05
1.55749e-05
1.73071e-05
1.95234e-05
2.23102e-05
2.57259e-05
2.98767e-05
3.49216e-05
4.05922e-05
4.64483e-05
5.22895e-05
5.79455e-05
6.31201e-05
6.75582e-05
7.10126e-05
7.33096e-05
7.44077e-05
7.44683e-05
7.33743e-05
7.13521e-05
6.85204e-05
6.50352e-05
6.10509e-05
5.67373e-05
5.22452e-05
4.77032e-05
4.32168e-05
3.88697e-05
3.47251e-05
3.08279e-05
2.72074e-05
2.38792e-05
2.08483e-05
1.81113e-05
1.56586e-05
1.34758e-05
1.15458e-05
9.84964e-06
8.36734e-06
7.07902e-06
5.96473e-06
5.0047e-06
4.18023e-06
3.47559e-06
2.87806e-06
2.37428e-06
1.95197e-06
1.59927e-06
1.30526e-06
1.06103e-06
8.58969e-07
6.92513e-07
5.55983e-07
4.44487e-07
3.53835e-07
2.80456e-07
2.21321e-07
1.7388e-07
1.35991e-07
1.05869e-07
8.20336e-08
6.32601e-08
4.85441e-08
3.70644e-08
2.81534e-08
2.12711e-08
1.5983e-08
1.19412e-08
8.86861e-09
6.5459e-09
4.80019e-09
3.49598e-09
2.52771e-09
1.81353e-09
1.2904e-09
9.10006e-10
6.35537e-10
4.3916e-10
2.99896e-10
2.02137e-10
1.342e-10
8.76383e-11
5.60454e-11
3.53552e-11
2.19736e-11
1.34364e-11
8.07093e-12
4.75409e-12
2.74105e-12
1.5441e-12
8.48372e-13
4.53958e-13
2.36382e-13
1.19842e-13
5.93245e-14
2.89166e-14
1.41911e-14
7.28823e-15
4.11468e-15
2.65594e-15
1.96491e-15
1.61482e-15
1.41969e-15
1.29968e-15
1.21986e-15
1.16398e-15
1.12365e-15
1.094e-15
1.07191e-15
1.0553e-15
1.0427e-15
1.03307e-15
1.02566e-15
1.01994e-15
1.0155e-15
1.01204e-15
1.00934e-15
1.00724e-15
1.00559e-15
1.0043e-15
1.0033e-15
1.00252e-15
1.00189e-15
1.00143e-15
1.00102e-15
1.00074e-15
1.00049e-15
1.00032e-15
1.0002e-15
1.00011e-15
1.00006e-15
1.00002e-15
1e-15
1e-15
1e-15
1e-15
1e-15
1e-15
1e-15
1e-15
1e-15
1e-15
1e-15
1e-15
1e-15
1e-15
1.00001e-15
1.00007e-15
1.00031e-15
1.00106e-15
1.00319e-15
1.00865e-15
1.02164e-15
1.05098e-15
1.11581e-15
1.25936e-15
1.59037e-15
2.40434e-15
4.63986e-15
1.12639e-14
3.26119e-14
9.96512e-14
3.19612e-13
9.6267e-13
3.00268e-12
8.30833e-12
2.24435e-11
8.12167e-11
1.03313e-10
2.02036e-10
2.18039e-10
8.41968e-06
2.97031e-06
3.89966e-06
9.2262e-06
1.09968e-05
1.17511e-05
1.24032e-05
1.33322e-05
1.45858e-05
1.63069e-05
1.86139e-05
2.17046e-05
2.57911e-05
3.10454e-05
3.76732e-05
4.5916e-05
5.58959e-05
6.72141e-05
7.87296e-05
8.98768e-05
0.000100049
0.000108587
0.00011504
0.000118923
0.000120552
0.000119938
0.000117126
0.000112632
0.000106793
9.99482e-05
9.24484e-05
8.46226e-05
7.67292e-05
6.89835e-05
6.15493e-05
5.45402e-05
4.8029e-05
4.20557e-05
3.66342e-05
3.17597e-05
2.74115e-05
2.35599e-05
2.01698e-05
1.72029e-05
1.46191e-05
1.23798e-05
1.04478e-05
8.78733e-06
7.36606e-06
6.15459e-06
5.12569e-06
4.25522e-06
3.52083e-06
2.90142e-06
2.38275e-06
1.95059e-06
1.59107e-06
1.29314e-06
1.04719e-06
8.44898e-07
6.79141e-07
5.43831e-07
4.33796e-07
3.44663e-07
2.72746e-07
2.14951e-07
1.68695e-07
1.31829e-07
1.02569e-07
7.94465e-08
6.12545e-08
4.70056e-08
3.58963e-08
2.72755e-08
2.06178e-08
1.55017e-08
1.15901e-08
8.61518e-09
6.36492e-09
4.67237e-09
3.40679e-09
2.46625e-09
1.77178e-09
1.26247e-09
8.91662e-10
6.23726e-10
4.31758e-10
2.95379e-10
1.99521e-10
1.32729e-10
8.69374e-11
5.56895e-11
3.51892e-11
2.19064e-11
1.34165e-11
8.07078e-12
4.75999e-12
2.74696e-12
1.5479e-12
8.49877e-13
4.53718e-13
2.35078e-13
1.18049e-13
5.74649e-14
2.72184e-14
1.26959e-14
6.00627e-15
3.05536e-15
1.81039e-15
1.3082e-15
1.11433e-15
1.04246e-15
1.01664e-15
1.00746e-15
1.00408e-15
1.00267e-15
1.00196e-15
1.00152e-15
1.0012e-15
1.00095e-15
1.00076e-15
1.00061e-15
1.00048e-15
1.00038e-15
1.0003e-15
1.00024e-15
1.00019e-15
1.00015e-15
1.00012e-15
1.00009e-15
1.00007e-15
1.00005e-15
1.00004e-15
1.00003e-15
1.00002e-15
1.00002e-15
1.00001e-15
1.00001e-15
1.00001e-15
1e-15
1e-15
1e-15
1e-15
1e-15
1e-15
1e-15
1e-15
1e-15
1e-15
1e-15
1e-15
1e-15
1e-15
1e-15
1e-15
1e-15
1.00081e-15
1.00506e-15
1.01506e-15
1.03614e-15
1.07058e-15
1.1421e-15
1.2572e-15
1.48654e-15
1.90118e-15
2.74585e-15
4.55903e-15
8.72868e-15
1.8928e-14
4.54847e-14
1.16521e-13
3.14503e-13
8.58805e-13
2.34412e-12
6.25889e-12
1.47745e-11
5.83152e-11
6.52019e-11
1.02043e-10
1.19453e-10
1.03764e-05
3.41993e-06
4.17286e-06
9.71274e-06
1.15009e-05
1.2365e-05
1.33724e-05
1.48847e-05
1.70963e-05
2.02869e-05
2.47786e-05
3.10271e-05
3.95835e-05
5.09782e-05
6.57622e-05
8.43464e-05
0.000106759
0.000132035
0.000157072
0.000179738
0.00019842
0.000211451
0.000218118
0.000220595
0.00021704
0.000209124
0.000197716
0.00018401
0.000168943
0.000153193
0.000137384
0.000122075
0.000107563
9.4085e-05
8.17668e-05
7.06558e-05
6.07442e-05
5.19912e-05
4.4326e-05
3.7662e-05
3.19e-05
2.69417e-05
2.26935e-05
1.90682e-05
1.59812e-05
1.33624e-05
1.11474e-05
9.27638e-06
7.69951e-06
6.3774e-06
5.2684e-06
4.3383e-06
3.55949e-06
2.91477e-06
2.38146e-06
1.93983e-06
1.57525e-06
1.27517e-06
1.02893e-06
8.27499e-07
6.63238e-07
5.2973e-07
4.21582e-07
3.34281e-07
2.64059e-07
2.07782e-07
1.62851e-07
1.27115e-07
9.88062e-08
7.64712e-08
5.8923e-08
4.51944e-08
3.45013e-08
2.621e-08
1.98108e-08
1.48956e-08
1.11388e-08
8.28208e-09
6.1213e-09
4.4959e-09
3.28025e-09
2.3765e-09
1.70888e-09
1.21896e-09
8.61999e-10
6.03832e-10
4.18683e-10
2.8697e-10
1.9428e-10
1.29562e-10
8.51421e-11
5.47108e-11
3.46535e-11
2.16297e-11
1.32855e-11
8.01756e-12
4.74534e-12
2.74921e-12
1.5559e-12
8.58428e-13
4.60795e-13
2.40215e-13
1.21452e-13
5.95574e-14
2.84193e-14
1.33395e-14
6.32731e-15
3.20327e-15
1.87207e-15
1.33017e-15
1.11958e-15
1.04144e-15
1.01376e-15
1.00439e-15
1.00136e-15
1.00042e-15
1.00014e-15
1.00005e-15
1.00003e-15
1.00002e-15
1.00001e-15
1.00001e-15
1.00001e-15
1.00001e-15
1.00001e-15
1e-15
1e-15
1e-15
1e-15
1e-15
1e-15
1e-15
1e-15
1e-15
1e-15
1e-15
1e-15
1e-15
1e-15
1e-15
1e-15
1e-15
1e-15
1e-15
1e-15
1e-15
1e-15
1e-15
1e-15
1e-15
1e-15
1e-15
1e-15
1e-15
1e-15
1e-15
1.0003e-15
1.00279e-15
1.00979e-15
1.02506e-15
1.05619e-15
1.11699e-15
1.21754e-15
1.42452e-15
1.78671e-15
2.51508e-15
4.05111e-15
7.51924e-15
1.57999e-14
3.68653e-14
9.15021e-14
2.38209e-13
6.23779e-13
1.60228e-12
4.21875e-12
8.74339e-12
3.20051e-11
3.28285e-11
3.3967e-11
4.01424e-11
1.26557e-05
3.98079e-06
4.8543e-06
1.04768e-05
1.22832e-05
1.33176e-05
1.51618e-05
1.80203e-05
2.243e-05
2.92095e-05
3.94227e-05
5.451e-05
7.6095e-05
0.0001057
0.000144449
0.000192563
0.000248841
0.000309333
0.000365338
0.000409617
0.000439525
0.000452466
0.000452119
0.000440331
0.000415413
0.000385087
0.000350141
0.000313517
0.00027735
0.000242752
0.000210429
0.00018116
0.000154866
0.000131737
0.000111468
9.38484e-05
7.86353e-05
6.56602e-05
5.46989e-05
4.54612e-05
3.77067e-05
3.1222e-05
2.58158e-05
2.13204e-05
1.75868e-05
1.44906e-05
1.19258e-05
9.79965e-06
8.03905e-06
6.58183e-06
5.37546e-06
4.38423e-06
3.57564e-06
2.91102e-06
2.36401e-06
1.91507e-06
1.54747e-06
1.24714e-06
1.00234e-06
8.03281e-07
6.41824e-07
5.1122e-07
4.05873e-07
3.21151e-07
2.53229e-07
1.98952e-07
1.55727e-07
1.21423e-07
9.42986e-08
7.29324e-08
5.61675e-08
4.3066e-08
3.28701e-08
2.49696e-08
1.8875e-08
1.41951e-08
1.06187e-08
7.8992e-09
5.84187e-09
4.29383e-09
3.13555e-09
2.27397e-09
1.63705e-09
1.16928e-09
8.28117e-10
5.81107e-10
4.03711e-10
2.77348e-10
1.88238e-10
1.2594e-10
8.30202e-11
5.36296e-11
3.40665e-11
2.1331e-11
1.31484e-11
7.96623e-12
4.73605e-12
2.75773e-12
1.56967e-12
8.71637e-13
4.71314e-13
2.47733e-13
1.26415e-13
6.26177e-14
3.01909e-14
1.43039e-14
6.82133e-15
3.4415e-15
1.98026e-15
1.37645e-15
1.13821e-15
1.0485e-15
1.01628e-15
1.00523e-15
1.00161e-15
1.00047e-15
1.00013e-15
1.00004e-15
1.00001e-15
1e-15
1e-15
1e-15
1e-15
1e-15
1e-15
1e-15
1e-15
1e-15
1e-15
1e-15
1e-15
1e-15
1e-15
1e-15
1e-15
1e-15
1e-15
1e-15
1e-15
1e-15
1e-15
1e-15
1e-15
1e-15
1e-15
1e-15
1e-15
1e-15
1e-15
1e-15
1e-15
1e-15
1e-15
1e-15
1e-15
1e-15
1.00001e-15
1.00161e-15
1.00713e-15
1.01997e-15
1.04795e-15
1.09551e-15
1.19151e-15
1.35979e-15
1.67341e-15
2.27251e-15
3.51198e-15
6.23781e-15
1.2555e-14
2.80812e-14
6.71048e-14
1.66683e-13
4.19096e-13
1.00626e-12
2.84242e-12
4.92e-12
1.33672e-11
1.40387e-11
1.44344e-11
1.66261e-11
1.50521e-05
4.66432e-06
5.8375e-06
1.14781e-05
1.33328e-05
1.52539e-05
1.89767e-05
2.52248e-05
3.58319e-05
5.35034e-05
8.20016e-05
0.000125939
0.00018988
0.000277102
0.000388005
0.000518675
0.000660838
0.000801343
0.00091391
0.000976059
0.00100423
0.00101057
0.000936747
0.000886292
0.000790959
0.000703299
0.000611632
0.000524931
0.000445978
0.000376055
0.000314655
0.000262307
0.000217823
0.000181017
0.000149813
0.000123375
0.000100906
8.22706e-05
6.69341e-05
5.43913e-05
4.41673e-05
3.58484e-05
2.90844e-05
2.35848e-05
1.91235e-05
1.55002e-05
1.25577e-05
1.01746e-05
8.2437e-06
6.67762e-06
5.41736e-06
4.39521e-06
3.55929e-06
2.87712e-06
2.32174e-06
1.87025e-06
1.50366e-06
1.20641e-06
9.65748e-07
7.71227e-07
6.143e-07
4.87966e-07
3.86494e-07
3.05193e-07
2.40226e-07
1.88459e-07
1.47334e-07
1.14766e-07
8.90602e-08
6.88418e-08
5.29969e-08
4.06265e-08
3.10067e-08
2.35566e-08
1.78115e-08
1.34006e-08
1.00298e-08
7.46618e-09
5.52613e-09
4.06566e-09
2.97221e-09
2.15823e-09
1.55596e-09
1.11316e-09
7.89805e-10
5.55374e-10
3.86727e-10
2.66403e-10
1.81342e-10
1.21787e-10
8.05731e-11
5.23657e-11
3.33741e-11
2.09742e-11
1.29812e-11
7.90085e-12
4.72135e-12
2.76518e-12
1.58427e-12
8.86289e-13
4.83292e-13
2.5649e-13
1.32336e-13
6.63716e-14
3.2434e-14
1.55686e-14
7.4939e-15
3.77865e-15
2.13955e-15
1.44741e-15
1.16805e-15
1.06036e-15
1.02073e-15
1.00681e-15
1.00214e-15
1.00064e-15
1.00019e-15
1.00005e-15
1.00001e-15
1e-15
1e-15
1e-15
1e-15
1e-15
1e-15
1e-15
1e-15
1e-15
1e-15
1e-15
1e-15
1e-15
1e-15
1e-15
1e-15
1e-15
1e-15
1e-15
1e-15
1e-15
1e-15
1e-15
1e-15
1e-15
1e-15
1e-15
1e-15
1e-15
1e-15
1e-15
1e-15
1e-15
1e-15
1e-15
1e-15
1e-15
1e-15
1.00067e-15
1.00441e-15
1.01425e-15
1.03592e-15
1.07489e-15
1.15677e-15
1.2868e-15
1.54905e-15
2.01853e-15
2.96725e-15
4.98622e-15
9.4936e-15
2.01284e-14
4.57136e-14
1.07398e-13
2.54312e-13
5.64779e-13
1.53754e-12
2.18419e-12
3.86841e-12
4.60378e-12
4.85855e-12
5.78549e-12
1.78321e-05
5.37873e-06
6.95178e-06
1.28646e-05
1.53463e-05
1.96659e-05
2.85982e-05
4.54145e-05
7.67037e-05
0.000131993
0.000223671
0.000364704
0.000564779
0.000825521
0.00113497
0.00146631
0.00179121
0.00208364
0.00223485
0.00228992
0.00223259
0.00214409
0.00183718
0.00169856
0.00141282
0.00120759
0.00100033
0.000820848
0.000667977
0.00054125
0.000435416
0.000349251
0.000281232
0.000223829
0.00017756
0.000141148
0.00011254
9.00387e-05
7.22143e-05
5.80169e-05
4.6663e-05
3.75572e-05
3.02415e-05
2.43576e-05
1.96227e-05
1.58119e-05
1.27434e-05
1.02766e-05
8.29403e-06
6.69378e-06
5.39288e-06
4.33821e-06
3.48644e-06
2.79948e-06
2.24567e-06
1.79934e-06
1.43976e-06
1.15024e-06
9.17323e-07
7.30131e-07
5.79883e-07
4.59472e-07
3.63141e-07
2.86228e-07
2.24955e-07
1.76258e-07
1.37658e-07
1.07147e-07
8.31032e-08
6.42152e-08
4.94275e-08
3.78911e-08
2.89245e-08
2.19823e-08
1.66293e-08
1.25193e-08
9.37758e-09
6.98714e-09
5.17715e-09
3.81358e-09
2.79179e-09
2.03038e-09
1.46633e-09
1.05107e-09
7.47369e-10
5.2682e-10
3.67837e-10
2.54191e-10
1.73619e-10
1.17106e-10
7.77976e-11
5.09104e-11
3.25698e-11
2.05539e-11
1.27796e-11
7.81816e-12
4.69902e-12
2.77013e-12
1.59892e-12
9.02062e-13
4.9665e-13
2.66509e-13
1.39269e-13
7.08721e-14
3.51918e-14
1.71659e-14
8.3677e-15
4.2297e-15
2.35909e-15
1.54818e-15
1.21168e-15
1.07821e-15
1.02763e-15
1.00934e-15
1.00302e-15
1.00093e-15
1.00028e-15
1.00008e-15
1.00002e-15
1.00001e-15
1e-15
1e-15
1e-15
1e-15
1e-15
1e-15
1e-15
1e-15
1e-15
1e-15
1e-15
1e-15
1e-15
1e-15
1e-15
1e-15
1e-15
1e-15
1e-15
1e-15
1e-15
1e-15
1e-15
1e-15
1e-15
1e-15
1e-15
1e-15
1e-15
1e-15
1e-15
1e-15
1e-15
1e-15
1e-15
1e-15
1e-15
1.00001e-15
1.00161e-15
1.00765e-15
1.02215e-15
1.05397e-15
1.1079e-15
1.21926e-15
1.40143e-15
1.76289e-15
2.42923e-15
3.80238e-15
6.72965e-15
1.32771e-14
2.80826e-14
6.11771e-14
1.42504e-13
2.68614e-13
6.69471e-13
7.46018e-13
8.57545e-13
1.05205e-12
1.13992e-12
1.47558e-12
1.98596e-05
6.08249e-06
7.97009e-06
1.53427e-05
2.00464e-05
3.17126e-05
5.74953e-05
0.000110501
0.000213266
0.000396107
0.000692503
0.00112904
0.00171472
0.00243055
0.00321421
0.00396377
0.0046092
0.0050041
0.00515861
0.00500127
0.00475335
0.00412865
0.00341292
0.00298911
0.00232703
0.0019
0.00149717
0.00117323
0.00091323
0.000709503
0.000545832
0.00041729
0.000317589
0.00024372
0.00018827
0.000146529
0.000115569
9.17057e-05
7.30757e-05
5.84169e-05
4.68086e-05
3.75681e-05
3.01832e-05
2.42639e-05
1.9507e-05
1.56844e-05
1.26099e-05
1.01266e-05
8.11853e-06
6.50069e-06
5.20242e-06
4.16202e-06
3.32834e-06
2.66024e-06
2.12478e-06
1.69565e-06
1.35179e-06
1.07633e-06
8.55781e-07
6.79318e-07
5.38257e-07
4.25622e-07
3.35808e-07
2.64305e-07
2.07485e-07
1.62424e-07
1.2677e-07
9.863e-08
7.64801e-08
5.9096e-08
4.54945e-08
3.48877e-08
2.66451e-08
2.02633e-08
1.53414e-08
1.15607e-08
8.66916e-09
6.46743e-09
4.79882e-09
3.54045e-09
2.59634e-09
1.89186e-09
1.36918e-09
9.83732e-10
7.01296e-10
4.95762e-10
3.47265e-10
2.40835e-10
1.65176e-10
1.1192e-10
7.47674e-11
4.9213e-11
3.17535e-11
2.01406e-11
1.2593e-11
7.75188e-12
4.69179e-12
2.7877e-12
1.62331e-12
9.24933e-13
5.15043e-13
2.80115e-13
1.48805e-13
7.72744e-14
3.93075e-14
1.96857e-14
9.82788e-15
5.02683e-15
2.76797e-15
1.74506e-15
1.30073e-15
1.11608e-15
1.04281e-15
1.01508e-15
1.00507e-15
1.00163e-15
1.0005e-15
1.00015e-15
1.00004e-15
1.00001e-15
1e-15
1e-15
1e-15
1e-15
1e-15
1e-15
1e-15
1e-15
1e-15
1e-15
1e-15
1e-15
1e-15
1e-15
1e-15
1e-15
1e-15
1e-15
1e-15
1e-15
1e-15
1e-15
1e-15
1e-15
1e-15
1e-15
1e-15
1e-15
1e-15
1e-15
1e-15
1e-15
1e-15
1e-15
1e-15
1e-15
1e-15
1e-15
1.00001e-15
1.00222e-15
1.00998e-15
1.02817e-15
1.06785e-15
1.13473e-15
1.26739e-15
1.50477e-15
1.93414e-15
2.76466e-15
4.40785e-15
7.81916e-15
1.48193e-14
3.15861e-14
5.66878e-14
1.19379e-13
1.53589e-13
1.59273e-13
1.6905e-13
1.94081e-13
2.089e-13
2.85169e-13
2.24406e-05
6.99221e-06
9.91236e-06
2.0442e-05
3.28164e-05
6.76201e-05
0.000148055
0.000318084
0.000643032
0.00119968
0.00205731
0.00325149
0.00475909
0.00647045
0.00819945
0.00978994
0.0107343
0.0111339
0.0112594
0.0105657
0.00969903
0.00749853
0.00641816
0.00482999
0.00369932
0.00275369
0.00205922
0.00153433
0.00113897
0.000837381
0.000615746
0.000453478
0.000335156
0.000251038
0.000190627
0.000145836
0.000111709
8.61897e-05
6.71236e-05
5.27749e-05
4.18469e-05
3.34092e-05
2.68086e-05
2.15829e-05
1.7403e-05
1.40299e-05
1.12991e-05
9.09331e-06
7.31457e-06
5.87971e-06
4.7216e-06
3.78712e-06
3.0338e-06
2.42726e-06
1.93948e-06
1.54768e-06
1.23332e-06
9.81381e-07
7.79684e-07
6.18396e-07
4.89577e-07
3.86828e-07
3.0499e-07
2.39912e-07
1.88253e-07
1.47326e-07
1.14971e-07
8.94523e-08
6.93764e-08
5.36254e-08
4.13037e-08
3.16946e-08
2.42259e-08
1.84411e-08
1.39771e-08
1.05459e-08
7.9192e-09
5.91712e-09
4.39801e-09
3.25084e-09
2.38888e-09
1.74461e-09
1.26574e-09
9.11879e-10
6.5202e-10
4.6244e-10
3.25118e-10
2.26405e-10
1.56012e-10
1.0622e-10
7.13831e-11
4.72488e-11
3.07915e-11
1.96396e-11
1.23586e-11
7.66351e-12
4.67649e-12
2.80412e-12
1.64937e-12
9.5024e-13
5.35796e-13
2.95727e-13
1.59917e-13
8.48203e-14
4.41835e-14
2.26653e-14
1.15403e-14