/*--------------------------------*- C++ -*----------------------------------*\
| =========                 |                                                 |
| \\      /  F ield         | OpenFOAM: The Open Source CFD Toolbox           |
|  \\    /   O peration     | Version:  2112                                  |
|   \\  /    A nd           | Website:  www.openfoam.com                      |
|    \\/     M anipulation  |                                                 |
\*---------------------------------------------------------------------------*/
FoamFile
{
    version     2.0;
    format      ascii;
    arch        "LSB;label=32;scalar=64";
    class       volScalarField;
    location    "0.13";
    object      k;
}
// * * * * * * * * * * * * * * * * * * * * * * * * * * * * * * * * * * * * * //

dimensions      [0 2 -2 0 0 0 0];

internalField   nonuniform List<scalar> 
12225
(
0.161146
0.300207
0.463581
0.671448
0.946437
1.31259
1.79484
2.41494
3.19038
4.12965
5.22719
6.4611
7.795
9.17959
10.5626
11.919
13.1708
14.1421
0.0429123
0.0539734
0.0697224
0.0916833
0.121463
0.160922
0.213303
0.283475
0.376117
0.495892
0.648477
0.841287
1.08188
1.38038
1.74401
2.17296
2.69738
3.34984
0.0894868
0.0460143
0.0404257
0.042657
0.0454916
0.0491446
0.0540048
0.0607173
0.0699599
0.0824754
0.0992489
0.121728
0.151912
0.192776
0.248127
0.323319
0.425967
0.570783
0.201413
0.113154
0.0801491
0.0627143
0.0516209
0.0429687
0.0387642
0.0395258
0.0404872
0.0417155
0.0433009
0.0453888
0.0482113
0.0521571
0.0578018
0.0660717
0.0782914
0.0968334
0.312836
0.205744
0.15412
0.123685
0.10293
0.0864118
0.0742359
0.0651323
0.0580706
0.0523466
0.0467221
0.0420148
0.0383066
0.0374694
0.0379847
0.0387448
0.0398893
0.0416403
0.401884
0.293829
0.233338
0.19417
0.166359
0.144733
0.127776
0.114302
0.103364
0.0941745
0.085227
0.077389
0.0707938
0.0652049
0.0603819
0.0555625
0.0509275
0.0470035
0.461277
0.36347
0.303289
0.26098
0.229475
0.20469
0.184729
0.168377
0.154754
0.143162
0.132743
0.123401
0.115108
0.107756
0.101177
0.0945414
0.0880364
0.0822798
0.487306
0.413299
0.357276
0.316492
0.284786
0.259065
0.237867
0.220081
0.204964
0.19193
0.180415
0.170123
0.160889
0.15258
0.145057
0.138009
0.131337
0.125243
0.489156
0.442503
0.396384
0.358738
0.328477
0.30378
0.283073
0.265184
0.249678
0.236113
0.224089
0.213321
0.20361
0.194807
0.186782
0.179378
0.172506
0.166285
0.478256
0.451613
0.420082
0.389051
0.361649
0.338335
0.318456
0.301381
0.28641
0.273124
0.261211
0.250445
0.24065
0.231677
0.223403
0.215727
0.208608
0.202216
0.461751
0.446942
0.42773
0.406303
0.384755
0.364398
0.345973
0.329875
0.315627
0.302883
0.291391
0.280956
0.271435
0.262709
0.254682
0.247276
0.24045
0.234327
0.497666
0.487586
0.474332
0.45868
0.441678
0.424253
0.407206
0.391253
0.376644
0.363367
0.351303
0.340312
0.330281
0.321129
0.312794
0.305211
0.298322
0.29218
0.437275
0.431365
0.423874
0.414906
0.404768
0.393819
0.38245
0.371101
0.360148
0.34982
0.340204
0.331309
0.323112
0.315592
0.308728
0.302485
0.296826
0.291785
0.3838
0.380204
0.375886
0.370938
0.365327
0.359133
0.352483
0.345551
0.33853
0.331602
0.324898
0.318504
0.312469
0.306824
0.301582
0.296741
0.299046
0.30307
0.336612
0.334245
0.331585
0.328719
0.325607
0.322234
0.31862
0.314809
0.310863
0.30685
0.302839
0.30461
0.308984
0.313527
0.318276
0.32326
0.328507
0.334084
0.295092
0.293351
0.291537
0.289669
0.287762
0.28579
0.288059
0.2938
0.299582
0.30542
0.311333
0.317343
0.323476
0.329755
0.336201
0.342836
0.349679
0.356774
0.258632
0.260119
0.265842
0.271693
0.277687
0.283819
0.290086
0.296488
0.303028
0.309711
0.316543
0.323533
0.33069
0.338023
0.345542
0.353259
0.361183
0.369336
0.25454
0.260163
0.265948
0.271891
0.277994
0.284263
0.290697
0.297301
0.304075
0.311025
0.318153
0.325465
0.332965
0.340659
0.348552
0.356651
0.364961
0.373493
0.254532
0.260131
0.265869
0.271736
0.277739
0.283887
0.290178
0.296612
0.303188
0.309908
0.316775
0.323791
0.33096
0.338288
0.345779
0.353441
0.361283
0.369317
0.254475
0.259892
0.265299
0.270685
0.276098
0.281544
0.287004
0.292473
0.297948
0.303434
0.30894
0.314482
0.320077
0.32575
0.331523
0.337416
0.343452
0.349664
0.26792
0.265676
0.263518
0.267621
0.271541
0.275246
0.278726
0.282017
0.285163
0.288218
0.291234
0.294262
0.297368
0.300652
0.30413
0.307813
0.311718
0.315884
0.293073
0.288625
0.282949
0.276552
0.269754
0.262655
0.260159
0.259918
0.25977
0.2598
0.260058
0.260578
0.261393
0.262526
0.263946
0.265646
0.26763
0.269936
0.318796
0.308391
0.295978
0.282982
0.27009
0.257767
0.246316
0.235927
0.226542
0.219722
0.217855
0.216476
0.215519
0.214884
0.214557
0.214525
0.214783
0.215362
0.341405
0.317235
0.292862
0.270502
0.25076
0.233694
0.21907
0.206389
0.195338
0.185639
0.177031
0.169318
0.162361
0.159814
0.158168
0.156843
0.155815
0.155093
0.350161
0.301727
0.262558
0.231748
0.207449
0.188018
0.172233
0.159196
0.148262
0.138926
0.130705
0.123373
0.116814
0.110935
0.105649
0.100876
0.0978132
0.0964374
0.323701
0.248503
0.199869
0.167013
0.143676
0.126338
0.112992
0.102426
0.0938597
0.0866657
0.0800071
0.0740385
0.0688524
0.0643551
0.060428
0.0569707
0.0539062
0.051182
0.241994
0.159658
0.116585
0.0917497
0.0759433
0.0650491
0.0571239
0.0511315
0.0464646
0.0426543
0.0389935
0.0368218
0.0369892
0.0371983
0.0374522
0.0377543
0.0381083
0.0385179
0.120053
0.0692292
0.0474987
0.0383138
0.0389284
0.0396003
0.0403385
0.0411836
0.0422064
0.0434989
0.0451525
0.0472577
0.0499034
0.0531598
0.0570877
0.061746
0.0672023
0.0735446
0.0390964
0.0423177
0.0467011
0.052479
0.0599094
0.0692324
0.0807602
0.0949555
0.112532
0.134278
0.160874
0.192881
0.230774
0.274959
0.325787
0.383644
0.449065
0.522489
0.108994
0.183336
0.260737
0.347002
0.447883
0.568385
0.712971
0.885855
1.09106
1.33119
1.61031
1.93184
2.29837
2.7116
3.17215
3.67941
4.23115
4.82178
0.195073
0.210955
0.250726
0.316039
0.405521
0.512333
0.628068
0.745546
0.859617
0.966974
1.06563
1.15486
1.23526
1.30803
1.37438
1.43546
1.49234
1.54602
1.59741
1.64733
1.69665
1.74593
1.79544
1.84554
1.8967
1.94921
2.00303
2.05756
2.11102
2.16103
2.20603
2.24525
2.2787
2.30725
2.33359
2.35924
2.38446
2.40951
2.43447
2.45934
2.48404
2.50849
2.53262
2.55637
2.57984
2.60362
2.62823
2.65389
2.6808
2.70884
2.73776
2.76741
2.79766
2.82838
2.8595
2.89095
2.92275
2.95494
3.0017
3.06628
3.13041
3.1937
3.25592
3.31696
3.3767
3.43506
3.49198
3.54739
3.60127
3.65358
3.70429
3.75335
3.8007
3.84628
3.89003
3.93189
3.97184
4.00992
4.04618
4.08065
4.11333
4.14419
4.17327
4.2006
4.22625
4.2503
4.27283
4.29396
4.3138
4.33255
4.35053
4.36828
4.38523
4.40032
4.41332
4.42417
4.43283
4.43928
4.44353
4.44601
4.44693
4.44636
4.44433
4.44084
4.4359
4.4295
4.4217
4.41259
4.40231
4.39099
4.37873
4.3656
4.35168
4.33699
4.32156
4.30541
4.28856
4.27108
4.25321
4.2355
4.22613
4.25834
4.29163
4.32574
4.36074
4.39675
4.43312
4.46896
4.50383
4.53732
4.56885
4.59789
4.62408
4.64738
4.66737
4.68276
4.69225
4.69522
4.69097
4.67888
4.65895
4.63165
4.59709
4.55494
4.50446
4.44606
4.38044
4.3085
4.23155
4.15103
4.06952
3.98816
3.90729
3.82737
3.7478
3.66729
3.58351
3.49584
3.40394
3.30797
3.20813
3.10461
2.99762
2.88741
2.77441
2.65901
2.54164
2.42287
2.30339
2.18406
2.06595
1.95045
1.83942
1.73568
1.64435
1.56351
1.52083
1.52619
1.58524
1.68742
0.196925
0.205958
0.237749
0.293658
0.372511
0.467973
0.572171
0.678352
0.781652
0.878938
0.968494
1.04975
1.12295
1.18883
1.24832
1.30242
1.35206
1.3981
1.44126
1.48212
1.52123
1.55924
1.59654
1.63348
1.67025
1.70691
1.7438
1.78085
1.81722
1.8513
1.88127
1.90743
1.93064
1.95223
1.97342
1.99497
2.01727
2.0405
2.06466
2.08976
2.11574
2.14256
2.17016
2.19846
2.22732
2.25658
2.28594
2.31494
2.34303
2.37006
2.39664
2.42348
2.45065
2.47785
2.5049
2.53178
2.55848
2.58483
2.61029
2.63477
2.65831
2.68107
2.70315
2.72438
2.74465
2.76387
2.78206
2.79925
2.81556
2.83128
2.84653
2.86145
2.87608
2.89038
2.90425
2.91737
2.92934
2.94024
2.95082
2.96131
2.97154
2.98139
2.99074
2.99947
3.00769
3.01557
3.02315
3.03046
3.03733
3.04335
3.04816
3.06087
3.08156
3.10157
3.12086
3.13929
3.15667
3.17282
3.18792
3.20222
3.21613
3.2299
3.24364
3.25739
3.27109
3.28429
3.29671
3.3084
3.31964
3.33076
3.34213
3.35398
3.36654
3.37999
3.39437
3.4097
3.42598
3.44243
3.45815
3.47276
3.48571
3.4962
3.50709
3.51875
3.5313
3.54487
3.55947
3.57422
3.58823
3.60139
3.61396
3.62605
3.63763
3.6486
3.65901
3.66887
3.67814
3.68668
3.69405
3.6993
3.70127
3.69941
3.69363
3.68413
3.67114
3.65498
3.636
3.6144
3.59038
3.56411
3.53638
3.50753
3.47763
3.44671
3.41482
3.38161
3.3461
3.30791
3.26676
3.22249
3.17482
3.12356
3.06848
3.00942
2.94625
2.87906
2.80794
2.73301
2.65447
2.5726
2.48793
2.40126
2.31387
2.2279
2.14773
2.08077
2.04801
2.05686
2.10082
2.17217
0.201322
0.204021
0.229968
0.279133
0.350306
0.437737
0.533913
0.63216
0.727574
0.817039
0.898903
0.972628
1.03843
1.09698
1.14922
1.1961
1.23859
1.27759
1.31383
1.34794
1.3804
1.41158
1.44167
1.47067
1.49857
1.52604
1.55324
1.57991
1.60551
1.62915
1.64998
1.66904
1.68732
1.70574
1.72495
1.74534
1.76705
1.79009
1.8144
1.8399
1.86651
1.89412
1.92264
1.95198
1.98199
2.01255
2.04347
2.07472
2.10628
2.13808
2.17005
2.2021
2.23394
2.26517
2.29544
2.32458
2.35257
2.3793
2.4046
2.42838
2.45113
2.47284
2.49347
2.51309
2.53189
2.55004
2.56753
2.58462
2.60137
2.61774
2.63366
2.64901
2.66368
2.67755
2.69056
2.70266
2.71389
2.72429
2.73388
2.74264
2.7508
2.7584
2.76543
2.77191
2.77784
2.78323
2.78816
2.79256
2.79632
2.79923
2.80108
2.80976
2.82495
2.83947
2.85346
2.86699
2.88006
2.89278
2.9052
2.91707
2.9285
2.93964
2.95063
2.96162
2.97278
2.98391
2.99489
3.00561
3.01606
3.02634
3.03648
3.04646
3.05609
3.06516
3.07376
3.08203
3.09005
3.09782
3.10525
3.11223
3.11868
3.12471
3.1306
3.13603
3.14108
3.14616
3.15161
3.15773
3.16474
3.17286
3.18236
3.19299
3.20412
3.2154
3.22692
3.23889
3.25152
3.26502
3.27948
3.29497
3.31143
3.32876
3.34663
3.36415
3.38007
3.39354
3.40445
3.41312
3.41992
3.42533
3.43007
3.43469
3.43938
3.44401
3.44811
3.45072
3.45055
3.44692
3.43966
3.42881
3.4144
3.39628
3.37423
3.34796
3.3171
3.28142
3.24076
3.195
3.14426
3.08884
3.02931
2.96656
2.90195
2.83759
2.77717
2.72829
2.70289
2.70341
2.72099
2.74934
0.205327
0.202976
0.225253
0.270119
0.336264
0.418418
0.509304
0.602226
0.692168
0.775947
0.851924
0.919631
0.979369
1.0319
1.07821
1.11935
1.15631
1.19
1.22117
1.25037
1.27801
1.30433
1.32941
1.35359
1.37704
1.39959
1.4214
1.44244
1.46238
1.48036
1.49696
1.51307
1.52943
1.54662
1.56497
1.58468
1.60578
1.62826
1.65207
1.67713
1.70336
1.73067
1.75893
1.78797
1.8176
1.8476
1.87773
1.90778
1.93755
1.96685
1.99553
2.02344
2.05048
2.07661
2.10181
2.12614
2.14965
2.17241
2.1945
2.21604
2.23719
2.25796
2.27839
2.29848
2.31825
2.33768
2.35681
2.37563
2.3941
2.41215
2.42975
2.44679
2.46327
2.47916
2.49444
2.5091
2.5231
2.53646
2.54912
2.5612
2.57268
2.58359
2.59393
2.6037
2.61287
2.62147
2.6295
2.63688
2.6435
2.64921
2.65392
2.66508
2.68273
2.70003
2.71718
2.73428
2.75143
2.76879
2.78607
2.80317
2.82011
2.83694
2.85373
2.8705
2.88715
2.9037
2.92007
2.93617
2.95202
2.96768
2.98316
2.99849
3.01371
3.0288
3.04377
3.05858
3.07321
3.08767
3.102
3.1162
3.13017
3.14374
3.15701
3.17023
3.18366
3.19744
3.21164
3.22628
3.24125
3.25653
3.27256
3.28995
3.30912
3.33019
3.35305
3.37748
3.40291
3.42889
3.4554
3.48268
3.51106
3.54082
3.57197
3.60418
3.63683
3.6693
3.70097
3.73096
3.75845
3.7834
3.80651
3.82872
3.85072
3.87275
3.89472
3.91592
3.93521
3.95165
3.96446
3.97307
3.97726
3.9771
3.97284
3.96468
3.95263
3.93664
3.91664
3.89242
3.86391
3.83114
3.79446
3.75438
3.71184
3.66761
3.62338
3.58414
3.55547
3.5385
3.52441
3.50696
0.210668
0.204135
0.223897
0.265909
0.328723
0.407384
0.494747
0.58401
0.670017
0.749512
0.820884
0.883756
0.938551
0.986162
1.0277
1.06431
1.09706
1.12687
1.15448
1.18041
1.20503
1.22861
1.25124
1.27263
1.29254
1.31135
1.3298
1.34787
1.3651
1.38084
1.39519
1.40971
1.42504
1.44154
1.45936
1.47858
1.49921
1.52122
1.54455
1.56913
1.59481
1.62141
1.64872
1.67646
1.70435
1.73216
1.75965
1.78664
1.81304
1.83885
1.86406
1.88874
1.91296
1.93683
1.96044
1.98391
2.00731
2.03072
2.05421
2.07782
2.10158
2.12551
2.14961
2.17386
2.19824
2.22272
2.24728
2.27191
2.29654
2.32115
2.34566
2.36997
2.39407
2.41788
2.44137
2.46445
2.48705
2.5091
2.53056
2.5514
2.5716
2.59112
2.60997
2.62814
2.64564
2.66248
2.67865
2.69412
2.70882
2.72269
2.73555
2.75539
2.78236
2.80917
2.83593
2.86273
2.88957
2.91626
2.94276
2.96906
2.99518
3.02118
3.04692
3.07245
3.09776
3.12282
3.14756
3.17193
3.19594
3.21962
3.24301
3.26618
3.28914
3.312
3.33482
3.3576
3.38036
3.40313
3.42596
3.4489
3.47199
3.49532
3.51897
3.54315
3.56799
3.59356
3.61991
3.64707
3.67507
3.70388
3.73359
3.7643
3.79603
3.82888
3.86294
3.89819
3.93464
3.97219
4.01088
4.05071
4.09127
4.1319
4.17257
4.21335
4.2543
4.2954
4.33647
4.37697
4.41646
4.45453
4.49108
4.52578
4.55867
4.59006
4.62048
4.64985
4.67761
4.70319
4.72605
4.74572
4.76171
4.77361
4.78105
4.784
4.78271
4.77762
4.7691
4.7569
4.74103
4.72157
4.69889
4.67247
4.64258
4.60863
4.57014
4.52994
4.49162
4.45666
4.41711
4.36629
0.217426
0.206896
0.224555
0.264453
0.324876
0.401043
0.485865
0.572411
0.655382
0.731467
0.799096
0.857997
0.908728
0.952333
0.99007
1.02321
1.0529
1.08005
1.10532
1.12919
1.15195
1.17362
1.19389
1.21253
1.23004
1.24683
1.26327
1.27943
1.29496
1.30903
1.32232
1.33635
1.3514
1.36765
1.38523
1.4042
1.42458
1.44637
1.46946
1.49371
1.5189
1.54477
1.57105
1.5975
1.62386
1.64998
1.67578
1.70126
1.72647
1.75157
1.77667
1.80192
1.82744
1.85336
1.87979
1.90681
1.93448
1.96284
1.99192
2.02172
2.05225
2.08347
2.1154
2.14798
2.18117
2.21493
2.24924
2.28405
2.31929
2.35487
2.39065
2.42654
2.46244
2.49824
2.53382
2.56903
2.60374
2.63782
2.67117
2.7037
2.73535
2.76609
2.79589
2.82478
2.85281
2.88
2.90638
2.93194
2.95668
2.98039
3.00305
3.03362
3.07216
3.11049
3.14867
3.18659
3.22406
3.26114
3.29784
3.33424
3.37027
3.40594
3.44119
3.476
3.51034
3.54421
3.57752
3.61027
3.64248
3.67419
3.70542
3.73626
3.76676
3.79702
3.82712
3.85712
3.88706
3.91698
3.94695
3.97706
4.00739
4.03807
4.0692
4.10094
4.13342
4.16673
4.20091
4.236
4.27212
4.30928
4.34755
4.38689
4.42729
4.46878
4.51138
4.55503
4.59978
4.64569
4.69281
4.74114
4.79039
4.84006
4.8898
4.93931
4.9881
5.03595
5.08308
5.12954
5.17558
5.2212
5.26638
5.31085
5.35427
5.39609
5.43566
5.47263
5.50697
5.53865
5.56766
5.59391
5.61725
5.63754
5.6543
5.66692
5.67503
5.67851
5.67811
5.67311
5.66357
5.64989
5.63227
5.61054
5.58435
5.55248
5.51325
5.46775
5.41845
5.36744
5.30788
5.23395
0.225551
0.210705
0.226302
0.264414
0.322785
0.396825
0.479505
0.563781
0.64423
0.717502
0.782073
0.837753
0.885222
0.925704
0.960612
0.991254
1.01872
1.04385
1.06723
1.08932
1.11027
1.12995
1.14803
1.16479
1.18058
1.19586
1.21103
1.22608
1.24034
1.25356
1.2668
1.28076
1.29576
1.312
1.3296
1.34866
1.36919
1.39111
1.41426
1.43845
1.46342
1.48892
1.51473
1.54066
1.56662
1.59261
1.6187
1.64501
1.67173
1.69906
1.72713
1.7561
1.78607
1.81714
1.84942
1.88294
1.91775
1.95387
1.99129
2.02999
2.06996
2.11115
2.15353
2.19702
2.24155
2.28708
2.33355
2.38082
2.42884
2.47735
2.52626
2.57546
2.62478
2.67404
2.72307
2.77164
2.81955
2.86661
2.91267
2.95759
3.00127
3.04367
3.08479
3.12466
3.16337
3.20099
3.23759
3.27312
3.30752
3.34074
3.37272
3.41365
3.46352
3.51299
3.56208
3.61031
3.65787
3.70485
3.75125
3.79707
3.8423
3.88692
3.93089
3.97413
4.0166
4.05824
4.09906
4.13904
4.1782
4.21658
4.25425
4.29128
4.32777
4.36383
4.39952
4.43493
4.47011
4.50515
4.54011
4.57507
4.61012
4.64536
4.68093
4.71696
4.75355
4.79082
4.82886
4.86769
4.90739
4.94804
4.98969
5.0324
5.07623
5.12117
5.16721
5.21429
5.26237
5.31145
5.36157
5.4127
5.4647
5.51735
5.5704
5.62359
5.67635
5.72842
5.77975
5.8302
5.87983
5.92886
5.97758
6.02612
6.07441
6.122
6.16821
6.21239
6.25393
6.29197
6.32664
6.35827
6.38721
6.41384
6.43783
6.45806
6.47449
6.48659
6.49398
6.496
6.49264
6.48394
6.47001
6.45092
6.42617
6.3939
6.35222
6.30161
6.24365
6.18058
6.10658
6.01751
0.234927
0.215158
0.22837
0.264729
0.321098
0.39296
0.473499
0.55563
0.633837
0.704726
0.766801
0.819938
0.864886
0.902934
0.935666
0.964414
0.990092
1.01347
1.03513
1.05551
1.0747
1.09249
1.10874
1.12398
1.13858
1.15295
1.16729
1.18135
1.19484
1.208
1.22135
1.23546
1.25068
1.26721
1.28518
1.30465
1.32557
1.34785
1.37129
1.3957
1.42085
1.44655
1.47268
1.4992
1.52615
1.55366
1.58187
1.61097
1.64122
1.67275
1.7057
1.74019
1.77629
1.81407
1.85362
1.89496
1.93811
1.98305
2.02981
2.07833
2.12858
2.18046
2.23394
2.2889
2.34525
2.40287
2.46178
2.52167
2.58239
2.64385
2.70585
2.76821
2.83073
2.89315
2.95528
3.01682
3.07749
3.13709
3.19539
3.25222
3.30744
3.36104
3.41302
3.46343
3.51238
3.55995
3.60616
3.65098
3.6944
3.7363
3.77674
3.82715
3.88749
3.94725
4.00581
4.06343
4.12019
4.17613
4.23125
4.28553
4.33892
4.39138
4.44288
4.49334
4.54268
4.59085
4.63783
4.68364
4.72828
4.7718
4.81431
4.85589
4.89663
4.93665
4.97608
5.015
5.05347
5.09158
5.12942
5.16706
5.20461
5.24214
5.27982
5.31776
5.35605
5.39478
5.43402
5.47384
5.51431
5.55548
5.59742
5.64023
5.68401
5.72878
5.77459
5.82134
5.86896
5.91745
5.96684
6.01712
6.0682
6.11991
6.17218
6.22483
6.27753
6.3301
6.38238
6.43422
6.48552
6.53635
6.5868
6.63685
6.68659
6.73596
6.78472
6.83241
6.87878
6.92189
6.96157
6.99761
7.03003
7.05923
7.08531
7.10812
7.12752
7.14306
7.15416
7.1599
7.15958
7.15273
7.13927
7.11932
7.09261
7.05788
7.01356
6.95958
6.89657
6.82636
6.74387
6.64646
0.245387
0.219886
0.230236
0.264662
0.318934
0.388429
0.466601
0.54651
0.622589
0.691399
0.751435
0.802592
0.845635
0.881828
0.91275
0.939827
0.963996
0.985884
1.00601
1.02475
1.0422
1.05822
1.07302
1.08718
1.10097
1.11463
1.1282
1.14158
1.1548
1.16803
1.18164
1.19615
1.21182
1.22884
1.24733
1.26733
1.28878
1.31157
1.33554
1.36051
1.38632
1.41289
1.44022
1.46836
1.49742
1.52759
1.55905
1.59202
1.62671
1.66325
1.70173
1.74225
1.78486
1.82959
1.87652
1.92567
1.97706
2.03066
2.08648
2.14446
2.20454
2.26659
2.33047
2.39613
2.46344
2.53212
2.60211
2.67329
2.74548
2.81849
2.89214
2.96622
3.04048
3.11467
3.18853
3.26174
3.33397
3.40499
3.47451
3.54235
3.60832
3.67243
3.73466
3.79508
3.85376
3.91073
3.96602
4.01959
4.07141
4.12137
4.16955
4.22865
4.29859
4.3674
4.43474
4.50095
4.5661
4.63019
4.69317
4.755
4.81562
4.87496
4.93294
4.98951
5.04459
5.09812
5.15009
5.20047
5.24934
5.29671
5.34269
5.38739
5.43091
5.47338
5.51494
5.55571
5.59579
5.6353
5.67432
5.71302
5.75145
5.78973
5.82796
5.86623
5.90463
5.94323
5.98206
6.02125
6.06084
6.10088
6.14144
6.1826
6.22443
6.26706
6.31053
6.35483
6.39987
6.44571
6.49228
6.53965
6.58772
6.63645
6.68583
6.73565
6.78574
6.83597
6.88625
6.93647
6.98656
7.03662
7.08663
7.13612
7.18528
7.23408
7.28233
7.32973
7.3759
7.42001
7.46152
7.49986
7.53464
7.56562
7.59262
7.61563
7.63458
7.64932
7.65945
7.66426
7.66285
7.65431
7.63802
7.61374
7.5814
7.54035
7.48958
7.42887
7.35832
7.27949
7.1878
7.082
0.256623
0.224531
0.231549
0.263788
0.315785
0.382743
0.458321
0.535802
0.60972
0.676607
0.734911
0.784494
0.826077
0.860847
0.890293
0.91588
0.938616
0.959085
0.977768
0.99494
1.01074
1.02536
1.03915
1.05243
1.0655
1.07849
1.09149
1.10453
1.11767
1.13107
1.14511
1.1601
1.17627
1.19381
1.21284
1.23341
1.25545
1.27889
1.30357
1.32937
1.35625
1.3842
1.41324
1.44351
1.47514
1.50835
1.54335
1.58033
1.61949
1.66092
1.7047
1.75089
1.79953
1.85062
1.90419
1.9603
2.01899
2.08024
2.14407
2.21037
2.27906
2.35007
2.42304
2.49789
2.57448
2.65262
2.73216
2.81291
2.8947
2.97733
3.06061
3.14434
3.2283
3.31223
3.3959
3.47894
3.56107
3.64199
3.72142
3.79912
3.87493
3.94877
4.02061
4.09048
4.1584
4.22437
4.28834
4.35028
4.41015
4.46788
4.52352
4.59087
4.6698
4.74683
4.82241
4.89667
4.96964
5.04125
5.11144
5.18012
5.2472
5.31257
5.37617
5.43794
5.49783
5.55577
5.61177
5.66583
5.71799
5.76829
5.81681
5.86366
5.90894
5.95281
5.9954
6.03691
6.07748
6.11726
6.15639
6.19502
6.23324
6.27115
6.30884
6.34638
6.38384
6.42126
6.45871
6.49627
6.53401
6.57198
6.61025
6.6489
6.68803
6.72772
6.76798
6.80882
6.85026
6.89233
6.93506
6.97842
7.02239
7.06696
7.11222
7.15785
7.20371
7.24982
7.2961
7.34251
7.38901
7.43557
7.48213
7.52851
7.57468
7.62043
7.66556
7.70983
7.75289
7.79429
7.83355
7.87019
7.9037
7.93356
7.95931
7.9805
7.99682
8.00804
8.01396
8.01412
8.00772
7.99383
7.97151
7.94021
7.8995
7.84905
7.78823
7.71692
7.6353
7.5448
7.44135
7.32479
0.268158
0.228756
0.232133
0.261999
0.311546
0.375761
0.44856
0.52345
0.595077
0.660016
0.716695
0.764907
0.805287
0.838926
0.867144
0.891344
0.91267
0.93176
0.949036
0.964792
0.979297
0.992833
1.00572
1.01826
1.03067
1.04313
1.05575
1.0686
1.08175
1.0954
1.1098
1.12517
1.14175
1.15973
1.17923
1.2003
1.22292
1.24698
1.27238
1.29912
1.32717
1.35655
1.38736
1.41972
1.45382
1.48989
1.52812
1.56875
1.61187
1.65757
1.70587
1.75682
1.81042
1.86671
1.92572
1.98751
2.05213
2.11958
2.1899
2.26299
2.33865
2.41675
2.49711
2.57948
2.6637
2.74954
2.83683
2.92539
3.01497
3.10538
3.19641
3.28789
3.37959
3.4713
3.5628
3.65379
3.74399
3.83315
3.92097
4.00725
4.09178
4.17447
4.25524
4.33404
4.41082
4.48546
4.55789
4.62808
4.69596
4.76141
4.82451
4.90005
4.98679
5.07181
5.15531
5.23729
5.31767
5.39635
5.4732
5.54811
5.62094
5.6916
5.76002
5.8262
5.89014
5.95177
6.0111
6.06814
6.12295
6.17554
6.226
6.27439
6.32085
6.36551
6.40855
6.4502
6.49063
6.53001
6.56856
6.6064
6.6437
6.68054
6.71695
6.75302
6.78881
6.8244
6.85981
6.89515
6.93048
6.96588
7.0014
7.03713
7.07319
7.10968
7.14654
7.18372
7.22125
7.25917
7.29752
7.33631
7.37553
7.41522
7.45535
7.49579
7.53647
7.57735
7.6184
7.65958
7.70085
7.7422
7.78354
7.82474
7.86566
7.90611
7.94589
7.98473
8.02231
8.05824
8.09209
8.12346
8.15185
8.17678
8.19767
8.21393
8.22498
8.2303
8.22955
8.22216
8.20742
8.18444
8.15241
8.11069
8.0587
7.99608
7.92239
7.83739
7.74143
7.63607
7.5178
7.38676
0.279252
0.232312
0.232034
0.259472
0.306472
0.367768
0.437543
0.50959
0.578712
0.641539
0.696483
0.743291
0.782517
0.815139
0.842311
0.865269
0.885215
0.902955
0.918938
0.933487
0.946911
0.959524
0.97165
0.983544
0.995409
1.00743
1.01972
1.03238
1.04552
1.05927
1.07383
1.0894
1.1062
1.12443
1.14423
1.16565
1.18866
1.21318
1.23915
1.26663
1.29562
1.32618
1.35841
1.39249
1.4286
1.46699
1.50786
1.55144
1.59774
1.64677
1.69852
1.75299
1.81019
1.87018
1.93306
1.99898
2.06801
2.14007
2.21517
2.29323
2.37414
2.45769
2.54368
2.63186
2.72201
2.8139
2.90733
3.00209
3.09793
3.19461
3.29191
3.38965
3.48765
3.5857
3.6836
3.78108
3.87792
3.97389
4.06876
4.16235
4.2545
4.34513
4.43409
4.52124
4.60636
4.68928
4.76995
4.84821
4.92396
4.99712
5.06776
5.15033
5.24484
5.3376
5.42866
5.51792
5.60524
5.69046
5.77342
5.85398
5.93196
6.00726
6.07983
6.14974
6.21707
6.2817
6.34366
6.40304
6.45986
6.5142
6.56605
6.61551
6.66272
6.70781
6.75098
6.79245
6.83244
6.87115
6.90878
6.9455
6.98148
7.01688
7.05168
7.08589
7.11965
7.15303
7.18611
7.21896
7.25164
7.28423
7.31678
7.34937
7.38207
7.41497
7.44808
7.48142
7.51499
7.54875
7.58266
7.61673
7.65098
7.68541
7.72003
7.75479
7.78965
7.82463
7.8597
7.89479
7.92985
7.96482
7.99961
8.03413
8.06822
8.10171
8.13436
8.16589
8.19598
8.22423
8.25026
8.27363
8.29392
8.31066
8.32334
8.33138
8.3341
8.33078
8.32076
8.30326
8.27743
8.24232
8.19725
8.14179
8.07533
7.99773
7.90865
7.80761
7.6946
7.57084
7.43115
7.27498
0.289032
0.235169
0.231451
0.256497
0.300908
0.359129
0.425607
0.49446
0.560702
0.621056
0.673949
0.719091
0.756987
0.788515
0.8147
0.836601
0.855291
0.871712
0.886457
0.899908
0.912387
0.92422
0.935686
0.947003
0.958354
0.969892
0.981775
0.994118
1.00703
1.02063
1.03509
1.0506
1.06738
1.08562
1.10544
1.12692
1.15001
1.17468
1.20088
1.22869
1.25815
1.28936
1.32247
1.35764
1.3951
1.4351
1.47791
1.52362
1.57216
1.62349
1.67757
1.73432
1.79377
1.85602
1.92124
1.98963
2.06129
2.13628
2.21458
2.2961
2.38071
2.46822
2.55845
2.65112
2.74596
2.84273
2.94119
3.0411
3.14219
3.24418
3.34685
3.45003
3.55352
3.65711
3.7606
3.86376
3.96637
4.06826
4.16924
4.26921
4.36805
4.4657
4.562
4.65654
4.74911
4.83967
4.92799
5.0138
5.0969
5.17743
5.25417
5.34336
5.44511
5.54504
5.64299
5.73881
5.8323
5.92327
6.01156
6.09702
6.17949
6.25883
6.33499
6.40807
6.47832
6.54533
6.60923
6.6702
6.72836
6.78375
6.83639
6.88638
6.93387
6.97903
7.02207
7.0632
7.10265
7.14063
7.17734
7.21294
7.24759
7.28142
7.31449
7.34686
7.37862
7.40986
7.44063
7.47101
7.50108
7.53089
7.56047
7.58987
7.61913
7.64828
7.67737
7.70641
7.73551
7.76466
7.7939
7.82317
7.85245
7.88167
7.91084
7.93995
7.969
7.99792
8.02668
8.05519
8.0834
8.11125
8.13865
8.16554
8.19178
8.21716
8.24142
8.26425
8.28525
8.30403
8.32015
8.3332
8.34275
8.34841
8.34973
8.34619
8.33714
8.32177
8.29923
8.26852
8.22869
8.1787
8.11792
8.04622
7.96301
7.86795
7.76061
7.63852
7.49986
7.34645
7.17638
6.99009
0.296892
0.237285
0.23053
0.253312
0.295138
0.350139
0.412996
0.478185
0.54099
0.598285
0.648568
0.691564
0.727723
0.757853
0.782874
0.803724
0.821338
0.836595
0.850101
0.862386
0.873891
0.88495
0.895767
0.906474
0.917203
0.928098
0.939322
0.951044
0.963428
0.976579
0.99065
1.00581
1.02225
1.04015
1.05963
1.08077
1.10354
1.12794
1.15396
1.18162
1.21103
1.24232
1.27567
1.3113
1.34948
1.39051
1.43458
1.48161
1.53153
1.58426
1.63967
1.69771
1.75837
1.82177
1.88817
1.95784
2.03093
2.10757
2.18785
2.27176
2.35926
2.45005
2.5439
2.64057
2.73978
2.84122
2.94456
3.04946
3.15564
3.26283
3.37083
3.4794
3.58831
3.6973
3.80615
3.91464
4.02256
4.12977
4.23613
4.34159
4.4461
4.54964
4.65228
4.75279
4.85153
4.94825
5.04271
5.13481
5.22408
5.30924
5.39068
5.4852
5.5927
5.69836
5.80179
5.90278
6.00109
6.09652
6.1889
6.27811
6.36403
6.44655
6.5256
6.60121
6.67336
6.74204
6.80735
6.86943
6.92842
6.98436
7.03735
7.0875
7.13498
7.18
7.22277
7.26352
7.30244
7.33972
7.37555
7.41009
7.44345
7.47574
7.50707
7.53752
7.56719
7.59617
7.62452
7.65234
7.67969
7.70661
7.73311
7.75921
7.78493
7.81026
7.83523
7.85987
7.88422
7.90835
7.93236
7.95632
7.98022
8.00402
8.02773
8.0513
8.0746
8.09749
8.11987
8.14169
8.1629
8.18346
8.20332
8.22234
8.24033
8.25704
8.27219
8.28541
8.29631
8.30446
8.30938
8.31063
8.30777
8.3004
8.28806
8.27028
8.24634
8.21552
8.17685
8.12918
8.07173
8.00363
7.92429
7.83345
7.7291
7.60905
7.47358
7.32201
7.15334
6.9681
6.76475
6.54502
0.302334
0.238708
0.229439
0.250144
0.289404
0.340989
0.399776
0.460626
0.51917
0.572538
0.619364
0.659411
0.693116
0.721228
0.744618
0.764094
0.780426
0.794431
0.80673
0.817783
0.82808
0.838093
0.848008
0.857899
0.867793
0.877786
0.888028
0.898747
0.910179
0.922509
0.935927
0.950511
0.966407
0.983778
1.00273
1.02333
1.04558
1.06946
1.09495
1.12217
1.15132
1.18257
1.21612
1.2522
1.29106
1.33295
1.37794
1.42597
1.4769
1.53063
1.58706
1.64617
1.70797
1.77261
1.84035
1.91139
1.986
2.06446
2.14696
2.23364
2.32472
2.41955
2.51767
2.61903
2.72331
2.83009
2.93889
3.04904
3.16042
3.27271
3.38577
3.49933
3.61304
3.72656
3.83968
3.9522
4.06398
4.17491
4.28493
4.39412
4.50234
4.60936
4.71526
4.81968
4.92235
5.02304
5.12172
5.21718
5.30896
5.39708
5.48166
5.57982
5.69124
5.80061
5.90729
6.0112
6.11205
6.20975
6.30421
6.39532
6.48298
6.56716
6.64783
6.72498
6.79846
6.86841
6.93495
6.99812
7.05798
7.11464
7.16822
7.21886
7.26674
7.31207
7.35503
7.39586
7.43472
7.47176
7.50715
7.541
7.57343
7.60453
7.63443
7.66322
7.69101
7.71791
7.74401
7.7694
7.79414
7.81826
7.84172
7.86452
7.88664
7.90804
7.92872
7.94869
7.96796
7.98664
8.00483
8.02269
8.04035
8.05772
8.07465
8.09122
8.10741
8.12316
8.13838
8.15289
8.16667
8.17959
8.19151
8.20222
8.21143
8.21881
8.22408
8.22687
8.2268
8.22338
8.21614
8.20458
8.18821
8.16654
8.1391
8.10538
8.06471
8.01645
7.9595
7.89258
7.81492
7.72507
7.62078
7.50227
7.36872
7.21904
7.05237
6.86808
6.66579
6.44655
6.21021
5.95976
0.305195
0.239592
0.228375
0.247147
0.28369
0.331339
0.385143
0.440431
0.4933
0.541224
0.583075
0.618737
0.648662
0.673567
0.694246
0.711448
0.725792
0.737935
0.748521
0.757992
0.766814
0.775401
0.783974
0.79261
0.801358
0.810303
0.81953
0.829246
0.839907
0.851762
0.864873
0.879303
0.895146
0.912516
0.931525
0.95228
0.974822
0.999199
1.02547
1.05382
1.08441
1.1174
1.153
1.19139
1.23279
1.27742
1.32539
1.37682
1.4307
1.48714
1.54636
1.60849
1.67343
1.74129
1.81226
1.88634
1.96389
2.04547
2.13123
2.22123
2.31542
2.41348
2.51513
2.62021
2.72823
2.83878
2.95147
3.06595
3.18179
3.29856
3.41596
3.53357
3.65074
3.76706
3.8825
3.99693
4.11024
4.22241
4.33339
4.44328
4.55228
4.66032
4.767
4.87211
4.97549
5.07617
5.1733
5.26693
5.35713
5.44414
5.52817
5.60932
5.68755
5.76264
5.83427
5.90222
5.99085
6.08781
6.18176
6.27259
6.36022
6.44463
6.5258
6.60362
6.67762
6.74825
6.81567
6.87989
6.941
6.99909
7.05428
7.10669
7.15643
7.20365
7.24851
7.29121
7.33188
7.37063
7.40754
7.44274
7.47629
7.50831
7.5389
7.56815
7.59622
7.62321
7.64924
7.67439
7.69874
7.7223
7.745
7.76682
7.78771
7.80762
7.8265
7.84432
7.86108
7.87677
7.89147
7.90525
7.91817
7.93027
7.94159
7.95224
7.96226
7.97164
7.98042
7.98853
7.99569
8.00172
8.00645
8.00964
8.01101
8.01023
8.00692
8.00069
7.99107
7.97758
7.95968
7.93684
7.90847
7.87407
7.8331
7.78503
7.72933
7.66536
7.59202
7.50685
7.40816
7.29548
7.16789
7.02438
6.86393
6.68575
6.48958
6.27574
6.04502
5.79931
5.53948
5.26909
0.305383
0.239708
0.227457
0.244636
0.278358
0.32154
0.369403
0.417779
0.463341
0.504008
0.539005
0.56869
0.593254
0.613266
0.629477
0.642878
0.654227
0.663888
0.672011
0.678643
0.68481
0.691513
0.698923
0.707004
0.715725
0.725101
0.735177
0.746163
0.758402
0.771859
0.786553
0.802652
0.820329
0.839729
0.860957
0.884197
0.909686
0.937532
0.967965
1.00101
1.03644
1.07458
1.11564
1.15981
1.20728
1.25805
1.31208
1.36911
1.42839
1.48971
1.55366
1.62035
1.68996
1.76276
1.83901
1.91897
2.00288
2.09086
2.18292
2.27895
2.3787
2.48183
2.58796
2.69668
2.8076
2.92032
3.03449
3.14977
3.26583
3.38241
3.499
3.61516
3.73028
3.84424
3.95708
4.06869
4.17891
4.28781
4.39546
4.50215
4.60779
4.71257
4.81597
4.91715
5.01539
5.11069
5.20294
5.30624
5.42319
5.5387
5.65278
5.76542
5.87647
5.98559
6.09243
6.19665
6.29807
6.39647
6.49164
6.58349
6.67213
6.75764
6.84004
6.91935
6.99548
7.06829
7.13779
7.2036
7.26582
7.32472
7.38051
7.43331
7.48327
7.5305
7.57514
7.61728
7.65704
7.69455
7.72988
7.76312
7.7943
7.82352
7.85089
7.87656
7.90064
7.92329
7.94461
7.9647
7.98363
8.00135
8.01784
8.03313
8.04717
8.05994
8.0714
8.08147
8.09011
8.09728
8.10295
8.10704
8.10945
8.11015
8.10915
8.1066