/*--------------------------------*- C++ -*----------------------------------*\
| =========                 |                                                 |
| \\      /  F ield         | OpenFOAM: The Open Source CFD Toolbox           |
|  \\    /   O peration     | Version:  2112                                  |
|   \\  /    A nd           | Website:  www.openfoam.com                      |
|    \\/     M anipulation  |                                                 |
\*---------------------------------------------------------------------------*/
FoamFile
{
    version     2.0;
    format      ascii;
    arch        "LSB;label=32;scalar=64";
    class       volScalarField;
    location    "0.26";
    object      omegaU;
}
// * * * * * * * * * * * * * * * * * * * * * * * * * * * * * * * * * * * * * //

dimensions      [0 0 -1 0 0 0 0];

internalField   nonuniform List<scalar> 
12225
(
52652.3
73263.5
79361.1
79854.4
78357.2
76253.6
74064.1
71974.2
70036.3
68246.7
66590.4
65058.2
63646.3
62355.6
61174.1
60141.9
58928.2
57704.7
6203.95
12943.3
18378.3
22408.3
25336.8
27502.3
29170.4
30510.5
31603.9
32477.6
33116.1
33484.2
33543.4
33270
32673.7
31825.5
30730.9
29468.3
660.075
1897.36
3339.64
4867.77
6376.48
7785.18
9064.45
10269.5
11438
12588
13713.2
14787.9
15775.3
16639.8
17354.3
17919.1
18342.5
18611.2
176.919
404.975
682.211
1001.09
1353.23
1745.76
2209.62
2708.25
3227.8
3770.45
4339.5
4934.38
5534.1
6135
6744.95
7364.97
7991.8
8622.9
84.014
153.064
231.383
319.179
415.514
522.807
647.947
784.655
929.688
1082.86
1244.72
1415.93
1617.71
1854.87
2109.26
2378.48
2663.62
2963.34
55.4063
85.5236
118.036
151.889
188.236
226.908
268.75
313.388
360.425
409.73
461.292
515.214
576.686
646.636
721
798.83
879.933
962.857
45.2493
59.1828
75.9508
93.5347
111.022
128.761
147.39
166.681
186.581
207.08
228.148
249.776
272.43
296.401
321.502
347.572
374.429
401.338
41.6606
47.6625
56.2786
66.4138
76.7522
87.0837
97.1627
107.134
117.281
127.681
138.26
148.984
159.892
171.029
182.393
194.131
206.201
218.159
40.3759
42.8845
46.8899
52.2072
58.376
64.9502
71.4198
77.8043
84.0813
90.3134
96.5706
102.868
109.211
115.604
122.037
128.436
134.77
140.871
39.903
40.9417
42.7105
45.2262
48.4109
52.1448
56.2387
60.5241
64.7533
68.8584
72.8891
76.8728
80.8217
84.7398
88.6175
92.3437
95.8776
99.1704
39.7241
40.1497
40.9089
42.0335
43.5278
45.3859
47.5776
50.0307
52.6158
55.218
57.7788
60.2782
62.7119
65.0779
67.3698
69.5632
71.637
73.5572
39.6599
39.8502
40.2006
40.733
41.461
42.3936
43.5322
44.8589
46.3265
47.8729
49.4435
51.0022
52.5288
54.0112
55.4405
56.8087
58.1079
59.3126
39.6302
39.7126
39.867
40.108
40.4455
40.8876
41.4392
42.0984
42.8515
43.6757
44.5445
45.4338
46.3249
47.2038
48.0602
48.8873
49.6796
50.421
39.6148
39.6436
39.7034
39.7996
39.938
40.1228
40.357
40.6414
40.9729
41.3455
41.7505
42.1787
42.6207
43.0685
43.5154
43.9562
44.3865
44.7964
39.6073
39.6112
39.6296
39.6629
39.7137
39.7834
39.873
39.9829
40.1125
40.2605
40.4248
40.6026
40.791
40.9869
41.1877
41.3908
41.5938
41.7913
39.6038
39.597
39.5982
39.607
39.6238
39.6489
39.6824
39.7241
39.7738
39.8311
39.8952
39.9655
40.0411
40.1211
40.2044
40.2901
40.377
40.4629
39.602
39.5909
39.5853
39.5851
39.5898
39.5994
39.6136
39.6321
39.6545
39.6805
39.7098
39.7419
39.7764
39.8128
39.8508
39.8899
39.9294
39.9684
39.6013
39.5885
39.5806
39.5776
39.5788
39.5838
39.5924
39.6041
39.6187
39.6358
39.6551
39.6762
39.6989
39.7228
39.7477
39.7732
39.7991
39.825
39.6014
39.5892
39.5826
39.5817
39.5857
39.5942
39.6069
39.6236
39.644
39.6679
39.6952
39.7256
39.7591
39.7956
39.8348
39.8766
39.9208
39.9668
39.6036
39.5985
39.6053
39.6243
39.6535
39.6934
39.7446
39.8075
39.8829
39.9712
40.073
40.1884
40.3171
40.4585
40.6112
40.7742
40.9457
41.1233
39.6116
39.6368
39.6986
39.7933
39.9187
40.0788
40.2764
40.5142
40.7946
41.119
41.4872
41.8941
42.3324
42.7946
43.2737
43.7641
44.2607
44.7559
39.6446
39.7923
40.056
40.4217
40.8939
41.4759
42.1726
42.9804
43.8913
44.8976
45.984
47.0994
48.213
49.3183
50.4109
51.488
52.5464
53.5757
39.7752
40.3608
41.3057
42.5752
44.1278
45.9365
47.9854
50.1693
52.4139
54.6937
56.9775
59.2141
61.3963
63.536
65.6385
67.7065
69.7377
71.7128
40.2836
42.353
45.4475
49.2029
53.3896
57.8868
62.5904
67.3209
71.9917
76.573
81.0435
85.4761
89.9091
94.3372
98.7583
103.17
107.565
111.906
42.3707
49.1668
57.7139
67.2064
77.2922
87.7242
98.2653
108.948
119.762
130.614
141.446
152.258
163.155
174.232
185.504
196.956
208.56
220.24
50.9957
71.017
94.1662
119.985
147.86
177.276
207.803
239.112
270.944
303.094
335.435
368.111
402.902
440.421
479.733
520.277
561.831
604.219
85.9083
152.212
239.01
339.201
449.143
566.605
689.406
815.517
943.238
1071.35
1199.26
1328.01
1469.91
1629.09
1798.33
1973.84
2154.35
2338.89
279.742
646.754
1163.32
1756.13
2383.31
3019.1
3644.3
4246.49
4819.51
5362.65
5879.44
6375.14
6848.02
7304.6
7756.84
8209.84
8664.21
9117.07
2920.37
6481.52
9689.13
12378.8
14555.8
16291.9
17680.8
18808.9
19746.1
20545
21243.9
21868.9
22435.4
22951.1
23419.3
23838.8
24206.2
24513.5
34812.8
51880.6
58923.5
61247.7
61498.3
60865.2
59870.7
58751.5
57620.9
56534
55514.5
54568.7
53693.5
52881.2
52121.7
51406.4
50725.3
50075.3
252.768
255.064
260.092
267.831
278.362
291.725
307.889
326.756
348.178
371.976
397.976
426.286
456.895
489.282
522.99
557.828
593.73
630.667
668.624
707.597
747.594
788.624
830.703
873.843
918.057
963.353
1009.74
1057.23
1105.81
1155.5
1206.29
1258.17
1311.13
1365.17
1420.27
1476.42
1533.59
1591.75
1650.89
1710.96
1771.93
1833.76
1896.4
1959.81
2023.94
2088.72
2154.1
2220.01
2286.39
2353.16
2420.26
2487.61
2555.13
2622.73
2690.35
2757.9
2825.29
2892.44
2959.27
3025.69
3091.63
3157
3221.72
3285.71
3348.88
3411.16
3472.48
3532.74
3591.89
3649.83
3706.5
3761.82
3815.72
3868.12
3918.96
3968.17
4015.68
4061.43
4105.35
4147.39
4187.48
4225.56
4261.57
4295.46
4327.16
4356.61
4383.74
4408.49
4430.78
4450.53
4467.68
4482.12
4493.77
4502.53
4508.29
4510.9
4510.22
4506.06
4498.18
4486.63
4471.93
4453.99
4432.76
4408.15
4380.12
4348.62
4313.61
4275.05
4232.91
4187.15
4137.75
4084.69
4027.96
3967.55
3903.45
3835.68
3764.25
3689.18
3610.51
3528.3
3442.59
3353.48
3261.06
3165.45
3066.78
2965.23
2860.98
2754.26
2645.32
2534.47
2422.04
2308.39
2193.96
2079.19
1964.61
1850.74
1738.17
1627.51
1519.38
1414.42
1313.28
1216.55
1124.84
1038.66
958.513
884.801
817.871
758.006
705.438
660.337
622.902
593.796
573.065
558.657
549.595
546.031
548.106
555.531
568.287
587.81
615.666
651.142
694.134
744.668
802.739
868.315
941.325
1021.64
1109.06
1203.32
1304.08
1410.92
1523.36
1640.83
1762.68
1888.09
2016.35
2145.69
2280.71
2391.42
256.233
257.487
261.299
267.597
276.439
287.82
301.652
317.783
336.006
356.085
377.777
400.852
425.108
450.296
476.176
502.576
529.393
556.573
584.089
611.932
640.099
668.595
697.422
726.582
756.076
785.899
816.047
846.512
877.283
908.347
939.689
971.29
1003.13
1035.19
1067.44
1099.86
1132.43
1165.1
1197.85
1230.65
1263.47
1296.26
1329
1361.65
1394.16
1426.5
1458.64
1490.53
1522.14
1553.43
1584.36
1614.9
1645.02
1674.68
1703.84
1732.49
1760.59
1788.12
1815.04
1841.34
1866.99
1891.98
1916.29
1939.89
1962.78
1984.93
2006.33
2026.98
2046.85
2065.94
2084.23
2101.73
2118.41
2134.28
2149.33
2163.56
2176.95
2189.52
2201.24
2212.14
2222.18
2231.39
2239.74
2247.23
2253.86
2259.62
2264.49
2268.47
2271.54
2273.69
2274.9
2275.16
2274.46
2272.77
2270.08
2266.38
2261.66
2255.96
2249.44
2242.5
2234.65
2225.82
2215.99
2205.15
2193.28
2180.35
2166.37
2151.31
2135.16
2117.9
2099.51
2079.97
2059.27
2037.38
2014.28
1989.96
1964.38
1937.53
1909.4
1879.95
1849.18
1817.06
1783.59
1748.75
1712.55
1674.98
1636.05
1595.79
1554.23
1511.4
1467.37
1422.21
1376.03
1328.93
1281.06
1232.58
1183.69
1134.6
1085.57
1036.85
988.755
941.583
895.664
851.333
808.928
768.781
731.216
696.545
665.061
637.048
612.819
592.821
577.332
566.122
558.845
555.612
556.511
561.358
570.156
583.269
600.9
622.72
648.533
678.202
711.577
748.477
788.696
831.996
878.111
926.753
977.612
1030.37
1084.71
1140.29
1196.83
1254.05
1311.88
1370.67
1433.07
1504.47
265.134
263.909
265.583
269.839
276.674
286.019
297.715
311.541
327.232
344.501
363.058
382.631
402.974
423.866
445.122
466.602
488.216
509.912
531.664
553.462
575.304
597.194
619.132
641.12
663.155
685.232
707.344
729.481
751.629
773.775
795.901
817.991
840.023
861.978
883.832
905.564
927.149
948.562
969.779
990.775
1011.52
1032
1052.18
1072.04
1091.55
1110.7
1129.45
1147.8
1165.72
1183.19
1200.2
1216.73
1232.78
1248.33
1263.37
1277.9
1291.91
1305.4
1318.37
1330.82
1342.74
1354.14
1365.02
1375.39
1385.25
1394.61
1403.47
1411.83
1419.71
1427.12
1434.05
1440.52
1446.53
1452.1
1457.24
1461.95
1466.24
1470.13
1473.62
1476.71
1479.43
1481.76
1483.73
1485.33
1486.56
1487.43
1487.94
1488.1
1487.9
1487.35
1486.45
1485.22
1483.64
1481.74
1479.54
1477.04
1474.28
1471.29
1468.42
1465.31
1461.86
1458.04
1453.83
1449.23
1444.22
1438.81
1432.97
1426.7
1419.99
1412.82
1405.17
1397.04
1388.4
1379.24
1369.54
1359.28
1348.43
1336.97
1324.88
1312.14
1298.72
1284.59
1269.73
1254.11
1237.7
1220.49
1202.45
1183.56
1163.81
1143.17
1121.66
1099.26
1075.99
1051.88
1026.95
1001.26
974.87
947.874
920.376
892.506
864.417
836.284
808.31
780.716
753.743
727.649
702.705
679.193
657.397
637.612
620.158
605.375
593.498
584.507
578.376
575.243
575.081
577.784
583.364
591.974
603.659
618.189
635.343
654.926
676.742
700.577
726.202
753.377
781.857
811.394
841.746
872.679
903.978
935.452
966.953
998.406
1029.93
1062.12
1096.79
1137.78
281.146
274.655
272.933
274.305
278.608
285.653
295.164
306.825
320.296
335.233
351.307
368.215
385.698
403.538
421.565
439.654
457.725
475.73
493.645
511.461
529.177
546.797
564.322
581.752
599.086
616.32
633.445
650.452
667.331
684.066
700.645
717.05
733.266
749.275
765.058
780.598
795.876
810.874
825.574
839.96
854.014
867.72
881.064
894.032
906.612
918.794
930.567
941.925
952.862
963.374
973.458
983.116
992.347
1001.16
1009.55
1017.52
1025.1
1032.28
1039.07
1045.48
1051.53
1057.23
1062.58
1067.6
1072.3
1076.7
1080.8
1084.61
1088.15
1091.43
1094.45
1097.24
1099.8
1102.14
1104.27
1106.21
1107.96
1109.54
1110.94
1112.19
1113.28
1114.22
1115.02
1115.68
1116.21
1116.6
1116.87
1117.01
1117.04
1116.95
1116.76
1116.47
1116.09
1115.63
1115.11
1114.55
1113.96
1113.54
1113.12
1112.57
1111.86
1110.97
1109.9
1108.63
1107.15
1105.47
1103.58
1101.45
1099.09
1096.48
1093.62
1090.48
1087.06
1083.35
1079.32
1074.97
1070.28
1065.22
1059.79
1053.96
1047.71
1041.02
1033.88
1026.25
1018.12
1009.46
1000.26
990.478
980.106
969.122
957.508
945.251
932.34
918.771
904.546
889.674
874.178
858.089
841.454
824.335
806.811
788.979
770.96
752.893
734.939
717.277
700.107
683.647
668.126
653.786
640.895
629.666
620.29
612.816
607.43
604.173
603.016
603.893
606.827
611.926
619.186
628.42
639.425
652.021
666.032
681.273
697.554
714.684
732.471
750.732
769.294
788
806.712
825.323
843.763
862.042
880.324
899.164
919.7
944.107
306.833
290.755
283.901
281.307
282.432
286.823
294.014
303.543
314.966
327.869
341.869
356.632
371.878
387.384
402.982
418.552
434.017
449.335
464.482
479.45
494.24
508.854
523.295
537.564
551.66
565.58
579.317
592.864
606.212
619.35
632.266
644.948
657.384
669.559
681.462
693.08
704.4
715.411
726.103
736.465
746.489
756.167
765.493
774.464
783.074
791.324
799.213
806.743
813.918
820.742
827.222
833.367
839.186
844.688
849.887
854.794
859.423
863.786
867.898
871.773
875.424
878.864
882.108
885.167
888.054
890.78
893.357
895.794
898.103
900.293
902.373
904.353
906.24
908.043
909.769
911.428
913.024
914.565
916.056
917.502
918.905
920.27
921.598
922.892
924.154
925.387
926.591
927.771
928.929
930.07
931.198
932.321
933.445
934.58
935.736
936.926
938.2
939.568
940.901
942.151
943.297
944.33
945.241
946.024
946.673
947.181
947.54
947.743
947.781
947.646
947.329
946.82
946.109
945.186
944.04
942.659
941.032
939.147
936.989
934.546
931.802
928.743
925.351
921.611
917.506
913.018
908.13
902.825
897.085
890.893
884.233
877.09
869.452
861.307
852.65
843.477
833.794
823.611
812.949
801.837
790.318
778.446
766.292
753.947
741.515
729.113
716.885
704.998
693.611
682.907
673.096
664.256
656.604
650.191
645.177
641.633
639.542
638.861
639.627
641.941
645.802
651.06
657.547
665.111
673.613
682.91
692.86
703.322
714.158
725.237
736.439
747.66
758.812
769.831
780.69
791.428
802.199
813.437
825.839
840.551
342.87
312.329
298.371
290.624
287.867
289.215
293.9
301.26
310.712
321.746
333.918
346.852
360.243
373.855
387.512
401.096
414.531
427.772
440.799
453.605
466.189
478.555
490.706
502.644
514.371
525.884
537.179
548.252
559.096
569.703
580.065
590.175
600.024
609.603
618.905
627.923
636.651
645.082
653.213
661.041
668.564
675.78
682.691
689.299
695.608
701.621
707.347
712.793
717.967
722.881
727.545
731.973
736.176
740.17
743.968
747.585
751.035
754.332
757.492
760.526
763.448
766.271
769.005
771.662
774.252
776.782
779.262
781.699
784.1
786.471
788.818
791.147
793.463
795.771
798.076
800.382
802.692
805.011
807.34
809.682
812.036
814.403
816.783
819.177
821.584
824.005
826.441
828.891
831.359
833.846
836.356
838.891
841.458
844.061
846.705
849.399
852.189
854.98
857.722
860.391
862.974
865.462
867.849
870.128
872.292
874.336
876.253
878.034
879.674
881.165
882.497
883.664
884.657
885.468
886.088
886.508
886.72
886.714
886.481
886.011
885.292
884.314
883.064
881.53
879.7
877.562
875.102
872.308
869.168
865.668
861.797
857.541
852.89
847.834
842.365
836.478
830.171
823.447
816.317
808.795
800.902
792.668
784.137
775.373
766.44
757.411
748.384
739.502
730.855
722.554
714.814
707.642
701.123
695.341
690.445
686.521
683.567
681.564
680.555
680.639
681.833
684.027
687.088
690.895
695.343
700.328
705.749
711.507
717.507
723.658
729.881
736.104
742.269
748.342
754.312
760.224
766.208
772.577
779.745
788.322
390.199
339.439
316.119
301.947
294.602
292.523
294.518
299.648
307.157
316.42
326.916
338.221
350
361.998
374.031
385.974
397.749
409.312
420.642
431.73
442.578
453.189
463.568
473.719
483.643
493.342
502.814
512.056
521.066
529.838
538.37
546.657
554.694
562.478
570.006
577.276
584.287
591.038
597.53
603.766
609.749
615.482
620.971
626.224
631.248
636.053
640.647
645.044
649.254
653.29
657.167
660.897
664.495
667.976
671.353
674.641
677.854
681.004
684.103
687.164
690.197
693.212
696.216
699.218
702.225
705.242
708.274
711.325
714.4
717.5
720.63
723.791
726.986
730.218
733.489
736.801
740.155
743.553
746.993
750.477
754.002
757.567
761.169
764.808
768.481
772.187
775.926
779.697
783.5
787.335
791.204
795.109
799.051
803.033
807.056
811.137
815.233
819.296
823.297
827.221
831.058
834.799
838.439
841.971
845.388
848.684
851.852
854.887
857.78
860.525
863.113
865.538
867.792
869.867
871.758
873.456
874.955
876.249
877.329
878.188
878.819
879.211
879.358
879.248
878.873
878.225
877.293
876.07
874.547
872.713
870.561
868.081
865.265
862.106
858.595
854.729
850.503
845.916
840.978
835.694
830.076
824.135
817.896
811.419
804.739
797.888
790.928
784.019
777.199
770.541
764.144
758.017
752.19
746.742
741.801
737.456
733.723
730.6
728.135
726.423
725.495
725.28
725.679
726.598
727.958
729.687
731.717
733.98
736.415
738.961
741.566
744.184
746.777
749.325
751.83
754.331
756.928
759.842
763.309
767.679
449.645
372.015
336.812
314.91
302.299
296.447
295.587
298.432
304.011
311.563
320.484
330.295
340.627
351.203
361.828
372.369
382.744
392.907
402.835
412.52
421.964
431.17
440.144
448.892
457.418
465.723
473.81
481.679
489.328
496.759
503.969
510.959
517.727
524.275
530.603
536.713
542.608
548.293
553.77
559.047
564.131
569.028
573.748
578.301
582.696
586.945
591.061
595.054
598.94
602.731
606.44
610.083
613.672
617.221
620.743
624.251
627.755
631.269
634.8
638.358
641.951
645.586
649.268
653.001
656.789
660.636
664.543
668.511
672.541
676.633
680.789
685.007
689.29
693.636
698.048
702.526
707.069
711.679
716.353
721.089
725.883
730.734
735.636
740.586
745.582
750.621
755.701
760.82
765.976
771.17
776.399
781.665
786.966
792.304
797.675
803.049
808.389
813.67
818.872
823.984
828.996
833.9
838.689
843.358
847.9
852.308
856.576
860.698
864.667
868.474
872.114
875.579
878.86
881.953
884.85
887.545
890.035
892.313
894.375
896.214
897.824
899.2
900.333
901.216
901.842
902.205
902.3
902.119
901.657
900.909
899.867
898.525
896.879
894.922
892.649
890.055
887.136
883.886
880.322
876.444
872.256
867.757
862.946
857.914
852.665
847.222
841.633
835.979
830.305
824.655
819.07
813.548
808.096
802.772
797.682
792.908
788.479
784.41
780.748
777.581
774.949
772.815
771.108
769.759
768.709
767.908
767.311
766.876
766.565
766.342
766.173
766.03
765.892
765.747
765.603
765.495
765.495
765.756
766.405
767.675
521.708
409.811
360.026
329.116
310.63
300.718
296.876
297.397
301.058
306.947
314.367
322.782
331.786
341.081
350.456
359.772
368.941
377.913
386.663
395.184
403.476
411.544
419.394
427.033
434.466
441.698
448.733
455.574
462.222
468.68
474.949
481.034
486.935
492.658
498.205
503.583
508.797
513.854
518.762
523.529
528.164
532.677
537.079
541.38
545.593
549.73
553.802
557.824
561.807
565.767
569.714
573.663
577.626
581.614
585.64
589.713
593.844
598.04
602.309
606.656
611.088
615.606
620.214
624.913
629.705
634.589
639.564
644.63
649.785
655.026
660.352
665.761
671.253
676.827
682.483
688.221
694.042
699.944
705.926
711.986
718.117
724.315
730.575
736.893
743.263
749.682
756.147
762.654
769.2
775.784
782.402
789.053
795.734
802.444
809.124
815.756
822.32
828.797
835.171
841.433
847.571
853.58
859.45
865.177
870.754
876.176
881.435
886.526
891.442
896.175
900.72
905.067
909.211
913.142
916.857
920.351
923.62
926.661
929.47
932.043
934.375
936.463
938.3
939.88
941.195
942.243
943.02
943.523
943.748
943.692
943.35
942.717
941.792
940.57
939.049
937.224
935.089
932.629
929.882
926.839
923.502
919.87
915.953
911.788
907.389
902.778
897.985
893.057
888.028
882.923
877.757
872.517
867.199
861.843
856.53
851.329
846.279
841.403
836.749
832.394
828.382
824.702
821.307
818.148
815.182
812.375
809.698
807.128
804.641
802.219
799.844
797.502
795.182
792.88
790.607
788.393
786.292
784.406
782.797
781.649
606.492
452.406
385.275
344.17
319.295
305.106
298.204
296.386
298.15
302.42
308.401
315.498
323.269
331.394
339.647
347.879
355.996
363.946
371.701
379.251
386.597
393.744
400.697
407.465
414.055
420.473
426.724
432.813
438.745
444.524
450.154
455.641
460.989
466.206
471.299
476.273
481.139
485.906
490.582
495.179
499.706
504.176
508.599
512.988
517.353
521.707
526.063
530.433
534.83
539.267
543.754
548.305
552.929
557.637
562.438
567.341
572.352
577.478
582.722
588.088
593.576
599.187
604.92
610.773
616.744
622.831
629.031
635.34
641.754
648.268
654.88
661.587
668.386
675.276
682.256
689.328
696.492
703.748
711.098
718.537
726.06
733.662
741.335
749.072
756.87
764.721
772.622
780.567
788.552
796.572
804.623
812.703
820.806
828.841
836.797
844.663
852.424
860.064
867.57
874.928
882.13
889.169
896.037
902.728
909.237
915.558
921.686
927.616
933.342
938.856
944.151
949.222
954.06
958.655
963.003
967.102
970.95
974.544
977.884
980.967
983.79
986.35
988.645
990.665
992.405
993.863
995.039
995.931
996.538
996.859
996.89
996.628
996.073
995.224
994.081
992.64
990.899
988.854
986.518
983.892
980.977
977.777
974.298
970.559
966.573
962.356
957.93
953.324
948.559
943.651
938.6
933.391
928.016
922.498
916.895
911.265
905.646
900.067
894.575
889.232
884.087
879.144
874.376
869.751
865.238
860.815
856.465
852.174
847.932
843.732
839.566
835.431
831.322
827.244
823.21
819.245
815.389
811.714
808.238
805.134
703.698
499.234
412.044
359.692
328.028
309.426
299.432
295.289
295.19
297.889
302.491
308.342
314.964
322.015
329.255
336.526
343.729
350.804
357.723
364.473
371.054
377.468
383.724
389.83
395.792
401.619
407.317
412.894
418.354
423.704
428.951
434.102
439.165
444.147
449.059
453.909
458.71
463.471
468.205
472.924
477.639
482.361
487.103
491.875
496.689
501.556
506.487
511.496
516.593
521.79
527.097
532.525
538.083
543.777
549.617
555.606
561.75
568.052
574.512
581.129
587.9
594.82
601.883
609.084
616.418
623.879
631.462
639.161
646.97
654.882
662.893
670.998
679.195
687.48
695.854
704.318
712.874
721.527
730.282
739.137
748.09
757.134
766.262
775.465
784.736
794.066
803.451
812.882
822.352
831.854
841.383
850.934
860.367
869.667
878.839
887.875
896.764
905.489
914.034
922.386
930.537
938.479
946.206
953.715
961
968.056
974.882
981.471
987.82
993.921
999.77
1005.36
1010.69
1015.73
1020.5
1024.98
1029.17
1033.09
1036.72
1040.07
1043.13
1045.92
1048.42
1050.62
1052.52
1054.12
1055.42
1056.42
1057.13
1057.54
1057.65
1057.47
1056.99
1056.21
1055.13
1053.76
1052.09
1050.12
1047.86
1045.31
1042.48
1039.36
1035.96
1032.29
1028.37
1024.21
1019.81
1015.21
1010.41
1005.42
1000.25
994.863
989.267
983.468
977.507
971.426
965.263
959.046
952.817
946.63
940.53
934.53
928.621
922.783
916.997
911.25
905.531
899.835
894.159
888.501
882.863
877.245
871.652
866.092
860.578
855.137
849.799
844.612
839.572
834.848
812.72
549.64
439.817
375.336
336.607
313.531
300.463
294.038
292.131
293.318
296.606
301.285
306.842
312.914
319.249
325.679
332.098
338.442
344.678
350.792
356.78
362.646
368.396
374.039
379.582
385.034
390.404
395.699
400.926
406.092
411.206
416.277
421.313
426.325
431.326
436.328
441.344
446.389
451.476
456.619
461.831
467.125
472.51
477.994
483.588
489.299
495.138
501.117
507.244
513.53
519.985
526.615
533.428
540.43
547.623
555.011
562.594
570.373
578.344
586.502
594.835
603.331
611.978
620.762
629.675
638.708
647.854
657.104
666.45
675.885
685.403
695.001
704.674
714.418
724.231
734.114
744.073
754.121
764.27
774.529
784.901
795.387
805.978
816.662
827.426
838.258
849.151
860.094
871.079
882.087
893.115
903.939
914.561
924.995
935.242
945.298
955.153
964.795
974.199
983.347
992.237
1000.86
1009.22
1017.31
1025.13
1032.67
1039.94
1046.93
1053.63
1060.05
1066.18
1072.02
1077.57
1082.79
1087.68
1092.26
1096.53
1100.48
1104.12
1107.45
1110.48
1113.2
1115.61
1117.7
1119.48
1120.95
1122.1
1122.94
1123.47
1123.7
1123.61
1123.23
1122.54
1121.55
1120.26
1118.67
1116.78
1114.59
1112.12
1109.35
1106.29
1102.96
1099.35
1095.47
1091.32
1086.93
1082.3
1077.44
1072.36
1067.07
1061.57
1055.84
1049.87
1043.68
1037.28
1030.71
1024
1017.17
1010.26
1003.32
996.376
989.462
982.573
975.703
968.841
961.982
955.121
948.257
941.39
934.522
927.659
920.805
913.969
907.162
900.401
893.709
887.112
880.646
874.287
868.211
932.859
602.941
468.102
390.793
344.846
317.315
301.24
292.613
288.977
288.732
290.79
294.385
298.975
304.178
309.729
315.451
321.231
327.002
332.724
338.382
343.971
349.492
354.953
360.359
365.72
371.046
376.346
381.631
386.907
392.182
397.464
402.761
408.084
413.447
418.865
424.354
429.933
435.618
441.43
447.386
453.504
459.798
466.273
472.931
479.77
486.794
494.01
501.426
509.048
516.886
524.947
533.235
541.754
550.505
559.49
568.704
578.145
587.809
597.689
607.776
618.047
628.472
639.024
649.684
660.435
671.264
682.161
693.117
704.124
715.177
726.272
737.408
748.583
759.786
771.011
782.257
793.537
804.872
816.289
827.822
839.494
851.332
863.321
875.435
887.651
899.95
912.317
924.745
937.232
949.653
961.754
973.571
985.12
996.409
1007.44
1018.21
1028.72
1038.97
1048.9
1058.5
1067.77
1076.72
1085.35
1093.65
1101.63
1109.29
1116.62
1123.63
1130.33
1136.69
1142.73
1148.43
1153.81
1158.83
1163.51
1167.84
1171.83
1175.48
1178.8
1181.79
1184.45
1186.79
1188.8
1190.49
1191.84
1192.87
1193.58
1193.96
1194.03
1193.78
1193.22
1192.35
1191.17
1189.7
1187.92
1185.84
1183.47
1180.8
1177.84
1174.59
1171.07
1167.26
1163.18
1158.83
1154.23
1149.37
1144.27
1138.94
1133.38
1127.61
1121.61
1115.38
1108.91
1102.21
1095.29
1088.17
1080.88
1073.43
1065.85
1058.19
1050.48
1042.74
1034.98
1027.19
1019.39
1011.57
1003.73
995.875
987.998
980.108
972.21
964.313
956.425
948.563
940.745
932.994
925.33
917.781
910.313
903.103
1063.65
658.499
496.452
405.796
352.599
320.715
301.761
291.057
285.813
284.255
285.203
287.843
291.604
296.086
301.016
306.207
311.54
316.943
322.375
327.816
333.262
338.716
344.182
349.668
355.185
360.743
366.353
372.031
377.785
383.621
389.537
395.535
401.624
407.823
414.154
420.638
427.302
434.169
441.268
448.631
456.29
464.276
472.598
481.21
490.084
499.207
508.576
518.194
528.063
538.189
548.577
559.227
570.14
581.311
592.733
604.395
616.286
628.394
640.714
653.247
665.957
678.759
691.599
704.451
717.293
730.104
742.869
755.581
768.249
780.87
793.448
805.994
818.529
831.007
843.413
855.748
868.03
880.296
892.598
905.026
917.64
930.565
943.749
957.112
970.61
984.214
997.899
1011.65
1025.12
1038.18
1050.85
1063.16
1075.11
1086.72
1098
1108.93
1119.51
1129.74
1139.61
1149.09
1158.2
1166.92
1175.27
1183.25
1190.86
1198.11
1205
1211.53
1217.71
1223.54
1229.01
1234.12
1238.87
1243.25
1247.27
1250.93
1254.23
1257.18
1259.78
1262.05
1263.98
1265.57
1266.83
1267.76
1268.35
1268.62
1268.56
1268.18
1267.47
1266.45
1265.13
1263.49
1261.56
1259.33
1256.8
1253.98
1250.87
1247.47
1243.79
1239.83
1235.6
1231.09
1226.33
1221.3
1216.02
1210.5
1204.75
1198.76
1192.56
1186.13
1179.5
1172.64
1165.55
1158.24
1150.71
1142.97
1135.03
1126.93
1118.67
1110.3
1101.84
1093.31
1084.74
1076.12
1067.47
1058.8
1050.09
1041.36
1032.61
1023.83
1015.05
1006.25
997.464
988.703
979.986
971.335
962.767
954.305
945.906
937.746
1205.37
715.848
524.494
420.135
359.79
323.756
302.134
289.557
282.9
280.224
280.264
282.16
285.316
289.321
293.891
298.835
304.028
309.393
314.888
320.496
326.22
332.068
338.048
344.16
350.412
356.828
363.434
370.248
377.287
384.56
392.026
399.633
407.383
415.31
423.45
431.841
440.517
449.514
458.874
468.65
478.925
489.823
501.488
513.576
525.978
538.644
551.561
564.717
578.099
591.715
605.568
619.657
633.974
648.507
663.239
678.144
693.196
708.364
723.621
738.943
754.305
769.609
784.758
799.763
814.614
829.295
843.769
857.997
872.042
885.916
899.612
913.13
926.458
939.555
952.412
965.039
977.464
989.759
1002.05
1014.53
1027.38
1040.95
1054.94
1069.14
1083.49
1097.97
1112.18
1125.87
1139.1
1151.87
1164.18
1176.05
1187.49
1198.51
1209.13
1219.34
1229.14
1238.53
1247.5
1256.05
1264.18
1271.91
1279.23
1286.16
1292.69
1298.85
1304.63
1310.05
1315.1
1319.79
1324.11
1328.07
1331.65
1334.88
1337.73
1340.23
1342.37
1344.17
1345.62
1346.74
1347.54
1348
1348.14
1347.95
1347.45
1346.62
1345.47
1344
1342.23
1340.16
1337.79
1335.13
1332.18
1328.95
1325.44
1321.64
1317.57
1313.23
1308.61
1303.73
1298.6
1293.21
1287.57
1281.69
1275.57
1269.22
1262.65
1255.87
1248.88
1241.7
1234.32
1226.73
1218.93
1210.91
1202.67
1194.23
1185.59
1176.78
1167.81
1158.71
1149.5
1140.2
1130.85
1121.45
1112.03
1102.57
1093.08
1083.57
1074.03
1064.47
1054.9
1045.32
1035.76
1026.23
1016.74
1007.33
997.995
988.765
979.587
970.635
1366.47
777.163
552.989
434.19
366.72
326.764
302.76
288.612
280.86
277.404
276.896
278.438
281.413
285.399
290.113
295.365
301.03
307.015
313.269
319.797
326.644
333.868
341.501
349.468
357.714
366.284
375.267
384.738
394.741
405.296
416.514
427.755
439.04
450.502
462.23
474.29
486.738
499.618
512.956
526.809
541.287
556.579
572.63
588.917
605.456
622.233
639.25
656.533
673.94
691.481
709.159
726.959
744.861
762.838
780.857
798.883
816.871
834.768
852.495
869.9
887.038
903.935
920.553
936.903
953
968.855
984.487
999.916
1015.13
1030.11
1044.82
1059.24
1073.3
1087.01
1100.36
1113.36
1126.04
1138.49
1150.86
1163.39
1176.43
1190.06
1204.12
1218.12
1231.73
1244.73
1257.19
1269.14
1280.58
1291.53
1302.01
1312.02
1321.59
1330.71
1339.41
1347.68
1355.53
1362.96
1369.96
1376.55
1382.74
1388.53
1393.94
1398.97
1403.64
1407.94
1411.89
1415.5
1418.77
1421.69
1424.26
1426.49
1428.37
1429.92
1431.12
1431.99
1432.54
1432.76
1432.68
1432.29
1431.6
1430.6
1429.31
1427.71
1425.82
1423.62
1421.14
1418.36
1415.3
1411.97
1408.37
1404.51
1400.38
1395.99
1391.34
1386.44
1381.28
1375.87
1370.21
1364.31
1358.18
1351.82
1345.24
1338.43
1331.41
1324.18
1316.74
1309.1
1301.28
1293.28
1285.08
1276.69
1268.1
1259.3
1250.3
1241.09
1231.69
1222.12
1212.39
1202.53
1192.56
1182.52
1172.44
1162.32
1152.16
1141.97
1131.76
1121.52
1111.26
1100.99
1090.71
1080.44
1070.2
1060
1049.86
1039.79
1029.81
1019.93
1010.1
1000.48
1531.64
834.405
578.105
446.373
373.081
330.269
304.8
289.935
281.924
278.536
278.371
280.51
284.313
289.34
295.347
302.219
309.876
318.117
326.742
335.817
345.592
356.463
368.981
382.284
395.575
408.889
422.478
436.559
451.309
467
483.429
499.604
516.027
532.847
550.1
567.815
586.021
604.764
623.918
643.435
663.301
683.374
703.286
723.304
743.492
763.855
784.37
805.001
825.679
846.344
866.954
887.469
907.848
928.054
948.049
967.798
987.263
1006.41
1025.2
1043.63
1061.72
1079.38
1096.49
1113.15
1129.44
1145.4
1161.09
1176.59
1191.81
1206.72
1221.31
1235.56
1249.45
1262.97
1276.12
1288.92
1301.42
1313.69
1325.92
1338.8
1351.79
1364.14
1375.61
1386.4
1396.63
1406.31
1415.49
1424.19
1432.45
1440.27
1447.66
1454.64
1461.2
1467.36
1473.13
1478.5
1483.49
1488.1
1492.35
1496.24
1499.79
1503.01
1505.92
1508.51
1510.8
1512.78
1514.45
1515.83
1516.91
1517.69
1518.16
1518.33
1518.21
1517.79
1517.09
1516.11
1514.86
1513.33
1511.53
1509.47
1507.15
1504.57
1501.72
1498.6
1495.22
1491.59
1487.7
1483.56
1479.18
1474.56
1469.71
1464.62
1459.31
1453.77
1448
1442
1435.78
1429.35
1422.7
1415.84
1408.78
1401.53
1394.08
1386.43
1378.6
1370.58
1362.38
1354
1345.45
1336.72
1327.82
1318.74
1309.48
1300.03
1290.39
1280.56
1270.56
1260.39
1250.07
1239.62
1229.07
1218.44
1207.76
1197.02
1186.24
1175.43
1164.59
1153.73
1142.85
1131.97
1121.11
1110.29
1099.5
1088.77
1078.1
1067.51
1057
1046.6
1036.25
1026.11
1699.94
887.138
600.272
457.77
380.508
336.447
311.019
296.942
290.237
288.549
290.521
295.328
302.267
310.603
320.278
331.671
345.545
360.99
376.181
391.439
407.575
425.674
446.134
466.734
486.962
507.275
527.895
548.957
570.516
592.505
614.421
637.083
660.517
684.591
709.194
734.23
759.613
785.261
811.07
836.943
862.787
888.474
913.855
938.923
963.67
988.07
1012.09
1035.68
1058.8
1081.42
1103.5
1125.01
1145.93
1166.24
1185.93
1204.99
1223.41
1241.21
1258.43
1275.25
1291.54
1307.28
1322.51
1337.24
1351.47
1365.21
1378.51
1391.38
1403.84
1415.85
1427.44
1438.65
1449.46
1459.87
1469.91
1479.77
1489.54
1499.44
1509.36
1518.81
1527.58
1535.48
1542.67
1549.28
1555.38
1561.04
1566.28
1571.14
1575.63
1579.77
1583.57
1587.03
1590.15
1592.92