/*--------------------------------*- C++ -*----------------------------------*\
| =========                 |                                                 |
| \\      /  F ield         | OpenFOAM: The Open Source CFD Toolbox           |
|  \\    /   O peration     | Version:  2112                                  |
|   \\  /    A nd           | Website:  www.openfoam.com                      |
|    \\/     M anipulation  |                                                 |
\*---------------------------------------------------------------------------*/
FoamFile
{
    version     2.0;
    format      ascii;
    arch        "LSB;label=32;scalar=64";
    class       volScalarField;
    location    "0.26";
    object      k;
}
// * * * * * * * * * * * * * * * * * * * * * * * * * * * * * * * * * * * * * //

dimensions      [0 2 -2 0 0 0 0];

internalField   nonuniform List<scalar> 
12225
(
1.36883
2.18718
2.86063
3.48988
4.14319
4.8595
5.66217
6.56808
7.59001
8.73664
10.0116
11.4129
12.9335
14.5622
16.2846
18.0927
19.9448
21.7328
0.415438
0.485602
0.569541
0.667211
0.778897
0.90565
1.04814
1.20555
1.37533
1.55385
1.73742
1.92323
2.11016
2.29938
2.49411
2.70232
2.9638
3.31623
0.377961
0.385497
0.396022
0.406114
0.41581
0.425995
0.437583
0.451288
0.46744
0.48621
0.507836
0.532736
0.561532
0.595021
0.634016
0.679725
0.733649
0.792466
0.375389
0.376307
0.377918
0.38002
0.382495
0.385189
0.387914
0.390046
0.391453
0.392164
0.392315
0.392111
0.391815
0.391727
0.392153
0.393395
0.395674
0.398664
0.375081
0.375241
0.375544
0.375979
0.376556
0.37726
0.378054
0.378845
0.379562
0.380145
0.38048
0.380551
0.380379
0.380007
0.379487
0.378882
0.378276
0.377687
0.374934
0.374913
0.374954
0.375059
0.375241
0.375489
0.375784
0.376104
0.376426
0.376728
0.376985
0.377183
0.377317
0.377381
0.377411
0.377446
0.377509
0.377611
0.374811
0.374668
0.374602
0.374609
0.374688
0.374812
0.374967
0.37514
0.375319
0.375495
0.375658
0.375807
0.375942
0.376068
0.376196
0.376341
0.376517
0.376721
0.374721
0.374487
0.374334
0.374266
0.374283
0.37435
0.374444
0.374554
0.374672
0.374791
0.374907
0.37502
0.375133
0.375252
0.375384
0.375537
0.375716
0.375917
0.374656
0.374359
0.374138
0.374
0.373947
0.373961
0.374012
0.374078
0.374153
0.374233
0.374315
0.374399
0.374489
0.374587
0.374701
0.374832
0.374985
0.375153
0.374609
0.374265
0.373992
0.373796
0.37368
0.373633
0.373632
0.37366
0.373701
0.373747
0.373798
0.373854
0.373916
0.37399
0.374077
0.37418
0.374298
0.374427
0.374574
0.374193
0.373881
0.373639
0.373468
0.373362
0.373306
0.373284
0.373284
0.373297
0.373321
0.373353
0.373391
0.373439
0.373499
0.373572
0.373657
0.373748
0.37455
0.374143
0.373801
0.373524
0.373311
0.373158
0.373054
0.372987
0.372945
0.372923
0.372914
0.372919
0.372936
0.372965
0.373002
0.373049
0.373105
0.373166
0.374531
0.374103
0.373735
0.37343
0.373183
0.372991
0.372844
0.372734
0.372651
0.372591
0.372549
0.372522
0.372511
0.372514
0.372531
0.372558
0.372589
0.372624
0.374514
0.374067
0.373676
0.373343
0.373065
0.372836
0.372649
0.372498
0.372374
0.372273
0.372192
0.372128
0.37208
0.372048
0.37203
0.372023
0.372024
0.37203
0.374501
0.374037
0.373625
0.373267
0.37296
0.372698
0.372476
0.372286
0.372123
0.371983
0.371862
0.371758
0.371669
0.371595
0.371533
0.371482
0.371439
0.371401
0.374491
0.374013
0.373584
0.373205
0.372872
0.372582
0.372328
0.372104
0.371907
0.37173
0.371572
0.371429
0.371299
0.371182
0.371075
0.370977
0.370887
0.370802
0.374484
0.373997
0.373555
0.373159
0.372806
0.372491
0.372211
0.371959
0.371731
0.371523
0.371331
0.371152
0.370986
0.37083
0.370682
0.370542
0.370409
0.370281
0.374481
0.37399
0.373539
0.373132
0.372764
0.372433
0.372132
0.371858
0.371605
0.37137
0.371149
0.370941
0.370743
0.370554
0.370372
0.370197
0.370028
0.369865
0.374484
0.373993
0.373542
0.37313
0.372756
0.372415
0.372103
0.371814
0.371545
0.371292
0.371051
0.37082
0.370599
0.370384
0.370176
0.369973
0.369777
0.369587
0.374491
0.374008
0.373563
0.373156
0.372785
0.372446
0.372133
0.371843
0.371571
0.371312
0.371065
0.370826
0.370593
0.370367
0.370145
0.369929
0.369717
0.369511
0.374502
0.374029
0.373595
0.373198
0.372836
0.372505
0.3722
0.371917
0.37165
0.371397
0.371154
0.370917
0.370686
0.37046
0.370237
0.370017
0.369802
0.369591
0.374517
0.37406
0.37364
0.373257
0.372908
0.37259
0.3723
0.372032
0.371781
0.371543
0.371315
0.371093
0.370875
0.37066
0.370447
0.370236
0.370027
0.369821
0.374539
0.374101
0.3737
0.373334
0.373004
0.372709
0.372443
0.372201
0.371978
0.37177
0.371571
0.371379
0.37119
0.371002
0.370814
0.370625
0.370436
0.370248
0.374569
0.374159
0.373782
0.373441
0.373141
0.372882
0.372657
0.372461
0.372286
0.372127
0.371979
0.371836
0.371695
0.371552
0.371407
0.371258
0.371106
0.370951
0.374616
0.374249
0.373915
0.373619
0.373368
0.373165
0.373004
0.37288
0.372786
0.372716
0.372663
0.372622
0.372585
0.372548
0.372506
0.372456
0.372396
0.372328
0.374687
0.374382
0.374138
0.373967
0.373874
0.373856
0.3739
0.373998
0.374142
0.374325
0.374536
0.374765
0.374993
0.375203
0.375381
0.375516
0.375604
0.375637
0.374812
0.374674
0.374834
0.375331
0.376075
0.376969
0.377961
0.379008
0.380079
0.381141
0.382167
0.383131
0.383911
0.384446
0.384743
0.384822
0.384711
0.384455
0.375779
0.378263
0.381976
0.38656
0.391755
0.396105
0.399789
0.40312
0.40644
0.410043
0.414151
0.418903
0.424382
0.430615
0.437603
0.445357
0.453904
0.463354
0.39033
0.418947
0.45503
0.497681
0.546131
0.599958
0.659326
0.724596
0.79593
0.873187
0.955908
1.04336
1.13461
1.22862
1.32432
1.4208
1.51744
1.61396
1.02818
1.58816
2.04555
2.4503
2.83926
3.22144
3.61386
4.02732
4.46814
4.94011
5.44566
5.98638
6.56324
7.17658
7.826
8.51047
9.22779
9.9752
0.141985
0.141502
0.141135
0.141046
0.141424
0.14233
0.143767
0.1457
0.148058
0.150713
0.153541
0.156431
0.159289
0.162052
0.164704
0.167284
0.169821
0.172428
0.175272
0.178562
0.182544
0.187512
0.193923
0.202536
0.214898
0.23469
0.267516
0.320717
0.401473
0.514167
0.658867
0.831814
1.02705
1.238
1.45851
1.68345
1.90902
2.13269
2.35306
2.56964
2.78265
2.99277
3.20098
3.40838
3.61611
3.8252
4.03656
4.25094
4.46892
4.69089
4.91713
5.14778
5.38286
5.62233
5.86607
6.1139
6.36559
6.6209
6.87952
7.14112
7.40535
7.6718
7.94006
8.20966
8.48013
8.75095
9.02161
9.29155
9.56022
9.82705
10.0915
10.353
10.611
10.865
11.1144
11.3589
11.598
11.8312
12.0582
12.2787
12.4923
12.6989
12.8983
13.0903
13.2748
13.4517
13.621
13.7828
13.9371
14.0839
14.2233
14.3554
14.4803
14.598
14.7086
14.8123
14.9091
14.9993
15.0829
15.16
15.2309
15.2957
15.3546
15.4077
15.4552
15.4972
15.5339
15.5655
15.5922
15.614
15.6311
15.6436
15.6516
15.6551
15.6541
15.6486
15.6384
15.6234
15.6034
15.578
15.5473
15.511
15.4687
15.4211
15.3681
15.3092
15.2443
15.1731
15.0953
15.0105
14.9186
14.8192
14.712
14.5968
14.4734
14.3413
14.2005
14.0508
13.8919
13.7238
13.5463
13.3596
13.1637
12.9585
12.7443
12.5209
12.2884
12.0464
11.7945
11.532
11.2582
10.9725
10.6745
10.3636
10.0395
9.70199
9.35074
8.98567
8.60687
8.21472
7.80989
7.39347
6.96698
6.53258
6.09312
5.65233
5.21516
4.78806
4.37972
4.00304
3.67228
3.4487
3.47864
3.76293
4.21827
4.71934
5.20925
5.7162
6.27358
6.81124
0.152818
0.150338
0.147526
0.14485
0.142607
0.140907
0.13979
0.139281
0.139396
0.140149
0.141536
0.14353
0.146084
0.149129
0.152606
0.156346
0.160149
0.163787
0.167015
0.169608
0.171417
0.172453
0.173035
0.174056
0.177402
0.186404
0.205937
0.241969
0.299988
0.382841
0.489623
0.616376
0.75771
0.908145
1.06286
1.21803
1.37084
1.5195
1.66304
1.8012
1.93423
2.06272
2.18747
2.30935
2.4292
2.5478
2.66575
2.78353
2.90148
3.01979
3.13853
3.25769
3.37717
3.49683
3.6165
3.73596
3.855
3.97339
4.0909
4.20728
4.32229
4.4357
4.54725
4.65671
4.76384
4.86841
4.97018
5.06893
5.16447
5.2566
5.34514
5.42994
5.51085
5.58777
5.66057
5.7292
5.79358
5.85367
5.90943
5.96086
6.00794
6.05069
6.08911
6.12322
6.15305
6.17863
6.20002
6.21727
6.23049
6.23982
6.24546
6.24762
6.24658
6.24267
6.23619
6.22749
6.21688
6.20468
6.19115
6.17655
6.16109
6.14498
6.12838
6.11145
6.09432
6.07711
6.05992
6.04284
6.02595
6.00931
5.99297
5.97697
5.96133
5.94607
5.93122
5.91677
5.90273
5.88911
5.87593
5.86319
5.85097
5.8396
5.82922
5.81909
5.80913
5.79929
5.78954
5.77986
5.77021
5.76056
5.75086
5.74104
5.73102
5.7207
5.70994
5.69859
5.68645
5.67328
5.65884
5.64281
5.62486
5.60461
5.5817
5.55578
5.52654
5.49384
5.45774
5.41858
5.37693
5.33355
5.28909
5.244
5.19837
5.15207
5.10485
5.05634
5.00616
4.95382
4.89879
4.84048
4.77824
4.7114
4.63928
4.56125
4.47676
4.38537
4.28682
4.18116
4.06941
3.95577
3.85223
3.81043
3.86669
4.00333
4.18611
4.36304
4.51311
4.65309
4.79146
4.96771
0.170636
0.164884
0.15871
0.15293
0.147897
0.143671
0.14022
0.137504
0.135516
0.134298
0.133912
0.134426
0.135896
0.138377
0.141836
0.146116
0.150933
0.155878
0.160441
0.164089
0.166379
0.167113
0.166556
0.165715
0.166718
0.173087
0.18961
0.22146
0.272547
0.343963
0.433691
0.537654
0.651101
0.76958
0.889394
1.00773
1.12264
1.23291
1.33797
1.43778
1.53262
1.62304
1.70971
1.79333
1.87457
1.95401
2.0321
2.10917
2.18544
2.26101
2.3359
2.41004
2.48332
2.55562
2.62675
2.69655
2.76484
2.83144
2.89618
2.95889
3.01941
3.07759
3.13329
3.18636
3.23668
3.28415
3.32865
3.37011
3.40845
3.44362
3.47558
3.5043
3.52979
3.55204
3.57108
3.58695
3.59969
3.60934
3.61599
3.61969
3.62053
3.6186
3.61401
3.60688
3.59734
3.58556
3.57174
3.55609
3.53889
3.5204
3.50095
3.48086
3.46046
3.44008
3.42002
3.40056
3.38194
3.36438
3.34804
3.33305
3.31952
3.30752
3.29711
3.28832
3.28117
3.27566
3.27178
3.26953
3.26887
3.26976
3.27216
3.27602
3.28128
3.28788
3.29576
3.30486
3.31515
3.32656
3.33922
3.3534
3.36921
3.38615
3.40421
3.42337
3.44368
3.46517
3.48789
3.51183
3.53698
3.56332
3.59078
3.61931
3.64883
3.67923
3.71039
3.74217
3.77442
3.80696
3.83961
3.87216
3.90442
3.9362
3.96735
3.99776
4.02742
4.05639
4.08488
4.1132
4.14171
4.17077
4.20061
4.23131
4.26278
4.29479
4.32705
4.3592
4.39084
4.42152
4.45071
4.4778
4.50214
4.52302
4.5398
4.55185
4.55857
4.55953
4.55451
4.54359
4.52748
4.50803
4.49056
4.49417
4.52867
4.58417
4.64829
4.70504
4.74701
4.78228
4.81056
4.85967
0.189141
0.179756
0.169987
0.161104
0.153512
0.14719
0.141988
0.137756
0.134394
0.13188
0.130259
0.129625
0.130115
0.131858
0.1349
0.139148
0.144317
0.149911
0.155264
0.159652
0.162454
0.163379
0.162737
0.161755
0.16289
0.169928
0.187539
0.220064
0.269917
0.336658
0.417404
0.508046
0.604394
0.702833
0.800553
0.895554
0.98655
1.07284
1.1542
1.23075
1.30285
1.37102
1.43584
1.49788
1.55768
1.61565
1.67214
1.72737
1.78146
1.83447
1.88636
1.93707
1.98648
2.03446
2.08087
2.12558
2.16845
2.20935
2.24815
2.28477
2.31909
2.35104
2.38056
2.40759
2.43211
2.45409
2.47353
2.49045
2.50489
2.5169
2.52654
2.53391
2.5391
2.54224
2.54343
2.54282
2.54055
2.53678
2.53165
2.52535
2.51804
2.50991
2.50114
2.49193
2.4825
2.47304
2.46377
2.45492
2.44668
2.43927
2.43287
2.42764
2.42372
2.42124
2.42028
2.4209
2.42313
2.42699
2.43244
2.43949
2.44807
2.45816
2.46969
2.48263
2.49693
2.51253
2.5294
2.54749
2.56676
2.58716
2.60868
2.63128
2.65495
2.67966
2.70541
2.73224
2.76013
2.78915
2.81925
2.85038
2.88254
2.91571
2.94996
2.98532
3.02182
3.05951
3.09839
3.13848
3.17976
3.22222
3.26583
3.31057
3.35639
3.40325
3.4511
3.49987
3.54952
3.59997
3.65118
3.70308
3.75564
3.8088
3.86257
3.91697
3.97202
4.02782
4.08447
4.14207
4.2007
4.26039
4.32113
4.3828
4.44527
4.5083
4.57163
4.63495
4.69791
4.76013
4.82115
4.88045
4.93739
4.99124
5.04142
5.08743
5.12868
5.16477
5.1958
5.22171
5.24234
5.25686
5.26414
5.27187
5.28584
5.30234
5.31495
5.32013
5.31666
5.3099
5.29716
5.28947
0.205759
0.192607
0.179289
0.1675
0.157661
0.149642
0.143162
0.137951
0.133811
0.130647
0.128445
0.127296
0.127333
0.128698
0.131483
0.135637
0.140884
0.146691
0.152318
0.156955
0.159936
0.161009
0.160652
0.160385
0.162988
0.172373
0.192814
0.227585
0.277701
0.341638
0.416129
0.497299
0.581533
0.665892
0.748225
0.82711
0.901731
0.971746
1.03716
1.09824
1.15539
1.20912
1.25992
1.30828
1.35461
1.39926
1.44244
1.48432
1.52497
1.5644
1.60256
1.63939
1.67479
1.70865
1.74087
1.77137
1.80006
1.82687
1.85175
1.87467
1.89562
1.91461
1.93165
1.9468
1.96013
1.97172
1.98169
1.99014
1.99723
2.00312
2.00796
2.01195
2.01527
2.0181
2.02064
2.02307
2.02559
2.02837
2.03157
2.03537
2.0399
2.04531
2.05171
2.05922
2.06792
2.0779
2.0892
2.10187
2.11593
2.13139
2.14823
2.16642
2.18591
2.20666
2.22858
2.25162
2.27568
2.3007
2.3266
2.3533
2.38075
2.40888
2.43767
2.46708
2.49709
2.52767
2.55882
2.59055
2.62286
2.65576
2.68929
2.72346
2.75834
2.79397
2.83029
2.86721
2.90482
2.94321
2.98244
3.02255
3.06357
3.10555
3.14855
3.19262
3.23778
3.28408
3.33153
3.38017
3.43001
3.48106
3.53332
3.58681
3.64153
3.69746
3.75462
3.813
3.8726
3.9334
3.99542
4.05864
4.12307
4.18871
4.25557
4.32364
4.39294
4.46348
4.53526
4.60827
4.68246
4.75777
4.83407
4.91118
4.98894
5.06712
5.14544
5.2236
5.30121
5.37787
5.45315
5.52654
5.59735
5.66449
5.72743
5.78578
5.83886
5.886
5.92802
5.96481
5.99493
6.01689
6.02794
6.03127
6.03185
6.02845
6.01702
5.99748
5.9711
5.94267
5.90958
5.87332
0.218324
0.202098
0.185811
0.171628
0.16001
0.150728
0.143379
0.137583
0.13309
0.129749
0.127493
0.126342
0.126382
0.127739
0.130497
0.134606
0.139784
0.145482
0.150945
0.155375
0.158177
0.159271
0.159405
0.160438
0.165397
0.178077
0.202055
0.239417
0.289987
0.351566
0.42084
0.494326
0.568974
0.642432
0.713068
0.779889
0.842413
0.900538
0.954435
1.00444
1.051
1.09458
1.13564
1.17457
1.21172
1.24735
1.28164
1.31468
1.34654
1.37719
1.40662
1.43477
1.46158
1.487
1.51097
1.53347
1.55449
1.57404
1.59215
1.60888
1.62431
1.63855
1.65171
1.66395
1.67543
1.68633
1.69684
1.70717
1.71752
1.72812
1.73916
1.75086
1.76341
1.77697
1.79172
1.80779
1.82528
1.84429
1.86489
1.88711
1.91097
1.93645
1.96354
1.99217
2.0223
2.05383
2.08668
2.12074
2.1559
2.19206
2.2291
2.2669
2.30536
2.34438
2.38385
2.42368
2.46379
2.50409
2.54454
2.58507
2.62567
2.6663
2.70698
2.74771
2.78851
2.82941
2.87042
2.9116
2.95298
2.99462
3.03658
3.07893
3.12165
3.16443
3.20747
3.25098
3.29506
3.33979
3.38526
3.43153
3.47866
3.52672
3.57577
3.62586
3.67705
3.72937
3.78287
3.83758
3.89354
3.95077
4.00931
4.06917
4.13038
4.19295
4.2569
4.32224
4.38898
4.45711
4.52666
4.59761
4.66996
4.74371
4.81883
4.89529
4.97306
5.05209
5.13235
5.21375
5.29622
5.37964
5.46385
5.54861
5.63371
5.71891
5.80393
5.88845
5.97201
6.05405
6.13423
6.21209
6.28724
6.35746
6.42251
6.48241
6.53658
6.58302
6.62334
6.65768
6.68556
6.70479
6.71246
6.70977
6.70033
6.68408
6.65855
6.62453
6.58403
6.54158
6.49516
6.44255
0.226113
0.208032
0.189757
0.173939
0.161134
0.151062
0.143246
0.137264
0.132799
0.129627
0.127617
0.126729
0.127003
0.128524
0.131345
0.135384
0.140338
0.145654
0.150612
0.154507
0.156925
0.158048
0.158959
0.161817
0.169715
0.186059
0.21351
0.253017
0.30353
0.362529
0.426885
0.493571
0.560076
0.624541
0.685751
0.743034
0.796146
0.845147
0.890303
0.932001
0.970681
1.00679
1.04072
1.07285
1.10345
1.13274
1.16085
1.18789
1.2139
1.23889
1.26285
1.28577
1.30764
1.32848
1.3483
1.36714
1.38508
1.4022
1.41864
1.43452
1.45003
1.46533
1.48064
1.49617
1.51214
1.52877
1.54629
1.56491
1.58486
1.60631
1.62943
1.65438
1.68127
1.71018
1.74116
1.77424
1.80941
1.84662
1.88581
1.92689
1.96975
2.01426
2.06028
2.10766
2.15625
2.2059
2.25643
2.3077
2.35956
2.41187
2.46448
2.51729
2.57018
2.62305
2.67582
2.7284
2.78073
2.83274
2.88439
2.93564
2.9865
3.03697
3.0871
3.13691
3.18646
3.2358
3.28496
3.334
3.38299
3.43197
3.48109
3.52982
3.57817
3.62656
3.67514
3.72406
3.77343
3.82333
3.87388
3.92516
3.97723
4.03018
4.08408
4.139
4.19498
4.25208
4.31035
4.36983
4.43057
4.49259
4.55592
4.6206
4.68665
4.75408
4.82292
4.89316
4.96481
5.03785
5.11228
5.18808
5.26524
5.34371
5.42346
5.50446
5.58662
5.66984
5.75405
5.83916
5.92505
6.01162
6.09874
6.18601
6.27318
6.36001
6.44625
6.53171
6.61575
6.69731
6.77635
6.85251
6.92667
6.99382
7.05465
7.10898
7.15638
7.19659
7.23003
7.25687
7.27683
7.28823
7.28864
7.27821
7.25918
7.23193
7.19519
7.14998
7.09831
7.04445
6.98683
6.92266
0.228699
0.210516
0.19165
0.175215
0.16195
0.151621
0.143765
0.137928
0.133729
0.13088
0.129194
0.128592
0.129083
0.130716
0.133502
0.137318
0.14183
0.146505
0.150705
0.153891
0.1559
0.157238
0.159308
0.164445
0.175581
0.195489
0.225858
0.266689
0.316385
0.37238
0.431854
0.492253
0.551545
0.608293
0.661609
0.711069
0.756593
0.79835
0.836661
0.871931
0.90459
0.935054
0.963696
0.990835
1.01672
1.04156
1.06547
1.08856
1.11089
1.13251
1.15345
1.17375
1.19347
1.21267
1.23144
1.2499
1.26819
1.28648
1.30495
1.3238
1.34326
1.36355
1.38491
1.40756
1.43173
1.45764
1.48548
1.51542
1.54761
1.58216
1.61917
1.65868
1.70071
1.74523
1.79219
1.84151
1.89307
1.94675
2.00237
2.05979
2.11882
2.17927
2.24097
2.30373
2.36735
2.43167
2.4965
2.56167
2.62704
2.69245
2.75776
2.82287
2.88767
2.95206
3.01598
3.07935
3.14211
3.2042
3.26558
3.32622
3.38612
3.44532
3.50387
3.56185
3.61931
3.67631
3.73292
3.7892
3.84522
3.90071
3.9551
4.00895
4.06251
4.11596
4.16943
4.22307
4.277
4.33133
4.38619
4.44166
4.49784
4.55481
4.61265
4.67143
4.73122
4.79206
4.854
4.91709
4.98136
5.04686
5.1136
5.18161
5.25091
5.32151
5.39343
5.46667
5.5412
5.61699
5.69401
5.77224
5.85162
5.93211
6.01366
6.09624
6.17975
6.26397
6.34883
6.43421
6.52
6.60612
6.69267
6.77878
6.86414
6.94865
7.03206
7.11464
7.19577
7.27263
7.34619
7.41606
7.48175
7.54143
7.59438
7.64001
7.67801
7.70841
7.73144
7.74726
7.75572
7.75574
7.74558
7.72495
7.69506
7.65639
7.60846
7.55238
7.48998
7.42516
7.35663
7.2824
0.226701
0.210293
0.192343
0.176326
0.163296
0.153208
0.145657
0.140162
0.136297
0.133733
0.132261
0.131791
0.132322
0.133877
0.136421
0.139787
0.143629
0.147457
0.150765
0.153235
0.155
0.156883
0.16052
0.168239
0.182586
0.205578
0.238011
0.279202
0.32729
0.379845
0.434416
0.488896
0.541672
0.591654
0.638219
0.681125
0.720413
0.756316
0.789187
0.81943
0.847461
0.87367
0.898404
0.921959
0.944575
0.966442
0.987708
1.00849
1.02888
1.04897
1.06883
1.08857
1.10829
1.12811
1.14818
1.16867
1.18976
1.21167
1.23462
1.25884
1.28456
1.31202
1.34142
1.37298
1.40688
1.44328
1.48231
1.52409
1.56867
1.61609
1.66636
1.71944
1.77526
1.83373
1.89472
1.95808
2.02364
2.09124
2.16066
2.23171
2.3042
2.37793
2.45269
2.52829
2.60455
2.68127
2.75827
2.83539
2.91245
2.9893
3.06581
3.14185
3.21729
3.29207
3.36609
3.4393
3.51165
3.58306
3.65347
3.72284
3.79118
3.85855
3.92503
3.9907
4.05563
4.1199
4.18354
4.24664
4.3083
4.36866
4.42815
4.48699
4.54535
4.60338
4.66121
4.71901
4.77691
4.83505
4.89355
4.95252
5.01207
5.07228
5.13324
5.19502
5.2577
5.32132
5.38591
5.45152
5.51819
5.58596
5.65483
5.72482
5.79594
5.86821
5.94164
6.01624
6.09195
6.16868
6.24641
6.32508
6.40464
6.485
6.56613
6.64803
6.73072
6.81346
6.89638
6.97937
7.06229
7.14506
7.22865
7.3109
7.3913
7.47023
7.54742
7.62257
7.69504
7.76388
7.82879
7.88927
7.94461
7.99369
8.03552
8.06943
8.09514
8.11266
8.1222
8.12394
8.11789
8.10344
8.07953
8.0458
8.00287
7.95119
7.89076
7.82275
7.74881
7.67248
7.59264
7.50852
0.221541
0.208394
0.192655
0.177953
0.165762
0.156268
0.149159
0.143991
0.140336
0.137866
0.136388
0.135824
0.136169
0.137416
0.139491
0.142191
0.145184
0.148063
0.150494
0.152413
0.154247
0.15707
0.162606
0.172979
0.190197
0.215524
0.249042
0.289644
0.335423
0.384188
0.43387
0.482764
0.529618
0.573624
0.614368
0.651744
0.685877
0.717041
0.745598
0.771946
0.796481
0.819572
0.841547
0.862688
0.883233
0.903379
0.923292
0.943117
0.962983
0.983016
1.00334
1.0241
1.04543
1.06749
1.09047
1.11457
1.13999
1.16696
1.19571
1.22646
1.25943
1.29483
1.33281
1.37355
1.41716
1.46376
1.51341
1.56616
1.622
1.68093
1.74287
1.80773
1.87541
1.94576
2.01862
2.09383
2.17119
2.25051
2.33158
2.41418
2.49813
2.58323
2.66927
2.75607
2.84344
2.93117
3.01909
3.10702
3.19478
3.28221
3.36912
3.45539
3.54086
3.62543
3.70901
3.79154
3.87298
3.95325
4.03226
4.10997
4.18638
4.26158
4.33568
4.40879
4.48098
4.55242
4.62238
4.69022
4.75672
4.82209
4.88648
4.95
5.01277
5.07494
5.13667
5.19814
5.25949
5.32089
5.38247
5.44434
5.50662
5.5694
5.63276
5.69679
5.76157
5.82715
5.8935
5.96069
6.02876
6.09774
6.16763
6.23844
6.31017
6.38283
6.45643
6.53105
6.60664
6.68279
6.75962
6.83709
6.91509
6.99354
7.07236
7.15171
7.23229
7.31146
7.39022
7.46852
7.54616
7.62296
7.69894
7.77338
7.84596
7.91647
7.98459
8.04991
8.11187
8.16981
8.22315
8.27132
8.31357
8.34887
8.37632
8.39536
8.40571
8.40733
8.40035
8.38507
8.36164
8.32983
8.28909
8.2392
8.18056
8.11361
8.03867
7.95697
7.87003
7.78109
7.68927
7.59488
0.215438
0.206084
0.193397
0.180676
0.169671
0.160833
0.154051
0.148987
0.145278
0.14264
0.140912
0.140031
0.139979
0.140718
0.142137
0.144024
0.146091
0.148054
0.149778
0.151452
0.153743
0.157861
0.165454
0.178293
0.197795
0.224567
0.258192
0.297365
0.340278
0.385028
0.42991
0.473574
0.515067
0.553811
0.589554
0.622291
0.652203
0.679587
0.704804
0.728237
0.750264
0.771232
0.791455
0.811205
0.830722
0.850213
0.869864
0.889847
0.910323
0.93145
0.953386
0.97629
1.00033
1.02568
1.05254
1.08112
1.11161
1.14424
1.17922
1.21675
1.25702
1.30018
1.34636
1.39567
1.44818
1.50396
1.56302
1.62539
1.69101
1.75984
1.83177
1.9067
1.98447
2.06493
2.14792
2.23325
2.32074
2.41018
2.50136
2.59407
2.68812
2.78333
2.87949
2.97642
3.07391
3.17177
3.26981
3.36783
3.46566
3.5631
3.65997
3.75608
3.85124
3.94529
4.0381
4.12959
4.21975
4.30851
4.39575
4.48143
4.56561
4.64841
4.72995
4.81046
4.88959
4.96625
5.04078
5.11357
5.18496
5.25514
5.32414
5.39197
5.45875
5.52464
5.58983
5.65451
5.71887
5.78305
5.84722
5.91148
5.97595
6.04072
6.10588
6.17151
6.23773
6.30468
6.37204
6.43998
6.50856
6.57782
6.64775
6.71834
6.7896
6.8615
6.93406
7.0076
7.08223
7.15646
7.23094
7.30566
7.38053
7.4554
7.53015
7.6047
7.67898
7.75238
7.82487
7.89626
7.96635
8.03489
8.10165
8.16628
8.22845
8.28784
8.34411
8.39687
8.4456
8.48967
8.52845
8.56123
8.58724
8.60544
8.61513
8.61599
8.60787
8.59062
8.56419
8.52907
8.48555
8.43364
8.37315
8.30408
8.22685
8.14201
8.05017
7.95266
7.85097
7.74814
7.64364
7.53848
0.211804
0.205214
0.195585
0.184918
0.175016
0.166603
0.159823
0.15452
0.150439
0.147366
0.145169
0.143783
0.143169
0.143255
0.14391
0.144938
0.146129
0.147345
0.148654
0.150456
0.153572
0.159212
0.168804
0.183689
0.204737
0.232041
0.26489
0.30195
0.341602
0.382247
0.422511
0.461348
0.498051
0.532226
0.563744
0.592675
0.619235
0.643727
0.666504
0.687934
0.70837
0.72814
0.747538
0.766828
0.786249
0.806016
0.82633
0.847385
0.869365
0.892452
0.91682
0.942635
0.970067
0.999295
1.03051
1.06391
1.09969
1.13803
1.17913
1.22315
1.27026
1.32058
1.37419
1.43115
1.49151
1.55532
1.62258
1.69329
1.76739
1.84482
1.92545
2.00917
2.09582
2.18521
2.27718
2.37155
2.46811
2.56667
2.66702
2.76895
2.87228
2.97682
3.08238
3.18873
3.29568
3.40302
3.51054
3.61805
3.72536
3.83229
3.93865
4.04421
4.14875
4.25199
4.35373
4.45385
4.55232
4.64905
4.74401
4.83724
4.92883
5.01906
5.10785
5.19412
5.27775
5.35912
5.4384
5.51584
5.59174
5.66631
5.73958
5.81128
5.88158
5.95072
6.01892
6.08638
6.1533
6.21984
6.28615
6.35234
6.41852
6.48478
6.55118
6.61782
6.68485
6.75297
6.82067
6.88859
6.95686
7.02551
7.09453
7.16391
7.23362
7.30363
7.37391
7.4445
7.51531
7.58601
7.65658
7.72696
7.797
7.86655
7.93543
8.00346
8.07045
8.13611
8.20022
8.26253
8.32277
8.38069
8.43598
8.48832
8.53737
8.58278
8.62422
8.66133
8.69363
8.72056
8.74145
8.75553
8.76195
8.75964
8.74825
8.72777
8.69817
8.65924
8.61083
8.55341
8.4873
8.41267
8.32958
8.23832
8.1395
8.03397
7.92267
7.80709
7.6888
7.57056
7.45303
7.33727
0.216154
0.208759
0.200566
0.191058
0.181635
0.173123
0.165892
0.159968
0.155214
0.151471
0.148622
0.14659
0.145302
0.144663
0.144536
0.144772
0.145256
0.146002
0.147249
0.149539
0.153736
0.160936
0.172272
0.18864
0.210432
0.237417
0.26876
0.303208
0.339377
0.375965
0.411896
0.446377
0.478904
0.509229
0.537313
0.563277
0.587353
0.609845
0.631089
0.65143
0.671197
0.690692
0.710184
0.729921
0.750136
0.771044
0.792855
0.815772
0.839998
0.86573
0.893146
0.922403
0.953663
0.987101
1.02291
1.06126
1.10234
1.1463
1.1933
1.24348
1.29698
1.35389
1.41429
1.47819
1.54566
1.61673
1.69144
1.76977
1.85166
1.93704
2.0258
2.1178
2.21287
2.31082
2.41145
2.51457
2.61994
2.72729
2.83648
2.9473
3.05958
3.1731
3.28764
3.40297
3.51884
3.63503
3.75132
3.86752
3.98343
4.0989
4.21379
4.32796
4.44116
4.55279
4.6627
4.77074
4.87679
4.98066
5.08246
5.18268
5.28115
5.37694
5.46974
5.56009
5.64805
5.7337
5.81712
5.89851
5.9782
6.05644
6.13372
6.20864
6.28184
6.35366
6.42435
6.49412
6.56315
6.63161
6.69962
6.76729
6.8347
6.90192
6.96902
7.03604
7.10308
7.17025
7.23729
7.30429
7.37129
7.4383
7.50531
7.5723
7.63922
7.70602
7.77265
7.83906
7.90514
7.97075
8.03578
8.10009
8.1635
8.22584
8.28689
8.34643
8.40421
8.45995
8.51336
8.56415
8.61201
8.65663
8.69769
8.73484
8.76771
8.79595
8.81922
8.83719
8.84948
8.85565
8.85505
8.84687
8.83031
8.80444
8.76913
8.72445
8.67034
8.60651
8.5315
8.4464
8.35189
8.24851
8.1368
8.01754
7.89179
7.76087
7.62627
7.48977
7.3532
7.21915
7.08842
6.9624
0.233843
0.219686
0.209697
0.199347
0.189209
0.179855
0.171682
0.164798
0.159125
0.15453
0.150896
0.148125
0.146117
0.144758
0.14393
0.143541
0.143579
0.144186
0.145717
0.148771
0.154152
0.16276
0.175406
0.192604
0.214409
0.240374
0.269659
0.301195
0.333848
0.366591
0.398605
0.429315
0.458383
0.48567
0.511203
0.535132
0.557694
0.579176
0.599895
0.620169
0.640299
0.66055
0.681158
0.702352
0.724351
0.747362
0.771588
0.797231
0.824499
0.853603
0.884717
0.917992
0.953578
0.991666
1.03246
1.07617
1.12295
1.17294
1.22624
1.28295
1.34315
1.40689
1.47424
1.54533
1.62022
1.69893
1.78148
1.86786
1.95801
2.05185
2.14925
2.25005
2.35406
2.46106
2.57083
2.68315
2.79774
2.91398
3.03186
3.15124
3.27195
3.39377
3.51647
3.63977
3.76342
3.88715
4.01075
4.13401
4.25675
4.37888
4.50038
4.6215
4.74241
4.86087
4.97745
5.09207
5.20439
5.31437
5.42171
5.52568
5.62646
5.72461
5.82027
5.91362
6.0046
6.09317
6.17948
6.26373
6.34615
6.42681
6.50578
6.58283
6.65817
6.73203
6.80465
6.87619
6.94683
7.01668
7.08585
7.15441
7.22243
7.28996
7.35702
7.42366
7.48989
7.55576
7.62121
7.68625
7.75086
7.81504
7.87877
7.94199
8.00466
8.06672
8.12809
8.18869
8.24841
8.3071
8.36462
8.4208
8.47545
8.52833
8.57922
8.62783
8.67389
8.71707
8.75704
8.79344
8.82593
8.85416
8.87776
8.89635
8.90956
8.91702
8.9184
8.9134
8.90177
8.88323
8.85732
8.82323
8.78007
8.72586
8.66113
8.58606
8.5007
8.40507
8.29917
8.18333
8.05803
7.92394
7.782
7.63349
7.47994
7.32318
7.16514
7.00794
6.85355
6.7045
6.56164
6.42664
0.262818
0.237235
0.222723
0.209441
0.19723
0.186265
0.176722
0.16862
0.161849
0.156273
0.151772
0.148229
0.145521
0.143533
0.14217
0.141402
0.141304
0.1421
0.144196
0.14816
0.154668
0.164385
0.177824
0.195207
0.216383
0.240843
0.267814
0.296392
0.32572
0.355051
0.383782
0.41152
0.43806
0.46335
0.487459
0.510549
0.532845
0.554605
0.576113
0.597662
0.619517
0.641905
0.665028
0.689107
0.714367
0.740996
0.769169
0.79907
0.830888
0.864792
0.900888
0.939419
0.980608
1.02468
1.07187
1.12241
1.17644
1.23392
1.29492
1.35945
1.42751
1.49896
1.57399
1.65317
1.73642
1.82347
1.91441
2.00925
2.10793
2.21032
2.31629
2.42563
2.53812
2.65353
2.7717
2.8927
3.0174
3.14318
3.26965
3.3971
3.52544
3.65447
3.78395
3.91361
4.04317
4.17236
4.30092
4.42866
4.55544
4.68117
4.80586
4.92975
5.05275
5.17413
5.29418
5.41261
5.5286
5.64091
5.75
5.85597
5.95899
6.05934
6.15726
6.25288
6.34573
6.43587
6.52376
6.60966
6.69364
6.77561
6.85568
6.93394
7.01057
7.08573
7.15959
7.23225
7.30381
7.37435
7.44393
7.51259
7.58037
7.64729
7.71336
7.77857
7.84295
7.90647
7.96911
8.03084
8.09164
8.15146
8.21027
8.26802
8.32462
8.38
8.43408
8.48674
8.53788
8.58731
8.63488
8.68038
8.72359
8.76426
8.8021
8.83682
8.86808
8.89551
8.91873
8.93735
8.95097
8.95919
8.96162
8.95785
8.9475
8.93021
8.90564
8.87354
8.83376
8.78615
8.73042
8.66454
8.58842
8.50186
8.40484
8.29711
8.17868
8.04966
7.91027
7.76105
7.60275
7.4365
7.26375
7.08632
6.90621
6.72562
6.54679
6.37193
6.203
6.04226
5.89032
5.74883
0.304565
0.260583
0.23882
0.220816
0.205336
0.192064
0.180779
0.171246
0.163222
0.156547
0.151113
0.1468
0.143469
0.141003
0.139335
0.138485
0.13858
0.139879
0.142766
0.147715
0.155224
0.165726
0.179486
0.196531
0.216626
0.239297
0.263922
0.289824
0.31637
0.343042
0.369484
0.395479
0.420921
0.445824
0.470294
0.494503
0.518647
0.54293
0.567574
0.592797
0.61876
0.645733
0.673973
0.703761
0.735246
0.768462
0.803606
0.840868
0.880313
0.921921
0.965477
1.01173
1.06104
1.11354
1.16928
1.22845
1.29112
1.35733
1.42719
1.50077
1.57815
1.65954
1.74532
1.8364
1.9326
2.03108
2.13289
2.23819
2.34693
2.45898
2.57417
2.69225
2.81292
2.93591
3.06099
3.18809
3.31722
3.44768
3.57895
3.71077
3.84294
3.97526
4.10751
4.23947
4.37088
4.50152
4.63114
4.75955
4.88666
5.01241
5.13701
5.26096
5.38396
5.5052
5.6238
5.7394
5.85232
5.96249
6.07
6.17486
6.27715
6.37706
6.47476
6.57042
6.66419
6.75613
6.84629
6.93464
7.02087
7.10415
7.18513
7.26413
7.3414
7.41711
7.49134
7.56415
7.63559
7.7057
7.77448
7.84195
7.90811
7.97297
8.0365
8.0987
8.15952
8.21894
8.27692
8.33339
8.38832
8.44163
8.49327
8.54315
8.59119
8.63729
8.68135
8.72323
8.76279
8.79987
8.83426
8.86574
8.89406
8.91894
8.94006
8.9571
8.96967
8.97738
8.97981
8.97652
8.96709
8.95108
8.92807
8.89767
8.85948
8.81317
8.75845
8.6951
8.62304
8.54223
8.45266
8.35392
8.24357
8.1222
7.99027
7.84771
7.69474
7.53163
7.35886
7.17728
6.98806
6.79284
6.59361
6.3926
6.19193
5.99407
5.80124
5.61547
5.43842
5.27188
5.11648
4.97345
0.354219
0.285476
0.254816
0.231294
0.212149
0.196366
0.183223
0.172192
0.162924
0.155255
0.149068
0.144212
0.140523
0.137879
0.136231
0.135621
0.13619
0.138181
0.141916
0.147761
0.15606
0.167077
0.180936
0.197591
0.216819
0.238253
0.26146
0.286008
0.311515
0.337691
0.36433
0.391307
0.418573
0.446245
0.474409
0.50331
0.533115
0.563913
0.595742
0.628571
0.662176
0.697248
0.734131
0.772924
0.813524
0.856204
0.901237
0.948781
0.998925
1.05182
1.10784
1.16735
1.23143
1.29946
1.36967
1.44301
1.51971
1.59981
1.68331
1.77019
1.86047
1.95425
2.05166
2.15284
2.25763
2.36515
2.47521
2.58774
2.70261
2.81966
2.93874
3.05962
3.18206
3.30582
3.43072
3.55669
3.68366
3.81146
3.93986
4.06859
4.19747
4.32629
4.45487
4.58304
4.71066
4.83762
4.96372
5.08881
5.21339
5.33712
5.45955
5.57982
5.69779
5.81378
5.92788
6.04007
6.1503
6.25832
6.3642
6.46798
6.5697
6.66944
6.76722
6.86313
6.95724
7.04963
7.14033
7.22905