/*--------------------------------*- C++ -*----------------------------------*\
| =========                 |                                                 |
| \\      /  F ield         | OpenFOAM: The Open Source CFD Toolbox           |
|  \\    /   O peration     | Version:  2112                                  |
|   \\  /    A nd           | Website:  www.openfoam.com                      |
|    \\/     M anipulation  |                                                 |
\*---------------------------------------------------------------------------*/
FoamFile
{
    version     2.0;
    format      ascii;
    arch        "LSB;label=32;scalar=64";
    class       volScalarField;
    location    "0.11";
    object      nut;
}
// * * * * * * * * * * * * * * * * * * * * * * * * * * * * * * * * * * * * * //

dimensions      [0 2 -1 0 0 0 0];

internalField   nonuniform List<scalar> 
12225
(
1.01041e-05
1.76301e-05
2.54596e-05
3.44524e-05
4.53035e-05
5.85094e-05
7.43553e-05
9.28834e-05
0.000113891
0.000136969
0.000161572
0.000187087
0.000212908
0.000238477
0.00026337
0.000286995
0.000310668
0.00032876
5.70151e-05
3.22736e-05
2.72704e-05
2.70649e-05
2.90354e-05
3.23451e-05
3.66425e-05
4.1808e-05
4.79115e-05
5.51418e-05
6.37997e-05
7.4132e-05
8.62439e-05
0.000100092
0.00011553
0.000132719
0.000153368
0.00017707
0.000522234
0.000192935
0.000111283
7.70762e-05
5.97832e-05
5.03436e-05
4.51455e-05
4.23798e-05
4.12104e-05
4.12629e-05
4.23882e-05
4.45362e-05
4.76831e-05
5.18035e-05
5.68538e-05
6.29272e-05
7.03e-05
7.9226e-05
0.00184793
0.000912067
0.000557441
0.000380723
0.000279411
0.000215497
0.000170712
0.000139703
0.000117909
0.000102047
9.01586e-05
8.11352e-05
7.43327e-05
6.93766e-05
6.61064e-05
6.41429e-05
6.33111e-05
6.35271e-05
0.00244626
0.00220274
0.00157541
0.00118169
0.000920712
0.000737549
0.000599587
0.000496895
0.000420066
0.000361118
0.000314583
0.000276961
0.000246031
0.000219855
0.000195527
0.000174601
0.000157302
0.000143295
0.00276361
0.00288617
0.00276153
0.0022799
0.00191589
0.00163133
0.00140423
0.00122181
0.001074
0.000952757
0.000851865
0.000766734
0.000694063
0.000630505
0.000570664
0.000517364
0.000471348
0.000432517
0.00322207
0.0031842
0.00307448
0.00302063
0.00291304
0.0026181
0.00236041
0.00214317
0.00195439
0.0017906
0.00164783
0.00152257
0.00141196
0.00131345
0.00122393
0.00114099
0.00106524
0.000998365
0.00383037
0.00364491
0.0033416
0.00315346
0.00299621
0.00293051
0.00298287
0.00302628
0.00283523
0.00266409
0.00250884
0.0023668
0.00223637
0.0021165
0.00200634
0.00179059
0.00158542
0.00142645
0.00455505
0.00419116
0.00373841
0.00339536
0.00312674
0.00298736
0.00297288
0.00303243
0.00308153
0.00305271
0.00292894
0.00273386
0.00250726
0.00227949
0.00206739
0.00187263
0.00169808
0.00156583
0.00463533
0.00462229
0.00417512
0.00374425
0.00339801
0.00316685
0.00304908
0.00300776
0.00299835
0.00295968
0.00286242
0.00270924
0.00252279
0.0023255
0.0021334
0.00196203
0.00181379
0.00170402
0.00463778
0.00463405
0.00462
0.00411745
0.00371058
0.00342406
0.00324619
0.00313009
0.00303929
0.00294901
0.00284015
0.00270584
0.00255226
0.00239008
0.00222834
0.00207765
0.00194581
0.00184903
0.0046383
0.00463722
0.00463465
0.004461
0.00401357
0.00368172
0.00345999
0.00329993
0.00316307
0.00303102
0.0028943
0.00274985
0.00260048
0.00245152
0.00230804
0.00217715
0.00206384
0.00198207
0.00463836
0.00463805
0.0046375
0.00463636
0.0043227
0.00394933
0.00368024
0.00348153
0.0033132
0.00315353
0.00299511
0.00283804
0.00268559
0.00254152
0.00240918
0.00229318
0.00219543
0.00212656
0.00463826
0.00463804
0.00463805
0.00463812
0.00463807
0.00425732
0.00394054
0.0036989
0.00349931
0.00331816
0.00314608
0.00298222
0.00282897
0.0026892
0.00256535
0.00246061
0.00237507
0.0023165
0.00463813
0.00463779
0.00463778
0.00463806
0.00463851
0.00456278
0.0042255
0.00394655
0.00371831
0.00352026
0.0033408
0.00317655
0.00302778
0.00289579
0.00278205
0.00268873
0.00261474
0.00256554
0.00463802
0.00463752
0.00463735
0.00463751
0.00463794
0.00463855
0.00450133
0.00420752
0.00396034
0.003753
0.00357302
0.00341441
0.00327552
0.00315605
0.0030562
0.00297706
0.00291652
0.00287786
0.00463794
0.00463732
0.004637
0.00463698
0.00463726
0.00463776
0.00463841
0.00446272
0.00421285
0.00400659
0.00383531
0.0036899
0.00356667
0.00346427
0.00338193
0.00331972
0.00327491
0.00324849
0.0046379
0.00463721
0.00463678
0.00463664
0.00463677
0.00463713
0.00463768
0.00463833
0.00446464
0.0042725
0.00412008
0.00399719
0.00389687
0.00381667
0.00375539
0.00371251
0.00368533
0.0036718
0.00463791
0.00463721
0.00463676
0.00463657
0.00463664
0.00463691
0.00463736
0.00463792
0.00463855
0.00450456
0.00438642
0.00429788
0.00423101
0.00418219
0.00414951
0.00413167
0.00412626
0.00412738
0.00463796
0.00463734
0.00463695
0.0046368
0.00463685
0.00463706
0.00463735
0.00463766
0.00463793
0.00459245
0.00452257
0.00448404
0.00446914
0.00446942
0.00447944
0.00449637
0.00451889
0.00453983
0.00463805
0.00463748
0.00463704
0.00463666
0.0046362
0.00463553
0.00463449
0.00463299
0.00463094
0.00457421
0.0045657
0.00460026
0.00461601
0.00461066
0.00460475
0.00459831
0.00459142
0.00458417
0.00463803
0.00463699
0.00463522
0.00463221
0.00462753
0.00462082
0.00461194
0.00457426
0.00451249
0.00452828
0.00455398
0.00453463
0.00451383
0.00449183
0.00446885
0.00444511
0.00442082
0.00439633
0.00463684
0.00463117
0.00461973
0.00460112
0.00457481
0.00454101
0.00445981
0.00437828
0.00439383
0.00434892
0.00429224
0.00423411
0.00417529
0.00411638
0.00405783
0.00399999
0.00394316
0.0038879
0.00462714
0.00459337
0.0045344
0.00445185
0.00435037
0.00423558
0.00411267
0.00398611
0.00385977
0.0037358
0.0036158
0.00350077
0.0033912
0.00328717
0.00318851
0.003095
0.00300638
0.00292286
0.00456815
0.00440893
0.00418687
0.00393266
0.00367074
0.00341663
0.00317873
0.0029607
0.00276344
0.00258623
0.00242755
0.00228551
0.00215798
0.00204259
0.00193735
0.00184091
0.00175228
0.00167095
0.00426398
0.00373747
0.0031881
0.0027099
0.0023167
0.00199897
0.00174276
0.00153522
0.00136592
0.00122665
0.00111103
0.00101404
0.000931243
0.000857894
0.000792006
0.000733305
0.000681228
0.000635019
0.00320948
0.00216848
0.00149429
0.00109082
0.000835677
0.000664539
0.00054447
0.00045725
0.000392111
0.000342317
0.000303441
0.000272466
0.000247061
0.000224936
0.000205316
0.000188246
0.000173548
0.000160935
0.00116199
0.000550916
0.000312296
0.000207829
0.000152698
0.000119909
9.88933e-05
8.47425e-05
7.48974e-05
6.79001e-05
6.28639e-05
5.92269e-05
5.66327e-05
5.48729e-05
5.37856e-05
5.32441e-05
5.31761e-05
5.35444e-05
0.000114749
5.52295e-05
3.9735e-05
3.39091e-05
3.18348e-05
3.16872e-05
3.27218e-05
3.45726e-05
3.70263e-05
3.99426e-05
4.3228e-05
4.6829e-05
5.07331e-05
5.49684e-05
5.95882e-05
6.46508e-05
7.02559e-05
7.64258e-05
9.55794e-06
1.55437e-05
2.12382e-05
2.70753e-05
3.34525e-05
4.06603e-05
4.89072e-05
5.83379e-05
6.90432e-05
8.10646e-05
9.43948e-05
0.000108979
0.000124717
0.000141475
0.00015909
0.000177382
0.000196184
0.000215238
0.000429484
0.000433416
0.000441195
0.000451567
0.000463598
0.000476193
0.00048787
0.000456561
0.000421542
0.00039763
0.000381873
0.000371539
0.000365311
0.000362568
0.000363007
0.000366521
0.000373114
0.000382508
0.000394733
0.000409991
0.000428812
0.000453539
0.000486597
0.000502986
0.000503305
0.000502211
0.000499845
0.000496423
0.000492257
0.000487825
0.000484034
0.000483137
0.00049085
0.000515393
0.000566383
0.00064801
0.000752593
0.000821028
0.000852447
0.000894507
0.000945918
0.00099853
0.00104856
0.00109496
0.00113756
0.00117643
0.00121165
0.00124336
0.0012717
0.00129684
0.00131892
0.00133807
0.0013544
0.001368
0.00137895
0.00138734
0.00139323
0.00139672
0.00139792
0.00139698
0.00139405
0.00138931
0.00138298
0.00137527
0.0013664
0.00135659
0.00134606
0.001335
0.0013236
0.00131203
0.00130042
0.00128892
0.00127761
0.00126657
0.00125587
0.00124556
0.00123565
0.00122616
0.0012171
0.00120846
0.00120021
0.00119234
0.00118483
0.00117763
0.00117072
0.00116406
0.00115761
0.00115134
0.00114519
0.00113914
0.00113314
0.00112715
0.00112112
0.00111502
0.0011088
0.00110243
0.00109585
0.00108903
0.00108194
0.00107452
0.00106675
0.00105859
0.00105001
0.00104099
0.00103149
0.00102152
0.00101105
0.00100008
0.000988621
0.000976674
0.000964262
0.000951408
0.000938144
0.00092451
0.000910547
0.000896305
0.000881842
0.000867242
0.000852508
0.000837529
0.000822646
0.000808033
0.000793748
0.000779853
0.000766415
0.000753507
0.000741211
0.000729616
0.000718822
0.000708949
0.000700153
0.000692637
0.000686657
0.000682565
0.000680872
0.000682341
0.000688089
0.000699765
0.000719921
0.000752789
0.000805783
0.000893351
0.00104719
0.00132842
0.00163892
0.00158966
0.00155412
0.00150089
0.00114862
0.000955461
0.000844764
0.000777397
0.000736335
0.000712764
0.000701665
0.000700022
0.000705993
0.000718647
0.000737225
0.000760693
0.000787853
0.000817623
0.000849252
0.000882255
0.000916233
0.000950805
0.00098562
0.00102035
0.00105472
0.00108851
0.00112164
0.00115404
0.00118556
0.00121567
0.00124482
0.00127345
0.0013018
0.00133145
0.00136062
0.00140668
0.000413261
0.000417989
0.000427369
0.000439364
0.000452711
0.0004664
0.000479571
0.00049155
0.000502083
0.000511063
0.000518453
0.000524288
0.000528676
0.000531767
0.000533734
0.000534746
0.000534907
0.000534098
0.000532462
0.000530293
0.00052789
0.000525515
0.00052335
0.000521313
0.000519069
0.00051637
0.000513059
0.000509076
0.00050448
0.000499528
0.000494954
0.00049289
0.000498948
0.000521366
0.00056953
0.000647853
0.000749776
0.000860585
0.00096649
0.00105962
0.00113747
0.0012012
0.00125351
0.0012972
0.00133452
0.00136707
0.00139584
0.00142148
0.00144438
0.00146483
0.00148307
0.00149929
0.0015137
0.00152644
0.00153765
0.00154745
0.00155591
0.00156309
0.00156906
0.00157389
0.00157763
0.00158036
0.00158216
0.00158312
0.00158334
0.00158289
0.00158185
0.00158031
0.00157831
0.00157592
0.00157318
0.0015701
0.00156672
0.00156304
0.00155907
0.0015548
0.00155024
0.00154538
0.00154021
0.00153475
0.00152899
0.00152294
0.00151661
0.00151001
0.00150316
0.00149608
0.00148878
0.00148131
0.00147366
0.00146588
0.00145798
0.00144999
0.00144193
0.00143383
0.0014257
0.00141757
0.00140946
0.00140139
0.00139339
0.00138548
0.00137768
0.00137004
0.00136257
0.00135532
0.00134832
0.00134164
0.0013353
0.00132939
0.00132395
0.00131907
0.00131481
0.00131128
0.00130855
0.00130673
0.0013059
0.00130616
0.00130755
0.00131009
0.0013137
0.00131786
0.00132297
0.00132928
0.00133691
0.00134599
0.0013567
0.0013692
0.00138362
0.00140007
0.00141866
0.00143945
0.00146249
0.00148777
0.00151518
0.0015445
0.00157532
0.00160694
0.00163836
0.00166814
0.00169442
0.0017149
0.00172703
0.00172849
0.00171768
0.00169514
0.00166323
0.00163634
0.00161897
0.00159816
0.00156844
0.00153335
0.00149596
0.00145863
0.00142325
0.00139116
0.00136322
0.00133959
0.00131823
0.00128791
0.00123385
0.00116408
0.00109518
0.00103707
0.000994034
0.0009667
0.000953733
0.000953677
0.000965396
0.000987954
0.00102053
0.00106242
0.00111293
0.00117113
0.00123586
0.00130646
0.00138075
0.00145629
0.00153039
0.00160039
0.0016635
0.00172109
0.000393912
0.000411178
0.000424797
0.000441244
0.000458603
0.000475564
0.000491234
0.0005051
0.000516966
0.000526835
0.000534825
0.000541127
0.000545977
0.000549629
0.000552339
0.000554335
0.000555777
0.000556614
0.000556639
0.000555813
0.000554164
0.000551797
0.000548866
0.000545491
0.000541679
0.000537368
0.000532482
0.000526981
0.000520913
0.000514541
0.000508684
0.000505785
0.000511537
0.000533828
0.000580944
0.000656079
0.000752687
0.000857252
0.000956944
0.00104428
0.00111709
0.00117655
0.00122523
0.00126577
0.00130032
0.00133042
0.00135704
0.00138084
0.0014022
0.00142144
0.00143879
0.0014545
0.00146876
0.00148175
0.00149361
0.00150448
0.00151445
0.00152358
0.00153196
0.00153963
0.00154666
0.00155314
0.00155911
0.00156466
0.00156985
0.00157474
0.00157938
0.0015838
0.00158801
0.00159202
0.00159582
0.00159936
0.00160261
0.00160552
0.00160803
0.00161008
0.00161163
0.00161262
0.00161303
0.00161284
0.00161202
0.00161059
0.00160856
0.00160596
0.00160284
0.00159925
0.00159525
0.0015909
0.00158629
0.00158148
0.00157657
0.00157162
0.00156672
0.00156196
0.0015574
0.00155314
0.00154925
0.00154581
0.0015429
0.00154058
0.00153894
0.00153804
0.00153796
0.00153877
0.00154053
0.00154329
0.00154712
0.00155206
0.00155815
0.0015654
0.00157382
0.0015834
0.00159408
0.00160578
0.0016184
0.00163177
0.0016457
0.00165997
0.00167364
0.00168727
0.00170111
0.0017151
0.00172915
0.0017432
0.00175717
0.00177095
0.00178441
0.00179739
0.0018097
0.00182113
0.00183145
0.00184041
0.00184769
0.00185297
0.00185585
0.0018559
0.00185268
0.00184577
0.00183494
0.00182002
0.00180088
0.00177801
0.00175194
0.00172506
0.00169871
0.00167832
0.00166233
0.0016462
0.00162826
0.00160941
0.00159047
0.00157201
0.00155456
0.00153851
0.0015241
0.00151121
0.00149848
0.00148129
0.00145371
0.00141502
0.00136895
0.00131789
0.00125634
0.00118391
0.00111112
0.00104681
0.000995073
0.000957482
0.000934417
0.000925327
0.000929592
0.000946998
0.000978469
0.00102464
0.00108522
0.00115937
0.00124517
0.00133958
0.00143881
0.00153851
0.000330178
0.0004103
0.00043223
0.000456007
0.000479359
0.000500734
0.000519195
0.000534349
0.000546217
0.000555088
0.000561395
0.000565628
0.000568283
0.000569824
0.00057067
0.000571178
0.000571615
0.000572057
0.00057235
0.000572362
0.000571896
0.000570741
0.000568729
0.000565752
0.000561751
0.000556708
0.00055065
0.000543665
0.000535959
0.000527993
0.000520958
0.000518177
0.000525298
0.000549538
0.000597507
0.000670411
0.00076115
0.000857509
0.000948458
0.00102774
0.00109374
0.0011477
0.00119199
0.00122904
0.00126077
0.00128859
0.00131341
0.00133581
0.00135619
0.00137484
0.00139203
0.00140799
0.00142292
0.00143703
0.00145046
0.00146335
0.00147581
0.00148793
0.0014998
0.0015115
0.0015231
0.0015347
0.00154639
0.00155823
0.0015703
0.00158266
0.00159533
0.00160832
0.00162161
0.00163514
0.00164882
0.00166256
0.00167622
0.00168965
0.0017027
0.00171523
0.00172709
0.00173816
0.00174834
0.00175755
0.00176573
0.00177286
0.00177895
0.00178402
0.00178814
0.00179138
0.00179383
0.00179561
0.00179683
0.00179763
0.00179814
0.00179849
0.00179884
0.00179932
0.00180006
0.0018012
0.00180285
0.00180515
0.00180819
0.00181208
0.00181691
0.00182274
0.00182964
0.00183765
0.00184679
0.00185707
0.00186845
0.0018809
0.00189433
0.00190862
0.00192364
0.00193922
0.00195513
0.00197116
0.00198705
0.00200253
0.00201734
0.00203078
0.00204283
0.00205395
0.00206405
0.002073
0.00208066
0.00208687
0.00209152
0.00209445
0.00209553
0.00209462
0.00209159
0.00208631
0.00207865
0.00206852
0.00205582
0.00204053
0.00202257
0.00200186
0.00197832
0.00195186
0.00192302
0.0018924
0.00185986
0.00182608
0.00177471
0.00168941
0.00162377
0.00157309
0.00153055
0.00149614
0.00146555
0.00143791
0.00141826
0.00140908
0.00141028
0.00142126
0.00144144
0.00147087
0.00150841
0.00151423
0.00150579
0.00149413
0.00147893
0.00145962
0.00143371
0.00139944
0.00135847
0.00131404
0.00126887
0.00122223
0.00117212
0.00112118
0.0010743
0.00103544
0.00100804
0.000995102
0.000997866
0.00101703
0.00105348
0.00110842
0.00118322
0.0012769
0.000290473
0.000417483
0.000449512
0.000481656
0.000511067
0.000535971
0.000555596
0.000569971
0.000579657
0.00058548
0.000588344
0.000589108
0.000588525
0.000587224
0.000585706
0.000584361
0.000583465
0.000583037
0.000583041
0.000583351
0.000583688
0.000583655
0.000582807
0.00058074
0.000577164
0.00057195
0.000565129
0.000556916
0.00054774
0.000538386
0.000531448
0.000530427
0.000540689
0.000568502
0.000618378
0.000689355
0.000773858
0.000861177
0.000942385
0.00101274
0.00107132
0.00111943
0.00115926
0.00119291
0.0012221
0.00124801
0.00127147
0.00129298
0.00131293
0.0013316
0.00134925
0.00136612
0.00138242
0.00139835
0.0014141
0.0014298
0.00144561
0.00146165
0.00147804
0.00149491
0.00151238
0.00153058
0.00154965
0.00156967
0.00159075
0.00161294
0.00163623
0.0016606
0.00168596
0.00171215
0.001739
0.00176625
0.00179365
0.00182091
0.00184775
0.00187389
0.00189907
0.00192307
0.00194569
0.0019668
0.00198629
0.0020041
0.00202021
0.00203466
0.0020475
0.00205883
0.00206876
0.00207743
0.00208501
0.00209166
0.00209755
0.00210288
0.00210782
0.00211255
0.00211724
0.00212207
0.00212717
0.00213269
0.00213875
0.00214545
0.00215288
0.00216107
0.00217008
0.00217991
0.00219052
0.00220187
0.00221388
0.00222643
0.00223938
0.00225255
0.00226576
0.00227879
0.00229143
0.00230345
0.00231463
0.00232473
0.00233341
0.00234009
0.00234529
0.00234901
0.00235112
0.00235146
0.0023499
0.0023463
0.00234054
0.00233251
0.0023221
0.00230923
0.00229381
0.00227584
0.00225522
0.00223189
0.00220577
0.00217717
0.00214618
0.00211273
0.00207695
0.00202463
0.00194185
0.00186009
0.00177768
0.00169405
0.00161362
0.00154236
0.00148386
0.00143387
0.00138971
0.00135105
0.00131497
0.00128167
0.00125494
0.00123676
0.00122724
0.00122585
0.00123195
0.00124505
0.0012643
0.0012891
0.00132054
0.00135877
0.00140367
0.00145163
0.00144742
0.00143912
0.0014278
0.00141364
0.00139682
0.00137676
0.00135231
0.00132349
0.00129168
0.00125862
0.00122378
0.00118633
0.00114939
0.0011185
0.00109916
0.00109592
0.00111188
0.00114978
0.000267171
0.000433112
0.000475692
0.00051555
0.00054916
0.00057485
0.000592533
0.000603158
0.000608169
0.000609114
0.000607403
0.000604206
0.000600427
0.000596724
0.000593553
0.000591205
0.000589826
0.000589266
0.000589497
0.00059033
0.000591417
0.000592255
0.000592239
0.000590783
0.000587439
0.000581959
0.000574174
0.000564751
0.000554912
0.000546128
0.000541052
0.000543546
0.000558548
0.000590876
0.000642721
0.000711248
0.000788894
0.000866729
0.000937974
0.000999382
0.00105065
0.00109315
0.0011288
0.00115941
0.00118641
0.00121082
0.00123332
0.00125437
0.00127432
0.00129344
0.00131199
0.00133022
0.00134834
0.00136658
0.00138514
0.00140421
0.00142398
0.00144462
0.00146632
0.00148926
0.00151363
0.0015396
0.00156734
0.00159698
0.00162858
0.00166218
0.00169772
0.00173506
0.001774
0.00181424
0.00185544
0.0018972
0.00193911
0.00198074
0.00202166
0.0020615
0.0020999
0.00213658
0.00217128
0.00220381
0.00223406
0.00226195
0.00228745
0.00231058
0.00233142
0.00235005
0.00236661
0.00238125
0.00239415
0.00240549
0.00241547
0.0024243
0.00243218
0.00243932
0.00244589
0.0024521
0.0024581
0.00246405
0.00247009
0.00247631
0.00248281
0.00248965
0.00249685
0.00250443
0.00251235
0.00252056
0.00252899
0.00253752
0.00254602
0.00255436
0.00256235
0.00256985
0.00257666
0.00258262
0.00258755
0.00259129
0.00259289
0.00259288
0.00259127
0.00258794
0.00258273
0.0025755
0.00256608
0.00255434
0.00254013
0.00252335
0.00250391
0.00248167
0.00245653
0.0024287
0.0023981
0.00236455
0.00232238
0.00224168
0.00215984
0.00207691
0.00199394
0.00191159
0.00182951
0.00174975
0.0016721
0.00159649
0.00152598
0.00146203
0.00140513
0.00135374
0.0013069
0.0012643
0.00122482
0.00118889
0.00115862
0.00113527
0.00111893
0.00110917
0.00110538
0.00110722
0.00111452
0.00112891
0.0011501
0.00117752
0.00121055
0.00124809
0.00128965
0.00133609
0.00138602
0.00139792
0.00139542
0.00139146
0.0013858
0.00137817
0.0013685
0.00135687
0.00134264
0.00132365
0.00129996
0.00127296
0.00124347
0.00121333
0.0011881
0.00117592
0.000253271
0.00045759
0.000509745
0.000554873
0.000589239
0.000612056
0.00062458
0.000629053
0.000627907
0.000623329
0.000617075
0.000610442
0.000604311
0.000599229
0.000595483
0.000593166
0.000592177
0.000592233
0.000593166
0.000594677
0.00059633
0.000597499
0.000597452
0.00059568
0.000591778
0.000585642
0.000577522
0.000568235
0.000559284
0.000552715
0.000551412
0.000559104
0.000579841
0.000616631
0.000669495
0.000734392
0.000804409
0.000872567
0.000934091
0.000987008
0.0010315
0.0010689
0.00110084
0.00112883
0.00115403
0.00117728
0.00119916
0.00122005
0.00124029
0.00126013
0.00127984
0.00129966
0.00131984
0.00134063
0.00136227
0.00138498
0.00140902
0.00143461
0.00146201
0.00149145
0.00152317
0.00155737
0.00159422
0.00163384
0.00167624
0.00172136
0.00176904
0.001819
0.00187088
0.00192424
0.00197858
0.00203336
0.00208806
0.00214215
0.00219514
0.0022466
0.00229615
0.00234346
0.00238827
0.0024304
0.00246971
0.00250611
0.00253958
0.00257013
0.00259782
0.00262273
0.002645
0.00266477
0.0026822
0.00269748
0.0027108
0.00272238
0.00273241
0.00274111
0.00274867
0.0027553
0.00276117
0.00276645
0.00277128
0.00277581
0.00278013
0.00278433
0.00278847
0.00279257
0.00279666
0.00280069
0.00280464
0.00280843
0.00281198
0.00281518
0.00281791
0.00282004
0.00282143
0.00282193
0.00282142
0.00281887
0.00281462
0.00280874
0.00280113
0.00279159
0.00277995
0.002766
0.00274961
0.00273061
0.00270878
0.00268402
0.00265635
0.00262555
0.00258265
0.00250705
0.00242859
0.00234755
0.00226497
0.00218278
0.00210092
0.00201861
0.0019375
0.00185911
0.00178174
0.0017058
0.00163142
0.00155881
0.00148845
0.0014215
0.00135972
0.0013033
0.001252
0.00120572
0.00116399
0.00112696
0.00109571
0.00107097
0.0010528
0.00104078
0.00103438
0.00103322
0.00103733
0.0010466
0.00106027
0.00107786
0.00109912
0.00112449
0.00115546
0.00119133
0.00123095
0.00127305
0.00131791
0.00135547
0.00135715
0.00135796
0.00135787
0.00135686
0.00135485
0.00135113
0.00134512
0.00133639
0.00132396
0.00130687
0.00128439
0.00125856
0.000247042
0.000491509
0.000550173
0.000596404
0.00062742
0.000644194
0.00064963
0.000647189
0.00064001
0.000630605
0.00062081
0.000611848
0.000604441
0.000598924
0.000595346
0.000593535
0.00059311
0.00059375
0.000595104
0.000596749
0.000598188
0.000598843
0.000598126
0.000595608
0.000591098
0.000584747
0.000577131
0.00056935
0.0005631
0.000560638
0.000564782
0.000578678
0.000605085
0.000645161
0.000697306
0.000757114
0.000818843
0.000877445
0.000929836
0.000975018
0.00101347
0.0010464
0.00107516
0.00110096
0.00112471
0.00114709
0.00116858
0.00118952
0.0012102
0.0012309
0.00125186
0.00127335
0.00129563
0.00131899
0.00134369
0.00137002
0.00139826
0.00142872
0.00146166
0.00149739
0.00153613
0.00157811
0.00162346
0.00167221
0.00172432
0.0017796
0.00183776
0.00189838
0.00196099
0.00202501
0.00208985
0.00215491
0.00221961
0.00228339
0.00234576
0.00240628
0.00246457
0.00252031
0.00257325
0.00262321
0.00267004
0.00271365
0.002754
0.00279109
0.00282496
0.00285566
0.0028833
0.002908
0.00292989
0.00294914
0.00296593
0.00298044
0.00299286
0.00300339
0.00301224
0.0030196
0.00302565
0.00303058
0.00303454
0.00303771
0.00304019
0.00304212
0.00304358
0.00304465
0.00304536
0.00304575
0.00304582
0.00304553
0.00304483
0.00304366
0.0030419
0.00303944
0.00303616
0.00303192
0.00302573
0.00301772
0.00300803
0.00299656
0.0029831
0.00296744
0.00294935
0.00292856
0.00290497
0.00287852
0.00284884
0.00278864
0.00271762
0.0026428
0.00256497
0.00248598
0.00240632
0.00232589
0.00224519
0.00216565
0.00208638
0.00200699
0.00192759
0.00184769
0.00176712
0.00168664
0.00160692
0.00152861
0.00145248
0.00138012
0.0013134
0.00125301
0.00119895
0.00115114
0.00110916
0.00107288
0.00104272
0.00101904
0.00100181
0.000990678
0.00098515
0.000984825
0.000989497
0.000998712
0.00101166
0.00102767
0.00104651
0.00106818
0.00109232
0.00111843
0.00114632
0.00117802
0.00121374
0.00125423
0.00129893
0.00131738
0.00132086
0.00132392
0.00132665
0.00132899
0.00133072
0.00133161
0.00133125
0.00132898
0.00132304
0.00131117
0.00024835
0.000534943
0.00059462
0.000636789
0.000660946
0.000670076
0.00066838
0.000659916
0.000648024
0.000635192
0.000623112
0.000612805
0.000604764
0.000599087
0.000595584
0.00059386
0.000593498
0.000594074
0.000595126
0.000596189
0.000596796
0.000596493
0.000594897
0.000591804
0.000587282
0.000581748
0.000576025
0.00057139
0.000569574
0.000572705
0.000583137
0.000603068
0.000633844
0.00067513
0.000724493
0.00077791
0.00083106
0.000880593
0.000924723
0.000963109
0.000996357
0.0010255
0.0010516
0.00107559
0.0010982
0.00111994
0.00114121
0.00116232
0.00118353
0.0012051
0.00122729
0.00125036
0.00127461
0.00130032
0.00132781
0.00135739
0.00138938
0.0014241
0.00146188
0.00150299
0.00154769
0.00159613
0.00164841
0.0017045
0.00176423
0.00182733
0.0018934
0.00196195
0.0020324
0.00210415
0.00217656
0.00224902
0.00232094
0.00239179
0.0024611
0.00252844
0.00259345
0.00265584
0.00271536
0.00277182
0.00282507
0.00287501
0.00292157
0.00296473
0.00300449
0.00304088
0.00307395
0.00310379
0.0031305
0.00315421
0.00317505
0.00319318
0.00320876
0.00322198
0.00323301
0.00324204
0.00324926
0.00325483
0.00325895
0.00326177
0.00326344
0.00326411
0.0032639
0.00326291
0.00326123
0.00325891
0.00325599
0.00325247
0.00324832
0.00324348
0.00323784
0.00323127
0.00322367
0.00321401
0.00320237
0.00318889
0.00317352
0.00315611
0.00313635
0.003114
0.00308891
0.0030606
0.00300105
0.00293558
0.00286598
0.0027933
0.00271873
0.00264243
0.00256524
0.00248798
0.00241026
0.00233139
0.00225077
0.00216855
0.0020849
0.00199997
0.00191369
0.00182613
0.0017379
0.00165005
0.00156368
0.0014798
0.00139957
0.00132451
0.00125608
0.00119496
0.00114115
0.00109444
0.00105437
0.00102059
0.000993106
0.000971997
0.000957141
0.000948225
0.000944837
0.000946594
0.000953211
0.000964298
0.000979232
0.000997397
0.00101842
0.00104193
0.00106699
0.00109269
0.00111904
0.00114721
0.00117887
0.00121467
0.00125342
0.00127438
0.00127867
0.00128287
0.00128708
0.00129142
0.0012959
0.00130052
0.00130519
0.00130975
0.00131345
0.00130923
0.000260048
0.00058694
0.000641489
0.000675504
0.000690987
0.00069236
0.000684357
0.000671064
0.000655641
0.000640333
0.000626586
0.00061519
0.000606427
0.000600206
0.000596185
0.000593896
0.000592944
0.000592797
0.000592987
0.000593095
0.000592761
0.000591709
0.000589772
0.000586985
0.000583644
0.000580352
0.000578043
0.000577975
0.000581689
0.000590879
0.000607162
0.000631677
0.000664582
0.000704666
0.000749418
0.000795658
0.000840445
0.000881762
0.000918717
0.00095135
0.000980264
0.00100629
0.00103024
0.0010528
0.00107453
0.00109584
0.00111703
0.00113838
0.00116013
0.00118252
0.0012058
0.00123025
0.00125615
0.00128382
0.00131356
0.00134572
0.00138062
0.00141861
0.00146
0.00150507
0.00155403
0.00160702
0.00166408
0.0017251
0.00178988
0.00185806
0.00192922
0.00200281
0.00207824
0.0021549
0.00223217
0.00230946
0.00238622
0.00246193
0.00253616
0.00260851
0.00267864
0.00274626
0.00281113
0.00287305
0.00293186
0.00298745
0.00303971
0.00308859
0.00313406
0.0031761
0.00321473
0.00324998
0.00328192
0.00331061
0.00333616
0.00335867
0.00337828
0.00339512
0.00340935
0.00342112
0.00343061
0.00343797
0.00344337
0.00344699
0.00344897
0.00344947
0.00344864
0.00344659
0.00344343
0.00343925
0.00343409
0.00342798
0.00342088
0.00341274
0.00340343
0.00339281
0.00337989
0.00336478
0.00334754
0.00332811
0.00330645
0.00328242
0.00325566
0.00320622
0.00314671
0.00308284
0.00301536
0.0029452
0.00287348
0.00280091
0.00272704
0.0026516
0.00257395
0.00249407
0.00241202
0.00232747
0.00224009
0.00215008
0.00205802
0.00196441
0.00186975
0.00177472
0.00168025
0.00158753
0.00149779
0.00141215
0.00133173
0.0012577
0.00119113
0.00113246
0.00108164
0.00103831
0.00100191
0.000971981
0.000948273
0.00093063
0.000918889
0.000912778
0.000911963
0.000916125
0.000925011
0.000938332
0.000955648
0.000976473
0.00100041
0.00102699
0.00105531
0.00108484
0.00111672
0.00115258
0.00119047
0.00122609
0.00122938
0.00123283
0.00123644
0.00124027
0.00124439
0.00124892
0.00125399
0.00125966
0.001266
0.00127305
0.00128053
0.00127973
0.000287942
0.00064572
0.000688691
0.000711505
0.000717744
0.000712118
0.000699035
0.000682111
0.000664084
0.000646864
0.00063164
0.000619017
0.000609152
0.000601872
0.000596802
0.000593575
0.000591643
0.000590528
0.000589826
0.000589216
0.000588489
0.000587504
0.000586279
0.000585035
0.000584182
0.000584369
0.00058647
0.000591543
0.000600744
0.00061518
0.000635675
0.00066248
0.000695021
0.000731841
0.000770849
0.000809836
0.000847003
0.000881267
0.000912284
0.000940264
0.000965733
0.000989318
0.00101161
0.00103312
0.00105425
0.00107529
0.00109652
0.00111815
0.0011404
0.0011635
0.00118769
0.00121321
0.00124036
0.00126942
0.00130071
0.00133456
0.00137131
0.00141126
0.00145474
0.00150199
0.00155323
0.00160855
0.00166796
0.00173135
0.00179848
0.00186899
0.00194246
0.00201836
0.00209612
0.00217517
0.00225492
0.00233481
0.00241434
0.00249302
0.00257044
0.00264622
0.00272003
0.0027916
0.00286069
0.00292708
0.00299061
0.00305112
0.00310849
0.00316263
0.00321347
0.00326097
0.00330508
0.00334581
0.00338315
0.00341713
0.0034478
0.00347523
0.00349948
0.00352067
0.0035389
0.00355428
0.00356695
0.00357704
0.0035847
0.00359007
0.0035933
0.00359452
0.00359388
0.00359154
0.00358759
0.00358212
0.00357519
0.0035668
0.00355692
0.00354552
0.00353227
0.00351653
0.00349837
0.00347773
0.0034546
0.00342858
0.00339004
0.00333621
0.00327804
0.00321606
0.00315116
0.00308416
0.00301567
0.00294546
0.00287334
0.00279872
0.00272151
0.00264148
0.00255812
0.00247141
0.00238159
0.00228877
0.00219313
0.00209522
0.00199582
0.00189572
0.00179573
0.00169677
0.0015999
0.00150631
0.00141719
0.00133358
0.00125644
0.00118659
0.00112469
0.00107095
0.00102515
0.000986844
0.000955343
0.000930152
0.000910894
0.000897337
0.000889256
0.000886376
0.000888404
0.000895082
0.000906199
0.000921537
0.000940774
0.00096352
0.000989406
0.00101806
0.00104935
0.00108457
0.00112626
0.0011715
0.00118817
0.00119007
0.00119214
0.00119441
0.00119693
0.00119975
0.00120293
0.00120664
0.00121105
0.00121627
0.00122242
0.00122963
0.00123785
0.00124662
0.000346119
0.000706261
0.000732631
0.00074307
0.000740784
0.000729491
0.000712647
0.00069316
0.000673276
0.000654568
0.000638006
0.000624095
0.000612968
0.000604487
0.000598361
0.000594106
0.000591264
0.000589437
0.000588308
0.000587656
0.000587369
0.000587445
0.000588023
0.000589326
0.000591762
0.000595916
0.00060247
0.000612165
0.0006257
0.000643602
0.000666061
0.000692792
0.000722969
0.00075532
0.000788369
0.000820761
0.000851511
0.000880124
0.00090654
0.000931008
0.000953938
0.000975775
0.000996936
0.00101777
0.00103856
0.00105955
0.00108093
0.00110289
0.00112561
0.00114929
0.00117415
0.00120041
0.00122832
0.00125817
0.00129023
0.00132481
0.00136222
0.00140276
0.00144671
0.00149432
0.00154578
0.00160119
0.00166057
0.00172382
0.00179071
0.00186094
0.00193411
0.00200977
0.0020874
0.00216648
0.00224648
0.00232689
0.00240723
0.00248706
0.00256598
0.00264362
0.00271967
0.00279383
0.00286586
0.00293557
0.00300275
0.00306724
0.00312887
0.00318753