/*--------------------------------*- C++ -*----------------------------------*\
| =========                 |                                                 |
| \\      /  F ield         | OpenFOAM: The Open Source CFD Toolbox           |
|  \\    /   O peration     | Version:  2112                                  |
|   \\  /    A nd           | Website:  www.openfoam.com                      |
|    \\/     M anipulation  |                                                 |
\*---------------------------------------------------------------------------*/
FoamFile
{
    version     2.0;
    format      ascii;
    arch        "LSB;label=32;scalar=64";
    class       volScalarField;
    location    "0.25";
    object      epsilonU;
}
// * * * * * * * * * * * * * * * * * * * * * * * * * * * * * * * * * * * * * //

dimensions      [0 2 -3 0 0 0 0];

internalField   nonuniform List<scalar> 
12225
(
5722.47
6886.53
6369.1
5604.94
5020.52
4481.99
3965.45
3463.23
2971.65
2489
2016.04
1557.59
1124.12
731.753
401.603
154.69
15.9679
51.9171
195.402
209.135
168.799
136.922
118.622
106.94
98.3062
91.1532
84.6631
78.255
71.3839
63.5187
54.2689
43.6116
32.1092
20.9303
11.758
9.52794
31.1969
36.7162
35.0976
31.4503
27.7923
24.6009
21.9212
19.6931
17.8327
16.2497
14.8463
13.5182
12.1674
10.7282
9.19361
7.62796
6.16439
5.26413
17.0367
18.2352
18.0909
17.2101
16.0401
14.8136
13.6409
12.568
11.6072
10.7524
9.98667
9.28534
8.61888
7.95868
7.28631
6.60355
5.93817
5.3793
14.4716
14.2241
13.8005
13.2042
12.5089
11.7778
11.0534
10.361
9.71338
9.1154
8.56667
8.06328
7.59858
7.16352
6.74746
6.33953
5.93308
5.53313
13.8629
13.074
12.3843
11.7321
11.1019
10.4948
9.91567
9.36899
8.85732
8.38128
7.93983
7.53071
7.15071
6.79595
6.46225
6.14544
5.84193
5.55048
13.714
12.732
11.898
11.1676
10.5135
9.91963
9.37636
8.87751
8.41869
7.99626
7.60696
7.24766
6.91524
6.60654
6.31839
6.04765
5.79151
5.54855
13.6793
12.6362
11.741
10.9637
10.2808
9.6745
9.13178
8.64273
8.19979
7.79695
7.42931
7.0927
6.78353
6.49857
6.23491
5.98991
5.76123
5.54788
13.6718
12.6119
11.6955
10.8976
10.1981
9.58051
9.03174
8.54126
8.10064
7.70301
7.34271
7.01503
6.71597
6.4421
6.19044
5.9584
5.74383
5.546
13.6703
12.6063
11.6837
10.8788
10.1724
9.54909
8.99614
8.5032
8.06175
7.66478
7.30643
6.9818
6.68676
6.41774
6.17172
5.94608
5.73867
5.54879
13.67
12.6052
11.6809
10.874
10.1655
9.54011
8.98547
8.49133
8.04925
7.65223
7.29443
6.97092
6.67752
6.41068
6.16735
5.94491
5.7412
5.55553
13.67
12.6049
11.6804
10.873
10.164
9.53813
8.98311
8.48874
8.04661
7.64975
7.29232
6.9694
6.67683
6.41105
6.16904
5.94817
5.7463
5.56272
13.6699
12.6049
11.6802
10.8727
10.1636
9.53777
8.98279
8.48853
8.04661
7.65005
7.29303
6.97064
6.6787
6.41368
6.17255
5.9527
5.75199
5.56971
13.6699
12.6048
11.6802
10.8727
10.1637
9.53794
8.98316
8.48917
8.04759
7.65144
7.29489
6.97301
6.68164
6.41725
6.17679
5.95768
5.75774
5.57628
13.6699
12.6048
11.6802
10.8727
10.1639
9.53834
8.98385
8.49021
8.04904
7.65334
7.29728
6.97591
6.68507
6.42121
6.18129
5.9627
5.76327
5.58228
13.6699
12.6048
11.6802
10.8729
10.1642
9.53894
8.98479
8.49157
8.05086
7.65566
7.30011
6.97926
6.68892
6.42555
6.18607
5.96788
5.76879
5.58806
13.6699
12.6048
11.6802
10.8731
10.1646
9.53972
8.98598
8.49322
8.05302
7.65836
7.30335
6.98303
6.6932
6.43028
6.1912
5.97333
5.77446
5.59387
13.6698
12.6048
11.6803
10.8733
10.1652
9.54066
8.98738
8.49514
8.05548
7.66138
7.30691
6.98711
6.69775
6.43523
6.19648
5.97885
5.78012
5.59956
13.6698
12.6047
11.6804
10.8737
10.1659
9.54178
8.98899
8.49729
8.05819
7.66462
7.31067
6.99132
6.70235
6.44015
6.20162
5.98411
5.78539
5.60473
13.6697
12.6047
11.6805
10.874
10.1666
9.54286
8.9905
8.49922
8.06054
7.66736
7.31375
6.99468
6.70593
6.44386
6.20539
5.98785
5.78901
5.60815
13.6697
12.6047
11.6807
10.8744
10.1673
9.54389
8.99188
8.50094
8.06257
7.66966
7.31626
6.99736
6.70871
6.44668
6.20818
5.99054
5.79154
5.61046
13.6697
12.6048
11.681
10.875
10.1682
9.54522
8.99356
8.50294
8.06484
7.67214
7.31888
7.00004
6.71138
6.44926
6.2106
5.99274
5.79346
5.61203
13.6698
12.6052
11.682
10.8768
10.1708
9.54865
8.99768
8.50759
8.06982
7.67725
7.32393
7.00485
6.71577
6.4531
6.21376
5.99512
5.79496
5.61259
13.6708
12.609
11.6899
10.8894
10.1879
9.56937
9.02103
8.53245
8.09516
7.70217
7.34767
7.02679
6.73545
6.47018
6.22799
6.00635
5.80311
5.6176
13.6826
12.6448
11.754
10.9792
10.2971
9.69094
9.1482
8.65961
8.21789
7.8173
7.4531
7.12127
6.81839
6.54144
6.28774
6.05494
5.84099
5.64529
13.7917
12.9124
12.1561
11.4679
10.8267
10.2256
9.66326
9.13973
8.65474
8.2073
7.79576
7.41805
7.07176
6.75447
6.46376
6.1973
5.95292
5.72972
14.6409
14.5562
14.212
13.6272
12.9037
12.1257
11.3488
10.6055
9.91198
9.27473
8.69449
8.16896
7.69436
7.26632
6.88038
6.53228
6.21818
5.9356
21.4224
25.1869
25.3189
23.6976
21.5207
19.3224
17.3063
15.5291
13.9876
12.6576
11.511
10.5216
9.66656
8.9269
8.28677
7.73367
7.25917
6.85855
114.983
146.162
129.205
105.223
86.3848
73.0522
63.5266
56.418
50.8576
46.3449
42.5967
39.4466
36.7891
34.5545
32.6923
31.1808
30.1214
29.531
3377.82
4612.95
4689.48
4409.95
4061.07
3727.63
3429.41
3167.79
2939.73
2741.19
2568.03
2416.33
2282.57
2163.6
2056.58
1959.51
1887.13
1830.5
21.3591
5.19995
5.10835
8.02392
12.1247
18.5514
27.8605
40.9862
60.8584
82.8335
99.2465
104.161
93.9012
69.7844
39.9152
16.5302
6.5072
6.33213
7.61326
9.75613
12.6423
16.6017
19.5511
18.7019
14.0013
12.0748
39.8371
104.133
201.881
329.747
480.54
644.962
813.097
975.591
1124.41
1253.24
1357.56
1434.62
1483.22
1503.51
1496.66
1464.7
1410.3
1337.92
1257.9
1171.87
1081.65
988.988
895.534
802.827
712.273
625.126
542.48
465.253
394.176
329.779
272.382
222.096
178.826
142.287
112.038
87.518
68.1035
53.1667
42.1399
33.5546
26.0023
19.4876
14.0177
9.59481
6.22358
3.92996
2.90355
3.71016
5.47138
7.70316
10.2753
13.0926
16.0699
19.1313
22.2107
25.2512
28.2033
31.0237
33.6811
36.1764
38.4668
40.0227
39.878
38.1596
35.2578
31.8205
28.5693
26.052
24.5181
23.9071
23.9138
24.4425
25.3725
26.5688
27.9324
29.4074
30.9759
32.6526
34.4821
36.5362
38.9085
41.7123
45.1483
50.0348
56.8814
64.9068
73.1198
79.5872
80.9546
73.4186
58.1947
41.4121
34.5864
72.2463
171.001
299.735
434.496
553.482
640.675
686.815
689.228
651.148
580.321
490.475
395.381
303.731
222.554
156.217
106.091
70.9841
47.733
29.6903
17.0769
9.94019
8.24737
15.9097
31.8098
57.4849
96.6375
149.912
218.109
301.452
399.224
510.766
635.972
753.702
785.052
684.171
496.455
303.872
170.83
108.533
93.647
102.239
119.863
114.968
80.1831
75.5076
200.288
291.699
273.628
192.872
116.429
68.5181
36.3186
16.6113
7.31386
4.6207
7.33536
12.7738
17.6674
21.482
25.1343
26.42
77.1326
19.5496
10.1367
5.51832
3.16129
1.93466
1.28276
0.941471
0.799563
2.55623
7.30376
13.2097
17.6263
18.3028
14.9842
9.89414
5.71432
2.9925
1.66611
1.19453
1.34053
3.48762
8.08181
12.6695
17.9536
25.5603
37.3859
52.4142
68.6037
83.9546
96.6277
105.292
109.268
108.514
103.493
95.0063
84.0254
71.5425
58.4655
45.5822
33.6643
23.775
17.5657
17.0998
16.5527
15.9292
15.2443
14.512
13.7454
12.9572
12.1589
11.3607
10.5722
9.80136
9.05514
8.33933
7.65856
7.01623
6.41459
5.85472
5.33667
4.85958
4.4217
4.0198
3.64713
3.28802
2.93421
2.59267
2.27115
1.97782
1.7218
1.51431
1.37223
1.31135
1.28525
1.27395
1.27086
1.27164
1.27319
1.27328
1.27035
1.26331
1.25134
1.23372
1.2098
1.17945
1.14598
1.15585
1.48531
1.85892
2.04985
2.01334
1.80103
1.49335
1.16236
0.855869
0.667017
0.585276
0.55305
0.542224
0.538546
0.535305
0.530508
0.525333
0.522866
0.526676
0.539418
0.562268
0.596195
0.646854
0.723572
0.838524
1.01948
1.33264
1.97491
3.81021
6.8486
9.79276
13.9703
22.4084
33.1002
40.7377
43.4223
41.3083
35.6843
28.1776
20.2442
12.9185
7.29407
5.59949
4.71613
3.85062
3.07941
2.44945
1.9717
1.62788
1.3828
1.19274
1.06427
1.00177
1.01042
1.10978
1.2652
1.49144
1.80392
2.2033
2.6906
3.26697
3.93709
4.73251
5.78817
7.4763
11.8447
28.2273
36.9413
33.9372
25.1545
16.3628
9.51478
5.63248
4.45746
5.7008
11.402
19.0602
34.1912
29.6873
13.7383
3.13852
0.924975
0.5709
0.341531
0.195345
0.122674
0.108315
0.133029
0.176434
0.221864
0.26142
0.298423
0.322064
178.324
55.4919
19.9328
7.84379
3.38394
1.60874
0.843945
0.485573
0.30486
0.315455
0.988441
2.65477
4.88365
6.53506
6.63257
5.26906
3.54491
2.26608
2.03729
3.97638
5.51414
7.07474
9.14642
11.5018
14.1927
17.2667
20.5184
23.3728
25.3337
26.1406
25.7613
24.3403
22.0993
19.2603
16.0379
12.6847
9.51033
6.81645
4.79375
3.47097
2.74597
2.45594
2.43694
2.46178
2.49191
2.52607
2.56373
2.60455
2.64834
2.69501
2.7445
2.79668
2.8512
2.90735
2.96393
3.01906
3.07004
3.1133
3.14439
3.15822
3.14949
3.11348
3.04684
2.94852
2.82014
2.66604
2.49285
2.30847
2.12061
1.93586
1.75928
1.59413
1.44523
1.32754
1.22502
1.13355
1.05162
0.978024
0.91171
0.851776
0.797446
0.748058
0.703054
0.661984
0.624501
0.590441
0.560221
0.536034
0.521207
0.512646
0.512086
0.511512
0.4968
0.467262
0.430944
0.397057
0.368559
0.345215
0.326133
0.310294
0.296752
0.284688
0.2734
0.2623
0.250968
0.239264
0.227459
0.21635
0.207476
0.203732
0.210585
0.239485
0.319525
0.536525
1.11354
2.3402
4.06153
5.45842
6.79572
8.19023
8.8358
8.35823
7.20073
5.7586
4.18206
2.64041
1.4592
0.818767
0.606836
0.611669
0.625933
0.645928
0.67049
0.698166
0.727157
0.75533
0.780316
0.79972
0.811688
0.81488
0.808575
0.795378
0.780282
0.765108
0.752142
0.742723
0.73733
0.735804
0.737753
0.743099
0.753843
0.781336
0.877315
1.21965
2.64378
4.05458
4.3137
3.72232
2.86194
2.15283
1.85848
2.45055
4.62035
7.26934
8.17066
4.26279
1.43663
0.242244
0.215799
0.218952
0.199814
0.16076
0.118455
0.0806711
0.0516613
0.0316946
0.0190744
0.0116534
0.00758949
0.005666
751.506
110.73
22.5049
5.42243
1.59824
0.609609
0.295281
0.166326
0.102235
0.0917473
0.259741
0.892092
2.06303
3.25187
3.69846
3.21746
2.44123
2.95305
3.90237
4.62033
5.38335
6.25882
7.24486
8.25572
9.22841
10.0705
10.6509
10.8437
10.6005
9.94034
8.92869
7.66884
6.29611
4.95976
3.79209
2.87847
2.24286
1.85483
1.6527
1.56955
1.55113
1.56269
1.58775
1.61583
1.64606
1.67821
1.71226
1.74854
1.78774
1.83087
1.87931
1.93462
1.99841
2.07208
2.15651
2.25165
2.35611
2.46678
2.57851
2.68403
2.77423
2.83905
2.86903
2.85711
2.80047
2.70142
2.56695
2.40705
2.23256
2.05312
1.87586
1.70428
1.55347
1.4254
1.31043
1.20695
1.11384
1.03003
0.954501
0.886369
0.824835
0.769209
0.718899
0.673414
0.632377
0.595497
0.562529
0.533273
0.507432
0.484379
0.463444
0.44378
0.424614
0.405676
0.387194
0.36963
0.35331
0.338334
0.324651
0.312135
0.300623
0.289911
0.279721
0.269659
0.259267
0.24831
0.237211
0.227344
0.22113
0.222441
0.238277
0.284364
0.401357
0.672444
1.20193
1.99504
2.73194
3.1235
3.32813
3.34416
3.09754
2.63603
2.04981
1.43515
0.919013
0.588844
0.438536
0.397733
0.400413
0.415914
0.436262
0.460964
0.489492
0.521159
0.554994
0.589612
0.623137
0.653224
0.677292
0.692849
0.69786
0.693332
0.683748
0.671927
0.660427
0.650997
0.64449
0.640954
0.639928
0.64088
0.643467
0.647896
0.656189
0.673742
0.720554
0.872182
1.09645
1.2304
1.2347
1.17591
1.20353
1.57393
2.50842
3.26611
2.59905
1.16373
0.477952
0.252954
0.268779
0.284777
0.276355
0.242853
0.194838
0.144743
0.101119
0.0674252
0.0435688
0.02783
0.0180799
0.0124795
1395.22
104.639
9.86996
1.50227
0.449777
0.238207
0.165664
0.114928
0.0864901
0.14776
0.352486
0.815314
1.51405
2.16423
2.42722
2.40909
2.69585
3.23894
3.64685
4.01672
4.43092
4.87072
5.29634
5.65583
5.90266
5.99013
5.87932
5.55515
5.03826
4.38179
3.66247
2.96447
2.3588
1.88721
1.55778
1.35215
1.23874
1.18522
1.16619
1.1655
1.17474
1.19047
1.20916
1.22821
1.24716
1.26578
1.28407
1.30236
1.32135
1.3422
1.3666
1.39684
1.43579
1.48672
1.55302
1.63774
1.74293
1.86888
2.0133
2.17042
2.33048
2.47997
2.60297
2.68394
2.71132
2.6808
2.59651
2.46898
2.31241
2.14052
1.96394
1.79162
1.64367
1.51035
1.38949
1.28025
1.18167
1.09273
1.01243
0.939855
0.874182
0.814693
0.760768
0.71188
0.667577
0.627459
0.591161
0.558344
0.528645
0.501603
0.476688
0.453432
0.431541
0.410919
0.391589
0.373613
0.357036
0.341842
0.327961
0.315287
0.30368
0.292959
0.282874
0.273105
0.263391
0.253832
0.245214
0.239186
0.238472
0.247798
0.277326
0.350624
0.506225
0.77384
1.14943
1.56299
1.7955
1.84264
1.7926
1.66427
1.43624
1.1251
0.799886
0.539797
0.381598
0.30932
0.285981
0.283317
0.289138
0.300501
0.316251
0.336275
0.360484
0.388712
0.42058
0.455315
0.491546
0.527163
0.559374
0.584907
0.600486
0.605187
0.602876
0.596883
0.590185
0.585
0.582578
0.583268
0.586748
0.592365
0.599569
0.608315
0.619001
0.631069
0.641404
0.648182
0.664555
0.703975
0.752021
0.801873
0.903768
1.15833
1.58744
1.76419
1.24024
0.607303
0.322783
0.248764
0.271199
0.304754
0.315852
0.296425
0.253932
0.201554
0.150557
0.107346
0.0740183
0.0500975
0.0339636
0.0235432
1617.66
46.5739
1.63718
0.394964
0.304393
0.253014
0.227016
0.236429
0.299383
0.405011
0.61123
0.944507
1.36607
1.75594
2.0432
2.30563
2.59242
2.84912
3.06751
3.28867
3.51318
3.71428
3.86167
3.92621
3.88531
3.72545
3.44888
3.07873
2.65695
2.23389
1.85513
1.55047
1.32953
1.18478
1.09909
1.05348
1.03232
1.02513
1.02612
1.03256
1.04324
1.05632
1.06727
1.07567
1.08129
1.08412
1.08437
1.08251
1.07929
1.07585
1.07385
1.07562
1.08428
1.10368
1.13823
1.19258
1.27122
1.3779
1.51472
1.68074
1.87026
2.07138
2.26589
2.43115
2.54498
2.59205
2.56968
2.48552
2.35584
2.19814
2.02706
1.86666
1.71942
1.58343
1.45901
1.34586
1.2433
1.15043
1.06633
0.990126
0.920987
0.858182
0.801066
0.749074
0.701718
0.658563
0.619211
0.583277
0.550372
0.520095
0.492059
0.465946
0.441532
0.41869
0.397376
0.377595
0.359356
0.342644
0.327406
0.313565
0.301019
0.28962
0.279163
0.269421
0.260328
0.252256
0.24626
0.244296
0.249659
0.268994
0.317367
0.418736
0.57794
0.773192
0.988997
1.15973
1.20795
1.173
1.09829
0.973039
0.786805
0.578314
0.404831
0.294699
0.239382
0.216079
0.207483
0.205929
0.209402
0.2175
0.229379
0.245131
0.264947
0.289051
0.317575
0.350362
0.386687
0.424949
0.462532
0.495731
0.520055
0.532633
0.536749
0.535572
0.532409
0.529976
0.529952
0.532956
0.538796
0.546854
0.556475
0.567212
0.578829
0.59092
0.601905
0.608403
0.609467
0.61332
0.629417
0.667078
0.754026
0.930205
1.15108
1.17799
0.861481
0.507055
0.319248
0.261663
0.277479
0.313811
0.334893
0.327093
0.293081
0.243913
0.191298
0.143319
0.103818
0.0736328
0.0518765
0.0365891
1431.21
12.3095
0.665066
0.458333
0.387399
0.357392
0.364376
0.41694
0.494477
0.625102
0.82405
1.09117
1.39474
1.67917
1.90906
2.09508
2.26136
2.4149
2.55753
2.68967
2.79802
2.86327
2.86835
2.80162
2.66036
2.4533
2.20151
1.93487
1.68437
1.47385
1.31505
1.20754
1.14257
1.10819
1.09335
1.08988
1.09271
1.09901
1.10719
1.1162
1.1252
1.13143
1.13418
1.13277
1.12679
1.11622
1.10129
1.08239
1.05986
1.034
1.0054
0.975581
0.947784
0.927258
0.92067
0.934807
0.975467
1.04724
1.15384
1.29781
1.47886
1.69106
1.92015
2.14246
2.32787
2.44793
2.49037
2.45574
2.35969
2.22223
2.07202
1.92328
1.77962
1.64436
1.51904
1.40401
1.29898
1.20331
1.11625
1.03703
0.964896
0.899139
0.839128
0.784296
0.734134
0.688185
0.646033
0.607289
0.571589
0.538585
0.507953
0.479419
0.452776
0.427893
0.4047
0.383172
0.363298
0.345065
0.328449
0.313409
0.299879
0.287748
0.276856
0.267068
0.258481
0.251687
0.248044
0.249998
0.262004
0.293778
0.36299
0.473857
0.5956
0.701318
0.805135
0.862332
0.855552
0.814273
0.743937
0.628839
0.482535
0.347308
0.253053
0.200215
0.173886
0.160723
0.154126
0.151995
0.153927
0.159727
0.168641
0.180853
0.19671
0.216688
0.241296
0.270915
0.305475
0.344039
0.38448
0.42301
0.453936
0.473236
0.48311
0.48609
0.485633
0.484909
0.486049
0.489967
0.49658
0.50522
0.5151
0.525692
0.536733
0.547836
0.558303
0.567003
0.572828
0.578892
0.591974
0.620718
0.682887
0.799467
0.928037
0.928971
0.743954
0.522769
0.38037
0.322203
0.318805
0.339485
0.35542
0.350452
0.321778
0.276329
0.22434
0.174272
0.131025
0.0964495
0.0700833
0.0505069
1093.93
9.61498
0.719553
0.55135
0.499181
0.493392
0.529336
0.59069
0.686835
0.82597
1.00532
1.20963
1.41098
1.58379
1.72431
1.84761
1.96424
2.07131
2.16242
2.23037
2.26477
2.25607
2.19916
2.0953
1.95354
1.78991
1.62421
1.47486
1.35426
1.26679
1.20996
1.17732
1.16163
1.1569
1.15907
1.1658
1.17575
1.18796
1.20153
1.21533
1.22761
1.23532
1.23738
1.2327
1.22089
1.20249
1.17889
1.15192
1.12306
1.09253
1.05888
1.01966
0.973452
0.922617
0.875029
0.842789
0.837957
0.868544
0.938099
1.04831
1.20042
1.39355
1.62102
1.86502
2.09477
2.26957
2.3682
2.38137
2.32075
2.21669
2.09048
1.9553
1.81996
1.68957
1.56672
1.4525
1.34711
1.25028
1.16152
1.08024
1.00582
0.937663
0.875196
0.817888
0.76525
0.716835
0.672231
0.631061
0.592973
0.557645
0.524788
0.494157
0.465557
0.438848
0.413937
0.390775
0.369342
0.34964
0.33168
0.315465
0.300984
0.288183
0.276965
0.267285
0.259358
0.253966
0.252811
0.258997
0.27863
0.32407
0.406181
0.50259
0.568173
0.605474
0.645959
0.658795
0.642504
0.606546
0.539162
0.436666
0.325336
0.236759
0.181163
0.150474
0.133448
0.123338
0.117535
0.115281
0.116407
0.120685
0.127426
0.136839
0.14935
0.165585
0.186305
0.2123
0.244074
0.281348
0.322681
0.364613
0.399617
0.424753
0.439798
0.446509
0.448276
0.448635
0.450162
0.454078
0.460417
0.468492
0.477417
0.486529
0.495567
0.504402
0.512804
0.520946
0.52946
0.540174
0.558333
0.589758
0.642161
0.722207
0.801753
0.80298
0.696456
0.555429
0.448651
0.392584
0.37379
0.376262
0.381642
0.374516
0.348082
0.305207
0.254037
0.202749
0.156828
0.11887
0.0883357
0.0648723
783.098
7.352
0.791406
0.656904
0.623551
0.638018
0.68166
0.747114
0.840782
0.957507
1.08776
1.21931
1.34184
1.45215
1.55367
1.6494
1.73641
1.80838
1.85976
1.88572
1.88186
1.84611
1.78027
1.6908
1.58824
1.48499
1.39214
1.31688
1.26166
1.22504
1.20364
1.19378
1.19258
1.19816
1.20941
1.22553
1.24564
1.26854
1.29266
1.3161
1.33585
1.35037
1.35687
1.35269
1.33606
1.30695
1.26771
1.22304
1.17881
1.13972
1.10674
1.07591
1.03964
0.991002
0.929684
0.866356
0.820117
0.809129
0.842074
0.919441
1.03956
1.20145
1.40447
1.63991
1.8843
2.0881
2.2243
2.27479
2.25288
2.1811
2.0787
1.96086
1.83791
1.71618
1.59919
1.48867
1.38535
1.28933
1.20046
1.11839
1.0427
0.972941
0.90866
0.849407
0.794751
0.744283
0.69762
0.654405
0.61431
0.577034
0.542311
0.50991
0.479643
0.451361
0.424955
0.400363
0.377559
0.356556
0.337393
0.320128
0.304813
0.291469
0.28007
0.270647
0.263523
0.259671
0.261187
0.272002
0.299994
0.357489
0.43984
0.504589
0.518006
0.513418
0.522161
0.521566
0.508292
0.475884
0.411084
0.322463
0.237984
0.177291
0.140708
0.119528
0.106487
0.0981128
0.093154
0.0911609
0.0919568
0.0952494
0.100395
0.107608
0.117362
0.130372
0.14755
0.16998
0.198649
0.233777
0.274701
0.317635
0.355524
0.38542
0.405057
0.415186
0.418899
0.41998
0.421427
0.424773
0.430174
0.436923
0.444069
0.450897
0.457167
0.463027
0.468684
0.474711
0.482792
0.495184
0.516059
0.549965
0.601
0.66648
0.722547
0.725637
0.662246
0.570263
0.490812
0.440263
0.415896
0.409149
0.409252
0.401565
0.376979
0.335815
0.284833
0.232057
0.183432
0.141694
0.106939
0.0796
560.07
5.74086
0.873601
0.766272
0.743366
0.755982
0.787692
0.841441
0.911383
0.99179
1.07759
1.16527
1.25302
1.33961
1.42268
1.49802
1.56084
1.60747
1.63562
1.64365
1.63057
1.59696
1.546
1.48355
1.4171
1.35389
1.29922
1.25577
1.22394
1.20275
1.19081
1.18696
1.19047
1.2009
1.21787
1.24085
1.26895
1.30083
1.33459
1.36765
1.40064
1.43154
1.45587
1.46826
1.46317
1.43649
1.38763
1.32152
1.24873
1.18214
1.1313
1.09744
1.07255
1.04265
0.99538
0.930316
0.864155
0.823696
0.827475
0.879114
0.97404
1.10714
1.27953
1.4899
1.72599
1.93481
2.08407
2.16103
2.16952
2.1249
2.04511
1.94538
1.83662
1.72577
1.61691
1.51226
1.41296
1.31949
1.23199
1.15039
1.0745
1.00403
0.93869
0.878128
0.822
0.769963
0.721679
0.676829
0.635112
0.59625
0.559996
0.526129
0.494465
0.46485
0.437169
0.411346
0.387353
0.365209
0.344983
0.326785
0.310743
0.296965
0.285512
0.276495
0.270339
0.268228
0.272676
0.288503
0.324732
0.389093
0.460517
0.488311
0.462848
0.435207
0.42968
0.42775
0.419397
0.388825
0.327598
0.251867
0.186436
0.142233
0.115589
0.0992731
0.0886601
0.0817496
0.0777355
0.0762111
0.0769488
0.0795818
0.0835147
0.0889677
0.0964539
0.106762
0.120881
0.140061
0.165764
0.198442
0.238159
0.279923
0.320141
0.353832
0.377512
0.390813
0.396321
0.397938
0.399041
0.401482
0.405543
0.410501
0.415366
0.41943
0.422518
0.424971
0.427394
0.430558
0.436197
0.447257
0.467565
0.499893
0.548341
0.608907
0.660546
0.670797
0.63225
0.569278
0.509471
0.467484
0.446039
0.440456
0.442397
0.436905
0.413874
0.372907
0.320511
0.264967
0.212586
0.165407
0.12574
0.0942351
352.039
4.23148
0.945643
0.855182
0.824292
0.818292
0.835527
0.869074
0.914587
0.969629
1.03289
1.10302
1.17736
1.25156
1.3206
1.38046
1.42886
1.46478
1.48746
1.49579
1.48864
1.46611
1.43042
1.38577
1.33734
1.28995
1.24714
1.2109
1.18194
1.16023
1.14548
1.13745
1.13602
1.14109
1.15255
1.17024
1.19394
1.22339
1.25815
1.29732
1.34394
1.395
1.44634
1.49149
1.52161
1.52648
1.49739
1.43225
1.34049
1.24211
1.15898
1.10365
1.07418
1.05589
1.02839
0.979132
0.915309
0.865292
0.854739
0.891795
0.971458
1.08513
1.23255
1.41649
1.62272
1.81954
1.97327
2.06415
2.09103
2.0656
2.00377
1.91987
1.82447
1.72453
1.6243
1.52627
1.43185
1.34182
1.25659
1.17631
1.10099
1.03055
0.964797
0.903517
0.846453
0.793331
0.743869
0.697792
0.65483
0.614733
0.577269
0.542231
0.509437
0.478735
0.450003
0.423158
0.398168
0.375058
0.35392
0.334911
0.318239
0.304112
0.292698
0.284202
0.279168
0.278995
0.286599
0.307559
0.350926
0.416804
0.47023
0.46391
0.412464
0.372724
0.361403
0.361421
0.357134
0.329481
0.272629
0.207114
0.154713
0.120464
0.0994943
0.0861699
0.0774011
0.0718312
0.0687809
0.0677922
0.0685945
0.07076
0.0737369
0.077765
0.0833864
0.0914763
0.103097
0.119469
0.142567
0.1728
0.209383
0.250559
0.292171
0.328841
0.356071
0.372341
0.379572
0.381648
0.382282
0.383638
0.386127
0.389022
0.391305
0.39232
0.392018
0.390905
0.389853
0.389846
0.392324
0.40007
0.416673
0.445204
0.48743
0.542001
0.594771
0.619497
0.604498
0.56514
0.52382
0.495564
0.485933
0.489167
0.494024
0.488441
0.463272
0.418791
0.361947
0.301078
0.241368
0.187684
0.14282
0.107305
182.922
2.9147
0.979182
0.891965
0.849292
0.832803
0.835325
0.852873
0.88372
0.927132
0.981908
1.0452
1.11239
1.17841
1.2395
1.29391
1.3411
1.38035
1.40983
1.4267
1.42831
1.41382
1.38485
1.34518
1.29955
1.25253
1.20764
1.1671
1.13208
1.10306
1.08024
1.06369
1.05333
1.04882
1.04963
1.05535
1.06612
1.08299
1.10789
1.14568
1.19517
1.25548
1.32428
1.39675
1.4645
1.51475
1.53111
1.49909
1.41751
1.30529
1.19433
1.11121
1.06453
1.0445
1.02815
0.995678
0.945326
0.902724
0.894654
0.930042
1.00157
1.1005
1.22865
1.39028
1.5758
1.75816
1.90576
1.99829
2.03255
2.01779
1.96789
1.89571
1.81096
1.72015
1.62743
1.53534
1.44547
1.3588
1.27593
1.19721
1.1228
1.05276
0.987016
0.925443
0.867861
0.81406
0.76381
0.716874
0.673017
0.632012
0.593645
0.55772
0.524061
0.492517
0.462962
0.43531
0.409523
0.385629
0.363735
0.344038
0.326822
0.312407
0.30109
0.293193
0.289396
0.291302
0.302189
0.328136
0.377003
0.440296
0.473504
0.439339
0.371156
0.32472
0.310849
0.312564
0.310698
0.286188
0.236173
0.180251
0.136227
0.107448
0.0894227
0.0780789
0.0708094
0.0664376
0.0643004
0.0638344
0.0647299
0.0665245
0.0687416
0.0716436
0.0757734
0.0820586
0.0917781
0.105929
0.12605
0.153249
0.187742
0.228049
0.270455
0.30949
0.339862
0.358937
0.367864
0.370392
0.370518
0.370708
0.371507
0.372186
0.371724
0.369547
0.365772
0.361093
0.356544
0.353268
0.352483
0.356254
0.367976
0.391142
0.425526
0.471179
0.5207
0.557403
0.567412
0.555331
0.537545
0.528412
0.53362
0.548193
0.557361
0.548407
0.516874
0.465152
0.400268
0.330191
0.262966
0.203968
0.15532
0.117045
67.3156
1.85031
0.952949
0.878769
0.834547
0.810264
0.803028
0.811722
0.836051
0.875224
0.92688
0.986942
1.05073
1.11462
1.17695
1.23729
1.29484
1.34712
1.38972
1.41742
1.42619
1.41483
1.38536
1.34223
1.29095
1.23671
1.18353
1.13407
1.08994
1.05206
1.02093
0.996556
0.978227
0.964562
0.954006
0.945767
0.940766
0.942078
0.954537
0.985296
1.03064
1.09003
1.16235
1.24507
1.33275
1.41503
1.47444
1.48722
1.43858
1.33784
1.21846
1.11713
1.05284
1.02347
1.00805
0.985463
0.952358
0.925742
0.928141
0.968821
1.04038
1.13452
1.25401
1.40386
1.57545
1.7439
1.8804
1.96672
2.00011
1.98882
1.94505
1.88008
1.80246
1.71808
1.63078
1.54309
1.45666
1.3726
1.29164
1.21426
1.14073
1.07118
1.00563
0.944006
0.88619
0.832013
0.781285
0.733801
0.689352
0.647731
0.608739
0.572192
0.537918
0.505769
0.475618
0.447374
0.420993
0.3965
0.37401
0.35375
0.336067
0.321396
0.310182
0.302901
0.300377
0.304396
0.318494
0.348968
0.401669
0.460575
0.475204
0.419826
0.340385
0.289158
0.273095
0.275097
0.27451
0.253601
0.211174
0.163807
0.125914
0.100497
0.0843435
0.0741959
0.0679175
0.0643916
0.0628716
0.0627538
0.063668
0.0650894
0.0667074
0.0687782
0.0718318
0.076672
0.0844079
0.0964188
0.114214
0.139127
0.171751
0.211124
0.254004
0.294986
0.328185
0.349939
0.360562
0.363575
0.363201
0.362204
0.361259
0.359644
0.356357
0.350937
0.343696
0.335534
0.327624
0.321171
0.317281
0.317357
0.324006
0.341112
0.367956
0.404181
0.446298
0.485882
0.513338
0.527013
0.535005
0.547032
0.566352
0.586883
0.596546
0.584779
0.54766
0.489085
0.417738
0.343248
0.273252
0.212361
0.162311
0.122928
9.59631
1.00181
0.89461
0.837571
0.793257
0.764413
0.751636
0.755755
0.776992
0.81406
0.863921
0.922602
0.986735
1.0547
1.12631
1.20126
1.27732
1.34934
1.4098
1.45097
1.46749
1.45809
1.42561
1.37575
1.3153
1.25052
1.18624
1.12577
1.07117
1.02387
0.984613
0.953025
0.927457
0.905243
0.883775
0.861849
0.841033
0.827835
0.833489
0.861251
0.904487
0.960984
1.0301
1.11094
1.20045
1.29173
1.37131
1.41338
1.39581
1.319
1.21086
1.10918
1.03811
1.00015
0.981292
0.964195
0.944182
0.934563
0.953458
1.00605
1.08375
1.18039
1.30049
1.44781
1.61168
1.7676
1.89018
1.96514
1.99189
1.97863
1.9362
1.87433
1.8004
1.7196
1.63546
1.55043
1.46616
1.38382
1.30421
1.22785
1.15505
1.08599
1.02073
0.959224
0.901388
0.84708
0.796135
0.748368
0.703592
0.661614
0.62225
0.585324
0.55067
0.518142
0.487612
0.458986
0.432212
0.407308
0.384388
0.363693
0.345616
0.330699
0.319547
0.31282
0.311508
0.317553
0.334648
0.369038
0.424634
0.479513
0.47958
0.408661
0.320534
0.26431
0.244922
0.245535
0.2455
0.228647
0.193893
0.154102
0.12096
0.0977512
0.082663
0.0731978
0.0675392
0.0645507
0.0633705
0.0633294
0.0639971
0.0649878
0.0661041
0.0675238
0.0697155
0.073442
0.0797879
0.0901454
0.106101
0.129163
0.160228
0.198777
0.242013
0.28469
0.320488
0.344823
0.357155
0.360698
0.359858
0.35768
0.35497
0.351022
0.344877
0.336219
0.325578
0.314072
0.303011
0.293622
0.28691
0.283833
0.286045
0.296605
0.316939
0.345205
0.379397
0.415755
0.449806
0.47957
0.507531
0.537463
0.568945
0.595036
0.605307
0.591679
0.552407
0.49234
0.42028
0.345578
0.275621
0.214852
0.164906
0.125554
17.1119
0.975213
0.829641
0.78442
0.740403
0.708103
0.691004
0.691168
0.709038
0.74309
0.790336
0.847699
0.913526
0.988042
1.07226
1.16594
1.26559
1.36353
1.44894
1.5109
1.54187
1.5397
1.50764
1.45265
1.38309
1.30677
1.22974
1.15615
1.08867
1.0295
0.980078
0.93983
0.906915
0.878549
0.852928
0.830437
0.809646
0.78811
0.785549
0.808186
0.847766
0.899436
0.962254
1.03571
1.11736
1.20131
1.27607
1.32287
1.32108
1.26464
1.17325
1.08029
1.01077
0.970784
0.950858
0.93805
0.930276
0.939532
0.978586
1.04691
1.13517
1.24061
1.36862
1.51917
1.67765
1.82001
1.92555
1.98522
2.00128
1.9821
1.93729
1.87513
1.80197
1.72236
1.63954
1.5558
1.47275
1.39154
1.31292
1.23741
1.16534
1.09686
1.03205
0.970869
0.913247
0.859058
0.808151
0.76036
0.715509
0.67342
0.63392
0.596841
0.562026
0.52933
0.498627
0.469818
0.442844
0.417713
0.394528
0.373527
0.355131
0.339958
0.328778
0.322458
0.32218
0.330038
0.349803
0.387546
0.445715
0.498745
0.489727
0.407946
0.311866
0.249211
0.224604
0.222062
0.221832
0.209032
0.181638
0.148764
0.119743
0.0982281
0.083692
0.0744309
0.0689236
0.0660281
0.0648004
0.0645194
0.0648188
0.0654627
0.06623
0.0672224
0.0688356
0.0717809
0.0771184
0.0862486
0.100815
0.122458
0.152322
0.190256
0.23387
0.278112
0.316351
0.343187
0.357236
0.361353
0.360082
0.356733
0.352245
0.345939
0.336927
0.325067
0.311128
0.296446
0.282472
0.270449
0.261274
0.255604
0.254408
0.259774
0.274008
0.295666
0.323236
0.354856
0.389066
0.425395
0.464419
0.506085
0.54688
0.578871
0.592422
0.580772
0.543142
0.484748
0.414388
0.3413
0.27279
0.213258
0.164312
0.125707
43.3625
1.13939
0.764427
0.734139
0.687957
0.650133
0.626567
0.620231
0.631816
0.659811
0.701528
0.754856
0.819943
0.89964
0.995179
1.10706
1.23198
1.36064
1.47928
1.5734
1.63203
1.65051
1.6309
1.58027
1.50808
1.42376
1.3351
1.24772
1.16569
1.09188
1.02805
0.974531
0.930348
0.893803
0.863759
0.840204
0.823246
0.813941
0.816619
0.831297
0.858929
0.899415
0.952103
1.01538
1.08582
1.15731
1.21931
1.25564
1.24934
1.19638
1.1143
1.03173
0.970031
0.93463
0.918381
0.913082
0.920826
0.95274
1.01504
1.10151
1.20399
1.32323
1.46289
1.61692
1.76703
1.8916
1.97619
2.01732
2.01975
1.99175
1.94175
1.87681
1.80236
1.72239
1.63981
1.55669
1.4745
1.39425
1.31664
1.24211
1.17096
1.1033
1.0392
0.978633
0.921511
0.867725
0.817136
0.769587
0.724917
0.682961
0.643556
0.606543
0.571775
0.53911
0.508426
0.479623
0.452634
0.427454
0.404168
0.383
0.364366
0.34893
0.337597
0.33146
0.331939
0.341318
0.363344
0.403654
0.464701
0.519849
0.508785
0.420399
0.315768
0.244061
0.211483
0.20358
0.20196
0.192668
0.172154
0.145925
0.121038
0.101246
0.0870924
0.0776891
0.0718829
0.0686237
0.0669887
0.0662694
0.0661262
0.0663965
0.0668638
0.0675545
0.0687839
0.0712094
0.075866
0.0841553
0.0977571
0.118409
0.147451
0.185039
0.22914
0.274904
0.315473
0.344733
0.360487
0.365201
0.363518
0.358997
0.352708
0.344018
0.332141
0.317138
0.300022
0.282347
0.265701
0.251351
0.240091
0.232346
0.228607
0.230021
0.23899
0.255059
0.277387
0.304874
0.337287
0.375222
0.419019
0.467038
0.514018
0.551156
0.568868
0.560788
0.526423
0.471071
0.403501
0.332915
0.266599
0.20894
0.161532
0.124123
39.3671
2.41524
0.806064
0.69744
0.652411
0.610139
0.579055
0.564278
0.567176
0.586564
0.620154
0.666446
0.726354
0.803256
0.900376
1.02
1.16028
1.31289
1.46346
1.5949
1.69221
1.7464
1.75591
1.72572
1.66479
1.58339
1.49091
1.3949
1.30104
1.21346
1.1349
1.06684
1.00962
0.962837
0.925938
0.898589
0.880487
0.871851
0.873933
0.886674
0.91059
0.945758
0.991427
1.0453
1.10295
1.15735
1.19788
1.21051
1.18393
1.12081
1.04078
0.968284