/*--------------------------------*- C++ -*----------------------------------*\
| =========                 |                                                 |
| \\      /  F ield         | OpenFOAM: The Open Source CFD Toolbox           |
|  \\    /   O peration     | Version:  2112                                  |
|   \\  /    A nd           | Website:  www.openfoam.com                      |
|    \\/     M anipulation  |                                                 |
\*---------------------------------------------------------------------------*/
FoamFile
{
    version     2.0;
    format      ascii;
    arch        "LSB;label=32;scalar=64";
    class       volScalarField;
    location    "0.25";
    object      nut;
}
// * * * * * * * * * * * * * * * * * * * * * * * * * * * * * * * * * * * * * //

dimensions      [0 2 -1 0 0 0 0];

internalField   nonuniform List<scalar> 
12225
(
4.70935e-07
5.00879e-07
4.87922e-07
4.67508e-07
4.505e-07
4.33522e-07
4.15794e-07
3.96866e-07
3.76286e-07
3.53513e-07
3.27882e-07
2.98615e-07
2.6483e-07
2.25436e-07
1.788e-07
1.20697e-07
4.28594e-08
1.1717e-07
3.16424e-07
1.06137e-07
5.50109e-08
3.77382e-08
3.09123e-08
2.7934e-08
2.65577e-08
2.59672e-08
2.58422e-08
2.60378e-08
2.64602e-08
2.70087e-08
2.75469e-08
2.78973e-08
2.7824e-08
2.68592e-08
2.31765e-08
2.60959e-08
3.05926e-06
1.77314e-06
1.24602e-06
9.3968e-07
7.2531e-07
5.6253e-07
4.34114e-07
3.31229e-07
2.4892e-07
1.84126e-07
1.34601e-07
9.82526e-08
7.28232e-08
5.59283e-08
4.53122e-08
3.90474e-08
3.53418e-08
3.3361e-08
6.27627e-06
4.75432e-06
3.84426e-06
3.23935e-06
2.79606e-06
2.44763e-06
2.15844e-06
1.90741e-06
1.68138e-06
1.47227e-06
1.27585e-06
1.09135e-06
9.20911e-07
7.68278e-07
6.36944e-07
5.28524e-07
4.41787e-07
3.72051e-07
7.6605e-06
6.69274e-06
5.88847e-06
5.24651e-06
4.72737e-06
4.29729e-06
3.93114e-06
3.61042e-06
3.32151e-06
3.05429e-06
2.80138e-06
2.55789e-06
2.32147e-06
2.09232e-06
1.87265e-06
1.66563e-06
1.47349e-06
1.29724e-06
8.10413e-06
7.56168e-06
7.01443e-06
6.50689e-06
6.05073e-06
5.64432e-06
5.28108e-06
4.95315e-06
4.65296e-06
4.37377e-06
4.10982e-06
3.85642e-06
3.61012e-06
3.36883e-06
3.13191e-06
2.89999e-06
2.67414e-06
2.45663e-06
8.23181e-06
7.88654e-06
7.52316e-06
7.16025e-06
6.80993e-06
6.47836e-06
6.16743e-06
5.87637e-06
5.60297e-06
5.34442e-06
5.09774e-06
4.86014e-06
4.62917e-06
4.4029e-06
4.18005e-06
3.9599e-06
3.74225e-06
3.52871e-06
8.26616e-06
7.9942e-06
7.7221e-06
7.45149e-06
7.18548e-06
6.92686e-06
6.67746e-06
6.43797e-06
6.20816e-06
5.98722e-06
5.77393e-06
5.56695e-06
5.36491e-06
5.16659e-06
4.97097e-06
4.77726e-06
4.58499e-06
4.39585e-06
8.27487e-06
8.02658e-06
7.79114e-06
7.56545e-06
7.34799e-06
7.13811e-06
6.93553e-06
6.74001e-06
6.55115e-06
6.36839e-06
6.19101e-06
6.01823e-06
5.84919e-06
5.68311e-06
5.51922e-06
5.35688e-06
5.19566e-06
5.03726e-06
8.27696e-06
8.03551e-06
7.81268e-06
7.60508e-06
7.41011e-06
7.2258e-06
7.05067e-06
6.88357e-06
6.72352e-06
6.56964e-06
6.42111e-06
6.27714e-06
6.13698e-06
5.99994e-06
5.86534e-06
5.7326e-06
5.60131e-06
5.47297e-06
8.27743e-06
8.03778e-06
7.81877e-06
7.61744e-06
7.43126e-06
7.2581e-06
7.09618e-06
6.94402e-06
6.80036e-06
6.66408e-06
6.53421e-06
6.40989e-06
6.2903e-06
6.17474e-06
6.06253e-06
5.95307e-06
5.84596e-06
5.74236e-06
8.27752e-06
8.03827e-06
7.82023e-06
7.62069e-06
7.43729e-06
7.26801e-06
7.1111e-06
6.96507e-06
6.82862e-06
6.70059e-06
6.58e-06
6.46595e-06
6.35762e-06
6.25429e-06
6.1553e-06
6.06004e-06
5.96809e-06
5.88037e-06
8.27754e-06
8.03839e-06
7.82063e-06
7.62166e-06
7.43923e-06
7.27141e-06
7.11655e-06
6.9732e-06
6.8401e-06
6.71615e-06
6.60037e-06
6.4919e-06
6.38996e-06
6.29387e-06
6.20297e-06
6.11672e-06
6.03469e-06
5.9576e-06
8.27754e-06
8.03842e-06
7.82073e-06
7.62192e-06
7.4398e-06
7.27251e-06
7.11841e-06
6.97613e-06
6.84444e-06
6.72228e-06
6.60873e-06
6.50295e-06
6.40422e-06
6.31188e-06
6.22533e-06
6.14405e-06
6.06767e-06
5.99677e-06
8.27754e-06
8.03842e-06
7.82075e-06
7.62199e-06
7.43998e-06
7.27286e-06
7.11903e-06
6.97714e-06
6.84597e-06
6.72449e-06
6.6118e-06
6.50709e-06
6.40967e-06
6.31889e-06
6.2342e-06
6.15511e-06
6.08124e-06
6.01317e-06
8.27754e-06
8.03841e-06
7.82076e-06
7.62203e-06
7.44008e-06
7.27307e-06
7.11939e-06
6.97768e-06
6.84675e-06
6.72557e-06
6.61323e-06
6.50895e-06
6.41202e-06
6.32182e-06
6.23781e-06
6.15949e-06
6.08652e-06
6.01942e-06
8.27753e-06
8.03841e-06
7.82077e-06
7.62209e-06
7.44021e-06
7.27329e-06
7.11975e-06
6.9782e-06
6.84746e-06
6.72649e-06
6.61439e-06
6.51035e-06
6.41367e-06
6.32374e-06
6.24e-06
6.16196e-06
6.08927e-06
6.02245e-06
8.27752e-06
8.0384e-06
7.82079e-06
7.62216e-06
7.44037e-06
7.27357e-06
7.12017e-06
6.97879e-06
6.84824e-06
6.72748e-06
6.61558e-06
6.51175e-06
6.41528e-06
6.32553e-06
6.24195e-06
6.16405e-06
6.09145e-06
6.02469e-06
8.27751e-06
8.03839e-06
7.82081e-06
7.62225e-06
7.44056e-06
7.27389e-06
7.12065e-06
6.97946e-06
6.8491e-06
6.72853e-06
6.61683e-06
6.51319e-06
6.41688e-06
6.32728e-06
6.24381e-06
6.16598e-06
6.09341e-06
6.02663e-06
8.2775e-06
8.03839e-06
7.82084e-06
7.62235e-06
7.44075e-06
7.2742e-06
7.1211e-06
6.98005e-06
6.84983e-06
6.72941e-06
6.61783e-06
6.5143e-06
6.41808e-06
6.32854e-06
6.24509e-06
6.16725e-06
6.09464e-06
6.02778e-06
8.27749e-06
8.03839e-06
7.82087e-06
7.62243e-06
7.44091e-06
7.27443e-06
7.12138e-06
6.98038e-06
6.8502e-06
6.72977e-06
6.61818e-06
6.51458e-06
6.41827e-06
6.3286e-06
6.245e-06
6.16696e-06
6.09411e-06
6.02699e-06
8.27748e-06
8.03836e-06
7.8208e-06
7.62227e-06
7.44056e-06
7.27379e-06
7.12035e-06
6.97882e-06
6.84799e-06
6.72681e-06
6.61436e-06
6.50982e-06
6.41249e-06
6.32173e-06
6.23699e-06
6.15777e-06
6.08371e-06
6.01535e-06
8.27737e-06
8.03782e-06
7.81935e-06
7.61929e-06
7.43538e-06
7.26574e-06
7.10884e-06
6.96337e-06
6.82822e-06
6.70245e-06
6.58524e-06
6.47584e-06
6.37363e-06
6.27802e-06
6.18851e-06
6.10461e-06
6.02599e-06
5.95322e-06
8.27606e-06
8.03235e-06
7.80623e-06
7.59516e-06
7.39751e-06
7.21223e-06
7.03864e-06
6.87614e-06
6.72403e-06
6.58174e-06
6.44871e-06
6.32438e-06
6.20818e-06
6.09955e-06
5.99794e-06
5.90285e-06
5.81385e-06
5.73141e-06
8.264e-06
7.98994e-06
7.71928e-06
7.45565e-06
7.20283e-06
6.9637e-06
6.73992e-06
6.53206e-06
6.34009e-06
6.16333e-06
6.00081e-06
5.8514e-06
5.71385e-06
5.58691e-06
5.4696e-06
5.361e-06
5.26029e-06
5.16749e-06
8.17109e-06
7.73276e-06
7.28636e-06
6.86551e-06
6.48348e-06
6.14323e-06
5.84278e-06
5.57807e-06
5.34462e-06
5.13817e-06
4.95489e-06
4.79146e-06
4.64513e-06
4.51351e-06
4.39436e-06
4.28581e-06
4.18627e-06
4.09502e-06
7.58163e-06
6.5557e-06
5.73823e-06
5.11319e-06
4.62979e-06
4.24872e-06
3.94235e-06
3.69149e-06
3.48276e-06
3.3067e-06
3.15638e-06
3.02661e-06
2.91336e-06
2.81346e-06
2.72435e-06
2.64392e-06
2.57041e-06
2.50264e-06
4.87196e-06
3.18846e-06
2.39668e-06
1.94057e-06
1.63989e-06
1.425e-06
1.26304e-06
1.13637e-06
1.03465e-06
9.51372e-07
8.82063e-07
8.23485e-07
7.73182e-07
7.29219e-07
6.90038e-07
6.54302e-07
6.20731e-07
5.88089e-07
7.05932e-07
2.52122e-07
1.22881e-07
7.27358e-08
5.0714e-08
4.00354e-08
3.42895e-08
3.08476e-08
2.85635e-08
2.69092e-08
2.563e-08
2.45984e-08
2.37484e-08
2.30454e-08
2.24721e-08
2.20236e-08
2.16885e-08
2.15006e-08
5.70937e-07
6.33456e-07
6.36985e-07
6.24142e-07
6.07336e-07
5.90378e-07
5.74372e-07
5.59594e-07
5.46085e-07
5.33802e-07
5.22657e-07
5.12542e-07
5.03338e-07
4.9492e-07
4.87157e-07
4.79899e-07
4.7335e-07
4.6875e-07
1.43332e-07
2.52574e-07
2.37441e-07
2.77729e-07
3.18866e-07
3.67896e-07
4.22162e-07
4.80063e-07
5.491e-07
6.15273e-07
6.60953e-07
6.80476e-07
6.68286e-07
6.19283e-07
5.28484e-07
4.08085e-07
2.72134e-07
2.53847e-07
2.62662e-07
2.84767e-07
3.09283e-07
3.40502e-07
3.73883e-07
3.88927e-07
3.77275e-07
2.98059e-07
3.29384e-07
5.23331e-07
6.97536e-07
8.56884e-07
1.00056e-06
1.12812e-06
1.23943e-06
1.33473e-06
1.41448e-06
1.47934e-06
1.53006e-06
1.56748e-06
1.59241e-06
1.6057e-06
1.60817e-06
1.60061e-06
1.58372e-06
1.55659e-06
1.52536e-06
1.49023e-06
1.45158e-06
1.40976e-06
1.36506e-06
1.3178e-06
1.26825e-06
1.21664e-06
1.16323e-06
1.10823e-06
1.05188e-06
9.94462e-07
9.36281e-07
8.7772e-07
8.1923e-07
7.61338e-07
7.04646e-07
6.49819e-07
5.97562e-07
5.48485e-07
5.02629e-07
4.68449e-07
4.33263e-07
3.96913e-07
3.59387e-07
3.20699e-07
2.8092e-07
2.40123e-07
1.97661e-07
1.87092e-07
2.13835e-07
2.43455e-07
2.71747e-07
2.97894e-07
3.21743e-07
3.43344e-07
3.62818e-07
3.8031e-07
3.95962e-07
4.09894e-07
4.22188e-07
4.32941e-07
4.42757e-07
4.5243e-07
4.58204e-07
4.57246e-07
4.50163e-07
4.3786e-07
4.22395e-07
4.06762e-07
3.9397e-07
3.86096e-07
3.82771e-07
3.82484e-07
3.85012e-07
3.89471e-07
3.95035e-07
4.01143e-07
4.07474e-07
4.1387e-07
4.2029e-07
4.26789e-07
4.33503e-07
4.40598e-07
4.48031e-07
4.54498e-07
4.68518e-07
4.86921e-07
5.08429e-07
5.32266e-07
5.57321e-07
5.77279e-07
5.76569e-07
5.43776e-07
4.15008e-07
2.86607e-07
4.35799e-07
6.139e-07
7.68012e-07
8.92763e-07
9.88301e-07
1.0562e-06
1.09831e-06
1.11628e-06
1.11219e-06
1.08278e-06
1.03654e-06
9.76826e-07
9.05397e-07
8.24585e-07
7.3744e-07
6.48194e-07
5.70605e-07
5.12758e-07
4.43586e-07
3.5591e-07
2.45551e-07
1.84071e-07
2.58046e-07
3.25493e-07
4.07575e-07
4.92996e-07
5.77863e-07
6.60982e-07
7.41569e-07
8.18218e-07
8.9226e-07
9.75909e-07
1.07157e-06
1.11669e-06
1.09948e-06
1.01265e-06
8.58215e-07
6.74187e-07
5.50126e-07
5.14582e-07
5.4553e-07
6.33551e-07
6.59285e-07
4.27974e-07
3.90608e-07
6.71974e-07
8.31118e-07
8.68183e-07
7.86516e-07
6.57714e-07
5.85973e-07
4.93246e-07
3.7077e-07
2.28454e-07
1.39979e-07
1.94278e-07
2.439e-07
2.76201e-07
3.00182e-07
3.07582e-07
2.26189e-07
7.4425e-08
4.4212e-08
2.95019e-08
2.12939e-08
1.6619e-08
1.40808e-08
1.30049e-08
1.31987e-08
3.0464e-08
7.25389e-08
1.27484e-07
1.81097e-07
2.19366e-07
2.30023e-07
2.0717e-07
1.60098e-07
1.11478e-07
8.57054e-08
7.86535e-08
1.07127e-07
1.6336e-07
2.01868e-07
2.22164e-07
2.35898e-07
2.51711e-07
2.78887e-07
3.03224e-07
3.14185e-07
3.14057e-07
3.04979e-07
2.89004e-07
2.68071e-07
2.43992e-07
2.18431e-07
1.92923e-07
1.68917e-07
1.47879e-07
1.31465e-07
1.21894e-07
1.22661e-07
1.39053e-07
1.72007e-07
1.95112e-07
2.21493e-07
2.51742e-07
2.865e-07
3.26476e-07
3.72451e-07
4.25257e-07
4.85758e-07
5.54814e-07
6.33224e-07
7.21641e-07
8.20457e-07
9.2965e-07
1.0486e-06
1.17587e-06
1.30906e-06
1.44469e-06
1.57828e-06
1.7047e-06
1.8189e-06
1.91701e-06
1.99848e-06
2.07046e-06
2.13837e-06
2.20152e-06
2.25665e-06
2.29597e-06
2.30398e-06
2.25442e-06
2.1092e-06
1.89668e-06
1.67927e-06
1.46846e-06
1.27268e-06
1.09607e-06
9.39747e-07
8.03009e-07
6.84238e-07
5.8145e-07
4.92596e-07
4.15673e-07
3.48715e-07
2.89781e-07
2.36813e-07
1.84776e-07
1.27506e-07
9.71233e-08
8.32622e-08
7.50808e-08
6.76091e-08
5.97838e-08
5.26528e-08
4.9494e-08
5.19989e-08
5.70724e-08
6.167e-08
6.39036e-08
6.30749e-08
5.94332e-08
5.3871e-08
4.75997e-08
4.17993e-08
3.72992e-08
3.44147e-08
3.30109e-08
3.27244e-08
3.32003e-08
3.45454e-08
3.75779e-08
4.44721e-08
5.98102e-08
9.04131e-08
1.33934e-07
1.84856e-07
2.09584e-07
1.81549e-07
1.60668e-07
1.60271e-07
1.51589e-07
1.34525e-07
1.1358e-07
9.24167e-08
7.39446e-08
6.10357e-08
5.80819e-08
7.37421e-08
9.54122e-08
1.18586e-07
1.50484e-07
1.93273e-07
2.47789e-07
3.11896e-07
3.79777e-07
4.44e-07
4.98171e-07
5.23563e-07
5.06066e-07
4.45337e-07
3.57444e-07
2.79868e-07
2.12154e-07
1.58746e-07
1.20036e-07
9.33165e-08
7.53892e-08
6.3664e-08
5.66041e-08
5.45461e-08
6.24903e-08
9.2799e-08
1.32564e-07
1.72332e-07
1.88214e-07
1.72782e-07
1.32166e-07
8.86889e-08
7.1173e-08
8.79812e-08
1.39914e-07
1.9208e-07
1.691e-07
1.13152e-07
7.9655e-08
3.60533e-08
1.57767e-08
1.91962e-08
1.97214e-08
2.02192e-08
1.88047e-08
1.49843e-08
1.113e-08
9.33169e-09
9.38977e-09
9.99979e-09
1.06241e-08
1.11508e-08
1.16164e-08
2.64254e-07
1.04778e-07
5.02528e-08
2.69571e-08
1.61472e-08
1.08583e-08
8.05294e-09
6.33133e-09
5.14031e-09
6.10876e-09
1.51171e-08
3.71665e-08
7.028e-08
1.052e-07
1.28885e-07
1.3065e-07
1.13608e-07
9.68065e-08
1.09584e-07
1.31571e-07
1.39887e-07
1.49558e-07
1.57792e-07
1.61916e-07
1.64042e-07
1.65264e-07
1.64944e-07
1.60547e-07
1.52558e-07
1.43447e-07
1.35734e-07
1.31933e-07
1.3477e-07
1.47745e-07
1.76198e-07
2.29072e-07
3.21415e-07
4.76301e-07
7.19508e-07
1.05119e-06
1.39818e-06
1.63698e-06
1.72166e-06
1.78242e-06
1.84501e-06
1.91017e-06
1.97818e-06
2.0493e-06
2.12378e-06
2.20184e-06
2.28364e-06
2.36924e-06
2.45856e-06
2.5513e-06
2.64689e-06
2.74439e-06
2.84244e-06
2.93923e-06
3.03244e-06
3.11939e-06
3.19715e-06
3.26284e-06
3.31398e-06
3.34882e-06
3.36666e-06
3.3678e-06
3.35303e-06
3.32333e-06
3.27974e-06
3.22292e-06
3.15268e-06
3.06759e-06
2.96623e-06
2.86563e-06
2.76491e-06
2.66357e-06
2.56246e-06
2.46233e-06
2.36374e-06
2.26709e-06
2.17267e-06
2.08064e-06
1.99108e-06
1.90395e-06
1.81888e-06
1.73479e-06
1.64861e-06
1.55165e-06
1.43273e-06
1.29897e-06
1.14268e-06
9.95781e-07
8.99915e-07
8.59461e-07
8.60697e-07
8.79143e-07
9.01372e-07
9.22125e-07
9.37412e-07
9.44402e-07
9.41286e-07
9.27046e-07
9.01248e-07
8.63971e-07
8.15898e-07
7.58432e-07
6.93529e-07
6.2291e-07
5.46733e-07
4.62766e-07
3.68842e-07
2.70402e-07
1.85374e-07
1.33192e-07
1.1652e-07
1.23915e-07
1.29427e-07
1.145e-07
9.04814e-08
7.28575e-08
5.9732e-08
4.88138e-08
4.27427e-08
4.41449e-08
5.78066e-08
9.63226e-08
1.88477e-07
3.59312e-07
5.134e-07
5.40001e-07
5.64695e-07
5.89683e-07
6.14848e-07
6.40113e-07
6.65401e-07
6.90542e-07
7.15147e-07
7.38558e-07
7.59748e-07
7.77522e-07
7.90474e-07
7.97255e-07
7.98678e-07
7.96522e-07
7.91171e-07
7.83101e-07
7.72669e-07
7.59911e-07
7.44186e-07
7.23196e-07
6.90621e-07
6.30966e-07
5.08602e-07
3.13226e-07
1.38246e-07
9.32474e-08
7.77588e-08
6.50759e-08
5.38476e-08
4.899e-08
5.75552e-08
8.3868e-08
1.06631e-07
8.2173e-08
3.34313e-08
1.07771e-08
5.31991e-09
2.31481e-08
3.12328e-08
3.41473e-08
3.45236e-08
3.13676e-08
2.59098e-08
1.95269e-08
1.34719e-08
8.54362e-09
5.01543e-09
2.76712e-09
1.48652e-09
8.80477e-10
4.58951e-07
1.12175e-07
3.51991e-08
1.40842e-08
8.57577e-09
8.00448e-09
8.53102e-09
8.15006e-09
6.81126e-09
5.42141e-09
7.66376e-09
1.99516e-08
4.41669e-08
7.40108e-08
9.71041e-08
1.03556e-07
1.02165e-07
1.10164e-07
1.17327e-07
1.20502e-07
1.22034e-07
1.23854e-07
1.24909e-07
1.25005e-07
1.24822e-07
1.24897e-07
1.25807e-07
1.2875e-07
1.36341e-07
1.52215e-07
1.81157e-07
2.29884e-07
3.08022e-07
4.28695e-07
6.06702e-07
8.49726e-07
1.13978e-06
1.42164e-06
1.63233e-06
1.75149e-06
1.80378e-06
1.82279e-06
1.83558e-06
1.8531e-06
1.87574e-06
1.90351e-06
1.93644e-06
1.97462e-06
2.01828e-06
2.06775e-06
2.12345e-06
2.18592e-06
2.25575e-06
2.33348e-06
2.41948e-06
2.51377e-06
2.61582e-06
2.72431e-06
2.83703e-06
2.95078e-06
3.06149e-06
3.16451e-06
3.25513e-06
3.3292e-06
3.38371e-06
3.41719e-06
3.42963e-06
3.42223e-06
3.39712e-06
3.35678e-06
3.30361e-06
3.23907e-06
3.16932e-06
3.10103e-06
3.03199e-06
2.96266e-06
2.89363e-06
2.82533e-06
2.75803e-06
2.6919e-06
2.62698e-06
2.56329e-06
2.50076e-06
2.43933e-06
2.37885e-06
2.31904e-06
2.25925e-06
2.19828e-06
2.13472e-06
2.06778e-06
1.99727e-06
1.926e-06
1.85858e-06
1.79837e-06
1.74651e-06
1.70206e-06
1.66323e-06
1.62783e-06
1.59364e-06
1.55854e-06
1.52059e-06
1.47802e-06
1.42906e-06
1.37176e-06
1.3039e-06
1.22321e-06
1.12752e-06
1.01414e-06
8.7896e-07
7.18551e-07
5.38508e-07
3.62316e-07
2.24154e-07
1.43822e-07
1.11285e-07
9.89189e-08
8.49872e-08
6.71821e-08
5.14051e-08
4.16887e-08
3.82595e-08
4.29493e-08
6.05351e-08
1.0043e-07
1.77733e-07
2.97477e-07
4.11549e-07
4.63013e-07
4.73961e-07
4.78377e-07
4.86496e-07
4.9821e-07
5.13412e-07
5.3201e-07
5.53882e-07
5.78828e-07
6.06496e-07
6.36317e-07
6.67438e-07
6.98721e-07
7.28736e-07
7.54117e-07
7.75098e-07
7.94155e-07
8.11597e-07
8.27826e-07
8.43208e-07
8.57916e-07
8.71837e-07
8.84524e-07
8.94809e-07
8.99652e-07
8.91074e-07
8.48811e-07
7.32825e-07
5.08922e-07
3.10285e-07
1.97006e-07
1.33665e-07
9.91562e-08
8.35546e-08
7.92928e-08
7.42608e-08
4.6281e-08
1.37557e-08
3.9291e-09
6.29709e-09
2.47475e-08
3.42286e-08
4.18136e-08
4.69989e-08
4.78191e-08
4.40782e-08
3.70672e-08
2.87201e-08
2.07755e-08
1.43118e-08
9.70171e-09
6.82275e-09
5.3354e-09
5.77986e-07
7.60917e-08
1.3879e-08
1.08721e-08
2.02681e-08
2.71153e-08
2.59532e-08
2.01466e-08
1.51973e-08
1.31581e-08
1.83898e-08
3.12164e-08
5.07663e-08
7.21622e-08
8.8601e-08
9.73107e-08
1.03066e-07
1.0682e-07
1.0775e-07
1.08313e-07
1.09428e-07
1.11428e-07
1.14305e-07
1.18714e-07
1.25811e-07
1.37196e-07
1.55234e-07
1.83467e-07
2.2693e-07
2.92135e-07
3.86773e-07
5.18125e-07
6.88484e-07
8.87094e-07
1.08439e-06
1.24173e-06
1.33642e-06
1.37478e-06
1.37933e-06
1.37089e-06
1.36174e-06
1.35755e-06
1.36154e-06
1.37147e-06
1.38711e-06
1.40838e-06
1.43533e-06
1.46806e-06
1.50677e-06
1.5517e-06
1.60322e-06
1.66183e-06
1.72827e-06
1.80356e-06
1.88902e-06
1.98603e-06
2.09575e-06
2.21863e-06
2.35387e-06
2.49903e-06
2.64981e-06
2.80024e-06
2.94328e-06
3.0717e-06
3.17936e-06
3.2622e-06
3.31869e-06
3.34911e-06
3.35596e-06
3.34231e-06
3.31146e-06
3.2665e-06
3.21659e-06
3.16305e-06
3.10673e-06
3.04887e-06
2.99045e-06
2.93217e-06
2.87454e-06
2.8179e-06
2.76243e-06
2.70824e-06
2.65536e-06
2.60379e-06
2.55344e-06
2.50418e-06
2.45575e-06
2.40782e-06
2.35993e-06
2.31151e-06
2.26201e-06
2.21134e-06
2.1599e-06
2.10843e-06
2.05765e-06
2.00798e-06
1.95944e-06
1.91166e-06
1.86393e-06
1.81529e-06
1.76456e-06
1.71026e-06
1.65043e-06
1.5824e-06
1.5027e-06
1.40719e-06
1.29096e-06
1.14802e-06
9.72786e-07
7.66634e-07
5.4755e-07
3.49719e-07
2.07363e-07
1.28719e-07
9.23575e-08
7.27542e-08
5.80474e-08
4.54325e-08
3.83105e-08
3.89315e-08
4.98072e-08
7.642e-08
1.2691e-07
2.05614e-07
2.94553e-07
3.52924e-07
3.69556e-07
3.68451e-07
3.667e-07
3.68569e-07
3.74279e-07
3.83753e-07
3.97018e-07
4.14171e-07
4.3533e-07
4.60573e-07
4.89837e-07
5.2281e-07
5.58828e-07
5.96905e-07
6.35459e-07
6.69243e-07
6.99789e-07
7.28587e-07
7.5569e-07
7.8138e-07
8.06037e-07
8.29943e-07
8.53146e-07
8.75437e-07
8.96416e-07
9.15503e-07
9.31435e-07
9.40304e-07
9.31959e-07
8.86262e-07
7.69498e-07
5.88544e-07
4.06472e-07
2.65935e-07
1.71261e-07
1.10054e-07
7.078e-08
3.64016e-08
1.17171e-08
4.28439e-09
5.70893e-09
1.45144e-08
2.77007e-08
4.15728e-08
5.33796e-08
6.02553e-08
6.07341e-08
5.54442e-08
4.64732e-08
3.62869e-08
2.6866e-08
1.93481e-08
1.41073e-08
1.09005e-08
6.18453e-07
3.36616e-08
1.70718e-08
5.63893e-08
4.65457e-08
3.75544e-08
3.10259e-08
2.75367e-08
2.78556e-08
3.01233e-08
3.6903e-08
4.83506e-08
6.32251e-08
7.825e-08
8.97151e-08
9.62793e-08
9.9561e-08
1.01256e-07
1.03039e-07
1.06232e-07
1.11356e-07
1.19051e-07
1.30281e-07
1.46682e-07
1.70555e-07
2.04987e-07
2.53992e-07
3.22342e-07
4.14637e-07
5.33039e-07
6.73352e-07
8.20826e-07
9.51018e-07
1.04067e-06
1.08189e-06
1.08456e-06
1.06606e-06
1.04102e-06
1.018e-06
1.00078e-06
9.90543e-07
9.88788e-07
9.90612e-07
9.9586e-07
1.0047e-06
1.0175e-06
1.03483e-06
1.05744e-06
1.08615e-06
1.12186e-06
1.1654e-06
1.21747e-06
1.2786e-06
1.34927e-06
1.43024e-06
1.52284e-06
1.62913e-06
1.75147e-06
1.89161e-06
2.04965e-06
2.22315e-06
2.40674e-06
2.59231e-06
2.76996e-06
2.92964e-06
3.06328e-06
3.16689e-06
3.23836e-06
3.28035e-06
3.29567e-06
3.28826e-06
3.26483e-06
3.23163e-06
3.19096e-06
3.14494e-06
3.09528e-06
3.04337e-06
2.99025e-06
2.93675e-06
2.88346e-06
2.83083e-06
2.77915e-06
2.7286e-06
2.67927e-06
2.63117e-06
2.58423e-06
2.5383e-06
2.49314e-06
2.44836e-06
2.40353e-06
2.35818e-06
2.31197e-06
2.26476e-06
2.21662e-06
2.1677e-06
2.1182e-06
2.06819e-06
2.01755e-06
1.96587e-06
1.91254e-06
1.85659e-06
1.79658e-06
1.73034e-06
1.65466e-06
1.56522e-06
1.45651e-06
1.32174e-06
1.1538e-06
9.49961e-07
7.20579e-07
4.93837e-07
3.05347e-07
1.78706e-07
1.07593e-07
7.21334e-08
5.48199e-08
4.37978e-08
3.78505e-08
3.97404e-08
5.24221e-08
8.06033e-08
1.29482e-07
1.97014e-07
2.62361e-07
2.97301e-07
3.01249e-07
2.93542e-07
2.86436e-07
2.83099e-07
2.83656e-07
2.87663e-07
2.95131e-07
3.06215e-07
3.21193e-07
3.40417e-07
3.64249e-07
3.92945e-07
4.26519e-07
4.64632e-07
5.06583e-07
5.50431e-07
5.90117e-07
6.2826e-07
6.65047e-07
7.00202e-07
7.33807e-07
7.66151e-07
7.97503e-07
8.27923e-07
8.57206e-07
8.84928e-07
9.10522e-07
9.33258e-07
9.51899e-07
9.63444e-07
9.60806e-07
9.29947e-07
8.44406e-07
6.91806e-07
4.98939e-07
3.1725e-07
1.80545e-07
9.54163e-08
4.52366e-08
1.85672e-08
8.90029e-09
7.99022e-09
1.29046e-08
2.48492e-08
4.18724e-08
5.90631e-08
7.18101e-08
7.71425e-08
7.46664e-08
6.62017e-08
5.46171e-08
4.2657e-08
3.22648e-08
2.44251e-08
1.90269e-08
6.02294e-07
1.69419e-08
5.81016e-08
6.19441e-08
5.16862e-08
4.49081e-08
4.14046e-08
4.13586e-08
4.24821e-08
4.65721e-08
5.38686e-08
6.38372e-08
7.48807e-08
8.46562e-08
9.15223e-08
9.58059e-08
9.9277e-08
1.03568e-07
1.09939e-07
1.19396e-07
1.32963e-07
1.52123e-07
1.78926e-07
2.16081e-07
2.66801e-07
3.34446e-07
4.21566e-07
5.27927e-07
6.4763e-07
7.67099e-07
8.67538e-07
9.334e-07
9.61005e-07
9.58849e-07
9.40292e-07
9.16558e-07
8.94266e-07
8.76196e-07
8.62907e-07
8.54e-07
8.48839e-07
8.46029e-07
8.43757e-07
8.42008e-07
8.41036e-07
8.41357e-07
8.43724e-07
8.49093e-07
8.58597e-07
8.73541e-07
8.95449e-07
9.2609e-07
9.67383e-07
1.02106e-06
1.08827e-06
1.16956e-06
1.26576e-06
1.37876e-06
1.51142e-06
1.66627e-06
1.84389e-06
2.04151e-06
2.25247e-06
2.46619e-06
2.66944e-06
2.8488e-06
2.99781e-06
3.10987e-06
3.18792e-06
3.2331e-06
3.25092e-06
3.24979e-06
3.23473e-06
3.20892e-06
3.17489e-06
3.1347e-06
3.09002e-06
3.04225e-06
2.99248e-06
2.94164e-06
2.89042e-06
2.83936e-06
2.78885e-06
2.73914e-06
2.69035e-06
2.64253e-06
2.59558e-06
2.54933e-06
2.50351e-06
2.45779e-06
2.41179e-06
2.36517e-06
2.31771e-06
2.26928e-06
2.21985e-06
2.16941e-06
2.11793e-06
2.06521e-06
2.0109e-06
1.95437e-06
1.89458e-06
1.8299e-06
1.75777e-06
1.67442e-06
1.57475e-06
1.45222e-06
1.29928e-06
1.11018e-06
8.87911e-07
6.51975e-07
4.34124e-07
2.64978e-07
1.51696e-07
8.7531e-08
5.68526e-08
4.39424e-08
3.7744e-08
3.88343e-08
5.02127e-08
7.5681e-08
1.18733e-07
1.76213e-07
2.3014e-07
2.57471e-07
2.57155e-07
2.45596e-07
2.34299e-07
2.26641e-07
2.22877e-07
2.22583e-07
2.25161e-07
2.30673e-07
2.39379e-07
2.51704e-07
2.68198e-07
2.89477e-07
3.16107e-07
3.48446e-07
3.86584e-07
4.30094e-07
4.7638e-07
5.20341e-07
5.64567e-07
6.08129e-07
6.50402e-07
6.91198e-07
7.30641e-07
7.68904e-07
8.05966e-07
8.41488e-07
8.7487e-07
9.05415e-07
9.32389e-07
9.54906e-07
9.71744e-07
9.80469e-07
9.75231e-07
9.42424e-07
8.56894e-07
6.99331e-07
4.91122e-07
2.9357e-07
1.55254e-07
7.68865e-08
3.82522e-08
2.20474e-08
1.75927e-08
2.05736e-08
3.12206e-08
4.94597e-08
7.0214e-08
8.7561e-08
9.70472e-08
9.71672e-08
8.92914e-08
7.64905e-08
6.21334e-08
4.89335e-08
3.82958e-08
3.03905e-08
5.5312e-07
1.70995e-08
6.80771e-08
6.80616e-08
5.96704e-08
5.51089e-08
5.38231e-08
5.40669e-08
5.64601e-08
6.1231e-08
6.7935e-08
7.56781e-08
8.32626e-08
8.97943e-08
9.53558e-08
1.01028e-07
1.08244e-07
1.18304e-07
1.325e-07
1.523e-07
1.79547e-07
2.16574e-07
2.66028e-07
3.30445e-07
4.11329e-07
5.07675e-07
6.14084e-07
7.19688e-07
8.1008e-07
8.73037e-07
9.04556e-07
9.09933e-07
8.99367e-07
8.82566e-07
8.65959e-07
8.5259e-07
8.43182e-07
8.3725e-07
8.33845e-07
8.31971e-07
8.30609e-07
8.2769e-07
8.22856e-07
8.16069e-07
8.07634e-07
7.98233e-07
7.88904e-07
7.80945e-07
7.75734e-07
7.74546e-07
7.78484e-07
7.88636e-07
8.06513e-07
8.3452e-07
8.75937e-07
9.33991e-07
1.01077e-06
1.10756e-06
1.22622e-06
1.36929e-06
1.53893e-06
1.73491e-06
1.95378e-06
2.1871e-06
2.42118e-06
2.6359e-06
2.82369e-06
2.97187e-06
3.08375e-06
3.15551e-06
3.19938e-06
3.22164e-06
3.22664e-06
3.21781e-06
3.19793e-06
3.16927e-06
3.13371e-06
3.09286e-06
3.04809e-06
3.00056e-06
2.95126e-06
2.90099e-06
2.85036e-06
2.79984e-06
2.74973e-06
2.70021e-06
2.65131e-06
2.60296e-06
2.55499e-06
2.50715e-06
2.45916e-06
2.41072e-06
2.36159e-06
2.31155e-06
2.26046e-06
2.2082e-06
2.1546e-06
2.09944e-06
2.04228e-06
1.98243e-06
1.91872e-06
1.84926e-06
1.77105e-06
1.67972e-06
1.56943e-06
1.43293e-06
1.26301e-06
1.05692e-06
8.24346e-07
5.90917e-07
3.87606e-07
2.32562e-07
1.28388e-07
7.14928e-08
4.66861e-08
3.80234e-08
3.69538e-08
4.51387e-08
6.58988e-08
1.02124e-07
1.51932e-07
2.01593e-07
2.29888e-07
2.30903e-07
2.18008e-07
2.03796e-07
1.92832e-07
1.8568e-07
1.81994e-07
1.81173e-07
1.82519e-07
1.86142e-07
1.92395e-07
2.01835e-07
2.15184e-07
2.33271e-07
2.56928e-07
2.86827e-07
3.23518e-07
3.67021e-07
4.12787e-07
4.60111e-07
5.08983e-07
5.5814e-07
6.06627e-07
6.5395e-07
6.99992e-07
7.44749e-07
7.88042e-07
8.2935e-07
8.67841e-07
9.02568e-07
9.32678e-07
9.5742e-07
9.76141e-07
9.8834e-07
9.92326e-07
9.81761e-07
9.39295e-07
8.35932e-07
6.55665e-07
4.37994e-07
2.55162e-07
1.40112e-07
7.96195e-08
5.1207e-08
4.05526e-08
4.1021e-08
5.02701e-08
6.90576e-08
9.20735e-08
1.12503e-07
1.24704e-07
1.2624e-07
1.18098e-07
1.0353e-07
8.64626e-08
7.03475e-08
5.64176e-08
4.55068e-08
4.95239e-07
1.83977e-08
7.74751e-08
7.52794e-08
6.85405e-08
6.55905e-08
6.48837e-08
6.57527e-08
6.86171e-08
7.30834e-08
7.86334e-08
8.47349e-08
9.10741e-08
9.78196e-08
1.05703e-07
1.15847e-07
1.29561e-07
1.48318e-07
1.73867e-07
2.08268e-07
2.53799e-07
3.12606e-07
3.85947e-07
4.73081e-07
5.6997e-07
6.68511e-07
7.57522e-07
8.26232e-07
8.68839e-07
8.86842e-07
8.87332e-07
8.79e-07
8.68872e-07
8.61089e-07
8.57236e-07
8.57224e-07
8.60091e-07
8.64537e-07
8.69227e-07
8.72958e-07
8.7379e-07
8.7143e-07
8.65258e-07
8.54838e-07
8.4012e-07
8.21639e-07
8.00666e-07
7.79192e-07
7.59653e-07
7.44436e-07
7.35329e-07
7.33198e-07
7.38179e-07
7.50535e-07
7.71911e-07
8.06142e-07
8.5833e-07
9.32858e-07
1.03286e-06
1.16035e-06
1.31706e-06
1.5029e-06
1.71717e-06
1.95518e-06
2.20695e-06
2.44447e-06
2.66047e-06
2.83751e-06
2.97125e-06
3.07039e-06
3.14005e-06
3.18526e-06
3.21043e-06
3.21919e-06
3.21444e-06
3.19852e-06
3.17341e-06
3.14083e-06
3.10232e-06
3.05925e-06
3.01282e-06
2.96408e-06
2.91388e-06
2.86291e-06
2.81169e-06
2.76054e-06
2.70968e-06
2.65916e-06
2.60892e-06
2.55883e-06
2.50867e-06
2.45819e-06
2.40714e-06
2.35527e-06
2.30235e-06
2.24813e-06
2.19239e-06
2.13478e-06
2.07483e-06
2.01174e-06
1.9442e-06
1.87004e-06
1.78585e-06
1.68666e-06
1.56599e-06
1.41633e-06
1.23149e-06
1.01234e-06
7.7449e-07
5.46214e-07
3.53879e-07
2.06798e-07
1.09666e-07
5.98986e-08
4.03456e-08
3.54074e-08
3.93851e-08
5.43656e-08
8.33028e-08
1.26177e-07
1.74151e-07
2.08228e-07
2.15836e-07
2.0478e-07
1.89094e-07
1.75748e-07
1.66149e-07
1.59981e-07
1.56687e-07
1.55523e-07
1.55721e-07
1.57452e-07
1.6119e-07
1.67632e-07
1.77651e-07
1.92262e-07
2.12525e-07
2.3932e-07
2.73648e-07
3.14966e-07
3.59806e-07
4.09054e-07
4.61253e-07
5.14899e-07
5.68738e-07
6.21949e-07
6.74119e-07
7.24988e-07
7.74131e-07
8.20764e-07
8.63783e-07
9.01988e-07
9.34385e-07
9.60357e-07
9.79625e-07
9.92452e-07
9.99398e-07
9.98491e-07
9.79384e-07
9.1896e-07
7.87198e-07
5.89818e-07
3.88126e-07
2.39308e-07
1.50773e-07
1.04312e-07
8.3704e-08
7.99209e-08
8.79275e-08
1.06014e-07
1.29866e-07
1.5148e-07
1.64247e-07
1.65137e-07
1.55008e-07
1.3742e-07
1.16837e-07
9.67957e-08
7.88319e-08
6.4264e-08
4.45324e-07
2.1289e-08
8.65353e-08
8.31708e-08
7.76534e-08
7.52555e-08
7.44851e-08
7.57337e-08
7.86131e-08
8.28089e-08
8.81237e-08
9.45559e-08
1.02382e-07
1.12207e-07
1.24958e-07
1.41867e-07
1.64468e-07
1.94605e-07
2.34342e-07
2.85682e-07
3.50048e-07
4.27444e-07
5.15472e-07
6.08592e-07
6.9832e-07
7.75056e-07
8.3129e-07
8.64559e-07
8.78082e-07
8.78712e-07
8.73824e-07
8.69062e-07
8.67607e-07
8.70512e-07
8.77433e-07
8.87277e-07
8.98637e-07
9.1004e-07
9.20058e-07
9.27386e-07
9.31334e-07
9.32133e-07
9.2867e-07
9.1974e-07
9.04264e-07
8.81683e-07
8.52474e-07
8.18592e-07
7.8349e-07
7.51464e-07
7.26492e-07
7.11118e-07
7.05966e-07
7.10138e-07
7.22568e-07
7.44309e-07
7.79704e-07
8.35024e-07
9.16864e-07
1.02886e-06
1.17293e-06
1.34717e-06
1.55153e-06
1.78458e-06
2.04319e-06
2.29304e-06
2.51917e-06
2.71352e-06
2.87165e-06
2.99463e-06
3.08637e-06
3.15163e-06
3.19485e-06
3.21973e-06
3.22916e-06
3.22551e-06
3.21076e-06
3.18666e-06
3.15482e-06
3.11674e-06
3.07377e-06
3.02713e-06
2.9779e-06
2.92694e-06
2.87497e-06
2.82251e-06
2.76993e-06
2.71745e-06
2.66512e-06
2.61291e-06
2.5607e-06
2.50828e-06
2.45541e-06
2.40182e-06
2.34721e-06
2.29126e-06
2.23363e-06
2.1739e-06
2.11149e-06
2.04551e-06
1.97451e-06
1.89609e-06
1.80643e-06
1.70005e-06
1.56993e-06
1.40857e-06
1.21111e-06
9.81972e-07
7.41192e-07
5.17439e-07
3.30084e-07
1.87025e-07
9.58027e-08
5.20717e-08
3.66044e-08
3.48393e-08
4.34257e-08
6.45068e-08
9.96983e-08
1.45013e-07
1.86004e-07
2.05025e-07
2.00425e-07
1.85397e-07
1.70525e-07
1.59183e-07
1.51415e-07
1.4653e-07
1.43806e-07
1.42344e-07
1.41344e-07
1.41089e-07
1.42215e-07
1.45588e-07
1.52225e-07
1.63285e-07
1.80071e-07
2.03487e-07
2.34898e-07
2.72316e-07
3.16479e-07
3.6649e-07
4.20904e-07
4.78077e-07
5.36495e-07
5.95013e-07
6.52881e-07
7.09506e-07
7.64123e-07
8.15596e-07
8.62492e-07
9.03361e-07
9.37097e-07
9.63207e-07
9.81833e-07
9.93718e-07
1.00042e-06
1.0028e-06
9.95845e-07
9.6329e-07
8.77396e-07
7.23043e-07
5.33614e-07
3.67772e-07
2.53717e-07
1.86452e-07
1.52716e-07
1.42593e-07
1.49141e-07
1.65308e-07
1.88252e-07
2.08442e-07
2.18712e-07
2.15986e-07
2.01373e-07
1.78932e-07
1.53579e-07
1.27714e-07
1.04523e-07
8.56181e-08
3.88128e-07
2.70935e-08
9.52517e-08
9.10939e-08
8.60557e-08
8.32069e-08
8.28082e-08
8.43517e-08
8.75731e-08
9.24101e-08
9.89958e-08
1.07665e-07
1.18972e-07
1.33725e-07
1.5305e-07
1.78422e-07
2.11629e-07
2.54594e-07
3.08988e-07
3.75631e-07
4.53716e-07
5.40076e-07
6.2887e-07
7.1219e-07
7.81896e-07
8.32214e-07
8.61811e-07
8.74e-07
8.74973e-07
8.71285e-07
8.67999e-07
8.68027e-07
8.72393e-07
8.80842e-07
8.92431e-07
9.05934e-07
9.20073e-07
9.33626e-07
9.45466e-07
9.54525e-07
9.61891e-07
9.67376e-07
9.69878e-07
9.67817e-07
9.59174e-07
9.4178e-07
9.14028e-07
8.76034e-07
8.30672e-07
7.83534e-07
7.41348e-07
7.09669e-07
6.91391e-07
6.86591e-07
6.93063e-07
7.09436e-07
7.3791e-07
7.83551e-07
8.54405e-07
9.55884e-07
1.09136e-06
1.25795e-06
1.45384e-06
1.67983e-06
1.9271e-06
2.17885e-06
2.41694e-06
2.62744e-06
2.80339e-06
2.9441e-06
3.05265e-06
3.13349e-06
3.19095e-06
3.2287e-06
3.24962e-06
3.25606e-06
3.24999e-06
3.23317e-06
3.20722e-06
3.17368e-06
3.134e-06
3.08949e-06
3.04134e-06
2.9906e-06
2.93813e-06
2.8846e-06
2.83054e-06
2.7763e-06
2.72207e-06
2.66792e-06
2.61382e-06
2.55962e-06
2.50511e-06
2.45e-06
2.39395e-06
2.33659e-06
2.27748e-06
2.2161e-06
2.15176e-06
2.08347e-06
2.00963e-06
1.92766e-06
1.83341e-06
1.72092e-06
1.58281e-06
1.41167e-06
1.20392e-06
9.67013e-07
7.23822e-07