/*--------------------------------*- C++ -*----------------------------------*\
| =========                 |                                                 |
| \\      /  F ield         | OpenFOAM: The Open Source CFD Toolbox           |
|  \\    /   O peration     | Version:  2112                                  |
|   \\  /    A nd           | Website:  www.openfoam.com                      |
|    \\/     M anipulation  |                                                 |
\*---------------------------------------------------------------------------*/
FoamFile
{
    version     2.0;
    format      ascii;
    arch        "LSB;label=32;scalar=64";
    class       volScalarField;
    location    "0.052";
    object      k;
}
// * * * * * * * * * * * * * * * * * * * * * * * * * * * * * * * * * * * * * //

dimensions      [0 2 -2 0 0 0 0];

internalField   nonuniform List<scalar> 
12225
(
2.69073e-05
2.60182e-05
2.97962e-05
3.41767e-05
4.73329e-05
7.52927e-05
8.56414e-05
8.521e-05
7.83023e-05
7.58103e-05
7.80667e-05
8.66845e-05
8.97996e-05
8.88284e-05
7.9519e-05
5.40062e-05
3.09409e-05
0.000103091
2.00534e-05
2.0771e-05
2.14557e-05
2.23685e-05
2.49493e-05
3.27823e-05
3.90046e-05
4.12637e-05
4.14308e-05
4.13092e-05
4.1475e-05
4.30505e-05
4.93018e-05
5.48542e-05
5.59676e-05
5.5112e-05
4.9684e-05
5.125e-05
2.00074e-05
9.41888e-06
9.70505e-06
1.21783e-05
1.45066e-05
1.60365e-05
1.70248e-05
1.76347e-05
1.79329e-05
1.81201e-05
1.84078e-05
1.92195e-05
2.076e-05
2.16202e-05
2.26673e-05
2.53044e-05
2.6603e-05
2.65106e-05
2.0125e-05
2.00305e-05
2.00529e-05
2.00688e-05
1.97877e-05
1.94416e-05
1.93218e-05
1.91279e-05
1.86583e-05
1.68118e-05
1.45289e-05
1.39281e-05
1.39385e-05
1.40261e-05
1.39977e-05
1.34027e-05
1.24341e-05
1.22533e-05
2.16359e-05
2.10577e-05
2.20938e-05
2.29781e-05
2.30542e-05
2.26612e-05
2.19324e-05
2.16532e-05
2.14311e-05
2.09453e-05
2.0212e-05
1.96721e-05
1.94681e-05
1.94568e-05
1.94353e-05
1.92925e-05
1.88358e-05
1.82834e-05
3.90198e-05
2.54498e-05
2.08126e-05
2.07673e-05
2.21581e-05
2.78977e-05
3.18328e-05
3.17559e-05
2.90815e-05
2.55238e-05
2.34456e-05
2.25026e-05
2.2321e-05
2.24539e-05
2.31295e-05
2.57976e-05
2.7974e-05
2.83026e-05
3.34411e-05
2.77071e-05
2.12767e-05
2.05067e-05
2.07977e-05
2.23775e-05
2.59344e-05
2.88315e-05
2.98312e-05
2.8394e-05
2.4487e-05
2.26067e-05
2.20421e-05
2.20088e-05
2.20766e-05
2.26197e-05
2.48201e-05
3.04368e-05
2.25679e-05
2.12075e-05
2.03029e-05
2.03392e-05
2.11348e-05
2.52863e-05
3.00967e-05
3.06345e-05
2.91963e-05
2.53573e-05
2.3029e-05
2.20068e-05
2.1698e-05
2.16018e-05
2.15697e-05
2.17211e-05
2.26922e-05
2.70246e-05
2.08507e-05
2.19268e-05
2.17076e-05
2.09243e-05
2.10177e-05
2.2699e-05
3.22814e-05
4.4376e-05
4.60988e-05
4.30577e-05
3.66954e-05
3.41789e-05
3.30063e-05
3.0551e-05
2.68647e-05
2.49297e-05
2.45283e-05
2.47362e-05
2.30322e-05
2.62803e-05
2.53294e-05
2.28996e-05
2.25658e-05
2.27987e-05
2.41239e-05
3.04262e-05
5.97373e-05
9.15786e-05
9.86952e-05
9.70698e-05
8.39616e-05
5.66972e-05
3.95626e-05
3.06315e-05
2.59451e-05
2.37945e-05
2.3312e-05
3.99119e-05
4.22473e-05
3.39316e-05
2.56542e-05
2.47767e-05
2.84723e-05
5.22694e-05
7.65191e-05
7.88379e-05
7.23289e-05
6.23353e-05
5.68094e-05
5.25941e-05
4.78889e-05
4.2092e-05
3.60178e-05
3.07868e-05
2.31606e-05
3.70458e-05
3.49331e-05
2.66216e-05
2.27167e-05
2.20836e-05
2.2895e-05
2.86734e-05
5.2219e-05
7.4203e-05
8.00971e-05
7.87447e-05
6.86162e-05
5.40715e-05
4.5281e-05
3.94504e-05
3.49573e-05
3.12677e-05
2.34548e-05
2.79712e-05
2.72454e-05
2.49534e-05
2.37709e-05
2.39299e-05
2.68403e-05
4.13306e-05
5.33042e-05
5.37266e-05
4.69926e-05
3.69421e-05
3.09236e-05
2.72697e-05
2.52338e-05
2.43749e-05
2.38547e-05
2.37178e-05
2.0216e-05
2.73302e-05
3.8457e-05
3.97636e-05
3.55761e-05
2.68871e-05
2.38597e-05
2.37608e-05
2.53418e-05
2.89351e-05
2.96648e-05
2.90346e-05
2.62692e-05
2.37412e-05
2.23178e-05
2.15538e-05
2.11646e-05
2.10248e-05
2.00196e-05
2.06387e-05
2.40047e-05
2.90622e-05
2.92562e-05
2.55189e-05
2.26307e-05
2.18459e-05
2.17787e-05
2.19622e-05
2.29415e-05
2.41359e-05
2.44811e-05
2.44573e-05
2.42602e-05
2.37136e-05
2.3124e-05
2.26193e-05
2.06841e-05
2.22898e-05
2.43528e-05
2.52779e-05
2.41777e-05
2.25077e-05
2.16123e-05
2.15844e-05
2.23462e-05
2.45782e-05
2.55382e-05
2.56121e-05
2.54932e-05
2.52874e-05
2.50583e-05
2.4518e-05
2.34774e-05
2.26759e-05
2.13714e-05
2.38395e-05
2.32003e-05
2.24801e-05
2.20063e-05
2.1488e-05
2.11956e-05
2.10538e-05
2.10256e-05
2.10369e-05
2.10792e-05
2.1141e-05
2.12923e-05
2.18476e-05
2.22718e-05
2.23335e-05
2.22752e-05
2.20413e-05
2.07419e-05
2.13669e-05
2.15093e-05
2.11429e-05
2.06092e-05
2.04971e-05
2.05178e-05
2.06561e-05
2.10718e-05
2.25437e-05
2.47724e-05
2.58161e-05
2.59178e-05
2.54654e-05
2.39185e-05
2.2975e-05
2.26632e-05
2.25958e-05
2.04574e-05
2.26004e-05
2.22685e-05
2.17689e-05
2.17166e-05
2.17443e-05
2.13849e-05
2.11574e-05
2.1277e-05
2.22844e-05
2.36795e-05
2.40492e-05
2.39463e-05
2.32345e-05
2.26692e-05
2.25937e-05
2.27594e-05
2.39016e-05
2.10525e-05
2.06675e-05
2.04254e-05
2.05325e-05
2.08389e-05
2.22119e-05
2.32485e-05
2.30132e-05
2.28623e-05
2.31158e-05
2.38198e-05
2.40199e-05
2.37265e-05
2.26342e-05
2.21159e-05
2.20583e-05
2.22701e-05
2.37095e-05
2.04494e-05
2.0351e-05
2.03155e-05
2.07368e-05
2.10372e-05
2.10474e-05
2.10948e-05
2.15129e-05
2.18692e-05
2.19326e-05
2.18657e-05
2.14394e-05
2.0899e-05
2.0625e-05
2.05249e-05
2.05088e-05
2.05246e-05
2.0626e-05
2.04717e-05
2.03684e-05
2.05132e-05
2.06475e-05
2.07322e-05
2.0862e-05
2.15466e-05
2.25424e-05
2.28612e-05
2.28532e-05
2.25326e-05
2.18205e-05
2.13768e-05
2.1178e-05
2.11377e-05
2.11729e-05
2.14872e-05
2.22016e-05
2.00909e-05
2.15949e-05
2.61794e-05
2.66773e-05
2.50086e-05
2.30747e-05
2.27151e-05
2.2948e-05
2.37838e-05
2.45729e-05
2.50588e-05
2.51498e-05
2.49524e-05
2.38493e-05
2.27711e-05
2.22945e-05
2.21807e-05
2.22211e-05
2.00339e-05
2.13156e-05
2.25837e-05
2.34093e-05
2.61651e-05
2.7165e-05
2.69466e-05
2.71616e-05
2.88156e-05
3.5881e-05
5.01957e-05
5.62607e-05
5.53925e-05
4.54148e-05
3.32529e-05
2.69505e-05
2.37598e-05
2.24343e-05
2.00979e-05
2.05005e-05
2.08893e-05
2.19487e-05
2.32719e-05
2.36429e-05
2.35665e-05
2.31985e-05
2.31522e-05
2.34207e-05
2.46902e-05
2.94754e-05
4.20781e-05
5.07055e-05
5.18699e-05
4.83027e-05
3.77444e-05
3.05907e-05
2.07189e-05
2.15978e-05
2.16359e-05
2.17062e-05
2.21615e-05
2.24917e-05
2.25735e-05
2.27065e-05
2.33886e-05
2.76742e-05
3.50973e-05
3.68592e-05
3.63737e-05
3.36681e-05
3.26242e-05
3.30288e-05
3.55924e-05
3.68345e-05
2.04409e-05
2.06277e-05
2.04184e-05
2.01971e-05
2.02292e-05
2.03463e-05
2.03659e-05
2.03709e-05
2.03594e-05
2.0299e-05
2.00222e-05
1.94936e-05
1.9212e-05
1.91639e-05
1.91788e-05
1.9245e-05
1.94268e-05
1.95577e-05
2.00166e-05
1.71674e-05
1.47888e-05
1.34357e-05
1.33468e-05
1.35132e-05
1.36719e-05
1.36314e-05
1.33392e-05
1.31767e-05
1.3182e-05
1.3314e-05
1.38593e-05
1.60128e-05
1.93973e-05
2.14834e-05
2.24454e-05
2.27001e-05
2.00564e-05
2.07309e-05
2.52452e-05
3.02239e-05
3.1273e-05
3.06905e-05
2.76745e-05
2.40401e-05
2.22683e-05
2.1829e-05
2.19365e-05
2.29506e-05
2.70686e-05
4.16869e-05
5.96603e-05
7.00203e-05
7.44015e-05
7.5428e-05
4.15279e-05
4.85491e-05
0.000102741
0.000130249
0.000130584
0.000111946
7.09476e-05
4.51404e-05
3.30048e-05
2.99324e-05
3.07682e-05
3.93315e-05
7.93618e-05
0.000134169
0.000164409
0.000176177
0.000178227
0.000176526
0.0920145
0.099412
0.0905747
0.08706
0.0848272
0.0785274
0.0744554
0.0723627
0.072233
0.0735259
0.0792627
0.0823975
0.0824855
0.0803702
0.0767524
0.0726958
0.0694117
0.0675533
0.0664439
0.065216
0.0640264
0.0634026
0.0632707
0.063975
0.0655017
0.0677589
0.0705911
0.0736802
0.0765175
0.0789312
0.08116
0.0829325
0.0840938
0.0846507
0.0847541
0.0844529
0.0837711
0.0814458
0.0790705
0.0740895
0.0692859
0.0824952
0.164944
0.308502
0.345075
0.348168
0.321747
0.23889
0.193926
0.17596
0.170615
0.172356
0.176108
0.177004
0.176157
0.175229
0.170554
0.168534
0.165079
0.16269
0.162785
0.163868
0.166141
0.169229
0.170052
0.166789
0.166997
0.201793
0.389594
0.518585
0.514566
0.38019
0.197347
0.107042
0.0602011
0.0345529
0.0245476
0.0218991
0.0222897
0.0237323
0.0251695
0.0262886
0.0270622
0.0274744
0.0276465
0.0275864
0.027277
0.0266355
0.025575
0.0240305
0.0220662
0.0198453
0.0171821
0.0143661
0.011898
0.00960518
0.00709296
0.00585118
0.00457301
0.00405712
0.00387844
0.00402369
0.00408546
0.00416227
0.00419916
0.00421802
0.00422324
0.00419951
0.00417321
0.00413544
0.00409576
0.0040567
0.00402188
0.00399817
0.00396856
0.00395167
0.00393095
0.00391342
0.00389552
0.00387744
0.0038594
0.00383103
0.00379912
0.00376613
0.0037344
0.00370866
0.00368855
0.00366522
0.00363141
0.00357149
0.00348555
0.00334203
0.0031857
0.00301326
0.00281038
0.00270211
0.00270175
0.00274298
0.00282527
0.00285857
0.00285256
0.00278073
0.00264665
0.00252813
0.00242562
0.00233864
0.00225989
0.00216111
0.00201557
0.00183088
0.0016616
0.00155937
0.0015235
0.00151424
0.00149704
0.00143484
0.00123169
0.00107552
0.00100253
0.000923086
0.000795587
0.000634442
0.000477241
0.000354184
0.000269039
0.000213746
0.000177997
0.000144002
0.000104997
7.50245e-05
5.71779e-05
4.56653e-05
3.73727e-05
3.12264e-05
2.57898e-05
2.09366e-05
1.72321e-05
1.39368e-05
2.28885e-05
1.12559e-05
0.0913826
0.0734903
0.0850615
0.0898258
0.0856977
0.0723876
0.0607805
0.0551937
0.053139
0.0508761
0.0504288
0.0512754
0.0535483
0.0550473
0.0558565
0.0570466
0.059497
0.0632749
0.0671617
0.0700543
0.0746235
0.0859205
0.0971072
0.102272
0.105225
0.106552
0.107098
0.107243
0.107132
0.106297
0.10513
0.103895
0.10289
0.10208
0.101397
0.100937
0.100643
0.100139
0.0983067
0.0924667
0.0802089
0.075908
0.101329
0.211745
0.300679
0.316734
0.311655
0.277135
0.263963
0.255555
0.255032
0.262279
0.265795
0.266234
0.262826
0.2581
0.249096
0.238224
0.227067
0.209741
0.188086
0.170381
0.162392
0.16741
0.184415
0.20325
0.235709
0.322027
0.43088
0.45838
0.352267
0.188002
0.100434
0.0552134
0.0322103
0.0213575
0.0167238
0.0147965
0.0139493
0.0133693
0.0129497
0.0125736
0.0122183
0.0117977
0.011364
0.0108825
0.0102703
0.00949563
0.0086812
0.00780104
0.00697499
0.00627738
0.00573374
0.00546535
0.00535129
0.00533407
0.00557538
0.00604572
0.00657643
0.00747401
0.00831786
0.00935942
0.0100604
0.0106933
0.0109936
0.0111231
0.0111339
0.0107982
0.0104671
0.0100231
0.00956664
0.00913883
0.00875196
0.0084784
0.00819304
0.00799215
0.00778831
0.00759996
0.00739246
0.00715427
0.00688889
0.00656278
0.00615796
0.00568232
0.00518553
0.00473392
0.00438046
0.00415244
0.00405634
0.0040598
0.00418637
0.00437787
0.00450034
0.00453636
0.0045261
0.00444726
0.00430678
0.00420366
0.00412609
0.00407251
0.00403645
0.00400259
0.00397452
0.00392791
0.00382208
0.00364406
0.00344822
0.00327758
0.00313108
0.00299097
0.0028533
0.00271041
0.00254687
0.00236543
0.00217855
0.00197889
0.0017762
0.00161071
0.00150421
0.00144948
0.00142794
0.00142213
0.00142051
0.00141648
0.00140292
0.00135187
0.00124267
0.00114872
0.001065
0.000997918
0.000959931
0.000927728
0.000859009
0.000742332
0.000623199
0.000492249
0.00040573
0.000302091
0.000265273
0.000179478
0.0879524
0.0836867
0.0759591
0.0669303
0.0549049
0.0487614
0.0488874
0.0501318
0.0505201
0.0507813
0.051906
0.0539318
0.0563472
0.0586675
0.0611133
0.0670092
0.078515
0.0884158
0.0971938
0.101442
0.103599
0.104284
0.1037
0.101336
0.099845
0.0965008
0.0915927
0.0869904
0.0825752
0.0787547
0.0761864
0.074714
0.0740802
0.0738978
0.0742422
0.0759843
0.0775298
0.0782035
0.0784416
0.0773279
0.0732775
0.0724993
0.0758335
0.0962807
0.150604
0.252346
0.315133
0.310783
0.305783
0.296016
0.281733
0.276499
0.275308
0.275074
0.273559
0.269868
0.263536
0.251393
0.241904
0.233381
0.215214
0.188835
0.157206
0.141135
0.157259
0.211243
0.261051
0.294081
0.260825
0.163506
0.0850573
0.0466677
0.0275618
0.0179852
0.0133457
0.0112124
0.0102319
0.00974362
0.00944173
0.00918963
0.0088851
0.00838699
0.00791827
0.0074641
0.00700395
0.00640642
0.00586142
0.00555767
0.00537471
0.0053078
0.00530623
0.0055026
0.00583974
0.00630342
0.0073889
0.00896392
0.0112067
0.0142556
0.0180511
0.0225804
0.0276343
0.0322546
0.0354547
0.0378009
0.038954
0.0394105
0.0394243
0.0383322
0.0366376
0.0344576
0.0320469
0.0296408
0.0274758
0.0258369
0.0245652
0.0235349
0.0226013
0.0217359
0.0208351
0.0199175
0.0190406
0.0183033
0.0172076
0.0154907
0.0132651
0.0108073
0.00856775
0.0066277
0.0050753
0.00406535
0.00358192
0.0034848
0.00363498
0.00418656
0.00454877
0.00470733
0.00475513
0.00475944
0.00475034
0.00471853
0.00466139
0.0045861
0.00450638
0.00444083
0.00438273
0.00428795
0.0041066
0.00382226
0.00345852
0.00307626
0.00276367
0.00259135
0.00251526
0.0024304
0.00223307
0.00190139
0.00160166
0.00137996
0.00122497
0.00111597
0.0010485
0.00102188
0.00102121
0.00104607
0.00110382
0.00112715
0.00112771
0.00111032
0.00103505
0.000960054
0.000919081
0.00088703
0.00086432
0.000844344
0.000816105
0.000744473
0.000658468
0.000538559
0.000458508
0.000349467
0.0469174
0.0454931
0.0420313
0.0409211
0.0425547
0.0461717
0.0570136
0.06321
0.0603448
0.0610123
0.0674557
0.0746065
0.0814901
0.0849402
0.0890326
0.0938536
0.0960551
0.0969268
0.0971146
0.0959194
0.090351
0.0826911
0.0721223
0.0646448
0.0562292
0.0515677
0.0469507
0.0438014
0.0422245
0.0409219
0.0403447
0.0401366
0.0402847
0.0412774
0.0424964
0.0447157
0.047281
0.0512105
0.0558046
0.0609685
0.066357
0.0724939
0.0793054
0.0856814
0.0900607
0.0999279
0.13827
0.168648
0.188802
0.202705
0.210247
0.210476
0.208421
0.203545
0.195818
0.18458
0.17942
0.170924
0.162077
0.163163
0.173216
0.183207
0.171566
0.122902
0.113371
0.143541
0.162295
0.129153
0.0832529
0.0467577
0.0268892
0.0173447
0.012682
0.0103912
0.00926933
0.0086372
0.0081417
0.00769937
0.00732863
0.00693369
0.0064847
0.00595696
0.00554489
0.00528107
0.00503202
0.00488166
0.00483935
0.00492166
0.00523101
0.0056497
0.00642548
0.00784526
0.0102054
0.014021
0.0200308
0.0288166
0.039616
0.0478709
0.0537909
0.0581012
0.0600552
0.0610288
0.0620184
0.0625233
0.0632973
0.0640561
0.0649619
0.0659891
0.0669603
0.0675713
0.0674424
0.0662759
0.0642229
0.0614451
0.0583269
0.055237
0.0523055
0.0494885
0.0465797
0.0437737
0.0411927
0.0385065
0.0358126
0.0332368
0.0307051
0.0278326
0.0241833
0.0197264
0.0146327
0.00987352
0.00644831
0.00423498
0.00315239
0.00289358
0.00303108
0.00376078
0.00436437
0.00466094
0.00482258
0.00487657
0.00487707
0.00485819
0.00480241
0.0047156
0.00462493
0.00454862
0.0044933
0.0044515
0.00440329
0.00430978
0.00407694
0.00359872
0.00316247
0.00292213
0.00278231
0.00251812
0.00210822
0.00176312
0.00159375
0.00153151
0.00144822
0.00122686
0.0010068
0.000903439
0.000874215
0.000873856
0.000889293
0.000898091
0.000891336
0.000843828
0.000701226
0.000599001
0.000559884
0.0005513
0.000552259
0.000551701
0.000548109
0.000536244
0.000506677
0.000419761
0.0282505
0.0317789
0.036719
0.0430532
0.0578675
0.0647843
0.068394
0.0725303
0.0779087
0.0840996
0.0878048
0.0892003
0.0898735
0.0902149
0.0905428
0.0907114
0.0871541
0.0808111
0.0703402
0.05939
0.0494675
0.0433947
0.0381425
0.0340915
0.030972
0.0290036
0.0268524
0.0257938
0.0246001
0.0240143
0.0236385
0.0235277
0.0239515
0.0245877
0.0257091
0.0275043
0.029843
0.0331171
0.0373055
0.0430318
0.0502987
0.0593028
0.0691432
0.077064
0.0804279
0.0814781
0.0807564
0.0801771
0.0776778
0.0738502
0.0728989
0.0710426
0.0691016
0.0667503
0.0647429
0.0628647
0.0618079
0.0619231
0.062984
0.0666876
0.0751788
0.0942421
0.111161
0.108959
0.0862899
0.0837286
0.0737777
0.0507146
0.0307997
0.0189867
0.0131691
0.010332
0.00883275
0.00794537
0.00732155
0.00685186
0.00645397
0.00613009
0.00585953
0.0055509
0.00518059
0.00480531
0.0046253
0.00453328
0.00450543
0.00456856
0.00483737
0.0052444
0.00617903
0.00787604
0.0108576
0.0160217
0.0247966
0.0389503
0.051681
0.058066
0.0614458
0.0629248
0.063442
0.0635052
0.0628583
0.0623057
0.062103
0.0619941
0.0618963
0.0619825
0.0625206
0.0639513
0.0669644
0.0706428
0.0734315
0.0754922
0.0764598
0.076379
0.0752632
0.0730888
0.0700947
0.0664827
0.0621022
0.0570754
0.0515144
0.0460643
0.0414563
0.0379857
0.0355676
0.0338977
0.0324687
0.0311304
0.0291918
0.0252247
0.0188909
0.0122098
0.00716863
0.00405004
0.00269984
0.00247461
0.00265789
0.00354361
0.00429913
0.00465282
0.00477919
0.00479269
0.0047774
0.00473181
0.00469507
0.00462929
0.0044942
0.00435383
0.00425722
0.00420555
0.00415769
0.00405835
0.00374772
0.00328244
0.00298694
0.00280026
0.00266451
0.00257764
0.00253668
0.00248927
0.00235691
0.00211948
0.0018714
0.00161893
0.00139343
0.0012188
0.0011103
0.00106554
0.00104082
0.000992524
0.000860488
0.000659991
0.000504004
0.000438359
0.000430017
0.000442152
0.000499435
0.000539646
0.000542425
0.00050966
0.0292712
0.0390689
0.051424
0.0589733
0.0635467
0.0686949
0.0757094
0.0813965
0.0848683
0.0867103
0.0872909
0.0872415
0.0849188
0.0810879
0.074211
0.061818
0.0513557
0.0406886
0.0336221
0.0276905
0.0238882
0.0208696
0.0179819
0.0164932
0.014736
0.0138999
0.0129558
0.0125017
0.0119627
0.0117037
0.0115492
0.0114036
0.0113199
0.0111614
0.0110251
0.0109788
0.0111087
0.011253
0.0116197
0.0125211
0.0136437
0.0155742
0.0181688
0.0209709
0.0235096
0.0259759
0.02865
0.03057
0.033324
0.0367348
0.0375029
0.0389606
0.0402817
0.0413624
0.0423302
0.043543
0.0438594
0.0438446
0.0439157
0.0456618
0.0514794
0.0665843
0.0895194
0.0891358
0.064191
0.0491194
0.036142
0.0234745
0.0152947
0.0110783
0.00898137
0.00784739
0.00713092
0.00663749
0.0062676
0.005995
0.00574802
0.0055231
0.00524934
0.00486224
0.00455551
0.00443021
0.00438619
0.00438419
0.00450197
0.00471222
0.0053336
0.0066092
0.00906056
0.0135355
0.0219156
0.0376776
0.0528589
0.0591605
0.0618374
0.0623898
0.0617704
0.059472
0.0573943
0.0568738
0.0569747
0.0581719
0.0586397
0.058736
0.0575025
0.0556577
0.053118
0.0502678
0.0480927
0.0482928
0.0534492
0.0619381
0.0706297
0.0745123
0.0759344
0.0750765
0.0727924
0.0695355
0.0653176
0.0603613
0.0547111
0.0485144
0.0427886
0.0384677
0.0356593
0.0340193
0.0329336
0.0322057
0.0317583
0.0312323
0.0301221
0.0269545
0.0196427
0.0120236
0.00638691
0.00337848
0.00230045
0.00218347
0.00246585
0.0035188
0.00420846
0.00450385
0.00461662
0.0046339
0.00462811
0.00460531
0.00456507
0.0044827
0.00427158
0.00407227
0.00396756
0.00391856
0.00384927
0.00365323
0.00323498
0.00293978
0.00278357
0.00271836
0.00269712
0.00268265
0.00265156
0.00255838
0.0022628
0.0019074
0.00165255
0.00150278
0.00142031
0.00137552
0.00135684
0.00134155
0.00130708
0.00120265
0.00094963
0.000748118
0.000645072
0.000619472
0.00062835
0.000696847
0.000768911
0.000763679
0.0339839
0.047747
0.0555188
0.0608265
0.0664582
0.0733405
0.0786574
0.0811878
0.0823061
0.0819976
0.0776548
0.0703235
0.0585062
0.0478197
0.0371716
0.0303997
0.0243382
0.0199441
0.0174254
0.0151982
0.0141694
0.0132795
0.0127091
0.012363
0.0120249
0.0118807
0.0118021
0.0117671
0.0117336
0.0116624
0.011451
0.0112345
0.0110484
0.0106267
0.0100142
0.00951242
0.00907295
0.00839216
0.00765108
0.00712698
0.00626586
0.005643
0.00497396
0.00457692
0.00435581
0.00438064
0.00478232
0.0056325
0.00730755
0.0110963
0.0194271
0.0274105
0.0328285
0.0367515
0.041181
0.0453007
0.0459307
0.0450112
0.0426451
0.0423923
0.0450694
0.0604848
0.0840175
0.0805646
0.048987
0.0305464
0.0201986
0.0134216
0.0098923
0.00814899
0.00724826
0.006718
0.00638365
0.00616685
0.00599747
0.00582033
0.00560858
0.00534697
0.00497272
0.00447436
0.00428998
0.00425889
0.00429684
0.00442893
0.00465925
0.00525248
0.00666359
0.00940838
0.0149706
0.0257927
0.0440088
0.056355
0.0611141
0.0622882
0.0619643
0.05943
0.0552198
0.0538621
0.0543695
0.0584931
0.065018
0.070607
0.0746233
0.0762177
0.0751685
0.0714024
0.0643041
0.0547764
0.0464843
0.0406948
0.0376209
0.035952
0.040717
0.051235
0.0616642
0.0672772
0.0684734
0.0673296
0.0642807
0.060192
0.0550828
0.0490725
0.0430595
0.0374817
0.0333155
0.0311252
0.0305428
0.0305196
0.0307104
0.0310921
0.0312221
0.0311042
0.0302349
0.0265068
0.0173538
0.00947823
0.00474394
0.0025922
0.00192864
0.0019307
0.00231888
0.00339652
0.00401699
0.00429448
0.00439243
0.00440376
0.00439166
0.00434992
0.00423273
0.00405209
0.00393329
0.00388014
0.00383797
0.00375264
0.00348458
0.0030523
0.00280505
0.00269937
0.00265745
0.00263138
0.00259775
0.00253363
0.00238869
0.00209074
0.0017982
0.00159427
0.00149788
0.00146958
0.00146995
0.00150529
0.00154161
0.00154056
0.00149465
0.00126879
0.000969225
0.000822762
0.000786315
0.000796775
0.000887052
0.000946477
0.035286
0.0496949
0.0559314
0.0615012
0.0678824
0.0733483
0.0754329
0.0754617
0.0702589
0.059891
0.0487079
0.0386688
0.0311999
0.0248259
0.020518
0.0176962
0.0158716
0.0148293
0.0143503
0.0141349
0.0140936
0.0141731
0.0148687
0.0157836
0.0169577
0.018317
0.0195982
0.0204105
0.0207903
0.0208856
0.0202694
0.0197756
0.0190782
0.0179897
0.0166234
0.0152038
0.0141384
0.0125887
0.0110438
0.00951585
0.00754741
0.00593135
0.00444992
0.00334737
0.00245207
0.00181499
0.00145055
0.00131758
0.00159188
0.00285066
0.00787492
0.0178816
0.0266392
0.0327844
0.0421167
0.0620734
0.0699334
0.0666941
0.0560692
0.0465355
0.0460051
0.0568894
0.0806363
0.0750947
0.0391977
0.0209045
0.0131481
0.00937797
0.00768795
0.00690514
0.00651186
0.00630191
0.00619723
0.00611542
0.00600882
0.00585909
0.00565229
0.00536157
0.00483683
0.00431437
0.00418737
0.00420235
0.00432737
0.00462439
0.00519457
0.00646717
0.00934628
0.0153312
0.0251912
0.0421141
0.0569742
0.0617999
0.062814
0.061699
0.0576564
0.0534913
0.0528968
0.0556165
0.0626124
0.0712497
0.0764405
0.0805244
0.0876097
0.0938357
0.0980227
0.0994627
0.0970085
0.0871942
0.0679532
0.047704
0.0378697
0.032454
0.0293087
0.0300579
0.0337865
0.0426576
0.0505291
0.053357
0.0536058
0.0528
0.0505374
0.046993
0.0408893
0.0346268
0.0296854
0.0267842
0.0257882
0.0258252
0.0263781
0.0279118
0.0297263
0.0309982
0.0314436
0.0313261
0.0298877
0.0229436
0.0125299
0.00614784
0.00308286
0.00183304
0.00155437
0.00163601
0.00209403
0.00304991
0.00355909
0.00377144
0.00383286
0.00383121
0.00380176
0.00371017
0.00366447
0.00366638
0.00368864
0.00368235
0.00361649
0.0033198
0.00284104
0.00258108
0.00244546
0.00234821
0.00226227
0.00217191
0.00209397
0.00201686
0.00185512
0.00165704
0.00152521
0.00147886
0.00147498
0.00149612
0.0015803
0.00161816
0.00160967
0.00150854
0.00115427
0.000887292
0.000793897
0.000787706
0.000835276
0.00096887
0.0363975
0.0496764
0.0550977
0.0606751
0.0661652
0.0681043
0.0649898
0.0558984
0.0440435
0.0360069
0.0282519
0.0234263
0.019213
0.0171235
0.0159842
0.0154831
0.0152758
0.015227
0.0158767
0.0172491
0.0196518
0.0231751
0.0260159
0.0285527
0.030531
0.0320075
0.0327528
0.0333643
0.0336573
0.0337536
0.0333819
0.0327
0.0316334
0.0300781
0.0284248
0.0264261
0.0246443
0.0224231
0.0205664
0.0183584
0.0158684
0.0119753
0.00829446
0.00537101
0.00332818
0.00192807
0.00124321
0.0008504
0.000637674
0.000625937
0.00122203
0.00355357
0.008571
0.0170398
0.0361798
0.0686968
0.098782
0.106598
0.0967392
0.0635401
0.0507179
0.0554518
0.0756043
0.0717737
0.0365973
0.0158479
0.00986865
0.00754986
0.0066949
0.00636309
0.00624383
0.0062286
0.00621636
0.00620244
0.00618167
0.00607303
0.0058467
0.00546786
0.00482409
0.00420864
0.00410176
0.00413314
0.00437558
0.00486836
0.00580945
0.00808363
0.012646
0.0206201
0.0351437
0.0548118
0.0623153
0.0638855
0.0631969
0.0587376
0.0529608
0.0520371
0.0535674
0.0600357
0.0660663
0.0682111
0.0688636
0.071657
0.0791695
0.0904279
0.100383
0.10461
0.106319
0.103701
0.0941437
0.069971
0.0476231
0.0337657
0.0270097
0.0249045
0.0250576
0.0264404
0.0306319
0.035552
0.0378188
0.0383286
0.0384638
0.0380894
0.0352961
0.0307378
0.0274911
0.025022
0.0235543
0.0231644
0.023218
0.0235778
0.0248981
0.0281668
0.0309243
0.032122
0.0322079
0.0314077
0.026768
0.0150881
0.00727119
0.00343538
0.00184055
0.00121227
0.00115153
0.00125356
0.00161007
0.00191801
0.00218184
0.00240296
0.00250519
0.00256684
0.00270827
0.00300902
0.00330187
0.00345699
0.00346401
0.00337377
0.00298481
0.00247616
0.00214667
0.00191092
0.00174108
0.00164903
0.00162822
0.00164294
0.00165125
0.00164092
0.00156274
0.00145677
0.0014267
0.00142715
0.00146708
0.00155226
0.00156388
0.00151875
0.00124902
0.000901107
0.000756881
0.000725667
0.000741358
0.000859985
0.0372032
0.0478484
0.0515038
0.0558325
0.057938
0.0552709
0.0470307
0.0365185
0.0282845
0.0238613
0.0195085
0.0174769
0.0163619
0.0159977
0.0159283
0.0161621
0.017397
0.020143
0.0237584
0.0275585
0.0307369
0.033098
0.0351771
0.0366449
0.0376509
0.0386496
0.0393415
0.0397923
0.0400892
0.0401942
0.0399711
0.0394351
0.0382091
0.0366205
0.034946
0.0327268
0.0301829
0.0275637
0.0249328
0.0232105
0.0219325
0.0202656
0.0161789
0.0105308
0.00655489
0.00339242
0.00175742
0.000946065
0.000587388
0.000409556
0.000367751
0.000584748
0.00133297
0.00408228
0.0219889
0.0684053
0.104952
0.128011
0.129899
0.115208
0.0699132
0.061981
0.0736825
0.0717142
0.0383387
0.0147284
0.00830544
0.00667353
0.00624635
0.00614693
0.00618172
0.0062695
0.00642237
0.00663245
0.00673464
0.00661655
0.00628071
0.0057613
0.00490789
0.00415017
0.00398885
0.00408018
0.00437669
0.00492501
0.00633835
0.00959425
0.0156141
0.0254274
0.0430278
0.0600695
0.064689
0.065226
0.0623155
0.0542101
0.0515429
0.0515052
0.0538461
0.0583591
0.0593378
0.0528129
0.0492119
0.0487288
0.053441
0.0661614
0.09068
0.104232
0.107778
0.107135
0.101588
0.0817822
0.05403
0.0356951
0.0260483
0.0220448
0.0212979
0.0212805
0.0221287
0.0267482
0.0307091
0.0316077
0.0314505
0.0307405
0.0290002
0.0266803
0.0246577
0.0231622
0.0222367
0.0219072
0.0219373
0.0220812
0.0224989
0.0236319
0.0273305
0.0313264
0.0330522
0.0332493
0.0325936
0.0285602
0.0166119
0.00791838
0.0035612
0.00175272
0.0010016
0.000750893
0.000743738
0.00077243
0.000856572
0.00109512
0.00129468
0.0013816
0.00147382
0.00168963
0.00226533
0.00282741
0.00309494
0.00311411
0.0029882
0.00252733
0.00203099
0.00167364
0.00144149
0.0013318
0.00131257
0.00134996
0.00148741
0.00154562
0.00154051
0.00146743
0.00137875
0.00135152
0.00135767
0.00146774
0.00154932
0.00153628
0.00137075
0.000973691
0.000756988
0.000676569
0.000667198
0.000709881
0.0366882
0.0432348
0.0437984
0.045352
0.0462776
0.0433619
0.0346788
0.0254738
0.0209271
0.0184256
0.0168114
0.0162398
0.0160952
0.0162014
0.0169209
0.0189182
0.0228384
0.0265246
0.0303389
0.0336691
0.0368368
0.0395993
0.0419388
0.043649
0.0448559
0.0459143
0.046736
0.0474628
0.0477057
0.0472729
0.0462217
0.0447771
0.0430396
0.0409701
0.0386185
0.0358242
0.0331364
0.0308855
0.0282797
0.0252636
0.0236136
0.0229061
0.0216822
0.0174477
0.0107974
0.00603901
0.00298029
0.00140477
0.000686986
0.000411576
0.000304584
0.000281298
0.000385664
0.00122551
0.0117552
0.06334
0.106261
0.131628
0.142791
0.140569
0.116737
0.0778227
0.0774263
0.0742883
0.0459703
0.0159887
0.00801535
0.00630574
0.00604082
0.00605319
0.00619443
0.00652758
0.00703323
0.00729849
0.00734123
0.00718443
0.00676277
0.006084
0.00504888
0.00417559
0.00389396
0.00398143
0.00432797
0.00505692
0.00692305
0.0106692
0.0170801
0.0283023
0.0486539
0.0635919
0.0668134
0.0662907
0.0601231
0.0518859
0.0500409
0.0502282
0.0528179
0.0545239
0.0494357
0.0441348
0.0429706
0.0428674
0.0444006
0.0497833
0.0682579
0.0964225
0.107348
0.10768
0.103925
0.0869314
0.0559666
0.0358135
0.023323
0.0176221
0.0166026
0.0168259
0.0176782
0.0205251
0.024575
0.0264428
0.0267199
0.0265656
0.0255899
0.0226657
0.0203702
0.0195372
0.0196062
0.0199293
0.0204459
0.0209103
0.0214305
0.0223193
0.0243916
0.0291427
0.0329267
0.0345171
0.0346613
0.0339202
0.0292413
0.0165312
0.00781272
0.00344482
0.00155904
0.000839822
0.000521857
0.000424659
0.000420617
0.000449795
0.00057975
0.000705852
0.000776271
0.000892943
0.00118309
0.00179712
0.00234235
0.00261611
0.00264263
0.00251907
0.00211563
0.00167036
0.00135683
0.00119842
0.00115975
0.00118003
0.00132738
0.00147582
0.00150565
0.00148368
0.00139447
0.00136098
0.00139328
0.00154276
0.00161533
0.00160218
0.00143936
0.00101598
0.000742153
0.000611499
0.000570811
0.000583285
0.0356826
0.0402277
0.0377421
0.0377869
0.0379811
0.0345588
0.0267854
0.0205094
0.0179087
0.0167185
0.0162578
0.0161832
0.0163888
0.0174372
0.0202865
0.0251142
0.0297025
0.0345875
0.0400188
0.0445964
0.0487449
0.0522238
0.0546458
0.056495
0.0578926
0.0593398
0.0602531
0.0607823
0.0609572
0.0605307
0.0596911
0.0580429
0.0547634
0.050435
0.0442929
0.037194
0.0335247
0.0309275
0.0295532
0.0273792
0.0245574
0.0234103
0.0233009
0.0220133
0.0158778
0.00928636
0.00468956
0.00220366
0.00100382
0.000510949
0.00031997
0.000258669
0.000252347
0.000435314
0.00314083
0.0393255
0.0974156
0.126456
0.144294
0.147485
0.141138
0.113632
0.0938426
0.0842586
0.0504086
0.0182814
0.0082464
0.00618627
0.00592797
0.00600924
0.0063282
0.00711112
0.00766525
0.00789591
0.00791083
0.00771754
0.00718311
0.00628738
0.00513138
0.00419021
0.00382924
0.00387583
0.00420689
0.00497536
0.00677082
0.0104433
0.0166235
0.0275265
0.0488639
0.06654
0.0695744
0.0684074
0.0607885
0.0497108
0.0483855
0.0487679
0.050932
0.0516598
0.0481005
0.0430617
0.042542
0.0421975
0.0429075
0.0463123
0.0609011
0.0914882
0.105546
0.107468
0.104383
0.0884086
0.0552002
0.0308815
0.0188353
0.0145924
0.0137568
0.0138329
0.014606
0.0170986
0.0191893
0.0199213
0.0199386
0.019738
0.0192068
0.0177648
0.0164128
0.016256
0.0164607
0.0173041
0.0182979
0.0190864
0.0199978
0.0214705
0.0238891
0.0278462
0.0322465
0.0352078
0.036228
0.0362263
0.0351301
0.0286622
0.0153661
0.00713071
0.00307296
0.00132968
0.00065826
0.000387983
0.000278217
0.000259993
0.000273094
0.000333784
0.000387156
0.000449738
0.000583722
0.000946277
0.0015247
0.00197756
0.00218584
0.0022059
0.00209594
0.00172655
0.00135979
0.00115891
0.00109493
0.00110016
0.00119995
0.00139836
0.00147929
0.00148692
0.00146448
0.00145004
0.00148925
0.00160342
0.00163142
0.00159816
0.00136855
0.000929081
0.000658473
0.000522557
0.000470708
0.000470389
0.0340144
0.0374995
0.032267
0.0309239
0.0308854
0.0289963
0.022579
0.0181308
0.0166885
0.0162471
0.0161568
0.0163571
0.0173628
0.0205493
0.0258475
0.0314653
0.0373725
0.0442262
0.0501789
0.0551427
0.0586641
0.0608527
0.0621512
0.0628933
0.063529
0.064083
0.0643363
0.0644183
0.0643069
0.0641613
0.0640156
0.0637431
0.0631787
0.0619939
0.0592681
0.0529788
0.0402615
0.030272
0.0274049
0.0267244
0.0253787
0.0234885
0.0235395
0.0235745
0.0216129
0.0136915