/*--------------------------------*- C++ -*----------------------------------*\
| =========                 |                                                 |
| \\      /  F ield         | OpenFOAM: The Open Source CFD Toolbox           |
|  \\    /   O peration     | Version:  2112                                  |
|   \\  /    A nd           | Website:  www.openfoam.com                      |
|    \\/     M anipulation  |                                                 |
\*---------------------------------------------------------------------------*/
FoamFile
{
    version     2.0;
    format      ascii;
    arch        "LSB;label=32;scalar=64";
    class       volScalarField;
    location    "0.052";
    object      s;
}
// * * * * * * * * * * * * * * * * * * * * * * * * * * * * * * * * * * * * * //

dimensions      [0 0 0 0 0 0 0];

internalField   nonuniform List<scalar> 
12225
(
1
1
1
1
1
1
1
1
1
1
1
1
1
1
1
1
1
1
1
1
1
1
1
1
1
1
1
1
1
1
1
1
1
1
1
1
1
1
1
1
1
1
1
1
1
1
1
1
1
1
1
1
1
1
1
1
1
1
1
1
1
1
1
1
1
1
1
1
1
1
1
1
1
1
1
1
1
1
1
1
1
1
1
1
1
1
1
1
1
1
1
1
1
1
1
1
1
1
1
1
1
1
1
1
1
1
1
1
1
1
1
1
1
1
1
1
1
1
1
1
1
1
1
1
1
1
1
1
1
1
1
1
1
1
1
1
1
1
1
1
1
1
1
1
1
1
1
1
1
1
1
1
1
1
1
1
1
1
1
1
1
1
1
1
1
1
1
1
1
1
1
1
1
1
1
1
1
1
1
1
1
1
1
1
1
1
1
1
1
1
1
1
1
1
1
1
1
1
1
1
1
1
1
1
1
1
1
1
1
1
1
1
1
1
1
1
1
1
1
1
1
1
1
1
1
1
1
1
1
1
1
1
1
1
1
1
1
1
1
1
1
1
1
1
1
1
1
1
1
1
1
1
1
1
1
1
1
1
1
1
1
1
1
1
1
1
1
1
1
1
1
1
1
1
1
1
1
1
1
1
1
1
1
1
1
1
1
1
1
1
1
1
1
1
1
1
1
1
1
1
1
1
1
1
1
1
1
1
1
1
1
1
1
1
1
1
1
1
1
1
1
1
1
1
1
1
1
1
1
1
1
1
1
1
1
1
1
1
1
1
1
1
1
1
1
1
1
1
1
1
1
1
1
1
1
1
1
1
1
1
1
1
1
1
1
1
1
1
1
1
1
1
1
1
1
1
1
1
1
1
1
1
1
1
1
1
1
1
1
1
1
1
1
1
1
1
1
1
1
1
1
1
1
1
1
1
1
1
1
1
1
1
1
1
1
1
1
1
1
1
1
1
1
1
1
1
1
1
1
1
1
1
1
1
1
1
1
1
1
1
1
1
1
1
1
1
1
1
1
1
1
1
1
1
1
1
1
1
1
1
1
1
1
1
1
1
1
1
1
1
1
1
1
1
1
1
1
1
1
1
1
1
1
1
1
1
1
1
1
1
1
1
1
1
1
1
1
1
1
1
1
1
1
1
1
1
1
1
1
1
1
1
1
1
1
1
1
1
1
1
1
1
1
1
1
1
1
1
1
1
1
1
1
1
1
1
1
1
1
1
0.660507
0.657257
0.660062
0.663455
0.665425
0.686155
0.697687
0.701912
0.709043
0.711658
0.712191
0.713323
0.716538
0.720281
0.723042
0.725583
0.727845
0.728652
0.728474
0.726656
0.72122
0.71348
0.701339
0.684723
0.66549
0.645422
0.623808
0.601191
0.581289
0.564374
0.548887
0.535983
0.524494
0.516996
0.515206
0.516313
0.519433
0.532479
0.548114
0.577328
0.616068
0.65125
0.670807
0.654875
0.65493
0.668179
0.668496
0.667859
0.66808
0.66878
0.668754
0.666995
0.665527
0.666857
0.66997
0.673816
0.677261
0.682464
0.686925
0.690022
0.69269
0.700155
0.714101
0.7239
0.726518
0.726458
0.724969
0.720731
0.721904
0.740859
0.810117
0.859847
0.878563
0.882883
0.881847
0.876274
0.868245
0.859995
0.853185
0.848354
0.844941
0.842059
0.83985
0.839121
0.838982
0.838991
0.839165
0.839624
0.840395
0.841401
0.84253
0.843738
0.845066
0.846541
0.848094
0.849567
0.850799
0.851726
0.852451
0.853126
0.853619
0.853805
0.853886
0.853957
0.853993
0.854039
0.85416
0.854259
0.854354
0.854426
0.854507
0.854588
0.85462
0.854618
0.854605
0.854591
0.854541
0.854486
0.854408
0.854337
0.854261
0.854193
0.85412
0.854039
0.85397
0.853989
0.854423
0.855636
0.858296
0.863254
0.870599
0.879288
0.888108
0.895056
0.899104
0.901534
0.903167
0.904428
0.905526
0.906546
0.907517
0.908442
0.909227
0.90974
0.910077
0.910584
0.911767
0.913999
0.916287
0.917913
0.918606
0.918661
0.918203
0.915686
0.909142
0.900641
0.889274
0.877298
0.868494
0.864154
0.862171
0.858699
0.852991
0.847791
0.840659
0.826216
0.792118
0.694943
0.511318
0.332026
0.189837
0.0962484
0.0439342
0.0183605
0.00711273
0.00255958
0.000858523
0.000293369
0.000164933
-0.0199111
0.663928
0.661462
0.655732
0.638249
0.642472
0.665394
0.687797
0.694427
0.703462
0.717361
0.725245
0.72789
0.7285
0.728328
0.727213
0.726406
0.725207
0.717473
0.689387
0.63464
0.555399
0.503194
0.464659
0.434054
0.414095
0.399452
0.39019
0.381628
0.376333
0.37383
0.372962
0.373534
0.374348
0.374605
0.374437
0.37398
0.373914
0.376172
0.390261
0.43824
0.514194
0.604007
0.667397
0.665323
0.651605
0.651395
0.649046
0.629627
0.603134
0.585241
0.572954
0.569135
0.569403
0.575593
0.583327
0.593962
0.603959
0.613671
0.624978
0.636728
0.644382
0.656445
0.69402
0.740869
0.746014
0.735658
0.728426
0.731964
0.767378
0.837706
0.871135
0.879717
0.880236
0.877047
0.868328
0.853391
0.839758
0.833238
0.828905
0.827276
0.826871
0.827547
0.830701
0.835056
0.839107
0.841972
0.843671
0.84547
0.848254
0.852147
0.857292
0.864347
0.869028
0.870482
0.870895
0.870977
0.870618
0.868943
0.865995
0.862703
0.859104
0.854455
0.851059
0.847677
0.845772
0.845002
0.844888
0.845978
0.847545
0.849183
0.850669
0.852167
0.853493
0.854402
0.855165
0.855707
0.856061
0.856423
0.856667
0.856868
0.857473
0.858438
0.859707
0.861065
0.861951
0.861824
0.859417
0.852288
0.840794
0.826492
0.813744
0.808266
0.808223
0.815449
0.839835
0.861412
0.875668
0.884718
0.890402
0.894162
0.897049
0.899822
0.902934
0.906467
0.910032
0.912737
0.91397
0.914112
0.913519
0.910803
0.909194
0.909159
0.910553
0.918249
0.928117
0.930867
0.930589
0.928721
0.924315
0.91863
0.911027
0.901686
0.892164
0.884748
0.880672
0.8787
0.876478
0.871884
0.862104
0.841986
0.791555
0.750052
0.715258
0.70066
0.66869
0.640883
0.588772
0.548577
0.51824
0.438208
0.65783
0.657738
0.659213
0.667498
0.685231
0.701522
0.699851
0.698732
0.703021
0.723405
0.726885
0.714607
0.689475
0.684323
0.670864
0.633711
0.575065
0.50759
0.450031
0.419528
0.40701
0.401751
0.400004
0.39995
0.403929
0.408295
0.413219
0.422366
0.430918
0.438633
0.444885
0.447854
0.448871
0.447966
0.442843
0.436111
0.429546
0.426733
0.426138
0.432457
0.464246
0.533379
0.638146
0.664894
0.661309
0.654229
0.650026
0.644168
0.629232
0.614246
0.606452
0.586938
0.573732
0.573277
0.575443
0.583317
0.594077
0.602654
0.611132
0.622674
0.632555
0.641929
0.663491
0.747363
0.814444
0.822714
0.82131
0.835632
0.863948
0.875812
0.877955
0.87625
0.867576
0.847902
0.832026
0.823435
0.81991
0.818849
0.81905
0.822479
0.825454
0.828449
0.834337
0.842291
0.850876
0.860855
0.872693
0.880921
0.884845
0.886464
0.886727
0.884375
0.876549
0.867096
0.860122
0.849948
0.833183
0.812881
0.791236
0.772506
0.758972
0.749643
0.743215
0.738893
0.735558
0.733637
0.732792
0.732905
0.734316
0.737115
0.741096
0.746115
0.752085
0.757229
0.761948
0.766314
0.770021
0.773889
0.777942
0.782641
0.788746
0.796026
0.805113
0.817728
0.83412
0.853558
0.873836
0.890077
0.899525
0.902323
0.8981
0.869942
0.820873
0.783632
0.768934
0.767428
0.771201
0.788842
0.810242
0.823993
0.832021
0.837985
0.844342
0.852085
0.862469
0.876391
0.892934
0.908161
0.918291
0.922284
0.922299
0.917838
0.909189
0.906905
0.907592
0.913305
0.927584
0.93872
0.945597
0.949508
0.951419
0.951905
0.95142
0.947432
0.932073
0.915461
0.906197
0.902132
0.900556
0.899416
0.897377
0.893572
0.883035
0.870247
0.860134
0.856172
0.851365
0.850337
0.847667
0.827369
0.705939
0.694966
0.711047
0.719724
0.710906
0.703088
0.652135
0.639658
0.657116
0.660713
0.627923
0.586457
0.542617
0.524286
0.49912
0.472318
0.449139
0.436878
0.4311
0.429506
0.437667
0.45401
0.475469
0.503225
0.535641
0.564952
0.589506
0.607613
0.621433
0.628198
0.630998
0.631294
0.624062
0.616942
0.60533
0.591992
0.576628
0.563831
0.551737
0.545399
0.54311
0.55112
0.594456
0.635471
0.647864
0.651297
0.650676
0.649966
0.648262
0.646621
0.642878
0.640696
0.638008
0.631312
0.625747
0.623735
0.623862
0.625527
0.630366
0.635904
0.638998
0.64315
0.657962
0.738931
0.837431
0.86059
0.865695
0.872394
0.876263
0.876293
0.871961
0.856543
0.833255
0.821069
0.815573
0.813631
0.813356
0.816299
0.820295
0.825688
0.833741
0.843668
0.859468
0.878797
0.887941
0.892861
0.894452
0.894181
0.889798
0.885498
0.879938
0.865846
0.842473
0.809208
0.769159
0.742956
0.720353
0.709806
0.705886
0.704436
0.704228
0.706376
0.707934
0.708575
0.707936
0.705179
0.701471
0.697677
0.693325
0.689298
0.685996
0.684205
0.683482
0.683672
0.685246
0.688036
0.691521
0.695689
0.700421
0.70623
0.713547
0.721965
0.730063
0.736254
0.741694
0.74899
0.762648
0.789412
0.829891
0.876209
0.914611
0.934072
0.938063
0.929932
0.876957
0.808681
0.772963
0.758178
0.755071
0.7555
0.759734
0.768003
0.774253
0.78147
0.78992
0.79987
0.815258
0.840621
0.873438
0.903875
0.922793
0.92938
0.92937
0.923741
0.911158
0.907312
0.908451
0.916562
0.932714
0.944379
0.953125
0.958407
0.960329
0.96042
0.958887
0.949969
0.931496
0.920633
0.916991
0.916919
0.919406
0.9224
0.922666
0.921431
0.914012
0.902196
0.895916
0.894074
0.894083
0.893835
0.803536
0.763371
0.747805
0.718623
0.640953
0.620635
0.611319
0.596107
0.574281
0.545376
0.517028
0.503218
0.492351
0.48667
0.478728
0.473668
0.471607
0.488153
0.516825
0.562705
0.619286
0.664321
0.707109
0.741971
0.766021
0.788161
0.800797
0.814073
0.821416
0.827421
0.830164
0.831269
0.828241
0.821969
0.812815
0.79959
0.781969
0.760446
0.736721
0.71082
0.684659
0.661744
0.650333
0.647043
0.651566
0.651927
0.651403
0.649601
0.645515
0.637686
0.626369
0.613859
0.604639
0.601455
0.601271
0.602175
0.605861
0.615724
0.624751
0.637007
0.648862
0.656725
0.672245
0.745
0.846259
0.871276
0.875175
0.876404
0.875803
0.870469
0.851653
0.827825
0.816297
0.811477
0.809962
0.809804
0.812889
0.817631
0.826398
0.83967
0.861377
0.888052
0.899922
0.904459
0.905528
0.904535
0.897088
0.890899
0.881948
0.865307
0.836306
0.782762
0.738481
0.717228
0.707641
0.704537
0.704272
0.710103
0.722026
0.735069
0.745459
0.749444
0.750882
0.751429
0.752053
0.753611
0.754526
0.753105
0.745296
0.73169
0.713028
0.697008
0.688028
0.682821
0.680783
0.681414
0.68372
0.687209
0.691514
0.696645
0.703035
0.711282
0.721562
0.730466
0.734395
0.735678
0.736606
0.73821
0.741698
0.752289
0.78725
0.853956
0.915931
0.950597
0.957278
0.950241
0.908993
0.827305
0.781801
0.762763
0.756948
0.756053
0.756511
0.758806
0.764956
0.77808
0.794455
0.811137
0.832123
0.862049
0.896292
0.922456
0.933829
0.935033
0.930897
0.916207
0.907594
0.906085
0.907444
0.915759
0.934409
0.948379
0.957186
0.961155
0.961851
0.960816
0.953379
0.936224
0.926862
0.924425
0.924917
0.929736
0.936304
0.938089
0.93758
0.93276
0.918426
0.909296
0.906599
0.906266
0.79092
0.714009
0.666088
0.639147
0.621869
0.602346
0.577418
0.554789
0.535409
0.519074
0.511062
0.507956
0.507599
0.519228
0.537726
0.577269
0.646407
0.70733
0.768209
0.816976
0.848376
0.881539
0.902679
0.922287
0.936324
0.949303
0.956369
0.964229
0.967873
0.970521
0.971743
0.97213
0.971608
0.970425
0.968457
0.965425
0.961175
0.95526
0.947382
0.9369
0.923534
0.906972
0.887711
0.866642
0.847829
0.833168
0.815303
0.792094
0.759773
0.705271
0.652069
0.613539
0.5911
0.58071
0.577763
0.578075
0.583204
0.595633
0.607298
0.628327
0.648043
0.65858
0.677719
0.761027
0.85555
0.874656
0.876256
0.875952
0.871602
0.854624
0.830332
0.815792
0.809844
0.807853
0.807466
0.809828
0.814178
0.823409
0.842077
0.872842
0.900134
0.911059
0.914622
0.915055
0.91245
0.90357
0.893661
0.877799
0.851404
0.797772
0.740862
0.716437
0.706428
0.704226
0.707519
0.717895
0.739329
0.764723
0.773462
0.775326
0.770923
0.758336
0.752265
0.749568
0.749713
0.756498
0.765721
0.779025
0.791782
0.798822
0.801231
0.787642
0.760045
0.730472
0.707959
0.697012
0.692126
0.691816
0.694002
0.697692
0.702773
0.709666
0.71911
0.731373
0.74383
0.748345
0.746399
0.742878
0.739416
0.737663
0.738147
0.74437
0.774514
0.85853
0.929839
0.960588
0.963936
0.956301
0.91874
0.837126
0.791282
0.771889
0.767025
0.767499
0.772388
0.786042
0.800072
0.813836
0.827635
0.84614
0.873583
0.905183
0.929937
0.940968
0.942139
0.938089
0.92125
0.910312
0.907658
0.907912
0.911047
0.924381
0.943368
0.955773
0.961545
0.96265
0.961466
0.952825
0.936248
0.928232
0.926532
0.927382
0.93313
0.94041
0.942705
0.942417
0.938334
0.923926
0.913198
0.910277
0.75279
0.681303
0.654009
0.633965
0.611602
0.58871
0.566871
0.551611
0.541038
0.537413
0.545803
0.572797
0.618542
0.681202
0.747534
0.808705
0.850079
0.890385
0.917018
0.940454
0.954636
0.967936
0.976471
0.981812
0.986643
0.989006
0.991021
0.992059
0.992781
0.993106
0.993241
0.993487
0.993712
0.993958
0.99424
0.994567
0.994716
0.994781
0.994755
0.994298
0.993561
0.992377
0.990696
0.98848
0.985678
0.982011
0.976761
0.96821
0.952099
0.911729
0.811548
0.704108
0.640438
0.61026
0.599069
0.597212
0.602558
0.610314
0.615551
0.631032
0.650568
0.661671
0.684351
0.776807
0.859643
0.875087
0.876023
0.873544
0.86086
0.837469
0.818735
0.81012
0.806857
0.805891
0.807304
0.810861
0.819251
0.837751
0.870651
0.901616
0.917317
0.921768
0.922353
0.920028
0.91191
0.900519
0.88206
0.845965
0.779558
0.7275
0.707305
0.701767
0.701701
0.711285
0.731706
0.772372
0.786365
0.788075
0.775061
0.745404
0.710226
0.684661
0.660053
0.643671
0.636488
0.644214
0.663946
0.700607
0.750497
0.79205
0.815545
0.825632
0.829286
0.821899
0.800545
0.768091
0.738716
0.722581
0.715909
0.713995
0.714286
0.716091
0.720652
0.729936
0.745009
0.764583
0.773534
0.77157
0.763297
0.750268
0.740525
0.737012
0.737568
0.746706
0.797666
0.893585
0.948721
0.968098
0.968171
0.958216
0.919289
0.852277
0.817902
0.810744
0.812656
0.823048
0.845282
0.864998
0.879045
0.88658
0.891948
0.902731
0.923677
0.941055
0.948472
0.94895
0.945395
0.929234
0.916822
0.91401
0.914598
0.918317
0.931512
0.948608
0.959373
0.963672
0.96405
0.961883
0.94992
0.933879
0.9262
0.924377
0.925177
0.931361
0.94004
0.942908
0.942661
0.938375
0.923496
0.913727
0.746484
0.679337
0.654715
0.633341
0.609677
0.589321
0.579127
0.576524
0.591452
0.628988
0.687784
0.752816
0.807609
0.855098
0.893158
0.926038
0.944229
0.963777
0.972827
0.981858
0.985926
0.989064
0.990732
0.991581
0.992148
0.99239
0.992499
0.992528
0.992528
0.992499
0.99258
0.992741
0.993093
0.993479
0.993942
0.994787
0.99553
0.996175
0.997025
0.997641
0.998181
0.998586
0.998821
0.998965
0.998939
0.998668
0.998065
0.996785
0.993871
0.986169
0.961843
0.887757
0.773395
0.700355
0.667281
0.657147
0.659832
0.659154
0.652866
0.64935
0.657077
0.668119
0.691751
0.784461
0.860119
0.874859
0.875014
0.867488
0.846733
0.824871
0.811574
0.805856
0.803909
0.804567
0.807663
0.813593
0.827454
0.857388
0.890499
0.91702
0.926359
0.927917
0.9264
0.920616
0.910068
0.892564
0.854623
0.786738
0.726678
0.703233
0.69717
0.697359
0.708985
0.738831
0.782626
0.794516
0.793693
0.771761
0.732457
0.699739
0.68532
0.668095
0.638106
0.610643
0.585008
0.572582
0.567671
0.575686
0.605979
0.680855
0.767394
0.811382
0.832072
0.838285
0.838441
0.832974
0.816699
0.786981
0.760855
0.747749
0.742449
0.739364
0.736463
0.736074
0.741888
0.762176
0.789884
0.800588
0.800335
0.791592
0.767628
0.747938
0.738328
0.736668
0.740059
0.766912
0.861929
0.93412
0.966433
0.975118
0.972894
0.961887
0.930946
0.904879
0.897163
0.897883
0.902957
0.910489
0.917788
0.929104
0.940807
0.947451
0.950874
0.955353
0.958808
0.95948
0.958896
0.955644
0.944068
0.934947
0.933242
0.934058
0.93797
0.948779
0.959412
0.965248
0.966718
0.966137
0.96094
0.943398
0.929364
0.923303
0.922211
0.923573
0.932029
0.941259
0.943721
0.943057
0.936501
0.92083
0.738074
0.682714
0.661997
0.639602
0.619766
0.613342
0.62652
0.670697
0.731268
0.786412
0.834211
0.877365
0.910604
0.938209
0.957739
0.97094
0.978899
0.984957
0.98756
0.989133
0.989726
0.989971
0.990014
0.989248
0.988319
0.987449
0.986652
0.986187
0.985909
0.985824
0.985997
0.986351
0.98681
0.987326
0.987638
0.98834
0.989121
0.990304
0.992085
0.99412
0.996229
0.997666
0.998653
0.999197
0.99952
0.999672
0.999748
0.999707
0.999435
0.998487
0.994964
0.981739
0.936403
0.820155
0.742881
0.714196
0.712935
0.711294
0.701719
0.672245
0.665243
0.669186
0.691013
0.783802
0.85895
0.873997
0.872387
0.857248
0.834485
0.815511
0.805222
0.800791
0.800116
0.802926
0.807471
0.816095
0.839392
0.870131
0.90071
0.925532
0.932521
0.932872
0.929723
0.92053
0.905453
0.876514
0.818481
0.740237
0.703955
0.693348
0.692342
0.700233
0.727412
0.782943
0.802219
0.803219
0.785471
0.753053
0.742231
0.741253
0.753204
0.756394
0.727573
0.669792
0.60169
0.56903
0.55561
0.550874
0.558874
0.589073
0.669863
0.753915
0.807044
0.832681
0.84006
0.840542
0.838078
0.828204
0.801797
0.776924
0.763267
0.758174
0.756635
0.754596
0.753688
0.759011
0.788123
0.819129
0.82765
0.826868
0.816195
0.783682
0.755824
0.740851
0.737054
0.739122
0.758026
0.841746
0.926384
0.964284
0.97974
0.981886
0.979381
0.969725
0.958744
0.955468
0.955835
0.957598
0.960041
0.96396
0.969145
0.972928
0.974279
0.974299
0.973325
0.971722
0.970785
0.968818
0.965011
0.962848
0.961058
0.960618
0.960837
0.96181
0.964664
0.968565
0.97004
0.969928
0.96763
0.955883
0.936399
0.925881
0.922675
0.922831
0.927052
0.939622
0.946167
0.947021
0.944978
0.93276
0.735706
0.696222
0.687504
0.669793
0.662317
0.681002
0.733233
0.792174
0.842222
0.879178
0.914736
0.938762
0.959568
0.971452
0.980644
0.984993
0.987346
0.988437
0.988779
0.988866
0.988323
0.987169
0.985692
0.984375
0.983625
0.982847
0.982456
0.982254
0.982184
0.982363
0.982752
0.983486
0.98423
0.985032
0.985443
0.986049
0.986337
0.986564
0.986852
0.987529
0.989259
0.992587
0.995732
0.997744
0.998943
0.99953
0.999784
0.999883
0.999921
0.99988
0.999544
0.997829
0.989134
0.942636
0.820338
0.757897
0.744564
0.742999
0.73959
0.725171
0.685224
0.675694
0.687123
0.772154
0.8542
0.871805
0.867027
0.847165
0.82452
0.808188
0.799561
0.796609
0.797221
0.800325
0.806459
0.820662
0.850565
0.87999
0.906207
0.929249
0.937455
0.937146
0.932091
0.920936
0.900787
0.856663
0.783877
0.716426
0.692257
0.6871
0.688553
0.707899
0.758681
0.803174
0.811844
0.808235
0.78561
0.771068
0.782575
0.831193
0.845058
0.847113
0.832488
0.796133
0.697701
0.597359
0.55759
0.54793
0.55004
0.566821
0.63012
0.727881
0.79181
0.825151
0.838239
0.841044
0.840669
0.836345
0.818151
0.791305
0.773593
0.766382
0.765344
0.765763
0.766732
0.769306
0.786108
0.826975
0.846983
0.850217
0.847948
0.83262
0.792886
0.760712
0.742982
0.738199
0.740036
0.757959
0.837502
0.925283
0.965793
0.982441
0.988448
0.988558
0.987078
0.985129
0.983982
0.984018
0.984324
0.984992
0.986378
0.987368
0.987588
0.987341
0.985559
0.981651
0.979231
0.9776
0.976714
0.976585
0.976778
0.977218
0.977083
0.975554
0.974477
0.974314
0.974262
0.973999
0.972506
0.96556
0.945958
0.931176
0.92524
0.924658
0.927288
0.939787
0.950856
0.95386
0.953388
0.946483
0.738836
0.717137
0.731545
0.730993
0.729749
0.75487
0.815142
0.871093
0.905266
0.929833
0.954737
0.968074
0.978651
0.983776
0.986752
0.987856
0.98822
0.98829
0.987805
0.986616
0.984567
0.982476
0.980385
0.978412
0.976481
0.974834
0.973518
0.972655
0.97236
0.973096
0.974728
0.976642
0.979166
0.981846
0.983776
0.985106
0.985733
0.985989
0.986066
0.985975
0.985978
0.986777
0.989687
0.994254
0.997105
0.998706
0.999481
0.999814
0.99993
0.999963
0.999956
0.999774
0.998252
0.985498
0.892109
0.785877
0.757282
0.755009
0.752746
0.747699
0.730484
0.696772
0.694217
0.73842
0.839096
0.866317
0.862035
0.839744
0.816765
0.801524
0.793749
0.791772
0.792599
0.796089
0.804681
0.827097
0.858825
0.887043
0.910784
0.930921
0.940425
0.940816
0.935424
0.922714
0.896777
0.842667
0.763559
0.70352
0.683606
0.680055
0.686087
0.714671
0.779719
0.815582
0.822012
0.813425
0.796444
0.798123
0.835328
0.859739
0.864241
0.864143
0.85825
0.840104
0.782411
0.655174
0.573119
0.548878
0.549011
0.560518
0.613054
0.718704
0.788027
0.824125
0.838432
0.842095
0.841857
0.837963
0.821808
0.799207
0.784646
0.776924
0.774372
0.774227
0.775274
0.779476
0.793942
0.834399
0.86193
0.869677
0.869231
0.863228
0.836901
0.794109
0.761247
0.743694
0.739471
0.74197
0.7633
0.848061
0.930178
0.969958
0.985464
0.992157
0.994455
0.994883
0.994937
0.994875
0.994546
0.994474
0.994549
0.994618
0.994568
0.994214
0.99278
0.988763
0.985579
0.984071
0.983738
0.983899
0.984845
0.985641
0.985669
0.984557
0.981177
0.979247
0.978505
0.97778
0.976093
0.970392
0.952306
0.935817
0.928654
0.927599
0.929602
0.941448
0.956524
0.962692
0.963539
0.960655
0.745647
0.736534
0.773457
0.779052
0.781685
0.812259
0.868926
0.917141
0.940878
0.956422
0.972943
0.980696
0.985159
0.987125
0.987868
0.987989
0.987815
0.986832
0.984544
0.981148
0.976744
0.972271
0.9674
0.962251
0.957476
0.954046
0.951706
0.950392
0.949943
0.951144
0.953629
0.957447
0.962507
0.969364
0.976839
0.981645
0.984464
0.98567
0.985998
0.985908
0.985503
0.985152
0.985686
0.988826
0.993962
0.997212
0.998828
0.999556
0.999855
0.999956
0.999981
0.999974
0.999754
0.99679
0.954902
0.816129
0.763833
0.760347
0.757678
0.751352
0.737292
0.707619
0.701187
0.730148
0.822633
0.85773
0.855516
0.833506
0.809599
0.794595
0.787218
0.785361
0.785987
0.79024
0.804407
0.838744
0.868766
0.893625
0.914818
0.932205
0.94218
0.94343
0.939769
0.927167
0.900084
0.844858
0.762059
0.698701
0.677038
0.67372
0.680645
0.710183
0.777324
0.827437
0.830411
0.823326
0.807663
0.81271
0.842908
0.865133
0.866943
0.866233
0.863064
0.851493
0.807286
0.681115
0.585783
0.553562
0.549919
0.559395
0.608719
0.717823
0.791402
0.829012
0.841557
0.843412
0.842626
0.837838
0.821455
0.801615
0.78998
0.785478
0.784868
0.785373
0.787653
0.792929
0.807478
0.848103
0.880242
0.891733
0.892097
0.887532
0.868259
0.827765
0.788568
0.758158
0.743303
0.740801
0.745189
0.775623
0.869783
0.940357
0.975091
0.989228
0.994802
0.997247
0.998075
0.998246
0.998236
0.99811
0.997936
0.997821
0.997678
0.997369
0.996527
0.993748
0.990472
0.98883
0.988453
0.988569
0.989391
0.990166
0.99024
0.989555
0.986209
0.983063
0.981744
0.980822
0.97896
0.97332
0.955739
0.939776
0.933104
0.932295
0.934453
0.946527
0.963261
0.971967
0.974747
0.974028
0.752522
0.747687
0.800988
0.821587
0.827924
0.848339
0.89882
0.941236
0.960105
0.971147
0.981131
0.985376
0.987231
0.987819
0.987909
0.987572
0.98604
0.982069
0.976022
0.969371
0.963157
0.956563
0.950769
0.945846
0.941874
0.939018
0.937523
0.936746
0.936497
0.937369
0.939108
0.942007
0.945881
0.950528
0.959089
0.970414
0.979412
0.984018
0.985707
0.986026
0.98559
0.984781
0.984398
0.985007
0.98955
0.99489
0.997852
0.999176
0.999707
0.999908
0.999976
0.99999
0.99997
0.999467
0.991222
0.895145
0.78082
0.765315
0.76202
0.743382
0.725416
0.707251
0.705143
0.734457
0.823222
0.852111
0.84901
0.825479
0.801408
0.787069
0.780216
0.778042
0.778237
0.782232
0.79924
0.83953
0.877441
0.901233
0.918673
0.933644
0.943508
0.945612
0.94378
0.934686
0.909433
0.853622
0.769097
0.702637
0.672894
0.667442
0.671116
0.69698
0.765045
0.824673
0.840891
0.837691
0.823334
0.821277
0.832418
0.85067
0.859998
0.863444
0.862327
0.852582
0.811183
0.686861
0.588738
0.55505
0.55249
0.564145
0.624403
0.743128
0.811655
0.835636
0.842445
0.843168
0.841262
0.83261
0.814449
0.802059
0.794156
0.791248
0.791183
0.792842
0.799436
0.807386
0.822278
0.859939
0.897422
0.915545
0.918205
0.914612
0.89511
0.856242
0.817603
0.780417
0.753661
0.742989
0.742497
0.751221
0.80196
0.896159
0.953473
0.981214
0.992583
0.996861
0.998589
0.999182
0.999318
0.999325
0.999272
0.999126
0.999007
0.998808
0.998344
0.996822
0.99404
0.992397
0.99193
0.991967
0.992449
0.992978
0.993021
0.992507
0.989593
0.985956
0.984306
0.983295
0.981381
0.975721
0.959352
0.946388
0.941816
0.941717
0.944808
0.957554
0.971049
0.979242
0.983989
0.984174
0.759758
0.758308
0.827781
0.849196
0.857602
0.877644
0.917213
0.954648
0.970521
0.978205
0.984328
0.986927
0.987833
0.988004
0.987748
0.986437
0.982055
0.974927
0.967861
0.960554
0.953438
0.946959
0.941592
0.937604
0.934972
0.933046
0.932078
0.931686
0.93168
0.932275
0.933512
0.935852
0.940035
0.944123
0.949949
0.959731
0.971202
0.979956
0.984465
0.985759
0.985679
0.984687
0.983845
0.98362
0.985264
0.991463
0.996282
0.998574
0.999506
0.99984
0.999954
0.999989
0.999994
0.999934
0.998472
0.973982
0.830972
0.771233
0.769618
0.75497
0.726564
0.713519
0.716258
0.758804
0.829632
0.84625
0.840857
0.81573
0.793422
0.78023
0.773667
0.771339
0.771138
0.773515
0.787596
0.830574
0.873583
0.903466
0.922041
0.934901
0.944336
0.947409
0.946856
0.941856
0.924501
0.874141
0.787118
0.714531
0.67594
0.660741
0.661894
0.674308
0.730162
0.808984
0.838377
0.847109
0.845209
0.840289
0.841195
0.845018
0.855167
0.858822
0.856119
0.839875
0.778833
0.641257
0.57318
0.554956
0.556353
0.57759
0.668498
0.776011
0.822613
0.837779
0.841358
0.84046
0.835449
0.821978
0.811075
0.803756
0.801782
0.802109
0.803467
0.808239
0.822636
0.832424
0.84241
0.867613
0.906018
0.932704
0.941362
0.940502
0.928429
0.890568
0.850397
0.809184
0.772035
0.749806
0.743705
0.745395
0.764277
0.842979
0.923749
0.967006
0.987164
0.995314
0.998238
0.999276
0.999626
0.999709
0.999711
0.999671
0.99958
0.999462
0.999211
0.998486
0.99652
0.995024
0.994502
0.994481
0.994691
0.994959
0.994956
0.99449
0.991876
0.988124
0.986324
0.985323
0.983555
0.978354
0.965094
0.956303
0.953888
0.954279
0.958177
0.969215
0.97861
0.984018
0.988901
0.990367
0.765209
0.76068
0.830446
0.880037
0.883764
0.892449
0.923291
0.956721
0.974604
0.982181
0.986198
0.987726
0.988079
0.988087
0.987098
0.983588
0.976897
0.968973
0.961347
0.954
0.947243
0.941598
0.937305
0.934179
0.932217
0.930914
0.930227
0.93006
0.93028
0.930706
0.931561
0.933165
0.937032
0.941944
0.947022
0.95608
0.968136
0.978181
0.983673
0.985217
0.985309
0.984372
0.982875
0.982598
0.983207
0.988231
0.994455
0.997718
0.999182
0.999742
0.999925
0.999981
0.999996
0.999993
0.999822
0.995865
0.937538
0.799362
0.772439
0.777746
0.765124
0.752294
0.761041
0.803284
0.833267
0.836351
0.82715
0.803654
0.785832
0.774525
0.768076
0.764422
0.762921
0.763379
0.769825
0.802594
0.858461
0.897683
0.920488
0.934357
0.943842
0.948436
0.94877
0.946845
0.937593
0.90766
0.824801
0.739995
0.686687
0.662563
0.654179
0.658116
0.679259
0.754643
0.817313
0.841746
0.848975
0.851282
0.852985
0.857482
0.859118
0.856791
0.845028
0.806308
0.696294
0.601737
0.56583
0.558663
0.564911
0.60283
0.714795
0.796468
0.830426
0.838613
0.838295
0.83443
0.823862
0.815902
0.810623
0.809597
0.810288
0.812238
0.816477
0.825491
0.845972
0.861885
0.871501
0.887327
0.915025
0.943347
0.959711
0.963185
0.960539
0.941498
0.896873
0.849451
0.801084
0.764355
0.747811
0.745815
0.752147
0.794748
0.889214
0.948861
0.978898
0.992114
0.997282
0.999062
0.999641
0.999826
0.999865
0.999862
0.999833
0.999766
0.99963
0.999285
0.998172
0.996918
0.996374
0.996298
0.996367
0.996467
0.996431
0.995945
0.993414
0.989691
0.987848
0.986926
0.985443
0.981018
0.972192
0.967527
0.966757
0.967568
0.972207
0.979487
0.984852
0.988233
0.991575
0.993527
0.774314
0.764851
0.823052
0.884073
0.908028
0.912985
0.926492
0.953836
0.973489
0.982119
0.986224
0.988027
0.988465
0.988282
0.987273
0.984022
0.977333
0.969484
0.961839
0.954525
0.947823
0.942183
0.937906
0.934751
0.932704
0.931417
0.930583
0.930271
0.930338
0.930631
0.9314
0.932823
0.936164
0.941612
0.94669
0.955449
0.967554
0.977911
0.98359
0.985141
0.9848
0.983003
0.980854
0.980322
0.981169
0.986865
0.993616
0.997296
0.998993
0.999668
0.999902
0.999974
0.999994
0.999998
0.999989
0.999614
0.991697
0.903278
0.787941
0.775968
0.785244
0.789607
0.799782
0.819225
0.83102
0.830026
0.818374
0.796924
0.780764
0.769597
0.762151
0.756666
0.752879
0.751729
0.753324
0.765227
0.811475
0.874368
0.91141
0.931118
0.94231
0.948031
0.949841
0.949422
0.945776
0.931473
0.884016
0.782924
0.71269
0.672229
0.654828
0.647164
0.651537
0.672247
0.72874
0.795851
0.82792
0.839569
0.84811
0.848272
0.843575
0.828046
0.78905
0.692764
0.611515
0.576771
0.563216
0.565063
0.582718
0.659304
0.773483
0.824375
0.836891
0.837016
0.833314
0.822273
0.815365
0.812188
0.812511
0.814468
0.818526
0.824801
0.834711
0.847858
0.864317
0.882818
0.897847
0.91179
0.930933
0.953242
0.970517
0.978339
0.979142
0.975833
0.958248
0.907997
0.845961
0.791009
0.758297
0.748441
0.749845
0.769156
0.84874
0.927015
0.968594
0.98778
0.995647
0.998568
0.999535
0.999832
0.999918
0.999933
0.999928
0.999904
0.999838
0.999673
0.999131
0.998227
0.997728
0.997607
0.997621
0.997643
0.997576
0.997018
0.994419
0.990896
0.989136
0.988323
0.987099
0.983534
0.979055
0.977388
0.977426
0.97885
0.983733
0.98767
0.990087
0.991687
0.993584
0.995207
0.782267
0.77342
0.801718
0.875295
0.909438
0.925599
0.935922
0.950063
0.969168
0.98044
0.985579
0.987819
0.98859
0.988606
0.987997
0.98578
0.979912
0.972238
0.964708
0.95748
0.950856
0.9451
0.940634
0.937259
0.934871
0.93353
0.93241
0.932213
0.932391
0.932959
0.934384
0.936424
0.940608
0.947265
0.953586
0.963602
0.975262
0.983267
0.98545
0.985392
0.984212
0.980444
0.978198
0.978284
0.980111
0.986604
0.99341
0.99719
0.998947
0.99965
0.999896
0.999972
0.999993
0.999999
0.999999
0.999987
0.999506
0.989421
0.890291
0.785276
0.77787
0.789844
0.804659
0.818663
0.823297
0.821378
0.810287
0.792192
0.777425
0.765903
0.756542
0.749029
0.743486
0.74076
0.740719
0.74485
0.766275
0.827467
0.885774
0.920352
0.937854
0.946465
0.949746
0.950314
0.949359
0.943957
0.923455
0.859961
0.760725
0.698227
0.663215
0.649148
0.6404
0.642103
0.652316
0.678873
0.722561
0.756423
0.775383
0.770331
0.751847
0.711258
0.644514
0.600897
0.582512
0.571087
0.57314
0.585723
0.628341
0.741978
0.816
0.837619
0.838773
0.834901
0.821793
0.812245
0.809697
0.810036
0.812111
0.818003
0.82911
0.843612
0.860997
0.876939
0.8912
0.905964
0.921256
0.935583
0.949348
0.963433
0.976202
0.98447
0.987256
0.987125
0.984082
0.96946
0.913949
0.833714
0.77872
0.754898
0.751922
0.76022
0.813298
0.903279
0.956616
0.982557
0.9936
0.997833
0.999318
0.999789
0.999926
0.999961
0.999964
0.999958
0.999932
0.999857
0.999619
0.999039
0.998652
0.998529
0.998519
0.998509
0.998396
0.997757
0.995119
0.991856
0.990242
0.989591
0.988574
0.986466
0.984976
0.984668
0.98493
0.986621
0.990591
0.993183
0.994396
0.994824
0.995304
0.996234
0.796423
0.783031
0.791494
0.844954
0.901758
0.924995
0.938924
0.949467
0.962145
0.975469
0.98343
0.986955
0.988368
0.988714
0.988616
0.987891
0.985377
0.979421
0.971102
0.963562
0.956926
0.950981
0.946225
0.942482
0.939626
0.938051
0.936697
0.936675
0.937034
0.938114
0.940454
0.943463
0.949937
0.956616
0.96353
0.973828
0.982446
0.985749
0.986089
0.985365
0.981962
0.977757
0.977161
0.977783
0.980799
0.988827
0.994868
0.997944
0.999271
0.999766
0.999931
0.999981
0.999995
0.999999
1
1
0.999985
0.999425
0.988379
0.888796
0.788094
0.780242
0.794182
0.807888
0.80852
0.804437
0.792098
0.781123
0.769908
0.758983
0.749581
0.741584
0.735495
0.732098
0.731384
0.732929
0.743519
0.785694
0.851279
0.899389
0.927775
0.942336
0.948597
0.950379
0.950385
0.948816
0.941244
0.915857