/*--------------------------------*- C++ -*----------------------------------*\
| =========                 |                                                 |
| \\      /  F ield         | OpenFOAM: The Open Source CFD Toolbox           |
|  \\    /   O peration     | Version:  2112                                  |
|   \\  /    A nd           | Website:  www.openfoam.com                      |
|    \\/     M anipulation  |                                                 |
\*---------------------------------------------------------------------------*/
FoamFile
{
    version     2.0;
    format      ascii;
    arch        "LSB;label=32;scalar=64";
    class       volScalarField;
    location    "0.26";
    object      ddt0(kU);
}
// * * * * * * * * * * * * * * * * * * * * * * * * * * * * * * * * * * * * * //

dimensions      [0 2 -3 0 0 0 0];

internalField   nonuniform List<scalar> 
12225
(
-0.00017121
-0.00404034
-0.0205997
-0.0605657
-0.211034
-0.45768
-0.834414
-1.38548
-2.16109
-3.20634
-4.54412
-6.15101
-7.9359
-9.71376
-11.2346
-12.176
-12.4409
-4.24003
0.00325596
0.014902
0.0371155
0.0729111
0.12274
0.192417
0.290707
0.427471
0.609159
0.840301
1.11716
1.42779
1.75403
2.0743
2.36587
2.58859
2.7999
2.94989
-0.000292712
0.0011884
0.00479936
0.00475523
0.0072083
0.0166503
0.0407267
0.0905807
0.180604
0.327626
0.548853
0.859517
1.27085
1.78965
2.41919
3.15551
4.00463
5.02518
2.43624e-05
-9.21994e-05
0.000302855
0.00120391
0.0031979
0.00562978
0.00810777
0.00115317
-0.00767262
-0.0128614
-0.00364175
0.0363394
0.127284
0.28939
0.538729
0.885634
1.33683
1.93497
0.000119126
-0.000204789
-0.000658676
-0.000892781
-0.000726727
-0.000146981
0.000709787
0.000918886
-0.000194318
-0.00296899
-0.00701771
-0.0107664
-0.0108532
-0.00147292
0.026258
0.0842324
0.18679
0.354793
0.000190258
3.4609e-05
-0.000193846
-0.000178522
0.000212588
0.00110211
0.00263721
0.0047667
0.00703194
0.00844967
0.00763328
0.00339302
-0.0042136
-0.0130933
-0.0192999
-0.0183124
-0.00537214
0.0244252
0.000252962
0.000253932
0.000172503
0.000262066
0.000654858
0.00149574
0.0030143
0.00542935
0.00882285
0.0130134
0.0173865
0.0207319
0.0212602
0.0169698
0.00642797
-0.0102078
-0.0305669
-0.0495763
0.000303124
0.000428794
0.000474668
0.00066188
0.00113792
0.00203572
0.00354392
0.00586029
0.0091202
0.0133461
0.0183845
0.0238188
0.0288964
0.0324857
0.0331393
0.0292824
0.0213247
0.00891186
0.000343895
0.000575022
0.000746339
0.00104222
0.00161067
0.00257516
0.00409472
0.00633894
0.00942985
0.0134049
0.0181893
0.0235674
0.0291757
0.0345164
0.0389986
0.0403952
0.040118
0.0379699
0.000377891
0.000696487
0.00098003
0.00137272
0.00201399
0.00302254
0.00453838
0.00671034
0.00964976
0.0133987
0.0179118
0.0230459
0.0285672
0.0341921
0.0396232
0.0424354
0.0445461
0.0461687
0.000406402
0.000794816
0.00117323
0.00165029
0.00235152
0.00338969
0.00488846
0.00697768
0.00976004
0.0132846
0.0175337
0.0224186
0.0277911
0.0334776
0.0393148
0.0426311
0.0456236
0.0485847
0.000428528
0.000868045
0.00131855
0.00186155
0.0026069
0.00366008
0.00513208
0.00713804
0.00977374
0.013094
0.0171028
0.0217518
0.0269531
0.0326064
0.0386385
0.0447955
0.0481569
0.051473
0.000446206
0.000924795
0.00143288
0.00203123
0.00281329
0.00387562
0.00531837
0.00724403
0.00974117
0.0128678
0.0166437
0.0210508
0.0260456
0.0315778
0.0376301
0.0442076
0.0479266
0.0515944
0.000460891
0.000971497
0.00152885
0.00217664
0.0029906
0.00405621
0.00546291
0.00730142
0.00965325
0.0125791
0.0161128
0.0202627
0.0250195
0.0303771
0.0363425
0.0429611
0.0467538
0.0505113
0.0004693
0.00100141
0.00159527
0.00228234
0.00312204
0.00418748
0.00555726
0.00731111
0.00952329
0.0122551
0.0155505
0.0194366
0.0239287
0.0290432
0.0348098
0.041268
0.04829
0.0520029
0.000465975
0.00100382
0.00161666
0.00232944
0.00318885
0.00425592
0.0055985
0.007286
0.00938495
0.0119546
0.0150433
0.0186884
0.0229177
0.027756
0.0332294
0.0393773
0.0462236
0.0535546
0.000443011
0.000963525
0.00157198
0.00229256
0.00316404
0.00423748
0.00557071
0.00722326
0.00925307
0.0117139
0.0146526
0.0181076
0.0221092
0.0266808
0.0318421
0.0376067
0.0440039
0.050954
0.000390756
0.000864129
0.00144373
0.00215926
0.00304645
0.00414883
0.0055151
0.00719463
0.00923479
0.0116799
0.0145696
0.0179368
0.0218058
0.0261917
0.0311024
0.0365346
0.0424975
0.0489087
0.000297733
0.000682027
0.00119793
0.00188816
0.002791
0.00394584
0.00539364
0.00717355
0.00932066
0.0118649
0.0148308
0.0182378
0.0221002
0.0264247
0.0312094
0.0364394
0.0421101
0.0481355
0.000196452
0.000486804
0.000940828
0.0016163
0.00255142
0.00378099
0.00534457
0.00727035
0.00957752
0.0122853
0.0154114
0.0189683
0.022959
0.0273707
0.0321814
0.0373663
0.0429195
0.0487709
0.00011214
0.00033381
0.000752417
0.00143326
0.00242041
0.00373809
0.0054363
0.00754355
0.0100622
0.0129854
0.0162997
0.0200067
0.0241099
0.0286087
0.033493
0.0387304
0.0442869
0.0500797
4.83593e-05
0.000216776
0.000619926
0.00133086
0.00238925
0.003837
0.00566895
0.00792468
0.0106123
0.0137429
0.0172595
0.0212134
0.0256358
0.0304225
0.0354705
0.0407638
0.0463232
0.0521164
1.15253e-07
0.000151497
0.000590866
0.00137906
0.00251521
0.00405513
0.00602943
0.00843703
0.0112699
0.0145488
0.0183173
0.0224031
0.0267962
0.031589
0.0367897
0.0423048
0.0480248
0.0539019
-2.89636e-05
0.000130425
0.000619274
0.00148467
0.00277214
0.00450891
0.00675197
0.00943158
0.0125987
0.0161269
0.0200568
0.0244889
0.029376
0.0345311
0.0398778
0.0454618
0.0513162
0.0573094
-4.40818e-05
0.00015184
0.000681227
0.00155444
0.00283146
0.00454054
0.0067388
0.0094512
0.0126267
0.016276
0.0203483
0.0249303
0.0298241
0.0349581
0.0403969
0.0460325
0.0519625
0.0580741
-3.52095e-05
0.00027238
0.00102045
0.00219379
0.00381202
0.00590218
0.00837877
0.0112264
0.0144113
0.0179965
0.0218009
0.0257917
0.0301171
0.034743
0.0394455
0.0441201
0.0486282
0.0530484
-2.60863e-05
0.000181735
0.000582575
0.00113597
0.00177549
0.0023279
0.00272201
0.00294544
0.00306934
0.00211076
0.00122906
0.000516335
0.000134396
0.000200122
0.000823977
0.00217285
0.00425959
0.00706582
0.000182577
-3.15965e-05
-0.000980309
-0.00271825
-0.00508277
-0.00772913
-0.00392879
0.000634297
0.00523063
0.00900052
0.0109008
0.009882
0.00495122
-0.00496801
-0.0209095
-0.0438013
-0.074565
-0.11393
-0.00143988
-0.00675408
-0.0166308
-0.0310242
-0.0493956
-0.0717158
-0.0986525
-0.131359
-0.171363
-0.220401
-0.280696
-0.354419
-0.443899
-0.551464
-0.678669
-0.826488
-0.995567
-1.18527
-3.42014e-05
0.00132055
0.00842138
0.0272177
0.0794234
0.157158
0.263271
0.401304
0.575098
0.788862
1.04768
1.35727
1.72345
2.15201
2.64812
3.21601
3.85856
4.57882
13.7114
5.34105
-13.2045
-11.7532
-9.62372
7.24337
11.5789
13.2021
13.1988
11.62
8.47224
13.1097
17.9834
24.2546
34.9719
68.9973
120.493
174.243
167.049
48.1367
-32.1851
-47.2793
-22.3056
4.2268
23.3137
59.1304
53.3959
16.7118
-65.2012
-211.438
-433.158
-481
-393.052
-354.761
-305.684
-251.937
-198.502
-147.803
-100.873
-59.0692
-24.7809
4.62241
20.0534
35.2661
51.3815
69.3812
89.3684
110.644
115.46
118.366
120.407
121.089
120.162
117.612
113.586
108.324
102.122
95.2994
88.169
81.0091
74.0566
67.4754
61.3582
55.7266
50.5433
45.7205
41.1309
36.6223
32.013
27.0833
21.5551
15.0533
7.02273
-3.39717
-17.1485
-43.6022
-63.0278
-79.3304
-86.767
-90.1111
-93.8871
-96.374
-97.118
-95.8984
-92.6747
-87.6276
-81.1214
-73.5167
-64.6077
-52.8507
-32.6661
4.6348
50.1159
90.2696
124.266
157.462
189.343
211.327
207.758
168.964
107.555
50.7246
14.1036
-3.59172
-5.5861
2.99052
11.1906
16.3021
17.9462
15.8971
11.9933
6.46972
-0.43706
-7.84143
-17.2301
-32.9484
-58.3877
-90.982
-110.162
-65.4552
19.9585
78.651
115.298
134.314
124.281
65.0711
-71.9838
-199.984
-273.374
-253.316
-206.582
-132.105
-38.1905
31.9557
74.3672
107.822
131.509
147.048
138.566
125.134
106.375
81.3423
47.4711
1.6004
-111.895
-245.399
-334.026
-416.884
-467.734
-478.379
-472.663
-494.291
-534.09
-599.601
-708.649
-884.187
-1059.42
-849.856
-531.423
-52.8724
562.32
1145.11
1376.63
1222.24
932.922
640.479
418.204
295.841
249.629
224.142
178.768
110.167
36.0902
-57.5098
-73.6934
-41.6979
-0.76479
12.3622
12.8022
0.357841
21.0739
-84.2959
-35.5832
-1.91606
9.75854
13.7095
15.4033
16.0309
15.7596
14.8057
13.4178
6.51738
-0.121541
-5.08699
-6.30783
1.21786
21.2999
50.4313
67.6033
64.0409
52.9829
-35.6098
-57.398
25.4845
-123.724
-313.603
-336.214
-142.471
-83.5425
-62.7797
-58.9879
-32.4384
4.38031
36.847
65.0927
86.7369
100.946
108.096
109.168
104.955
96.4611
85.1311
72.5536
59.5068
45.7923
30.633
13.2729
-7.77784
-8.7494
-9.37092
-9.66755
-9.61589
-9.24436
-8.58164
-7.6705
-6.56424
-5.33083
-4.0611
-2.8774
-2.1664
-1.58996
-1.20869
-1.07842
-1.23589
-1.72129
-2.54275
-3.70174
-5.15318
-6.81469
-8.58272
-10.3154
-11.8934
-13.2068
-14.2026
-14.8108
-14.874
-14.5931
-14.211
-13.6217
-12.9078
-11.7838
-11.5851
-12.0223
-12.9583
-14.2819
-15.8777
-17.6551
-19.5759
-21.6623
-24.0391
-28.2317
-39.6786
-48.1179
-50.9274
-49.2364
-42.3659
-30.0722
-14.2993
-0.384811
5.31465
0.421881
-11.8628
-25.2139
-31.5518
-25.9717
-16.1442
-4.16807
11.127
28.6794
44.782
55.7761
60.7891
60.5431
54.9212
42.7667
24.3433
5.43177
-3.85037
-3.98741
-22.4497
-53.5497
-90.7146
-146.907
-176.588
-151.543
-95.5057
-43.0575
-4.29392
21.4761
45.679
62.3904
70.3087
68.2203
56.0688
38.4641
17.7971
-2.93074
-22.9255
-22.3237
-19.5884
-14.8295
-8.40891
-1.05724
6.01232
8.18506
7.60434
5.85217
3.8485
1.45537
-1.90315
-7.77705
-14.1002
-20.5788
-27.9994
-40.6617
-76.0377
-193.727
-596.708
-839.49
-820.394
-724.178
-641.43
-549.167
-235.934
407.022
967.832
987.424
654.769
343.4
158.499
67.4147
24.225
4.51561
0.275025
-0.875778
-9.4566
-24.7137
-35.8466
-37.9248
-37.8887
-35.9652
-73.1992
0.684139
18.0498
16.5245
12.5953
9.96849
8.23542
6.78053
5.28354
3.56892
0.887221
-2.09093
-6.15885
-10.4014
-12.1369
-8.59618
-0.201269
9.55225
10.6351
-53.5199
-178.398
-381.125
-275.536
-19.9245
-41.6879
-19.2697
25.993
46.3073
56.1588
64.9614
77.4699
88.4216
94.7663
95.4321
90.1639
79.9398
66.5459
51.9721
37.8994
25.4997
15.3748
7.6256
1.93885
-2.16192
-5.18765
-7.41534
-8.2098
-8.71073
-8.88914
-8.71608
-8.16884
-7.23983
-5.93643
-4.28308
-2.32329
-0.121076
2.23926
4.65557
7.01096
9.17539
11.0018
12.363
13.2706
13.5988
13.2287
12.0744
10.115
7.41403
4.04807
0.424084
-3.09973
-6.18785
-8.76035
-10.8723
-12.2814
-13.2971
-13.8774
-13.861
-13.2443
-12.0751
-10.3638
-9.04612
-8.38001
-8.42402
-9.10485
-10.2756
-11.7717
-13.4416
-15.1783
-16.9481
-18.7748
-21.1747
-25.8419
-30.4565
-34.2156
-36.0069
-34.5284
-29.7127
-23.1555
-16.9925
-12.3938
-9.46235
-8.3627
-9.51033
-12.4652
-14.8312
-16.3952
-16.4063
-13.9908
-7.95695
3.27463
18.5538
33.629
41.0678
32.8356
11.2192
-7.35612
-12.9356
-24.9256
-83.683
-165.066
-206.078
-159.472
-60.5862
25.6484
65.449
63.6547
60.8821
52.8488
40.7007
26.2855
11.6377
-1.28747
-11.1639
-17.5951
-20.7448
-20.9845
-18.9436
-14.7656
-8.14782
0.938368
12.2069
21.5478
26.9906
26.0205
22.7584
18.9712
14.0576
9.23914
1.9976
-5.62357
-12.6797
-18.9151
-24.5446
-30.6331
-39.754
-59.9708
-125.922
-291.912
-410.583
-482.389
-593.396
-727.812
-707.141
-309.129
360.445
755.779
636.425
352.045
155.621
63.5539
32.9398
30.0365
27.1481
7.68939
-17.3235
-33.4328
-30.437
-21.0456
-242.969
-32.6415
12.855
12.1465
6.63749
5.03087
5.6108
5.9774
5.91016
5.34206
4.227
1.19086
-2.441
-7.26877
-13.6892
-20.9464
-27.0205
-33.7637
-70.3225
-185.286
-413.707
-324.732
82.1107
74.5195
71.1363
64.0101
69.8624
77.137
79.253
80.0157
80.8377
80.7293
77.3632
70.0329
59.3503
46.8307
34.2841
23.1538
14.1757
7.41485
2.51599
-1.02295
-3.65747
-5.70042
-7.28594
-8.3593
-9.34257
-9.55133
-9.34807
-8.73963
-7.74759
-6.41028
-4.77402
-2.88979
-0.81078
1.40852
3.71301
6.04952
8.37289
10.654
12.8839
15.0646
17.1905
19.2168
21.0279
22.4253
23.141
22.8914
21.5157
18.1929
13.4664
7.9436
2.65253
-1.63732
-4.93654
-7.26284
-9.32567
-11.2684
-12.9916
-14.1914
-14.5887
-14.0742
-12.626
-10.8391
-9.27809
-8.337
-8.18731
-8.80312
-10.0365
-11.6938
-13.5916
-15.5977
-17.6214
-19.6353
-22.0676
-24.6598
-26.6789
-27.9192
-27.7836
-26.0137
-22.9905
-19.6007
-16.8345
-15.3366
-15.1006
-15.6067
-16.2055
-16.3114
-15.6391
-14.1587
-12.0795
-10.1172
-7.85834
-4.81319
-2.88391
-7.22987
-19.4441
-32.323
-40.6108
-60.9263
-116.257
-172.172
-155.797
-62.4201
32.1171
77.0528
66.4834
51.4789
37.6296
23.9961
11.8266
1.89678
-5.59705
-10.8813
-14.3824
-16.4445
-17.2592
-17.0452
-15.9615
-12.6923
-6.62361
2.58096
14.6664
28.3531
41.6804
42.9956
39.3484
34.8785
28.1128
18.5612
8.51081
-1.13252
-9.88691
-17.5701
-24.2743
-30.212
-35.4954
-39.9845
-43.2938
-49.8401
-87.76
-192.345
-329.884
-504.688
-674.749
-732.67
-489.325
121.327
589.798
543.588
311.236
155.935
82.5136
55.9789
38.4522
13.8627
-18.8332
-34.1678
-15.2713
7.55013
-223.885
0.0474843
9.78044
-0.0348757
-0.767869
3.48516
7.33665
8.38832
8.8234
9.12571
9.23161
0.721391
-8.87192
-16.711
-23.6653
-34.2969
-62.542
-143.368
-303.667
-359.066
-183.879
86.9332
150.546
118.27
97.7403
85.5936
80.196
76.7878
73.4233
69.7847
64.8946
57.8343
48.519
37.9542
27.4933
18.256
10.8148
5.18571
1.02165
-2.14232
-4.70413
-6.90803
-8.84193
-10.4833
-11.7627
-12.6217
-12.3251
-11.439
-10.024
-8.1774
-6.02252
-3.69896
-1.35318
0.871846
2.84731
4.46895
5.66732
6.41924
6.76116
6.80202
6.72698
6.77925
7.2118
8.21732
9.86505
12.0777
14.6464
17.2506
19.3815
20.3819
19.2056
15.0861
8.70655
2.229
-2.48643
-5.36537
-6.87257
-7.85768
-9.11297
-10.915
-12.9307
-14.5154
-15.1364
-14.6279
-13.2274
-11.4409
-9.82574
-8.80048
-8.5622
-9.11005
-10.3224
-12.0304
-14.0535
-16.2199
-18.375
-20.4338
-22.5151
-23.9959
-24.7572
-24.8142
-24.2158
-23.2265
-22.2104
-21.4281
-20.9074
-20.472
-19.8421
-18.7578
-17.1029
-14.9404
-12.4566
-9.95328
-8.03862
-7.9463
-12.0009
-21.9448
-35.7847
-51.4643
-68.2156
-93.0379
-115.719
-125.187
-75.8668
7.9121
62.1801
66.3592
43.5464
29.844
18.7291
10.2731
4.08963
-0.460482
-3.96897
-6.83751
-9.24555
-11.1398
-12.4142
-13.6009
-14.8593
-13.8938
-9.78607
-1.66126
11.01
27.8495
46.8482
56.8398
55.0512
49.7985
40.3666
28.6773
16.4091
4.69959
-5.82535
-14.8873
-22.4387
-28.6184
-33.6219
-37.3151
-38.9309
-37.9517
-37.3901
-54.8979
-130.321
-267.653
-448.562
-635.074
-731.072
-476.499
153.625
527.67
439.553
258.232
150.272
85.3078
42.5758
6.95118
-29.741
-37.2342
-8.18557
28.3053
-144.997
27.0378
-3.03627
-10.32
-3.7833
3.89632
8.79115
8.34583
7.02849
6.25892
-10.5166
-19.9503
-28.8416
-37.3682
-57.4021
-97.508
-166.833
-252.976
-280.464
-130.555
72.7016
152.655
135.818
105.056
85.9666
74.6369
67.9221
62.6614
57.0935
50.3809
42.2873
33.2468
24.1408
15.8794
9.01704
3.66346
-0.416744
-3.61528
-6.30184
-8.71599
-10.9397
-12.9283
-14.5654
-15.714
-16.2471
-14.8716
-12.8678
-10.2599
-7.20634
-3.89651
-0.542685
2.62595
5.37421
7.47739
8.74454
9.04644
8.34247
6.69955
4.29882
1.43102
-1.51761
-4.10037
-5.8798
-6.52845
-5.9381
-4.27686
-1.95011
0.673376
3.34269
6.83869
11.126
14.1504
13.0678
8.46912
2.48331
-3.10438
-6.80672
-8.22025
-8.05794
-7.62553
-7.993
-9.42035
-11.3945
-13.1053
-13.9287
-13.674
-12.5747
-11.1101
-9.78159
-8.95549
-8.81282
-9.37659
-10.5614
-12.2166
-14.1555
-16.1735
-18.0771
-19.8335
-21.2134
-21.9137
-22.1128
-21.9495
-21.6073
-21.2581
-21.0086
-20.866
-20.7336
-20.4399
-19.8198
-18.802
-17.434
-15.9065
-14.7425
-15.919
-22.1464
-34.2475
-50.2964
-72.2573
-94.7463
-96.5089
-80.8041
-64.5022
-18.8996
33.7177
55.0167
43.2417
27.6877
20.2049
15.5674
12.6208
10.3438
8.088
5.53917
2.59356
-0.707329
-4.14376
-7.48097
-10.9465
-14.9758
-17.0384
-16.1014
-10.8657
0.0718118
17.7278
41.9372
63.022
65.8101
62.7359
53.1078
39.7116
25.1341
11.1323
-1.327
-11.8039
-20.1748
-26.5304
-31.0938
-34.0378
-35.2811
-34.8176
-33.5447
-35.6753
-60.188
-131.995
-267.467
-454.337
-658.239
-710.896
-314.548
274.652
459.876
340.871
215.432
131.423
67.2513
6.71564
-37.8842
-44.5823
-13.7629
32.8292
-44.4161
30.9223
-22.9763
-16.2982
-4.97906
2.30022
5.71495
4.70444
-6.39491
-20.2141
-25.2793
-35.6006
-49.5225
-71.9451
-107.593
-155.14
-197.427
-189.17
-87.0772
52.2557
125.211
125.775
100.243
78.9032
66.0018
57.9044
51.647
45.2151
37.8841
29.7749
21.4502
13.6112
6.82598
1.35542
-2.87232
-6.14895
-8.82685
-11.179
-13.3143
-15.1593
-16.507
-17.1192
-16.8415
-15.667
-13.6878
-10.073
-5.90932
-1.40345
3.22199
7.72691
11.8524
15.3235
17.8572
19.1826
19.0755
17.4121
14.235
9.79601
4.5395
-0.98495
-6.21371
-10.6225
-13.7512
-15.1885
-14.6658
-12.2371
-8.65687
-5.22897
-4.30245
-4.7634
-3.729
0.375471
4.96174
7.70444
6.85382
2.76734
-2.54866
-6.88747
-8.93485
-8.69959
-7.30547
-6.21436
-6.33623
-7.64998
-9.47813
-11.029
-11.7968
-11.6877
-10.9361
-9.92997
-9.04841
-8.56939
-8.64258
-9.29847
-10.4686
-12.0077
-13.7225
-15.4067
-16.8813
-18.1201
-18.9371
-19.3155
-19.4245
-19.3922
-19.3417
-19.3722
-19.5313
-19.7882
-20.0508
-20.2232
-20.2737
-20.3386
-20.9801
-24.0624
-32.5991
-47.6841
-68.4038
-96.5677
-113.33
-77.197
-37.9699
-19.8687
7.35921
33.9992
40.0315
30.0928
24.2231
23.3787
23.4973
23.3116
22.2098
20.0357
16.8435
12.7427
7.86824
2.43369
-3.31157
-8.88869
-15.0926
-19.9571
-22.5183
-21.3286
-14.3896
0.742519
26.5253
59.1495
71.4794
73.5057
65.5596
51.2819
34.5295
18.0788
3.49848
-8.4797
-17.6169
-24.0205
-28.0834
-30.3403
-31.2197
-31.0202
-30.5691
-31.7378
-40.6065
-75.2665
-159.248
-307.848
-514.141
-701.489
-594.085
-76.9082
339.772
379.419
280.768
192.547
107.205
13.933
-44.4424
-56.1061
-26.3973
30.5838
-20.2488
8.64759
-35.8122
-15.2269
-6.51578
-3.48849
-5.22141
-9.32416
-16.3993
-29.8162
-37.7665
-53.9788
-74.9941
-101.511
-128.584
-141.324
-116.977
-47.0467
37.9007
92.0495
102.17
87.5492
69.4222
56.6411
48.2302
41.4225
34.5379
27.0148
19.0924
11.3249
4.27855
-1.64804
-6.31819
-9.85271
-12.5385
-14.6964
-16.5571
-18.1752
-19.4058
-19.9574
-19.4971
-17.7634
-14.6765
-10.4252
-5.45773
-0.221826
5.13364
10.4401
15.5112
20.1597
24.1932
27.4168
29.6259
30.5888
30.029
27.6555
23.3045
17.1558
9.85298
2.31926
-4.59363
-10.3324
-14.7326
-17.5453
-18.2394
-15.9499
-10.3992
-2.29114
3.06476
3.40224
-0.609203
-4.12541
-4.21956
-1.05741
2.74483
4.29484
2.52407
-1.44901
-5.51266
-7.95019
-8.18564
-6.82713
-5.13977
-4.24551
-4.56438
-5.80305
-7.32725
-8.56051
-9.19778
-9.22543
-8.83142
-8.28996
-7.86945
-7.77641
-8.12724
-8.9381
-10.1315
-11.5602
-13.0451
-14.4193
-15.562
-16.4582
-17.034
-17.3104
-17.4254
-17.4916
-17.6317
-17.9485
-18.506
-19.3437
-20.5306
-22.274
-25.2508
-30.8593
-42.1254
-61.0128
-87.3258
-118.119
-116.212
-49.9532
-3.34959
4.37274
14.6411
27.371
31.3457
29.2145
30.3887
33.4582
35.2392
35.122
33.1933
29.8127
25.3348
19.9933
13.9065
7.1387
-0.172722
-7.02048
-14.3281
-21.0628
-26.5168
-29.4338
-27.7159
-18.0328
4.37428
43.3394
69.5327
80.0308
76.5374
62.8822
44.4492
25.5257
8.65672
-4.93975
-14.8588
-21.2641
-24.7895
-26.3401
-26.7946
-26.7919
-26.9569
-28.6132
-34.1962
-53.4413
-103.543
-209.297
-384.094
-599.761
-682.334
-376.626
116.39
349.651
335.579
257.902
147.685
25.4432
-50.1321
-70.7057
-44.7997
19.6888
-6.01573
-18.4817
-34.2544
-19.1873
-10.1221
-9.00363
-12.9024
-20.2768
-33.2489
-36.2178
-50.6389
-67.4784
-84.0493
-94.9302
-91.1124
-64.9035
-19.1792
29.9578
64.3501
76.4198
71.1624
59.1203
48.0124
39.6636
32.5657
25.4118
17.8404
10.112
2.74507
-3.75643
-9.0503
-13.0312
-15.8343
-17.7673
-19.1872
-20.3514
-21.2972
-21.8206
-21.5873
-20.3122
-17.8974
-14.4488
-10.1505
-5.18116
0.118542
4.55905
8.87402
12.9875
16.7687
20.0564
22.7094
24.6838
26.1009
27.229
28.2785
29.013
28.5367
25.6656
19.9101
12.125
4.02949
-2.76713
-8.28593
-12.916
-16.5623
-17.7743
-14.7244
-5.55233
5.86649
14.6783
14.5305
9.14899
2.8091
-0.775584
-0.651437
1.55651
3.23586
2.68385
0.0339062
-3.26101
-5.63349
-6.29223
-5.42838
-3.88897
-2.62056
-2.20369
-2.6948
-3.76693
-4.97214
-5.95297
-6.53597
-6.72872
-6.66787
-6.55342
-6.58672
-6.91966
-7.62137
-8.6681
-9.95792
-11.3447
-12.6781
-13.8348
-14.7466
-15.3926
-15.7266
-15.87
-15.9439
-16.1137
-16.5766
-17.5675
-19.3957
-22.5234
-27.6898
-36.3571
-50.8912
-73.8982
-105.048
-133.641
-106.386
-24.1825
18.5283
14.8779
14.6194
23.3866
31.4261
36.5335
40.7009
44.4691
45.269
43.3868
39.6085
34.6934
29.1315
23.1194
16.6534
9.62254
2.03192
-5.16433
-12.5008
-19.9109
-27.0218
-33.0209
-36.2236
-33.3164
-18.3168
18.5125
58.6519
80.2002
84.4509
73.6725
54.5536
33.3661
14.1158
-1.20895
-11.9389
-18.3234
-21.3235
-22.2666
-22.3691
-22.4558
-23.0046
-24.847
-29.669
-42.6469
-74.5359
-148.518
-285.453
-485.085
-654.749
-557.837
-134.558
247.304
360.403
314.667
188.176
40.016
-52.8261
-84.3098
-65.9015
-0.377728
7.28584
-43.8668
-32.7899
-19.5652
-13.3233
-14.5708
-20.711
-27.6501
-33.3463
-43.121
-53.1592
-60.5925
-61.4875
-52.0645
-31.3739
-3.49149
23.9446
44.2273
54.3771
54.8048
48.7066
40.4487
32.6522
25.4643
18.2118
10.6989
3.20165
-3.78946
-9.77745
-14.4077
-17.5556
-19.3562
-20.1634
-20.4298
-20.5284
-20.5908
-20.4745
-19.8924
-18.6097
-16.5667
-13.8762
-10.7625
-7.52711
-4.42031
-1.09538
1.33805
3.98155
6.85079
9.82523
12.6199
14.8092
15.9651
15.9458
15.281
15.3241
17.5625
22.2396
27.3221
29.1836
25.5263
17.3319
9.02343
2.23065
-3.6608
-9.56674
-14.5163
-16.2411
-11.7772
1.05636
13.428
21.2666
22.2112
17.6296
11.1448
6.1056
3.90902
3.91245
4.42359
3.95989
2.11728
-0.406399
-2.51027
-3.45445
-3.16976
-2.11313
-0.936311
-0.182248
-0.109145
-0.669904
-1.61493
-2.64149
-3.51536
-4.1313
-4.51645
-4.79472
-5.13073
-5.67119
-6.49941
-7.61486
-8.94038
-10.3502
-11.7052
-12.8819
-13.8143
-14.4232
-14.7232
-14.7978
-14.8038
-15.0013
-15.7901
-17.7512
-21.6953
-28.6535
-40.0558
-58.3161
-85.7093
-120.493
-142.829
-96.9026
-6.10701
30.1477
18.7394
14.1794
24.5567
37.5478
47.4131
50.7216
52.7094
50.9169
46.5494
40.9122
34.9067
28.9256
22.9793
16.8785
10.3644
3.35397
-3.49425
-10.1656
-17.2607
-24.7116
-32.2099
-38.7833
-41.9264
-35.842
-8.01109
39.655
72.897
87.8157
82.6647
64.3569
41.3905
19.7764
2.64547
-8.92735
-15.2981
-17.8298
-18.2979
-18.1854
-18.3332
-19.0868
-20.8512
-25.048
-34.661
-56.6674
-109.978
-215.253
-385.144
-578.047
-626.308
-346.153
93.6495
341.929
353.139
224.054
56.5648
-51.1955
-92.8267
-85.169
-25.2786
1.94829
-41.5802
-29.4405
-19.2251
-16.2219
-19.3415
-26.0729
-34.5158
-35.0774
-38.9016
-39.7966
-36.078
-26.8221
-12.8906
3.05274
17.8981
29.6033
37.2788
40.3274
38.6465
33.5514
27.0103
20.1103
13.0011
5.70116
-1.49665
-8.10564
-13.5998
-17.5673
-19.8281
-20.4923
-19.9456
-18.7408
-17.4037
-16.237
-15.25
-14.266
-13.1195
-11.7898
-10.3825
-9.01831
-7.70455
-6.2946
-4.62949
-4.60619
-4.15354
-2.96192
-0.790613
2.51234
6.8546
11.7298
16.107
18.5832
18.178
15.731
14.2733
16.9829
24.4547
32.5353
35.5969
29.9402
20.1223
11.394
4.24776
-2.6685
-9.43344
-14.3202
-13.9841
-6.69891
5.20262
16.7506
23.8993
25.418
22.4698
17.4061
12.5574
9.27155
7.64153
6.90438
6.10133
4.68055
2.77053
0.96263
-0.168412
-0.395386
0.12872
1.01294
1.80917
2.17463
1.97595
1.2959
0.348739
-0.63849
-1.51742
-2.25513
-2.91974
-3.63318
-4.51354
-5.62789
-6.96924
-8.46105
-9.98191
-11.3971
-12.5904
-13.4758
-14.0016
-14.1757
-14.1006
-14.0319
-14.4583
-16.1807
-20.3566
-28.3997
-41.9528
-63.3478
-94.8786
-132.327
-148.169
-91.6751
2.62042
35.0619
20.6619
16.1186
29.8781
46.2827
57.2948
59.4312
56.9756
52.0997
45.4928
38.6448
32.2916
26.5347
21.1292
15.721
9.98759
3.83836
-2.41048
-8.18243
-14.438
-21.3103
-28.8813
-36.8686
-43.912
-45.5477
-29.375
16.6976
58.7847
85.7792
88.9726
73.3483
49.3583
25.5186
6.54696
-5.88962
-12.2638
-14.4118
-14.5634
-14.3882
-14.6104
-15.3646
-16.8114
-20.09
-27.7752
-43.9818
-83.1961
-165.151
-305.198
-490.465
-617.436
-485.179
-75.2437
278.824
365.908
250.518
73.3317
-46.0849
-94.5926
-97.816
-49.303
-0.769767
-37.816
-25.6538
-18.2762
-18.7103
-23.9014
-30.1624
-28.4046
-29.0621
-26.646
-21.3074
-13.5925
-4.66462
4.09637
11.8046
18.374
23.8947
27.748
28.7852
26.567
21.8983
15.9431
9.39126
2.54854
-4.26734
-10.5592
-15.7365
-19.2832
-20.9151
-20.6683
-18.9032
-16.2191
-13.2748
-10.5715
-8.32325
-6.50214
-4.99974
-3.76267
-2.84155
-2.35981
-2.4336
-3.10266
-4.16079
-5.09735
-7.13668
-8.79576
-9.69879
-9.4207
-7.41244
-3.16896
3.50955
12.1378
20.8516
26.2788
25.8903
22.0473
20.1746
24.8398
33.4007
39.7391
37.0898
25.9584
15.3
6.76891
0.0394841
-6.30802
-11.9381
-14.4842
-11.5963
-3.27992
7.54846
17.0798
23.0276
25.0994
24.0201
20.8754
16.9646
13.4661
11.0017
9.51289
8.48347
7.35424
5.90762
4.36079
3.13398
2.5425
2.63456
3.19803
3.87007
4.29194
4.24778
3.7214
2.85026
1.82142
0.776315
-0.235856
-1.25282
-2.35896
-3.63363
-5.1091
-6.7516
-8.46793
-10.13
-11.605
-12.7874
-13.5785
-13.9453
-13.9188
-13.6965
-13.7681
-15.055
-18.9939
-27.3971
-42.2478
-65.9834
-100.82
-141.051
-155.26
-93.6576
2.44256
35.7405
23.0151
20.7705
37.4748
55.4381
65.0266
65.7134
58.1769
50.2367
42.1293
34.867
28.7734
23.5756
18.8
14.0126
8.91519
3.46169
-2.22492
-7.19756
-12.5641
-18.5322
-25.3734
-33.2433
-41.7419
-48.2919
-42.5438
-4.62093
40.3373
78.4986
92.0433
81.0983
57.0501
31.2326
10.4291
-2.87739
-9.276
-11.1376
-11.1382
-11.0394
-11.3415
-11.8832
-12.7097
-14.8128
-20.8014
-34.1782
-63.0457
-127.662
-242.74
-408.698
-566.977
-550.005
-225.03
181.843
349.071
263.754
87.6851
-38.4763
-89.7954
-101.616
-67.3633
-1.46785
-33.9324
-20.962
-15.2153
-17.4653
-21.4903
-22.6374
-23.1465
-20.0638
-14.4588
-7.84563
-1.6789
3.1516
6.68781
9.72407
13.0005
16.3259
18.5436
18.5184
16.0688
11.8425
6.5683
0.680257
-5.51132
-11.5395
-16.7256
-20.367
-21.9814
-21.4521
-19.0408
-15.3105
-10.9811
-6.72965
-3.00856
0.0120699
2.35039
4.06041
5.1534
5.61298
5.40495
4.48105
2.78065
0.113804
-3.71423
-7.12412
-10.4701
-13.3805
-15.5621
-16.3436
-14.8857
-10.4903
-2.42308
9.28614
21.558
27.3334
25.0738
19.7027
19.9249
27.0132
35.5584
36.6526
28.7305
17.0264
6.97277
-0.255094
-6.07861
-10.7651
-12.9932
-11.6523
-6.7701
0.519034
8.38636
15.1698
20.0504
22.8481
23.4791
22.0242
19.134
15.9102
13.3028
11.6511
10.6745
9.82055
8.71061
7.37371
6.14003
5.35714
5.16912
5.45886
5.92675
6.23924
6.16979
5.6633
4.80451
3.73078
2.5502
1.30155
-0.0400077
-1.52741
-3.198
-5.04074
-6.98543
-8.91482
-10.6909
-12.2076
-13.3041
-13.9416
-14.0976
-13.8907
-13.7401
-14.5678
-17.9691
-26.115
-41.3884
-66.4256
-103.522
-146.805
-163.245
-103.131
-5.87789
33.2018
26.2979
27.4001
45.8952
63.9652
71.2575
68.0413
58.2286
48.003
38.1052
30.9628
25.3625
20.6932
16.3661
11.9611
7.26833
2.27056
-3.25407
-7.46131
-12.2317
-17.4699
-23.4493
-30.4941
-38.5885
-47.0227
-47.0256
-21.6731
20.9178
67.1519
91.793
87.332
64.3017
36.8367
14.2463
0.0788224
-6.36358
-8.03829
-8.05081
-8.15753
-8.52814
-8.64315
-8.49176
-9.1687
-13.3347
-25.6671
-47.2745
-98.2674
-193.501
-337.954
-500.179
-556.765
-334.287
69.2996
303.469
261.106
97.4693
-29.4504
-81.1261
-97.2087
-77.1596
-0.0479461
-30.523
-15.7012
-9.23953
-12.5176
-17.5051
-18.794
-17.4044
-12.2695
-5.87447
-0.379369
2.97428
4.24666
4.52833
5.09361
6.46752
8.09926
8.93206
8.2894
6.20038
3.03389
-0.957743
-5.69843
-10.9966
-16.2718
-20.6028
-23.0949
-23.2588
-21.1345
-17.1814
-12.0958
-6.64228
-1.48516
2.94615
6.48303
9.13345
10.972
12.0628
12.417
11.965
10.5468
8.06673
4.55993
-1.4768
-5.34642
-9.46625
-13.3285
-17.1103
-20.0593
-21.0977
-19.7353
-15.305
-6.39261
7.45864
18.5681
21.6633
17.2336
12.5102
14.751
23.4136
29.8012
27.264
18.0717
8.24689
0.404587
-5.95119
-10.3672
-11.2787
-8.65976
-4.30255
0.218733
4.5005
8.71258
12.9699
17.087
20.4464
22.1748
21.782
19.6828
16.9744
14.7039
13.3083
12.5637
11.9373
11.0375
9.85515
8.68158
7.84768
7.50857
7.58039
7.81148
7.91758
7.70285
7.10951
6.18854
5.02984
3.70081
2.22063
0.570771
-1.27294
-3.30563
-5.47157
-7.66361
-9.74228
-11.5795
-13.0355
-14.0097
-14.4549
-14.4266
-14.2421
-14.7247
-17.4727
-24.903
-39.8258
-65.1441
-103.278
-149.288
-171.487
-119.14
-21.8233
27.2202
29.7168
34.991
54.3608
71.6999
76.4792
69.5442
57.3804
44.7771
34.7707
27.7479
22.0355
17.6242
13.5535
9.40283
5.04435
0.384485
-4.73408
-8.91151
-13.5525
-18.5087
-23.9326
-30.2021
-36.9558
-44.8673
-46.6977
-32.7488
3.4729
53.5564
88.6094
91.9585
71.016
42.2821
17.9757
2.96818
-3.53326
-5.11628
-5.29779
-5.74141
-6.17076
-5.64919
-4.15949
-3.15585
-5.41241
-15.2526
-33.6565
-74.4893
-153.848
-278.483
-431.48
-526.432
-396.888
-39.444
235.093
241.245
100.824
-20.5501
-70.345
-86.6815
-79.0429
3.38364
-28.7193
-12.5606
-2.98767
-5.75746
-12.0689
-15.4317
-13.177
-7.19866
-0.713287
3.72333
5.16982
4.26626
2.46132
0.995522
0.242474
-0.194727
-0.851831
-1.90758
-3.23923
-4.78464
-6.79853
-9.72277
-13.7337
-18.3345
-22.3307
-24.4377
-23.9742
-21.0241
-16.2121
-10.3373
-4.17367
1.62936
6.62989
10.6319
13.6419
15.7924
17.2703
18.1811
18.3159
17.0041
12.9528
4.86455
0.172573
-3.09398
-7.21561
-10.8789
-15.4863
-19.6183
-22.0513
-22.157
-19.8004
-14.311
-4.77159
6.86065
14.8275
15.1736
10.8953
9.25895
14.1455
21.0654
22.5215
17.3116
9.58521
1.87643
-5.4785
-10.6618
-10.9353
-6.38403
-0.353037
4.03484
6.20857
7.41524
9.08257
11.906
15.603
19.0888
21.1226
21.1302
19.5514
17.4373
15.7151
14.7155
14.1918
13.6746
12.8597
11.7777
10.6946
9.88617
9.46803
9.35729
9.34311
9.20002
8.778
8.03089
6.98682
5.69559
4.1887
2.46876
0.525321
-1.6367
-3.97157
-6.38259
-8.73216
-10.8692
-12.6665
-14.0048
-14.8123
-15.0959
-15.0712
-15.4085
-17.5656
-24.02
-37.9667
-62.6838
-100.729
-148.607
-178.658
-139.628
-44.9355
16.7859
31.7636
42.4342
62.5387
78.8901
81.3044
71.2743
56.4752
42.1846
31.5902
24.1723
18.5825
14.265
10.0841
6.37437
2.44226
-1.90304
-6.63699
-11.2501
-16.2408
-21.4217
-26.7602
-32.6806
-38.0477
-44.0483
-44.9782
-39.0133
-10.4298
39.5723
83.2255
95.0626
77.1594
47.5481
21.6122
5.79386
-0.776469
-2.35297
-2.85489
-3.78405
-4.29305
-2.94324
0.220543
3.13737
2.74822
-4.97133
-21.2072
-54.7814
-121.32
-228.879
-367.732
-477.171
-418.189
-129.426
154.001
205.251
96.3464
-12.8365
-57.9289
-72.0915
-74.9281
7.55916
-27.8338
-12.944
2.02896
2.23586
-7.38215
-13.1981
-12.0113
-5.90063
1.12452
5.8463
7.12864
5.62228
2.69763
-0.492423
-3.5074
-6.35822
-9.02452
-11.205
-12.5129
-12.8354
-12.6038
-12.7907
-14.3887
-17.626
-21.2323
-23.2056
-23.0577
-20.1682
-15.181
-9.04469
-2.60661
3.49433
8.82326
13.1492
16.4323
18.7765
20.3482
21.1924
21.0475
19.4732
15.4363
7.40587
3.03934
-0.239657
-3.5813
-7.55974
-12.2057
-16.7107
-19.9865
-21.0472
-19.66
-15.7892
-8.84893
0.700845
9.30651
12.8283
11.4198
9.78959
12.066