/*--------------------------------*- C++ -*----------------------------------*\
| =========                 |                                                 |
| \\      /  F ield         | OpenFOAM: The Open Source CFD Toolbox           |
|  \\    /   O peration     | Version:  2112                                  |
|   \\  /    A nd           | Website:  www.openfoam.com                      |
|    \\/     M anipulation  |                                                 |
\*---------------------------------------------------------------------------*/
FoamFile
{
    version     2.0;
    format      ascii;
    arch        "LSB;label=32;scalar=64";
    class       surfaceScalarField;
    location    "0.08";
    object      phi;
}
// * * * * * * * * * * * * * * * * * * * * * * * * * * * * * * * * * * * * * //

dimensions      [0 3 -1 0 0 0 0];

oriented        oriented;

internalField   nonuniform List<scalar> 
24170
(
3.04013e-06
1.48274e-07
2.86544e-06
1.74687e-07
2.69602e-06
1.69424e-07
2.53762e-06
1.58405e-07
2.39837e-06
1.39247e-07
2.28455e-06
1.13822e-07
2.19812e-06
8.64297e-08
2.13687e-06
6.12427e-08
2.09575e-06
4.11191e-08
2.06905e-06
2.67006e-08
2.05072e-06
1.83358e-08
2.03609e-06
1.46268e-08
2.02222e-06
1.38717e-08
2.00752e-06
1.47013e-08
1.9916e-06
1.59138e-08
1.97166e-06
1.99457e-08
1.93713e-06
3.45271e-08
5.6321e-08
1.88081e-06
3.4839e-06
8.16212e-08
3.52618e-06
1.32408e-07
3.54603e-06
1.49577e-07
3.54159e-06
1.62843e-07
3.51301e-06
1.67826e-07
3.46317e-06
1.63666e-07
3.39598e-06
1.53615e-07
3.31577e-06
1.41456e-07
3.22708e-06
1.29813e-07
3.13416e-06
1.19617e-07
3.04123e-06
1.11262e-07
2.95187e-06
1.03992e-07
2.86876e-06
9.6983e-08
2.79341e-06
9.00448e-08
2.72651e-06
8.28177e-08
2.66788e-06
7.85751e-08
2.62643e-06
7.59752e-08
8.24752e-08
2.60028e-06
3.68166e-06
6.2475e-08
3.70095e-06
1.1312e-07
3.71928e-06
1.31243e-07
3.73821e-06
1.43913e-07
3.75494e-06
1.51096e-07
3.76689e-06
1.51718e-07
3.7724e-06
1.48103e-07
3.77067e-06
1.43186e-07
3.76159e-06
1.38899e-07
3.7453e-06
1.35908e-07
3.72229e-06
1.34273e-07
3.69298e-06
1.33299e-07
3.65782e-06
1.3214e-07
3.61744e-06
1.30423e-07
3.57233e-06
1.27931e-07
3.52455e-06
1.26356e-07
3.47636e-06
1.24162e-07
1.2189e-07
3.43695e-06
3.93649e-06
5.13782e-08
3.94878e-06
1.00825e-07
3.95908e-06
1.20942e-07
3.96962e-06
1.33379e-07
3.98024e-06
1.40473e-07
3.99016e-06
1.41794e-07
3.99897e-06
1.39295e-07
4.00654e-06
1.35617e-07
4.01294e-06
1.32498e-07
4.0183e-06
1.3055e-07
4.02278e-06
1.29792e-07
4.02632e-06
1.29757e-07
4.02864e-06
1.29824e-07
4.0294e-06
1.29665e-07
4.02821e-06
1.29118e-07
4.02589e-06
1.28677e-07
4.02244e-06
1.2761e-07
1.23547e-07
4.02078e-06
4.21568e-06
4.28247e-08
4.22628e-06
9.02222e-08
4.23533e-06
1.11898e-07
4.24399e-06
1.24711e-07
4.2525e-06
1.31969e-07
4.26036e-06
1.33929e-07
4.26737e-06
1.32288e-07
4.27362e-06
1.29365e-07
4.27941e-06
1.26708e-07
4.28507e-06
1.24893e-07
4.29091e-06
1.23954e-07
4.2971e-06
1.23559e-07
4.30369e-06
1.23242e-07
4.31065e-06
1.22704e-07
4.31801e-06
1.21757e-07
4.32625e-06
1.20438e-07
4.33571e-06
1.18144e-07
1.13247e-07
4.34601e-06
4.51612e-06
3.57924e-08
4.52595e-06
8.03909e-08
4.53487e-06
1.02981e-07
4.54329e-06
1.16289e-07
4.55141e-06
1.23846e-07
4.55894e-06
1.26402e-07
4.5657e-06
1.25534e-07
4.57179e-06
1.23271e-07
4.57751e-06
1.20987e-07
4.58317e-06
1.19233e-07
4.58904e-06
1.18083e-07
4.5953e-06
1.17298e-07
4.60203e-06
1.16519e-07
4.60926e-06
1.15471e-07
4.61709e-06
1.13927e-07
4.6258e-06
1.1173e-07
4.63557e-06
1.08375e-07
1.02794e-07
4.64602e-06
4.83854e-06
2.99727e-08
4.84772e-06
7.12087e-08
4.85673e-06
9.39749e-08
4.86538e-06
1.07637e-07
4.87367e-06
1.15556e-07
4.88138e-06
1.18692e-07
4.88836e-06
1.18551e-07
4.89475e-06
1.16888e-07
4.90081e-06
1.14925e-07
4.90683e-06
1.13211e-07
4.91305e-06
1.11863e-07
4.91963e-06
1.1072e-07
4.92664e-06
1.09505e-07
4.93414e-06
1.07969e-07
4.9422e-06
1.05876e-07
4.95092e-06
1.03003e-07
4.96035e-06
9.89464e-08
9.30313e-08
4.97011e-06
5.1844e-06
2.51538e-08
5.19282e-06
6.27917e-08
5.20174e-06
8.50542e-08
5.21067e-06
9.87056e-08
5.21941e-06
1.0682e-07
5.22763e-06
1.1047e-07
5.23512e-06
1.11058e-07
5.242e-06
1.1001e-07
5.24855e-06
1.08371e-07
5.25505e-06
1.0671e-07
5.26172e-06
1.05193e-07
5.26871e-06
1.03729e-07
5.27611e-06
1.02109e-07
5.28396e-06
1.00119e-07
5.29228e-06
9.75557e-08
5.30107e-06
9.42148e-08
5.3103e-06
8.9718e-08
8.36793e-08
5.31965e-06
5.55529e-06
2.11998e-08
5.56295e-06
5.51353e-08
5.5716e-06
7.64037e-08
5.5806e-06
8.97076e-08
5.58966e-06
9.77527e-08
5.59843e-06
1.01703e-07
5.60663e-06
1.02856e-07
5.61425e-06
1.02394e-07
5.62146e-06
1.01154e-07
5.62854e-06
9.96376e-08
5.63569e-06
9.80386e-08
5.64309e-06
9.6328e-08
5.65084e-06
9.43634e-08
5.65898e-06
9.19773e-08
5.66753e-06
8.90043e-08
5.67646e-06
8.5284e-08
5.68565e-06
8.05298e-08
7.45463e-08
5.69478e-06
5.95301e-06
1.79636e-08
5.96001e-06
4.81419e-08
5.96832e-06
6.80934e-08
5.97722e-06
8.08027e-08
5.98639e-06
8.85848e-08
5.99547e-06
9.26265e-08
6.00422e-06
9.41033e-08
6.01256e-06
9.40516e-08
6.02055e-06
9.3169e-08
6.02833e-06
9.1854e-08
6.0361e-06
9.02713e-08
6.044e-06
8.84212e-08
6.05215e-06
8.62157e-08
6.06059e-06
8.35388e-08
6.06933e-06
8.02678e-08
6.07833e-06
7.6281e-08
6.08745e-06
7.1413e-08
6.55994e-08
6.09639e-06
6.37952e-06
1.52539e-08
6.38594e-06
4.17217e-08
6.39391e-06
6.01232e-08
6.40265e-06
7.20652e-08
6.4118e-06
7.94309e-08
6.42103e-06
8.34022e-08
6.4301e-06
8.50285e-08
6.43894e-06
8.52114e-08
6.44756e-06
8.45522e-08
6.45603e-06
8.33826e-08
6.46447e-06
8.18366e-08
6.47297e-06
7.99196e-08
6.48161e-06
7.75737e-08
6.49043e-06
7.47222e-08
6.49941e-06
7.12852e-08
6.5085e-06
6.71877e-08
6.51756e-06
6.23536e-08
5.6805e-08
6.52636e-06
5.74284e-06
1.32465e-08
5.74785e-06
3.67099e-08
5.75439e-06
5.35866e-08
5.76165e-06
6.48009e-08
5.76934e-06
7.17469e-08
5.77719e-06
7.55488e-08
5.78503e-06
7.71946e-08
5.79276e-06
7.74761e-08
5.8004e-06
7.69165e-08
5.80797e-06
7.58063e-08
5.81554e-06
7.42666e-08
5.82315e-06
7.23091e-08
5.83083e-06
6.98939e-08
5.83859e-06
6.69686e-08
5.84639e-06
6.34831e-08
5.85418e-06
5.93996e-08
5.86184e-06
5.46924e-08
4.94335e-08
5.86921e-06
7.00019e-06
1.12098e-08
7.00555e-06
3.13533e-08
7.01281e-06
4.63236e-08
7.02103e-06
5.65778e-08
7.02978e-06
6.29979e-08
7.03882e-06
6.65175e-08
7.04793e-06
6.80756e-08
7.05704e-06
6.83719e-08
7.06611e-06
6.78494e-08
7.07516e-06
6.67532e-08
7.08423e-06
6.51932e-08
7.09335e-06
6.31924e-08
7.10251e-06
6.07321e-08
7.1117e-06
5.77841e-08
7.12085e-06
5.43263e-08
7.1299e-06
5.03537e-08
7.13871e-06
4.58799e-08
4.10057e-08
7.14714e-06
8.53292e-06
9.13809e-09
8.53857e-06
2.57006e-08
8.54653e-06
3.83636e-08
8.55581e-06
4.72963e-08
8.56575e-06
5.30572e-08
8.57607e-06
5.62016e-08
8.5866e-06
5.75468e-08
8.59722e-06
5.77507e-08
8.60788e-06
5.71905e-08
8.61857e-06
5.6065e-08
8.62929e-06
5.44675e-08
8.64005e-06
5.24309e-08
8.65083e-06
4.99585e-08
8.66156e-06
4.70472e-08
8.67219e-06
4.37011e-08
8.6826e-06
3.99412e-08
8.69267e-06
3.58073e-08
3.14091e-08
8.70227e-06
1.04013e-05
7.00976e-09
1.04073e-05
1.9776e-08
1.04159e-05
2.97553e-08
1.04262e-05
3.69367e-08
1.04376e-05
4.17223e-08
1.04494e-05
4.44037e-08
1.04615e-05
4.54462e-08
1.04738e-05
4.54419e-08
1.04862e-05
4.47607e-08
1.04987e-05
4.35649e-08
1.05113e-05
4.19283e-08
1.05238e-05
3.98861e-08
1.05363e-05
3.74583e-08
1.05487e-05
3.46628e-08
1.05609e-05
3.15243e-08
1.05727e-05
2.80815e-08
1.05841e-05
2.43873e-08
2.05459e-08
1.0595e-05
1.2679e-05
4.79152e-09
1.26852e-05
1.3544e-08
1.26945e-05
2.04802e-08
1.27059e-05
2.55137e-08
1.27188e-05
2.88904e-08
1.27323e-05
3.08257e-08
1.27463e-05
3.14833e-08
1.27605e-05
3.12053e-08
1.2775e-05
3.03387e-08
1.27895e-05
2.90472e-08
1.2804e-05
2.73897e-08
1.28185e-05
2.5397e-08
1.28329e-05
2.30961e-08
1.2847e-05
2.05167e-08
1.28609e-05
1.76949e-08
1.28743e-05
1.46764e-08
1.28871e-05
1.15159e-08
8.30329e-09
1.28994e-05
1.54555e-05
2.42885e-09
1.54622e-05
6.87981e-09
1.54723e-05
1.03966e-08
1.54849e-05
1.28886e-08
1.54993e-05
1.44606e-08
1.55149e-05
1.52397e-08
1.55311e-05
1.52906e-08
1.55477e-05
1.46769e-08
1.55644e-05
1.36077e-08
1.55812e-05
1.22351e-08
1.5598e-05
1.06091e-08
1.56146e-05
8.7507e-09
1.5631e-05
6.68327e-09
1.56471e-05
4.43739e-09
1.56628e-05
2.04969e-09
1.56779e-05
-4.37028e-10
1.56924e-05
-2.97463e-09
-5.49154e-09
1.57062e-05
1.88402e-05
-1.80707e-10
1.88476e-05
-4.95442e-10
1.88589e-05
-8.63174e-10
1.88731e-05
-1.34378e-09
1.88895e-05
-1.95468e-09
1.89075e-05
-2.69634e-09
1.89263e-05
-3.57077e-09
1.89456e-05
-4.62767e-09
1.89651e-05
-5.88747e-09
1.89846e-05
-7.27628e-09
1.9004e-05
-8.77085e-09
1.90231e-05
-1.03708e-08
1.90419e-05
-1.2069e-08
1.90602e-05
-1.3846e-08
1.90779e-05
-1.56743e-08
1.9095e-05
-1.75214e-08
1.91114e-05
-1.93504e-08
-2.1108e-08
1.9127e-05
2.29664e-05
-3.24088e-09
2.29751e-05
-9.19008e-09
2.29884e-05
-1.41427e-08
2.30052e-05
-1.81331e-08
2.30245e-05
-2.13258e-08
2.30457e-05
-2.3879e-08
2.30681e-05
-2.59164e-08
2.3091e-05
-2.75545e-08
2.3114e-05
-2.89305e-08
2.31369e-05
-3.01696e-08
2.31595e-05
-3.13455e-08
2.31816e-05
-3.24966e-08
2.32032e-05
-3.36405e-08
2.32241e-05
-3.47782e-08
2.32444e-05
-3.58994e-08
2.32638e-05
-3.6986e-08
2.32825e-05
-3.8013e-08
-3.89439e-08
2.33003e-05
1.68131e-05
-5.67703e-09
1.682e-05
-1.60266e-08
1.68303e-05
-2.44467e-08
1.68431e-05
-3.09937e-08
1.68578e-05
-3.60092e-08
1.68737e-05
-3.97891e-08
1.68904e-05
-4.25484e-08
1.69073e-05
-4.44648e-08
1.69241e-05
-4.57797e-08
1.69407e-05
-4.67703e-08
1.6957e-05
-4.75837e-08
1.69728e-05
-4.82955e-08
1.69881e-05
-4.89426e-08
1.70028e-05
-4.95348e-08
1.7017e-05
-5.00799e-08
1.70306e-05
-5.05765e-08
1.70436e-05
-5.10123e-08
-5.13621e-08
1.7056e-05
1.4637e-05
-8.12743e-09
1.46438e-05
-2.28209e-08
1.46538e-05
-3.44374e-08
1.4666e-05
-4.31929e-08
1.46797e-05
-4.97094e-08
1.46943e-05
-5.44208e-08
1.47094e-05
-5.75944e-08
1.47245e-05
-5.95488e-08
1.47394e-05
-6.06912e-08
1.4754e-05
-6.13671e-08
1.47681e-05
-6.17412e-08
1.47818e-05
-6.19185e-08
1.47948e-05
-6.19785e-08
1.48072e-05
-6.19707e-08
1.48191e-05
-6.19325e-08
1.48304e-05
-6.18786e-08
1.48412e-05
-6.1801e-08
-6.16741e-08
1.48515e-05
1.27428e-05
-1.07821e-08
1.27499e-05
-2.9953e-08
1.276e-05
-4.44865e-08
1.27718e-05
-5.50612e-08
1.27849e-05
-6.2724e-08
1.27985e-05
-6.80205e-08
1.28122e-05
-7.13396e-08
1.28258e-05
-7.3199e-08
1.28392e-05
-7.4059e-08
1.28521e-05
-7.42538e-08
1.28644e-05
-7.40028e-08
1.28759e-05
-7.34823e-08
1.28868e-05
-7.28613e-08
1.28971e-05
-7.22566e-08
1.29069e-05
-7.17047e-08
1.29162e-05
-7.12037e-08
1.29251e-05
-7.07326e-08
-7.02546e-08
1.29337e-05
1.1094e-05
-1.38721e-08
1.11018e-05
-3.77405e-08
1.11121e-05
-5.47634e-08
1.11237e-05
-6.66624e-08
1.1136e-05
-7.50776e-08
1.11487e-05
-8.06606e-08
1.11613e-05
-8.39573e-08
1.11736e-05
-8.55467e-08
1.11855e-05
-8.58927e-08
1.11966e-05
-8.53802e-08
1.1207e-05
-8.43746e-08
1.12166e-05
-8.31556e-08
1.12257e-05
-8.19154e-08
1.12342e-05
-8.07759e-08
1.12423e-05
-7.97786e-08
1.125e-05
-7.89144e-08
1.12574e-05
-7.81462e-08
-7.74151e-08
1.12646e-05
9.65906e-06
-1.77139e-08
9.66772e-06
-4.64063e-08
9.67816e-06
-6.5204e-08
9.68934e-06
-7.78352e-08
9.70093e-06
-8.66751e-08
9.71262e-06
-9.23457e-08
9.72407e-06
-9.54047e-08
9.73503e-06
-9.6511e-08
9.74536e-06
-9.62224e-08
9.75497e-06
-9.49931e-08
9.76385e-06
-9.32512e-08
9.77203e-06
-9.13412e-08
9.77962e-06
-8.94996e-08
9.78671e-06
-8.78639e-08
9.79341e-06
-8.64786e-08
9.79981e-06
-8.53225e-08
9.80601e-06
-8.43419e-08
-8.34609e-08
9.81206e-06
8.41035e-06
-2.27128e-08
8.41999e-06
-5.60462e-08
8.43036e-06
-7.55729e-08
8.44088e-06
-8.83563e-08
8.45162e-06
-9.74125e-08
8.46235e-06
-1.03077e-07
8.47277e-06
-1.05827e-07
8.48267e-06
-1.06411e-07
8.49192e-06
-1.05469e-07
8.50044e-06
-1.03516e-07
8.50822e-06
-1.0103e-07
8.5153e-06
-9.84155e-08
8.52176e-06
-9.59648e-08
8.52774e-06
-9.3842e-08
8.53336e-06
-9.20951e-08
8.53872e-06
-9.0685e-08
8.5439e-06
-8.95285e-08
-8.84509e-08
8.54889e-06
7.32394e-06
-2.93651e-08
7.33463e-06
-6.67349e-08
7.3448e-06
-8.5747e-08
7.35474e-06
-9.82925e-08
7.36487e-06
-1.07546e-07
7.37501e-06
-1.13218e-07
7.38487e-06
-1.15691e-07
7.39426e-06
-1.15801e-07
7.40303e-06
-1.14234e-07
7.41107e-06
-1.11552e-07
7.41833e-06
-1.08292e-07
7.42485e-06
-1.04937e-07
7.43073e-06
-1.01843e-07
7.4361e-06
-9.92166e-08
7.44112e-06
-9.71171e-08
7.44593e-06
-9.54918e-08
7.45068e-06
-9.42772e-08
-9.34728e-08
7.4557e-06
6.37918e-06
-3.84779e-08
6.3915e-06
-7.90559e-08
6.40211e-06
-9.63559e-08
6.41252e-06
-1.087e-07
6.42331e-06
-1.18339e-07
6.43423e-06
-1.2414e-07
6.44504e-06
-1.26495e-07
6.4555e-06
-1.26264e-07
6.46537e-06
-1.24109e-07
6.47444e-06
-1.2062e-07
6.48257e-06
-1.16418e-07
6.48972e-06
-1.12089e-07
6.49596e-06
-1.08086e-07
6.50143e-06
-1.04683e-07
6.50628e-06
-1.01967e-07
6.5107e-06
-9.99125e-08
6.51475e-06
-9.83259e-08
-9.66443e-08
6.51792e-06
5.56101e-06
-5.40235e-08
5.57869e-06
-9.67314e-08
5.5946e-06
-1.1227e-07
5.61162e-06
-1.25718e-07
5.62955e-06
-1.36274e-07
5.64754e-06
-1.42127e-07
5.66475e-06
-1.43709e-07
5.6803e-06
-1.41808e-07
5.69331e-06
-1.37126e-07
5.70316e-06
-1.30463e-07
5.70945e-06
-1.22715e-07
5.7121e-06
-1.14732e-07
5.71118e-06
-1.07173e-07
5.70694e-06
-1.00437e-07
5.69957e-06
-9.46047e-08
5.68929e-06
-8.96245e-08
5.67666e-06
-8.57029e-08
-8.29007e-08
5.66292e-06
4.88508e-06
-1.11494e-07
4.93203e-06
-1.43687e-07
4.96927e-06
-1.49504e-07
4.99514e-06
-1.51591e-07
5.00758e-06
-1.48718e-07
5.00621e-06
-1.40748e-07
4.9915e-06
-1.29002e-07
4.96442e-06
-1.14727e-07
4.92625e-06
-9.89563e-08
4.87848e-06
-8.26925e-08
4.82267e-06
-6.69089e-08
4.76038e-06
-5.24405e-08
4.69311e-06
-3.99041e-08
4.62235e-06
-2.9678e-08
4.54945e-06
-2.1705e-08
4.47554e-06
-1.57112e-08
4.40175e-06
-1.19164e-08
-9.3093e-09
4.32816e-06
4.09118e-06
3.9475e-06
3.79799e-06
3.6464e-06
3.49768e-06
3.35693e-06
3.22793e-06
3.11321e-06
3.01425e-06
2.93156e-06
2.86465e-06
2.81221e-06
2.7723e-06
2.74262e-06
2.72092e-06
2.70521e-06
2.69329e-06
2.68398e-06
5.95745e-08
-5.95745e-08
1.29557e-07
-6.99823e-08
2.04598e-07
-7.50416e-08
2.83492e-07
-7.88937e-08
3.66031e-07
-8.25384e-08
4.52946e-07
-8.6915e-08
5.43973e-07
-9.10276e-08
6.37267e-07
-9.32935e-08
7.30791e-07
-9.3524e-08
8.2276e-07
-9.19698e-08
9.11709e-07
-8.8949e-08
9.96434e-07
-8.4725e-08
1.07593e-06
-7.94954e-08
1.14934e-06
-7.34088e-08
1.21591e-06
-6.65759e-08
1.27499e-06
-5.90775e-08
1.32596e-06
-5.09678e-08
1.36824e-06
-4.22756e-08
1.40123e-06
-3.29978e-08
1.42431e-06
-2.30801e-08
1.4367e-06
-1.23827e-08
1.43748e-06
-7.882e-10
1.4258e-06
1.16803e-08
1.40163e-06
2.41736e-08
1.36524e-06
3.63893e-08
1.31719e-06
4.80546e-08
1.25826e-06
5.8925e-08
1.18951e-06
6.87513e-08
1.11219e-06
7.7317e-08
1.02778e-06
8.44142e-08
9.38444e-07
8.93347e-08
8.4789e-07
9.05543e-08
7.58906e-07
8.89839e-08
6.72309e-07
8.65973e-08
5.88917e-07
8.33917e-08
5.09675e-07
7.92419e-08
4.35622e-07
7.40534e-08
3.67835e-07
6.7787e-08
3.0729e-07
6.05444e-08
2.5457e-07
5.272e-08
2.09367e-07
4.52033e-08
1.69905e-07
3.94624e-08
1.32834e-07
3.70709e-08
9.43929e-08
3.84409e-08
5.22224e-08
4.21705e-08
5.63591e-09
4.65865e-08
-4.56175e-08
5.12534e-08
-1.02142e-07
5.65248e-08
-1.64747e-07
6.26047e-08
-2.3418e-07
6.94325e-08
-3.11054e-07
7.68741e-08
-3.95896e-07
8.48422e-08
-4.89196e-07
9.33002e-08
-5.91424e-07
1.02228e-07
-7.03015e-07
1.11591e-07
-8.24348e-07
1.21333e-07
-9.55706e-07
1.31358e-07
-1.09725e-06
1.41541e-07
-1.24896e-06
1.51718e-07
-1.41067e-06
1.61701e-07
-1.58195e-06
1.71287e-07
-1.76223e-06
1.80279e-07
-1.95076e-06
1.88525e-07
-2.14671e-06
1.95949e-07
-2.34931e-06
2.02602e-07
-2.55796e-06
2.0865e-07
-2.77068e-06
2.12719e-07
-2.98373e-06
2.13054e-07
-3.19424e-06
2.10508e-07
-3.4006e-06
2.06357e-07
-3.60129e-06
2.00693e-07
-3.79485e-06
1.93557e-07
-3.98001e-06
1.85168e-07
-4.15584e-06
1.75822e-07
-4.32167e-06
1.65835e-07
-4.47719e-06
1.55515e-07
-4.62232e-06
1.45135e-07
-4.75723e-06
1.34912e-07
-4.88223e-06
1.25e-07
-4.99771e-06
1.15476e-07
-5.10408e-06
1.0637e-07
-5.20177e-06
9.76892e-08
-5.2912e-06
8.94329e-08
-5.3728e-06
8.15972e-08
-5.44697e-06
7.41751e-08
-5.51413e-06
6.71553e-08
-5.57465e-06
6.05187e-08
-5.62888e-06
5.4232e-08
-5.67713e-06
4.82484e-08
-5.71964e-06
4.25105e-08
-5.7566e-06
3.69623e-08
-5.78816e-06
3.15561e-08
-5.81436e-06
2.62056e-08
-5.83513e-06
2.07664e-08
-5.85042e-06
1.52908e-08
-5.86048e-06
1.00619e-08
-5.86516e-06
4.67345e-09
-5.86427e-06
-8.91068e-10
-5.85782e-06
-6.44247e-09
-5.84551e-06
-1.23158e-08
-5.82715e-06
-1.83549e-08
-5.80214e-06
-2.5012e-08
-5.76965e-06
-3.24895e-08
-5.7287e-06
-4.09531e-08
-5.67814e-06
-5.05552e-08
-5.61672e-06
-6.14188e-08
-5.54307e-06
-7.36547e-08
-5.45562e-06
-8.74532e-08
-5.35263e-06
-1.02982e-07
-5.23228e-06
-1.20349e-07
-5.09269e-06
-1.39597e-07
-4.932e-06
-1.6069e-07
-4.74853e-06
-1.83469e-07
-4.54084e-06
-2.07693e-07
-4.30768e-06
-2.33156e-07
-4.04816e-06
-2.59523e-07
-3.76161e-06
-2.8655e-07
-3.44792e-06
-3.13682e-07
-3.10795e-06
-3.39973e-07
-2.74374e-06
-3.64216e-07
-2.35751e-06
-3.86225e-07
-1.95289e-06
-4.04618e-07
-1.53631e-06
-4.16582e-07
-1.11869e-06
-4.17626e-07
-7.15794e-07
-4.02892e-07
-3.39836e-07
-3.75958e-07
1.80759e-08
-3.57912e-07
3.79523e-07
-3.61447e-07
7.49173e-07
-3.6965e-07
1.1164e-06
-3.67226e-07
1.47021e-06
-3.53815e-07
1.8052e-06
-3.34983e-07
2.11977e-06
-3.14576e-07
2.41406e-06
-2.94288e-07
2.68911e-06
-2.75048e-07
2.94564e-06
-2.56537e-07
3.1839e-06
-2.38254e-07
3.40401e-06
-2.2011e-07
3.60608e-06
-2.02072e-07
3.79079e-06
-1.84706e-07
3.95964e-06
-1.68858e-07
4.11457e-06
-1.54925e-07
4.25756e-06
-1.42987e-07
4.39015e-06
-1.32598e-07
4.51327e-06
-1.23116e-07
4.62719e-06
-1.1392e-07
4.73185e-06
-1.04663e-07
4.82714e-06
-9.52917e-08
4.91292e-06
-8.57761e-08
4.98895e-06
-7.60295e-08
5.055e-06
-6.60477e-08
5.11084e-06
-5.5839e-08
5.15615e-06
-4.53119e-08
5.19057e-06
-3.44213e-08
5.21355e-06
-2.29752e-08
5.22455e-06
-1.10014e-08
5.22235e-06
2.1994e-09
5.20797e-06
1.43728e-08
5.18294e-06
2.50358e-08
5.14764e-06
3.53007e-08
5.1021e-06
4.55408e-08
5.04599e-06
5.61108e-08
4.97899e-06
6.7e-08
4.901e-06
7.79849e-08
4.81225e-06
8.87545e-08
4.71322e-06
9.90239e-08
4.60467e-06
1.08552e-07
4.48755e-06
1.17124e-07
4.36296e-06
1.24587e-07
4.23211e-06
1.30854e-07
4.09621e-06
1.35896e-07
3.95647e-06
1.39737e-07
3.81402e-06
1.42458e-07
3.6698e-06
1.44213e-07
3.52453e-06
1.45271e-07
3.37834e-06
1.46195e-07
3.23025e-06
1.48085e-07
3.07598e-06
1.54267e-07
2.89937e-06
1.7661e-07
2.24736e-07
2.67464e-06
7.32821e-08
-1.32857e-07
1.53452e-07
-1.50152e-07
2.39497e-07
-1.61087e-07
3.29552e-07
-1.68949e-07
4.21453e-07
-1.74439e-07
5.1272e-07
-1.78182e-07
6.01993e-07
-1.80301e-07
6.89033e-07
-1.80334e-07
7.73611e-07
-1.78102e-07
8.55329e-07
-1.73688e-07
9.33673e-07
-1.67293e-07
1.00808e-06
-1.59133e-07
1.07798e-06
-1.49399e-07
1.14282e-06
-1.38244e-07
1.20204e-06
-1.25793e-07
1.25511e-06
-1.12149e-07
1.30154e-06
-9.73976e-08
1.34088e-06
-8.16131e-08
1.37274e-06
-6.48653e-08
1.39688e-06
-4.72197e-08
1.41325e-06
-2.87484e-08
1.42201e-06
-9.54466e-09
1.42326e-06
1.04218e-08
1.4163e-06
3.1137e-08
1.40032e-06
5.2369e-08
1.3746e-06
7.37791e-08
1.33857e-06
9.49469e-08
1.29197e-06
1.15353e-07
1.23492e-06
1.34369e-07
1.16811e-06
1.51226e-07
1.09252e-06
1.6492e-07
1.00868e-06
1.74398e-07
9.18057e-07
1.79606e-07
8.2367e-07
1.80984e-07
7.28283e-07
1.78779e-07
6.34348e-07
1.73178e-07
5.43984e-07
1.64417e-07
4.5895e-07
1.5282e-07
3.80591e-07
1.38903e-07
3.09721e-07
1.2359e-07
2.46416e-07
1.08509e-07
1.89725e-07
9.61528e-08
1.37512e-07
8.92837e-08
8.6873e-08
8.90803e-08
3.50951e-08
9.39484e-08
-1.98326e-08
1.01514e-07
-7.94415e-08
1.10862e-07
-1.4508e-07
1.22163e-07
-2.17972e-07
1.35497e-07
-2.99196e-07
1.50657e-07
-3.89666e-07
1.67344e-07
-4.90148e-07
1.85324e-07
-6.01313e-07
2.04465e-07
-7.23777e-07
2.24692e-07
-8.58111e-07
2.45925e-07
-1.00482e-06
2.68038e-07
-1.16428e-06
2.90824e-07
-1.33674e-06
3.13994e-07
-1.52219e-06
3.37171e-07
-1.72039e-06
3.59906e-07
-1.9308e-06
3.81697e-07
-2.15253e-06
4.02003e-07
-2.38427e-06
4.20272e-07
-2.62427e-06
4.35944e-07
-2.87014e-06
4.4847e-07
-3.1187e-06
4.57209e-07
-3.36707e-06
4.61092e-07
-3.61326e-06
4.59243e-07
-3.85487e-06
4.52123e-07
-4.0892e-06
4.40685e-07
-4.31405e-06
4.25538e-07
-4.52775e-06
4.07263e-07
-4.72911e-06
3.86526e-07
-4.9173e-06
3.64013e-07
-5.09184e-06
3.4037e-07
-5.25247e-06
3.16153e-07
-5.39916e-06
2.9182e-07
-5.53199e-06
2.67747e-07
-5.65126e-06
2.44261e-07
-5.75741e-06
2.21633e-07
-5.85111e-06
2.00063e-07
-5.93309e-06
1.79674e-07
-6.00418e-06
1.60517e-07
-6.06516e-06
1.42582e-07
-6.11681e-06
1.25821e-07
-6.15982e-06
1.10167e-07
-6.19484e-06
9.5538e-08
-6.22243e-06
8.18275e-08
-6.2431e-06
6.89127e-08
-6.25725e-06
5.66648e-08
-6.26525e-06
4.49564e-08
-6.26739e-06
3.36961e-08
-6.264e-06
2.28195e-08
-6.25512e-06
1.18845e-08
-6.24102e-06
1.19454e-09
-6.22244e-06
-8.5216e-09
-6.19919e-06
-1.85755e-08
-6.17092e-06
-2.91626e-08
-6.13698e-06
-4.03818e-08
-6.09688e-06
-5.24136e-08
-6.04993e-06
-6.53085e-08
-5.9956e-06
-7.93437e-08
-5.93326e-06
-9.4821e-08
-5.86218e-06
-1.12041e-07
-5.78144e-06
-1.31291e-07
-5.69006e-06
-1.52801e-07
-5.58697e-06
-1.76746e-07
-5.47099e-06
-2.03428e-07
-5.34079e-06
-2.33188e-07
-5.19488e-06
-2.66256e-07
-5.03168e-06
-3.02791e-07
-4.84945e-06
-3.42926e-07
-4.64623e-06
-3.86688e-07
-4.42015e-06
-4.33773e-07
-4.16996e-06
-4.83344e-07
-3.89537e-06
-5.34113e-07
-3.5963e-06
-5.85618e-07
-3.27304e-06
-6.36946e-07
-2.92663e-06
-6.86382e-07
-2.55915e-06
-7.31698e-07
-2.17379e-06
-7.71579e-07
-1.77465e-06
-8.03765e-07
-1.3668e-06
-8.24427e-07
-9.5546e-07
-8.28968e-07
-5.43837e-07
-8.14515e-07
-1.31884e-07
-7.87911e-07
2.79741e-07
-7.69537e-07
6.82349e-07
-7.64056e-07
1.07378e-06
-7.61083e-07
1.45157e-06
-7.45014e-07
1.81404e-06
-7.16287e-07
2.15956e-06
-6.80498e-07
2.48702e-06
-6.42032e-07
2.79592e-06
-6.03192e-07
3.08613e-06
-5.65261e-07
3.35783e-06
-5.28236e-07
3.61148e-06
-4.91906e-07
3.84828e-06
-4.56904e-07
4.07019e-06
-4.23984e-07
4.27895e-06
-3.93466e-07
4.47553e-06
-3.6544e-07
4.66033e-06
-3.39724e-07
4.83354e-06
-3.16196e-07
4.99494e-06
-2.93996e-07
5.14408e-06
-2.72263e-07
5.28075e-06
-2.50589e-07
5.40491e-06
-2.28822e-07
5.51662e-06
-2.07e-07
5.61579e-06
-1.84947e-07
5.70214e-06
-1.62382e-07
5.77537e-06
-1.39273e-07
5.83514e-06
-1.15614e-07
5.88108e-06
-9.12481e-08
5.9128e-06
-6.61423e-08
5.93043e-06
-4.06017e-08
5.93514e-06
-1.57124e-08
5.92751e-06
9.83013e-09
5.90759e-06
3.42952e-08
5.87452e-06
5.81016e-08
5.82837e-06
8.14449e-08
5.76957e-06
1.04346e-07
5.6987e-06
1.26983e-07
5.6163e-06
1.49396e-07
5.52278e-06
1.71512e-07
5.41837e-06
1.93158e-07
5.30335e-06
2.14044e-07
5.17818e-06
2.33723e-07
5.04364e-06
2.51667e-07
4.90079e-06
2.67431e-07
4.75092e-06
2.8073e-07
4.5954e-06
2.9142e-07
4.43564e-06
2.99492e-07
4.27302e-06
3.05077e-07
4.10877e-06
3.08462e-07
3.94388e-06
3.10167e-07
3.77891e-06
3.11162e-07
3.61361e-06
3.13385e-07
3.44693e-06
3.2095e-07
3.27342e-06
3.50118e-07
4.07606e-07
3.09055e-06
7.43283e-08
-2.07185e-07
1.57423e-07
-2.33246e-07
2.43214e-07
-2.46878e-07
3.30164e-07
-2.559e-07
4.16873e-07
-2.61147e-07
5.01933e-07
-2.63242e-07
5.84259e-07
-2.62626e-07
6.63442e-07
-2.59517e-07
7.39393e-07
-2.54053e-07
8.12073e-07
-2.46368e-07
8.81369e-07
-2.36589e-07
9.47061e-07
-2.24825e-07
1.00883e-06
-2.11166e-07
1.06628e-06
-1.95691e-07
1.11896e-06
-1.78475e-07
1.1664e-06
-1.59596e-07
1.20815e-06
-1.39141e-07
1.24375e-06
-1.17213e-07
1.27281e-06
-9.39253e-08
1.295e-06
-6.94136e-08
1.31008e-06
-4.38316e-08
1.31788e-06
-1.73449e-08
1.31839e-06
9.91203e-09
1.31169e-06
3.78429e-08
1.29776e-06
6.62968e-08
1.27649e-06
9.50449e-08
1.24769e-06
1.23748e-07
1.21112e-06
1.51927e-07
1.16656e-06
1.78929e-07
1.11388e-06
2.03905e-07
1.05299e-06
2.25814e-07
9.83813e-07
2.43573e-07
9.07044e-07
2.56375e-07
8.24279e-07
2.63749e-07
7.37582e-07
2.65476e-07
6.49196e-07
2.61563e-07
5.61355e-07
2.52259e-07
4.76092e-07
2.38083e-07
3.95079e-07
2.19916e-07
3.19453e-07
1.99216e-07
2.49605e-07
1.78357e-07
1.84953e-07
1.60804e-07
1.23942e-07
1.50296e-07
6.45418e-08
1.4848e-07
4.74297e-09
1.53747e-07
-5.75419e-08
1.63799e-07
-1.24478e-07
1.77799e-07
-1.97931e-07
1.95615e-07
-2.79416e-07
2.16983e-07
-3.70181e-07
2.41422e-07
-4.71263e-07
2.68426e-07
-5.83553e-07
2.97614e-07
-7.07842e-07
3.28755e-07
-8.4485e-07
3.617e-07
-9.95211e-07
3.96286e-07
-1.15944e-06
4.32262e-07
-1.33785e-06
4.69242e-07
-1.53054e-06
5.06679e-07
-1.73724e-06
5.43869e-07
-1.95729e-06
5.79962e-07
-2.18958e-06
6.13982e-07
-2.43243e-06
6.44859e-07
-2.68363e-06
6.71464e-07
-2.94035e-06
6.92668e-07
-3.19929e-06
7.07409e-07
-3.45682e-06
7.14741e-07
-3.70966e-06
7.13933e-07
-3.95521e-06
7.04797e-07
-4.19099e-06
6.87895e-07
-4.41449e-06
6.64186e-07
-4.62368e-06
6.34731e-07
-4.8171e-06
6.00686e-07
-4.99384e-06
5.63258e-07
-5.15346e-06
5.23633e-07
-5.296e-06
4.82915e-07
-5.42193e-06
4.42083e-07
-5.53208e-06
4.01965e-07
-5.62756e-06
3.63228e-07
-5.70967e-06
3.26374e-07
-5.77977e-06
2.9173e-07
-5.83916e-06
2.59453e-07
-5.88904e-06
2.29553e-07
-5.93045e-06
2.01932e-07
-5.96428e-06
1.76411e-07
-5.99124e-06
1.52778e-07
-6.0119e-06
1.3083e-07
-6.02674e-06
1.10379e-07
-6.03613e-06
9.12216e-08
-6.04037e-06
7.31455e-08
-6.03967e-06
5.59665e-08
-6.03423e-06
3.95178e-08
-6.02417e-06
2.36392e-08
-6.0097e-06
8.35074e-09
-5.99083e-06
-6.99222e-09
-5.96764e-06
-2.19914e-08
-5.93948e-06
-3.66874e-08
-5.90642e-06
-5.16328e-08
-5.8684e-06
-6.71768e-08
-5.82523e-06
-8.35589e-08
-5.77663e-06
-1.0101e-07
-5.72215e-06
-1.19791e-07
-5.66125e-06
-1.40246e-07
-5.59329e-06
-1.62773e-07
-5.51753e-06
-1.87809e-07
-5.43301e-06
-2.15806e-07
-5.33863e-06
-2.47178e-07
-5.23323e-06
-2.82151e-07
-5.11547e-06
-3.21182e-07
-4.98379e-06
-3.64877e-07
-4.83641e-06
-4.13632e-07
-4.6715e-06
-4.67704e-07
-4.48721e-06
-5.27216e-07
-4.28187e-06
-5.92027e-07
-4.05412e-06
-6.61522e-07
-3.80288e-06
-7.3458e-07
-3.52747e-06
-8.09522e-07
-3.22773e-06
-8.85357e-07
-2.90388e-06
-9.60803e-07
-2.55649e-06
-1.03377e-06
-2.18674e-06
-1.10144e-06
-1.79843e-06
-1.15989e-06
-1.39601e-06
-1.20619e-06
-9.83274e-07
-1.23716e-06
-5.62581e-07
-1.24966e-06
-1.34219e-07
-1.24288e-06
2.99604e-07
-1.22173e-06
7.27747e-07
-1.19768e-06
1.13878e-06
-1.17508e-06
1.52796e-06
-1.15026e-06
1.89821e-06
-1.11527e-06
2.25164e-06
-1.06972e-06
2.58842e-06
-1.01728e-06
2.90803e-06
-9.61636e-07
3.20998e-06
-9.05145e-07
3.49411e-06
-8.49391e-07
3.76158e-06
-7.95711e-07
4.0142e-06
-7.4452e-07
4.2536e-06
-6.96306e-07
4.48135e-06
-6.5173e-07
4.69861e-06
-6.10734e-07
4.90602e-06
-5.72848e-07
5.1037e-06
-5.37401e-07
5.29134e-06
-5.03834e-07
5.46868e-06
-4.71337e-07
5.63586e-06
-4.3944e-07
5.7931e-06
-4.0783e-07
5.94032e-06
-3.76047e-07
6.07723e-06
-3.43911e-07
6.2031e-06
-3.10813e-07
6.31684e-06
-2.76124e-07
6.4173e-06
-2.39727e-07
6.50315e-06
-2.01464e-07
6.57296e-06
-1.6106e-07
6.62531e-06
-1.18491e-07
6.65873e-06
-7.40276e-08
6.67136e-06
-2.83433e-08
6.66301e-06
1.81804e-08
6.63327e-06
6.40408e-08
6.58272e-06
1.08646e-07
6.5127e-06
1.5147e-07
6.42519e-06
1.91851e-07
6.32273e-06
2.29445e-07
6.20783e-06
2.643e-07
6.08254e-06
2.96797e-07
5.94828e-06
3.27419e-07
5.80589e-06
3.56428e-07
5.65592e-06
3.83698e-07
5.49881e-06
4.08778e-07
5.33513e-06
4.31105e-07
5.16571e-06
4.5015e-07
4.99161e-06
4.65524e-07
4.81403e-06
4.77067e-07
4.63425e-06
4.84856e-07
4.45349e-06
4.89231e-07
4.27276e-06
4.90891e-07
4.0928e-06
4.91122e-07
3.91379e-06
4.92399e-07
3.73561e-06
4.99127e-07
3.55971e-06
5.26014e-07
5.77171e-07
3.39015e-06
7.40251e-08
-2.8121e-07
1.50672e-07
-3.09894e-07
2.26329e-07
-3.22535e-07
3.00579e-07
-3.3015e-07
3.73034e-07
-3.33602e-07
4.43422e-07
-3.3363e-07
5.11604e-07
-3.30808e-07
5.77567e-07
-3.2548e-07
6.4133e-07
-3.17816e-07
7.02851e-07
-3.07889e-07
7.61977e-07
-2.95715e-07
8.18438e-07
-2.81287e-07
8.71872e-07
-2.646e-07
9.21845e-07
-2.45665e-07
9.67891e-07
-2.2452e-07
1.00953e-06
-2.01236e-07
1.0463e-06
-1.75914e-07
1.07778e-06
-1.48689e-07
1.10358e-06
-1.19726e-07
1.12338e-06
-8.92182e-08
1.13694e-06
-5.73851e-08
1.14406e-06
-2.44637e-08
1.14466e-06
9.3073e-09
1.13879e-06
4.37151e-08
1.12657e-06
7.85201e-08
1.10814e-06
1.13466e-07
1.08366e-06
1.48234e-07
1.05318e-06
1.82409e-07
1.01668e-06
2.15423e-07
9.74067e-07
2.4652e-07
9.25146e-07
2.74736e-07
8.69753e-07
2.98966e-07
8.08011e-07
3.18117e-07
7.40507e-07
3.31252e-07
6.68308e-07
3.37675e-07
5.92861e-07
3.3701e-07
5.15844e-07
3.29276e-07
4.3897e-07
3.14958e-07
3.63763e-07
2.95123e-07
2.91322e-07
2.71657e-07
2.22061e-07
2.47618e-07
1.55538e-07
2.27327e-07
9.06563e-08
2.15177e-07
2.62011e-08
2.12935e-07
-3.92675e-08
2.19216e-07
-1.07801e-07
2.32333e-07
-1.81613e-07
2.5161e-07
-2.62613e-07
2.76616e-07
-3.52363e-07
3.06732e-07
-4.52143e-07
3.41201e-07
-5.63039e-07
3.79322e-07
-6.86003e-07
4.20577e-07
-8.21876e-07
4.64629e-07
-9.71388e-07
5.11211e-07
-1.13511e-06
5.60006e-07
-1.31339e-06
6.10541e-07
-1.50626e-06
6.62118e-07
-1.71337e-06
7.13786e-07
-1.93384e-06
7.64335e-07
-2.1662e-06
8.12321e-07
-2.40832e-06
8.56111e-07
-2.65743e-06
8.93961e-07
-2.91009e-06
9.24128e-07
-3.16244e-06
9.45019e-07
-3.41039e-06
9.55359e-07
-3.64999e-06
9.54337e-07
-3.87779e-06
9.41739e-07
-4.09109e-06
9.18093e-07
-4.28782e-06
8.84624e-07
-4.46664e-06
8.43003e-07
-4.62702e-06
7.95112e-07
-4.76923e-06
7.42897e-07
-4.89418e-06
6.88213e-07
-5.00326e-06
6.32715e-07
-5.09813e-06
5.77778e-07
-5.18052e-06
5.24473e-07
-5.25212e-06
4.73564e-07
-5.31443e-06
4.25543e-07
-5.36872e-06
3.80667e-07
-5.41599e-06
3.38994e-07
-5.45696e-06
3.00426e-07
-5.49217e-06
2.64765e-07
-5.522e-06
2.31759e-07
-5.54669e-06
2.01101e-07
-5.56639e-06
1.72478e-07
-5.5812e-06
1.45643e-07
-5.59124e-06
1.20418e-07
-5.59662e-06
9.65989e-08
-5.59741e-06
7.39362e-08
-5.59365e-06
5.22091e-08
-5.58537e-06
3.12322e-08
-5.57254e-06
1.08161e-08
-5.55504e-06
-9.15483e-09
-5.53303e-06
-2.8996e-08
-5.5064e-06
-4.86254e-08
-5.4749e-06
-6.81884e-08
-5.43841e-06
-8.81196e-08
-5.39681e-06
-1.08779e-07
-5.34989e-06
-1.30475e-07
-5.29738e-06
-1.53521e-07
-5.23889e-06
-1.78286e-07
-5.17393e-06
-2.05208e-07
-5.10191e-06
-2.34792e-07
-5.02212e-06
-2.67597e-07
-4.9337e-06
-3.04224e-07
-4.83556e-06
-3.45315e-07
-4.72643e-06
-3.91283e-07
-4.60487e-06
-4.42744e-07
-4.46926e-06
-5.0049e-07
-4.3179e-06
-5.6499e-07
-4.14911e-06
-6.36496e-07
-3.96127e-06
-7.15049e-07
-3.75291e-06
-8.00387e-07
-3.52252e-06
-8.91914e-07
-3.26833e-06
-9.88775e-07
-2.9885e-06
-1.08935e-06
-2.68264e-06
-1.19122e-06