/*--------------------------------*- C++ -*----------------------------------*\
| =========                 |                                                 |
| \\      /  F ield         | OpenFOAM: The Open Source CFD Toolbox           |
|  \\    /   O peration     | Version:  2112                                  |
|   \\  /    A nd           | Website:  www.openfoam.com                      |
|    \\/     M anipulation  |                                                 |
\*---------------------------------------------------------------------------*/
FoamFile
{
    version     2.0;
    format      ascii;
    arch        "LSB;label=32;scalar=64";
    class       volScalarField;
    location    "0.12";
    object      ddt0(kU);
}
// * * * * * * * * * * * * * * * * * * * * * * * * * * * * * * * * * * * * * //

dimensions      [0 2 -3 0 0 0 0];

internalField   nonuniform List<scalar> 
12225
(
-0.000555062
-0.0583895
-0.273034
-0.741366
-1.5406
-3.91624
-7.27818
-11.7848
-15.329
-19.4565
-24.2843
-30.1491
-37.3901
-46.1362
-56.2829
-71.8948
-86.9956
-98.0787
0.0399124
0.163136
0.366015
0.654078
1.05423
1.54299
2.13106
2.83158
3.71511
4.79757
6.16643
7.83059
9.5726
11.0535
11.7941
10.8464
6.57289
-3.99834
0.000464343
0.0167665
0.0443578
0.116589
0.244389
0.437507
0.702881
1.05778
1.53604
2.17679
3.05811
4.23999
5.7088
7.49799
9.41535
11.234
12.4202
11.5666
-0.00117803
-0.0095488
-0.0180492
-0.0224651
-0.0229425
-0.0447325
-0.0551879
-0.0556814
-0.0416536
0.00124074
0.107265
0.322622
0.681148
1.21281
1.92512
2.78191
3.63918
4.1083
0.000965059
-0.0100058
-0.0283261
-0.050654
-0.0754488
-0.105357
-0.137937
-0.17291
-0.22083
-0.267323
-0.325871
-0.402755
-0.47692
-0.530884
-0.546802
-0.508363
-0.420438
-0.326698
0.00281214
-0.00625025
-0.0250108
-0.0509424
-0.0831271
-0.121748
-0.165778
-0.214458
-0.26709
-0.325834
-0.396323
-0.465806
-0.541003
-0.6222
-0.712617
-0.815824
-0.962788
-1.17138
0.00409672
-0.00235423
-0.0188221
-0.0434401
-0.0759619
-0.117002
-0.167156
-0.226692
-0.294732
-0.371911
-0.462983
-0.542992
-0.612844
-0.675881
-0.743939
-0.824563
-0.945014
-1.11709
0.00504841
0.000916965
-0.0128467
-0.0344913
-0.0640894
-0.102534
-0.150852
-0.210023
-0.281106
-0.367932
-0.469732
-0.602317
-0.674806
-0.738346
-0.796988
-0.877453
-0.991129
-1.14708
0.00579377
0.00378272
-0.00739636
-0.0260392
-0.0521017
-0.0862716
-0.129145
-0.181148
-0.243745
-0.320868
-0.423551
-0.544259
-0.652464
-0.703441
-0.764956
-0.844812
-0.948828
-1.08073
0.00634442
0.0063931
-0.00211312
-0.0177883
-0.0405078
-0.0707351
-0.108684
-0.15411
-0.207797
-0.271249
-0.353266
-0.456614
-0.555661
-0.624221
-0.688895
-0.760864
-0.84652
-0.949176
0.00673076
0.0088551
0.00311164
-0.00957457
-0.0290263
-0.0555796
-0.0894001
-0.130281
-0.17908
-0.236424
-0.301008
-0.380622
-0.472472
-0.550289
-0.614693
-0.677458
-0.747386
-0.828279
0.0071189
0.0111136
0.00777169
-0.00233334
-0.0188887
-0.0420939
-0.0721475
-0.109159
-0.154408
-0.20917
-0.268403
-0.331167
-0.402183
-0.474167
-0.540948
-0.604581
-0.669925
-0.740549
0.00767825
0.0131405
0.0116638
0.0037536
-0.0101297
-0.0300788
-0.056336
-0.0892909
-0.13031
-0.180581
-0.234721
-0.286508
-0.339669
-0.397745
-0.458613
-0.519633
-0.580977
-0.64433
0.00733234
0.0142405
0.014551
0.00888469
-0.00206816
-0.0183181
-0.0401939
-0.0682674
-0.103431
-0.145443
-0.189459
-0.229911
-0.268873
-0.31104
-0.357587
-0.406943
-0.457859
-0.510294
0.0101558
0.0172289
0.0189913
0.0157116
0.00804984
-0.00400298
-0.0207843
-0.0426771
-0.0695927
-0.0998203
-0.129735
-0.156836
-0.182653
-0.210081
-0.240374
-0.273069
-0.30737
-0.343083
0.0083747
0.0197975
0.0220916
0.0213334
0.0174308
0.0102876
-0.000204848
-0.0138212
-0.0295706
-0.0455051
-0.059699
-0.0718269
-0.0832548
-0.0955383
-0.109336
-0.124391
-0.140279
-0.157531
0.00634397
0.0150817
0.0178195
0.0189968
0.0186151
0.0167074
0.0135322
0.00982714
0.00679025
0.00568816
0.00712239
0.0106263
0.0150729
0.0193983
0.0230447
0.025992
0.0278422
0.0289023
0.00323609
0.00818155
0.0105145
0.0127677
0.0152123
0.0182425
0.0224511
0.0286692
0.0377778
0.0503846
0.0665477
0.0857279
0.106951
0.129043
0.151171
0.174505
0.196311
0.213739
-0.000779562
-0.000789338
0.000554292
0.0033703
0.00807274
0.0153446
0.0259248
0.0404822
0.0595384
0.0834026
0.112132
0.145509
0.182981
0.223457
0.26492
0.303799
0.341751
0.380429
-0.0044722
-0.00864738
-0.00779118
-0.00397673
0.00318262
0.0144037
0.0302953
0.051177
0.077162
0.108272
0.144521
0.185984
0.23282
0.285113
0.34225
0.401916
0.459412
0.508775
-0.00683427
-0.0131896
-0.0118558
-0.00622278
0.00403942
0.019462
0.0403276
0.0665711
0.0979729
0.134295
0.175306
0.220759
0.270426
0.324299
0.382835
0.446047
0.510288
0.567879
-0.00861163
-0.0116835
-0.00825471
0.00111562
0.0158546
0.0359377
0.0613115
0.0917558
0.126998
0.166739
0.210607
0.258115
0.308594
0.361284
0.41663
0.47819
0.551366
0.639685
-0.00610353
-0.00810617
-0.00231929
0.00992436
0.0277623
0.0509516
0.0793767
0.112852
0.151188
0.194212
0.241703
0.293525
0.349801
0.410834
0.477693
0.553457
0.64408
0.754759
-0.00582186
-0.0050998
0.00380385
0.0191976
0.0402211
0.0666232
0.0983005
0.135034
0.176744
0.223604
0.27577
0.333385
0.396773
0.466096
0.540162
0.615161
0.690365
0.770867
-0.00445846
-0.000775252
0.0111843
0.0294459
0.0531356
0.0818568
0.115237
0.152887
0.194938
0.240862
0.290289
0.34279
0.397567
0.452973
0.506019
0.551782
0.586992
0.634109
-0.00300316
0.00385102
0.0184228
0.0382559
0.061985
0.0886972
0.117588
0.148222
0.182163
0.217898
0.253952
0.288721
0.320477
0.346765
0.373265
0.378673
0.376238
0.378464
-0.000860105
0.00797457
0.0198178
0.0338191
0.0483999
0.0627472
0.0770707
0.0928242
0.142459
0.180605
0.211912
0.238082
0.260475
0.280191
0.299647
0.317879
0.33342
0.342372
0.00161231
0.000303602
-0.0105727
-0.0116277
-0.0345088
-0.0788351
-0.14361
-0.22863
-0.333403
-0.451427
-0.578658
-0.711951
-0.84794
-0.985773
-1.12729
-1.27148
-1.42635
-1.60838
-0.0240917
-0.100407
-0.224473
-0.389832
-0.589964
-0.828089
-1.07788
-1.33953
-1.61893
-1.89536
-2.15097
-2.39467
-2.603
-2.76432
-2.87147
-2.92437
-2.95102
-3.00566
-0.00152154
0.0252972
0.130316
0.347537
0.703822
1.22122
2.61806
4.38127
6.5131
8.99155
11.7749
13.4261
15.1998
17.1099
19.1434
21.2506
23.3755
25.5186
-9.96418
-13.2378
-17.4782
-21.3304
-20.6457
-23.9089
-24.1216
-24.2217
-22.1508
-20.1523
-18.4828
-17.1838
-16.4667
-16.123
-16.0897
-16.3365
-16.8891
-17.8197
-19.2225
-21.2092
-23.9182
-27.8242
-36.4388
-45.0468
-53.5627
-62.0279
-70.3385
-87.2372
-99.3769
-105.751
-105.121
-96.3339
-78.5433
-51.6042
-17.1477
18.7663
42.3794
37.9983
10.2147
-17.4535
-35.0446
-36.8551
-38.0502
-42.274
-45.6441
-42.3664
-46.1096
-48.1524
-49.4077
-53.5911
-55.9505
-31.9789
13.6697
43.0256
49.3407
31.1201
-51.7035
-261.93
-603.288
-1049.4
-1555.93
-1993.95
-1861.88
-1881.01
-1817.23
-1687.1
-1509.71
-1302.78
-1081.89
-859.434
-641.561
-428.909
-218.592
-8.73375
74.9365
149.732
219.693
287.731
351.761
401.315
436.268
444.534
452.826
459.957
465.049
467.641
467.359
463.887
457.068
446.701
433.208
416.359
395.786
371.887
344.686
313.681
277.408
232.471
171.638
80.238
-63.4223
-205.941
-252.483
-298.193
-326.956
-341.431
-342.612
-333.227
-315.332
-288.694
-253.221
-210.651
-164.086
-117.371
-72.6567
-18.7401
75.2148
149.031
204.651
246.65
282.814
323.276
379.496
461.254
572.297
706.527
847.059
969.99
1051.68
1075.7
1037.75
946.203
817.755
671.134
523.881
393.688
284.961
165.193
99.3508
139.993
305.469
502.988
647.914
715.168
663.376
465.442
65.2234
-695.634
-1449.65
-1512.18
-1344.93
-837.067
-62.9603
476.86
787.362
982.692
1108.06
983.289
832.013
644.348
405.512
52.8722
-633.822
-1961.26
-2752.37
-3239.6
-3921.79
-4587.65
-5136.75
-5494.28
-5610.26
-5447.58
-4988.07
-3932.66
-3025.33
-2239.37
-1432.45
-433.436
895.386
2613.48
-15.7081
-12.3721
-10.9952
-9.2061
-7.73185
-7.6129
-8.70643
-10.6067
-11.7898
-12.8229
-13.8023
-14.6608
-17.4624
-19.1463
-20.0075
-20.1962
-19.847
-19.0752
-17.9809
-16.6556
-15.1871
-13.6591
-9.78514
-7.83257
-8.06816
-10.483
-15.0504
-21.8702
-29.9992
-38.5049
-46.2699
-52.024
-54.5114
-52.7502
-46.3158
-35.6496
-22.1663
-7.71158
6.81824
22.2227
42.5615
58.2363
55.4044
42.1729
22.1934
-2.41673
-22.7325
-24.4677
-3.77156
23.9178
30.3309
-45.1506
-200.291
-403.577
-664.98
-926.954
-1112.38
-1203.08
-996.433
-753.286
-613.804
-451.614
-274.377
-119.285
23.0657
147.318
249.437
327.535
381.626
413.764
426.147
420.412
398.629
362.91
313.591
258.156
198.339
133.478
67.7749
14.536
-21.6426
-23.8745
-25.2999
-26.0402
-26.1282
-25.4408
-23.7676
-20.8163
-16.3371
-10.3108
-6.84327
-4.54787
-1.46526
2.37749
6.79627
11.5368
16.2623
20.7684
25.4189
31.3374
37.9663
34.1284
32.0067
28.46
25.8115
25.601
32.1582
37.4248
38.4224
37.192
34.9638
32.5172
30.3653
28.5998
25.9013
11.3962
-40.2125
-70.9721
-81.7252
-80.3781
-71.4047
-57.0501
-37.8754
-13.1697
18.0999
56.1633
99.6582
146.275
192.788
236.05
274.703
307.851
332.752
341.411
318.615
246.037
127.241
31.7819
-53.272
-136.719
-225.778
-275.656
-283.545
-297.038
-338.828
-416.198
-505.103
-511.92
-258.515
84.7247
358.634
547.525
608.412
522.243
351.587
147.445
-81.4142
-94.9996
-99.5797
-97.1473
-92.9244
-77.0447
-84.8387
-78.7408
-74.6874
-74.2447
-76.271
-89.8049
-137.335
-208.231
-296.811
-397.848
-553.747
-969.34
-1153.93
-1165.75
-1122.47
-1037.25
-847.918
-477.794
16.1345
24.1079
22.5868
17.0421
10.0088
2.71776
-4.31316
-10.7472
-16.2644
-20.6989
-24.0244
-26.3115
-27.6701
-28.1877
-28.0067
-27.3011
-26.23
-24.9217
-23.4808
-21.9964
-20.5394
-19.1701
-17.7453
-16.1469
-14.5521
-13.2614
-12.6564
-13.1424
-14.9915
-18.2548
-22.673
-27.6356
-32.2654
-35.6225
-36.9347
-35.7419
-31.8824
-25.3575
-16.2325
-4.74238
8.23851
20.4447
31.9935
34.737
18.755
-19.6648
-70.0033
-104.934
-107.484
-102.087
-189.143
-407.123
-663.402
-947.739
-1115.17
-992.033
-569.972
-357.49
-140.774
19.5675
140.917
235.371
303.125
345.271
365.462
365.479
347.81
316.042
274.375
227.422
179.258
133.429
92.5888
58.2747
31.0958
11.0136
-2.711
-11.0554
-14.465
-15.2797
-14.6828
-13.8641
-12.9229
-11.9522
-10.9416
-9.74304
-8.04189
-5.08909
-5.48213
-5.60612
-5.20528
-3.84085
-1.17898
2.94597
8.55231
15.4186
23.1654
31.4217
40.1964
50.4909
57.6452
56.9698
56.3636
53.8265
50.6578
47.9648
46.4184
46.9633
51.4571
50.5677
47.2022
42.5706
37.3631
32.0877
27.0441
22.467
18.3739
11.0707
4.91678
-0.669634
-5.08606
-7.81504
-8.32107
-5.93017
0.10096
10.3961
25.2366
44.3861
66.9373
91.5683
116.767
140.735
161.011
173.753
173.39
154.295
112.944
54.9562
-17.4432
-101.198
-198.689
-302.633
-390.5
-452.484
-478.106
-449.357
-329.473
-68.7833
249.932
416.19
461.504
395.466
261.553
114.819
2.21491
-58.4635
-77.6694
-75.6228
-67.754
-50.2516
-47.4614
-42.5382
-32.3679
-19.4395
-8.17879
4.26324
15.9104
25.3881
30.1156
27.0703
11.9701
-18.9052
-69.8013
-200.159
-316.493
-443.374
-577.316
-676.076
-721.291
-660.055
110.391
72.7704
42.6149
17.7261
-0.348169
-12.746
-21.0849
-26.5441
-29.8012
-31.2985
-31.3906
-30.4011
-28.6363
-26.3524
-23.764
-21.0483
-18.3462
-15.7652
-13.3891
-11.2883
-9.52933
-8.16204
-6.89525
-5.95777
-5.29021
-4.87243
-4.73048
-4.9442
-5.65591
-7.04846
-9.27535
-12.3514
-16.0457
-19.8788
-23.2539
-25.6414
-26.6842
-26.1917
-24.1059
-20.5455
-16.0082
-11.6554
-9.72284
-13.1343
-35.3355
-92.1036
-179.307
-261.445
-306.946
-450.769
-593.333
-689.173
-883.688
-808.891
-491.612
-212.126
18.9976
165.053
264.211
318.351
343.324
346.918
333.348
306.219
268.868
224.892
178.535
133.896
94.2941
61.6998
36.6705
18.7234
6.78129
-0.437203
-4.13667
-5.36385
-5.01553
-4.00522
-2.9445
-1.17153
0.746774
2.55369
4.10431
5.26007
5.83692
6.17572
4.0245
1.22571
-2.05765
-5.43708
-8.38295
-10.16
-10.0928
-7.56482
-2.1765
5.97658
16.5564
28.6976
41.6887
55.8454
61.1757
65.5696
67.4523
67.0934
65.1332
62.3922
59.9409
58.482
61.5134
61.3829
57.7229
52.5223
46.5583
40.3523
34.3015
28.7081
23.7004
19.3257
14.8
11.6798
9.44915
8.09747
7.64548
8.20113
10.0072
13.4407
18.9422
26.8872
37.4491
50.5027
65.4902
81.3404
96.3596
107.937
112.319
104.992
80.9095
35.3325
-30.778
-116.073
-218.183
-327.465
-423.098
-473.363
-450.308
-333.895
-109.935
200.682
373.568
393.657
325.265
211.111
94.0251
11.9269
-29.818
-42.5076
-43.5652
-40.8882
-33.125
-38.0386
-43.0949
-45.371
-40.1843
-33.2088
-23.961
-12.6691
0.24478
13.8738
27.4026
40.8666
56.2897
56.6711
42.5715
5.04479
-61.595
-140.264
-244.816
-375.981
-521.648
-636.875
238.731
88.9218
18.0572
-17.1961
-32.6863
-38.2126
-39.0566
-37.7034
-35.0866
-31.6067
-27.5234
-23.0634
-18.4339
-13.8053
-9.29468
-4.98279
-0.914359
2.88608
6.39
9.54815
12.2647
14.4818
16.5332
17.786
18.3118
18.1566
17.3759
16.0465
14.2329
11.9677
9.24769
6.0442
2.35899
-1.6916
-5.85655
-9.81528
-13.3227
-16.2799
-18.7901
-21.1953
-24.1609
-29.0119
-38.9148
-60.9897
-109.514
-215.482
-371.435
-545.887
-743.91
-634.398
-563.498
-567.302
-418.777
-201.722
19.606
186.766
284.229
327.655
337.579
325.125
299.609
265.31
224.991
181.633
138.661
99.524
66.8443
41.8089
24.2166
12.9313
6.44169
3.27398
2.20144
2.33201
3.13468
4.3598
5.93247
8.08253
9.24471
11.8103
14.8097
18.5113
19.7754
20.4338
20.1284
18.6388
15.7168
11.2425
5.27248
-1.78288
-9.19935
-15.96
-20.899
-22.6547
-20.0637
-12.9115
-0.971233
14.0582
31.0768
47.6051
58.1332
66.3492
71.6981
74.2952
74.5049
72.8186
70.1065
67.4656
66.8656
68.862
66.0497
60.9519
54.7723
48.1755
41.5979
35.3312
29.5489
24.3844
19.8681
15.9114
13.0586
11.3616
10.8603
11.5273
13.314
16.1876
20.1686
25.3429
31.828
39.6843
48.7793
58.6207
68.1156
75.2094
76.6035
67.9293
44.4479
2.29701
-60.3245
-142.333
-240.066
-344.041
-427.924
-450.14
-378.844
-206.933
48.1985
311.68
360.68
305.349
210.779
114.947
35.7259
-9.02114
-25.2656
-21.2357
-19.4796
-17.3707
-25.1719
-35.8008
-46.5432
-51.6214
-52.1591
-49.2842
-42.2199
-31.8443
-19.2247
-5.20633
9.85607
27.0798
47.3215
55.2025
54.082
44.6074
18.5469
-21.1256
-85.4798
-181.928
-307.87
-458.49
343.602
48.4949
-36.1779
-53.9685
-50.4999
-42.8675
-36.2277
-31.1609
-26.6079
-21.9079
-16.8393
-11.4357
-5.87108
-0.291053
5.25291
10.6682
15.9283
21.0358
25.9377
30.5401
33.258
35.1919
36.4151
37.429
37.7053
37.292
36.2539
34.6455
32.5637
30.1414
27.5491
25.0181
23.1897
21.0881
16.5517
11.3103
5.88243
0.345854
-5.56983
-12.5164
-21.6776
-35.5413
-60.8967
-116.951
-240.774
-463.491
-747.653
-860.31
-602.529
-401.391
-264.642
-161.996
-11.9422
142.054
251.244
307.699
320.078
306.48
279.316
245.028
207.087
167.466
128.55
93.2111
63.9162
41.9355
27.1204
18.2727
13.7392
11.8969
11.4291
11.4213
11.3434
10.9824
10.3778
9.74814
9.40715
9.68598
11.7322
15.1885
20.1509
26.8265
31.008
34.6513
36.7398
37.0619
35.0658
30.3531
22.7571
12.479
0.28993
-12.5297
-24.4368
-33.1665
-36.3628
-33.1133
-22.0941
-6.12595
14.2062
33.447
48.4288
60.755
69.9069
75.7905
78.6053
78.7024
76.7709
73.9723
71.7281
73.7185
71.5608
66.8481
60.818
54.2035
47.4751
40.9478
34.819
29.2148
24.2164
19.6977
16.0602
13.4162
11.9022
11.6329
12.6543
14.9375
18.3937
22.9039
28.3413
34.5614
41.34
48.231
54.3101
57.809
55.8294
44.4358
19.2283
-23.5889
-85.8848
-166.274
-259.109
-351.709
-415.597
-408.228
-302.239
-106.042
140.404
321.889
321.501
229.941
142.437
70.3496
15.738
-9.46655
-12.2488
-2.99122
-2.04926
-9.655
-20.6193
-35.1696
-46.3146
-54.7562
-59.2785
-58.9683
-54.2018
-45.7755
-34.5932
-21.4417
-6.7458
10.8361
29.4533
37.6484
38.6409
34.4796
24.4979
7.40043
-22.3589
-75.1004
-163.017
-289.851
347.257
-35.7141
-77.5343
-55.9608
-34.0264
-22.6596
-19.4873
-19.049
-17.2438
-13.3046
-7.53509
-0.565325
6.76696
14.3965
22.2252
29.8995
37.3748
44.6588
51.6581
58.1899
64.1097
66.6448
68.3381
69.7084
69.6711
68.7225
66.9572
64.5324
61.6452
58.4694
55.203
52.056
49.4422
48.5068
42.6084
35.1986
27.0934
18.405
8.72437
-2.95497
-18.8424
-44.4485
-94.6174
-203.641
-416.247
-704.433
-861.294
-677.372
-300.914
-101.132
2.30536
106.038
201.561
267.604
293.856
289.54
266.859
236.282
202.627
167.781
133.139
100.672
72.7496
51.1391
36.3211
27.5207
23.1961
21.6044
21.2063
20.8662
19.8984
18.0266
15.3041
12.0298
8.67841
5.81456
3.88249
3.03615
5.95999
10.8906
17.7565
26.3566
36.3423
46.9999
54.5897
59.4168
61.0266
58.3895
50.9936
38.7172
22.4685
3.65118
-16.0944
-33.6046
-45.4058
-48.5061
-41.7951
-27.2606
-3.76041
15.8163
34.5089
50.8411
63.8983
73.2729
78.9728
81.2745
80.7128
78.3258
75.3933
74.4865
74.3891
70.4541
64.8234
58.4532
51.8547
45.3481
39.1453
33.3847
28.1554
23.4799
19.3435
16.0108
13.6189
12.3101
12.208
13.3841
15.8326
19.4629
24.1047
29.5124
35.341
41.0585
45.753
47.8305
44.6965
32.6052
6.91929
-36.8443
-101.044
-183.12
-273.046
-352.941
-394.55
-361.646
-236.227
-37.9511
182.16
300.174
274.834
187.491
105.935
50.0334
11.3367
-0.242932
6.14661
10.8536
5.30093
-4.04978
-17.6536
-31.856
-45.706
-56.7085
-62.6517
-63.3673
-59.4623
-51.9262
-41.851
-30.011
-16.7046
0.84496
14.236
20.2633
21.2485
18.4593
12.5615
3.24661
-11.4626
-37.434
-85.8219
-170.301
212.705
-114.65
-70.6569
-18.1627
1.47779
0.26133
-9.48358
-13.597
-10.3482
-2.62633
7.62119
18.8422
28.412
40.2534
51.4219
61.7527
71.5156
80.6834
89.0759
96.4818
102.751
107.775
111.923
116.118
116.901
115.936
114.374
112.012
108.839
104.565
100.1
93.0561
85.1363
76.1804
65.9214
54.7632
42.8954
30.1778
15.944
-1.54756
-26.7251
-70.9184
-160.82
-340.066
-616.568
-840.205
-745.867
-310.375
-32.7716
88.8205
168.78
228.591
262.78
270.139
256.511
231.796
202.909
173.153
143.254
113.958
86.9287
64.2022
47.155
35.9154
29.4984
26.3339
24.7958
23.5484
21.6949
18.788
14.7653
9.85509
4.47144
-0.894446
-5.72156
-9.3229
-10.8667
-10.3291
-5.51322
1.70046
11.2535
22.907
36.1509
50.2522
64.1174
76.3507
85.5055
88.2945
84.3158
72.4688
54.5204
31.2839
4.24048
-22.1654
-44.9381
-55.3098
-57.1127
-41.3182
-23.4327
-2.44507
18.9606
38.6908
55.3254
68.0653
76.656
81.2665
82.3597
80.8018
77.7977
75.0038
75.0992
71.9399
66.9278
61.0185
54.7727
48.5173
42.4642
36.7589
31.5001
26.7443
22.4453
18.7901
15.8873
13.8654
12.8591
12.9862
14.3171
16.8473
20.4776
25.001
30.0797
35.1829
39.4439
41.4066
38.6633
27.4806
2.77876
-40.8551
-106.612
-191.166
-280.1
-349.249
-370.883
-318.894
-186.351
0.583343
186.143
270.103
238.604
159.76
94.1821
41.7273
13.8604
11.3028
21.5205
17.276
10.3678
-0.0902374
-14.3632
-30.8963
-46.5386
-58.7587
-65.1699
-65.4814
-60.8234
-52.5263
-42.2152
-30.7585
-18.3519
-4.1776
4.10624
7.57876
7.15323
3.78613
-1.72382
-9.81093
-18.6332
-32.4517
-57.5144
-106.017
-17.1034
-136.583
-17.1091
30.7178
27.2069
9.65271
-9.80971
-4.07734
7.97782
21.7784
36.689
51.1132
64.3603
76.3721
87.2934
97.1037
105.86
113.573
120.288
126.138
131.094
134.779
137.527
140.546
143.347
143.3
141.942
139.392
135.383
129.861
122.69
113.897
103.67
92.1698
79.485
63.8149
45.3019
29.3295
11.1857
-12.622
-50.9065
-123.727
-265.919
-497.877
-734.857
-755.634
-361.825
-50.3322
109.99
190.782
233.617
250.426
246.224
228.311
204.101
178.622
153.419
128.356
103.551
80.3264
60.5057
45.3225
34.8542
28.1787
23.8988
20.6381
17.3331
13.3287
8.35491
2.45438
-4.10025
-10.8846
-17.3822
-23.0426
-27.3971
-30.0645
-30.2427
-26.8836
-20.7509
-12.0298
-0.693096
13.1047
29.0377
46.5431
64.7039
82.303
97.8266
108.94
112.328
103.514
88.2309
64.0982
31.8022
-1.45302
-36.0131
-53.8697
-60.6872
-54.8919
-39.7034
-18.9296
3.94902
26.1685
45.7529
61.4577
72.7038
79.4886
82.2312
81.6965
79.0005
75.3984
73.8479
71.6932
67.3276
62.0003
56.2739
50.4622
44.7582
39.2993
34.1879
29.4962
25.1985
21.4365
18.2913
15.8638
14.2702
13.6297
14.0425
15.5627
18.1699
21.7425
26.0252
30.5702
34.6147
36.8499
35.0303
25.4553
2.71319
-39.4483
-105.253
-191.358
-280.144
-341.692
-348.242
-284.072
-152.811
16.3558
169.595
239.724
211.967
146.297
90.5645
41.9167
19.6051
17.6867
25.243
22.8011
15.778
3.77243
-12.7905
-31.6283
-49.1496
-62.0334
-68.084
-66.9372
-60.3023
-49.7896
-37.9189
-25.4532
-11.6253
-2.92188
1.48542
1.94062
-0.875098
-6.0812
-12.8227
-20.9735
-29.4878
-39.0884
-53.0992
-79.5456
-133.502
-76.4291
47.1181
60.2454
35.3509
15.5692
12.3967
22.0734
37.2349
50.9606
66.7014
81.2392
93.5065
104.454
114.614
122.332
128.81
135.165
142.688
154.575
166.14
175.541
182.079
193.015
206.072
218.356
227.336
231.777
230.661
223.303
209.581
190.107
166.241
139.906
113.116
87.263
62.3585
35.6174
5.21295
-27.6156
-87.2214
-197.333
-376.674
-588.107
-663.048
-407.288
-120.29
74.8345
177.194
222.093
233.861
225.402
206.151
183.508
161.397
140.412
119.543
98.3084
77.6002
59.0778
44.0054
32.6321
24.3032
17.9456
12.5162
7.23592
1.63632
-4.4786
-11.0851
-17.9899
-24.8803
-31.3773
-37.0794
-41.5565
-44.3622
-45.2465
-44.0195
-38.9278
-32.4772
-23.5158
-11.9983
1.93062
18.0464
35.9764
55.2296
74.7665
93.5265
110.495
122.451
122.381
113.645
92.9938
58.8042
21.4976
-17.1439
-46.3853
-62.5102
-63.3339
-51.8247
-32.396
-9.11383
14.6661
36.4408
54.5273
68.0054
76.6591
80.8427
81.3
79.0723
75.2853
71.373
69.6126
66.0607
61.4874
56.4221
51.2
46.0077
40.9623
36.1578
31.6714
27.509
23.784
20.5687
17.9464
16.0131
14.8733
14.6283
15.3568
17.0894
19.7796
23.2659
27.2104
30.9806
33.4273
32.4844
24.5783
4.19377
-35.4597
-99.528
-185.255
-273.602
-330.659
-327.975
-258.031
-133.201
16.6794
145.752
205.256
189.931
140.905
89.7552
46.6594
25.2663
18.6589
23.1019
27.7224
20.6074
6.61674
-12.6465
-34.0083
-53.211
-66.4555
-71.6113
-68.2309
-58.7632
-44.9195
-30.4619
-14.8185
-3.91134
2.66529
4.76021
2.7197
-2.64427
-10.26
-19.051
-28.2798
-37.7303
-46.8568
-56.88
-72.1505
-218.381
39.1447
87.765
75.3184
49.3938
36.4863
39.8025
54.1388
70.9063
87.411
105.342
119.064
125.856
141.307
186.109
224.912
256.224
283.414
307.603
325.88
344.754
364.835
383.262
418.26
452.583
482.797
507.92
526.867
538.251
540.124
530.065
505.629
465.301
409.824
343.277
272.77
205.541
143.954
78.4869
-15.4071
-129.495
-263.183
-416.927
-494.48
-412.843
-203.095
0.057671
131.362
194.564
213.548
207.595
189.843
169.099
149.73
132.143
114.777
96.4557
77.5317
59.4462
43.5802
30.4999
19.9556
11.2931
3.84207
-2.9108
-9.31379
-15.5803
-21.7943
-27.9076
-33.7611
-39.1291
-43.7645
-47.4382
-49.9322
-50.9194
-50.0004
-47.3828
-41.9211
-35.5641
-27.0462
-16.2942
-3.57799
10.928
27.0164
44.5524
63.0816
80.2183
98.353
116.15
121.253
118.495
104.808
78.93
42.3094
-1.17405
-36.9741
-61.2262
-68.5111
-60.5759
-42.7444
-19.6189
5.03168
28.2921
48.1142
63.2783
73.3649
78.6491
79.8894
78.1221
74.4382
69.8553
66.1332
63.4793
59.6265
55.3043
50.785
46.2274
41.7296
37.3682
33.2144
29.3054
25.7303
22.5648
19.8874
17.7825
16.3413
15.6568
15.812
16.8622
18.8102
21.5694
24.9021
28.3031
30.7819
30.4703
24.013
6.02232
-30.4756
-91.2731
-174.531
-261.446
-316.381
-309.947
-239.683
-124.161
7.64948
119.205
175.752
172.894
137.158
92.3761
54.3868
32.4293
22.6322
24.6201
27.0287
22.3998
7.23984
-14.3998
-38.0782
-58.6718
-71.9521
-75.7935
-69.481
-56.4875
-38.8672
-20.3989
-5.63889
5.02171
10.7737
11.4239
7.45193
-0.140045
-10.0227
-20.8388
-31.5685
-42.0945
-51.7166
-60.7155
-71.2185
-182.972
67.8538
108.41
95.6979
77.4591
75.6143
93.4123
118.263
140.552
169.178
247.652
348.857
408.895
439.63
438.787
443.296
458.133
479.951
502.987
526.115
548.19
568.969
591.351
596.387
617.088
639.235
664.614
694.012
726.918
760.986
791.467
810.781
808.723
774.244
699.6
586.334
449.055
309.627
180.222
54.1598
-114.951
-249.995
-352.833
-361.703
-254.667
-86.919
61.1529
151.251
188.641
192.38
179.228
160.752
143.166
127.804
113.099
97.2169
79.7725
61.8257
44.8325
29.732
16.7555
5.72425
-3.63106
-11.5602
-18.326
-24.2187
-29.489
-34.261
-38.5095
-42.1154
-44.9455
-46.9077
-47.9466
-47.9853
-46.8394
-44.1352
-39.8639
-34.5035
-28.514
-20.982
-11.6546
-0.99599
10.689
23.5171
37.3463
54.0015
66.5731
81.7735
96.3207
107.465
111.477
104.998
86.3762
55.8232
15.4384
-29.5586
-59.7528
-72.8128
-67.4671
-50.5915
-27.5632
-2.37351
21.8423
42.7958
59.0554
70.0548
76.014
77.72
76.2522
72.7277
68.0819
63.1282
59.9885
56.6383
53.0424
49.3092
45.4813
41.6295
37.8175
34.103
30.5473
27.2158
24.1915
21.5552
19.3893
17.7791
16.811
16.5656
17.107
18.4649
20.6032
23.3611
26.3415
28.701
28.7751
23.4877
7.75565
-25.2669
-81.7057
-160.732
-244.98
-299.209
-293.353
-227.025
-122.249
-6.41836
92.1941
148.669
157.312
133.648
97.0103
64.4105
44.1761
35.6897
35.4516
28.2914
17.986
4.55982
-18.5659
-44.0791
-65.659
-78.6203
-80.7217
-70.6417
-53.3926
-33.1863
-13.6754
2.48707
13.5735
18.8076
18.241
12.6298
3.27082
-8.21767
-20.2476
-31.6763
-41.9148
-51.8685
-60.7784
-69.6108
-149.88
84.1437
130.043
128.59
134.24
163.662
220.113
319.332
446.734
479.035
439.72
394.534
381.374
372.212
358.726
354.048
349.485
344.619
338.926
333.592
329.081
324.657
319.614
315.488
303.026
303.526
319.263
352.383
404.639
476.806
567.569
671.721
777.767
865.665
906.896
870.807
740.443
532.28
298.445
91.5452
-63.865
-208.778
-272.631
-251.178
-147.758
-12.9538
97.5886
159.879
180.339
175.498
159.949
142.922
128.03
114.617
100.499
84.3705
66.595
48.4893
31.2979
15.7379
2.13749
-9.31986
-18.5577
-25.7203
-31.193
-35.45
-38.8474
-41.5087
-43.3374
-44.1875
-43.9948
-42.7823
-40.6747
-37.7432
-33.8961
-28.9719
-22.0683
-17.3763
-12.1707
-6.31837
0.557997
8.4645
16.5757
25.4574
34.6887
44.2847
54.5235
65.8757
78.1564
89.498
96.4141
95.0385
82.7502
58.7439
23.7988
-18.6712
-60.5699
-78.1251
-73.7916
-56.6172
-33.1619
-7.47118
17.3322
38.8833
55.6524
67.0112
73.1799
74.9983
73.607
70.1672
65.6219
60.656
55.8256
52.9061
49.8861
46.9065
43.8702
40.7395
37.554
34.3599
31.2368
28.2265
25.4164
22.8911
20.7368
19.0411
17.89
17.3629
17.5272
18.4259
20.0533
22.303
24.863
27.0186
27.303
22.9472
9.28245
-20.1783
-71.6154
-145.159
-225.598
-279.708
-277.317
-217.878
-124.427
-22.5581
65.8561
122.764
141.25
129.175
101.963
75.6706
58.9929
52.5687
49.1987
37.1788
21.8709
0.931832
-25.1064
-52.2256
-74.3878
-86.6365
-86.4386
-74.1385
-53.4451
-29.7383
-7.76399
9.42623
20.2781
24.3538
22.1348
14.8403
4.19572
-7.87857
-19.6967
-30.2364
-39.2201
-47.8615
-55.8053
-63.7447
-121.377
90.4162
152.962
181.696
233.089
309.331
366.24
321.874
247.058
225.647
204.444
174.453
142.374
112.833
80.8984
47.9477
14.2396
-19.5899
-53.346
-86.0665
-115.577
-138.671
-152.637
-155.111
-178.48
-191.497
-192.266
-177.213
-141.188
-77.5489
21.0468
160.747
342.945
558.605
781.076
960.744
1029.93
929.512
661.488
324.584
54.1171
-124.757
-169.475
-140.644
-52.0564
53.7507
134.993
175.634
182.74
170.939
152.949
135.812
121.154
108.524
90.5011
73.0775
54.4129
35.6981
17.9404
1.87173
-11.9094
-22.9424
-31.0761
-36.6166
-40.2179
-42.5559
-44.0414
-44.7396
-44.4229
-42.8219
-39.8676
-35.6272
-30.2214
-23.7359
-16.0188
-7.71304
0.825896
5.87495
10.2438
14.1297
17.6211
21.1741
25.1334
29.567
34.5083
39.8483
45.8263
53.0473
61.8764
71.336
78.6245
79.9572
72.1731
53.6782
24.3102
-13.9764
-54.763
-85.7955
-80.2312
-61.0248
-36.4404
-10.1987
14.8583
36.4791
53.1637
64.3192
70.2332
71.8278
70.3076
66.8539
62.4288
57.6632
52.9805
48.6854
46.1399
43.835
41.5313
39.1654
36.6651
34.0504
31.4192
28.7944
26.2579
23.8959
21.8017
20.0712
18.7961
18.0596
17.9326
18.4662
19.6738
21.4859
23.6562
25.5795
25.9732
22.3782
10.5923
-15.367
-61.5202
-128.841
-204.599
-258.614
-261.245
-210.393
-128.272
-38.7228
40.937
97.523
123.845
122.698
105.511
86.1375
73.0061
66.6868
58.4002
44.5843
26.0821
1.63405
-27.8994
-58.168
-82.8964
-96.3578
-94.8931
-78.9146
-53.6712
-26.3494
-2.5904
14.5529
23.9466
25.735
21.0727
11.8868
0.501892
-10.8664
-20.6571
-28.3228
-34.2538
-39.1873
-45.8516
-52.7343
-99.9858
77.2739
158.097
195.936
212.84
179.297
131.54
124.131
105.739
82.1616
55.4732
25.2533
-6.22763
-37.8289
-69.8443
-102.108
-134.815
-168.133
-202.266
-236.886
-271.151
-303.921
-334.068
-360.628
-390.132
-421.87
-455.424
-489.317
-519.01
-535.416
-523.782
-463.808
-331.979
-108.294
211.038
597.592
978.166
1234.43
1239.48
944.483
488.802
133.814
-0.659857
7.39104
67.0013
140.134
192.282
211.005
205.113
183.486
156.684
136.486
119.058
102.72
83.3956
63.8676
43.7601
23.9003
5.21236
-11.397
-25.0778
-35.2535
-41.8786
-45.519
-47.1085
-47.5026
-47.1487
-46.0195
-43.7575
-39.9712
-34.453
-27.1817
-18.2614
-7.91705
3.26883
14.2281
23.9231
29.8719
33.7968
36.0401
36.7487
36.4304
35.8695
35.6674
36.1381
37.327
39.3894
42.8623
48.2778
55.1719
61.3919
63.5733
58.4958
44.045
19.3049
-14.6703
-52.5334
-83.8445
-88.5094
-63.6465
-37.1409
-10.3715
14.4972
35.5645
51.5104
61.8827
67.1037
68.1956
66.4067
62.9045
58.6052
54.1212
49.7801
45.7853
42.2686
40.0149
38.6563
37.0328
35.2541
33.2649
31.1741
28.9894
26.7743
24.6151
22.6155
20.882
19.5155
18.607
18.2345
18.458
19.3051
20.734
22.5497
24.2409
24.6936
21.747
11.6755
-10.9256
-51.7692
-112.535
-183.051
-236.716
-244.931
-203.308
-132.055
-53.4869
18.1164
73.1014
104.964
113.453
106.064
93.649
83.5728
76.4816
64.6733
48.5601
27.1812
-0.567035
-33.7801
-67.8124
-95.5408
-109.58
-105.1
-83.6053
-52.9424
-22.3177
2.09898
17.7006
24.1042
22.2821
14.3221
3.12827
-8.22912
-17.3464
-23.1373
-25.9632
-27.1823
-27.6035
-30.787
-36.3324
-93.4471
28.1417
91.2164
96.1768
80.4068
76.6569
70.5506
60.6071
47.1373
30.7714
13.6244
-3.25823
-23.2985
-43.6654
-64.5945
-86.2057
-108.677
-131.969
-156.032
-180.89
-206.924
-235.153
-266.406
-300.565
-322.295
-351.122
-392.657
-452.963
-536.612
-643.308
-764.773
-880.943
-954.056
-927.058
-737.775
-348.769
217.459
852.347
1385.59
1601.13
1340.77
792.517
300.923
238.258
248.245
280.538
282.472
272.356
246.885
210.229
175.82
147.746
123.725
101.65
79.1073
56.669
34.3926
12.87
-7.00471
-24.1809
-37.6696
-46.8881
-51.94
-53.6267
-53.1192
-51.4534
-49.1686
-46.2271
-42.2011
-36.5943
-29.0643
-19.5234
-8.18209
4.41702
17.4568
30.5518
42.1545
49.6355
53.9129
55.2624
53.9434
50.5989
46.231
41.8616
38.2043
35.5812
34.2183
34.5733
37.132
41.608
46.2715
48.229
44.4739
32.6596
11.3569
-18.9318
-53.307
-82.1075
-90.6713
-63.4832
-34.9535
-7.85113
16.2537
36.0187
50.4912
59.4865
63.6224
64.0171
61.9131
58.4046
54.3113
50.1648
46.2572
42.7003
39.5565
36.8642
35.0929
34.4375
33.4066
32.0902
30.5997
28.8913
27.03
25.1089
23.2368
21.5262
20.0872
19.0212
18.4169
18.3458
18.8507
19.9143
21.3865
22.8411
23.3226
20.9583
12.4968
-6.85677
-42.4126
-96.4363
-161.298
-214.279
-228.195
-195.915
-134.849
-66.1356
-2.26662
49.7185
84.6569
100.835
102.276
96.4449
89.1044
81.1359
67.2696
49.0605
25.2189
-6.01648
-43.755
-82.4361
-112.964
-125.605
-115.252
-86.1993
-49.7692