/*--------------------------------*- C++ -*----------------------------------*\
| =========                 |                                                 |
| \\      /  F ield         | OpenFOAM: The Open Source CFD Toolbox           |
|  \\    /   O peration     | Version:  2112                                  |
|   \\  /    A nd           | Website:  www.openfoam.com                      |
|    \\/     M anipulation  |                                                 |
\*---------------------------------------------------------------------------*/
FoamFile
{
    version     2.0;
    format      ascii;
    arch        "LSB;label=32;scalar=64";
    class       volScalarField;
    location    "0.16";
    object      turbulenceProperties:L;
}
// * * * * * * * * * * * * * * * * * * * * * * * * * * * * * * * * * * * * * //

dimensions      [0 1 0 0 0 0 0];

internalField   nonuniform List<scalar> 
1580
(
0.00103454
0.00103457
0.00103464
0.00103469
0.00103481
0.0010349
0.00103512
0.00103526
0.022682
0.0165351
0.0127894
0.0103599
0.00854559
0.00735771
0.00612714
0.00569154
0.0279759
0.0269404
0.0252137
0.0229359
0.0201811
0.0176689
0.0148495
0.0129413
0.0282072
0.0281142
0.0278523
0.0272804
0.026172
0.0245956
0.0223306
0.0197517
0.0282225
0.0282136
0.0281818
0.0280832
0.0278049
0.0271513
0.0259348
0.0237209
0.0282234
0.0282176
0.028197
0.0281288
0.0279315
0.0273849
0.0263377
0.0242332
0.0282134
0.0281547
0.0279873
0.0275778
0.0267988
0.0253842
0.0234814
0.0208223
0.0279928
0.0270234
0.0253786
0.0230566
0.0203583
0.0173838
0.0147645
0.0121589
0.0207795
0.0138791
0.0102303
0.0079593
0.00645
0.00527726
0.00446498
0.00368605
0.000507414
0.000507594
0.000507824
0.000508141
0.000508536
0.000509065
0.000509691
0.000510479
0.00108242
0.00110843
0.00111902
0.00112526
0.00112977
0.00113344
0.0011366
0.00113941
0.00114196
0.00114429
0.00114644
0.00114843
0.00115028
0.00115227
0.00115445
0.00115664
0.00115883
0.00116103
0.00116325
0.00116548
0.00116772
0.00116998
0.00117225
0.00117454
0.00117685
0.00117917
0.00118152
0.00118389
0.00118628
0.00118869
0.00119113
0.00119359
0.00119607
0.00119857
0.0012011
0.00120366
0.00120624
0.00120884
0.00121148
0.00121414
0.00121683
0.00121954
0.00122229
0.00122507
0.00122788
0.00123074
0.00123364
0.00123658
0.00123955
0.00124249
0.00108669
0.00127976
0.00128701
0.00135282
0.00146136
0.00160143
0.00175522
0.00191173
0.00206356
0.00220608
0.00233639
0.00245306
0.00255602
0.00265944
0.00276391
0.00285656
0.00293539
0.00299627
0.00303079
0.00305347
0.00307475
0.00309344
0.00311021
0.00312688
0.00314321
0.00315751
0.00316964
0.00318201
0.00319546
0.00320823
0.00322054
0.0032327
0.00324483
0.003257
0.0032693
0.00328223
0.00329551
0.00330892
0.00332245
0.00333611
0.0033499
0.00336378
0.00337771
0.00339162
0.00340512
0.0034173
0.00342846
0.00343885
0.00344948
0.00344489
0.00108793
0.00145033
0.00150596
0.00165198
0.00185274
0.00207722
0.00230301
0.00251307
0.00269679
0.0028517
0.00298009
0.00308501
0.00316969
0.00324805
0.00331978
0.00337709
0.00342059
0.00344982
0.00346679
0.00347901
0.00348975
0.00349931
0.00350812
0.00351685
0.00352533
0.00353428
0.00354277
0.00355193
0.00356348
0.003576
0.00358922
0.00360355
0.00361903
0.00363564
0.00365327
0.00367158
0.00369048
0.00370998
0.00373001
0.00375053
0.00377147
0.00379268
0.00381404
0.00383547
0.0038568
0.00387772
0.00389768
0.00391762
0.00393539
0.00394944
0.00108752
0.00155198
0.00163884
0.00181704
0.00205122
0.00230681
0.00255229
0.00276258
0.00292478
0.00304474
0.0031379
0.00321209
0.00327356
0.00332729
0.00337003
0.00339841
0.00341549
0.00342508
0.0034298
0.00343241
0.00343467
0.00343726
0.00344016
0.00344392
0.00344865
0.00345476
0.00346199
0.00347032
0.00348246
0.00349621
0.00351127
0.0035282
0.00354692
0.0035674
0.00358935
0.00361243
0.00363652
0.00366156
0.00368743
0.00371406
0.00374128
0.00376879
0.00379647
0.00382419
0.00385181
0.00387909
0.00390543
0.00393209
0.00395506
0.00398133
0.00108674
0.00161544
0.00172135
0.00191968
0.00217003
0.00243207
0.00266335
0.00283466
0.00294692
0.00303517
0.00310046
0.00315198
0.00319306
0.00322739
0.0032526
0.00326818
0.00327735
0.00328253
0.00328529
0.00328728
0.00328946
0.0032927
0.00329626
0.00330105
0.00330719
0.00331505
0.00332398
0.0033352
0.00335037
0.00336652
0.00338459
0.00340463
0.00342663
0.00345052
0.00347587
0.00350232
0.0035299
0.00355855
0.00358815
0.00361859
0.00364962
0.0036808
0.00371219
0.00374354
0.00377477
0.0038055
0.00383542
0.00386549
0.00389147
0.00392287
0.00108563
0.00164822
0.00176842
0.00197527
0.00222765
0.00248119
0.00268006
0.0028093
0.00288223
0.0029304
0.00296955
0.00300797
0.00304435
0.00307824
0.00310321
0.00311953
0.00313005
0.00313721
0.00314295
0.00314833
0.00315391
0.00316071
0.00316787
0.00317627
0.00318589
0.00319688
0.00320876
0.00322422
0.00324183
0.00326065
0.00328132
0.0033038
0.00332815
0.00335431
0.00338196
0.00341083
0.00344089
0.00347205
0.00350418
0.00353717
0.00357055
0.00360387
0.00363747
0.00367096
0.00370428
0.00373697
0.00376897
0.0038008
0.00382854
0.00386198
0.0010848
0.00166317
0.00179884
0.00200654
0.00225173
0.00248693
0.00264971
0.00273787
0.00276744
0.00279204
0.00282613
0.00286676
0.00290843
0.00294765
0.0029755
0.00299514
0.00300962
0.00302122
0.00303174
0.00304185
0.00305185
0.00306291
0.00307416
0.00308644
0.00309951
0.00311323
0.0031287
0.00314701
0.00316654
0.00318742
0.00320989
0.00323396
0.00325969
0.00328706
0.00331591
0.00334605
0.00337738
0.00340979
0.00344316
0.00347738
0.00351207
0.00354685
0.00358199
0.00361683
0.00365136
0.00368523
0.00371853
0.00375137
0.0037803
0.00381468
0.00109103
0.00167105
0.00182032
0.00202571
0.00225723
0.00246838
0.00259448
0.00264064
0.00264486
0.00266286
0.00269916
0.00274523
0.00279158
0.00283508
0.00286585
0.00288901
0.00290787
0.00292428
0.00293967
0.00295435
0.00296846
0.00298337
0.00299805
0.00301346
0.00302894
0.00304512
0.00306327
0.00308313
0.00310381
0.00312586
0.00314922
0.00317408
0.00320046
0.0032283
0.00325752
0.00328795
0.0033195
0.00335207
0.00338558
0.00341991
0.00345488
0.00349023
0.00352603
0.00356159
0.00359693
0.0036316
0.00366586
0.00369919
0.00372887
0.00376338
0.00109602
0.00167514
0.00183642
0.00203696
0.00224867
0.00243572
0.0025182
0.00253567
0.00253168
0.00255088
0.00258962
0.00263689
0.00268373
0.00273056
0.00276465
0.00279186
0.00281542
0.00283669
0.00285681
0.00287575
0.00289355
0.00291189
0.00292941
0.0029472
0.00296444
0.00298277
0.00300264
0.00302342
0.0030451
0.003068
0.00309191
0.00311703
0.00314342
0.00317109
0.00319993
0.00322979
0.00326059
0.00329228
0.00332479
0.00335803
0.00339194
0.00342638
0.00346134
0.00349635
0.0035315
0.0035661
0.00360044
0.0036336
0.0036636
0.00369697
0.00108066
0.00167705
0.00187741
0.00205302
0.00219512
0.00231263
0.00231886
0.00230178
0.0023067
0.00233989
0.00238842
0.00244021
0.00249026
0.00254447
0.00258994
0.00262947
0.00266535
0.00269819
0.00272887
0.00275661
0.00278162
0.00280643
0.00283
0.00285268
0.0028755
0.00289846
0.00292229
0.0029456
0.00296987
0.00299497
0.00302111
0.00304818
0.00307614
0.00310496
0.00313456
0.00316483
0.00319577
0.00322733
0.00325952
0.00329228
0.00332558
0.00335934
0.00339358
0.00342802
0.00346281
0.00349727
0.00353158
0.00356505
0.00359574
0.00362899
0.00107888
0.00165798
0.00185276
0.00191983
0.00190992
0.00185202
0.00183603
0.00186344
0.00193417
0.00201771
0.00210144
0.00217827
0.00224539
0.00230752
0.00237152
0.00242999
0.00248317
0.00253019
0.00257258
0.00261134
0.0026461
0.00267962
0.00271068
0.00273983
0.00276816
0.00279629
0.00282402
0.00285214
0.00288075
0.00290962
0.0029389
0.00296865
0.00299889
0.00302946
0.00306034
0.00309169
0.00312352
0.00315583
0.00318862
0.00322185
0.00325552
0.00328954
0.00332397
0.00335861
0.00339359
0.00342842
0.00346306
0.00349721
0.00352865
0.00356254
0.00107673
0.00150994
0.00162404
0.00144335
0.00134878
0.00134919
0.00142962
0.00155565
0.00168534
0.00180543
0.00190951
0.00199647
0.00206992
0.0021421
0.00221341
0.00227891
0.00233797
0.00239191
0.00244077
0.00248509
0.00252546
0.00256312
0.00259843
0.00263209
0.00266474
0.00269684
0.00272868
0.00276046
0.00279147
0.00282246
0.00285368
0.00288521
0.00291709
0.00294935
0.00298195
0.00301486
0.00304806
0.00308155
0.00311534
0.00314941
0.00318377
0.00321835
0.00325322
0.00328824
0.00332345
0.00335862
0.00339344
0.00342812
0.00346003
0.00349458
0.00107392
0.00116746
0.00100953
0.000968445
0.00104393
0.00117464
0.001315
0.0014447
0.00156493
0.00167855
0.00177907
0.00186621
0.00194124
0.00201362
0.00208486
0.00215098
0.00221129
0.0022662
0.00231625
0.00236231
0.00240521
0.00244514
0.00248404
0.00252067
0.00255681
0.00259199
0.00262611
0.00265993
0.00269375
0.00272752
0.00276136
0.00279528
0.00282934
0.00286362
0.00289811
0.00293275
0.00296751
0.0030024
0.00303744
0.00307262
0.00310801
0.00314354
0.00317928
0.00321513
0.00325102
0.00328692
0.00332227
0.00335768
0.00339024
0.00342544
0.00107631
0.000673988
0.000746157
0.00093185
0.00109044
0.00120724
0.00131264
0.00141186
0.00150335
0.0015914
0.00167339
0.00174894
0.00181773
0.00188747
0.00195777
0.00202282
0.00208083
0.00213437
0.00218382
0.00223045
0.00227523
0.00231745
0.00235883
0.00239895
0.00243759
0.00247546
0.00251276
0.00254973
0.00258656
0.00262323
0.00265983
0.00269629
0.00273274
0.00276927
0.00280585
0.00284236
0.00287881
0.00291523
0.00295167
0.00298819
0.00302487
0.00306168
0.00309866
0.00313575
0.00317279
0.00320989
0.00324622
0.00328279
0.00331644
0.00335258
0.00110126
0.000556242
0.000849351
0.00102268
0.00113116
0.0012187
0.00129385
0.00136457
0.00143235
0.00149985
0.00156533
0.00162746
0.00168599
0.00174794
0.00181159
0.00187218
0.00192737
0.00198031
0.00203063
0.00207887
0.00212631
0.0021724
0.00221674
0.00225997
0.00230234
0.00234423
0.00238528
0.00242598
0.00246637
0.00250641
0.00254622
0.00258563
0.00262491
0.00266407
0.00270298
0.00274151
0.00277979
0.00281788
0.00285591
0.00289399
0.00293225
0.00297064
0.00300922
0.00304792
0.00308654
0.00312531
0.00316309
0.00320131
0.00323656
0.00327411
0.000825527
0.000725138
0.000739278
0.000779292
0.000821715
0.000868393
0.00091731
0.000965978
0.00101509
0.00106337
0.00111064
0.00115679
0.00120136
0.00125087
0.00130644
0.0013642
0.00142336
0.00148359
0.00154444
0.00160549
0.00166641
0.00172699
0.00178697
0.00184657
0.00190509
0.0019633
0.00201956
0.00207548
0.00213018
0.00218369
0.00223614
0.00228713
0.00233769
0.00238664
0.00243402
0.00248014
0.00252564
0.00257068
0.00261561
0.00266061
0.00270586
0.00275118
0.00279674
0.00284236
0.00288787
0.00293355
0.00297778
0.0030229
0.00306472
0.00310811
0.00430057
0.00337528
0.00264928
0.00226186
0.00197881
0.00176318
0.00161146
0.00150705
0.00143533
0.00138847
0.00135783
0.00134081
0.00133198
0.00133113
0.00133789
0.00135077
0.0013665
0.00138763
0.00140994
0.00143762
0.0014662
0.0014962
0.00152877
0.00156345
0.00159975
0.00163758
0.00167687
0.00171728
0.00175926
0.00180205
0.00184732
0.00189423
0.00194346
0.00199386
0.00204545
0.00209755
0.00215076
0.00220405
0.00225856
0.00231233
0.00236607
0.00241938
0.00247319
0.00252656
0.00258059
0.00263374
0.00268579
0.00274111
0.00278846
0.00283733
0.0111724
0.00896976
0.00775821
0.00622437
0.00521812
0.00450246
0.00397286
0.00357494
0.00326866
0.00303246
0.00285028
0.00271361
0.00260523
0.00250865
0.00241865
0.00234676
0.0022868
0.00223904
0.00220051
0.00217144
0.00215013
0.00213465
0.00212452
0.00211893
0.00211734
0.00211906
0.00212359
0.00213045
0.00213922
0.00214953
0.00216112
0.00217379
0.00218745
0.00220207
0.00221774
0.00223446
0.00225247
0.00227167
0.00229255
0.00231465
0.0023387
0.00236557
0.00239421
0.0024243
0.00245615
0.00249307
0.00252753
0.00257212
0.00260293
0.00265334
0.017885
0.0155079
0.0141758
0.0122276
0.0107046
0.00953946
0.00862612
0.00790795
0.00732624
0.00686094
0.0064554
0.00609412
0.00578103
0.00547962
0.00518999
0.00494014
0.0047247
0.00453932
0.00437993
0.00424302
0.0041256
0.00402423
0.0039365
0.00385987
0.00379257
0.0037326
0.00367866
0.00362907
0.00358315
0.00353924
0.00349745
0.00345601
0.00341571
0.00337482
0.0033348
0.00329429
0.00325517
0.00321625
0.0031796
0.00314431
0.00311233
0.00308177
0.00305474
0.00303165
0.00301331
0.00300212
0.00299628
0.00300283
0.0030134
0.00305535
0.0218384
0.0197538
0.0182866
0.0167776
0.015399
0.014217
0.0132132
0.0123732
0.0116606
0.0110624
0.0105338
0.0100509
0.0096223
0.00918809
0.00874848
0.00834945
0.00799004
0.00766678
0.00737708
0.00711633
0.00688215
0.00666954
0.00647699
0.00629945
0.0061368
0.00598381
0.00584204
0.0057057
0.00557833
0.00545315
0.00533589
0.00521845
0.00510893
0.00499727
0.0048943
0.00478771
0.00469122
0.00458978
0.0045003
0.00440457
0.00432309
0.00423353
0.00415977
0.00407571
0.0040097
0.0039312
0.00387491
0.00380384
0.00375634
0.00368057
0.0221909
0.020325
0.0188307
0.017533
0.0163856
0.0153865
0.0145152
0.0137621
0.0131067
0.0125366
0.0120363
0.0115919
0.0111934
0.0107829
0.010352
0.00994331
0.00955696
0.009192
0.00884833
0.00852382
0.00821864
0.00792967
0.00765784
0.00739908
0.00715556
0.00692209
0.00670254
0.00649031
0.00629144
0.0060974
0.00591685
0.00573902
0.00557553
0.00541241
0.00526496
0.00511517
0.00498281
0.00484506
0.00472696
0.00459982
0.00449506
0.00437678
0.00428411
0.00417213
0.00408947
0.00397998
0.00390399
0.00379065
0.00371475
0.00355126
0.0185495
0.0168383
0.0154748
0.0143693
0.0134416
0.0126577
0.0119802
0.0113966
0.0108831
0.010432
0.010031
0.00967486
0.00935422
0.00902458
0.00867501
0.00834038
0.00801777
0.00770832
0.00740977
0.00712309
0.00684658
0.00658104
0.00632545
0.00608026
0.0058451
0.00561998
0.00540513
0.0052
0.00500557
0.0048203
0.00464616
0.00447998
0.00432528
0.00417717
0.00404092
0.00390934
0.00379003
0.00367303
0.00356884
0.00346418
0.00337309
0.00327802
0.0031978
0.00310855
0.00303617
0.00294691
0.00287754
0.00277723
0.00270242
0.00250409
0.0105195
0.00939613
0.00852106
0.00783624
0.00727765
0.00682185
0.00643588
0.00611079
0.00582815
0.00558563
0.00537018
0.00518264
0.00501276
0.00484216
0.00465846
0.00448338
0.00431269
0.00415051
0.00399196
0.0038413
0.00369413
0.00355496
0.0034197
0.00329276
0.0031702
0.00305626
0.00294701
0.00284676
0.00275093
0.00266398
0.0025809
0.00250638
0.00243496
0.00237136
0.00230987
0.00225535
0.00220221
0.0021552
0.00210902
0.00206854
0.00202795
0.00199303
0.00195633
0.00192421
0.00188974
0.00185652
0.00182173
0.00177827
0.00173874
0.00161193
0.00332279
0.00301119
0.00274178
0.00252961
0.00235722
0.00222104
0.00210732
0.00201474
0.00193511
0.00186848
0.00180986
0.00175978
0.00171499
0.00167033
0.00162362
0.00158069
0.00154009
0.00150186
0.00146326
0.00142815
0.00139336
0.00136271
0.00133281
0.0013073
0.00128282
0.00126267
0.00124379
0.00122931
0.00121545
0.00120572
0.00119588
0.00119
0.00118311
0.00117984
0.00117438
0.00117262
0.00116769
0.00116711
0.00116248
0.00116311
0.00115859
0.00116017
0.00115538
0.00115688
0.00115053
0.00115059
0.00113994
0.00113287
0.00111249
0.00104477
0.000513705
0.000519127
0.000524172
0.000528868
0.000533264
0.000537375
0.000541236
0.000544856
0.000548262
0.000551461
0.000554473
0.000557305
0.000559975
0.000562865
0.000566073
0.000569307
0.000572573
0.000575864
0.000579187
0.000582535
0.000585916
0.000589323
0.000592764
0.000596233
0.000599737
0.000603268
0.000606831
0.000610428
0.000614061
0.00061773
0.000621432
0.000625166
0.000628936
0.00063274
0.000636584
0.00064046
0.000644379
0.000648331
0.000652326
0.000656358
0.000660433
0.000664545
0.000668703
0.000672896
0.000677142
0.000681414
0.000685745
0.000690099
0.000694497
0.000698937
0.00122002
0.00118448
0.00114724
0.00110827
0.00106748
0.00102478
0.000980085
0.000933378
0.000884421
0.00083335
0.00347167
0.00346524
0.00342084
0.0033683
0.00329283
0.00322629
0.00312279
0.00304891
0.00290452
0.00279922
0.00397139
0.00398111
0.00396516
0.00393643
0.00390349
0.00384638
0.00380202
0.00372768
0.00365698
0.00355678
0.00399953
0.00401887
0.00401541
0.00401102
0.00399141
0.00395911
0.00393288
0.00388569
0.00384807
0.00377771
0.00394035
0.00396349
0.00396498
0.00397215
0.00395878
0.00394618
0.00393143
0.00390397
0.00388183
0.00383749
0.00388027
0.00390629
0.00391058
0.0039232
0.00391177
0.00391045
0.00390164
0.00388769
0.00387434
0.00384722
0.00383429
0.00386189
0.0038671
0.00388203
0.00387121
0.00387739
0.00387147
0.00386668
0.00385854
0.00384299
0.00378407
0.00381272
0.00381817
0.00383491
0.00382459
0.00383808
0.00383456
0.00383972
0.003836
0.0038324
0.00371864
0.00374799
0.00375334
0.0037725
0.00376384
0.00378452
0.003783
0.00379916
0.00379966
0.00381037
0.0036524
0.00368316
0.00368988
0.00371032
0.00370227
0.00372727
0.00372689
0.00375349
0.00375751
0.00378205
0.00358707
0.00361846
0.00362548
0.00364788
0.00364151
0.00367028
0.00367026
0.00370505
0.00371222
0.00374968
0.00352077
0.00355412
0.00356303
0.00358765
0.0035829
0.00361489
0.00361453
0.00365592
0.00366582
0.00371484
0.00345354
0.00348935
0.00350053
0.00352775
0.00352489
0.0035603
0.00355975
0.00360708
0.00361943
0.00367812
0.00338291
0.00342156
0.00343534
0.00346563
0.00346527
0.00350468
0.00350527
0.00355811
0.00357322
0.00364024
0.00330697
0.00334873
0.00336551
0.00339933
0.00340229
0.00344638
0.00344984
0.0035081
0.00352664
0.00360192
0.00314766
0.00319606
0.00321946
0.00326107
0.00327088
0.00332444
0.00333301
0.00340278
0.00342694
0.00352307
0.00288431
0.00294301
0.00298148
0.00303459
0.00305914
0.00312496
0.00314819
0.00323326
0.00326304
0.00339414
0.00269474
0.00275354
0.00281137
0.0028728
0.00292044
0.00298785
0.00302826
0.00310367
0.00314036
0.00326789
0.00303839
0.00304676
0.00307022
0.00309046
0.00311506
0.00312677
0.00313208
0.00315299
0.00317173
0.00326098
0.00362178
0.00356084
0.00348854
0.00341439
0.00335541
0.00328912
0.00324232
0.00318043
0.00315782
0.00311891
0.00350788
0.00344418
0.00333033
0.00324482
0.003138
0.0030425
0.00295656
0.00285396
0.00280985
0.00269915
0.00251434
0.00249365
0.00240579
0.0023609
0.00227434
0.00223
0.00215731
0.00211075
0.00206817
0.00200478
0.00165991
0.00165761
0.00162959
0.00161476
0.00157668
0.00156315
0.00151891
0.00150749
0.00147112
0.0014354
0.00108092
0.00109086
0.00108991
0.00108504
0.00107519
0.00106827
0.00104256
0.00103875
0.00100724
0.000994258
0.000687113
0.00066649
0.0006449
0.00062246
0.000598936
0.000574422
0.000548773
0.000522008
0.000494015
0.000465121
)
;

boundaryField
{
    inlet
    {
        type            calculated;
        value           uniform 0.0282237;
    }
    outlet
    {
        type            calculated;
        value           nonuniform List<scalar> 
25
(
0.00083335
0.00279922
0.00355678
0.00377771
0.00383749
0.00384722
0.00384299
0.0038324
0.00381037
0.00378205
0.00374968
0.00371484
0.00367812
0.00364024
0.00360192
0.00352307
0.00339414
0.00326789
0.00326098
0.00311891
0.00269915
0.00200478
0.0014354
0.000994258
0.000465121
)
;
    }
    upperWall
    {
        type            calculated;
        value           nonuniform List<scalar> 
68
(
0.000507414
0.000507594
0.000507824
0.000508141
0.000508536
0.000509065
0.000509691
0.000510479
0.000513705
0.000519127
0.000524172
0.000528868
0.000533264
0.000537375
0.000541236
0.000544856
0.000548262
0.000551461
0.000554473
0.000557305
0.000559975
0.000562865
0.000566073
0.000569307
0.000572573
0.000575864
0.000579187
0.000582535
0.000585916
0.000589323
0.000592764
0.000596233
0.000599737
0.000603268
0.000606831
0.000610428
0.000614061
0.00061773
0.000621432
0.000625166
0.000628936
0.00063274
0.000636584
0.00064046
0.000644379
0.000648331
0.000652326
0.000656358
0.000660433
0.000664545
0.000668703
0.000672896
0.000677142
0.000681414
0.000685745
0.000690099
0.000694497
0.000698937
0.000687113
0.00066649
0.0006449
0.00062246
0.000598936
0.000574422
0.000548773
0.000522008
0.000494015
0.000465121
)
;
    }
    lowerWall
    {
        type            calculated;
        value           nonuniform List<scalar> 
83
(
0.00103454
0.00103457
0.00103464
0.00103469
0.00103481
0.0010349
0.00103512
0.00103526
0.00108242
0.00108669
0.00108793
0.00108752
0.00108674
0.00108563
0.0010848
0.00109103
0.00109602
0.00108066
0.00107888
0.00107673
0.00107392
0.00107631
0.00110126
0.00108242
0.00110843
0.00111902
0.00112526
0.00112977
0.00113344
0.0011366
0.00113941
0.00114196
0.00114429
0.00114644
0.00114843
0.00115028
0.00115227
0.00115445
0.00115664
0.00115883
0.00116103
0.00116325
0.00116548
0.00116772
0.00116998
0.00117225
0.00117454
0.00117685
0.00117917
0.00118152
0.00118389
0.00118628
0.00118869
0.00119113
0.00119359
0.00119607
0.00119857
0.0012011
0.00120366
0.00120624
0.00120884
0.00121148
0.00121414
0.00121683
0.00121954
0.00122229
0.00122507
0.00122788
0.00123074
0.00123364
0.00123658
0.00123955
0.00124249
0.00122002
0.00118448
0.00114724
0.00110827
0.00106748
0.00102478
0.000980085
0.000933378
0.000884421
0.00083335
)
;
    }
    frontAndBack
    {
        type            empty;
    }
}


// ************************************************************************* //
