/*--------------------------------*- C++ -*----------------------------------*\
| =========                 |                                                 |
| \\      /  F ield         | OpenFOAM: The Open Source CFD Toolbox           |
|  \\    /   O peration     | Version:  2112                                  |
|   \\  /    A nd           | Website:  www.openfoam.com                      |
|    \\/     M anipulation  |                                                 |
\*---------------------------------------------------------------------------*/
FoamFile
{
    version     2.0;
    format      ascii;
    arch        "LSB;label=32;scalar=64";
    class       volVectorField;
    location    "0.59";
    object      U_0;
}
// * * * * * * * * * * * * * * * * * * * * * * * * * * * * * * * * * * * * * //

dimensions      [0 1 -1 0 0 0 0];

internalField   nonuniform List<vector> 
12225
(
(9.75972 0.0640241 0)
(9.28426 0.0979745 0)
(8.78403 0.101274 0)
(8.28824 0.0987913 0)
(7.82755 0.0923669 0)
(7.41569 0.0825702 0)
(7.05935 0.0705083 0)
(6.76435 0.0569382 0)
(6.53544 0.0422596 0)
(6.37604 0.0267301 0)
(6.28751 0.0111689 0)
(6.27151 -0.00564829 0)
(6.32649 -0.0230369 0)
(6.45824 -0.043217 0)
(6.67923 -0.0685337 0)
(7.00505 -0.101541 0)
(7.49688 -0.162696 0)
(8.18187 -0.226422 0)
(10.1045 0.075455 0)
(10.3179 0.107236 0)
(10.4716 0.110548 0)
(10.5716 0.114229 0)
(10.6332 0.114736 0)
(10.6661 0.11026 0)
(10.6792 0.10126 0)
(10.6829 0.0880616 0)
(10.6875 0.0707819 0)
(10.702 0.0490565 0)
(10.7344 0.0235603 0)
(10.7847 -0.00412577 0)
(10.8608 -0.0352635 0)
(10.9697 -0.0733319 0)
(11.1194 -0.121723 0)
(11.3248 -0.190124 0)
(11.6003 -0.290222 0)
(11.9791 -0.49174 0)
(10.0122 0.0323125 0)
(10.0686 0.0485049 0)
(10.1345 0.0543865 0)
(10.2053 0.0629029 0)
(10.2854 0.0679973 0)
(10.372 0.0672484 0)
(10.4606 0.0610756 0)
(10.5487 0.0496691 0)
(10.6354 0.0328725 0)
(10.7215 0.0110472 0)
(10.8069 -0.0171846 0)
(10.8996 -0.0494833 0)
(11.0049 -0.0883757 0)
(11.1279 -0.13734 0)
(11.2742 -0.201596 0)
(11.4512 -0.290855 0)
(11.6638 -0.426524 0)
(11.9118 -0.651667 0)
(10.0072 0.0286295 0)
(10.0423 0.0549727 0)
(10.082 0.0624665 0)
(10.122 0.0657062 0)
(10.1685 0.064685 0)
(10.2231 0.0583505 0)
(10.2846 0.0472342 0)
(10.3521 0.0316537 0)
(10.4261 0.0114308 0)
(10.5064 -0.0130968 0)
(10.5949 -0.0436652 0)
(10.6933 -0.0813346 0)
(10.8038 -0.127828 0)
(10.9297 -0.18649 0)
(11.0748 -0.263071 0)
(11.2426 -0.368192 0)
(11.4332 -0.519151 0)
(11.6354 -0.748594 0)
(10.0053 0.0225549 0)
(10.0342 0.0438668 0)
(10.0701 0.047395 0)
(10.1072 0.0471848 0)
(10.1494 0.0440614 0)
(10.1987 0.0361279 0)
(10.2543 0.0232181 0)
(10.3159 0.00531831 0)
(10.3842 -0.0178489 0)
(10.4597 -0.0470614 0)
(10.5436 -0.0826243 0)
(10.6373 -0.126412 0)
(10.7424 -0.180324 0)
(10.8612 -0.247992 0)
(10.9957 -0.335498 0)
(11.1462 -0.452634 0)
(11.3092 -0.613088 0)
(11.4693 -0.83927 0)
(10.004 0.0169624 0)
(10.028 0.0347122 0)
(10.0612 0.0378754 0)
(10.0974 0.0364168 0)
(10.1383 0.0314865 0)
(10.1857 0.0213342 0)
(10.2392 0.00566375 0)
(10.2984 -0.0154668 0)
(10.3637 -0.0423895 0)
(10.4357 -0.0757859 0)
(10.5155 -0.116301 0)
(10.6041 -0.165825 0)
(10.7025 -0.226658 0)
(10.8119 -0.302546 0)
(10.9328 -0.399157 0)
(11.0632 -0.524753 0)
(11.1977 -0.689148 0)
(11.3207 -0.906344 0)
(10.003 0.0123661 0)
(10.0232 0.0263315 0)
(10.0536 0.0279556 0)
(10.0883 0.0238893 0)
(10.1275 0.0158308 0)
(10.1728 0.00259316 0)
(10.2241 -0.0162479 0)
(10.2808 -0.0406686 0)
(10.3432 -0.0711611 0)
(10.4117 -0.108539 0)
(10.4871 -0.153798 0)
(10.5699 -0.208766 0)
(10.6607 -0.275879 0)
(10.7596 -0.358652 0)
(10.8658 -0.461955 0)
(10.9762 -0.592241 0)
(11.0845 -0.755927 0)
(11.1769 -0.960906 0)
(10.0024 0.008477 0)
(10.0194 0.018151 0)
(10.047 0.0176024 0)
(10.0799 0.0110182 0)
(10.1174 0.000208225 0)
(10.1605 -0.0156583 0)
(10.2091 -0.0372021 0)
(10.263 -0.0646809 0)
(10.3219 -0.0986216 0)
(10.3864 -0.139868 0)
(10.4566 -0.189565 0)
(10.5328 -0.249452 0)
(10.6151 -0.321864 0)
(10.7027 -0.409912 0)
(10.794 -0.517533 0)
(10.8852 -0.649398 0)
(10.9701 -0.809206 0)
(11.0376 -1.00073 0)
(10.0019 0.0051002 0)
(10.0164 0.0103042 0)
(10.0413 0.00722992 0)
(10.0722 -0.0018772 0)
(10.1077 -0.0155031 0)
(10.1483 -0.0342237 0)
(10.1941 -0.0587375 0)
(10.2447 -0.0894106 0)
(10.2998 -0.12681 0)
(10.3595 -0.171798 0)
(10.424 -0.225563 0)
(10.493 -0.289722 0)
(10.566 -0.366374 0)
(10.6419 -0.458114 0)
(10.7184 -0.5679 0)
(10.7916 -0.698797 0)
(10.8561 -0.852486 0)
(10.9031 -1.03017 0)
(10.0016 0.00210196 0)
(10.014 0.00281676 0)
(10.0364 -0.00311447 0)
(10.0651 -0.0148655 0)
(10.0984 -0.0313527 0)
(10.1363 -0.0529514 0)
(10.1789 -0.0803529 0)
(10.2258 -0.114032 0)
(10.2766 -0.15459 0)
(10.3312 -0.202911 0)
(10.3893 -0.260132 0)
(10.4505 -0.327696 0)
(10.5138 -0.407368 0)
(10.5778 -0.501163 0)
(10.6401 -0.611114 0)
(10.6969 -0.738979 0)
(10.7436 -0.885062 0)
(10.7738 -1.04913 0)
(10.0013 -0.000573161 0)
(10.0121 -0.00425438 0)
(10.0321 -0.0132835 0)
(10.0584 -0.0277711 0)
(10.0892 -0.0470864 0)
(10.1243 -0.0715055 0)
(10.1634 -0.101691 0)
(10.2063 -0.138203 0)
(10.2524 -0.181638 0)
(10.3013 -0.232865 0)
(10.3526 -0.292894 0)
(10.4055 -0.362949 0)
(10.459 -0.444413 0)
(10.5113 -0.538722 0)
(10.56 -0.647111 0)
(10.6019 -0.770359 0)
(10.6333 -0.907905 0)
(10.6495 -1.05882 0)
(10.0012 -0.00281729 0)
(10.0106 -0.0104175 0)
(10.0285 -0.0224108 0)
(10.0526 -0.0394569 0)
(10.0809 -0.0613141 0)
(10.1131 -0.0882392 0)
(10.1488 -0.120853 0)
(10.1877 -0.159748 0)
(10.2291 -0.205506 0)
(10.2725 -0.258925 0)
(10.3172 -0.320876 0)
(10.3624 -0.392356 0)
(10.4068 -0.474388 0)
(10.4487 -0.567921 0)
(10.4858 -0.67359 0)
(10.5154 -0.791517 0)
(10.5346 -0.920677 0)
(10.5398 -1.05989 0)
(10.001 -0.00486021 0)
(10.0092 -0.016173 0)
(10.0252 -0.03114 0)
(10.047 -0.0507256 0)
(10.0728 -0.0750092 0)
(10.1019 -0.104278 0)
(10.1341 -0.139106 0)
(10.1687 -0.180079 0)
(10.2052 -0.227764 0)
(10.2429 -0.282823 0)
(10.281 -0.346007 0)
(10.3185 -0.418078 0)
(10.354 -0.499718 0)
(10.3861 -0.591453 0)
(10.4125 -0.693461 0)
(10.4312 -0.80543 0)
(10.4397 -0.926101 0)
(10.4357 -1.05426 0)
(10.0009 -0.00700008 0)
(10.0079 -0.0223029 0)
(10.0217 -0.0405999 0)
(10.0408 -0.0630249 0)
(10.0635 -0.0899285 0)
(10.089 -0.121652 0)
(10.1168 -0.158717 0)
(10.1465 -0.201668 0)
(10.1772 -0.251018 0)
(10.2082 -0.307286 0)
(10.2385 -0.371048 0)
(10.2673 -0.442801 0)
(10.2932 -0.522908 0)
(10.3146 -0.611495 0)
(10.3301 -0.708356 0)
(10.3377 -0.812876 0)
(10.336 -0.923709 0)
(10.323 -1.03975 0)
(10.0007 -0.00918458 0)
(10.0065 -0.0286253 0)
(10.018 -0.0504807 0)
(10.034 -0.0759343 0)
(10.053 -0.10552 0)
(10.0742 -0.13963 0)
(10.097 -0.178731 0)
(10.1207 -0.223294 0)
(10.1447 -0.273738 0)
(10.168 -0.330445 0)
(10.1898 -0.393741 0)
(10.2091 -0.463859 0)
(10.2247 -0.540887 0)
(10.2353 -0.624661 0)
(10.2398 -0.714694 0)
(10.2368 -0.810203 0)
(10.2254 -0.909889 0)
(10.2042 -1.01286 0)
(10.0006 -0.0113251 0)
(10.0051 -0.0348507 0)
(10.0141 -0.0602722 0)
(10.0267 -0.0887273 0)
(10.0414 -0.120835 0)
(10.0576 -0.15701 0)
(10.0746 -0.197655 0)
(10.0916 -0.243138 0)
(10.108 -0.293755 0)
(10.1229 -0.349716 0)
(10.1355 -0.411146 0)
(10.1449 -0.47806 0)
(10.1501 -0.550257 0)
(10.1502 -0.627369 0)
(10.1443 -0.708819 0)
(10.1315 -0.793805 0)
(10.1113 -0.88117 0)
(10.083 -0.970244 0)
(10.0004 -0.0132833 0)
(10.0037 -0.0405388 0)
(10.01 -0.0691922 0)
(10.0188 -0.100259 0)
(10.0289 -0.13435 0)
(10.0395 -0.171864 0)
(10.0501 -0.213125 0)
(10.0599 -0.258386 0)
(10.0682 -0.307807 0)
(10.0744 -0.361444 0)
(10.0776 -0.419243 0)
(10.0772 -0.481028 0)
(10.0725 -0.546495 0)
(10.0628 -0.615197 0)
(10.0476 -0.686465 0)
(10.0263 -0.759553 0)
(9.99888 -0.833554 0)
(9.96476 -0.908032 0)
(10.0002 -0.0148608 0)
(10.0022 -0.0450958 0)
(10.0059 -0.0762387 0)
(10.0107 -0.109113 0)
(10.0159 -0.144243 0)
(10.0208 -0.181967 0)
(10.0247 -0.222516 0)
(10.0272 -0.266028 0)
(10.0275 -0.312539 0)
(10.0251 -0.36198 0)
(10.0195 -0.414182 0)
(10.0102 -0.468875 0)
(9.9967 -0.525686 0)
(9.97863 -0.584154 0)
(9.95574 -0.643742 0)
(9.92779 -0.703859 0)
(9.89488 -0.763771 0)
(9.85668 -0.823214 0)
(10.0001 -0.0157861 0)
(10.0007 -0.0476343 0)
(10.0018 -0.0798259 0)
(10.0029 -0.112965 0)
(10.0034 -0.147471 0)
(10.0027 -0.183611 0)
(10.0004 -0.221532 0)
(9.99596 -0.261284 0)
(9.98905 -0.302819 0)
(9.97925 -0.346005 0)
(9.96621 -0.390628 0)
(9.94964 -0.436406 0)
(9.92932 -0.482995 0)
(9.9051 -0.530007 0)
(9.87691 -0.577011 0)
(9.84473 -0.623582 0)
(9.80876 -0.669218 0)
(9.76878 -0.713793 0)
(9.99999 -0.0160194 0)
(9.99986 -0.0480484 0)
(9.99942 -0.0798286 0)
(9.99819 -0.111796 0)
(9.99562 -0.144329 0)
(9.9913 -0.177677 0)
(9.98491 -0.211949 0)
(9.97615 -0.247145 0)
(9.96474 -0.283191 0)
(9.95044 -0.319944 0)
(9.93304 -0.357199 0)
(9.91242 -0.394705 0)
(9.88847 -0.432178 0)
(9.86117 -0.469318 0)
(9.83055 -0.505811 0)
(9.79666 -0.541367 0)
(9.75977 -0.57565 0)
(9.71973 -0.608598 0)
(9.99996 -0.0159145 0)
(9.9996 -0.0474776 0)
(9.99853 -0.0782415 0)
(9.99614 -0.108553 0)
(9.99192 -0.138854 0)
(9.98557 -0.16943 0)
(9.97692 -0.200378 0)
(9.96577 -0.231686 0)
(9.95194 -0.263283 0)
(9.9353 -0.295029 0)
(9.91575 -0.326731 0)
(9.89323 -0.35816 0)
(9.86774 -0.389072 0)
(9.83929 -0.419225 0)
(9.80797 -0.448377 0)
(9.77387 -0.476318 0)
(9.73725 -0.502817 0)
(9.69799 -0.52785 0)
(9.99999 -0.0158113 0)
(9.99975 -0.0468348 0)
(9.99867 -0.0763676 0)
(9.99585 -0.104812 0)
(9.99072 -0.132812 0)
(9.98317 -0.160697 0)
(9.97316 -0.188526 0)
(9.9606 -0.216289 0)
(9.94538 -0.243935 0)
(9.92746 -0.271343 0)
(9.90684 -0.298332 0)
(9.88352 -0.324696 0)
(9.85753 -0.350221 0)
(9.82891 -0.374706 0)
(9.79776 -0.397964 0)
(9.76419 -0.419841 0)
(9.72842 -0.440184 0)
(9.69037 -0.458988 0)
(10.0001 -0.0159064 0)
(10.0004 -0.0465554 0)
(9.99989 -0.0746973 0)
(9.99713 -0.101091 0)
(9.99156 -0.126794 0)
(9.98335 -0.152191 0)
(9.97263 -0.17729 0)
(9.95933 -0.202072 0)
(9.94341 -0.226489 0)
(9.92491 -0.250412 0)
(9.9039 -0.273648 0)
(9.88042 -0.295995 0)
(9.85453 -0.317256 0)
(9.82628 -0.337253 0)
(9.79578 -0.355836 0)
(9.76311 -0.372891 0)
(9.72848 -0.388325 0)
(9.69179 -0.402151 0)
(10.0003 -0.0163776 0)
(10.0017 -0.04696 0)
(10.0024 -0.0736237 0)
(10 -0.0978823 0)
(9.99416 -0.121224 0)
(9.98552 -0.144014 0)
(9.97435 -0.166292 0)
(9.9606 -0.188144 0)
(9.94431 -0.20957 0)
(9.9256 -0.230422 0)
(9.90458 -0.250482 0)
(9.88132 -0.269528 0)
(9.85587 -0.287354 0)
(9.82829 -0.303781 0)
(9.79864 -0.318664 0)
(9.767 -0.331905 0)
(9.73353 -0.343448 0)
(9.69812 -0.353304 0)
(10.0006 -0.0174295 0)
(10.0039 -0.0480209 0)
(10.0063 -0.0729961 0)
(10.0045 -0.0956443 0)
(9.99877 -0.117654 0)
(9.99006 -0.138895 0)
(9.97868 -0.159284 0)
(9.96459 -0.179007 0)
(9.94791 -0.198114 0)
(9.92889 -0.216466 0)
(9.9077 -0.233844 0)
(9.88441 -0.250028 0)
(9.8591 -0.264815 0)
(9.83183 -0.278036 0)
(9.80268 -0.289567 0)
(9.77172 -0.299331 0)
(9.7391 -0.307315 0)
(9.70473 -0.313493 0)
(10.0013 -0.0195506 0)
(10.0073 -0.0499604 0)
(10.0114 -0.0711801 0)
(10.0097 -0.0900326 0)
(10.0035 -0.109029 0)
(9.99456 -0.127719 0)
(9.98288 -0.145912 0)
(9.96838 -0.163723 0)
(9.95138 -0.181088 0)
(9.93232 -0.197777 0)
(9.91152 -0.213512 0)
(9.88921 -0.228016 0)
(9.86556 -0.241035 0)
(9.84073 -0.252365 0)
(9.81484 -0.261871 0)
(9.78793 -0.269476 0)
(9.76017 -0.275197 0)
(9.73121 -0.27889 0)
(10.0026 -0.0228385 0)
(10.0135 -0.0570679 0)
(10.0205 -0.0795616 0)
(10.0191 -0.0985115 0)
(10.0133 -0.116122 0)
(10.0058 -0.132312 0)
(9.99714 -0.147613 0)
(9.98744 -0.162499 0)
(9.97746 -0.177011 0)
(9.96785 -0.190981 0)
(9.95903 -0.204196 0)
(9.95117 -0.216436 0)
(9.94418 -0.227459 0)
(9.93779 -0.237026 0)
(9.93157 -0.244949 0)
(9.92495 -0.251126 0)
(9.9177 -0.255486 0)
(9.90845 -0.257981 0)
(10.0042 -0.021598 0)
(10.0256 -0.0431207 0)
(10.0476 -0.0579678 0)
(10.0664 -0.0760581 0)
(10.0873 -0.0953279 0)
(10.112 -0.114208 0)
(10.1391 -0.132956 0)
(10.1674 -0.151785 0)
(10.1961 -0.170476 0)
(10.2239 -0.188596 0)
(10.2493 -0.205674 0)
(10.2707 -0.221218 0)
(10.2866 -0.234746 0)
(10.2957 -0.245864 0)
(10.2973 -0.254296 0)
(10.2908 -0.260007 0)
(10.2765 -0.262918 0)
(10.2545 -0.263652 0)
(10.0581 -0.0572807 0)
(10.1973 -0.0952333 0)
(10.3137 -0.10993 0)
(10.4006 -0.12576 0)
(10.4599 -0.141725 0)
(10.4904 -0.156414 0)
(10.4906 -0.170338 0)
(10.461 -0.18378 0)
(10.4031 -0.196529 0)
(10.319 -0.208172 0)
(10.2109 -0.218236 0)
(10.0818 -0.22628 0)
(9.93496 -0.231952 0)
(9.77403 -0.235047 0)
(9.60277 -0.235494 0)
(9.42501 -0.233469 0)
(9.24375 -0.229087 0)
(9.06372 -0.2232 0)
(9.86671 -0.0509884 0)
(9.55447 -0.0895424 0)
(9.18248 -0.103717 0)
(8.77284 -0.11292 0)
(8.34781 -0.118819 0)
(7.91677 -0.121735 0)
(7.4831 -0.122677 0)
(7.05 -0.122199 0)
(6.62099 -0.120444 0)
(6.19941 -0.117419 0)
(5.78846 -0.11308 0)
(5.39143 -0.107432 0)
(5.01153 -0.10057 0)
(4.65172 -0.0926893 0)
(4.31433 -0.0840586 0)
(4.00126 -0.0750284 0)
(3.7125 -0.0659007 0)
(3.45157 -0.0571797 0)
(-0.210563 0.527355 1.02341e-20)
(-0.673029 0.618609 -9.94297e-21)
(-1.20129 0.623136 0)
(-1.69086 0.516316 0)
(-2.07288 0.305051 0)
(-2.25752 0.0278295 8.87745e-21)
(-2.1655 -0.253426 0)
(-1.85497 -0.498731 0)
(-1.35761 -0.686691 0)
(-0.735563 -0.804352 0)
(-0.0494011 -0.854489 -1.08157e-20)
(0.655654 -0.856082 0)
(1.35115 -0.827982 0)
(2.02279 -0.785552 0)
(2.66452 -0.739245 0)
(3.27722 -0.694659 -9.96025e-21)
(3.86549 -0.653989 0)
(4.4346 -0.617325 0)
(4.9886 -0.58353 0)
(5.52944 -0.550795 0)
(6.05667 -0.516985 0)
(6.56734 -0.479856 0)
(7.05601 -0.43707 0)
(7.51481 -0.386123 -6.25584e-21)
(7.93302 -0.324279 5.68224e-21)
(8.29849 -0.247167 -5.12968e-21)
(8.59202 -0.149928 -4.62224e-21)
(8.79752 -0.0241304 0)
(8.9024 0.150325 0)
(8.83224 0.370196 3.59654e-21)
(8.56633 0.616182 3.47151e-21)
(8.09392 0.859086 0)
(7.40939 1.06853 0)
(6.52305 1.20936 3.52198e-21)
(5.47137 1.24177 0)
(4.30818 1.13439 0)
(3.11322 0.813905 -2.95909e-21)
(2.09714 0.201809 0)
(1.4235 -0.373432 -2.28315e-21)
(1.00567 -0.445197 -4.39323e-21)
(0.737455 -0.140536 0)
(0.542595 0.150214 0)
(0.29779 0.274121 0)
(-0.11401 0.292197 0)
(-0.621687 0.257725 0)
(-1.05306 0.147199 -6.69605e-22)
(-1.26585 -0.0445713 -1.88288e-22)
(-1.17856 -0.307548 -2.9257e-22)
(-0.78107 -0.603656 0)
(0.0158528 -0.867458 2.28166e-21)
(1.14313 -1.01402 0)
(2.36762 -0.926874 -3.85336e-21)
(3.45907 -0.505813 -3.5231e-21)
(4.0664 0.215095 0)
(3.79474 0.74109 0)
(3.06542 0.645253 0)
(2.50366 0.0956724 -2.57116e-21)
(2.36344 -0.350512 0)
(2.53257 -0.47821 0)
(2.77625 -0.411024 0)
(2.83903 -0.32175 0)
(2.63123 -0.22775 0)
(2.18112 -0.0623218 0)
(1.48709 0.175439 0)
(0.560137 0.427449 0)
(-0.54346 0.639613 -6.29504e-22)
(-1.75177 0.78768 0)
(-2.9969 0.867641 0)
(-4.21984 0.885321 5.31254e-21)
(-5.37436 0.853202 7.06633e-21)
(-6.42691 0.785761 0)
(-7.35475 0.694982 -1.02757e-20)
(-8.14532 0.59054 1.15807e-20)
(-8.79376 0.480395 0)
(-9.30095 0.371298 -1.33736e-20)
(-9.67161 0.267352 0)
(-9.91237 0.171051 0)
(-10.0287 0.087514 1.38547e-20)
(-10.0288 0.0212551 0)
(-9.9434 -0.0306951 -1.27438e-20)
(-9.77756 -0.0755648 0)
(-9.53872 -0.115924 1.06487e-20)
(-9.23083 -0.153332 9.29347e-21)
(-8.85732 -0.188286 7.76733e-21)
(-8.42098 -0.220985 1.21945e-20)
(-7.92463 -0.251378 -8.62389e-21)
(-7.37153 -0.279235 0)
(-6.76576 -0.304278 0)
(-6.11263 -0.325803 0)
(-5.41912 -0.342985 6.61735e-21)
(-4.69411 -0.354965 1.02697e-20)
(-3.94829 -0.360937 -1.36858e-20)
(-3.19391 -0.360244 0)
(-2.44406 -0.352416 1.951e-20)
(-1.71175 -0.337382 2.18146e-20)
(-1.0091 -0.31613 2.36859e-20)
(-0.346225 -0.29174 0)
(0.268508 -0.267584 0)
(0.834273 -0.240656 0)
(1.349 -0.210557 2.61974e-20)
(1.80669 -0.178179 0)
(2.20656 -0.145534 0)
(2.54967 -0.113704 -2.51963e-20)
(2.83788 -0.0831764 0)
(3.07405 -0.054872 0)
(3.2617 -0.0294066 -2.34788e-20)
(3.40467 -0.00694306 0)
(3.5066 0.0124354 0)
(3.57147 0.0290248 2.16553e-20)
(3.60249 0.0443732 2.10717e-20)
(3.59785 0.0586662 0)
(3.56586 0.0672201 -1.99481e-20)
(3.5147 0.0684496 0)
(3.45098 0.0643692 1.89198e-20)
(3.38031 0.0571905 0)
(3.3062 0.0487247 1.80007e-20)
(3.23015 0.0401164 1.75824e-20)
(3.1523 0.0320804 0)
(3.07222 0.0252666 0)
(2.99031 0.0198196 0)
(2.9072 0.015588 0)
(2.82388 0.0123865 0)
(2.74205 0.00976998 0)
(2.66426 0.00706368 0)
(2.59368 0.00383481 1.50932e-20)
(2.5331 0.000334045 -1.48694e-20)
(2.48386 -0.00262696 0)
(2.44538 -0.00431202 0)
(2.41578 -0.00460615 0)
(2.39288 -0.00401873 0)
(2.37507 -0.00324735 -2.78959e-20)
(2.36165 -0.00268411 0)
(2.35266 -0.00239814 2.72821e-20)
(2.34851 -0.00233948 -2.69994e-20)
(2.34952 -0.00246064 0)
(2.35608 -0.00268484 0)
(2.36809 -0.00286453 0)
(2.38504 -0.00303216 2.60387e-20)
(2.40605 -0.00307343 2.58375e-20)
(2.43003 -0.00289694 0)
(2.45584 -0.00241699 2.54723e-20)
(2.48232 -0.00153225 2.53065e-20)
(2.5081 7.31832e-06 -2.51515e-20)
(2.53118 0.00268782 0)
(2.54876 0.00709506 0)
(2.5569 0.0129956 -2.47502e-20)
(2.55298 0.0180106 0)
(2.53993 0.0195189 0)
(2.52222 0.0177271 0)
(2.50304 0.0147497 0)
(2.48244 0.012604 2.43894e-20)
(2.45759 0.0119059 2.44121e-20)
(2.42393 0.0121888 0)
(2.37616 0.0133534 2.45657e-20)
(2.30821 0.016706 0)
(2.21559 0.0214706 0)
(2.10434 0.0210606 2.50178e-20)
(1.99967 0.00745911 0)
(1.94071 -0.0199537 2.55107e-20)
(1.95997 -0.0556572 0)
(2.08548 -0.0897328 0)
(2.3271 -0.109632 2.6853e-20)
(2.64611 -0.105189 0)
(2.92338 -0.0833167 2.73319e-20)
(2.90549 -0.0480849 0)
(2.20273 0.112277 0)
(0.384552 0.463324 0)
(-2.11025 0.684114 -1.14988e-20)
(-4.4719 0.641309 0)
(-6.22941 0.447963 -5.16779e-21)
(-7.20306 0.217029 0)
(-7.42996 0.0229122 0)
(-7.06425 -0.117298 0)
(-6.2884 -0.2148 0)
(-5.18135 -0.285733 0)
(-3.83888 -0.330438 0)
(-2.36211 -0.347306 0)
(-0.861709 -0.33669 -7.19048e-20)
(0.633047 -0.289936 0)
(1.81611 -0.224198 0)
(-0.0395688 1.28297 -2.99332e-20)
(-0.26228 1.40564 2.93023e-20)
(-0.489957 1.36428 0)
(-0.610289 1.12383 -1.8426e-20)
(-0.620255 0.69051 0)
(-0.437953 0.10248 -9.3206e-21)
(-0.165757 -0.597304 1.85145e-20)
(0.263365 -1.23459 1.88275e-20)
(0.747506 -1.70006 0)
(1.22623 -1.96476 1.91798e-20)
(1.682 -2.05803 1.0272e-20)
(2.11009 -2.0361 0)
(2.51343 -1.95268 0)
(2.90033 -1.84772 0)
(3.28113 -1.7454 0)
(3.66542 -1.65722 9.73448e-21)
(4.06075 -1.58628 0)
(4.47229 -1.5306 -1.72234e-20)
(4.9026 -1.48544 0)
(5.35165 -1.44461 0)
(5.81696 -1.40149 1.49216e-20)
(6.29392 -1.34956 0)
(6.77613 -1.28272 -1.28362e-20)
(7.2559 -1.19541 6.22045e-21)
(7.72531 -1.0825 -5.64858e-21)
(8.17541 -0.938615 5.09541e-21)
(8.60203 -0.75804 4.58477e-21)
(8.99667 -0.534388 0)
(9.34645 -0.256387 0)
(9.6941 0.0834232 -3.52423e-21)
(10.0131 0.485055 1.287e-21)
(10.2621 0.937964 0)
(10.4004 1.42101 0)
(10.3796 1.89899 -3.2318e-21)
(10.1538 2.31989 0)
(9.68943 2.6219 0)
(8.96415 2.72754 2.59175e-21)
(7.99178 2.56486 0)
(6.77051 2.16524 -1.35212e-21)
(5.32404 1.61197 3.9542e-21)
(3.92561 1.0011 0)
(2.86337 0.607361 0)
(2.10682 0.70551 5.57263e-21)
(1.51083 1.00726 3.97296e-21)
(0.998624 1.0568 1.83423e-21)
(0.573515 0.755895 9.09257e-22)
(0.257568 0.219229 1.91427e-22)
(0.112254 -0.475631 -1.44463e-21)
(0.25422 -1.27797 6.46335e-22)
(0.718725 -2.07507 -2.23086e-21)
(1.4862 -2.60253 0)
(2.42941 -2.53519 3.77269e-21)
(3.29473 -1.845 -1.53005e-21)
(3.97667 -0.695489 0)
(4.41137 0.484757 0)
(4.33262 1.06768 0)
(3.98621 0.922264 2.49244e-21)
(3.65492 0.337396 0)
(3.2797 -0.147025 -5.48684e-21)
(2.66037 -0.0310857 0)
(1.72543 0.545505 -4.55575e-21)
(0.471268 1.13888 0)
(-0.994783 1.63556 2.69332e-21)
(-2.55229 2.02852 0)
(-4.09732 2.28768 1.09775e-21)
(-5.5452 2.402 -3.10276e-21)
(-6.83755 2.38367 0)
(-7.94188 2.25874 -9.86342e-21)
(-8.84778 2.05875 -4.87107e-21)
(-9.56186 1.81425 -6.54758e-21)
(-10.1025 1.55049 0)
(-10.4939 1.28538 -1.27479e-20)
(-10.7617 1.0303 -1.10771e-20)
(-10.9294 0.791533 0)
(-11.0175 0.571407 1.30041e-20)
(-11.0415 0.369726 -2.90084e-20)
(-11.0129 0.186117 0)
(-10.9409 0.0215437 -1.3661e-20)
(-10.8284 -0.124011 0)
(-10.6547 -0.253095 3.88967e-20)
(-10.4194 -0.370686 0)
(-10.1212 -0.479398 -3.25388e-20)
(-9.76149 -0.581085 -9.16717e-21)
(-9.34141 -0.676602 8.61512e-21)
(-8.86254 -0.766197 1.38964e-20)
(-8.32662 -0.849534 -1.03411e-20)
(-7.73572 -0.925738 0)
(-7.0931 -0.993398 0)
(-6.40366 -1.05056 0)
(-5.67385 -1.09484 -1.80053e-20)
(-4.91226 -1.12381 -1.01223e-20)
(-4.1295 -1.13537 1.34941e-20)
(-3.33766 -1.12816 0)
(-2.54962 -1.10174 1.83175e-20)
(-1.77767 -1.05701 -2.15618e-20)
(-1.03257 -0.99661 -2.34457e-20)
(-0.324105 -0.925429 0)
(0.338103 -0.8513 0)
(0.949407 -0.772842 0)
(1.50817 -0.692012 -2.59685e-20)
(2.0139 -0.610666 0)
(2.46785 -0.53125 5.06463e-20)
(2.87195 -0.455455 7.4735e-20)
(3.22963 -0.384244 -4.87273e-20)
(3.54433 -0.31823 0)
(3.81868 -0.257596 -2.31415e-20)
(4.05495 -0.202232 0)
(4.25547 -0.151952 -4.39707e-20)
(4.42225 -0.106481 2.13392e-20)
(4.55763 -0.0649452 2.07514e-20)
(4.66946 -0.0268339 0)
(4.75704 0.00581413 5.90106e-20)
(4.81779 0.031695 -3.82413e-20)
(4.85099 0.0513314 -1.86327e-20)
(4.85841 0.0657101 0)
(4.84354 0.0764536 -1.76942e-20)
(4.81047 0.0849885 -5.17762e-20)
(4.76391 0.0918736 0)
(4.7087 0.0973693 -3.29798e-20)
(4.6484 0.101535 -3.22948e-20)
(4.58567 0.103995 -3.16582e-20)
(4.52255 0.104204 0)
(4.46039 0.101539 0)
(4.39979 0.0955437 0)
(4.34076 0.0863047 1.47652e-20)
(4.28309 0.0746846 1.45641e-20)
(4.22676 0.0621426 0)
(4.17218 0.0501885 2.8354e-20)
(4.11996 0.0398171 2.80107e-20)
(4.07074 0.0312486 0)
(4.02509 0.0240082 2.73826e-20)
(3.9838 0.0172961 5.41683e-20)
(3.94808 0.0104729 -2.68085e-20)
(3.91955 0.00331317 -2.65366e-20)
(3.89999 -0.00406263 0)
(3.89026 -0.01131 0)
(3.88997 -0.0180123 0)
(3.89843 -0.0235721 -2.56342e-20)
(3.91466 -0.0277411 2.54247e-20)
(3.93733 -0.0305533 5.05004e-20)
(3.965 -0.0321222 -2.5089e-20)
(3.9963 -0.0324723 2.49051e-20)
(4.03001 -0.0314425 2.47792e-20)
(4.06522 -0.0286922 0)
(4.10134 -0.0238379 0)
(4.13861 -0.0169593 -2.43456e-20)
(4.17788 -0.00934137 0)
(4.21743 -0.00281781 0)
(4.25492 0.00200845 4.80995e-20)
(4.28844 0.00598793 0)
(4.31675 0.0109952 2.39404e-20)
(4.33837 0.0187866 -2.40044e-20)
(4.35002 0.0312344 0)
(4.34613 0.0489945 2.40543e-20)
(4.31923 0.0706364 0)
(4.26174 0.0904253 0)
(4.16998 0.0978328 -2.45511e-20)
(4.04926 0.0820979 4.95409e-20)
(3.91545 0.0400003 -2.50721e-20)
(3.79368 -0.0260349 0)
(3.72106 -0.110271 0)
(3.74967 -0.194495 2.66135e-20)
(3.86286 -0.209561 0)
(3.8337 -0.0418695 2.72844e-20)
(3.07107 0.445588 0)
(0.743946 1.24295 0)
(-2.49088 1.84037 0)
(-5.20934 1.8337 1.10426e-20)
(-6.89766 1.40309 0)
(-7.67606 0.84654 5.07466e-21)
(-7.85553 0.326386 0)
(-7.65185 -0.0998001 0)
(-7.11452 -0.435739 -9.44342e-21)
(-6.20304 -0.691452 -5.40363e-21)
(-4.99512 -0.87879 0)
(-3.56786 -0.996029 0)
(-2.01266 -1.04274 0)
(-0.430077 -1.02518 2.11046e-19)
(1.1535 -0.938871 0)
(2.52631 -0.774847 -1.61302e-19)
(0.128811 1.21428 4.49789e-22)
(0.223124 1.59904 -3.8318e-20)
(0.283535 1.44858 0)
(0.384247 0.985709 3.73344e-20)
(0.558871 0.281561 0)
(0.843441 -0.584008 0)
(1.16942 -1.43162 3.85521e-22)
(1.42444 -2.07643 -1.80742e-20)
(1.57394 -2.4354 -1.80753e-20)
(1.63772 -2.54125 -1.88207e-20)
(1.65632 -2.48814 0)
(1.67036 -2.36925 0)
(1.71071 -2.24758 1.80059e-20)
(1.79687 -2.15471 3.58022e-20)
(1.93888 -2.10047 -3.54643e-20)
(2.14029 -2.08251 0)
(2.40083 -2.09248 -3.4254e-20)
(2.71786 -2.1195 1.77673e-20)
(3.08702 -2.15192 0)
(3.50233 -2.17834 -3.06066e-20)
(3.95635 -2.18826 -1.53746e-20)
(4.44043 -2.17258 2.68009e-20)
(4.94504 -2.1239 1.31973e-20)
(5.4602 -2.03663 0)
(5.976 -1.90684 -1.95607e-20)
(6.48299 -1.73242 -1.69785e-20)
(6.97246 -1.51195 0)
(7.43703 -1.24597 -1.20171e-20)
(7.87047 -0.939429 0)
(8.27037 -0.586371 -7.81058e-21)
(8.65455 -0.17233 -4.77653e-21)
(9.04243 0.318109 0)
(9.43712 0.888276 0)
(9.8283 1.52409 0)
(10.1817 2.18966 0)
(10.4385 2.8268 0)
(10.5197 3.35816 0)
(10.3375 3.70809 -2.26337e-21)
(9.82091 3.8372 5.92964e-21)
(8.94828 3.72863 0)
(7.78891 3.37049 0)
(6.46016 2.82237 0)
(5.11873 2.26912 -1.76766e-21)
(4.02322 1.90504 -3.7211e-21)
(3.28755 1.66541 -2.35853e-21)
(2.77511 1.30728 -1.27073e-21)
(2.36929 0.701083 -2.14169e-21)
(2.05342 -0.175574 1.68044e-21)
(1.87826 -1.28753 9.31949e-22)
(1.9043 -2.52237 -2.01996e-22)
(2.16836 -3.47549 0)
(2.61491 -3.52834 -3.90265e-21)
(3.03726 -2.59535 1.00691e-21)
(3.24569 -1.14662 0)
(3.33865 0.327219 0)
(3.32199 1.18406 3.95408e-21)
(3.16648 1.06223 0)
(2.71341 0.633773 0)
(1.63668 0.935615 -5.35823e-21)
(0.0867583 1.80699 -9.40002e-21)
(-1.5781 2.63647 4.42206e-21)
(-3.23039 3.28343 0)
(-4.7668 3.71468 -2.46496e-21)
(-6.11443 3.92613 0)
(-7.23179 3.9315 1.01327e-20)
(-8.11496 3.76401 3.47045e-21)
(-8.78811 3.46914 -2.33942e-20)
(-9.29191 3.09518 -2.0209e-20)
(-9.67141 2.68521 0)
(-9.96639 2.27204 4.20433e-20)
(-10.2061 1.87695 0)
(-10.408 1.51127 7.48096e-20)
(-10.5787 1.17873 5.64505e-20)
(-10.7169 0.878042 5.96099e-20)
(-10.8165 0.605743 -6.17814e-20)
(-10.8697 0.357726 9.19792e-20)
(-10.8701 0.129366 0)
(-10.8145 -0.0836491 0)
(-10.6993 -0.286302 -5.94048e-20)
(-10.5241 -0.479094 -8.24329e-20)
(-10.2911 -0.661026 0)
(-10.0012 -0.832928 2.19696e-20)
(-9.6549 -0.995734 0)
(-9.25265 -1.1503 -5.16258e-20)
(-8.79462 -1.29689 2.9988e-21)
(-8.28101 -1.43496 -2.96343e-21)
(-7.71231 -1.5629 1.42532e-20)
(-7.08987 -1.67785 0)
(-6.41681 -1.77619 1.11105e-21)
(-5.69851 -1.85356 2.5735e-21)
(-4.94287 -1.90546 0)
(-4.16055 -1.92799 0)
(-3.36452 -1.91917 0)
(-2.56911 -1.87862 -3.71502e-20)
(-1.78817 -1.80826 0)
(-1.034 -1.71234 0)
(-0.317776 -1.59701 0)
(0.351007 -1.46906 0)
(0.967694 -1.33368 0)
(1.52998 -1.19616 -5.07415e-20)
(2.03834 -1.06016 0)
(2.49519 -0.928888 -5.03466e-20)
(2.90379 -0.805279 -4.95017e-20)
(3.26825 -0.69083 4.8503e-20)
(3.5925 -0.585384 0)
(3.88007 -0.488371 4.62347e-20)
(4.13423 -0.399281 0)
(4.3579 -0.317647 4.38375e-20)
(4.55358 -0.243119 -4.26473e-20)
(4.72323 -0.176133 -1.24099e-19)
(4.86875 -0.11751 0)
(4.99167 -0.066073 -1.17446e-19)
(5.09437 -0.0210943 -3.79214e-20)
(5.17827 0.0172538 0)
(5.24342 0.049387 -7.21387e-20)
(5.29049 0.0753988 -7.03071e-20)
(5.32034 0.0954281 1.02975e-19)
(5.33424 0.109945 0)
(5.33414 0.119282 3.28094e-20)
(5.32226 0.123842 3.21027e-20)
(5.30109 0.124327 9.42737e-20)
(5.27305 0.121549 0)
(5.2402 0.116236 0)
(5.20402 0.108991 0)
(5.16537 0.100396 2.92719e-20)
(5.12468 0.0911686 0)
(5.08238 0.0821249 0)
(5.03908 0.0739251 -2.80767e-20)
(4.99564 0.0667845 -2.77339e-20)
(4.95297 0.0603802 0)
(4.91185 0.0539937 0)
(4.87292 0.0467138 -5.36329e-20)
(4.83678 0.0377019 0)
(4.80414 0.0266142 5.25697e-20)
(4.77575 0.0139875 5.20862e-20)
(4.75238 0.000941248 0)
(4.73489 -0.0116712 0)
(4.72374 -0.0229189 -5.08114e-20)
(4.71911 -0.0323676 -1.5437e-23)
(4.72086 -0.0397422 -2.09191e-23)
(4.7286 -0.044898 0)
(4.74179 -0.0478485 -9.88736e-20)
(4.7598 -0.0486357 0)
(4.78219 -0.0472224 0)
(4.80878 -0.0436569 0)
(4.83971 -0.0386382 4.83869e-20)
(4.87492 -0.0335109 0)
(4.91368 -0.0292991 -9.57887e-20)
(4.95445 -0.0261075 -4.77823e-20)
(4.99553 -0.0228193 0)
(5.03492 -0.017317 -4.76214e-20)
(5.07067 -0.00742798 0)
(5.09993 0.00830521 0)
(5.11988 0.0315507 -1.43334e-19)
(5.12797 0.0633707 9.58653e-20)
(5.11913 0.101049 0)
(5.0825 0.134183 9.71283e-20)
(5.00312 0.146254 -4.90939e-20)
(4.86858 0.122881 0)
(4.68191 0.0573112 0)
(4.48162 -0.0523823 0)
(4.32708 -0.174012 -1.59133e-19)
(4.17756 -0.14132 0)
(3.64682 0.371798 -5.41937e-20)
(1.83742 1.55449 0)
(-1.37213 2.80548 0)
(-4.16289 3.17417 0)
(-5.83797 2.68089 0)
(-6.71005 1.83779 0)
(-7.18782 1.00959 0)
(-7.3574 0.301813 5.29089e-20)
(-7.16072 -0.291861 0)
(-6.57379 -0.793568 9.41995e-21)
(-5.64012 -1.2013 9.62811e-21)
(-4.42114 -1.5069 0)
(-2.99088 -1.70318 0)
(-1.43415 -1.78759 -1.09724e-19)
(0.150326 -1.76853 -1.38416e-19)
(1.72472 -1.63957 1.50012e-19)
(3.12786 -1.39412 1.59135e-19)
(0.00817201 0.631877 5.73565e-20)
(0.0907724 1.15434 5.66698e-20)
(0.181548 1.08344 3.76338e-20)
(0.395766 0.580249 1.8837e-20)
(0.721852 -0.30334 0)
(0.996674 -1.21186 -3.66812e-20)
(1.07082 -1.84574 1.80528e-20)
(0.940966 -2.13266 0)
(0.686589 -2.17396 1.85142e-20)
(0.405008 -2.11674 0)
(0.170195 -2.06702 -3.55694e-20)
(0.0188147 -2.06833 0)
(-0.040311 -2.12214 -1.88193e-20)
(-0.0107396 -2.2158 -3.73995e-20)
(0.10007 -2.3367 3.69967e-20)
(0.284355 -2.47464 0)
(0.535551 -2.6204 3.56036e-20)
(0.848079 -2.76424 0)
(1.21687 -2.89552 0)
(1.63646 -3.00285 3.16312e-20)
(2.10024 -3.07536 0)
(2.60059 -3.10351 -2.47462e-21)
(3.12885 -3.0798 0)
(3.67553 -2.99924 0)
(4.23082 -2.85915 2.32568e-21)
(4.78513 -2.65885 1.73966e-20)
(5.32966 -2.39929 1.23526e-20)
(5.85714 -2.08251 1.22868e-20)
(6.36187 -1.71077 0)
(6.83914 -1.28706 1.29751e-20)
(7.28546 -0.817976 0)
(7.70262 -0.308569 1.29837e-21)
(8.1019 0.241582 0)
(8.50072 0.839213 0)
(8.91304 1.49114 1.98684e-21)
(9.33729 2.19322 0)
(9.74501 2.9187 -2.57164e-21)
(10.074 3.61659 4.63244e-21)
(10.2399 4.22324 -9.13132e-22)
(10.1574 4.66228 -2.24275e-21)
(9.75834 4.84524 0)
(9.01614 4.70809 0)
(7.98787 4.26799 -1.78503e-21)
(6.84895 3.63997 0)
(5.80639 2.93869 5.8958e-22)
(4.95683 2.18335 9.90079e-22)
(4.29366 1.3152 2.04336e-21)
(3.77829 0.288977 0)
(3.37909 -0.931276 -1.51948e-21)
(3.09687 -2.37916 1.97733e-22)
(2.95932 -3.63642 -6.62451e-21)
(2.92067 -3.81872 3.8672e-21)
(2.85178 -2.6754 3.99138e-21)
(2.62622 -0.952048 0)
(2.35248 0.505172 0)
(2.11785 1.27329 -4.02726e-21)
(1.59695 1.60588 0)
(0.379104 2.25092 0)
(-1.29463 3.22796 1.06276e-20)
(-3.00141 4.123 8.76604e-21)
(-4.54425 4.76898 0)
(-5.84643 5.14125 0)
(-6.87599 5.24381 0)
(-7.64398 5.11547 0)
(-8.1937 4.81375 -1.08802e-20)
(-8.58646 4.40162 2.81307e-20)
(-8.88364 3.93542 2.32153e-20)
(-9.13361 3.45713 7.00419e-20)
(-9.36544 2.99215 0)
(-9.58962 2.55175 9.42632e-21)
(-9.80349 2.13799 0)
(-9.99776 1.74861 -5.25907e-20)
(-10.1617 1.38048 7.5702e-21)
(-10.2862 1.03136 -5.99292e-20)
(-10.3652 0.700188 6.21726e-20)
(-10.3953 0.386466 5.9877e-21)
(-10.3738 0.0893226 0)
(-10.3008 -0.192473 6.72762e-20)
(-10.1792 -0.457741 5.9745e-20)
(-10.0089 -0.708853 1.17307e-19)
(-9.79052 -0.947134 0)
(-9.52456 -1.17402 -5.13679e-20)
(-9.21092 -1.39087 0)
(-8.84887 -1.59883 7.48031e-20)
(-8.43703 -1.7984 -2.87322e-20)
(-7.97354 -1.989 2.16161e-20)
(-7.4564 -2.16855 -1.41955e-20)
(-6.88421 -2.33306 -2.07704e-20)
(-6.257 -2.47683 -1.10305e-21)
(-5.57741 -2.59297 8.71073e-21)
(-4.85156 -2.6741 0)
(-4.08912 -2.71361 -4.01968e-20)
(-3.30363 -2.70705 0)