/*--------------------------------*- C++ -*----------------------------------*\
| =========                 |                                                 |
| \\      /  F ield         | OpenFOAM: The Open Source CFD Toolbox           |
|  \\    /   O peration     | Version:  2112                                  |
|   \\  /    A nd           | Website:  www.openfoam.com                      |
|    \\/     M anipulation  |                                                 |
\*---------------------------------------------------------------------------*/
FoamFile
{
    version     2.0;
    format      ascii;
    arch        "LSB;label=32;scalar=64";
    class       volScalarField;
    location    "0.12";
    object      ddt0(k);
}
// * * * * * * * * * * * * * * * * * * * * * * * * * * * * * * * * * * * * * //

dimensions      [0 2 -3 0 0 0 0];

internalField   nonuniform List<scalar> 
1580
(
-3.76197e-05
5.63018e-05
-7.72317e-05
0.000108209
-0.000139161
0.000173589
-0.000153221
7.56266e-05
-1.29754e-06
-2.30453e-06
-4.99949e-06
-5.19294e-06
-1.40912e-05
-0.000152796
0.000174091
-0.000577832
-9.40579e-07
-2.74408e-06
-4.49191e-06
-7.36524e-06
2.13788e-05
-0.000150129
0.000400243
-0.0011503
-5.68279e-07
-1.87744e-06
-3.50648e-06
-6.05802e-06
9.45362e-06
-0.000117596
0.000289921
-0.000988548
-1.57844e-07
-6.44127e-07
-1.61479e-06
-4.11158e-06
1.20956e-06
-9.83567e-05
0.000181057
-0.000864037
2.20259e-07
5.06367e-07
2.03722e-07
-2.55873e-06
-2.89746e-06
-9.15799e-05
0.000121609
-0.000827443
5.33386e-07
1.41843e-06
1.71219e-06
-2.81294e-06
-3.30791e-06
-9.35245e-05
0.000114259
-0.000861729
6.40447e-07
7.35797e-07
5.42585e-06
-1.52908e-05
1.11479e-05
-0.000104753
0.000165315
-0.000932153
7.25894e-06
-3.73402e-05
9.62537e-05
-0.000163518
0.0001939
-0.000120076
4.78553e-05
-8.45189e-05
0.00128619
-0.00193171
0.00267235
-0.00381282
0.00511572
-0.00667755
0.00754667
-0.00614978
-1.11965
-2.34992
-2.97317
-3.10153
-3.05626
-2.8893
-2.69112
-2.47702
-2.27894
-2.09852
-1.93982
-1.80199
-1.68252
-1.56458
-1.44841
-1.3464
-1.26138
-1.20242
-1.17581
-1.11862
-1.09081
-1.08423
-1.09135
-1.13096
-1.15868
-1.1819
-1.24232
-1.39427
-1.48457
-1.65295
-1.82659
-2.04844
-2.29662
-2.57546
-2.90118
-3.27731
-3.7074
-4.19792
-4.75871
-5.40163
-6.14138
-7.01124
-8.09173
-9.49838
-10.9992
-12.364
-13.5197
-14.601
-15.7953
-15.7449
-1.18912
-2.61665
-3.40443
-4.3129
-5.58016
-6.50997
-6.96348
-6.97368
-6.70676
-6.30005
-5.8396
-5.38146
-4.95033
-4.49835
-4.03053
-3.59076
-3.18497
-2.82686
-2.48791
-2.24428
-2.0203
-1.82535
-1.66354
-1.53563
-1.42371
-1.33423
-1.27573
-1.25042
-1.2456
-1.30205
-1.43447
-1.64582
-1.94846
-2.33043
-2.83561
-3.47758
-4.26261
-5.19407
-6.27365
-7.49454
-8.83382
-10.2645
-11.703
-13.0982
-14.8025
-16.6584
-18.4216
-19.8458
-21.1313
-22.1661
-1.11287
-2.54255
-3.75999
-5.23515
-6.95943
-8.11995
-8.6622
-8.66846
-8.35209
-7.87692
-7.33427
-6.79464
-6.28557
-5.74437
-5.18444
-4.65762
-4.19272
-3.7835
-3.36803
-3.00598
-2.68296
-2.39644
-2.15275
-1.9553
-1.75924
-1.58199
-1.40808
-1.26747
-1.09332
-0.93482
-0.834734
-0.775715
-0.763296
-0.806767
-0.955247
-1.22819
-1.64112
-2.2104
-2.952
-3.85895
-4.908
-6.0857
-7.37039
-8.81139
-10.2111
-11.728
-13.4415
-14.682
-14.923
-14.9417
-1.0665
-2.46705
-3.7178
-5.14905
-6.93639
-8.32335
-9.15292
-9.36735
-9.2108
-8.81667
-8.29357
-7.74696
-7.21531
-6.62878
-6.01254
-5.41007
-4.85904
-4.37703
-3.88791
-3.4492
-3.06091
-2.71606
-2.42532
-2.19032
-1.94959
-1.72996
-1.50244
-1.31712
-1.04485
-0.754527
-0.50913
-0.266736
-0.0432395
0.161725
0.304593
0.358692
0.300217
0.102282
-0.259149
-0.790288
-1.46188
-2.26215
-3.17272
-4.30638
-5.25454
-6.25163
-6.81589
-7.37214
-7.13124
-7.10497
-0.9764
-2.34414
-3.60404
-4.98176
-6.69919
-8.17222
-9.23303
-9.66912
-9.66509
-9.331
-8.83087
-8.29736
-7.76507
-7.16061
-6.51385
-5.85869
-5.24106
-4.697
-4.15942
-3.68115
-3.25998
-2.88468
-2.57121
-2.30584
-2.04746
-1.81905
-1.57141
-1.35629
-1.02204
-0.68244
-0.336347
0.0287122
0.393901
0.770782
1.12225
1.41545
1.62152
1.70724
1.65073
1.42216
1.0673
0.610816
0.0510566
-0.456317
-0.937623
-1.35678
-1.57719
-1.61258
-1.76619
-1.77096
-0.932325
-2.19627
-3.44296
-4.73483
-6.37095
-7.92569
-9.21774
-9.75702
-9.85564
-9.54792
-9.07108
-8.56471
-8.04034
-7.43635
-6.76992
-6.08873
-5.43625
-4.83932
-4.28361
-3.79613
-3.36589
-2.979
-2.65985
-2.36566
-2.10108
-1.8738
-1.62286
-1.36842
-1.00702
-0.629989
-0.218517
0.231772
0.695634
1.19088
1.68623
2.14263
2.5295
2.81007
2.96547
3.04237
2.94717
2.763
2.50906
2.26669
2.12533
1.82025
1.83306
2.05905
2.56033
3.05478
-0.899915
-2.08098
-3.30947
-4.52912
-6.10154
-7.68782
-9.13194
-9.74865
-9.89127
-9.58692
-9.13605
-8.66382
-8.14804
-7.55885
-6.86405
-6.17759
-5.51252
-4.8854
-4.33514
-3.85449
-3.4267
-3.03683
-2.72012
-2.42191
-2.14974
-1.92023
-1.67138
-1.36323
-0.997405
-0.587663
-0.129853
0.381275
0.925343
1.51226
2.11013
2.68146
3.19584
3.6146
3.92283
4.15182
4.23744
4.14235
4.08736
4.02782
4.10158
4.22585
4.45562
5.04528
5.9372
6.94084
-0.877598
-1.99865
-3.20825
-4.37114
-5.88819
-7.47797
-9.02779
-9.67256
-9.84329
-9.53342
-9.11473
-8.68116
-8.15875
-7.58567
-6.86758
-6.19266
-5.53096
-4.92772
-4.39377
-3.92697
-3.5038
-3.11049
-2.79538
-2.48319
-2.19827
-1.96912
-1.69739
-1.35558
-0.972869
-0.529331
-0.0245225
0.528631
1.13466
1.79744
2.48127
3.15003
3.7747
4.31557
4.7623
5.13657
5.39497
5.58303
5.76437
5.93288
6.27153
6.77275
7.28662
8.36821
9.80768
11.4897
-0.862435
-1.93858
-3.12865
-4.24482
-5.71064
-7.28242
-8.90422
-9.55411
-9.77167
-9.45517
-9.07064
-8.62218
-8.08184
-7.53111
-6.84266
-6.19846
-5.55898
-4.99243
-4.47985
-4.02995
-3.6097
-3.20865
-2.89171
-2.55096
-2.24681
-2.02125
-1.6904
-1.33836
-0.929753
-0.452914
0.0958844
0.718368
1.39821
2.14765
2.93192
3.7162
4.47533
5.16913
5.79303
6.36571
6.86123
7.31333
7.81279
8.31379
9.03591
10.0568
11.0493
12.8764
15.1371
17.6583
-0.814466
-1.76759
-2.91101
-3.9224
-5.26825
-6.77139
-8.54141
-9.19357
-9.56967
-9.21359
-8.90497
-8.36119
-7.86091
-7.38171
-6.79275
-6.23076
-5.65236
-5.14765
-4.66634
-4.24159
-3.81259
-3.38327
-3.04147
-2.63985
-2.30905
-2.05436
-1.66317
-1.27865
-0.830441
-0.305216
0.304341
1.00482
1.77627
2.63052
3.53299
4.44981
5.36243
6.22809
7.0473
7.84094
8.59383
9.32851
10.172
11.039
12.1641
13.7579
15.2955
17.8074
20.7964
23.8615
-0.720841
-1.48631
-2.56933
-3.28318
-4.19786
-5.80795
-7.28555
-7.66355
-8.27298
-7.64868
-7.70703
-7.38818
-7.16224
-6.92339
-6.56772
-6.18516
-5.73068
-5.27166
-4.84449
-4.43332
-3.96993
-3.49258
-3.14612
-2.63375
-2.34103
-1.93041
-1.53362
-1.10936
-0.622526
-0.0508743
0.618571
1.39884
2.26811
3.23871
4.27133
5.33179
6.41455
7.46657
8.49605
9.52822
10.5509
11.5737
12.7679
14.011
15.5189
17.6672
19.6969
22.7472
26.2553
29.545
-0.608972
-1.25053
-1.9722
-2.74671
-2.94309
-3.22582
-4.15361
-4.95909
-5.83028
-5.57896
-6.10039
-5.93101
-5.98089
-6.06354
-5.89101
-5.61613
-5.37709
-5.03137
-4.65128
-4.27465
-3.79201
-3.3135
-3.01129
-2.47697
-2.11266
-1.71794
-1.31002
-0.879573
-0.383221
0.207376
0.908088
1.74192
2.68632
3.75137
4.8985
6.0874
7.33273
8.55814
9.79006
11.0513
12.3277
13.6177
15.1367
16.7316
18.5678
21.2012
23.6152
27.0561
30.9427
34.2714
-0.489307
-0.915016
-1.29974
-0.699138
0.89096
1.87162
0.848271
-0.700124
-2.29389
-3.52334
-4.39421
-4.3371
-4.52328
-4.7214
-4.71499
-4.62048
-4.47314
-4.22172
-3.94654
-3.6533
-3.18365
-2.90933
-2.51886
-2.1032
-1.75822
-1.39831
-1.02189
-0.62183
-0.148159
0.431149
1.13006
1.985
2.97242
4.10421
5.34251
6.6337
8.0249
9.39783
10.8145
12.2836
13.7836
15.308
17.1114
19.0162
21.1045
24.144
26.7794
30.4315
34.6103
37.8362
-0.44485
-0.494179
1.15631
4.14727
5.38944
4.88096
3.44801
1.91771
0.104252
-1.09961
-2.23521
-2.86275
-3.19142
-3.46827
-3.29184
-3.24772
-3.19489
-3.03189
-2.91328
-2.724
-2.41288
-2.1833
-1.93416
-1.6137
-1.34784
-1.03669
-0.714479
-0.365855
0.0685409
0.614242
1.28342
2.12568
3.12015
4.28622
5.58324
6.93588
8.44126
9.91871
11.4861
13.1224
14.7972
16.5139
18.5474
20.7055
22.9617
26.33
28.982
32.6941
37.1588
40.202
-0.339238
0.368726
3.96259
4.22304
4.37799
4.30077
3.46014
2.53495
1.17708
0.168345
-0.891845
-1.48035
-1.82801
-2.15836
-2.15394
-2.1239
-2.1107
-2.06055
-1.98987
-1.91086
-1.76007
-1.59052
-1.4397
-1.19144
-0.988562
-0.698098
-0.429823
-0.131121
0.269759
0.771733
1.39647
2.1984
3.17469
4.33992
5.65307
7.01475
8.58975
10.1148
11.7844
13.51
15.2909
17.1673
19.3655
21.7027
24.044
27.6318
30.1517
33.8838
38.6544
41.5361
0.0206336
-0.0177017
-0.100275
-0.0435584
0.032917
0.167572
0.241251
0.347815
0.367705
0.365736
0.296806
0.17518
0.0521557
-0.127906
-0.29722
-0.411625
-0.552972
-0.627766
-0.726518
-0.741192
-0.789534
-0.718826
-0.702152
-0.5147
-0.436949
-0.0642609
0.0693507
0.300033
0.687489
1.09516
1.62113
2.31702
3.25448
4.23997
5.47415
6.72466
8.34282
9.80956
11.5641
13.403
15.2608
17.1926
19.5141
22.0193
24.3645
28.048
30.9151
34.9126
39.9788
42.5724
0.00159064
-0.00267797
-0.00946075
-0.0250293
-0.0411895
-0.0153129
-0.0126586
0.025662
0.0441829
0.0820805
0.109215
0.133831
0.147194
0.156344
0.129939
0.103062
0.0582934
0.0278141
-0.0223159
-0.0408685
-0.0786132
-0.0708078
-0.0773073
-0.024676
0.0113658
0.147973
0.218548
0.452407
0.530015
0.930924
1.20569
1.78033
2.44055
3.14153
4.30545
5.00906
6.8507
7.50219
9.59452
11.0536
12.5555
14.6591
16.6848
18.9136
21.169
24.7449
26.8556
31.2825
35.6196
35.9954
0.00113582
-0.00191298
-0.00342529
-0.00759026
-0.0173429
-0.012097
-0.0157723
-0.00767631
-0.00411722
0.00462614
0.0157786
0.0255893
0.038076
0.0471635
0.055165
0.0534768
0.0524299
0.0502729
0.0394942
0.0414518
0.0261335
0.0311558
0.020355
0.030706
0.0275438
0.0699778
0.0616324
0.161202
0.148196
0.305086
0.352495
0.555362
0.827572
1.0032
1.63427
1.82423
2.7304
3.20897
4.02607
5.28137
5.62765
7.64724
8.32534
9.70184
10.9691
13.2158
14.2073
16.1412
17.8644
17.1679
0.000222011
-0.00168855
-0.00300095
-0.00745723
-0.00953526
-0.0110928
-0.0138221
-0.0130162
-0.0131159
-0.0121338
-0.00863641
-0.00622982
-0.00100837
0.000968831
0.0038815
0.00593307
0.00731755
0.00795075
0.00457175
0.0123036
-0.00374059
0.011881
-0.00993923
0.00510007
-0.0112825
-0.000863644
-0.00194404
-0.000999272
0.0173147
0.0185243
0.0453624
0.0640575
0.12947
0.153707
0.299083
0.345341
0.531592
0.754597
0.871067
1.36727
1.47092
2.03531
2.44967
3.07167
3.45705
4.40954
4.92261
5.47216
6.15929
5.7047
-0.00019639
-0.00165549
-0.00317111
-0.00578954
-0.00873962
-0.00944043
-0.0117731
-0.0120601
-0.0130016
-0.0132386
-0.0121759
-0.012332
-0.00941693
-0.0112286
-0.00569086
-0.0110758
-0.00528676
-0.00932861
-0.0110633
-0.00406298
-0.0207106
0.000401281
-0.0299371
-0.0046391
-0.0313625
-0.0219083
-0.0184629
-0.0482138
-0.0031448
-0.0632954
-0.0127569
-0.0449295
-0.0526016
-0.0179241
-0.0345233
0.0145678
-0.0501902
0.0996769
0.022998
0.160737
0.273448
0.204202
0.554003
0.576137
0.708493
0.94413
1.14921
0.998816
1.14864
0.371312
-0.000268647
-0.00155992
-0.00297586
-0.00460523
-0.00757131
-0.00788619
-0.0102261
-0.0101041
-0.0115436
-0.0116348
-0.0115983
-0.0125044
-0.0104318
-0.0142731
-0.00735681
-0.0170131
-0.00734271
-0.0167486
-0.014346
-0.0114616
-0.0268889
-0.00327729
-0.0405753
-0.00503
-0.0437501
-0.0246171
-0.0265476
-0.0615051
-0.00384651
-0.093322
-0.0159989
-0.0892806
-0.0634092
-0.0610093
-0.135093
-0.0447217
-0.197846
-0.0504853
-0.189646
-0.160071
-0.0427093
-0.318319
-0.0596885
-0.187508
-0.231719
-0.414492
-0.465474
-0.689317
-0.898737
-1.7148
-3.75105e-05
-0.00144313
-0.00245908
-0.00310092
-0.00620348
-0.0054953
-0.00879754
-0.00743118
-0.0100548
-0.00918595
-0.0101772
-0.0110824
-0.00915906
-0.0149362
-0.00458687
-0.0218478
-0.00141388
-0.025372
-0.00732209
-0.0192959
-0.0233632
-0.00350337
-0.0487034
0.00422936
-0.0620774
-0.00623638
-0.0450186
-0.0475003
-0.010238
-0.109236
-0.00348936
-0.112503
-0.0566747
-0.0817678
-0.162344
-0.0571861
-0.26328
-0.0938049
-0.269517
-0.272225
-0.155811
-0.523925
-0.347496
-0.399099
-0.801001
-0.966854
-1.25937
-1.88455
-2.96993
-5.55512
0.000598834
-0.00153933
-0.00168145
-0.00101516
-0.0050597
-0.00177677
-0.00786203
-0.00357662
-0.00921726
-0.00586821
-0.0090647
-0.00899641
-0.00716427
-0.0151572
0.00108274
-0.0285284
0.0116826
-0.0417944
0.01261
-0.0350607
-0.00694472
-0.00975167
-0.0518153
0.0116534
-0.0856491
0.0227803
-0.0810243
-0.01004
-0.0470198
-0.100613
-0.0214522
-0.136426
-0.067534
-0.138645
-0.166255
-0.156822
-0.329829
-0.294191
-0.322481
-0.486865
-0.412311
-0.807492
-1.06206
-0.54243
-1.81149
-2.12341
-2.84507
-5.81475
-7.79153
-11.7713
-0.000111216
-0.00189058
7.85812e-05
0.000784973
-0.00292613
0.000530967
-0.00480909
-0.00274604
-0.00561464
-0.00597299
-0.00706589
-0.00757638
-0.00824862
-0.00906053
-0.00867336
-0.0115414
-0.0104122
-0.062712
0.0588332
-0.0856083
0.0463474
-0.0821094
-0.0267167
-0.0593054
-0.106298
0.00240347
-0.17158
0.0180172
-0.221587
-0.107467
-0.21505
-0.253763
-0.278445
-0.325838
-0.538401
-0.460108
-0.676179
-0.87759
-0.704261
-1.4696
-0.732358
-2.14142
-1.95974
-1.81512
-3.66342
-2.62588
-5.75334
-4.94082
-3.67579
-2.71782
-0.00314499
0.00266643
-0.00100611
7.68247e-05
0.00479488
-0.00597579
0.00846262
-0.0124906
0.00443307
-0.0181161
-0.00441039
-0.0214248
-0.012665
-0.0244676
-0.0182813
-0.0246377
-0.0226195
-0.0202748
-0.0214644
-0.0187268
-0.0150836
-0.0135244
-0.00232375
-0.00611521
0.0108323
0.0192811
0.0325791
0.0392282
0.052321
0.0598532
0.0529488
-0.0831191
0.590173
-0.176994
0.770802
0.158394
0.437008
1.08868
-0.0265532
1.72279
0.688051
1.07666
2.92969
0.324546
3.99913
3.16504
2.78286
7.26642
5.6671
9.98054
-16.0935
-15.7941
-12.0719
-11.4785
-9.9994
-8.50751
-9.06205
-7.0317
-7.10223
-5.31954
-21.2566
-20.1007
-13.9834
-9.76098
-4.66385
-0.0581429
3.22763
10.5084
11.8407
15.6827
-14.1769
-12.8303
-7.15781
0.0313373
3.57116
7.32667
14.9912
23.8103
24.0556
27.2375
-6.38202
-6.17521
-1.40008
6.85168
13.3803
14.763
32.9926
34.4833
35.031
39.2206
-1.20225
1.98222
5.72715
14.5448
22.1745
22.1441
47.2523
43.9902
44.3013
48.2003
4.42095
9.17236
11.8193
20.6757
29.0304
28.5674
57.8121
51.2216
51.3108
54.5077
9.06279
14.7807
16.3306
25.1085
33.9131
33.4997
64.9874
55.9864
56.0325
58.9567
14.3721
20.8418
21.082
29.7613
38.9956
38.8378
72.0355
60.3742
60.5473
63.1654
21.1352
28.1144
26.7095
35.3425
44.9386
45.4477
79.0158
63.3951
63.8155
65.2447
27.5678
34.8167
31.9647
40.6691
50.2763
51.6308
80.6155
62.6469
63.605
63.7061
33.249
40.7031
36.7754
45.5516
53.1869
54.4748
77.2806
58.7017
61.3935
60.211
37.9681
45.7087
41.1239
48.0971
53.1647
53.8448
72.9256
53.3036
59.6355
54.9896
41.7227
49.8903
43.3184
48.1936
52.1422
52.4603
67.0712
49.0169
56.7466
49.3125
44.6675
51.66
43.7163
47.8245
50.2413
50.0843
60.1614
45.4
52.7052
43.0714
45.8129
51.7134
44.0321
46.5125
47.0595
46.3918
53.1366
41.1126
47.43
37.083
45.6264
51.6752
42.9642
41.2142
38.9479
38.397
40.9212
32.354
36.6016
20.2913
41.2475
40.7292
25.8377
22.2343
20.9916
21.0388
20.7027
15.9667
10.6956
-2.00734
18.7022
16.1311
10.4624
9.83555
9.30046
8.13089
5.92315
1.26221
-2.19148
-31.7057
5.85486
3.98957
3.37358
3.01591
1.98274
0.871595
-1.68135
-8.63374
-23.9376
-71.1456
-0.397084
0.149813
0.798555
0.857052
-2.25192
-5.03956
-14.9602
-42.7095
-63.7804
-98.0828
-4.62406
-2.03494
-1.75436
-3.60177
-9.36592
-22.9132
-55.5517
-88.1528
-85.5845
-82.2224
-12.3729
-6.60257
-6.04848
-14.0587
-30.4339
-77.3752
-89.1613
-63.8162
-43.8864
-49.8349
-17.3695
-10.7169
-14.2047
-29.6306
-69.7452
-71.8996
-45.2669
-17.2942
-13.0735
-29.9312
-3.3023
-6.95688
-19.7796
-76.113
-41.4079
-14.3184
-1.64698
12.8187
3.43209
-17.6998
37.2883
42.9607
10.0661
-12.5226
-11.7842
1.71973
4.3977
0.0485227
-3.56706
-13.3363
)
;

boundaryField
{
    inlet
    {
        type            calculated;
        value           uniform 0;
    }
    outlet
    {
        type            calculated;
        value           nonuniform List<scalar> 
25
(
-5.31954
15.6827
27.2375
39.2206
48.2003
54.5077
58.9567
63.1654
65.2447
63.7061
60.211
54.9896
49.3125
43.0714
37.083
20.2913
-2.00734
-31.7057
-71.1456
-98.0828
-82.2224
-49.8349
-29.9312
-17.6998
-13.3363
)
;
    }
    upperWall
    {
        type            calculated;
        value           nonuniform List<scalar> 
68
(
0.00128619
-0.00193171
0.00267235
-0.00381282
0.00511572
-0.00667755
0.00754667
-0.00614978
-0.00314499
0.00266643
-0.00100611
7.68247e-05
0.00479488
-0.00597579
0.00846262
-0.0124906
0.00443307
-0.0181161
-0.00441039
-0.0214248
-0.012665
-0.0244676
-0.0182813
-0.0246377
-0.0226195
-0.0202748
-0.0214644
-0.0187268
-0.0150836
-0.0135244
-0.00232375
-0.00611521
0.0108323
0.0192811
0.0325791
0.0392282
0.052321
0.0598532
0.0529488
-0.0831191
0.590173
-0.176994
0.770802
0.158394
0.437008
1.08868
-0.0265532
1.72279
0.688051
1.07666
2.92969
0.324546
3.99913
3.16504
2.78286
7.26642
5.6671
9.98054
37.2883
42.9607
10.0661
-12.5226
-11.7842
1.71973
4.3977
0.0485227
-3.56706
-13.3363
)
;
    }
    lowerWall
    {
        type            calculated;
        value           nonuniform List<scalar> 
83
(
-3.76197e-05
5.63018e-05
-7.72317e-05
0.000108209
-0.000139161
0.000173589
-0.000153221
7.56266e-05
-1.11965
-1.18912
-1.11287
-1.0665
-0.9764
-0.932325
-0.899915
-0.877598
-0.862435
-0.814466
-0.720841
-0.608972
-0.489307
-0.44485
-0.339238
-1.11965
-2.34992
-2.97317
-3.10153
-3.05626
-2.8893
-2.69112
-2.47702
-2.27894
-2.09852
-1.93982
-1.80199
-1.68252
-1.56458
-1.44841
-1.3464
-1.26138
-1.20242
-1.17581
-1.11862
-1.09081
-1.08423
-1.09135
-1.13096
-1.15868
-1.1819
-1.24232
-1.39427
-1.48457
-1.65295
-1.82659
-2.04844
-2.29662
-2.57546
-2.90118
-3.27731
-3.7074
-4.19792
-4.75871
-5.40163
-6.14138
-7.01124
-8.09173
-9.49838
-10.9992
-12.364
-13.5197
-14.601
-15.7953
-15.7449
-16.0935
-15.7941
-12.0719
-11.4785
-9.9994
-8.50751
-9.06205
-7.0317
-7.10223
-5.31954
)
;
    }
    frontAndBack
    {
        type            empty;
    }
}


// ************************************************************************* //
