/*--------------------------------*- C++ -*----------------------------------*\
| =========                 |                                                 |
| \\      /  F ield         | OpenFOAM: The Open Source CFD Toolbox           |
|  \\    /   O peration     | Version:  2112                                  |
|   \\  /    A nd           | Website:  www.openfoam.com                      |
|    \\/     M anipulation  |                                                 |
\*---------------------------------------------------------------------------*/
FoamFile
{
    version     2.0;
    format      ascii;
    arch        "LSB;label=32;scalar=64";
    class       volScalarField;
    location    "0.11";
    object      omega;
}
// * * * * * * * * * * * * * * * * * * * * * * * * * * * * * * * * * * * * * //

dimensions      [0 0 -1 0 0 0 0];

internalField   nonuniform List<scalar> 
1580
(
1082.35
1084.56
1089.96
1093.97
1104.29
1111.51
1130.9
1143.61
49.2905
67.6102
87.41
107.898
130.818
151.947
182.58
196.952
39.9621
41.4931
44.3274
48.7178
55.3526
63.1918
75.1669
86.1741
39.6343
39.7602
40.1269
40.9578
42.6788
45.3885
49.9729
56.4129
39.6128
39.6201
39.6576
39.787
40.1718
41.1166
43.0242
46.9732
39.6116
39.6145
39.6362
39.7224
39.9893
40.767
42.361
45.9827
39.6256
39.703
39.9333
40.5163
41.6787
43.9799
47.5035
53.5099
39.938
41.3656
44.0385
48.4622
54.8616
64.2161
75.5255
91.5998
53.8034
80.5518
109.271
140.448
173.271
211.775
250.237
303.225
2209.8
2224.8
2244.19
2272.19
2308.08
2359.65
2424.61
2516.06
532.861
747.737
901.324
1015.41
1109.66
1189.93
1260.9
1324.09
1380.69
1431.23
1476.13
1515.76
1550.56
1585.51
1620.66
1652.25
1680.63
1706.31
1730.14
1749.94
1766.63
1779.71
1789.58
1795.45
1797.68
1797.34
1795.38
1790.81
1783.03
1773.59
1762.18
1749.41
1735.59
1721.05
1706.17
1691.29
1676.76
1662.94
1650.25
1639.01
1629.16
1620.88
1614.85
1612.39
1615.22
1620.37
1624.68
1626.36
1625.76
1602.07
554.379
687.622
790.983
837.8
864.123
885.682
904.008
919.053
931.228
941.072
949.275
956.373
962.681
969.147
975.876
982.7
990.248
999.83
1013.88
1025.18
1035.11
1043.33
1049.81
1054.07
1056.37
1057.32
1056.92
1054.62
1050.71
1045.49
1039.11
1031.77
1023.7
1015.09
1006.17
997.109
988.088
979.23
970.633
962.336
954.363
946.765
939.538
933.029
927.055
922.42
917.479
914.278
910.528
910.1
553.628
617.494
683.581
709.601
723.591
739.572
756.737
774.302
792.419
810.935
829.445
847.651
865.333
884.418
905.258
925.802
946.142
966.585
986.311
1003.5
1018.4
1030.9
1040.91
1048.31
1053.2
1055.61
1056.01
1054.2
1050.06
1044.03
1036.33
1027.2
1016.88
1005.62
993.681
981.323
968.785
956.267
943.95
931.976
920.466
909.593
899.349
890.101
881.343
874.471
867.631
862.603
858.197
856.627
547.772
573.7
625.238
644.669
656.923
674.487
697.118
724.087
754.367
786.247
817.529
847.087
874.014
903.167
935.171
966.46
996.552
1024.53
1050.1
1072.53
1091.79
1107.75
1120.39
1129.68
1135.7
1138.57
1138.6
1136.04
1130.29
1122.11
1111.84
1099.7
1085.99
1071
1055.05
1038.44
1021.49
1004.48
987.625
971.182
955.311
940.254
926.021
913.082
900.526
890.521
880.486
872.616
865.826
862.166
537.671
546.034
591.8
607.366
619.627
640.811
672.227
712.578
756.936
800.478
842.637
881.606
917.239
954.993
995.356
1033.55
1069.03
1101.26
1130
1154.81
1175.7
1192.49
1205.31
1214.17
1219.25
1220.8
1219.24
1214.35
1206.08
1195.17
1181.94
1166.73
1149.84
1131.55
1112.21
1092.15
1071.7
1051.16
1030.77
1010.85
991.559
973.125
955.575
939.501
923.641
910.819
897.965
887.378
877.934
871.041
529.729
529.168
570.541
584.634
598.231
624.878
667.437
721.009
778.879
835.798
888.528
934.812
975.144
1016.93
1061.24
1102.58
1140.33
1174.07
1203.78
1228.89
1249.5
1265.39
1276.87
1284
1287.07
1286.48
1282.49
1274.73
1263.83
1250.24
1234.33
1216.44
1196.88
1175.93
1153.96
1131.3
1108.28
1085.18
1062.25
1039.84
1018.09
997.169
977.12
958.639
940.252
925.121
909.977
896.663
883.698
873.573
523.795
518.635
556.633
570.311
586.587
620.162
673.201
741.218
813.044
880.004
939.122
988.854
1030.75
1074.06
1119.93
1162.66
1201.12
1234.91
1264.11
1288.14
1307.29
1321.31
1330.71
1335.57
1336.32
1333.44
1326.74
1316.54
1303.35
1287.54
1269.55
1249.66
1228.19
1205.41
1181.68
1157.33
1132.65
1107.92
1083.36
1059.27
1035.81
1013.13
991.297
971.071
950.868
933.844
916.655
900.522
884.923
871.812
516.722
511.77
547.144
560.81
580.72
621.752
685.909
768.338
851.459
925.715
989.134
1040.67
1083.08
1127.54
1174.6
1218.15
1256.73
1290
1317.94
1340.27
1357.49
1369.3
1376.42
1378.9
1377.46
1372.2
1363.09
1350.79
1335.62
1317.98
1298.33
1276.91
1254.03
1229.94
1205
1179.51
1153.71
1127.84
1102.1
1076.71
1051.81
1027.6
1004.13
982.209
960.148
940.754
920.65
901.82
883.436
866.674
511.829
507.176
540.295
554.247
578.652
627.653
703.77
799.917
893.247
973.515
1040.14
1093.22
1136.35
1182.12
1230.38
1274.11
1312.07
1344.05
1370.06
1390.13
1404.94
1414.12
1418.64
1418.54
1414.7
1406.75
1395.31
1380.9
1363.75
1344.33
1323.12
1300.32
1276.25
1251.11
1225.27
1198.96
1172.39
1145.72
1119.09
1092.64
1066.51
1040.82
1015.56
991.424
966.656
944.207
921.225
898.405
876.231
854.869
510.189
496.33
523.353
540.067
579.783
652.76
757.623
881.718
994.292
1083.56
1153.51
1207.6
1250.8
1296
1341.9
1381.13
1413.35
1438.8
1457.83
1470.85
1478.92
1481.37
1479.62
1473.92
1464.25
1451.15
1435.17
1416.68
1395.85
1373.18
1348.93
1323.55
1297.3
1270.39
1243.08
1215.51
1187.78
1160
1132.21
1104.45
1076.83
1049.33
1021.9
995.65
968.49
942.973
916.366
889.703
864.056
838.659
494.78
478.06
502.322
551.945
644.919
797.99
969.947
1123.32
1243.5
1325.67
1385.23
1427.67
1462.47
1495.12
1522.08
1542.11
1556.19
1564.83
1568.58
1567.74
1563.7
1555.05
1543.05
1528.2
1510.7
1490.6
1468.23
1444
1418.3
1391.59
1364.08
1336.06
1307.72
1279.33
1250.88
1222.37
1193.82
1165.28
1136.7
1108.06
1079.44
1050.69
1021.71
993.237
963.491
934.853
905.226
875.613
847.053
818.42
476.973
479.292
533.874
690.743
931.116
1183.05
1383.78
1505.79
1577.4
1620.5
1646.34
1661.66
1672.91
1680.76
1682.46
1680.5
1675.15
1666.49
1655.24
1641.21
1624.94
1606.03
1584.97
1562.18
1537.28
1510.73
1482.98
1454.42
1425.52
1396.26
1366.76
1337.17
1307.62
1278.15
1248.84
1219.67
1190.58
1161.56
1132.48
1103.29
1073.98
1044.27
1014.01
983.917
952.294
921.302
889.402
857.601
826.247
794.421
453.735
546.499
845.091
1278.66
1654.27
1851.43
1928.04
1937.74
1928.51
1911.5
1892.02
1873.98
1856.92
1837.71
1814.85
1791.6
1768.11
1743.95
1719.02
1693.02
1665.99
1637.85
1608.72
1578.61
1547.57
1516.46
1485.13
1453.62
1422.07
1390.67
1359.52
1328.68
1298.22
1268.11
1238.33
1208.82
1179.48
1150.28
1121.02
1091.57
1061.91
1031.61
1000.54
969.309
936.379
903.666
870.013
836.412
801.915
767.903
454.266
1127.41
1926.91
2343.72
2445.54
2429.7
2380.23
2304.47
2232.85
2166.53
2106.99
2056.08
2012.01
1967.23
1922.21
1880.51
1841.03
1802.93
1765.66
1728.84
1692.21
1655.7
1619.36
1583.39
1548.03
1513.02
1478.46
1444.38
1410.84
1377.88
1345.55
1313.83
1282.74
1252.18
1222.1
1192.41
1162.96
1133.71
1104.41
1074.86
1045.03
1014.35
982.778
950.796
916.96
882.957
847.786
812.278
775.24
739.415
593.096
2665.54
3031.55
2992.34
2891.77
2761.74
2644.31
2530.72
2427.03
2334.4
2252.68
2181.34
2119.64
2059.01
1999.13
1944.17
1892.65
1843.6
1796.45
1750.81
1706.26
1663.59
1622.32
1582.16
1542.95
1504.77
1467.59
1431.4
1396.16
1361.84
1328.44
1295.85
1264.1
1233.01
1202.56
1172.64
1143.03
1113.69
1084.31
1054.65
1024.66
993.668
961.765
929.268
894.732
859.626
823.088
786.075
746.378
707.112
1517.52
1871.39
2105.36
2250.94
2329.53
2350.52
2347.36
2324.23
2289.82
2250.12
2208.25
2166.58
2125.55
2080.84
2028.81
1974.77
1919.98
1865.29
1811.3
1758.41
1707.03
1657.19
1609
1562.57
1517.87
1474.93
1433.68
1394.06
1356.02
1319.38
1284.17
1250.1
1217.24
1185.25
1154.2
1123.97
1094.21
1064.9
1035.61
1006.03
976.136
944.999
913.005
880.116
844.65
807.946
769.227
729.252
682.211
634.726
262.992
335.801
435.492
517.394
613.495
706.602
791.599
864.119
925.959
975.015
1015.64
1045.47
1070.21
1088.12
1105.47
1118.96
1129.96
1136.74
1141.75
1142.3
1141.01
1137.93
1132.21
1123.96
1113.98
1102.29
1089.22
1074.96
1059.76
1043.63
1026.93
1009.54
991.713
973.501
954.727
935.62
915.771
895.503
874.343
851.857
828.523
802.453
774.19
743.56
706.905
668.742
626.009
572.35
515.601
454.103
99.9622
124.455
145.085
180.895
217.312
253.008
287.845
320.424
351.062
378.762
403.769
424.952
443.407
461.463
479.457
495.866
511.078
524.833
537.4
548.638
558.471
567.302
575.108
581.953
587.784
592.774
596.849
600.137
602.722
604.539
605.767
606.305
606.238
605.805
604.419
602.571
599.333
594.943
589.02
580.535
569.901
555.095
537.229
513.104
484.584
452.311
411.745
376.495
350.829
333.848
62.3355
71.7733
78.7173
91.36
104.515
117.335
129.804
141.485
152.564
162.638
172.296
181.761
190.976
200.865
211.603
221.958
231.912
241.238
250.046
258.174
265.74
272.734
279.153
285.234
290.709
296.052
300.863
305.565
310.001
314.161
318.377
322.155
326.029
329.686
332.951
336.426
338.813
341.304
342.578
342.524
341.513
338.28
334.157
326.999
318.983
310.474
298.46
298.513
300.453
310.32
51.0034
56.3069
60.8292
66.3019
72.2547
78.2455
84.1548
89.7987
95.1865
100.207
105.008
109.722
114.314
119.418
125.145
130.835
136.562
142.054
147.556
152.737
157.885
162.802
167.542
172.321
176.689
181.405
185.583
190.161
194.46
198.736
203.41
207.378
212.311
216.362
220.998
225.709
229.605
234.931
238.606
243.494
248.063
252.032
257.575
261.632
265.967
272.733
279.592
295.872
320.822
385.995
50.162
54.6933
58.983
63.304
67.6982
72.0517
76.3115
80.4305
84.3577
88.1308
91.6817
95.1046
98.365
101.972
106.073
110.223
114.588
118.874
123.463
127.882
132.612
137.242
141.99
146.95
151.626
156.956
161.634
167.153
172.146
177.474
183.155
188.045
194.399
199.221
205.515
211.273
216.629
223.922
228.824
236.686
243.687
250.613
262.148
271.787
287.733
312.062
339.289
406.166
481.843
649.362
59.9606
65.9571
71.6681
77.0921
82.3182
87.3453
92.1758
96.8371
101.288
105.617
109.71
113.694
117.468
121.672
126.456
131.35
136.593
141.774
147.547
153.085
159.366
165.437
172.066
178.926
185.678
193.514
200.317
208.962
216.165
224.926
233.3
241.295
251.409
258.534
269.745
277.653
287.953
299.307
307.672
323.298
333.729
350.932
372.955
392.165
434.7
479.529
545.469
709.152
910.858
1130.79
105.639
118.136
130.03
141.227
151.836
161.852
171.323
180.357
188.831
196.982
204.584
211.963
218.831
226.51
235.217
244.216
253.732
263.238
273.728
283.826
295.296
306.141
318.293
330.155
342.441
355.587
367.458
381.771
393.208
407.894
419.836
433.422
447.481
458.735
475.851
485.945
504.279
517.99
533.861
557.621
572.468
606.949
635.765
679.256
754.891
824.301
974.573
1332.06
1537.15
1759.22
336.241
371.762
408.359
443.176
475.628
505.27
532.587
557.493
580.483
601.541
621.06
639.022
655.756
673.482
692.886
711.733
730.794
750.455
770.832
791.001
811.896
831.528
852.014
870.392
889.416
906.271
922.496
937.725
950.724
965.253
975.55
989.832
999.741
1013
1027.01
1038.02
1058.31
1070.63
1094.49
1116.96
1140.64
1192.34
1228.42
1300.2
1395.78
1492.55
1669.22
1778.01
1855.79
2043.08
2591.65
2639.52
2678.62
2710.46
2736.77
2758.26
2776.2
2790.81
2803
2812.82
2820.95
2827.37
2832.61
2837.22
2841.19
2843.78
2845.3
2844.61
2842.68
2838.32
2832.81
2824.61
2815.35
2803.17
2790.06
2773.41
2754.83
2735.26
2714.16
2691.04
2666.35
2637.4
2608.87
2577.42
2542.59
2510.97
2470.25
2435.47
2394.26
2349.77
2311.86
2257.46
2211.77
2159.4
2085.96
2021.47
1929.07
1674.1
1261.12
1064.54
1680.53
1750.43
1803.75
1854.7
1908.94
1967.17
2026.7
2078.8
2153.36
2192.44
909.687
915.256
921.989
925.587
925.079
920.822
917.554
913.584
906.56
946.267
855.228
854.016
852.203
846.342
832.159
810.798
793.423
771.904
759.049
759.826
857.022
850.709
844.07
828.576
802.529
769.433
741.384
710.899
698.544
690.174
860.382
848.069
834.771
805.799
768.316
724.642
690.658
655.797
647.103
645.459
858.073
839.816
819.36
779.197
733.794
686.47
651.575
616.234
609.158
613.445
852.463
829.954
803.474
755.882
707.9
659.967
623.157
588.7
583.358
591.305
843.64
816.633
783.447
729.991
681.127
631.786
591.227
559.536
556.993
568.577
827.862
795.134
754.605
698.373
647.097
593.481
548.731
525.549
526.539
543.037
807.688
769.103
724.646
664.847
608.852
550.923
507.487
495.385
499.413
520.361
783.333
741.261
692.637
626.832
565.556
507.358
472.679
469.249
476.79
502.157
756.494
711.912
655.692
583.569
519.462
468.057
445.981
452.68
469.474
492.75
727.932
678.183
612.713
536.58
475.014
436.925
427.62
449.733
483.3
494.983
695.649
638.197
564.554
488.988
436.323
414.73
419.153
466.837
518.276
511.202
657.856
591.411
513.591
443.213
406.516
404.319
421.216
505.314
569.072
545.814
573.64
492.074
423.759
386.483
384.423
399.242
455.124
614.613
681.77
636.309
405.643
369.195
356.629
360.733
387.703
477.718
675.85
829.801
876.407
807.231
331.216
332.84
345.419
392.584
515.159
765.552
951.672
1016.84
1038.76
959.225
327.56
360.345
430.62
601.861
874.652
1075.16
1153.34
1149.62
1159.4
1085.77
450.206
535.058
724.555
1021.62
1247.22
1272.12
1262.5
1210.36
1218.8
1171.89
747.229
933.995
1257.6
1458.29
1455.53
1358.43
1283.34
1205.65
1227.46
1209.43
1307.46
1645.34
1749.08
1701.59
1512.16
1290.08
1237.93
1196.32
1241.24
1234.95
1972.35
2042.54
1953.92
1611
1354.04
1244.88
1260.58
1253.05
1324.71
1313.38
2209.58
2047.28
1588.46
1348.08
1299.95
1314.91
1423.44
1435.84
1564.13
1563.97
1261.92
1311.01
1394.09
1532.17
1822.69
2041.02
2472.96
2773.24
3003.96
3661.35
)
;

boundaryField
{
    inlet
    {
        type            inletOutlet;
        inletValue      uniform 39.6133;
        value           uniform 39.6133;
    }
    outlet
    {
        type            zeroGradient;
    }
    upperWall
    {
        blending        binomial2;
        n               2;
        beta1           0.075;
        type            omegaWallFunction;
        value           nonuniform List<scalar> 
68
(
2209.8
2224.8
2244.19
2272.19
2308.08
2359.65
2424.61
2516.06
2591.65
2639.52
2678.62
2710.46
2736.77
2758.26
2776.2
2790.81
2803
2812.82
2820.95
2827.37
2832.61
2837.22
2841.19
2843.78
2845.3
2844.61
2842.68
2838.32
2832.81
2824.61
2815.35
2803.17
2790.06
2773.41
2754.83
2735.26
2714.16
2691.04
2666.35
2637.4
2608.87
2577.42
2542.59
2510.97
2470.25
2435.47
2394.26
2349.77
2311.86
2257.46
2211.77
2159.4
2085.96
2021.47
1929.07
1674.1
1261.12
1064.54
1261.92
1311.01
1394.09
1532.17
1822.69
2041.02
2472.96
2773.24
3003.96
3661.35
)
;
    }
    lowerWall
    {
        blending        binomial2;
        n               2;
        beta1           0.075;
        type            omegaWallFunction;
        value           nonuniform List<scalar> 
83
(
1082.35
1084.56
1089.96
1093.97
1104.29
1111.51
1130.9
1143.61
532.861
554.379
553.628
547.772
537.671
529.729
523.795
516.722
511.829
510.189
494.78
476.973
453.735
454.266
593.096
532.861
747.737
901.324
1015.41
1109.66
1189.93
1260.9
1324.09
1380.69
1431.23
1476.13
1515.76
1550.56
1585.51
1620.66
1652.25
1680.63
1706.31
1730.14
1749.94
1766.63
1779.71
1789.58
1795.45
1797.68
1797.34
1795.38
1790.81
1783.03
1773.59
1762.18
1749.41
1735.59
1721.05
1706.17
1691.29
1676.76
1662.94
1650.25
1639.01
1629.16
1620.88
1614.85
1612.39
1615.22
1620.37
1624.68
1626.36
1625.76
1602.07
1680.53
1750.43
1803.75
1854.7
1908.94
1967.17
2026.7
2078.8
2153.36
2192.44
)
;
    }
    frontAndBack
    {
        type            empty;
    }
}


// ************************************************************************* //
