/*--------------------------------*- C++ -*----------------------------------*\
| =========                 |                                                 |
| \\      /  F ield         | OpenFOAM: The Open Source CFD Toolbox           |
|  \\    /   O peration     | Version:  2112                                  |
|   \\  /    A nd           | Website:  www.openfoam.com                      |
|    \\/     M anipulation  |                                                 |
\*---------------------------------------------------------------------------*/
FoamFile
{
    version     2.0;
    format      ascii;
    arch        "LSB;label=32;scalar=64";
    class       volScalarField;
    location    "0.34";
    object      p;
}
// * * * * * * * * * * * * * * * * * * * * * * * * * * * * * * * * * * * * * //

dimensions      [0 2 -2 0 0 0 0];

internalField   nonuniform List<scalar> 
12225
(
-1.42344
-2.27391
-2.58104
-2.56037
-2.49514
-2.42236
-2.30413
-2.12491
-1.88739
-1.59547
-1.2524
-0.865996
-0.452213
-0.0365074
0.350187
0.672106
0.913484
1.06168
-1.8
-2.38293
-2.62601
-2.60144
-2.53198
-2.45551
-2.33753
-2.16134
-1.92863
-1.64295
-1.30701
-0.927524
-0.518811
-0.104463
0.286233
0.617127
0.874443
1.0372
-1.97555
-2.34762
-2.58863
-2.60828
-2.55959
-2.49499
-2.3916
-2.23366
-2.02307
-1.76485
-1.463
-1.12424
-0.760981
-0.392209
-0.040077
0.26903
0.530055
0.709446
-2.1217
-2.38912
-2.62573
-2.66707
-2.62015
-2.55259
-2.45294
-2.30537
-2.11106
-1.8763
-1.60682
-1.31044
-0.999658
-0.69173
-0.405182
-0.158642
0.0441779
0.191044
-2.26151
-2.45756
-2.6614
-2.70748
-2.66424
-2.59936
-2.50843
-2.37546
-2.20029
-1.98975
-1.75058
-1.49114
-1.22365
-0.964116
-0.729366
-0.534515
-0.386281
-0.279572
-2.3943
-2.53518
-2.70212
-2.75376
-2.7221
-2.66468
-2.58373
-2.46587
-2.31051
-2.12478
-1.91628
-1.69354
-1.46805
-1.254
-1.06605
-0.916577
-0.812925
-0.752885
-2.52136
-2.62191
-2.75637
-2.81093
-2.79026
-2.73972
-2.66781
-2.56518
-2.4309
-2.27177
-2.09576
-1.91142
-1.72934
-1.56207
-1.4222
-1.32031
-1.26364
-1.25527
-2.64492
-2.71687
-2.8234
-2.87676
-2.86572
-2.82368
-2.7627
-2.67719
-2.56599
-2.43524
-2.293
-2.14774
-2.0093
-1.88878
-1.7972
-1.7439
-1.73585
-1.77705
-2.76692
-2.81875
-2.90223
-2.9523
-2.95047
-2.919
-2.87074
-2.80342
-2.71625
-2.61475
-2.50685
-2.40089
-2.30591
-2.23179
-2.18822
-2.18349
-2.22422
-2.3144
-2.88897
-2.92683
-2.99234
-3.03872
-3.04551
-3.02587
-2.99166
-2.9434
-2.8811
-2.80973
-2.7368
-2.6703
-2.61855
-2.59029
-2.59406
-2.63728
-2.72625
-2.86525
-3.01245
-3.04083
-3.09311
-3.13639
-3.15134
-3.14443
-3.12568
-3.09754
-3.06095
-3.02035
-2.98269
-2.95545
-2.94624
-2.96282
-3.01271
-3.10259
-3.23838
-3.42438
-3.12802
-3.15079
-3.19476
-3.23633
-3.25858
-3.26402
-3.2606
-3.25175
-3.23919
-3.22701
-3.22154
-3.22972
-3.25851
-3.31485
-3.40542
-3.53621
-3.7127
-3.93888
-3.24512
-3.26424
-3.30279
-3.34395
-3.37358
-3.39167
-3.40422
-3.41506
-3.4265
-3.4424
-3.46845
-3.51097
-3.57626
-3.6705
-3.79957
-3.96874
-4.18298
-4.44583
-3.38238
-3.3992
-3.43469
-3.47737
-3.51594
-3.54886
-3.58034
-3.61413
-3.65296
-3.70043
-3.76149
-3.8417
-3.94659
-4.08147
-4.25134
-4.46065
-4.71366
-5.0132
-3.54256
-3.55858
-3.59386
-3.6407
-3.69025
-3.74035
-3.79371
-3.85365
-3.92296
-4.00489
-4.10362
-4.22378
-4.37
-4.54662
-4.75765
-5.00657
-5.29671
-5.62989
-3.72776
-3.74455
-3.7827
-3.83687
-3.89996
-3.96962
-4.04751
-4.13624
-4.23832
-4.35646
-4.49399
-4.65454
-4.84165
-5.0586
-5.30831
-5.59314
-5.91533
-6.27554
-3.93792
-3.95699
-4.00107
-4.066
-4.14542
-4.23686
-4.34117
-4.46021
-4.59583
-4.75003
-4.92516
-5.12374
-5.34817
-5.60056
-5.88267
-6.19569
-6.54073
-6.9173
-4.16784
-4.19059
-4.24343
-4.3223
-4.42054
-4.53523
-4.66653
-4.81547
-4.98307
-5.17039
-5.37876
-5.60954
-5.864
-6.1431
-6.44748
-6.77727
-7.13261
-7.51214
-4.40155
-4.42976
-4.49441
-4.59039
-4.70953
-4.84793
-5.00508
-5.18119
-5.3763
-5.59043
-5.82384
-6.07689
-6.34983
-6.64265
-6.95511
-7.28656
-7.63645
-8.00295
-4.55745
-4.59145
-4.66855
-4.78124
-4.91849
-5.07513
-5.25042
-5.44422
-5.65578
-5.88425
-6.12921
-6.39038
-6.66747
-6.95996
-7.26721
-7.58827
-7.92235
-8.26758
-4.63437
-4.67397
-4.76339
-4.89151
-5.04352
-5.21333
-5.40074
-5.60557
-5.82641
-6.06192
-6.31138
-6.57432
-6.85017
-7.13817
-7.43754
-7.74732
-8.06676
-8.39421
-4.66027
-4.70727
-4.8121
-4.95722
-5.12282
-5.30337
-5.50041
-5.71359
-5.94047
-6.17925
-6.42924
-6.68996
-6.96072
-7.24072
-7.52918
-7.82523
-8.12813
-8.43636
-4.6458
-4.70332
-4.82852
-4.99266
-5.17035
-5.35931
-5.56409
-5.78403
-6.01562
-6.25679
-6.50697
-6.76558
-7.03174
-7.3046
-7.58348
-7.86769
-8.15678
-8.44968
-4.59863
-4.67203
-4.82426
-5.00876
-5.19693
-5.39349
-5.60522
-5.82963
-6.06267
-6.30305
-6.55049
-6.80436
-7.06373
-7.32778
-7.59596
-7.86773
-8.14279
-8.42007
-4.52412
-4.62249
-4.80998
-5.01212
-5.20637
-5.41097
-5.63273
-5.86476
-6.10198
-6.34391
-6.59071
-6.84161
-7.0956
-7.35198
-7.61043
-7.87074
-8.13299
-8.39673
-4.42511
-4.56226
-4.797
-5.01322
-5.20552
-5.41114
-5.6364
-5.87057
-6.10838
-6.35006
-6.59563
-6.84384
-7.09335
-7.34342
-7.59383
-7.84462
-8.09607
-8.34757
-4.30431
-4.49454
-4.78233
-5.0174
-5.21934
-5.43515
-5.66668
-5.90243
-6.13946
-6.3792
-6.62159
-6.86508
-7.10826
-7.35034
-7.59114
-7.83108
-8.071
-8.31182
-4.16793
-4.44083
-4.74566
-4.96652
-5.17299
-5.40368
-5.64647
-5.88901
-6.13094
-6.37425
-6.61843
-6.86172
-7.1027
-7.34058
-7.57528
-7.80773
-8.03951
-8.27348
-3.99955
-4.49188
-4.82596
-5.00767
-5.19733
-5.42537
-5.66526
-5.90395
-6.1428
-6.38358
-6.62484
-6.86412
-7.09946
-7.32944
-7.55356
-7.77307
-7.98993
-8.20252
-3.58229
-4.34959
-4.77307
-4.97125
-5.1758
-5.41801
-5.66633
-5.90927
-6.15031
-6.39189
-6.63266
-6.87027
-7.1028
-7.32863
-7.54695
-7.75979
-7.96994
-8.17468
-25.2265
-25.1323
-24.1036
-23.3724
-23.8785
-25.5838
-27.5149
-28.7846
-29.1219
-28.756
-28.027
-27.2501
-26.6711
-26.4099
-26.373
-26.4136
-26.3866
-26.104
-25.8546
-26.0696
-26.3186
-26.2976
-25.9898
-25.5327
-25.2168
-25.3506
-26.1146
-27.5623
-29.6341
-32.1858
-35.0271
-37.9562
-40.7851
-43.3556
-45.5482
-47.2861
-48.533
-49.2793
-49.505
-49.1675
-48.2517
-46.8534
-45.0511
-42.9135
-40.4983
-37.8551
-35.0265
-32.0478
-28.9481
-25.7513
-22.4772
-19.1437
-15.7692
-12.3748
-8.98678
-5.63766
-2.36599
0.785268
3.77183
6.55227
9.09234
11.3683
13.3688
15.0935
16.5517
17.7605
18.7428
19.5246
20.1325
20.5925
20.9256
21.1635
21.3177
21.4048
21.4385
21.4305
21.3906
21.3269
21.2466
21.1556
21.0594
20.9625
20.8694
20.789
20.7125
20.6043
20.453
20.2727
20.0833
19.9112
19.7789
19.6993
19.6697
19.6671
19.6825
19.6982
19.7056
19.7018
19.6898
19.6775
19.681
19.7209
19.8121
19.9549
20.1265
20.2841
20.3839
20.4128
20.3896
20.1185
19.1626
17.1485
13.834
8.85034
2.20225
-5.4977
-13.3682
-20.6918
-26.9709
-31.8943
-35.2814
-37.0434
-37.1239
-35.5139
-32.3773
-27.901
-22.3075
-15.8591
-8.85386
-1.61598
5.5217
12.2434
18.2818
23.4524
27.7007
31.0485
33.5318
35.2226
36.2137
36.5963
36.4479
35.8281
34.7875
33.3878
31.709
29.928
28.5087
27.0438
25.0725
22.0818
17.9862
13.7848
11.3243
11.5112
12.7661
11.7997
5.48414
-9.49295
-28.5002
-44.0235
-49.3045
-45.0203
-33.9653
-21.023
-9.43833
-0.483584
5.84365
10.0416
12.7454
14.4392
15.5059
16.1992
16.6732
17.0212
17.3022
17.5568
17.8115
18.0753
18.3681
18.6457
-25.9304
-26.2835
-26.9633
-28.4005
-30.5456
-32.8741
-34.7689
-35.8179
-35.8271
-34.7117
-32.6786
-30.2758
-28.1698
-26.8038
-26.1686
-25.9084
-25.8546
-25.9685
-26.0395
-26.1472
-26.4777
-26.9514
-27.0185
-26.6619
-26.5285
-27.0544
-28.3991
-30.5385
-33.3069
-36.4603
-39.7357
-42.8947
-45.7462
-48.1526
-50.0237
-51.3096
-51.9948
-52.0928
-51.6533
-50.7694
-49.5207
-47.9062
-45.9543
-43.7049
-41.2035
-38.4943
-35.6166
-32.604
-29.4834
-26.2761
-22.9985
-19.6648
-16.2893
-12.8895
-9.48857
-6.11722
-2.81392
0.376809
3.40792
6.23464
8.81945
11.1359
13.1707
14.9229
16.4027
17.6284
18.624
19.4162
20.0322
20.499
20.8438
21.0878
21.2484
21.3416
21.381
21.3781
21.3426
21.2828
21.2057
21.1172
21.0223
20.9258
20.8308
20.7319
20.6266
20.5214
20.4018
20.2546
20.0779
19.9044
19.7637
19.6784
19.6369
19.637
19.6526
19.6763
19.7015
19.7203
19.7254
19.7148
19.7041
19.7183
19.7827
19.9078
20.0764
20.2395
20.337
20.3359
20.2751
20.0434
19.2765
17.2199
13.3471
7.52976
0.142648
-7.95281
-15.9142
-23.1275
-29.1868
-33.8286
-36.8962
-38.3245
-38.1487
-36.4356
-33.2467
-28.7319
-23.1021
-16.6152
-9.56704
-2.28018
4.91216
11.6902
17.7804
22.9964
27.2855
30.6671
33.1742
34.8842
35.8928
36.2924
36.1607
35.5577
34.5305
33.1296
31.4453
29.5737
27.4603
25.5111
23.635
21.1285
17.3922
13.3213
11.1711
11.9286
13.5176
12.5546
5.58064
-10.9419
-32.4363
-48.3173
-52.6192
-46.93
-34.9952
-21.4571
-9.52891
-0.406897
5.97769
10.1713
12.8398
14.5014
15.5441
16.221
16.6844
17.0257
17.3018
17.5522
17.8033
18.0627
18.3431
18.5737
-27.3056
-28.4536
-31.6842
-35.1392
-37.8633
-39.9199
-41.3478
-42.0673
-42.0083
-40.9267
-38.6162
-35.2833
-31.508
-28.1013
-25.7591
-24.5119
-23.868
-23.9393
-24.9195
-25.8283
-26.7726
-28.0128
-29.4196
-30.9403
-32.6733
-34.6794
-36.9443
-39.392
-41.9188
-44.42
-46.8036
-48.9928
-50.9224
-52.5346
-53.7787
-54.6086
-54.9814
-54.8665
-54.2652
-53.1981
-51.7167
-49.8689
-47.703
-45.2677
-42.6108
-39.7767
-36.8047
-33.7265
-30.5664
-27.341
-24.0608
-20.7321
-17.3608
-13.9561
-10.5343
-7.12186
-3.75656
-0.486077
2.63642
5.55854
8.23542
10.635
12.7406
14.5508
16.0768
17.3391
18.3639
19.18
19.8169
20.2975
20.6615
20.9211
21.0957
21.2018
21.2531
21.2611
21.2357
21.185
21.1161
21.0346
20.9455
20.8525
20.7587
20.666
20.5739
20.4767
20.3635
20.2278
20.0902
19.9633
19.8612
19.7857
19.746
19.7327
19.7336
19.7416
19.7491
19.7494
19.7402
19.7291
19.7274
19.7517
19.8128
19.9136
20.0428
20.1631
20.2376
20.3074
20.2165
19.7395
18.2276
14.8161
9.38388
2.64467
-4.76316
-12.2985
-19.5282
-26.0934
-31.6832
-36.0315
-38.9306
-40.2617
-40.0136
-38.2195
-34.961
-30.3834
-24.6902
-18.1336
-11.0052
-3.62533
3.67182
10.5604
16.7572
22.0694
26.4388
29.8855
32.4414
34.1898
35.2315
35.6626
35.5613
34.9856
33.9803
32.5873
30.8628
28.9072
26.8224
24.6991
22.2677
19.3569
16.0073
12.9424
11.5116
12.2312
13.6259
12.3175
3.69869
-15.2339
-37.7603
-52.6739
-56.0273
-49.179
-36.3676
-22.0764
-9.67289
-0.337483
6.09776
10.2797
12.913
14.5453
15.5683
16.2336
16.6912
17.0304
17.3064
17.5569
17.8047
18.0536
18.3055
18.4823
-31.0245
-33.3992
-36.6902
-39.3542
-41.3613
-42.873
-43.9082
-44.434
-44.2814
-43.187
-40.9759
-37.713
-33.9536
-30.2488
-27.2679
-25.7058
-25.463
-25.7339
-26.7935
-28.4294
-30.4697
-32.7865
-35.2495
-37.7415
-40.1952
-42.5883
-44.9198
-47.193
-49.4031
-51.5277
-53.5248
-55.3354
-56.8911
-58.1228
-58.9698
-59.3861
-59.3419
-58.8259
-57.8494
-56.4422
-54.6423
-52.4967
-50.0582
-47.3815
-44.5197
-41.5212
-38.427
-35.2689
-32.0683
-28.8363
-25.5746
-22.2783
-18.9395
-15.5531
-12.123
-8.66683
-5.22
-1.83442
1.42648
4.49684
7.31852
9.84933
12.067
13.9687
15.5676
16.8872
17.957
18.8089
19.4771
19.9918
20.3804
20.6634
20.8599
20.9861
21.0558
21.0807
21.0707
21.0339
20.9772
20.9064
20.8264
20.7407
20.6518
20.5601
20.4646
20.364
20.2558
20.1389
20.0194
19.9053
19.8082
19.7354
19.6912
19.672
19.6719
19.6847
19.7035
19.7223
19.7371
19.7504
19.771
19.81
19.8724
19.9569
20.0517
20.1411
20.2391
20.2457
19.7465
18.2307
14.9314
9.91676
3.83455
-2.80712
-9.73213
-16.7037
-23.4425
-29.6258
-34.928
-39.0593
-41.7939
-43.0043
-42.665
-40.7843
-37.4447
-32.7889
-27.014
-20.3651
-13.1276
-5.61837
1.82673
8.87374
15.226
20.6831
25.178
28.7231
31.3556
33.1645
34.2575
34.7358
34.6792
34.1435
33.1672
31.7865
30.0536
28.0338
25.7847
23.379
20.783
17.869
14.6563
11.7506
10.1606
10.3883
11.2727
9.15263
-0.663682
-19.9521
-41.5937
-55.4914
-58.0656
-50.5892
-37.0513
-22.2943
-9.67322
-0.280998
6.13321
10.2814
12.888
14.5099
15.5334
16.2051
16.6718
17.0202
17.3042
17.5574
17.8008
18.037
18.2607
18.3993
-34.064
-36.2188
-38.1443
-39.8054
-41.2432
-42.4654
-43.3176
-43.782
-43.7775
-42.9672
-41.2485
-38.7499
-35.8252
-33.0513
-31.1217
-30.348
-30.4451
-31.2352
-32.7407
-34.7963
-37.1798
-39.7075
-42.2518
-44.7442
-47.1639
-49.5141
-51.8022
-54.0274
-56.1716
-58.1979
-60.053
-61.6734
-62.9924
-63.9455
-64.4756
-64.5408
-64.1254
-63.2281
-61.8755
-60.0947
-57.9285
-55.4319
-52.6672
-49.6992
-46.5903
-43.3966
-40.1641
-36.9265
-33.7032
-30.4995
-27.3064
-24.1036
-20.8639
-17.5605
-14.1759
-10.7114
-7.19438
-3.68022
-0.246501
3.01996
6.03941
8.75265
11.1275
13.1582
14.8596
16.2594
17.3925
18.2975
19.013
19.5706
19.9957
20.3117
20.5382
20.6918
20.7866
20.8344
20.845
20.8268
20.7867
20.7305
20.6628
20.5873
20.5066
20.422
20.3343
20.2429
20.1468
20.0462
19.9459
19.8534
19.7759
19.7182
19.6824
19.6667
19.667
19.6782
19.6955
19.714
19.7306
19.7484
19.7776
19.8275
19.8972
19.9753
20.0494
20.1291
20.1751
19.8508
18.4119
15.3097
10.5596
4.9008
-1.25282
-7.74554
-14.4728
-21.2419
-27.7717
-33.742
-38.8391
-42.7854
-45.3617
-46.4437
-46.0011
-44.0273
-40.6008
-35.8599
-29.9953
-23.2433
-15.8806
-8.21831
-0.592802
6.6526
13.2045
18.8518
23.5145
27.1933
29.929
31.8186
32.9786
33.5167
33.5146
33.026
32.0836
30.7139
28.9531
26.8557
24.4881
21.9122
19.127
16.1012
12.9169
9.93788
7.85636
7.11995
6.84009
3.86204
-5.78851
-23.3519
-42.9108
-55.5235
-57.3389
-49.6851
-36.1567
-21.6199
-9.28766
-0.137118
6.11635
10.1814
12.7595
14.387
15.4318
16.1284
16.6181
16.9848
17.2814
17.5409
17.7825
18.0081
18.2077
18.3205
-33.8757
-35.1112
-36.2589
-37.4423
-38.5921
-39.6284
-40.4465
-40.9558
-41.0662
-40.6881
-39.8075
-38.5181
-37.0968
-35.9348
-35.3048
-35.306
-36.0057
-37.3712
-39.2311
-41.4128
-43.7742
-46.2164
-48.6772
-51.1289
-53.5632
-55.9753
-58.3528
-60.6697
-62.8856
-64.9469
-66.7908
-68.3489
-69.5522
-70.3343
-70.6372
-70.4198
-69.6683
-68.3986
-66.6225
-64.3853
-61.7482
-58.7849
-55.5752
-52.1998
-48.7353
-45.2499
-41.7999
-38.4265
-35.1524
-31.9801
-28.8906
-25.8458
-22.7931
-19.6744
-16.4386
-13.0564
-9.53527
-5.92683
-2.32294
1.16189
4.41606
7.35341
9.92512
12.1187
13.9499
15.4524
16.6693
17.647
18.4258
19.0368
19.5092
19.8676
20.1325
20.3209
20.4473
20.5237
20.56
20.5649
20.5454
20.5073
20.4555
20.3938
20.3249
20.2505
20.1718
20.0893
20.0035
19.9161
19.8306
19.7522
19.6859
19.6361
19.6049
19.5922
19.5955
19.6113
19.6352
19.6629
19.692
19.7258
19.7724
19.837
19.9136
19.9872
20.0567
20.1164
19.9979
18.9016
16.2405
11.7693
6.29572
0.342658
-5.94548
-12.5185
-19.2698
-25.9916
-32.4116
-38.2373
-43.1823
-46.9846
-49.4294
-50.3949
-49.8525
-47.7868
-44.2742
-39.4501
-33.4989
-26.6471
-19.1598
-11.3385
-3.51737
3.95138
10.7363
16.6108
21.4795
25.3238
28.1874
30.176
31.4166
32.0243
32.0837
31.6457
30.7361
29.3725
27.5808
25.4043
22.9018
20.1357
17.1466
13.9728
10.7345
7.70113
5.26814
3.62317
2.09992
-1.53851
-10.3283
-25.2985
-41.8659
-52.5372
-53.5985
-46.1206
-33.4144
-19.8832
-8.40157
0.177872
6.11076
10.0299
12.565
14.2024
15.2783
16.0094
16.5283
16.9173
17.2289
17.4956
17.7357
17.9515
18.1325
18.2326
-30.4848
-31.1131
-32.0302
-33.0416
-34.0605
-35.0265
-35.9009
-36.6345
-37.172
-37.4648
-37.5119
-37.3978
-37.2966
-37.4103
-37.9076
-38.8913
-40.3654
-42.228
-44.3636
-46.683
-49.1231
-51.6487
-54.2421
-56.8931
-59.5901
-62.3128
-65.0285
-67.6895
-70.2339
-72.5874
-74.6665
-76.3839
-77.653
-78.395
-78.5454
-78.0633
-76.9416
-75.1941
-72.8598
-70.007
-66.7225
-63.1053
-59.2599
-55.2893
-51.2894
-47.3437
-43.5203
-39.8698
-36.4228
-33.1867
-30.1421
-27.2406
-24.4068
-21.5474
-18.5665
-15.3874
-11.9764
-8.3638
-4.64575
-0.965144
2.52598
5.70354
8.49323
10.8709
12.8525
14.4788
15.8016
16.8693
17.7224
18.3981
18.9277
19.3371
19.6479
19.8778
20.0416
20.1516
20.2184
20.2505
20.2553
20.2388
20.2061
20.1611
20.107
20.0461
19.9802
19.9105
19.8386
19.7663
19.6968
19.6341
19.5823
19.5449
19.524
19.5195
19.5301
19.553
19.5844
19.6207
19.6601
19.7062
19.7655
19.8402
19.9209
19.9955
20.0611
20.0563
19.5311
17.4798
13.5579
8.21883
2.29936
-3.94421
-10.4674
-17.2201
-24.0681
-30.8008
-37.1683
-42.9072
-47.7535
-51.4558
-53.801
-54.6694
-54.0377
-51.8852
-48.2905
-43.3894
-37.3621
-30.4248
-22.8282
-14.86
-6.84755
0.850542
7.88732
14.0146
19.1181
23.1529
26.1641
28.266
29.5967
30.28
30.4032
30.0146
29.1331
27.7665
25.9303
23.6597
21.0116
18.0571
14.868
11.5251
8.16979
5.02187
2.31199
0.0606684
-2.27459
-6.21218
-13.8223
-25.7903
-38.7728
-47.0216
-47.3246
-40.4236
-29.1969
-17.2834
-7.07598
0.681599
6.16586
9.88204
12.3526
13.9952
15.1028
15.8673
16.4131
16.8216
17.1453
17.4167
17.6536
17.8602
18.0277
18.1234
-24.7567
-25.3129
-26.192
-27.2518
-28.3914
-29.5431
-30.6776
-31.7632
-32.7751
-33.7002
-34.5643
-35.4456
-36.4613
-37.7257
-39.3005
-41.1765
-43.2987
-45.6108
-48.0778
-50.6813
-53.417
-56.2894
-59.3023
-62.451
-65.7157
-69.0584
-72.4212
-75.7263
-78.8782
-81.7687
-84.2833
-86.3091
-87.7397
-88.4824
-88.4689
-87.6699
-86.0955
-83.7726
-80.7643
-77.1647
-73.09
-68.6689
-64.0332
-59.3087
-54.6093
-50.0332
-45.6621
-41.5601
-37.7712
-34.3144
-31.1767
-28.3091
-25.6252
-23.0065
-20.316
-17.4215
-14.2294
-10.7243
-6.98667
-3.17838
0.507569
3.90418
6.90441
9.4682
11.6112
13.3773
14.8175
15.9827
16.9199
17.6691
18.2637
18.7311
19.0938
19.3703
19.5761
19.724
19.8248
19.8875
19.9198
19.928
19.9173
19.892
19.8557
19.811
19.7603
19.7054
19.6483
19.5913
19.5371
19.489
19.4507
19.425
19.4139
19.4184
19.4376
19.4697
19.5116
19.5603
19.6144
19.6771
19.7531
19.8415
19.932
20.0146
20.0717
19.8959
18.7447
15.723
10.7792
4.87305
-1.40966
-7.95806
-14.7546
-21.7213
-28.7015
-35.4906
-41.8601
-47.5693
-52.3702
-56.0183
-58.2991
-59.0935
-58.3852
-56.1508
-52.4768
-47.5043
-41.4126
-34.4092
-26.7284
-18.6393
-10.4575
-2.54398
4.74508
11.139
16.4911
20.7315
23.9028
26.1269
27.5529
28.3132
28.4987
28.1544
27.2919
25.9096
24.014
21.6343
18.8271
15.6731
12.2688
8.7279
5.2032
1.89563
-1.04767
-3.67324
-6.42423
-10.2937
-16.523
-25.4166
-34.7157
-40.3985
-39.9811
-33.8413
-24.4263
-14.3371
-5.5379
1.30784
6.28749
9.76947
12.1618
13.7987
14.9262
15.7145
16.2805
16.7027
17.0332
17.305
17.5361
17.7325
17.888
17.9819
-17.8735
-18.4056
-19.318
-20.4827
-21.8012
-23.225
-24.7084
-26.2386
-27.8163
-29.4608
-31.208
-33.1017
-35.1733
-37.425
-39.8323
-42.366
-45.0117
-47.7742
-50.6729
-53.7366
-56.9965
-60.4777
-64.19
-68.122
-72.2361
-76.4671
-80.7223
-84.8855
-88.8223
-92.3892
-95.4435
-97.8536
-99.5004
-100.277
-100.108
-98.9747
-96.8928
-93.9025
-90.0985
-85.6135
-80.6069
-75.2498
-69.7104
-64.1404
-58.6671
-53.391
-48.3907
-43.7306
-39.4649
-35.6324
-32.2421
-29.2588
-26.5962
-24.1206
-21.6637
-19.0461
-16.1138
-12.7922
-9.12579
-5.27867
-1.47262
2.08752
5.26298
7.99749
10.2962
12.1967
13.7525
15.0183
16.0437
16.8709
17.5348
18.064
18.4822
18.8086
19.0594
19.2479
19.3854
19.4813
19.5435
19.5787
19.5924
19.5893
19.5731
19.5471
19.5139
19.4759
19.4354
19.3948
19.3569
19.3246
19.301
19.2887
19.29
19.3059
19.3365
19.3807
19.4361
19.5001
19.5718
19.6534
19.7483
19.8542
19.9614
20.0602
20.0802
19.6131
17.7502
13.8494
8.17888
1.86349
-4.74823
-11.6115
-18.698
-25.8943
-33.032
-39.9174
-46.3401
-52.0749
-56.8835
-60.5238
-62.7771
-63.5221
-62.7505
-60.4373
-56.6828
-51.6392
-45.4902
-38.4371
-30.6983
-22.5218
-14.2062
-6.10662
1.41355
8.07154
13.6715
18.1211
21.4567
23.8052
25.3262
26.1606
26.4024
26.0934
25.2374
23.824
21.8515
19.3446
16.3619
12.9943
9.36029
5.60133
1.88215
-1.60936
-4.75221
-7.595
-10.4866
-14.0484
-18.9427
-25.188
-31.2602
-34.5442
-33.3476
-27.9329
-20.0302
-11.5776
-4.05379
1.95454
6.45711
9.70707
12.0082
13.6224
14.7563
15.5591
16.1375
16.5666
16.8982
17.1657
17.3875
17.5713
17.714
17.8038
-11.0387
-11.528
-12.4323
-13.645
-15.103
-16.7724
-18.6439
-20.716
-22.9879
-25.4531
-28.0923
-30.8705
-33.7428
-36.6701
-39.6359
-42.6518
-45.7526
-48.9874
-52.4128
-56.0862
-60.0557
-64.3511
-68.9751
-73.8982
-79.0557
-84.3484
-89.6466
-94.7965
-99.6291
-103.97
-107.653
-110.527
-112.462
-113.329
-113.035
-111.576
-108.958
-105.239
-100.546
-95.0565
-88.9816
-82.5494
-75.9809
-69.4695
-63.1657
-57.1712
-51.546
-46.3288
-41.5586
-37.2811
-33.5319
-30.3058
-27.5333
-25.0749
-22.7389
-20.3145
-17.6006
-14.472
-10.9293
-7.1195
-3.27203
0.381533
3.68144
6.54815
8.9731
10.9901
12.6516
14.0127
15.1237
16.0278
16.7608
17.3522
17.8265
18.2037
18.5006
18.731
18.9066
19.0373
19.1312
19.1953
19.2354
19.2564
19.2624
19.2569
19.243
19.2235
19.2008
19.1777
19.1566
19.1405
19.132
19.1339
19.1483
19.1769
19.2204
19.2783
19.3494
19.4314
19.5235
19.6275
19.7457
19.8759
20.0102
20.1283
20.0713
19.2448
16.6998
12.0606
5.93262
-0.735686
-7.66371
-14.8423
-22.2158
-29.6426
-36.9543
-43.9705
-50.4929
-56.3036
-61.1682
-64.8434
-67.105
-67.8267
-67.0072
-64.6174
-60.7778
-55.6579
-49.451
-42.3574
-34.5824
-26.3543
-17.9489
-9.70875
-1.98788
4.90965
10.7416
15.3921
18.8868
21.3549
22.9649
23.8661
24.1545
23.8684
23.0039
21.5419
19.4738
16.8213
13.646
10.05
6.17134
2.17654
-1.75268
-5.43388
-8.7422
-11.694
-14.5307
-17.6443
-21.3567
-25.5265
-29.078
-30.355
-28.3385
-23.2976
-16.4667
-9.26488
-2.76275
2.5526
6.64324
9.67753
11.8809
13.4626
14.593
15.4018
15.9857
16.4163
16.7446
17.0043
17.214
17.3831
17.5107
17.5907
-5.50297
-5.92053
-6.7378
-7.91955
-9.47014
-11.3907
-13.6762
-16.3029
-19.2232
-22.3641
-25.6384
-28.9643
-32.2872
-35.5922
-38.9038
-42.2754
-45.7773
-49.4887
-53.4897
-57.8516
-62.6262
-67.8364
-73.4686
-79.4678
-85.7384
-92.147
-98.5295
-104.698
-110.449
-115.577
-119.891
-123.223
-125.439
-126.405
-126.008
-124.318
-121.247
-116.873
-111.34
-104.86
-97.6971
-90.1409
-82.4786
-74.9625
-67.7854
-61.0645
-54.8437
-49.1217
-43.8968
-39.1981
-35.0747
-31.5505
-28.5791
-26.0251
-23.6873
-21.3583
-18.7759
-15.7985
-12.3838
-8.64729
-4.81344
-1.12351
2.24224
5.19084
7.7041
9.81025
11.5582
13.0011
14.1882
15.1625
15.9599
16.6104
17.1387
17.5656
17.9081
18.1805
18.3948
18.5611
18.6878
18.7821
18.8499
18.8965
18.9263
18.9429
18.9498
18.95
18.9463
18.9413
18.9378
18.9385
18.9461
18.9631
18.992
19.0346
19.0924
19.1658
19.2542
19.3564
19.4717
19.6013
19.7475
19.9081
20.0765
20.2078
20.0452
18.8627
15.7499
10.5599
4.06044
-2.90825
-10.1354
-17.6068
-25.2395
-32.8859
-40.3836
-47.5585
-54.2166
-60.1401
-65.0965
-68.8413
-71.1447
-71.8701
-71.0191
-68.556
-64.6282
-59.4269
-53.1604
-46.0332
-38.242
-29.9989
-21.5548
-13.224
-5.3414
1.75446
7.78936
12.6208
16.2601
18.8359
20.5238
21.4799
21.802
21.5238
20.6337
19.1045
16.9218
14.1055
10.7209
6.88181
2.74522
-1.49852
-5.64692
-9.50994
-12.9469
-15.9362
-18.6026
-21.1838
-23.8274
-26.3437
-27.976
-27.6831
-24.9116
-19.977
-13.814
-7.46512
-1.71372
3.0615
6.81191
9.65599
11.7661
13.3102
14.4301
15.2386
15.8237
16.2527
16.5756
16.8257
17.0221
17.175
17.2853
17.3494
-1.92747
-2.24261
-2.94107
-4.08195
-5.70823
-7.83517
-10.4398
-13.4547
-16.773
-20.2679
-23.8227
-27.3586
-30.8488
-34.3165
-37.8214
-41.4457
-45.2836
-49.4332
-53.9865
-59.0186
-64.5765
-70.6693
-77.2617
-84.2718
-91.5737
-99.0023
-106.36
-113.425
-119.959
-125.731
-130.534
-134.207
-136.639
-137.729
-137.378
-135.558
-132.19
-127.334
-121.14
-113.839
-105.739
-97.1867
-88.5322
-80.0884
-72.0978
-64.7069
-57.9581
-51.8162
-46.2316
-41.1982
-36.7576
-32.9471
-29.7407
-27.0258
-24.6153
-22.2701
-19.7407
-16.8422
-13.512
-9.84533
-6.05538
-2.38102
0.994773
3.97441
6.53401
8.69617
10.505
12.0102
13.2587
14.2922
15.146
15.8498
16.4284
16.9023
17.289
17.6027
17.8555
18.0577
18.2177
18.343
18.4396
18.5129
18.5675
18.6074
18.6362
18.6571
18.673
18.6869
18.7015
18.7195
18.7435
18.7761
18.82
18.8774
18.9502
19.0397
19.1464
19.2698
19.4096
19.5669
19.7437
19.939
20.1436
20.2811
20.0092
18.5273
14.99
9.40374
2.61263
-4.62201
-12.1224
-19.8572
-27.7248
-35.578
-43.2588
-50.5964
-57.4026
-63.4573
-68.5274
-72.3651
-74.7318
-75.4795
-74.6099
-72.0871
-68.0847
-62.8131
-56.4969
-49.3514
-41.5728
-33.3528
-24.9127
-16.5309
-8.54028
-1.29493
4.90386
9.8865
13.6476
16.3126
18.0622
19.0579
19.3978
19.1105
18.1767
16.5616
14.246
11.2488
7.6401
3.54501
-0.860569
-5.36226
-9.73357
-13.7669
-17.2986
-20.2732
-22.7102
-24.7283
-26.3861
-27.5207
-27.6362
-26.1084
-22.6833
-17.7086
-11.9312
-6.14026
-0.916312
3.45627
6.93857
9.62335
11.6492
13.1546
14.2602
15.0649
15.6488
16.0755
16.3928
16.6338
16.8172
16.9539
17.0456
17.0889
-0.153115
-0.389189
-1.0073
-2.10302
-3.75018
-5.96648
-8.70609
-11.8629
-15.2919
-18.8458
-22.4118
-25.9346
-29.4184
-32.9143
-36.5042
-40.2883
-44.3751
-48.8723
-53.8766
-59.4609
-65.6629
-72.4759
-79.8432
-87.6583
-95.7686
-103.981
-112.066
-119.771
-126.835
-133.008
-138.084
-141.924
-144.462
-145.637
-145.339
-143.464
-139.945
-134.832
-128.259
-120.464
-111.772
-102.567
-93.243
-84.1566
-75.5875
-67.7101
-60.5782
-54.1438
-48.3225
-43.0683
-38.3984
-34.3563
-30.9408
-28.0617
-25.5353
-23.117
-20.5545
-17.6564
-14.356
-10.7404
-7.00949
-3.38717
-0.046496
2.9189
5.48406
7.66762
9.50915
11.0543
12.347
13.4269
14.3277
15.0781
15.7022
16.2203
16.6491
17.003
17.2938
17.5317
17.7253
17.882
18.0079
18.1086
18.1889
18.2528
18.3041
18.3463
18.3825
18.4156
18.4485
18.4839
18.5245
18.5731
18.6322
18.7046
18.7926
18.8983
19.0231
19.1675
19.3317
19.517
19.7247
19.9548
20.1923
20.3313
19.9694
18.2741
14.4594
8.6172
1.61285
-5.84794
-13.5833
-21.5434
-29.6202
-37.6677
-45.528
-53.0294
-59.9779
-66.1569
-71.3324
-75.2541
-77.6762
-78.4496
-77.5887
-75.0489
-71.0191
-65.718
-59.3842
-52.2445
-44.498
-36.324
-27.9188
-19.5334
-11.489
-4.14692
2.16996
7.26661
11.12
13.8503
15.6412
16.658
16.9978
16.6834
15.6877
13.9688
11.5037
8.31111
4.46606
0.105057
-4.57739
-9.34234
-13.9367
-18.1304
-21.7328
-24.6533
-26.8317
-28.2979
-29.0606
-29.0118
-27.8728
-25.3254
-21.3216
-16.2239
-10.6498
-5.21288
-0.350097
3.73066
7.0082
9.5643
11.5174
12.9866
14.0769
14.8767
15.4594
15.8844
16.1978
16.4314
16.6037
16.7255
16.7986
16.8185
0.425281
0.248038
-0.301584
-1.33293
-2.93541
-5.12245
-7.83266
-10.94
-14.2872
-17.729
-21.1683
-24.5717
-27.9637
-31.4106
-35.0054
-38.8585
-43.0841
-47.7933
-53.0821
-59.0187
-65.6315
-72.8999
-80.7502
-89.0572
-97.6482
-106.309
-114.789
-122.815
-130.111
-136.429
-141.571
-145.408
-147.889
-148.985
-148.657
-146.855
-143.37
-138.309
-131.733
-123.864
-115.028
-105.624
-96.0673
-86.7365
-77.9304
-69.8406
-62.5335
-55.962
-50.026
-44.6543
-39.8497
-35.6596
-32.0971
-29.0805
-26.4272
-23.894
-21.2371
-18.2777
-14.9614
-11.3767
-7.71022
-4.16488
-0.894663
2.01809
4.55207
6.72464
8.57186
10.1355
11.456
12.57
13.5089
14.2997
14.9652
15.5243
15.9935
16.3862
16.7143
16.9876
17.2146
17.4027
17.5582
17.6866
17.7928
17.8811
17.9554
18.0191
18.0757
18.1281
18.1793
18.2321
18.2892
18.3534
18.4276
18.5146
18.6171
18.7381
18.8796
19.0432
19.23
19.4409
19.6772
19.9381
20.2019
20.3419
19.9252
18.1172
14.1722
8.20799
1.06704
-6.57132
-14.4977
-22.6423
-30.8936
-39.1058
-47.1217
-54.769
-61.8495
-68.1423
-73.4124
-77.4126
-79.9007
-80.7196
-79.8974
-77.3732
-73.351
-68.0563
-61.7364
-54.6282
-46.9356
-38.832
-30.4944
-22.1502
-14.105
-6.72082
-0.336208
4.8318
8.74293
11.5107
13.32
14.3376
14.6583
14.2984
13.2229
11.3841
8.75559
5.35644
1.26658
-3.36633
-8.32947
-13.3592
-18.1743
-22.5202
-26.18
-29.0193
-30.9303
-31.8769
-31.8432
-30.7778
-28.5759
-25.1524
-20.6148
-15.3369
-9.84148
-4.6158
0.00874031
3.88492
7.01152
9.46802
11.3619
12.7999
13.8764
14.6721
15.2548
15.6804
15.9924
16.2212
16.3851
16.4943
16.5499
16.5462
0.577825
0.431513
-0.0633064
-1.02182
-2.53958
-4.6249
-7.21315
-10.1768
-13.3625
-16.635
-19.9102
-23.1668
-26.4385
-29.7976
-33.3314
-37.1659
-41.4086
-46.1706
-51.546
-57.5991
-64.3527
-71.7794
-79.7976
-88.2733
-97.0253
-105.831
-114.436
-122.563
-129.937
-136.312
-141.497
-145.366
-147.856
-148.965
-148.69
-146.913
-143.497
-138.486
-131.991
-124.226
-115.509
-106.231
-96.8013
-87.5905
-78.8911
-70.8887
-63.6463
-57.1159
-51.1969
-45.8192
-40.9881
-36.7517
-33.1209
-30.0093
-27.2342
-24.5624
-21.7716
-18.7113
-15.3509
-11.7866
-8.19201
-4.74519
-1.57536
1.25193
3.7232
5.85705
7.68715
9.25135
10.5861
11.7241
12.6939
13.5197
14.2225
14.82
15.3273
15.7575
16.1216
16.4295
16.6894
16.9086
17.0934
17.2494
17.3816
17.4943
17.5915
17.6768
17.7536
17.8251
17.8943
17.964
18.0371
18.1164
18.2049
18.3055
18.4215
18.5558
18.7116
18.8914
19.0968
19.3288
19.5883
19.8729
20.1552
20.2996
19.8721
18.0574
14.1272
8.16968
0.974036
-6.78588
-14.856
-23.1411
-31.5261
-39.8668
-48.0058
-55.7675
-62.9487
-69.325
-74.6605
-78.7174
-81.2723
-82.1593
-81.402
-78.9369
-74.9698
-69.7274
-63.4617
-56.4191
-48.8097
-40.8047
-32.5682
-24.3078
-16.3133
-8.94258
-2.54391
2.64837
6.57877
9.35358
11.1567
12.1541
12.4366
12.0131
10.8414
8.86836
6.06514
2.45147
-1.88805
-6.79504
-12.0389
-17.3313
-22.3625
-26.8522
-30.5598
-33.3057
-34.9566
-35.4249
-34.6899
-32.754
-29.6472
-25.4602
-20.4222
-14.922
-9.41556
-4.29681
0.182303
3.92329
6.94473
9.3287
11.1778
12.5916
13.6579
14.4518
15.0368
15.4654
15.7789
16.0061
16.1645
16.2636
16.304
16.2781
0.818145
0.66919
0.191569
-0.707407
-2.11652
-4.05501
-6.47054
-9.24895
-12.2505
-15.3503
-18.47
-21.5887
-24.7377
-27.9864
-31.4264
-35.1626
-39.3058
-43.9629
-49.2233
-55.1479
-61.7576
-69.0248
-76.869
-85.1588
-93.7166
-102.326
-110.742
-118.7
-125.937
-132.218
-137.354
-141.217
-143.733
-144.879
-144.637
-142.891
-139.586
-134.767
-128.553
-121.156
-112.887
-104.112
-95.2114
-86.5225
-78.3044
-70.7133
-63.7928
-57.4933
-51.733
-46.4703
-41.73
-37.5587
-33.948
-30.7926
-27.9073
-25.0786
-22.1213
-18.9293
-15.5086
-11.968
-8.466
-5.14911
-2.11503
0.592748
2.97158
5.04246
6.83652
8.38696
9.72516
10.8792
11.8737
12.73
13.4667
14.0997
14.6432
15.1092
15.5084
15.8501
16.1424
16.3924
16.6065
16.7901
16.9483
17.0855
17.2058
17.3127
17.4099
17.5004
17.5873
17.6736
17.7621
17.8559
17.9577
18.0708
18.1985
18.3441
18.5112
18.7029
18.9216
19.1686
19.4441
19.7434
20.0347
20.1835
19.7796
18.0493
14.2702
8.45589
1.30871
-6.49948
-14.6575
-23.0347
-31.5098
-39.9388
-48.1621
-55.9994
-63.2449
-69.6715
-75.0414
-79.1278
-81.731
-82.6921
-82.0215
-79.6579
-75.7946
-70.6559
-64.4936
-57.56
-50.0706
-42.1979
-34.0978
-25.9633
-18.0692
-10.7666
-4.40809
0.759598
4.66833
7.41717
9.18745
10.1426
10.3675
9.86322
8.58003
6.46029
3.47315
-0.361065
-4.95335
-10.1353
-15.6589
-21.2116
-26.4551
-31.0821
-34.8297
-37.4811
-38.888
-38.9196
-37.5654
-34.879
-30.9964
-26.1398
-20.6333
-14.8833
-9.30109
-4.21213
0.192437
3.8536
6.80855
9.14469
10.9636
12.3616
13.4226
14.2179
14.808
15.2424
15.5601
15.7885
15.9444