/*--------------------------------*- C++ -*----------------------------------*\
| =========                 |                                                 |
| \\      /  F ield         | OpenFOAM: The Open Source CFD Toolbox           |
|  \\    /   O peration     | Version:  2112                                  |
|   \\  /    A nd           | Website:  www.openfoam.com                      |
|    \\/     M anipulation  |                                                 |
\*---------------------------------------------------------------------------*/
FoamFile
{
    version     2.0;
    format      ascii;
    arch        "LSB;label=32;scalar=64";
    class       surfaceScalarField;
    location    "0.34";
    object      phi;
}
// * * * * * * * * * * * * * * * * * * * * * * * * * * * * * * * * * * * * * //

dimensions      [0 3 -1 0 0 0 0];

oriented        oriented;

internalField   nonuniform List<scalar> 
24170
(
3.03213e-06
1.56277e-07
2.8519e-06
1.80232e-07
2.67731e-06
1.74591e-07
2.50616e-06
1.71144e-07
2.33729e-06
1.68875e-07
2.17079e-06
1.66499e-07
2.00608e-06
1.64704e-07
1.84201e-06
1.64069e-07
1.67715e-06
1.64863e-07
1.50988e-06
1.67267e-07
1.33852e-06
1.7136e-07
1.16156e-06
1.76964e-07
9.7807e-07
1.83488e-07
7.88232e-07
1.89839e-07
5.9398e-07
1.94251e-07
3.9888e-07
1.95101e-07
2.10205e-07
1.88675e-07
1.73311e-07
3.68945e-08
3.5016e-06
7.19208e-08
3.55941e-06
1.22429e-07
3.59686e-06
1.3714e-07
3.61436e-06
1.53639e-07
3.61343e-06
1.69812e-07
3.59593e-06
1.83992e-07
3.56308e-06
1.97554e-07
3.51534e-06
2.11816e-07
3.45256e-06
2.27637e-07
3.37404e-06
2.45788e-07
3.27843e-06
2.66973e-07
3.16379e-06
2.91608e-07
3.02773e-06
3.1955e-07
2.86778e-06
3.49787e-07
2.68169e-06
3.80336e-07
2.46872e-06
4.08072e-07
2.22818e-06
4.29216e-07
4.4169e-07
1.9598e-06
3.67759e-06
5.68501e-08
3.69196e-06
1.08057e-07
3.70747e-06
1.21634e-07
3.72558e-06
1.35528e-07
3.74492e-06
1.50466e-07
3.7644e-06
1.64517e-07
3.78304e-06
1.78914e-07
3.79979e-06
1.95065e-07
3.81355e-06
2.13877e-07
3.82317e-06
2.3617e-07
3.82733e-06
2.62811e-07
3.82439e-06
2.94545e-07
3.81217e-06
3.31773e-07
3.78776e-06
3.74191e-07
3.7473e-06
4.208e-07
3.68641e-06
4.68959e-07
3.5986e-06
5.17032e-07
5.57879e-07
3.48241e-06
3.93409e-06
4.81475e-08
3.94104e-06
1.01107e-07
3.94338e-06
1.19292e-07
3.94461e-06
1.34305e-07
3.94512e-06
1.49949e-07
3.94523e-06
1.64406e-07
3.94552e-06
1.78632e-07
3.94644e-06
1.94144e-07
3.94839e-06
2.11925e-07
3.95182e-06
2.32743e-07
3.95725e-06
2.57372e-07
3.9653e-06
2.86503e-07
3.97646e-06
3.20612e-07
3.99091e-06
3.59735e-07
4.00809e-06
4.03622e-07
4.02615e-06
4.50899e-07
4.04184e-06
5.01341e-07
5.50608e-07
4.04911e-06
4.21399e-06
4.128e-08
4.22102e-06
9.40792e-08
4.22335e-06
1.16965e-07
4.22367e-06
1.33988e-07
4.22235e-06
1.51264e-07
4.2192e-06
1.67558e-07
4.21439e-06
1.8344e-07
4.20819e-06
2.0035e-07
4.20085e-06
2.19261e-07
4.19278e-06
2.40812e-07
4.1846e-06
2.65557e-07
4.17718e-06
2.93923e-07
4.17169e-06
3.26102e-07
4.1695e-06
3.61924e-07
4.17215e-06
4.00966e-07
4.18069e-06
4.42365e-07
4.19646e-06
4.85573e-07
5.30633e-07
4.21643e-06
4.51428e-06
3.60866e-08
4.52068e-06
8.76821e-08
4.5233e-06
1.1434e-07
4.5239e-06
1.33389e-07
4.52311e-06
1.52056e-07
4.52066e-06
1.70007e-07
4.51654e-06
1.87555e-07
4.51089e-06
2.06004e-07
4.50381e-06
2.26345e-07
4.49545e-06
2.49167e-07
4.4861e-06
2.74903e-07
4.47619e-06
3.03839e-07
4.46628e-06
3.36008e-07
4.45709e-06
3.71118e-07
4.44947e-06
4.0858e-07
4.4442e-06
4.47641e-07
4.44241e-06
4.87358e-07
5.28346e-07
4.4447e-06
4.8366e-06
3.22055e-08
4.84222e-06
8.20652e-08
4.84497e-06
1.1159e-07
4.84562e-06
1.32738e-07
4.84494e-06
1.52738e-07
4.84279e-06
1.72151e-07
4.83916e-06
1.91188e-07
4.8342e-06
2.10968e-07
4.82808e-06
2.32463e-07
4.82101e-06
2.56237e-07
4.81327e-06
2.82644e-07
4.80522e-06
3.11882e-07
4.79731e-06
3.43926e-07
4.78995e-06
3.78478e-07
4.78354e-06
4.14986e-07
4.77838e-06
4.52801e-07
4.7747e-06
4.91041e-07
5.29804e-07
4.77324e-06
5.18249e-06
2.92996e-08
5.18731e-06
7.72447e-08
5.19008e-06
1.0882e-07
5.19081e-06
1.32002e-07
5.19025e-06
1.53304e-07
5.18839e-06
1.74011e-07
5.18519e-06
1.94387e-07
5.1808e-06
2.15353e-07
5.17545e-06
2.37814e-07
5.16939e-06
2.62298e-07
5.16295e-06
2.89088e-07
5.15653e-06
3.18301e-07
5.15059e-06
3.4986e-07
5.1456e-06
3.83472e-07
5.14194e-06
4.18646e-07
5.13992e-06
4.54826e-07
5.13967e-06
4.91284e-07
5.28023e-07
5.14145e-06
5.55353e-06
2.71088e-08
5.5576e-06
7.31774e-08
5.56032e-06
1.06099e-07
5.56123e-06
1.3109e-07
5.5609e-06
1.53631e-07
5.55944e-06
1.75468e-07
5.55682e-06
1.97007e-07
5.55318e-06
2.18998e-07
5.54875e-06
2.42241e-07
5.54383e-06
2.67221e-07
5.53876e-06
2.94159e-07
5.53395e-06
3.23104e-07
5.52988e-06
3.53939e-07
5.52698e-06
3.86368e-07
5.52568e-06
4.19947e-07
5.52631e-06
4.54193e-07
5.52913e-06
4.88468e-07
5.22845e-07
5.53431e-06
5.95145e-06
2.54345e-08
5.95487e-06
6.97595e-08
5.95752e-06
1.03446e-07
5.95868e-06
1.29929e-07
5.95871e-06
1.53599e-07
5.95779e-06
1.76397e-07
5.9559e-06
1.98891e-07
5.9532e-06
2.21702e-07
5.94993e-06
2.4551e-07
5.94641e-06
2.70746e-07
5.94298e-06
2.97581e-07
5.94007e-06
3.26013e-07
5.93812e-06
3.55893e-07
5.93756e-06
3.86932e-07
5.93878e-06
4.18721e-07
5.94214e-06
4.50836e-07
5.94791e-06
4.82698e-07
5.14429e-07
5.95633e-06
6.37812e-06
2.41227e-08
6.38103e-06
6.68529e-08
6.38364e-06
1.00841e-07
6.38512e-06
1.28444e-07
6.38565e-06
1.53072e-07
6.3854e-06
1.76643e-07
6.38444e-06
1.99854e-07
6.38289e-06
2.23245e-07
6.38103e-06
2.47374e-07
6.37917e-06
2.72607e-07
6.37768e-06
2.99073e-07
6.37696e-06
3.26733e-07
6.37743e-06
3.55416e-07
6.37952e-06
3.84841e-07
6.38361e-06
4.14632e-07
6.39003e-06
4.44415e-07
6.39908e-06
4.73655e-07
5.02511e-07
6.41099e-06
5.74176e-06
2.31953e-08
5.74394e-06
6.46759e-08
5.74615e-06
9.86319e-08
5.74772e-06
1.26876e-07
5.74866e-06
1.52132e-07
5.74911e-06
1.76188e-07
5.74916e-06
1.99806e-07
5.74893e-06
2.23479e-07
5.74863e-06
2.47672e-07
5.74854e-06
2.72691e-07
5.74898e-06
2.98634e-07
5.75028e-06
3.25436e-07
5.75278e-06
3.52916e-07
5.75682e-06
3.808e-07
5.76271e-06
4.08739e-07
5.77073e-06
4.36394e-07
5.78113e-06
4.63263e-07
4.89538e-07
5.7941e-06
6.99909e-06
2.22649e-08
7.00138e-06
6.23797e-08
7.004e-06
9.60184e-08
7.00623e-06
1.24644e-07
7.00799e-06
1.50367e-07
7.00942e-06
1.74759e-07
7.01063e-06
1.98598e-07
7.01177e-06
2.22339e-07
7.01309e-06
2.46353e-07
7.0149e-06
2.70878e-07
7.01756e-06
2.95976e-07
7.02143e-06
3.21563e-07
7.0269e-06
3.4745e-07
7.03432e-06
3.73377e-07
7.04404e-06
3.99021e-07
7.05636e-06
4.24078e-07
7.07154e-06
4.48083e-07
4.7125e-07
7.08982e-06
8.53182e-06
2.12908e-08
8.53436e-06
5.98457e-08
8.53758e-06
9.27935e-08
8.54082e-06
1.21404e-07
8.54391e-06
1.47283e-07
8.54693e-06
1.71731e-07
8.55005e-06
1.95485e-07
8.55343e-06
2.18952e-07
8.55737e-06
2.42419e-07
8.56219e-06
2.66052e-07
8.56829e-06
2.89876e-07
8.57607e-06
3.13789e-07
8.58591e-06
3.37604e-07
8.59821e-06
3.61077e-07
8.61332e-06
3.83915e-07
8.63154e-06
4.05853e-07
8.65316e-06
4.26463e-07
4.45989e-07
8.67842e-06
1.04003e-05
2.0186e-08
1.04033e-05
5.68288e-08
1.04076e-05
8.85796e-08
1.04123e-05
1.16609e-07
1.04175e-05
1.4214e-07
1.0423e-05
1.66188e-07
1.04291e-05
1.89387e-07
1.0436e-05
2.12087e-07
1.04439e-05
2.34494e-07
1.04533e-05
2.56707e-07
1.04644e-05
2.78713e-07
1.04778e-05
3.004e-07
1.04938e-05
3.21589e-07
1.05129e-05
3.42056e-07
1.05352e-05
3.61548e-07
1.05612e-05
3.79841e-07
1.05911e-05
3.96562e-07
4.11978e-07
1.06251e-05
1.26782e-05
1.87991e-08
1.26821e-05
5.29105e-08
1.26879e-05
8.27482e-08
1.26951e-05
1.09422e-07
1.27034e-05
1.33869e-07
1.27127e-05
1.5684e-07
1.27233e-05
1.78824e-07
1.27353e-05
2.00093e-07
1.2749e-05
2.2078e-07
1.27648e-05
2.40923e-07
1.2783e-05
2.60476e-07
1.28041e-05
2.79324e-07
1.28284e-05
2.97302e-07
1.28562e-05
3.14222e-07
1.28879e-05
3.29872e-07
1.29237e-05
3.44084e-07
1.29637e-05
3.56551e-07
3.67566e-07
1.30081e-05
1.54551e-05
1.68965e-08
1.54606e-05
4.74413e-08
1.5469e-05
7.43295e-08
1.54798e-05
9.86012e-08
1.54927e-05
1.20974e-07
1.55076e-05
1.41956e-07
1.55245e-05
1.61873e-07
1.55437e-05
1.80898e-07
1.55654e-05
1.99094e-07
1.55899e-05
2.16447e-07
1.56175e-05
2.32889e-07
1.56485e-05
2.48306e-07
1.56832e-05
2.62561e-07
1.57219e-05
2.75507e-07
1.57648e-05
2.86991e-07
1.5812e-05
2.96904e-07
1.58635e-05
3.05027e-07
3.11665e-07
1.59194e-05
1.88404e-05
1.41349e-08
1.88484e-05
3.94836e-08
1.88607e-05
6.19363e-08
1.88769e-05
8.2432e-08
1.88964e-05
1.01484e-07
1.8919e-05
1.19367e-07
1.89446e-05
1.36225e-07
1.89734e-05
1.52116e-07
1.90055e-05
1.67035e-07
1.9041e-05
1.80923e-07
1.90802e-05
1.93695e-07
1.91233e-05
2.05248e-07
1.91703e-05
2.15478e-07
1.92216e-05
2.24289e-07
1.9277e-05
2.31588e-07
1.93365e-05
2.37328e-07
1.94002e-05
2.41386e-07
2.44058e-07
1.94678e-05
2.29675e-05
9.92918e-09
2.29794e-05
2.7628e-08
2.29978e-05
4.35696e-08
2.30216e-05
5.85774e-08
2.30502e-05
7.28974e-08
2.30831e-05
8.6504e-08
2.312e-05
9.93298e-08
2.31608e-05
1.11311e-07
2.32054e-05
1.2236e-07
2.3254e-05
1.32369e-07
2.33065e-05
1.41229e-07
2.33629e-05
1.48849e-07
2.34232e-05
1.55156e-07
2.34874e-05
1.60098e-07
2.35553e-05
1.6364e-07
2.36269e-05
1.65791e-07
2.37017e-05
1.66509e-07
1.66055e-07
2.37797e-05
1.68144e-05
6.19233e-09
1.68248e-05
1.72503e-08
1.68406e-05
2.77475e-08
1.68608e-05
3.84051e-08
1.68846e-05
4.91308e-08
1.69115e-05
5.9589e-08
1.69413e-05
6.9555e-08
1.69737e-05
7.8888e-08
1.70086e-05
8.74386e-08
1.70459e-05
9.5049e-08
1.70856e-05
1.01587e-07
1.71275e-05
1.06961e-07
1.71715e-05
1.11106e-07
1.72176e-05
1.13991e-07
1.72657e-05
1.15607e-07
1.73155e-05
1.15986e-07
1.73668e-05
1.15137e-07
1.13288e-07
1.74196e-05
1.46384e-05
2.39011e-09
1.46489e-05
6.7219e-09
1.46646e-05
1.20406e-08
1.46841e-05
1.88682e-08
1.47067e-05
2.65576e-08
1.47319e-05
3.44073e-08
1.47594e-05
4.20837e-08
1.47889e-05
4.93864e-08
1.48202e-05
5.60888e-08
1.48533e-05
6.1976e-08
1.4888e-05
6.68965e-08
1.49242e-05
7.0753e-08
1.49618e-05
7.34848e-08
1.50007e-05
7.50637e-08
1.50409e-05
7.54926e-08
1.5082e-05
7.48129e-08
1.51241e-05
7.30527e-08
7.04068e-08
1.5167e-05
1.27441e-05
-1.57112e-09
1.27549e-05
-4.09773e-09
1.27705e-05
-3.50467e-09
1.27891e-05
2.07165e-10
1.28102e-05
5.45821e-09
1.28334e-05
1.12045e-08
1.28584e-05
1.71196e-08
1.28848e-05
2.2957e-08
1.29125e-05
2.83859e-08
1.29414e-05
3.31164e-08
1.29713e-05
3.6989e-08
1.30021e-05
3.98965e-08
1.30339e-05
4.17697e-08
1.30663e-05
4.25781e-08
1.30995e-05
4.23283e-08
1.31332e-05
4.10694e-08
1.31674e-05
3.88559e-08
3.58663e-08
1.3202e-05
1.10952e-05
-5.8541e-09
1.11066e-05
-1.5449e-08
1.11219e-05
-1.88825e-08
1.11396e-05
-1.74308e-08
1.11591e-05
-1.40481e-08
1.11802e-05
-9.9569e-09
1.12027e-05
-5.35673e-09
1.12262e-05
-5.6414e-10
1.12506e-05
4.00303e-09
1.12758e-05
7.96843e-09
1.13016e-05
1.11996e-08
1.13279e-05
1.35628e-08
1.13547e-05
1.49718e-08
1.13819e-05
1.53842e-08
1.14094e-05
1.48004e-08
1.14372e-05
1.32627e-08
1.14653e-05
1.08301e-08
7.65146e-09
1.14935e-05
9.66009e-06
-1.07331e-08
9.67221e-06
-2.7568e-08
9.68733e-06
-3.39979e-08
9.70389e-06
-3.39939e-08
9.72189e-06
-3.2048e-08
9.74109e-06
-2.91539e-08
9.76111e-06
-2.53789e-08
9.78176e-06
-2.12169e-08
9.80297e-06
-1.72088e-08
9.82463e-06
-1.3685e-08
9.84664e-06
-1.0809e-08
9.86892e-06
-8.71683e-09
9.8914e-06
-7.5129e-09
9.91404e-06
-7.25482e-09
9.93679e-06
-7.95289e-09
9.95963e-06
-9.57006e-09
9.98249e-06
-1.20323e-08
-1.51897e-08
1.00053e-05
8.41126e-06
-1.66442e-08
8.42434e-06
-4.06468e-08
8.43882e-06
-4.8478e-08
8.45416e-06
-4.93326e-08
8.47079e-06
-4.86783e-08
8.48832e-06
-4.66808e-08
8.50633e-06
-4.33954e-08
8.5247e-06
-3.95814e-08
8.54334e-06
-3.58504e-08
8.56216e-06
-3.25038e-08
8.58107e-06
-2.97196e-08
8.60001e-06
-2.76531e-08
8.61892e-06
-2.64279e-08
8.63779e-06
-2.61196e-08
8.65659e-06
-2.67555e-08
8.67533e-06
-2.83072e-08
8.69401e-06
-3.07165e-08
-3.38664e-08
8.71269e-06
7.32475e-06
-2.41103e-08
7.33904e-06
-5.49394e-08
7.35259e-06
-6.20282e-08
7.36645e-06
-6.31927e-08
7.38131e-06
-6.35323e-08
7.3967e-06
-6.20708e-08
7.41237e-06
-5.90643e-08
7.42827e-06
-5.54861e-08
7.44434e-06
-5.19203e-08
7.46047e-06
-4.86299e-08
7.47656e-06
-4.58079e-08
7.49254e-06
-4.36336e-08
7.50836e-06
-4.22511e-08
7.524e-06
-4.17602e-08
7.53946e-06
-4.22193e-08
7.55477e-06
-4.36113e-08
7.56991e-06
-4.58628e-08
-4.87559e-08
7.5848e-06
6.37931e-06
-3.33498e-08
6.39414e-06
-6.97726e-08
6.40682e-06
-7.47095e-08
6.41979e-06
-7.61604e-08
6.43337e-06
-7.71153e-08
6.44716e-06
-7.58626e-08
6.46118e-06
-7.30774e-08
6.47549e-06
-6.97974e-08
6.49005e-06
-6.64878e-08
6.50478e-06
-6.33601e-08
6.51959e-06
-6.06129e-08
6.5344e-06
-5.84439e-08
6.54917e-06
-5.70198e-08
6.56389e-06
-5.64797e-08
6.5786e-06
-5.69336e-08
6.59342e-06
-5.84271e-08
6.60841e-06
-6.08564e-08
-6.40411e-08
6.6237e-06
5.55928e-06
-4.71695e-08
5.57635e-06
-8.6842e-08
5.59427e-06
-9.26274e-08
5.61514e-06
-9.70277e-08
5.6379e-06
-9.9874e-08
5.6616e-06
-9.95682e-08
5.6858e-06
-9.72733e-08
5.71012e-06
-9.41231e-08
5.73426e-06
-9.06275e-08
5.75799e-06
-8.70862e-08
5.78116e-06
-8.37861e-08
5.80372e-06
-8.09973e-08
5.82564e-06
-7.89476e-08
5.84701e-06
-7.78491e-08
5.86797e-06
-7.78873e-08
5.8887e-06
-7.91562e-08
5.90936e-06
-8.15191e-08
-8.53822e-08
5.9307e-06
4.90756e-06
-1.27125e-07
4.97323e-06
-1.52509e-07
5.0281e-06
-1.47496e-07
5.07173e-06
-1.4066e-07
5.10448e-06
-1.32623e-07
5.12812e-06
-1.23209e-07
5.14443e-06
-1.13578e-07
5.15481e-06
-1.0451e-07
5.16043e-06
-9.6245e-08
5.1622e-06
-8.88577e-08
5.16083e-06
-8.24117e-08
5.1568e-06
-7.69692e-08
5.15043e-06
-7.25735e-08
5.14188e-06
-6.93034e-08
5.13127e-06
-6.72819e-08
5.11857e-06
-6.64536e-08
5.10362e-06
-6.65646e-08
-6.77222e-08
5.08596e-06
4.07555e-06
3.92304e-06
3.77555e-06
3.63489e-06
3.50226e-06
3.37905e-06
3.26548e-06
3.16097e-06
3.06472e-06
2.97586e-06
2.89345e-06
2.81648e-06
2.74391e-06
2.6746e-06
2.60732e-06
2.54087e-06
2.4743e-06
2.40658e-06
-3.66437e-07
3.66437e-07
1.68009e-08
-3.83238e-07
1.05497e-06
-1.03817e-06
2.27703e-06
-1.22206e-06
3.36512e-06
-1.08809e-06
4.1823e-06
-8.17183e-07
4.68687e-06
-5.04567e-07
4.87661e-06
-1.89745e-07
4.74265e-06
1.33964e-07
4.29156e-06
4.51086e-07
3.58307e-06
7.08493e-07
2.71264e-06
8.70426e-07
1.81788e-06
8.94765e-07
1.05719e-06
7.60685e-07
5.6696e-07
4.90234e-07
3.89645e-07
1.77315e-07
4.79739e-07
-9.0094e-08
8.50974e-07
-3.71235e-07
1.26238e-06
-4.11405e-07
1.43351e-06
-1.71131e-07
1.38412e-06
4.93913e-08
1.0744e-06
3.09722e-07
4.53872e-07
6.20526e-07
-4.41877e-07
8.95749e-07
-1.50452e-06
1.06264e-06
-2.6625e-06
1.15798e-06
-3.85481e-06
1.19232e-06
-5.02952e-06
1.17471e-06
-6.14554e-06
1.11601e-06
-7.17274e-06
1.02721e-06
-8.09123e-06
9.18482e-07
-8.88965e-06
7.98428e-07
-9.56347e-06
6.73813e-07
-1.01131e-05
5.49676e-07
-1.05427e-05
4.2954e-07
-1.08585e-05
3.15787e-07
-1.10686e-05
2.10108e-07
-1.11826e-05
1.14043e-07
-1.12109e-05
2.82955e-08
-1.11732e-05
-3.77011e-08
-1.10817e-05
-9.1559e-08
-1.09458e-05
-1.35898e-07
-1.07726e-05
-1.73178e-07
-1.05675e-05
-2.05129e-07
-1.03346e-05
-2.32855e-07
-1.00774e-05
-2.57243e-07
-9.79823e-06
-2.79119e-07
-9.49895e-06
-2.99287e-07
-9.18042e-06
-3.18528e-07
-8.84287e-06
-3.37552e-07
-8.48593e-06
-3.5694e-07
-8.10886e-06
-3.77067e-07
-7.71083e-06
-3.9803e-07
-7.29124e-06
-4.1959e-07
-6.85009e-06
-4.41153e-07
-6.38829e-06
-4.61795e-07
-5.90794e-06
-4.80354e-07
-5.41236e-06
-4.95579e-07
-4.90604e-06
-5.06313e-07
-4.39438e-06
-5.11667e-07
-3.88324e-06
-5.11137e-07
-3.37857e-06
-5.04668e-07
-2.88593e-06
-4.92647e-07
-2.41006e-06
-4.75864e-07
-1.95475e-06
-4.55315e-07
-1.52272e-06
-4.3203e-07
-1.11574e-06
-4.06977e-07
-7.34602e-07
-3.81137e-07
-3.79417e-07
-3.55185e-07
-5.04485e-08
-3.28968e-07
2.54179e-07
-3.04628e-07
5.34775e-07
-2.80596e-07
7.92699e-07
-2.57924e-07
1.02925e-06
-2.36555e-07
1.24569e-06
-2.16436e-07
1.44322e-06
-1.97534e-07
1.62301e-06
-1.79786e-07
1.78611e-06
-1.63101e-07
1.93349e-06
-1.47375e-07
2.06606e-06
-1.32574e-07
2.18486e-06
-1.18798e-07
2.28994e-06
-1.05077e-07
2.37424e-06
-8.43038e-08
2.41673e-06
-4.24893e-08
2.39207e-06
2.46604e-08
2.29759e-06
9.44748e-08
2.15296e-06
1.44634e-07
1.98865e-06
1.64314e-07
1.83417e-06
1.54476e-07
1.71143e-06
1.22738e-07
1.63174e-06
7.96943e-08
1.59611e-06
3.56252e-08
1.59783e-06
-1.71779e-09
1.62277e-06
-2.49392e-08
1.66217e-06
-3.94029e-08
1.70864e-06
-4.64661e-08
1.75877e-06
-5.01368e-08
1.81204e-06
-5.32652e-08
1.8709e-06
-5.88654e-08
1.94069e-06
-6.97861e-08
2.03017e-06
-8.94768e-08
2.14966e-06
-1.1949e-07
2.30713e-06
-1.57477e-07
2.5029e-06
-1.95763e-07
2.72527e-06
-2.22373e-07
2.95181e-06
-2.26538e-07
3.15562e-06
-2.03808e-07
3.3078e-06
-1.52185e-07
3.37084e-06
-6.30383e-08
3.24514e-06
1.25699e-07
2.73795e-06
5.07195e-07
1.69949e-06
1.03846e-06
2.00333e-07
1.49916e-06
-1.50443e-06
1.70476e-06
-3.16401e-06
1.65959e-06
-4.64118e-06
1.47717e-06
-5.87987e-06
1.23868e-06
-6.86749e-06
9.87625e-07
-7.61095e-06
7.43461e-07
-8.12376e-06
5.12805e-07
-8.42221e-06
2.98452e-07
-8.52523e-06
1.03016e-07
-8.46419e-06
-6.1035e-08
-8.26279e-06
-2.01403e-07
-7.93223e-06
-3.30557e-07
-7.48005e-06
-4.52186e-07
-6.91383e-06
-5.6621e-07
-6.2426e-06
-6.71233e-07
-5.47737e-06
-7.6523e-07
-4.63157e-06
-8.45807e-07
-3.72144e-06
-9.10123e-07
-2.76614e-06
-9.55305e-07
-1.78637e-06
-9.79771e-07
-7.99153e-07
-9.87214e-07
1.74052e-07
-9.73205e-07
1.11895e-06
-9.44898e-07
2.02634e-06
-9.07385e-07
2.89196e-06
-8.65629e-07
3.71627e-06
-8.24305e-07
4.50276e-06
-7.8649e-07
5.256e-06
-7.53245e-07
5.97834e-06
-7.22335e-07
6.665e-06
-6.86656e-07
7.30912e-06
-6.44127e-07
7.91189e-06
-6.02765e-07
8.41474e-06
-5.02851e-07
8.61442e-06
-1.99679e-07
8.2604e-06
3.54023e-07
7.3424e-06
9.17991e-07
6.01733e-06
1.32508e-06
4.59042e-06
1.42691e-06
3.42575e-06
1.16466e-06
2.83019e-06
5.95567e-07
2.85761e-06
-2.74289e-08
3.12003e-06
-2.62412e-07
2.91662e-06
2.03408e-07
1.50939e-06
1.40723e-06
-1.0836e-06
2.59299e-06
-3.70785e-06
2.62425e-06
-5.36644e-06
1.65859e-06
-5.83651e-06
4.70071e-07
-5.4736e-06
-3.62917e-07
-4.57113e-06
-9.0246e-07
-3.42883e-06
-1.14231e-06
-2.28376e-06
-1.14507e-06
-1.28055e-06
-1.00321e-06
-4.77156e-07
-8.03391e-07
1.25073e-07
-6.02229e-07
5.52002e-07
-4.26929e-07
8.50506e-07
-2.98504e-07
1.05992e-06
-2.09413e-07
1.20945e-06
-1.49529e-07
1.32017e-06
-1.10725e-07
1.40815e-06
-8.79787e-08
1.48702e-06
-7.8866e-08
1.56837e-06
-8.13468e-08
1.65813e-06
-8.97677e-08
1.75734e-06
-9.92026e-08
1.84119e-06
-8.38551e-08
-3.49209e-08
1.87611e-06
6.78604e-07
-3.12167e-07
1.98923e-06
-1.69387e-06
3.16591e-06
-2.21485e-06
4.01602e-06
-2.07217e-06
4.58044e-06
-1.6525e-06
4.92741e-06
-1.16415e-06
5.10601e-06
-6.83165e-07
5.13857e-06
-2.22304e-07
5.03594e-06
2.3659e-07
4.80025e-06
6.86777e-07
4.40993e-06
1.09881e-06
3.86261e-06
1.41775e-06
3.1955e-06
1.56187e-06
2.49636e-06
1.45982e-06
1.89685e-06
1.08975e-06
1.62005e-06
4.54113e-07
1.45997e-06
6.99836e-08
9.81167e-07
1.07572e-07
1.77443e-07
3.92319e-07
-9.41228e-07
9.4754e-07
-2.27339e-06
1.38155e-06
-3.68379e-06
1.72012e-06
-5.05022e-06
1.98696e-06
-6.31499e-06
2.16052e-06
-7.47478e-06
2.22244e-06
-8.5026e-06
2.1858e-06
-9.37991e-06
2.06962e-06
-1.0101e-05
1.89576e-06
-1.06707e-05
1.68574e-06
-1.1102e-05
1.45856e-06
-1.14129e-05
1.2293e-06
-1.16231e-05
1.00867e-06
-1.17526e-05
8.03305e-07
-1.18194e-05
6.16497e-07
-1.18389e-05
4.49036e-07
-1.18233e-05
3.00144e-07
-1.17814e-05
1.68225e-07
-1.17192e-05
5.18659e-08
-1.1638e-05
-5.2865e-08
-1.15288e-05
-1.46966e-07
-1.13873e-05
-2.33029e-07
-1.12132e-05
-3.10051e-07
-1.10082e-05
-3.78143e-07
-1.07754e-05
-4.3791e-07
-1.05179e-05
-4.9033e-07
-1.02386e-05
-5.36613e-07
-9.93953e-06
-5.78154e-07
-9.62233e-06
-6.16483e-07
-9.28769e-06
-6.5317e-07
-8.93554e-06
-6.89706e-07
-8.56514e-06
-7.27341e-07
-8.17529e-06
-7.66912e-07
-7.76466e-06
-8.08663e-07
-7.33214e-06
-8.52115e-07
-6.87729e-06
-8.95997e-07
-6.40078e-06
-9.38302e-07
-5.90465e-06
-9.76484e-07
-5.39245e-06
-1.00779e-06
-4.86909e-06
-1.02967e-06
-4.34055e-06
-1.0402e-06
-3.81329e-06
-1.0384e-06
-3.29367e-06
-1.02429e-06
-2.78744e-06
-9.98877e-07
-2.29942e-06
-9.63886e-07
-1.83331e-06
-9.21426e-07
-1.39165e-06
-8.73686e-07
-9.75913e-07
-8.22715e-07
-5.86783e-07
-7.70267e-07
-2.24004e-07
-7.17964e-07
1.13614e-07
-6.66586e-07
4.25948e-07
-6.16962e-07
7.14907e-07
-5.69554e-07
9.81627e-07
-5.24644e-07
1.22735e-06
-4.82279e-07
1.45335e-06
-4.4243e-07
1.66081e-06
-4.04999e-07
1.85085e-06
-3.69822e-07
2.02443e-06
-3.36685e-07
2.18236e-06
-3.05304e-07
2.32505e-06
-2.7527e-07
2.4522e-06
-2.45943e-07
2.56351e-06
-2.16384e-07
2.66479e-06
-1.8559e-07
2.77438e-06
-1.52074e-07
2.90955e-06
-1.10516e-07
3.06328e-06
-5.92552e-08
3.2148e-06
-6.87702e-09
3.35128e-06
2.78283e-08
3.46784e-06
3.79142e-08
3.56592e-06
2.46583e-08
3.65128e-06
-5.65926e-09
3.72974e-06
-4.2834e-08
3.80279e-06
-7.47696e-08
3.87305e-06
-9.5203e-08
3.93502e-06
-1.01376e-07
3.98029e-06
-9.17365e-08
3.99882e-06
-6.86628e-08
3.98501e-06
-3.94509e-08
3.94165e-06
-1.55144e-08
3.87982e-06
-7.95238e-09
3.81738e-06
-2.70331e-08
3.77433e-06
-7.6444e-08
3.77012e-06
-1.53271e-07
3.82144e-06
-2.47077e-07
3.936e-06
-3.36936e-07
4.09861e-06
-3.89147e-07
4.25256e-06
-3.57756e-07
4.25951e-06
-1.59141e-07
3.84603e-06
3.50441e-07
2.6669e-06
1.30483e-06
7.47003e-07
2.4271e-06
-1.43488e-06
3.22034e-06
-3.39307e-06
3.45735e-06
-4.95987e-06
3.27156e-06
-6.14408e-06
2.8438e-06
-7.00352e-06
2.33661e-06
-7.6096e-06
1.84476e-06
-8.02763e-06
1.40566e-06
-8.30689e-06
1.02271e-06
-8.47946e-06
6.85375e-07
-8.56169e-06
3.80685e-07
-8.55682e-06
9.81462e-08
-8.44602e-06
-1.71839e-07
-8.21303e-06
-4.34391e-07
-7.85745e-06
-6.8614e-07
-7.38393e-06
-9.257e-07
-6.79913e-06
-1.15101e-06
-6.11145e-06
-1.35892e-06
-5.3314e-06
-1.54528e-06
-4.47201e-06
-1.7052e-06
-3.54893e-06
-1.8332e-06
-2.58021e-06
-1.92403e-06
-1.58521e-06
-1.97476e-06
-5.85991e-07
-1.98644e-06
4.00413e-07
-1.95961e-06
1.35837e-06
-1.90285e-06
2.27925e-06
-1.82827e-06
3.16007e-06
-1.74645e-06
4.00217e-06
-1.66641e-06
4.8095e-06
-1.59382e-06
5.58631e-06
-1.53005e-06
6.33629e-06
-1.47232e-06
7.06349e-06
-1.41386e-06
7.76057e-06
-1.3412e-06
8.39233e-06
-1.23452e-06
8.97144e-06
-1.08197e-06
9.63236e-06
-8.60592e-07
1.04104e-05
-4.24027e-07
1.10164e-05
3.12022e-07
1.11563e-05
1.18515e-06
1.07364e-05
1.84682e-06
9.81197e-06
2.08909e-06
8.45416e-06
1.95338e-06
6.90433e-06
1.5224e-06
5.51576e-06
1.12616e-06
4.00393e-06
1.71524e-06
1.78229e-06
3.62887e-06
-6.63596e-07
5.03888e-06
-2.45725e-06
4.41791e-06
-3.36875e-06
2.57008e-06
-3.56656e-06
6.67882e-07
-3.17321e-06
-7.56267e-07
-2.3261e-06
-1.74957e-06
-1.25821e-06
-2.21019e-06
-1.90908e-07
-2.21238e-06
7.3355e-07
-1.92767e-06
1.46296e-06
-1.5328e-06
2.00215e-06
-1.14143e-06
2.37978e-06
-8.04559e-07
2.62697e-06
-5.45688e-07
2.77874e-06
-3.61184e-07
2.86604e-06
-2.36835e-07
2.91271e-06
-1.57389e-07
2.93545e-06
-1.10726e-07
2.94542e-06
-8.88273e-08
2.94931e-06
-8.52422e-08
2.95034e-06
-9.07967e-08
2.948e-06
-9.68633e-08
2.94018e-06
-7.60388e-08
-3.51303e-08
2.94039e-06
1.3548e-06
-1.66697e-06
2.56828e-06
-2.90735e-06
3.10326e-06
-2.74983e-06
3.23128e-06
-2.20019e-06
3.20689e-06
-1.62811e-06
3.14643e-06
-1.1037e-06
3.07905e-06
-6.15775e-07
3.02538e-06
-1.68638e-07
2.94947e-06
3.12496e-07
2.79655e-06
8.397e-07
2.54906e-06
1.3463e-06
2.20262e-06
1.76419e-06
1.78592e-06
1.97857e-06
1.38071e-06
1.86503e-06
1.01425e-06
1.45621e-06
4.6256e-07
1.0058e-06
-5.41266e-07
1.07381e-06
-2.04392e-06
1.61022e-06
-3.71946e-06
2.06787e-06
-5.22406e-06
2.45214e-06
-6.57263e-06
2.73011e-06
-7.74566e-06
2.89316e-06
-8.70573e-06
2.94702e-06
-9.44623e-06
2.90102e-06
-9.99384e-06
2.77006e-06
-1.03831e-05
2.5751e-06
-1.06527e-05
2.33914e-06
-1.08401e-05
2.08322e-06
-1.09781e-05
1.82369e-06
-1.10907e-05
1.57123e-06
-1.11928e-05
1.33136e-06
-1.12899e-05
1.1058e-06
-1.13808e-05
8.94139e-07
-1.14594e-05
6.95151e-07
-1.15181e-05
5.07708e-07
-1.15492e-05
3.31222e-07
-1.15466e-05
1.65653e-07
-1.1506e-05
1.1223e-08
-1.14274e-05
-1.31435e-07
-1.1312e-05
-2.62321e-07
-1.11642e-05
-3.80911e-07
-1.09869e-05
-4.87268e-07
-1.07832e-05
-5.81857e-07
-1.05557e-05
-6.65447e-07
-1.03068e-05
-7.39198e-07
-1.00388e-05
-8.04647e-07
-9.75326e-06
-8.63683e-07
-9.45126e-06
-9.18488e-07
-9.133e-06
-9.71425e-07
-8.79785e-06
-1.02485e-06
-8.44434e-06
-1.08085e-06
-8.07033e-06
-1.14092e-06
-7.67341e-06
-1.20559e-06
-7.25135e-06
-1.27418e-06
-6.80275e-06
-1.3446e-06
-6.32763e-06
-1.41342e-06
-5.82793e-06
-1.47619e-06
-5.3077e-06
-1.52802e-06
-4.77296e-06
-1.56441e-06
-4.23116e-06
-1.582e-06
-3.69036e-06
-1.5792e-06
-3.15838e-06
-1.55628e-06
-2.64201e-06
-1.51524e-06
-2.14663e-06
-1.45926e-06
-1.67603e-06
-1.39203e-06
-1.23248e-06
-1.31724e-06
-8.16961e-07
-1.23823e-06
-4.29395e-07
-1.15783e-06
-6.96163e-08
-1.07774e-06
2.64583e-07
-1.00079e-06
5.73605e-07
-9.25983e-07
8.59065e-07
-8.55015e-07
1.1225e-06
-7.88083e-07
1.36539e-06
-7.25162e-07
1.5891e-06
-6.66145e-07
1.79493e-06
-6.10828e-07
1.98404e-06
-5.58934e-07
2.15748e-06
-5.10127e-07
2.31621e-06
-4.64026e-07
2.46112e-06
-4.20181e-07
2.59312e-06
-3.77944e-07
2.71304e-06
-3.36306e-07
2.82172e-06
-2.94271e-07
2.92115e-06
-2.51503e-07
3.01818e-06
-2.07546e-07
3.12197e-06
-1.63046e-07
3.23736e-06
-1.22271e-07
3.35748e-06
-9.22902e-08
3.47347e-06
-7.80739e-08
3.57996e-06
-8.18315e-08
3.67528e-06
-1.00982e-07
3.76151e-06
-1.29062e-07
3.84525e-06
-1.58507e-07
3.93389e-06
-1.83841e-07
4.03343e-06
-2.00916e-07
4.14746e-06
-2.05766e-07
4.27377e-06
-1.94978e-07
4.40218e-06
-1.67853e-07
4.51537e-06
-1.28712e-07
4.59509e-06
-8.76679e-08
4.62813e-06
-6.00717e-08
4.6166e-06
-6.49155e-08
4.58388e-06
-1.20557e-07
4.56741e-06
-2.30598e-07
4.58737e-06
-3.56905e-07
4.59942e-06
-4.01189e-07
4.44131e-06
-1.99645e-07
3.80377e-06
4.784e-07
2.34375e-06
1.81045e-06
2.29179e-07
3.41941e-06
-1.88431e-06
4.54058e-06
-3.54602e-06
4.88205e-06
-4.72404e-06
4.63536e-06
-5.54301e-06
4.09053e-06
-6.15825e-06
3.45904e-06
-6.6763e-06
2.85465e-06
-7.14233e-06
2.31079e-06
-7.5576e-06
1.82093e-06
-7.90292e-06
1.36804e-06
-8.15544e-06
9.3789e-07
-8.29686e-06
5.22104e-07
-8.31616e-06
1.17448e-07
-8.21037e-06
-2.77627e-07
-7.98212e-06
-6.62645e-07
-7.63363e-06
-1.03462e-06
-7.16878e-06
-1.39055e-06
-6.59315e-06
-1.72664e-06
-5.91419e-06
-2.03788e-06
-5.14158e-06
-2.31789e-06
-4.28778e-06
-2.559e-06
-3.36823e-06
-2.75274e-06
-2.4013e-06
-2.89097e-06
-1.40771e-06
-2.96835e-06
-4.09022e-07
-2.98513e-06
5.74664e-07
-2.9433e-06
1.52705e-06
-2.85523e-06
2.43934e-06
-2.74056e-06
3.309e-06
-2.61611e-06
4.13845e-06
-2.49586e-06
4.93325e-06
-2.38862e-06
5.69986e-06
-2.29666e-06
6.44298e-06
-2.21544e-06
7.16368e-06
-2.13455e-06
7.86049e-06
-2.03802e-06
8.52816e-06
-1.90219e-06
9.14297e-06
-1.69677e-06
9.67655e-06
-1.39417e-06
1.02218e-05
-9.69322e-07
1.09231e-05
-3.89206e-07
1.17305e-05
3.77741e-07
1.23398e-05
1.23749e-06
1.24091e-05
2.01977e-06
1.17167e-05
2.64581e-06
1.02107e-05
3.02843e-06
8.12558e-06
3.21124e-06
5.92555e-06
3.91527e-06
3.95315e-06
5.60127e-06
2.34956e-06
6.64246e-06
1.10843e-06
5.65904e-06
2.23673e-07
3.45484e-06
-1.73501e-07
1.06506e-06
3.28112e-09
-9.33048e-07
6.2464e-07
-2.37093e-06
1.41343e-06
-2.99898e-06
2.19534e-06
-2.99429e-06
2.88629e-06
-2.61862e-06
3.44575e-06
-2.09225e-06
3.86206e-06
-1.55774e-06
4.14566e-06
-1.08816e-06
4.31421e-06
-7.14234e-07
4.39045e-06
-4.37426e-07
4.39827e-06
-2.44654e-07
4.35931e-06
-1.18431e-07
4.29036e-06
-4.17798e-08
4.20269e-06
-1.15555e-09
4.10262e-06
1.48352e-08
3.99415e-06
1.76693e-08
3.87914e-06
1.81481e-08
3.76245e-06
4.06459e-08
6.23565e-08
3.66497e-06
1.21065e-06
-2.87761e-06
1.62277e-06
-3.31947e-06
1.54723e-06
-2.6743e-06
1.39198e-06
-2.04494e-06
1.27134e-06
-1.50747e-06
1.18063e-06
-1.01299e-06
1.08557e-06
-5.20713e-07
9.36289e-07
-1.93557e-08
7.35114e-07
5.13671e-07
4.4585e-07
1.12896e-06
1.1449e-07
1.67766e-06
-1.93558e-07
2.07224e-06
-4.2371e-07
2.20872e-06
-6.76104e-07
2.11743e-06
-1.25101e-06
2.03112e-06
-2.47704e-06
2.23183e-06
-4.08396e-06
2.68073e-06
-5.57282e-06
3.09908e-06
-6.87481e-06
3.36986e-06
-7.93607e-06
3.5134e-06
-8.75146e-06
3.5455e-06
-9.33898e-06
3.48067e-06
-9.73144e-06
3.33948e-06
-9.97382e-06
3.14341e-06
-1.01167e-05
2.91296e-06
-1.02073e-05
2.66567e-06
-1.02822e-05
2.41407e-06
-1.03641e-05
2.16509e-06
-1.04616e-05
1.92114e-06
-1.05723e-05
1.68195e-06
-1.06873e-05
1.44642e-06
-1.07953e-05
1.2138e-06
-1.08854e-05
9.84231e-07
-1.0949e-05
7.58776e-07
-1.09805e-05
5.39173e-07
-1.09769e-05
3.27597e-07
-1.09377e-05
1.26479e-07
-1.08641e-05
-6.23338e-08
-1.07586e-05
-2.36976e-07
-1.06245e-05
-3.96461e-07
-1.04653e-05
-5.40093e-07
-1.02848e-05
-6.67711e-07
-1.00868e-05
-7.79888e-07
-9.87433e-06
-8.77928e-07
-9.64974e-06
-9.63795e-07
-9.4144e-06
-1.03998e-06
-9.16872e-06
-1.10936e-06
-8.91214e-06
-1.17506e-06
-8.64321e-06
-1.24035e-06
-8.35958e-06
-1.30849e-06
-8.05801e-06
-1.38243e-06
-7.73448e-06
-1.46445e-06
-7.38451e-06
-1.55556e-06
-7.00375e-06
-1.65494e-06
-6.58879e-06
-1.75956e-06
-6.13815e-06
-1.86405e-06
-5.65313e-06
-1.96121e-06
-5.13826e-06
-2.04289e-06
-4.60118e-06
-2.10149e-06
-4.05182e-06
-2.13137e-06
-3.50105e-06
-2.12996e-06
-2.95931e-06
-2.09802e-06
-2.43534e-06
-2.03921e-06
-1.93562e-06
-1.95898e-06
-1.46425e-06
-1.86341e-06
-1.02317e-06
-1.75832e-06
-6.12709e-07
-1.64869e-06
-2.32108e-07
-1.53844e-06
1.20551e-07
-1.4304e-06
4.45782e-07
-1.32602e-06
7.46306e-07
-1.22651e-06
1.02378e-06
-1.13249e-06
1.27986e-06
-1.04416e-06
1.51615e-06
-9.61447e-07
1.73411e-06
-8.84106e-07
1.93509e-06
-8.11811e-07
2.12033e-06
-7.44167e-07
2.29093e-06
-6.80732e-07
2.44793e-06
-6.21025e-07
2.59227e-06
-5.6452e-07
2.72498e-06
-5.10654e-07
2.84752e-06
-4.58844e-07
2.96186e-06
-4.08612e-07
3.0701e-06
-3.59741e-07
3.17481e-06
-3.12261e-07
3.27896e-06
-2.67199e-07
3.38441e-06
-2.27717e-07
3.49041e-06
-1.98293e-07
3.59454e-06
-1.82203e-07
3.69305e-06
-1.80342e-07
3.78325e-06
-1.91177e-07
3.86506e-06
-2.1088e-07
3.94097e-06
-2.34412e-07
4.01461e-06
-2.5748e-07
4.09053e-06
-2.76837e-07
4.17411e-06
-2.89347e-07
4.27024e-06
-2.91112e-07
4.3798e-06
-2.77413e-07
4.49531e-06
-2.44222e-07
4.59965e-06
-1.92007e-07
4.67211e-06
-1.32532e-07
4.70301e-06
-9.58152e-08
4.70658e-06
-1.24128e-07
4.7063e-06
-2.30317e-07
4.67952e-06
-3.30123e-07
4.48817e-06
-2.09835e-07
3.84145e-06
4.47076e-07
2.4287e-06
1.89115e-06
3.76476e-07
3.86267e-06
-1.60347e-06
5.39935e-06
-3.04404e-06
5.98116e-06
-3.97974e-06
5.81775e-06
-4.62103e-06
5.27665e-06
-5.15593e-06
4.62544e-06
-5.68403e-06
3.98714e-06