/*--------------------------------*- C++ -*----------------------------------*\
| =========                 |                                                 |
| \\      /  F ield         | OpenFOAM: The Open Source CFD Toolbox           |
|  \\    /   O peration     | Version:  2112                                  |
|   \\  /    A nd           | Website:  www.openfoam.com                      |
|    \\/     M anipulation  |                                                 |
\*---------------------------------------------------------------------------*/
FoamFile
{
    version     2.0;
    format      ascii;
    arch        "LSB;label=32;scalar=64";
    class       surfaceScalarField;
    location    "0.031";
    object      phi;
}
// * * * * * * * * * * * * * * * * * * * * * * * * * * * * * * * * * * * * * //

dimensions      [0 3 -1 0 0 0 0];

oriented        oriented;

internalField   nonuniform List<scalar> 
24170
(
3.00513e-06
9.01881e-08
2.90887e-06
9.62677e-08
2.83741e-06
7.14518e-08
2.7535e-06
8.39138e-08
2.64837e-06
1.05127e-07
2.54529e-06
1.0308e-07
2.46321e-06
8.20838e-08
2.40207e-06
6.11385e-08
2.34805e-06
5.40223e-08
2.28575e-06
6.23028e-08
2.20674e-06
7.90098e-08
2.11391e-06
9.28277e-08
2.01129e-06
1.02619e-07
1.90383e-06
1.07462e-07
1.79119e-06
1.12637e-07
1.66737e-06
1.23824e-07
1.52742e-06
1.39942e-07
1.74465e-07
1.35296e-06
3.38699e-06
3.16033e-08
3.39429e-06
8.89655e-08
3.38811e-06
7.76362e-08
3.40157e-06
7.04491e-08
3.43069e-06
7.60021e-08
3.45203e-06
8.17466e-08
3.4472e-06
8.69126e-08
3.41622e-06
9.21225e-08
3.37407e-06
9.61688e-08
3.33583e-06
1.00541e-07
3.3065e-06
1.08345e-07
3.28326e-06
1.1606e-07
3.26043e-06
1.2545e-07
3.23165e-06
1.36248e-07
3.19364e-06
1.50641e-07
3.14017e-06
1.77293e-07
3.07052e-06
2.09593e-07
2.57604e-07
2.98738e-06
3.69669e-06
-8.99169e-08
3.72766e-06
5.79967e-08
3.69258e-06
1.12713e-07
3.65108e-06
1.11958e-07
3.63914e-06
8.79386e-08
3.65666e-06
6.42284e-08
3.68308e-06
6.0486e-08
3.69858e-06
7.66257e-08
3.69452e-06
1.00228e-07
3.67411e-06
1.20954e-07
3.64665e-06
1.35801e-07
3.61987e-06
1.42842e-07
3.59831e-06
1.47008e-07
3.58094e-06
1.53621e-07
3.56555e-06
1.66027e-07
3.55101e-06
1.91833e-07
3.53428e-06
2.26328e-07
2.70071e-07
3.52181e-06
3.85825e-06
-1.43202e-07
3.87776e-06
3.84853e-08
3.8674e-06
1.23076e-07
3.87648e-06
1.02875e-07
3.91217e-06
5.22497e-08
3.95643e-06
1.99722e-08
3.98591e-06
3.09996e-08
3.98743e-06
7.51138e-08
3.96319e-06
1.24467e-07
3.92525e-06
1.58893e-07
3.88709e-06
1.73962e-07
3.8563e-06
1.73634e-07
3.83522e-06
1.68083e-07
3.82088e-06
1.67958e-07
3.80906e-06
1.77847e-07
3.79848e-06
2.02416e-07
3.78848e-06
2.3633e-07
2.75785e-07
3.78276e-06
4.11501e-06
-7.66405e-08
4.08713e-06
6.63634e-08
4.0916e-06
1.1861e-07
4.10047e-06
9.40043e-08
4.1106e-06
4.2123e-08
4.12682e-06
3.74774e-09
4.14762e-06
1.02055e-08
4.16356e-06
5.91653e-08
4.16758e-06
1.20449e-07
4.15903e-06
1.67448e-07
4.14318e-06
1.89811e-07
4.12628e-06
1.90528e-07
4.11343e-06
1.80939e-07
4.10671e-06
1.74677e-07
4.10445e-06
1.80112e-07
4.10558e-06
2.01278e-07
4.10662e-06
2.35297e-07
2.76076e-07
4.10633e-06
4.45182e-06
-8.9139e-08
4.3907e-06
1.27485e-07
4.3587e-06
1.50608e-07
4.37607e-06
7.66363e-08
4.42031e-06
-2.12178e-09
4.46376e-06
-3.9702e-08
4.49449e-06
-2.05263e-08
4.51112e-06
4.25411e-08
4.51835e-06
1.13214e-07
4.51779e-06
1.6801e-07
4.50966e-06
1.97939e-07
4.49502e-06
2.05175e-07
4.47709e-06
1.98867e-07
4.4609e-06
1.90865e-07
4.44982e-06
1.91196e-07
4.44579e-06
2.05306e-07
4.4476e-06
2.33482e-07
2.72512e-07
4.45117e-06
4.72399e-06
-4.29986e-08
4.72351e-06
1.27975e-07
4.73583e-06
1.3828e-07
4.75669e-06
5.5784e-08
4.77262e-06
-1.80573e-08
4.78213e-06
-4.92142e-08
4.78846e-06
-2.68501e-08
4.79829e-06
3.27117e-08
4.80854e-06
1.0296e-07
4.81492e-06
1.6163e-07
4.81348e-06
1.99382e-07
4.8037e-06
2.14949e-07
4.78845e-06
2.14123e-07
4.77283e-06
2.06477e-07
4.76104e-06
2.0299e-07
4.75563e-06
2.10719e-07
4.75708e-06
2.32026e-07
2.66442e-07
4.76315e-06
5.15326e-06
-4.34016e-08
5.19334e-06
8.78919e-08
5.18539e-06
1.46228e-07
5.13488e-06
1.06298e-07
5.08627e-06
3.05463e-08
5.05671e-06
-1.96479e-08
5.04331e-06
-1.34492e-08
5.03679e-06
3.92299e-08
5.0333e-06
1.0645e-07
5.03249e-06
1.62442e-07
5.0363e-06
1.95567e-07
5.04642e-06
2.04825e-07
5.06304e-06
1.97509e-07
5.0849e-06
1.84614e-07
5.10944e-06
1.78456e-07
5.13423e-06
1.85927e-07
5.1571e-06
2.09153e-07
2.47258e-07
5.17628e-06
5.42966e-06
-5.20531e-08
5.50739e-06
1.01696e-08
5.53119e-06
1.22424e-07
5.5085e-06
1.28987e-07
5.47916e-06
5.98886e-08
5.46674e-06
-7.22589e-09
5.46751e-06
-1.42256e-08
5.46932e-06
3.74206e-08
5.47019e-06
1.05579e-07
5.47349e-06
1.59145e-07
5.48192e-06
1.87139e-07
5.49309e-06
1.93657e-07
5.50208e-06
1.88521e-07
5.50511e-06
1.81575e-07
5.50242e-06
1.81151e-07
5.49675e-06
1.91599e-07
5.49213e-06
2.13772e-07
2.47725e-07
5.49166e-06
5.95645e-06
-9.30884e-08
5.96256e-06
4.05948e-09
5.96764e-06
1.17349e-07
5.97452e-06
1.22104e-07
5.96125e-06
7.31583e-08
5.92423e-06
2.97972e-08
5.88463e-06
2.5371e-08
5.86214e-06
5.99145e-08
5.856e-06
1.11716e-07
5.85781e-06
1.57334e-07
5.86086e-06
1.84094e-07
5.86326e-06
1.91258e-07
5.86619e-06
1.85585e-07
5.87067e-06
1.77098e-07
5.87598e-06
1.75839e-07
5.88017e-06
1.87408e-07
5.88121e-06
2.12735e-07
2.50511e-07
5.87842e-06
6.20703e-06
-6.74572e-08
6.22127e-06
-1.01893e-08
6.26404e-06
7.45878e-08
6.32046e-06
6.56801e-08
6.36218e-06
3.14406e-08
6.37334e-06
1.86301e-08
6.35678e-06
4.19361e-08
6.32796e-06
8.87357e-08
6.30122e-06
1.38449e-07
6.28415e-06
1.74404e-07
6.27663e-06
1.91624e-07
6.27556e-06
1.92319e-07
6.27783e-06
1.83321e-07
6.28058e-06
1.74351e-07
6.28252e-06
1.73891e-07
6.28283e-06
1.87102e-07
6.28228e-06
2.13281e-07
2.51053e-07
6.28174e-06
5.7745e-06
6.66738e-08
5.6693e-06
9.50187e-08
5.62384e-06
1.20046e-07
5.61045e-06
7.90634e-08
5.63924e-06
2.65527e-09
5.69592e-06
-3.80491e-08
5.75058e-06
-1.27246e-08
5.78412e-06
5.51902e-08
5.78654e-06
1.36036e-07
5.76464e-06
1.96301e-07
5.73214e-06
2.24124e-07
5.70063e-06
2.23827e-07
5.67498e-06
2.08973e-07
5.65445e-06
1.94878e-07
5.63723e-06
1.9111e-07
5.62212e-06
2.02213e-07
5.61076e-06
2.24648e-07
2.56719e-07
5.60509e-06
6.78046e-06
1.25179e-07
6.76542e-06
1.10057e-07
6.75183e-06
1.33644e-07
6.76172e-06
6.91681e-08
6.78658e-06
-2.22059e-08
6.80371e-06
-5.51739e-08
6.81842e-06
-2.74336e-08
6.83585e-06
3.77539e-08
6.86711e-06
1.04784e-07
6.9048e-06
1.58611e-07
6.93494e-06
1.93982e-07
6.94633e-06
2.12434e-07
6.93641e-06
2.18894e-07
6.91111e-06
2.20176e-07
6.88034e-06
2.21882e-07
6.85349e-06
2.29064e-07
6.83689e-06
2.41246e-07
2.60536e-07
6.83307e-06
8.48415e-06
-1.27207e-07
8.52004e-06
7.41709e-08
8.46314e-06
1.90539e-07
8.41303e-06
1.19283e-07
8.35709e-06
3.37364e-08
8.30952e-06
-7.60641e-09
8.2915e-06
-9.41992e-09
8.32558e-06
3.67994e-09
8.40675e-06
2.3617e-08
8.51264e-06
5.27211e-08
8.60974e-06
9.68722e-08
8.6694e-06
1.52784e-07
8.67856e-06
2.09732e-07
8.64277e-06
2.55966e-07
8.58084e-06
2.83812e-07
8.51465e-06
2.9525e-07
8.46133e-06
2.94563e-07
2.9075e-07
8.43112e-06
1.03662e-05
-9.81182e-08
1.04075e-05
3.286e-08
1.05232e-05
7.48166e-08
1.0582e-05
6.05161e-08
1.05737e-05
4.20393e-08
1.05303e-05
3.57147e-08
1.04841e-05
3.68475e-08
1.04404e-05
4.7371e-08
1.04032e-05
6.08364e-08
1.03763e-05
7.95305e-08
1.03637e-05
1.095e-07
1.03626e-05
1.53855e-07
1.0365e-05
2.07374e-07
1.03623e-05
2.58682e-07
1.03499e-05
2.96212e-07
1.03297e-05
3.15451e-07
1.03063e-05
3.17922e-07
3.10377e-07
1.02867e-05
1.23171e-05
1.00412e-07
1.23953e-05
-4.53848e-08
1.25103e-05
-4.02302e-08
1.26123e-05
-4.14356e-08
1.26771e-05
-2.27245e-08
1.26883e-05
2.4431e-08
1.26536e-05
7.16148e-08
1.25936e-05
1.07333e-07
1.25307e-05
1.23719e-07
1.24827e-05
1.27541e-07
1.24624e-05
1.29774e-07
1.24765e-05
1.39843e-07
1.25226e-05
1.61252e-07
1.25902e-05
1.91068e-07
1.26622e-05
2.24253e-07
1.27233e-05
2.54301e-07
1.27612e-05
2.80059e-07
2.9725e-07
1.27743e-05
1.51239e-05
3.00361e-07
1.52299e-05
-1.51408e-07
1.54249e-05
-2.35215e-07
1.54762e-05
-9.28162e-08
1.54358e-05
1.76802e-08
1.54053e-05
5.49204e-08
1.54198e-05
5.7127e-08
1.54682e-05
5.897e-08
1.55136e-05
7.83619e-08
1.55346e-05
1.06508e-07
1.55341e-05
1.30276e-07
1.55269e-05
1.47049e-07
1.5526e-05
1.62093e-07
1.55362e-05
1.80936e-07
1.55535e-05
2.06892e-07
1.55698e-05
2.3805e-07
1.55776e-05
2.72287e-07
3.04588e-07
1.55702e-05
1.90936e-05
1.95087e-07
1.89917e-05
-4.94333e-08
1.88476e-05
-9.11911e-08
1.87221e-05
3.26841e-08
1.86412e-05
9.85782e-08
1.86314e-05
6.48157e-08
1.86752e-05
1.33222e-08
1.87363e-05
-2.20647e-09
1.87914e-05
2.32524e-08
1.88295e-05
6.84821e-08
1.88497e-05
1.10044e-07
1.88599e-05
1.36816e-07
1.88706e-05
1.51463e-07
1.88893e-05
1.62203e-07
1.89195e-05
1.76679e-07
1.89601e-05
1.97443e-07
1.90099e-05
2.2251e-07
2.4847e-07
1.9066e-05
2.29839e-05
-1.43157e-07
2.31361e-05
-2.01608e-07
2.31319e-05
-8.70042e-08
2.31323e-05
3.22726e-08
2.31286e-05
1.02258e-07
2.30814e-05
1.12025e-07
2.30162e-05
7.85725e-08
2.2963e-05
5.09607e-08
2.2933e-05
5.32296e-08
2.29238e-05
7.76614e-08
2.293e-05
1.03883e-07
2.29478e-05
1.19004e-07
2.29758e-05
1.23475e-07
2.30133e-05
1.24678e-07
2.30606e-05
1.29445e-07
2.3117e-05
1.41014e-07
2.31818e-05
1.57695e-07
1.77517e-07
2.32528e-05
1.66874e-05
9.11711e-08
1.65665e-05
-8.07457e-08
1.65829e-05
-1.03429e-07
1.66763e-05
-6.10584e-08
1.67809e-05
-2.32263e-09
1.68415e-05
5.13693e-08
1.68296e-05
9.04747e-08
1.67641e-05
1.165e-07
1.66875e-05
1.29762e-07
1.66378e-05
1.27368e-07
1.66325e-05
1.09244e-07
1.66695e-05
8.20121e-08
1.67358e-05
5.71138e-08
1.6816e-05
4.45061e-08
1.68971e-05
4.82991e-08
1.6972e-05
6.61332e-08
1.70384e-05
9.13504e-08
1.1825e-07
1.70976e-05
1.42719e-05
-2.84672e-08
1.41439e-05
4.72259e-08
1.40316e-05
8.91806e-09
1.40514e-05
-8.0904e-08
1.41745e-05
-1.25413e-07
1.43262e-05
-1.00272e-07
1.44359e-05
-1.92115e-08
1.449e-05
6.23623e-08
1.45205e-05
9.92053e-08
1.45586e-05
8.92865e-08
1.46143e-05
5.35617e-08
1.46812e-05
1.51162e-08
1.47465e-05
-8.18608e-09
1.48044e-05
-1.3372e-08
1.48536e-05
-9.64702e-10
1.48944e-05
2.54199e-08
1.49284e-05
5.73214e-08
8.86001e-08
1.4958e-05
1.23399e-05
-2.05101e-07
1.24691e-05
-8.19752e-08
1.25601e-05
-8.20275e-08
1.25704e-05
-9.12039e-08
1.25394e-05
-9.44638e-08
1.25315e-05
-9.23488e-08
1.25869e-05
-7.46456e-08
1.26977e-05
-4.84002e-08
1.28267e-05
-2.97808e-08
1.29371e-05
-2.10725e-08
1.3005e-05
-1.44065e-08
1.30232e-05
-3.11402e-09
1.30052e-05
9.89861e-09
1.29671e-05
2.46437e-08
1.29259e-05
4.02661e-08
1.28946e-05
5.67171e-08
1.28781e-05
7.38517e-08
9.15461e-08
1.28751e-05
1.09611e-05
-8.59659e-08
1.09509e-05
-7.17786e-08
1.10462e-05
-1.7727e-07
1.11284e-05
-1.73491e-07
1.11527e-05
-1.18691e-07
1.11375e-05
-7.71369e-08
1.11249e-05
-6.20633e-08
1.11353e-05
-5.88266e-08
1.11556e-05
-5.00708e-08
1.11624e-05
-2.78639e-08
1.11466e-05
1.36539e-09
1.11151e-05
2.84123e-08
1.10823e-05
4.26369e-08
1.10617e-05
4.52953e-08
1.10592e-05
4.27631e-08
1.10745e-05
4.14139e-08
1.1104e-05
4.43067e-08
5.21133e-08
1.11435e-05
9.65559e-06
-3.07423e-08
9.82962e-06
-2.4581e-07
9.82549e-06
-1.73145e-07
9.74841e-06
-9.64031e-08
9.68162e-06
-5.19028e-08
9.65957e-06
-5.50912e-08
9.68253e-06
-8.50255e-08
9.71951e-06
-9.58025e-08
9.73978e-06
-7.03382e-08
9.73381e-06
-2.18987e-08
9.71247e-06
2.27075e-08
9.68974e-06
5.11443e-08
9.67369e-06
5.86868e-08
9.66764e-06
5.1345e-08
9.67179e-06
3.86085e-08
9.68484e-06
2.83678e-08
9.70531e-06
2.38362e-08
2.55314e-08
9.73189e-06
8.42402e-06
-1.19071e-07
8.51375e-06
-3.35541e-07
8.52713e-06
-1.8653e-07
8.48075e-06
-5.00182e-08
8.44012e-06
-1.12799e-08
8.41653e-06
-3.14926e-08
8.39153e-06
-6.00249e-08
8.36487e-06
-6.91509e-08
8.35115e-06
-5.66118e-08
8.36425e-06
-3.50054e-08
8.40179e-06
-1.48333e-08
8.451e-06
1.9367e-09
8.49479e-06
1.49028e-08
8.52143e-06
2.46984e-08
8.52969e-06
3.03553e-08
8.52604e-06
3.20164e-08
8.52039e-06
2.94829e-08
2.48235e-08
8.5211e-06
7.41419e-06
-7.38559e-08
7.28459e-06
-2.05934e-07
7.1837e-06
-8.56394e-08
7.14334e-06
-9.65614e-09
7.15714e-06
-2.50851e-08
7.19823e-06
-7.25812e-08
7.23896e-06
-1.00757e-07
7.26958e-06
-9.97678e-08
7.29435e-06
-8.13823e-08
7.32093e-06
-6.15876e-08
7.35218e-06
-4.60804e-08
7.38449e-06
-3.03774e-08
7.41083e-06
-1.14334e-08
7.42592e-06
9.6049e-09
7.43058e-06
2.56934e-08
7.42916e-06
3.34369e-08
7.42702e-06
3.1628e-08
2.30084e-08
7.42883e-06
6.42022e-06
-1.06552e-07
6.39233e-06
-1.78052e-07
6.4207e-06
-1.14006e-07
6.48056e-06
-6.95173e-08
6.52877e-06
-7.32915e-08
6.53369e-06
-7.75047e-08
6.49442e-06
-6.14886e-08
6.42979e-06
-3.51355e-08
6.36556e-06
-1.71537e-08
6.32205e-06
-1.80711e-08
6.30871e-06
-3.27474e-08
6.32383e-06
-4.54911e-08
6.35857e-06
-4.61791e-08
6.40266e-06
-3.44789e-08
6.4459e-06
-1.7546e-08
6.48173e-06
-2.40231e-09
6.50654e-06
6.81969e-09
9.62081e-09
6.51993e-06
5.57587e-06
-5.09256e-08
5.57194e-06
-1.74124e-07
5.58003e-06
-1.22093e-07
5.60393e-06
-9.34253e-08
5.6196e-06
-8.89526e-08
5.60295e-06
-6.08611e-08
5.55708e-06
-1.56156e-08
5.50771e-06
1.42372e-08
5.47732e-06
1.32363e-08
5.4717e-06
-1.2456e-08
5.48379e-06
-4.48389e-08
5.50643e-06
-6.8126e-08
5.53623e-06
-7.59823e-08
5.5724e-06
-7.06463e-08
5.61267e-06
-5.78194e-08
5.6534e-06
-4.3133e-08
5.68938e-06
-2.91549e-08
-1.70128e-08
5.71601e-06
4.82978e-06
-1.28085e-08
4.79422e-06
-1.38559e-07
4.78231e-06
-1.10183e-07
4.78577e-06
-9.68941e-08
4.78114e-06
-8.43148e-08
4.77402e-06
-5.37414e-08
4.78499e-06
-2.65849e-08
4.81966e-06
-2.04371e-08
4.86386e-06
-3.09621e-08
4.8951e-06
-4.36944e-08
4.89996e-06
-4.97058e-08
4.88085e-06
-4.90154e-08
4.85069e-06
-4.58155e-08
4.82332e-06
-4.32786e-08
4.80707e-06
-4.15694e-08
4.80375e-06
-3.98134e-08
4.8115e-06
-3.69014e-08
-3.21862e-08
4.82667e-06
4.17506e-06
4.0365e-06
3.92632e-06
3.82942e-06
3.74511e-06
3.69137e-06
3.66478e-06
3.64435e-06
3.61338e-06
3.56969e-06
3.51998e-06
3.47097e-06
3.42515e-06
3.38187e-06
3.3403e-06
3.30049e-06
3.26359e-06
3.2314e-06
-5.12385e-07
5.12385e-07
-8.47109e-07
3.34725e-07
-9.93709e-07
1.466e-07
-9.33613e-07
-6.00955e-08
-6.35834e-07
-2.97779e-07
-1.29646e-07
-5.06188e-07
5.23427e-07
-6.53073e-07
1.25249e-06
-7.2906e-07
1.99857e-06
-7.46086e-07
2.71388e-06
-7.15305e-07
3.36533e-06
-6.51454e-07
3.92997e-06
-5.64635e-07
4.39289e-06
-4.62923e-07
4.74414e-06
-3.51249e-07
4.97551e-06
-2.31369e-07
5.08025e-06
-1.04744e-07
5.05259e-06
2.76591e-08
4.8956e-06
1.56993e-07
4.60199e-06
2.93608e-07
4.17331e-06
4.28681e-07
3.62186e-06
5.51447e-07
2.95353e-06
6.68332e-07
2.20414e-06
7.49397e-07
1.3885e-06
8.15638e-07
6.08825e-07
7.79673e-07
3.05099e-08
5.78315e-07
-3.40401e-07
3.70911e-07
-5.36474e-07
1.96073e-07
-6.01545e-07
6.50709e-08
-4.93921e-07
-1.07623e-07
-1.5075e-07
-3.43172e-07
4.02837e-07
-5.53587e-07
9.30274e-07
-5.27437e-07
1.48936e-06
-5.59081e-07
1.77892e-06
-2.89568e-07
1.75509e-06
2.38322e-08
1.61721e-06
1.37876e-07
1.14437e-06
4.72847e-07
-5.00826e-08
1.19445e-06
-1.56365e-06
1.51357e-06
-2.94274e-06
1.37908e-06
-4.18646e-06
1.24373e-06
-5.28456e-06
1.09809e-06
-6.2517e-06
9.67144e-07
-7.10313e-06
8.51435e-07
-7.85696e-06
7.53823e-07
-8.52971e-06
6.72756e-07
-9.13559e-06
6.05876e-07
-9.68554e-06
5.49946e-07
-1.0187e-05
5.01491e-07
-1.06444e-05
4.57399e-07
-1.10596e-05
4.15143e-07
-1.14326e-05
3.73019e-07
-1.17627e-05
3.30122e-07
-1.2049e-05
2.86293e-07
-1.22909e-05
2.41907e-07
-1.24885e-05
1.97567e-07
-1.26424e-05
1.53916e-07
-1.2754e-05
1.11625e-07
-1.28254e-05
7.13533e-08
-1.28589e-05
3.35094e-08
-1.2857e-05
-1.91262e-09
-1.28255e-05
-3.1498e-08
-1.2766e-05
-5.95005e-08
-1.26807e-05
-8.52672e-08
-1.25719e-05
-1.08763e-07
-1.24417e-05
-1.30194e-07
-1.22921e-05
-1.49694e-07
-1.21246e-05
-1.67451e-07
-1.19409e-05
-1.83663e-07
-1.17424e-05
-1.98586e-07
-1.15298e-05
-2.12507e-07
-1.13041e-05
-2.25784e-07
-1.10653e-05
-2.38769e-07
-1.08134e-05
-2.51873e-07
-1.05479e-05
-2.65488e-07
-1.02679e-05
-2.80031e-07
-9.972e-06
-2.95895e-07
-9.65855e-06
-3.13456e-07
-9.32551e-06
-3.33041e-07
-8.9706e-06
-3.54908e-07
-8.59137e-06
-3.79226e-07
-8.18534e-06
-4.06034e-07
-7.75014e-06
-4.35195e-07
-7.28381e-06
-4.66336e-07
-6.78502e-06
-4.98785e-07
-6.25351e-06
-5.31511e-07
-5.69043e-06
-5.63077e-07
-5.09877e-06
-5.9166e-07
-4.48354e-06
-6.15238e-07
-3.85185e-06
-6.31691e-07
-3.21288e-06
-6.38963e-07
-2.57737e-06
-6.3551e-07
-1.95652e-06
-6.20854e-07
-1.36093e-06
-5.95591e-07
-7.99146e-07
-5.61781e-07
-2.77951e-07
-5.21195e-07
1.99721e-07
-4.77673e-07
6.34644e-07
-4.34923e-07
1.02751e-06
-3.92863e-07
1.38158e-06
-3.54073e-07
1.70104e-06
-3.19464e-07
1.99014e-06
-2.891e-07
2.25259e-06
-2.62444e-07
2.49122e-06
-2.38635e-07
2.70798e-06
-2.1676e-07
2.90403e-06
-1.96048e-07
3.08e-06
-1.75966e-07
3.23626e-06
-1.56261e-07
3.37323e-06
-1.36969e-07
3.49161e-06
-1.18388e-07
3.59263e-06
-1.01017e-07
3.67809e-06
-8.54535e-08
3.7503e-06
-7.2217e-08
3.81185e-06
-6.15497e-08
3.8652e-06
-5.3346e-08
3.91241e-06
-4.72073e-08
3.95491e-06
-4.25094e-08
3.99354e-06
-3.86264e-08
4.02865e-06
-3.51094e-08
4.06017e-06
-3.15203e-08
4.08773e-06
-2.75566e-08
4.11101e-06
-2.32864e-08
4.12962e-06
-1.86063e-08
4.14303e-06
-1.34129e-08
4.15118e-06
-8.14439e-09
4.15388e-06
-2.69956e-09
4.15055e-06
3.33182e-09
4.14087e-06
9.67127e-09
4.12479e-06
1.60813e-08
4.10217e-06
2.26252e-08
4.0729e-06
2.92647e-08
4.03711e-06
3.57898e-08
3.99518e-06
4.19294e-08
3.94778e-06
4.7408e-08
3.89584e-06
5.19348e-08
3.84051e-06
5.53314e-08
3.78298e-06
5.75281e-08
3.72442e-06
5.85577e-08
3.66588e-06
5.85475e-08
3.60819e-06
5.76847e-08
3.55201e-06
5.61807e-08
3.49778e-06
5.4235e-08
3.44577e-06
5.20074e-08
3.39616e-06
4.96063e-08
3.34907e-06
4.70909e-08
3.30458e-06
4.44885e-08
3.26277e-06
4.18166e-08
3.22366e-06
3.91018e-08
3.18728e-06
3.6387e-08
3.15355e-06
3.37275e-08
3.12237e-06
3.11828e-08
3.09356e-06
2.88046e-08
3.06693e-06
2.6631e-08
3.04225e-06
2.46844e-08
3.01927e-06
2.29743e-08
2.99777e-06
2.15003e-08
2.97752e-06
2.02532e-08
2.9583e-06
1.92173e-08
2.93993e-06
1.83737e-08
2.92222e-06
1.77115e-08
2.905e-06
1.72182e-08
2.88809e-06
1.69034e-08
2.87136e-06
1.67396e-08
2.85459e-06
1.67666e-08
2.83769e-06
1.69025e-08
2.82037e-06
1.73197e-08
2.80256e-06
1.78057e-08
2.78365e-06
1.89118e-08
2.76372e-06
1.99318e-08
2.74124e-06
2.24777e-08
2.71699e-06
2.42446e-08
2.68713e-06
2.98637e-08
2.65478e-06
3.23479e-08
2.6097e-06
4.50876e-08
2.56215e-06
4.75412e-08
2.48311e-06
7.90492e-08
2.40397e-06
7.91308e-08
2.23592e-06
1.68052e-07
1.6761e-07
2.06831e-06
9.65868e-08
4.15798e-07
1.17935e-07
3.13376e-07
2.66383e-07
-1.84809e-09
6.93861e-07
-4.87573e-07
1.32779e-06
-9.31712e-07
2.07206e-06
-1.25045e-06
2.84526e-06
-1.42628e-06
3.58203e-06
-1.46583e-06
4.25394e-06
-1.418e-06
4.84899e-06
-1.31035e-06
5.35961e-06
-1.16208e-06
5.78434e-06
-9.89359e-07
6.12347e-06
-8.02061e-07
6.37781e-06
-6.05586e-07
6.54908e-06
-4.02636e-07
6.64107e-06
-1.96739e-07
6.66344e-06
5.29407e-09
6.57326e-06
2.47176e-07
6.38947e-06
4.77398e-07
6.11482e-06
7.03331e-07
5.74214e-06
9.24123e-07
5.28189e-06
1.12858e-06
4.73457e-06
1.29672e-06
4.13447e-06
1.41573e-06
3.5008e-06
1.41334e-06
2.7627e-06
1.31641e-06
2.07077e-06
1.06285e-06
1.50681e-06
7.60028e-07
1.27279e-06
2.99092e-07
1.19121e-06
-2.60437e-08
1.28822e-06
-4.40177e-07
1.79216e-06
-1.05753e-06
2.07102e-06
-8.06295e-07
1.69073e-06
-1.78798e-07
9.64545e-07
4.36622e-07
-4.11453e-07
1.39983e-06
-2.25159e-06
1.97801e-06
-3.92398e-06
2.14524e-06
-5.05767e-06
2.32814e-06
-5.88058e-06
2.33649e-06
-6.67559e-06
2.17409e-06
-7.40294e-06
1.97108e-06
-8.05937e-06
1.75453e-06
-8.64571e-06
1.55348e-06
-9.17153e-06
1.37725e-06
-9.64526e-06
1.22755e-06
-1.00751e-05
1.10256e-06
-1.04667e-05
9.97472e-07
-1.08239e-05
9.07174e-07
-1.11489e-05
8.26526e-07
-1.14428e-05
7.51269e-07
-1.17059e-05
6.78274e-07
-1.19385e-05
6.05602e-07
-1.21408e-05
5.32406e-07
-1.23133e-05
4.58782e-07
-1.24566e-05
3.85228e-07
-1.25715e-05
3.12428e-07
-1.26587e-05
2.41134e-07
-1.27192e-05
1.72111e-07
-1.2754e-05
1.06162e-07
-1.27632e-05
4.26864e-08
-1.27473e-05
-1.77592e-08
-1.27052e-05
-7.36344e-08
-1.26382e-05
-1.26438e-07
-1.25477e-05
-1.75801e-07
-1.24349e-05
-2.21557e-07
-1.23014e-05
-2.63659e-07
-1.21489e-05
-3.02235e-07
-1.19788e-05
-3.37517e-07
-1.17926e-05
-3.69861e-07
-1.15915e-05
-3.99722e-07
-1.13763e-05
-4.2767e-07
-1.11478e-05
-4.54355e-07
-1.0906e-05
-4.80506e-07
-1.0651e-05
-5.06892e-07
-1.03822e-05
-5.34307e-07
-1.00987e-05
-5.63544e-07
-9.7992e-06
-5.95374e-07
-9.48214e-06
-6.30516e-07
-9.14557e-06
-6.69602e-07
-8.78735e-06
-7.13132e-07
-8.40515e-06
-7.61429e-07
-7.9966e-06
-8.14584e-07
-7.55942e-06
-8.72369e-07
-7.09165e-06
-9.34112e-07
-6.59186e-06
-9.98571e-07
-6.0596e-06
-1.06377e-06
-5.49583e-06
-1.12685e-06
-4.90336e-06
-1.18413e-06
-4.28713e-06
-1.23147e-06
-3.65427e-06
-1.26455e-06
-3.01397e-06
-1.27927e-06
-2.37684e-06
-1.27264e-06
-1.75422e-06
-1.24347e-06
-1.15649e-06
-1.19332e-06
-5.92156e-07
-1.12612e-06
-6.82152e-08
-1.04514e-06
4.18126e-07
-9.64014e-07
8.59951e-07
-8.76748e-07
1.26021e-06
-7.93124e-07
1.62187e-06
-7.15732e-07
1.94883e-06
-6.46422e-07
2.24538e-06
-5.85653e-07
2.51565e-06
-5.32714e-07
2.76315e-06
-4.86129e-07
2.99033e-06
-4.43945e-07
3.19827e-06
-4.03987e-07
3.38661e-06
-3.64304e-07
3.55419e-06
-3.23843e-07
3.7002e-06
-2.82976e-07
3.82517e-06
-2.43356e-07
3.93121e-06
-2.07059e-07
4.02143e-06
-1.75677e-07
4.09916e-06
-1.49944e-07
4.16747e-06
-1.29857e-07
4.22901e-06
-1.14892e-07
4.28592e-06
-1.04116e-07
4.33975e-06
-9.63362e-08
4.39151e-06
-9.0383e-08
4.44167e-06
-8.52761e-08
4.49039e-06
-8.02378e-08
4.53762e-06
-7.47826e-08
4.58299e-06
-6.86614e-08
4.62607e-06
-6.16842e-08
4.66646e-06
-5.38073e-08
4.70352e-06
-4.51994e-08
4.73691e-06
-3.60943e-08
4.76692e-06
-2.66716e-08
4.79375e-06
-1.71586e-08
4.8175e-06
-7.67401e-09
4.83833e-06
1.7966e-09
4.85632e-06
1.12778e-08
4.87145e-06
2.06559e-08
4.88354e-06
2.98419e-08
4.89227e-06
3.868e-08
4.89739e-06
4.68145e-08
4.89877e-06
5.39506e-08
4.89645e-06
5.9842e-08
4.89066e-06
6.43494e-08
4.88174e-06
6.7464e-08
4.87015e-06
6.92821e-08
4.85636e-06
6.99656e-08
4.8409e-06
6.96967e-08
4.82427e-06
6.86395e-08
4.80695e-06
6.69241e-08
4.78939e-06
6.46471e-08
4.772e-06
6.1887e-08
4.75509e-06
5.87245e-08
4.73893e-06
5.52572e-08
4.72372e-06
5.16034e-08
4.70955e-06
4.78954e-08
4.69646e-06
4.42668e-08
4.68443e-06
4.08382e-08
4.67336e-06
3.77073e-08
4.6631e-06
3.49439e-08
4.65348e-06
3.25896e-08
4.64432e-06
3.06614e-08
4.63542e-06
2.91515e-08
4.6266e-06
2.80376e-08
4.61769e-06
2.72798e-08
4.60855e-06
2.68511e-08
4.59907e-06
2.67029e-08
4.58913e-06
2.68407e-08
4.57868e-06
2.71902e-08
4.56762e-06
2.78329e-08
4.55591e-06
2.86096e-08
4.54339e-06
2.9836e-08
4.53007e-06
3.11276e-08
4.51558e-06
3.3399e-08
4.50004e-06
3.54709e-08
4.4826e-06
3.99211e-08
4.46367e-06
4.31709e-08
4.44129e-06
5.22528e-08
4.41665e-06
5.69861e-08
4.38518e-06
7.65567e-08
4.34962e-06
8.30971e-08
4.29997e-06
1.28702e-07
4.23976e-06
1.39343e-07
4.15236e-06
2.55452e-07
2.87767e-07
4.0322e-06
1.14282e-07
3.01515e-07
4.94702e-07
-6.70434e-08
1.24691e-06
-7.54053e-07
2.142e-06
-1.38267e-06
3.01255e-06
-1.80226e-06
3.77702e-06
-2.01492e-06
4.4114e-06
-2.06065e-06
4.92887e-06
-1.9833e-06
5.33911e-06
-1.82824e-06
5.66159e-06
-1.63283e-06
5.92023e-06
-1.42071e-06
6.1327e-06
-1.20183e-06
6.30788e-06
-9.77232e-07
6.44627e-06
-7.43979e-07
6.54356e-06
-4.99926e-07
6.59127e-06
-2.44452e-07
6.5789e-06
1.76662e-08
6.52931e-06
2.96759e-07
6.42871e-06
5.78004e-07
6.27617e-06
8.55866e-07
6.06662e-06
1.13368e-06
5.80108e-06
1.39411e-06
5.46629e-06
1.63151e-06
5.0756e-06
1.80643e-06
4.57349e-06
1.91545e-06
4.0349e-06
1.855e-06
3.43876e-06
1.65898e-06
2.87657e-06
1.32222e-06
2.38338e-06
7.9228e-07
2.1442e-06
2.1314e-07
2.14045e-06
-4.36426e-07
1.45933e-06
-3.76411e-07
2.18911e-07
4.34127e-07
-1.49127e-06
1.53138e-06
-3.20185e-06
2.1472e-06
-4.42133e-06
2.61931e-06
-5.33794e-06
2.89462e-06
-6.16334e-06
2.97064e-06
-6.74539e-06
2.91019e-06
-7.14903e-06
2.74013e-06
-7.50234e-06
2.5274e-06
-7.83516e-06
2.30389e-06
-8.16729e-06
2.08666e-06
-8.4995e-06
1.88569e-06
-8.83061e-06
1.70837e-06
-9.1571e-06
1.55403e-06
-9.47582e-06
1.42129e-06
-9.78377e-06
1.30543e-06
-1.00785e-05
1.20186e-06
-1.03577e-05
1.1058e-06
-1.06198e-05
1.0133e-06
-1.08629e-05
9.21439e-07
-1.10858e-05
8.28433e-07
-1.12869e-05
7.33559e-07
-1.14651e-05
6.36937e-07
-1.16191e-05
5.39236e-07
-1.1748e-05
4.41395e-07
-1.18513e-05
3.44426e-07
-1.19285e-05
2.4927e-07
-1.19789e-05
1.5657e-07
-1.20028e-05
6.65574e-08
-1.20009e-05
-1.96129e-08
-1.19726e-05
-1.0194e-07
-1.1919e-05
-1.80018e-07
-1.18413e-05
-2.53501e-07
-1.17407e-05
-3.22231e-07
-1.16183e-05
-3.86055e-07
-1.14756e-05
-4.4494e-07
-1.1314e-05
-4.99036e-07
-1.11352e-05
-5.48715e-07
-1.09403e-05
-5.94577e-07
-1.07306e-05
-6.37424e-07
-1.05067e-05
-6.78208e-07
-1.02692e-05
-7.18004e-07
-1.00182e-05
-7.57944e-07
-9.75329e-06
-7.99187e-07
-9.47396e-06
-8.42877e-07
-9.17921e-06
-8.90122e-07
-8.86776e-06
-9.41963e-07
-8.53804e-06
-9.99329e-07
-8.18819e-06
-1.06298e-06
-7.81615e-06
-1.13347e-06
-7.41972e-06
-1.21102e-06
-6.99664e-06
-1.29544e-06
-6.54478e-06
-1.38597e-06
-6.06235e-06
-1.481e-06
-5.54831e-06
-1.57781e-06
-5.00294e-06
-1.67223e-06
-4.42852e-06
-1.75854e-06
-3.82992e-06
-1.83008e-06
-3.21478e-06
-1.87969e-06
-2.59336e-06
-1.90069e-06
-1.97767e-06
-1.88833e-06
-1.38157e-06
-1.83957e-06
-8.16081e-07
-1.75882e-06
-2.90222e-07
-1.65198e-06
1.969e-07
-1.53226e-06
6.42906e-07
-1.41002e-06
1.05248e-06
-1.28632e-06
1.42849e-06
-1.16913e-06
1.77407e-06
-1.06131e-06
2.09139e-06
-9.63742e-07
2.3818e-06
-8.76071e-07
2.64657e-06
-7.97475e-07
2.88782e-06
-7.27387e-07
3.10928e-06
-6.65405e-07
3.31546e-06
-6.10158e-07
3.50929e-06
-5.58139e-07
3.68965e-06
-5.04199e-07
3.85094e-06
-4.44268e-07
3.98627e-06
-3.78684e-07
4.09215e-06
-3.1294e-07
4.17114e-06
-2.54674e-07
4.23046e-06
-2.09261e-07
4.27827e-06
-1.77665e-07
4.32085e-06
-1.57477e-07
4.36182e-06
-1.45083e-07
4.40266e-06
-1.37175e-07
4.44361e-06
-1.31331e-07
4.48431e-06
-1.2598e-07
4.52429e-06
-1.20214e-07
4.56317e-06
-1.13668e-07
4.60078e-06
-1.06272e-07
4.63713e-06
-9.80272e-08
4.67228e-06
-8.89607e-08
4.70617e-06
-7.90928e-08
4.73857e-06
-6.84922e-08
4.76922e-06
-5.73205e-08
4.79783e-06
-4.57639e-08
4.82415e-06
-3.39946e-08
4.84804e-06
-2.21005e-08
4.86939e-06
-1.00651e-08
4.888e-06
2.04027e-09
4.90381e-06
1.40338e-08
4.91673e-06
2.576e-08
4.92685e-06
3.66991e-08
4.93425e-06
4.65412e-08
4.93912e-06
5.49776e-08
4.94162e-06
6.18475e-08
4.94195e-06
6.71336e-08
4.94031e-06
7.09225e-08
4.93691e-06
7.33614e-08
4.932e-06
7.46081e-08
4.92585e-06
7.47971e-08
4.91874e-06
7.40334e-08
4.91099e-06
7.23981e-08
4.9029e-06
6.99688e-08
4.89479e-06
6.68414e-08
4.8869e-06
6.31436e-08
4.87947e-06
5.90357e-08
4.87266e-06
5.47008e-08
4.8666e-06
5.0329e-08
4.86134e-06
4.61018e-08
4.85687e-06
4.21771e-08
4.85313e-06
3.86828e-08
4.85001e-06
3.57084e-08
4.84736e-06
3.33098e-08
4.84501e-06
3.15004e-08
4.84278e-06
3.02717e-08
4.84048e-06
2.95755e-08
4.83795e-06
2.93796e-08
4.83505e-06
2.96027e-08
4.83165e-06
3.0245e-08
4.82765e-06
3.11865e-08
4.82295e-06
3.25335e-08
4.81749e-06
3.4069e-08
4.81115e-06
3.61815e-08
4.80389e-06
3.83848e-08
4.79555e-06
4.17391e-08
4.78607e-06
4.49533e-08
4.77524e-06
5.07477e-08
4.76279e-06
5.56225e-08
4.74864e-06
6.64055e-08
4.73164e-06
7.3985e-08
4.71272e-06
9.54738e-08
4.68766e-06
1.08163e-07
4.66208e-06
1.54275e-07
4.62153e-06
1.79894e-07
4.59133e-06
2.85651e-07
3.5011e-07
4.52899e-06
1.39768e-07
1.61748e-07
1.06795e-06
-9.95225e-07
2.19086e-06
-1.87696e-06
3.12041e-06
-2.31222e-06
3.79214e-06
-2.47399e-06
4.23571e-06
-2.45849e-06
4.49899e-06
-2.32394e-06
4.63944e-06
-2.12376e-06
4.71782e-06
-1.90662e-06
4.78242e-06
-1.69744e-06
4.8641e-06
-1.50239e-06
4.9697e-06
-1.30742e-06
5.08845e-06
-1.09599e-06
5.20149e-06
-8.5702e-07
5.28921e-06
-5.87645e-07
5.3344e-06
-2.89636e-07
5.32142e-06
3.06453e-08
5.28477e-06
3.33406e-07
5.22022e-06
6.42557e-07
5.13198e-06
9.44104e-07
5.03052e-06
1.23514e-06
4.89503e-06
1.5296e-06
4.70922e-06
1.81732e-06
4.45625e-06
2.0594e-06
4.13495e-06
2.23676e-06
3.70672e-06
2.28323e-06
3.17291e-06
2.19279e-06
2.64121e-06
1.85392e-06
1.96044e-06
1.47304e-06
1.56605e-06
6.0753e-07
7.70728e-07
3.589e-07
-9.40367e-07
1.33468e-06
-2.69621e-06
2.18997e-06
-3.98636e-06
2.82154e-06
-5.0424e-06
3.20324e-06
-5.80146e-06
3.37837e-06
-6.28941e-06
3.38257e-06
-6.63008e-06
3.3113e-06
-6.87557e-06
3.15568e-06
-7.08478e-06
2.94933e-06
-7.28431e-06
2.72694e-06
-7.48862e-06
2.5082e-06
-7.7057e-06
2.30374e-06
-7.93594e-06
2.11593e-06
-8.17579e-06
1.94822e-06
-8.42146e-06
1.7997e-06
-8.66981e-06
1.66963e-06
-8.91829e-06
1.55391e-06
-9.16472e-06
1.44829e-06
-9.407e-06
1.34808e-06
-9.64302e-06
1.24931e-06
-9.8706e-06
1.14902e-06
-1.00876e-05
1.04541e-06
-1.02918e-05
9.37741e-07
-1.04809e-05
8.26117e-07
-1.0653e-05
7.11263e-07
-1.08057e-05
5.94149e-07
-1.0937e-05
4.75712e-07
-1.10446e-05
3.56859e-07
-1.11265e-05
2.38515e-07
-1.11817e-05
1.21737e-07
-1.12087e-05
7.3741e-09
-1.12058e-05
-1.04833e-07
-1.11737e-05
-2.12135e-07
-1.11127e-05
-3.1446e-07
-1.10239e-05
-4.11111e-07
-1.09085e-05
-5.0144e-07
-1.07684e-05
-5.85037e-07
-1.06056e-05
-6.61837e-07
-1.04221e-05
-7.32157e-07
-1.022e-05
-7.96675e-07
-1.00011e-05
-8.56391e-07
-9.76673e-06
-9.12543e-07
-9.51821e-06
-9.66526e-07
-9.25633e-06
-1.01982e-06
-8.98159e-06
-1.07393e-06
-8.69413e-06
-1.13034e-06
-8.39376e-06
-1.19049e-06
-8.07992e-06
-1.25581e-06
-7.7516e-06
-1.32765e-06
-7.40735e-06
-1.40723e-06
-7.04523e-06
-1.49559e-06
-6.66289e-06
-1.59335e-06
-6.25773e-06
-1.7006e-06
-5.82701e-06
-1.81668e-06
-5.36817e-06
-1.93985e-06
-4.87906e-06
-2.06692e-06
-4.35844e-06
-2.19285e-06
-3.80673e-06
-2.31024e-06
-3.22694e-06
-2.40987e-06
-2.62554e-06
-2.48109e-06
-2.01192e-06
-2.5143e-06
-1.39906e-06
-2.50118e-06
-8.05527e-07
-2.4331e-06
-2.51589e-07
-2.31275e-06
2.48478e-07
-2.15205e-06
6.85429e-07
-1.96921e-06
1.06009e-06
-1.78468e-06
1.38886e-06
-1.61509e-06
1.68794e-06
-1.46821e-06
1.97042e-06
-1.3438e-06
2.24362e-06
-1.23694e-06
2.50861e-06
-1.14106e-06
2.76128e-06
-1.05015e-06
2.99483e-06
-9.60932e-07
3.20392e-06
-8.74495e-07
3.38937e-06
-7.9561e-07
3.5597e-06
-7.28466e-07
3.7266e-06
-6.71104e-07
3.89619e-06
-6.13855e-07
4.06239e-06
-5.44886e-07
4.20897e-06
-4.59524e-07
4.32001e-06
-3.65713e-07
4.39065e-06
-2.79903e-07
4.4293e-06
-2.16312e-07
4.45098e-06
-1.79153e-07
4.46914e-06
-1.63242e-07
4.49162e-06
-1.5966e-07
4.52088e-06
-1.60588e-07