/*--------------------------------*- C++ -*----------------------------------*\
| =========                 |                                                 |
| \\      /  F ield         | OpenFOAM: The Open Source CFD Toolbox           |
|  \\    /   O peration     | Version:  2112                                  |
|   \\  /    A nd           | Website:  www.openfoam.com                      |
|    \\/     M anipulation  |                                                 |
\*---------------------------------------------------------------------------*/
FoamFile
{
    version     2.0;
    format      ascii;
    arch        "LSB;label=32;scalar=64";
    class       volVectorField;
    location    "0.031";
    object      UMean;
}
// * * * * * * * * * * * * * * * * * * * * * * * * * * * * * * * * * * * * * //

dimensions      [0 1 -1 0 0 0 0];

internalField   nonuniform List<vector> 
12225
(
(9.84685 0.0459851 0)
(9.5727 0.0608118 0)
(9.28383 0.0576586 0)
(8.98561 0.0555532 0)
(8.69507 0.054102 0)
(8.41895 0.0526724 0)
(8.15741 0.0506053 0)
(7.90846 0.0496567 0)
(7.66995 0.0474958 0)
(7.4416 0.0478848 0)
(7.22112 0.0444123 0)
(7.01194 0.0474937 0)
(6.80487 0.0403702 0)
(6.61519 0.050745 0)
(6.41051 0.0339014 0)
(6.24704 0.062858 0)
(6.0263 0.0164742 0)
(5.92447 0.0825242 0)
(10.0232 0.0497634 0)
(10.1 0.0744612 0)
(10.144 0.0724502 0)
(10.1574 0.0729291 0)
(10.1549 0.0759514 0)
(10.1446 0.0780627 0)
(10.1272 0.0796435 0)
(10.1053 0.080164 0)
(10.0761 0.0817162 0)
(10.0453 0.0817393 0)
(10.0062 0.0843398 0)
(9.97023 0.0833512 0)
(9.92156 0.0883168 0)
(9.88442 0.0852178 0)
(9.82471 0.095007 0)
(9.79289 0.0871268 0)
(9.72157 0.0990139 0)
(9.70026 0.0706929 0)
(9.99172 0.0288596 0)
(10.0376 0.0530552 0)
(10.0708 0.0529879 0)
(10.0878 0.0540151 0)
(10.0994 0.0576859 0)
(10.111 0.0614079 0)
(10.1233 0.0636184 0)
(10.1351 0.0661736 0)
(10.146 0.067435 0)
(10.1558 0.0705278 0)
(10.1655 0.0709888 0)
(10.1743 0.0754664 0)
(10.1841 0.0747063 0)
(10.1931 0.0818448 0)
(10.2053 0.0793027 0)
(10.218 0.08791 0)
(10.2374 0.0805486 0)
(10.2577 0.0684103 0)
(9.99375 0.0297191 0)
(10.029 0.0596906 0)
(10.057 0.0626665 0)
(10.0719 0.0625736 0)
(10.0806 0.0652532 0)
(10.0885 0.068376 0)
(10.0969 0.070853 0)
(10.1058 0.0723508 0)
(10.1146 0.0738924 0)
(10.1236 0.0748825 0)
(10.1328 0.0765442 0)
(10.1431 0.0774846 0)
(10.1542 0.0796293 0)
(10.1672 0.0807253 0)
(10.1824 0.0826238 0)
(10.2011 0.0824998 0)
(10.2236 0.077348 0)
(10.2492 0.0660462 0)
(9.9652 0.0191302 0)
(9.99466 0.0422836 0)
(10.0207 0.0488405 0)
(10.0364 0.0503391 0)
(10.0465 0.0529729 0)
(10.0554 0.0565768 0)
(10.065 0.0594443 0)
(10.0748 0.0616734 0)
(10.0845 0.0630995 0)
(10.0938 0.0646616 0)
(10.1033 0.0657083 0)
(10.1133 0.0671845 0)
(10.1242 0.0681424 0)
(10.1365 0.06924 0)
(10.1506 0.0694688 0)
(10.1672 0.0672021 0)
(10.1857 0.0616274 0)
(10.2044 0.0461274 0)
(9.98417 0.0261017 0)
(10.011 0.046052 0)
(10.0335 0.0539173 0)
(10.0477 0.0554873 0)
(10.0571 0.0571628 0)
(10.065 0.060047 0)
(10.073 0.0628403 0)
(10.0813 0.0648435 0)
(10.0896 0.0661362 0)
(10.0978 0.0670618 0)
(10.106 0.0677565 0)
(10.1147 0.068378 0)
(10.1242 0.0687185 0)
(10.1349 0.0687264 0)
(10.1472 0.0674788 0)
(10.1606 0.0640907 0)
(10.1751 0.0565521 0)
(10.1879 0.0427136 0)
(10.0101 0.0118015 0)
(10.0345 0.0314678 0)
(10.0539 0.0411989 0)
(10.0665 0.0448934 0)
(10.0755 0.0474835 0)
(10.0833 0.0507053 0)
(10.0914 0.053866 0)
(10.0999 0.0562436 0)
(10.1084 0.0577787 0)
(10.1168 0.0587581 0)
(10.1253 0.0594012 0)
(10.1339 0.0597116 0)
(10.1432 0.0596536 0)
(10.1533 0.0587897 0)
(10.1644 0.0567374 0)
(10.1759 0.0523351 0)
(10.1874 0.0447742 0)
(10.1968 0.0329808 0)
(10.0005 0.0214716 0)
(10.0228 0.0357259 0)
(10.0391 0.0448782 0)
(10.0495 0.0486881 0)
(10.0584 0.0505199 0)
(10.0671 0.0527408 0)
(10.0761 0.0553066 0)
(10.0854 0.0573846 0)
(10.095 0.0586553 0)
(10.1045 0.0593239 0)
(10.114 0.0595699 0)
(10.1237 0.0594079 0)
(10.1337 0.0587523 0)
(10.144 0.0572676 0)
(10.1545 0.0545818 0)
(10.165 0.0499046 0)
(10.1744 0.0428426 0)
(10.1822 0.0328161 0)
(9.97874 0.0094467 0)
(10.0027 0.023181 0)
(10.0185 0.0335703 0)
(10.0281 0.0386268 0)
(10.0366 0.0411895 0)
(10.0452 0.0436216 0)
(10.054 0.0461564 0)
(10.0629 0.0482291 0)
(10.0718 0.0495413 0)
(10.0808 0.0501491 0)
(10.0899 0.0502322 0)
(10.0991 0.0498505 0)
(10.1085 0.0489103 0)
(10.1181 0.0471404 0)
(10.1278 0.0442048 0)
(10.1374 0.0396775 0)
(10.1459 0.0333018 0)
(10.1532 0.0250609 0)
(9.97158 0.0139835 0)
(9.99437 0.0278697 0)
(10.0084 0.0363124 0)
(10.0163 0.0406409 0)
(10.0235 0.0430928 0)
(10.0313 0.0451452 0)
(10.0395 0.0472238 0)
(10.0481 0.0489618 0)
(10.0568 0.0499996 0)
(10.0657 0.0502874 0)
(10.0747 0.0499681 0)
(10.0837 0.0491249 0)
(10.0929 0.0476797 0)
(10.1021 0.0454582 0)
(10.1112 0.0421994 0)
(10.1198 0.0377045 0)
(10.1275 0.031852 0)
(10.1337 0.0248512 0)
(9.97943 0.00195995 0)
(9.99991 0.0188247 0)
(10.0133 0.0262754 0)
(10.0211 0.03096 0)
(10.0283 0.0342413 0)
(10.0357 0.0365485 0)
(10.0435 0.0383008 0)
(10.0514 0.03963 0)
(10.0594 0.0404271 0)
(10.0678 0.0406237 0)
(10.0763 0.0402307 0)
(10.0849 0.0392738 0)
(10.0935 0.0377181 0)
(10.102 0.0354861 0)
(10.1103 0.0324062 0)
(10.1179 0.0284161 0)
(10.1247 0.0234302 0)
(10.1302 0.0177761 0)
(9.99027 0.00935378 0)
(10.0038 0.0202975 0)
(10.0139 0.0273614 0)
(10.0209 0.0320114 0)
(10.0281 0.0350295 0)
(10.0359 0.0371588 0)
(10.0435 0.038784 0)
(10.0508 0.0399134 0)
(10.0578 0.0404125 0)
(10.0648 0.040215 0)
(10.072 0.03938 0)
(10.0795 0.0380008 0)
(10.087 0.0360904 0)
(10.0947 0.0335998 0)
(10.102 0.0304368 0)
(10.1089 0.0265991 0)
(10.1148 0.0220968 0)
(10.12 0.0172213 0)
(9.96629 0.00867279 0)
(9.98473 0.0132226 0)
(9.99694 0.0205366 0)
(10.0044 0.0255059 0)
(10.0118 0.0284472 0)
(10.0202 0.0305056 0)
(10.029 0.0321133 0)
(10.0377 0.033213 0)
(10.0461 0.0335969 0)
(10.0542 0.0332177 0)
(10.062 0.032148 0)
(10.0696 0.0305419 0)
(10.077 0.0284579 0)
(10.0842 0.0259551 0)
(10.0911 0.0229342 0)
(10.0976 0.0194938 0)
(10.1034 0.0155473 0)
(10.1084 0.0115165 0)
(9.97034 0.00594297 0)
(9.9892 0.0129303 0)
(9.9989 0.0186424 0)
(10.0033 0.0224541 0)
(10.0086 0.0250662 0)
(10.0157 0.0269754 0)
(10.0239 0.0283997 0)
(10.0323 0.029354 0)
(10.0403 0.0297667 0)
(10.0479 0.0295957 0)
(10.055 0.0287956 0)
(10.0616 0.027378 0)
(10.0678 0.02533 0)
(10.0739 0.0227477 0)
(10.0796 0.019653 0)
(10.0852 0.0162698 0)
(10.0903 0.0125924 0)
(10.0951 0.00902805 0)
(9.98141 0.00129785 0)
(9.99923 0.00966384 0)
(10.0081 0.014137 0)
(10.011 0.017158 0)
(10.0142 0.0192768 0)
(10.0193 0.0206605 0)
(10.0258 0.0215519 0)
(10.0324 0.0220453 0)
(10.039 0.0221429 0)
(10.0455 0.0218248 0)
(10.052 0.0210127 0)
(10.0585 0.0196541 0)
(10.0648 0.0176742 0)
(10.0708 0.0151577 0)
(10.0765 0.0121173 0)
(10.0817 0.00885032 0)
(10.0866 0.00534523 0)
(10.0909 0.00209737 0)
(9.98522 0.00441104 0)
(10.0002 0.00963423 0)
(10.0078 0.0128189 0)
(10.0111 0.0150785 0)
(10.0149 0.0169108 0)
(10.0201 0.0182189 0)
(10.0261 0.018842 0)
(10.0324 0.0188294 0)
(10.0388 0.0182984 0)
(10.0452 0.0173542 0)
(10.0516 0.0160093 0)
(10.058 0.0142948 0)
(10.0642 0.0121685 0)
(10.07 0.00972676 0)
(10.0754 0.00694087 0)
(10.0803 0.00405011 0)
(10.0847 0.000974731 0)
(10.0887 -0.00188307 0)
(9.98818 0.00210031 0)
(10.0051 0.00312279 0)
(10.013 0.00534784 0)
(10.0155 0.00748078 0)
(10.0183 0.00887372 0)
(10.0231 0.00940508 0)
(10.029 0.00923077 0)
(10.0351 0.00858819 0)
(10.0408 0.00762731 0)
(10.0461 0.00642969 0)
(10.0513 0.00500844 0)
(10.0563 0.00340615 0)
(10.0612 0.0015748 0)
(10.0659 -0.000452311 0)
(10.0705 -0.00276457 0)
(10.0747 -0.00523764 0)
(10.0787 -0.00797863 0)
(10.0825 -0.010721 0)
(9.99593 -0.00112634 0)
(10.0108 0.000131486 0)
(10.0178 0.00300332 0)
(10.0198 0.00480132 0)
(10.0225 0.00521209 0)
(10.0271 0.00500279 0)
(10.0328 0.00468118 0)
(10.0387 0.00431858 0)
(10.0443 0.00371959 0)
(10.0495 0.00270391 0)
(10.0546 0.00120406 0)
(10.0596 -0.00068732 0)
(10.0645 -0.00289799 0)
(10.0692 -0.00528488 0)
(10.0738 -0.0078616 0)
(10.0782 -0.0104931 0)
(10.0824 -0.0133095 0)
(10.0863 -0.0160784 0)
(9.9846 0.00521493 0)
(10.0017 0.000563637 0)
(10.0087 -0.00226569 0)
(10.0091 -0.00416024 0)
(10.0101 -0.00566692 0)
(10.0135 -0.00702137 0)
(10.0183 -0.00835326 0)
(10.0236 -0.00975263 0)
(10.0288 -0.0112863 0)
(10.0336 -0.0129585 0)
(10.0383 -0.0147621 0)
(10.0429 -0.0166537 0)
(10.0475 -0.0186484 0)
(10.0518 -0.0207286 0)
(10.056 -0.0229724 0)
(10.06 -0.0253492 0)
(10.0639 -0.0279725 0)
(10.0675 -0.0307213 0)
(10.0123 -0.0062421 0)
(10.0331 -0.00233041 0)
(10.044 -0.00267576 0)
(10.0478 -0.00460242 0)
(10.051 -0.00660953 0)
(10.0551 -0.00834292 0)
(10.0599 -0.00984449 0)
(10.0648 -0.0112365 0)
(10.0695 -0.0126675 0)
(10.074 -0.0142643 0)
(10.0784 -0.016096 0)
(10.0828 -0.0181379 0)
(10.0869 -0.0203474 0)
(10.0906 -0.0226579 0)
(10.0941 -0.0250759 0)
(10.0972 -0.0275615 0)
(10.1001 -0.0301889 0)
(10.1027 -0.0328788 0)
(9.9861 -0.0118912 0)
(9.99594 -0.0119764 0)
(10.0003 -0.0142155 0)
(10.0031 -0.0167017 0)
(10.0077 -0.0186442 0)
(10.0133 -0.020214 0)
(10.0189 -0.0218807 0)
(10.0242 -0.0238784 0)
(10.0291 -0.0261182 0)
(10.0337 -0.0283714 0)
(10.0381 -0.0304625 0)
(10.0422 -0.0323338 0)
(10.046 -0.0340446 0)
(10.0495 -0.0356942 0)
(10.0527 -0.0374184 0)
(10.0557 -0.0393028 0)
(10.0583 -0.0414248 0)
(10.0609 -0.0437805 0)
(9.98779 0.00766776 0)
(10.0024 -0.0049501 0)
(10.0098 -0.0113513 0)
(10.0132 -0.0146808 0)
(10.0176 -0.0169319 0)
(10.0234 -0.0187274 0)
(10.0295 -0.020327 0)
(10.0351 -0.0219008 0)
(10.0399 -0.0234981 0)
(10.044 -0.0250826 0)
(10.0476 -0.0266496 0)
(10.0509 -0.0282261 0)
(10.0539 -0.0298704 0)
(10.0568 -0.0316091 0)
(10.0596 -0.0334917 0)
(10.0623 -0.0355186 0)
(10.0648 -0.0377443 0)
(10.0672 -0.0401372 0)
(9.96861 -0.00802298 0)
(9.98945 -0.0195702 0)
(10.0004 -0.0255988 0)
(10.0042 -0.0287006 0)
(10.0074 -0.0307673 0)
(10.0117 -0.0325495 0)
(10.0167 -0.0342574 0)
(10.0217 -0.0359085 0)
(10.0262 -0.0374471 0)
(10.0303 -0.0388586 0)
(10.0341 -0.0402186 0)
(10.0377 -0.0416145 0)
(10.0412 -0.04311 0)
(10.0445 -0.0447271 0)
(10.0476 -0.0464761 0)
(10.0505 -0.0483439 0)
(10.0531 -0.0503448 0)
(10.0553 -0.0524718 0)
(9.97947 -0.00121547 0)
(9.9994 -0.0101423 0)
(10.0102 -0.0176771 0)
(10.0149 -0.0219354 0)
(10.0194 -0.0241119 0)
(10.0248 -0.0257863 0)
(10.0303 -0.027511 0)
(10.0354 -0.0291692 0)
(10.04 -0.0306212 0)
(10.0441 -0.0319481 0)
(10.048 -0.0333124 0)
(10.0516 -0.0348009 0)
(10.055 -0.0364017 0)
(10.0582 -0.0380497 0)
(10.0611 -0.0397135 0)
(10.0637 -0.0413884 0)
(10.0661 -0.0431203 0)
(10.0681 -0.0449374 0)
(9.98564 -0.0152085 0)
(10.0042 -0.0275044 0)
(10.0162 -0.035164 0)
(10.0224 -0.0386022 0)
(10.0274 -0.0402999 0)
(10.0324 -0.0418953 0)
(10.0376 -0.0435131 0)
(10.0428 -0.0448755 0)
(10.0479 -0.0459967 0)
(10.0527 -0.0470699 0)
(10.057 -0.0482278 0)
(10.0608 -0.0495021 0)
(10.0641 -0.0508548 0)
(10.0669 -0.0522417 0)
(10.0694 -0.0536393 0)
(10.0715 -0.0550595 0)
(10.0734 -0.0565193 0)
(10.075 -0.0580432 0)
(9.98861 -0.00298673 0)
(10.0105 -0.0191233 0)
(10.0275 -0.0250952 0)
(10.0377 -0.0274148 0)
(10.045 -0.0293861 0)
(10.0512 -0.0316492 0)
(10.0572 -0.0338056 0)
(10.0629 -0.0355218 0)
(10.0681 -0.0368362 0)
(10.0727 -0.037934 0)
(10.0768 -0.0389556 0)
(10.0802 -0.0399727 0)
(10.0832 -0.0410421 0)
(10.0858 -0.042201 0)
(10.088 -0.0434629 0)
(10.0899 -0.0448141 0)
(10.0916 -0.0462395 0)
(10.0929 -0.0477095 0)
(10.0059 -0.0200943 0)
(10.0336 -0.0422567 0)
(10.0525 -0.0472427 0)
(10.0611 -0.0477104 0)
(10.0653 -0.0488293 0)
(10.0688 -0.0504505 0)
(10.0728 -0.0516491 0)
(10.0772 -0.0522968 0)
(10.0818 -0.0527311 0)
(10.0862 -0.0532373 0)
(10.0904 -0.0538704 0)
(10.0942 -0.0545934 0)
(10.0976 -0.0553758 0)
(10.1004 -0.0562312 0)
(10.1028 -0.0571653 0)
(10.1047 -0.0581829 0)
(10.1061 -0.0592585 0)
(10.1071 -0.0603801 0)
(9.97089 -0.00995716 0)
(10.0087 -0.0264218 0)
(10.0341 -0.0305874 0)
(10.045 -0.0315402 0)
(10.0504 -0.0334407 0)
(10.0554 -0.0358627 0)
(10.0613 -0.0379299 0)
(10.0678 -0.0395815 0)
(10.0742 -0.0410139 0)
(10.08 -0.0422928 0)
(10.0853 -0.0433627 0)
(10.0901 -0.044243 0)
(10.0943 -0.0449714 0)
(10.0979 -0.0456863 0)
(10.1009 -0.0464249 0)
(10.1032 -0.0472898 0)
(10.105 -0.0482333 0)
(10.1062 -0.049337 0)
(9.93804 -0.043615 0)
(9.99237 -0.0580857 0)
(10.03 -0.0566705 0)
(10.0484 -0.0557798 0)
(10.058 -0.0565971 0)
(10.0648 -0.0575578 0)
(10.07 -0.0581772 0)
(10.0729 -0.0586234 0)
(10.073 -0.0590269 0)
(10.0703 -0.059394 0)
(10.0653 -0.0596675 0)
(10.0588 -0.0598782 0)
(10.051 -0.060024 0)
(10.0423 -0.0601972 0)
(10.0326 -0.0603578 0)
(10.0224 -0.0606248 0)
(10.0108 -0.0609247 0)
(9.99927 -0.0614376 0)
(9.86367 -0.0245944 0)
(9.71972 -0.0414675 0)
(9.5621 -0.0413616 0)
(9.39356 -0.0405967 0)
(9.22771 -0.0406387 0)
(9.07017 -0.0406669 0)
(8.92093 -0.0404662 0)
(8.77848 -0.0400974 0)
(8.64178 -0.0396157 0)
(8.5107 -0.0390804 0)
(8.38513 -0.0385362 0)
(8.26527 -0.0380301 0)
(8.15054 -0.0375462 0)
(8.04125 -0.0370974 0)
(7.9362 -0.0366305 0)
(7.8365 -0.0362045 0)
(7.73975 -0.0357708 0)
(7.64887 -0.035464 0)
(-0.0598403 0.0945613 5.57179e-21)
(-0.0965843 -0.0176069 -5.52713e-21)
(-0.047524 -0.109568 0)
(0.065498 -0.173674 0)
(0.223715 -0.217322 0)
(0.409407 -0.239448 5.34902e-21)
(0.610691 -0.242459 0)
(0.81231 -0.230847 0)
(1.00102 -0.207781 0)
(1.16812 -0.17604 0)
(1.30734 -0.138231 -4.95728e-21)
(1.41189 -0.0963893 0)
(1.47778 -0.0518792 0)
(1.50066 -0.00578105 0)
(1.47788 0.0410023 0)
(1.40909 0.087344 -4.60437e-21)
(1.29398 0.131847 0)
(1.13521 0.17245 0)
(0.935605 0.206606 0)
(0.703626 0.231029 0)
(0.442335 0.243703 0)
(0.174019 0.242286 0)
(-0.101727 0.221541 0)
(-0.34067 0.163864 -4.47219e-21)
(-0.556353 0.11119 4.43131e-21)
(-0.699113 -0.019369 -4.38479e-21)
(-0.801562 -0.0904122 -4.33628e-21)
(-0.920865 -0.090986 0)
(-1.10159 -0.0859908 0)
(-1.32819 0.000792616 4.14853e-21)
(-1.62732 0.187342 4.08181e-21)
(-2.01057 0.287749 0)
(-2.39918 0.295178 0)
(-2.79415 0.290968 3.75597e-21)
(-3.19557 0.298588 0)
(-3.60336 0.303107 0)
(-3.99713 0.300022 -3.25731e-21)
(-4.36824 0.306879 0)
(-4.72184 0.3081 -2.90262e-21)
(-5.04223 0.277407 -5.46162e-21)
(-5.31379 0.233246 0)
(-5.53777 0.191105 0)
(-5.71673 0.150981 0)
(-5.85195 0.113689 0)
(-5.94593 0.0794413 0)
(-6.00094 0.0483684 -4.03565e-21)
(-6.01979 0.0204772 -3.96314e-21)
(-6.00531 -0.00439638 -3.94011e-21)
(-5.96096 -0.0264109 0)
(-5.88933 -0.0457947 4.02845e-21)
(-5.79323 -0.0627108 0)
(-5.67526 -0.0772912 -4.26434e-21)
(-5.5381 -0.0897019 -4.42427e-21)
(-5.38446 -0.100095 0)
(-5.21648 -0.108644 0)
(-5.0365 -0.11549 0)
(-4.84655 -0.120761 -5.22373e-21)
(-4.64863 -0.124585 0)
(-4.44457 -0.127134 0)
(-4.23614 -0.128529 0)
(-4.02474 -0.128978 0)
(-3.81161 -0.128589 0)
(-3.59783 -0.127559 0)
(-3.38442 -0.125995 0)
(-3.17192 -0.124092 0)
(-2.9609 -0.121941 7.02621e-21)
(-2.75161 -0.119681 0)
(-2.54426 -0.117409 0)
(-2.3388 -0.115219 -7.48541e-21)
(-2.13508 -0.113208 -7.62151e-21)
(-1.93282 -0.111412 0)
(-1.7316 -0.109878 7.87138e-21)
(-1.53098 -0.108651 -7.98634e-21)
(-1.3305 -0.107704 0)
(-1.12963 -0.107064 8.19926e-21)
(-0.92795 -0.106657 0)
(-0.725073 -0.10645 0)
(-0.520731 -0.106351 -8.48211e-21)
(-0.314773 -0.106317 0)
(-0.107184 -0.106237 8.64694e-21)
(0.101933 -0.106064 0)
(0.31231 -0.105718 -8.78886e-21)
(0.523556 -0.105134 -8.84922e-21)
(0.735173 -0.104202 -8.90116e-21)
(0.94655 -0.102928 -1.78873e-20)
(1.15687 -0.101248 1.79516e-20)
(1.36527 -0.0990921 0)
(1.57087 -0.0964752 0)
(1.77275 -0.09334 0)
(1.96987 -0.0896688 1.79724e-20)
(2.161 -0.0854716 1.79152e-20)
(2.34492 -0.0807595 -1.78335e-20)
(2.52047 -0.0756024 0)
(2.68667 -0.0701172 1.76017e-20)
(2.84276 -0.0643755 1.7456e-20)
(2.98821 -0.058544 1.72941e-20)
(3.12269 -0.0527382 0)
(3.24605 -0.0471701 0)
(3.35866 -0.0417906 0)
(3.46113 -0.0367441 1.65435e-20)
(3.55389 -0.03206 0)
(3.63756 -0.0277502 0)
(3.71278 -0.0238089 -1.59417e-20)
(3.78019 -0.0202187 0)
(3.84038 -0.0169566 0)
(3.89394 -0.0139988 -1.53492e-20)
(3.94141 -0.0113225 0)
(3.98329 -0.0089082 0)
(4.02006 -0.00673813 1.47805e-20)
(4.05217 -0.0047965 1.45971e-20)
(4.08003 -0.00306521 0)
(4.10403 -0.00152488 -1.42399e-20)
(4.12452 -0.000154383 0)
(4.14181 0.00106755 1.3895e-20)
(4.1562 0.00216095 0)
(4.16791 0.00314393 1.35618e-20)
(4.17716 0.00403215 1.33993e-20)
(4.18412 0.00483756 0)
(4.18894 0.00556761 0)
(4.19177 0.00622784 0)
(4.19272 0.00682247 0)
(4.19192 0.00735225 0)
(4.18949 0.00781978 0)
(4.18554 0.0082293 0)
(4.18017 0.00857994 1.21834e-20)
(4.17351 0.00887365 -1.20404e-20)
(4.16566 0.00911644 0)
(4.15674 0.00930449 0)
(4.14686 0.00942885 0)
(4.13617 0.00948431 0)
(4.12478 0.00946772 -2.27008e-20)
(4.11283 0.0093778 0)
(4.10046 0.00921606 2.21695e-20)
(4.0878 0.00898707 -2.19079e-20)
(4.07499 0.00869796 0)
(4.06215 0.00835837 0)
(4.04941 0.00797956 0)
(4.03685 0.00757328 2.08863e-20)
(4.02457 0.0071508 2.06368e-20)
(4.01263 0.00672223 0)
(4.0011 0.00629589 2.01444e-20)
(3.98999 0.00587806 1.99014e-20)
(3.97935 0.00547303 -1.96605e-20)
(3.96918 0.00508355 0)
(3.95949 0.00471145 0)
(3.95028 0.00435821 -1.89496e-20)
(3.94154 0.00402524 0)
(3.93327 0.00371399 0)
(3.92543 0.0034258 0)
(3.91802 0.00316172 0)
(3.911 0.00292229 1.78017e-20)
(3.90433 0.00270756 1.75773e-20)
(3.89799 0.0025169 0)
(3.89193 0.00234954 1.71335e-20)
(3.88612 0.0022042 0)
(3.88053 0.00207999 0)
(3.87512 0.00197539 1.64797e-20)
(3.86985 0.00189007 0)
(3.86468 0.00182256 1.60516e-20)
(3.85959 0.00177383 0)
(3.8545 0.00174272 0)
(3.84943 0.00173187 1.54209e-20)
(3.84421 0.00174106 0)
(3.83895 0.00177406 1.50083e-20)
(3.83333 0.00183622 0)
(3.82762 0.00192668 0)
(3.82113 0.00207435 0)
(3.81453 0.00224401 -1.42041e-20)
(3.80641 0.00255195 0)
(3.79823 0.00281515 1.38146e-20)
(3.78718 0.00346492 0)
(3.776 0.00378097 0)
(3.75988 0.00527573 0)
(3.74233 0.005379 0)
(3.718 0.00923446 0)
(3.68427 0.00805601 0)
(3.64835 0.0193023 0)
(3.56538 0.0134935 -2.49112e-20)
(3.51862 0.053292 0)
(3.25717 0.0436378 0)
(0.00203972 0.195259 -1.66729e-20)
(0.0378512 -0.0359488 1.65399e-20)
(0.105798 -0.236921 0)
(0.229541 -0.401876 -1.08042e-20)
(0.384274 -0.520739 0)
(0.553378 -0.586002 -5.35343e-21)
(0.721444 -0.602286 1.04379e-20)
(0.8781 -0.577843 1.02729e-20)
(1.0165 -0.521341 0)
(1.13162 -0.440212 9.88854e-21)
(1.2185 -0.341059 4.9614e-21)
(1.27364 -0.229172 0)
(1.29346 -0.109042 0)
(1.27704 0.0156992 0)
(1.22408 0.141024 0)
(1.13366 0.263293 4.60765e-21)
(1.00781 0.378547 0)
(0.848491 0.484343 -8.93147e-21)
(0.657912 0.576891 0)
(0.441187 0.652492 0)
(0.203268 0.698524 8.95077e-21)
(-0.0478148 0.712837 0)
(-0.303272 0.679668 -8.93228e-21)
(-0.560377 0.628248 4.47816e-21)
(-0.79346 0.517753 -4.43762e-21)
(-1.05555 0.418388 4.39124e-21)
(-1.40219 0.456831 4.34288e-21)
(-1.8085 0.589635 0)
(-2.25845 0.746197 0)
(-2.68867 0.847882 -4.15674e-21)
(-3.06885 0.894137 3.79212e-21)
(-3.43721 0.911307 0)
(-3.80796 0.929275 0)
(-4.18692 0.954418 -3.76457e-21)
(-4.54515 0.961911 0)
(-4.8837 0.93371 0)
(-5.1872 0.872044 3.26624e-21)
(-5.44457 0.792602 0)
(-5.66185 0.701107 -2.49148e-21)
(-5.84485 0.599514 5.47862e-21)
(-5.99326 0.496795 0)
(-6.10982 0.396865 0)
(-6.19489 0.301253 8.47216e-21)
(-6.24953 0.211086 8.07179e-21)
(-6.27487 0.126899 7.76847e-21)
(-6.27207 0.049018 -3.52158e-21)
(-6.24234 -0.0224032 3.97091e-21)
(-6.18706 -0.0873441 1.14065e-20)
(-6.1073 -0.145792 -7.54463e-21)
(-6.00496 -0.197833 -4.03416e-21)
(-5.88208 -0.243581 0)
(-5.74079 -0.283248 4.26885e-21)
(-5.58317 -0.31712 -4.16935e-21)
(-5.41109 -0.345518 0)
(-5.22685 -0.368802 0)
(-5.03231 -0.38733 0)
(-4.82952 -0.401498 5.22586e-21)
(-4.62027 -0.411641 0)
(-4.40617 -0.418235 -1.11912e-20)
(-4.18866 -0.421651 0)
(-3.96911 -0.422392 -1.20676e-20)
(-3.74862 -0.420855 0)
(-3.52813 -0.41752 1.28891e-20)
(-3.30827 -0.412752 0)
(-3.08972 -0.406966 -1.36396e-20)
(-2.87282 -0.400528 6.95982e-21)
(-2.65787 -0.393748 0)
(-2.44494 -0.386988 1.46219e-20)
(-2.23402 -0.380476 7.48542e-21)
(-2.02484 -0.374455 7.62147e-21)
(-1.8171 -0.369109 0)
(-1.61035 -0.364526 7.81339e-21)
(-1.40411 -0.360841 7.98615e-21)
(-1.1979 -0.358013 0)
(-0.991191 -0.356038 -8.19901e-21)
(-0.783485 -0.354768 1.65358e-20)
(-0.574412 -0.354075 0)
(-0.363698 -0.353735 8.48176e-21)
(-0.151195 -0.35354 0)
(0.0631092 -0.353242 -2.58813e-20)
(0.27908 -0.352671 0)
(0.496467 -0.351561 2.63102e-20)
(0.714906 -0.34973 8.84864e-21)
(0.933852 -0.346924 -8.85052e-21)
(1.15264 -0.343018 -1.77913e-20)
(1.37054 -0.337899 1.7861e-20)
(1.58665 -0.331441 0)
(1.80008 -0.323556 0)
(2.00998 -0.314138 0)
(2.21529 -0.303143 -5.38459e-20)
(2.41479 -0.290538 -1.79134e-20)
(2.60724 -0.276418 1.78316e-20)
(2.79145 -0.260953 0)
(2.96645 -0.24444 1.75547e-20)
(3.13149 -0.227154 -1.74539e-20)
(3.28602 -0.209541 -1.72918e-20)
(3.42969 -0.192047 0)
(3.56247 -0.175151 0)
(3.68481 -0.158932 0)
(3.79722 -0.143702 -1.65412e-20)
(3.90022 -0.129564 0)
(3.99447 -0.116545 3.22592e-20)
(4.08062 -0.10462 4.77996e-20)
(4.15933 -0.0937306 -3.14629e-20)
(4.2312 -0.0838061 0)
(4.29679 -0.0747742 -1.53333e-20)
(4.35662 -0.0665668 0)
(4.41116 -0.0591219 -2.9919e-20)
(4.46088 -0.0523821 1.47686e-20)
(4.50621 -0.0462939 1.45863e-20)
(4.54759 -0.0408052 0)
(4.58544 -0.0358646 4.27064e-20)
(4.62013 -0.0314195 -2.81213e-20)
(4.65198 -0.0274152 -1.38929e-20)
(4.68129 -0.0237955 0)
(4.70827 -0.0205061 -1.35596e-20)
(4.73314 -0.0174985 -4.0187e-20)
(4.75606 -0.0147333 0)
(4.77715 -0.0121803 -2.61558e-20)
(4.79655 -0.00981723 -2.58459e-20)
(4.81436 -0.00762836 -2.55404e-20)
(4.83065 -0.00560311 0)
(4.84552 -0.00373446 0)
(4.85905 -0.00201599 0)
(4.87132 -0.000445395 1.21789e-20)
(4.88241 0.000981183 1.20379e-20)
(4.89239 0.00227057 0)
(4.90136 0.00342339 2.35126e-20)
(4.90936 0.00443783 2.32368e-20)
(4.91646 0.00531758 0)
(4.92271 0.0060676 2.26953e-20)
(4.92817 0.00668961 4.48545e-20)
(4.93288 0.00718471 -2.21638e-20)
(4.93688 0.00755572 -2.19007e-20)
(4.94024 0.00780683 0)
(4.94301 0.00794457 0)
(4.94525 0.00797835 0)
(4.94702 0.0079198 -2.08804e-20)
(4.94838 0.00778217 2.06304e-20)
(4.94939 0.00757943 4.07668e-20)
(4.95011 0.00732528 -2.01385e-20)
(4.9506 0.00703239 1.98953e-20)
(4.95091 0.00671199 1.96546e-20)
(4.95106 0.00637371 0)
(4.95111 0.00602574 0)
(4.95108 0.00567518 -1.89438e-20)
(4.95099 0.00532821 0)
(4.95086 0.00499041 0)
(4.95069 0.00466663 3.64998e-20)
(4.9505 0.00436098 0)
(4.95028 0.00407665 1.77962e-20)
(4.95004 0.00381594 -1.75718e-20)
(4.94976 0.00358012 0)
(4.94943 0.00336984 1.7128e-20)
(4.94906 0.00318502 0)
(4.94863 0.00302552 0)
(4.94813 0.00289103 -1.64743e-20)
(4.94754 0.00278159 3.2519e-20)
(4.94687 0.00269799 -1.60463e-20)
(4.94609 0.00264093 0)
(4.94518 0.00261453 0)
(4.94414 0.00261894 1.54155e-20)
(4.94293 0.00266683 0)
(4.94153 0.0027514 1.50029e-20)
(4.93989 0.00290981 0)
(4.93796 0.0031059 0)
(4.93566 0.00344995 0)
(4.93287 0.0038032 1.41993e-20)
(4.92954 0.00449536 0)
(4.92528 0.00505573 -1.38099e-20)
(4.9203 0.00646804 0)
(4.91332 0.00723356 0)
(4.9057 0.0102893 2.64929e-20)
(4.8933 0.0110407 -2.61347e-20)
(4.88151 0.0182518 0)
(4.85713 0.0181653 0)
(4.83891 0.0372504 0)
(4.78594 0.0353039 7.46285e-20)
(4.76076 0.0958086 0)
(4.64613 0.104535 -4.87256e-20)
(0.024238 0.048648 1.34418e-23)
(0.0957635 -0.196752 -2.20179e-20)
(0.242238 -0.480073 0)
(0.406547 -0.707838 2.15566e-20)
(0.563812 -0.850291 0)
(0.702005 -0.910007 0)
(0.818854 -0.900959 -2.3222e-22)
(0.913673 -0.837135 -1.02805e-20)
(0.986303 -0.731351 -9.7888e-21)
(1.03539 -0.594189 -9.89435e-21)
(1.05897 -0.433912 0)
(1.05462 -0.256968 0)
(1.02014 -0.0688164 8.99467e-21)
(0.953816 0.125609 1.77182e-20)
(0.854568 0.320364 -1.75222e-20)
(0.722461 0.508361 0)
(0.560909 0.681284 -1.73505e-20)
(0.375035 0.833492 8.93456e-21)
(0.169508 0.959847 0)
(-0.0518407 1.05992 -1.74502e-20)
(-0.288464 1.12902 -8.95574e-21)
(-0.538411 1.16173 1.75545e-20)
(-0.798719 1.15438 8.93831e-21)
(-1.05328 1.03299 0)
(-1.3628 0.980591 -1.73717e-20)
(-1.76984 1.08406 -1.71513e-20)
(-2.21 1.24263 0)
(-2.64672 1.37253 -1.6484e-20)
(-3.04843 1.44249 0)
(-3.41139 1.47784 -1.55661e-20)
(-3.75263 1.49147 -7.89177e-21)
(-4.09488 1.52183 0)
(-4.42483 1.5534 0)
(-4.72375 1.52297 0)
(-4.98073 1.44609 0)
(-5.2092 1.34539 0)
(-5.41017 1.22514 0)
(-5.58478 1.09383 -1.03998e-20)
(-5.73417 0.954236 1.51341e-20)
(-5.86067 0.809909 0)
(-5.96453 0.665501 0)
(-6.04577 0.523875 0)
(-6.10318 0.387153 -9.26442e-22)
(-6.13591 0.256518 -8.07205e-21)
(-6.14328 0.132766 -1.47149e-20)
(-6.12516 0.0165076 1.43612e-20)
(-6.08187 -0.0917086 6.74905e-21)
(-6.01424 -0.191268 -7.45542e-21)
(-5.92352 -0.281626 6.02361e-22)
(-5.81137 -0.362467 -7.15772e-21)
(-5.67974 -0.43369 0)
(-5.53076 -0.495453 -7.79453e-21)
(-5.36647 -0.548091 4.03569e-22)
(-5.18888 -0.59203 0)
(-4.99999 -0.627837 0)
(-4.80171 -0.656047 9.54428e-21)
(-4.5959 -0.677299 0)
(-4.38436 -0.692133 0)
(-4.16877 -0.701225 -1.07733e-20)
(-3.95069 -0.705288 -2.2889e-20)
(-3.73147 -0.705063 1.20617e-20)
(-3.51219 -0.701294 0)
(-3.29377 -0.69469 -1.28836e-20)
(-3.07689 -0.685914 0)
(-2.86208 -0.675544 -1.34055e-20)
(-2.64967 -0.664216 -1.39817e-20)
(-2.43986 -0.652463 2.84164e-20)
(-2.23266 -0.640828 1.44241e-20)
(-2.02791 -0.629743 0)
(-1.8253 -0.619557 -3.01776e-20)
(-1.62442 -0.610562 0)
(-1.42475 -0.60293 -4.68599e-20)
(-1.22571 -0.596817 -3.16358e-20)
(-1.02669 -0.592225 -3.20693e-20)
(-0.827065 -0.589064 3.24817e-20)
(-0.626283 -0.587137 -4.9409e-20)
(-0.423926 -0.586166 0)
(-0.219674 -0.585808 0)
(-0.0133875 -0.585711 3.39543e-20)
(0.194894 -0.585475 5.15126e-20)
(0.405035 -0.584775 0)
(0.616788 -0.583187 -1.75206e-20)
(0.82975 -0.580329 0)
(1.04338 -0.575901 5.3088e-20)
(1.25696 -0.569584 1.53419e-22)
(1.46972 -0.561219 -1.44957e-22)
(1.68083 -0.550675 -3.57613e-20)
(1.88942 -0.537738 0)
(2.09466 -0.522225 3.58125e-20)
(2.29546 -0.504086 1.09384e-22)
(2.49056 -0.483255 0)
(2.67862 -0.459864 0)
(2.8584 -0.434125 0)
(3.0289 -0.40654 -3.51509e-20)
(3.18938 -0.377653 0)
(3.3393 -0.348246 0)
(3.47835 -0.319173 0)
(3.60669 -0.290964 0)
(3.72484 -0.264081 0)
(3.83329 -0.238914 -3.30095e-20)
(3.93264 -0.215632 0)
(4.02353 -0.194267 -3.22572e-20)
(4.10662 -0.17476 -3.18582e-20)
(4.18256 -0.156994 3.14614e-20)
(4.25198 -0.140827 0)
(4.31543 -0.126123 3.06794e-20)
(4.37344 -0.112765 0)
(4.42642 -0.100659 2.99181e-20)
(4.47476 -0.0897365 -2.95464e-20)
(4.51882 -0.0799342 -8.7513e-20)
(4.55899 -0.0711797 0)
(4.5957 -0.0633803 -8.53809e-20)
(4.62939 -0.0564282 -2.80999e-20)
(4.66049 -0.0502124 0)
(4.68931 -0.0446294 -5.48714e-20)
(4.7161 -0.0395859 -5.42133e-20)
(4.74103 -0.0350004 8.03553e-20)
(4.76424 -0.030805 0)
(4.78583 -0.0269465 2.61556e-20)
(4.8059 -0.0233854 2.58457e-20)
(4.82454 -0.0200933 7.66119e-20)
(4.84185 -0.0170499 0)
(4.85791 -0.014241 0)
(4.8728 -0.0116579 0)
(4.8866 -0.00929158 2.43537e-20)
(4.89937 -0.00713606 0)
(4.91118 -0.00518576 0)
(4.92208 -0.00343461 -2.35125e-20)
(4.93214 -0.00187422 -2.32366e-20)
(4.94141 -0.00049497 0)
(4.94995 0.000711897 0)
(4.95781 0.00175265 -4.4854e-20)
(4.96504 0.00263328 0)
(4.97169 0.00335892 4.38023e-20)
(4.97781 0.00393529 4.32824e-20)
(4.98345 0.00436967 0)
(4.98864 0.00467153 0)
(4.99342 0.00485254 -4.17583e-20)
(4.99784 0.00492649 -9.17377e-25)
(5.00192 0.00490849 -7.44085e-25)
(5.00571 0.00481389 0)
(5.00924 0.00465744 -7.95794e-20)
(5.01253 0.00445271 0)
(5.01561 0.00421202 0)
(5.01851 0.00394651 0)
(5.02125 0.00366641 3.78865e-20)
(5.02385 0.00338126 0)
(5.02632 0.0030999 -7.39153e-20)
(5.02867 0.00283035 -3.64987e-20)
(5.03091 0.0025795 0)
(5.03304 0.00235285 -3.55911e-20)
(5.03506 0.00215431 0)
(5.03697 0.0019864 0)
(5.03877 0.00185012 -1.02765e-19)
(5.04045 0.0017459 6.76317e-20)
(5.042 0.00167286 0)
(5.04342 0.00163112 6.58946e-20)
(5.04469 0.00161901 -3.25178e-20)
(5.04582 0.00163906 0)
(5.04677 0.00168893 0)
(5.04756 0.00177805 0)
(5.04815 0.00190056 -9.24894e-20)
(5.04854 0.00208223 0)
(5.04868 0.00230302 -3.0005e-20)
(5.04859 0.00262921 0)
(5.04814 0.00299513 0)
(5.0474 0.00357149 0)
(5.0461 0.00415804 0)
(5.04445 0.00520014 0)
(5.04182 0.00611798 0)
(5.03878 0.0080818 -5.44625e-20)
(5.03388 0.00947383 0)
(5.02862 0.0133908 -2.64916e-20)
(5.01963 0.0154568 7.83829e-20)
(5.01059 0.0238833 0)
(4.99393 0.027235 0)
(4.97837 0.0473839 -5.02401e-20)
(4.94823 0.0560188 -4.97236e-20)
(4.92413 0.110897 4.90657e-20)
(4.88244 0.144269 4.87209e-20)
(0.00517674 -0.0636263 3.32073e-20)
(0.166273 -0.527346 3.29168e-20)
(0.351403 -0.878118 2.16032e-20)
(0.50074 -1.07091 1.04762e-20)
(0.611277 -1.14705 0)
(0.686947 -1.13637 -2.03481e-20)
(0.735595 -1.06053 9.65358e-21)
(0.761672 -0.93519 0)
(0.768416 -0.773215 9.79153e-21)
(0.757953 -0.583584 0)
(0.730426 -0.37173 -1.7997e-20)
(0.683395 -0.142259 0)
(0.61337 0.0995818 -8.99463e-21)
(0.516399 0.346585 -1.77187e-20)
(0.389653 0.589496 1.75234e-20)
(0.23295 0.820154 0)
(0.0505564 1.03156 1.73531e-20)
(-0.1527 1.21771 0)
(-0.372201 1.37417 0)
(-0.60216 1.49593 1.74554e-20)
(-0.839083 1.58334 0)
(-1.07997 1.61613 -4.76462e-22)
(-1.31961 1.59108 0)
(-1.62805 1.61999 0)
(-2.01319 1.74202 5.53665e-22)
(-2.42782 1.87583 1.71679e-20)
(-2.81956 1.96871 1.62062e-20)
(-3.17733 2.00924 1.64995e-20)
(-3.5071 2.01629 0)
(-3.81141 2.0082 3.02734e-20)
(-4.11718 2.02939 0)
(-4.41397 2.03845 1.34227e-20)
(-4.66726 1.98664 0)
(-4.88752 1.89425 0)
(-5.08118 1.77591 -1.12923e-20)
(-5.25326 1.63611 0)
(-5.40472 1.48016 9.84268e-21)
(-5.53839 1.31403 1.26374e-21)
(-5.6544 1.1411 -1.82052e-20)
(-5.75326 0.964659 1.57053e-20)
(-5.83349 0.787535 0)
(-5.89361 0.611844 0)
(-5.93175 0.439359 5.26035e-21)
(-5.94639 0.271591 0)
(-5.93638 0.110067 6.94283e-21)
(-5.90124 -0.0435744 -6.7914e-21)
(-5.8411 -0.187719 -6.74193e-21)
(-5.75679 -0.320841 0)
(-5.64992 -0.441796 6.92964e-21)
(-5.52265 -0.549931 7.14898e-21)
(-5.37734 -0.645011 -1.3571e-20)
(-5.21645 -0.727149 7.78533e-21)
(-5.0422 -0.796842 8.17918e-21)
(-4.85662 -0.854731 0)
(-4.66149 -0.90159 0)
(-4.4584 -0.938154 -9.53462e-21)
(-4.24894 -0.965129 0)
(-4.0347 -0.983232 0)
(-3.8174 -0.99329 2.194e-20)
(-3.59873 -0.996345 2.2871e-20)
(-3.38008 -0.993527 0)
(-3.16256 -0.985954 0)
(-2.94705 -0.974641 0)
(-2.7341 -0.960509 0)
(-2.52417 -0.944386 2.70264e-20)
(-2.31752 -0.927068 -2.74576e-20)
(-2.11426 -0.909362 -2.84043e-20)
(-1.91429 -0.891956 -5.78093e-20)
(-1.71735 -0.8755 0)
(-1.52307 -0.860529 2.40851e-22)