/*--------------------------------*- C++ -*----------------------------------*\
| =========                 |                                                 |
| \\      /  F ield         | OpenFOAM: The Open Source CFD Toolbox           |
|  \\    /   O peration     | Version:  2112                                  |
|   \\  /    A nd           | Website:  www.openfoam.com                      |
|    \\/     M anipulation  |                                                 |
\*---------------------------------------------------------------------------*/
FoamFile
{
    version     2.0;
    format      ascii;
    arch        "LSB;label=32;scalar=64";
    class       volSymmTensorField;
    location    "0.1";
    object      turbulenceProperties:R;
}
// * * * * * * * * * * * * * * * * * * * * * * * * * * * * * * * * * * * * * //

dimensions      [0 2 -2 0 0 0 0];

internalField   nonuniform List<symmTensor> 
12225
(
(0.867959 -0.201301 -0 0.86397 -0 0.865638)
(1.49186 -0.34577 -0 1.48265 -0 1.48743)
(2.10416 -0.487399 -0 2.08893 -0 2.09669)
(2.51005 -0.581232 -0 2.49038 -0 2.5004)
(2.74031 -0.634487 -0 2.71826 -0 2.7296)
(2.77742 -0.643115 -0 2.75534 -0 2.76673)
(2.7473 -0.63622 -0 2.72612 -0 2.73702)
(2.67158 -0.61879 -0 2.65186 -0 2.66197)
(2.55559 -0.592043 -0 2.53771 -0 2.54684)
(2.43029 -0.563139 -0 2.41431 -0 2.42245)
(2.31113 -0.535636 -0 2.29684 -0 2.30408)
(2.19475 -0.508782 -0 2.18213 -0 2.18854)
(2.09288 -0.485251 -0 2.08159 -0 2.08726)
(1.99583 -0.462862 -0 1.98594 -0 1.99099)
(1.91226 -0.443541 -0 1.90339 -0 1.90774)
(1.83848 -0.426544 -0 1.83072 -0 1.83483)
(1.76428 -0.40939 -0 1.75772 -0 1.76062)
(1.72242 -0.399717 -1.96548e-21 1.71583 -0 1.71956)
(0.499661 -0.0552802 -0 0.507921 -0 0.508571)
(0.521075 -0.053997 -0 0.524328 -0 0.523437)
(0.554698 -0.0611687 -0 0.555546 -0 0.554575)
(0.592145 -0.0703989 -0 0.591396 -0 0.590959)
(0.630493 -0.0802715 -0 0.628334 -0 0.628643)
(0.659176 -0.0897631 -0 0.65569 -0 0.656786)
(0.678099 -0.0986171 -0 0.673501 -0 0.675243)
(0.69135 -0.106863 -0 0.685865 -0 0.688153)
(0.698933 -0.11432 -0 0.692729 -0 0.695492)
(0.704432 -0.121303 -0 0.69773 -0 0.700839)
(0.707907 -0.127607 -0 0.700786 -0 0.704187)
(0.712806 -0.133874 -0 0.705495 -0 0.709043)
(0.71649 -0.139369 -0 0.70888 -0 0.712646)
(0.723829 -0.14544 -0 0.716346 -0 0.720034)
(0.730468 -0.150448 -0 0.722535 -0 0.726584)
(0.739719 -0.1565 -0 0.732541 -0 0.735974)
(0.743215 -0.159417 -0 0.734808 -0 0.739374)
(0.762159 -0.166962 -2.94204e-21 0.75619 -0 0.758385)
(0.431333 -0.0474466 -0 0.566802 -0 0.503978)
(0.477016 0.0120933 -0 0.524081 -0 0.500368)
(0.490837 0.00461731 -0 0.508966 -0 0.500681)
(0.495273 -0.00774092 -0 0.502318 -0 0.500068)
(0.495386 -0.0174092 -0 0.498523 -0 0.498328)
(0.492589 -0.0250641 -0 0.493477 -0 0.494219)
(0.489533 -0.0322893 -0 0.489019 -0 0.490191)
(0.483584 -0.0381713 -0 0.48218 -0 0.483572)
(0.478265 -0.0439987 -0 0.476329 -0 0.477769)
(0.47173 -0.0484996 -0 0.469421 -0 0.470917)
(0.465891 -0.0532088 -0 0.463372 -0 0.4648)
(0.46018 -0.0567492 -0 0.457425 -0 0.458937)
(0.454774 -0.0605688 -0 0.452 -0 0.45335)
(0.450944 -0.0635451 -0 0.447936 -0 0.449477)
(0.446174 -0.0665471 -0 0.443341 -0 0.444561)
(0.44399 -0.0693386 -0 0.440834 -0 0.442412)
(0.440509 -0.0713693 -0 0.437466 -0 0.438638)
(0.439973 -0.0734897 9.5807e-21 0.436535 -0 0.438266)
(0.407826 -0.0710572 -0 0.592091 -0 0.501518)
(0.418136 0.0127994 -0 0.578304 -0 0.504657)
(0.457158 0.0227815 -0 0.541497 -0 0.50127)
(0.472614 0.0155883 -0 0.526 -0 0.498749)
(0.478021 0.0105603 -0 0.518549 -0 0.497371)
(0.481649 0.00580272 -0 0.51062 -0 0.49516)
(0.483434 0.000805808 -0 0.505363 -0 0.493393)
(0.48276 -0.00451593 -0 0.498812 -0 0.489826)
(0.482025 -0.00978275 -0 0.494581 -0 0.487407)
(0.479245 -0.0145265 -0 0.48864 -0 0.483202)
(0.477201 -0.0193322 -0 0.484596 -0 0.480235)
(0.473484 -0.0233723 -0 0.478981 -0 0.475736)
(0.470957 -0.0275569 -0 0.475234 -0 0.472658)
(0.46697 -0.0310153 -0 0.470143 -0 0.46825)
(0.464316 -0.0344821 -0 0.466568 -0 0.46518)
(0.460422 -0.0372173 -0 0.461917 -0 0.460957)
(0.458627 -0.0398406 -0 0.4586 -0 0.458524)
(0.455163 -0.04293 -6.35857e-20 0.453992 -0 0.454595)
(0.413995 -0.0767537 -0 0.588737 -0 0.498366)
(0.382347 -9.0443e-05 -0 0.614796 -0 0.504435)
(0.404339 0.0256528 -0 0.592819 -0 0.504017)
(0.43453 0.0243286 -0 0.564771 -0 0.500787)
(0.446602 0.0244546 -0 0.552065 -0 0.49994)
(0.458205 0.0233868 -0 0.539089 -0 0.498566)
(0.4655 0.0212886 -0 0.530294 -0 0.497816)
(0.471252 0.0172719 -0 0.521603 -0 0.496284)
(0.474526 0.0135007 -0 0.516246 -0 0.495323)
(0.476657 0.00937042 -0 0.510351 -0 0.493475)
(0.477785 0.00563226 -0 0.506664 -0 0.492174)
(0.478111 0.00189905 -0 0.502079 -0 0.490114)
(0.478152 -0.00141727 -0 0.499318 -0 0.488653)
(0.477465 -0.00453447 -0 0.495514 -0 0.486482)
(0.477093 -0.00724364 -0 0.493077 -0 0.484976)
(0.476202 -0.00978495 -0 0.489412 -0 0.482689)
(0.476586 -0.0121262 -0 0.486362 -0 0.481513)
(0.475942 -0.0152474 2.7659e-19 0.482604 -0 0.479069)
(0.419513 -0.0830398 -0 0.582335 -0 0.498894)
(0.384612 -0.00792615 -0 0.616823 -0 0.500201)
(0.385374 0.0213679 -0 0.61413 -0 0.502206)
(0.389894 0.0296663 -0 0.608741 -0 0.502775)
(0.407826 0.0320247 -0 0.590988 -0 0.501932)
(0.42446 0.0332344 -0 0.574164 -0 0.500919)
(0.436116 0.0333716 -0 0.562076 -0 0.500243)
(0.446449 0.0310371 -0 0.550786 -0 0.499115)
(0.453216 0.0288176 -0 0.543071 -0 0.498483)
(0.459241 0.0256132 -0 0.535287 -0 0.497572)
(0.463124 0.0227864 -0 0.530049 -0 0.496886)
(0.466613 0.0195814 -0 0.524512 -0 0.495868)
(0.468771 0.0169815 -0 0.52091 -0 0.495031)
(0.470741 0.0143183 -0 0.516718 -0 0.493933)
(0.472212 0.0121611 -0 0.513709 -0 0.493083)
(0.474007 0.00978336 -0 0.50959 -0 0.491895)
(0.476069 0.007507 -0 0.505988 -0 0.491163)
(0.478057 0.0036408 -2.01297e-19 0.501579 -0 0.489985)
(0.424494 -0.088262 -0 0.575923 -0 0.500073)
(0.385759 -0.0155789 -0 0.616334 -0 0.499197)
(0.385938 0.0187781 -0 0.615663 -0 0.500192)
(0.388022 0.0297857 -0 0.613058 -0 0.500781)
(0.389674 0.0363436 -0 0.610794 -0 0.501276)
(0.391229 0.0422491 -0 0.607996 -0 0.502118)
(0.404164 0.042509 -0 0.595101 -0 0.501516)
(0.417462 0.040456 -0 0.581627 -0 0.500678)
(0.426881 0.0389987 -0 0.571836 -0 0.500177)
(0.435232 0.0367234 -0 0.562795 -0 0.499481)
(0.441234 0.0349229 -0 0.556215 -0 0.498861)
(0.447037 0.0325421 -0 0.549302 -0 0.498336)
(0.451148 0.0306059 -0 0.544265 -0 0.497869)
(0.455231 0.0284223 -0 0.538936 -0 0.497298)
(0.458421 0.0266541 -0 0.534749 -0 0.496808)
(0.462194 0.0243721 -0 0.529703 -0 0.496119)
(0.465582 0.0217942 -0 0.52528 -0 0.495682)
(0.469074 0.0172036 -0 0.520382 -0 0.494999)
(0.429057 -0.0920993 -0 0.571008 -0 0.500257)
(0.387066 -0.0255249 -0 0.614026 -0 0.499778)
(0.385152 0.0148104 -0 0.615982 -0 0.500308)
(0.388832 0.0307226 -0 0.613342 -0 0.499659)
(0.391239 0.0389411 -0 0.61065 -0 0.500229)
(0.393024 0.0442949 -0 0.608337 -0 0.500745)
(0.394329 0.047664 -0 0.606722 -0 0.500926)
(0.395042 0.0499748 -0 0.605223 -0 0.501334)
(0.400815 0.0494174 -0 0.599027 -0 0.501279)
(0.411103 0.0461781 -0 0.588619 -0 0.500667)
(0.418875 0.0441743 -0 0.580549 -0 0.500271)
(0.425786 0.0422405 -0 0.573115 -0 0.499878)
(0.431075 0.0407683 -0 0.567428 -0 0.4994)
(0.436435 0.0392154 -0 0.561475 -0 0.498933)
(0.440953 0.0378317 -0 0.556268 -0 0.498654)
(0.445949 0.0356587 -0 0.550482 -0 0.498264)
(0.450048 0.0329058 -0 0.545625 -0 0.498027)
(0.454227 0.0280775 -0 0.540584 -0 0.497577)
(0.433032 -0.0951066 -0 0.566777 -0 0.500376)
(0.389914 -0.0358258 -0 0.611171 -0 0.499433)
(0.384014 0.00722123 -0 0.616212 -0 0.500739)
(0.38775 0.0283943 -0 0.613436 -0 0.500244)
(0.391554 0.0399449 -0 0.61021 -0 0.500156)
(0.394571 0.0470036 -0 0.607593 -0 0.5001)
(0.396432 0.0511624 -0 0.605629 -0 0.500424)
(0.397451 0.0535162 -0 0.604279 -0 0.500731)
(0.397908 0.0545942 -0 0.603585 -0 0.500848)
(0.398045 0.0552004 -0 0.603019 -0 0.500979)
(0.398102 0.0558202 -0 0.602327 -0 0.501231)
(0.406005 0.0523312 -0 0.594268 -0 0.50088)
(0.41247 0.0498923 -0 0.587625 -0 0.500526)
(0.418785 0.0480333 -0 0.580986 -0 0.50023)
(0.423863 0.0466441 -0 0.575535 -0 0.499979)
(0.429064 0.044614 -0 0.570013 -0 0.499564)
(0.433269 0.0419941 -0 0.565376 -0 0.499325)
(0.437361 0.037664 5.41385e-19 0.560746 -0 0.499009)
(0.437324 -0.0980953 -0 0.56209 -0 0.500649)
(0.393299 -0.0451465 -0 0.607577 -0 0.499352)
(0.383756 -0.00224105 -0 0.616291 -0 0.50047)
(0.386092 0.0222952 -0 0.61442 -0 0.500397)
(0.390113 0.0369137 -0 0.61081 -0 0.500482)
(0.393948 0.0464539 -0 0.607397 -0 0.500543)
(0.397058 0.0526191 -0 0.604781 -0 0.500499)
(0.399208 0.0563804 -0 0.602997 -0 0.500435)
(0.400378 0.058405 -0 0.60191 -0 0.500551)
(0.400863 0.0594723 -0 0.601145 -0 0.500824)
(0.401021 0.0598376 -0 0.600852 -0 0.500877)
(0.400904 0.0597818 -0 0.600767 -0 0.500882)
(0.40078 0.0598611 -0 0.600495 -0 0.500992)
(0.402507 0.0592689 -0 0.598361 -0 0.501051)
(0.408622 0.0561605 -0 0.592106 -0 0.500807)
(0.414153 0.0532847 -0 0.586357 -0 0.500575)
(0.418371 0.0504118 -0 0.581828 -0 0.500453)
(0.421836 0.0467703 -5.49026e-19 0.578145 -0 0.500118)
(0.447488 -0.0932542 -0 0.552102 -0 0.500354)
(0.396736 -0.0531043 -0 0.603554 -0 0.49969)
(0.384319 -0.01201 -0 0.615593 -0 0.500205)
(0.384752 0.0143273 -0 0.615541 -0 0.500102)
(0.388123 0.0310225 -0 0.612321 -0 0.500364)
(0.391974 0.0422937 -0 0.608753 -0 0.50055)
(0.395582 0.0502184 -0 0.605574 -0 0.500618)
(0.398567 0.0557559 -0 0.602973 -0 0.500684)
(0.400843 0.0594858 -0 0.601071 -0 0.500713)
(0.402396 0.0618538 -0 0.599784 -0 0.50073)
(0.403336 0.0631782 -0 0.599074 -0 0.500695)
(0.40368 0.0638274 -0 0.598587 -0 0.500897)
(0.403836 0.0641737 -0 0.598281 -0 0.501012)
(0.403842 0.0642432 -0 0.598176 -0 0.501006)
(0.403741 0.0641585 -0 0.598151 -0 0.500941)
(0.4035 0.0639902 -0 0.598085 -0 0.501)
(0.405075 0.0619224 -0 0.59621 -0 0.501041)
(0.408746 0.0579339 -0 0.592426 -0 0.500812)
(0.458503 -0.0829796 -0 0.541303 -0 0.500034)
(0.408062 -0.0540979 -0 0.592201 -0 0.499472)
(0.385273 -0.0201899 -0 0.614205 -0 0.500319)
(0.384015 0.00652774 -0 0.616142 -0 0.499805)
(0.386454 0.024557 -0 0.613751 -0 0.500071)
(0.389842 0.0367273 -0 0.610544 -0 0.50029)
(0.393297 0.0455487 -0 0.607397 -0 0.500435)
(0.396501 0.0522022 -0 0.604516 -0 0.500567)
(0.399334 0.0572484 -0 0.602049 -0 0.500651)
(0.401653 0.0609738 -0 0.600048 -0 0.500735)
(0.403478 0.0636537 -0 0.598541 -0 0.500764)
(0.404816 0.0655084 -0 0.597457 -0 0.500777)
(0.405701 0.066679 -0 0.596761 -0 0.500766)
(0.406172 0.0673133 -0 0.59636 -0 0.500801)
(0.406311 0.0676307 -0 0.596049 -0 0.500968)
(0.406267 0.0676589 -0 0.595956 -0 0.501054)
(0.405857 0.0671413 -0 0.596259 -0 0.501053)
(0.4054 0.0665013 -0 0.596663 -0 0.500922)
(0.46643 -0.0727768 -0 0.533214 -0 0.50012)
(0.419134 -0.0518598 -0 0.58129 -0 0.499065)
(0.390176 -0.0249178 -0 0.609204 -0 0.500111)
(0.383627 -0.000216803 -0 0.616061 -0 0.499887)
(0.385171 0.0182102 -0 0.614765 -0 0.499839)
(0.3879 0.0307292 -0 0.612146 -0 0.500053)
(0.390883 0.0398034 -0 0.60941 -0 0.500192)
(0.393823 0.0468648 -0 0.606745 -0 0.500329)
(0.396596 0.0525097 -0 0.604255 -0 0.50047)
(0.399085 0.0569995 -0 0.602027 -0 0.500621)
(0.401284 0.0605689 -0 0.600119 -0 0.500722)
(0.403183 0.0634238 -0 0.598491 -0 0.500809)
(0.40472 0.0655988 -0 0.59719 -0 0.500879)
(0.405926 0.0672151 -0 0.596201 -0 0.50092)
(0.406821 0.0683774 -0 0.595468 -0 0.500946)
(0.407421 0.0691153 -0 0.595012 -0 0.500924)
(0.407614 0.0693988 -0 0.594799 -0 0.501005)
(0.408092 0.0699391 -0 0.594467 -0 0.500848)
(0.472931 -0.0609032 -0 0.526464 -0 0.500306)
(0.430094 -0.0467085 -0 0.570008 -0 0.499167)
(0.400675 -0.0256323 -0 0.598759 -0 0.499688)
(0.383536 -0.00545097 -0 0.615649 -0 0.499976)
(0.384186 0.0119006 -0 0.615351 -0 0.499737)
(0.386147 0.0242058 -0 0.613472 -0 0.49988)
(0.388486 0.0330859 -0 0.611338 -0 0.499978)
(0.39092 0.0401172 -0 0.609161 -0 0.500064)
(0.393325 0.045923 -0 0.607001 -0 0.500182)
(0.395611 0.0507409 -0 0.604945 -0 0.500322)
(0.397757 0.0547788 -0 0.603044 -0 0.500442)
(0.39976 0.0582338 -0 0.601271 -0 0.500566)
(0.401585 0.0611479 -0 0.599674 -0 0.500674)
(0.403218 0.063586 -0 0.59827 -0 0.500755)
(0.404626 0.065584 -0 0.597066 -0 0.500829)
(0.405792 0.067153 -0 0.596101 -0 0.500872)
(0.406584 0.0682522 -0 0.59536 -0 0.50102)
(0.407916 0.0697953 -0 0.594452 -0 0.500761)
(0.477904 -0.0480237 -0 0.521423 -0 0.500321)
(0.440383 -0.0390315 -0 0.559497 -0 0.499209)
(0.410872 -0.0235832 -0 0.588431 -0 0.499467)
(0.392457 -0.00754391 -0 0.606618 -0 0.499646)
(0.383627 0.00708216 -0 0.615505 -0 0.499642)
(0.384912 0.0182141 -0 0.614369 -0 0.499624)
(0.386489 0.026263 -0 0.612838 -0 0.499798)
(0.38826 0.0326848 -0 0.611282 -0 0.499848)
(0.390108 0.0381701 -0 0.609666 -0 0.499908)
(0.391939 0.0428827 -0 0.60804 -0 0.500008)
(0.393725 0.0469627 -0 0.606459 -0 0.500112)
(0.395466 0.0505721 -0 0.604917 -0 0.50022)
(0.397151 0.0537829 -0 0.60343 -0 0.500319)
(0.398764 0.0566415 -0 0.60201 -0 0.500413)
(0.400275 0.0591609 -0 0.600678 -0 0.500504)
(0.40167 0.0613404 -0 0.599481 -0 0.500565)
(0.402758 0.0630704 -0 0.598423 -0 0.500763)
(0.404496 0.0653816 -0 0.597146 -0 0.500534)
(0.481584 -0.0345233 -0 0.517737 -0 0.500291)
(0.449256 -0.0292495 -0 0.550486 -0 0.499204)
(0.421007 -0.0188414 -0 0.578081 -0 0.499414)
(0.40077 -0.00699706 -0 0.598127 -0 0.499396)
(0.388159 0.00434226 -0 0.610709 -0 0.499434)
(0.384165 0.013701 -0 0.61479 -0 0.499411)
(0.385132 0.0202963 -0 0.613825 -0 0.499546)
(0.386194 0.0254499 -0 0.612847 -0 0.499656)
(0.387399 0.0300102 -0 0.611845 -0 0.499676)
(0.388648 0.0341151 -0 0.610775 -0 0.499735)
(0.389906 0.0377917 -0 0.60968 -0 0.499818)
(0.39117 0.0411259 -0 0.608577 -0 0.499903)
(0.39244 0.0441879 -0 0.60747 -0 0.499983)
(0.393706 0.0470222 -0 0.606359 -0 0.500063)
(0.39496 0.0496435 -0 0.605254 -0 0.500138)
(0.396198 0.0520594 -0 0.604181 -0 0.500191)
(0.397267 0.0541602 -0 0.603127 -0 0.500374)
(0.398971 0.0569597 -0 0.601822 -0 0.500183)
(0.484157 -0.0204178 -0 0.515169 -0 0.500261)
(0.456093 -0.0176149 -0 0.543543 -0 0.499212)
(0.429925 -0.0115372 -0 0.569098 -0 0.499285)
(0.408983 -0.00398049 -0 0.589589 -0 0.499411)
(0.394529 0.00373873 -0 0.604061 -0 0.499294)
(0.385123 0.0106033 -0 0.613572 -0 0.499219)
(0.384294 0.0154021 -0 0.614431 -0 0.499268)
(0.384782 0.0189204 -0 0.613888 -0 0.49946)
(0.385403 0.0220503 -0 0.613413 -0 0.499479)
(0.386088 0.0250349 -0 0.612891 -0 0.499496)
(0.386793 0.0278395 -0 0.612314 -0 0.499558)
(0.387521 0.0304722 -0 0.611708 -0 0.499628)
(0.388278 0.0329734 -0 0.611076 -0 0.499693)
(0.389061 0.035371 -0 0.610412 -0 0.499759)
(0.389864 0.0376703 -0 0.609721 -0 0.499822)
(0.390692 0.0398717 -0 0.609019 -0 0.499866)
(0.391457 0.0418996 -0 0.608285 -0 0.499987)
(0.392706 0.0446631 -0 0.607343 -0 0.499842)
(0.485714 -0.00531085 -0 0.513603 -0 0.500256)
(0.460468 -0.00423162 -0 0.53908 -0 0.499253)
(0.436115 -0.0017549 -0 0.562832 -0 0.499248)
(0.415484 0.00147485 -0 0.582958 -0 0.49937)
(0.399672 0.00499179 -0 0.598615 -0 0.499319)
(0.388877 0.00832856 -0 0.609528 -0 0.499206)
(0.383687 0.0109309 -0 0.614792 -0 0.499179)
(0.383829 0.0125976 -0 0.61461 -0 0.499316)
(0.384019 0.0140829 -0 0.614476 -0 0.499388)
(0.384283 0.0156007 -0 0.614371 -0 0.499373)
(0.384544 0.0171298 -0 0.614221 -0 0.499412)
(0.384815 0.0186531 -0 0.61404 -0 0.499476)
(0.385109 0.0201784 -0 0.61384 -0 0.499532)
(0.385428 0.0217135 -0 0.613619 -0 0.49958)
(0.385775 0.023271 -0 0.613373 -0 0.499617)
(0.386162 0.0248873 -0 0.613096 -0 0.499638)
(0.38656 0.0265762 -0 0.612746 -0 0.49971)
(0.387262 0.0291478 -0 0.612197 -0 0.499677)
(0.486054 0.011668 -0 0.513301 -0 0.500221)
(0.461368 0.0111335 -0 0.538256 -0 0.499185)
(0.437449 0.0100232 -0 0.561606 -0 0.499145)
(0.41702 0.00873763 -0 0.58153 -0 0.499259)
(0.400998 0.00752033 -0 0.597348 -0 0.499239)
(0.389744 0.00648246 -0 0.608716 -0 0.499117)
(0.383335 0.00570426 -0 0.615184 -0 0.499098)
(0.383278 0.00506868 -0 0.615201 -0 0.499224)
(0.383261 0.0046914 -0 0.615233 -0 0.499326)
(0.383314 0.00443965 -0 0.615327 -0 0.499311)
(0.383349 0.00431151 -0 0.615392 -0 0.499348)
(0.383376 0.00432363 -0 0.61544 -0 0.499411)
(0.383414 0.00449486 -0 0.615486 -0 0.499461)
(0.383466 0.00488669 -0 0.615527 -0 0.499499)
(0.383532 0.00559335 -0 0.615547 -0 0.499534)
(0.383614 0.00667259 -0 0.615533 -0 0.499581)
(0.383705 0.0079815 -0 0.615474 -0 0.499651)
(0.383836 0.00983283 -0 0.615334 -0 0.499749)
(0.484529 0.0285165 -0 0.514786 -0 0.500285)
(0.457324 0.0259541 -0 0.542293 -0 0.499268)
(0.431936 0.0207627 -0 0.567088 -0 0.499326)
(0.411373 0.0146913 -0 0.587201 -0 0.499448)
(0.396487 0.00874115 -0 0.602045 -0 0.499359)
(0.386502 0.00350935 -0 0.612103 -0 0.499305)
(0.383229 -0.000551866 -0 0.615413 -0 0.499331)
(0.383243 -0.00336916 -0 0.615348 -0 0.499499)
(0.383356 -0.00557126 -0 0.615314 -0 0.49956)
(0.383532 -0.00751929 -0 0.615293 -0 0.499559)
(0.383699 -0.00915229 -0 0.615251 -0 0.499591)
(0.38385 -0.0103649 -0 0.615222 -0 0.499625)
(0.383975 -0.0111374 -0 0.615226 -0 0.499646)
(0.384051 -0.0114466 -0 0.615264 -0 0.499673)
(0.384069 -0.0113463 -0 0.615321 -0 0.499725)
(0.384028 -0.0111198 -0 0.61534 -0 0.499853)
(0.38409 -0.011055 -0 0.615427 -0 0.499781)
(0.38412 -0.0105504 -0 0.615559 -0 0.499671)
(0.481421 0.0438625 -0 0.517933 -0 0.500284)
(0.449504 0.037997 -0 0.550365 -0 0.499146)
(0.422127 0.0277356 -0 0.577155 -0 0.499322)
(0.402466 0.0167679 -0 0.596399 -0 0.49952)
(0.389793 0.00670931 -0 0.60903 -0 0.499559)
(0.383345 -0.00179096 -0 0.615574 -0 0.499513)
(0.38361 -0.00793957 -0 0.61534 -0 0.499591)
(0.383989 -0.0122789 -0 0.614985 -0 0.499725)
(0.384487 -0.015686 -0 0.614686 -0 0.499705)
(0.384991 -0.0184667 -0 0.614392 -0 0.499682)
(0.385419 -0.0205662 -0 0.614133 -0 0.499696)
(0.385731 -0.0219119 -0 0.613972 -0 0.499717)
(0.385922 -0.0226454 -0 0.613901 -0 0.49975)
(0.385998 -0.0231133 -0 0.613808 -0 0.49989)
(0.3861 -0.0236222 -0 0.613715 -0 0.499967)
(0.386318 -0.0241785 -0 0.613706 -0 0.499804)
(0.386767 -0.024351 -0 0.613416 -0 0.499639)
(0.391686 -0.0225688 -0 0.608248 -0 0.499853)
(0.475573 0.0597721 -0 0.523959 -0 0.500165)
(0.437073 0.0478921 -0 0.563225 -0 0.498932)
(0.409124 0.0305154 -0 0.590222 -0 0.499626)
(0.39214 0.0143373 -0 0.606872 -0 0.499923)
(0.383428 0.000825134 -0 0.615764 -0 0.499791)
(0.383894 -0.00928081 -0 0.615511 -0 0.499687)
(0.384693 -0.0161568 -0 0.614822 -0 0.499752)
(0.385585 -0.020947 -0 0.614195 -0 0.499687)
(0.386381 -0.0243513 -0 0.613669 -0 0.499618)
(0.386987 -0.026683 -0 0.613254 -0 0.499613)
(0.387343 -0.0282257 -0 0.612886 -0 0.499777)
(0.387588 -0.0292795 -0 0.612611 -0 0.499917)
(0.387811 -0.030099 -0 0.612411 -0 0.499953)
(0.388083 -0.0308502 -0 0.612273 -0 0.499811)
(0.388262 -0.0313954 -0 0.612141 -0 0.499727)
(0.392229 -0.030461 -0 0.608019 -0 0.499795)
(0.396805 -0.0289065 -0 0.603168 -0 0.499927)
(0.400883 -0.0269196 9.39354e-20 0.598874 -0 0.499971)
(0.465297 0.076097 -0 0.534327 -0 0.500168)
(0.420469 0.0532175 -0 0.579662 -0 0.4994)
(0.394111 0.0273186 -0 0.605279 -0 0.500102)
(0.383883 0.00683875 -0 0.615909 -0 0.499747)
(0.384165 -0.00722901 -0 0.616154 -0 0.499325)
(0.385191 -0.0163036 -0 0.615354 -0 0.499267)
(0.38615 -0.0221692 -0 0.614375 -0 0.499462)
(0.386976 -0.0261589 -0 0.613532 -0 0.499629)
(0.3876 -0.0289001 -0 0.61284 -0 0.499811)
(0.388071 -0.0307537 -0 0.612332 -0 0.499882)
(0.388388 -0.032003 -0 0.611946 -0 0.499927)
(0.388645 -0.0329478 -0 0.611642 -0 0.499903)
(0.389177 -0.0336734 -0 0.610975 -0 0.499895)
(0.39512 -0.0325314 -0 0.604752 -0 0.499961)
(0.400021 -0.0314429 -0 0.599504 -0 0.500047)
(0.404564 -0.030164 -0 0.594757 -0 0.499956)
(0.408914 -0.0287545 -0 0.59027 -0 0.49976)
(0.413052 -0.0271858 -1.0771e-22 0.585897 -0 0.499645)
(0.447237 0.0930548 -0 0.551794 -0 0.500915)
(0.399316 0.0536006 -0 0.601581 -0 0.499065)
(0.385447 0.0182676 -0 0.615057 -0 0.499515)
(0.38404 -0.00132101 -0 0.616537 -0 0.499534)
(0.384784 -0.0130433 -0 0.615841 -0 0.499566)
(0.385745 -0.0204452 -0 0.61466 -0 0.499853)
(0.386584 -0.0252105 -0 0.61359 -0 0.50007)
(0.387235 -0.0284977 -0 0.612669 -0 0.500281)
(0.387779 -0.0309542 -0 0.61189 -0 0.500373)
(0.389213 -0.0326062 -0 0.610136 -0 0.500455)
(0.396388 -0.0320197 -0 0.602683 -0 0.500394)
(0.402548 -0.031405 -0 0.596251 -0 0.50027)
(0.408617 -0.0306131 -0 0.58993 -0 0.500067)
(0.413956 -0.0297054 -0 0.584297 -0 0.49986)
(0.418853 -0.028632 -0 0.579173 -0 0.499536)
(0.423293 -0.0274331 -0 0.574416 -0 0.499277)
(0.427711 -0.0260037 -0 0.569614 -0 0.49904)
(0.431691 -0.0244673 -1.08638e-19 0.565225 -0 0.498833)
(0.433689 0.0955353 -0 0.566195 -0 0.500256)
(0.393213 0.0428242 -0 0.609313 -0 0.49783)
(0.384037 0.00888768 -0 0.615918 -0 0.500453)
(0.383789 -0.00743206 -0 0.615863 -0 0.500715)
(0.384571 -0.0169517 -0 0.614601 -0 0.501042)
(0.386106 -0.0236174 -0 0.612352 -0 0.501538)
(0.394438 -0.0268014 -0 0.603728 -0 0.501411)
(0.402281 -0.0283042 -0 0.595661 -0 0.501166)
(0.410699 -0.0284893 -0 0.587094 -0 0.50069)
(0.418142 -0.0282516 -0 0.579359 -0 0.500313)
(0.425099 -0.02755 -0 0.571998 -0 0.499915)
(0.430793 -0.0267191 -0 0.565914 -0 0.499452)
(0.436057 -0.0255082 -0 0.560204 -0 0.498949)
(0.440631 -0.0241014 -0 0.555032 -0 0.498573)
(0.444994 -0.0224324 -0 0.550027 -0 0.498155)
(0.448607 -0.0207352 -0 0.545754 -0 0.497759)
(0.452093 -0.0188869 -0 0.541557 -0 0.497331)
(0.454973 -0.0170892 5.32285e-20 0.537969 -0 0.496949)
(0.426523 0.089201 -0 0.575604 -0 0.498257)
(0.388205 0.0324598 -0 0.611539 -0 0.500815)
(0.386122 -0.00146512 -0 0.610647 -0 0.503633)
(0.40374 -0.0132986 -0 0.594119 -0 0.502152)
(0.414678 -0.0181554 -0 0.583309 -0 0.501221)
(0.423378 -0.0215681 -0 0.574372 -0 0.50075)
(0.432977 -0.0230085 -0 0.564341 -0 0.500026)
(0.440568 -0.0230876 -0 0.556263 -0 0.499443)
(0.44767 -0.0218596 -0 0.548429 -0 0.498685)
(0.452919 -0.020286 -0 0.542339 -0 0.498086)
(0.457963 -0.018272 -0 0.536153 -0 0.49744)
(0.461724 -0.0163192 -0 0.53122 -0 0.496862)
(0.465139 -0.0140747 -0 0.526467 -0 0.496167)
(0.467633 -0.0118279 -0 0.522652 -0 0.495519)
(0.469956 -0.00949453 -0 0.518878 -0 0.494761)
(0.4716 -0.0072724 -0 0.515861 -0 0.494037)
(0.47315 -0.00507904 -0 0.512788 -0 0.493238)
(0.474199 -0.00296771 -4.38894e-20 0.510342 -0 0.492494)
(0.418503 0.0829553 -0 0.5815 -0 0.500543)
(0.396985 0.0137017 -0 0.598458 -0 0.504932)
(0.433753 -0.0139468 -0 0.563028 -0 0.502853)
(0.45108 -0.0156046 -0 0.547005 -0 0.500476)
(0.459444 -0.0144047 -0 0.538324 -0 0.498755)
(0.465074 -0.0132865 -0 0.532084 -0 0.497855)
(0.470512 -0.0112645 -0 0.525017 -0 0.496617)
(0.47428 -0.00868363 -0 0.519905 -0 0.495681)
(0.477096 -0.00557401 -0 0.514662 -0 0.494337)
(0.47871 -0.00229541 -0 0.510866 -0 0.493246)
(0.47975 0.000940756 -0 0.506744 -0 0.491775)
(0.480216 0.00414501 -0 0.503498 -0 0.490468)
(0.48028 0.00713977 -0 0.499938 -0 0.488847)
(0.48002 0.0102198 -0 0.497032 -0 0.487377)
(0.479475 0.0129872 -0 0.493849 -0 0.485673)
(0.478764 0.0158379 -0 0.491217 -0 0.484106)
(0.477846 0.0183375 -0 0.488348 -0 0.482362)
(0.476869 0.0208753 1.19157e-20 0.485984 -0 0.480742)
(0.418539 0.0692204 -0 0.576861 -0 0.505111)
(0.46255 -0.00878286 -0 0.538238 -0 0.499133)
(0.480835 -0.0105117 -0 0.517616 -0 0.499767)
(0.488504 -0.00280072 -0 0.508504 -0 0.499672)
(0.490828 0.00436862 -0 0.50381 -0 0.499012)
(0.492354 0.0109079 -0 0.500954 -0 0.498537)
(0.492492 0.0165833 -0 0.497764 -0 0.4969)
(0.492267 0.0220894 -0 0.495366 -0 0.495382)
(0.490595 0.0267556 -0 0.492195 -0 0.492709)
(0.488871 0.031515 -0 0.489507 -0 0.490287)
(0.48601 0.0353544 -0 0.485935 -0 0.486875)
(0.483408 0.0394258 -0 0.482804 -0 0.483836)
(0.480209 0.0425617 -0 0.479197 -0 0.48028)
(0.477146 0.0460495 -0 0.475789 -0 0.476909)
(0.474023 0.048661 -0 0.472398 -0 0.473551)
(0.470849 0.0516477 -0 0.46897 -0 0.470151)
(0.468057 0.0538735 -0 0.465997 -0 0.46721)
(0.464999 0.0564045 -6.68583e-21 0.462752 -0 0.46398)
(0.492341 0.0530127 -0 0.505623 -0 0.505641)
(0.503852 0.0517652 -0 0.509408 -0 0.508141)
(0.516013 0.0572114 -0 0.518755 -0 0.517274)
(0.536625 0.0629987 -0 0.537996 -0 0.536684)
(0.558981 0.0683865 -0 0.559415 -0 0.55846)
(0.585306 0.0745207 -0 0.584808 -0 0.584304)
(0.607843 0.0806034 -0 0.60638 -0 0.606381)
(0.629423 0.0869886 -0 0.627024 -0 0.627536)
(0.645771 0.0928533 -0 0.642504 -0 0.64354)
(0.659133 0.0987147 -0 0.655127 -0 0.656605)
(0.669456 0.103979 -0 0.664826 -0 0.666696)
(0.677557 0.109216 -0 0.672369 -0 0.674595)
(0.684046 0.113872 -0 0.678404 -0 0.68093)
(0.688897 0.118545 -0 0.682851 -0 0.685635)
(0.69398 0.12273 -0 0.687621 -0 0.690619)
(0.697282 0.126959 -0 0.690621 -0 0.693805)
(0.702546 0.130826 -0 0.695676 -0 0.699015)
(0.705197 0.134704 1.31102e-21 0.698084 -0 0.701557)
(0.653442 0.151654 -0 0.651284 -0 0.652155)
(1.07114 0.248432 -0 1.066 -0 1.06861)
(1.52816 0.354226 -0 1.51917 -0 1.5237)
(1.96754 0.455877 -0 1.95436 -0 1.961)
(2.31312 0.535799 -0 2.29636 -0 2.3049)
(2.56839 0.594831 -0 2.54895 -0 2.55893)
(2.71294 0.628266 -0 2.69204 -0 2.7028)
(2.79958 0.648325 -0 2.77797 -0 2.78909)
(2.80389 0.649355 -0 2.78252 -0 2.79349)
(2.78818 0.645763 -0 2.76732 -0 2.77801)
(2.75041 0.637074 -0 2.73033 -0 2.7406)
(2.69041 0.623241 -0 2.67131 -0 2.68105)
(2.62232 0.607537 -0 2.60428 -0 2.61346)
(2.55165 0.591232 -0 2.53465 -0 2.54328)
(2.48031 0.574768 -0 2.46434 -0 2.47243)
(2.41136 0.558847 -0 2.39632 -0 2.40392)
(2.34461 0.543443 -0 2.33051 -0 2.33764)
(2.28188 0.528948 -0 2.26854 -0 2.27526)
(0.000393286 -1.9305e-06 1.50341e-28 0.000387234 -2.45853e-25 0.000390163)
(0.00178 3.69227e-05 -5.82697e-24 0.0016873 5.0533e-24 0.00173302)
(0.00231311 3.98391e-05 7.91436e-24 0.00235866 -0 0.00233529)
(0.00336783 6.65822e-07 -1.01535e-26 0.00378843 -1.11169e-23 0.0035797)
(0.00679163 -0.000199313 2.31534e-23 0.00831014 -0 0.00755167)
(0.0130296 -0.00090693 2.70817e-23 0.0167285 -2.13106e-23 0.0148661)
(0.0210399 -0.00228324 -6.66488e-23 0.0274704 6.28611e-23 0.024217)
(0.029637 -0.00420898 7.55067e-26 0.038654 8.26714e-23 0.0340917)
(0.0389231 -0.00659489 -0 0.0501677 -0 0.0444787)
(0.0483404 -0.00928912 -1.22174e-22 0.0612791 1.17855e-22 0.0547295)
(0.0574584 -0.0121454 -2.7356e-22 0.0715355 7.56126e-23 0.0644025)
(0.0661733 -0.0150734 1.51516e-22 0.08091 -0 0.0734338)
(0.0746431 -0.0175827 -0 0.0892997 -0 0.0818522)
(0.0828238 -0.0196604 -0 0.0969154 -0 0.089747)
(0.0905717 -0.0215903 -1.65646e-22 0.103962 -0 0.0971432)
(0.0981677 -0.0234466 -5.06432e-22 0.110811 6.19521e-23 0.104365)
(0.105164 -0.0251295 1.68365e-22 0.116984 -0 0.110954)
(0.111893 -0.0267243 -1.54233e-25 0.12287 -1.68866e-22 0.117267)
(0.117866 -0.0281187 -0 0.127943 -0 0.122795)
(0.123764 -0.0294789 -0 0.132946 -0 0.128251)
(0.128904 -0.0306438 1.59918e-25 0.137123 1.75095e-22 0.132918)
(0.133904 -0.0317619 -0 0.141143 -0 0.137438)
(0.138484 -0.0327687 -1.73816e-22 0.144725 -1.79342e-22 0.141527)
(0.142863 -0.0337185 -5.11959e-22 0.148114 1.89811e-23 0.145419)
(0.147203 -0.0346519 7.00202e-22 0.151487 -1.39058e-23 0.149285)
(0.151047 -0.0354629 -1.06153e-21 0.154381 9.03702e-24 0.152662)
(0.154945 -0.0362826 -5.45078e-22 0.157368 4.45116e-24 0.156112)
(0.15812 -0.0369313 1.77586e-22 0.159663 -0 0.158855)
(0.161425 -0.0376105 1.76302e-22 0.162138 -0 0.161756)
(0.164057 -0.0381298 9.18602e-22 0.163958 7.60938e-24 0.163983)
(0.166825 -0.038678 5.67454e-22 0.165933 2.11755e-22 0.166347)
(0.169248 -0.0391468 -1.80705e-22 0.167598 -0 0.168386)
(0.1714 -0.0395531 1.77753e-22 0.169023 -0 0.17017)
(0.173297 -0.0398982 7.53429e-22 0.170203 1.99276e-23 0.171703)
(0.17471 -0.0401275 -1.82151e-22 0.170897 -0 0.172751)
(0.17577 -0.0402699 -1.782e-22 0.171229 -0 0.173439)
(0.176047 -0.0402162 -7.41325e-22 0.170709 -2.82713e-23 0.173306)
(0.175955 -0.040065 4.15128e-24 0.169769 -0 0.172783)
(0.175217 -0.0397362 -1.07086e-21 0.168052 -2.56325e-22 0.171536)
(0.173947 -0.0392346 -1.23068e-21 0.165551 -8.01649e-23 0.169646)
(0.170278 -0.0381733 3.49881e-22 0.160727 -0 0.165395)
(0.167164 -0.0371281 -0 0.155942 -0 0.161409)
(0.161403 -0.035388 3.95423e-25 0.148274 4.32938e-22 0.154734)
(0.151176 -0.0327391 3.79392e-25 0.137026 4.15395e-22 0.143992)
(0.142357 -0.0301461 -2.93109e-22 0.126227 3.94376e-22 0.134087)
(0.127336 -0.02586 -1.16016e-21 0.108918 -5.3078e-22 0.117956)
(0.0977469 -0.0191817 -6.95729e-22 0.0815117 -1.41176e-22 0.0895033)
(0.0624075 -0.0122686 -2.82034e-22 0.0521184 1.41254e-22 0.0571408)
(0.037322 -0.00739998 2.16254e-22 0.0313501 -1.48172e-22 0.0342933)
(0.0260524 -0.00514424 1.70214e-22 0.0218046 3.75874e-23 0.0239559)
(0.0229002 -0.00399764 -1.49624e-22 0.0195281 -0 0.0212464)
(0.0232328 -0.00331123 -1.86328e-22 0.0203438 -2.48853e-23 0.0217773)
(0.0263071 -0.0029426 -1.99631e-23 0.0233678 -1.41294e-22 0.0247893)
(0.0312989 -0.0026554 9.54565e-23 0.028131 -0 0.0296735)
(0.038385 -0.00240165 -0 0.0354363 -0 0.0369002)
(0.0470703 -0.00217532 -1.24158e-22 0.0454272 -0 0.046246)
(0.0552793 -0.00216085 -7.42677e-23 0.0560471 4.16973e-24 0.0556648)
(0.0612742 -0.00259125 1.55972e-22 0.0640524 -0 0.0626372)
(0.0622277 -0.00301056 -1.96812e-25 0.0655018 -2.15486e-22 0.0638865)
(0.0611382 -0.003318 -0 0.0629237 -0 0.0619228)
(0.0575815 -0.00277705 -1.71466e-25 0.0571651 -1.87734e-22 0.0572974)
(0.046751 -0.00133122 -0 0.0477421 -0 0.0473022)
(0.032015 -0.00104069 1.0856e-25 0.035142 1.18862e-22 0.0334438)
(0.0254996 -0.001569 -0 0.0313861 -0 0.0283991)
(0.0373525 -0.00297035 9.54052e-23 0.0482028 -1.47442e-22 0.0423971)
(0.0824485 -0.0033959 1.68981e-22 0.0929643 1.82335e-22 0.0875554)
(0.0774583 -0.00159392 -1.54999e-22 0.0811455 -0 0.0795967)
(0.0758507 -0.00247804 -1.467e-22 0.0682357 2.35075e-22 0.0721703)
(0.122227 0.00303622 7.63869e-23 0.090596 -2.31551e-22 0.106151)
(0.246713 0.0234916 1.11647e-21 0.177111 -5.04207e-22 0.211319)
(0.402005 0.0550424 7.94791e-22 0.295199 -0 0.34804)
(0.577905 0.0956473 -3.26157e-21 0.439185 1.82587e-21 0.507479)
(0.745484 0.136786 3.26597e-21 0.596117 -1.05067e-21 0.669402)
(0.884847 0.174716 1.25768e-21 0.741189 -0 0.81152)
(0.992286 0.206019 -5.56318e-21 0.864376 8.90182e-22 0.926858)
(1.07277 0.230442 -6.99098e-22 0.964478 1.28811e-21 1.01723)
(1.13364 0.249241 -8.21525e-22 1.04493 -0 1.08802)