/*--------------------------------*- C++ -*----------------------------------*\
| =========                 |                                                 |
| \\      /  F ield         | OpenFOAM: The Open Source CFD Toolbox           |
|  \\    /   O peration     | Version:  2112                                  |
|   \\  /    A nd           | Website:  www.openfoam.com                      |
|    \\/     M anipulation  |                                                 |
\*---------------------------------------------------------------------------*/
FoamFile
{
    version     2.0;
    format      ascii;
    arch        "LSB;label=32;scalar=64";
    class       surfaceScalarField;
    location    "0.06";
    object      ddtCorrDdt0(phi);
}
// * * * * * * * * * * * * * * * * * * * * * * * * * * * * * * * * * * * * * //

dimensions      [0 3 -2 0 0 0 0];

oriented        oriented;

internalField   nonuniform List<scalar> 
24170
(
2.37072e-09
-2.37134e-09
7.91e-09
-5.54054e-09
1.67409e-08
-8.83228e-09
2.88073e-08
-1.20677e-08
4.39067e-08
-1.51008e-08
6.15573e-08
-1.76519e-08
8.11132e-08
-1.95572e-08
1.01897e-07
-2.0785e-08
1.23363e-07
-2.14673e-08
1.45332e-07
-2.19693e-08
1.6759e-07
-2.22593e-08
1.90539e-07
-2.29499e-08
2.16435e-07
-2.58963e-08
2.4282e-07
-2.63858e-08
2.81152e-07
-3.8333e-08
3.37082e-07
-5.59298e-08
4.10373e-07
-7.32915e-08
-9.69408e-08
5.07312e-07
-2.73101e-10
-2.09897e-09
6.99757e-10
-6.51471e-09
3.17624e-09
-1.13102e-08
7.65773e-09
-1.65505e-08
1.46006e-08
-2.2045e-08
2.44011e-08
-2.74536e-08
3.74237e-08
-3.2581e-08
5.39905e-08
-3.73529e-08
7.43571e-08
-4.1835e-08
9.86491e-08
-4.62623e-08
1.27275e-07
-5.0886e-08
1.60986e-07
-5.66624e-08
2.00162e-07
-6.5073e-08
2.48633e-07
-7.48566e-08
3.00068e-07
-8.97685e-08
3.53796e-07
-1.09659e-07
4.22124e-07
-1.4162e-07
-2.04964e-07
5.30146e-07
7.57581e-10
-2.85736e-09
2.75671e-09
-8.51519e-09
5.61598e-09
-1.41708e-08
9.15541e-09
-2.00913e-08
1.3393e-08
-2.62839e-08
1.85873e-08
-3.26491e-08
2.51608e-08
-3.91558e-08
3.36556e-08
-4.58488e-08
4.47447e-08
-5.29252e-08
5.91926e-08
-6.07112e-08
7.79934e-08
-6.96878e-08
1.01886e-07
-8.05561e-08
1.31611e-07
-9.47984e-08
1.6968e-07
-1.12926e-07
2.17378e-07
-1.37467e-07
2.78058e-07
-1.70339e-07
3.51991e-07
-2.15554e-07
-2.72808e-07
4.19834e-07
9.80224e-10
-3.83844e-09
3.65952e-09
-1.11959e-08
7.83178e-09
-1.83445e-08
1.33331e-08
-2.55939e-08
2.00566e-08
-3.30088e-08
2.79772e-08
-4.0571e-08
3.7141e-08
-4.83208e-08
4.76675e-08
-5.63764e-08
5.97431e-08
-6.50018e-08
7.36115e-08
-7.45806e-08
8.95805e-08
-8.56577e-08
1.08039e-07
-9.90151e-08
1.29293e-07
-1.16053e-07
1.54009e-07
-1.37643e-07
1.82408e-07
-1.65867e-07
2.1478e-07
-2.02711e-07
2.50895e-07
-2.5167e-07
-3.16569e-07
2.94654e-07
1.01562e-09
-4.85497e-09
3.84053e-09
-1.40222e-08
8.31872e-09
-2.28242e-08
1.43533e-08
-3.16299e-08
2.19156e-08
-4.05724e-08
3.10476e-08
-4.97043e-08
4.18508e-08
-5.91253e-08
5.44831e-08
-6.90099e-08
6.91336e-08
-7.96534e-08
8.60251e-08
-9.1473e-08
1.0541e-07
-1.05043e-07
1.2753e-07
-1.21137e-07
1.52363e-07
-1.40886e-07
1.79975e-07
-1.65256e-07
2.09939e-07
-1.95832e-07
2.41689e-07
-2.34462e-07
2.73167e-07
-2.83149e-07
-3.448e-07
3.01396e-07
1.0513e-09
-5.90721e-09
4.00408e-09
-1.69764e-08
8.68365e-09
-2.75052e-08
1.4996e-08
-3.79436e-08
2.29242e-08
-4.8502e-08
3.25238e-08
-5.93051e-08
4.39104e-08
-7.05131e-08
5.72514e-08
-8.2352e-08
7.27429e-08
-9.5146e-08
9.06005e-08
-1.09332e-07
1.11041e-07
-1.25484e-07
1.34236e-07
-1.44333e-07
1.60188e-07
-1.66839e-07
1.88899e-07
-1.93968e-07
2.20003e-07
-2.26937e-07
2.52696e-07
-2.67157e-07
2.85028e-07
-3.15481e-07
-3.73541e-07
3.13767e-07
1.08811e-09
-6.99629e-09
4.16022e-09
-2.00499e-08
9.03172e-09
-3.23781e-08
1.56062e-08
-4.45195e-08
2.38654e-08
-5.67626e-08
3.38583e-08
-6.92993e-08
4.56892e-08
-8.23453e-08
5.95073e-08
-9.61713e-08
7.54853e-08
-1.11125e-07
9.38014e-08
-1.27649e-07
1.14613e-07
-1.46297e-07
1.3802e-07
-1.67741e-07
1.63973e-07
-1.92793e-07
1.92293e-07
-2.22288e-07
2.22458e-07
-2.57103e-07
2.53416e-07
-2.98116e-07
2.83546e-07
-3.45612e-07
-4.00035e-07
3.10037e-07
1.12087e-09
-8.11817e-09
4.29578e-09
-2.32262e-08
9.33764e-09
-3.74215e-08
1.61474e-08
-5.13307e-08
2.4702e-08
-6.53187e-08
3.504e-08
-7.96386e-08
4.72474e-08
-9.45539e-08
6.14455e-08
-1.10371e-07
7.77694e-08
-1.2745e-07
9.6344e-08
-1.46225e-07
1.17253e-07
-1.67208e-07
1.405e-07
-1.90988e-07
1.6593e-07
-2.18224e-07
1.93197e-07
-2.49556e-07
2.21643e-07
-2.8555e-07
2.50169e-07
-3.26643e-07
2.77235e-07
-3.7268e-07
-4.23397e-07
3.00594e-07
1.14724e-09
-9.26642e-09
4.40279e-09
-2.64832e-08
9.57821e-09
-4.25984e-08
1.65699e-08
-5.83237e-08
2.53472e-08
-7.40974e-08
3.59356e-08
-9.02282e-08
4.83996e-08
-1.07019e-07
6.28281e-08
-1.248e-07
7.93121e-08
-1.43935e-07
9.79174e-08
-1.64831e-07
1.18651e-07
-1.87942e-07
1.41418e-07
-2.13757e-07
1.65968e-07
-2.42774e-07
1.91841e-07
-2.75431e-07
2.18309e-07
-3.1202e-07
2.44295e-07
-3.52631e-07
2.68427e-07
-3.96814e-07
-4.4399e-07
2.89017e-07
1.16407e-09
-1.04315e-08
4.46968e-09
-2.97903e-08
9.72695e-09
-4.78571e-08
1.6827e-08
-6.54252e-08
2.57291e-08
-8.30009e-08
3.64416e-08
-1.00942e-07
4.90036e-08
-1.19582e-07
6.34669e-08
-1.39265e-07
7.98734e-08
-1.60343e-07
9.82265e-08
-1.83185e-07
1.18457e-07
-2.08173e-07
1.40385e-07
-2.35687e-07
1.63674e-07
-2.66065e-07
1.87796e-07
-2.99554e-07
2.11993e-07
-3.36218e-07
2.35256e-07
-3.75896e-07
2.56409e-07
-4.17969e-07
-4.61739e-07
2.74155e-07
1.16763e-09
-1.16003e-08
4.48221e-09
-3.31064e-08
9.7533e-09
-5.31297e-08
1.68662e-08
-7.25397e-08
2.5767e-08
-9.19031e-08
3.64433e-08
-1.1162e-07
4.89042e-08
-1.32045e-07
6.31609e-08
-1.53523e-07
7.92034e-08
-1.76387e-07
9.69725e-08
-2.00956e-07
1.16329e-07
-2.27531e-07
1.37019e-07
-2.56379e-07
1.58647e-07
-2.87695e-07
1.80646e-07
-3.21555e-07
2.02277e-07
-3.5785e-07
2.22636e-07
-3.96257e-07
2.40754e-07
-4.3609e-07
-4.7666e-07
2.55672e-07
9.77593e-10
-1.2579e-08
3.74446e-09
-3.58749e-08
8.14272e-09
-5.75296e-08
1.40702e-08
-7.84687e-08
2.14691e-08
-9.93036e-08
3.03107e-08
-1.20463e-07
4.05776e-08
-1.42313e-07
5.22466e-08
-1.65193e-07
6.52693e-08
-1.89411e-07
7.95504e-08
-2.15238e-07
9.49248e-08
-2.42907e-07
1.11136e-07
-2.72592e-07
1.27818e-07
-3.04379e-07
1.44492e-07
-3.3823e-07
1.60567e-07
-3.73927e-07
1.75376e-07
-4.11069e-07
1.88245e-07
-4.48961e-07
-4.86967e-07
1.9855e-07
1.09015e-09
-1.36703e-08
4.17202e-09
-3.89583e-08
9.06284e-09
-6.24221e-08
1.56401e-08
-8.50476e-08
2.38243e-08
-1.07489e-07
3.35601e-08
-1.302e-07
4.4798e-08
-1.53553e-07
5.74738e-08
-1.77871e-07
7.14885e-08
-2.03427e-07
8.66862e-08
-2.30438e-07
1.02833e-07
-2.59056e-07
1.196e-07
-2.8936e-07
1.36554e-07
-3.21335e-07
1.5316e-07
-3.54838e-07
1.68804e-07
-3.89574e-07
1.82832e-07
-4.25099e-07
1.9462e-07
-4.60751e-07
-4.95994e-07
2.03644e-07
1.17062e-09
-1.48422e-08
4.4701e-09
-4.22594e-08
9.69374e-09
-6.76474e-08
1.66951e-08
-9.20507e-08
2.53659e-08
-1.16162e-07
3.56142e-08
-1.4045e-07
4.73451e-08
-1.65285e-07
6.04398e-08
-1.90967e-07
7.47354e-08
-2.17725e-07
9.00048e-08
-2.45709e-07
1.05941e-07
-2.74994e-07
1.22146e-07
-3.05567e-07
1.38133e-07
-3.37325e-07
1.53343e-07
-3.7005e-07
1.67169e-07
-4.03402e-07
1.7901e-07
-4.36942e-07
1.88331e-07
-4.70074e-07
-5.02391e-07
1.94726e-07
1.17971e-09
-1.60234e-08
4.48714e-09
-4.55686e-08
9.70309e-09
-7.28652e-08
1.66561e-08
-9.90056e-08
2.52029e-08
-1.2471e-07
3.52054e-08
-1.50455e-07
4.65123e-08
-1.76594e-07
5.89399e-08
-2.03397e-07
7.22541e-08
-2.31041e-07
8.61554e-08
-2.59613e-07
1.0027e-07
-2.89111e-07
1.14152e-07
-3.19451e-07
1.2729e-07
-3.50465e-07
1.39134e-07
-3.81896e-07
1.49129e-07
-4.13399e-07
1.56759e-07
-4.44575e-07
1.61596e-07
-4.74913e-07
-5.04151e-07
1.63354e-07
1.05302e-09
-1.70781e-08
3.98188e-09
-4.84993e-08
8.56728e-09
-7.74526e-08
1.46194e-08
-1.0506e-07
2.1958e-08
-1.32051e-07
3.03961e-08
-1.58895e-07
3.97225e-08
-1.85922e-07
4.96878e-08
-2.13364e-07
5.9992e-08
-2.41348e-07
7.02779e-08
-2.69901e-07
8.01299e-08
-2.98965e-07
8.90854e-08
-3.28409e-07
9.66516e-08
-3.58033e-07
1.02333e-07
-3.8758e-07
1.05665e-07
-4.16733e-07
1.06251e-07
-4.45164e-07
1.03785e-07
-4.72448e-07
-4.98464e-07
9.80966e-08
6.918e-10
-1.77717e-08
2.589e-09
-5.03986e-08
5.50229e-09
-8.03679e-08
9.24555e-09
-1.08805e-07
1.36142e-08
-1.36422e-07
1.83823e-08
-1.63665e-07
2.32914e-08
-1.90834e-07
2.80441e-08
-2.18119e-07
3.22997e-08
-2.45605e-07
3.56764e-08
-2.7328e-07
3.77592e-08
-3.0105e-07
3.81157e-08
-3.28768e-07
3.63168e-08
-3.56237e-07
3.19615e-08
-3.83226e-07
2.47001e-08
-4.09473e-07
1.42613e-08
-4.34727e-07
4.18657e-10
-4.58607e-07
-4.81287e-07
-1.67602e-08
-1.60681e-11
-1.77577e-08
-1.37914e-10
-5.02789e-08
-4.65244e-10
-8.00428e-08
-1.13785e-09
-1.08135e-07
-2.34221e-09
-1.3522e-07
-4.30823e-09
-1.61701e-07
-7.30304e-09
-1.87841e-07
-1.16294e-08
-2.13795e-07
-1.76201e-08
-2.39617e-07
-2.56283e-08
-2.65274e-07
-3.60128e-08
-2.90668e-07
-4.9122e-08
-3.15661e-07
-6.52714e-08
-3.40089e-07
-8.47249e-08
-3.63775e-07
-1.07661e-07
-3.86539e-07
-1.3382e-07
-4.0857e-07
-1.64672e-07
-4.27757e-07
-4.47077e-07
-1.98883e-07
-1.28483e-09
-1.64752e-08
-4.88259e-09
-4.66836e-08
-1.06898e-08
-7.42381e-08
-1.87382e-08
-1.00089e-07
-2.91272e-08
-1.24833e-07
-4.20166e-08
-1.48814e-07
-5.76128e-08
-1.72247e-07
-7.6155e-08
-1.95255e-07
-9.79002e-08
-2.17874e-07
-1.23106e-07
-2.4007e-07
-1.52015e-07
-2.61761e-07
-1.84839e-07
-2.82839e-07
-2.21748e-07
-3.03182e-07
-2.62859e-07
-3.22666e-07
-3.08242e-07
-3.41157e-07
-3.58262e-07
-3.58552e-07
-4.11371e-07
-3.7465e-07
-3.89717e-07
-4.68732e-07
-1.6717e-09
-1.48055e-08
-6.35857e-09
-4.19989e-08
-1.38411e-08
-6.67578e-08
-2.40088e-08
-8.99233e-08
-3.68341e-08
-1.1201e-07
-5.23404e-08
-1.3331e-07
-7.05869e-08
-1.54003e-07
-9.16558e-08
-1.74188e-07
-1.15639e-07
-1.93893e-07
-1.42625e-07
-2.13087e-07
-1.72688e-07
-2.317e-07
-2.05879e-07
-2.49649e-07
-2.42221e-07
-2.66842e-07
-2.81701e-07
-2.83188e-07
-3.24265e-07
-2.98595e-07
-3.69824e-07
-3.12995e-07
-4.18218e-07
-3.26257e-07
-3.38525e-07
-4.69412e-07
-1.87477e-09
-1.29327e-08
-7.15866e-09
-3.67171e-08
-1.55644e-08
-5.83543e-08
-2.69184e-08
-7.85715e-08
-4.11286e-08
-9.78022e-08
-5.81534e-08
-1.16288e-07
-7.79861e-08
-1.34173e-07
-1.00641e-07
-1.51536e-07
-1.2614e-07
-1.68396e-07
-1.54503e-07
-1.84725e-07
-1.85739e-07
-2.00466e-07
-2.19836e-07
-2.15554e-07
-2.56761e-07
-2.29918e-07
-2.96455e-07
-2.43496e-07
-3.38828e-07
-2.56224e-07
-3.83765e-07
-2.68059e-07
-4.31108e-07
-2.78916e-07
-2.88935e-07
-4.80699e-07
-1.90967e-09
-1.10248e-08
-7.29809e-09
-3.13308e-08
-1.58504e-08
-4.98041e-08
-2.73562e-08
-6.70679e-08
-4.16812e-08
-8.34793e-08
-5.87403e-08
-9.92307e-08
-7.84842e-08
-1.14431e-07
-1.00887e-07
-1.29135e-07
-1.25933e-07
-1.43352e-07
-1.53605e-07
-1.57055e-07
-1.83878e-07
-1.70194e-07
-2.16716e-07
-1.82717e-07
-2.52064e-07
-1.94573e-07
-2.89845e-07
-2.05716e-07
-3.29964e-07
-2.16107e-07
-3.72303e-07
-2.25722e-07
-4.16722e-07
-2.34498e-07
-2.42559e-07
-4.631e-07
-1.84115e-09
-9.1853e-09
-7.04073e-09
-2.61331e-08
-1.52772e-08
-4.15696e-08
-2.63306e-08
-5.60165e-08
-4.00498e-08
-6.97621e-08
-5.63265e-08
-8.2956e-08
-7.50855e-08
-9.56737e-08
-9.6274e-08
-1.07948e-07
-1.19852e-07
-1.19776e-07
-1.45784e-07
-1.31125e-07
-1.74029e-07
-1.41951e-07
-2.04538e-07
-1.5221e-07
-2.37251e-07
-1.61862e-07
-2.72093e-07
-1.70877e-07
-3.08967e-07
-1.79235e-07
-3.47756e-07
-1.86934e-07
-3.88307e-07
-1.93948e-07
-2.00396e-07
-4.30472e-07
-1.72253e-09
-7.46435e-09
-6.58527e-09
-2.12723e-08
-1.4264e-08
-3.3893e-08
-2.45319e-08
-4.57506e-08
-3.72364e-08
-5.70596e-08
-5.22682e-08
-6.79261e-08
-6.95449e-08
-7.83989e-08
-8.90015e-08
-8.84935e-08
-1.10588e-07
-9.81917e-08
-1.34259e-07
-1.07455e-07
-1.59971e-07
-1.16242e-07
-1.87673e-07
-1.24509e-07
-2.17312e-07
-1.32225e-07
-2.48823e-07
-1.39367e-07
-2.82133e-07
-1.45927e-07
-3.17154e-07
-1.51915e-07
-3.5379e-07
-1.57314e-07
-1.62244e-07
-3.91944e-07
-1.57503e-09
-5.89081e-09
-6.03341e-09
-1.68158e-08
-1.30734e-08
-2.68549e-08
-2.2463e-08
-3.6363e-08
-3.40325e-08
-4.5492e-08
-4.76778e-08
-5.42827e-08
-6.33157e-08
-6.27628e-08
-8.08797e-08
-7.09313e-08
-1.00319e-07
-7.87545e-08
-1.21588e-07
-8.61879e-08
-1.44642e-07
-9.31889e-08
-1.69435e-07
-9.97184e-08
-1.95916e-07
-1.05745e-07
-2.24029e-07
-1.11256e-07
-2.53695e-07
-1.16263e-07
-2.84818e-07
-1.20793e-07
-3.17273e-07
-1.24861e-07
-1.28502e-07
-3.51016e-07
-1.42282e-09
-4.46939e-09
-5.41472e-09
-1.28257e-08
-1.17455e-08
-2.05259e-08
-2.02091e-08
-2.79014e-08
-3.06369e-08
-3.5066e-08
-4.29203e-08
-4.20011e-08
-5.69714e-08
-4.87134e-08
-7.27203e-08
-5.51841e-08
-9.01101e-08
-6.13665e-08
-1.09091e-07
-6.72086e-08
-1.29613e-07
-7.26686e-08
-1.51632e-07
-7.77016e-08
-1.75108e-07
-8.22707e-08
-1.99997e-07
-8.63691e-08
-2.26246e-07
-9.00155e-08
-2.53795e-07
-9.32453e-08
-2.82541e-07
-9.61179e-08
-9.88318e-08
-3.12213e-07
-1.33151e-09
-3.13918e-09
-4.94081e-09
-9.21816e-09
-1.05967e-08
-1.48718e-08
-1.80964e-08
-2.04035e-08
-2.72716e-08
-2.58926e-08
-3.79778e-08
-3.12966e-08
-5.00878e-08
-3.66051e-08
-6.35003e-08
-4.17732e-08
-7.81257e-08
-4.67428e-08
-9.38813e-08
-5.14546e-08
-1.1069e-07
-5.58612e-08
-1.28495e-07
-5.98988e-08
-1.47249e-07
-6.35181e-08
-1.66915e-07
-6.67045e-08
-1.87459e-07
-6.94735e-08
-2.08826e-07
-7.18806e-08
-2.31024e-07
-7.39217e-08
-7.55634e-08
-2.54294e-07
-1.05848e-09
-2.08232e-09
-3.89945e-09
-6.37923e-09
-8.14543e-09
-1.06279e-08
-1.34829e-08
-1.50682e-08
-1.97351e-08
-1.96424e-08
-2.67873e-08
-2.42463e-08
-3.45463e-08
-2.8848e-08
-4.3011e-08
-3.33104e-08
-5.22147e-08
-3.7541e-08
-6.22157e-08
-4.14555e-08
-7.31306e-08
-4.49482e-08
-8.51206e-08
-4.79106e-08
-9.83701e-08
-5.02704e-08
-1.13067e-07
-5.20092e-08
-1.29379e-07
-5.31632e-08
-1.47439e-07
-5.38225e-08
-1.67234e-07
-5.41297e-08
-5.4337e-08
-1.88462e-07
3.08071e-10
-2.39227e-09
-4.93005e-10
-5.58046e-09
-2.39387e-09
-8.72941e-09
-5.62619e-09
-1.18383e-08
-1.04197e-08
-1.48511e-08
-1.69973e-08
-1.76709e-08
-2.55607e-08
-2.02867e-08
-3.63182e-08
-2.25551e-08
-4.94476e-08
-2.44138e-08
-6.50729e-08
-2.58323e-08
-8.32721e-08
-2.67511e-08
-1.04052e-07
-2.71329e-08
-1.27348e-07
-2.69765e-08
-1.53031e-07
-2.63279e-08
-1.80923e-07
-2.52735e-08
-2.10806e-07
-2.39423e-08
-2.42521e-07
-2.2417e-08
-2.08951e-08
-2.75965e-07
-2.39244e-09
-7.97309e-09
-1.67027e-08
-2.85412e-08
-4.33925e-08
-6.10636e-08
-8.13506e-08
-1.03906e-07
-1.2832e-07
-1.54153e-07
-1.80904e-07
-2.08037e-07
-2.35014e-07
-2.61342e-07
-2.86616e-07
-3.10559e-07
-3.32977e-07
-3.53872e-07
-4.33561e-08
4.33552e-08
-8.49072e-08
4.15501e-08
-1.22124e-07
3.72153e-08
-1.53587e-07
3.14621e-08
-1.78394e-07
2.48064e-08
-1.96467e-07
1.80722e-08
-2.08729e-07
1.226e-08
-2.17234e-07
8.50466e-09
-2.25366e-07
8.13109e-09
-2.38141e-07
1.27731e-08
-2.62683e-07
2.45416e-08
-3.08884e-07
4.61993e-08
-3.90082e-07
8.11966e-08
-5.23238e-07
1.33155e-07
-7.2705e-07
2.0381e-07
-1.01449e-06
2.87439e-07
-1.37351e-06
3.59023e-07
-1.73168e-06
3.58165e-07
-1.93021e-06
1.98524e-07
-1.7973e-06
-1.32908e-07
-1.49688e-06
-3.0042e-07
-1.44599e-06
-5.08943e-08
-1.70762e-06
2.61634e-07
-2.06769e-06
3.60064e-07
-2.35244e-06
2.84751e-07
-2.48716e-06
1.3472e-07
-2.47922e-06
-7.94449e-09
-2.33518e-06
-1.44037e-07
-2.0789e-06
-2.56288e-07
-1.73805e-06
-3.40853e-07
-1.33763e-06
-4.00423e-07
-8.9685e-07
-4.40778e-07
-4.28163e-07
-4.68688e-07
6.23989e-08
-4.90564e-07
5.74211e-07
-5.11813e-07
1.11097e-06
-5.36756e-07
1.67984e-06
-5.68874e-07
2.29098e-06
-6.11149e-07
2.9573e-06
-6.66314e-07
3.69423e-06
-7.36936e-07
4.51951e-06
-8.25277e-07
5.45241e-06
-9.3291e-07
6.51235e-06
-1.05994e-06
7.71606e-06
-1.20371e-06
9.07311e-06
-1.35704e-06
1.05784e-05
-1.5053e-06
1.21968e-05
-1.61839e-06
1.38588e-05
-1.66202e-06
1.58422e-05
-1.98344e-06
1.83339e-05
-2.49168e-06
2.11411e-05
-2.80719e-06
2.42181e-05
-3.07695e-06
2.75836e-05
-3.36552e-06
3.12472e-05
-3.66366e-06
3.5202e-05
-3.95477e-06
3.94289e-05
-4.22692e-06
4.38989e-05
-4.47e-06
4.85741e-05
-4.67522e-06
5.34096e-05
-4.8355e-06
5.83548e-05
-4.94516e-06
6.33545e-05
-4.99969e-06
6.83515e-05
-4.99703e-06
7.32896e-05
-4.93807e-06
7.81152e-05
-4.82562e-06
8.27791e-05
-4.66395e-06
8.72376e-05
-4.45852e-06
9.14532e-05
-4.21553e-06
9.53948e-05
-3.94159e-06
9.90381e-05
-3.64331e-06
0.000102365
-3.32693e-06
0.000105363
-2.99806e-06
0.000108025
-2.6618e-06
0.000110348
-2.32298e-06
0.000112334
-1.98641e-06
0.000113991
-1.65697e-06
0.000115331
-1.33937e-06
0.000116368
-1.03779e-06
0.000117124
-7.55493e-07
0.000117619
-4.94667e-07
0.000117875
-2.56174e-07
0.000117914
-3.90206e-08
0.000117754
1.59755e-07
0.00011741
3.44323e-07
0.000116891
5.19041e-07
0.000116203
6.87521e-07
0.00011535
8.53183e-07
0.000114328
1.02191e-06
0.00011313
1.19784e-06
0.000111754
1.37607e-06
0.000110194
1.56012e-06
0.000108434
1.75971e-06
0.000106491
1.9437e-06
0.000104365
2.1256e-06
0.000101948
2.41712e-06
9.91458e-05
2.80202e-06
9.60096e-05
3.13615e-06
9.24884e-05
3.52121e-06
8.87903e-05
3.69804e-06
8.49663e-05
3.82406e-06
8.08021e-05
4.16421e-06
7.69411e-05
3.86092e-06
7.26411e-05
4.29999e-06
6.75186e-05
5.12252e-06
6.28888e-05
4.62979e-06
5.81897e-05
4.69904e-06
5.32203e-05
4.96942e-06
4.7842e-05
5.37829e-06
4.19599e-05
5.88213e-06
3.54782e-05
6.48168e-06
2.83019e-05
7.17621e-06
2.03176e-05
7.98433e-06
1.13735e-05
8.94404e-06
1.37942e-06
9.99412e-06
-9.67823e-06
1.10576e-05
-2.21647e-05
1.24865e-05
-3.63253e-05
1.41606e-05
-5.2322e-05
1.59967e-05
-7.03177e-05
1.79957e-05
-9.05051e-05
2.01873e-05
-0.000113083
2.25783e-05
-0.000138067
2.49838e-05
-0.000165211
2.71442e-05
-0.000194273
2.90611e-05
-0.000224739
3.04667e-05
-0.000256309
3.15693e-05
-0.000288139
3.18301e-05
-0.000318551
3.04119e-05
-0.000344384
2.58329e-05
-0.00036126
1.6876e-05
-0.00036613
4.87081e-06
-0.000366439
3.0822e-07
-0.000379344
1.29053e-05
-0.000398095
1.87515e-05
-0.000406642
8.54653e-06
-0.000400498
-6.14416e-06
-0.000383749
-1.67487e-05
-0.000361587
-2.21625e-05
-0.000336772
-2.48143e-05
-0.000309908
-2.68643e-05
-0.000282575
-2.73325e-05
-0.000257148
-2.54276e-05
-0.00023376
-2.33874e-05
-0.000212309
-2.14514e-05
-0.000192441
-1.98676e-05
-0.000174267
-1.81744e-05
-0.000157481
-1.67854e-05
-0.000142081
-1.54005e-05
-0.000128124
-1.39567e-05
-0.000115546
-1.25778e-05
-0.000104199
-1.13472e-05
-9.38913e-05
-1.03079e-05
-8.44072e-05
-9.48417e-06
-7.55282e-05
-8.87895e-06
-6.70503e-05
-8.47793e-06
-5.87999e-05
-8.25036e-06
-5.06268e-05
-8.17319e-06
-4.23822e-05
-8.24454e-06
-3.37488e-05
-8.63346e-06
-2.35618e-05
-1.0187e-05
-1.23594e-05
-1.12024e-05
-1.40539e-06
-1.0954e-05
1.04219e-05
-1.18273e-05
2.2654e-05
-1.22321e-05
3.58595e-05
-1.32055e-05
4.99701e-05
-1.41106e-05
6.44998e-05
-1.45297e-05
7.88984e-05
-1.43986e-05
9.2752e-05
-1.38536e-05
0.00010579
-1.30385e-05
0.000117824
-1.20333e-05
0.000128698
-1.08748e-05
0.000138273
-9.57436e-06
0.000146382
-8.10907e-06
0.000152879
-6.49714e-06
0.000157664
-4.78481e-06
0.000160582
-2.91843e-06
0.000161591
-1.00865e-06
0.000160574
1.01664e-06
0.000156406
4.16825e-06
8.05214e-06
0.000148354
-3.47872e-08
7.81411e-08
-6.6959e-08
7.37206e-08
-9.55478e-08
6.58028e-08
-1.19157e-07
5.50694e-08
-1.3727e-07
4.29181e-08
-1.50225e-07
3.10258e-08
-1.59192e-07
2.12263e-08
-1.66187e-07
1.5498e-08
-1.74081e-07
1.60238e-08
-1.8658e-07
2.527e-08
-2.08094e-07
4.6054e-08
-2.43433e-07
8.15373e-08
-2.97244e-07
1.35006e-07
-3.73253e-07
2.09163e-07
-4.73895e-07
3.0445e-07
-6.02215e-07
4.15757e-07
-7.7038e-07
5.27186e-07
-1.01874e-06
6.06521e-07
-1.42583e-06
6.05613e-07
-2.05448e-06
4.95741e-07
-2.66578e-06
3.10876e-07
-2.90158e-06
1.84906e-07
-2.79518e-06
1.55231e-07
-2.5667e-06
1.31581e-07
-2.3371e-06
5.51542e-08
-2.12896e-06
-7.34198e-08
-1.90532e-06
-2.31589e-07
-1.65662e-06
-3.9274e-07
-1.3708e-06
-5.4211e-07
-1.0401e-06
-6.71561e-07
-6.61275e-07
-7.79245e-07
-2.34087e-07
-8.67968e-07
2.40724e-07
-9.43502e-07
7.63315e-07
-1.01316e-06
1.33624e-06
-1.08474e-06
1.9654e-06
-1.16592e-06
2.6604e-06
-1.26388e-06
3.43451e-06
-1.38526e-06
4.30421e-06
-1.53602e-06
5.28871e-06
-1.72144e-06
6.40934e-06
-1.94591e-06
7.68906e-06
-2.21263e-06
9.15227e-06
-2.52315e-06
1.08256e-05
-2.87707e-06
1.27407e-05
-3.27207e-06
1.49395e-05
-3.70414e-06
1.74907e-05
-4.16963e-06
2.05172e-05
-4.6885e-06
2.38831e-05
-5.34935e-06
2.75237e-05
-6.13229e-06
3.15972e-05
-6.88072e-06
3.61152e-05
-7.59489e-06
4.10375e-05
-8.28786e-06
4.63199e-05
-8.94602e-06
5.19112e-05
-9.5461e-06
5.77497e-05
-1.00655e-05
6.37643e-05
-1.04846e-05
6.98773e-05
-1.07882e-05
7.60075e-05
-1.09657e-05
8.20743e-05
-1.1012e-05
8.8002e-05
-1.09274e-05
9.37228e-05
-1.07178e-05
9.91783e-05
-1.03936e-05
0.000104321
-9.96812e-06
0.000109114
-9.45683e-06
0.000113531
-8.87584e-06
0.000117557
-8.2412e-06
0.000121183
-7.56821e-06
0.000124411
-6.87073e-06
0.000127244
-6.16062e-06
0.000129694
-5.44742e-06
0.00013177
-4.73853e-06
0.000133487
-4.03975e-06
0.000134856
-3.35569e-06
0.000135889
-2.6897e-06
0.000136594
-2.04376e-06
0.000136974
-1.41829e-06
0.000137031
-8.12476e-07
0.000136761
-2.24973e-07
0.00013616
3.45705e-07
0.000135219
9.01318e-07
0.000133935
1.44346e-06
0.000132307
1.97294e-06
0.000130335
2.49085e-06
0.000128024
2.99844e-06
0.000125382
3.49578e-06
0.000122418
3.98566e-06
0.000119145
4.47037e-06
0.000115581
4.93985e-06
0.000111737
5.40428e-06
0.000107605
5.89171e-06
0.000103223
6.3255e-06
9.87233e-05
6.62575e-06
9.41859e-05
6.95457e-06
8.95002e-05
7.48764e-06
8.45003e-05
8.13611e-06
7.86515e-05
9.36998e-06
7.37382e-05
8.61132e-06
6.98587e-05
7.70356e-06
6.53481e-05
8.6748e-06
6.01702e-05
9.03881e-06
5.50358e-05
9.43433e-06
5.00825e-05
1.00758e-05
4.42418e-05
1.04705e-05
3.8197e-05
1.07439e-05
3.20191e-05
1.11472e-05
2.56013e-05
1.17961e-05
1.88774e-05
1.2606e-05
1.17687e-05
1.35903e-05
4.1808e-06
1.47641e-05
-4.00851e-06
1.61736e-05
-1.29675e-05
1.7903e-05
-2.28748e-05
1.99015e-05
-3.36885e-05
2.18713e-05
-4.55305e-05
2.43284e-05
-5.88119e-05
2.7442e-05
-7.37584e-05
3.09432e-05
-9.05631e-05
3.48004e-05
-0.000109303
3.8927e-05
-0.000129939
4.32146e-05
-0.000152494
4.75384e-05
-0.000177022
5.16727e-05
-0.000203353
5.53919e-05
-0.000230936
5.80494e-05
-0.000259196
5.98295e-05
-0.000287204
5.98385e-05
-0.000313703
5.69109e-05
-0.000338285
5.04149e-05
-0.000362369
4.09601e-05
-0.000388595
3.10972e-05
-0.00040812
1.98324e-05
-0.000418617
2.34031e-05
-0.000419884
2.00178e-05
-0.00041355
2.2131e-06
-0.000401777
-1.79171e-05
-0.000386815
-3.17114e-05
-0.000368137
-4.08404e-05
-0.000346545
-4.64062e-05
-0.000325058
-4.83516e-05
-0.000304351
-4.80388e-05
-0.000283228
-4.65509e-05
-0.000261322
-4.52937e-05
-0.000239457
-4.3316e-05
-0.000219037
-4.02876e-05
-0.000199602
-3.76097e-05
-0.000181036
-3.53512e-05
-0.000163504
-3.29322e-05
-0.000147128
-3.03329e-05
-0.000131914
-2.77916e-05
-0.000117792
-2.54693e-05
-0.000104659
-2.34412e-05
-9.2395e-05
-2.17481e-05
-8.08583e-05
-2.04157e-05
-6.98786e-05
-1.94575e-05
-5.92622e-05
-1.88668e-05
-4.88031e-05
-1.86323e-05
-3.84262e-05
-1.86214e-05
-2.85381e-05
-1.85216e-05
-1.94416e-05
-1.92835e-05
-8.30432e-06
-2.23397e-05
2.00611e-06
-2.12644e-05
1.37199e-05
-2.35411e-05
2.67048e-05
-2.52171e-05
4.0378e-05
-2.68787e-05
5.45851e-05
-2.83176e-05
6.91925e-05
-2.91371e-05
8.40038e-05
-2.92099e-05
9.87664e-05
-2.86162e-05
0.000113206
-2.74784e-05
0.000127028
-2.58548e-05
0.000139862
-2.37087e-05
0.0001513
-2.10131e-05
0.000161012
-1.78206e-05
0.000168813
-1.42983e-05
0.000174617
-1.05886e-05
0.000178283
-6.58471e-06
0.000179783
-2.50864e-06
0.000179169
1.63111e-06
0.000176171
7.16586e-06
1.36999e-05
0.000170523
-2.31713e-08
1.01311e-07
-4.44975e-08
9.50455e-08
-6.17493e-08
8.30532e-08
-7.38924e-08
6.7211e-08
-8.0848e-08
4.98724e-08
-8.3402e-08
3.35783e-08
-8.30838e-08
2.09067e-08
-8.2131e-08
1.45438e-08
-8.3533e-08
1.74243e-08
-9.11052e-08
3.28407e-08
-1.09539e-07
6.44859e-08
-1.44372e-07
1.16369e-07
-2.01849e-07
1.92482e-07
-2.88718e-07
2.9603e-07
-4.12253e-07
4.27984e-07
-5.81256e-07
5.84758e-07
-8.08943e-07
7.54872e-07
-1.11637e-06
9.13946e-07
-1.5256e-06
1.01484e-06
-2.00626e-06
9.76398e-07
-2.43319e-06
7.37802e-07
-2.65648e-06
4.08195e-07
-2.65974e-06
1.58496e-07
-2.51468e-06
-1.34796e-08
-2.28569e-06
-1.73841e-07
-2.00962e-06
-3.49489e-07
-1.70392e-06
-5.37295e-07
-1.37089e-06
-7.25768e-07
-1.0079e-06
-9.05107e-07
-6.09987e-07
-1.06947e-06
-1.71796e-07
-1.21744e-06
3.11863e-07
-1.35163e-06
8.46325e-07
-1.47797e-06
1.4379e-06
-1.60474e-06
2.09483e-06
-1.74167e-06
2.82805e-06
-1.89913e-06
3.65165e-06
-2.08748e-06
4.58304e-06
-2.31665e-06
5.64287e-06
-2.59585e-06
6.85482e-06
-2.9334e-06
8.2455e-06
-3.33659e-06
9.84432e-06
-3.81146e-06
1.16838e-05
-4.36263e-06
1.38e-05
-4.9933e-06
1.62334e-05
-5.70549e-06
1.90297e-05
-6.50045e-06
2.22406e-05
-7.38052e-06
2.59073e-05
-8.35522e-06
2.99902e-05
-9.43225e-06
3.44337e-05
-1.05757e-05
3.92679e-05
-1.1715e-05
4.44868e-05
-1.28137e-05
5.00439e-05
-1.3845e-05
5.58747e-05
-1.47768e-05
6.19035e-05
-1.5575e-05
6.80473e-05
-1.62092e-05
7.42184e-05
-1.66557e-05
8.0329e-05
-1.68988e-05
8.62952e-05
-1.69319e-05
9.20408e-05
-1.67576e-05
9.75e-05
-1.63867e-05
0.000102619
-1.5837e-05
0.000107357
-1.5131e-05
0.000111682
-1.42932e-05
0.000115574
-1.33487e-05
0.000119019
-1.23212e-05
0.00012201
-1.12326e-05
0.000124544
-1.01015e-05
0.000126617
-8.94396e-06
0.00012823
-7.77316e-06
0.000129382
-6.6004e-06
0.000130079
-5.43531e-06
0.000130326
-4.28614e-06
0.00013013
-3.15978e-06
0.000129502
-2.06179e-06
0.000128455
-9.96482e-07
0.000127004
3.25454e-08
0.000125169
1.02237e-06
0.000122974
1.96948e-06
0.000120449
2.87063e-06
0.000117627
3.72416e-06
0.000114541
4.52929e-06
0.000111228
5.28527e-06
0.000107724
5.99568e-06
0.000104054
6.66775e-06
0.000100249
7.30097e-06
9.63373e-05
7.89753e-06
9.23315e-05
8.47617e-06
8.82385e-05
9.03284e-06
8.40958e-05
9.54697e-06
7.99713e-05
1.00162e-05
7.58041e-05
1.04927e-05
7.16041e-05
1.08258e-05
6.78069e-05
1.07518e-05
6.33409e-05
1.19536e-05
5.87026e-05
1.27744e-05
5.52378e-05
1.28348e-05
5.08743e-05
1.29748e-05
4.57283e-05
1.28495e-05
4.12364e-05
1.31667e-05
3.66393e-05
1.36359e-05
3.18343e-05
1.42393e-05
2.70088e-05
1.49014e-05
2.19532e-05
1.5526e-05
1.68152e-05
1.58819e-05
1.15925e-05
1.63699e-05
6.09715e-06
1.72914e-05
2.92774e-07
1.84104e-05
-5.87571e-06
1.97588e-05
-1.24974e-05
2.13858e-05
-1.96746e-05
2.33508e-05
-2.75265e-05
2.57549e-05
-3.63507e-05
2.87256e-05
-4.64185e-05
3.19392e-05
-5.79049e-05
3.58148e-05
-7.10191e-05
4.05561e-05
-8.57667e-05
4.56908e-05
-0.000102146
5.11796e-05
-0.000120162
5.69432e-05
-0.000139887
6.29393e-05
-0.000161528
6.91797e-05
-0.000185284
7.54284e-05
-0.000211096
8.12038e-05
-0.0002387
8.56532e-05
-0.000266933
8.80632e-05
-0.000295138
8.80436e-05
-0.000322828
8.46007e-05
-0.000349691
7.7278e-05
-0.000374605
6.5874e-05
-0.000391675
4.81671e-05
-0.000411984
4.01407e-05
-0.000414943
2.6363e-05
-0.000407378
1.24525e-05
-0.000396902
-8.2628e-06
-0.000385217
-2.96025e-05
-0.000371204
-4.57241e-05
-0.000354427
-5.76172e-05
-0.000335833
-6.5e-05
-0.000316366
-6.78186e-05
-0.000295938
-6.84667e-05
-0.000274607
-6.78819e-05
-0.000254372
-6.55286e-05
-0.000235685
-6.20033e-05
-0.00021833
-5.76426e-05
-0.000201764
-5.41758e-05
-0.000186165
-5.09502e-05
-0.000171748
-4.73494e-05
-0.000158401
-4.36798e-05
-0.000145949
-4.0244e-05
-0.000134184
-3.72335e-05
-0.000122883
-3.47425e-05
-0.00011181
-3.28214e-05
-0.000100718
-3.1507e-05
-8.93598e-05
-3.08161e-05
-7.74895e-05
-3.07371e-05
-6.49239e-05
-3.11979e-05
-5.14383e-05
-3.2107e-05
-3.71238e-05
-3.28361e-05
-1.89305e-05
-3.74769e-05
-3.97964e-06
-3.72905e-05
1.26585e-05
-3.79026e-05
2.86148e-05
-3.94974e-05
4.40621e-05
-4.06644e-05
5.86944e-05
-4.1511e-05
7.27215e-05
-4.23448e-05
8.66256e-05
-4.30412e-05
0.000100723
-4.33069e-05
0.000114954
-4.28476e-05
0.000128965
-4.14894e-05
0.000142313
-3.92023e-05
0.000154569
-3.59656e-05
0.0001654
-3.1844e-05
0.000174617
-2.70372e-05
0.000182141
-2.18222e-05
0.000187846
-1.62934e-05
0.000191445
-1.01845e-05
0.000192871
-3.93465e-06
0.000192137
2.36596e-06
0.000189346
9.9562e-06
1.80419e-05
0.000185004
-9.56488e-09
1.10874e-07
-1.64723e-08
1.01952e-07
-1.92592e-08
8.58387e-08
-1.73322e-08
6.52826e-08
-1.12336e-08
4.37723e-08
-2.36445e-09
2.47077e-08
7.24612e-09
1.12947e-08
1.49946e-08
6.79379e-09
1.7622e-08
1.47954e-08
1.10738e-08
3.93874e-08
-9.64387e-09
8.5202e-08
-5.05785e-08
1.57302e-07
-1.18893e-07
2.60795e-07
-2.22891e-07
4.00025e-07
-3.72062e-07
5.77153e-07
-5.77173e-07
7.89867e-07
-8.49654e-07
1.02735e-06
-1.1969e-06
1.26119e-06
-1.60616e-06
1.4241e-06
-2.01957e-06
1.3898e-06
-2.34241e-06
1.06064e-06
-2.50575e-06
5.71531e-07
-2.50258e-06
1.55332e-07
-2.36767e-06
-1.48399e-07
-2.13673e-06
-4.04779e-07
-1.83507e-06
-6.51151e-07
-1.48124e-06
-8.91129e-07
-1.08692e-06
-1.12009e-06
-6.57048e-07
-1.33498e-06
-1.91129e-07
-1.5354e-06
3.15199e-07
-1.72377e-06
8.68938e-07
-1.90537e-06
1.47909e-06
-2.08812e-06
2.15659e-06
-2.28224e-06
2.91453e-06
-2.49961e-06
3.76851e-06
-2.75312e-06
4.73694e-06
-3.05591e-06
5.84113e-06
-3.42084e-06
7.1054e-06
-3.86012e-06
8.55701e-06
-4.38501e-06
1.02261e-05
-5.00566e-06
1.21454e-05
-5.73082e-06
1.43503e-05
-6.56746e-06
1.68772e-05
-7.52026e-06
1.97627e-05
-8.59101e-06
2.304e-05
-9.77772e-06
2.67335e-05
-1.1074e-05
3.0847e-05
-1.24687e-05
3.53529e-05
-1.39382e-05
4.0212e-05
-1.54348e-05
4.53946e-05
-1.68976e-05
5.08541e-05
-1.82732e-05
5.6521e-05
-1.95119e-05
6.23091e-05
-2.05649e-05
6.81225e-05
-2.13883e-05
7.38603e-05
-2.1947e-05
7.9422e-05
-2.22174e-05
8.4713e-05
-2.21897e-05
8.96485e-05
-2.18674e-05
9.41577e-05
-2.12668e-05
9.81858e-05
-2.04148e-05
0.000101694
-1.93458e-05
0.000104662
-1.80984e-05
0.000107081
-1.67124e-05
0.000108958
-1.5226e-05
0.000110312
-1.36744e-05
0.000111167
-1.2088e-05
0.000111558
-1.04923e-05
0.000111521
-8.90747e-06
0.000111097
-7.34928e-06
0.000110326
-5.82939e-06
0.000109247
-4.35608e-06
0.000107896
-2.93486e-06
0.000106305
-1.56915e-06
0.000104504
-2.61086e-07
0.00010252
9.88387e-07
0.000100373
2.17895e-06
9.80855e-05
3.31009e-06
9.56748e-05
4.38015e-06
9.31573e-05
5.3881e-06
9.0545e-05
6.33653e-06
8.7846e-05
7.22826e-06
8.50692e-05
8.06208e-06
8.22193e-05
8.84557e-06
7.92871e-05
9.59994e-06
7.62682e-05
1.03198e-05
7.31755e-05
1.09903e-05
7.00044e-05
1.16472e-05
6.67386e-05
1.22987e-05
6.33144e-05
1.29711e-05
5.97413e-05
1.35893e-05
5.57027e-05
1.45313e-05
5.23089e-05
1.42195e-05