/*--------------------------------*- C++ -*----------------------------------*\
| =========                 |                                                 |
| \\      /  F ield         | OpenFOAM: The Open Source CFD Toolbox           |
|  \\    /   O peration     | Version:  2112                                  |
|   \\  /    A nd           | Website:  www.openfoam.com                      |
|    \\/     M anipulation  |                                                 |
\*---------------------------------------------------------------------------*/
FoamFile
{
    version     2.0;
    format      ascii;
    arch        "LSB;label=32;scalar=64";
    class       volScalarField;
    location    "0.18";
    object      k;
}
// * * * * * * * * * * * * * * * * * * * * * * * * * * * * * * * * * * * * * //

dimensions      [0 2 -2 0 0 0 0];

internalField   nonuniform List<scalar> 
122250
(
629.707
86.8767
68.0342
24.2247
23.8298
20.7584
19.538
18.478
19.291
14.0975
11.7223
10.0445
10.105
10.9798
11.8558
11.7325
11.789
14.5252
378.345
61.848
27.4907
21.3859
21.2959
20.5845
18.9092
17.2877
16.0406
12.7497
6.93859
6.34294
6.8304
7.32568
8.63228
9.5744
9.36494
8.89914
340.229
69.7431
56.2469
29.0907
24.4134
23.2759
18.6682
15.7285
13.9439
11.9392
5.57407
6.32215
7.13115
7.35198
7.92705
9.84564
10.4941
9.63785
340.278
80.3199
74.5943
39.2327
23.8722
21.2853
20.9203
17.1681
11.1988
9.24131
6.69581
8.16535
7.6192
7.50825
7.94566
9.27033
10.8029
10.3026
347.4
92.3369
95.4492
70.2426
27.4158
20.9052
19.7534
22.8251
7.48456
7.52482
8.81528
10.3664
8.72183
7.27194
7.34146
8.17239
10.7116
11.4854
358.987
110.79
119.762
111.671
41.7301
25.3214
22.9609
33.0518
10.5632
9.43299
13.6547
15.7869
13.3349
8.0796
6.98816
7.37428
9.08173
11.8121
369.845
120.669
132.175
136.905
64.4744
34.7237
28.5949
41.1385
18.8499
16.4944
18.1822
17.1045
14.7577
10.7442
7.19991
7.09311
8.15353
11.298
372.592
140.562
138.445
149.543
98.4282
47.6731
30.037
44.8122
26.0782
19.0463
18.415
14.9262
13.351
11.4314
8.1064
7.18041
7.92511
10.9357
367.206
161.031
143.124
154.638
116.245
82.4655
28.8756
48.0664
36.5176
18.8701
14.2588
10.4822
9.16895
9.73152
8.34501
7.64056
8.62509
11.3731
351.378
189.225
152.923
159.771
123.274
109.158
39.0748
44.3532
45.6496
21.9818
12.8846
10.488
8.52096
7.98469
7.66658
7.78221
9.26214
11.3581
326.29
224.371
177.396
172.849
126.35
120.481
62.2181
49.4126
53.6012
30.3528
20.5095
17.0491
11.0453
7.4829
6.78402
7.03882
9.17621
9.01783
302.334
247.548
219.353
184.17
129.911
132.842
93.6399
61.8455
57.2835
45.2125
33.8855
31.4401
19.7362
8.77664
6.29742
5.48521
5.52548
4.63613
285.808
244.071
234.806
191.295
136.49
143.335
115.959
77.675
61.0146
59.1765
53.5824
47.0758
32.2615
13.8075
7.0324
5.56986
4.87193
4.04658
280.017
229.673
231.153
158.894
116.129
130.881
126.97
89.6831
63.6281
62.8548
61.9934
56.052
41.4693
21.923
8.61757
6.1404
6.26741
6.43295
290.565
230.677
231.576
154.981
114.732
119.495
121.022
83.5291
57.552
60.3778
61.8529
58.7995
45.5482
26.2488
10.2167
6.01024
5.80919
5.93842
333.138
275.652
234.28
122.336
98.1676
107.672
79.9107
35.5872
35.2695
46.112
54.1811
55.1752
40.7079
18.2444
7.74416
5.79483
6.33367
6.34423
425.276
327.628
219.837
78.0747
57.2471
56.3624
23.5695
20.4432
24.4251
20.4267
16.0436
12.6988
9.6111
8.00689
6.83867
5.79104
5.90745
6.13576
564.914
352.147
262.45
137.872
82.035
41.7536
37.3669
28.3177
25.8341
16.0642
10.7439
10.2408
12.2781
13.29
10.5925
8.55179
8.55457
8.70107
672.234
253.867
242.7
178.827
128.629
129.664
94.2515
78.3809
55.6516
27.239
14.8211
9.01373
8.77888
12.5832
16.6
15.1435
9.75406
6.28086
562.441
322.515
282.126
222.273
173.017
149.72
114.407
101.933
75.4682
38.6669
19.3302
11.7211
10.1172
13.2337
13.9231
9.8465
6.73111
5.75488
458.174
345.1
228.613
70.055
54.0185
53.5611
59.0259
70.6999
71.6449
57.7752
36.6809
27.133
13.1342
7.15793
6.04145
5.02117
4.73309
4.22236
438.749
341.619
216.582
59.6344
69.3676
62.1976
65.4116
78.7059
82.6445
73.5584
48.6041
22.1486
8.83107
6.49329
7.0504
6.68776
6.70506
6.19431
422.237
332.731
213.207
49.1955
37.1172
38.5392
45.1363
53.182
66.999
63.986
34.9028
15.8431
11.6545
10.0923
10.741
13.3579
23.0218
26.0218
399.379
327.366
213.652
69.9476
28.6421
16.0953
17.3818
16.1312
19.7893
29.7457
18.3915
17.3136
18.9868
18.0057
16.0109
16.3943
19.4768
26.9758
383.758
301.108
221.797
112.672
39.5804
15.2078
17.0368
15.6651
14.6031
17.1729
18.78
22.6967
26.2074
26.7293
26.1119
25.8893
27.3559
31.4772
380.65
259.912
228.501
177.952
99.0726
22.0714
19.8718
22.8687
20.5517
10.4086
9.90916
14.0806
18.6614
24.9153
28.1669
28.4736
27.7346
25.4882
390.74
260.157
230.253
214.861
149.971
28.3983
21.0652
22.9478
29.5365
16.2229
7.9094
8.27222
8.9637
9.57104
10.4297
11.5394
12.5102
13.4065
409.204
311.946
259.449
236.175
158.6
27.9743
27.8724
21.7665
24.1761
15.6618
7.29448
7.53569
9.01853
9.08376
8.58965
9.12139
10.3155
11.3786
437.957
402.328
321.188
287.434
198.862
49.6231
46.3564
28.1586
26.3767
15.1468
6.08247
5.74975
7.48488
7.98628
8.17356
8.73655
9.9661
10.8593
564.11
451.662
446.44
461.598
191.947
74.7486
91.2006
78.176
55.9475
38.1511
21.1005
18.9352
19.5893
20.0563
19.7298
19.3784
19.0796
17.9531
677.883
91.6163
74.4879
29.1154
26.6151
18.7737
17.7327
17.3895
17.3144
13.1904
12.2036
11.939
12.0552
12.1922
12.1172
11.586
11.1197
11.8868
376.754
56.4846
25.0956
23.1436
23.1139
21.0526
17.9441
17.4203
14.5506
12.4573
9.64405
10.3436
10.482
10.7866
11.174
11.0504
10.116
8.92918
339.607
65.5077
38.5896
26.0661
24.8426
24.4019
22.0109
17.6038
13.3521
14.3184
10.4151
9.59414
9.39235
9.41277
9.99811
10.8693
10.7554
9.34107
338.023
82.6345
64.6922
32.311
25.4332
25.2193
31.2118
25.0017
11.915
13.9562
10.9372
9.7166
9.63706
9.10923
8.43785
8.92595
9.87195
9.35255
343.544
108.346
108.722
67.0667
30.0114
25.9289
33.1365
36.9733
11.8378
12.8269
13.0388
13.0632
12.6617
10.1236
8.05544
7.76564
8.80035
9.59058
356.304
132.775
141.975
117.17
51.1121
35.0355
38.2329
46.8701
18.135
13.802
15.4235
15.3565
14.9241
12.8319
8.52414
7.19496
7.88174
10.2369
371.309
144.434
151.308
130.088
91.0257
46.2257
38.0344
52.7782
28.7232
17.3044
15.9315
15.0975
14.3076
13.1933
9.16604
6.99575
7.61527
10.302
383.724
153.053
158.023
142.044
123.795
71.2666
38.5284
54.4723
46.2825
19.4273
12.8192
10.3701
9.38215
9.87973
8.93872
7.11161
7.68052
10.1698
383.721
160.854
173.874
151.192
128.261
112.492
48.5617
57.7206
60.5232
32.8952
12.8229
9.4868
8.13451
7.89155
7.8109
7.55534
8.45311
9.92835
367.431
183.495
195.879
170.574
110.337
120.661
91.0612
79.6076
75.2768
56.5334
26.3453
16.4692
10.0693
7.44353
6.97197
7.47335
8.76381
8.81122
333.241
233.343
214.595
183.051
116.171
121.424
124.889
100.587
89.5054
76.0428
48.7538
33.0832
18.5646
8.62437
6.33914
6.06773
6.529
6.7254
303.65
257.663
223.946
194.613
135.148
133.281
139.702
124.264
95.9725
84.2565
65.2944
47.728
30.9917
13.213
6.8257
5.13656
4.15683
4.23662
283.731
251.462
233.552
209.45
172.462
167.909
161.563
139.279
100.737
85.0995
73.6949
55.9766
40.494
20.5399
8.61674
5.93534
4.29933
3.56406
276.066
229.393
233.978
210.466
173.622
177.308
165.182
135.72
101.93
84.5832
72.498
55.9385
43.5948
28.8398
11.7145
6.47317
5.84519
5.08366
288.176
230.563
233.78
206.407
141.582
127.405
114.913
97.8191
77.4906
71.231
65.909
48.317
37.7974
30.9464
15.6591
6.86784
5.9167
5.93248
333.875
284.871
256.342
169.751
123.195
100.98
99.6453
93.2438
67.4837
59.9089
61.2457
59.8342
51.8886
32.1144
14.8345
8.23647
7.91297
8.08872
431.229
320.618
236.754
110.673
99.0345
91.7395
64.3762
36.0092
33.945
36.0116
33.1221
23.4349
15.0904
9.10266
6.4656
6.63136
7.39017
6.92568
576.724
303.718
228.856
123.185
86.555
50.6873
29.0119
25.4959
22.7948
15.8147
10.4573
8.51929
9.1041
7.59381
6.30901
6.13138
5.65268
6.35985
672.158
243.809
185.787
158.749
131.076
89.313
80.7373
80.2404
45.7229
22.5426
15.5234
12.641
8.09441
6.61164
6.85577
6.2482
4.21051
2.94258
592.651
297.887
231.602
159.173
146.628
106.96
112.207
98.7224
57.9193
31.9827
14.1219
8.45572
7.81044
7.95047
8.08528
6.10624
5.11325
3.68755
482.258
353.161
245.767
89.3869
82.2458
55.6376
64.0975
84.7803
78.5811
54.2255
30.7026
12.7347
7.16623
6.20137
5.84943
5.06792
5.04127
3.57935
495.422
355.409
259.799
82.2839
127.798
72.3919
53.7428
70.2403
80.9262
71.2275
35.9887
12.9305
9.53147
7.63839
7.27404
9.857
17.8216
10.5448
472.437
395.21
295.424
127.523
74.0552
33.5715
39.3545
49.3704
70.841
62.6536
29.8907
23.4704
19.485
15.9984
14.0194
14.9346
17.0658
20.6469
430.405
345.752
279.528
130.335
62.5109
18.3333
17.6442
20.6897
30.6212
31.0932
27.7834
32.6592
29.9653
26.3958
21.435
17.5911
17.503
18.2621
402.142
316.275
284.394
151.62
80.7753
22.7317
16.1072
16.941
16.719
23.2469
23.733
28.7702
28.4552
27.8391
26.3295
22.5529
20.3712
20.361
394.001
303.901
290.19
186.461
119.665
47.9754
17.758
17.1196
12.9311
13.0372
16.9535
21.8484
25.7267
31.7371
32.7962
31.9778
29.2887
27.1686
404.646
300.978
291.984
210.064
152.308
83.9038
26.0564
16.8109
17.8881
10.5009
10.2739
11.0877
12.4471
16.044
23.2174
28.4337
28.7279
28.7637
437.186
277.46
272.301
243.413
169.225
103.925
39.5111
16.0388
20.8445
12.9274
11.6282
11.5201
12.0126
12.0697
12.952
14.5362
19.8189
24.1207
496.816
347.254
308.094
243.515
180.682
144.455
59.3902
18.0811
24.1077
16.6889
13.0368
13.5485
14.0814
12.7721
13.5217
14.4974
15.5769
17.4945
731.636
539.493
475.028
457.102
480.136
379.23
112.232
53.3158
37.0724
29.7732
26.1631
23.9618
23.0082
22.5191
21.6821
20.3097
18.4501
17.3983
724.189
85.6938
77.3123
37.9479
35.762
19.5844
19.0266
17.1817
16.4689
13.5125
12.5959
11.9941
12.2982
12.435
12.0946
11.1628
10.525
11.5191
361.463
54.9069
31.5309
31.616
30.9673
25.6204
21.4972
19.5056
15.6072
14.6344
13.5832
12.5986
13.1606
13.6306
13.3281
11.6525
9.53988
9.24002
329.819
65.5941
34.5291
30.458
33.6894
41.4439
40.3131
27.5265
16.9817
13.3597
12.8495
13.5947
14.7955
14.8347
14.4544
12.475
9.62631
8.95006
332.9
81.9019
46.3749
31.0947
32.4071
45.1721
55.2563
46.0035
18.43
12.4255
11.6833
12.5157
14.0623
13.9518
12.932
10.485
8.12151
8.13628
339.955
105.615
95.7275
37.6971
41.5703
41.8993
58.3627
52.1033
27.5514
12.4708
11.7629
12.6734
14.3459
13.9511
11.9321
8.75235
7.41392
7.90736
351.522
123.884
132.939
59.0121
59.9246
41.2999
48.3914
51.6014
38.8046
16.359
12.1933
13.0998
14.2677
13.9234
11.5649
7.74683
7.09915
8.20292
366.131
139.006
168.333
82.8797
90.5959
47.7004
37.5709
48.8911
43.4949
22.4088
11.2597
9.15508
10.0918
11.5139
10.1996
7.28637
7.10806
8.85764
381.46
154.113
182.903
126.483
115.059
74.2061
37.5747
50.0786
45.9231
28.0782
12.5098
7.70558
7.01842
7.33111
7.89398
7.25595
7.46184
9.24934
387.284
164.56
196.442
132.405
102.833
101.31
54.3836
57.307
51.2964
33.1815
19.9619
10.354
7.01259
6.34792
6.62967
7.16386
7.69351
9.18577
372.113
191.425
204.119
138.896
76.8634
92.8728
92.6928
77.2535
60.2538
37.3944
29.3445
20.4634
10.2796
6.36076
5.5045
6.18203
7.09786
8.42564
337.854
241.814
206.02
138.325
74.5769
84.9887
118.573
102.683
80.3473
51.3099
35.9227
31.4025
18.7893
8.10094
5.34889
4.89424
5.1829
7.05434
306.283
261.795
200.682
135.269
103.248
100.566
128.629
125.822
106.127
78.2652
43.7357
36.1804
29.1918
12.5515
6.24803
4.68346
4.21633
4.90547
284.753
255.538
206.644
175.398
178.677
147.783
142.043
146.335
136.624
104.265
55.6149
38.4522
33.0059
20.025
7.90546
5.3203
4.05737
3.97511
275.384
234.658
229.209
223.566
224.421
194.293
167.072
155.264
125.67
90.4093
52.1772
34.9582
32.5004
26.4593
11.1386
5.87553
4.76098
4.07825
287.223
227.089
232.794
231.352
213.429
195.885
152.588
109.293
70.1702
56.1589
40.3382
25.875
24.4434
24.9009
16.7384
6.89371
5.70553
5.9051
337.556
278.262
264.791
226.57
201.725
132.331
90.9844
75.5244
60.6576
51.7813
44.6511
38.1428
33.9875
29.062
17.0657
9.18587
8.44057
8.71018
451.805
312.775
264.53
221.847
200.174
113.882
78.073
56.8507
43.3601
40.8936
41.4804
34.4847
20.8615
12.3509
8.06113
7.79603
8.00282
6.96031
597.342
279.578
209.388
137.193
93.0264
59.2321
34.7872
32.2443
24.4133
16.2414
12.3859
9.33331
6.72366
5.79676
6.21658
4.7488
3.73451
3.65116
664.579
244.057
180.765
160.355
166.935
124.976
113.645
81.955
35.5349
20.3889
15.0705
14.986
14.2434
8.65549
5.01436
2.89527
2.13286
1.72929
616.999
292.046
256.544
183.42
163.479
101.266
106.508
47.2517
27.5007
20.2918
8.78187
7.39097
6.9478
6.00314
5.58713
5.10027
5.26212
3.46303
508.382
375.639
301.658
231.07
126.257
57.2933
56.3513
55.5304
57.1294
43.5454
17.5359
9.44832
7.20055
5.95403
5.62009
5.68191
6.62287
5.85883
586.961
277.719
238.307
168.129
170.679
94.3622
48.7827
59.4176
73.8034
62.4385
24.2338
16.2372
14.4196
10.5767
7.82381
8.40521
12.6634
19.1999
564.245
286.382
278.604
179.923
161.462
59.8293
45.1937
50.6684
68.9661
54.1562
35.3432
29.2225
20.9976
18.0142
15.1119
13.4663
14.1938
16.7111
480.558
308.323
302.893
230.835
89.5387
21.1678
23.6005
30.787
42.0839
35.0443
41.5384
33.0825
22.1035
19.1492
19.7095
19.7207
18.8298
17.2938
422.86
342.688
310.219
169.401
72.7477
24.096
25.5943
28.1819
29.5307
27.8263
28.0325
26.2602
21.6546
21.647
22.8069
25.9973
26.5234
25.2003
399.758
334.707
290.039
165.379
101.903
47.2876
26.5036
26.9773
26.2146
22.6479
23.2618
23.2097
23.1943
24.8138
28.549
34.2929
36.1986
35.9759
396.817
285.992
269.961
186.453
135.073
80.6902
32.8811
23.3757
28.0337
20.6226
20.4523
22.8026
25.0194
27.4045
32.5304
38.1347
39.9718
39.5537
412.106
211.933
216.909
212.954
151.321
91.5886
41.3955
16.307
25.2182
22.09
21.0112
18.9533
19.2202
22.4219
32.0932
38.5627
40.9017
40.98
449.169
207.777
204.01
210.846
165.451
136.904
55.7956
14.6726
24.2703
23.7383
23.9508
22.8933
21.7565
19.6094
22.5542
31.6531
38.5718
39.8539
688.918
294
297.282
370.575
477.953
367.027
87.1453
44.9384
36.8007
30.0218
28.5453
26.9995
24.5082
23.5859
22.8045
22.4636
24.1109
24.8113
614.022
72.8653
64.0623
29.9015
29.6333
21.3745
18.9102
14.9859
14.1107
11.9133
12.5766
12.4173
12.473
12.3939
11.763
11.0285
12.9876
16.4865
359.062
50.5873
29.9135
29.9698
33.6337
20.3877
25.5322
16.467
13.6488
11.509
12.6505
13.6736
13.9729
13.8387
12.7257
10.0724
9.29783
10.2142
334.881
57.2316
38.5736
45.6792
49.314
33.5368
46.7494
21.0166
13.8855
11.1877
11.004
13.6784
15.2252
15.4158
14.3186
10.6094
9.07669
9.12733
338.034
66.4922
45.1379
47.9748
54.7289
53.8508
49.8166
29.036
17.4948
11.1026
8.9298
11.6336
14.6813
15.1545
13.8462
9.53287
8.34735
8.86995
345.686
74.5061
49.5312
47.4864
63.1567
59.8129
44.4157
33.8338
24.1099
12.3939
8.39684
10.4363
13.9238
14.3532
12.8987
8.63725
7.95536
8.89393
356.604
79.316
54.9576
51.2807
71.9487
61.3105
37.0205
33.8328
28.7501
15.7826
8.3905
7.9806
11.0828
12.8924
11.4499
7.7955
7.79041
9.10257
368.78
95.1981
104.642
82.6223
83.4726
66.9131
35.9723
31.3927
30.606
19.119
8.6731
6.46852
7.65983
8.63033
8.7974
7.40434
7.82374
9.20327
385.556
114.757
160.927
123.79
104.049
89.7474
39.6212
35.8958
33.9054
22.8596
11.127
6.16392
6.52612
6.84366
6.98986
7.19546
8.29835
8.97789
388.871
127.77
182.394
135.423
89.6149
92.7342
54.121
40.6916
38.9358
29.0558
16.5941
6.89245
6.09529
6.43333
6.15358
7.018
8.5318
8.46525
375.558
167.878
195.096
136.087
74.9641
71.3487
77.3511
50.4821
42.735
35.5474
25.0369
12.044
6.06874
6.39804
5.70194
6.39266
8.26798
7.99274
343.506
212.879
203.865
103.933
72.9128
70.0703
91.579
76.5888
49.6136
44.7864
36.2906
25.7451
8.79017
6.43079
5.85386
5.81987
7.41119
7.18357
311.749
242.594
208.448
95.3817
85.9975
88.3448
88.9477
88.2536
62.3184
51.2257
44.5044
38.3789
19.1761
6.82841
6.33468
5.50109
6.41354
6.73782
289.409
249.342
214.482
125.268
142.836
121.918
90.2292
90.0534
72.1302
49.8877
46.4059
42.3414
32.0336
10.784
6.37432
5.42639
4.80395
5.28974
278.826
242.284
234.101
200.579
188.573
129.881
94.06
89.7768
76.3687
46.128
40.0902
39.3597
35.8025
20.1821
7.75083
5.35585
4.30536
4.24357
289.514
229.945
235.672
227.502
204.148
156.615
125.351
93.9378
57.0319
40.3195
30.0997
28.142
29.1975
26.9774
11.9508
6.02729
5.94984
6.68734
344.136
263.19
262.28
257.034
226.113
152.38
100.706
64.043
40.3402
30.4095
28.7959
28.0154
26.7613
25.0517
16.1076
8.93018
8.79324
9.52532
481.656
281.407
254.203
218.02
198.167
135.75
77.3403
51.9282
40.6961
37.098
38.3113
35.8836
22.8695
12.8847
8.89575
9.08735
9.66312
8.18917
618.362
263.241
183.124
129.614
102.584
89.0454
56.5025
44.543
34.2866
22.7863
16.5182
12.1831
8.75354
8.46811
10.2276
8.35862
4.57346
2.9257
662.19
244.365
187.27
178.605
165.878
120.253
109.575
75.3274
42.8021
26.9144
21.0303
19.1405
19.4218
19.8012
13.7499
7.4778
3.67203
2.289
625.317
294.345
274.153
235.913
168.512
97.8163
77.14
31.1658
23.9009
13.6576
8.45105
7.66438
7.94397
7.72215
6.10043
5.29566
5.96362
4.8082
517.503
371.609
319.921
241.004
123.431
59.675
47.2011
29.2012
31.4161
24.9033
13.6843
13.0069
11.7422
8.01116
6.22823
7.08187
13.0549
14.1912
597.311
271.157
274.154
203.479
156.323
59.5762
31.3204
36.5091
58.6755
38.0671
22.0309
18.5639
15.3132
13.2003
11.3294
11.503
12.9524
16.669
627.968
241.699
227.247
160.502
156.704
129.33
83.7216
58.4289
59.356
47.7575
35.3413
15.0884
10.675
10.7271
11.0105
11.9202
13.4442
15.2175
533.549
252.921
283.289
145.78
54.2568
26.642
33.4683
36.811
46.0532
49.2671
31.3832
11.6318
9.81337
11.1752
11.9942
13.5854
14.9906
15.6598
447.085
327.924
245.972
104.591
44.0397
28.4027
26.0031
30.7827
36.0008
39.6011
22.9524
11.687
11.5275
13.0107
14.9383
18.2317
18.914
18.7838
412.808
338.497
242.701
105.821
70.0373
45.6467
28.6413
37.0703
38.9837
31.1075
18.8473
12.8668
12.9588
13.8878
15.7921
18.724
22.5146
25.8765
406.297
259.056
233.792
122.843
116.038
75.8314
31.1529
29.3492
34.6825
25.2934
17.6672
14.314
15.3595
16.8752
19.3368
21.7136
29.0219
34.9666
414.518
189.44
209.875
177.432
137.233
82.9849
34.2302
17.3304
25.2259
22.5407
19.2935
16.3494
16.1458
17.1833
20.283
27.6827
35.8663
38.6135
431.25
174.18
192.606
190.281
164.621
130.202
38.2815
11.8728
20.3398
22.7239
25.5716
22.7146
19.2932
17.9132
18.9035
23.8108
32.6693
35.4267
692.23
235.609
237.447
308.919
464.071
299.727
51.0128
29.791
27.9981
26.1329
28.4361
28.0447
26.9205
26.0211
26.0259
27.04
26.6017
24.7883
720.335
89.3026
71.1388
30.1596
28.5182
22.9536
19.1768
13.7831
12.4741
11.6049
12.1159
12.2959
12.496
12.5439
12.8529
14.8977
15.8811
11.4905
399.297
58.3233
36.3507
25.38
23.7945
20.0321
17.6989
12.016
10.7667
10.2473
11.7211
12.7798
12.8086
12.1825
10.3152
9.48086
9.82485
9.40221
365.937
61.4205
40.1676
25.3261
26.9457
20.5301
22.3112
11.7837
10.6825
9.6826
11.2338
13.4166
14.5856
14.1855
11.4405
9.43811
8.98765
8.30017
364.883
71.0635
47.8966
31.5753
36.6746
22.3307
24.0714
10.5038
11.2135
9.17824
8.9038
12.1489
14.5241
14.2845
11.5676
9.03488
8.73438
8.14836
368.514
76.5562
49.6119
37.2315
43.5557
25.7253
12.6747
9.828
11.4438
9.18131
8.04464
10.6041
13.4541
13.5498
11.314
8.79565
8.67877
8.1234
375.815
77.4713
52.311
41.9666
52.4252
52.1713
11.5417
9.16364
10.3092
9.6126
7.33265
8.41148
10.3914
10.6036
9.49198
8.31708
8.59401
7.67044
385.463
81.5077
63.7418
53.3092
64.8206
58.498
12.1821
9.08176
9.41233
10.0925
6.58382
6.73963
7.8603
8.0725
7.71719
7.83393
8.32473
6.07816
395.629
94.8203
107.452
79.391
79.7594
52.0701
13.7158
10.9531
9.96305
10.5395
6.30904
5.9183
6.94318
7.25775
7.09718
7.66755
8.07434
4.28636
394.259
112.403
155.569
113.857
72.1567
38.2897
16.7854
14.0369
10.7482
11.7483
6.39344
5.61073
6.05065
6.9713
6.84779
7.59639
7.49745
2.7869
378.601
143.316
177.309
132.101
72.1657
43.4859
22.7906
18.5301
13.1793
15.8814
9.81038
6.90093
5.73747
6.29038
6.78061
7.38706
6.10122
1.89219
343.763
198.622
200.363
127.862
108.478
61.4437
38.7457
26.2545
19.8893
24.0636
21.6971
12.8866
7.11507
5.41289
6.39534
6.39989
3.50099
1.70191
313.638
241.299
228.049
136.968
137.344
95.5793
60.9283
41.4705
27.722
30.2359
35.2371
28.1124
10.4562
5.80293
4.76836
4.80592
2.96701
2.19689
291.768
248.085
240.405
195.003
187.139
129.145
71.2089
55.5084
35.8689
34.0532
38.0782
36.899
19.6482
8.32247
4.3828
3.36299
2.88138
2.96278
280.77
235.238
240.458
221.354
162.346
107.697
67.1727
56.9328
43.8587
34.448
35.8114
37.811
31.5375
12.6234
6.60264
4.43761
3.83299
4.32935
291.605
230.634
236.729
230.065
160.211
86.1245
62.5751
59.0124
51.0085
42.4811
37.1786
35.6118
34.1771
22.2
7.95495
6.11252
6.32462
7.07264
346.094
268.365
264.996
260.398
205.035
104.999
74.4129
55.2712
40.4815
37.588
36.5146
30.922
29.6589
26.4979
13.677
8.81292
9.35855
10.2588
482.56
293.344
261.628
186.704
102.923
75.5054
66.4261
49.095
41.9619
38.5774
38.3958
34.595
22.0887
12.6707
10.7487
13.0428
14.1908
12.8503
639.6
244.392
185.458
161.801
161.411
148.65
78.8224
56.9451
42.8413
26.6966
19.0103
16.0653
14.8673
16.1846
19.9026
21.1957
16.8525
9.39476
674.612
248.044
186.123
174.571
181.394
125.634
96.6969
99.1285
64.5289
36.2276
23.2578
22.2555
25.7357
28.1629
30.4829
30.1749
19.0794
7.71643
604.591
312.736
248.225
131.681
125.158
78.9012
60.6022
43.045
40.0302
20.2725
11.2983
9.74668
9.62443
9.68836
9.28937
7.92202
5.75351
4.49887
499.831
374.106
307.39
169.177
104.221
66.7399
51.4669
35.7193
28.3517
18.1182
13.9595
13.1946
12.1992
10.7439
9.13746
9.21015
11.0995
14.4518
544.936
310.279
313.231
218.929
150.575
63.7363
30.6431
33.8739
36.4862
24.2373
20.2265
12.3704
8.50304
8.4943
8.78414
9.27591
11.4546
15.5667
584.061
228.904
199.139
122.902
118.666
121.324
77.8158
56.4682
49.0818
39.6589
19.8695
8.89335
7.64156
8.5821
9.18011
10.2576
13.1989
15.2243
545.461
222.481
201.809
103.226
48.3989
41.0878
41.4094
45.0665
46.4558
39.6389
13.9655
8.04467
8.70364
11.4167
12.9408
14.5126
15.4788
15.3699
463.008
369.867
276.589
93.7255
35.1919
28.674
27.3592
39.376
46.7423
32.7699
9.88775
8.33682
12.9323
18.4567
20.691
19.8384
18.2349
17.0763
433.676
248.735
246.899
99.3858
54.898
37.7111
27.1278
38.7793
41.2398
23.2535
9.74222
10.151
13.9886
18.0762
20.3032
21.1207
22.4654
22.1344
431.395
165.585
233.007
97.5192
112.966
61.6221
27.8804
29.8951
23.3292
15.2303
9.98937
10.5226
12.7306
15.3157
17.8633
20.2243
23.0328
25.04
420.204
165.738
205.447
108.189
138.331
82.8139
26.774
20.9079
15.8902
12.1591
10.862
11.1581
12.1103
12.7142
13.7833
16.0906
21.0544
24.222
401.516
171.664
192.895
163.746
216.288
122.635
30.4605
15.6353
16.6336
12.6233
12.7441
13.154
13.4867
13.7231
14.3702
16.5428
22.4433
25.3661
619.743
228.391
320.008
389.245
440.611
157.382
47.7567
29.588
23.1568
18.188
20.2029
22.9296
24.0263
24.8562
25.4602
25.9248
24.8987
22.8885
657.195
91.7395
76.5454
32.7421
32.6859
24.9615
21.1184
15.7813
13.45
12.2789
13.0466
14.0628
14.502
14.7221
14.6751
13.6696
9.20253
6.04001
488.775
79.7058
53.2312
27.1896
27.4383
19.2078
19.1018
12.5804
9.92192
9.7191
10.1657
10.739
10.4909
9.9951
9.03615
8.79372
7.51043
4.36914
416.518
88.4644
89.5493
23.3191
21.7216
16.7332
16.2124
10.3064
8.84766
9.41792
11.1125
12.2336
12.5179
11.5082
9.28075
8.13208
6.92845
4.30369
394.992
106.246
106.516
22.5217
19.4861
14.2321
13.4023
8.80905
8.31763
8.66872
9.93013
11.8665
12.5509
11.5049
9.48309
8.25617
6.87527
4.18913
389.874
119.553
115.613
24.3526
21.3355
13.9436
10.5697
8.16421
7.88899
8.52801
9.09013
10.5134
11.2275
10.8188
9.34097
8.27865
6.81084
3.85453
391.431
126.154
120.327
30.0534
25.4329
14.5556
10.4277
7.77616
7.43831
8.3132
8.06259
8.55549
9.07369
9.26862
8.47964
7.99428
6.50128
2.98104
394.924
129.646
122.7
38.74
32.6705
17.2064
11.2976
8.3685
6.91741
7.03109
6.48989
6.43409
7.50762
7.70469
7.441
7.42476
5.63577
2.05514
395.59
132.892
118.851
49.9819
39.2653
22.4735
13.6636
10.0895
5.91421
5.19994
5.14665
5.3484
6.29054
7.1089
7.03512
6.92779
4.32017
1.45542
388.1
145.173
131.826
71.5454
48.6201
26.306
16.8092
13.1725
5.42784
4.88611
5.52434
7.18883
6.08359
6.30097
6.79196
6.41103
3.10697
1.27255
367.128
179.785
162.16
94.859
68.4763
38.0934
21.3404
16.8059
8.64314
7.77264
9.70857
12.9348
9.52437
5.23167
6.14969
5.56171
2.35273
1.36757
337.875
218.017
190.434
121.864
119.269
66.4992
28.627
21.0416
18.0725
16.7094
20.3746
20.2577
14.6186
6.40498
4.17153
3.55497
1.70908
1.32675
312.113
258.26
217.302
176.452
168.819
109.925
43.6079
27.3481
24.1824
26.7036
36.7775
34.5584
21.2445
8.89956
3.21891
2.32216
1.52647
1.40904
293.736
257.333
252.491
232.206
197.532
126.14
56.7596
34.7668
28.9821
30.5389
40.572
41.9952
34.1231
13.2445
4.57726
2.37876
2.02519
2.33262
285.108
235.813
244.683
214.896
130.539
92.3086
55.005
36.8323
33.8466
32.3744
35.1809
41.6322
38.9676
21.1938
7.08363
4.59371
4.90747
6.15856
294.814
228.719
234.05
210.984
113.821
77.2226
57.0822
44.6267
44.4699
46.4393
45.4299
41.0164
37.5475
26.7405
9.22304
5.77294
6.01663
6.74735
345.676
280.744
245.359
206.265
123.05
79.5126
68.4488
59.7698
55.8336
55.844
55.3776
48.4212
37.9639
26.688
12.7946
7.87327
7.90761
9.31787
475.477
310.752
290.144
208.532
88.6114
43.3941
59.8462
61.9559
60.2512
57.1645
50.9285
36.1978
21.3438
12.473
10.5429
11.6691
17.0676
18.7756
655.767
231.86
204.081
186.864
163.994
122.89
89.2731
77.2823
43.4169
26.2536
18.6467
16.1039
15.5776
15.9514
18.8712
24.4702
26.4814
24.5647
705.166
252.553
217.155
216.019
177.14
143.722
146.116
134.692
81.1661
40.6648
21.8092
19.074
23.3915
40.3785
53.6717
58.0306
55.1091
34.7605
584.753
355.96
297.506
162.44
116.949
76.9661
60.6475
55.3652
54.5657
39.798
19.8987
14.8846
16.9326
18.1388
13.406
9.78923
8.58575
6.64402
475.63
353.152
317.496
154.409
93.2969
60.4677
49.5513
48.6311
44.2281
30.8682
23.4188
18.7995
12.9758
10.7921
8.77881
7.7195
7.30274
8.54942
478.671
338.551
317.771
216.696
115.541
73.3451
38.9224
40.6524
40.9612
31.4432
23.8102
12.9617
6.83402
6.39548
6.45029
6.64212
7.65755
10.7681
492.528
330.056
261.16
130.768
110.791
107.038
61.7552
52.5188
48.9933
34.8819
18.0451
8.50758
7.50811
8.37759
8.81033
10.0262
12.6006
14.1301
477.378
349.165
231.883
93.2091
68.6605
57.4868
45.8053
49.9568
49.7541
26.6079
10.8497
7.9556
9.71493
14.7082
17.7759
19.3963
19.7171
18.858
448.711
284.133
216.871
131.521
55.8613
28.7769
33.8037
44.946
38.9036
13.8372
8.25898
8.73929
15.4781
22.4369
26.5821
26.8923
25.9842
24.8112
447.498
167.837
201.924
84.7823
35.6816
29.7014
31.9573
35.4583
17.109
9.91526
9.30894
13.2563
18.982
23.1335
25.692
26.2284
25.9146
27.0469
437.888
155.782
157.958
62.6769
53.4637
36.0059
26.4711
18.2003
12.4824
9.54838
11.9629
14.9012
17.6849
18.0019
17.7136
17.5331
18.2941
22.5396
409.139
154.341
156.631
150.265
104.865
52.4127
24.7825
16.5366
13.1389
10.2572
12.3614
14.5016
14.3758
13.8608
13.7589
14.3386
18.0129
22.7585
375.54
166.227
200.888
237.099
170.686
70.354
25.8241
17.8362
15.9547
11.8431
13.4487
15.1126
17.0505
17.334
17.5097
18.5265
20.1333
19.8508
555.136
219.734
314.155
310.095
199.352
80.3696
56.683
40.3248
26.7874
20.894
23.873
26.5344
25.3707
24.5019
24.0225
22.4068
19.9056
17.6584
396.803
62.0937
54.4896
35.4675
39.5615
41.3787
22.6229
19.62
20.7265
16.3729
14.8977
14.7285
13.9413
11.7402
8.76332
5.34611
3.87195
4.1927
335.301
57.8638
39.7175
30.1547
38.2261
19.701
15.0902
14.6698
13.515
10.0569
9.10787
8.94516
8.54497
6.94858
5.66931
4.35423
2.8234
1.99272
342.534
62.2004
68.0583
25.5943
23.4186
17.9498
12.6442
11.1661
10.989
7.96945
7.5883
7.7059
7.0256
6.00076
5.03057
4.23538
2.93578
1.71081
355.429
71.2238
89.0226
26.4634
21.6195
17.747
11.529
8.63239
9.2891
7.47771
7.58639
7.99758
7.23118
6.14653
5.16702
4.41487
3.00069
1.68097
362.816
87.8797
105.044
31.6626
27.562
18.6625
15.3561
8.35727
8.01588
7.49789
7.51741
7.71629
6.83865
5.96559
5.13122
4.42211
2.93399
1.61046
364.525
114.177
121.95
37.6813
35.3662
19.5781
16.2952
10.8174
7.37875
7.39296
7.07715
6.69911
5.79285
5.3198
4.98683
4.30354
2.75079
1.48358
364.028
144.595
140.553
47.873
48.4648
22.1584
15.8027
14.9005
7.01815
6.70111
5.79124
4.58433
4.48599
4.86709
4.81071
3.97659
2.44633
1.38563
361.301
169.21
159.51
65.7247
66.2295
28.7656
16.3931
15.6456
6.71879
5.16291
4.82288
5.54016
4.25919
4.36987
4.53087
3.31999
2.06451
1.38049
354.368
189.379
175.127
93.3806
85.7418
40.1617
19.4828
16.9466
7.03115
5.21771
8.40258
14.3196
9.89964
3.56014
4.00263
2.98542
1.94542
1.66504
342.295
214.297
190.06
122.486
111.661
64.5766
26.1962
19.3349
11.5442
6.28196
13.4113
18.6175
15.1056
7.06871
3.12583
2.64808
1.97228
1.94824
325.727
229.207
199.35
140.335
125.327
89.7798
35.8261
22.52
20.1652
12.0655
20.6864
23.59
17.1846
11.7187
4.4265
2.07443
1.71363
1.70576
309.373
257.913
222.85
160.915
149.588
106.696
42.0326
26.1727
21.9119
19.5214
29.8802
37.5772
25.6864
12.3066
5.82094
2.14342
1.58928
1.71622
296.889
259.833
248.944
179.516
157.087
104.267
44.501
27.4632
27.8071
26.8185
35.4245
42.7844
35.0748
13.9756
6.56262
2.57363
2.12638
2.63186
290.62
248.682
246.948
169.775
139.34
92.9126
44.7174
27.7343
30.5202
32.982
41.155
45.0145
38.2458
16.2792
6.7489
4.72301
5.27681
6.87027
297.831
234.168
235.874
162.068
110.546
80.5555
42.7262
27.1013
31.0938
41.6315
46.5704
46.158
39.8524
20.0425
6.48432
4.84234
5.50566
5.9649
343.479
276.713
240.348
124.415
73.3069
53.5185
39.4809
37.8092
40.0289
47.1596
52.1596
51.3448
42.5848
22.4042
9.04068
6.07251
5.95707
6.23244
460.14
342.949
302.805
205.591
74.6924
28.558
49.0689
55.9649
52.4803
50.4755
42.4137
28.9317
18.8589
11.7954
9.87618
11.3209
14.8748
14.8608
645.211
236.916
235.164
169.849
106.48
56.1959
102.52
73.3207
41.3143
27.7477
19.6122
17.6587
16.6657
16.0623
17.6718
21.0826
20.9833
17.7213
725.511
267.934
267.189
272.559
205.24
206.877
197.892
143.591
86.1922
42.4459
20.3731
16.1326
17.6436
26.4388
48.2637
55.0195
51.2965
37.727
570.012
377.595
340.378
260.965
153.96
107.298
82.9175
71.1707
61.0896
44.9667
26.6608
15.4303
13.3256
17.01
21.8244
20.9824
14.9499
10.5792
457.007
336.765
307.847
123.455
71.4161
61.8412
62.6067
68.5912
70.7518
62.5169
39.4165
30.5769
16.3146
8.03514
6.59022
6.3013
5.51693
4.92039
437.3
334.057
251.301
86.4717
84.2776
91.2717
57.1441
55.0603
52.0757
49.3445
40.0595
20.4436
7.55225
5.73228
5.63303
5.14107
5.11696
5.46964
434.957
343.066
213.991
58.2984
100.794
98.7634
57.3127
53.9628
48.3972
38.492
23.6855
11.2498
9.86158
10.4168
9.15657
8.29492
8.99955
10.0935
424.141
335.683
203.643
50.5249
64.2037
61.8202
45.9332
49.7504
39.1384
19.673
12.344
8.88125
10.0864
14.3152
15.5936
14.7308
14.4347
14.3414
417.645
261.505
197.555
74.7898
51.0868
28.7366
36.0158
41.5168
18.6257
10.4964
7.74498
8.77679
13.7394
17.1279
21.5741
25.6187