/*--------------------------------*- C++ -*----------------------------------*\
| =========                 |                                                 |
| \\      /  F ield         | OpenFOAM: The Open Source CFD Toolbox           |
|  \\    /   O peration     | Version:  2112                                  |
|   \\  /    A nd           | Website:  www.openfoam.com                      |
|    \\/     M anipulation  |                                                 |
\*---------------------------------------------------------------------------*/
FoamFile
{
    version     2.0;
    format      ascii;
    arch        "LSB;label=32;scalar=64";
    class       volScalarField;
    location    "0.26";
    object      k_0;
}
// * * * * * * * * * * * * * * * * * * * * * * * * * * * * * * * * * * * * * //

dimensions      [0 2 -2 0 0 0 0];

internalField   nonuniform List<scalar> 
12225
(
0.535035
0.804695
0.988842
1.09682
1.15179
1.1708
1.16763
1.15734
1.13749
1.11299
1.08956
1.06335
1.04205
1.01676
0.999825
0.975852
0.964129
0.939378
0.378382
0.385984
0.391204
0.39452
0.396548
0.398218
0.39945
0.401551
0.404249
0.408698
0.413261
0.421047
0.426596
0.43903
0.446451
0.459206
0.468652
0.48361
0.375171
0.374423
0.372407
0.36845
0.363675
0.358141
0.352437
0.3466
0.341165
0.336083
0.33146
0.327583
0.324127
0.321933
0.31938
0.318375
0.317639
0.317803
0.375055
0.374581
0.373494
0.371412
0.368903
0.365817
0.362554
0.358892
0.355394
0.351577
0.348096
0.344411
0.341274
0.337818
0.335114
0.332042
0.329875
0.327218
0.375065
0.374811
0.374217
0.37308
0.371701
0.37
0.368173
0.366101
0.364062
0.36179
0.359665
0.357344
0.355288
0.352956
0.351089
0.348817
0.347173
0.344993
0.37507
0.374926
0.374563
0.373868
0.373016
0.371978
0.370847
0.36958
0.368293
0.366882
0.365514
0.364043
0.362674
0.361176
0.359882
0.358387
0.357204
0.355708
0.375059
0.374975
0.374736
0.374275
0.373703
0.373016
0.37226
0.371422
0.370552
0.369616
0.368683
0.3677
0.366749
0.365748
0.364824
0.36382
0.362952
0.361929
0.375038
0.374986
0.374821
0.3745
0.374095
0.373614
0.37308
0.372493
0.371876
0.371221
0.370555
0.369864
0.369179
0.368476
0.367799
0.367095
0.366445
0.365722
0.375014
0.374975
0.374856
0.374624
0.374329
0.373979
0.373589
0.373162
0.372709
0.37223
0.37174
0.371235
0.370728
0.370213
0.369706
0.36919
0.368695
0.368163
0.374992
0.37495
0.374857
0.374687
0.374468
0.374209
0.373917
0.373598
0.373257
0.372899
0.372529
0.372149
0.371765
0.371376
0.370988
0.370597
0.370213
0.369809
0.37497
0.374916
0.374837
0.374709
0.374545
0.37435
0.374129
0.373887
0.373628
0.373355
0.373071
0.37278
0.372484
0.372183
0.371881
0.371576
0.371273
0.370957
0.374953
0.374881
0.374805
0.374703
0.374574
0.374422
0.374251
0.374061
0.373858
0.373642
0.373418
0.373186
0.372949
0.372708
0.372464
0.372217
0.371968
0.371711
0.374938
0.374846
0.374767
0.37468
0.374577
0.374459
0.374325
0.374177
0.374017
0.373847
0.373669
0.373484
0.373294
0.373099
0.3729
0.372698
0.372492
0.37228
0.374924
0.374809
0.37472
0.374639
0.374555
0.374463
0.374362
0.374251
0.37413
0.374
0.373863
0.37372
0.373571
0.373416
0.373257
0.373094
0.372927
0.372755
0.374913
0.374773
0.374668
0.374583
0.374508
0.374435
0.374359
0.374277
0.374189
0.374094
0.373992
0.373884
0.37377
0.373651
0.373526
0.373397
0.373263
0.373124
0.374905
0.374743
0.374618
0.374521
0.374445
0.374379
0.374318
0.374256
0.374192
0.374123
0.374049
0.37397
0.373884
0.373793
0.373697
0.373596
0.37349
0.373379
0.374899
0.374721
0.374577
0.374464
0.374378
0.374309
0.374251
0.374198
0.374147
0.374094
0.374038
0.373978
0.373912
0.373842
0.373766
0.373685
0.3736
0.373511
0.374896
0.374708
0.37455
0.374424
0.374325
0.374246
0.374182
0.374126
0.374075
0.374025
0.373974
0.37392
0.373862
0.3738
0.373734
0.373664
0.373589
0.373511
0.374896
0.374705
0.374544
0.374411
0.374303
0.374214
0.374137
0.374069
0.374005
0.373943
0.373879
0.373814
0.373746
0.373675
0.3736
0.373523
0.373443
0.37336
0.374898
0.374716
0.374561
0.374431
0.37432
0.37422
0.374127
0.374037
0.373946
0.373855
0.373761
0.373664
0.373565
0.373463
0.373358
0.373252
0.373144
0.373035
0.374904
0.374735
0.37459
0.374462
0.374341
0.374223
0.374104
0.373982
0.373855
0.373724
0.37359
0.373451
0.37331
0.373166
0.37302
0.372872
0.372725
0.372577
0.374914
0.374763
0.374625
0.374487
0.374343
0.374191
0.374029
0.373858
0.373678
0.373492
0.373299
0.373102
0.372901
0.372698
0.372493
0.372288
0.372083
0.37188
0.374929
0.374796
0.374652
0.374486
0.374297
0.374088
0.37386
0.373617
0.37336
0.373092
0.372817
0.372535
0.372248
0.371959
0.371668
0.371378
0.371088
0.370804
0.37495
0.374827
0.374656
0.374435
0.374169
0.373869
0.373538
0.373182
0.372806
0.372414
0.372009
0.371596
0.371176
0.370753
0.370329
0.369906
0.369484
0.369073
0.374972
0.374844
0.374616
0.374297
0.373898
0.373444
0.372937
0.372393
0.371813
0.371211
0.370588
0.369953
0.369308
0.368661
0.36801
0.367367
0.36672
0.366099
0.374988
0.374833
0.3745
0.373994
0.373337
0.372596
0.37175
0.370853
0.369884
0.36889
0.36785
0.366808
0.365738
0.364683
0.363611
0.362576
0.361516
0.360527
0.37501
0.374774
0.374223
0.373313
0.372083
0.370729
0.369134
0.367494
0.365679
0.363878
0.36196
0.360103
0.358166
0.356326
0.354431
0.352673
0.350838
0.349197
0.375129
0.374768
0.373789
0.371935
0.3694
0.3667
0.36345
0.360272
0.356713
0.353393
0.349838
0.346609
0.343268
0.340259
0.337255
0.334549
0.331961
0.329498
0.376924
0.37984
0.381432
0.381364
0.380883
0.379897
0.378235
0.37666
0.374966
0.373634
0.372531
0.371799
0.371618
0.371839
0.372333
0.373136
0.375104
0.376017
0.45954
0.609323
0.730002
0.821265
0.887079
0.932655
0.962745
0.981432
0.991682
0.996067
0.995434
0.993288
0.98856
0.982393
0.975377
0.967861
0.960115
0.952282
2.52715e-05
0.000189038
0.000372482
0.000531922
0.000644851
0.00071507
0.000760487
0.000805255
0.00086522
0.000945125
0.00102739
0.0010899
0.00111419
0.00110429
0.0010748
0.000990069
0.000792319
0.000673056
0.000549402
0.00038746
0.00024666
0.000200782
0.000203749
0.000232338
0.000264505
0.0002963
0.000349377
0.00046534
0.000713953
0.00110721
0.00144934
0.00148426
0.00135062
0.00113082
0.00110868
0.000941617
0.00095053
0.00119963
0.00175208
0.00601148
0.0174882
0.0285041
0.0381365
0.046813
0.0547514
0.0621566
0.0691341
0.0757931
0.0821974
0.0884147
0.0944917
0.100491
0.106444
0.112404
0.118398
0.124471
0.130658
0.137005
0.143558
0.150373
0.157378
0.16436
0.171477
0.178615
0.185856
0.193136
0.200494
0.207895
0.215356
0.222854
0.230394
0.237961
0.245553
0.25316
0.260776
0.268392
0.276002
0.283598
0.291172
0.298718
0.306228
0.313694
0.32111
0.328468
0.335761
0.342981
0.350121
0.357172
0.364128
0.370978
0.377716
0.384332
0.390816
0.397161
0.403357
0.409397
0.415273
0.420983
0.426528
0.431916
0.437171
0.442335
0.447342
0.452172
0.456833
0.461308
0.465601
0.4697
0.473606
0.477311
0.480814
0.484108
0.487192
0.490062
0.492714
0.495148
0.49736
0.499349
0.501114
0.502654
0.503969
0.50506
0.505927
0.506572
0.506998
0.507206
0.507203
0.507064
0.50661
0.505979
0.505127
0.50397
0.502579
0.500952
0.499112
0.497101
0.494906
0.492471
0.489858
0.487054
0.484074
0.480918
0.477596
0.474112
0.470473
0.466686
0.462757
0.458694
0.454506
0.450193
0.445762
0.441218
0.436569
0.431823
0.426992
0.422086
0.417116
0.412093
0.407028
0.401928
0.396801
0.391653
0.386486
0.381304
0.376111
0.370914
0.365718
0.360533
0.355365
0.350217
0.345089
0.339974
0.334855
0.32972
0.324465
0.319244
0.313178
0.308499
0.303067
0.288494
9.66526e-05
9.70564e-05
0.000226696
0.000317976
0.000398357
0.000531658
0.000789318
0.00126283
0.00202697
0.00306208
0.00425458
0.00548005
0.00662916
0.00760155
0.00831593
0.0087661
0.00873366
0.00838231
0.00748939
0.00596149
0.00419383
0.002747
0.0017581
0.0011394
0.000801624
0.000755489
0.00100024
0.00179568
0.00359793
0.00618235
0.00811765
0.00838485
0.00769425
0.00700056
0.00561802
0.00338777
0.00535959
0.0103943
0.0162833
0.0252431
0.0381947
0.0503368
0.0624405
0.074749
0.0873292
0.100337
0.113598
0.12721
0.141083
0.15498
0.168677
0.182329
0.195881
0.20942
0.222943
0.236494
0.250103
0.263809
0.277624
0.291576
0.305672
0.319933
0.334379
0.349013
0.363845
0.378873
0.3941
0.409516
0.42512
0.440899
0.456845
0.472945
0.489185
0.505552
0.52203
0.538605
0.555261
0.571982
0.588754
0.60556
0.622387
0.639218
0.656039
0.672837
0.689595
0.706299
0.722934
0.739486
0.755939
0.772276
0.788481
0.804537
0.820427
0.836131
0.851629
0.8669
0.881923
0.896673
0.911126
0.925256
0.939039
0.952429
0.965601
0.978494
0.99112
1.00345
1.01548
1.0272
1.03859
1.04964
1.06034
1.07068
1.08065
1.09024
1.09944
1.10824
1.11664
1.12462
1.13218
1.13931
1.14601
1.15228
1.1581
1.16349
1.16843
1.17294
1.17702
1.18068
1.18391
1.18677
1.18929
1.19152
1.19332
1.19464
1.19542
1.19583
1.19599
1.19562
1.1948
1.19358
1.19196
1.18994
1.18754
1.18476
1.18162
1.17813
1.17429
1.17011
1.16563
1.16082
1.15572
1.15032
1.14464
1.13868
1.13248
1.12605
1.11942
1.11261
1.10563
1.09852
1.09128
1.08394
1.0765
1.06897
1.06136
1.05368
1.04596
1.0382
1.03042
1.02265
1.01489
1.00712
0.99933
0.991489
0.983438
0.975358
0.966025
0.957845
0.943465
0.916956
4.27222e-05
3.16888e-05
7.72415e-05
0.000129157
0.00017842
0.000314413
0.000680015
0.0014533
0.00268091
0.00420361
0.00586551
0.00754063
0.00911009
0.010473
0.0115786
0.0123523
0.012865
0.0128598
0.0126535
0.0121037
0.011065
0.00957567
0.00779645
0.00604756
0.00463609
0.0037355
0.00388685
0.00498601
0.00799911
0.0120658
0.0149773
0.0163658
0.0138338
0.011897
0.0129284
0.0155692
0.023509
0.0355491
0.0496557
0.0661508
0.0845944
0.104456
0.125786
0.147754
0.169914
0.191931
0.213491
0.234505
0.254807
0.274623
0.294182
0.313499
0.332635
0.351647
0.370589
0.389525
0.408496
0.427547
0.44671
0.466015
0.485488
0.50515
0.525019
0.545104
0.565413
0.585947
0.606707
0.627687
0.64888
0.670276
0.691862
0.713626
0.73555
0.757617
0.77981
0.802109
0.824496
0.846951
0.869453
0.891985
0.914527
0.937059
0.959563
0.982022
1.00442
1.02673
1.04894
1.07103
1.09298
1.11478
1.1364
1.15784
1.17906
1.20005
1.22079
1.24127
1.26147
1.28138
1.30097
1.32025
1.3392
1.35782
1.3761
1.39401
1.41154
1.42867
1.44538
1.46166
1.47749
1.49285
1.50774
1.52213
1.53601
1.54937
1.5622
1.57449
1.58621
1.59738
1.60796
1.61797
1.62739
1.63621
1.64443
1.65206
1.65907
1.66549
1.6713
1.67652
1.68113
1.68516
1.68859
1.69144
1.69367
1.69527
1.69616
1.69654
1.69651
1.69574
1.6944
1.69248
1.69001
1.68699
1.68344
1.67937
1.67479
1.66971
1.66416
1.65815
1.65168
1.64479
1.63747
1.62975
1.62164
1.61315
1.60431
1.59515
1.58569
1.57598
1.56603
1.55587
1.54552
1.53502
1.52437
1.51359
1.50269
1.49169
1.48061
1.46947
1.45831
1.44714
1.43598
1.42484
1.4137
1.40255
1.39128
1.38001
1.36794
1.35638
1.34032
1.31491
5.69958e-06
9.52046e-06
3.75903e-05
0.000123453
0.00041302
0.00114322
0.00265666
0.00478979
0.00721033
0.00964495
0.0119228
0.0139197
0.0155499
0.016772
0.0175622
0.0179405
0.0178951
0.0176451
0.0170883
0.0162817
0.0152802
0.0140717
0.0126654
0.0111962
0.00979316
0.00947066
0.0106038
0.0146856
0.021802
0.027629
0.0284528
0.0238994
0.0218929
0.0237907
0.0321323
0.0457255
0.0623428
0.0810056
0.101678
0.124402
0.148644
0.173552
0.198765
0.223901
0.248829
0.273435
0.297658
0.321501
0.34499
0.368207
0.39121
0.414035
0.436736
0.45937
0.48199
0.504645
0.527377
0.550227
0.573228
0.59641
0.619799
0.643415
0.667276
0.691395
0.715778
0.740431
0.765352
0.79054
0.815986
0.84168
0.867611
0.893761
0.920114
0.946649
0.973345
1.00018
1.02713
1.05417
1.08127
1.10842
1.13559
1.16275
1.18988
1.21695
1.24396
1.27087
1.29766
1.32431
1.3508
1.37711
1.40322
1.42911
1.45475
1.48014
1.50524
1.53004
1.55452
1.57868
1.60248
1.62592
1.64897
1.67162
1.69384
1.71562
1.73692
1.75773
1.77802
1.79778
1.81699
1.83563
1.85367
1.87111
1.88792
1.90409
1.91961
1.93446
1.94862
1.96209
1.97486
1.98692
1.99825
2.00885
2.01872
2.02785
2.03624
2.04389
2.05078
2.05693
2.06233
2.06699
2.07089
2.07405
2.07646
2.07808
2.07888
2.07911
2.07867
2.07744
2.07549
2.07285
2.06953
2.06554
2.0609
2.05562
2.04973
2.04323
2.03615
2.02851
2.02032
2.0116
2.00237
1.99264
1.98245
1.9718
1.96072
1.94924
1.9374
1.92524
1.91277
1.90005
1.88709
1.87392
1.86058
1.84706
1.8334
1.8196
1.80571
1.79174
1.77772
1.7637
1.7497
1.73572
1.72179
1.7079
1.69399
1.68016
1.66591
1.65196
1.635
1.61109
1.51619e-05
2.51877e-05
0.000167686
0.000660297
0.00186646
0.00439015
0.00782427
0.0114577
0.0149364
0.018068
0.0207094
0.0227714
0.0242207
0.0250678
0.0253213
0.0251644
0.0246705
0.0237783
0.0226682
0.0214258
0.0201272
0.0188076
0.0175202
0.0162274
0.0154478
0.0167228
0.0226039
0.0336572
0.0407482
0.0404656
0.0347843
0.0332181
0.0387386
0.0515936
0.0682776
0.0867114
0.107896
0.130803
0.155322
0.180792
0.206801
0.232955
0.259187
0.285392
0.311526
0.337544
0.363431
0.389185
0.414817
0.440345
0.465793
0.491193
0.516579
0.541992
0.567468
0.593047
0.618766
0.644658
0.670755
0.697084
0.723672
0.750539
0.777702
0.805177
0.832973
0.861095
0.889547
0.918325
0.947424
0.976835
1.00654
1.03654
1.06679
1.09728
1.12799
1.15888
1.18994
1.22112
1.2524
1.28374
1.31513
1.34652
1.3779
1.40922
1.44047
1.47163
1.50265
1.53353
1.56423
1.59473
1.625
1.65503
1.68478
1.71424
1.74338
1.77219
1.80063
1.82869
1.85635
1.88359
1.91037
1.93668
1.96248
1.98775
2.01247
2.03662
2.06015
2.08307
2.10533
2.12692
2.14782
2.168
2.18745
2.20615
2.22408
2.24123
2.25758
2.27311
2.28782
2.30169
2.31471
2.32688
2.33819
2.34863
2.3582
2.36689
2.3747
2.38163
2.38768
2.39285
2.39714
2.40055
2.4031
2.40469
2.40537
2.40542
2.40458
2.40288
2.40035
2.39701
2.39288
2.38797
2.38231
2.37591
2.36879
2.36097
2.35247
2.34332
2.33352
2.32312
2.31213
2.30057
2.28846
2.27582
2.26269
2.24909
2.23507
2.22066
2.20591
2.19083
2.17548
2.15989
2.14407
2.12806
2.11186
2.09552
2.07904
2.06248
2.04587
2.02923
2.01263
1.99607
1.97959
1.9632
1.94689
1.93074
1.91446
1.89846
1.88046
1.85705
4.01235e-05
9.55231e-05
0.000577519
0.00204806
0.00551383
0.0108395
0.016358
0.0213634
0.0254744
0.0285511
0.0306426
0.0319016
0.0324856
0.0324829
0.0321677
0.0314185
0.030327
0.0289992
0.0275234
0.0259958
0.0245136
0.0229936
0.0215064
0.0208431
0.0232266
0.0317875
0.0437568
0.0497373
0.0494802
0.0456728
0.0450651
0.0541089
0.0688217
0.0863537
0.106496
0.128398
0.1521
0.176928
0.202531
0.228475
0.254635
0.280957
0.307453
0.3341
0.360884
0.387785
0.414786
0.441866
0.469017
0.496241
0.523543
0.550937
0.578439
0.606074
0.633867
0.661848
0.690045
0.718488
0.747204
0.776221
0.805562
0.835249
0.865302
0.895736
0.926563
0.957791
0.989425
1.02147
1.05391
1.08674
1.11996
1.15353
1.18745
1.22168
1.25619
1.29096
1.32594
1.36111
1.39641
1.43183
1.46731
1.50282
1.53833
1.5738
1.6092
1.64451
1.67968
1.7147
1.74953
1.78414
1.8185
1.85259
1.88638
1.91984
1.95295
1.98567
2.01799
2.04988
2.0813
2.11224
2.14266
2.17254
2.20183
2.23052
2.25858
2.28598
2.31268
2.33867
2.36391
2.38838
2.41206
2.43492
2.45694
2.4781
2.49837
2.51775
2.53621
2.55374
2.57032
2.58595
2.6006
2.61427
2.62696
2.63865
2.64934
2.65903
2.6677
2.67537
2.68203
2.68768
2.69232
2.69597
2.69862
2.70018
2.70078
2.70057
2.69936
2.69718
2.69407
2.69003
2.6851
2.67929
2.67263
2.66512
2.65681
2.6477
2.63782
2.62719
2.61585
2.60381
2.59111
2.57776
2.5638
2.54925
2.53413
2.51849
2.50236
2.4858
2.46883
2.4515
2.43385
2.41591
2.39772
2.3793
2.36068
2.34187
2.32292
2.30386
2.28474
2.2656
2.24648
2.22744
2.2085
2.1897
2.17105
2.15265
2.13432
2.11633
2.09701
2.07323
3.84745e-05
0.000299389
0.00178942
0.00594497
0.014075
0.0220368
0.028209
0.032411
0.0350931
0.0367501
0.0376989
0.0381065
0.0380656
0.0376956
0.0369111
0.035791
0.0343914
0.0327826
0.0310539
0.0293144
0.0276598
0.0263407
0.0263276
0.0296794
0.0378146
0.0491778
0.0553742
0.0562878
0.0547909
0.056379
0.0665043
0.0819687
0.100216
0.120605
0.142746
0.166191
0.190675
0.215764
0.241202
0.266858
0.292756
0.318934
0.345423
0.372236
0.399372
0.426812
0.454533
0.482519
0.510755
0.539229
0.567934
0.596871
0.626044
0.655467
0.685155
0.715129
0.745412
0.77603
0.807008
0.838371
0.870142
0.902345
0.935
0.968126
1.00174
1.03584
1.07045
1.10556
1.14117
1.17728
1.21387
1.25092
1.2884
1.32629
1.36455
1.40315
1.44203
1.48116
1.52049
1.55997
1.59955
1.6392
1.67887
1.71851
1.7581
1.79759
1.83694
1.87614
1.91513
1.95389
1.99238
2.03057
2.06844
2.10593
2.14303
2.17971
2.21593
2.25167
2.28688
2.32155
2.35564
2.3891
2.42192
2.45406
2.48547
2.51615
2.54604
2.57512
2.60336
2.63073
2.65719
2.68274
2.70733
2.73095
2.75358
2.77519
2.79576
2.81528
2.83373
2.8511
2.86736
2.88252
2.89657
2.90949
2.92129
2.93195
2.94147
2.94985
2.9571
2.9632
2.96818
2.97204
2.97478
2.9763
2.97679
2.97629
2.97469
2.97202
2.9683
2.96356
2.95781
2.95109
2.9434
2.93478
2.92526
2.91485
2.90359
2.8915
2.8786
2.86493
2.85052
2.83539
2.81959
2.80312
2.78603
2.76836
2.75015
2.73144
2.71229
2.69274
2.67281
2.65256
2.63202
2.61122
2.59019
2.56896
2.54755
2.52603
2.50443
2.48281
2.46122
2.43972
2.41834
2.39714
2.37615
2.35548
2.33503
2.31498
2.29403
2.26927
0.000121373
0.00101033
0.0052366
0.0156329
0.0260226
0.0326834
0.0367643
0.0393759
0.0410788
0.0421239
0.0426303
0.0426602
0.0423186
0.0415496
0.0404124
0.0389628
0.0372597
0.0353879
0.0334874
0.0317814
0.0307791
0.0311268
0.034317
0.0416476
0.0517805
0.0586825
0.0609279
0.0614464
0.0656014
0.0757656
0.0912204
0.109574
0.129801
0.151495
0.174337
0.198027
0.222306
0.246938
0.271828
0.296986
0.322477
0.348364
0.37469
0.401478
0.428728
0.45643
0.484571
0.513136
0.542106
0.571465
0.6012
0.631303
0.661774
0.692618
0.723844
0.755469
0.787511
0.819993
0.852938
0.886372
0.920319
0.954804
0.989849
1.02547
1.0617
1.09853
1.13598
1.17406
1.21276
1.25207
1.29199
1.33248
1.37353
1.41509
1.45712
1.49958
1.54242
1.58558
1.629
1.67263
1.7164
1.76027
1.80419
1.8481
1.89196
1.93573
1.97936
2.02282
2.06607
2.10907
2.15178
2.19416
2.23618
2.27779
2.31896
2.35967
2.39986
2.43952
2.4786
2.51706
2.55488
2.592
2.6284
2.66403
2.69886
2.73286
2.76598
2.79819
2.82947
2.85976
2.88905
2.9173
2.94449
2.97058
2.99557
3.01941
3.04209
3.0636
3.0839
3.103
3.12086
3.13749
3.15287
3.167
3.17987
3.19147
3.20181
3.21087
3.21867
3.2252
3.23047
3.2345
3.2373
3.23875
3.23908
3.23826
3.23624
3.23303
3.22867
3.22318
3.21658
3.2089
3.20016
3.1904
3.17964
3.1679
3.15523
3.14164
3.12717
3.11185
3.09571
3.0788
3.06113
3.04274
3.02366
3.00395
2.98365
2.96281
2.94148
2.9197
2.89751
2.87495
2.85207
2.8289
2.80547
2.78181
2.75796
2.73398
2.70992
2.68582
2.66176
2.63779
2.61397
2.59035
2.56699
2.54399
2.52133
2.49912
2.4763
2.45006
0.00109813
0.00309098
0.0129389
0.0264499
0.0344827
0.0393645
0.0425241
0.0445859
0.0458555
0.0465015
0.0466222
0.0463065
0.0455575
0.0444155
0.0429263
0.0411536
0.0392026
0.0372266
0.0354687
0.0345523
0.0348957
0.0378139
0.0441977
0.0528632
0.0602951
0.0639776
0.0662873
0.0717368
0.0822121
0.097163
0.115107
0.134811
0.155769
0.177704
0.200394
0.223638
0.247272
0.271199
0.295415
0.319978
0.344966
0.370448
0.396469
0.423054
0.450213
0.477949
0.506256
0.53512
0.564526
0.594458
0.624903
0.655851
0.687298
0.719247
0.751704
0.784684
0.818204
0.852285
0.886952
0.922232
0.958151
0.994735
1.03201
1.07
1.10873
1.1482
1.18844
1.22944
1.27121
1.31373
1.357
1.40098
1.44564
1.49095
1.53684
1.58326
1.63016
1.67747
1.7251
1.773
1.82109
1.86931
1.9176
1.9659
2.01416
2.06233
2.11036
2.15821
2.20582
2.25316
2.30019
2.34686
2.39312
2.43894
2.48427
2.52908
2.57332
2.61697
2.65997
2.7023
2.7439
2.78473
2.82475
2.86392
2.9022
2.93954
2.97592
3.01128
3.04559
3.07881
3.11092
3.14186
3.17163
3.20018
3.22749
3.25354
3.2783
3.30175
3.32387
3.34465
3.36406
3.3821
3.39877
3.41404
3.42793
3.44041
3.45149
3.46117
3.46946
3.47634
3.48185
3.48599
3.48876
3.49009
3.4902
3.489
3.48648
3.48268
3.47761
3.47131
3.46381
3.45512
3.44528
3.43432
3.42228
3.40918
3.39506
3.37995
3.36387
3.34688
3.32899
3.31025
3.2907
3.27037
3.24929
3.22753
3.20514
3.18216
3.15865
3.13464
3.11019
3.08533
3.06012
3.03458
3.00875
2.98267
2.95639
2.92996
2.90343
2.87687
2.85034
2.8239
2.79762
2.77156
2.74579
2.72042
2.69546
2.67101
2.64613
2.61807
0.0030002
0.00693908
0.0221916
0.0339015
0.0406268
0.0447286
0.0473143
0.0488975
0.0497391
0.0499823
0.0497159
0.048993
0.0478636
0.0463759
0.0445939
0.0426223
0.0406386
0.0389266
0.0381029
0.0384269
0.0410192
0.0463881
0.0536152
0.0604297
0.0652198
0.06926
0.0756375
0.0861999
0.100607
0.117749
0.136628
0.156637
0.177491
0.199012
0.221063
0.243526
0.266324
0.289436
0.312899
0.336784
0.361173
0.386129
0.411698
0.437915
0.464802
0.492368
0.520615
0.549537
0.579123
0.609362
0.640244
0.671761
0.703912
0.736698
0.770128
0.804215
0.838979
0.874443
0.910634
0.947582
0.985319
1.02388
1.06328
1.10356
1.14474
1.18683
1.22985
1.2738
1.31869
1.36449
1.4112
1.45877
1.50717
1.55635
1.60624
1.65677
1.70788
1.75948
1.81148
1.8638
1.91636
1.96907
2.02187
2.07469
2.12749
2.18018
2.23273
2.28506
2.33714
2.38892
2.44036
2.49139
2.54198
2.59207
2.64162
2.69058
2.73892
2.78659
2.83356
2.87977
2.92517
2.96972
3.01337
3.05606
3.09777
3.13844
3.17804
3.21651
3.25382
3.28992
3.32478
3.35836
3.39063
3.42157
3.45113
3.4793
3.50605
3.53136
3.5552
3.57756
3.59842
3.61778
3.63562
3.65194
3.66673
3.67999
3.69171
3.7019
3.71056
3.7177
3.72334
3.72748
3.73013
3.73126
3.73102
3.72935
3.72625
3.72176
3.71591
3.70873
3.70023
3.69047
3.67946
3.66725
3.65386
3.63934
3.62373
3.60705
3.58933
3.57062
3.55095
3.53037
3.50891
3.48661
3.46352
3.4397
3.41521
3.39009
3.3644
3.33818
3.31148
3.28433
3.2568
3.2289
3.20069
3.1722
3.14349
3.11462
3.08564
3.05663
3.02763
2.99874
2.97
2.94149
2.91329
2.88551
2.85819
2.83142
2.80438
2.77461
0.00463616
0.0116065
0.0292316
0.0397627
0.0456098
0.0490997
0.0511898
0.0523196
0.0527227
0.0525457
0.0518586
0.0507367
0.0492715
0.0475124
0.0455714
0.043661
0.0421141
0.0414301
0.0417615
0.0439643
0.0482895
0.0541047
0.0600686
0.0653433
0.070709
0.0779407
0.088467
0.102245
0.118445
0.136262
0.155144
0.174782
0.195012
0.215735
0.236877
0.258384
0.280234
0.302446
0.325072
0.348187
0.371866
0.396168
0.421146
0.446841
0.473287
0.500501
0.528494
0.557269
0.586822
0.617149
0.648246
0.680113
0.71275
0.746164
0.780367
0.815377
0.851214
0.887905
0.925482
0.963984
1.00345
1.04392
1.08542
1.12799
1.17165
1.21642
1.26231
1.30932
1.35745
1.40668
1.45698
1.50833
1.56065
1.61389
1.66796
1.72278
1.77827
1.83433
1.89086
1.94776
2.00492
2.06226
2.1197
2.17718
2.23461
2.29195
2.3491
2.40602
2.46265
2.51893
2.57482
2.63026
2.68519
2.73957
2.79335
2.84647
2.89889
2.95056
3.00145
3.0515
3.10065
3.14885
3.19605
3.24219
3.28724
3.33113
3.37384
3.4153
3.45548
3.49433
3.53181
3.56788
3.60251
3.63567
3.66733
3.69746
3.72604
3.75303
3.77842
3.80219
3.82433
3.84483
3.86367
3.88086
3.89639
3.91026
3.92246
3.933
3.94188
3.94912
3.95472
3.95872
3.96111
3.96191
3.96119
3.95892
3.95512
3.94984
3.94309
3.93491
3.92534
3.91441
3.90215
3.8886
3.87381
3.85781
3.84065
3.82235
3.80296
3.78251
3.76104
3.73859
3.7152
3.69093
3.66582
3.63994
3.61336
3.58612
3.55828
3.52987
3.50094
3.47154
3.44171
3.41149
3.38091
3.35005
3.31895
3.28768
3.2563
3.22486
3.19344
3.1621
3.13092
3.09997
3.06934
3.03914
3.00944
2.98032
2.95104
2.91938
0.00570826
0.0164301
0.0347183
0.0444501
0.0497016
0.0526717
0.0542422
0.0548503
0.0547865
0.054123
0.0530139
0.051552
0.0498255
0.0479852
0.0462419
0.0449346
0.0444019
0.0447111
0.0464826
0.0498469
0.0544464
0.0596218
0.0650629
0.0712612
0.0791803
0.0896694
0.102784
0.117977
0.134617
0.152237
0.170549
0.189391
0.208683
0.228376
0.248444
0.268876
0.289684
0.310906
0.332599
0.354837
0.377687
0.401217
0.425476
0.450504
0.476359
0.50307
0.530656
0.559127
0.588491
0.61875
0.649911
0.681978
0.714963
0.748878
0.783743
0.81958
0.856414
0.894265
0.933181
0.97321
1.0144
1.05682
1.10049
1.14545
1.19173
1.23934
1.28829
1.33857
1.39018
1.44307
1.49722
1.55258
1.60909
1.66663
1.72513
1.78446
1.84453
1.90524
1.96647
2.02809
2.09
2.15208
2.21426
2.27647
2.33863
2.40067
2.46249
2.52402
2.58521
2.64598
2.7063
2.7661
2.82532
2.88392
2.94184
2.99901
3.0554
3.11096
3.16563
3.21937
3.27211
3.32379
3.37436
3.42375
3.47192
3.51883
3.56442
3.60865
3.65146
3.69281
3.73266
3.77096
3.80769
3.84281
3.87629
3.90812
3.93825
3.96666
3.99334
4.01825
4.04141
4.06278
4.08238
4.10019
4.11621
4.13044
4.14288
4.15353
4.16241
4.16953
4.1749
4.17856
4.1805
4.18078
4.17943
4.17639
4.17173
4.16551
4.15773
4.14844
4.13767
4.12547
4.11186
4.0969
4.08063
4.06308
4.04431
4.02436
4.00326
3.98105
3.95777
3.93344
3.90813
3.88188
3.85478
3.82687
3.79823
3.76892
3.73896
3.70843
3.67733
3.64574
3.61367
3.58117
3.54831
3.51513
3.48171
3.44811
3.41438
3.38059
3.34681
3.31309
3.27952
3.24617
3.21314
3.18055
3.14846
3.11699
3.08546
3.05187
0.00621553
0.0204616
0.0392081
0.0484751
0.0531898
0.0555613
0.0565141
0.0565908
0.0559381
0.0547743
0.0532703
0.0515746
0.0498679
0.0483242
0.0472469
0.0468336
0.0470805
0.0484466
0.0510371
0.0547432
0.0593569
0.0648642
0.0715631
0.0799265
0.090349
0.10283
0.11701
0.132432
0.14872
0.165628
0.18301
0.200794
0.218946
0.237459
0.256336
0.275595
0.295269
0.315405
0.336064
0.357296
0.379208
0.401882
0.425396
0.449826
0.475148
0.501384
0.52856
0.556697
0.585816
0.615934
0.647066
0.679233
0.712455
0.746758
0.782172
0.818741
0.856524
0.895606
0.935951
0.977612
1.02067
1.06519
1.11123
1.15883
1.208
1.25877
1.31112
1.36504
1.42049
1.47744
1.53583
1.59559
1.65663
1.71883
1.78203
1.84613
1.91099
1.97652
2.04257
2.109
2.17571
2.24257
2.3095
2.37645
2.44332
2.51003
2.57648
2.64257
2.70823
2.77338
2.83797
2.90196
2.96529
3.02791
3.08975
3.15076
3.21087
3.27004
3.32822
3.38535
3.44137
3.49621
3.54981
3.6021
3.65305
3.70259
3.75069
3.7973
3.84235
3.88581
3.92762
3.96776
4.00618
4.04286
4.07777
4.11089
4.14218
4.17162
4.19919
4.22488
4.24867
4.27056
4.29054
4.30862
4.32479
4.33906
4.35142
4.36189
4.37047
4.37719
4.38206
4.38511
4.38637
4.3859
4.38369
4.37968
4.37399
4.36664
4.35768
4.34713
4.33504
4.32145
4.30639
4.28992
4.27209
4.25294
4.23251
4.21087
4.18804
4.16406
4.13898
4.11279
4.08556
4.05738
4.02833
3.99846
3.96783
3.93651
3.90453
3.87194
3.83878
3.80508
3.77087
3.7362
3.70114
3.66576
3.63012
3.5943
3.55835
3.52232
3.48628
3.45028
3.4144
3.37873
3.34339
3.30847
3.27406
3.24029
3.20653
3.17104
0.00642119
0.0239362
0.0432957
0.0521146
0.056208
0.0578944
0.058235
0.0575783
0.0562763
0.0546355
0.0529145
0.0512917
0.0499181
0.048999
0.048659
0.0488314
0.0499021
0.0519984
0.0551916
0.0595421
0.0651413
0.0721416
0.080729
0.0910048
0.102878
0.116082
0.13029
0.145229
0.160696
0.176574
0.192801
0.209355
0.22624
0.243471
0.261076
0.279087
0.297549
0.316523
0.336141
0.356552
0.377717
0.399669
0.422447
0.446063
0.470629
0.496203
0.522829
0.550545
0.579388
0.60939
0.640582
0.67299
0.706651
0.7416
0.777875
0.815516
0.854565
0.895062
0.937049
0.980613
1.02586
1.07288
1.12173
1.17244
1.22504
1.27953
1.33588
1.39405
1.45397
1.51557
1.57875
1.64341
1.70943
1.77663
1.84485
1.91393
1.98372
2.0541
2.12495
2.19615
2.26756
2.33909
2.41065
2.48219
2.55362
2.62483
2.6957
2.76613
2.83601
2.90524
2.97378
3.04161
3.10869
3.17495
3.24032
3.30473
3.36812
3.43045
3.49166
3.55169
3.61047
3.66794
3.72402
3.77867
3.83183
3.88345
3.93348
3.98188
4.02859
4.07357
4.11678
4.15817
4.19771
4.23538
4.27115
4.305
4.3369
4.36683
4.39477
4.42071
4.44464
4.46655
4.48645
4.50434
4.52022
4.5341
4.54597
4.55586
4.56377
4.56973
4.57376
4.5759
4.57618
4.57472
4.57134
4.56613
4.55918
4.55052
4.54019
4.52822
4.51466
4.49955
4.48293
4.46486
4.44539
4.42457
4.40245
4.37908
4.35451
4.32878
4.30193
4.27392
4.24484
4.21481
4.1839
4.15216
4.11965
4.08643
4.05253
4.01802
3.98292
3.94727
3.91105
3.87435
3.83724
3.79981
3.76213
3.72425
3.68623
3.64811
3.60996
3.57182
3.53378
3.49594
3.4584
3.42128
3.38466
3.34869
3.3128
3.27554
0.00644444
0.0274836
0.0471695
0.0554824
0.0588888
0.0598692
0.0593875
0.0578716
0.0559633
0.0540843
0.0524508
0.0511659
0.0503283
0.0500152
0.0501466
0.0511
0.0530274
0.0561009
0.0604776
0.066229
0.0734085
0.0820386
0.0920542
0.103307
0.115577
0.128623
0.142236
0.156255
0.170606
0.185258
0.200192
0.215424
0.23098
0.246897
0.263218
0.279987
0.297343
0.315412
0.334126
0.353483
0.373619
0.394621
0.416563
0.439534
0.463577
0.488749
0.515105
0.542699
0.571579
0.601794
0.633386
0.666403
0.700906
0.736951
0.774568
0.813803
0.854686
0.897192
0.941537
0.987823
1.03611
1.08645
1.13892
1.19362
1.25056
1.30969
1.37095
1.43425
1.49948
1.5665
1.63514
1.70523
1.77659
1.84905
1.92242
1.99651
2.07115
2.14616
2.2215
2.29715
2.37293
2.44876
2.52457
2.60032
2.67589
2.75115
2.82598
2.90024
2.97381
3.04658
3.11854
3.18969
3.25997
3.32928
3.39757
3.46476
3.53078
3.59557
3.6591
3.72129
3.7821
3.84144
3.89925
3.95547
4.01005
4.06295
4.11411
4.16351
4.21109
4.25681
4.30061
4.34247
4.38236
4.42026
4.45614
4.48999
4.52178
4.55149
4.57912
4.60464
4.62805
4.64936
4.66857
4.68568
4.70071
4.71365
4.72453
4.73334
4.7401
4.74486
4.74764
4.74847
4.74748
4.74458
4.73972
4.73302
4.72455
4.71433
4.7024
4.68881
4.6736
4.65681
4.6385
4.61871
4.59751
4.57493
4.55104
4.5259
4.49955
4.47205
4.44343
4.41368
4.38288
4.35113
4.31849
4.28503
4.25078
4.21581
4.18017
4.14389
4.10703
4.06961
4.03158
3.99305
3.95411
3.91485
3.87533
3.8356
3.79572
3.75573
3.71568
3.6756
3.63559
3.59577
3.55624
3.5171
3.47845
3.44044
3.40255
3.36371
0.00622081
0.0310682
0.050945
0.0586929
0.0613106
0.0615195
0.0599484
0.0576884
0.0555189
0.0537657
0.0524704
0.0516781
0.0513976
0.0516274
0.0526618
0.0547741
0.0580944
0.0627324
0.0687108
0.0760036
0.0845394
0.0941833
0.104761
0.116084
0.127969
0.140265
0.152865
0.165705
0.178764
0.192047
0.205601
0.21948
0.233729
0.248408
0.263581
0.279334
0.295686
0.312663
0.330398
0.348976
0.368465
0.388948
0.41051
0.433243
0.45721
0.482472
0.509108
0.537195
0.566804
0.597998
0.630829
0.665337
0.701518
0.739401
0.779141
0.82086
0.864728
0.91083
0.95908
1.00958
1.06243
1.11767
1.17533
1.23543
1.29799
1.36292
1.43013
1.49951
1.5709
1.64407
1.71877
1.79466
1.87146
1.94912
2.02752
2.10644
2.18565
2.26493
2.34445
2.42406
2.5036
2.58306
2.66244
2.74176
2.82078
2.89934
2.97728
3.05449
3.13087
3.20638
3.28099
3.35464
3.42723
3.49869
3.56893
3.63788
3.70546
3.77165
3.83639
3.89965
3.96134
4.02142
4.0798
4.13643
4.19126
4.24427
4.29541
4.34466
4.39197
4.43728
4.48058
4.52181
4.56097
4.59803
4.63299
4.66583
4.69654
4.72509
4.75147
4.77568
4.79772
4.8176
4.83532
4.8509
4.86436
4.87569
4.8849
4.89202
4.89707
4.90007
4.90109
4.90025
4.89749
4.89269
4.88602
4.87752
4.86723
4.85519
4.84144
4.82603
4.80899
4.79039