/*--------------------------------*- C++ -*----------------------------------*\
| =========                 |                                                 |
| \\      /  F ield         | OpenFOAM: The Open Source CFD Toolbox           |
|  \\    /   O peration     | Version:  2112                                  |
|   \\  /    A nd           | Website:  www.openfoam.com                      |
|    \\/     M anipulation  |                                                 |
\*---------------------------------------------------------------------------*/
FoamFile
{
    version     2.0;
    format      ascii;
    arch        "LSB;label=32;scalar=64";
    class       volScalarField;
    location    "0.26";
    object      k_0;
}
// * * * * * * * * * * * * * * * * * * * * * * * * * * * * * * * * * * * * * //

dimensions      [0 2 -2 0 0 0 0];

internalField   nonuniform List<scalar> 
12885
(
0.514635
1.17705
1.52625
1.63253
1.74598
1.99307
2.80059
3.78571
4.43512
4.78648
4.99747
5.2583
5.74774
7.09027
8.70135
9.95213
10.7733
11.2431
11.5194
11.8055
12.3585
13.5142
14.7947
15.976
16.9563
17.6848
18.1608
18.4431
18.6287
18.8085
19.0434
19.355
19.7289
20.1508
20.5698
21.0021
21.3608
21.7456
22.0954
21.8557
0.379585
0.409865
0.417987
0.414988
0.411834
0.416602
0.446749
0.54453
0.633866
0.677387
0.703676
0.745647
0.824218
0.986545
1.30285
1.62952
1.88331
2.04644
2.15321
2.24438
2.38039
2.66713
3.0754
3.5635
4.07027
4.53893
4.93341
5.23599
5.46242
5.65181
5.84099
6.0619
6.31752
6.62515
6.95497
7.33701
7.71612
8.159
8.61014
9.35879
0.376152
0.379315
0.378802
0.376661
0.372317
0.367562
0.364282
0.364283
0.364449
0.363711
0.359444
0.358874
0.36047
0.366489
0.380821
0.412894
0.443601
0.467894
0.483264
0.49817
0.513492
0.544274
0.587351
0.66448
0.759978
0.882943
1.00548
1.13272
1.23466
1.33569
1.4099
1.50366
1.57747
1.6954
1.79427
1.95801
2.09718
2.32027
2.5035
2.79229
0.375623
0.376401
0.376145
0.375324
0.373574
0.371496
0.369539
0.367831
0.366419
0.364228
0.361279
0.359055
0.357051
0.355011
0.354086
0.354311
0.354975
0.35517
0.355021
0.353346
0.352221
0.352349
0.353318
0.356326
0.36128
0.37193
0.383221
0.400233
0.413337
0.430546
0.441075
0.456735
0.466253
0.484202
0.496496
0.522209
0.54087
0.578718
0.607331
0.662058
0.375371
0.375759
0.375626
0.375226
0.374383
0.373354
0.372352
0.371448
0.370607
0.369398
0.367986
0.36663
0.365221
0.363815
0.362699
0.361702
0.36076
0.359803
0.358639
0.357041
0.355476
0.354135
0.352956
0.351955
0.351554
0.351637
0.351958
0.352855
0.353999
0.355475
0.356442
0.357597
0.358258
0.359392
0.360207
0.361843
0.363228
0.365777
0.368114
0.372988
0.375219
0.375487
0.375422
0.375199
0.374732
0.374155
0.373587
0.373063
0.372533
0.371843
0.371056
0.370256
0.369423
0.368607
0.367878
0.367161
0.366435
0.365687
0.364847
0.363888
0.362919
0.362009
0.361099
0.360278
0.359626
0.359108
0.358697
0.358428
0.358236
0.358089
0.357916
0.357737
0.357505
0.357275
0.357013
0.356805
0.356609
0.356478
0.356479
0.356559
0.375131
0.375324
0.375304
0.375177
0.374901
0.374553
0.374206
0.37387
0.373513
0.37308
0.372597
0.372098
0.371589
0.371087
0.370605
0.370113
0.369601
0.369067
0.368497
0.367896
0.367296
0.366723
0.366165
0.365643
0.365172
0.364753
0.364379
0.364055
0.363763
0.363495
0.363224
0.36295
0.362671
0.3624
0.362134
0.361884
0.361651
0.361435
0.361261
0.361077
0.37508
0.375214
0.375221
0.375151
0.374987
0.374771
0.374548
0.374322
0.374075
0.373788
0.373476
0.373155
0.372829
0.372503
0.372174
0.371831
0.371469
0.371091
0.370701
0.370306
0.369918
0.369546
0.369189
0.368849
0.368531
0.368233
0.367956
0.367699
0.367459
0.367233
0.367017
0.366811
0.366612
0.366426
0.36625
0.366086
0.365934
0.365797
0.365669
0.365532
0.375047
0.375136
0.375156
0.375121
0.375027
0.374893
0.374748
0.374594
0.374423
0.374231
0.374024
0.373814
0.3736
0.373382
0.373155
0.372913
0.372657
0.372392
0.372123
0.371856
0.371599
0.371352
0.371117
0.370892
0.370677
0.370471
0.370276
0.37009
0.369914
0.369748
0.369591
0.369444
0.369307
0.369181
0.36906
0.368944
0.368835
0.368735
0.368644
0.368555
0.375026
0.375079
0.375101
0.375087
0.375037
0.374956
0.374864
0.374761
0.374646
0.374518
0.374383
0.374245
0.374104
0.373958
0.373801
0.373633
0.373455
0.373271
0.373086
0.372906
0.372733
0.372568
0.372411
0.37226
0.372115
0.371976
0.371842
0.371712
0.371586
0.371466
0.371352
0.371245
0.371145
0.371053
0.37097
0.370895
0.370828
0.370769
0.37072
0.370679
0.37501
0.375036
0.375051
0.375047
0.375025
0.37498
0.374924
0.374859
0.374785
0.374704
0.374618
0.37453
0.374439
0.374343
0.374237
0.374123
0.374002
0.373878
0.373753
0.373632
0.373516
0.373406
0.373301
0.3732
0.373103
0.373009
0.372918
0.37283
0.372746
0.372666
0.37259
0.372521
0.372457
0.372401
0.372356
0.372323
0.372299
0.372284
0.372275
0.372271
0.374996
0.375
0.375005
0.375004
0.374995
0.374975
0.374945
0.374908
0.374865
0.374818
0.374769
0.374719
0.374666
0.374608
0.374542
0.374469
0.37439
0.374309
0.374228
0.374151
0.374078
0.374009
0.373944
0.373883
0.373823
0.373765
0.373709
0.373655
0.373605
0.37356
0.37352
0.373486
0.373459
0.373439
0.373427
0.373423
0.373425
0.373432
0.373444
0.373459
0.374982
0.374963
0.374956
0.374953
0.374949
0.374942
0.374933
0.37492
0.374904
0.374886
0.374868
0.374851
0.374832
0.37481
0.37478
0.374744
0.374703
0.374659
0.374617
0.374578
0.374543
0.374512
0.374485
0.37446
0.374437
0.374414
0.374393
0.374372
0.374354
0.374339
0.374328
0.374322
0.374322
0.374326
0.374335
0.37435
0.374368
0.37439
0.374415
0.374441
0.374968
0.374924
0.374898
0.374885
0.374881
0.374881
0.374883
0.374886
0.374892
0.374898
0.374906
0.374915
0.374924
0.374931
0.374934
0.374934
0.374932
0.374928
0.374924
0.374921
0.374921
0.374923
0.374928
0.374934
0.374942
0.374951
0.37496
0.37497
0.374982
0.374995
0.37501
0.375028
0.375049
0.375072
0.375098
0.375126
0.375155
0.375186
0.375218
0.375251
0.374957
0.374887
0.374838
0.374808
0.374794
0.374792
0.374797
0.374808
0.374824
0.374845
0.374868
0.374893
0.374919
0.374947
0.374974
0.375001
0.375028
0.375056
0.375083
0.375111
0.375139
0.375168
0.375198
0.375229
0.37526
0.375292
0.375324
0.375357
0.375391
0.375426
0.375461
0.375497
0.375533
0.37557
0.375608
0.375645
0.375682
0.375719
0.375755
0.375791
0.374947
0.374856
0.374784
0.374733
0.374703
0.37469
0.374692
0.374701
0.374719
0.374742
0.374769
0.3748
0.374834
0.37487
0.374909
0.374949
0.374991
0.375033
0.375077
0.375122
0.375166
0.375211
0.375256
0.375301
0.375346
0.375391
0.375436
0.375482
0.375527
0.375572
0.375617
0.375661
0.375705
0.375748
0.375791
0.375832
0.375873
0.375912
0.375951
0.375987
0.374941
0.374834
0.374746
0.374677
0.37463
0.374602
0.374594
0.374598
0.374611
0.374631
0.374657
0.374686
0.374719
0.374755
0.374794
0.374835
0.374878
0.374923
0.374969
0.375015
0.375063
0.37511
0.375158
0.375206
0.375253
0.3753
0.375347
0.375393
0.375439
0.375484
0.375528
0.375572
0.375614
0.375656
0.375696
0.375735
0.375774
0.37581
0.375846
0.37588
0.374939
0.374827
0.374732
0.374657
0.374601
0.374565
0.374548
0.374547
0.374555
0.374572
0.374593
0.374618
0.374647
0.374679
0.374713
0.374749
0.374786
0.374825
0.374865
0.374905
0.374946
0.374987
0.375028
0.375068
0.375108
0.375148
0.375187
0.375225
0.375262
0.375298
0.375334
0.375368
0.375402
0.375434
0.375465
0.375495
0.375523
0.375551
0.375578
0.375603
0.374942
0.374839
0.374752
0.374685
0.374637
0.374606
0.374591
0.37459
0.374596
0.374608
0.374624
0.374643
0.374665
0.374688
0.374713
0.374739
0.374765
0.374792
0.374819
0.374845
0.374872
0.374898
0.374923
0.374947
0.374971
0.374994
0.375015
0.375036
0.375055
0.375074
0.375091
0.375107
0.375123
0.375137
0.37515
0.375162
0.375174
0.375184
0.375194
0.375203
0.374947
0.374855
0.37478
0.374723
0.374682
0.374656
0.374641
0.374636
0.374637
0.37464
0.374647
0.374656
0.374666
0.374676
0.374687
0.374698
0.374708
0.374718
0.374727
0.374735
0.374743
0.374749
0.374755
0.37476
0.374764
0.374767
0.374768
0.374768
0.374767
0.374765
0.374762
0.374758
0.374754
0.374749
0.374744
0.374738
0.374732
0.374725
0.374718
0.37471
0.374955
0.374879
0.374819
0.374772
0.374737
0.37471
0.374689
0.374673
0.37466
0.374647
0.374635
0.374622
0.37461
0.374597
0.374583
0.374568
0.37455
0.374531
0.37451
0.374488
0.374466
0.374444
0.374421
0.374397
0.374373
0.374347
0.374321
0.374293
0.374265
0.374236
0.374207
0.374178
0.374149
0.37412
0.374092
0.374063
0.374035
0.374008
0.373981
0.373954
0.374966
0.374912
0.374867
0.374827
0.374788
0.37475
0.374712
0.374674
0.374635
0.374592
0.374547
0.3745
0.374453
0.374404
0.374353
0.374299
0.374242
0.374183
0.374122
0.37406
0.373997
0.373935
0.373873
0.373812
0.37375
0.373688
0.373625
0.373562
0.373498
0.373434
0.37337
0.373307
0.373245
0.373184
0.373124
0.373065
0.373008
0.372952
0.372898
0.372845
0.374981
0.374953
0.374922
0.374881
0.374826
0.374761
0.374689
0.374612
0.374529
0.374439
0.374342
0.374241
0.374138
0.374034
0.373928
0.37382
0.373708
0.373592
0.373473
0.373351
0.37323
0.37311
0.372993
0.372878
0.372765
0.372652
0.37254
0.372427
0.372315
0.372203
0.372091
0.371981
0.371872
0.371766
0.371661
0.37156
0.371461
0.371364
0.371271
0.371181
0.375003
0.375007
0.374987
0.374936
0.374846
0.374728
0.374595
0.374454
0.374304
0.37414
0.373962
0.373773
0.37358
0.373387
0.373195
0.373003
0.372806
0.372601
0.37239
0.372174
0.371956
0.371741
0.371532
0.37133
0.371134
0.370943
0.370756
0.370571
0.37039
0.37021
0.370031
0.369854
0.369678
0.369504
0.369331
0.369162
0.368995
0.368832
0.368674
0.36852
0.37503
0.375086
0.375069
0.374998
0.37485
0.374632
0.374382
0.374128
0.373871
0.37359
0.373276
0.372935
0.372579
0.372225
0.371879
0.371541
0.371202
0.370856
0.370496
0.370118
0.369728
0.369337
0.368956
0.368593
0.368249
0.367925
0.367621
0.367333
0.367059
0.366795
0.366534
0.366271
0.366002
0.365726
0.365447
0.365164
0.36488
0.3646
0.364326
0.364064
0.375072
0.375221
0.375205
0.375097
0.374849
0.37442
0.373911
0.373429
0.37298
0.372487
0.371912
0.371272
0.370588
0.369905
0.369252
0.368625
0.36801
0.367388
0.366758
0.366081
0.365347
0.364588
0.363856
0.363162
0.362509
0.361931
0.361437
0.361009
0.360636
0.360324
0.360038
0.359738
0.359398
0.359015
0.358593
0.358135
0.357643
0.357142
0.356656
0.356198
0.375158
0.375524
0.375551
0.375361
0.374886
0.373932
0.372719
0.371681
0.370863
0.369955
0.368767
0.367429
0.365976
0.364534
0.363266
0.362087
0.361042
0.360173
0.359228
0.358042
0.35661
0.355126
0.353809
0.352641
0.351577
0.351016
0.350998
0.351166
0.351557
0.352404
0.353295
0.353919
0.354222
0.354264
0.35418
0.353893
0.353428
0.352955
0.352804
0.352776
0.375478
0.376655
0.377344
0.376874
0.375632
0.373128
0.369719
0.367281
0.366507
0.365807
0.363842
0.361164
0.358409
0.355773
0.354867
0.355277
0.356993
0.361566
0.364937
0.365923
0.365487
0.365254
0.365685
0.367374
0.371206
0.379794
0.393407
0.409184
0.428654
0.449734
0.471058
0.487621
0.500673
0.50903
0.516553
0.522397
0.530991
0.540497
0.554806
0.570796
0.378165
0.386883
0.402619
0.405509
0.403313
0.398565
0.399425
0.40824
0.444723
0.483964
0.501253
0.507666
0.516352
0.534823
0.570878
0.648229
0.777505
0.905056
1.00447
1.06125
1.08323
1.09979
1.13164
1.1838
1.29789
1.47468
1.67465
1.87889
2.07899
2.2649
2.41702
2.52104
2.58432
2.62196
2.65899
2.71205
2.79659
2.91064
3.05708
3.22051
0.473345
0.781207
1.2668
1.5456
1.63926
1.70161
1.82052
2.19729
2.85836
3.36034
3.66939
3.83847
3.95321
4.10219
4.37849
5.13555
6.0372
6.80159
7.36931
7.74765
7.98307
8.14158
8.30267
8.56821
9.22384
10.0808
10.9561
11.7587
12.4377
12.9873
13.4047
13.6907
13.8759
14.0163
14.172
14.3856
14.6746
15.0373
15.4551
15.911
0.0413567
0.0413714
0.0414038
0.0414558
0.0415296
0.0416277
0.0417519
0.041904
0.042085
0.0422944
0.0425357
0.0428192
0.0431491
0.0435265
0.043954
0.0444352
0.0449737
0.0455736
0.046239
0.0469745
0.0477844
0.0486732
0.0496451
0.050704
0.0518528
0.0530932
0.0544221
0.0558243
0.0572846
0.0588429
0.060566
0.0624847
0.064643
0.0670909
0.0698789
0.0730477
0.0766004
0.0805186
0.0848651
0.0897242
0.0951699
0.10137
0.108589
0.117201
0.127705
0.141881
0.161178
0.185135
0.214498
0.249918
0.291853
0.340499
0.395849
0.457675
0.525557
0.598919
0.677133
0.759524
0.845412
0.934133
1.02505
1.11756
1.2111
1.30514
1.3992
1.49284
1.58563
1.6772
1.76723
1.8554
1.94144
2.02511
2.10619
2.18451
2.25988
2.33218
2.40126
2.46703
2.52938
2.58824
2.64354
2.69523
2.74326
2.7876
2.82824
2.86517
2.89839
2.92792
2.95376
2.97596
2.99454
3.00956
3.02115
3.02893
3.03279
3.03413
3.03275
3.0275
3.01991
3.00915
2.99607
2.98032
2.96239
2.94223
2.92014
2.89621
2.87068
2.84367
2.81542
2.78608
2.75587
2.72499
2.69363
2.66202
2.63039
2.59895
2.56796
2.53768
2.50858
2.48058
2.45379
2.42938
2.40697
2.38734
2.3707
2.35754
2.34863
2.3448
2.34437
2.35045
2.36213
2.38008
2.40421
2.43428
2.46953
2.5087
2.54999
2.59122
2.63014
2.66486
2.6942
2.71763
2.73515
2.74698
2.75313
2.75397
2.74958
2.74078
2.72897
2.71851
2.71633
2.72979
2.74493
2.75709
2.76351
2.76322
2.75563
2.74038
2.71756
2.68725
2.64977
2.60565
2.55563
2.50066
2.44185
2.38041
2.31756
2.25449
2.1923
2.1319
2.07407
2.0193
1.96802
1.92031
1.87608
1.83521
1.79753
1.75666
1.73209
1.65649
0.0414025
0.0414157
0.0414458
0.0414948
0.0415648
0.0416581
0.0417766
0.0419223
0.0420968
0.0423018
0.0425407
0.042819
0.0431407
0.0435088
0.0439266
0.0443979
0.0449266
0.0455171
0.046174
0.046902
0.047706
0.0485906
0.0495604
0.0506196
0.0517714
0.0530175
0.0543563
0.0557797
0.0572822
0.0588923
0.0606593
0.0626171
0.0648049
0.0672656
0.0700414
0.0731639
0.0766378
0.0804509
0.0846327
0.0892398
0.0943358
0.100052
0.106596
0.114263
0.123432
0.135535
0.151569
0.170884
0.193817
0.220586
0.25125
0.285673
0.323628
0.36479
0.408774
0.455138
0.503472
0.553374
0.604471
0.65642
0.708908
0.76165
0.814386
0.866882
0.918926
0.970326
1.02091
1.07053
1.11904
1.16632
1.21227
1.25681
1.29984
1.3413
1.38113
1.41928
1.45572
1.49039
1.52329
1.55437
1.58363
1.61106
1.63664
1.66039
1.6823
1.70239
1.72068
1.73717
1.7519
1.7649
1.77618
1.78579
1.79377
1.79999
1.8045
1.80809
1.81031
1.81084
1.81054
1.80878
1.80614
1.8024
1.79786
1.79246
1.78641
1.77973
1.77257
1.76501
1.75717
1.74917
1.74112
1.73315
1.72539
1.71798
1.71108
1.70484
1.69944
1.69504
1.69213
1.69071
1.69057
1.69295
1.69758
1.70511
1.71585
1.73038
1.74939
1.77351
1.80232
1.83801
1.88031
1.93003
1.98735
2.05222
2.124
2.20133
2.28201
2.36312
2.44123
2.51302
2.57584
2.62811
2.66932
2.69982
2.72033
2.73196
2.73574
2.73318
2.72614
2.71862
2.71739
2.72884
2.74087
2.74919
2.75134
2.74628
2.73324
2.71185
2.6821
2.64405
2.59803
2.54463
2.48467
2.41924
2.34955
2.27695
2.20279
2.12836
2.05485
1.98324
1.91432
1.84872
1.7867
1.72879
1.6741
1.62461
1.57605
1.53231
1.49382
1.43419
0.0415156
0.0415258
0.0415527
0.041598
0.0416639
0.0417524
0.0418657
0.0420059
0.042175
0.0423755
0.0426107
0.0428843
0.0432005
0.0435627
0.0439748
0.0444406
0.0449644
0.0455508
0.0462045
0.0469307
0.0477342
0.0486201
0.0495935
0.0506586
0.0518194
0.0530782
0.0544356
0.0558893
0.0574415
0.0591139
0.0609427
0.0629606
0.0652028
0.0677065
0.0705071
0.0736311
0.0770857
0.0808679
0.0849996
0.0895259
0.094509
0.100066
0.106379
0.113705
0.122366
0.133635
0.148273
0.165505
0.185456
0.208134
0.233433
0.261098
0.29085
0.322388
0.355419
0.38962
0.424723
0.460486
0.496694
0.533159
0.569712
0.606204
0.642502
0.678485
0.714047
0.749092
0.783534
0.8173
0.850322
0.882544
0.913916
0.944395
0.973945
1.00254
1.03014
1.05674
1.08232
1.10686
1.13035
1.15279
1.17416
1.19447
1.21373
1.23193
1.24909
1.26522
1.28032
1.29442
1.30754
1.31968
1.33087
1.34115
1.3505
1.35891
1.36645
1.37349
1.37974
1.38514
1.39011
1.3943
1.39807
1.40126
1.40407
1.40646
1.40855
1.41036
1.41198
1.41346
1.41487
1.41628
1.41778
1.41945
1.42137
1.42365
1.42641
1.42975
1.43383
1.4388
1.44496
1.45235
1.46102
1.47176
1.4845
1.4998
1.518
1.53967
1.56544
1.5959
1.63121
1.67305
1.72158
1.7777
1.84188
1.91432
1.99469
2.08187
2.17384
2.26757
2.35931
2.44511
2.5215
2.58612
2.63797
2.67719
2.70461
2.72162
2.72957
2.73031
2.726
2.72058
2.7202
2.72988
2.73991
2.74607
2.74594
2.7384
2.72259
2.69815
2.665
2.62323
2.5732
2.51553
2.45114
2.38118
2.30697
2.22992
2.15146
2.07294
1.99558
1.92038
1.84813
1.77948
1.7146
1.65415
1.59698
1.54558
1.49461
1.45105
1.4088
1.35458
0.0417218
0.0417272
0.0417496
0.0417905
0.0418519
0.0419358
0.0420443
0.0421797
0.0423443
0.0425408
0.0427723
0.0430425
0.043355
0.0437138
0.0441229
0.0445864
0.0451089
0.0456954
0.0463507
0.0470804
0.0478897
0.0487841
0.0497691
0.0508498
0.0520308
0.0533159
0.054708
0.0562096
0.0578273
0.0595789
0.0614928
0.0635989
0.0659291
0.0685166
0.0713928
0.0745818
0.0780954
0.0819399
0.0861395
0.0907392
0.0958063
0.101457
0.107872
0.115287
0.123992
0.135199
0.149519
0.166052
0.184755
0.205483
0.228078
0.252237
0.277683
0.304174
0.331524
0.359507
0.387957
0.416737
0.445728
0.474828
0.503946
0.533002
0.561923
0.590643
0.619102
0.647246
0.675027
0.702401
0.72933
0.75578
0.781722
0.807129
0.831979
0.856254
0.879938
0.903017
0.925482
0.947321
0.968523
0.989085
1.009
1.02827
1.04688
1.06486
1.08218
1.09887
1.11492
1.13034
1.14513
1.15932
1.1729
1.1859
1.1983
1.21013
1.22145
1.23237
1.24273
1.25255
1.26201
1.27094
1.27954
1.28771
1.29557
1.30308
1.31033
1.31733
1.32412
1.33074
1.33724
1.34367
1.35008
1.35652
1.36308
1.36981
1.37682
1.38418
1.39203
1.4005
1.40979
1.41996
1.43118
1.44394
1.45832
1.47478
1.49364
1.51544
1.54072
1.57006
1.6039
1.64352
1.68939
1.74242
1.80329
1.87245
1.9499
2.03497
2.12603
2.22047
2.31476
2.40485
2.48686
2.55781
2.616
2.66108
2.69362
2.71493
2.72645
2.73017
2.72842
2.725
2.72535
2.73337
2.74143
2.7455
2.74327
2.73351
2.71536
2.68846
2.65275
2.60835
2.55567
2.49544
2.42866
2.35655
2.28051
2.20201
2.12252
2.04339
1.9658
1.89076
1.81899
1.75107
1.68714
1.62779
1.57185
1.52168
1.47208
1.43038
1.3885
1.3381
0.042054
0.0420528
0.0420698
0.0421058
0.0421626
0.0422421
0.0423464
0.0424778
0.042639
0.0428327
0.043062
0.0433306
0.0436421
0.0440007
0.0444106
0.0448763
0.0454027
0.045995
0.0466587
0.0473994
0.0482232
0.0491362
0.0501444
0.0512539
0.0524706
0.0537999
0.0552474
0.0568193
0.058525
0.0603811
0.0624113
0.0646432
0.0671067
0.0698329
0.0728517
0.0761885
0.0798616
0.0838898
0.0883067
0.0931667
0.0985504
0.104583
0.111443
0.119356
0.128582
0.140316
0.155026
0.17163
0.190039
0.210101
0.231623
0.254306
0.277905
0.302064
0.326844
0.35211
0.377761
0.403724
0.429929
0.456318
0.482831
0.509417
0.536022
0.562599
0.589101
0.615486
0.641713
0.667745
0.693548
0.719092
0.744347
0.769289
0.793895
0.818145
0.84202
0.865505
0.888587
0.911257
0.933492
0.955284
0.976623
0.997502
1.01791
1.03785
1.05731
1.07628
1.09477
1.11277
1.13029
1.14731
1.16385
1.1799
1.19547
1.21057
1.22521
1.23944
1.25317
1.26643
1.27928
1.29165
1.30364
1.31519
1.32637
1.33717
1.34763
1.35775
1.36757
1.37712
1.38643
1.39553
1.40446
1.41327
1.42202
1.43075
1.43954
1.44848
1.45765
1.46717
1.4772
1.48781
1.49919
1.51168
1.5254
1.54072
1.55798
1.5776
1.60008
1.62595
1.65574
1.69044
1.73065
1.77727
1.83103
1.89255
1.96211
2.03941
2.12336
2.21189
2.30196
2.38981
2.47156
2.54392
2.60466
2.65286
2.68866
2.71307
2.72746
2.73375
2.73433
2.73275
2.7337
2.74015
2.74628
2.74839
2.74426
2.7326
2.71261
2.68393
2.64654
2.60061
2.54666
2.48548
2.41815
2.34596
2.27034
2.19277
2.1147
2.03743
1.96209
1.88959
1.82058
1.75556
1.69459
1.63815
1.58519
1.53762
1.49096
1.45172
1.41186
1.36486
0.042548
0.0425422
0.0425547
0.0425864
0.0426391
0.0427148
0.0428159
0.0429447
0.043104
0.0432968
0.0435264
0.0437964
0.0441107
0.0444736
0.0448896
0.0453636
0.045901
0.0465073
0.0471885
0.0479509
0.0488013
0.0497464
0.0507934
0.0519497
0.0532225
0.0546196
0.0561491
0.0578203
0.0596452
0.0616407
0.063829
0.0662365
0.0688926
0.0718285
0.0750757
0.0786639
0.082621
0.0869799
0.0917891
0.0971179
0.103063
0.109762
0.117392
0.126165
0.1363
0.149015
0.164656
0.181956
0.200761
0.220867
0.242033
0.264128
0.287031
0.310745
0.335152
0.360134
0.385599
0.411494
0.437761
0.464348
0.4912
0.518264
0.545489
0.572823
0.600219
0.627629
0.65501
0.682321
0.709524
0.736583
0.763465
0.79014
0.816579
0.842759
0.868655
0.894247
0.919518
0.94446
0.969041
0.993247
1.01706
1.04047
1.06347
1.08604
1.10817
1.12985
1.15108
1.17184
1.19213
1.21195
1.23128
1.25013
1.26846
1.28631
1.30367
1.32056
1.33692
1.35278
1.36817
1.38303
1.39742
1.41132
1.42476
1.43774
1.45027
1.46237
1.47407
1.48537
1.49632
1.50693
1.51724
1.52728
1.5371
1.54674
1.55628
1.56576
1.57528
1.58494
1.59484
1.60509
1.61585
1.62736
1.63978
1.6534
1.66852
1.6855
1.70478
1.72682
1.75215
1.78155
1.81564
1.85522
1.90104
1.95377
2.01383
2.0812
2.15524
2.23442
2.31632
2.39772
2.47507
2.54506
2.60517
2.65402
2.69127
2.71754
2.73399
2.74235
2.74493
2.74494
2.74632
2.75131
2.7556
2.75589
2.75011
2.73692
2.7156
2.68584
2.64765
2.60129
2.54733
2.48665
2.42036
2.34979
2.27635
2.20148
2.12655
2.05279
1.9812
1.91261
1.84755
1.78643
1.72928
1.67643
1.62698
1.5824
1.53904
1.50226
1.46479
1.42112
0.0432586
0.0432507
0.0432603
0.0432885
0.0433378
0.0434107
0.0435098
0.0436378
0.0437975
0.0439923
0.0442257
0.0445014
0.0448238
0.0451972
0.0456267
0.0461176
0.0466756
0.0473069
0.0480182
0.0488165
0.0497095
0.0507051
0.0518118
0.0530384
0.0543942
0.0558894
0.0575348
0.0593428
0.0613285
0.0635102
0.0659108
0.0685577
0.0714816
0.0747161
0.0782968
0.0822607
0.0866472
0.0915047
0.0968977
0.102911
0.109656
0.117273
0.125931
0.135811
0.147089
0.161013
0.177834
0.196127
0.215749
0.236548
0.258393
0.281219
0.30497
0.329612
0.355013
0.381134
0.407936
0.435352
0.463312
0.491746
0.520581
0.54975
0.579186
0.608824
0.638605
0.668471
0.69837
0.728252
0.75807
0.787783
0.817351
0.846737
0.875909
0.904835
0.933487
0.96184
0.98987
1.01755
1.04486
1.0718
1.09834
1.12447
1.15016
1.17542
1.20021
1.22454
1.24838
1.27173
1.29457
1.3169
1.33871
1.35999
1.38072
1.40091
1.42057
1.43967
1.45819
1.47616
1.49355
1.51037
1.52663
1.54232
1.55746
1.57204
1.58609
1.59961
1.61262
1.62513
1.63718
1.64877
1.65995
1.67073
1.68115
1.69127
1.70112
1.71078
1.7203
1.72976
1.73928
1.74893
1.75887
1.76927
1.78029
1.79218
1.80519
1.81964
1.83588
1.85432
1.87544
1.89988
1.9282
1.9611
1.99928
2.04337
2.09386
2.15091
2.21418
2.28263
2.35441
2.42694
2.49716
2.562
2.61893
2.66624
2.70322
2.73008
2.74769
2.75752
2.76168
2.76296
2.76457
2.76819
2.77075
2.76939
2.7622
2.74787
2.72577
2.69562
2.65747
2.61166
2.55883
2.49987
2.43593
2.36828
2.2983
2.22733
2.15663
2.08731
2.02025
1.95616
1.89549
1.83856
1.78536
1.73611
1.69009
1.64836
1.60809
1.57349
1.53828
1.49775
0.0442802
0.044262
0.0442645
0.0442871
0.0443324
0.0444028
0.0445012
0.0446304
0.0447938
0.0449946
0.0452368
0.0455245
0.0458622
0.0462548
0.0467078
0.0472269
0.0478185
0.0484897
0.0492478
0.0501009
0.0510579
0.052128
0.0533213
0.0546488
0.056122
0.0577537
0.0595581
0.0615509
0.0637504
0.0661783
0.0688599
0.0718253
0.0751084
0.0787474
0.0827839
0.0872636
0.092238
0.097769
0.103934
0.11083
0.11857
0.127287
0.137127
0.148236
0.160744
0.17597
0.194111
0.213651
0.234514
0.25663
0.279949
0.304441
0.330058
0.356739
0.38438
0.412917
0.442269
0.472344
0.503051
0.5343
0.566006
0.59809
0.630474
0.663088
0.695865
0.728744
0.761667
0.794578
0.827429
0.860172
0.892764
0.925167
0.957342
0.989255
1.02088
1.05217
1.08312
1.1137
1.14388
1.17365
1.20299
1.23188
1.2603
1.28823
1.31566
1.34258
1.36896
1.39479
1.42007
1.44478
1.46891
1.49245
1.51539
1.53772
1.55945
1.58055
1.60101
1.62082
1.64
1.65852
1.67639
1.69362
1.71019
1.72613
1.74144
1.75612
1.7702
1.78368
1.79659
1.80895
1.82077
1.83209
1.84294
1.85335
1.86337
1.87305
1.88244
1.89163
1.90068
1.90969
1.91878
1.9281
1.93778
1.94804
1.95909
1.97119
1.98465
1.99982
2.01712
2.03705
2.06011
2.08691
2.11806
2.15413
2.19559
2.24271
2.29533
2.35279
2.41375
2.47622
2.5377
2.59553
2.64732
2.69129
2.72646
2.75268
2.7705
2.78113
2.78635
2.78849
2.79009
2.79242
2.79334
2.79052
2.78216
2.76707
2.7447
2.71479
2.67744
2.63305
2.58227
2.526
2.46535
2.40154
2.33584
2.26947
2.20356
2.13907
2.07679
2.0173
1.96098
1.90808
1.85859
1.81264
1.76968
1.73045
1.69282
1.66005
1.62682
1.58903
0.0457004
0.0456649
0.0456569
0.045672
0.0457125
0.0457812
0.0458808
0.0460146
0.046186
0.0463987
0.0466569
0.0469651
0.0473282
0.0477517
0.0482415
0.0488042
0.0494469
0.0501774
0.0510043
0.0519368
0.0529853
0.0541608
0.0554753
0.0569422
0.0585758
0.060392
0.0624087
0.0646454
0.0671246
0.069872
0.0729172
0.0762941
0.0800415
0.0842029
0.0888266
0.0939661
0.0996821
0.106045
0.113138
0.121057
0.129907
0.139804
0.150867
0.163214
0.176963
0.193562
0.213208
0.234343
0.256962
0.28105
0.30658
0.333505
0.36175
0.391216
0.421787
0.453359
0.485822
0.519062
0.552972
0.587452
0.62241
0.657758
0.693416
0.72931
0.765371
0.801532
0.837732
0.873915
0.910027
0.946017
0.981839
1.01745
1.05281
1.08788
1.12262
1.15701
1.19101
1.2246
1.25776
1.29045
1.32267
1.35439
1.38559
1.41625
1.44636
1.47588
1.50482
1.53314
1.56085
1.58792
1.61434
1.64011
1.66521
1.68963
1.71337
1.7364
1.75872
1.78033
1.8012
1.82134
1.84075
1.85942
1.87735
1.89455
1.91103
1.92679
1.94184
1.95621
1.9699
1.98293
1.99532
2.00711
2.0183
2.02895
2.03908
2.04873
2.05797
2.06685
2.07543
2.08381
2.09208
2.10035
2.10876
2.11748
2.1267
2.13663
2.14753
2.1597
2.17349
2.18931
2.2076
2.22886
2.2536
2.28232
2.31548
2.35333
2.39588
2.44271
2.49289
2.54494
2.5969
2.64659
2.6919
2.73112
2.76315
2.78759
2.80469
2.81536
2.82105
2.82357
2.82488
2.82592
2.8253
2.82115
2.81185
2.79635
2.77412
2.74498
2.70905
2.66674
2.61869
2.56579
2.50906
2.44962
2.38862
2.32713
2.26616
2.20653
2.14892
2.09381
2.04154
1.99229
1.94608
1.90299
1.86261
1.82547
1.78999
1.75866
1.7271
1.69172
0.0476101
0.0475564
0.0475379
0.047546
0.0475835
0.0476532
0.0477583
0.0479021
0.0480886
0.0483219
0.0486064
0.0489471
0.0493497
0.04982
0.0503647
0.0509913
0.0517077
0.0525229
0.0534467
0.05449
0.0556648
0.0569841
0.0584626
0.0601161
0.0619623
0.0640209
0.0663134
0.068864
0.0716997
0.0748509
0.078352
0.0822417
0.0865631
0.0913645
0.0966984
0.102623
0.109201
0.116503
0.124608
0.133602
0.143577
0.154634
0.166884
0.180452
0.195495
0.213624
0.235097
0.258291
0.283219
0.309864
0.338167
0.368038
0.399361
0.432001
0.465823
0.500698
0.536495
0.573094
0.610382
0.648255
0.686617
0.725381
0.764466
0.803794
0.843296
0.882903
0.92255
0.962177
1.00173
1.04114
1.08037
1.11938
1.1581
1.19651
1.23456
1.27221
1.30944
1.34621
1.3825
1.41827
1.45352
1.48821
1.52233
1.55585
1.58875
1.621
1.6526
1.68352
1.71375
1.74327
1.77207
1.80014
1.82746
1.85403
1.87984
1.90486
1.92908
1.95251
1.97511
1.9969
2.01786
2.03799
2.05729
2.07576
2.09341
2.11024
2.12627
2.14151
2.15597
2.16967
2.18263
2.19486
2.20639
2.21726
2.22748
2.23711
2.24618
2.25475
2.26287
2.27062
2.27808
2.28535
2.29254
2.29979
2.30726
2.31513
2.32363
2.33299
2.34352
2.35555
2.36944
2.38561
2.40448
2.4265
2.45205
2.4814
2.51462
2.55146
2.59132
2.63311
2.67538
2.7164
2.7544
2.78787
2.81569
2.83733
2.85281
2.86274
2.86821
2.87057
2.87125
2.87096
2.86884
2.86344
2.85336
2.83768
2.81592
2.78793
2.75383
2.71403
2.66915
2.61998
2.56746
2.51259
2.45637
2.39974
2.34355
2.28854
2.23525
2.18413
2.13545
2.08939
2.04596
2.00525
1.96696
1.93149
1.8977
1.86746
1.83722
1.80382
0.0501216
0.0500517
0.0500246
0.050029
0.050068
0.0501448
0.050263
0.0504265
0.0506393
0.0509062
0.0512321
0.0516226
0.0520838
0.0526225
0.0532461
0.0539629
0.0547822
0.0557141
0.0567701
0.0579627
0.059306
0.0608154
0.0625083
0.0644038
0.066523
0.0688894
0.0715289
0.07447
0.0777443
0.0813867
0.0854356
0.089933
0.0949246
0.10046
0.10659
0.113372
0.120864
0.129128
0.138234
0.148262
0.159301
0.171462
0.184885
0.199753
0.216272
0.236202
0.259934
0.285648
0.313331
0.342915
0.374295
0.407339
0.441898
0.477822
0.514963
0.553184
0.592352
0.632346
0.673056
0.714377
0.756216
0.798486
0.841106
0.883999
0.927091
0.97031
1.01359
1.05686
1.10006
1.14312
1.186
1.22863
1.27097
1.31296
1.35457
1.39574
1.43645
1.47665
1.51632
1.55542
1.59393
1.63183
1.6691
1.7057
1.74161
1.77681
1.81128
1.84499
1.87793
1.91008
1.94144
1.97197
2.00168
2.03055
2.05856
2.0857
2.11196
2.13732
2.16177
2.18531
2.20792
2.2296
2.25034
2.27016
2.28904
2.30701
2.32406
2.34022
2.35548
2.36988
2.38341
2.39611
2.408
2.41909
2.42942
2.43902
2.44793
2.45619
2.46386
2.47098
2.47765
2.48392
2.4899
2.49572
2.50149
2.50737
2.51355
2.52024
2.52767
2.53613
2.54591
2.55736
2.57083
2.5867
2.60529
2.62686
2.65152
2.67916
2.70937
2.7414
2.7742
2.80646
2.83677
2.86384
2.88667
2.90465
2.91766
2.92606
2.93058
2.93218
2.93181
2.93006
2.92639
2.91973
2.90893
2.89318
2.87205
2.84538
2.81332
2.77622
2.73464
2.68929
2.64099
2.59059
2.53896
2.48691
2.43516
2.38432
2.3349
2.28727
2.24168
2.19829
2.15715
2.11834
2.08168
2.04746
2.01492
1.98545
1.95618
1.92424
0.0533569
0.0532761
0.0532452
0.0532533
0.0533035
0.0533994
0.0535447
0.0537436
0.0540007
0.0543211
0.0547104
0.0551746
0.0557206
0.056356
0.0570892
0.0579296
0.0588877
0.0599751
0.0612049
0.0625916
0.0641517
0.0659031
0.0678662
0.0700632
0.0725189
0.0752604
0.0783173
0.081722
0.0855093
0.0897166
0.094384
0.0995533
0.105268
0.111575
0.118518
0.126146
0.134511
0.14367
0.153694
0.164674
0.176728
0.190012
0.204737
0.221118
0.239344
0.261431
0.287791
0.316329
0.346978
0.379622
0.414118
0.450315
0.488055
0.527187
0.567569
0.609066
0.651554
0.694917
0.73905
0.783854
0.829237
0.875113
0.921401
0.968022
1.0149
1.06195
1.10911
1.1563
1.20343
1.25046
1.29729
1.34389
1.39018
1.43611
1.48163
1.52668
1.57122
1.61521
1.65861
1.70138
1.74351
1.78495
1.8257
1.8657
1.90495
1.94341
1.98105
2.01784
2.05378
2.08884
2.12301
2.15626
2.18859
2.21999
2.25043
2.2799
2.30839
2.33588
2.36235
2.3878
2.41222
2.43559
2.45791
2.47919
2.49942
2.51862
2.53678
2.55392
2.57006
2.5852
2.59937
2.61257
2.62484
2.63618
2.64663
2.65621
2.66496
2.67291
2.68011
2.6866
2.69246
2.69773
2.70251
2.70688
2.71097
2.7149
2.71882
2.72291
2.72736
2.7324
2.7383
2.74532
2.75377
2.76395
2.77617
2.79064
2.8075
2.82673
2.84807
2.87102
2.89484
2.91857
2.94114
2.9615
2.97879
2.99243
3.00221
3.00829
3.01112
3.01128
3.00942
3.00593
3.00057
2.99254
2.98094
2.96505
2.9445
2.91914
2.88907
2.85459
2.81619
2.77447
2.73011
2.68386
2.63642
2.58848
2.54066
2.49349
2.44738
2.40269
2.35965
2.31842
2.27908
2.24172
2.20625
2.17292
2.14122
2.11219
2.08353
2.05249
0.0573701
0.0573162
0.0573083
0.0573461
0.0574333
0.0575741
0.0577728
0.0580341
0.0583634
0.0587663
0.0592493
0.0598191
0.0604834
0.0612508
0.0621306
0.0631335
0.0642712
0.0655569
0.0670054
0.0686334