/*--------------------------------*- C++ -*----------------------------------*\
| =========                 |                                                 |
| \\      /  F ield         | OpenFOAM: The Open Source CFD Toolbox           |
|  \\    /   O peration     | Version:  2112                                  |
|   \\  /    A nd           | Website:  www.openfoam.com                      |
|    \\/     M anipulation  |                                                 |
\*---------------------------------------------------------------------------*/
FoamFile
{
    version     2.0;
    format      ascii;
    arch        "LSB;label=32;scalar=64";
    class       volScalarField;
    location    "0.26";
    object      omega_0;
}
// * * * * * * * * * * * * * * * * * * * * * * * * * * * * * * * * * * * * * //

dimensions      [0 0 -1 0 0 0 0];

internalField   nonuniform List<scalar> 
12225
(
37527.3
40233
41980.6
42972.3
43468.5
43638.7
43610.4
43518.2
43340
43118.9
42906.4
42667.3
42472.4
42239
42082.3
41860
41751
41517.9
2590.08
6031.23
8563
10431.6
11778.2
12738.2
13397.2
13863.8
14196.8
14420
14586.1
14695.4
14771.7
14833.8
14847.9
14906.6
14896.7
14996
353.385
924.347
1440.39
1915.56
2329.46
2709.33
3023.77
3316.55
3546.44
3769.69
3938.11
4108.38
4231.62
4364.42
4436.33
4574.42
4630.79
4693.96
119.902
272.414
420.06
564.629
695.922
825.401
937.636
1051.68
1143.81
1241.86
1317.65
1401.33
1461.1
1535.63
1582.03
1641.32
1676.45
1752.95
66.3213
127.375
187.029
246.627
301.71
356.71
405.839
456.214
498.638
543.802
580.544
620.419
651.381
688.858
712.03
741.752
770.053
802.437
48.333
78.7061
108.551
138.593
166.768
194.752
220.399
246.264
269.027
292.578
312.743
333.956
351.663
371.465
384.733
403.066
418.921
434.758
42.5788
57.9502
74.9526
92.0909
108.402
124.496
139.548
154.457
168.048
181.698
193.907
206.355
217.25
228.681
237.422
248.954
257.016
267.434
40.7425
48.2817
58.4274
68.879
79.0344
89.0486
98.5677
107.892
116.601
125.171
133.082
140.94
148.057
155.233
161.339
168.489
173.522
180.417
40.0942
43.6631
49.6563
56.2009
62.7634
69.291
75.5933
81.7471
87.5932
93.2868
98.6507
103.889
108.754
113.548
117.88
122.49
126.076
130.686
39.8297
41.4791
44.8361
48.928
53.2131
57.5591
61.8326
66.0248
70.0624
73.9858
77.7316
81.3613
84.7919
88.1296
91.2402
94.3743
97.0319
100.205
39.7089
40.4588
42.1972
44.6864
47.4494
50.3421
53.2555
56.1487
58.9747
61.7323
64.3929
66.9696
69.4342
71.8192
74.08
76.2986
78.2881
80.5305
39.6565
40.0161
40.9223
42.4411
44.2492
46.2195
48.2605
50.3234
52.3691
54.3826
56.3442
58.2517
60.0919
61.8731
63.5779
65.2353
66.7678
68.4341
39.63
39.7903
40.2279
41.0861
42.2139
43.509
44.9005
46.3424
47.8005
49.2549
50.6888
52.094
53.4615
54.7903
56.0726
57.3165
58.4907
59.7363
39.616
39.6727
39.8524
40.2494
40.865
41.6247
42.4848
43.41
44.3731
45.3545
46.3393
47.3174
48.2808
49.2248
50.1445
51.04
51.8993
52.7953
39.6078
39.62
39.6764
39.8188
40.093
40.4707
40.9314
41.4552
42.0241
42.6232
43.2407
43.8673
44.4958
45.1208
45.738
46.3447
46.9362
47.5473
39.6042
39.5974
39.6064
39.6426
39.7276
39.8758
40.0767
40.3237
40.609
40.9247
41.2634
41.6189
41.9856
42.3592
42.7358
43.1126
43.4871
43.8738
39.604
39.5884
39.5795
39.5821
39.5968
39.6327
39.6979
39.7885
39.9036
40.0407
40.1972
40.3701
40.5565
40.7538
40.9594
41.1712
41.3874
41.6127
39.604
39.5866
39.5722
39.5626
39.5616
39.5666
39.5814
39.6112
39.6562
39.7156
39.7889
39.8754
39.9739
40.083
40.2013
40.3276
40.4604
40.6001
39.6039
39.5872
39.5743
39.5706
39.5755
39.5915
39.6246
39.6759
39.7443
39.829
39.9288
40.0423
40.1678
40.3037
40.4483
40.6001
40.7575
40.9163
39.6039
39.5966
39.6053
39.6393
39.7165
39.8478
40.024
40.2401
40.4901
40.7675
41.0663
41.3812
41.7077
42.0417
42.3801
42.7202
43.0597
43.3889
39.6102
39.6339
39.7208
39.9209
40.2583
40.6978
41.2181
41.7985
42.421
43.0708
43.7366
44.4092
45.0818
45.7491
46.4075
47.0535
47.6866
48.2866
39.6302
39.7855
40.1867
40.9423
41.9216
43.0515
44.2764
45.5537
46.8544
48.1573
49.4485
50.7177
51.9589
53.1667
54.3397
55.4735
56.5756
57.6006
39.7085
40.3657
41.806
43.8387
46.1486
48.5903
51.0835
53.5692
56.0202
58.4115
60.7366
62.983
65.1535
67.2392
69.2505
71.1707
73.0419
74.7449
40.0218
42.355
46.3993
51.0063
55.8296
60.6506
65.4084
70.0194
74.4936
78.7832
82.9212
86.8673
90.6687
94.2764
97.7649
101.036
104.275
107.133
41.2492
48.5879
58.1063
67.9274
77.7233
87.1725
96.3651
105.09
113.535
121.489
129.192
136.401
143.414
149.913
156.321
162.117
168.066
173.061
46.1933
66.7
88.942
110.646
131.826
151.754
171.141
189.108
206.675
222.738
238.602
252.879
267.214
279.816
292.85
303.84
315.859
325.213
65.9206
125.8
185.607
241.654
295.706
345.358
393.791
437.176
480.204
517.657
555.802
587.865
621.753
648.978
679.279
702.196
729.537
748.591
166.891
402.776
620.406
816.833
1000.94
1164.72
1319.88
1453.04
1582.08
1688.41
1795.81
1879.77
1969.93
2035.79
2112.23
2163.62
2229.38
2269.03
1158.11
2665.3
3852.31
4825.04
5631.77
6285.68
6819.87
7243.58
7590.19
7861.63
8088.52
8259.97
8415.44
8523.16
8633.04
8696.27
8782.7
8812.35
23121.7
24533.2
25613.9
26401.8
26955.7
27332.7
27578.8
27730.5
27813.4
27848.7
27843.8
27825.6
27788.5
27738.5
27681.5
27620.4
27557.3
27493.5
11463.5
2516.59
2521.05
2525.22
2528.84
2531.95
2534.77
2537.6
2540.64
2543.95
2547.31
2550.45
2553.14
2555.42
2557.48
2558.88
2558.91
2559.92
2560.91
2561.45
2562.27
2564.29
2566.94
2569.94
2573
2576.09
2579.46
2583.64
2589.49
2597.15
2604.18
2607.45
2608.67
2608.85
2611.49
2612.37
2615.47
2621.55
2631.4
2686.54
2824.64
2951.47
3058.74
3152.8
3236.96
3313.98
3385.33
3452.4
3516.01
3576.97
3635.81
3693.21
3749.5
3805.19
3860.54
3915.95
3971.72
4028.21
4085.77
4144.83
4204.75
4263.84
4323.37
4382.45
4441.72
4500.7
4559.7
4618.46
4677.13
4735.54
4793.75
4851.66
4909.27
4966.53
5023.42
5079.89
5135.91
5191.45
5246.48
5300.98
5354.91
5408.25
5460.97
5513.04
5564.45
5615.15
5665.13
5714.36
5762.81
5810.44
5857.23
5903.15
5948.15
5992.21
6035.3
6077.39
6118.46
6158.5
6197.55
6235.67
6273.01
6309.82
6345.72
6380.65
6414.63
6447.59
6479.57
6510.51
6540.42
6569.28
6597.09
6623.81
6649.46
6674
6697.45
6719.79
6741.01
6761.11
6780.09
6797.95
6814.69
6830.31
6844.83
6858.24
6870.57
6881.82
6892.03
6901.6
6909.57
6916.66
6922.65
6927.06
6930.27
6932.27
6933.19
6933.24
6932.34
6930.18
6927.09
6922.99
6917.95
6911.98
6905.1
6897.34
6888.72
6879.28
6869.03
6858.02
6846.29
6833.82
6820.65
6806.8
6792.3
6777.2
6761.55
6745.4
6728.83
6711.88
6694.61
6677.07
6659.31
6641.34
6623.19
6604.88
6586.43
6567.87
6549.25
6530.63
6512.04
6493.51
6475.04
6456.59
6438.03
6419.29
6399.66
6380.16
6354.7
6338.79
6317.54
6230.89
11464.4
2052.48
1172.08
1011.02
867.152
691.433
564.556
553.858
567.54
577.419
586.956
591.491
591.853
591.719
592.929
597.323
607.673
647.308
734.407
844.276
929.572
969.96
965.599
933.843
848.093
674.696
561.194
492.156
476.677
486.039
512.806
548.517
574.572
638.934
812.1
1210.92
1752.7
1969.82
2036.73
2063.48
2068.93
2027.84
1982.61
1930.04
1884.14
1833.38
1791.2
1754.12
1725.81
1703.54
1687.69
1676.64
1670.68
1667.74
1666.72
1668.49
1672.7
1678.25
1685.27
1693.2
1701.88
1710.95
1720.42
1730.03
1739.78
1749.54
1759.29
1768.96
1778.54
1788
1797.33
1806.52
1815.57
1824.48
1833.25
1841.89
1850.4
1858.79
1867.05
1875.2
1883.23
1891.15
1898.95
1906.63
1914.2
1921.64
1928.95
1936.13
1943.18
1950.09
1956.87
1963.51
1970.02
1976.42
1982.72
1988.96
1995.2
2001.52
2008.04
2014.95
2022.51
2031.43
2039.92
2048.29
2056.38
2064.26
2071.9
2079.31
2086.48
2093.42
2100.12
2106.58
2112.8
2118.79
2124.53
2130.04
2135.31
2140.35
2145.15
2149.71
2154.05
2158.15
2162.03
2165.69
2169.13
2172.36
2175.37
2178.15
2180.61
2182.77
2184.43
2185.25
2185.75
2186.03
2186.02
2185.86
2185.48
2184.84
2183.98
2182.89
2181.59
2180.07
2178.34
2176.4
2174.27
2171.94
2169.44
2166.77
2163.89
2160.81
2157.56
2154.16
2150.61
2146.91
2143.09
2139.15
2135.1
2130.96
2126.71
2122.39
2117.99
2113.51
2108.98
2104.38
2099.74
2095.06
2090.36
2085.63
2080.9
2076.18
2071.47
2066.8
2062.18
2057.61
2053.16
2049.12
2044.93
2043.45
2043.63
2057.05
11463.8
2443.36
1068.4
712.79
565.76
501.27
506.065
530.777
536.869
531.071
515.958
493.704
471.467
451.959
435.914
424.821
416.222
416.466
421.863
436.509
464.671
495.919
523.967
531.708
521.632
490.699
437.339
400.395
404.987
430.622
485.768
607.649
815.309
1106.43
1283.08
1382.2
1442.52
1439.55
1407.48
1385.21
1343.73
1295.86
1246.38
1199.53
1161.73
1130.85
1108.49
1091.52
1079.96
1072.01
1067.71
1065.68
1065.05
1065.85
1068.18
1071.35
1075.28
1079.72
1084.59
1089.72
1095.05
1100.49
1106.01
1111.55
1117.08
1122.59
1128.05
1133.45
1138.8
1144.08
1149.3
1154.46
1159.55
1164.59
1169.58
1174.51
1179.39
1184.23
1189.02
1193.76
1198.46
1203.11
1207.72
1212.27
1216.78
1221.23
1225.63
1229.98
1234.27
1238.51
1242.7
1246.84
1250.94
1255.01
1259.06
1263.1
1267.17
1271.28
1275.47
1279.76
1284.17
1288.62
1292.88
1297.05
1301.08
1304.99
1308.77
1312.41
1315.93
1319.31
1322.57
1325.69
1328.67
1331.52
1334.24
1336.82
1339.27
1341.59
1343.76
1345.81
1347.72
1349.5
1351.14
1352.66
1354.03
1355.27
1356.37
1357.31
1358.08
1358.66
1359.02
1359.14
1359.13
1359.03
1358.8
1358.41
1357.89
1357.26
1356.5
1355.61
1354.61
1353.48
1352.24
1350.89
1349.42
1347.84
1346.16
1344.37
1342.47
1340.47
1338.38
1336.19
1333.93
1331.58
1329.16
1326.67
1324.11
1321.49
1318.81
1316.07
1313.27
1310.43
1307.55
1304.62
1301.67
1298.68
1295.67
1292.64
1289.59
1286.55
1283.52
1280.51
1277.57
1274.73
1272.05
1269.74
1267.72
1267.41
1269.01
1280.62
11463.3
2203.64
949.45
678.019
660.531
688.897
680.987
645.421
592.741
542.184
493.572
450.812
416.301
389.545
369.355
354.563
344.407
337.938
336.794
338.668
344.386
355.958
370.01
382.468
387.511
389.648
404.057
460.478
575.305
717.372
888.197
1025.85
1094.65
1140.19
1171.86
1152.22
1101.09
1082.46
1049.15
1019.6
980.326
944.913
913.812
889.597
871.354
857.896
848.636
842.371
838.932
837.364
836.938
837.624
839.372
841.801
844.812
848.21
851.921
855.847
859.932
864.118
868.367
872.648
876.939
881.223
885.49
889.73
893.942
898.121
902.27
906.389
910.48
914.546
918.59
922.614
926.62
930.609
934.583
938.54
942.482
946.405
950.31
954.193
958.054
961.89
965.699
969.479
973.229
976.947
980.633
984.285
987.906
991.495
995.054
998.587
1002.1
1005.59
1009.07
1012.53
1015.98
1019.42
1022.82
1026.16
1029.38
1032.52
1035.55
1038.49
1041.32
1044.05
1046.68
1049.2
1051.62
1053.93
1056.13
1058.22
1060.21
1062.08
1063.84
1065.49
1067.02
1068.44
1069.75
1070.95
1072.03
1073
1073.84
1074.57
1075.18
1075.65
1075.99
1076.18
1076.24
1076.16
1075.97
1075.67
1075.27
1074.75
1074.13
1073.4
1072.56
1071.62
1070.58
1069.44
1068.2
1066.86
1065.43
1063.9
1062.28
1060.58
1058.78
1056.9
1054.95
1052.92
1050.82
1048.65
1046.41
1044.12
1041.77
1039.36
1036.89
1034.38
1031.82
1029.22
1026.58
1023.91
1021.2
1018.47
1015.72
1012.95
1010.17
1007.38
1004.6
1001.85
999.159
996.565
994.121
991.981
990.173
989.559
990.579
997.329
11463.4
2000.32
971.999
981.416
951.933
858.926
742.734
637.054
542.522
464.68
405.938
364.515
335.81
315.945
302.534
293.999
289.171
288.055
289.218
292.67
299.618
309.999
322.633
338.941
365.908
420.508
530.698
683
841.763
946.17
986.3
1003.14
1009.94
979.879
931.687
909.904
882.006
862.172
833.918
808.021
781.84
761.536
745.336
733.527
725.11
719.473
716.293
714.863
714.498
715.148
716.715
718.919
721.639
724.727
728.1
731.675
735.4
739.227
743.124
747.061
751.02
754.987
758.951
762.907
766.851
770.782
774.701
778.611
782.513
786.41
790.305
794.201
798.1
802.003
805.911
809.824
813.74
817.658
821.576
825.49
829.398
833.297
837.183
841.053
844.905
848.735
852.54
856.319
860.069
863.789
867.476
871.13
874.748
878.332
881.878
885.387
888.855
892.278
895.651
898.962
902.205
905.364
908.433
911.414
914.302
917.096
919.794
922.394
924.894
927.292
929.586
931.775
933.858
935.832
937.698
939.453
941.096
942.627
944.045
945.35
946.539
947.611
948.567
949.404
950.121
950.716
951.186
951.53
951.743
951.815
951.784
951.62
951.343
950.954
950.452
949.84
949.12
948.291
947.355
946.314
945.169
943.922
942.575
941.131
939.59
937.955
936.228
934.412
932.508
930.521
928.456
926.317
924.107
921.83
919.487
917.081
914.617
912.096
909.523
906.901
904.233
901.524
898.778
896
893.194
890.361
887.506
884.634
881.751
878.869
876.003
873.168
870.385
867.691
865.133
862.825
860.82
859.648
859.82
863.106
11463.7
2200.98
1544.44
1283.87
1033.69
807.178
621.513
488.596
401.857
347.247
313.082
290.812
275.976
266.123
260.035
256.86
256.675
258.168
262.111
268.838
278.555
293.895
317.886
354.77
426.564
558.493
713.771
844.243
903.853
920.83
913.781
866.092
825.494
799.571
775.67
758.953
738.754
719.88
698.932
681.165
666.054
654.854
646.532
640.863
637.434
635.836
635.38
635.864
637.3
639.405
642.045
645.083
648.424
651.989
655.719
659.566
663.496
667.482
671.503
675.545
679.597
683.653
687.711
691.769
695.828
699.891
703.961
708.041
712.135
716.246
720.377
724.529
728.705
732.903
737.124
741.365
745.624
749.896
754.177
758.464
762.75
767.032
771.304
775.562
779.802
784.021
788.213
792.377
796.508
800.603
804.659
808.673
812.642
816.564
820.434
824.251
828.01
831.706
835.331
838.877
842.342
845.719
849.005
852.197
855.293
858.289
861.184
863.974
866.658
869.232
871.694
874.044
876.277
878.393
880.39
882.267
884.02
885.651
887.156
888.538
889.792
890.917
891.914
892.779
893.513
894.114
894.58
894.911
895.092
895.142
895.079
894.876
894.545
894.09
893.511
892.81
891.988
891.049
889.992
888.819
887.533
886.134
884.627
883.013
881.294
879.473
877.552
875.535
873.424
871.223
868.939
866.575
864.135
861.621
859.037
856.386
853.672
850.899
848.071
845.192
842.266
839.298
836.293
833.257
830.191
827.099
823.985
820.855
817.716
814.577
811.452
808.357
805.311
802.345
799.5
796.863
794.487
792.729
791.94
792.98
11463.7
3118.48
1883.76
1311.4
886.308
603.616
450.437
367.291
319.723
290.425
271.5
258.798
250.165
244.553
241.335
240.527
241.663
245.143
252.071
263.022
279.314
303.443
347.299
430.417
560.426
695.51
796.427
840.727
851.874
808.987
755.743
724.866
702.788
686.035
670.389
655.981
640.226
625.269
611.344
600.236
591.615
585.491
581.374
579.278
578.522
578.574
579.718
581.609
584.125
587.116
590.478
594.121
597.975
601.988
606.115
610.326
614.595
618.906
623.245
627.604
631.978
636.366
640.768
645.185
649.621
654.081
658.567
663.085
667.638
672.229
676.86
681.532
686.245
690.996
695.784
700.604
705.453
710.324
715.21
720.105
725.001
729.893
734.774
739.639
744.481
749.296
754.079
758.826
763.532
768.193
772.805
777.363
781.863
786.301
790.674
794.978
799.209
803.364
807.438
811.429
815.331
819.135
822.838
826.437
829.928
833.308
836.574
839.723
842.751
845.655
848.432
851.081
853.599
855.983
858.232
860.343
862.314
864.143
865.827
867.363
868.754
870
871.099
872.051
872.854
873.509
874.013
874.368
874.554
874.605
874.523
874.289
873.911
873.393
872.736
871.942
871.011
869.94
868.733
867.395
865.929
864.338
862.624
860.791
858.84
856.776
854.602
852.32
849.934
847.45
844.872
842.206
839.457
836.626
833.717
830.736
827.687
824.574
821.403
818.177
814.902
811.583
808.226
804.837
801.417
797.971
794.504
791.021
787.531
784.042
780.567
777.121
773.722
770.395
767.177
764.133
761.307
758.938
757.212
756.587
11464.7
3725.43
1900.43
1047.06
625.208
445.089
359.12
312.762
285.258
267.544
255.582
247.222
241.419
237.685
236.114
236.764
239.786
245.784
255.332
270.824
297.107
343.941
428.523
547.384
664.14
742.923
776.907
780.412
723.508
677.886
650.354
632.79
618.629
606.341
594.338
582.494
570.674
560.057
551.14
544.354
539.474
536.408
534.962
534.577
535.115
536.546
538.734
541.514
544.772
548.408
552.34
556.502
560.841
565.315
569.892
574.548
579.263
584.027
588.829
593.665
598.533
603.433
608.367
613.338
618.351
623.409
628.517
633.679
638.898
644.177
649.515
654.911
660.363
665.866
671.417
677.009
682.637
688.292
693.965
699.646
705.327
710.999
716.655
722.287
727.889
733.454
738.976
744.45
749.872
755.237
760.538
765.769
770.927
776.007
781.004
785.915
790.737
795.467
800.105
804.646
809.077
813.394
817.591
821.666
825.614
829.432
833.117
836.665
840.073
843.338
846.456
849.425
852.243
854.908
857.417
859.768
861.958
863.987
865.853
867.555
869.091
870.462
871.666
872.703
873.572
874.272
874.803
875.163
875.335
875.365
875.233
874.933
874.471
873.851
873.073
872.141
871.056
869.82
868.436
866.906
865.234
863.422
861.475
859.396
857.187
854.853
852.397
849.823
847.135
844.339
841.44
838.444
835.356
832.179
828.918
825.578
822.164
818.683
815.14
811.538
807.884
804.184
800.444
796.67
792.865
789.033
785.18
781.313
777.439
773.568
769.712
765.885
762.103
758.388
754.756
751.251
747.926
744.949
742.412
740.41
11476.9
3786.34
1508.46
743.202
483.244
375.281
322.153
292.222
273.572
260.912
251.645
245.05
240.696
238.443
238.163
240.138
244.998
254.116
270.069
297.816
347.15
427.714
529.251
626.545
687.264
713.446
706.094
658.114
618.309
593.906
578.479
566.851
556.609
547.022
537.589
528.445
519.967
512.775
507.13
503.085
500.617
499.536
499.344
500.092
501.686
504.001
506.926
510.351
514.188
518.36
522.803
527.465
532.302
537.281
542.375
547.565
552.836
558.177
563.582
569.046
574.569
580.152
585.796
591.506
597.284
603.133
609.057
615.059
621.141
627.304
633.544
639.856
646.236
652.675
659.166
665.699
672.268
678.87
685.485
692.104
698.715
705.307
711.874
718.405
724.893
731.331
737.709
744.021
750.255
756.41
762.487
768.481
774.386
780.196
785.908
791.517
797.019
802.409
807.683
812.832
817.852
822.736
827.481
832.083
836.537
840.84
844.989
848.978
852.806
856.467
859.959
863.279
866.425
869.394
872.184
874.793
877.218
879.458
881.511
883.376
885.052
886.539
887.837
888.944
889.861
890.588
891.124
891.461
891.597
891.57
891.354
890.952
890.368
889.604
888.665
887.551
886.265
884.81
883.189
881.406
879.463
877.365
875.116
872.72
870.181
867.503
864.69
861.747
858.679
855.49
852.189
848.781
845.272
841.665
837.968
834.185
830.324
826.39
822.391
818.33
814.213
810.048
805.84
801.597
797.321
793.019
788.697
784.362
780.023
775.688
771.37
767.083
762.84
758.661
754.568
750.601
746.791
743.258
740.045
736.973
11500.4
3232.9
1122.66
593.25
419.946
346.364
308.743
286.373
271.34
260.969
253.762
248.77
245.717
244.642
246.001
250.67
259.992
276.788
306.487
355.641
426.666
510.194
586.361
633.592
654.667
640.587
604.663
570.896
549.063
535.306
525.299
516.823
508.971
501.445
494.187
487.429
481.512
476.75
473.255
471.125
470.225
470.121
470.919
472.537
474.873
477.836
481.337
485.299
489.651
494.332
499.292
504.486
509.879
515.443
521.155
526.999
532.962
539.034
545.208
551.479
557.844
564.305
570.865
577.526
584.286
591.144
598.102
605.158
612.313
619.577
626.93
634.362
641.866
649.429
657.038
664.675
672.32
679.936
687.558
695.183
702.797
710.387
717.944
725.458
732.921
740.323
747.653
754.906
762.079
769.163
776.144
783.012
789.763
796.39
802.888
809.253
815.481
821.569
827.508
833.297
838.932
844.407
849.718
854.86
859.829
864.623
869.237
873.666
877.907
881.955
885.808
889.463
892.917
896.168
899.214
902.053
904.682
907.1
909.305
911.296
913.072
914.634
915.981
917.114
918.032
918.736
919.226
919.487
919.542
919.397
919.041
918.479
917.713
916.748
915.586
914.229
912.681
910.946
909.026
906.926
904.65
902.203
899.588
896.811
893.877
890.791
887.558
884.183
880.671
877.027
873.26
869.377
865.383
861.285
857.089
852.802
848.433
843.988
839.474
834.895
830.257
825.567
820.834
816.063
811.259
806.429
801.581
796.723
791.863
787.01
782.177
777.375
772.619
767.924
763.312
758.813
754.453
750.321
746.432
742.373
11520.6
2643.1
907.136
520.597
392.429
336.196
305.789
287.536
275.826
267.662
261.866
258.192
256.799
257.965
263.006
273.417
291.472
320.774
365.063
424.376
490.088
547.495
584.408
600.793
585.048
558.151
531.586
512.375
500.012
491.226
484.041
477.558
471.436
465.605
460.15
455.282
451.23
448.162
446.22
445.386
445.302
446.06
447.616
449.896
452.827
456.34
460.37
464.856
469.745
474.986
480.539
486.366
492.437
498.728
505.219
511.898
518.754
525.778
532.956
540.278
547.737
555.333
563.073
570.963
578.983
587.128
595.394
603.766
612.22
620.692
629.246
637.888
646.609
655.395
664.224
673.08
681.954
690.851
699.738
708.609
717.44
726.217
734.93
743.574
752.138
760.612
768.981
777.237
785.369
793.369
801.235
808.958
816.533
823.953
831.215
838.313
845.245
852.008
858.596
865.005
871.232
877.27
883.114
888.76
894.205
899.444
904.475
909.292
913.892
918.271
922.425
926.352
930.049
933.515
936.747
939.745
942.506
945.027
947.309
949.348
951.147
952.705
954.023
955.101
955.94
956.541
956.898
957.013
956.898
956.553
955.976
955.172
954.144
952.896
951.43
949.751
947.862
945.766
943.47
940.976
938.29
935.417
932.362
929.13
925.729
922.162
918.438
914.56
910.535
906.368
902.068
897.643
893.1
888.446
883.689
878.839
873.902
868.887
863.8
858.646
853.431
848.162
842.847
837.493
832.107
826.696
821.269
815.836
810.405
804.985
799.586
794.222
788.904
783.648
778.472
773.403
768.459
763.711
759.166
754.209
11533.9
2191.03
795.476
487.589
382.549
334.689
309.916
295.421
285.872
279.24
275.127
273.573
274.725
280.139
291.033
308.865
335.785
373.654
421.009
470.786
512.677
540.509
551.457
537.454
517.512
497.405
481.589
470.595
462.802
456.593
451.134
446.07
441.294
436.834
432.802
429.359
426.656
424.844
424.02
423.918
424.605
426.07
428.27
431.154
434.671
438.77
443.399
448.514
454.07
460.03
466.363
473.033
480.012
487.278
494.816
502.616
510.679
519.009
527.558
536.307
545.236
554.317
563.495
572.742
582.142
591.709
601.437
611.314
621.333
631.508
641.781
652.121
662.503
672.92
683.327
693.696
704.018
714.285
724.477
734.571
744.566
754.464
764.269
773.981
783.59
793.084
802.443
811.653
820.703
829.585
838.294
846.824
855.17
863.326
871.287
879.05
886.612
893.971
901.124
908.066
914.792
921.296
927.574
933.62
939.432
945.007
950.343
955.434
960.276
964.867
969.201
973.278
977.096
980.654
983.949
986.982
989.749
992.251
994.485
996.45
998.148
999.58
1000.75
1001.65
1002.29
1002.66
1002.78
1002.63
1002.23
1001.57
1000.66
999.507
998.108
996.47
994.597
992.493
990.162
987.609
984.839
981.857
978.669
975.28
971.696
967.924
963.97
959.841
955.544
951.085
946.471
941.708
936.805
931.768
926.607
921.331
915.951
910.475
904.912
899.269
893.553
887.769
881.922
876.02
870.07
864.081
858.061
852.019
845.966
839.911
833.862
827.829
821.82
815.849
809.926
804.066
798.287
792.611
787.055
781.673
776.481
770.689
11540.1
1950.12
745.832
474.847
381.008
339.952
319.435
307.559
299.927
295.26
293.398
294.169
299.393
309.854
326.249
349.495
380.001
415.777
451.556
480.977
501.017
507.086
496.668
481.921
467.279
454.966
445.692
438.821
433.387
428.699
424.422
420.429
416.715
413.342
410.414
408.056
406.393
405.591
405.482
406.134
407.56
409.745
412.666
416.295
420.586
425.497
430.985
437.01
443.539
450.548
458.042
465.962
474.273
482.955
491.994
501.365
511.001
520.829
530.94
541.335
551.994
562.898
574.049
585.453
597.062
608.866
620.846
632.97
645.215
657.583
669.976
682.334
694.604
706.729
718.695
730.497
742.133
753.608
764.927
776.094
787.108
797.978
808.723
819.357
829.875
840.255
850.472
860.502
870.329
879.941
889.334
898.507
907.456
916.178
924.666
932.916
940.928
948.7
956.23
963.514
970.548
977.324
983.838
990.087
996.068
1001.78
1007.22
1012.38
1017.27
1021.87
1026.19
1030.22
1033.96
1037.41
1040.58
1043.46
1046.04
1048.34
1050.34
1052.05
1053.47
1054.6
1055.44
1056
1056.27
1056.26
1055.98
1055.41
1054.56
1053.44
1052.06
1050.41
1048.5
1046.34
1043.93
1041.27
1038.38
1035.25
1031.89
1028.3
1024.5
1020.49
1016.28
1011.86
1007.26
1002.47
997.515
992.389
987.102
981.663
976.081
970.357
964.507
958.544
952.477
946.316
940.067
933.739
927.337
920.868
914.337
907.751
901.115
894.441
887.739
881.022
874.299
867.579
860.872
854.184
847.525
840.906
834.338
827.838
821.422
815.11
808.915
802.881
797.046
790.462
11542.6
1871.96
724.756
471.105
385.485
349.708
332.555
322.891
316.919
314.27
314.075
318.234
327.165
340.798
359.155
381.792
406.809
430.798
451.836
465.632
467.918
461.186
451.145
440.812
431.704
424.28
418.424
413.67
409.595
405.921
402.53
399.403
396.578
394.129
392.155
390.78
390.156
390.188
390.995
392.592
394.991
398.196
402.219
407.102
412.731
419.047
426.004
433.562
441.674
450.268
459.193
468.551
478.395
488.735
499.579
510.944
522.872
535.407
548.421
561.835
575.599
589.654
603.963
618.495
633.2
648.055
663.048
678.07
693.035
707.836
722.439
736.785
750.819
764.5
777.81
790.746
803.323
815.564
827.54
839.316
850.881
862.255
873.488
884.63
895.672
906.575
917.295
927.797
938.056
948.044
957.763
967.224
976.427
985.366
994.034
1002.43
1010.55
1018.39
1025.95
1033.24
1040.24
1046.95
1053.37
1059.49
1065.31
1070.84
1076.06
1080.98
1085.6
1089.91
1093.9
1097.59
1100.97
1104.03
1106.79
1109.23
1111.37
1113.2
1114.71
1115.92
1116.81
1117.4
1117.69
1117.67
1117.37
1116.76
1115.86
1114.66
1113.18
1111.41
1109.37
1107.05
1104.46
1101.61
1098.5
1095.14
1091.52
1087.67
1083.58
1079.27
1074.73
1069.97
1065
1059.84
1054.48
1048.93
1043.21
1037.32
1031.27
1025.07
1018.72
1012.24
1005.63
998.913
992.099
985.192
978.2
971.129
963.987
956.78
949.513
942.195
934.825
927.421
919.996
912.564
905.133
897.713
890.31
882.932
875.588
868.285
861.039
853.868
846.788
839.815
832.961
826.26
819.782
812.445
11542.9
1828.13
711.102
471.012
393.412
362.12
347.358
338.702
334.009
332.537
334.327
340.589
350.425
363.321
378.526
394.717
410.807
426.18
433.713
434.016
430.845
424.764
418.023
411.632
405.999
401.177
397.058
393.488
390.353
387.535
385.026
382.843
381.043
379.71
379.031
378.993
379.827
381.448
383.886
387.171
391.322
396.338
402.168
408.619
415.883
423.947
432.772
442.324
452.575
463.511
475.177
487.531
500.559
514.267
528.68
543.869
559.96
577.155
595.041
613.36
632.043
650.884
669.774
688.634
707.387
725.952
744.232
762.201
779.787
796.891
813.418
829.273
844.392
858.799
872.526
885.599
898.05
909.874
921.323
932.694
943.816
954.71
965.493
976.324
987.147
997.866
1008.4
1018.7
1028.74
1038.5
1048
1057.23
1066.17
1074.81
1083.16
1091.19
1098.91
1106.32
1113.43
1120.23
1126.71
1132.88
1138.73
1144.26
1149.46
1154.34
1158.9
1163.14
1167.06
1170.65
1173.91
1176.85
1179.46
1181.74
1183.7
1185.34
1186.66
1187.67
1188.35
1188.71
1188.73
1188.48
1187.9
1187
1185.81
1184.32
1182.53
1180.44
1178.06
1175.39
1172.44
1169.21
1165.71
1161.95
1157.92
1153.64
1149.12
1144.35
1139.35
1134.12
1128.66
1122.99
1117.12
1111.04
1104.77
1098.32
1091.7
1084.91
1077.97
1070.89
1063.67
1056.34
1048.91
1041.38
1033.76
1026.05
1018.26
1010.39
1002.45
994.456
986.404
978.307
970.162
961.992
953.813
945.635
937.465
929.312
921.183
913.085
905.026
897.012
889.064
881.201
873.437
865.786
858.26
850.881
843.762
835.708
11540.6
1788.86
702.467
474.672
402.15
373.036
359.083
350.922
347.131
346.139
348.305
353.83
361.433
370.579
380.958
392.253
401.625
405.39
405.592
404.235
401.248
397.319
393.238
389.361
385.843
382.745
380.093
377.919
376.296
375.194
374.58
374.408
374.729
375.629
377.155
379.249
381.832
385.243
389.605
394.983
401.427
408.989
417.758
427.954
439.491
452.019
465.446
479.734
494.875
510.876
527.772
545.552
564.179
583.613
603.855
625.024
647.343
670.673
694.249
717.728
740.959
763.932
786.578
808.82
830.58
851.795
872.403
892.353
911.583
930.015
947.556
964.059
979.402
993.77
1007.28
1020
1031.95
1043.19
1053.84
1063.97
1073.58
1082.86
1092.06
1101.73
1111.55
1121.29
1130.82
1140.08
1149.04
1157.73
1166.17
1174.31
1182.16
1189.68
1196.86
1203.71
1210.21
1216.39
1222.24
1227.77
1232.98
1237.86
1242.41
1246.62
1250.5
1254.05
1257.28
1260.19
1262.78
1265.04
1266.97
1268.59
1269.88
1270.84
1271.49
1271.83
1271.83
1271.58
1270.98
1270.06
1268.82
1267.3
1265.47
1263.34
1260.92
1258.21
1255.22
1251.94
1248.37
1244.53
1240.42
1236.04
1231.4
1226.5
1221.36
1215.97
1210.35
1204.5
1198.42
1192.13
1185.62
1178.91
1172
1164.9
1157.62
1150.16
1142.54
1134.77
1126.86
1118.8
1110.63
1102.36
1094
1085.56
1077.02
1068.4
1059.71
1050.94
1042.11
1033.23
1024.3
1015.33
1006.36
997.392
988.422
979.461
970.514
961.589
952.694
943.839
935.031
926.276
917.603
909.026
900.559
892.214
884
875.931
868.164
859.425
11535.4
1759.09
696.801
476.338
406.21
377.688
363.423
354.448
350.161
348.869
350.244
354.625
360.598
367.6
374.498
378.977
380.942
381.767
382.007
381.643
380.711
379.725
378.788
377.901
377.181
376.761
376.638
376.814
377.179
377.893
379.29
381.481
384.416
388.173
392.862
398.586
405.513
413.64
423.051
433.817
446.007
459.712
475.118
492.463
511.439
531.476
552.574
574.679
597.744
621.734
646.638
672.537
699.308
726.665
754.391
782.229
809.839
836.697
862.942
888.669
913.793
938.221
961.868
984.663
1006.56
1027.53
1047.54
1066.59
1084.67
1101.78
1117.91
1133.08
1147.17
1160.32
1172.68
1184.31
1195.21
1205.43
1214.91
1223.47
1231.43
1239.08
1246.73
1254.68
1262.55
1270.16
1277.47
1284.44
1291.08
1297.41
1303.46
1309.21
1314.67
1319.8
1324.62
1329.1
1333.27
1337.14
1340.71
1344
1347
1349.7
1352.1
1354.2
1356
1357.52
1358.75
1359.71
1360.38
1360.76
1360.83
1360.66
1360.19
1359.42
1358.38
1357.07
1355.48
1353.62
1351.48
1349.06
1346.37
1343.4
1340.17
1336.67
1332.92
1328.91
1324.64
1320.12
1315.35
1310.33
1305.06
1299.55
1293.81
1287.83
1281.64
1275.23
1268.6
1261.77
1254.73
1247.49
1240.06
1232.44
1224.64
1216.67
1208.53
1200.22
1191.77
1183.17
1174.44
1165.57
1156.58
1147.48
1138.28
1128.99
1119.6
1110.13
1100.59
1090.97
1081.3
1071.57
1061.8
1052
1042.21
1032.43
1022.65
1012.88
1003.13
993.406
983.72
974.083
964.512
955.034
945.653
936.379
927.223
918.198
909.311
900.574
892.175
882.818
11529.6
1736.6
693.097
474.988
405.839
376.996
361.702
352.234
347.712
346.307
347.091
350.151
353.755
357.654
361.524
365.253
368.671
371.81
374.7
377.26
379.425
380.93
382.13
383.524
385.293
387.582
390.475
394.08
398.595
404.19
411.039
419.326
428.815
439.627
451.937
465.868
481.541
498.966
518.198
539.267
562.178
586.918
613.416
641.326
670.297
700.614
732.228
764.85
798.212
832.064
866.207
900.698
934.821
968.305
1000.91
1032.41
1062.52
1090.99
1117.79
1142.95
1166.48
1188.4
1208.76
1227.63
1245.08
1261.18
1276.01
1289.64
1302.14
1313.6
1324.11
1333.91
1343.32
1352.28
1360.68
1368.44
1375.54
1381.78
1387.53
1392.9
1398.07
1403.47
1409
1413.87
1418.22
1422.14
1425.73
1429.02
1432.05
1434.84
1437.4
1439.73