/*--------------------------------*- C++ -*----------------------------------*\
| =========                 |                                                 |
| \\      /  F ield         | OpenFOAM: The Open Source CFD Toolbox           |
|  \\    /   O peration     | Version:  2112                                  |
|   \\  /    A nd           | Website:  www.openfoam.com                      |
|    \\/     M anipulation  |                                                 |
\*---------------------------------------------------------------------------*/
FoamFile
{
    version     2.0;
    format      ascii;
    arch        "LSB;label=32;scalar=64";
    class       volScalarField;
    location    "0.23";
    object      k;
}
// * * * * * * * * * * * * * * * * * * * * * * * * * * * * * * * * * * * * * //

dimensions      [0 2 -2 0 0 0 0];

internalField   nonuniform List<scalar> 
12225
(
1.36883
2.18718
2.86062
3.48987
4.14317
4.85944
5.66208
6.56792
7.58975
8.73623
10.011
11.412
12.9321
14.5601
16.2814
18.0879
19.9376
21.7225
0.415438
0.485608
0.569553
0.667231
0.778931
0.905709
1.04823
1.20569
1.37555
1.5542
1.73793
1.92399
2.11129
2.30106
2.49665
2.7065
2.97061
3.33343
0.377961
0.385497
0.396024
0.406118
0.415817
0.426006
0.437604
0.451323
0.467497
0.4863
0.507975
0.532947
0.561851
0.595502
0.634748
0.680878
0.735503
0.795849
0.375389
0.376307
0.377918
0.38002
0.382495
0.385189
0.387915
0.390047
0.391454
0.392168
0.392323
0.392127
0.391845
0.391778
0.392243
0.393554
0.395952
0.399162
0.375081
0.37524
0.375544
0.375978
0.376554
0.377258
0.378051
0.378842
0.379557
0.380139
0.380471
0.380539
0.380364
0.379989
0.379463
0.378855
0.378246
0.377662
0.374934
0.374913
0.374953
0.375058
0.375239
0.375486
0.375781
0.376099
0.376419
0.37672
0.376975
0.377169
0.377295
0.377352
0.377373
0.377399
0.377457
0.377555
0.374811
0.374667
0.374601
0.374608
0.374686
0.37481
0.374963
0.375135
0.375312
0.375486
0.375648
0.375794
0.375925
0.376046
0.376169
0.376309
0.37648
0.376682
0.374721
0.374487
0.374334
0.374265
0.374281
0.374348
0.37444
0.374549
0.374666
0.374783
0.374897
0.375007
0.375118
0.375233
0.375362
0.375511
0.375688
0.375887
0.374656
0.374359
0.374137
0.373999
0.373945
0.373958
0.374008
0.374073
0.374147
0.374226
0.374306
0.374388
0.374475
0.374571
0.374682
0.374812
0.374962
0.375129
0.374609
0.374265
0.373992
0.373795
0.373678
0.37363
0.373628
0.373655
0.373695
0.37374
0.37379
0.373843
0.373904
0.373975
0.374061
0.374162
0.374279
0.374408
0.374574
0.374194
0.373881
0.373638
0.373466
0.373359
0.373302
0.373279
0.373277
0.373289
0.373311
0.373342
0.373379
0.373426
0.373485
0.373556
0.37364
0.373732
0.37455
0.374143
0.373801
0.373524
0.373311
0.373157
0.373051
0.372982
0.37294
0.372915
0.372905
0.372908
0.372924
0.372952
0.372989
0.373035
0.373091
0.373152
0.374531
0.374103
0.373736
0.37343
0.373183
0.372989
0.372842
0.37273
0.372647
0.372585
0.372541
0.372513
0.372501
0.372503
0.372519
0.372545
0.372577
0.372612
0.374515
0.374067
0.373676
0.373343
0.373064
0.372835
0.372648
0.372495
0.372371
0.372269
0.372186
0.372121
0.372072
0.372039
0.37202
0.372013
0.372015
0.372021
0.374501
0.374037
0.373625
0.373267
0.37296
0.372697
0.372475
0.372284
0.372121
0.37198
0.371859
0.371754
0.371664
0.371589
0.371527
0.371476
0.371434
0.371396
0.374491
0.374013
0.373584
0.373205
0.372872
0.372581
0.372327
0.372104
0.371906
0.371729
0.37157
0.371427
0.371297
0.37118
0.371073
0.370976
0.370885
0.370801
0.374484
0.373997
0.373555
0.373159
0.372806
0.372491
0.372211
0.371959
0.371731
0.371523
0.371331
0.371152
0.370986
0.37083
0.370683
0.370544
0.370411
0.370284
0.374481
0.37399
0.373539
0.373132
0.372764
0.372433
0.372132
0.371858
0.371605
0.371371
0.37115
0.370943
0.370745
0.370556
0.370375
0.3702
0.370032
0.36987
0.374484
0.373993
0.373542
0.37313
0.372756
0.372415
0.372103
0.371815
0.371546
0.371293
0.371053
0.370823
0.370602
0.370387
0.37018
0.369978
0.369782
0.369593
0.374491
0.374008
0.373563
0.373156
0.372785
0.372446
0.372134
0.371844
0.371572
0.371314
0.371067
0.370829
0.370597
0.370371
0.37015
0.369934
0.369723
0.369518
0.374502
0.374029
0.373595
0.373198
0.372836
0.372505
0.372201
0.371918
0.371652
0.3714
0.371157
0.370921
0.370691
0.370465
0.370242
0.370024
0.369808
0.369599
0.374517
0.37406
0.37364
0.373257
0.372908
0.372591
0.372301
0.372033
0.371783
0.371546
0.371318
0.371097
0.37088
0.370665
0.370453
0.370243
0.370034
0.36983
0.374538
0.374101
0.3737
0.373334
0.373005
0.37271
0.372444
0.372203
0.371981
0.371773
0.371575
0.371384
0.371195
0.371008
0.370821
0.370633
0.370444
0.370256
0.374569
0.374159
0.373782
0.373442
0.373142
0.372883
0.372659
0.372463
0.372289
0.372131
0.371984
0.371841
0.371701
0.371559
0.371414
0.371266
0.371114
0.37096
0.374616
0.374249
0.373916
0.373619
0.373369
0.373166
0.373006
0.372882
0.372789
0.37272
0.372668
0.372627
0.372591
0.372555
0.372513
0.372463
0.372404
0.372336
0.374687
0.374382
0.374138
0.373968
0.373876
0.373857
0.373902
0.374
0.374145
0.374328
0.37454
0.374769
0.374998
0.375208
0.375386
0.375521
0.375609
0.375642
0.374813
0.374674
0.374835
0.375332
0.376076
0.37697
0.377961
0.379009
0.380079
0.381142
0.382168
0.383131
0.383911
0.384445
0.384742
0.384821
0.38471
0.384454
0.375778
0.378263
0.381976
0.386561
0.391755
0.396106
0.399789
0.403119
0.406436
0.410037
0.414141
0.418889
0.424362
0.430589
0.43757
0.445317
0.453856
0.463298
0.39033
0.418948
0.455029
0.497676
0.546122
0.599943
0.659304
0.724564
0.795886
0.873129
0.955834
1.04326
1.13449
1.22848
1.32416
1.42061
1.51723
1.61371
1.02818
1.58816
2.04555
2.45031
2.83927
3.22146
3.61389
4.02737
4.4682
4.9402
5.44577
5.98652
6.56343
7.1768
7.82627
8.51079
9.22816
9.97563
0.233896
0.231675
0.231306
0.232419
0.235495
0.240456
0.247128
0.255288
0.264663
0.274935
0.285745
0.296704
0.307382
0.317234
0.32544
0.331721
0.335856
0.337712
0.337239
0.334463
0.32948
0.322459
0.313645
0.303351
0.291913
0.279418
0.266303
0.253821
0.242919
0.234643
0.229898
0.229211
0.232683
0.239691
0.250462
0.266044
0.289227
0.325955
0.386005
0.48169
0.623904
0.817666
1.0605
1.34423
1.65805
1.99106
2.33388
2.67933
3.02259
3.36082
3.69279
4.01833
4.33794
4.65257
4.96336
5.27152
5.57828
5.88478
6.19208
6.50107
6.81253
7.12704
7.445
7.76663
8.09193
8.42073
8.75266
9.08718
9.42363
9.76119
10.099
10.436
10.7713
11.1038
11.4325
11.7563
12.0744
12.3858
12.6898
12.9854
13.2722
13.5495
13.8168
14.0739
14.3203
14.556
14.7809
14.9949
15.1983
15.391
15.5735
15.7457
15.9082
16.061
16.2044
16.3388
16.4642
16.581
16.6895
16.7898
16.8822
16.967
17.0445
17.115
17.1786
17.2357
17.2864
17.3309
17.3694
17.4021
17.429
17.4502
17.4659
17.476
17.4806
17.4796
17.4731
17.461
17.443
17.4191
17.389
17.3524
17.3088
17.2578
17.1987
17.1313
17.055
16.9691
16.8724
16.7645
16.6458
16.5157
16.3736
16.2187
16.0503
15.8679
15.6709
15.4588
15.2312
14.9878
14.7283
14.4529
14.1616
13.8546
13.5323
13.1946
12.8414
12.4717
12.0844
11.6788
11.2546
10.8121
10.3518
9.87454
9.38141
8.87386
8.3538
7.82381
7.28726
6.74849
6.21308
5.68807
5.18228
4.7074
4.28312
3.91507
3.74337
3.90506
4.35009
4.96897
5.57869
6.21679
6.89348
7.60962
8.36504
9.1561
9.98698
10.8441
11.7985
12.7398
0.271957
0.258473
0.248074
0.239989
0.234066
0.229812
0.226847
0.224927
0.223907
0.223718
0.224341
0.225789
0.228088
0.231271
0.235358
0.240179
0.245508
0.251067
0.256539
0.261585
0.265852
0.268983
0.270629
0.270458
0.268128
0.263048
0.255044
0.244521
0.232246
0.219326
0.207013
0.196462
0.188589
0.184072
0.183679
0.188628
0.201173
0.225373
0.267437
0.334849
0.433937
0.567134
0.73198
0.922348
1.13056
1.34907
1.57147
1.79283
2.00975
2.22016
2.42304
2.61814
2.80575
2.98643
3.16094
3.33009
3.49469
3.65551
3.81325
3.96849
4.12171
4.27326
4.42336
4.57208
4.71938
4.86508
5.00887
5.15038
5.28916
5.4247
5.55645
5.6839
5.8065
5.92377
6.03523
6.1405
6.23923
6.33114
6.41602
6.49372
6.56416
6.6273
6.68317
6.73182
6.77336
6.80789
6.83556
6.85652
6.87094
6.87903
6.88104
6.87728
6.86817
6.85417
6.83583
6.81375
6.78853
6.76075
6.73099
6.69972
6.66741
6.63442
6.6011
6.5677
6.53445
6.50155
6.46915
6.43737
6.40631
6.37608
6.34675
6.3184
6.2911
6.26491
6.23987
6.21603
6.19342
6.17203
6.15185
6.13284
6.11494
6.09802
6.08201
6.0668
6.05226
6.03822
6.02485
6.01236
6.00113
5.99136
5.98209
5.97323
5.96469
5.95637
5.9481
5.93964
5.93069
5.92081
5.90949
5.89606
5.87975
5.85967
5.83483
5.80429
5.76727
5.72343
5.67318
5.61791
5.55961
5.50007
5.44009
5.37968
5.31846
5.25596
5.19162
5.12483
5.05492
4.98123
4.90312
4.81994
4.7311
4.63609
4.53472
4.42832
4.3248
4.24103
4.24025
4.34384
4.51557
4.71838
4.8971
5.05835
5.21249
5.36477
5.51887
5.67852
5.84646
6.03217
6.24891
6.56943
0.331738
0.298497
0.274735
0.257197
0.2441
0.233968
0.225837
0.219114
0.213449
0.208655
0.204664
0.201485
0.199195
0.19794
0.198019
0.199537
0.202533
0.206941
0.212588
0.219185
0.226327
0.2335
0.240099
0.245444
0.248759
0.248951
0.24529
0.23773
0.226809
0.21359
0.199463
0.185912
0.17435
0.166111
0.162583
0.165476
0.177206
0.201238
0.242004
0.303967
0.389947
0.499755
0.630163
0.77609
0.931983
1.09276
1.25423
1.4132
1.56747
1.71562
1.85696
1.99126
2.11868
2.23961
2.35456
2.4641
2.56884
2.66933
2.76607
2.8595
2.94996
3.0377
3.12284
3.20543
3.28539
3.36256
3.43673
3.50758
3.57481
3.63806
3.69698
3.75122
3.80049
3.8445
3.88304
3.91592
3.94303
3.9643
3.97972
3.98934
3.99323
3.99155
3.98445
3.97216
3.95493
3.93307
3.90692
3.87689
3.84345
3.80712
3.7685
3.7282
3.68688
3.64521
3.60385
3.56338
3.52434
3.48721
3.45235
3.42007
3.39059
3.36406
3.34059
3.32024
3.30301
3.2889
3.27786
3.26985
3.26478
3.26259
3.26317
3.26643
3.27226
3.28056
3.29119
3.30403
3.31894
3.3358
3.35449
3.37491
3.39697
3.42065
3.44607
3.47345
3.50301
3.53519
3.56974
3.60649
3.64542
3.68647
3.72946
3.7743
3.82087
3.86902
3.91856
3.96926
4.02083
4.07296
4.12529
4.1774
4.2289
4.27939
4.32851
4.37605
4.42195
4.46641
4.50994
4.55323
4.59693
4.64136
4.6864
4.7316
4.77639
4.82015
4.86223
4.90191
4.93848
4.97121
4.99936
5.0222
5.0391
5.04969
5.05395
5.0526
5.04754
5.04473
5.06255
5.10428
5.15823
5.21328
5.25566
5.28575
5.30605
5.31862
5.3256
5.33006
5.33357
5.3454
5.36816
5.44779
0.391237
0.334715
0.296566
0.269918
0.250733
0.236296
0.22496
0.215736
0.208033
0.201499
0.195941
0.191267
0.187469
0.184613
0.182931
0.182602
0.183801
0.186647
0.191171
0.197269
0.204676
0.21294
0.221427
0.229373
0.235399
0.238133
0.23671
0.230841
0.220932
0.208025
0.193604
0.17937
0.167077
0.158501
0.155498
0.160143
0.174889
0.202624
0.246346
0.308327
0.389055
0.486719
0.597683
0.717555
0.84214
0.967932
1.09223
1.21308
1.32916
1.43964
1.54412
1.64249
1.73487
1.82154
1.90287
1.97927
2.05117
2.11898
2.18307
2.24377
2.3013
2.35585
2.40749
2.45624
2.50205
2.54478
2.58428
2.62035
2.6528
2.68142
2.70602
2.72646
2.74263
2.75445
2.76194
2.76512
2.76413
2.75912
2.75032
2.738
2.7225
2.70417
2.68345
2.66076
2.63659
2.61144
2.58584
2.56032
2.53541
2.51161
2.48941
2.46923
2.45143
2.43633
2.42415
2.41503
2.40908
2.4063
2.40668
2.41014
2.4166
2.42592
2.43798
2.45265
2.46978
2.48926
2.51094
2.53472
2.56048
2.58812
2.61756
2.6487
2.68147
2.7158
2.75165
2.78895
2.82769
2.86783
2.90944
2.95246
2.99691
3.0429
3.0905
3.13975
3.19078
3.24364
3.29835
3.35492
3.41336
3.47367
3.53581
3.59975
3.66545
3.73284
3.80186
3.87243
3.94445
4.01782
4.09242
4.16814
4.2449
4.32261
4.40123
4.48073
4.56112
4.64244
4.72474
4.808
4.89212
4.97678
5.06151
5.14573
5.22881
5.31012
5.389
5.46479
5.53671
5.60408
5.66626
5.72249
5.77227
5.81567
5.85219
5.8819
5.90185
5.91081
5.91738
5.92583
5.93108
5.92793
5.91528
5.89464
5.86542
5.82747
5.78172
5.73056
5.67531
5.62385
5.57689
5.5568
0.445125
0.362666
0.310702
0.276212
0.252246
0.234721
0.221325
0.210723
0.202117
0.195019
0.189128
0.184265
0.180346
0.177368
0.175487
0.174827
0.175548
0.177815
0.181756
0.187409
0.194663
0.203235
0.212559
0.221182
0.227817
0.231142
0.230213
0.22471
0.215052
0.202341
0.188184
0.174477
0.163236
0.156515
0.156378
0.164912
0.184246
0.216468
0.263267
0.325316
0.401721
0.489994
0.586654
0.688054
0.791001
0.89301
0.992297
1.08765
1.1783
1.26381
1.34399
1.41882
1.48843
1.55303
1.61291
1.66837
1.71974
1.76733
1.81143
1.85228
1.89008
1.92496
1.95704
1.98633
2.01285
2.03658
2.05746
2.07545
2.09052
2.10267
2.11192
2.11835
2.12208
2.12331
2.12226
2.11922
2.11454
2.10859
2.1018
2.09459
2.08743
2.08076
2.07503
2.07065
2.068
2.06743
2.06923
2.07362
2.08079
2.09083
2.10379
2.11965
2.13835
2.15976
2.18373
2.2101
2.23868
2.26926
2.30167
2.33571
2.37122
2.40806
2.44609
2.4852
2.52531
2.56635
2.60826
2.65101
2.6946
2.739
2.78424
2.83032
2.87727
2.92512
2.97391
3.02372
3.07455
3.12616
3.17859
3.23203
3.28665
3.34257
3.39991
3.45877
3.51923
3.58137
3.64527
3.71098
3.77857
3.8481
3.91959
3.99309
4.06862
4.14619
4.22582
4.30751
4.39124
4.477
4.56475
4.65445
4.74604
4.83947
4.93465
5.03148
5.1298
5.22945
5.3302
5.43177
5.53381
5.63582
5.73719
5.83716
5.93495
6.02983
6.12115
6.20825
6.29005
6.36595
6.43557
6.49789
6.55248
6.60051
6.64032
6.67123
6.69017
6.69455
6.68898
6.67781
6.65857
6.62815
6.58817
6.54119
6.48684
6.42451
6.35451
6.27865
6.19822
6.11966
6.04364
5.98018
0.483112
0.378452
0.316575
0.27683
0.249836
0.230501
0.216051
0.204911
0.196137
0.189133
0.18351
0.179027
0.175555
0.173099
0.17174
0.171518
0.172538
0.174949
0.178914
0.184626
0.192072
0.20063
0.209554
0.217656
0.22359
0.226124
0.224436
0.218347
0.208418
0.195892
0.182517
0.170339
0.161509
0.158138
0.162198
0.175476
0.199549
0.23567
0.284465
0.345532
0.41725
0.496993
0.581691
0.668421
0.754786
0.839025
0.919955
0.996833
1.06923
1.13695
1.19992
1.25819
1.3119
1.36124
1.40643
1.44772
1.48538
1.51968
1.55087
1.57918
1.60481
1.62794
1.64872
1.66728
1.68373
1.69819
1.71079
1.72165
1.73095
1.73889
1.74571
1.75171
1.75719
1.76252
1.76809
1.7743
1.78156
1.79029
1.80086
1.81362
1.82889
1.84691
1.86788
1.89191
1.91905
1.9493
1.98257
2.01874
2.05764
2.09904
2.14272
2.18842
2.23588
2.28484
2.33507
2.38633
2.43842
2.49115
2.54436
2.59793
2.65174
2.70573
2.75985
2.81405
2.86833
2.9227
2.97719
3.03184
3.0867
3.14185
3.19735
3.2533
3.30976
3.36686
3.42447
3.48225
3.54023
3.59883
3.65818
3.71842
3.77968
3.8421
3.90581
3.97094
4.0376
4.10592
4.17599
4.24792
4.32179
4.39769
4.47569
4.55584
4.63819
4.72278
4.80964
4.89877
4.99018
5.08383
5.17969
5.27767
5.37767
5.47957
5.58323
5.68845
5.79501
5.90263
6.01096
6.1196
6.22813
6.336
6.44249
6.54676
6.64758
6.74423
6.83609
6.92293
7.00255
7.07484
7.14018
7.19697
7.24393
7.28263
7.31286
7.33403
7.34315
7.33756
7.31959
7.29253
7.25548
7.20685
7.1485
7.08318
7.01132
6.93271
6.84766
6.75769
6.66409
6.57211
6.48239
6.39931
0.506676
0.385182
0.317248
0.274623
0.246165
0.226121
0.211443
0.200417
0.192
0.185509
0.180485
0.17664
0.173854
0.172173
0.171533
0.171938
0.173513
0.17644
0.180802
0.186648
0.193837
0.20183
0.209753
0.216466
0.220752
0.221588
0.218408
0.211293
0.201029
0.189027
0.177147
0.167473
0.162094
0.162927
0.171607
0.189458
0.217469
0.25617
0.305404
0.364131
0.430451
0.501907
0.575942
0.650283
0.723167
0.793361
0.860091
0.922913
0.98161
1.03611
1.08644
1.13268
1.17499
1.21353
1.24851
1.28018
1.30877
1.33457
1.35782
1.3788
1.39775
1.41493
1.43059
1.44497
1.45832
1.4709
1.483
1.49492
1.50698
1.51954
1.53295
1.5476
1.56388
1.58217
1.60282
1.62618
1.65252
1.6821
1.71508
1.75158
1.79164
1.83521
1.88221
1.93248
1.9858
2.04193
2.10058
2.16145
2.22423
2.28861
2.35429
2.42099
2.48843
2.55637
2.62459
2.69292
2.76117
2.82924
2.89699
2.96436
3.03129
3.09775
3.16374
3.22928
3.29439
3.35911
3.42352
3.48769
3.55171
3.6157
3.67976
3.74403
3.80842
3.87237
3.93601
3.99977
4.06381
4.12829
4.19331
4.25903
4.32557
4.39308
4.46173
4.53165
4.60301
4.67592
4.7505
4.82687
4.90514
4.98539
5.06771
5.15214
5.23873
5.32749
5.41844
5.51158
5.6069
5.70433
5.80382
5.90526
6.0085
6.11335
6.21963
6.32711
6.43552
6.5446
6.65396
6.76291
6.8711
6.97798
7.08285
7.18505
7.28206
7.3736
7.45904
7.5397
7.61035
7.67202
7.72486
7.76831
7.80228
7.82691
7.84227
7.84797
7.84201
7.82228
7.78966
7.7462
7.69201
7.62664
7.55186
7.47019
7.3827
7.28986
7.19223
7.09134
6.9885
6.88801
6.7903
6.69744
0.516442
0.385356
0.315184
0.271874
0.243293
0.223422
0.209142
0.198696
0.190983
0.185252
0.180992
0.177896
0.175934
0.175
0.174988
0.175918
0.1779
0.181081
0.185536
0.191194
0.197759
0.204626
0.210908
0.215564
0.217598
0.216292
0.211419
0.20337
0.193167
0.182349
0.172776
0.166401
0.165047
0.170259
0.183239
0.20484
0.235531
0.275281
0.323421
0.378602
0.438935
0.502288
0.566617
0.630212
0.691807
0.750565
0.805995
0.857852
0.906052
0.950608
0.991594
1.02913
1.06337
1.09449
1.12272
1.14831
1.17151
1.19262
1.21195
1.22981
1.24653
1.26245
1.2779
1.29323
1.3088
1.32499
1.34217
1.36074
1.38107
1.40355
1.42856
1.45644
1.4875
1.52201
1.56019
1.6022
1.64813
1.69802
1.75181
1.80941
1.87065
1.93531
2.00313
2.07382
2.14706
2.22252
2.29987
2.37877
2.4589
2.53997
2.62168
2.70377
2.78601
2.86818
2.95009
3.03159
3.11254
3.19282
3.27237
3.3511
3.42898
3.50601
3.5822
3.65759
3.73221
3.80613
3.87942
3.95216
4.02448
4.09652
4.16825
4.239
4.30886
4.37837
4.44769
4.51698
4.58634
4.65587
4.7257
4.79596
4.86678
4.93834
5.0108
5.08431
5.15905
5.23516
5.31275
5.39195
5.47285
5.55556
5.64014
5.72665
5.81511
5.9055
5.99782
6.09206
6.18815
6.28604
6.38567
6.48694
6.58968
6.69354
6.79835
6.90388
7.00986
7.11608
7.22246
7.32724
7.43044
7.53159
7.62999
7.7266
7.81487
7.89623
7.97011
8.03617
8.09298
8.14023
8.17762
8.20493
8.22203
8.22864
8.22498
8.21098
8.18558
8.14744
8.09671
8.03452
7.96149
7.8781
7.78605
7.68759
7.58422
7.47699
7.36692
7.25562
7.14449
7.03707
6.9336
6.83526
0.51291
0.380955
0.312445
0.270396
0.242721
0.223609
0.210084
0.200439
0.193551
0.188632
0.185159
0.182878
0.181579
0.180996
0.181171
0.182213
0.184245
0.187351
0.191506
0.196507
0.201929
0.207116
0.211241
0.213447
0.21303
0.20963
0.203379
0.194954
0.185541
0.176686
0.170099
0.167436
0.170135
0.179316
0.195771
0.21995
0.25191
0.291229
0.336958
0.38768
0.441687
0.497228
0.552734
0.60696
0.65903
0.708402
0.75479
0.798087
0.838293
0.87548
0.909757
0.941267
0.970182
0.996708
1.02108
1.04356
1.06447
1.08411
1.10284
1.12103
1.13907
1.15733
1.17624
1.19618
1.21757
1.24083
1.26634
1.29449
1.32564
1.36012
1.39822
1.44017
1.48616
1.53631
1.59067
1.64923
1.71195
1.77871
1.84932
1.92356
2.00119
2.08191
2.16541
2.25137
2.33945
2.42934
2.5207
2.61323
2.70664
2.80063
2.89496
2.98938
3.08366
3.1776
3.27102
3.36376
3.45569
3.54668
3.63666
3.72556
3.81332
3.89995
3.98547
4.06994
4.1534
4.2359
4.31751
4.39833
4.4784
4.55692
4.63384
4.70987
4.78524
4.86014
4.93466
5.00888
5.08288
5.15676
5.23063
5.30461
5.37886
5.45355
5.52884
5.6049
5.68191
5.76001
5.83932
5.91997
6.00204
6.08562
6.17079
6.25762
6.34612
6.43618
6.52778
6.62089
6.71544
6.81134
6.90852
7.00699
7.10675
7.20673
7.30706
7.40752
7.50782
7.60781
7.7091
7.80621
7.90068
7.99215
8.07968
8.16218
8.23759
8.30521
8.36428
8.41413
8.45386
8.48303
8.50154
8.50931
8.50601
8.49093
8.46448
8.42695
8.378
8.31702
8.24409
8.15987
8.0652
7.96122
7.84966
7.7327
7.61215
7.48957
7.36637
7.24433
7.12492
7.01113
6.90306
6.80142
0.496691
0.373947
0.310936
0.271651
0.245471
0.227324
0.214577
0.205637
0.1994
0.19507
0.192127
0.190274
0.188984
0.188303
0.188336
0.189202
0.190977
0.193651
0.197076
0.200934
0.204732
0.207837
0.209562
0.209303
0.206689
0.201711
0.1948
0.186821
0.178989
0.172719
0.169438
0.17043
0.176729
0.189079
0.207929
0.23341
0.265282
0.302895
0.345208
0.390896
0.43852
0.48671
0.534309
0.58045
0.624558
0.666313
0.705579
0.742345
0.776677
0.808683
0.8385
0.866291
0.892248
0.916593
0.939581
0.961503
0.982681
1.00347
1.02424
1.04538
1.0673
1.09041
1.11512
1.14182
1.17093
1.20282
1.23785
1.27635
1.31859
1.36482
1.41522
1.46991
1.52895
1.59235
1.66004
1.73193
1.80789
1.88772
1.97121
2.05809
2.1481
2.24092
2.33628
2.43385
2.53332
2.63441
2.73682
2.84025
2.94444
3.04913
3.15407
3.25903
3.36376
3.46807
3.57174
3.67461
3.77651
3.87731
3.9769
4.07519
4.17213
4.2677
4.36196
4.45498
4.54683
4.63751
4.72716
4.81474
4.89998
4.98365
5.06601
5.14737
5.22792
5.30778
5.38698
5.46554
5.54354
5.62109
5.69829
5.77526
5.85219
5.92924
6.00659
6.08435
6.16271
6.24185
6.32188
6.40291
6.48502
6.56827
6.65275
6.73856
6.8259
6.9142
7.00349
7.0938
7.18504
7.27708
7.36984
7.46343
7.55908
7.65285
7.74616
7.83886
7.93063
8.02112
8.11006
8.19603
8.27859
8.35716
8.43065
8.49769
8.55679
8.60704
8.64785
8.67849
8.69778
8.70527
8.7012
8.68569
8.65837
8.6182
8.56544
8.5006
8.42383
8.33518
8.23511
8.12404
8.00254
7.87307
7.73786
7.59923
7.4593
7.32006
7.18328
7.0508
6.92418
6.80564
6.69571
6.59456
0.472674
0.366862
0.311573
0.275769
0.251212
0.233899
0.221666
0.2131
0.207143
0.203011
0.200187
0.197975
0.196316
0.195278
0.194957
0.195418
0.196653
0.198546
0.200852
0.203191
0.205079
0.205992
0.20545
0.203129
0.198965
0.193227
0.186531
0.179794
0.174131
0.170716
0.170644
0.174831
0.183967
0.198493
0.218594
0.244164
0.274782
0.309711
0.347956
0.388382
0.429846
0.471329
0.512021
0.551352
0.588981
0.62475
0.658636
0.690698
0.721046
0.749816
0.777163
0.803264
0.828319
0.852559
0.876247
0.899679
0.923179
0.947099
0.97181
0.997693
1.02513
1.0545
1.08617
1.12052
1.15788
1.1986
1.24295
1.29119
1.3435
1.40006
1.46096
1.52624
1.5959
1.66986
1.74802
1.83024
1.91636
2.00621
2.09954
2.19611
2.29565
2.39788
2.50252
2.6093
2.71793
2.82815
2.93968
3.05227
3.16566
3.27959
3.39382
3.50811
3.62221
3.73589
3.84892
3.96109
4.07222
4.18213
4.29067
4.39771
4.50319
4.60711
4.7096
4.81069
4.91069
5.00838
5.10315
5.19582
5.28657
5.37561
5.46316
5.54946
5.6347
5.71898
5.80226
5.88453
5.96587
6.0464
6.12623
6.2055
6.28438
6.36314
6.44204
6.52083
6.59981
6.67921
6.75916
6.83973
6.921
7.003
7.08577
7.16947
7.25511
7.34075
7.42643
7.51254
7.59896
7.68554
7.77211
7.85853
7.9447
8.0298
8.11369
8.1961
8.27667
8.35497
8.4305
8.50246
8.57006
8.63252
8.68866
8.73711
8.77632
8.80547
8.82434
8.83225
8.82777
8.81018
8.7797
8.73648
8.68025
8.60821
8.52081
8.41953
8.30538
8.17939
8.04283
7.89722
7.74423
7.58591
7.42456
7.26259
7.10232
6.94586
6.79515
6.65205
6.5181
6.39522
6.28386
6.18427
0.444349
0.361022
0.314792
0.282708
0.259566
0.242674
0.230458
0.221741
0.215537
0.211082
0.207508
0.204594
0.202335
0.200765
0.19991
0.199749
0.200182
0.201013
0.201947
0.202613
0.202611
0.201575
0.199253
0.195572
0.190698
0.185069
0.179358
0.174414
0.171161
0.170494
0.173193
0.17987
0.190943
0.206628
0.226914
0.251549
0.280036
0.311662
0.345567
0.380849
0.416657
0.45228
0.487187
0.52104
0.55367
0.585042
0.615211
0.644287
0.672409
0.699728
0.726403
0.75261
0.778549
0.804442
0.830539
0.857117
0.884477
0.912941
0.942848
0.97454
1.00835
1.04458
1.08355
1.12558
1.17096
1.21997
1.27282
1.32969
1.39072
1.456
1.52558
1.5995
1.67769
1.76008
1.84654
1.93695
2.03118
2.12904
2.23031
2.33475
2.4421
2.5521
2.66449
2.77901
2.89541
3.01343
3.13282
3.25336
3.37481
3.49691
3.61943
3.74206
3.86452
3.98658
4.10801
4.22858
4.34807
4.46627
4.58297
4.69801
4.81132
4.92286
5.03321
5.14115
5.24576
5.3479
5.44773
5.54558
5.6416
5.73553
5.82767
5.91823
6.00747
6.09543
6.18203
6.26722
6.35111
6.43384
6.51555
6.59636
6.67647
6.75621
6.83656
6.91591
6.99489
7.07389
7.15306
7.23245
7.31211
7.39202
7.4722
7.55267
7.63355
7.71437
7.79502
7.87544
7.95547
8.03489
8.11348
8.19098
8.26709
8.3414
8.41356
8.48317
8.54982
8.61307
8.67239
8.72708
8.7763
8.81909
8.85402
8.88008
8.89579
8.90026
8.89319
8.87387
8.83986
8.78929
8.72305
8.64149
8.54478
8.43274
8.3057
8.16457
8.01066
7.84563
7.67146
7.49033
7.30454
7.11661
6.92906
6.74437
6.56483
6.39247
6.22913
6.07658
5.93618
5.80959
5.69707
5.59923
0.415122
0.35743
0.32086
0.292379
0.270155
0.253029
0.240157
0.230668
0.223588
0.217862
0.213156
0.209327
0.206307
0.204048
0.202488
0.201519
0.200969
0.2006
0.200125
0.199236
0.197657
0.195194
0.191787
0.187546
0.182776
0.177964
0.173739
0.170804
0.169866
0.171559
0.176406
0.184786
0.196921
0.212864
0.232484
0.255467
0.281327
0.309453
0.339168
0.369808
0.400788
0.431649
0.462083
0.491923
0.521126
0.54974
0.577874
0.605668
0.633274
0.660843
0.688526
0.716486
0.744904
0.773982
0.803934
0.834993
0.86741
0.901452
0.937406
0.975562
1.01618
1.05951
1.1058
1.15535
1.2084
1.26518
1.32588
1.39061
1.45949
1.53256
1.60987
1.69139
1.77705
1.86682
1.96068
2.05852
2.16018
2.26541
2.37399
2.48568
2.60021
2.71735
2.83684
2.95839
3.08174
3.20666
3.33292
3.46035
3.58877
3.71796
3.84771
3.97765
4.10711
4.23603
4.36425
4.49158
4.6178
4.74272
4.86611
4.98774
5.10799
5.22559
5.33946
5.45049
5.55875
5.66458
5.76825
5.87011
5.97096
6.06869
6.16429
6.25806
6.35022
6.44075
6.52956
6.6166
6.70203
6.78603
6.86872
6.95025
7.03082
7.11064
7.19002
7.26874
7.34696
7.42484
7.50244
7.57981
7.65693
7.73377
7.81029
7.88643
7.96211
8.03714
8.11134
8.18453
8.25649
8.32695
8.39561
8.46215
8.52619
8.5873
8.64503
8.6989
8.74844
8.79314
8.83249
8.86588
8.89256
8.91147
8.92085
8.91991
8.90656
8.87875
8.83657
8.77952
8.70671
8.61732
8.51104
8.38791
8.24829
8.09262
7.92197
7.73796
7.54264
7.33839
7.1278
6.91359
6.69844
6.48499
6.27575
6.073
5.87876
5.69458
5.52215
5.36297
5.21814
5.08893
4.97541
4.87833
0.390002
0.357124
0.330015
0.304607
0.282516
0.26437
0.250099
0.238904
0.229921
0.222619
0.216625
0.211744
0.207837
0.204769
0.20239
0.200521
0.198949
0.197435
0.195738
0.193642
0.190998
0.187755
0.183987
0.179909
0.175868
0.172321
0.16979
0.168811
0.169888
0.173451
0.179827
0.189229
0.201745
0.217332
0.235809
0.256872
0.280114
0.305068
0.331255
0.358232
0.385636
0.41321
0.44081
0.468389
0.495987
0.5237
0.551662
0.580029
0.60895
0.638563
0.669
0.700414
0.732974
0.766859
0.802234
0.839265
0.878133
0.919033
0.962172
1.00775
1.0559
1.10696
1.16119
1.21885
1.28015
1.34525
1.41428
1.48734
1.56449
1.64575
1.73105
1.82025
1.91314
2.00993
2.11087
2.21594
2.32501
2.43733
2.55269
2.67095
2.79187
2.91519
3.04061
3.16779
3.29645
3.42638
3.55745
3.68966
3.82307
3.95738
4.09277
4.22935
4.36391
4.49759
4.63047
4.76256
4.89366
5.02386
5.15312
5.27977
5.40242
5.52192
5.63821
5.75099
5.86089
5.96826
6.07341
6.17655
6.27788
6.37709
6.47425
6.56954
6.66307
6.75466
6.84427
6.93195
7.01783
7.10205
7.18477
7.26615
7.34634
7.42552
7.50382
7.58126
7.65789
7.73374
7.80884
7.88315
7.95663
8.0292
8.10076
8.17119
8.24034
8.30802
8.37399
8.43799
8.49974
8.55891
8.61512
8.66797
8.71701
8.76173
8.80159
8.83601
8.86442
8.88626
8.90096
8.90799
8.90671
8.896
8.87228
8.83544
8.78482
8.71935
8.63791
8.53974
8.42423
8.29088
8.13974
7.97135
7.78658
7.58677
7.37378
7.14994
6.91787
6.68045
6.44063
6.20128
5.96497
5.73425
5.51144
5.29845
5.09689
4.90818
4.73345
4.57359
4.42922
4.30115
4.18926
4.09409
0.376287
0.361687
0.342859
0.319338
0.296049
0.275388
0.258318
0.244716
0.233816
0.224909
0.217579
0.211609
0.206792
0.202901
0.19971
0.196995
0.194533
0.192114
0.189562
0.186753
0.18364
0.180269
0.176787
0.173443
0.170564
0.168532
0.167746
0.168597
0.171428
0.176523
0.184076
0.194194
0.206891
0.222086
0.239609
0.259213
0.280609
0.303488
0.32756
0.352575
0.378353
0.40479
0.431855
0.459583
0.488055
0.517381
0.547688
0.579099
0.611714
0.64569
0.681216
0.71846
0.757597
0.798732
0.841883
0.887164
0.934703
0.984569
1.03679
1.09133
1.14794
1.20758
1.27047
1.33691
1.40716
1.4811
1.55863
1.63991
1.72502
1.81398
1.90675
2.00336
2.10387
2.20837
2.31689
2.42977
2.54852
2.66887
2.79105
2.9155
3.04207
3.17048
3.30038
3.43142
3.56331
3.6958
3.82887
3.96297
4.0979
4.23324
4.36896
4.50482
4.64011
4.77479
4.90873
5.04248
5.17542
5.30618
5.43368
5.55825
5.67977
5.79838
5.9142
6.02736
6.13797
6.24617
6.35212
6.45598
6.55787
6.65781
6.75585
6.85204
6.94618
7.03762
7.12684
7.21403
7.29933
7.38282
7.46467
7.54503
7.62401
7.70169
7.77812
7.8533
7.9272
7.9998
8.07104
8.14084
8.20908
8.27565
8.34038
8.40309
8.46357
8.52157
8.57678
8.62887
8.67748
8.72219
8.76255
8.79807
8.82821
8.85236
8.8699
8.88015
8.88246
8.87617
8.86065
8.83533
8.79958
8.7525
8.69079
8.61414
8.52199
8.41347
8.28758
8.14401
7.98278
7.80388
7.60794
7.39602
7.16962
6.93072
6.68187
6.42597
6.16596
5.90506
5.64634
5.39254
5.14614
4.90927
4.6836
4.47047
4.27097
4.0862
3.91668
3.76277
3.62468
3.50273
3.39667
3.30661
0.408574
0.386301
0.36331
0.334958
0.307321
0.283132
0.26317
0.247171
0.234412
0.22405
0.215551
0.208672
0.203106
0.198545
0.194714
0.191375
0.188328
0.185414
0.182528
0.179623
0.176726
0.173937
0.171435
0.169463
0.168304
0.168256
0.169614
0.172655
0.177606
0.184651
0.193911
0.205445
0.219247
0.235243
0.253292
0.273228
0.294873
0.318036
0.342669
0.368731
0.396203
0.425099
0.455466
0.487376
0.520893
0.556071
0.592917
0.631373
0.671252
0.712858
0.756627
0.802694
0.851217
0.902248
0.95556
1.01122
1.06933
1.12995
1.1931
1.25891
1.3276
1.39924
1.47401
1.55244
1.63618
1.72333
1.81203
1.90356
1.99817
2.09592
2.19681
2.30089
2.40818
2.51865
2.63223
2.74897
2.86909
2.9915
3.11579
3.24179
3.36929
3.49805
3.62778
3.75815
3.88886
4.01964
4.15051
4.28181
4.4131
4.54441
4.67584
4.80733
4.93897
5.07113
5.20275
5.33245
5.45983
5.58497
5.70777
5.8282
5.94621
6.06182
6.17507
6.286
6.3947
6.50123
6.60568
6.70814
6.80872
6.9075
7.00455
7.09988
7.19326
7.28465
7.37407
7.46156
7.54664
7.62923
7.70969
7.78821
7.86491
7.93981
8.01291
8.08416
8.15349
8.2208
8.28598
8.34888
8.40935
8.46719
8.52218
8.57406
8.62257
8.66736
8.70807
8.74428
8.77554
8.80134
8.82116
8.83441
8.84045
8.83861
8.82818
8.80843
8.77864
8.73809
8.68613
8.62211
8.54539
8.45524
8.35053
8.23049
8.09462
7.94212
7.7708
7.58203
7.37692
7.15602
6.92028
6.67115
6.41064
6.1415
5.86691
5.59015
5.31455
5.04317
4.77872
4.52347
4.27952
4.04837
3.83104
3.6283
3.44072
3.26863
3.11217
2.97136
2.84605
2.73609
2.641
2.5605
0.472137
0.41852
0.382728
0.34644
0.313178
0.284993
0.262443
0.244849
0.231088
0.220173
0.211234
0.204043
0.198236
0.193482
0.189505
0.186095
0.183093
0.180404
0.177994
0.175884
0.17415
0.172933
0.172438
0.172891
0.174555
0.17769
0.182549
0.189351
0.198249
0.209355
0.222809
0.238736
0.25711
0.277797
0.300658
0.325484
0.352026
0.379976
0.409726
0.44145
0.475232
0.511183
0.549424
0.590077
0.632971
0.67808
0.72553
0.775435
0.827971
0.88322
0.94117
1.00198
1.06613
1.13556
1.20645
1.27855
1.35269
1.42897
1.50741
1.58808
1.67096
1.7559
1.84284
1.93198
2.02385
2.1181
2.21413
2.31197
2.4117
2.51333
2.61688
2.72242
2.82998
2.93958
3.05115
3.16462
3.27996
3.39697
3.51545
3.63522
3.75609
3.87789
4.00043
4.12351
4.24694
4.37054
4.49427
4.61803
4.74171
4.8655
4.99031
5.11547
5.24024
5.36367
5.48596
5.60709