/*--------------------------------*- C++ -*----------------------------------*\
| =========                 |                                                 |
| \\      /  F ield         | OpenFOAM: The Open Source CFD Toolbox           |
|  \\    /   O peration     | Version:  2112                                  |
|   \\  /    A nd           | Website:  www.openfoam.com                      |
|    \\/     M anipulation  |                                                 |
\*---------------------------------------------------------------------------*/
FoamFile
{
    version     2.0;
    format      ascii;
    arch        "LSB;label=32;scalar=64";
    class       volScalarField;
    location    "0.23";
    object      omegaU;
}
// * * * * * * * * * * * * * * * * * * * * * * * * * * * * * * * * * * * * * //

dimensions      [0 0 -1 0 0 0 0];

internalField   nonuniform List<scalar> 
12225
(
55358.2
78384.7
85916.3
87125.2
85906.8
83797.7
81412.4
79024.8
76774.7
74731.8
72919.8
71331.2
69941.2
68720.8
67635.2
66684.2
65718.2
64686.2
3653.48
8242.76
12345.9
15711
18345.3
20348.1
21843.1
22941.2
23730.9
24282.4
24653.7
24894.4
25046.2
25138.8
25197.1
25243.5
25350.4
25448
285.034
735.112
1392.17
2190.14
3060.41
3930.86
4746.44
5478.69
6115.96
6661.52
7128.58
7535.12
7899.34
8236.07
8556.89
8871.78
9186.86
9469.59
113.519
155.957
227.683
332.015
470.877
642.297
838.493
1046.31
1255.44
1458.29
1651.06
1832.68
2003.65
2165.24
2318.95
2465.76
2605.05
2726
100.425
105.49
114.96
129.853
150.935
178.784
213.356
253.287
297.117
343.383
390.472
437.291
483.428
528.741
573.148
616.331
657.748
695.074
99.14
99.7338
101.108
103.528
107.126
112.016
118.265
125.838
134.607
144.398
154.937
165.974
177.348
188.882
200.403
211.756
222.638
232.64
99.001
99.0312
99.1868
99.5348
100.122
100.974
102.121
103.577
105.341
107.401
109.735
112.31
115.082
117.985
120.941
123.881
126.707
129.344
98.9775
98.9352
98.919
98.9404
99.0124
99.1415
99.3328
99.591
99.9188
100.317
100.786
101.323
101.92
102.566
103.243
103.933
104.616
105.276
98.9672
98.9098
98.8656
98.8366
98.8254
98.8321
98.8556
98.895
98.9502
99.021
99.1073
99.2093
99.3269
99.4595
99.6053
99.7619
99.926
100.093
98.9601
98.8952
98.8416
98.7999
98.7707
98.7532
98.7448
98.7431
98.7469
98.7555
98.7687
98.7867
98.81
98.8395
98.8755
98.9182
98.9669
99.0192
98.955
98.8845
98.8248
98.7759
98.7379
98.7103
98.6909
98.6773
98.6678
98.6614
98.6575
98.6563
98.6583
98.6641
98.6743
98.6888
98.7074
98.7284
98.9514
98.877
98.8128
98.7587
98.7147
98.68
98.6532
98.6325
98.6162
98.6032
98.5929
98.5849
98.5794
98.5766
98.5768
98.5801
98.5862
98.5938
98.9486
98.8709
98.803
98.7447
98.6956
98.655
98.6219
98.5947
98.5723
98.5536
98.538
98.5251
98.5147
98.5067
98.5008
98.4971
98.4951
98.4942
98.9462
98.8656
98.7941
98.7317
98.6778
98.6319
98.5928
98.5594
98.5307
98.5058
98.4843
98.4656
98.4497
98.4362
98.4248
98.4151
98.4068
98.3992
98.9443
98.8612
98.7865
98.7204
98.6622
98.6113
98.5668
98.5277
98.493
98.4621
98.4345
98.4097
98.3874
98.3675
98.3496
98.3333
98.3184
98.3043
98.9428
98.8577
98.7804
98.7111
98.6492
98.594
98.5447
98.5005
98.4605
98.424
98.3906
98.3598
98.3313
98.3049
98.2802
98.257
98.2351
98.2143
98.9418
98.8554
98.7761
98.7043
98.6394
98.5806
98.5274
98.4788
98.4341
98.3928
98.3543
98.3181
98.284
98.2517
98.2209
98.1916
98.1634
98.1365
98.9414
98.8543
98.7739
98.7004
98.6333
98.5719
98.5156
98.4636
98.4152
98.3698
98.3269
98.2862
98.2474
98.2101
98.1743
98.1398
98.1065
98.0744
98.9418
98.8549
98.7743
98.7002
98.6321
98.5693
98.5112
98.457
98.4061
98.358
98.3121
98.2681
98.2256
98.1847
98.145
98.1065
98.0692
98.0332
98.9429
98.8571
98.7774
98.704
98.6364
98.5738
98.5156
98.4611
98.4097
98.3608
98.3138
98.2685
98.2245
98.1818
98.1401
98.0996
98.0601
98.0218
98.9445
98.8603
98.7823
98.7103
98.6439
98.5824
98.5253
98.4719
98.4213
98.3731
98.3267
98.2817
98.238
98.1952
98.1534
98.1124
98.0724
98.0335
98.9468
98.8648
98.7889
98.7189
98.6544
98.595
98.54
98.4888
98.4405
98.3946
98.3506
98.3081
98.2666
98.2262
98.1865
98.1477
98.1097
98.0728
98.95
98.8711
98.798
98.7307
98.6692
98.6135
98.5632
98.5177
98.4765
98.4392
98.4053
98.3745
98.3467
98.3217
98.2994
98.2798
98.263
98.2493
98.9546
98.8804
98.8129
98.7537
98.7055
98.6711
98.6529
98.6528
98.6726
98.7141
98.7782
98.8654
98.9758
99.1087
99.2635
99.439
99.6342
99.8481
98.9648
98.9128
98.8972
98.9418
99.0734
99.3178
99.698
100.232
100.933
101.806
102.85
104.058
105.416
106.909
108.519
110.232
112.032
113.907
99.0739
99.3869
100.217
101.79
104.222
107.622
112.095
117.7
124.444
132.278
141.107
150.802
161.17
172.049
183.327
194.91
206.714
218.658
101.418
107.649
120.373
140.724
168.869
204.235
246.909
296.555
352.413
413.371
478.102
545.227
613.157
680.839
747.68
813.32
877.474
939.907
151.62
259.868
443.704
692.419
998.511
1339.82
1702.53
2074.02
2443.14
2800.53
3139.12
3454.22
3743.88
4007.6
4246.14
4461.52
4656.66
4835.83
1571.94
3751.62
5989.13
8067.18
9895.57
11459.8
12773.8
13868.5
14776.5
15526.8
16144.3
16649.6
17060.4
17391.6
17656.1
17865.5
18030.3
18159.5
36455.4
55152.3
63349.6
66361.3
66983.1
66527.3
65583.8
64421.7
63172.4
61905.6
60662
59467.2
58337.5
57282.7
56307.4
55412.6
54593
53846.3
357.514
351.829
346.877
342.451
339.188
337.345
336.941
337.895
340.09
343.397
347.687
352.806
358.495
364.068
369.082
373.234
376.287
378.075
378.511
377.584
375.348
371.916
367.464
362.203
356.175
349.995
344.696
341.423
341.395
345.573
354.501
368.452
387.812
413.413
446.106
485.577
530.099
577.451
625.896
674.622
723.572
773.048
823.395
874.833
927.418
981.064
1035.59
1090.8
1146.51
1202.6
1259.01
1315.78
1372.99
1430.78
1489.29
1548.69
1609.13
1670.76
1733.69
1798.04
1863.89
1931.31
2000.32
2070.95
2143.18
2216.99
2292.32
2369.09
2447.2
2526.53
2606.96
2688.33
2770.49
2853.26
2936.47
3019.92
3103.43
3186.81
3269.87
3352.41
3434.26
3515.25
3595.2
3673.98
3751.43
3827.45
3901.92
3974.75
4045.88
4115.25
4182.82
4248.54
4312.4
4374.37
4434.43
4492.55
4548.73
4602.95
4655.22
4705.56
4753.98
4800.51
4845.19
4888.07
4929.2
4968.63
5006.4
5042.58
5077.23
5110.39
5142.13
5172.5
5201.54
5229.31
5255.84
5281.17
5305.31
5328.26
5350
5370.52
5389.75
5407.64
5424.08
5438.96
5452.1
5463.31
5472.33
5478.92
5482.76
5483.38
5480.16
5472.53
5460.39
5443.14
5420.23
5390.94
5354.54
5310.36
5257.68
5195.81
5124.06
5041.74
4948.04
4841.96
4722.21
4587.36
4436.25
4268.34
4083.49
3881.84
3663.95
3430.86
3184.29
2926.73
2661.65
2393.56
2128.18
1872.54
1634.8
1423.89
1249.52
1124.67
1055.57
1044.78
1105.4
1220.58
1389.82
1616.48
1892.4
2206.57
2551.68
2920.36
3305.23
3699.31
4096.14
4489.41
4874.67
5244.75
5615.68
5924.65
415.929
395.206
376.168
358.824
343.59
330.481
319.345
310.007
302.323
296.19
291.557
288.415
286.789
286.745
288.247
291.161
295.278
300.335
306.027
312.018
317.944
323.426
328.074
331.505
333.19
332.472
329.405
324.578
319.041
314.078
311.021
311.179
315.812
325.964
342.117
363.894
390.073
419.054
449.447
480.397
511.555
542.885
574.469
606.384
638.654
671.25
704.104
737.14
770.29
803.508
836.775
870.094
903.487
936.985
970.623
1004.43
1038.44
1072.67
1107.12
1141.8
1176.68
1211.74
1246.94
1282.23
1317.55
1352.82
1387.97
1422.91
1457.54
1491.76
1525.49
1558.63
1591.08
1622.77
1653.6
1683.52
1712.45
1740.36
1767.2
1792.97
1817.64
1841.24
1863.78
1885.31
1905.88
1925.58
1944.48
1962.7
1980.36
1997.64
2014.73
2031.86
2049.32
2067.38
2086.28
2106.21
2127.25
2149.41
2172.58
2196.59
2221.26
2246.36
2271.68
2296.99
2322.11
2346.85
2371.05
2394.57
2417.26
2439.01
2459.71
2479.26
2497.57
2514.53
2530.06
2544.03
2556.32
2566.81
2575.34
2581.74
2585.85
2587.52
2586.59
2582.94
2576.45
2566.94
2554.2
2537.93
2517.83
2494.03
2466.46
2435.19
2399.96
2360.61
2317.11
2269.43
2217.69
2162.13
2103.18
2041.51
1978.15
1914.55
1852.74
1795.22
1744.43
1701.22
1663.4
1627.05
1589.9
1551.64
1512.42
1472.48
1432.14
1391.78
1351.88
1313.04
1275.94
1241.39
1210.26
1183.56
1162.57
1149.82
1149.08
1162.05
1188.1
1223.26
1268.16
1319.69
1376.51
1438.01
1503.77
1573.43
1646.7
1723.36
1803.3
1886.64
1974.13
2070.16
2191.68
2365.13
493.31
447.348
409.398
377.788
351.736
330.368
312.841
298.434
286.57
276.811
268.841
262.465
257.585
254.228
252.6
252.81
254.917
258.899
264.638
271.897
280.319
289.431
298.691
307.614
314.68
318.682
319.003
315.722
309.657
302.215
295.172
290.429
289.705
294.156
304.086
318.907
337.418
358.247
380.257
402.742
425.398
448.17
471.102
494.241
517.593
541.124
564.773
588.475
612.176
635.836
659.437
682.977
706.462
729.905
753.314
776.693
800.036
823.327
846.543
869.645
892.588
915.318
937.772
959.879
981.566
1002.75
1023.36
1043.31
1062.53
1080.93
1098.47
1115.09
1130.73
1145.37
1158.98
1171.57
1183.13
1193.69
1203.28
1211.97
1219.81
1226.9
1233.31
1239.18
1244.62
1249.78
1254.81
1259.91
1265.22
1270.93
1277.17
1284
1291.46
1299.48
1307.98
1316.8
1325.73
1334.56
1343.06
1351.01
1358.2
1364.47
1369.67
1373.7
1376.51
1378.06
1378.35
1377.39
1375.24
1371.95
1367.62
1362.35
1356.25
1349.48
1342.19
1334.57
1326.86
1319.28
1312.1
1305.56
1299.84
1295.04
1291.09
1287.73
1284.61
1281.58
1278.48
1275.3
1272.01
1268.19
1263.82
1258.92
1253.5
1247.61
1241.29
1234.66
1227.82
1220.94
1214.24
1207.98
1202.47
1198.05
1195.09
1193.88
1194.56
1196.96
1200.6
1204.95
1209.71
1214.84
1220.3
1226.09
1232.2
1238.61
1245.31
1252.3
1259.59
1267.24
1275.22
1283.69
1292.96
1302.73
1313.98
1325.91
1338.88
1352.32
1366.2
1379.88
1393.23
1406.17
1418.71
1430.97
1443.11
1455.35
1467.93
1481.25
1495.94
1513.98
1539.23
1581.91
564.71
488.518
429.5
383.581
348.06
320.626
299.368
282.785
269.741
259.4
251.171
244.652
239.573
235.858
233.625
232.998
234.124
237.143
242.142
249.11
257.903
268.282
280.036
291.588
301.417
308.019
310.347
308.174
302.229
294.069
285.78
279.542
277.133
279.537
286.804
298.228
312.692
329.045
346.373
364.111
382.007
400.01
418.151
436.465
454.953
473.582
492.293
511.021
529.709
548.311
566.801
585.167
603.404
621.514
639.493
657.332
675.014
692.509
709.777
726.77
743.429
759.69
775.481
790.729
805.361
819.302
832.485
844.845
856.329
866.89
876.497
885.127
892.775
899.447
905.165
909.962
913.886
916.997
919.363
921.063
922.181
922.808
923.035
922.956
922.662
922.239
921.767
921.314
920.936
920.667
920.526
920.508
920.594
920.749
920.934
921.107
921.228
921.263
921.187
920.986
920.655
920.199
919.632
918.975
918.256
917.505
916.758
916.052
915.428
914.926
914.59
914.462
914.587
915.011
915.778
916.932
918.518
920.576
923.138
926.229
929.854
934.016
938.728
943.958
949.679
955.71
961.987
968.496
975.233
982.196
989.411
996.911
1004.73
1012.92
1021.53
1030.61
1040.24
1050.48
1061.4
1073.08
1085.58
1098.96
1113.24
1128.41
1144.42
1161.17
1178.54
1196.41
1214.71
1233.39
1252.38
1271.58
1290.88
1310.22
1329.48
1348.48
1367.04
1385.29
1402.95
1419.69
1436.39
1450.45
1462.29
1473.01
1482.95
1491.46
1498.35
1503.85
1508.04
1510.72
1511.8
1511.37
1509.59
1506.64
1502.75
1498.2
1493.36
1489.28
1486.86
1489.6
627.415
516.702
436.225
377.588
335.024
304.111
281.522
264.832
252.328
242.826
235.533
229.935
225.683
222.784
221.204
221
222.292
225.253
230.078
236.953
246.191
257.603
270.214
282.807
293.685
301.149
304.006
301.996
295.956
287.653
279.342
273.192
270.751
272.67
278.767
288.298
300.289
313.81
328.151
342.876
357.782
372.819
388.001
403.343
418.841
434.456
450.133
465.806
481.418
496.918
512.274
527.462
542.47
557.286
571.899
586.289
600.429
614.283
627.805
640.941
653.631
665.809
677.41
688.368
698.622
708.114
716.797
724.634
731.598
737.677
742.873
747.203
750.698
753.401
755.369
756.672
757.386
757.594
757.387
756.855
756.087
755.171
754.188
753.211
752.304
751.521
750.904
750.482
750.274
750.288
750.525
750.978
751.638
752.492
753.531
754.745
756.129
757.68
759.399
761.288
763.353
765.602
768.043
770.686
773.542
776.623
779.943
783.515
787.353
791.473
795.888
800.614
805.663
811.049
816.785
822.882
829.352
836.21
843.467
851.133
859.219
867.718
876.594
885.849
895.485
905.504
915.92
926.754
938.03
949.773
962.016
974.79
988.129
1002.07
1016.63
1031.86
1047.77
1064.4
1081.77
1099.89
1118.76
1138.38
1158.71
1179.74
1201.4
1223.63
1246.37
1269.52
1292.99
1316.75
1340.71
1364.75
1388.61
1412.24
1435.64
1458.61
1480.4
1501.66
1522.58
1541.12
1558.26
1573.07
1585.36
1595.87
1604.93
1612.06
1617.04
1620.19
1621.73
1621.54
1619.53
1615.73
1610.26
1603.28
1595
1585.67
1575.61
1565.52
1555.78
1547.68
676.653
530.043
430.583
362.801
316.715
285.291
263.644
248.471
237.594
229.613
223.658
219.207
215.985
214.076
213.374
213.893
215.74
219.111
224.444
232.004
241.764
253.529
266.447
279.123
289.792
296.763
298.962
296.355
290.038
281.962
274.368
269.171
267.526
269.74
275.456
283.946
294.385
306.041
318.373
331.053
343.926
356.945
370.108
383.42
396.865
410.402
423.978
437.529
450.997
464.331
477.491
490.448
503.18
515.667
527.888
539.818
551.426
562.674
573.514
583.899
593.774
603.087
611.785
619.823
627.162
633.772
639.637
644.751
649.125
652.784
655.767
658.127
659.929
661.249
662.174
662.792
663.197
663.481
663.734
664.038
664.466
665.081
665.933
667.058
668.481
670.213
672.256
674.601
677.235
680.138
683.289
686.668
690.252
694.025
697.973
702.083
706.348
710.764
715.329
720.043
724.91
729.934
735.119
740.475
746.009
751.732
757.657
763.795
770.16
776.764
783.623
790.748
798.153
805.85
813.853
822.182
830.825
839.791
849.092
858.745
868.766
879.169
889.968
901.181
912.828
924.932
937.518
950.612
964.243
978.438
993.226
1008.64
1024.7
1041.44
1058.88
1077.04
1095.93
1115.57
1135.97
1157.13
1179.05
1201.71
1225.07
1249.08
1273.72
1298.94
1324.65
1350.77
1377.04
1403.47
1430.05
1456.84
1483.08
1508.65
1533.85
1559.26
1582.23
1603.96
1624.37
1643.18
1660.24
1675.03
1687.26
1697.32
1705.43
1711.32
1714.83
1716.21
1715.7
1713.32
1709.07
1703
1695.24
1685.95
1675.35
1663.71
1651.34
1638.84
1626.46
1614.89
708.148
527.696
415.185
343.365
297.632
268.347
249.284
236.528
227.68
221.311
216.603
213.135
210.823
209.687
209.663
210.834
213.409
217.56
223.575
231.722
241.981
253.939
266.626
278.551
287.99
293.464
294.255
290.719
284.242
276.83
270.504
266.759
266.321
269.203
274.941
282.865
292.294
302.661
313.563
324.76
336.138
347.656
359.306
371.083
382.963
394.907
406.862
418.769
430.569
442.212
453.656
464.867
475.817
486.481
496.836
506.856
516.509
525.762
534.578
542.92
550.75
558.036
564.748
570.868
576.387
581.307
585.644
589.428
592.702
595.521
597.954
600.077
601.973
603.731
605.439
607.182
609.041
611.086
613.376
615.959
618.867
622.118
625.718
629.662
633.933
638.51
643.366
648.47
653.794
659.307
664.983
670.8
676.738
682.781
688.919
695.144
701.452
707.842
714.316
720.876
727.528
734.278
741.135
748.109
755.213
762.46
769.865
777.445
785.215
793.192
801.395
809.838
818.54
827.507
836.713
846.162
855.899
865.947
876.33
887.071
898.194
909.723
921.679
934.087
946.969
960.354
974.27
988.746
1003.81
1019.5
1035.84
1052.86
1070.61
1089.09
1108.34
1128.38
1149.21
1170.83
1193.28
1216.55
1240.65
1265.57
1291.27
1317.58
1344.49
1371.99
1400.04
1428.67
1457.13
1485.42
1513.67
1542.51
1570.7
1597.3
1622.97
1647.58
1670.74
1692.4
1712.43
1730.69
1746.94
1760.8
1772.02
1780.76
1787.14
1791.01
1792.29
1791.17
1787.91
1782.65
1775.49
1766.56
1756.04
1744.11
1731.01
1717.06
1702.57
1688.1
1673.86
1660.31
715.763
511.645
393.998
323.536
281.411
255.961
240.179
229.951
222.939
217.862
214.064
211.305
209.662
209.095
209.622
211.361
214.526
219.358
226.084
234.819
245.377
257.123
268.928
279.295
286.71
290.1
289.247
284.927
278.703
272.441
267.772
265.718
266.617
270.271
276.182
283.76
292.462
301.858
311.655
321.685
331.863
342.161
352.569
363.074
373.651
384.263
394.858
405.383
415.783
426.01
436.022
445.785
455.272
464.458
473.32
481.838
489.989
497.75
505.099
512.017
518.488
524.501
530.054
535.156
539.824
544.089
547.991
551.584
554.929
558.095
561.157
564.191
567.274
570.478
573.87
577.507
581.435
585.688
590.285
595.234
600.531
606.161
612.103
618.328
624.805
631.5
638.382
645.42
652.585
659.853
667.205
674.621
682.089
689.6
697.146
704.726
712.34
719.99
727.682
735.422
743.218
751.081
759.021
767.051
775.188
783.45
791.854
800.42
809.168
818.116
827.291
836.682
846.255
856.02
866.027
876.296
886.853
897.723
908.934
920.517
932.502
944.916
957.787
971.139
984.999
999.4
1014.37
1029.95
1046.17
1063.07
1080.67
1099.02
1118.16
1138.12
1158.95
1180.66
1203.26
1226.71
1251
1276.18
1302.27
1329.3
1357.33
1385.89
1414.8
1444.19
1474.02
1504.97
1535.52
1565.11
1594.3
1623.03
1650.93
1677.73
1703.33
1727.5
1750.06
1770.81
1789.63
1806.35
1820.72
1832.5
1841.52
1847.75
1851.23
1851.86
1849.67
1844.87
1837.73
1828.51
1817.44
1804.72
1790.6
1775.32
1759.18
1742.52
1725.71
1709.29
1693.46
1678.56
697.047
485.218
371.363
306.892
270.318
249.2
236.49
228.299
222.583
218.337
215.168
213.058
211.831
211.561
212.41
214.584
218.306
223.779
231.108
240.193
250.606
261.506
271.692
279.821
284.764
285.986
283.767
279.175
273.749
269.042
266.217
265.857
268.007
272.351
278.413
285.699
293.788
302.365
311.225
320.251
329.389
338.62
347.934
357.318
366.748
376.189
385.596
394.922
404.12
413.146
421.964
430.543
438.862
446.901
454.645
462.083
469.203
475.999
482.463
488.596
494.399
499.885
505.069
509.98
514.651
519.127
523.457
527.698
531.912
536.158
540.499
544.991
549.685
554.626
559.849
565.38
571.234
577.415
583.917
590.725
597.819
605.172
612.755
620.537
628.488
636.578
644.78
653.07
661.428
669.835
678.278
686.744
695.226
703.717
712.215
720.723
729.243
737.784
746.356
754.968
763.634
772.366
781.178
790.086
799.111
808.272
817.59
827.085
836.788
846.671
856.685
866.856
877.235
887.841
898.691
909.806
921.21
932.929
944.997
957.448
970.318
983.639
997.442
1011.76
1026.61
1042.05
1058.1
1074.82
1092.24
1110.39
1129.29
1148.98
1169.53
1190.98
1213.39
1236.81
1261.33
1286.75
1312.89
1339.9
1367.8
1396.65
1426.94
1457.92
1488.52
1519.35
1550.3
1581.29
1611.9
1641.95
1671.33
1699.85
1727.29
1753.4
1777.99
1800.83
1821.7
1840.47
1856.93
1870.81
1881.83
1889.82
1894.7
1896.34
1894.76
1890.03
1882.3
1871.87
1859.13
1844.41
1828.05
1810.37
1791.66
1772.24
1752.46
1732.73
1713.46
1695.21
1678.13
1662.6
652.189
452.45
351.032
295.775
265.392
248.103
237.615
230.67
225.664
221.89
219.173
217.232
216.121
216.031
217.188
219.811
224.077
230.072
237.709
246.647
256.248
265.571
273.519
279.078
281.606
281.072
278.113
273.884
269.718
266.764
265.739
266.879
270.044
274.882
280.971
287.92
295.415
303.233
311.236
319.352
327.547
335.811
344.138
352.519
360.934
369.353
377.741
386.06
394.272
402.342
410.244
417.956
425.462
432.753
439.824
446.674
453.304
459.719
465.927
471.938
477.767
483.434
488.965
494.39
499.747
505.076
510.42
515.824
521.332
526.985
532.822
538.873
545.164
551.715
558.54
565.643
573.025
580.676
588.58
596.72
605.072
613.613
622.318
631.16
640.116
649.163
658.281
667.451
676.66
685.895
695.145
704.402
713.66
722.919
732.177
741.441
750.72
760.028
769.381
778.799
788.3
797.903
807.625
817.485
827.505
837.702
848.113
858.679
869.314
880.051
890.958
902.067
913.399
924.967
936.785
948.871
961.251
973.957
987.024
1000.49
1014.38
1028.74
1043.61
1059.01
1074.98
1091.57
1108.82
1126.8
1145.58
1165.25
1185.63
1206.8
1228.86
1251.85
1275.83
1300.89
1327.34
1355.16
1383.09
1411.79
1441.28
1471.49
1502.41
1533.69
1565.12
1596.56
1627.84
1658.76
1689.1
1718.65
1747.24
1774.66
1800.62
1824.93
1847.33
1867.46
1885.04
1899.95
1911.88
1920.45
1925.41
1926.61
1923.96
1917.54
1907.58
1894.38
1878.28
1859.74
1839.19
1817.07
1793.8
1769.8
1745.39
1720.92
1696.77
1673.42
1651.3
1630.98
1612.55
1596.55
588.401
418.797
335.159
290.006
265.116
250.688
241.623
235.37
230.735
227.271
224.632
222.69
221.672
221.818
223.34
226.4
231.068
237.264
244.702
252.845
260.933
268.132
273.617
276.762
277.372
275.777
272.78
269.437
266.771
265.525
266.056
268.37
272.239
277.325
283.285
289.82
296.709
303.804
311.017
318.307
325.66
333.074
340.55
348.081
355.656
363.255
370.854
378.427
385.947
393.392
400.745
407.994
415.133
422.162
429.085
435.908
442.64
449.292
455.876
462.406
468.894
475.359
481.821
488.303
494.831
501.43
508.127
514.946
521.913
529.049
536.371
543.889
551.614
559.55
567.705
576.078
584.666
593.457
602.44
611.598
620.917
630.378
639.965
649.658
659.438
669.29
679.195
689.142
699.117
709.112
719.117
729.125
739.133
749.141
759.151
769.174
779.224
789.327
799.514
809.82
820.28
830.921
841.773
852.84
864.187
875.674
887.146
898.641
910.242
921.986
933.912
946.051
958.425
971.045
983.922
997.077
1010.54
1024.35
1038.56
1053.22
1068.33
1083.88
1099.95
1116.57
1133.8
1151.66
1170.22
1189.55
1209.75
1231.22
1253.44
1276.21
1299.86
1324.45
1349.99
1376.5
1404.02
1432.43
1461.53
1491.32
1521.72
1552.61
1583.85
1615.23
1646.56
1677.62
1708.21
1738.13
1767.17
1795.15
1821.82
1846.85
1869.86
1890.64
1908.77
1923.79
1935.33
1943.05
1946.67
1946
1940.98
1931.66
1918.16
1900.83
1880.1
1856.42
1830.31
1802.29
1772.77
1742.26
1711.26
1680.25
1649.53
1619.22
1589.9
1562.12
1536.35
1513.13
1492.47
1475.1
515.476
387.656
323.922
288.522
268.174
255.742
247.497
241.576
237.141
233.668
230.827
228.854
227.975
228.387
230.232
233.561
238.298
244.201
250.833
257.587
263.764
268.711
271.919
273.155
272.55
270.621
268.153
265.987
264.81
265.03
266.758
269.876
274.134
279.245
284.944
291.022
297.328
303.773
310.307
316.912
323.589
330.344
337.182
344.107
351.113
358.194
365.337
372.529
379.755
387.004
394.268
401.544
408.834
416.143
423.477
430.846
438.259
445.726
453.255
460.85
468.515
476.255
484.079
491.997
500.02
508.154
516.407
524.787
533.302
541.958
550.759
559.705
568.798
578.043
587.448
597.015
606.74
616.618
626.639
636.796
647.083
657.491
668.011
678.626
689.321
700.081
710.895
721.747
732.624
743.512
754.399
765.282
776.156
787.023
797.889
808.766
819.683
830.683
841.826
853.181
864.832
876.789
889.21
901.773
914.224
926.629
939.064
951.539
964.125
976.858
989.775
1002.91
1016.3
1029.95
1043.88
1058.1
1072.66
1087.6
1102.97
1118.95
1135.54
1152.38
1169.74
1187.69
1206.25
1225.49
1245.45
1266.18
1287.74
1310.22
1333.51
1357.61
1382.56
1408.38
1435.05
1462.56
1490.85
1519.86
1549.47
1579.6
1610.1
1640.82
1671.58
1702.16
1732.36
1762
1790.88
1818.75
1845.3
1870.34
1893.47
1914.15
1931.88
1946.18
1956.62
1962.8
1964.45
1961.29
1953.24
1940.38
1922.89
1901.07
1875.35
1846.23
1814.2
1779.81
1743.65
1706.27
1667.86
1629.06
1590.52
1552.78
1516.02
1480
1445.69
1413.72
1384.5
1358.42
1335.45
1316.22
443.636
361.902
317.647
290.797
273.859
262.623
254.731
248.934
244.309
240.363
237.282
235.271
234.504
235.091
237.061
240.333
244.698
249.8
255.153
260.196
264.393
267.326
268.773
268.776
267.66
265.973
264.363
263.414
263.53
264.88
267.434
271.028
275.436
280.435
285.836
291.501
297.338
303.299
309.362
315.528
321.804
328.202
334.736
341.413
348.239
355.216
362.344
369.618
377.035
384.59
392.28
400.108
408.079
416.199
424.473
432.904
441.496
450.253
459.173
468.248
477.469
486.832
496.339
505.991
515.785
525.716
535.781
545.978
556.308
566.775
577.369
588.062
598.862
609.774
620.807
631.951
643.178
654.495
665.897
677.384
688.961
700.645
712.459
724.343
736.279
748.265
760.303
772.377
784.457
796.513
808.5
820.436
832.325
844.171
855.981
867.78
879.609
891.568
903.763
916.328
929.616
943.059
956.191
969.194
982.187
995.273
1008.54
1021.7
1034.98
1048.44
1062.11
1076.02
1090.22
1104.75
1119.6
1134.8
1150.37
1166.35
1182.78
1199.71
1217.15
1235.1
1253.6
1272.7
1292.45
1312.89
1334.05
1355.97
1378.68
1402.2
1426.51
1451.6
1477.48
1504.1
1531.45
1559.47
1588.08
1617.2
1646.71
1676.48
1706.34
1736.1
1765.56
1794.49
1822.64
1849.82
1875.79
1900.14
1922.41
1942.15
1958.8
1971.79
1980.61
1984.81
1984.07
1978.2
1967.08
1950.72
1929.27
1903.04
1872.41
1837.82
1799.86
1759.19
1716.18
1671.48
1625.85
1579.89
1533.33
1487.22
1442.39
1399.33
1358.39
1319.94
1284.15
1251.18
1221.24
1194.59
1171.19
1151.61
386.003
344.397
316.705
296.54
281.789
271.022
263.05
256.619
251.209
246.787
243.445
241.334
240.556
241.114
242.914
245.761
249.354
253.303
257.162
260.499
262.964
264.361
264.682
264.124
263.065
261.979
261.332
261.482
262.626
264.797
267.902
271.781
276.256
281.167
286.392
291.847
297.484
303.285
309.245
315.372
321.679
328.18
334.891
341.826
348.996
356.407
364.068
371.982
380.147
388.567
397.247
406.189
415.399
424.88
434.634
444.66
454.955
465.514
476.322
487.349
498.602
510.074
521.761
533.651
545.72
557.954
570.337
582.857
595.509
608.284
621.183
634.208
647.322
660.517
673.809
687.177
700.572
714.019
727.509
741.038
754.598
768.165
781.634
795
808.29
821.546
834.915
848.358
861.79
875.215
888.275
901.169
913.944
926.623
939.22
951.829
964.478
977.538
991.095
1004.67
1017.8
1030.78
1043.68
1056.57
1069.52
1082.58
1095.8
1109.17
1122.75
1136.56
1150.63
1165.03
1179.8
1194.95
1210.47
1226.39
1242.74
1259.53
1276.82
1294.62
1312.96
1331.87
1351.39
1371.55
1392.4
1413.96
1436.25
1459.27
1483.05
1507.57
1532.81
1558.76
1585.37
1612.61
1640.39
1668.65
1697.27
1726.12
1755.05
1783.87
1812.37
1840.3
1867.38
1893.39
1917.98
1940.8
1961.43
1979.35
1994.03
2004.91
2011.45
2013.16
2009.71
2000.84
1986.42
1966.44
1941
1910.28
1874.66
1834.65
1790.82
1743.57
1693.77
1642.19
1588.95
1534.98
1481.26
1428.4
1376.96
1327.25
1279.53
1234.09
1191.18
1151.05
1113.91
1079.94
1049.29
1022.16
998.48
978.646
354.716
337.371
321.539
305.852
292.092
280.678
271.266
263.583
257.297
252.274
248.56
246.241
245.303
245.618
246.983
249.125
251.722
254.416
256.86
258.769
259.964
260.41
260.224
259.658
259.053
258.766
259.093
260.228
262.239
265.104
268.725
272.973
277.722
282.87
288.348
294.111
300.13
306.397
312.915
319.693
326.745
334.088
341.74
349.715
358.026
366.681
375.683
385.027
394.707
404.761
415.197
426.003
437.186
448.752
460.695
473.011
485.693
498.737
512.148
525.924
540.013
554.366
568.99
583.866
598.86
613.943
629.105
644.323
659.577
674.849
690.15
705.484
720.781
736.041
751.349
766.848
781.956
796.964
811.915
826.83
841.73
856.612
871.391
886.111
900.807
915.584
930.188
944.328
958.132
971.682
984.981
998.084
1011.08
1024.03
1036.99
1050.47
1064.09
1077.45
1090.45
1103.29
1116.04
1128.81
1141.66
1154.64
1167.79
1181.16
1194.77
1208.65
1222.83
1237.32
1252.13
1267.31
1282.87
1298.82
1315.18
1331.99
1349.27
1367.07
1385.42
1404.34
1423.88
1444.06
1464.91
1486.46
1508.7
1531.65
1555.3
1579.64
1604.65
1630.29
1656.53
1683.31
1710.56
1738.19
1766.1
1794.14
1822.16
1849.97
1877.33
1904
1929.67
1954.02
1976.7
1997.3
2015.43
2030.63
2042.37
2050.12
2053.37
2051.68
2044.66
2032.07
2013.74
1989.55
1959.51
1923.85
1882.92
1837.07
1786.86
1733.09
1676.47
1617.21
1556.68
1495.74
1435.08
1375.24
1316.66
1259.75
1204.93
1152.54
1102.88
1056.19
1012.66
972.44
935.644
902.351
872.602
846.457
823.815
804.877
361.389
347.48
334.545
318.682
303.349
290.146
279.055
269.695
261.962
255.994
251.841
249.313
248.144
248.078
248.849
250.17
251.749
253.313
254.636
255.57
256.066
256.189
256.108
256.066
256.332
257.147
258.69
261.056
264.262
268.249
272.951
278.298
284.214
290.651
297.574
304.945
312.686
320.761
329.163
337.958
347.171
356.822
366.926
377.486
388.495
399.96
411.89
424.306
437.212
450.577
464.365
478.638
493.422
508.658
524.233
540.168
556.451
573.079
590.065
607.409
624.935
642.569
660.329
678.528
696.388
713.841
731.076
748.092
764.877
781.435
797.774
813.861
829.654
845.131
860.315
875.257
889.918
904.354
918.613
932.749
946.824
960.906
975.05
989.324
1003.78
1018.18
1032.01
1045.39
1058.46
1071.36
1084.17
1096.96
1110.13
1123.64
1137.31
1150.68
1163.93
1177.15
1190.43
1203.81
1217.36
1231.12
1245.12
1259.39
1273.95
1288.8
1303.97
1319.47
1335.31
1351.51
1368.07
1385
1402.31
1420.04
1438.22
1456.88
1476.06
1495.78
1516.04
1536.88
1558.31
1580.39
1603.1
1626.44
1650.38
1674.91
1699.99
1725.57
1751.61
1778.05
1804.8
1831.75
1858.8
1885.8
1912.58
1938.93
1964.62
1989.39
2012.93
2034.9
2054.93
2072.6
2087.49
2099.11
2106.99
2110.63
2109.55
2103.31
2091.52
2073.87
2050.21
2020.5
1984.77
1943.15
1895.83
1843.35
1786.36
1725.31
1661.01
1594.6
1526.91
1458.78
1390.8
1323.62
1257.8
1193.9
1132.36
1073.59
1017.91
965.56
916.739
871.561
830.09
792.339
758.283
727.869
701.016
677.656
657.624
640.955
418.553
373.478
350.57
330.595
312.891
297.454
283.99
272.575
263.519
256.99
252.714
250.129
248.805
248.443
248.77
249.532
250.501
251.496
252.394
253.15
253.796
254.454
255.314
256.589
258.473
261.174
264.837
269.553
275.329
281.987
289.53
297.991
307.329
317.471
328.353
339.867
351.925
364.538
377.724
391.47
405.72
420.525
435.91
451.873
468.204
484.921
502.07
519.706
537.807
556.162
574.737
593.591
612.976
632.815
652.073
671.249
690.346
709.36
728.302
747.129
765.727
783.997
801.892
819.453
836.575
853.243
869.477
885.285
900.674
915.669
930.303
944.596
958.543
972.138
985.389
998.332
1011.01
1023.47
1035.78
1047.98
1060.13
1072.31
1084.6
1097.07
1109.8
1122.75
1135.81
1148.75
1161.71
1175.13
1189.02
1203.24
1217.43
1231.61
1245.9
1260.39
1275.12
1290.09
1305.34
1320.87
1336.72
1352.88
1369.38
1386.2
1403.35
1420.83
1438.65
1456.79
1475.28
1494.12
1513.31
1532.86
1552.84
1573.27
1594.17
1615.53
1637.35
1659.62
1682.35
1705.51
1729.11
1753.16
1777.61
1802.44
1827.6
1853.03
1878.69
1904.49
1930.34
1956.13
1981.72
2006.96
2031.67
2055.62
2078.58
2100.28
2120.39
2138.58
2154.47
2167.66
2177.72
2184.19
2186.62
2184.55
2177.5
2165.07
2146.88
2122.65
2092.19
2055.43
2012.34
1963.12
1908.09
1847.77
1782.52
1713.45
1641.44
1567.38
1492.11
1416.41
1341.06
1266.78
1194.25
1124.05
1056.69
992.597
932.116
875.494
822.899
774.413
730.049
689.757
653.435
620.944
592.118
566.779
544.737
525.816
509.799
496.597
518.008
407.689
367.79
341.245
319.619
301.023
285.037
272.179
262.771
256.469
252.468
250.052
248.815
248.486
248.836
249.676
250.866
252.327
254.008
255.889
258.131
260.943
264.572
269.115
274.545
281.354
289.753
299.857
311.663
325.126
340.138
356.635
374.421
393.378
413.1
433.255
453.46
473.956
494.92
516.034
537.227
558.541
580.071
602.496
624.206
645.484
666.593
687.598
708.438
728.989
749.176
768.995
788.497
807.672
826.372
844.623
862.434
879.816
896.808
913.439
929.678
945.484
960.841
975.764
990.276
1004.41
1018.19
1031.63
1044.76
1057.59
1070.18
1082.55
1094.74
1106.74
1118.58
1130.27
1141.86
1153.39
1164.93
1176.51
1188.18
1200.02
1212.16
1224.66
1237.57
1251.05
1265.54
1280.71
1296.41