/*--------------------------------*- C++ -*----------------------------------*\
| =========                 |                                                 |
| \\      /  F ield         | OpenFOAM: The Open Source CFD Toolbox           |
|  \\    /   O peration     | Version:  2112                                  |
|   \\  /    A nd           | Website:  www.openfoam.com                      |
|    \\/     M anipulation  |                                                 |
\*---------------------------------------------------------------------------*/
FoamFile
{
    version     2.0;
    format      ascii;
    arch        "LSB;label=32;scalar=64";
    class       surfaceScalarField;
    location    "0.23";
    object      phi;
}
// * * * * * * * * * * * * * * * * * * * * * * * * * * * * * * * * * * * * * //

dimensions      [0 3 -1 0 0 0 0];

oriented        oriented;

internalField   nonuniform List<scalar> 
24170
(
3.03967e-06
1.48734e-07
2.86467e-06
1.75006e-07
2.69148e-06
1.73184e-07
2.52254e-06
1.6894e-07
2.36326e-06
1.59278e-07
2.21923e-06
1.44031e-07
2.09427e-06
1.24965e-07
1.99033e-06
1.03941e-07
1.90771e-06
8.26221e-08
1.84516e-06
6.25431e-08
1.80026e-06
4.49e-08
1.76983e-06
3.04305e-08
1.75049e-06
1.93411e-08
1.73945e-06
1.10458e-08
1.73423e-06
5.21121e-09
1.73221e-06
2.02435e-09
1.72755e-06
4.66011e-09
5.25488e-09
1.72229e-06
3.48777e-06
7.82106e-08
3.535e-06
1.2778e-07
3.56298e-06
1.45204e-07
3.57151e-06
1.60411e-07
3.56114e-06
1.69648e-07
3.53433e-06
1.70842e-07
3.49413e-06
1.65162e-07
3.44363e-06
1.54444e-07
3.38571e-06
1.40533e-07
3.32287e-06
1.25387e-07
3.25706e-06
1.10714e-07
3.18982e-06
9.76704e-08
3.12247e-06
8.66923e-08
3.05595e-06
7.75605e-08
2.99116e-06
7.00064e-08
2.92911e-06
6.40726e-08
2.87476e-06
5.90062e-08
4.70535e-08
2.83296e-06
3.6815e-06
5.92247e-08
3.7004e-06
1.08883e-07
3.71948e-06
1.26122e-07
3.7404e-06
1.3949e-07
3.76127e-06
1.48782e-07
3.78018e-06
1.51932e-07
3.79574e-06
1.49602e-07
3.80697e-06
1.43216e-07
3.81326e-06
1.3424e-07
3.81457e-06
1.24081e-07
3.81129e-06
1.13993e-07
3.80411e-06
1.04849e-07
3.79379e-06
9.70163e-08
3.78096e-06
9.03815e-08
3.76629e-06
8.46812e-08
3.75105e-06
7.93114e-08
3.73691e-06
7.31502e-08
6.05423e-08
3.72342e-06
3.93649e-06
4.81215e-08
3.94872e-06
9.66501e-08
3.95896e-06
1.15887e-07
3.96967e-06
1.28776e-07
3.98113e-06
1.37329e-07
3.99295e-06
1.40112e-07
4.00463e-06
1.37922e-07
4.0156e-06
1.32244e-07
4.02547e-06
1.24369e-07
4.03408e-06
1.15465e-07
4.04153e-06
1.06544e-07
4.04804e-06
9.83417e-08
4.05388e-06
9.11804e-08
4.05931e-06
8.49513e-08
4.06468e-06
7.93075e-08
4.07046e-06
7.35354e-08
4.07681e-06
6.67983e-08
5.6353e-08
4.081e-06
4.21556e-06
3.96923e-08
4.22629e-06
8.59133e-08
4.23559e-06
1.0659e-07
4.24476e-06
1.19604e-07
4.25424e-06
1.27849e-07
4.26375e-06
1.30604e-07
4.27297e-06
1.28704e-07
4.28164e-06
1.23568e-07
4.28962e-06
1.16395e-07
4.29683e-06
1.0825e-07
4.30336e-06
1.00017e-07
4.30942e-06
9.22843e-08
4.3153e-06
8.52945e-08
4.32131e-06
7.89483e-08
4.3277e-06
7.29164e-08
4.33463e-06
6.66079e-08
4.34211e-06
5.93174e-08
4.95301e-08
4.34893e-06
4.51574e-06
3.30407e-08
4.52564e-06
7.60152e-08
4.53492e-06
9.73027e-08
4.54407e-06
1.10461e-07
4.55337e-06
1.18551e-07
4.5626e-06
1.21373e-07
4.57148e-06
1.19819e-07
4.57983e-06
1.15219e-07
4.58753e-06
1.08694e-07
4.59458e-06
1.01203e-07
4.60107e-06
9.35219e-08
4.60721e-06
8.6147e-08
4.61323e-06
7.92781e-08
4.61934e-06
7.28331e-08
4.62573e-06
6.65247e-08
4.63245e-06
5.98955e-08
4.63938e-06
5.23818e-08
4.31825e-08
4.64573e-06
4.83805e-06
2.77128e-08
4.84713e-06
6.69343e-08
4.85634e-06
8.80944e-08
4.86565e-06
1.0115e-07
4.87511e-06
1.09093e-07
4.88449e-06
1.11994e-07
4.89353e-06
1.10774e-07
4.90206e-06
1.0669e-07
4.90997e-06
1.00782e-07
4.91728e-06
9.38952e-08
4.92409e-06
8.67091e-08
4.93058e-06
7.96632e-08
4.93692e-06
7.29356e-08
4.94329e-06
6.64658e-08
4.94979e-06
6.00182e-08
4.95644e-06
5.325e-08
4.96305e-06
4.57656e-08
3.71694e-08
4.96907e-06
5.18393e-06
2.33651e-08
5.1922e-06
5.8658e-08
5.20118e-06
7.91147e-08
5.21057e-06
9.17613e-08
5.22021e-06
9.94566e-08
5.22977e-06
1.02431e-07
5.23903e-06
1.01521e-07
5.24781e-06
9.79022e-08
5.25604e-06
9.25562e-08
5.2637e-06
8.62319e-08
5.27089e-06
7.95208e-08
5.27774e-06
7.28113e-08
5.28441e-06
6.62637e-08
5.29104e-06
5.98454e-08
5.29767e-06
5.33826e-08
5.30429e-06
4.66301e-08
5.31072e-06
3.93362e-08
3.13365e-08
5.31655e-06
5.55495e-06
1.97522e-08
5.56249e-06
5.11156e-08
5.57117e-06
7.04392e-08
5.5805e-06
8.24271e-08
5.59026e-06
8.96949e-08
5.60002e-06
9.26773e-08
5.60947e-06
9.20677e-08
5.61849e-06
8.88875e-08
5.62699e-06
8.40503e-08
5.63498e-06
7.82422e-08
5.64252e-06
7.19834e-08
5.64971e-06
6.56176e-08
5.65669e-06
5.92903e-08
5.66353e-06
5.29977e-08
5.67029e-06
4.66255e-08
5.6769e-06
4.0016e-08
5.68321e-06
3.30266e-08
2.56248e-08
5.68893e-06
5.95283e-06
1.66977e-08
5.95973e-06
4.42205e-08
5.96808e-06
6.20851e-08
5.97727e-06
7.32365e-08
5.98704e-06
7.99274e-08
5.99695e-06
8.27695e-08
6.00663e-06
8.23803e-08
6.0159e-06
7.96241e-08
6.02467e-06
7.52771e-08
6.03295e-06
6.99588e-08
6.0408e-06
6.41391e-08
6.04829e-06
5.8125e-08
6.05552e-06
5.20564e-08
6.06256e-06
4.59586e-08
6.06942e-06
3.97691e-08
6.07603e-06
3.34039e-08
6.08226e-06
2.67992e-08
1.99931e-08
6.08789e-06
6.37944e-06
1.40709e-08
6.38576e-06
3.78959e-08
6.3938e-06
5.40464e-08
6.40282e-06
6.42168e-08
6.4125e-06
7.02444e-08
6.42245e-06
7.28226e-08
6.43231e-06
7.25235e-08
6.44184e-06
7.00918e-08
6.45093e-06
6.61884e-08
6.45954e-06
6.13486e-08
6.4677e-06
5.59826e-08
6.47547e-06
5.03508e-08
6.48293e-06
4.45927e-08
6.49013e-06
3.8758e-08
6.49707e-06
3.28307e-08
6.50369e-06
2.6788e-08
6.50987e-06
2.06205e-08
1.43989e-08
6.51546e-06
5.74281e-06
1.20926e-08
5.74775e-06
3.29567e-08
5.75431e-06
4.74864e-08
5.7618e-06
5.67252e-08
5.7699e-06
6.215e-08
5.77828e-06
6.44427e-08
5.78666e-06
6.41418e-08
5.79485e-06
6.18997e-08
5.80274e-06
5.83033e-08
5.81026e-06
5.38224e-08
5.81743e-06
4.88184e-08
5.82425e-06
4.35253e-08
5.83076e-06
3.80812e-08
5.83699e-06
3.2535e-08
5.84292e-06
2.68941e-08
5.84854e-06
2.1176e-08
5.85375e-06
1.54047e-08
9.66905e-09
5.85848e-06
7.00019e-06
1.00565e-08
7.00548e-06
2.76637e-08
7.01272e-06
4.02518e-08
7.02112e-06
4.83202e-08
7.03029e-06
5.29891e-08
7.03983e-06
5.48955e-08
7.04945e-06
5.45248e-08
7.05892e-06
5.24292e-08
7.06811e-06
4.91168e-08
7.07694e-06
4.49919e-08
7.08539e-06
4.03623e-08
7.09348e-06
3.54403e-08
7.1012e-06
3.03628e-08
7.10854e-06
2.51905e-08
7.11548e-06
1.9952e-08
7.12199e-06
1.46736e-08
7.128e-06
9.39099e-09
4.20383e-09
7.13346e-06
8.53294e-06
7.96541e-09
8.53854e-06
2.20611e-08
8.54643e-06
3.23672e-08
8.55575e-06
3.8998e-08
8.566e-06
4.27323e-08
8.57677e-06
4.41269e-08
8.5877e-06
4.36e-08
8.59853e-06
4.15979e-08
8.6091e-06
3.85408e-08
8.61933e-06
3.47664e-08
8.62916e-06
3.05318e-08
8.63858e-06
2.60219e-08
8.64758e-06
2.13609e-08
8.65615e-06
1.66244e-08
8.66424e-06
1.18637e-08
8.67179e-06
7.11661e-09
8.67876e-06
2.42199e-09
-2.13142e-09
8.6851e-06
1.04014e-05
5.81425e-09
1.04072e-05
1.61847e-08
1.04157e-05
2.38654e-08
1.0426e-05
2.87655e-08
1.04374e-05
3.1362e-08
1.04494e-05
3.20943e-08
1.04617e-05
3.13021e-08
1.0474e-05
2.93253e-08
1.0486e-05
2.6489e-08
1.04977e-05
2.30617e-08
1.0509e-05
1.92495e-08
1.05198e-05
1.52055e-08
1.05301e-05
1.1039e-08
1.05399e-05
6.82676e-09
1.05492e-05
2.62514e-09
1.05578e-05
-1.5182e-09
1.05658e-05
-5.55875e-09
-9.42019e-09
1.05731e-05
1.2679e-05
3.59043e-09
1.26852e-05
1.0032e-08
1.26943e-05
1.47612e-08
1.27054e-05
1.76195e-08
1.27179e-05
1.88496e-08
1.27313e-05
1.87484e-08
1.2745e-05
1.75621e-08
1.27588e-05
1.55273e-08
1.27724e-05
1.2872e-08
1.27857e-05
9.79016e-09
1.27985e-05
6.43443e-09
1.28108e-05
2.92107e-09
1.28225e-05
-6.62317e-10
1.28336e-05
-4.2497e-09
1.2844e-05
-7.78929e-09
1.28537e-05
-1.12366e-08
1.28627e-05
-1.45532e-08
-1.76781e-08
1.2871e-05
1.54555e-05
1.26289e-09
1.5462e-05
3.53208e-09
1.54718e-05
4.98881e-09
1.54839e-05
5.48501e-09
1.54977e-05
5.09943e-09
1.55124e-05
3.97865e-09
1.55277e-05
2.26059e-09
1.55432e-05
7.90889e-11
1.55585e-05
-2.4344e-09
1.55734e-05
-5.1655e-09
1.55879e-05
-8.02145e-09
1.56018e-05
-1.093e-08
1.56149e-05
-1.38347e-08
1.56274e-05
-1.66912e-08
1.5639e-05
-1.94634e-08
1.56499e-05
-2.212e-08
1.566e-05
-2.46353e-08
-2.69654e-08
1.56693e-05
1.88401e-05
-1.24332e-09
1.88472e-05
-3.52524e-09
1.88579e-05
-5.71769e-09
1.88713e-05
-7.92422e-09
1.88866e-05
-1.01894e-08
1.89031e-05
-1.25198e-08
1.89203e-05
-1.48997e-08
1.89376e-05
-1.73008e-08
1.89549e-05
-1.96914e-08
1.89718e-05
-2.20425e-08
1.89881e-05
-2.43306e-08
1.90037e-05
-2.65373e-08
1.90185e-05
-2.86482e-08
1.90325e-05
-3.06516e-08
1.90455e-05
-3.25372e-08
1.90577e-05
-3.4295e-08
1.9069e-05
-3.59163e-08
-3.73766e-08
1.90794e-05
2.29662e-05
-4.10817e-09
2.29743e-05
-1.16661e-08
2.29867e-05
-1.80747e-08
2.30022e-05
-2.33953e-08
2.30198e-05
-2.78238e-08
2.30388e-05
-3.15479e-08
2.30586e-05
-3.46888e-08
2.30787e-05
-3.73328e-08
2.30985e-05
-3.95576e-08
2.31179e-05
-4.14327e-08
2.31366e-05
-4.30163e-08
2.31544e-05
-4.4357e-08
2.31713e-05
-4.54955e-08
2.31871e-05
-4.64652e-08
2.32018e-05
-4.72918e-08
2.32155e-05
-4.79938e-08
2.32282e-05
-4.85847e-08
-4.90611e-08
2.32399e-05
1.6813e-05
-6.36752e-09
1.68193e-05
-1.7993e-08
1.68287e-05
-2.75284e-08
1.68404e-05
-3.50535e-08
1.68536e-05
-4.09742e-08
1.68676e-05
-4.5643e-08
1.68822e-05
-4.92697e-08
1.68969e-05
-5.20179e-08
1.69114e-05
-5.40467e-08
1.69255e-05
-5.54977e-08
1.69389e-05
-5.64885e-08
1.69517e-05
-5.71182e-08
1.69637e-05
-5.74716e-08
1.69748e-05
-5.76189e-08
1.69852e-05
-5.76154e-08
1.69947e-05
-5.75028e-08
1.70034e-05
-5.73119e-08
-5.70538e-08
1.70114e-05
1.46368e-05
-8.63453e-09
1.46431e-05
-2.42388e-08
1.46522e-05
-3.65982e-08
1.46631e-05
-4.59644e-08
1.46752e-05
-5.31041e-08
1.46881e-05
-5.85341e-08
1.47013e-05
-6.25153e-08
1.47146e-05
-6.52773e-08
1.47276e-05
-6.7056e-08
1.47402e-05
-6.80543e-08
1.47521e-05
-6.84394e-08
1.47633e-05
-6.83564e-08
1.47738e-05
-6.79322e-08
1.47835e-05
-6.72731e-08
1.47923e-05
-6.64641e-08
1.48004e-05
-6.55701e-08
1.48077e-05
-6.46388e-08
-6.36948e-08
1.48143e-05
1.27426e-05
-1.10823e-08
1.27491e-05
-3.07576e-08
1.27581e-05
-4.562e-08
1.27686e-05
-5.64438e-08
1.27801e-05
-6.45637e-08
1.27921e-05
-7.06071e-08
1.28044e-05
-7.48324e-08
1.28167e-05
-7.7534e-08
1.28287e-05
-7.90201e-08
1.28402e-05
-7.95415e-08
1.2851e-05
-7.93046e-08
1.28612e-05
-7.84967e-08
1.28705e-05
-7.72866e-08
1.28791e-05
-7.5817e-08
1.28868e-05
-7.42031e-08
1.28938e-05
-7.25342e-08
1.29e-05
-7.08766e-08
-6.92687e-08
1.29056e-05
1.10938e-05
-1.39055e-08
1.11008e-05
-3.78361e-08
1.111e-05
-5.47666e-08
1.11202e-05
-6.66402e-08
1.11312e-05
-7.55404e-08
1.11426e-05
-8.20747e-08
1.11542e-05
-8.64519e-08
1.11657e-05
-8.90377e-08
1.11769e-05
-9.02023e-08
1.11876e-05
-9.02269e-08
1.11977e-05
-8.93485e-08
1.1207e-05
-8.77955e-08
1.12154e-05
-8.578e-08
1.12231e-05
-8.34824e-08
1.123e-05
-8.10493e-08
1.1236e-05
-7.85962e-08
1.12414e-05
-7.62088e-08
-7.39373e-08
1.1246e-05
9.65868e-06
-1.73723e-08
9.66657e-06
-4.5723e-08
9.6759e-06
-6.4103e-08
9.6859e-06
-7.66341e-08
9.69651e-06
-8.61551e-08
9.70749e-06
-9.30541e-08
9.71852e-06
-9.74839e-08
9.72938e-06
-9.98969e-08
9.73989e-06
-1.00708e-07
9.74987e-06
-1.00211e-07
9.75919e-06
-9.86672e-08
9.76774e-06
-9.63477e-08
9.77547e-06
-9.35087e-08
9.78236e-06
-9.03671e-08
9.78841e-06
-8.71041e-08
9.79368e-06
-8.38644e-08
9.79823e-06
-8.07563e-08
-7.78411e-08
9.80213e-06
8.40984e-06
-2.18571e-08
8.4188e-06
-5.46869e-08
8.42833e-06
-7.36366e-08
8.43814e-06
-8.64427e-08
8.44842e-06
-9.64348e-08
8.45892e-06
-1.03547e-07
8.46934e-06
-1.07907e-07
8.47952e-06
-1.10079e-07
8.48932e-06
-1.10508e-07
8.49859e-06
-1.09483e-07
8.5072e-06
-1.07275e-07
8.51506e-06
-1.04203e-07
8.52211e-06
-1.00561e-07
8.52834e-06
-9.65934e-08
8.53375e-06
-9.25164e-08
8.53839e-06
-8.85078e-08
8.54233e-06
-8.4697e-08
-8.11155e-08
8.54561e-06
7.32327e-06
-2.78424e-08
7.33362e-06
-6.50413e-08
7.34338e-06
-8.33914e-08
7.35294e-06
-9.60072e-08
7.3628e-06
-1.06291e-07
7.37276e-06
-1.13504e-07
7.3826e-06
-1.17753e-07
7.39224e-06
-1.19722e-07
7.40159e-06
-1.19851e-07
7.4105e-06
-1.184e-07
7.41886e-06
-1.15626e-07
7.42653e-06
-1.11877e-07
7.43346e-06
-1.07485e-07
7.43958e-06
-1.0272e-07
7.44491e-06
-9.78474e-08
7.44949e-06
-9.30893e-08
7.45341e-06
-8.86121e-08
-8.45178e-08
7.45681e-06
6.37838e-06
-3.61579e-08
6.39042e-06
-7.70778e-08
6.4008e-06
-9.37699e-08
6.411e-06
-1.06207e-07
6.42148e-06
-1.1677e-07
6.43206e-06
-1.24089e-07
6.44267e-06
-1.28365e-07
6.45331e-06
-1.30364e-07
6.4639e-06
-1.30437e-07
6.47428e-06
-1.28774e-07
6.48426e-06
-1.25611e-07
6.49363e-06
-1.21246e-07
6.50217e-06
-1.1603e-07
6.50979e-06
-1.10338e-07
6.51646e-06
-1.04515e-07
6.52224e-06
-9.8867e-08
6.52715e-06
-9.35248e-08
-8.85006e-08
6.53113e-06
5.56042e-06
-5.11142e-08
5.57666e-06
-9.33156e-08
5.59199e-06
-1.09099e-07
5.60928e-06
-1.23504e-07
5.62809e-06
-1.35576e-07
5.64745e-06
-1.43448e-07
5.66688e-06
-1.47799e-07
5.68587e-06
-1.4935e-07
5.70377e-06
-1.4834e-07
5.71997e-06
-1.44971e-07
5.73394e-06
-1.39582e-07
5.74535e-06
-1.3266e-07
5.75407e-06
-1.24742e-07
5.76004e-06
-1.16308e-07
5.76332e-06
-1.07797e-07
5.76408e-06
-9.96322e-08
5.76269e-06
-9.21301e-08
-8.59451e-08
5.76013e-06
4.88814e-06
-1.11647e-07
4.93907e-06
-1.4425e-07
4.98086e-06
-1.50885e-07
5.01192e-06
-1.54562e-07
5.03107e-06
-1.54725e-07
5.03879e-06
-1.51173e-07
5.03577e-06
-1.44781e-07
5.02284e-06
-1.36415e-07
5.00105e-06
-1.26546e-07
4.97161e-06
-1.15536e-07
4.93581e-06
-1.03777e-07
4.89485e-06
-9.17003e-08
4.84983e-06
-7.9725e-08
4.80173e-06
-6.82088e-08
4.75138e-06
-5.7442e-08
4.69946e-06
-4.77118e-08
4.64647e-06
-3.91485e-08
-3.18868e-08
4.59242e-06
4.09103e-06
3.94678e-06
3.79589e-06
3.64133e-06
3.48661e-06
3.33543e-06
3.19065e-06
3.05424e-06
2.92769e-06
2.81216e-06
2.70838e-06
2.61668e-06
2.53695e-06
2.46874e-06
2.4113e-06
2.36359e-06
2.32444e-06
2.29256e-06
1.044e-08
-1.044e-08
2.18669e-08
-1.14269e-08
3.36431e-08
-1.17762e-08
4.55036e-08
-1.18605e-08
5.71307e-08
-1.16271e-08
6.81818e-08
-1.10511e-08
7.83246e-08
-1.01428e-08
8.72602e-08
-8.93556e-09
9.47373e-08
-7.47718e-09
1.00561e-07
-5.82393e-09
1.04594e-07
-4.03297e-09
1.0675e-07
-2.1557e-09
1.06984e-07
-2.34072e-10
1.05293e-07
1.69078e-09
1.01714e-07
3.5795e-09
9.63043e-08
5.40938e-09
8.91412e-08
7.16318e-09
8.03151e-08
8.8261e-09
6.9932e-08
1.03831e-08
5.81153e-08
1.18167e-08
4.50103e-08
1.31051e-08
3.07897e-08
1.42206e-08
1.56597e-08
1.513e-08
-1.37686e-10
1.57974e-08
-1.63355e-08
1.61978e-08
-3.2652e-08
1.63164e-08
-4.88014e-08
1.61495e-08
-6.45264e-08
1.5725e-08
-7.96365e-08
1.51101e-08
-9.40586e-08
1.44221e-08
-1.0789e-07
1.38313e-08
-1.21438e-07
1.35483e-08
-1.35246e-07
1.38084e-08
-1.49936e-07
1.469e-08
-1.65779e-07
1.58429e-08
-1.82628e-07
1.68489e-08
-2.00204e-07
1.7576e-08
-2.18258e-07
1.80536e-08
-2.3665e-07
1.83924e-08
-2.55376e-07
1.87258e-08
-2.74503e-07
1.91274e-08
-2.94107e-07
1.96036e-08
-3.14231e-07
2.0124e-08
-3.34881e-07
2.06497e-08
-3.5603e-07
2.11488e-08
-3.77631e-07
2.16016e-08
-3.99632e-07
2.20008e-08
-4.21982e-07
2.23499e-08
-4.44641e-07
2.2659e-08
-4.67583e-07
2.29424e-08
-4.90797e-07
2.32142e-08
-5.14284e-07
2.34867e-08
-5.38053e-07
2.3769e-08
-5.6212e-07
2.40666e-08
-5.86502e-07
2.43824e-08
-6.11219e-07
2.4717e-08
-6.36289e-07
2.50702e-08
-6.6173e-07
2.54405e-08
-6.87556e-07
2.58262e-08
-7.13781e-07
2.62254e-08
-7.40417e-07
2.66359e-08
-7.67473e-07
2.70553e-08
-7.94953e-07
2.74807e-08
-8.22862e-07
2.79088e-08
-8.51198e-07
2.83357e-08
-8.79955e-07
2.8757e-08
-9.09123e-07
2.91677e-08
-9.38685e-07
2.95623e-08
-9.6862e-07
2.99352e-08
-9.989e-07
3.02802e-08
-1.02949e-06
3.05913e-08
-1.06035e-06
3.08621e-08
-1.09144e-06
3.10864e-08
-1.1227e-06
3.12582e-08
-1.15407e-06
3.13717e-08
-1.18549e-06
3.14216e-08
-1.21689e-06
3.14033e-08
-1.24821e-06
3.1313e-08
-1.27936e-06
3.11475e-08
-1.31026e-06
3.09051e-08
-1.34085e-06
3.05848e-08
-1.37103e-06
3.01869e-08
-1.40074e-06
2.97127e-08
-1.42991e-06
2.91647e-08
-1.45846e-06
2.85462e-08
-1.48632e-06
2.78612e-08
-1.51343e-06
2.71147e-08
-1.53974e-06
2.6312e-08
-1.5652e-06
2.5459e-08
-1.58976e-06
2.4562e-08
-1.61339e-06
2.36278e-08
-1.63606e-06
2.2664e-08
-1.65773e-06
2.16783e-08
-1.67841e-06
2.0679e-08
-1.69809e-06
1.96745e-08
-1.71676e-06
1.86731e-08
-1.73444e-06
1.76826e-08
-1.75115e-06
1.67103e-08
-1.76692e-06
1.57624e-08
-1.78176e-06
1.48441e-08
-1.79572e-06
1.39596e-08
-1.80883e-06
1.31118e-08
-1.82113e-06
1.23026e-08
-1.83267e-06
1.1533e-08
-1.84347e-06
1.0803e-08
-1.85358e-06
1.01122e-08
-1.86304e-06
9.45949e-09
-1.87189e-06
8.84386e-09
-1.88015e-06
8.26411e-09
-1.88787e-06
7.71914e-09
-1.89508e-06
7.20804e-09
-1.90181e-06
6.73004e-09
-1.90809e-06
6.28438e-09
-1.91396e-06
5.86997e-09
-1.91945e-06
5.48521e-09
-1.92457e-06
5.12777e-09
-1.92937e-06
4.79468e-09
-1.93385e-06
4.4822e-09
-1.93804e-06
4.18643e-09
-1.94194e-06
3.90326e-09
-1.94557e-06
3.62857e-09
-1.94893e-06
3.3579e-09
-1.95201e-06
3.08717e-09
-1.95483e-06
2.81016e-09
-1.95734e-06
2.51676e-09
-1.95954e-06
2.20026e-09
-1.96141e-06
1.86798e-09
-1.96288e-06
1.47452e-09
-1.9639e-06
1.01715e-09
-1.96439e-06
4.88902e-10
-1.96423e-06
-1.59073e-10
-1.96333e-06
-9.05885e-10
-1.96162e-06
-1.7078e-09
-1.95887e-06
-2.74356e-09
-1.95496e-06
-3.91537e-09
-1.94969e-06
-5.27143e-09
-1.94284e-06
-6.84702e-09
-1.93417e-06
-8.67271e-09
-1.92339e-06
-1.07782e-08
-1.9102e-06
-1.31909e-08
-1.89426e-06
-1.59346e-08
-1.87524e-06
-1.9025e-08
-1.85277e-06
-2.24739e-08
-1.82647e-06
-2.62995e-08
-1.79597e-06
-3.0492e-08
-1.76093e-06
-3.50408e-08
-1.72098e-06
-3.99488e-08
-1.67575e-06
-4.52342e-08
-1.62484e-06
-5.09109e-08
-1.56787e-06
-5.69679e-08
-1.50449e-06
-6.33832e-08
-1.43435e-06
-7.01426e-08
-1.3571e-06
-7.72423e-08
-1.27244e-06
-8.4663e-08
-1.18006e-06
-9.23838e-08
-1.07964e-06
-1.00419e-07
-9.70848e-07
-1.08789e-07
-8.53394e-07
-1.17455e-07
-7.2715e-07
-1.26244e-07
-5.92798e-07
-1.34352e-07
-4.53476e-07
-1.39322e-07
-3.16762e-07
-1.36715e-07
-1.815e-07
-1.35262e-07
-4.06906e-08
-1.40809e-07
1.0246e-07
-1.43151e-07
2.43267e-07
-1.40807e-07
3.85003e-07
-1.41736e-07
5.29911e-07
-1.44908e-07
6.74797e-07
-1.44886e-07
8.1754e-07
-1.42743e-07
9.56713e-07
-1.39173e-07
1.09137e-06
-1.34656e-07
1.2207e-06
-1.29327e-07
1.34387e-06
-1.23175e-07
1.45998e-06
-1.1611e-07
1.56777e-06
-1.07786e-07
1.66534e-06
-9.75742e-08
1.74771e-06
-8.23662e-08
1.8e-06
-5.22924e-08
1.46552e-08
1.78534e-06
1.10072e-08
-2.14473e-08
2.23477e-08
-2.27674e-08
3.40822e-08
-2.35107e-08
4.58753e-08
-2.36536e-08
5.73997e-08
-2.31515e-08
6.83391e-08
-2.19904e-08
7.83901e-08
-2.01938e-08
8.72724e-08
-1.78179e-08
9.47381e-08
-1.49428e-08
1.00578e-07
-1.16642e-08
1.0463e-07
-8.08461e-09
1.0678e-07
-4.3059e-09
1.06969e-07
-4.2323e-10
1.05177e-07
3.48305e-09
1.0141e-07
7.3468e-09
9.57078e-08
1.11115e-08
8.81398e-08
1.47312e-08
7.87981e-08
1.81678e-08
6.7796e-08
2.13851e-08
5.52688e-08
2.43439e-08
4.13771e-08
2.69967e-08
2.63108e-08
2.92869e-08
1.02895e-08
3.11513e-08
-6.44241e-09
3.25293e-08
-2.3623e-08
3.33785e-08
-4.09914e-08
3.36848e-08
-5.8314e-08
3.34721e-08
-7.54063e-08
3.28172e-08
-9.21646e-08
3.18684e-08
-1.08597e-07
3.08546e-08
-1.2484e-07
3.00739e-08
-1.41133e-07
2.98412e-08
-1.57715e-07
3.03903e-08
-1.7476e-07
3.17356e-08
-1.92488e-07
3.35706e-08
-2.11068e-07
3.54289e-08
-2.30474e-07
3.69823e-08
-2.50547e-07
3.8126e-08
-2.71096e-07
3.89419e-08
-2.91959e-07
3.95886e-08
-3.13039e-07
4.02072e-08
-3.34314e-07
4.08785e-08
-3.55815e-07
4.16247e-08
-3.77594e-07
4.24295e-08
-3.99706e-07
4.326e-08
-4.22186e-07
4.40823e-08
-4.45056e-07
4.4871e-08
-4.68319e-07
4.56128e-08
-4.91967e-07
4.63062e-08
-5.15984e-07
4.69594e-08
-5.40356e-07
4.75862e-08
-5.65071e-07
4.82025e-08
-5.90126e-07
4.88238e-08
-6.15522e-07
4.94628e-08
-6.41269e-07
5.01292e-08
-6.67381e-07
5.08293e-08
-6.93878e-07
5.15665e-08
-7.20779e-07
5.23418e-08
-7.48107e-07
5.31541e-08
-7.75882e-07
5.40007e-08
-8.04124e-07
5.48774e-08
-8.32847e-07
5.57787e-08
-8.62064e-07
5.66977e-08
-8.91782e-07
5.76261e-08
-9.22e-07
5.85545e-08
-9.52715e-07
5.9472e-08
-9.83915e-07
6.03669e-08
-1.01558e-06
6.12263e-08
-1.04768e-06
6.2037e-08
-1.08019e-06
6.27849e-08
-1.11305e-06
6.34561e-08
-1.14622e-06
6.40366e-08
-1.17965e-06
6.45125e-08
-1.21326e-06
6.4871e-08
-1.24699e-06
6.50999e-08
-1.28076e-06
6.51886e-08
-1.31448e-06
6.51277e-08
-1.34808e-06
6.49101e-08
-1.38146e-06
6.45306e-08
-1.41454e-06
6.39863e-08
-1.44724e-06
6.32766e-08
-1.47945e-06
6.24035e-08
-1.51111e-06
6.13712e-08
-1.54213e-06
6.0186e-08
-1.57244e-06
5.88564e-08
-1.60197e-06
5.73924e-08
-1.63067e-06
5.58055e-08
-1.65846e-06
5.41086e-08
-1.68532e-06
5.23157e-08
-1.7112e-06
5.04413e-08
-1.73607e-06
4.8501e-08
-1.75992e-06
4.65108e-08
-1.78273e-06
4.44865e-08
-1.80449e-06
4.24437e-08
-1.82521e-06
4.03972e-08
-1.8449e-06
3.83608e-08
-1.86357e-06
3.63469e-08
-1.88122e-06
3.43672e-08
-1.89789e-06
3.24318e-08
-1.9136e-06
3.05496e-08
-1.92837e-06
2.87282e-08
-1.94223e-06
2.69734e-08
-1.95521e-06
2.52894e-08
-1.96736e-06
2.36786e-08
-1.9787e-06
2.21417e-08
-1.98926e-06
2.06782e-08
-1.99909e-06
1.92869e-08
-2.00821e-06
1.79657e-08
-2.01666e-06
1.67128e-08
-2.02447e-06
1.5526e-08
-2.03166e-06
1.44036e-08
-2.03828e-06
1.33441e-08
-2.04434e-06
1.23454e-08
-2.04987e-06
1.14047e-08
-2.05491e-06
1.05179e-08
-2.05946e-06
9.67937e-09
-2.06355e-06
8.8818e-09
-2.06718e-06
8.11681e-09
-2.07037e-06
7.37517e-09
-2.07311e-06
6.64782e-09
-2.07541e-06
5.92549e-09
-2.07725e-06
5.19794e-09
-2.07862e-06
4.45515e-09
-2.07949e-06
3.68565e-09
-2.07984e-06
2.86413e-09
-2.07961e-06
1.96851e-09
-2.07868e-06
9.37081e-10
-2.07708e-06
-1.25405e-10
-2.07471e-06
-1.34956e-09
-2.07156e-06
-2.66337e-09
-2.06748e-06
-4.23544e-09
-2.06235e-06
-6.04293e-09
-2.05595e-06
-8.10138e-09
-2.04821e-06
-1.0488e-08
-2.0389e-06
-1.3223e-08
-2.02783e-06
-1.63441e-08
-2.01478e-06
-1.98981e-08
-1.99952e-06
-2.39346e-08
-1.98179e-06
-2.85021e-08
-1.96134e-06
-3.36444e-08
-1.93787e-06
-3.94e-08
-1.9111e-06
-4.58011e-08
-1.88069e-06
-5.28798e-08
-1.84631e-06
-6.06766e-08
-1.80758e-06
-6.92233e-08
-1.76409e-06
-7.85354e-08
-1.71543e-06
-8.86077e-08
-1.66124e-06
-9.94196e-08
-1.60121e-06
-1.10948e-07
-1.53502e-06
-1.23155e-07
-1.46242e-06
-1.35986e-07
-1.38316e-06
-1.49402e-07
-1.29702e-06
-1.63374e-07
-1.20385e-06
-1.77839e-07
-1.10352e-06
-1.92711e-07
-9.96e-07
-2.07939e-07
-8.81339e-07
-2.2345e-07
-7.59818e-07
-2.38975e-07
-6.32099e-07
-2.53963e-07
-4.99424e-07
-2.67027e-07
-3.63592e-07
-2.75154e-07
-2.23808e-07
-2.76498e-07
-7.86796e-08
-2.8039e-07
6.96269e-08
-2.89116e-07
2.19733e-07
-2.93256e-07
3.71539e-07
-2.92613e-07
5.24779e-07
-2.94977e-07
6.79306e-07
-2.99435e-07
8.33501e-07
-2.9908e-07
9.8553e-07
-2.94772e-07
1.13415e-06
-2.87791e-07
1.2783e-06
-2.78813e-07
1.41703e-06
-2.68049e-07
1.54933e-06
-2.55482e-07
1.67413e-06
-2.40902e-07
1.79001e-06
-2.23675e-07
1.89485e-06
-2.02411e-07
1.98555e-06
-1.73068e-07
2.05659e-06
-1.23325e-07
-3.56934e-08
2.10694e-06
1.05517e-08
-3.1999e-08
2.19682e-08
-3.41839e-08
3.36812e-08
-3.52237e-08
4.53557e-08
-3.53281e-08
5.66562e-08
-3.44521e-08
6.72697e-08
-3.26039e-08
7.69117e-08
-2.98359e-08
8.53274e-08
-2.62336e-08
9.22905e-08
-2.19059e-08
9.76042e-08
-1.69779e-08
1.01104e-07
-1.15844e-08
1.02662e-07
-5.86433e-09
1.02196e-07
4.3446e-11
9.96659e-08
6.01289e-09
9.50899e-08
1.19228e-08
8.85273e-08
1.7674e-08
8.00752e-08
2.31833e-08
6.98599e-08
2.83831e-08
5.80297e-08
3.32154e-08
4.47507e-08
3.76229e-08
3.02061e-08
4.15413e-08
1.4596e-08
4.4897e-08
-1.86786e-09
4.76151e-08
-1.89743e-08
4.96357e-08
-3.65207e-08
5.09249e-08
-5.43186e-08
5.14827e-08
-7.22103e-08
5.13638e-08
-9.0091e-08
5.06979e-08
-1.0793e-07
4.97077e-08
-1.25788e-07
4.87118e-08
-1.43803e-07
4.80893e-08
-1.62149e-07
4.81869e-08
-1.8094e-07
4.91815e-08
-2.00179e-07
5.09746e-08
-2.1982e-07
5.32121e-08
-2.39849e-07
5.54573e-08
-2.6026e-07
5.73934e-08
-2.81042e-07
5.89084e-08
-3.02164e-07
6.00635e-08
-3.23581e-07
6.10056e-08
-3.45257e-07
6.18838e-08
-3.67181e-07
6.28022e-08
-3.89364e-07
6.38081e-08
-4.11837e-07
6.49027e-08
-4.34637e-07
6.60591e-08
-4.57793e-07
6.72392e-08
-4.8133e-07
6.84077e-08
-5.05257e-07
6.95393e-08
-5.29573e-07
7.06225e-08
-5.54272e-07
7.16585e-08
-5.79345e-07
7.26588e-08
-6.04783e-07
7.36406e-08
-6.30582e-07
7.46235e-08
-6.56746e-07
7.56263e-08
-6.83282e-07
7.66651e-08
-7.10204e-07
7.77518e-08
-7.37532e-07
7.88943e-08
-7.65287e-07
8.00966e-08
-7.93491e-07
8.13586e-08
-8.22168e-07
8.26772e-08
-8.51336e-07
8.4046e-08
-8.81014e-07
8.54559e-08
-9.11211e-07
8.68954e-08
-9.41935e-07
8.83504e-08
-9.73186e-07
8.98047e-08
-1.00495e-06
9.12402e-08
-1.03722e-06
9.2637e-08
-1.06997e-06
9.39742e-08
-1.10316e-06
9.52297e-08
-1.13676e-06
9.63809e-08
-1.17071e-06
9.74053e-08
-1.20495e-06
9.82806e-08
-1.23943e-06
9.89854e-08
-1.27406e-06
9.94997e-08
-1.30876e-06
9.98051e-08
-1.34346e-06
9.98857e-08
-1.37806e-06
9.97285e-08
-1.41247e-06
9.93233e-08
-1.4466e-06
9.86637e-08
-1.48037e-06
9.77467e-08
-1.51366e-06
9.65735e-08
-1.54641e-06
9.51484e-08
-1.57852e-06
9.34799e-08
-1.60991e-06
9.15794e-08
-1.64051e-06
8.94615e-08
-1.67027e-06
8.71434e-08
-1.6991e-06
8.46443e-08
-1.72698e-06
8.19851e-08
-1.75385e-06
7.91876e-08
-1.77969e-06
7.62744e-08
-1.80445e-06
7.32678e-08
-1.82813e-06
7.01901e-08
-1.85071e-06
6.7062e-08
-1.87217e-06
6.39034e-08
-1.8925e-06
6.07325e-08
-1.91171e-06
5.75666e-08
-1.92978e-06
5.44215e-08
-1.94673e-06
5.13129e-08
-1.96255e-06
4.82557e-08
-1.97727e-06
4.52642e-08
-1.99089e-06
4.23514e-08
-2.00345e-06
3.95289e-08
-2.01496e-06
3.68054e-08
-2.02547e-06
3.41871e-08
-2.03501e-06
3.16774e-08
-2.0436e-06
2.92775e-08
-2.0513e-06
2.69867e-08
-2.05814e-06
2.48035e-08
-2.06416e-06
2.27256e-08
-2.06938e-06
2.07507e-08
-2.07385e-06
1.88766e-08
-2.07761e-06
1.71008e-08
-2.08068e-06
1.54207e-08
-2.08311e-06
1.38314e-08
-2.08492e-06
1.23261e-08
-2.08614e-06
1.08949e-08
-2.08678e-06
9.5254e-09
-2.08687e-06
8.20308e-09
-2.0864e-06
6.91183e-09
-2.08539e-06
5.63545e-09
-2.08382e-06
4.35795e-09
-2.08168e-06
3.0605e-09
-2.07895e-06
1.72515e-09
-2.07561e-06
3.44707e-10
-2.07161e-06
-1.136e-09
-2.06692e-06
-2.71989e-09
-2.06153e-06
-4.45337e-09
-2.05533e-06
-6.33287e-09
-2.04826e-06
-8.41352e-09
-2.04021e-06
-1.07135e-08
-2.03113e-06
-1.33208e-08
-2.02089e-06
-1.62791e-08
-2.00936e-06
-1.96349e-08
-1.99639e-06
-2.34518e-08
-1.98183e-06
-2.77836e-08
-1.96549e-06
-3.2688e-08
-1.94716e-06
-3.82304e-08
-1.92661e-06
-4.44837e-08
-1.90359e-06
-5.15228e-08
-1.87781e-06
-5.94184e-08
-1.84898e-06
-6.82361e-08
-1.81674e-06
-7.80369e-08
-1.78074e-06
-8.88799e-08
-1.74059e-06
-1.00824e-07
-1.69592e-06
-1.13902e-07
-1.64636e-06
-1.28096e-07
-1.59161e-06
-1.43353e-07
-1.53141e-06
-1.59617e-07
-1.4655e-06
-1.76864e-07
-1.3936e-06
-1.95049e-07
-1.31549e-06
-2.14099e-07
-1.23094e-06
-2.33948e-07
-1.13977e-06
-2.54548e-07
-1.04182e-06
-2.75788e-07
-9.37029e-07
-2.97503e-07
-8.25406e-07
-3.19562e-07
-7.07066e-07
-3.41791e-07
-5.82353e-07
-3.63688e-07
-4.51915e-07
-3.84401e-07
-3.16492e-07
-4.0245e-07
-1.76226e-07
-4.1542e-07
-2.97774e-08
-4.22947e-07
1.21422e-07
-4.31589e-07
2.74301e-07
-4.41995e-07
4.28866e-07
-4.47822e-07
5.85537e-07
-4.49283e-07
7.42605e-07
-4.52045e-07
8.98767e-07
-4.55597e-07
1.05425e-06
-4.54568e-07
1.20814e-06
-4.48654e-07
1.3592e-06
-4.38852e-07
1.50624e-06
-4.25855e-07
1.64814e-06
-4.09952e-07
1.78381e-06
-3.91154e-07
1.9121e-06
-3.69191e-07
2.03169e-06
-3.43257e-07
2.1409e-06
-3.11624e-07
2.23805e-06
-2.70218e-07
2.32293e-06
-2.08209e-07
-1.10894e-07
2.39813e-06
1.02882e-08
-4.22872e-08
2.11699e-08
-4.50656e-08
3.22554e-08
-4.63092e-08
4.31641e-08
-4.62368e-08
5.35592e-08
-4.48472e-08
6.31527e-08
-4.21973e-08
7.16972e-08
-3.83804e-08
7.89767e-08
-3.3513e-08
8.47986e-08
-2.77278e-08
8.89917e-08
-2.11711e-08
9.14078e-08
-1.40005e-08
9.19264e-08
-6.38296e-09
9.0461e-08
1.50885e-09
8.69707e-08
9.50319e-09
8.14599e-08
1.74337e-08
7.39849e-08
2.5149e-08
6.46502e-08
3.2518e-08
5.36006e-08
3.94327e-08
4.10108e-08
4.58052e-08
2.70743e-08
5.15594e-08
1.19938e-08
5.66218e-08
-4.02972e-09
6.09206e-08
-2.08082e-08
6.43936e-08
-3.81709e-08
6.69985e-08
-5.59667e-08
6.87206e-08
-7.40718e-08
6.95878e-08
-9.24014e-08
6.96934e-08
-1.10924e-07
6.92208e-08
-1.29675e-07
6.8458e-08
-1.48745e-07
6.77822e-08
-1.68247e-07
6.75918e-08
-1.88241e-07
6.81806e-08
-2.08672e-07
6.96123e-08
-2.29388e-07
7.16903e-08
-2.50233e-07
7.4058e-08
-2.7114e-07
7.63636e-08
-2.92128e-07
7.8382e-08
-3.13268e-07
8.00479e-08
-3.34627e-07
8.14222e-08
-3.5625e-07
8.26289e-08
-3.78162e-07
8.37955e-08
-4.00375e-07
8.5016e-08
-4.22905e-07
8.63372e-08
-4.45765e-07
8.77634e-08
-4.68975e-07
8.92693e-08
-4.92552e-07
9.08153e-08
-5.16506e-07
9.23617e-08
-5.40844e-07
9.38774e-08
-5.65567e-07
9.53455e-08
-5.90671e-07
9.67634e-08
-6.16154e-07
9.81411e-08
-6.4201e-07
9.9497e-08
-6.6824e-07
1.00854e-07
-6.94849e-07
1.02235e-07
-7.21844e-07
1.0366e-07
-7.4924e-07
1.05147e-07
-7.77053e-07
1.06707e-07
-8.05302e-07
1.08346e-07
-8.34008e-07
1.10064e-07
-8.63188e-07
1.11858e-07
-8.92859e-07
1.13717e-07
-9.23034e-07
1.1563e-07
-9.53718e-07
1.1758e-07
-9.84913e-07
1.19545e-07
-1.01661e-06
1.21502e-07
-1.0488e-06
1.23426e-07
-1.08145e-06
1.25288e-07
-1.11453e-06
1.27058e-07
-1.14801e-06
1.28705e-07
-1.18182e-06
1.30197e-07
-1.21592e-06
1.31505e-07
-1.25024e-06
1.32596e-07
-1.28469e-06
1.33442e-07
-1.31921e-06
1.34017e-07
-1.3537e-06
1.34295e-07
-1.38807e-06
1.34255e-07
-1.42222e-06
1.33881e-07
-1.45606e-06
1.33161e-07
-1.48948e-06
1.32086e-07
-1.52239e-06
1.30654e-07
-1.55468e-06
1.28868e-07
-1.58627e-06
1.26736e-07
-1.61706e-06
1.24269e-07
-1.64697e-06
1.21486e-07
-1.67591e-06
1.18406e-07
-1.70382e-06
1.15054e-07
-1.73063e-06
1.11456e-07
-1.75629e-06
1.07641e-07
-1.78074e-06
1.03638e-07
-1.80394e-06
9.94774e-08
-1.82587e-06
9.51893e-08
-1.84648e-06
9.08036e-08
-1.86577e-06
8.63493e-08
-1.88372e-06
8.18548e-08
-1.90033e-06
7.73475e-08
-1.91562e-06
7.28541e-08
-1.9296e-06
6.84006e-08
-1.9423e-06
6.40124e-08
-1.95376e-06
5.97138e-08
-1.96402e-06
5.55276e-08
-1.97314e-06
5.14741e-08
-1.98118e-06
4.75693e-08
-1.9882e-06
4.38246e-08
-1.99426e-06
4.02462e-08
-1.99942e-06
3.68355e-08
-2.00373e-06
3.35899e-08
-2.00725e-06
3.05044e-08
-2.01002e-06
2.75723e-08
-2.01208e-06
2.47864e-08
-2.01347e-06
2.21396e-08
-2.01422e-06
1.96255e-08
-2.01435e-06
1.72381e-08
-2.0139e-06