/*--------------------------------*- C++ -*----------------------------------*\
| =========                 |                                                 |
| \\      /  F ield         | OpenFOAM: The Open Source CFD Toolbox           |
|  \\    /   O peration     | Version:  2112                                  |
|   \\  /    A nd           | Website:  www.openfoam.com                      |
|    \\/     M anipulation  |                                                 |
\*---------------------------------------------------------------------------*/
FoamFile
{
    version     2.0;
    format      ascii;
    arch        "LSB;label=32;scalar=64";
    class       surfaceScalarField;
    location    "0.23";
    object      phi_0;
}
// * * * * * * * * * * * * * * * * * * * * * * * * * * * * * * * * * * * * * //

dimensions      [0 3 -1 0 0 0 0];

oriented        oriented;

internalField   nonuniform List<scalar> 
24170
(
3.04041e-06
1.47998e-07
2.867e-06
1.73411e-07
2.69447e-06
1.72522e-07
2.52484e-06
1.69636e-07
2.36493e-06
1.59904e-07
2.22044e-06
1.4449e-07
2.095e-06
1.25447e-07
1.99052e-06
1.0448e-07
1.90733e-06
8.31897e-08
1.84419e-06
6.3136e-08
1.79865e-06
4.55443e-08
1.76753e-06
3.11201e-08
1.74747e-06
2.00539e-08
1.73523e-06
1.22387e-08
1.72807e-06
7.16819e-09
1.72283e-06
5.23214e-09
1.71224e-06
1.05952e-08
2.39027e-08
1.68834e-06
3.48641e-06
7.88352e-08
3.53381e-06
1.26017e-07
3.56202e-06
1.44306e-07
3.57074e-06
1.60917e-07
3.56054e-06
1.70106e-07
3.53387e-06
1.71159e-07
3.49371e-06
1.65606e-07
3.44312e-06
1.5507e-07
3.38501e-06
1.41299e-07
3.32186e-06
1.26286e-07
3.25563e-06
1.11778e-07
3.18783e-06
9.89197e-08
3.11965e-06
8.82295e-08
3.0521e-06
7.97905e-08
2.98607e-06
7.31942e-08
2.92251e-06
6.87997e-08
2.86756e-06
6.55443e-08
5.79586e-08
2.8335e-06
3.68115e-06
6.02034e-08
3.69987e-06
1.07301e-07
3.71906e-06
1.25116e-07
3.74008e-06
1.39889e-07
3.76091e-06
1.49282e-07
3.7798e-06
1.5227e-07
3.79535e-06
1.5005e-07
3.80655e-06
1.4387e-07
3.81279e-06
1.35067e-07
3.81398e-06
1.25089e-07
3.81052e-06
1.15238e-07
3.80304e-06
1.06401e-07
3.79223e-06
9.90389e-08
3.77879e-06
9.32291e-08
3.76328e-06
8.87089e-08
3.74701e-06
8.50715e-08
3.73117e-06
8.13797e-08
7.33587e-08
3.71577e-06
3.93681e-06
4.87771e-08
3.94865e-06
9.54657e-08
3.95872e-06
1.15041e-07
3.96946e-06
1.29151e-07
3.98081e-06
1.3793e-07
3.9925e-06
1.40583e-07
4.00407e-06
1.38482e-07
4.01493e-06
1.33012e-07
4.02466e-06
1.25329e-07
4.03314e-06
1.16613e-07
4.04044e-06
1.07942e-07
4.04674e-06
1.00098e-07
4.05231e-06
9.34666e-08
4.05748e-06
8.80641e-08
4.0626e-06
8.35806e-08
4.06822e-06
7.94509e-08
4.07468e-06
7.49279e-08
6.71663e-08
4.08087e-06
4.21577e-06
4.01319e-08
4.2262e-06
8.50426e-08
4.23533e-06
1.05911e-07
4.24454e-06
1.19932e-07
4.25401e-06
1.2847e-07
4.26342e-06
1.3117e-07
4.27253e-06
1.29366e-07
4.2811e-06
1.24443e-07
4.28895e-06
1.17483e-07
4.29599e-06
1.09571e-07
4.3023e-06
1.01629e-07
4.30812e-06
9.42815e-08
4.31376e-06
8.78284e-08
4.31955e-06
8.22725e-08
4.3258e-06
7.73319e-08
4.33279e-06
7.24634e-08
4.34085e-06
6.68602e-08
5.88096e-08
4.34921e-06
4.51587e-06
3.33482e-08
4.52553e-06
7.53857e-08
4.53466e-06
9.67762e-08
4.54383e-06
1.10762e-07
4.55313e-06
1.19173e-07
4.56228e-06
1.22015e-07
4.57107e-06
1.20581e-07
4.57931e-06
1.16204e-07
4.58688e-06
1.09915e-07
4.59376e-06
1.02691e-07
4.60005e-06
9.53362e-08
4.60595e-06
8.83791e-08
4.61171e-06
8.20687e-08
4.61761e-06
7.63699e-08
4.62392e-06
7.10281e-08
4.63078e-06
6.56005e-08
4.63822e-06
5.94248e-08
5.149e-08
4.64554e-06
4.83814e-06
2.79275e-08
4.84702e-06
6.65046e-08
4.85608e-06
8.77195e-08
4.86539e-06
1.0145e-07
4.87484e-06
1.09719e-07
4.88416e-06
1.12701e-07
4.89311e-06
1.1163e-07
4.90153e-06
1.07783e-07
4.90932e-06
1.02127e-07
4.91648e-06
9.5528e-08
4.92312e-06
8.86919e-08
4.92942e-06
8.20834e-08
4.93557e-06
7.59192e-08
4.94179e-06
7.01533e-08
4.94826e-06
6.45589e-08
4.95507e-06
5.87813e-08
4.96216e-06
5.23364e-08
4.46214e-08
4.96903e-06
5.18399e-06
2.35141e-08
5.1921e-06
5.83977e-08
5.20093e-06
7.88883e-08
5.2103e-06
9.20799e-08
5.21993e-06
1.00093e-07
5.22943e-06
1.03196e-07
5.2386e-06
1.02462e-07
5.24729e-06
9.90921e-08
5.25541e-06
9.40116e-08
5.26295e-06
8.79904e-08
5.27e-06
8.16412e-08
5.27671e-06
7.53686e-08
5.28327e-06
6.93624e-08
5.28983e-06
6.35966e-08
5.2965e-06
5.78875e-08
5.30332e-06
5.19536e-08
5.31021e-06
4.54535e-08
3.80704e-08
5.31676e-06
5.55499e-06
1.98591e-08
5.56239e-06
5.09954e-08
5.57093e-06
7.03515e-08
5.58023e-06
8.27799e-08
5.58997e-06
9.03549e-08
5.59967e-06
9.34931e-08
5.60905e-06
9.308e-08
5.61799e-06
9.01591e-08
5.6264e-06
8.56002e-08
5.63428e-06
8.01063e-08
5.64171e-06
7.4214e-08
5.6488e-06
6.82744e-08
5.65571e-06
6.24564e-08
5.66255e-06
5.67515e-08
5.66941e-06
5.10293e-08
5.67628e-06
4.50874e-08
5.68303e-06
3.87039e-08
3.17403e-08
5.68936e-06
5.95285e-06
1.67817e-08
5.95963e-06
4.42139e-08
5.96786e-06
6.21232e-08
5.97701e-06
7.36346e-08
5.98674e-06
8.06246e-08
5.99659e-06
8.36445e-08
6.00621e-06
8.3458e-08
6.01541e-06
8.09564e-08
6.02411e-06
7.68979e-08
6.03232e-06
7.19012e-08
6.04009e-06
6.64468e-08
6.04751e-06
6.08463e-08
6.05472e-06
5.52505e-08
6.0618e-06
4.96699e-08
6.0688e-06
4.40285e-08
6.07569e-06
3.81977e-08
6.08235e-06
3.20511e-08
2.55553e-08
6.08853e-06
6.37945e-06
1.41441e-08
6.38568e-06
3.79793e-08
6.39361e-06
5.41969e-08
6.40258e-06
6.46687e-08
6.41222e-06
7.09855e-08
6.4221e-06
7.37626e-08
6.43188e-06
7.36722e-08
6.44135e-06
7.14883e-08
6.45038e-06
6.78683e-08
6.45894e-06
6.33403e-08
6.46707e-06
5.8321e-08
6.47483e-06
5.30881e-08
6.48231e-06
4.77678e-08
6.48959e-06
4.23877e-08
6.4967e-06
3.69168e-08
6.5036e-06
3.12956e-08
6.51019e-06
2.54703e-08
1.94661e-08
6.51627e-06
5.74281e-06
1.21643e-08
5.7477e-06
3.30949e-08
5.75417e-06
4.77211e-08
5.76161e-06
5.7229e-08
5.76967e-06
6.29301e-08
5.778e-06
6.54341e-08
5.78632e-06
6.53481e-08
5.79446e-06
6.33531e-08
5.80229e-06
6.00329e-08
5.80978e-06
5.58517e-08
5.81693e-06
5.11725e-08
5.82377e-06
4.62462e-08
5.83034e-06
4.11962e-08
5.83667e-06
3.60596e-08
5.84277e-06
3.08128e-08
5.84863e-06
2.54397e-08
5.85417e-06
1.99347e-08
1.43586e-08
5.85927e-06
7.00019e-06
1.01308e-08
7.00543e-06
2.78571e-08
7.01258e-06
4.05681e-08
7.02093e-06
4.88797e-08
7.03005e-06
5.38128e-08
7.03954e-06
5.59398e-08
7.0491e-06
5.57886e-08
7.05852e-06
5.39378e-08
7.06766e-06
5.08926e-08
7.07645e-06
4.7053e-08
7.0849e-06
4.27271e-08
7.09301e-06
3.8132e-08
7.10082e-06
3.33927e-08
7.10831e-06
2.85668e-08
7.11547e-06
2.36547e-08
7.12225e-06
1.86548e-08
7.12861e-06
1.35763e-08
8.50238e-09
7.13447e-06
8.53293e-06
8.04858e-09
8.53848e-06
2.23064e-08
8.54629e-06
3.27591e-08
8.55556e-06
3.96135e-08
8.56577e-06
4.35993e-08
8.57649e-06
4.52194e-08
8.58736e-06
4.49131e-08
8.59815e-06
4.31493e-08
8.6087e-06
4.03467e-08
8.61891e-06
3.68386e-08
8.62876e-06
3.28802e-08
8.63824e-06
2.86552e-08
8.64735e-06
2.42798e-08
8.6561e-06
1.98206e-08
8.66444e-06
1.5312e-08
8.67232e-06
1.07746e-08
8.67967e-06
6.22816e-09
1.75211e-09
8.68642e-06
1.04014e-05
5.91144e-09
1.04072e-05
1.64738e-08
1.04156e-05
2.4323e-08
1.04258e-05
2.94327e-08
1.04371e-05
3.22656e-08
1.04491e-05
3.32217e-08
1.04614e-05
3.26463e-08
1.04737e-05
3.08954e-08
1.04857e-05
2.82948e-08
1.04974e-05
2.5108e-08
1.05088e-05
2.15379e-08
1.05197e-05
1.77338e-08
1.05302e-05
1.37982e-08
1.05402e-05
9.7989e-09
1.05497e-05
5.78169e-09
1.05587e-05
1.78357e-09
1.05671e-05
-2.16058e-09
-5.97763e-09
1.05748e-05
1.2679e-05
3.70216e-09
1.26851e-05
1.0353e-08
1.26942e-05
1.52678e-08
1.27053e-05
1.83267e-08
1.27178e-05
1.97754e-08
1.27311e-05
1.98873e-08
1.27448e-05
1.89067e-08
1.27587e-05
1.7079e-08
1.27723e-05
1.46334e-08
1.27857e-05
1.17598e-08
1.27986e-05
8.60664e-09
1.28111e-05
5.28606e-09
1.2823e-05
1.88029e-09
1.28343e-05
-1.55105e-09
1.28451e-05
-4.96265e-09
1.28552e-05
-8.31562e-09
1.28646e-05
-1.1576e-08
-1.46823e-08
1.28733e-05
1.54555e-05
1.38463e-09
1.5462e-05
3.86962e-09
1.54717e-05
5.52115e-09
1.54838e-05
6.20991e-09
1.54976e-05
6.02173e-09
1.55124e-05
5.09384e-09
1.55277e-05
3.5612e-09
1.55433e-05
1.56127e-09
1.55587e-05
-7.74669e-10
1.55738e-05
-3.33481e-09
1.55884e-05
-6.03031e-09
1.56025e-05
-8.79221e-09
1.56159e-05
-1.15678e-08
1.56287e-05
-1.43166e-08
1.56407e-05
-1.70057e-08
1.5652e-05
-1.96062e-08
1.56625e-05
-2.20937e-08
-2.44223e-08
1.56723e-05
1.88401e-05
-1.12317e-09
1.88472e-05
-3.19158e-09
1.88579e-05
-5.18843e-09
1.88713e-05
-7.21367e-09
1.88867e-05
-9.30814e-09
1.89032e-05
-1.1476e-08
1.89205e-05
-1.36999e-08
1.8938e-05
-1.59515e-08
1.89554e-05
-1.82007e-08
1.89725e-05
-2.04205e-08
1.89891e-05
-2.25896e-08
1.9005e-05
-2.46916e-08
1.90201e-05
-2.67146e-08
1.90345e-05
-2.86486e-08
1.90479e-05
-3.04845e-08
1.90605e-05
-3.22128e-08
1.90723e-05
-3.38247e-08
-3.52936e-08
1.90831e-05
2.29662e-05
-4.00012e-09
2.29744e-05
-1.13548e-08
2.29868e-05
-1.75749e-08
2.30023e-05
-2.27357e-08
2.302e-05
-2.70331e-08
2.30392e-05
-3.06363e-08
2.30591e-05
-3.3658e-08
2.30794e-05
-3.6189e-08
2.30995e-05
-3.83111e-08
2.31192e-05
-4.00942e-08
2.31382e-05
-4.15968e-08
2.31563e-05
-4.28687e-08
2.31736e-05
-4.39518e-08
2.31898e-05
-4.48803e-08
2.3205e-05
-4.56799e-08
2.32192e-05
-4.63688e-08
2.32323e-05
-4.69599e-08
-4.74479e-08
2.32444e-05
1.6813e-05
-6.27274e-09
1.68193e-05
-1.77021e-08
1.68288e-05
-2.70488e-08
1.68405e-05
-3.44368e-08
1.68537e-05
-4.02672e-08
1.68679e-05
-4.48488e-08
1.68827e-05
-4.83807e-08
1.68975e-05
-5.104e-08
1.69122e-05
-5.29915e-08
1.69265e-05
-5.43746e-08
1.69402e-05
-5.5306e-08
1.69532e-05
-5.58863e-08
1.69655e-05
-5.62013e-08
1.69769e-05
-5.63212e-08
1.69875e-05
-5.63012e-08
1.69973e-05
-5.61824e-08
1.70064e-05
-5.59952e-08
-5.57491e-08
1.70147e-05
1.46368e-05
-8.55264e-09
1.46431e-05
-2.39564e-08
1.46522e-05
-3.61173e-08
1.46631e-05
-4.53827e-08
1.46753e-05
-5.2483e-08
1.46883e-05
-5.78543e-08
1.47017e-05
-6.17577e-08
1.47151e-05
-6.44511e-08
1.47283e-05
-6.61739e-08
1.47411e-05
-6.71228e-08
1.47532e-05
-6.7464e-08
1.47647e-05
-6.73448e-08
1.47754e-05
-6.68931e-08
1.47853e-05
-6.6215e-08
1.47944e-05
-6.53949e-08
1.48027e-05
-6.44973e-08
1.48102e-05
-6.35695e-08
-6.26348e-08
1.48171e-05
1.27426e-05
-1.10179e-08
1.27491e-05
-3.04619e-08
1.27581e-05
-4.5103e-08
1.27686e-05
-5.58917e-08
1.27802e-05
-6.40358e-08
1.27923e-05
-7.00374e-08
1.28048e-05
-7.41928e-08
1.28172e-05
-7.68436e-08
1.28293e-05
-7.82931e-08
1.28409e-05
-7.87796e-08
1.2852e-05
-7.85103e-08
1.28623e-05
-7.7676e-08
1.28719e-05
-7.64464e-08
1.28806e-05
-7.49636e-08
1.28886e-05
-7.33424e-08
1.28957e-05
-7.16721e-08
1.29022e-05
-7.00188e-08
-6.84202e-08
1.2908e-05
1.10938e-05
-1.3872e-08
1.11008e-05
-3.75e-08
1.11099e-05
-5.41728e-08
1.11201e-05
-6.61172e-08
1.11312e-05
-7.5115e-08
1.11428e-05
-8.16114e-08
1.11545e-05
-8.59202e-08
1.11661e-05
-8.84713e-08
1.11774e-05
-8.96147e-08
1.11883e-05
-8.96144e-08
1.11985e-05
-8.87115e-08
1.12079e-05
-8.71391e-08
1.12166e-05
-8.51097e-08
1.12244e-05
-8.28024e-08
1.12315e-05
-8.03635e-08
1.12377e-05
-7.7908e-08
1.12432e-05
-7.55208e-08
-7.32505e-08
1.1248e-05
9.65873e-06
-1.73843e-08
9.66654e-06
-4.53121e-08
9.67578e-06
-6.34136e-08
9.68582e-06
-7.61604e-08
9.69655e-06
-8.58372e-08
9.70762e-06
-9.26835e-08
9.71874e-06
-9.70453e-08
9.72971e-06
-9.94413e-08
9.74034e-06
-1.00244e-07
9.75046e-06
-9.97301e-08
9.75991e-06
-9.81678e-08
9.76861e-06
-9.58342e-08
9.77649e-06
-9.29855e-08
9.78352e-06
-8.98378e-08
9.78973e-06
-8.65718e-08
9.79515e-06
-8.3332e-08
9.79986e-06
-8.02281e-08
-7.73224e-08
9.80393e-06
8.40993e-06
-2.19664e-08
8.41874e-06
-5.41197e-08
8.42818e-06
-7.28522e-08
8.4381e-06
-8.60754e-08
8.4485e-06
-9.62403e-08
8.45906e-06
-1.03246e-07
8.46955e-06
-1.07532e-07
8.47981e-06
-1.09707e-07
8.48971e-06
-1.10142e-07
8.49909e-06
-1.09106e-07
8.50781e-06
-1.06886e-07
8.51578e-06
-1.03805e-07
8.52295e-06
-1.00157e-07
8.5293e-06
-9.61863e-08
8.53483e-06
-9.21071e-08
8.5396e-06
-8.80959e-08
8.54364e-06
-8.42771e-08
-8.06752e-08
8.547e-06
7.32358e-06
-2.82589e-08
7.33363e-06
-6.4175e-08
7.34321e-06
-8.24336e-08
7.35289e-06
-9.57542e-08
7.36287e-06
-1.06216e-07
7.37287e-06
-1.13253e-07
7.38277e-06
-1.17426e-07
7.39249e-06
-1.19423e-07
7.40191e-06
-1.1957e-07
7.41092e-06
-1.18112e-07
7.41937e-06
-1.15334e-07
7.42715e-06
-1.11584e-07
7.43418e-06
-1.07193e-07
7.44043e-06
-1.0243e-07
7.44588e-06
-9.75587e-08
7.45059e-06
-9.28038e-08
7.45465e-06
-8.8339e-08
-8.42503e-08
7.45822e-06
6.37891e-06
-3.71025e-08
6.39063e-06
-7.5892e-08
6.40077e-06
-9.25733e-08
6.411e-06
-1.0599e-07
6.42149e-06
-1.16702e-07
6.43205e-06
-1.23815e-07
6.44267e-06
-1.28052e-07
6.45336e-06
-1.30106e-07
6.46399e-06
-1.30203e-07
6.47442e-06
-1.2854e-07
6.48447e-06
-1.25382e-07
6.49391e-06
-1.21028e-07
6.50254e-06
-1.1582e-07
6.51024e-06
-1.10134e-07
6.51699e-06
-1.0431e-07
6.52284e-06
-9.86544e-08
6.52779e-06
-9.32894e-08
-8.83328e-08
6.53187e-06
5.55999e-06
-5.16243e-08
5.57641e-06
-9.2318e-08
5.59197e-06
-1.08129e-07
5.60947e-06
-1.23492e-07
5.62827e-06
-1.35505e-07
5.64757e-06
-1.43115e-07
5.66699e-06
-1.47469e-07
5.68599e-06
-1.49103e-07
5.70392e-06
-1.48136e-07
5.72017e-06
-1.44787e-07
5.73421e-06
-1.39423e-07
5.74571e-06
-1.32525e-07
5.75451e-06
-1.24625e-07
5.76059e-06
-1.1621e-07
5.76399e-06
-1.07713e-07
5.76491e-06
-9.95698e-08
5.76365e-06
-9.20364e-08
-8.56567e-08
5.76098e-06
4.88592e-06
-1.09932e-07
4.93651e-06
-1.42917e-07
4.97834e-06
-1.49956e-07
5.00972e-06
-1.54872e-07
5.02927e-06
-1.55056e-07
5.03742e-06
-1.51263e-07
5.03479e-06
-1.44837e-07
5.02219e-06
-1.36503e-07
5.0007e-06
-1.26646e-07
4.97155e-06
-1.15638e-07
4.93601e-06
-1.03885e-07
4.8953e-06
-9.18129e-08
4.85051e-06
-7.98382e-08
4.80263e-06
-6.83236e-08
4.75247e-06
-5.75574e-08
4.70074e-06
-4.78345e-08
4.64801e-06
-3.93118e-08
-3.2224e-08
4.59458e-06
4.09274e-06
3.94983e-06
3.79987e-06
3.645e-06
3.48994e-06
3.33868e-06
3.19384e-06
3.05734e-06
2.93069e-06
2.81505e-06
2.71117e-06
2.61936e-06
2.53952e-06
2.47119e-06
2.41364e-06
2.3658e-06
2.32649e-06
2.29427e-06
1.11065e-08
-1.11065e-08
2.30113e-08
-1.19048e-08
3.53139e-08
-1.23026e-08
4.77554e-08
-1.24415e-08
6.00146e-08
-1.22592e-08
7.17603e-08
-1.17457e-08
8.26736e-08
-1.09133e-08
9.24671e-08
-9.79352e-09
1.00899e-07
-8.43189e-09
1.07779e-07
-6.88013e-09
1.12968e-07
-5.1886e-09
1.16368e-07
-3.40056e-09
1.17918e-07
-1.54999e-09
1.17578e-07
3.3981e-10
1.15351e-07
2.2274e-09
1.11264e-07
4.0867e-09
1.05371e-07
5.89377e-09
9.77393e-08
7.63129e-09
8.84534e-08
9.28591e-09
7.76062e-08
1.08471e-08
6.53014e-08
1.23049e-08
5.16547e-08
1.36467e-08
3.67991e-08
1.48556e-08
2.08909e-08
1.59082e-08
4.1163e-09
1.67746e-08
-1.33055e-08
1.74218e-08
-3.11225e-08
1.7817e-08
-4.90477e-08
1.79252e-08
-6.67667e-08
1.7719e-08
-8.39667e-08
1.72e-08
-1.00416e-07
1.64492e-08
-1.16134e-07
1.57179e-08
-1.31637e-07
1.55027e-08
-1.47471e-07
1.58348e-08
-1.64008e-07
1.65367e-08
-1.81869e-07
1.78605e-08
-2.0174e-07
1.9872e-08
-2.23862e-07
2.21215e-08
-2.47636e-07
2.37744e-08
-2.7183e-07
2.41937e-08
-2.95345e-07
2.35146e-08
-3.17839e-07
2.24943e-08
-3.39603e-07
2.17638e-08
-3.61108e-07
2.15055e-08
-3.82712e-07
2.16035e-08
-4.04589e-07
2.18773e-08
-4.26785e-07
2.21963e-08
-4.49281e-07
2.24951e-08
-4.72033e-07
2.27524e-08
-4.95003e-07
2.29702e-08
-5.18161e-07
2.31581e-08
-5.41498e-07
2.33364e-08
-5.6502e-07
2.35223e-08
-5.88743e-07
2.3723e-08
-6.12689e-07
2.39459e-08
-6.36885e-07
2.41963e-08
-6.61361e-07
2.44763e-08
-6.86147e-07
2.47857e-08
-7.1127e-07
2.51224e-08
-7.36752e-07
2.54829e-08
-7.62615e-07
2.5863e-08
-7.88873e-07
2.62578e-08
-8.15535e-07
2.66619e-08
-8.42605e-07
2.70696e-08
-8.7008e-07
2.7475e-08
-8.97952e-07
2.78718e-08
-9.26205e-07
2.82535e-08
-9.54818e-07
2.86134e-08
-9.83763e-07
2.89449e-08
-1.013e-06
2.92413e-08
-1.0425e-06
2.94961e-08
-1.0722e-06
2.97029e-08
-1.10206e-06
2.98558e-08
-1.13201e-06
2.99496e-08
-1.16199e-06
2.99795e-08
-1.19193e-06
2.99413e-08
-1.22176e-06
2.9832e-08
-1.25141e-06
2.96492e-08
-1.2808e-06
2.93915e-08
-1.30986e-06
2.90587e-08
-1.33851e-06
2.86513e-08
-1.36668e-06
2.81708e-08
-1.3943e-06
2.76197e-08
-1.4213e-06
2.70012e-08
-1.44762e-06
2.6319e-08
-1.4732e-06
2.55776e-08
-1.49798e-06
2.4782e-08
-1.52192e-06
2.39378e-08
-1.54497e-06
2.30511e-08
-1.5671e-06
2.2129e-08
-1.58828e-06
2.11788e-08
-1.60849e-06
2.02087e-08
-1.62772e-06
1.92268e-08
-1.64596e-06
1.82416e-08
-1.66322e-06
1.72608e-08
-1.67951e-06
1.6292e-08
-1.69485e-06
1.53416e-08
-1.70927e-06
1.44151e-08
-1.72278e-06
1.35169e-08
-1.73543e-06
1.26507e-08
-1.74725e-06
1.1819e-08
-1.75828e-06
1.10235e-08
-1.76854e-06
1.02653e-08
-1.77809e-06
9.54445e-09
-1.78695e-06
8.86079e-09
-1.79516e-06
8.21323e-09
-1.80276e-06
7.60036e-09
-1.80978e-06
7.02038e-09
-1.81625e-06
6.47138e-09
-1.8222e-06
5.95148e-09
-1.82766e-06
5.45909e-09
-1.83266e-06
4.99311e-09
-1.83721e-06
4.553e-09
-1.84135e-06
4.13872e-09
-1.8451e-06
3.75052e-09
-1.84849e-06
3.38859e-09
-1.85154e-06
3.05293e-09
-1.85428e-06
2.74291e-09
-1.85674e-06
2.4575e-09
-1.85894e-06
2.19597e-09
-1.86089e-06
1.9561e-09
-1.86262e-06
1.72382e-09
-1.86411e-06
1.49145e-09
-1.86536e-06
1.25428e-09
-1.86637e-06
1.00677e-09
-1.86713e-06
7.64387e-10
-1.86765e-06
5.14202e-10
-1.86788e-06
2.34848e-10
-1.86777e-06
-1.08617e-10
-1.86728e-06
-4.96326e-10
-1.86632e-06
-9.52315e-10
-1.86487e-06
-1.45455e-09
-1.86284e-06
-2.02929e-09
-1.86015e-06
-2.69186e-09
-1.85669e-06
-3.45632e-09
-1.85236e-06
-4.33706e-09
-1.84701e-06
-5.34943e-09
-1.8405e-06
-6.51039e-09
-1.83266e-06
-7.8385e-09
-1.8233e-06
-9.35467e-09
-1.81222e-06
-1.10822e-08
-1.79917e-06
-1.30453e-08
-1.78391e-06
-1.52658e-08
-1.76615e-06
-1.77595e-08
-1.74561e-06
-2.05361e-08
-1.72199e-06
-2.36269e-08
-1.69495e-06
-2.70385e-08
-1.66417e-06
-3.07771e-08
-1.62932e-06
-3.48491e-08
-1.59006e-06
-3.9258e-08
-1.54607e-06
-4.39956e-08
-1.49703e-06
-4.90402e-08
-1.44266e-06
-5.43633e-08
-1.38273e-06
-5.99328e-08
-1.31701e-06
-6.57219e-08
-1.24529e-06
-7.17167e-08
-1.16738e-06
-7.79126e-08
-1.08308e-06
-8.43039e-08
-9.92177e-07
-9.09001e-08
-8.94424e-07
-9.77529e-08
-7.89516e-07
-1.04908e-07
-6.77215e-07
-1.12301e-07
-5.57745e-07
-1.1947e-07
-4.33144e-07
-1.24601e-07
-3.08921e-07
-1.24223e-07
-1.88602e-07
-1.20318e-07
-6.69379e-08
-1.21665e-07
5.82343e-08
-1.25172e-07
1.81516e-07
-1.23282e-07
3.03754e-07
-1.22238e-07
4.2829e-07
-1.24536e-07
5.53476e-07
-1.25186e-07
6.76522e-07
-1.23046e-07
7.95952e-07
-1.1943e-07
9.10769e-07
-1.14817e-07
1.01994e-06
-1.09173e-07
1.12192e-06
-1.01983e-07
1.21362e-06
-9.16907e-08
1.28199e-06
-6.83734e-08
-2.48792e-08
1.30687e-06
1.12992e-08
-2.24057e-08
2.32035e-08
-2.38091e-08
3.54849e-08
-2.4584e-08
4.78322e-08
-2.47888e-08
5.99537e-08
-2.43808e-08
7.15561e-08
-2.3348e-08
8.23562e-08
-2.17134e-08
9.20911e-08
-1.95284e-08
1.00524e-07
-1.68647e-08
1.07449e-07
-1.38053e-08
1.12697e-07
-1.04368e-08
1.1614e-07
-6.84359e-09
1.17694e-07
-3.10417e-09
1.17325e-07
7.08848e-10
1.15015e-07
4.538e-09
1.10775e-07
8.32681e-09
1.0464e-07
1.20286e-08
9.66665e-08
1.56047e-08
8.69283e-08
1.9024e-08
7.5516e-08
2.22595e-08
6.25368e-08
2.5284e-08
4.81178e-08
2.80657e-08
3.24085e-08
3.05648e-08
1.5584e-08
3.27327e-08
-2.1563e-09
3.45149e-08
-2.05958e-08
3.58613e-08
-3.95104e-08
3.67316e-08
-5.86846e-08
3.70994e-08
-7.79319e-08
3.69663e-08
-9.71167e-08
3.63849e-08
-1.16161e-07
3.54931e-08
-1.35e-07
3.45571e-08
-1.53482e-07
3.39846e-08
-1.71793e-07
3.41464e-08
-1.90477e-07
3.52203e-08
-2.09977e-07
3.73602e-08
-2.30594e-07
4.04892e-08
-2.52536e-07
4.40638e-08
-2.75904e-07
4.71422e-08
-3.00612e-07
4.8902e-08
-3.26274e-07
4.91762e-08
-3.52224e-07
4.84447e-08
-3.77836e-07
4.73758e-08
-4.02766e-07
4.64358e-08
-4.26976e-07
4.58132e-08
-4.50614e-07
4.55153e-08
-4.73895e-07
4.54767e-08
-4.97022e-07
4.56227e-08
-5.20164e-07
4.58945e-08
-5.43447e-07
4.62531e-08
-5.66965e-07
4.66764e-08
-5.90782e-07
4.7153e-08
-6.14939e-07
4.76788e-08
-6.3947e-07
4.82547e-08
-6.64406e-07
4.8882e-08
-6.89772e-07
4.95614e-08
-7.15587e-07
5.02915e-08
-7.4187e-07
5.10687e-08
-7.68635e-07
5.18876e-08
-7.95893e-07
5.27409e-08
-8.2365e-07
5.362e-08
-8.51908e-07
5.45153e-08
-8.80662e-07
5.54163e-08
-9.09904e-07
5.63117e-08
-9.39619e-07
5.71896e-08
-9.69784e-07
5.80377e-08
-1.00037e-06
5.88432e-08
-1.03135e-06
5.95931e-08
-1.06268e-06
6.02744e-08
-1.09432e-06
6.0874e-08
-1.1262e-06
6.13794e-08
-1.15827e-06
6.17786e-08
-1.19048e-06
6.20601e-08
-1.22274e-06
6.22139e-08
-1.255e-06
6.22311e-08
-1.28716e-06
6.2104e-08
-1.31915e-06
6.1827e-08
-1.3509e-06
6.13961e-08
-1.38232e-06
6.08097e-08
-1.41333e-06
6.00678e-08
-1.44385e-06
5.91728e-08
-1.47381e-06
5.81288e-08
-1.50313e-06
5.69418e-08
-1.53175e-06
5.56196e-08
-1.5596e-06
5.41713e-08
-1.58663e-06
5.26073e-08
-1.61279e-06
5.09393e-08
-1.63803e-06
4.918e-08
-1.66232e-06
4.73431e-08
-1.68563e-06
4.5443e-08
-1.70795e-06
4.34944e-08
-1.72925e-06
4.15124e-08
-1.74954e-06
3.95112e-08
-1.7688e-06
3.7505e-08
-1.78705e-06
3.55067e-08
-1.80428e-06
3.35286e-08
-1.82052e-06
3.15819e-08
-1.83579e-06
2.96768e-08
-1.85009e-06
2.78221e-08
-1.86347e-06
2.60254e-08
-1.87594e-06
2.42926e-08
-1.88754e-06
2.26283e-08
-1.89831e-06
2.1035e-08
-1.90828e-06
1.95141e-08
-1.91749e-06
1.80652e-08
-1.92596e-06
1.66867e-08
-1.93374e-06
1.5376e-08
-1.94085e-06
1.41294e-08
-1.94732e-06
1.29433e-08
-1.95318e-06
1.1814e-08
-1.95846e-06
1.07385e-08
-1.96318e-06
9.71459e-09
-1.96737e-06
8.74143e-09
-1.97105e-06
7.81888e-09
-1.97425e-06
6.94736e-09
-1.97699e-06
6.12687e-09
-1.97929e-06
5.35668e-09
-1.98118e-06
4.63486e-09
-1.98268e-06
3.95738e-09
-1.9838e-06
3.31937e-09
-1.98456e-06
2.71565e-09
-1.98496e-06
2.12145e-09
-1.98499e-06
1.52169e-09
-1.98464e-06
9.03752e-10
-1.98382e-06
1.8303e-10
-1.98261e-06
-4.46265e-10
-1.98099e-06
-1.10232e-09
-1.97889e-06
-1.86769e-09
-1.97627e-06
-2.73158e-09
-1.97306e-06
-3.70415e-09
-1.9692e-06
-4.80705e-09
-1.9646e-06
-6.05803e-09
-1.95915e-06
-7.47636e-09
-1.95276e-06
-9.08566e-09
-1.9453e-06
-1.09113e-08
-1.93666e-06
-1.29797e-08
-1.92669e-06
-1.53184e-08
-1.91525e-06
-1.79568e-08
-1.90216e-06
-2.09265e-08
-1.88725e-06
-2.42621e-08
-1.87033e-06
-2.80018e-08
-1.85119e-06
-3.21852e-08
-1.82961e-06
-3.68499e-08
-1.80534e-06
-4.20297e-08
-1.77811e-06
-4.77582e-08
-1.74766e-06
-5.40816e-08
-1.71365e-06
-6.10476e-08
-1.67573e-06
-6.86966e-08
-1.63354e-06
-7.7043e-08
-1.58673e-06
-8.60623e-08
-1.53503e-06
-9.5698e-08
-1.47819e-06
-1.05885e-07
-1.41599e-06
-1.16559e-07
-1.34827e-06
-1.27652e-07
-1.27489e-06
-1.39102e-07
-1.19574e-06
-1.50867e-07
-1.11073e-06
-1.62918e-07
-1.01982e-06
-1.75217e-07
-9.2299e-07
-1.8773e-07
-8.20281e-07
-2.00461e-07
-7.11847e-07
-2.13342e-07
-5.98134e-07
-2.26014e-07
-4.80113e-07
-2.37491e-07
-3.59371e-07
-2.45343e-07
-2.36564e-07
-2.47031e-07
-1.10192e-07
-2.4669e-07
1.96286e-08
-2.51485e-07
1.50395e-07
-2.55938e-07
2.82005e-07
-2.54892e-07
4.14138e-07
-2.54371e-07
5.47083e-07
-2.57481e-07
6.79797e-07
-2.579e-07
8.10586e-07
-2.53835e-07
9.38004e-07
-2.46848e-07
1.06083e-06
-2.37639e-07
1.17784e-06
-2.26189e-07
1.28731e-06
-2.11448e-07
1.38707e-06
-1.91455e-07
1.47289e-06
-1.54189e-07
-9.29119e-08
1.54092e-06
1.10166e-08
-3.34223e-08
2.28111e-08
-3.56035e-08
3.49286e-08
-3.67015e-08
4.70454e-08
-3.69056e-08
5.88502e-08
-3.61855e-08
7.00555e-08
-3.45534e-08
8.04013e-08
-3.20591e-08
8.96523e-08
-2.87794e-08
9.75956e-08
-2.48081e-08
1.0404e-07
-2.02494e-08
1.08816e-07
-1.52135e-08
1.11786e-07
-9.81319e-09
1.12843e-07
-4.16088e-09
1.11917e-07
1.63406e-09
1.08987e-07
7.46867e-09
1.04064e-07
1.32496e-08
9.71983e-08
1.88943e-08
8.84686e-08
2.43344e-08
7.79775e-08
2.95152e-08
6.58446e-08
3.43924e-08
5.22038e-08
3.89249e-08
3.72019e-08
4.30676e-08
2.10003e-08
4.67665e-08
3.77324e-09
4.99597e-08
-1.42989e-08
5.25871e-08
-3.30374e-08
5.45998e-08
-5.22689e-08
5.59631e-08
-7.18363e-08
5.66668e-08
-9.16128e-08
5.67428e-08
-1.11516e-07
5.62885e-08
-1.3152e-07
5.5497e-08
-1.51649e-07
5.46855e-08
-1.71953e-07
5.42888e-08
-1.92566e-07
5.47595e-08
-2.13789e-07
5.64433e-08
-2.35908e-07
5.94792e-08
-2.59019e-07
6.36007e-08
-2.82996e-07
6.80399e-08
-3.07617e-07
7.17637e-08
-3.32703e-07
7.39883e-08
-3.58102e-07
7.45746e-08
-3.83616e-07
7.39591e-08
-4.09012e-07
7.2771e-08
-4.34095e-07
7.15197e-08
-4.58779e-07
7.04965e-08
-4.83078e-07
6.98144e-08
-5.07084e-07
6.94824e-08
-5.30923e-07
6.94624e-08
-5.54732e-07
6.97036e-08
-5.78637e-07
7.01581e-08
-6.02748e-07
7.07867e-08
-6.27154e-07
7.15596e-08
-6.5193e-07
7.24547e-08
-6.77131e-07
7.34561e-08
-7.02801e-07
7.45514e-08
-7.28969e-07
7.57301e-08
-7.5566e-07
7.6982e-08
-7.82887e-07
7.82963e-08
-8.10661e-07
7.96611e-08
-8.38983e-07
8.10636e-08
-8.67853e-07
8.24895e-08
-8.97261e-07
8.39237e-08
-9.27195e-07
8.53501e-08
-9.57635e-07
8.67516e-08
-9.88556e-07
8.81104e-08
-1.01993e-06
8.94084e-08
-1.05171e-06
9.06265e-08
-1.08386e-06
9.1746e-08
-1.11634e-06
9.27478e-08
-1.14908e-06
9.36133e-08
-1.18202e-06
9.43243e-08
-1.21511e-06
9.48639e-08
-1.24826e-06
9.52161e-08
-1.28141e-06
9.53667e-08
-1.31449e-06
9.53035e-08
-1.3474e-06
9.50166e-08
-1.38007e-06
9.44987e-08
-1.41242e-06
9.37454e-08
-1.44437e-06
9.27555e-08
-1.47583e-06
9.1531e-08
-1.50673e-06
9.00768e-08
-1.53701e-06
8.8401e-08
-1.56658e-06
8.65143e-08
-1.59539e-06
8.44297e-08
-1.62338e-06
8.21624e-08
-1.6505e-06
7.97291e-08
-1.67671e-06
7.71479e-08
-1.70197e-06
7.44376e-08
-1.72624e-06
7.16172e-08
-1.74951e-06
6.87063e-08
-1.77173e-06
6.57238e-08
-1.79291e-06
6.26883e-08
-1.81302e-06
5.9618e-08
-1.83204e-06
5.65303e-08
-1.84998e-06
5.34426e-08
-1.86682e-06
5.03717e-08
-1.88257e-06
4.73344e-08
-1.89724e-06
4.43466e-08
-1.91085e-06
4.14236e-08
-1.9234e-06
3.85787e-08
-1.93493e-06
3.58233e-08
-1.94547e-06
3.31659e-08
-1.95504e-06
3.06125e-08
-1.9637e-06
2.81665e-08
-1.97146e-06
2.58284e-08
-1.97837e-06
2.35965e-08
-1.98446e-06
2.14674e-08
-1.98977e-06
1.9436e-08
-1.99432e-06
1.74969e-08
-1.99815e-06
1.56448e-08
-2.00129e-06
1.38756e-08
-2.00376e-06
1.21862e-08
-2.0056e-06
1.05758e-08
-2.00682e-06
9.04437e-09
-2.00747e-06
7.59254e-09
-2.00756e-06
6.22008e-09
-2.00713e-06
4.92489e-09
-2.0062e-06
3.70282e-09
-2.00478e-06
2.54715e-09
-2.00291e-06
1.44848e-09
-2.00062e-06
4.19038e-10
-1.99787e-06
-6.27721e-10
-1.99465e-06
-1.6932e-09
-1.99099e-06
-2.76459e-09
-1.98691e-06
-3.89262e-09
-1.98229e-06
-5.06222e-09
-1.97709e-06
-6.30469e-09
-1.9713e-06
-7.66184e-09
-1.96487e-06
-9.16033e-09
-1.95775e-06
-1.08269e-08
-1.94986e-06
-1.26903e-08
-1.94115e-06
-1.4775e-08
-1.93151e-06
-1.71115e-08
-1.92086e-06
-1.97339e-08
-1.90909e-06
-2.26787e-08
-1.89609e-06
-2.5984e-08
-1.88172e-06
-2.96894e-08
-1.86584e-06
-3.38373e-08
-1.84829e-06
-3.84737e-08
-1.8289e-06
-4.36492e-08
-1.80748e-06
-4.94212e-08
-1.78382e-06
-5.58516e-08
-1.75767e-06
-6.30005e-08
-1.72877e-06
-7.09257e-08
-1.69684e-06
-7.96865e-08
-1.66158e-06
-8.93474e-08
-1.62266e-06
-9.99697e-08
-1.57976e-06
-1.11596e-07
-1.53258e-06
-1.2422e-07
-1.48086e-06
-1.37785e-07
-1.42435e-06
-1.52201e-07
-1.36286e-06
-1.67376e-07
-1.2962e-06
-1.83221e-07
-1.22422e-06
-1.99638e-07
-1.14679e-06
-2.16533e-07
-1.06382e-06
-2.33836e-07
-9.75237e-07
-2.51498e-07
-8.81014e-07
-2.6944e-07
-7.81172e-07
-2.87573e-07
-6.75801e-07
-3.05832e-07
-5.65122e-07
-3.2402e-07
-4.49606e-07
-3.41531e-07
-3.29959e-07
-3.57138e-07
-2.06654e-07
-3.68647e-07
-7.91799e-08
-3.74505e-07
5.25988e-08
-3.78469e-07
1.862e-07
-3.85087e-07
3.20397e-07
-3.90135e-07
4.55803e-07
-3.90298e-07
5.91724e-07
-3.90293e-07
7.26731e-07
-3.92488e-07
8.60563e-07
-3.91732e-07
9.92691e-07
-3.85964e-07
1.12196e-06
-3.76115e-07
1.24707e-06
-3.62747e-07
1.3667e-06
-3.45825e-07
1.47931e-06
-3.24052e-07
1.58325e-06
-2.95398e-07
1.67816e-06
-2.49104e-07
-1.7778e-07
1.76303e-06
1.04728e-08
-4.38951e-08
2.15857e-08
-4.67165e-08
3.28896e-08
-4.80054e-08
4.40501e-08
-4.80661e-08
5.47744e-08
-4.69099e-08
6.48145e-08
-4.45934e-08
7.39559e-08
-4.12005e-08
8.20055e-08
-3.68289e-08
8.87828e-08
-3.15854e-08
9.41182e-08
-2.55848e-08
9.78553e-08
-1.89506e-08
9.98564e-08
-1.18143e-08
1.0001e-07
-4.31424e-09
9.82365e-08
3.40732e-09
9.44967e-08
1.12085e-08
8.87941e-08
1.89522e-08
8.11756e-08
2.65128e-08
7.17279e-08
3.37821e-08
6.05708e-08
4.06724e-08
4.78482e-08
4.7115e-08
3.37199e-08
5.30531e-08
1.83545e-08
5.8433e-08
1.92241e-09
6.31986e-08
-1.54116e-08
6.72938e-08
-3.34946e-08
7.067e-08
-5.21859e-08
7.32911e-08
-7.13622e-08
7.51394e-08
-9.09244e-08
7.6229e-08
-1.10807e-07
7.66249e-08
-1.30987e-07
7.64685e-08
-1.51495e-07
7.60055e-08
-1.72416e-07
7.56061e-08
-1.93877e-07
7.57506e-08
-2.16056e-07
7.69385e-08
-2.39137e-07
7.95243e-08
-2.63175e-07
8.35171e-08
-2.87997e-07
8.84227e-08
-3.13269e-07
9.3312e-08
-3.38691e-07
9.71853e-08
-3.64126e-07
9.94235e-08
-3.8955e-07
9.99981e-08
-4.14924e-07
9.93336e-08
-4.40162e-07
9.80088e-08
-4.65167e-07
9.65251e-08
-4.89888e-07
9.52166e-08
-5.14332e-07
9.42591e-08
-5.38566e-07
9.3716e-08
-5.62687e-07
9.3584e-08
-5.86811e-07
9.38275e-08
-6.11052e-07
9.43988e-08
-6.35515e-07
9.52494e-08
-6.60291e-07
9.63356e-08
-6.85456e-07
9.76194e-08
-7.11069e-07
9.90692e-08
-7.37175e-07
1.00658e-07
-7.63807e-07
1.02362e-07
-7.90986e-07
1.04161e-07
-8.18723e-07
1.06033e-07
-8.47021e-07
1.07959e-07
-8.75877e-07
1.09919e-07
-9.05279e-07
1.11892e-07
-9.35211e-07
1.13856e-07
-9.65649e-07
1.15788e-07
-9.96564e-07
1.17666e-07
-1.02792e-06
1.19466e-07
-1.05968e-06
1.21164e-07
-1.09178e-06
1.22734e-07
-1.12419e-06
1.24153e-07
-1.15684e-06
1.25395e-07
-1.18966e-06
1.26436e-07
-1.22259e-06
1.27255e-07
-1.25556e-06
1.27829e-07
-1.28848e-06
1.28139e-07
-1.32128e-06
1.28167e-07
-1.35388e-06
1.279e-07
-1.38618e-06
1.27324e-07
-1.41812e-06
1.26433e-07
-1.4496e-06
1.25223e-07
-1.48053e-06
1.23693e-07
-1.51085e-06
1.21849e-07
-1.54047e-06
1.19698e-07
-1.56932e-06
1.17253e-07
-1.59734e-06
1.1453e-07
-1.62446e-06
1.11547e-07
-1.65062e-06
1.08325e-07
-1.67578e-06
1.04887e-07
-1.69989e-06
1.01255e-07
-1.7229e-06
9.74548e-08
-1.7448e-06
9.35102e-08
-1.76554e-06
8.94459e-08
-1.7851e-06
8.52867e-08
-1.80347e-06
8.10572e-08
-1.82063e-06
7.67823e-08
-1.83659e-06
7.24871e-08
-1.85134e-06
6.81966e-08
-1.86491e-06
6.39361e-08
-1.8773e-06
5.97302e-08
-1.88856e-06
5.5603e-08
-1.89871e-06
5.15762e-08
-1.9078e-06
4.76689e-08
-1.91587e-06
4.38963e-08
-1.92298e-06
4.02694e-08
-1.92916e-06
3.67948e-08
-1.93447e-06
3.34753e-08
-1.93895e-06
3.031e-08
-1.94265e-06
2.72943e-08
-1.9456e-06
2.44214e-08
-1.94785e-06
2.16825e-08
-1.94942e-06
1.90683e-08
-1.95035e-06
1.65701e-08
-1.95065e-06
1.41806e-08