/*--------------------------------*- C++ -*----------------------------------*\
| =========                 |                                                 |
| \\      /  F ield         | OpenFOAM: The Open Source CFD Toolbox           |
|  \\    /   O peration     | Version:  2112                                  |
|   \\  /    A nd           | Website:  www.openfoam.com                      |
|    \\/     M anipulation  |                                                 |
\*---------------------------------------------------------------------------*/
FoamFile
{
    version     2.0;
    format      ascii;
    arch        "LSB;label=32;scalar=64";
    class       volScalarField;
    location    "0.087";
    object      k;
}
// * * * * * * * * * * * * * * * * * * * * * * * * * * * * * * * * * * * * * //

dimensions      [0 2 -2 0 0 0 0];

internalField   nonuniform List<scalar> 
12225
(
0.00020619
0.000262543
0.000231011
0.000223353
0.000251876
0.000290428
0.000297775
0.000289049
0.000228163
0.000129542
8.09939e-05
6.69419e-05
6.7133e-05
7.91276e-05
9.7084e-05
0.000103799
0.0001031
0.000125454
2.17907e-05
3.76466e-05
4.24024e-05
4.5528e-05
5.33897e-05
7.78909e-05
0.000103496
0.000111695
0.000110168
9.89875e-05
7.03926e-05
5.05153e-05
4.16539e-05
4.01441e-05
4.07845e-05
4.3854e-05
5.53169e-05
6.52861e-05
2.00902e-05
1.60683e-05
1.62826e-05
1.71378e-05
1.80938e-05
2.01129e-05
2.43462e-05
2.72384e-05
2.79398e-05
2.76037e-05
2.51333e-05
2.1619e-05
2.00135e-05
1.96664e-05
1.9749e-05
2.02931e-05
2.27164e-05
2.59878e-05
2.00244e-05
1.99667e-05
2.01305e-05
2.01348e-05
2.00095e-05
1.99049e-05
1.94699e-05
1.72139e-05
1.69175e-05
1.75942e-05
1.78709e-05
1.76525e-05
1.62861e-05
1.3349e-05
1.12042e-05
1.01346e-05
1.0003e-05
1.01663e-05
2.04716e-05
2.18176e-05
2.25294e-05
2.29272e-05
2.30666e-05
2.30554e-05
2.29089e-05
2.27553e-05
2.29748e-05
2.51259e-05
3.52016e-05
4.24149e-05
4.30544e-05
4.12352e-05
3.3515e-05
2.53572e-05
2.09721e-05
1.81335e-05
2.27017e-05
2.36476e-05
2.35593e-05
2.31935e-05
2.3002e-05
2.28781e-05
2.21083e-05
2.18375e-05
2.20554e-05
2.40506e-05
3.66455e-05
5.16121e-05
5.82561e-05
5.94975e-05
5.90123e-05
5.69721e-05
5.00264e-05
3.84374e-05
2.19774e-05
2.23207e-05
2.44302e-05
3.08078e-05
3.91087e-05
3.95301e-05
3.50865e-05
2.96998e-05
2.93e-05
3.27995e-05
5.33264e-05
7.16706e-05
7.45751e-05
7.25605e-05
6.29357e-05
4.89304e-05
3.77673e-05
3.07829e-05
2.47758e-05
2.19313e-05
2.18537e-05
2.42276e-05
2.75291e-05
2.92e-05
2.97829e-05
2.97332e-05
2.99034e-05
3.25515e-05
3.78201e-05
3.91486e-05
3.88545e-05
3.70765e-05
3.15492e-05
2.66868e-05
2.37845e-05
2.22842e-05
2.68378e-05
2.33946e-05
2.10731e-05
2.15644e-05
2.38188e-05
2.52904e-05
2.54642e-05
2.49125e-05
2.33377e-05
2.23585e-05
2.19796e-05
2.18525e-05
2.17005e-05
2.14559e-05
2.11364e-05
2.08618e-05
2.06894e-05
2.06066e-05
2.11519e-05
2.09431e-05
2.11748e-05
2.24814e-05
2.36353e-05
2.3555e-05
2.32203e-05
2.27503e-05
2.18116e-05
2.12068e-05
2.09655e-05
2.09309e-05
2.09817e-05
2.12059e-05
2.14229e-05
2.1506e-05
2.15892e-05
2.16008e-05
2.00313e-05
2.03577e-05
2.12964e-05
2.46834e-05
2.97484e-05
3.09355e-05
3.01782e-05
2.70191e-05
2.36266e-05
2.17253e-05
2.07986e-05
2.04224e-05
2.03225e-05
2.03211e-05
2.03474e-05
2.04252e-05
2.06631e-05
2.09964e-05
2.04941e-05
2.35303e-05
2.52905e-05
2.56902e-05
2.67401e-05
2.64262e-05
2.46268e-05
2.26449e-05
2.14026e-05
2.07103e-05
2.03727e-05
2.02329e-05
2.01927e-05
2.01953e-05
2.02531e-05
2.04867e-05
2.12176e-05
2.33307e-05
2.24861e-05
2.72711e-05
2.63248e-05
2.29224e-05
2.16757e-05
2.15307e-05
2.18495e-05
2.28773e-05
2.28594e-05
2.17411e-05
2.08997e-05
2.05606e-05
2.04569e-05
2.04513e-05
2.05155e-05
2.09085e-05
2.19964e-05
2.49136e-05
2.11735e-05
3.43634e-05
4.0058e-05
3.44816e-05
2.53876e-05
2.28572e-05
2.28952e-05
2.44427e-05
2.49108e-05
2.40619e-05
2.24399e-05
2.16038e-05
2.13004e-05
2.12606e-05
2.13387e-05
2.18815e-05
2.24601e-05
2.28947e-05
2.02002e-05
2.38812e-05
2.61201e-05
2.43318e-05
2.16232e-05
2.0941e-05
2.09456e-05
2.12337e-05
2.13946e-05
2.14303e-05
2.14831e-05
2.16451e-05
2.22502e-05
2.45907e-05
2.69338e-05
2.77699e-05
2.77765e-05
2.728e-05
2.02698e-05
2.28369e-05
2.49498e-05
2.46195e-05
2.23193e-05
2.12925e-05
2.10386e-05
2.1e-05
2.10151e-05
2.11107e-05
2.14241e-05
2.23949e-05
2.53181e-05
2.82249e-05
2.97514e-05
3.01615e-05
3.00372e-05
2.88983e-05
2.01326e-05
2.04534e-05
2.07238e-05
2.08006e-05
2.08727e-05
2.10427e-05
2.15334e-05
2.19066e-05
2.17859e-05
2.15256e-05
2.15515e-05
2.20125e-05
2.45104e-05
3.02677e-05
3.32147e-05
3.3558e-05
3.24771e-05
2.92563e-05
2.03382e-05
2.07959e-05
2.08199e-05
2.07909e-05
2.06207e-05
2.05306e-05
2.06955e-05
2.16028e-05
2.19906e-05
2.17808e-05
2.10836e-05
2.08175e-05
2.08046e-05
2.099e-05
2.13538e-05
2.14325e-05
2.14019e-05
2.13792e-05
2.0735e-05
2.16048e-05
2.1894e-05
2.13588e-05
2.08146e-05
2.05597e-05
2.05322e-05
2.08629e-05
2.17688e-05
2.19708e-05
2.18809e-05
2.18864e-05
2.23521e-05
2.40477e-05
2.50578e-05
2.51969e-05
2.4908e-05
2.36478e-05
2.05313e-05
2.10956e-05
2.31093e-05
2.37759e-05
2.29662e-05
2.16563e-05
2.13267e-05
2.14046e-05
2.202e-05
2.35713e-05
2.53262e-05
2.6724e-05
2.7237e-05
2.72476e-05
2.71894e-05
2.69518e-05
2.57968e-05
2.40848e-05
2.09685e-05
2.20253e-05
2.23821e-05
2.17316e-05
2.09143e-05
2.07449e-05
2.08445e-05
2.16653e-05
2.35285e-05
2.43768e-05
2.44142e-05
2.39137e-05
2.31174e-05
2.27574e-05
2.24968e-05
2.2119e-05
2.17841e-05
2.16707e-05
2.12931e-05
2.68828e-05
2.91676e-05
2.65862e-05
2.3089e-05
2.20906e-05
2.19355e-05
2.19982e-05
2.24857e-05
2.42049e-05
2.52044e-05
2.50246e-05
2.3728e-05
2.28504e-05
2.26726e-05
2.26002e-05
2.23167e-05
2.20026e-05
2.19178e-05
2.18445e-05
2.15978e-05
2.14819e-05
2.15322e-05
2.18194e-05
2.21226e-05
2.25526e-05
2.3585e-05
2.50332e-05
2.59434e-05
2.61682e-05
2.61218e-05
2.56117e-05
2.39113e-05
2.25486e-05
2.1779e-05
2.14098e-05
2.27144e-05
2.72132e-05
2.78274e-05
2.73758e-05
2.71378e-05
2.67605e-05
2.64238e-05
2.58398e-05
2.44512e-05
2.35069e-05
2.31053e-05
2.29068e-05
2.25601e-05
2.19584e-05
2.13746e-05
2.0949e-05
2.07032e-05
2.06012e-05
2.08964e-05
2.22108e-05
2.27552e-05
2.29783e-05
2.3535e-05
2.41743e-05
2.42678e-05
2.41363e-05
2.3573e-05
2.32867e-05
2.3146e-05
2.29096e-05
2.23341e-05
2.17468e-05
2.13349e-05
2.10797e-05
2.09417e-05
2.08805e-05
2.003e-05
2.02991e-05
2.04633e-05
2.06956e-05
2.18756e-05
2.49835e-05
2.52668e-05
2.42289e-05
2.37694e-05
2.41084e-05
2.55523e-05
2.60035e-05
2.56434e-05
2.41312e-05
2.29616e-05
2.23439e-05
2.19474e-05
2.16873e-05
2.00346e-05
2.00118e-05
2.0008e-05
1.99439e-05
1.97286e-05
1.9671e-05
1.97018e-05
1.96869e-05
1.95455e-05
1.91241e-05
1.87296e-05
1.84325e-05
1.83118e-05
1.83924e-05
1.87862e-05
1.90389e-05
1.91043e-05
1.90893e-05
2.00013e-05
1.74634e-05
1.70261e-05
1.56043e-05
1.24538e-05
1.06801e-05
1.02188e-05
1.02505e-05
1.06079e-05
1.1011e-05
1.1499e-05
1.25663e-05
1.39871e-05
1.53801e-05
1.65998e-05
1.75881e-05
1.83304e-05
1.87165e-05
2.01043e-05
2.09454e-05
2.10884e-05
2.08319e-05
2.03435e-05
2.01019e-05
2.00469e-05
2.00634e-05
2.01768e-05
2.04465e-05
2.0779e-05
2.13529e-05
2.24594e-05
2.48279e-05
2.90115e-05
3.35618e-05
3.73493e-05
3.92359e-05
2.56837e-05
3.6335e-05
3.64107e-05
3.07468e-05
2.49901e-05
2.22912e-05
2.12404e-05
2.1018e-05
2.10934e-05
2.1672e-05
2.37917e-05
3.07414e-05
5.11329e-05
6.98266e-05
8.00638e-05
8.36151e-05
8.37957e-05
8.14203e-05
0.101196
0.146617
0.151831
0.137975
0.114741
0.106473
0.104047
0.103408
0.104067
0.10599
0.111259
0.114488
0.120617
0.132139
0.141473
0.161529
0.1909
0.123801
0.0808608
0.067321
0.0607443
0.0519177
0.0492276
0.0487186
0.0489258
0.0493299
0.049807
0.0503494
0.0511934
0.0527578
0.0551558
0.0577293
0.0604194
0.0642644
0.0689785
0.0728062
0.0761426
0.0802113
0.0841924
0.086119
0.0883919
0.0898088
0.0911154
0.0927283
0.0947924
0.0973798
0.100311
0.103226
0.10583
0.10812
0.110327
0.112492
0.11458
0.11638
0.117506
0.118565
0.120203
0.122244
0.124675
0.127553
0.129382
0.130297
0.130972
0.13207
0.134883
0.136455
0.134624
0.126873
0.103212
0.0746983
0.07322
0.132515
0.206646
0.209966
0.202881
0.197592
0.201573
0.215128
0.240924
0.285555
0.330532
0.345102
0.342936
0.326836
0.325679
0.329772
0.379914
0.592572
0.878352
1.05232
1.03349
0.865171
0.565814
0.144061
0.0455019
0.035803
0.0342697
0.0335067
0.0317609
0.0295586
0.0272952
0.0250951
0.0230681
0.0213462
0.0200715
0.0190305
0.0182417
0.0177368
0.0173467
0.0171148
0.0170026
0.0170002
0.0169948
0.0169922
0.0169937
0.0169995
0.0170107
0.0170251
0.0170397
0.017061
0.01709
0.0171258
0.0171767
0.0172149
0.0172807
0.0173686
0.0175171
0.0177187
0.0179986
0.0183581
0.0187968
0.0193365
0.0199996
0.0208159
0.0217935
0.0229485
0.0243152
0.0259063
0.0277891
0.0299037
0.0319923
0.0338152
0.0351293
0.0357352
0.0357926
0.0353439
0.0338757
0.0323564
0.0309386
0.0296351
0.0284975
0.0275174
0.0266806
0.0259155
0.0251414
0.0242516
0.0231905
0.0219724
0.0207407
0.0195782
0.0184199
0.0173642
0.0164855
0.0157234
0.0150745
0.0145584
0.0142289
0.0141651
0.0142612
0.0141743
0.0141763
0.0151867
0.019048
0.0218136
0.0228853
0.0240016
0.0240768
0.0224282
0.0213644
0.0212232
0.107966
0.124461
0.116948
0.10072
0.0971165
0.0976794
0.0986891
0.101688
0.104478
0.114013
0.129785
0.134974
0.13256
0.130682
0.131036
0.129955
0.107519
0.0748238
0.05957
0.0472314
0.0363713
0.0289203
0.0261121
0.0250747
0.0248729
0.0254356
0.0282107
0.0331543
0.038524
0.0436591
0.0492665
0.0554418
0.0616433
0.0679998
0.0737983
0.0786247
0.0826068
0.0849711
0.0856835
0.0857754
0.0857977
0.0861738
0.0870309
0.0887454
0.0915683
0.0953167
0.0997307
0.104576
0.109272
0.113739
0.117755
0.121434
0.125093
0.12876
0.132464
0.136425
0.140508
0.143934
0.146534
0.149583
0.153319
0.155904
0.159325
0.1626
0.166758
0.174044
0.178101
0.177929
0.172604
0.139854
0.0985209
0.101897
0.120846
0.154575
0.155557
0.160034
0.182057
0.237913
0.306344
0.382188
0.46031
0.509231
0.516012
0.507792
0.460692
0.388675
0.386261
0.402529
0.471916
0.741802
0.911421
0.730374
0.25168
0.0618583
0.0289903
0.0230795
0.0208583
0.0189117
0.0177315
0.0167296
0.0161218
0.0156943
0.0153808
0.0152098
0.0151286
0.0150998
0.015105
0.0151812
0.0152229
0.0153086
0.0154239
0.0155715
0.0157779
0.0159738
0.0161675
0.0163683
0.0165933
0.0168334
0.017044
0.0171764
0.0172268
0.0172059
0.0171007
0.0168102
0.0164256
0.0160046
0.0154871
0.0149691
0.0144271
0.0138857
0.013315
0.0126703
0.0120022
0.0114184
0.0109052
0.0104614
0.0101096
0.00987793
0.00980134
0.00994252
0.0107174
0.0121233
0.0150026
0.0210118
0.0282258
0.0338604
0.0372716
0.038679
0.0388706
0.0384217
0.0359736
0.0326613
0.0304367
0.0288511
0.0273506
0.0256959
0.0238879
0.0220181
0.0201885
0.018465
0.0168764
0.0154226
0.0140794
0.012838
0.0117039
0.0106798
0.00967821
0.008428
0.00677446
0.00524431
0.00470349
0.00504269
0.00737973
0.00810981
0.0076632
0.00764073
0.00916817
0.0142313
0.0183904
0.0205855
0.101026
0.117649
0.1221
0.111523
0.105861
0.103698
0.106886
0.117993
0.119587
0.11535
0.113861
0.109513
0.0979155
0.0861959
0.0742575
0.0592378
0.0475857
0.0349027
0.0266427
0.0178164
0.0132702
0.011241
0.0104692
0.0102703
0.0103583
0.0112357
0.0127872
0.0144503
0.0163658
0.0187527
0.0209897
0.0217212
0.0218658
0.0217237
0.0213246
0.0207012
0.019871
0.019376
0.0191275
0.0191281
0.0190877
0.0190248
0.0189555
0.0190325
0.0192773
0.0197776
0.0206766
0.0221264
0.0239999
0.0262124
0.0288451
0.0317229
0.0351574
0.0391666
0.0441401
0.0498383
0.0556385
0.0611894
0.0671188
0.0741077
0.0822506
0.0908156
0.102342
0.118514
0.137291
0.161798
0.177238
0.182258
0.181441
0.171584
0.131122
0.105712
0.105272
0.107914
0.115403
0.147279
0.197056
0.252351
0.320841
0.409263
0.49557
0.553152
0.571526
0.568058
0.54534
0.505137
0.44606
0.434623
0.476631
0.623043
0.540371
0.226143
0.0655423
0.0259749
0.019367
0.0178656
0.0171989
0.0166059
0.0163212
0.0161611
0.0161126
0.0161625
0.0163499
0.0166162
0.0169488
0.0172772
0.0176171
0.01795
0.0182843
0.0186202
0.0190211
0.0194861
0.0200509
0.0207088
0.021514
0.0224448
0.0234914
0.0246224
0.0257541
0.0267626
0.0274327
0.0277357
0.0278157
0.0273717
0.0265201
0.0256127
0.0245854
0.0235675
0.0226011
0.0217001
0.0208712
0.0200749
0.0192288
0.0182516
0.0170898
0.0156583
0.0139514
0.0120245
0.010134
0.00870586
0.00774218
0.00724515
0.00714206
0.00724501
0.00774309
0.00920342
0.0124016
0.0204088
0.0291551
0.0345545
0.0371195
0.0376518
0.0371064
0.0338423
0.0296793
0.0266023
0.0240359
0.0217995
0.0198706
0.0182001
0.0167363
0.0154555
0.0143418
0.013342
0.0123288
0.0111432
0.00988867
0.00857675
0.00692357
0.00488444
0.00316999
0.0024435
0.00238048
0.00246552
0.00249897
0.00250882
0.00271952
0.00391165
0.00849557
0.0158421
0.0849485
0.0953724
0.11718
0.11628
0.10822
0.0972531
0.0890881
0.0875062
0.086535
0.0773628
0.0701054
0.0628037
0.0500377
0.0443425
0.0368219
0.0278876
0.0225727
0.0157501
0.0109361
0.00838204
0.00729875
0.00698561
0.00695093
0.00728874
0.00777388
0.00810226
0.00844031
0.00867223
0.00890696
0.00917244
0.00927159
0.00926906
0.00922989
0.00921366
0.00926463
0.00930033
0.00931234
0.00940335
0.00953055
0.00956498
0.00954494
0.00930627
0.00889268
0.00841756
0.00774311
0.00696417
0.00614025
0.0055636
0.00494669
0.00427687
0.00404219
0.00392573
0.00385898
0.00395625
0.00437395
0.00484944
0.0055948
0.00654348
0.00781498
0.00953269
0.0120138
0.0156662
0.021815
0.0336827
0.0622611
0.110314
0.150952
0.170696
0.174934
0.165912
0.132964
0.106908
0.101553
0.104974
0.135868
0.17556
0.166741
0.169488
0.212611
0.314705
0.420757
0.492566
0.525836
0.526311
0.493673
0.411952
0.338959
0.339883
0.363985
0.32644
0.174919
0.064114
0.0276019
0.0199189
0.018906
0.0186637
0.0191576
0.0197455
0.0202756
0.0209968
0.0215538
0.0221764
0.0226276
0.0229816
0.0231991
0.0232994
0.0233367
0.0233442
0.023405
0.0235295
0.0237329
0.0240584
0.0245753
0.0253779
0.0265556
0.0282023
0.030382
0.0330689
0.0360463
0.0387874
0.0404623
0.0414736
0.0417654
0.0404769
0.0379361
0.0353744
0.0326502
0.0300892
0.0277718
0.0258318
0.0243905
0.0233693
0.0225869
0.0219561
0.0214561
0.0210647
0.0206588
0.0200553
0.0188052
0.0163962
0.0131622
0.0100506
0.00815966
0.00738235
0.007268
0.00744688
0.00812072
0.00935195
0.0117256
0.018116
0.0278609
0.0339899
0.0374568
0.0385321
0.0382954
0.0364452
0.0305235
0.0258643
0.0232978
0.0221777
0.021923
0.021873
0.021747
0.0213317
0.0204654
0.0193518
0.0178738
0.0158824
0.0135017
0.0109802
0.00857867
0.00662999
0.00521078
0.00407295
0.00308297
0.00243606
0.0022639
0.00238075
0.00321076
0.00718491
0.0825099
0.0746449
0.0933747
0.112528
0.110808
0.102386
0.0837987
0.0637243
0.055437
0.0509411
0.0438421
0.0343836
0.0271766
0.0238268
0.0188714
0.01421
0.011643
0.00821253
0.00689372
0.00640526
0.00630751
0.00646702
0.00691925
0.00738471
0.00800434
0.00840686
0.00880182
0.00915909
0.00957369
0.0100911
0.0105661
0.0110719
0.0116129
0.0122143
0.0128651
0.0133967
0.0137463
0.0140378
0.0141877
0.0142294
0.0139632
0.0134352
0.0127307
0.0119547
0.0106676
0.00923497
0.00752585
0.00632866
0.00513631
0.00367685
0.00305904
0.00255299
0.00192229
0.00159153
0.00138718
0.00115373
0.0010274
0.000977884
0.000971505
0.00107476
0.001318
0.00181066
0.00284286
0.00523989
0.0119025
0.0324938
0.0883192
0.138596
0.160622
0.158243
0.128708
0.104774
0.100627
0.120676
0.15174
0.131891
0.0902508
0.0880631
0.11267
0.155358
0.211676
0.260414
0.281609
0.269162
0.229323
0.196983
0.194495
0.203287
0.188995
0.128581
0.058752
0.029235
0.0213548
0.0202308
0.0212085
0.0223227
0.02308
0.0236181
0.0239221
0.0242336
0.0243772
0.0245025
0.024573
0.0246613
0.0247802
0.0248419
0.0249032
0.0250447
0.0252605
0.025645
0.0263036
0.0273694
0.0290538
0.031539
0.0350226
0.0397038
0.0456915
0.0529789
0.060166
0.0651138
0.0669038
0.066703
0.063852
0.0577235
0.051627
0.0468119
0.0426346
0.0391667
0.0361597
0.0333562
0.0306185
0.0279958
0.0257283
0.0239405
0.022766
0.0221057
0.0217064
0.0214503
0.0213039
0.0211137
0.0205579
0.0186281
0.0140416
0.00984523
0.00761277
0.0069541
0.006985
0.00745799
0.00828987
0.00962804
0.0121214
0.0183731
0.0285086
0.0346682
0.0378783
0.0388836
0.0387316
0.0377321
0.0347328
0.030631
0.0278263
0.0261751
0.0248232
0.0234262
0.0220415
0.0207782
0.019564
0.0181046
0.0159325
0.0130951
0.0101911
0.00773932
0.0058992
0.00453169
0.00341296
0.00252375
0.00204098
0.00196104
0.00212504
0.00362659
0.0943188
0.076119
0.0759052
0.0972271
0.107826
0.107731
0.0942139
0.064615
0.043569
0.0360925
0.0305619
0.0209966
0.0162866
0.0140015
0.0109247
0.0086363
0.00746878
0.00652579
0.00631394
0.00630629
0.00653624
0.00713773
0.00811471
0.00928976
0.0105929
0.0118761
0.0133447
0.0151018
0.0171308
0.0193273
0.021509
0.0233601
0.0253009
0.0267335
0.0281299
0.0289492
0.0294819
0.0297308
0.029792
0.0293761
0.0285626
0.0275478
0.0262752
0.0246645
0.0221411
0.0193635
0.0163537
0.0134076
0.0104121
0.00743829
0.00549557
0.00397567
0.00261683
0.00202637
0.00146431
0.0011092
0.000830592
0.000674195
0.000538511
0.000450899
0.000401654
0.000384543
0.000442021
0.000665978
0.00149048
0.00483849
0.0192469
0.068717
0.128178
0.153654
0.144866
0.110345
0.103916
0.134223
0.151506
0.1211
0.0750134
0.0641156
0.0786426
0.0947282
0.108814
0.115579
0.1158
0.112459
0.111003
0.11216
0.114929
0.110477
0.0872413
0.0506083
0.0299256
0.0227781
0.0214841
0.0222049
0.023239
0.0236125
0.0238917
0.0241914
0.0244107
0.0247359
0.0249441
0.02523
0.0255917
0.0259629
0.0263866
0.0271441
0.0280477
0.0287745
0.0295819
0.0307956
0.03254
0.0349961
0.0385659
0.0436325
0.0503611
0.0591748
0.0696783
0.0771631
0.0795215
0.0799404
0.0787615
0.075266
0.0697817
0.061143
0.0537012
0.0481981
0.0436929
0.0402024
0.0375188
0.0353343
0.033531
0.0317702
0.0299656
0.028109
0.0261643
0.0243402
0.0229091
0.0219576
0.0215162
0.0213952
0.0213872
0.0213374
0.0208872
0.0184936
0.0125187
0.00844921
0.00689064
0.00668659
0.00697118
0.00779049
0.00859953
0.0101558
0.0129665
0.0199757
0.0297958
0.0352019
0.0377889
0.0389215
0.039008
0.0388152
0.0381067
0.0356472
0.03087
0.0268867
0.0237826
0.0215091
0.019925
0.0187166
0.0174488
0.0156541
0.0130758
0.0103006
0.00803828
0.00630558
0.00482885
0.00345212
0.00237517
0.00187704
0.001812
0.00216941
0.120488
0.0980097
0.088409
0.0948398
0.102076
0.107913
0.105001
0.0801715
0.0436275
0.0289781
0.0228222
0.0155582
0.0110049
0.00923095
0.0076606
0.00683023
0.00648514
0.00636672
0.00645564
0.00691962
0.00809329
0.0102208
0.0133692
0.017638
0.0208976
0.024775
0.0274837
0.0304503
0.0325517
0.0343199
0.0358348
0.0367193
0.0375698
0.0379609
0.038144
0.0381911
0.0380668
0.0379188
0.0375108
0.0370902
0.0366016
0.0360558
0.0354858
0.0347254
0.0336986
0.0323153
0.0301785
0.0266855
0.0221303
0.0171707
0.0124665
0.00858243
0.00574343
0.00424561
0.00276661
0.00187676
0.00127172
0.000833505
0.00059144
0.000447402
0.000356298
0.000290517
0.000245727
0.000222843
0.000279178
0.000608709
0.00233064
0.0110122
0.0496542
0.118283
0.146443
0.132446
0.11511
0.130911
0.146328
0.12347
0.0733873
0.0548473
0.0564835
0.063732
0.0663972
0.0677304
0.0667031
0.0683894
0.0703003
0.0721317
0.0701612
0.0611054
0.0435263
0.0298306
0.02403
0.0225165
0.0224172
0.0230943
0.0233283
0.0234722
0.0235702
0.023681
0.0238562
0.0243332
0.0248795
0.025654
0.0265924
0.0278355
0.0295735
0.0312199
0.0322999
0.0335624
0.0354669
0.0379783
0.0412811
0.0456738
0.0514654
0.0590263
0.0680515
0.0773788
0.082564
0.0841426
0.0844502
0.0839173
0.0811776
0.0767246
0.0705405
0.0607371
0.0512091
0.0439669
0.0383917
0.0343644
0.0317849
0.0302225
0.0298193
0.0295781
0.0291962
0.028428
0.0272794
0.0259579
0.0246489
0.0233935
0.0222295
0.0214356
0.0212029
0.0213045
0.0214614
0.02136
0.0202623
0.0151518
0.00946104
0.0070511
0.00655073
0.00665987
0.00733051
0.00803159
0.00893173
0.0107313
0.0139632
0.0217604
0.0303702
0.0352766
0.0377341
0.0386393
0.0387658
0.0385475
0.0374197
0.033176
0.0269642
0.0226712
0.0201629
0.0187165
0.0175376
0.0162275
0.0146496
0.0127528
0.0108128
0.0089294
0.00703789
0.0051194
0.00338257
0.00219379
0.00163215
0.00154547
0.117238
0.108029
0.105508
0.102261
0.103404
0.10752
0.108195
0.0969615
0.0542757
0.0282165
0.0180784
0.0126374
0.00860133
0.00724961
0.00660944
0.00639482
0.00637017
0.00656432
0.00725763
0.00910008
0.0129695
0.019596
0.0255747
0.0297529
0.033364
0.0357843
0.0376986
0.0391355
0.0399714
0.0406905
0.0410138
0.041134
0.0411524
0.0409029
0.0405838
0.0403163
0.04002
0.0398276
0.0396187
0.0392148
0.0387568
0.0383498
0.0378538
0.0373167
0.0368379
0.0363842
0.0359609
0.0353282
0.0341154
0.0316474
0.0270939
0.0205763
0.0135807
0.009177
0.00602793
0.00396354
0.00256766
0.00148999
0.000888777
0.000563178
0.000395741
0.000304118
0.000243436
0.000198103
0.00017296
0.000187564
0.000318965
0.00115183
0.00620578
0.0333478
0.106824
0.140873
0.132391
0.13217
0.13653
0.14079
0.106711
0.0559981
0.0456075
0.04692
0.0452281
0.045622
0.0461415
0.0472491
0.0488512
0.0494126
0.0458413
0.0380259
0.0291237
0.0246067
0.0229325
0.0226182
0.0228825
0.0229849
0.0226899
0.0225085
0.0224553
0.0225667
0.0229949
0.0238237
0.0249751
0.0263565
0.0285692
0.0310457
0.0321261
0.0329201
0.0340911
0.0358668
0.0383895
0.0420362
0.0469465
0.0529358
0.0599263
0.0677511
0.0760001
0.0823834
0.0847183
0.08538
0.0854211
0.084585
0.0816118
0.0769054
0.0698137
0.0569873
0.0444225
0.0345212
0.0268636
0.0214419
0.0180453
0.0160518
0.0161198
0.0171417
0.0190379
0.0212526
0.0229174
0.0235506
0.023577
0.0232499
0.0226113
0.0218124
0.0211538
0.0209249
0.0209969
0.0214129
0.0214778
0.0208207
0.0165705
0.0101303
0.00722917
0.00650339
0.00652259
0.00693115
0.00756817
0.00814682
0.0090943
0.0109932
0.0147883
0.0226444
0.030048
0.034549
0.0366579
0.0370717
0.0367874
0.0353379
0.0304385
0.0245632
0.0207511
0.0186584
0.0173526
0.016159
0.0149507
0.0138957
0.0130621
0.0121186
0.0104333
0.00781601
0.00515176
0.00315557
0.00207322
0.00160732
0.104031
0.0990242
0.0998891
0.10708
0.109389
0.109828
0.109431
0.104653
0.0738336
0.0301831
0.0169012
0.0106974
0.00756742
0.00658651
0.00632077
0.00629667
0.0065067
0.00734615
0.00947011
0.0140139
0.0221093
0.0290535
0.0339728
0.0373529
0.0394121
0.0405684
0.0414635
0.0419639
0.0422413
0.0423906
0.0424383
0.0422879
0.0420154
0.0417171
0.0414153
0.0412623
0.0411912
0.0411906
0.041196
0.0408611
0.0404498
0.039795
0.039053
0.0382843
0.037498
0.0371072
0.036968
0.0369633
0.0368177
0.0366553
0.0358419
0.0342133
0.0303484
0.0220586
0.0136793
0.00885565
0.00565259
0.00328642
0.00174673
0.000908369
0.000498518
0.00031785
0.000241065
0.000196491
0.0001603
0.000149072
0.000154803
0.000205626
0.00059095
0.00348233
0.0223313
0.0946315
0.13813
0.138331
0.138012
0.139455
0.139937
0.11196
0.0444371
0.0383643
0.037577
0.0319256
0.0331757
0.0355399
0.0364764
0.0362528
0.0334577
0.0288369
0.0248826
0.0233291
0.0229099
0.022907
0.0229785
0.0224902
0.0220591
0.022005
0.0221002
0.0223788
0.0229269
0.0239136
0.0255273
0.0282916
0.0306677
0.0316016
0.0320458
0.0324535
0.0330109
0.0341198
0.0363044
0.0398977
0.0448629
0.0510647
0.0582188
0.0661179
0.0742847
0.080936
0.0837521
0.084674
0.0847632
0.083889
0.0808123
0.0759642
0.0678187
0.0562172
0.0431927
0.0324501
0.023751
0.0172184
0.0128591
0.0102274
0.00891139
0.00860022
0.00878851
0.00952856
0.0110956
0.0131831
0.0154127
0.0173435
0.018861
0.019962
0.020449
0.0205726
0.0206278
0.0207751
0.0214953
0.0217493
0.0211594
0.0169538
0.0102386
0.00724019
0.00643666
0.00640079
0.00662628
0.00704539
0.00740416
0.00791882
0.0089542
0.011132
0.0163429
0.0231781
0.0282513
0.0312938
0.0323495
0.0320966
0.0300083
0.0246502
0.0206269
0.0183485
0.0169865
0.0158948
0.0148631
0.0139919
0.0134029
0.0129712
0.0123497
0.0109152
0.00766394
0.00473414
0.00308998
0.00227788
0.0985032
0.0873932
0.0974256
0.123218
0.126224
0.120928
0.112267
0.106893
0.0893249
0.036906
0.0172643
0.0099799
0.00719444
0.00640031
0.00625687
0.00631282
0.00677634
0.00834587
0.0125525
0.0208084
0.0290226
0.0352164
0.0392019
0.0411249
0.0420981
0.0426072
0.0429165
0.0430999
0.0432815
0.0433544
0.043364
0.043327
0.0433164
0.0434166
0.0439726
0.0448126
0.0453915
0.0458599
0.0460555
0.0461092
0.0456352
0.0446344
0.0429289
0.0405725
0.037701
0.0362186
0.0356195
0.0357632
0.0369118
0.0376555
0.0376029
0.0374029
0.0367736
0.0346249
0.0290887
0.018725
0.011669
0.00711399
0.00389583
0.00196919
0.000951217
0.000466315
0.000263281
0.000186932
0.000152921
0.000136803
0.00013432
0.000137857
0.000160061
0.000328569
0.0017985
0.0135653
0.0782089
0.135332
0.143085
0.14198
0.141387
0.138524
0.102276
0.0451099
0.0343089
0.0276142
0.0241798
0.0257795
0.0289219
0.0295241
0.0275892
0.0250219
0.0236084
0.0229876
0.0230708
0.0233673
0.0232848
0.0224089
0.0220053
0.0219962
0.0222107
0.0227208
0.0234935
0.0248579
0.0270133
0.0294994
0.0307304
0.0311064
0.0309567
0.0296847
0.0284499
0.0281371
0.0282283
0.0298288
0.0329532
0.0371727
0.0426291
0.0498999
0.0591398
0.0687593
0.0763422
0.0798165
0.0807883
0.0801847
0.0769114
0.0725372
0.0660904
0.0579076
0.0448974
0.0332042
0.023782
0.0167752
0.0118869
0.00891869
0.00745952
0.00692022
0.00685779
0.00691528
0.00717685
0.00770299
0.00849034
0.0101084
0.0118438
0.0133092
0.0152662
0.0176884
0.019307
0.0199276
0.0210187
0.0221555
0.0222911
0.0214511
0.0163754
0.00979545
0.00704751
0.00630265
0.00622359
0.00625084
0.00637705
0.00654644
0.00679741
0.00734332
0.00874193
0.012864
0.0188512
0.0228534
0.0245834
0.0249151
0.0245361
0.0220954
0.0190974
0.0174907
0.0163987
0.0154003
0.0144664
0.0136976
0.0131799
0.0128554
0.0125093
0.011838
0.0101315
0.00678364
0.00454649
0.00343923
0.0899648
0.0807372
0.105647
0.136258
0.141457
0.136608
0.119912
0.108231
0.0971308
0.0534037
0.018831
0.010153
0.0072305
0.00639812
0.00625715
0.00640137
0.00745989
0.0105596
0.0165254
0.0247319
0.033035
0.0389796
0.041722
0.0428088
0.043209
0.0433622
0.0435897
0.0439402
0.044307
0.0447144
0.0453606
0.0460493
0.0468584
0.0474061
0.0477691
0.0479138
0.0481765
0.0483078
0.048448
0.0486503
0.0488852
0.0489831
0.0488797
0.0481288
0.0460351
0.0409809
0.0357185
0.0334628
0.0328057
0.0352785
0.0379277
0.0380194
0.0379119
0.0374284
0.0356721
0.0305621
0.0199771
0.0122852
0.0069837
0.00368836
0.00184234
0.000886304
0.000429222
0.000228801
0.000156193
0.000129344
0.000121656
0.000123646
0.000127796
0.000140512
0.000202839
0.000756562
0.00643883
0.0544187
0.129332
0.148009
0.148191
0.146702
0.137031
0.0840494
0.0416309
0.0295437
0.0232243
0.0203408
0.0211562
0.0240427
0.024959
0.023681
0.022749
0.0228854
0.0237125
0.023756
0.0236728
0.0225919
0.0222099
0.0223124
0.0229045
0.0238194
0.0248492
0.0259758
0.027551
0.0291837
0.0296777
0.0289624
0.027119
0.024819
0.0231483
0.0221139
0.0217051
0.0215754
0.0216263
0.0222525
0.0232286
0.0253136
0.0297115
0.0386965
0.0527777
0.0656551
0.0714185
0.0728568
0.0705719
0.0673908
0.0641964
0.0590306
0.0497674
0.0366626
0.0254332
0.0172239
0.0118438
0.00866251
0.00713119
0.00660836
0.00653129
0.0065744
0.00679349
0.00721471
0.00777586
0.00919066
0.0109491
0.0118285
0.0123129
0.0133116
0.0156349
0.0174724
0.0195224
0.0217922
0.0229728
0.0229434
0.0214376
0.0148484
0.00897184
0.00669904
0.00604697
0.00588158
0.00556534
0.00527323
0.00525072
0.00532511
0.00567955
0.0069203
0.0110301
0.0162891
0.0191615
0.0199717
0.0199034
0.0192385
0.0175357
0.0163003
0.0153795
0.0143619
0.0133697
0.0126661
0.0122796
0.0120805
0.0119253
0.0116537
0.0109895
0.00883907
0.00613034
0.00470504
0.0793906
0.0775067
0.111659
0.139944
0.148497
0.14572
0.128554
0.109767
0.100484
0.0713618
0.0230148
0.0108883
0.00742483
0.00644659
0.00627774
0.00644441
0.00760071
0.0110387
0.0178815
0.0273536
0.035815
0.0410885
0.0429349
0.0434661
0.0437392
0.0441288
0.0447578
0.045555
0.046459
0.0474909
0.0481244
0.0483735
0.0482541
0.0478816
0.0475425
0.0470359
0.0465665
0.0463549
0.0465597
0.0473738
0.0484457
0.049158
0.0495589
0.0497062
0.0494867
0.048342
0.0446484
0.0362515
0.0322449
0.031327
0.0337013
0.0378732
0.0381494
0.0378211
0.0371195
0.0343782
0.0263756
0.0165644
0.00941352
0.00486803
0.00240681
0.00119876
0.000620299
0.000334001
0.000190184
0.000133926
0.000113782
0.000109835
0.000115119
0.000121366
0.000131109
0.000158205
0.000361634
0.00238026
0.0183418
0.0879571
0.136393
0.145654
0.145087
0.134759
0.0794538
0.0393876
0.0255492
0.0204131
0.0181137
0.0184428
0.0205461
0.0222814
0.0220964
0.0226032
0.0239175
0.0247698
0.0242648
0.0232886
0.0230383
0.0232571
0.0239469
0.0246072
0.0255452
0.0264419
0.0275822
0.028234
0.0282065
0.0273631
0.0258488
0.0241884
0.022817
0.0219035
0.0209873
0.0204985
0.0202638
0.0198645
0.0195501
0.0193147
0.0194812
0.0208892
0.0250355
0.0356571
0.0523767
0.0616278
0.0634244
0.0622639
0.0610819
0.0589216
0.0539086
0.0422917
0.0291039
0.018872
0.0123398
0.00873942
0.00710639
0.00657345
0.00650249
0.00656405
0.00689348
0.00783712
0.00919407
0.0122379
0.0151383
0.0156182
0.015306
0.0143434
0.0139488
0.0143177
0.0163678
0.020151
0.0228776
0.0237746
0.023456
0.0205663
0.0126786
0.00799252
0.00622283
0.00563792
0.00526396
0.00487713
0.00455901
0.00443168
0.00445045
0.00472052
0.00588163
0.00978769
0.0142333
0.0162212
0.0164713
0.0161994
0.0148887
0.0133957
0.0127934
0.0121656
0.0113234
0.0107347
0.010586
0.0105978
0.0106546
0.0106793
0.0106227
0.0100167
0.0076829
0.00580658
0.0752058
0.0745265
0.11085
0.135309
0.14916
0.14863
0.136985
0.111985
0.102764
0.0841163
0.0321509
0.0129472
0.00794685
0.00661274
0.0063919
0.00661721
0.00800846
0.011732
0.0185291
0.0271336
0.0354484
0.0410392
0.0434952
0.0445252
0.0449167
0.0456227
0.0465588
0.047573
0.0485262
0.0490671
0.0492271
0.048827
0.0480828
0.047042
0.0449211
0.0428587
0.0416975
0.0412944
0.0417114
0.0426228
0.0444942
0.0471896
0.0489838
0.0497823
0.049943
0.0496922
0.0483377
0.0434335
0.0347119
0.031073
0.0309053
0.0336791
0.0379603
0.0378256
0.0372911
0.0353459
0.0287728
0.0184155
0.010457
0.00531799
0.00257378
0.00127762
0.000671626
0.000382346
0.000234309
0.000150142
0.000116062
0.000104174
0.000101776
0.000106911
0.000116621
0.000124454
0.000141721
0.000230552
0.000991413
0.00662066
0.0415985
0.113845
0.13952
0.140719
0.130821
0.0802749
0.0378035
0.0235054
0.0185771
0.0167125
0.016832
0.018436
0.020688
0.0219119
0.0237007
0.0250618
0.0254744
0.0253806
0.0263918
0.0267991
0.0256985
0.0257837
0.0264153
0.027118
0.0278352
0.0282432
0.0282402
0.0276646
0.02677
0.0260806
0.0256995
0.0255354
0.0255463
0.023804
0.0228451
0.021477
0.0202681
0.0192674