/*--------------------------------*- C++ -*----------------------------------*\
| =========                 |                                                 |
| \\      /  F ield         | OpenFOAM: The Open Source CFD Toolbox           |
|  \\    /   O peration     | Version:  2112                                  |
|   \\  /    A nd           | Website:  www.openfoam.com                      |
|    \\/     M anipulation  |                                                 |
\*---------------------------------------------------------------------------*/
FoamFile
{
    version     2.0;
    format      ascii;
    arch        "LSB;label=32;scalar=64";
    class       volVectorField;
    location    "0.11";
    object      U_0;
}
// * * * * * * * * * * * * * * * * * * * * * * * * * * * * * * * * * * * * * //

dimensions      [0 1 -1 0 0 0 0];

internalField   nonuniform List<vector> 
12225
(
(9.62189 0.110969 0)
(8.80727 0.173858 0)
(7.95878 0.173516 0)
(7.1616 0.155114 0)
(6.48233 0.128198 0)
(5.93864 0.0983396 0)
(5.52297 0.0708059 0)
(5.21894 0.0483777 0)
(5.00433 0.0317135 0)
(4.85533 0.0204931 0)
(4.75075 0.013808 0)
(4.67413 0.0106523 0)
(4.61383 0.0100516 0)
(4.56254 0.0110299 0)
(4.51518 0.0128908 0)
(4.47168 0.0154239 0)
(4.41115 0.0331243 0)
(4.34159 -0.00136613 0)
(10.1389 0.122666 0)
(10.3665 0.186379 0)
(10.4407 0.194923 0)
(10.3784 0.19456 0)
(10.2202 0.184399 0)
(9.99895 0.164851 0)
(9.74081 0.140293 0)
(9.46605 0.115156 0)
(9.18865 0.092639 0)
(8.9163 0.0741931 0)
(8.65286 0.0601075 0)
(8.40016 0.0499856 0)
(8.15895 0.0429523 0)
(7.92985 0.0383467 0)
(7.71157 0.0352795 0)
(7.50436 0.0352395 0)
(7.31309 0.0376753 0)
(7.15627 0.0661894 0)
(10.0379 0.0795996 0)
(10.1421 0.136494 0)
(10.2406 0.16166 0)
(10.3199 0.180469 0)
(10.3783 0.188605 0)
(10.4132 0.186172 0)
(10.4195 0.177364 0)
(10.398 0.166536 0)
(10.3536 0.156706 0)
(10.2915 0.149293 0)
(10.2161 0.144687 0)
(10.1303 0.142568 0)
(10.0366 0.142157 0)
(9.93618 0.142638 0)
(9.83162 0.143622 0)
(9.72377 0.145207 0)
(9.61874 0.147772 0)
(9.50695 0.145048 0)
(10.0196 0.0625619 0)
(10.0824 0.121556 0)
(10.1435 0.148204 0)
(10.1954 0.164556 0)
(10.2431 0.172202 0)
(10.2828 0.171295 0)
(10.3111 0.164938 0)
(10.3273 0.156791 0)
(10.3345 0.149311 0)
(10.3359 0.143673 0)
(10.3327 0.140461 0)
(10.3257 0.139652 0)
(10.3159 0.140759 0)
(10.3037 0.14322 0)
(10.2897 0.146417 0)
(10.2742 0.149701 0)
(10.2596 0.152717 0)
(10.2428 0.148322 0)
(10.012 0.0517863 0)
(10.0598 0.109283 0)
(10.1092 0.136241 0)
(10.1511 0.15233 0)
(10.1892 0.160529 0)
(10.2221 0.161158 0)
(10.2475 0.157229 0)
(10.2651 0.151869 0)
(10.2756 0.146933 0)
(10.2807 0.143186 0)
(10.282 0.141078 0)
(10.2829 0.140863 0)
(10.2839 0.142326 0)
(10.2853 0.144956 0)
(10.2871 0.148006 0)
(10.2898 0.15075 0)
(10.294 0.152425 0)
(10.2998 0.150479 0)
(10.0081 0.0427666 0)
(10.0456 0.0966559 0)
(10.0887 0.124374 0)
(10.1265 0.140986 0)
(10.1603 0.150054 0)
(10.1902 0.152528 0)
(10.2144 0.150673 0)
(10.2324 0.147085 0)
(10.2449 0.143483 0)
(10.2528 0.140853 0)
(10.2576 0.139793 0)
(10.2604 0.140054 0)
(10.2623 0.141241 0)
(10.2649 0.143374 0)
(10.2682 0.145841 0)
(10.272 0.147911 0)
(10.2766 0.148709 0)
(10.282 0.14702 0)
(10.0059 0.0356876 0)
(10.0354 0.0846955 0)
(10.0729 0.112362 0)
(10.1077 0.129506 0)
(10.139 0.139449 0)
(10.167 0.143261 0)
(10.1903 0.142994 0)
(10.2086 0.14105 0)
(10.2226 0.139089 0)
(10.2332 0.137826 0)
(10.2412 0.137535 0)
(10.2467 0.138147 0)
(10.2507 0.139727 0)
(10.2542 0.141843 0)
(10.2577 0.143961 0)
(10.2615 0.145667 0)
(10.2655 0.146157 0)
(10.2694 0.144855 0)
(10.0044 0.0299938 0)
(10.0278 0.0741599 0)
(10.0602 0.100963 0)
(10.0918 0.118108 0)
(10.1209 0.128603 0)
(10.1473 0.133516 0)
(10.1697 0.134665 0)
(10.188 0.134131 0)
(10.2029 0.1334 0)
(10.2151 0.133181 0)
(10.2252 0.133844 0)
(10.2336 0.135358 0)
(10.2404 0.13745 0)
(10.2455 0.139713 0)
(10.2499 0.141963 0)
(10.2539 0.14367 0)
(10.2576 0.144178 0)
(10.2608 0.14336 0)
(10.0034 0.0252804 0)
(10.022 0.0647185 0)
(10.0499 0.0902304 0)
(10.0784 0.107059 0)
(10.1052 0.117835 0)
(10.1299 0.123621 0)
(10.1514 0.125966 0)
(10.1694 0.126609 0)
(10.1846 0.126835 0)
(10.1974 0.127369 0)
(10.2087 0.128646 0)
(10.2186 0.130759 0)
(10.2275 0.133525 0)
(10.2351 0.136531 0)
(10.2412 0.139288 0)
(10.2462 0.141288 0)
(10.2502 0.1421 0)
(10.2531 0.141918 0)
(10.0026 0.0213463 0)
(10.0176 0.056176 0)
(10.0415 0.0800582 0)
(10.0671 0.0963544 0)
(10.0916 0.107223 0)
(10.1146 0.113665 0)
(10.1351 0.116986 0)
(10.1527 0.118634 0)
(10.1678 0.119713 0)
(10.1809 0.120895 0)
(10.1925 0.122594 0)
(10.203 0.124988 0)
(10.2128 0.128079 0)
(10.2218 0.131604 0)
(10.2297 0.135067 0)
(10.2362 0.137849 0)
(10.2413 0.139447 0)
(10.2447 0.140287 0)
(10.002 0.0180267 0)
(10.0142 0.0484814 0)
(10.0346 0.0704554 0)
(10.0574 0.0859886 0)
(10.0798 0.0967574 0)
(10.1011 0.103645 0)
(10.1206 0.107735 0)
(10.1377 0.110237 0)
(10.1528 0.112094 0)
(10.166 0.113904 0)
(10.1778 0.116039 0)
(10.1885 0.11869 0)
(10.1984 0.121918 0)
(10.2078 0.125628 0)
(10.2165 0.129542 0)
(10.2243 0.133132 0)
(10.2308 0.135839 0)
(10.2352 0.138032 0)
(10.0017 0.0153731 0)
(10.0118 0.0421263 0)
(10.0294 0.0621707 0)
(10.0498 0.0768011 0)
(10.0704 0.0873025 0)
(10.0903 0.0944088 0)
(10.1088 0.0990209 0)
(10.1255 0.102155 0)
(10.1403 0.104627 0)
(10.1536 0.106972 0)
(10.1656 0.109529 0)
(10.1765 0.112476 0)
(10.1866 0.115874 0)
(10.196 0.119686 0)
(10.2049 0.123763 0)
(10.2132 0.127799 0)
(10.2204 0.13147 0)
(10.2259 0.135056 0)
(10.0014 0.0130307 0)
(10.0098 0.0363588 0)
(10.025 0.0543986 0)
(10.0433 0.0679759 0)
(10.0622 0.0780552 0)
(10.0807 0.0852142 0)
(10.0983 0.090186 0)
(10.1145 0.0938154 0)
(10.1291 0.0967982 0)
(10.1424 0.0996119 0)
(10.1546 0.102565 0)
(10.1657 0.105827 0)
(10.1759 0.109456 0)
(10.1855 0.11342 0)
(10.1945 0.11762 0)
(10.2028 0.121925 0)
(10.2105 0.126346 0)
(10.2167 0.131226 0)
(10.0011 0.0107377 0)
(10.0081 0.0303872 0)
(10.0209 0.0461033 0)
(10.0369 0.0583103 0)
(10.0541 0.067698 0)
(10.0712 0.0747023 0)
(10.0878 0.079882 0)
(10.1033 0.0839031 0)
(10.1177 0.0873353 0)
(10.131 0.0905873 0)
(10.1432 0.0939333 0)
(10.1545 0.0975339 0)
(10.165 0.101447 0)
(10.1748 0.105644 0)
(10.1839 0.110046 0)
(10.1923 0.11465 0)
(10.2 0.119723 0)
(10.2068 0.125769 0)
(10.0007 0.00858967 0)
(10.0065 0.0244464 0)
(10.0171 0.0373863 0)
(10.0311 0.0478319 0)
(10.0465 0.0562043 0)
(10.0622 0.0627853 0)
(10.0777 0.0679588 0)
(10.0926 0.0722122 0)
(10.1066 0.0759862 0)
(10.1197 0.079611 0)
(10.132 0.0833158 0)
(10.1434 0.0872412 0)
(10.1541 0.0914454 0)
(10.1641 0.0959209 0)
(10.1734 0.100653 0)
(10.182 0.105742 0)
(10.1896 0.111519 0)
(10.1965 0.118455 0)
(10.0005 0.00648241 0)
(10.0053 0.0185872 0)
(10.0143 0.0283698 0)
(10.0263 0.0365893 0)
(10.04 0.0435493 0)
(10.0544 0.0493619 0)
(10.0689 0.0542385 0)
(10.083 0.0584958 0)
(10.0966 0.0624443 0)
(10.1095 0.0663277 0)
(10.1217 0.0703197 0)
(10.1333 0.0745322 0)
(10.1441 0.0790286 0)
(10.1543 0.0838548 0)
(10.1638 0.0890918 0)
(10.1724 0.0948944 0)
(10.1803 0.101462 0)
(10.1874 0.108949 0)
(10.0004 0.00425095 0)
(10.0047 0.0123734 0)
(10.0126 0.018936 0)
(10.023 0.0245856 0)
(10.0353 0.0297004 0)
(10.0485 0.0343112 0)
(10.062 0.0385035 0)
(10.0755 0.0424473 0)
(10.0887 0.0463264 0)
(10.1015 0.0502935 0)
(10.1137 0.0544634 0)
(10.1253 0.0589204 0)
(10.1363 0.0637335 0)
(10.1466 0.0689761 0)
(10.1564 0.0747401 0)
(10.1655 0.0811193 0)
(10.1741 0.0881652 0)
(10.1823 0.0958503 0)
(10.0004 0.00183137 0)
(10.0044 0.00543161 0)
(10.0118 0.00853752 0)
(10.0215 0.011402 0)
(10.0329 0.0142907 0)
(10.0454 0.0172469 0)
(10.0583 0.0203108 0)
(10.0714 0.0235541 0)
(10.0845 0.0270526 0)
(10.0972 0.0308681 0)
(10.1096 0.0350468 0)
(10.1214 0.0396243 0)
(10.1328 0.0446305 0)
(10.1438 0.0500912 0)
(10.1543 0.0560237 0)
(10.1644 0.0624258 0)
(10.1743 0.0692689 0)
(10.1841 0.0764963 0)
(10.0004 -0.00100287 0)
(10.0045 -0.00269676 0)
(10.0119 -0.00367153 0)
(10.0217 -0.0040203 0)
(10.0333 -0.00379504 0)
(10.0459 -0.00295194 0)
(10.0592 -0.00145841 0)
(10.0727 0.00068467 0)
(10.0862 0.00344915 0)
(10.0996 0.00679267 0)
(10.1126 0.0106673 0)
(10.1252 0.0150234 0)
(10.1376 0.0198107 0)
(10.1495 0.0249787 0)
(10.1613 0.0304746 0)
(10.1728 0.0362434 0)
(10.1843 0.0422336 0)
(10.1956 0.0484044 0)
(10.0004 -0.0038834 0)
(10.005 -0.0109642 0)
(10.0132 -0.0160687 0)
(10.0242 -0.0197818 0)
(10.0373 -0.0223379 0)
(10.0514 -0.0236815 0)
(10.0661 -0.0238063 0)
(10.081 -0.0228079 0)
(10.0959 -0.0208384 0)
(10.1104 -0.0180596 0)
(10.1247 -0.0146239 0)
(10.1385 -0.0106711 0)
(10.1519 -0.00632639 0)
(10.165 -0.00169741 0)
(10.1779 0.00312611 0)
(10.1905 0.00807306 0)
(10.203 0.0130909 0)
(10.2154 0.0181529 0)
(10.0006 -0.0066206 0)
(10.0059 -0.0183494 0)
(10.0155 -0.0272995 0)
(10.0287 -0.0341869 0)
(10.0438 -0.0391868 0)
(10.0599 -0.0423157 0)
(10.0765 -0.0436657 0)
(10.0931 -0.0434684 0)
(10.1095 -0.0420146 0)
(10.1254 -0.0395799 0)
(10.1408 -0.0364047 0)
(10.1556 -0.0326991 0)
(10.17 -0.0286425 0)
(10.184 -0.0243815 0)
(10.1976 -0.0200294 0)
(10.2109 -0.0156684 0)
(10.224 -0.0113522 0)
(10.2369 -0.00709891 0)
(10.001 -0.00940153 0)
(10.0077 -0.0260188 0)
(10.0199 -0.039146 0)
(10.0359 -0.0490642 0)
(10.0536 -0.056217 0)
(10.0721 -0.0608084 0)
(10.0908 -0.0630659 0)
(10.1093 -0.06338 0)
(10.1272 -0.0621878 0)
(10.1445 -0.0598728 0)
(10.161 -0.0567557 0)
(10.1768 -0.0531103 0)
(10.1919 -0.0491657 0)
(10.2065 -0.0451018 0)
(10.2206 -0.041053 0)
(10.2343 -0.0371121 0)
(10.2477 -0.0333322 0)
(10.2609 -0.0297218 0)
(10.0017 -0.0129144 0)
(10.0108 -0.0351709 0)
(10.0265 -0.0520248 0)
(10.0458 -0.0644272 0)
(10.0664 -0.0733447 0)
(10.0875 -0.0790736 0)
(10.1085 -0.081936 0)
(10.129 -0.0824837 0)
(10.1485 -0.0812977 0)
(10.1671 -0.0788568 0)
(10.1846 -0.0755568 0)
(10.2011 -0.0717441 0)
(10.2168 -0.0677052 0)
(10.2318 -0.0636548 0)
(10.2462 -0.0597471 0)
(10.2601 -0.0560933 0)
(10.2737 -0.0527444 0)
(10.2871 -0.0496735 0)
(10.0024 -0.0173089 0)
(10.015 -0.0456727 0)
(10.0353 -0.0657506 0)
(10.0585 -0.0802149 0)
(10.0822 -0.0906177 0)
(10.106 -0.0971733 0)
(10.1295 -0.100295 0)
(10.1519 -0.100738 0)
(10.1729 -0.0992762 0)
(10.1926 -0.0965009 0)
(10.211 -0.0928459 0)
(10.2282 -0.0887082 0)
(10.2444 -0.0844315 0)
(10.2596 -0.0802677 0)
(10.2742 -0.0763908 0)
(10.2882 -0.0729501 0)
(10.3019 -0.0700102 0)
(10.3153 -0.067484 0)
(10.0035 -0.0228247 0)
(10.0212 -0.0579388 0)
(10.0471 -0.0805755 0)
(10.0742 -0.0964605 0)
(10.101 -0.107913 0)
(10.1277 -0.114903 0)
(10.1536 -0.117914 0)
(10.1779 -0.117915 0)
(10.2005 -0.115902 0)
(10.2215 -0.112619 0)
(10.2408 -0.108517 0)
(10.2586 -0.104 0)
(10.2749 -0.0994338 0)
(10.2901 -0.0950923 0)
(10.3044 -0.0911492 0)
(10.3179 -0.0877272 0)
(10.3307 -0.0847652 0)
(10.3428 -0.0821681 0)
(10.0056 -0.0302307 0)
(10.031 -0.0722865 0)
(10.063 -0.0960152 0)
(10.094 -0.112247 0)
(10.1242 -0.124116 0)
(10.1544 -0.131258 0)
(10.1836 -0.134139 0)
(10.2108 -0.133797 0)
(10.2359 -0.131202 0)
(10.2584 -0.126935 0)
(10.2783 -0.12177 0)
(10.2958 -0.116359 0)
(10.3113 -0.111133 0)
(10.3252 -0.106344 0)
(10.3378 -0.102084 0)
(10.3493 -0.0985714 0)
(10.3599 -0.0958797 0)
(10.37 -0.0937016 0)
(10.01 -0.0397571 0)
(10.0464 -0.0855709 0)
(10.0873 -0.11036 0)
(10.1254 -0.128049 0)
(10.1623 -0.140433 0)
(10.1994 -0.147275 0)
(10.2351 -0.149493 0)
(10.2679 -0.148178 0)
(10.297 -0.144618 0)
(10.3214 -0.139424 0)
(10.3415 -0.132915 0)
(10.3576 -0.12597 0)
(10.3705 -0.119257 0)
(10.3807 -0.113154 0)
(10.3888 -0.107817 0)
(10.3955 -0.103286 0)
(10.4016 -0.0996373 0)
(10.4073 -0.0969616 0)
(10.0208 -0.053915 0)
(10.0811 -0.0986483 0)
(10.148 -0.121812 0)
(10.21 -0.143292 0)
(10.268 -0.159784 0)
(10.3218 -0.168961 0)
(10.3673 -0.172241 0)
(10.4024 -0.17101 0)
(10.426 -0.166161 0)
(10.4404 -0.159216 0)
(10.4463 -0.151315 0)
(10.4447 -0.143344 0)
(10.4369 -0.135915 0)
(10.4242 -0.129423 0)
(10.4077 -0.124061 0)
(10.3884 -0.119994 0)
(10.3671 -0.11722 0)
(10.3451 -0.115816 0)
(10.083 -0.0934629 0)
(10.2604 -0.152778 0)
(10.3728 -0.16676 0)
(10.4182 -0.176634 0)
(10.4133 -0.182405 0)
(10.3652 -0.18149 0)
(10.2812 -0.174933 0)
(10.1705 -0.164156 0)
(10.0426 -0.15051 0)
(9.90462 -0.135321 0)
(9.76184 -0.119641 0)
(9.61815 -0.104374 0)
(9.47626 -0.0901901 0)
(9.33781 -0.0775067 0)
(9.20373 -0.0665304 0)
(9.07455 -0.0573899 0)
(8.95014 -0.0500524 0)
(8.83147 -0.044781 0)
(9.77118 -0.0888878 0)
(9.25684 -0.152368 0)
(8.6801 -0.166002 0)
(8.09093 -0.165601 0)
(7.5351 -0.157253 0)
(7.03149 -0.142742 0)
(6.58652 -0.124559 0)
(6.20341 -0.105016 0)
(5.88235 -0.0859451 0)
(5.61946 -0.0684588 0)
(5.40853 -0.0529524 0)
(5.24244 -0.0395417 0)
(5.11398 -0.0283359 0)
(5.01621 -0.0192679 0)
(4.94267 -0.0121334 0)
(4.88793 -0.00670944 0)
(4.84643 -0.00300516 0)
(4.8163 -2.9118e-05 0)
(0.0323625 -0.0584615 -4.08483e-21)
(0.0976368 -0.100507 3.9561e-21)
(0.22583 -0.148201 0)
(0.391988 -0.199191 0)
(0.598487 -0.241923 0)
(0.836434 -0.26796 -3.86245e-21)
(1.09137 -0.279285 0)
(1.35236 -0.279317 0)
(1.61025 -0.270662 0)
(1.85732 -0.255332 0)
(2.08755 -0.235146 4.41151e-21)
(2.29624 -0.210885 0)
(2.47933 -0.182073 0)
(2.63386 -0.149417 0)
(2.75731 -0.113765 0)
(2.84792 -0.0754633 5.20269e-21)
(2.90324 -0.0342557 0)
(2.92653 0.0118884 0)
(2.9061 0.0611746 0)
(2.84411 0.110088 0)
(2.74408 0.154296 0)
(2.6101 0.189703 0)
(2.44822 0.212979 0)
(2.26691 0.22179 5.47143e-21)
(2.07624 0.215344 -5.43692e-21)
(1.88669 0.195354 5.3951e-21)
(1.70787 0.166251 5.3467e-21)
(1.54758 0.133187 0)
(1.41037 0.101408 0)
(1.29785 0.0740579 -5.17427e-21)
(1.2101 0.048934 -5.11294e-21)
(1.14773 0.021048 0)
(1.11378 -0.0136776 0)
(1.11177 -0.0543611 -4.94255e-21)
(1.14246 -0.0955844 0)
(1.19983 -0.12901 0)
(1.26488 -0.141372 4.8342e-21)
(1.30863 -0.121298 0)
(1.28875 -0.0774438 4.85327e-21)
(1.18856 -0.0351518 9.75921e-21)
(1.0068 -0.00820213 0)
(0.743352 0.0219645 0)
(0.390092 0.086965 0)
(-0.0607781 0.191202 0)
(-0.610284 0.309458 0)
(-1.24419 0.421817 1.15194e-20)
(-1.93867 0.515764 1.2083e-20)
(-2.66805 0.583834 1.27778e-20)
(-3.40654 0.623125 0)
(-4.13067 0.634353 -1.44412e-20)
(-4.82082 0.620932 0)
(-5.46187 0.587775 1.61665e-20)
(-6.04283 0.53987 1.69342e-20)
(-6.55598 0.481183 0)
(-6.99657 0.413716 0)
(-7.3624 0.34133 0)
(-7.65371 0.269467 1.86557e-20)
(-7.8732 0.201437 0)
(-8.02498 0.139302 0)
(-8.11385 0.0849268 0)
(-8.14436 0.0396793 0)
(-8.12365 0.00353622 0)
(-8.0689 -0.0241535 0)
(-7.98148 -0.0468987 0)
(-7.86696 -0.0660824 0)
(-7.72896 -0.0826226 -1.34189e-20)
(-7.57046 -0.0971783 0)
(-7.39366 -0.110335 0)
(-7.20007 -0.122645 9.88249e-21)
(-6.9905 -0.134646 8.61395e-21)
(-6.76503 -0.146842 0)
(-6.52304 -0.159667 -5.97148e-21)
(-6.26322 -0.173466 4.59952e-21)
(-5.98378 -0.188419 0)
(-5.68279 -0.204385 -1.75202e-21)
(-5.35845 -0.220877 0)
(-5.00924 -0.237462 0)
(-4.63421 -0.254206 -2.73393e-21)
(-4.23319 -0.271012 0)
(-3.80698 -0.286963 5.76279e-21)
(-3.358 -0.301018 0)
(-2.89032 -0.312023 -8.63898e-21)
(-2.40959 -0.318655 -9.95099e-21)
(-1.92291 -0.3194 -1.11418e-20)
(-1.43838 -0.312783 -2.43747e-20)
(-0.964991 -0.298616 2.61369e-20)
(-0.51365 -0.280911 0)
(-0.0832274 -0.265789 0)
(0.329944 -0.258455 0)
(0.721934 -0.249051 2.93335e-20)
(1.08915 -0.230524 2.93289e-20)
(1.42382 -0.204745 -2.91553e-20)
(1.72148 -0.176975 0)
(1.98295 -0.148677 2.84543e-20)
(2.21104 -0.121246 2.80118e-20)
(2.40812 -0.095901 2.75325e-20)
(2.575 -0.072283 0)
(2.71292 -0.0503791 0)
(2.82395 -0.0300801 0)
(2.91032 -0.0109053 2.55662e-20)
(2.97333 0.00764913 0)
(3.0134 0.0269219 0)
(3.0257 0.0481221 -2.42877e-20)
(3.0078 0.0682394 0)
(2.96522 0.0808552 0)
(2.90236 0.0844774 -2.32308e-20)
(2.8242 0.0801214 0)
(2.73528 0.0702236 0)
(2.63883 0.0572542 2.24386e-20)
(2.53777 0.0430954 2.22288e-20)
(2.43595 0.0290837 0)
(2.33863 0.0160163 -2.18665e-20)
(2.25211 0.00393789 0)
(2.18435 -0.00794069 2.15409e-20)
(2.14743 -0.0212544 0)
(2.15325 -0.039426 2.12508e-20)
(2.21808 -0.0548793 2.11381e-20)
(2.32568 -0.0470895 0)
(2.40957 -0.00969499 0)
(2.38904 0.035118 0)
(2.24116 0.0737356 0)
(1.94763 0.119066 0)
(1.48385 0.186961 0)
(0.855236 0.26111 0)
(0.107551 0.316602 1.35655e-20)
(-0.69134 0.345791 -1.03653e-20)
(-1.47916 0.346716 0)
(-2.20852 0.324088 0)
(-2.8444 0.28411 0)
(-3.36288 0.224306 0)
(-3.74729 0.151357 5.86345e-21)
(-3.98533 0.0779411 0)
(-4.07271 0.00971067 -8.13006e-21)
(-4.01814 -0.0541815 7.07574e-21)
(-3.84456 -0.109946 0)
(-3.55654 -0.160615 0)
(-3.16552 -0.205624 0)
(-2.68507 -0.242972 8.64461e-21)
(-2.13168 -0.268689 1.41123e-20)
(-1.52726 -0.277082 0)
(-0.89412 -0.272918 2.46959e-20)
(-0.240412 -0.265751 2.92936e-20)
(0.420617 -0.260306 -3.28981e-20)
(1.06823 -0.254952 0)
(1.69418 -0.247065 0)
(2.29149 -0.226352 -3.82445e-20)
(2.84918 -0.194689 0)
(3.36088 -0.161833 0)
(3.82726 -0.130852 0)
(4.2499 -0.101609 0)
(4.63006 -0.0741621 3.5747e-20)
(4.96834 -0.0485871 3.43121e-20)
(5.2647 -0.0244946 0)
(5.51764 -0.00121386 3.10492e-20)
(5.72396 0.0212003 0)
(5.87964 0.0406651 0)
(5.98028 0.0538234 2.59867e-20)
(6.01447 0.0655063 0)
(5.97699 0.091261 2.30504e-20)
(5.87393 0.11486 0)
(5.70623 0.132579 0)
(5.47815 0.145339 2.04274e-20)
(5.19722 0.153024 0)
(4.8739 0.155502 1.98593e-20)
(4.5218 0.15095 0)
(4.15645 0.137065 0)
(3.79446 0.113197 0)
(3.45047 0.0799062 -1.95312e-20)
(3.13598 0.0439412 0)
(2.85648 0.0141197 1.92243e-20)
(2.60626 -0.00343266 0)
(2.36502 -0.00466963 0)
(2.10419 0.00984626 0)
(1.80887 0.0346219 0)
(1.4936 0.0610488 0)
(1.17535 0.0782428 0)
(0.865939 0.0838747 0)
(0.574148 0.0772122 -2.53326e-20)
(0.33527 0.0600192 0)
(0.127812 0.0431737 0)
(0.0545268 -0.208345 1.22953e-20)
(0.15029 -0.33862 -1.1856e-20)
(0.332416 -0.470531 0)
(0.552734 -0.594883 7.7304e-21)
(0.799105 -0.694367 0)
(1.06382 -0.759252 3.7321e-21)
(1.33637 -0.78847 -7.89715e-21)
(1.60454 -0.785797 -8.08918e-21)
(1.86079 -0.757001 0)
(2.0999 -0.7079 -8.60775e-21)
(2.31755 -0.643604 -4.23405e-21)
(2.50986 -0.568098 0)
(2.67654 -0.485087 0)
(2.81795 -0.397036 0)
(2.93356 -0.305977 0)
(3.02362 -0.213122 -5.02926e-21)
(3.08936 -0.119181 0)
(3.12842 -0.0240806 1.08919e-20)
(3.15069 0.0708688 0)
(3.15485 0.163153 0)
(3.13863 0.249482 -1.10552e-20)
(3.09966 0.326227 0)
(3.03584 0.389427 1.09211e-20)
(2.94589 0.434898 -5.27441e-21)
(2.83022 0.45892 5.23477e-21)
(2.69177 0.459433 -5.19225e-21)
(2.53629 0.43722 -5.14827e-21)
(2.37195 0.395909 0)
(2.20817 0.341326 0)
(2.05384 0.280044 5.01145e-21)
(1.91554 0.216414 -4.86426e-21)
(1.7959 0.150711 0)
(1.69294 0.0818599 0)
(1.60099 0.0138052 4.84699e-21)
(1.51023 -0.0438373 0)
(1.39537 -0.0703227 0)
(1.21553 -0.0350478 -4.79869e-21)
(0.935911 0.084392 0)
(0.548182 0.27798 4.82078e-21)
(0.0376869 0.505846 -9.76726e-21)
(-0.604823 0.744378 0)
(-1.36725 0.986743 0)
(-2.21371 1.21676 -1.95647e-20)
(-3.1034 1.41387 -2.00791e-20)
(-3.99767 1.56057 -2.08977e-20)
(-4.86154 1.64651 1.19062e-20)
(-5.66745 1.67004 -1.06283e-20)
(-6.39536 1.63617 -3.63417e-20)
(-7.03289 1.55427 2.68358e-20)
(-7.57474 1.43588 1.29722e-20)
(-8.02143 1.29284 0)
(-8.37773 1.13591 -1.48097e-20)
(-8.65135 0.973897 1.82267e-20)
(-8.85192 0.813486 0)
(-8.98989 0.659356 0)
(-9.0752 0.514527 0)
(-9.11692 0.380662 -1.77718e-20)
(-9.12267 0.258512 0)
(-9.09868 0.148588 3.70029e-20)
(-9.05012 0.0513195 0)
(-8.98121 -0.0331579 3.52078e-20)
(-8.89311 -0.105197 0)
(-8.77676 -0.165599 -3.22356e-20)
(-8.6369 -0.216751 0)
(-8.47488 -0.260128 2.84922e-20)
(-8.29313 -0.297081 -1.34972e-20)
(-8.09388 -0.328867 0)
(-7.879 -0.356767 -2.18893e-20)
(-7.64986 -0.382065 -9.49178e-21)
(-7.4072 -0.406029 -8.27046e-21)
(-7.15112 -0.429914 0)
(-6.88101 -0.454889 -6.31572e-21)
(-6.59552 -0.481913 -4.40999e-21)
(-6.2927 -0.511546 0)
(-5.97033 -0.543796 1.67791e-21)
(-5.62602 -0.578216 -1.27074e-21)
(-5.25711 -0.614322 0)
(-4.86123 -0.651037 2.62255e-21)
(-4.43813 -0.686414 0)
(-3.98937 -0.718181 -1.58896e-20)
(-3.5174 -0.743962 0)
(-3.02629 -0.7614 2.43344e-20)
(-2.52137 -0.768377 9.61357e-21)
(-2.00877 -0.763274 -1.02297e-20)
(-1.49474 -0.745401 -2.26672e-20)
(-0.985252 -0.715934 2.45839e-20)
(-0.486548 -0.679501 0)
(-0.00534649 -0.643528 0)
(0.449038 -0.604142 0)
(0.870779 -0.560466 -8.49617e-20)
(1.25782 -0.511807 -2.84189e-20)
(1.60919 -0.458492 2.81679e-20)
(1.92353 -0.405113 0)
(2.20208 -0.356399 2.69385e-20)
(2.45016 -0.312806 -2.69948e-20)
(2.67117 -0.270725 -2.65879e-20)
(2.86718 -0.230217 0)
(3.03956 -0.192483 0)
(3.18973 -0.158157 0)
(3.31944 -0.126983 -2.49529e-20)
(3.43075 -0.098136 0)
(3.52552 -0.0697725 4.82359e-20)
(3.60905 -0.0398204 7.13821e-20)
(3.6846 -0.00814232 -4.68417e-20)
(3.74713 0.0228606 0)
(3.78977 0.0514437 -2.2716e-20)
(3.80651 0.0777966 0)
(3.79374 0.101652 -4.436e-20)
(3.74885 0.121936 2.19049e-20)
(3.67039 0.136567 2.16924e-20)
(3.55905 0.14288 0)
(3.41889 0.138361 6.41851e-20)
(3.2588 0.121364 -4.25294e-20)
(3.0937 0.0909128 -2.11769e-20)
(2.94792 0.0438286 0)
(2.86096 -0.0244783 -2.10165e-20)
(2.85823 -0.0944401 -6.27296e-20)
(2.92465 -0.115729 0)
(2.99113 -0.0468003 -4.13342e-20)
(2.94907 0.0988033 -4.0587e-20)
(2.66925 0.284142 -3.95757e-20)
(2.09067 0.494229 0)
(1.2454 0.704397 0)
(0.241355 0.859002 0)
(-0.77895 0.922341 1.25566e-20)
(-1.71296 0.903476 9.97923e-21)
(-2.50747 0.822614 0)
(-3.14361 0.703779 6.1161e-21)
(-3.62297 0.566113 6.60898e-22)
(-3.95833 0.422863 0)
(-4.16487 0.279564 -5.74162e-21)
(-4.25955 0.140358 -1.75444e-20)
(-4.25434 0.00930963 7.98439e-21)
(-4.15022 -0.11498 9.16266e-21)
(-3.93298 -0.228163 0)
(-3.60987 -0.330063 0)
(-3.18898 -0.417912 0)
(-2.68175 -0.48847 -8.42858e-21)
(-2.10104 -0.542234 1.20217e-20)
(-1.45966 -0.578271 3.67752e-20)
(-0.772802 -0.600454 -2.42519e-20)
(-0.0606195 -0.611244 2.76785e-20)
(0.656273 -0.602036 3.21905e-20)
(1.3629 -0.578812 0)
(2.04802 -0.549572 0)
(2.70238 -0.517769 -3.65876e-20)
(3.32282 -0.48311 0)
(3.90989 -0.446901 0)
(4.46177 -0.410666 7.35185e-20)
(4.97671 -0.375008 0)
(5.45372 -0.340104 3.45343e-20)
(5.89174 -0.305796 -3.35816e-20)
(6.28883 -0.271251 0)
(6.64117 -0.23515 3.02449e-20)
(6.94383 -0.19642 0)
(7.18866 -0.153362 0)
(7.36396 -0.103997 -2.56084e-20)
(7.47234 -0.0463744 4.82666e-20)
(7.50628 0.0136379 -2.27142e-20)
(7.44521 0.0685447 0)
(7.28609 0.120635 0)
(7.02739 0.168659 2.02094e-20)
(6.67328 0.2094 0)
(6.23949 0.240473 1.9618e-20)
(5.75004 0.259947 0)
(5.23524 0.267045 0)
(4.72593 0.263003 0)
(4.24912 0.24978 1.89791e-20)
(3.8242 0.231858 0)
(3.45997 0.215162 -1.86563e-20)
(3.15211 0.205585 0)
(2.8812 0.208613 0)
(2.61298 0.222358 3.51346e-20)
(2.30877 0.234813 -3.40571e-20)
(1.94734 0.236683 0)
(1.54219 0.227444 0)
(1.14106 0.210928 0)
(0.775858 0.183995 7.47945e-20)
(0.49078 0.148385 0)
(0.256208 0.110924 -4.10964e-20)
(0.0644773 -0.444162 2.85223e-22)
(0.189131 -0.709294 1.60263e-20)
(0.421514 -0.95255 0)
(0.684546 -1.14937 -1.55353e-20)
(0.958594 -1.28101 0)
(1.23308 -1.34783 0)
(1.49567 -1.35622 -4.91209e-22)
(1.73934 -1.31718 7.93163e-21)
(1.96233 -1.2428 8.73608e-21)
(2.16426 -1.14287 8.45776e-21)
(2.34436 -1.02563 0)
(2.50373 -0.897896 0)
(2.64347 -0.764607 -1.00569e-20)
(2.7628 -0.628523 -2.07819e-20)
(2.86121 -0.491201 2.13966e-20)
(2.93819 -0.353905 0)
(2.99317 -0.218052 2.23993e-20)
(3.02558 -0.0858325 -1.08648e-20)
(3.03605 0.0421807 0)
(3.02577 0.165821 2.30099e-20)
(2.99625 0.284118 1.10111e-20)
(2.94937 0.394955 -2.27961e-20)
(2.88632 0.494894 -1.08591e-20)
(2.80735 0.579327 0)
(2.71188 0.643038 2.18852e-20)
(2.59949 0.680344 2.14816e-20)
(2.47103 0.687364 0)
(2.32958 0.664005 2.06294e-20)
(2.17969 0.613812 0)
(2.02655 0.543559 1.98366e-20)
(1.87322 0.462559 9.76862e-21)
(1.71642 0.38125 0)
(1.54566 0.307507 0)
(1.34476 0.251809 0)
(1.08246 0.247704 0)
(0.709415 0.358579 0)
(0.191707 0.616579 0)
(-0.468665 0.975003 1.89065e-20)
(-1.24157 1.37257 -2.78495e-20)
(-2.09462 1.76654 0)
(-2.99496 2.12309 0)
(-3.89997 2.41643 0)
(-4.76655 2.62796 -2.49839e-21)
(-5.56122 2.74744 1.83233e-20)
(-6.26088 2.77369 4.21139e-20)
(-6.85521 2.71374 -4.5047e-20)
(-7.34515 2.58101 -2.637e-20)
(-7.73968 2.39267 2.38561e-20)
(-8.0526 2.16681 4.41422e-21)
(-8.29934 1.92025 3.21149e-20)
(-8.49433 1.66696 0)
(-8.64929 1.41735 3.5469e-20)
(-8.7725 1.17836 3.41852e-21)
(-8.86904 0.954051 0)
(-8.94137 0.746495 0)
(-8.99002 0.556438 -3.9215e-20)
(-9.01415 0.383773 0)
(-9.01213 0.227764 0)
(-8.98261 0.087174 4.05194e-20)
(-8.92556 -0.0392763 7.5621e-20)
(-8.84147 -0.152668 -3.51069e-20)
(-8.73082 -0.253917 0)
(-8.59615 -0.343559 3.21648e-20)
(-8.44044 -0.421214 0)
(-8.26626 -0.487724 3.02242e-20)
(-8.07603 -0.544523 2.63579e-20)
(-7.87182 -0.593463 -4.97594e-20)
(-7.65522 -0.63654 -2.32032e-20)
(-7.42752 -0.675598 0)
(-7.18939 -0.712628 3.53853e-20)
(-6.94086 -0.749719 0)
(-6.68117 -0.78889 3.74274e-20)
(-6.40869 -0.831894 2.02943e-20)
(-6.12108 -0.88005 1.50848e-20)
(-5.81534 -0.934102 -9.75702e-21)
(-5.48772 -0.993851 5.56506e-21)
(-5.13453 -1.05792 0)
(-4.75367 -1.12358 0)
(-4.34431 -1.18711 1.28786e-20)
(-3.90683 -1.24486 2.90191e-20)
(-3.44349 -1.2929 0)
(-2.95827 -1.32746 -1.58662e-20)
(-2.4566 -1.34542 0)
(-1.94475 -1.34477 6.12315e-20)
(-1.42927 -1.32488 1.09905e-21)
(-0.916633 -1.28677 -9.65825e-22)
(-0.413685 -1.23308 -5.18848e-20)
(0.071386 -1.1668 0)
(0.530475 -1.09012 5.50181e-20)
(0.958707 -1.00485 5.43866e-22)
(1.35297 -0.91231 0)
(1.71264 -0.814904 0)
(2.03743 -0.717379 0)
(2.32647 -0.626916 -5.35621e-20)
(2.57893 -0.547913 0)
(2.79957 -0.476754 0)
(2.99543 -0.410444 0)
(3.16912 -0.349059 0)
(3.32259 -0.292927 0)
(3.45821 -0.241737 -4.83503e-20)
(3.57846 -0.194574 0)
(3.68578 -0.15067 -4.72797e-20)
(3.78294 -0.109571 -4.66494e-20)
(3.87232 -0.0701941 4.60523e-20)
(3.95531 -0.0306555 0)
(4.03359 0.00928406 4.49581e-20)
(4.10639 0.0509374 0)
(4.16986 0.0949628 4.39088e-20)
(4.21792 0.141108 -4.34129e-20)
(4.24169 0.187602 -1.28545e-19)
(4.23037 0.230046 0)
(4.17352 0.261072 -1.26327e-19)
(4.06539 0.27121 -4.17719e-20)
(3.91039 0.248215 0)
(3.7275 0.17594 -8.31995e-20)
(3.54933 0.0505342 -8.32904e-20)
(3.40884 -0.0860322 1.24814e-19)
(3.31685 -0.140518 0)
(3.22204 -0.0160728 4.11118e-20)
(2.99359 0.300384 4.03231e-20)
(2.48937 0.723123 1.17974e-19)
(1.67635 1.14961 0)
(0.669566 1.48152 0)
(-0.351308 1.63853 0)
(-1.25932 1.62599 2.11093e-20)
(-2.01673 1.49467 0)
(-2.62939 1.29584 0)
(-3.11805 1.06772 -6.05737e-21)
(-3.50093 0.832573 -6.56712e-22)
(-3.78822 0.600564 0)
(-3.9817 0.375614 0)
(-4.0772 0.159135 1.7535e-20)
(-4.07002 -0.0492153 0)
(-3.95568 -0.247857 -1.60555e-20)
(-3.73378 -0.435874 -1.42965e-20)
(-3.40856 -0.608017 0)
(-2.98706 -0.759298 0)
(-2.47625 -0.886386 -1.25124e-20)
(-1.88638 -0.987274 -2.06159e-21)
(-1.23452 -1.06009 -1.81166e-21)
(-0.539256 -1.10234 0)
(0.179261 -1.11481 -1.10832e-19)
(0.903499 -1.10076 0)
(1.61937 -1.06555 0)
(2.31456 -1.01469 0)
(2.98106 -0.95288 7.33205e-20)
(3.6167 -0.887011 0)
(4.22062 -0.820816 -1.45942e-19)
(4.79235 -0.755519 -7.26604e-20)
(5.33223 -0.691436 0)
(5.84077 -0.628006 -6.85238e-20)
(6.31778 -0.564362 0)
(6.76245 -0.498912 0)
(7.17447 -0.428766 -1.77566e-19)
(7.55182 -0.351544 1.11443e-19)
(7.89028 -0.264879 0)
(8.18382 -0.16739 9.91104e-20)
(8.41841 -0.0595166 -4.77581e-20)
(8.57582 0.0480287 0)
(8.63881 0.161367 0)
(8.58648 0.277996 0)
(8.40379 0.388751 -1.18023e-19)
(8.08313 0.484294 0)
(7.62986 0.554941 -3.88249e-20)
(7.06643 0.594073 0)
(6.43052 0.59996 0)
(5.76791 0.574225 0)
(5.12717 0.523558 0)
(4.54584 0.458138 0)
(4.04532 0.391416 0)
(3.62824 0.339797 -7.25548e-20)
(3.27691 0.320285 0)
(2.95445 0.338899 -3.48226e-20)
(2.61439 0.380312 1.00929e-19)
(2.22492 0.415471 0)
(1.79604 0.424636 0)
(1.38177 0.400935 -5.41712e-20)
(1.01801 0.34579 -4.93826e-20)
(0.735859 0.272063 4.40198e-20)
(0.501331 0.197206 4.08621e-20)
(0.0809282 -0.722269 -2.61175e-20)
(0.239451 -1.16083 -2.49697e-20)
(0.512786 -1.50554 -1.6675e-20)
(0.793518 -1.73566 -8.78395e-21)
(1.05994 -1.85266 0)
(1.30673 -1.87706 1.70279e-20)
(1.52909 -1.83284 -9.36669e-21)
(1.72826 -1.74117 0)
(1.90758 -1.61846 -8.62662e-21)
(2.07021 -1.47606 0)
(2.21886 -1.32107 2.00039e-20)
(2.35427 -1.1586 0)
(2.47581 -0.991068 1.00551e-20)
(2.58241 -0.81962 2.08104e-20)
(2.67265 -0.645139 -2.14537e-20)
(2.7449 -0.4687 0)
(2.79751 -0.291739 -2.25042e-20)
(2.82893 -0.116139 0)
(2.83787 0.0555915 0)
(2.8237 0.220291 -2.31231e-20)
(2.78684 0.374973 0)
(2.72864 0.516707 -1.13322e-21)
(2.65122 0.642566 0)
(2.55677 0.749411 0)
(2.44765 0.833851 8.64326e-22)
(2.32561 0.891128 -2.15393e-20)
(2.19058 0.916528 -2.17786e-20)
(2.04307 0.907672 -2.07377e-20)
(1.88331 0.867459 0)
(1.70907 0.807344 -4.01697e-20)
(1.51343 0.747358 0)
(1.28128 0.703986 -1.93938e-20)
(0.99383 0.694013 0)
(0.618738 0.767537 0)
(0.101458 0.986494 1.88871e-20)
(-0.582175 1.36549 0)
(-1.39195 1.8434 -1.8367e-20)
(-2.27565 2.34477 9.95934e-22)
(-3.18138 2.81163 3.57894e-20)
(-4.06236 3.20297 -3.85194e-20)
(-4.87879 3.48982 0)
(-5.60033 3.65707 0)
(-6.21074 3.70497 -2.68507e-20)
(-6.70749 3.64477 0)
(-7.09963 3.49491 -2.20689e-20)
(-7.4045 3.27778 2.39078e-20)
(-7.64283 3.01595 2.58916e-20)
(-7.83456 2.72934 0)
(-7.99571 2.4335 -2.99931e-20)
(-8.13689 2.13915 -3.19714e-20)
(-8.26323 1.85269 7.58216e-20)
(-8.37544 1.57735 -3.54904e-20)
(-8.47134 1.31436 -3.6936e-20)
(-8.54745 1.06402 0)
(-8.60017 0.826458 0)
(-8.6265 0.602064 3.9591e-20)
(-8.62458 0.391618 0)
(-8.5939 0.196099 0)
(-8.53488 0.0162493 -7.84958e-20)
(-8.44863 -0.14735 -7.65475e-20)
(-8.33712 -0.294129 0)
(-8.20312 -0.424259 0)
(-8.04916 -0.538263 0)
(-7.87815 -0.636758 0)
(-7.69318 -0.720988 -5.94396e-20)
(-7.49643 -0.792971 5.7058e-20)
(-7.29003 -0.854306 5.04967e-20)
(-7.07592 -0.907409 9.31987e-20)
(-6.85579 -0.955149 0)
(-6.63036 -1.00032 1.54562e-21)
(-6.39961 -1.04597 0)
(-6.16256 -1.09516 -2.57586e-20)
(-5.91722 -1.15068 1.79299e-21)
(-5.66055 -1.21473 -1.52566e-20)
(-5.38859 -1.28864 9.85378e-21)
(-5.09675 -1.37226 2.2979e-21)
(-4.78045 -1.46323 0)
(-4.43548 -1.55754 -4.55665e-21)
(-4.0589 -1.6502 -1.2898e-20)
(-3.64998 -1.73537 -3.50286e-20)
(-3.21065 -1.80694 0)
(-2.74531 -1.85923 2.79166e-20)
(-2.26029 -1.88779 0)
(-1.76305 -1.88992 -7.86985e-20)
(-1.26137 -1.86501 4.46081e-20)
(-0.762808 -1.81443 -4.84088e-20)
(-0.274329 -1.74109 5.15989e-20)
(0.197038 -1.6486 1.05014e-19)
(0.645054 -1.5404 -5.44595e-20)
(1.06531 -1.42048 5.47956e-20)
(1.45448 -1.2923 0)
(1.81133 -1.15931 -1.07422e-19)
(2.13553 -1.02551 0)