/*--------------------------------*- C++ -*----------------------------------*\
| =========                 |                                                 |
| \\      /  F ield         | OpenFOAM: The Open Source CFD Toolbox           |
|  \\    /   O peration     | Version:  2112                                  |
|   \\  /    A nd           | Website:  www.openfoam.com                      |
|    \\/     M anipulation  |                                                 |
\*---------------------------------------------------------------------------*/
FoamFile
{
    version     2.0;
    format      ascii;
    arch        "LSB;label=32;scalar=64";
    class       surfaceScalarField;
    location    "0.02";
    object      ddtCorrDdt0(phi);
}
// * * * * * * * * * * * * * * * * * * * * * * * * * * * * * * * * * * * * * //

dimensions      [0 3 -2 0 0 0 0];

oriented        oriented;

internalField   nonuniform List<scalar> 
25468
(
-6.82103e-06
6.82102e-06
-1.68971e-06
-5.13134e-06
7.12919e-06
-8.81892e-06
9.20129e-06
-2.07211e-06
-2.19232e-06
1.13936e-05
-4.03452e-05
3.81529e-05
-6.96751e-05
2.93299e-05
-2.85932e-05
-4.1082e-05
6.42214e-05
-9.28146e-05
0.000104916
-4.06946e-05
6.95166e-05
3.53994e-05
7.16578e-06
6.23508e-05
-5.79817e-05
6.51475e-05
-9.97945e-05
4.18127e-05
-8.24428e-05
-1.73517e-05
-7.40947e-06
-7.50333e-05
5.17334e-05
-5.91428e-05
5.66948e-05
-4.96147e-06
4.03705e-05
1.63243e-05
2.34618e-05
1.69087e-05
4.81574e-06
1.8646e-05
-1.87502e-05
2.3566e-05
-3.55146e-05
1.67644e-05
-2.93778e-05
-6.13678e-06
-7.81937e-06
-2.15585e-05
8.2576e-06
-1.6077e-05
1.08499e-05
-2.59232e-06
3.77396e-06
7.07596e-06
-5.83049e-06
9.60446e-06
-1.33427e-05
7.51217e-06
-1.73356e-05
3.99299e-06
-1.81853e-05
8.49633e-07
-1.60766e-05
-2.1086e-06
-1.09995e-05
-5.07711e-06
-3.68789e-06
-7.31159e-06
5.32031e-06
-9.00817e-06
1.2895e-05
-7.57466e-06
2.0033e-05
-7.13796e-06
2.83388e-05
-8.30582e-06
-5.99774e-06
3.43365e-05
4.46416e-06
2.35685e-06
2.21395e-07
-8.88585e-07
-6.41757e-06
-2.17997e-06
-9.71542e-06
1.22573e-06
-6.73646e-06
8.41464e-06
8.32824e-06
2.30882e-05
2.11428e-05
1.65153e-05
9.5077e-06
-2.94469e-05
-1.24634e-05
-7.08434e-05
-6.27963e-06
-4.68784e-05
9.77031e-06
1.93494e-05
5.00942e-06
6.71117e-05
-7.27586e-06
7.74328e-05
-1.25692e-05
4.71061e-05
-1.97377e-05
-1.01832e-05
-3.34325e-05
-6.13386e-05
-2.26152e-05
-6.99601e-05
1.5163e-05
-4.27397e-05
4.41826e-05
-1.26953e-05
5.00245e-05
1.10668e-05
3.70201e-05
3.16505e-05
1.83753e-05
4.22107e-05
7.98163e-07
3.43415e-05
-1.90611e-05
1.37225e-05
-3.71509e-05
-3.46872e-06
-4.38729e-05
-9.35495e-06
-3.85939e-05
-7.87134e-06
-2.61398e-05
-5.37818e-06
-1.23436e-05
-4.19168e-06
-1.48661e-06
-3.34484e-06
4.84886e-06
-2.34248e-06
7.33654e-06
-1.63803e-06
8.26983e-06
-3.04187e-06
9.12184e-06
-5.92909e-06
1.00683e-05
-8.25804e-06
1.03337e-05
-9.27355e-06
1.14332e-05
-8.67412e-06
1.23449e-05
-8.04968e-06
8.49613e-06
-4.45702e-06
-1.96969e-07
2.69536e-06
1.614e-06
7.42835e-07
-1.38492e-08
7.39252e-07
-2.2145e-06
2.06655e-08
-3.28613e-06
2.29735e-06
-1.84938e-07
5.31344e-06
1.19001e-05
1.10032e-05
1.93466e-05
9.06882e-06
5.5068e-06
-1.56071e-05
-1.97118e-05
-4.56249e-05
-3.19181e-05
-3.46721e-05
-2.37665e-05
1.11978e-05
-2.29957e-06
4.56448e-05
2.39862e-05
5.1147e-05
3.65647e-05
3.45276e-05
2.22479e-05
4.13367e-06
-4.27664e-06
-3.48141e-05
-1.7598e-05
-5.66387e-05
-1.3161e-05
-4.71768e-05
-3.3543e-06
-2.2502e-05
3.39645e-06
4.31608e-06
7.24484e-06
2.78021e-05
7.38585e-06
4.20697e-05
-1.20052e-06
4.29279e-05
-1.79514e-05
3.04734e-05
-3.29224e-05
1.15022e-05
-3.75176e-05
-4.75972e-06
-3.02503e-05
-1.51387e-05
-1.47664e-05
-2.08621e-05
4.53888e-06
-2.34969e-05
2.40889e-05
-2.28949e-05
3.98145e-05
-1.8068e-05
4.88462e-05
-1.06697e-05
4.99056e-05
-4.10128e-06
4.26876e-05
1.2889e-06
2.92363e-05
5.19327e-06
1.25818e-05
7.38094e-06
-4.17642e-06
8.08415e-06
-2.00596e-05
7.83349e-06
-3.14198e-05
6.90321e-06
5.23148e-06
-3.68483e-05
4.24329e-07
3.18496e-07
4.43535e-07
7.20035e-07
-3.99143e-07
8.63332e-07
-6.78332e-07
2.57653e-06
3.56408e-07
4.2787e-06
5.05488e-06
6.30469e-06
1.05493e-05
3.57442e-06
7.19932e-06
-1.22571e-05
-9.4505e-06
-2.8975e-05
-2.39632e-05
-2.01594e-05
-2.17102e-05
8.94486e-06
-6.44198e-06
3.03766e-05
1.12636e-05
3.34414e-05
2.47627e-05
2.10285e-05
3.13157e-05
-2.41929e-06
2.32641e-05
-2.67625e-05
1.84768e-06
-3.52223e-05
-1.9272e-05
-2.60571e-05
-3.18349e-05
-9.939e-06
-3.37045e-05
6.18563e-06
-2.60912e-05
2.01888e-05
-1.26901e-05
2.86685e-05
2.95465e-06
2.72832e-05
1.6936e-05
1.64921e-05
2.4902e-05
3.53625e-06
2.56208e-05
-5.47853e-06
2.10487e-05
-1.05665e-05
1.37321e-05
-1.35455e-05
5.44396e-06
-1.52088e-05
-2.27879e-06
-1.51721e-05
-7.43242e-06
-1.29144e-05
-9.06112e-06
-9.04099e-06
-8.56789e-06
-4.59449e-06
-7.19059e-06
-8.83863e-08
-6.00448e-06
4.00718e-06
-5.92794e-06
7.30441e-06
-7.42594e-06
9.58217e-06
-1.04206e-05
1.08282e-05
-1.46309e-05
1.11135e-05
1.10373e-05
-2.04367e-05
8.00831e-08
2.38405e-07
3.852e-07
4.14908e-07
-3.91649e-08
1.28769e-06
-8.4279e-08
2.62163e-06
7.42902e-07
3.45151e-06
3.46306e-06
3.58452e-06
6.79404e-06
2.43442e-07
4.11647e-06
-9.57955e-06
-7.16704e-06
-1.76915e-05
-1.64379e-05
-1.08885e-05
-1.41828e-05
6.68971e-06
-3.37797e-06
1.95717e-05
9.56572e-06
2.04977e-05
1.96434e-05
1.09508e-05
2.09014e-05
-3.67731e-06
1.03064e-05
-1.61675e-05
-4.98692e-06
-1.9929e-05
-1.66712e-05
-1.43729e-05
-2.20195e-05
-4.59062e-06
-2.12118e-05
5.3779e-06
-1.43596e-05
1.33366e-05
-2.77895e-06
1.70879e-05
9.29408e-06
1.52101e-05
1.65815e-05
9.20462e-06
1.75857e-05
2.53208e-06
1.48532e-05
-2.74598e-06
1.07415e-05
-6.45476e-06
6.06414e-06
-8.86821e-06
8.61246e-07
-1.00059e-05
-4.61e-06
-9.70087e-06
-9.47714e-06
-8.04721e-06
-1.30996e-05
-5.41855e-06
-1.53209e-05
-2.3731e-06
-1.60769e-05
6.6762e-07
-1.55092e-05
3.43946e-06
-1.39505e-05
5.74576e-06
-1.18385e-05
7.47015e-06
-9.56358e-06
8.55328e-06
-7.51139e-06
9.06129e-06
9.11752e-06
-5.59158e-06
7.14538e-08
1.66942e-07
1.33227e-07
3.53126e-07
-3.44029e-08
1.45531e-06
1.99253e-07
2.38797e-06
1.03047e-06
2.62029e-06
2.68808e-06
1.9269e-06
4.02353e-06
-1.09202e-06
1.53656e-06
-7.09258e-06
-5.24724e-06
-1.09078e-05
-1.01937e-05
-5.94205e-06
-8.26713e-06
4.76312e-06
-1.057e-06
1.23616e-05
7.01991e-06
1.24208e-05
1.18283e-05
6.14237e-06
1.06776e-05
-2.5266e-06
4.00301e-06
-9.4929e-06
-4.36428e-06
-1.15617e-05
-1.05271e-05
-8.21005e-06
-1.30719e-05
-2.04578e-06
-1.18482e-05
4.15418e-06
-7.19654e-06
8.68491e-06
-5.81641e-07
1.0473e-05
5.41133e-06
9.21717e-06
8.86182e-06
5.75413e-06
9.7544e-06
1.63952e-06
8.91837e-06
-1.90994e-06
6.85415e-06
-4.39053e-06
3.77752e-06
-5.79158e-06
-9.95334e-09
-6.2184e-06
-3.99362e-06
-5.7172e-06
-7.60636e-06
-4.43446e-06
-1.04065e-05
-2.61838e-06
-1.21963e-05
-5.83271e-07
-1.29421e-05
1.41335e-06
-1.26894e-05
3.18678e-06
-1.15524e-05
4.60875e-06
-9.69715e-06
5.61494e-06
-7.33669e-06
6.19283e-06
-4.65133e-06
6.37593e-06
6.2202e-06
-1.754e-06
3.04386e-08
1.36496e-07
-4.95383e-08
4.33095e-07
-4.79653e-09
1.41056e-06
3.66078e-07
2.01709e-06
1.06276e-06
1.9236e-06
1.99768e-06
9.91986e-07
2.33744e-06
-1.43178e-06
3.92362e-07
-5.14751e-06
-3.64269e-06
-6.87271e-06
-6.28536e-06
-3.29938e-06
-4.85757e-06
3.33534e-06
-3.51807e-07
7.85584e-06
4.35003e-06
7.71895e-06
6.72054e-06
3.77185e-06
5.68205e-06
-1.48811e-06
1.73807e-06
-5.54892e-06
-3.20843e-06
-6.6152e-06
-6.91156e-06
-4.50693e-06
-8.24226e-06
-7.15071e-07
-7.13543e-06
3.04735e-06
-4.11708e-06
5.66656e-06
-2.06847e-07
6.5628e-06
3.32656e-06
5.68377e-06
5.53504e-06
3.54566e-06
6.14549e-06
1.02908e-06
5.37086e-06
-1.1353e-06
3.60665e-06
-2.62632e-06
1.22806e-06
-3.41297e-06
-1.42889e-06
-3.56144e-06
-4.01469e-06
-3.13139e-06
-6.21714e-06
-2.232e-06
-7.80687e-06
-1.02864e-06
-8.6838e-06
2.93669e-07
-8.8477e-06
1.57726e-06
-8.36478e-06
2.70387e-06
-7.35151e-06
3.5955e-06
-5.95676e-06
4.2202e-06
-4.34129e-06
4.57736e-06
-2.6494e-06
4.68406e-06
4.56738e-06
-9.96582e-07
-3.73298e-08
1.7382e-07
-1.08191e-07
5.03949e-07
8.03534e-08
1.22201e-06
4.61101e-07
1.63634e-06
9.71529e-07
1.41317e-06
1.4672e-06
4.96312e-07
1.40068e-06
-1.36527e-06
-4.58122e-08
-3.70101e-06
-2.52118e-06
-4.39735e-06
-3.97732e-06
-1.84324e-06
-2.98128e-06
2.3393e-06
-2.19581e-07
5.09414e-06
2.53436e-06
4.96501e-06
3.79789e-06
2.50832e-06
3.00883e-06
-6.99043e-07
5.34892e-07
-3.07499e-06
-2.45501e-06
-3.62529e-06
-4.6192e-06
-2.34273e-06
-5.2584e-06
-7.58627e-08
-4.38572e-06
2.17468e-06
-2.42544e-06
3.70629e-06
-3.94201e-08
4.17679e-06
2.03957e-06
3.6048e-06
3.25617e-06
2.32907e-06
3.43797e-06
8.47288e-07
2.74433e-06
-4.41646e-07
1.46156e-06
-1.34354e-06
-1.43205e-07
-1.80819e-06
-1.84621e-06
-1.85843e-06
-3.43607e-06
-1.54151e-06
-4.73121e-06
-9.36855e-07
-5.60968e-06
-1.50162e-07
-6.02859e-06
7.1259e-07
-6.00526e-06
1.55394e-06
-5.5948e-06
2.29342e-06
-4.87607e-06
2.87678e-06
-3.95382e-06
3.29796e-06
-2.93775e-06
3.5613e-06
-1.90684e-06
3.65315e-06
3.57036e-06
-9.09807e-07
-5.47258e-08
2.28541e-07
-7.31251e-08
5.22345e-07
1.65437e-07
9.83444e-07
4.86967e-07
1.3148e-06
8.41627e-07
1.0585e-06
1.08394e-06
2.53997e-07
8.61022e-07
-1.14235e-06
-2.05409e-07
-2.63458e-06
-1.75809e-06
-2.84466e-06
-2.57787e-06
-1.02346e-06
-1.91631e-06
1.67774e-06
-2.45388e-07
3.42322e-06
1.36144e-06
3.35819e-06
2.02425e-06
1.8455e-06
1.44071e-06
-1.15501e-07
-9.23701e-08
-1.5419e-06
-1.84683e-06
-1.87082e-06
-3.06629e-06
-1.12326e-06
-3.3625e-06
2.2036e-07
-2.75969e-06
1.57188e-06
-1.54565e-06
2.49226e-06
-1.43045e-07
2.77419e-06
1.01776e-06
2.44401e-06
1.63965e-06
1.70719e-06
1.6462e-06
8.40754e-07
1.13299e-06
7.15706e-08
2.62253e-07
-4.72798e-07
-7.97312e-07
-7.48617e-07
-1.88703e-06
-7.68694e-07
-2.87142e-06
-5.57124e-07
-3.64421e-06
-1.64045e-07
-4.14002e-06
3.45654e-07
-4.34899e-06
9.21568e-07
-4.29281e-06
1.49778e-06
-4.00716e-06
2.00778e-06
-3.53915e-06
2.40879e-06
-2.95176e-06
2.71058e-06
-2.30382e-06
2.91337e-06
-1.63654e-06
2.98588e-06
2.91886e-06
-9.8503e-07
-2.6426e-08
2.54964e-07
8.06154e-10
4.95111e-07
1.99343e-07
7.84907e-07
4.64893e-07
1.04925e-06
7.07853e-07
8.15544e-07
8.00599e-07
1.61253e-07
5.22655e-07
-8.64405e-07
-2.5524e-07
-1.85668e-06
-1.23566e-06
-1.86423e-06
-1.70902e-06
-5.50096e-07
-1.29833e-06
1.26705e-06
-3.15539e-07
2.44043e-06
5.99783e-07
2.44287e-06
9.36677e-07
1.50861e-06
5.45049e-07
2.76135e-07
-3.65006e-07
-6.31833e-07
-1.36753e-06
-8.6829e-07
-2.0487e-06
-4.42075e-07
-2.19602e-06
3.67688e-07
-1.8283e-06
1.20418e-06
-1.12529e-06
1.78927e-06
-3.41551e-07
1.99046e-06
2.79964e-07
1.8225e-06
5.81587e-07
1.40557e-06
5.22351e-07
8.99999e-07
1.50266e-07
4.43666e-07
-4.44005e-07
1.21482e-07
-1.15369e-06
-3.89255e-08
-1.85762e-06
-6.47511e-08
-2.48115e-06
6.64155e-08
-2.97304e-06
3.27857e-07
-3.29863e-06
6.71252e-07
-3.44744e-06
1.07039e-06
-3.43438e-06
1.48472e-06
-3.2905e-06
1.86392e-06
-3.03674e-06
2.15503e-06
-2.64962e-06
2.32347e-06
-2.12751e-06
2.39127e-06
-1.52923e-06
2.38761e-06
2.32051e-06
-9.30874e-07
2.30882e-08
2.31876e-07
5.90929e-08
4.5911e-07
1.93957e-07
6.50047e-07
4.30032e-07
8.13181e-07
5.92397e-07
6.53184e-07
5.8903e-07
1.64626e-07
2.95e-07
-5.70368e-07
-2.71919e-07
-1.28976e-06
-8.96954e-07
-1.23919e-06
-1.1815e-06
-2.65538e-07
-9.41838e-07
1.02739e-06
-3.76355e-07
1.87495e-06
1.40322e-07
1.9262e-06
3.16382e-07
1.33256e-06
7.58967e-08
5.16631e-07
-4.51068e-07
-1.04856e-07
-1.02374e-06
-2.95608e-07
-1.41542e-06
-5.0377e-08
-1.50877e-06
4.6105e-07
-1.31514e-06
1.01056e-06
-9.39275e-07
1.41341e-06
-5.26842e-07
1.57804e-06
-2.12916e-07
1.50858e-06
-8.39102e-08
1.27658e-06
-1.64195e-07
9.80293e-07
-4.29692e-07
7.09173e-07
-8.31853e-07
5.23653e-07
-1.31092e-06
4.40147e-07
-1.79904e-06
4.23387e-07
-2.24993e-06
5.17309e-07
-2.63885e-06
7.16794e-07
-2.92822e-06
9.60632e-07
-3.06172e-06
1.2039e-06
-3.01622e-06
1.43923e-06
-2.8064e-06
1.65411e-06
-2.47671e-06
1.82535e-06
-2.07508e-06
1.92186e-06
-1.62638e-06
1.94258e-06
-1.14828e-06
1.90951e-06
1.8423e-06
-6.70057e-07
4.5188e-08
1.86693e-07
9.19425e-08
4.12362e-07
1.941e-07
5.47898e-07
3.58453e-07
6.48835e-07
4.69431e-07
5.42214e-07
4.37199e-07
1.96867e-07
1.64446e-07
-2.97604e-07
-2.93646e-07
-8.31653e-07
-7.46159e-07
-7.86669e-07
-9.38772e-07
-7.29151e-08
-7.72889e-07
8.6152e-07
-3.8999e-07
1.49206e-06
-4.03771e-08
1.5766e-06
8.17418e-08
1.21045e-06
-7.48353e-08
6.7322e-07
-4.25418e-07
2.45739e-07
-8.14369e-07
9.33554e-08
-1.09528e-06
2.30545e-07
-1.18915e-06
5.54936e-07
-1.09886e-06
9.20278e-07
-8.89327e-07
1.20389e-06
-6.53434e-07
1.34215e-06
-4.77926e-07
1.33308e-06
-4.18984e-07
1.21765e-06
-4.92881e-07
1.0542e-06
-6.81285e-07
8.97587e-07
-9.47865e-07
7.90242e-07
-1.27987e-06
7.72166e-07
-1.68701e-06
8.30532e-07
-2.08245e-06
9.12765e-07
-2.38882e-06
1.02317e-06
-2.57878e-06
1.1506e-06
-2.64229e-06
1.26742e-06
-2.57117e-06
1.36812e-06
-2.36948e-06
1.45243e-06
-2.06105e-06
1.51693e-06
-1.69498e-06
1.55581e-06
-1.31777e-06
1.56537e-06
-9.56435e-07
1.54819e-06
1.51099e-06
-6.25115e-07
3.97566e-08
1.46946e-07
1.01449e-07
3.50681e-07
1.89594e-07
4.59766e-07
3.19771e-07
5.1867e-07
4.3274e-07
4.29258e-07
4.27203e-07
2.02417e-07
1.74761e-07
-4.51496e-08
-4.07101e-07
-2.49778e-07
-9.78358e-07
-2.15399e-07
-1.17627e-06
1.25004e-07
-9.10507e-07
5.95773e-07
-3.80737e-07
9.62302e-07
9.17018e-08
1.10417e-06
2.60784e-07
1.04138e-06
6.24636e-08
8.71552e-07
-3.93597e-07
7.01812e-07
-9.07203e-07
6.06973e-07
-1.28964e-06
6.12991e-07
-1.43684e-06
7.0215e-07
-1.35019e-06
8.33639e-07
-1.11229e-06
9.65995e-07
-8.40786e-07
1.07066e-06
-6.42959e-07
1.13527e-06
-5.86336e-07
1.16103e-06
-6.90303e-07
1.15817e-06
-9.34017e-07
1.14131e-06
-1.27117e-06
1.1274e-06
-1.63424e-06
1.13525e-06
-1.98162e-06
1.17793e-06
-2.28131e-06
1.21247e-06
-2.49577e-06
1.23764e-06
-2.6024e-06
1.25724e-06
-2.60648e-06
1.27151e-06
-2.51901e-06
1.28067e-06
-2.35283e-06
1.28626e-06
-2.12607e-06
1.29017e-06
-1.86391e-06
1.29366e-06
-1.59514e-06
1.2966e-06
-1.34449e-06
1.29755e-06
1.29586e-06
-1.12936e-06
3.16119e-08
1.15348e-07
9.02063e-08
2.92102e-07
1.5985e-07
3.90138e-07
2.572e-07
4.21336e-07
3.20679e-07
3.65794e-07
2.68182e-07
2.54931e-07
2.63556e-08
1.96692e-07
-4.73966e-07
2.50558e-07
-9.50817e-07
2.61465e-07
-1.10681e-06
2.81006e-07
-8.66217e-07
3.55194e-07
-3.98322e-07
4.94417e-07
2.559e-08
6.80271e-07
1.94591e-07
8.72393e-07
4.38857e-08
1.02227e-06
-3.49606e-07
1.09531e-06
-8.2954e-07
1.08692e-06
-1.23845e-06
1.02192e-06
-1.47712e-06
9.40829e-07
-1.5262e-06
8.82729e-07
-1.43257e-06
8.72371e-07
-1.27685e-06
9.14945e-07
-1.14015e-06
9.98578e-07
-1.08125e-06
1.10214e-06
-1.12719e-06
1.20413e-06
-1.27462e-06
1.28874e-06
-1.49536e-06
1.34815e-06
-1.74257e-06
1.38247e-06
-1.9613e-06
1.39667e-06
-2.14076e-06
1.39194e-06
-2.27497e-06
1.37186e-06
-2.36037e-06
1.34265e-06
-2.39973e-06
1.31088e-06
-2.40044e-06
1.28138e-06
-2.37162e-06
1.25746e-06
-2.32271e-06
1.24127e-06
-2.263e-06
1.23395e-06
-2.20187e-06
1.23548e-06
-2.14922e-06
1.2449e-06
1.26062e-06
-2.11397e-06
2.41779e-08
9.11859e-08
7.4107e-08
2.4219e-07
1.28146e-07
3.36116e-07
1.73195e-07
3.76303e-07
1.66967e-07
3.72039e-07
7.06583e-08
3.51254e-07
-1.00069e-07
3.67433e-07
-2.94176e-07
4.44678e-07
-4.81977e-07
4.49278e-07
-6.02305e-07
4.01345e-07
-6.22925e-07
3.75824e-07
-5.61347e-07
4.3285e-07
-4.66975e-07
5.85908e-07
-3.9449e-07
7.99917e-07
-3.85782e-07
1.01357e-06
-4.61035e-07
1.17058e-06
-6.16557e-07
1.24245e-06
-8.28757e-07
1.23413e-06
-1.06276e-06
1.17484e-06
-1.28258e-06
1.10256e-06
-1.46e-06
1.04981e-06
-1.58031e-06
1.03526e-06
-1.64383e-06
1.06211e-06
-1.66314e-06
1.12146e-06
-1.65731e-06
1.1983e-06
-1.64563e-06
1.27708e-06
-1.64304e-06
1.34557e-06
-1.65722e-06
1.39665e-06
-1.68894e-06
1.4284e-06
-1.73986e-06
1.44287e-06
-1.81156e-06
1.44357e-06
-1.90357e-06
1.43466e-06
-2.01304e-06
1.42035e-06
-2.13597e-06
1.40431e-06
-2.26792e-06
1.38942e-06
-2.40435e-06
1.37771e-06
-2.54077e-06
1.37037e-06
-2.67315e-06
1.36786e-06
-2.79838e-06
1.37012e-06
1.37644e-06
-2.9142e-06
2.01428e-08
7.10575e-08
6.38052e-08
1.98543e-07
1.08509e-07
2.91427e-07
1.33984e-07
3.50841e-07
1.19494e-07
3.86541e-07
5.78058e-08
4.12954e-07
-2.12448e-08
4.46494e-07
-7.42082e-08
4.9765e-07
-1.57739e-07
5.32818e-07
-3.0303e-07
5.46643e-07
-4.92375e-07
5.65176e-07
-6.73603e-07
6.14084e-07
-7.89885e-07
7.02197e-07
-8.11169e-07
8.21209e-07
-7.49021e-07
9.5143e-07
-6.49123e-07
1.07069e-06
-5.69067e-07
1.1624e-06
-5.54685e-07
1.21975e-06
-6.25304e-07
1.24547e-06
-7.7154e-07
1.2488e-06
-9.63227e-07
1.2415e-06
-1.16225e-06
1.2343e-06
-1.3348e-06
1.23466e-06
-1.45935e-06
1.24602e-06
-1.52919e-06
1.26815e-06
-1.55042e-06
1.29832e-06
-1.53757e-06
1.33273e-06
-1.50852e-06
1.36761e-06
-1.48015e-06
1.40003e-06
-1.46551e-06
1.42824e-06
-1.4733e-06
1.45136e-06
-1.50784e-06
1.46921e-06
-1.56952e-06
1.48203e-06
-1.65555e-06
1.49034e-06
-1.7609e-06
1.49477e-06
-1.87922e-06
1.49602e-06
-2.00357e-06
1.49472e-06
-2.12715e-06
1.49144e-06
-2.24371e-06
1.48668e-06
1.48066e-06
-2.34793e-06
1.7096e-08
5.39714e-08
5.71204e-08
1.58528e-07
1.0019e-07
2.48366e-07
1.27951e-07
3.23088e-07
1.28618e-07
3.85882e-07
1.00667e-07
4.40912e-07
5.46452e-08
4.92523e-07
8.18039e-09
5.44121e-07
-5.65538e-08
5.97557e-07
-1.59902e-07
6.49996e-07
-2.95841e-07
7.01122e-07
-4.35156e-07
7.53405e-07
-5.4212e-07
8.09167e-07
-5.90133e-07
8.69229e-07
-5.71486e-07
9.32789e-07
-4.98614e-07
9.97823e-07
-3.97788e-07
1.06158e-06
-2.99212e-07
1.12118e-06
-2.28167e-07
1.17443e-06
-1.98844e-07
1.21949e-06
-2.13395e-07
1.25606e-06
-2.63911e-07
1.28482e-06
-3.36383e-07
1.30714e-06
-4.151e-07
1.32475e-06
-4.8626e-07
1.33931e-06
-5.40156e-07
1.35223e-06
-5.71884e-07
1.36447e-06
-5.80859e-07
1.37658e-06
-5.69592e-07
1.38877e-06
-5.42296e-07
1.40094e-06
-5.03766e-07
1.41283e-06
-4.58608e-07
1.42406e-06
-4.10744e-07
1.43417e-06
-3.63133e-07
1.44273e-06
-3.17672e-07
1.44931e-06
-2.75241e-07
1.45359e-06
-2.35843e-07
1.45532e-06
-1.98803e-07
1.4544e-06
-1.62972e-07
1.45085e-06
1.44468e-06
-1.26985e-07
2.27813e-08
3.11927e-08
8.24893e-08
9.88224e-08
1.54673e-07
1.76185e-07
2.14335e-07
2.6343e-07
2.47073e-07
3.53147e-07
2.52618e-07
4.3537e-07
2.40084e-07
5.05061e-07
2.18074e-07
5.66135e-07
1.86633e-07
6.29003e-07
1.48347e-07
6.88288e-07
1.18183e-07
7.31291e-07
1.15564e-07
7.5603e-07
1.52666e-07
7.72072e-07
2.28887e-07
7.93015e-07
3.33185e-07
8.28499e-07
4.51006e-07
8.8001e-07
5.71042e-07
9.41556e-07
6.96097e-07
9.96138e-07
8.10826e-07
1.05971e-06
9.28668e-07
1.10166e-06
1.05287e-06
1.13186e-06
1.1849e-06
1.1528e-06
1.32322e-06
1.16883e-06
1.46402e-06
1.18396e-06
1.60264e-06
1.2007e-06
1.7351e-06
1.21977e-06
1.85926e-06
1.24032e-06
1.97525e-06
1.2606e-06
2.08541e-06
1.27862e-06
2.19364e-06
1.29272e-06
2.30465e-06
1.30184e-06
2.42307e-06
1.30564e-06
2.55284e-06
1.30441e-06
2.69668e-06
1.29889e-06
2.85594e-06
1.29006e-06
3.03054e-06
1.27899e-06
3.21918e-06
1.26668e-06
3.41961e-06
1.25398e-06
3.62895e-06
1.24151e-06
1.22963e-06
3.844e-06
1.87907e-08
1.24004e-08
7.16645e-08
4.59467e-08
1.3738e-07
1.10468e-07
1.89113e-07
2.11696e-07
2.10658e-07
3.31604e-07
2.05993e-07
4.40037e-07
1.94898e-07
5.16161e-07
1.95306e-07
5.65732e-07
1.84241e-07
6.40074e-07
1.5954e-07
7.12996e-07
1.48201e-07
7.42639e-07
1.8466e-07
7.1958e-07
2.85291e-07
6.71451e-07
4.37386e-07
6.4093e-07
6.05853e-07
6.60043e-07
7.5121e-07
7.34665e-07
8.47703e-07
8.45074e-07
8.85049e-07
9.58805e-07
8.97662e-07
1.04711e-06
9.06194e-07
1.09314e-06
9.40681e-07
1.09739e-06
1.02057e-06
1.07292e-06
1.15093e-06
1.03848e-06
1.32324e-06
1.01166e-06
1.51983e-06
1.00413e-06
1.71976e-06
1.01985e-06
1.90423e-06
1.05586e-06
2.06021e-06
1.10463e-06
2.18203e-06
1.1568e-06
2.27119e-06
1.20356e-06
2.33479e-06
1.23825e-06
2.38332e-06
1.25712e-06
2.42837e-06
1.25937e-06
2.48068e-06
1.24658e-06
2.54875e-06
1.22199e-06
2.63813e-06
1.18962e-06
2.75125e-06
1.15356e-06
2.88775e-06
1.11748e-06
3.04501e-06
1.08426e-06
1.05581e-06
3.21883e-06
2.31771e-08
-1.07808e-08
9.93604e-08
-3.02412e-08
1.97907e-07
1.19174e-08
2.66411e-07
1.4319e-07
2.6559e-07
3.32424e-07
1.98906e-07
5.06723e-07
1.20105e-07
5.94965e-07
9.7947e-08
5.87895e-07
1.26236e-07
6.11792e-07
1.87088e-07
6.52153e-07
2.66585e-07
6.63152e-07
3.58354e-07
6.27821e-07
4.6325e-07
5.66567e-07
5.8285e-07
5.21342e-07
7.13266e-07
5.29639e-07
8.44005e-07
6.03939e-07
9.61648e-07
7.27444e-07
1.05588e-06
8.64591e-07
1.12552e-06
9.77477e-07
1.17845e-06
1.04022e-06
1.22956e-06
1.04629e-06
1.29476e-06
1.00774e-06
1.38549e-06
9.47764e-07
1.50599e-06
8.9118e-07
1.65334e-06
8.56793e-07
1.8194e-06
8.53799e-07
1.99342e-06
8.81858e-07
2.16462e-06
9.33443e-07
2.3244e-06
9.9704e-07
2.46771e-06
1.06027e-06
2.59353e-06
1.11243e-06
2.70446e-06
1.14621e-06
2.80548e-06
1.15835e-06
2.90263e-06
1.14945e-06
3.00163e-06
1.123e-06
3.10708e-06
1.08418e-06
3.22199e-06
1.03867e-06
3.34773e-06
9.91753e-07
3.48425e-06
9.47744e-07
9.09705e-07
3.63036e-06
2.49772e-08
-3.57649e-08
1.34255e-07
-1.39526e-07
2.91118e-07
-1.44953e-07
4.01777e-07
3.25259e-08
3.77516e-07
3.56683e-07
2.00727e-07
6.83512e-07
-4.39079e-08
8.39602e-07
-2.1301e-07
7.57001e-07
-1.32573e-07
5.31361e-07
1.91657e-07
3.27932e-07
5.89048e-07
2.65771e-07
8.6096e-07
3.5592e-07
9.03659e-07
5.23881e-07
7.54129e-07
6.70885e-07
5.54887e-07
7.28896e-07
4.67741e-07
6.911e-07
5.87468e-07
6.07733e-07
9.03176e-07
5.48898e-07
1.31919e-06
5.61476e-07
1.70964e-06
6.49793e-07
1.97155e-06
7.84397e-07
2.0561e-06
9.23201e-07
1.97431e-06
1.02957e-06
1.78357e-06
1.08194e-06
1.56437e-06
1.07601e-06
1.39609e-06
1.0221e-06
1.33815e-06
9.39807e-07
1.42019e-06
8.5142e-07
1.64118e-06
7.76068e-07
1.97526e-06
7.26201e-07
2.38112e-06
7.06586e-07
2.81211e-06
7.15225e-07
3.22501e-06
7.45471e-07
3.5859e-06
7.8857e-07
3.87306e-06
8.35847e-07
4.07712e-06
8.80126e-07
4.19947e-06
9.16327e-07
4.24974e-06
9.41487e-07
4.24303e-06
9.54468e-07
9.55823e-07
4.19691e-06
1.41698e-08
-4.99435e-08
1.56834e-07
-2.82199e-07
4.00765e-07
-3.88891e-07
6.10643e-07
-1.77358e-07
6.21949e-07
3.45373e-07
3.57505e-07
9.47955e-07
-9.24551e-08
1.28956e-06
-4.68782e-07
1.13333e-06
-4.03362e-07
4.65946e-07
1.2262e-07
-1.98043e-07
7.87404e-07
-3.99004e-07
1.21548e-06
-7.21422e-08
1.20682e-06
5.32547e-07
8.25388e-07
1.05233e-06
3.44783e-07
1.20952e-06
8.51302e-08
9.50768e-07
2.34624e-07
4.58254e-07
7.69429e-07
1.41093e-08
1.49941e-06
-1.68489e-07
2.17634e-06
-2.71242e-08
2.59556e-06
3.65196e-07
2.65834e-06
8.60437e-07
2.38775e-06
1.30018e-06
1.90266e-06
1.56705e-06
1.36635e-06
1.61233e-06
9.33645e-07
1.45482e-06
7.14356e-07
1.15911e-06
7.59222e-07
8.0657e-07
1.06309e-06
4.72215e-07
1.5764e-06
2.12903e-07
2.22091e-06
6.20968e-08
2.90731e-06
2.88344e-08
3.55193e-06
1.00865e-07
4.08928e-06
2.5123e-07
4.47881e-06
4.46325e-07
4.70575e-06
6.532e-07
4.77749e-06
8.44597e-07
4.71763e-06
1.00135e-06
4.55943e-06
1.11268e-06
1.17496e-06
4.34029e-06
-1.77709e-08
-3.21805e-08
1.34504e-07
-4.34481e-07
4.60888e-07
-7.1528e-07
8.24782e-07
-5.41257e-07
9.61033e-07
2.09119e-07
6.36897e-07
1.27209e-06
-4.73417e-08
1.9738e-06
-5.92893e-07
1.67889e-06
-5.72845e-07
4.45902e-07
-1.19549e-08
-7.58927e-07
7.15243e-07
-1.12619e-06
1.19376e-06
-5.50654e-07
1.20256e-06
5.23768e-07
7.92473e-07
1.46243e-06
2.44026e-07
1.75798e-06
-7.18285e-08
1.26664e-06
9.04487e-08
2.95993e-07
7.13683e-07
-6.09109e-07
1.56644e-06
-1.02123e-06
2.34579e-06
-8.0646e-07
2.80189e-06
-9.08885e-08
2.81269e-06
8.4966e-07
2.40921e-06
1.70367e-06
1.75066e-06
2.22561e-06
1.05876e-06
2.30425e-06
5.37359e-07
1.97623e-06
3.11312e-07
1.38517e-06
4.14991e-07
7.02906e-07
8.18725e-07
6.84945e-08
1.45218e-06
-4.20542e-07
2.22072e-06
-7.06423e-07
3.02088e-06
-7.71316e-07
3.75657e-06
-6.34813e-07
4.35317e-06
-3.45357e-07
4.76604e-06
3.34625e-08
4.98163e-06
4.37626e-07
5.01223e-06
8.14007e-07
4.88775e-06
1.12583e-06
4.64757e-06
1.35287e-06
1.48891e-06
4.33363e-06
-5.18065e-08
1.96224e-08
6.45485e-08
-5.50838e-07
4.0322e-07
-1.05395e-06
9.70099e-07
-1.10814e-06
1.40733e-06
-2.28108e-07
1.0717e-06
1.60772e-06
-1.73669e-07
3.21917e-06
-1.39664e-06
2.90185e-06
-1.4961e-06
5.45375e-07
-3.85776e-07
-1.86925e-06
1.13078e-06
-2.64274e-06
2.13114e-06
-1.55101e-06
2.09633e-06
5.58596e-07
1.08582e-06
2.47295e-06
-3.36256e-07
3.18006e-06
-1.34525e-06
2.27565e-06
-1.3232e-06
2.73962e-07
-2.19322e-07
-1.71297e-06
1.52718e-06
-2.76772e-06
3.2635e-06
-2.54276e-06
4.37776e-06
-1.20513e-06
4.50649e-06
7.20951e-07
3.64482e-06
2.56535e-06
2.09396e-06
3.77649e-06
3.3354e-07
4.06469e-06
-1.12643e-06
3.43622e-06
-1.92742e-06
2.18618e-06
-1.95071e-06
7.26206e-07
-1.25343e-06
-6.28769e-07
1.56946e-09
-1.67553e-06
1.59228e-06
-2.29712e-06
3.26996e-06
-2.44898e-06
4.79216e-06
-2.157e-06
5.96144e-06
-1.51462e-06
6.65819e-06
-6.63281e-07
6.85437e-06
2.41461e-07
6.60251e-06
1.06588e-06
6.00793e-06
1.72042e-06
5.19716e-06
2.16365e-06
2.39195e-06
4.29412e-06
-1.00234e-07
1.19859e-07
-2.35315e-08
-6.27534e-07
1.69731e-07
-1.24721e-06
9.9043e-07
-1.92883e-06
2.14469e-06
-1.38236e-06
2.0548e-06
1.69761e-06
-3.28628e-07
5.6026e-06
-3.28226e-06
5.8555e-06
-3.81043e-06
1.07355e-06
-1.39324e-06
-4.28643e-06
2.17339e-06
-6.20936e-06
4.80439e-06
-4.182e-06
5.02917e-06
3.33832e-07
2.50047e-06
5.00166e-06
-1.52493e-06
7.20548e-06
-4.65112e-06
5.40185e-06
-5.15538e-06
7.78241e-07
-2.96443e-06
-3.90391e-06
9.47189e-07
-6.67932e-06
5.18395e-06
-6.77951e-06
8.22066e-06
-4.24182e-06
8.89818e-06
4.34447e-08
7.07943e-06
4.38412e-06
3.63193e-06
7.22401e-06
-2.37542e-07
7.93418e-06
-3.52026e-06
6.71895e-06
-5.64208e-06
4.30802e-06
-6.41439e-06
1.49854e-06
-5.86794e-06
-1.17521e-06
-4.15136e-06
-3.39209e-06
-1.50481e-06
-4.94365e-06
1.71267e-06
-5.66645e-06
5.03614e-06
-5.48045e-06
7.99169e-06
-4.47017e-06
1.02122e-05
-2.88374e-06
1.14986e-05
-1.04493e-06
1.18143e-05
7.50165e-07
1.12501e-05
2.28465e-06
9.98274e-06
3.43098e-06
4.13461e-06
8.24008e-06
-6.97612e-08
1.89629e-07
-7.61808e-08
-6.211e-07
-2.94138e-07
-1.02923e-06
8.69988e-07
-3.09294e-06
3.47603e-06
-3.98839e-06
4.31429e-06
8.59367e-07
-1.37813e-08
9.93069e-06
-6.83276e-06
1.26745e-05
-8.84355e-06
3.08435e-06
-4.19965e-06
-8.93032e-06
3.30969e-06
-1.37187e-05
9.95456e-06
-1.08269e-05
1.2734e-05
-2.44555e-06
8.61064e-06
9.12499e-06
-1.82768e-06
1.76438e-05
-1.20132e-05
1.55873e-05
-1.58398e-05
4.6049e-06
-1.2265e-05
-7.47871e-06
-3.5192e-06
-1.54251e-05
7.46374e-06
-1.77624e-05
1.73452e-05
-1.41233e-05
2.2329e-05
-4.94031e-06
1.95804e-05
7.13271e-06
9.90541e-06
1.6899e-05
-2.03478e-06
1.98744e-05
-1.13468e-05
1.6031e-05
-1.60953e-05
9.05654e-06
-1.69305e-05
2.33377e-06
-1.50096e-05
-3.09614e-06
-1.09574e-05
-7.44427e-06
-4.99897e-06
-1.09021e-05
2.35636e-06
-1.30218e-05
9.86623e-06
-1.29903e-05
1.59162e-05
-1.05202e-05
1.93299e-05
-6.29738e-06
1.98525e-05
-1.56757e-06
1.79916e-05
2.61111e-06
1.45814e-05
5.69492e-06
1.0447e-05
7.56531e-06
8.35071e-06
6.23095e-06
4.05894e-07
-2.1625e-07
-3.13587e-07
9.84046e-08
-1.25535e-06
-8.74428e-08
1.17579e-06
-5.52405e-06
6.44484e-06
-9.25742e-06
8.04109e-06
-7.36855e-07
9.55708e-08
1.78762e-05
-1.26648e-05
2.54349e-05
-1.68943e-05
7.31384e-06
-8.58778e-06
-1.72368e-05
5.05258e-06
-2.7359e-05
1.65071e-05
-2.22814e-05
2.26894e-05
-8.62778e-06
2.03825e-05
1.14319e-05
5.08367e-06
3.29427e-05
-1.66862e-05
3.73573e-05
-3.12701e-05
1.91888e-05
-3.23442e-05
-6.40456e-06
-2.10947e-05
-2.66746e-05
-2.49345e-06
-3.63636e-05
1.7485e-05
-3.41017e-05
3.53049e-05
-2.27602e-05
4.68903e-05
-4.45258e-06
4.46873e-05
1.9102e-05
2.70605e-05
3.75011e-05
2.5117e-06
4.05799e-05
-1.95745e-05
3.11428e-05
-3.49358e-05
1.7695e-05
-4.32391e-05
5.20721e-06
-4.51768e-05
-5.50653e-06
-4.09039e-05
-1.5175e-05
-3.04201e-05
-2.35055e-05
-1.46265e-05
-2.87839e-05
4.21555e-06
-2.93622e-05
2.29108e-05
-2.49926e-05
3.83984e-05
-1.70552e-05
4.8584e-05
-7.57441e-06
5.26755e-05
1.60344e-06
5.10544e-05
9.18637e-06
1.42153e-05
4.51898e-05
9.42451e-07
-1.15867e-06
-2.55268e-06
3.59358e-06
-4.75744e-06
2.11735e-06
3.76833e-06
-1.40498e-05
1.70342e-05
-2.25232e-05
1.57782e-05
5.19144e-07
-6.22088e-06
3.98753e-05
-2.85475e-05
4.77616e-05
-3.0875e-05
9.64128e-06
-1.20447e-05
-3.6067e-05
1.80454e-05
-5.74491e-05
4.41292e-05
-4.83651e-05
4.5255e-05
-9.75358e-06
1.63166e-05
4.03703e-05
-2.26638e-05
7.19231e-05
-4.61819e-05
6.08754e-05
-4.64655e-05
1.94723e-05
-3.19223e-05
-2.09477e-05
-8.22457e-06
-5.03723e-05
2.36484e-05
-6.82366e-05
5.41117e-05
-6.45649e-05
6.35702e-05
-3.22187e-05
4.25908e-05
1.65269e-05
4.07829e-06
5.76145e-05
-2.92602e-05
7.08397e-05
-4.29429e-05
5.42626e-05
-3.78597e-05
2.60597e-05
-2.41566e-05
3.99191e-06
-1.11234e-05
-7.82596e-06
-1.61109e-06
-1.50189e-05
7.0507e-06
-2.38367e-05
1.68719e-05
-3.33267e-05
2.57186e-05
-3.76306e-05
2.95229e-05
-3.31666e-05
2.62515e-05
-2.17212e-05
1.70474e-05
-7.85106e-06
4.8945e-06
4.57854e-06
-7.3517e-06
1.38497e-05
-1.73842e-05
1.92189e-05
2.07816e-05
-2.39505e-05
1.74877e-06
-2.9074e-06
-1.01125e-05
1.54549e-05
-1.42979e-05
6.30282e-06
4.87291e-06
-3.32206e-05
3.16561e-05
-4.93064e-05
3.59316e-05
-3.75626e-06
-1.83459e-06
7.76415e-05
-4.45765e-05
9.05035e-05
-4.96867e-05
1.47515e-05
-2.78737e-05
-5.788e-05
3.24322e-06
-8.8566e-05
3.9446e-05
-8.45678e-05
6.88699e-05
-3.91775e-05
6.1114e-05
4.81262e-05
5.38579e-06
0.000127651
-4.6023e-05
0.000112284
-5.42885e-05
2.77379e-05
-3.92515e-05
-3.59848e-05
-2.47503e-05
-6.48734e-05
-1.60162e-05
-7.69706e-05
1.98418e-06
-8.25653e-05
3.8229e-05
-6.84635e-05
6.68942e-05
-1.21384e-05
5.09268e-05
7.35819e-05
3.75531e-06
0.000118011
-3.20551e-05
9.00731e-05
-4.13867e-05
3.53912e-05
-3.02827e-05
-7.11202e-06
-1.28218e-05
-2.52868e-05
-5.98852e-07
-2.72418e-05
5.85552e-06
-3.02911e-05
1.34274e-05
-4.08985e-05
2.67543e-05
-5.09575e-05
4.23393e-05
-4.87515e-05
5.12829e-05
-3.06648e-05
4.79997e-05
-4.56786e-06
3.26077e-05
1.99705e-05
8.56956e-06
3.78878e-05
-1.73553e-05
4.51438e-05
4.19435e-05
-3.85171e-05
-2.9074e-06
1.25475e-05
1.88503e-05
-1.43702e-05
-6.36766e-05
-6.74329e-05
1.02087e-05
0.000100712
0.000115464
5.75837e-05
-3.09823e-05
-0.00011555
-0.000154728
-0.000106601
2.10499e-05
0.000133334
0.000161072
0.000125087
6.02138e-05
-1.67568e-05
-9.93221e-05
-0.000167786
-0.000179924
-0.000106342
1.16692e-05
0.000101742
0.000137134
0.000130022
0.000104735
7.74929e-05
4.72019e-05
6.30335e-06
-4.46541e-05
-9.34056e-05
-0.00012407
-0.000128638
-0.000108668
-7.07799e-05
-2.56361e-05
1.63074e-05
2.79016e-07
-2.79065e-07
6.00008e-07
-3.21043e-07