/*--------------------------------*- C++ -*----------------------------------*\
| =========                 |                                                 |
| \\      /  F ield         | OpenFOAM: The Open Source CFD Toolbox           |
|  \\    /   O peration     | Version:  2112                                  |
|   \\  /    A nd           | Website:  www.openfoam.com                      |
|    \\/     M anipulation  |                                                 |
\*---------------------------------------------------------------------------*/
FoamFile
{
    version     2.0;
    format      ascii;
    arch        "LSB;label=32;scalar=64";
    class       volScalarField;
    location    "0.02";
    object      omega;
}
// * * * * * * * * * * * * * * * * * * * * * * * * * * * * * * * * * * * * * //

dimensions      [0 0 -1 0 0 0 0];

internalField   nonuniform List<scalar> 
12225
(
51471.3
71148.1
76822.8
77205.4
75735.7
73708.8
71603.8
69591.2
67717.1
65983.9
64381.5
62898.2
61523.2
60251.7
59072
58020.6
56813.3
55540.4
7146.5
14636.5
20580.7
24968.1
28177.5
30562.1
32351.1
33645
34452.5
34710.3
34338.1
33343.8
31912
30343.2
28905.3
27778.2
27056.5
26666.8
840.073
2399.45
4185.39
6071.15
7943.38
9700.32
11392.3
13022.2
14567.3
15975.3
17174.6
18103
18736.9
19095
19216.1
19145.3
18930.8
18590
227.679
538.908
905.435
1317.95
1792.37
2413.34
3099.9
3831.08
4610.7
5434.89
6260.01
7108.5
7970.22
8822.75
9641.87
10406.6
11093.9
11682
109.612
203.932
312.556
432.279
567.11
735.018
921.326
1120.85
1334.31
1569.25
1882.37
2239.57
2627.61
3048.77
3506.42
3983.07
4499.57
5060.74
70.2091
111.229
156.186
204.374
256.108
313.765
376.195
442.472
512.447
587.952
682.677
788.772
902.815
1025.31
1159.77
1338.77
1552.25
1790.28
53.256
75.5663
98.2334
122.166
147.203
173.671
201.424
230.257
260.091
291.182
325.194
362.034
401.363
443.158
488.25
545.523
611.839
683.525
45.7434
58.2677
71.6949
85.1556
99.1196
113.527
128.309
143.4
158.761
174.431
190.678
207.599
225.201
243.504
262.677
283.735
306.866
331.309
42.4221
49.067
57.4063
65.9833
74.4852
83.1611
91.9534
100.838
109.788
118.801
127.925
137.199
146.646
156.287
166.174
176.469
187.244
198.174
40.9278
44.3507
49.1911
54.8093
60.5219
66.1803
71.7485
77.3809
83.0306
88.6766
94.3272
100.001
105.711
111.478
117.329
123.299
129.39
135.425
40.241
41.9826
44.6319
48.0096
51.8288
55.7466
59.6408
63.4457
67.2026
70.9312
74.6479
78.3802
82.1246
85.9202
89.7948
93.7533
97.7592
101.63
39.9465
40.8946
42.3932
44.399
46.8183
49.512
52.3643
55.178
57.9535
60.7014
63.4281
66.1395
68.8475
71.5536
74.2654
76.9874
79.7021
82.2837
39.788
40.3004
41.1187
42.2524
43.6797
45.3635
47.2534
49.2519
51.2929
53.3387
55.3692
57.3667
59.3384
61.2632
63.1283
64.9334
66.6781
68.3174
39.6921
39.9434
40.355
40.9258
41.6689
42.5812
43.6504
44.8458
46.1279
47.4586
48.8076
50.151
51.4722
52.754
53.9831
55.1537
56.2639
57.2937
39.6401
39.7442
39.9302
40.1887
40.5284
40.9564
41.4731
42.0718
42.7398
43.4603
44.2152
44.9867
45.7592
46.519
47.2558
47.9634
48.6371
49.2626
39.6152
39.6468
39.716
39.8203
39.9565
40.1305
40.3444
40.5976
40.8874
41.2089
41.5558
41.9208
42.2963
42.6755
43.0528
43.4238
43.7845
44.1256
39.6048
39.606
39.6235
39.6582
39.7068
39.7701
39.8491
39.9439
40.054
40.1784
40.3153
40.4628
40.6185
40.7802
40.9458
41.1135
41.2813
41.4444
39.6012
39.593
39.5942
39.6058
39.6262
39.6542
39.69
39.7334
39.7841
39.8418
39.9058
39.9757
40.0507
40.1301
40.2133
40.2995
40.3879
40.4767
39.6025
39.5991
39.6095
39.6345
39.6705
39.7156
39.7699
39.8333
39.9053
39.9854
40.0731
40.1679
40.269
40.3758
40.4874
40.6033
40.7224
40.8436
39.6161
39.6542
39.7357
39.8566
40.0009
40.1696
40.3639
40.5833
40.8269
41.0934
41.3808
41.6866
42.0078
42.3413
42.6838
43.0328
43.3855
43.7375
39.6643
39.8391
40.1349
40.5169
40.9578
41.4669
42.0426
42.6821
43.3816
44.1351
44.9326
45.7593
46.6032
47.4546
48.3063
49.1531
49.9902
50.8082
39.8257
40.4161
41.2988
42.3599
43.5907
44.9769
46.4985
48.1372
49.8754
51.691
53.5444
55.3709
57.1658
58.9268
60.6526
62.3418
63.9907
65.5825
40.3261
42.0377
44.3462
47.0561
50.0947
53.3525
56.745
60.2107
63.7049
67.1912
70.6306
73.9857
77.2791
80.5157
83.6971
86.8215
89.8809
92.8425
41.7994
46.2864
51.7782
57.9642
64.56
71.3618
78.2214
85.0345
91.7318
98.2825
104.73
111.197
117.666
124.118
130.54
136.918
143.235
149.433
46.2472
57.3161
70.046
83.8272
98.2486
113.048
128.035
143.067
158.048
172.978
188.159
203.701
219.543
235.606
251.832
268.177
284.6
300.989
59.7244
88.0739
121.119
157.279
195.521
235.223
275.908
317.197
358.83
401.267
448.873
500.683
554.639
610.003
666.583
724.352
783.296
843.22
106.148
196.602
312.65
444.653
586.704
736.07
890.54
1048.27
1207.98
1372.55
1572.47
1799.85
2040.35
2290.3
2549.41
2817.76
3094.78
3378.19
350.866
807.74
1442.11
2167.81
2930.1
3704.4
4474.29
5229.85
5966.89
6683.63
7365.07
8027.2
8684.02
9335.44
9974.81
10592.3
11176.8
11716.2
3375.42
7373.09
10897
13811.6
16167.1
18063.8
19609
20892.6
21980.2
22916
23728
24427.2
25019.5
25501.4
25865.2
26100.2
26195.1
26141.5
34132.4
50544.2
57202
59367.8
59591.7
58998.3
58074.2
57037.3
55991.3
54986.3
54044
53171
52363.3
51613.2
50912.7
50255.7
49634.8
49048.9
491.195
496.772
508.311
526.122
550.562
581.855
619.92
664.199
713.548
766.311
820.629
874.893
928.116
980.138
1031.44
1082.85
1135.22
1189.08
1244.66
1302.04
1360.69
1419.64
1477.72
1533.73
1587.03
1639.04
1693.84
1757.65
1840.6
1958.14
2131.42
2384.73
2750.96
3281.81
3926.25
4654.66
5475.84
6384.91
7371.31
8420.07
9512.07
10624.9
11734.3
12815.4
13841.9
14789.2
15644.9
16402.1
17054.8
17600.9
18045.6
18397.1
18660.8
18840.4
18939.9
18963.4
18914.9
18797.7
18615
18368.5
18058.9
17710.2
17334.3
16930.5
16499
16040.9
15556.9
15047.9
14514.7
13958.1
13379.1
12778.8
12158.6
11520.1
10864.4
10190.5
9494.78
8776.83
8047.36
7316.42
6593
5887.07
5209.26
4566.25
3968.67
3428.95
2958.74
2568.6
2267.74
2063.3
1958.92
1954.44
2051.41
2227.04
2468.76
2768.07
3117
3502.86
3914.31
4341.09
4773.89
5204.18
5624.53
6029.1
6413.59
6774.15
7108.07
7414.52
7692.87
7942.29
8162.26
8353.04
8515.69
8652.1
8764.87
8856.86
8930.61
8988.47
9033.7
9069.06
9096.88
9119.15
9137.58
9153.59
9168.15
9182.12
9196.03
9210.12
9224.86
9240.53
9257.18
9274.72
9293
9311.77
9330.82
9349.89
9368.76
9387.28
9405.32
9422.85
9440.03
9457.19
9474.86
9493.5
9513.37
9535.06
9559.16
9586.2
9616.66
9650.88
9689.07
9731.34
9777.65
9827.85
9881.65
9938.7
9998.53
10060.6
10124.2
10188.6
10253
10316.7
10378.6
10438
10493.9
10545.2
10589.8
10626.9
10656.4
10678
10691.1
10694.9
10688.6
10670.8
10639.9
10593.2
10527.7
10434.1
10318.2
10108.6
497.365
502.307
512.857
529.339
552.12
581.427
617.184
658.867
705.462
755.57
807.706
860.638
913.778
967.136
1021.16
1076.4
1133.29
1191.9
1252.12
1313.75
1376.71
1441.31
1508.61
1580.98
1664.67
1771.6
1903.81
2067.95
2275.71
2546.96
2910.88
3335.62
3829.94
4384.45
4971.1
5566
6149.9
6704.36
7213.44
7664.66
8049.36
8362.74
8603.67
8774.21
8879.67
8930.39
8938.79
8920.36
8891.69
8864.25
8818.31
8719.79
8559.05
8344.13
8087.26
7801.84
7501.67
7197.25
6897.09
6608.53
6355.83
6120.43
5888.14
5656.96
5425.42
5192.27
4956.57
4717.69
4475.38
4229.82
3981.83
3733.09
3486.65
3247.7
3025.17
2834.03
2693.34
2600.86
2523.67
2448.64
2374.85
2302.25
2230.61
2163.12
2100.53
2042.18
1987.7
1937.15
1890.99
1850.02
1815.2
1788.31
1773.01
1768.82
1775.7
1793.09
1817.96
1849.79
1887.9
1932.4
1984.2
2042.31
2106.3
2176.73
2257.98
2363.67
2505.44
2678.89
2871.34
3070.51
3266.85
3453.01
3622.42
3770.09
3894.86
3997.96
4081.28
4146.93
4196.05
4231.09
4254.73
4269.54
4277.65
4280.79
4280.43
4277.81
4274.22
4270.83
4268.08
4266.61
4266.83
4268.91
4272.84
4278.5
4285.66
4294.06
4303.4
4313.36
4323.68
4334.15
4344.65
4355.16
4365.66
4376.19
4386.89
4397.87
4409.33
4421.49
4434.56
4448.73
4464.15
4480.91
4499.06
4518.61
4539.5
4561.63
4584.89
4609.09
4634.04
4659.52
4685.25
4710.96
4736.38
4761.24
4785.31
4808.46
4831.16
4852.47
4871.82
4889.18
4904.52
4917.88
4929.29
4938.9
4946.98
4954.11
4961.85
4974
5006.65
5078.77
511.049
514.898
523.641
537.821
558.038
584.738
618.053
657.712
703.039
753.091
806.926
863.919
924.027
987.633
1055.13
1127.24
1204.04
1285.31
1370.89
1460.66
1555
1655.67
1766.89
1898.23
2060.62
2245.07
2456.08
2704.62
2997.14
3336.16
3716.81
4122.53
4535.53
4934.24
5297.53
5609.8
5861.1
6046.24
6163.98
6216.14
6206.64
6140.69
6024.39
5864.44
5668.39
5444.76
5202.79
4944.58
4671.59
4387.83
4096.83
3805.38
3526.58
3275.68
3064.79
2895.54
2761.65
2659.84
2587.53
2543.44
2507.51
2473.72
2440.8
2408.17
2375.39
2341.94
2307.77
2273.01
2237.92
2202.93
2168.64
2135.82
2105.39
2078.4
2055.97
2039.11
2028.15
2021.93
2017.8
2014.42
2011.08
2006.99
2001.32
1993.57
1982.85
1968.21
1948.89
1924.36
1894.16
1857.72
1814.35
1765.39
1718.77
1674.47
1633.12
1594.73
1558.83
1526.07
1496.99
1471.93
1450.28
1432.48
1419.06
1410.28
1406.99
1411.16
1424.57
1447.21
1477.68
1514.13
1555.12
1601.06
1657.26
1730.41
1819.98
1920.01
2024.1
2127.54
2227.26
2320.13
2403.87
2476.2
2537.75
2591.02
2638.1
2680.18
2717.85
2751.13
2780.4
2805.68
2827.03
2844.61
2858.68
2869.61
2877.69
2883.21
2886.49
2887.86
2887.7
2886.44
2884.58
2882.54
2880.67
2879.19
2878.18
2877.83
2878.24
2879.54
2881.79
2885.07
2889.38
2894.72
2901.05
2908.3
2916.38
2925.2
2934.64
2944.57
2954.87
2965.44
2976.14
2986.88
2997.58
3008.15
3018.58
3028.88
3039.24
3049.88
3060.36
3070.6
3080.63
3090.48
3100.29
3110.25
3120.78
3132.61
3147.28
3168.15
3205.42
3273.32
534.405
536.406
542.026
552.489
569.004
592.482
623.436
661.974
707.868
760.685
820.027
885.737
958.003
1037.25
1123.91
1218.17
1319.86
1428.65
1544.43
1667.8
1800.55
1946.05
2110.06
2286.89
2474.55
2681.6
2911.45
3164.84
3438.68
3725.33
4012.59
4285.12
4527.8
4727.5
4874.94
4965.4
4998.1
4975.14
4900.51
4779.36
4617.57
4421.69
4199.07
3957.97
3707.39
3456.61
3214.11
2985.55
2775.73
2588.99
2428.45
2295.97
2191.98
2115.14
2062.41
2029.2
2010.64
2003.08
2003.59
2008.2
2012.43
2015.43
2016.83
2016.34
2013.72
2009.14
2002.69
1994.61
1985.22
1974.94
1964.3
1953.88
1944.25
1935.97
1929.55
1925.33
1923.48
1923.97
1926.5
1930.57
1935.44
1940.14
1943.52
1944.39
1941.46
1933.55
1919.66
1899.06
1871.2
1835.58
1791.8
1745.31
1697.16
1647.76
1597.91
1548.05
1498.74
1450.82
1404.88
1361.14
1319.54
1280.54
1244.29
1211.03
1180.92
1154.23
1131.22
1111.97
1096.33
1084.04
1074.87
1068.96
1067.37
1071.51
1081.61
1096.74
1115.5
1136.49
1158.6
1181.7
1207.88
1242.42
1286.39
1336.59
1389.54
1442.79
1495.12
1546.14
1595.49
1643.05
1688.5
1730.61
1768.62
1803.39
1836.06
1867.25
1897.14
1925.67
1952.65
1977.91
2001.3
2022.69
2041.94
2059.09
2074.37
2088.02
2100.3
2111.48
2121.88
2131.8
2141.51
2151.25
2161.22
2171.57
2182.41
2193.78
2205.7
2218.15
2231.07
2244.37
2257.9
2271.46
2284.84
2297.78
2309.98
2321.15
2330.97
2339.15
2345.2
2349.38
2352
2353.39
2353.91
2354
2354.17
2355.2
2358.38
2366.3
2385.24
2423.54
571.344
569.222
568.872
572.994
583.854
602.943
631.123
668.832
716.231
773.357
840.245
917.063
1004.05
1101.35
1208.78
1325.67
1450.91
1583.27
1721.98
1867.18
2019.99
2179.32
2342.86
2514.42
2696.2
2888.77
3090.76
3298.48
3505.59
3703.32
3881.37
4029.45
4138.93
4203.99
4222.04
4193.48
4120.97
4008.69
3861.93
3686.92
3490.85
3281.84
3068.67
2860.2
2664.52
2488.08
2335.1
2207.49
2105.49
2028.05
1973.08
1937.72
1918.63
1912.3
1915.35
1924.77
1938.09
1953.36
1969.12
1983.91
1996.92
2007.52
2015.29
2019.94
2021.21
2018.99
2013.32
2004.4
1992.59
1978.4
1962.48
1945.6
1928.62
1912.46
1897.98
1885.97
1877.04
1871.58
1869.61
1870.83
1874.52
1879.6
1884.65
1888
1887.96
1882.99
1871.87
1853.79
1828.21
1794.65
1756.61
1714.82
1669.6
1622.08
1573.19
1523.68
1474.21
1425.4
1377.63
1331.08
1285.82
1242.07
1200.11
1160.15
1122.17
1086.19
1052.23
1020.31
990.446
962.601
936.754
912.936
891.285
871.995
855.158
840.687
828.351
817.836
808.829
801.184
795.518
793.156
794.548
799.087
805.85
814.149
823.391
833.223
843.458
854.042
865.413
879.695
898.843
922.275
948.456
976.127
1004.46
1032.91
1061.09
1088.7
1115.43
1140.98
1165.13
1187.74
1208.8
1228.33
1246.43
1263.26
1279.02
1293.98
1308.38
1322.5
1336.58
1350.78
1365.25
1380.08
1395.36
1411.23
1427.85
1445.42
1464.13
1484.15
1505.59
1528.5
1552.82
1578.45
1605.2
1632.9
1660.85
1687.7
1713.29
1737.51
1760.31
1781.73
1802.01
1821.74
1841.91
1864.27
1892.31
1930.26
627.574
615.535
603.924
597.749
600.317
613.372
637.78
674.049
722.584
783.799
858.089
945.715
1046.66
1160.27
1284.86
1417.7
1555.89
1697.52
1841.53
1987.35
2134.47
2283.91
2436.58
2592.75
2751.89
2912.3
3070.84
3222.82
3362.22
3482.24
3576.11
3638.15
3664.48
3653.45
3605.52
3523.03
3409.75
3270.73
3112.13
2941.15
2765.65
2593.59
2432.28
2287.65
2163.78
2062.64
1984.25
1927.14
1888.97
1866.88
1857.79
1858.7
1866.84
1879.83
1895.76
1913.11
1930.72
1947.68
1963.71
1978.38
1991.22
2001.82
2009.73
2014.55
2015.93
2013.65
2007.56
1997.68
1984.19
1967.44
1947.98
1926.59
1904.19
1881.89
1860.85
1842.24
1827.04
1816
1809.5
1807.44
1809.19
1813.62
1819.08
1823.6
1825.06
1821.6
1811.73
1794.87
1770.07
1740.39
1705.75
1666.77
1624.4
1579.69
1533.58
1486.84
1440.14
1393.99
1348.74
1304.61
1261.7
1219.97
1179.48
1140.39
1102.72
1066.33
1031.11
997.011
963.977
931.993
901.063
871.219
842.526
815.074
788.95
764.212
740.88
718.937
698.342
679.048
661.14
644.779
630.084
617.074
605.688
595.851
587.374
580.134
574.028
568.987
565.1
562.977
563.212
565.696
569.991
575.66
582.352
589.792
597.758
606.06
614.519
622.974
631.288
639.35
647.086
654.456
661.457
668.117
674.492
680.664
686.729
692.81
699.069
705.718
713.024
721.284
730.793
741.8
754.488
768.962
785.254
803.345
823.185
844.731
867.964
892.92
919.699
948.508
979.837
1013.23
1047.4
1082.1
1116.82
1149.81
1181.54
1214.13
1249.42
1289.26
1336.39
1392.66
713.554
676.577
645.961
624.728
616.177
621.427
640.729
674.239
722.307
785.488
864.421
959.578
1070.67
1194.68
1327.14
1464.71
1605.03
1746.54
1888.16
2029.16
2169.09
2307.7
2444.66
2579.26
2710.14
2835.09
2951
3053.94
3139.52
3203.35
3241.63
3251.65
3232.14
3183.34
3107.03
3006.4
2885.93
2751.29
2609.03
2466.08
2329.11
2203.82
2094.48
2003.67
1932.22
1879.42
1843.42
1821.71
1811.5
1810.07
1814.92
1823.98
1835.63
1848.73
1862.51
1876.48
1890.28
1903.55
1916.56
1928.73
1939.62
1948.81
1955.89
1960.49
1962.24
1960.8
1955.89
1947.38
1935.26
1919.66
1900.96
1879.72
1856.76
1833.16
1810.15
1789.06
1771.13
1757.4
1748.51
1744.59
1745.12
1748.92
1754.2
1758.8
1760.29
1756.63
1746.04
1728.87
1705.59
1676.72
1643
1605.31
1564.58
1521.81
1477.9
1433.63
1389.67
1346.51
1304.53
1263.94
1224.82
1187.09
1150.62
1115.38
1081.39
1048.47
1016.42
985.039
954.183
923.735
893.621
863.809
834.313
805.189
776.523
748.423
721.004
694.378
668.65
643.925
620.293
597.841
576.66
556.825
538.382
521.364
505.796
491.622
478.807
467.314
457.113
448.225
440.703
434.559
429.75
426.191
423.774
422.376
421.872
422.132
423.028
424.437
426.245
428.352
430.674
433.146
435.727
438.394
441.14
443.972
446.906
449.968
453.199
456.658
460.422
464.579
469.216
474.406
480.207
486.652
493.755
501.512
509.91
518.934
528.581
538.871
549.849
561.614
574.393
588.807
605.044
622.568
641.84
665.179
693.258
725.13
760.725
801.036
848.288
903.608
838.52
752.02
693.115
652.036
629.848
625.706
638.491
667.572
712.941
775.063
854.6
951.998
1066.84
1195.53
1330.18
1466.59
1605.37
1745.37
1884.27
2020.32
2152.24
2279.05
2399.85
2513.56
2618.78
2713.59
2795.63
2862.2
2910.55
2938.17
2943.17
2924.53
2882.34
2817.86
2733.65
2633.45
2522.12
2405.26
2288.69
2177.86
2077.33
1990.43
1918.97
1863.43
1823.09
1796.26
1780.69
1773.92
1773.57
1777.57
1784.25
1792.46
1801.47
1810.91
1820.66
1830.67
1840.88
1851.51
1861.76
1871.21
1879.45
1886.13
1890.95
1893.68
1894.1
1891.99
1887.17
1879.48
1868.8
1855.11
1838.57
1819.56
1798.68
1776.84
1755.2
1735.12
1717.9
1704.63
1696.04
1692.3
1692.93
1696.56
1701.23
1704.66
1704.34
1698.4
1686.02
1667.12
1642.09
1611.69
1576.85
1538.58
1497.85
1455.61
1412.71
1369.91
1327.83
1286.95
1247.63
1210.07
1174.37
1140.46
1108.14
1077.22
1047.62
1019.23
991.762
964.963
938.58
912.388
886.194
859.851
833.26
806.38
779.223
751.855
724.385
696.969
669.784
642.999
616.786
591.311
566.733
543.199
520.839
499.759
480.042
461.757
444.926
429.546
415.611
403.103
392.009
382.302
373.949
366.899
361.087
356.433
352.85
350.237
348.491
347.505
347.175
347.404
348.105
349.202
350.634
352.353
354.323
356.516
358.909
361.481
364.213
367.084
370.074
373.164
376.334
379.566
382.842
386.15
389.483
392.838
396.216
399.622
403.069
406.577
410.181
413.933
417.934
422.378
427.659
433.932
441.282
450.845
463.135
477.967
495.491
516.378
542.005
573.268
1002.78
839.765
743.29
678.292
640.575
625.824
630.846
653.846
694.208
752.119
828.15
922.744
1035.55
1163.7
1299.33
1435.35
1570.99
1706.93
1841.77
1972.81
2097.69
2214.76
2322.7
2420.33
2506.4
2579.55
2638.23
2680.85
2705.91
2712.21
2699.05
2666.48
2615.44
2547.87
2466.75
2376.02
2280.28
2184.32
2092.63
2008.98
1936.07
1875.52
1827.9
1792.93
1769.46
1755.64
1749.38
1748.58
1751.43
1756.45
1762.64
1769.36
1776.33
1783.47
1790.8
1798.29
1805.76
1813.02
1819.27
1824.16
1827.46
1829.13
1829.18
1827.69
1824.74
1820.34
1814.42
1806.87
1797.53
1786.23
1772.9
1757.68
1740.94
1723.3
1705.68
1689.45
1675.77
1665.62
1659.62
1657.77
1659.44
1662.99
1666.27
1667.02
1663.22
1653.46
1637.05
1614.08
1585.18
1551.31
1513.57
1473.03
1430.71
1387.53
1344.33
1301.81
1260.55
1220.99
1183.44
1148.07
1114.94
1084
1055.06
1027.86
1002.2
977.958
954.902
932.743
911.189
889.953
868.759
847.355
825.524
803.096
779.955
756.048
731.388
706.071
680.235
654.063
627.766
601.566
575.692
550.369
525.811
502.214
479.75
458.562
438.766
420.445
403.647
388.39
374.676
362.496
351.824
342.623
334.842
328.417
323.27
319.313
316.445
314.561
313.553
313.314
313.741
314.743
316.237
318.155
320.435
323.025
325.873
328.933
332.153
335.484
338.871
342.262
345.598
348.822
351.877
354.714
357.296
359.594
361.589
363.276
364.654
365.731
366.53
367.102
367.515
367.87
368.326
369.137
370.423
372.352
375.178
379.147
384.576
391.93
401.961
415.15
1203.53
937.085
794.819
702.901
648.464
622.331
618.674
634.265
667.696
718.738
787.801
875.387
981.458
1104.35
1237.85
1372.97
1506.29
1638.3
1768.3
1894.38
2013.93
2124.49
2224.19
2311.69
2385.89
2445.83
2490.64
2519.53
2531.91
2527.49
2506.43
2469.48
2418.14
2354.7
2282.23
2204.4
2125.14
2048.21
1976.87
1913.19
1858.68
1814.5
1780.99
1757.58
1743.02
1735.64
1733.64
1735.38
1739.46
1744.86
1750.88
1757.09
1763.28
1769.26
1774.81
1779.51
1782.81
1784.53
1784.31
1782.11
1778.11
1772.64
1766.14
1759.05
1751.72
1744.37
1737.05
1729.7
1722.19
1714.16
1705.36
1695.68
1685.25
1674.38
1663.49
1653.95
1646.59
1642.06
1640.63
1641.98
1645.01
1647.99
1648.86
1645.58
1636.54
1620.81
1598.21
1569.21
1534.74
1495.96
1454.05
1410.13
1365.2
1320.17
1275.81
1232.77
1191.59
1152.64
1116.16
1082.28
1051
1022.25
995.853
971.545
949.056
928.16
908.723
890.466
873.107
856.359
839.923
823.503
806.81
789.577
771.566
752.581
732.463
711.199
688.837
665.485
641.306
616.506
591.325
566.028
540.887
516.177
492.156
469.063
447.106
426.463
407.272
389.645
373.644
359.299
346.621
335.602
326.215
318.414
312.138
307.308
303.83
301.597
300.492
300.392
301.176
302.718
304.905
307.637
310.826
314.39
318.255
322.346
326.593
330.921
335.256
339.515
343.614
347.467
351.002
354.154
356.868
359.097
360.81
361.988
362.619
362.681
362.182
361.192
359.78
358.013
355.979
353.817
351.714
349.826
348.272
347.204
346.825
347.413
349.382
353.002
1433.08
1040.71
846.601
726.03
654.352
616.486
603.623
610.949
636.151
678.472
738.065
815.452
910.959
1024.01
1151.14
1283.79
1414.82
1543.28
1669.2
1791.07
1906.46
2013.09
2108.69
2191.49
2260.31
2314.35
2353.12
2376.39
2384.18
2376.83
2355.08
2320.15
2273.83
2218.48
2156.94
2092.37
2028
1966.82
1910.71
1860.64
1817.99
1783.8
1758.26
1740.87
1730.55
1725.92
1725.53
1728.06
1732.42
1737.8
1743.59
1749.37
1754.77
1759.34
1762.39
1762.85
1759.66
1753.54
1744.85
1734.05
1721.78
1708.77
1695.78
1683.47
1672.39
1662.87
1655.02
1648.73
1643.99
1640.34
1637.33
1634.68
1632.31
1630.27
1628.78
1628.3
1629.32
1632.11
1636.52
1641.75
1646.32
1648.26
1645.52
1636.46
1620.15
1596.42
1565.75
1529.14
1487.82
1443.12
1396.25
1348.31
1300.27
1252.96
1207.08
1163.21
1121.81
1083.19
1047.51
1014.83
985.071
958.118
933.767
911.763
891.819
873.636
857.021
841.817
827.761
814.601
802.07
789.889
777.765
765.398
752.485
738.685
723.738
707.515
689.921
670.932
650.589
629.005
606.355
582.872
558.827
534.524
510.279
486.407
463.211
440.965
419.914
400.261
382.177
365.793
351.177
338.368
327.382
318.208
310.811
305.134
301.099
298.607
297.544
297.776
299.16
301.56
304.834
308.834
313.423
318.475
323.873
329.509
335.281
341.086
346.818
352.374
357.647
362.549
366.987
370.877
374.141
376.716
378.558
379.642
379.974
379.571
378.463
376.705
374.346
371.403
367.897
363.974
359.754
355.397
351.09
346.938
343.073
339.663
336.957
335.148
1678.83
1147.01
898.016
748.362
659.499
609.914
587.693
586.393
602.747
635.393
684.117
749.328
831.577
931.049
1046.63
1173.06
1301.27
1426.55
1548.67
1666.91
1779.32
1883.56
1977.5
2059.42
2127.81
2181.71
2220.67
2244.68
2254.1
2249.64
2232.39
2203.8
2165.74
2120.42
2070.36
2018.18
1966.51
1917.84
1873.28
1833.1
1798.36
1770.1
1748.65
1733.74
1724.61
1720.23
1719.44
1721.17
1724.46
1728.56
1732.85
1736.77
1739.71
1741.01
1739.61
1733.47
1722.41
1707.82
1690.81
1672.34
1653.38
1634.83
1617.57
1602.33
1589.71
1580.05
1573.51
1570.01
1569.37
1571.23
1575.1
1580.55
1587.26
1595.07
1603.84
1613.5
1623.98
1634.97
1645.69
1654.69
1659.99
1659.41
1651.14
1634.23
1608.65
1575.15
1535
1489.68
1440.74
1389.56
1337.37
1285.21
1233.93
1184.28
1136.87
1092.21
1050.66
1012.44
977.615
946.159
917.932
892.73
870.306
850.384
832.673
816.87
802.675
789.916
778.456
768.076
758.557
749.674
741.179
732.802
724.237
715.062
705.039
693.921
681.492
667.588
652.102
635.003
616.335
596.223
574.864
552.519
529.499
506.15
482.831
459.9
437.701
416.544
396.705
378.412
361.861
347.183
334.447
323.694
314.926
308.119
303.219
300.148
298.808
299.086
300.86
303.983
308.271
313.523
319.54
326.139
333.152
340.437
347.866
355.33
362.722
369.939
376.872
383.402
389.409
394.773
399.376
403.105
405.863
407.583
408.251
407.935
406.717
404.62
401.713
398.092
393.838
389.031
383.704
377.812
371.657
365.405
359.145
353.007
347.167
341.805
1925.13
1252.15
948.666
770.741
665.251
604.267
572.863
563.016
570.514
593.357
630.879
683.226
750.95
834.631
934.416
1048.6
1170.66
1292.8
1411.82
1526.84
1636.49
1738.84
1832.25
1915
1985.64
2043.05
2086.51
2115.84
2131.42
2134.07
2124.95
2105.55
2077.6
2042.95
2004.09
1963.39
1922.75
1884.26
1849.04
1817.1
1788.7
1764.56
1745.23
1730.79
1720.85
1714.72
1711.54
1710.42
1710.52
1711.05
1711.29
1710.55
1708.08
1703.13
1694.71
1681.13
1663.52
1643.07
1621
1598.44
1576.42
1555.88
1537.68
1522.56
1511.11
1503.73
1500.57
1501.59
1506.6
1515.23
1526.98
1541.28
1557.63
1575.59
1594.68
1614.38
1633.99
1652.47
1668.24
1679.11
1682.66
1676.73
1660.15
1632.96
1596.21
1551.62
1501.1
1446.59
1389.78
1332.1
1274.68
1218.44
1164.14
1112.42
1063.79
1018.66
977.289
939.784
906.124
876.166
849.688
826.41
806.027
788.222
772.686
759.126
747.242
736.748
727.488
719.357
712.207
705.86
700.131
694.809
689.622
684.191
678.309
671.696
664.077
655.191
644.814
632.767
618.941
603.303
585.909
566.905
546.52
525.057
502.873
480.362
457.933
435.988
414.909
395.037
376.667
360.042
345.351
332.712
322.171
313.74
307.383
303.032
300.588
299.924
300.898
303.357
307.129
312.035
317.885
324.477
331.632
339.198
347.057
355.117
363.307
371.569
379.847
388.076
396.167
404.004
411.434
418.277
424.326
429.365
433.189
435.635
436.61
436.101
434.184
431.053
426.948
421.961
416.224
409.835
402.842
395.484
387.754
379.828
371.867
364.052
2155.77
1352.17
997.998
793.803
672.727
600.962
560.839
542.888
542.012
555.584
582.454
622.406
675.807
743.367
825.961
923.815
1032.77
1146.53
1262.06
1375.78
1484.09
1584.76
1677
1760.35
1833.76
1895.87
1945.74
1982.21
2005.99
2017.81
2018.75
2010.17
1993.66
1970.95
1943.96
1914.49
1884.18
1854.6
1826.89
1801.56
1778.6
1758.05
1740.25
1725.46
1713.61
1704.36
1697.19
1691.4
1686.3
1681.14
1675.24
1667.9
1658.46
1646.33
1630.99
1611.89
1590.48
1567.66
1544.35
1521.52
1500.09
1480.97
1464.99
1452.91
1445.34
1442.69
1445.12
1452.57
1464.81
1481.43
1501.88
1525.46
1551.45
1579.15
1607.72
1636.09
1662.87
1686.26
1703.77
1712.58
1710.12
1694.8
1666.53
1626.54
1577.02
1520.51
1459.39
1395.8
1331.47
1267.75
1205.63
1145.88
1089.14
1035.94
986.689
941.69
901.082
864.851
832.85
804.831
780.473
759.424
741.318
725.801
712.536
701.22
691.582
683.352
676.258
670.166
664.985
660.672
657.086
654.076
651.427
648.863
646.223
643.248
639.663
635.183
629.52
622.406
613.604
602.932
590.281
575.63
559.058
540.745
520.968
500.084
478.509
456.692
435.095
414.161
394.299
375.862
359.14
344.352
331.644
321.089
312.673
306.334
301.965
299.42
298.521
299.072
300.895
303.818
307.676
312.314
317.594
323.404
329.668
336.337
343.39
350.846
358.697
366.944
375.591
384.621
393.977
403.55
413.171
422.603
431.543
439.64
446.522
451.85
455.355
456.876
456.383
453.984
449.93
444.581
438.051
430.575
422.528
414.01
405.093
395.897
2356.84
1443.06
1044.98
817.657
682.586
601.021
552.959
527.68
519.306
524.635
542.047
570.917
611.287
663.695
729.115
808.973
902.337
1003.49
1109.11
1218.06
1326.47
1427.57
1519.78
1602.52
1676.22
1740.68
1795.04
1838.49
1870.99
1892.86
1904.86
1908.04
1903.67
1893.16
1877.99
1859.57
1839.23
1818.22
1797.56
1777.87
1759.35
1741.99
1725.9
1711.19
1697.85
1685.72
1674.56
1663.98
1653.5
1642.62
1630.85
1617.68
1602.69
1585.54
1566.04
1544.6
1522.14
1499.37
1477.05
1456.05
1437.27
1421.65
1410.03
1403.17
1401.65
1405.82
1415.76
1431.3
1452.09
1477.62
1507.18
1539.93
1574.85
1611
1647.17
1681.59
1711.99
1735.59
1749.28
1750.14
1736.17
1706.89
1663.54
1608.68
1545.45
1476.89
1405.55
1333.65
1262.75
1193.96
1128.11
1065.81
1007.57
953.824
904.883
860.917
821.922
787.734
758.071
732.564
710.804
692.367
676.839
663.831
652.991
644.003
636.598
630.542
625.617
621.585
618.309
615.735
613.867
612.641
611.897
611.477
611.268
611.069
610.647
609.737
608.052
605.286
601.137
595.321
587.593
577.773
565.766
551.577
535.327
517.251
497.691
477.073
455.883
434.631
413.823
393.925
375.346
358.416
343.379
330.383
319.5
310.717
303.944
299.041
295.83
294.113
293.687
294.353
295.931
298.289
301.308
304.893
308.973
313.507
318.476
323.89
329.783
336.204
343.213
350.871
359.236
368.355
378.252
388.917
400.207
411.859
423.543
434.859
445.345
454.5
461.835
466.948
469.591
469.69
467.323
462.691
456.335
448.683
440.104
430.91
2524.8
1523.78
1089.44
842.553
695.371
605.233
550.245
518.643
503.872
502.224
511.643
531.097
560.239
599.235
648.697
710.004
785.306
872.632
965.557
1062.43
1162.06
1260.55
1353.05
1437.2
1512.27
1577.99
1634.77
1682.98
1722.52
1753.44
1775.95
1790.59
1798.18
1799.71
1796.23
1788.81
1778.48
1766.2
1752.83
1739.04
1725.18
1711.36
1697.62
1683.99
1670.46
1656.99
1643.49
1629.78
1615.64
1600.82
1585.05
1568.09
1549.79
1530.05
1508.84
1487.17
1465.55
1444.6
1425.11
1407.97
1394.1
1384.39
1379.63
1380.43
1387.24
1400.27
1419.44
1444.38
1474.6
1509.46
1548.08
1589.39
1632.09
1674.65
1715.06
1750.74
1778.6
1795.28
1797.63
1783.43
1751.97
1704.41
1643.51
1572.86
1496.03
1416.06
1335.65
1256.93
1180.98
1108.62
1040.47
976.986
918.591
865.61
818.247
776.518
740.222
709.022
682.489
660.144
641.496
626.069
613.413
603.121
594.833
588.232
583.052
579.073
576.111
574.004
572.584
571.689
571.302
571.437
572.076
573.235
574.815
576.683
578.664
580.543
582.066
582.939
582.843
581.443
578.41
573.444
566.298
556.808
544.911
530.664
514.251
495.986
476.295
455.689
434.726
413.969
393.942
375.104
357.822
342.362
328.883
317.449
308.036
300.552
294.85
290.739
288.017
286.487
285.97
286.308
287.368
289.042
291.247
293.927
297.052
300.601
304.613
309.139
314.236
319.968
326.401
333.598
341.616
350.501
360.29
370.986
382.542
394.859
407.782
421.02
434.011
446.183
456.968
465.812
472.207
475.731
476.11
473.454
468.413
461.581
2637.96
1581.39
1123.72
864.292
709.416
613.918
554.68
519.243
500.589
494.638
499.014
512.36
533.935
563.459
600.873
646.929
703.798
773.303
852.576
937.115
1024.94
1114.71
1203.07
1286.22
1362.46
1430.82
1490.65
1541.99
1585.36
1621.53
1650.93
1673.91
1690.74
1701.87
1707.94
1709.69
1707.89
1703.27
1696.54
1688.28
1678.93
1668.72
1657.75
1646.07
1633.68
1620.58
1606.73
1592.09
1576.59
1560.14
1542.7
1524.22
1504.73
1484.39
1463.55
1443.29
1424.25
1407.19
1392.95
1382.39
1376.37
1375.62
1380.75
1392.18
1410.1
1434.44
1464.87
1500.82
1541.59
1586.19
1633.36
1681.57
1728.91
1773.05
1811.15
1839.95
1855.96
1855.97
1837.74
1800.62
1745.9
1676.55
1596.54
1509.95
1420.31
1330.49
1243
1159.56
1080.65
1006.72
938.212
875.49
818.876
768.587
724.673
686.937
654.877
627.969
605.654
587.368
572.568
560.746
551.443
544.251
538.812
534.823
532.029
530.224
529.244
528.961
529.269
530.068
531.222
532.695
534.513
536.888
539.784
543.127
546.809
550.679
554.541
558.151
561.216
563.402
564.348
563.683
561.06
556.181
548.831
538.897
526.388
511.448
494.356
475.527
455.483
434.813
414.126
393.999
374.933
357.328
341.47
327.529
315.567
305.557
297.399
290.953
286.026
282.419
279.94
278.416
277.694
277.652
278.191
279.241
280.758
282.724
285.145
288.047
291.471
295.469
300.096
305.408
311.453
318.262
325.908
334.47
343.972
354.387
365.649
377.669
390.335
403.468
416.851
430.218
442.983
454.377
463.751
470.492
474.024
474.355
2710.2
1617.71
1147.32
882.526
725.334
628.863
569.23
533.603
514.717
508.127
511.039
521.879
539.786
564.261
594.822
631.44
675.45
728.286
790.226
860.029
935.361
1013.54
1092.22
1169.01
1242.04
1309.84
1371.24
1425.54
1472.41
1511.99
1544.95
1572.19
1594.37
1611.64
1624.29
1632.71
1637.41
1638.9
1637.71
1634.31
1629.09
1622.36
1614.29
1604.98
1594.51
1582.9
1570.19
1556.4
1541.55
1525.7
1508.94
1491.38
1473.25
1454.94
1437.37
1421.53
1408.17
1398.09
1392.12
1391.06
1395.6
1406.27
1423.43
1447.19
1477.41
1513.7
1555.41
1601.63
1651.21
1702.71
1754.37
1804.03
1849.13
1886.64
1913.2
1925.34
1919.97
1895.01
1850.04
1786.57
1707.82
1618.03
1521.58
1422.35
1323.49
1227.56
1136.87
1052.1
973.106
900.195