/*--------------------------------*- C++ -*----------------------------------*\
| =========                 |                                                 |
| \\      /  F ield         | OpenFOAM: The Open Source CFD Toolbox           |
|  \\    /   O peration     | Version:  2112                                  |
|   \\  /    A nd           | Website:  www.openfoam.com                      |
|    \\/     M anipulation  |                                                 |
\*---------------------------------------------------------------------------*/
FoamFile
{
    version     2.0;
    format      ascii;
    arch        "LSB;label=32;scalar=64";
    class       surfaceScalarField;
    location    "0.04";
    object      phi_0;
}
// * * * * * * * * * * * * * * * * * * * * * * * * * * * * * * * * * * * * * //

dimensions      [0 3 -1 0 0 0 0];

oriented        oriented;

internalField   nonuniform List<scalar> 
24170
(
3.04034e-06
1.4807e-07
2.86404e-06
1.76295e-07
2.68822e-06
1.75823e-07
2.51257e-06
1.75646e-07
2.34208e-06
1.7049e-07
2.18166e-06
1.60423e-07
2.03486e-06
1.46796e-07
1.90431e-06
1.30552e-07
1.79168e-06
1.12628e-07
1.69762e-06
9.4065e-08
1.6217e-06
7.5921e-08
1.56259e-06
5.9104e-08
1.51837e-06
4.42182e-08
1.48685e-06
3.15283e-08
1.46596e-06
2.08852e-08
1.45371e-06
1.22553e-08
1.44628e-06
7.42594e-09
7.18374e-09
1.4391e-06
3.48941e-06
7.59099e-08
3.54006e-06
1.25647e-07
3.57182e-06
1.44064e-07
3.58441e-06
1.6305e-07
3.57815e-06
1.76748e-07
3.55503e-06
1.83551e-07
3.51752e-06
1.843e-07
3.46838e-06
1.79695e-07
3.41039e-06
1.70616e-07
3.34618e-06
1.58277e-07
3.27798e-06
1.44122e-07
3.20755e-06
1.29536e-07
3.13621e-06
1.15558e-07
3.065e-06
1.02732e-07
2.99485e-06
9.10342e-08
2.92692e-06
8.01864e-08
2.86538e-06
6.89678e-08
4.95332e-08
2.82303e-06
3.68044e-06
5.7982e-08
3.699e-06
1.07093e-07
3.71837e-06
1.2469e-07
3.74069e-06
1.40734e-07
3.76385e-06
1.53585e-07
3.78624e-06
1.61162e-07
3.80633e-06
1.64209e-07
3.82271e-06
1.63321e-07
3.83439e-06
1.58933e-07
3.84085e-06
1.5182e-07
3.84196e-06
1.43011e-07
3.838e-06
1.33492e-07
3.82953e-06
1.24034e-07
3.81725e-06
1.15003e-07
3.80199e-06
1.06301e-07
3.78515e-06
9.70223e-08
3.76843e-06
8.5687e-08
6.59626e-08
3.752e-06
3.93612e-06
4.72467e-08
3.94771e-06
9.55052e-08
3.95718e-06
1.15224e-07
3.96722e-06
1.30696e-07
3.97794e-06
1.42861e-07
3.98928e-06
1.49826e-07
4.00124e-06
1.52246e-07
4.01346e-06
1.51095e-07
4.02536e-06
1.47038e-07
4.03643e-06
1.40749e-07
4.04638e-06
1.33061e-07
4.0551e-06
1.2477e-07
4.06273e-06
1.16402e-07
4.06961e-06
1.08126e-07
4.07616e-06
9.97563e-08
4.08278e-06
9.03958e-08
4.08964e-06
7.88243e-08
6.13561e-08
4.09425e-06
4.21523e-06
3.9143e-08
4.22543e-06
8.53037e-08
4.23402e-06
1.06635e-07
4.24256e-06
1.22158e-07
4.2513e-06
1.34117e-07
4.25998e-06
1.41144e-07
4.26846e-06
1.43765e-07
4.2766e-06
1.42958e-07
4.2842e-06
1.3944e-07
4.2911e-06
1.33849e-07
4.29726e-06
1.26901e-07
4.30276e-06
1.19266e-07
4.30778e-06
1.1139e-07
4.31254e-06
1.0336e-07
4.31742e-06
9.48815e-08
4.32259e-06
8.5223e-08
4.32809e-06
7.33226e-08
5.70063e-08
4.33244e-06
4.51549e-06
3.27402e-08
4.52484e-06
7.59498e-08
4.53337e-06
9.81085e-08
4.54187e-06
1.13661e-07
4.55051e-06
1.25478e-07
4.55899e-06
1.32667e-07
4.56707e-06
1.35682e-07
4.57459e-06
1.35434e-07
4.58141e-06
1.32623e-07
4.5874e-06
1.27856e-07
4.59254e-06
1.21763e-07
4.5969e-06
1.14907e-07
4.60063e-06
1.07658e-07
4.60393e-06
1.0006e-07
4.607e-06
9.18105e-08
4.60991e-06
8.23182e-08
4.61242e-06
7.0813e-08
5.60519e-08
4.61337e-06
4.8379e-06
2.75647e-08
4.84648e-06
6.73694e-08
4.85485e-06
8.9739e-08
4.86334e-06
1.05164e-07
4.87206e-06
1.1676e-07
4.88067e-06
1.24061e-07
4.88888e-06
1.27468e-07
4.89649e-06
1.27823e-07
4.90333e-06
1.25787e-07
4.90926e-06
1.21918e-07
4.91426e-06
1.16764e-07
4.91838e-06
1.10796e-07
4.92172e-06
1.04312e-07
4.92443e-06
9.73463e-08
4.92659e-06
8.96547e-08
4.92812e-06
8.07932e-08
4.92865e-06
7.02827e-08
5.74835e-08
4.92721e-06
5.18384e-06
2.33095e-08
5.19171e-06
5.94948e-08
5.19989e-06
8.15624e-08
5.20832e-06
9.67276e-08
5.21705e-06
1.08035e-07
5.22571e-06
1.15398e-07
5.23401e-06
1.1917e-07
5.24172e-06
1.20113e-07
5.24866e-06
1.1885e-07
5.25468e-06
1.15892e-07
5.25973e-06
1.11711e-07
5.26383e-06
1.06703e-07
5.26703e-06
1.01111e-07
5.2694e-06
9.49736e-08
5.27092e-06
8.81343e-08
5.27141e-06
8.0305e-08
5.27047e-06
7.12246e-08
6.06513e-08
5.2673e-06
5.55489e-06
1.97612e-08
5.56212e-06
5.22643e-08
5.57009e-06
7.35844e-08
5.57845e-06
8.83678e-08
5.58714e-06
9.93476e-08
5.5958e-06
1.06738e-07
5.60412e-06
1.10857e-07
5.61185e-06
1.12376e-07
5.61882e-06
1.11879e-07
5.62489e-06
1.0983e-07
5.62996e-06
1.06642e-07
5.63401e-06
1.02649e-07
5.63706e-06
9.80606e-08
5.6391e-06
9.29341e-08
5.64004e-06
8.7195e-08
5.63964e-06
8.07025e-08
5.6375e-06
7.33665e-08
6.51757e-08
5.63298e-06
5.95278e-06
1.67578e-08
5.95942e-06
4.56213e-08
5.96719e-06
6.58191e-08
5.97546e-06
8.00911e-08
5.9841e-06
9.07127e-08
5.99274e-06
9.81021e-08
6.00104e-06
1.02555e-07
6.00877e-06
1.04647e-07
6.01573e-06
1.04915e-07
6.02178e-06
1.03781e-07
6.02681e-06
1.01606e-07
6.03078e-06
9.8683e-08
6.03364e-06
9.52018e-08
6.03533e-06
9.12455e-08
6.03571e-06
8.68151e-08
6.03452e-06
8.18864e-08
6.0314e-06
7.64941e-08
7.07393e-08
6.02583e-06
6.3794e-06
1.41712e-08
6.38551e-06
3.95124e-08
6.39304e-06
5.8287e-08
6.40122e-06
7.19087e-08
6.40979e-06
8.21403e-08
6.4184e-06
8.94994e-08
6.42668e-06
9.42689e-08
6.4344e-06
9.6931e-08
6.44135e-06
9.79651e-08
6.44737e-06
9.77553e-08
6.45236e-06
9.66204e-08
6.45622e-06
9.48193e-08
6.45889e-06
9.25354e-08
6.46026e-06
8.98785e-08
6.46016e-06
8.69114e-08
6.45835e-06
8.36936e-08
6.4545e-06
8.03449e-08
7.70068e-08
6.44824e-06
5.74278e-06
1.22214e-08
5.74756e-06
3.47323e-08
5.75374e-06
5.2115e-08
5.76057e-06
6.50752e-08
5.76776e-06
7.4952e-08
5.775e-06
8.22609e-08
5.78199e-06
8.72759e-08
5.78851e-06
9.04106e-08
5.79438e-06
9.20913e-08
5.79947e-06
9.26674e-08
5.80366e-06
9.24271e-08
5.80688e-06
9.16074e-08
5.80902e-06
9.03886e-08
5.81e-06
8.88991e-08
5.80967e-06
8.72403e-08
5.80785e-06
8.55184e-08
5.8043e-06
8.38929e-08
8.25359e-08
5.79877e-06
7.00017e-06
1.02101e-08
7.00528e-06
2.96154e-08
7.01211e-06
4.52872e-08
7.01981e-06
5.73723e-08
7.02798e-06
6.67889e-08
7.03623e-06
7.40046e-08
7.04424e-06
7.92713e-08
7.05172e-06
8.29279e-08
7.05847e-06
8.53382e-08
7.06433e-06
8.68115e-08
7.06915e-06
8.7604e-08
7.07283e-06
8.79311e-08
7.07525e-06
8.79685e-08
7.07629e-06
8.78588e-08
7.0758e-06
8.77301e-08
7.0736e-06
8.77175e-08
7.0695e-06
8.79962e-08
8.8747e-08
7.06329e-06
8.53291e-06
8.14519e-09
8.53832e-06
2.42068e-08
8.54578e-06
3.78321e-08
8.55436e-06
4.87913e-08
8.56353e-06
5.76115e-08
8.57287e-06
6.46645e-08
8.58198e-06
7.01648e-08
8.59054e-06
7.43726e-08
8.59829e-06
7.75808e-08
8.60505e-06
8.00508e-08
8.61065e-06
8.20039e-08
8.61495e-06
8.36313e-08
8.61782e-06
8.50983e-08
8.61913e-06
8.65505e-08
8.61874e-06
8.81248e-08
8.61649e-06
8.99615e-08
8.61226e-06
9.22261e-08
9.50841e-08
8.60593e-06
1.04013e-05
6.02801e-09
1.0407e-05
1.8541e-08
1.0415e-05
2.97844e-08
1.04245e-05
3.93298e-08
1.04347e-05
4.73759e-08
1.04453e-05
5.41588e-08
1.04556e-05
5.98344e-08
1.04654e-05
6.45833e-08
1.04743e-05
6.86197e-08
1.04822e-05
7.21479e-08
1.04889e-05
7.53477e-08
1.04941e-05
7.83784e-08
1.04979e-05
8.13839e-08
1.04999e-05
8.44955e-08
1.05002e-05
8.78366e-08
1.04986e-05
9.15284e-08
1.04952e-05
9.57035e-08
1.00493e-07
1.04897e-05
1.2679e-05
3.85238e-09
1.26849e-05
1.26151e-08
1.26935e-05
2.11474e-08
1.27039e-05
2.89527e-08
1.27153e-05
3.59873e-08
1.27271e-05
4.23317e-08
1.27389e-05
4.80597e-08
1.27502e-05
5.32686e-08
1.27607e-05
5.80884e-08
1.27702e-05
6.26554e-08
1.27785e-05
6.70961e-08
1.27853e-05
7.15258e-08
1.27907e-05
7.60509e-08
1.27944e-05
8.07681e-08
1.27965e-05
8.57655e-08
1.27969e-05
9.11258e-08
1.27956e-05
9.69306e-08
1.03263e-07
1.27929e-05
1.54554e-05
1.59472e-09
1.54617e-05
6.3517e-09
1.5471e-05
1.18145e-08
1.54825e-05
1.74969e-08
1.54953e-05
2.31942e-08
1.55088e-05
2.88337e-08
1.55225e-05
3.43859e-08
1.55359e-05
3.98575e-08
1.55487e-05
4.52883e-08
1.55606e-05
5.07345e-08
1.55714e-05
5.6255e-08
1.5581e-05
6.19058e-08
1.55894e-05
6.77384e-08
1.55963e-05
7.37978e-08
1.5602e-05
8.01213e-08
1.56064e-05
8.67408e-08
1.56096e-05
9.36778e-08
1.00961e-07
1.56119e-05
1.884e-05
-8.15859e-10
1.88469e-05
-4.89624e-10
1.88573e-05
1.4195e-09
1.88703e-05
4.48381e-09
1.88851e-05
8.38571e-09
1.8901e-05
1.29045e-08
1.89175e-05
1.78933e-08
1.89341e-05
2.32587e-08
1.89505e-05
2.89438e-08
1.89663e-05
3.49133e-08
1.89814e-05
4.1144e-08
1.89957e-05
4.76191e-08
1.90091e-05
5.43232e-08
1.90217e-05
6.12401e-08
1.90334e-05
6.83502e-08
1.90445e-05
7.5632e-08
1.90552e-05
8.305e-08
9.05857e-08
1.90655e-05
2.29661e-05
-3.5895e-09
2.29742e-05
-8.53723e-09
2.29866e-05
-1.09761e-08
2.30023e-05
-1.12529e-08
2.30205e-05
-9.81267e-09
2.30404e-05
-7.04372e-09
2.30615e-05
-3.21682e-09
2.30833e-05
1.46283e-09
2.31055e-05
6.83201e-09
2.31276e-05
1.27544e-08
2.31496e-05
1.91173e-08
2.31714e-05
2.58241e-08
2.3193e-05
3.27896e-08
2.32143e-05
3.99338e-08
2.32354e-05
4.7182e-08
2.32566e-05
5.4472e-08
2.32779e-05
6.17353e-08
6.8926e-08
2.32996e-05
1.68129e-05
-5.81165e-09
1.68193e-05
-1.49371e-08
1.68291e-05
-2.07678e-08
1.68415e-05
-2.36302e-08
1.68558e-05
-2.41554e-08
1.68717e-05
-2.28842e-08
1.68886e-05
-2.01667e-08
1.69064e-05
-1.62699e-08
1.69246e-05
-1.14322e-08
1.69432e-05
-5.86204e-09
1.69621e-05
2.76805e-10
1.69811e-05
6.83205e-09
1.70002e-05
1.36746e-08
1.70194e-05
2.06833e-08
1.70389e-05
2.77613e-08
1.70585e-05
3.48418e-08
1.70784e-05
4.18291e-08
4.86373e-08
1.70987e-05
1.46368e-05
-8.06448e-09
1.46432e-05
-2.13419e-08
1.46528e-05
-3.03338e-08
1.46647e-05
-3.54939e-08
1.46783e-05
-3.77985e-08
1.46934e-05
-3.79431e-08
1.47095e-05
-3.63134e-08
1.47265e-05
-3.32288e-08
1.4744e-05
-2.8996e-08
1.4762e-05
-2.38731e-08
1.47804e-05
-1.80691e-08
1.4799e-05
-1.17708e-08
1.48178e-05
-5.15002e-09
1.48368e-05
1.65394e-09
1.48561e-05
8.5494e-09
1.48755e-05
1.54421e-08
1.48951e-05
2.21722e-08
2.86391e-08
1.49151e-05
1.27426e-05
-1.05137e-08
1.27493e-05
-2.80683e-08
1.27589e-05
-3.99178e-08
1.27704e-05
-4.70035e-08
1.27835e-05
-5.08663e-08
1.27978e-05
-5.2299e-08
1.28132e-05
-5.16669e-08
1.28293e-05
-4.93429e-08
1.2846e-05
-4.56985e-08
1.28631e-05
-4.10274e-08
1.28806e-05
-3.55651e-08
1.28984e-05
-2.95321e-08
1.29164e-05
-2.31181e-08
1.29345e-05
-1.64494e-08
1.29527e-05
-9.64431e-09
1.2971e-05
-2.88707e-09
1.29895e-05
3.63185e-09
9.8459e-09
1.30083e-05
1.10938e-05
-1.33452e-08
1.11011e-05
-3.53728e-08
1.11108e-05
-4.9608e-08
1.11219e-05
-5.81727e-08
1.11344e-05
-6.33711e-08
1.11481e-05
-6.59442e-08
1.11626e-05
-6.61909e-08
1.11778e-05
-6.45499e-08
1.11936e-05
-6.1446e-08
1.12097e-05
-5.71869e-08
1.12262e-05
-5.20261e-08
1.12428e-05
-4.62046e-08
1.12596e-05
-3.98878e-08
1.12764e-05
-3.32316e-08
1.12932e-05
-2.64594e-08
1.13101e-05
-1.98063e-08
1.13272e-05
-1.34158e-08
-7.33215e-09
1.13444e-05
9.65868e-06
-1.68097e-08
9.66676e-06
-4.34533e-08
9.67654e-06
-5.9387e-08
9.68735e-06
-6.89863e-08
9.6993e-06
-7.53233e-08
9.71222e-06
-7.88619e-08
9.72588e-06
-7.98457e-08
9.74012e-06
-7.87974e-08
9.75486e-06
-7.61789e-08
9.76995e-06
-7.22846e-08
9.78527e-06
-6.7338e-08
9.80064e-06
-6.15774e-08
9.81597e-06
-5.52227e-08
9.83129e-06
-4.85428e-08
9.84664e-06
-4.18148e-08
9.86206e-06
-3.52225e-08
9.87752e-06
-2.88823e-08
-2.28541e-08
9.89305e-06
8.40983e-06
-2.12866e-08
8.41883e-06
-5.24502e-08
8.42859e-06
-6.91524e-08
8.43904e-06
-7.94382e-08
8.45049e-06
-8.67651e-08
8.4627e-06
-9.10789e-08
8.47549e-06
-9.26381e-08
8.48876e-06
-9.20594e-08
8.50238e-06
-8.97984e-08
8.51622e-06
-8.61331e-08
8.53016e-06
-8.12731e-08
8.54407e-06
-7.5488e-08
8.55797e-06
-6.91216e-08
8.5719e-06
-6.24724e-08
8.58585e-06
-5.57695e-08
8.5998e-06
-4.91723e-08
8.61373e-06
-4.28071e-08
-3.67148e-08
8.62759e-06
7.32329e-06
-2.72955e-08
7.33343e-06
-6.25827e-08
7.34314e-06
-7.88649e-08
7.35321e-06
-8.95122e-08
7.36405e-06
-9.76074e-08
7.37547e-06
-1.02497e-07
7.38737e-06
-1.04532e-07
7.39968e-06
-1.0437e-07
7.41229e-06
-1.02407e-07
7.42507e-06
-9.89166e-08
7.43798e-06
-9.41876e-08
7.45101e-06
-8.8518e-08
7.46413e-06
-8.22394e-08
7.47729e-06
-7.56271e-08
7.49042e-06
-6.89065e-08
7.50351e-06
-6.22571e-08
7.51653e-06
-5.58327e-08
-4.9702e-08
7.52952e-06
6.37824e-06
-3.54665e-08
6.38992e-06
-7.42693e-08
6.40005e-06
-8.89921e-08
6.4106e-06
-1.00058e-07
6.42185e-06
-1.08864e-07
6.43362e-06
-1.14264e-07
6.44593e-06
-1.16842e-07
6.45877e-06
-1.17207e-07
6.47208e-06
-1.15716e-07
6.48578e-06
-1.12618e-07
6.49977e-06
-1.08176e-07
6.51391e-06
-1.02661e-07
6.52805e-06
-9.6382e-08
6.54206e-06
-8.96305e-08
6.55581e-06
-8.26617e-08
6.56927e-06
-7.572e-08
6.58237e-06
-6.89272e-08
-6.23861e-08
6.59505e-06
5.55914e-06
-4.91405e-08
5.57556e-06
-9.06937e-08
5.59118e-06
-1.04613e-07
5.60903e-06
-1.17902e-07
5.62885e-06
-1.2869e-07
5.64984e-06
-1.35251e-07
5.67134e-06
-1.38345e-07
5.69289e-06
-1.38756e-07
5.714e-06
-1.3682e-07
5.73418e-06
-1.32805e-07
5.75307e-06
-1.27063e-07
5.77039e-06
-1.1998e-07
5.78597e-06
-1.11968e-07
5.79977e-06
-1.03424e-07
5.8118e-06
-9.46952e-08
5.82223e-06
-8.61438e-08
5.83128e-06
-7.79842e-08
-7.08333e-08
5.83973e-06
4.88775e-06
-1.09285e-07
4.94066e-06
-1.43605e-07
4.98481e-06
-1.48759e-07
5.01921e-06
-1.52305e-07
5.04234e-06
-1.51817e-07
5.05475e-06
-1.47664e-07
5.05768e-06
-1.41277e-07
5.05225e-06
-1.33327e-07
5.03963e-06
-1.24197e-07
5.02105e-06
-1.14227e-07
4.99774e-06
-1.03751e-07
4.97084e-06
-9.30762e-08
4.94136e-06
-8.24857e-08
4.91016e-06
-7.22262e-08
4.87795e-06
-6.24912e-08
4.8453e-06
-5.34871e-08
4.81263e-06
-4.53191e-08
-3.82696e-08
4.78007e-06
4.09339e-06
3.94979e-06
3.80103e-06
3.64872e-06
3.49691e-06
3.34924e-06
3.20796e-06
3.07464e-06
2.95044e-06
2.83621e-06
2.73246e-06
2.63939e-06
2.5569e-06
2.48468e-06
2.42218e-06
2.3687e-06
2.32338e-06
2.28511e-06
-5.70993e-08
5.70993e-08
-6.2811e-08
5.71169e-09
1.64125e-08
-7.92236e-08
1.97388e-07
-1.80976e-07
4.80388e-07
-2.83e-07
8.54885e-07
-3.74497e-07
1.301e-06
-4.46113e-07
1.79414e-06
-4.93146e-07
2.31043e-06
-5.16287e-07
2.82937e-06
-5.18938e-07
3.33476e-06
-5.05394e-07
3.81461e-06
-4.79848e-07
4.26033e-06
-4.45722e-07
4.66563e-06
-4.05294e-07
5.0258e-06
-3.60168e-07
5.33708e-06
-3.11285e-07
5.59587e-06
-2.5879e-07
5.79801e-06
-2.02142e-07
5.93816e-06
-1.40148e-07
6.00964e-06
-7.14771e-08
6.00754e-06
2.09436e-09
5.91e-06
9.75456e-08
5.71559e-06
1.94405e-07
5.42244e-06
2.93155e-07
5.03243e-06
3.90011e-07
4.55211e-06
4.80312e-07
3.99363e-06
5.58482e-07
3.3762e-06
6.17428e-07
2.72754e-06
6.48659e-07
2.08143e-06
6.46116e-07
1.47618e-06
6.0525e-07
9.50937e-07
5.25242e-07
5.38115e-07
4.12822e-07
2.47218e-07
2.90896e-07
5.02782e-08
1.9694e-07
-1.07354e-07
1.57632e-07
-2.78545e-07
1.71191e-07
-5.01176e-07
2.22631e-07
-7.7351e-07
2.72333e-07
-1.044e-06
2.70495e-07
-1.24424e-06
2.00234e-07
-1.31447e-06
7.02288e-08
-1.23141e-06
-8.30539e-08
-9.96274e-07
-2.35139e-07
-6.25074e-07
-3.712e-07
-1.63163e-07
-4.61911e-07
3.14573e-07
-4.77736e-07
7.30758e-07
-4.16185e-07
1.02711e-06
-2.96352e-07
1.17686e-06
-1.49747e-07
1.18408e-06
-7.22332e-09
1.07031e-06
1.13767e-07
9.05124e-07
1.65189e-07
7.63845e-07
1.41279e-07
6.99565e-07
6.42805e-08
7.09436e-07
-9.87146e-09
7.33826e-07
-2.43894e-08
7.03791e-07
3.00349e-08
5.92237e-07
1.11554e-07
3.89494e-07
2.02743e-07
8.76276e-08
3.01866e-07
-3.1833e-07
4.05958e-07
-8.2004e-07
5.0171e-07
-1.39995e-06
5.79913e-07
-2.03641e-06
6.36461e-07
-2.70687e-06
6.70456e-07
-3.39002e-06
6.83145e-07
-4.06734e-06
6.77327e-07
-4.72394e-06
6.56601e-07
-5.34867e-06
6.24727e-07
-5.93382e-06
5.85148e-07
-6.47448e-06
5.40658e-07
-6.96775e-06
4.93273e-07
-7.41186e-06
4.44106e-07
-7.80532e-06
3.93458e-07
-8.14709e-06
3.41773e-07
-8.43665e-06
2.89565e-07
-8.67331e-06
2.36655e-07
-8.85609e-06
1.82786e-07
-8.9841e-06
1.28007e-07
-9.05702e-06
7.29138e-08
-9.07468e-06
1.76628e-08
-9.04477e-06
-2.99063e-08
-8.97278e-06
-7.19946e-08
-8.8622e-06
-1.10582e-07
-8.71512e-06
-1.47074e-07
-8.5332e-06
-1.81925e-07
-8.31794e-06
-2.15255e-07
-8.07101e-06
-2.46928e-07
-7.79432e-06
-2.76693e-07
-7.49006e-06
-3.04259e-07
-7.16049e-06
-3.29576e-07
-6.80783e-06
-3.52653e-07
-6.43441e-06
-3.73418e-07
-6.04252e-06
-3.91894e-07
-5.63431e-06
-4.08208e-07
-5.21175e-06
-4.22568e-07
-4.77648e-06
-4.35264e-07
-4.32985e-06
-4.46636e-07
-3.87289e-06
-4.5696e-07
-3.40637e-06
-4.66519e-07
-2.93093e-06
-4.75435e-07
-2.44748e-06
-4.83449e-07
-1.95767e-06
-4.89817e-07
-1.46421e-06
-4.93453e-07
-9.70606e-07
-4.93608e-07
-4.782e-07
-4.92405e-07
1.62067e-08
-4.94407e-07
5.11632e-07
-4.95425e-07
1.00355e-06
-4.91919e-07
1.48595e-06
-4.82398e-07
1.94879e-06
-4.6284e-07
2.38277e-06
-4.33983e-07
2.78108e-06
-3.98308e-07
3.13821e-06
-3.57129e-07
3.45107e-06
-3.12861e-07
3.71872e-06
-2.67652e-07
3.93994e-06
-2.21222e-07
4.11389e-06
-1.73948e-07
4.24131e-06
-1.27419e-07
4.32447e-06
-8.31571e-08
4.36552e-06
-4.10495e-08
4.36407e-06
1.45139e-09
4.33062e-06
3.34413e-08
4.27218e-06
5.8448e-08
4.19858e-06
7.35965e-08
4.11599e-06
8.25942e-08
4.02799e-06
8.79924e-08
3.93692e-06
9.10767e-08
3.84419e-06
9.27263e-08
3.75083e-06
9.33591e-08
3.65769e-06
9.31364e-08
3.56554e-06
9.21562e-08
3.47503e-06
9.05111e-08
3.38673e-06
8.83015e-08
3.30109e-06
8.56363e-08
3.21847e-06
8.26243e-08
3.1391e-06
7.93675e-08
3.06314e-06
7.59552e-08
2.99068e-06
7.24627e-08
2.92173e-06
6.89504e-08
2.85626e-06
6.54646e-08
2.79423e-06
6.20371e-08
2.73554e-06
5.86891e-08
2.68013e-06
5.54132e-08
2.62796e-06
5.21609e-08
2.57903e-06
4.89368e-08
2.53322e-06
4.58116e-08
2.49039e-06
4.28262e-08
2.4504e-06
3.9994e-08
2.41309e-06
3.73019e-08
2.37841e-06
3.46872e-08
2.34633e-06
3.20781e-08
2.3169e-06
2.94331e-08
2.29018e-06
2.67166e-08
2.26623e-06
2.39458e-08
2.24502e-06
2.12094e-08
2.22644e-06
1.85811e-08
2.21032e-06
1.61182e-08
2.19643e-06
1.38898e-08
2.18449e-06
1.19445e-08
2.17418e-06
1.0307e-08
2.1652e-06
8.98188e-09
2.15724e-06
7.96505e-09
2.14998e-06
7.25287e-09
2.14315e-06
6.83621e-09
2.13644e-06
6.70445e-09
2.12959e-06
6.8536e-09
2.1223e-06
7.28776e-09
2.11428e-06
8.02601e-09
2.10517e-06
9.10672e-09
2.09457e-06
1.05953e-08
2.08199e-06
1.25874e-08
2.06675e-06
1.52377e-08
2.048e-06
1.87438e-08
2.02445e-06
2.35542e-08
1.99421e-06
3.02392e-08
1.95284e-06
4.13672e-08
1.88704e-06
6.58028e-08
9.83462e-08
1.78869e-06
6.63668e-08
-9.26745e-09
2.15616e-07
-1.43537e-07
4.66732e-07
-3.3034e-07
8.1913e-07
-5.33374e-07
1.25484e-06
-7.1871e-07
1.74449e-06
-8.64151e-07
2.26067e-06
-9.62284e-07
2.78153e-06
-1.01401e-06
3.29083e-06
-1.02558e-06
3.77759e-06
-1.0057e-06
4.2351e-06
-9.62906e-07
4.65955e-06
-9.04298e-07
5.04918e-06
-8.35346e-07
5.40359e-06
-7.59705e-07
5.72257e-06
-6.79148e-07
6.0056e-06
-5.94321e-07
6.25194e-06
-5.05132e-07
6.46084e-06
-4.11033e-07
6.63197e-06
-3.11283e-07
6.76568e-06
-2.05191e-07
6.86025e-06
-9.24751e-08
6.92688e-06
3.09144e-08
6.9552e-06
1.66091e-07
6.93416e-06
3.14198e-07
6.85059e-06
4.73574e-07
6.69019e-06
6.40718e-07
6.43915e-06
8.09523e-07
6.08626e-06
9.70312e-07
5.62459e-06
1.11033e-06
5.05559e-06
1.21512e-06
4.3906e-06
1.27023e-06
3.65148e-06
1.26437e-06
2.87018e-06
1.19412e-06
2.09442e-06
1.06666e-06
1.39086e-06
9.00497e-07
8.15088e-07
7.33407e-07
3.68178e-07
6.18102e-07
7.1575e-09
5.83651e-07
-2.97636e-07
5.77127e-07
-5.36372e-07
5.0923e-07
-6.85429e-07
3.49291e-07
-7.25986e-07
1.10785e-07
-6.45714e-07
-1.63326e-07
-4.37882e-07
-4.42971e-07
-1.16593e-07
-6.92489e-07
2.67987e-07
-8.46491e-07
6.4614e-07
-8.55889e-07
9.50364e-07
-7.20409e-07
1.14105e-06
-4.87036e-07
1.2121e-06
-2.20799e-07
1.1801e-06
2.47799e-08
1.07999e-06
2.13873e-07
9.3801e-07
3.0717e-07
7.8676e-07
2.92528e-07
6.15777e-07
2.35264e-07
3.5886e-07
2.47045e-07
-3.07779e-08
3.65249e-07
-5.63773e-07
5.6303e-07
-1.23254e-06
7.80325e-07
-2.01312e-06
9.83318e-07
-2.86775e-06
1.1565e-06
-3.75333e-06
1.29154e-06
-4.6346e-06
1.38298e-06
-5.48269e-06
1.428e-06
-6.27448e-06
1.42825e-06
-6.99345e-06
1.38943e-06
-7.62982e-06
1.31952e-06
-8.17983e-06
1.22733e-06
-8.64453e-06
1.12131e-06
-9.02845e-06
1.00864e-06
-9.33817e-06
8.94869e-07
-9.58129e-06
7.83779e-07
-9.76556e-06
6.77544e-07
-9.89843e-06
5.76982e-07
-9.98694e-06
4.81965e-07
-1.00372e-05
3.92022e-07
-1.00542e-05
3.06596e-07
-1.00427e-05
2.25086e-07
-1.00066e-05
1.46716e-07
-9.94929e-06
7.07172e-08
-9.87588e-06
-5.02205e-10
-9.7842e-06
-7.40104e-08
-9.67098e-06
-1.43132e-07
-9.53024e-06
-2.12728e-07
-9.35903e-06
-2.81798e-07
-9.15682e-06
-3.49279e-07
-8.92421e-06
-4.14536e-07
-8.66224e-06
-4.77224e-07
-8.37223e-06
-5.36939e-07
-8.0558e-06
-5.93122e-07
-7.71489e-06
-6.45169e-07
-7.35165e-06
-6.92822e-07
-6.96825e-06
-7.36052e-07
-6.56693e-06
-7.74736e-07
-6.14994e-06
-8.08886e-07
-5.71936e-06
-8.38784e-07
-5.27705e-06
-8.64881e-07
-4.82457e-06
-8.87743e-07
-4.36317e-06
-9.08037e-07
-3.89363e-06
-9.26494e-07
-3.41651e-06
-9.43643e-07
-2.9321e-06
-9.59849e-07
-2.44039e-06
-9.75151e-07
-1.9412e-06
-9.89011e-07
-1.43407e-06
-1.00058e-06
-9.18322e-07
-1.00936e-06
-3.94741e-07
-1.01599e-06
1.32882e-07
-1.02203e-06
6.58591e-07
-1.02113e-06
1.17792e-06
-1.01125e-06
1.68599e-06
-9.90468e-07
2.17758e-06
-9.54429e-07
2.64605e-06
-9.02454e-07
3.08499e-06
-8.3725e-07
3.49091e-06
-7.6305e-07
3.86082e-06
-6.82773e-07
4.1919e-06
-5.98728e-07
4.48192e-06
-5.11241e-07
4.72941e-06
-4.21441e-07
4.93389e-06
-3.31897e-07
5.09581e-06
-2.45077e-07
5.21795e-06
-1.63194e-07
5.30741e-06
-8.80028e-08
5.36349e-06
-2.26416e-08
5.38397e-06
3.79655e-08
5.37004e-06
8.75272e-08
5.32529e-06
1.27345e-07
5.25518e-06
1.58108e-07
5.16535e-06
1.80902e-07
5.06102e-06
1.97055e-07
4.94674e-06
2.07637e-07
4.82629e-06
2.13587e-07
4.70268e-06
2.15765e-07
4.57826e-06
2.14932e-07
4.45481e-06
2.11753e-07
4.33365e-06
2.06798e-07
4.21574e-06
2.00539e-07
4.10174e-06
1.93359e-07
3.99214e-06
1.85557e-07
3.88724e-06
1.77366e-07
3.78723e-06
1.68962e-07
3.69221e-06
1.60478e-07
3.60224e-06
1.52013e-07
3.51728e-06
1.43644e-07
3.43729e-06
1.35403e-07
3.36221e-06
1.27242e-07
3.29196e-06
1.19191e-07
3.22639e-06
1.11377e-07
3.16534e-06
1.03877e-07
3.10858e-06
9.67564e-08
3.05584e-06
9.00409e-08
3.0069e-06
8.36298e-08
2.96161e-06
7.73706e-08
2.91989e-06
7.11505e-08
2.88175e-06
6.48562e-08
2.84725e-06
5.84411e-08
2.81648e-06
5.19841e-08
2.7894e-06
4.56569e-08
2.76585e-06
3.96691e-08
2.74554e-06
3.4207e-08
2.72809e-06
2.93922e-08
2.71311e-06
2.52878e-08
2.70018e-06
2.19064e-08
2.68891e-06
1.92391e-08
2.67888e-06
1.72766e-08
2.66973e-06
1.59958e-08
2.66106e-06
1.53708e-08
2.65252e-06
1.53911e-08
2.64375e-06
1.60608e-08
2.63436e-06
1.74117e-08
2.62395e-06
1.95178e-08
2.61204e-06
2.25061e-08
2.59805e-06
2.65771e-08
2.58128e-06
3.20104e-08
2.56075e-06
3.92698e-08
2.53539e-06
4.89159e-08
2.50308e-06
6.25496e-08
2.46297e-06
8.14794e-08
2.40946e-06
1.19314e-07
1.70447e-07
2.33736e-06
1.6602e-07
-1.75287e-07
4.60757e-07
-4.38274e-07
8.69879e-07
-7.39462e-07
1.35474e-06
-1.01823e-06
1.87045e-06
-1.23442e-06
2.38101e-06
-1.37472e-06
2.86403e-06
-1.4453e-06
3.3102e-06
-1.46018e-06
3.71885e-06
-1.43424e-06
4.0934e-06
-1.38025e-06
4.43846e-06
-1.30797e-06
4.75834e-06
-1.22417e-06
5.05609e-06
-1.1331e-06
5.33344e-06
-1.03705e-06
5.59097e-06
-9.36675e-07
5.82821e-06
-8.31558e-07
6.04378e-06
-7.20707e-07
6.23565e-06
-6.02901e-07
6.40134e-06
-4.76971e-07
6.5381e-06
-3.41953e-07
6.64312e-06
-1.97498e-07
6.71802e-06
-4.39802e-08
6.7636e-06
1.20505e-07
6.78283e-06
2.94972e-07
6.77656e-06
4.79849e-07
6.74254e-06
6.74736e-07
6.67387e-06
8.78195e-07
6.55759e-06
1.08659e-06
6.37508e-06
1.29284e-06
6.10464e-06
1.48556e-06
5.72577e-06
1.64911e-06
5.225e-06
1.76514e-06
4.60283e-06
1.81628e-06
3.87956e-06
1.78993e-06
3.09711e-06
1.68295e-06
2.32205e-06
1.50847e-06
1.6382e-06
1.30195e-06
1.10955e-06
1.1123e-06
7.35066e-07
9.51614e-07
4.71303e-07
7.72993e-07
2.9394e-07
5.26655e-07
2.01346e-07
2.0338e-07
2.02578e-07
-1.64559e-07
3.06491e-07
-5.46883e-07
4.99374e-07
-8.85373e-07
7.30116e-07
-1.07723e-06
9.24494e-07
-1.05027e-06
1.02596e-06
-8.21876e-07
1.01311e-06
-4.7419e-07
8.98122e-07
-1.05807e-07
7.14264e-07
2.08638e-07
5.00976e-07
4.27161e-07
2.60461e-07
5.47685e-07
-6.69977e-08
6.19986e-07
-5.71821e-07
7.40088e-07
-1.28566e-06
9.60883e-07
-2.1563e-06
1.23589e-06
-3.1019e-06
1.50862e-06
-4.06382e-06
1.74225e-06
-4.9983e-06
1.91781e-06
-5.8688e-06
2.02699e-06
-6.64674e-06
2.06948e-06
-7.3144e-06
2.05064e-06
-7.86626e-06
1.97985e-06
-8.30674e-06
1.86873e-06
-8.64728e-06
1.72997e-06
-8.90337e-06
1.57561e-06
-9.09193e-06
1.41589e-06
-9.22918e-06
1.25856e-06
-9.32923e-06
1.10868e-06
-9.40326e-06
9.68899e-07
-9.45937e-06
8.39896e-07
-9.50281e-06
7.20978e-07
-9.5364e-06
6.10577e-07
-9.56118e-06
5.06745e-07
-9.57668e-06
4.07516e-07
-9.58117e-06
3.11089e-07
-9.57207e-06
2.15985e-07
-9.54647e-06
1.21119e-07
-9.50139e-06
2.56375e-08
-9.43216e-06
-6.97341e-08
-9.33898e-06
-1.67187e-07
-9.21672e-06
-2.65395e-07
-9.06557e-06
-3.63875e-07
-8.88565e-06
-4.61722e-07
-8.67692e-06
-5.5801e-07
-8.43983e-06
-6.5162e-07
-8.17527e-06
-7.41786e-07
-7.88438e-06
-8.27827e-07
-7.56861e-06
-9.08892e-07
-7.22961e-06
-9.84169e-07
-6.86963e-06
-1.05281e-06
-6.4913e-06
-1.11438e-06
-6.09718e-06
-1.16885e-06
-5.68969e-06
-1.21638e-06
-5.27104e-06
-1.25743e-06
-4.84319e-06
-1.29274e-06
-4.40771e-06
-1.32322e-06
-3.96578e-06
-1.34997e-06
-3.51805e-06
-1.37422e-06
-3.06469e-06
-1.397e-06
-2.6054e-06
-1.41914e-06
-2.13941e-06
-1.44115e-06
-1.66565e-06
-1.46277e-06
-1.18296e-06
-1.48327e-06
-6.90622e-07
-1.50169e-06
-1.89601e-07
-1.51701e-06
3.15969e-07
-1.5276e-06
8.23529e-07
-1.52869e-06
1.32888e-06
-1.5166e-06
1.82649e-06
-1.48807e-06
2.31193e-06
-1.43987e-06
2.78044e-06
-1.37097e-06
3.22622e-06
-1.28302e-06
3.64267e-06
-1.1795e-06
4.02347e-06
-1.06358e-06
4.36512e-06
-9.40376e-07
4.66824e-06
-8.1436e-07
4.93393e-06
-6.87125e-07
5.16303e-06
-5.61e-07
5.35666e-06
-4.38706e-07
5.5162e-06
-3.22741e-07
5.64356e-06
-2.15354e-07
5.73918e-06
-1.18265e-07
5.80737e-06
-3.02281e-08
5.84956e-06
4.53382e-08
5.86562e-06
1.11284e-07
5.85727e-06
1.66461e-07
5.82646e-06
2.1171e-07
5.77585e-06
2.47669e-07
5.70844e-06
2.75046e-07
5.62734e-06
2.9469e-07
5.53557e-06
3.0753e-07
5.43597e-06
3.14534e-07
5.33105e-06
3.1667e-07
5.22299e-06
3.14862e-07
5.11358e-06
3.09948e-07
5.00428e-06
3.02656e-07
4.89625e-06
2.9359e-07
4.79038e-06
2.83234e-07
4.68738e-06
2.71962e-07
4.5878e-06
2.6006e-07
4.49207e-06
2.47744e-07
4.40052e-06
2.35195e-07
4.31336e-06
2.22565e-07
4.23065e-06
2.09953e-07
4.15242e-06
1.97418e-07
4.07877e-06
1.85026e-07
4.00979e-06
1.72859e-07
3.94552e-06
1.61028e-07
3.88598e-06
1.49576e-07
3.83124e-06
1.38368e-07
3.78137e-06
1.27248e-07
3.73636e-06
1.16153e-07
3.69621e-06
1.05016e-07
3.66074e-06
9.39051e-08
3.62969e-06
8.3035e-08
3.60268e-06
7.26692e-08
3.57927e-06
6.30787e-08
3.55898e-06
5.44935e-08
3.54133e-06
4.7049e-08
3.52582e-06
4.07947e-08
3.51202e-06
3.57015e-08
3.49954e-06
3.17192e-08
3.48801e-06
2.88136e-08
3.47707e-06
2.69343e-08
3.4664e-06
2.60391e-08
3.45568e-06
2.61155e-08
3.44455e-06
2.7188e-08
3.43263e-06
2.93342e-08
3.41944e-06
3.27044e-08
3.40441e-06
3.75351e-08
3.3868e-06
4.4185e-08
3.36569e-06
5.31254e-08
3.33981e-06
6.51504e-08
3.30768e-06
8.10462e-08
3.26682e-06
1.0341e-07
3.21563e-06
1.32669e-07
3.15007e-06
1.8487e-07
2.407e-07
3.07982e-06
2.61238e-07
-4.36525e-07
6.83285e-07
-8.60322e-07
1.18643e-06
-1.24261e-06
1.70052e-06
-1.53232e-06
2.17896e-06
-1.71286e-06
2.60301e-06
-1.79876e-06
2.97294e-06
-1.81523e-06
3.29818e-06
-1.78542e-06
3.59038e-06
-1.72643e-06
3.85982e-06
-1.64969e-06
4.11426e-06
-1.56241e-06
4.35884e-06
-1.46876e-06
4.5964e-06
-1.37067e-06
4.82775e-06
-1.2684e-06
5.05207e-06
-1.16099e-06
5.26733e-06
-1.04682e-06
5.47063e-06
-9.24011e-07
5.65861e-06
-7.90877e-07
5.82779e-06
-6.46152e-07
5.97497e-06
-4.89139e-07
6.09723e-06
-3.19757e-07
6.19173e-06
-1.38479e-07
6.25832e-06
5.39176e-08
6.29666e-06
2.56631e-07
6.30909e-06
4.67423e-07
6.299e-06
6.84822e-07
6.26975e-06
9.07449e-07
6.2223e-06
1.13404e-06
6.1523e-06
1.36284e-06
6.04769e-06
1.59016e-06
5.88841e-06
1.80839e-06
5.64927e-06
2.00427e-06
5.30667e-06
2.15888e-06
4.84682e-06
2.24979e-06
4.27365e-06
2.25611e-06
3.61755e-06
2.16457e-06
2.94082e-06
1.97868e-06
2.32749e-06
1.72563e-06
1.83951e-06
1.43959e-06
1.48331e-06
1.1292e-06
1.23287e-06
7.77091e-07
1.06343e-06
3.72818e-07
9.71727e-07
-7.28546e-08
9.57576e-07
-5.32732e-07
9.95418e-07
-9.23214e-07
1.02425e-06
-1.10606e-06
9.77388e-07
-1.00341e-06
8.22342e-07
-6.6683e-07
5.67418e-07
-2.19266e-07
2.49881e-07
2.11731e-07
-9.90584e-08
5.57577e-07
-4.95141e-07
8.23244e-07
-1.0081e-06
1.06065e-06
-1.71262e-06
1.3245e-06
-2.60485e-06
1.63232e-06
-3.59356e-06
1.94959e-06
-4.58428e-06
2.22662e-06
-5.5086e-06
2.43294e-06
-6.32294e-06
2.55659e-06
-7.00284e-06
2.5977e-06
-7.54028e-06
2.56444e-06
-7.94086e-06
2.47006e-06
-8.22058e-06
2.33037e-06
-8.40227e-06
2.16154e-06
-8.51153e-06
1.97799e-06
-8.57283e-06
1.79127e-06
-8.6068e-06
1.60958e-06
-8.62879e-06
1.43788e-06
-8.64873e-06
1.2785e-06
-8.67179e-06
1.13175e-06
-8.69952e-06
9.96626e-07
-8.73099e-06
8.71363e-07
-8.76384e-06
7.53831e-07
-8.79492e-06
6.41658e-07
-8.82066e-06
5.32487e-07
-8.83741e-06
4.24263e-07
-8.8416e-06
3.15274e-07
-8.82985e-06
2.04234e-07
-8.79916e-06
9.04346e-08
-8.74713e-06
-2.63954e-08
-8.67078e-06
-1.46085e-07
-8.56925e-06
-2.68716e-07
-8.44114e-06
-3.93498e-07
-8.28556e-06
-5.19463e-07
-8.10194e-06
-6.45338e-07
-7.89008e-06
-7.69867e-07
-7.65018e-06
-8.91521e-07
-7.38326e-06
-1.0087e-06
-7.09086e-06
-1.12024e-06
-6.77487e-06
-1.22488e-06
-6.43763e-06
-1.32141e-06
-6.0817e-06
-1.40874e-06
-5.70976e-06
-1.48631e-06
-5.32458e-06
-1.55404e-06
-4.92885e-06
-1.61211e-06
-4.52508e-06
-1.6612e-06
-4.11547e-06
-1.70235e-06
-3.70176e-06
-1.73692e-06
-3.28524e-06
-1.76649e-06
-2.86651e-06
-1.79296e-06
-2.44547e-06
-1.81803e-06
-2.02149e-06
-1.84312e-06
-1.59338e-06
-1.86926e-06
-1.15962e-06
-1.89654e-06
-7.18671e-07
-1.92422e-06
-2.69371e-07
-1.95099e-06
1.8815e-07
-1.97453e-06
6.51951e-07
-1.9914e-06
1.1198e-06
-1.99655e-06
1.58843e-06
-1.98522e-06
2.05356e-06
-1.95321e-06
2.51079e-06
-1.89709e-06
2.95522e-06
-1.8154e-06
3.38127e-06
-1.70907e-06
3.78239e-06
-1.58062e-06
4.15219e-06
-1.43338e-06
4.48569e-06
-1.27388e-06
4.782e-06
-1.11067e-06
5.04208e-06
-9.47206e-07
5.26717e-06
-7.86086e-07
5.45893e-06
-6.3047e-07
5.6195e-06
-4.83307e-07
5.75105e-06