/*--------------------------------*- C++ -*----------------------------------*\
| =========                 |                                                 |
| \\      /  F ield         | OpenFOAM: The Open Source CFD Toolbox           |
|  \\    /   O peration     | Version:  2112                                  |
|   \\  /    A nd           | Website:  www.openfoam.com                      |
|    \\/     M anipulation  |                                                 |
\*---------------------------------------------------------------------------*/
FoamFile
{
    version     2.0;
    format      ascii;
    arch        "LSB;label=32;scalar=64";
    class       volVectorField;
    location    "0.08";
    object      U;
}
// * * * * * * * * * * * * * * * * * * * * * * * * * * * * * * * * * * * * * //

dimensions      [0 1 -1 0 0 0 0];

internalField   nonuniform List<vector> 
12225
(
(9.75726 0.0598341 0)
(9.27804 0.0947313 0)
(8.79672 0.0990258 0)
(8.33594 0.0976702 0)
(7.92256 0.0932812 0)
(7.56798 0.0862901 0)
(7.27692 0.079531 0)
(7.02889 0.0743808 0)
(6.82621 0.0690248 0)
(6.67244 0.0618496 0)
(6.56736 0.0526847 0)
(6.50539 0.042183 0)
(6.47847 0.0343825 0)
(6.47549 0.0306726 0)
(6.48048 0.0302981 0)
(6.48872 0.033408 0)
(6.44994 0.0594375 0)
(6.42462 0.0442387 0)
(10.1051 0.0738328 0)
(10.313 0.107097 0)
(10.4485 0.106855 0)
(10.5179 0.105181 0)
(10.5377 0.100584 0)
(10.5157 0.0914393 0)
(10.4576 0.0805683 0)
(10.3688 0.0697114 0)
(10.253 0.0570704 0)
(10.1114 0.0418151 0)
(9.94547 0.0251148 0)
(9.75834 0.00891677 0)
(9.55474 -0.00370371 0)
(9.34111 -0.0113861 0)
(9.12427 -0.0147604 0)
(8.91418 -0.0100554 0)
(8.7096 0.00355992 0)
(8.59244 0.0737034 0)
(10.0112 0.0356473 0)
(10.062 0.0539143 0)
(10.1158 0.0586 0)
(10.1652 0.0667682 0)
(10.2143 0.0740928 0)
(10.2615 0.0787476 0)
(10.3026 0.0830967 0)
(10.3368 0.0885663 0)
(10.3639 0.0943497 0)
(10.3825 0.10018 0)
(10.391 0.106682 0)
(10.3881 0.114454 0)
(10.373 0.122774 0)
(10.3454 0.1312 0)
(10.3046 0.13952 0)
(10.2512 0.149735 0)
(10.1872 0.159892 0)
(10.1151 0.178914 0)
(10.0062 0.02973 0)
(10.0349 0.0581811 0)
(10.0619 0.067864 0)
(10.081 0.0741998 0)
(10.098 0.0779484 0)
(10.1155 0.0785499 0)
(10.1322 0.0778569 0)
(10.148 0.0771944 0)
(10.1638 0.0762323 0)
(10.1793 0.0746263 0)
(10.194 0.0727552 0)
(10.2077 0.0713703 0)
(10.2205 0.0712878 0)
(10.2332 0.0737607 0)
(10.2463 0.0796432 0)
(10.2612 0.0901693 0)
(10.2788 0.104573 0)
(10.3035 0.120614 0)
(10.0045 0.0247557 0)
(10.0271 0.0518205 0)
(10.0503 0.0603616 0)
(10.0666 0.0650749 0)
(10.0797 0.0686451 0)
(10.0921 0.0701477 0)
(10.1032 0.0706437 0)
(10.1128 0.0713858 0)
(10.1217 0.0723859 0)
(10.1302 0.0734661 0)
(10.1381 0.0750104 0)
(10.1454 0.0776964 0)
(10.1525 0.0820077 0)
(10.1601 0.0882494 0)
(10.1689 0.0963476 0)
(10.1805 0.106459 0)
(10.1962 0.117366 0)
(10.2208 0.127757 0)
(10.0032 0.0202483 0)
(10.021 0.0453148 0)
(10.0415 0.0551551 0)
(10.0573 0.0608878 0)
(10.0701 0.0654266 0)
(10.082 0.0679347 0)
(10.0926 0.069082 0)
(10.1019 0.0700092 0)
(10.1102 0.070928 0)
(10.1179 0.0717376 0)
(10.1249 0.0726933 0)
(10.1312 0.0742686 0)
(10.1373 0.0768094 0)
(10.1437 0.0805769 0)
(10.1513 0.085655 0)
(10.1611 0.0921085 0)
(10.1743 0.0989239 0)
(10.1926 0.104656 0)
(10.0023 0.0166531 0)
(10.0163 0.0397602 0)
(10.0341 0.0505588 0)
(10.049 0.0566123 0)
(10.0613 0.0610772 0)
(10.0727 0.0637134 0)
(10.0831 0.0650176 0)
(10.0924 0.0659659 0)
(10.1007 0.0669034 0)
(10.1085 0.0678428 0)
(10.1158 0.0689986 0)
(10.1226 0.0707589 0)
(10.1292 0.0734357 0)
(10.1363 0.0772182 0)
(10.1445 0.0820709 0)
(10.1546 0.0877198 0)
(10.1673 0.0931828 0)
(10.1834 0.096844 0)
(10.0017 0.0138201 0)
(10.0127 0.034723 0)
(10.028 0.0458308 0)
(10.0419 0.0520494 0)
(10.0535 0.0565024 0)
(10.0643 0.0594166 0)
(10.0745 0.0611051 0)
(10.0836 0.0623162 0)
(10.092 0.0634417 0)
(10.0999 0.0645711 0)
(10.1073 0.0658745 0)
(10.1145 0.0676343 0)
(10.1216 0.070067 0)
(10.1293 0.0732415 0)
(10.1379 0.0770096 0)
(10.148 0.0809883 0)
(10.1601 0.0843511 0)
(10.1744 0.0859318 0)
(10.0012 0.0115488 0)
(10.01 0.0301579 0)
(10.023 0.0411669 0)
(10.0357 0.0475466 0)
(10.0468 0.0520291 0)
(10.0571 0.0551295 0)
(10.0668 0.0570742 0)
(10.0759 0.0584364 0)
(10.0842 0.0596238 0)
(10.0921 0.0607894 0)
(10.0997 0.0620787 0)
(10.1071 0.0636934 0)
(10.1146 0.0657754 0)
(10.1225 0.068328 0)
(10.1313 0.0711703 0)
(10.1414 0.0739247 0)
(10.1527 0.0759493 0)
(10.1656 0.0764128 0)
(10.0009 0.00970014 0)
(10.0079 0.0260743 0)
(10.0189 0.0366614 0)
(10.0305 0.043085 0)
(10.041 0.0475348 0)
(10.0508 0.050696 0)
(10.0601 0.0527956 0)
(10.069 0.0542742 0)
(10.0773 0.0555138 0)
(10.0852 0.0566973 0)
(10.0929 0.0579493 0)
(10.1005 0.0594055 0)
(10.1082 0.0611463 0)
(10.1163 0.0631321 0)
(10.1251 0.0651727 0)
(10.1349 0.06693 0)
(10.1455 0.0679109 0)
(10.157 0.0675648 0)
(10.0007 0.00816947 0)
(10.0063 0.0224436 0)
(10.0157 0.0323595 0)
(10.0261 0.0386697 0)
(10.0359 0.0430235 0)
(10.0452 0.0461641 0)
(10.0542 0.0483429 0)
(10.0629 0.049896 0)
(10.0711 0.0511537 0)
(10.079 0.0523044 0)
(10.0867 0.053457 0)
(10.0944 0.0546997 0)
(10.1023 0.0560688 0)
(10.1105 0.0575034 0)
(10.1192 0.0588277 0)
(10.1285 0.0597651 0)
(10.1384 0.0599573 0)
(10.1488 0.0590628 0)
(10.0006 0.00696221 0)
(10.0052 0.0194325 0)
(10.0133 0.02858 0)
(10.0227 0.0346582 0)
(10.0319 0.0388701 0)
(10.0408 0.0419308 0)
(10.0495 0.0441109 0)
(10.0579 0.0456771 0)
(10.066 0.0469078 0)
(10.0739 0.0479838 0)
(10.0816 0.0490022 0)
(10.0894 0.0500209 0)
(10.0973 0.0510493 0)
(10.1054 0.0520207 0)
(10.1139 0.0527842 0)
(10.1229 0.0531244 0)
(10.1321 0.0527844 0)
(10.1416 0.0515626 0)
(10.0005 0.00593843 0)
(10.0044 0.0167479 0)
(10.0114 0.0250121 0)
(10.0199 0.0307283 0)
(10.0285 0.0347358 0)
(10.0369 0.0376592 0)
(10.0453 0.0397743 0)
(10.0535 0.0413023 0)
(10.0615 0.0424716 0)
(10.0693 0.043444 0)
(10.077 0.044305 0)
(10.0848 0.0450929 0)
(10.0926 0.0458015 0)
(10.1006 0.0463667 0)
(10.1089 0.0466656 0)
(10.1174 0.0465379 0)
(10.1261 0.0458029 0)
(10.1349 0.0443559 0)
(10.0004 0.00491365 0)
(10.0036 0.0139696 0)
(10.0096 0.0211519 0)
(10.0172 0.0263247 0)
(10.0251 0.0300122 0)
(10.0331 0.0327086 0)
(10.0411 0.0346747 0)
(10.049 0.0360943 0)
(10.0568 0.0371451 0)
(10.0645 0.0379611 0)
(10.0722 0.0386142 0)
(10.0799 0.0391295 0)
(10.0876 0.0394932 0)
(10.0954 0.0396514 0)
(10.1034 0.0395134 0)
(10.1115 0.0389723 0)
(10.1195 0.0379135 0)
(10.1276 0.0363052 0)
(10.0003 0.00388848 0)
(10.003 0.011127 0)
(10.0081 0.0170457 0)
(10.0147 0.0214646 0)
(10.022 0.0246709 0)
(10.0295 0.0270159 0)
(10.037 0.0287209 0)
(10.0447 0.0299344 0)
(10.0523 0.0307874 0)
(10.0598 0.0313819 0)
(10.0673 0.0317745 0)
(10.0748 0.0319825 0)
(10.0824 0.0319924 0)
(10.0899 0.0317658 0)
(10.0975 0.0312442 0)
(10.1051 0.0303667 0)
(10.1125 0.0290693 0)
(10.1199 0.0273681 0)
(10.0003 0.00285924 0)
(10.0025 0.00822075 0)
(10.0069 0.0127041 0)
(10.0127 0.0161438 0)
(10.0193 0.0186724 0)
(10.0262 0.0205086 0)
(10.0333 0.021815 0)
(10.0406 0.0227018 0)
(10.0479 0.0232593 0)
(10.0552 0.023558 0)
(10.0625 0.0236386 0)
(10.0698 0.0235137 0)
(10.0771 0.0231751 0)
(10.0843 0.0226007 0)
(10.0914 0.0217597 0)
(10.0985 0.0206255 0)
(10.1053 0.0191682 0)
(10.112 0.0174299 0)
(10.0002 0.00181017 0)
(10.0021 0.00521671 0)
(10.0059 0.008098 0)
(10.011 0.0103339 0)
(10.017 0.0119686 0)
(10.0234 0.0131134 0)
(10.0302 0.0138646 0)
(10.0371 0.0142909 0)
(10.0441 0.0144468 0)
(10.0511 0.0143741 0)
(10.0581 0.0140978 0)
(10.0651 0.0136269 0)
(10.072 0.0129583 0)
(10.0788 0.0120829 0)
(10.0855 0.010989 0)
(10.092 0.00967083 0)
(10.0983 0.00811812 0)
(10.1044 0.00638171 0)
(10.0002 0.000705354 0)
(10.0019 0.00202448 0)
(10.0053 0.00311755 0)
(10.0099 0.00392065 0)
(10.0154 0.0044319 0)
(10.0215 0.00468166 0)
(10.0278 0.00470328 0)
(10.0343 0.00452431 0)
(10.041 0.00416627 0)
(10.0477 0.00364518 0)
(10.0544 0.00297073 0)
(10.061 0.0021465 0)
(10.0675 0.00117172 0)
(10.0739 4.40308e-05 0)
(10.0802 -0.00123886 0)
(10.0862 -0.00267353 0)
(10.092 -0.0042624 0)
(10.0976 -0.00595774 0)
(10.0002 -0.00052933 0)
(10.0018 -0.00154878 0)
(10.005 -0.00248377 0)
(10.0095 -0.00334074 0)
(10.0148 -0.00416041 0)
(10.0206 -0.00498671 0)
(10.0267 -0.00584592 0)
(10.033 -0.00675058 0)
(10.0393 -0.00771075 0)
(10.0458 -0.00873613 0)
(10.0521 -0.00983451 0)
(10.0584 -0.0110115 0)
(10.0646 -0.0122716 0)
(10.0706 -0.0136184 0)
(10.0764 -0.015054 0)
(10.0821 -0.0165762 0)
(10.0875 -0.0181874 0)
(10.0927 -0.0198528 0)
(10.0002 -0.00172667 0)
(10.002 -0.00500184 0)
(10.0054 -0.00785244 0)
(10.0102 -0.0102337 0)
(10.0156 -0.0122526 0)
(10.0214 -0.0140419 0)
(10.0275 -0.0156832 0)
(10.0338 -0.0172224 0)
(10.0401 -0.0186961 0)
(10.0464 -0.0201353 0)
(10.0526 -0.0215609 0)
(10.0587 -0.022986 0)
(10.0647 -0.0244202 0)
(10.0704 -0.0258726 0)
(10.076 -0.0273523 0)
(10.0814 -0.0288648 0)
(10.0865 -0.0304197 0)
(10.0914 -0.0319977 0)
(10.0003 -0.00281517 0)
(10.0023 -0.00809425 0)
(10.0063 -0.0125274 0)
(10.0115 -0.0160577 0)
(10.0173 -0.0189319 0)
(10.0234 -0.0213936 0)
(10.0296 -0.0235688 0)
(10.036 -0.0255319 0)
(10.0423 -0.0273519 0)
(10.0486 -0.0290816 0)
(10.0548 -0.0307484 0)
(10.0609 -0.0323635 0)
(10.0668 -0.0339355 0)
(10.0725 -0.0354751 0)
(10.0779 -0.0369955 0)
(10.0832 -0.0385087 0)
(10.0882 -0.0400301 0)
(10.0929 -0.0415542 0)
(10.0003 -0.00398821 0)
(10.003 -0.0113234 0)
(10.0078 -0.0171719 0)
(10.0138 -0.0215871 0)
(10.0201 -0.025099 0)
(10.0265 -0.0280721 0)
(10.0329 -0.030633 0)
(10.0394 -0.0328698 0)
(10.0458 -0.0348886 0)
(10.0521 -0.0367668 0)
(10.0583 -0.038535 0)
(10.0644 -0.0402003 0)
(10.0703 -0.0417705 0)
(10.076 -0.043261 0)
(10.0814 -0.0446939 0)
(10.0865 -0.0460928 0)
(10.0914 -0.0474862 0)
(10.096 -0.0488868 0)
(10.0005 -0.00535235 0)
(10.004 -0.0148922 0)
(10.01 -0.0219413 0)
(10.017 -0.026915 0)
(10.0239 -0.0308223 0)
(10.0306 -0.0341559 0)
(10.0374 -0.0370272 0)
(10.0441 -0.0395462 0)
(10.0507 -0.0418498 0)
(10.0571 -0.044011 0)
(10.0634 -0.0460323 0)
(10.0695 -0.0478929 0)
(10.0755 -0.0495841 0)
(10.0812 -0.0511164 0)
(10.0867 -0.0525143 0)
(10.0918 -0.0538088 0)
(10.0966 -0.0550356 0)
(10.1011 -0.0562147 0)
(10.0007 -0.00704182 0)
(10.0056 -0.0189542 0)
(10.0133 -0.0269221 0)
(10.0215 -0.0321899 0)
(10.0288 -0.0362707 0)
(10.0359 -0.0396174 0)
(10.0429 -0.0423379 0)
(10.0497 -0.044675 0)
(10.0563 -0.0468641 0)
(10.0628 -0.0489883 0)
(10.0692 -0.0510138 0)
(10.0754 -0.0528833 0)
(10.0816 -0.0545697 0)
(10.0874 -0.056081 0)
(10.093 -0.0574481 0)
(10.0983 -0.0587155 0)
(10.1032 -0.0599427 0)
(10.1078 -0.0611976 0)
(10.001 -0.00927113 0)
(10.008 -0.0235295 0)
(10.0179 -0.0317772 0)
(10.0272 -0.0372512 0)
(10.0352 -0.0419872 0)
(10.0428 -0.0459768 0)
(10.0502 -0.049125 0)
(10.0572 -0.0517652 0)
(10.0638 -0.0542252 0)
(10.0702 -0.0565927 0)
(10.0766 -0.0587809 0)
(10.0829 -0.0606768 0)
(10.0891 -0.0622257 0)
(10.0951 -0.0634289 0)
(10.1006 -0.0643198 0)
(10.1058 -0.0649455 0)
(10.1105 -0.0653632 0)
(10.1146 -0.0655897 0)
(10.0017 -0.0124159 0)
(10.0119 -0.029148 0)
(10.0242 -0.036225 0)
(10.0341 -0.0400658 0)
(10.0421 -0.0436899 0)
(10.05 -0.0469043 0)
(10.0577 -0.0495633 0)
(10.0648 -0.0520342 0)
(10.0714 -0.0546463 0)
(10.0778 -0.0574449 0)
(10.0844 -0.0602556 0)
(10.091 -0.0628825 0)
(10.0976 -0.065224 0)
(10.104 -0.0672708 0)
(10.1101 -0.0690778 0)
(10.1158 -0.0707224 0)
(10.1211 -0.0723258 0)
(10.1261 -0.07396 0)
(10.0029 -0.0162084 0)
(10.0178 -0.0370268 0)
(10.0336 -0.0463252 0)
(10.0444 -0.0520783 0)
(10.0529 -0.0564865 0)
(10.0614 -0.0593785 0)
(10.07 -0.0612219 0)
(10.0781 -0.0627243 0)
(10.0859 -0.0642954 0)
(10.0939 -0.0659457 0)
(10.1024 -0.0674314 0)
(10.1113 -0.0685125 0)
(10.1205 -0.0690539 0)
(10.1296 -0.0690055 0)
(10.1386 -0.0683779 0)
(10.1471 -0.0672301 0)
(10.1552 -0.0656603 0)
(10.1622 -0.0635902 0)
(10.0046 -0.0188216 0)
(10.0292 -0.0310139 0)
(10.0558 -0.0339482 0)
(10.0786 -0.0393862 0)
(10.1012 -0.0456651 0)
(10.1251 -0.0508321 0)
(10.1491 -0.0552781 0)
(10.1723 -0.059844 0)
(10.1949 -0.0650292 0)
(10.2174 -0.0707035 0)
(10.2401 -0.0763545 0)
(10.2624 -0.0816529 0)
(10.2838 -0.0865262 0)
(10.3038 -0.0910087 0)
(10.3218 -0.0951785 0)
(10.3374 -0.0991593 0)
(10.3505 -0.103112 0)
(10.3611 -0.107005 0)
(10.0549 -0.049481 0)
(10.1822 -0.0761328 0)
(10.2841 -0.0771748 0)
(10.3596 -0.0781655 0)
(10.4164 -0.0794207 0)
(10.4575 -0.0792307 0)
(10.4829 -0.0779493 0)
(10.494 -0.0764614 0)
(10.493 -0.0756883 0)
(10.4819 -0.0756068 0)
(10.4617 -0.0752408 0)
(10.4323 -0.0737945 0)
(10.3937 -0.0709263 0)
(10.3459 -0.0665762 0)
(10.2894 -0.0608291 0)
(10.2244 -0.0540264 0)
(10.1521 -0.0464658 0)
(10.0725 -0.0394307 0)
(9.86858 -0.0426352 0)
(9.60473 -0.0724508 0)
(9.32656 -0.0792606 0)
(9.04575 -0.0818174 0)
(8.77761 -0.0827606 0)
(8.52696 -0.0821789 0)
(8.29368 -0.0806212 0)
(8.07796 -0.078896 0)
(7.87699 -0.0779091 0)
(7.68534 -0.0777995 0)
(7.50349 -0.077889 0)
(7.33296 -0.0774758 0)
(7.17556 -0.0761604 0)
(7.03326 -0.0737732 0)
(6.90765 -0.0702835 0)
(6.79986 -0.0658137 0)
(6.709 -0.060903 0)
(6.63695 -0.0544194 0)
(-0.00243221 0.00430196 -3.06567e-21)
(-0.00435247 0.0047426 2.92196e-21)
(-0.00817816 0.00522119 0)
(-0.0121429 0.00583618 0)
(-0.0164332 0.00654172 0)
(-0.0211661 0.00731038 -2.90579e-21)
(-0.0263827 0.008128 0)
(-0.0321133 0.0089897 0)
(-0.0384015 0.00988966 0)
(-0.0453026 0.0107793 0)
(-0.0528622 0.011468 2.88052e-21)
(-0.0610566 0.0114784 0)
(-0.0696889 0.0100462 0)
(-0.0783111 0.00675585 0)
(-0.0864039 0.00273185 0)
(-0.0939657 0.00021656 2.71482e-21)
(-0.101635 0.000260615 0)
(-0.110101 0.00224545 0)
(-0.119769 0.00513067 0)
(-0.13078 0.00817508 0)
(-0.143123 0.0109978 0)
(-0.156719 0.0134536 0)
(-0.171492 0.0155267 0)
(-0.187381 0.0172734 2.32074e-21)
(-0.204349 0.0187771 -2.29504e-21)
(-0.222386 0.0201233 2.27162e-21)
(-0.241509 0.0213875 2.24997e-21)
(-0.261757 0.022631 0)
(-0.283187 0.0238998 0)
(-0.305867 0.0252248 -2.19306e-21)
(-0.329872 0.0266257 -2.17648e-21)
(-0.355279 0.0281222 0)
(-0.382171 0.0297594 0)
(-0.410667 0.0316647 -2.13441e-21)
(-0.440957 0.0341551 0)
(-0.473318 0.0373925 0)
(-0.508056 0.040751 2.10929e-21)
(-0.545281 0.0437377 0)
(-0.584936 0.0465144 2.10271e-21)
(-0.627036 0.0492254 4.20268e-21)
(-0.671617 0.0519089 0)
(-0.718708 0.0545486 0)
(-0.768309 0.0571114 0)
(-0.820393 0.059563 0)
(-0.874902 0.0618708 0)
(-0.931748 0.0640048 4.24336e-21)
(-0.990813 0.0659382 4.26002e-21)
(-1.05195 0.0676465 4.27957e-21)
(-1.11499 0.0691057 0)
(-1.17972 0.0702936 -4.32726e-21)
(-1.24592 0.0711927 0)
(-1.31335 0.07179 4.38579e-21)
(-1.38173 0.072073 4.41873e-21)
(-1.45079 0.0720257 0)
(-1.52023 0.0716298 0)
(-1.58974 0.0708698 0)
(-1.659 0.0697437 4.56891e-21)
(-1.72772 0.0682911 0)
(-1.79561 0.066635 0)
(-1.86247 0.0649149 0)
(-1.92817 0.0631415 0)
(-1.99255 0.0612556 0)
(-2.05545 0.0592496 0)
(-2.11673 0.0571494 0)
(-2.17629 0.0549862 0)
(-2.23405 0.052791 -4.91178e-21)
(-2.28999 0.050594 0)
(-2.34408 0.0484246 0)
(-2.39635 0.0463105 4.99585e-21)
(-2.44685 0.0442781 5.01885e-21)
(-2.49565 0.0423503 0)
(-2.54284 0.0405458 -5.05717e-21)
(-2.58854 0.0388784 5.07258e-21)
(-2.63285 0.0373564 0)
(-2.67593 0.0359823 -5.09637e-21)
(-2.7179 0.0347531 0)
(-2.7589 0.0336636 0)
(-2.79908 0.032711 5.11638e-21)
(-2.83856 0.0318966 0)
(-2.87749 0.031219 -5.12096e-21)
(-2.91599 0.0306693 0)
(-2.95419 0.0302349 5.11988e-21)
(-2.99219 0.0299022 5.11754e-21)
(-3.0301 0.0296577 5.11416e-21)
(-3.068 0.0294889 1.02196e-20)
(-3.10597 0.0293833 -1.02091e-20)
(-3.14408 0.029327 0)
(-3.18237 0.0293043 0)
(-3.22089 0.0293021 0)
(-3.25966 0.0293183 -1.0151e-20)
(-3.29871 0.0293799 -1.01324e-20)
(-3.33807 0.0295509 1.01121e-20)
(-3.37779 0.0298476 0)
(-3.41787 0.030194 -1.00659e-20)
(-3.45831 0.0305324 -1.00397e-20)
(-3.49905 0.0308537 -1.0011e-20)
(-3.54006 0.0311504 0)
(-3.58128 0.0314133 0)
(-3.62265 0.0316354 0)
(-3.66409 0.0318134 -9.86419e-21)
(-3.70552 0.0319467 0)
(-3.74685 0.0320337 0)
(-3.78799 0.03207 9.70622e-21)
(-3.82883 0.0320495 0)
(-3.86925 0.0319645 0)
(-3.90912 0.031806 9.48819e-21)
(-3.94829 0.0315676 0)
(-3.98662 0.0312482 0)
(-4.02395 0.0308514 -9.18898e-21)
(-4.06013 0.0303808 -9.06712e-21)
(-4.09498 0.0298357 0)
(-4.12833 0.0292073 8.78462e-21)
(-4.15998 0.0284756 0)
(-4.18974 0.0276061 -8.44387e-21)
(-4.21735 0.0265422 0)
(-4.24254 0.0251994 -8.03669e-21)
(-4.26495 0.023466 -7.80596e-21)
(-4.28409 0.0212525 0)
(-4.29938 0.0187196 0)
(-4.31058 0.0164912 0)
(-4.3175 0.0146864 0)
(-4.31927 0.0137234 0)
(-4.31627 0.0124568 0)
(-4.30813 0.0105973 0)
(-4.2943 0.00808189 -5.12576e-21)
(-4.27402 0.00484809 4.65892e-21)
(-4.24644 0.000823903 0)
(-4.21053 -0.00406436 0)
(-4.16517 -0.00983822 0)
(-4.10902 -0.0164267 0)
(-4.04052 -0.0237419 3.39717e-21)
(-3.95797 -0.0318095 0)
(-3.85961 -0.0407057 -3.13225e-22)
(-3.74354 -0.0505937 -1.40622e-21)
(-3.60766 -0.0616276 0)
(-3.44972 -0.0738469 0)
(-3.26749 -0.087244 0)
(-3.05887 -0.101791 9.50473e-21)
(-2.82207 -0.117391 1.17982e-20)
(-2.55552 -0.134069 0)
(-2.25794 -0.151724 1.65601e-20)
(-1.92912 -0.169645 1.89529e-20)
(-1.57099 -0.185653 -2.12798e-20)
(-1.18954 -0.194959 0)
(-0.800731 -0.190414 0)
(-0.416208 -0.179949 -2.71281e-20)
(-0.0254112 -0.177787 0)
(0.376993 -0.193627 0)
(0.790739 -0.201993 0)
(1.21951 -0.196329 0)
(1.63984 -0.182963 3.10373e-20)
(2.04324 -0.166744 3.08184e-20)
(2.42459 -0.149557 0)
(2.78034 -0.131786 2.96671e-20)
(3.10752 -0.112861 0)
(3.40356 -0.0930908 0)
(3.66821 -0.0742208 2.69342e-20)
(3.90302 -0.057611 0)
(4.11093 -0.0436668 2.48353e-20)
(4.29484 -0.0326653 0)
(4.45698 -0.0241427 0)
(4.59946 -0.0174356 2.1731e-20)
(4.72437 -0.012116 0)
(4.83365 -0.0079369 1.98382e-20)
(4.9291 -0.00473089 0)
(5.0124 -0.00235925 0)
(5.08513 -0.000689248 0)
(5.14868 0.000428516 -1.66808e-20)
(5.20419 0.00118317 0)
(5.25244 0.00181238 1.54521e-20)
(5.2937 0.00258457 0)
(5.32761 0.00368394 0)
(5.35327 0.0050565 0)
(5.3685 0.00758712 0)
(5.37023 0.0131458 0)
(5.3568 0.0194405 0)
(5.32719 0.0266218 0)
(5.26838 0.0367764 -2.68849e-20)
(5.19349 0.0620988 0)
(4.92922 0.091771 0)
(-0.00283079 0.00951527 9.09789e-21)
(-0.0049717 0.0102809 -8.67332e-21)
(-0.00921987 0.0111138 0)
(-0.0135283 0.0120279 5.75726e-21)
(-0.0180818 0.013016 0)
(-0.0229772 0.0140636 2.87806e-21)
(-0.0282281 0.0151662 -5.75592e-21)
(-0.0338273 0.0163362 -5.75533e-21)
(-0.0397621 0.0176018 0)
(-0.0460126 0.0189954 -5.74197e-21)
(-0.0525643 0.0205239 -2.86365e-21)
(-0.0594496 0.0221258 0)
(-0.0668265 0.023648 0)
(-0.075065 0.0249119 0)
(-0.0846192 0.0259 0)
(-0.0954513 0.0268579 -2.70144e-21)
(-0.10704 0.02809 0)
(-0.119048 0.0296981 5.12165e-21)
(-0.131448 0.0316041 0)
(-0.144352 0.033682 0)
(-0.157925 0.0358324 -4.78111e-21)
(-0.172331 0.0379981 0)
(-0.187699 0.0401595 4.63003e-21)
(-0.204129 0.0423261 -2.28588e-21)
(-0.22171 0.044523 2.25933e-21)
(-0.240518 0.04678 -2.23515e-21)
(-0.260628 0.049125 -2.2128e-21)
(-0.282115 0.05158 0)
(-0.305058 0.0541604 0)
(-0.329546 0.0568747 2.15396e-21)
(-0.355681 0.0597275 -2.12528e-21)
(-0.38358 0.0627244 0)
(-0.413379 0.0658819 0)
(-0.445227 0.0692406 2.09271e-21)
(-0.479239 0.072882 0)
(-0.515472 0.0768966 0)
(-0.554019 0.0812461 -2.06137e-21)
(-0.595062 0.0857699 0)
(-0.638776 0.0903706 2.01707e-21)
(-0.68526 0.0950007 -4.08541e-21)
(-0.734554 0.099624 0)
(-0.786661 0.104197 0)
(-0.841557 0.108668 -8.0639e-21)
(-0.899184 0.112977 -8.06185e-21)
(-0.959452 0.117063 -8.06593e-21)
(-1.02223 0.120865 3.99261e-21)
(-1.08736 0.124327 -4.0935e-21)
(-1.15464 0.127392 -1.22231e-20)
(-1.22384 0.130012 8.14697e-21)
(-1.2947 0.132143 4.14101e-21)
(-1.36692 0.133747 0)
(-1.4402 0.134795 -4.18736e-21)
(-1.5142 0.135269 4.11762e-21)
(-1.5886 0.135156 0)
(-1.66307 0.134457 0)
(-1.73727 0.133186 0)
(-1.81091 0.131372 -4.34454e-21)
(-1.88372 0.129066 0)
(-1.95546 0.126337 8.7558e-21)
(-2.02588 0.123259 0)
(-2.09475 0.119887 8.91201e-21)
(-2.16189 0.116259 0)
(-2.22718 0.112428 -9.06383e-21)
(-2.29052 0.108453 0)
(-2.35184 0.104397 9.20561e-21)
(-2.41113 0.100318 -4.60817e-21)
(-2.46839 0.0962746 0)
(-2.52366 0.0923172 -9.38987e-21)
(-2.57702 0.0884914 -4.74455e-21)
(-2.62854 0.084836 -4.76727e-21)
(-2.67833 0.0813826 0)
(-2.72654 0.0781554 -4.7647e-21)
(-2.77328 0.0751718 -4.82171e-21)
(-2.81871 0.0724423 0)
(-2.86297 0.0699719 4.8471e-21)
(-2.90622 0.0677601 -9.67666e-21)
(-2.94861 0.0658023 0)
(-2.99029 0.0640902 -4.87084e-21)
(-3.0314 0.0626117 0)
(-3.07207 0.0613515 1.46004e-20)
(-3.11242 0.0602917 0)
(-3.15256 0.0594132 -1.46082e-20)
(-3.1926 0.0586964 -4.8808e-21)
(-3.23263 0.0581212 4.84418e-21)
(-3.27272 0.0576677 9.68391e-21)
(-3.31293 0.0573163 -9.67788e-21)
(-3.35333 0.0570477 0)
(-3.39395 0.056844 0)
(-3.43483 0.0566889 0)
(-3.476 0.0565666 2.90594e-20)
(-3.51747 0.0564601 9.69639e-21)
(-3.55923 0.056349 -9.68173e-21)
(-3.60125 0.0562105 0)
(-3.64349 0.0560232 -9.57984e-21)
(-3.68589 0.0557733 9.62756e-21)
(-3.72841 0.055452 9.6053e-21)
(-3.77097 0.0550502 0)
(-3.81349 0.054558 0)
(-3.85587 0.0539653 0)
(-3.89801 0.0532618 9.48591e-21)
(-3.93978 0.0524367 0)
(-3.98105 0.0514795 -1.87448e-20)
(-4.02167 0.0503799 -2.79975e-20)
(-4.06149 0.0491286 1.85355e-20)
(-4.10033 0.047717 0)
(-4.13801 0.0461376 9.11139e-21)
(-4.17434 0.0443839 0)
(-4.20912 0.0424494 1.79378e-20)
(-4.24214 0.0403276 -8.85198e-21)
(-4.27316 0.0380112 -8.74472e-21)
(-4.30194 0.035492 0)
(-4.32823 0.0327619 -2.55311e-20)
(-4.35175 0.0298144 1.67157e-20)
(-4.37222 0.0266424 8.20244e-21)
(-4.38936 0.023233 0)
(-4.40293 0.0195735 7.82011e-21)
(-4.41273 0.0156665 2.2805e-20)
(-4.41848 0.0114434 0)
(-4.41965 0.00651525 1.42181e-20)
(-4.41657 0.00064164 1.36537e-20)
(-4.40942 -0.00526967 1.30387e-20)
(-4.39788 -0.0107696 0)
(-4.38086 -0.0163618 0)
(-4.35758 -0.0223186 0)
(-4.32745 -0.0287872 -5.0487e-21)
(-4.28985 -0.0358836 -4.54236e-21)
(-4.24408 -0.0437254 0)
(-4.18933 -0.0524816 -7.12014e-21)
(-4.12463 -0.0623423 -5.98746e-21)
(-4.04882 -0.0734573 0)
(-3.9606 -0.0859483 -3.29775e-21)
(-3.85847 -0.0999329 -4.06765e-21)
(-3.74076 -0.115434 3.03545e-22)
(-3.60569 -0.132482 -8.9079e-22)
(-3.45142 -0.151154 0)
(-3.27617 -0.171448 0)
(-3.07819 -0.193253 0)
(-2.85586 -0.216334 -9.1855e-21)
(-2.60807 -0.240156 1.06176e-20)
(-2.3341 -0.264259 2.65155e-20)
(-2.03384 -0.287935 -1.59904e-20)
(-1.70809 -0.309452 1.74024e-20)
(-1.35889 -0.325584 2.05719e-20)
(-0.988383 -0.333386 0)
(-0.599195 -0.333542 0)
(-0.190028 -0.335137 -2.58381e-20)
(0.238839 -0.342199 0)
(0.674523 -0.34558 0)
(1.11761 -0.353067 5.82923e-20)
(1.55723 -0.353686 0)
(1.98744 -0.344809 2.92717e-20)
(2.40328 -0.329281 -2.97125e-20)
(2.7995 -0.309649 0)
(3.17152 -0.287578 2.80867e-20)
(3.51637 -0.264041 0)
(3.83324 -0.239149 0)
(4.12378 -0.214423 -2.61259e-20)
(4.38801 -0.19082 5.00361e-20)
(4.62548 -0.168583 -2.41926e-20)
(4.83659 -0.148323 0)
(5.0226 -0.130297 0)
(5.18507 -0.114349 2.11958e-20)
(5.32575 -0.100229 0)
(5.44641 -0.0877579 1.94482e-20)
(5.54881 -0.0768146 0)
(5.63474 -0.0672426 0)
(5.706 -0.0588653 0)
(5.76431 -0.0514969 1.63143e-20)
(5.81119 -0.0449222 0)
(5.84791 -0.0388822 -1.5064e-20)
(5.87532 -0.0330657 0)
(5.89385 -0.0271336 0)
(5.90391 -0.0205199 2.74095e-20)
(5.9056 -0.0132281 -2.67274e-20)
(5.89911 -0.00382294 0)
(5.88147 0.00693387 0)
(5.85182 0.0200281 0)
(5.79915 0.0380372 7.71394e-20)
(5.74313 0.0764369 0)
(5.60052 0.133085 -5.27328e-20)
(-0.0028903 0.0179975 1.00462e-25)
(-0.00494843 0.0195323 1.15418e-20)
(-0.00949524 0.0210926 0)
(-0.0140566 0.0227421 -1.14821e-20)
(-0.0188528 0.0245028 0)
(-0.0239946 0.0263536 0)
(-0.0294996 0.0282651 -2.10071e-24)
(-0.0353713 0.0302144 5.73194e-21)
(-0.0416189 0.0321868 5.73091e-21)
(-0.0482561 0.0341708 5.72112e-21)
(-0.0553087 0.0361478 0)
(-0.062833 0.0380831 0)
(-0.0709505 0.0399319 -5.65406e-21)
(-0.0798838 0.0416796 -1.12002e-20)
(-0.0898616 0.0434211 1.10336e-20)
(-0.100871 0.0454001 0)
(-0.112697 0.0478453 1.05337e-20)
(-0.125193 0.050823 -5.13049e-21)
(-0.138322 0.0542631 0)
(-0.152102 0.0580441 9.79405e-21)
(-0.166596 0.0620527 4.80376e-21)
(-0.181896 0.0662095 -9.45496e-21)
(-0.198115 0.070473 -4.65732e-21)
(-0.215365 0.074831 0)
(-0.233758 0.0792946 9.09724e-21)
(-0.253401 0.0838907 9.00052e-21)
(-0.274394 0.0886546 0)
(-0.296841 0.0936241 8.8266e-21)
(-0.320846 0.0988359 0)
(-0.346517 0.104325 8.6725e-21)
(-0.373971 0.110128 4.29443e-21)
(-0.403332 0.116284 0)
(-0.434735 0.122841 0)
(-0.468313 0.129861 0)
(-0.504178 0.137402 0)
(-0.542405 0.145468 0)
(-0.583067 0.153961 0)
(-0.626275 0.162721 8.23931e-21)
(-0.672146 0.171618 -1.22973e-20)
(-0.720767 0.180547 0)
(-0.772176 0.189406 0)
(-0.82637 0.19809 0)
(-0.883306 0.206487 -3.69317e-23)
(-0.942903 0.214483 8.09009e-21)
(-1.00504 0.22196 1.62208e-20)
(-1.06957 0.228806 -1.62349e-20)
(-1.13629 0.234914 -8.15422e-21)
(-1.20499 0.240185 8.12695e-21)
(-1.2754 0.244531 5.09518e-23)
(-1.34723 0.24788 8.23859e-21)
(-1.4202 0.250173 0)
(-1.49397 0.251373 8.32741e-21)
(-1.56822 0.251461 5.85362e-23)
(-1.64262 0.250439 0)
(-1.71686 0.248332 0)
(-1.79063 0.245195 -8.57028e-21)
(-1.86365 0.241105 0)
(-1.93565 0.236168 0)
(-2.00641 0.230508 8.84997e-21)
(-2.07568 0.224246 1.77279e-20)
(-2.14327 0.217487 -8.8792e-21)
(-2.20902 0.210328 0)
(-2.27282 0.202876 9.02728e-21)
(-2.3346 0.195244 0)
(-2.3943 0.187542 9.27269e-21)
(-2.45194 0.179877 9.23046e-21)
(-2.50753 0.172346 -1.86793e-20)
(-2.56112 0.165038 -9.43955e-21)
(-2.6128 0.158029 0)
(-2.66265 0.151382 1.89735e-20)
(-2.71081 0.145147 0)
(-2.75738 0.139362 2.86482e-20)
(-2.80252 0.134052 1.91833e-20)
(-2.84635 0.129227 1.92353e-20)
(-2.88903 0.124892 -1.92789e-20)
(-2.9307 0.121037 2.89462e-20)
(-2.97151 0.11765 0)
(-3.01159 0.114709 0)
(-3.05108 0.11219 -1.93813e-20)
(-3.09009 0.110061 -2.90689e-20)
(-3.12874 0.108289 0)
(-3.16712 0.106836 9.68301e-21)
(-3.20532 0.105664 0)
(-3.24343 0.104736 -2.90702e-20)
(-3.2815 0.104014 2.79273e-23)
(-3.31958 0.103461 -2.70312e-23)
(-3.35772 0.103043 1.93539e-20)
(-3.39593 0.102727 0)
(-3.43424 0.102485 -1.93177e-20)
(-3.47265 0.102292 2.62733e-23)
(-3.51113 0.102125 0)
(-3.54966 0.101959 0)
(-3.58819 0.101761 0)
(-3.62664 0.101486 1.91557e-20)
(-3.66495 0.101098 0)
(-3.70303 0.100571 0)
(-3.7408 0.0998811 0)
(-3.77814 0.0990046 0)
(-3.81494 0.0979207 0)
(-3.85107 0.0966092 1.88908e-20)
(-3.88639 0.0950507 0)
(-3.92073 0.0932264 1.86845e-20)
(-3.95394 0.0911178 1.85865e-20)
(-3.98584 0.0887078 -1.84759e-20)
(-4.01625 0.0859803 0)
(-4.04497 0.0829215 -1.82104e-20)
(-4.0718 0.0795197 0)
(-4.09654 0.0757654 -1.7875e-20)
(-4.11899 0.0716505 1.76766e-20)
(-4.13894 0.0671665 5.25048e-20)
(-4.15618 0.0623042 0)
(-4.17052 0.0570535 5.09584e-20)
(-4.18177 0.0514071 1.67893e-20)
(-4.18976 0.0453621 0)
(-4.19434 0.0389133 3.20371e-20)
(-4.19534 0.0320574 3.12401e-20)
(-4.19271 0.0248542 -4.54647e-20)
(-4.18655 0.0174761 0)
(-4.17689 0.00990861 -1.40972e-20)
(-4.16302 0.00137117 -1.35264e-20)
(-4.14425 -0.00784814 -3.89427e-20)
(-4.12063 -0.0179099 0)
(-4.09186 -0.0285877 0)
(-4.0575 -0.0399989 0)
(-4.01696 -0.0523253 -1.01837e-20)
(-3.96958 -0.0657338 0)
(-3.91463 -0.0803594 0)
(-3.85124 -0.0964085 7.0302e-21)
(-3.77838 -0.114157 5.91305e-21)
(-3.69478 -0.133891 0)
(-3.59898 -0.155903 0)
(-3.48941 -0.180397 4.02236e-21)
(-3.36446 -0.207455 0)
(-3.22257 -0.237137 2.22926e-21)
(-3.06223 -0.269485 5.17338e-21)
(-2.8818 -0.30439 0)
(-2.67964 -0.34157 0)
(-2.45422 -0.380523 -1.68948e-20)
(-2.20471 -0.420291 -6.04852e-22)
(-1.9293 -0.460689 -6.01446e-22)
(-1.62798 -0.500744 0)
(-1.30133 -0.538986 -7.04665e-20)
(-0.949506 -0.57298 0)
(-0.57183 -0.598991 0)
(-0.167855 -0.616313 0)
(0.259499 -0.629717 5.22417e-20)
(0.700114 -0.640224 0)
(1.14487 -0.647456 -1.12637e-19)
(1.58623 -0.647319 -5.78495e-20)
(2.01768 -0.634821 0)
(2.43756 -0.610737 -5.86492e-20)
(2.84281 -0.578362 0)
(3.22935 -0.540236 0)
(3.59363 -0.498198 -1.67766e-19)
(3.93365 -0.455065 1.08593e-19)
(4.25019 -0.41286 0)
(4.54416 -0.372054 1.01734e-19)
(4.81491 -0.333146 -4.93622e-20)
(5.06243 -0.296301 0)
(5.28676 -0.261138 0)
(5.48853 -0.227957 0)
(5.66897 -0.197461 -1.25697e-19)
(5.82878 -0.169684 0)
(5.96833 -0.144408 -3.86969e-20)
(6.08803 -0.121597 0)
(6.1885 -0.101271 0)
(6.27045 -0.0833662 0)
(6.33462 -0.0677105 0)
(6.38189 -0.0540138 0)
(6.41331 -0.0418632 0)
(6.43021 -0.0307255 -5.89089e-20)
(6.43427 -0.0200671 0)
(6.42704 -0.00895953 -2.78033e-20)
(6.40981 0.00230175 8.12557e-20)
(6.38376 0.0142051 0)
(6.34761 0.0285771 0)
(6.30102 0.0473124 -5.17693e-20)
(6.23449 0.0725936 -5.19937e-20)
(6.16452 0.119617 5.19712e-20)
(6.04021 0.187687 5.30036e-20)
(-0.00361743 0.0254547 -1.82435e-20)
(-0.00532555 0.0278169 -1.73243e-20)
(-0.0102769 0.0300348 -1.14812e-20)
(-0.0151578 0.0322762 -5.72621e-21)
(-0.0202384 0.0346082 0)
(-0.0256699 0.0370296 1.14202e-20)
(-0.0314714 0.0395221 -5.70994e-21)
(-0.0376455 0.0420785 0)
(-0.0442095 0.0447119 -5.70341e-21)
(-0.0511959 0.0474599 0)
(-0.0586574 0.0503827 1.13719e-20)
(-0.0666781 0.0535513 0)
(-0.0753854 0.0570084 5.62963e-21)
(-0.0849497 0.0606952 1.11513e-20)
(-0.0954964 0.0644294 -1.09881e-20)
(-0.106969 0.0680845 0)
(-0.119216 0.0717755 -1.05157e-20)
(-0.132164 0.0757164 0)
(-0.145812 0.0800279 0)
(-0.160184 0.0847256 -9.82183e-21)
(-0.175323 0.0897784 0)
(-0.191301 0.095149 -3.96948e-24)
(-0.208207 0.100812 0)
(-0.226146 0.10676 0)
(-0.24523 0.112999 4.51355e-24)
(-0.265573 0.119548 -9.05824e-21)
(-0.287291 0.126433 -8.97497e-21)
(-0.310501 0.133686 -8.8873e-21)
(-0.335322 0.14134 0)
(-0.361872 0.149429 -1.74751e-20)
(-0.390274 0.15799 0)
(-0.420653 0.167062 -8.60492e-21)
(-0.45313 0.176683 0)
(-0.487822 0.18689 0)
(-0.524826 0.197703 8.43467e-21)
(-0.564221 0.209101 0)
(-0.606071 0.221001 -8.34443e-21)
(-0.650449 0.233267 1.02387e-23)
(-0.697421 0.245744 1.65365e-20)
(-0.747035 0.258275 -1.64934e-20)
(-0.799301 0.270694 0)
(-0.854195 0.282833 0)
(-0.911648 0.294522 -8.21751e-21)
(-0.971557 0.305587 0)
(-1.03378 0.315861 -8.171e-21)
(-1.09813 0.325181 8.17689e-21)
(-1.1644 0.333396 8.18945e-21)
(-1.23234 0.340371 0)
(-1.30169 0.34599 -8.23512e-21)
(-1.37214 0.350157 -8.26824e-21)
(-1.4434 0.352805 1.6705e-20)
(-1.51515 0.353896 -8.35425e-21)
(-1.58706 0.353418 -8.40648e-21)
(-1.65883 0.351396 0)
(-1.73014 0.347884 0)
(-1.80072 0.342968 8.5937e-21)
(-1.8703 0.336764 0)
(-1.93862 0.329408 0)
(-2.00547 0.321058 -1.76224e-20)
(-2.07064 0.311872 -1.77726e-20)