/*--------------------------------*- C++ -*----------------------------------*\
| =========                 |                                                 |
| \\      /  F ield         | OpenFOAM: The Open Source CFD Toolbox           |
|  \\    /   O peration     | Version:  2112                                  |
|   \\  /    A nd           | Website:  www.openfoam.com                      |
|    \\/     M anipulation  |                                                 |
\*---------------------------------------------------------------------------*/
FoamFile
{
    version     2.0;
    format      ascii;
    arch        "LSB;label=32;scalar=64";
    class       surfaceScalarField;
    location    "0.19";
    object      phi;
}
// * * * * * * * * * * * * * * * * * * * * * * * * * * * * * * * * * * * * * //

dimensions      [0 3 -1 0 0 0 0];

oriented        oriented;

internalField   nonuniform List<scalar> 
24170
(
2.8791e-06
3.04779e-07
2.68904e-06
1.90059e-07
2.53992e-06
1.49123e-07
2.422e-06
1.17911e-07
2.31956e-06
1.02449e-07
2.22842e-06
9.11336e-08
2.14665e-06
8.17685e-08
2.07237e-06
7.4285e-08
2.00418e-06
6.81911e-08
1.94081e-06
6.33672e-08
1.88142e-06
5.93885e-08
1.82464e-06
5.67836e-08
1.7699e-06
5.4734e-08
1.71561e-06
5.42912e-08
1.66027e-06
5.53393e-08
1.60343e-06
5.68398e-08
1.51987e-06
8.3559e-08
1.13653e-07
1.40622e-06
3.43441e-06
2.82917e-07
3.32644e-06
2.98035e-07
3.21781e-06
2.57744e-07
3.10295e-06
2.32776e-07
2.99247e-06
2.1293e-07
2.89262e-06
1.90985e-07
2.80346e-06
1.70925e-07
2.7233e-06
1.54444e-07
2.65054e-06
1.40954e-07
2.58362e-06
1.30286e-07
2.52133e-06
1.21674e-07
2.46227e-06
1.1585e-07
2.40537e-06
1.11634e-07
2.3488e-06
1.10859e-07
2.29128e-06
1.12861e-07
2.22783e-06
1.2029e-07
2.17086e-06
1.40525e-07
1.62504e-07
2.12201e-06
3.71291e-06
2.27662e-07
3.71873e-06
2.92218e-07
3.71671e-06
2.59764e-07
3.70341e-06
2.46072e-07
3.67811e-06
2.38231e-07
3.6425e-06
2.26596e-07
3.60149e-06
2.11939e-07
3.55712e-06
1.98805e-07
3.5106e-06
1.87477e-07
3.46285e-06
1.78035e-07
3.41407e-06
1.70453e-07
3.36478e-06
1.65147e-07
3.31395e-06
1.62462e-07
3.26215e-06
1.62655e-07
3.20684e-06
1.68172e-07
3.1493e-06
1.77833e-07
3.08988e-06
1.99945e-07
2.32448e-07
3.01994e-06
3.96785e-06
1.80198e-07
3.99402e-06
2.66046e-07
4.00534e-06
2.48447e-07
4.01852e-06
2.32892e-07
4.02843e-06
2.28315e-07
4.0324e-06
2.22635e-07
4.03069e-06
2.13648e-07
4.02485e-06
2.04643e-07
4.01515e-06
1.97179e-07
4.00191e-06
1.9127e-07
3.98508e-06
1.87286e-07
3.96508e-06
1.85142e-07
3.94163e-06
1.85916e-07
3.91497e-06
1.89308e-07
3.88475e-06
1.98399e-07
3.85087e-06
2.11714e-07
3.81513e-06
2.35677e-07
2.65187e-07
3.78239e-06
4.24156e-06
1.40633e-07
4.2674e-06
2.40203e-07
4.2787e-06
2.37147e-07
4.29072e-06
2.20871e-07
4.30301e-06
2.16023e-07
4.31237e-06
2.13281e-07
4.31845e-06
2.07562e-07
4.32235e-06
2.00749e-07
4.32433e-06
1.95196e-07
4.32426e-06
1.91346e-07
4.322e-06
1.89541e-07
4.31752e-06
1.89623e-07
4.31086e-06
1.92576e-07
4.30175e-06
1.98422e-07
4.29106e-06
2.09085e-07
4.2783e-06
2.24476e-07
4.26796e-06
2.46017e-07
2.70314e-07
4.26283e-06
4.53183e-06
1.12655e-07
4.55856e-06
2.13475e-07
4.57281e-06
2.22896e-07
4.58352e-06
2.10161e-07
4.59468e-06
2.04859e-07
4.60441e-06
2.03555e-07
4.61133e-06
2.00643e-07
4.61586e-06
1.96222e-07
4.6186e-06
1.92453e-07
4.61968e-06
1.90267e-07
4.61916e-06
1.90059e-07
4.61697e-06
1.91818e-07
4.61337e-06
1.96172e-07
4.60833e-06
2.03459e-07
4.60292e-06
2.14498e-07
4.59776e-06
2.29633e-07
4.59593e-06
2.47849e-07
2.6827e-07
4.59798e-06
4.84808e-06
9.19878e-08
4.87517e-06
1.86387e-07
4.89133e-06
2.06738e-07
4.90135e-06
2.00135e-07
4.91131e-06
1.94907e-07
4.92075e-06
1.94113e-07
4.92793e-06
1.93466e-07
4.93261e-06
1.91542e-07
4.93538e-06
1.89682e-07
4.93652e-06
1.89122e-07
4.93619e-06
1.90394e-07
4.93435e-06
1.93649e-07
4.93135e-06
1.9918e-07
4.92742e-06
2.07386e-07
4.9235e-06
2.18421e-07
4.92061e-06
2.32517e-07
4.92006e-06
2.48402e-07
2.65475e-07
4.92286e-06
5.18967e-06
7.65619e-08
5.2146e-06
1.61452e-07
5.23113e-06
1.90212e-07
5.24154e-06
1.89724e-07
5.25097e-06
1.85474e-07
5.26012e-06
1.84969e-07
5.26763e-06
1.85948e-07
5.27285e-06
1.8633e-07
5.27606e-06
1.86469e-07
5.27763e-06
1.87553e-07
5.27778e-06
1.9024e-07
5.27663e-06
1.94802e-07
5.27449e-06
2.01321e-07
5.27178e-06
2.10096e-07
5.26924e-06
2.20962e-07
5.26774e-06
2.34017e-07
5.26809e-06
2.48045e-07
2.62869e-07
5.2707e-06
5.55749e-06
6.50878e-08
5.57916e-06
1.39775e-07
5.59606e-06
1.73316e-07
5.60725e-06
1.78532e-07
5.61661e-06
1.76114e-07
5.62554e-06
1.76037e-07
5.63326e-06
1.78237e-07
5.63898e-06
1.80603e-07
5.64274e-06
1.82707e-07
5.64486e-06
1.85432e-07
5.64564e-06
1.8946e-07
5.64532e-06
1.95129e-07
5.6442e-06
2.02435e-07
5.64276e-06
2.11539e-07
5.64157e-06
2.22156e-07
5.64129e-06
2.34293e-07
5.6424e-06
2.46939e-07
2.59564e-07
5.6457e-06
5.95313e-06
5.64784e-08
5.97152e-06
1.21387e-07
5.98826e-06
1.56571e-07
6.00027e-06
1.66528e-07
6.00975e-06
1.66631e-07
6.01852e-06
1.67268e-07
6.02636e-06
1.70398e-07
6.03258e-06
1.74381e-07
6.03697e-06
1.78316e-07
6.03977e-06
1.8263e-07
6.04134e-06
1.87894e-07
6.04198e-06
1.94494e-07
6.04202e-06
2.02395e-07
6.04187e-06
2.11684e-07
6.04201e-06
2.22013e-07
6.04294e-06
2.33362e-07
6.04508e-06
2.44807e-07
2.56098e-07
6.04854e-06
6.37831e-06
4.98663e-08
6.39375e-06
1.05938e-07
6.40973e-06
1.40598e-07
6.42226e-06
1.53991e-07
6.43211e-06
1.56788e-07
6.44089e-06
1.58481e-07
6.44891e-06
1.62383e-07
6.45563e-06
1.67656e-07
6.46075e-06
1.73199e-07
6.4644e-06
1.78982e-07
6.46692e-06
1.85369e-07
6.46867e-06
1.92742e-07
6.46999e-06
2.01084e-07
6.47122e-06
2.10452e-07
6.47274e-06
2.2049e-07
6.47493e-06
2.31175e-07
6.47801e-06
2.41723e-07
2.52136e-07
6.48197e-06
5.74121e-06
4.53325e-08
5.75232e-06
9.48254e-08
5.7649e-06
1.28017e-07
5.77568e-06
1.4322e-07
5.78439e-06
1.48074e-07
5.79203e-06
1.50845e-07
5.79901e-06
1.55396e-07
5.80511e-06
1.61557e-07
5.81007e-06
1.68242e-07
5.81393e-06
1.75122e-07
5.81694e-06
1.82356e-07
5.8194e-06
1.90289e-07
5.82156e-06
1.98917e-07
5.82371e-06
2.08309e-07
5.82609e-06
2.18109e-07
5.82892e-06
2.2834e-07
5.83235e-06
2.38297e-07
2.48124e-07
5.83636e-06
6.99797e-06
4.10159e-08
7.00889e-06
8.39099e-08
7.02216e-06
1.1475e-07
7.03444e-06
1.30931e-07
7.04487e-06
1.37646e-07
7.05401e-06
1.41702e-07
7.06241e-06
1.47006e-07
7.06995e-06
1.54014e-07
7.07642e-06
1.61771e-07
7.08182e-06
1.69722e-07
7.08638e-06
1.77795e-07
7.0904e-06
1.86265e-07
7.09419e-06
1.95131e-07
7.09799e-06
2.04507e-07
7.10205e-06
2.14049e-07
7.10654e-06
2.23857e-07
7.11158e-06
2.33258e-07
2.42572e-07
7.11713e-06
8.53027e-06
3.69428e-08
8.54085e-06
7.33293e-08
8.55456e-06
1.0104e-07
8.56827e-06
1.17218e-07
8.58064e-06
1.25278e-07
8.59172e-06
1.30625e-07
8.60194e-06
1.36781e-07
8.61138e-06
1.44578e-07
8.61989e-06
1.53264e-07
8.62744e-06
1.62168e-07
8.63422e-06
1.71013e-07
8.64051e-06
1.79974e-07
8.64662e-06
1.8903e-07
8.65277e-06
1.98351e-07
8.65921e-06
2.0761e-07
8.66607e-06
2.16993e-07
8.67349e-06
2.25842e-07
2.34664e-07
8.6814e-06
1.03986e-05
3.30917e-08
1.04089e-05
6.30429e-08
1.0423e-05
8.69623e-08
1.04381e-05
1.02111e-07
1.04526e-05
1.10724e-07
1.04662e-05
1.17074e-07
1.04789e-05
1.24081e-07
1.04909e-05
1.32594e-07
1.05021e-05
1.42023e-07
1.05126e-05
1.51668e-07
1.05225e-05
1.6111e-07
1.05321e-05
1.70435e-07
1.05415e-05
1.79594e-07
1.0551e-05
1.8881e-07
1.05609e-05
1.97771e-07
1.05711e-05
2.06739e-07
1.05819e-05
2.15041e-07
2.23308e-07
1.05933e-05
1.26769e-05
2.93502e-08
1.26871e-05
5.27627e-08
1.27018e-05
7.22751e-08
1.27186e-05
8.53716e-08
1.27357e-05
9.36078e-08
1.27524e-05
1.00386e-07
1.27685e-05
1.07988e-07
1.2784e-05
1.17032e-07
1.27991e-05
1.26962e-07
1.28137e-05
1.37101e-07
1.28278e-05
1.46946e-07
1.28418e-05
1.56496e-07
1.28557e-05
1.65642e-07
1.28699e-05
1.74632e-07
1.28845e-05
1.83163e-07
1.28996e-05
1.91592e-07
1.29154e-05
1.99241e-07
2.06807e-07
1.29319e-05
1.54551e-05
2.5469e-08
1.5466e-05
4.18643e-08
1.54821e-05
5.61959e-08
1.55013e-05
6.61778e-08
1.55218e-05
7.30547e-08
1.55427e-05
7.95185e-08
1.55634e-05
8.72438e-08
1.55839e-05
9.65202e-08
1.56042e-05
1.06666e-07
1.56244e-05
1.16952e-07
1.56445e-05
1.26861e-07
1.56646e-05
1.36369e-07
1.56849e-05
1.45345e-07
1.57055e-05
1.54031e-07
1.57265e-05
1.62108e-07
1.57482e-05
1.69943e-07
1.57706e-05
1.76871e-07
1.83871e-07
1.57935e-05
1.88433e-05
2.09504e-08
1.88561e-05
2.90584e-08
1.88753e-05
3.69429e-08
1.88988e-05
4.2745e-08
1.89244e-05
4.73754e-08
1.89511e-05
5.28658e-08
1.89782e-05
6.01117e-08
1.90056e-05
6.91468e-08
1.90332e-05
7.90577e-08
1.90611e-05
8.90178e-08
1.90894e-05
9.86116e-08
1.91179e-05
1.07862e-07
1.91466e-05
1.16624e-07
1.91756e-05
1.25037e-07
1.9205e-05
1.32698e-07
1.92351e-05
1.39878e-07
1.9266e-05
1.45903e-07
1.51235e-07
1.92987e-05
2.29758e-05
1.46686e-08
2.29933e-05
1.15292e-08
2.30194e-05
1.08282e-08
2.30511e-05
1.1035e-08
2.30855e-05
1.30191e-08
2.3121e-05
1.73692e-08
2.3157e-05
2.40797e-08
2.31937e-05
3.24436e-08
2.32311e-05
4.16226e-08
2.3269e-05
5.11282e-08
2.33071e-05
6.05416e-08
2.33453e-05
6.96808e-08
2.33837e-05
7.81828e-08
2.34228e-05
8.59593e-08
2.34628e-05
9.26604e-08
2.35041e-05
9.86572e-08
2.35464e-05
1.03597e-07
1.08568e-07
2.3589e-05
1.68243e-05
8.57141e-09
1.68404e-05
-4.57508e-09
1.68634e-05
-1.22362e-08
1.68909e-05
-1.64534e-08
1.69205e-05
-1.65891e-08
1.69509e-05
-1.30045e-08
1.69813e-05
-6.2811e-09
1.70113e-05
2.42117e-09
1.70419e-05
1.10186e-08
1.70725e-05
2.05628e-08
1.71028e-05
3.01858e-08
1.71332e-05
3.93441e-08
1.71639e-05
4.74751e-08
1.71952e-05
5.45856e-08
1.72273e-05
6.0613e-08
1.72599e-05
6.60606e-08
1.72927e-05
7.07492e-08
7.52532e-08
1.7326e-05
1.46502e-05
1.25288e-09
1.46687e-05
-2.3109e-08
1.46941e-05
-3.76239e-08
1.47208e-05
-4.31798e-08
1.47475e-05
-4.32125e-08
1.4774e-05
-3.95562e-08
1.48012e-05
-3.34561e-08
1.48293e-05
-2.56521e-08
1.48571e-05
-1.67704e-08
1.48852e-05
-7.57345e-09
1.49142e-05
1.19635e-09
1.49423e-05
1.12047e-08
1.49707e-05
1.91055e-08
1.49995e-05
2.57766e-08
1.50286e-05
3.15024e-08
1.50578e-05
3.68804e-08
1.50867e-05
4.18681e-08
4.71552e-08
1.51148e-05
1.27569e-05
-7.10699e-09
1.27785e-05
-4.47208e-08
1.28073e-05
-6.64009e-08
1.28373e-05
-7.31608e-08
1.28659e-05
-7.1796e-08
1.28933e-05
-6.69979e-08
1.29204e-05
-6.0532e-08
1.29472e-05
-5.24684e-08
1.29734e-05
-4.30049e-08
1.29987e-05
-3.28564e-08
1.30229e-05
-2.29553e-08
1.3048e-05
-1.39212e-08
1.3073e-05
-5.93312e-09
1.30976e-05
1.26146e-09
1.31227e-05
6.36982e-09
1.31477e-05
1.18831e-08
1.31721e-05
1.74357e-08
2.31956e-08
1.31961e-05
1.11106e-05
-1.86329e-08
1.11356e-05
-6.97227e-08
1.11638e-05
-9.46207e-08
1.11908e-05
-1.00133e-07
1.12158e-05
-9.68418e-08
1.124e-05
-9.11709e-08
1.1264e-05
-8.45404e-08
1.12879e-05
-7.6347e-08
1.13114e-05
-6.65596e-08
1.13346e-05
-5.60585e-08
1.13577e-05
-4.60035e-08
1.13808e-05
-3.70019e-08
1.14041e-05
-2.9243e-08
1.14278e-05
-2.24764e-08
1.14505e-05
-1.63069e-08
1.14727e-05
-1.03141e-08
1.14947e-05
-4.58292e-09
1.31041e-09
1.15166e-05
9.68038e-06
-3.61984e-08
9.71484e-06
-1.04174e-07
9.74773e-06
-1.27516e-07
9.77412e-06
-1.26519e-07
9.79714e-06
-1.1987e-07
9.81974e-06
-1.13765e-07
9.84226e-06
-1.07064e-07
9.86415e-06
-9.82297e-08
9.88517e-06
-8.7583e-08
9.90557e-06
-7.64641e-08
9.92572e-06
-6.61465e-08
9.94579e-06
-5.70727e-08
9.96575e-06
-4.92043e-08
9.98537e-06
-4.20981e-08
1.00045e-05
-3.54099e-08
1.00229e-05
-2.87284e-08
1.00404e-05
-2.20977e-08
-1.53601e-08
1.00571e-05
8.43158e-06
-5.54718e-08
8.46784e-06
-1.40431e-07
8.49947e-06
-1.59143e-07
8.52397e-06
-1.51023e-07
8.54621e-06
-1.42109e-07
8.56837e-06
-1.35923e-07
8.58989e-06
-1.28589e-07
8.61029e-06
-1.18626e-07
8.62976e-06
-1.07057e-07
8.64873e-06
-9.54281e-08
8.6674e-06
-8.48168e-08
8.68572e-06
-7.53911e-08
8.70365e-06
-6.71353e-08
8.72107e-06
-5.95228e-08
8.73797e-06
-5.23091e-08
8.75427e-06
-4.50233e-08
8.77001e-06
-3.78436e-08
-3.0948e-08
8.7856e-06
7.36237e-06
-9.42774e-08
7.40218e-06
-1.80242e-07
7.42717e-06
-1.84132e-07
7.44721e-06
-1.71066e-07
7.46774e-06
-1.62643e-07
7.4879e-06
-1.56082e-07
7.50654e-06
-1.47229e-07
7.52382e-06
-1.35904e-07
7.54041e-06
-1.23652e-07
7.55696e-06
-1.11978e-07
7.57366e-06
-1.01509e-07
7.58991e-06
-9.16431e-08
7.60571e-06
-8.29402e-08
7.62092e-06
-7.47325e-08
7.63555e-06
-6.69372e-08
7.64961e-06
-5.90837e-08
7.6633e-06
-5.15283e-08
-4.3922e-08
7.67627e-06
6.42377e-06
-1.4238e-07
6.47134e-06
-2.27813e-07
6.49614e-06
-2.08929e-07
6.51733e-06
-1.92263e-07
6.53958e-06
-1.84891e-07
6.55935e-06
-1.75849e-07
6.57584e-06
-1.63723e-07
6.59094e-06
-1.51002e-07
6.60487e-06
-1.37585e-07
6.61829e-06
-1.25393e-07
6.6313e-06
-1.14526e-07
6.64377e-06
-1.04113e-07
6.65567e-06
-9.4842e-08
6.66631e-06
-8.53654e-08
6.67662e-06
-7.72539e-08
6.68592e-06
-6.83791e-08
6.69597e-06
-6.15768e-08
-5.37485e-08
6.70579e-06
5.60917e-06
-2.01124e-07
5.63285e-06
-2.51493e-07
5.64919e-06
-2.25261e-07
5.66319e-06
-2.06265e-07
5.66987e-06
-1.91572e-07
5.67132e-06
-1.77297e-07
5.66806e-06
-1.60468e-07
5.6614e-06
-1.44343e-07
5.6537e-06
-1.29876e-07
5.64528e-06
-1.16981e-07
5.63629e-06
-1.05536e-07
5.6271e-06
-9.49184e-08
5.61768e-06
-8.54281e-08
5.60858e-06
-7.6262e-08
5.60003e-06
-6.87066e-08
5.5922e-06
-6.05411e-08
5.58546e-06
-5.48389e-08
-4.64795e-08
5.57819e-06
4.91883e-06
-2.87967e-07
4.86337e-06
-1.96034e-07
4.79996e-06
-1.61854e-07
4.72063e-06
-1.26939e-07
4.63359e-06
-1.04529e-07
4.5468e-06
-9.05031e-08
4.46562e-06
-7.92942e-08
4.39143e-06
-7.01461e-08
4.32419e-06
-6.26343e-08
4.26349e-06
-5.62876e-08
4.20876e-06
-5.08039e-08
4.15955e-06
-4.57106e-08
4.11568e-06
-4.15558e-08
4.07601e-06
-3.65935e-08
4.04239e-06
-3.50806e-08
4.01039e-06
-2.85415e-08
3.99487e-06
-3.93262e-08
-2.85775e-08
3.97697e-06
3.91855e-06
3.72252e-06
3.56066e-06
3.43372e-06
3.3292e-06
3.23869e-06
3.1594e-06
3.08925e-06
3.02662e-06
2.97033e-06
2.91953e-06
2.87382e-06
2.83226e-06
2.79567e-06
2.76059e-06
2.73204e-06
2.69272e-06
2.66414e-06
-7.18725e-08
7.18725e-08
-2.84232e-08
-4.34493e-08
1.92063e-07
-2.20487e-07
5.5461e-07
-3.62546e-07
9.93006e-07
-4.38396e-07
1.44811e-06
-4.551e-07
1.87326e-06
-4.25158e-07
2.2372e-06
-3.63936e-07
2.52123e-06
-2.84027e-07
2.71604e-06
-1.94815e-07
2.8202e-06
-1.04162e-07
2.82934e-06
-9.13066e-09
2.73198e-06
9.73512e-08
2.53595e-06
1.9603e-07
2.28966e-06
2.46298e-07
2.03677e-06
2.5289e-07
1.79508e-06
2.41687e-07
1.5772e-06
2.17884e-07
1.4084e-06
1.68793e-07
1.33178e-06
7.66205e-08
1.37727e-06
-4.54843e-08
1.4855e-06
-1.0823e-07
1.53236e-06
-4.68651e-08
1.50998e-06
2.23773e-08
1.51059e-06
-6.0868e-10
1.53712e-06
-2.65299e-08
1.52432e-06
1.28035e-08
1.44307e-06
8.12531e-08
1.16165e-06
2.81415e-07
5.10366e-07
6.51285e-07
-4.11481e-07
9.21847e-07
-1.4189e-06
1.00742e-06
-2.43919e-06
1.02028e-06
-3.43533e-06
9.96147e-07
-4.38641e-06
9.51082e-07
-5.27996e-06
8.93547e-07
-6.10894e-06
8.28975e-07
-6.86968e-06
7.60744e-07
-7.56059e-06
6.90905e-07
-8.18135e-06
6.20765e-07
-8.7324e-06
5.51051e-07
-9.21448e-06
4.82077e-07
-9.6284e-06
4.13922e-07
-9.97493e-06
3.46528e-07
-1.02547e-05
2.79777e-07
-1.04683e-05
2.13633e-07
-1.06167e-05
1.48351e-07
-1.07012e-05
8.45357e-08
-1.07242e-05
2.29778e-08
-1.06889e-05
-3.53487e-08
-1.05982e-05
-9.06168e-08
-1.04556e-05
-1.42663e-07
-1.02639e-05
-1.91661e-07
-1.00263e-05
-2.37657e-07
-9.74573e-06
-2.80527e-07
-9.42541e-06
-3.20327e-07
-9.06835e-06
-3.57057e-07
-8.67747e-06
-3.9088e-07
-8.25549e-06
-4.21979e-07
-7.80489e-06
-4.50596e-07
-7.32793e-06
-4.76967e-07
-6.82667e-06
-5.01258e-07
-6.30317e-06
-5.23501e-07
-5.75929e-06
-5.43874e-07
-5.19605e-06
-5.63248e-07
-4.61376e-06
-5.82281e-07
-4.01154e-06
-6.02223e-07
-3.38623e-06
-6.25309e-07
-2.7313e-06
-6.54929e-07
-2.03587e-06
-6.9543e-07
-1.28493e-06
-7.50943e-07
-4.62485e-07
-8.22445e-07
4.39738e-07
-9.02223e-07
1.4216e-06
-9.81866e-07
2.44019e-06
-1.01859e-06
3.32735e-06
-8.87164e-07
3.72957e-06
-4.02216e-07
3.4093e-06
3.2027e-07
2.68212e-06
7.27184e-07
2.01969e-06
6.62428e-07
1.54881e-06
4.70882e-07
1.18226e-06
3.66546e-07
8.53889e-07
3.28371e-07
5.86509e-07
2.67381e-07
4.66283e-07
1.20226e-07
6.03053e-07
-1.3677e-07
1.12615e-06
-5.23092e-07
2.14084e-06
-1.0147e-06
3.44443e-06
-1.30358e-06
4.40163e-06
-9.57203e-07
4.48698e-06
-8.53524e-08
3.84752e-06
6.3946e-07
3.27409e-06
5.73431e-07
3.17561e-06
9.84782e-08
3.23211e-06
-5.65025e-08
2.91745e-06
3.14666e-07
2.02845e-06
8.89003e-07
7.82189e-07
1.24626e-06
-4.87944e-07
1.27013e-06
-1.62582e-06
1.13787e-06
-2.5861e-06
9.60283e-07
-3.37957e-06
7.93468e-07
-4.03775e-06
6.58184e-07
-4.59425e-06
5.56496e-07
-5.07664e-06
4.82386e-07
-5.50393e-06
4.27293e-07
-5.88685e-06
3.82923e-07
-6.22888e-06
3.42027e-07
-6.5276e-06
2.98721e-07
-6.77636e-06
2.48763e-07
-6.96557e-06
1.89207e-07
-7.08356e-06
1.17995e-07
-7.12029e-06
3.67277e-08
-7.06627e-06
-5.40237e-08
-6.91372e-06
-1.52546e-07
-6.65643e-06
-2.57288e-07
-6.29057e-06
-3.65869e-07
-5.81587e-06
-4.74698e-07
-5.23627e-06
-5.79599e-07
-4.56011e-06
-6.76162e-07
-3.79979e-06
-7.60313e-07
-2.97123e-06
-8.28567e-07
-2.0924e-06
-8.78825e-07
-1.18407e-06
-9.08335e-07
-2.66785e-07
-9.17282e-07
6.38143e-07
-9.04929e-07
1.51419e-06
-8.76047e-07
2.34967e-06
-8.35477e-07
3.13611e-06
-7.86446e-07
3.86728e-06
-7.31164e-07
4.53887e-06
-6.71598e-07
5.1483e-06
-6.09423e-07
5.69403e-06
-5.45736e-07
6.17497e-06
-4.80932e-07
6.59026e-06
-4.15293e-07
6.93946e-06
-3.49199e-07
7.2208e-06
-2.81344e-07
7.4312e-06
-2.104e-07
7.56999e-06
-1.38788e-07
7.63407e-06
-6.40835e-08
7.61286e-06
2.1211e-08
7.4974e-06
1.15463e-07
7.28433e-06
2.13066e-07
6.97586e-06
3.08469e-07
6.57909e-06
3.96772e-07
6.11085e-06
4.68241e-07
5.59562e-06
5.1523e-07
5.05873e-06
5.36892e-07
4.52132e-06
5.37407e-07
3.99903e-06
5.22292e-07
3.49803e-06
5.00995e-07
3.01557e-06
4.82464e-07
2.55708e-06
4.58493e-07
2.14926e-06
4.07815e-07
1.81954e-06
3.29719e-07
1.56299e-06
2.56557e-07
1.34815e-06
2.14834e-07
1.15535e-06
1.92803e-07
9.89677e-07
1.65673e-07
8.57046e-07
1.32631e-07
7.45789e-07
1.11257e-07
6.38935e-07
1.06854e-07
5.31705e-07
1.0723e-07
4.38969e-07
9.27366e-08
3.95623e-07
4.33456e-08
4.39127e-07
-4.35036e-08
5.94908e-07
-1.55781e-07
8.9049e-07
-2.95582e-07
1.34614e-06
-4.55653e-07
1.86008e-06
-5.13933e-07
2.23252e-06
-3.72447e-07
2.38696e-06
-1.54435e-07
2.39038e-06
-3.42575e-09
2.251e-06
1.39382e-07
1.86172e-06
3.89283e-07
1.12763e-06
7.34085e-07
7.32381e-08
1.0544e-06
-1.14528e-06
1.21852e-06
-2.34651e-06
1.20122e-06
8.84741e-07
-3.23125e-06
8.92489e-08
-1.73763e-08
3.87099e-07
-3.41299e-07
8.15448e-07
-6.48836e-07
1.29479e-06
-8.41885e-07
1.76116e-06
-9.04772e-07
2.17984e-06
-8.73775e-07
2.53412e-06
-7.7944e-07
2.81674e-06
-6.46557e-07
3.02665e-06
-4.93941e-07
3.1662e-06
-3.34365e-07
3.23482e-06
-1.72775e-07
3.23993e-06
-1.42437e-08
3.19663e-06
1.40649e-07
3.11864e-06
2.74023e-07
2.97299e-06
3.91947e-07
2.7646e-06
4.61282e-07
2.5391e-06
4.67183e-07
2.31998e-06
4.37009e-07
2.11732e-06
3.7145e-07
1.96271e-06
2.31233e-07
1.89506e-06
2.2161e-08
1.91578e-06
-1.28949e-07
1.94953e-06
-8.06181e-08
1.85902e-06
1.12891e-07
1.57629e-06
2.82122e-07
1.04366e-06
5.061e-07
1.4256e-07
9.13903e-07
-1.0979e-06
1.32171e-06
-2.38128e-06
1.5648e-06
-3.47186e-06
1.74187e-06
-4.39937e-06
1.84936e-06
-5.25879e-06
1.86684e-06
-6.06586e-06
1.82735e-06
-6.81767e-06
1.74796e-06
-7.51189e-06
1.64531e-06
-8.14786e-06
1.52951e-06
-8.72632e-06
1.40744e-06
-9.2487e-06
1.28313e-06
-9.71658e-06
1.15878e-06
-1.01313e-05
1.03549e-06
-1.04938e-05
9.13564e-07
-1.08047e-05
7.92986e-07
-1.10646e-05
6.73772e-07
-1.12735e-05
5.55486e-07
-1.14316e-05
4.37873e-07
-1.15389e-05
3.20918e-07
-1.15956e-05
2.05058e-07
-1.16022e-05
9.11412e-08
-1.15588e-05
-2.04794e-08
-1.14651e-05
-1.29053e-07
-1.13216e-05
-2.34075e-07
-1.11296e-05
-3.34688e-07
-1.08912e-05
-4.30049e-07
-1.06093e-05
-5.19587e-07
-1.02868e-05
-6.02963e-07
-9.92715e-06
-6.80003e-07
-9.53342e-06
-7.50783e-07
-9.10878e-06
-8.15523e-07
-8.65615e-06
-8.74608e-07
-8.17827e-06
-9.28475e-07
-7.67772e-06
-9.77521e-07
-7.15696e-06
-1.02201e-06
-6.61842e-06
-1.06204e-06
-6.06456e-06
-1.09773e-06
-5.49834e-06
-1.12947e-06
-4.92268e-06
-1.15794e-06
-4.34026e-06
-1.18465e-06
-3.75297e-06
-1.2126e-06
-3.16089e-06
-1.24701e-06
-2.56084e-06
-1.29548e-06
-1.94461e-06
-1.36718e-06
-1.29768e-06
-1.46937e-06
-5.99987e-07
-1.59991e-06
1.57094e-07
-1.73895e-06
9.5871e-07
-1.8202e-06
1.73561e-06
-1.66406e-06
2.41836e-06
-1.08496e-06
2.9278e-06
-1.89173e-07
3.13807e-06
5.16912e-07
3.00961e-06
7.90886e-07
2.72214e-06
7.58359e-07
2.42668e-06
6.62005e-07
2.15677e-06
5.98277e-07
1.9065e-06
5.17654e-07
1.7028e-06
3.23925e-07
1.63839e-06
-7.23617e-08
1.82837e-06
-7.13071e-07
2.36772e-06
-1.55405e-06
3.19067e-06
-2.12653e-06
3.9852e-06
-1.75173e-06
4.353e-06
-4.53148e-07
4.30402e-06
6.88432e-07
4.06711e-06
8.10347e-07
3.64426e-06
5.21326e-07
2.77387e-06
8.13886e-07
1.42143e-06
1.6671e-06
-8.62246e-08
2.39666e-06
-1.43202e-06
2.59205e-06
-2.53517e-06
2.37328e-06
-3.41038e-06
2.01308e-06
-4.1034e-06
1.65331e-06
-4.66204e-06
1.3521e-06
-5.12613e-06
1.12227e-06
-5.52567e-06
9.56037e-07
-5.88068e-06
8.374e-07
-6.20255e-06
7.4916e-07
-6.49562e-06
6.7599e-07
-6.75887e-06
6.05281e-07
-6.98725e-06
5.27096e-07
-7.17262e-06
4.34132e-07
-7.30524e-06
3.21829e-07
-7.37416e-06
1.86914e-07
-7.36602e-06
2.85928e-08
-7.27415e-06
-1.45895e-07
-7.08429e-06
-3.42404e-07
-6.78914e-06
-5.52441e-07
-6.38538e-06
-7.69624e-07
-5.87361e-06
-9.86474e-07
-5.25861e-06
-1.19459e-06
-4.54965e-06
-1.38512e-06
-3.76009e-06
-1.54987e-06
-2.90645e-06
-1.68222e-06
-2.00816e-06
-1.77711e-06
-1.08364e-06
-1.83286e-06
-1.48999e-07
-1.85192e-06
7.79069e-07
-1.833e-06
1.68895e-06
-1.78592e-06
2.56821e-06
-1.71474e-06
3.40682e-06
-1.62506e-06
4.19732e-06
-1.52167e-06
4.93463e-06
-1.40891e-06
5.61548e-06
-1.29028e-06
6.23775e-06
-1.168e-06
6.8002e-06
-1.04338e-06
7.30187e-06
-9.16966e-07
7.74063e-06
-7.87958e-07
8.11458e-06
-6.55297e-07
8.4229e-06
-5.18719e-07
8.66152e-06
-3.77399e-07
8.82779e-06
-2.30363e-07
8.92516e-06
-7.61524e-08
8.94997e-06
9.06537e-08
8.89779e-06
2.65242e-07
8.75773e-06
4.48535e-07
8.51849e-06
6.36008e-07
8.16702e-06
8.19709e-07
7.69802e-06
9.8423e-07
7.12912e-06
1.1058e-06
6.50409e-06
1.16244e-06
5.87453e-06
1.15184e-06
5.27426e-06
1.10127e-06
4.71019e-06
1.04653e-06
4.17498e-06
9.93704e-07
3.65934e-06
9.23459e-07
3.16099e-06
8.28067e-07
2.69519e-06
7.22362e-07
2.29239e-06
6.17634e-07
1.9693e-06
5.15893e-07
1.71675e-06
4.18223e-07
1.51793e-06
3.31448e-07
1.35989e-06
2.69298e-07
1.23438e-06
2.3236e-07
1.13191e-06
2.09701e-07
1.04658e-06
1.78068e-07
9.87778e-07
1.02147e-07
9.77023e-07
-3.27486e-08
1.03647e-06
-2.15228e-07
1.21389e-06
-4.73004e-07
1.58919e-06
-8.30954e-07
2.15264e-06
-1.07738e-06
2.6813e-06
-9.01107e-07
2.94073e-06
-4.13866e-07
2.85959e-06
7.77186e-08
2.43311e-06
5.65856e-07
1.65803e-06
1.16437e-06
5.93505e-07
1.79861e-06
-6.38866e-07
2.28677e-06
-1.91999e-06
2.49964e-06
-3.12022e-06
2.40145e-06
1.798e-06
-4.03348e-06
3.37658e-07
-3.55034e-07
8.67528e-07
-8.7117e-07
1.40612e-06
-1.18743e-06
1.87412e-06
-1.30988e-06
2.25136e-06
-1.28201e-06
2.53845e-06
-1.16087e-06
2.74688e-06
-9.8787e-07
2.89458e-06
-7.94254e-07
2.99698e-06
-5.96343e-07
3.05929e-06
-3.96671e-07
3.08498e-06
-1.98468e-07
3.07903e-06
-8.29805e-09
3.03419e-06
1.85492e-07
2.96968e-06
3.38534e-07
2.9028e-06
4.58828e-07
2.80829e-06
5.55795e-07
2.65111e-06
6.24354e-07
2.49074e-06
5.97386e-07
2.45385e-06
4.08339e-07
2.50756e-06
1.77523e-07
2.41794e-06
1.11782e-07
2.05801e-06
2.30974e-07
1.44916e-06
5.2824e-07
5.9449e-07
9.67556e-07
-5.49629e-07
1.42624e-06
-1.84234e-06
1.79881e-06
-3.02551e-06
2.09707e-06
-4.02389e-06
2.32008e-06
-4.90858e-06
2.4495e-06
-5.67171e-06
2.50499e-06
-6.32118e-06
2.49883e-06
-6.89802e-06
2.44367e-06
-7.42703e-06
2.35637e-06
-7.92489e-06
2.24581e-06
-8.39962e-06
2.12004e-06
-8.85393e-06
1.98382e-06
-9.2871e-06
1.84061e-06
-9.69662e-06
1.69265e-06
-1.0079e-05
1.54116e-06
-1.04304e-05
1.38688e-06
-1.07469e-05
1.2301e-06
-1.1025e-05
1.07105e-06
-1.12611e-05
9.09923e-07
-1.14526e-05
7.46903e-07
-1.1597e-05
5.82316e-07
-1.16927e-05
4.16597e-07
-1.17376e-05
2.49992e-07
-1.17296e-05
8.31092e-08
-1.16704e-05
-7.96385e-08
-1.15621e-05
-2.3738e-07
-1.14054e-05
-3.90791e-07
-1.12018e-05
-5.38277e-07
-1.09533e-05
-6.785e-07
-1.06626e-05
-8.10324e-07
-1.03324e-05
-9.33129e-07
-9.96577e-06
-1.04666e-06
-9.56548e-06
-1.15107e-06
-9.13428e-06
-1.24672e-06
-8.67473e-06
-1.33416e-06
-8.1892e-06
-1.414e-06
-7.67998e-06
-1.48674e-06
-7.14934e-06
-1.55266e-06
-6.59981e-06
-1.61157e-06
-6.03446e-06
-1.66308e-06
-5.45731e-06
-1.70662e-06
-4.87375e-06
-1.7415e-06
-4.29074e-06
-1.76765e-06
-3.71691e-06
-1.78643e-06
-3.16239e-06
-1.80153e-06
-2.63822e-06
-1.81965e-06
-2.15405e-06
-1.85135e-06
-1.71184e-06
-1.91158e-06
-1.2969e-06
-2.01486e-06
-8.81623e-07
-2.15422e-06
-4.38905e-07
-2.26292e-06
9.84857e-08
-2.20145e-06
7.96135e-07
-1.78261e-06
1.65973e-06
-1.05277e-06
2.49998e-06
-3.23342e-07
3.15488e-06
1.35993e-07
3.58097e-06
3.32266e-07
3.82921e-06
4.1376e-07
3.95403e-06
4.73461e-07
3.96713e-06
5.04555e-07
3.85093e-06
4.40128e-07
3.59655e-06
1.82019e-07
3.34426e-06
-4.60787e-07
3.26031e-06
-1.4701e-06
3.34571e-06
-2.21193e-06
3.45008e-06
-1.85611e-06
3.50488e-06
-5.0794e-07
3.58144e-06
6.11872e-07
3.42938e-06
9.62398e-07
2.61993e-06
1.33078e-06
1.182e-06
2.25182e-06
-3.67867e-07
3.21697e-06
-1.61035e-06
3.63915e-06
-2.49462e-06
3.47632e-06
-3.14439e-06
3.02305e-06
-3.65807e-06
2.52677e-06
-4.09658e-06
2.09182e-06
-4.49476e-06
1.75028e-06
-4.87073e-06
1.49824e-06
-5.23305e-06
1.31836e-06
-5.58477e-06
1.18911e-06
-5.92511e-06
1.0895e-06
-6.25014e-06
1.00102e-06
-6.55304e-06
9.08188e-07
-6.82462e-06
7.9867e-07
-7.05338e-06
6.62896e-07
-7.22634e-06
4.94786e-07
-7.33022e-06
2.9079e-07
-7.35265e-06
5.10225e-08
-7.28052e-06
-2.18025e-07
-7.10651e-06
-5.16405e-07
-6.82344e-06
-8.3552e-07
-6.42755e-06
-1.16551e-06
-5.91933e-06
-1.49469e-06
-5.30371e-06
-1.81022e-06
-4.58992e-06
-2.09891e-06
-3.79199e-06
-2.3478e-06
-2.92761e-06
-2.5466e-06
-2.01702e-06
-2.6877e-06
-1.0805e-06
-2.76938e-06
-1.35343e-07
-2.79707e-06
8.04067e-07
-2.77241e-06
1.72228e-06
-2.70414e-06
2.60812e-06
-2.60058e-06
3.45218e-06
-2.46912e-06
4.24765e-06
-2.31713e-06
4.99022e-06
-2.15147e-06
5.67767e-06
-1.97774e-06
6.30927e-06
-1.7996e-06
6.88478e-06
-1.61888e-06
7.40395e-06
-1.43614e-06
7.86659e-06
-1.2506e-06
8.27231e-06
-1.06102e-06
8.62079e-06
-8.67198e-07
8.91176e-06
-6.68372e-07
9.14392e-06
-4.62514e-07
9.3168e-06
-2.49034e-07
9.43181e-06
-2.43559e-08
9.48975e-06
2.07298e-07
9.48617e-06
4.52115e-07
9.41622e-06
7.05961e-07
9.26952e-06
9.66409e-07
9.02831e-06
1.22544e-06
8.66908e-06
1.46503e-06
8.17708e-06
1.65444e-06
7.57041e-06
1.75851e-06
6.91073e-06
1.76095e-06
6.2726e-06
1.68466e-06
5.69414e-06
1.57216e-06
5.16885e-06
1.44875e-06
4.67646e-06
1.32046e-06
4.2062e-06
1.19262e-06
3.75644e-06
1.0674e-06
3.33071e-06
9.41626e-07
2.93943e-06
8.09498e-07
2.59736e-06
6.73526e-07
2.31735e-06
5.49306e-07
2.10633e-06
4.4338e-07
1.96594e-06
3.5009e-07
1.88466e-06
2.59347e-07
1.84172e-06
1.45088e-07
1.81549e-06
-6.51968e-09
1.78217e-06
-1.81909e-07
1.76347e-06
-4.54306e-07
1.87825e-06
-9.45733e-07
2.24201e-06
-1.44114e-06
2.71188e-06
-1.37097e-06
2.95123e-06
-6.5322e-07
2.75908e-06
2.69866e-07
2.15445e-06
1.17049e-06
1.25929e-06
2.05953e-06
2.05564e-07
2.85234e-06
-9.17905e-07
3.41024e-06
-2.06944e-06
3.65118e-06
-3.16881e-06
3.50082e-06
2.68068e-06
-4.05148e-06
4.89981e-07
-8.45015e-07
1.03329e-06
-1.41448e-06
1.464e-06
-1.61814e-06
1.7476e-06
-1.59348e-06
1.91272e-06
-1.44713e-06
1.99937e-06
-1.24752e-06
2.04406e-06
-1.03256e-06
2.07336e-06
-8.23558e-07
2.10176e-06
-6.24747e-07
2.12374e-06
-4.18647e-07
2.13344e-06
-2.08172e-07
2.12928e-06
-4.13274e-09
2.12494e-06
1.89831e-07
2.08478e-06
3.78697e-07
2.02879e-06
5.14815e-07
2.00008e-06
5.84505e-07
2.04558e-06
5.78849e-07
2.15583e-06
4.87142e-07
2.18226e-06
3.81907e-07
1.92656e-06
4.33221e-07
1.2816e-06
7.56746e-07
2.71989e-07
1.24058e-06
-9.11233e-07
1.71146e-06
-2.07892e-06
2.13525e-06
-3.14074e-06
2.48806e-06
-4.0845e-06
2.74257e-06
-4.88937e-06
2.90194e-06
-5.5579e-06
2.98862e-06
-6.13125e-06
3.02285e-06
-6.63968e-06
3.01342e-06
-7.10674e-06
2.96589e-06
-7.55065e-06
2.88758e-06
-7.98028e-06
2.786e-06
-8.3999e-06
2.66543e-06
-8.80901e-06
2.52915e-06
-9.20477e-06
2.37959e-06
-9.58315e-06
2.21898e-06
-9.93993e-06
2.04943e-06
-1.02712e-05
1.87247e-06
-1.05736e-05
1.68926e-06
-1.08439e-05
1.50042e-06
-1.10792e-05
1.30632e-06
-1.12765e-05
1.10716e-06
-1.14329e-05
9.03313e-07
-1.15461e-05
6.95561e-07
-1.16147e-05
4.85176e-07
-1.16378e-05
2.7306e-07
-1.16113e-05
5.66072e-08
-1.15423e-05
-1.48597e-07
-1.14287e-05
-3.50994e-07
-1.12702e-05
-5.49252e-07
-1.10691e-05
-7.39364e-07
-1.08283e-05
-9.19393e-07
-1.05505e-05
-1.08807e-06
-1.02386e-05
-1.24508e-06
-9.89464e-06
-1.39057e-06
-9.52049e-06
-1.52523e-06
-9.11725e-06
-1.64996e-06
-8.68561e-06
-1.7658e-06
-8.22592e-06
-1.8737e-06
-7.73835e-06
-1.97431e-06
-7.22316e-06
-2.06784e-06
-6.68093e-06
-2.1538e-06
-6.11309e-06
-2.23093e-06
-5.52261e-06
-2.2971e-06
-4.91458e-06
-2.34953e-06
-4.2966e-06
-2.38564e-06
-3.6787e-06
-2.40433e-06
-3.07347e-06
-2.40676e-06
-2.49704e-06
-2.39608e-06
-1.97109e-06
-2.37729e-06
-1.52358e-06
-2.35909e-06
-1.1822e-06
-2.35624e-06
-9.50956e-07
-2.38547e-06
-7.75579e-07
-2.4383e-06
-5.39332e-07
-2.4377e-06
-8.51676e-08
-2.23678e-06
6.48966e-07
-1.7869e-06
1.58457e-06
-1.25895e-06
2.54229e-06
-8.21723e-07
3.41721e-06
-5.42656e-07
4.188e-06
-3.57033e-07
4.82275e-06
-1.6129e-07
5.25926e-06
6.80449e-08
5.42222e-06
2.77178e-07
5.2701e-06
3.34136e-07
4.83613e-06
-2.68152e-08
4.34861e-06
-9.82586e-07
3.92098e-06
-1.7843e-06
3.58192e-06
-1.51705e-06
3.41999e-06
-3.46012e-07
3.24086e-06
7.91001e-07
2.61457e-06
1.58869e-06
1.35863e-06
2.58672e-06
-1.35422e-07
3.74587e-06
-1.35956e-06
4.4411e-06
-2.15254e-06
4.43213e-06
-2.65523e-06
3.97901e-06
-3.04103e-06
3.40884e-06
-3.39572e-06
2.88146e-06
-3.7513e-06
2.44741e-06
-4.11542e-06
2.1144e-06
-4.48833e-06
1.87115e-06
-4.86787e-06
1.6979e-06
-5.25006e-06
1.5713e-06
-5.62899e-06
1.46844e-06
-5.99688e-06
1.3689e-06
-6.34393e-06
1.25524e-06
-6.65847e-06
1.11321e-06
-6.92752e-06
9.31945e-07
-7.13689e-06
7.04151e-07
-7.27231e-06
4.26213e-07
-7.32031e-06
9.9018e-08
-7.27055e-06
-2.67781e-07
-7.11442e-06
-6.72534e-07
-6.84495e-06
-1.10499e-06
-6.45868e-06
-1.55179e-06
-5.9561e-06
-1.99727e-06