/*--------------------------------*- C++ -*----------------------------------*\
| =========                 |                                                 |
| \\      /  F ield         | OpenFOAM: The Open Source CFD Toolbox           |
|  \\    /   O peration     | Version:  2112                                  |
|   \\  /    A nd           | Website:  www.openfoam.com                      |
|    \\/     M anipulation  |                                                 |
\*---------------------------------------------------------------------------*/
FoamFile
{
    version     2.0;
    format      ascii;
    arch        "LSB;label=32;scalar=64";
    class       volVectorField;
    location    "0.19";
    object      UMean;
}
// * * * * * * * * * * * * * * * * * * * * * * * * * * * * * * * * * * * * * //

dimensions      [0 1 -1 0 0 0 0];

internalField   nonuniform List<vector> 
12225
(
(9.84554 0.0441092 0)
(9.55379 0.0604942 0)
(9.25467 0.0581569 0)
(8.94993 0.056793 0)
(8.65006 0.0562923 0)
(8.35994 0.0555966 0)
(8.08052 0.0545225 0)
(7.80994 0.0537682 0)
(7.54732 0.0528678 0)
(7.28967 0.0530213 0)
(7.03686 0.0526198 0)
(6.78363 0.0548722 0)
(6.52997 0.0553037 0)
(6.26597 0.0625558 0)
(5.99064 0.0642458 0)
(5.6866 0.0837865 0)
(5.34653 0.0785258 0)
(4.98171 0.115139 0)
(10.0159 0.0521944 0)
(10.0785 0.0761839 0)
(10.1174 0.0747402 0)
(10.1299 0.075879 0)
(10.1255 0.0794467 0)
(10.1102 0.0826043 0)
(10.0865 0.0853319 0)
(10.0546 0.0877792 0)
(10.0149 0.0908953 0)
(9.96695 0.0940475 0)
(9.91134 0.0989196 0)
(9.84665 0.103923 0)
(9.77311 0.112964 0)
(9.68652 0.122333 0)
(9.58731 0.140592 0)
(9.46511 0.159131 0)
(9.32143 0.191026 0)
(9.14146 0.216633 0)
(10.0017 0.0298008 0)
(10.0347 0.0535003 0)
(10.0632 0.055753 0)
(10.0793 0.0581048 0)
(10.0883 0.0630173 0)
(10.0948 0.0680618 0)
(10.1007 0.0723882 0)
(10.1048 0.0767404 0)
(10.1069 0.0812597 0)
(10.1057 0.0869206 0)
(10.1022 0.0932458 0)
(10.0942 0.102226 0)
(10.0845 0.112783 0)
(10.0685 0.129138 0)
(10.0524 0.148935 0)
(10.0283 0.179245 0)
(10.0072 0.213199 0)
(9.9747 0.253849 0)
(9.99726 0.0303777 0)
(10.0202 0.0584093 0)
(10.0426 0.0642419 0)
(10.0559 0.0663494 0)
(10.0623 0.0705195 0)
(10.066 0.0753332 0)
(10.0692 0.079835 0)
(10.0715 0.0840988 0)
(10.0725 0.088951 0)
(10.0715 0.0945529 0)
(10.0689 0.101788 0)
(10.0642 0.110755 0)
(10.0582 0.122974 0)
(10.0509 0.138913 0)
(10.044 0.160562 0)
(10.0388 0.188694 0)
(10.0382 0.222264 0)
(10.0433 0.259938 0)
(9.99903 0.0228006 0)
(10.0181 0.0465663 0)
(10.0378 0.0547711 0)
(10.0507 0.0577513 0)
(10.0571 0.0619459 0)
(10.0604 0.0673475 0)
(10.0629 0.072705 0)
(10.0646 0.0779473 0)
(10.065 0.0835395 0)
(10.0638 0.0901517 0)
(10.0609 0.0981473 0)
(10.0564 0.108299 0)
(10.0506 0.121144 0)
(10.0444 0.137894 0)
(10.0385 0.159104 0)
(10.0354 0.185568 0)
(10.036 0.21606 0)
(10.0431 0.248829 0)
(10.0095 0.0209903 0)
(10.0248 0.0453266 0)
(10.0411 0.0561475 0)
(10.0527 0.0605576 0)
(10.0592 0.0648653 0)
(10.0626 0.0703221 0)
(10.0649 0.0760556 0)
(10.0665 0.0817407 0)
(10.0669 0.0877991 0)
(10.066 0.0948399 0)
(10.0635 0.103373 0)
(10.0598 0.113986 0)
(10.0553 0.1272 0)
(10.0507 0.143872 0)
(10.0468 0.164228 0)
(10.0453 0.188773 0)
(10.0469 0.216127 0)
(10.0538 0.24557 0)
(10.0038 0.0160494 0)
(10.0175 0.0374109 0)
(10.0319 0.0493465 0)
(10.0434 0.055087 0)
(10.0508 0.0598153 0)
(10.0551 0.0654891 0)
(10.058 0.0717204 0)
(10.0601 0.0781059 0)
(10.0613 0.0848722 0)
(10.0612 0.0925927 0)
(10.06 0.101768 0)
(10.0579 0.112954 0)
(10.0553 0.126541 0)
(10.053 0.143135 0)
(10.0516 0.162771 0)
(10.0524 0.185694 0)
(10.0561 0.210739 0)
(10.0642 0.237639 0)
(10.0066 0.0158461 0)
(10.018 0.0361208 0)
(10.0299 0.0484612 0)
(10.0397 0.0553425 0)
(10.0466 0.0606879 0)
(10.0508 0.0665749 0)
(10.0535 0.0730709 0)
(10.0554 0.0798633 0)
(10.0567 0.0870686 0)
(10.0572 0.0951939 0)
(10.0569 0.104697 0)
(10.056 0.116093 0)
(10.055 0.129637 0)
(10.0546 0.145772 0)
(10.0553 0.164363 0)
(10.0583 0.185585 0)
(10.0637 0.208368 0)
(10.0731 0.232646 0)
(9.99838 0.00988038 0)
(10.0074 0.0298847 0)
(10.0175 0.0424867 0)
(10.0267 0.0503246 0)
(10.0339 0.056415 0)
(10.039 0.0626569 0)
(10.0425 0.0694707 0)
(10.0452 0.0767246 0)
(10.0473 0.0844556 0)
(10.0487 0.09305 0)
(10.0494 0.102896 0)
(10.0499 0.114446 0)
(10.0503 0.127868 0)
(10.0515 0.143496 0)
(10.0538 0.161075 0)
(10.0584 0.180754 0)
(10.065 0.201486 0)
(10.0753 0.223386 0)
(9.99384 0.0127226 0)
(10.001 0.029124 0)
(10.0088 0.0413294 0)
(10.0165 0.0498099 0)
(10.0231 0.0564436 0)
(10.0282 0.062891 0)
(10.0319 0.0698124 0)
(10.0348 0.077282 0)
(10.0372 0.0853011 0)
(10.0392 0.0941503 0)
(10.0409 0.10412 0)
(10.0425 0.115597 0)
(10.0443 0.128655 0)
(10.047 0.143548 0)
(10.0508 0.159937 0)
(10.0566 0.177956 0)
(10.0643 0.196589 0)
(10.0751 0.216099 0)
(9.99795 0.00698903 0)
(10.0046 0.0235688 0)
(10.0114 0.0359823 0)
(10.0181 0.0449608 0)
(10.0242 0.0521568 0)
(10.0292 0.0590091 0)
(10.033 0.0662225 0)
(10.0361 0.0739795 0)
(10.0387 0.0823037 0)
(10.0412 0.0914036 0)
(10.0435 0.101474 0)
(10.0459 0.112834 0)
(10.0487 0.125497 0)
(10.0524 0.139652 0)
(10.0572 0.154911 0)
(10.0638 0.171408 0)
(10.0721 0.188175 0)
(10.0828 0.205576 0)
(9.99928 0.00953485 0)
(10.0043 0.0235241 0)
(10.0096 0.0351304 0)
(10.0155 0.0441851 0)
(10.0215 0.051657 0)
(10.0268 0.0587033 0)
(10.0311 0.065998 0)
(10.0347 0.0737964 0)
(10.0381 0.0821751 0)
(10.0413 0.0912737 0)
(10.0446 0.101218 0)
(10.0482 0.112252 0)
(10.0522 0.124348 0)
(10.0571 0.137656 0)
(10.063 0.151768 0)
(10.0705 0.166807 0)
(10.0795 0.181876 0)
(10.0905 0.197385 0)
(9.99524 0.00728459 0)
(10.0011 0.0201932 0)
(10.0067 0.0312344 0)
(10.0121 0.0403954 0)
(10.0177 0.0481719 0)
(10.023 0.0554536 0)
(10.0277 0.0628807 0)
(10.0319 0.0707758 0)
(10.036 0.0791962 0)
(10.0401 0.088261 0)
(10.0445 0.0980367 0)
(10.0492 0.108722 0)
(10.0545 0.120247 0)
(10.0607 0.132743 0)
(10.0679 0.145796 0)
(10.0766 0.159559 0)
(10.0864 0.17314 0)
(10.0981 0.187056 0)
(9.99633 0.00567134 0)
(9.99997 0.0181858 0)
(10.0036 0.0287621 0)
(10.008 0.0377273 0)
(10.0132 0.0455867 0)
(10.0184 0.0529586 0)
(10.0233 0.0603981 0)
(10.028 0.0682216 0)
(10.0325 0.0765037 0)
(10.0373 0.0853429 0)
(10.0423 0.0947598 0)
(10.0479 0.104908 0)
(10.054 0.115677 0)
(10.0609 0.127169 0)
(10.0688 0.138963 0)
(10.0779 0.151235 0)
(10.0881 0.163145 0)
(10.0998 0.175266 0)
(10.0036 0.00760462 0)
(10.0084 0.0169462 0)
(10.0126 0.0263209 0)
(10.0169 0.0349299 0)
(10.0219 0.0426301 0)
(10.0273 0.0498279 0)
(10.0326 0.0570254 0)
(10.0379 0.0645518 0)
(10.0431 0.0725071 0)
(10.0486 0.0809589 0)
(10.0544 0.0898647 0)
(10.0606 0.0993005 0)
(10.0674 0.109119 0)
(10.0749 0.11941 0)
(10.0833 0.12978 0)
(10.0926 0.140421 0)
(10.1029 0.150576 0)
(10.1142 0.160841 0)
(10.0058 0.00299362 0)
(10.0106 0.0128337 0)
(10.0145 0.0217207 0)
(10.0185 0.0297347 0)
(10.0232 0.0371208 0)
(10.0287 0.0442164 0)
(10.0344 0.0512924 0)
(10.0402 0.0585691 0)
(10.0462 0.0661307 0)
(10.0525 0.0740464 0)
(10.0592 0.0822739 0)
(10.0664 0.0908627 0)
(10.0742 0.0996486 0)
(10.0827 0.108696 0)
(10.0918 0.117644 0)
(10.1018 0.126694 0)
(10.1123 0.135177 0)
(10.1237 0.143695 0)
(10.0041 0.00453524 0)
(10.0081 0.0126144 0)
(10.0113 0.0197931 0)
(10.0149 0.0264781 0)
(10.0197 0.0329655 0)
(10.0254 0.039426 0)
(10.0315 0.0459145 0)
(10.0378 0.0525012 0)
(10.0443 0.0592326 0)
(10.0512 0.0661741 0)
(10.0584 0.0732834 0)
(10.0662 0.0805955 0)
(10.0745 0.0879631 0)
(10.0834 0.0954488 0)
(10.0928 0.102747 0)
(10.1028 0.110055 0)
(10.1131 0.116807 0)
(10.1242 0.123568 0)
(9.98931 0.000379163 0)
(9.99254 0.00696492 0)
(9.99564 0.0129864 0)
(9.99935 0.0187841 0)
(10.0043 0.0244547 0)
(10.0104 0.0300784 0)
(10.017 0.0357289 0)
(10.0241 0.041507 0)
(10.0314 0.047414 0)
(10.0391 0.0534532 0)
(10.0472 0.0595372 0)
(10.0557 0.0656755 0)
(10.0646 0.0717303 0)
(10.0739 0.0777675 0)
(10.0836 0.0835395 0)
(10.0937 0.0892463 0)
(10.104 0.0944251 0)
(10.1148 0.0995972 0)
(9.99533 0.0051478 0)
(9.99888 0.00735704 0)
(10.0019 0.0103897 0)
(10.0054 0.0138581 0)
(10.0104 0.0175329 0)
(10.0167 0.0213876 0)
(10.0237 0.025443 0)
(10.0312 0.0297066 0)
(10.0389 0.034106 0)
(10.047 0.038601 0)
(10.0554 0.043118 0)
(10.0642 0.047661 0)
(10.0732 0.0521227 0)
(10.0826 0.0565442 0)
(10.0921 0.0607318 0)
(10.1018 0.0648327 0)
(10.1117 0.0684989 0)
(10.1217 0.0721259 0)
(9.99842 -0.000399977 0)
(10.0042 0.00149124 0)
(10.0094 0.00306486 0)
(10.0146 0.00489404 0)
(10.0207 0.00725417 0)
(10.0277 0.0100962 0)
(10.0353 0.0132447 0)
(10.0432 0.0165438 0)
(10.0513 0.0198979 0)
(10.0597 0.0233028 0)
(10.0684 0.0267201 0)
(10.0774 0.0301554 0)
(10.0865 0.0335127 0)
(10.0959 0.0368084 0)
(10.1053 0.0398774 0)
(10.1148 0.0428349 0)
(10.1244 0.0454161 0)
(10.134 0.0479457 0)
(10.0002 -0.00252845 0)
(10.0035 -0.00228949 0)
(10.0074 -0.00246837 0)
(10.0127 -0.00217104 0)
(10.0194 -0.00107281 0)
(10.027 0.000693847 0)
(10.0349 0.00280066 0)
(10.0431 0.00505575 0)
(10.0515 0.00739275 0)
(10.0601 0.00981858 0)
(10.0689 0.012305 0)
(10.078 0.01484 0)
(10.0872 0.017331 0)
(10.0965 0.0197786 0)
(10.1059 0.0220567 0)
(10.1153 0.024239 0)
(10.1247 0.0261295 0)
(10.1342 0.0279546 0)
(9.99451 0.000708428 0)
(9.99884 -0.00418949 0)
(10.0039 -0.00652663 0)
(10.0102 -0.00720672 0)
(10.0178 -0.00682275 0)
(10.0261 -0.00579116 0)
(10.0345 -0.00438872 0)
(10.043 -0.00278937 0)
(10.0517 -0.00106502 0)
(10.0606 0.000763263 0)
(10.0697 0.00264386 0)
(10.079 0.00454527 0)
(10.0883 0.00638472 0)
(10.0977 0.0081672 0)
(10.1071 0.00979727 0)
(10.1164 0.0113556 0)
(10.1257 0.0126801 0)
(10.135 0.0139738 0)
(9.9898 -0.00307078 0)
(9.99676 -0.0103127 0)
(10.0038 -0.0145033 0)
(10.0112 -0.016191 0)
(10.0194 -0.016369 0)
(10.028 -0.0159153 0)
(10.0366 -0.0152517 0)
(10.0453 -0.0144344 0)
(10.0542 -0.0134341 0)
(10.0632 -0.0122403 0)
(10.0725 -0.0109261 0)
(10.0818 -0.00955304 0)
(10.0911 -0.00820571 0)
(10.1005 -0.00689164 0)
(10.1098 -0.00568638 0)
(10.119 -0.00454187 0)
(10.1282 -0.0035778 0)
(10.1372 -0.0026577 0)
(9.98433 -0.00419052 0)
(9.99244 -0.0119247 0)
(10.0015 -0.0169623 0)
(10.0109 -0.0190177 0)
(10.0204 -0.0192705 0)
(10.0297 -0.0189956 0)
(10.0387 -0.0187166 0)
(10.0477 -0.0183603 0)
(10.0569 -0.0177737 0)
(10.0663 -0.0169578 0)
(10.0758 -0.0160221 0)
(10.0852 -0.015055 0)
(10.0947 -0.0141309 0)
(10.104 -0.0132454 0)
(10.1134 -0.0124537 0)
(10.1226 -0.0117073 0)
(10.1318 -0.0111087 0)
(10.1409 -0.0105394 0)
(9.99608 -0.00902269 0)
(10.005 -0.0210168 0)
(10.0153 -0.0276355 0)
(10.0257 -0.0297782 0)
(10.0354 -0.0301377 0)
(10.0442 -0.0303601 0)
(10.0528 -0.0306547 0)
(10.0617 -0.0307166 0)
(10.071 -0.0304277 0)
(10.0804 -0.0298763 0)
(10.0899 -0.0292197 0)
(10.0994 -0.0285441 0)
(10.1088 -0.0279001 0)
(10.1181 -0.0272835 0)
(10.1274 -0.0267339 0)
(10.1365 -0.026227 0)
(10.1455 -0.0258317 0)
(10.1543 -0.0254743 0)
(9.99776 -0.0080089 0)
(10.0092 -0.0214243 0)
(10.0233 -0.027151 0)
(10.0361 -0.0282479 0)
(10.0464 -0.0284698 0)
(10.0554 -0.0291432 0)
(10.0641 -0.0299401 0)
(10.0733 -0.0304048 0)
(10.0827 -0.0304877 0)
(10.0922 -0.030346 0)
(10.1017 -0.0301139 0)
(10.1112 -0.02984 0)
(10.1206 -0.0295523 0)
(10.1299 -0.0292557 0)
(10.1392 -0.028993 0)
(10.1484 -0.0287569 0)
(10.1575 -0.0286067 0)
(10.1663 -0.0284868 0)
(10.001 -0.017106 0)
(10.0152 -0.0368333 0)
(10.0311 -0.0417921 0)
(10.044 -0.0416029 0)
(10.0539 -0.0417488 0)
(10.0625 -0.0426982 0)
(10.0715 -0.0435166 0)
(10.0809 -0.0438371 0)
(10.0906 -0.0438153 0)
(10.1002 -0.0436749 0)
(10.1097 -0.0435156 0)
(10.1191 -0.0433514 0)
(10.1285 -0.0431801 0)
(10.1379 -0.0430037 0)
(10.1472 -0.042847 0)
(10.1563 -0.042714 0)
(10.1654 -0.0426398 0)
(10.1742 -0.0425925 0)
(9.99295 -0.0128454 0)
(10.0166 -0.0308842 0)
(10.0391 -0.0337816 0)
(10.0546 -0.0338198 0)
(10.0656 -0.0352752 0)
(10.0756 -0.0371858 0)
(10.0863 -0.0385164 0)
(10.0974 -0.0392651 0)
(10.1087 -0.0397378 0)
(10.1196 -0.0401218 0)
(10.1303 -0.0404443 0)
(10.1408 -0.040718 0)
(10.1512 -0.0409229 0)
(10.1614 -0.0411123 0)
(10.1714 -0.0412817 0)
(10.1811 -0.0415017 0)
(10.1907 -0.0417492 0)
(10.1999 -0.0420836 0)
(10.0021 -0.0369871 0)
(10.0454 -0.0553542 0)
(10.0799 -0.0533388 0)
(10.1011 -0.0520583 0)
(10.1145 -0.0532016 0)
(10.1246 -0.0544682 0)
(10.1327 -0.0550896 0)
(10.139 -0.0553183 0)
(10.1433 -0.0554249 0)
(10.1458 -0.0555192 0)
(10.1466 -0.0555802 0)
(10.1463 -0.0556295 0)
(10.1448 -0.0556306 0)
(10.1426 -0.0556481 0)
(10.1393 -0.055626 0)
(10.1357 -0.0556672 0)
(10.1309 -0.0557018 0)
(10.1264 -0.0558834 0)
(9.91291 -0.0292505 0)
(9.75738 -0.0456174 0)
(9.59532 -0.0449555 0)
(9.42775 -0.0440116 0)
(9.26293 -0.0441105 0)
(9.10518 -0.0440431 0)
(8.95522 -0.0435672 0)
(8.81258 -0.0428994 0)
(8.67654 -0.042195 0)
(8.54682 -0.0415049 0)
(8.42301 -0.0408144 0)
(8.30517 -0.0401293 0)
(8.19269 -0.0394329 0)
(8.08595 -0.0387646 0)
(7.98372 -0.0381012 0)
(7.88716 -0.0375111 0)
(7.79375 -0.0369488 0)
(7.70654 -0.0365299 0)
(-0.151497 0.318754 1.71381e-22)
(-0.362426 0.143052 -1.50201e-22)
(-0.425294 -0.0141092 0)
(-0.333751 -0.178037 0)
(-0.129157 -0.291936 0)
(0.153166 -0.360204 1.23075e-22)
(0.47571 -0.38587 0)
(0.813903 -0.382967 0)
(1.148 -0.363032 0)
(1.46291 -0.329778 0)
(1.74918 -0.289495 1.0841e-22)
(2.00267 -0.246474 0)
(2.21626 -0.206155 0)
(2.38751 -0.168131 0)
(2.51594 -0.12253 0)
(2.60079 -0.0600559 4.60954e-22)
(2.63438 -0.00140329 0)
(2.62564 0.0478249 0)
(2.57677 0.0939022 0)
(2.49087 0.133341 0)
(2.37037 0.165669 0)
(2.21556 0.183433 0)
(2.03734 0.183291 0)
(1.8422 0.188269 4.36923e-22)
(1.63313 0.187887 -4.16797e-22)
(1.41276 0.174558 3.99934e-22)
(1.19173 0.140838 3.88486e-22)
(0.985538 0.109542 0)
(0.781996 0.113275 0)
(0.571184 0.107595 -3.85428e-22)
(0.375139 0.101453 -3.94328e-22)
(0.178429 0.112991 0)
(-0.0163316 0.0993504 0)
(-0.20076 0.0712983 -4.32723e-22)
(-0.388449 0.0658044 0)
(-0.576364 0.0921046 0)
(-0.754206 0.077993 4.94098e-22)
(-0.907275 0.0573929 0)
(-1.05583 0.079952 5.55563e-22)
(-1.20877 0.0977409 1.1837e-21)
(-1.35056 0.0932406 0)
(-1.4826 0.0789992 0)
(-1.60848 0.0613675 0)
(-1.72759 0.0720889 0)
(-1.85691 0.0841603 0)
(-1.98138 0.0798932 1.73947e-21)
(-2.10743 0.07919 1.80637e-21)
(-2.24052 0.0856865 1.86817e-21)
(-2.37254 0.0834252 0)
(-2.50318 0.0947913 -1.98553e-21)
(-2.61055 0.0684618 0)
(-2.70167 0.00580329 2.07483e-21)
(-2.77526 -0.00836132 2.09365e-21)
(-2.90129 -0.0153046 0)
(-3.04369 0.0171168 0)
(-3.23155 0.119069 0)
(-3.45803 0.131215 1.99311e-21)
(-3.65778 0.109058 0)
(-3.84748 0.0811056 0)
(-3.99386 0.064253 0)
(-4.10359 0.0533193 0)
(-4.19294 0.0310802 0)
(-4.28437 -0.0123966 0)
(-4.36209 0.0371742 0)
(-4.49884 0.0722487 0)
(-4.60865 0.0575299 -1.995e-21)
(-4.69996 0.0501427 0)
(-4.77648 0.0469284 0)
(-4.83627 0.0420305 2.11843e-21)
(-4.87759 0.0295842 2.15347e-21)
(-4.90435 0.0143933 0)
(-4.9294 -0.012263 -2.19877e-21)
(-4.92738 -0.0354988 2.20552e-21)
(-4.91954 -0.0407979 0)
(-4.91197 -0.0380136 -2.17635e-21)
(-4.89145 -0.0246231 0)
(-4.90168 -0.031387 0)
(-4.90431 -0.0261046 2.04733e-21)
(-4.93729 0.0290664 0)
(-4.99825 0.0378602 -1.9288e-21)
(-5.03679 0.0300629 0)
(-5.06952 0.0231128 1.81254e-21)
(-5.0833 0.0135198 1.73506e-21)
(-5.0807 0.00159424 1.64163e-21)
(-5.05913 -0.0103716 3.06636e-21)
(-5.02112 -0.0266256 -2.82352e-21)
(-4.96206 -0.0499534 0)
(-4.90173 -0.0382319 0)
(-4.85767 -0.0167242 0)
(-4.8157 -0.0145388 -1.70244e-21)
(-4.75589 -0.0216415 -1.44384e-21)
(-4.67898 -0.0304882 1.20487e-21)
(-4.58398 -0.0401444 0)
(-4.47036 -0.0504572 -7.68651e-22)
(-4.33808 -0.0596239 -5.64938e-22)
(-4.19114 -0.0653149 -3.68275e-22)
(-4.03477 -0.0696581 0)
(-3.87064 -0.0725705 0)
(-3.70164 -0.0733195 0)
(-3.535 -0.0697 4.52925e-22)
(-3.37919 -0.0637163 0)
(-3.23418 -0.0564904 0)
(-3.11152 -0.049924 -1.33081e-21)
(-2.99501 -0.0506601 0)
(-2.86908 -0.0742076 0)
(-2.70347 -0.0974744 -2.26231e-21)
(-2.58 -0.0635517 0)
(-2.49838 -0.042073 0)
(-2.41921 -0.0356644 2.96352e-21)
(-2.33465 -0.0346599 3.07701e-21)
(-2.23814 -0.0330444 0)
(-2.13935 -0.0317093 -3.19604e-21)
(-2.03075 -0.036811 0)
(-1.91092 -0.0426372 3.23158e-21)
(-1.78235 -0.0448704 0)
(-1.64967 -0.0455553 3.27315e-21)
(-1.51281 -0.0468089 3.32611e-21)
(-1.37105 -0.0473425 0)
(-1.2268 -0.0470088 0)
(-1.08062 -0.0485552 0)
(-0.926677 -0.0532622 0)
(-0.760864 -0.0593679 0)
(-0.584709 -0.064253 0)
(-0.401111 -0.0671439 0)
(-0.211964 -0.0684429 4.60382e-21)
(-0.0184457 -0.0686527 -4.7685e-21)
(0.17715 -0.067363 0)
(0.370674 -0.064278 0)
(0.55714 -0.0591675 0)
(0.731359 -0.0525063 0)
(0.889118 -0.0449031 -1.04225e-20)
(1.02948 -0.0379309 0)
(1.1561 -0.0333934 1.04454e-20)
(1.27197 -0.0297894 -1.041e-20)
(1.37494 -0.0257601 0)
(1.4673 -0.0219206 0)
(1.54786 -0.0187304 0)
(1.61903 -0.0185454 1.00975e-20)
(1.68624 -0.0185173 9.9795e-21)
(1.73847 -0.0122993 0)
(1.76821 -0.00392315 9.63613e-21)
(1.78804 -0.000973755 9.40998e-21)
(1.81808 -0.0038461 -9.18023e-21)
(1.8649 -0.00881282 0)
(1.92666 -0.0141166 0)
(2.0016 -0.0190421 -8.71486e-21)
(2.0867 -0.0221526 0)
(2.17777 -0.0230873 0)
(2.2708 -0.0223184 0)
(2.36239 -0.0204152 0)
(2.44961 -0.0178172 8.68267e-21)
(2.52978 -0.0147605 8.71225e-21)
(2.60008 -0.0116152 0)
(2.6591 -0.00807516 8.72422e-21)
(2.70311 -0.0044587 0)
(2.73158 -0.00174927 0)
(2.74316 0.00157144 8.55367e-21)
(2.73363 0.00403901 0)
(2.70797 0.00590857 8.32076e-21)
(2.66494 0.00914026 0)
(2.60252 0.0156116 0)
(2.5173 0.0219324 7.87654e-21)
(2.43672 0.0227211 0)
(2.36609 0.0182683 7.48674e-21)
(2.30142 0.0133248 0)
(2.2408 0.0100933 0)
(2.18133 0.00868205 0)
(2.12343 0.00822068 -7.02206e-21)
(2.06598 0.00871193 0)
(2.00476 0.00954376 6.90552e-21)
(1.94513 0.00770022 0)
(1.90292 0.00440709 0)
(1.87675 0.0038206 0)
(1.86254 0.00238084 0)
(1.85789 0.00150684 0)
(1.85043 -0.00190288 0)
(1.85357 0.00317991 0)
(1.80985 -0.00215024 -1.34668e-20)
(1.82433 0.0225781 0)
(1.64652 0.00756436 0)
(-0.000773576 0.671185 -4.24502e-22)
(0.0176616 0.382192 3.69721e-22)
(0.140267 -0.0534722 0)
(0.349187 -0.449759 -1.05695e-22)
(0.607015 -0.749284 0)
(0.901941 -0.937005 -1.25519e-22)
(1.20272 -1.02105 -6.25964e-23)
(1.49608 -1.02626 -1.59704e-22)
(1.76815 -0.978442 0)
(2.01346 -0.900846 -4.2829e-22)
(2.22552 -0.803371 -1.06033e-22)
(2.40428 -0.682314 0)
(2.54523 -0.547213 0)
(2.64666 -0.412437 0)
(2.71699 -0.284581 0)
(2.76303 -0.165032 -4.58264e-22)
(2.7825 -0.0533034 0)
(2.77775 0.0494467 1.33989e-21)
(2.74762 0.142651 0)
(2.69187 0.230647 0)
(2.61074 0.317368 -1.29421e-21)
(2.50096 0.399385 0)
(2.36423 0.46582 1.19023e-21)
(2.19477 0.512887 -4.32303e-22)
(2.01371 0.55218 4.12077e-22)
(1.80752 0.574101 -3.95252e-22)
(1.57087 0.576505 -3.83935e-22)
(1.3168 0.574853 0)
(1.03794 0.570273 0)
(0.752628 0.555642 3.81554e-22)
(0.482299 0.534083 -6.0431e-22)
(0.221916 0.507481 0)
(-0.0501442 0.48908 0)
(-0.322819 0.500808 4.29341e-22)
(-0.584208 0.501422 0)
(-0.81192 0.448895 0)
(-1.03819 0.404279 -4.90352e-22)
(-1.26833 0.377883 0)
(-1.48782 0.354591 8.75064e-22)
(-1.6716 0.313872 -1.17562e-21)
(-1.82967 0.277594 0)
(-1.97358 0.264306 0)
(-2.11461 0.263055 -3.59547e-21)
(-2.24489 0.267554 -3.79232e-21)
(-2.3725 0.260668 -3.95887e-21)
(-2.49705 0.256088 2.36427e-21)
(-2.62811 0.2654 -1.79797e-21)
(-2.75285 0.263383 -6.17417e-21)
(-2.85058 0.255297 4.4218e-21)
(-2.93563 0.218325 1.97831e-21)
(-3.02168 0.177646 0)
(-3.18186 0.2142 -2.06812e-21)
(-3.34526 0.265627 2.60887e-21)
(-3.57458 0.369745 0)
(-3.78938 0.410835 0)
(-3.95305 0.412005 0)
(-4.1197 0.397948 -1.98594e-21)
(-4.27123 0.384037 0)
(-4.41226 0.332246 4.38281e-21)
(-4.49008 0.246024 0)
(-4.55586 0.162209 4.32597e-21)
(-4.6413 0.177613 0)
(-4.76622 0.214306 -4.36314e-21)
(-4.84474 0.213282 0)
(-4.92602 0.196061 4.4046e-21)
(-4.98288 0.163478 -2.44986e-21)
(-5.04057 0.133161 0)
(-5.08682 0.0998893 -4.54766e-21)
(-5.1216 0.0682368 -2.1153e-21)
(-5.14469 0.0376146 -2.15046e-21)
(-5.17011 0.0321916 0)
(-5.19217 0.0281257 -2.4968e-21)
(-5.21071 0.0102798 -2.20265e-21)
(-5.23403 0.00584101 0)
(-5.24746 -0.0101308 2.17372e-21)
(-5.25287 -0.0134241 -4.54735e-21)
(-5.3049 0.0269134 0)
(-5.34969 0.0512739 -2.04562e-21)
(-5.36222 0.0510365 0)
(-5.37506 0.0450111 6.12251e-21)
(-5.36524 0.0345745 0)
(-5.35153 0.0138595 -5.74397e-21)
(-5.32378 -0.0123889 -1.73359e-21)
(-5.29179 -0.038237 1.90572e-21)
(-5.24942 -0.0608056 3.55247e-21)
(-5.20087 -0.0802874 -3.2795e-21)
(-5.15997 -0.0820893 0)
(-5.11615 -0.0749267 0)
(-5.04493 -0.0840233 0)
(-4.95693 -0.103238 5.55499e-21)
(-4.85151 -0.126657 1.44307e-21)
(-4.73244 -0.149896 -1.20404e-21)
(-4.5996 -0.173521 0)
(-4.4542 -0.196614 -1.11546e-21)
(-4.29592 -0.218129 5.64418e-22)
(-4.12677 -0.232064 3.68076e-22)
(-3.9493 -0.241486 0)
(-3.7669 -0.246511 0)
(-3.5826 -0.243399 0)
(-3.4047 -0.229845 -4.51781e-22)
(-3.23669 -0.212415 0)
(-3.07743 -0.191909 1.69611e-21)
(-2.93676 -0.171828 3.68142e-21)
(-2.80378 -0.172104 -3.02452e-21)
(-2.68252 -0.18436 0)
(-2.5998 -0.15605 -1.98087e-21)
(-2.52208 -0.12408 0)
(-2.43639 -0.114235 -5.2029e-21)
(-2.33511 -0.117723 2.56546e-21)
(-2.22361 -0.12967 2.68501e-21)
(-2.10335 -0.140509 0)
(-1.97513 -0.151152 9.22385e-21)
(-1.83527 -0.161959 -6.09012e-21)
(-1.69023 -0.170135 -3.23027e-21)
(-1.53919 -0.173875 0)
(-1.38436 -0.176512 -3.27106e-21)
(-1.22648 -0.179979 -9.70222e-21)
(-1.06381 -0.181461 0)
(-0.896984 -0.182145 -6.81202e-21)
(-0.727483 -0.187167 -7.12415e-21)
(-0.552485 -0.196326 -7.48439e-21)
(-0.371182 -0.205218 0)
(-0.184412 -0.211681 0)
(0.00891198 -0.216395 0)
(0.209968 -0.220261 4.45964e-21)
(0.417344 -0.222278 4.76553e-21)
(0.627697 -0.220558 0)
(0.836662 -0.213879 9.92352e-21)
(1.03959 -0.201746 1.01005e-20)
(1.23145 -0.185085 0)
(1.40886 -0.166508 1.04156e-20)
(1.57162 -0.149072 2.06507e-20)
(1.72021 -0.133691 -1.04383e-20)
(1.85356 -0.119131 -1.01607e-20)
(1.97011 -0.105774 0)
(2.07333 -0.0937402 0)
(2.16227 -0.0817321 0)
(2.23866 -0.072638 -1.00891e-20)
(2.30201 -0.0614835 9.67628e-21)
(2.35186 -0.044819 1.93001e-20)
(2.39911 -0.0338158 -9.62762e-21)
(2.45698 -0.0365683 9.01e-21)
(2.53331 -0.0486863 9.17216e-21)
(2.62552 -0.061974 0)
(2.72899 -0.0729361 0)
(2.83975 -0.0815502 -8.41007e-21)
(2.95509 -0.0874565 0)
(3.07306 -0.090314 0)
(3.19186 -0.0902716 1.69882e-20)
(3.30974 -0.0876738 0)
(3.42494 -0.0827779 8.44254e-21)
(3.53528 -0.0755657 -8.70363e-21)
(3.63814 -0.0661286 0)
(3.73102 -0.0542581 8.51483e-21)
(3.81061 -0.0400991 0)
(3.87389 -0.0244286 0)
(3.91798 -0.00720429 -8.54533e-21)
(3.93769 0.0106442 1.66909e-20)
(3.93169 0.0277805 -8.31194e-21)
(3.89291 0.0453517 0)
(3.81641 0.0586399 0)
(3.72094 0.0597866 7.66165e-21)
(3.64759 0.0520329 0)
(3.5897 0.04738 7.29518e-21)
(3.54194 0.0456999 0)
(3.49618 0.045512 0)
(3.44817 0.0450894 0)
(3.39633 0.0441512 7.01425e-21)
(3.34114 0.0440608 0)
(3.28285 0.0426867 -6.89792e-21)
(3.22581 0.0366136 0)
(3.17685 0.0245647 0)
(3.13722 0.0125936 1.34262e-20)
(3.11018 0.00264774 -1.34015e-20)
(3.09929 0.00168514 0)
(3.08549 -0.000671511 0)
(3.08533 0.0120774 0)
(3.05081 0.0123142 4.01387e-20)
(3.0571 0.0530155 0)
(2.94965 0.0525151 -2.6511e-20)
(0.0651478 0.370583 5.62212e-24)
(0.260889 -0.0722135 -4.38979e-22)
(0.544457 -0.610258 0)
(0.847468 -1.07131 1.27621e-22)
(1.13522 -1.37722 0)
(1.38748 -1.53372 0)
(1.60443 -1.56728 -3.33334e-22)
(1.78855 -1.51556 1.55829e-22)
(1.94418 -1.40084 7.10886e-22)
(2.07291 -1.2443 4.25765e-22)
(2.17592 -1.06616 0)
(2.26157 -0.879829 0)
(2.33032 -0.693986 -1.36244e-21)
(2.38176 -0.515486 -2.98652e-21)
(2.41526 -0.346608 3.20123e-21)
(2.4289 -0.186735 0)
(2.42121 -0.0340162 3.4666e-21)
(2.39245 0.111415 -1.34064e-21)
(2.34391 0.250472 0)
(2.27827 0.380895 3.47001e-21)
(2.19695 0.50168 1.29373e-21)
(2.09748 0.616342 -3.27148e-21)
(1.98075 0.721082 -1.18821e-21)
(1.84289 0.798888 0)
(1.68327 0.858322 2.85011e-21)
(1.49554 0.931238 2.7203e-21)
(1.27707 0.990014 0)
(1.03693 1.03124 2.53359e-21)
(0.77937 1.05351 0)
(0.514717 1.04226 2.47672e-21)
(0.248035 1.00866 9.87711e-22)
(-0.0329138 1.00357 0)
(-0.319117 0.997496 0)
(-0.593007 0.963656 0)
(-0.840414 0.898416 0)
(-1.08005 0.831462 0)
(-1.32656 0.813616 0)
(-1.56268 0.776483 3.32678e-21)
(-1.77836 0.7072 -4.95056e-21)
(-1.98006 0.630191 0)
(-2.17419 0.566409 0)
(-2.34843 0.515605 0)
(-2.51403 0.488847 -7.46189e-22)
(-2.66575 0.48375 3.78772e-21)
(-2.81538 0.47262 8.65186e-21)
(-2.96289 0.464675 -8.93125e-21)
(-3.08279 0.459904 -4.9514e-21)
(-3.18955 0.408864 4.31201e-21)
(-3.26529 0.353111 7.44791e-22)
(-3.37778 0.358409 5.2649e-21)
(-3.53535 0.415799 0)
(-3.69272 0.468993 5.40348e-21)
(-3.86527 0.540379 7.31085e-22)
(-4.02547 0.589376 0)
(-4.15809 0.594846 0)
(-4.27564 0.582744 -5.28458e-21)
(-4.3883 0.560287 0)
(-4.46236 0.498487 0)
(-4.52518 0.398636 5.63725e-21)
(-4.55076 0.270891 9.89811e-21)
(-4.63124 0.268219 -4.32926e-21)
(-4.71984 0.295886 0)
(-4.79871 0.292829 4.36827e-21)
(-4.843 0.266527 0)
(-4.88691 0.238396 5.60949e-21)
(-4.92173 0.213845 4.44589e-21)
(-4.96102 0.18462 -1.01068e-20)
(-4.99275 0.147329 -5.60529e-21)
(-5.02725 0.116061 0)
(-5.05717 0.0881572 1.02448e-20)
(-5.08935 0.0684723 0)
(-5.10438 0.0353143 1.4924e-20)
(-5.13062 0.0207426 1.01759e-20)
(-5.16543 0.0196244 1.00816e-20)
(-5.18855 0.00899261 -9.95913e-21)
(-5.23829 0.049631 1.43831e-20)
(-5.27846 0.0746153 0)
(-5.29047 0.0635968 0)
(-5.28895 0.0528559 -9.43729e-21)
(-5.27984 0.0380841 -1.3446e-20)
(-5.24741 0.010173 0)
(-5.21453 -0.0179486 3.93801e-21)
(-5.1717 -0.0469588 0)
(-5.12715 -0.0772612 -1.1372e-20)
(-5.07297 -0.107 6.94618e-22)
(-5.02175 -0.12485 -6.75535e-22)
(-4.96115 -0.136842 6.22609e-21)
(-4.87619 -0.156864 0)
(-4.77005 -0.184913 -5.06718e-21)
(-4.65342 -0.216674 6.27207e-22)
(-4.52849 -0.25013 0)
(-4.39977 -0.283023 0)
(-4.26593 -0.3158 0)
(-4.12694 -0.347594 1.88976e-21)
(-3.98115 -0.378158 0)
(-3.82654 -0.400006 0)
(-3.6621 -0.414572 0)
(-3.49043 -0.420548 0)
(-3.31732 -0.412259 0)
(-3.14962 -0.388248 -4.06452e-23)
(-2.9921 -0.359418 0)
(-2.84801 -0.329296 -1.69156e-21)
(-2.71338 -0.299211 -2.34858e-21)
(-2.58243 -0.283144 3.02114e-21)
(-2.47646 -0.264149 0)
(-2.38617 -0.233458 4.23871e-21)
(-2.27972 -0.215404 0)
(-2.16205 -0.214267 5.19969e-21)
(-2.03598 -0.222739 -5.52536e-21)
(-1.91011 -0.234333 -1.62128e-20)
(-1.78777 -0.244821 0)
(-1.66415 -0.258779 -1.70619e-20)
(-1.5349 -0.274324 -5.10728e-21)
(-1.39986 -0.286906 0)
(-1.25706 -0.294013 -1.14494e-20)
(-1.10763 -0.299375 -1.16568e-20)
(-0.953534 -0.305829 1.83325e-20)
(-0.793384 -0.310055 0)
(-0.626984 -0.313156 6.80719e-21)
(-0.456333 -0.320536 7.11973e-21)
(-0.280888 -0.331998 2.18171e-20)
(-0.0992696 -0.343753 0)
(0.0895869 -0.354581 0)
(0.286628 -0.365016 0)
(0.490966 -0.37356 8.61484e-21)
(0.700337 -0.377828 0)
(0.911172 -0.375654 0)
(1.11931 -0.365214 -9.91953e-21)
(1.32043 -0.345534 -1.00962e-20)
(1.51064 -0.318618 0)
(1.68801 -0.288798 0)
(1.85211 -0.259429 -2.06418e-20)
(2.00088 -0.231173 0)
(2.133 -0.203972 2.05539e-20)
(2.24848 -0.178653 2.00342e-20)
(2.34893 -0.155243 0)
(2.43334 -0.132915 0)
(2.50373 -0.114434 -1.94602e-20)
(2.56043 -0.0966779 -4.83527e-22)
(2.61127 -0.0796069 -5.30488e-22)
(2.67029 -0.074714 0)
(2.74519 -0.0875206 -3.62362e-20)
(2.83402 -0.109184 0)
(2.93256 -0.129985 0)
(3.03992 -0.146799 0)
(3.1542 -0.159233 1.71055e-20)
(3.27273 -0.166667 0)
(3.39308 -0.169081 -3.30855e-20)
(3.51331 -0.16716 -1.69785e-20)
(3.63217 -0.161933 0)
(3.74885 -0.153889 -1.71076e-20)
(3.86228 -0.142892 0)
(3.97064 -0.12862 0)
(4.07155 -0.110555 -5.10323e-20)
(4.16253 -0.0886163 3.37327e-20)
(4.24009 -0.0637541 0)
(4.3021 -0.0355672 3.32274e-20)
(4.34454 -0.00438013 -1.66821e-20)
(4.36347 0.0307264 0)
(4.35019 0.0698032 0)
(4.3035 0.100295 0)
(4.23991 0.106724 -4.59532e-20)
(4.17653 0.0929715 0)
(4.10459 0.0776627 -1.47658e-20)
(4.03615 0.0663217 0)
(3.97686 0.0616921 0)
(3.92801 0.0619451 0)
(3.88068 0.0640228 0)
(3.83295 0.0669044 0)
(3.78607 0.0674159 0)
(3.74569 0.0608652 -2.66541e-20)
(3.70884 0.0473654 0)
(3.67191 0.0334266 -1.34193e-20)
(3.63266 0.0184457 3.98405e-20)
(3.59846 0.0110014 0)
(3.5589 0.00410873 0)
(3.52945 0.0141262 -2.63977e-20)
(3.48289 0.0189349 -2.66727e-20)
(3.4695 0.0586557 2.62561e-20)
(3.40967 0.08051 2.64981e-20)
(0.0868388 -0.0460827 6.16889e-22)
(0.371087 -0.701586 4.83515e-22)
(0.724849 -1.31098 1.04552e-23)
(1.01397 -1.69475 -3.39907e-22)
(1.23667 -1.87843 0)
(1.39621 -1.91998 1.08611e-21)
(1.51207 -1.85325 -1.0943e-21)
(1.59831 -1.71443 0)
(1.66907 -1.5402 -7.10776e-22)
(1.73108 -1.34846 0)
(1.78588 -1.14994 3.03192e-21)
(1.83365 -0.949351 0)
(1.87086 -0.747854 1.36457e-21)
(1.89481 -0.545699 2.99134e-21)
(1.90166 -0.344098 -3.20638e-21)
(1.88911 -0.147386 0)
(1.85776 0.0402385 -3.47114e-21)
(1.80806 0.214334 0)
(1.74205 0.374047 0)
(1.66414 0.523064 -3.47372e-21)
(1.57726 0.667822 0)
(1.47939 0.808036 -8.50614e-22)
(1.36978 0.93586 0)
(1.2391 1.05588 0)
(1.07885 1.17224 8.08671e-22)
(0.899623 1.28382 -2.71525e-21)
(0.705132 1.37416 -3.36382e-21)
(0.498601 1.43181 -2.52455e-21)
(0.279695 1.46165 0)
(0.0519725 1.46559 -5.58945e-21)
(-0.197658 1.47276 0)
(-0.455612 1.46328 -3.12865e-21)
(-0.703832 1.43174 0)
(-0.946782 1.37471 0)
(-1.17872 1.30111 3.37025e-21)
(-1.4264 1.24836 0)
(-1.66307 1.20103 -3.71704e-21)
(-1.88593 1.13321 6.12315e-22)
(-2.10205 1.05539 7.67258e-21)
(-2.31898 0.97611 -8.75284e-21)
(-2.52846 0.88784 0)
(-2.72601 0.816467 0)
(-2.91439 0.771491 -5.74083e-21)
(-3.08188 0.745808 0)
(-3.24186 0.721502 -4.6922e-21)
(-3.38199 0.676263 4.8339e-21)
(-3.49386 0.616406 4.94647e-21)
(-3.59276 0.540366 0)
(-3.70167 0.537583 -5.16e-21)
(-3.82901 0.586977 -5.26107e-21)
(-3.95043 0.629359 1.23619e-20)
(-4.06892 0.682431 -5.40247e-21)
(-4.18309 0.737525 -5.42271e-21)
(-4.27352 0.753283 0)
(-4.35214 0.745637 0)
(-4.42286 0.715729 5.28799e-21)
(-4.47713 0.654944 0)
(-4.51327 0.570759 0)
(-4.53769 0.451524 -1.00302e-20)
(-4.58286 0.380342 -9.90866e-21)
(-4.66299 0.386509 0)
(-4.72324 0.391219 0)
(-4.76194 0.358328 0)
(-4.78628 0.323958 0)
(-4.82085 0.296434 -1.00227e-20)
(-4.84663 0.260789 1.13663e-20)
(-4.87501 0.224217 1.0111e-20)
(-4.89823 0.187217 2.1511e-20)
(-4.91879 0.153812 0)
(-4.93617 0.12554 1.0596e-21)
(-4.94455 0.0929277 0)
(-4.95722 0.0749882 -1.02366e-20)
(-4.99392 0.077664 9.32092e-22)
(-5.01701 0.0643556 -1.00901e-20)
(-5.05601 0.0672538 9.96794e-21)
(-5.09797 0.08771 8.70672e-22)
(-5.11811 0.0862213 0)
(-5.12377 0.0690788 1.04924e-20)