/*--------------------------------*- C++ -*----------------------------------*\
| =========                 |                                                 |
| \\      /  F ield         | OpenFOAM: The Open Source CFD Toolbox           |
|  \\    /   O peration     | Version:  2112                                  |
|   \\  /    A nd           | Website:  www.openfoam.com                      |
|    \\/     M anipulation  |                                                 |
\*---------------------------------------------------------------------------*/
FoamFile
{
    version     2.0;
    format      ascii;
    arch        "LSB;label=32;scalar=64";
    class       surfaceScalarField;
    location    "0.092";
    object      phi;
}
// * * * * * * * * * * * * * * * * * * * * * * * * * * * * * * * * * * * * * //

dimensions      [0 3 -1 0 0 0 0];

oriented        oriented;

internalField   nonuniform List<scalar> 
24170
(
3.11079e-06
8.15869e-08
3.04447e-06
6.63194e-08
2.93639e-06
1.08085e-07
2.81669e-06
1.197e-07
2.71083e-06
1.05861e-07
2.62196e-06
8.88709e-08
2.53787e-06
8.40837e-08
2.4456e-06
9.2271e-08
2.3438e-06
1.01805e-07
2.24086e-06
1.02935e-07
2.14468e-06
9.61837e-08
2.05908e-06
8.55961e-08
1.98173e-06
7.73518e-08
1.90773e-06
7.39999e-08
1.82649e-06
8.12432e-08
1.73202e-06
9.44706e-08
1.60985e-06
1.22162e-07
1.33024e-07
1.47683e-06
3.39949e-06
-3.38625e-08
3.42026e-06
4.55469e-08
3.43942e-06
8.89213e-08
3.4649e-06
9.42185e-08
3.47889e-06
9.18693e-08
3.46793e-06
9.98373e-08
3.43809e-06
1.13917e-07
3.4034e-06
1.26971e-07
3.37187e-06
1.3333e-07
3.34368e-06
1.31124e-07
3.31544e-06
1.24421e-07
3.28324e-06
1.17797e-07
3.24588e-06
1.14721e-07
3.20295e-06
1.16927e-07
3.1531e-06
1.31095e-07
3.0974e-06
1.50162e-07
3.03353e-06
1.86035e-07
2.24482e-07
2.94207e-06
3.71838e-06
3.06566e-09
3.73329e-06
3.06459e-08
3.76551e-06
5.66993e-08
3.78353e-06
7.61935e-08
3.76848e-06
1.0692e-07
3.73132e-06
1.37002e-07
3.69551e-06
1.49728e-07
3.67529e-06
1.47189e-07
3.66942e-06
1.39194e-07
3.6684e-06
1.32148e-07
3.66343e-06
1.29391e-07
3.64961e-06
1.31612e-07
3.62724e-06
1.37096e-07
3.59943e-06
1.44732e-07
3.57105e-06
1.59483e-07
3.54223e-06
1.78974e-07
3.5152e-06
2.13069e-07
2.59854e-07
3.47983e-06
3.91734e-06
7.7081e-08
3.89578e-06
5.22034e-08
3.91922e-06
3.3263e-08
3.94467e-06
5.07396e-08
3.95605e-06
9.55385e-08
3.95598e-06
1.37074e-07
3.95431e-06
1.51395e-07
3.95542e-06
1.46078e-07
3.95618e-06
1.38438e-07
3.95192e-06
1.36407e-07
3.94132e-06
1.3999e-07
3.92578e-06
1.47153e-07
3.90786e-06
1.55012e-07
3.88879e-06
1.63803e-07
3.87016e-06
1.78119e-07
3.84963e-06
1.99504e-07
3.82819e-06
2.34502e-07
2.87058e-07
3.80099e-06
4.34314e-06
3.4996e-08
4.32566e-06
6.96862e-08
4.27423e-06
8.46966e-08
4.23503e-06
8.99387e-08
4.22048e-06
1.10086e-07
4.21862e-06
1.38935e-07
4.21512e-06
1.54898e-07
4.20648e-06
1.54717e-07
4.19771e-06
1.47209e-07
4.19464e-06
1.39474e-07
4.19937e-06
1.35257e-07
4.20897e-06
1.37559e-07
4.2175e-06
1.46479e-07
4.21843e-06
1.62868e-07
4.20904e-06
1.87512e-07
4.18789e-06
2.20655e-07
4.1587e-06
2.63697e-07
3.21115e-07
4.12464e-06
4.57695e-06
1.34254e-08
4.55005e-06
9.65879e-08
4.51724e-06
1.17504e-07
4.49767e-06
1.09508e-07
4.49617e-06
1.11587e-07
4.5105e-06
1.24605e-07
4.52933e-06
1.36069e-07
4.54147e-06
1.42582e-07
4.54274e-06
1.45938e-07
4.5357e-06
1.46511e-07
4.52572e-06
1.45238e-07
4.51669e-06
1.46591e-07
4.50904e-06
1.54129e-07
4.50037e-06
1.71538e-07
4.48842e-06
1.99457e-07
4.4708e-06
2.38274e-07
4.44876e-06
2.85736e-07
3.44649e-07
4.42523e-06
4.9072e-06
-1.50231e-08
4.85723e-06
1.46556e-07
4.82578e-06
1.48953e-07
4.82652e-06
1.08775e-07
4.84641e-06
9.16946e-08
4.87634e-06
9.46758e-08
4.90684e-06
1.05566e-07
4.92825e-06
1.2117e-07
4.93406e-06
1.40134e-07
4.9226e-06
1.57967e-07
4.89702e-06
1.70821e-07
4.86368e-06
1.79923e-07
4.82891e-06
1.88902e-07
4.79759e-06
2.02859e-07
4.77288e-06
2.2417e-07
4.75572e-06
2.55428e-07
4.74707e-06
2.94395e-07
3.44942e-07
4.74677e-06
5.22508e-06
4.02895e-08
5.15117e-06
2.20474e-07
5.14649e-06
1.53635e-07
5.16627e-06
8.89915e-08
5.17736e-06
8.06078e-08
5.17476e-06
9.72678e-08
5.16844e-06
1.11887e-07
5.16894e-06
1.2067e-07
5.17939e-06
1.29683e-07
5.19434e-06
1.43017e-07
5.20507e-06
1.60095e-07
5.20553e-06
1.79466e-07
5.19448e-06
1.99948e-07
5.17523e-06
2.22113e-07
5.15391e-06
2.45483e-07
5.1366e-06
2.72746e-07
5.12865e-06
3.02345e-07
3.40109e-07
5.13348e-06
5.51989e-06
-1.66642e-07
5.61138e-06
1.28989e-07
5.62051e-06
1.44496e-07
5.62675e-06
8.27554e-08
5.62142e-06
8.59418e-08
5.59969e-06
1.18995e-07
5.57722e-06
1.34357e-07
5.57049e-06
1.27399e-07
5.58213e-06
1.18041e-07
5.60067e-06
1.24479e-07
5.61003e-06
1.50735e-07
5.60036e-06
1.89138e-07
5.57292e-06
2.27384e-07
5.53737e-06
2.57664e-07
5.50558e-06
2.77275e-07
5.48636e-06
2.91966e-07
5.4838e-06
3.04904e-07
3.24968e-07
5.49894e-06
5.84171e-06
-1.36959e-07
5.94161e-06
2.90944e-08
5.97994e-06
1.06157e-07
5.94761e-06
1.15086e-07
5.90144e-06
1.32119e-07
5.87323e-06
1.47203e-07
5.86433e-06
1.43256e-07
5.86621e-06
1.25516e-07
5.87423e-06
1.10028e-07
5.88712e-06
1.1159e-07
5.90303e-06
1.34822e-07
5.91947e-06
1.72695e-07
5.93457e-06
2.12282e-07
5.9477e-06
2.44543e-07
5.95882e-06
2.66149e-07
5.96866e-06
2.8213e-07
5.97806e-06
2.955e-07
3.1286e-07
5.99017e-06
6.27999e-06
8.17678e-08
6.18947e-06
1.19614e-07
6.22052e-06
7.5101e-08
6.26634e-06
6.927e-08
6.31503e-06
8.3426e-08
6.35938e-06
1.02856e-07
6.3893e-06
1.13337e-07
6.40192e-06
1.12892e-07
6.40176e-06
1.10191e-07
6.39607e-06
1.17273e-07
6.39072e-06
1.40173e-07
6.38869e-06
1.74724e-07
6.38998e-06
2.10998e-07
6.39345e-06
2.41069e-07
6.39877e-06
2.60832e-07
6.40694e-06
2.73964e-07
6.42054e-06
2.81896e-07
2.91307e-07
6.44209e-06
5.91285e-06
1.07255e-07
5.8864e-06
1.4606e-07
5.81647e-06
1.45035e-07
5.75383e-06
1.31908e-07
5.73479e-06
1.02466e-07
5.75367e-06
8.39769e-08
5.77927e-06
8.77357e-08
5.78996e-06
1.02204e-07
5.78273e-06
1.17415e-07
5.76597e-06
1.34035e-07
5.75005e-06
1.56096e-07
5.74162e-06
1.83152e-07
5.74238e-06
2.10237e-07
5.75121e-06
2.32235e-07
5.76557e-06
2.46477e-07
5.78407e-06
2.5546e-07
5.80548e-06
2.60486e-07
2.67206e-07
5.82958e-06
6.91501e-06
-3.58383e-09
6.95637e-06
1.04703e-07
6.97742e-06
1.23983e-07
7.00283e-06
1.06497e-07
7.01838e-06
8.69129e-08
7.02332e-06
7.90417e-08
7.02499e-06
8.60632e-08
7.02844e-06
9.87596e-08
7.03259e-06
1.13257e-07
7.03371e-06
1.32922e-07
7.03137e-06
1.5843e-07
7.02913e-06
1.85393e-07
7.03161e-06
2.07758e-07
7.04246e-06
2.21391e-07
7.06248e-06
2.26454e-07
7.0913e-06
2.26638e-07
7.12642e-06
2.25369e-07
2.27683e-07
7.16594e-06
8.48213e-06
-2.34561e-08
8.50292e-06
8.39061e-08
8.52115e-06
1.05757e-07
8.52296e-06
1.0469e-07
8.50261e-06
1.07257e-07
8.47867e-06
1.02981e-07
8.48224e-06
8.24937e-08
8.52183e-06
5.91751e-08
8.57846e-06
5.66239e-08
8.62785e-06
8.35274e-08
8.65704e-06
1.29249e-07
8.66678e-06
1.75653e-07
8.66548e-06
2.09054e-07
8.66223e-06
2.24644e-07
8.66284e-06
2.25846e-07
8.66943e-06
2.20041e-07
8.68134e-06
2.13456e-07
2.12263e-07
8.69676e-06
1.05754e-05
1.28963e-08
1.06156e-05
4.37893e-08
1.06257e-05
9.5577e-08
1.05874e-05
1.4307e-07
1.05291e-05
1.6553e-07
1.04749e-05
1.57114e-07
1.0442e-05
1.15469e-07
1.04236e-05
7.75578e-08
1.041e-05
7.02577e-08
1.04019e-05
9.1542e-08
1.04072e-05
1.23963e-07
1.04308e-05
1.52117e-07
1.04708e-05
1.69048e-07
1.05202e-05
1.75212e-07
1.05705e-05
1.75591e-07
1.06146e-05
1.75884e-07
1.06492e-05
1.78863e-07
1.86283e-07
1.06752e-05
1.2692e-05
-1.60422e-07
1.27811e-05
-4.53451e-08
1.27964e-05
8.03121e-08
1.27865e-05
1.53019e-07
1.27575e-05
1.94443e-07
1.27382e-05
1.76468e-07
1.27301e-05
1.23513e-07
1.27269e-05
8.0836e-08
1.27273e-05
6.97763e-08
1.27338e-05
8.50645e-08
1.27483e-05
1.09444e-07
1.27701e-05
1.30368e-07
1.27959e-05
1.43251e-07
1.28216e-05
1.49481e-07
1.2845e-05
1.52205e-07
1.28659e-05
1.55033e-07
1.28862e-05
1.58492e-07
1.64251e-07
1.29083e-05
1.54165e-05
9.15293e-08
1.52486e-05
1.22614e-07
1.5281e-05
4.78822e-08
1.53793e-05
5.46824e-08
1.5473e-05
1.00756e-07
1.55449e-05
1.04594e-07
1.56098e-05
5.86436e-08
1.56778e-05
1.27737e-08
1.57405e-05
7.10661e-09
1.57816e-05
4.39408e-08
1.57914e-05
9.96229e-08
1.5772e-05
1.49762e-07
1.5735e-05
1.80295e-07
1.56948e-05
1.89662e-07
1.56629e-05
1.84106e-07
1.56456e-05
1.72377e-07
1.56434e-05
1.6066e-07
1.53858e-07
1.56538e-05
1.88816e-05
7.21845e-08
1.88543e-05
1.49969e-07
1.88509e-05
5.12814e-08
1.88863e-05
1.92293e-08
1.8929e-05
5.81003e-08
1.89623e-05
7.13316e-08
1.89847e-05
3.62352e-08
1.90107e-05
-1.32678e-08
1.90485e-05
-3.06342e-08
1.9096e-05
-3.63339e-09
1.91405e-05
5.5193e-08
1.91735e-05
1.16755e-07
1.9197e-05
1.56793e-07
1.92195e-05
1.67104e-07
1.9249e-05
1.54622e-07
1.92885e-05
1.32878e-07
1.9336e-05
1.1314e-07
1.04846e-07
1.9385e-05
2.30832e-05
2.91765e-07
2.30733e-05
1.59843e-07
2.31078e-05
1.67565e-08
2.31234e-05
3.65007e-09
2.31334e-05
4.81074e-08
2.31327e-05
7.2015e-08
2.31289e-05
3.9989e-08
2.3128e-05
-1.23284e-08
2.31367e-05
-3.93186e-08
2.31564e-05
-2.33413e-08
2.31899e-05
2.17313e-08
2.32383e-05
6.8312e-08
2.32937e-05
1.01372e-07
2.33443e-05
1.16525e-07
2.33807e-05
1.1825e-07
2.33996e-05
1.13988e-07
2.34033e-05
1.09406e-07
1.08569e-07
2.33996e-05
1.68179e-05
1.26687e-07
1.69574e-05
2.03984e-08
1.70111e-05
-3.69563e-08
1.70121e-05
2.68366e-09
1.70164e-05
4.37767e-08
1.70552e-05
3.31904e-08
1.70941e-05
1.06701e-09
1.70932e-05
-1.13863e-08
1.70478e-05
6.02684e-09
1.69896e-05
3.49491e-08
1.69553e-05
5.59688e-08
1.69646e-05
5.90144e-08
1.7018e-05
4.80201e-08
1.71004e-05
3.40715e-08
1.7192e-05
2.67019e-08
1.72762e-05
2.97705e-08
1.73443e-05
4.132e-08
5.7321e-08
1.73955e-05
1.48857e-05
1.01554e-07
1.48868e-05
1.92553e-08
1.48783e-05
-2.84446e-08
1.48888e-05
-7.81373e-09
1.49017e-05
3.08467e-08
1.4873e-05
6.18785e-08
1.47985e-05
7.55959e-08
1.47214e-05
6.56954e-08
1.46896e-05
3.78223e-08
1.47183e-05
6.30302e-09
1.47893e-05
-1.50502e-08
1.48709e-05
-2.25965e-08
1.49359e-05
-1.70095e-08
1.49717e-05
-1.68846e-09
1.49816e-05
1.67522e-08
1.49781e-05
3.3277e-08
1.4976e-05
4.34882e-08
4.6288e-08
1.4987e-05
1.27062e-05
-2.5895e-08
1.28358e-05
-1.10363e-07
1.28565e-05
-4.91709e-08
1.2853e-05
-4.34815e-09
1.28476e-05
3.63108e-08
1.28333e-05
7.61689e-08
1.2827e-05
8.18489e-08
1.28504e-05
4.22971e-08
1.29056e-05
-1.73337e-08
1.29738e-05
-6.19553e-08
1.30296e-05
-7.08296e-08
1.30539e-05
-4.68944e-08
1.30448e-05
-7.85275e-09
1.3015e-05
2.81214e-08
1.29827e-05
4.90344e-08
1.29628e-05
5.31816e-08
1.29623e-05
4.39155e-08
2.8084e-08
1.29805e-05
1.11745e-05
-1.54755e-07
1.11349e-05
-7.0769e-08
1.1161e-05
-7.52424e-08
1.1201e-05
-4.43953e-08
1.12464e-05
-9.09036e-09
1.13148e-05
7.79734e-09
1.13864e-05
1.01828e-08
1.14253e-05
3.41844e-09
1.14152e-05
-7.22467e-09
1.13656e-05
-1.23474e-08
1.13014e-05
-6.59881e-09
1.12461e-05
8.33076e-09
1.12141e-05
2.41632e-08
1.12091e-05
3.31663e-08
1.12264e-05
3.17481e-08
1.12574e-05
2.21316e-08
1.12925e-05
8.82215e-09
-2.0665e-09
1.13227e-05
9.76024e-06
-2.70585e-08
9.81898e-06
-1.29508e-07
9.92397e-06
-1.80232e-07
9.97688e-06
-9.72999e-08
9.96174e-06
6.04834e-09
9.91839e-06
5.11443e-08
9.88539e-06
4.31867e-08
9.86972e-06
1.90911e-08
9.85982e-06
2.67227e-09
9.84813e-06
-6.55827e-10
9.835e-06
6.52956e-09
9.82584e-06
1.74915e-08
9.82497e-06
2.50363e-08
9.83328e-06
2.48515e-08
9.84904e-06
1.59925e-08
9.8697e-06
1.46937e-09
9.89317e-06
-1.46495e-08
-2.74336e-08
9.91854e-06
8.36874e-06
8.89118e-09
8.3006e-06
-6.137e-08
8.2675e-06
-1.47132e-07
8.28879e-06
-1.18591e-07
8.35918e-06
-6.43347e-08
8.43201e-06
-2.16862e-08
8.47366e-06
1.53079e-09
8.48463e-06
8.12535e-09
8.48409e-06
3.2047e-09
8.48872e-06
-5.27792e-09
8.50394e-06
-8.69131e-09
8.526e-06
-4.56844e-09
8.54921e-06
1.81984e-09
8.56878e-06
5.28733e-09
8.58334e-06
1.43038e-09
8.59455e-06
-9.7406e-09
8.60499e-06
-2.50899e-08
-3.88726e-08
8.61643e-06
7.51179e-06
3.92906e-08
7.50678e-06
-5.63536e-08
7.46362e-06
-1.0398e-07
7.43284e-06
-8.78032e-08
7.43957e-06
-7.10717e-08
7.46535e-06
-4.74586e-08
7.4858e-06
-1.8919e-08
7.49426e-06
-3.36493e-10
7.49668e-06
7.81818e-10
7.49938e-06
-7.98034e-09
7.50364e-06
-1.29482e-08
7.50677e-06
-7.70026e-09
7.50398e-06
4.60652e-09
7.49538e-06
1.38869e-08
7.48425e-06
1.25638e-08
7.47518e-06
-6.71893e-10
7.47292e-06
-2.28285e-08
-4.53473e-08
7.4794e-06
6.44984e-06
1.25802e-07
6.36011e-06
3.33742e-08
6.31142e-06
-5.52871e-08
6.29832e-06
-7.47e-08
6.3117e-06
-8.44575e-08
6.35254e-06
-8.8295e-08
6.41228e-06
-7.86549e-08
6.47495e-06
-6.30067e-08
6.52621e-06
-5.04832e-08
6.55977e-06
-4.15397e-08
6.57815e-06
-3.1324e-08
6.58818e-06
-1.77308e-08
6.59654e-06
-3.75479e-09
6.60635e-06
4.07666e-09
6.61635e-06
2.56164e-09
6.62397e-06
-8.2918e-09
6.62599e-06
-2.48497e-08
-4.1169e-08
6.62181e-06
5.52372e-06
1.30007e-07
5.61612e-06
-5.90267e-08
5.62509e-06
-6.42533e-08
5.60207e-06
-5.1679e-08
5.58626e-06
-6.86482e-08
5.58974e-06
-9.17774e-08
5.60479e-06
-9.37108e-08
5.62075e-06
-7.89615e-08
5.63407e-06
-6.38012e-08
5.64846e-06
-5.5934e-08
5.67044e-06
-5.33052e-08
5.70419e-06
-5.14767e-08
5.74837e-06
-4.79349e-08
5.79506e-06
-4.26165e-08
5.83427e-06
-3.66501e-08
5.85758e-06
-3.15956e-08
5.86042e-06
-2.76965e-08
-2.56398e-08
5.84489e-06
4.95396e-06
1.08989e-07
4.93703e-06
-4.20902e-08
4.95722e-06
-8.44485e-08
5.00322e-06
-9.76795e-08
5.02629e-06
-9.17129e-08
5.01154e-06
-7.70268e-08
4.98116e-06
-6.33396e-08
4.9601e-06
-5.79001e-08
4.95437e-06
-5.80726e-08
4.95456e-06
-5.6119e-08
4.94975e-06
-4.84961e-08
4.93625e-06
-3.79753e-08
4.91775e-06
-2.94347e-08
4.901e-06
-2.587e-08
4.89123e-06
-2.68795e-08
4.89013e-06
-3.04965e-08
4.89658e-06
-3.41454e-08
-3.59839e-08
4.90693e-06
4.20584e-06
4.16375e-06
4.0793e-06
3.98163e-06
3.88991e-06
3.81289e-06
3.74955e-06
3.69165e-06
3.63357e-06
3.57745e-06
3.52896e-06
3.49098e-06
3.46155e-06
3.43568e-06
3.4088e-06
3.3783e-06
3.34416e-06
3.30817e-06
1.43787e-07
-1.43787e-07
4.80728e-07
-3.36941e-07
9.42448e-07
-4.61719e-07
1.46881e-06
-5.26363e-07
2.00627e-06
-5.37456e-07
2.52366e-06
-5.17393e-07
3.00584e-06
-4.82183e-07
3.44003e-06
-4.34187e-07
3.80982e-06
-3.69795e-07
4.09534e-06
-2.85519e-07
4.27411e-06
-1.78769e-07
4.32817e-06
-5.40573e-08
4.23846e-06
8.97108e-08
3.99141e-06
2.47049e-07
3.60187e-06
3.89541e-07
3.08985e-06
5.12014e-07
2.48025e-06
6.09603e-07
1.83037e-06
6.49884e-07
1.12446e-06
7.05907e-07
5.80924e-07
5.43538e-07
6.38942e-07
-5.80179e-08
1.0364e-06
-3.97455e-07
1.2413e-06
-2.049e-07
1.18605e-06
5.52456e-08
7.44449e-07
4.41603e-07
-1.8296e-07
9.27409e-07
-1.30158e-06
1.11862e-06
-2.38372e-06
1.08214e-06
-3.38855e-06
1.00483e-06
-4.30789e-06
9.19341e-07
-5.14414e-06
8.36252e-07
-5.90252e-06
7.58374e-07
-6.58974e-06
6.87224e-07
-7.2123e-06
6.22561e-07
-7.77612e-06
5.63812e-07
-8.28618e-06
5.10067e-07
-8.74637e-06
4.60191e-07
-9.15937e-06
4.12997e-07
-9.52672e-06
3.67346e-07
-9.84911e-06
3.22389e-07
-1.01267e-05
2.77591e-07
-1.03593e-05
2.32639e-07
-1.05466e-05
1.87267e-07
-1.0688e-05
1.41419e-07
-1.07835e-05
9.54837e-08
-1.08335e-05
4.99682e-08
-1.08373e-05
3.79907e-09
-1.08003e-05
-3.69426e-08
-1.07224e-05
-7.79392e-08
-1.06049e-05
-1.1752e-07
-1.04498e-05
-1.55095e-07
-1.02589e-05
-1.90904e-07
-1.00336e-05
-2.25239e-07
-9.77531e-06
-2.58327e-07
-9.48484e-06
-2.90463e-07
-9.16283e-06
-3.22017e-07
-8.80945e-06
-3.53381e-07
-8.4245e-06
-3.8495e-07
-8.00742e-06
-4.17077e-07
-7.5574e-06
-4.50024e-07
-7.07346e-06
-4.83939e-07
-6.55461e-06
-5.18849e-07
-5.99979e-06
-5.54816e-07
-5.40746e-06
-5.92328e-07
-4.77478e-06
-6.32687e-07
-4.09652e-06
-6.78252e-07
-3.365e-06
-7.3152e-07
-2.5732e-06
-7.918e-07
-1.72307e-06
-8.5013e-07
-8.37959e-07
-8.85115e-07
2.56029e-08
-8.63562e-07
7.31495e-07
-7.05892e-07
1.31821e-06
-5.86712e-07
1.66294e-06
-3.44733e-07
1.21346e-06
4.4948e-07
3.47619e-07
8.65841e-07
-1.62707e-07
5.10325e-07
-3.5055e-07
1.87844e-07
-2.56248e-07
-9.43023e-08
4.94691e-08
-3.05717e-07
4.32188e-07
-3.82719e-07
8.06107e-07
-3.73919e-07
1.13808e-06
-3.3197e-07
1.44481e-06
-3.06733e-07
1.77042e-06
-3.25607e-07
2.11006e-06
-3.39639e-07
2.48804e-06
-3.77987e-07
3.00542e-06
-5.17375e-07
3.60946e-06
-6.04046e-07
4.25072e-06
-6.41252e-07
4.97895e-06
-7.28237e-07
5.48802e-06
-5.09065e-07
5.68857e-06
-2.00555e-07
5.54827e-06
1.4031e-07
4.42206e-06
1.12621e-06
2.80824e-06
1.61382e-06
1.71772e-06
1.09052e-06
1.53515e-06
1.82574e-07
2.15995e-06
-6.24805e-07
2.78053e-06
-6.20578e-07
2.91963e-06
-1.391e-07
2.63068e-06
2.88951e-07
1.76577e-06
8.64903e-07
4.5344e-07
1.31233e-06
-8.09905e-07
1.26334e-06
-1.86506e-06
1.05516e-06
-2.72041e-06
8.5535e-07
-3.41379e-06
6.93382e-07
-3.97921e-06
5.65419e-07
-4.44631e-06
4.671e-07
-4.83824e-06
3.91925e-07
-5.17436e-06
3.36125e-07
-5.4711e-06
2.96732e-07
-5.74291e-06
2.7181e-07
-6.00196e-06
2.59051e-07
-6.25867e-06
2.56716e-07
-6.51802e-06
2.59349e-07
-6.77849e-06
2.6047e-07
-7.03278e-06
2.54284e-07
-7.2722e-06
2.39427e-07
-7.49302e-06
2.20817e-07
-7.69979e-06
2.06771e-07
-7.90311e-06
2.03321e-07
-8.11324e-06
2.10126e-07
-8.33415e-06
2.20908e-07
-8.56204e-06
2.2789e-07
-8.78729e-06
2.25257e-07
-8.99558e-06
2.08285e-07
-9.16779e-06
1.72207e-07
-9.28173e-06
1.13946e-07
-9.31431e-06
3.25823e-08
-9.24619e-06
-6.81189e-08
-9.06191e-06
-1.84288e-07
-8.75027e-06
-3.11639e-07
-8.30682e-06
-4.43444e-07
-7.73472e-06
-5.72108e-07
-7.04427e-06
-6.90448e-07
-6.25176e-06
-7.92507e-07
-5.37732e-06
-8.74438e-07
-4.44251e-06
-9.34816e-07
-3.46897e-06
-9.73531e-07
-2.47699e-06
-9.91988e-07
-1.48545e-06
-9.91537e-07
-5.10041e-07
-9.75408e-07
4.37056e-07
-9.47097e-07
1.35175e-06
-9.14694e-07
2.22746e-06
-8.75705e-07
3.0605e-06
-8.33048e-07
3.84792e-06
-7.87413e-07
4.5866e-06
-7.38686e-07
5.27136e-06
-6.84753e-07
5.89115e-06
-6.1979e-07
6.42969e-06
-5.38547e-07
6.87738e-06
-4.47683e-07
7.23107e-06
-3.5369e-07
7.44428e-06
-2.1321e-07
7.39238e-06
5.18946e-08
6.95597e-06
4.36415e-07
6.18972e-06
7.66247e-07
5.32803e-06
8.61688e-07
4.60523e-06
7.22797e-07
4.09566e-06
5.09578e-07
3.76083e-06
3.34825e-07
3.5382e-06
2.22632e-07
3.37673e-06
1.61473e-07
3.23912e-06
1.37606e-07
3.10277e-06
1.36347e-07
2.95646e-06
1.46317e-07
2.79616e-06
1.60296e-07
2.6242e-06
1.71964e-07
2.44669e-06
1.77503e-07
2.27907e-06
1.67622e-07
2.14339e-06
1.35686e-07
2.08545e-06
5.79376e-08
2.12765e-06
-4.22017e-08
2.24042e-06
-1.12766e-07
2.25537e-06
-1.49588e-08
2.16811e-06
8.72667e-08
2.07466e-06
9.34515e-08
9.44138e-08
1.98024e-06
3.15452e-07
-4.5924e-07
7.76878e-07
-7.98367e-07
1.26399e-06
-9.48833e-07
1.7288e-06
-9.91175e-07
2.1655e-06
-9.74148e-07
2.58256e-06
-9.3446e-07
2.98165e-06
-8.81271e-07
3.3516e-06
-8.04137e-07
3.67597e-06
-6.94163e-07
3.93105e-06
-5.40602e-07
4.0958e-06
-3.43515e-07
4.15357e-06
-1.11825e-07
4.0902e-06
1.53073e-07
3.90623e-06
4.31017e-07
3.61284e-06
6.82938e-07
3.22941e-06
8.95445e-07
2.81774e-06
1.02127e-06
2.47051e-06
9.97115e-07
2.25439e-06
9.22023e-07
2.09124e-06
7.06688e-07
1.58047e-06
4.52747e-07
5.92687e-07
5.90332e-07
-7.71839e-07
1.15963e-06
-2.18251e-06
1.46592e-06
-3.36722e-06
1.62631e-06
-4.21021e-06
1.7704e-06
-4.88043e-06
1.78884e-06
-5.51439e-06
1.71609e-06
-6.11362e-06
1.60407e-06
-6.67502e-06
1.48073e-06
-7.19628e-06
1.35751e-06
-7.68027e-06
1.24237e-06
-8.12939e-06
1.13634e-06
-8.54627e-06
1.03944e-06
-8.93343e-06
9.50975e-07
-9.2925e-06
8.69137e-07
-9.62354e-06
7.91235e-07
-9.92581e-06
7.15265e-07
-1.01982e-05
6.39736e-07
-1.04394e-05
5.63584e-07
-1.06479e-05
4.86117e-07
-1.08223e-05
4.06995e-07
-1.09612e-05
3.26157e-07
-1.10635e-05
2.43754e-07
-1.11284e-05
1.60391e-07
-1.11556e-05
7.71735e-08
-1.11473e-05
-4.47317e-09
-1.1095e-05
-8.9331e-08
-1.10033e-05
-1.69549e-07
-1.08739e-05
-2.46935e-07
-1.07075e-05
-3.21493e-07
-1.05054e-05
-3.93055e-07
-1.02689e-05
-4.61709e-07
-9.9994e-06
-5.27844e-07
-9.69782e-06
-5.92037e-07
-9.36485e-06
-6.54989e-07
-9.0008e-06
-7.17434e-07
-8.60573e-06
-7.80018e-07
-8.17962e-06
-8.43188e-07
-7.72257e-06
-9.07076e-07
-7.23511e-06
-9.71393e-07
-6.7186e-06
-1.03536e-06
-6.17565e-06
-1.09777e-06
-5.60991e-06
-1.15806e-06
-5.02544e-06
-1.21716e-06
-4.42594e-06
-1.27775e-06
-3.81313e-06
-1.34434e-06
-3.18452e-06
-1.4204e-06
-2.5314e-06
-1.50326e-06
-1.84301e-06
-1.5735e-06
-1.13105e-06
-1.57552e-06
-4.04991e-07
-1.43195e-06
1.90102e-07
-1.18181e-06
6.46716e-07
-8.01347e-07
9.13992e-07
1.82204e-07
9.9738e-07
7.82453e-07
8.20667e-07
6.87039e-07
6.82038e-07
3.26473e-07
7.3707e-07
-1.49335e-07
9.08474e-07
-4.77121e-07
1.10215e-06
-5.76397e-07
1.29775e-06
-5.69521e-07
1.49823e-06
-5.32446e-07
1.70107e-06
-5.09575e-07
1.96383e-06
-5.88362e-07
2.33696e-06
-7.12778e-07
2.757e-06
-7.98026e-07
3.22931e-06
-9.8968e-07
3.87555e-06
-1.25029e-06
4.59409e-06
-1.35979e-06
5.26879e-06
-1.40293e-06
5.9057e-06
-1.14598e-06
6.17858e-06
-4.73433e-07
6.13643e-06
1.82454e-07
6.1636e-06
1.09904e-06
5.69952e-06
2.07791e-06
4.46487e-06
2.32516e-06
3.41107e-06
1.23637e-06
3.21525e-06
-4.28979e-07
3.30701e-06
-7.12337e-07
2.83252e-06
3.35384e-07
1.46144e-06
1.66003e-06
-2.34053e-07
2.5604e-06
-1.53833e-06
2.61661e-06
-2.4881e-06
2.21312e-06
-3.23108e-06
1.79814e-06
-3.82611e-06
1.45038e-06
-4.3198e-06
1.18708e-06
-4.74275e-06
9.88365e-07
-5.11543e-06
8.39781e-07
-5.45087e-06
7.27367e-07
-5.75695e-06
6.42197e-07
-6.03878e-06
5.78566e-07
-6.30056e-06
5.33585e-07
-6.54619e-06
5.04685e-07
-6.77783e-06
4.88354e-07
-6.99651e-06
4.78028e-07
-7.20126e-06
4.65224e-07
-7.39044e-06
4.43462e-07
-7.56402e-06
4.13009e-07
-7.72646e-06
3.83255e-07
-7.88724e-06
3.67548e-07
-8.05695e-06
3.7303e-07
-8.24158e-06
3.94763e-07
-8.4401e-06
4.19421e-07
-8.64577e-06
4.33561e-07
-8.84801e-06
4.27496e-07
-9.03313e-06
3.93413e-07
-9.18458e-06
3.23651e-07
-9.28258e-06
2.11951e-07
-9.30594e-06
5.59421e-08
-9.22882e-06
-1.4524e-07
-9.03264e-06
-3.80475e-07
-8.70464e-06
-6.39639e-07
-8.24095e-06
-9.07126e-07
-7.64637e-06
-1.16669e-06
-6.93297e-06
-1.40384e-06
-6.11849e-06
-1.60699e-06
-5.22397e-06
-1.76896e-06
-4.27112e-06
-1.88767e-06
-3.28119e-06
-1.96346e-06
-2.27431e-06
-1.99887e-06
-1.2689e-06
-1.99695e-06
-2.78832e-07
-1.96547e-06
6.89656e-07
-1.91559e-06
1.62602e-06
-1.85106e-06
2.52772e-06
-1.77741e-06
3.39186e-06
-1.69719e-06
4.21512e-06
-1.61067e-06
4.99302e-06
-1.51658e-06
5.72096e-06
-1.4127e-06
6.39607e-06
-1.2949e-06
7.00769e-06
-1.15017e-06
7.51524e-06
-9.5523e-07
7.86714e-06
-7.05593e-07
8.08168e-06
-4.27745e-07
8.23759e-06
-1.04021e-07
8.36569e-06
3.08319e-07
8.36825e-06
7.63685e-07
8.12138e-06
1.10856e-06
7.57604e-06
1.26813e-06
6.85143e-06
1.23419e-06
6.15126e-06
1.03499e-06
5.59617e-06
7.77723e-07
5.17394e-06
5.83709e-07
4.81935e-06
4.92187e-07
4.48634e-06
4.69361e-07
4.15306e-06
4.79597e-07
3.8112e-06
5.02153e-07
3.47389e-06
5.09272e-07
3.1713e-06
4.80098e-07
2.94196e-06
3.96957e-07
2.80007e-06
2.77583e-07
2.72933e-06
1.28675e-07
2.67965e-06
7.47294e-09
2.64934e-06
-8.24547e-08
2.69693e-06
-6.25426e-08
2.77097e-06
1.3228e-08
2.80578e-06
5.86334e-08
8.9047e-08
2.81115e-06
4.16345e-07
-8.75585e-07
8.10835e-07
-1.19286e-06
1.11604e-06
-1.25404e-06
1.36833e-06
-1.24347e-06
1.62169e-06
-1.22751e-06
1.88779e-06
-1.20056e-06
2.15749e-06
-1.15097e-06
2.40639e-06
-1.05304e-06
2.61185e-06
-8.99619e-07
2.7573e-06
-6.86055e-07
2.83123e-06
-4.17444e-07
2.82662e-06
-1.07218e-07
2.72967e-06
2.5003e-07
2.55411e-06
6.06576e-07
2.31214e-06
9.24908e-07
2.03456e-06
1.17303e-06
1.74295e-06
1.31288e-06
1.37689e-06
1.36318e-06
9.08666e-07
1.39025e-06
1.30327e-07
1.48503e-06
-1.19197e-06
1.77504e-06
-2.645e-06
2.04337e-06
-3.68416e-06
2.19878e-06
-4.49355e-06
2.27531e-06
-5.16309e-06
2.29584e-06
-5.6544e-06
2.26171e-06
-6.04108e-06
2.17553e-06
-6.39682e-06
2.07183e-06
-6.75129e-06
1.95854e-06
-7.11547e-06
1.84492e-06
-7.49017e-06
1.7322e-06
-7.87157e-06
1.62377e-06
-8.25377e-06
1.51855e-06
-8.63127e-06
1.41694e-06
-8.99835e-06
1.31805e-06
-9.34987e-06
1.22066e-06
-9.68177e-06
1.12313e-06
-9.99038e-06
1.02387e-06
-1.02723e-05
9.21642e-07
-1.05242e-05
8.15473e-07
-1.07429e-05
7.04832e-07
-1.09256e-05
5.89667e-07
-1.10698e-05
4.70443e-07
-1.11741e-05
3.48027e-07
-1.1237e-05
2.23233e-07
-1.12564e-05
9.65831e-08
-1.12319e-05
-2.89144e-08
-1.11697e-05
-1.51565e-07
-1.10672e-05
-2.72005e-07
-1.09258e-05
-3.88365e-07
-1.07474e-05
-4.99862e-07
-1.05342e-05
-6.06246e-07
-1.02882e-05
-7.07787e-07
-1.00108e-05
-8.0524e-07
-9.70313e-06
-8.99684e-07
-9.36575e-06
-9.92367e-07
-8.99866e-06
-1.08452e-06
-8.60152e-06
-1.17716e-06
-8.17384e-06
-1.27087e-06
-7.71528e-06
-1.36564e-06
-7.22618e-06
-1.46048e-06
-6.70849e-06
-1.55305e-06
-6.16629e-06
-1.63997e-06
-5.60694e-06
-1.71741e-06
-5.04219e-06
-1.78191e-06
-4.48809e-06
-1.83184e-06
-3.96268e-06
-1.86975e-06
-3.47886e-06
-1.90423e-06
-3.03622e-06
-1.94589e-06
-2.61959e-06
-1.99013e-06
-2.2002e-06
-1.99491e-06
-1.73557e-06
-1.89658e-06
-1.26981e-06
-1.64757e-06
-8.18631e-07
-1.25253e-06
-1.90116e-07
-4.4631e-07
4.15615e-07
1.76722e-07
8.88906e-07
2.13747e-07
1.24358e-06
-2.81971e-08
1.43986e-06
-3.45615e-07
1.49503e-06
-5.3229e-07
1.53313e-06
-6.14503e-07
1.65799e-06
-6.94382e-07
1.89491e-06
-7.69365e-07
2.19719e-06
-8.11849e-07
2.53474e-06
-9.25912e-07
2.93235e-06
-1.11039e-06
3.38071e-06
-1.24639e-06
3.87314e-06
-1.48211e-06
4.50047e-06
-1.87763e-06
5.22584e-06
-2.08515e-06
5.83088e-06
-2.00797e-06
6.31802e-06
-1.63312e-06
6.56297e-06
-7.18385e-07
6.40521e-06
3.40214e-07
6.26547e-06
1.23879e-06
5.99402e-06
2.34935e-06
5.27439e-06
3.04479e-06
4.54325e-06
1.96751e-06
3.79981e-06
3.14457e-07
2.66971e-06
4.17763e-07
1.09169e-06
1.91341e-06
-5.15232e-07
3.26696e-06
-1.60768e-06
3.65284e-06
-2.23825e-06
3.24718e-06
-2.71609e-06
2.69096e-06
-3.14062e-06
2.22267e-06
-3.54822e-06
1.85798e-06
-3.94354e-06
1.58239e-06
-4.32162e-06
1.36644e-06
-4.67512e-06
1.19329e-06
-5.00101e-06
1.05325e-06
-5.3016e-06
9.42784e-07
-5.583e-06
8.59972e-07
-5.85286e-06
8.03441e-07
-6.11806e-06
7.69883e-07
-6.38192e-06
7.5222e-07
-6.64337e-06
7.39476e-07
-6.89612e-06
7.17972e-07
-7.13091e-06
6.78255e-07
-7.34179e-06
6.2389e-07
-7.53177e-06
5.73227e-07
-7.71299e-06
5.48768e-07
-7.90031e-06
5.60352e-07
-8.10302e-06
5.97475e-07
-8.32149e-06
6.37897e-07
-8.5488e-06
6.60866e-07
-8.77293e-06
6.51622e-07
-8.97733e-06
5.97814e-07
-9.14081e-06
4.87129e-07
-9.23858e-06
3.09723e-07
-9.2411e-06
5.84651e-08
-9.13748e-06
-2.48859e-07
-8.90618e-06
-6.11781e-07
-8.53969e-06
-1.00612e-06
-8.03938e-06
-1.40744e-06
-7.41429e-06
-1.79179e-06
-6.67975e-06
-2.13838e-06
-5.85535e-06
-2.43139e-06
-4.96301e-06
-2.66129e-06
-4.02367e-06
-2.82701e-06
-3.05703e-06
-2.93009e-06
-2.0801e-06
-2.97581e-06
-1.10781e-06
-2.96923e-06
-1.52381e-07
-2.92091e-06
7.86953e-07
-2.85492e-06
1.69857e-06
-2.76268e-06
2.58208e-06
-2.66092e-06
3.43597e-06
-2.55108e-06
4.25864e-06
-2.43334e-06
5.04912e-06
-2.30706e-06
5.80528e-06
-2.16886e-06
6.52066e-06
-2.01027e-06
7.18899e-06
-1.81851e-06
7.79871e-06
-1.56495e-06
8.29064e-06
-1.19752e-06
8.56563e-06
-7.02732e-07
8.61682e-06
-1.55211e-07
8.57773e-06
3.47402e-07
8.56778e-06
7.73635e-07
8.53894e-06
1.13741e-06
8.34813e-06
1.45894e-06
7.89852e-06
1.6838e-06
7.23616e-06
1.69735e-06
6.52228e-06
1.4916e-06
5.90012e-06
1.20587e-06
5.40286e-06
9.89447e-07
4.97798e-06
8.9424e-07
4.56592e-06
8.91661e-07
4.14553e-06
9.22545e-07
3.73843e-06
9.16367e-07
3.38524e-06
8.33287e-07
3.11659e-06
6.65607e-07
2.93967e-06
4.54508e-07
2.83509e-06
2.3325e-07
2.78621e-06
5.63609e-08
2.75891e-06
-5.51637e-08
2.77503e-06
-7.86592e-08
2.83932e-06
-5.10578e-08
2.93329e-06
-3.53419e-08
1.76993e-08
3.00464e-06
2.55679e-07
-1.13126e-06
3.84196e-07
-1.32137e-06
4.54758e-07
-1.3246e-06
5.406e-07
-1.32931e-06
6.5823e-07
-1.34514e-06
7.73613e-07
-1.31594e-06
8.75937e-07
-1.25329e-06
9.49501e-07
-1.1266e-06
9.82838e-07
-9.32956e-07
9.70585e-07
-6.73802e-07
9.05936e-07
-3.52795e-07
7.81047e-07
1.7671e-08
6.19963e-07
4.11113e-07
4.20263e-07
8.06276e-07
1.67453e-07
1.17772e-06
-1.59275e-07
1.49976e-06
-6.12638e-07
1.76624e-06
-1.25341e-06
2.00394e-06
-2.09621e-06
2.23305e-06
-3.05286e-06
2.44167e-06
-3.888e-06
2.61018e-06
-4.53994e-06
2.69531e-06
-5.0476e-06
2.70644e-06
-5.45389e-06
2.68161e-06
-5.79638e-06
2.63833e-06
-6.10649e-06
2.57183e-06
-6.41797e-06
2.487e-06
-6.74014e-06
2.39401e-06
-7.07761e-06
2.29601e-06
-7.42895e-06
2.19626e-06
-7.7904e-06
2.09366e-06
-8.15617e-06
1.98953e-06
-8.52145e-06
1.88383e-06
-8.88155e-06
1.77704e-06
-9.23203e-06
1.66853e-06
-9.56867e-06
1.5573e-06
-9.88744e-06
1.4419e-06
-1.01844e-05
1.32081e-06
-1.04555e-05
1.19281e-06
-1.06971e-05
1.057e-06
-1.09052e-05
9.13014e-07
-1.10768e-05
7.61193e-07
-1.12088e-05
6.0244e-07
-1.1299e-05
4.38259e-07
-1.13463e-05
2.70511e-07
-1.13492e-05
9.94804e-08
-1.13092e-05
-6.88737e-08
-1.12279e-05
-2.32903e-07
-1.11059e-05
-3.94001e-07
-1.09455e-05
-5.48738e-07
-1.07496e-05
-6.95755e-07
-1.05211e-05
-8.3478e-07
-1.02625e-05
-9.66397e-07
-9.97579e-06
-1.09192e-06
-9.66235e-06
-1.21313e-06
-9.32277e-06
-1.33194e-06
-8.9571e-06
-1.45019e-06
-8.56485e-06
-1.56941e-06
-8.14509e-06
-1.69063e-06
-7.69661e-06
-1.81412e-06
-7.21815e-06
-1.93895e-06
-6.70872e-06
-2.06248e-06
-6.16878e-06
-2.17992e-06
-5.60204e-06
-2.28415e-06
-5.01737e-06
-2.36658e-06
-4.43077e-06
-2.41844e-06
-3.86691e-06
-2.43361e-06
-3.35708e-06
-2.41406e-06
-2.93205e-06
-2.37093e-06
-2.60523e-06
-2.31695e-06
-2.3442e-06
-2.25595e-06
-2.0794e-06
-2.16137e-06
-1.75578e-06
-1.97119e-06
-1.38498e-06
-1.62333e-06
-7.48276e-07
-1.08302e-06
2.17317e-08
-5.93286e-07
6.69402e-07
-4.33923e-07
1.10592e-06
-4.64712e-07
1.32646e-06
-5.66155e-07
1.48476e-06
-6.90595e-07
1.73678e-06
-8.66524e-07
2.13674e-06
-1.09433e-06
2.64316e-06
-1.27579e-06
3.1511e-06
-1.31978e-06
3.58211e-06
-1.35692e-06
3.93433e-06
-1.46262e-06
4.26192e-06
-1.57398e-06
4.6787e-06
-1.89889e-06
5.23303e-06
-2.43196e-06
5.85447e-06
-2.70659e-06
6.3618e-06
-2.5153e-06
6.66952e-06
-1.94084e-06
6.74675e-06
-7.95609e-07
6.4721e-06
6.14858e-07
6.04167e-06
1.66922e-06
5.55272e-06
2.83829e-06
4.94114e-06
3.65638e-06
4.22626e-06
2.6824e-06
3.01119e-06
1.52952e-06
1.27486e-06
2.15409e-06
-4.21508e-07
3.60977e-06
-1.50191e-06
4.34736e-06
-1.96995e-06
4.12088e-06
-2.25742e-06
3.53466e-06
-2.57992e-06
3.01345e-06
-2.95708e-06
2.59983e-06
-3.37749e-06
2.2784e-06
-3.8062e-06
2.0111e-06
-4.2166e-06
1.77684e-06
-4.59119e-06
1.56788e-06
-4.92562e-06
1.38769e-06
-5.22538e-06
1.24254e-06
-5.50188e-06
1.13648e-06
-5.76725e-06
1.06881e-06
-6.03069e-06
1.03332e-06
-6.29587e-06
1.0174e-06
-6.55892e-06
1.00254e-06
-6.81014e-06