/*--------------------------------*- C++ -*----------------------------------*\
| =========                 |                                                 |
| \\      /  F ield         | OpenFOAM: The Open Source CFD Toolbox           |
|  \\    /   O peration     | Version:  2112                                  |
|   \\  /    A nd           | Website:  www.openfoam.com                      |
|    \\/     M anipulation  |                                                 |
\*---------------------------------------------------------------------------*/
FoamFile
{
    version     2.0;
    format      ascii;
    arch        "LSB;label=32;scalar=64";
    class       volSymmTensorField;
    location    "0.092";
    object      UPrime2Mean;
}
// * * * * * * * * * * * * * * * * * * * * * * * * * * * * * * * * * * * * * //

dimensions      [0 2 -2 0 0 0 0];

internalField   nonuniform List<symmTensor> 
12225
(
(0.0334669 0.000696534 0 0.00227234 0 0)
(0.0174422 -1.15729e-05 0 0.00108385 0 0)
(0.0182201 -0.000295378 0 0.000782324 0 0)
(0.0186663 -0.000383276 0 0.000640257 0 0)
(0.0220531 -0.000525781 0 0.000556363 0 0)
(0.0299242 -0.000813951 0 0.000503343 0 0)
(0.043523 -0.0013468 0 0.000482781 0 0)
(0.0633807 -0.00192005 0 0.000450335 0 0)
(0.0927674 -0.00316185 0 0.000488186 0 0)
(0.131578 -0.00365981 0 0.000445482 0 0)
(0.191313 -0.00719049 0 0.000618687 0 0)
(0.266024 -0.00649744 0 0.000522358 0 0)
(0.393614 -0.0184335 0 0.00123252 0 0)
(0.54582 -0.0109417 0 0.000965774 0 0)
(0.840939 -0.0555421 0 0.00460384 0 0)
(1.21037 -0.0160568 0 0.00401532 0 0)
(1.98855 -0.217574 0 0.0333397 0 0)
(3.27596 -0.0686639 0 0.0166228 0 0)
(0.0322116 0.000576302 0 0.00280036 0 0)
(0.0165978 0.00068052 0 0.001534 0 0)
(0.0159303 0.00052541 0 0.00108571 0 0)
(0.0149355 0.000509706 0 0.000915436 0 0)
(0.0147242 0.000427433 0 0.00083618 0 0)
(0.0154521 9.82155e-05 0 0.000812878 0 0)
(0.0176388 -0.000432361 0 0.000814009 0 0)
(0.0219419 -0.0013606 0 0.000907958 0 0)
(0.0291299 -0.00241345 0 0.000962816 0 0)
(0.0411224 -0.00457446 0 0.00130517 0 0)
(0.0588121 -0.00670071 0 0.00145988 0 0)
(0.088665 -0.0123641 0 0.00250305 0 0)
(0.129542 -0.0170336 0 0.00295419 0 0)
(0.204434 -0.0332069 0 0.00622699 0 0)
(0.300203 -0.0451927 0 0.00800363 0 0)
(0.503377 -0.0980263 0 0.020619 0 0)
(0.744664 -0.151892 0 0.0327011 0 0)
(1.31833 -0.380462 0 0.123856 0 0)
(0.0305235 3.01062e-06 0 0.00349186 0 0)
(0.0153083 -1.21169e-05 0 0.00165172 0 0)
(0.0148622 -0.000171118 0 0.00113235 0 0)
(0.0137679 -0.000276162 0 0.000977254 0 0)
(0.0135631 -0.000428229 0 0.000922902 0 0)
(0.0142777 -0.000754439 0 0.000929298 0 0)
(0.0160373 -0.00139135 0 0.00102546 0 0)
(0.0190518 -0.00230889 0 0.00115922 0 0)
(0.0239724 -0.00380603 0 0.00151985 0 0)
(0.0315112 -0.00566469 0 0.00188819 0 0)
(0.0431203 -0.00914327 0 0.00291046 0 0)
(0.0601912 -0.0131902 0 0.00383456 0 0)
(0.0857382 -0.022084 0 0.00681235 0 0)
(0.123265 -0.0318118 0 0.00950634 0 0)
(0.179699 -0.0567151 0 0.0197134 0 0)
(0.263711 -0.0868265 0 0.0312089 0 0)
(0.383444 -0.165204 0 0.0768685 0 0)
(0.541924 -0.295175 0 0.173248 0 0)
(0.0319513 2.74312e-05 0 0.00374666 0 0)
(0.0160357 -0.000148314 0 0.00204809 0 0)
(0.0151578 -0.000346466 0 0.00136198 0 0)
(0.0137564 -0.000396992 0 0.00117615 0 0)
(0.0131864 -0.000553553 0 0.00116416 0 0)
(0.0136353 -0.000976301 0 0.00126316 0 0)
(0.0152395 -0.00170696 0 0.00144568 0 0)
(0.0181469 -0.00285327 0 0.00178239 0 0)
(0.0226663 -0.00445797 0 0.00225105 0 0)
(0.0296605 -0.00699341 0 0.00310762 0 0)
(0.04006 -0.0105987 0 0.0043093 0 0)
(0.0557348 -0.0165498 0 0.00652046 0 0)
(0.0781387 -0.0251878 0 0.00984878 0 0)
(0.110917 -0.0397061 0 0.0161815 0 0)
(0.156777 -0.0622783 0 0.027253 0 0)
(0.219908 -0.100639 0 0.0497546 0 0)
(0.300978 -0.16595 0 0.098204 0 0)
(0.385494 -0.262011 0 0.192463 0 0)
(0.028509 0.000708295 0 0.00397315 0 0)
(0.0138412 0.000565104 0 0.00238513 0 0)
(0.0130965 0.000244219 0 0.00169274 0 0)
(0.0112925 2.62313e-05 0 0.00150543 0 0)
(0.0104699 -0.00027189 0 0.00152887 0 0)
(0.010783 -0.000798747 0 0.00170061 0 0)
(0.0122113 -0.00167446 0 0.0020376 0 0)
(0.0148211 -0.00299077 0 0.00255182 0 0)
(0.018967 -0.00498002 0 0.0033876 0 0)
(0.025338 -0.00786927 0 0.00460563 0 0)
(0.034942 -0.0123248 0 0.00660393 0 0)
(0.0490022 -0.0189032 0 0.00963463 0 0)
(0.0692503 -0.0291942 0 0.014792 0 0)
(0.0974946 -0.0447753 0 0.0233065 0 0)
(0.136334 -0.0692979 0 0.0385482 0 0)
(0.18586 -0.107748 0 0.0670695 0 0)
(0.245369 -0.164925 0 0.118523 0 0)
(0.300158 -0.24566 0 0.220143 0 0)
(0.0317953 0.000149689 0 0.00453533 0 0)
(0.0154046 -4.13095e-05 0 0.00275709 0 0)
(0.0147128 -0.000310963 0 0.00203234 0 0)
(0.0135408 -0.000472535 0 0.00183352 0 0)
(0.0131982 -0.000814139 0 0.00189538 0 0)
(0.0137553 -0.00147876 0 0.00217144 0 0)
(0.0152546 -0.0025481 0 0.00266276 0 0)
(0.0178168 -0.00413432 0 0.00342942 0 0)
(0.0217995 -0.0064388 0 0.00458671 0 0)
(0.0278067 -0.00980247 0 0.00634649 0 0)
(0.0367038 -0.0147836 0 0.00905543 0 0)
(0.0494151 -0.0221691 0 0.0132864 0 0)
(0.0672501 -0.0332444 0 0.0200926 0 0)
(0.0911842 -0.0497029 0 0.0312645 0 0)
(0.122566 -0.0743612 0 0.0501974 0 0)
(0.16016 -0.1102 0 0.0828029 0 0)
(0.201876 -0.160224 0 0.138628 0 0)
(0.237836 -0.223096 0 0.232904 0 0)
(0.0325214 0.000799891 0 0.00508185 0 0)
(0.0156274 0.000247465 0 0.00358121 0 0)
(0.0144916 1.11943e-05 0 0.0027124 0 0)
(0.0128197 -8.93184e-05 0 0.00249961 0 0)
(0.0120369 -0.000388932 0 0.00263718 0 0)
(0.0121206 -0.00101238 0 0.00303708 0 0)
(0.0130459 -0.00207509 0 0.00371893 0 0)
(0.0149821 -0.00373865 0 0.00476874 0 0)
(0.0183131 -0.00624596 0 0.006349 0 0)
(0.0235759 -0.0099606 0 0.00873326 0 0)
(0.0314499 -0.0154334 0 0.0123468 0 0)
(0.0425378 -0.0234305 0 0.0179345 0 0)
(0.0576547 -0.035024 0 0.0266168 0 0)
(0.0771617 -0.0517257 0 0.040545 0 0)
(0.101487 -0.0753129 0 0.0627316 0 0)
(0.128933 -0.107693 0 0.0990237 0 0)
(0.157305 -0.14932 0 0.155815 0 0)
(0.179931 -0.197211 0 0.243501 0 0)
(0.0333315 0.00104208 0 0.00498406 0 0)
(0.0162252 0.000249181 0 0.0033151 0 0)
(0.015139 -2.24467e-05 0 0.00245974 0 0)
(0.0134777 -9.00474e-05 0 0.00233418 0 0)
(0.0126019 -0.000419554 0 0.00259556 0 0)
(0.012756 -0.00119573 0 0.00317775 0 0)
(0.0139594 -0.00249274 0 0.00412379 0 0)
(0.0161285 -0.00441486 0 0.00554838 0 0)
(0.0193401 -0.00717267 0 0.00764427 0 0)
(0.0239345 -0.0111173 0 0.0107335 0 0)
(0.0304998 -0.0167787 0 0.0153145 0 0)
(0.0395508 -0.0248671 0 0.0222296 0 0)
(0.0516688 -0.036329 0 0.0327033 0 0)
(0.0668424 -0.0522984 0 0.0488744 0 0)
(0.0849967 -0.0739581 0 0.0735667 0 0)
(0.104281 -0.102035 0 0.111614 0 0)
(0.123023 -0.135926 0 0.16758 0 0)
(0.136601 -0.172224 0 0.248457 0 0)
(0.0318568 0.000959603 0 0.00584709 0 0)
(0.0154219 6.6615e-05 0 0.00450096 0 0)
(0.0148854 -0.000340539 0 0.00337328 0 0)
(0.0138561 -0.000601485 0 0.00315965 0 0)
(0.0135642 -0.00116237 0 0.00345874 0 0)
(0.0140724 -0.00213454 0 0.00418929 0 0)
(0.0153694 -0.0035476 0 0.00537932 0 0)
(0.0174489 -0.00553701 0 0.00716369 0 0)
(0.020434 -0.00838776 0 0.00977932 0 0)
(0.0246277 -0.0124928 0 0.0136222 0 0)
(0.0304567 -0.0183408 0 0.0192522 0 0)
(0.0382374 -0.0265086 0 0.0275872 0 0)
(0.0482436 -0.0376803 0 0.0398682 0 0)
(0.0602129 -0.0525705 0 0.0581458 0 0)
(0.0737793 -0.0717667 0 0.0848623 0 0)
(0.0872963 -0.0952452 0 0.123896 0 0)
(0.0995993 -0.121941 0 0.178277 0 0)
(0.107819 -0.148713 0 0.252459 0 0)
(0.0325504 0.000432409 0 0.00568434 0 0)
(0.0147201 -0.000187989 0 0.00426837 0 0)
(0.0137901 -0.00044531 0 0.00344917 0 0)
(0.0126728 -0.000617161 0 0.00342068 0 0)
(0.0121381 -0.00108278 0 0.00387346 0 0)
(0.0120597 -0.00201473 0 0.00478963 0 0)
(0.012602 -0.00348177 0 0.00627193 0 0)
(0.0140279 -0.00558581 0 0.00848744 0 0)
(0.0165278 -0.00853877 0 0.0116867 0 0)
(0.0202 -0.012654 0 0.0162938 0 0)
(0.0251361 -0.018329 0 0.022906 0 0)
(0.0313505 -0.0260127 0 0.0324575 0 0)
(0.0388287 -0.0361722 0 0.0461456 0 0)
(0.0472617 -0.049191 0 0.0658188 0 0)
(0.0562102 -0.0652033 0 0.0934786 0 0)
(0.0646026 -0.0837482 0 0.132125 0 0)
(0.0716521 -0.103514 0 0.183609 0 0)
(0.07602 -0.121926 0 0.250893 0 0)
(0.0317346 0.000881217 0 0.00672382 0 0)
(0.0144395 -0.00023324 0 0.00483629 0 0)
(0.0135172 -0.000644995 0 0.00371615 0 0)
(0.0122715 -0.00077654 0 0.00372178 0 0)
(0.0118508 -0.00114072 0 0.00432008 0 0)
(0.012084 -0.0019852 0 0.00546052 0 0)
(0.0128775 -0.00342441 0 0.0072447 0 0)
(0.014246 -0.00553045 0 0.00986672 0 0)
(0.0162297 -0.00844028 0 0.0136202 0 0)
(0.0188835 -0.0123784 0 0.0189611 0 0)
(0.0222942 -0.0176495 0 0.0265036 0 0)
(0.026463 -0.0245528 0 0.0371602 0 0)
(0.0313744 -0.0333673 0 0.052025 0 0)
(0.0367394 -0.0441609 0 0.0727056 0 0)
(0.042272 -0.056788 0 0.100743 0 0)
(0.0471882 -0.070465 0 0.138407 0 0)
(0.0512644 -0.0840259 0 0.186646 0 0)
(0.0536665 -0.0951682 0 0.247549 0 0)
(0.0349549 0.000767242 0 0.00692014 0 0)
(0.0168523 -5.08535e-05 0 0.00581293 0 0)
(0.0158573 -0.000502625 0 0.00472149 0 0)
(0.0146321 -0.00078182 0 0.00471873 0 0)
(0.0140362 -0.00132582 0 0.00543117 0 0)
(0.01398 -0.00230645 0 0.00680052 0 0)
(0.0145023 -0.00378835 0 0.0089142 0 0)
(0.0156438 -0.00583103 0 0.011962 0 0)
(0.0173929 -0.00857255 0 0.0162416 0 0)
(0.0197103 -0.0122168 0 0.0222177 0 0)
(0.0225576 -0.0170059 0 0.03049 0 0)
(0.0258001 -0.0231384 0 0.0419185 0 0)
(0.0293017 -0.0307454 0 0.0574591 0 0)
(0.0327931 -0.0397204 0 0.0784732 0 0)
(0.0359983 -0.0497606 0 0.10609 0 0)
(0.0385371 -0.0600337 0 0.142035 0 0)
(0.0402896 -0.0694811 0 0.186657 0 0)
(0.0411467 -0.0763183 0 0.241518 0 0)
(0.0327381 0.000293097 0 0.00752731 0 0)
(0.0162678 -0.000564603 0 0.00600577 0 0)
(0.0154468 -0.000951089 0 0.0049156 0 0)
(0.0140197 -0.000983001 0 0.00499318 0 0)
(0.0132796 -0.00119122 0 0.00584187 0 0)
(0.0130652 -0.00189339 0 0.00735422 0 0)
(0.0132356 -0.00319285 0 0.00964096 0 0)
(0.013742 -0.00506131 0 0.0129573 0 0)
(0.014571 -0.00750684 0 0.0176329 0 0)
(0.0157478 -0.0106175 0 0.0241204 0 0)
(0.0172978 -0.0145294 0 0.0329629 0 0)
(0.0191477 -0.0193375 0 0.0449235 0 0)
(0.0211725 -0.025065 0 0.0608118 0 0)
(0.02313 -0.0315032 0 0.0817581 0 0)
(0.0248387 -0.0383017 0 0.108565 0 0)
(0.0260273 -0.0446588 0 0.142559 0 0)
(0.0268236 -0.0497304 0 0.183695 0 0)
(0.0271957 -0.0520592 0 0.233223 0 0)
(0.0352226 0.000335049 0 0.00856166 0 0)
(0.0180527 -0.000662441 0 0.00707891 0 0)
(0.0172055 -0.00115636 0 0.00599377 0 0)
(0.0159021 -0.00129634 0 0.00612655 0 0)
(0.0152399 -0.0016846 0 0.00707498 0 0)
(0.0150281 -0.00253451 0 0.00879208 0 0)
(0.0151715 -0.00384594 0 0.0114002 0 0)
(0.0155875 -0.0055656 0 0.015126 0 0)
(0.0161831 -0.00770836 0 0.0202632 0 0)
(0.0169078 -0.0103404 0 0.0272335 0 0)
(0.0177583 -0.0135491 0 0.0365333 0 0)
(0.0186787 -0.0173353 0 0.0488354 0 0)
(0.0196627 -0.0216268 0 0.0647761 0 0)
(0.020568 -0.0260986 0 0.0852463 0 0)
(0.0213869 -0.030374 0 0.110714 0 0)
(0.0220169 -0.0336738 0 0.142157 0 0)
(0.0226496 -0.035416 0 0.179207 0 0)
(0.0234628 -0.0343269 0 0.222881 0 0)
(0.0327109 0.00153351 0 0.0101048 0 0)
(0.0153285 -0.000524253 0 0.00864915 0 0)
(0.014271 -0.00105333 0 0.00712541 0 0)
(0.0132154 -0.00104317 0 0.00716125 0 0)
(0.0127222 -0.00115749 0 0.00821243 0 0)
(0.0123223 -0.00169193 0 0.0100945 0 0)
(0.012052 -0.00269582 0 0.0128871 0 0)
(0.0120428 -0.00407652 0 0.0168153 0 0)
(0.0122748 -0.00575047 0 0.022183 0 0)
(0.0126552 -0.00767932 0 0.0293905 0 0)
(0.0131064 -0.0098587 0 0.0388489 0 0)
(0.0135304 -0.0122176 0 0.051092 0 0)
(0.0138832 -0.0146278 0 0.0665574 0 0)
(0.0141342 -0.0167602 0 0.0858964 0 0)
(0.0143062 -0.0182706 0 0.109285 0 0)
(0.0145499 -0.0185142 0 0.137441 0 0)
(0.0150658 -0.0170845 0 0.169739 0 0)
(0.0162266 -0.0130366 0 0.207094 0 0)
(0.0288277 -0.000157014 0 0.0106422 0 0)
(0.014812 -0.00172564 0 0.00974708 0 0)
(0.0144518 -0.00266555 0 0.00818063 0 0)
(0.012785 -0.00293185 0 0.00826694 0 0)
(0.0117273 -0.00309234 0 0.00943339 0 0)
(0.0111251 -0.0035633 0 0.0115255 0 0)
(0.0109584 -0.00444272 0 0.0145946 0 0)
(0.0111234 -0.00558542 0 0.0188104 0 0)
(0.0113697 -0.0068135 0 0.0244058 0 0)
(0.0115182 -0.00800704 0 0.0316881 0 0)
(0.0115525 -0.0090998 0 0.0409609 0 0)
(0.0115196 -0.00998713 0 0.0526298 0 0)
(0.0114815 -0.0105145 0 0.0669712 0 0)
(0.011512 -0.0103887 0 0.0844455 0 0)
(0.0116733 -0.00930579 0 0.105027 0 0)
(0.0121736 -0.00680271 0 0.129238 0 0)
(0.0131853 -0.00258292 0 0.156357 0 0)
(0.015138 0.00395618 0 0.187185 0 0)
(0.0336054 0.000306576 0 0.0118579 0 0)
(0.0164555 -0.00160333 0 0.01126 0 0)
(0.0147018 -0.00212184 0 0.00947025 0 0)
(0.0127561 -0.00192986 0 0.00925224 0 0)
(0.0118556 -0.00161584 0 0.0102618 0 0)
(0.0113309 -0.00157149 0 0.0122907 0 0)
(0.0109499 -0.00176181 0 0.0152857 0 0)
(0.010667 -0.00193919 0 0.0193419 0 0)
(0.0104053 -0.00190439 0 0.024642 0 0)
(0.0101446 -0.00157008 0 0.0314372 0 0)
(0.00996083 -0.000910486 0 0.0399397 0 0)
(0.00996355 0.000165385 0 0.050402 0 0)
(0.0102358 0.00181169 0 0.062934 0 0)
(0.01089 0.00430326 0 0.0778038 0 0)
(0.0119867 0.00788946 0 0.0948399 0 0)
(0.0137555 0.0128937 0 0.11442 0 0)
(0.0163144 0.0194836 0 0.135832 0 0)
(0.0200288 0.0279833 0 0.159789 0 0)
(0.0330172 0.00120729 0 0.0129793 0 0)
(0.0169978 0.000261732 0 0.0131231 0 0)
(0.0147449 -0.000113418 0 0.0105127 0 0)
(0.0125941 0.000157068 0 0.00971059 0 0)
(0.011694 0.000738715 0 0.0105441 0 0)
(0.011256 0.00132527 0 0.0125467 0 0)
(0.0109304 0.00194266 0 0.0154613 0 0)
(0.0107328 0.00274634 0 0.0192621 0 0)
(0.010715 0.00384963 0 0.0240701 0 0)
(0.0109067 0.00533792 0 0.0300826 0 0)
(0.0113305 0.00727577 0 0.0374402 0 0)
(0.0120528 0.00979648 0 0.0462773 0 0)
(0.0131315 0.0130294 0 0.0565931 0 0)
(0.0147178 0.0172045 0 0.0685059 0 0)
(0.0168798 0.0224168 0 0.0818162 0 0)
(0.0198961 0.0289167 0 0.0967791 0 0)
(0.0238038 0.0366199 0 0.112818 0 0)
(0.0290235 0.045875 0 0.130448 0 0)
(0.0318711 0.000681779 0 0.0111086 0 0)
(0.015775 -0.000700994 0 0.0105453 0 0)
(0.013654 -0.000834145 0 0.00884473 0 0)
(0.011407 -0.000145743 0 0.00844263 0 0)
(0.0102701 0.000613989 0 0.00911956 0 0)
(0.00948725 0.00121294 0 0.0106897 0 0)
(0.00902318 0.0018356 0 0.0130207 0 0)
(0.00896863 0.00273725 0 0.0160743 0 0)
(0.00932934 0.00406768 0 0.0198794 0 0)
(0.0100637 0.00590007 0 0.0245209 0 0)
(0.0111121 0.00827296 0 0.0300616 0 0)
(0.0124799 0.0112676 0 0.0365732 0 0)
(0.0142405 0.0149565 0 0.0440181 0 0)
(0.0165672 0.0194799 0 0.0524539 0 0)
(0.0195692 0.024873 0 0.0617036 0 0)
(0.0234845 0.0312859 0 0.0719296 0 0)
(0.0283526 0.0386073 0 0.0827255 0 0)
(0.0344675 0.0470752 0 0.0944533 0 0)
(0.0302533 0.000888103 0 0.0121382 0 0)
(0.0142269 0.000482144 0 0.0109497 0 0)
(0.0132299 0.000113217 0 0.0082862 0 0)
(0.0121383 0.000588154 0 0.0076465 0 0)
(0.0115803 0.00153358 0 0.00825057 0 0)
(0.0112414 0.00253827 0 0.00961141 0 0)
(0.0112536 0.00357214 0 0.0114862 0 0)
(0.0117351 0.00483301 0 0.0138055 0 0)
(0.0127176 0.00651101 0 0.0166063 0 0)
(0.0141823 0.00871784 0 0.0199655 0 0)
(0.016103 0.0115052 0 0.0239168 0 0)
(0.0185175 0.0149245 0 0.0284826 0 0)
(0.0215209 0.0189918 0 0.0336192 0 0)
(0.0252664 0.023762 0 0.0393502 0 0)
(0.0298501 0.0292119 0 0.0455474 0 0)
(0.0354333 0.0354127 0 0.0523233 0 0)
(0.0420475 0.0422625 0 0.0594093 0 0)
(0.0498578 0.0498998 0 0.067019 0 0)
(0.0329956 0.00121692 0 0.0117046 0 0)
(0.0164585 0.0009438 0 0.0110628 0 0)
(0.0143228 0.000611066 0 0.00846375 0 0)
(0.0128144 0.000866633 0 0.00741784 0 0)
(0.0120724 0.00142816 0 0.00748431 0 0)
(0.0117106 0.00209333 0 0.00825516 0 0)
(0.011759 0.00286968 0 0.00949804 0 0)
(0.0122038 0.00389006 0 0.0111162 0 0)
(0.0130069 0.00529039 0 0.0130886 0 0)
(0.0141957 0.00716289 0 0.0154293 0 0)
(0.0158594 0.00954324 0 0.018145 0 0)
(0.0181341 0.0124547 0 0.021253 0 0)
(0.0211519 0.0158968 0 0.0247305 0 0)
(0.025067 0.0199083 0 0.0285951 0 0)
(0.0299173 0.0244496 0 0.0327471 0 0)
(0.0358531 0.0295866 0 0.0372835 0 0)
(0.0428109 0.0352223 0 0.0420135 0 0)
(0.0509363 0.0414646 0 0.0470486 0 0)
(0.0385252 0.000533049 0 0.0103874 0 0)
(0.0186156 0.000697607 0 0.00931635 0 0)
(0.0156348 0.000835584 0 0.00725918 0 0)
(0.0140217 0.00118514 0 0.00663529 0 0)
(0.0133117 0.00167557 0 0.00667883 0 0)
(0.0130653 0.00223162 0 0.00710637 0 0)
(0.0132553 0.00294751 0 0.00784364 0 0)
(0.0138579 0.00397065 0 0.00888192 0 0)
(0.0148694 0.00536755 0 0.0102228 0 0)
(0.0163607 0.00714657 0 0.0118535 0 0)
(0.0184475 0.00930381 0 0.0137498 0 0)
(0.0212502 0.0118514 0 0.0159111 0 0)
(0.0248632 0.0148017 0 0.018324 0 0)
(0.0293631 0.018196 0 0.0209933 0 0)
(0.0347551 0.0220306 0 0.0238347 0 0)
(0.0411045 0.0263541 0 0.0269203 0 0)
(0.0483995 0.0311173 0 0.0301201 0 0)
(0.0566673 0.0363429 0 0.0334869 0 0)
(0.0312861 0.00168164 0 0.00952163 0 0)
(0.0143884 0.000549849 0 0.00841994 0 0)
(0.0130484 0.000400214 0 0.00630044 0 0)
(0.0122667 0.000804004 0 0.00541645 0 0)
(0.0119885 0.00129713 0 0.00525054 0 0)
(0.0117983 0.00175889 0 0.00550138 0 0)
(0.0117804 0.00231459 0 0.00602921 0 0)
(0.0121273 0.00314992 0 0.00676263 0 0)
(0.0130318 0.00433803 0 0.00766925 0 0)
(0.014632 0.00585605 0 0.00874317 0 0)
(0.0169957 0.00767496 0 0.0099841 0 0)
(0.0201485 0.00981406 0 0.0113966 0 0)
(0.0241069 0.0123112 0 0.0129652 0 0)
(0.0289314 0.0152167 0 0.0146913 0 0)
(0.0346584 0.0185221 0 0.0165265 0 0)
(0.0413866 0.0222302 0 0.0185238 0 0)
(0.0491473 0.0262816 0 0.0205994 0 0)
(0.057959 0.0306718 0 0.0227853 0 0)
(0.0324526 0.000686775 0 0.00866291 0 0)
(0.0159299 0.000201281 0 0.00638791 0 0)
(0.014481 0.000234266 0 0.00455235 0 0)
(0.0135021 0.000633175 0 0.00392967 0 0)
(0.0132802 0.00111728 0 0.00382596 0 0)
(0.0133711 0.00163076 0 0.00399189 0 0)
(0.013768 0.00222674 0 0.0043148 0 0)
(0.0145696 0.00298685 0 0.00476018 0 0)
(0.0158877 0.00396735 0 0.0053235 0 0)
(0.0178393 0.00519995 0 0.00600643 0 0)
(0.0205181 0.00670735 0 0.00680381 0 0)
(0.0239905 0.00851038 0 0.00771113 0 0)
(0.0283066 0.0106157 0 0.00871849 0 0)
(0.0335342 0.013035 0 0.00983078 0 0)
(0.039704 0.0157451 0 0.0110177 0 0)
(0.0468949 0.0187475 0 0.0123151 0 0)
(0.0551195 0.0220018 0 0.013671 0 0)
(0.0643384 0.0255157 0 0.0150925 0 0)
(0.0309154 0.000611454 0 0.00786083 0 0)
(0.0144779 0.000123133 0 0.00608246 0 0)
(0.0129352 -3.50005e-05 0 0.00428569 0 0)
(0.0120835 0.000147189 0 0.0035712 0 0)
(0.0120361 0.00047377 0 0.00339047 0 0)
(0.0123244 0.000896629 0 0.0034351 0 0)
(0.0130263 0.00142783 0 0.00357521 0 0)
(0.0142484 0.00210656 0 0.00378621 0 0)
(0.0160152 0.00294901 0 0.00407099 0 0)
(0.0183386 0.00396286 0 0.00443855 0 0)
(0.0212653 0.00516382 0 0.00489002 0 0)
(0.0248857 0.00657993 0 0.00541972 0 0)
(0.0293084 0.00823364 0 0.00601903 0 0)
(0.0346581 0.0101459 0 0.00668615 0 0)
(0.0409868 0.0123053 0 0.00739744 0 0)
(0.0483659 0.0147123 0 0.00818608 0 0)
(0.0567696 0.0173239 0 0.00901357 0 0)
(0.0661834 0.0201458 0 0.0098728 0 0)
(0.0324911 -0.000508699 0 0.00685754 0 0)
(0.0166041 -0.000193361 0 0.00461015 0 0)
(0.0156412 -0.000163934 0 0.00317184 0 0)
(0.0149141 -6.5662e-05 0 0.00265867 0 0)
(0.0144382 0.000178268 0 0.00247146 0 0)
(0.0140848 0.000539943 0 0.00243154 0 0)
(0.0142822 0.000980151 0 0.00247489 0 0)
(0.0152647 0.00149806 0 0.00257989 0 0)
(0.0170142 0.00212326 0 0.0027393 0 0)
(0.0194238 0.00289388 0 0.00295229 0 0)
(0.0224313 0.00383234 0 0.003215 0 0)
(0.0260725 0.00494498 0 0.00352206 0 0)
(0.030449 0.00622633 0 0.00386993 0 0)
(0.0356916 0.00768257 0 0.00426276 0 0)
(0.0418569 0.00930786 0 0.0046877 0 0)
(0.0490348 0.0111142 0 0.00516416 0 0)
(0.0572036 0.0130824 0 0.00567289 0 0)
(0.0663507 0.0152208 0 0.00620188 0 0)
(0.0360258 0.000298249 0 0.00571017 0 0)
(0.017956 -0.00013734 0 0.0036634 0 0)
(0.0158265 -0.00015833 0 0.00266802 0 0)
(0.0147672 8.24436e-05 0 0.00230063 0 0)
(0.0143498 0.000351816 0 0.0021673 0 0)
(0.0140879 0.000554289 0 0.00212295 0 0)
(0.0142458 0.000734616 0 0.00211586 0 0)
(0.0150127 0.000989021 0 0.00213518 0 0)
(0.0164314 0.00137686 0 0.00218339 0 0)
(0.0185298 0.00190995 0 0.00226254 0 0)
(0.0213598 0.00257462 0 0.00237111 0 0)
(0.0249873 0.00335738 0 0.0025056 0 0)
(0.0294732 0.00425409 0 0.00266297 0 0)
(0.0348881 0.00527903 0 0.00284464 0 0)
(0.0412239 0.0064358 0 0.00304363 0 0)
(0.0485284 0.00773286 0 0.0032803 0 0)
(0.056779 0.00915829 0 0.00354141 0 0)
(0.0659233 0.0107149 0 0.00381364 0 0)
(0.0329526 -0.000251399 0 0.00477045 0 0)
(0.0179088 -0.000298598 0 0.00288679 0 0)
(0.0166527 -0.000297605 0 0.00195854 0 0)
(0.0156626 -0.000140008 0 0.0016616 0 0)
(0.0154386 4.23356e-05 0 0.00152843 0 0)
(0.0155238 0.000158347 0 0.00143063 0 0)
(0.0160686 0.000264373 0 0.00135171 0 0)
(0.0172239 0.000437563 0 0.00130117 0 0)
(0.0190456 0.000702549 0 0.0012797 0 0)
(0.0215481 0.00105402 0 0.00128086 0 0)
(0.0247384 0.00148481 0 0.00130007 0 0)
(0.028643 0.00199853 0 0.001337 0 0)
(0.0333172 0.00260486 0 0.00139409 0 0)
(0.0388416 0.00331943 0 0.0014739 0 0)
(0.0452416 0.00414914 0 0.00157255 0 0)
(0.0526013 0.00509335 0 0.00169913 0 0)
(0.0609652 0.00614288 0 0.00184581 0 0)
(0.0702838 0.00729012 0 0.00200248 0 0)
(0.0331656 -0.000966857 0 0.00336839 0 0)
(0.0169034 -0.000804875 0 0.00173437 0 0)
(0.0158053 -0.000463656 0 0.00117577 0 0)
(0.0154772 -0.000326196 0 0.00100201 0 0)
(0.0157959 -0.000334596 0 0.000915624 0 0)
(0.0162007 -0.000351406 0 0.000860231 0 0)
(0.0169531 -0.00030385 0 0.000821667 0 0)
(0.0183155 -0.000190503 0 0.000797737 0 0)
(0.0204189 -1.91538e-05 0 0.000786326 0 0)
(0.0233175 0.000215909 0 0.000784992 0 0)
(0.0270094 0.00052398 0 0.000792578 0 0)
(0.0315029 0.000908818 0 0.000808679 0 0)
(0.0368496 0.00136919 0 0.00083356 0 0)
(0.0431608 0.00190059 0 0.00086656 0 0)
(0.05051 0.00249893 0 0.000904756 0 0)
(0.0590692 0.00315947 0 0.000954688 0 0)
(0.0688769 0.00388043 0 0.00101102 0 0)
(0.0799714 0.00466338 0 0.00106485 0 0)
(0.0325201 -0.00102938 0 0.00253001 0 0)
(0.01703 -0.00040029 0 0.00130478 0 0)
(0.0159941 -0.000300647 0 0.000997197 0 0)
(0.0145068 -0.000224702 0 0.000855204 0 0)
(0.0139088 -0.000140107 0 0.000760241 0 0)
(0.014123 -4.28813e-05 0 0.000693195 0 0)
(0.0150808 5.08699e-05 0 0.000641576 0 0)
(0.0166366 0.000124692 0 0.000599165 0 0)
(0.0188033 0.000186041 0 0.000564047 0 0)
(0.0217757 0.000258661 0 0.000535041 0 0)
(0.0257824 0.00036355 0 0.00051088 0 0)
(0.0310279 0.00051001 0 0.000490326 0 0)
(0.0376806 0.000695359 0 0.000472752 0 0)
(0.0458872 0.000911555 0 0.000457637 0 0)
(0.0557457 0.00115457 0 0.000445988 0 0)
(0.0673907 0.00142436 0 0.000442952 0 0)
(0.0808646 0.00172139 0 0.000441471 0 0)
(0.0962039 0.00205971 0 0.000434076 0 0)
(0.0196041 -0.0422316 4.56432e-22 0.100799 -9.48143e-22 1.23695e-37)
(0.142737 -0.0877466 -1.12064e-21 0.0598792 4.6109e-22 1.2196e-37)
(0.343622 -0.102162 0 0.0430834 0 0)
(0.567053 -0.0851661 0 0.0431477 0 0)
(0.741643 -0.0530318 0 0.0526604 0 0)
(0.885427 -0.0353912 7.78286e-22 0.0701307 5.32639e-22 1.14874e-37)
(1.0132 -0.0419276 0 0.090764 0 0)
(1.17731 -0.0776923 0 0.107027 0 0)
(1.42313 -0.133524 0 0.118791 0 0)
(1.77982 -0.199249 0 0.125674 0 0)
(2.26392 -0.264704 1.31566e-21 0.127577 -2.0598e-22 1.06389e-37)
(2.87199 -0.313548 0 0.117508 0 0)
(3.56399 -0.308683 0 0.0924753 0 0)
(4.26085 -0.287037 0 0.0826853 0 0)
(4.96136 -0.256076 0 0.075133 0 0)
(5.6049 -0.19351 1.5881e-21 0.0609473 2.38328e-22 9.83304e-38)
(6.1598 -0.146498 0 0.064209 0 0)
(6.67625 -0.115646 0 0.0755195 0 0)
(7.15464 -0.084777 0 0.0906124 0 0)
(7.60765 -0.0575037 0 0.108683 0 0)
(8.0248 -0.0462964 0 0.108011 0 0)
(8.42694 -0.0689189 0 0.122366 0 0)
(8.86832 -0.0835474 0 0.133144 0 0)
(9.27863 -0.100585 -3.24646e-21 0.14117 7.43612e-22 8.63079e-38)
(9.73061 -0.14359 4.27187e-21 0.152333 -7.94886e-22 8.48786e-38)
(10.2058 -0.194053 -5.31542e-21 0.194684 7.08016e-22 8.34651e-38)
(10.7836 -0.276626 -6.3264e-21 0.257894 5.71112e-22 8.20674e-38)
(11.4644 -0.394001 0 0.292614 0 0)
(12.2571 -0.511143 0 0.305469 0 0)
(13.0998 -0.538815 9.35818e-21 0.273045 -3.9256e-22 7.79676e-38)
(13.9518 -0.500129 1.03641e-20 0.245921 -5.96364e-22 7.66321e-38)
(14.8133 -0.513463 0 0.249486 0 0)
(15.7481 -0.552874 0 0.252035 0 0)
(16.7651 -0.596291 1.34586e-20 0.260745 -5.63875e-22 7.27243e-38)
(17.8304 -0.61296 0 0.26563 0 0)
(18.9014 -0.63325 0 0.279256 0 0)
(19.9643 -0.674987 -1.61311e-20 0.309058 4.16788e-22 6.89636e-38)
(21.0283 -0.719897 0 0.357743 0 0)
(22.1401 -0.709857 -1.77121e-20 0.375722 3.81048e-22 6.65373e-38)
(23.2451 -0.645192 -3.69814e-20 0.346433 9.89976e-22 2.61392e-37)
(24.2473 -0.556144 0 0.291564 0 0)
(25.0062 -0.43272 0 0.258759 0 0)
(25.4449 -0.319833 0 0.249892 0 0)
(25.5921 -0.269592 0 0.232142 0 0)
(25.9684 -0.394467 0 0.247784 0 0)
(26.3123 -0.39392 -4.52673e-20 0.316129 8.49008e-22 2.34176e-37)
(26.5925 -0.540859 -4.60991e-20 0.286904 6.38461e-22 2.29858e-37)
(26.7199 -0.626546 -4.67597e-20 0.370643 6.21825e-22 2.25601e-37)
(26.9253 -0.335896 0 0.213096 0 0)
(26.7767 -0.134876 4.80995e-20 0.280617 -9.98856e-22 2.17269e-37)
(26.9005 -0.274115 0 0.240338 0 0)
(27.323 -0.3557 -4.91255e-20 0.212506 8.08402e-22 2.09178e-37)
(27.8827 -0.401731 -4.9599e-20 0.190536 7.42565e-22 2.05222e-37)
(28.4776 -0.399725 0 0.174158 0 0)
(29.0665 -0.400274 0 0.161218 0 0)
(29.6272 -0.393846 0 0.151894 0 0)
(30.0771 -0.399992 -5.15893e-20 0.145539 4.76231e-22 1.8999e-37)
(30.4559 -0.330539 0 0.155246 0 0)
(30.6568 -0.240257 0 0.192067 0 0)
(30.9453 -0.284472 0 0.175384 0 0)
(31.4497 -0.343764 0 0.144458 0 0)
(32.0894 -0.387278 0 0.11514 0 0)
(32.7704 -0.35723 0 0.0866178 0 0)
(33.3365 -0.256234 0 0.0726935 0 0)
(33.7021 -0.121036 0 0.0808565 0 0)
(33.8347 -0.0209348 5.18791e-20 0.0894195 -1.97297e-22 1.58982e-37)
(33.7788 0.0203794 0 0.0931937 0 0)
(33.6343 -0.0163313 0 0.092634 0 0)
(33.5592 -0.0635733 -5.03882e-20 0.110979 2.9581e-22 1.496e-37)
(33.4935 -0.103106 -4.965e-20 0.136362 2.60459e-22 1.46572e-37)
(33.5456 -0.163424 0 0.13161 0 0)
(33.4691 -0.148748 4.77284e-20 0.126929 -2.45451e-22 1.40663e-37)
(33.0696 -0.0201917 -4.64616e-20 0.105413 9.27184e-23 1.37782e-37)
(32.4407 0.147529 0 0.131336 0 0)
(31.5588 0.123024 4.34667e-20 0.138599 1.82261e-22 1.32162e-37)
(30.7909 0.0183689 0 0.155836 0 0)
(30.3402 -0.0992438 0 0.20262 0 0)
(30.2397 -0.174141 -3.90793e-20 0.205844 -2.96948e-22 1.24076e-37)
(30.3621 -0.207638 0 0.178486 0 0)
(30.5395 -0.227243 3.76155e-20 0.140879 2.23988e-24 1.18911e-37)
(30.7458 -0.189342 0 0.113962 0 0)
(30.8431 -0.0941433 -3.69455e-20 0.0990005 7.52639e-23 1.13922e-37)
(30.7659 0.00312592 -3.68569e-20 0.098035 1.3365e-22 1.11493e-37)
(30.4505 0.012627 -3.68117e-20 0.0922238 1.51933e-22 1.09105e-37)
(30.374 -0.0622945 -7.34972e-20 0.0798178 2.7557e-22 4.27038e-37)
(30.4278 -0.0951455 7.32045e-20 0.0783949 -2.0184e-22 4.17818e-37)
(30.5408 -0.0610477 0 0.112624 0 0)
(30.2119 -0.228026 0 0.191459 0 0)
(30.132 -0.0897939 0 0.155689 0 0)
(29.8544 -0.235168 7.24146e-20 0.29143 -1.35278e-22 3.82521e-37)
(30.4127 -0.391346 7.29071e-20 0.217552 -4.20574e-22 3.74082e-37)
(31.382 -0.458406 -7.45071e-20 0.169745 8.40324e-22 3.65795e-37)
(32.7193 -0.517358 0 0.146124 0 0)
(34.282 -0.571461 8.01873e-20 0.127836 -1.28796e-21 3.49666e-37)
(36.0175 -0.591099 8.34606e-20 0.104041 -1.28162e-21 3.41819e-37)
(37.7852 -0.5877 8.6475e-20 0.0798804 -1.18749e-21 3.34113e-37)
(39.4973 -0.519326 0 0.0658562 0 0)
(40.9239 -0.407087 0 0.0569906 0 0)
(41.9773 -0.278274 0 0.0493633 0 0)
(42.5745 -0.150225 9.07137e-20 0.0444311 -3.13768e-22 3.04646e-37)
(42.7061 -0.0415955 0 0.0441059 0 0)
(42.4259 0.0528666 0 0.0484007 0 0)
(41.8422 0.120904 -8.29306e-20 0.0534211 -2.52178e-22 2.83909e-37)
(41.1177 0.146379 0 0.0514794 0 0)
(40.3411 0.15416 0 0.0461578 0 0)
(39.5221 0.157404 -7.05899e-20 0.0422178 -2.47229e-22 2.64293e-37)
(38.6873 0.155161 0 0.0392222 0 0)
(37.8661 0.147879 0 0.0366584 0 0)
(37.0823 0.137992 5.98825e-20 0.0340569 8.36089e-23 2.45764e-37)
(36.3454 0.129197 5.72077e-20 0.0311648 2.64073e-23 2.39821e-37)
(35.6466 0.125593 0 0.0278876 0 0)
(34.9555 0.13087 -5.30615e-20 0.0243005 3.5313e-23 2.28273e-37)
(34.2226 0.147316 0 0.0206402 0 0)
(33.3855 0.175335 4.9476e-20 0.0172372 2.03409e-23 2.17163e-37)
(32.3817 0.213411 0 0.01443 0 0)
(31.1703 0.25838 4.4889e-20 0.0124756 1.67474e-22 2.06471e-37)
(29.7177 0.305487 4.19024e-20 0.0114879 2.47981e-22 2.01277e-37)
(28.0259 0.349224 0 0.0114107 0 0)
(26.1232 0.384528 0 0.0120613 0 0)
(24.0512 0.407897 0 0.013161 0 0)
(21.8798 0.416454 0 0.0144095 0 0)
(19.6874 0.409134 0 0.0154707 0 0)
(17.5607 0.386647 0 0.0160383 0 0)
(15.5768 0.352065 0 0.0159029 0 0)
(13.787 0.310445 1.47501e-20 0.0150755 1.82789e-22 1.63198e-37)
(12.2096 0.267764 -1.2907e-20 0.013832 -1.41513e-22 1.58853e-37)
(10.8419 0.228 0 0.0124285 0 0)
(9.6654 0.19386 0 0.0111128 0 0)
(8.65185 0.165366 0 0.00992113 0 0)
(7.77288 0.142612 0 0.00898011 0 0)
(7.00625 0.12474 -1.38494e-20 0.00828305 -1.23637e-22 5.53589e-37)
(6.33457 0.109525 0 0.00763188 0 0)
(5.74221 0.0958726 1.01506e-20 0.00704151 9.08392e-23 5.23129e-37)
(5.21877 0.0843981 -8.43776e-21 0.00653884 -7.20266e-23 5.08365e-37)
(4.75594 0.0746928 0 0.00612771 0 0)
(4.34497 0.0665015 0 0.00581674 0 0)
(3.97843 0.0595809 0 0.00562013 0 0)
(3.65137 0.0535316 2.90378e-21 0.00553503 -2.67845e-23 4.52317e-37)
(3.36111 0.0477567 1.98238e-21 0.00552854 -6.02574e-23 4.39032e-37)
(3.10744 0.0419762 0 0.00558027 0 0)
(2.89249 0.035969 8.42436e-22 0.00565407 -1.28148e-22 4.13299e-37)
(2.71869 0.0298538 6.04603e-22 0.00572734 -1.5492e-22 4.00842e-37)
(2.58742 0.0238629 -5.42023e-22 0.00578079 1.75171e-22 3.88652e-37)
(2.49788 0.0184652 0 0.00582531 0 0)
(2.44671 0.0140735 0 0.00588928 0 0)
(2.42777 0.0109234 -1.09731e-21 0.0059984 2.22272e-22 3.53641e-37)
(2.43332 0.00914299 0 0.00619435 0 0)
(2.45515 0.00869631 0 0.00651724 0 0)
(2.48542 0.00946785 0 0.00701699 0 0)
(2.51654 0.0114136 0 0.00775775 0 0)
(2.54228 0.0144945 2.91296e-21 0.00877729 -1.95086e-22 3.0024e-37)
(2.55729 0.0186168 3.2911e-21 0.0100252 -1.92943e-22 2.90267e-37)
(2.55813 0.0239213 0 0.0114541 0 0)
(2.54201 0.0305036 4.12153e-21 0.0131529 -1.53348e-22 2.70998e-37)
(2.50806 0.038098 0 0.0153113 0 0)
(2.45716 0.046439 0 0.0176669 0 0)
(2.39082 0.0552612 5.28312e-21 0.0196897 -4.53651e-23 2.43734e-37)
(2.3121 0.0623888 0 0.0213543 0 0)
(2.23214 0.064642 5.89449e-21 0.0217227 -1.35164e-24 2.2661e-37)
(2.1582 0.059035 0 0.0199202 0 0)