/*--------------------------------*- C++ -*----------------------------------*\
| =========                 |                                                 |
| \\      /  F ield         | OpenFOAM: The Open Source CFD Toolbox           |
|  \\    /   O peration     | Version:  2112                                  |
|   \\  /    A nd           | Website:  www.openfoam.com                      |
|    \\/     M anipulation  |                                                 |
\*---------------------------------------------------------------------------*/
FoamFile
{
    version     2.0;
    format      ascii;
    arch        "LSB;label=32;scalar=64";
    class       volScalarField;
    location    "0.27";
    object      turbulenceProperties:L;
}
// * * * * * * * * * * * * * * * * * * * * * * * * * * * * * * * * * * * * * //

dimensions      [0 1 0 0 0 0 0];

internalField   nonuniform List<scalar> 
12225
(
9.29537e-05
0.000104355
0.000110332
0.000112988
0.000114207
0.000114389
0.000114244
0.000113867
0.000113251
0.000112535
0.000111793
0.000111015
0.000110269
0.000109519
0.000108811
0.000108168
0.000107462
0.000107058
0.00167441
0.000631464
0.000400652
0.000309268
0.000263289
0.000237441
0.000221881
0.000211941
0.000205511
0.00020143
0.000198849
0.000197457
0.000196935
0.000196853
0.000197436
0.000198644
0.000199306
0.000200397
0.0177881
0.00637173
0.0039513
0.00252205
0.00179926
0.00136836
0.00113362
0.000961367
0.000857361
0.000769517
0.000714501
0.000662291
0.000631827
0.00059843
0.000573647
0.000554254
0.000550352
0.000518995
0.0587348
0.0260899
0.0177096
0.0120175
0.00911329
0.00692807
0.00575428
0.00475645
0.00419437
0.00365148
0.00332687
0.00299927
0.00281509
0.00259209
0.00243072
0.0023185
0.00227559
0.00206771
0.076539
0.0562372
0.0404083
0.0303932
0.0249007
0.0200519
0.0172392
0.0146337
0.0131113
0.0115463
0.0105842
0.00959111
0.0090093
0.00827275
0.00782498
0.00742737
0.00719931
0.00657194
0.0793953
0.0739301
0.0632859
0.0509363
0.0439747
0.0377176
0.0336167
0.0296602
0.0271106
0.0244837
0.0227291
0.0209383
0.019777
0.0183802
0.0175299
0.0167046
0.0160722
0.0149694
0.0797635
0.078699
0.075347
0.0679958
0.061536
0.054916
0.0502027
0.0458695
0.042848
0.0397069
0.0373936
0.0350764
0.0334089
0.0315295
0.0303074
0.0290259
0.0280191
0.0265116
0.0798164
0.0796162
0.0788706
0.0767017
0.0734959
0.0686923
0.0644886
0.0603694
0.0571032
0.0539913
0.0515987
0.0492396
0.0473695
0.0453444
0.0439363
0.0423368
0.041172
0.0395061
0.079827
0.0797862
0.0796444
0.0791573
0.0782929
0.0764511
0.0742064
0.0713975
0.0686231
0.0658787
0.0635606
0.0613199
0.0595192
0.0576832
0.0563311
0.054717
0.0535931
0.0520034
0.0798299
0.079824
0.0798005
0.0796905
0.0795235
0.0790323
0.0783442
0.0772364
0.0758899
0.0742022
0.0724969
0.0706676
0.069103
0.0674938
0.0662315
0.0648289
0.0638764
0.0625448
0.0798327
0.0798353
0.0798316
0.0798123
0.0797694
0.0796625
0.0795041
0.0791908
0.0787923
0.0781627
0.0774482
0.0765004
0.0755542
0.0744309
0.0734332
0.0723188
0.0714855
0.0704333
0.0798325
0.0798402
0.079841
0.0798389
0.0798246
0.0797956
0.0797527
0.0796572
0.0795499
0.0793429
0.079112
0.0787485
0.0783623
0.0778252
0.0772969
0.076603
0.0760128
0.0752271
0.0798326
0.0798406
0.0798473
0.0798481
0.0798446
0.0798357
0.0798221
0.0797891
0.0797608
0.0796955
0.079634
0.0795191
0.0794064
0.079218
0.0790391
0.0787502
0.0785004
0.078087
0.0798328
0.0798406
0.0798488
0.0798541
0.0798547
0.0798531
0.0798489
0.0798349
0.0798251
0.0798026
0.0797858
0.0797516
0.0797244
0.0796717
0.0796289
0.0795481
0.079483
0.0793609
0.0798328
0.0798413
0.0798484
0.0798567
0.0798604
0.0798617
0.0798617
0.0798572
0.0798522
0.0798431
0.0798359
0.079824
0.079815
0.0798002
0.0797889
0.0797696
0.0797548
0.0797286
0.079833
0.0798413
0.0798494
0.0798559
0.0798637
0.0798666
0.0798686
0.0798692
0.0798676
0.0798643
0.0798609
0.0798563
0.0798523
0.0798473
0.0798435
0.0798383
0.0798349
0.0798292
0.079833
0.0798416
0.0798496
0.0798567
0.0798632
0.0798698
0.0798726
0.079875
0.0798765
0.0798764
0.0798757
0.0798745
0.0798735
0.0798722
0.0798714
0.0798705
0.0798705
0.0798697
0.079833
0.0798417
0.0798497
0.0798571
0.0798634
0.07987
0.0798751
0.0798779
0.0798805
0.0798825
0.0798836
0.0798843
0.079885
0.0798858
0.0798867
0.0798878
0.0798891
0.0798909
0.079833
0.0798417
0.0798496
0.0798571
0.0798633
0.07987
0.0798751
0.0798787
0.0798814
0.0798838
0.0798854
0.0798867
0.0798879
0.0798891
0.0798904
0.0798917
0.0798934
0.0798955
0.079833
0.0798414
0.0798494
0.0798565
0.079863
0.0798692
0.079873
0.0798754
0.0798771
0.0798775
0.0798765
0.0798749
0.0798718
0.0798684
0.0798628
0.079857
0.0798481
0.0798401
0.0798331
0.0798409
0.0798493
0.0798548
0.0798616
0.0798626
0.0798619
0.0798583
0.0798484
0.0798346
0.0798132
0.0797872
0.0797502
0.0797077
0.0796501
0.0795894
0.0795138
0.079445
0.0798334
0.0798401
0.079847
0.0798453
0.0798364
0.0798169
0.0797761
0.0797114
0.0796172
0.0794958
0.0793329
0.0791419
0.0789014
0.0786455
0.0783532
0.0780694
0.0777519
0.0774683
0.0798353
0.0798316
0.0798133
0.0797642
0.0796324
0.0794124
0.0790618
0.0786235
0.0780574
0.0773895
0.0766362
0.075857
0.0750214
0.0742186
0.0733975
0.0726329
0.0718166
0.0711157
0.0798264
0.0797694
0.079547
0.0790255
0.0780081
0.0766921
0.0750303
0.0733392
0.0714593
0.0696341
0.0677968
0.0661219
0.0644655
0.06297
0.0614572
0.0601402
0.0587634
0.0576463
0.0797833
0.0791698
0.077347
0.0741924
0.0700646
0.0663342
0.0623777
0.0590723
0.0557386
0.0530265
0.0503006
0.0480568
0.0458149
0.0439979
0.0421499
0.0406913
0.0391432
0.0379875
0.079243
0.0742449
0.0652893
0.057206
0.0498805
0.0447743
0.0397173
0.0361086
0.0325182
0.0299826
0.0274281
0.0256268
0.0237619
0.0224555
0.0210521
0.0200865
0.0189968
0.0182728
0.0726503
0.050246
0.0365452
0.0282296
0.0226333
0.0189742
0.0156444
0.0135439
0.011591
0.0103818
0.00917937
0.00843346
0.00764026
0.0071508
0.00659688
0.00625919
0.00585391
0.00561139
0.034238
0.0148927
0.00935779
0.00653303
0.00501264
0.00392667
0.00310147
0.00258741
0.00218672
0.00193602
0.00171698
0.00157651
0.001442
0.00135565
0.001266
0.001209
0.00114556
0.0011057
0.00370118
0.00142298
0.000882839
0.000641751
0.00051121
0.000436126
0.000388637
0.000357682
0.000335533
0.0003205
0.000308677
0.000300654
0.000293908
0.0002896
0.0002856
0.000283457
0.000281055
0.000280282
0.000130364
0.0001428
0.000149987
0.000154211
0.000156553
0.000157927
0.000158603
0.000158979
0.000158998
0.000158932
0.00015877
0.000158504
0.00015819
0.000157848
0.000157485
0.000157117
0.000156743
0.000156374
5.04808e-06
4.58679e-05
5.89604e-05
6.50445e-05
6.73986e-05
7.09157e-05
7.88535e-05
9.21308e-05
0.00011067
0.000129153
0.000145411
0.000159613
0.000171718
0.000181486
0.00018972
0.000196543
0.000201923
0.000206085
0.000209304
0.000211142
0.000212761
0.000212509
0.000211445
0.0002089
0.000203689
0.000195277
0.000182536
0.000164053
0.000138815
0.000107256
7.24848e-05
4.84136e-05
4.67496e-05
5.20496e-05
5.4288e-05
5.31962e-05
4.97899e-05
4.86344e-05
4.88985e-05
4.94198e-05
4.81895e-05
4.57954e-05
4.47221e-05
4.32876e-05
4.18671e-05
3.94863e-05
3.75086e-05
3.40884e-05
3.14209e-05
3.19243e-05
3.77282e-05
4.50656e-05
6.62355e-05
9.5158e-05
0.000175071
0.000251722
0.000281303
0.000297896
0.000310418
0.000318597
0.000325667
0.000330977
0.000335815
0.000339941
0.000343837
0.000346938
0.00034983
0.00035229
0.000354558
0.000356578
0.000358432
0.000360128
0.000361687
0.000363132
0.000364467
0.000365709
0.000366863
0.000367937
0.000368939
0.000369869
0.000370737
0.00037154
0.00037229
0.00037298
0.000373621
0.000374209
0.00037475
0.000375244
0.000375693
0.000376098
0.000376462
0.000376784
0.000377067
0.00037731
0.000377515
0.000377684
0.000377816
0.000377913
0.000377975
0.000378004
0.000378001
0.000377965
0.000377898
0.000377801
0.000377674
0.000377518
0.000377335
0.000377125
0.000376891
0.000376634
0.000376358
0.000376066
0.000375747
0.000375408
0.000375045
0.000374661
0.000374255
0.000373828
0.000373381
0.000372913
0.000372425
0.000371918
0.00037139
0.000370844
0.000370283
0.000369705
0.000369098
0.000368473
0.000367831
0.000367171
0.00036649
0.000365791
0.000365071
0.000364331
0.000363571
0.00036279
0.000361989
0.000361167
0.000360324
0.000359461
0.000358577
0.000357672
0.000356747
0.000355801
0.000354834
0.000353847
0.00035284
0.000351813
0.000350766
0.000349701
0.000348616
0.000347515
0.000346395
0.000345259
0.000344108
0.000342941
0.000341761
0.000340568
0.000339363
0.000338147
0.000336922
0.000335688
0.000334447
0.000333199
0.000331947
0.000330691
0.000329433
0.000328174
0.000326916
0.000325662
0.00032442
0.000323225
0.000322077
0.000320989
0.000319955
0.000319007
0.000318189
0.000317513
0.000316656
0.000315523
1.00805e-05
3.38417e-05
7.51489e-05
0.000110336
0.000160376
0.000207322
0.00030047
0.000422476
0.000570809
0.000736626
0.00091137
0.00108065
0.0012495
0.00139257
0.00151146
0.00159224
0.00163502
0.00164319
0.00161755
0.00154247
0.0013933
0.00116556
0.000936597
0.00074049
0.000585675
0.000468773
0.000381673
0.00031619
0.000262819
0.00022212
0.000186678
0.000151251
0.000125673
0.000118141
0.000127552
0.000139621
0.000146271
0.000153698
0.00016406
0.000192446
0.000243051
0.000315057
0.000412748
0.000474468
0.000508362
0.000506011
0.000394953
0.000275329
0.000216529
0.000198709
0.000189448
0.00019136
0.000242373
0.000272442
0.000322671
0.000387958
0.00045309
0.000509079
0.000577305
0.000641577
0.000711408
0.000780729
0.000847329
0.000915604
0.000976213
0.00103941
0.00109344
0.00115017
0.00119881
0.00124939
0.00129421
0.00133966
0.00138186
0.00142362
0.00146399
0.00150332
0.00154237
0.00158019
0.00161827
0.00165519
0.00169254
0.00172896
0.00176573
0.00180185
0.00183815
0.00187403
0.00190991
0.00194552
0.001981
0.00201626
0.00205128
0.0020861
0.00212062
0.00215489
0.00218857
0.0022217
0.00225423
0.0022861
0.00231727
0.00234764
0.00237718
0.00240577
0.0024334
0.00246
0.00248563
0.00251013
0.00253321
0.00255467
0.00257425
0.00259125
0.00260471
0.0026146
0.00262613
0.00263603
0.00264632
0.00265588
0.00266526
0.00267431
0.00268299
0.00269148
0.00269959
0.00270754
0.00271516
0.00272263
0.00272982
0.00273688
0.00274373
0.00275039
0.00275686
0.00276317
0.00276932
0.00277532
0.00278122
0.00278702
0.00279262
0.00279798
0.00280315
0.00280809
0.00281281
0.0028173
0.00282156
0.00282559
0.00282938
0.00283293
0.00283625
0.00283933
0.00284218
0.00284481
0.00284721
0.00284941
0.00285141
0.00285322
0.00285487
0.00285637
0.00285774
0.00285901
0.0028602
0.00286133
0.00286246
0.00286359
0.00286476
0.00286601
0.00286737
0.00286886
0.00287051
0.00287235
0.00287439
0.00287666
0.00287916
0.00288192
0.00288492
0.00288835
0.00289249
0.0028979
0.00290542
0.00291604
0.00293164
0.00295267
0.0029738
0.00296798
8.53245e-06
2.00366e-05
5.13616e-05
8.34505e-05
0.000130537
0.000216024
0.000364941
0.000584277
0.000862689
0.00123438
0.00166895
0.00215594
0.00260466
0.00298227
0.00327454
0.00349671
0.00363274
0.00371595
0.00373832
0.00368172
0.00355986
0.00334795
0.00300298
0.00254409
0.00203145
0.00153944
0.00112531
0.000820918
0.000617897
0.000480274
0.000389136
0.000326134
0.000279102
0.000233438
0.00020533
0.000195835
0.000193397
0.000200364
0.000218786
0.000263046
0.000340561
0.000461154
0.000624974
0.000714816
0.000754266
0.000745147
0.000633381
0.000459813
0.000321675
0.00031651
0.000326426
0.000351014
0.000439294
0.000538659
0.000662181
0.000832633
0.00099834
0.0012138
0.00144623
0.00169964
0.00195463
0.00220519
0.00241759
0.002635
0.00280549
0.00298415
0.00312493
0.00327216
0.00339192
0.00351491
0.00362161
0.00372683
0.00382447
0.00391777
0.00400821
0.00409378
0.00417826
0.00425856
0.00433822
0.00441451
0.00449013
0.00456315
0.00463528
0.00470538
0.00477435
0.00484166
0.00490764
0.00497211
0.00503513
0.00509667
0.00515665
0.00521509
0.00527187
0.00532673
0.00537999
0.00543169
0.0054818
0.0055304
0.00557751
0.00562291
0.00566656
0.0057079
0.00574752
0.005785
0.00582057
0.00585391
0.00588508
0.00591392
0.00594044
0.00596459
0.00598658
0.00600767
0.00602813
0.00604732
0.00606587
0.00608337
0.00610007
0.00611594
0.00613096
0.00614529
0.0061588
0.00617172
0.00618391
0.00619556
0.00620656
0.00621706
0.00622698
0.00623638
0.00624525
0.00625361
0.00626147
0.00626883
0.00627568
0.00628199
0.00628773
0.00629288
0.00629746
0.00630143
0.00630481
0.00630757
0.00630973
0.00631126
0.00631217
0.00631247
0.00631215
0.00631123
0.00630971
0.0063076
0.00630494
0.00630174
0.00629802
0.00629383
0.00628919
0.00628415
0.00627874
0.00627303
0.00626707
0.00626092
0.00625464
0.00624828
0.00624192
0.00623561
0.00622941
0.00622337
0.00621755
0.00621199
0.00620673
0.00620179
0.00619723
0.00619313
0.00618963
0.0061871
0.0061861
0.00618759
0.00619294
0.00620399
0.00622303
0.00624909
0.00627232
0.00625026
6.77089e-06
1.87701e-05
4.99473e-05
9.70989e-05
0.000182644
0.000350454
0.000661966
0.00116693
0.00191533
0.00269354
0.00337454
0.00391513
0.00431828
0.00461276
0.00482092
0.00496683
0.00505937
0.00510231
0.0050979
0.00502838
0.00491974
0.00475445
0.00450351
0.00414822
0.00367328
0.00308998
0.00244668
0.00183954
0.00135874
0.00101531
0.000785143
0.000633917
0.00053427
0.000459001
0.000392411
0.000336195
0.000307581
0.000298502
0.000325043
0.00037717
0.000481314
0.000624243
0.000742046
0.00078688
0.000874514
0.000934226
0.000614258
0.000401758
0.000378197
0.000425334
0.000518166
0.000685653
0.000871815
0.00114268
0.00143399
0.00185004
0.00227518
0.00274342
0.00317073
0.00356839
0.00391187
0.00421694
0.00448713
0.00473292
0.00494439
0.00514418
0.0053161
0.00548203
0.00562807
0.00576923
0.00589833
0.00602169
0.00613864
0.00624965
0.00635711
0.00645958
0.0065587
0.00665462
0.00674801
0.00683882
0.00692667
0.00701216
0.00709534
0.00717625
0.00725499
0.00733155
0.00740597
0.00747825
0.00754838
0.00761636
0.00768217
0.00774581
0.00780725
0.0078665
0.00792359
0.00797852
0.00803128
0.00808186
0.00813023
0.00817635
0.00822023
0.00826186
0.00830136
0.00833862
0.00837379
0.00840679
0.00843776
0.00846674
0.00849386
0.00851926
0.0085431
0.0085658
0.00858718
0.00860729
0.00862619
0.00864387
0.0086604
0.00867581
0.00869014
0.00870347
0.00871581
0.00872726
0.00873781
0.00874758
0.00875654
0.00876477
0.00877226
0.00877905
0.00878514
0.00879055
0.00879529
0.00879935
0.00880273
0.00880541
0.00880737
0.00880863
0.00880917
0.00880898
0.00880807
0.00880642
0.00880405
0.00880094
0.0087971
0.00879253
0.00878724
0.00878124
0.00877454
0.00876715
0.0087591
0.00875041
0.00874111
0.00873123
0.0087208
0.00870987
0.00869848
0.00868667
0.0086745
0.00866204
0.00864933
0.00863644
0.00862342
0.00861033
0.00859722
0.00858416
0.00857118
0.00855833
0.00854565
0.00853318
0.008521
0.00850922
0.00849805
0.00848786
0.00847922
0.00847302
0.00847051
0.0084732
0.00848249
0.00849665
0.008507
0.00848156
7.06827e-06
2.54717e-05
6.35659e-05
0.000149074
0.000333743
0.000790417
0.00160539
0.00254914
0.0033982
0.00406103
0.00454864
0.00490755
0.00517618
0.00537072
0.00551734
0.00562272
0.00567951
0.00569883
0.00568051
0.00560553
0.00549734
0.00534911
0.00514116
0.00485972
0.00448744
0.00400426
0.0034113
0.00275299
0.00214184
0.00165072
0.00129062
0.00104406
0.000878264
0.000759754
0.000669128
0.000593536
0.000529934
0.000500068
0.000527476
0.000611548
0.000735685
0.000776223
0.000784667
0.000778694
0.000751983
0.00060184
0.000488561
0.000465298
0.000538784
0.000766222
0.00103423
0.0013792
0.00182823
0.00236344
0.00290259
0.00347413
0.00400537
0.00448219
0.00493684
0.00531237
0.00566801
0.00596542
0.00624374
0.00648463
0.00670554
0.00690526
0.00708674
0.00725468
0.00740994
0.00755609
0.00769393
0.00782286
0.0079461
0.00806293
0.00817525
0.00828252
0.00838595
0.00848544
0.00858146
0.00867405
0.00876342
0.00884979
0.00893319
0.00901375
0.0090915
0.00916651
0.0092388
0.00930841
0.00937535
0.00943967
0.00950136
0.00956046
0.00961699
0.00967098
0.00972246
0.00977146
0.009818
0.00986211
0.00990384
0.00994322
0.00998031
0.0100152
0.0100478
0.0100784
0.0101069
0.0101335
0.0101581
0.0101809
0.010202
0.0102215
0.0102394
0.010256
0.0102711
0.010285
0.0102976
0.0103089
0.010319
0.0103281
0.010336
0.0103429
0.0103489
0.0103539
0.0103581
0.0103615
0.0103641
0.010366
0.0103672
0.0103677
0.0103676
0.0103668
0.0103653
0.0103633
0.0103606
0.0103573
0.0103533
0.0103488
0.0103436
0.0103378
0.0103313
0.0103242
0.0103165
0.0103082
0.0102993
0.0102897
0.0102795
0.0102687
0.0102573
0.0102453
0.0102327
0.0102195
0.0102058
0.0101915
0.0101767
0.0101615
0.0101457
0.0101295
0.0101128
0.0100958
0.0100784
0.0100608
0.0100428
0.0100246
0.0100061
0.00998751
0.00996871
0.00994978
0.00993073
0.00991159
0.00989243
0.00987334
0.00985447
0.00983611
0.00981867
0.00980277
0.00978923
0.00977905
0.00977284
0.00976939
0.00976351
0.00974014
5.9784e-06
2.7912e-05
9.51554e-05
0.000274933
0.000814404
0.00176393
0.00278342
0.00362811
0.00425732
0.00472815
0.00509185
0.00537628
0.00559388
0.00575631
0.00588086
0.00595737
0.00598868
0.00598234
0.00593909
0.00584504
0.00571666
0.00555183
0.00533314
0.00504658
0.00468886
0.004254
0.00373945
0.00317146
0.00261286
0.00212838
0.00174512
0.00145498
0.00124502
0.00108935
0.000955346
0.000858742
0.00077658
0.000729258
0.000734725
0.00079292
0.000761937
0.000729122
0.000694037
0.000673738
0.000621813
0.000575536
0.000569254
0.000713831
0.00107375
0.00150146
0.00205859
0.00262092
0.00325954
0.00387969
0.00449534
0.00503409
0.00557172
0.00600638
0.00643254
0.00678233
0.00711351
0.00739738
0.00765756
0.00789011
0.00810327
0.0083
0.00847746
0.00864332
0.00879711
0.00894136
0.00907675
0.00920434
0.00932542
0.00944019
0.00954966
0.00965394
0.00975366
0.00984896
0.00994017
0.0100275
0.010111
0.010191
0.0102675
0.0103407
0.0104106
0.0104773
0.0105408
0.0106012
0.0106586
0.010713
0.0107645
0.0108131
0.0108589
0.0109019
0.0109423
0.0109801
0.0110154
0.0110482
0.0110786
0.0111068
0.0111327
0.0111565
0.0111782
0.011198
0.011216
0.0112321
0.0112465
0.0112592
0.0112704
0.0112798
0.011288
0.0112951
0.011301
0.0113058
0.0113096
0.0113123
0.0113141
0.011315
0.0113151
0.0113143
0.0113128
0.0113105
0.0113076
0.011304
0.0112999
0.0112951
0.0112898
0.0112841
0.0112778
0.011271
0.0112637
0.011256
0.0112478
0.0112391
0.01123
0.0112205
0.0112105
0.0112
0.0111891
0.0111778
0.011166
0.0111538
0.011141
0.0111279
0.0111142
0.0111001
0.0110856
0.0110705
0.011055
0.011039
0.0110225
0.0110055
0.0109881
0.0109701
0.0109517
0.0109328
0.0109134
0.0108936
0.0108733
0.0108526
0.0108314
0.0108098
0.0107877
0.0107653
0.0107424
0.0107191
0.0106954
0.0106713
0.0106469
0.0106221
0.0105971
0.0105721
0.0105473
0.0105231
0.0105001
0.0104788
0.0104595
0.0104418
0.0104224
0.0104006
7.4291e-06
4.2354e-05
0.000163977
0.000616955
0.00157523
0.00265049
0.00352564
0.00418375
0.00469165
0.00509142
0.0054096
0.00566089
0.00584939
0.00599589
0.00609417
0.00614316
0.00615003
0.0061146
0.00603392
0.00590672
0.00574703
0.00554314
0.00528392
0.00497182
0.00460097
0.00417029
0.00370346
0.00323574
0.00279257
0.00239678
0.00205698
0.00178113
0.00155314
0.00137877
0.00122577
0.0010311
0.000893699
0.000825815
0.000774188
0.000747685
0.000700592
0.000680015
0.000663265
0.000657538
0.000664405
0.000716938
0.000984494
0.00146734
0.00210651
0.00271567
0.00339049
0.00401806
0.00472163
0.00531088
0.00590618
0.00639411
0.00687957
0.00727873
0.00765612
0.00798239
0.00827712
0.00854533
0.00879049
0.00900928
0.00921112
0.00939581
0.00956563
0.0097236
0.0098704
0.0100077
0.0101363
0.0102573
0.0103713
0.0104789
0.0105807
0.0106769
0.0107681
0.0108544
0.0109361
0.0110135
0.0110866
0.0111557
0.0112208
0.0112822
0.0113399
0.0113941
0.0114448
0.0114922
0.0115363
0.0115771
0.0116145
0.011649
0.0116806
0.0117094
0.0117355
0.011759
0.01178
0.0117987
0.0118151
0.0118293
0.0118417
0.0118522
0.0118612
0.0118683
0.0118736
0.0118773
0.0118794
0.0118802
0.0118796
0.0118779
0.0118751
0.0118715
0.0118669
0.0118616
0.0118554
0.0118486
0.0118411
0.011833
0.0118243
0.011815
0.0118053
0.0117951
0.0117845
0.0117735
0.0117621
0.0117503
0.0117383
0.0117259
0.0117132
0.0117003
0.0116871
0.0116737
0.01166
0.0116461
0.011632
0.0116176
0.0116031
0.0115883
0.0115733
0.0115582
0.0115428
0.0115272
0.0115113
0.0114953
0.0114789
0.0114624
0.0114456
0.0114284
0.011411
0.0113933
0.0113753
0.0113569
0.0113381
0.0113189
0.0112993
0.0112792
0.0112587
0.0112376
0.0112161
0.011194
0.0111714
0.0111481
0.0111243
0.0110998
0.0110747
0.0110489
0.0110224
0.0109952
0.0109673
0.0109386
0.0109093
0.0108793
0.0108489
0.0108181
0.0107873
0.0107567
0.0107263
0.0106961
0.0106627
0.0106409
2.281e-05
7.16914e-05
0.000305278
0.00110439
0.002232
0.00319799
0.00391484
0.00447637
0.00493243
0.00529828
0.00558355
0.00579925
0.0059608
0.00607803
0.00614335
0.00616618
0.00614697
0.0060849
0.00597918
0.00582948
0.00563762
0.00539825
0.00510131
0.00474896
0.00435389
0.00394191
0.00354041
0.00316747
0.00282622
0.00252066
0.00225562
0.00200932
0.00177434
0.00149966
0.00120792
0.000991509
0.000821542
0.000768585
0.000745256
0.000692175
0.000690009
0.000704279
0.000728834
0.000800661
0.000978987
0.00135505
0.00199812
0.00269218
0.00336184
0.0040143
0.00474111
0.00535515
0.00601235
0.006553
0.00708397
0.00752704
0.0079497
0.00831447
0.0086451
0.00894775
0.00922156
0.00946773
0.00969241
0.00989631
0.010084
0.0102562
0.0104152
0.0105627
0.0106996
0.0108271
0.0109461
0.0110573
0.0111613
0.0112586
0.0113497
0.0114348
0.0115144
0.0115887
0.0116578
0.0117222
0.011782
0.0118373
0.0118884
0.011935
0.0119776
0.0120164
0.0120517
0.0120836
0.0121123
0.0121382
0.0121619
0.0121822
0.0121993
0.0122133
0.0122244
0.0122327
0.0122383
0.0122415
0.0122423
0.0122408
0.0122374
0.0122322
0.0122253
0.0122171
0.0122077
0.0121972
0.0121857
0.0121734
0.0121604
0.0121468
0.0121326
0.0121177
0.0121023
0.0120865
0.0120702
0.0120537
0.0120368
0.0120197
0.0120025
0.011985
0.0119674
0.0119497
0.0119319
0.011914
0.011896
0.0118779
0.0118598
0.0118416
0.0118233
0.0118051
0.0117868
0.0117686
0.0117503
0.0117321
0.0117139
0.0116957
0.0116776
0.0116595
0.0116415
0.0116236
0.0116056
0.0115877
0.0115699
0.011552
0.0115341
0.0115162
0.0114983
0.0114803
0.0114622
0.011444
0.0114256
0.011407
0.0113882
0.0113691
0.0113496
0.0113298
0.0113095
0.0112887
0.0112674
0.0112456
0.0112231
0.0111999
0.0111759
0.0111512
0.0111256
0.0110992
0.0110718
0.0110434
0.011014
0.0109835
0.010952
0.0109194
0.0108857
0.0108511
0.0108155
0.0107791
0.0107414
0.0107032
0.0106582
0.0106358
3.54591e-05
0.000108504
0.000513285
0.00155536
0.00264949
0.00344789
0.00408345
0.00458394
0.00499094
0.0053294
0.00560579
0.00582062
0.00597894
0.00607966
0.00612669
0.00612577
0.00607867
0.005985
0.00584437
0.00565631
0.00542103
0.00513203
0.00479601
0.00442628
0.00404598
0.00368901
0.00338485
0.00311793
0.00286325
0.00264729
0.00240089
0.00212129
0.00175731
0.0013779
0.00106094
0.000844906
0.000792703
0.000773268
0.000744515
0.000787316
0.000825216
0.000903575
0.001068
0.00137388
0.00187581
0.00257771
0.00326634
0.00391792
0.00460665
0.0052682
0.00595004
0.00651734
0.00709264
0.00758427
0.00804818
0.00844942
0.00881411
0.0091464
0.00945409
0.0097277
0.00997683
0.0102027
0.0104091
0.0105976
0.0107709
0.0109302
0.0110771
0.0112129
0.0113384
0.0114547
0.0115623
0.0116619
0.011754
0.011839
0.0119173
0.0119893
0.0120551
0.0121153
0.0121698
0.0122186
0.0122627
0.0123025
0.0123384
0.0123714
0.0124005
0.0124252
0.0124457
0.0124623
0.0124748
0.0124832
0.0124871
0.0124879
0.0124859
0.0124811
0.0124737
0.012464
0.012452
0.0124381
0.0124225
0.0124053
0.0123865
0.0123665
0.0123452
0.012323
0.0123001
0.0122765
0.0122524
0.0122279
0.012203
0.0121779
0.0121525
0.0121269
0.0121012
0.0120756
0.0120499
0.0120244
0.0119991
0.0119739
0.011949
0.0119243
0.0118999
0.0118757
0.0118518
0.0118281
0.0118047
0.0117814
0.0117584
0.0117356
0.0117131
0.0116908
0.0116687
0.0116468
0.0116253
0.011604
0.011583
0.0115622
0.0115418
0.0115216
0.0115017
0.0114822
0.0114629
0.0114439
0.0114251
0.0114066
0.0113884
0.0113703
0.0113524
0.0113346
0.011317
0.0112994
0.0112818
0.0112642
0.0112465
0.0112287
0.0112106
0.0111921
0.0111734
0.0111542
0.0111345
0.0111142
0.0110933
0.0110716
0.011049
0.0110256
0.0110012
0.0109758
0.0109492
0.0109215
0.0108925
0.0108622
0.0108305
0.0107975
0.0107629
0.010727
0.0106894
0.0106505
0.0106092
0.0105677
0.0105145
0.0104922
4.3312e-05
0.000142471
0.000730567
0.00188561
0.0028232
0.00352579
0.00405355
0.00452976
0.00496233
0.00532935
0.00561797
0.00583113
0.00597458
0.006055
0.0060798
0.00605368
0.00597909
0.00585399
0.00567868
0.0054593
0.00518823
0.00487492
0.00453043
0.00417623
0.00384422
0.0035693
0.00334215
0.00313707
0.00297343
0.00272946
0.00240471
0.00200574
0.00156245
0.00114949
0.000903292
0.000831263
0.000822552
0.000832906
0.000914166
0.00100882
0.00115729
0.00144822
0.00190602
0.00249644
0.00314316
0.00379147
0.00442837
0.00507784
0.00574131
0.00636127
0.00696228
0.00748035
0.00797936
0.00842254
0.00882317
0.00918298
0.00951746
0.00982386
0.0101004
0.0103503
0.0105781
0.0107858
0.0109757
0.0111495
0.011309
0.0114554
0.0115898
0.0117132
0.0118265
0.0119304
0.0120254
0.012112
0.0121907
0.0122618
0.0123257
0.0123826
0.0124326
0.0124769
0.0125163
0.0125524
0.0125828
0.0126076
0.012627
0.0126404
0.012648
0.0126514
0.0126508
0.0126464
0.0126386
0.0126276
0.0126137
0.012597
0.0125776
0.0125559
0.0125318
0.0125057
0.0124777
0.012448
0.0124168
0.0123843
0.0123507
0.0123162
0.0122811
0.0122454
0.0122095
0.0121734
0.0121373
0.0121014
0.0120656
0.01203
0.0119947
0.0119597
0.011925
0.0118909
0.0118572
0.0118242
0.0117917
0.0117599
0.0117287
0.0116982
0.0116684
0.0116393
0.0116108
0.0115828
0.0115554
0.0115285
0.0115021
0.0114762
0.0114508
0.0114258
0.0114014
0.0113774
0.0113539
0.0113309
0.0113084
0.0112865
0.011265
0.0112441
0.0112236
0.0112037
0.0111843
0.0111654
0.0111469
0.0111289
0.0111114
0.0110942
0.0110775
0.011061
0.0110449
0.0110289
0.0110132
0.0109976
0.0109821
0.0109665
0.0109508
0.0109349
0.0109188
0.0109023
0.0108853
0.0108677
0.0108495
0.0108306
0.0108108
0.01079
0.0107681
0.0107451
0.0107209
0.0106954
0.0106684
0.0106399
0.0106099
0.0105782
0.0105448
0.0105097
0.0104725
0.0104338
0.0103916
0.0103506
0.0102933
0.0102721
4.80546e-05
0.00018157
0.00094609
0.002067
0.00285974
0.00340224
0.00392949
0.00444097
0.00490011
0.00527976
0.00557157
0.00578709
0.00592388
0.00599171
0.00600118
0.00595934
0.00586905
0.00572467
0.00553004
0.00529756
0.0050216
0.00471319
0.00439006
0.00407326
0.0038108
0.00360864
0.0034424
0.00326365
0.00301041
0.00264846
0.00222964
0.00172857
0.00125074
0.000973714
0.000867744
0.000890957
0.000933364
0.00105309
0.00122717
0.00148152
0.00190772
0.00247433
0.0030546
0.00363604
0.00425429
0.00486605
0.00547385
0.00609699
0.00670161
0.00725899
0.00778517
0.00825471
0.00869332
0.00908522
0.00944192
0.00977522
0.0100822
0.0103601
0.0106126
0.0108424
0.0110522
0.0112439
0.0114191
0.0115791
0.0117254
0.0118588
0.0119803
0.0120907
0.0121906
0.0122806
0.0123613
0.0124331
0.0124963
0.0125509
0.0125985
0.0126403
0.0126778
0.0127078
0.0127303
0.0127446
0.0127518
0.0127525
0.012748
0.0127385
0.0127253
0.0127083
0.0126877
0.0126637
0.0126368
0.0126072
0.0125752
0.0125408
0.0125045
0.0124662
0.0124261
0.0123845
0.0123414
0.012297
0.0122515
0.0122051
0.012158
0.0121104
0.0120626
0.0120148
0.0119672
0.0119202
0.0118737
0.011828
0.011783
0.0117388
0.0116954
0.0116529
0.0116112
0.0115705
0.0115308
0.0114922
0.0114546
0.011418
0.0113825
0.0113481
0.0113147
0.0112824
0.011251
0.0112206
0.0111909
0.0111621
0.011134
0.0111066
0.01108
0.011054
0.0110287
0.0110041
0.0109802
0.010957
0.0109345
0.0109127
0.0108916
0.0108712
0.0108515
0.0108325
0.0108142
0.0107965
0.0107795
0.0107632
0.0107474
0.0107322
0.0107176
0.0107035
0.0106898
0.0106765
0.0106636
0.0106509
0.0106384
0.0106261
0.0106137
0.0106013
0.0105886
0.0105757
0.0105624
0.0105486
0.0105341
0.0105189
0.0105028
0.0104858
0.0104676
0.0104483
0.0104276
0.0104055
0.0103819
0.0103566
0.0103296
0.0103008
0.0102701
0.0102375
0.0102025
0.010166
0.0101251
0.0100868
0.0100299
0.0100098
5.06259e-05
0.000226022
0.00113356
0.00214878
0.00274434
0.00325001
0.00377299
0.0042977
0.00478625
0.00518565
0.00549102
0.00571383
0.00584883
0.00591237
0.00591458
0.00586367
0.00576511
0.00561893
0.00542614
0.00520395
0.00495149
0.00467115
0.00438823
0.00413853
0.0039426
0.00375357
0.00351885
0.00322066
0.00285535
0.00242279
0.00190612
0.00135987
0.00105015
0.000918303
0.000938417
0.00102808
0.00117537
0.00144328
0.00182307
0.00234158
0.00289983
0.00348327
0.00404892
0.00461701
0.00520842
0.00579007
0.00636288
0.00693472
0.00747553
0.00797329
0.00843852
0.00886304
0.00925078
0.00960305
0.00993308
0.0102414
0.0105219
0.0107776
0.011011
0.0112242
0.0114189
0.0115965
0.0117581
0.0119048
0.0120376
0.012157
0.0122638
0.0123588
0.0124426
0.0125156
0.0125776
0.0126309
0.0126769
0.0127183
0.0127515
0.0127756
0.0127896
0.0127944
0.0127897
0.0127766
0.0127579
0.0127343
0.0127058
0.0126731
0.0126368
0.0125974
0.0125552
0.0125106
0.012464
0.0124157
0.012366
0.012315
0.0122629
0.0122099
0.012156
0.0121011
0.0120455
0.0119892
0.0119322
0.0118746
0.0118167
0.0117588
0.0117009
0.0116436
0.011587
0.0115314
0.0114772
0.0114243
0.0113728
0.0113227
0.011274
0.0112266
0.0111807
0.0111361
0.0110931
0.0110515
0.0110114
0.0109726
0.0109352
0.0108992
0.0108646
0.0108313
0.0107993
0.0107683
0.0107385
0.0107096
0.0106817
0.0106547
0.0106285
0.0106033
0.0105788
0.0105553
0.0105325
0.0105106
0.0104896
0.0104693
0.01045
0.0104315
0.0104138
0.0103969
0.0103808
0.0103656
0.0103512
0.0103376
0.0103247
0.0103125
0.010301
0.0102901
0.0102798
0.01027
0.0102607
0.0102518
0.0102432
0.0102348
0.0102266
0.0102183
0.01021
0.0102014
0.0101925
0.0101832
0.0101733
0.0101627
0.0101512
0.0101388
0.0101252
0.0101104
0.0100943
0.0100767
0.0100574
0.0100365
0.0100137
0.00998899
0.00996217
0.00993338
0.00990194
0.00986914
0.00983126
0.0097966
0.00974405
0.00972518
5.16956e-05
0.000285128
0.00128724
0.00214352
0.00263595
0.00307855
0.00359363
0.00413242
0.00464245
0.0050596
0.00538522
0.00562369
0.00576235
0.00582084
0.00581783
0.00576417
0.00566663
0.0055235
0.00534024
0.00513852
0.00492135
0.00469034
0.00445667
0.00422418
0.00398682
0.00372002
0.00340559
0.00304239
0.00259769
0.00205852
0.00147169
0.0011335
0.0009769
0.000984152
0.00108566
0.00128125
0.00161224
0.002099
0.00266165
0.00319445
0.00376739
0.00434291
0.00488883
0.00543743