/*--------------------------------*- C++ -*----------------------------------*\
| =========                 |                                                 |
| \\      /  F ield         | OpenFOAM: The Open Source CFD Toolbox           |
|  \\    /   O peration     | Version:  2112                                  |
|   \\  /    A nd           | Website:  www.openfoam.com                      |
|    \\/     M anipulation  |                                                 |
\*---------------------------------------------------------------------------*/
FoamFile
{
    version     2.0;
    format      ascii;
    arch        "LSB;label=32;scalar=64";
    class       surfaceScalarField;
    location    "0.39";
    object      phi;
}
// * * * * * * * * * * * * * * * * * * * * * * * * * * * * * * * * * * * * * //

dimensions      [0 3 -1 0 0 0 0];

oriented        oriented;

internalField   nonuniform List<scalar> 
24170
(
3.04045e-06
1.47952e-07
2.86463e-06
1.75828e-07
2.69001e-06
1.74618e-07
2.51664e-06
1.73372e-07
2.34968e-06
1.66955e-07
2.19412e-06
1.5556e-07
2.05341e-06
1.40707e-07
1.92989e-06
1.23527e-07
1.82478e-06
1.05104e-07
1.73821e-06
8.65721e-08
1.66922e-06
6.89882e-08
1.61599e-06
5.32326e-08
1.57609e-06
3.99027e-08
1.54674e-06
2.93518e-08
1.52505e-06
2.16868e-08
1.5077e-06
1.73506e-08
1.48795e-06
1.97535e-08
3.78505e-08
1.4501e-06
3.48928e-06
7.59186e-08
3.53962e-06
1.2549e-07
3.57103e-06
1.43207e-07
3.58347e-06
1.60935e-07
3.57756e-06
1.72861e-07
3.55563e-06
1.77492e-07
3.52045e-06
1.75884e-07
3.47495e-06
1.69027e-07
3.42197e-06
1.58087e-07
3.36402e-06
1.4452e-07
3.30313e-06
1.29877e-07
3.24075e-06
1.15613e-07
3.1778e-06
1.02855e-07
3.11477e-06
9.2379e-08
3.0518e-06
8.46603e-08
2.98874e-06
8.04079e-08
2.92795e-06
8.05424e-08
8.18178e-08
2.88399e-06
3.68038e-06
5.80518e-08
3.69879e-06
1.07082e-07
3.71793e-06
1.24065e-07
3.73987e-06
1.39004e-07
3.76241e-06
1.50314e-07
3.78393e-06
1.55975e-07
3.80298e-06
1.56833e-07
3.81827e-06
1.53742e-07
3.829e-06
1.47357e-07
3.83489e-06
1.38626e-07
3.836e-06
1.28766e-07
3.83268e-06
1.18934e-07
3.82544e-06
1.10091e-07
3.81485e-06
1.02969e-07
3.8014e-06
9.81158e-08
3.78601e-06
9.58013e-08
3.77024e-06
9.63122e-08
9.65541e-08
3.7555e-06
3.93605e-06
4.73883e-08
3.94754e-06
9.55939e-08
3.9569e-06
1.14709e-07
3.96682e-06
1.29076e-07
3.97743e-06
1.3971e-07
3.98857e-06
1.44832e-07
4.00015e-06
1.45251e-07
4.01178e-06
1.42117e-07
4.02282e-06
1.36311e-07
4.03276e-06
1.28694e-07
4.04128e-06
1.20243e-07
4.04829e-06
1.11925e-07
4.05387e-06
1.04505e-07
4.05832e-06
9.85261e-08
4.06206e-06
9.43717e-08
4.06573e-06
9.21304e-08
4.0703e-06
9.17399e-08
9.17263e-08
4.07513e-06
4.21516e-06
3.93582e-08
4.22526e-06
8.54926e-08
4.23375e-06
1.06214e-07
4.24223e-06
1.20601e-07
4.25092e-06
1.31015e-07
4.25956e-06
1.36191e-07
4.26799e-06
1.36823e-07
4.27604e-06
1.3407e-07
4.28349e-06
1.28859e-07
4.29016e-06
1.22023e-07
4.29597e-06
1.14433e-07
4.30096e-06
1.06936e-07
4.30525e-06
1.00219e-07
4.30902e-06
9.47494e-08
4.31264e-06
9.07607e-08
4.31654e-06
8.8227e-08
4.3215e-06
8.67811e-08
8.5303e-08
4.32792e-06
4.51541e-06
3.30324e-08
4.52466e-06
7.62466e-08
4.5331e-06
9.77766e-08
4.54155e-06
1.12147e-07
4.55019e-06
1.2238e-07
4.55869e-06
1.27686e-07
4.56683e-06
1.28687e-07
4.57442e-06
1.26478e-07
4.58132e-06
1.21959e-07
4.58741e-06
1.15926e-07
4.59267e-06
1.09177e-07
4.59715e-06
1.02457e-07
4.601e-06
9.63643e-08
4.60446e-06
9.12897e-08
4.60785e-06
8.73778e-08
4.61155e-06
8.45252e-08
4.61604e-06
8.22853e-08
7.98036e-08
4.62154e-06
4.83781e-06
2.79388e-08
4.84627e-06
6.7787e-08
4.85455e-06
8.95039e-08
4.863e-06
1.03692e-07
4.87175e-06
1.13632e-07
4.88044e-06
1.18992e-07
4.8888e-06
1.20334e-07
4.8966e-06
1.18679e-07
4.90368e-06
1.14878e-07
4.90993e-06
1.09671e-07
4.91534e-06
1.03772e-07
4.91996e-06
9.78307e-08
4.92398e-06
9.23499e-08
4.92762e-06
8.76433e-08
4.9312e-06
8.38009e-08
4.93504e-06
8.06868e-08
4.93943e-06
7.78944e-08
7.47899e-08
4.94444e-06
5.18375e-06
2.37703e-08
5.19149e-06
6.0047e-08
5.19956e-06
8.14361e-08
5.20795e-06
9.53001e-08
5.21672e-06
1.04865e-07
5.22551e-06
1.10199e-07
5.23402e-06
1.11822e-07
5.24203e-06
1.10669e-07
5.24937e-06
1.07542e-07
5.25592e-06
1.03119e-07
5.26166e-06
9.80323e-08
5.26665e-06
9.28378e-08
5.27105e-06
8.79524e-08
5.27507e-06
8.36199e-08
5.27898e-06
7.98905e-08
5.28304e-06
7.66259e-08
5.28745e-06
7.34914e-08
7.00357e-08
5.2922e-06
5.5548e-06
2.03124e-08
5.56188e-06
5.29626e-08
5.56974e-06
7.35787e-08
5.57805e-06
8.69902e-08
5.58678e-06
9.6127e-08
5.59561e-06
1.01378e-07
5.6042e-06
1.0323e-07
5.61234e-06
1.02523e-07
5.61988e-06
1.00009e-07
5.62669e-06
9.63062e-08
5.63275e-06
9.19685e-08
5.63812e-06
8.74676e-08
5.64293e-06
8.31457e-08
5.64736e-06
7.91911e-08
5.65162e-06
7.56292e-08
5.65591e-06
7.23371e-08
5.66034e-06
6.90562e-08
6.54782e-08
5.6649e-06
5.95269e-06
1.74013e-08
5.95918e-06
4.64731e-08
5.96681e-06
6.59411e-08
5.97504e-06
7.87645e-08
5.98374e-06
8.74311e-08
5.99257e-06
9.25482e-08
6.00121e-06
9.4584e-08
6.00946e-06
9.42784e-08
6.01714e-06
9.23212e-08
6.02418e-06
8.92748e-08
6.03052e-06
8.56214e-08
6.03623e-06
8.17588e-08
6.04141e-06
7.79677e-08
6.0462e-06
7.43955e-08
6.05078e-06
7.1057e-08
6.05526e-06
6.78546e-08
6.05972e-06
6.45998e-08
6.10938e-08
6.0641e-06
6.37931e-06
1.49068e-08
6.38526e-06
4.05192e-08
6.39266e-06
5.85369e-08
6.4008e-06
7.06266e-08
6.40945e-06
7.87792e-08
6.41829e-06
8.37125e-08
6.42699e-06
8.58841e-08
6.43533e-06
8.59343e-08
6.44317e-06
8.44834e-08
6.45041e-06
8.20364e-08
6.45702e-06
7.90108e-08
6.46304e-06
7.57407e-08
6.46855e-06
7.24573e-08
6.47367e-06
6.928e-08
6.4785e-06
6.62229e-08
6.48314e-06
6.32179e-08
6.4876e-06
6.0137e-08
5.68631e-08
6.49183e-06
5.74271e-06
1.30326e-08
5.74736e-06
3.5866e-08
5.75343e-06
5.24663e-08
5.76024e-06
6.38182e-08
5.76752e-06
7.1502e-08
5.77499e-06
7.62403e-08
5.78239e-06
7.84828e-08
5.78953e-06
7.87952e-08
5.79628e-06
7.77336e-08
5.80256e-06
7.57529e-08
5.80835e-06
7.32203e-08
5.81367e-06
7.04238e-08
5.81857e-06
6.75605e-08
5.82311e-06
6.47331e-08
5.82738e-06
6.19597e-08
5.8314e-06
5.91966e-08
5.83518e-06
5.6358e-08
5.33814e-08
5.83866e-06
7.00009e-06
1.11022e-08
7.00507e-06
3.08842e-08
7.01179e-06
4.57405e-08
7.01949e-06
5.6124e-08
7.02778e-06
6.32074e-08
7.03635e-06
6.76717e-08
7.04489e-06
6.99444e-08
7.05318e-06
7.0509e-08
7.06106e-06
6.98466e-08
7.06846e-06
6.83549e-08
7.07533e-06
6.63486e-08
7.08169e-06
6.40696e-08
7.08756e-06
6.1683e-08
7.09302e-06
5.92784e-08
7.0981e-06
5.68806e-08
7.10282e-06
5.44708e-08
7.10718e-06
5.20016e-08
4.94552e-08
7.11111e-06
8.53283e-06
9.11832e-09
8.53811e-06
2.56066e-08
8.54548e-06
3.8372e-08
8.55408e-06
4.75165e-08
8.56346e-06
5.38345e-08
8.57321e-06
5.7916e-08
8.58301e-06
6.01496e-08
8.59258e-06
6.09322e-08
8.60177e-06
6.06603e-08
8.61046e-06
5.9667e-08
8.61859e-06
5.82131e-08
8.62617e-06
5.64953e-08
8.6332e-06
5.46496e-08
8.63973e-06
5.27546e-08
8.64576e-06
5.0842e-08
8.65132e-06
4.89144e-08
8.65637e-06
4.69553e-08
4.49796e-08
8.66084e-06
1.04013e-05
7.07264e-09
1.04068e-05
2.00463e-08
1.04148e-05
3.0369e-08
1.04244e-05
3.79655e-08
1.04349e-05
4.3313e-08
1.04459e-05
4.68682e-08
1.04571e-05
4.89585e-08
1.04682e-05
4.98933e-08
1.04789e-05
4.99782e-08
1.04891e-05
4.94753e-08
1.04987e-05
4.85896e-08
1.05077e-05
4.74744e-08
1.05161e-05
4.62376e-08
1.05239e-05
4.49463e-08
1.05311e-05
4.36362e-08
1.05377e-05
4.2324e-08
1.05437e-05
4.10131e-08
3.9738e-08
1.05489e-05
1.26789e-05
4.94273e-09
1.26848e-05
1.41669e-08
1.26935e-05
2.16973e-08
1.2704e-05
2.74032e-08
1.27158e-05
3.15266e-08
1.27283e-05
3.43693e-08
1.27411e-05
3.61729e-08
1.27538e-05
3.7157e-08
1.27663e-05
3.75347e-08
1.27783e-05
3.74922e-08
1.27897e-05
3.71761e-08
1.28005e-05
3.66963e-08
1.28106e-05
3.6131e-08
1.282e-05
3.55324e-08
1.28287e-05
3.49328e-08
1.28367e-05
3.43529e-08
1.28439e-05
3.38033e-08
3.33254e-08
1.28503e-05
1.54554e-05
2.68133e-09
1.54618e-05
7.84723e-09
1.54713e-05
1.22076e-08
1.5483e-05
1.56425e-08
1.54963e-05
1.82331e-08
1.55105e-05
2.01252e-08
1.55253e-05
2.14535e-08
1.55401e-05
2.23434e-08
1.55547e-05
2.29157e-08
1.55689e-05
2.32768e-08
1.55826e-05
2.35111e-08
1.55956e-05
2.36812e-08
1.56079e-05
2.38316e-08
1.56194e-05
2.39918e-08
1.56302e-05
2.41808e-08
1.56401e-05
2.44119e-08
1.56492e-05
2.46898e-08
2.50518e-08
1.56575e-05
1.88401e-05
1.89901e-10
1.88472e-05
8.01827e-10
1.88579e-05
1.50449e-09
1.88713e-05
2.21679e-09
1.88866e-05
2.89835e-09
1.89032e-05
3.53996e-09
1.89205e-05
4.15411e-09
1.89381e-05
4.76498e-09
1.89556e-05
5.39891e-09
1.89728e-05
6.0783e-09
1.89895e-05
6.81897e-09
1.90056e-05
7.6296e-09
1.90209e-05
8.51252e-09
1.90354e-05
9.46528e-09
1.90491e-05
1.04824e-08
1.9062e-05
1.15581e-08
1.9074e-05
1.26821e-08
1.38776e-08
1.90851e-05
2.29663e-05
-2.76143e-09
2.29747e-05
-7.60981e-09
2.29875e-05
-1.13178e-08
2.30037e-05
-1.39258e-08
2.30222e-05
-1.56262e-08
2.30423e-05
-1.66121e-08
2.30635e-05
-1.70081e-08
2.30852e-05
-1.68992e-08
2.31069e-05
-1.63622e-08
2.31285e-05
-1.54679e-08
2.31496e-05
-1.42785e-08
2.31701e-05
-1.28487e-08
2.31898e-05
-1.12289e-08
2.32087e-05
-9.46529e-09
2.32268e-05
-7.59886e-09
2.3244e-05
-5.66446e-09
2.32604e-05
-3.69605e-09
-1.69239e-09
2.3276e-05
1.68131e-05
-5.1428e-09
1.68198e-05
-1.43043e-08
1.68299e-05
-2.13891e-08
1.68424e-05
-2.64572e-08
1.68567e-05
-2.99185e-08
1.68722e-05
-3.21377e-08
1.68885e-05
-3.33261e-08
1.69053e-05
-3.36392e-08
1.69221e-05
-3.32283e-08
1.69389e-05
-3.22302e-08
1.69554e-05
-3.07599e-08
1.69714e-05
-2.89175e-08
1.6987e-05
-2.67928e-08
1.7002e-05
-2.44663e-08
1.70164e-05
-2.20079e-08
1.70302e-05
-1.94763e-08
1.70435e-05
-1.69244e-08
-1.43676e-08
1.70561e-05
1.4637e-05
-7.54228e-09
1.46436e-05
-2.09573e-08
1.46534e-05
-3.11435e-08
1.46652e-05
-3.833e-08
1.46786e-05
-4.33035e-08
1.46931e-05
-4.6605e-08
1.47083e-05
-4.84928e-08
1.47238e-05
-4.9181e-08
1.47395e-05
-4.889e-08
1.47551e-05
-4.78098e-08
1.47704e-05
-4.6096e-08
1.47854e-05
-4.38861e-08
1.47999e-05
-4.1305e-08
1.48139e-05
-3.84645e-08
1.48273e-05
-3.54623e-08
1.48402e-05
-3.23808e-08
1.48526e-05
-2.92913e-08
-2.62267e-08
1.48645e-05
1.27427e-05
-1.01173e-08
1.27496e-05
-2.78763e-08
1.27593e-05
-4.08301e-08
1.27707e-05
-4.97353e-08
1.27834e-05
-5.59757e-08
1.2797e-05
-6.02125e-08
1.28112e-05
-6.26946e-08
1.28257e-05
-6.36952e-08
1.28403e-05
-6.35014e-08
1.28549e-05
-6.23407e-08
1.28692e-05
-6.03967e-08
1.28831e-05
-5.78379e-08
1.28966e-05
-5.48204e-08
1.29096e-05
-5.14844e-08
1.29221e-05
-4.79544e-08
1.29341e-05
-4.43366e-08
1.29455e-05
-4.07224e-08
-3.71625e-08
1.29565e-05
1.10939e-05
-1.3052e-08
1.11013e-05
-3.53213e-08
1.1111e-05
-5.05526e-08
1.1122e-05
-6.07186e-08
1.1134e-05
-6.80024e-08
1.11469e-05
-7.30351e-08
1.11602e-05
-7.60095e-08
1.11738e-05
-7.72701e-08
1.11874e-05
-7.71573e-08
1.1201e-05
-7.5916e-08
1.12143e-05
-7.37483e-08
1.12273e-05
-7.08473e-08
1.12399e-05
-6.73957e-08
1.1252e-05
-6.35619e-08
1.12635e-05
-5.94975e-08
1.12745e-05
-5.53338e-08
1.1285e-05
-5.11816e-08
-4.71062e-08
1.12949e-05
9.65876e-06
-1.65983e-08
9.66694e-06
-4.34967e-08
9.67669e-06
-6.03077e-08
9.68726e-06
-7.12899e-08
9.6987e-06
-7.94347e-08
9.71078e-06
-8.51156e-08
9.72324e-06
-8.84783e-08
9.73593e-06
-8.99564e-08
9.74869e-06
-8.99152e-08
9.76137e-06
-8.85937e-08
9.77383e-06
-8.62096e-08
9.78595e-06
-8.29744e-08
9.79765e-06
-7.90862e-08
9.80882e-06
-7.47412e-08
9.81945e-06
-7.01237e-08
9.82951e-06
-6.53962e-08
9.83903e-06
-6.06937e-08
-5.60989e-08
9.84802e-06
8.40989e-06
-2.11372e-08
8.41895e-06
-5.25535e-08
8.42865e-06
-7.00085e-08
8.43883e-06
-8.14665e-08
8.44974e-06
-9.03508e-08
8.46116e-06
-9.65311e-08
8.47285e-06
-1.00169e-07
8.4847e-06
-1.01804e-07
8.49658e-06
-1.01804e-07
8.50837e-06
-1.00383e-07
8.51992e-06
-9.77571e-08
8.53111e-06
-9.41611e-08
8.54184e-06
-8.98169e-08
8.55205e-06
-8.49503e-08
8.5617e-06
-7.97784e-08
8.57081e-06
-7.44992e-08
8.57937e-06
-6.92611e-08
-6.4107e-08
8.58738e-06
7.32333e-06
-2.71856e-08
7.3335e-06
-6.27253e-08
7.34314e-06
-7.96389e-08
7.35295e-06
-9.12808e-08
7.36333e-06
-1.00731e-07
7.37406e-06
-1.07262e-07
7.38501e-06
-1.11123e-07
7.39613e-06
-1.12918e-07
7.40732e-06
-1.12996e-07
7.41847e-06
-1.11532e-07
7.42943e-06
-1.08721e-07
7.44009e-06
-1.04816e-07
7.45035e-06
-1.00082e-07
7.46017e-06
-9.47661e-08
7.46948e-06
-8.90949e-08
7.47829e-06
-8.33022e-08
7.4866e-06
-7.75742e-08
-7.19588e-08
7.49445e-06
6.37826e-06
-3.5376e-08
6.38998e-06
-7.44486e-08
6.40005e-06
-8.97047e-08
6.41041e-06
-1.01644e-07
6.42134e-06
-1.11661e-07
6.43261e-06
-1.18531e-07
6.44424e-06
-1.22757e-07
6.45623e-06
-1.24913e-07
6.46853e-06
-1.25287e-07
6.48099e-06
-1.23997e-07
6.49349e-06
-1.21223e-07
6.50589e-06
-1.17212e-07
6.51802e-06
-1.12212e-07
6.52973e-06
-1.06473e-07
6.54088e-06
-1.00244e-07
6.55137e-06
-9.37966e-08
6.5611e-06
-8.73039e-08
-8.09304e-08
6.57007e-06
5.55918e-06
-4.90946e-08
5.57566e-06
-9.09265e-08
5.59132e-06
-1.05368e-07
5.6092e-06
-1.19516e-07
5.62904e-06
-1.31505e-07
5.65008e-06
-1.39566e-07
5.6717e-06
-1.44381e-07
5.69343e-06
-1.46644e-07
5.71471e-06
-1.46568e-07
5.73499e-06
-1.4427e-07
5.75376e-06
-1.39996e-07
5.77063e-06
-1.34082e-07
5.78531e-06
-1.26897e-07
5.79767e-06
-1.18827e-07
5.80767e-06
-1.1025e-07
5.81548e-06
-1.01604e-07
5.82136e-06
-9.31842e-08
-8.56504e-08
5.82608e-06
4.88796e-06
-1.09445e-07
4.94117e-06
-1.44135e-07
4.98569e-06
-1.49896e-07
5.02043e-06
-1.54251e-07
5.04369e-06
-1.54769e-07
5.05586e-06
-1.5173e-07
5.05793e-06
-1.46453e-07
5.05084e-06
-1.39553e-07
5.03561e-06
-1.31341e-07
5.01342e-06
-1.22074e-07
4.98546e-06
-1.12044e-07
4.95293e-06
-1.01551e-07
4.91692e-06
-9.08852e-08
4.87841e-06
-8.03199e-08
4.83826e-06
-7.00967e-08
4.79714e-06
-6.0488e-08
4.75562e-06
-5.16558e-08
-4.39068e-08
4.71387e-06
4.09323e-06
3.9491e-06
3.7992e-06
3.64495e-06
3.49018e-06
3.33845e-06
3.192e-06
3.05244e-06
2.9211e-06
2.79903e-06
2.68699e-06
2.58543e-06
2.49455e-06
2.41423e-06
2.34413e-06
2.28364e-06
2.23199e-06
2.18808e-06
6.23059e-08
-6.23059e-08
1.45297e-07
-8.29907e-08
2.48247e-07
-1.02951e-07
3.73401e-07
-1.25154e-07
5.22954e-07
-1.49553e-07
6.96839e-07
-1.73885e-07
8.91267e-07
-1.94428e-07
1.10012e-06
-2.08854e-07
1.31718e-06
-2.17058e-07
1.53685e-06
-2.19669e-07
1.75408e-06
-2.17232e-07
1.96439e-06
-2.10307e-07
2.16402e-06
-1.99637e-07
2.34947e-06
-1.85443e-07
2.51731e-06
-1.67844e-07
2.66474e-06
-1.47435e-07
2.78979e-06
-1.25042e-07
2.89114e-06
-1.01355e-07
2.96807e-06
-7.69248e-08
3.02022e-06
-5.21503e-08
3.04748e-06
-2.72668e-08
3.05003e-06
-2.54323e-09
3.027e-06
2.30227e-08
2.98105e-06
4.59517e-08
2.91575e-06
6.53025e-08
2.8352e-06
8.05529e-08
2.74348e-06
9.17128e-08
2.64467e-06
9.88113e-08
2.54259e-06
1.02078e-07
2.44063e-06
1.01967e-07
2.34153e-06
9.91001e-08
2.24737e-06
9.416e-08
2.15964e-06
8.7726e-08
2.07944e-06
8.02041e-08
2.00742e-06
7.20133e-08
1.94354e-06
6.38838e-08
1.88668e-06
5.68597e-08
1.8348e-06
5.18766e-08
1.78558e-06
4.92215e-08
1.73703e-06
4.85536e-08
1.68766e-06
4.93718e-08
1.63647e-06
5.11829e-08
1.58281e-06
5.36621e-08
1.5262e-06
5.6607e-08
1.46634e-06
5.98632e-08
1.40297e-06
6.33691e-08
1.33595e-06
6.70205e-08
1.26522e-06
7.07277e-08
1.19078e-06
7.44462e-08
1.11261e-06
7.81635e-08
1.03071e-06
8.19013e-08
9.45121e-07
8.55916e-08
8.56779e-07
8.83413e-08
7.68155e-07
8.86244e-08
6.80878e-07
8.72774e-08
5.95744e-07
8.51339e-08
5.14677e-07
8.10667e-08
4.39967e-07
7.47103e-08
3.73847e-07
6.612e-08
3.18475e-07
5.53711e-08
2.75898e-07
4.25779e-08
2.47672e-07
2.82259e-08
2.34254e-07
1.34181e-08
2.34684e-07
-4.3031e-10
2.45002e-07
-1.03183e-08
2.61146e-07
-1.61439e-08
2.78627e-07
-1.74814e-08
2.94821e-07
-1.61935e-08
3.09732e-07
-1.49112e-08
3.23234e-07
-1.35018e-08
3.31828e-07
-8.59365e-09
3.25842e-07
5.98532e-09
2.92964e-07
3.28783e-08
2.20373e-07
7.2591e-08
9.43986e-08
1.25974e-07
-9.47729e-08
1.89171e-07
-3.56314e-07
2.61542e-07
-6.95945e-07
3.3963e-07
-1.10979e-06
4.13846e-07
-1.58578e-06
4.75989e-07
-2.10781e-06
5.2203e-07
-2.65862e-06
5.50816e-07
-3.22184e-06
5.63219e-07
-3.78317e-06
5.61331e-07
-4.33091e-06
5.4773e-07
-4.85585e-06
5.2495e-07
-5.351e-06
4.95142e-07
-5.81091e-06
4.59917e-07
-6.23134e-06
4.20424e-07
-6.60887e-06
3.7753e-07
-6.93981e-06
3.30947e-07
-7.22116e-06
2.81349e-07
-7.45099e-06
2.2983e-07
-7.62728e-06
1.76284e-07
-7.74823e-06
1.20949e-07
-7.81302e-06
6.47918e-08
-7.82285e-06
9.83364e-09
-7.7864e-06
-3.6447e-08
-7.70904e-06
-7.73668e-08
-7.59376e-06
-1.15278e-07
-7.4425e-06
-1.51263e-07
-7.25646e-06
-1.86039e-07
-7.03669e-06
-2.19768e-07
-6.78419e-06
-2.52498e-07
-6.49998e-06
-2.84209e-07
-6.18518e-06
-3.14805e-07
-5.84096e-06
-3.44214e-07
-5.4684e-06
-3.72566e-07
-5.06868e-06
-3.99721e-07
-4.64325e-06
-4.2543e-07
-4.19385e-06
-4.49398e-07
-3.72268e-06
-4.71169e-07
-3.2324e-06
-4.90277e-07
-2.72622e-06
-5.06178e-07
-2.20851e-06
-5.17714e-07
-1.68544e-06
-5.23068e-07
-1.16511e-06
-5.20329e-07
-6.55125e-07
-5.09989e-07
-1.54739e-07
-5.00386e-07
3.37675e-07
-4.92414e-07
8.19273e-07
-4.81597e-07
1.28662e-06
-4.67343e-07
1.73178e-06
-4.45161e-07
2.14568e-06
-4.13906e-07
2.52178e-06
-3.76097e-07
2.857e-06
-3.35224e-07
3.15044e-06
-2.93434e-07
3.40133e-06
-2.50891e-07
3.6077e-06
-2.06367e-07
3.7682e-06
-1.60507e-07
3.88289e-06
-1.14691e-07
3.95328e-06
-7.03852e-08
3.98038e-06
-2.71005e-08
3.96824e-06
1.21424e-08
3.92563e-06
4.26025e-08
3.86039e-06
6.52479e-08
3.77875e-06
8.16352e-08
3.68443e-06
9.43224e-08
3.58047e-06
1.03957e-07
3.4695e-06
1.10972e-07
3.35384e-06
1.1566e-07
3.23554e-06
1.18296e-07
3.11629e-06
1.19252e-07
2.99727e-06
1.19025e-07
2.87886e-06
1.18404e-07
2.76156e-06
1.17299e-07
2.64509e-06
1.16478e-07
2.52925e-06
1.1584e-07
2.4149e-06
1.14345e-07
2.305e-06
1.09905e-07
2.20524e-06
9.97534e-08
2.1237e-06
8.15441e-08
2.06857e-06
5.51292e-08
2.04433e-06
2.42442e-08
2.04884e-06
-4.51301e-09
2.06667e-06
-1.78303e-08
2.07288e-06
-6.21027e-09
2.03176e-06
4.11214e-08
1.91873e-06
1.13027e-07
1.70722e-06
2.11512e-07
1.37171e-06
3.35512e-07
8.88369e-07
4.83337e-07
2.55811e-07
6.32558e-07
-4.73936e-07
7.29747e-07
-1.22639e-06
7.5245e-07
-1.92247e-06
6.96084e-07
-2.49363e-06
5.7116e-07
-2.88627e-06
3.9264e-07
-3.07063e-06
1.84361e-07
-3.04491e-06
-2.57196e-08
-2.83506e-06
-2.0985e-07
-2.4649e-06
-3.7016e-07
-1.95986e-06
-5.05038e-07
-1.35423e-06
-6.0563e-07
-6.9121e-07
-6.63023e-07
-3.83606e-10
-6.90827e-07
6.86484e-07
-6.86868e-07
1.33043e-06
-6.43944e-07
1.87913e-06
-5.48706e-07
-3.97223e-07
2.27636e-06
8.35154e-08
-1.45821e-07
1.93446e-07
-1.92921e-07
3.31277e-07
-2.40782e-07
4.97424e-07
-2.91301e-07
6.88091e-07
-3.40221e-07
8.97539e-07
-3.83333e-07
1.12008e-06
-4.16972e-07
1.35117e-06
-4.39943e-07
1.58607e-06
-4.51958e-07
1.81977e-06
-4.53369e-07
2.04742e-06
-4.44878e-07
2.26442e-06
-4.27311e-07
2.46653e-06
-4.01746e-07
2.6506e-06
-3.69509e-07
2.81474e-06
-3.31989e-07
2.95774e-06
-2.90429e-07
3.07874e-06
-2.46041e-07
3.1774e-06
-2.00016e-07
3.254e-06
-1.53527e-07
3.30955e-06
-1.07701e-07
3.3459e-06
-6.36213e-08
3.36568e-06
-2.23179e-08
3.37284e-06
1.58612e-08
3.36817e-06
5.06179e-08
3.35184e-06
8.16411e-08
3.32405e-06
1.08339e-07
3.28538e-06
1.30384e-07
3.23655e-06
1.47642e-07
3.17849e-06
1.60141e-07
3.11236e-06
1.68092e-07
3.03959e-06
1.71871e-07
2.96177e-06
1.71979e-07
2.88053e-06
1.68967e-07
2.79734e-06
1.63396e-07
2.71345e-06
1.55902e-07
2.63001e-06
1.47323e-07
2.54815e-06
1.38717e-07
2.46888e-06
1.31153e-07
2.3927e-06
1.25404e-07
2.31942e-06
1.21827e-07
2.24838e-06
1.20415e-07
2.17856e-06
1.21e-07
2.10882e-06
1.234e-07
2.03798e-06
1.27449e-07
1.96489e-06
1.32951e-07
1.8886e-06
1.39665e-07
1.8083e-06
1.47315e-07
1.72341e-06
1.55617e-07
1.63358e-06
1.64276e-07
1.5388e-06
1.72948e-07
1.43952e-06
1.81181e-07
1.33675e-06
1.88358e-07
1.23152e-06
1.93571e-07
1.12429e-06
1.95854e-07
1.01662e-06
1.94955e-07
9.11252e-07
1.90499e-07
8.10547e-07
1.81772e-07
7.16876e-07
1.68381e-07
6.32726e-07
1.5027e-07
5.60481e-07
1.27615e-07
5.0207e-07
1.00989e-07
4.58539e-07
7.17578e-08
4.29487e-07
4.247e-08
4.1234e-07
1.67167e-08
4.03418e-07
-1.39646e-09
3.97315e-07
-1.00411e-08
3.87441e-07
-7.60746e-09
3.66918e-07
4.32976e-09
3.28954e-07
2.30531e-08
2.59284e-07
5.61673e-08
1.3823e-07
1.12461e-07
-5.54398e-08
1.99655e-07
-3.39953e-07
3.17391e-07
-7.27501e-07
4.60139e-07
-1.2204e-06
6.18873e-07
-1.80952e-06
7.78287e-07
-2.4715e-06
9.23525e-07
-3.1755e-06
1.04363e-06
-3.8915e-06
1.12985e-06
-4.59315e-06
1.17764e-06
-5.25892e-06
1.18779e-06
-5.87293e-06
1.16483e-06
-6.42506e-06
1.11535e-06
-6.91017e-06
1.04644e-06
-7.3271e-06
9.64659e-07
-7.67747e-06
8.75323e-07
-7.9647e-06
7.8237e-07
-8.1932e-06
6.88414e-07
-8.36781e-06
5.95035e-07
-8.49334e-06
5.03059e-07
-8.57504e-06
4.12643e-07
-8.61782e-06
3.24129e-07
-8.62603e-06
2.38047e-07
-8.60433e-06
1.54582e-07
-8.55729e-06
7.39027e-08
-8.48928e-06
-3.21628e-09
-8.40172e-06
-7.77193e-08
-8.28855e-06
-1.49616e-07
-8.14504e-06
-2.20884e-07
-7.97001e-06
-2.90304e-07
-7.76369e-06
-3.57583e-07
-7.5268e-06
-4.2293e-07
-7.26009e-06
-4.8648e-07
-6.96439e-06
-5.48193e-07
-6.6406e-06
-6.08e-07
-6.28968e-06
-6.65732e-07
-5.91266e-06
-7.21226e-07
-5.51065e-06
-7.74579e-07
-5.08479e-06
-8.25585e-07
-4.63646e-06
-8.73761e-07
-4.16725e-06
-9.1861e-07
-3.67894e-06
-9.59474e-07
-3.17401e-06
-9.95208e-07
-2.65575e-06
-1.02444e-06
-2.12772e-06
-1.04574e-06
-1.59335e-06
-1.05744e-06
-1.05533e-06
-1.05835e-06
-5.15619e-07
-1.0497e-06
2.13422e-08
-1.03735e-06
5.47676e-07
-1.01875e-06
1.05768e-06
-9.91597e-07
1.54721e-06
-9.56874e-07
2.01239e-06
-9.10344e-07
2.45074e-06
-8.52262e-07
2.86183e-06
-7.8718e-07
3.24287e-06
-7.16271e-07
3.58966e-06
-6.40221e-07
3.89864e-06
-5.59875e-07
4.16666e-06
-4.74382e-07
4.39075e-06
-3.84594e-07
4.56843e-06
-2.92378e-07
4.69824e-06
-2.0019e-07
4.78287e-06
-1.1173e-07
4.82602e-06
-3.10136e-08
4.82148e-06
4.71491e-08
4.77492e-06
1.11807e-07
4.69144e-06
1.65113e-07
4.57922e-06
2.0654e-07
4.44618e-06
2.36997e-07
4.29925e-06
2.57907e-07
4.14429e-06
2.7062e-07
3.98604e-06
2.76544e-07
3.82815e-06
2.77143e-07
3.67327e-06
2.73902e-07
3.52326e-06
2.68412e-07
3.37848e-06
2.62085e-07
3.23863e-06
2.56327e-07
3.10308e-06
2.51393e-07
2.9713e-06
2.46123e-07
2.8437e-06
2.37508e-07
2.7229e-06
2.20549e-07
2.61551e-06
1.88937e-07
2.53262e-06
1.38013e-07
2.48639e-06
7.04808e-08
2.47599e-06
5.88687e-09
2.4938e-06
-3.56433e-08
2.50132e-06
-1.37295e-08
2.46748e-06
7.49652e-08
2.33491e-06
2.45597e-07
2.0523e-06
4.9412e-07
1.57335e-06
8.1446e-07
8.81613e-07
1.17507e-06
2.91447e-08
1.48503e-06
-8.68909e-07
1.6278e-06
-1.68772e-06
1.57126e-06
-2.33942e-06
1.34778e-06
-2.78541e-06
1.01715e-06
-3.02832e-06
6.35557e-07
-3.09267e-06
2.48706e-07
-3.001e-06
-1.1739e-07
-2.75533e-06
-4.55521e-07
-2.36473e-06
-7.60761e-07
-1.84812e-06
-1.02164e-06
-1.22973e-06
-1.22402e-06
-5.37103e-07
-1.35565e-06
1.95741e-07
-1.42367e-06
9.24822e-07
-1.41595e-06
1.61871e-06
-1.33783e-06
2.23939e-06
-1.16938e-06
-9.15809e-07
2.75797e-06
9.64971e-08
-2.42318e-07
2.32575e-07
-3.28999e-07
4.04777e-07
-4.12983e-07
6.09148e-07
-4.95671e-07
8.37565e-07
-5.68638e-07
1.08053e-06
-6.26299e-07
1.33029e-06
-6.66729e-07
1.58091e-06
-6.90569e-07
1.82754e-06
-6.98586e-07
2.06596e-06
-6.91783e-07
2.29237e-06
-6.71291e-07
2.50348e-06
-6.38421e-07
2.69656e-06
-5.94823e-07
2.86983e-06
-5.42782e-07
3.02201e-06
-4.84165e-07
3.15208e-06
-4.20506e-07
3.25942e-06
-3.53376e-07
3.34382e-06
-2.84421e-07
3.40562e-06
-2.15326e-07
3.44568e-06
-1.47758e-07
3.46538e-06
-8.33256e-08
3.46664e-06
-2.35763e-08
3.4521e-06
3.04072e-08
3.42494e-06
7.77753e-08
3.38835e-06
1.18232e-07
3.34495e-06
1.51733e-07
3.29686e-06
1.78476e-07
3.24561e-06
1.98894e-07
3.19218e-06
2.13573e-07
3.13708e-06
2.23192e-07
3.08049e-06
2.28459e-07
3.0224e-06
2.30066e-07
2.96271e-06
2.28656e-07
2.90129e-06
2.24817e-07
2.83808e-06
2.19113e-07
2.77323e-06
2.12175e-07
2.70718e-06
2.0477e-07
2.64058e-06
1.97746e-07
2.5741e-06
1.9189e-07
2.50814e-06
1.87787e-07
2.44276e-06
1.85792e-07
2.37767e-06
1.86092e-07
2.31229e-06
1.88775e-07
2.24589e-06
1.93856e-07
2.17757e-06
2.01268e-07
2.10638e-06
2.10854e-07
2.03131e-06
2.22385e-07
1.95138e-06
2.35549e-07
1.86575e-06
2.49903e-07
1.77392e-06
2.64782e-07
1.67585e-06
2.79245e-07
1.5721e-06
2.92114e-07
1.4636e-06
3.02066e-07
1.35168e-06
3.07772e-07
1.23841e-06
3.08229e-07
1.12619e-06
3.02715e-07
1.0173e-06
2.9067e-07
9.13842e-07
2.71835e-07
8.17796e-07
2.46316e-07
7.30779e-07
2.14632e-07
6.53742e-07
1.78026e-07
5.86265e-07
1.39235e-07
5.25724e-07
1.03011e-07
4.67224e-07
7.52172e-08
4.03411e-07
6.24167e-08
3.27504e-07
6.58655e-08
2.31704e-07
8.81922e-08
1.03383e-07
1.32651e-07
-7.86526e-08
2.05088e-07
-3.41225e-07
3.1874e-07
-7.08606e-07
4.79841e-07
-1.19057e-06
6.81616e-07
-1.78002e-06
9.06847e-07
-2.45452e-06
1.13463e-06
-3.17963e-06
1.34399e-06
-3.91716e-06
1.51582e-06
-4.63047e-06
1.63683e-06
-5.28865e-06
1.70181e-06
-5.871e-06
1.7122e-06
-6.36789e-06
1.67453e-06
-6.77893e-06
1.59884e-06
-7.11055e-06
1.49646e-06
-7.37331e-06
1.3781e-06
-7.57943e-06
1.25256e-06
-7.74085e-06
1.12608e-06
-7.86804e-06
1.00252e-06
-7.96925e-06
8.83578e-07
-8.05025e-06
7.6941e-07
-8.11448e-06
6.59268e-07
-8.16343e-06
5.52008e-07
-8.19728e-06
4.46491e-07
-8.21507e-06
3.41917e-07
-8.21491e-06
2.37887e-07
-8.19458e-06
1.34257e-07
-8.15156e-06
3.0884e-08
-8.08317e-06
-7.16116e-08
-7.98707e-06
-1.73811e-07
-7.8614e-06
-2.75293e-07
-7.70673e-06
-3.75548e-07
-7.52318e-06
-4.73862e-07
-7.31093e-06
-5.69826e-07
-7.0704e-06
-6.6346e-07
-6.8021e-06
-7.54785e-07
-6.50672e-06
-8.43573e-07
-6.18497e-06
-9.29742e-07
-5.83747e-06
-1.01324e-06
-5.46492e-06
-1.09377e-06
-5.06862e-06
-1.17088e-06
-4.64989e-06
-1.24431e-06
-4.21015e-06
-1.31349e-06
-3.75107e-06
-1.3777e-06
-3.27462e-06
-1.43592e-06
-2.78316e-06
-1.48667e-06
-2.27916e-06
-1.52844e-06
-1.76526e-06
-1.55964e-06
-1.24407e-06
-1.57863e-06
-7.18045e-07
-1.58437e-06
-1.905e-07
-1.57724e-06
3.31522e-07
-1.55937e-06
8.42465e-07
-1.52969e-06
1.33863e-06
-1.48776e-06
1.81547e-06
-1.43372e-06
2.2713e-06
-1.36618e-06
2.70525e-06
-1.28621e-06
3.11521e-06
-1.19714e-06
3.49808e-06
-1.09914e-06
3.85035e-06
-9.92485e-07
4.16994e-06
-8.79468e-07
4.45652e-06
-7.60956e-07
4.70916e-06
-6.37234e-07
4.92647e-06
-5.09689e-07
5.1068e-06
-3.80525e-07
5.24772e-06
-2.52651e-07
5.3457e-06
-1.28995e-07
5.40152e-06
-8.66452e-09
5.41715e-06
9.61749e-08
5.39016e-06
1.92102e-07
5.32314e-06
2.73567e-07
5.22039e-06
3.39745e-07
5.0881e-06
3.90196e-07
4.93331e-06
4.25411e-07
4.76314e-06
4.46711e-07
4.58421e-06
4.56069e-07
4.40217e-06
4.55943e-07
4.22146e-06
4.49125e-07
4.04521e-06
4.38338e-07
3.87561e-06
4.25923e-07
3.71394e-06
4.13062e-07
3.56086e-06
3.99204e-07
3.41683e-06
3.81534e-07
3.28286e-06
3.54521e-07
3.16154e-06
3.10255e-07
3.05772e-06
2.41833e-07
2.97704e-06
1.51164e-07
2.9235e-06
5.94295e-08
2.88577e-06
2.0812e-09
2.83905e-06
3.29951e-08
2.73554e-06
1.78477e-07
2.52337e-06
4.57763e-07
2.14698e-06
8.7051e-07
1.56712e-06
1.39432e-06
7.97141e-07
1.94505e-06
-6.89254e-08
2.35109e-06
-9.05946e-07
2.46482e-06
-1.61127e-06
2.27659e-06
-2.14491e-06
1.88141e-06
-2.50568e-06
1.37792e-06
-2.70556e-06
8.35436e-07
-2.74959e-06
2.92736e-07
-2.64018e-06
-2.26798e-07
-2.38191e-06
-7.13788e-07
-1.98583e-06
-1.15684e-06
-1.46453e-06
-1.54294e-06
-8.37826e-07
-1.85072e-06
-1.31725e-07
-2.06175e-06
6.12163e-07
-2.16756e-06
1.36024e-06
-2.16403e-06
2.07815e-06
-2.05574e-06
2.73611e-06
-1.82735e-06
-1.49214e-06
3.31245e-06
1.18881e-07
-3.61199e-07
2.92024e-07
-5.02142e-07
5.07003e-07
-6.27962e-07
7.50707e-07
-7.39375e-07
1.00929e-06
-8.27219e-07
1.27179e-06
-8.888e-07
1.53129e-06
-9.26235e-07
1.78311e-06
-9.42382e-07
2.0239e-06
-9.39378e-07
2.25112e-06
-9.19008e-07
2.46275e-06
-8.82915e-07
2.65736e-06
-8.33036e-07
2.834e-06
-7.71463e-07
2.99137e-06
-7.00149e-07
3.12807e-06
-6.20869e-07
3.24299e-06
-5.35426e-07
3.33536e-06
-4.45738e-07
3.4048e-06
-3.53861e-07
3.45144e-06
-2.61966e-07
3.47596e-06
-1.72282e-07
3.47965e-06
-8.70173e-08
3.46473e-06
-8.65705e-09
3.43277e-06
6.23671e-08
3.38705e-06
1.23495e-07
3.33083e-06
1.74458e-07
3.2675e-06
2.15059e-07
3.20032e-06
2.45662e-07
3.1321e-06
2.6711e-07
3.06506e-06
2.8061e-07
3.00069e-06
2.8757e-07
2.93972e-06
2.89424e-07
2.8823e-06
2.87491e-07
2.82803e-06
2.82926e-07
2.77615e-06
2.76691e-07
2.72572e-06
2.69548e-07
2.67577e-06
2.62123e-07
2.62555e-06
2.54987e-07
2.57462e-06
2.48682e-07
2.52279e-06
2.43718e-07
2.47004e-06
2.40534e-07
2.41633e-06
2.39498e-07
2.36149e-06
2.40933e-07
2.30512e-06
2.45144e-07
2.24658e-06
2.52399e-07
2.18498e-06
2.62872e-07
2.11924e-06
2.76592e-07
2.04821e-06
2.93413e-07
1.97082e-06
3.12939e-07
1.88631e-06
3.34418e-07
1.7944e-06
3.56684e-07
1.69541e-06
3.78238e-07
1.59009e-06
3.97431e-07
1.47951e-06
4.12648e-07
1.36516e-06
4.22125e-07
1.24886e-06
4.24529e-07
1.13247e-06
4.19102e-07
1.01768e-06
4.0546e-07
9.0586e-07
3.83656e-07
7.97881e-07
3.54295e-07
6.93865e-07
3.18648e-07
5.92627e-07
2.79263e-07
4.90564e-07
2.41298e-07
3.81339e-07
2.12236e-07
2.59195e-07
1.97361e-07
1.15588e-07
2.06024e-07
-5.89816e-08
2.40435e-07
-2.79936e-07
3.09146e-07
-5.73938e-07
4.26654e-07
-9.68534e-07
5.99684e-07
-1.4761e-06
8.26306e-07
-2.08696e-06
1.0907e-06
-2.77242e-06
1.36707e-06
-3.49313e-06
1.62756e-06
-4.2054e-06
1.8469e-06
-4.8679e-06
2.00649e-06
-5.44896e-06
2.09688e-06
-5.93048e-06
2.11835e-06
-6.30797e-06
2.0793e-06
-6.58876e-06
1.99298e-06
-6.78861e-06
1.87438e-06
-6.92738e-06
1.73761e-06
-7.02501e-06
1.59409e-06
-7.09862e-06
1.45171e-06
-7.16086e-06
1.3148e-06
-7.21957e-06
1.1848e-06
-7.27839e-06
1.06133e-06
-7.33772e-06
9.42911e-07
-7.39566e-06
8.27353e-07
-7.44886e-06
7.12462e-07
-7.4933e-06
5.96448e-07
-7.52488e-06
4.78074e-07
-7.5397e-06
3.56743e-07
-7.53437e-06
2.32551e-07
-7.50615e-06
1.06035e-07
-7.45304e-06
-2.22224e-08
-7.37356e-06
-1.51088e-07
-7.26707e-06
-2.80307e-07
-7.13333e-06
-4.09033e-07
-6.97235e-06
-5.36529e-07
-6.78408e-06
-6.62134e-07
-6.56872e-06
-7.85181e-07
-6.32697e-06
-9.05213e-07
-6.05958e-06
-1.02218e-06
-5.76727e-06
-1.13588e-06
-5.45083e-06
-1.24618e-06
-5.11123e-06
-1.35284e-06
-4.74955e-06
-1.45545e-06
-4.36687e-06
-1.55357e-06
-3.96429e-06
-1.6469e-06
-3.54307e-06
-1.73471e-06
-3.10467e-06
-1.81609e-06
-2.65077e-06
-1.88982e-06
-2.18326e-06
-1.95418e-06
-1.70424e-06
-2.00746e-06
-1.21614e-06
-2.04774e-06
-7.21711e-07
-2.07307e-06
-2.23803e-07
-2.08228e-06
2.73639e-07
-2.07469e-06
7.64992e-07
-2.05072e-06
1.2455e-06
-2.0102e-06
1.71114e-06
-1.9534e-06
2.15845e-06
-1.88102e-06