/*--------------------------------*- C++ -*----------------------------------*\
| =========                 |                                                 |
| \\      /  F ield         | OpenFOAM: The Open Source CFD Toolbox           |
|  \\    /   O peration     | Version:  2112                                  |
|   \\  /    A nd           | Website:  www.openfoam.com                      |
|    \\/     M anipulation  |                                                 |
\*---------------------------------------------------------------------------*/
FoamFile
{
    version     2.0;
    format      ascii;
    arch        "LSB;label=32;scalar=64";
    class       volScalarField;
    location    "0.24";
    object      omega;
}
// * * * * * * * * * * * * * * * * * * * * * * * * * * * * * * * * * * * * * //

dimensions      [0 0 -1 0 0 0 0];

internalField   nonuniform List<scalar> 
12225
(
52304.8
72146.3
78124
78988.2
78103.3
76678.6
75150.9
73618.3
72126.5
70706.4
69374.4
68135
66982.8
65894.4
64840.1
63862.4
62760.8
61375.9
4125.67
8502.51
12131.4
15015.6
17300.2
19167
20805
22347.3
23839.4
25288.3
26688.7
28028.3
29281.6
30426.4
31427.4
32244.2
32861.7
33113
226.699
830.706
1643.24
2392.03
3171.41
3939.52
4694.32
5457.11
6236.13
7037.73
7871.72
8751.2
9686.73
10687.9
11753.5
12876.7
14046.5
15244
73.8865
138.998
221.381
334.044
497.388
745.561
1026.05
1227.09
1443.3
1675.25
1923.44
2190.62
2484.79
2818.37
3203.39
3653.63
4180.32
4800.72
47.0992
71.2024
95.0124
119.319
146.388
180.942
221.76
268.551
322.396
385.068
468.486
573.066
698.715
799.427
888.877
993.975
1119.91
1272.9
36.6513
49.7271
62.1488
74.1769
86.0821
98.534
111.368
124.507
138.044
152.326
169.837
189.693
211.465
235.268
261.59
294.409
334.991
381.761
31.9288
40.1892
47.7873
55.1189
62.2396
69.3051
76.3043
83.2136
90.0358
96.8299
103.95
111.373
119.007
126.822
134.885
144.342
155.242
166.673
30.2212
35.339
40.5585
45.4402
50.1352
54.7328
59.2172
63.5978
67.8744
72.0631
76.2362
80.4183
84.6028
88.7817
92.9668
97.3097
101.873
106.483
30.1053
33.0034
36.5518
40.082
43.4575
46.6651
49.7467
52.7653
55.701
58.5573
61.354
64.1054
66.8179
69.495
72.144
74.7924
77.4533
80.0458
30.7903
32.3354
34.4863
36.9541
39.4655
41.892
44.2111
46.4187
48.5472
50.6115
52.6237
54.5917
56.5228
58.4249
60.3073
62.1787
64.0344
65.8016
31.8909
32.6734
33.8697
35.3852
37.0957
38.8961
40.6955
42.41
44.0548
45.6408
47.1761
48.667
50.117
51.5296
52.9076
54.2526
55.5606
56.7882
29.5917
29.9541
30.5485
31.353
32.3255
33.4214
34.5912
35.7746
36.9379
38.0663
39.1558
40.2066
41.2184
42.1886
43.1138
43.9917
44.8207
45.5825
33.6811
33.863
34.192
34.6701
35.2848
36.018
36.8465
37.7359
38.6509
39.5641
40.4595
41.328
42.1642
42.9624
43.7172
44.4254
45.085
45.6832
38.3765
38.4248
38.5645
38.7892
39.1058
39.5106
39.995
40.5444
41.1396
41.7606
42.3907
43.0171
43.63
44.2218
44.7866
45.3203
44.7856
44.0171
43.7579
43.7114
43.7216
43.777
43.8834
44.0434
44.2554
44.5146
44.8134
45.1429
45.4935
44.9953
44.1394
43.2947
42.4567
41.6224
40.7895
39.9514
49.9151
49.8054
49.7282
49.6792
49.6554
49.6605
48.9517
47.6993
46.5033
45.3577
44.2569
43.1955
42.1684
41.1713
40.2007
39.2538
38.3279
37.4185
56.9506
56.1663
54.5323
52.9637
51.455
50.0042
48.6091
47.2671
45.9753
44.7307
43.5304
42.3714
41.2511
40.1669
39.1166
38.0981
37.1095
36.1479
57.8668
56.158
54.5122
52.9274
51.4007
49.9289
48.5098
47.141
45.82
44.5448
43.3131
42.1228
40.972
39.8586
38.781
37.7375
36.7266
35.7464
57.8682
56.1643
54.5275
52.9563
51.4463
49.9929
48.5941
47.2475
45.9507
44.7014
43.4971
42.3357
41.2147
40.1319
39.0853
38.0729
37.0926
36.1421
57.8795
56.213
54.6404
53.1564
51.7454
50.4013
49.1226
47.9062
46.7479
45.6432
44.5872
43.5748
42.601
41.6606
40.7493
39.8634
38.9997
38.154
54.9731
54.985
55.0025
53.7553
52.6017
51.5401
50.5649
49.6634
48.8226
48.0296
47.2726
46.5416
45.825
45.1072
44.3867
43.6627
42.9339
42.1967
50.2507
50.6045
51.2126
52.0019
52.9272
53.982
54.1393
53.8464
53.5506
53.2339
52.8857
52.4996
52.0695
51.5919
51.0744
50.5202
49.9303
49.3001
46.1894
47.3475
48.9378
50.7924
52.8258
54.9617
57.129
59.2595
61.3324
62.8609
63.0396
63.096
63.0462
62.917
62.7118
62.4338
62.0849
61.6574
43.1285
46.023
49.451
53.1248
56.8828
60.6041
64.2109
67.7124
71.0968
74.364
77.5331
80.6199
83.6319
84.5365
85.0041
85.3256
85.5085
85.5424
42.0514
48.3913
55.1618
62.0114
68.7603
75.3273
81.6729
87.7891
93.6821
99.3932
105.063
110.732
116.386
122.006
127.584
133.116
136.815
138.339
45.491
58.7639
72.4925
86.1315
99.485
112.532
125.296
137.822
150.188
162.698
176.697
191.935
207.892
224.446
241.605
259.407
277.885
297.017
60.8956
91.9206
126.429
163.479
203.41
247.103
295.36
348.89
408.438
476.014
562.336
648.248
703.495
762.25
823.917
888.139
954.683
1023.29
131.712
272.738
514.74
855.658
1096.99
1355.14
1622.85
1896.68
2176.36
2462.53
2753.09
3047.25
3346.25
3649.12
3954.71
4262.24
4571.57
4883.24
1910.61
3959.1
5886.05
7569.64
9008.59
10231.2
11281.3
12207.5
13055.5
13855.4
14620.8
15357.1
16066.7
16750.6
17409.4
18044
18656.2
19245.4
34898.1
51342.1
58076.3
60444
60979.1
60765.9
60250.5
59618
58942.8
58248
57544.4
56839.6
56140.7
55454.6
54788.6
54149.1
53538.4
52961.5
60.0894
62.4487
67.2762
74.1325
82.753
92.8476
104.19
116.644
130.16
144.749
160.478
177.408
195.532
214.832
235.316
257.005
279.928
304.115
329.6
356.422
384.618
414.27
445.471
478.174
512.176
547.366
583.783
621.578
661.206
703.331
748.476
797.051
849.329
905.343
964.409
1026.12
1090.48
1157.39
1226.84
1298.78
1373.2
1450.09
1529.4
1611.11
1695.07
1780.82
1867.84
1955.78
2044.26
2133.14
2222.43
2312.07
2401.98
2492.08
2582.34
2672.77
2763.48
2854.72
2933.43
2995.58
3057.02
3117.44
3176.72
3234.78
3291.54
3346.95
3400.97
3453.53
3504.63
3554.22
3602.28
3648.76
3693.63
3736.82
3778.28
3817.95
3855.79
3891.81
3926.02
3958.41
3988.95
4017.63
4044.42
4069.32
4092.37
4113.58
4133.01
4150.69
4166.7
4181.16
4194.32
4206.59
4217.63
4226.78
4233.91
4238.9
4241.66
4242.41
4241.46
4238.85
4234.64
4228.86
4221.53
4212.65
4202.2
4190.17
4176.56
4161.4
4144.76
4126.68
4107.22
4086.42
4064.31
4040.9
4016.23
3990.33
3963.27
3935.15
3906.27
3877.27
3842.73
3774.96
3706.5
3637.17
3566.9
3495.57
3423.51
3351.15
3278.59
3206.03
3133.76
3061.99
2990.82
2920.09
2849.84
2780.53
2712.55
2645.93
2580.66
2516.73
2453.86
2391.64
2329.9
2268.69
2208.28
2148.48
2089.01
2029.55
1969.64
1908.8
1846.11
1781.17
1713.88
1644.05
1571.87
1497.79
1422.64
1346.73
1270.37
1193.82
1117.37
1041.47
966.636
893.499
822.736
755.124
691.473
632.584
579.233
532.141
491.987
459.456
435.634
420.83
413.122
411.92
417.686
430.185
447.481
471.11
64.7075
65.3301
68.5028
73.571
80.1758
87.9377
96.5629
105.881
115.826
126.4
137.633
149.553
162.177
175.515
189.575
204.369
219.908
236.202
253.261
271.099
289.723
309.114
329.235
350.052
371.552
393.752
416.597
440.123
464.565
490.379
518.127
547.849
579.413
612.503
646.755
681.892
717.745
754.178
791.095
828.407
866.026
903.864
941.831
979.846
1017.84
1055.76
1093.61
1131.52
1169.68
1208.09
1246.37
1284.06
1321.02
1357.28
1392.82
1427.52
1461.17
1493.54
1524.41
1553.92
1582.72
1610.73
1637.87
1664.19
1689.76
1714.62
1738.77
1762.16
1784.72
1806.22
1826.58
1845.67
1863.46
1879.97
1895.27
1909.61
1923.26
1936.2
1947.95
1958.36
1967.61
1975.82
1983.11
1989.59
1995.25
2000
2003.87
2006.86
2009.12
2010.96
2012.56
2007.75
1996.47
1984.48
1971.8
1958.58
1945.14
1931.78
1918.33
1904.61
1890.35
1875.39
1859.73
1843.37
1826.41
1809.13
1791.72
1774.15
1756.28
1737.92
1718.89
1699.08
1678.39
1656.75
1634.22
1610.82
1586.62
1562
1537.27
1512.24
1486.34
1458.97
1431.07
1402.6
1373.57
1344
1314
1284.04
1254.5
1225.46
1196.82
1168.57
1140.67
1113.18
1086.1
1059.5
1033.43
1007.97
983.254
959.542
937.089
915.947
896.035
877.216
859.343
842.226
825.681
809.551
793.669
777.854
761.77
745.231
728.136
710.387
691.92
672.768
653.12
632.984
612.35
591.198
569.543
547.423
524.921
502.16
479.315
456.591
434.261
412.665
392.191
373.277
356.386
342.043
330.932
323.621
320.246
320.782
325.591
334.734
348.636
368.641
76.1343
72.1321
72.4613
75.3765
80.1912
86.3093
93.2911
100.886
108.988
117.566
126.629
136.19
146.261
156.849
167.954
179.578
191.714
204.354
217.493
231.123
245.247
259.861
274.978
290.636
306.876
323.59
340.771
358.497
376.92
396.284
416.844
438.373
460.611
483.277
506.113
528.923
551.575
573.972
596.04
617.712
638.928
659.634
679.776
699.314
718.221
736.481
754.106
771.061
787.311
802.815
817.536
831.449
844.628
857.19
869.239
880.8
891.84
902.388
912.512
922.342
931.801
940.913
949.696
958.135
966.165
973.729
980.823
987.35
993.275
998.601
1003.37
1007.62
1011.43
1014.87
1017.99
1020.85
1023.46
1025.8
1027.85
1029.62
1031.08
1032.22
1033.06
1033.63
1033.89
1033.83
1033.41
1032.61
1031.43
1029.85
1027.8
1022.16
1013.35
1004.44
995.485
986.504
977.746
969.01
960.267
951.488
942.599
933.542
924.279
914.787
905.045
895.153
885.151
875.056
864.841
854.448
843.846
833.032
822.052
810.969
799.762
788.402
776.878
765.205
753.377
741.338
729.027
716.447
703.769
691.115
678.488
665.84
653.154
640.455
627.76
615.06
602.342
589.702
577.303
565.243
553.529
542.156
531.122
520.434
510.128
500.241
490.817
481.87
473.431
465.596
458.482
452.123
446.431
441.265
436.469
431.881
427.31
422.615
417.718
412.587
407.239
401.756
396.247
390.707
385.058
379.193
373.016
366.461
359.487
352.081
344.271
336.107
327.683
319.142
310.678
302.542
295.036
288.536
283.501
280.336
279.354
280.756
284.764
291.512
301.547
316.156
93.7006
81.3752
77.5813
77.8216
80.7829
85.4845
91.2517
97.7036
104.665
112.071
119.904
128.16
136.837
145.928
155.422
165.305
175.558
186.166
197.112
208.393
220.011
231.978
244.325
257.018
270.052
283.472
297.263
311.438
326.074
341.365
357.181
373.296
389.478
405.513
421.23
436.498
451.223
465.332
478.768
491.482
503.437
514.61
524.988
534.583
543.424
551.553
559.023
565.886
572.194
577.991
583.33
588.256
592.814
597.041
600.955
604.566
607.878
610.902
613.653
616.137
618.336
620.263
621.922
623.323
624.466
625.366
626.022
626.44
626.649
626.675
626.552
626.319
626.002
625.622
625.194
624.733
624.247
623.734
623.205
622.635
622.022
621.359
620.641
619.854
618.989
618.014
616.906
615.653
614.243
612.668
610.901
607.188
601.757
596.411
591.163
586.136
581.146
576.143
571.109
566.034
560.903
555.7
550.411
545.039
539.605
534.115
528.581
523.014
517.398
511.72
505.972
500.154
494.265
488.316
482.307
476.248
470.149
464.007
457.819
451.586
445.334
439.117
432.962
426.853
420.767
414.707
408.685
402.723
396.856
391.102
385.425
379.779
374.147
368.546
363.016
357.606
352.401
347.464
342.806
338.411
334.248
330.291
326.537
323.01
319.752
316.789
314.137
311.825
309.871
308.226
306.779
305.414
304.046
302.631
301.154
299.651
298.179
296.763
295.405
294.083
292.75
291.338
289.77
287.979
285.929
283.603
281.011
278.199
275.251
272.302
269.518
267.11
265.337
264.359
264.587
266.147
269.186
273.848
280.603
290.369
118.163
92.8612
83.5652
80.636
81.65
85.0502
89.8378
95.4584
101.648
108.295
115.355
122.807
130.631
138.806
147.305
156.098
165.155
174.448
183.953
193.666
203.581
213.695
224.02
234.631
245.588
256.832
268.22
279.742
291.476
303.537
315.885
328.141
340.098
351.607
362.557
372.865
382.471
391.327
399.403
406.684
413.177
418.91
423.933
428.309
432.116
435.426
438.314
440.839
443.049
444.966
446.62
448.025
449.193
450.135
450.854
451.359
451.66
451.769
451.699
451.465
451.079
450.558
449.912
449.162
448.322
447.41
446.438
445.422
444.38
443.327
442.281
441.268
440.291
439.361
438.483
437.668
436.921
436.246
435.641
435.101
434.621
434.195
433.809
433.452
433.106
432.756
432.387
431.99
431.561
431.098
430.62
428.877
425.976
423.177
420.5
417.922
415.353
412.769
410.162
407.523
404.846
402.119
399.361
396.564
393.729
390.859
387.961
385.04
382.09
379.11
376.093
373.038
369.947
366.814
363.639
360.427
357.185
353.917
350.626
347.316
343.995
340.669
337.338
333.998
330.646
327.29
323.938
320.604
317.296
314.03
310.807
307.635
304.522
301.473
298.494
295.594
292.785
290.08
287.481
284.992
282.645
280.484
278.506
276.699
275.049
273.547
272.186
270.984
269.949
269.087
268.383
267.842
267.445
267.162
266.948
266.793
266.707
266.697
266.76
266.889
267.075
267.308
267.569
267.826
268.034
268.147
268.135
267.987
267.723
267.407
267.092
266.88
266.949
267.321
268.217
269.796
272.151
275.371
279.77
285.919
149.69
106.337
90.132
83.592
82.5841
84.7561
88.705
93.6697
99.2826
105.381
111.893
118.777
126
133.523
141.301
149.287
157.434
165.708
174.091
182.57
191.146
199.848
208.752
217.913
227.256
236.702
246.172
255.629
265.116
274.775
284.445
293.76
302.608
310.897
318.553
325.516
331.746
337.224
341.953
345.964
349.309
352.058
354.288
356.083
357.521
358.667
359.57
360.263
360.77
361.09
361.238
361.22
361.044
360.719
360.256
359.669
358.974
358.189
357.333
356.421
355.469
354.495
353.511
352.53
351.569
350.635
349.734
348.874
348.064
347.312
346.636
346.039
345.524
345.099
344.767
344.537
344.413
344.398
344.494
344.695
345
345.397
345.876
346.423
347.021
347.655
348.313
348.989
349.675
350.393
351.142
350.885
349.693
348.575
347.544
346.53
345.51
344.469
343.4
342.293
341.151
339.973
338.762
337.517
336.239
334.93
333.593
332.227
330.832
329.405
327.946
326.452
324.923
323.357
321.753
320.114
318.445
316.748
315.027
313.282
311.513
309.718
307.894
306.041
304.157
302.245
300.311
298.363
296.401
294.432
292.46
290.497
288.55
286.626
284.73
282.872
281.055
279.279
277.545
275.858
274.234
272.703
271.283
269.989
268.843
267.852
266.996
266.264
265.636
265.104
264.661
264.31
264.062
263.937
263.958
264.135
264.457
264.907
265.466
266.119
266.846
267.64
268.492
269.397
270.354
271.352
272.358
273.335
274.272
275.212
276.152
277.123
278.16
279.245
280.505
282.099
284.11
286.586
289.704
293.765
188.745
121.821
97.2447
86.6769
83.6099
84.6145
87.8139
92.2188
97.3518
102.997
109.054
115.466
122.187
129.157
136.311
143.595
150.966
158.395
165.868
173.372
180.92
188.563
196.372
204.315
212.334
220.336
228.236
236.008
243.756
251.505
259.02
266.123
272.716
278.725
284.094
288.785
292.788
296.115
298.811
300.935
302.564
303.778
304.659
305.278
305.691
305.937
306.039
306.014
305.863
305.591
305.209
304.727
304.159
303.52
302.822
302.082
301.319
300.547
299.783
299.041
298.332
297.67
297.061
296.518
296.048
295.654
295.335
295.101
294.95
294.9
294.949
295.095
295.343
295.698
296.162
296.745
297.452
298.285
299.247
300.336
301.547
302.87
304.294
305.804
307.379
309.006
310.671
312.371
314.105
315.879
317.693
318.596
318.642
318.734
318.845
318.944
319.016
319.053
319.051
319.007
318.918
318.787
318.613
318.4
318.152
317.868
317.549
317.194
316.802
316.371
315.9
315.387
314.831
314.229
313.585
312.9
312.176
311.416
310.621
309.791
308.927
308.027
307.088
306.109
305.09
304.031
302.934
301.805
300.646
299.461
298.251
297.019
295.769
294.506
293.237
291.971
290.714
289.471
288.243
287.037
285.86
284.726
283.647
282.636
281.72
280.91
280.206
279.614
279.129
278.739
278.428
278.182
278
277.895
277.887
278.005
278.271
278.702
279.286
279.993
280.791
281.662
282.594
283.578
284.614
285.706
286.857
288.056
289.29
290.557
291.85
293.159
294.468
295.768
297.126
298.65
300.41
302.447
304.85
307.751
235.487
139.287
104.94
89.9529
84.774
84.6603
87.1638
91.0544
95.7443
100.966
106.594
112.556
118.798
125.252
131.832
138.478
145.169
151.882
158.6
165.309
172.029
178.819
185.719
192.649
199.543
206.324
212.935
219.402
225.761
231.945
237.837
243.302
248.255
252.641
256.429
259.604
262.187
264.216
265.755
266.873
267.651
268.166
268.477
268.635
268.673
268.612
268.464
268.238
267.932
267.559
267.134
266.672
266.19
265.705
265.229
264.774
264.356
263.988
263.677
263.432
263.262
263.177
263.183
263.284
263.486
263.792
264.191
264.703
265.328
266.062
266.906
267.861
268.931
270.12
271.431
272.87
274.447
276.161
278.014
280.005
282.129
284.373
286.725
289.167
291.682
294.252
296.869
299.527
302.223
304.962
307.738
309.627
310.669
311.716
312.74
313.725
314.665
315.553
316.386
317.162
317.882
318.545
319.154
319.712
320.222
320.687
321.105
321.477
321.8
322.074
322.296
322.463
322.577
322.636
322.639
322.589
322.489
322.34
322.144
321.902
321.612
321.276
320.889
320.45
319.961
319.423
318.84
318.213
317.546
316.842
316.103
315.328
314.52
313.681
312.813
311.927
311.031
310.128
309.222
308.317
307.421
306.544
305.693
304.874
304.105
303.394
302.746
302.17
301.672
301.252
300.904
300.624
300.405
300.244
300.14
300.112
300.187
300.393
300.746
301.25
301.879
302.613
303.426
304.299
305.219
306.184
307.196
308.263
309.389
310.574
311.807
313.064
314.309
315.515
316.709
317.967
319.352
320.916
322.7
324.768
289.737
158.736
113.286
93.515
86.1368
84.9105
86.7455
90.1366
94.3865
99.1796
104.369
109.871
115.627
121.572
127.619
133.695
139.773
145.848
151.91
157.952
163.993
170.078
176.191
182.242
188.182
193.965
199.567
204.994
210.224
215.218
219.893
224.144
227.917
231.178
233.913
236.13
237.864
239.166
240.102
240.746
241.165
241.419
241.551
241.594
241.573
241.499
241.382
241.228
241.041
240.838
240.635
240.447
240.293
240.188
240.139
240.156
240.248
240.421
240.679
241.03
241.478
242.033
242.708
243.497
244.405
245.45
246.622
247.919
249.343
250.89
252.563
254.359
256.281
258.333
260.515
262.837
265.302
267.912
270.668
273.567
276.605
279.766
283.035
286.395
289.83
293.325
296.87
300.457
304.083
307.75
311.449
314.242
316.16
318.03
319.848
321.605
323.294
324.911
326.452
327.917
329.307
330.623
331.869
333.048
334.164
335.219
336.213
337.146
338.016
338.824
339.565
340.239
340.847
341.388
341.863
342.271
342.615
342.897
343.117
343.273
343.367
343.399
343.368
343.274
343.12
342.908
342.643
342.325
341.959
341.547
341.092
340.596
340.061
339.485
338.872
338.226
337.554
336.859
336.147
335.422
334.69
333.957
333.229
332.514
331.823
331.163
330.532
329.938
329.388
328.884
328.429
328.024
327.671
327.367
327.101
326.89
326.747
326.69
326.735
326.896
327.176
327.57
328.07
328.654
329.305
330.007
330.752
331.541
332.378
333.27
334.216
335.204
336.196
337.154
338.082
339.028
340.04
341.166
342.425
343.855
351.121
180.243
122.394
97.459
87.757
85.3659
86.5192
89.4101
93.2106
97.5585
102.289
107.313
112.571
118.004
123.538
129.091
134.626
140.143
145.635
151.109
156.578
162.038
167.448
172.76
177.926
182.919
187.716
192.301
196.66
200.756
204.524
207.906
210.867
213.386
215.463
217.115
218.383
219.322
220
220.477
220.806
221.034
221.198
221.321
221.422
221.51
221.591
221.672
221.76
221.872
222.025
222.234
222.515
222.881
223.342
223.897
224.551
225.304
226.156
227.119
228.195
229.389
230.728
232.212
233.843
235.627
237.566
239.657
241.901
244.294
246.833
249.515
252.339
255.306
258.412
261.667
265.071
268.622
272.323
276.169
280.152
284.258
288.472
292.777
297.157
301.598
306.093
310.631
315.205
319.812
324.445
328.124
330.825
333.449
335.994
338.453
340.82
343.089
345.259
347.331
349.305
351.186
352.977
354.682
356.304
357.845
359.306
360.686
361.986
363.206
364.345
365.404
366.384
367.285
368.109
368.855
369.522
370.111
370.622
371.055
371.41
371.691
371.895
372.025
372.082
372.073
372.001
371.868
371.678
371.434
371.139
370.795
370.404
369.967
369.489
368.975
368.423
367.838
367.222
366.582
365.922
365.249
364.568
363.884
363.207
362.551
361.894
361.249
360.622
360.014
359.429
358.868
358.335
357.832
357.361
356.928
356.542
356.212
355.949
355.765
355.667
355.662
355.752
355.933
356.195
356.524
356.906
357.326
357.781
358.273
358.807
359.38
359.975
360.56
361.13
361.706
362.314
362.993
363.737
364.582
419.276
203.987
132.399
101.852
89.6598
86.0272
86.4498
88.8112
92.1475
96.0377
100.296
104.831
109.584
114.508
119.543
124.617
129.672
134.7
139.703
144.684
149.635
154.537
159.358
164.058
168.603
172.963
177.117
181.052
184.751
188.184
191.315
194.113
196.552
198.621
200.324
201.685
202.747
203.565
204.2
204.697
205.101
205.454
205.785
206.113
206.451
206.806
207.184
207.587
208.031
208.534
209.112
209.78
210.551
211.436
212.439
213.562
214.8
216.154
217.619
219.206
220.929
222.797
224.821
227.013
229.382
231.932
234.667
237.585
240.689
243.972
247.431
251.059
254.853
258.809
262.922
267.194
271.621
276.199
280.926
285.794
290.794
295.913
301.135
306.445
311.83
317.279
322.784
328.331
333.911
339.518
345.14
349.679
353.122
356.454
359.672
362.773
365.751
368.605
371.334
373.941
376.43
378.802
381.062
383.213
385.257
387.195
389.027
390.756
392.382
393.91
395.341
396.677
397.921
399.077
400.144
401.12
402.008
402.805
403.51
404.124
404.647
405.083
405.436
405.7
405.88
405.982
406.012
405.972
405.865
405.694
405.464
405.175
404.829
404.429
403.982
403.5
402.973
402.405
401.801
401.167
400.506
399.821
399.116
398.398
397.671
396.941
396.205
395.465
394.723
393.981
393.239
392.502
391.772
391.053
390.349
389.664
389.006
388.383
387.803
387.274
386.805
386.401
386.069
385.81
385.624
385.504
385.439
385.419
385.433
385.476
385.545
385.64
385.754
385.877
386.002
386.139
386.297
386.501
386.725
387.011
494.278
230.236
143.403
106.708
91.8211
86.8558
86.5007
88.3042
91.1585
94.5825
98.3688
102.419
106.678
111.104
115.656
120.279
124.909
129.511
134.085
138.63
143.132
147.566
151.894
156.09
160.132
163.997
167.662
171.115
174.342
177.327
180.05
182.492
184.636
186.474
188.015
189.283
190.321
191.186
191.926
192.577
193.179
193.768
194.365
194.989
195.648
196.349
197.094
197.887
198.753
199.71
200.777
201.97
203.3
204.773
206.387
208.134
210.008
212.018
214.162
216.448
218.888
221.497
224.287
227.276
230.47
233.878
237.505
241.349
245.411
249.686
254.168
258.848
263.718
268.771
273.998
279.395
284.953
290.663
296.516
302.501
308.606
314.819
321.128
327.522
333.996
340.545
347.15
353.804
360.496
367.21
373.855
379.196
383.324
387.297
391.11
394.766
398.261
401.599
404.782
407.816
410.709
413.464
416.086
418.576
420.939
423.168
425.261
427.226
429.068
430.79
432.4
433.901
435.297
436.595
437.794
438.893
439.893
440.792
441.59
442.286
442.882
443.38
443.794
444.106
444.32
444.447
444.489
444.453
444.34
444.156
443.902
443.582
443.2
442.757
442.257
441.706
441.106
440.462
439.782
439.069
438.327
437.556
436.76
435.942
435.104
434.247
433.371
432.478
431.57
430.648
429.712
428.763
427.805
426.838
425.868
424.899
423.939
422.995
422.073
421.182
420.328
419.517
418.753
418.037
417.371
416.755
416.187
415.661
415.17
414.708
414.271
413.852
413.447
413.048
412.66
412.289
411.941
411.631
411.318
411.051
576.897
259.193
155.455
112.022
94.2215
87.8304
86.6538
87.8793
90.2457
93.2089
96.5378
100.127
103.919
107.877
111.971
116.164
120.405
124.642
128.852
133.025
137.148
141.194
145.134
148.941
152.595
156.087
159.406
162.538
165.472
168.199
170.707
172.982
175.013
176.796
178.344
179.681
180.85
181.9
182.875
183.809
184.732
185.674
186.652
187.683
188.774
189.928
191.143
192.439
193.845
195.383
197.072
198.928
200.96
203.169
205.55
208.089
210.777
213.612
216.596
219.744
223.076
226.609
230.357
234.338
238.56
243.03
247.752
252.724
257.945
263.407
269.102
275.014
281.132
287.445
293.936
300.594
307.401
314.34
321.398
328.559
335.815
343.159
350.595
358.132
365.771
373.5
381.309
389.188
397.137
404.952
412.489
418.554
423.233
427.692
431.935
435.967
439.792
443.419
446.856
450.118
453.216
456.156
458.941
461.58
464.088
466.443
468.633
470.676
472.579
474.351
475.997
477.525
478.94
480.246
481.444
482.535
483.517
484.389
485.153
485.807
486.352
486.792
487.132
487.37
487.509
487.552
487.506
487.373
487.156
486.859
486.489
486.049
485.543
484.978
484.355
483.678
482.946
482.163
481.329
480.453
479.537
478.589
477.609
476.598
475.557
474.489
473.395
472.277
471.135
469.969
468.778
467.56
466.314
465.044
463.755
462.453
461.146
459.84
458.545
457.267
456.009
454.775
453.568
452.387
451.234
450.11
449.014
447.946
446.902
445.881
444.881
443.896
442.922
441.954
440.993
440.047
439.121
438.234
437.334
436.481
668.208
291.162
168.656
117.831
96.8821
88.9736
86.9384
87.5766
89.4644
91.9911
94.8979
98.068
101.443
104.987
108.675
112.479
116.361
120.274
124.192
128.084
131.919
135.67
139.321
142.862
146.278
149.553
152.68
155.654
158.469
161.116
163.586
165.873
167.972
169.885
171.623
173.211
174.691
176.104
177.491
178.889
180.325
181.821
183.389
185.045
186.793
188.636
190.586
192.68
194.94
197.387
200.037
202.905
205.994
209.301
212.81
216.5
220.358
224.376
228.554
232.913
237.476
242.278
247.346
252.695
258.326
264.235
270.422
276.879
283.598
290.564
297.759
305.166
312.765
320.537
328.452
336.485
344.607
352.791
361.017
369.271
377.557
385.894
394.334
402.934
411.676
420.611
429.712
438.911
447.795
456.33
464.541
471.05
475.961
480.577
484.905
488.961
492.749
496.292
499.618
502.751
505.705
508.491
511.112
513.576
515.894
518.066
520.088
521.966
523.705
525.312
526.794
528.157
529.407
530.545
531.572
532.486
533.289
533.98
534.557
535.024
535.382
535.635
535.784
535.831
535.779
535.629
535.386
535.05
534.626
534.118
533.533
532.877
532.155
531.374
530.537
529.647
528.707
527.714
526.665
525.56
524.399
523.188
521.925
520.615
519.265
517.881
516.468
515.023
513.546
512.033
510.481
508.888
507.257
505.591
503.895
502.176
500.442
498.698
496.955
495.217
493.489
491.773
490.071
488.386
486.724
485.084
483.462
481.854
480.258
478.671
477.089
475.51
473.929
472.347
470.763
469.184
467.615
466.077
464.521
463.022
770.259
326.482
183.11
124.189
99.8595
90.3559
87.4429
87.5068
88.9519
91.0931
93.6417
96.4701
99.5139
102.736
106.108
109.61
113.219
116.89
120.591
124.301
127.98
131.581
135.095
138.523
141.872
145.137
148.305
151.355
154.278
157.078
159.744
162.283
164.702
167.008
169.224
171.379
173.506
175.644
177.84
180.117
182.488
184.971
187.581
190.338
193.265
196.406
199.837
203.522
207.45
211.629
216.073
220.785
225.761
230.98
236.405
241.979
247.69
253.541
259.533
265.687
272.03
278.596
285.413
292.525
299.906
307.524
315.391
323.503
331.861
340.467
349.289
358.298
367.466
376.767
386.152
395.573
404.983
414.329
423.577
432.716
441.772
450.807
459.883
469.059
478.664
488.67
498.554
508.021
517.072
525.705
533.938
540.223
544.7
548.842
552.657
556.156
559.317
562.195
564.853
567.327
569.638
571.799
573.813
575.686
577.423
579.027
580.498
581.842
583.067
584.178
585.182
586.083
586.884
587.585
588.186
588.683
589.077
589.366
589.553
589.639
589.626
589.518
589.314
589.017
588.626
588.142
587.565
586.897
586.141
585.302
584.389
583.41
582.372
581.281
580.144
578.963
577.742
576.475
575.157
573.779
572.333
570.826
569.267
567.65
565.973
564.236
562.441
560.593
558.69
556.731
554.714
552.645
550.528
548.371
546.175
543.946
541.688
539.41
537.117
534.817
532.514
530.211
527.913
525.626
523.36
521.116
518.891
516.685
514.492
512.31
510.132
507.956
505.773
503.574
501.357
499.124
496.879
494.65
492.387
490.19
891.623
367.352
199.592
131.458
103.39
92.1814
88.3744
87.8937
88.96
90.8114
93.1221
95.7468
98.6121
101.674
104.903
108.277
111.786
115.399
119.075
122.79
126.51
130.201
133.852
137.475
141.085
144.689
148.292
151.864
155.345
158.73
162.05
165.343
168.633
171.961
175.388
179.011
182.741
186.584
190.58
194.736
199.072
203.611
208.369
213.369
218.651
224.304
230.389
236.712
243.253
250.031
257.101
264.467
272.103
279.963
287.987
296.128
304.367
312.679
321.049
329.49
338.019
346.662
355.435
364.353
373.451
382.732
392.191
401.817
411.615
421.589
431.715
441.969
452.356
462.85
473.374
483.868
494.276
504.53
514.584
524.424
534.044
543.527
553.399
563.532
573.517
582.977
591.95
600.423
608.398
615.91
622.984
629.703
636.131
642.282
648.186
653.873
656.717
658.158
659.453
660.615
661.653
662.588
663.424
664.163
664.797
665.326
665.747
666.064
666.282
666.408
666.448
666.409
666.291
666.097
665.82
665.458
665.008
664.473
663.855
663.155
662.377
661.52
660.585
659.572
658.476
657.297
656.031
654.679
653.243
651.727
650.143
648.498
646.801
645.061
643.284
641.476
639.639
637.775
635.878
633.943
631.965
629.939
627.86
625.716
623.498
621.201
618.816
616.34
613.786
611.155
608.447
605.664
602.812
599.894
596.918
593.887
590.811
587.694
584.545
581.368
578.172
574.959
571.732
568.499
565.269
562.048
558.839
555.645
552.472
549.318
546.178
543.052
539.93
536.797
533.645
530.466
527.257
524.037
520.761
517.559
1022.57
408.458
215.791
138.776
107.311
94.6689
90.2119
89.4438
90.4146
92.2894
94.6952
97.4322
100.485
103.804
107.356
111.078
114.934
118.943
123.139
127.548
132.043
136.491
140.911
145.366
149.928
154.685
159.749
164.773
169.75
174.798
179.993
185.363
190.974
196.892
203.261
210.197
217.303
224.622
232.228
240.063
248.165
256.554
265.223
274.148
283.277
292.474
301.718
311.117
320.765
330.72
340.982
351.517
362.254
373.101
383.97
394.832
405.618
416.261
426.742
437.083
447.325
457.521
467.716
477.956
488.26
498.625
509.028
519.429
529.817
540.184
550.551
560.921
571.321
581.71
592.025
602.232
612.326
622.226
631.823
641.26
650.684
660.242
669.455
678.227
686.394
693.971
701.052
705.834
708.116
709.973
711.416
712.471
713.183
713.611
713.806
713.831
713.79
713.701
713.575
713.42
713.242
713.027
712.769
712.461
712.1
711.683
711.208
710.675
710.087
709.449
708.764
708.032
707.254
706.429
705.554
704.629
703.653
702.623
701.542
700.411
699.235
698.015
696.746
695.426
694.048
692.609
691.104
689.531
687.892
686.193
684.442
682.639
680.793
678.906
676.984
675.035
673.061
671.068
669.053
667.025
664.985
662.936
660.869
658.767
656.612
654.39
652.095
649.715
647.244
644.678
642.021
639.273
636.438
633.519
630.518
627.444
624.303
621.102
617.847
614.539
611.177
607.777
604.351
600.907
597.451
593.989
590.525
587.061
583.6
580.142
576.691
573.245
569.801
566.356
562.901
559.429
555.928
552.413
548.824
545.305
1163.51
449.105
231.364
146.212
111.984
98.4144
93.7885
93.2587
94.7628
97.4749
101.084
104.145
108.227
112.836
117.975
123.304
128.743
134.589
141.095
147.762
154.397
161.034
167.853
174.992
182.585
190.871
199.954
208.767
217.757
227.125
236.974
247.398
258.496
270.058
282.06
294.23
306.763
319.698
332.987
346.54
360.285
374.155
388.074
401.976
415.816
429.574
443.335
457.215
471.277
485.42
499.544
513.53
527.236
540.514
553.249
565.368
576.845
587.683
597.922
607.643
616.944
625.939
634.75
643.518
652.252
660.926
669.514
677.915
686.198
694.441
702.696
710.953
719.145
727.266
735.277
743.156
750.986
758.105
761.797
765.183
768.318
771.214
773.602
775.505
776.986
778.089
778.86
779.356
779.603