/*--------------------------------*- C++ -*----------------------------------*\
| =========                 |                                                 |
| \\      /  F ield         | OpenFOAM: The Open Source CFD Toolbox           |
|  \\    /   O peration     | Version:  2112                                  |
|   \\  /    A nd           | Website:  www.openfoam.com                      |
|    \\/     M anipulation  |                                                 |
\*---------------------------------------------------------------------------*/
FoamFile
{
    version     2.0;
    format      ascii;
    arch        "LSB;label=32;scalar=64";
    class       volScalarField;
    location    "0.39";
    object      omega;
}
// * * * * * * * * * * * * * * * * * * * * * * * * * * * * * * * * * * * * * //

dimensions      [0 0 -1 0 0 0 0];

internalField   nonuniform List<scalar> 
12225
(
5753.31
8260.38
9141.9
9328.41
9235.81
9033.32
8788.87
8532.01
8277.66
8034.45
7807.6
7600.11
7413.23
7246.59
7098.1
6963.7
6837.73
6702.27
343.279
778.327
1191.54
1553.18
1854.64
2100.96
2302.48
2468.96
2608.01
2725.29
2824.97
2910.21
2983.55
3047.34
3104.06
3157.2
3215.35
3300.89
48.9569
79.8431
130.015
197.718
277.478
362.725
448.083
529.642
604.774
671.972
730.637
780.864
823.291
859.077
890.116
919.62
953.914
1003.93
39.7233
40.9805
44.1557
50.1082
59.3808
71.9643
87.4587
105.194
124.325
143.962
163.292
181.668
198.669
214.143
228.267
241.662
255.68
272.417
39.497
39.429
39.4763
39.7396
40.3409
41.3801
42.9157
44.9575
47.4617
50.338
53.4676
56.7241
59.9965
63.2104
66.3506
69.4885
72.8015
76.6037
39.4901
39.3742
39.2687
39.1799
39.119
39.0988
39.1307
39.2232
39.3795
39.5968
39.8659
40.1742
40.508
40.8561
41.2137
41.5864
41.9913
42.4567
39.4883
39.3694
39.2571
39.1514
39.0533
38.9636
38.8828
38.8113
38.7495
38.6974
38.6543
38.619
38.5903
38.5671
38.5494
38.5386
38.5391
38.5584
39.487
39.3671
39.2537
39.1467
39.046
38.9516
38.863
38.7799
38.702
38.629
38.5606
38.4965
38.4365
38.3806
38.3292
38.2839
38.2474
38.224
39.4861
39.3654
39.2513
39.1435
39.0419
38.9462
38.8563
38.7716
38.6917
38.6165
38.5455
38.4787
38.4159
38.3571
38.3028
38.2538
38.2119
38.1787
39.4856
39.3643
39.2497
39.1414
39.0391
38.9428
38.852
38.7663
38.6854
38.6091
38.537
38.469
38.4051
38.3452
38.2895
38.2385
38.1928
38.1528
39.4864
39.3658
39.2516
39.1437
39.0418
38.9456
38.8547
38.7689
38.6878
38.6111
38.5387
38.4703
38.4059
38.3454
38.2888
38.2363
38.1878
38.143
39.4893
39.3712
39.2595
39.1537
39.0536
38.959
38.8696
38.785
38.7049
38.6292
38.5576
38.4899
38.4261
38.366
38.3095
38.2564
38.2067
38.1597
39.4931
39.3787
39.2702
39.1675
39.0702
38.9781
38.891
38.8084
38.7303
38.6563
38.5862
38.52
38.4573
38.3982
38.3424
38.2898
38.2399
38.1922
39.497
39.3862
39.2811
39.1815
39.087
38.9976
38.9128
38.8325
38.7563
38.6841
38.6158
38.551
38.4897
38.4317
38.3768
38.3247
38.2751
38.2275
39.5001
39.3921
39.2895
39.1923
39.1
39.0125
38.9295
38.8508
38.7762
38.7054
38.6382
38.5746
38.5142
38.457
38.4027
38.351
38.3018
38.2547
39.5021
39.396
39.2951
39.1994
39.1085
39.0222
38.9403
38.8625
38.7887
38.7187
38.6522
38.5891
38.5292
38.4724
38.4184
38.367
38.3182
38.2716
39.5033
39.3984
39.2986
39.2037
39.1135
39.0279
38.9465
38.8692
38.7957
38.726
38.6597
38.5967
38.537
38.4802
38.4263
38.3751
38.3264
38.2802
39.5041
39.3998
39.3006
39.2062
39.1164
39.031
38.9498
38.8726
38.7992
38.7294
38.663
38.6
38.5401
38.4832
38.4291
38.3777
38.3289
38.2826
39.5039
39.3995
39.3001
39.2054
39.1153
39.0294
38.9478
38.87
38.796
38.7256
38.6587
38.595
38.5344
38.4767
38.4219
38.3697
38.3201
38.2729
39.5027
39.3972
39.2967
39.2009
39.1096
39.0227
38.9398
38.8609
38.7857
38.714
38.6458
38.5809
38.519
38.46
38.4038
38.3502
38.2991
38.2505
39.5003
39.3925
39.2897
39.1918
39.0983
39.0092
38.9242
38.8432
38.766
38.6923
38.622
38.555
38.4911
38.4301
38.3719
38.3163
38.2632
38.2124
39.4954
39.3829
39.2756
39.1732
39.0755
38.9822
38.8932
38.8083
38.7273
38.65
38.5762
38.5057
38.4385
38.3742
38.3128
38.2541
38.198
38.1443
39.4884
39.3691
39.2554
39.1468
39.0433
38.9445
38.8502
38.7603
38.6744
38.5925
38.5144
38.4398
38.3687
38.3009
38.2363
38.1748
38.1162
38.0605
39.4855
39.3634
39.2469
39.1357
39.0297
38.9287
38.8324
38.7406
38.6533
38.5703
38.4917
38.4176
38.3481
38.2837
38.2248
38.172
38.126
38.0877
39.486
39.3642
39.2477
39.1367
39.0313
38.9321
38.8399
38.7559
38.6819
38.6203
38.5743
38.548
38.5461
38.5742
38.639
38.7474
38.9069
39.1248
39.487
39.3679
39.2598
39.1692
39.1074
39.0896
39.1342
39.263
39.501
39.8763
40.4196
41.1638
42.144
43.3959
44.9551
46.8551
49.1258
51.7886
39.5031
39.503
39.7385
40.3718
41.5856
43.5397
46.3684
50.1891
55.1016
61.1885
68.5173
77.1417
87.0995
98.4102
111.071
125.056
140.309
156.748
41.0271
47.3607
59.4152
77.9107
102.782
133.19
168.159
206.803
248.34
292.113
337.601
384.394
432.18
480.716
529.796
579.243
628.872
678.601
149.371
343.464
558.566
772.073
970.498
1148.47
1306.3
1446.48
1571.93
1685.46
1789.45
1885.87
1976.24
2061.74
2143.06
2220.62
2294.64
2365.24
3775.07
5776.55
6696.99
7058.63
7151.79
7118.12
7023.37
6897.85
6755.78
6603.97
6445.71
6282.66
6115.7
5945.41
5772.24
5596.66
5419.04
5240.46
467.923
491.406
487.023
479.585
473.544
470.508
471.057
474.277
475.04
470.545
457.196
431.86
395.169
357.438
339.475
366.082
461.689
648.544
945.56
1328.13
1610.79
1845.64
2039.93
2193.85
2309.67
2390.68
2440.44
2462.36
2459.57
2434.85
2390.62
2328.89
2251.43
2159.82
2055.45
1944.8
1834.96
1725.48
1616.27
1507.6
1399.89
1293.67
1189.48
1087.97
989.83
895.83
806.777
723.506
646.857
577.649
516.652
464.572
422.036
389.583
367.657
356.653
356.988
369.543
390.747
419.541
455.905
499.188
548.674
603.743
663.866
728.567
797.415
870.055
946.472
1027.86
1118.34
1225.29
1351.1
1470.17
1540.15
1560.17
1544.08
1513.71
1481.68
1445.63
1397.9
1337.41
1279.42
1231.24
1183.97
1146.32
1131.37
1141.83
1163.84
1180.68
1178.81
1162.52
1138.44
1099.23
1043.48
1011.74
1066.52
1255.58
1567.58
1889.58
2136.68
2340.56
2497.32
2607.04
2671.71
2693.89
2676.16
2620.66
2529.3
2403.76
2244.21
2072.06
1890.2
1702.12
1512.53
1326.58
1149.66
987.557
846.494
733.016
653.967
616.823
632.477
710.054
826.602
985.915
1183.86
1414.12
1668.64
1937.78
2212.23
2488.42
2753.61
2930.99
3010.5
2987.88
2868.96
2676.41
2442.76
2197.76
1961.2
1743.85
1551.34
1386.85
1251.6
1144.47
1062.12
1000.05
953.645
918.926
892.661
872.332
856.015
842.273
830.048
818.556
807.151
795.212
782.073
766.995
749.227
728.199
703.993
677.99
653.166
633.089
619.606
613.047
614.659
624.833
644.178
673.649
714.635
769.622
843.321
941.507
1060.49
1166.39
1192.53
1129.04
964.891
654.735
530.313
468.485
429.045
398.647
372.826
350.197
340.712
346.452
371.535
423.907
518.515
673.567
891.132
1062.21
1160.67
1235.94
1296.15
1335.86
1342.51
1320.34
1271.32
1199.08
1108.65
1005.78
896.458
786.575
681.773
587.123
506.791
443.696
399.311
373.505
364.71
364.208
363.576
362.687
361.493
359.992
358.207
356.165
353.859
351.196
348.062
344.46
340.291
335.44
329.815
323.378
316.182
308.38
300.231
292.06
284.212
276.963
270.47
265.02
261.036
257.81
255.319
253.607
252.653
252.4
252.805
253.853
255.559
257.975
261.288
266.063
273.655
287.263
314.411
374.154
473.374
573.744
647.496
691.395
714.823
726.002
726.901
712.34
670.447
606.402
550.494
510.745
481.609
462.493
456.129
456.818
464.709
489.775
551.277
673.409
864.651
1075.4
1233.68
1303.76
1315.16
1280.51
1207.36
1107.66
991.083
867.254
745.187
632.958
537.533
464.437
417.301
396.57
402.503
409.696
417.313
425.265
433.54
442.227
451.176
460.28
469.531
478.824
487.894
496.188
502.572
505.135
504.2
499.824
491.74
479.604
466.743
453.952
442.087
434.546
455.255
579.511
759.973
941.539
1088.86
1188.42
1241.86
1254.6
1231.88
1178.42
1100.78
1008.26
911.258
818.676
736.395
667.074
610.87
566.438
531.826
505.047
484.378
468.471
456.371
447.485
441.506
438.289
437.712
439.537
443.318
448.331
453.555
457.763
459.682
458.208
452.924
443.741
427.927
406.168
379.811
350.633
320.992
294.141
276.205
272.602
286.505
321.419
382.687
434.686
1267.57
648.699
511.17
471.524
455.873
445.965
437.032
462.115
498.743
549.893
642.064
767.527
886.009
983.192
1045.96
1070.38
1068.4
1049.25
1015.06
965.849
902.444
828.625
748.746
667.989
591.637
524.236
468.932
427.101
398.36
380.897
372.029
368.854
368.779
369.866
370.486
370.358
369.469
367.876
365.701
363.108
360.285
357.403
354.58
351.847
349.122
346.211
342.819
338.587
333.143
326.177
317.515
307.206
295.556
283.109
270.578
258.661
247.865
239.144
232.532
227.068
222.7
219.404
217.16
215.935
215.686
216.367
217.925
220.316
223.508
227.506
232.382
238.301
245.558
254.352
264.596
276.608
294.126
318.568
351.284
392.242
438.215
483.113
520.056
538.354
525.631
484.83
441.672
418.76
413.24
419.381
448.237
522.925
661.874
851.782
1025.99
1099.44
1074.56
1003.59
907.845
799.27
689.791
589.483
505.514
441.642
398.148
372.605
360.989
358.808
361.998
367.444
373.674
380.207
386.914
393.685
400.477
407.319
414.316
421.619
429.367
437.651
446.394
455.107
462.477
466.567
467.766
465.729
460.44
452.272
441.856
429.894
416.974
403.549
390.016
379.501
391.415
433.847
498.462
570.423
638.196
695.685
739.729
767.188
774.944
761.715
729.367
682.763
628.369
572.49
519.95
473.589
434.475
402.448
376.674
356.051
339.481
326.038
315.074
306.249
299.499
294.934
292.688
292.744
294.757
297.956
301.224
303.391
303.497
301.092
296.287
286.466
271.179
251.256
229.02
208.403
195.298
195.869
212.129
242.714
292.284
359.384
1254
570.388
519.544
523.998
538.122
565.346
610.528
643.995
690.243
748.872
814.732
873.477
912
925.868
916.504
888.664
848.331
799.135
743.287
683.088
621.645
562.746
509.985
466.193
432.863
409.969
396.211
389.542
387.722
388.755
391.108
393.753
396.069
397.332
397.374
396.085
393.402
389.369
384.167
378.129
371.711
365.432
359.776
355.093
351.503
348.851
346.703
344.399
341.146
336.13
328.641
318.235
304.904
289.152
272.056
254.96
239.162
226.8
216.81
208.54
201.901
196.806
193.187
191.005
190.239
190.876
192.89
196.245
200.883
206.729
213.71
221.737
230.656
240.177
249.76
258.644
266.318
273.392
282.933
300.873
330.065
368.901
412.202
452.35
477.837
479.827
463.635
446.381
445.665
465.512
522.49
641.993
814.867
961.285
991.921
933.049
839.186
733.171
627.955
533.204
456.237
400.092
363.606
342.878
333.174
330.306
331.223
334.053
337.858
342.503
347.802
353.493
359.343
365.159
370.842
376.42
382.065
388.055
394.697
402.33
411.079
420.566
428.578
434.694
438.338
438.9
436.274
430.836
423.259
414.274
404.52
394.433
384.197
373.742
363.762
358.685
363.732
380.845
408.038
441.285
476.172
508.485
534.073
549.185
551.247
539.607
515.783
483.045
445.487
406.992
370.495
337.75
309.468
285.619
265.732
249.15
235.213
223.394
213.36
204.974
198.243
193.211
189.822
187.796
186.584
185.415
183.47
180.018
175.184
169.319
161.722
152.98
144.701
139.772
142.775
158.585
188.459
231.021
289.626
358.743
1059.35
574.875
588.563
604.756
628.56
657.778
684.651
713.568
745.023
774.99
797.98
808.223
802.876
782.677
750.517
709.972
664.424
616.56
568.932
524.222
485.027
453.357
430.177
415.31
407.637
405.497
407.126
410.968
415.826
420.871
425.565
429.562
432.615
434.426
435.113
434.323
431.672
426.832
419.647
410.244
399.121
387.135
375.373
364.924
356.61
350.77
347.173
345.075
343.38
340.85
336.241
328.419
316.614
300.63
281.342
260.394
240.41
224.311
210.45
198.782
189.256
181.764
176.207
172.529
170.724
170.816
172.836
176.791
182.648
190.315
199.635
210.375
222.185
234.546
246.724
257.868
267.337
275.08
281.964
290.466
304.589
327.398
359.012
395.592
430.174
455.127
467.539
472.975
489.051
535.513
628.005
768.785
900.9
923.157
852.274
752.108
646.475
547.466
463.382
399.274
355.762
329.482
315.387
308.798
306.391
306.273
307.618
310.181
313.903
318.933
324.665
330.703
336.671
342.287
347.416
352.113
356.641
361.43
366.954
373.909
382.493
391.385
399.905
407.322
412.552
414.845
414.015
410.422
404.749
397.738
390.009
381.977
373.858
365.674
357.264
348.697
341.266
337.324
338.915
346.823
360.268
377.121
394.407
408.928
417.794
418.862
411.117
394.905
371.86
344.456
315.347
286.782
260.296
236.691
216.179
198.585
183.541
170.639
159.536
149.991
141.866
135.08
129.566
125.179
121.648
118.603
115.629
112.349
108.49
104.646
101.148
98.5052
98.2562
103.112
117.042
143.861
184.052
236.278
301.068
362.076
849.518
634.871
646.974
655.148
666.808
678.449
691.592
704.517
714.879
719.892
717.033
704.775
683.241
653.985
619.348
581.924
544.254
508.679
477.31
451.794
433.031
421.036
415.043
413.786
415.83
419.854
424.822
430.029
435.069
439.744
443.972
447.701
450.883
454.375
457.874
460.823
462.501
462.062
458.633
451.489
440.317
425.501
408.281
390.599
374.579
361.825
352.914
347.334
343.843
341
337.388
331.499
321.977
307.687
288.719
266.266
244.876
225.709
208.526
193.701
181.344
171.406
163.8
158.472
155.435
154.76
156.551
160.899
167.846
177.349
189.243
203.184
218.571
234.495
249.797
263.312
274.286
282.71
289.25
295.251
303.277
316.284
336.551
364.205
396.713
430.697
463.193
495.368
541.948
622.785
735.199
849.864
882.509
811.499
709.482
604.957
509.406
430.142
371.248
332.334
309.293
296.803
290.395
287.232
285.963
286.212
288.043
291.578
296.754
303.107
309.864
316.542
322.707
328.051
332.453
336.042
339.22
342.59
346.841
352.999
360.187
368.478
377.185
385.159
391.216
394.534
394.891
392.638
388.461
383.078
377.041
370.674
364.112
357.37
350.394
343.095
335.386
327.828
321.531
317.67
317.025
319.669
324.754
330.585
335.077
336.266
332.656
323.466
308.8
289.639
267.582
244.41
221.676
200.472
181.397
164.646
150.14
137.663
126.961
117.799
109.987
103.37
97.8169
93.1895
89.3317
86.0673
83.2198
80.6419
78.2551
76.133
74.9594
75.4924
79.2572
89.0605
108.912
142.339
189.518
248.446
313.248
357.717
714.257
673.432
674.044
667.809
666.041
666.177
666.235
664.635
659.845
650.504
635.747
615.459
590.386
561.99
532.173
502.985
476.347
453.799
436.306
424.137
416.885
413.636
413.222
414.475
416.429
418.444
420.223
421.768
423.289
425.095
427.491
430.689
435.014
440.874
447.929
455.683
463.458
470.351
475.203
476.617
473.123
463.575
447.785
427.166
404.762
384.229
368.147
356.936
349.199
343.228
337.679
331.036
321.852
308.614
290.643
269.074
247.77
226.859
207.467
190.279
175.61
163.551
154.094
147.226
142.993
141.529
143.035
147.728
155.783
167.265
182.037
199.62
219.026
238.714
256.868
271.988
283.413
291.473
297.225
301.973
307.382
315.752
329.232
349.495
377.574
414.527
460.434
514.906
591.084
699.525
810.419
860.318
799.391
695.734
590.736
495.531
416.696
358.138
319.492
296.627
284.159
277.601
274.176
272.63
272.658
274.354
277.825
282.989
289.533
296.712
303.932
310.705
316.574
321.219
324.532
326.716
328.332
330.15
333.254
337.696
343.972
351.783
360.283
368.27
374.547
378.308
379.349
378.036
375.053
371.08
366.585
361.768
356.632
351.094
345.088
338.662
331.767
324.403
316.867
309.679
303.336
298.198
294.459
291.922
289.798
286.876
281.908
273.931
262.482
247.714
230.372
211.583
192.543
174.259
157.413
142.36
129.198
117.851
108.152
99.9056
92.9164
87.0104
82.0357
77.8601
74.3684
71.4619
69.0643
67.1326
65.6802
64.8259
64.9202
66.9211
72.5437
84.8163
108.044
145.864
198.32
261.497
320.879
345.414
710.119
677.649
668.643
656.204
647.692
639.587
630.563
619.902
606.952
591.172
572.376
550.861
527.467
503.48
480.403
459.669
442.352
428.995
419.554
413.483
409.902
407.804
406.265
404.607
402.482
399.879
397.068
394.507
392.735
392.272
393.527
396.735
402.186
409.722
419.083
429.912
441.747
453.978
465.763
475.883
482.598
483.663
476.735
460.633
437.019
410.824
387.854
370.913
358.679
348.848
340.101
330.993
320.03
306.114
288.316
268.458
247.044
225.482
205.011
186.464
170.294
156.718
145.842
137.737
132.514
130.383
131.662
136.735
145.975
159.627
177.615
199.224
222.809
245.891
265.922
281.299
291.84
298.5
302.802
306.282
310.343
316.776
327.378
343.83
368.847
406.99
461.722
532.836
632.587
757.65
841.539
813.291
704.445
596.091
498.509
416.919
355.284
313.969
289.335
276.036
269.347
266.184
265.01
265.303
267.018
270.221
274.865
280.708
287.298
294.286
301.245
307.638
312.955
316.843
319.163
320.165
320.543
321.246
323.101
326.796
332.563
340.028
348.248
355.998
362.151
365.995
367.392
366.733
364.701
361.945
358.851
355.503
351.768
347.433
342.331
336.495
330.063
323.049
315.54
307.731
299.785
291.72
283.564
275.537
267.84
260.283
252.262
243.031
232.015
219.005
204.242
188.347
172.126
156.357
141.639
128.34
116.619
106.474
97.8006
90.4399
84.2173
78.9662
74.5403
70.8195
67.7105
65.1478
63.0943
61.5477
60.5566
60.2662
61.0416
63.7576
70.2932
83.9783
109.465
150.663
207.408
272.202
322.69
328.591
869.202
659.044
646.757
633.073
621.141
608.549
594.85
580.032
563.974
546.533
527.793
508.176
488.462
469.66
452.766
438.513
427.204
418.676
412.379
407.525
403.266
398.876
393.878
388.112
381.722
375.099
368.8
363.459
359.694
358.022
358.789
362.141
368.214
376.61
387.075
399.28
412.849
427.376
442.416
457.372
471.239
482.253
487.23
481.927
463.684
435.466
406.412
383.927
367.674
354.542
342.898
331.396
317.937
302.78
284.866
264.603
242.967
221.154
200.269
181.137
164.262
149.903
138.209
129.326
123.449
120.878
122.062
127.588
138.098
154.098
175.576
201.428
229.081
254.92
275.77
290.324
299.227
304.103
306.739
308.818
311.887
317.421
327.049
342.369
366.508
405.951
466.727
550.114
667.302
792.959
831.382
740.805
618.554
515.518
428.73
361.352
314.798
286.441
271.176
263.931
261.027
260.33
260.847
262.274
264.629
267.999
272.397
277.672
283.44
289.805
296.266
302.198
307.06
310.474
312.276
312.752
312.673
313.036
314.742
318.46
324.342
331.869
339.991
347.514
353.456
357.248
358.828
358.619
357.315
355.555
353.667
351.64
349.231
346.11
341.989
336.78
330.655
323.73
316.151
308.099
299.687
290.782
281.055
270.386
259.129
247.798
236.59
225.273
213.426
200.727
187.135
172.925
158.584
144.652
131.593
119.721
109.193
100.037
92.1824
85.5004
79.8396
75.0498
70.9992
67.5817
64.7202
62.3667
60.5032
59.146
58.3607
58.3085
59.371
62.4509
69.5073
84.1163
111.268
155.21
215.328
279.514
319.598
311.019
1110.44
632.322
616.652
604.544
592.006
578.048
563.012
547.366
531.275
514.799
498.133
481.693
466.089
451.967
439.815
429.807
421.752
415.14
409.267
403.394
396.91
389.459
380.984
371.693
361.997
352.449
343.686
336.377
331.142
328.475
328.696
331.955
338.305
347.171
358.248
371.143
385.423
400.646
416.439
432.507
448.508
464.267
478.234
485.769
479.62
455.871
423.381
395.401
374.826
358.548
344.247
330.781
316.295
299.471
280.012
258.588
236.29
214.21
193.249
174.062
157.078
142.558
130.663
121.548
115.447
112.737
114.002
120.06
131.883
150.311
175.417
205.639
237.256
265.344
286.321
299.646
306.979
310.426
311.729
312.451
314.307
318.766
327.654
342.856
367.571
408.876
474.096
566.484
693.793
804.156
791.984
666.497
546.204
451.839
376.568
322.31
287.936
269.01
260.201
257.096
256.715
257.356
258.281
259.39
260.909
263.155
266.353
270.537
275.451
281.243
287.221
292.727
297.29
300.545
302.336
303.024
303.41
304.418
306.946
311.582
318.296
326.373
334.688
342.158
347.996
351.765
353.445
353.492
352.655
351.6
350.628
349.659
348.382
346.402
343.339
338.944
333.252
326.398
318.6
310.149
301.296
292.012
281.856
270.29
257.284
243.46
229.587
216.057
202.824
189.642
176.339
162.956
149.733
137.009
125.11
114.277
104.639
96.2249
88.9766
82.7841
77.5127
73.0283
69.2137
65.9766
63.2533
61.0088
59.2372
57.9662
57.2722
57.3265
58.5218
61.7799
69.1218
84.3239
112.699
158.79
221.267
283.335
313.369
295.338
1406.04
606.358
584.091
575.141
563.787
550.449
536.088
521.471
506.937
492.657
478.858
465.868
454.07
443.774
435.081
427.816
421.526
415.562
409.208
401.856
393.164
383.114
371.966
360.142
348.137
336.489
325.79
316.662
309.72
305.541
304.652
307.497
314.082
323.368
334.9
348.238
362.929
378.481
394.478
410.504
425.873
441.278
457.436
472.58
479.323
466.803
437.925
407.249
382.337
362.759
345.864
330.177
313.973
295.415
274.086
251.006
227.623
205.105
184.194
165.318
148.727
134.584
123.02
114.183
108.302
105.785
107.322
113.96
127.041
147.83
176.619
211.393
247.057
277.218
298.13
310.35
316.54
319.032
319.336
318.791
318.986
321.707
329.374
344.481
370.309
413.839
482.548
581.348
710.608
793.659
737.454
600.898
487.458
401.954
337.765
294.794
269.905
257.89
253.675
253.31
254.139
254.745
254.726
254.335
254.146
254.787
256.677
259.834
264.198
269.492
274.978
280.046
284.416
287.747
289.923
291.436
292.993
295.463
299.663
305.979
314.103
323.111
331.891
339.562
345.517
349.353
351.03
351.071
350.353
349.617
349.143
348.81
348.301
347.24
345.23
341.869
336.918
330.415
322.545
313.658
304.206
294.429
284.026
272.264
258.636
243.452
227.661
212.16
197.361
183.252
169.664
156.504
143.834
131.829
120.692
110.588
101.603
93.7447
86.953
81.1221
76.1278
71.8487
68.1815
65.0477
62.3958
60.2019
58.4705
57.2378
56.5879
56.6978
57.9643
61.3131
68.7906
84.2845
113.426
161.004
224.725
284.078
305.789
282.826
1721.31
597.242
554.409
547.979
538.48
526.674
513.874
501.051
488.66
476.93
466.067
456.283
447.758
440.553
434.537
429.355
424.434
419.052
412.481
404.194
394.041
382.272
369.406
356.024
342.64
329.683
317.538
306.541
296.983
289.395
285.497
289.507
297.3
307.345
319.241
332.651
347.253
362.625
378.489
394.422
409.19
423.186
437.489
452.881
465.358
465.295
447.283
418.827
391.383
368.436
348.308
329.864
311.479
290.852
267.323
242.231
217.46
194.347
173.528
155.199
139.389
126.094
115.342
107.225
101.946
99.9136
101.881
109.08
123.245
146.198
178.642
218.182
258.207
290.65
311.59
322.792
327.889
329.393
328.653
326.768
325.077
325.819
332.096
347.037
374.041
419.885
491.383
594.124
717.02
766.556
679.116
544.846
441.147
364.174
309.412
275.305
257.634
250.767
249.775
250.885
251.68
251.153
249.358
246.981
244.98
244.223
245.16
247.575
251.586
256.319
261.271
265.887
270.188
273.63
276.565
279.331
282.571
287.109
293.587
302.066
311.897
322.02
331.486
339.655
345.973
349.898
351.338
350.983
349.936
349.014
348.459
348.139
347.828
347.291
346.207
344.041
340.222
334.58
327.123
318.111
308.114
297.702
286.907
275.055
261.301
245.503
228.479
211.401
195.102
179.871
165.651
152.309
139.794
128.159
117.502
107.907
99.4072
91.9768
85.5378
79.9812
75.1881
71.0487
67.4725
64.3942
61.7743
59.5993
57.8821
56.6665
56.0418
56.1875
57.4972
60.8842
68.3837
83.9224
113.304
161.615
225.745
282.425
298.2
273.745
1902.26
722.652
547.283
526.391
517.246
506.869
495.705
484.723
474.436
465.097
456.866
449.841
444.04
439.364
435.572
432.252
428.802
424.469
418.49
410.322
399.862
387.493
373.916
359.881
345.996
332.695
320.298
309.061
299.236
291.145
285.411
287.145
294.036
303.596
314.811
327.316
340.87
355.152
369.783
384.33
398.359
411.508
424.055
437.313
450.668
457.46
448.944
426.123
399.318
374.594
351.704
330.265
309.168
285.97
259.874
232.527
206.217
182.453
161.78
144.18
129.441
117.357
107.806
100.775
96.4008
95.0628
97.5378
105.206
120.175
144.916
180.767
225.22
270.168
305.445
326.487
336.23
339.559
339.474
337.385
334.173
330.998
330.355
335.746
350.676
378.8
426.901
500.437
604.283
713.317
729.014
624.086
498.557
404.212
335.428
288.935
261.979
249.57
246.233
247.229
248.791
248.701
246.492
242.699
238.441
234.974
233.25
233.587
235.709
239.309
243.423
247.873
252.033
256.118
260.089
264.023
268.289
273.558
280.558
289.636
300.425
311.962
323.237
333.608
342.597
349.429
353.254
354.007
352.733
350.813
349.066
347.659
346.535
345.697
345.158
344.754
343.845
341.547
337.399
331.095
322.62
312.481
301.521
290.213
278.16
264.398
248.37
230.602
212.341
194.733
178.37
163.36
149.602
136.994
125.499
115.127
105.885
97.7462
90.6422
84.4724
79.1201
74.4703
70.4228
66.8994
63.8468
61.2362
59.0632
57.3484
56.1414
55.535
55.7082
57.0449
60.4306
67.8538
83.2129
112.394
160.695
224.591
279.008
291.376
267.777
1876.17
913.766
609.518
528.604
504.709
491.978
481.306
471.636
463.058
455.694
449.609
444.794
441.148
438.482
436.514
434.847
432.936
430.078
425.52
418.67
409.338
397.832
384.849
371.22
357.685
344.8
332.964
322.493
313.71
307.003
303.152
303.749
307.708
314.337
323.033
333.309
344.773
357.052
369.747
382.483
394.935
406.726
417.787
429.098
441.201
450.013
447.07
429.56
404.996
379.917
355.037
330.77
306.67
280.498
251.598
221.958
194.183
169.881
149.499
132.81
119.368
108.751
100.662
94.9572
91.6854
91.1668
94.1618
102.132
117.493
143.39
182.063
231.379
281.98
320.984
342.165
349.519
349.926
347.527
343.974
339.909
336.23
335.278
340.559
355.694
385.027
435.256
509.785
611.347
700.824
686.897
575.775
460.97
375.151
313.853
274.256
252.742
244.12
243.173
245.205
246.551
245.367
241.506
235.898
230.125
225.648
223.274
223.353
225.615
228.67
232.069
235.792
239.822
244.14
248.735
253.77
259.702
267.215
276.863
288.573
301.502
314.544
326.999
338.574
348.652
355.891
359.087
358.479
355.675
352.252
348.886
345.711
342.907
340.825
339.772
339.755
340.055
339.589
337.552
333.22
326.154
316.577
305.442
293.68
281.33
267.519
251.408
233.191
214.061
195.37
177.973
162.158
147.892
135.059
123.566
113.349
104.344
96.4636
89.598
83.6233
78.4153
73.8617
69.8706
66.3743
63.3295
60.7166
58.5387
56.8223
55.6218
55.0322
55.2292
56.5815
59.9332
67.1925
82.1644
110.732
158.358
221.452
274.267
285.588
264.36
1594.63
1054.85
727.282
578.972
517.208
489.488
473.789
462.793
454.396
447.963
443.216
439.936
437.873
436.743
436.234
435.987
435.552
434.353
431.729
427.085
420.102
410.883
399.934
387.998
375.848
364.152
353.429
344.08
336.439
330.819
327.938
328.073
330.726
335.495
341.979
349.833
358.762
368.474
378.651
388.985
399.215
409.028
418.265
427.632
437.876
446.199
445.193
430.803
408.341
383.447
357.059
330.249
303.096
273.765
242.056
210.358
181.463
156.961
137.152
121.605
109.651
100.661
94.1649
89.8909
87.792
88.1174
91.5733
99.6207
114.858
141.035
181.513
235.205
292.158
336.282
358.11
362.204
358.543
353.327
348.546
344.383
341.227
340.927
346.695
362.343
393.44
445.394
519.432
614.938
681.642
644.863
535.131
430.829
352.673
297.92
263.813
246.282
240.29
240.839
243.283
244.166
241.964
236.849
230.123
223.573
218.74
216.319
216.031
217.472
220.028
223.11
226.67
230.744
235.383
240.67
246.879
254.574
264.435
276.718
290.809
305.489
319.835
333.663
346.802
357.998
365.068
366.722
363.953
358.992
353.341
347.463
341.649
336.488
332.697
330.81
330.943
332.33
333.847
334.362
332.692
327.883
319.695
308.971
297.011
284.375
270.456
254.29
235.781
216.004
196.437
178.15
161.599
146.827
133.724
122.161
112.014
103.157
95.4499
88.7466
82.9034
77.7899
73.296
69.3366
65.8518
62.8062
60.1871
58.0034
56.2867
55.0945
54.5228
54.742
56.1011
59.3914
66.4112
80.8099
108.377
154.703
216.511
268.445
280.725
262.863
996.963
1050.02
835.707
671.212
572.152
516.277
484.294
464.785
452.112
443.7
438.304
435.186
433.774
433.563
434.104
434.991
435.828
436.178
435.543
433.429
429.475
423.592
416.012
407.236
397.904
388.66
380.068
372.583
366.556
362.246
360.231
359.969
361.38
364.31
368.568
373.961
380.3
387.382
394.974
402.83
410.705
418.283
425.407
432.673
440.679
446.965
445.036
431.224
409.742
384.656
356.705
327.498
297.345
264.881
230.627
197.399
168.012
143.879
125.083
110.974
100.68
93.3964
88.5095
85.6409
84.6651
85.7619
89.5578
97.4296
111.991
137.395
178.178
235.021
298.629
349.921
374.252
375.151
366.598
358.127
352.326
348.725
346.809
347.77
354.553
371.763
405.634
458.047
529.531
614.732
657.236
604.584
500.676
406.221
335.128
286.07
256.28
241.621
237.38
238.781
241.327
241.818
239.004
233.308
226.21
219.542
214.737
212.146
211.34
212.509
214.807
217.744
221.288
225.523
230.555
236.563
243.97
253.477
265.68
280.376
296.381
312.409
328.098
343.709
358.628
370.424
376.154
375.096
369.411
361.671
353.017
343.864
334.91
327.17
321.603
318.839
319.023
321.353
324.793
327.993
329.374
327.451
321.407
311.752
299.983
287.182
273.133
256.897
238.167
217.885
197.605
178.569
161.376
146.145
132.776
121.112
110.981
102.205
94.6048
88.0032
82.2419
77.1857
72.7265
68.7836
65.303
62.2547
59.631
57.4452
55.7324
54.5525
54.0013
54.242
55.6003
58.8053
65.5197
79.1778
105.385
149.819
209.894
261.59
276.427
262.654
410.909
928.29
879.47
758.755
652.016
574.203
521.444
486.594
463.724
448.834
439.434
433.952
431.295
430.613
431.201
432.478
433.962
435.241
435.927
435.657
434.137
431.224
426.985
421.698
415.798
409.791
404.166
399.344
395.655
393.324
392.651
392.975
394.241
396.37
399.293
402.976
407.402
412.521
418.189
424.165
430.105
435.584
440.458
445.279
450.278
452.786
447.226
431.515
409.356
382.821
352.613
320.773
287.474
251.937
215.629
181.719
152.809
129.929
112.836
100.633
92.2686
86.8026
83.5284
82.0044
82.0575
83.8115
87.7975
95.2292
108.537
131.964
171.045
228.848
298.607
359.887
391.114
391.076
377.317
364.618
357.1
353.715
352.955
355.37
364.077
384.521
420.975
471.653
538.934
611.712
633.37
572.06
475.103
388.68
323.296
278.499
251.607
238.669
235.335
237.088
239.65
240.059
237.239
231.711
224.953
218.695
214.13
211.424
210.488
211.449
213.515
216.371
219.984
224.433
229.869
236.603
245.265
256.678
271.186
287.94
305.376
322.652
340.138
358.014
374.42
385.463
388.097
383.098
373.815
362.596
350.226
337.418
325.331
315.224
308.106
304.588
304.804
308.108
313.532
319.456
323.954
325.109
321.567
313.42
302.198
289.41
275.26
258.938
240.022
219.352
198.524
178.91
161.219
145.625
132.038
120.278
110.137
101.401
93.8584
87.3145
81.5998
76.5762
72.1367
68.2038
64.7268
61.6792
59.0566
56.8754
55.1731
54.0115
53.4849
53.7488
55.1036
58.2115
64.5848
77.3975
101.986
144.049
201.935
253.768
272.248
263.115
451.326
666.05
857.56
825.52
742.151
656.759
586.146
533.062
495.136
468.962
451.518
440.45
433.999
430.826
429.882
430.323
431.479
432.83
433.971
434.595
434.485
433.531
431.76
429.339
426.552
423.749
421.279
419.439
418.441
418.404
419.277
420.538
422.15
424.148
426.673
429.926
434.058
439.049
444.64
450.356
455.545
459.584
462.362
464.349
465.271
462.193
450.964
431.641
406.95
377.321
344.21
309.688
273.528
235.711
198.583
165.349
138.098
117.33
102.436
92.3148
85.8044
81.9182
79.9359
79.4167
80.1849
82.3367
86.3173
93.146
104.921
125.59
161.089
216.643
289.468
361.223
404.773
409.751
393
375.469
365.042
361.081
361.226
365.572
377.62
401.984
438.686
485.611
547.507
607.031
611.914