/*--------------------------------*- C++ -*----------------------------------*\
| =========                 |                                                 |
| \\      /  F ield         | OpenFOAM: The Open Source CFD Toolbox           |
|  \\    /   O peration     | Version:  2112                                  |
|   \\  /    A nd           | Website:  www.openfoam.com                      |
|    \\/     M anipulation  |                                                 |
\*---------------------------------------------------------------------------*/
FoamFile
{
    version     2.0;
    format      ascii;
    arch        "LSB;label=32;scalar=64";
    class       volScalarField;
    location    "0.2";
    object      ddt0(kU);
}
// * * * * * * * * * * * * * * * * * * * * * * * * * * * * * * * * * * * * * //

dimensions      [0 2 -3 0 0 0 0];

internalField   nonuniform List<scalar> 
12225
(
-0.00541582
-0.0291297
0.0566184
0.0145919
-0.0102334
-0.0274547
-0.0187116
-0.00698396
-0.00744998
-0.002199
-0.0246471
-0.00495124
-0.0636991
0.00546914
-0.104579
-0.072594
-0.147963
-0.119637
1.35202
-3.92876
1.26914
0.915283
0.116681
-0.0231048
-0.0275459
-0.0323433
-0.0346838
-0.00808365
0.0210494
-0.0354578
0.0556298
-0.113965
0.10942
1.68116
4.35909
-22.8343
-0.277798
0.0196357
1.03497
-0.145785
-0.103795
-0.0743808
-0.069809
-0.188977
0.0994719
0.350208
-0.487362
0.134848
0.433634
-0.0607056
-0.102546
-0.652582
0.379337
1.23581
-0.0989132
0.332782
0.00196468
-0.110572
-0.00206919
0.0223939
-1.64017
1.88227
-1.59946
0.977929
0.356264
0.0135695
-0.0276476
0.43325
0.208068
-1.33232
0.282743
1.11912
-0.00778929
0.0448846
-0.0208066
0.00518713
0.0126551
-0.131613
0.151823
0.102176
-0.185308
-0.178792
0.531175
-0.363555
-0.0644808
0.268203
0.265952
-0.933859
0.319344
0.518864
0.000465284
-0.000936575
-0.0096128
0.0204964
-0.0166587
-0.00154622
0.0029036
-0.131692
0.227481
-0.130508
0.128186
-0.103957
-0.0277902
0.106281
0.0532014
-0.224225
0.0439593
0.138021
0.00047215
-0.00285917
0.00112378
0.00229968
-0.00672228
0.0113672
-0.00731493
-0.00877803
0.0140946
-0.10433
0.151156
-0.0296864
-0.0283853
0.0357302
0.00614021
-0.0457945
-0.00229187
0.0286298
0.000157833
0.000162354
0.000366567
-0.000295868
0.00104967
0.000909913
-0.00493027
0.00459651
-0.00423778
-0.00978658
0.0212024
0.0150208
-0.111464
0.0829287
0.0200418
-0.0110048
-0.00735799
0.00296734
0.000147973
0.000362671
7.52804e-05
0.00022367
0.000161464
-0.000542951
-0.000397138
0.000172257
-0.00303413
0.00109158
0.00410112
-0.0093819
-0.00233466
0.019187
-0.0429237
0.0397021
-0.00715637
-0.00542136
0.000125588
0.000237805
0.000155318
0.000131219
-7.2712e-05
-0.000272341
-0.000469174
-0.000562468
-0.000522186
0.000540614
0.000141869
-0.00124004
0.000643383
-0.00136517
0.00366388
-0.00209577
-0.0103408
0.00858855
0.00010241
0.000163958
0.000123378
6.17408e-05
-2.84477e-05
-0.000287291
-0.000423401
-0.00044039
-9.579e-05
0.000109138
0.000170143
-2.58151e-05
0.0002511
0.000295295
-0.000337862
-0.00204005
-0.00129713
-0.00168173
7.86203e-05
0.00010863
0.00012565
-1.48462e-05
-1.70961e-05
-0.000222884
-0.000297052
-0.000318019
-5.31653e-05
6.53498e-05
0.000195511
0.000203989
0.000301353
0.000220822
-0.000319785
-0.000904837
-0.000717588
-0.000795001
5.95961e-05
-2.71586e-05
0.000471063
-0.000274605
-6.0474e-05
-0.000142396
-0.000197907
-0.000206558
-3.07368e-05
8.25044e-05
0.000187191
0.000230343
0.00025138
0.000172021
-0.000153832
-0.00044018
-0.000286751
-0.000236903
4.08178e-05
1.03655e-05
0.000549185
-0.000728957
0.000251348
-5.08986e-05
-0.000162172
-0.000124705
8.39333e-07
0.000101177
0.000174222
0.000211195
0.000209314
0.000157551
1.99876e-06
-0.000108925
-1.15664e-05
7.17001e-05
2.20325e-05
7.03735e-05
0.00255066
-0.0079653
0.00405853
0.00170493
-0.00012417
-0.000173831
1.54174e-05
0.000122986
0.000168218
0.000186711
0.000183268
0.000170158
0.000129426
0.000119906
0.000186025
0.000266365
9.33271e-06
2.44799e-05
9.03713e-05
-0.000458136
0.000419267
7.85775e-05
-3.40913e-05
-2.09333e-05
2.68377e-05
7.54837e-05
0.000112963
0.000147005
0.00017392
0.000202555
0.00022505
0.000264032
0.000321994
0.000402234
1.68941e-06
1.73876e-05
7.86329e-05
0.0011874
-0.00273724
0.000385215
0.00106413
0.000189056
7.7878e-06
5.50066e-05
9.86892e-05
0.000129937
0.000162702
0.000199843
0.000242196
0.000297093
0.000359186
0.000440499
-1.97522e-06
1.22351e-05
7.06802e-05
-0.00327874
0.0176434
-0.0155099
-0.000229214
0.00078315
8.46465e-05
2.05564e-05
0.000152109
0.000225767
0.000236456
0.000211395
0.00019144
0.00020371
0.000250874
0.000331851
6.98253e-07
3.99528e-05
7.30459e-05
-0.00357119
0.0190338
-0.0163716
-0.000772218
0.000747608
0.000212971
0.000139927
0.000202629
0.000202899
0.000163756
0.000118316
9.95042e-05
0.000122879
0.0001768
0.000259106
1.7196e-05
0.000128153
8.8024e-05
5.02336e-05
-4.63888e-05
-0.000255182
-0.000121714
-5.40457e-05
5.41972e-05
0.000136904
0.000148012
0.000100908
5.42965e-05
2.89731e-05
5.33665e-05
0.000110384
0.000176107
0.000249787
5.07173e-05
0.00022112
0.000340336
-0.000440957
0.000106087
-0.000229276
-0.000314261
-7.92584e-05
0.000173801
0.000283918
0.000215788
4.4435e-05
-7.46657e-05
-0.00011779
-5.25346e-05
5.08602e-05
0.000149477
0.000252501
0.000108401
0.000618522
0.000341819
3.9862e-05
-0.000250291
-0.00082786
-0.00060298
-4.62924e-05
0.000397899
0.000547483
0.000368685
-4.65688e-05
-0.000276346
-0.000307858
-0.000116372
6.34179e-05
0.000207928
0.000360159
-0.000273958
0.00265875
6.51571e-05
-2.25371e-06
-0.000617735
-0.00133714
-0.000919184
3.22351e-05
0.000654877
0.000784349
0.000590215
-0.000209134
-0.000863709
-0.000689954
4.37774e-05
0.000439568
0.000457628
0.000583746
-0.000249927
0.000151285
0.00217847
0.000895708
-0.00185431
-0.00207172
-0.00151954
0.000361912
0.00218834
0.000232079
0.00153387
0.00217086
-0.00178173
-0.0032225
-0.000791668
9.44383e-05
0.000771626
0.00167543
-0.00104938
0.0027537
0.00102378
0.00545781
-0.00111814
-0.00630967
-0.00535578
-0.00654995
0.0125074
-0.0034322
-0.00157408
0.00522483
0.0131384
-0.0133823
-0.00710112
-0.00369669
-0.00109579
0.00307072
-0.00311972
-0.0189314
0.0106711
0.0118573
0.0227465
-0.0140345
-0.0200663
-0.0239428
0.00378708
0.20354
-0.206788
0.0240469
0.030246
-0.00969539
-0.0179199
-0.016745
-0.00941908
0.00600618
0.0239145
-0.0793647
0.0322579
0.0284291
0.0579887
0.0177362
0.118935
-0.801029
0.559133
-0.120025
0.15053
0.127024
0.0125782
-0.047
-0.0393416
-0.0296585
-0.017486
0.0159562
0.578142
-1.25123
0.583416
-0.162854
0.10876
-0.00290978
-0.0838545
-0.0250414
0.823729
-2.74023
1.87959
0.286988
-0.145635
-0.0802697
-0.0220426
0.0198407
0.0277837
0.0546514
-1.578
4.59326
-2.01449
-0.928272
-0.00712874
0.00839503
-0.00469808
0.0246236
0.0155213
-0.337608
2.19268
-2.36828
0.277175
0.180372
0.0316391
0.00523401
0.0139804
-0.0978971
-0.0403552
-0.0178461
0.036519
0.0551314
0.00786486
-0.0152112
-0.0209199
-0.00670148
0.00502692
0.00730315
0.00700711
0.0064009
0.00784388
0.00681426
0.00612922
0.00637637
0.00786445
0.011176
-0.00016973
-0.00121512
0.00041661
0.00449165
0.0226404
0.0643091
0.119476
0.179267
0.199272
0.229902
0.189762
0.119571
-0.0511086
-0.0754178
-0.238834
-0.433635
-0.5892
-0.739731
-0.846004
-0.932117
-0.942523
-0.95112
-1.00414
-0.917134
-0.849296
-0.807909
-0.779437
-0.744544
-0.710561
-0.663599
-0.605365
-0.526851
-0.422582
-0.302203
-0.199623
-0.220458
-0.228358
-0.201289
-0.105455
0.00809084
0.106266
0.222856
0.271421
0.557109
0.889107
1.02793
1.05401
0.824673
0.241721
0.0376537
-1.05429
-6.217
-10.5663
-12.6165
-13.2267
-13.2228
-12.857
-11.8939
-10.5025
-9.49783
-8.35847
-6.92743
-5.20846
-3.08827
-0.252168
3.62934
8.81485
15.3469
22.929
30.6633
37.1155
40.9214
42.137
42.5401
44.0336
47.6371
48.8873
50.2698
49.9883
39.4822
37.1934
30.5805
6.54875
-4.63639
-11.0426
-10.2929
-12.2765
-11.9876
-13.2493
-8.9338
-4.12153
-6.70249
-8.67688
-14.4256
-28.479
-25.3485
-0.408182
-0.390536
-1.09447
1.46539
8.49972
3.62508
5.12312
6.38732
8.20973
11.2838
6.65014
1.15314
-1.74946
0.177376
-0.772135
-7.80645
-20.3864
-15.0793
-21.479
-27.8558
-33.187
-37.5663
-40.5408
-42.6516
-43.6712
-43.9835
-43.5848
-42.7368
-41.4529
-39.7436
-37.5727
-34.7458
-31.9806
-30.0642
-24.5258
-23.1883
-19.1683
-15.5764
-12.2247
-9.20941
-6.33395
-3.80488
-1.41941
0.704855
2.48556
4.01734
5.24057
6.31286
7.20428
8.07924
8.79953
9.52537
10.3566
11.3136
12.2326
12.7163
11.9805
12.8241
14.252
14.6814
15.8544
16.9568
17.3707
17.0439
15.5343
11.0297
0.386615
-3.44141
-7.38293
-11.4618
-15.7238
-19.6042
-23.5042
-27.1144
-30.4372
-32.8566
-35.7542
-38.3769
-40.8115
-42.7592
-46.7382
-48.6761
-52.2518
-54.0272
0.000349713
0.000948881
0.00925832
0.0420008
0.162875
0.386158
0.578007
0.730817
0.711859
0.555185
-0.00388749
-0.794875
-1.49183
-2.35329
-2.99026
-3.44954
-3.69212
-3.93891
-3.97153
-3.98931
-3.93704
-3.95009
-3.81656
-3.76772
-3.71838
-3.66525
-3.60784
-3.3291
-3.05703
-2.67528
-1.89138
-1.33062
-0.881753
-0.5249
-0.274866
-0.161542
-0.118169
-0.041117
-0.063558
-0.018297
0.0213805
0.0499533
0.17267
-0.0268687
-0.504388
-0.823481
-0.777569
-1.00256
-1.41145
-2.20454
-4.27051
-8.89695
-7.69998
-5.98232
-4.60872
-2.32564
-1.59974
-3.50895
-5.27006
-9.35816
-11.2803
-12.3599
-13.6211
-14.3661
-12.7601
-10.0258
-7.37305
-3.63662
3.6129
14.1298
27.5242
45.4231
66.0516
84.8048
98.357
104.94
105.852
97.2018
64.0929
48.9835
33.9306
-24.0657
-52.4895
-47.5236
-59.2372
-42.349
-38.4584
-34.6433
-35.7848
-27.2913
-12.3195
-1.01102
4.48106
-1.62198
-12.7186
-26.3608
-8.88164
-1.29431
7.02069
21.5249
0.531156
-4.57292
-5.50942
-3.826
-3.57171
0.56355
-3.06752
-5.23087
-28.4216
-6.93813
4.78343
-8.82905
-15.0075
-10.9022
-16.8702
-18.6535
-21.9988
-24.6903
-26.3192
-28.3571
-28.8499
-29.6422
-29.4091
-29.4524
-28.3563
-27.2111
-25.405
-23.8508
-21.9669
-20.371
-18.3714
-17.28
-15.8912
-15.3779
-13.2311
-11.9936
-9.76176
-8.03645
-6.06918
-4.49855
-3.49297
-2.56031
-2.86957
-2.46311
-3.19663
-3.19842
-5.13112
-7.53712
-9.89163
-11.8423
-12.4097
-10.8318
-7.8579
-4.30277
-1.30372
0.359376
9.66036
15.7644
24.1242
31.9291
38.471
42.4081
43.3485
40.9884
35.3615
27.5852
18.3572
9.50451
1.3099
-5.60561
-10.1754
-12.4942
-11.0222
-11.8334
-11.6107
-11.0411
-7.88251
-10.2602
-11.2541
-14.3663
-0.00456358
-0.0197194
-0.123987
-0.388525
-0.361182
-0.241252
-0.00353087
-0.403771
-1.3139
-2.47848
-3.27763
-3.80696
-4.15035
-4.24326
-4.34359
-4.3467
-4.32025
-4.24688
-4.1382
-3.96999
-3.74379
-3.66174
-3.4984
-3.38816
-3.35625
-3.38053
-3.3852
-3.43605
-3.41203
-3.42296
-3.61753
-3.24438
-2.3888
-1.44377
-0.582535
-0.160966
-0.0224075
0.114664
0.104909
0.106747
0.0983505
-0.0480162
-0.145552
-0.649399
-1.42557
-0.727325
0.320538
0.923253
-3.8442
-5.59702
-4.1561
-1.82849
3.83749
9.1017
11.1378
3.95347
1.57469
1.4796
2.47219
1.48522
0.00850622
-0.298542
-2.08089
-4.99411
-5.85629
-3.76832
3.30377
14.6956
30.4815
51.1961
74.2743
95.9685
112.604
121.873
123.38
115.963
100.122
69.693
47.3388
35.834
-19.0693
-85.7405
-79.7331
-93.3325
-42.0217
-25.13
-17.6168
-13.5123
-15.4581
-17.1594
-25.0294
-10.6472
2.12637
5.54577
-0.136647
-19.6254
-19.9599
1.74836
25.096
11.5253
-7.60369
-6.84266
-2.70866
-2.13261
-3.26276
-10.787
-2.8062
3.87641
8.0248
3.24414
-3.52125
-11.985
-12.7594
-11.0268
-17.607
-19.4397
-24.9989
-32.2841
-40.0012
-41.7315
-48.899
-48.3505
-51.5504
-52.1962
-50.0553
-51.2057
-48.1549
-46.8501
-44.9141
-42.5069
-40.7793
-37.8033
-35.5124
-32.2303
-29.7588
-27.0178
-24.1011
-21.2989
-18.4899
-15.8284
-13.9013
-10.8823
-7.98882
-4.83673
-3.03138
-2.66108
-3.26972
-3.91347
-4.06734
-3.07266
-1.86113
0.141606
2.5893
6.02041
7.28885
7.36913
11.507
17.4953
22.1424
28.9674
36.2603
43.3536
49.3122
53.4224
54.78
53.3978
49.2287
42.8179
34.6282
25.1363
17.0321
9.55205
5.93594
4.38942
2.66722
-1.49852
4.80686
4.88884
2.93612
-0.25279
-0.0150812
-0.120931
-0.70875
-1.735
-1.88192
-1.58506
-2.52325
-3.5329
-4.17973
-4.39406
-4.45832
-4.56475
-4.47047
-4.20486
-3.70678
-3.25349
-2.83213
-2.41766
-2.10712
-1.68648
-1.40196
-1.14479
-1.06146
-1.04137
-1.1028
-1.25811
-1.49121
-2.06985
-2.81198
-2.90266
-3.03744
-3.1271
-3.2399
-2.6244
-1.50024
-0.344068
0.104279
0.346807
0.332805
0.0775941
-0.0102718
-0.158618
-0.656091
-0.100859
1.54821
5.68661
-3.5365
-7.11568
-6.73039
-4.29345
1.82637
8.24027
11.6961
9.38192
6.43973
6.17512
5.79181
7.30346
8.7199
8.53017
8.54198
9.00784
7.94186
5.9792
7.93908
15.651
30.3527
52.615
78.316
100.312
116.529
130.175
140.889
144.018
138.553
125.385
97.8163
65.2954
46.6822
30.229
-39.4686
-72.4306
-88.6813
-98.1055
-36.4459
-17.3917
-8.41008
-5.53525
-7.5673
-9.64129
-8.16862
-2.75277
9.50492
12.7049
0.510131
-19.9689
-15.7715
11.5519
35.2985
-1.42341
-13.6678
-5.6501
2.25246
9.72618
10.7929
7.13906
7.06587
7.73921
2.17798
-1.07138
-11.1238
-11.618
-9.0122
-9.83506
-14.4486
-21.8782
-28.4385
-35.0917
-44.9834
-48.9334
-54.3333
-58.2625
-58.8613
-61.7293
-60.5005
-61.337
-59.8681
-58.4539
-58.3855
-56.2903
-55.6052
-53.399
-50.5945
-48.7925
-44.1796
-40.9325
-36.504
-31.9742
-27.104
-20.8806
-15.8315
-9.57839
-3.19256
1.547
5.09764
6.31575
5.93154
5.51645
4.84422
8.95156
13.4878
15.9237
22.3837
26.9423
33.2501
37.0706
34.5594
37.8079
36.4143
37.5187
40.3348
43.9957
48.7135
53.9391
58.3237
61.3041
62.0298
60.3134
56.3484
49.9562
42.6521
34.2203
27.3342
20.8951
20.601
7.94879
8.58979
16.1103
12.4434
4.40627
-0.0241598
-0.320285
-1.77986
-2.34945
-2.23842
-3.5406
-4.49944
-4.78423
-5.01583
-4.39959
-3.59002
-2.56725
-2.03797
-1.45329
-0.963813
-0.598146
-0.245106
0.148856
0.356346
0.49925
0.511564
0.443497
0.459606
0.299281
0.224593
0.0760738
-0.150456
-0.404715
-0.822992
-1.9947
-2.62212
-2.99376
-2.99001
-2.88332
-2.56591
-1.31389
0.226747
0.293753
0.0972583
-0.386083
-0.688271
-0.187387
1.18035
3.36462
4.68951
-7.1272
-11.1288
-14.3804
-5.02535
1.44942
7.51845
10.9057
5.15409
4.11422
3.77815
4.73896
8.50667
12.0144
13.9879
14.6283
13.6939
13.2029
16.3408
23.606
31.6429
45.8671
70.0331
93.1185
107.016
122.367
142.02
156.754
160.216
152.412
130.96
106.406
83.9161
55.6278
44.5865
19.314
-23.5686
-62.5731
-98.247
-109.122
-45.6408
-16.9302
-5.99849
-3.61871
-6.7475
-10.79
-6.74274
-1.08411
11.6636
16.3317
4.21109
-19.4408
-3.43838
27.873
18.4715
-4.83526
-15.8154
-4.39519
3.91276
9.60986
5.81742
5.30258
5.40765
1.52732
-4.29535
-9.09363
-12.142
-0.471646
-2.04764
-3.22215
-10.1117
-16.8993
-27.5108
-36.3343
-47.8173
-55.3654
-61.5335
-64.9225
-63.483
-63.6041
-62.8227
-62.6418
-61.7009
-59.8523
-59.3062
-57.9735
-55.8447
-54.1192
-50.3885
-47.8265
-42.5176
-37.2453
-31.5599
-24.6248
-18.1999
-10.3546
-1.51435
4.30398
14.7232
17.3435
22.7544
25.6102
26.491
26.7519
25.778
23.9639
26.5422
30.5027
37.5446
46.3768
54.9976
64.4312
69.1959
55.6175
52.7794
50.4933
50.16
50.5137
52.3467
55.8885
60.2393
63.8388
66.4002
67.2172
65.2076
60.5449
54.2358
47.8881
43.0693
37.0495
40.4818
33.3604
22.5147
29.7205
30.8597
23.4156
0.0147937
-0.539905
-2.12028
-2.79235
-4.26406
-5.21596
-5.28602
-4.63259
-3.33006
-2.23443
-1.60881
-1.23939
-0.750141
-0.432302
-0.238415
-0.0531856
0.0171523
0.0249435
0.0217938
0.130497
0.225768
0.356957
0.532843
0.633936
0.636759
0.607456
0.440703
0.354103
0.0565625
-0.213617
-1.30894
-2.23322
-3.03981
-3.00265
-2.62684
-1.87208
-0.913188
0.0456914
0.216722
-0.522862
-1.18678
-0.37399
4.02913
5.48766
-11.1371
-16.2203
-19.803
-19.518
-1.09847
3.17676
9.61032
10.1061
0.391707
-0.471935
-0.347386
2.13956
6.85001
11.0444
13.8755
15.5664
16.5031
20.1675
27.7616
41.4638
61.5151
78.1786
87.2543
100.386
116.141
127.672
129.333
116.247
92.8896
70.2343
62.6137
60.5682
51.2009
37.4968
19.4166
5.34227
-33.9102
-50.9628
-96.7361
-157.383
-81.4848
-31.8212
-6.26009
-2.29626
-4.70212
-14.9818
-11.1518
-5.58863
2.65301
14.958
3.96099
-15.9838
3.81701
26.9275
20.9203
-6.27744
-21.4854
-6.27577
0.168389
6.93402
0.784741
1.42998
0.0310687
-6.55126
-8.43861
0.520665
14.5383
10.9328
8.03117
5.68119
-2.9885
-12.3642
-26.6126
-35.883
-48.1723
-53.7656
-55.374
-55.3872
-53.333
-52.2955
-51.4066
-48.8946
-46.4313
-44.7586
-42.5812
-41.0987
-38.5714
-37.5841
-35.0353
-32.9522
-29.7314
-25.534
-20.6667
-17.5591
-8.1648
-3.26819
7.96281
17.8207
28.0918
36.306
38.2763
44.3189
47.0291
47.4997
46.0872
45.4066
40.7037
38.692
47.1699
59.7977
69.1355
74.9494
84.7141
99.1692
97.1169
89.4438
82.7471
75.2528
68.1289
63.8469
62.8441
64.1643
67.1297
70.9551
73.8629
73.9638
70.7332
64.7031
58.2836
51.0248
52.5799
49.0474
35.4915
42.5619
38.4222
33.8306
0.0893497
-1.06308
-3.07569
-4.49831
-5.66501
-5.61163
-4.30325
-2.62502
-1.38575
-0.538545
-1.1429
-1.28249
-1.41342
-1.52068
-1.45207
-1.43144
-1.38607
-1.38177
-1.2623
-1.15688
-1.04027
-0.799514
-0.683599
-0.41345
0.0438197
0.125672
0.290064
0.363923
0.411825
0.216708
0.0931685
-1.47276
-2.57968
-2.94297
-3.39454
-2.48974
-1.17973
0.183656
1.32076
1.53607
1.301
-0.0767983
4.23763
-7.79675
-19.2849
-23.034
-35.4285
-19.3055
-0.961396
2.46672
8.89381
9.84793
0.325606
-6.36149
-6.69851
-5.02223
-2.00953
3.27814
10.0917
18.0431
28.747
38.8807
43.5464
49.4257
58.8682
70.6757
83.1971
89.3069
91.6604
87.7599
73.8491
55.3106
44.932
46.0873
50.5443
48.1984
43.2658
37.2823
30.9206
-0.928323
-12.6837
-51.8791
-88.8616
-140.75
-177.126
-78.701
-21.6744
-6.09282
-3.31491
-10.9874
-27.311
-11.1826
-3.97618
1.67001
-0.757349
-8.7209
6.33794
23.737
31.3088
-7.65271
-21.2215
-8.36678
-0.207437
5.75835
-2.27796
-0.719442
-4.83993
2.91489
15.4452
24.9193
32.0411
25.2717
20.9714
16.0323
5.85583
-6.69158
-22.0678
-30.3158
-38.2359
-40.905
-41.98
-42.3544
-40.9696
-37.3955
-34.3988
-31.3256
-27.15
-25.1497
-22.9878
-21.735
-19.3728
-18.5837
-18.0911
-17.7232
-16.639
-13.7727
-9.92509
-5.04936
3.3572
7.45036
18.1492
26.1415
35.6486
48.2112
61.9077
69.6023
73.6348
72.6139
69.1958
62.6527
52.5324
49.0682
50.8083
63.4664
80.4624
97.3506
106.983
111.542
111.605
107.129
103.246
98.5311
91.8941
85.5237
80.4072
76.5447
74.2635
73.6231
73.1788
71.8322
69.4226
65.7277
61.0073
55.0754
55.0551
53.1312
40.4406
43.534
43.1678
38.4634
0.169942
-1.90343
-4.4315
-5.59364
-5.61629
-4.18422
-2.18422
-0.463439
1.55407
-1.55072
-2.42746
-2.87831
-2.64207
-2.37678
-2.00907
-1.74811
-1.54358
-1.33701
-1.09014
-0.890628
-0.818845
-0.690755
-0.668532
-0.610997
-0.466301
-0.241194
0.0613266
0.177723
0.414589
0.456582
0.31979
-0.54534
-1.87431
-3.16347
-3.78933
-3.6897
-0.714385
0.398346
2.1226
4.13269
6.60708
5.24072
1.02915
-16.4357
-23.1898
-33.0844
-47.758
-20.2937
-1.64903
2.85834
13.2179
15.5319
2.79819
-23.6404
-44.7895
-49.512
-39.7186
-29.2972
-15.1192
0.669627
15.944
29.6776
42.8803
52.1474
56.4856
60.3895
64.3789
63.817
58.0537
47.5229
33.2801
26.0197
24.758
28.71
31.3652
31.7807
32.9394
31.2366
24.2378
13.1055
-1.3744
-27.7069
-59.8679
-105.015
-174.744
-190.225
-47.6512
-12.1623
-3.91802
-4.89359
-17.3777
-37.9789
-11.835
-9.22134
-8.52595
-5.30346
5.09174
18.1444
38.5496
16.4031
-19.8989
-14.6009
4.6922
14.9229
6.73316
18.211
35.9738
38.3027
46.9029
42.0236
46.9358
40.8659
36.7858
28.4291
15.32
2.49107
-11.9905
-19.5297
-25.2984
-27.6598
-29.2558
-28.0982
-25.1272
-19.6305
-13.7572
-10.5316
-7.27745
-6.04238
-5.72905
-7.04997
-7.67498
-7.82275
-8.04834
-7.28212
-5.29719
-3.3339
-0.93754
3.80886
5.61458
11.9558
19.8523
24.9753
30.5452
36.8828
45.3729
56.3058
66.2289
71.7142
71.2258
66.5575
63.5378
52.6553
44.0544
52.7422
71.2964
88.0464
102.632
109.325
108.757
104.423
98.4245
92.4902
85.5826
78.7985
73.9899
70.8851
69.4738
69.5199
69.2928
68.0302
66.3498
63.294
58.4985
54.2457
54.4525
55.0123
42.7804
40.3465
44.2066
40.0282
0.192838
-2.59135
-5.39983
-5.78049
-4.81191
-2.15019
0.899866
1.32528
-2.72192
-3.03822
-6.43524
-4.61143
-3.27832
-2.49031
-2.05342
-1.79474
-1.5692
-1.16898
-0.878033
-0.699443
-0.593313
-0.459754
-0.41849
-0.3597
-0.247881
-0.135007
0.0497814
0.225751
0.473098
0.827429
0.892741
-0.3985
-1.98845
-3.4842
-4.89463
-3.23509
-0.858833
0.192104
0.917409
3.61725
7.63294
9.11633
-0.560781
-20.3033
-26.1201
-38.6358
-59.1564
-32.8923
-5.82674
1.2754
19.07
38.4459
47.1483
36.8711
9.99274
-21.2019
-49.6533
-61.7486
-61.381
-49.9521
-34.6201
-19.4676
-3.62527
11.0654
22.3272
29.334
32.1583
30.2032
24.3803
16.273
11.6808
5.63465
5.72682
8.91057
10.913
13.7377
16.696
17.5923
16.285
12.976
10.799
-19.6517
-37.3663
-70.6395
-137.428
-220.794
-125.097
-43.2876
-8.69647
-2.31478
-6.90219
-28.4026
-47.5886
-16.7809
-14.4146
-2.49393
3.28525
8.95053
31.7646
64.8558
-5.47639
-3.71588
35.0572
37.4374
28.9869
47.3864
59.2072
60.8823
65.7124
58.5988
59.8235
54.7534
50.8559
42.1037
27.1129
13.9024
0.423229
-7.84558
-13.036
-14.3558
-15.3248
-12.2086
-6.18363
-1.22848
2.77383
4.7557
5.97124
6.1168
6.23329
5.87858
4.47901
3.28904
2.5962
1.54228
1.31423
1.59704
1.66006
5.2112
8.1643
11.6503
16.0933
20.7125
25.0859
29.2849
35.0138
45.3086
56.737
65.5495
67.1303
64.9782
57.8726
50.9357
43.3704
51.753
74.3158
93.8167
108.489
113.752
110.947
108.769
104.575
98.4455
91.344
83.0839
75.9787
69.3705
63.8821
61.394
59.5192
56.3678
54.3122
53.4257
50.4764
46.8529
45.7985
46.7407
36.8437
33.027
35.9138
32.1548
0.210223
-3.2602
-5.53435
-4.93988
-2.49597
1.29567
1.63205
-0.805858
-5.14248
-8.30082
-6.52825
-4.18725
-3.20211
-2.40719
-2.04512
-1.80588
-1.40802
-1.01278
-0.794047
-0.650365
-0.559838
-0.478297
-0.330158
-0.19398
-0.0523957
0.102531
0.300392
0.5647
0.867084
0.979034
1.25834
-0.442524
-2.28522
-4.31701
-6.82633
-2.32272
-0.91783
0.0154131
0.24
1.82123
3.71086
6.21074
0.830154
-29.2123
-34.3326
-43.2359
-62.874
-77.2774
-19.6133
-9.1793
7.54863
29.4871
48.4748
58.4458
55.6866
40.3033
18.6606
-4.15559
-22.7545
-34.8821
-39.2328
-37.5025
-31.2697
-22.6945
-13.7694
-6.09922
-1.13228
-0.0372094
-1.90856
-4.03945
-8.1411
-9.66785
-9.3942
-8.16439
-6.36558
-3.50923
-0.597694
0.858368
0.911898
0.945864
3.13302
3.60229
-26.5544
-37.0476
-71.1604
-144.697
-285.038
-132.473
-41.5833
-6.88504
0.0179817
-9.34592
-43.9501
-49.3715
-16.1051
-5.3406
-1.04637
-1.09331
22.784
95.6688
30.1514
3.80487
47.4965
55.9933
36.2614
56.6885
67.8274
64.931
72.0973
68.9261
68.2345
65.8315
61.9725
54.0521
40.5025
26.8579
14.2406
5.76631
-0.451774
-1.80084
-1.1748
2.01123
7.30946
11.075
13.5692
15.3237
18.5028
20.7705
21.5296
20.3269
20.036
15.7158
10.1008
6.04354
2.87652
0.178803
-1.48537
-2.1421
-1.59669
0.0265617
3.73587
8.13134
12.3884
13.8841
12.2127
16.4216
26.843
37.3413
42.7879
42.7717
40.123
35.6571
33.7058
45.6127
72.756
92.3371
102.775
104.959
101.917
98.0963
92.7753
84.3133
75.7711
66.2437
57.9173
52.7603
48.8511
47.3008
47.4832
46.0972
45.0495
45.2032
42.8454
39.4856
39.1787
40.1584
30.4372
27.0364
30.9466
25.7944
0.24368
-3.44008
-4.98376
-3.01079
0.100093
2.64287
-0.510795
-3.49746
-8.64454
-10.5079
-6.23592
-3.98648
-3.1118
-2.3686
-2.0724
-1.83602
-1.38294
-0.998553
-0.816104
-0.662042
-0.567062
-0.506106
-0.33044
-0.171352
-0.0207899
0.161664
0.384179
0.67992
1.01207
1.27764
1.86316
-1.10983
-2.85517
-5.9941
-3.78734
-1.32559
-0.775893
0.227165
1.98846
3.75009
4.11952
2.95346
5.31153
-21.3669
-40.4164
-48.389
-61.1296
-80.9454
-92.0739
-44.004
-27.6178
-2.68426
22.7713
40.8702
47.8588
49.5741
38.0845
29.2905
17.9086
6.21941
-3.21927
-9.95701
-14.9384
-17.0101
-17.0927
-16.0325
-14.9441
-14.9354
-15.8953
-16.4151
-18.052
-19.4833
-19.8334
-19.182
-17.8029
-15.7471
-13.7685
-12.1384
-12.3414
-13.2678
-12.2664
-6.08101
0.476347
-26.0665
-33.1045
-72.8817
-148.392
-332.781
-139.354
-41.2098
-6.53136
-7.88148
-21.0408
-58.3021
-17.2219
-8.18415
-7.0404
-5.73202
9.57557
67.4645
81.4861
22.5149
49.3459
64.2697
31.0388
46.748
61.6479
54.0647
59.9874
65.0799
63.3427
60.4537
57.3658
51.1268
42.3214
32.7501
23.4785
17.2838
11.9272
8.95461
8.92233
11.3345
15.6673
19.6066
23.9709
28.5664
31.9881
33.4439
34.4882
35.2856
33.5222
31.5427
28.1071
23.9737
19.3434
14.7808
10.2454
6.01741
1.95661
-1.69787
-3.1163
-0.662734
4.57652
12.0185
13.7783
11.8074
19.2668
20.5383
22.9167
23.0382
25.0967
25.2169
32.1587
52.928
83.6983
96.8609
101.017
100.765
97.7785
92.3635
84.744
73.3912
61.8512
51.5089
42.8349
38.1157
34.661
31.3453
30.2372
28.7572
27.0609
28.8733
30.3271
28.7285
27.4829
29.051
23.1556
21.5981
23.835
19.783
0.257232
-3.35315
-3.83456
-1.07719
2.20299
1.15513
-1.56684
-6.74924
-11.6261
-11.2278
-6.12306
-3.86456
-3.088
-2.58174
-2.40154
-2.22647
-1.68295
-1.2969
-1.03994
-0.840513
-0.723196
-0.644648
-0.327784
-0.129369
0.0215038
0.263518
0.549326
0.933798
1.38993
1.8636
-0.737316
-1.91889
-4.27763
-7.50868
-2.4445
-1.30888
-0.240202
0.886034
3.79013
7.48691
9.3256
6.20825
3.87388
-1.42329
-20.7006
-40.3139
-51.0856
-65.5831
-81.0272
-91.581
-80.9225
-71.5656
-50.0581
-18.4039
11.1383
20.5911
30.759
32.9143
28.3521
17.4374
8.57964
1.4159
-2.53104
-6.15767
-9.38772
-12.097
-14.3072
-15.9814
-17.3509
-19.4233
-20.8262
-22.117
-22.6321
-22.6488
-22.024
-20.6477
-19.0145
-18.312
-19.2808
-23.1369
-26.4652
-23.4464
-12.7464
0.179547
-21.7523
-30.0852
-65.742
-155.664
-370.289
-159.1
-52.0162
-16.1217
-14.4528
-33.1234
-33.9056
-12.193
-9.91844
-9.2461
2.48224
47.6557
94.9822
38.4722
43.4857
63.256
33.5905
25.6771
44.1743
35.7675
34.6962
44.9515
45.1298
47.824
49.6893
45.2979
38.7386
31.2335
23.5108
18.5301
14.6646
14.1355
16.0665
19.0184
22.5507
26.2716
30.7164
36.2175
42.6355
49.6312
56.0666
63.82
68.9942
70.8805
69.4113
65.0072
58.2506
49.6895
39.9938
29.1899
18.8955
8.94259
0.128003
-2.19978
3.24259
9.87209
18.4074
17.2838
26.5609
29.7212
26.5157
25.8958
29.8367
35.0874
50.3039
79.677
105.429
104.432
98.5865
94.3137
88.5125
79.8291
68.2105
53.6747
41.1505
31.0746
25.2165
21.7067
21.4287
20.165
19.5722
20.7458
21.139
22.0691
23.804
22.9632
21.7006
23.0185
20.142
21.7947
21.2652
18.5838
0.171195
-2.7878
-2.35022
0.369435
3.45434
-0.138113
-2.96382
-9.35902
-15.1817
-14.9269
-7.45564
-4.43555
-3.175
-2.5723
-2.64599
-2.67289
-2.22717
-1.66122
-1.21933
-1.01589
-0.854624
-0.747329
-0.352719
-0.206418
0.0820589
0.499355
0.89678
1.52804
2.07846
-0.39479
-1.19023
-3.60254
-7.33954
-3.87909
-1.92294
-1.4223
-0.690336
1.43342
4.42535
9.30617
11.4996
9.18726
5.79737
2.71503
-4.5273
-17.2754
-29.9293
-43.687
-54.9445
-65.8233
-68.4162
-67.3372
-61.6617
-54.2026
-42.5161
-20.718
-1.45902
3.49691
12.7675
19.8676
20.8263
18.467
12.9474
5.77358
0.431987
-3.81242
-7.18664
-9.98523
-12.5355
-14.7333
-16.7714
-18.1637
-18.9485
-19.2803
-19.2643
-18.8598
-18.3095
-18.1633
-20.0782
-26.7039
-35.6973
-39.1412
-32.7442
-18.5686
-1.46561
-13.3783
-25.375
-45.5287
-150.827
-393.526
-193.058
-82.5865
-21.4159
-14.1583
-20.3634
-21.1349
-10.8237
-8.86327
-0.466074
27.9478
77.5482
40.0715
38.8573
58.7973
29.5142
12.0481
19.2371
14.8744
6.10842
13.1886
14.9706
15.2255
20.4585
22.1922
21.2979
19.6863
17.0209
13.9904
12.7944
13.2583
15.8082
19.0717
23.0614
27.8038
33.3026
40.8164
51.9553
66.5391
77.5771
96.1788
116.995
126.817
134.145
136.894
135.576
130.35
121.396
109.07
93.3487
78.4327
60.9231
44.6969
31.4006
29.3868
35.329
38.0078
42.9283
53.1434
41.7247
38.7691
44.567
56.6004
79.7142
107.627
108.597
91.9373
88.3142
83.0521
72.1715
58.2218
41.7899
27.6216
17.0399
13.7423
8.0256
4.78582
5.95692
6.74072
8.58222
8.87982
10.5431
11.679
13.3936
14.8281
14.2687
17.5215
19.7639
22.2679
20.4749
16.822
-0.666374
-2.19599
-1.53274
1.13392
4.58665
0.711114
-3.64185
-10.0587
-17.4667
-18.5124
-9.95029
-5.76107
-3.68171
-2.68464
-2.50594
-2.65496
-2.84925
-2.60509
-1.74211
-1.3165
-1.04131
-0.855671
-0.192924
0.0401337
0.651452
1.18102
1.26409
0.847278
-0.704544
-1.17157
-3.12484
-6.10847
-3.82147
-2.46579
-1.99205
-1.59269
-0.607408
0.905062
4.56471
10.0421
13.2664
11.1531
7.3596
4.65407
-0.15427
-6.0275
-12.0237
-19.995
-28.6713
-37.3434
-44.1319
-48.0145
-49.1488
-47.1726
-42.5002
-36.8526
-30.8248
-14.4064
-9.77686
-2.29679
2.7723
5.53891
6.89957
8.00663
6.68441
4.07812
0.658786
-2.66463
-5.51044
-7.79221
-9.58286
-10.4239
-11.8687
-12.8625
-13.615
-13.9227
-15.0338
-17.2346
-19.874
-27.2706
-35.9845
-43.7507
-47.5782
-44.2677
-25.9554
-5.75263
-6.82489
-13.1859
-23.4672
-101.61
-338.988
-306.002
-125.204
-44.8682
-15.7517
-12.6091
-12.8916
-7.73898
-3.39994
9.87645
40.4622
52.4783
29.6888
49.0003
25.8588
-3.09286
-3.43834
-5.95939
-13.5813
-14.9586
-11.4647
-15.4823
-14.8171
-13.5405
-12.5732
-11.6097
-10.2961
-7.18373
-3.40144
1.09614
6.4567
11.9374
18.0406
23.939
30.4087
40.9189
57.8966
78.0284
92.1208
114.584
158.463
172.299
183.093
188.213
188.246
184.193
176.15
165.702
154.389
136.005
116.193
96.4682
83.9984
81.1958
72.0418
72.8598
79.2563
67.8151
50.5393
64.5172
72.114
95.0132
118.701
125.662
95.1396
99.4382
91.7052
74.8213
53.8858
30.9964
19.5576
12.4685
8.97246
6.53899
6.50197
6.39711
7.36027
5.81093
3.60663
5.67945
5.77854
6.52959
8.89654
9.56966
11.1833
15.1283
18.6992
23.1925
22.7914
15.4593
-0.673124
-1.72947
-0.87499
1.80222
5.40086
2.60035
-3.15474
-8.40831
-17.5321
-22.0284
-17.2042
-8.55928
-5.12792
-3.35124
-2.45168
-2.29015
-2.05407
-2.39279
-2.23269
-1.72746
-1.53108
-1.04316
-0.334071
-0.507631
-0.372864
-0.625966
-1.39999
-1.78126
-2.03282
-4.11884
-6.45165
-3.59522
-2.63435
-2.35169
-2.06672
-2.16286
-1.81902
-0.531863
3.42071
10.5537
19.9315
21.0438
13.5026
9.21969
6.3039
0.187074
-5.83898
-9.56294
-12.7574
-16.3521
-19.9759
-24.1398
-27.1483
-28.823
-28.8717
-27.3906
-24.832
-23.1064
-15.7967
-12.4679
-9.4807
-6.8789
-4.72289
-3.02015
-2.31268
-2.52856
-1.90283
0.04086
2.12819
2.6652
3.13021
2.74589
0.577854
-1.47515
-4.05911
-6.95959
-9.47883
-15.5512
-18.8365
-21.2821
-24.9908
-28.6701
-35.3865
-45.8661
-54.8276
-50.0405
-9.62707
-1.38456
-1.52814
-7.8254
-61.2542
-191.865
-368.761
-178.522
-80.3971
-27.696
-8.42577
-1.66908
-1.38985
1.81326
15.7145
19.9238
16.9066
22.4398
18.6105
-9.73883
-16.6752
-20.6043
-32.9155
-35.1975
-37.1893
-38.9514
-40.8177
-43.1448
-44.7346
-45.0978
-43.8557
-40.6767
-35.5134
-28.8882
-20.9304
-10.9146
-0.526644
8.04166
16.2441
29.4723
50.8695
76.2711
96.1056
112.497
172.601
205.186
222.649
233.07
237.101
234.137
223.425
207.606
184.1
161.735
139.915
123.35
113.71
106.934
111.529
129.122
104.707
85.3944
83.2057
105.083
115.734
144.524
140.37
111.368
104.637
96.8653
71.8571
40.0586
23.8306
13.7086
8.47097
5.36525
4.14266
3.64018
1.65498
-0.508822
-1.1405
1.13587
-0.358003
1.70415
3.86297
2.64766
5.76103
8.08954
9.68935
12.5801
18.5076
23.7539