/*--------------------------------*- C++ -*----------------------------------*\
| =========                 |                                                 |
| \\      /  F ield         | OpenFOAM: The Open Source CFD Toolbox           |
|  \\    /   O peration     | Version:  2112                                  |
|   \\  /    A nd           | Website:  www.openfoam.com                      |
|    \\/     M anipulation  |                                                 |
\*---------------------------------------------------------------------------*/
FoamFile
{
    version     2.0;
    format      ascii;
    arch        "LSB;label=32;scalar=64";
    class       volScalarField;
    location    "0.13";
    object      kU;
}
// * * * * * * * * * * * * * * * * * * * * * * * * * * * * * * * * * * * * * //

dimensions      [0 2 -2 0 0 0 0];

internalField   nonuniform List<scalar> 
12225
(
0.624321
0.890851
1.03681
1.10061
1.11601
1.1055
1.08231
1.05386
1.02418
0.99538
0.96847
0.943858
0.92163
0.901708
0.883926
0.868079
0.853936
0.841044
0.28042
0.294209
0.299678
0.300301
0.298473
0.295644
0.292842
0.290783
0.289837
0.290138
0.291695
0.294444
0.298287
0.30311
0.308799
0.315242
0.322454
0.330401
0.263424
0.263257
0.258655
0.250988
0.241738
0.231814
0.221818
0.212173
0.203149
0.194902
0.187502
0.180961
0.175259
0.170349
0.16618
0.162694
0.159853
0.157566
0.260784
0.258441
0.255095
0.250668
0.245447
0.239753
0.233824
0.227836
0.221917
0.21616
0.210626
0.205355
0.200369
0.195676
0.191276
0.187163
0.183326
0.179765
0.26037
0.25796
0.255226
0.252126
0.248688
0.244995
0.241144
0.237217
0.233284
0.229396
0.225591
0.221898
0.218334
0.214912
0.211638
0.208513
0.205536
0.202722
0.26031
0.258004
0.255613
0.253088
0.250433
0.247675
0.244849
0.241989
0.239124
0.236282
0.233484
0.230746
0.228081
0.225498
0.223003
0.220598
0.218287
0.21609
0.260307
0.258073
0.255861
0.253637
0.251389
0.249122
0.246843
0.244565
0.242299
0.240058
0.237854
0.235694
0.233587
0.231538
0.229551
0.227628
0.225772
0.224005
0.26031
0.258111
0.255989
0.25392
0.251889
0.249888
0.247914
0.245968
0.244053
0.242173
0.240333
0.238535
0.236784
0.235082
0.23343
0.231831
0.230286
0.228814
0.26031
0.258124
0.256043
0.254048
0.252125
0.250264
0.248459
0.246704
0.244996
0.243335
0.241721
0.240152
0.23863
0.237156
0.235728
0.234347
0.233015
0.231748
0.260309
0.258127
0.25606
0.254095
0.252221
0.250429
0.24871
0.247058
0.245467
0.243933
0.242454
0.241026
0.239649
0.23832
0.237039
0.235804
0.234615
0.233486
0.260307
0.258125
0.256062
0.254107
0.252252
0.250489
0.248809
0.247207
0.245675
0.244209
0.242804
0.241457
0.240165
0.238924
0.237733
0.236589
0.235492
0.234454
0.260306
0.258123
0.25606
0.254107
0.252257
0.250503
0.248837
0.247253
0.245746
0.244308
0.242937
0.241628
0.240376
0.23918
0.238035
0.236939
0.235892
0.234902
0.260305
0.258121
0.256056
0.254103
0.252255
0.250503
0.248842
0.247265
0.245767
0.244343
0.242987
0.241696
0.240466
0.239292
0.238172
0.237103
0.236083
0.235122
0.260304
0.258119
0.256053
0.254099
0.252249
0.250498
0.248837
0.247262
0.245767
0.244347
0.242997
0.241714
0.240492
0.239329
0.238221
0.237166
0.23616
0.235214
0.260303
0.258117
0.25605
0.254095
0.252244
0.250491
0.248829
0.247254
0.245758
0.244339
0.24299
0.241708
0.240489
0.239329
0.238224
0.237173
0.236172
0.235231
0.260303
0.258116
0.256048
0.254091
0.252239
0.250485
0.248822
0.247245
0.245749
0.244328
0.242978
0.241696
0.240476
0.239315
0.238211
0.23716
0.23616
0.23522
0.260302
0.258115
0.256046
0.254089
0.252235
0.25048
0.248816
0.247238
0.24574
0.244319
0.242968
0.241684
0.240463
0.239302
0.238197
0.237145
0.236144
0.235202
0.260302
0.258114
0.256045
0.254087
0.252233
0.250477
0.248812
0.247233
0.245735
0.244312
0.242961
0.241676
0.240455
0.239292
0.238186
0.237133
0.236131
0.235189
0.260302
0.258114
0.256045
0.254087
0.252233
0.250476
0.248811
0.247232
0.245734
0.244311
0.242959
0.241674
0.240452
0.239289
0.238183
0.23713
0.236127
0.235185
0.260302
0.258115
0.256046
0.254088
0.252234
0.250479
0.248814
0.247236
0.245737
0.244315
0.242964
0.241679
0.240457
0.239295
0.238188
0.237135
0.236133
0.23519
0.260303
0.258116
0.256047
0.25409
0.252238
0.250482
0.248819
0.247241
0.245743
0.244321
0.24297
0.241685
0.240462
0.239299
0.238191
0.237136
0.236132
0.235187
0.260303
0.258117
0.25605
0.254093
0.252241
0.250487
0.248823
0.247243
0.245744
0.244318
0.242962
0.241671
0.240442
0.23927
0.238152
0.237085
0.236068
0.23511
0.260304
0.258119
0.256052
0.254096
0.252241
0.250482
0.248809
0.247218
0.2457
0.244253
0.242869
0.241547
0.240281
0.239069
0.237908
0.236795
0.235729
0.23472
0.260305
0.258121
0.256052
0.254087
0.252215
0.250427
0.248713
0.247067
0.245481
0.243952
0.242476
0.24105
0.239673
0.238343
0.237058
0.235818
0.234623
0.233484
0.260309
0.258126
0.256048
0.254048
0.252107
0.250211
0.248352
0.246526
0.244732
0.242973
0.24125
0.239566
0.237922
0.236321
0.234764
0.233253
0.23179
0.230388
0.260333
0.258175
0.256086
0.254003
0.251873
0.249679
0.247432
0.245151
0.242856
0.240565
0.238294
0.236055
0.233859
0.231712
0.229621
0.227591
0.225625
0.223739
0.260522
0.258619
0.256562
0.254125
0.251315
0.248238
0.244984
0.241622
0.238204
0.234775
0.23137
0.228016
0.224735
0.221543
0.218452
0.215469
0.2126
0.20986
0.261947
0.261825
0.259794
0.256154
0.251561
0.24638
0.24081
0.235009
0.229112
0.223234
0.217467
0.21188
0.206524
0.201433
0.196628
0.192119
0.187907
0.184
0.270454
0.276047
0.278185
0.278602
0.277868
0.276194
0.27377
0.270904
0.267881
0.264913
0.26215
0.259694
0.25761
0.255931
0.25467
0.253829
0.253406
0.253422
0.450001
0.612158
0.732045
0.825314
0.891761
0.934688
0.958574
0.967911
0.966686
0.958161
0.944857
0.928642
0.91086
0.892451
0.874055
0.85609
0.838803
0.822382
0.0138289
0.024535
0.0349585
0.048377
0.0614697
0.0739934
0.0836179
0.0914497
0.0977813
0.10288
0.106874
0.109891
0.112039
0.113408
0.114071
0.114083
0.113484
0.1123
0.110539
0.108189
0.10528
0.102344
0.0992807
0.0960142
0.0924565
0.08855
0.084281
0.0797004
0.074969
0.0704517
0.0668735
0.065468
0.0678418
0.0760712
0.0925063
0.114297
0.137863
0.159855
0.177879
0.19053
0.197205
0.197905
0.193789
0.192256
0.192989
0.195096
0.198137
0.203257
0.215067
0.244555
0.294139
0.349444
0.407889
0.466719
0.523974
0.578359
0.62909
0.675767
0.718254
0.756599
0.790971
0.821622
0.848858
0.873031
0.894541
0.913841
0.931456
0.948018
0.963242
0.976098
0.986701
0.995076
1.00119
1.00496
1.00629
1.00505
1.0011
0.994278
0.984408
0.971317
0.954843
0.934846
0.911223
0.883915
0.852928
0.818425
0.781156
0.743777
0.71297
0.682959
0.648206
0.608316
0.563966
0.516401
0.467083
0.417349
0.368766
0.324714
0.28827
0.258754
0.236343
0.221192
0.212894
0.210282
0.211598
0.214856
0.218216
0.220351
0.22096
0.221458
0.225514
0.23888
0.269028
0.315495
0.363093
0.409507
0.453598
0.494776
0.532721
0.567276
0.598395
0.626113
0.650544
0.671881
0.690426
0.706639
0.721189
0.734226
0.744273
0.751456
0.755837
0.757456
0.756357
0.752589
0.74621
0.737285
0.72589
0.712113
0.696056
0.67784
0.657618
0.635604
0.612203
0.588655
0.570885
0.566078
0.562783
0.558866
0.554293
0.549187
0.543681
0.537892
0.531909
0.525786
0.519543
0.513159
0.506572
0.499675
0.492328
0.484247
0.474776
0.46411
0.452891
0.44062
0.42723
0.412825
0.397547
0.381503
0.364744
0.347268
0.32905
0.310094
0.29048
0.270408
0.250216
0.230343
0.211291
0.193413
0.177129
0.161705
0.0236549
0.0509907
0.0820668
0.108878
0.132049
0.151752
0.16812
0.181399
0.191863
0.19982
0.205577
0.209423
0.211614
0.212376
0.211905
0.210375
0.207941
0.204741
0.200897
0.196497
0.191575
0.185974
0.179941
0.173579
0.167016
0.160422
0.154037
0.14822
0.143568
0.141138
0.142782
0.151283
0.169511
0.198246
0.236034
0.283172
0.333876
0.382707
0.426116
0.463139
0.495816
0.53127
0.56967
0.606991
0.651944
0.698479
0.738926
0.770026
0.792218
0.808749
0.822851
0.836475
0.851288
0.868413
0.88859
0.912218
0.939405
0.97002
1.00376
1.04023
1.07896
1.1195
1.16139
1.20424
1.24768
1.29137
1.33502
1.3784
1.42103
1.46368
1.50602
1.54758
1.58785
1.62627
1.66227
1.69519
1.72434
1.74896
1.76823
1.78133
1.78742
1.78575
1.77564
1.75649
1.72776
1.68889
1.63902
1.57652
1.499
1.41425
1.32037
1.21767
1.10812
0.994836
0.88185
0.773505
0.673365
0.582701
0.504572
0.445034
0.404106
0.38092
0.37417
0.382156
0.402841
0.434
0.472984
0.515731
0.556275
0.589105
0.61424
0.6364
0.661252
0.691502
0.725923
0.763936
0.804898
0.848076
0.892739
0.938225
0.983958
1.02943
1.07419
1.11783
1.15995
1.20026
1.23854
1.2737
1.30624
1.33592
1.36242
1.38544
1.40471
1.41999
1.43107
1.43777
1.43993
1.43743
1.4302
1.41821
1.40151
1.38021
1.35458
1.32496
1.29367
1.26229
1.22932
1.19504
1.16004
1.12489
1.09013
1.05622
1.02353
0.992363
0.962908
0.93528
0.90951
0.885558
0.863318
0.842593
0.82298
0.803246
0.78401
0.766615
0.751102
0.737194
0.724294
0.71152
0.697768
0.68183
0.662563
0.63909
0.610986
0.578415
0.542174
0.503627
0.464462
0.426656
0.391245
0.363026
0.0307494
0.079211
0.116381
0.144769
0.167487
0.186458
0.202653
0.216485
0.228127
0.237678
0.245226
0.250871
0.254734
0.256953
0.257686
0.257101
0.255378
0.252698
0.249238
0.245166
0.240632
0.235767
0.230573
0.225104
0.219444
0.213765
0.208408
0.204018
0.201745
0.203536
0.212382
0.232094
0.266113
0.315556
0.377745
0.446105
0.516264
0.58371
0.645355
0.700452
0.746793
0.782989
0.814221
0.842695
0.867365
0.885514
0.896344
0.901858
0.905707
0.91159
0.922127
0.938652
0.961517
0.990313
1.0241
1.06164
1.10162
1.14284
1.18443
1.22585
1.26694
1.30779
1.34865
1.38983
1.43158
1.47404
1.51719
1.56084
1.60559
1.65137
1.69774
1.74416
1.79005
1.83483
1.87783
1.91833
1.95552
1.98847
2.01611
2.0373
2.05088
2.05575
2.05093
2.0357
2.0095
1.97189
1.92228
1.85948
1.78074
1.69063
1.59046
1.47944
1.35896
1.23194
1.10272
0.976531
0.858645
0.753339
0.663823
0.593345
0.546529
0.52477
0.528573
0.556649
0.604432
0.662921
0.719303
0.760935
0.782419
0.791349
0.802523
0.825537
0.861911
0.909016
0.962895
1.01997
1.0775
1.1338
1.1881
1.24032
1.29077
1.33983
1.38785
1.43504
1.48141
1.52679
1.57085
1.61244
1.65127
1.6868
1.71854
1.74604
1.76889
1.78676
1.79937
1.80647
1.80787
1.80341
1.79301
1.77662
1.75428
1.72609
1.69228
1.65341
1.61268
1.56992
1.52521
1.47922
1.4327
1.38641
1.34103
1.29713
1.2552
1.21557
1.1785
1.14411
1.11243
1.0834
1.05689
1.03265
1.0103
0.988851
0.967216
0.946063
0.925521
0.905606
0.886141
0.866703
0.846612
0.824963
0.80073
0.772935
0.740859
0.704259
0.663513
0.619671
0.574312
0.529431
0.486674
0.449448
0.0347092
0.0999855
0.140181
0.168914
0.191891
0.21154
0.228751
0.243794
0.256734
0.267585
0.276375
0.283156
0.288019
0.291089
0.292522
0.292501
0.291229
0.288921
0.285802
0.282101
0.278053
0.273899
0.269669
0.265472
0.261436
0.257784
0.254955
0.253804
0.255875
0.263729
0.281138
0.312684
0.362309
0.431064
0.515589
0.608613
0.700974
0.782363
0.843082
0.884056
0.907958
0.919534
0.924325
0.926312
0.927551
0.929119
0.932422
0.939405
0.951922
0.971097
0.997046
1.02898
1.06547
1.1048
1.1452
1.18508
1.22328
1.25913
1.29252
1.32383
1.35382
1.38338
1.4134
1.44459
1.4774
1.51198
1.54815
1.58561
1.62492
1.66575
1.70767
1.75024
1.79304
1.83569
1.87778
1.91879
1.9581
1.99482
2.02785
2.05584
2.07731
2.09076
2.09486
2.08858
2.07128
2.04263
2.00235
1.94981
1.88333
1.80372
1.71385
1.61183
1.49786
1.37386
1.24358
1.11249
0.987134
0.874241
0.779697
0.708231
0.665035
0.652475
0.670693
0.715291
0.774855
0.831892
0.870142
0.885153
0.88877
0.90003
0.929163
0.976027
1.03552
1.10148
1.16873
1.2339
1.29541
1.35305
1.40744
1.45958
1.51047
1.56088
1.61125
1.66167
1.71189
1.76139
1.80945
1.85491
1.89716
1.93551
1.96932
1.99807
2.02131
2.03868
2.04987
2.05464
2.05282
2.04427
2.02889
2.00669
1.97767
1.94196
1.89976
1.85348
1.8044
1.75281
1.69939
1.64498
1.5905
1.53682
1.48471
1.43482
1.38767
1.34365
1.30298
1.26578
1.23206
1.20172
1.17457
1.15033
1.12857
1.10853
1.08919
1.07008
1.05105
1.03187
1.01224
0.991766
0.969912
0.945957
0.919057
0.888353
0.853152
0.813125
0.768497
0.720139
0.669533
0.618614
0.569348
0.524364
0.0471376
0.117621
0.158862
0.189417
0.214909
0.236997
0.256218
0.272791
0.286851
0.298505
0.307862
0.315042
0.320183
0.323444
0.325009
0.32508
0.323882
0.321656
0.318662
0.315181
0.311525
0.307884
0.304435
0.301375
0.298938
0.297459
0.297516
0.300145
0.307147
0.32144
0.347235
0.389546
0.452518
0.536847
0.637909
0.746758
0.842991
0.917759
0.966382
0.989942
0.994035
0.986731
0.975839
0.966977
0.963292
0.966239
0.976456
0.994082
1.01872
1.04936
1.08447
1.12218
1.16048
1.19745
1.23149
1.26156
1.28728
1.30897
1.32755
1.34428
1.36048
1.37739
1.39592
1.41662
1.43973
1.46512
1.49247
1.52155
1.55237
1.58448
1.61752
1.65123
1.68556
1.72055
1.75635
1.79302
1.83044
1.86814
1.9052
1.94021
1.97136
1.99659
2.01394
2.02179
2.0191
2.00545
1.98077
1.94501
1.8973
1.83674
1.76566
1.68151
1.58318
1.47112
1.34795
1.21884
1.09126
0.974073
0.87608
0.804788
0.766112
0.761807
0.788867
0.837141
0.889184
0.926768
0.942786
0.947741
0.961749
0.996109
1.05066
1.11912
1.1941
1.2695
1.34138
1.40798
1.46922
1.52611
1.5801
1.6327
1.68506
1.73789
1.79144
1.84547
1.89944
1.95251
2.00367
2.05166
2.0957
2.13501
2.1689
2.19683
2.21835
2.23313
2.24088
2.24143
2.23461
2.22031
2.19847
2.16912
2.13219
2.08791
2.03804
1.98416
1.92697
1.86726
1.80595
1.74409
1.68271
1.6228
1.56525
1.51078
1.45995
1.41316
1.37065
1.33248
1.29863
1.26894
1.24316
1.22095
1.20182
1.18507
1.16979
1.15499
1.14024
1.12502
1.10881
1.09105
1.07109
1.0482
1.02156
0.990376
0.953998
0.912102
0.864869
0.813105
0.758241
0.702189
0.647104
0.595384
0.0656481
0.134897
0.178346
0.212565
0.241309
0.265753
0.286519
0.304034
0.318614
0.330512
0.339939
0.347085
0.352137
0.355288
0.356741
0.356713
0.355441
0.353181
0.350216
0.346862
0.343482
0.340258
0.337457
0.335367
0.334338
0.334847
0.337633
0.343902
0.355632
0.375907
0.409062
0.460148
0.533183
0.628541
0.737945
0.844357
0.934558
0.999775
1.03689
1.04887
1.04338
1.02995
1.01696
1.00989
1.01127
1.0216
1.0402
1.06576
1.09654
1.13051
1.16548
1.19926
1.22985
1.25572
1.27601
1.29068
1.30046
1.30663
1.31082
1.31465
1.31954
1.32654
1.33629
1.34904
1.36468
1.38286
1.40306
1.42487
1.44741
1.47003
1.49232
1.51423
1.53608
1.55857
1.58264
1.60933
1.63952
1.67365
1.71147
1.75186
1.79284
1.83181
1.86588
1.89241
1.90941
1.91589
1.91163
1.89682
1.87119
1.83385
1.78557
1.72365
1.64581
1.55086
1.4398
1.31679
1.18953
1.06868
0.96607
0.892408
0.854561
0.852247
0.878275
0.91804
0.953728
0.974305
0.98426
1.00046
1.03764
1.09618
1.17042
1.25244
1.33533
1.41431
1.48701
1.55304
1.61342
1.6699
1.72434
1.77837
1.83306
1.88892
1.94588
2.0034
2.06061
2.11642
2.16953
2.21862
2.26286
2.30144
2.3337
2.35911
2.3773
2.38798
2.39095
2.38607
2.37322
2.3523
2.32326
2.28618
2.24074
2.18896
2.1318
2.07022
2.00513
1.93752
1.86849
1.79923
1.73095
1.66479
1.60178
1.54277
1.48841
1.43914
1.39522
1.35669
1.32349
1.29538
1.27205
1.25307
1.2379
1.22581
1.21588
1.20694
1.19821
1.189
1.17855
1.16608
1.15074
1.13164
1.1079
1.07866
1.04326
1.00138
0.953176
0.899439
0.841587
0.78153
0.721571
0.664116
0.0863542
0.154066
0.201729
0.239742
0.270857
0.296643
0.318115
0.335951
0.350625
0.362484
0.371801
0.37881
0.383722
0.386744
0.388087
0.387973
0.386642
0.384358
0.381416
0.378157
0.374975
0.372066
0.369759
0.368428
0.368534
0.370689
0.37578
0.385158
0.400915
0.426165
0.46514
0.522648
0.602451
0.700721
0.806137
0.905609
0.987517
1.04452
1.07506
1.08334
1.07765
1.0673
1.05986
1.05979
1.0686
1.08581
1.10983
1.13853
1.16951
1.20032
1.22859
1.2523
1.27
1.28106
1.28573
1.28505
1.28067
1.27452
1.26851
1.26428
1.26302
1.26544
1.27175
1.28177
1.29502
1.31077
1.32822
1.34631
1.36336
1.37832
1.39058
1.40005
1.40726
1.41338
1.42024
1.4301
1.44531
1.46787
1.4989
1.53829
1.58449
1.63465
1.68507
1.73178
1.77134
1.80151
1.82128
1.83063
1.82956
1.81769
1.79456
1.75764
1.70368
1.6299
1.53533
1.42236
1.29786
1.17333
1.06326
0.981879
0.937448
0.928111
0.943965
0.969626
0.991566
1.00694
1.02553
1.06093
1.11947
1.1966
1.28362
1.37328
1.45974
1.53965
1.61188
1.67706
1.73692
1.79359
1.84911
1.90504
1.9623
2.02111
2.08108
2.14136
2.20079
2.258
2.31148
2.35998
2.4027
2.43889
2.46793
2.48941
2.50306
2.50867
2.50609
2.49529
2.47613
2.4485
2.41234
2.36781
2.31606
2.25788
2.19408
2.12557
2.05327
1.97827
1.90179
1.82515
1.74972
1.67684
1.60772
1.54343
1.48476
1.4323
1.38637
1.34704
1.31423
1.28768
1.26698
1.25163
1.24101
1.23433
1.23063
1.22861
1.22717
1.22545
1.2225
1.2173
1.20875
1.19576
1.17725
1.15223
1.11996
1.08008
1.03271
0.978631
0.919253
0.856508
0.792826
0.730712
0.106271
0.175393
0.228219
0.269056
0.301506
0.327915
0.349659
0.367586
0.382254
0.39406
0.403309
0.410252
0.415112
0.418101
0.419426
0.419307
0.417982
0.415716
0.412814
0.409631
0.406583
0.40388
0.401908
0.401117
0.402062
0.405468
0.412338
0.424129
0.442975
0.47192
0.514954
0.576572
0.656733
0.750598
0.848724
0.939893
1.01437
1.06639
1.09541
1.10593
1.10568
1.10281
1.10359
1.11136
1.12678
1.14871
1.175
1.20308
1.23023
1.25392
1.27205
1.28321
1.28688
1.2835
1.27442
1.26161
1.24738
1.234
1.22341
1.217
1.21557
1.2193
1.2279
1.24072
1.25683
1.27517
1.29457
1.31311
1.32872
1.33994
1.34568
1.3454
1.33931
1.3286
1.31554
1.30343
1.29623
1.29793
1.31178
1.33954
1.38101
1.43401
1.49466
1.55798
1.61887
1.67336
1.71885
1.7545
1.78003
1.7951
1.79925
1.78991
1.76319
1.71491
1.64204
1.54455
1.42722
1.3008
1.18118
1.08587
1.02597
1.00038
0.999676
1.0109
1.02551
1.04485
1.07746
1.13059
1.20433
1.2924
1.38709
1.48134
1.56933
1.64925
1.72079
1.78529
1.84493
1.90206
1.95873
2.0164
2.07577
2.13676
2.19867
2.26035
2.32038
2.37723
2.42907
2.47508
2.51449
2.54666
2.5711
2.58751
2.59575
2.59573
2.58731
2.57061
2.54543
2.51156
2.46983
2.42039
2.36384
2.3008
2.23195
2.15803
2.07995
1.99877
1.91574
1.83225
1.74981
1.66994
1.59409
1.52356
1.45942
1.40245
1.35316
1.31176
1.27821
1.25225
1.23346
1.22128
1.21499
1.21376
1.21654
1.22194
1.22857
1.23537
1.24121
1.2448
1.24481
1.23986
1.22863
1.20994
1.18289
1.147
1.10234
1.04965
0.990327
0.926345
0.860241
0.794651
0.123826
0.198432
0.256209
0.298948
0.332213
0.359022
0.380977
0.399014
0.413739
0.425578
0.434859
0.441845
0.446763
0.449821
0.451222
0.451177
0.449919
0.447716
0.444879
0.441778
0.438804
0.436222
0.434463
0.434039
0.435576
0.439878
0.448031
0.461543
0.482527
0.513908
0.55918
0.620139
0.696354
0.783318
0.873073
0.956393
1.02536
1.07542
1.10647
1.12254
1.13015
1.13601
1.1451
1.15984
1.18031
1.20493
1.23123
1.2564
1.27769
1.29277
1.30009
1.29905
1.29013
1.27483
1.25544
1.23466
1.21523
1.19951
1.18924
1.18538
1.18814
1.19715
1.2116
1.23044
1.25243
1.2762
1.30026
1.32222
1.34005
1.35193
1.3562
1.35156
1.33739
1.31415
1.28378
1.24984
1.21742
1.19244
1.18062
1.18616
1.21104
1.25476
1.31446
1.38531
1.46103
1.53609
1.60572
1.66777
1.72003
1.76325
1.79659
1.81736
1.82129
1.80318
1.75814
1.68341
1.5806
1.45778
1.33001
1.2169
1.1338
1.08398
1.06212
1.05929
1.07009
1.09573
1.14057
1.20635
1.28979
1.38413
1.48206
1.57732
1.66572
1.74577
1.81682
1.88078
1.94026
1.99765
2.05499
2.11363
2.17402
2.23582
2.29804
2.35925
2.41785
2.47219
2.5204
2.56203
2.59646
2.62319
2.64189
2.65237
2.65465
2.64877
2.63452
2.61223
2.58208
2.54415
2.49876
2.44617
2.38671
2.32079
2.2489
2.17165
2.08981
2.00432
1.91638
1.82736
1.73882
1.65241
1.56976
1.49242
1.42177
1.35891
1.30461
1.25934
1.22324
1.19617
1.17776
1.16742
1.16443
1.16787
1.17665
1.1893
1.20415
1.21997
1.23537
1.24883
1.25873
1.26341
1.26123
1.25076
1.23086
1.20089
1.1608
1.11126
1.05365
0.989964
0.922835
0.855039
0.138543
0.222591
0.28471
0.328964
0.362995
0.39027
0.412523
0.430753
0.445612
0.457563
0.466956
0.474068
0.479127
0.482338
0.483894
0.484
0.482883
0.48081
0.478102
0.475153
0.472259
0.469804
0.468246
0.46813
0.470128
0.475092
0.48415
0.49886
0.521151
0.553266
0.597569
0.655311
0.725634
0.804714
0.886187
0.9627
1.02788
1.07801
1.11293
1.13576
1.15166
1.16592
1.18239
1.20284
1.22693
1.25288
1.27803
1.29951
1.3147
1.32162
1.31932
1.308
1.28904
1.26485
1.23849
1.21323
1.19203
1.17717
1.17001
1.17096
1.17966
1.1952
1.21635
1.24172
1.26983
1.29909
1.32775
1.35374
1.3753
1.39049
1.39726
1.3936
1.37791
1.34945
1.30896
1.25925
1.20545
1.15465
1.11488
1.09275
1.09262
1.11618
1.16257
1.22865
1.3082
1.39526
1.4832
1.56657
1.64438
1.71571
1.77907
1.83164
1.86895
1.88516
1.87393
1.82995
1.75117
1.6414
1.51223
1.38272
1.27271
1.1931
1.14577
1.12677
1.13219
1.16095
1.21287
1.28569
1.37416
1.4713
1.57019
1.6652
1.75277
1.83147
1.90151
1.96482
2.024
2.08119
2.13827
2.19661
2.25649
2.31733
2.3779
2.43659
2.49165
2.54137
2.58415
2.6198
2.64788
2.66808
2.68022
2.6842
2.68017
2.66844
2.64915
2.62259
2.58895
2.54835
2.50095
2.44688
2.3863
2.31944
2.24659
2.1682
2.08485
1.99733
1.90668
1.81416
1.72126
1.62963
1.54101
1.45713
1.37964
1.30995
1.24923
1.19828
1.15756
1.12719
1.10697
1.09644
1.0949
1.10145
1.11496
1.13391
1.15646
1.18114
1.2063
1.23017
1.25083
1.26628
1.27456
1.27391
1.26289
1.24063
1.2069
1.16225
1.10802
1.0462
0.97949
0.910814
0.150556
0.247371
0.313415
0.35926
0.394241
0.422126
0.444763
0.463237
0.478265
0.490363
0.499911
0.507205
0.512478
0.51593
0.517749
0.518129
0.517293
0.515501
0.513075
0.510412
0.507814
0.505686
0.504503
0.50483
0.507353
0.512924
0.522619
0.537796
0.560086
0.59128
0.633012
0.686067
0.749603
0.820642
0.894323
0.964941
1.02739
1.07848
1.11773
1.14726
1.17084
1.19249
1.21519
1.24019
1.26696
1.29362
1.3175
1.33575
1.34592
1.34636
1.3366
1.31747
1.29108
1.26054
1.22954
1.20174
1.18023
1.16714
1.16343
1.16906
1.18313
1.2043
1.23095
1.26139
1.29388
1.32669
1.3579
1.38647
1.41095
1.42957
1.4402
1.44049
1.42809
1.40112
1.35883
1.30244
1.23594
1.16626
1.10318
1.05513
1.02847
1.02683
1.05134
1.10165
1.17288
1.25861
1.35325
1.45174
1.55056
1.64719
1.73922
1.82343
1.89516
1.94817
1.97516
1.96882
1.92365
1.83852
1.71949
1.58165
1.44745
1.3365
1.25992
1.22008
1.21468
1.2403
1.293
1.36748
1.457
1.5542
1.65231
1.74601
1.83204
1.90913
1.97773
2.03968
2.09735
2.153
2.20849
2.26496
2.32255
2.3805
2.43745
2.49164
2.54128
2.58465
2.62057
2.64901
2.66973
2.68261
2.68768
2.6851
2.6752
2.65835
2.63485
2.60498
2.56893
2.52678
2.47859
2.42435
2.36409
2.29787
2.22585
2.14828
2.06557
1.97833
1.88737
1.79376
1.69883
1.6041
1.51127
1.42213
1.33848
1.262
1.19419
1.13626
1.0891
1.05321
1.02874
1.01548
1.01294
1.0203
1.03649
1.06002
1.08898
1.12164
1.15612
1.19034
1.22207
1.24896
1.26867
1.27908
1.27839
1.26541
1.23968
1.20158
1.15234
1.09392
1.02909
0.960878
0.160518
0.272401
0.342257
0.38999
0.426137
0.454735
0.477791
0.496512
0.511708
0.523963
0.533704
0.541249
0.546843
0.550688
0.552967
0.553868
0.553604
0.552428
0.550651
0.548658
0.546749
0.545323
0.544848
0.545875
0.549061
0.555203
0.565263
0.580398
0.601927
0.631225
0.669463
0.717168
0.773706
0.836941
0.903334
0.968585
1.02863
1.08065
1.12378
1.15916
1.18932
1.2172
1.24503
1.27373
1.3027
1.33007
1.35327
1.36954
1.37652
1.37277
1.35808
1.33366
1.30205
1.26687
1.23225
1.20217
1.17986
1.16735
1.1654
1.17358
1.19067
1.21494
1.24443
1.27716
1.31117
1.3446
1.37592
1.4049
1.43052
1.45132
1.46533
1.47014
1.46304
1.44142
1.40331
1.34833
1.2787
1.19972
1.12238
1.05566
1.00727
0.982227
0.982983
1.01
1.0617
1.13498
1.22561
1.3289
1.44037
1.5561
1.67252
1.78563
1.89037
1.98016
2.04711
2.08256
2.07833
2.02871
1.93343
1.80086
1.65233
1.51428
1.4074
1.34186
1.31874
1.33387
1.38075
1.4517
1.53855
1.63331
1.72904
1.82046
1.90433
1.97938
2.04604
2.10596
2.16135
2.21441
2.26689
2.31979
2.37315
2.42618
2.47745
2.52521
2.5677
2.60332
2.63136
2.65188
2.66482
2.67025
2.66838
2.65956
2.64421
2.62281
2.59572
2.56321
2.52544
2.48247
2.43423
2.38065
2.32166
2.25719
2.18729
2.11207
2.03178
1.94682
1.8578
1.76554
1.67112
1.57585
1.48125
1.38902
1.30096
1.21886
1.14445
1.07929
1.02466
0.981563
0.950599
0.932011
0.925654
0.931014
0.947204
0.972858
1.00616
1.04519
1.08781
1.13165
1.17415
1.21258
1.24422
1.26649
1.27721
1.27481
1.25851
1.22844
1.1857
1.13217
1.07064
1.00421
0.168969
0.296023
0.370543
0.420709
0.458295
0.487727
0.511247
0.530228
0.545608
0.558059
0.568069
0.575992
0.582094
0.586583
0.58964
0.591447
0.592202
0.592139
0.591546
0.590777
0.590124
0.589963
0.590729
0.592927
0.59715
0.604099
0.614595
0.629581
0.650095
0.677178
0.711695
0.754057
0.803892
0.859801
0.919352
0.979426
1.03685
1.08915
1.13513
1.17511
1.21058
1.24351
1.27551
1.30724
1.33814
1.3665
1.38988
1.40562
1.41144
1.40591
1.38884
1.3615
1.3266
1.28794
1.24991
1.21676
1.1919
1.17746
1.17418
1.18151
1.19802
1.22174
1.25048
1.28199
1.31415
1.34522
1.3746
1.40219
1.4274
1.44899
1.4652
1.4737
1.47174
1.45638
1.42498
1.37605
1.31044
1.23251
1.15034
1.07345
1.0103
0.966722
0.946096
0.95011
0.979199
1.03279
1.10934
1.20618
1.31963
1.44539
1.57892
1.71532
1.84885
1.97254
2.07806
2.15594
2.19625
2.18982
2.1306
2.01924
1.87174
1.71726
1.58406
1.49085
1.44431
1.44203
1.47665
1.53894
1.61937
1.70914
1.80082
1.88889
1.9699
2.04238
2.10657
2.16384
2.21619
2.26565
2.31386
2.36172
2.40927
2.45574
2.49977
2.53968
2.57383
2.60083
2.62036
2.63259
2.6376
2.63564
2.62704
2.61229
2.59189
2.56634
2.53603
2.50125
2.46211
2.4186
2.37064
2.31808
2.26079
2.19866
2.13164
2.05977
1.98315
1.90203
1.8168
1.72804
1.63654
1.54331
1.44964
1.357
1.26703
1.18149
1.10216
1.03077
0.968915
0.917987
0.879103
0.853044
0.84021
0.840576
0.853662
0.878406
0.913302
0.956347
1.00521
1.05724
1.10955
1.15902
1.20251
1.23697
1.25976
1.26888
1.26314
1.24238
1.20748
1.16021
1.1033
1.03994
0.175181
0.318392
0.397829
0.45061
0.489743
0.520076
0.544114
0.563421
0.579076
0.591851
0.602307
0.610848
0.617766
0.623285
0.627589
0.630848
0.633241
0.634973
0.636293
0.637508
0.638892
0.640783
0.643564
0.647674
0.653617
0.661973
0.673406
0.688657
0.708519
0.733772
0.765069
0.802769
0.846728
0.896129
0.949417
1.00445
1.05885
1.11052
1.15811
1.20126
1.24072
1.27763
1.31283
1.34689
1.3793
1.40858
1.43252
1.44864
1.45472
1.44929
1.43204
1.40405
1.36785
1.32714
1.28628
1.24958
1.2206
1.20168
1.19372
1.19629
1.20799
1.22685
1.25063
1.27707
1.30418
1.33073
1.35664
1.38179
1.40559
1.427
1.44444
1.45578
1.45834
1.44909
1.42501
1.38382
1.32514
1.25187
1.17062
1.09026
1.01918
0.963517
0.927142
0.912413
0.920685
0.952858
1.00968
1.09129
1.19635
1.32176
1.46299
1.61452
1.77
1.92192
2.06159
2.17905
2.26341
2.30338
2.28868
2.21303
2.08415
1.92891
1.77929
1.66146
1.58926
1.56455
1.58134
1.63003
1.7002
1.7822
1.86795
1.95142
2.02873
2.09804
2.1592
2.21324
2.26187
2.30691
2.34986
2.39156
2.43211
2.47084
2.50653
2.53767
2.56277
2.58069
2.59146
2.59531
2.59248
2.58332
2.56829
2.54793
2.52277
2.49334
2.46002
2.42307
2.38258
2.33852
2.29077
2.23917
2.18359
2.1239
2.06004
1.99199
1.91979
1.84355
1.76346
1.67987
1.59328
1.50441
1.4142
1.32383
1.23472
1.14845
1.0667
0.991206
0.923672
0.865712
0.818806
0.784233
0.762997
0.755733
0.762604
0.783122
0.816354
0.860417
0.912915
0.971008
1.03149
1.09086
1.14552
1.19196
1.22701
1.24815
1.25378
1.24333
1.21739
1.17757
1.12651
1.06738
0.178837
0.338199
0.422428
0.477831
0.518568
0.549912
0.574633
0.594477
0.610654
0.624038
0.635267
0.644803
0.652983
0.660055
0.666209
0.671607
0.676404
0.680768
0.684899
0.689042
0.693446
0.698402
0.704229
0.711287
0.719977
0.730754
0.744126
0.760651
0.780912
0.805482
0.834854
0.86934
0.908951
0.953273
1.0014
1.05196
1.1033
1.15379
1.2022
1.24702
1.2887
1.32786
1.36505
1.40051
1.43378
1.4636
1.48804
1.50488
1.51204
1.50798
1.49219
1.46541
1.42975
1.38848
1.34566
1.30542
1.27137
1.24605
1.23067
1.22517
1.22847
1.23885
1.2543
1.27286
1.29292
1.31387
1.33551
1.3574
1.37893
1.39914
1.41658
1.42923
1.43446
1.42927
1.41049
1.37547
1.32318
1.25551
1.1779
1.09816
1.02395
0.96123
0.914209
0.88569
0.877322
0.89041
0.926832
0.988918
1.07815
1.19385
1.33283
1.4899
1.65846
1.83066
1.99748
2.14869
2.27298
2.35808
2.39133
2.36157
2.26732
2.12908
1.9777
1.84387
1.74849
1.69956
1.69467
1.72554
1.78174
1.85305
1.93074
2.00813
2.08074
2.14616
2.20373
2.25404
2.29843
2.33845
2.37546
2.41027
2.44306
2.47332
2.50004
2.5219
2.53765
2.54641
2.54847
2.54414
2.53375
2.51774
2.49662
2.47095
2.44128
2.4081
2.37179
2.33257
2.29052
2.24561
2.19771
2.14672
2.09251
2.03501
1.97419
1.91003
1.84252
1.7717
1.6976
1.62036
1.54018
1.45747
1.37281
1.28708
1.20137
1.11704
1.03561
0.958689
0.88793
0.824974
0.771421
0.728819
0.698626
0.682122
0.680262
0.693415
0.721522
0.76316
0.816108
0.877475
0.943822
1.01131
1.07588
1.1335
1.18046
1.21371
1.2311
1.23162
1.21552
1.18412
1.13995
1.08613
0.179181
0.353363
0.441799
0.499659
0.542084
0.574721
0.600549
0.621436
0.638678
0.653228
0.665799
0.676928
0.687012
0.696345
0.705141
0.713567
0.721757
0.729838
0.737943
0.746223
0.754889
0.764199
0.774415
0.785812
0.79869
0.813381
0.830247
0.849681
0.872089
0.89787
0.927377
0.960862
0.998404
1.03984
1.08469
1.13221
1.18145
1.231
1.27867
1.32386
1.36647
1.40667
1.44467
1.48051
1.51375
1.54337
1.56779
1.58512
1.59346
1.59129
1.57788
1.55354
1.5198
1.47931
1.43552
1.39221
1.35285
1.32013
1.29565
1.27986
1.27222
1.27153
1.27626
1.28485
1.29621
1.31032
1.32651
1.34405
1.36214
1.37976
1.39543
1.40712
1.41226
1.40788
1.39089
1.3587
1.31012
1.24662
1.17274
1.09502
1.01995
0.953104
0.898989
0.860786
0.840155
0.838191
0.856871
0.899502
0.96963
1.06921
1.19737
1.35036
1.52221
1.70525
1.89043
2.06748
2.22505
2.35071
2.43101
2.45219
2.40529
2.30124
2.16529
2.0285
1.91707
1.84573
1.81754
1.82739
1.86613
1.92367
1.99085
2.06033
2.12692
2.18753
2.24084
2.28689
2.32656
2.36111
2.39171
2.41916
2.44371
2.46506
2.48245
2.4948
2.50113
2.5009
2.49452
2.48236
2.46482
2.44236
2.4155
2.38479
2.35077
2.31388
2.27447
2.23275
2.18879
2.14257
2.09402
2.04308
1.98972
1.93396
1.87582
1.81533
1.7525
1.68729
1.61965
1.54949
1.47677
1.40153
1.32404
1.24477
1.16454
1.08443
1.00575
0.929981
0.85866
0.793334
0.735533
0.686796
0.648709
0.622918
0.611048
0.614468
0.634285
0.669966
0.719838
0.781214
0.850587
0.923836
0.996485
1.06398
1.12205
1.16702
1.19617
1.208
1.20228
1.18007
1.14363
1.09601
0.175108
0.36025
0.45127
0.510982
0.555142
0.589585
0.61732
0.64018
0.659433
0.676039
0.690764
0.704216
0.716872
0.729096
0.741153
0.753234
0.765474
0.777972
0.79081
0.804058
0.817869
0.832482
0.848108
0.864953
0.883233
0.90318
0.925042
0.949082
0.975572
1.00477
1.03693
1.0722
1.11068
1.15229
1.1968
1.24384
1.29301
1.34198
1.38929
1.43446
1.47722
1.51748
1.55524
1.59041
1.6226
1.651
1.6744
1.69123
1.69989
1.69895
1.68757
1.66571
1.63435
1.59545
1.55182
1.50667
1.4632
1.4241
1.39125
1.3656
1.34718
1.33539